/*--------------------------------*- C++ -*----------------------------------*\
| =========                 |                                                 |
| \\      /  F ield         | OpenFOAM: The Open Source CFD Toolbox           |
|  \\    /   O peration     | Version:  v2012                                 |
|   \\  /    A nd           | Website:  www.openfoam.com                      |
|    \\/     M anipulation  |                                                 |
\*---------------------------------------------------------------------------*/
FoamFile
{
    version     2.0;
    format      ascii;
    class       volScalarField;
    location    "0.45";
    object      p_rgh;
}
// * * * * * * * * * * * * * * * * * * * * * * * * * * * * * * * * * * * * * //

dimensions      [1 -1 -2 0 0 0 0];


internalField   nonuniform List<scalar> 
3332
(
3.48641e+06
3.48658e+06
3.4868e+06
3.48704e+06
3.48729e+06
3.48755e+06
3.48781e+06
3.48807e+06
3.48833e+06
3.48858e+06
3.48882e+06
3.48906e+06
3.48929e+06
3.4895e+06
3.48971e+06
3.48991e+06
3.4901e+06
3.49029e+06
3.49046e+06
3.49062e+06
3.48341e+06
3.48394e+06
3.48453e+06
3.48502e+06
3.48551e+06
3.48595e+06
3.48637e+06
3.48676e+06
3.48713e+06
3.48748e+06
3.48781e+06
3.48812e+06
3.48841e+06
3.48869e+06
3.48895e+06
3.4892e+06
3.48943e+06
3.48965e+06
3.48985e+06
3.49005e+06
3.49023e+06
3.4904e+06
3.47185e+06
3.47203e+06
3.47154e+06
3.47295e+06
3.47053e+06
3.46473e+06
3.46034e+06
3.45091e+06
3.4279e+06
3.45119e+06
3.46816e+06
3.47379e+06
3.47527e+06
3.47795e+06
3.47924e+06
3.48072e+06
3.48174e+06
3.48272e+06
3.48352e+06
3.48425e+06
3.4849e+06
3.48548e+06
3.486e+06
3.48647e+06
3.48691e+06
3.48731e+06
3.48768e+06
3.48801e+06
3.48833e+06
3.48862e+06
3.48889e+06
3.48915e+06
3.48939e+06
3.48961e+06
3.48982e+06
3.49001e+06
3.49019e+06
3.45677e+06
3.45064e+06
3.45551e+06
3.4521e+06
3.45245e+06
3.44392e+06
3.44045e+06
3.42857e+06
3.40883e+06
3.43528e+06
3.44334e+06
3.45753e+06
3.46079e+06
3.46784e+06
3.47061e+06
3.47417e+06
3.47619e+06
3.47823e+06
3.4797e+06
3.48103e+06
3.48212e+06
3.48308e+06
3.4839e+06
3.48463e+06
3.48527e+06
3.48585e+06
3.48636e+06
3.48683e+06
3.48725e+06
3.48763e+06
3.48798e+06
3.48831e+06
3.4886e+06
3.48888e+06
3.48913e+06
3.48937e+06
3.48959e+06
3.4898e+06
3.48999e+06
3.44328e+06
3.43185e+06
3.44139e+06
3.43387e+06
3.43652e+06
3.42621e+06
3.42378e+06
3.41009e+06
3.3936e+06
3.42177e+06
3.43346e+06
3.44902e+06
3.45457e+06
3.46266e+06
3.46657e+06
3.47083e+06
3.47349e+06
3.47599e+06
3.47785e+06
3.47949e+06
3.48083e+06
3.48199e+06
3.48298e+06
3.48384e+06
3.4846e+06
3.48526e+06
3.48585e+06
3.48637e+06
3.48684e+06
3.48727e+06
3.48765e+06
3.488e+06
3.48832e+06
3.48862e+06
3.48889e+06
3.48914e+06
3.48937e+06
3.48959e+06
3.48979e+06
3.48997e+06
3.43219e+06
3.41732e+06
3.42989e+06
3.4196e+06
3.42378e+06
3.41262e+06
3.41141e+06
3.39682e+06
3.38273e+06
3.41109e+06
3.42586e+06
3.44213e+06
3.44958e+06
3.45835e+06
3.4632e+06
3.46799e+06
3.47118e+06
3.47405e+06
3.47624e+06
3.47814e+06
3.47968e+06
3.48102e+06
3.48215e+06
3.48313e+06
3.48398e+06
3.48472e+06
3.48537e+06
3.48595e+06
3.48646e+06
3.48692e+06
3.48734e+06
3.48771e+06
3.48805e+06
3.48837e+06
3.48865e+06
3.48892e+06
3.48916e+06
3.48938e+06
3.48959e+06
3.48978e+06
3.42352e+06
3.40748e+06
3.42117e+06
3.40975e+06
3.41462e+06
3.40362e+06
3.40374e+06
3.38893e+06
3.37607e+06
3.40349e+06
3.42041e+06
3.43696e+06
3.44579e+06
3.45498e+06
3.46054e+06
3.46569e+06
3.46929e+06
3.47244e+06
3.47489e+06
3.47698e+06
3.4787e+06
3.48017e+06
3.48142e+06
3.48249e+06
3.48342e+06
3.48423e+06
3.48494e+06
3.48556e+06
3.48611e+06
3.4866e+06
3.48704e+06
3.48744e+06
3.4878e+06
3.48813e+06
3.48842e+06
3.4887e+06
3.48895e+06
3.48918e+06
3.4894e+06
3.48959e+06
3.48978e+06
3.41733e+06
3.40206e+06
3.41522e+06
3.40406e+06
3.40877e+06
3.39901e+06
3.39953e+06
3.38464e+06
3.37247e+06
3.39858e+06
3.41679e+06
3.43334e+06
3.44313e+06
3.45251e+06
3.45856e+06
3.46394e+06
3.46783e+06
3.47117e+06
3.4738e+06
3.47604e+06
3.47788e+06
3.47946e+06
3.4808e+06
3.48195e+06
3.48294e+06
3.4838e+06
3.48455e+06
3.48521e+06
3.48579e+06
3.48631e+06
3.48677e+06
3.48718e+06
3.48756e+06
3.4879e+06
3.48821e+06
3.48849e+06
3.48875e+06
3.48899e+06
3.48921e+06
3.48941e+06
3.4896e+06
3.41324e+06
3.40011e+06
3.41188e+06
3.40197e+06
3.40604e+06
3.3983e+06
3.39828e+06
3.38394e+06
3.37159e+06
3.39618e+06
3.41487e+06
3.43119e+06
3.4415e+06
3.4509e+06
3.45724e+06
3.46273e+06
3.46679e+06
3.47024e+06
3.47298e+06
3.47531e+06
3.47724e+06
3.47889e+06
3.48029e+06
3.48149e+06
3.48252e+06
3.48342e+06
3.48421e+06
3.48489e+06
3.4855e+06
3.48604e+06
3.48651e+06
3.48694e+06
3.48733e+06
3.48768e+06
3.488e+06
3.48829e+06
3.48856e+06
3.4888e+06
3.48903e+06
3.48924e+06
3.48943e+06
3.41191e+06
3.40142e+06
3.41089e+06
3.40283e+06
3.406e+06
3.40061e+06
3.4e+06
3.38618e+06
3.3721e+06
3.39526e+06
3.41415e+06
3.43017e+06
3.44075e+06
3.45004e+06
3.45652e+06
3.46201e+06
3.46615e+06
3.46964e+06
3.47244e+06
3.4748e+06
3.47678e+06
3.47846e+06
3.47989e+06
3.48113e+06
3.48219e+06
3.48311e+06
3.48392e+06
3.48462e+06
3.48524e+06
3.48579e+06
3.48629e+06
3.48673e+06
3.48712e+06
3.48748e+06
3.48781e+06
3.4881e+06
3.48837e+06
3.48862e+06
3.48885e+06
3.48906e+06
3.48926e+06
3.41266e+06
3.40521e+06
3.41183e+06
3.40619e+06
3.40808e+06
3.40536e+06
3.40357e+06
3.39063e+06
3.37416e+06
3.39561e+06
3.41456e+06
3.43014e+06
3.44079e+06
3.44986e+06
3.45635e+06
3.46175e+06
3.46589e+06
3.46935e+06
3.47214e+06
3.47451e+06
3.47648e+06
3.47817e+06
3.47961e+06
3.48086e+06
3.48193e+06
3.48286e+06
3.48368e+06
3.48439e+06
3.48502e+06
3.48558e+06
3.48608e+06
3.48652e+06
3.48693e+06
3.48729e+06
3.48762e+06
3.48792e+06
3.4882e+06
3.48845e+06
3.48868e+06
3.4889e+06
3.48909e+06
3.41529e+06
3.41131e+06
3.41464e+06
3.41191e+06
3.41204e+06
3.41192e+06
3.4087e+06
3.39709e+06
3.37835e+06
3.39738e+06
3.41612e+06
3.43102e+06
3.44158e+06
3.45031e+06
3.45669e+06
3.46192e+06
3.46598e+06
3.46935e+06
3.47209e+06
3.47441e+06
3.47636e+06
3.47802e+06
3.47945e+06
3.48068e+06
3.48175e+06
3.48268e+06
3.48349e+06
3.4842e+06
3.48483e+06
3.4854e+06
3.4859e+06
3.48634e+06
3.48675e+06
3.48711e+06
3.48745e+06
3.48775e+06
3.48803e+06
3.48828e+06
3.48852e+06
3.48874e+06
3.48894e+06
3.41962e+06
3.41964e+06
3.41938e+06
3.42e+06
3.41788e+06
3.41974e+06
3.41523e+06
3.40511e+06
3.38383e+06
3.40021e+06
3.41861e+06
3.43268e+06
3.44304e+06
3.45131e+06
3.4575e+06
3.46249e+06
3.46639e+06
3.46962e+06
3.47227e+06
3.4745e+06
3.47638e+06
3.478e+06
3.47939e+06
3.48059e+06
3.48164e+06
3.48255e+06
3.48335e+06
3.48406e+06
3.48468e+06
3.48524e+06
3.48574e+06
3.48618e+06
3.48659e+06
3.48695e+06
3.48728e+06
3.48759e+06
3.48787e+06
3.48813e+06
3.48836e+06
3.48858e+06
3.48878e+06
3.42659e+06
3.43055e+06
3.42643e+06
3.4304e+06
3.42589e+06
3.4285e+06
3.42346e+06
3.41469e+06
3.39126e+06
3.40397e+06
3.42211e+06
3.43507e+06
3.44513e+06
3.45282e+06
3.45874e+06
3.4634e+06
3.4671e+06
3.47014e+06
3.47265e+06
3.47476e+06
3.47656e+06
3.4781e+06
3.47943e+06
3.48059e+06
3.4816e+06
3.48248e+06
3.48326e+06
3.48395e+06
3.48456e+06
3.48511e+06
3.4856e+06
3.48604e+06
3.48644e+06
3.4868e+06
3.48713e+06
3.48744e+06
3.48771e+06
3.48797e+06
3.48821e+06
3.48843e+06
3.48863e+06
3.43663e+06
3.44354e+06
3.4364e+06
3.4428e+06
3.43647e+06
3.43844e+06
3.43413e+06
3.42618e+06
3.40115e+06
3.40899e+06
3.42675e+06
3.43821e+06
3.44786e+06
3.45482e+06
3.46037e+06
3.46464e+06
3.46808e+06
3.47088e+06
3.47322e+06
3.47518e+06
3.47686e+06
3.47831e+06
3.47957e+06
3.48066e+06
3.48163e+06
3.48247e+06
3.48322e+06
3.48388e+06
3.48448e+06
3.48501e+06
3.48548e+06
3.48591e+06
3.48631e+06
3.48666e+06
3.48699e+06
3.48729e+06
3.48757e+06
3.48783e+06
3.48806e+06
3.48828e+06
3.48848e+06
3.45019e+06
3.45786e+06
3.44997e+06
3.4567e+06
3.44983e+06
3.45032e+06
3.4477e+06
3.44014e+06
3.41378e+06
3.41541e+06
3.43255e+06
3.44207e+06
3.45117e+06
3.45723e+06
3.46236e+06
3.46615e+06
3.4693e+06
3.47182e+06
3.47395e+06
3.47575e+06
3.47729e+06
3.47863e+06
3.47979e+06
3.48081e+06
3.48171e+06
3.48251e+06
3.48322e+06
3.48385e+06
3.48442e+06
3.48493e+06
3.48539e+06
3.48581e+06
3.48619e+06
3.48654e+06
3.48686e+06
3.48716e+06
3.48743e+06
3.48769e+06
3.48792e+06
3.48814e+06
3.48834e+06
3.46605e+06
3.4718e+06
3.46671e+06
3.47127e+06
3.46577e+06
3.46458e+06
3.46388e+06
3.45645e+06
3.42887e+06
3.42323e+06
3.43941e+06
3.44659e+06
3.45499e+06
3.46001e+06
3.46464e+06
3.4679e+06
3.47071e+06
3.47293e+06
3.47483e+06
3.47643e+06
3.47782e+06
3.47903e+06
3.48009e+06
3.48103e+06
3.48186e+06
3.4826e+06
3.48326e+06
3.48386e+06
3.48439e+06
3.48488e+06
3.48532e+06
3.48572e+06
3.48609e+06
3.48643e+06
3.48674e+06
3.48703e+06
3.4873e+06
3.48755e+06
3.48778e+06
3.488e+06
3.4882e+06
3.48589e+06
3.4865e+06
3.48616e+06
3.48617e+06
3.48356e+06
3.48066e+06
3.48215e+06
3.47447e+06
3.44599e+06
3.43218e+06
3.44695e+06
3.45158e+06
3.45917e+06
3.46306e+06
3.46713e+06
3.46984e+06
3.47228e+06
3.47418e+06
3.47583e+06
3.47723e+06
3.47845e+06
3.47952e+06
3.48047e+06
3.48131e+06
3.48206e+06
3.48273e+06
3.48334e+06
3.48389e+06
3.48439e+06
3.48485e+06
3.48526e+06
3.48564e+06
3.486e+06
3.48632e+06
3.48663e+06
3.48691e+06
3.48718e+06
3.48742e+06
3.48765e+06
3.48787e+06
3.48807e+06
3.50628e+06
3.50041e+06
3.50621e+06
3.50104e+06
3.50208e+06
3.49757e+06
3.50148e+06
3.49324e+06
3.46445e+06
3.44184e+06
3.45476e+06
3.45685e+06
3.46353e+06
3.46627e+06
3.46978e+06
3.4719e+06
3.47397e+06
3.47553e+06
3.47693e+06
3.47811e+06
3.47916e+06
3.48008e+06
3.4809e+06
3.48164e+06
3.48231e+06
3.48291e+06
3.48346e+06
3.48396e+06
3.48441e+06
3.48484e+06
3.48522e+06
3.48558e+06
3.48592e+06
3.48623e+06
3.48653e+06
3.4868e+06
3.48706e+06
3.4873e+06
3.48753e+06
3.48774e+06
3.48794e+06
3.52543e+06
3.51412e+06
3.52506e+06
3.51544e+06
3.51984e+06
3.51416e+06
3.52019e+06
3.51138e+06
3.48299e+06
3.45161e+06
3.46241e+06
3.46213e+06
3.46788e+06
3.46954e+06
3.47249e+06
3.47405e+06
3.47575e+06
3.47697e+06
3.47811e+06
3.47907e+06
3.47993e+06
3.4807e+06
3.48139e+06
3.48202e+06
3.48259e+06
3.48312e+06
3.4836e+06
3.48405e+06
3.48446e+06
3.48484e+06
3.4852e+06
3.48554e+06
3.48585e+06
3.48615e+06
3.48643e+06
3.4867e+06
3.48695e+06
3.48718e+06
3.48741e+06
3.48762e+06
3.48781e+06
3.54036e+06
3.52656e+06
3.5401e+06
3.52854e+06
3.53501e+06
3.52907e+06
3.53659e+06
3.52735e+06
3.50008e+06
3.46085e+06
3.46942e+06
3.46719e+06
3.47205e+06
3.47277e+06
3.47519e+06
3.47624e+06
3.47758e+06
3.47848e+06
3.47936e+06
3.48009e+06
3.48077e+06
3.48137e+06
3.48193e+06
3.48244e+06
3.48292e+06
3.48336e+06
3.48377e+06
3.48416e+06
3.48452e+06
3.48487e+06
3.48519e+06
3.4855e+06
3.4858e+06
3.48608e+06
3.48634e+06
3.4866e+06
3.48684e+06
3.48707e+06
3.48729e+06
3.4875e+06
3.48769e+06
3.54943e+06
3.5374e+06
3.54957e+06
3.53931e+06
3.54631e+06
3.54093e+06
3.54911e+06
3.54e+06
3.51431e+06
3.46903e+06
3.47527e+06
3.47182e+06
3.47588e+06
3.4759e+06
3.47784e+06
3.47845e+06
3.47944e+06
3.48003e+06
3.48067e+06
3.48117e+06
3.48166e+06
3.48209e+06
3.48251e+06
3.4829e+06
3.48327e+06
3.48363e+06
3.48397e+06
3.48429e+06
3.48461e+06
3.48491e+06
3.4852e+06
3.48548e+06
3.48575e+06
3.48601e+06
3.48626e+06
3.48651e+06
3.48674e+06
3.48696e+06
3.48718e+06
3.48738e+06
3.48757e+06
3.55237e+06
3.54611e+06
3.55307e+06
3.54737e+06
3.55312e+06
3.54862e+06
3.55703e+06
3.54792e+06
3.52461e+06
3.4758e+06
3.47965e+06
3.47597e+06
3.47932e+06
3.47893e+06
3.48043e+06
3.48067e+06
3.48134e+06
3.48164e+06
3.48202e+06
3.4823e+06
3.48259e+06
3.48286e+06
3.48313e+06
3.48339e+06
3.48366e+06
3.48392e+06
3.48418e+06
3.48444e+06
3.4847e+06
3.48496e+06
3.48521e+06
3.48546e+06
3.48571e+06
3.48595e+06
3.48619e+06
3.48642e+06
3.48664e+06
3.48686e+06
3.48707e+06
3.48727e+06
3.48746e+06
3.55071e+06
3.55228e+06
3.55201e+06
3.55239e+06
3.55612e+06
3.55198e+06
3.56052e+06
3.55059e+06
3.53075e+06
3.48137e+06
3.48264e+06
3.47982e+06
3.48243e+06
3.48194e+06
3.483e+06
3.48296e+06
3.48329e+06
3.48332e+06
3.48343e+06
3.48349e+06
3.48357e+06
3.48366e+06
3.48378e+06
3.48391e+06
3.48406e+06
3.48423e+06
3.48441e+06
3.48461e+06
3.48481e+06
3.48502e+06
3.48524e+06
3.48546e+06
3.48568e+06
3.4859e+06
3.48612e+06
3.48634e+06
3.48655e+06
3.48676e+06
3.48696e+06
3.48716e+06
3.48734e+06
3.54873e+06
3.55609e+06
3.55037e+06
3.55529e+06
3.55726e+06
3.5523e+06
3.5607e+06
3.54909e+06
3.5337e+06
3.48675e+06
3.48478e+06
3.48379e+06
3.48546e+06
3.4851e+06
3.48565e+06
3.48536e+06
3.48533e+06
3.48508e+06
3.48491e+06
3.48473e+06
3.4846e+06
3.48451e+06
3.48446e+06
3.48446e+06
3.48449e+06
3.48456e+06
3.48466e+06
3.48478e+06
3.48493e+06
3.48509e+06
3.48526e+06
3.48545e+06
3.48565e+06
3.48585e+06
3.48605e+06
3.48626e+06
3.48646e+06
3.48666e+06
3.48686e+06
3.48705e+06
3.48723e+06
3.55289e+06
3.55916e+06
3.55384e+06
3.55809e+06
3.55977e+06
3.55319e+06
3.55985e+06
3.5475e+06
3.53635e+06
3.49397e+06
3.4872e+06
3.48851e+06
3.48878e+06
3.48863e+06
3.4885e+06
3.48795e+06
3.4875e+06
3.48694e+06
3.48647e+06
3.48603e+06
3.48567e+06
3.48538e+06
3.48517e+06
3.48502e+06
3.48493e+06
3.4849e+06
3.48491e+06
3.48496e+06
3.48505e+06
3.48516e+06
3.4853e+06
3.48545e+06
3.48562e+06
3.4858e+06
3.48599e+06
3.48618e+06
3.48637e+06
3.48657e+06
3.48676e+06
3.48694e+06
3.48713e+06
3.56741e+06
3.56338e+06
3.56663e+06
3.56364e+06
3.56729e+06
3.55898e+06
3.56239e+06
3.55242e+06
3.54393e+06
3.50581e+06
3.49148e+06
3.49472e+06
3.49283e+06
3.49276e+06
3.49169e+06
3.49081e+06
3.48984e+06
3.48893e+06
3.48812e+06
3.4874e+06
3.48679e+06
3.48629e+06
3.4859e+06
3.4856e+06
3.48539e+06
3.48524e+06
3.48517e+06
3.48515e+06
3.48517e+06
3.48524e+06
3.48533e+06
3.48545e+06
3.4856e+06
3.48576e+06
3.48593e+06
3.4861e+06
3.48629e+06
3.48647e+06
3.48666e+06
3.48684e+06
3.48702e+06
3.59117e+06
3.57146e+06
3.58849e+06
3.57464e+06
3.58163e+06
3.57225e+06
3.57269e+06
3.56774e+06
3.56008e+06
3.52369e+06
3.49876e+06
3.50281e+06
3.49793e+06
3.49761e+06
3.49532e+06
3.49398e+06
3.49238e+06
3.49107e+06
3.48986e+06
3.48883e+06
3.48796e+06
3.48723e+06
3.48665e+06
3.48619e+06
3.48584e+06
3.48559e+06
3.48543e+06
3.48533e+06
3.48529e+06
3.48531e+06
3.48537e+06
3.48546e+06
3.48557e+06
3.48571e+06
3.48586e+06
3.48603e+06
3.4862e+06
3.48638e+06
3.48656e+06
3.48674e+06
3.48692e+06
3.61608e+06
3.58481e+06
3.61245e+06
3.59106e+06
3.60073e+06
3.5922e+06
3.59101e+06
3.59199e+06
3.58369e+06
3.54666e+06
3.50897e+06
3.51243e+06
3.50408e+06
3.50313e+06
3.49941e+06
3.49747e+06
3.49514e+06
3.49336e+06
3.4917e+06
3.49033e+06
3.48916e+06
3.48819e+06
3.48741e+06
3.48679e+06
3.4863e+06
3.48594e+06
3.48568e+06
3.48551e+06
3.48541e+06
3.48538e+06
3.4854e+06
3.48545e+06
3.48555e+06
3.48566e+06
3.4858e+06
3.48596e+06
3.48612e+06
3.48629e+06
3.48647e+06
3.48664e+06
3.48682e+06
3.63501e+06
3.60431e+06
3.63171e+06
3.61126e+06
3.6197e+06
3.61481e+06
3.61222e+06
3.61924e+06
3.60867e+06
3.57229e+06
3.52094e+06
3.52273e+06
3.51107e+06
3.50912e+06
3.50392e+06
3.50123e+06
3.4981e+06
3.49577e+06
3.49363e+06
3.49188e+06
3.49039e+06
3.48917e+06
3.48817e+06
3.48738e+06
3.48675e+06
3.48628e+06
3.48593e+06
3.48568e+06
3.48553e+06
3.48544e+06
3.48542e+06
3.48545e+06
3.48552e+06
3.48562e+06
3.48574e+06
3.48588e+06
3.48604e+06
3.4862e+06
3.48637e+06
3.48654e+06
3.48671e+06
3.64538e+06
3.62677e+06
3.64397e+06
3.63125e+06
3.63487e+06
3.63415e+06
3.62867e+06
3.64079e+06
3.62564e+06
3.59567e+06
3.53323e+06
3.53254e+06
3.51867e+06
3.51536e+06
3.50882e+06
3.50521e+06
3.50126e+06
3.4983e+06
3.49563e+06
3.49346e+06
3.49163e+06
3.49014e+06
3.48892e+06
3.48795e+06
3.48719e+06
3.4866e+06
3.48616e+06
3.48584e+06
3.48563e+06
3.4855e+06
3.48544e+06
3.48544e+06
3.48548e+06
3.48556e+06
3.48567e+06
3.48581e+06
3.48595e+06
3.48611e+06
3.48628e+06
3.48645e+06
3.48662e+06
3.6516e+06
3.64889e+06
3.65258e+06
3.64842e+06
3.64651e+06
3.6475e+06
3.63846e+06
3.65116e+06
3.63121e+06
3.61221e+06
3.54707e+06
3.54114e+06
3.52712e+06
3.52175e+06
3.51416e+06
3.5094e+06
3.5046e+06
3.50093e+06
3.49769e+06
3.49507e+06
3.49288e+06
3.4911e+06
3.48965e+06
3.4885e+06
3.4876e+06
3.48689e+06
3.48636e+06
3.48598e+06
3.48571e+06
3.48554e+06
3.48545e+06
3.48542e+06
3.48544e+06
3.48551e+06
3.48561e+06
3.48573e+06
3.48587e+06
3.48602e+06
3.48618e+06
3.48635e+06
3.48652e+06
3.65983e+06
3.67087e+06
3.66246e+06
3.66492e+06
3.65871e+06
3.65917e+06
3.6496e+06
3.65566e+06
3.63965e+06
3.62755e+06
3.56846e+06
3.54977e+06
3.53745e+06
3.52852e+06
3.52011e+06
3.5138e+06
3.50812e+06
3.50362e+06
3.49978e+06
3.49667e+06
3.4941e+06
3.49202e+06
3.49035e+06
3.48902e+06
3.48797e+06
3.48716e+06
3.48655e+06
3.48609e+06
3.48577e+06
3.48556e+06
3.48544e+06
3.48539e+06
3.4854e+06
3.48545e+06
3.48553e+06
3.48565e+06
3.48578e+06
3.48593e+06
3.48609e+06
3.48626e+06
3.48642e+06
3.67066e+06
3.69347e+06
3.67472e+06
3.68361e+06
3.67425e+06
3.6751e+06
3.66862e+06
3.66747e+06
3.66389e+06
3.6532e+06
3.60029e+06
3.56066e+06
3.55033e+06
3.53604e+06
3.52674e+06
3.51844e+06
3.51181e+06
3.50635e+06
3.50186e+06
3.49822e+06
3.49526e+06
3.49288e+06
3.49098e+06
3.48947e+06
3.48829e+06
3.48738e+06
3.48669e+06
3.48618e+06
3.48582e+06
3.48557e+06
3.48542e+06
3.48535e+06
3.48534e+06
3.48538e+06
3.48546e+06
3.48556e+06
3.48569e+06
3.48584e+06
3.486e+06
3.48616e+06
3.48633e+06
3.68279e+06
3.71456e+06
3.688e+06
3.70255e+06
3.69132e+06
3.69421e+06
3.69163e+06
3.68872e+06
3.69705e+06
3.68383e+06
3.63631e+06
3.57417e+06
3.56426e+06
3.54428e+06
3.53376e+06
3.52325e+06
3.51554e+06
3.50904e+06
3.50387e+06
3.49969e+06
3.49633e+06
3.49366e+06
3.49153e+06
3.48986e+06
3.48856e+06
3.48756e+06
3.4868e+06
3.48623e+06
3.48583e+06
3.48556e+06
3.48538e+06
3.4853e+06
3.48527e+06
3.4853e+06
3.48537e+06
3.48548e+06
3.4856e+06
3.48575e+06
3.4859e+06
3.48606e+06
3.48623e+06
3.6951e+06
3.73056e+06
3.70061e+06
3.7182e+06
3.70611e+06
3.71067e+06
3.70965e+06
3.70668e+06
3.721e+06
3.70244e+06
3.66863e+06
3.59006e+06
3.57717e+06
3.5532e+06
3.54066e+06
3.52811e+06
3.51915e+06
3.51161e+06
3.50573e+06
3.501e+06
3.49726e+06
3.4943e+06
3.49198e+06
3.49016e+06
3.48875e+06
3.48767e+06
3.48685e+06
3.48625e+06
3.48581e+06
3.48552e+06
3.48533e+06
3.48523e+06
3.4852e+06
3.48522e+06
3.48529e+06
3.48538e+06
3.48551e+06
3.48565e+06
3.48581e+06
3.48597e+06
3.48614e+06
3.70816e+06
3.7417e+06
3.71246e+06
3.73016e+06
3.71795e+06
3.72313e+06
3.72056e+06
3.71836e+06
3.72887e+06
3.71159e+06
3.69224e+06
3.61281e+06
3.58774e+06
3.56313e+06
3.54706e+06
3.53292e+06
3.52245e+06
3.51393e+06
3.50733e+06
3.50209e+06
3.498e+06
3.49479e+06
3.49229e+06
3.49035e+06
3.48885e+06
3.48771e+06
3.48685e+06
3.48622e+06
3.48576e+06
3.48545e+06
3.48525e+06
3.48514e+06
3.48511e+06
3.48513e+06
3.48519e+06
3.48529e+06
3.48541e+06
3.48555e+06
3.48571e+06
3.48587e+06
3.48604e+06
3.72009e+06
3.74817e+06
3.72352e+06
3.73917e+06
3.72834e+06
3.73379e+06
3.73016e+06
3.73166e+06
3.73429e+06
3.72983e+06
3.71653e+06
3.64884e+06
3.59731e+06
3.57476e+06
3.55289e+06
3.53755e+06
3.52526e+06
3.51587e+06
3.50856e+06
3.50288e+06
3.49848e+06
3.49507e+06
3.49243e+06
3.4904e+06
3.48885e+06
3.48767e+06
3.48679e+06
3.48614e+06
3.48567e+06
3.48535e+06
3.48515e+06
3.48504e+06
3.485e+06
3.48502e+06
3.48509e+06
3.48519e+06
3.48531e+06
3.48545e+06
3.48561e+06
3.48578e+06
3.48595e+06
3.72853e+06
3.74956e+06
3.73151e+06
3.74379e+06
3.73571e+06
3.74126e+06
3.73951e+06
3.74602e+06
3.74702e+06
3.75351e+06
3.74112e+06
3.68915e+06
3.60739e+06
3.58597e+06
3.55794e+06
3.54147e+06
3.52736e+06
3.51722e+06
3.50928e+06
3.50328e+06
3.49865e+06
3.49511e+06
3.49239e+06
3.49032e+06
3.48874e+06
3.48754e+06
3.48665e+06
3.486e+06
3.48554e+06
3.48522e+06
3.48502e+06
3.48492e+06
3.48488e+06
3.48491e+06
3.48498e+06
3.48508e+06
3.48521e+06
3.48535e+06
3.48551e+06
3.48568e+06
3.48585e+06
3.72923e+06
3.74365e+06
3.73203e+06
3.74126e+06
3.73627e+06
3.74198e+06
3.74383e+06
3.75512e+06
3.75877e+06
3.77005e+06
3.7576e+06
3.7214e+06
3.62168e+06
3.59301e+06
3.56196e+06
3.54373e+06
3.52841e+06
3.51767e+06
3.50936e+06
3.50316e+06
3.49844e+06
3.49486e+06
3.49213e+06
3.49006e+06
3.4885e+06
3.48732e+06
3.48645e+06
3.48582e+06
3.48537e+06
3.48506e+06
3.48488e+06
3.48478e+06
3.48475e+06
3.48478e+06
3.48486e+06
3.48496e+06
3.4851e+06
3.48525e+06
3.48541e+06
3.48558e+06
3.48576e+06
3.72272e+06
3.73169e+06
3.72464e+06
3.73086e+06
3.728e+06
3.73388e+06
3.73963e+06
3.75428e+06
3.76064e+06
3.77328e+06
3.76193e+06
3.73968e+06
3.64302e+06
3.59369e+06
3.56462e+06
3.5436e+06
3.52814e+06
3.51699e+06
3.50865e+06
3.50246e+06
3.4978e+06
3.4943e+06
3.49164e+06
3.48964e+06
3.48813e+06
3.48701e+06
3.48618e+06
3.48558e+06
3.48515e+06
3.48487e+06
3.4847e+06
3.48462e+06
3.48461e+06
3.48465e+06
3.48473e+06
3.48485e+06
3.48498e+06
3.48514e+06
3.48531e+06
3.48549e+06
3.48566e+06
3.75072e+06
3.76308e+06
3.75325e+06
3.73968e+06
3.66268e+06
3.58866e+06
3.56379e+06
3.54058e+06
3.52609e+06
3.51497e+06
3.50704e+06
3.50111e+06
3.49671e+06
3.4934e+06
3.49091e+06
3.48904e+06
3.48764e+06
3.4866e+06
3.48583e+06
3.48528e+06
3.4849e+06
3.48465e+06
3.48451e+06
3.48445e+06
3.48445e+06
3.4845e+06
3.4846e+06
3.48472e+06
3.48487e+06
3.48503e+06
3.48521e+06
3.48539e+06
3.48557e+06
3.48641e+06
3.48658e+06
3.4868e+06
3.48704e+06
3.48729e+06
3.48755e+06
3.48781e+06
3.48807e+06
3.48833e+06
3.48858e+06
3.48882e+06
3.48906e+06
3.48929e+06
3.4895e+06
3.48971e+06
3.48991e+06
3.4901e+06
3.49029e+06
3.49046e+06
3.49062e+06
3.48341e+06
3.48394e+06
3.48453e+06
3.48502e+06
3.48551e+06
3.48595e+06
3.48637e+06
3.48676e+06
3.48713e+06
3.48748e+06
3.48781e+06
3.48812e+06
3.48841e+06
3.48869e+06
3.48895e+06
3.4892e+06
3.48943e+06
3.48965e+06
3.48985e+06
3.49005e+06
3.49023e+06
3.4904e+06
3.47185e+06
3.47203e+06
3.47154e+06
3.47295e+06
3.47053e+06
3.46473e+06
3.46034e+06
3.45091e+06
3.4279e+06
3.45119e+06
3.46816e+06
3.47379e+06
3.47527e+06
3.47795e+06
3.47924e+06
3.48072e+06
3.48174e+06
3.48272e+06
3.48352e+06
3.48425e+06
3.4849e+06
3.48548e+06
3.486e+06
3.48647e+06
3.48691e+06
3.48731e+06
3.48768e+06
3.48801e+06
3.48833e+06
3.48862e+06
3.48889e+06
3.48915e+06
3.48939e+06
3.48961e+06
3.48982e+06
3.49001e+06
3.49019e+06
3.45677e+06
3.45064e+06
3.45551e+06
3.4521e+06
3.45245e+06
3.44392e+06
3.44045e+06
3.42857e+06
3.40883e+06
3.43528e+06
3.44334e+06
3.45753e+06
3.46079e+06
3.46784e+06
3.47061e+06
3.47417e+06
3.47619e+06
3.47823e+06
3.4797e+06
3.48103e+06
3.48212e+06
3.48308e+06
3.4839e+06
3.48463e+06
3.48527e+06
3.48585e+06
3.48636e+06
3.48683e+06
3.48725e+06
3.48763e+06
3.48798e+06
3.48831e+06
3.4886e+06
3.48888e+06
3.48913e+06
3.48937e+06
3.48959e+06
3.4898e+06
3.48999e+06
3.44328e+06
3.43185e+06
3.44139e+06
3.43387e+06
3.43652e+06
3.42621e+06
3.42378e+06
3.41009e+06
3.3936e+06
3.42177e+06
3.43346e+06
3.44902e+06
3.45457e+06
3.46266e+06
3.46657e+06
3.47083e+06
3.47349e+06
3.47599e+06
3.47785e+06
3.47949e+06
3.48083e+06
3.48199e+06
3.48298e+06
3.48384e+06
3.4846e+06
3.48526e+06
3.48585e+06
3.48637e+06
3.48684e+06
3.48727e+06
3.48765e+06
3.488e+06
3.48832e+06
3.48862e+06
3.48889e+06
3.48914e+06
3.48937e+06
3.48959e+06
3.48979e+06
3.48997e+06
3.43219e+06
3.41732e+06
3.42989e+06
3.4196e+06
3.42378e+06
3.41262e+06
3.41141e+06
3.39682e+06
3.38273e+06
3.41109e+06
3.42586e+06
3.44213e+06
3.44958e+06
3.45835e+06
3.4632e+06
3.46799e+06
3.47118e+06
3.47405e+06
3.47624e+06
3.47814e+06
3.47968e+06
3.48102e+06
3.48215e+06
3.48313e+06
3.48398e+06
3.48472e+06
3.48537e+06
3.48595e+06
3.48646e+06
3.48692e+06
3.48734e+06
3.48771e+06
3.48805e+06
3.48837e+06
3.48865e+06
3.48892e+06
3.48916e+06
3.48938e+06
3.48959e+06
3.48978e+06
3.42352e+06
3.40748e+06
3.42117e+06
3.40975e+06
3.41462e+06
3.40362e+06
3.40374e+06
3.38893e+06
3.37607e+06
3.40349e+06
3.42041e+06
3.43696e+06
3.44579e+06
3.45498e+06
3.46054e+06
3.46569e+06
3.46929e+06
3.47244e+06
3.47489e+06
3.47698e+06
3.4787e+06
3.48017e+06
3.48142e+06
3.48249e+06
3.48342e+06
3.48423e+06
3.48494e+06
3.48556e+06
3.48611e+06
3.4866e+06
3.48704e+06
3.48744e+06
3.4878e+06
3.48813e+06
3.48842e+06
3.4887e+06
3.48895e+06
3.48918e+06
3.4894e+06
3.48959e+06
3.48978e+06
3.41733e+06
3.40206e+06
3.41522e+06
3.40406e+06
3.40877e+06
3.39901e+06
3.39953e+06
3.38464e+06
3.37247e+06
3.39858e+06
3.41679e+06
3.43334e+06
3.44313e+06
3.45251e+06
3.45856e+06
3.46394e+06
3.46783e+06
3.47117e+06
3.4738e+06
3.47604e+06
3.47788e+06
3.47946e+06
3.4808e+06
3.48195e+06
3.48294e+06
3.4838e+06
3.48455e+06
3.48521e+06
3.48579e+06
3.48631e+06
3.48677e+06
3.48718e+06
3.48756e+06
3.4879e+06
3.48821e+06
3.48849e+06
3.48875e+06
3.48899e+06
3.48921e+06
3.48941e+06
3.4896e+06
3.41324e+06
3.40011e+06
3.41188e+06
3.40197e+06
3.40604e+06
3.3983e+06
3.39828e+06
3.38394e+06
3.37159e+06
3.39618e+06
3.41487e+06
3.43119e+06
3.4415e+06
3.4509e+06
3.45724e+06
3.46273e+06
3.46679e+06
3.47024e+06
3.47298e+06
3.47531e+06
3.47724e+06
3.47889e+06
3.48029e+06
3.48149e+06
3.48252e+06
3.48342e+06
3.48421e+06
3.48489e+06
3.4855e+06
3.48604e+06
3.48651e+06
3.48694e+06
3.48733e+06
3.48768e+06
3.488e+06
3.48829e+06
3.48856e+06
3.4888e+06
3.48903e+06
3.48924e+06
3.48943e+06
3.41191e+06
3.40142e+06
3.41089e+06
3.40283e+06
3.406e+06
3.40061e+06
3.4e+06
3.38618e+06
3.3721e+06
3.39526e+06
3.41415e+06
3.43017e+06
3.44075e+06
3.45004e+06
3.45652e+06
3.46201e+06
3.46615e+06
3.46964e+06
3.47244e+06
3.4748e+06
3.47678e+06
3.47846e+06
3.47989e+06
3.48113e+06
3.48219e+06
3.48311e+06
3.48392e+06
3.48462e+06
3.48524e+06
3.48579e+06
3.48629e+06
3.48673e+06
3.48712e+06
3.48748e+06
3.48781e+06
3.4881e+06
3.48837e+06
3.48862e+06
3.48885e+06
3.48906e+06
3.48926e+06
3.41266e+06
3.40521e+06
3.41183e+06
3.40619e+06
3.40808e+06
3.40536e+06
3.40357e+06
3.39063e+06
3.37416e+06
3.39561e+06
3.41456e+06
3.43014e+06
3.44079e+06
3.44986e+06
3.45635e+06
3.46175e+06
3.46589e+06
3.46935e+06
3.47214e+06
3.47451e+06
3.47648e+06
3.47817e+06
3.47961e+06
3.48086e+06
3.48193e+06
3.48286e+06
3.48368e+06
3.48439e+06
3.48502e+06
3.48558e+06
3.48608e+06
3.48652e+06
3.48693e+06
3.48729e+06
3.48762e+06
3.48792e+06
3.4882e+06
3.48845e+06
3.48868e+06
3.4889e+06
3.48909e+06
3.41529e+06
3.41131e+06
3.41464e+06
3.41191e+06
3.41204e+06
3.41192e+06
3.4087e+06
3.39709e+06
3.37835e+06
3.39738e+06
3.41612e+06
3.43102e+06
3.44158e+06
3.45031e+06
3.45669e+06
3.46192e+06
3.46598e+06
3.46935e+06
3.47209e+06
3.47441e+06
3.47636e+06
3.47802e+06
3.47945e+06
3.48068e+06
3.48175e+06
3.48268e+06
3.48349e+06
3.4842e+06
3.48483e+06
3.4854e+06
3.4859e+06
3.48634e+06
3.48675e+06
3.48711e+06
3.48745e+06
3.48775e+06
3.48803e+06
3.48828e+06
3.48852e+06
3.48874e+06
3.48894e+06
3.41962e+06
3.41964e+06
3.41938e+06
3.42e+06
3.41788e+06
3.41974e+06
3.41523e+06
3.40511e+06
3.38383e+06
3.40021e+06
3.41861e+06
3.43268e+06
3.44304e+06
3.45131e+06
3.4575e+06
3.46249e+06
3.46639e+06
3.46962e+06
3.47227e+06
3.4745e+06
3.47638e+06
3.478e+06
3.47939e+06
3.48059e+06
3.48164e+06
3.48255e+06
3.48335e+06
3.48406e+06
3.48468e+06
3.48524e+06
3.48574e+06
3.48618e+06
3.48659e+06
3.48695e+06
3.48728e+06
3.48759e+06
3.48787e+06
3.48813e+06
3.48836e+06
3.48858e+06
3.48878e+06
3.42659e+06
3.43055e+06
3.42643e+06
3.4304e+06
3.42589e+06
3.4285e+06
3.42346e+06
3.41469e+06
3.39126e+06
3.40397e+06
3.42211e+06
3.43507e+06
3.44513e+06
3.45282e+06
3.45874e+06
3.4634e+06
3.4671e+06
3.47014e+06
3.47265e+06
3.47476e+06
3.47656e+06
3.4781e+06
3.47943e+06
3.48059e+06
3.4816e+06
3.48248e+06
3.48326e+06
3.48395e+06
3.48456e+06
3.48511e+06
3.4856e+06
3.48604e+06
3.48644e+06
3.4868e+06
3.48713e+06
3.48744e+06
3.48771e+06
3.48797e+06
3.48821e+06
3.48843e+06
3.48863e+06
3.43663e+06
3.44354e+06
3.4364e+06
3.4428e+06
3.43647e+06
3.43844e+06
3.43413e+06
3.42618e+06
3.40115e+06
3.40899e+06
3.42675e+06
3.43821e+06
3.44786e+06
3.45482e+06
3.46037e+06
3.46464e+06
3.46808e+06
3.47088e+06
3.47322e+06
3.47518e+06
3.47686e+06
3.47831e+06
3.47957e+06
3.48066e+06
3.48163e+06
3.48247e+06
3.48322e+06
3.48388e+06
3.48448e+06
3.48501e+06
3.48548e+06
3.48591e+06
3.48631e+06
3.48666e+06
3.48699e+06
3.48729e+06
3.48757e+06
3.48783e+06
3.48806e+06
3.48828e+06
3.48848e+06
3.45019e+06
3.45786e+06
3.44997e+06
3.4567e+06
3.44983e+06
3.45032e+06
3.4477e+06
3.44014e+06
3.41378e+06
3.41541e+06
3.43255e+06
3.44207e+06
3.45117e+06
3.45723e+06
3.46236e+06
3.46615e+06
3.4693e+06
3.47182e+06
3.47395e+06
3.47575e+06
3.47729e+06
3.47863e+06
3.47979e+06
3.48081e+06
3.48171e+06
3.48251e+06
3.48322e+06
3.48385e+06
3.48442e+06
3.48493e+06
3.48539e+06
3.48581e+06
3.48619e+06
3.48654e+06
3.48686e+06
3.48716e+06
3.48743e+06
3.48769e+06
3.48792e+06
3.48814e+06
3.48834e+06
3.46605e+06
3.4718e+06
3.46671e+06
3.47127e+06
3.46577e+06
3.46458e+06
3.46388e+06
3.45645e+06
3.42887e+06
3.42323e+06
3.43941e+06
3.44659e+06
3.45499e+06
3.46001e+06
3.46464e+06
3.4679e+06
3.47071e+06
3.47293e+06
3.47483e+06
3.47643e+06
3.47782e+06
3.47903e+06
3.48009e+06
3.48103e+06
3.48186e+06
3.4826e+06
3.48326e+06
3.48386e+06
3.48439e+06
3.48488e+06
3.48532e+06
3.48572e+06
3.48609e+06
3.48643e+06
3.48674e+06
3.48703e+06
3.4873e+06
3.48755e+06
3.48778e+06
3.488e+06
3.4882e+06
3.48589e+06
3.4865e+06
3.48616e+06
3.48617e+06
3.48356e+06
3.48066e+06
3.48215e+06
3.47447e+06
3.44599e+06
3.43218e+06
3.44695e+06
3.45158e+06
3.45917e+06
3.46306e+06
3.46713e+06
3.46984e+06
3.47228e+06
3.47418e+06
3.47583e+06
3.47723e+06
3.47845e+06
3.47952e+06
3.48047e+06
3.48131e+06
3.48206e+06
3.48273e+06
3.48334e+06
3.48389e+06
3.48439e+06
3.48485e+06
3.48526e+06
3.48564e+06
3.486e+06
3.48632e+06
3.48663e+06
3.48691e+06
3.48718e+06
3.48742e+06
3.48765e+06
3.48787e+06
3.48807e+06
3.50628e+06
3.50041e+06
3.50621e+06
3.50104e+06
3.50208e+06
3.49757e+06
3.50148e+06
3.49324e+06
3.46445e+06
3.44184e+06
3.45476e+06
3.45685e+06
3.46353e+06
3.46627e+06
3.46978e+06
3.4719e+06
3.47397e+06
3.47553e+06
3.47693e+06
3.47811e+06
3.47916e+06
3.48008e+06
3.4809e+06
3.48164e+06
3.48231e+06
3.48291e+06
3.48346e+06
3.48396e+06
3.48441e+06
3.48484e+06
3.48522e+06
3.48558e+06
3.48592e+06
3.48623e+06
3.48653e+06
3.4868e+06
3.48706e+06
3.4873e+06
3.48753e+06
3.48774e+06
3.48794e+06
3.52543e+06
3.51412e+06
3.52506e+06
3.51544e+06
3.51984e+06
3.51416e+06
3.52019e+06
3.51138e+06
3.48299e+06
3.45161e+06
3.46241e+06
3.46213e+06
3.46788e+06
3.46954e+06
3.47249e+06
3.47405e+06
3.47575e+06
3.47697e+06
3.47811e+06
3.47907e+06
3.47993e+06
3.4807e+06
3.48139e+06
3.48202e+06
3.48259e+06
3.48312e+06
3.4836e+06
3.48405e+06
3.48446e+06
3.48484e+06
3.4852e+06
3.48554e+06
3.48585e+06
3.48615e+06
3.48643e+06
3.4867e+06
3.48695e+06
3.48718e+06
3.48741e+06
3.48762e+06
3.48781e+06
3.54036e+06
3.52656e+06
3.5401e+06
3.52854e+06
3.53501e+06
3.52907e+06
3.53659e+06
3.52735e+06
3.50008e+06
3.46085e+06
3.46942e+06
3.46719e+06
3.47205e+06