/*--------------------------------*- C++ -*----------------------------------*\
| =========                 |                                                 |
| \\      /  F ield         | OpenFOAM: The Open Source CFD Toolbox           |
|  \\    /   O peration     | Version:  v2012                                 |
|   \\  /    A nd           | Website:  www.openfoam.com                      |
|    \\/     M anipulation  |                                                 |
\*---------------------------------------------------------------------------*/
FoamFile
{
    version     2.0;
    format      ascii;
    class       volScalarField;
    location    "0.2";
    object      alpha.water;
}
// * * * * * * * * * * * * * * * * * * * * * * * * * * * * * * * * * * * * * //

dimensions      [0 0 0 0 0 0 0];


internalField   nonuniform List<scalar> 
20000
(
-6.10731e-283
-1.94773e-274
-1.36291e-266
-2.64657e-258
-2.13023e-250
-3.95278e-242
-9.00393e-235
-2.20056e-225
-9.15397e-218
-3.68228e-214
-9.35509e-212
-8.75165e-210
-2.39488e-202
-8.43636e-201
9.86625e-195
1.59048e-190
1.41628e-186
5.19558e-183
1.12627e-179
1.05136e-176
3.88364e-174
4.22211e-166
-2.02195e-155
1.7467e-151
-1.93284e-141
-2.04061e-136
-4.68551e-134
-4.21176e-132
-1.78686e-130
-4.08347e-129
-5.66034e-128
-5.11987e-127
-3.1696e-126
-1.38773e-125
-4.39781e-125
-1.0257e-124
-1.78135e-124
-2.32144e-124
-2.27957e-124
-1.61732e-124
-9.18579e-125
-3.97635e-125
-1.21913e-125
-2.6784e-126
-4.17985e-127
-4.51243e-128
-3.2481e-129
-1.48657e-130
-4.08199e-132
-6.27712e-134
-5.00641e-136
-1.92643e-138
-3.42544e-141
-2.85854e-144
-1.19834e-147
-2.72026e-151
-3.52266e-155
-2.64258e-159
-1.08193e-163
-1.73706e-168
-3.13793e-278
-3.07637e-270
-7.59622e-263
-7.46511e-255
-3.62817e-247
-5.39805e-239
-8.78916e-232
-1.0847e-222
-3.50376e-215
-1.15122e-211
-2.44799e-209
-1.42255e-207
-2.76324e-200
-8.2221e-199
7.00263e-193
9.40716e-189
7.08567e-185
2.22433e-181
4.14185e-178
3.34821e-175
1.08137e-172
3.84067e-164
-1.68087e-153
6.8097e-150
-6.96502e-140
-7.28572e-135
-1.56871e-132
-1.32929e-130
-5.32171e-129
-1.14745e-127
-1.50233e-126
-1.28571e-125
-7.54653e-125
-3.13968e-124
-9.47717e-124
-2.11043e-123
-3.50806e-123
-4.38642e-123
-4.14305e-123
-2.83602e-123
-1.55682e-123
-6.52127e-124
-1.94272e-124
-4.1618e-125
-6.35443e-126
-6.73599e-127
-4.78029e-128
-2.16701e-129
-5.92586e-131
-9.13226e-133
-7.35095e-135
-2.87445e-137
-5.21546e-140
-4.43254e-143
-1.87834e-146
-4.27257e-150
-5.50414e-154
-4.0883e-158
-1.65447e-162
-2.64611e-167
-3.70919e-274
-2.53351e-266
-3.74042e-259
-1.84697e-251
-5.42199e-244
-6.75623e-236
-7.86628e-229
-6.10656e-220
-1.32158e-212
-3.5476e-209
-6.31783e-207
-2.38827e-205
-3.11842e-198
-7.83952e-197
4.83811e-191
5.41152e-187
3.44426e-183
9.24311e-180
1.47691e-176
1.03282e-173
2.91341e-171
3.46105e-162
-1.3844e-151
2.61318e-148
-2.47455e-138
-2.56866e-133
-5.18781e-131
-4.14606e-129
-1.56701e-127
-3.18903e-126
-3.94501e-125
-3.19534e-124
-1.77868e-123
-7.03373e-123
-2.02277e-122
-4.3018e-122
-6.8456e-122
-8.21463e-122
-7.46467e-122
-4.93135e-122
-2.61705e-122
-1.06104e-122
-3.07192e-123
-6.41829e-124
-9.59003e-125
-9.98435e-126
-6.98731e-127
-3.13823e-128
-8.54887e-130
-1.32077e-131
-1.07344e-133
-4.2679e-136
-7.90778e-139
-6.84936e-142
-2.9329e-145
-6.66607e-149
-8.48535e-153
-6.15936e-157
-2.40714e-161
-3.69822e-166
-5.50422e-270
-2.62047e-262
-1.59064e-255
-3.86442e-248
-6.85483e-241
-7.6185e-233
-6.34402e-226
-3.95039e-217
-4.91295e-210
-1.07761e-206
-1.60815e-204
-4.17039e-203
-3.44059e-196
-7.3091e-195
3.25122e-189
3.02499e-185
1.62507e-181
3.72419e-178
5.10056e-175
3.08208e-172
7.58468e-170
3.08933e-160
-1.1295e-149
9.84781e-147
-8.66548e-137
-8.94035e-132
-1.69426e-129
-1.27766e-127
-4.56097e-126
-8.76419e-125
-1.02472e-123
-7.85766e-123
-4.14928e-122
-1.56e-121
-4.27526e-121
-8.68523e-121
-1.32346e-120
-1.52447e-120
-1.33307e-120
-8.50159e-121
-4.36287e-121
-1.71245e-121
-4.8194e-122
-9.82276e-123
-1.4366e-123
-1.4693e-124
-1.01425e-125
-4.51447e-127
-1.22546e-128
-1.89872e-130
-1.5588e-132
-6.30555e-135
-1.19414e-137
-1.05528e-140
-4.56827e-144
-1.03605e-147
-1.29734e-151
-9.12226e-156
-3.38781e-160
-4.79242e-165
-2.38417e-265
-2.71011e-258
-5.67486e-252
-6.44017e-245
-6.90227e-238
-7.55083e-230
-4.49688e-223
-2.78841e-214
-1.79992e-207
-3.2264e-204
-4.03688e-202
-7.58289e-201
-3.70926e-194
-6.66007e-193
2.12325e-187
1.64161e-183
7.43467e-180
1.45329e-176
1.70397e-173
8.88597e-171
1.9053e-168
2.73096e-158
-9.12758e-148
3.63003e-145
-2.99009e-135
-3.0712e-130
-5.46286e-128
-3.88909e-126
-1.31192e-124
-2.3812e-123
-2.63231e-122
-1.91153e-121
-9.57819e-121
-3.42465e-120
-8.9463e-120
-1.73654e-119
-2.53448e-119
-2.80306e-119
-2.35926e-119
-1.45291e-119
-7.21194e-120
-2.74116e-120
-7.50063e-121
-1.49165e-121
-2.13584e-122
-2.14646e-123
-1.46189e-124
-6.45029e-126
-1.74531e-127
-2.71294e-129
-2.25085e-131
-9.26922e-134
-1.79591e-136
-1.62135e-139
-7.10254e-143
-1.60618e-146
-1.97163e-150
-1.33332e-154
-4.64969e-159
-5.88882e-164
-1.30901e-261
-1.53954e-254
-1.56874e-248
-7.64255e-242
-4.94749e-235
-6.34145e-227
-2.70024e-220
-2.00499e-211
-6.49881e-205
-9.52137e-202
-9.9933e-200
-1.42853e-198
-3.90545e-192
-5.92785e-191
1.3463e-185
8.64011e-182
3.29446e-178
5.48599e-175
5.49932e-172
2.47161e-169
4.61099e-167
2.39051e-156
-7.30461e-146
1.31789e-143
-1.01633e-133
-1.041e-128
-1.73857e-126
-1.16904e-124
-3.72833e-123
-6.39455e-122
-6.68579e-121
-4.59927e-120
-2.18746e-119
-7.43999e-119
-1.85312e-118
-3.4378e-118
-4.8069e-118
-5.10563e-118
-4.13719e-118
-2.461e-118
-1.18189e-118
-4.35121e-119
-1.15788e-119
-2.24728e-120
-3.15111e-121
-3.11244e-122
-2.09199e-123
-9.15274e-125
-2.46935e-126
-3.85228e-128
-3.23149e-130
-1.35566e-132
-2.69001e-135
-2.4849e-138
-1.10321e-141
-2.48812e-145
-2.98684e-149
-1.93114e-153
-6.26168e-158
-7.10862e-163
-9.1066e-258
-2.80544e-251
-1.39018e-245
-4.87069e-239
-1.90332e-232
-4.24904e-224
-1.29277e-217
-1.39168e-208
-2.31235e-202
-2.76951e-199
-2.43938e-197
-2.76302e-196
-4.01369e-190
-5.1508e-189
8.28044e-184
4.40571e-180
1.41231e-176
2.00067e-173
1.71216e-170
6.6222e-168
1.07318e-165
2.07163e-154
-5.78825e-144
4.54331e-142
-3.40179e-132
-3.48069e-127
-5.45979e-125
-3.46932e-123
-1.04658e-121
-1.69687e-120
-1.6786e-119
-1.09425e-118
-4.94135e-118
-1.5992e-117
-3.7989e-117
-6.73726e-117
-9.02735e-117
-9.21072e-117
-7.18737e-117
-4.13085e-117
-1.9199e-117
-6.84824e-118
-1.77265e-118
-3.3585e-119
-4.61272e-120
-4.47906e-121
-2.97186e-122
-1.28965e-123
-3.47044e-125
-5.43562e-127
-4.61235e-129
-1.9725e-131
-4.01295e-134
-3.79974e-137
-1.7133e-140
-3.85848e-144
-4.52542e-148
-2.78641e-152
-8.34e-157
-8.4135e-162
-5.69045e-262
-1.30855e-254
-4.07109e-248
-4.49827e-242
-6.01825e-237
-2.02861e-221
-4.40757e-215
-8.98482e-206
-8.10726e-200
-7.93978e-197
-5.87091e-195
-5.43081e-194
-4.02383e-188
-4.36658e-187
4.93491e-182
2.17399e-178
5.84981e-175
7.03887e-172
5.13451e-169
1.70623e-166
2.39729e-164
1.77703e-152
-4.54081e-142
1.39159e-140
-1.12086e-130
-1.14769e-125
-1.6914e-123
-1.01619e-121
-2.90115e-120
-4.44841e-119
-4.16503e-118
-2.57372e-117
-1.10384e-116
-3.40028e-116
-7.70572e-116
-1.30679e-115
-1.67838e-115
-1.64545e-115
-1.23678e-115
-6.86981e-116
-3.09081e-116
-1.06849e-116
-2.691e-117
-4.97814e-118
-6.69871e-119
-6.39623e-120
-4.19049e-121
-1.80422e-122
-4.84422e-124
-7.62054e-126
-6.54417e-128
-2.85492e-130
-5.96183e-133
-5.79748e-136
-2.66165e-139
-5.99799e-143
-6.87431e-147
-4.01997e-151
-1.10398e-155
-9.80089e-161
-2.93112e-260
-2.81072e-253
-1.74658e-246
-2.85233e-240
-3.32367e-235
-5.20283e-219
-8.07011e-213
-5.24182e-203
-2.80049e-197
-2.2433e-194
-1.39297e-192
-1.07489e-191
-3.93257e-186
-3.60925e-185
2.84662e-180
1.03684e-176
2.33788e-173
2.38548e-170
1.48062e-167
4.21979e-165
5.12707e-163
1.5085e-150
-3.52599e-140
2.90817e-139
-3.63424e-129
-3.73071e-124
-5.16745e-122
-2.93692e-120
-7.93937e-119
-1.15176e-117
-1.02107e-116
-5.98305e-116
-2.43792e-115
-7.15007e-115
-1.54624e-114
-2.50818e-114
-3.08865e-114
-2.91032e-114
-2.10761e-114
-1.13174e-114
-4.93043e-115
-1.65238e-115
-4.05008e-116
-7.31738e-117
-9.64943e-118
-9.06257e-119
-5.86424e-120
-2.50579e-121
-6.71502e-123
-1.06139e-124
-9.22887e-127
-4.10989e-129
-8.81971e-132
-8.82587e-135
-4.13777e-138
-9.35726e-142
-1.04939e-145
-5.81922e-150
-1.45863e-154
-1.12702e-159
-2.56379e-262
-9.90352e-255
-2.55374e-248
-1.95953e-242
-1.1339e-236
-2.77446e-228
-2.6899e-222
-2.68889e-200
-9.52837e-195
-6.24596e-192
-3.25762e-190
-2.1271e-189
-3.74413e-184
-2.90674e-183
1.58736e-178
4.77298e-175
9.00156e-172
7.77447e-169
4.09807e-166
9.99735e-164
1.04625e-161
1.26706e-148
-2.70963e-138
-5.42724e-138
-1.15913e-127
-1.19517e-122
-1.55642e-120
-8.37277e-119
-2.14436e-117
-2.94447e-116
-2.47253e-115
-1.37432e-114
-5.32206e-114
-1.48658e-113
-3.06871e-113
-4.76267e-113
-5.62481e-113
-5.09538e-113
-3.55621e-113
-1.84656e-113
-7.79168e-114
-2.53233e-114
-6.0423e-115
-1.06646e-115
-1.37855e-116
-1.27381e-117
-8.14346e-119
-3.45449e-120
-9.24272e-122
-1.46845e-123
-1.29345e-125
-5.88393e-128
-1.29904e-130
-1.34049e-133
-6.43815e-137
-1.46643e-140
-1.61336e-144
-8.4823e-149
-1.93233e-153
-1.28614e-158
-4.33316e-263
-5.78895e-257
-1.21931e-250
-1.84973e-244
-3.86245e-238
-4.86551e-226
-1.7558e-219
-1.18116e-197
-3.19287e-192
-1.71358e-189
-7.50785e-188
-4.18726e-187
-3.46996e-182
-2.27933e-181
8.54544e-177
2.11767e-173
3.33363e-170
2.43219e-167
1.08651e-164
2.2639e-162
2.02589e-160
1.05223e-146
-2.06032e-136
-1.33218e-135
-3.63524e-126
-3.77222e-121
-4.62015e-119
-2.35381e-117
-5.71449e-116
-7.43041e-115
-5.91242e-114
-3.11851e-113
-1.1481e-112
-3.05526e-112
-6.0221e-112
-8.94512e-112
-1.01349e-111
-8.82892e-112
-5.94019e-112
-2.98336e-112
-1.21962e-112
-3.84525e-113
-8.93416e-114
-1.54084e-114
-1.95294e-115
-1.77592e-116
-1.122e-117
-4.72656e-119
-1.26305e-120
-2.01783e-122
-1.80133e-124
-8.37601e-127
-1.90463e-129
-2.03084e-132
-1.00262e-135
-2.3101e-139
-2.50284e-143
-1.24907e-147
-2.57692e-152
-1.45996e-157
-1.07763e-261
-2.37346e-255
-7.27895e-249
-1.22951e-242
-4.44441e-235
-1.35415e-224
-1.13246e-216
-4.36569e-195
-1.05335e-189
-4.63094e-187
-1.70492e-185
-8.17173e-185
-3.12787e-180
-1.73952e-179
4.43489e-175
9.04114e-172
1.18534e-168
7.28936e-166
2.75322e-163
4.88811e-161
3.68202e-159
8.60406e-145
-1.54976e-134
-1.26955e-133
-1.12057e-124
-1.17256e-119
-1.35118e-117
-6.52312e-116
-1.50208e-114
-1.85035e-113
-1.39573e-112
-6.98849e-112
-2.44687e-111
-6.20554e-111
-1.16829e-110
-1.66138e-110
-1.80637e-110
-1.51371e-110
-9.82073e-111
-4.77189e-111
-1.89053e-111
-5.78414e-112
-1.30901e-112
-2.20662e-113
-2.74301e-114
-2.45548e-115
-1.53357e-116
-6.41751e-118
-1.71338e-119
-2.75351e-121
-2.4924e-123
-1.1854e-125
-2.77919e-128
-3.06821e-131
-1.56251e-134
-3.65951e-138
-3.92389e-142
-1.86391e-146
-3.47285e-151
-1.64977e-156
-8.87213e-263
-9.92997e-253
-4.07373e-246
-1.43026e-239
-6.75314e-232
-9.42361e-222
-7.2057e-214
-1.40472e-192
-3.42225e-187
-1.23225e-184
-3.81428e-183
-1.57752e-182
-2.73988e-178
-1.29303e-177
2.21526e-173
3.70786e-170
4.03869e-167
2.08828e-164
6.65178e-162
1.00358e-159
6.12425e-158
7.08725e-143
-1.15293e-132
-9.96354e-132
-3.39355e-123
-3.5883e-118
-3.89176e-116
-1.78145e-114
-3.89317e-113
-4.54566e-112
-3.25182e-111
-1.54623e-110
-5.15056e-110
-1.2453e-109
-2.24008e-109
-3.05068e-109
-3.18401e-109
-2.56739e-109
-1.60668e-109
-7.55482e-110
-2.90142e-110
-8.61743e-111
-1.90014e-111
-3.13166e-112
-3.81913e-113
-3.36647e-114
-2.07906e-115
-8.64533e-117
-2.3069e-118
-3.73078e-120
-3.42572e-122
-1.66752e-124
-4.03503e-127
-4.62114e-130
-2.43602e-133
-5.83004e-137
-6.22442e-141
-2.82666e-145
-4.74798e-150
-1.85435e-155
-1.52882e-260
-5.09777e-250
-2.15258e-243
-3.99076e-237
-1.21818e-228
-8.83248e-219
-4.51861e-211
-4.48142e-190
-1.0946e-184
-3.22732e-182
-8.4049e-181
-3.00887e-180
-2.33028e-176
-9.42516e-176
1.06318e-171
1.45789e-168
1.31574e-165
5.70481e-163
1.52805e-160
1.95331e-158
8.67663e-157
5.78213e-141
-8.48085e-131
-7.21967e-130
-1.00921e-121
-1.08065e-116
-1.10354e-114
-4.79264e-113
-9.94643e-112
-1.1013e-110
-7.47492e-110
-3.37674e-109
-1.07051e-108
-2.46841e-108
-4.24396e-108
-5.53688e-108
-5.54912e-108
-4.30685e-108
-2.60057e-108
-1.18363e-108
-4.40775e-109
-1.27132e-109
-2.73212e-110
-4.40372e-111
-5.27018e-112
-4.57577e-113
-2.79522e-114
-1.15537e-115
-3.08233e-117
-5.01828e-119
-4.6765e-121
-2.33113e-123
-5.82744e-126
-6.93595e-129
-3.79762e-132
-9.33849e-136
-9.99786e-140
-4.3678e-144
-6.61122e-149
-2.06589e-154
-1.5203e-256
-1.37475e-247
-1.77114e-240
-1.21208e-233
-2.35031e-225
-8.19158e-216
-2.79359e-208
-1.37796e-187
-3.44539e-182
-8.31778e-180
-1.82351e-178
-5.66807e-178
-1.92298e-174
-6.96618e-174
4.89276e-170
5.48418e-167
4.08874e-164
1.48207e-161
3.32748e-159
3.59177e-157
7.43187e-156
4.66769e-139
-6.16686e-129
-5.01687e-128
-2.94579e-120
-3.20146e-115
-3.0794e-113
-1.26969e-111
-2.504e-110
-2.63052e-109
-1.69476e-108
-7.27647e-108
-2.19634e-107
-4.8316e-107
-7.94259e-107
-9.93039e-107
-9.55983e-107
-7.14405e-107
-4.16354e-107
-1.83472e-107
-6.62682e-108
-1.85684e-108
-3.89046e-109
-6.13451e-110
-7.20662e-111
-6.16496e-112
-3.72631e-113
-1.5315e-114
-4.08637e-116
-6.70008e-118
-6.33938e-120
-3.23786e-122
-8.3693e-125
-1.03699e-127
-5.91652e-131
-1.5032e-134
-1.62652e-138
-6.89201e-143
-9.41443e-148
-2.26329e-153
-8.43962e-254
-1.11492e-243
-1.492e-236
-3.7711e-230
-4.46367e-222
-7.52482e-213
-1.70158e-205
-4.23109e-185
-1.0668e-179
-2.10887e-177
-3.89404e-176
-1.05535e-175
-1.54059e-172
-5.95694e-172
2.15331e-168
1.96912e-165
1.20878e-162
3.65059e-160
6.84519e-158
6.21563e-156
5.33629e-159
3.72735e-137
-4.43155e-127
-3.39634e-126
-8.43513e-119
-9.32597e-114
-8.45292e-112
-3.31111e-110
-6.20939e-109
-6.19227e-108
-3.78868e-107
-1.54672e-106
-4.4468e-106
-9.33621e-106
-1.46797e-105
-1.75949e-105
-1.62759e-105
-1.1715e-105
-6.59196e-106
-2.81311e-106
-9.85777e-107
-2.68438e-107
-5.48525e-108
-8.46387e-109
-9.76336e-110
-8.23178e-111
-4.92467e-112
-2.01323e-113
-5.37435e-115
-8.87765e-117
-8.53191e-119
-4.46734e-121
-1.19495e-123
-1.54368e-126
-9.20568e-130
-2.42972e-133
-2.67944e-137
-1.11236e-141
-1.3771e-146
-2.45779e-152
-2.1874e-248
-1.65239e-240
-1.19711e-233
-1.12242e-226
-7.95526e-219
-6.85715e-210
-1.02106e-202
-1.27324e-182
-3.24824e-177
-5.25824e-175
-8.18209e-174
-1.9471e-173
-1.20596e-170
-7.87497e-170
9.00491e-167
6.73095e-164
3.38967e-161
8.49678e-159
1.32517e-156
1.00784e-154
-7.40238e-157
2.94336e-135
-3.14616e-125
-2.25611e-124
-2.36816e-117
-2.67011e-112
-2.2815e-110
-8.4963e-109
-1.51617e-107
-1.43608e-106
-8.34834e-106
-3.24209e-105
-8.88179e-105
-1.78044e-104
-2.67865e-104
-3.07897e-104
-2.73775e-104
-1.89867e-104
-1.03186e-104
-4.26547e-105
-1.45056e-105
-3.84029e-106
-7.65582e-107
-1.15637e-107
-1.31022e-108
-1.08911e-109
-6.45106e-111
-2.62405e-112
-7.01081e-114
-1.16716e-115
-1.13981e-117
-6.12115e-120
-1.69557e-122
-2.2869e-125
-1.42942e-128
-3.93974e-132
-4.46615e-136
-1.83813e-140
-2.07904e-145
-2.63488e-151
-8.84745e-248
-9.6999e-237
-7.07407e-230
-3.01652e-223
-1.28902e-215
-6.20733e-207
-6.03319e-200
-3.75214e-180
-9.72148e-175
-1.28884e-172
-1.69099e-171
-3.58071e-171
-9.53069e-169
-1.75679e-167
3.4639e-165
2.18392e-162
8.98629e-160
1.8616e-157
2.40357e-155
1.52347e-153
-4.99688e-155
2.29767e-133
-2.20597e-123
-1.4754e-122
-6.51492e-116
-7.5102e-111
-6.05222e-109
-2.14429e-107
-3.64386e-106
-3.27996e-105
-1.81255e-104
-6.69909e-104
-1.74951e-103
-3.34984e-103
-4.82419e-103
-5.31986e-103
-4.54861e-103
-3.0405e-103
-1.5965e-103
-6.39448e-104
-2.11092e-104
-5.43542e-105
-1.05752e-105
-1.56413e-106
-1.7413e-107
-1.42751e-108
-8.37448e-110
-3.39055e-111
-9.06947e-113
-1.52226e-114
-1.51115e-116
-8.32727e-119
-2.39028e-121
-3.36999e-124
-2.21326e-127
-6.401e-131
-7.52289e-135
-3.11009e-139
-3.25566e-144
-3.09937e-150
-5.40295e-243
-5.22729e-235
-1.08046e-227
-7.13665e-220
-1.84329e-212
-5.58704e-204
-3.50938e-197
-1.08217e-177
-2.85869e-172
-3.10432e-170
-3.43604e-169
-6.64333e-169
-8.65584e-167
-5.02234e-165
9.19647e-164
6.69866e-161
2.24387e-158
3.82278e-156
4.064e-154
2.13437e-152
-2.93654e-153
1.77244e-131
-1.52708e-121
-9.51245e-121
-1.75515e-114
-2.07419e-109
-1.57719e-107
-5.32044e-106
-8.61617e-105
-7.37476e-104
-3.87608e-103
-1.36404e-102
-3.39741e-102
-6.21611e-102
-8.57247e-102
-9.07275e-102
-7.46228e-102
-4.80962e-102
-2.44088e-102
-9.47529e-103
-3.03726e-103
-7.60928e-104
-1.4454e-104
-2.09409e-105
-2.29138e-106
-1.8532e-107
-1.07713e-108
-4.34212e-110
-1.16327e-111
-1.96918e-113
-1.98784e-115
-1.12446e-117
-3.34656e-120
-4.93722e-123
-3.4145e-126
-1.04075e-129
-1.27844e-133
-5.38328e-138
-5.3133e-143
-4.02291e-149
-2.85466e-239
-1.41126e-231
-5.26795e-224
-1.43143e-216
-2.23711e-209
-4.99488e-201
-2.00874e-194
-3.042e-175
-8.25529e-170
-7.34412e-168
-6.8614e-167
-1.27147e-166
-1.20533e-164
-1.52394e-162
-7.69506e-162
1.92085e-159
5.255e-157
7.32112e-155
6.3683e-153
2.75238e-151
-1.63011e-151
1.35061e-129
-1.04329e-119
-6.0497e-119
-4.62752e-113
-5.6221e-108
-4.03568e-106
-1.29724e-104
-2.00363e-103
-1.63169e-102
-8.16096e-102
-2.73589e-101
-6.50185e-101
-1.13726e-100
-1.50251e-100
-1.5268e-100
-1.20848e-100
-7.51306e-101
-3.68659e-101
-1.38744e-101
-4.3197e-102
-1.05338e-102
-1.95425e-103
-2.77437e-104
-2.98481e-105
-2.38238e-106
-1.37238e-107
-5.51033e-109
-1.47902e-110
-2.52596e-112
-2.59388e-114
-1.50673e-116
-4.6517e-119
-7.18762e-122
-5.24423e-125
-1.69114e-128
-2.18759e-132
-9.51431e-137
-9.07135e-142
-6.2582e-148
-1.93882e-234
-1.23321e-227
-2.32805e-220
-2.29089e-213
-2.16701e-206
-4.41566e-198
-1.13105e-191
-8.36465e-173
-2.34003e-167
-1.70575e-165
-1.34589e-164
-2.59871e-164
-2.8292e-162
-4.64819e-160
-3.27949e-159
4.76233e-158
1.14865e-155
1.30016e-153
9.1853e-152
3.24045e-150
-8.66284e-150
1.01622e-127
-7.03166e-118
-3.79542e-117
-1.19319e-111
-1.49475e-106
-1.01342e-104
-3.10664e-103
-4.58013e-102
-3.55102e-101
-1.69104e-100
-5.40323e-100
-1.22579e-99
-2.05063e-99
-2.59657e-99
-2.53441e-99
-1.93124e-99
-1.15858e-99
-5.49888e-100
-2.00703e-100
-6.07116e-101
-1.4416e-101
-2.61309e-102
-3.63641e-103
-3.84794e-104
-3.03211e-105
-1.73172e-106
-6.92792e-108
-1.86367e-109
-3.21229e-111
-3.35664e-113
-2.0029e-115
-6.41701e-118
-1.03924e-120
-8.01205e-124
-2.74259e-127
-3.761e-131
-1.71221e-135
-1.62281e-140
-1.08944e-146
-7.44701e-231
-1.85669e-224
-7.77598e-217
-2.61205e-210
-1.49532e-203
-3.82389e-195
-6.26137e-189
-2.25453e-170
-6.50703e-165
-3.88745e-163
-2.59189e-162
-5.89727e-162
-8.52762e-160
-1.40806e-157
-9.24579e-157
8.10672e-158
2.32879e-154
2.12681e-152
1.20958e-150
3.44872e-149
-4.41885e-148
7.54662e-126
-4.67342e-116
-2.3485e-115
-3.00669e-110
-3.89594e-105
-2.4961e-103
-7.30367e-102
-1.02869e-100
-7.59789e-100
-3.44698e-99
-1.05029e-98
-2.27567e-98
-3.64276e-98
-4.42275e-98
-4.14831e-98
-3.04447e-98
-1.76315e-98
-8.09753e-99
-2.86737e-99
-8.42982e-100
-1.94984e-100
-3.45457e-101
-4.71422e-102
-4.90825e-103
-3.81963e-104
-2.16361e-105
-8.62738e-107
-2.32682e-108
-4.04898e-110
-4.3066e-112
-2.64047e-114
-8.78216e-117
-1.49158e-119
-1.21665e-122
-4.43308e-126
-6.48208e-130
-3.12673e-134
-3.03745e-139
-2.04331e-145
-2.85324e-227
-4.52765e-221
-1.97494e-214
-1.59989e-207
-5.53909e-201
-3.19961e-192
-3.40642e-186
-6.04372e-168
-1.77413e-162
-8.68895e-161
-4.89784e-160
-1.51747e-159
-2.72749e-157
-4.22483e-155
-2.48181e-154
-2.72634e-154
4.31374e-153
3.1794e-151
1.4401e-149
3.27756e-148
-2.16172e-146
5.52876e-124
-3.06154e-114
-1.4328e-113
-7.39867e-109
-9.9489e-104
-6.02688e-102
-1.68476e-100
-2.26894e-99
-1.59752e-98
-6.90864e-98
-2.00848e-97
-4.15839e-97
-6.37245e-97
-7.42197e-97
-6.69254e-97
-4.73263e-97
-2.64698e-97
-1.17681e-97
-4.04457e-98
-1.15603e-98
-2.60572e-99
-4.51418e-100
-6.04308e-101
-6.19296e-102
-4.76136e-103
-2.6759e-104
-1.0639e-105
-2.87774e-107
-5.05721e-109
-5.47676e-111
-3.45123e-113
-1.19194e-115
-2.12403e-118
-1.83487e-121
-7.13267e-125
-1.11744e-128
-5.77171e-133
-5.91912e-138
-4.12144e-144
-1.98794e-227
-1.85889e-220
-6.81738e-214
-8.30779e-208
-1.00136e-201
-2.54496e-189
-1.82005e-183
-1.62774e-165
-4.73943e-160
-1.90353e-158
-9.07635e-158
-4.36757e-157
-8.7563e-155
-1.25448e-152
-6.56356e-152
-7.2051e-152
6.39739e-152
4.3023e-150
1.53154e-148
2.73852e-147
-1.01206e-144
3.99402e-122
-1.97591e-112
-8.61533e-112
-1.77649e-107
-2.48762e-102
-1.42566e-100
-3.81098e-99
-4.91199e-98
-3.29906e-97
-1.36082e-96
-3.77676e-96
-7.47589e-96
-1.09729e-95
-1.22657e-95
-1.06379e-95
-7.25161e-96
-3.91871e-96
-1.68725e-96
-5.63092e-97
-1.56527e-97
-3.43952e-98
-5.82884e-99
-7.65768e-100
-7.72729e-101
-5.87167e-102
-3.27524e-103
-1.29885e-104
-3.52473e-106
-6.25743e-108
-6.90159e-110
-4.47092e-112
-1.60373e-114
-2.99944e-117
-2.74627e-120
-1.14094e-123
-1.92262e-127
-1.07269e-131
-1.1917e-136
-8.81368e-143
-3.58538e-227
-1.43077e-220
-9.22679e-212
-3.19415e-205
-8.70461e-199
-1.90571e-186
-9.54866e-181
-4.51401e-163
-1.23982e-157
-4.08502e-156
-1.64855e-155
-1.35514e-154
-2.78694e-152
-3.68421e-150
-1.71646e-149
-1.71939e-149
-1.20254e-150
5.20524e-149
1.43299e-147
1.97109e-146
-4.52234e-143
2.84366e-120
-1.25573e-110
-5.10334e-110
-4.15881e-106
-6.08628e-101
-3.30185e-99
-8.44833e-98
-1.04313e-96
-6.68781e-96
-2.63285e-95
-6.97979e-95
-1.32162e-94
-1.85894e-94
-1.99531e-94
-1.66524e-94
-1.09477e-94
-5.71858e-95
-2.38559e-95
-7.73492e-96
-2.09193e-96
-4.48306e-97
-7.43481e-98
-9.58952e-99
-9.53212e-100
-7.16132e-101
-3.96625e-102
-1.56943e-103
-4.27434e-105
-7.66801e-107
-8.61557e-109
-5.73867e-111
-2.13826e-113
-4.19823e-116
-4.07625e-119
-1.81234e-122
-3.29493e-126
-1.99954e-130
-2.45606e-135
-1.97299e-141
-4.15801e-224
-1.51341e-216
-8.03701e-210
-1.30856e-203
-7.95295e-196
-1.35786e-183
-4.91537e-178
-1.27073e-160
-3.17351e-155
-8.58189e-154
-2.93304e-153
-4.36947e-152
-8.7688e-150
-1.06962e-147
-4.43864e-147
-4.02669e-147
-4.98774e-148
5.47021e-148
1.15659e-146
1.18961e-145
-1.92276e-141
1.99439e-118
-7.85423e-109
-2.97666e-108
-9.48474e-105
-1.45604e-99
-7.48202e-98
-1.83427e-96
-2.17173e-95
-1.33006e-94
-5.00065e-94
-1.26706e-93
-2.2963e-93
-3.09685e-93
-3.19346e-93
-2.56594e-93
-1.62767e-93
-8.22234e-94
-3.32486e-94
-1.04796e-94
-2.75863e-95
-5.76784e-96
-9.3649e-97
-1.18638e-97
-1.16213e-98
-8.63575e-100
-4.75072e-101
-1.87638e-102
-5.13049e-104
-9.30344e-106
-1.06511e-107
-7.29572e-110
-2.82405e-112
-5.82135e-115
-5.99598e-118
-2.85568e-121
-5.61402e-125
-3.72492e-129
-5.1339e-134
-4.55982e-140
-5.05582e-226
-5.80506e-216
-8.76977e-209
-6.47312e-201
-7.28172e-193
-9.61315e-181
-2.48302e-175
-3.50721e-158
-7.94285e-153
-1.7638e-151
-5.10902e-151
-1.42785e-149
-2.72478e-147
-3.06816e-145
-1.1345e-144
-9.3191e-145
-1.10905e-145
3.22783e-147
7.84605e-146
5.82371e-145
-7.75147e-140
1.37712e-116
-4.83224e-107
-1.70875e-106
-2.1059e-103
-3.40349e-98
-1.65763e-96
-3.89777e-95
-4.4297e-94
-2.59345e-93
-9.31831e-93
-2.25804e-92
-3.91906e-92
-5.07049e-92
-5.02597e-92
-3.89e-92
-2.38213e-92
-1.16431e-92
-4.56588e-93
-1.39982e-93
-3.58818e-94
-7.32259e-95
-1.16449e-95
-1.44957e-96
-1.39988e-97
-1.02932e-98
-5.62667e-100
-2.21909e-101
-6.0935e-103
-1.11724e-104
-1.3036e-106
-9.18368e-109
-3.69312e-111
-7.99286e-114
-8.7348e-117
-4.459e-120
-9.49397e-124
-6.91269e-128
-1.07932e-132
-1.07855e-138
-9.93236e-225
-5.79506e-216
-1.67222e-208
-2.09704e-201
-6.54926e-190
-7.01695e-178
-1.22994e-172
-8.79405e-156
-1.9423e-150
-3.54369e-149
-8.71063e-149
-4.66157e-147
-8.35605e-145
-8.69037e-143
-2.86474e-142
-2.13183e-142
-2.37284e-143
-3.51259e-145
4.32738e-145
2.25319e-144
-2.95155e-138
9.35695e-115
-2.92275e-105
-9.64903e-105
-4.55049e-102
-7.76706e-97
-3.58776e-95
-8.10045e-94
-8.84589e-93
-4.9547e-92
-1.70246e-91
-3.94798e-91
-6.56613e-91
-8.15469e-91
-7.77411e-91
-5.79908e-91
-3.43003e-91
-1.62292e-91
-6.17518e-92
-1.84274e-92
-4.60175e-93
-9.17e-94
-1.42894e-94
-1.7486e-95
-1.66552e-96
-1.21229e-97
-6.58751e-99
-2.59518e-100
-7.15912e-102
-1.32757e-103
-1.579e-105
-1.14419e-107
-4.78021e-110
-1.08615e-112
-1.2594e-115
-6.89325e-119
-1.59116e-122
-1.27442e-126
-2.26631e-131
-2.56903e-137
-1.14879e-221
-5.52711e-214
-2.76017e-206
-2.58841e-198
-5.76516e-187
-5.14975e-175
-5.97315e-170
-1.9473e-153
-4.63758e-148
-6.95378e-147
-1.4542e-146
-1.50907e-144
-2.52741e-142
-2.42911e-140
-7.14287e-140
-4.81875e-140
-5.01627e-141
-7.89983e-143
1.75929e-144
7.3386e-144
-1.05686e-136
6.2525e-113
-1.73696e-103
-5.35708e-103
-9.57556e-101
-1.72902e-95
-7.58003e-94
-1.64514e-92
-1.72818e-91
-9.26784e-91
-3.04757e-90
-6.76775e-90
-1.0793e-89
-1.28746e-89
-1.18115e-89
-8.49649e-90
-4.8567e-90
-2.22572e-90
-8.22138e-91
-2.38959e-91
-5.81654e-92
-1.1323e-92
-1.72972e-93
-2.08173e-94
-1.95653e-95
-1.41034e-96
-7.62124e-98
-3.00025e-99
-8.31751e-101
-1.56037e-102
-1.89218e-104
-1.41044e-106
-6.12145e-109
-1.46007e-111
-1.79607e-114
-1.05413e-117
-2.63933e-121
-2.32852e-125
-4.72662e-130
-6.12319e-136
-2.72143e-218
-7.82876e-210
-1.13707e-202
-3.02692e-195
-4.98078e-184
-3.70389e-172
-2.84194e-167
-4.11819e-151
-1.08026e-145
-1.33158e-144
-2.38133e-144
-4.82513e-142
-7.53447e-140
-6.69623e-138
-1.7577e-137
-1.07585e-137
-1.04918e-138
-1.58827e-140
-2.00674e-143
2.39976e-143
-3.54102e-135
4.10679e-111
-1.01369e-101
-2.9228e-101
-1.9686e-99
-3.7511e-94
-1.56187e-92
-3.26241e-91
-3.3005e-90
-1.69605e-89
-5.34139e-89
-1.13669e-88
-1.73937e-88
-1.99416e-88
-1.76169e-88
-1.22278e-88
-6.75868e-89
-3.00168e-89
-1.07696e-89
-3.05104e-90
-7.24285e-91
-1.37804e-91
-2.06467e-92
-2.445e-93
-2.26849e-94
-1.62012e-95
-8.70992e-97
-3.42765e-98
-9.55256e-100
-1.81343e-101
-2.24244e-103
-1.71954e-105
-7.75227e-108
-1.94063e-110
-2.53206e-113
-1.59332e-116
-4.32777e-120
-4.20794e-124
-9.75006e-129
-1.50468e-134
-2.64863e-215
-9.13674e-209
-1.39013e-201
-3.34094e-192
-4.25165e-181
-2.6096e-169
-1.32473e-164
-8.4201e-149
-2.45257e-143
-2.4861e-142
-3.84408e-142
-1.52041e-139
-2.21209e-137
-1.81934e-135
-4.2667e-135
-2.37165e-135
-2.17071e-136
-3.15014e-138
-5.25943e-141
7.90886e-143
-1.10392e-133
2.65003e-109
-5.80621e-100
-1.56634e-99
-3.99317e-98
-7.92334e-93
-3.13574e-91
-6.3115e-90
-6.1568e-89
-3.0343e-88
-9.15914e-88
-1.86922e-87
-2.74643e-87
-3.02833e-87
-2.57782e-87
-1.72754e-87
-9.23888e-88
-3.97879e-88
-1.38736e-88
-3.83376e-89
-8.88086e-90
-1.65227e-90
-2.42918e-91
-2.83189e-92
-2.59501e-93
-1.83702e-94
-9.82943e-96
-3.86835e-97
-1.08413e-98
-2.08317e-100
-2.62722e-102
-2.07252e-104
-9.70471e-107
-2.54911e-109
-3.52667e-112
-2.37861e-115
-7.00758e-119
-7.50838e-123
-1.98294e-127
-3.7206e-133
-4.75966e-213
-2.19593e-206
-1.23116e-198
-3.46525e-189
-3.61327e-178
-1.79954e-166
-6.04656e-162
-1.61951e-146
-5.42169e-141
-4.52161e-140
-6.1928e-140
-4.71485e-137
-6.39158e-135
-4.86887e-133
-1.02118e-132
-5.16023e-133
-4.44149e-134
-6.18104e-136
-1.03433e-138
5.44764e-141
-3.18188e-132
1.67914e-107
-3.26232e-98
-8.2412e-98
-8.19912e-97
-1.6278e-91
-6.12803e-90
-1.1901e-88
-1.12084e-87
-5.3025e-87
-1.53538e-86
-3.00727e-86
-4.24582e-86
-4.50581e-86
-3.69826e-86
-2.3945e-86
-1.23982e-86
-5.18069e-87
-1.75668e-87
-4.73834e-88
-1.07173e-88
-1.95086e-89
-2.81587e-90
-3.23325e-91
-2.92762e-92
-2.05519e-93
-1.09497e-94
-4.31102e-96
-1.21537e-97
-2.36441e-99
-3.04167e-101
-2.46848e-103
-1.20038e-105
-3.30746e-108
-4.85009e-111
-3.5047e-114
-1.11941e-117
-1.32096e-121
-3.96675e-126
-9.08245e-132
-6.33792e-210
-2.36806e-203
-9.82378e-196
-3.36245e-186
-3.08017e-175
-1.21372e-163
-2.70193e-159
-2.9405e-144
-1.1658e-138
-8.00343e-138
-1.02262e-137
-1.43732e-134
-1.81611e-132
-1.28267e-130
-2.40866e-130
-1.10782e-130
-8.98502e-132
-1.1997e-133
-1.99546e-136
2.22845e-140
-8.41974e-131
1.04423e-105
-1.79709e-96
-4.25505e-96
-1.80197e-95
-3.24907e-90
-1.16448e-88
-2.18507e-87
-1.98954e-86
-9.04342e-86
-2.51408e-85
-4.72977e-85
-6.42164e-85
-6.56385e-85
-5.19842e-85
-3.25409e-85
-1.63236e-85
-6.62247e-86
-2.18506e-86
-5.75728e-87
-1.27224e-87
-2.26715e-88
-3.21448e-89
-3.63725e-90
-3.25596e-91
-2.26769e-92
-1.20352e-93
-4.74225e-95
-1.34534e-96
-2.65047e-98
-3.47846e-100
-2.90414e-102
-1.46637e-104
-4.23687e-107
-6.58239e-110
-5.09323e-113
-1.76259e-116
-2.28858e-120
-7.79143e-125
-2.1763e-130
-4.09689e-207
-1.6322e-200
-7.9448e-193
-3.03526e-183
-2.64695e-172
-8.00061e-161
-1.18168e-156
-4.86854e-142
-2.4357e-136
-1.3773e-135
-1.81651e-135
-4.30331e-132
-5.0709e-130
-3.32435e-128
-5.59649e-128
-2.34586e-128
-1.79657e-129
-2.30309e-131
-3.78377e-134
1.85349e-143
-2.03053e-129
6.37044e-104
-9.70014e-95
-2.15481e-94
-4.62073e-94
-6.2933e-89
-2.14929e-87
-3.90242e-86
-3.44008e-85
-1.5039e-84
-4.01762e-84
-7.26609e-84
-9.49463e-84
-9.35475e-84
-7.15416e-84
-4.33285e-84
-2.1072e-84
-8.30567e-85
-2.66831e-85
-6.87307e-86
-1.4848e-86
-2.59193e-87
-3.61194e-88
-4.02971e-89
-3.56808e-90
-2.4667e-91
-1.30467e-92
-5.14701e-94
-1.46981e-95
-2.93317e-97
-3.92763e-99
-3.37338e-101
-1.76825e-103
-5.35575e-106
-8.81098e-109
-7.29578e-112
-2.73345e-115
-3.90059e-119
-1.50066e-123
-5.06951e-129
-1.14402e-204
-4.50132e-198
-7.51253e-190
-2.53312e-180
-2.29557e-169
-5.14981e-158
-5.05685e-154
-7.33556e-140
-4.93882e-134
-2.30185e-133
-3.68653e-133
-1.26407e-129
-1.39025e-127
-8.47097e-126
-1.28034e-125
-4.89801e-126
-3.54947e-127
-4.37228e-129
-7.03967e-132
-5.87856e-143
-4.43712e-128
3.81032e-102
-5.12705e-93
-1.06966e-92
-1.46722e-92
-1.18148e-87
-3.84853e-86
-6.77197e-85
-5.78835e-84
-2.43626e-83
-6.26015e-83
-1.08936e-82
-1.37117e-82
-1.30329e-82
-9.63221e-83
-5.6484e-83
-2.66513e-83
-1.02131e-83
-3.19693e-84
-8.05694e-85
-1.70263e-85
-2.91352e-86
-3.99283e-87
-4.3947e-88
-3.85102e-89
-2.64393e-90
-1.39426e-91
-5.50929e-93
-1.58419e-94
-3.20308e-96
-4.37665e-98
-3.86694e-100
-2.10383e-102
-6.67722e-105
-1.1626e-107
-1.02947e-110
-4.17204e-114
-6.53408e-118
-2.83135e-122
-1.15622e-127
-1.49397e-201
-8.08477e-195
-7.87027e-187
-1.93984e-177
-2.00253e-166
-3.23449e-155
-2.11734e-151
-9.18749e-138
-9.70723e-132
-3.73195e-131
-8.81558e-131
-3.63922e-127
-3.73968e-125
-2.1208e-123
-2.88262e-123
-1.00799e-123
-6.9266e-125
-8.20751e-127
-1.28337e-129
-6.10887e-140
-8.79877e-127
2.23296e-100
-2.65157e-91
-5.20117e-91
-5.57821e-91
-2.147e-86
-6.67715e-85
-1.14053e-83
-9.46773e-83
-3.84061e-82
-9.5017e-82
-1.59237e-81
-1.93239e-81
-1.77346e-81
-1.26772e-81
-7.20368e-82