/*--------------------------------*- C++ -*----------------------------------*\
| =========                 |                                                 |
| \\      /  F ield         | OpenFOAM: The Open Source CFD Toolbox           |
|  \\    /   O peration     | Version:  v2012                                 |
|   \\  /    A nd           | Website:  www.openfoam.com                      |
|    \\/     M anipulation  |                                                 |
\*---------------------------------------------------------------------------*/
FoamFile
{
    version     2.0;
    format      ascii;
    class       surfaceScalarField;
    location    "0.2";
    object      phi;
}
// * * * * * * * * * * * * * * * * * * * * * * * * * * * * * * * * * * * * * //

dimensions      [0 3 -1 0 0 0 0];
oriented        oriented;


internalField   nonuniform List<scalar> 
49380
(
7.12878e-17
-1.7534e-15
1.36451e-17
5.31552e-16
-3.61177e-14
4.20953e-18
2.69362e-15
-1.72374e-13
4.95396e-17
7.42228e-15
-4.96578e-13
3.32965e-17
1.4705e-14
-1.10895e-12
-1.55669e-16
2.92699e-14
-2.13129e-12
1.65502e-16
4.77852e-14
-3.70379e-12
-2.19808e-16
7.41847e-14
-5.99091e-12
-2.17869e-16
1.09727e-13
-9.18361e-12
-2.51338e-16
1.5726e-13
-1.35012e-11
-1.05205e-16
2.1819e-13
-1.91944e-11
-6.34486e-17
2.95103e-13
-2.65467e-11
-3.48615e-17
3.89979e-13
-3.58882e-11
-1.81674e-17
5.06113e-13
-4.75771e-11
-1.81061e-17
6.46126e-13
-6.20349e-11
-2.50573e-17
8.13487e-13
-7.97155e-11
-5.66167e-17
1.01174e-12
-1.0114e-10
-6.10849e-17
1.24446e-12
-1.26885e-10
-6.37414e-17
1.51556e-12
-1.57593e-10
2.61303e-17
1.82853e-12
-1.93969e-10
3.41163e-17
2.18625e-12
-2.36795e-10
4.8682e-17
2.59184e-12
-2.86954e-10
3.66739e-17
3.04835e-12
-3.45353e-10
4.32506e-17
3.55885e-12
-4.13071e-10
3.02476e-17
4.12612e-12
-4.91198e-10
1.75655e-17
4.7525e-12
-5.80985e-10
6.00731e-18
5.43967e-12
-6.83752e-10
-5.18456e-18
6.18844e-12
-8.00844e-10
-1.20562e-17
6.99868e-12
-9.33903e-10
-1.78851e-17
7.8689e-12
-1.08436e-09
-2.04888e-17
8.79622e-12
-1.25395e-09
-2.31254e-17
9.77623e-12
-1.44437e-09
-2.25055e-17
1.08026e-11
-1.65729e-09
-2.35276e-17
1.18669e-11
-1.89438e-09
-2.0935e-17
1.29586e-11
-2.1572e-09
-2.16031e-17
1.40648e-11
-2.44718e-09
-1.70867e-17
1.51705e-11
-2.76534e-09
-1.48734e-17
1.62583e-11
-3.11241e-09
-1.0835e-17
1.73086e-11
-3.4884e-09
-1.14969e-17
1.83e-11
-3.89165e-09
-1.22978e-17
1.92097e-11
-4.32246e-09
-1.05007e-17
2.00141e-11
-4.77495e-09
-1.02534e-17
2.06891e-11
-5.24663e-09
-1.08704e-17
2.12113e-11
-5.7284e-09
-1.47605e-17
2.15587e-11
-6.2103e-09
-1.58227e-17
2.17111e-11
-6.68403e-09
-1.00988e-17
2.16523e-11
-7.1282e-09
-1.67253e-17
2.13694e-11
-7.52789e-09
1.49566e-17
2.08549e-11
-7.85775e-09
6.21175e-18
2.01078e-11
-8.09258e-09
1.18255e-17
1.91346e-11
-8.20531e-09
1.4823e-17
1.79524e-11
-8.16091e-09
1.42484e-17
1.65879e-11
-7.92986e-09
1.78512e-17
1.50738e-11
-7.48301e-09
2.03215e-17
1.34302e-11
-6.79494e-09
2.3086e-17
1.16134e-11
-5.85402e-09
2.4488e-17
9.41909e-12
-4.67424e-09
2.60949e-17
6.45022e-12
-3.31115e-09
2.68682e-17
2.44421e-12
-1.88438e-09
3.16796e-17
-5.29202e-10
3.1846e-17
-6.07152e-18
-1.78141e-15
8.08565e-19
2.93648e-16
-3.64225e-14
-1.88201e-18
1.25598e-15
-1.73728e-13
-4.22866e-17
5.58248e-15
-4.99598e-13
1.62184e-16
1.30984e-14
-1.11537e-12
1.22774e-16
2.49439e-14
-2.14219e-12
1.12723e-16
4.46145e-14
-3.72144e-12
2.2681e-16
6.85141e-14
-6.01803e-12
-3.80323e-16
1.05081e-13
-9.22157e-12
-1.78823e-16
1.51774e-13
-1.35508e-11
-3.23913e-16
2.13926e-13
-1.92577e-11
-1.39164e-16
2.91863e-13
-2.66258e-11
-1.3527e-16
3.88813e-13
-3.5986e-11
-7.98699e-17
5.0655e-13
-4.76966e-11
-1.7345e-16
6.49065e-13
-6.21788e-11
-1.32541e-16
8.18142e-13
-7.98871e-11
-2.52572e-16
1.01882e-12
-1.01343e-10
-1.49528e-16
1.25267e-12
-1.27121e-10
-2.13139e-16
1.52419e-12
-1.57867e-10
-1.63485e-16
1.83706e-12
-1.94284e-10
-2.34096e-16
2.19459e-12
-2.37154e-10
-2.02117e-16
2.60005e-12
-2.87361e-10
-1.65137e-16
3.05687e-12
-3.45811e-10
-1.72728e-16
3.56815e-12
-4.13584e-10
-1.70898e-16
4.13661e-12
-4.91768e-10
-1.5599e-16
4.76445e-12
-5.81614e-10
-1.35517e-16
5.45321e-12
-6.84442e-10
-1.16555e-16
6.20367e-12
-8.01595e-10
-9.90154e-17
7.0157e-12
-9.34716e-10
-8.3495e-17
7.8878e-12
-1.08523e-09
-7.23368e-17
8.81713e-12
-1.25488e-09
-6.16349e-17
9.7993e-12
-1.44535e-09
-5.32063e-17
1.08279e-11
-1.65832e-09
-4.54556e-17
1.18946e-11
-1.89545e-09
-3.88851e-17
1.29888e-11
-2.15829e-09
-3.40093e-17
1.40975e-11
-2.44829e-09
-2.53078e-17
1.52055e-11
-2.76645e-09
-1.64776e-17
1.62955e-11
-3.1135e-09
-9.28109e-18
1.73474e-11
-3.48945e-09
-1.09039e-17
1.83399e-11
-3.89265e-09
-1.28142e-17
1.92498e-11
-4.32337e-09
-1.09303e-17
2.00533e-11
-4.77575e-09
-9.56607e-18
2.07262e-11
-5.24731e-09
-1.53336e-17
2.12448e-11
-5.72892e-09
-2.1991e-17
2.15869e-11
-6.21064e-09
-2.54337e-17
2.17324e-11
-6.68418e-09
-2.10419e-17
2.16648e-11
-7.12813e-09
-1.19406e-17
2.13713e-11
-7.5276e-09
-2.8378e-17
2.08445e-11
-7.85723e-09
-3.33569e-17
2.00839e-11
-8.09182e-09
-3.1974e-17
1.90964e-11
-8.20432e-09
-3.38469e-17
1.78996e-11
-8.15972e-09
-3.12367e-17
1.65209e-11
-7.92848e-09
-2.80076e-17
1.49942e-11
-7.48148e-09
-2.17382e-17
1.33422e-11
-6.79329e-09
-1.49644e-17
1.15249e-11
-5.85221e-09
-8.49878e-18
9.34052e-12
-4.67206e-09
-1.73781e-18
6.39239e-12
-3.3082e-09
4.91084e-18
2.55194e-12
-1.88054e-09
1.34299e-17
-5.26651e-10
1.57161e-17
2.15713e-18
-1.79396e-15
1.04272e-19
3.2014e-16
-3.65686e-14
1.60932e-17
7.49956e-16
-1.74929e-13
-9.05265e-17
3.80903e-15
-5.01941e-13
9.55341e-17
9.48144e-15
-1.12096e-12
3.02178e-18
1.87499e-14
-2.1515e-12
-3.23478e-18
3.53336e-14
-3.73663e-12
1.73933e-16
5.81758e-14
-6.03936e-12
1.79146e-16
9.17846e-14
-9.25269e-12
2.87342e-16
1.33858e-13
-1.35935e-11
-8.32127e-17
1.92559e-13
-1.93151e-11
1.33779e-16
2.65785e-13
-2.66997e-11
-1.0611e-16
3.59269e-13
-3.60793e-11
4.81485e-18
4.73621e-13
-4.78116e-11
-8.87879e-17
6.1332e-13
-6.2319e-11
-7.44681e-17
7.7985e-13
-8.00553e-11
-2.08927e-16
9.78735e-13
-1.01542e-10
-1.17693e-16
1.21061e-12
-1.27356e-10
-3.03341e-16
1.48162e-12
-1.5814e-10
-2.68599e-16
1.79461e-12
-1.94599e-10
-2.28929e-16
2.15317e-12
-2.37514e-10
-1.71645e-16
2.5603e-12
-2.8777e-10
-1.78414e-16
3.01932e-12
-3.46272e-10
-1.70077e-16
3.53332e-12
-4.141e-10
-1.69542e-16
4.10523e-12
-4.92341e-10
-1.56084e-16
4.73735e-12
-5.82247e-10
-1.4042e-16
5.43132e-12
-6.85137e-10
-1.29079e-16
6.18795e-12
-8.02352e-10
-1.1635e-16
7.00712e-12
-9.35536e-10
-1.03919e-16
7.88734e-12
-1.08611e-09
-9.41826e-17
8.82576e-12
-1.25582e-09
-8.31452e-17
9.81795e-12
-1.44635e-09
-7.33108e-17
1.08575e-11
-1.65936e-09
-6.31258e-17
1.19359e-11
-1.89653e-09
-5.3363e-17
1.30423e-11
-2.1594e-09
-4.58938e-17
1.41637e-11
-2.44941e-09
-3.1719e-17
1.52846e-11
-2.76757e-09
-1.74135e-17
1.6387e-11
-3.1146e-09
-5.82091e-18
1.74506e-11
-3.49051e-09
-9.47552e-18
1.84531e-11
-3.89365e-09
-1.38564e-17
1.93711e-11
-4.32429e-09
-1.10652e-17
2.018e-11
-4.77656e-09
-1.12781e-17
2.08546e-11
-5.24798e-09
-2.03497e-17
2.13706e-11
-5.72943e-09
-3.42677e-17
2.17052e-11
-6.21098e-09
-4.00868e-17
2.18378e-11
-6.68431e-09
-2.84716e-17
2.17516e-11
-7.12805e-09
-3.35673e-17
2.14334e-11
-7.52728e-09
-6.81498e-17
2.08764e-11
-7.85667e-09
-8.00305e-17
2.00808e-11
-8.09102e-09
-7.89252e-17
1.90545e-11
-8.2033e-09
-7.36663e-17
1.78162e-11
-8.15848e-09
-7.03934e-17
1.63948e-11
-7.92706e-09
-6.07692e-17
1.48256e-11
-7.47991e-09
-5.278e-17
1.31333e-11
-6.7916e-09
-4.01099e-17
1.12834e-11
-5.85036e-09
-2.98571e-17
9.088e-12
-4.66986e-09
-1.6093e-17
6.19144e-12
-3.30531e-09
-5.40629e-18
2.65789e-12
-1.87701e-09
6.96857e-18
-5.23993e-10
1.18956e-17
8.84118e-17
-1.80828e-15
1.05925e-17
2.79638e-16
-3.69227e-14
-1.95916e-17
9.73542e-16
-1.75855e-13
-2.2136e-17
4.21979e-15
-5.0432e-13
1.06166e-16
9.68267e-15
-1.12593e-12
5.40586e-17
1.85962e-14
-2.15957e-12
1.05916e-16
3.32992e-14
-3.75078e-12
6.90173e-17
5.5946e-14
-6.06011e-12
2.25805e-16
8.88993e-14
-9.28329e-12
2.7552e-16
1.29752e-13
-1.36354e-11
-1.23432e-16
1.8698e-13
-1.93716e-11
8.24657e-17
2.57919e-13
-2.67722e-11
-1.65959e-16
3.49349e-13
-3.61712e-11
-7.05657e-17
4.61214e-13
-4.79251e-11
-1.96932e-16
5.98665e-13
-6.24575e-11
-1.35201e-16
7.62778e-13
-8.02216e-11
-2.61657e-16
9.59576e-13
-1.0174e-10
-1.35947e-16
1.18892e-12
-1.27588e-10
-3.6373e-16
1.45715e-12
-1.58411e-10
-2.76338e-16
1.76778e-12
-1.94911e-10
-2.19264e-16
2.12412e-12
-2.37872e-10
-2.22141e-16
2.52973e-12
-2.88177e-10
-2.2316e-16
2.98843e-12
-3.46732e-10
-2.30229e-16
3.50341e-12
-4.14616e-10
-2.30774e-16
4.07766e-12
-4.92917e-10
-2.10247e-16
4.71348e-12
-5.82884e-10
-1.91247e-16
5.41259e-12
-6.85837e-10
-1.70403e-16
6.17587e-12
-8.03117e-10
-1.52848e-16
7.0033e-12
-9.36364e-10
-1.32099e-16
7.89343e-12
-1.087e-09
-1.18316e-16
8.84348e-12
-1.25677e-09
-1.00594e-16
9.849e-12
-1.44735e-09
-8.73663e-17
1.09035e-11
-1.66041e-09
-7.30642e-17
1.19984e-11
-1.89762e-09
-6.11917e-17
1.31228e-11
-2.16052e-09
-5.17068e-17
1.42631e-11
-2.45055e-09
-3.38826e-17
1.54035e-11
-2.76871e-09
-1.51428e-17
1.65255e-11
-3.11572e-09
-5.98568e-19
1.7608e-11
-3.4916e-09
-6.4739e-18
1.86279e-11
-3.89467e-09
-1.36772e-17
1.95608e-11
-4.32522e-09
-1.17928e-17
2.03809e-11
-4.77738e-09
-1.24405e-17
2.1062e-11
-5.24866e-09
-2.76131e-17
2.15785e-11
-5.72995e-09
-4.61536e-17
2.19063e-11
-6.2113e-09
-5.51412e-17
2.20241e-11
-6.68443e-09
-4.43675e-17
2.19144e-11
-7.12794e-09
-4.04066e-17
2.15632e-11
-7.52693e-09
-1.02914e-16
2.09644e-11
-7.85607e-09
-1.19786e-16
2.0119e-11
-8.09018e-09
-1.19911e-16
1.90361e-11
-8.20222e-09
-1.20931e-16
1.77365e-11
-8.15718e-09
-1.14946e-16
1.62509e-11
-7.92558e-09
-1.05832e-16
1.46167e-11
-7.47828e-09
-9.41499e-17
1.28611e-11
-6.78984e-09
-7.7271e-17
1.09567e-11
-5.84846e-09
-6.19842e-17
8.73741e-12
-4.66764e-09
-4.23931e-17
5.89051e-12
-3.30246e-09
-2.66828e-17
2.47682e-12
-1.8736e-09
-9.81703e-18
-5.21517e-10
-6.53204e-18
1.32535e-16
-1.79658e-15
1.85412e-17
1.31286e-16
-3.70003e-14
-1.10439e-17
1.69561e-16
-1.76264e-13
-4.57159e-17
2.13874e-15
-5.06061e-13
2.78624e-17
5.87828e-15
-1.13002e-12
-3.65414e-17
1.29783e-14
-2.16694e-12
-3.31256e-17
2.49636e-14
-3.7633e-12
-6.28237e-17
4.47181e-14
-6.07829e-12
1.91783e-16
7.35899e-14
-9.31028e-12
2.37178e-16
1.11445e-13
-1.36726e-11
7.11938e-17
1.64767e-13
-1.94228e-11
2.43551e-16
2.31593e-13
-2.68392e-11
7.64662e-18
3.1929e-13
-3.62576e-11
1.36194e-16
4.26881e-13
-4.80334e-11
-7.3732e-17
5.60854e-13
-6.25913e-11
1.01318e-17
7.21368e-13
-8.03836e-11
-1.83564e-16
9.15244e-13
-1.01934e-10
-5.17618e-17
1.14224e-12
-1.27818e-10
-3.17844e-16
1.40918e-12
-1.5868e-10
-2.84173e-16
1.71933e-12
-1.95223e-10
-2.73093e-16
2.07622e-12
-2.38231e-10
-2.77147e-16
2.4833e-12
-2.88587e-10
-3.07032e-16
2.94436e-12
-3.47195e-10
-2.82696e-16
3.46269e-12
-4.15137e-10
-2.66285e-16
4.04156e-12
-4.93498e-10
-2.32484e-16
4.68349e-12
-5.83528e-10
-2.02529e-16
5.39045e-12
-6.86546e-10
-1.7789e-16
6.16344e-12
-8.03891e-10
-1.57017e-16
7.00262e-12
-9.37204e-10
-1.36397e-16
7.90659e-12
-1.08791e-09
-1.22885e-16
8.87266e-12
-1.25773e-09
-1.05762e-16
9.89635e-12
-1.44838e-09
-9.31969e-17
1.09712e-11
-1.66149e-09
-7.95396e-17
1.20883e-11
-1.89874e-09
-6.80289e-17
1.32365e-11
-2.16167e-09
-5.84567e-17
1.44019e-11
-2.45172e-09
-3.82068e-17
1.55681e-11
-2.76987e-09
-1.57113e-17
1.6716e-11
-3.11687e-09
1.67088e-18
1.78234e-11
-3.4927e-09
-5.32226e-18
1.88661e-11
-3.89571e-09
-1.48851e-17
1.98184e-11
-4.32617e-09
-1.34563e-17
2.06533e-11
-4.77822e-09
-1.6782e-17
2.13429e-11
-5.24935e-09
-3.5285e-17
2.186e-11
-5.73047e-09
-6.0954e-17
2.21792e-11
-6.21162e-09
-7.30379e-17
2.22779e-11
-6.68453e-09
-5.73505e-17
2.21376e-11
-7.1278e-09
-6.70677e-17
2.17438e-11
-7.52654e-09
-1.37549e-16
2.10909e-11
-7.85542e-09
-1.60269e-16
2.01808e-11
-8.08927e-09
-1.62406e-16
1.90246e-11
-8.20106e-09
-1.58442e-16
1.76455e-11
-8.1558e-09
-1.55174e-16
1.6077e-11
-7.92401e-09
-1.4236e-16
1.43596e-11
-7.47657e-09
-1.305e-16
1.25243e-11
-6.78801e-09
-1.09996e-16
1.05527e-11
-5.84649e-09
-9.29239e-17
8.30514e-12
-4.6654e-09
-6.92737e-17
5.5184e-12
-3.29968e-09
-5.20909e-17
2.23229e-12
-1.87031e-09
-3.5635e-17
-5.19286e-10
-3.06607e-17
4.21855e-18
-1.82112e-15
3.04817e-18
4.2847e-16
-3.71366e-14
2.58123e-17
8.42042e-16
-1.77298e-13
-6.80579e-17
3.22623e-15
-5.07969e-13
6.48398e-17
7.42678e-15
-1.13399e-12
1.61174e-17
1.45497e-14
-2.17367e-12
5.89653e-17
2.5943e-14
-3.77462e-12
1.90032e-18
4.42587e-14
-6.0955e-12
1.32797e-16
7.06673e-14
-9.33606e-12
9.33405e-17
1.07809e-13
-1.37081e-11
1.89304e-16
1.58361e-13
-1.94718e-11
1.91365e-16
2.22777e-13
-2.69032e-11
5.40333e-17
3.07058e-13
-3.63407e-11
1.31042e-16
4.11007e-13
-4.81378e-11
-4.82558e-17
5.41181e-13
-6.27209e-11
5.20288e-17
6.97586e-13
-8.05417e-11
-1.96844e-16
8.87643e-13
-1.02124e-10
-3.4028e-17
1.111e-12
-1.28044e-10
-3.07115e-16
1.37443e-12
-1.58946e-10
-2.49474e-16
1.68183e-12
-1.95532e-10
-2.1469e-16
2.03684e-12
-2.38588e-10
-2.1599e-16
2.44325e-12
-2.88995e-10
-2.20361e-16
2.90533e-12
-3.47659e-10
-2.188e-16
3.42658e-12
-4.1566e-10
-2.18344e-16
4.01043e-12
-4.94083e-10
-1.93415e-16
4.65951e-12
-5.84178e-10
-1.75918e-16
5.37594e-12
-6.87263e-10
-1.54011e-16
6.16087e-12
-8.04677e-10
-1.40856e-16
7.0146e-12
-9.38059e-10
-1.21732e-16
7.93585e-12
-1.08883e-09
-1.13053e-16
8.922e-12
-1.25872e-09
-9.55749e-17
9.96856e-12
-1.44942e-09
-8.57671e-17
1.10689e-11
-1.66259e-09
-7.25971e-17
1.22141e-11
-1.89989e-09
-6.33996e-17
1.33925e-11
-2.16285e-09
-5.48672e-17
1.45897e-11
-2.45292e-09
-3.4411e-17
1.57887e-11
-2.77107e-09
-1.00994e-17
1.69693e-11
-3.11805e-09
8.56741e-18
1.81083e-11
-3.49384e-09
-1.69382e-19
1.91802e-11
-3.89678e-09
-1.24167e-17
2.01576e-11
-4.32715e-09
-1.37491e-17
2.10117e-11
-4.77907e-09
-1.86839e-17
2.17126e-11
-5.25005e-09
-4.31649e-17
2.22315e-11
-5.73099e-09
-7.28283e-17
2.2541e-11
-6.21194e-09
-8.89428e-17
2.26169e-11
-6.68461e-09
-7.6299e-17
2.24395e-11
-7.12762e-09
-7.61079e-17
2.19937e-11
-7.52609e-09
-1.64044e-16
2.12743e-11
-7.85471e-09
-1.9166e-16
2.02844e-11
-8.08828e-09
-1.94994e-16
1.90376e-11
-8.19982e-09
-1.98413e-16
1.75602e-11
-8.15433e-09
-1.93571e-16
1.58897e-11
-7.92234e-09
-1.82956e-16
1.40709e-11
-7.47475e-09
-1.69103e-16
1.21406e-11
-6.78608e-09
-1.46377e-16
1.00917e-11
-5.84444e-09
-1.26164e-16
7.81378e-12
-4.66312e-09
-9.89662e-17
5.09939e-12
-3.29696e-09
-7.99509e-17
2.0162e-12
-1.86723e-09
-6.28897e-17
-5.17271e-10
-6.27593e-17
-8.46724e-18
-1.82601e-15
9.42077e-19
2.71534e-16
-3.70638e-14
3.60345e-17
6.54395e-17
-1.77876e-13
-9.01821e-17
1.27443e-15
-5.08944e-13
3.04868e-17
3.97638e-15
-1.13738e-12
-8.58382e-17
9.90838e-15
-2.17984e-12
-2.1372e-17
1.96017e-14
-3.78502e-12
-8.68669e-17
3.56327e-14
-6.11201e-12
-5.4231e-17
5.87062e-14
-9.36011e-12
-1.05205e-16
9.36516e-14
-1.37414e-11
1.9111e-16
1.40789e-13
-1.95178e-11
1.42133e-16
2.02609e-13
-2.69636e-11
1.74679e-16
2.83408e-13
-3.64198e-11
1.8484e-16
3.84013e-13
-4.8238e-11
6.43096e-17
5.10751e-13
-6.28463e-11
1.39664e-16
6.63874e-13
-8.06956e-11
-9.30349e-17
8.50832e-13
-1.02311e-10
5.74533e-17
1.07154e-12
-1.28267e-10
-2.35486e-16
1.33359e-12
-1.59209e-10
-1.82827e-16
1.64032e-12
-1.95841e-10
-2.05445e-16
1.99593e-12
-2.38945e-10
-2.18032e-16
2.4043e-12
-2.89405e-10
-2.43468e-16
2.86974e-12
-3.48126e-10
-2.10714e-16
3.39597e-12
-4.16188e-10
-1.98247e-16
3.98677e-12
-4.94675e-10
-1.67921e-16
4.64513e-12
-5.84837e-10
-1.44458e-16
5.3735e-12
-6.87992e-10
-1.21775e-16
6.17327e-12
-8.05477e-10
-1.07946e-16
7.04497e-12
-9.38931e-10
-9.15225e-17
7.98745e-12
-1.08977e-09
-8.54057e-17
8.9982e-12
-1.25973e-09
-7.09721e-17
1.00727e-11
-1.4505e-09
-6.47824e-17
1.12042e-11
-1.66372e-09
-5.5702e-17
1.23835e-11
-1.90107e-09
-5.06835e-17
1.35986e-11
-2.16406e-09
-4.5667e-17
1.48346e-11
-2.45415e-09
-2.70649e-17
1.60734e-11
-2.77231e-09
-2.66077e-18
1.72939e-11
-3.11927e-09
1.60096e-17
1.84715e-11
-3.49502e-09
6.0646e-18
1.9579e-11
-3.89789e-09
-8.93696e-18
2.05873e-11
-4.32816e-09
-1.25377e-17
2.14654e-11
-4.77995e-09
-2.12818e-17
2.21812e-11
-5.25077e-09
-4.8604e-17
2.27036e-11
-5.73151e-09
-8.46907e-17
2.3003e-11
-6.21224e-09
-1.04325e-16
2.30533e-11
-6.68466e-09
-8.9843e-17
2.28334e-11
-7.1274e-09
-1.03096e-16
2.23275e-11
-7.52559e-09
-1.89688e-16
2.15306e-11
-7.85391e-09
-2.21466e-16
2.04475e-11
-8.0872e-09
-2.27347e-16
1.90944e-11
-8.19847e-09
-2.25649e-16
1.75017e-11
-8.15274e-09
-2.23737e-16
1.57121e-11
-7.92055e-09
-2.10085e-16
1.37761e-11
-7.47282e-09
-1.96912e-16
1.17383e-11
-6.78405e-09
-1.71788e-16
9.60548e-12
-5.84231e-09
-1.5088e-16
7.29829e-12
-4.66082e-09
-1.21191e-16
4.66442e-12
-3.29433e-09
-1.0281e-16
1.80438e-12
-1.86437e-09
-8.98593e-17
-5.15469e-10
-8.92674e-17
8.69926e-17
-1.8359e-15
1.87718e-17
3.84808e-16
-3.72429e-14
4.7365e-18
8.33364e-16
-1.78476e-13
-2.61669e-17
2.73384e-15
-5.10574e-13
4.92008e-17
7.41559e-15
-1.14094e-12
1.26417e-16
1.31135e-14
-2.18624e-12
-8.76996e-17
2.33131e-14
-3.79455e-12
7.63254e-17
3.80474e-14
-6.12758e-12
-8.95967e-17
5.86441e-14
-9.38201e-12
-1.46095e-16
9.15744e-14
-1.37731e-11
1.35748e-16
1.35429e-13
-1.95613e-11
6.05859e-17
1.9498e-13
-2.70217e-11
1.74751e-16
2.72095e-13
-3.64961e-11
1.17867e-16
3.69866e-13
-4.83349e-11
1.12066e-16
4.92928e-13
-6.29682e-11
1.36236e-16
6.43234e-13
-8.08458e-11
1.99681e-17
8.27155e-13
-1.02493e-10
1.06861e-16
1.04518e-12
-1.28486e-10
-1.93724e-16
1.30481e-12
-1.5947e-10
-1.06078e-16
1.61034e-12
-1.96146e-10
-2.54741e-17
1.96578e-12
-2.39301e-10
-3.82582e-17
2.37544e-12
-2.89816e-10
-7.61231e-17
2.84425e-12
-3.48596e-10
-8.89917e-17
3.37627e-12
-4.1672e-10
-1.07263e-16
3.97555e-12
-4.95275e-10
-9.285e-17
4.64533e-12
-5.85508e-10
-8.47847e-17
5.38831e-12
-6.88736e-10
-6.6412e-17
6.20611e-12
-8.06295e-10
-6.11571e-17
7.09949e-12
-9.39824e-10
-4.77112e-17
8.06747e-12
-1.09074e-09
-4.81676e-17
9.10765e-12
-1.26077e-09
-3.56997e-17
1.02155e-11
-1.45161e-09
-3.52481e-17
1.13842e-11
-1.66489e-09
-2.96089e-17
1.26041e-11
-1.90229e-09
-3.03726e-17
1.38628e-11
-2.16532e-09
-2.92299e-17
1.51447e-11
-2.45543e-09
-1.41816e-17
1.64307e-11
-2.7736e-09
8.85462e-18
1.76986e-11
-3.12054e-09
2.63109e-17
1.89221e-11
-3.49624e-09
1.46454e-17
2.00722e-11
-3.89904e-09
-2.76232e-18
2.11175e-11
-4.32921e-09
-1.0377e-17
2.20247e-11
-4.78086e-09
-2.13593e-17
2.27592e-11
-5.25151e-09
-5.3974e-17
2.3287e-11
-5.73204e-09
-9.28694e-17
2.35761e-11
-6.21253e-09
-1.17082e-16
2.35982e-11
-6.68468e-09
-1.08312e-16
2.33306e-11
-7.12713e-09
-1.12432e-16
2.27565e-11
-7.52502e-09
-2.1076e-16
2.18713e-11
-7.85303e-09
-2.45042e-16
2.06816e-11
-8.08602e-09
-2.51244e-16
1.92067e-11
-8.197e-09
-2.56126e-16
1.74818e-11
-8.15102e-09
-2.51839e-16
1.5556e-11
-7.91863e-09
-2.40046e-16
1.34875e-11
-7.47075e-09
-2.24931e-16
1.13306e-11
-6.78189e-09
-1.97972e-16
9.10849e-12
-5.84009e-09
-1.74521e-16
6.77371e-12
-4.65848e-09
-1.42205e-16
4.22604e-12
-3.29179e-09
-1.23329e-16
1.59392e-12
-1.86174e-09
-1.1109e-16
-5.13878e-10
-1.16656e-16
-4.96744e-18
-1.83653e-15
6.56668e-18
1.92017e-16
-3.73502e-14
7.28555e-19
1.93903e-16
-1.78823e-13
-4.63348e-17
1.09209e-15
-5.11473e-13
1.48332e-17
4.19373e-15
-1.14325e-12
8.87759e-17
7.61356e-15
-2.19019e-12
-5.84963e-17
1.67423e-14
-3.80271e-12
1.08338e-16
2.98352e-14
-6.14244e-12
-2.15476e-16
4.85313e-14
-9.40284e-12
-2.28012e-16
8.09093e-14
-1.3805e-11
2.30669e-17
1.22668e-13
-1.96038e-11
-5.3477e-17
1.81405e-13
-2.70785e-11
2.39633e-16
2.56318e-13
-3.65703e-11
9.81899e-17
3.52024e-13
-4.84295e-11
1.55457e-16
4.72495e-13
-6.30875e-11
1.28591e-16
6.20588e-13
-8.09933e-11
8.02042e-17
8.02326e-13
-1.02674e-10
1.54142e-16
1.01887e-12
-1.28704e-10
-1.12873e-16
1.27832e-12
-1.59729e-10
-2.28793e-17
1.58455e-12
-1.96453e-10
-1.4141e-17
1.94226e-12
-2.39659e-10
-4.09476e-17
2.35592e-12
-2.9023e-10
-8.7884e-17
2.83063e-12
-3.49071e-10
-6.95448e-17
3.37077e-12
-4.17261e-10
-7.36416e-17
3.98086e-12
-4.95886e-10
-5.23249e-17
4.66459e-12
-5.86192e-10
-3.75202e-17
5.42511e-12
-6.89496e-10
-1.86635e-17
6.26436e-12
-8.07134e-10
-1.2123e-17
7.18341e-12
-9.40743e-10
-9.72186e-19
8.18146e-12
-1.09174e-09
-3.39326e-18
9.25626e-12
-1.26185e-09
5.7614e-18
1.04032e-11
-1.45275e-09
2.10495e-18
1.16154e-11
-1.6661e-09
2.40591e-18
1.28828e-11
-1.90355e-09
-3.99796e-18
1.41925e-11
-2.16663e-09
-8.28641e-18
1.5528e-11
-2.45677e-09
2.26793e-18
1.68692e-11
-2.77494e-09
2.23266e-17
1.81924e-11
-3.12186e-09
3.72912e-17
1.94695e-11
-3.49752e-09
2.38521e-17
2.06695e-11
-3.90024e-09
3.65017e-18
2.17585e-11
-4.3303e-09
-7.13062e-18
2.27004e-11
-4.7818e-09
-2.23565e-17
2.34577e-11
-5.25226e-09
-5.69041e-17
2.39935e-11
-5.73258e-09
-1.00945e-16
2.42728e-11
-6.21281e-09
-1.28504e-16
2.42646e-11
-6.68468e-09
-1.20146e-16
2.39445e-11
-7.12682e-09
-1.37688e-16
2.32947e-11
-7.52437e-09
-2.26147e-16
2.23109e-11
-7.85205e-09
-2.61992e-16
2.10014e-11
-8.08471e-09
-2.6996e-16
1.93894e-11
-8.19539e-09
-2.6884e-16
1.75158e-11
-8.14915e-09
-2.66747e-16
1.5437e-11
-7.91656e-09
-2.51533e-16
1.32206e-11
-7.46854e-09
-2.3681e-16
1.09332e-11
-6.77961e-09
-2.07746e-16
8.61619e-12
-5.83778e-09
-1.83903e-16
6.2545e-12
-4.65613e-09
-1.49952e-16
3.79585e-12
-3.28933e-09
-1.32276e-16
1.38752e-12
-1.85934e-09
-1.24288e-16
-5.12493e-10
-1.29885e-16
5.96576e-17
-1.83732e-15
1.56673e-17
1.76876e-16
-3.73912e-14
3.96611e-18
-1.40208e-16
-1.79016e-13
-6.59665e-17
2.40087e-15
-5.12906e-13
1.37834e-16
6.85497e-15
-1.14663e-12
1.15035e-16
1.18208e-14
-2.19617e-12
-1.07601e-16
2.33626e-14
-3.81349e-12
1.03692e-16
3.61364e-14
-6.15743e-12
-2.96498e-16
5.40329e-14
-9.42265e-12
-2.34274e-16
8.44737e-14
-1.38351e-11
8.15514e-17
1.222e-13
-1.9643e-11
-1.72673e-16
1.78649e-13
-2.71328e-11
2.45498e-16
2.50451e-13
-3.66415e-11
9.43607e-17
3.4407e-13
-4.85217e-11
1.85742e-16
4.62039e-13
-6.32042e-11
1.61841e-16
6.08528e-13
-8.11387e-11
1.33482e-16
7.88829e-13
-1.02852e-10
2.34202e-16
1.0049e-12
-1.2892e-10
6.25629e-18
1.26423e-12
-1.59988e-10
7.60913e-17
1.57157e-12
-1.96759e-10
8.96331e-17
1.93187e-12
-2.40018e-10
8.27551e-17
2.35002e-12
-2.90648e-10
4.49033e-17
2.83172e-12
-3.49552e-10
3.26028e-17
3.38179e-12
-4.17811e-10
6.70221e-18
4.00515e-12
-4.96509e-10
1.77969e-17
4.70585e-12
-5.86892e-10
2.16824e-17
5.48739e-12
-6.90277e-10
3.88517e-17
6.35208e-12
-8.07999e-10
3.98059e-17
7.30129e-12
-9.41692e-10
4.99911e-17
8.33447e-12
-1.09277e-09
4.27478e-17
9.4495e-12
-1.26296e-09
5.0591e-17
1.06418e-11
-1.45394e-09
4.14002e-17
1.19042e-11
-1.66736e-09
3.80457e-17
1.32265e-11
-1.90488e-09
2.5108e-17
1.45949e-11
-2.168e-09
1.60849e-17
1.59922e-11
-2.45817e-09
2.10021e-17
1.73969e-11
-2.77634e-09
3.72609e-17
1.87839e-11
-3.12325e-09
4.85907e-17
2.01229e-11
-3.49886e-09
3.28336e-17
2.13806e-11
-3.9015e-09
1.03168e-17
2.25204e-11
-4.33144e-09
-4.76781e-18
2.35032e-11
-4.78278e-09
-2.22592e-17
2.42881e-11
-5.25305e-09
-6.10437e-17
2.48348e-11
-5.73312e-09
-1.06407e-16
2.51052e-11
-6.21308e-09
-1.3822e-16
2.50653e-11
-6.68464e-09
-1.37235e-16
2.46885e-11
-7.12644e-09
-1.45808e-16
2.39559e-11
-7.52364e-09
-2.40485e-16
2.28634e-11
-7.85096e-09
-2.76126e-16
2.14216e-11
-8.08327e-09
-2.836e-16
1.96576e-11
-8.19363e-09
-2.88136e-16
1.76187e-11
-8.14711e-09
-2.82882e-16
1.53702e-11
-7.91431e-09
-2.6894e-16
1.29906e-11
-7.46616e-09
-2.52012e-16
1.0561e-11
-6.77718e-09
-2.21202e-16
8.14306e-12
-5.83536e-09
-1.95055e-16
5.75381e-12
-4.65374e-09
-1.58909e-16
3.38414e-12
-3.28696e-09
-1.40879e-16
1.19274e-12
-1.85715e-09
-1.3292e-16
-5.11303e-10
-1.44211e-16
2.02176e-17
-1.84197e-15
6.75441e-18
3.49612e-16
-3.76139e-14
1.79695e-18
1.31451e-16
-1.79512e-13
-8.77792e-17
2.0193e-15
-5.14359e-13
6.43264e-17
4.95126e-15
-1.14844e-12
1.27046e-16
8.01909e-15
-2.19935e-12
9.17187e-18
1.6364e-14
-3.82036e-12
1.73774e-16
2.44072e-14
-6.16781e-12
-3.07291e-16
4.17133e-14
-9.44167e-12
-2.33317e-16
7.31378e-14
-1.38659e-11
7.83253e-17
1.10837e-13
-1.96822e-11
-1.36779e-16
1.68705e-13
-2.71878e-11
3.01538e-16
2.40642e-13
-3.67125e-11
1.456e-16
3.3422e-13
-4.86133e-11
2.36621e-16
4.51584e-13
-6.332e-11
1.8108e-16
5.9773e-13
-8.12834e-11
1.74685e-16
7.7777e-13
-1.0303e-10
2.55641e-16
9.94482e-13
-1.29136e-10
5.2863e-17
1.2558e-12
-1.60248e-10
1.01954e-16
1.5666e-12
-1.97069e-10
1.40079e-16
1.93231e-12
-2.40383e-10
1.47219e-16
2.358e-12
-2.91073e-10
9.85618e-17
2.84966e-12
-3.50043e-10
1.04223e-16
3.41254e-12
-4.18373e-10
8.20075e-17
4.05213e-12
-4.97147e-10
9.00857e-17
4.77302e-12
-5.87612e-10
9.1898e-17
5.57924e-12
-6.91083e-10
1.0167e-16
6.47353e-12
-8.08892e-10
9.90196e-17
7.45767e-12
-9.42675e-10
1.0343e-16
8.53134e-12
-1.09384e-09
9.28206e-17
9.6926e-12
-1.26412e-09
9.63442e-17
1.09369e-11
-1.45519e-09
8.30953e-17
1.22568e-11
-1.66868e-09
7.4358e-17
1.36416e-11
-1.90626e-09
5.60807e-17
1.50771e-11
-2.16944e-09
4.13796e-17
1.65448e-11
-2.45963e-09
4.09054e-17
1.8022e-11
-2.77782e-09
5.22384e-17
1.94816e-11
-3.12471e-09
5.9284e-17
2.08914e-11
-3.50027e-09
4.09774e-17
2.22153e-11
-3.90282e-09
1.57529e-17
2.34136e-11
-4.33263e-09
-2.52697e-18
2.44439e-11
-4.78381e-09
-2.40662e-17
2.52616e-11
-5.25387e-09
-6.36605e-17
2.58228e-11
-5.73369e-09
-1.12661e-16
2.60856e-11
-6.21334e-09
-1.47096e-16
2.6013e-11
-6.68457e-09
-1.47427e-16
2.55756e-11
-7.126e-09
-1.68914e-16
2.47535e-11
-7.52282e-09
-2.47985e-16
2.35428e-11
-7.84975e-09
-2.83056e-16
2.19562e-11
-8.08169e-09
-2.91448e-16
2.00254e-11
-8.1917e-09
-2.89341e-16
1.78049e-11
-8.1449e-09
-2.8553e-16
1.53697e-11
-7.91188e-09
-2.67693e-16
1.28113e-11
-7.46361e-09
-2.50747e-16
1.02271e-11
-6.7746e-09
-2.17904e-16
7.70085e-12
-5.83284e-09
-1.91476e-16
5.28128e-12
-4.65132e-09
-1.54082e-16
2.99734e-12
-3.28468e-09
-1.37059e-16
1.01185e-12
-1.85516e-09
-1.32181e-16
-5.10294e-10
-1.43021e-16
9.83805e-17
-1.84675e-15
1.49962e-17
9.73068e-17
-3.76268e-14
-3.02029e-18
-1.34871e-16
-1.79629e-13
-4.0881e-17
2.12002e-15
-5.15399e-13
1.44253e-16
5.12401e-15
-1.15068e-12
7.65199e-17
1.06878e-14
-2.20497e-12
-1.84126e-17
2.1905e-14
-3.82988e-12
1.93427e-16
3.5329e-14
-6.18302e-12
-1.55277e-16
5.37051e-14
-9.4623e-12
-2.44801e-16
8.00159e-14
-1.38923e-11
-6.74001e-17
1.1752e-13
-1.97215e-11
-1.65371e-16
1.72194e-13
-2.72397e-11
3.27089e-16
2.41792e-13
-3.67816e-11
8.80686e-17
3.34371e-13
-4.87037e-11
2.84592e-16
4.50837e-13
-6.34348e-11
2.04408e-16
5.97376e-13
-8.14278e-11
2.45015e-16
7.78165e-13
-1.03208e-10
2.88392e-16
9.96883e-13
-1.29355e-10
1.01513e-16
1.26108e-12
-1.60511e-10
1.92939e-16
1.5763e-12
-1.97382e-10
2.46642e-16
1.94819e-12
-2.40752e-10
2.46309e-16
2.38252e-12
-2.91505e-10
2.00654e-16
2.88595e-12
-3.50545e-10
1.82072e-16
3.46422e-12
-4.1895e-10
1.44981e-16
4.12326e-12
-4.97805e-10
1.45226e-16
4.86813e-12
-5.88355e-10
1.39237e-16
5.70332e-12
-6.91916e-10
1.49436e-16
6.63203e-12
-8.09819e-10
1.43489e-16
7.65642e-12
-9.43698e-10
1.48351e-16
8.77648e-12
-1.09496e-09
1.34547e-16
9.99047e-12
-1.26533e-09
1.37932e-16
1.12938e-11
-1.45649e-09
1.20454e-16
1.26789e-11
-1.67007e-09
1.09144e-16
1.41347e-11
-1.90771e-09
8.53381e-17
1.56459e-11
-2.17095e-09
6.65638e-17
1.71932e-11
-2.46118e-09
6.02138e-17
1.87523e-11
-2.77938e-09
6.6673e-17
2.02941e-11
-3.12625e-09
6.87316e-17
2.1784e-11
-3.50176e-09
4.75163e-17
2.3183e-11
-3.90422e-09
2.00792e-17
2.44481e-11
-4.3339e-09
-2.26075e-18
2.55332e-11
-4.7849e-09
-2.56122e-17
2.63896e-11
-5.25472e-09
-6.82543e-17
2.69693e-11
-5.73427e-09
-1.17054e-16
2.72265e-11
-6.2136e-09
-1.54791e-16
2.71205e-11
-6.68446e-09
-1.62917e-16
2.66192e-11
-7.12551e-09
-1.74926e-16
2.57013e-11
-7.52191e-09
-2.57097e-16
2.43629e-11
-7.84842e-09
-2.90177e-16
2.26193e-11
-8.07995e-09
-2.97566e-16
2.05069e-11
-8.18959e-09
-3.00403e-16
1.80882e-11
-8.14248e-09
-2.92951e-16
1.54493e-11
-7.90925e-09
-2.75943e-16
1.26957e-11
-7.46086e-09
-2.56579e-16
9.94343e-12
-6.77185e-09
-2.221e-16
7.29979e-12
-5.8302e-09
-1.93577e-16
4.84457e-12
-4.64887e-09
-1.54338e-16
2.63993e-12
-3.28248e-09
-1.36698e-16
8.45996e-13
-1.85337e-09
-1.30675e-16
-5.0945e-10
-1.46148e-16
4.63037e-17
-1.84688e-15
1.04165e-17
1.12013e-16
-3.77825e-14
-1.89457e-17
2.26698e-16
-1.80187e-13
-5.52894e-17
2.10342e-15
-5.1665e-13
7.93171e-17
4.73831e-15
-1.15281e-12
5.39547e-17
1.03086e-14
-2.21014e-12
3.52488e-17
1.82891e-14
-3.83611e-12
2.00696e-16
2.76243e-14
-6.19342e-12
-4.27074e-17
4.55243e-14
-9.48175e-12
-2.04565e-16
7.22786e-14
-1.39185e-11
-7.3044e-18
1.10388e-13
-1.97605e-11
-4.65228e-17
1.66907e-13
-2.72925e-11
4.12418e-16
2.37829e-13
-3.68512e-11
1.9611e-16
3.31683e-13
-4.87946e-11
3.57456e-16
4.49454e-13
-6.35504e-11
2.66913e-16
5.97781e-13
-8.15736e-11
2.96203e-16
7.80939e-13
-1.03389e-10
3.30004e-16
1.00335e-12
-1.29576e-10
1.60119e-16
1.27301e-12
-1.60778e-10
2.43486e-16
1.59549e-12
-1.97702e-10
2.81753e-16
1.97698e-12
-2.41132e-10
2.70198e-16
2.42358e-12
-2.9195e-10
2.12689e-16
2.94235e-12
-3.51062e-10
2.25261e-16
3.53953e-12
-4.19546e-10
1.98285e-16
4.22167e-12
-4.98485e-10
1.99071e-16
4.99449e-12
-5.89126e-10
1.94975e-16
5.86312e-12
-6.92783e-10
2.01624e-16
6.83126e-12
-8.10786e-10
1.94688e-16
7.90154e-12
-9.44766e-10
1.94555e-16
9.07428e-12
-1.09613e-09
1.78246e-16
1.03479e-11
-1.2666e-09
1.77678e-16
1.17179e-11
-1.45786e-09
1.5707e-16
1.31765e-11
-1.67152e-09
1.41123e-16
1.47119e-11
-1.90925e-09
1.13134e-16
1.63083e-11
-2.17254e-09
8.93563e-17
1.7945e-11
-2.46282e-09
7.79244e-17
1.9596e-11
-2.78103e-09
7.876e-17
2.12301e-11
-3.12788e-09
7.58434e-17
2.28101e-11
-3.50334e-09
5.16297e-17
2.42938e-11
-3.9057e-09
2.18817e-17
2.56346e-11
-4.33524e-09
-2.96913e-18
2.67821e-11
-4.78604e-09
-2.95531e-17
2.76837e-11
-5.25563e-09
-7.17077e-17
2.82865e-11
-5.73487e-09
-1.22627e-16
2.85404e-11
-6.21386e-09
-1.6185e-16
2.84008e-11
-6.68433e-09
-1.71046e-16
2.78326e-11
-7.12494e-09
-1.95433e-16
2.68128e-11
-7.52089e-09
-2.6006e-16
2.53376e-11
-7.84694e-09
-2.91622e-16
2.34247e-11
-8.07804e-09
-2.99545e-16
2.11159e-11
-8.18729e-09
-2.95557e-16
1.84822e-11
-8.13985e-09
-2.89166e-16
1.56218e-11
-7.90639e-09
-2.68035e-16
1.26561e-11
-7.45789e-09
-2.48369e-16
9.72088e-12
-6.76892e-09
-2.11908e-16
6.94867e-12
-5.82743e-09
-1.83167e-16
4.44963e-12
-4.64637e-09
-1.42888e-16
2.31478e-12
-3.28035e-09
-1.25909e-16
6.95759e-13
-1.85176e-09
-1.21773e-16
-5.08757e-10
-1.35952e-16
3.00033e-17
-1.85414e-15
7.59823e-18
5.6643e-17
-3.77504e-14
2.12824e-18
-3.27114e-16
-1.80354e-13
-6.69592e-17
1.50681e-15
-5.17629e-13