/*--------------------------------*- C++ -*----------------------------------*\
| =========                 |                                                 |
| \\      /  F ield         | OpenFOAM: The Open Source CFD Toolbox           |
|  \\    /   O peration     | Version:  v2012                                 |
|   \\  /    A nd           | Website:  www.openfoam.com                      |
|    \\/     M anipulation  |                                                 |
\*---------------------------------------------------------------------------*/
FoamFile
{
    version     2.0;
    format      ascii;
    class       volScalarField;
    location    "0.25";
    object      alpha.water;
}
// * * * * * * * * * * * * * * * * * * * * * * * * * * * * * * * * * * * * * //

dimensions      [0 0 0 0 0 0 0];


internalField   nonuniform List<scalar> 
3338
(
-1.61267e-104
-4.28643e-105
-7.97754e-106
-1.03176e-106
-9.19483e-108
-5.55665e-109
-2.22645e-110
-5.76747e-112
-9.39774e-114
-9.38049e-116
-5.609e-118
-1.98011e-120
-4.11311e-123
-5.05474e-126
-3.70502e-129
-1.62401e-132
-4.20635e-136
-6.19577e-140
-4.76266e-144
-1.57683e-148
-1.31698e-153
-1.70908e-103
-4.47955e-104
-8.2482e-105
-1.05941e-105
-9.41306e-107
-5.69537e-108
-2.29532e-109
-6.01058e-111
-9.95395e-113
-1.01536e-114
-6.23574e-117
-2.26948e-119
-4.86741e-122
-6.16863e-125
-4.6453e-128
-2.08015e-131
-5.46641e-135
-8.1056e-139
-6.21522e-143
-2.02588e-147
-1.6626e-152
-1.79227e-102
-4.63361e-103
-8.4437e-104
-1.07742e-104
-9.54794e-106
-5.78626e-107
-2.34657e-108
-6.21492e-110
-1.0467e-111
-1.09195e-113
-6.89485e-116
-2.59059e-118
-5.74727e-121
-7.52839e-124
-5.83899e-127
-2.6773e-130
-7.14988e-134
-1.06775e-137
-8.15914e-142
-2.61748e-146
-2.12659e-151
-1.85951e-101
-4.74338e-102
-8.55711e-103
-1.08512e-103
-9.59441e-105
-5.8261e-106
-2.37859e-107
-6.37482e-109
-1.0925e-110
-1.16647e-112
-7.57981e-115
-2.94393e-117
-6.76777e-120
-9.18366e-123
-7.35523e-126
-3.46254e-129
-9.41897e-133
-1.41891e-136
-1.0812e-140
-3.41292e-145
-2.65718e-150
-1.90845e-100
-4.80476e-101
-8.58374e-102
-1.08211e-102
-9.54976e-104
-5.81294e-105
-2.3902e-106
-6.48544e-108
-1.13162e-109
-1.23743e-111
-8.28228e-114
-3.32914e-116
-7.94366e-119
-1.11908e-121
-9.27959e-125
-4.49781e-128
-1.24966e-131
-1.90304e-135
-1.44752e-139
-4.4934e-144
-3.34884e-149
-1.9372e-99
-4.81508e-100
-8.52145e-101
-1.06833e-101
-9.41382e-103
-5.74628e-104
-2.38072e-105
-6.54298e-107
-1.16299e-108
-1.3033e-110
-8.99228e-113
-3.74494e-115
-9.28912e-118
-1.36145e-120
-1.17194e-123
-5.86651e-127
-1.67005e-130
-2.57842e-134
-1.96194e-138
-5.99225e-143
-4.2796e-148
-1.94448e-98
-4.7732e-99
-8.3708e-100
-1.04401e-100
-9.18903e-102
-5.62703e-103
-2.35e-104
-6.54481e-106
-1.18567e-107
-1.36249e-109
-9.69801e-112
-4.18882e-114
-1.08165e-116
-1.6526e-119
-1.48066e-122
-7.67922e-126
-2.24792e-129
-3.5316e-133
-2.69759e-137
-8.12949e-142
-5.57478e-147
-1.92968e-97
-4.67965e-98
-8.1351e-99
-1.00972e-99
-8.88037e-101
-5.45758e-102
-2.29846e-103
-6.48967e-105
-1.19885e-106
-1.41345e-108
-1.0386e-110
-4.65684e-113
-1.25348e-115
-2.00017e-118
-1.87e-121
-1.00807e-124
-3.0459e-128
-4.88983e-132
-3.76573e-136
-1.12435e-140
-7.43873e-146
-1.89292e-96
-4.53664e-97
-7.82028e-98
-9.6631e-99
-8.49519e-100
-5.24172e-101
-2.22708e-102
-6.37773e-104
-1.20194e-105
-1.45469e-107
-1.10415e-109
-5.14352e-112
-1.44489e-114
-2.41212e-117
-2.35889e-120
-1.32595e-123
-4.15159e-127
-6.84168e-131
-5.33909e-135
-1.58777e-139
-1.01928e-144
-1.83508e-95
-4.34798e-96
-7.43472e-97
-9.14889e-98
-8.04297e-99
-4.98446e-100
-2.13739e-101
-6.21066e-103
-1.19459e-104
-1.48486e-106
-1.16485e-108
-5.64174e-111
-1.65574e-113
-2.89635e-116
-2.96943e-119
-1.7458e-122
-5.6866e-126
-9.66614e-130
-7.68674e-134
-2.2913e-138
-1.43792e-143
-1.75773e-94
-4.11891e-95
-6.9888e-96
-8.56789e-97
-7.53491e-98
-4.69191e-99
-2.03137e-100
-5.99162e-102
-1.17671e-103
-1.5028e-105
-1.21908e-107
-6.14274e-110
-1.88516e-112
-3.46024e-115
-3.72681e-118
-2.29835e-121
-7.81841e-125
-1.37748e-128
-1.1229e-132
-3.37884e-137
-2.09108e-142
-1.66313e-93
-3.85589e-94
-6.49451e-95
-7.93495e-96
-6.98343e-97
-4.37098e-98
-1.91145e-99
-5.72514e-101
-1.14849e-102
-1.50763e-104
-1.26521e-106
-6.63616e-109
-2.13135e-111
-4.11001e-114
-4.65895e-117
-3.02198e-120
-1.07754e-123
-1.97722e-127
-1.66232e-131
-5.08743e-136
-3.13508e-141
-1.55404e-92
-3.56627e-93
-5.96486e-94
-7.26585e-95
-6.40173e-96
-4.02914e-97
-1.78036e-98
-5.41704e-100
-1.11038e-101
-1.49876e-103
-1.30167e-105
-7.11024e-108
-2.39148e-110
-4.85e-113
-5.79577e-116
-3.96365e-119
-1.48651e-122
-2.85401e-126
-2.48964e-130
-7.80957e-135
-4.84129e-140
-1.43367e-91
-3.25793e-92
-5.41333e-93
-6.57663e-94
-5.80319e-95
-3.67412e-96
-1.64105e-97
-5.07416e-99
-1.06315e-100
-1.47599e-102
-1.32707e-104
-7.55218e-107
-2.66157e-109
-5.68178e-112
-7.16792e-115
-5.17963e-118
-2.04959e-121
-4.13529e-125
-3.76474e-129
-1.21969e-133
-7.68545e-139
-1.30547e-90
-2.93897e-91
-4.85324e-92
-5.88291e-93
-5.20087e-94
-3.3136e-95
-1.49658e-96
-4.70412e-98
-1.00777e-99
-1.43949e-101
-1.34022e-103
-7.94851e-106
-2.93649e-108
-6.60327e-111
-8.80492e-114
-6.73552e-117
-2.82004e-120
-6.00316e-124
-5.73498e-128
-1.93314e-132
-1.25079e-137
-1.17296e-89
-2.61731e-90
-4.29726e-91
-5.19931e-92
-4.607e-93
-2.95491e-94
-1.34999e-95
-4.31509e-97
-9.45484e-99
-1.38984e-100
-1.34026e-102
-8.2857e-105
-3.20991e-107
-7.60775e-110
-1.07327e-112
-8.7055e-116
-3.86602e-119
-8.71427e-123
-8.77982e-127
-3.10044e-131
-2.07994e-136
-1.0396e-88
-2.30035e-89
-3.75685e-90
-4.5389e-91
-4.03259e-92
-2.6048e-93
-1.2042e-94
-3.91539e-96
-8.77679e-98
-1.32802e-99
-1.32666e-101
-8.55076e-104
-3.47452e-106
-8.68313e-109
-1.29705e-111
-1.11702e-114
-5.27273e-118
-1.26245e-121
-1.3475e-125
-5.01655e-130
-3.52071e-135
-9.08617e-88
-1.99469e-88
-3.24195e-89
-3.91281e-90
-3.48704e-91
-2.26921e-92
-1.06191e-93
-3.51324e-95
-8.05881e-97
-1.25538e-98
-1.29933e-100
-8.73204e-103
-3.72216e-105
-9.81128e-108
-1.55271e-110
-1.42129e-113
-7.14384e-117
-1.8218e-120
-2.06821e-124
-8.16301e-129
-6.04211e-134
-7.82842e-87
-1.70593e-87
-2.76061e-88
-3.32995e-89
-2.97795e-90
-1.95311e-91
-9.25488e-93
-3.11642e-94
-7.31675e-96
-1.17362e-97
-1.25862e-99
-8.8199e-102
-3.94422e-104
-1.09678e-106
-1.83972e-109
-1.79141e-112
-9.60165e-116
-2.61393e-119
-3.16699e-123
-1.33172e-127
-1.04705e-132
-6.64657e-86
-1.43845e-86
-2.31891e-87
-2.79684e-88
-2.51096e-89
-1.66037e-90
-7.96932e-92
-2.73205e-93
-6.56648e-95
-1.08467e-96
-1.20534e-98
-8.80742e-101
-4.13199e-103
-1.2122e-105
-2.15573e-108
-2.23437e-111
-1.2785e-114
-3.72255e-118
-4.82718e-122
-2.17168e-126
-1.8249e-131
-5.55895e-85
-1.19544e-85
-1.92086e-86
-2.31763e-87
-2.08978e-88
-1.39374e-89
-6.77813e-91
-2.36628e-92
-5.82327e-94
-9.90663e-96
-1.14074e-97
-8.69102e-100
-4.27722e-102
-1.32379e-104
-2.49623e-107
-2.75512e-110
-1.68443e-113
-5.25328e-117
-7.30806e-121
-3.52991e-125
-3.18686e-130
-4.57823e-84
-9.78785e-85
-1.56852e-85
-1.89421e-86
-1.71619e-87
-1.15487e-88
-5.69253e-90
-2.02418e-91
-5.10119e-93
-8.93819e-95
-1.06647e-96
-8.47092e-99
-4.3726e-101
-1.42756e-103
-2.85431e-106
-3.35549e-109
-2.19329e-112
-7.33506e-116
-1.09674e-119
-5.70387e-124
-5.55641e-129
-3.71146e-83
-7.89237e-84
-1.26214e-84
-1.52644e-85
-1.39029e-86
-9.44343e-88
-4.71932e-89
-1.70964e-90
-4.41263e-92
-7.96352e-94
-9.84487e-96
-8.15131e-98
-4.41235e-100
-1.51927e-102
-3.2206e-105
-4.03295e-108
-2.81939e-111
-1.01192e-114
-1.62856e-118
-9.14026e-123
-9.6409e-128
-2.96052e-82
-6.26484e-83
-1.00042e-83
-1.21241e-84
-1.11068e-85
-7.61815e-87
-3.86106e-88
-1.42526e-89
-3.76788e-91
-7.00373e-93
-8.97003e-95
-7.74039e-97
-4.39268e-99
-1.59475e-101
-3.58343e-104
-4.77952e-107
-3.57424e-110
-1.37752e-113
-2.38871e-117
-1.44933e-121
-1.65977e-126
-2.32274e-81
-4.89342e-82
-7.80808e-83
-9.4883e-84
-8.74753e-85
-6.06143e-86
-3.11652e-87
-1.17245e-88
-3.17491e-90
-6.07807e-92
-8.06351e-94
-7.25005e-96
-4.31221e-98
-1.65013e-100
-3.92915e-103
-5.58088e-106
-4.46448e-109
-1.84814e-112
-3.45558e-116
-2.2695e-120
-2.82765e-125
-1.79178e-80
-3.75952e-81
-5.99819e-82
-7.31396e-83
-6.79013e-84
-4.75556e-85
-2.48124e-86
-9.51474e-88
-2.6392e-89
-5.20313e-91
-7.14876e-93
-6.69531e-95
-4.17222e-97
-1.68217e-99
-4.24293e-102
-6.41588e-105
-5.48944e-108
-2.44106e-111
-4.92341e-115
-3.50315e-119
-4.75579e-124
-1.35863e-79
-2.83978e-80
-4.53349e-81
-5.5513e-82
-5.19344e-83
-3.67826e-84
-1.94815e-85
-7.61569e-87
-2.16377e-88
-4.39232e-90
-6.24819e-92
-6.09354e-94
-3.97673e-96
-1.68858e-98
-4.50956e-101
-7.25672e-104
-6.63885e-107
-3.17093e-110
-6.89998e-114
-5.32174e-118
-7.87989e-123
-1.01254e-78
-2.10815e-79
-3.36981e-80
-4.1474e-81
-3.91311e-82
-2.80439e-83
-1.50829e-84
-6.01142e-86
-1.74932e-87
-3.65547e-89
-5.38215e-91
-5.46345e-93
-3.73233e-95
-1.66818e-97
-4.71468e-100
-8.06984e-103
-7.89089e-106
-4.04717e-109
-9.50091e-113
-7.94479e-117
-1.28383e-121
-7.41947e-78
-1.53762e-78
-2.46244e-79
-3.04906e-80
-2.90409e-81
-2.1075e-82
-1.15148e-83
-4.67943e-85
-1.39447e-86
-2.99875e-88
-4.56796e-90
-4.8241e-92
-3.44785e-94
-1.62118e-96
-4.84595e-99
-8.8177e-102
-9.21103e-105
-5.07103e-108
-1.28398e-111
-1.16407e-115
-2.05337e-120
-5.35295e-77
-1.10175e-77
-1.76833e-78
-2.20521e-79
-2.12265e-80
-1.5612e-81
-8.66952e-83
-3.59268e-84
-1.09614e-85
-2.42477e-87
-3.81933e-89
-4.19374e-91
-3.13383e-93
-1.54914e-95
-4.89432e-98
-9.46135e-101
-1.05521e-103
-6.23262e-107
-1.70143e-110
-1.672e-114
-3.21932e-119
-3.81696e-76
-7.75854e-77
-1.24763e-77
-1.56869e-78
-1.52804e-79
-1.14026e-80
-6.43953e-82
-2.7215e-83
-8.49877e-85
-1.93282e-86
-3.1459e-88
-3.58885e-90
-2.80182e-92
-1.45498e-94
-4.85497e-97
-9.96363e-100
-1.18562e-102
-7.50843e-106
-2.20875e-109
-2.35175e-113
-4.94122e-118
-2.71438e-75
-5.37815e-76
-8.6483e-77
-1.09743e-77
-1.08351e-78
-8.21457e-80
-4.72159e-81
-2.03534e-82
-6.50314e-84
-1.51943e-85
-2.55319e-87
-3.02331e-89
-2.46361e-91
-1.34278e-93
-4.72811e-96
-1.02928e-98
-1.30577e-101
-8.86001e-105
-2.80676e-108
-3.23617e-112
-7.41613e-117
-1.9637e-74
-3.68596e-75
-5.89316e-76
-7.55072e-77
-7.57004e-78
-5.84084e-79
-3.42047e-80
-1.50431e-81
-4.91553e-83
-1.17885e-84
-2.04277e-86
-2.50778e-88
-2.13052e-90
-1.21747e-92
-4.51919e-95
-1.04259e-97
-1.40888e-100
-1.02342e-103
-3.48875e-107
-4.3529e-111
-1.08729e-115
-1.50177e-73
-2.52462e-74
-3.9554e-75
-5.11137e-76
-5.21368e-77
-4.10268e-78
-2.45124e-79
-1.10033e-80
-3.67537e-82
-9.03739e-84
-1.61267e-85
-2.04941e-87
-1.81259e-89
-1.08451e-91
-4.2387e-94
-1.03519e-96
-1.48858e-99
-1.15654e-102
-4.2389e-106
-5.71868e-110
-1.55574e-114
-1.28607e-72
-1.77005e-73
-2.62872e-74
-3.40794e-75
-3.54243e-76
-2.85019e-77
-1.74058e-78
-7.98014e-80
-2.72368e-81
-6.85814e-83
-1.25802e-84
-1.65179e-86
-1.51808e-88
-9.49436e-91
-3.90136e-93
-1.00734e-95
-1.53961e-98
-1.27807e-101
-5.03153e-105
-7.33291e-109
-2.17069e-113
-1.29719e-71
-1.33034e-72
-1.7522e-73
-2.24399e-74
-2.37728e-75
-1.9612e-76
-1.22702e-77
-5.75198e-79
-2.0055e-80
-5.16414e-82
-9.71769e-84
-1.31517e-85
-1.25306e-87
-8.17435e-90
-3.52493e-92
-9.60698e-95
-1.55852e-97
-1.38064e-100
-5.83169e-104
-9.17183e-108
-2.95128e-112
-1.54214e-70
-1.14439e-71
-1.20538e-72
-1.46862e-73
-1.57878e-74
-1.3389e-75
-8.6059e-77
-4.13141e-78
-1.47166e-79
-3.87039e-81
-7.45434e-83
-1.03694e-84
-1.02123e-86
-6.93004e-89
-3.12864e-91
-8.9826e-94
-1.54413e-96
-1.45762e-99
-6.59742e-103
-1.11844e-106
-3.9075e-111
-2.05941e-69
-1.18082e-70
-9.03005e-72
-9.69598e-73
-1.04125e-73
-9.08643e-75
-6.01831e-76
-2.96507e-77
-1.07976e-78
-2.89762e-80
-5.69889e-82
-8.12221e-84
-8.2394e-86
-5.79649e-88
-2.73149e-90
-8.24045e-93
-1.49786e-95
-1.50404e-98
-7.28363e-102
-1.32915e-105
-5.03544e-110
-2.92645e-68
-1.43785e-69
-7.90244e-71
-6.66569e-72
-6.86804e-73
-6.14395e-74
-4.20444e-75
-2.13138e-76
-7.94545e-78
-2.17513e-79
-4.36011e-81
-6.34617e-83
-6.60463e-85
-4.79714e-87
-2.35062e-89
-7.42724e-92
-1.4237e-94
-1.51732e-97
-7.84737e-101
-1.53904e-104
-6.31326e-109
-4.27019e-67
-1.94475e-68
-8.38817e-70
-5.04973e-71
-4.59769e-72
-4.15217e-73
-2.9383e-74
-1.53694e-75
-5.8776e-77
-1.64257e-78
-3.35222e-80
-4.96882e-82
-5.28342e-84
-3.94337e-86
-1.99997e-88
-6.59131e-91
-1.32781e-93
-1.49777e-96
-8.25384e-100
-1.73639e-103
-7.69936e-108
-6.28052e-66
-2.7647e-67
-1.0444e-68
-4.50947e-70
-3.21743e-71
-2.81987e-72
-2.05584e-73
-1.11218e-74
-4.37516e-76
-1.25046e-77
-2.59884e-79
-3.91605e-81
-4.23899e-83
-3.23525e-85
-1.68929e-87
-5.77782e-90
-1.21787e-92
-1.44875e-95
-8.48205e-99
-1.90953e-102
-9.13382e-107
-9.22655e-65
-3.99882e-66
-1.42529e-67
-4.87367e-69
-2.47496e-70
-1.94548e-71
-1.441e-72
-8.06835e-74
-3.27473e-75
-9.5995e-77
-2.03531e-78
-3.11752e-80
-3.4274e-82
-2.6633e-84
-1.42378e-86
-5.02431e-89
-1.10216e-91
-1.37633e-94
-8.52907e-98
-2.04855e-101
-1.05441e-105
-1.34763e-63
-5.79014e-65
-2.02207e-66
-6.10973e-68
-2.21759e-69
-1.39369e-70
-1.01368e-71
-5.85583e-73
-2.4585e-74
-7.41788e-76
-1.60958e-77
-2.51075e-79
-2.80259e-81
-2.21103e-83
-1.20417e-85
-4.35747e-88
-9.88576e-91
-1.28859e-93
-8.41178e-97
-2.1472e-100
-1.18549e-104
-1.92558e-62
-8.32465e-64
-2.89769e-65
-8.30318e-67
-2.36803e-68
-1.07716e-69
-7.19658e-71
-4.24199e-72
-1.84437e-73
-5.74876e-75
-1.28186e-76
-2.04356e-78
-2.32059e-80
-1.85776e-82
-1.02739e-84
-3.79144e-87
-8.83728e-90
-1.19446e-92
-8.16534e-96
-2.2042e-99
-1.30016e-103
-2.71241e-61
-1.18411e-62
-4.13694e-64
-1.16416e-65
-2.90663e-67
-9.42913e-69
-5.22947e-70
-3.06332e-71
-1.37671e-72
-4.44645e-74
-1.02333e-75
-1.67507e-77
-1.94271e-79
-1.58148e-81
-8.87484e-84
-3.32785e-86
-7.92198e-89
-1.10254e-91
-7.83835e-95
-2.22399e-98
-1.39437e-102
-3.75125e-60
-1.66034e-61
-5.8428e-63
-1.63966e-64
-3.85778e-66
-9.62427e-68
-4.00038e-69
-2.21007e-70
-1.01848e-71
-3.41429e-73
-8.14317e-75
-1.3754e-76
-1.63751e-78
-1.3613e-80
-7.76875e-83
-2.95747e-85
-7.16156e-88
-1.01983e-90
-7.48517e-94
-2.21631e-97
-1.46765e-101
-2.2794e-60
-8.12837e-62
-2.28977e-63
-5.27785e-65
-1.12448e-66
-3.35882e-68
-1.60786e-69
-7.44987e-71
-2.58986e-72
-6.42151e-74
-1.12432e-75
-1.38152e-77
-1.17929e-79
-6.87514e-82
-2.66314e-84
-6.5534e-87
-9.50797e-90
-7.15681e-93
-2.19463e-96
-1.52365e-100
-3.0625e-59
-1.11087e-60
-3.14892e-62
-7.24192e-64
-1.42945e-65
-3.21107e-67
-1.20502e-68
-5.39251e-70
-1.93289e-71
-4.99121e-73
-9.09376e-75
-1.15898e-76
-1.02165e-78
-6.11972e-81
-2.42343e-83
-6.07404e-86
-8.96828e-89
-6.89186e-92
-2.17367e-95
-1.56977e-99
-1.48165e-59
-4.24616e-61
-9.82698e-63
-1.8841e-64
-3.50023e-66
-9.64311e-68
-3.88863e-69
-1.41605e-70
-3.8065e-72
-7.23724e-74
-9.60663e-76
-8.79039e-78
-5.44221e-80
-2.21644e-82
-5.68564e-85
-8.56273e-88
-6.70959e-91
-2.16631e-94
-1.61578e-98
-1.93358e-58
-5.60161e-60
-1.3091e-61
-2.49594e-63
-4.19035e-65
-8.57632e-67
-2.84045e-68
-1.01874e-69
-2.83863e-71
-5.64073e-73
-7.82352e-75
-7.46306e-77
-4.8009e-79
-2.0231e-81
-5.34407e-84
-8.24977e-87
-6.60649e-90
-2.18063e-93
-1.67162e-97
-2.46123e-57
-7.21094e-59
-1.70438e-60
-3.26665e-62
-5.25158e-64
-8.62404e-66
-2.16552e-67
-7.23352e-69
-2.06585e-70
-4.28936e-72
-6.23037e-74
-6.21682e-76
-4.17354e-78
-1.82956e-80
-5.00723e-83
-7.97246e-86
-6.55724e-89
-2.21768e-92
-1.74474e-96
-3.04941e-56
-9.03747e-58
-2.16188e-59
-4.18501e-61
-6.64515e-63
-9.58769e-65
-1.79101e-66
-5.13413e-68
-1.46743e-69
-3.17342e-71
-4.83321e-73
-5.05731e-75
-3.55515e-77
-1.6283e-79
-4.64217e-82
-7.67047e-85
-6.52006e-88
-2.2707e-91
-1.83752e-95
-3.67013e-55
-1.10038e-56
-2.66463e-58
-5.22003e-60
-8.30852e-62
-1.12705e-63
-1.65055e-65
-3.73035e-67
-1.02098e-68
-2.28032e-70
-3.64111e-72
-4.00226e-74
-2.95361e-76
-1.41814e-78
-4.22973e-81
-7.29196e-84
-6.44541e-87
-2.32589e-90
-1.94558e-94
-4.28249e-54
-1.29886e-55
-3.18386e-57
-6.31595e-59
-1.01428e-60
-1.34545e-62
-1.68207e-64
-2.86965e-66
-7.02197e-68
-1.59108e-69
-2.65751e-71
-3.0716e-73
-2.38419e-75
-1.20305e-77
-3.76622e-80
-6.80317e-83
-6.28628e-86
-2.36494e-89
-2.05752e-93
-4.83515e-53
-1.4832e-54
-3.67948e-56
-7.39122e-58
-1.20062e-59
-1.58837e-61
-1.82607e-63
-2.40877e-65
-4.85789e-67
-1.08018e-68
-1.87603e-70
-2.28018e-72
-1.86407e-74
-9.90371e-77
-3.26213e-79
-6.1938e-82
-6.00783e-85
-2.36862e-88
-2.15624e-92
-5.27184e-52
-1.63504e-53
-4.10325e-55
-8.34317e-57
-1.37172e-58
-1.82587e-60
-2.02447e-62
-2.21673e-64
-3.47019e-66
-7.17556e-68
-1.27991e-69
-1.63372e-71
-1.40789e-73
-7.88703e-76
-2.73827e-78
-5.4776e-81
-5.59447e-84
-2.32082e-87
-2.22192e-91
-5.53943e-51
-1.73614e-52
-4.40484e-54
-9.05942e-56
-1.50704e-57
-2.02501e-59
-2.22089e-61
-2.17721e-63
-2.63113e-65
-4.71526e-67
-8.44298e-69
-1.12773e-70
-1.0248e-72
-6.06003e-75
-2.22073e-77
-4.68815e-80
-5.0528e-83
-2.21205e-86
-2.23592e-90
-5.59735e-50
-1.77151e-51
-4.54003e-53
-9.43531e-55
-1.58651e-56
-2.15316e-58
-2.36311e-60
-2.1909e-62
-2.14346e-64
-3.11697e-66
-5.39701e-68
-7.48877e-70
-7.17355e-72
-4.48168e-74
-1.73542e-76
-3.87132e-79
-4.40994e-82
-2.04162e-85
-2.18484e-89
-5.42631e-49
-1.73252e-50
-4.47972e-52
-9.39438e-54
-1.59419e-55
-2.18302e-57
-2.4076e-59
-2.17857e-61
-1.84754e-63
-2.11262e-65
-3.35822e-67
-4.77884e-69
-4.81884e-71
-3.18289e-73
-1.30363e-75
-3.07614e-78
-3.7079e-81
-1.81792e-84
-2.06363e-88
-5.03404e-48
-1.61926e-49
-4.21745e-51
-8.90739e-53
-1.5221e-54
-2.09836e-56
-2.32568e-58
-2.08491e-60
-1.62501e-62
-1.48464e-64
-2.04726e-66
-2.92807e-68
-3.09974e-70
-2.16578e-72
-9.39141e-75
-2.3463e-77
-2.99542e-80
-1.55688e-83
-1.87707e-87
-4.45606e-47
-1.44138e-48
-3.77319e-50
-8.00441e-52
-1.37298e-53
-1.89891e-55
-2.10935e-57
-1.88256e-59
-1.40007e-61
-1.07222e-63
-1.22988e-65
-1.72087e-67
-1.9047e-69
-1.40848e-71
-6.47293e-74
-1.71381e-76
-2.31923e-79
-1.27891e-82
-1.63914e-86
-3.75088e-46
-1.21699e-47
-3.19205e-49
-6.77564e-51
-1.16124e-52
-1.60277e-54
-1.77492e-56
-1.57436e-58
-1.13814e-60
-7.7041e-63
-7.27124e-65
-9.67635e-67
-1.11456e-68
-8.73019e-71
-4.25753e-73
-1.19588e-75
-1.71687e-78
-1.00515e-81
-1.37036e-85
-2.99011e-45
-9.69699e-47
-2.5372e-48
-5.35898e-50
-9.1133e-52
-1.245e-53
-1.36218e-55
-1.19207e-57
-8.41385e-60
-5.23803e-62
-4.15442e-64
-5.16894e-66
-6.18309e-68
-5.14009e-70
-2.66478e-72
-7.95098e-75
-1.21212e-77
-7.53948e-81
-1.09395e-84
-2.24603e-44
-7.24447e-46
-1.87877e-47
-3.91583e-49
-6.5353e-51
-8.71916e-53
-9.27926e-55
-7.89357e-57
-5.39883e-59
-3.15521e-61
-2.19178e-63
-2.57999e-65
-3.22931e-67
-2.86256e-69
-1.58188e-71
-5.02227e-74
-8.13952e-77
-5.38314e-80
-8.31723e-84
-1.57946e-43
-5.0309e-45
-1.28086e-46
-2.60001e-48
-4.17885e-50
-5.31437e-52
-5.3348e-54
-4.28447e-56
-2.77682e-58
-1.52414e-60
-9.79341e-63
-1.16563e-64
-1.57155e-66
-1.49985e-68
-8.87117e-71
-3.00383e-73
-5.18304e-76
-3.64825e-79
-6.00589e-83
-1.03096e-42
-3.20894e-44
-7.90132e-46
-1.52708e-47
-2.2753e-49
-2.61419e-51
-2.27859e-53
-1.61718e-55
-9.44829e-58
-4.75543e-60
-3.14276e-62
-4.55161e-64
-7.03827e-66
-7.34618e-68
-4.67767e-70
-1.69447e-72
-3.11884e-75
-2.3394e-78
-4.10662e-82
-6.17299e-42
-1.84727e-43
-4.28748e-45
-7.52001e-47
-9.32564e-49
-7.91995e-51
-3.04733e-53
-1.33947e-55
-6.95679e-58
-3.13526e-60
-5.07083e-62
-1.50129e-63
-2.87737e-65
-3.33949e-67
-2.30556e-69
-8.97181e-72
-1.76615e-74
-1.41412e-77
-2.6498e-81
-3.33269e-41
-9.32726e-43
-1.93363e-44
-2.62463e-46
-1.14709e-48
-4.72204e-64
8.67553e-55
-4.22138e-70
-1.06341e-65
-3.75581e-69
-9.23058e-62
-4.65795e-63
-1.07071e-64
-1.39463e-66
-1.05357e-68
-4.43066e-71
-9.36376e-74
-8.02246e-77
-1.60704e-80
-1.57794e-40
-3.90052e-42
-6.03247e-44
-1.55799e-55
-1.40122e-57
1.13056e-50
1.85741e-52
2.25321e-55
1.36101e-58
6.46083e-62
-7.31988e-70
-1.04212e-62
-3.39886e-64
-5.21374e-66
-4.40152e-68
-2.02217e-70
-4.61631e-73
-4.24763e-76
-9.11649e-80
-6.19655e-40
-1.11921e-41
-2.34172e-53
6.00787e-47
2.00821e-47
1.18523e-48
2.54369e-50
3.39183e-53
2.26791e-56
1.20231e-59
4.91612e-63
-6.28924e-71
-7.72628e-64
-1.65512e-65
-1.63972e-67
-8.40678e-70
-2.09566e-72
-2.08352e-75
-4.80801e-79
-1.67761e-39
-3.5622e-48
3.17732e-44
1.54728e-44
1.73575e-45
1.37072e-46
3.53693e-48
5.18919e-51
3.84722e-54
2.28137e-57
1.05451e-60
3.6728e-64
-4.83199e-72
-3.66706e-65
-5.1302e-67
-3.09534e-69
-8.61985e-72
-9.36582e-75
-2.33811e-78
-5.48037e-46
6.60986e-42
5.23608e-42
1.35895e-42
1.9394e-43
1.60522e-44
4.99808e-46
8.08134e-49
6.65375e-52
4.42011e-55
2.31227e-58
9.23177e-62
2.69626e-65
-4.35489e-73
-1.04305e-66
-9.3579e-69
-3.10463e-71
-3.78536e-74
-1.0353e-77
1.01671e-39
9.13979e-40
4.46355e-40
1.394e-40
2.19815e-41
1.90388e-42
7.185e-44
1.28241e-46
1.17446e-49
8.7537e-53
5.19041e-56
2.37831e-59
8.1048e-63
1.94638e-66
-3.43357e-74
-1.48379e-68
-8.77042e-71
-1.31417e-73
-4.0746e-77
1.10013e-37
7.91796e-38
4.26891e-38
1.44985e-38
2.51726e-39
2.28907e-40
5.18071e-41
1.05557e-41
1.53962e-47
1.24133e-50
7.98072e-54
3.97519e-57
1.47709e-60
3.88515e-64
6.69035e-68
-1.40438e-75
-6.42926e-71
-3.28979e-73
-1.33409e-76
9.31634e-36
7.0843e-36
4.12423e-36
1.5191e-36
2.91608e-37
4.89784e-37
3.79611e-37
9.95925e-40
9.33537e-46
7.87191e-49
5.29002e-52
2.75266e-55
1.0681e-58
2.94008e-62
6.73594e-65
3.10638e-68
4.47387e-72
-1.09501e-73
-2.98648e-76
7.76644e-34
6.38188e-34
4.03598e-34
1.61105e-34
6.12081e-34
8.53672e-34
8.70074e-36
2.97481e-40
1.80212e-43
1.91493e-46
1.62835e-49
1.11624e-52
5.87838e-56
2.31764e-59
6.60718e-63
1.23075e-66
1.31124e-70
6.27948e-75
-3.75479e-76
6.64203e-32
5.85807e-32
3.95836e-32
3.02223e-31
6.64143e-31
1.07711e-32
6.25168e-37
3.23658e-40
4.21502e-43
4.5516e-46
3.94164e-49
2.61193e-52
1.42405e-55
5.63366e-59
1.5975e-62
3.0495e-66
3.25897e-70
1.64999e-74
-3.03715e-76
5.76466e-30
5.2211e-30
7.81911e-29
2.48217e-28
6.03859e-30
5.34499e-34
2.5609e-37
3.98733e-40
5.22739e-43
5.5397e-46
5.12746e-49
3.60468e-52
1.14754e-55
1.10641e-60
1.98503e-64
2.07507e-68
9.99513e-73
2.30013e-75
-3.11998e-76
4.88522e-28
1.09993e-26
4.8342e-26
1.86624e-27
2.62175e-31
1.04723e-34
1.99083e-37
3.14724e-40
4.1069e-43
5.70584e-46
3.59101e-49
1.66083e-52
1.27593e-55
3.54324e-59
4.776e-63
3.45838e-67
9.61579e-72
4.02543e-77
-7.60435e-85
1.01078e-24
5.42484e-24
2.94169e-25
6.04428e-29
2.08535e-32
4.63738e-35
9.04163e-38
1.4508e-40
3.98497e-43
9.54307e-46
1.20194e-47
5.03647e-50
4.66704e-53
5.3402e-54
2.51282e-60
2.36664e-64
9.84972e-69
9.65948e-74
4.02543e-77
4.16108e-22
2.81414e-23
7.89529e-27
2.54593e-30
6.9488e-33
1.54137e-35
3.07853e-38
5.68719e-41
8.50654e-42
2.74174e-42
1.28602e-45
1.20194e-47
2.30832e-47
1.24503e-50
6.49447e-58
6.79377e-62
3.22114e-66
3.77545e-71
9.65948e-74
1.9261e-21
7.29895e-25
2.28279e-28
6.76559e-31
1.89804e-33
4.25194e-36
8.66606e-39
2.06471e-41
7.36354e-42
7.23101e-41
1.86471e-43
1.72898e-42
2.64368e-45
1.99622e-52
3.70851e-56
3.98634e-60
2.13432e-62
4.06309e-66
1.24085e-70
3.33045e-23
1.19251e-26
1.82699e-28
2.30657e-31
4.99059e-34
9.64737e-37
1.76235e-39
7.36265e-42
7.36354e-42
7.36354e-42
3.3372e-28
3.32802e-28
3.32565e-28
8.69696e-30
2.7865e-35
1.10731e-37
5.69882e-38
-8.9107e-105
-2.39068e-105
-4.48852e-106
-5.85408e-107
-5.25988e-108
-3.2042e-109
-1.29396e-110
-3.3775e-112
-5.54381e-114
-5.57189e-116
-3.35285e-118
-1.19037e-120
-2.48492e-123
-3.0669e-126
-2.25635e-129
-9.92277e-133
-2.57775e-136
-3.80742e-140
-2.9345e-144
-9.7414e-149
-8.15975e-154
-9.41764e-104
-2.4917e-104
-4.62856e-105
-5.9953e-106
-5.37074e-107
-3.27572e-108
-1.33055e-109
-3.51087e-111
-5.85699e-113
-6.01589e-115
-3.71823e-117
-1.361e-119
-2.93365e-122
-3.73411e-125
-2.82265e-128
-1.26821e-131
-3.34283e-135
-4.97072e-139
-3.82175e-143
-1.2491e-147
-1.02817e-152
-9.84859e-103
-2.57037e-103
-4.72553e-104
-6.08099e-105
-5.43331e-106
-3.31925e-107
-1.3567e-108
-3.62076e-110
-6.1429e-112
-6.45304e-114
-4.10078e-116
-1.54968e-118
-3.4555e-121
-4.54641e-124
-3.53978e-127
-1.62861e-130
-4.3627e-134
-6.53387e-138
-5.00654e-142
-1.61055e-146
-1.31242e-151
-1.01892e-101
-2.62396e-102
-4.77591e-103
-6.10784e-104
-5.44508e-105
-3.33316e-106
-1.37155e-107
-3.70405e-109
-6.39468e-111
-6.87527e-113
-4.49643e-115
-1.75654e-117
-4.05888e-120
-5.53249e-123
-4.44838e-126
-2.10138e-129
-5.73424e-133
-8.66347e-137
-6.61991e-141
-2.09549e-145
-1.63641e-150
-1.04273e-100
-2.65042e-101
-4.77746e-102
-6.07415e-103
-5.40492e-104
-3.31658e-105
-1.3745e-106
-3.75811e-108
-6.60577e-110
-7.27393e-112
-4.90007e-114
-1.98118e-116
-4.75186e-119
-6.72478e-122
-5.59851e-125
-2.72318e-128
-7.59015e-132
-1.15928e-135
-8.84283e-140
-2.75273e-144
-2.05779e-149
-1.05534e-99
-2.64848e-100
-4.72937e-101
-5.97999e-102
-5.31316e-103
-3.26945e-104
-1.36526e-105
-3.78099e-107
-6.77023e-109
-7.6401e-111
-5.30566e-113
-2.22265e-115
-5.5421e-118
-8.16018e-121
-7.05278e-124
-3.54316e-127
-1.01192e-130
-1.567e-134
-1.19575e-138
-3.66249e-143
-2.62362e-148
-1.05616e-98
-2.61777e-99
-4.63239e-100
-5.82723e-101
-5.1716e-102
-3.19257e-103
-1.34385e-104
-3.77141e-106
-6.88284e-108
-7.96477e-110
-5.70617e-112
-2.47927e-114
-6.43597e-117
-9.87917e-120
-8.88771e-123
-4.62631e-126
-1.35871e-129
-2.14109e-133
-1.64018e-137
-4.95695e-142
-3.40942e-147
-1.04495e-97
-2.55883e-98
-4.48876e-99
-5.6195e-100
-4.98348e-101
-3.08754e-102
-1.31061e-103
-3.72893e-105
-6.93944e-107
-8.23911e-109
-6.09367e-111
-2.74857e-113
-7.43789e-116
-1.19247e-118
-1.11952e-121
-6.05745e-125
-1.83638e-128
-2.95718e-132
-2.284e-136
-6.83892e-141
-4.5381e-146
-1.02189e-96
-2.47312e-97
-4.30218e-98
-5.36202e-99
-4.75335e-100
-2.95676e-101
-1.2662e-102
-3.65392e-104
-6.93708e-106
-8.45485e-108
-6.45953e-110
-3.02714e-112
-8.54956e-115
-1.43411e-117
-1.4084e-120
-7.94657e-124
-2.49654e-127
-4.12706e-131
-3.23013e-135
-9.63344e-140
-6.20245e-145
-9.87553e-96
-2.36297e-96
-4.07765e-97
-5.06145e-98
-4.48689e-99
-2.80328e-100
-1.2116e-101
-3.54764e-103
-6.87423e-105
-8.60464e-107
-6.79462e-109
-3.31069e-111
-9.76909e-114
-1.71716e-116
-1.76805e-119
-1.04346e-122
-3.41058e-126
-5.81567e-130
-4.63847e-134
-1.38662e-138
-8.72713e-144
-9.42914e-95
-2.23146e-95
-3.82124e-96
-4.72553e-97
-4.1907e-98
-2.63076e-99
-1.14802e-100
-3.41218e-102
-6.75091e-104
-8.68237e-106
-7.08963e-108
-3.59398e-110
-1.10901e-112
-2.04558e-115
-2.21277e-118
-1.36994e-121
-4.6765e-125
-8.26566e-129
-6.75816e-133
-2.0394e-137
-1.26576e-142
-8.89268e-94
-2.08229e-94
-3.53981e-95
-4.36283e-96
-3.87198e-97
-2.44327e-98
-1.07693e-99
-3.25041e-101
-6.56873e-103
-8.68354e-105
-7.33541e-107
-3.87093e-109
-1.2501e-111
-2.42259e-114
-2.75829e-117
-1.7962e-120
-6.42743e-124
-1.18323e-127
-9.97786e-132
-3.06246e-136
-1.89257e-141
-8.28197e-93
-1.91962e-93
-3.24071e-94
-3.9823e-95
-3.5383e-96
-2.24514e-97
-9.99932e-99
-3.06587e-100
-6.33095e-102
-8.60556e-104
-7.52338e-106
-4.13471e-108
-1.39842e-110
-2.85024e-113
-3.42131e-116
-2.34916e-119
-8.84204e-123
-1.70321e-126
-1.4903e-130
-4.68831e-135
-2.91456e-140
-7.61481e-92
-1.74785e-92
-2.93147e-93
-3.59293e-94
-3.19722e-95
-2.04079e-96
-9.18756e-98
-2.86267e-99
-6.04234e-101
-8.44793e-103
-7.64595e-105
-4.37795e-107
-1.55155e-109
-3.32892e-112
-4.2187e-115
-3.0609e-118
-1.21565e-121
-2.46092e-125
-2.24732e-129
-7.30196e-134
-4.61394e-139
-6.91015e-91
-1.57142e-91
-2.61945e-92
-3.20339e-93
-2.85604e-94
-1.83457e-95
-8.35162e-97
-2.64533e-98
-5.70912e-100
-8.21243e-102
-7.69696e-104
-4.59303e-106
-1.70643e-108
-3.85685e-111
-5.16646e-114
-3.96854e-117
-1.66775e-120
-3.56229e-124
-3.41379e-128
-1.15408e-132
-7.48801e-138
-6.18714e-90
-1.39463e-90
-2.31152e-91
-2.8217e-92
-2.52154e-93
-1.63059e-94
-7.5088e-96
-2.41858e-97
-5.33865e-99
-7.90317e-101
-7.67204e-103
-4.77238e-105
-1.85936e-107
-4.42959e-110
-6.2782e-113
-5.11375e-116
-2.27958e-119
-5.15606e-123
-5.21131e-127
-1.84571e-131
-1.24165e-136
-5.46428e-89
-1.22146e-89
-2.01388e-90
-2.45491e-91
-2.19971e-92
-1.43257e-93
-6.67551e-95
-2.18721e-96
-4.93925e-98
-7.52648e-100
-7.56901e-102
-4.90886e-104
-2.0061e-106
-5.03957e-109
-7.56342e-112
-6.54139e-115
-3.09969e-118
-7.44762e-122
-7.97494e-126
-2.97782e-130
-2.09572e-135
-4.75854e-88
-1.0554e-88
-1.73177e-89
-2.10896e-90
-1.89559e-91
-1.24374e-92
-5.86668e-94
-1.9559e-95
-4.51981e-97
-7.09075e-99
-7.38813e-101
-4.9962e-103
-2.14199e-105
-5.67585e-108
-9.02543e-111
-8.29728e-114
-4.18683e-117
-1.07152e-120
-1.22043e-124
-4.83149e-129
-3.58621e-134
-4.08476e-87
-8.99342e-88
-1.46939e-88
-1.78848e-89
-1.6132e-90
-1.06677e-91
-5.09531e-93
-1.72899e-94
-4.08948e-96
-6.60614e-98
-7.1322e-100
-5.02936e-102
-2.26218e-104
-6.32396e-107
-1.06592e-109
-1.04249e-112
-5.60984e-116
-1.53276e-119
-1.86324e-123
-7.85899e-128
-6.19651e-133
-3.45508e-86
-7.55539e-87
-1.2298e-87
-1.49676e-88
-1.35539e-89
-9.03682e-91
-4.37212e-92
-1.51043e-93
-3.6573e-95
-6.08416e-97
-6.80659e-99
-5.00496e-101
-2.36182e-103
-6.9661e-106
-1.24491e-108
-1.29608e-111
-7.44622e-115
-2.1761e-118
-2.83139e-122
-1.27778e-126
-1.07682e-131
-2.87866e-85
-6.25538e-86
-1.01493e-86
-1.23578e-87
-1.12397e-88
-7.55846e-90
-3.70533e-91
-1.30355e-92
-3.23183e-94
-5.53718e-96
-6.41912e-98
-4.92158e-100
-2.43641e-102
-7.58159e-105
-1.43674e-107
-1.59293e-110
-9.7791e-114
-3.06133e-117
-4.27343e-121
-2.07068e-125
-1.87488e-130
-2.36157e-84
-5.10212e-85
-8.25636e-86
-1.00625e-86
-9.19646e-88
-6.24021e-89
-3.1006e-90
-1.11106e-91
-2.82088e-93
-4.97794e-95
-5.97973e-97
-4.77996e-99
-2.48203e-101
-8.14772e-104
-1.63728e-106
-1.93362e-109
-1.26921e-112
-4.26092e-116
-6.39335e-120
-3.33576e-124
-3.25913e-129
-1.90689e-83
-4.09803e-84
-6.61811e-85
-8.07814e-86
-7.42224e-87
-5.08378e-88
-2.56106e-89
-9.34972e-91
-2.4312e-92
-4.41896e-94
-5.50007e-96
-4.5831e-98
-2.49571e-100
-8.64089e-103
-1.84106e-105
-2.31621e-108
-1.62615e-111
-5.85933e-115
-9.46363e-119
-5.32895e-123
-5.63779e-128
-1.51495e-82
-3.24004e-83
-5.22524e-84
-6.39153e-85
-5.907e-86
-4.08577e-87
-2.08749e-88
-7.76556e-90
-2.06828e-91
-3.87203e-93
-4.99293e-95
-4.33623e-97
-2.47565e-99
-9.03806e-102
-2.04135e-104
-2.73563e-107
-2.05466e-110
-7.95025e-114
-1.38367e-117
-8.42353e-122
-9.67624e-127
-1.18378e-81
-2.52055e-82
-4.06194e-83
-4.98242e-84
-4.63435e-85
-3.2385e-86
-1.67859e-87
-6.36412e-89
-1.73625e-90
-3.34772e-92
-4.47166e-94
-4.04657e-96
-2.42145e-98
-9.31836e-101
-2.23041e-103
-3.18327e-106
-2.55774e-109
-1.06311e-112
-1.99518e-116
-1.31486e-120
-1.64338e-125
-9.09537e-81
-1.92854e-81
-3.10773e-82
-3.82534e-83
-3.58329e-84
-2.53102e-85
-1.33133e-86
-5.14502e-88
-1.43782e-89
-2.85498e-91
-3.94946e-93
-3.723e-95
-2.3342e-97
-9.46481e-100
-2.39993e-102
-3.64674e-105
-3.13418e-108
-1.39948e-111
-2.83338e-115