/*--------------------------------*- C++ -*----------------------------------*\
| =========                 |                                                 |
| \\      /  F ield         | OpenFOAM: The Open Source CFD Toolbox           |
|  \\    /   O peration     | Version:  v2012                                 |
|   \\  /    A nd           | Website:  www.openfoam.com                      |
|    \\/     M anipulation  |                                                 |
\*---------------------------------------------------------------------------*/
FoamFile
{
    version     2.0;
    format      ascii;
    class       volScalarField;
    location    "0.5";
    object      alpha.water;
}
// * * * * * * * * * * * * * * * * * * * * * * * * * * * * * * * * * * * * * //

dimensions      [0 0 0 0 0 0 0];


internalField   nonuniform List<scalar> 
3338
(
-2.34151e-73
-1.72064e-74
-9.45263e-76
-3.88909e-77
-1.2022e-78
-2.79517e-80
-4.87602e-82
-6.35473e-84
-6.14275e-86
-4.36383e-88
-2.25203e-90
-8.32282e-93
-2.16668e-95
-3.89598e-98
-4.72784e-101
-3.76696e-104
-1.90453e-107
-5.83329e-111
-1.00687e-114
-8.54661e-119
-2.51697e-123
-2.1231e-72
-1.58327e-73
-8.84327e-75
-3.7062e-76
-1.16918e-77
-2.77908e-79
-4.96431e-81
-6.63494e-83
-6.58569e-85
-4.80876e-87
-2.55227e-89
-9.70178e-92
-2.59637e-94
-4.79293e-97
-5.95751e-100
-4.84564e-103
-2.48973e-106
-7.70593e-110
-1.33471e-113
-1.1252e-117
-3.20151e-122
-1.90446e-71
-1.44165e-72
-8.18907e-74
-3.49706e-75
-1.12623e-76
-2.73781e-78
-5.01023e-80
-6.87085e-82
-7.00717e-84
-5.26283e-86
-2.87526e-88
-1.12531e-90
-3.09944e-93
-5.8813e-96
-7.49713e-99
-6.23127e-102
-3.25481e-105
-1.01685e-108
-1.76034e-112
-1.45969e-116
-3.91436e-121
-1.68969e-70
-1.29869e-71
-7.50421e-73
-3.26621e-74
-1.07417e-75
-2.67149e-77
-5.01043e-79
-7.05345e-81
-7.39502e-83
-5.71671e-85
-3.21743e-87
-1.29772e-89
-3.68269e-92
-7.19204e-95
-9.41468e-98
-8.00609e-101
-4.25489e-104
-1.34167e-107
-2.31699e-111
-1.88065e-115
-4.75757e-120
-1.48244e-69
-1.15714e-70
-6.80318e-72
-3.01877e-73
-1.01409e-74
-2.58104e-76
-4.96289e-78
-7.17484e-80
-7.73687e-82
-6.15963e-84
-3.57381e-86
-1.48681e-88
-4.35169e-91
-8.75718e-94
-1.17879e-96
-1.02704e-99
-5.56031e-103
-1.77074e-106
-3.04891e-110
-2.41721e-114
-5.76936e-119
-1.28583e-68
-1.01953e-69
-6.10017e-71
-2.76016e-72
-9.47346e-74
-2.4682e-75
-4.86709e-77
-7.22856e-79
-8.02056e-81
-6.57963e-83
-3.93793e-85
-1.69116e-87
-5.11008e-90
-1.06087e-92
-1.47042e-95
-1.31457e-98
-7.26102e-102
-2.33829e-105
-4.01662e-109
-3.10944e-113
-6.99186e-118
-1.10235e-67
-8.88038e-69
-5.40854e-70
-2.49595e-71
-8.75445e-73
-2.33537e-74
-4.72402e-76
-7.20999e-78
-8.23471e-80
-6.96389e-82
-4.30187e-84
-1.90844e-86
-5.95872e-89
-1.27762e-91
-1.82593e-94
-1.67769e-97
-9.47087e-101
-3.08964e-104
-5.30315e-108
-4.0139e-112
-8.50708e-117
-9.33856e-67
-7.64494e-68
-4.74031e-69
-2.23155e-70
-8.00022e-72
-2.18562e-73
-4.53626e-75
-7.11668e-77
-8.36939e-79
-7.29924e-81
-4.6563e-83
-2.13525e-85
-6.89473e-88
-1.52841e-90
-2.25532e-93
-2.13322e-96
-1.23319e-99
-4.08438e-103
-7.02192e-107
-5.21016e-111
-1.0435e-115
-7.81538e-66
-6.50294e-67
-4.10583e-68
-1.97204e-69
-7.22753e-71
-2.0225e-72
-4.3079e-74
-6.94868e-76
-8.4167e-78
-7.57281e-80
-4.99081e-82
-2.36711e-84
-7.91064e-87
-1.81487e-89
-2.76861e-92
-2.7003e-95
-1.60186e-98
-5.40008e-102
-9.32723e-106
-6.80987e-110
-1.29484e-114
-6.45972e-65
-5.46411e-66
-3.51351e-67
-1.72202e-68
-6.45291e-70
-1.8499e-71
-4.0444e-73
-6.70863e-75
-8.37141e-77
-7.77274e-79
-5.2943e-81
-2.59847e-83
-8.99366e-86
-2.1374e-88
-3.37512e-91
-3.39997e-94
-2.07414e-97
-7.13658e-101
-1.24277e-104
-8.96931e-109
-1.62892e-113
-5.2717e-64
-4.53398e-65
-2.9696e-66
-1.48538e-67
-5.69191e-69
-1.67188e-70
-3.75235e-72
-6.40173e-74
-8.23141e-76
-7.88896e-78
-5.55545e-80
-2.82284e-82
-1.01251e-84
-2.49479e-87
-4.08257e-90
-4.25451e-93
-2.67485e-96
-9.42066e-100
-1.66035e-103
-1.19071e-107
-2.08009e-112
-4.24654e-63
-3.71419e-64
-2.47823e-65
-1.26526e-66
-4.95857e-68
-1.49248e-69
-3.43916e-71
-6.03561e-73
-7.998e-75
-7.91386e-77
-5.76336e-79
-3.033e-81
-1.12802e-83
-2.88385e-86
-4.89602e-89
-5.28631e-92
-3.43251e-95
-1.24106e-98
-2.2227e-102
-1.59278e-106
-2.69756e-111
-3.37548e-62
-3.00289e-63
-2.04144e-64
-1.06397e-65
-4.26488e-67
-1.31555e-68
-3.11275e-70
-5.61997e-72
-7.67601e-74
-7.84294e-76
-5.9082e-78
-3.22126e-80
-1.24284e-82
-3.29907e-85
-5.81658e-88
-6.5162e-91
-4.37875e-94
-1.63003e-97
-2.97869e-101
-2.14537e-105
-3.55218e-110
-2.64678e-61
-2.39536e-62
-1.65938e-63
-8.82954e-65
-3.62044e-66
-1.1446e-67
-2.78109e-69
-5.16615e-71
-7.27367e-73
-7.67524e-75
-5.98194e-77
-3.37993e-79
-1.35338e-81
-3.73239e-84
-6.8401e-87
-7.9613e-90
-5.54727e-93
-2.13209e-96
-3.99154e-100
-2.9065e-104
-4.74587e-109
-2.04663e-60
-1.88458e-61
-1.33054e-62
-7.22878e-64
-3.0323e-65
-9.82619e-67
-2.45192e-68
-4.68649e-70
-6.80229e-72
-7.41367e-74
-5.97891e-76
-3.50173e-78
-1.45569e-80
-4.17312e-83
-7.9559e-86
-9.63239e-89
-6.97193e-92
-2.77408e-95
-5.34144e-99
-3.95503e-103
-6.42476e-108
-1.56012e-59
-1.46193e-60
-1.05203e-61
-5.83659e-63
-2.50488e-64
-8.3205e-66
-2.13232e-67
-4.19379e-69
-6.27564e-71
-7.06495e-73
-5.89639e-75
-3.58032e-77
-1.54565e-79
-4.60814e-82
-9.1457e-85
-1.15308e-87
-8.68407e-91
-3.58597e-94
-7.12791e-98
-5.39664e-102
-8.79699e-107
-1.17197e-58
-1.11778e-59
-8.19982e-61
-4.64587e-62
-2.04008e-63
-6.94681e-65
-1.82847e-66
-3.70059e-68
-5.70929e-70
-6.63937e-72
-5.73492e-74
-3.61076e-76
-1.61916e-78
-5.02225e-81
-1.0383e-83
-1.36454e-86
-1.07088e-89
-4.59977e-93
-9.47114e-97
-7.37053e-101
-1.21563e-105
-8.6729e-58
-8.42062e-59
-6.29785e-60
-3.64443e-61
-1.63754e-62
-5.7165e-64
-1.54542e-65
-3.2186e-67
-5.11972e-69
-6.1503e-71
-5.49847e-73
-3.58996e-75
-1.6725e-77
-5.39889e-80
-1.16329e-82
-1.59493e-85
-1.30608e-88
-5.84746e-92
-1.25116e-95
-1.00562e-99
-1.69119e-104
-6.32028e-57
-6.24782e-58
-4.76465e-59
-2.81634e-60
-1.29497e-61
-4.63463e-63
-1.28694e-64
-2.75816e-66
-4.52342e-68
-5.61338e-70
-5.19428e-72
-3.51705e-74
-1.70254e-76
-5.72105e-79
-1.28533e-81
-1.8398e-84
-1.5739e-87
-7.35822e-91
-1.64068e-94
-1.36793e-98
-2.36248e-103
-4.53384e-56
-4.56396e-57
-3.54938e-58
-2.14319e-59
-1.00851e-60
-3.70059e-62
-1.05547e-63
-2.32783e-65
-3.93607e-67
-5.0457e-69
-4.83255e-71
-3.3935e-73
-1.70706e-75
-5.97242e-78
-1.39957e-80
-2.09277e-83
-1.87217e-86
-9.15448e-90
-2.13244e-93
-1.85151e-97
-3.30487e-102
-3.20021e-55
-3.28102e-56
-2.60244e-57
-1.60541e-58
-7.73174e-60
-2.90884e-61
-8.52193e-63
-1.93411e-64
-3.37167e-66
-4.46471e-68
-4.42581e-70
-3.22316e-72
-1.68495e-74
-6.13861e-77
-1.50087e-79
-2.34563e-82
-2.19618e-85
-1.12473e-88
-2.74306e-92
-2.48869e-96
-4.61722e-101
-2.22174e-54
-2.32033e-55
-1.87732e-56
-1.18326e-57
-5.83272e-59
-2.25001e-60
-6.7709e-62
-1.58133e-63
-2.84203e-65
-3.88728e-67
-3.98815e-69
-3.01209e-71
-1.63636e-73
-6.20845e-76
-1.58407e-78
-2.58855e-81
-2.53837e-84
-1.36313e-87
-3.48721e-91
-3.31577e-95
-6.42548e-100
-1.51643e-53
-1.61353e-54
-1.33179e-55
-8.57745e-57
-4.3279e-58
-1.71189e-59
-5.29161e-61
-1.27171e-62
-2.35623e-64
-3.32876e-66
-3.53434e-68
-2.76815e-70
-1.5628e-72
-6.17508e-75
-1.64442e-77
-2.81056e-80
-2.88823e-83
-1.62794e-86
-4.37542e-90
-4.37105e-94
-8.88466e-99
-1.01711e-52
-1.1028e-53
-9.28708e-55
-6.11258e-56
-3.15721e-57
-1.28058e-58
-4.06602e-60
-1.00551e-61
-1.92053e-63
-2.80224e-65
-3.07892e-67
-2.50055e-69
-1.46699e-71
-6.03673e-74
-1.67798e-76
-3.00029e-79
-3.23248e-82
-1.91386e-85
-5.41132e-89
-5.69172e-93
-1.21776e-97
-6.70088e-52
-7.4047e-53
-6.36312e-54
-4.28037e-55
-2.26336e-56
-9.41401e-58
-3.0704e-59
-7.81307e-61
-1.53828e-62
-2.31798e-64
-2.63533e-66
-2.21916e-68
-1.35277e-70
-5.7972e-73
-1.68203e-75
-3.14678e-78
-3.55565e-81
-2.21276e-84
-6.58874e-88
-7.30921e-92
-1.65089e-96
-4.33404e-51
-4.88198e-52
-4.28153e-53
-2.9439e-54
-1.59375e-55
-6.798e-57
-2.27752e-58
-5.9633e-60
-1.21021e-61
-1.88317e-63
-2.21517e-65
-1.93389e-67
-1.22482e-69
-5.46577e-72
-1.65533e-74
-3.2405e-77
-3.84101e-80
-2.51367e-83
-7.88899e-87
-9.24331e-91
-2.20919e-95
-2.75061e-50
-3.15895e-51
-2.8278e-52
-1.98764e-53
-1.10178e-54
-4.81965e-56
-1.65868e-57
-4.46864e-59
-9.34732e-61
-1.50188e-62
-1.82768e-64
-1.65404e-66
-1.08827e-68
-5.05662e-71
-1.59841e-73
-3.27426e-76
-4.07183e-79
-2.80318e-82
-9.27883e-86
-1.14953e-89
-2.91277e-94
-1.71199e-49
-2.00503e-50
-1.8323e-51
-1.31674e-52
-7.47403e-54
-3.3532e-55
-1.18544e-56
-3.28603e-58
-7.08432e-60
-1.17525e-61
-1.47943e-63
-1.38774e-65
-9.48403e-68
-4.58779e-70
-1.5135e-72
-3.24406e-75
-4.23289e-78
-3.06617e-81
-1.07097e-84
-1.40409e-88
-3.77749e-93
-1.0444e-48
-1.24763e-49
-1.16415e-50
-8.55425e-52
-4.97253e-53
-2.28818e-54
-8.30983e-56
-2.37004e-57
-5.26592e-59
-9.01894e-61
-1.17427e-62
-1.14154e-64
-8.10225e-67
-4.07981e-69
-1.40447e-71
-3.14966e-74
-4.31201e-77
-3.28695e-80
-1.21187e-83
-1.68245e-87
-4.81127e-92
-6.24116e-48
-7.60663e-49
-7.2483e-50
-5.44685e-51
-3.24285e-52
-1.53065e-53
-5.71044e-55
-1.67571e-56
-3.83695e-58
-6.78389e-60
-9.13465e-62
-9.20156e-64
-6.7817e-66
-3.55406e-68
-1.27651e-70
-2.99476e-73
-4.30148e-76
-3.45065e-79
-1.34318e-82
-1.97551e-86
-6.00986e-91
-3.65113e-47
-4.54124e-48
-4.42007e-49
-3.39736e-50
-2.07185e-51
-1.00317e-52
-3.8448e-54
-1.16082e-55
-2.73906e-57
-4.99883e-59
-6.96036e-61
-7.26416e-63
-5.55842e-65
-3.03117e-67
-1.13568e-69
-2.78684e-72
-4.19908e-75
-3.54479e-78
-1.45691e-81
-2.27069e-85
-7.35288e-90
-2.08966e-46
-2.65314e-47
-2.63828e-48
-2.07449e-49
-1.29604e-50
-6.43777e-52
-2.53488e-53
-7.87427e-55
-1.91459e-56
-3.60647e-58
-5.19212e-60
-5.6133e-62
-4.45858e-64
-2.52956e-66
-9.88435e-69
-2.53652e-71
-4.00864e-74
-3.56074e-77
-1.54522e-80
-2.55244e-84
-8.80083e-89
-1.16929e-45
-1.51587e-46
-1.54039e-47
-1.23932e-48
-7.93307e-50
-4.04297e-51
-1.63555e-52
-5.22732e-54
-1.30966e-55
-2.54606e-57
-3.78949e-59
-4.24336e-61
-3.49803e-63
-2.06429e-65
-8.41084e-68
-2.25666e-70
-3.73984e-73
-3.49489e-76
-1.60122e-79
-2.8033e-83
-1.0294e-87
-6.39246e-45
-8.46415e-46
-8.79158e-47
-7.23897e-48
-4.74846e-49
-2.48312e-50
-1.03211e-51
-3.39397e-53
-8.76164e-55
-1.75781e-56
-2.70447e-58
-3.13618e-60
-2.68269e-62
-1.64637e-64
-6.99292e-67
-1.96119e-69
-3.40746e-72
-3.34933e-75
-1.61985e-78
-3.00547e-82
-1.17541e-86
-3.41194e-44
-4.61539e-45
-4.90146e-46
-4.13135e-47
-2.77756e-48
-1.49055e-49
-6.366e-51
-2.15389e-52
-5.72913e-54
-1.18609e-55
-1.88618e-57
-2.26478e-59
-2.00988e-61
-1.28245e-63
-5.67717e-66
-1.66385e-68
-3.02995e-71
-3.13184e-74
-1.59855e-77
-3.14277e-81
-1.30893e-85
-1.77663e-43
-2.45589e-44
-2.66738e-45
-2.30208e-46
-1.58661e-47
-8.73869e-49
-3.83526e-50
-1.33517e-51
-3.65918e-53
-7.81682e-55
-1.2847e-56
-1.59701e-58
-1.4701e-60
-9.7507e-63
-4.49756e-65
-1.37708e-67
-2.62766e-70
-2.85528e-73
-1.53768e-76
-3.20263e-80
-1.42022e-84
-9.0182e-43
-1.27422e-43
-1.41583e-44
-1.25152e-45
-8.84421e-47
-5.00026e-48
-2.25532e-49
-8.07893e-51
-2.28127e-52
-5.02823e-54
-8.53984e-56
-1.09889e-57
-1.04908e-59
-7.23138e-62
-3.47457e-64
-1.11112e-66
-2.22089e-69
-2.53622e-72
-1.44068e-75
-3.17788e-79
-1.50009e-83
-4.45874e-42
-6.441e-43
-7.32411e-44
-6.63293e-45
-4.80727e-46
-2.79036e-47
-1.29356e-48
-4.76824e-50
-1.38726e-51
-3.15477e-53
-5.53637e-55
-7.37344e-57
-7.29892e-59
-5.22754e-61
-2.61579e-63
-8.73405e-66
-1.82809e-68
-2.19327e-71
-1.31367e-74
-3.06794e-78
-1.54106e-82
-2.14542e-41
-3.16926e-42
-3.68937e-43
-3.42428e-44
-2.54591e-45
-1.51744e-46
-7.23103e-48
-2.74299e-49
-8.22247e-51
-1.92916e-52
-3.49792e-54
-4.82099e-56
-4.94746e-58
-3.68086e-60
-1.91764e-62
-6.68347e-65
-1.4644e-67
-1.84517e-70
-1.1649e-73
-2.87925e-77
-1.53844e-81
-1.00383e-40
-1.51657e-41
-1.80811e-42
-1.72053e-43
-1.3126e-44
-8.03508e-46
-3.93639e-47
-1.53676e-48
-4.74651e-50
-1.1489e-51
-2.15215e-53
-3.06918e-55
-3.26476e-57
-2.52262e-59
-1.36793e-61
-4.97497e-64
-1.14071e-66
-1.50896e-69
-1.00374e-72
-2.62466e-76
-1.49115e-80
-4.56341e-40
-7.05086e-41
-8.61344e-42
-8.40618e-43
-6.58245e-44
-4.13929e-45
-2.08504e-46
-8.37807e-48
-2.66633e-49
-6.65813e-51
-1.28843e-52
-1.901e-54
-2.09564e-56
-1.68134e-58
-9.48753e-61
-3.59945e-63
-8.63376e-66
-1.19857e-68
-8.39703e-72
-2.32196e-75
-1.40203e-79
-2.01377e-39
-3.18158e-40
-3.98469e-41
-3.99006e-42
-3.20785e-43
-2.07266e-44
-1.07366e-45
-4.44075e-47
-1.45628e-48
-3.75153e-50
-7.49901e-52
-1.14458e-53
-1.30742e-55
-1.08893e-57
-6.39242e-60
-2.52914e-62
-6.34402e-65
-9.23895e-68
-6.81436e-71
-1.99179e-74
-1.2776e-78
-8.61616e-39
-1.39175e-39
-1.78831e-40
-1.83815e-41
-1.51774e-42
-1.00782e-43
-5.36961e-45
-2.28634e-46
-7.72625e-48
-2.0533e-49
-4.23946e-51
-6.69307e-53
-7.92059e-55
-6.84691e-57
-4.18039e-59
-1.72431e-61
-4.5215e-64
-6.90506e-67
-5.35953e-70
-1.65517e-73
-1.12727e-77
-3.55578e-38
-5.89468e-39
-7.77803e-40
-8.21034e-41
-6.96457e-42
-4.75403e-43
-2.60564e-44
-1.14227e-45
-3.97797e-47
-1.0906e-48
-2.32575e-50
-3.79754e-52
-4.6551e-54
-4.17569e-56
-2.6509e-58
-1.1396e-60
-3.12279e-63
-4.99901e-66
-4.08145e-69
-1.33115e-72
-9.6213e-77
-1.42014e-37
-2.41586e-38
-3.27504e-39
-3.55179e-40
-3.09629e-41
-2.17319e-42
-1.22553e-43
-5.53209e-45
-1.9855e-46
-5.61564e-48
-1.23683e-49
-2.08849e-51
-2.65147e-53
-2.4675e-55
-1.62838e-57
-7.29357e-60
-2.08787e-62
-3.50212e-65
-3.0064e-68
-1.03504e-71
-7.93528e-76
-5.48747e-37
-9.57199e-38
-1.33352e-38
-1.48643e-39
-1.33212e-40
-9.61612e-42
-5.58065e-43
-2.59425e-44
-9.59649e-46
-2.80007e-47
-6.36909e-49
-1.11208e-50
-1.46201e-52
-1.41126e-54
-9.67894e-57
-4.5155e-59
-1.34986e-61
-2.37156e-64
-2.13967e-67
-7.77237e-71
-6.31737e-75
-3.66299e-37
-5.24492e-38
-6.01073e-39
-5.53956e-40
-4.1138e-41
-2.45736e-42
-1.17656e-43
-4.48606e-45
-1.35037e-46
-3.17205e-48
-5.72653e-50
-7.79477e-52
-7.80287e-54
-5.56017e-56
-2.70104e-58
-8.42916e-61
-1.55051e-63
-1.4696e-66
-5.6299e-70
-4.84888e-74
-1.35306e-36
-1.9905e-37
-2.34555e-38
-2.22367e-39
-1.69927e-40
-1.04499e-41
-5.15388e-43
-2.02565e-44
-6.29057e-46
-1.52593e-47
-2.84797e-49
-4.01307e-51
-4.16519e-53
-3.08297e-55
-1.559e-57
-5.07712e-60
-9.77429e-63
-9.72835e-66
-3.92858e-69
-3.58357e-73
-7.2772e-37
-8.82038e-38
-8.60435e-39
-6.76771e-40
-4.28547e-41
-2.17748e-42
-8.8225e-44
-2.82656e-45
-7.08008e-47
-1.36598e-48
-1.99226e-50
-2.14347e-52
-1.64757e-54
-8.67e-57
-2.94551e-59
-5.93251e-62
-6.1978e-65
-2.63715e-68
-2.54648e-72
-2.55847e-36
-3.19142e-37
-3.20444e-38
-2.59487e-39
-1.69223e-40
-8.85931e-42
-3.7006e-43
-1.22315e-44
-3.1635e-46
-6.30852e-48
-9.52165e-50
-1.06171e-51
-8.47234e-54
-4.63816e-56
-1.64325e-58
-3.4612e-61
-3.79395e-64
-1.7002e-67
-1.7371e-71
-8.63654e-36
-1.10916e-36
-1.14667e-37
-9.56198e-39
-6.42327e-40
-3.46521e-41
-1.49229e-42
-5.08853e-44
-1.3588e-45
-2.80031e-47
-4.37314e-49
-5.05244e-51
-4.18457e-53
-2.38244e-55
-8.79921e-58
-1.93752e-60
-2.22742e-63
-1.05083e-66
-1.13549e-70
-2.79412e-35
-3.6959e-36
-3.93526e-37
-3.38008e-38
-2.33921e-39
-1.3005e-40
-5.77428e-42
-2.03116e-43
-5.59925e-45
-1.19234e-46
-1.92615e-48
-2.30513e-50
-1.9809e-52
-1.17251e-54
-4.51279e-57
-1.03839e-59
-1.25152e-62
-6.21327e-66
-7.09753e-70
-8.64606e-35
-1.17835e-35
-1.29259e-36
-1.14379e-37
-8.15599e-39
-4.67318e-40
-2.13919e-41
-7.76177e-43
-2.2085e-44
-4.85833e-46
-8.11632e-48
-1.00583e-49
-8.96515e-52
-5.5148e-54
-2.21107e-56
-5.31457e-59
-6.71273e-62
-3.50567e-65
-4.23187e-69
-2.55319e-34
-3.58651e-35
-4.05411e-36
-3.69647e-37
-2.71605e-38
-1.60385e-39
-7.56849e-41
-2.83213e-42
-8.3156e-44
-1.88914e-45
-3.26258e-47
-4.18515e-49
-3.86748e-51
-2.47138e-53
-1.03176e-55
-2.58954e-58
-3.42652e-61
-1.88179e-64
-2.39976e-68
-7.17697e-34
-1.03942e-34
-1.21098e-35
-1.13782e-36
-8.61486e-38
-5.24231e-39
-2.54974e-40
-9.83706e-42
-2.97938e-43
-6.98688e-45
-1.24677e-46
-1.65458e-48
-1.58438e-50
-1.05121e-52
-4.56764e-55
-1.19659e-57
-1.65817e-60
-9.57359e-64
-1.28948e-67
-1.91487e-33
-2.85991e-34
-3.43454e-35
-3.32547e-36
-2.59418e-37
-1.6264e-38
-8.15034e-40
-3.24046e-41
-1.0118e-42
-2.44763e-44
-4.50955e-46
-6.18677e-48
-6.13439e-50
-4.22313e-52
-1.90882e-54
-5.21724e-57
-7.56926e-60
-4.5936e-63
-6.53433e-67
-4.83317e-33
-7.44491e-34
-9.21596e-35
-9.19409e-36
-7.38773e-37
-4.76983e-38
-2.46135e-39
-1.00771e-40
-3.24079e-42
-8.07864e-44
-1.53504e-45
-2.17462e-47
-2.2303e-49
-1.5917e-51
-7.47852e-54
-2.13165e-56
-3.23713e-59
-2.06498e-62
-3.10277e-66
-1.1495e-32
-1.82614e-33
-2.32968e-34
-2.39384e-35
-1.98026e-36
-1.31571e-37
-6.98438e-39
-2.94089e-40
-9.72688e-42
-2.49429e-43
-4.87882e-45
-7.12353e-47
-7.54417e-49
-5.57377e-51
-2.71962e-53
-8.08004e-56
-1.28429e-58
-8.61419e-62
-1.36805e-65
-2.56399e-32
-4.19966e-33
-5.51889e-34
-5.83703e-35
-4.96641e-36
-3.39149e-37
-1.84909e-38
-7.9907e-40
-2.71109e-41
-7.12977e-43
-1.43078e-44
-2.14586e-46
-2.3399e-48
-1.78578e-50
-9.03665e-53
-2.7971e-55
-4.65479e-58
-3.28603e-61
-5.52408e-65
-5.33211e-32
-8.99852e-33
-1.21705e-33
-1.32338e-34
-1.15637e-35
-8.09924e-37
-4.52292e-38
-1.99845e-39
-6.92169e-41
-1.85576e-42
-3.79501e-44
-5.80446e-46
-6.4831e-48
-5.09425e-50
-2.66916e-52
-8.60683e-55
-1.50163e-57
-1.1185e-60
-1.99692e-64
-1.02607e-31
-1.78171e-32
-2.47647e-33
-2.76316e-34
-2.47322e-35
-1.77007e-36
-1.00734e-37
-4.5178e-39
-1.58012e-40
-4.26269e-42
-8.74171e-44
-1.33613e-45
-1.51515e-47
-1.22286e-49
-6.63563e-52
-2.23437e-54
-4.10555e-57
-3.24704e-60
-6.2032e-64
-1.80841e-31
-3.22284e-32
-4.59274e-33
-5.24075e-34
-4.783e-35
-3.47275e-36
-1.9921e-37
-8.9235e-39
-3.05386e-40
-8.00675e-42
-1.56847e-43
-2.17744e-45
-2.49846e-47
-2.12706e-49
-1.21984e-51
-4.35697e-54
-8.56547e-57
-7.31902e-60
-1.5241e-63
-2.87545e-31
-5.23314e-32
-7.61892e-33
-8.83637e-34
-8.14414e-35
-5.90319e-36
-3.30991e-37
-1.41504e-38
-4.16042e-40
-8.89569e-42
-1.24583e-43
4.87988e-46
-2.89986e-48
-1.32159e-49
-1.07923e-51
-4.57888e-54
-1.03328e-56
-1.01301e-59
-2.42979e-63
-4.01954e-31
-7.39096e-32
-1.0943e-32
-1.27253e-33
-1.1524e-34
-7.96494e-36
-3.84903e-37
-1.16016e-38
-1.30776e-57
-1.69174e-74
-1.07109e-63
3.33439e-44
7.44985e-47
0
-3.46046e-80
-1.86745e-55
-1.53491e-57
-3.17336e-60
-1.25901e-63
-4.66047e-31
-8.44044e-32
-1.26677e-32
-1.42024e-33
-1.12004e-34
-5.65819e-36
1.33929e-63
-1.67075e-48
-1.41192e-49
4.69324e-39
1.15952e-40
1.88355e-53
1.52578e-54
1.52047e-54
3.13135e-58
3.40372e-62
-1.60658e-59
-1.11778e-61
-9.20194e-65
-3.66221e-31
-6.12447e-32
-9.36836e-33
-8.34451e-34
-2.91238e-43
-6.30118e-46
-5.05204e-52
-2.18286e-48
1.03115e-47
8.42193e-38
7.78151e-40
1.90288e-52
1.68373e-53
3.20504e-53
5.49631e-57
3.18699e-61
1.58452e-65
2.40975e-69
-5.1419e-68
-6.81166e-41
-1.40541e-43
-3.78977e-45
-2.55397e-44
-1.03942e-47
-1.25751e-45
-1.74976e-46
1.08845e-33
8.86255e-35
7.66399e-47
5.8043e-48
5.7648e-48
2.58225e-51
3.40691e-55
1.13859e-58
2.71997e-62
1.45827e-66
1.79334e-70
6.04136e-74
-2.68028e-42
4.66894e-36
7.57737e-56
5.56088e-36
3.5208e-36
1.34192e-38
2.28907e-37
9.42636e-33
3.21437e-34
3.50498e-46
2.47189e-47
4.84357e-47
1.69114e-50
1.08011e-54
4.96794e-58
1.10507e-61
8.19748e-66
1.0503e-69
5.93483e-71
3.53781e-32
3.63573e-33
4.98915e-35
1.83434e-35
4.37164e-36
2.43815e-29
3.91615e-30
1.30492e-41
1.21235e-42
1.23726e-42
3.34157e-46
2.75653e-49
1.13761e-52
2.16101e-56
1.0432e-59
2.09164e-63
1.28834e-67
4.94652e-71
3.47771e-71
6.2818e-32
1.05017e-32
8.34975e-34
1.8433e-34
3.06158e-33
1.11691e-28
7.23856e-30
2.85093e-41
2.54685e-42
3.79331e-42
1.1567e-45
4.87998e-49
2.2798e-52
4.69122e-56
4.22757e-58
5.06472e-70
1.57841e-65
2.96233e-71
2.96233e-71
6.04948e-31
1.10784e-31
1.57419e-32
9.04417e-26
7.09914e-26
6.26496e-29
7.53063e-40
6.80761e-41
8.15054e-41
9.35596e-44
4.65801e-50
2.2558e-50
4.22589e-54
2.59428e-60
1.35007e-60
2.96233e-71
2.96233e-71
2.96233e-71
2.96233e-71
1.33586e-22
8.91662e-24
1.48747e-30
2.30893e-25
1.34597e-25
1.51947e-36
1.85142e-39
8.98449e-41
9.28967e-41
9.23946e-44
4.64134e-50
2.36997e-50
7.6087e-59
2.04623e-59
2.22053e-59
2.96304e-71
2.96233e-71
2.96233e-71
2.96234e-71
3.3321e-22
2.4693e-21
9.23312e-22
8.37301e-27
8.62778e-27
5.83459e-28
4.70737e-39
2.79541e-40
4.52652e-40
4.29556e-43
2.56568e-49
2.15162e-49
1.05571e-49
7.6087e-59
5.3487e-57
4.42852e-71
2.96304e-71
2.96276e-71
2.9649e-71
4.49467e-24
3.31102e-21
2.95887e-21
3.82688e-23
1.66048e-34
7.91294e-36
8.09663e-36
1.03986e-37
7.88108e-41
6.45335e-44
5.94422e-49
7.45313e-49
2.84341e-49
7.84106e-57
7.8948e-55
1.24847e-67
4.42852e-71
2.96326e-71
7.07217e-71
6.24072e-20
1.54885e-21
1.92415e-21
1.59594e-22
3.63819e-33
5.42345e-36
2.01074e-37
1.93868e-37
1.62586e-40
6.27574e-44
9.56526e-49
1.34835e-46
6.00911e-50
4.32138e-51
1.14756e-55
5.61304e-62
1.03676e-54
4.42852e-71
2.78691e-68
2.06934e-17
8.5071e-22
3.18048e-26
1.44951e-23
7.7742e-25
1.16725e-35
4.33452e-37
7.17474e-37
1.91568e-40
5.31519e-42
1.47301e-42
5.48135e-49
1.17297e-49
1.0236e-50
2.79021e-54
6.60806e-47
4.12849e-51
1.24847e-67
9.74526e-63
3.01151e-17
7.87358e-19
6.52628e-27
1.28134e-26
2.54867e-26
5.43515e-30
9.58758e-38
1.16399e-37
7.77735e-38
5.73466e-40
1.66395e-42
1.55944e-44
1.83805e-48
3.52794e-50
1.26304e-42
2.44733e-45
6.45727e-61
7.43295e-64
1.57673e-60
8.16488e-18
2.7379e-19
1.51924e-29
3.22666e-32
8.89019e-34
8.16588e-34
2.04171e-37
2.131e-37
4.13001e-37
6.10616e-40
1.98681e-41
5.2407e-44
1.51187e-46
5.87648e-39
2.40241e-41
5.70657e-56
8.27844e-57
1.65526e-56
8.89554e-59
2.82611e-29
2.87605e-20
2.20983e-21
9.12279e-32
2.55988e-33
3.81849e-33
1.24717e-33
1.84542e-35
3.14352e-37
1.18597e-38
4.0144e-41
3.04884e-43
1.16123e-35
8.28036e-38
1.11069e-51
1.23508e-52
2.46782e-52
1.22412e-56
2.60298e-58
2.82611e-29
1.08351e-26
1.25469e-26
1.27436e-27
8.32296e-33
1.24874e-32
1.11319e-32
6.0497e-35
2.33099e-36
1.95862e-38
2.10159e-40
1.00119e-32
1.2801e-34
6.62449e-48
7.35579e-49
1.46787e-48
1.15454e-52
3.90032e-57
1.11757e-58
2.82611e-29
8.02896e-27
1.60633e-26
6.6625e-27
1.27365e-32
1.29805e-32
1.34677e-32
5.75883e-34
3.67484e-36
7.89289e-38
4.07812e-30
8.75026e-32
1.27406e-44
1.06192e-45
2.10769e-45
4.67098e-49
1.13358e-53
1.32021e-57
3.09931e-59
3.13802e-28
4.57385e-27
1.56297e-26
6.88967e-27
1.41558e-32
1.53011e-32
3.13845e-32
8.11776e-34
1.62279e-35
9.58205e-28
2.89542e-29
1.02073e-41
5.60691e-43
1.09221e-42
5.82292e-46
3.37363e-50
2.60661e-54
2.8869e-58
6.41672e-60
1.38077e-28
2.20946e-28
3.91415e-28
6.87824e-28
3.83167e-30
1.53183e-32
2.34475e-32
2.34358e-33
1.41841e-25
5.72557e-27
7.17706e-28
1.90795e-30
2.85961e-32
2.49588e-32
2.49271e-32
2.34507e-32
2.34554e-32
-2.34389e-73
-1.72302e-74
-9.46882e-76
-3.89687e-77
-1.2049e-78
-2.80199e-80
-4.88868e-82
-6.37197e-84
-6.15989e-86
-4.37618e-88
-2.25843e-90
-8.34633e-93
-2.1727e-95
-3.90655e-98
-4.74025e-101
-3.77645e-104
-1.9091e-107
-5.8465e-111
-1.00901e-114
-8.56337e-119
-2.52148e-123
-2.12535e-72
-1.58554e-73
-8.85892e-75
-3.71385e-76
-1.17189e-77
-2.78609e-79
-4.97766e-81
-6.65362e-83
-6.6048e-85
-4.82295e-87
-2.55985e-89
-9.73048e-92
-2.60396e-94
-4.80664e-97
-5.97406e-100
-4.85862e-103
-2.49611e-106
-7.72468e-110
-1.33777e-113
-1.12761e-117
-3.20785e-122
-1.90655e-71
-1.44378e-72
-8.20399e-74
-3.50449e-75
-1.12892e-76
-2.74493e-78
-5.02415e-80
-6.89087e-82
-7.02825e-84
-5.27897e-86
-2.88415e-88
-1.12879e-90
-3.10893e-93
-5.89898e-96
-7.51909e-99
-6.24892e-102
-3.26367e-105
-1.0195e-108
-1.76467e-112
-1.46308e-116
-3.92283e-121
-1.69161e-70
-1.30066e-71
-7.51824e-73
-3.27334e-74
-1.0768e-75
-2.67864e-77
-5.02476e-79
-7.07466e-81
-7.41803e-83
-5.73487e-85
-3.22777e-87
-1.3019e-89
-3.69446e-92
-7.21467e-95
-9.44364e-98
-8.03e-101
-4.26715e-104
-1.34537e-107
-2.32307e-111
-1.88533e-115
-4.76871e-120
-1.48417e-69
-1.15894e-70
-6.8162e-72
-3.02551e-73
-1.01664e-74
-2.58813e-76
-4.97748e-78
-7.19705e-80
-7.76169e-82
-6.17986e-84
-3.5857e-86
-1.49177e-88
-4.36617e-91
-8.78594e-94
-1.18258e-96
-1.03026e-99
-5.57717e-103
-1.77591e-106
-3.05742e-110
-2.42362e-114
-5.78385e-119
-1.28737e-68
-1.02115e-69
-6.11208e-71
-2.76645e-72
-9.49776e-74
-2.47513e-75
-4.88176e-77
-7.25153e-79
-8.04703e-81
-6.60191e-83
-3.95147e-85
-1.69701e-87
-5.12773e-90
-1.0645e-92
-1.47537e-95
-1.31889e-98
-7.28415e-102
-2.34547e-105
-4.02847e-109
-3.1182e-113
-7.0106e-118
-1.1037e-67
-8.89476e-69
-5.41928e-70
-2.50174e-71
-8.77735e-73
-2.34207e-74
-4.73858e-76
-7.23346e-78
-8.26261e-80
-6.98814e-82
-4.31711e-84
-1.91526e-86
-5.98003e-89
-1.28215e-91
-1.83231e-94
-1.68343e-97
-9.50244e-101
-3.09961e-104
-5.31962e-108
-4.02585e-112
-8.53127e-117
-9.35015e-67
-7.6575e-68
-4.74987e-69
-2.23681e-70
-8.0215e-72
-2.19201e-73
-4.55053e-75
-7.14036e-77
-8.39843e-79
-7.32532e-81
-4.67326e-83
-2.14311e-85
-6.92019e-88
-1.53403e-90
-2.2635e-93
-2.14082e-96
-1.23748e-99
-4.09818e-103
-7.04482e-107
-5.2265e-111
-1.04664e-115
-7.82522e-66
-6.51376e-67
-4.11422e-68
-1.97676e-69
-7.24704e-71
-2.02851e-72
-4.32169e-74
-6.97227e-76
-8.44654e-78
-7.60052e-80
-5.00948e-82
-2.37607e-84
-7.94074e-87
-1.82176e-89
-2.77901e-92
-2.71028e-95
-1.60766e-98
-5.41911e-102
-9.35906e-106
-6.83228e-110
-1.29894e-114
-6.46796e-65
-5.4733e-66
-3.52076e-67
-1.72618e-68
-6.47055e-70
-1.85547e-71
-4.05756e-73
-6.7318e-75
-8.40168e-77
-7.80181e-79
-5.31457e-81
-2.60857e-83
-9.02886e-86
-2.14575e-88
-3.38822e-91
-3.41299e-94
-2.08193e-97
-7.16275e-101
-1.2472e-104
-9.0002e-109
-1.63433e-113
-5.27848e-64
-4.54167e-65
-2.97578e-66
-1.48901e-67
-5.70764e-69
-1.67698e-70
-3.76472e-72
-6.4242e-74
-8.26171e-76
-7.91905e-78
-5.57719e-80
-2.83408e-82
-1.01658e-84
-2.50482e-87
-4.0989e-90
-4.27135e-93
-2.68526e-96
-9.45653e-100
-1.6665e-103
-1.19498e-107
-2.08732e-112
-4.25204e-63
-3.72052e-64
-2.48342e-65
-1.26837e-66
-4.97239e-68
-1.49708e-69
-3.45064e-71
-6.05709e-73
-8.0279e-75
-7.94458e-77
-5.78636e-79
-3.04533e-81
-1.13266e-83
-2.89575e-86
-4.91617e-89
-5.30787e-92
-3.4463e-95
-1.24596e-98
-2.23125e-102
-1.59873e-106
-2.70733e-111
-3.37987e-62
-3.00803e-63
-2.04573e-64
-1.06659e-65
-4.27684e-67
-1.31964e-68
-3.12324e-70
-5.64021e-72
-7.70511e-74
-7.87386e-76
-5.9322e-78
-3.23462e-80
-1.24806e-82
-3.31302e-85
-5.84115e-88
-6.54354e-91
-4.3969e-94
-1.63667e-97
-2.99056e-101
-2.1537e-105
-3.56557e-110
-2.65023e-61
-2.39946e-62
-1.66288e-63
-8.85141e-65
-3.63064e-66
-1.14817e-67
-2.79054e-69
-5.18494e-71
-7.30159e-73
-7.70594e-75
-6.00663e-77
-3.3942e-79
-1.35918e-81
-3.74852e-84
-6.86971e-87
-7.9956e-90
-5.57093e-93
-2.14105e-96
-4.00798e-100
-2.91819e-104
-4.76444e-109
-2.0493e-60
-1.88781e-61
-1.33334e-62
-7.2467e-64
-3.04087e-65
-9.85704e-67
-2.4603e-68
-4.70368e-70
-6.82866e-72
-7.44368e-74
-6.00394e-76
-3.51676e-78
-1.46205e-80
-4.19153e-83
-7.99112e-86
-9.67492e-89
-7.00248e-92
-2.78607e-95
-5.36413e-99
-3.97147e-103
-6.45079e-108
-1.56214e-59
-1.46443e-60
-1.05424e-61
-5.85105e-63
-2.51196e-64
-8.3467e-66
-2.13964e-67
-4.20927e-69
-6.30017e-71
-7.09385e-73
-5.92139e-75
-3.59591e-77
-1.55251e-79
-4.62884e-82
-9.18702e-85
-1.15829e-87
-8.72307e-91
-3.60191e-94
-7.15908e-98
-5.41978e-102
-8.83384e-107
-1.17349e-58
-1.11968e-59
-8.21698e-61
-4.65735e-62
-2.04584e-63
-6.96871e-65
-1.83477e-66
-3.71431e-68
-5.73176e-70
-6.66677e-72
-5.7595e-74
-3.62668e-76
-1.62646e-78
-5.0452e-81
-1.04308e-83
-1.37083e-86
-1.07581e-89
-4.62072e-93
-9.5137e-97
-7.40307e-101
-1.22088e-105
-8.68405e-58
-8.43481e-59
-6.31095e-60
-3.6534e-61
-1.64216e-62
-5.7345e-64
-1.55075e-65
-3.23057e-67
-5.13997e-69
-6.17585e-71
-5.52224e-73
-3.60597e-75
-1.68014e-77
-5.42394e-80
-1.16874e-82
-1.60243e-85
-1.31221e-88
-5.87474e-92
-1.25692e-95
-1.01018e-99
-1.69872e-104
-6.32834e-57
-6.25826e-58
-4.77449e-59
-2.82322e-60
-1.2986e-61
-4.64919e-63
-1.29138e-64
-2.76844e-66
-4.54137e-68
-5.63683e-70
-5.2169e-72
-3.53289e-74
-1.71041e-76
-5.74795e-79
-1.29144e-81
-1.8486e-84
-1.58144e-87
-7.39329e-91
-1.64842e-94
-1.3743e-98
-2.37329e-103
-4.53956e-56
-4.5715e-57
-3.55663e-58
-2.14839e-59
-1.01132e-60
-3.71216e-62
-1.0591e-63
-2.3365e-65
-3.95171e-67
-5.06685e-69
-4.85371e-71
-3.40889e-73
-1.71502e-75
-6.00083e-78
-1.40632e-80
-2.10295e-83
-1.8813e-86
-9.19899e-90
-2.14273e-93
-1.86034e-97
-3.32039e-102
-3.2042e-55
-3.28638e-56
-2.6077e-57
-1.60927e-58
-7.75311e-60
-2.91788e-61
-8.5511e-63
-1.94129e-64
-3.38507e-66
-4.48346e-68
-4.44527e-70
-3.23787e-72
-1.69287e-74
-6.16811e-77
-1.5082e-79
-2.3572e-82
-2.20706e-85
-1.1303e-88
-2.75656e-92
-2.50083e-96
-4.63943e-101
-2.22447e-54
-2.32407e-55
-1.88106e-56
-1.18607e-57
-5.84869e-59
-2.25694e-60
-6.79395e-62
-1.58718e-63
-2.8533e-65
-3.90361e-67
-4.00572e-69
-3.02589e-71
-1.64411e-73
-6.23854e-76
-1.59189e-78
-2.60147e-81
-2.55114e-84
-1.37e-87
-3.5047e-91
-3.33227e-95
-6.4571e-100
-1.51827e-53
-1.61609e-54
-1.33441e-55
-8.59753e-57
-4.33961e-58
-1.71712e-59
-5.30948e-61
-1.27639e-62
-2.36554e-64
-3.34273e-66
-3.54992e-68
-2.78087e-70
-1.57022e-72
-6.20521e-75
-1.65261e-77
-2.82475e-80
-2.90294e-83
-1.63626e-86
-4.39775e-90
-4.39323e-94
-8.9293e-99
-1.01833e-52
-1.10452e-53
-9.30505e-55
-6.12668e-56
-3.16564e-57
-1.28444e-58
-4.07962e-60
-1.00919e-61
-1.92808e-63
-2.81396e-65
-3.09249e-67
-2.51205e-69
-1.47398e-71
-6.06633e-74
-1.6864e-76
-3.01558e-79
-3.24914e-82
-1.92378e-85
-5.43937e-89
-5.72111e-93
-1.224e-97
-6.70872e-52
-7.41603e-53
-6.37521e-54
-4.29009e-55
-2.26931e-56
-9.44205e-58
-3.08056e-59
-7.84135e-61
-1.54429e-62
-2.32763e-64
-2.64691e-66
-2.22936e-68
-1.35923e-70
-5.82574e-73
-1.69051e-75
-3.16295e-78
-3.57415e-81
-2.22436e-84
-6.62337e-88
-7.34756e-92
-1.6595e-96
-4.33902e-51
-4.8893e-52
-4.28951e-53
-2.95046e-54
-1.59787e-55
-6.81796e-57
-2.28496e-58
-5.98466e-60
-1.2149e-61
-1.89096e-63
-2.22486e-65
-1.94276e-67
-1.23066e-69
-5.49273e-72
-1.66372e-74
-3.25725e-77
-3.86116e-80
-2.52699e-83
-7.93097e-87
-9.2925e-91
-2.2209e-95
-2.7537e-50
-3.1636e-51
-2.83297e-52
-1.99198e-53
-1.10458e-54
-4.83357e-56
-1.66402e-57
-4.48445e-59
-9.38314e-61
-1.50804e-62
-1.83562e-64
-1.6616e-66
-1.09346e-68
-5.08157e-71
-1.60653e-73
-3.29126e-76
-4.09333e-79
-2.81816e-82
-9.32875e-86
-1.15573e-89
-2.92844e-94
-1.71388e-49
-2.00791e-50
-1.83557e-51
-1.31955e-52
-7.49265e-54
-3.36272e-55
-1.1892e-56
-3.2975e-58
-7.11115e-60
-1.18003e-61
-1.48581e-63
-1.39404e-65
-9.52909e-68
-4.6104e-70
-1.52119e-72
-3.26096e-75
-4.25536e-78
-3.08268e-81
-1.07679e-84
-1.41175e-88
-3.79809e-93
-1.04553e-48
-1.24938e-49
-1.16618e-50
-8.57214e-52
-4.98466e-53
-2.29455e-54
-8.33572e-56
-2.37819e-57
-5.28559e-59
-9.05515e-61
-1.17929e-62
-1.14669e-64
-8.14055e-67
-4.09986e-69
-1.4116e-71
-3.16609e-74
-4.33498e-77