/*--------------------------------*- C++ -*----------------------------------*\
| =========                 |                                                 |
| \\      /  F ield         | OpenFOAM: The Open Source CFD Toolbox           |
|  \\    /   O peration     | Version:  v2012                                 |
|   \\  /    A nd           | Website:  www.openfoam.com                      |
|    \\/     M anipulation  |                                                 |
\*---------------------------------------------------------------------------*/
FoamFile
{
    version     2.0;
    format      ascii;
    class       volScalarField;
    location    "0.05";
    object      alpha.water;
}
// * * * * * * * * * * * * * * * * * * * * * * * * * * * * * * * * * * * * * //

dimensions      [0 0 0 0 0 0 0];


internalField   nonuniform List<scalar> 
2619
(
1.31285e-230
5.23758e-228
1.51965e-225
3.76517e-223
6.40544e-221
-2.37429e-162
-2.09136e-157
-7.05526e-153
-6.82095e-148
-7.65157e-146
1.93541e-142
7.14661e-121
2.87138e-118
1.63139e-116
5.01564e-115
5.89584e-114
2.8652e-229
1.70346e-226
6.58309e-224
2.15782e-221
4.40577e-219
7.12238e-217
-4.33335e-164
-2.96892e-159
-7.06766e-155
-1.7943e-151
-9.16234e-140
5.51027e-123
3.8187e-116
7.13248e-114
3.2062e-112
8.46541e-111
9.80478e-110
8.59897e-110
3.02168e-225
1.65298e-222
6.36724e-220
2.0854e-217
4.24169e-215
7.19961e-213
-3.66099e-166
-1.87122e-161
-2.90887e-157
-6.6646e-156
1.59072e-132
2.00277e-115
9.69448e-112
1.12745e-109
3.90018e-108
8.4779e-107
8.48399e-106
1.49614e-105
2.98434e-106
2.34913e-221
1.21115e-218
4.78652e-216
1.49887e-213
2.98904e-211
4.76052e-209
-1.87819e-168
-6.77102e-164
-2.00098e-160
-6.27852e-133
5.77868e-117
3.53649e-110
1.84168e-107
1.49684e-105
4.13676e-104
7.57298e-103
6.66887e-102
1.0313e-101
5.36435e-102
2.07438e-175
6.63662e-172
4.63279e-167
4.5005e-148
1.28624e-143
2.46702e-154
3.96365e-132
2.50242e-126
-8.92674e-124
-4.95163e-128
3.48628e-112
1.15129e-105
2.79107e-103
1.69874e-101
3.86082e-100
6.06583e-99
4.76806e-98
6.50895e-98
3.03064e-98
1.33604e-159
6.21026e-156
1.02252e-150
3.29242e-146
2.09068e-144
1.47839e-152
9.74561e-135
5.29365e-131
3.36137e-126
7.62278e-111
4.49569e-106
2.29802e-101
3.49167e-99
1.66807e-97
3.19152e-96
4.3743e-95
3.10899e-94
3.76733e-94
1.57381e-94
8.44622e-161
3.26137e-157
3.25038e-152
3.71847e-147
4.93326e-145
-1.14232e-140
4.02781e-135
1.3985e-135
3.64945e-124
2.37039e-106
2.71567e-100
3.42138e-97
3.68717e-95
1.43142e-93
2.35075e-92
2.85086e-91
1.85346e-90
2.00263e-90
7.51978e-91
-1.58383e-160
-2.74176e-157
-5.74377e-152
-6.9198e-147
-1.34428e-143
-2.36501e-138
3.49806e-140
-3.5686e-121
2.67915e-105
8.3922e-102
1.04546e-95
4.07545e-93
3.3392e-91
1.08228e-89
1.55058e-88
1.68465e-87
1.01176e-86
9.80454e-87
3.29762e-87
-3.84009e-161
-3.14945e-157
-3.54651e-152
-1.00211e-146
-1.4222e-143
-7.31867e-140
-3.05381e-150
-4.72819e-116
1.98534e-100
2.09567e-97
1.79542e-91
4.01654e-89
2.62249e-87
7.2546e-86
9.19634e-85
9.0503e-84
5.05763e-83
4.44244e-83
1.32031e-83
-2.45981e-156
-1.96541e-152
-4.40393e-148
-6.11915e-142
-6.47874e-139
-7.64043e-142
4.54527e-117
2.30661e-99
8.56815e-96
2.29575e-91
2.1831e-87
3.35898e-85
1.80435e-83
4.33575e-82
4.92345e-81
4.43229e-80
2.30982e-79
1.88335e-79
4.71633e-80
-1.69443e-157
-1.01783e-153
-3.9191e-149
-3.16359e-143
-1.58393e-141
-1.31469e-145
2.96494e-110
1.1592e-94
1.66782e-91
1.7668e-86
2.07283e-83
2.40834e-81
1.09305e-79
2.31927e-78
2.38526e-77
1.98246e-76
9.67926e-76
7.4188e-76
1.27247e-76
-6.73946e-159
-7.22372e-155
-1.898e-150
-8.34427e-145
-1.42295e-145
3.13117e-111
3.29391e-94
3.45244e-90
1.31048e-86
4.04758e-82
1.63111e-79
1.50523e-77
5.88504e-76
1.11665e-74
1.04969e-73
8.11882e-73
3.73864e-72
2.70713e-72
7.33883e-73
4.47509e-77
-5.06303e-81
-6.42467e-83
-3.14517e-85
-6.60192e-128
-1.59999e-123
-7.78281e-118
-6.77243e-113
-5.72447e-117
-3.88305e-105
2.35056e-89
7.00444e-86
9.06203e-82
4.46018e-78
1.07459e-75
8.21776e-74
2.81729e-72
4.84348e-71
4.19943e-70
3.04687e-69
1.33252e-68
9.15881e-69
2.44677e-69
9.44913e-72
2.9115e-74
4.14784e-76
-9.68387e-82
-2.6781e-124
-1.66843e-119
-2.99632e-115
-7.44126e-112
9.42422e-107
1.15384e-90
6.47493e-85
1.08204e-81
1.88552e-77
3.67542e-74
6.1406e-72
3.98054e-70
1.21117e-68
1.90371e-67
1.53383e-66
1.05075e-65
4.39049e-65
2.87832e-65
6.74984e-66
4.53134e-69
1.09663e-70
1.55207e-72
-3.30047e-78
-2.35988e-125
-5.47295e-121
-8.78374e-105
-1.16965e-109
-6.98177e-101
5.28155e-85
1.23537e-80
1.34786e-77
3.67584e-73
2.32668e-70
3.0047e-68
1.70073e-66
4.66001e-65
6.77283e-64
5.11098e-63
3.32966e-62
1.33805e-61
8.40589e-62
1.71467e-62
1.15851e-65
3.89076e-67
5.49557e-69
-9.92094e-75
-3.49343e-127
1.67769e-121
-9.21428e-107
-9.87033e-112
2.11007e-96
2.93536e-80
1.72473e-76
1.46946e-72
4.56564e-69
1.27827e-66
1.30959e-64
6.5382e-63
1.62599e-61
2.19706e-60
1.56157e-59
9.72528e-59
3.77889e-58
2.28577e-58
4.01656e-59
3.49604e-62
1.30132e-63
1.84231e-65
-3.18332e-71
-1.2277e-111
-2.48428e-107
-1.4264e-105
-4.46687e-98
2.67707e-82
8.15842e-76
1.93311e-72
1.51436e-68
2.94583e-65
5.76608e-63
4.96836e-61
2.2314e-59
5.0994e-58
6.47275e-57
4.36503e-56
2.61602e-55
9.89306e-55
5.78895e-55
8.6372e-56
9.9676e-59
4.10512e-60
5.85014e-62
-8.93669e-68
-1.45498e-112
-6.24646e-108
-6.69427e-109
5.13451e-93
1.80184e-77
1.26888e-71
1.74213e-68
1.22113e-64
1.58895e-61
2.29453e-59
1.69068e-57
6.86954e-56
1.45357e-54
1.74309e-53
1.12218e-52
6.51817e-52
2.41834e-51
1.3793e-51
1.7435e-52
2.71832e-55
1.22202e-56
1.76057e-58
-2.3886e-64
4.45333e-95
-4.91739e-94
-6.91914e-100
2.21864e-82
6.24482e-73
1.28507e-67
1.27069e-64
1.27681e-60
6.85281e-58
7.88493e-56
5.09934e-54
1.89776e-52
3.7641e-51
4.34339e-50
2.72129e-49
1.54902e-48
5.64743e-48
3.17582e-48
3.66173e-49
7.15942e-52
3.43472e-53
5.02615e-55
2.14887e-57
5.63443e-96
-4.8317e-96
-1.06893e-92
1.89116e-76
1.58923e-68
1.04189e-63
7.74176e-61
9.04037e-57
2.497e-54
2.38648e-52
1.38098e-50
4.84732e-49
9.2828e-48
1.03513e-46
6.27139e-46
3.47694e-45
1.24181e-44
6.9448e-45
7.98938e-46
1.82341e-48
9.12047e-50
1.3611e-51
5.97432e-54
3.34889e-96
-1.52439e-99
5.23303e-88
9.88369e-72
2.32148e-64
6.97063e-60
4.02356e-57
4.5716e-53
7.92654e-51
6.51641e-49
3.56018e-47
1.18211e-45
2.14559e-44
2.29249e-43
1.3439e-42
7.26844e-42
2.54949e-41
1.4309e-41
1.73145e-42
4.4952e-45
2.28961e-46
3.50016e-48
1.58347e-50
3.57634e-96
-1.75298e-114
4.25442e-83
2.49507e-67
2.3995e-60
3.86224e-56
1.80214e-53
1.54005e-49
2.24376e-47
1.72528e-45
8.61015e-44
2.65399e-42
4.55047e-41
4.65697e-40
2.6499e-39
1.40464e-38
4.86634e-38
2.76985e-38
3.73093e-39
1.11469e-41
5.43754e-43
8.55359e-45
4.00642e-47
1.78817e-96
-2.05316e-90
1.36243e-74
3.98916e-63
1.89448e-56
1.81821e-52
6.96502e-50
5.71454e-46
6.52067e-44
4.23255e-42
1.89752e-40
5.39285e-39
8.77756e-38
8.67339e-37
4.81325e-36
2.51026e-35
8.62867e-35
5.01168e-35
7.57887e-36
2.75857e-38
1.22269e-39
1.98828e-41
9.68673e-44
9.62444e-104
-2.4268e-85
1.72359e-69
4.45375e-59
1.18975e-52
7.24716e-49
2.28175e-46
1.75888e-42
1.60889e-40
9.04124e-39
3.72213e-37
9.87744e-36
1.53554e-34
1.47393e-33
7.98396e-33
4.09567e-32
1.40405e-31
8.24526e-32
1.47911e-32
6.65625e-35
2.60519e-36
4.40024e-38
2.24046e-40
-5.20616e-88
-4.46285e-80
6.23964e-65
3.69212e-55
5.96669e-49
2.47421e-45
1.21331e-42
4.79278e-39
3.56484e-37
1.73804e-35
6.57995e-34
1.62535e-32
2.40713e-31
2.24467e-30
1.21485e-29
6.32614e-29
2.23526e-28
1.44033e-28
4.26855e-29
2.04534e-31
5.26549e-33
9.28256e-35
4.96385e-37
-2.61122e-82
-2.46038e-75
1.2319e-60
2.41074e-51
2.48819e-45
7.21848e-42
9.50541e-39
1.06405e-35
6.74149e-34
2.92378e-32
1.01535e-30
2.4304e-29
3.67655e-28
3.76788e-27
2.43042e-26
1.69719e-25
7.11224e-25
6.10677e-25
2.88514e-25
4.03383e-26
3.35793e-29
1.86889e-31
1.05496e-33
-3.64276e-86
-1.13356e-70
1.59344e-56
1.26023e-47
8.59686e-42
1.79554e-38
6.38573e-35
1.99471e-32
1.09245e-30
4.45173e-29
1.61822e-27
4.97478e-26
1.22686e-24
1.90722e-23
1.54887e-22
1.05408e-21
3.5989e-21
3.23077e-21
1.71992e-21
3.84501e-22
2.30108e-23
6.53946e-26
2.15433e-30
-1.8941e-87
-2.06737e-66
1.46855e-52
5.32999e-44
2.48478e-38
3.87541e-35
1.98945e-31
3.35013e-29
1.80355e-27
1.00768e-25
7.0846e-24
2.99704e-22
5.62847e-21
5.06451e-20
2.42201e-19
9.28878e-19
2.18517e-18
2.05501e-18
1.36184e-18
4.80408e-19
5.86785e-20
1.4833e-21
4.56618e-24
-2.00684e-53
-2.78715e-62
1.01615e-48
1.85366e-40
6.08555e-35
7.28741e-32
4.2189e-28
7.32721e-26
7.98274e-24
6.36313e-22
2.37389e-20
3.84904e-19
3.00327e-18
1.31582e-17
3.61382e-17
8.16857e-17
1.37307e-16
1.33338e-16
1.05336e-16
5.60048e-17
1.44943e-17
1.10778e-18
1.54972e-20
-3.6491e-50
-3.01886e-58
5.42377e-45
5.32276e-37
1.2574e-31
1.08418e-28
2.48248e-24
5.09952e-22
2.96289e-20
7.1676e-19
8.2067e-18
4.97049e-17
1.79546e-16
4.35732e-16
7.72574e-16
1.1788e-15
1.5152e-15
1.48833e-15
1.31011e-15
9.30258e-16
4.31726e-16
8.85524e-17
4.69662e-18
-1.59132e-47
-7.09641e-51
2.29154e-41
1.27463e-33
1.13076e-28
3.89372e-23
1.51669e-20
7.04317e-19
1.07862e-17
8.07159e-17
3.5146e-16
9.94461e-16
2.01675e-15
3.18967e-15
4.17717e-15
4.94978e-15
5.31995e-15
5.18173e-15
4.75648e-15
3.97176e-15
2.69605e-15
1.14983e-15
1.95132e-16
-3.31272e-45
-5.35986e-46
7.7162e-38
2.54895e-30
2.32119e-23
1.78575e-19
8.04905e-18
9.11925e-17
4.69097e-16
1.46533e-15
3.20996e-15
5.39224e-15
7.47876e-15
9.05147e-15
9.92035e-15
1.02587e-14
1.00686e-14
9.54607e-15
8.705e-15
7.69294e-15
6.33615e-15
4.21939e-15
1.6591e-15
-3.28483e-43
-4.72177e-41
2.10689e-34
4.28241e-27
6.93647e-19
4.47095e-17
4.4296e-16
1.78073e-15
4.28482e-15
7.56592e-15
1.08431e-14
1.34178e-14
1.50571e-14
1.58061e-14
1.58092e-14
1.53326e-14
1.44537e-14
1.3219e-14
1.1724e-14
1.02834e-14
9.04139e-15
7.46812e-15
4.82467e-15
-1.36685e-41
-1.79166e-42
4.66085e-31
3.38333e-19
1.18504e-16
1.29906e-15
4.64101e-15
9.53664e-15
1.45702e-14
1.87921e-14
2.15958e-14
2.29502e-14
2.32564e-14
2.27773e-14
2.17698e-14
2.02445e-14
1.83711e-14
1.6301e-14
1.40597e-14
1.19263e-14
1.04419e-14
9.35253e-15
7.69713e-15
-1.68959e-40
-5.39631e-38
4.22874e-28
1.22565e-16
2.33127e-15
8.70339e-15
1.69314e-14
2.41305e-14
2.95548e-14
3.30321e-14
3.4384e-14
3.42768e-14
3.33994e-14
3.15905e-14
2.89311e-14
2.56854e-14
2.22768e-14
1.90741e-14
1.60569e-14
1.32056e-14
1.11707e-14
1.01666e-14
9.26116e-15
-1.4794e-47
-9.29325e-34
1.24778e-17
2.52866e-15
1.22881e-14
2.52973e-14
3.61974e-14
4.38413e-14
4.90366e-14
5.1449e-14
5.13457e-14
5.03506e-14
4.80351e-14
4.40579e-14
3.8551e-14
3.24389e-14
2.66869e-14
2.18362e-14
1.78397e-14
1.4331e-14
1.16798e-14
1.04838e-14
9.91707e-15
-3.49317e-44
2.11422e-37
1.30214e-15
1.38098e-14
3.40276e-14
5.23325e-14
6.52233e-14
7.3726e-14
7.85518e-14
7.91133e-14
7.77065e-14
7.44678e-14
6.89695e-14
6.09476e-14
5.09928e-14
4.08342e-14
3.20738e-14
2.51112e-14
1.97082e-14
1.53618e-14
1.21143e-14
1.06189e-14
1.01649e-14
3.18082e-37
-2.82069e-25
1.18786e-14
4.35669e-14
7.8023e-14
1.03313e-13
1.18877e-13
1.27098e-13
1.28951e-13
1.26817e-13
1.21532e-13
1.12015e-13
9.81138e-14
8.17253e-14
6.52147e-14
5.037e-14
3.8494e-14
2.94302e-14
2.22759e-14
1.65705e-14
1.25189e-14
1.06969e-14
1.02637e-14
7.5487e-34
2.34848e-15
4.71884e-14
1.09837e-13
1.6357e-13
1.95438e-13
2.12729e-13
2.17509e-13
2.15588e-13
2.10077e-13
1.97167e-13
1.73198e-13
1.40347e-13
1.07101e-13
8.02295e-14
6.01983e-14
4.55622e-14
3.4867e-14
2.61964e-14
1.85898e-14
1.30734e-14
1.07723e-14
1.03258e-14
1.37649e-30
2.60361e-14
1.24734e-13
2.25333e-13
2.99932e-13
3.39199e-13
3.629e-13
3.67816e-13
3.64939e-13
3.53187e-13
3.2256e-13
2.68108e-13
2.00638e-13
1.39422e-13
9.65057e-14
6.99274e-14
5.28156e-14
4.09181e-14
3.13611e-14
2.20533e-14
1.42339e-14
1.09446e-14
1.04217e-14
1.90991e-27
8.75537e-14
2.52237e-13
4.12962e-13
5.30255e-13
5.95558e-13
6.4148e-13
6.55305e-13
6.47893e-13
6.05574e-13
5.15444e-13
3.94884e-13
2.75148e-13
1.79879e-13
1.1679e-13
8.08951e-14
6.05672e-14
4.73204e-14
3.69287e-14
2.65431e-14
1.64554e-14
1.14743e-14
1.06514e-14
2.028e-24
1.94793e-13
5.12109e-13
8.43967e-13
1.06659e-12
1.19046e-12
1.27055e-12
1.27574e-12
1.22279e-12
1.04991e-12
7.88198e-13
5.38409e-13
3.50086e-13
2.23937e-13
1.43731e-13
9.63397e-14
7.02556e-14
5.43289e-14
4.21585e-14
3.05229e-14
1.90882e-14
1.25088e-14
1.11056e-14
1.6105e-21
4.43338e-13
1.22258e-12
1.94e-12
2.36646e-12
2.62852e-12
2.74665e-12
2.67743e-12
2.33583e-12
1.75626e-12
1.15344e-12
6.99214e-13
4.23839e-13
2.70737e-13
1.80796e-13
1.22757e-13
8.58975e-14
6.28926e-14
4.66594e-14
3.28928e-14
2.08054e-14
1.36806e-14
1.17486e-14
9.61179e-19
1.44783e-12
3.43807e-12
4.69471e-12
5.329e-12
5.78945e-12
5.88982e-12
5.47164e-12
4.16001e-12
2.66116e-12
1.59569e-12
9.00881e-13
5.0992e-13
3.25267e-13
2.29931e-13
1.63728e-13
1.10786e-13
7.31795e-14
4.97008e-14
3.35714e-14
2.12668e-14
1.44871e-14
1.23567e-14
2.49162e-13
6.44452e-12
1.16777e-11
1.32739e-11
1.33815e-11
1.33698e-11
1.25346e-11
9.90985e-12
6.27846e-12
3.5167e-12
2.09555e-12
1.2419e-12
6.89689e-13
4.2599e-13
3.04919e-13
2.18204e-13
1.39998e-13
8.23555e-14
5.09609e-14
3.31609e-14
2.10799e-14
1.47955e-14
1.26966e-14
6.08572e-12
2.4586e-11
3.61048e-11
3.74984e-11
3.64998e-11
3.53127e-11
2.89425e-11
1.66284e-11
7.80352e-12
3.90656e-12
2.49389e-12
1.72033e-12
1.07249e-12
6.37163e-13
4.14568e-13
2.71009e-13
1.58159e-13
8.56059e-14
4.93861e-14
3.07929e-14
1.98873e-14
1.4704e-14
1.27743e-14
3.70195e-11
7.57869e-11
9.87401e-11
9.73955e-11
9.44811e-11
8.74677e-11
5.74097e-11
2.44985e-11
8.70561e-12
3.98353e-12
2.78304e-12
2.24959e-12
1.67594e-12
1.01896e-12
5.51669e-13
3.0168e-13
1.6216e-13
8.22007e-14
4.4451e-14
2.70285e-14
1.81987e-14
1.43467e-14
1.26078e-14
1.8109e-10
2.98107e-10
3.3165e-10
2.89001e-10
2.55182e-10
1.77346e-10
7.54506e-11
2.64382e-11
7.64655e-12
3.57377e-12
2.9339e-12
2.64742e-12
2.19342e-12
1.38696e-12
6.47924e-13
3.00973e-13
1.43621e-13
6.74022e-14
3.57246e-14
2.24905e-14
1.64418e-14
1.36881e-14
1.2064e-14
1.33971e-09
1.83251e-09
1.58386e-09
1.10731e-09
7.28621e-10
2.64956e-10
7.38142e-11
1.92828e-11
5.68248e-12
3.41366e-12
3.17162e-12
3.03673e-12
2.58719e-12
1.60013e-12
6.84202e-13
2.66341e-13
1.11273e-13
4.97538e-14
2.74265e-14
1.87906e-14
1.4863e-14
1.2721e-14
1.1221e-14
1.39022e-08
1.42301e-08
9.22096e-09
5.27956e-09
1.70028e-09
1.94389e-10
1.99249e-11
5.14204e-12
3.48519e-12
3.36979e-12
3.41858e-12
3.38957e-12
2.75899e-12
1.47093e-12
4.93546e-13
1.59411e-13
6.23065e-14
3.0845e-14
2.01849e-14
1.56435e-14
1.31507e-14
1.14717e-14
1.0264e-14
1.63108e-07
1.25746e-07
6.02349e-08
3.14682e-08
2.84576e-09
4.45e-12
3.56409e-12
3.55057e-12
3.54965e-12
3.65714e-12
3.94531e-12
3.75073e-12
2.79495e-12
1.23643e-12
3.25356e-13
9.01191e-14
3.6024e-14
2.10858e-14
1.58025e-14
1.31082e-14
1.13817e-14
1.01961e-14
9.34797e-15
1.66681e-06
1.09209e-06
3.99971e-07
1.89522e-07
8.47792e-09
1.11172e-11
3.65629e-12
3.56409e-12
4.08095e-12
4.86939e-12
4.82141e-12
3.73992e-12
1.51858e-12
2.70458e-13
5.77891e-14
2.58703e-14
1.80454e-14
1.47525e-14
1.24973e-14
1.08766e-14
9.81776e-15
9.07782e-15
8.13341e-15
1.73368e-05
1.05361e-05
2.7038e-06
1.02731e-06
1.27665e-07
2.82555e-10
8.22621e-12
3.65629e-12
4.96076e-12
5.643e-12
5.34989e-12
3.49874e-12
9.90412e-13
1.10032e-13
2.32195e-14
1.40977e-14
1.19135e-14
1.0716e-14
9.70773e-15
8.94356e-15
8.33309e-15
7.185e-15
4.47068e-15
0.00176867
0.000214995
3.06492e-05
1.63821e-05
4.29664e-06
1.13151e-07
7.58084e-09
1.03964e-10
1.05552e-12
1.02878e-12
3.22804e-13
1.43326e-13
2.54351e-14
1.36622e-14
1.09578e-14
9.69674e-15
8.95138e-15
8.0497e-15
6.01087e-15
2.39345e-15
3.32305e-16
9.04342e-17
1.42273e-17
0.181008
0.0297626
0.00243199
0.0016097
0.00145296
0.561411
0.340215
0.217447
0.171216
0.244611
0.850526
0.721731
0.613771
0.588178
0.699713
0.986724
0.949987
0.936255
0.950392
0.999915
0.991049
0.992503
0.999999
1
1
0.974019
1
0.984018
0.999997
1
0.980423
1
1
0.960625
0.993554
1
0.999999
1
1
1
0.999963
0.98694
0.991438
1
0.999159
0.969838
1
1
1
0.999567
0.811498
0.99822
0.993872
1
1
0.977493
0.998741
0.974451
0.999353
0.999996
0.982389
0.999379
0.993385
0.943945
0.954823
0.998595
0.998333
0.940798
0.934177
0.940437
0.926213
0.948162
0.999974
0.964453
0.999999
0.929136
0.9583
0.936032
0.925951
0.922636
1
0.965342
0.999999
0.999999
1
1
0.972504
0.907928
0.906866
0.999989
0.999987
0.951635
0.918591
0.892218
0.854511
0.988759
0.999961
0.996566
0.999055
0.769358
0.885424
0.914235
0.823215
0.871275
0.9491
0.889164
0.945936
0.903811
0.882133
0.824031
0.875441
0.975561
0.841968
0.905885
0.826378
2.47337e-233
1.30638e-230
5.20817e-228
1.51217e-225
3.7456e-223
6.37117e-221
-1.3779e-162
-1.21683e-157
-4.10595e-153
-4.06675e-148
-2.89833e-151
7.58224e-139
7.13654e-121
2.87287e-118
1.63196e-116
5.02023e-115
5.90829e-114
2.83047e-229
1.68355e-226
6.50537e-224
2.13255e-221
4.35328e-219
7.0408e-217
-2.51483e-164
-1.72743e-159
-4.11314e-155
-1.11176e-151
-1.15864e-140
5.51473e-123
3.81669e-116
7.13734e-114
3.20735e-112
8.47351e-111
9.82525e-110
8.61773e-110
3.0029e-225
1.64259e-222
6.32683e-220
2.07215e-217
4.21501e-215
7.15501e-213
-2.12463e-166
-1.08875e-161
-1.69286e-157
-2.64431e-156
-2.84651e-135
2.00925e-115
9.69157e-112
1.12823e-109
3.90146e-108
8.4859e-107
8.50165e-106
1.4994e-105
2.99222e-106
2.34023e-221
1.20632e-218
4.76614e-216
1.49269e-213
2.99516e-211
4.74135e-209
-1.08999e-168
-3.93963e-164
-1.58571e-161
-1.75112e-132
5.77241e-117
3.54176e-110
1.8413e-107
1.49786e-105
4.13821e-104
7.58016e-103
6.68281e-102
1.03355e-101
5.3784e-102
1.90302e-171
6.05622e-168
4.16108e-163
3.81616e-148
1.23755e-143
5.33444e-147
1.34004e-162
2.42327e-126
-5.55468e-124
-4.72124e-128
3.4824e-112
1.15248e-105
2.79066e-103
1.69994e-101
3.86225e-100
6.07158e-99
4.77804e-98
6.52317e-98
3.03872e-98
1.06212e-159
5.2266e-156
8.88652e-151
2.89783e-146
1.32526e-143
1.14942e-146
7.61204e-143
5.47901e-131
-4.03406e-128
7.61494e-111
4.41171e-106
2.30003e-101
3.4912e-99
1.66924e-97
3.19273e-96
4.37841e-95
3.11551e-94
3.77555e-94
1.57808e-94
6.38757e-161
2.6159e-157
2.78697e-152
3.24855e-147
1.13879e-144
-2.58193e-136
-1.56249e-132
7.2616e-136
-4.38085e-121
2.37097e-106
2.69692e-100
3.42413e-97
3.6868e-95
1.43243e-93
2.35166e-92
2.85355e-91
1.85737e-90
2.00701e-90
7.5406e-91
-1.92257e-156
-3.31604e-153
-5.11874e-148
-4.72682e-143
-1.34751e-139
-1.01876e-134
-1.54746e-135
-4.79645e-121
2.67256e-105
8.39346e-102
1.04243e-95
4.07834e-93
3.33876e-91
1.08304e-89
1.55117e-88
1.68624e-87
1.01389e-86
9.82582e-87
3.30701e-87
-3.28113e-157
-2.21748e-153
-1.71624e-148
-3.52959e-143
-7.25737e-140
-8.00283e-136
-2.10919e-138
-1.744e-116
2.064e-100
2.09583e-97
1.79193e-91
4.01944e-89
2.62228e-87
7.25967e-86
9.2001e-85
9.05885e-84
5.06834e-83
4.45194e-83
1.32427e-83
-2.54882e-152
-1.79982e-148
-3.8207e-144
-2.97815e-138
-5.03622e-135
-3.33843e-139
4.60844e-115
2.29839e-99
8.55581e-96
2.30344e-91
2.18007e-87
3.3612e-85
1.80404e-83
4.33873e-82
4.92555e-81
4.43645e-80
2.31472e-79
1.88728e-79
4.73168e-80
-1.83783e-153
-1.01939e-149
-3.62954e-145
-1.50289e-139
-1.95045e-137
-1.02402e-141
2.98624e-110
1.15816e-94
1.66325e-91
1.77293e-86
2.07034e-83
2.40988e-81
1.0928e-79
2.32088e-78
2.38624e-77
1.98432e-76
9.69976e-76
7.43437e-76
1.27679e-76
-7.4318e-155
-7.29698e-151
-1.82344e-146
-2.79343e-141
-6.02426e-141
-6.17197e-112
3.27007e-94
3.44747e-90
1.2692e-86
4.0533e-82
1.62932e-79
1.50615e-77
5.88412e-76
1.11744e-74
1.05018e-73
8.12654e-73
3.74661e-72
2.71285e-72
7.36111e-73
4.50824e-77
-3.17739e-81
-3.95971e-83
-1.94471e-85
-1.17392e-131
-2.64567e-127
-5.57164e-119
-6.08671e-114
-4.77971e-118
-3.16208e-107
2.34185e-89
7.01869e-86
9.02297e-82
4.46277e-78
1.07347e-75
8.22266e-74
2.81649e-72
4.84672e-71
4.2012e-70
3.04972e-69
1.33535e-68
9.17824e-69
2.45439e-69
9.50687e-72
2.92143e-74
4.16659e-76
-5.91382e-82
-1.55494e-128
-1.3308e-123
-2.84433e-119
-1.43677e-117
-3.43002e-106
1.15565e-90
6.47152e-85
1.08223e-81
1.89465e-77
3.67552e-74
6.1324e-72
3.98252e-70
1.2108e-68
1.90507e-67
1.53444e-66
1.05174e-65
4.39979e-65
2.88446e-65
6.77186e-66
4.56822e-69
1.10037e-70
1.55909e-72
-2.01958e-78
-4.99066e-129
-6.30512e-125
-7.42109e-105
-4.97642e-104
-7.35561e-101
5.28512e-85
1.23408e-80
1.35735e-77
3.67082e-73
2.32392e-70
2.99911e-68
1.70146e-66
4.65717e-65
6.7776e-64
5.11272e-63
3.33276e-62
1.34088e-61
8.42385e-62
1.72051e-62
1.1629e-65
3.90402e-67
5.5204e-69
-6.0508e-75
-3.55121e-130
1.25265e-126
-7.86749e-105
-4.47836e-118
2.0731e-96
2.94565e-80
1.7259e-76
1.49741e-72
4.51576e-69
1.27922e-66
1.30815e-64
6.5454e-63
1.62482e-61
2.19876e-60
1.5621e-59
9.73433e-59
3.78692e-58
2.29067e-58
4.03111e-59
3.50953e-62
1.30576e-63
1.85063e-65
-1.95088e-71
-1.5689e-111
-6.08327e-107
-6.3676e-101
2.58084e-99
2.67682e-82
8.18481e-76
1.93106e-72
1.53192e-68
2.91177e-65
5.76499e-63
4.95753e-61
2.23357e-59
5.09459e-58
6.47768e-57
4.36634e-56
2.61844e-55
9.91413e-55
5.80136e-55
8.67066e-56
1.00077e-58
4.11911e-60
5.87657e-62
-5.47459e-68
-1.33718e-112
-5.40413e-108
4.58582e-115
-3.70294e-93
1.80171e-77
1.27345e-71
1.74308e-68
1.23161e-64
1.57631e-61
2.29461e-59
1.68733e-57
6.87625e-56
1.45231e-54
1.74448e-53
1.12251e-52
6.52421e-52
2.42351e-51
1.38227e-51
1.75083e-52
2.72966e-55
1.22618e-56
1.76853e-58
-1.46265e-64
-1.36196e-95
-7.06666e-89
6.79384e-99
2.21305e-82
5.46468e-73
1.28849e-67
1.27013e-64
1.31156e-60
6.80667e-58
7.88514e-56
5.08933e-54
1.89954e-52
3.76084e-51
4.34679e-50
2.72207e-49
1.55044e-48
5.65953e-48
3.18264e-48
3.67781e-49
7.1901e-52
3.44643e-53
5.04886e-55
2.16052e-57
-2.54551e-97
-8.82336e-91
-6.26066e-92
1.8862e-76
1.43478e-68
1.04571e-63
7.74567e-61
9.18832e-57
2.48254e-54
2.38702e-52
1.37859e-50
4.85251e-49
9.27537e-48
1.03595e-46
6.27336e-46
3.48016e-45
1.24449e-44
6.95976e-45
8.02438e-46
1.8314e-48
9.15155e-50
1.36725e-51
6.00671e-54
1.3954e-96
-2.27111e-94
-2.17753e-87
9.85771e-72
2.22584e-64
6.97885e-60
4.01803e-57
4.62984e-53
7.87788e-51
6.51701e-49
3.55361e-47
1.18327e-45
2.14401e-44
2.29424e-43
1.34432e-42
7.27508e-42
2.555e-41
1.43399e-41
1.73886e-42
4.51483e-45
2.29741e-46
3.51597e-48
1.59205e-50
2.47586e-99
-3.48086e-98
1.15712e-82
2.48873e-67
2.37824e-60
3.88156e-56
1.79986e-53
1.55579e-49
2.23108e-47
1.7257e-45
8.59816e-44
2.6564e-42
4.54776e-41
4.66056e-40
2.65079e-39
1.40592e-38
4.87686e-38
2.77581e-38
3.74607e-39
1.11948e-41
5.45607e-43
8.59223e-45
4.02814e-47
5.83825e-105
-1.9717e-90
1.35989e-74
3.97891e-63
1.86649e-56
1.82472e-52
6.93995e-50
5.74666e-46
6.49134e-44
4.23341e-42
1.89537e-40
5.39713e-39
8.77308e-38
8.67979e-37
4.81492e-36
2.51252e-35
8.6473e-35
5.02241e-35
7.60814e-36
2.76984e-38
1.22685e-39
1.99726e-41
9.73923e-44
9.21351e-109
-2.4535e-85
1.71964e-69
4.44246e-59
1.16765e-52
7.26735e-49
2.28546e-46
1.76755e-42
1.60414e-40
9.03803e-39
3.71824e-37
9.88335e-36
1.53491e-34
1.47498e-33
7.98694e-33
4.09938e-32
1.40708e-31
8.26294e-32
1.48454e-32
6.68224e-35
2.61407e-36
4.42011e-38
2.2526e-40
-8.66958e-82
-2.6622e-80
6.22494e-65
3.68287e-55
6.00003e-49
2.47833e-45
1.21751e-42
4.81055e-39
3.55773e-37
1.7377e-35
6.57537e-34
1.62619e-32
2.40643e-31
2.24621e-30
1.21534e-29
6.33198e-29
2.2402e-28
1.4436e-28
4.28292e-29
2.05275e-31
5.28342e-33
9.32448e-35
4.99075e-37
-1.34469e-76
-2.1958e-75
1.22899e-60
2.40472e-51
2.49581e-45
7.23119e-42
9.57538e-39
1.06743e-35
6.73055e-34
2.9229e-32
1.01477e-30
2.43145e-29
3.67617e-28
3.77063e-27
2.43187e-26
1.69935e-25
7.13099e-25
6.12341e-25
2.894e-25
4.05051e-26
3.37824e-29
1.87732e-31
1.06067e-33
-3.54714e-80
-4.58706e-71
1.58971e-56
1.25708e-47
8.61311e-42
1.79872e-38
6.40473e-35
1.99966e-32
1.09094e-30
4.45053e-29
1.61753e-27
4.97678e-26
1.22747e-24
1.9088e-23
1.55006e-22
1.05533e-21
3.60706e-21
3.23831e-21
1.72442e-21
3.857e-22
2.31056e-23
6.61842e-26
2.166e-30
-3.66661e-82
-2.16521e-66
1.46511e-52
5.31665e-44
2.4904e-38
3.88195e-35
1.99255e-31
3.3569e-29
1.80176e-27
1.00749e-25
7.08385e-24
2.99796e-22
5.63126e-21
5.06743e-20
2.4233e-19
9.29571e-19
2.18845e-18
2.05823e-18
1.36427e-18
4.81483e-19
5.88639e-20
1.49007e-21
4.59975e-24
-5.09669e-49
-2.85016e-62
1.01376e-48
1.84901e-40
6.08528e-35
7.30478e-32
4.22761e-28
7.33836e-26
7.98317e-24
6.36263e-22
2.37382e-20
3.84961e-19
3.00408e-18
1.31623e-17
3.61487e-17
8.17173e-17
1.37426e-16
1.3346e-16
1.05449e-16
5.60821e-17
1.45244e-17
1.11145e-18
1.55728e-20
-8.37596e-46
-3.05231e-58
5.41108e-45
5.3094e-37
1.25814e-31
1.08202e-28
2.48672e-24
5.10369e-22
2.96352e-20
7.16762e-19
8.20659e-18
4.97072e-17
1.79564e-16
4.35787e-16
7.7266e-16
1.17897e-15
1.51581e-15
1.489e-15
1.31083e-15
9.30951e-16
4.32243e-16
8.87398e-17
4.71329e-18
-2.79045e-43
-1.35541e-53
2.2862e-41
1.27142e-33
1.13065e-28
3.90507e-23
1.51864e-20
7.04741e-19
1.07887e-17
8.0721e-17
3.51462e-16
9.94466e-16
2.01678e-15
3.18974e-15
4.17721e-15
4.94985e-15
5.32063e-15
5.18258e-15
4.75759e-15
3.97312e-15
2.69765e-15
1.15118e-15
1.95571e-16
-4.15352e-41
-1.52539e-45
7.6982e-38
2.54255e-30
2.33233e-23
1.78852e-19
8.05601e-18
9.12329e-17
4.69195e-16
1.46545e-15
3.21003e-15
5.39225e-15
7.47871e-15
9.05136e-15
9.92013e-15
1.02585e-14
1.00686e-14
9.54632e-15
8.70562e-15
7.69396e-15
6.33777e-15
4.22173e-15
1.66114e-15
-3.827e-39
-4.72318e-41
2.10189e-34
4.27157e-27
6.94557e-19
4.47486e-17
4.43195e-16
1.78125e-15
4.28545e-15
7.56641e-15
1.08434e-14
1.34179e-14
1.50571e-14
1.5806e-14
1.58091e-14
1.53324e-14
1.44534e-14
1.32188e-14
1.17241e-14
1.02838e-14
9.04231e-15
7.46989e-15
4.82749e-15
-2.05628e-37
-2.63395e-43
4.64995e-31
3.38262e-19
1.18578e-16
1.29961e-15
4.64223e-15
9.53806e-15
1.45712e-14
1.87926e-14
2.15959e-14
2.29502e-14
2.32564e-14
2.27773e-14
2.177e-14
2.02449e-14
1.83715e-14
1.63011e-14
1.40595e-14
1.19264e-14
1.04423e-14
9.35345e-15
7.6991e-15
-4.36574e-36
-6.39044e-38
8.43848e-28
1.22578e-16
2.33178e-15
8.70456e-15
1.69328e-14
2.41315e-14
2.95551e-14
3.30317e-14
3.43835e-14
3.42762e-14
3.33989e-14
3.15904e-14
2.89315e-14
2.56864e-14
2.22782e-14
1.90751e-14
1.60572e-14
1.32055e-14
1.11708e-14
1.0167e-14
9.26219e-15
-4.22347e-35
-1.15977e-33
1.24436e-17
2.52852e-15
1.22881e-14
2.52972e-14
3.61972e-14
4.38409e-14
4.90357e-14
5.1448e-14
5.13448e-14
5.03496e-14
4.80341e-14
4.40572e-14
3.85511e-14
3.24399e-14
2.66889e-14
2.18383e-14
1.78408e-14
1.43311e-14
1.16797e-14
1.0484e-14
9.91758e-15
-4.85166e-35
-2.26669e-38
1.30124e-15
1.38074e-14
3.40245e-14
5.23296e-14
6.52211e-14
7.37243e-14
7.85506e-14
7.91127e-14
7.77064e-14
7.44685e-14
6.89702e-14
6.09479e-14
5.09932e-14
4.0835e-14
3.20754e-14
2.51136e-14
1.971e-14
1.53623e-14
1.21142e-14
1.06189e-14
1.01652e-14
-2.08395e-41
-1.71146e-25
1.18732e-14
4.35573e-14
7.80134e-14
1.03305e-13
1.18871e-13
1.27094e-13
1.28948e-13
1.26815e-13
1.21531e-13
1.12016e-13
9.81182e-14
8.17293e-14
6.52167e-14
5.0371e-14
3.84951e-14
2.9432e-14
2.22781e-14
1.65716e-14
1.25189e-14
1.06969e-14
1.02639e-14
7.54624e-34
2.34299e-15
4.717e-14
1.09815e-13
1.63553e-13
1.95426e-13
2.12719e-13
2.17502e-13
2.15581e-13
2.10071e-13
1.97159e-13
1.73191e-13
1.40348e-13
1.07107e-13
8.02344e-14
6.01999e-14
4.55626e-14
3.48678e-14
2.61982e-14
1.85915e-14
1.30738e-14
1.07723e-14
1.03258e-14
1.37676e-30
2.60189e-14
1.24702e-13
2.25306e-13
2.99915e-13
3.39189e-13
3.62892e-13
3.6781e-13
3.64933e-13
3.5318e-13
3.22549e-13
2.68088e-13
2.0062e-13
1.3942e-13
9.6512e-14
6.99301e-14
5.28153e-14
4.09178e-14
3.1362e-14
2.20551e-14
1.4235e-14
1.09448e-14
1.04217e-14
1.9105e-27
8.75288e-14
2.52212e-13
4.12951e-13
5.30252e-13
5.95558e-13
6.41481e-13
6.55306e-13
6.47894e-13
6.05574e-13
5.15441e-13
3.94867e-13
2.75114e-13
1.79858e-13
1.16792e-13
8.08997e-14
6.0567e-14
4.7319e-14
3.69285e-14
2.65446e-14
1.64572e-14
1.14748e-14
1.06515e-14
2.02878e-24
1.94777e-13
5.121e-13
8.43964e-13
1.06659e-12
1.19046e-12
1.27055e-12
1.27574e-12
1.2228e-12
1.04992e-12
7.88203e-13
5.38405e-13
3.50053e-13
2.23897e-13
1.4372e-13
9.63468e-14
7.02588e-14
5.43277e-14
4.21575e-14
3.05238e-14
1.909e-14
1.25096e-14
1.11058e-14
1.61111e-21
4.43324e-13
1.22254e-12
1.93995e-12
2.36643e-12
2.62851e-12
2.74664e-12
2.67742e-12
2.33582e-12
1.75626e-12
1.15344e-12
6.99219e-13
4.23817e-13
2.70691e-13
1.8077e-13
1.22763e-13
8.59089e-14
6.28955e-14
4.66585e-14
3.28929e-14
2.08067e-14
1.36814e-14
1.17488e-14
9.61428e-19
1.44781e-12
3.43803e-12
4.6947e-12
5.32899e-12
5.78942e-12
5.88977e-12
5.47157e-12
4.15996e-12
2.66114e-12
1.59569e-12
9.00886e-13
5.09913e-13
3.25231e-13
2.29898e-13
1.63725e-13
1.10804e-13
7.319e-14
4.97016e-14
3.35712e-14
2.12677e-14
1.44877e-14
1.23569e-14
2.49222e-13
6.44493e-12
1.16782e-11
1.32743e-11
1.33817e-11
1.33698e-11
1.25347e-11
9.90984e-12
6.27841e-12
3.51667e-12
2.09554e-12
1.2419e-12
6.89693e-13
4.25978e-13
3.04897e-13
2.18197e-13
1.40015e-13
8.23698e-14
5.0963e-14
3.31604e-14
2.10805e-14
1.47959e-14
1.26968e-14
6.08579e-12
2.45868e-11
3.61055e-11
3.74991e-11
3.65005e-11
3.53139e-11
2.89437e-11
1.66291e-11
7.80368e-12
3.90654e-12
2.49389e-12
1.72034e-12
1.0725e-12
6.37167e-13
4.14562e-13
2.71006e-13
1.58173e-13
8.56197e-14
4.93882e-14
3.07923e-14
1.98876e-14
1.47044e-14
1.27745e-14
3.70199e-11
7.57865e-11
9.87395e-11
9.73952e-11
9.44864e-11
8.74725e-11
5.74116e-11
2.44998e-11
8.70603e-12
3.98355e-12
2.78304e-12
2.2496e-12
1.67595e-12
1.01897e-12
5.51667e-13
3.0168e-13
1.62174e-13
8.22116e-14
4.44518e-14
2.70279e-14
1.8199e-14
1.4347e-14
1.26079e-14
1.81092e-10
2.98124e-10
3.31664e-10
2.89006e-10
2.55217e-10
1.7735e-10
7.54509e-11
2.64393e-11
7.64721e-12
3.57386e-12
2.93392e-12
2.64744e-12
2.19345e-12
1.38698e-12
6.47923e-13
3.00976e-13
1.43632e-13
6.74075e-14
3.5724e-14
2.24903e-14
1.64421e-14
1.36883e-14
1.2064e-14
1.33972e-09
1.83276e-09
1.58407e-09
1.10739e-09
7.28711e-10
2.64942e-10
7.38025e-11
1.92824e-11
5.68298e-12
3.41373e-12
3.17165e-12
3.03676e-12
2.58722e-12
1.60014e-12
6.84203e-13
2.66346e-13
1.1128e-13
4.9755e-14
2.7426e-14
1.87908e-14
1.48632e-14
1.2721e-14
1.12211e-14
1.39024e-08
1.4232e-08
9.2224e-09
5.27996e-09
1.69988e-09
1.94237e-10
1.99122e-11
5.14191e-12
3.48541e-12
3.36979e-12
3.41863e-12
3.38962e-12
2.75904e-12
1.47094e-12
4.93547e-13
1.59417e-13
6.23096e-14
3.08448e-14
2.01851e-14
1.56438e-14
1.31508e-14
1.14717e-14
1.02641e-14
1.63114e-07
1.25769e-07
6.02393e-08
3.14685e-08
2.84292e-09
4.44973e-12
3.5644e-12
3.55088e-12
3.54995e-12
3.65757e-12
3.94556e-12
3.75085e-12
2.795e-12
1.23644e-12
3.25358e-13
9.01223e-14
3.60246e-14
2.1086e-14
1.58028e-14
1.31083e-14
1.13817e-14
1.01961e-14
9.34797e-15
1.66699e-06
1.09235e-06
3.99962e-07