/*--------------------------------*- C++ -*----------------------------------*\
| =========                 |                                                 |
| \\      /  F ield         | OpenFOAM: The Open Source CFD Toolbox           |
|  \\    /   O peration     | Version:  v2012                                 |
|   \\  /    A nd           | Website:  www.openfoam.com                      |
|    \\/     M anipulation  |                                                 |
\*---------------------------------------------------------------------------*/
FoamFile
{
    version     2.0;
    format      ascii;
    class       surfaceScalarField;
    location    "0.05";
    object      phi;
}
// * * * * * * * * * * * * * * * * * * * * * * * * * * * * * * * * * * * * * //

dimensions      [0 3 -1 0 0 0 0];
oriented        oriented;


internalField   nonuniform List<scalar> 
6347
(
1.69396e-15
1.60754e-12
-4.14447e-16
4.07606e-14
2.95322e-12
-6.2954e-17
1.35605e-13
4.13929e-12
8.54933e-16
3.46979e-13
5.029e-12
4.03519e-15
6.16481e-13
5.52812e-12
-3.87362e-15
1.0535e-12
5.57757e-12
5.40605e-16
1.63466e-12
5.10948e-12
-1.9087e-16
2.43248e-12
4.09737e-12
-5.13311e-16
3.40472e-12
2.44444e-12
8.62844e-16
4.6115e-12
1.26467e-13
-2.2313e-15
6.06622e-12
-2.90678e-12
-1.93163e-15
7.79232e-12
-6.70799e-12
-4.10696e-15
9.82923e-12
-1.12975e-11
-1.36256e-15
1.21828e-11
-1.6733e-11
8.68764e-16
1.48624e-11
-2.30494e-11
-5.38216e-17
-3.0257e-11
6.10801e-16
-2.89623e-15
3.85152e-13
-4.28242e-17
3.55523e-15
1.60081e-12
-6.58177e-17
4.78259e-14
2.90986e-12
2.12184e-16
1.66809e-13
4.02935e-12
1.1661e-15
3.66597e-13
4.82384e-12
-1.22762e-15
6.8017e-13
5.2066e-12
-3.37267e-16
1.14693e-12
5.11186e-12
2.10055e-16
1.77366e-12
4.47213e-12
-1.59122e-15
2.62668e-12
3.24704e-12
9.83516e-16
3.68603e-12
1.37045e-12
-2.26635e-15
5.00413e-12
-1.1984e-12
-2.75843e-16
6.5881e-12
-4.49906e-12
-1.30605e-15
8.45895e-12
-8.59204e-12
-1.20416e-15
1.06442e-11
-1.35035e-11
-2.80329e-15
1.31753e-11
-1.92639e-11
3.29269e-16
1.60349e-11
-2.59117e-11
-6.42033e-17
1.92422e-11
-3.3465e-11
1.98391e-16
-4.19316e-11
5.71906e-16
-2.70918e-15
3.87964e-13
-5.38135e-17
6.43106e-15
1.59162e-12
-1.47646e-17
5.76026e-14
2.85837e-12
2.46083e-16
1.84524e-13
3.90649e-12
2.85928e-16
4.10053e-13
4.59885e-12
-4.57524e-17
7.51498e-13
4.85557e-12
-1.02305e-15
1.25965e-12
4.59793e-12
-5.68331e-16
1.95759e-12
3.77834e-12
7.32268e-16
2.87977e-12
2.3366e-12
1.14008e-15
4.01508e-12
2.21375e-13
-1.1984e-15
5.43328e-12
-2.61307e-12
2.34505e-16
7.13065e-12
-6.20816e-12
-8.48549e-16
9.14561e-12
-1.06148e-11
-1.05574e-15
1.14835e-11
-1.5855e-11
-1.44344e-15
1.41948e-11
-2.19696e-11
6.46257e-16
1.72582e-11
-2.89746e-11
5.71139e-16
2.06896e-11
-3.68956e-11
1.89481e-16
2.44866e-11
-4.57278e-11
4.34349e-16
-5.54832e-11
4.26233e-16
-2.59106e-15
3.90607e-13
-1.88422e-17
9.89833e-15
1.57973e-12
6.29125e-17
6.9538e-14
2.79776e-12
-4.27771e-18
2.14877e-13
3.76816e-12
9.39674e-16
4.64762e-13
4.34794e-12
-4.91933e-16
8.44555e-13
4.46461e-12
-7.83514e-16
1.41095e-12
4.03534e-12
2.68109e-16
2.17161e-12
3.00993e-12
-6.96733e-16
3.17925e-12
1.34487e-12
2.14168e-15
4.42169e-12
-1.03366e-12
-1.67313e-15
5.96166e-12
-4.14728e-12
1.09457e-15
7.79702e-12
-8.05837e-12
-1.80947e-15
9.96409e-12
-1.27896e-11
-5.03431e-16
1.24782e-11
-1.83804e-11
-1.50148e-15
1.53722e-11
-2.48596e-11
8.52347e-16
1.8644e-11
-3.22433e-11
5.94585e-16
2.22978e-11
-4.05466e-11
5.50777e-16
2.63339e-11
-4.97645e-11
2.03999e-16
-5.98956e-11
3.14374e-16
-2.32164e-15
3.93056e-13
-2.15401e-17
1.22667e-14
1.56489e-12
7.16481e-18
8.22788e-14
2.72833e-12
3.02678e-16
2.41273e-13
3.61548e-12
5.20607e-16
5.18509e-13
4.06624e-12
-1.01312e-15
9.39933e-13
4.03001e-12
-1.02421e-15
1.54375e-12
3.42486e-12
-3.30133e-16
2.37229e-12
2.19237e-12
1.09633e-15
3.45479e-12
2.76869e-13
1.69712e-15
4.80261e-12
-2.38769e-12
-4.25454e-16
6.46351e-12
-5.80457e-12
2.8015e-16
8.4473e-12
-1.00473e-11
-8.0556e-18
1.0787e-11
-1.51285e-11
-9.06484e-18
1.349e-11
-2.10963e-11
-1.18723e-15
1.6596e-11
-2.79613e-11
5.73823e-16
2.01011e-11
-3.57453e-11
8.84973e-16
2.40055e-11
-4.44478e-11
4.70646e-16
2.83074e-11
-5.40673e-11
2.88534e-16
-6.45865e-11
3.0577e-16
-2.27382e-15
3.95378e-13
1.27988e-17
1.52723e-14
1.54783e-12
3.99376e-17
9.1973e-14
2.65174e-12
1.2639e-17
2.59102e-13
3.44408e-12
-1.20096e-16
5.64375e-13
3.75993e-12
5.66837e-16
1.07475e-12
3.57392e-12
5.35409e-15
1.71537e-12
2.73768e-12
-6.04115e-15
2.62766e-12
1.28653e-12
2.2348e-15
3.79798e-12
-9.15278e-13
-3.27384e-15
5.28486e-12
-3.84883e-12
3.33743e-15
7.09191e-12
-7.59973e-12
1.96876e-15
9.22963e-12
-1.21875e-11
-5.38957e-16
1.17562e-11
-1.76455e-11
1.58075e-15
1.4652e-11
-2.40114e-11
-2.30198e-15
1.79801e-11
-3.12847e-11
9.77169e-16
2.1723e-11
-3.94869e-11
4.81495e-16
2.58854e-11
-4.86079e-11
5.85166e-16
3.04631e-11
-5.86448e-11
3.68911e-16
-6.95669e-11
2.06102e-16
-2.01392e-15
3.97502e-13
3.67569e-17
1.86968e-14
1.52654e-12
-9.43979e-18
1.08993e-13
2.56068e-12
-1.93982e-17
3.12767e-13
3.24299e-12
3.10839e-16
6.45844e-13
3.43202e-12
9.63762e-16
1.19512e-12
3.06184e-12
3.36759e-15
1.9022e-12
1.97892e-12
-6.65999e-15
2.89097e-12
2.75781e-13
-5.75117e-16
4.15827e-12
-2.20151e-12
-2.4647e-15
5.75569e-12
-5.43225e-12
1.83567e-15
7.71439e-12
-9.54018e-12
2.01274e-15
1.00189e-11
-1.45046e-11
-9.52849e-16
1.27457e-11
-2.03649e-11
6.80167e-16
1.58649e-11
-2.7148e-11
-1.4981e-15
1.94438e-11
-3.48544e-11
1.12485e-15
2.34506e-11
-4.34939e-11
5.72651e-16
2.7899e-11
-5.30541e-11
4.78773e-16
3.27769e-11
-6.35222e-11
4.58445e-16
-7.48597e-11
3.158e-16
-1.56391e-15
3.99402e-13
-1.25302e-16
2.16196e-14
1.50325e-12
-5.68855e-17
1.11065e-13
2.47282e-12
3.31209e-16
3.09832e-13
3.04321e-12
3.73014e-16
6.6836e-13
3.06284e-12
-1.37434e-15
1.26532e-12
2.47253e-12
1.56621e-15
2.07093e-12
1.17619e-12
1.50025e-15
3.24193e-12
-7.72453e-13
1.14317e-14
4.56713e-12
-3.60477e-12
-9.11446e-15
6.3044e-12
-7.16999e-12
1.83301e-15
8.41689e-12
-1.16753e-11
-3.06363e-15
1.09294e-11
-1.70125e-11
8.5044e-16
1.38637e-11
-2.33064e-11
-2.40893e-16
1.72272e-11
-3.05157e-11
-8.44163e-16
2.10686e-11
-3.86856e-11
1.7054e-15
2.5352e-11
-4.77811e-11
1.05358e-17
3.01015e-11
-5.78012e-11
5.63364e-16
3.52941e-11
-6.87165e-11
2.48869e-16
-8.04816e-11
1.81667e-16
-1.33589e-15
4.00414e-13
3.25646e-16
3.11127e-14
1.47042e-12
2.01515e-16
1.56415e-13
2.34814e-12
-2.58011e-16
3.99245e-13
2.78321e-12
-2.52461e-15
8.34876e-13
2.64129e-12
2.69282e-15
1.45216e-12
1.85642e-12
4.35143e-16
2.34055e-12
2.96709e-13
1.04819e-15
3.60445e-12
-1.95008e-12
9.21424e-15
5.04289e-12
-5.11242e-12
-8.5273e-15
6.92977e-12
-9.0479e-12
3.049e-15
9.21973e-12
-1.39566e-11
-2.05177e-16
1.19209e-11
-1.97159e-11
7.78749e-16
1.50906e-11
-2.6474e-11
1.67415e-16
1.87087e-11
-3.41404e-11
-7.05012e-16
2.28306e-11
-4.2796e-11
1.67943e-15
2.74134e-11
-5.23658e-11
3.12759e-16
3.24854e-11
-6.28687e-11
8.33466e-16
3.80145e-11
-7.42468e-11
2.9404e-16
-8.64524e-11
3.39384e-16
-6.42712e-16
4.00871e-13
1.24682e-16
3.60642e-14
1.43353e-12
1.48257e-16
1.60422e-13
2.22617e-12
2.79044e-16
4.02105e-13
2.52328e-12
-2.3474e-15
8.71391e-13
2.17469e-12
8.27197e-16
1.57504e-12
1.15758e-12
9.31615e-16
2.55558e-12
-6.73898e-13
1.70173e-15
3.92554e-12
-3.24969e-12
6.55463e-15
5.49524e-12
-6.77124e-12
-1.07613e-14
7.55395e-12
-1.10917e-11
4.50809e-15
1.00403e-11
-1.64391e-11
-3.83271e-16
1.29675e-11
-2.26415e-11
2.15033e-16
1.64e-11
-2.98929e-11
1.93929e-15
2.02929e-11
-3.80438e-11
-4.70404e-16
2.47237e-11
-4.72147e-11
1.5868e-15
2.96404e-11
-5.72851e-11
2.82012e-16
3.50664e-11
-6.82879e-11
1.08853e-15
4.09599e-11
-8.01409e-11
5.22093e-16
-9.2796e-11
3.06873e-16
-4.6722e-16
4.01106e-13
1.87092e-16
4.24088e-14
1.39021e-12
1.29054e-16
1.87365e-13
2.0813e-12
-1.03978e-16
4.81067e-13
2.21816e-12
-1.50157e-15
9.96517e-13
1.6626e-12
9.4309e-16
1.78626e-12
3.77682e-13
1.593e-15
2.85342e-12
-1.741e-12
4.00291e-16
4.35907e-12
-4.68018e-12
7.47384e-15
6.0812e-12
-8.57424e-12
-9.93772e-15
8.3326e-12
-1.33245e-11
4.83548e-15
1.10364e-11
-1.91295e-11
5.91412e-16
1.42063e-11
-2.58104e-11
1.22396e-17
1.79107e-11
-3.35816e-11
2.50793e-15
2.20998e-11
-4.22387e-11
-4.06203e-16
2.68482e-11
-5.19483e-11
2.17066e-15
3.21031e-11
-6.2542e-11
1.25912e-16
3.78926e-11
-7.40691e-11
1.53663e-15
4.41648e-11
-8.64131e-11
3.62374e-16
-9.95293e-11
6.30644e-16
3.35899e-16
4.00564e-13
1.67863e-16
4.98538e-14
1.34009e-12
1.37482e-16
2.10382e-13
1.92179e-12
1.30493e-16
5.27407e-13
1.88914e-12
-1.70065e-15
1.11154e-12
1.08937e-12
2.09642e-15
2.01556e-12
-5.20852e-13
3.61349e-16
3.1474e-12
-2.86342e-12
2.11089e-15
4.79035e-12
-6.23583e-12
8.63367e-15
6.64892e-12
-1.05205e-11
-1.09596e-14
9.09073e-12
-1.57467e-11
5.01255e-15
1.20143e-11
-2.20422e-11
-3.93117e-17
1.54486e-11
-2.92396e-11
1.98656e-15
1.94478e-11
-3.75641e-11
1.70208e-15
2.39771e-11
-4.67741e-11
4.82519e-17
2.90912e-11
-5.7053e-11
1.15148e-15
3.47337e-11
-6.81937e-11
-2.92478e-16
4.09329e-11
-8.02601e-11
1.13577e-15
4.76212e-11
-9.3104e-11
4.71985e-16
5.47763e-11
-1.06685e-10
3.32029e-16
6.23373e-11
-1.20872e-10
6.67839e-16
7.02376e-11
-1.35554e-10
5.12796e-16
7.83965e-11
-1.50613e-10
4.57369e-16
-1.65881e-10
3.70572e-16
1.11905e-15
3.99256e-13
1.82404e-16
5.93968e-14
1.2816e-12
9.37838e-17
2.43522e-13
1.73607e-12
-2.32393e-16
6.1605e-13
1.50519e-12
-1.60573e-15
1.20255e-12
5.06163e-13
9.9193e-16
2.10965e-12
-1.41033e-12
3.27934e-15
3.37908e-12
-4.11876e-12
1.0017e-15
5.24529e-12
-8.04296e-12
6.04136e-15
7.29486e-12
-1.26723e-11
-1.20837e-14
1.00051e-11
-1.84345e-11
4.37124e-15
1.32008e-11
-2.52263e-11
1.31101e-15
1.69439e-11
-3.2985e-11
-2.46006e-16
2.1264e-11
-4.18751e-11
1.71082e-15
2.61487e-11
-5.16664e-11
-9.35729e-16
3.16342e-11
-6.25344e-11
1.30329e-15
3.76744e-11
-7.42429e-11
-8.69547e-16
4.4288e-11
-8.68662e-11
1.61418e-15
5.14059e-11
-1.00224e-10
1.61398e-16
5.89954e-11
-1.14275e-10
7.11279e-16
6.69889e-11
-1.28864e-10
5.20708e-16
7.53089e-11
-1.43874e-10
6.6701e-16
8.38655e-11
-1.5917e-10
4.7119e-16
-1.74573e-10
6.21581e-16
3.04265e-15
3.96231e-13
6.70351e-17
7.19945e-14
1.21181e-12
2.58629e-17
2.75849e-13
1.53233e-12
9.55021e-17
7.09094e-13
1.07061e-12
-1.04127e-16
1.43385e-12
-2.13776e-13
3.98348e-16
2.46605e-12
-2.47759e-12
-3.33404e-15
4.00797e-12
-5.61889e-12
7.47818e-15
6.00723e-12
-9.97604e-12
4.15005e-15
8.15233e-12
-1.48898e-11
-7.86433e-15
1.10442e-11
-2.13263e-11
2.178e-15
1.44591e-11
-2.86289e-11
-4.4089e-16
1.85e-11
-3.70293e-11
1.57233e-15
2.31465e-11
-4.65199e-11
-3.21139e-16
2.84265e-11
-5.6946e-11
1.09432e-15
3.43272e-11
-6.84292e-11
6.53222e-16
4.08163e-11
-8.07405e-11
-1.13631e-16
4.78946e-11
-9.39358e-11
1.23726e-15
5.54858e-11
-1.07817e-10
5.94344e-16
6.35472e-11
-1.22337e-10
3.8451e-16
7.20005e-11
-1.37318e-10
7.05472e-16
8.07618e-11
-1.52636e-10
5.23803e-16
8.97288e-11
-1.68139e-10
6.24499e-16
-1.83638e-10
5.1395e-16
3.87405e-15
3.9218e-13
8.11195e-17
8.48775e-14
1.13195e-12
1.49492e-16
3.17433e-13
1.29775e-12
-2.28699e-16
8.20851e-13
5.58904e-13
-8.96593e-16
1.58588e-12
-9.82398e-13
-8.47878e-17
2.6644e-12
-3.57041e-12
-1.74553e-17
4.20287e-12
-7.11897e-12
6.18433e-15
6.19914e-12
-1.18922e-11
6.45541e-15
8.62386e-12
-1.7405e-11
-1.20921e-14
1.19679e-11
-2.46637e-11
3.83822e-15
1.57723e-11
-3.24312e-11
-4.96151e-16
2.0239e-11
-4.14913e-11
8.04671e-16
2.53007e-11
-5.15845e-11
9.87207e-16
3.10223e-11
-6.26651e-11
-1.06678e-16
3.73715e-11
-7.47756e-11
1.32142e-15
4.43319e-11
-8.77095e-11
-8.73211e-16
5.18873e-11
-1.01485e-10
1.59131e-15
5.99665e-11
-1.15898e-10
2.79676e-16
6.8511e-11
-1.30882e-10
8.48124e-16
7.74374e-11
-1.46243e-10
6.73281e-16
8.66472e-11
-1.61845e-10
8.47568e-16
9.60292e-11
-1.77521e-10
6.36821e-16
-1.93072e-10
7.07652e-16
5.94483e-15
3.86042e-13
1.56051e-16
9.8422e-14
1.03902e-12
1.25555e-16
3.57976e-13
1.03808e-12
1.18022e-16
8.79743e-13
3.18209e-14
-9.34567e-16
1.71001e-12
-1.80266e-12
1.33623e-15
3.02006e-12
-4.87832e-12
7.16556e-16
4.87574e-12
-8.96414e-12
1.3323e-15
7.29766e-12
-1.43326e-11
-7.87927e-16
1.01313e-11
-2.0275e-11
-2.63126e-15
1.34784e-11
-2.79839e-11
2.17271e-15
1.752e-11
-3.64532e-11
2.8721e-15
2.2251e-11
-4.62384e-11
-1.25871e-15
2.76898e-11
-5.70074e-11
1.15661e-15
3.38345e-11
-6.88178e-11
6.98126e-16
4.06543e-11
-8.1591e-11
4.11788e-16
4.81237e-11
-9.5186e-11
1.55175e-16
5.62006e-11
-1.09555e-10
1.08421e-15
6.481e-11
-1.24509e-10
7.20102e-16
7.3875e-11
-1.39948e-10
4.88508e-16
8.33014e-11
-1.5567e-10
7.50957e-16
9.29795e-11
-1.71523e-10
6.49512e-16
1.02786e-10
-1.87328e-10
7.34398e-16
-2.02876e-10
6.41359e-16
8.75774e-15
3.77624e-13
-1.41495e-16
1.1192e-13
9.35806e-13
-1.26965e-16
4.28502e-13
7.19368e-13
3.03647e-16
1.04385e-12
-5.6928e-13
2.4953e-15
2.0128e-12
-2.79168e-12
-3.37405e-15
3.47114e-12
-6.31015e-12
3.43779e-15
5.29798e-12
-1.08105e-11
-5.01816e-16
7.67663e-12
-1.67053e-11
1.17877e-15
1.08237e-11
-2.3482e-11
-7.19469e-15
1.46322e-11
-3.1773e-11
2.65449e-15
1.91287e-11
-4.09547e-11
7.27158e-16
2.43498e-11
-5.14647e-11
-1.35223e-15
3.02835e-11
-6.29316e-11
2.06406e-15
3.69516e-11
-7.54901e-11
-2.14508e-17
4.43048e-11
-8.89428e-11
8.87379e-16
5.23276e-11
-1.03217e-10
-4.49195e-16
6.09572e-11
-1.18181e-10
1.21722e-15
7.01213e-11
-1.33674e-10
4.94073e-16
7.97241e-11
-1.49551e-10
7.98347e-16
8.9664e-11
-1.6561e-10
7.11206e-16
9.98155e-11
-1.81675e-10
8.53885e-16
1.10045e-10
-1.97558e-10
7.30005e-16
-2.1304e-10
7.45162e-16
1.09258e-14
3.66958e-13
-4.07592e-17
1.30948e-13
8.14982e-13
-5.97083e-17
4.84576e-13
3.64209e-13
2.63169e-16
1.1479e-12
-1.22231e-12
1.54605e-15
2.23765e-12
-3.8923e-12
-1.80492e-15
3.82926e-12
-7.88381e-12
3.02305e-15
5.94497e-12
-1.29336e-11
2.25892e-16
8.70195e-12
-1.94534e-11
1.26478e-15
1.20782e-11
-2.69108e-11
-5.51302e-15
1.62639e-11
-3.59216e-11
3.7381e-15
2.11363e-11
-4.58202e-11
1.62977e-15
2.68041e-11
-5.71406e-11
-3.64585e-16
3.3214e-11
-6.93368e-11
7.62488e-16
4.04195e-11
-8.26939e-11
1.05133e-15
4.83274e-11
-9.68477e-11
7.66431e-16
5.69333e-11
-1.11829e-10
9.0732e-17
6.61509e-11
-1.27395e-10
9.85445e-16
7.59017e-11
-1.43426e-10
6.83067e-16
8.60701e-11
-1.59722e-10
5.45991e-16
9.65424e-11
-1.76084e-10
6.81513e-16
1.07179e-10
-1.92312e-10
7.43842e-16
1.17831e-10
-2.08211e-10
7.59757e-16
-2.23553e-10
7.33536e-16
1.26762e-14
3.54375e-13
-4.85224e-17
1.5128e-13
6.76766e-13
5.89324e-17
5.42439e-13
-2.88395e-14
2.49983e-16
1.2905e-12
-1.96066e-12
1.66054e-15
2.50073e-12
-5.10834e-12
-1.20132e-15
4.25984e-12
-9.63143e-12
1.85434e-15
6.607e-12
-1.52876e-11
4.16008e-16
9.62553e-12
-2.24602e-11
1.73564e-15
1.33329e-11
-3.06715e-11
-5.5911e-15
1.78991e-11
-4.04526e-11
3.74984e-15
2.32222e-11
-5.11415e-11
1.36122e-15
2.93993e-11
-6.33299e-11
-8.66299e-16
3.63651e-11
-7.63048e-11
-2.59465e-18
4.41803e-11
-9.05107e-11
7.57047e-16
5.27153e-11
-1.05385e-10
3.1675e-16
6.19703e-11
-1.2109e-10
1.01301e-16
7.18294e-11
-1.37252e-10
9.39064e-16
8.22087e-11
-1.53807e-10
7.60065e-16
9.29739e-11
-1.70489e-10
7.26337e-16
1.03997e-10
-1.87108e-10
8.04332e-16
1.15122e-10
-2.03437e-10
8.28003e-16
1.2619e-10
-2.1928e-10
8.14653e-16
-2.34396e-10
7.78481e-16
1.53389e-14
3.39213e-13
-3.2874e-17
1.73252e-13
5.18925e-13
1.48308e-17
6.21173e-13
-4.78259e-13
2.80106e-16
1.4551e-12
-2.78751e-12
1.3126e-15
2.82958e-12
-6.48723e-12
-1.18859e-15
4.81435e-12
-1.16093e-11
2.25589e-15
7.38012e-12
-1.78684e-11
-1.15366e-15
1.07158e-11
-2.57884e-11
1.29017e-15
1.48404e-11
-3.48504e-11
-5.09869e-15
1.98747e-11
-4.54523e-11
3.4344e-15
2.57421e-11
-5.70048e-11
2.19606e-15
3.24918e-11
-7.0085e-11
-1.24985e-15
4.00672e-11
-8.38796e-11
1.02284e-15
4.85104e-11
-9.89544e-11
7.92356e-16
5.76919e-11
-1.14571e-10
2.36499e-16
6.76072e-11
-1.31011e-10
-1.66217e-18
7.81219e-11
-1.47766e-10
1.06943e-15
8.914e-11
-1.64826e-10
6.90166e-16
1.00507e-10
-1.81858e-10
7.55373e-16
1.12081e-10
-1.98683e-10
7.18256e-16
1.23689e-10
-2.15046e-10
8.9984e-16
1.35156e-10
-2.30748e-10
8.17035e-16
-2.45542e-10
8.7409e-16
1.84477e-14
3.20889e-13
-4.1427e-17
2.02704e-13
3.34898e-13
8.21535e-17
7.23351e-13
-1.0007e-12
2.87453e-16
1.68117e-12
-3.73097e-12
2.41509e-15
3.16581e-12
-7.97985e-12
-1.589e-15
5.2619e-12
-1.37027e-11
1.72838e-16
8.16359e-12
-2.07814e-11
1.45324e-15
1.19533e-11
-2.95603e-11
2.12625e-15
1.65239e-11
-3.94663e-11
-5.08132e-15
2.19868e-11
-5.08877e-11
3.71762e-15
2.83975e-11
-6.34101e-11
1.06665e-15
3.57155e-11
-7.74143e-11
-5.50505e-16
4.39488e-11
-9.21143e-11
1.11511e-16
5.30944e-11
-1.08105e-10
1.02394e-15
6.30179e-11
-1.24502e-10
-6.86853e-16
7.36845e-11
-1.41685e-10
2.85554e-16
8.49373e-11
-1.59019e-10
5.47566e-16
9.66592e-11
-1.76549e-10
1.0138e-15
1.08677e-10
-1.93877e-10
7.08825e-16
1.20826e-10
-2.10833e-10
9.4669e-16
1.32919e-10
-2.2714e-10
8.29821e-16
1.44768e-10
-2.42599e-10
9.29786e-16
-2.56956e-10
8.23504e-16
2.22965e-14
2.98522e-13
7.95729e-17
2.29707e-13
1.27548e-13
1.69413e-16
7.99011e-13
-1.57042e-12
4.1563e-16
1.8526e-12
-4.77847e-12
1.15962e-15
3.58741e-12
-9.72283e-12
2.79254e-16
5.99859e-12
-1.60948e-11
1.5386e-15
9.3401e-12
-2.41203e-11
-1.35349e-15
1.34883e-11
-3.37155e-11
4.09017e-15
1.83923e-11
-4.44135e-11
-6.34033e-15
2.44043e-11
-5.68765e-11
3.2808e-15
3.15172e-11
-7.05128e-11
3.31053e-15
3.95294e-11
-8.54443e-11
-2.8052e-15
4.85555e-11
-1.01145e-10
1.09079e-15
5.84624e-11
-1.18006e-10
5.71533e-16
6.91665e-11
-1.35216e-10
2.8016e-16
8.05836e-11
-1.53107e-10
1.62135e-17
9.25682e-11
-1.71006e-10
8.86734e-16
1.0498e-10
-1.88961e-10
8.57e-16
1.17626e-10
-2.06527e-10
8.33507e-16
1.30327e-10
-2.23537e-10
6.97968e-16
1.42877e-10
-2.39691e-10
1.01774e-15
1.55071e-10
-2.54794e-10
8.76003e-16
-2.6859e-10
1.00778e-15
2.72695e-14
2.71394e-13
-1.55391e-17
2.69985e-13
-1.15131e-13
3.83626e-16
9.39698e-13
-2.24149e-12
3.34493e-16
2.14652e-12
-5.97788e-12
1.37842e-15
4.13083e-12
-1.17182e-11
-5.48168e-16
6.81493e-12
-1.87691e-11
-1.15235e-15
1.04225e-11
-2.77355e-11
-1.60726e-15
1.48868e-11
-3.81748e-11
6.41472e-15
2.03846e-11
-4.99435e-11
-1.94674e-15
2.71333e-11
-6.36053e-11
1.01582e-15
3.49722e-11
-7.8349e-11
1.84434e-15
4.36869e-11
-9.41845e-11
-1.93785e-15
5.34884e-11
-1.10958e-10
-1.31586e-15
6.42047e-11
-1.28719e-10
2.06529e-15
7.57587e-11
-1.46782e-10
-9.42795e-16
8.80206e-11
-1.65375e-10
8.35582e-16
1.00827e-10
-1.83816e-10
2.11331e-16
1.13998e-10
-2.02133e-10
1.39269e-15
1.27324e-10
-2.19855e-10
5.94907e-16
1.40595e-10
-2.36811e-10
9.82581e-16
1.53591e-10
-2.52689e-10
8.30202e-16
1.66093e-10
-2.67298e-10
1.03073e-15
-2.80388e-10
8.73927e-16
3.19873e-14
2.3947e-13
1.3428e-17
3.12485e-13
-3.95055e-13
1.69375e-16
1.07854e-12
-3.00855e-12
5.22196e-16
2.45834e-12
-7.35581e-12
1.18461e-15
4.58224e-12
-1.38497e-11
-6.98161e-16
7.5329e-12
-2.17151e-11
2.45975e-15
1.16488e-11
-3.18461e-11
4.12436e-15
1.68631e-11
-4.33517e-11
-1.62456e-15
2.31709e-11
-5.6291e-11
-6.69295e-15
3.04057e-11
-7.08379e-11
7.3001e-15
3.8894e-11
-8.68225e-11
-7.61956e-16
4.84967e-11
-1.03805e-10
-8.74536e-16
5.92017e-11
-1.21665e-10
1.43527e-15
7.0837e-11
-1.4035e-10
6.85031e-16
8.33144e-11
-1.5927e-10
5.67213e-16
9.64465e-11
-1.78508e-10
2.64791e-16
1.10075e-10
-1.97449e-10
1.02683e-15
1.23986e-10
-2.16041e-10
1.1322e-15
1.37954e-10
-2.33827e-10
1.09261e-15
1.5175e-10
-2.50609e-10
8.29962e-16
1.65137e-10
-2.66077e-10
1.16746e-15
1.77883e-10
-2.80044e-10
1.01239e-15
-2.9227e-10
1.19958e-15
3.87885e-14
2.00199e-13
2.45386e-16
3.73407e-13
-7.2916e-13
5.6612e-16
1.20329e-12
-3.83768e-12
-5.07306e-16
2.773e-12
-8.91846e-12
9.26729e-16
5.1716e-12
-1.62623e-11
1.77403e-15
8.69674e-12
-2.52351e-11
1.00186e-15
1.31965e-11
-3.63572e-11
-4.56995e-16
1.88256e-11
-4.89445e-11
8.17342e-16
2.5821e-11
-6.33267e-11
-3.51226e-15
3.40075e-11
-7.90197e-11
5.24703e-15
4.3379e-11
-9.61851e-11
-1.70433e-15
5.38795e-11
-1.14326e-10
2.05251e-16
6.55202e-11
-1.33312e-10
-5.18171e-16
7.81165e-11
-1.52942e-10
2.24106e-15
9.15659e-11
-1.72728e-10
-2.22245e-16
1.05639e-10
-1.92581e-10
1.33542e-15
1.20153e-10
-2.11967e-10
6.48459e-16
1.34851e-10
-2.30737e-10
1.80891e-15
1.49487e-10
-2.48465e-10
8.2661e-16
1.638e-10
-2.64925e-10
1.15012e-15
1.7754e-10
-2.79818e-10
9.63178e-16
1.9046e-10
-2.92966e-10
1.24224e-15
-3.04147e-10
1.08123e-15
4.58889e-14
1.53962e-13
2.09868e-16
4.2843e-13
-1.1109e-12
3.71532e-16
1.39761e-12
-4.80639e-12
-2.63663e-16
3.22904e-12
-1.07447e-11
1.52526e-15
5.92958e-12
-1.89735e-11
1.30979e-15
9.79308e-12
-2.9093e-11
6.64901e-16
1.48409e-11
-4.14065e-11
1.84561e-15
2.11834e-11
-5.52514e-11
1.52113e-15
2.88871e-11
-7.10691e-11
-4.9695e-15
3.79234e-11
-8.80528e-11
6.87881e-15
4.83361e-11
-1.06585e-10
-7.39298e-16
5.98936e-11
-1.25907e-10
-1.14069e-15
7.26607e-11
-1.4609e-10
3.00328e-16
8.6354e-11
-1.66626e-10
1.7315e-15
1.00875e-10
-1.8726e-10
5.38128e-16
1.15941e-10
-2.07644e-10
1.07686e-15
1.31354e-10
-2.27384e-10
1.26294e-15
1.46825e-10
-2.46203e-10
1.66721e-15
1.62085e-10
-2.63727e-10
1.51604e-15
1.76854e-10
-2.79694e-10
1.21657e-15
1.90863e-10
-2.93826e-10
1.51428e-15
2.0386e-10
-3.05962e-10
1.32783e-15
-3.15901e-10
1.52773e-15
5.60909e-14
9.76999e-14
1.61724e-16
5.03831e-13
-1.55829e-12
5.10019e-16
1.63649e-12
-5.93892e-12
-1.52806e-16
3.70782e-12
-1.28102e-11
1.23036e-15
6.83159e-12
-2.21131e-11
7.54005e-16
1.12251e-11
-3.34798e-11
1.6154e-15
1.69649e-11
-4.71551e-11
9.53342e-16
2.41485e-11
-6.23941e-11
1.68775e-15
3.27344e-11
-7.96941e-11
-4.58446e-15
4.27678e-11
-9.80817e-11
6.86112e-15
5.4255e-11
-1.18059e-10
-8.34085e-16
6.69214e-11
-1.38593e-10
-5.42596e-16
8.08387e-11
-1.60015e-10
3.54625e-16
9.56677e-11
-1.81446e-10
2.3269e-15
1.11293e-10
-2.02894e-10
4.22936e-16
1.27382e-10
-2.2373e-10
1.66743e-15
1.4371e-10
-2.43713e-10
1.11892e-15
1.59944e-10
-2.62434e-10
2.14085e-15
1.75794e-10
-2.79578e-10
1.17728e-15
1.90952e-10
-2.94853e-10
1.43878e-15
2.05139e-10
-3.08013e-10
1.29165e-15
2.18094e-10
-3.18917e-10
1.56725e-15
-3.274e-10
1.36841e-15
6.65045e-14
3.1013e-14
1.45836e-16
5.838e-13
-2.07485e-12
6.00499e-16
1.8757e-12
-7.23068e-12
-2.25133e-16
4.25347e-12
-1.51849e-11
1.38999e-15
7.73649e-12
-2.56117e-11
1.16227e-15
1.25929e-11
-3.83239e-11
2.23875e-16
1.91234e-11
-5.36963e-11
2.04022e-15
2.71791e-11
-7.04155e-11
1.4477e-15
3.6789e-11
-8.93384e-11
-4.96393e-15
4.79633e-11
-1.09254e-10
7.08615e-15
6.06534e-11
-1.30733e-10
-1.01584e-15
7.4612e-11
-1.5257e-10
1.23343e-15
8.98322e-11
-1.75241e-10
3.92392e-16
1.05957e-10
-1.9756e-10
2.37559e-15
1.22806e-10
-2.19753e-10
7.93684e-16
1.40009e-10
-2.40929e-10
1.58011e-15
1.57291e-10
-2.60998e-10
1.43668e-15
1.74289e-10
-2.79427e-10
1.97572e-15
1.90682e-10
-2.9597e-10
1.95018e-15
2.06147e-10
-3.10315e-10
1.66155e-15
2.20393e-10
-3.22257e-10
1.9236e-15
2.33163e-10
-3.31685e-10
1.68958e-15
-3.38477e-10
1.85919e-15
8.12103e-14
-5.04065e-14
2.13101e-16
6.94036e-13
-2.68778e-12
6.00925e-16
2.19521e-12
-8.73078e-12
6.58751e-17
4.9286e-12
-1.79116e-11
1.61201e-15
9.10143e-12
-2.98039e-11
1.44276e-15
1.49518e-11
-4.41696e-11
1.72686e-15
2.23648e-11
-6.11129e-11
-1.2596e-15
3.13147e-11
-7.93303e-11
2.68558e-15
4.2056e-11
-1.00117e-10
-3.11433e-15
5.44892e-11
-1.21688e-10
5.2787e-15
6.85286e-11
-1.44766e-10
-2.6528e-16
8.39188e-11
-1.67978e-10
-3.8186e-16
1.00523e-10
-1.91857e-10
6.76045e-16
1.1798e-10
-2.15004e-10
2.31447e-15
1.36037e-10
-2.37817e-10
1.39787e-15
1.54301e-10
-2.59188e-10
1.92709e-15
1.72456e-10
-2.79154e-10
1.68541e-15
1.90109e-10
-2.97075e-10
2.35848e-15
2.06916e-10
-3.12776e-10
1.60284e-15
2.22532e-10
-3.25932e-10
1.77157e-15
2.36668e-10
-3.36391e-10
1.68465e-15
2.49065e-10
-3.44081e-10
1.96009e-15
-3.48938e-10
1.74265e-15
9.70473e-14
-1.4743e-13
8.8607e-17
8.08696e-13
-3.39869e-12
5.05225e-16
2.56891e-12
-1.0492e-11
4.27061e-16
5.70815e-12
-2.10458e-11
3.08575e-16
1.02912e-11
-3.43937e-11
-4.14581e-15
1.6721e-11
-5.06012e-11
8.50319e-15
2.47734e-11
-6.91754e-11
8.01214e-15
3.49072e-11
-8.94147e-11
-1.00176e-14
4.73033e-11
-1.1255e-10
1.86903e-15
6.12959e-11
-1.35667e-10
7.36924e-15
7.69109e-11
-1.60375e-10
-2.25781e-15
9.39126e-11
-1.84997e-10
2.13271e-15
1.12023e-10
-2.09977e-10
-8.28341e-16
1.30991e-10
-2.33958e-10
4.21563e-15
1.50396e-10
-2.57227e-10
9.28626e-16
1.69848e-10
-2.78633e-10
2.38485e-15
1.88939e-10
-2.98244e-10
2.02413e-15
2.07251e-10
-3.15381e-10
2.36892e-15
2.24408e-10
-3.2993e-10
2.35444e-15
2.40058e-10
-3.4158e-10
1.99535e-15
2.53915e-10
-3.50243e-10
2.30479e-15
2.6574e-10
-3.55903e-10
2.0097e-15
-3.58563e-10
2.18418e-15
1.19622e-13
-2.67127e-13
1.79879e-16
9.81058e-13
-4.25998e-12
4.92139e-16
3.05067e-12
-1.25607e-11
6.15959e-16
6.72228e-12
-2.47082e-11
1.26725e-15
1.21085e-11
-3.97906e-11
-2.97814e-15
1.9736e-11
-5.8242e-11
1.14486e-14
2.9346e-11
-7.88e-11
6.27573e-15
4.13471e-11
-1.01359e-10
-1.27569e-14
5.51638e-11
-1.26388e-10
-2.96557e-15
7.04738e-11
-1.50981e-10
8.87479e-15
8.7617e-11
-1.77523e-10
-2.25747e-15
1.06266e-10
-2.0366e-10
3.64389e-16
1.25987e-10
-2.29713e-10
7.58345e-16
1.46461e-10
-2.54418e-10
2.57638e-15
1.6715e-10
-2.77924e-10
1.81324e-15
1.8764e-10
-2.99115e-10
2.26244e-15
2.0747e-10
-3.18072e-10
2.38973e-15
2.26208e-10
-3.34112e-10
2.68975e-15
2.43458e-10
-3.47178e-10
2.16004e-15
2.58873e-10
-3.56992e-10
2.25495e-15
2.72176e-10
-3.63541e-10
2.08663e-15
2.83152e-10
-3.66877e-10
2.29909e-15
-3.6708e-10
1.9796e-15
1.44508e-13
-4.12049e-13
3.70957e-16
1.14305e-12
-5.25778e-12
5.10773e-16
3.5409e-12
-1.49584e-11
5.92072e-17
7.78008e-12
-2.89381e-11
1.71288e-15
1.40875e-11
-4.61141e-11
-5.41263e-16
2.26869e-11
-6.68255e-11
-1.89186e-15
3.32853e-11
-8.93786e-11
-2.43761e-15
4.62322e-11
-1.14316e-10
2.04123e-14
6.1394e-11
-1.41585e-10
4.93737e-15
7.92066e-11
-1.6877e-10
-1.18912e-14
9.8546e-11
-1.96874e-10
6.55514e-15
1.19272e-10
-2.24386e-10
1.35549e-15
1.40911e-10
-2.5137e-10
-4.55498e-16
1.63074e-10
-2.76566e-10
4.44765e-15
1.85201e-10
-3.00058e-10
1.02357e-15
2.06838e-10
-3.20744e-10
2.95753e-15
2.27443e-10
-3.38675e-10
2.51385e-15
2.46568e-10
-3.5323e-10
2.66381e-15
2.63794e-10
-3.644e-10
2.77715e-15
2.78786e-10
-3.7198e-10
2.30397e-15
2.91293e-10
-3.76043e-10
2.67342e-15
3.01149e-10
-3.76729e-10
2.19113e-15
-3.74206e-10
2.34638e-15
1.85759e-13
-5.9705e-13
-9.86587e-17
1.41388e-12
-6.48541e-12
9.23548e-16
4.36107e-12
-1.7911e-11
3.49892e-15
9.37646e-12
-3.39604e-11
-9.80571e-16
1.68669e-11
-5.35891e-11
-3.02364e-15
2.67506e-11
-7.67077e-11
3.65489e-15
3.9511e-11
-1.02133e-10
-4.36701e-16
5.49456e-11
-1.29745e-10
1.78303e-14
7.21843e-11
-1.58838e-10
-5.82716e-16
9.18394e-11
-1.88418e-10
-8.93691e-15
1.13165e-10
-2.18216e-10
6.32366e-15
1.35856e-10
-2.47073e-10
4.76716e-16
1.59324e-10
-2.74859e-10
8.26104e-16
1.83071e-10
-3.00298e-10
3.35773e-15
2.0643e-10
-3.23425e-10
1.55594e-15
2.28908e-10
-3.43215e-10
3.0104e-15
2.49927e-10
-3.59691e-10
2.52351e-15
2.69034e-10
-3.72331e-10
3.11511e-15
2.85816e-10
-3.81178e-10
2.37047e-15
2.99966e-10
-3.86127e-10
2.64791e-15
3.11276e-10
-3.87348e-10
2.36704e-15
3.19629e-10
-3.85079e-10
2.58314e-15
-3.7959e-10
2.15923e-15
2.25906e-13
-8.22934e-13
2.79554e-16
1.66101e-12
-7.91947e-12
8.21778e-16
5.05605e-12
-2.13114e-11
2.96263e-15
1.08258e-11
-3.97319e-11
-7.41284e-16
1.94251e-11
-6.21797e-11
-1.5073e-15
3.08418e-11
-8.81251e-11
3.74384e-15
4.52594e-11
-1.16534e-10
-9.04188e-16
6.25464e-11
-1.47032e-10
1.34426e-14
8.22603e-11
-1.78576e-10
3.03506e-15
1.0437e-10
-2.10513e-10
-1.05764e-14
1.28135e-10
-2.42e-10
6.45436e-15
1.53193e-10
-2.72129e-10
1.34149e-15
1.78759e-10
-3.00443e-10
4.57275e-16
2.04329e-10
-3.25852e-10
3.99646e-15
2.29084e-10
-3.48187e-10
2.03473e-15
2.52493e-10
-3.66616e-10
2.88323e-15
2.7391e-10
-3.81105e-10
3.23066e-15
2.92881e-10
-3.91296e-10
2.70682e-15
3.09007e-10
-3.97301e-10
3.10566e-15
3.22029e-10
-3.99145e-10
2.36715e-15
3.31805e-10
-3.97118e-10
2.93176e-15
3.38303e-10
-3.91574e-10
2.30683e-15
-3.82886e-10
2.50976e-15
2.88428e-13
-1.11136e-12
3.56623e-16
2.10815e-12
-9.73831e-12
9.8086e-16
6.31857e-12
-2.55245e-11
3.22016e-15
1.34172e-11
-4.68341e-11
-6.83398e-17
2.37358e-11
-7.24899e-11
-1.87622e-15
3.73336e-11
-1.01728e-10
3.23815e-15
5.42091e-11
-1.33389e-10
-2.92398e-16
7.42166e-11
-1.6704e-10
1.53905e-14
9.67876e-11
-2.01168e-10
2.41965e-15
1.2175e-10
-2.35464e-10
-9.35522e-15
1.48178e-10
-2.68446e-10
6.02924e-15
1.75647e-10
-2.99596e-10
2.46069e-15
2.03186e-10
-3.27999e-10
7.01144e-17
2.30239e-10
-3.52892e-10
4.94044e-15
2.55919e-10
-3.73873e-10
1.41432e-15
2.79668e-10
-3.90358e-10
3.87298e-15
3.00846e-10
-4.02279e-10
2.55848e-15
3.1902e-10
-4.09465e-10
3.69996e-15
3.33845e-10
-4.12121e-10
2.52858e-15
3.45128e-10
-4.10426e-10
3.0496e-15
3.52817e-10
-4.04801e-10
2.52924e-15
3.56968e-10
-3.95722e-10
2.76152e-15
-3.83672e-10
2.23315e-15
3.54014e-13
-1.46544e-12
4.88415e-16
2.48625e-12
-1.18694e-11
9.48101e-16
7.3899e-12
-3.04331e-11
3.63009e-15
1.56157e-11
-5.50618e-11
-5.87196e-17
2.75811e-11
-8.44452e-11
-1.01083e-15
4.33673e-11
-1.17521e-10
5.2925e-15
6.2731e-11
-1.52733e-10
-8.5477e-16
8.56422e-11
-1.89943e-10
1.56855e-14
1.11205e-10
-2.26756e-10
4.08758e-15
1.39252e-10
-2.63496e-10
-1.05241e-14
1.68618e-10
-2.97832e-10
8.49466e-15
1.98781e-10
-3.29753e-10
-1.85253e-17
2.2859e-10
-3.57829e-10
2.26294e-15
2.57375e-10
-3.8166e-10
3.76519e-15
2.84134e-10
-4.00638e-10
3.15052e-15
3.08255e-10
-4.14471e-10
2.66112e-15
3.29082e-10
-4.23104e-10
3.88683e-15
3.46228e-10
-4.26603e-10
2.776e-15
3.59416e-10
-4.25307e-10
3.43335e-15
3.68566e-10
-4.19573e-10
2.43475e-15
3.73739e-10
-4.09969e-10
3.05635e-15
3.75125e-10
-3.97105e-10
2.27309e-15
-3.81569e-10
2.50065e-15
4.65389e-13
-1.9311e-12
6.48667e-16
3.23621e-12
-1.4639e-11
1.4749e-15
9.47099e-12
-3.66694e-11
3.76279e-15
1.97651e-11
-6.53544e-11
-2.56054e-16
3.43724e-11
-9.90455e-11
-3.59849e-15
5.33006e-11
-1.36447e-10
8.01516e-15
7.62301e-11
-1.75657e-10
1.27077e-15
1.02908e-10
-2.16625e-10
1.31724e-14
1.32292e-10
-2.5618e-10
1.6973e-16
1.64014e-10
-2.95198e-10
-6.33438e-15
1.96588e-10
-3.30417e-10
5.9769e-15
2.29362e-10
-3.62525e-10
3.98795e-15
2.61019e-10
-3.895e-10
2.67422e-16
2.90813e-10
-4.1144e-10
6.71814e-15
3.17741e-10
-4.27568e-10
1.34421e-15
3.41198e-10
-4.37924e-10
4.5904e-15
3.60618e-10
-4.4252e-10
2.47021e-15
3.757e-10
-4.4168e-10
4.19845e-15
3.86299e-10
-4.35902e-10
2.51582e-15
3.92465e-10
-4.25736e-10
3.30156e-15
3.94406e-10
-4.11904e-10
2.58393e-15
3.92441e-10
-3.95138e-10
2.8211e-15
-3.7612e-10
2.25081e-15
5.80322e-13
-2.51193e-12
1.02481e-15
3.86369e-12