/*--------------------------------*- C++ -*----------------------------------*\
| =========                 |                                                 |
| \\      /  F ield         | OpenFOAM: The Open Source CFD Toolbox           |
|  \\    /   O peration     | Version:  v2012                                 |
|   \\  /    A nd           | Website:  www.openfoam.com                      |
|    \\/     M anipulation  |                                                 |
\*---------------------------------------------------------------------------*/
FoamFile
{
    version     2.0;
    format      ascii;
    class       volScalarField;
    location    "0.6";
    object      alpha.water;
}
// * * * * * * * * * * * * * * * * * * * * * * * * * * * * * * * * * * * * * //

dimensions      [0 0 0 0 0 0 0];


internalField   nonuniform List<scalar> 
3332
(
-5.01535e-55
-2.28393e-48
-1.941e-32
-3.70363e-26
1.23218e-16
3.84721e-16
2.73933e-16
4.41429e-18
-1.15721e-49
-2.21942e-44
-5.67552e-31
8.98573e-18
1.79938e-16
1.57283e-17
2.08025e-21
2.07113e-21
1.42932e-21
1.42932e-21
1.42993e-21
1.42996e-21
1.43064e-21
9.75623e-15
2.23309e-14
-1.2063e-51
-1.82233e-40
-4.55923e-28
9.71535e-17
6.77868e-17
2.59208e-20
5.69307e-21
1.42932e-21
1.42932e-21
1.42932e-21
1.42932e-21
1.42998e-21
7.48203e-17
7.39732e-17
6.68135e-15
-1.33312e-48
-3.90472e-40
-3.67144e-26
1.02055e-16
6.26933e-18
2.26905e-21
2.28052e-21
1.35182e-20
1.42932e-21
1.42932e-21
1.42932e-21
2.65527e-16
1.82548e-16
1.49645e-17
5.58243e-17
0
-2.86248e-44
4.54812e-18
4.64942e-17
2.20403e-18
2.28302e-21
2.97884e-21
1.42932e-21
1.42932e-21
1.42932e-21
3.50816e-15
8.46991e-16
6.3467e-17
8.44608e-18
1.91648e-17
0
1.9508e-29
1.92093e-17
2.07105e-18
3.40224e-21
3.38549e-21
1.68023e-21
1.4341e-21
9.17872e-15
2.54579e-14
1.24766e-14
5.3338e-20
1.28203e-17
9.31705e-18
2.51047e-17
3.22053e-44
9.42547e-42
1.92086e-17
2.3993e-19
3.83836e-21
3.40224e-21
7.93499e-15
2.3889e-14
3.62318e-14
3.61947e-14
8.60074e-15
3.10603e-20
5.3338e-20
6.26334e-20
2.25719e-17
9.45768e-42
2.49677e-39
5.11797e-18
1.37118e-20
3.73102e-15
2.5206e-14
3.79512e-14
3.79512e-14
3.36609e-14
9.62024e-15
6.26334e-20
5.3338e-20
6.2e-16
3.93589e-15
2.37003e-18
2.49677e-39
5.9721e-37
1.28607e-34
2.79453e-15
3.08197e-14
3.79512e-14
3.79512e-14
2.94755e-14
9.32333e-15
2.33606e-15
4.45532e-14
9.88791e-14
7.90609e-14
6.45965e-15
2.37003e-18
5.9721e-37
1.28607e-34
2.48491e-32
1.23737e-14
3.00709e-14
2.95477e-14
2.35035e-14
5.51642e-15
4.31912e-14
9.80734e-14
1.4564e-13
1.4564e-13
9.96679e-14
2.37003e-18
2.37003e-18
1.28607e-34
2.48491e-32
1.64016e-15
1.24647e-14
1.85486e-15
6.55589e-16
4.79466e-19
5.71645e-14
1.14036e-13
1.13078e-13
1.07418e-13
1.1107e-13
2.9492e-14
1.49354e-16
2.23473e-15
2.48491e-32
1.86094e-19
3.392e-15
2.93143e-15
1.05894e-16
1.2074e-18
2.06874e-18
7.27156e-14
6.67696e-14
1.19045e-16
9.75431e-17
1.19045e-16
4.54534e-15
6.17409e-14
8.1555e-15
4.2947e-30
6.60386e-28
2.61481e-15
1.79486e-16
6.69212e-18
1.27448e-18
1.30901e-18
8.78447e-15
4.31431e-14
8.17051e-13
8.72923e-13
8.08572e-13
8.05961e-13
2.32985e-13
1.25322e-18
6.60386e-28
9.87276e-17
2.76425e-15
1.15495e-16
4.03857e-18
1.35585e-18
4.8533e-17
4.85618e-17
5.29742e-13
1.32508e-12
1.31927e-12
1.40695e-12
1.40899e-12
2.42867e-13
1.25322e-18
9.00729e-26
1.24561e-14
7.34239e-15
2.94164e-18
1.56416e-18
1.38983e-18
1.56416e-18
2.67628e-14
5.26837e-13
1.0587e-12
1.05198e-12
1.26289e-12
8.851e-13
1.25324e-18
1.25323e-18
8.94272e-15
1.54426e-14
7.37702e-15
7.05826e-18
3.0233e-16
1.56416e-18
3.63886e-18
2.19244e-14
2.42078e-14
8.05051e-13
3.03672e-12
2.51042e-12
1.2423e-13
1.25369e-18
1.25324e-18
1.44006e-14
1.54634e-14
7.21855e-15
4.4801e-13
6.77129e-13
5.49227e-13
2.36394e-13
1.00903e-13
1.32636e-12
4.03951e-12
4.08652e-12
3.21693e-12
1.37345e-14
1.26085e-18
7.19085e-17
1.44312e-14
1.54982e-14
7.21855e-15
7.9073e-13
8.70558e-13
8.65299e-13
4.3832e-13
2.30963e-13
3.79437e-12
4.08652e-12
4.08652e-12
8.39363e-13
7.63106e-17
7.62754e-17
2.01882e-16
1.44439e-14
1.55506e-14
7.21855e-15
1.32685e-13
8.70558e-13
8.70558e-13
3.25843e-13
2.21163e-13
4.02598e-12
4.08652e-12
3.25916e-12
3.62862e-14
7.63556e-17
7.7186e-17
1.77318e-16
1.44426e-14
1.52213e-14
7.21855e-15
1.30677e-14
8.70558e-13
7.45255e-13
1.85483e-13
1.86584e-13
1.51779e-12
3.40537e-12
3.41918e-13
7.7587e-17
7.76122e-17
7.75648e-17
9.14837e-17
1.44443e-14
1.41024e-14
7.21855e-15
1.01727e-14
4.54803e-13
3.16239e-13
1.78216e-13
1.91783e-13
4.63436e-13
1.84183e-13
7.77964e-17
7.76332e-17
7.761e-17
7.76019e-17
8.23718e-17
1.44437e-14
1.43676e-14
7.22658e-15
9.3423e-15
1.79185e-13
7.80124e-14
1.81395e-13
1.84385e-13
7.232e-14
4.07971e-14
7.90663e-17
7.77963e-17
7.76332e-17
7.761e-17
7.76332e-17
1.44432e-14
1.45288e-14
7.48163e-15
9.65221e-15
1.08229e-13
2.1392e-13
1.66277e-13
1.49716e-13
4.08324e-14
4.08572e-14
8.55066e-17
7.90658e-17
7.77964e-17
7.76332e-17
7.77971e-17
1.44817e-14
8.03934e-13
1.30823e-14
1.69904e-14
9.97072e-14
4.72102e-12
1.47485e-13
1.43379e-13
4.63663e-14
1.39466e-14
1.2283e-16
8.55062e-17
7.90658e-17
7.77975e-17
4.84354e-15
1.44684e-14
1.48501e-14
2.67834e-14
3.81757e-10
2.51885e-13
4.64957e-13
2.05139e-13
3.01545e-13
1.18249e-13
1.90587e-15
3.67304e-16
1.22837e-16
2.1336e-16
8.97184e-17
9.97796e-15
1.48501e-14
2.67841e-14
3.70915e-09
1.76658e-09
1.0495e-12
2.64603e-12
4.64955e-13
1.05495e-12
8.09715e-13
4.87015e-12
1.32927e-15
7.36524e-16
8.88794e-16
9.54725e-16
6.26872e-15
2.67841e-14
6.60925e-09
9.26422e-09
1.46003e-09
5.92502e-09
2.77679e-09
4.72159e-12
5.72724e-12
8.15534e-12
6.47344e-11
4.85805e-15
2.96815e-13
-2.96156e-32
2.71568e-11
1.54772e-08
9.24904e-10
1.36987e-09
6.66769e-09
2.98916e-08
6.21854e-11
1.82867e-09
5.81936e-08
7.5062e-11
1.72625e-16
-2.83873e-32
-1.86575e-51
1.99436e-11
9.42421e-11
5.58493e-08
1.52908e-09
1.81884e-09
4.54578e-08
4.09257e-08
2.58819e-08
2.81967e-07
2.62692e-10
4.16421e-09
2.39249e-09
1.90108e-09
9.42421e-11
1.32062e-09
1.14044e-07
3.75425e-07
1.48886e-07
4.78813e-08
6.0364e-08
3.43729e-08
1.66783e-06
2.10148e-10
5.28097e-08
3.07777e-08
4.1357e-09
6.95225e-07
2.48666e-06
2.67633e-07
1.22306e-06
7.24378e-07
5.30897e-08
7.31555e-08
3.69949e-08
6.43121e-06
6.06491e-10
3.02032e-13
5.05509e-14
5.34629e-15
1.31725e-05
5.21438e-06
1.31564e-06
1.9386e-06
1.32298e-06
2.30433e-06
7.39279e-08
4.72898e-08
3.04015e-05
1.282e-07
1.43828e-06
3.02032e-13
5.05509e-14
5.20046e-05
3.95875e-06
1.34842e-06
1.94885e-06
1.32719e-06
6.35714e-05
3.93801e-07
1.19425e-07
8.84444e-05
7.47009e-07
5.2732e-06
1.54329e-06
3.02032e-13
2.63695e-06
3.47042e-06
1.44593e-06
1.99097e-06
2.23896e-06
0.00017256
1.94101e-07
4.20494e-05
0.000346323
2.92294e-07
4.77984e-06
8.84172e-06
1.11237e-06
3.42151e-06
3.16253e-06
1.93446e-06
2.05911e-06
2.3122e-06
4.57936e-07
1.94101e-07
1.23004e-05
0.000156731
2.81363e-07
5.5948e-07
1.41174e-05
2.68029e-06
0.194574
0.0540274
-0.00023177
2.40362e-06
3.05045e-06
1.98146e-06
4.59179e-06
5.69169e-06
1.96288e-06
5.5948e-07
0.000206582
4.45768e-06
3.50543e-11
0.619159
0.559741
0.479261
0.181264
-0.00074584
-0.000559428
7.46705e-06
2.00813e-05
0.0292711
0.135821
0.00390938
6.36946e-10
1.34164e-10
0.740579
0.674385
0.690788
0.70595
0.626919
0.623965
0.553453
0.670977
0.742106
0.846041
0.900757
0.876001
0.852009
0.820955
0.838018
0.839546
0.82891
0.832794
0.875013
0.919333
0.968961
0.957489
0.951659
0.949109
0.941861
0.939744
0.945345
0.95364
0.968235
0.978923
0.995745
0.992934
0.990374
0.988557
0.987969
0.988559
0.990248
0.993843
0.998371
1
1
1
1
1
1
1
1
1
1
1
1
1
1
1
1
1
1
1
1
1
1
1
1
1
1
1
1
1
1
1
1
1
1
1
1
1
1
1
1
1
1
1
1
1
1
1
1
1
1
1
1
1
1
1
1
1
1
1
1
1
1
1
1
1
1
1
1
1
1
1
1
1
1
1
1
1
1
1
1
1
1
1
1
1
1
1
1
1
1
1
1
1
1
1
1
1
1
1
1
1
1
1
1
1
1
1
1
1
1
1
1
1
1
1
1
1
1
1
1
1
1
1
1
1
1
1
1
1
1
1
1
1
1
1
1
1
1
1
1
1
1
1
1
1
1
1
1
1
1
1
1
1
1
1
1
1
1
1
1
1
1
1
1
1
1
1
1
1
1
1
1
1
1
1
1
1
1
1
1
1
1
1
1
1
1
1
1
1
1
1
1
1
1
1
1
1
1
1
1
1
1
1
1
1
1
1
1
1
1
1
1
1
1
1
1
1
1
1
1
1
1
1
1
1
1
1
1
1
1
1
1
1
1
1
1
1
1
1
1
1
1
1
1
1
1
1
1
1
1
1
1
1
1
1
1
1
1
1
1
1
1
1
1
1
1
1
1
1
1
1
1
1
1
1
1
1
1
1
1
1
1
1
1
1
1
1
1
1
1
1
1
1
1
1
1
1
1
1
1
1
1
1
1
1
1
1
1
1
1
1
1
1
1
1
1
1
1
1
1
1
1
1
1
1
1
1
1
1
1
1
1
1
1
1
1
1
1
1
1
1
1
1
1
1
1
1
1
1
1
1
1
1
1
1
1
1
1
1
1
1
1
1
1
1
1
1
1
1
1
1
1
1
1
1
1
1
1
1
1
1
1
1
1
1
1
1
1
1
1
1
1
1
1
1
1
1
1
1
1
1
1
1
1
1
1
1
1
1
1
1
1
1
1
1
1
1
1
1
1
1
1
1
1
1
1
1
1
1
1
1
1
1
1
1
1
1
1
1
1
1
1
1
1
1
1
1
1
1
1
1
1
1
1
1
1
1
1
1
1
1
1
1
1
1
1
1
1
1
1
1
1
1
1
1
1
1
1
1
1
1
1
1
1
1
1
1
1
1
1
1
1
1
1
1
1
1
1
1
1
1
1
1
1
1
1
1
1
1
1
1
1
1
1
1
1
1
1
1
1
1
1
1
1
1
1
1
1
1
1
1
1
1
1
1
1
1
1
1
1
1
1
1
1
1
1
1
1
1
1
1
1
1
1
1
1
1
1
1
1
1
1
1
1
1
1
1
1
1
1
1
1
1
1
1
1
1
1
1
1
1
1
1
1
1
1
1
1
1
1
1
1
1
1
1
1
1
1
1
1
1
1
1
1
1
1
1
1
1
1
1
1
1
1
1
1
1
1
1
1
1
1
1
1
1
1
1
1
1
1
1
1
1
1
1
1
1
1
1
1
1
1
1
1
1
1
1
1
1
1
1
1
1
1
1
1
1
1
1
1
1
1
1
1
1
1
1
1
1
1
1
1
1
1
1
1
1
1
1
1
1
1
1
1
1
1
1
1
1
1
1
1
1
1
1
1
1
1
1
1
1
1
1
1
1
1
1
1
1
1
1
1
1
1
1
1
1
1
1
1
1
1
1
1
1
1
1
1
1
1
1
1
1
1
1
1
1
1
1
1
1
1
1
1
1
1
1
1
1
1
1
1
1
1
1
1
1
1
1
1
1
1
1
1
1
1
1
1
1
1
1
1
1
1
1
1
1
1
1
1
1
1
1
1
1
1
1
1
1
1
1
1
1
1
1
1
1
1
1
1
1
1
1
1
1
1
1
1
1
1
1
1
1
1
1
1
1
1
1
1
1
1
1
1
1
1
1
1
1
1
1
1
1
1
1
1
1
1
1
1
1
1
1
1
1
1
1
1
1
1
1
1
1
1
1
1
1
1
1
1
1
1
1
1
1
1
1
1
1
1
1
1
1
1
1
1
1
1
1
1
1
1
1
1
1
1
1
1
1
1
1
1
1
1
1
1
1
1
1
1
1
1
1
1
1
1
1
1
1
1
1
1
1
1
1
1
1
1
1
1
1
1
1
1
1
1
1
1
1
1
1
1
1
1
1
1
1
1
1
1
1
1
1
1
1
1
1
1
1
1
1
1
1
1
1
1
1
1
1
1
1
1
1
1
1
1
1
1
1
1
1
1
1
1
1
1
1
1
1
1
1
1
1
1
1
1
1
1
1
1
1
1
1
1
1
1
1
1
1
1
1
1
1
1
1
1
1
1
1
1
1
1
1
1
1
1
1
1
1
1
1
1
1
1
1
1
1
1
1
1
1
1
1
1
1
1
1
1
1
1
1
1
1
1
1
1
1
1
1
1
1
1
1
1
1
1
1
1
1
1
1
1
1
1
1
1
1
1
1
1
1
1
1
1
1
1
1
1
1
1
1
1
1
1
1
1
1
1
1
1
1
1
1
1
1
1
1
1
1
1
1
-2.97153e-55
-5.78102e-48
-2.80958e-33
-2.33786e-26
1.3594e-16
4.21331e-16
3.23573e-16
2.07655e-17
-1.73792e-55
-9.99268e-45
-4.93076e-32
9.11932e-18
1.79938e-16
5.78032e-17
6.33307e-19
1.42932e-21
1.42932e-21
4.43454e-18
1.42996e-21
2.12892e-16
8.79996e-17
4.89276e-17
2.57995e-16
-9.38698e-52
-1.20496e-40
-5.89952e-29
9.43269e-17
1.77497e-16
5.31477e-18
1.42932e-21
1.42932e-21
1.42932e-21
5.35769e-19
1.42998e-21
2.67782e-17
1.51779e-17
3.78356e-17
2.52745e-16
-1.88207e-49
-2.85391e-40
1.00344e-21
1.02055e-16
2.49973e-17
2.26899e-21
2.26899e-21
1.42932e-21
1.42932e-21
1.42932e-21
5.93561e-18
8.42066e-18
8.37109e-18
8.37109e-18
8.37109e-18
0
-1.64079e-44
7.47358e-19
7.79454e-17
2.0241e-18
2.26905e-21
3.64844e-21
1.42932e-21
1.42932e-21
1.57979e-18
1.06103e-17
1.64603e-17
8.37109e-18
8.37109e-18
1.622e-14
0
0
1.76593e-17
2.81245e-18
3.60061e-21
3.78143e-21
3.53782e-21
1.42932e-21
1.42932e-21
3.7196e-18
1.38983e-18
3.10603e-20
1.05833e-14
4.13872e-14
6.10172e-14
3.03089e-44
-2.00474e-54
1.91671e-17
4.64439e-19
3.69614e-21
3.53661e-21
3.64903e-21
2.66408e-17
1.42932e-21
1.75575e-21
2.12423e-21
9.77866e-21
2.60141e-14
6.10172e-14
6.10172e-14
8.9037e-42
2.32615e-39
5.76093e-18
5.17271e-21
5.13566e-21
7.28219e-16
3.65352e-21
3.5739e-17
1.43415e-21
1.96991e-21
2.56288e-17
1.66946e-18
2.85931e-15
4.22753e-14
5.1583e-14
2.35268e-39
5.62028e-37
1.21035e-34
1.16941e-17
5.17271e-21
3.85776e-15
3.69614e-21
6.73261e-21
1.96991e-21
6.83286e-16
9.68541e-17
1.09753e-16
1.25073e-16
1.30864e-15
2.58743e-15
5.62054e-37
1.21035e-34
2.3386e-32
1.70466e-17
5.31431e-21
3.48704e-15
7.35086e-21
4.28474e-16
6.46935e-15
1.0727e-15
9.67752e-17
9.9773e-17
1.06943e-16
5.48979e-17
1.31709e-16
1.21035e-34
2.3386e-32
4.04182e-30
3.16421e-20
3.11976e-20
7.65923e-17
1.68323e-19
1.11034e-14
1.96347e-14
5.62496e-16
9.67752e-17
9.67839e-17
9.75431e-17
2.76296e-15
2.75796e-16
2.3386e-32
4.04182e-30
6.21503e-28
8.35358e-26
3.42179e-22
1.19617e-18
4.79466e-19
1.27074e-14
1.34593e-14
9.75431e-17
9.67839e-17
9.75431e-17
5.30721e-14
6.75512e-15
1.25322e-18
4.04182e-30
6.21503e-28
2.53612e-15
4.96325e-15
8.90045e-21
7.33671e-19
2.78871e-18
5.47275e-16
5.74458e-16
1.19045e-16
5.57824e-13
7.68314e-13
1.21242e-13
1.25322e-18
1.25322e-18
6.21503e-28
1.5575e-15
1.43923e-14
1.09802e-14
3.89104e-15
7.64253e-19
6.12139e-17
4.85186e-17
4.91355e-17
8.33181e-13
1.32793e-12
1.05754e-12
1.25365e-18
1.25322e-18
1.25322e-18
8.35357e-26
1.45285e-14
1.48513e-14
8.77064e-15
6.38158e-15
1.00067e-17
3.08238e-17
3.09715e-17
2.6261e-13
1.17517e-12
1.32793e-12
1.62458e-13
1.26096e-18
1.25365e-18
1.25322e-18
8.41911e-15
1.54457e-14
1.38389e-14
1.29395e-14
2.48632e-15
3.63886e-18
3.10613e-17
3.10532e-17
1.15044e-12
1.17389e-12
5.45886e-13
3.18163e-17
3.17835e-17
5.54902e-17
6.50599e-17
1.43909e-14
1.55231e-14
9.53811e-15
4.98822e-14
1.57031e-16
1.71998e-16
3.12125e-17
3.11726e-17
1.22526e-12
1.14955e-12
4.65099e-17
4.44101e-17
7.71572e-17
7.75159e-17
8.70856e-17
1.44378e-14
1.55396e-14
9.33435e-15
5.19644e-14
1.53369e-16
1.52654e-16
3.12132e-17
2.06666e-13
1.08979e-12
8.14093e-14
6.2716e-17
7.74326e-17
7.76061e-17
7.75685e-17
8.49517e-17
1.44403e-14
1.55506e-14
9.28608e-15
2.67508e-14
1.49059e-16
1.44325e-16
3.12139e-17
3.44169e-13
3.11352e-13
7.75275e-17
7.74385e-17
7.75175e-17
7.76183e-17
7.76179e-17
7.76184e-17
1.44428e-14
1.43828e-14
8.57024e-15
2.08511e-14
3.00629e-16
1.42965e-16
3.42571e-17
3.37788e-13
2.40881e-13
7.92473e-17
1.61591e-16
7.75544e-17
7.7616e-17
7.76124e-17
8.02819e-17
1.44443e-14
1.3264e-14
8.40838e-15
1.57855e-14
3.24528e-16
1.7717e-16
8.48555e-17
3.37723e-13
1.65225e-13
7.77964e-17
7.76332e-17
7.75901e-17
7.76184e-17
7.76184e-17
8.54937e-17
1.44426e-14
1.44139e-14
9.21194e-15
1.41859e-14
9.30725e-16
4.98843e-16
5.4004e-16
2.85909e-13
4.72066e-14
1.85044e-16
7.77963e-17
7.76332e-17
7.76184e-17
7.76184e-17
7.76184e-17
1.44425e-14
1.44134e-14
1.17423e-14
1.24422e-14
5.56966e-15
3.5299e-15
4.43367e-15
1.64574e-13
5.21492e-15
1.42702e-15
7.90658e-17
7.7847e-17
7.76332e-17
7.76184e-17
7.76332e-17
1.44403e-14
1.41672e-14
1.23196e-14
1.67368e-14
1.30084e-11
3.50942e-14
4.60953e-14
8.90446e-14
1.23788e-14
3.07727e-15
3.30058e-16
4.88445e-15
7.79498e-17
7.76332e-17
7.77971e-17
1.44492e-14
1.45825e-14
1.33963e-10
4.87399e-14
3.77846e-11
4.23703e-13
3.53136e-13
1.92283e-13
5.84708e-13
9.69174e-15
1.50689e-16
8.86996e-17
6.14713e-17
7.77975e-17
7.90578e-17
1.45966e-14
7.10917e-09
2.43042e-09
3.17629e-13
3.29093e-12
3.11165e-12
4.68479e-12
5.6381e-12
4.35739e-11
5.25724e-14
2.04609e-12
6.05855e-13
-9.36561e-25
4.00989e-17
3.48481e-11
4.13128e-12
2.91945e-08
9.49876e-10
8.08502e-10
2.01999e-11
1.20154e-09
2.48734e-11
8.85662e-12
1.63758e-12
2.86654e-13
1.64103e-11
1.68125e-12
-6.12616e-25
4.13181e-12
4.38385e-10
5.16759e-10
1.92812e-09
1.80794e-10
2.21889e-09
1.37218e-08
1.45514e-10
8.85383e-12
1.39375e-12
-5.06012e-25
-1.10425e-17
-3.14195e-27
4.19762e-12
2.98307e-10
3.4266e-07
1.81884e-09
1.26189e-07
2.37898e-08
2.55928e-08
3.44688e-10
4.69786e-08
8.86706e-12
2.99907e-09
-7.86402e-18
-6.07428e-15
7.4093e-09
9.92695e-07
7.40228e-07
2.74569e-08
7.9419e-07
1.34764e-07
5.53552e-08
6.65426e-10
1.01695e-07
4.46962e-11
1.72779e-08
5.89768e-09
-2.13946e-14
1.61383e-07
1.63497e-05
1.75399e-06
5.00349e-08
1.35287e-06
6.96472e-08
5.69638e-08
4.51162e-08
8.92515e-10
2.10147e-10
9.11797e-09
3.675e-08
7.65265e-09
9.25434e-07
4.52827e-05
5.94546e-06
8.47629e-08
1.97408e-07
1.06867e-07
7.20475e-08
3.69334e-08
3.65137e-09
7.36343e-10
1.81105e-11
1.63909e-12
3.08479e-09
9.27724e-07
1.44947e-05
1.86661e-06
5.32747e-07
3.46234e-05
4.00019e-05
4.94628e-05
4.3776e-07
8.6993e-06
3.65144e-09
1.99516e-06
2.50398e-07
5.05509e-14
1.23486e-06
1.87065e-05
2.49459e-05
2.26385e-05
0.000112119
0.000143058
0.000194784
3.96407e-07
5.26086e-05
1.44273e-08
2.16326e-06
9.29903e-06
1.02489e-06
1.51226e-06
3.42151e-06
5.1849e-06
2.40362e-06
1.07573e-05
0.000101791
1.22875e-05
4.61938e-07
5.174e-06
5.59167e-08
2.32178e-07
1.46466e-05
3.38575e-06
0.189676
0.052208
-0.000599394
5.38937e-06
7.06666e-06
1.62175e-05
5.69169e-06
1.2209e-06
1.18964e-06
2.28606e-07
0.000295478
6.84731e-06
8.15158e-12
0.619851
0.559805
0.495137
0.183165
-0.00148244
-8.26423e-05
0.117748
0.152641
0.00119072
0.1204
0.00346481
2.47699e-10
4.16675e-11
0.740001
0.67569
0.685788
0.705369
0.663092
0.612374
0.684605
0.705748
0.754669
0.852506
0.900819
0.87582
0.853154
0.820803
0.834435
0.841173
0.829214
0.833561
0.866687
0.918464
0.968946
0.95753
0.9515
0.949192
0.942309
0.939488
0.94427
0.953761
0.968709
0.978903
0.995749
0.992927
0.990387
0.988541
0.987964
0.988559
0.990273
0.993837
0.998368
1
1
1
1
1
1
1
1
1
1
1
1
1
1
1
1
1
1
1
1
1
1
1
1
1
1
1
1
1
1
1
1
1
1
1
1
1
1
1
1
1
1
1
1
1
1
1
1
1
1
1
1
1
1
1
1
1
1
1
1
1
1
1
1
1
1
1
1
1
1
1
1
1
1
1
1
1
1
1
1
1
1
1
1
1
1
1
1
1
1
1
1
1
1
1
1
1
1
1
1
1
1
1
1
1
1
1
1
1
1
1
1
1
1
1
1
1
1
1
1
1
1
1
1
1
1
1
1
1
1
1
1
1
1
1
1
1
1
1
1
1
1
1
1
1
1
1
1
1
1
1
1
1
1
1
1
1
1
1
1
1
1
1
1
1
1
1
1
1
1
1
1
1
1
1
1
1
1
1
1
1
1
1
1
1
1
1
1
1
1
1
1
1
1
1
1
1
1
1
1
1
1
1
1
1
1
1
1
1
1
1
1
1
1
1
1
1
1
1
1
1
1
1
1
1
1
1
1
1
1
1
1
1
1
1
1
1
1
1
1
1
1
1
1
1
1
1
1
1
1
1
1
1
1
1
1
1
1
1
1
1
1
1
1
1
1
1
1
1
1
1
1
1
1
1
1
1
1
1
1
1
1
1
1
1
1
1
1
1
1
1
1
1
1
1
1
1
1
1
1
1
1
1
1
1
1
1
1
1
1
1
1
1
1
1
1
1
1
1
1
1
1
1
1
1
1
1
1
1
1
1
1
1
1
1
1
1
1
1
1
1
1
1
1
1
1
1
1
1
1
1
1
1
1
1
1
1
1
1
1
1
1
1
1
1
1
1
1
1
1
1
1
1
1
1
1
1
1
1
1
1
1
1
1
1
1
1
1
1
1
1
1
1
1
1
1
1
1
1
1
1
1
1
1
1
1
1
1
1
1
1
1
1
1
1
1
1
1
1
1
1
1
1
1
1
1
1
1
1
1
1
1
1
1
1
1
1
1
1
1
1
1
1
1
1
1
1
1
1
1
1
1
1
1
1
1
1
1
1
1
1
1
1
1
1
1
1
1
1
1
1
1
1
1
1
1
1
1
1
1
1
1
1
1
1
1
1
1
1
1
1
1
1
1
1
1
1
1
1
1
1
1
1
1
1
1
1
1
1
1
1
1
1
1
1
1
1
1
1
1
1
1
1
1
1
1
1
1
1
1
1
1
1
1
1
1
1
1
1
1
1
1
1
1
1
1
1
1
1
1
1
1
1
1
1
1
1
1
1
1
1
1
1
1
1
1
1
1
1
1
1
1
1
1
1
1
1
1
1
1
1
1
1
1
1
1
1
1
1
1
1
1
1
1
1
1
1
1
1
1
1
1
1
1
1
1
1
1
1
1
1
1
1
1
1
1
1
1
1
1
1
1
1
1
1
1
1
1
1
1
1
1
1
1
1
1
1
1
1
1
1
1
1
1
1
1
1
1
1
1
1
1
1
1
1
1
1
1
1
1
1
1
1
1
1
1
1
1
1
1
1
1
1
1
1
1
1
1
1
1
1
1
1
1
1
1
1
1
1
1
1
1
1
1
1
1
1
1
1
1
1
1
1
1
1
1
1
1
1
1
1
1
1
1
1
1
1
1
1
1
1
1
1
1
1
1
1
1
1
1
1
1
1
1
1
1
1
1
1
1
1
1
1
1
1
1
1
1
1
1
1
1
1
1
1
1
1
1
1
1
1
1
1
1
1
1
1
1
1
1
1
1
1
1
1
1
1
1
1
1
1
1
1
1
1
1
1
1
1
1
1
1
1
1
1
1
1
1
1
1
1
1
1
1
1
1
1
1
1
1
1
1
1
1
1
1
1
1
1
1
1
1
1
1
1
1
1
1
1
1
1
1
1
1
1
1
1
1
1
1
1
1
1
1
1
1
1
1
1
1
1
1
1
1
1
1
1
1
1
1
1
1
1
1
1
1
1
1
1
1
1
1
1
1
1
1
1
1
1
1
1
1
1
1
1
1
1
1
1
1
1
1
1
1
1
1
1
1
1
1
1
1
1
1
1
1
1
1
1
1
1
1
1
1
1
1
1
1
1
1
1
1
1
1
1
1
1
1
1
1
1
1
1
1
1
1
1
1
1
1
1
1
1
1
1
1
1
1
1
1
1
1
1
1
1
1
1
1
1
1
1
1
1
1
1
1
1
1
1
1
1
1
1
1
1
1
1
1
1
1
1
1
1
1
1
1
1
1
1
1
1
1
1
1
1
1
1
1
1
1
1
1
1
1
1
1
1
1
1
1
1
1
1
1
1
1
1
1
1
1
1
1
1
1
1
1
1
1
1
1
1
1
1
1
1
1
1
1
1
1
1
1
1
1
1
1
1
1
1
1
1
1
1
1
1
1
1
1
1
1
1
1
1
1
1
1
1
1
1
1
1
1
1
1
1
1
1
1
1
1
1
1
1
1
1
1
1
1
1
1
1
1
1
1
1
1
1
1
1
1
1
)
;

boundaryField
{
    inlet
    {
        type            fixedValue;
        value           uniform 1;
    }
    outlet
    {
        type            inletOutlet;
        inletValue      nonuniform List<scalar> 0();
        value           nonuniform List<scalar> 0();
    }
    walls
    {
        type            zeroGradient;
    }
    side1
    {
        type            cyclic;
    }
    side2
    {
        type            cyclic;
    }
    procBoundary1to0
    {
        type            processor;
        value           nonuniform List<scalar> 
76
(
2.23309e-14
7.47599e-15
2.4946e-16
2.50087e-16
5.08992e-16
1.8432e-16
2.37005e-18
2.37003e-18
2.37023e-18
1.05675e-16
1.25322e-18
1.25322e-18
1.25323e-18
1.25323e-18
1.25323e-18
1.25324e-18
6.68185e-17
1.21842e-16
9.01315e-17
7.89644e-17
3.02742e-14
1.17562e-13
4.76497e-15
4.27517e-15
1.44523e-15
2.61434e-12
1.67326e-15
1.44523e-15
7.35021e-16
2.23546e-14
2.24227e-47
-8.92702e-20
5.34629e-15
5.05509e-14
3.02032e-13
1.63909e-12
1.28015e-11
6.13291e-11
4.77488e-17
3.69927e-17
8.38343e-18
4.5941e-14
6.10172e-14
6.10172e-14
3.75154e-14
8.67266e-16
1.01301e-17
1.25322e-18
1.25322e-18
1.25322e-18
1.25322e-18
1.25322e-18
1.52076e-17
8.00777e-17
8.2434e-17
7.77143e-17
7.7729e-17
7.78121e-17
7.76332e-17
4.14826e-14
7.90578e-17
1.95302e-12
-1.1224e-24
9.96152e-11
8.64994e-11
-1.1224e-24
-2.5923e-26
-2.19343e-26
-1.39987e-25
-2.58014e-30
5.09905e-27
5.34629e-15
5.05509e-14
3.02032e-13
1.63909e-12
8.15158e-12
)
;
    }
    procBoundary1to2
    {
        type            processor;
        value           nonuniform List<scalar> 
84
(
1
1
1
1
1
1
1
1
1
1
1
1
1
1
1
1
1
1
1
1
1
1
1
1
1
1
1
1
1
1
1
1
1
1
1
1
1
1
1
1
1
1
1
1
1
1
1
1
1
1
1
1
1
1
1
1
1
1
1
1
1
1
1
1
1
1
1
1
1
1
1
1
1
1
1
1
1
1
1
1
1
1
1
1
)
;
    }
    procBoundary1to4
    {
        type            processor;
        value           nonuniform List<scalar> 
32
(
-6.13523e-56
-7.68132e-48
-6.59766e-33
-1.07094e-26
-2.01187e-24
4.3208e-16
6.74483e-16
3.39079e-16
1.42932e-21
1.42932e-21
1.43193e-21
1.42996e-21
1.46782e-18
3.31783e-17
1.01415e-14
2.23309e-14
-1.1543e-55
-3.03891e-47
-2.52188e-33
-7.06413e-27
-2.46488e-35
4.49254e-16
6.74483e-16
4.86487e-16
1.42932e-21
1.42932e-21
4.61564e-18
1.43064e-21
2.43875e-16
2.78972e-16
7.76709e-17
1.56063e-16
)
;
    }
}


// ************************************************************************* //
