/*--------------------------------*- C++ -*----------------------------------*\
| =========                 |                                                 |
| \\      /  F ield         | OpenFOAM: The Open Source CFD Toolbox           |
|  \\    /   O peration     | Version:  v2012                                 |
|   \\  /    A nd           | Website:  www.openfoam.com                      |
|    \\/     M anipulation  |                                                 |
\*---------------------------------------------------------------------------*/
FoamFile
{
    version     2.0;
    format      ascii;
    class       surfaceScalarField;
    location    "0.5";
    object      phi;
}
// * * * * * * * * * * * * * * * * * * * * * * * * * * * * * * * * * * * * * //

dimensions      [0 3 -1 0 0 0 0];
oriented        oriented;


internalField   nonuniform List<scalar> 
6403
(
6.19001e-15
-5.08807e-13
-2.0759e-16
2.62866e-14
-1.68542e-12
-3.44307e-16
5.63539e-14
-3.08092e-12
6.05772e-16
9.28124e-14
-4.64328e-12
5.01223e-16
1.66627e-13
-6.47099e-12
-1.75919e-15
2.55294e-13
-8.45946e-12
1.04428e-15
3.74968e-13
-1.07011e-11
-5.53879e-16
5.2571e-13
-1.31688e-11
1.04574e-15
7.07747e-13
-1.58929e-11
-1.50989e-15
9.23737e-13
-1.88854e-11
1.78925e-15
1.17239e-12
-2.21579e-11
-2.16703e-15
1.46539e-12
-2.57202e-11
1.72425e-15
1.79954e-12
-2.96017e-11
-1.65088e-15
2.17997e-12
-3.37975e-11
1.04821e-15
2.60525e-12
-3.83398e-11
-7.48973e-16
3.08321e-12
-4.32311e-11
2.96891e-16
3.61015e-12
-4.84904e-11
-1.67413e-16
4.19472e-12
-5.41269e-11
-9.01506e-17
4.83197e-12
-6.01523e-11
1.10042e-16
5.52885e-12
-6.65717e-11
-2.22074e-16
6.28066e-12
-7.33912e-11
1.64965e-16
7.09252e-12
-8.0619e-11
-2.35982e-16
7.95988e-12
-8.82426e-11
1.12737e-16
8.88488e-12
-9.62692e-11
-1.90338e-16
9.86274e-12
-1.0468e-10
4.64646e-17
1.08925e-11
-1.13466e-10
-1.41515e-16
1.19684e-11
-1.22608e-10
-3.07008e-18
1.30863e-11
-1.32067e-10
-1.12927e-16
1.42388e-11
-1.41834e-10
-4.05598e-17
1.54184e-11
-1.51842e-10
-9.99405e-17
1.6615e-11
-1.6206e-10
-6.41237e-17
1.78184e-11
-1.72431e-10
-9.24937e-17
1.90158e-11
-1.82886e-10
-7.40859e-17
2.01935e-11
-1.93356e-10
-8.5157e-17
2.13364e-11
-2.03761e-10
-7.47442e-17
-2.1402e-10
-7.59763e-17
6.66996e-15
-5.16089e-13
3.44164e-16
2.72916e-14
-1.70928e-12
1.22772e-15
7.28181e-14
-3.12323e-12
-1.4293e-15
1.44044e-13
-4.7097e-12
-1.82517e-15
2.25145e-13
-6.55854e-12
3.46833e-15
3.33675e-13
-8.56441e-12
-2.25917e-15
4.73627e-13
-1.08389e-11
1.41554e-16
6.39208e-13
-1.33385e-11
9.11282e-17
8.40851e-13
-1.60949e-11
-9.33663e-16
1.07635e-12
-1.91206e-11
5.39842e-16
1.34202e-12
-2.24252e-11
-1.31995e-15
1.64431e-12
-2.60256e-11
1.02618e-15
1.98858e-12
-2.9944e-11
-1.44166e-15
2.36826e-12
-3.41799e-11
1.06078e-15
2.79867e-12
-3.87681e-11
-1.17789e-15
3.27267e-12
-4.37075e-11
9.49363e-16
3.80199e-12
-4.90181e-11
-1.04661e-15
4.38064e-12
-5.47074e-11
8.23555e-16
5.01832e-12
-6.07884e-11
-8.2145e-16
5.70988e-12
-6.72645e-11
6.3128e-16
6.46188e-12
-7.41419e-11
-6.00516e-16
7.2696e-12
-8.14276e-11
4.17417e-16
8.13669e-12
-8.91088e-11
-4.18507e-16
9.05878e-12
-9.71919e-11
2.29586e-16
1.00363e-11
-1.05657e-10
-2.7361e-16
1.10641e-11
-1.14494e-10
1.08218e-16
1.21396e-11
-1.23683e-10
-1.75952e-16
1.32561e-11
-1.33184e-10
2.36659e-17
1.44078e-11
-1.42985e-10
-1.29107e-16
1.5586e-11
-1.5302e-10
-3.24375e-17
1.67814e-11
-1.63255e-10
-1.081e-16
1.79829e-11
-1.73632e-10
-6.10743e-17
1.91782e-11
-1.84081e-10
-9.39582e-17
2.03532e-11
-1.94531e-10
-7.13651e-17
2.14927e-11
-2.04901e-10
-8.38798e-17
-2.15107e-10
-7.07317e-17
8.71481e-15
-5.23112e-13
-7.49666e-16
3.25178e-14
-1.73166e-12
-6.08207e-16
6.38983e-14
-3.15592e-12
5.37932e-16
1.15258e-13
-4.76915e-12
1.61004e-15
1.95113e-13
-6.63245e-12
-1.88306e-15
3.06528e-13
-8.67413e-12
3.59261e-16
4.37296e-13
-1.09752e-11
5.24614e-16
6.01454e-13
-1.34992e-11
-1.0589e-15
8.0382e-13
-1.62979e-11
1.13195e-15
1.03688e-12
-1.93528e-11
-1.27908e-15
1.30551e-12
-2.26957e-11
1.36726e-15
1.61803e-12
-2.63314e-11
-1.32315e-15
1.96528e-12
-3.02957e-11
1.35005e-15
2.36461e-12
-3.45768e-11
-1.49775e-15
2.80573e-12
-3.92121e-11
1.17772e-15
3.3012e-12
-4.42003e-11
-1.20064e-15
3.84294e-12
-4.95622e-11
1.00368e-15
4.44251e-12
-5.5305e-11
-1.00604e-15
5.09352e-12
-6.1441e-11
7.73295e-16
5.80409e-12
-6.79737e-11
-7.47301e-16
6.56912e-12
-7.49082e-11
5.03823e-16
7.39414e-12
-8.22518e-11
-5.23415e-16
8.27455e-12
-8.999e-11
2.88869e-16
9.21236e-12
-9.81292e-11
-3.42715e-16
1.02028e-11
-1.06648e-10
1.39136e-16
1.12448e-11
-1.15536e-10
-2.15602e-16
1.23324e-11
-1.24771e-10
4.59086e-17
1.34612e-11
-1.34312e-10
-1.48392e-16
1.46238e-11
-1.44148e-10
-1.77307e-17
1.58122e-11
-1.54209e-10
-1.18413e-16
1.70164e-11
-1.6446e-10
-5.60307e-17
1.82257e-11
-1.74842e-10
-1.0214e-16
1.94271e-11
-1.85283e-10
-7.16378e-17
2.06067e-11
-1.95711e-10
-8.98023e-17
2.17489e-11
-2.06043e-10
-7.4873e-17
-2.16196e-10
-7.87499e-17
8.41064e-15
-5.31193e-13
-6.81861e-17
3.4024e-14
-1.7566e-12
-3.57092e-16
7.83907e-14
-3.20008e-12
-3.98423e-18
1.48221e-13
-4.84283e-12
1.1991e-16
2.36252e-13
-6.71817e-12
4.6142e-16
3.56913e-13
-8.79157e-12
-7.79131e-16
5.02049e-13
-1.11228e-11
1.01985e-15
6.73341e-13
-1.36697e-11
-4.0006e-16
8.90974e-13
-1.65142e-11
-3.7472e-16
1.12989e-12
-1.95937e-11
7.24017e-16
1.41525e-12
-2.29783e-11
-1.10569e-15
1.73509e-12
-2.66515e-11
1.59607e-15
2.09655e-12
-3.06564e-11
-1.84007e-15
2.49786e-12
-3.4982e-11
1.40167e-15
2.95193e-12
-3.96642e-11
-1.66803e-15
3.45032e-12
-4.47011e-11
1.36066e-15
4.00514e-12
-5.01149e-11
-1.31755e-15
4.60918e-12
-5.59112e-11
9.89468e-16
5.27333e-12
-6.21034e-11
-9.40545e-16
5.99128e-12
-6.86932e-11
6.66023e-16
6.7702e-12
-7.5686e-11
-6.55136e-16
7.60503e-12
-8.30876e-11
3.89042e-16
8.49953e-12
-9.08839e-11
-4.31971e-16
9.44912e-12
-9.90794e-11
1.95722e-16
1.0454e-11
-1.07652e-10
-2.74486e-16
1.1509e-11
-1.16591e-10
7.7012e-17
1.26108e-11
-1.25873e-10
-1.81304e-16
1.37529e-11
-1.35454e-10
-1.02558e-18
1.49288e-11
-1.45324e-10
-1.35819e-16
1.61295e-11
-1.55409e-10
-4.86048e-17
1.73452e-11
-1.65675e-10
-1.13726e-16
1.85645e-11
-1.76061e-10
-7.1231e-17
1.97745e-11
-1.86493e-10
-9.84023e-17
2.09607e-11
-1.96897e-10
-7.69824e-17
2.21074e-11
-2.07189e-10
-8.66002e-17
-2.17286e-10
-7.41894e-17
8.37726e-15
-5.39059e-13
-1.62836e-16
3.47817e-14
-1.78207e-12
-3.64767e-16
8.07605e-14
-3.24542e-12
-1.75977e-17
1.50838e-13
-4.91764e-12
4.85465e-16
2.39946e-13
-6.80474e-12
1.45667e-16
3.53166e-13
-8.9031e-12
-4.46013e-16
4.90401e-13
-1.12616e-11
7.42525e-17
6.24682e-13
-1.38059e-11
6.3444e-17
8.67769e-13
-1.67586e-11
-3.58128e-16
1.1146e-12
-1.98372e-11
2.0935e-17
1.4075e-12
-2.32706e-11
8.13253e-16
1.73866e-12
-2.69782e-11
-8.58053e-16
2.10832e-12
-3.10319e-11
8.88046e-16
2.53064e-12
-3.54018e-11
-1.53936e-15
2.9985e-12
-4.01356e-11
1.28859e-15
3.52317e-12
-4.5223e-11
-1.39412e-15
4.09625e-12
-5.06908e-11
1.12355e-15
4.72882e-12
-5.65418e-11
-1.13032e-15
5.41414e-12
-6.27905e-11
8.30066e-16
6.16007e-12
-6.94377e-11
-7.90687e-16
6.96135e-12
-7.64886e-11
4.98197e-16
7.82301e-12
-8.39486e-11
-5.34856e-16
8.74052e-12
-9.18023e-11
2.58583e-16
9.71549e-12
-1.00054e-10
-3.44387e-16
1.07432e-11
-1.0868e-10
1.07687e-16
1.18218e-11
-1.17669e-10
-2.22958e-16
1.29455e-11
-1.26997e-10
1.52624e-17
1.41093e-11
-1.36618e-10
-1.60012e-16
1.53051e-11
-1.46519e-10
-4.14606e-17
1.65246e-11
-1.56629e-10
-1.29387e-16
1.77573e-11
-1.66908e-10
-7.185e-17
1.89916e-11
-1.77295e-10
-1.10937e-16
2.02142e-11
-1.87715e-10
-8.1512e-17
2.14104e-11
-1.98093e-10
-9.54565e-17
2.25641e-11
-2.08343e-10
-7.99924e-17
-2.1838e-10
-8.24949e-17
9.16803e-15
-5.47692e-13
-1.61317e-16
3.79234e-14
-1.80969e-12
-5.76261e-16
8.3784e-14
-3.29117e-12
1.20997e-16
1.48439e-13
-4.98863e-12
1.62149e-15
2.52684e-13
-6.90192e-12
-8.76234e-16
3.9158e-13
-9.03607e-12
-3.64716e-16
5.76282e-13
-1.14508e-11
2.50647e-15
7.86103e-13
-1.40022e-11
-2.07306e-15
1.02036e-12
-1.69956e-11
1.6487e-15
1.23095e-12
-2.00456e-11
-6.49575e-16
1.51089e-12
-2.35536e-11
-3.59477e-16
1.84032e-12
-2.7305e-11
9.02886e-16
2.22018e-12
-3.14132e-11
-1.56927e-15
2.64746e-12
-3.58318e-11
1.26091e-15
3.13323e-12
-4.06189e-11
-1.53142e-15
3.66695e-12
-4.57594e-11
1.27241e-15
4.2609e-12
-5.12828e-11
-1.31092e-15
4.90709e-12
-5.71903e-11
9.31065e-16
5.61552e-12
-6.34974e-11
-9.2881e-16
6.37993e-12
-7.02036e-11
6.17895e-16
7.20655e-12
-7.73143e-11
-6.29552e-16
8.09056e-12
-8.48337e-11
3.28368e-16
9.03482e-12
-9.2746e-11
-4.11203e-16
1.00348e-11
-1.01054e-10
1.50246e-16
1.10898e-11
-1.09735e-10
-2.64305e-16
1.21945e-11
-1.18774e-10
3.78853e-17
1.33449e-11
-1.28147e-10
-1.84822e-16
1.4534e-11
-1.37807e-10
-3.16669e-17
1.57547e-11
-1.4774e-10
-1.45857e-16
1.69973e-11
-1.57872e-10
-7.15218e-17
1.82512e-11
-1.68162e-10
-1.25534e-16
1.95044e-11
-1.78549e-10
-8.79843e-17
2.07432e-11
-1.88954e-10
-1.086e-16
2.19523e-11
-1.99302e-10
-8.72894e-17
2.31154e-11
-2.09506e-10
-9.24783e-17
-2.19479e-10
-7.98893e-17
8.65148e-15
-5.56356e-13
1.19895e-16
3.64199e-14
-1.83714e-12
-9.44191e-17
8.80855e-14
-3.34205e-12
8.21626e-17
1.5967e-13
-5.05949e-12
-9.24089e-16
2.57097e-13
-7.00239e-12
5.17346e-16
3.61796e-13
-9.14614e-12
-5.23998e-16
4.88596e-13
-1.15763e-11
-2.23255e-15
6.32554e-13
-1.41726e-11
3.81424e-16
8.59803e-13
-1.72062e-11
-3.18633e-16
1.16681e-12
-2.03526e-11
3.14729e-16
1.48854e-12
-2.38767e-11
1.83122e-16
1.85685e-12
-2.76683e-11
-5.20189e-16
2.25959e-12
-3.182e-11
7.37264e-16
2.71665e-12
-3.6287e-11
-1.32491e-15
3.22163e-12
-4.11271e-11
1.0417e-15
3.78589e-12
-4.63211e-11
-1.23107e-15
4.40231e-12
-5.19018e-11
9.47144e-16
5.08072e-12
-5.7867e-11
-1.01798e-15
5.81547e-12
-6.42338e-11
6.89522e-16
6.61305e-12
-7.1e-11
-7.0559e-16
7.4689e-12
-7.81713e-11
3.90648e-16
8.38665e-12
-8.57509e-11
-4.84149e-16
9.3622e-12
-9.37223e-11
1.84661e-16
1.0396e-11
-1.02088e-10
-3.10749e-16
1.14832e-11
-1.10823e-10
5.7123e-17
1.2621e-11
-1.19912e-10
-2.1344e-16
1.38032e-11
-1.29329e-10
-2.35802e-17
1.50237e-11
-1.39028e-10
-1.64621e-16
1.62739e-11
-1.4899e-10
-7.0959e-17
1.75445e-11
-1.59142e-10
-1.41006e-16
1.8824e-11
-1.69442e-10
-9.47157e-17
2.01001e-11
-1.79825e-10
-1.2443e-16
2.13583e-11
-1.90212e-10
-9.79539e-17
2.25832e-11
-2.00527e-10
-1.05563e-16
2.37577e-11
-2.1068e-10
-8.90681e-17
-2.20585e-10
-8.82968e-17
9.22436e-15
-5.65608e-13
1.26529e-16
3.93365e-14
-1.86673e-12
-1.88459e-16
8.9693e-14
-3.39217e-12
2.64178e-16
1.56477e-13
-5.12659e-12
2.26757e-16
2.64698e-13
-7.10958e-12
-6.75867e-16
3.97835e-13
-9.27976e-12
-2.88623e-16
5.69559e-13
-1.17502e-11
-2.79739e-17
7.89398e-13
-1.44053e-11
-2.40009e-15
1.00545e-12
-1.74122e-11
2.17794e-15
1.28244e-12
-2.06264e-11
-9.18104e-16
1.59505e-12
-2.41935e-11
-1.0316e-16
1.96617e-12
-2.80348e-11
6.66489e-16
2.38187e-12
-3.2236e-11
-1.07285e-15
2.8494e-12
-3.67567e-11
9.55722e-16
3.37582e-12
-4.16517e-11
-1.29395e-15
3.95523e-12
-4.69026e-11
1.02547e-15
4.59724e-12
-5.25422e-11
-1.09956e-15
5.29647e-12
-5.8568e-11
7.20229e-16
6.06071e-12
-6.49968e-11
-7.6652e-16
6.88517e-12
-7.18256e-11
4.57063e-16
7.77417e-12
-7.90596e-11
-5.28314e-16
8.72372e-12
-8.67014e-11
2.13811e-16
9.73511e-12
-9.47334e-11
-3.51107e-16
1.0804e-11
-1.03157e-10
7.84312e-17
1.19283e-11
-1.11947e-10
-2.3735e-16
1.31025e-11
-1.21087e-10
-1.31331e-17
1.43214e-11
-1.30548e-10
-1.81631e-16
1.55772e-11
-1.40284e-10
-6.88394e-17
1.68618e-11
-1.50275e-10
-1.54891e-16
1.81644e-11
-1.60445e-10
-9.97169e-17
1.94736e-11
-1.70751e-10
-1.39869e-16
2.07761e-11
-1.81127e-10
-1.09736e-16
2.2057e-11
-1.91493e-10
-1.22199e-16
2.33002e-11
-2.01771e-10
-1.01318e-16
2.44882e-11
-2.11868e-10
-1.0087e-16
-2.21699e-10
-8.71131e-17
9.4828e-15
-5.7508e-13
8.65108e-17
4.06175e-14
-1.89721e-12
-4.90299e-16
9.6104e-14
-3.44787e-12
5.03563e-16
1.78331e-13
-5.2096e-12
1.27001e-16
2.85101e-13
-7.21549e-12
-4.41655e-16
4.15159e-13
-9.40991e-12
5.87089e-17
5.8467e-13
-1.19186e-11
-1.18291e-15
7.74673e-13
-1.46115e-11
-8.51538e-16
1.02732e-12
-1.7653e-11
8.25112e-16
1.3207e-12
-2.09148e-11
-1.91339e-16
1.65241e-12
-2.45283e-11
4.57311e-16
2.04297e-12
-2.84195e-11
-6.01731e-16
2.47366e-12
-3.2671e-11
5.70329e-16
2.96683e-12
-3.72472e-11
-1.02755e-15
3.51331e-12
-4.21999e-11
8.82104e-16
4.12323e-12
-4.75104e-11
-9.6774e-16
4.79121e-12
-5.3212e-11
6.99037e-16
5.52486e-12
-5.93004e-11
-7.9447e-16
6.32042e-12
-6.57936e-11
4.66248e-16
7.18236e-12
-7.26865e-11
-5.2767e-16
8.10712e-12
-7.99852e-11
2.47881e-16
9.09648e-12
-8.76904e-11
-3.78871e-16
1.01469e-11
-9.57843e-11
9.05866e-17
1.12571e-11
-1.04267e-10
-2.57522e-16
1.24222e-11
-1.13112e-10
-5.4036e-18
1.36381e-11
-1.22302e-10
-1.96289e-16
1.48977e-11
-1.31808e-10
-6.83351e-17
1.61937e-11
-1.4158e-10
-1.67551e-16
1.75166e-11
-1.51598e-10
-1.04157e-16
1.88556e-11
-1.61784e-10
-1.53398e-16
2.01981e-11
-1.72094e-10
-1.20432e-16
2.15304e-11
-1.8246e-10
-1.39545e-16
2.28369e-11
-1.928e-10
-1.16503e-16
2.41008e-11
-2.03035e-10
-1.16952e-16
2.5304e-11
-2.13072e-10
-9.93072e-17
-2.22823e-10
-9.4282e-17
1.03669e-14
-5.85266e-13
-4.00118e-17
4.24067e-14
-1.92952e-12
4.82231e-16
9.71807e-14
-3.50199e-12
-4.67937e-17
1.73539e-13
-5.28672e-12
-6.80884e-16
2.80817e-13
-7.32355e-12
2.16261e-16
4.35201e-13
-9.56201e-12
-4.46321e-16
6.14873e-13
-1.21033e-11
-5.08106e-16
8.28174e-13
-1.48358e-11
-1.48879e-15
1.09764e-12
-1.79108e-11
1.54878e-15
1.40791e-12
-2.12177e-11
1.36966e-16
1.7564e-12
-2.48762e-11
-2.86088e-17
2.16107e-12
-2.88197e-11
7.34765e-16
2.6138e-12
-3.31242e-11
-9.48199e-16
3.12557e-12
-3.77593e-11
9.02337e-16
3.69807e-12
-4.27701e-11
-9.33002e-16
4.32983e-12
-4.81432e-11
7.8291e-16
5.02788e-12
-5.39085e-11
-7.70441e-16
5.78936e-12
-6.00631e-11
4.60583e-16
6.61969e-12
-6.66229e-11
-5.3972e-16
7.51594e-12
-7.35833e-11
2.75262e-16
8.48014e-12
-8.09489e-11
-3.78697e-16
9.50931e-12
-8.87201e-11
9.04527e-17
1.06029e-11
-9.68777e-11
-2.71023e-16
1.17567e-11
-1.05421e-10
-1.45381e-18
1.29671e-11
-1.14323e-10
-2.03236e-16
1.42279e-11
-1.23564e-10
-6.68018e-17
1.55326e-11
-1.33113e-10
-1.75865e-16
1.68725e-11
-1.4292e-10
-1.07536e-16
1.82379e-11
-1.52964e-10
-1.63686e-16
1.96168e-11
-1.63163e-10
-1.28816e-16
2.09962e-11
-1.73474e-10
-1.54331e-16
2.23613e-11
-1.83825e-10
-1.31753e-16
2.36962e-11
-1.94135e-10
-1.35609e-16
2.49829e-11
-2.04322e-10
-1.14937e-16
2.62029e-11
-2.14292e-10
-1.08652e-16
-2.23956e-10
-9.33587e-17
1.0784e-14
-5.95688e-13
-1.6986e-16
4.42576e-14
-1.96245e-12
-3.89337e-16
1.0735e-13
-3.56419e-12
-9.80342e-18
2.04812e-13
-5.38349e-12
1.11422e-15
3.22744e-13
-7.44179e-12
-7.58004e-16
4.69161e-13
-9.71098e-12
-4.96492e-16
6.54831e-13
-1.22868e-11
-9.14894e-18
8.68924e-13
-1.50652e-11
-2.00338e-15
1.14569e-12
-1.81807e-11
1.28665e-15
1.47179e-12
-2.15369e-11
-3.2985e-16
1.83786e-12
-2.52454e-11
4.20295e-16
2.26434e-12
-2.92437e-11
-6.93812e-16
2.73998e-12
-3.36022e-11
4.84466e-16
3.27881e-12
-3.8296e-11
-7.91187e-16
3.87659e-12
-4.3369e-11
6.32464e-16
4.54165e-12
-4.88068e-11
-7.05513e-16
5.27169e-12
-5.46392e-11
4.61303e-16
6.07134e-12
-6.08619e-11
-5.39973e-16
6.93931e-12
-6.74914e-11
2.49679e-16
7.87807e-12
-7.45213e-11
-3.43585e-16
8.88511e-12
-8.19562e-11
9.93664e-17
9.96031e-12
-8.97951e-11
-2.71126e-16
1.11005e-11
-9.80181e-11
-7.65005e-18
1.23028e-11
-1.06624e-10
-2.05907e-16
1.3562e-11
-1.15582e-10
-6.9461e-17
1.48722e-11
-1.24874e-10
-1.80201e-16
1.62258e-11
-1.34467e-10
-1.13033e-16
1.76136e-11
-1.44308e-10
-1.71463e-16
1.90249e-11
-1.54375e-10
-1.3689e-16
2.04473e-11
-1.64586e-10
-1.65775e-16
2.18666e-11
-1.74894e-10
-1.44849e-16
2.32676e-11
-1.85227e-10
-1.53471e-16
2.4633e-11
-1.95501e-10
-1.33067e-16
2.59445e-11
-2.05633e-10
-1.26388e-16
2.71825e-11
-2.1553e-10
-1.07384e-16
-2.251e-10
-9.81934e-17
1.12236e-14
-6.06792e-13
-5.05178e-17
4.68743e-14
-1.99756e-12
-2.48679e-16
1.07872e-13
-3.62381e-12
-4.99768e-16
1.96595e-13
-5.47269e-12
1.15117e-15
3.22027e-13
-7.56959e-12
-3.45048e-16
4.94802e-13
-9.88339e-12
-6.57044e-16
6.96764e-13
-1.24898e-11
-6.7007e-17
9.3915e-13
-1.53206e-11
-1.81758e-15
1.22924e-12
-1.84607e-11
1.4849e-15
1.57316e-12
-2.18771e-11
-8.84334e-17
1.95416e-12
-2.56292e-11
-5.2242e-16
2.39938e-12
-2.96878e-11
4.094e-16
2.89935e-12
-3.41015e-11
-7.11373e-16
3.46313e-12
-3.88599e-11
6.10216e-16
4.0914e-12
-4.39953e-11
-5.8131e-16
4.78597e-12
-4.95021e-11
3.97884e-16
5.55146e-12
-5.54033e-11
-4.43312e-16
6.38693e-12
-6.1698e-11
2.0581e-16
7.29558e-12
-6.83994e-11
-3.40633e-16
8.27641e-12
-7.55022e-11
1.06083e-16
9.32933e-12
-8.30087e-11
-2.43011e-16
1.04521e-11
-9.09181e-11
-2.3163e-17
1.16426e-11
-9.92084e-11
-2.06219e-16
1.28963e-11
-1.07878e-10
-7.89556e-17
1.42082e-11
-1.16894e-10
-1.7786e-16
1.55714e-11
-1.26237e-10
-1.18133e-16
1.69775e-11
-1.35873e-10
-1.74264e-16
1.84168e-11
-1.45747e-10
-1.44314e-16
1.98776e-11
-1.55836e-10
-1.73759e-16
2.13467e-11
-1.66055e-10
-1.55513e-16
2.2809e-11
-1.76356e-10
-1.6755e-16
2.42482e-11
-1.86666e-10
-1.50464e-16
2.56464e-11
-1.96899e-10
-1.46164e-16
2.69842e-11
-2.06971e-10
-1.24867e-16
2.82413e-11
-2.16787e-10
-1.1322e-16
-2.26255e-10
-9.62861e-17
1.19145e-14
-6.18373e-13
-1.39931e-16
4.93043e-14
-2.03455e-12
-2.76317e-16
1.14142e-13
-3.68817e-12
-2.24856e-16
2.10336e-13
-5.56859e-12
8.71484e-16
3.47458e-13
-7.70859e-12
-3.33327e-16
5.30023e-13
-1.00658e-11
-2.78917e-16
7.49639e-13
-1.27088e-11
-2.58241e-16
1.03743e-12
-1.5621e-11
-1.22883e-15
1.30779e-12
-1.87181e-11
1.54841e-15
1.66312e-12
-2.22314e-11
-7.70365e-16
2.05342e-12
-2.60252e-11
1.8114e-16
2.52445e-12
-3.01554e-11
-6.39123e-16
3.04773e-12
-3.46258e-11
4.88352e-16
3.64413e-12
-3.94545e-11
-4.8956e-16
4.30424e-12
-4.46558e-11
3.31429e-16
5.03735e-12
-5.02344e-11
-4.33356e-16
5.84199e-12
-5.6208e-11
2.17925e-16
6.72121e-12
-6.25768e-11
-3.33944e-16
7.67495e-12
-6.93534e-11
5.34663e-17
8.70445e-12
-7.65312e-11
-2.13744e-16
9.80772e-12
-8.41121e-11
-3.49351e-17
1.09833e-11
-9.20937e-11
-2.01523e-16
1.2228e-11
-1.00453e-10
-1.01774e-16
1.35375e-11
-1.09187e-10
-1.77689e-16
1.49059e-11
-1.18262e-10
-1.29343e-16
1.63258e-11
-1.27657e-10
-1.74343e-16
1.77882e-11
-1.37336e-10
-1.53655e-16
1.92824e-11
-1.47242e-10
-1.79113e-16
2.07961e-11
-1.5735e-10
-1.65903e-16
2.23148e-11
-1.67574e-10
-1.77861e-16
2.38228e-11
-1.77864e-10
-1.64918e-16
2.53026e-11
-1.88146e-10
-1.6432e-16
2.67353e-11
-1.98332e-10
-1.44647e-16
2.81007e-11
-2.08337e-10
-1.31562e-16
2.93775e-11
-2.18064e-10
-1.10728e-16
-2.27421e-10
-9.80016e-17
1.28467e-14
-6.30958e-13
-1.22353e-16
5.34632e-14
-2.07538e-12
1.39127e-16
1.30353e-13
-3.76439e-12
-3.02271e-17
2.48532e-13
-5.68647e-12
3.99153e-16
3.8604e-13
-7.8502e-12
-4.04593e-16
5.54922e-13
-1.02376e-11
-1.10532e-15
7.27419e-13
-1.28828e-11
-3.66907e-16
9.58481e-13
-1.58718e-11
-2.65474e-15
1.25996e-12
-1.90089e-11
1.76918e-15
1.69562e-12
-2.26646e-11
-4.49325e-16
2.13986e-12
-2.64689e-11
-2.0353e-16
2.65189e-12
-3.0667e-11
3.09268e-16
3.21476e-12
-3.51873e-11
-3.27195e-16
3.84755e-12
-4.00872e-11
2.56273e-16
4.54617e-12
-4.53536e-11
-3.47683e-16
5.31798e-12
-5.10066e-11
1.27081e-16
6.16473e-12
-5.70538e-11
-2.4254e-16
7.08803e-12
-6.35005e-11
8.47133e-18
8.08936e-12
-7.03545e-11
-2.19246e-16
9.16893e-12
-7.76107e-11
-4.02525e-17
1.03252e-11
-8.52683e-11
-1.69852e-16
1.15564e-11
-9.3325e-11
-1.184e-16
1.28588e-11
-1.01756e-10
-1.73651e-16
1.42275e-11
-1.10556e-10
-1.47473e-16
1.56561e-11
-1.19691e-10
-1.70732e-16
1.71364e-11
-1.29138e-10
-1.62622e-16
1.86585e-11
-1.38858e-10
-1.79814e-16
2.02111e-11
-1.48794e-10
-1.75155e-16
2.17806e-11
-1.5892e-10
-1.84773e-16
2.33519e-11
-1.69146e-10
-1.76516e-16
2.49079e-11
-1.79421e-10
-1.77976e-16
2.64303e-11
-1.89669e-10
-1.63011e-16
2.78991e-11
-1.99801e-10
-1.51801e-16
2.92931e-11
-2.09731e-10
-1.28619e-16
3.05901e-11
-2.19361e-10
-1.12526e-16
-2.28599e-10
-9.38857e-17
1.27327e-14
-6.43769e-13
2.82094e-17
5.23689e-14
-2.11512e-12
-1.96528e-17
1.19308e-13
-3.83061e-12
-2.31414e-16
2.20317e-13
-5.78781e-12
1.38978e-16
3.5589e-13
-7.9838e-12
-3.7736e-16
5.72076e-13
-1.04498e-11
6.95398e-16
8.42688e-13
-1.31514e-11
-7.91426e-16
1.16644e-12
-1.61897e-11
1.1208e-15
1.52072e-12
-1.93663e-11
-5.43353e-16
1.87417e-12
-2.30126e-11
-4.54931e-16
2.31089e-12
-2.69089e-11
4.42519e-16
2.82412e-12
-3.11772e-11
-5.26416e-16
3.40648e-12
-3.57711e-11
1.80153e-16
4.06577e-12
-4.07448e-11
-2.4246e-16
4.79909e-12
-4.60863e-11
1.67844e-16
5.61141e-12
-5.18187e-11
-2.68867e-16
6.50281e-12
-5.79448e-11
4.29334e-17
7.47548e-12
-6.44731e-11
-2.08599e-16
8.52916e-12
-7.14083e-11
-8.29497e-17
9.66431e-12
-7.87458e-11
-1.49264e-16
1.08789e-11
-8.6483e-11
-1.38394e-16
1.21703e-11
-9.46167e-11
-1.6769e-16
1.35347e-11
-1.0312e-10
-1.75023e-16
1.49667e-11
-1.11988e-10
-1.73116e-16
1.64594e-11
-1.21184e-10
-1.78473e-16
1.80037e-11
-1.30682e-10
-1.7918e-16
1.95892e-11
-1.40444e-10
-1.85144e-16
2.12033e-11
-1.50409e-10
-1.88641e-16
2.28318e-11
-1.60548e-10
-1.8676e-16
2.44582e-11
-1.70772e-10
-1.87284e-16
2.60645e-11
-1.81028e-10
-1.77319e-16
2.76313e-11
-1.91236e-10
-1.69835e-16
2.91374e-11
-2.01307e-10
-1.48592e-16
3.05607e-11
-2.11154e-10
-1.3038e-16
3.1878e-11
-2.20678e-10
-1.07256e-16
-2.29786e-10
-9.20603e-17
1.37623e-14
-6.57589e-13
2.1651e-17
5.8387e-14
-2.15974e-12
6.107e-17
1.3663e-13
-3.90846e-12
-1.78529e-16
2.55958e-13
-5.90805e-12
2.1434e-17
3.99639e-13
-8.12768e-12
-4.32711e-16
5.98369e-13
-1.06471e-11
-1.2693e-16
8.31924e-13
-1.33849e-11
-7.60383e-16
1.09832e-12
-1.6457e-11
-2.50115e-16
1.49129e-12
-1.97629e-11
-4.72841e-16
1.9225e-12
-2.34396e-11
-4.02256e-16
2.41473e-12
-2.74009e-11
1.39932e-16
2.97099e-12
-3.17327e-11
-1.78391e-17
3.59654e-12
-3.63966e-11
-2.30942e-16
4.2964e-12
-4.14443e-11
5.0084e-17
5.07327e-12
-4.68625e-11
-1.49373e-16
5.93095e-12
-5.26768e-11
-7.97121e-17
6.87101e-12
-5.88844e-11
-1.15423e-16
7.89545e-12
-6.54978e-11
-1.37805e-16
9.00406e-12
-7.2517e-11
-1.36655e-16
1.01973e-11
-7.9939e-11
-1.3822e-16
1.14726e-11
-8.77583e-11
-1.29021e-16
1.28276e-11
-9.59719e-11
-1.85768e-16
1.42574e-11
-1.0455e-10
-1.65917e-16
1.57566e-11
-1.13488e-10
-1.97365e-16
1.73169e-11
-1.22744e-10
-1.76559e-16
1.8929e-11
-1.32294e-10
-1.94379e-16
2.05812e-11
-1.42096e-10
-1.88469e-16
2.22601e-11
-1.52088e-10
-1.94738e-16
2.39503e-11
-1.62239e-10
-1.92915e-16
2.56344e-11
-1.72457e-10
-1.87641e-16
2.7293e-11
-1.82686e-10
-1.82678e-16
2.89056e-11
-1.92849e-10
-1.66396e-16
3.04501e-11
-2.02852e-10
-1.50193e-16
3.19029e-11
-2.12607e-10
-1.23947e-16
3.32403e-11
-2.22015e-10
-1.04855e-16
-2.30984e-10
-8.46871e-17
1.43376e-14
-6.72099e-13
8.63038e-17
5.91812e-14
-2.20532e-12
1.46568e-16
1.40054e-13
-3.98926e-12
-2.51347e-16
2.6957e-13
-6.03766e-12
-1.67057e-16
4.24146e-13
-8.28182e-12
-7.77354e-16
6.39714e-13
-1.0863e-11
4.81671e-16
8.96755e-13
-1.36402e-11
-1.08469e-15
1.21583e-12
-1.67765e-11
4.99292e-16
1.59776e-12
-2.01448e-11
-3.34156e-16
2.04519e-12
-2.38872e-11
-8.16917e-16
2.55634e-12
-2.7914e-11
8.90794e-17
3.14353e-12
-3.23181e-11
-1.41254e-16
3.80355e-12
-3.70563e-11
6.01473e-17
4.54271e-12
-4.21836e-11
-2.0416e-16
5.36311e-12
-4.76829e-11
-1.14803e-16
6.26891e-12
-5.35827e-11
-1.01497e-16
7.26101e-12
-5.98762e-11
-1.26502e-16
8.34086e-12
-6.65781e-11
-1.20135e-16
9.50886e-12
-7.36851e-11
-1.84432e-16
1.07645e-11
-8.11948e-11
-9.6992e-17
1.21055e-11
-8.90994e-11
-1.96108e-16
1.35282e-11
-9.7395e-11
-1.50635e-16
1.50279e-11
-1.0605e-10
-2.18585e-16
1.6598e-11
-1.15058e-10
-1.76973e-16
1.823e-11
-1.24377e-10
-2.08038e-16
1.99134e-11
-1.33978e-10
-1.86985e-16
2.16358e-11
-1.43819e-10
-2.0175e-16
2.33825e-11
-1.53835e-10
-1.94809e-16
2.51372e-11
-1.63994e-10
-1.94854e-16
2.68812e-11
-1.74201e-10
-1.90288e-16
2.85939e-11
-1.844e-10
-1.78784e-16
3.02536e-11
-1.94509e-10
-1.67483e-16
3.1837e-11
-2.04436e-10
-1.42671e-16
3.33196e-11
-2.1409e-10
-1.21124e-16
3.46764e-11
-2.23372e-10
-9.55555e-17
-2.32189e-10
-7.93268e-17
1.4987e-14
-6.87628e-13
2.33299e-16
6.55445e-14
-2.25441e-12
-4.37752e-16
1.52583e-13
-4.07492e-12
-8.97332e-16
2.73369e-13
-6.16288e-12
1.34082e-15
4.46548e-13
-8.45449e-12
-5.45154e-16
6.85567e-13
-1.11001e-11
-2.2928e-16
9.65745e-13
-1.39214e-11
-8.96112e-16
1.30737e-12
-1.71173e-11
2.66713e-16
1.70701e-12
-2.05441e-11
2.81865e-16
2.17711e-12
-2.4357e-11
-1.21685e-15
2.71423e-12
-2.84533e-11
4.43137e-16
3.33179e-12
-3.29339e-11
-5.79762e-16
4.02718e-12
-3.77525e-11
2.43747e-16
4.80768e-12
-4.29643e-11
-4.38995e-16
5.67424e-12
-4.85501e-11
-1.56512e-18
6.63113e-12
-5.45395e-11
-2.49708e-16
7.67827e-12
-6.09233e-11
1.17876e-17
8.81756e-12
-6.77177e-11
-2.60464e-16
1.00481e-11
-7.49161e-11
-7.56767e-17
1.137e-11
-8.25166e-11
-2.05564e-16
1.27797e-11
-9.05093e-11
-1.03599e-16
1.42743e-11
-9.88898e-11
-2.23337e-16
1.58475e-11
-1.07624e-10
-1.6279e-16
1.74927e-11
-1.16703e-10
-2.21581e-16
1.92e-11
-1.26084e-10
-1.82607e-16
2.09584e-11
-1.35737e-10
-2.08036e-16
2.27542e-11
-1.45615e-10
-1.93478e-16
2.45719e-11
-1.55652e-10
-1.99083e-16
2.63936e-11
-1.65816e-10
-1.93928e-16
2.81996e-11
-1.76007e-10
-1.85899e-16
2.9968e-11
-1.86168e-10
-1.78997e-16
3.16758e-11
-1.96217e-10
-1.58698e-16
3.32986e-11
-2.06058e-10
-1.39866e-16
3.48105e-11
-2.15602e-10
-1.09818e-16
3.61858e-11
-2.24747e-10
-8.94697e-17
-2.33402e-10
-6.81404e-17
1.5826e-14
-7.0402e-13
2.1206e-16
6.63954e-14
-2.30669e-12
7.11997e-16
1.5995e-13
-4.17138e-12
1.49691e-15
3.06066e-13
-6.30058e-12
-2.18777e-15
5.02401e-13
-8.65023e-12
-1.60751e-15
7.24013e-13
-1.1329e-11
2.12647e-15
1.02885e-12
-1.42196e-11
-2.29142e-15
1.38637e-12
-1.74791e-11
1.31044e-15
1.80926e-12
-2.09681e-11
-1.61333e-15
2.30796e-12
-2.48547e-11
1.89398e-16
2.87963e-12
-2.90246e-11
-2.24805e-16
3.53109e-12
-3.35862e-11
1.6466e-16
4.26762e-12
-3.84888e-11
-5.20051e-16
5.09208e-12
-4.37887e-11
2.39504e-16
6.00839e-12
-4.94658e-11
-3.48969e-16
7.01789e-12
-5.55494e-11
8.87807e-17
8.12362e-12
-6.20281e-11
-2.21561e-16
9.32448e-12
-6.89191e-11
-1.36622e-18
1.06216e-11
-7.62132e-11
-2.53206e-16
1.20133e-11
-8.39086e-11
-4.97564e-17
1.34968e-11
-9.19928e-11
-2.29461e-16
1.5067e-11
-1.0046e-10
-1.29765e-16
1.67182e-11
-1.09276e-10
-2.3249e-16
1.84421e-11
-1.18428e-10
-1.73938e-16
2.02288e-11
-1.27871e-10
-2.1473e-16
2.20657e-11
-1.37574e-10
-1.89034e-16
2.39383e-11
-1.47488e-10
-2.01179e-16
2.58296e-11
-1.57544e-10
-1.93424e-16
2.77209e-11
-1.67707e-10
-1.88478e-16
2.95908e-11
-1.77877e-10
-1.84554e-16
3.14162e-11
-1.87994e-10
-1.68119e-16
3.31729e-11
-1.97974e-10
-1.56159e-16
3.48349e-11
-2.07721e-10
-1.26456e-16
3.63756e-11
-2.17143e-10
-1.03616e-16
3.7768e-11
-2.2614e-10
-7.56929e-17
-2.34619e-10
-5.99173e-17
1.70341e-14
-7.21436e-13
1.13561e-16
7.27809e-14
-2.36313e-12
3.51544e-16
1.67851e-13
-4.26961e-12
1.50788e-15
3.13748e-13
-6.44034e-12
-1.70815e-15
5.21697e-13
-8.85685e-12
-1.80451e-15
7.60207e-13
-1.15738e-11
1.81605e-15
1.08106e-12
-1.45365e-11
-2.24623e-15
1.46066e-12
-1.78606e-11
7.6381e-16
1.90636e-12
-2.14151e-11
-3.96484e-16
2.43578e-12
-2.53817e-11
-1.06467e-15
3.0423e-12
-2.96328e-11
8.05584e-16
3.73415e-12
-3.42773e-11
-1.06677e-15
4.51339e-12
-3.92705e-11
4.94286e-16
5.38822e-12
-4.46618e-11
-6.515e-16
6.35749e-12
-5.04357e-11
3.49566e-16
7.42624e-12
-5.66176e-11
-4.44236e-16
8.59419e-12
-6.3196e-11
2.11959e-16
9.86293e-12
-7.01877e-11
-3.37511e-16
1.12306e-11
-7.75814e-11
1.1836e-17
1.26971e-11
-8.53749e-11
-2.41775e-16
1.42576e-11
-9.35536e-11
-6.29276e-17
1.59082e-11
-1.02111e-10
-2.34699e-16
1.76412e-11
-1.11009e-10
-1.50049e-16
1.94484e-11
-1.20235e-10
-2.22811e-16
2.13181e-11
-1.29741e-10
-1.80984e-16
2.32372e-11
-1.39493e-10
-2.03469e-16
2.51897e-11
-1.49441e-10
-1.90911e-16
2.71577e-11
-1.59512e-10
-1.88419e-16
2.91207e-11
-1.6967e-10
-1.86356e-16
3.10562e-11
-1.79812e-10
-1.71397e-16
3.29397e-11
-1.89878e-10
-1.66438e-16
3.47455e-11
-1.9978e-10
-1.40234e-16
3.64466e-11
-2.09422e-10
-1.21155e-16
3.8015e-11
-2.18711e-10
-8.70087e-17
3.94227e-11
-2.27547e-10
-6.71854e-17
-2.35838e-10
-4.50767e-17
1.78253e-14
-7.39922e-13
2.55775e-16
7.59653e-14
-2.42208e-12
3.06232e-16
1.77326e-13
-4.37393e-12
1.19927e-15
3.29892e-13
-6.58684e-12
-1.46142e-15
5.44425e-13
-9.07063e-12
-1.69504e-15
8.03292e-13
-1.1839e-11
1.59607e-15
1.14335e-12
-1.4873e-11
-1.68375e-15
1.5866e-12
-1.8304e-11
7.90613e-16
2.03406e-12
-2.18591e-11
-9.30451e-16
2.5884e-12
-2.59409e-11
2.93307e-18
3.22996e-12
-3.02745e-11
-1.37294e-15
3.96005e-12
-3.5009e-11
8.25454e-16
4.7882e-12
-4.00972e-11
-8.89781e-16
5.71124e-12
-4.55863e-11
4.40208e-16
6.73806e-12
-5.14617e-11
-6.3172e-16
7.86587e-12
-5.77463e-11
3.12358e-16
9.10018e-12
-6.4429e-11
-3.71393e-16
1.04374e-11
-7.15258e-11
1.14561e-16
1.18798e-11
-7.90236e-11
-3.18861e-16
1.34238e-11
-8.69192e-11
1.72156e-17
1.50663e-11
-9.51959e-11
-2.40447e-16
1.68007e-11
-1.03846e-10
-1.04434e-16
1.86199e-11
-1.12828e-10
-2.30865e-16
2.05139e-11
-1.22129e-10
-1.6557e-16
2.24705e-11
-1.31698e-10
-2.06063e-16
2.44752e-11
-1.41498e-10
-1.84801e-16
2.65108e-11
-1.51477e-10
-1.87012e-16
2.8558e-11
-1.61559e-10
-1.84817e-16
3.05948e-11
-1.71707e-10
-1.69954e-16
3.25974e-11
-1.81815e-10
-1.70675e-16
3.45397e-11
-1.9182e-10
-1.46788e-16
3.63947e-11
-2.01635e-10
-1.36743e-16
3.81341e-11
-2.11161e-10
-1.01386e-16
3.97287e-11
-2.20306e-10
-7.92364e-17
4.11497e-11
-2.28968e-10
-4.92291e-17
-2.37056e-10
-3.5257e-17
1.85551e-14
-7.59272e-13
3.15291e-16
7.99862e-14
-2.48377e-12
9.53772e-17
1.86435e-13
-4.4822e-12
7.89528e-16
3.43141e-13
-6.73741e-12
-1.73737e-15
5.58227e-13
-9.28446e-12
-2.78702e-15
8.01702e-13
-1.20932e-11
2.11858e-15
1.12053e-12
-1.51874e-11
-3.12491e-15
1.52263e-12
-1.87202e-11
3.46514e-15
2.02607e-12
-2.23592e-11
-1.80608e-15
2.67555e-12
-2.65897e-11
-1.59204e-15
3.38175e-12
-3.09824e-11
1.98485e-15
4.17749e-12
-3.58022e-11
-1.88228e-15
5.06064e-12
-4.09821e-11
1.10524e-15
6.0457e-12
-4.65702e-11
-1.05886e-15
7.13198e-12
-5.25496e-11
5.71067e-16
8.32795e-12
-5.89411e-11
-6.49603e-16
9.63143e-12
-6.57327e-11
4.0707e-16
1.10452e-11
-7.29392e-11
-4.51082e-16
1.25662e-11
-8.05452e-11
1.04584e-16
1.4194e-11
-8.85466e-11
-2.70669e-16
1.59223e-11
-9.69244e-11
-2.70894e-17
1.77458e-11
-1.0567e-10
-2.38278e-16
1.96554e-11
-1.14738e-10
-1.3702e-16
2.16408e-11
-1.24115e-10
-2.13591e-16
2.36882e-11
-1.33746e-10
-1.75027e-16
2.57821e-11
-1.43592e-10
-1.87618e-16
2.79039e-11
-1.53598e-10
-1.8275e-16
3.00327e-11
-1.63688e-10
-1.67153e-16
3.21453e-11
-1.7382e-10
-1.7194e-16
3.42161e-11