/*--------------------------------*- C++ -*----------------------------------*\
| =========                 |                                                 |
| \\      /  F ield         | OpenFOAM: The Open Source CFD Toolbox           |
|  \\    /   O peration     | Version:  v2012                                 |
|   \\  /    A nd           | Website:  www.openfoam.com                      |
|    \\/     M anipulation  |                                                 |
\*---------------------------------------------------------------------------*/
FoamFile
{
    version     2.0;
    format      ascii;
    class       volScalarField;
    location    "0.7";
    object      alpha.water;
}
// * * * * * * * * * * * * * * * * * * * * * * * * * * * * * * * * * * * * * //

dimensions      [0 0 0 0 0 0 0];


internalField   nonuniform List<scalar> 
3338
(
-1.73882e-60
-1.87707e-61
-1.54038e-62
-9.62469e-64
-4.58285e-65
-1.66083e-66
-4.56082e-68
-9.43449e-70
-1.45754e-71
-1.66461e-73
-1.38843e-75
-8.33855e-78
-3.54988e-80
-1.05194e-82
-2.12312e-85
-2.8402e-88
-2.42722e-91
-1.25528e-94
-3.60527e-98
-4.93404e-102
-2.2395e-106
-1.07731e-59
-1.18241e-60
-9.87972e-62
-6.29474e-63
-3.06094e-64
-1.13453e-65
-3.1909e-67
-6.769e-69
-1.07359e-70
-1.25981e-72
-1.08017e-74
-6.66844e-77
-2.91637e-79
-8.86594e-82
-1.83176e-84
-2.50073e-87
-2.17221e-90
-1.136e-93
-3.27696e-97
-4.45611e-101
-1.95502e-105
-6.59229e-59
-7.35873e-60
-6.26251e-61
-4.07012e-62
-2.02198e-63
-7.66812e-65
-2.20987e-66
-4.81002e-68
-7.83687e-70
-9.45572e-72
-8.34108e-74
-5.2984e-76
-2.38304e-78
-7.44086e-81
-1.5755e-83
-2.1971e-86
-1.94068e-89
-1.0257e-92
-2.96385e-96
-3.97551e-100
-1.65008e-104
-3.98307e-58
-4.52328e-59
-3.92196e-60
-2.60094e-61
-1.32051e-62
-5.12585e-64
-1.51429e-65
-3.38349e-67
-5.66608e-69
-7.03406e-71
-6.38868e-73
-4.17944e-75
-1.9352e-77
-6.21348e-80
-1.34993e-82
-1.92518e-85
-1.73067e-88
-9.24603e-92
-2.67342e-95
-3.52566e-99
-1.38657e-103
-2.37555e-57
-2.74533e-58
-2.42592e-59
-1.6421e-60
-8.52299e-62
-3.3875e-63
-1.02624e-64
-2.35488e-66
-4.05535e-68
-5.183e-70
-4.85035e-72
-3.27064e-74
-1.56062e-76
-5.15846e-79
-1.15139e-81
-1.68138e-84
-1.54007e-87
-8.32304e-91
-2.40799e-94
-3.1189e-98
-1.16408e-102
-1.39815e-56
-1.64475e-57
-1.48161e-58
-1.02395e-59
-5.43471e-61
-2.21238e-62
-6.8756e-64
-1.62092e-65
-2.87183e-67
-3.78074e-69
-3.64787e-71
-2.53744e-73
-1.24891e-75
-4.25459e-78
-9.76891e-81
-1.46278e-83
-1.36708e-86
-7.4829e-90
-2.1681e-93
-2.75929e-97
-9.76886e-102
-8.11818e-56
-9.72376e-57
-8.93175e-58
-6.304e-59
-3.42247e-60
-1.4274e-61
-4.55209e-63
-1.10293e-64
-2.01123e-66
-2.72871e-68
-2.71611e-70
-1.95039e-72
-9.91111e-75
-3.48359e-77
-8.23885e-80
-1.26687e-82
-1.21002e-85
-6.71949e-89
-1.95302e-92
-2.44679e-96
-8.23101e-101
-4.64887e-55
-5.67108e-56
-5.31307e-57
-3.83062e-58
-2.12779e-59
-9.09437e-61
-2.97697e-62
-7.41539e-64
-1.39227e-65
-1.94755e-67
-2.001e-69
-1.48433e-71
-7.79411e-74
-2.82951e-76
-6.90182e-79
-1.09154e-81
-1.06739e-84
-6.02571e-88
-1.76093e-91
-2.17809e-95
-6.99078e-100
-2.62474e-54
-3.2618e-55
-3.11759e-56
-2.29663e-57
-1.30554e-58
-5.71973e-60
-1.92232e-61
-4.92418e-63
-9.52233e-65
-1.37389e-66
-1.45777e-68
-1.11778e-70
-6.06974e-73
-2.27821e-75
-5.73868e-78
-9.34924e-81
-9.37802e-84
-5.39432e-87
-1.58947e-90
-1.94835e-94
-5.99982e-99
-1.46062e-53
-1.84955e-54
-1.8039e-55
-1.3581e-56
-7.90251e-58
-3.5497e-59
-1.22516e-60
-3.2282e-62
-6.43161e-64
-9.57472e-66
-1.04963e-67
-8.324e-70
-4.67782e-72
-1.81703e-74
-4.7324e-77
-7.95459e-80
-8.2009e-83
-4.81836e-86
-1.43606e-89
-1.75212e-93
-5.2112e-98
-8.00868e-53
-1.0336e-53
-1.02892e-54
-7.91843e-56
-4.71737e-57
-2.17299e-58
-7.7038e-60
-2.08849e-61
-4.288e-63
-6.58866e-65
-7.46542e-67
-6.12635e-69
-3.56538e-71
-1.43452e-73
-3.8676e-76
-6.71767e-79
-7.13243e-82
-4.29149e-85
-1.29812e-88
-1.58402e-92
-4.58354e-97
-4.32525e-52
-5.69071e-53
-5.78326e-54
-4.55052e-55
-2.7761e-56
-1.31162e-57
-4.77735e-59
-1.3328e-60
-2.82069e-62
-4.47461e-64
-5.24219e-66
-4.45363e-68
-2.68584e-70
-1.12028e-72
-3.1301e-75
-5.62632e-78
-6.1642e-81
-3.80819e-84
-1.17326e-87
-1.43902e-91
-4.08244e-96
-2.30005e-51
-3.08574e-52
-3.2021e-53
-2.57656e-54
-1.60994e-55
-7.80329e-57
-2.92057e-58
-8.38648e-60
-1.8299e-61
-2.99775e-63
-3.63237e-65
-3.19613e-67
-1.99845e-69
-8.64798e-72
-2.50669e-74
-4.66954e-77
-5.28927e-80
-3.36387e-83
-1.05934e-86
-1.31266e-90
-3.67993e-95
-1.2039e-50
-1.6473e-51
-1.74586e-52
-1.43687e-53
-9.19733e-55
-4.57405e-56
-1.75943e-57
-5.20109e-59
-1.17026e-60
-1.98021e-62
-2.48236e-64
-2.26304e-66
-1.46786e-68
-6.5945e-71
-1.98491e-73
-3.83709e-76
-4.50188e-79
-2.95488e-82
-9.54516e-86
-1.20101e-89
-3.35342e-94
-6.20022e-50
-8.65473e-51
-9.36998e-52
-7.88913e-53
-5.17399e-54
-2.64062e-55
-1.04407e-56
-3.17781e-58
-7.3744e-60
-1.28915e-61
-1.67232e-63
-1.58009e-65
-1.06362e-67
-4.96405e-70
-1.55293e-72
-3.11919e-75
-3.79716e-78
-2.57846e-81
-8.57297e-85
-1.10072e-88
-3.08472e-93
-3.14071e-49
-4.47337e-50
-4.9483e-51
-4.26295e-52
-2.86505e-53
-1.5008e-54
-6.10045e-56
-1.91205e-57
-4.57692e-59
-8.26744e-61
-1.11005e-62
-1.08732e-64
-7.59891e-67
-3.68632e-69
-1.19953e-71
-2.50627e-74
-3.17083e-77
-2.23266e-80
-7.66526e-84
-1.00901e-87
-2.85908e-92
-1.56417e-48
-2.27378e-49
-2.57035e-50
-2.26616e-51
-1.56103e-52
-8.39416e-54
-3.50826e-55
-1.13246e-56
-2.79661e-58
-5.22053e-60
-7.25636e-62
-7.37049e-64
-5.34962e-66
-2.69881e-68
-9.14129e-71
-1.98883e-73
-2.61889e-76
-1.91617e-79
-6.81379e-83
-9.23626e-87
-2.66451e-91
-7.65598e-48
-1.13612e-48
-1.31273e-49
-1.18466e-50
-8.36535e-52
-4.61839e-53
-1.98489e-54
-6.59959e-56
-1.68156e-57
-3.24439e-59
-4.66916e-61
-4.91889e-63
-3.70899e-65
-1.9467e-67
-6.86793e-70
-1.55738e-72
-2.13734e-75
-1.62819e-78
-6.0134e-82
-8.42819e-86
-2.49125e-90
-3.68128e-47
-5.578e-48
-6.58913e-49
-6.08759e-50
-4.40732e-51
-2.49852e-52
-1.10438e-53
-3.78263e-55
-9.94533e-57
-1.98348e-58
-2.95591e-60
-3.23032e-62
-2.53108e-64
-1.38262e-66
-5.08349e-69
-1.20245e-71
-1.72199e-74
-1.36816e-77
-5.26159e-81
-7.65333e-85
-2.33141e-89
-1.73817e-46
-2.68987e-47
-3.24911e-48
-3.07368e-49
-2.2819e-50
-1.32852e-51
-6.0401e-53
-2.13139e-54
-5.78311e-56
-1.19234e-57
-1.84021e-59
-2.08646e-61
-1.69915e-63
-9.6632e-66
-3.7044e-68
-9.14683e-71
-1.36831e-73
-1.13565e-76
-4.55808e-80
-6.90374e-84
-2.17872e-88
-8.05533e-46
-1.27347e-46
-1.57324e-47
-1.52422e-48
-1.16055e-49
-6.94003e-51
-3.24585e-52
-1.18014e-53
-3.30478e-55
-7.04441e-57
-1.12604e-58
-1.32476e-60
-1.12148e-62
-6.64183e-65
-2.65583e-67
-6.84967e-70
-1.07136e-72
-9.30155e-76
-3.90415e-79
-6.1757e-83
-2.02841e-87
-3.66247e-45
-5.91637e-46
-7.47697e-47
-7.42018e-48
-5.7954e-49
-3.56013e-50
-1.71307e-51
-6.41813e-53
-1.85508e-54
-4.08845e-56
-6.76932e-58
-8.26431e-60
-7.27369e-62
-4.48691e-64
-1.87206e-66
-5.04587e-69
-8.25861e-72
-7.50939e-75
-3.30202e-78
-5.46925e-82
-1.87717e-86
-1.63287e-44
-2.69602e-45
-3.48621e-46
-3.54457e-47
-2.84024e-48
-1.7926e-49
-8.87538e-51
-3.4268e-52
-1.02239e-53
-2.3299e-55
-3.99598e-57
-5.06284e-59
-4.63319e-61
-2.97744e-63
-1.29657e-65
-3.65383e-68
-6.2621e-71
-5.9696e-74
-2.75417e-77
-4.78749e-81
-1.72308e-85
-7.1351e-44
-1.20443e-44
-1.59393e-45
-1.66068e-46
-1.36545e-47
-8.8555e-49
-4.51191e-50
-1.79544e-51
-5.52976e-53
-1.30307e-54
-2.31512e-56
-3.04422e-58
-2.8969e-60
-1.93964e-62
-8.81758e-65
-2.59892e-67
-4.66672e-70
-4.66815e-73
-2.26271e-76
-4.13578e-80
-1.56558e-84
-3.05415e-43
-5.27236e-44
-7.14263e-45
-7.62727e-46
-6.43623e-47
-4.28987e-48
-2.2495e-49
-9.22664e-51
-2.9337e-52
-7.14892e-54
-1.31577e-55
-1.79568e-57
-1.77697e-59
-1.23974e-61
-5.88443e-64
-1.81453e-66
-3.41532e-69
-3.58747e-72
-1.82891e-75
-3.5208e-79
-1.40533e-83
-1.27993e-42
-2.26031e-43
-3.1354e-44
-3.43237e-45
-2.9731e-46
-2.03686e-47
-1.09939e-48
-4.64831e-50
-1.52591e-51
-3.84535e-53
-7.33198e-55
-1.03854e-56
-1.06876e-58
-7.76999e-61
-3.85115e-63
-1.24268e-65
-2.45265e-68
-2.70692e-71
-1.45276e-74
-2.94959e-78
-1.24403e-82
-5.24865e-42
-9.48484e-43
-1.34754e-43
-1.51262e-44
-1.34519e-45
-9.47419e-47
-5.26423e-48
-2.29459e-49
-7.77731e-51
-2.02691e-52
-4.00379e-54
-5.88615e-56
-6.29933e-58
-4.77241e-60
-2.47022e-62
-8.34222e-65
-1.727e-67
-2.00363e-70
-1.13286e-73
-2.42858e-77
-1.0842e-81
-2.10483e-41
-3.89353e-42
-5.66713e-43
-6.52444e-44
-5.95826e-45
-4.31476e-46
-2.46836e-47
-1.10929e-48
-3.88229e-50
-1.04642e-51
-2.14142e-53
-3.2675e-55
-3.63651e-57
-2.87099e-59
-1.55194e-61
-5.48581e-64
-1.19144e-66
-1.4536e-69
-8.66365e-73
-1.96283e-76
-9.28834e-81
-8.24957e-41
-1.56261e-41
-2.33079e-42
-2.75286e-43
-2.58212e-44
-1.92295e-45
-1.13275e-46
-5.2491e-48
-1.89703e-49
-5.28832e-51
-1.12118e-52
-1.77558e-54
-2.05496e-56
-1.69062e-58
-9.5441e-61
-3.53139e-63
-8.04752e-66
-1.03275e-68
-6.49152e-72
-1.55541e-75
-7.81077e-80
-3.15807e-40
-6.12749e-41
-9.36918e-42
-1.13553e-42
-1.09422e-43
-8.38167e-45
-5.08481e-46
-2.42985e-47
-9.06867e-49
-2.61476e-50
-5.74317e-52
-9.43971e-54
-1.13606e-55
-9.7392e-58
-5.74182e-60
-2.22387e-62
-5.31793e-65
-7.17993e-68
-4.76114e-71
-1.20717e-74
-6.43862e-79
-1.18006e-39
-2.34618e-40
-3.67861e-41
-4.57637e-42
-4.53153e-43
-3.57097e-44
-2.23138e-45
-1.09972e-46
-4.23888e-48
-1.26415e-49
-2.87662e-51
-4.90706e-53
-6.14083e-55
-5.48534e-57
-3.37711e-59
-1.36913e-61
-3.43562e-64
-4.88058e-67
-3.41512e-70
-9.16648e-74
-5.19627e-78
-4.30114e-39
-8.76595e-40
-1.40983e-40
-1.80083e-41
-1.83283e-42
-1.48617e-43
-9.56682e-45
-4.86329e-46
-1.93615e-47
-5.97255e-49
-1.40803e-50
-2.49271e-52
-3.24352e-54
-3.0187e-56
-1.94065e-58
-8.23493e-61
-2.1684e-63
-3.24127e-66
-2.39362e-69
-6.8032e-73
-4.10091e-77
-1.52813e-38
-3.19368e-39
-5.27055e-40
-6.91458e-41
-7.23531e-42
-6.03812e-43
-4.00484e-44
-2.10017e-45
-8.63653e-47
-2.75584e-48
-6.73095e-50
-1.23664e-51
-1.67303e-53
-1.62219e-55
-1.08886e-57
-4.83577e-60
-1.3361e-62
-2.10145e-65
-1.63791e-68
-4.93046e-72
-3.1614e-76
-5.28825e-38
-1.13377e-38
-1.92062e-39
-2.5888e-40
-2.78583e-41
-2.3933e-42
-1.63585e-43
-8.85069e-45
-3.75989e-46
-1.24109e-47
-3.1405e-49
-5.98774e-51
-8.42193e-53
-8.50678e-55
-5.96129e-57
-2.77055e-59
-8.03143e-62
-1.32908e-64
-1.09334e-67
-3.48599e-71
-2.37811e-75
-1.78119e-37
-3.91896e-38
-6.81713e-39
-9.44405e-40
-1.04546e-40
-9.24807e-42
-6.5154e-43
-3.63749e-44
-1.59645e-45
-5.45156e-47
-1.4292e-48
-2.82776e-50
-4.13479e-52
-4.35035e-54
-3.18239e-56
-1.5476e-58
-4.70637e-61
-8.19365e-64
-7.11362e-67
-2.40237e-70
-1.74381e-74
-5.83461e-37
-1.31791e-37
-2.35506e-38
-3.35441e-39
-3.82113e-40
-3.48137e-41
-2.52855e-42
-1.45688e-43
-6.60659e-45
-2.33403e-46
-6.33964e-48
-1.30163e-49
-1.97849e-51
-2.1681e-53
-1.65542e-55
-8.42233e-58
-2.68658e-60
-4.92003e-63
-4.50757e-66
-1.61229e-69
-1.24526e-73
-1.85718e-36
-4.30837e-37
-7.91215e-38
-1.15913e-38
-1.35918e-39
-1.27574e-40
-9.5545e-42
-5.68227e-43
-2.66272e-44
-9.73296e-46
-2.73903e-47
-5.83558e-49
-9.22017e-51
-1.05225e-52
-8.38483e-55
-4.46242e-57
-1.49282e-59
-2.87528e-62
-2.77942e-65
-1.05283e-68
-8.65174e-73
-5.73935e-36
-1.36796e-36
-2.58292e-37
-3.89358e-38
-4.70122e-39
-4.54722e-40
-3.51245e-41
-2.15655e-42
-1.04439e-43
-3.95009e-45
-1.15177e-46
-2.5463e-48
-4.18164e-50
-4.96954e-52
-4.13219e-54
-2.30007e-56
-8.06805e-59
-1.63407e-61
-1.66634e-64
-6.68351e-68
-5.84277e-72
-1.72044e-35
-4.21471e-36
-8.18595e-37
-1.27026e-37
-1.57988e-38
-1.57519e-39
-1.25522e-40
-7.9576e-42
-3.98331e-43
-1.559e-44
-4.71003e-46
-1.08048e-47
-1.84423e-49
-2.28208e-51
-1.97982e-53
-1.15239e-55
-4.23776e-58
-9.02351e-61
-9.70518e-64
-4.12092e-67
-3.83177e-71
-4.99765e-35
-1.25887e-35
-2.51632e-36
-4.0213e-37
-5.15382e-38
-5.2984e-39
-4.35668e-40
-2.85242e-41
-1.47602e-42
-5.97848e-44
-1.87157e-45
-4.45502e-47
-7.90278e-49
-1.01813e-50
-9.21445e-53
-5.60767e-55
-2.16144e-57
-4.83757e-60
-5.48645e-63
-2.46567e-66
-2.43801e-70
-1.40538e-34
-3.64139e-35
-7.49506e-36
-1.23412e-36
-1.63048e-37
-1.72891e-38
-1.4673e-39
-9.92336e-41
-5.30908e-42
-2.22564e-43
-7.21983e-45
-1.78327e-46
-3.28746e-48
-4.4091e-50
-4.16225e-52
-2.64793e-54
-1.06955e-56
-2.51556e-59
-3.00767e-62
-1.43028e-65
-1.50351e-69
-3.82163e-34
-1.01896e-34
-2.16099e-35
-3.668e-36
-4.99747e-37
-5.46747e-38
-4.79052e-39
-3.34729e-40
-1.85183e-41
-8.03561e-43
-2.70129e-44
-6.92322e-46
-1.32631e-47
-1.85167e-49
-1.82304e-51
-1.21217e-53
-5.12988e-56
-1.26761e-58
-1.59737e-61
-8.03584e-65
-8.97806e-69
-1.00373e-33
-2.75523e-34
-6.02458e-35
-1.05465e-35
-1.48241e-36
-1.6739e-37
-1.51458e-38
-1.09362e-39
-6.25737e-41
-2.81085e-42
-9.79254e-44
-2.60426e-45
-5.18439e-47
-7.5336e-49
-7.73452e-51
-5.37425e-53
-2.38242e-55
-6.18364e-58
-8.21059e-61
-4.36834e-64
-5.18571e-68
-2.53845e-33
-7.19021e-34
-1.62218e-34
-2.93023e-35
-4.25084e-36
-4.9557e-37
-4.63186e-38
-3.45694e-39
-2.04601e-40
-9.51551e-42
-3.43574e-43
-9.48124e-45
-1.96128e-46
-2.96617e-48
-3.17518e-50
-2.30513e-52
-1.0702e-54
-2.91699e-57
-4.08004e-60
-2.29511e-63
-2.89405e-67
-6.18496e-33
-1.80906e-33
-4.21347e-34
-7.85721e-35
-1.17689e-35
-1.41705e-36
-1.36851e-37
-1.05595e-38
-6.46582e-40
-3.11371e-41
-1.16527e-42
-3.33683e-44
-7.17221e-46
-1.12882e-47
-1.25975e-49
-9.55395e-52
-4.64446e-54
-1.32906e-56
-1.95778e-59
-1.16408e-62
-1.55871e-66
-1.44946e-32
-4.38221e-33
-1.05429e-33
-2.03062e-34
-3.14173e-35
-3.90837e-36
-3.90117e-37
-3.11279e-38
-1.97229e-39
-9.83577e-41
-3.81546e-42
-1.13376e-43
-2.53204e-45
-4.1469e-47
-4.8241e-49
-3.82132e-51
-1.94473e-53
-5.84137e-56
-9.05969e-59
-5.69233e-62
-8.09149e-66
-1.0204e-32
-2.53758e-33
-5.05065e-34
-8.07511e-35
-1.03826e-35
-1.07144e-36
-8.84269e-38
-5.79859e-39
-2.99498e-40
-1.20434e-41
-3.71364e-43
-8.61712e-45
-1.46845e-46
-1.78045e-48
-1.47284e-50
-7.84537e-53
-2.47295e-55
-4.03727e-58
-2.67986e-61
-4.04282e-65
-2.27994e-32
-5.86556e-33
-1.20705e-33
-1.99516e-34
-2.65228e-35
-2.83057e-36
-2.41686e-37
-1.64052e-38
-8.77685e-40
-3.6588e-41
-1.17075e-42
-2.82242e-44
-5.00407e-46
-6.32289e-48
-5.46132e-50
-3.04426e-52
-1.00679e-54
-1.72977e-57
-1.21271e-60
-1.94111e-64
-1.29955e-32
-2.76684e-33
-4.7303e-34
-6.50383e-35
-7.18024e-36
-6.34417e-37
-4.4583e-38
-2.47091e-39
-1.06788e-40
-3.54587e-42
-8.88067e-44
-1.63797e-45
-2.15655e-47
-1.94457e-49
-1.1341e-51
-3.93438e-54
-7.11227e-57
-5.26538e-60
-8.94022e-64
-2.75453e-32
-6.07116e-33
-1.07403e-33
-1.52787e-34
-1.74537e-35
-1.59615e-36
-1.16145e-37
-6.66896e-39
-2.98813e-40
-1.02958e-41
-2.67862e-43
-5.13893e-45
-7.04873e-47
-6.63401e-49
-4.04729e-51
-1.47256e-53
-2.80032e-56
-2.1888e-59
-3.94165e-63
-5.57326e-32
-1.27238e-32
-2.33015e-33
-3.43066e-34
-4.05621e-35
-3.84006e-36
-2.89367e-37
-1.7215e-38
-7.99689e-40
-2.85895e-41
-7.72553e-43
-1.54138e-44
-2.20212e-46
-2.16278e-48
-1.37997e-50
-5.26477e-53
-1.05306e-55
-8.68911e-59
-1.65943e-62
-1.07367e-31
-2.54041e-32
-4.81787e-33
-7.34332e-34
-8.98804e-35
-8.81014e-36
-6.87576e-37
-4.23822e-38
-2.04101e-39
-7.56993e-41
-2.12415e-42
-4.40621e-44
-6.55483e-46
-6.71605e-48
-4.4806e-50
-1.79214e-52
-3.76996e-55
-3.28373e-58
-6.6507e-62
-1.96351e-31
-4.81748e-32
-9.46432e-33
-1.49369e-33
-1.8929e-34
-1.92128e-35
-1.55301e-36
-9.91796e-38
-4.95064e-39
-1.90437e-40
-5.54691e-42
-1.19573e-43
-1.85138e-45
-1.97813e-47
-1.37946e-49
-5.78356e-52
-1.27948e-54
-1.17656e-57
-2.52762e-61
-3.39669e-31
-8.64543e-32
-1.75979e-32
-2.87615e-33
-3.77401e-34
-3.96667e-35
-3.32076e-36
-2.19686e-37
-1.13627e-38
-4.53101e-40
-1.36903e-41
-3.06451e-43
-4.93461e-45
-5.4947e-47
-4.0036e-49
-1.75919e-51
-4.09316e-54
-3.97482e-57
-9.06199e-61
-5.53403e-31
-1.46164e-31
-3.08272e-32
-5.2173e-33
-7.08812e-34
-7.71402e-35
-6.68739e-36
-4.58127e-37
-2.45381e-38
-1.01339e-39
-3.17232e-41
-7.36317e-43
-1.23137e-44
-1.42743e-46
-1.08604e-48
-5.00059e-51
-1.22406e-53
-1.25614e-56
-3.04217e-60
-8.4446e-31
-2.31444e-31
-5.05645e-32
-8.85934e-33
-1.24585e-33
-1.40359e-34
-1.25962e-35
-8.92977e-37
-4.94736e-38
-2.11233e-39
-6.83435e-41
-1.64019e-42
-2.84129e-44
-3.42253e-46
-2.71667e-48
-1.31077e-50
-3.37813e-53
-3.66862e-56
-9.45625e-60
-1.198e-30
-3.4051e-31
-7.70058e-32
-1.39594e-32
-2.03078e-33
-2.36728e-34
-2.19797e-35
-1.61033e-36
-9.208e-38
-4.0499e-39
-1.34749e-40
-3.3242e-42
-5.9341e-44
-7.40298e-46
-6.12311e-48
-3.09762e-50
-8.42134e-53
-9.70658e-56
-2.67271e-59
-1.56365e-30
-4.60042e-31
-1.07529e-31
-2.01471e-32
-3.02873e-33
-3.64964e-34
-3.50257e-35
-2.64484e-36
-1.55387e-37
-6.98563e-39
-2.36231e-40
-5.91259e-42
-1.07668e-43
-1.38314e-45
-1.19091e-47
-6.33355e-50
-1.82524e-52
-2.2469e-55
-6.657e-59
-1.84797e-30
-5.59984e-31
-1.34891e-31
-2.6085e-32
-4.04335e-33
-5.02692e-34
-4.97966e-35
-3.85178e-36
-2.30191e-37
-1.0373e-38
-3.45119e-40
-8.45576e-42
-1.54542e-43
-2.03143e-45
-1.82666e-47
-1.03174e-49
-3.19455e-52
-4.2616e-55
-1.37906e-58
-1.92428e-30
-5.92623e-31
-1.46326e-31
-2.91695e-32
-4.63854e-33
-5.926e-34
-6.04879e-35
-4.70475e-36
-2.78427e-37
-1.15513e-38
-3.37859e-40
-6.67691e-42
-1.27518e-43
-1.78832e-45
-1.75173e-47
-1.10266e-49
-3.84053e-52
-5.77875e-55
-2.11514e-58
-1.66868e-30
-5.02084e-31
-1.25779e-31
-2.58814e-32
-4.15582e-33
-5.4069e-34
-5.67921e-35
-4.01675e-36
-2.1192e-37
-2.76104e-59
1.57266e-69
9.05536e-42
3.53561e-44
-3.23236e-57
-2.67818e-48
-3.73941e-50
-1.98264e-52
-3.97266e-55
-1.83124e-58
-1.00794e-30
-2.51088e-31
-6.39253e-32
-1.34457e-32
-1.91177e-33
-2.40962e-34
-2.53836e-35
-2.42125e-65
-3.79055e-48
1.86415e-37
1.41617e-38
2.05933e-51
9.02306e-53
8.96294e-53
7.84935e-58
-6.28656e-52
-1.12733e-53
-4.99594e-56
-4.1352e-59
-9.69672e-59
-8.29894e-43
-1.57056e-42
-4.71398e-43
-1.52162e-42
-5.37986e-44
-9.76055e-47
-3.58617e-58
1.15863e-46
1.51925e-36
3.78076e-38
6.63299e-51
2.43546e-52
4.7751e-52
1.14217e-56
-3.42213e-54
-2.70322e-55
-2.23129e-57
-3.04288e-60
-1.33681e-44
6.03986e-58
4.71864e-60
-2.035e-44
5.05704e-31
1.58509e-52
-3.53127e-48
9.67149e-33
2.31799e-33
1.51181e-45
2.88301e-47
5.19031e-47
8.91131e-51
5.98978e-58
6.89341e-62
-8.17729e-70
-8.82168e-58
-2.07512e-59
-5.28665e-62
-3.77879e-49
2.23006e-34
2.86337e-35
4.82076e-36
1.45433e-29
9.00774e-37
2.75062e-39
4.90295e-32
6.61187e-33
4.76243e-45
2.16752e-48
1.16135e-49
1.18513e-49
1.07885e-53
7.49094e-58
6.31342e-61
-3.6144e-73
-1.04443e-61
-5.68756e-64
5.95941e-33
1.57959e-25
6.05287e-33
1.52966e-33
1.22359e-29
9.80565e-28
1.82994e-28
1.00748e-35
4.6042e-34
6.80156e-43
2.7003e-47
4.93641e-47
8.79643e-51
1.13775e-57
9.14401e-58
9.22586e-62
9.9939e-70
8.98735e-70
-7.1814e-67
4.01523e-29
2.70401e-24
2.19554e-24
1.72837e-31
6.32083e-30
4.80723e-27
1.15401e-27
3.1341e-39
2.16323e-42
1.22209e-45
8.32164e-48
8.22816e-48
8.4343e-52
6.30937e-60
5.5698e-64
1.42215e-68
3.00978e-73
1.16825e-73
1.06785e-73
7.27982e-29
1.34818e-24
1.34984e-22
1.14771e-22
7.34548e-25
4.46079e-31
8.8321e-28
7.60745e-30
1.30579e-41
1.48817e-43
2.76987e-43
1.52906e-46
1.48787e-51
2.06703e-54
1.28357e-57
4.32989e-60
2.92853e-64
3.00978e-73
5.02127e-71
4.39281e-27
6.86381e-25
1.07376e-22
4.61002e-22
8.87845e-23
5.46819e-34
6.05689e-37
1.10498e-38
1.99654e-38
1.61128e-41
9.6399e-48
7.60649e-48
9.01929e-52
1.25355e-60
4.23704e-64
2.47322e-69
2.58644e-70
2.55916e-70
4.5925e-70
2.19341e-18
5.49552e-19
1.02176e-22
4.12087e-22
1.08267e-22
3.07725e-34
3.30448e-37
5.30843e-40
1.50664e-40
2.10194e-40
8.90381e-46
7.91326e-47
4.57129e-51
2.30788e-55
4.59301e-55
5.46022e-66
2.47322e-69
2.58644e-70
3.60308e-70
5.26661e-18
6.82004e-18
1.0777e-18
4.48907e-25
6.28241e-24
5.65932e-25
3.63864e-36
3.34322e-39
1.92865e-41
1.61054e-41
6.583e-50
2.41959e-51
1.14859e-51
2.24707e-51
3.07872e-54
1.89823e-61
3.73789e-63
2.47322e-69
5.22977e-62
5.11586e-18
7.25348e-18
3.93683e-18
2.23853e-26
7.54434e-28
8.17611e-26
4.89575e-27
1.90126e-38
3.79423e-40
7.02761e-40
3.03959e-46
2.29854e-47
4.65855e-47
1.52261e-50
5.71767e-56
1.01004e-58
1.92022e-61
2.46638e-54
1.31181e-58
6.97984e-17
8.81998e-19
3.27029e-18
6.71764e-20
4.99904e-29
9.54555e-29
1.87957e-28
1.56554e-32
1.65869e-40
1.6358e-40
1.40327e-42
2.60511e-43
8.45024e-46
7.24258e-52
4.45634e-53
5.71767e-56
1.40722e-49
8.97385e-53
1.31181e-58
2.25788e-16
2.97963e-23
1.80636e-19
6.4131e-20
7.06803e-31
9.17129e-34
1.32042e-36
1.34816e-37
2.30694e-37
3.95098e-41
3.94959e-41
5.39294e-43
2.86086e-46
3.27709e-50
7.24258e-52
3.23636e-44
1.13132e-47
3.52925e-58
1.19203e-57
5.64829e-17
1.49751e-23
1.42484e-21
2.98668e-21
2.35273e-22
2.13804e-33
2.47167e-37
6.15032e-38
5.85869e-38
5.69106e-38
3.69926e-41
3.0923e-43
3.83025e-46
5.97887e-48
1.01152e-40
1.09225e-42
3.3005e-57
2.57685e-57
5.93526e-57
1.57324e-24
4.89182e-23
3.8509e-23
9.28686e-23
1.46059e-22
6.40398e-24
5.00998e-35
2.47167e-37
7.64422e-36
8.15835e-37
8.02849e-42
3.53677e-43
3.00464e-36
4.7481e-37
4.64407e-40
1.72211e-54
2.67047e-56
4.92783e-56
9.20097e-56
9.8608e-25
1.3127e-24
1.66812e-24
4.58302e-24
1.76709e-23
6.54625e-24
3.64611e-34
5.00998e-35
7.21859e-34
7.08611e-36
1.66518e-40
8.02849e-42
3.22133e-34
1.10815e-35
1.48506e-49
7.31339e-54
5.50717e-56
1.98203e-55
1.23921e-55
5.64613e-25
2.50475e-25
5.16673e-25
6.24114e-25
6.39088e-25
2.87572e-25
5.62895e-32
1.84911e-31
4.43907e-34
2.77109e-36
1.70879e-30
2.79373e-31
3.05811e-44
5.3807e-48
5.38839e-52
5.50717e-56
1.79529e-56
2.79246e-56
3.40317e-56
5.04719e-17
2.0462e-26
2.77851e-26
3.68887e-26
4.10626e-26
1.12935e-26
2.33515e-31
1.25814e-30
2.73594e-34
7.42717e-36
3.96415e-29
3.67592e-30
5.31692e-43
9.75361e-47
8.95195e-49
1.75555e-48
5.53072e-57
7.91728e-57
1.01488e-56
4.86516e-16
1.65401e-26
3.81901e-27
3.72448e-27
3.73305e-27
3.75676e-27
6.53454e-30
7.6392e-31
6.04282e-26
1.62747e-26
3.69111e-35
3.8777e-31
1.48156e-35
1.378e-47
2.48159e-48
3.17007e-48
1.67148e-57
3.08901e-57
1.64158e-57
8.52379e-16
2.05811e-16
1.15169e-26
3.81901e-27
3.77158e-27
3.80237e-27
3.92027e-30
9.63244e-31
5.17662e-25
1.12071e-25
8.54174e-38
2.94353e-41
8.55375e-45
1.66358e-46
3.04243e-46
5.32566e-54
1.05623e-53
2.83022e-58
3.21664e-58
8.83347e-16
5.2827e-16
5.84817e-25
1.1153e-26
7.99395e-27
3.8029e-27
2.64316e-22
1.21981e-22
2.51429e-27
3.25539e-26
2.22533e-28
5.68052e-40
8.33981e-40
9.44903e-39
3.97792e-44
2.89741e-56
8.83683e-60
1.29621e-59
2.61829e-59
9.0672e-16
4.81583e-16
1.8201e-23
5.84817e-25
1.11646e-26
3.86498e-27
1.06924e-21
5.41295e-22
4.26488e-36
5.82483e-37
9.47866e-16
3.75934e-17
8.60477e-22
1.68372e-21
4.55806e-19
2.24191e-19
1.64343e-22
-1.74032e-60
-1.87914e-61
-1.54246e-62
-9.64007e-64
-4.59127e-65
-1.66428e-66
-4.57129e-68
-9.45817e-70
-1.46149e-71
-1.66943e-73
-1.39268e-75
-8.36536e-78
-3.56179e-80
-1.0556e-82
-2.13074e-85
-2.85067e-88
-2.43638e-91
-1.26011e-94
-3.61936e-98
-4.95358e-102
-2.24847e-106
-1.07823e-59
-1.1837e-60
-9.89285e-62
-6.30462e-63
-3.06647e-64
-1.13684e-65
-3.1981e-67
-6.78572e-69
-1.07646e-70
-1.2634e-72
-1.08343e-74
-6.68964e-77
-2.92606e-79
-8.89651e-82
-1.83828e-84
-2.50988e-87
-2.18036e-90
-1.14034e-93
-3.28971e-97
-4.4737e-101
-1.96283e-105
-6.59783e-59
-7.3666e-60
-6.27068e-61
-4.07639e-62
-2.02557e-63
-7.68345e-65
-2.21478e-66
-4.82171e-68
-7.85746e-70
-9.4823e-72
-8.36595e-74
-5.31504e-76
-2.39087e-78
-7.46626e-81
-1.58106e-83
-2.20508e-86
-1.9479e-89
-1.0296e-92
-2.97533e-96
-3.99114e-100
-1.65665e-104
-3.98637e-58
-4.52803e-59
-3.92699e-60
-2.60486e-61
-1.3228e-62
-5.13591e-64
-1.51759e-65
-3.39157e-67
-5.68072e-69
-7.05353e-71
-6.40746e-73
-4.19239e-75
-1.94149e-77
-6.23447e-80
-1.35465e-82
-1.93211e-85
-1.73706e-88
-9.28096e-92
-2.68372e-95
-3.53945e-99
-1.39208e-103
-2.37749e-57
-2.74817e-58
-2.42897e-59
-1.64454e-60
-8.53752e-62
-3.39402e-63
-1.02844e-64
-2.36041e-66
-4.06565e-68
-5.19712e-70
-4.8644e-72
-3.28064e-74
-1.56563e-76
-5.17568e-79
-1.15538e-81
-1.68738e-84
-1.54571e-87
-8.35425e-91
-2.4172e-94
-3.13104e-98
-1.16868e-102
-1.39928e-56
-1.64642e-57
-1.48344e-58
-1.02543e-59
-5.44379e-61
-2.21656e-62
-6.89002e-64
-1.62465e-65
-2.879e-67
-3.79087e-69
-3.65826e-71
-2.54508e-73
-1.25286e-75
-4.26861e-78
-9.80232e-81
-1.46794e-83
-1.37204e-86
-7.51074e-90
-2.17633e-93
-2.76996e-97
-9.80725e-102
-8.12462e-56
-9.73346e-57
-8.94254e-58
-6.31297e-59
-3.42807e-60
-1.43004e-61
-4.56145e-63
-1.10542e-64
-2.01615e-66
-2.73588e-68
-2.72373e-70
-1.95617e-72
-9.942e-75
-3.49492e-77
-8.26668e-80
-1.2713e-82
-1.21437e-85
-6.74426e-89
-1.96038e-92
-2.45618e-96
-8.26314e-101
-4.6525e-55
-5.67664e-56
-5.31936e-57
-3.83596e-58
-2.1312e-59
-9.11083e-61
-2.98296e-62
-7.4318e-64
-1.39562e-65
-1.95258e-67
-2.00651e-69
-1.48866e-71
-7.81803e-74
-2.83858e-76
-6.92484e-79
-1.0953e-81
-1.07118e-84
-6.04771e-88
-1.76751e-91
-2.18639e-95
-7.01789e-100
-2.62676e-54
-3.26494e-55
-3.12121e-56
-2.29976e-57
-1.30759e-58
-5.72986e-60
-1.92611e-61
-4.93485e-63
-9.54476e-65
-1.37737e-66
-1.46172e-68
-1.12098e-70
-6.08807e-73
-2.28541e-75
-5.75756e-78
-9.3811e-81
-9.41099e-84
-5.41381e-87
-1.59535e-90
-1.95571e-94
-6.02291e-99
-1.46173e-53
-1.8513e-54
-1.80596e-55
-1.35991e-56
-7.91464e-58
-3.55585e-59
-1.22753e-60
-3.23505e-62
-6.44645e-64
-9.5985e-66
-1.05242e-67
-8.34744e-70
-4.69172e-72
-1.82268e-74
-4.74775e-77
-7.98134e-80
-8.22937e-83
-4.83557e-86
-1.44132e-89
-1.75868e-93
-5.23109e-98
-8.01471e-53
-1.03456e-53
-1.03007e-54
-7.9288e-56
-4.72446e-57
-2.17667e-58
-7.71834e-60
-2.09283e-61
-4.29769e-63
-6.6047e-65
-7.48486e-67
-6.14329e-69
-3.57579e-71
-1.43891e-73
-3.87994e-76
-6.73994e-79
-7.15687e-82
-4.30663e-85
-1.30282e-88
-1.58989e-92
-4.60087e-97
-4.32846e-52
-5.69593e-53
-5.7896e-54
-4.55636e-55
-2.78018e-56
-1.31379e-57
-4.78617e-59
-1.33551e-60
-2.82692e-62
-4.48528e-64
-5.25557e-66
-4.46571e-68
-2.69354e-70
-1.12365e-72
-3.13993e-75
-5.6447e-78
-6.18503e-81
-3.82146e-84
-1.17746e-87
-1.4443e-91
-4.09772e-96
-2.30175e-51
-3.08852e-52
-3.20555e-53
-2.5798e-54
-1.61226e-55
-7.81596e-57
-2.92584e-58
-8.40315e-60
-1.83386e-61
-3.00474e-63
-3.64145e-65
-3.20463e-67
-2.00407e-69
-8.67354e-72
-2.51443e-74
-4.68455e-77
-5.30689e-80
-3.37543e-83
-1.06308e-86
-1.31741e-90
-3.69355e-95
-1.20477e-50
-1.64877e-51
-1.74771e-52
-1.43864e-53
-9.21029e-55
-4.58131e-56
-1.76254e-57
-5.21119e-59
-1.17273e-60
-1.98473e-62
-2.48843e-64
-2.26894e-66
-1.4719e-68
-6.61363e-71
-1.99093e-73
-3.84923e-76
-4.51665e-79
-2.96489e-82
-9.57844e-86
-1.2053e-89
-3.3657e-94
-6.2047e-50
-8.66232e-51
-9.37972e-52
-7.89866e-53
-5.18113e-54
-2.64472e-55
-1.04587e-56
-3.18384e-58
-7.38965e-60
-1.29203e-61
-1.67633e-63
-1.58412e-65
-1.0665e-67
-4.97818e-70
-1.55756e-72
-3.12889e-75
-3.80942e-78
-2.58707e-81
-8.60245e-85
-1.10461e-88
-3.09588e-93
-3.14296e-49
-4.47724e-50
-4.95336e-51
-4.268e-52
-2.86892e-53
-1.50308e-54
-6.11074e-56
-1.91559e-57
-4.58617e-59
-8.28549e-61
-1.11265e-62
-1.09004e-64
-7.61904e-67
-3.69661e-69
-1.20304e-71
-2.51393e-74
-3.1809e-77
-2.24e-80
-7.69124e-84
-1.01253e-87
-2.86929e-92
-1.56528e-48
-2.27573e-49
-2.57294e-50
-2.26879e-51
-1.56309e-52
-8.40663e-54
-3.51404e-55
-1.13451e-56
-2.80213e-58
-5.23166e-60
-7.27298e-62
-7.3885e-64
-5.36349e-66
-2.70619e-68
-9.16753e-71
-1.99479e-73
-2.62706e-76
-1.92237e-79
-6.83653e-83
-9.26798e-87
-2.67389e-91
-7.66141e-48
-1.13708e-48
-1.31404e-49
-1.18602e-50
-8.37621e-52
-4.62511e-53
-1.98809e-54
-6.61128e-56
-1.6848e-57
-3.25115e-59
-4.67961e-61
-4.93064e-63
-3.7184e-65
-1.95191e-67
-6.88725e-70
-1.56196e-72
-2.14389e-75
-1.63336e-78
-6.03315e-82
-8.4567e-86
-2.49991e-90
-3.68388e-47
-5.58269e-48
-6.59558e-49
-6.09444e-50
-4.41293e-51
-2.50208e-52
-1.10612e-53
-3.78918e-55
-9.96408e-57
-1.98752e-58
-2.96237e-60
-3.23787e-62
-2.53736e-64
-1.38625e-66
-5.09751e-69
-1.20592e-71
-1.72717e-74
-1.37243e-77
-5.27858e-81
-7.67882e-85
-2.33939e-89
-1.73939e-46
-2.69211e-47
-3.25225e-48
-3.07708e-49
-2.28476e-50
-1.33038e-51
-6.04941e-53
-2.135e-54
-5.79376e-56
-1.19471e-57
-1.84414e-59
-2.09122e-61
-1.70327e-63
-9.68797e-66
-3.7144e-68
-9.17269e-71
-1.37234e-73
-1.13913e-76
-4.57255e-80
-6.92636e-84
-2.18606e-88
-8.06101e-46
-1.27453e-46
-1.57475e-47
-1.52588e-48
-1.16198e-49
-6.94953e-51
-3.25075e-52
-1.18209e-53
-3.31072e-55
-7.05809e-57
-1.12839e-58
-1.32772e-60
-1.12414e-62
-6.65849e-65
-2.66284e-67
-6.86864e-70
-1.07446e-72
-9.32955e-76
-3.91632e-79
-6.1956e-83
-2.03514e-87
-3.66505e-45
-5.92124e-46
-7.48406e-47
-7.42817e-48
-5.8024e-49
-3.56491e-50
-1.7156e-51
-6.42852e-53
-1.85834e-54
-4.09621e-56
-6.78311e-58
-8.2823e-60
-7.29054e-62
-4.49791e-64
-1.8769e-66
-5.05955e-69
-8.28201e-72
-7.53155e-75
-3.31213e-78
-5.48656e-82
-1.88329e-86
-1.63403e-44
-2.69824e-45
-3.48949e-46
-3.54834e-47
-2.84362e-48
-1.79497e-49
-8.88825e-51
-3.43223e-52
-1.02415e-53
-2.33421e-55
-4.00393e-57
-5.0736e-59
-4.64368e-61
-2.98457e-63
-1.29985e-65
-3.66353e-68
-6.27947e-71
-5.98687e-74
-2.76244e-77
-4.80237e-81
-1.72861e-85
-7.14017e-44
-1.20542e-44
-1.59542e-45
-1.66243e-46
-1.36705e-47
-8.86699e-49
-4.51833e-50
-1.79822e-51
-5.53906e-53
-1.30543e-54
-2.31962e-56
-3.05054e-58
-2.90331e-60
-1.94418e-62
-8.83935e-65
-2.60567e-67
-4.6794e-70
-4.68138e-73
-2.26938e-76
-4.14839e-80
-1.57051e-84
-3.05634e-43
-5.2767e-44
-7.14929e-45
-7.63525e-46
-6.44371e-47
-4.29535e-48
-2.25265e-49
-9.24068e-51
-2.93853e-52
-7.16158e-54
-1.31827e-55
-1.79932e-57
-1.7808e-59
-1.24257e-61
-5.89863e-64
-1.81913e-66
-3.4244e-69
-3.59743e-72
-1.83419e-75
-3.53134e-79
-1.40967e-83
-1.28086e-42
-2.26217e-43
-3.13832e-44
-3.43594e-45
-2.97652e-46
-2.03943e-47
-1.1009e-48
-4.65525e-50
-1.52837e-51
-3.85201e-53
-7.34558e-55
-1.0406e-56
-1.07101e-58
-7.78733e-61
-3.86022e-63
-1.24576e-65
-2.45903e-68
-2.71427e-71
-1.45687e-74
-2.95825e-78
-1.2478e-82
-5.25248e-42
-9.49271e-43
-1.3488e-43
-1.51419e-44
-1.34672e-45
-9.48599e-47
-5.27136e-48
-2.29795e-49
-7.7896e-51
-2.03034e-52
-4.01105e-54
-5.89753e-56
-6.3123e-58
-4.78281e-60
-2.47591e-62
-8.36243e-65
-1.73139e-67
-2.00896e-70
-1.136e-73
-2.43557e-77
-1.08742e-81
-2.10638e-41
-3.89678e-42
-5.67242e-43
-6.53118e-44
-5.96501e-45
-4.32009e-46
-2.47165e-47
-1.11089e-48
-3.88831e-50
-1.04816e-51
-2.14521e-53
-3.27368e-55
-3.64382e-57
-2.8771e-59
-1.55543e-61
-5.49879e-64
-1.1944e-66
-1.45738e-69
-8.68711e-73
-1.96835e-76
-9.31544e-81
-8.25574e-41
-1.56393e-41
-2.33298e-42
-2.75571e-43
-2.58504e-44
-1.92531e-45
-1.13425e-46
-5.25656e-48
-1.89992e-49
-5.29693e-51
-1.12313e-52
-1.77886e-54
-2.059e-56
-1.69413e-58
-9.56505e-61
-3.53955e-63
-8.06705e-66
-1.03538e-68
-6.50872e-72
-1.5597e-75
-7.83309e-80
-3.16046e-40
-6.13272e-41
-9.37804e-42
-1.13671e-42
-1.09546e-43
-8.39187e-45
-5.09147e-46
-2.43326e-47
-9.08227e-49
-2.61893e-50