/*--------------------------------*- C++ -*----------------------------------*\
| =========                 |                                                 |
| \\      /  F ield         | OpenFOAM: The Open Source CFD Toolbox           |
|  \\    /   O peration     | Version:  v2012                                 |
|   \\  /    A nd           | Website:  www.openfoam.com                      |
|    \\/     M anipulation  |                                                 |
\*---------------------------------------------------------------------------*/
FoamFile
{
    version     2.0;
    format      ascii;
    class       surfaceScalarField;
    location    "0.9";
    object      phi;
}
// * * * * * * * * * * * * * * * * * * * * * * * * * * * * * * * * * * * * * //

dimensions      [0 3 -1 0 0 0 0];
oriented        oriented;


internalField   nonuniform List<scalar> 
49380
(
4.81968e-12
-6.90213e-09
7.16148e-17
-1.69981e-12
-2.11221e-08
-2.08792e-15
-3.67437e-11
-3.47626e-08
-1.16082e-14
5.07411e-11
-4.93158e-08
-1.1796e-14
3.38956e-10
-6.4414e-08
-1.78825e-14
1.05554e-09
-8.08365e-08
-8.28611e-15
1.42259e-09
-7.57692e-08
-1.62904e-15
1.54361e-09
-7.49529e-08
-9.49188e-16
1.64941e-09
-8.56419e-08
-6.82743e-16
1.75609e-09
-9.50302e-08
-9.52725e-16
1.84823e-09
-1.01238e-07
-9.03462e-16
1.924e-09
-1.04291e-07
-1.04311e-15
1.98738e-09
-1.05861e-07
-1.06091e-15
2.03305e-09
-1.07966e-07
-9.70555e-16
2.0529e-09
-1.11464e-07
-9.98034e-16
2.04523e-09
-1.16176e-07
-1.09537e-15
2.0117e-09
-1.21638e-07
-1.16728e-15
1.95335e-09
-1.27377e-07
-1.2534e-15
1.87063e-09
-1.33014e-07
-1.34114e-15
1.76389e-09
-1.3827e-07
-1.44303e-15
1.63348e-09
-1.42966e-07
-1.4816e-15
1.47977e-09
-1.46994e-07
-1.5233e-15
1.30323e-09
-1.50253e-07
-1.54447e-15
1.10443e-09
-1.52706e-07
-1.56317e-15
8.84135e-10
-1.54281e-07
-1.54065e-15
6.43418e-10
-1.54936e-07
-1.52779e-15
3.83754e-10
-1.54609e-07
-1.51503e-15
1.07223e-10
-1.5322e-07
-1.49614e-15
-1.8342e-10
-1.50724e-07
-1.47412e-15
-4.8446e-10
-1.47016e-07
-1.52732e-15
-7.91105e-10
-1.42033e-07
-1.38584e-15
-1.09725e-09
-1.35692e-07
-1.27538e-15
-1.39516e-09
-1.27909e-07
-1.215e-15
-1.67518e-09
-1.18609e-07
-1.14924e-15
-1.92512e-09
-1.0772e-07
-1.07694e-15
-2.12954e-09
-9.51839e-08
-9.98127e-16
-2.26804e-09
-8.09475e-08
-9.10846e-16
-2.31337e-09
-6.49834e-08
-8.1332e-16
-2.22181e-09
-4.7282e-08
-7.01463e-16
-1.94233e-09
-2.78967e-08
-5.65729e-16
-1.24404e-09
-6.96648e-09
-3.95822e-16
-6.06968e-10
1.56834e-08
-9.29593e-17
-4.57749e-10
3.99444e-08
-4.19864e-17
-3.94546e-10
6.53675e-08
-2.77823e-17
-3.67037e-10
9.18356e-08
-1.99523e-17
-3.48295e-10
1.19228e-07
-1.44688e-17
-3.31111e-10
1.47083e-07
-8.704e-18
-3.12558e-10
1.7501e-07
-1.43372e-17
-2.91525e-10
2.02363e-07
-1.90696e-17
-2.67569e-10
2.28423e-07
-1.81497e-17
-2.40638e-10
2.52341e-07
-1.70154e-17
-2.10988e-10
2.72872e-07
-1.51251e-17
-1.79137e-10
2.88689e-07
-1.77519e-17
-1.45877e-10
2.98117e-07
-1.64771e-17
-1.12315e-10
2.99017e-07
-1.52876e-17
-7.98766e-11
2.88817e-07
-1.36953e-17
-5.03334e-11
2.64425e-07
-1.09458e-17
-2.5717e-11
2.21877e-07
-1.1456e-17
-8.18413e-12
1.56406e-07
-8.91333e-18
6.18354e-08
-6.42125e-18
8.48184e-12
-6.91061e-09
1.68049e-16
-5.00868e-12
-2.11087e-08
-4.13898e-15
-2.46335e-11
-3.4743e-08
-1.15509e-14
7.9375e-11
-4.94198e-08
-1.37435e-14
3.99828e-10
-6.47344e-08
-2.196e-14
1.30227e-09
-8.1739e-08
-1.20481e-14
1.58327e-09
-7.60502e-08
-4.47971e-15
1.67431e-09
-7.50439e-08
-2.30189e-15
1.82715e-09
-8.57948e-08
-1.37853e-15
1.96595e-09
-9.51691e-08
-9.52271e-16
2.06126e-09
-1.01333e-07
-1.04721e-15
2.12883e-09
-1.04358e-07
-1.09216e-15
2.18974e-09
-1.05921e-07
-1.04597e-15
2.23477e-09
-1.08011e-07
-9.40424e-16
2.24518e-09
-1.11474e-07
-1.08095e-15
2.21786e-09
-1.16149e-07
-1.03552e-15
2.15854e-09
-1.21578e-07
-1.12413e-15
2.07251e-09
-1.27291e-07
-1.07134e-15
1.96326e-09
-1.32904e-07
-1.16281e-15
1.83279e-09
-1.3814e-07
-1.51582e-15
1.6821e-09
-1.42815e-07
-1.60573e-15
1.51152e-09
-1.46823e-07
-1.61591e-15
1.32112e-09
-1.50063e-07
-1.59208e-15
1.11094e-09
-1.52495e-07
-1.58267e-15
8.81179e-10
-1.54052e-07
-1.54504e-15
6.32419e-10
-1.54687e-07
-1.54164e-15
3.65741e-10
-1.54342e-07
-1.53003e-15
8.2919e-11
-1.52937e-07
-1.51254e-15
-2.13522e-10
-1.50427e-07
-1.48822e-15
-5.20039e-10
-1.4671e-07
-1.44585e-15
-8.31987e-10
-1.41721e-07
-1.30021e-15
-1.1434e-09
-1.35381e-07
-1.28526e-15
-1.44673e-09
-1.27606e-07
-1.2267e-15
-1.73256e-09
-1.18323e-07
-1.15947e-15
-1.98916e-09
-1.07463e-07
-1.08595e-15
-2.20191e-09
-9.49711e-08
-1.0062e-15
-2.35219e-09
-8.07972e-08
-9.17952e-16
-2.41671e-09
-6.49189e-08
-8.19656e-16
-2.36357e-09
-4.73352e-08
-7.06566e-16
-2.17175e-09
-2.80886e-08
-5.70009e-16
-1.83302e-09
-7.30519e-09
-4.0214e-16
-1.48726e-09
1.53377e-08
-1.95461e-16
-1.28388e-09
3.9741e-08
-1.16331e-16
-1.1647e-09
6.52483e-08
-7.9978e-17
-1.09657e-09
9.17674e-08
-5.75476e-17
-1.04418e-09
1.19176e-07
-4.12171e-17
-9.93734e-10
1.47033e-07
-2.64445e-17
-9.38519e-10
1.74955e-07
-5.43096e-17
-8.75615e-10
2.02301e-07
-7.32264e-17
-8.03828e-10
2.28351e-07
-7.34026e-17
-7.23046e-10
2.5226e-07
-7.26205e-17
-6.34062e-10
2.72783e-07
-6.9127e-17
-5.3843e-10
2.88593e-07
-7.99554e-17
-4.38526e-10
2.98017e-07
-7.7512e-17
-3.37641e-10
2.98916e-07
-7.50822e-17
-2.40043e-10
2.88719e-07
-7.05134e-17
-1.50977e-10
2.64336e-07
-6.10143e-17
-7.66238e-11
2.21803e-07
-6.15692e-17
-2.35799e-11
1.56353e-07
-5.09198e-17
6.18118e-08
-4.18108e-17
7.86812e-12
-6.91847e-09
3.7703e-16
-2.69875e-13
-2.11005e-08
-2.5927e-15
8.41329e-11
-3.48274e-08
-1.3976e-14
1.97344e-10
-4.9533e-08
-1.04442e-14
4.91599e-10
-6.50287e-08
-1.72777e-14
1.33474e-09
-8.25821e-08
-5.76747e-15
1.65454e-09
-7.63699e-08
-6.34999e-16
1.83351e-09
-7.52229e-08
-1.53564e-15
2.01002e-09
-8.59713e-08
-1.34217e-15
2.1325e-09
-9.52915e-08
-1.12849e-15
2.19221e-09
-1.01393e-07
-1.24981e-15
2.23321e-09
-1.04399e-07
-1.10248e-15
2.29155e-09
-1.0598e-07
-1.1126e-15
2.35073e-09
-1.0807e-07
-1.17627e-15
2.37694e-09
-1.11501e-07
-1.23106e-15
2.35805e-09
-1.1613e-07
-1.26624e-15
2.29728e-09
-1.21518e-07
-1.30151e-15
2.20175e-09
-1.27195e-07
-1.22499e-15
2.07785e-09
-1.3278e-07
-1.4033e-15
1.93023e-09
-1.37992e-07
-1.56407e-15
1.7617e-09
-1.42647e-07
-1.6116e-15
1.57367e-09
-1.46635e-07
-1.62863e-15
1.36679e-09
-1.49856e-07
-1.60289e-15
1.14121e-09
-1.5227e-07
-1.60007e-15
8.97131e-10
-1.53807e-07
-1.55729e-15
6.34945e-10
-1.54425e-07
-1.55104e-15
3.55542e-10
-1.54063e-07
-1.54076e-15
6.04975e-11
-1.52642e-07
-1.52417e-15
-2.47845e-10
-1.50119e-07
-1.50079e-15
-5.66107e-10
-1.46391e-07
-1.48954e-15
-8.89808e-10
-1.41398e-07
-1.33734e-15
-1.21317e-09
-1.35058e-07
-1.29218e-15
-1.52893e-09
-1.2729e-07
-1.23128e-15
-1.82808e-09
-1.18024e-07
-1.16349e-15
-2.09966e-09
-1.07191e-07
-1.08993e-15
-2.33045e-09
-9.47404e-08
-1.01103e-15
-2.50458e-09
-8.06231e-08
-9.24317e-16
-2.60442e-09
-6.4819e-08
-8.28645e-16
-2.61123e-09
-4.73283e-08
-7.19397e-16
-2.52508e-09
-2.81747e-08
-5.89645e-16
-2.38341e-09
-7.44682e-09
-4.38039e-16
-2.21271e-09
1.5167e-08
-2.75587e-16
-2.04116e-09
3.95695e-08
-1.83004e-16
-1.90967e-09
6.51168e-08
-1.29922e-16
-1.81695e-09
9.16747e-08
-9.50177e-17
-1.73691e-09
1.19096e-07
-6.89767e-17
-1.65562e-09
1.46952e-07
-4.77846e-17
-1.56482e-09
1.74864e-07
-8.80014e-17
-1.46057e-09
2.02196e-07
-1.13464e-16
-1.34121e-09
2.28232e-07
-1.10958e-16
-1.20668e-09
2.52125e-07
-1.08659e-16
-1.05838e-09
2.72635e-07
-1.02611e-16
-8.9892e-10
2.88434e-07
-1.20389e-16
-7.32239e-10
2.97851e-07
-1.15727e-16
-5.63799e-10
2.98747e-07
-1.11805e-16
-4.0066e-10
2.88556e-07
-1.0483e-16
-2.51522e-10
2.64187e-07
-9.07812e-17
-1.26741e-10
2.21678e-07
-9.37102e-17
-3.78361e-11
1.56264e-07
-7.86101e-17
6.1774e-08
-6.70818e-17
9.0422e-12
-6.92751e-09
4.89093e-16
2.63299e-12
-2.10941e-08
-3.91005e-15
1.69769e-10
-3.49946e-08
-1.01078e-14
2.61055e-10
-4.96242e-08
-1.16662e-14
5.70877e-10
-6.53385e-08
-1.55397e-14
1.4446e-09
-8.34558e-08
-2.57478e-15
1.71014e-09
-7.66355e-08
-3.21353e-15
1.89094e-09
-7.54037e-08
-2.4414e-15
2.09417e-09
-8.61745e-08
-1.22537e-15
2.23075e-09
-9.54281e-08
-1.17621e-15
2.2948e-09
-1.01457e-07
-1.24336e-15
2.34006e-09
-1.04445e-07
-1.26217e-15
2.40986e-09
-1.0605e-07
-1.20013e-15
2.48589e-09
-1.08146e-07
-1.25465e-15
2.5274e-09
-1.11542e-07
-1.34594e-15
2.51632e-09
-1.16119e-07
-1.448e-15
2.45354e-09
-1.21455e-07
-1.41173e-15
2.34736e-09
-1.27089e-07
-1.37055e-15
2.20687e-09
-1.3264e-07
-1.48197e-15
2.03945e-09
-1.37825e-07
-1.64929e-15
1.85004e-09
-1.42457e-07
-1.67339e-15
1.6414e-09
-1.46427e-07
-1.68095e-15
1.41481e-09
-1.49629e-07
-1.64936e-15
1.17067e-09
-1.52026e-07
-1.64467e-15
9.09087e-10
-1.53546e-07
-1.59453e-15
6.30269e-10
-1.54146e-07
-1.58521e-15
3.34854e-10
-1.53767e-07
-1.57031e-15
2.41789e-11
-1.52331e-07
-1.54984e-15
-2.99639e-10
-1.49795e-07
-1.52313e-15
-6.33421e-10
-1.46058e-07
-1.50641e-15
-9.72891e-10
-1.41058e-07
-1.34903e-15
-1.31251e-09
-1.34718e-07
-1.30357e-15
-1.64535e-09
-1.26957e-07
-1.24054e-15
-1.96294e-09
-1.17706e-07
-1.17145e-15
-2.25522e-09
-1.06899e-07
-1.09726e-15
-2.51056e-09
-9.4485e-08
-1.01874e-15
-2.71601e-09
-8.04176e-08
-9.33208e-16
-2.85905e-09
-6.4676e-08
-8.40078e-16
-2.93058e-09
-4.72568e-08
-7.35053e-16
-2.93874e-09
-2.81665e-08
-6.12732e-16
-2.92461e-09
-7.46092e-09
-4.75896e-16
-2.8678e-09
1.51101e-08
-3.38018e-16
-2.74793e-09
3.94496e-08
-2.41149e-16
-2.6287e-09
6.49976e-08
-1.77089e-16
-2.52534e-09
9.15714e-08
-1.31953e-16
-2.42453e-09
1.18995e-07
-9.72197e-17
-2.31564e-09
1.46843e-07
-6.81421e-17
-2.19084e-09
1.7474e-07
-1.12259e-16
-2.04602e-09
2.02052e-07
-1.39487e-16
-1.87947e-09
2.28066e-07
-1.32596e-16
-1.69138e-09
2.51937e-07
-1.27837e-16
-1.48381e-09
2.72427e-07
-1.18328e-16
-1.26048e-09
2.88211e-07
-1.42578e-16
-1.0269e-09
2.97617e-07
-1.35766e-16
-7.90711e-10
2.98511e-07
-1.3057e-16
-5.61736e-10
2.88327e-07
-1.22084e-16
-3.52135e-10
2.63977e-07
-1.0496e-16
-1.76534e-10
2.21503e-07
-1.13107e-16
-5.17586e-11
1.5614e-07
-9.71142e-17
6.17222e-08
-8.53957e-17
1.02213e-11
-6.93772e-09
6.00754e-16
7.1631e-12
-2.10911e-08
-2.49066e-15
2.74962e-10
-3.52624e-08
-8.74425e-15
3.1922e-10
-4.96685e-08
-1.36658e-14
6.45052e-10
-6.56643e-08
-1.33286e-14
1.5205e-09
-8.43313e-08
-9.07653e-16
1.77735e-09
-7.68923e-08
-2.25123e-15
1.95676e-09
-7.55831e-08
-1.57762e-15
2.15902e-09
-8.63768e-08
-9.80313e-16
2.29744e-09
-9.55665e-08
-9.94298e-16
2.36417e-09
-1.01524e-07
-1.10081e-15
2.41368e-09
-1.04494e-07
-1.18259e-15
2.48997e-09
-1.06126e-07
-1.20873e-15
2.57626e-09
-1.08232e-07
-1.20542e-15
2.6308e-09
-1.11597e-07
-1.37593e-15
2.63118e-09
-1.1612e-07
-1.49813e-15
2.5743e-09
-1.21398e-07
-1.47402e-15
2.46699e-09
-1.26982e-07
-1.52827e-15
2.31882e-09
-1.32492e-07
-1.5183e-15
2.13867e-09
-1.37645e-07
-1.69317e-15
1.93316e-09
-1.42252e-07
-1.71854e-15
1.70646e-09
-1.462e-07
-1.71912e-15
1.4609e-09
-1.49384e-07
-1.68158e-15
1.1975e-09
-1.51762e-07
-1.67932e-15
9.16681e-10
-1.53265e-07
-1.62887e-15
6.18758e-10
-1.53848e-07
-1.61926e-15
3.04341e-10
-1.53453e-07
-1.60241e-15
-2.53292e-11
-1.52001e-07
-1.57904e-15
-3.68264e-10
-1.49452e-07
-1.54916e-15
-7.21431e-10
-1.45704e-07
-1.53036e-15
-1.08073e-09
-1.40699e-07
-1.36518e-15
-1.44085e-09
-1.34358e-07
-1.31742e-15
-1.7952e-09
-1.26603e-07
-1.25219e-15
-2.13588e-09
-1.17365e-07
-1.18168e-15
-2.45375e-09
-1.06581e-07
-1.10679e-15
-2.73869e-09
-9.42001e-08
-1.02852e-15
-2.98029e-09
-8.0176e-08
-9.44066e-16
-3.1699e-09
-6.44864e-08
-8.53316e-16
-3.30404e-09
-4.71226e-08
-7.52385e-16
-3.39203e-09
-2.80786e-08
-6.36963e-16
-3.46538e-09
-7.38752e-09
-5.11553e-16
-3.48711e-09
1.51319e-08
-3.89214e-16
-3.42142e-09
3.9384e-08
-2.92549e-16
-3.32584e-09
6.49021e-08
-2.2162e-16
-3.22181e-09
9.14673e-08
-1.68268e-16
-3.10635e-09
1.1888e-07
-1.25594e-16
-2.9732e-09
1.4671e-07
-8.73649e-17
-2.81619e-09
1.74583e-07
-1.25217e-16
-2.63173e-09
2.01867e-07
-1.49293e-16
-2.41846e-09
2.27852e-07
-1.35637e-16
-2.17702e-09
2.51696e-07
-1.26935e-16
-1.91025e-09
2.7216e-07
-1.12927e-16
-1.62302e-09
2.87923e-07
-1.42741e-16
-1.32245e-09
2.97316e-07
-1.33161e-16
-1.01833e-09
2.98207e-07
-1.26668e-16
-7.23266e-10
2.88032e-07
-1.17435e-16
-4.529e-10
2.63707e-07
-9.90708e-17
-2.26207e-10
2.21276e-07
-1.15096e-16
-6.55361e-11
1.55979e-07
-1.01314e-16
6.16567e-08
-9.12862e-17
1.0836e-11
-6.94855e-09
7.66259e-16
1.43163e-11
-2.10946e-08
-3.48753e-15
3.6912e-10
-3.56172e-08
-2.43756e-15
3.3827e-10
-4.96376e-08
-1.7254e-14
6.98908e-10
-6.60249e-08
-1.20387e-14
1.57028e-09
-8.52027e-08
1.36931e-15
1.81236e-09
-7.71344e-08
-5.60065e-15
1.98057e-09
-7.57514e-08
-1.62321e-15
2.18813e-09
-8.65843e-08
-1.16369e-15
2.33806e-09
-9.57165e-08
-9.26829e-16
2.41953e-09
-1.01605e-07
-1.06928e-15
2.48231e-09
-1.04557e-07
-1.18047e-15
2.56746e-09
-1.06211e-07
-1.30623e-15
2.66029e-09
-1.08325e-07
-1.29518e-15
2.72132e-09
-1.11658e-07
-1.53641e-15
2.72725e-09
-1.16125e-07
-1.61486e-15
2.67283e-09
-1.21344e-07
-1.56542e-15
2.56349e-09
-1.26872e-07
-1.69132e-15
2.40863e-09
-1.32337e-07
-1.62729e-15
2.21771e-09
-1.37454e-07
-1.74782e-15
1.99827e-09
-1.42032e-07
-1.78016e-15
1.75542e-09
-1.45957e-07
-1.7938e-15
1.49222e-09
-1.4912e-07
-1.75839e-15
1.21019e-09
-1.5148e-07
-1.75149e-15
9.10066e-10
-1.52965e-07
-1.69164e-15
5.92292e-10
-1.53531e-07
-1.67332e-15
2.57519e-10
-1.53118e-07
-1.64776e-15
-9.30315e-11
-1.51651e-07
-1.61702e-15
-4.57427e-10
-1.49088e-07
-1.58105e-15
-8.32711e-10
-1.45329e-07
-1.55752e-15
-1.21489e-09
-1.40317e-07
-1.3838e-15
-1.59885e-09
-1.33974e-07
-1.33358e-15
-1.97828e-09
-1.26223e-07
-1.2659e-15
-2.34577e-09
-1.16998e-07
-1.19377e-15
-2.69299e-09
-1.06234e-07
-1.11804e-15
-3.01108e-09
-9.3882e-08
-1.03987e-15
-3.29158e-09
-7.98955e-08
-9.56333e-16
-3.52831e-09
-6.42497e-08
-8.67754e-16
-3.72032e-09
-4.69306e-08
-7.70631e-16
-3.87484e-09
-2.7924e-08
-6.61432e-16
-4.01137e-09
-7.25095e-09
-5.45161e-16
-4.09058e-09
1.52111e-08
-4.33365e-16
-4.07461e-09
3.93681e-08
-3.38513e-16
-4.00663e-09
6.48341e-08
-2.63443e-16
-3.90805e-09
9.13688e-08
-2.0372e-16
-3.78267e-09
1.18755e-07
-1.54129e-16
-3.62825e-09
1.46555e-07
-1.06149e-16
-3.44073e-09
1.74395e-07
-1.33073e-16
-3.21759e-09
2.01644e-07
-1.51594e-16
-2.95809e-09
2.27593e-07
-1.29416e-16
-2.66354e-09
2.51401e-07
-1.15157e-16
-2.33765e-09
2.71835e-07
-9.51218e-17
-1.98649e-09
2.87572e-07
-1.29059e-16
-1.61883e-09
2.96949e-07
-1.15487e-16
-1.24662e-09
2.97835e-07
-1.06911e-16
-8.85256e-10
2.87671e-07
-9.68195e-17
-5.53877e-10
2.63375e-07
-7.79869e-17
-2.75884e-10
2.20998e-07
-1.03342e-16
-7.92607e-11
1.55782e-07
-9.36e-17
6.15774e-08
-8.69564e-17
1.13958e-11
-6.95995e-09
3.32175e-16
2.43808e-11
-2.11075e-08
-3.19904e-15
4.37915e-10
-3.60307e-08
-8.64862e-16
3.10867e-10
-4.95106e-08
-2.16911e-14
7.23847e-10
-6.64379e-08
-1.02297e-14
1.59103e-09
-8.60698e-08
7.14068e-16
1.86036e-09
-7.74037e-08
-5.10504e-15
2.01449e-09
-7.59055e-08
-1.05369e-15
2.21551e-09
-8.67853e-08
-1.1264e-15
2.36841e-09
-9.58694e-08
-9.34691e-16
2.4588e-09
-1.01696e-07
-1.11972e-15
2.53043e-09
-1.04628e-07
-1.28311e-15
2.61991e-09
-1.06301e-07
-1.41512e-15
2.71417e-09
-1.08419e-07
-1.4454e-15
2.77702e-09
-1.11721e-07
-1.68959e-15
2.7856e-09
-1.16134e-07
-1.73311e-15
2.73319e-09
-1.21291e-07
-1.67331e-15
2.62363e-09
-1.26763e-07
-1.83062e-15
2.46529e-09
-1.32179e-07
-1.73721e-15
2.26739e-09
-1.37256e-07
-1.81535e-15
2.03767e-09
-1.41803e-07
-1.837e-15
1.78171e-09
-1.45701e-07
-1.85137e-15
1.50311e-09
-1.48842e-07
-1.82009e-15
1.20384e-09
-1.51181e-07
-1.81252e-15
8.84955e-10
-1.52646e-07
-1.74893e-15
5.47142e-10
-1.53193e-07
-1.72517e-15
1.91185e-10
-1.52762e-07
-1.69326e-15
-1.81616e-10
-1.51278e-07
-1.65642e-15
-5.69294e-10
-1.487e-07
-1.61513e-15
-9.68892e-10
-1.4493e-07
-1.58745e-15
-1.37646e-09
-1.39909e-07
-1.40445e-15
-1.78697e-09
-1.33563e-07
-1.35142e-15
-2.19434e-09
-1.25816e-07
-1.28118e-15
-2.59154e-09
-1.16601e-07
-1.20734e-15
-2.97084e-09
-1.05855e-07
-1.13069e-15
-3.32435e-09
-9.35285e-08
-1.05251e-15
-3.6449e-09
-7.9575e-08
-9.69707e-16
-3.92759e-09
-6.3967e-08
-8.82981e-16
-4.17195e-09
-4.66862e-08
-7.89166e-16
-4.38195e-09
-2.7714e-08
-6.85255e-16
-4.56682e-09
-7.06601e-09
-5.76218e-16
-4.69029e-09
1.53346e-08
-4.71922e-16
-4.71726e-09
3.93951e-08
-3.79358e-16
-4.6766e-09
6.47935e-08
-3.01947e-16
-4.58657e-09
9.12787e-08
-2.37421e-16
-4.45446e-09
1.18622e-07
-1.82012e-16
-4.2811e-09
1.46382e-07
-1.24954e-16
-4.06457e-09
1.74179e-07
-1.39869e-16
-3.8036e-09
2.01383e-07
-1.52813e-16
-3.49836e-09
2.27288e-07
-1.21623e-16
-3.1509e-09
2.51054e-07
-1.0092e-16
-2.76596e-09
2.7145e-07
-7.3871e-17
-2.35085e-09
2.87157e-07
-1.10877e-16
-1.91601e-09
2.96514e-07
-9.22842e-17
-1.47557e-09
2.97394e-07
-8.0737e-17
-1.04771e-09
2.87243e-07
-6.91633e-17
-6.55116e-10
2.62983e-07
-4.96249e-17
-3.25656e-10
2.20668e-07
-8.4171e-17
-9.30054e-11
1.5555e-07
-7.8487e-17
6.14844e-08
-7.52133e-17
1.16847e-11
-6.97163e-09
9.2634e-16
3.75572e-11
-2.11334e-08
-3.23406e-15
4.668e-10
-3.646e-08
-2.34774e-15
2.38122e-10
-4.9282e-08
-2.49525e-14
7.14904e-10
-6.69147e-08
-5.28317e-15
1.57491e-09
-8.69298e-08
-2.61273e-15
1.89205e-09
-7.77208e-08
-5.19999e-15
2.03522e-09
-7.60487e-08
-2.43208e-15
2.23211e-09
-8.69822e-08
-1.37422e-15
2.38768e-09
-9.6025e-08
-1.25987e-15
2.48584e-09
-1.01794e-07
-1.38009e-15
2.56454e-09
-1.04707e-07
-1.60029e-15
2.65599e-09
-1.06392e-07
-1.72023e-15
2.74826e-09
-1.08512e-07
-1.78136e-15
2.80866e-09
-1.11781e-07
-1.96536e-15
2.81571e-09
-1.16141e-07
-2.0015e-15
2.7622e-09
-1.21238e-07
-1.85514e-15
2.65089e-09
-1.26652e-07
-1.99102e-15
2.48914e-09
-1.32017e-07
-1.87661e-15
2.28551e-09
-1.37052e-07
-1.98924e-15
2.04745e-09
-1.41564e-07
-2.00064e-15
1.78055e-09
-1.45434e-07
-1.98584e-15
1.48852e-09
-1.4855e-07
-1.92956e-15
1.17354e-09
-1.50866e-07
-1.9007e-15
8.36885e-10
-1.52309e-07
-1.82091e-15
4.79402e-10
-1.52835e-07
-1.78533e-15
1.02035e-10
-1.52385e-07
-1.7437e-15
-2.93786e-10
-1.50882e-07
-1.69923e-15
-7.05988e-10
-1.48288e-07
-1.65192e-15
-1.13153e-09
-1.44504e-07
-1.61985e-15
-1.5664e-09
-1.39474e-07
-1.4269e-15
-2.0056e-09
-1.33124e-07
-1.3707e-15
-2.44313e-09
-1.25378e-07
-1.29776e-15
-2.87219e-09
-1.16172e-07
-1.22211e-15
-3.28548e-09
-1.05442e-07
-1.14446e-15
-3.67568e-09
-9.31383e-08
-1.06612e-15
-4.03631e-09
-7.92143e-08
-9.83873e-16
-4.36289e-09
-6.36404e-08
-8.98654e-16
-4.65424e-09
-4.63949e-08
-8.07565e-16
-4.91097e-09
-2.74573e-08
-7.07946e-16
-5.13472e-09
-6.84221e-09
-6.04459e-16
-5.29358e-09
1.54935e-08
-5.0561e-16
-5.35653e-09
3.94581e-08
-4.15256e-16
-5.34074e-09
6.47777e-08
-3.36598e-16
-5.26014e-09
9.11981e-08
-2.68501e-16
-5.12307e-09
1.18485e-07
-2.08362e-16
-4.93238e-09
1.46191e-07
-1.4369e-16
-4.68799e-09
1.73934e-07
-1.49025e-16
-4.38991e-09
2.01085e-07
-1.57924e-16
-4.0393e-09
2.26937e-07
-1.18047e-16
-3.63913e-09
2.50654e-07
-9.05319e-17
-3.19518e-09
2.71006e-07
-5.58503e-17
-2.71609e-09
2.86678e-07
-9.51767e-17
-2.21397e-09
2.96012e-07
-7.07298e-17
-1.70515e-09
2.96885e-07
-5.53497e-17
-1.21063e-09
2.86748e-07
-4.14471e-17
-7.56645e-10
2.62529e-07
-2.04175e-17
-3.75576e-10
2.20287e-07
-6.29439e-17
-1.06809e-10
1.55281e-07
-6.00619e-17
6.13776e-08
-5.93016e-17
1.19156e-11
-6.98354e-09
2.80872e-16
5.17709e-11
-2.11733e-08
-2.66752e-15
4.46013e-10
-3.68542e-08
-2.11453e-15
1.29311e-10
-4.89653e-08
-2.72708e-14
6.70398e-10
-6.74557e-08
-1.31725e-15
1.52772e-09
-8.77871e-08
-1.4773e-15
1.92106e-09
-7.81141e-08
-5.08372e-15
2.0585e-09
-7.61861e-08
-1.98318e-15
2.24794e-09
-8.71717e-08
-1.859e-15
2.40029e-09
-9.61773e-08
-1.86652e-15
2.49964e-09
-1.01893e-07
-1.97426e-15
2.5791e-09
-1.04787e-07
-2.04582e-15
2.66738e-09
-1.0648e-07
-2.11955e-15
2.75356e-09
-1.08598e-07
-2.14465e-15
2.80823e-09
-1.11836e-07
-2.26768e-15
2.81132e-09
-1.16144e-07
-2.32178e-15
2.75539e-09
-1.21182e-07
-2.10525e-15
2.64215e-09
-1.26538e-07
-2.21816e-15
2.47784e-09
-1.31852e-07
-2.11289e-15
2.27006e-09
-1.36844e-07
-2.12934e-15
2.02565e-09
-1.4132e-07
-2.10953e-15
1.74982e-09
-1.45158e-07
-2.08173e-15
1.4462e-09
-1.48246e-07
-2.0192e-15
1.11698e-09
-1.50537e-07
-1.97948e-15
7.63523e-10
-1.51956e-07
-1.8894e-15
3.86832e-10
-1.52459e-07
-1.84388e-15
-1.19951e-11
-1.51986e-07
-1.79354e-15
-4.31358e-10
-1.50463e-07
-1.74203e-15
-8.69018e-10
-1.4785e-07
-1.68926e-15
-1.32177e-09
-1.44051e-07
-1.65349e-15
-1.78546e-09
-1.3901e-07
-1.45027e-15
-2.25501e-09
-1.32655e-07
-1.39068e-15
-2.7244e-09
-1.24909e-07
-1.31504e-15
-3.18688e-09
-1.15709e-07
-1.23759e-15
-3.63536e-09
-1.04993e-07
-1.15893e-15
-4.06275e-09
-9.27109e-08
-1.08037e-15
-4.4628e-09
-7.88142e-08
-9.98523e-16
-4.83083e-09
-6.32724e-08
-9.14494e-16
-5.16436e-09
-4.60613e-08
-8.2558e-16
-5.46101e-09
-2.71607e-08
-7.2934e-16
-5.71715e-09
-6.58601e-09
-6.30025e-16
-5.90505e-09
1.56814e-08
-5.35103e-16
-5.99764e-09
3.95507e-08
-4.46615e-16
-6.00329e-09
6.47834e-08
-3.67279e-16
-5.93147e-09
9.11263e-08
-2.96512e-16
-5.79005e-09
1.18344e-07
-2.32646e-16
-5.58293e-09
1.45984e-07
-1.61721e-16
-5.31142e-09
1.73663e-07
-1.61077e-16
-4.97673e-09
2.0075e-07
-1.68009e-16
-4.58103e-09
2.26541e-07
-1.20815e-16
-4.12826e-09
2.50201e-07
-8.70148e-17
-3.62531e-09
2.70503e-07
-4.4934e-17
-3.08217e-09
2.86135e-07
-8.66133e-17
-2.51267e-09
2.95442e-07
-5.61523e-17
-1.93534e-09
2.96308e-07
-3.65348e-17
-1.37401e-09
2.86187e-07
-1.95942e-17
-8.58484e-10
2.62013e-07
3.97792e-18
-4.25679e-10
2.19855e-07
-4.45215e-17
-1.20695e-10
1.54976e-07
-4.25091e-17
6.12569e-08
-4.26156e-17
1.21512e-11
-6.99569e-09
7.61516e-16
6.54472e-11
-2.12266e-08
-3.49259e-15
3.77655e-10
-3.71664e-08
-4.97037e-15
5.19381e-12
-4.85928e-08
-2.34057e-14
5.96087e-10
-6.80466e-08
-2.69859e-15
1.45244e-09
-8.86436e-08
-1.14973e-14
1.93075e-09
-7.85924e-08
-2.26189e-15
2.07006e-09
-7.63254e-08
-2.35318e-15
2.25404e-09
-8.73556e-08
-3.1907e-15
2.40111e-09
-9.63244e-08
-2.79592e-15
2.49789e-09
-1.0199e-07
-2.81321e-15
2.57393e-09
-1.04863e-07
-2.73108e-15
2.65552e-09
-1.06562e-07
-2.69147e-15
2.73275e-09
-1.08675e-07
-2.63195e-15
2.77926e-09
-1.11882e-07
-2.61036e-15
2.77634e-09
-1.16141e-07
-2.64818e-15
2.7165e-09
-1.21122e-07
-2.26468e-15
2.60057e-09
-1.26422e-07
-2.31655e-15
2.4337e-09
-1.31686e-07
-2.24616e-15
2.22243e-09
-1.36633e-07
-2.32302e-15
1.97277e-09
-1.4107e-07
-2.28356e-15
1.68935e-09
-1.44875e-07
-2.21668e-15
1.37545e-09
-1.47932e-07
-2.12627e-15
1.03308e-09
-1.50194e-07
-2.0641e-15
6.63608e-10
-1.51586e-07
-1.95811e-15
2.68091e-10
-1.52063e-07
-1.90109e-15
-1.52226e-10
-1.51566e-07
-1.84185e-15
-5.95554e-10
-1.5002e-07
-1.78382e-15
-1.05943e-09
-1.47387e-07
-1.72623e-15
-1.54043e-09
-1.4357e-07
-1.68769e-15
-2.03417e-09
-1.38517e-07
-1.47418e-15
-2.53538e-09
-1.32153e-07
-1.41104e-15
-3.03788e-09
-1.24406e-07
-1.33272e-15
-3.53486e-09
-1.15212e-07
-1.25347e-15
-4.01918e-09
-1.04509e-07
-1.17379e-15
-4.48375e-09
-9.22463e-08
-1.09495e-15
-4.92214e-09
-7.83758e-08
-1.01338e-15
-5.32908e-09
-6.28654e-08
-9.30262e-16
-5.70061e-09
-4.56898e-08
-8.4304e-16
-6.03185e-09
-2.68294e-08
-7.49435e-16
-6.31563e-09
-6.30216e-09
-6.53229e-16
-6.52774e-09
1.58935e-08
-5.61115e-16
-6.64442e-09
3.96675e-08
-4.74057e-16
-6.66771e-09
6.48067e-08
-3.94291e-16
-6.60306e-09
9.10617e-08
-3.21469e-16
-6.457e-09
1.18198e-07
-2.54676e-16
-6.23369e-09
1.45761e-07
-1.79148e-16
-5.9354e-09
1.73365e-07
-1.75703e-16
-5.56435e-09
2.00379e-07
-1.82725e-16
-5.12369e-09
2.26101e-07
-1.29292e-16
-4.61836e-09
2.49696e-07
-8.98341e-17
-4.05637e-09
2.69941e-07
-4.08163e-17
-3.4491e-09
2.85528e-07
-8.51973e-17
-2.8121e-09
2.94805e-07
-4.89403e-17
-2.16613e-09
2.95662e-07
-2.50899e-17
-1.53785e-09
2.85559e-07
-4.78607e-18
-9.60642e-10
2.61436e-07
2.20638e-17
-4.75981e-10
2.1937e-07
-3.08698e-17
-1.34674e-10
1.54635e-07
-2.75588e-17
6.11222e-08
-2.68632e-17
1.24601e-11
-7.00815e-09
5.37896e-16
7.56596e-11
-2.12898e-08
-2.59818e-15
2.68818e-10
-3.73596e-08
-7.7627e-15
-1.1817e-10
-4.82058e-08
-2.23354e-14
5.00578e-10
-6.86654e-08
1.33762e-15
1.35883e-09
-8.95018e-08
-5.2715e-15
1.9212e-09
-7.91547e-08
6.11861e-16
2.06954e-09
-7.64737e-08
-2.43341e-15
2.24791e-09
-8.7534e-08
-4.30471e-15
2.38629e-09
-9.64628e-08
-3.96249e-15
2.47589e-09
-1.02079e-07
-3.861e-15
2.54405e-09
-1.04931e-07
-3.62813e-15
2.61564e-09
-1.06634e-07
-3.38458e-15
2.6818e-09
-1.08741e-07
-3.19247e-15
2.71886e-09
-1.11919e-07
-3.0342e-15
2.70921e-09
-1.16132e-07
-3.03106e-15
2.64522e-09
-1.21058e-07
-2.55158e-15
2.52679e-09
-1.26304e-07
-2.56797e-15
2.35792e-09
-1.31517e-07
-2.4647e-15
2.14399e-09
-1.36419e-07
-2.45264e-15
1.89008e-09
-1.40816e-07
-2.39166e-15
1.6001e-09
-1.44585e-07
-2.31427e-15
1.27684e-09
-1.47609e-07
-2.21709e-15
9.22068e-10
-1.4984e-07
-2.14305e-15
5.3702e-10
-1.51201e-07
-2.02562e-15
1.22807e-10
-1.51649e-07
-1.95791e-15
-3.19192e-10
-1.51124e-07
-1.88963e-15
-7.86977e-10
-1.49552e-07
-1.82478e-15
-1.27783e-09
-1.46896e-07
-1.76176e-15
-1.788e-09
-1.4306e-07
-1.71913e-15
-2.31284e-09
-1.37992e-07
-1.49697e-15
-2.84676e-09
-1.31619e-07
-1.43104e-15
-3.38333e-09
-1.2387e-07
-1.35023e-15
-3.9155e-09
-1.1468e-07
-1.26931e-15
-4.43593e-09
-1.03988e-07
-1.1887e-15
-4.93728e-09
-9.1745e-08
-1.10956e-15
-5.41269e-09
-7.79004e-08
-1.02818e-15
-5.8561e-09
-6.2422e-08
-9.4574e-16
-6.26202e-09
-4.52838e-08
-8.59806e-16
-6.62359e-09
-2.64678e-08
-7.68255e-16
-6.93129e-09
-5.99438e-09
-6.74403e-16
-7.16369e-09
1.61259e-08
-5.84296e-16
-7.29967e-09
3.98035e-08
-4.98281e-16
-7.3368e-09
6.48439e-08
-4.18163e-16
-7.27713e-09
9.1002e-08
-3.43678e-16
-7.12543e-09
1.18046e-07
-2.7458e-16
-6.88563e-09
1.45521e-07
-1.95336e-16
-6.56051e-09
1.7304e-07
-1.91671e-16
-6.15311e-09
1.99972e-07
-2.00508e-16
-5.66748e-09
2.25615e-07
-1.4203e-16
-5.10952e-09
2.49138e-07
-9.78796e-17
-4.4884e-09
2.6932e-07
-4.27814e-17
-3.81688e-09
2.84856e-07
-9.06289e-17
-3.11225e-09
2.94101e-07
-4.9165e-17
-2.39751e-09
2.94947e-07
-2.14133e-17
-1.70214e-09
2.84863e-07
2.3174e-18
-1.06312e-09
2.60797e-07
3.30825e-17
-5.26489e-10
2.18833e-07
-2.29182e-17
-1.48749e-10
1.54257e-07
-1.65838e-17
6.09735e-08
-1.36334e-17
1.28766e-11
-7.02103e-09
3.94012e-16
8.01069e-11
-2.1357e-08
-2.74167e-15
1.33987e-10
-3.74134e-08
-9.72668e-15
-2.23704e-10
-4.78481e-08
-2.14236e-14
3.98039e-10
-6.92871e-08
4.15977e-15
1.25574e-09
-9.03595e-08
-2.71948e-15
1.88353e-09
-7.97825e-08
-8.7905e-15
2.04684e-09
-7.66371e-08
-6.67883e-15
2.22053e-09
-8.77077e-08
-5.73385e-15
2.34846e-09
-9.65907e-08
-5.64291e-15
2.42816e-09
-1.02159e-07
-5.21347e-15
2.4861e-09
-1.04989e-07
-4.82733e-15
2.54633e-09
-1.06694e-07
-4.26404e-15
2.60096e-09
-1.08796e-07
-3.82559e-15
2.62861e-09
-1.11947e-07
-3.52296e-15
2.61247e-09
-1.16116e-07
-3.40369e-15
2.54468e-09
-1.2099e-07
-2.82046e-15
2.42417e-09
-1.26183e-07
-2.79352e-15
2.2538e-09
-1.31346e-07
-2.63767e-15
2.03779e-09
-1.36203e-07
-2.59271e-15
1.78021e-09
-1.40559e-07
-2.51125e-15
1.4842e-09
-1.44289e-07
-2.41072e-15
1.15201e-09
-1.47277e-07
-2.29735e-15
7.85056e-10
-1.49473e-07
-2.20903e-15
3.84449e-10
-1.50801e-07
-2.08099e-15
-4.8689e-11
-1.51216e-07
-2.00523e-15
-5.12839e-10
-1.5066e-07
-1.93051e-15
-1.00576e-09
-1.49059e-07
-1.86095e-15
-1.52441e-09
-1.46377e-07
-1.79385e-15
-2.06471e-09
-1.4252e-07
-1.74946e-15
-2.62161e-09
-1.37435e-07
-1.51779e-15
-3.18913e-09
-1.31052e-07
-1.45005e-15
-3.7605e-09
-1.23298e-07
-1.36723e-15
-4.3283e-09
-1.14112e-07
-1.28485e-15
-4.88483e-09
-1.03432e-07
-1.20339e-15
-5.42231e-09
-9.12075e-08
-1.12397e-15
-5.93332e-09
-7.73894e-08
-1.0427e-15
-6.41087e-09
-6.19445e-08
-9.60749e-16
-6.84806e-09
-4.48466e-08
-8.75757e-16
-7.23645e-09
-2.60795e-08
-7.85827e-16
-7.56501e-09
-5.66573e-09
-6.93806e-16
-7.81439e-09
1.63753e-08
-6.05166e-16
-7.96548e-09
3.99547e-08
-5.19891e-16
-8.01277e-09
6.48912e-08
-4.39427e-16
-7.95557e-09
9.09448e-08
-3.63536e-16
-7.79676e-09
1.17888e-07
-2.92506e-16
-7.5397e-09
1.45264e-07
-2.10445e-16
-7.18736e-09
1.72687e-07
-2.07957e-16
-6.74338e-09
1.99528e-07
-2.19771e-16
-6.21261e-09
2.25084e-07
-1.56875e-16
-5.60185e-09
2.48527e-07
-1.08667e-16
-4.92144e-09
2.68639e-07
-4.81246e-17
-4.18551e-09
2.8412e-07
-1.00126e-16
-3.41311e-09
2.93328e-07
-5.40802e-17
-2.62945e-09
2.94164e-07
-2.29421e-17
-1.86687e-09
2.84101e-07
3.99274e-18
-1.16591e-09
2.60096e-07
3.88973e-17
-5.77202e-10
2.18245e-07
-1.99758e-17
-1.62919e-10
1.53843e-07
-9.02582e-18
6.08105e-08
-2.79797e-18
1.34192e-11
-7.03444e-09
7.81936e-16
7.69295e-11
-2.14205e-08
-1.20725e-15
-9.13174e-12
-3.73274e-08
-1.30172e-14
-2.99483e-10
-4.75578e-08
-2.02509e-14
3.01969e-10
-6.98885e-08
2.91359e-15
1.15131e-09
-9.12089e-08
-3.59804e-15
1.81692e-09
-8.04481e-08
-5.8584e-15
1.99856e-09
-7.68187e-08
-7.57083e-15
2.1667e-09
-8.78758e-08
-7.33246e-15
2.28216e-09
-9.67062e-08
-7.21024e-15
2.34976e-09
-1.02227e-07
-6.57706e-15
2.39628e-09
-1.05035e-07
-6.02413e-15
2.44509e-09
-1.06743e-07
-5.15586e-15
2.48911e-09
-1.0884e-07
-4.47781e-15
2.50869e-09
-1.11966e-07
-3.99746e-15
2.48747e-09
-1.16094e-07
-3.73578e-15
2.41715e-09
-1.2092e-07
-3.05691e-15
2.29563e-09
-1.26062e-07
-3.00516e-15
2.12459e-09
-1.31175e-07
-2.78996e-15
1.9071e-09
-1.35986e-07
-2.71493e-15
1.64625e-09
-1.40298e-07
-2.63147e-15
1.34439e-09
-1.43987e-07
-2.51926e-15
1.00322e-09
-1.46936e-07
-2.39123e-15
6.23824e-10
-1.49093e-07
-2.2856e-15
2.07188e-10
-1.50384e-07
-2.14277e-15
-2.4554e-10
-1.50763e-07
-2.05553e-15
-7.32665e-10
-1.50173e-07
-1.97193e-15
-1.25166e-09
-1.4854e-07
-1.89622e-15
-1.79915e-09
-1.4583e-07
-1.82413e-15
-2.37059e-09
-1.41948e-07
-1.77584e-15
-2.9605e-09
-1.36845e-07
-1.53728e-15
-3.56245e-09
-1.3045e-07
-1.46785e-15
-4.1692e-09
-1.22692e-07
-1.38336e-15
-4.77287e-09
-1.13508e-07
-1.29976e-15
-5.36528e-09
-1.02839e-07
-1.21761e-15
-5.93812e-09
-9.06346e-08
-1.13796e-15
-6.48325e-09
-7.68442e-08
-1.05676e-15
-6.99276e-09
-6.1435e-08
-9.75138e-16
-7.45848e-09
-4.43809e-08
-8.90806e-16
-7.87072e-09
-2.56672e-08
-8.02156e-16
-8.21745e-09
-5.3189e-09
-7.11627e-16
-8.48086e-09
1.66388e-08
-6.24089e-16
-8.64338e-09
4.01173e-08
-5.3934e-16
-8.69737e-09
6.49453e-08
-4.58512e-16
-8.63996e-09
9.08874e-08
-3.81379e-16
-8.47224e-09
1.1772e-07
-3.08699e-16
-8.1968e-09
1.44988e-07
-2.23924e-16
-7.81655e-09
1.72307e-07
-2.23616e-16
-7.33552e-09
1.99047e-07
-2.39088e-16
-6.75927e-09
2.24508e-07
-1.72496e-16
-6.09546e-09
2.47863e-07
-1.20946e-16
-5.35554e-09
2.67899e-07
-5.56703e-17
-4.55502e-09