/*--------------------------------*- C++ -*----------------------------------*\
| =========                 |                                                 |
| \\      /  F ield         | OpenFOAM: The Open Source CFD Toolbox           |
|  \\    /   O peration     | Version:  v2012                                 |
|   \\  /    A nd           | Website:  www.openfoam.com                      |
|    \\/     M anipulation  |                                                 |
\*---------------------------------------------------------------------------*/
FoamFile
{
    version     2.0;
    format      ascii;
    class       surfaceScalarField;
    location    "0.25";
    object      phi;
}
// * * * * * * * * * * * * * * * * * * * * * * * * * * * * * * * * * * * * * //

dimensions      [0 3 -1 0 0 0 0];
oriented        oriented;


internalField   nonuniform List<scalar> 
8134
(
-3.31096e-10
-6.41461e-11
-1.95251e-14
-2.82439e-10
-4.8707e-11
-7.07696e-15
-2.44573e-10
-3.78326e-11
3.20546e-15
-2.14489e-10
-3.00012e-11
9.248e-15
-1.90179e-10
-2.42473e-11
7.28463e-15
-1.70196e-10
-1.99539e-11
3.639e-15
-1.53514e-10
-1.66912e-11
-8.88698e-16
-1.39391e-10
-1.418e-11
-6.25273e-15
-1.27256e-10
-1.22216e-11
-9.8355e-15
-1.16693e-10
-1.06781e-11
-1.3115e-14
-1.0737e-10
-9.44869e-12
-1.43745e-14
-9.9033e-11
-8.46328e-12
-1.43974e-14
-9.1482e-11
-7.66629e-12
-1.30405e-14
-8.45597e-11
-7.01563e-12
-1.08828e-14
-7.81517e-11
-6.47903e-12
-8.15417e-15
-7.21655e-11
-6.02929e-12
-5.02141e-15
-6.65381e-11
-5.64682e-12
-2.30668e-15
-6.12195e-11
-5.31475e-12
2.82185e-16
-5.61779e-11
-5.02088e-12
2.16219e-15
-5.13889e-11
-4.75439e-12
3.63287e-15
-4.68394e-11
-4.50726e-12
4.45938e-15
-4.25198e-11
-4.27313e-12
4.85425e-15
-3.84276e-11
-4.04606e-12
4.80709e-15
-3.45588e-11
-3.8253e-12
4.44132e-15
-3.09147e-11
-3.60593e-12
3.85219e-15
-2.74938e-11
-3.38957e-12
3.10047e-15
-2.42955e-11
-3.17454e-12
2.32368e-15
-2.13177e-11
-2.96207e-12
1.5185e-15
-1.85537e-11
-2.7556e-12
8.03799e-16
-1.59984e-11
-2.55399e-12
1.6818e-16
-1.36417e-11
-2.36125e-12
-3.58725e-16
-1.14734e-11
-2.17825e-12
-8.11636e-16
-9.48051e-12
-2.00668e-12
-1.08242e-15
-7.64967e-12
-1.84727e-12
-1.25174e-15
-5.96995e-12
-1.69756e-12
-1.29718e-15
-4.43448e-12
-1.55378e-12
-1.29819e-15
-3.04644e-12
-1.40612e-12
-1.2168e-15
-1.8257e-12
-1.23804e-12
-1.11203e-15
-8.19779e-13
-1.0223e-12
-9.97978e-16
-9.82979e-14
-7.36968e-13
-8.88495e-16
2.44404e-13
-3.578e-13
-8.28907e-16
2.05389e-13
2.36217e-14
-7.96274e-16
1.8985e-13
-8.12088e-16
-8.23776e-10
-1.94542e-10
-2.6018e-14
-7.18604e-10
-1.53975e-10
-1.18535e-14
-6.32632e-10
-1.23794e-10
8.51232e-16
-5.6188e-10
-1.00672e-10
9.33315e-15
-5.03023e-10
-8.3029e-11
8.54562e-15
-4.53585e-10
-6.93473e-11
5.32946e-15
-4.11574e-10
-5.86959e-11
6.57779e-16
-3.75482e-10
-5.03163e-11
-5.18392e-15
-3.44098e-10
-4.36851e-11
-9.27287e-15
-3.16491e-10
-3.83973e-11
-1.31229e-14
-2.91914e-10
-3.41516e-11
-1.47302e-14
-2.69779e-10
-3.07274e-11
-1.50212e-14
-2.49621e-10
-2.79439e-11
-1.37351e-14
-2.31068e-10
-2.56655e-11
-1.1588e-14
-2.13838e-10
-2.37825e-11
-8.74674e-15
-1.97708e-10
-2.22048e-11
-5.41334e-15
-1.82513e-10
-2.08625e-11
-2.49986e-15
-1.68127e-10
-1.96973e-11
3.16683e-16
-1.54461e-10
-1.86642e-11
2.36499e-15
-1.41454e-10
-1.77242e-11
3.99439e-15
-1.29068e-10
-1.6848e-11
4.90407e-15
-1.17279e-10
-1.60121e-11
5.35293e-15
-1.0608e-10
-1.51954e-11
5.29596e-15
-9.54632e-11
-1.43949e-11
4.90882e-15
-8.54348e-11
-1.35934e-11
4.25992e-15
-7.59936e-11
-1.27968e-11
3.42959e-15
-6.71426e-11
-1.19999e-11
2.57475e-15
-5.88806e-11
-1.12075e-11
1.6841e-15
-5.11939e-11
-1.0433e-11
8.94071e-16
-4.40737e-11
-9.67313e-12
1.93927e-16
-3.7497e-11
-8.94303e-12
-3.95942e-16
-3.14398e-11
-8.24642e-12
-9.0745e-16
-2.58719e-11
-7.58978e-12
-1.20819e-15
-2.0761e-11
-6.976e-12
-1.39453e-15
-1.60823e-11
-6.39579e-12
-1.43813e-15
-1.18218e-11
-5.83427e-12
-1.44558e-15
-7.99242e-12
-5.25508e-12
-1.35215e-15
-4.65367e-12
-4.59555e-12
-1.23536e-15
-1.93306e-12
-3.76066e-12
-1.10828e-15
-3.06527e-14
-2.65614e-12
-9.84713e-16
8.55269e-13
-1.26005e-12
-9.24907e-16
6.79945e-13
1.82321e-13
-8.89307e-16
8.53188e-13
-8.99837e-16
-1.14184e-09
-3.31461e-10
-2.00472e-14
-1.02295e-09
-2.72899e-10
-5.9413e-15
-9.20036e-10
-2.26669e-10
3.41279e-15
-8.31218e-10
-1.89401e-10
1.01303e-14
-7.54448e-10
-1.59725e-10
8.75769e-15
-6.87889e-10
-1.35862e-10
5.7641e-15
-6.29849e-10
-1.16727e-10
1.44225e-15
-5.78904e-10
-1.013e-10
-4.09966e-15
-5.33811e-10
-8.88497e-11
-8.0569e-15
-4.93545e-10
-7.87651e-11
-1.19367e-14
-4.57248e-10
-7.05674e-11
-1.36264e-14
-4.24206e-10
-6.38913e-11
-1.41166e-14
-3.93842e-10
-5.84208e-11
-1.30382e-14
-3.65683e-10
-5.3916e-11
-1.11151e-14
-3.39362e-10
-5.01749e-11
-8.45842e-15
-3.14582e-10
-4.70293e-11
-5.2803e-15
-2.9112e-10
-4.43444e-11
-2.47183e-15
-2.68808e-10
-4.20067e-11
2.88692e-16
-2.47525e-10
-3.99256e-11
2.29603e-15
-2.27189e-10
-3.80231e-11
3.93026e-15
-2.07754e-10
-3.62396e-11
4.83398e-15
-1.8919e-10
-3.45266e-11
5.29113e-15
-1.71496e-10
-3.28413e-11
5.24456e-15
-1.54666e-10
-3.11782e-11
4.88106e-15
-1.38717e-10
-2.9502e-11
4.25035e-15
-1.23655e-10
-2.78256e-11
3.42547e-15
-1.0949e-10
-2.61391e-11
2.5778e-15
-9.62285e-11
-2.44532e-11
1.68217e-15
-8.38547e-11
-2.27973e-11
8.9038e-16
-7.2361e-11
-2.1166e-11
1.86946e-16
-6.17173e-11
-1.95919e-11
-4.074e-16
-5.18913e-11
-1.80835e-11
-9.24626e-16
-4.28413e-11
-1.66552e-11
-1.23274e-15
-3.45216e-11
-1.53137e-11
-1.41953e-15
-2.68978e-11
-1.40393e-11
-1.46266e-15
-1.99526e-11
-1.27996e-11
-1.46892e-15
-1.37093e-11
-1.15181e-11
-1.37377e-15
-8.26215e-12
-1.00616e-11
-1.25393e-15
-3.80438e-12
-8.23631e-12
-1.12418e-15
-6.25631e-13
-5.85178e-12
-9.99622e-16
9.54866e-13
-2.85701e-12
-9.36523e-16
8.97288e-13
2.23146e-13
-9.00113e-16
1.7338e-12
-9.067e-16
-1.32847e-09
-4.5217e-10
-2.34181e-14
-1.21719e-09
-3.84241e-10
-7.54122e-15
-1.116e-09
-3.27814e-10
3.68212e-15
-1.02487e-09
-2.80427e-10
1.25974e-14
-9.43196e-10
-2.41285e-10
1.24257e-14
-8.70136e-10
-2.08835e-10
9.9906e-15
-8.04689e-10
-1.82122e-10
5.61843e-15
-7.45886e-10
-1.60104e-10
-2.59562e-16
-6.92775e-10
-1.41999e-10
-4.74852e-15
-6.44511e-10
-1.27105e-10
-9.22959e-15
-6.00338e-10
-1.14839e-10
-1.14479e-14
-5.59592e-10
-1.04743e-10
-1.24691e-14
-5.21719e-10
-9.63967e-11
-1.1853e-14
-4.86245e-10
-8.94738e-11
-1.0309e-14
-4.52797e-10
-8.36898e-11
-7.95736e-15
-4.21066e-10
-7.88018e-11
-5.04339e-15
-3.90821e-10
-7.46095e-11
-2.42063e-15
-3.61885e-10
-7.09417e-11
1.82968e-16
-3.34132e-10
-6.7658e-11
2.13725e-15
-3.07483e-10
-6.46368e-11
3.69295e-15
-2.81897e-10
-6.17838e-11
4.62829e-15
-2.57355e-10
-5.90218e-11
5.07204e-15
-2.33869e-10
-5.62819e-11
5.07653e-15
-2.11444e-10
-5.35576e-11
4.74065e-15
-1.90116e-10
-5.07913e-11
4.14148e-15
-1.69902e-10
-4.80063e-11
3.34014e-15
-1.5083e-10
-4.51874e-11
2.52215e-15
-1.32914e-10
-4.23539e-11
1.63774e-15
-1.16144e-10
-3.95573e-11
8.59136e-16
-1.0052e-10
-3.67896e-11
1.69316e-16
-8.60098e-11
-3.41077e-11
-4.18658e-16
-7.25778e-11
-3.15265e-11
-9.29025e-16
-6.01766e-11
-2.9072e-11
-1.2417e-15
-4.87519e-11
-2.67563e-11
-1.42674e-15
-3.82644e-11
-2.45463e-11
-1.47177e-15
-2.86962e-11
-2.23878e-11
-1.47587e-15
-2.00814e-11
-2.01525e-11
-1.38246e-15
-1.25443e-11
-1.76175e-11
-1.26244e-15
-6.33206e-12
-1.44663e-11
-1.13199e-15
-1.81121e-12
-1.03895e-11
-1.00843e-15
6.2314e-13
-5.30777e-12
-9.43134e-16
9.10377e-13
-8.07964e-14
-9.0688e-16
2.62755e-12
-9.12006e-16
-1.39983e-09
-5.38074e-10
-2.14736e-14
-1.31324e-09
-4.70859e-10
-5.43327e-15
-1.22881e-09
-4.12209e-10
3.76766e-15
-1.14822e-09
-3.60911e-10
1.17071e-14
-1.07249e-09
-3.16918e-10
1.13136e-14
-1.00198e-09
-2.79268e-10
9.48932e-15
-9.36662e-10
-2.47396e-10
5.90158e-15
-8.76268e-10
-2.20496e-10
7.43765e-16
-8.20371e-10
-1.97927e-10
-3.27158e-15
-7.68493e-10
-1.79047e-10
-7.51841e-15
-7.20139e-10
-1.63278e-10
-9.73418e-15
-6.74826e-10
-1.50151e-10
-1.09535e-14
-6.32123e-10
-1.39193e-10
-1.05907e-14
-5.9164e-10
-1.30033e-10
-9.41145e-15
-5.53063e-10
-1.22328e-10
-7.38136e-15
-5.16127e-10
-1.15777e-10
-4.76932e-15
-4.8063e-10
-1.10126e-10
-2.37313e-15
-4.46422e-10
-1.0515e-10
3.37734e-17
-4.13399e-10
-1.00663e-10
1.91474e-15
-3.81503e-10
-9.64999e-11
3.38897e-15
-3.50715e-10
-9.25322e-11
4.33923e-15
-3.21039e-10
-8.86531e-11
4.78945e-15
-2.92511e-10
-8.47668e-11
4.83846e-15
-2.65157e-10
-8.0868e-11
4.54864e-15
-2.39037e-10
-7.68745e-11
3.9807e-15
-2.14188e-10
-7.28239e-11
3.20881e-15
-1.90656e-10
-6.8696e-11
2.4322e-15
-1.68475e-10
-6.45214e-11
1.5665e-15
-1.47643e-10
-6.03798e-11
8.12022e-16
-1.28172e-10
-5.62607e-11
1.45192e-16
-1.10033e-10
-5.22517e-11
-4.26516e-16
-9.31938e-11
-4.83765e-11
-9.23287e-16
-7.76059e-11
-4.46754e-11
-1.2374e-15
-6.3211e-11
-4.11688e-11
-1.41933e-15
-4.9969e-11
-3.78077e-11
-1.46612e-15
-3.78638e-11
-3.45129e-11
-1.46804e-15
-2.69403e-11
-3.10955e-11
-1.37792e-15
-1.73482e-11
-2.72282e-11
-1.25902e-15
-9.37923e-12
-2.2453e-11
-1.12977e-15
-3.46099e-12
-1.63244e-11
-1.00798e-15
-5.13508e-14
-8.73371e-12
-9.41829e-16
7.68457e-13
-9.17186e-13
-9.07169e-16
3.37951e-12
-9.11698e-16
-1.40924e-09
-5.93714e-10
-1.90824e-14
-1.3475e-09
-5.32609e-10
-2.84243e-15
-1.28282e-09
-4.76823e-10
6.58259e-15
-1.21738e-09
-4.26221e-10
1.53307e-14
-1.15284e-09
-3.81324e-10
1.54244e-14
-1.0902e-09
-3.41782e-10
1.3909e-14
-1.03007e-09
-3.07436e-10
1.02908e-14
-9.72722e-10
-2.77802e-10
4.95961e-15
-9.18184e-10
-2.52459e-10
5.14733e-16
-8.66351e-10
-2.30911e-10
-4.2722e-15
-8.17026e-10
-2.12664e-10
-7.01496e-15
-7.69953e-10
-1.973e-10
-8.84732e-15
-7.24878e-10
-1.84348e-10
-9.02579e-15
-6.81544e-10
-1.73433e-10
-8.34368e-15
-6.39741e-10
-1.64187e-10
-6.73129e-15
-5.99282e-10
-1.56273e-10
-4.47209e-15
-5.60029e-10
-1.49399e-10
-2.33684e-15
-5.21881e-10
-1.43299e-10
-1.34346e-16
-4.8478e-10
-1.37749e-10
1.64131e-15
-4.48706e-10
-1.32544e-10
3.04661e-15
-4.13677e-10
-1.27526e-10
3.98762e-15
-3.79726e-10
-1.22561e-10
4.45656e-15
-3.46928e-10
-1.17526e-10
4.55618e-15
-3.15332e-10
-1.12422e-10
4.30816e-15
-2.85033e-10
-1.0714e-10
3.78128e-15
-2.5609e-10
-1.01737e-10
3.05987e-15
-2.28576e-10
-9.61878e-11
2.31873e-15
-2.02546e-10
-9.05385e-11
1.47912e-15
-1.78014e-10
-8.49025e-11
7.66554e-16
-1.55008e-10
-7.92673e-11
1.17954e-16
-1.33508e-10
-7.37571e-11
-4.34041e-16
-1.13488e-10
-6.84069e-11
-9.11416e-16
-9.49038e-11
-6.3275e-11
-1.22474e-15
-7.76977e-11
-5.83921e-11
-1.40212e-15
-6.18321e-11
-5.36925e-11
-1.45081e-15
-4.7295e-11
-4.90695e-11
-1.45007e-15
-3.41417e-11
-4.42678e-11
-1.36407e-15
-2.25442e-11
-3.88441e-11
-1.24721e-15
-1.28297e-11
-3.2185e-11
-1.12012e-15
-5.47451e-12
-2.3696e-11
-1.00065e-15
-9.8405e-13
-1.32403e-11
-9.3624e-16
5.09537e-13
-2.42717e-12
-9.00823e-16
3.87273e-12
-9.07231e-16
-1.36638e-09
-6.18546e-10
-1.58731e-14
-1.33136e-09
-5.67612e-10
4.85461e-17
-1.28917e-09
-5.18929e-10
8.13692e-15
-1.24215e-09
-4.73102e-10
1.59733e-14
-1.19234e-09
-4.30998e-10
1.56015e-14
-1.1412e-09
-3.92806e-10
1.42063e-14
-1.08979e-09
-3.58748e-10
1.09099e-14
-1.03885e-09
-3.28693e-10
6.07842e-15
-9.88815e-10
-3.02485e-10
1.99706e-15
-9.39912e-10
-2.79834e-10
-2.52866e-15
-8.92238e-10
-2.60386e-10
-5.23553e-15
-8.45776e-10
-2.43826e-10
-7.22355e-15
-8.00461e-10
-2.29731e-10
-7.6836e-15
-7.56195e-10
-2.17757e-10
-7.37155e-15
-7.1289e-10
-2.07542e-10
-6.10036e-15
-6.70462e-10
-1.98737e-10
-4.18774e-15
-6.28853e-10
-1.91028e-10
-2.32115e-15
-5.88032e-10
-1.84124e-10
-3.24229e-16
-5.47998e-10
-1.7777e-10
1.32562e-15
-5.08781e-10
-1.71733e-10
2.66882e-15
-4.70448e-10
-1.65828e-10
3.58652e-15
-4.33073e-10
-1.59897e-10
4.08165e-15
-3.96771e-10
-1.53793e-10
4.22848e-15
-3.61625e-10
-1.47528e-10
4.01288e-15
-3.27766e-10
-1.40967e-10
3.54596e-15
-2.95284e-10
-1.3419e-10
2.88921e-15
-2.64281e-10
-1.27171e-10
2.18659e-15
-2.34836e-10
-1.19971e-10
1.39545e-15
-2.06986e-10
-1.12744e-10
7.21552e-16
-1.80777e-10
-1.05477e-10
8.61007e-17
-1.56203e-10
-9.83367e-11
-4.39842e-16
-1.33249e-10
-9.1371e-11
-8.95061e-16
-1.11879e-10
-8.46603e-11
-1.2059e-15
-9.20396e-11
-7.82484e-11
-1.37824e-15
-7.36987e-11
-7.20522e-11
-1.42823e-15
-5.68504e-11
-6.59369e-11
-1.42494e-15
-4.15605e-11
-5.95764e-11
-1.34358e-15
-2.80194e-11
-5.24033e-11
-1.22966e-15
-1.65831e-11
-4.36384e-11
-1.10513e-15
-7.76749e-12
-3.25279e-11
-9.88299e-16
-2.12343e-12
-1.89002e-11
-9.25957e-16
1.61617e-13
-4.7284e-12
-8.89845e-16
4.01824e-12
-8.98654e-16
-1.30269e-09
-6.2137e-10
-1.83991e-14
-1.28873e-09
-5.81592e-10
-4.36242e-15
-1.2659e-09
-5.41719e-10
4.51723e-15
-1.2361e-09
-5.02784e-10
1.3958e-14
-1.20119e-09
-4.65778e-10
1.51114e-14
-1.16262e-09
-4.31252e-10
1.50915e-14
-1.12158e-09
-3.99681e-10
1.26793e-14
-1.07898e-09
-3.71219e-10
8.50022e-15
-1.03548e-09
-3.4594e-10
4.59043e-15
-9.9156e-10
-3.23753e-10
8.76442e-18
-9.47521e-10
-3.04451e-10
-2.95925e-15
-9.0355e-10
-2.87844e-10
-5.33748e-15
-8.59754e-10
-2.73581e-10
-6.22679e-15
-8.16185e-10
-2.61375e-10
-6.38561e-15
-7.72882e-10
-2.5089e-10
-5.47141e-15
-7.29866e-10
-2.41786e-10
-3.92279e-15
-6.8717e-10
-2.33744e-10
-2.32829e-15
-6.4484e-10
-2.26459e-10
-5.3144e-16
-6.02942e-10
-2.1966e-10
9.78148e-16
-5.61564e-10
-2.13088e-10
2.26604e-15
-5.20824e-10
-2.0654e-10
3.14846e-15
-4.80846e-10
-1.9984e-10
3.67975e-15
-4.41787e-10
-1.9282e-10
3.85694e-15
-4.03773e-10
-1.85506e-10
3.67992e-15
-3.66971e-10
-1.7774e-10
3.28201e-15
-3.31505e-10
-1.6963e-10
2.6947e-15
-2.9751e-10
-1.61146e-10
2.03882e-15
-2.65096e-10
-1.52374e-10
1.30294e-15
-2.34322e-10
-1.43511e-10
6.70808e-16
-2.05256e-10
-1.34544e-10
5.263e-17
-1.7791e-10
-1.25687e-10
-4.4679e-16
-1.52286e-10
-1.17006e-10
-8.7639e-16
-1.28357e-10
-1.08605e-10
-1.18277e-15
-1.06077e-10
-1.00544e-10
-1.34899e-15
-8.54247e-11
-9.27233e-11
-1.40021e-15
-6.64002e-11
-8.49802e-11
-1.39459e-15
-4.90795e-11
-7.69153e-11
-1.31815e-15
-3.36689e-11
-6.78315e-11
-1.20788e-15
-2.05477e-11
-5.67765e-11
-1.08661e-15
-1.02643e-11
-4.28273e-11
-9.73099e-16
-3.41271e-12
-2.57674e-11
-9.12395e-16
-2.4937e-13
-7.90766e-12
-8.77059e-16
3.75301e-12
-8.87391e-16
-1.22001e-09
-6.05095e-10
-1.36448e-14
-1.22483e-09
-5.76772e-10
-1.42716e-15
-1.21977e-09
-5.46715e-10
6.49836e-15
-1.20632e-09
-5.16101e-10
1.4956e-14
-1.18607e-09
-4.85889e-10
1.52671e-14
-1.16037e-09
-4.56823e-10
1.4901e-14
-1.13042e-09
-4.29531e-10
1.23674e-14
-1.09719e-09
-4.04375e-10
8.59461e-15
-1.06147e-09
-3.81614e-10
5.09946e-15
-1.02388e-09
-3.61333e-10
9.74272e-16
-9.84882e-10
-3.4347e-10
-1.76638e-15
-9.44806e-10
-3.27958e-10
-4.11894e-15
-9.03903e-10
-3.1453e-10
-5.13191e-15
-8.62353e-10
-3.02968e-10
-5.5674e-15
-8.20309e-10
-2.92975e-10
-4.92966e-15
-7.77894e-10
-2.84233e-10
-3.70485e-15
-7.35226e-10
-2.76432e-10
-2.3621e-15
-6.92431e-10
-2.69262e-10
-7.56359e-16
-6.49641e-10
-2.62444e-10
6.07302e-16
-6.07007e-10
-2.55703e-10
1.84742e-15
-5.64701e-10
-2.48822e-10
2.68417e-15
-5.22897e-10
-2.41613e-10
3.25272e-15
-4.818e-10
-2.3389e-10
3.44905e-15
-4.41575e-10
-2.25698e-10
3.3245e-15
-4.02433e-10
-2.16856e-10
2.99783e-15
-3.64533e-10
-2.07505e-10
2.48216e-15
-3.28044e-10
-1.97618e-10
1.87853e-15
-2.93108e-10
-1.873e-10
1.20149e-15
-2.59809e-10
-1.76803e-10
6.14031e-16
-2.28242e-10
-1.66111e-10
1.53471e-17
-1.9844e-10
-1.55495e-10
-4.52473e-16
-1.70421e-10
-1.45035e-10
-8.55619e-16
-1.44172e-10
-1.34868e-10
-1.15632e-15
-1.1966e-10
-1.25071e-10
-1.31611e-15
-9.68728e-11
-1.15529e-10
-1.36803e-15
-7.58195e-11
-1.06052e-10
-1.35998e-15
-5.65864e-11
-9.61662e-11
-1.28914e-15
-3.9393e-11
-8.50422e-11
-1.18262e-15
-2.46372e-11
-7.15487e-11
-1.06505e-15
-1.28954e-11
-5.45848e-11
-9.55228e-16
-4.80436e-12
-3.38738e-11
-8.96459e-16
-7.00556e-13
-1.20271e-11
-8.62695e-16
3.03688e-12
-8.72412e-16
-1.13402e-09
-2.51407e-15
-1.15244e-09
-1.69783e-15
-1.16126e-09
-5.37884e-10
4.97347e-16
-1.16144e-09
-5.15856e-10
7.83419e-15
-1.15413e-09
-4.93124e-10
9.47469e-15
-1.14038e-09
-4.70483e-10
1.1163e-14
-1.1212e-09
-4.48618e-10
1.04686e-14
-1.09751e-09
-4.27999e-10
8.30163e-15
-1.07007e-09
-4.09004e-10
5.75721e-15
-1.03954e-09
-3.91843e-10
2.20418e-15
-1.00645e-09
-3.76561e-10
-3.81591e-16
-9.71233e-10
-3.632e-10
-2.81367e-15
-9.34231e-10
-3.51568e-10
-4.01891e-15
-8.95719e-10
-3.41514e-10
-4.78077e-15
-8.55943e-10
-3.32787e-10
-4.44144e-15
-8.15111e-10
-3.25095e-10
-3.52425e-15
-7.73421e-10
-3.18143e-10
-2.41993e-15
-7.31069e-10
-3.11625e-10
-1.00051e-15
-6.88252e-10
-3.05259e-10
2.2174e-16
-6.45179e-10
-2.9876e-10
1.41161e-15
-6.02077e-10
-2.91905e-10
2.20408e-15
-5.59169e-10
-2.84494e-10
2.80159e-15
-5.16708e-10
-2.76328e-10
3.01202e-15
-4.74901e-10
-2.67476e-10
2.95696e-15
-4.33999e-10
-2.57735e-10
2.70064e-15
-3.94199e-10
-2.47284e-10
2.25753e-15
-3.55704e-10
-2.36096e-10
1.70963e-15
-3.1869e-10
-2.24306e-10
1.09325e-15
-2.83268e-10
-2.12218e-10
5.52755e-16
-2.49561e-10
-1.9982e-10
-2.20581e-17
-2.17623e-10
-1.87438e-10
-4.59637e-16
-1.87493e-10
-1.75175e-10
-8.33965e-16
-1.59175e-10
-1.632e-10
-1.12722e-15
-1.3265e-10
-1.51612e-10
-1.27973e-15
-1.07915e-10
-1.40281e-10
-1.33225e-15
-8.49922e-11
-1.28992e-10
-1.32236e-15
-6.39763e-11
-1.17199e-10
-1.25703e-15
-4.50985e-11
-1.03937e-10
-1.15477e-15
-2.87723e-11
-8.7891e-11
-1.04138e-15
-1.5598e-11
-6.77743e-11
-9.35943e-16
-6.25662e-12
-4.32302e-11
-8.79104e-16
-1.17876e-12
-1.71203e-11
-8.474e-16
1.84285e-12
-8.56214e-16
-1.0937e-09
-5.17433e-10
9.14146e-16
-1.1056e-09
-5.03884e-10
7.6079e-15
-1.10973e-09
-4.88915e-10
9.08485e-15
-1.10687e-09
-4.73252e-10
1.05499e-14
-1.09783e-09
-4.5757e-10
9.61385e-15
-1.0834e-09
-4.42371e-10
7.77659e-15
-1.06426e-09
-4.28092e-10
5.61213e-15
-1.04106e-09
-4.1502e-10
2.54958e-15
-1.01434e-09
-4.03278e-10
2.57548e-16
-9.84575e-10
-3.92988e-10
-2.03801e-15
-9.52154e-10
-3.8402e-10
-3.26314e-15
-9.1742e-10
-3.7628e-10
-4.18429e-15
-8.80682e-10
-3.69558e-10
-4.05178e-15
-8.42216e-10
-3.63589e-10
-3.3912e-15
-8.02284e-10
-3.58097e-10
-2.49687e-15
-7.61142e-10
-3.5278e-10
-1.25621e-15
-7.19044e-10
-3.47357e-10
-1.58527e-16
-6.76254e-10
-3.41539e-10
9.66996e-16
-6.33048e-10
-3.35096e-10
1.72705e-15
-5.89695e-10
-3.27823e-10
2.33312e-15
-5.46494e-10
-3.19509e-10
2.56275e-15
-5.03692e-10
-3.10251e-10
2.58618e-15
-4.6158e-10
-2.99827e-10
2.39733e-15
-4.20391e-10
-2.88453e-10
2.02567e-15
-3.80364e-10
-2.76109e-10
1.53531e-15
-3.41705e-10
-2.62958e-10
9.80462e-16
-3.04556e-10
-2.49361e-10
4.88041e-16
-2.69069e-10
-2.3531e-10
-6.12762e-17
-2.35319e-10
-2.21193e-10
-4.64792e-16
-2.03367e-10
-2.07137e-10
-8.10765e-16
-1.73237e-10
-1.93343e-10
-1.09614e-15
-1.44923e-10
-1.7994e-10
-1.24096e-15
-1.18438e-10
-1.66783e-10
-1.29339e-15
-9.3814e-11
-1.53634e-10
-1.28189e-15
-7.11548e-11
-1.39875e-10
-1.2221e-15
-5.07021e-11
-1.24406e-10
-1.12444e-15
-3.28818e-11
-1.05727e-10
-1.0159e-15
-1.83166e-11
-8.23544e-11
-9.14349e-16
-7.73344e-12
-5.38281e-11
-8.59684e-16
-1.66835e-12
-2.32003e-11
-8.29983e-16
1.59561e-13
-8.38273e-16
-1.02266e-09
-4.88476e-10
-3.11669e-15
-1.04375e-09
-4.82784e-10
1.34889e-15
-1.05731e-09
-4.75322e-10
3.25055e-15
-1.06383e-09
-4.66681e-10
6.1926e-15
-1.06387e-09
-4.57477e-10
6.83255e-15
-1.058e-09
-4.48183e-10
6.49116e-15
-1.04681e-09
-4.3924e-10
5.30805e-15
-1.03084e-09
-4.30962e-10
2.92805e-15
-1.01061e-09
-4.23506e-10
9.45998e-16
-9.86562e-10
-4.17044e-10
-1.25784e-15
-9.59122e-10
-4.11484e-10
-2.55351e-15
-9.28653e-10
-4.06774e-10
-3.64554e-15
-8.95505e-10
-4.02736e-10
-3.72067e-15
-8.59999e-10
-3.99124e-10
-3.29112e-15
-8.22441e-10
-3.95677e-10
-2.58679e-15
-7.83137e-10
-3.92099e-10
-1.51765e-15
-7.42388e-10
-3.88111e-10
-5.29507e-16
-7.00501e-10
-3.83418e-10
5.21147e-16
-6.57799e-10
-3.77788e-10
1.25759e-15
-6.14591e-10
-3.71012e-10
1.85418e-15
-5.71217e-10
-3.62869e-10
2.12922e-15
-5.27961e-10
-3.53484e-10
2.2196e-15
-4.85152e-10
-3.42619e-10
2.0938e-15
-4.43056e-10
-3.30531e-10
1.78953e-15
-4.01948e-10
-3.17205e-10
1.35865e-15
-3.62065e-10
-3.02836e-10
8.65545e-16
-3.23575e-10
-2.87845e-10
4.21741e-16
-2.86659e-10
-2.72228e-10
-9.80527e-17
-2.51418e-10
-2.56439e-10
-4.70584e-16
-2.17934e-10
-2.4063e-10
-7.87106e-16
-1.86251e-10
-2.2504e-10
-1.06283e-15
-1.5638e-10
-2.09826e-10
-1.19954e-15
-1.28347e-10
-1.94831e-10
-1.2518e-15
-1.02196e-10
-1.79801e-10
-1.23904e-15
-7.80408e-11
-1.64046e-10
-1.18512e-15
-5.61314e-11
-1.46331e-10
-1.09234e-15
-3.69047e-11
-1.24969e-10
-9.88579e-16
-2.10042e-11
-9.82695e-11
-8.9175e-16
-9.20471e-12
-6.56419e-11
-8.39237e-16
-2.15755e-12
-3.02621e-11
-8.11563e-16
-2.01257e-12
-8.1972e-16
-9.49525e-10
-4.52832e-10
-2.84212e-15
-9.78025e-10
-4.54267e-10
1.58812e-15
-9.9944e-10
-4.53872e-10
3.50047e-15
-1.01399e-09
-4.52076e-10
6.13175e-15
-1.02201e-09
-4.494e-10
6.34544e-15
-1.0239e-09
-4.46243e-10
6.04872e-15
-1.02009e-09
-4.4301e-10
5.01617e-15
-1.01102e-09
-4.40003e-10
2.98236e-15
-9.97132e-10
-4.37382e-10
1.20023e-15
-9.78848e-10
-4.35337e-10
-8.40895e-16
-9.56559e-10
-4.33794e-10
-2.10858e-15
-9.30634e-10
-4.32723e-10
-3.26734e-15
-9.01436e-10
-4.31961e-10
-3.46967e-15
-8.69309e-10
-4.31278e-10
-3.22304e-15
-8.34592e-10
-4.30418e-10
-2.67774e-15
-7.97621e-10
-4.29088e-10
-1.77465e-15
-7.58732e-10
-4.27007e-10
-8.81788e-16
-7.18271e-10
-4.23876e-10
7.97879e-17
-6.76595e-10
-4.19458e-10
8.03864e-16
-6.34048e-10
-4.13543e-10
1.39834e-15
-5.91006e-10
-4.059e-10
1.71568e-15
-5.47787e-10
-3.96684e-10
1.86292e-15
-5.04752e-10
-3.8564e-10
1.79503e-15
-4.622e-10
-3.73068e-10
1.55275e-15
-4.20435e-10
-3.5896e-10
1.18281e-15
-3.79724e-10
-3.43542e-10
7.50721e-16
-3.40265e-10
-3.27299e-10
3.56228e-16
-3.02264e-10
-3.10233e-10
-1.29671e-16
-2.65845e-10
-2.92863e-10
-4.73499e-16
-2.31115e-10
-2.75369e-10
-7.6201e-16
-1.98138e-10
-2.5803e-10
-1.02777e-15
-1.6694e-10
-2.41038e-10
-1.15633e-15
-1.37564e-10
-2.24223e-10
-1.20791e-15
-1.10065e-10
-2.07316e-10
-1.19423e-15
-8.45672e-11
-1.8956e-10
-1.14574e-15
-6.13267e-11
-1.69587e-10
-1.05786e-15
-4.07904e-11
-1.4552e-10
-9.59423e-16
-2.36219e-11
-1.15452e-10
-8.67445e-16
-1.06462e-11
-7.86316e-11
-8.17162e-16
-2.63724e-12
-3.82852e-11
-7.91526e-16
-4.66402e-12
-7.99484e-16
-8.7721e-10
-4.12657e-10
-7.00346e-15
-9.11185e-10
-4.20311e-10
-2.31178e-15
-9.38739e-10
-4.26313e-10
2.84925e-16
-9.59856e-10
-4.30928e-10
3.73331e-15
-9.74656e-10
-4.3456e-10
4.63745e-15
-9.83341e-10
-4.37514e-10
5.0885e-15
-9.86188e-10
-4.40125e-10
4.59942e-15
-9.83512e-10
-4.42649e-10
3.02904e-15
-9.75661e-10
-4.45222e-10
1.49671e-15
-9.62984e-10
-4.4802e-10
-4.16881e-16
-9.45832e-10
-4.50963e-10
-1.69816e-15
-9.24553e-10
-4.54022e-10
-2.92244e-15
-8.99501e-10
-4.57039e-10
-3.24526e-15
-8.71026e-10
-4.59781e-10
-3.16888e-15
-8.39477e-10
-4.61991e-10
-2.76364e-15
-8.05211e-10
-4.63373e-10
-2.00276e-15
-7.68588e-10
-4.6364e-10
-1.20584e-15
-7.29978e-10
-4.62486e-10
-3.24621e-16
-6.89765e-10
-4.59669e-10
3.84448e-16
-6.48324e-10
-4.54973e-10
9.77014e-16
-6.06056e-10
-4.4816e-10
1.32591e-15
-5.6331e-10
-4.39414e-10
1.52158e-15
-5.20476e-10
-4.28464e-10
1.5056e-15
-4.77878e-10
-4.15652e-10
1.32037e-15
-4.35851e-10
-4.00978e-10
1.01083e-15
-3.94687e-10
-3.84702e-10
6.39263e-16
-3.5461e-10
-3.67372e-10
2.96336e-16
-3.15851e-10
-3.48995e-10
-1.56348e-16
-2.78558e-10
-3.3016e-10
-4.76251e-16
-2.42861e-10
-3.11075e-10
-7.35696e-16
-2.08842e-10
-2.92062e-10
-9.90764e-16
-1.76546e-10
-2.73346e-10
-1.11104e-15
-1.46032e-10
-2.54752e-10
-1.16199e-15
-1.17367e-10
-2.35997e-10
-1.14781e-15
-9.06815e-11
-2.1626e-10
-1.10487e-15
-6.62406e-11
-1.94043e-10
-1.02236e-15
-4.44988e-11
-1.67276e-10
-9.29106e-16
-2.61392e-11
-1.33825e-10
-8.4188e-16
-1.20391e-11
-9.27452e-11
-7.94559e-16
-3.10065e-12
-4.72375e-11
-7.7066e-16
-7.77847e-12
-7.78798e-16
-8.06177e-10
-3.69239e-10
-8.17552e-15
-8.44268e-10
-3.8224e-10
-2.77387e-15
-8.76639e-10
-3.93934e-10
4.19878e-16
-9.03094e-10
-4.04438e-10
3.79941e-15
-9.23579e-10
-4.14035e-10
4.43471e-15
-9.38129e-10
-4.22921e-10
4.82837e-15
-9.46871e-10
-4.31345e-10
4.35643e-15
-9.49995e-10
-4.39496e-10
2.98297e-15
-9.47746e-10
-4.4746e-10
1.57394e-15
-9.40392e-10
-4.55377e-10
-2.06019e-16
-9.28227e-10
-4.63143e-10
-1.4464e-15
-9.11557e-10
-4.70711e-10
-2.66518e-15
-8.90713e-10
-4.77908e-10
-3.07067e-15
-8.66031e-10
-4.8449e-10
-3.12391e-15
-8.37859e-10
-4.90188e-10
-2.83637e-15
-8.06561e-10
-4.94692e-10
-2.19472e-15
-7.72506e-10
-4.97708e-10
-1.49616e-15
-7.36082e-10
-4.98913e-10
-6.80489e-16
-6.9769e-10
-4.98061e-10
-5.53613e-18
-6.57726e-10
-4.94929e-10
5.91179e-16
-6.16614e-10
-4.89268e-10
9.62393e-16
-5.74724e-10
-4.81291e-10
1.19863e-15
-5.32469e-10
-4.7071e-10
1.22733e-15
-4.90198e-10
-4.57911e-10
1.09672e-15
-4.48268e-10
-4.42901e-10
8.45042e-16
-4.06997e-10
-4.25971e-10
5.42551e-16
-3.6663e-10
-4.07735e-10
2.52465e-16
-3.27423e-10
-3.88206e-10
-1.82011e-16
-2.89546e-10
-3.68042e-10
-4.75424e-16
-2.53149e-10
-3.4748e-10
-7.08338e-16
-2.18334e-10
-3.26889e-10
-9.52436e-16
-1.85165e-10
-3.06527e-10
-1.06428e-15
-1.53715e-10
-2.86217e-10
-1.11426e-15
-1.24062e-10
-2.65665e-10
-1.10009e-15
-9.63457e-11
-2.4399e-10
-1.06217e-15
-7.08379e-11
-2.19565e-10
-9.84745e-16
-4.79997e-11
-1.90128e-10
-8.9695e-16
-2.85336e-11
-1.53305e-10
-8.1504e-16
-1.337e-11
-1.07922e-10
-7.70345e-16
-3.54313e-12
-5.70778e-11
-7.48442e-16
-1.1335e-11
-7.56618e-16
-7.37959e-10
-3.23976e-10
-5.95896e-15
-7.78786e-10
-3.41429e-10
-2.25035e-15
-8.14669e-10
-3.58046e-10
1.42695e-16
-8.45258e-10
-3.73821e-10
3.10464e-15
-8.70348e-10
-3.88914e-10
3.64861e-15
-8.89819e-10
-4.03413e-10
4.23396e-15
-9.03658e-10
-4.17471e-10
3.9867e-15
-9.11931e-10
-4.31195e-10
2.8745e-15
-9.14773e-10
-4.44604e-10
1.64902e-15
-9.12367e-10
-4.57785e-10
8.19231e-18
-9.04935e-10
-4.70587e-10
-1.20433e-15
-8.9273e-10
-4.82932e-10
-2.42809e-15
-8.76045e-10
-4.94616e-10
-2.91301e-15
-8.55192e-10
-5.0537e-10
-3.07662e-15
-8.30504e-10
-5.14901e-10
-2.8925e-15
-8.02338e-10
-5.22881e-10
-2.35714e-15
-7.71065e-10
-5.28995e-10
-1.7487e-15
-7.37078e-10
-5.32906e-10
-9.8778e-16
-7.0079e-10
-5.34354e-10
-3.57403e-16
-6.62607e-10
-5.33107e-10
2.42549e-16
-6.22969e-10
-5.28906e-10
6.25452e-16
-5.82263e-10
-5.21986e-10
8.94312e-16
-5.40919e-10
-5.12048e-10
9.63092e-16
-4.99306e-10
-4.99515e-10
8.85327e-16
-4.57799e-10
-4.84402e-10
6.87701e-16
-4.16737e-10
-4.67033e-10
4.52369e-16
-3.76384e-10
-4.48085e-10
2.09457e-16
-3.37017e-10
-4.27576e-10
-2.04088e-16
-2.98828e-10
-4.06236e-10
-4.7439e-16
-2.61984e-10
-3.84332e-10
-6.79996e-16
-2.26609e-10
-3.62275e-10
-9.1254e-16
-1.92782e-10
-3.40366e-10
-1.01631e-15
-1.60591e-10
-3.18421e-10
-1.06466e-15
-1.30127e-10
-2.96144e-10
-1.05061e-15
-1.01536e-10
-2.72595e-10
-1.01831e-15
-7.50954e-11
-2.46019e-10
-9.46493e-16
-5.12731e-11
-2.13963e-10
-8.64115e-16
-3.07898e-11
-1.73801e-10
-7.8783e-16
-1.46301e-11
-1.24094e-10
-7.45806e-16
-3.96194e-12
-6.77589e-11
-7.25924e-16
-1.53099e-11
-7.33882e-16
-6.72628e-10
-2.77784e-10
-5.18308e-15
-7.15218e-10
-2.98851e-10
-1.64141e-15
-7.5361e-10
-3.19644e-10
7.56168e-16
-7.87346e-10
-3.40053e-10
3.47905e-15
-8.16101e-10
-3.60125e-10
3.73561e-15
-8.39632e-10
-3.79846e-10
4.13642e-15
-8.57804e-10
-3.99266e-10
3.81452e-15
-8.70568e-10
-4.18404e-10
2.78531e-15
-8.77959e-10
-4.37201e-10
1.62965e-15
-8.80068e-10
-4.55676e-10
1.00909e-16
-8.77044e-10
-4.73622e-10
-1.05405e-15
-8.69081e-10
-4.9091e-10
-2.25662e-15
-8.56423e-10
-5.07296e-10
-2.78175e-15
-8.39348e-10
-5.22471e-10
-3.02398e-15
-8.18163e-10
-5.36112e-10
-2.92625e-15
-7.93212e-10
-5.47857e-10
-2.4887e-15
-7.64855e-10
-5.57369e-10
-1.96714e-15
-7.33483e-10
-5.64286e-10
-1.25679e-15
-6.9951e-10
-5.68333e-10
-6.74922e-16
-6.63349e-10
-5.69266e-10
-7.20569e-17
-6.25446e-10
-5.6681e-10
3.17048e-16
-5.862e-10
-5.61225e-10
6.10106e-16
-5.46053e-10
-5.52192e-10
7.15741e-16
-5.05386e-10
-5.40174e-10
6.88141e-16
-4.64591e-10
-5.25193e-10
5.4011e-16
-4.24021e-10
-5.07603e-10
3.65992e-16
-3.83958e-10
-4.88144e-10
1.66312e-16
-3.44698e-10
-4.6684e-10
-2.24596e-16
-3.06448e-10
-4.4449e-10
-4.69917e-16
-2.69396e-10
-4.21391e-10
-6.50618e-16
-2.33683e-10
-3.98e-10
-8.71526e-16
-1.99404e-10
-3.74656e-10
-9.67179e-16
-1.6666e-10
-3.51178e-10
-1.01419e-15
-1.35554e-10
-3.27263e-10
-1.00024e-15
-1.06241e-10
-3.01921e-10
-9.73112e-16
-7.9001e-11
-2.73272e-10
-9.0672e-16
-5.43076e-11
-2.38669e-10
-8.30079e-16
-3.28995e-11
-1.95221e-10
-7.58645e-16
-1.58148e-11
-1.41191e-10
-7.19531e-16
-4.35602e-12
-7.92301e-11
-7.01578e-16
-1.96785e-11
-7.09814e-16
-6.10983e-10
-2.31537e-10
-3.2628e-16
-6.54393e-10
-2.55432e-10
6.93184e-16
-6.94349e-10
-2.7967e-10
1.62408e-15
-7.30308e-10
-3.04063e-10
3.37628e-15
-7.61849e-10
-3.28556e-10
3.25302e-15
-7.88621e-10
-3.53041e-10
3.6187e-15
-8.10386e-10
-3.77472e-10
3.41167e-15
-8.26989e-10
-4.01775e-10
2.57589e-15
-8.38368e-10
-4.2581e-10
1.58477e-15
-8.44529e-10
-4.49514e-10
1.90708e-16
-8.45544e-10
-4.72617e-10
-9.07069e-16
-8.41542e-10
-4.94926e-10
-2.08872e-15
-8.32715e-10
-5.16144e-10
-2.64908e-15
-8.19298e-10
-5.35914e-10
-2.96005e-15
-8.01567e-10
-5.53868e-10
-2.93734e-15
-7.79841e-10
-5.69608e-10
-2.58865e-15
-7.54466e-10
-5.82763e-10
-2.1473e-15
-7.2582e-10
-5.92943e-10
-1.48896e-15
-6.94312e-10
-5.9985e-10
-9.50337e-16
-6.60355e-10
-6.03224e-10
-3.54612e-16
-6.24395e-10
-6.02775e-10
3.93036e-17
-5.86835e-10
-5.98779e-10
3.51385e-16
-5.48123e-10
-5.90902e-10
4.87012e-16
-5.08651e-10
-5.7964e-10
5.06722e-16
-4.68819e-10
-5.65023e-10
4.03592e-16
-4.28992e-10
-5.4743e-10
2.84185e-16
-3.89468e-10
-5.27666e-10
1.24116e-16
-3.50554e-10
-5.05758e-10
-2.41792e-16
-3.12476e-10
-4.82573e-10
-4.64374e-16
-2.75436e-10
-4.58437e-10
-6.20615e-16
-2.39592e-10
-4.33855e-10
-8.29525e-16
-2.05052e-10
-4.09206e-10
-9.17654e-16
-1.71935e-10
-3.84307e-10
-9.62896e-16
-1.40351e-10
-3.5886e-10
-9.49561e-16
-1.10462e-10
-3.31822e-10
-9.27351e-16
-8.25526e-11
-3.01194e-10
-8.66193e-16
-5.71003e-11
-2.64134e-10
-7.95494e-16
-3.48604e-11
-2.17473e-10
-7.2957e-16
-1.69236e-11
-1.5914e-10
-6.9316e-16
-4.72584e-12
-9.14399e-11
-6.77256e-16
-2.44163e-11
-6.85499e-16
-5.52934e-10
-1.85871e-10
-2.04093e-15
-5.96497e-10
-2.11865e-10
2.04871e-16
-6.37295e-10
-2.38856e-10
1.6751e-15
-6.74729e-10
-2.66598e-10
3.42047e-15
-7.08307e-10
-2.94948e-10
3.21037e-15
-7.376e-10
-3.23717e-10
3.48137e-15
-7.62279e-10
-3.52764e-10
3.24111e-15
-7.82104e-10
-3.81927e-10
2.46972e-15
-7.96923e-10
-4.10978e-10
1.53729e-15
-8.06663e-10
-4.39774e-10
2.37908e-16
-8.11321e-10
-4.67968e-10
-8.02614e-16