/*--------------------------------*- C++ -*----------------------------------*\
| =========                 |                                                 |
| \\      /  F ield         | OpenFOAM: The Open Source CFD Toolbox           |
|  \\    /   O peration     | Version:  v2012                                 |
|   \\  /    A nd           | Website:  www.openfoam.com                      |
|    \\/     M anipulation  |                                                 |
\*---------------------------------------------------------------------------*/
FoamFile
{
    version     2.0;
    format      ascii;
    class       surfaceScalarField;
    location    "1";
    object      phi;
}
// * * * * * * * * * * * * * * * * * * * * * * * * * * * * * * * * * * * * * //

dimensions      [0 3 -1 0 0 0 0];
oriented        oriented;


internalField   nonuniform List<scalar> 
6434
(
1.63151e-11
-8.98165e-10
1.45418e-15
1.23931e-10
-2.02368e-09
2.154e-15
2.83229e-10
-2.53442e-09
4.40892e-15
4.29314e-10
-2.36459e-09
7.41677e-16
-1.14455e-09
-4.67688e-15
-9.62961e-12
-8.88537e-10
1.09429e-15
-2.4379e-11
-2.00894e-09
2.53287e-15
-2.30886e-11
-2.5357e-09
5.39765e-15
-3.3002e-11
-2.35467e-09
5.64145e-15
-1.17754e-09
9.11732e-15
-7.02441e-12
-8.81507e-10
2.17022e-15
-3.33945e-12
-2.01261e-09
5.14478e-15
1.11248e-11
-2.55015e-09
4.31083e-15
3.57567e-11
-2.37927e-09
6.05191e-15
-1.14174e-09
5.40877e-15
-1.19044e-11
-8.69602e-10
1.83045e-15
-2.58671e-11
-1.99864e-09
4.88634e-15
-2.61524e-11
-2.54987e-09
3.78517e-15
-1.72826e-11
-2.38813e-09
4.21688e-15
-1.15901e-09
2.13e-15
-1.14918e-11
-8.58098e-10
3.41689e-15
-2.14412e-11
-1.98868e-09
6.03827e-15
-1.83675e-11
-2.55293e-09
5.62759e-15
-3.83835e-12
-2.40264e-09
5.2245e-15
-1.16284e-09
2.59065e-15
-1.29548e-11
-8.45138e-10
3.14476e-15
-2.60863e-11
-1.97554e-09
6.06276e-15
-2.54511e-11
-2.55357e-09
6.25765e-15
-1.36449e-11
-2.41444e-09
4.15632e-15
-1.17648e-09
9.79511e-16
-1.28412e-11
-8.32293e-10
3.25339e-15
-2.38063e-11
-1.96456e-09
8.68827e-15
-2.08927e-11
-2.55648e-09
7.3908e-15
-7.82678e-12
-2.42749e-09
6.90743e-15
-1.18429e-09
3.73732e-15
-1.34453e-11
-8.18849e-10
3.28231e-15
-2.47133e-11
-1.95329e-09
8.75671e-15
-2.26498e-11
-2.55855e-09
8.16674e-15
-1.12923e-11
-2.43885e-09
6.18919e-15
-1.19558e-09
1.85727e-15
-1.30242e-11
-8.05822e-10
4.43808e-15
-2.13375e-11
-1.94497e-09
1.09782e-14
-1.70261e-11
-2.56285e-09
1.17593e-14
-6.06239e-12
-2.4498e-09
8.30998e-15
-1.20163e-09
3.32749e-15
-1.30186e-11
-7.92805e-10
4.92177e-15
-1.93718e-11
-1.93861e-09
1.19456e-14
-1.52455e-11
-2.56698e-09
1.26673e-14
-6.87236e-12
-2.45818e-09
7.73329e-15
-1.20852e-09
1.05361e-15
-1.1954e-11
-7.80856e-10
5.52878e-15
-1.26054e-11
-1.93797e-09
1.43413e-14
-6.02281e-12
-2.57356e-09
1.62592e-14
1.54692e-13
-2.46435e-09
1.16536e-14
-1.20835e-09
4.84632e-15
-1.12409e-11
-7.69623e-10
6.67109e-15
-5.91671e-12
-1.9433e-09
1.7374e-14
2.72013e-13
-2.57976e-09
1.79564e-14
2.50955e-12
-2.46659e-09
1.17128e-14
-1.20584e-09
2.63255e-15
-9.14343e-12
-7.60481e-10
9.4388e-15
7.73042e-12
-1.96018e-09
2.36144e-14
1.62322e-11
-2.58826e-09
2.34047e-14
1.48793e-11
-2.46524e-09
1.42765e-14
-1.19097e-09
3.51847e-15
-9.36528e-12
-7.51119e-10
1.20914e-14
1.9169e-11
-1.98871e-09
3.00237e-14
2.42196e-11
-2.59332e-09
2.65703e-14
2.22008e-11
-2.46324e-09
1.46153e-14
-1.16879e-09
1.6131e-15
-6.37442e-12
-7.44746e-10
1.7609e-14
3.81089e-11
-2.03321e-09
3.96059e-14
5.11561e-11
-2.60638e-09
3.21938e-14
4.89164e-11
-2.46101e-09
1.70963e-14
-1.11989e-09
3.36866e-15
-4.18641e-11
-7.02888e-10
2.81669e-14
2.67933e-12
-2.07776e-09
5.34125e-14
1.57712e-11
-2.61948e-09
3.55375e-14
4.81886e-11
-2.49344e-09
1.75862e-14
-1.07171e-09
3.89352e-15
-4.02151e-11
-6.62674e-10
5.37652e-14
-5.41299e-11
-2.06386e-09
7.07763e-14
3.43574e-11
-2.70797e-09
3.79052e-14
8.53553e-11
-2.54447e-09
2.24249e-14
-9.86403e-10
1.61702e-14
-1.02813e-09
-7.89776e-10
1.82992e-13
-8.69924e-10
-2.27155e-09
8.56471e-14
-4.59554e-10
-3.11835e-09
3.86651e-14
-1.23548e-10
-2.88065e-09
4.83301e-15
-1.11033e-09
-2.65618e-14
-1.66227e-09
-1.11957e-09
5.37856e-14
-1.93775e-09
-2.82873e-09
-3.56836e-13
-1.18199e-09
-3.88547e-09
2.54693e-14
-4.68146e-10
-3.59407e-09
6.23234e-14
-1.5781e-09
1.31144e-14
-1.71746e-09
-1.38446e-09
-8.73128e-14
-1.55274e-09
-3.22648e-09
-1.77437e-12
-1.07462e-09
-4.53813e-09
-1.12543e-15
-5.20027e-10
-4.18656e-09
-5.53332e-14
-2.09807e-09
-2.6557e-14
-2.70142e-10
-1.34708e-09
1.82541e-12
-2.58603e-10
-3.27447e-09
-5.00579e-13
-2.17949e-10
-4.62963e-09
-1.14955e-12
-1.09329e-10
-4.38824e-09
-7.24143e-14
-2.21456e-09
-2.4121e-15
-1.03747e-10
-1.24336e-09
3.46529e-14
-1.20662e-10
-3.25755e-09
4.16322e-14
-1.70403e-10
-4.57988e-09
3.27264e-14
-7.16459e-11
-4.48797e-09
-1.91365e-14
-2.28878e-09
3.93696e-15
-2.08396e-11
-1.22253e-09
1.49437e-14
-2.33721e-11
-3.255e-09
4.41228e-14
-2.65909e-11
-4.57666e-09
4.01599e-14
-1.67843e-12
-4.51288e-09
2.52388e-14
-2.29045e-09
7.72965e-15
-1.65769e-11
-1.20597e-09
1.96725e-14
-1.99143e-11
-3.25166e-09
5.15003e-14
-2.44246e-11
-4.57214e-09
4.41643e-14
-7.2206e-12
-4.53009e-09
2.58531e-14
-2.29767e-09
6.89314e-15
-1.04442e-11
-1.19554e-09
2.37744e-14
-8.15292e-12
-3.25394e-09
6.08398e-14
-2.04973e-12
-4.57823e-09
4.96604e-14
3.29068e-12
-4.53542e-09
2.81967e-14
-2.29437e-09
8.58192e-15
-8.52648e-12
-1.18703e-09
2.83749e-14
-4.11319e-13
-3.26204e-09
7.23202e-14
7.52289e-12
-4.58616e-09
5.39451e-14
8.2447e-12
-4.53615e-09
2.76899e-14
-2.28613e-09
7.33919e-15
-8.26391e-12
-1.17878e-09
3.52615e-14
2.28636e-12
-3.27258e-09
8.88063e-14
1.02438e-11
-4.59411e-09
5.84458e-14
8.92565e-12
-4.53482e-09
2.8261e-14
-2.2772e-09
8.25586e-15
-4.56976e-12
-1.17422e-09
4.55469e-14
1.80787e-11
-3.29522e-09
1.10008e-13
3.21063e-11
-4.60814e-09
6.06697e-14
2.75403e-11
-4.53026e-09
2.51112e-14
-2.24966e-09
6.15097e-15
-9.95284e-12
-1.16426e-09
6.95879e-14
8.61565e-12
-3.31379e-09
1.36961e-13
1.68717e-11
-4.6164e-09
6.23168e-14
1.82242e-11
-4.53161e-09
2.14016e-14
-2.23143e-09
4.96839e-15
1.16068e-13
-1.16438e-09
1.32353e-13
4.04566e-11
-3.35413e-09
1.69614e-13
7.17321e-11
-4.64769e-09
5.64999e-14
7.04628e-11
-4.53035e-09
1.4921e-14
-2.16098e-09
2.24375e-15
-6.71221e-11
-1.09726e-09
3.0513e-13
-7.97133e-11
-3.34153e-09
1.96516e-13
-6.69516e-11
-4.66045e-09
4.53611e-14
-1.35051e-11
-4.58379e-09
9.93051e-15
-2.17449e-09
2.50257e-15
3.08599e-11
-1.1369e-09
6.06677e-13
2.29605e-11
-3.33365e-09
1.8574e-13
1.38222e-10
-4.77572e-09
2.67833e-14
1.65316e-10
-4.6109e-09
2.61411e-15
-2.00919e-09
-1.87251e-15
-1.39276e-09
-1.31387e-09
-8.09961e-12
-1.38502e-09
-3.57665e-09
-4.88763e-13
-9.55907e-10
-5.20481e-09
7.53275e-15
-4.70302e-10
-5.09649e-09
-2.15514e-15
-2.47946e-09
-9.46441e-15
-5.66024e-11
-1.52592e-14
-6.42141e-10
3.00332e-14
-3.90724e-10
7.15859e-15
-4.79102e-11
8.54578e-15
2.0172e-14
-6.0284e-11
-6.06021e-12
6.33248e-17
-5.48432e-11
-5.44084e-12
6.2876e-17
-4.99328e-11
-4.91041e-12
6.33598e-17
-4.548e-11
-4.45297e-12
6.31356e-17
-4.14238e-11
-4.05609e-12
6.08789e-17
-3.77139e-11
-3.70967e-12
5.96887e-17
-3.43079e-11
-3.40597e-12
5.56034e-17
-3.11689e-11
-3.13876e-12
5.47952e-17
-2.82665e-11
-2.90258e-12
5.25781e-17
-2.55711e-11
-2.69513e-12
4.95602e-17
-2.30596e-11
-2.51158e-12
4.92494e-17
-2.07087e-11
-2.35077e-12
5.39184e-17
-1.84991e-11
-2.20949e-12
4.39779e-17
-1.64134e-11
-2.08581e-12
6.083e-17
-1.44344e-11
-1.97884e-12
4.12789e-17
-1.25497e-11
-1.88468e-12
3.8599e-17
-1.07477e-11
-1.80186e-12
3.64723e-17
-9.02123e-12
-1.72638e-12
3.4291e-17
-7.36702e-12
-1.65414e-12
3.21019e-17
-5.78707e-12
-1.57983e-12
2.91909e-17
-4.29199e-12
-1.49499e-12
2.25409e-17
-2.90189e-12
-1.39e-12
2.49381e-17
-1.65047e-12
-1.2513e-12
2.29176e-17
-5.8703e-13
-1.06334e-12
2.07837e-17
2.18885e-13
-8.05804e-13
1.42032e-17
6.91046e-13
-4.72065e-13
1.92753e-17
7.50698e-13
-5.95518e-14
1.22716e-17
4.35202e-13
3.15588e-13
1.31018e-17
4.35306e-13
7.38602e-18
-1.74073e-10
-2.29056e-11
1.82683e-16
-1.58868e-10
-2.06464e-11
1.81353e-16
-1.45078e-10
-1.87003e-11
1.80087e-16
-1.32518e-10
-1.70133e-11
1.73814e-16
-1.21031e-10
-1.55433e-11
1.54183e-16
-1.10485e-10
-1.42552e-11
1.61712e-16
-1.00768e-10
-1.31222e-11
1.38298e-16
-9.17844e-11
-1.21224e-11
1.46158e-16
-8.34511e-11
-1.12364e-11
1.4337e-16
-7.56892e-11
-1.04566e-11
1.39017e-16
-6.84359e-11
-9.76507e-12
1.31371e-16
-6.16282e-11
-9.15818e-12
1.33142e-16
-5.52138e-11
-8.62392e-12
1.11489e-16
-4.91448e-11
-8.15516e-12
1.15416e-16
-4.33743e-11
-7.74901e-12
1.10939e-16
-3.78688e-11
-7.39026e-12
1.02414e-16
-3.2597e-11
-7.07357e-12
9.559e-17
-2.75397e-11
-6.78347e-12
8.87768e-17
-2.26895e-11
-6.50437e-12
8.23508e-17
-1.80533e-11
-6.21588e-12
7.29667e-17
-1.36626e-11
-5.88569e-12
6.65451e-17
-9.57506e-12
-5.47743e-12
6.19478e-17
-5.88482e-12
-4.94141e-12
5.55295e-17
-2.72931e-12
-4.21875e-12
4.88074e-17
-2.93085e-13
-3.2419e-12
3.03835e-17
1.21735e-12
-1.98241e-12
4.59065e-17
1.61957e-12
-4.61662e-13
2.66813e-17
9.90865e-13
9.44389e-13
2.27466e-17
1.42628e-12
1.05664e-17
-2.79491e-10
-4.88761e-11
3.08049e-16
-2.55899e-10
-4.42385e-11
2.95983e-16
-2.34383e-10
-4.0217e-11
2.91933e-16
-2.14686e-10
-3.67108e-11
2.84154e-16
-1.96589e-10
-3.36398e-11
2.73064e-16
-1.79907e-10
-3.09369e-11
2.63691e-16
-1.64479e-10
-2.85504e-11
2.36096e-16
-1.50163e-10
-2.64374e-11
2.37634e-16
-1.36841e-10
-2.45591e-11
2.33149e-16
-1.24395e-10
-2.29021e-11
2.23275e-16
-1.12732e-10
-2.14291e-11
2.13042e-16
-1.01755e-10
-2.01339e-11
2.04094e-16
-9.13879e-11
-1.89915e-11
1.92387e-16
-8.15564e-11
-1.7987e-11
1.85171e-16
-7.21894e-11
-1.71155e-11
1.82117e-16
-6.32363e-11
-1.63436e-11
1.70442e-16
-5.46494e-11
-1.56602e-11
1.54203e-16
-4.6401e-11
-1.50318e-11
1.4421e-16
-3.84809e-11
-1.44245e-11
1.31958e-16
-3.09022e-11
-1.37944e-11
1.10649e-16
-2.37162e-11
-1.30717e-11
1.10174e-16
-1.70154e-11
-1.21781e-11
9.74732e-17
-1.0948e-11
-1.10087e-11
8.80737e-17
-5.7282e-12
-9.43846e-12
8.26339e-17
-1.63724e-12
-7.33299e-12
2.69297e-17
1.01031e-12
-4.62993e-12
9.21307e-17
1.95438e-12
-1.40562e-12
4.09961e-17
1.29401e-12
1.60484e-12
4.12665e-17
2.7204e-12
1.40197e-17
-3.75444e-10
-8.21566e-11
4.29627e-16
-3.44981e-10
-7.47018e-11
4.17528e-16
-3.1701e-10
-6.81881e-11
4.06196e-16
-2.91251e-10
-6.24711e-11
3.92271e-16
-2.67456e-10
-5.74341e-11
3.78808e-16
-2.45415e-10
-5.29776e-11
3.64833e-16
-2.2494e-10
-4.90249e-11
3.49352e-16
-2.05865e-10
-4.55114e-11
3.37659e-16
-1.88049e-10
-4.23771e-11
3.22356e-16
-1.71346e-10
-3.96042e-11
3.0832e-16
-1.55643e-10
-3.71324e-11
2.94402e-16
-1.40822e-10
-3.49544e-11
2.81059e-16
-1.26784e-10
-3.30293e-11
2.67224e-16
-1.13439e-10
-3.13331e-11
2.63663e-16
-1.00694e-10
-2.98593e-11
2.70872e-16
-8.84879e-11
-2.85504e-11
2.59121e-16
-7.67592e-11
-2.73886e-11
2.13242e-16
-6.54743e-11
-2.63165e-11
2.05493e-16
-5.46225e-11
-2.52764e-11
1.81671e-16
-4.42237e-11
-2.4193e-11
1.64548e-16
-3.43482e-11
-2.29472e-11
1.51745e-16
-2.51202e-11
-2.1406e-11
1.3424e-16
-1.67356e-11
-1.93932e-11
1.2035e-16
-9.47526e-12
-1.66987e-11
1.31595e-16
-3.70265e-12
-1.31055e-11
7.64165e-17
1.77376e-13
-8.50987e-12
8.29152e-17
1.84354e-12
-3.07168e-12
5.3996e-17
1.39448e-12
2.05391e-12
7.80166e-17
4.11499e-12
1.86383e-17
-4.61287e-10
-1.20902e-10
5.4902e-16
-4.25509e-10
-1.1048e-10
5.32014e-16
-3.92402e-10
-1.01296e-10
5.16041e-16
-3.61701e-10
-9.31736e-11
5.00264e-16
-3.33165e-10
-8.59693e-11
4.82328e-16
-3.06584e-10
-7.95574e-11
4.64447e-16
-2.81769e-10
-7.38405e-11
4.46607e-16
-2.58544e-10
-6.87354e-11
4.45623e-16
-2.3676e-10
-6.4163e-11
4.10948e-16
-2.16258e-10
-6.01046e-11
3.9259e-16
-1.96916e-10
-5.64757e-11
3.74263e-16
-1.78599e-10
-5.32706e-11
3.58298e-16
-1.61198e-10
-5.04309e-11
3.4022e-16
-1.44608e-10
-4.79238e-11
3.32562e-16
-1.28724e-10
-4.57418e-11
3.35825e-16
-1.13476e-10
-4.37993e-11
3.20787e-16
-9.87934e-11
-4.20708e-11
2.72266e-16
-8.46392e-11
-4.04705e-11
2.50324e-16
-7.10041e-11
-3.89117e-11
2.3041e-16
-5.79152e-11
-3.72817e-11
2.11226e-16
-4.54608e-11
-3.54016e-11
1.92361e-16
-3.37936e-11
-3.3073e-11
1.67597e-16
-2.31516e-11
-3.0035e-11
1.50763e-16
-1.38731e-11
-2.59774e-11
1.0249e-16
-6.39142e-12
-2.0587e-11
1.06295e-16
-1.18495e-12
-1.37162e-11
9.14229e-17
1.36007e-12
-5.61658e-12
6.59986e-17
1.33237e-12
2.08167e-12
5.98619e-17
5.44747e-12
2.49625e-17
-5.36772e-10
-1.63348e-10
6.67225e-16
-4.97192e-10
-1.50061e-10
6.44153e-16
-4.60245e-10
-1.38243e-10
6.25444e-16
-4.25718e-10
-1.27703e-10
6.00961e-16
-3.93404e-10
-1.18284e-10
5.84224e-16
-3.63115e-10
-1.09844e-10
5.6263e-16
-3.3468e-10
-1.02276e-10
5.36293e-16
-3.07931e-10
-9.5483e-11
5.20271e-16
-2.82725e-10
-8.93709e-11
4.97561e-16
-2.58902e-10
-8.39263e-11
4.7586e-16
-2.36338e-10
-7.90411e-11
4.48169e-16
-2.14892e-10
-7.47152e-11
4.33184e-16
-1.9445e-10
-7.08732e-11
4.12127e-16
-1.74901e-10
-6.74736e-11
3.9231e-16
-1.56132e-10
-6.45101e-11
3.74605e-16
-1.38066e-10
-6.18656e-11
3.54703e-16
-1.2063e-10
-5.95072e-11
3.30404e-16
-1.03784e-10
-5.73161e-11
3.00975e-16
-8.75219e-11
-5.51736e-11
2.79155e-16
-7.18792e-11
-5.29241e-11
2.55521e-16
-5.69609e-11
-5.03199e-11
2.31703e-16
-4.29452e-11
-4.70887e-11
2.04647e-16
-3.01064e-11
-4.28737e-11
1.82433e-16
-1.88322e-11
-3.72514e-11
1.49257e-16
-9.61618e-12
-2.98029e-11
1.29097e-16
-3.00181e-12
-2.03305e-11
1.07846e-16
5.65925e-13
-9.18422e-12
7.7305e-17
1.13979e-12
1.50788e-12
6.49884e-17
6.58736e-12
2.34901e-17
-6.01986e-10
-2.07885e-10
7.82371e-16
-5.60008e-10
-1.9204e-10
7.61106e-16
-5.20448e-10
-1.77803e-10
7.3321e-16
-4.83164e-10
-1.64989e-10
7.04818e-16
-4.48004e-10
-1.53443e-10
6.83988e-16
-4.14824e-10
-1.43023e-10
6.59356e-16
-3.83482e-10
-1.33618e-10
6.33328e-16
-3.53836e-10
-1.25128e-10
6.02996e-16
-3.25758e-10
-1.17451e-10
5.8296e-16
-2.99097e-10
-1.10586e-10
5.58035e-16
-2.73737e-10
-1.04402e-10
5.32132e-16
-2.4954e-10
-9.89116e-11
5.08622e-16
-2.26391e-10
-9.40223e-11
4.83119e-16
-2.04179e-10
-8.96864e-11
4.58163e-16
-1.82787e-10
-8.5901e-11
4.33848e-16
-1.62138e-10
-8.2515e-11
4.09547e-16
-1.42156e-10
-7.94889e-11
3.81703e-16
-1.22804e-10
-7.66682e-11
3.52767e-16
-1.04079e-10
-7.38988e-11
3.29557e-16
-8.60243e-11
-7.09784e-11
2.99065e-16
-6.87609e-11
-6.75834e-11
2.67523e-16
-5.24895e-11
-6.33602e-11
2.36958e-16
-3.75159e-11
-5.7847e-11
2.13457e-16
-2.42704e-11
-5.04969e-11
1.82427e-16
-1.32982e-11
-4.0775e-11
1.43144e-16
-5.20165e-12
-2.84269e-11
1.24885e-16
-4.85771e-13
-1.39e-11
8.97311e-17
8.42627e-13
1.79559e-13
7.59697e-17
7.4301e-12
2.49359e-17
-6.57282e-10
-2.5311e-10
8.90819e-16
-6.1416e-10
-2.35163e-10
8.6593e-16
-5.73103e-10
-2.1886e-10
8.3841e-16
-5.34053e-10
-2.04041e-10
8.10726e-16
-4.96926e-10
-1.9057e-10
7.78088e-16
-4.61632e-10
-1.78316e-10
7.53861e-16
-4.28074e-10
-1.67177e-10
7.24395e-16
-3.9614e-10
-1.57061e-10
6.95577e-16
-3.65731e-10
-1.47863e-10
6.67168e-16
-3.36712e-10
-1.39602e-10
6.38546e-16
-3.08983e-10
-1.32132e-10
6.10044e-16
-2.82414e-10
-1.2548e-10
5.88356e-16
-2.56896e-10
-1.1954e-10
5.53074e-16
-2.32323e-10
-1.14261e-10
5.24267e-16
-2.08577e-10
-1.09645e-10
4.97285e-16
-1.85586e-10
-1.05507e-10
4.68091e-16
-1.63273e-10
-1.01801e-10
4.35631e-16
-1.41605e-10
-9.83357e-11
4.0587e-16
-1.20586e-10
-9.49189e-11
3.72738e-16
-1.00265e-10
-9.12987e-11
3.41851e-16
-8.07785e-11
-8.707e-11
3.10087e-16
-6.23467e-11
-8.17921e-11
2.72206e-16
-4.53026e-11
-7.48909e-11
2.43839e-16
-3.01124e-11
-6.56869e-11
2.08282e-16
-1.73668e-11
-5.35207e-11
1.38241e-16
-7.7229e-12
-3.80708e-11
1.41898e-16
-1.74993e-12
-1.98729e-11
1.03651e-16
4.61568e-13
-2.03184e-12
7.22999e-17
7.89177e-12
2.83254e-17
-7.0321e-10
-2.97847e-10
1.00039e-15
-6.60024e-10
-2.7835e-10
9.701e-16
-6.18454e-10
-2.6043e-10
9.4091e-16
-5.78529e-10
-2.43968e-10
9.10358e-16
-5.40239e-10
-2.2886e-10
8.78192e-16
-5.03554e-10
-2.14998e-10
8.4636e-16
-4.68428e-10
-2.02303e-10
8.1194e-16
-4.34789e-10
-1.90698e-10
7.81756e-16
-4.0257e-10
-1.80084e-10
7.48851e-16
-3.71662e-10
-1.70509e-10
7.17659e-16
-3.41983e-10
-1.61813e-10
6.8528e-16
-3.13417e-10
-1.54045e-10
6.55046e-16
-2.85867e-10
-1.4709e-10
6.21271e-16
-2.59235e-10
-1.40894e-10
5.89341e-16
-2.33407e-10
-1.35471e-10
5.68568e-16
-2.08317e-10
-1.30598e-10
5.25906e-16
-1.83892e-10
-1.26226e-10
4.89031e-16
-1.60103e-10
-1.22124e-10
4.5257e-16
-1.3696e-10
-1.18062e-10
4.14758e-16
-1.14522e-10
-1.13736e-10
3.83771e-16
-9.29373e-11
-1.08655e-10
3.49208e-16
-7.24427e-11
-1.02287e-10
3.12102e-16
-5.33945e-11
-9.39388e-11
2.73709e-16
-3.62897e-11
-8.27916e-11
2.33623e-16
-2.17591e-11
-6.80513e-11
1.878e-16
-1.0512e-11
-4.93178e-11
1.60428e-16
-3.18846e-12
-2.71963e-11
1.15829e-16
1.58071e-15
-5.22179e-12
8.0056e-17
7.89345e-12
3.47957e-17
-7.40453e-10
-3.41151e-10
1.10868e-15
-6.98099e-10
-3.20704e-10
1.07386e-15
-6.56856e-10
-3.01674e-10
1.04035e-15
-6.16835e-10
-2.83991e-10
1.00664e-15
-5.78099e-10
-2.67596e-10
9.7225e-16
-5.4068e-10
-2.52415e-10
9.36167e-16
-5.04585e-10
-2.38399e-10
8.84762e-16
-4.69786e-10
-2.25496e-10
8.64833e-16
-4.36252e-10
-2.13621e-10
8.2389e-16
-4.03902e-10
-2.02857e-10
7.94228e-16
-3.72677e-10
-1.93039e-10
7.59017e-16
-3.42481e-10
-1.84241e-10
7.3052e-16
-3.1323e-10
-1.76341e-10
6.89039e-16
-2.84838e-10
-1.69288e-10
6.52976e-16
-2.57199e-10
-1.63109e-10
6.43277e-16
-2.30253e-10
-1.57544e-10
5.81967e-16
-2.03934e-10
-1.52544e-10
5.41323e-16
-1.7822e-10
-1.47838e-10
5.00837e-16
-1.53128e-10
-1.43155e-10
4.62529e-16
-1.28723e-10
-1.3814e-10
4.2463e-16
-1.05167e-10
-1.32212e-10
3.86859e-16
-8.27091e-11
-1.24744e-10
3.5549e-16
-6.17259e-11
-1.14922e-10
3.02731e-16
-4.27404e-11
-1.01777e-10
2.51034e-16
-2.6419e-11
-8.43726e-11
2.23839e-16
-1.35225e-11
-6.22142e-11
1.79861e-16
-4.76837e-12
-3.59504e-11
1.26837e-16
-4.86322e-13
-9.50375e-12
9.80077e-17
7.40723e-12
3.3687e-17
-7.6977e-10
-3.82295e-10
1.21062e-15
-7.28967e-10
-3.61509e-10
1.17184e-15
-6.88744e-10
-3.41897e-10
1.13636e-15
-6.4929e-10
-3.23448e-10
1.10029e-15
-6.10733e-10
-3.06154e-10
1.0669e-15
-5.73164e-10
-2.89981e-10
1.02397e-15
-5.36643e-10
-2.74921e-10
9.83893e-16
-5.01183e-10
-2.60953e-10
9.46822e-16
-4.66795e-10
-2.48013e-10
9.07303e-16
-4.33423e-10
-2.36226e-10
8.69324e-16
-4.0104e-10
-2.25424e-10
8.30577e-16
-3.69565e-10
-2.15714e-10
7.93322e-16
-3.38934e-10
-2.06972e-10
7.60008e-16
-3.09074e-10
-1.9915e-10
7.14272e-16
-2.79889e-10
-1.92293e-10
6.79007e-16
-2.51329e-10
-1.86105e-10
6.32693e-16
-2.23334e-10
-1.80538e-10
5.91994e-16
-1.95891e-10
-1.75281e-10
5.47794e-16
-1.69023e-10
-1.70024e-10
5.06769e-16
-1.42803e-10
-1.6436e-10
4.6397e-16
-1.17402e-10
-1.57613e-10
4.23823e-16
-9.3083e-11
-1.49063e-10
3.79211e-16
-7.02367e-11
-1.37768e-10
3.30346e-16
-4.94085e-11
-1.22605e-10
2.48999e-16
-3.1297e-11
-1.02484e-10
2.65272e-16
-1.67145e-11
-7.67967e-11
2.08637e-16
-6.46358e-12
-4.62012e-11
1.40023e-16
-1.02545e-12
-1.49418e-11
9.32184e-17
6.38188e-12
3.63529e-17
-7.91958e-10
-4.20752e-10
1.30897e-15
-7.53255e-10
-4.00213e-10
1.26753e-15
-7.14608e-10
-3.80544e-10
1.22885e-15
-6.76268e-10
-3.61791e-10
1.19371e-15
-6.3842e-10
-3.44002e-10
1.14539e-15
-6.01209e-10
-3.27189e-10
1.10815e-15
-5.64742e-10
-3.11389e-10
1.06565e-15
-5.29075e-10
-2.96619e-10
1.02711e-15
-4.94252e-10
-2.82839e-10
9.84478e-16
-4.60252e-10
-2.70224e-10
9.41984e-16
-4.27072e-10
-2.58606e-10
9.00034e-16
-3.94653e-10
-2.48132e-10
8.58136e-16
-3.6295e-10
-2.38676e-10
8.17209e-16
-3.31904e-10
-2.30198e-10
7.74706e-16
-3.0143e-10
-2.22764e-10
7.31712e-16
-2.71492e-10
-2.16045e-10
6.89078e-16
-2.42036e-10
-2.09994e-10
6.36816e-16
-2.13056e-10
-2.0426e-10
5.93792e-16
-1.84584e-10
-1.98497e-10
5.49308e-16
-1.56701e-10
-1.92243e-10
5.03696e-16
-1.29584e-10
-1.8473e-10
4.63025e-16
-1.03507e-10
-1.7514e-10
4.11361e-16
-7.88725e-11
-1.62402e-10
3.58631e-16
-5.6244e-11
-1.45234e-10
2.99636e-16
-3.63498e-11
-1.22378e-10
2.67681e-16
-2.00538e-11
-9.30927e-11
2.60466e-16
-8.25182e-12
-5.80031e-11
1.5224e-16
-1.59729e-12
-2.15962e-11
9.55083e-17
4.78469e-12
3.5845e-17
-8.0781e-10
-4.56166e-10
1.39992e-15
-7.71606e-10
-4.36417e-10
1.35796e-15
-7.34962e-10
-4.17188e-10
1.31729e-15
-6.98174e-10
-3.98581e-10
1.27481e-15
-6.61475e-10
-3.807e-10
1.23395e-15
-6.25054e-10
-3.63607e-10
1.18942e-15
-5.8906e-10
-3.47385e-10
1.13137e-15
-5.53585e-10
-3.32091e-10
1.11818e-15
-5.1871e-10
-3.17718e-10
1.05715e-15
-4.8444e-10
-3.04491e-10
1.01224e-15
-4.50799e-10
-2.92249e-10
9.67307e-16
-4.1775e-10
-2.8118e-10
9.20741e-16
-3.85265e-10
-2.71161e-10
8.77435e-16
-3.53303e-10
-2.62162e-10
8.35375e-16
-3.2179e-10
-2.54275e-10
7.82662e-16
-2.90701e-10
-2.47135e-10
7.40628e-16
-2.59993e-10
-2.40702e-10
6.62143e-16
-2.29667e-10
-2.34585e-10
6.39842e-16
-1.99762e-10
-2.28402e-10
5.90746e-16
-1.70365e-10
-2.21639e-10
5.4087e-16
-1.41661e-10
-2.13434e-10
4.96652e-16
-1.1393e-10
-2.02871e-10
4.37864e-16
-8.75841e-11
-1.88747e-10
3.85652e-16
-6.32021e-11
-1.69616e-10
3.31111e-16
-4.15391e-11
-1.44041e-10
2.8332e-16
-2.35112e-11
-1.11121e-10
2.77693e-16
-1.01149e-11
-7.13994e-11
1.64028e-16
-2.19466e-12
-2.95162e-11
1.01988e-16
2.59013e-12
3.76144e-17
-8.18093e-10
-4.88328e-10
1.48639e-15
-7.84658e-10
-4.69853e-10
1.44417e-15
-7.50328e-10
-4.51519e-10
1.40226e-15
-7.15431e-10
-4.33481e-10
1.35847e-15
-6.80235e-10
-4.15897e-10
1.32771e-15
-6.44963e-10
-3.98876e-10
1.2685e-15
-6.09799e-10
-3.8255e-10
1.23607e-15
-5.74868e-10
-3.6702e-10
1.17667e-15
-5.40278e-10
-3.52311e-10
1.12723e-15
-5.06063e-10
-3.38704e-10
1.08003e-15
-4.72269e-10
-3.26045e-10
1.03234e-15
-4.3888e-10
-3.14568e-10
9.84445e-16
-4.05887e-10
-3.04154e-10
9.3593e-16
-3.73263e-10
-2.94789e-10
8.64002e-16
-3.40948e-10
-2.86588e-10
8.13483e-16
-3.08928e-10
-2.79156e-10
7.9068e-16
-2.77169e-10
-2.7246e-10
7.32097e-16
-2.45681e-10
-2.66073e-10
6.85195e-16
-2.1451e-10
-2.59575e-10
6.31e-16
-1.83747e-10
-2.52402e-10
5.73655e-16
-1.53583e-10
-2.43598e-10
5.23622e-16
-1.24304e-10
-2.3215e-10
4.62903e-16
-9.63273e-11
-2.16724e-10
4.11481e-16
-7.02433e-11
-1.957e-10
3.54861e-16
-4.68319e-11
-1.67453e-10
3.09068e-16
-2.70623e-11
-1.3089e-10
2.68265e-16
-1.2038e-11
-8.64236e-11
1.74101e-16
-2.81237e-12
-3.87418e-11
1.08246e-16
-2.22138e-13
3.95878e-17
-8.23531e-10
-5.17145e-10
1.57029e-15
-7.93025e-10
-5.00359e-10
1.52578e-15
-7.61221e-10
-4.83324e-10
1.48117e-15
-7.28465e-10
-4.6624e-10
1.43681e-15
-6.95047e-10
-4.49315e-10
1.39124e-15
-6.61216e-10
-4.32703e-10
1.34247e-15
-6.27182e-10
-4.16586e-10
1.29521e-15
-5.93094e-10
-4.01106e-10
1.24303e-15
-5.59086e-10
-3.86323e-10
1.19479e-15
-5.25214e-10
-3.72574e-10
1.14515e-15
-4.91546e-10
-3.59716e-10
1.09477e-15
-4.58083e-10
-3.48029e-10
1.04399e-15
-4.24835e-10
-3.37403e-10
9.93365e-16
-3.91787e-10
-3.27838e-10
9.38125e-16
-3.58894e-10
-3.19479e-10
8.86495e-16
-3.26152e-10
-3.119e-10
8.39645e-16
-2.93537e-10
-3.05075e-10
7.81734e-16
-2.61065e-10
-2.98544e-10
7.27581e-16
-2.28789e-10
-2.91851e-10
6.69129e-16
-1.96806e-10
-2.84384e-10
6.08331e-16
-1.6531e-10
-2.75095e-10
5.47267e-16
-1.34588e-10
-2.62872e-10
4.83886e-16
-1.05063e-10
-2.46249e-10
4.36079e-16
-7.73325e-11
-2.2343e-10
3.77131e-16
-5.21998e-11
-1.92585e-10
3.5348e-16
-3.06868e-11
-1.52403e-10
3.07648e-16
-1.40099e-11
-1.031e-10
1.84676e-16
-3.4467e-12
-4.93049e-11
1.1399e-16
-3.66873e-12
4.15084e-17
-8.24793e-10
-5.42617e-10
1.64815e-15
-7.97288e-10
-5.27865e-10
1.60313e-15
-7.68137e-10
-5.12475e-10
1.55716e-15
-7.37694e-10
-4.96686e-10
1.50752e-15
-7.0626e-10
-4.80748e-10
1.46286e-15
-6.74101e-10
-4.6486e-10
1.41348e-15
-6.4144e-10
-4.49247e-10
1.36251e-15
-6.08449e-10
-4.34095e-10
1.29614e-15
-5.75279e-10
-4.19497e-10
1.25913e-15
-5.42004e-10
-4.05846e-10
1.20753e-15
-5.0871e-10
-3.93012e-10
1.15452e-15
-4.75416e-10
-3.81322e-10
1.09912e-15
-4.42143e-10
-3.70676e-10
1.04839e-15
-4.08894e-10
-3.6109e-10
9.9271e-16
-3.75632e-10
-3.52739e-10
9.39726e-16
-3.42365e-10
-3.45168e-10
8.88969e-16
-3.09076e-10
-3.38363e-10
8.25723e-16
-2.75792e-10
-3.31828e-10
7.84375e-16
-2.42569e-10
-3.25075e-10
7.06448e-16
-2.09507e-10
-3.17446e-10
6.46142e-16
-1.76803e-10
-3.07799e-10
5.85507e-16
-1.44744e-10
-2.9493e-10
5.19661e-16
-1.13755e-10
-2.77238e-10
4.59679e-16
-8.4439e-11
-2.52746e-10
3.97276e-16
-5.76183e-11
-2.19406e-10
3.43432e-16
-3.43679e-11
-1.75654e-10
3.19325e-16
-1.60218e-11
-1.21446e-10
1.94002e-16
-4.09529e-12
-6.12313e-11
1.19358e-16
-7.76393e-12
4.33406e-17
-8.2249e-10
-5.64815e-10
1.71944e-15
-7.97984e-10
-5.52372e-10
1.67502e-15
-7.71546e-10
-5.38913e-10
1.62918e-15
-7.43524e-10
-5.24712e-10
1.58142e-15
-7.1422e-10
-5.10052e-10
1.53204e-15
-6.83905e-10
-4.95173e-10
1.48087e-15
-6.52813e-10
-4.80339e-10
1.42895e-15
-6.21127e-10
-4.65779e-10
1.39097e-15
-5.89012e-10
-4.51616e-10
1.32174e-15
-5.56554e-10
-4.383e-10
1.26685e-15
-5.23854e-10
-4.25714e-10
1.21177e-15
-4.90943e-10
-4.14231e-10
1.15559e-15
-4.57857e-10
-4.03763e-10
1.10053e-15
-4.24608e-10
-3.94341e-10
1.04613e-15
-3.91171e-10
-3.86173e-10
9.87522e-16
-3.57564e-10
-3.78777e-10
9.48846e-16
-3.23777e-10
-3.72149e-10
8.67198e-16
-2.89842e-10
-3.65762e-10
8.06043e-16
-2.55822e-10
-3.59096e-10
7.41557e-16
-2.21818e-10
-3.51449e-10
6.79386e-16
-1.88029e-10
-3.41589e-10
6.169e-16
-1.5474e-10
-3.28219e-10
5.46292e-16
-1.22373e-10
-3.09604e-10
4.82997e-16
-9.15358e-11
-2.83583e-10
4.16792e-16
-6.30667e-11
-2.47875e-10
3.48821e-16
-3.80922e-11
-2.00628e-10
2.95935e-16
-1.80674e-11
-1.41471e-10
1.99346e-16
-4.7569e-12
-7.45416e-11
1.21707e-16
-1.25207e-11
4.51093e-17
-8.17167e-10
-5.83859e-10
1.78894e-15
-7.95608e-10
-5.73932e-10
1.74282e-15
-7.71887e-10
-5.62635e-10
1.69633e-15
-7.46339e-10
-5.50263e-10
1.6478e-15
-7.19258e-10
-5.37133e-10
1.59717e-15
-6.90913e-10
-5.23515e-10
1.54463e-15
-6.61541e-10
-5.09712e-10
1.49085e-15
-6.31328e-10
-4.95989e-10
1.43761e-15
-6.00447e-10
-4.82502e-10
1.37995e-15
-5.68994e-10
-4.6975e-10
1.32271e-15
-5.37079e-10
-4.57632e-10
1.26623e-15
-5.04743e-10
-4.46566e-10
1.21084e-15
-4.72031e-10
-4.36474e-10
1.15079e-15
-4.38967e-10
-4.27408e-10
1.11065e-15
-4.05533e-10
-4.19605e-10
1.03364e-15
-3.71756e-10
-4.12555e-10
9.72629e-16
-3.37633e-10
-4.06272e-10
9.07436e-16
-3.03201e-10
-4.00192e-10
8.43191e-16
-2.68528e-10
-3.93771e-10
7.75441e-16
-2.33714e-10
-3.86262e-10
7.10519e-16
-1.98959e-10
-3.76345e-10
6.44668e-16
-1.64545e-10
-3.62633e-10
5.67301e-16
-1.3089e-10
-3.4326e-10
5.04252e-16
-9.85994e-11
-3.15873e-10
4.352e-16
-6.85273e-11
-2.77947e-10
3.5466e-16
-4.18494e-11
-2.27306e-10
2.97176e-16
-2.01427e-11
-1.63178e-10
1.98258e-16
-5.43131e-12
-8.92529e-11
1.16577e-16
-1.7952e-11
4.67638e-17
-8.09314e-10
-5.99904e-10
1.85253e-15
-7.90608e-10
-5.92638e-10
1.80601e-15
-7.69566e-10
-5.83677e-10
1.75917e-15
-7.46501e-10
-5.73331e-10
1.71018e-15
-7.21694e-10
-5.6194e-10
1.65838e-15
-6.95403e-10
-5.49803e-10
1.6047e-15
-6.67861e-10
-5.37256e-10
1.54954e-15
-6.39252e-10
-5.24596e-10
1.49308e-15
-6.09752e-10
-5.12006e-10
1.43533e-15
-5.79461e-10
-5.00039e-10
1.37704e-15
-5.48493e-10
-4.88602e-10
1.31789e-15
-5.16898e-10
-4.7816e-10
1.25843e-15
-4.84727e-10
-4.68645e-10
1.19759e-15
-4.52013e-10
-4.60125e-10
1.13898e-15
-4.18744e-10
-4.52871e-10
1.08573e-15
-3.84953e-10
-4.46347e-10
1.01275e-15
-3.50645e-10
-4.40579e-10
9.51693e-16
-3.15861e-10
-4.34976e-10
8.77956e-16
-2.80669e-10
-4.28964e-10
8.09111e-16
-2.45174e-10
-4.21757e-10
7.40116e-16
-2.09569e-10
-4.1195e-10
6.72096e-16
-1.74135e-10
-3.98068e-10
5.95316e-16
-1.3928e-10
-3.78114e-10
5.19041e-16
-1.05609e-10
-3.49544e-10
4.52277e-16
-7.39856e-11
-3.09571e-10
3.42662e-16
-4.56315e-11
-2.5566e-10
3.14041e-16
-2.22456e-11
-1.86564e-10
2.1682e-16
-6.11928e-12
-1.05379e-10
1.32731e-16
-2.40711e-11
4.86953e-17
-7.99361e-10
-6.13126e-10
1.91133e-15
-7.83387e-10
-6.08613e-10
1.86477e-15
-7.64955e-10
-6.0211e-10
1.81779e-15
-7.44349e-10
-5.9394e-10
1.76937e-15
-7.2183e-10
-5.84459e-10
1.71574e-15
-6.97642e-10
-5.73989e-10
1.66107e-15
-6.72005e-10
-5.62893e-10
1.60477e-15
-6.45099e-10
-5.51499e-10
1.54693e-15
-6.17095e-10
-5.40015e-10
1.48766e-15
-5.88093e-10
-5.29038e-10
1.42761e-15
-5.5821e-10
-5.18487e-10
1.36654e-15
-5.27498e-10
-5.0887e-10
1.30497e-15
-4.96015e-10
-5.00129e-10
1.24219e-15
-4.63796e-10
-4.92347e-10
1.17823e-15
-4.30836e-10
-4.85828e-10
1.13647e-15
-3.97175e-10
-4.8001e-10
1.05101e-15
-3.6282e-10
-4.74934e-10
9.7612e-16
-3.27817e-10
-4.69979e-10
9.06116e-16
-2.92235e-10
-4.64546e-10
8.48018e-16
-2.56178e-10
-4.57813e-10
7.68408e-16
-2.19837e-10
-4.48291e-10
6.97513e-16
-1.83485e-10
-4.34421e-10
6.16236e-16
-1.47522e-10
-4.14077e-10
5.16419e-16
-1.12547e-10
-3.84518e-10
4.68825e-16
-7.94291e-11
-3.42688e-10
3.63168e-16
-4.94328e-11
-2.85657e-10
3.48606e-16
-2.4376e-11
-2.11621e-10
2.28521e-16
-6.82252e-12
-1.22932e-10
1.4157e-16
-3.08936e-11
5.0532e-17
-7.87685e-10
-6.2371e-10
1.96495e-15
-7.74308e-10
-6.21991e-10
1.9191e-15
-7.58393e-10
-6.18026e-10
1.87323e-15
-7.40196e-10
-6.12139e-10
1.82212e-15
-7.19952e-10
-6.04703e-10
1.76915e-15
-6.97885e-10
-5.96053e-10
1.71368e-15
-6.742e-10
-5.86579e-10
1.65526e-15
-6.49065e-10
-5.76632e-10
1.59743e-15
-6.22644e-10
-5.66441e-10
1.53684e-15
-5.95033e-10
-5.56646e-10
1.47544e-15
-5.66347e-10
-5.47175e-10
1.41168e-15
-5.36638e-10
-5.38577e-10
1.34914e-15
-5.05967e-10
-5.30801e-10
1.28448e-15
-4.74371e-10
-5.23946e-10
1.21985e-15
-4.4185e-10
-5.18347e-10
1.1529e-15
-4.08446e-10
-5.13416e-10
1.08571e-15
-3.7417e-10
-5.09209e-10
9.88887e-16
-3.3907e-10
-5.05078e-10
9.31843e-16
-3.03218e-10
-5.00399e-10
8.68671e-16
-2.66714e-10
-4.94317e-10
7.94526e-16
-2.29745e-10
-4.8526e-10
7.20596e-16
-1.92575e-10
-4.7159e-10
6.2844e-16
-1.55596e-10
-4.51056e-10
5.575e-16
-1.19397e-10
-4.20718e-10
4.85318e-16
-8.48476e-11
-3.77238e-10
3.6661e-16
-5.32495e-11
-3.17255e-10
3.38167e-16
-2.6535e-11
-2.38335e-10
2.3896e-16
-7.54358e-12
-1.41924e-10
1.47555e-16
-3.84371e-11
5.23082e-17
-7.7462e-10
-6.31843e-10
2.01504e-15
-7.63692e-10
-6.32921e-10
1.9691e-15
-7.50187e-10
-6.31531e-10
1.92207e-15
-7.3433e-10
-6.28e-10
1.87186e-15
-7.16326e-10
-6.22707e-10
1.81877e-15
-6.96375e-10
-6.16002e-10
1.76244e-15
-6.74663e-10
-6.08292e-10
1.69144e-15
-6.51343e-10
-5.99949e-10
1.64429e-15
-6.26567e-10
-5.91222e-10
1.58287e-15
-6.00424e-10
-5.82786e-10
1.52008e-15
-5.73024e-10
-5.74578e-10
1.45561e-15
-5.44416e-10
-5.67183e-10
1.39161e-15
-5.14661e-10
-5.60556e-10
1.32459e-15
-4.83797e-10
-5.54812e-10
1.26681e-15
-4.51826e-10
-5.50315e-10
1.16825e-15
-4.18792e-10
-5.46451e-10
1.11933e-15