/*--------------------------------*- C++ -*----------------------------------*\
| =========                 |                                                 |
| \\      /  F ield         | OpenFOAM: The Open Source CFD Toolbox           |
|  \\    /   O peration     | Version:  v2012                                 |
|   \\  /    A nd           | Website:  www.openfoam.com                      |
|    \\/     M anipulation  |                                                 |
\*---------------------------------------------------------------------------*/
FoamFile
{
    version     2.0;
    format      ascii;
    class       surfaceScalarField;
    location    "0.75";
    object      alphaPhi0.water;
}
// * * * * * * * * * * * * * * * * * * * * * * * * * * * * * * * * * * * * * //

dimensions      [0 3 -1 0 0 0 0];
oriented        oriented;


internalField   nonuniform List<scalar> 
8134
(
-3.37139e-08
-7.75304e-09
-3.57057e-15
-2.70768e-08
-6.63709e-09
-3.06481e-15
-2.13582e-08
-5.71856e-09
-2.66129e-15
-1.64218e-08
-4.9365e-09
-2.28218e-15
-1.21642e-08
-4.25752e-09
-2.07728e-15
-8.50601e-09
-3.65823e-09
-1.79898e-15
-5.38048e-09
-3.12553e-09
-1.65769e-15
-2.73025e-09
-2.65023e-09
-1.49827e-15
-5.036e-10
-2.22665e-09
-1.27027e-15
1.34978e-09
-1.85338e-09
-1.11477e-15
2.87227e-09
-1.52249e-09
-1.01621e-15
4.10523e-09
-1.23296e-09
-9.88607e-16
5.08578e-09
-9.80535e-10
-1.66813e-15
5.84802e-09
-7.62262e-10
-1.59094e-16
6.4226e-09
-5.74595e-10
-2.76902e-16
6.83663e-09
-4.14023e-10
-3.93794e-16
7.11388e-09
-2.77253e-10
-4.20432e-16
7.27512e-09
-1.61218e-10
-3.96136e-16
7.33836e-09
-6.32418e-11
-3.85729e-16
7.31853e-09
1.9791e-11
-3.65534e-16
7.22929e-09
8.92488e-11
-3.57145e-16
7.08147e-09
1.47792e-10
-3.39012e-16
6.88414e-09
1.97371e-10
-3.21511e-16
6.64421e-09
2.39895e-10
-3.04246e-16
6.36722e-09
2.77012e-10
-2.89183e-16
6.05668e-09
3.10517e-10
-2.75273e-16
5.71487e-09
3.41806e-10
-2.67578e-16
5.3428e-09
3.72105e-10
-2.52026e-16
4.94023e-09
4.02531e-10
-2.35127e-16
4.50727e-09
4.32982e-10
-2.92048e-16
4.04421e-09
4.63048e-10
-2.18508e-16
3.55347e-09
4.90735e-10
-1.66177e-16
3.04059e-09
5.12892e-10
-2.17318e-16
2.51536e-09
5.25219e-10
-2.12216e-16
1.99293e-09
5.22432e-10
-2.52652e-16
1.49262e-09
5.00315e-10
-1.58783e-16
1.03569e-09
4.56928e-10
-1.2162e-18
6.41526e-10
3.94158e-10
2.09233e-16
3.23965e-10
3.17559e-10
2.81605e-16
8.95721e-11
2.34393e-10
-3.35651e-16
-5.37603e-11
1.43333e-10
-6.57991e-16
-8.75155e-11
3.37564e-11
-3.94868e-16
-8.75163e-11
2.14548e-16
-4.30521e-08
-1.49954e-08
-6.82155e-15
-3.63692e-08
-1.33199e-08
-6.25619e-15
-3.01785e-08
-1.19093e-08
-5.68854e-15
-2.44299e-08
-1.06852e-08
-5.15069e-15
-1.90872e-08
-9.60019e-09
-4.81187e-15
-1.41291e-08
-8.61635e-09
-4.34839e-15
-9.54317e-09
-7.71141e-09
-4.08214e-15
-5.32487e-09
-6.86853e-09
-3.73645e-15
-1.47313e-09
-6.07839e-09
-3.31727e-15
2.01176e-09
-5.33827e-09
-3.01384e-15
5.12995e-09
-4.64067e-09
-2.7701e-15
7.88436e-09
-3.98735e-09
-2.55196e-15
1.028e-08
-3.37612e-09
-2.79082e-15
1.23263e-08
-2.80862e-09
-3.99269e-16
1.4037e-08
-2.28529e-09
-8.6238e-16
1.54291e-08
-1.80618e-09
-1.07901e-15
1.65228e-08
-1.37096e-09
-1.11296e-15
1.73403e-08
-9.78693e-10
-1.05992e-15
1.79049e-08
-6.278e-10
-1.01408e-15
1.82405e-08
-3.15896e-10
-9.89769e-16
1.83696e-08
-3.97865e-11
-9.66698e-16
1.83148e-08
2.02448e-10
-9.24069e-16
1.8096e-08
4.1634e-10
-8.76899e-16
1.77297e-08
6.06102e-10
-8.29774e-16
1.72304e-08
7.76322e-10
-7.8601e-16
1.66085e-08
9.32392e-10
-7.42233e-16
1.58713e-08
1.079e-09
-6.9723e-16
1.50229e-08
1.22057e-09
-6.54095e-16
1.40639e-08
1.36147e-09
-5.80344e-16
1.29948e-08
1.50211e-09
-6.99642e-16
1.1816e-08
1.64183e-09
-5.15784e-16
1.05325e-08
1.77419e-09
-3.58791e-16
9.15729e-09
1.88812e-09
-4.42377e-16
7.715e-09
1.96749e-09
-3.94398e-16
6.2462e-09
1.99124e-09
-4.67811e-16
4.80576e-09
1.94076e-09
-2.77752e-16
3.45779e-09
1.80489e-09
-2.54001e-16
2.26551e-09
1.58644e-09
1.44685e-16
1.27899e-09
1.30408e-09
2.85567e-16
5.29443e-10
9.83943e-10
-5.09215e-16
4.22961e-11
6.30481e-10
-5.05496e-16
-1.33868e-10
2.09922e-10
-5.54453e-16
-2.21385e-10
-1.77426e-17
-4.15469e-08
-2.08744e-08
-7.69933e-15
-3.58942e-08
-1.89726e-08
-7.25815e-15
-3.047e-08
-1.73334e-08
-6.83509e-15
-2.5265e-08
-1.58902e-08
-6.37145e-15
-2.0269e-08
-1.45962e-08
-6.09627e-15
-1.54754e-08
-1.34099e-08
-5.67252e-15
-1.08821e-08
-1.23047e-08
-5.43352e-15
-6.49294e-09
-1.12577e-08
-5.06988e-15
-2.31669e-09
-1.02546e-08
-4.63068e-15
1.63306e-09
-9.28803e-09
-4.30271e-15
5.34008e-09
-8.34769e-09
-4.0191e-15
8.78707e-09
-7.43433e-09
-3.72636e-15
1.19552e-08
-6.5442e-09
-3.75922e-15
1.48274e-08
-5.68088e-09
-7.95497e-16
1.73896e-08
-4.84759e-09
-1.52509e-15
1.96317e-08
-4.0482e-09
-1.80525e-15
2.15478e-08
-3.28713e-09
-1.82743e-15
2.31377e-08
-2.56845e-09
-1.75423e-15
2.44054e-08
-1.8956e-09
-1.69306e-15
2.53601e-08
-1.2707e-09
-1.64908e-15
2.6015e-08
-6.94666e-10
-1.61356e-15
2.63845e-08
-1.67095e-10
-1.56388e-15
2.6486e-08
3.15012e-10
-1.49836e-15
2.63359e-08
7.56065e-10
-1.42718e-15
2.59502e-08
1.16211e-09
-1.35823e-15
2.53411e-08
1.54134e-09
-1.28937e-15
2.45182e-08
1.90188e-09
-1.22055e-15
2.34869e-08
2.25203e-09
-1.14878e-15
2.22475e-08
2.60067e-09
-1.01556e-15
2.08e-08
2.94971e-09
-1.21519e-15
1.91429e-08
3.2989e-09
-9.4281e-16
1.72808e-08
3.63629e-09
-6.88733e-16
1.52294e-08
3.9395e-09
-8.03754e-16
1.30229e-08
4.17398e-09
-7.09099e-16
1.07219e-08
4.2923e-09
-8.18252e-16
8.41348e-09
4.24915e-09
-5.10274e-16
6.20543e-09
4.01292e-09
-4.528e-16
4.21042e-09
3.58145e-09
-1.8008e-16
2.52423e-09
2.99026e-09
-1.3782e-16
1.21234e-09
2.29584e-09
-6.18145e-16
3.21132e-10
1.52169e-09
-4.40477e-16
-8.13354e-11
6.1239e-10
-4.58677e-16
-3.0272e-10
-3.47948e-16
-3.80178e-08
-2.55035e-08
-7.72973e-15
-3.3366e-08
-2.36243e-08
-7.41657e-15
-2.87527e-08
-2.19468e-08
-7.04165e-15
-2.42106e-08
-2.04323e-08
-6.6603e-15
-1.97577e-08
-1.90491e-08
-6.47007e-15
-1.54043e-08
-1.77634e-08
-6.10387e-15
-1.11562e-08
-1.65528e-08
-5.91696e-15
-7.0195e-09
-1.53944e-08
-5.59064e-15
-3.00112e-09
-1.4273e-08
-5.21028e-15
8.88808e-10
-1.3178e-08
-4.92264e-15
4.63806e-09
-1.20969e-08
-4.66333e-15
8.23168e-09
-1.10279e-08
-4.3744e-15
1.16511e-08
-9.96363e-09
-4.29658e-15
1.48756e-08
-8.90543e-09
-1.21346e-15
1.78831e-08
-7.85511e-09
-2.07847e-15
2.0651e-08
-6.81611e-09
-2.41119e-15
2.31576e-08
-5.79368e-09
-2.44422e-15
2.5383e-08
-4.79383e-09
-2.37535e-15
2.73105e-08
-3.82313e-09
-2.31065e-15
2.89273e-08
-2.88756e-09
-2.25906e-15
3.02251e-08
-1.99248e-09
-2.21859e-15
3.11996e-08
-1.14166e-09
-2.15677e-15
3.18509e-08
-3.36097e-10
-2.0745e-15
3.21813e-08
4.25458e-10
-1.98261e-15
3.21963e-08
1.14721e-09
-1.89182e-15
3.19004e-08
1.83713e-09
-1.80103e-15
3.12972e-08
2.50507e-09
-1.71016e-15
3.03872e-08
3.16223e-09
-1.6156e-15
2.91659e-08
3.82181e-09
-1.42209e-15
2.76279e-08
4.4878e-09
-1.68361e-15
2.57656e-08
5.16105e-09
-1.35096e-15
2.35779e-08
5.82398e-09
-1.01191e-15
2.10767e-08
6.44075e-09
-1.15026e-15
1.82978e-08
6.95286e-09
-9.99981e-16
1.53142e-08
7.27585e-09
-1.13768e-15
1.22403e-08
7.32314e-09
-7.40019e-16
9.22644e-09
7.02673e-09
-6.96475e-16
6.44021e-09
6.36768e-09
-4.19615e-16
4.03338e-09
5.39708e-09
-4.28284e-16
2.1163e-09
4.21292e-09
-5.60173e-16
7.6136e-10
2.87664e-09
-7.58721e-16
5.1497e-11
1.32225e-09
-3.85392e-17
-2.51224e-10
-1.91913e-16
-3.41082e-08
-2.90564e-08
-7.68278e-15
-3.03644e-08
-2.7368e-08
-7.41889e-15
-2.65158e-08
-2.57953e-08
-7.11864e-15
-2.26218e-08
-2.43264e-08
-6.74591e-15
-1.87228e-08
-2.2948e-08
-6.57426e-15
-1.48472e-08
-2.1639e-08
-6.2461e-15
-1.10137e-08
-2.03863e-08
-6.071e-15
-7.23587e-09
-1.91722e-08
-5.77368e-15
-3.52384e-09
-1.7985e-08
-5.42834e-15
1.11741e-10
-1.68135e-08
-5.16824e-15
3.66667e-09
-1.56519e-08
-4.92796e-15
7.12778e-09
-1.4489e-08
-4.65147e-15
1.04855e-08
-1.33213e-08
-4.45755e-15
1.37262e-08
-1.21462e-08
-1.53677e-15
1.68342e-08
-1.09631e-08
-2.49618e-15
1.97905e-08
-9.77246e-09
-2.88113e-15
2.2574e-08
-8.57717e-09
-2.95058e-15
2.51615e-08
-7.38119e-09
-2.90669e-15
2.75283e-08
-6.18999e-09
-2.85363e-15
2.96498e-08
-5.0092e-09
-2.80344e-15
3.15025e-08
-3.84513e-09
-2.75843e-15
3.30639e-08
-2.70322e-09
-2.68802e-15
3.43149e-08
-1.58688e-09
-2.59439e-15
3.52382e-08
-4.98051e-10
-2.48907e-15
3.58193e-08
5.66266e-10
-2.38313e-15
3.60449e-08
1.61141e-09
-2.27598e-15
3.59032e-08
2.64679e-09
-2.16762e-15
3.53806e-08
3.68495e-09
-2.05634e-15
3.44599e-08
4.74237e-09
-1.8098e-15
3.31223e-08
5.82546e-09
-2.1166e-15
3.13467e-08
6.93663e-09
-1.74432e-15
2.91171e-08
8.05341e-09
-1.33388e-15
2.64323e-08
9.12571e-09
-1.49185e-15
2.33182e-08
1.00669e-08
-1.28259e-15
1.98488e-08
1.07452e-08
-1.44456e-15
1.61557e-08
1.10163e-08
-9.64481e-16
1.24278e-08
1.07545e-08
-9.45799e-16
8.89046e-09
9.90504e-09
-6.6662e-16
5.76143e-09
8.52611e-09
-6.56487e-16
3.20836e-09
6.76599e-09
-8.20219e-16
1.33795e-09
4.74706e-09
-8.66133e-16
2.47414e-10
2.41278e-09
-7.09771e-18
-3.81077e-12
2.78426e-17
-3.01352e-08
-3.16916e-08
-7.31805e-15
-2.72019e-08
-3.03013e-08
-7.14785e-15
-2.40623e-08
-2.89349e-08
-6.86628e-15
-2.07873e-08
-2.76014e-08
-6.56972e-15
-1.74308e-08
-2.63045e-08
-6.4673e-15
-1.40336e-08
-2.50362e-08
-6.18043e-15
-1.0626e-08
-2.37939e-08
-6.04341e-15
-7.23063e-09
-2.25676e-08
-5.76171e-15
-3.86412e-09
-2.13516e-08
-5.45678e-15
-5.3906e-10
-2.01386e-08
-5.21886e-15
2.73419e-09
-1.89251e-08
-5.00058e-15
5.94902e-09
-1.77039e-08
-4.73955e-15
9.09842e-09
-1.64707e-08
-4.4725e-15
1.21754e-08
-1.52233e-08
-1.826e-15
1.51722e-08
-1.39598e-08
-2.84185e-15
1.80785e-08
-1.26788e-08
-3.25865e-15
2.08818e-08
-1.13804e-08
-3.35878e-15
2.35661e-08
-1.00654e-08
-3.3395e-15
2.61118e-08
-8.73578e-09
-3.3018e-15
2.84962e-08
-7.39368e-09
-3.25639e-15
3.06935e-08
-6.04244e-09
-3.20817e-15
3.26751e-08
-4.68496e-09
-3.13175e-15
3.44113e-08
-3.32281e-09
-3.03289e-15
3.58712e-08
-1.95817e-09
-2.92241e-15
3.70239e-08
-5.86282e-10
-2.80973e-15
3.78365e-08
7.98636e-10
-2.69408e-15
3.82767e-08
2.20664e-09
-2.57567e-15
3.83107e-08
3.65112e-09
-2.45469e-15
3.79011e-08
5.15174e-09
-2.16952e-15
3.7008e-08
6.71865e-09
-2.49936e-15
3.55873e-08
8.35723e-09
-2.1089e-15
3.35983e-08
1.00424e-08
-1.6484e-15
3.1013e-08
1.1711e-08
-1.82196e-15
2.78333e-08
1.32466e-08
-1.55668e-15
2.41169e-08
1.44616e-08
-1.73941e-15
1.99971e-08
1.51361e-08
-1.1851e-15
1.56906e-08
1.5061e-08
-1.18686e-15
1.14784e-08
1.41172e-08
-9.0645e-16
7.65214e-09
1.23524e-08
-8.19736e-16
4.45001e-09
9.96812e-09
-9.5157e-16
2.02498e-09
7.1721e-09
-5.12019e-16
4.95839e-10
3.94191e-09
-1.23116e-16
4.92027e-10
2.01057e-16
-2.63366e-08
-3.35989e-08
-7.44206e-15
-2.4083e-08
-3.25549e-08
-7.27301e-15
-2.15654e-08
-3.14525e-08
-6.97825e-15
-1.88532e-08
-3.03136e-08
-6.62357e-15
-1.60038e-08
-2.9154e-08
-6.48226e-15
-1.30637e-08
-2.79762e-08
-6.1961e-15
-1.00699e-08
-2.67877e-08
-6.05197e-15
-7.0517e-09
-2.55858e-08
-5.78334e-15
-4.03175e-09
-2.43715e-08
-5.4834e-15
-1.02727e-09
-2.3143e-08
-5.2507e-15
1.94729e-09
-2.18997e-08
-5.03755e-15
4.88386e-09
-2.06404e-08
-4.78338e-15
7.77544e-09
-1.93622e-08
-4.46928e-15
1.06173e-08
-1.80652e-08
-2.14277e-15
1.34057e-08
-1.67483e-08
-3.16255e-15
1.6137e-08
-1.54101e-08
-3.57709e-15
1.88065e-08
-1.40498e-08
-3.6849e-15
2.14073e-08
-1.26662e-08
-3.67622e-15
2.39298e-08
-1.12582e-08
-3.64693e-15
2.63601e-08
-9.82418e-09
-3.60347e-15
2.86805e-08
-8.3628e-09
-3.55202e-15
3.08675e-08
-6.87203e-09
-3.47252e-15
3.28929e-08
-5.34805e-09
-3.37441e-15
3.4724e-08
-3.78945e-09
-3.26617e-15
3.63237e-08
-2.1859e-09
-3.15459e-15
3.76499e-08
-5.27651e-10
-3.0387e-15
3.86546e-08
1.20192e-09
-2.9188e-15
3.92854e-08
3.02056e-09
-2.79574e-15
3.94838e-08
4.95308e-09
-2.49061e-15
3.91854e-08
7.01723e-09
-2.83214e-15
3.83174e-08
9.22507e-09
-2.43704e-15
3.68055e-08
1.15542e-08
-1.94693e-15
3.45831e-08
1.39336e-08
-2.13129e-15
3.16107e-08
1.62189e-08
-1.81883e-15
2.79092e-08
1.81631e-08
-2.01903e-15
2.35914e-08
1.9454e-08
-1.40336e-15
1.88829e-08
1.97695e-08
-1.42025e-15
1.41106e-08
1.88895e-08
-1.13497e-15
9.64262e-09
1.68204e-08
-9.95131e-16
5.80003e-09
1.38107e-08
-1.09665e-15
2.79676e-09
1.01754e-08
-5.35294e-16
7.85049e-10
5.95362e-09
-7.0725e-16
1.27707e-09
2.60179e-16
-2.28131e-08
-3.49388e-08
-6.75335e-15
-2.1115e-08
-3.4253e-08
-6.6916e-15
-1.91267e-08
-3.34408e-08
-6.45629e-15
-1.69102e-08
-3.25302e-08
-6.26871e-15
-1.45198e-08
-3.15443e-08
-6.23428e-15
-1.20029e-08
-3.04931e-08
-6.03342e-15
-9.39876e-09
-2.93919e-08
-5.94494e-15
-6.74015e-09
-2.82444e-08
-5.72146e-15
-4.05368e-09
-2.7058e-08
-5.45292e-15
-1.36051e-09
-2.58362e-08
-5.24007e-15
1.32166e-09
-2.45819e-08
-5.04264e-15
3.98132e-09
-2.33001e-08
-4.80789e-15
6.60954e-09
-2.19905e-08
-4.48783e-15
9.20083e-09
-2.06565e-08
-2.46568e-15
1.17522e-08
-1.92997e-08
-3.457e-15
1.42622e-08
-1.79201e-08
-3.84225e-15
1.67303e-08
-1.6518e-08
-3.93588e-15
1.91561e-08
-1.50919e-08
-3.92328e-15
2.15378e-08
-1.364e-08
-3.89348e-15
2.38714e-08
-1.21578e-08
-3.84721e-15
2.61493e-08
-1.06407e-08
-3.79192e-15
2.83587e-08
-9.08157e-09
-3.71192e-15
3.04812e-08
-7.47036e-09
-3.61844e-15
3.24918e-08
-5.80014e-09
-3.51743e-15
3.43579e-08
-4.05194e-09
-3.41293e-15
3.60395e-08
-2.2094e-09
-3.30317e-15
3.74871e-08
-2.45612e-10
-3.189e-15
3.86388e-08
1.86896e-09
-3.07048e-15
3.94229e-08
4.16877e-09
-2.76459e-15
3.97549e-08
6.68539e-09
-3.10853e-15
3.95355e-08
9.44438e-09
-2.71954e-15
3.86543e-08
1.24352e-08
-2.21962e-15
3.6999e-08
1.55891e-08
-2.41084e-15
3.44747e-08
1.87431e-08
-2.0644e-15
3.10446e-08
2.15933e-08
-2.27856e-15
2.67739e-08
2.37246e-08
-1.61946e-15
2.18706e-08
2.46727e-08
-1.64545e-15
1.66883e-08
2.40718e-08
-1.35021e-15
1.16656e-08
2.18431e-08
-1.16948e-15
7.21517e-09
1.82611e-08
-1.26037e-15
3.62776e-09
1.37628e-08
-6.95683e-16
1.1042e-09
8.47718e-09
-1.08411e-15
2.38127e-09
1.90624e-16
-1.96308e-08
-3.58535e-08
-7.01512e-15
-1.83718e-08
-3.55119e-08
-6.95088e-15
-1.68203e-08
-3.49923e-08
-6.70238e-15
-1.50274e-08
-3.43231e-08
-6.43285e-15
-1.30411e-08
-3.35305e-08
-6.32102e-15
-1.09055e-08
-3.26288e-08
-6.08481e-15
-8.65898e-09
-3.16384e-08
-5.96206e-15
-6.33504e-09
-3.05683e-08
-5.74021e-15
-3.96196e-09
-2.94311e-08
-5.47064e-15
-1.56319e-09
-2.8235e-08
-5.25781e-15
8.41365e-10
-2.69864e-08
-5.06433e-15
3.23717e-09
-2.56959e-08
-4.84481e-15
5.61301e-09
-2.43663e-08
-4.53278e-15
7.96147e-09
-2.3005e-08
-2.79157e-15
1.02782e-08
-2.16165e-08
-3.71803e-15
1.25616e-08
-2.02035e-08
-4.05257e-15
1.48121e-08
-1.87684e-08
-4.11785e-15
1.70317e-08
-1.73114e-08
-4.0923e-15
1.9223e-08
-1.58313e-08
-4.0558e-15
2.13883e-08
-1.43233e-08
-4.00344e-15
2.35286e-08
-1.27809e-08
-3.94433e-15
2.56412e-08
-1.11943e-08
-3.86541e-15
2.7719e-08
-9.54801e-09
-3.77821e-15
2.9749e-08
-7.83029e-09
-3.68623e-15
3.17103e-08
-6.01311e-09
-3.59156e-15
3.35728e-08
-4.07202e-09
-3.49202e-15
3.52955e-08
-1.96836e-09
-3.38789e-15
3.68229e-08
3.41724e-10
-3.27844e-15
3.80812e-08
2.91026e-09
-2.98777e-15
3.89781e-08
5.78865e-09
-3.32082e-15
3.93976e-08
9.02475e-09
-2.95037e-15
3.92007e-08
1.26321e-08
-2.45781e-15
3.82306e-08
1.65593e-08
-2.65386e-15
3.63318e-08
2.06418e-08
-2.28898e-15
3.33931e-08
2.4532e-08
-2.51331e-15
2.94063e-08
2.77114e-08
-1.83333e-15
2.45291e-08
2.95499e-08
-1.86165e-15
1.91129e-08
2.9488e-08
-1.5516e-15
1.36515e-08
2.73045e-08
-1.33288e-15
8.65069e-09
2.3262e-08
-1.3839e-15
4.49223e-09
1.79213e-08
-8.52708e-16
1.44306e-09
1.15263e-08
-1.09603e-15
3.82433e-09
-1.59444e-17
-1.68023e-08
-6.15629e-15
-1.58848e-08
-6.23561e-15
-1.46872e-08
-3.61899e-08
-6.09468e-15
-1.32494e-08
-3.57609e-08
-6.03569e-15
-1.16116e-08
-3.51683e-08
-6.04372e-15
-9.81263e-09
-3.44278e-08
-5.90814e-15
-7.88797e-09
-3.35631e-08
-5.85667e-15
-5.86981e-09
-3.25865e-08
-5.70203e-15
-3.78627e-09
-3.15146e-08
-5.4385e-15
-1.6615e-09
-3.03597e-08
-5.24276e-15
4.83508e-10
-2.91314e-08
-5.06359e-15
2.63238e-09
-2.78447e-08
-4.8665e-15
4.7719e-09
-2.65058e-08
-4.5941e-15
6.89277e-09
-2.51259e-08
-3.10064e-15
8.98889e-09
-2.37126e-08
-3.93256e-15
1.10571e-08
-2.22717e-08
-4.20743e-15
1.30971e-08
-2.08084e-08
-4.24055e-15
1.51108e-08
-1.93251e-08
-4.19948e-15
1.71022e-08
-1.78227e-08
-4.15389e-15
1.90764e-08
-1.62975e-08
-4.09441e-15
2.10391e-08
-1.47436e-08
-4.03207e-15
2.29945e-08
-1.31498e-08
-3.95468e-15
2.49448e-08
-1.14982e-08
-3.87333e-15
2.68882e-08
-9.7738e-09
-3.78986e-15
2.88165e-08
-7.94139e-09
-3.70488e-15
3.07137e-08
-5.96932e-09
-3.61642e-15
3.25528e-08
-3.8074e-09
-3.52454e-15
3.42924e-08
-1.39767e-09
-3.4257e-15
3.58714e-08
1.33101e-09
-3.16141e-15
3.72029e-08
4.45731e-09
-3.47998e-15
3.81693e-08
8.05825e-09
-3.13053e-15
3.86172e-08
1.2184e-08
-2.65709e-15
3.83577e-08
1.68189e-08
-2.85678e-15
3.71796e-08
2.18199e-08
-2.48872e-15
3.48914e-08
2.68202e-08
-2.71966e-15
3.13912e-08
3.12117e-08
-2.03904e-15
2.6754e-08
3.41869e-08
-2.06619e-15
2.12935e-08
3.49485e-08
-1.73974e-15
1.55322e-08
3.30659e-08
-1.48634e-15
1.00614e-08
2.87327e-08
-1.50078e-15
5.3643e-09
2.26184e-08
-9.35255e-16
1.79152e-09
1.50991e-08
-8.50916e-16
5.61585e-09
-3.43241e-16
-1.27489e-08
-3.71059e-08
-6.32435e-15
-1.16038e-08
-3.6906e-08
-6.10705e-15
-1.02615e-08
-3.65106e-08
-6.0699e-15
-8.75478e-09
-3.59345e-08
-5.90025e-15
-7.11511e-09
-3.52027e-08
-5.82656e-15
-5.37201e-09
-3.43296e-08
-5.68889e-15
-3.5522e-09
-3.33344e-08
-5.43848e-15
-1.67923e-09
-3.22327e-08
-5.24797e-15
2.25813e-10
-3.10365e-08
-5.07468e-15
2.14587e-09
-2.97648e-08
-4.89225e-15
4.06637e-09
-2.84263e-08
-4.6637e-15
5.97665e-09
-2.70362e-08
-3.38653e-15
7.86895e-09
-2.56049e-08
-4.10104e-15
9.73854e-09
-2.41413e-08
-4.31445e-15
1.15836e-08
-2.26534e-08
-4.31793e-15
1.34049e-08
-2.11464e-08
-4.26262e-15
1.52059e-08
-1.96237e-08
-4.20811e-15
1.69919e-08
-1.80837e-08
-4.14204e-15
1.87704e-08
-1.6522e-08
-4.07681e-15
2.05491e-08
-1.49285e-08
-4.00061e-15
2.23356e-08
-1.32846e-08
-3.92366e-15
2.41363e-08
-1.15746e-08
-3.84672e-15
2.59536e-08
-9.75862e-09
-3.76971e-15
2.77845e-08
-7.8003e-09
-3.69082e-15
2.96172e-08
-5.64008e-09
-3.61004e-15
3.14276e-08
-3.20791e-09
-3.5216e-15
3.31739e-08
-4.15477e-10
-3.28882e-15
3.47868e-08
2.84447e-09
-3.5913e-15
3.61617e-08
6.68325e-09
-3.26191e-15
3.71485e-08
1.11971e-08
-2.81703e-15
3.75444e-08
1.64231e-08
-3.01926e-15
3.70983e-08
2.22659e-08
-2.6615e-15
3.55452e-08
2.83733e-08
-2.90003e-15
3.26806e-08
3.40764e-08
-2.23212e-15
2.84706e-08
3.83968e-08
-2.25711e-15
2.31531e-08
4.0266e-08
-1.91632e-15
1.72444e-08
3.89746e-08
-1.63391e-15
1.14036e-08
3.45735e-08
-1.62395e-15
6.21839e-09
2.78036e-08
-1.06854e-15
2.13947e-09
1.9178e-08
-8.97485e-16
7.75532e-09
-4.38215e-16
-1.10108e-08
-3.78004e-08
-5.86927e-15
-1.01039e-08
-3.78129e-08
-5.87662e-15
-9.00902e-09
-3.76054e-08
-5.92207e-15
-7.75283e-09
-3.71907e-08
-5.79372e-15
-6.36221e-09
-3.65933e-08
-5.75788e-15
-4.86341e-09
-3.58284e-08
-5.65201e-15
-3.2809e-09
-3.49169e-08
-5.42134e-15
-1.63689e-09
-3.38767e-08
-5.23939e-15
4.80039e-11
-3.27213e-08
-5.07392e-15
1.75807e-09
-3.14749e-08
-4.90599e-15
3.477e-09
-3.01452e-08
-4.72453e-15
5.19354e-09
-2.87527e-08
-3.63418e-15
6.89882e-09
-2.73102e-08
-4.22517e-15
8.58677e-09
-2.58293e-08
-4.38319e-15
1.02541e-08
-2.43207e-08
-4.36328e-15
1.19001e-08
-2.27924e-08
-4.29698e-15
1.35269e-08
-2.12505e-08
-4.23494e-15
1.51389e-08
-1.96957e-08
-4.1633e-15
1.67431e-08
-1.81262e-08
-4.0956e-15
1.83482e-08
-1.65337e-08
-4.01994e-15
1.99643e-08
-1.49006e-08
-3.9457e-15
2.16021e-08
-1.32125e-08
-3.87308e-15
2.3271e-08
-1.14275e-08
-3.8018e-15
2.4978e-08
-9.50735e-09
-3.73008e-15
2.67243e-08
-7.38635e-09
-3.65786e-15
2.8502e-08
-4.98547e-09
-3.57799e-15
3.02896e-08
-2.20329e-09
-3.37687e-15
3.20415e-08
1.09273e-09
-3.65472e-15
3.36759e-08
5.04868e-09
-3.34793e-15
3.50617e-08
9.81124e-09
-2.93927e-15
3.60025e-08
1.54825e-08
-3.14226e-15
3.62292e-08
2.20391e-08
-2.80593e-15
3.54216e-08
2.91809e-08
-3.05012e-15
3.32776e-08
3.62204e-08
-2.41066e-15
2.96393e-08
4.2035e-08
-2.43301e-15
2.46344e-08
4.52708e-08
-2.08186e-15
1.87337e-08
4.48754e-08
-1.77659e-15
1.26365e-08
4.06707e-08
-1.75321e-15
7.02992e-09
3.34102e-08
-1.24438e-15
2.47693e-09
2.3731e-08
-1.06598e-15
1.02322e-08
-5.30445e-16
-9.46859e-09
-3.8323e-08
-5.99232e-15
-8.75349e-09
-3.8528e-08
-5.9698e-15
-7.86364e-09
-3.84953e-08
-5.9534e-15
-6.81996e-09
-3.82344e-08
-5.82087e-15
-5.6447e-09
-3.77686e-08
-5.77778e-15
-4.36055e-09
-3.71125e-08
-5.64377e-15
-2.98932e-09
-3.62881e-08
-5.42527e-15
-1.55141e-09
-3.53146e-08
-5.24532e-15
-6.55817e-11
-3.42072e-08
-5.08354e-15
1.45192e-09
-3.29924e-08
-4.92404e-15
2.98622e-09
-3.16795e-08
-4.78265e-15
4.52525e-09
-3.02918e-08
-3.86085e-15
6.05947e-09
-2.88444e-08
-4.31968e-15
7.58183e-09
-2.73516e-08
-4.42716e-15
9.08784e-09
-2.58267e-08
-4.38855e-15
1.05755e-08
-2.42801e-08
-4.31386e-15
1.20454e-08
-2.27204e-08
-4.24578e-15
1.35005e-08
-2.11509e-08
-4.16994e-15
1.49467e-08
-1.95724e-08
-4.09999e-15
1.63918e-08
-1.79789e-08
-4.02427e-15
1.78462e-08
-1.63549e-08
-3.95134e-15
1.93222e-08
-1.46886e-08
-3.88131e-15
2.08329e-08
-1.29381e-08
-3.81366e-15
2.23913e-08
-1.10658e-08
-3.74679e-15
2.40081e-08
-9.0031e-09
-3.68052e-15
2.56884e-08
-6.66565e-09
-3.60698e-15
2.74283e-08
-3.94333e-09
-3.43512e-15
2.92052e-08
-6.84121e-10
-3.68563e-15
3.09655e-08
3.2883e-09
-3.39857e-15
3.26064e-08
8.17025e-09
-3.02759e-15
3.39548e-08
1.41343e-08
-3.22866e-15
3.47472e-08
2.12467e-08
-2.92186e-15
3.46331e-08
2.9295e-08
-3.16879e-15
3.32306e-08
3.7623e-08
-2.57594e-15
3.02563e-08
4.50093e-08
-2.59403e-15
2.57036e-08
4.98236e-08
-2.23659e-15
1.9958e-08
5.0621e-08
-1.91484e-15
1.37247e-08
4.6904e-08
-1.88609e-15
7.77624e-09
3.93587e-08
-1.40984e-15
2.79434e-09
2.87128e-08
-1.22173e-15
1.30266e-08
-6.39845e-16
-8.11134e-09
-3.87133e-08
-5.93181e-15
-7.54943e-09
-3.909e-08
-5.89863e-15
-6.82811e-09
-3.92166e-08
-5.90695e-15
-5.96322e-09
-3.90993e-08
-5.82628e-15
-4.97266e-09
-3.87592e-08
-5.77231e-15
-3.87551e-09
-3.82097e-08
-5.65553e-15
-2.69082e-09
-3.74728e-08
-5.43091e-15
-1.43683e-09
-3.65686e-08
-5.24893e-15
-1.30487e-10
-3.55135e-08
-5.08936e-15
1.21246e-09
-3.43353e-08
-4.93768e-15
2.5785e-09
-3.30456e-08
-4.84878e-15
3.95549e-09
-3.16688e-08
-4.05127e-15
5.33363e-09
-3.02226e-08
-4.38956e-15
6.70527e-09
-2.87233e-08
-4.45424e-15
8.06504e-09
-2.71865e-08
-4.4015e-15
9.4099e-09
-2.56249e-08
-4.32088e-15
1.07391e-08
-2.40496e-08
-4.24803e-15
1.20541e-08
-2.2466e-08
-4.16897e-15
1.33593e-08
-2.08776e-08
-4.09716e-15
1.46613e-08
-1.92809e-08
-4.02099e-15
1.59693e-08
-1.76628e-08
-3.94846e-15
1.72953e-08
-1.60148e-08
-3.87971e-15
1.86536e-08
-1.42964e-08
-3.81399e-15
2.00601e-08
-1.24724e-08
-3.74996e-15
2.1531e-08
-1.04739e-08
-3.68719e-15
2.30805e-08
-8.21504e-09
-3.61807e-15
2.4718e-08
-5.58107e-09
-3.47113e-15
2.64407e-08
-2.40669e-09
-3.69534e-15
2.82214e-08
1.5075e-09
-3.42302e-15
2.99899e-08
6.40168e-09
-3.08786e-15
3.1607e-08
1.25173e-08
-3.28361e-15
3.28341e-08
2.00195e-08
-3.01046e-15
3.33175e-08
2.88116e-08
-3.25485e-15
3.26216e-08
3.83189e-08
-2.73034e-15
3.03503e-08
4.72805e-08
-2.7381e-15
2.63507e-08
5.38231e-08
-2.37969e-15
2.08898e-08
5.6082e-08
-2.04862e-15
1.46402e-08
5.31536e-08
-2.02101e-15
8.43755e-09
4.55614e-08
-1.57564e-15
3.08291e-09
3.40674e-08
-1.37478e-15
1.61095e-08
-7.63213e-16
-6.92473e-09
-3.90026e-08
-6.03532e-15
-6.48427e-09
-3.95304e-08
-5.94019e-15
-5.90058e-09
-3.98002e-08
-5.89295e-15
-5.18515e-09
-3.98147e-08
-5.82178e-15
-4.35192e-09
-3.95924e-08
-5.76918e-15
-3.41658e-09
-3.9145e-08
-5.63967e-15
-2.3954e-09
-3.8494e-08
-5.43157e-15
-1.30445e-09
-3.76595e-08
-5.2529e-15
-1.58913e-10
-3.66591e-08
-5.09797e-15
1.02688e-09
-3.55211e-08
-4.95097e-15
2.24038e-09
-3.42591e-08
-4.87702e-15
3.47001e-09
-3.28984e-08
-4.17841e-15
4.70607e-09
-3.14587e-08
-4.4392e-15
5.94064e-09
-2.99578e-08
-4.4718e-15
7.16782e-09
-2.84137e-08
-4.40795e-15
8.38378e-09
-2.68409e-08
-4.32285e-15
9.5867e-09
-2.52525e-08
-4.24608e-15
1.07769e-08
-2.36563e-08
-4.16467e-15
1.19572e-08
-2.20578e-08
-4.09141e-15
1.31326e-08
-2.04563e-08
-4.01437e-15
1.43108e-08
-1.8841e-08
-3.94165e-15
1.55028e-08
-1.72068e-08
-3.87323e-15
1.6722e-08
-1.55155e-08
-3.80825e-15
1.79849e-08
-1.37354e-08
-3.7455e-15
1.93104e-08
-1.17994e-08
-3.68453e-15
2.07178e-08
-9.62236e-09
-3.61799e-15
2.22257e-08
-7.08912e-09
-3.49123e-15
2.38456e-08
-4.02652e-09
-3.68282e-15
2.55728e-08
-2.1973e-10
-3.4263e-15
2.7368e-08
4.60641e-09
-3.1268e-15
2.913e-08
1.07554e-08
-3.3124e-15
3.06583e-08
1.84911e-08
-3.07408e-15
3.16193e-08
2.78507e-08
-3.31132e-15
3.15534e-08
3.83848e-08
-2.84382e-15
2.99756e-08
4.88582e-08
-2.85992e-15
2.65887e-08
5.72101e-08
-2.51104e-15
2.15166e-08
6.1154e-08
-2.17921e-15
1.53628e-08
5.93075e-08
-2.15836e-15
8.99774e-09
5.19264e-08
-1.74875e-15
3.33495e-09
3.97302e-08
-1.53592e-15
1.94445e-08
-9.00521e-16
-5.89274e-09
-3.92157e-08
-6.20034e-15
-5.54798e-09
-3.98752e-08
-6.03759e-15
-5.07607e-09
-4.02721e-08
-5.90424e-15
-4.48494e-09
-4.04058e-08
-5.82165e-15
-3.78506e-09
-4.02923e-08
-5.79328e-15
-2.98898e-09
-3.99411e-08
-5.64537e-15
-2.11033e-09
-3.93727e-08
-5.44315e-15
-1.16302e-09
-3.86068e-08
-5.26204e-15
-1.60515e-10
-3.76616e-08
-5.10696e-15
8.84403e-10
-3.6566e-08
-4.96006e-15
1.96026e-09
-3.53349e-08
-4.86009e-15
3.05635e-09
-3.39945e-08
-4.26054e-15
4.16339e-09
-3.25657e-08
-4.47359e-15
5.27347e-09
-3.10679e-08
-4.48288e-15
6.38045e-09
-2.95206e-08
-4.41076e-15
7.47995e-09
-2.79404e-08
-4.32242e-15
8.56941e-09
-2.63419e-08
-4.24272e-15
9.64814e-09
-2.4735e-08
-4.15931e-15
1.07177e-08
-2.31273e-08
-4.08449e-15
1.17815e-08
-2.15203e-08
-4.00662e-15
1.28459e-08
-1.99053e-08
-3.9334e-15
1.392e-08
-1.82809e-08
-3.86474e-15
1.50158e-08
-1.66113e-08
-3.7997e-15
1.61491e-08
-1.48688e-08
-3.73727e-15
1.73389e-08
-1.29891e-08
-3.67674e-15
1.86068e-08
-1.08902e-08
-3.6116e-15
1.99765e-08
-8.45896e-09
-3.50035e-15
2.14692e-08
-5.51919e-09
-3.66236e-15
2.30969e-08
-1.84748e-09
-3.41618e-15
2.48466e-08
2.85667e-09
-3.14673e-15
2.66538e-08
8.94823e-09
-3.31709e-15
2.83618e-08
1.6783e-08
-3.11458e-15
2.96745e-08
2.6538e-08
-3.34586e-15
3.01367e-08
3.79226e-08
-2.9226e-15
2.92037e-08
4.97911e-08
-2.95966e-15
2.64488e-08
5.9965e-08
-2.6301e-15
2.1841e-08
6.57618e-08
-2.30841e-15
1.58816e-08
6.52668e-08
-2.2994e-15
9.44504e-09
5.8363e-08
-1.93464e-15
3.54425e-09
4.5631e-08
-1.71064e-15
2.29887e-08
-1.05551e-15
-4.99907e-09
-3.93717e-08
-6.18569e-15
-4.72929e-09
-4.0145e-08
-6.02629e-15
-4.34776e-09
-4.06537e-08
-5.88971e-15
-3.85956e-09
-4.08941e-08
-5.79425e-15
-3.27224e-09
-4.08796e-08
-5.77802e-15
-2.59553e-09
-4.06178e-08
-5.62739e-15
-1.84057e-09
-4.01276e-08
-5.4423e-15
-1.01921e-09
-3.94282e-08
-5.26575e-15
-1.43254e-10
-3.85375e-08
-5.11491e-15
7.75998e-10
-3.74853e-08
-4.97e-15
1.72823e-09
-3.62872e-08
-4.84857e-15
2.70376e-09
-3.49701e-08
-4.32199e-15
3.69392e-09
-3.35559e-08
-4.49984e-15
4.69111e-09
-3.20651e-08
-4.49071e-15
5.68913e-09
-3.05187e-08
-4.41202e-15
6.68333e-09
-2.89345e-08
-4.32107e-15
7.67061e-09
-2.73292e-08
-4.23881e-15
8.64956e-09
-2.5714e-08
-4.15378e-15
9.62064e-09
-2.40984e-08
-4.07736e-15
1.05862e-08
-2.24858e-08
-3.99884e-15
1.15508e-08
-2.08698e-08
-3.92496e-15
1.25219e-08
-1.92521e-08
-3.85579e-15
1.351e-08
-1.75994e-08
-3.7903e-15
1.4529e-08
-1.58878e-08
-3.72748e-15
1.55969e-08
-1.4057e-08
-3.66673e-15
1.67353e-08
-1.20286e-08
-3.60189e-15
1.79702e-08
-9.69391e-09
-3.50191e-15
1.93282e-08
-6.87711e-09
-3.63548e-15
2.08324e-08
-3.35178e-09
-3.39533e-15
2.24901e-08
1.19894e-09
-3.14597e-15
2.42687e-08
7.16972e-09
-3.2943e-15
2.60553e-08
1.49964e-08
-3.13053e-15
2.76012e-08
2.49922e-08
-3.36007e-15
2.84786e-08
3.70452e-08
-2.9896e-15
2.81145e-08
5.01551e-08
-3.04159e-15
2.59764e-08
6.21031e-08
-2.73737e-15
2.18781e-08
6.98601e-08
-2.43914e-15
1.61945e-08
7.09504e-08
-2.44653e-15
9.77239e-09
6.47852e-08
-2.14288e-15
3.7063e-09
5.1697e-08
-1.90456e-15
2.6695e-08
-1.23428e-15
-4.2279e-09
-3.94854e-08
-6.30206e-15
-4.01656e-09
-4.03563e-08
-6.11705e-15
-3.70781e-09
-4.09624e-08
-5.99079e-15
-3.30454e-09
-4.12973e-08
-5.84085e-15
-2.81192e-09
-4.13722e-08
-5.78135e-15
-2.23719e-09
-4.11925e-08
-5.63548e-15
-1.58923e-09
-4.07756e-08
-5.45327e-15
-8.77921e-10
-4.01395e-08
-5.27573e-15
-1.13465e-10
-3.9302e-08
-5.12438e-15
6.94188e-10
-3.82929e-08
-4.98124e-15
1.53587e-09
-3.71288e-08
-4.8592e-15
2.40293e-09
-3.58371e-08
-4.38271e-15
3.2875e-09
-3.44404e-08
-4.52141e-15
4.18248e-09
-3.29601e-08
-4.49638e-15
5.08182e-09
-3.1418e-08
-4.41248e-15
5.98076e-09
-2.98335e-08
-4.3193e-15
6.8759e-09
-2.82244e-08
-4.23472e-15
7.76528e-09
-2.66034e-08
-4.1486e-15
8.64859e-09
-2.49817e-08
-4.07077e-15
9.52711e-09
-2.33644e-08
-3.99158e-15
1.04042e-08
-2.17468e-08
-3.91702e-15
1.12857e-08
-2.01337e-08
-3.84718e-15
1.21802e-08
-1.84938e-08
-3.78099e-15
1.30997e-08
-1.68074e-08
-3.71741e-15
1.40605e-08
-1.50177e-08
-3.65578e-15
1.5083e-08
-1.30509e-08
-3.59053e-15
1.61928e-08
-1.08038e-08
-3.49822e-15
1.7419e-08
-8.1033e-09
-3.59533e-15
1.87914e-08
-4.72423e-09
-3.36032e-15
2.03312e-08
-3.40862e-10
-3.11938e-15
2.20313e-08
5.46969e-09
-3.24256e-15
2.38185e-08
1.3209e-08
-3.10692e-15
2.54948e-08
2.3316e-08
-3.3459e-15
2.66758e-08
3.58642e-08
-3.04511e-15
2.67891e-08
5.00418e-08
-3.1065e-15
2.52251e-08
6.36671e-08
-2.83375e-15
2.16535e-08
7.34317e-08
-2.57314e-15
1.63076e-08
7.62964e-08
-2.60074e-15
9.97747e-09
7.11153e-08
-2.37124e-15
3.81847e-09
5.7856e-08
-2.1221e-15
3.05135e-08
-1.4441e-15
-3.56444e-09
-3.9568e-08
-6.34574e-15
-3.3984e-09
-4.05224e-08
-6.14981e-15
-3.14804e-09
-4.12128e-08
-6.038e-15
-2.81463e-09
-4.16307e-08
-5.87309e-15
-2.40143e-09
-4.17854e-08
-5.78509e-15
-1.91361e-09
-4.16803e-08
-5.64295e-15
-1.35799e-09
-4.13312e-08
-5.45709e-15
-7.42576e-10
-4.07549e-08
-5.28075e-15
-7.60808e-11
-3.99685e-08
-5.13208e-15
6.32846e-10
-3.90018e-08
-4.99254e-15
1.37604e-09
-3.7872e-08
-4.88084e-15
2.14588e-09
-3.6607e-08
-4.44426e-15
2.93534e-09
-3.52299e-08
-4.54041e-15
3.73794e-09
-3.37627e-08
-4.50119e-15
4.54798e-09
-3.2228e-08
-4.41277e-15
5.36076e-09
-3.06462e-08
-4.31767e-15
6.17272e-09
-2.90363e-08
-4.23111e-15
6.98154e-09
-2.74123e-08
-4.144e-15
7.78635e-09
-2.57865e-08
-4.06489e-15
8.58762e-09
-2.41657e-08
-3.98512e-15
9.38761e-09
-2.25468e-08
-3.90982e-15
1.01908e-08
-2.09369e-08
-3.83932e-15
1.10041e-08
-1.93071e-08
-3.77218e-15
1.18377e-08
-1.76411e-08
-3.70765e-15