/*--------------------------------*- C++ -*----------------------------------*\
| =========                 |                                                 |
| \\      /  F ield         | OpenFOAM: The Open Source CFD Toolbox           |
|  \\    /   O peration     | Version:  v2012                                 |
|   \\  /    A nd           | Website:  www.openfoam.com                      |
|    \\/     M anipulation  |                                                 |
\*---------------------------------------------------------------------------*/
FoamFile
{
    version     2.0;
    format      ascii;
    class       surfaceScalarField;
    location    "0.6";
    object      alphaPhi0.water;
}
// * * * * * * * * * * * * * * * * * * * * * * * * * * * * * * * * * * * * * //

dimensions      [0 3 -1 0 0 0 0];
oriented        oriented;


internalField   nonuniform List<scalar> 
8162
(
-2.61154e-45
-5.58097e-35
-1.65801e-42
-3.58663e-53
-2.32108e-44
-6.09386e-52
-1.49363e-59
-2.94158e-52
-6.9182e-60
-3.90252e-66
-1.11291e-58
-2.61007e-66
-4.81647e-80
-2.72909e-65
-5.87618e-73
-4.80915e-83
-3.05191e-79
-6.37703e-87
-2.87271e-86
-2.85736e-82
-5.54798e-90
-6.29916e-90
-1.60307e-85
-2.91146e-93
-9.86247e-94
-3.24325e-89
-5.59872e-97
-7.92468e-97
-4.73371e-93
-7.75998e-101
-3.07239e-101
-3.50415e-96
-5.37624e-104
-9.99759e-105
-1.18567e-100
-2.21103e-108
-3.10618e-110
-4.04256e-104
-6.35886e-112
-9.50143e-116
-9.44087e-110
-1.80592e-117
-4.55537e-122
-2.92205e-115
-5.0201e-123
-3.88628e-130
-1.09484e-121
-2.19577e-129
-1.13461e-141
-8.4556e-130
-1.70071e-137
-9.10347e-156
-2.40389e-141
-4.56475e-149
-7.90294e-163
-1.93285e-155
-3.5055e-163
-2.88851e-163
-8.2775e-174
-1.18531e-27
-3.00315e-20
-1.06399e-27
-7.30077e-36
-1.24287e-26
-3.87355e-34
-3.35034e-45
-6.46401e-35
-2.06495e-42
-4.68952e-53
-2.71792e-44
-7.7662e-52
-1.89701e-59
-3.53555e-52
-8.99781e-60
-5.13031e-66
-1.30609e-58
-3.27448e-66
-6.62771e-80
-3.33129e-65
-7.54334e-73
-6.19277e-83
-3.75463e-79
-8.55749e-87
-3.80529e-86
-3.45338e-82
-6.83245e-90
-8.30471e-90
-1.99927e-85
-3.68802e-93
-1.327e-93
-4.04805e-89
-7.10261e-97
-1.05836e-96
-6.04508e-93
-1.01098e-100
-3.75605e-101
-4.41912e-96
-7.01857e-104
-1.59281e-104
-1.38629e-100
-2.64442e-108
-3.48826e-110
-5.91729e-104
-9.93333e-112
-1.36539e-115
-1.00723e-109
-1.9911e-117
-5.32497e-122
-3.88029e-115
-7.09901e-123
-5.2047e-130
-1.19748e-121
-2.52619e-129
-2.22629e-141
-1.04104e-129
-2.24014e-137
-1.71423e-155
-4.07094e-141
-8.78255e-149
-3.88838e-163
-3.59898e-155
-6.46945e-163
-1.3312e-163
-8.04844e-174
2.45057e-11
-7.50846e-09
-3.41551e-15
3.30447e-11
-2.33777e-08
-8.46349e-16
3.43844e-10
-3.23121e-08
-1.6715e-14
1.61262e-09
-2.92266e-08
6.11101e-15
3.35045e-09
-3.86201e-08
-1.939e-14
8.76821e-09
-7.645e-08
2.14433e-15
1.10837e-08
-1.20657e-07
-1.91096e-14
9.66843e-09
-1.34739e-07
-1.84251e-14
7.19606e-09
-1.37981e-07
-2.1317e-14
-1.34631e-07
-2.64329e-14
-3.30173e-10
-2.45205e-08
-1.09995e-15
-2.20128e-11
-3.6729e-09
-1.55548e-16
-1.31788e-13
-2.1662e-10
-1.24582e-17
-7.72851e-18
-1.72932e-12
-7.5652e-20
-3.36134e-21
-8.40558e-17
-3.41054e-24
-1.74928e-27
-3.21778e-20
-1.21815e-27
-9.30108e-36
-1.65759e-26
-4.63714e-34
-4.29329e-45
-7.54015e-35
-2.19301e-42
-6.14245e-53
-3.2082e-44
-9.21383e-52
-2.41327e-59
-4.29083e-52
-1.1253e-59
-6.75555e-66
-1.54621e-58
-4.07413e-66
-7.92228e-80
-4.09791e-65
-9.77001e-73
-8.03187e-83
-4.57541e-79
-9.96431e-87
-5.07037e-86
-4.22457e-82
-8.5676e-90
-1.10724e-89
-2.51858e-85
-4.71837e-93
-1.80344e-93
-5.12963e-89
-9.12476e-97
-1.40358e-96
-7.82342e-93
-1.33252e-100
-4.69423e-101
-5.55391e-96
-9.11947e-104
-2.35302e-104
-1.67026e-100
-3.23484e-108
-3.93334e-110
-8.09957e-104
-1.44107e-111
-1.83701e-115
-1.0916e-109
-2.20984e-117
-6.0855e-122
-4.86383e-115
-9.41265e-123
-6.66261e-130
-1.30418e-121
-2.84559e-129
-3.81274e-141
-1.26108e-129
-2.82166e-137
-3.3142e-155
-6.38034e-141
-1.47653e-148
-1.85598e-163
-6.88025e-155
-1.22706e-162
-5.99347e-164
-1.33785e-173
2.0089e-11
-7.52855e-09
-2.62655e-15
-3.92211e-12
-2.33537e-08
4.54688e-16
2.10224e-10
-3.25262e-08
-1.39664e-14
9.01345e-10
-2.99177e-08
-1.56362e-14
3.55772e-09
-4.12764e-08
-1.13494e-14
9.92775e-09
-8.282e-08
-1.24845e-14
1.18862e-08
-1.22616e-07
-8.00341e-15
1.01059e-08
-1.32895e-07
-2.47143e-14
7.12081e-09
-1.34439e-07
-2.51316e-14
3.67026e-09
-1.30803e-07
-1.94817e-14
-6.2115e-10
-8.29489e-08
-1.94516e-14
-1.39928e-09
-5.74952e-08
-6.72763e-15
-3.48543e-10
-2.27995e-08
-1.27936e-15
-2.35063e-11
-3.426e-09
-1.84227e-16
-1.68179e-13
-2.05837e-10
-1.2165e-17
-9.1914e-18
-1.98308e-12
-8.92735e-20
-3.95543e-21
-9.11107e-17
-3.75067e-24
-2.53036e-27
-3.45954e-20
-1.4407e-27
-1.18137e-35
-2.19048e-26
-7.2822e-34
-5.49573e-45
-8.85488e-35
-2.98314e-42
-8.05704e-53
-3.81565e-44
-1.21869e-51
-3.07468e-59
-5.25425e-52
-1.45376e-59
-8.90536e-66
-1.84575e-58
-4.95312e-66
-1.06411e-79
-5.0761e-65
-1.2065e-72
-1.04911e-82
-5.67325e-79
-1.25218e-86
-6.79149e-86
-5.22974e-82
-1.04842e-89
-1.49262e-89
-3.20246e-85
-5.96452e-93
-2.4741e-93
-6.59713e-89
-1.17764e-96
-1.85013e-96
-1.02537e-92
-1.77383e-100
-6.07776e-101
-6.96328e-96
-1.18025e-103
-3.26626e-104
-2.10441e-100
-4.12764e-108
-4.58739e-110
-1.04938e-103
-1.97429e-111
-2.35133e-115
-1.24989e-109
-2.54751e-117
-7.13939e-122
-5.8509e-115
-1.1911e-122
-8.82574e-130
-1.51013e-121
-3.29923e-129
-6.72048e-141
-1.66819e-129
-3.68524e-137
-6.56579e-155
-1.14568e-140
-2.56046e-148
-8.63301e-164
-1.34219e-154
-2.38488e-162
-2.7125e-164
-2.89144e-173
1.55309e-11
-7.54408e-09
-3.17057e-15
-2.3968e-11
-2.33142e-08
-2.08534e-15
1.90898e-11
-3.25692e-08
-1.02169e-14
4.79749e-10
-3.03784e-08
-2.99801e-14
4.37782e-09
-4.51745e-08
-1.54013e-14
1.06706e-08
-8.91128e-08
-1.66579e-14
1.18459e-08
-1.23791e-07
-1.55882e-14
9.62622e-09
-1.30596e-07
-2.1961e-14
6.33912e-09
-1.30551e-07
-2.54831e-14
2.87869e-09
-1.26949e-07
-3.30774e-14
-9.96339e-10
-7.87978e-08
-1.686e-14
-1.51352e-09
-5.43627e-08
-6.7699e-15
-3.63897e-10
-2.11897e-08
-1.06732e-15
-2.48435e-11
-3.20079e-09
-1.67583e-16
-2.11045e-13
-1.96315e-10
-1.25027e-17
-1.0934e-17
-2.2673e-12
-1.08853e-19
-4.61555e-21
-1.0016e-16
-4.40455e-24
-3.58826e-27
-3.72996e-20
-1.49347e-27
-1.49624e-35
-2.86671e-26
-9.17363e-34
-7.02737e-45
-1.04639e-34
-3.52465e-42
-1.05793e-52
-4.57007e-44
-1.5286e-51
-3.92283e-59
-6.48642e-52
-1.90323e-59
-1.17456e-65
-2.22069e-58
-6.28524e-66
-1.37654e-79
-6.32651e-65
-1.57239e-72
-1.3799e-82
-7.07698e-79
-1.60706e-86
-9.13889e-86
-6.54949e-82
-1.33478e-89
-2.03375e-89
-4.10706e-85
-7.69733e-93
-3.42396e-93
-8.60656e-89
-1.54547e-96
-2.42713e-96
-1.35994e-92
-2.3854e-100
-8.28388e-101
-8.7212e-96
-1.51837e-103
-4.30374e-104
-2.81897e-100
-5.56545e-108
-5.89755e-110
-1.29839e-103
-2.57483e-111
-2.91568e-115
-1.64554e-109
-3.24565e-117
-9.73733e-122
-6.88938e-115
-1.46379e-122
-1.41711e-129
-2.23989e-121
-4.45622e-129
-1.56117e-140
-2.98176e-129
-5.84491e-137
-1.32515e-154
-3.12444e-140
-5.86175e-148
-4.02667e-164
-2.6468e-154
-4.72227e-162
-4.25483e-164
-1.42431e-164
-6.77847e-173
-5.59677e-165
-2.45494e-175
1.10617e-11
-7.55515e-09
1.16683e-16
-3.32829e-11
-2.32699e-08
-1.43903e-15
-2.2923e-10
-3.23733e-08
-5.91111e-15
3.13307e-10
-3.09209e-08
-2.88963e-14
5.28805e-09
-5.01492e-08
-2.79103e-14
1.0942e-08
-9.47667e-08
-1.64384e-14
1.12612e-08
-1.2411e-07
-1.08994e-14
8.69864e-09
-1.27939e-07
-1.86262e-14
5.27137e-09
-1.26484e-07
-2.70034e-14
1.9505e-09
-1.23204e-07
-3.34355e-14
-1.40545e-09
-7.51e-08
-7.65672e-15
-1.61852e-09
-5.13447e-08
-5.11473e-15
-3.75883e-10
-1.96956e-08
-1.15571e-15
-2.60129e-11
-2.99532e-09
-1.73398e-16
-2.60758e-13
-1.87876e-10
-1.19144e-17
-1.30585e-17
-2.58456e-12
-1.36948e-19
-5.34198e-21
-1.1197e-16
-5.21679e-24
-4.9901e-27
-4.02968e-20
-1.71187e-27
-1.88981e-35
-3.71391e-26
-1.33965e-33
-8.9756e-45
-1.24352e-34
-4.56951e-42
-1.38992e-52
-5.50869e-44
-1.92182e-51
-5.01138e-59
-8.06543e-52
-2.37364e-59
-1.54916e-65
-2.69159e-58
-7.44482e-66
-1.73645e-79
-7.92689e-65
-1.90788e-72
-1.82743e-82
-8.82748e-79
-1.9742e-86
-1.23473e-85
-8.29496e-82
-1.65697e-89
-2.79947e-89
-5.30857e-85
-9.86858e-93
-4.77683e-93
-1.13818e-88
-2.05176e-96
-3.1745e-96
-1.82376e-92
-3.25139e-100
-1.20681e-100
-1.09321e-95
-1.95766e-103
-5.42389e-104
-4.0686e-100
-8.06078e-108
-9.31267e-110
-1.54438e-103
-3.22364e-111
-3.58884e-115
-2.79685e-109
-5.09186e-117
-1.97111e-121
-8.17115e-115
-1.78902e-122
-3.34158e-129
-5.38729e-121
-8.94529e-129
-5.33032e-140
-8.07822e-129
-1.36411e-136
-2.7006e-154
-1.17077e-139
-1.97518e-147
-2.17392e-164
-5.22109e-154
-9.42122e-162
-1.84627e-164
-1.28685e-164
-1.63763e-172
-2.30943e-165
-1.00644e-175
6.86818e-12
-7.56203e-09
2.1268e-15
-3.97668e-11
-2.32232e-08
-2.73389e-15
-4.62008e-10
-3.1951e-08
-1.04775e-15
3.47887e-10
-3.17308e-08
-3.71122e-14
5.87377e-09
-5.56751e-08
-3.04737e-14
1.07117e-08
-9.96046e-08
-9.32398e-15
1.02891e-08
-1.23687e-07
-1.00205e-14
7.56478e-09
-1.25103e-07
-1.96493e-14
4.14865e-09
-1.22391e-07
-2.7856e-14
1.0101e-09
-1.19601e-07
-2.88893e-14
-1.80393e-09
-7.18647e-08
-1.11095e-14
-1.70648e-09
-4.84584e-08
-5.02994e-15
-3.84402e-10
-1.83119e-08
-9.28155e-16
-2.70114e-11
-2.80732e-09
-1.46489e-16
-3.17698e-13
-1.80346e-10
-1.17604e-17
-1.57188e-17
-2.93859e-12
-1.49972e-19
-6.13312e-21
-1.27639e-16
-5.99959e-24
-6.80851e-27
-4.35827e-20
-1.73242e-27
-2.38044e-35
-4.76131e-26
-1.6437e-33
-1.14499e-44
-1.48509e-34
-5.3275e-42
-1.82633e-52
-6.67795e-44
-2.32804e-51
-6.40975e-59
-1.00916e-51
-3.03343e-59
-2.04224e-65
-3.28491e-58
-9.28828e-66
-2.47323e-79
-9.97669e-65
-2.45668e-72
-2.43634e-82
-1.1307e-78
-2.56926e-86
-1.67407e-85
-1.06202e-81
-2.147e-89
-3.89064e-89
-6.91067e-85
-1.29484e-92
-6.7137e-93
-1.52454e-88
-2.76983e-96
-4.1496e-96
-2.47099e-92
-4.46435e-100
-1.89304e-100
-1.37509e-95
-2.5141e-103
-6.57758e-104
-6.34123e-100
-1.25394e-107
-1.91623e-109
-1.77557e-103
-3.87816e-111
-4.56438e-115
-6.12704e-109
-1.04014e-116
-5.7744e-121
-1.02754e-114
-2.2589e-122
-9.99381e-129
-1.64759e-120
-2.59913e-128
-1.90293e-139
-2.40128e-128
-4.04219e-136
-5.5166e-154
-3.83833e-139
-6.96548e-147
-2.01485e-164
-1.023e-153
-1.8905e-161
-7.73553e-165
-2.28096e-164
-4.0247e-172
-6.95565e-165
-9.22059e-166
-3.84384e-176
4.25305e-166
-3.39292e-176
3.33585e-12
-7.56539e-09
5.12458e-15
-4.2967e-11
-2.31769e-08
-2.15703e-16
-5.55044e-10
-3.1439e-08
2.74668e-15
7.21515e-10
-3.30074e-08
-2.92068e-14
6.22584e-09
-6.11794e-08
-3.02042e-14
1.02087e-08
-1.03587e-07
-7.88617e-15
9.16203e-09
-1.22641e-07
-4.76779e-15
6.39527e-09
-1.2221e-07
-2.39488e-14
3.09914e-09
-1.18384e-07
-2.84249e-14
1.30258e-10
-1.16111e-07
-3.40588e-14
-2.16642e-09
-6.9054e-08
-5.44415e-15
-1.77296e-09
-4.57e-08
-4.16455e-15
-3.89485e-10
-1.7026e-08
-1.0978e-15
-2.78407e-11
-2.63377e-09
-1.67423e-16
-3.82406e-13
-1.7353e-10
-1.17218e-17
-1.91439e-17
-3.33572e-12
-1.74583e-19
-6.98528e-21
-1.48735e-16
-6.94927e-24
-9.11919e-27
-4.71395e-20
-1.92887e-27
-2.99034e-35
-6.03879e-26
-2.25649e-33
-1.45869e-44
-1.78105e-34
-6.80927e-42
-2.39896e-52
-8.13556e-44
-2.94267e-51
-8.20798e-59
-1.2693e-51
-3.88578e-59
-2.68975e-65
-4.03489e-58
-1.13822e-65
-3.28872e-79
-1.26028e-64
-3.0806e-72
-3.26953e-82
-1.45675e-78
-3.31591e-86
-2.27673e-85
-1.37401e-81
-2.77598e-89
-5.45527e-89
-9.05495e-85
-1.71016e-92
-9.50001e-93
-2.06628e-88
-3.80225e-96
-5.43937e-96
-3.37987e-92
-6.21419e-100
-3.1754e-100
-1.74203e-95
-3.24855e-103
-7.71864e-104
-1.05306e-99
-2.08737e-107
-4.60454e-109
-1.98399e-103
-4.51408e-111
-6.46667e-115
-1.4668e-108
-2.47937e-116
-1.68752e-120
-1.50918e-114
-3.17424e-122
-2.73979e-128
-4.43226e-120
-7.52889e-128
-5.39183e-139
-5.94562e-128
-1.09754e-135
-1.09892e-153
-9.41031e-139
-1.95022e-146
-3.65568e-164
-1.96819e-153
-3.7648e-161
-3.12631e-165
-5.37397e-164
-1.00278e-171
-2.84633e-165
-3.55762e-166
-1.48429e-176
1.50037e-166
-1.29057e-176
6.97314e-13
-7.56611e-09
3.41145e-15
-4.00958e-11
-2.31361e-08
-1.28579e-15
-4.52461e-10
-3.10266e-08
3.73384e-15
1.49546e-09
-3.49554e-08
-2.90216e-14
6.59865e-09
-6.62826e-08
-2.20358e-14
9.75236e-09
-1.06741e-07
-3.14638e-15
8.1451e-09
-1.21033e-07
-8.14215e-15
5.35066e-09
-1.19274e-07
-2.57856e-14
2.21507e-09
-1.14507e-07
-2.9469e-14
-6.26533e-10
-1.12679e-07
-3.33785e-14
-2.47734e-09
-6.65826e-08
-9.86832e-15
-1.81599e-09
-4.30525e-08
-4.16807e-15
-3.91171e-10
-1.58222e-08
-1.0125e-15
-2.84985e-11
-2.47111e-09
-1.54992e-16
-4.55564e-13
-1.67183e-10
-1.10904e-17
-2.3669e-17
-3.78306e-12
-1.95709e-19
-7.89236e-21
-1.77484e-16
-8.77898e-24
-1.19979e-26
-5.0935e-20
-2.13585e-27
-3.74636e-35
-7.5755e-26
-2.92444e-33
-1.85569e-44
-2.14333e-34
-8.34363e-42
-3.14861e-52
-9.95306e-44
-3.61044e-51
-1.05234e-58
-1.60328e-51
-4.95436e-59
-3.53788e-65
-4.986e-58
-1.41104e-65
-4.55016e-79
-1.59665e-64
-3.93561e-72
-4.41591e-82
-1.90308e-78
-4.32742e-86
-3.10486e-85
-1.79552e-81
-3.67059e-89
-7.71093e-89
-1.19355e-84
-2.2859e-92
-1.35267e-92
-2.83074e-88
-5.27204e-96
-7.18324e-96
-4.66389e-92
-8.67643e-100
-5.5791e-100
-2.234e-95
-4.1998e-103
-8.8221e-104
-1.81723e-99
-3.61884e-107
-1.09897e-108
-2.16993e-103
-5.09474e-111
-1.14026e-114
-3.32121e-108
-5.84967e-116
-4.06937e-120
-2.89317e-114
-5.53779e-122
-6.12158e-128
-9.54564e-120
-1.79644e-127
-1.19957e-138
-1.18216e-127
-2.42592e-135
-2.25982e-153
-1.84404e-138
-4.28643e-146
-8.79823e-164
-3.81015e-153
-7.32231e-161
-1.21758e-165
-1.35666e-163
-2.5291e-171
-1.12252e-165
-1.32499e-166
-6.21968e-177
4.95909e-167
-4.78854e-177
-1.09403e-12
-7.56503e-09
1.60638e-15
-3.46748e-11
-2.31025e-08
2.34596e-15
-2.21158e-10
-3.08401e-08
8.50844e-15
2.44727e-09
-3.76239e-08
-2.97348e-14
7.00678e-09
-7.08421e-08
-1.31984e-14
9.42973e-09
-1.09164e-07
-9.435e-15
7.34067e-09
-1.18944e-07
-9.26104e-15
4.51532e-09
-1.16291e-07
-2.3813e-14
1.53089e-09
-1.10749e-07
-3.12623e-14
-1.22826e-09
-1.09249e-07
-3.31955e-14
-2.73221e-09
-6.43369e-08
-1.30045e-14
-1.83665e-09
-4.04953e-08
-4.16604e-15
-3.89583e-10
-1.46865e-08
-9.52577e-16
-2.89756e-11
-2.31622e-09
-1.36832e-16
-5.36969e-13
-1.61026e-10
-1.09351e-17
-2.97756e-17
-4.26969e-12
-2.22457e-19
-8.84571e-21
-2.16991e-16
-1.09061e-23
-1.55173e-26
-5.49216e-20
-2.3323e-27
-4.68087e-35
-9.39834e-26
-3.6019e-33
-2.35715e-44
-2.58623e-34
-9.90542e-42
-4.12745e-52
-1.22189e-43
-4.32705e-51
-1.35095e-58
-2.03171e-51
-6.17843e-59
-4.64586e-65
-6.19625e-58
-1.73355e-65
-5.66345e-79
-2.02729e-64
-5.01441e-72
-6.00186e-82
-2.45457e-78
-5.69167e-86
-4.24495e-85
-2.36886e-81
-4.91785e-89
-1.09777e-88
-1.58195e-84
-3.08881e-92
-1.93716e-92
-3.9154e-88
-7.4056e-96
-9.6171e-96
-6.48857e-92
-1.2209e-99
-9.998e-100
-2.92005e-95
-5.48298e-103
-9.91319e-104
-3.17164e-99
-6.37952e-107
-2.39216e-108
-2.34846e-103
-5.63648e-111
-2.59185e-114
-6.73993e-108
-1.25498e-115
-8.01742e-120
-6.98455e-114
-1.24227e-121
-1.13952e-127
-1.69291e-119
-3.49464e-127
-2.31527e-138
-1.99038e-127
-4.46092e-135
-4.28996e-153
-3.30243e-138
-8.16953e-146
-2.2646e-163
-7.29013e-153
-1.4993e-160
-4.56573e-166
-3.50234e-163
-6.45555e-171
-4.26205e-166
-4.76666e-167
-5.17052e-177
1.51678e-167
-1.71876e-177
-2.33765e-12
-7.5627e-09
-2.16838e-16
-3.47744e-11
-2.30701e-08
3.3092e-15
9.97241e-12
-3.08848e-08
6.84081e-15
3.21279e-09
-4.08267e-08
-1.77436e-14
7.21086e-09
-7.48402e-08
-3.06521e-15
9.05785e-09
-1.11011e-07
-5.31934e-15
6.64507e-09
-1.16531e-07
-1.04928e-14
3.84459e-09
-1.13316e-07
-2.43817e-14
9.96611e-10
-1.07094e-07
-2.96091e-14
-1.71826e-09
-1.05776e-07
-3.28904e-14
-2.93988e-09
-6.22352e-08
-8.02967e-15
-1.8382e-09
-3.80169e-08
-3.53884e-15
-3.84995e-10
-1.36102e-08
-1.13826e-15
-2.92575e-11
-2.16729e-09
-1.47681e-16
-6.21924e-13
-1.5484e-10
-1.01316e-17
-3.81386e-17
-4.71265e-12
-2.65827e-19
-9.83404e-21
-2.71476e-16
-1.32777e-23
-1.9743e-26
-5.90358e-20
-2.51948e-27
-5.83283e-35
-1.15303e-25
-4.686e-33
-2.98939e-44
-3.12683e-34
-1.24465e-41
-5.40178e-52
-1.50422e-43
-5.41762e-51
-1.73687e-58
-2.58058e-51
-7.98498e-59
-6.08952e-65
-7.74186e-58
-2.16803e-65
-8.35955e-79
-2.57817e-64
-6.40465e-72
-8.20766e-82
-3.25761e-78
-7.65249e-86
-5.818e-85
-3.15381e-81
-6.62721e-89
-1.57263e-88
-2.10775e-84
-4.18444e-92
-2.78933e-92
-5.46147e-88
-1.04533e-95
-1.31591e-95
-9.09669e-92
-1.72182e-99
-1.78461e-99
-3.92405e-95
-7.28463e-103
-1.1125e-103
-5.4789e-99
-1.11517e-106
-4.65585e-108
-2.56503e-103
-6.20103e-111
-6.62014e-114
-1.22226e-107
-2.39788e-115
-1.34357e-119
-1.76286e-113
-3.12142e-121
-1.88341e-127
-2.59511e-119
-5.76872e-127
-4.47528e-138
-3.05894e-127
-7.27349e-135
-1.0067e-152
-6.44589e-138
-1.55871e-145
-5.9502e-163
-1.54903e-152
-2.90903e-160
-1.65005e-166
-9.17393e-163
-1.66823e-170
-1.55568e-166
-1.70748e-167
-1.39594e-176
4.19819e-168
-5.95096e-178
-3.30305e-12
-7.5594e-09
-7.06811e-16
-4.31543e-11
-2.30302e-08
8.86737e-16
1.59864e-10
-3.10878e-08
1.30014e-15
3.55499e-09
-4.42218e-08
-9.1572e-15
6.99808e-09
-7.82833e-08
-1.46354e-16
8.43247e-09
-1.12445e-07
-9.93666e-15
5.89927e-09
-1.13998e-07
-1.29842e-14
3.22361e-09
-1.1045e-07
-2.19698e-14
5.18668e-10
-1.03551e-07
-2.96888e-14
-2.16679e-09
-1.02235e-07
-3.05801e-14
-3.11579e-09
-6.02532e-08
-1.20615e-14
-1.8245e-09
-3.5623e-08
-3.3791e-15
-3.77844e-10
-1.25907e-08
-8.1437e-16
-2.93445e-11
-2.024e-09
-1.17823e-16
-7.516e-13
-1.48581e-10
-1.03558e-17
-4.96751e-17
-5.0225e-12
-2.71857e-19
-1.08434e-20
-3.46489e-16
-1.63409e-23
-2.47306e-26
-6.32003e-20
-2.60003e-27
-7.24911e-35
-1.39889e-25
-5.31548e-33
-3.78507e-44
-3.78549e-34
-1.43137e-41
-7.05553e-52
-1.85575e-43
-6.50318e-51
-2.23696e-58
-3.2824e-51
-1.01944e-58
-7.96587e-65
-9.72353e-58
-2.76342e-65
-1.0371e-78
-3.28226e-64
-8.39688e-72
-1.12914e-81
-4.24921e-78
-9.61316e-86
-7.99426e-85
-4.23507e-81
-9.13179e-89
-2.26496e-88
-2.82263e-84
-5.72681e-92
-4.03742e-92
-7.67352e-88
-1.48511e-95
-1.85789e-95
-1.28465e-91
-2.43817e-99
-3.12074e-99
-5.47508e-95
-9.99943e-103
-1.28898e-103
-9.23967e-99
-1.90841e-106
-8.16547e-108
-2.95989e-103
-7.02853e-111
-1.61633e-113
-2.0081e-107
-4.11766e-115
-2.00533e-119
-4.05762e-113
-7.47817e-121
-3.00113e-127
-3.60368e-119
-8.46526e-127
-1.03129e-137
-4.72611e-127
-1.14215e-134
-2.76798e-152
-1.64367e-137
-3.54473e-145
-1.58372e-162
-4.16513e-152
-8.4884e-160
-5.92611e-167
-2.43298e-162
-4.36576e-170
-5.45735e-167
-8.23733e-168
-5.52428e-176
1.00482e-168
-1.98892e-178
-4.12462e-12
-7.55527e-09
-3.68336e-15
-5.42613e-11
-2.29801e-08
6.33856e-15
2.30281e-10
-3.13724e-08
3.70741e-16
3.47821e-09
-4.74697e-08
5.12171e-15
6.38089e-09
-8.1186e-08
1.49383e-15
7.52211e-09
-1.13587e-07
-9.1288e-15
5.03625e-09
-1.11512e-07
-1.44711e-14
2.56564e-09
-1.07773e-07
-1.86033e-14
2.86495e-11
-1.00144e-07
-3.18619e-14
-2.60558e-09
-9.86402e-08
-3.22805e-14
-3.26892e-09
-5.83941e-08
-1.01955e-14
-1.7987e-09
-3.33308e-08
-2.74484e-15
-3.68611e-10
-1.16287e-08
-8.93612e-16
-2.92651e-11
-1.88669e-09
-1.33996e-16
-8.75625e-13
-1.42333e-10
-9.67274e-18
-6.55841e-17
-5.21014e-12
-3.03415e-19
-1.18574e-20
-4.4902e-16
-2.13108e-23
-3.05221e-26
-6.73255e-20
-3.06515e-27
-8.98612e-35
-1.67841e-25
-6.95726e-33
-4.7848e-44
-4.58644e-34
-1.82461e-41
-9.19447e-52
-2.29303e-43
-8.13658e-51
-2.88709e-58
-4.17766e-51
-1.30699e-58
-1.03993e-64
-1.22753e-57
-3.47058e-65
-1.54062e-78
-4.18146e-64
-1.07431e-71
-1.5624e-81
-5.69828e-78
-1.4068e-85
-1.10152e-84
-5.73301e-81
-1.25635e-88
-3.2766e-88
-3.79936e-84
-7.85635e-92
-5.87406e-92
-1.08479e-87
-2.12471e-95
-2.73299e-95
-1.82702e-91
-3.48487e-99
-5.29645e-99
-8.00437e-95
-1.44238e-102
-1.67923e-103
-1.51052e-98
-3.19021e-106
-1.31021e-107
-4.07679e-103
-8.96454e-111
-3.50677e-113
-3.03847e-107
-6.45969e-115
-2.79469e-119
-8.18006e-113
-1.58907e-120
-5.17368e-127
-4.76556e-119
-1.15835e-126
-3.04191e-137
-8.47172e-127
-1.93927e-134
-1.51105e-151
-5.21261e-137
-1.032e-144
-4.2616e-162
-2.18155e-151
-4.41653e-159
-2.86154e-167
-6.51799e-162
-1.1565e-169
-1.8409e-167
-1.34923e-167
-2.28863e-175
1.8232e-169
-6.42473e-179
-4.74328e-12
-7.55052e-09
-1.03956e-15
-6.15127e-11
-2.29234e-08
-2.18999e-15
2.54345e-10
-3.16882e-08
-9.49455e-15
3.13296e-09
-5.03483e-08
1.10709e-14
5.53063e-09
-8.35837e-08
1.56823e-17
6.44184e-09
-1.14498e-07
-5.06863e-15
4.09842e-09
-1.09169e-07
-1.76178e-14
1.85769e-09
-1.05314e-07
-2.0855e-14
-5.23385e-10
-9.68599e-08
-3.02301e-14
-3.02505e-09
-9.50722e-08
-3.27529e-14
-3.39774e-09
-5.66589e-08
-1.10356e-14
-1.76267e-09
-3.11593e-08
-2.26595e-15
-3.57684e-10
-1.07256e-08
-7.68012e-16
-2.90491e-11
-1.75557e-09
-1.20369e-16
-9.68917e-13
-1.36112e-10
-8.69939e-18
-8.73649e-17
-5.30194e-12
-2.96198e-19
-1.28579e-20
-5.87435e-16
-2.62273e-23
-3.71422e-26
-7.13147e-20
-3.01839e-27
-1.11119e-34
-1.99168e-25
-7.62206e-33
-6.03912e-44
-5.5585e-34
-2.08689e-41
-1.19515e-51
-2.83647e-43
-9.77995e-51
-3.73567e-58
-5.31657e-51
-1.68193e-58
-1.35498e-64
-1.5577e-57
-4.51839e-65
-1.97243e-78
-5.32918e-64
-1.42154e-71
-2.17393e-81
-7.54317e-78
-1.83523e-85
-1.52264e-84
-7.81907e-81
-1.75493e-88
-4.75728e-88
-5.14135e-84
-1.08011e-91
-8.59063e-92
-1.54138e-87
-3.03363e-95
-4.21892e-95
-2.61639e-91
-4.9861e-99
-8.68995e-99
-1.23262e-94
-2.19061e-102
-2.93517e-103
-2.38824e-98
-5.21753e-106
-1.95384e-107
-8.18371e-103
-1.53698e-110
-6.70175e-113
-4.30006e-107
-9.41333e-115
-3.86033e-119
-1.45495e-112
-2.97183e-120
-1.11966e-126
-6.44725e-119
-1.57012e-126
-9.49418e-137
-2.04357e-126
-4.1337e-134
-6.08683e-151
-1.55351e-136
-3.18096e-144
-1.15688e-161
-8.30059e-151
-1.81914e-158
-4.68471e-167
-1.75838e-161
-3.09583e-169
-5.96066e-168
-5.05287e-167
-9.54849e-175
8.91164e-171
-2.00324e-179
-5.10825e-12
-7.54542e-09
-7.83332e-16
-6.18479e-11
-2.28666e-08
-1.6732e-15
2.62855e-10
-3.20129e-08
-8.40185e-15
2.68113e-09
-5.27666e-08
1.051e-14
4.62952e-09
-8.55321e-08
-9.04706e-15
5.34351e-09
-1.15212e-07
-7.00791e-15
3.1799e-09
-1.07005e-07
-1.07692e-14
1.14858e-09
-1.03057e-07
-2.03522e-14
-1.06525e-09
-9.37075e-08
-2.80704e-14
-3.39343e-09
-9.15761e-08
-2.89241e-14
-3.49366e-09
-5.50314e-08
-1.04314e-14
-1.71714e-09
-2.91203e-08
-2.16706e-15
-3.45299e-10
-9.88205e-09
-7.80104e-16
-2.86965e-11
-1.63058e-09
-1.23752e-16
-1.03613e-12
-1.29821e-10
-7.83819e-18
-1.16798e-16
-5.31323e-12
-3.17799e-19
-1.38258e-20
-7.71158e-16
-3.34243e-23
-4.4596e-26
-7.5069e-20
-3.35231e-27
-1.37086e-34
-2.3377e-25
-9.37246e-33
-7.61103e-44
-6.73597e-34
-2.60417e-41
-1.54932e-51
-3.51114e-43
-1.21569e-50
-4.84848e-58
-6.76111e-51
-2.13964e-58
-1.76246e-64
-1.98713e-57
-5.70044e-65
-2.70145e-78
-6.79402e-64
-1.80902e-71
-3.04081e-81
-1.00483e-77
-2.4934e-85
-2.11274e-84
-1.07377e-80
-2.43839e-88
-6.92714e-88
-6.99714e-84
-1.49194e-91
-1.26309e-91
-2.19932e-87
-4.37326e-95
-6.84327e-95
-3.77279e-91
-7.22957e-99
-1.37776e-98
-1.99553e-94
-3.50949e-102
-7.51684e-103
-3.65366e-98
-8.24381e-106
-2.74938e-107
-2.322e-102
-3.86392e-110
-1.14693e-112
-5.77844e-107
-1.29463e-114
-5.845e-119
-2.3342e-112
-4.97662e-120
-3.14799e-126
-1.0207e-118
-2.33306e-126
-2.56003e-136
-6.15105e-126
-1.14533e-133
-2.37248e-150
-3.76713e-136
-8.47819e-144
-3.15881e-161
-2.74892e-150
-6.49955e-158
-1.75153e-166
-4.76096e-161
-8.3506e-169
-1.84908e-168
-2.133e-166
-3.99651e-174
-3.69287e-171
-6.01894e-180
-5.15228e-12
-7.54027e-09
1.16379e-15
-5.71883e-11
-2.28146e-08
-3.44543e-15
2.71205e-10
-3.23413e-08
-1.16378e-14
2.23393e-09
-5.47293e-08
1.31335e-14
3.8022e-09
-8.71004e-08
-8.91392e-15
4.34826e-09
-1.15758e-07
-8.20416e-15
2.37192e-09
-1.05029e-07
-1.0615e-14
5.06766e-10
-1.00957e-07
-1.89452e-14
-1.53966e-09
-9.06917e-08
-2.72194e-14
-3.68169e-09
-8.81602e-08
-2.68645e-14
-3.54773e-09
-5.34807e-08
-8.45284e-15
-1.66231e-09
-2.72148e-08
-2.11423e-15
-3.31621e-10
-9.09706e-09
-6.49322e-16
-2.81859e-11
-1.51161e-09
-1.00788e-16
-1.0803e-12
-1.23394e-10
-7.92183e-18
-1.55879e-16
-5.25436e-12
-3.05416e-19
-1.47428e-20
-1.01007e-15
-4.27349e-23
-5.28661e-26
-7.84954e-20
-3.36533e-27
-1.68762e-34
-2.71415e-25
-1.03066e-32
-9.57949e-44
-8.1597e-34
-3.00613e-41
-2.00278e-51
-4.348e-43
-1.46248e-50
-6.31572e-58
-8.58748e-51
-2.72316e-58
-2.28941e-64
-2.54887e-57
-7.40619e-65
-3.58381e-78
-8.66485e-64
-2.3599e-71
-4.27438e-81
-1.33559e-77
-3.38174e-85
-2.94486e-84
-1.48377e-80
-3.41478e-88
-1.01099e-87
-9.58254e-84
-2.05739e-91
-1.86763e-91
-3.14878e-87
-6.25795e-95
-1.15855e-94
-5.47864e-91
-1.04397e-98
-2.11449e-98
-3.36205e-94
-5.79011e-102
-2.25548e-102
-5.42062e-98
-1.23542e-105
-3.71208e-107
-6.90667e-102
-1.13147e-109
-1.80071e-112
-7.50506e-107
-1.70607e-114
-1.14985e-118
-3.46715e-112
-7.64662e-120
-9.43945e-126
-2.29353e-118
-4.50676e-126
-5.78332e-136
-1.78196e-125
-3.38758e-133
-8.12244e-150
-7.70577e-136
-1.89527e-143
-8.64765e-161
-9.14181e-150
-2.37863e-157
-7.37488e-166
-1.29102e-160
-2.26237e-168
-5.4929e-169
-9.09548e-166
-1.67672e-173
-2.31274e-171
-1.74175e-180
-4.89273e-12
-7.53538e-09
-1.0727e-15
-4.91517e-11
-2.27703e-08
-5.06615e-15
2.88234e-10
-3.26787e-08
-1.01935e-14
1.85719e-09
-5.62983e-08
1.10559e-14
3.12073e-09
-8.83639e-08
-4.23813e-15
3.5328e-09
-1.1617e-07
-6.7727e-15
1.73466e-09
-1.03231e-07
-5.92864e-15
-1.25576e-11
-9.89742e-08
-1.74824e-14
-1.90522e-09
-8.77943e-08
-2.53263e-14
-3.87455e-09
-8.48152e-08
-2.19271e-14
-3.55535e-09
-5.19676e-08
-7.4121e-15
-1.59866e-09
-2.54334e-08
-1.87377e-15
-3.16836e-10
-8.36766e-09
-6.3222e-16
-2.75144e-11
-1.3986e-09
-9.74968e-17
-1.10456e-12
-1.16858e-10
-7.4443e-18
-2.06708e-16
-5.14002e-12
-3.03348e-19
-1.55932e-20
-1.31367e-15
-5.4109e-23
-6.19093e-26
-8.15155e-20
-3.65135e-27
-2.07368e-34
-3.11723e-25
-1.20949e-32
-1.20437e-43
-9.87842e-34
-3.71408e-41
-2.5816e-51
-5.38526e-43
-1.8328e-50
-8.26198e-58
-1.08891e-50
-3.49133e-58
-2.97156e-64
-3.28812e-57
-9.57324e-65
-5.23395e-78
-1.10582e-63
-3.03013e-71
-6.03566e-81
-1.81019e-77
-4.78716e-85
-4.12709e-84
-2.06166e-80
-4.80229e-88
-1.47825e-87
-1.32148e-83
-2.87404e-91
-2.77811e-91
-4.52073e-87
-9.0712e-95
-2.01944e-94
-8.01344e-91
-1.53046e-98
-3.15131e-98
-5.80125e-94
-9.83215e-102
-6.26607e-102
-7.82649e-98
-1.77061e-105
-4.91681e-107
-1.79537e-101
-3.05458e-109
-2.66838e-112
-9.6662e-107
-2.20436e-114
-3.1929e-118
-4.91685e-112
-1.10968e-119
-2.50233e-125
-7.05459e-118
-1.23009e-125
-1.1902e-135
-4.33089e-125
-8.8684e-133
-3.1023e-149
-1.50966e-135
-3.86437e-143
-2.36891e-160
-4.05056e-149
-8.97851e-157
-3.13451e-165
-3.5083e-160
-6.14289e-168
-1.56425e-169
-3.88476e-165
-7.05049e-173
-9.6755e-172
-4.85935e-181
-4.42522e-12
-7.53095e-09
-1.25097e-15
-4.05113e-11
-2.27343e-08
1.15353e-15
3.14223e-10
-3.30334e-08
-6.37454e-15
1.57448e-09
-5.75585e-08
1.3475e-14
2.60815e-09
-8.93976e-08
-3.10527e-15
2.923e-09
-1.16484e-07
-6.95558e-15
1.28329e-09
-1.01591e-07
-1.13407e-14
-3.47069e-10
-9.71097e-08
-1.67796e-14
-2.14795e-09
-8.49521e-08
-2.25334e-14
-3.9743e-09
-8.15166e-08
-1.88747e-14
-3.51828e-09
-5.04529e-08
-6.76667e-15
-1.52752e-09
-2.37603e-08
-1.68955e-15
-3.01207e-10
-7.68968e-09
-5.50793e-16
-2.67037e-11
-1.29143e-09
-8.35718e-17
-1.1143e-12
-1.10278e-10
-7.06757e-18
-2.71351e-16
-4.99518e-12
-2.7618e-19
-1.63658e-20
-1.69013e-15
-6.58183e-23
-7.16534e-26
-8.40751e-20
-3.54767e-27
-2.54404e-34
-3.54136e-25
-1.32016e-32
-1.51291e-43
-1.19505e-33
-4.33271e-41
-3.31838e-51
-6.67026e-43
-2.19606e-50
-1.08605e-57
-1.37806e-50
-4.34909e-58
-3.85677e-64
-4.26711e-57
-1.23288e-64
-6.83714e-78
-1.41291e-63
-3.89339e-71
-8.55753e-81
-2.42842e-77
-6.47192e-85
-5.82121e-84
-2.87836e-80
-6.7493e-88
-2.16489e-87
-1.83658e-83
-4.00473e-91
-4.15913e-91
-6.50596e-87
-1.30362e-94
-3.56395e-94
-1.18092e-90
-2.23509e-98
-4.58131e-98
-1.00756e-93
-1.67065e-101
-1.48861e-101
-1.10512e-97
-2.45018e-105
-6.61951e-107
-3.94222e-101
-7.01963e-109
-3.87185e-112
-1.29033e-106
-2.8924e-114
-1.00187e-117
-6.94681e-112
-1.57818e-119
-5.61303e-125
-2.1706e-117
-3.7994e-125
-2.58912e-135
-8.87733e-125
-1.96723e-132
-1.57792e-148
-3.41893e-135
-8.33879e-143
-6.49838e-160
-2.22374e-148
-4.55378e-156
-1.33374e-164
-9.59735e-160
-1.67244e-167
-4.26637e-170
-1.66114e-164
-2.97182e-172
-3.38833e-172
-1.33353e-181
-3.74246e-12
-7.52721e-09
-9.67676e-16
-3.12033e-11
-2.27068e-08
3.44253e-17
3.53118e-10
-3.34177e-08
3.79324e-15
1.38956e-09
-5.8595e-08
7.89974e-15
2.25972e-09
-9.02678e-08
-8.65367e-15
2.50926e-09
-1.16734e-07
-8.49203e-15
9.99532e-10
-1.00081e-07
-2.24604e-15
-5.60803e-10
-9.53214e-08
-1.46856e-14
-2.28049e-09
-8.2154e-08
-2.13795e-14
-3.99622e-09
-7.82398e-08
-1.75965e-14
-3.44267e-09
-4.89023e-08
-5.50797e-15
-1.45075e-09
-2.2178e-08
-1.52612e-15
-2.85027e-10
-7.05844e-09
-5.51922e-16
-2.57807e-11
-1.1899e-09
-7.50469e-17
-1.11706e-12
-1.03698e-10
-6.52566e-18
-3.51704e-16
-4.84195e-12
-2.76533e-19
-1.70559e-20
-2.14548e-15
-8.4024e-23
-8.19925e-26
-8.61526e-20
-3.76751e-27
-3.11725e-34
-3.97901e-25
-1.5019e-32
-1.89949e-43
-1.4446e-33
-5.36729e-41
-4.25399e-51
-8.26179e-43
-2.79195e-50
-1.43539e-57
-1.7402e-50
-5.61357e-58
-5.01018e-64
-5.5718e-57
-1.62574e-64
-9.46517e-78
-1.80876e-63
-5.02743e-71
-1.21767e-80
-3.27646e-77
-8.50876e-85
-8.27228e-84
-4.03481e-80
-9.54537e-88
-3.17526e-87
-2.57445e-83
-5.66307e-91
-6.26978e-91
-9.38358e-87
-1.89465e-94
-6.26903e-94
-1.7539e-90
-3.31304e-98
-6.53737e-98
-1.73538e-93
-2.84283e-101
-3.02965e-101
-1.53663e-97
-3.37341e-105
-9.64414e-107
-7.45196e-101
-1.38666e-108
-5.81514e-112
-1.93426e-106
-4.11428e-114
-2.78735e-117
-1.04744e-111
-2.32714e-119
-1.11283e-124
-5.5501e-117
-1.04237e-124
-7.07274e-135
-1.64507e-124
-3.86265e-132
-7.96885e-148
-1.04503e-134
-2.26235e-142
-1.79344e-159
-1.00622e-147
-2.28173e-155
-5.67996e-164
-2.66417e-159
-4.58612e-167
-1.11534e-170
-7.10723e-164
-1.25575e-171
-1.09953e-172
-1.21218e-181
-2.9688e-12
-7.52425e-09
-6.42095e-16
-2.21547e-11
-2.26876e-08
-1.28149e-15
4.02901e-10
-3.38428e-08
6.78134e-15
1.28557e-09
-5.94776e-08
5.3242e-15
2.04778e-09
-9.103e-08
-9.81453e-15
2.25617e-09
-1.16942e-07
-5.2103e-15
8.43588e-10
-9.86687e-08
-6.20818e-15
-6.79023e-10
-9.35772e-08
-1.39681e-14
-2.32987e-09
-7.93937e-08
-1.83572e-14
-3.96304e-09
-7.49625e-08
-1.52844e-14
-3.33807e-09
-4.72923e-08
-5.27956e-15
-1.37072e-09
-2.06717e-08
-1.53514e-15
-2.68626e-10
-6.46965e-09
-4.57962e-16
-2.47713e-11
-1.0938e-09
-5.96432e-17
-1.11367e-12
-9.71418e-11
-5.74835e-18
-4.49398e-16
-4.66056e-12
-2.46165e-19
-1.76671e-20
-2.683e-15
-1.00558e-22