/*--------------------------------*- C++ -*----------------------------------*\
| =========                 |                                                 |
| \\      /  F ield         | OpenFOAM: The Open Source CFD Toolbox           |
|  \\    /   O peration     | Version:  v2012                                 |
|   \\  /    A nd           | Website:  www.openfoam.com                      |
|    \\/     M anipulation  |                                                 |
\*---------------------------------------------------------------------------*/
FoamFile
{
    version     2.0;
    format      ascii;
    class       volScalarField;
    location    "0.6";
    object      p;
}
// * * * * * * * * * * * * * * * * * * * * * * * * * * * * * * * * * * * * * //

dimensions      [1 -1 -2 0 0 0 0];


internalField   nonuniform List<scalar> 
3332
(
3.47742e+06
3.47858e+06
3.47969e+06
3.48074e+06
3.48171e+06
3.48261e+06
3.48345e+06
3.48421e+06
3.48492e+06
3.48557e+06
3.48617e+06
3.48672e+06
3.48723e+06
3.4877e+06
3.48814e+06
3.48854e+06
3.48891e+06
3.48926e+06
3.48957e+06
3.48986e+06
3.47404e+06
3.47529e+06
3.4766e+06
3.47784e+06
3.47903e+06
3.48014e+06
3.48117e+06
3.48212e+06
3.483e+06
3.4838e+06
3.48454e+06
3.48522e+06
3.48585e+06
3.48642e+06
3.48695e+06
3.48744e+06
3.48789e+06
3.48831e+06
3.48869e+06
3.48904e+06
3.48937e+06
3.48967e+06
3.47314e+06
3.4769e+06
3.47216e+06
3.47798e+06
3.47299e+06
3.48117e+06
3.47952e+06
3.48925e+06
3.48666e+06
3.49427e+06
3.47444e+06
3.46935e+06
3.46861e+06
3.47016e+06
3.47131e+06
3.47287e+06
3.47429e+06
3.47574e+06
3.47709e+06
3.47837e+06
3.47955e+06
3.48065e+06
3.48165e+06
3.48257e+06
3.48341e+06
3.48418e+06
3.48489e+06
3.48554e+06
3.48614e+06
3.48668e+06
3.48719e+06
3.48765e+06
3.48808e+06
3.48847e+06
3.48883e+06
3.48917e+06
3.48948e+06
3.47602e+06
3.47347e+06
3.47491e+06
3.47468e+06
3.47566e+06
3.47768e+06
3.47829e+06
3.48102e+06
3.47793e+06
3.49061e+06
3.48807e+06
3.48877e+06
3.46938e+06
3.46612e+06
3.46591e+06
3.46824e+06
3.46973e+06
3.47162e+06
3.47324e+06
3.47486e+06
3.47634e+06
3.47772e+06
3.47898e+06
3.48013e+06
3.48119e+06
3.48215e+06
3.48303e+06
3.48384e+06
3.48457e+06
3.48524e+06
3.48586e+06
3.48643e+06
3.48694e+06
3.48742e+06
3.48786e+06
3.48826e+06
3.48863e+06
3.48898e+06
3.48929e+06
3.47693e+06
3.46742e+06
3.47537e+06
3.46902e+06
3.47627e+06
3.47177e+06
3.47368e+06
3.47256e+06
3.46913e+06
3.48526e+06
3.48248e+06
3.483e+06
3.46428e+06
3.46279e+06
3.4632e+06
3.46629e+06
3.46813e+06
3.47037e+06
3.4722e+06
3.474e+06
3.4756e+06
3.47709e+06
3.47843e+06
3.47965e+06
3.48076e+06
3.48176e+06
3.48268e+06
3.48351e+06
3.48427e+06
3.48497e+06
3.4856e+06
3.48618e+06
3.48671e+06
3.4872e+06
3.48765e+06
3.48806e+06
3.48844e+06
3.48879e+06
3.48911e+06
3.4894e+06
3.47438e+06
3.46232e+06
3.47267e+06
3.46428e+06
3.47421e+06
3.46716e+06
3.46679e+06
3.46465e+06
3.46033e+06
3.47893e+06
3.47653e+06
3.47675e+06
3.45957e+06
3.45959e+06
3.46068e+06
3.46442e+06
3.46662e+06
3.46918e+06
3.47122e+06
3.47319e+06
3.47492e+06
3.4765e+06
3.47792e+06
3.4792e+06
3.48035e+06
3.4814e+06
3.48235e+06
3.48321e+06
3.48399e+06
3.4847e+06
3.48535e+06
3.48595e+06
3.48649e+06
3.48699e+06
3.48745e+06
3.48787e+06
3.48825e+06
3.48861e+06
3.48893e+06
3.48923e+06
3.46699e+06
3.45838e+06
3.46589e+06
3.45987e+06
3.46731e+06
3.46256e+06
3.45827e+06
3.45706e+06
3.45172e+06
3.47212e+06
3.47076e+06
3.47053e+06
3.45555e+06
3.45669e+06
3.45851e+06
3.46273e+06
3.46527e+06
3.46811e+06
3.47033e+06
3.47246e+06
3.4743e+06
3.47597e+06
3.47745e+06
3.47879e+06
3.47999e+06
3.48107e+06
3.48204e+06
3.48293e+06
3.48373e+06
3.48446e+06
3.48512e+06
3.48573e+06
3.48628e+06
3.48679e+06
3.48726e+06
3.48768e+06
3.48807e+06
3.48843e+06
3.48876e+06
3.48907e+06
3.48934e+06
3.45549e+06
3.45471e+06
3.45527e+06
3.45502e+06
3.45599e+06
3.45691e+06
3.44955e+06
3.45035e+06
3.44406e+06
3.46518e+06
3.46567e+06
3.4647e+06
3.45238e+06
3.45419e+06
3.45674e+06
3.46129e+06
3.46414e+06
3.46718e+06
3.46957e+06
3.47182e+06
3.47375e+06
3.4755e+06
3.47704e+06
3.47843e+06
3.47966e+06
3.48077e+06
3.48177e+06
3.48267e+06
3.48349e+06
3.48423e+06
3.48491e+06
3.48552e+06
3.48609e+06
3.4866e+06
3.48707e+06
3.48751e+06
3.4879e+06
3.48827e+06
3.4886e+06
3.48891e+06
3.48918e+06
3.44339e+06
3.45231e+06
3.4442e+06
3.45129e+06
3.44458e+06
3.45137e+06
3.44235e+06
3.44504e+06
3.43787e+06
3.45838e+06
3.46147e+06
3.45946e+06
3.45005e+06
3.45212e+06
3.45543e+06
3.46012e+06
3.46326e+06
3.46644e+06
3.46896e+06
3.4713e+06
3.47331e+06
3.47511e+06
3.4767e+06
3.47811e+06
3.47938e+06
3.48051e+06
3.48153e+06
3.48244e+06
3.48327e+06
3.48403e+06
3.48471e+06
3.48534e+06
3.4859e+06
3.48643e+06
3.4869e+06
3.48734e+06
3.48774e+06
3.48811e+06
3.48844e+06
3.48875e+06
3.48903e+06
3.4344e+06
3.45191e+06
3.43623e+06
3.44995e+06
3.43734e+06
3.447e+06
3.43709e+06
3.4405e+06
3.43274e+06
3.45191e+06
3.45791e+06
3.45484e+06
3.44839e+06
3.45049e+06
3.45454e+06
3.45925e+06
3.46262e+06
3.46588e+06
3.4685e+06
3.47091e+06
3.47296e+06
3.4748e+06
3.47642e+06
3.47786e+06
3.47914e+06
3.48029e+06
3.48132e+06
3.48224e+06
3.48308e+06
3.48384e+06
3.48453e+06
3.48516e+06
3.48574e+06
3.48626e+06
3.48674e+06
3.48718e+06
3.48758e+06
3.48795e+06
3.48829e+06
3.4886e+06
3.48889e+06
3.42993e+06
3.45213e+06
3.4323e+06
3.44986e+06
3.43466e+06
3.44316e+06
3.43266e+06
3.43542e+06
3.42785e+06
3.44558e+06
3.45482e+06
3.45074e+06
3.44729e+06
3.44927e+06
3.45403e+06
3.45866e+06
3.46224e+06
3.46552e+06
3.46821e+06
3.47064e+06
3.47272e+06
3.47458e+06
3.47621e+06
3.47766e+06
3.47895e+06
3.48011e+06
3.48114e+06
3.48207e+06
3.48292e+06
3.48368e+06
3.48437e+06
3.485e+06
3.48558e+06
3.48611e+06
3.48659e+06
3.48703e+06
3.48744e+06
3.48781e+06
3.48815e+06
3.48846e+06
3.48875e+06
3.42911e+06
3.45021e+06
3.4314e+06
3.4482e+06
3.43388e+06
3.43852e+06
3.42793e+06
3.42918e+06
3.42278e+06
3.43942e+06
3.452e+06
3.44708e+06
3.44672e+06
3.44846e+06
3.4539e+06
3.45836e+06
3.46211e+06
3.46535e+06
3.46808e+06
3.4705e+06
3.47259e+06
3.47445e+06
3.47608e+06
3.47753e+06
3.47882e+06
3.47997e+06
3.481e+06
3.48193e+06
3.48278e+06
3.48354e+06
3.48423e+06
3.48486e+06
3.48544e+06
3.48597e+06
3.48645e+06
3.48689e+06
3.4873e+06
3.48767e+06
3.48801e+06
3.48833e+06
3.48861e+06
3.42959e+06
3.44484e+06
3.43128e+06
3.44365e+06
3.43256e+06
3.43275e+06
3.42284e+06
3.42237e+06
3.41778e+06
3.43372e+06
3.44944e+06
3.44402e+06
3.44668e+06
3.44809e+06
3.45414e+06
3.45835e+06
3.46222e+06
3.46538e+06
3.46811e+06
3.47049e+06
3.47256e+06
3.4744e+06
3.47601e+06
3.47745e+06
3.47873e+06
3.47987e+06
3.4809e+06
3.48182e+06
3.48266e+06
3.48342e+06
3.48411e+06
3.48474e+06
3.48531e+06
3.48584e+06
3.48632e+06
3.48676e+06
3.48717e+06
3.48754e+06
3.48788e+06
3.48819e+06
3.48848e+06
3.43033e+06
3.43732e+06
3.43076e+06
3.43708e+06
3.43014e+06
3.42669e+06
3.41817e+06
3.41623e+06
3.41354e+06
3.42886e+06
3.44725e+06
3.44179e+06
3.44718e+06
3.44821e+06
3.45473e+06
3.45862e+06
3.46256e+06
3.46558e+06
3.46829e+06
3.4706e+06
3.47263e+06
3.47443e+06
3.47601e+06
3.47743e+06
3.47868e+06
3.47981e+06
3.48083e+06
3.48174e+06
3.48257e+06
3.48332e+06
3.484e+06
3.48463e+06
3.4852e+06
3.48572e+06
3.4862e+06
3.48664e+06
3.48705e+06
3.48742e+06
3.48776e+06
3.48807e+06
3.48835e+06
3.43049e+06
3.42949e+06
3.42962e+06
3.43022e+06
3.42726e+06
3.42154e+06
3.41484e+06
3.41187e+06
3.41064e+06
3.42522e+06
3.44578e+06
3.44059e+06
3.44824e+06
3.44883e+06
3.45565e+06
3.45917e+06
3.46311e+06
3.46596e+06
3.4686e+06
3.47082e+06
3.4728e+06
3.47454e+06
3.47608e+06
3.47746e+06
3.47869e+06
3.47979e+06
3.48079e+06
3.48169e+06
3.4825e+06
3.48324e+06
3.48392e+06
3.48453e+06
3.4851e+06
3.48562e+06
3.48609e+06
3.48653e+06
3.48693e+06
3.4873e+06
3.48764e+06
3.48795e+06
3.48824e+06
3.43029e+06
3.42294e+06
3.42837e+06
3.42451e+06
3.4248e+06
3.41812e+06
3.41339e+06
3.40978e+06
3.40928e+06
3.42291e+06
3.44535e+06
3.44051e+06
3.44985e+06
3.44994e+06
3.45688e+06
3.45998e+06
3.46385e+06
3.4665e+06
3.46905e+06
3.47115e+06
3.47305e+06
3.47472e+06
3.47621e+06
3.47754e+06
3.47873e+06
3.47981e+06
3.48078e+06
3.48166e+06
3.48246e+06
3.48318e+06
3.48385e+06
3.48446e+06
3.48501e+06
3.48553e+06
3.486e+06
3.48643e+06
3.48683e+06
3.48719e+06
3.48753e+06
3.48784e+06
3.48812e+06
3.42772e+06
3.41731e+06
3.42714e+06
3.42069e+06
3.42334e+06
3.41671e+06
3.41384e+06
3.40986e+06
3.40938e+06
3.42198e+06
3.44599e+06
3.44151e+06
3.45195e+06
3.45148e+06
3.45837e+06
3.46102e+06
3.46476e+06
3.46717e+06
3.4696e+06
3.47157e+06
3.47338e+06
3.47496e+06
3.47639e+06
3.47767e+06
3.47882e+06
3.47986e+06
3.4808e+06
3.48165e+06
3.48243e+06
3.48314e+06
3.4838e+06
3.48439e+06
3.48494e+06
3.48544e+06
3.48591e+06
3.48633e+06
3.48673e+06
3.48709e+06
3.48742e+06
3.48773e+06
3.48801e+06
3.42787e+06
3.41528e+06
3.42671e+06
3.41889e+06
3.42306e+06
3.41709e+06
3.41581e+06
3.41157e+06
3.41063e+06
3.42225e+06
3.44756e+06
3.4434e+06
3.45441e+06
3.45337e+06
3.46005e+06
3.46223e+06
3.46579e+06
3.46795e+06
3.47023e+06
3.47206e+06
3.47376e+06
3.47526e+06
3.47661e+06
3.47783e+06
3.47894e+06
3.47994e+06
3.48085e+06
3.48168e+06
3.48243e+06
3.48312e+06
3.48376e+06
3.48434e+06
3.48488e+06
3.48537e+06
3.48583e+06
3.48625e+06
3.48664e+06
3.487e+06
3.48733e+06
3.48763e+06
3.48791e+06
3.42813e+06
3.41479e+06
3.42676e+06
3.41881e+06
3.42391e+06
3.41884e+06
3.41877e+06
3.41429e+06
3.41263e+06
3.42339e+06
3.44979e+06
3.44597e+06
3.45707e+06
3.45549e+06
3.46185e+06
3.46357e+06
3.46691e+06
3.46881e+06
3.47094e+06
3.47261e+06
3.4742e+06
3.4756e+06
3.47688e+06
3.47804e+06
3.47909e+06
3.48005e+06
3.48092e+06
3.48172e+06
3.48245e+06
3.48312e+06
3.48374e+06
3.48431e+06
3.48483e+06
3.48531e+06
3.48576e+06
3.48617e+06
3.48656e+06
3.48691e+06
3.48723e+06
3.48753e+06
3.48781e+06
3.42952e+06
3.41635e+06
3.42799e+06
3.4202e+06
3.42565e+06
3.42149e+06
3.42225e+06
3.4176e+06
3.41503e+06
3.425e+06
3.45236e+06
3.44889e+06
3.45978e+06
3.45773e+06
3.46369e+06
3.46499e+06
3.46807e+06
3.46973e+06
3.47169e+06
3.4732e+06
3.47468e+06
3.47598e+06
3.47718e+06
3.47827e+06
3.47927e+06
3.48018e+06
3.48101e+06
3.48178e+06
3.48249e+06
3.48313e+06
3.48373e+06
3.48428e+06
3.48479e+06
3.48527e+06
3.4857e+06
3.48611e+06
3.48648e+06
3.48683e+06
3.48715e+06
3.48744e+06
3.48771e+06
3.43093e+06
3.41858e+06
3.42992e+06
3.42252e+06
3.42801e+06
3.42461e+06
3.42588e+06
3.42112e+06
3.4175e+06
3.42682e+06
3.45501e+06
3.45198e+06
3.46243e+06
3.46e+06
3.46551e+06
3.46642e+06
3.46926e+06
3.47067e+06
3.47246e+06
3.47383e+06
3.47519e+06
3.47639e+06
3.47751e+06
3.47853e+06
3.47947e+06
3.48033e+06
3.48113e+06
3.48186e+06
3.48254e+06
3.48316e+06
3.48374e+06
3.48427e+06
3.48477e+06
3.48523e+06
3.48565e+06
3.48605e+06
3.48641e+06
3.48675e+06
3.48707e+06
3.48736e+06
3.48762e+06
3.43329e+06
3.42162e+06
3.43233e+06
3.42527e+06
3.43066e+06
3.42783e+06
3.42933e+06
3.42452e+06
3.41977e+06
3.42857e+06
3.45749e+06
3.45501e+06
3.46488e+06
3.46221e+06
3.46726e+06
3.46784e+06
3.47042e+06
3.47162e+06
3.47325e+06
3.47447e+06
3.47572e+06
3.47682e+06
3.47786e+06
3.47881e+06
3.47969e+06
3.48051e+06
3.48126e+06
3.48196e+06
3.48261e+06
3.4832e+06
3.48376e+06
3.48427e+06
3.48475e+06
3.4852e+06
3.48561e+06
3.48599e+06
3.48635e+06
3.48668e+06
3.48699e+06
3.48728e+06
3.48754e+06
3.43576e+06
3.42472e+06
3.43481e+06
3.42807e+06
3.43331e+06
3.43086e+06
3.43238e+06
3.42755e+06
3.42161e+06
3.43008e+06
3.45969e+06
3.45787e+06
3.46709e+06
3.4643e+06
3.4689e+06
3.46922e+06
3.47155e+06
3.47255e+06
3.47402e+06
3.47511e+06
3.47625e+06
3.47726e+06
3.47822e+06
3.4791e+06
3.47993e+06
3.4807e+06
3.48141e+06
3.48207e+06
3.48269e+06
3.48326e+06
3.48379e+06
3.48428e+06
3.48474e+06
3.48517e+06
3.48557e+06
3.48595e+06
3.4863e+06
3.48662e+06
3.48692e+06
3.4872e+06
3.48746e+06
3.43816e+06
3.42778e+06
3.43725e+06
3.43072e+06
3.43569e+06
3.4335e+06
3.43489e+06
3.43009e+06
3.42286e+06
3.43123e+06
3.46155e+06
3.46044e+06
3.469e+06
3.46623e+06
3.47039e+06
3.47051e+06
3.47262e+06
3.47345e+06
3.47478e+06
3.47575e+06
3.47679e+06
3.47771e+06
3.47859e+06
3.47941e+06
3.48019e+06
3.4809e+06
3.48157e+06
3.4822e+06
3.48278e+06
3.48332e+06
3.48383e+06
3.48431e+06
3.48475e+06
3.48516e+06
3.48555e+06
3.48591e+06
3.48625e+06
3.48656e+06
3.48686e+06
3.48713e+06
3.48738e+06
3.43971e+06
3.43032e+06
3.43932e+06
3.43307e+06
3.43767e+06
3.43568e+06
3.4368e+06
3.43212e+06
3.42351e+06
3.432e+06
3.46309e+06
3.4627e+06
3.47064e+06
3.46797e+06
3.47173e+06
3.47172e+06
3.47362e+06
3.47432e+06
3.47552e+06
3.47638e+06
3.47733e+06
3.47816e+06
3.47898e+06
3.47973e+06
3.48045e+06
3.48112e+06
3.48175e+06
3.48234e+06
3.48289e+06
3.4834e+06
3.48388e+06
3.48434e+06
3.48476e+06
3.48516e+06
3.48553e+06
3.48588e+06
3.4862e+06
3.48651e+06
3.4868e+06
3.48706e+06
3.48731e+06
3.44137e+06
3.43298e+06
3.441e+06
3.43514e+06
3.43926e+06
3.43748e+06
3.43815e+06
3.43367e+06
3.4236e+06
3.43238e+06
3.46424e+06
3.4646e+06
3.47199e+06
3.46952e+06
3.47292e+06
3.47283e+06
3.47455e+06
3.47514e+06
3.47623e+06
3.477e+06
3.47786e+06
3.47862e+06
3.47937e+06
3.48007e+06
3.48073e+06
3.48135e+06
3.48194e+06
3.48249e+06
3.48301e+06
3.48349e+06
3.48395e+06
3.48438e+06
3.48478e+06
3.48516e+06
3.48552e+06
3.48585e+06
3.48617e+06
3.48646e+06
3.48674e+06
3.487e+06
3.48724e+06
3.44239e+06
3.43537e+06
3.44211e+06
3.43697e+06
3.44047e+06
3.43903e+06
3.43914e+06
3.43488e+06
3.42328e+06
3.43247e+06
3.46493e+06
3.46617e+06
3.47305e+06
3.47087e+06
3.47396e+06
3.47384e+06
3.47541e+06
3.47593e+06
3.47692e+06
3.4776e+06
3.47839e+06
3.47908e+06
3.47976e+06
3.4804e+06
3.48102e+06
3.48159e+06
3.48214e+06
3.48265e+06
3.48313e+06
3.48359e+06
3.48402e+06
3.48442e+06
3.48481e+06
3.48517e+06
3.48551e+06
3.48583e+06
3.48613e+06
3.48642e+06
3.48669e+06
3.48694e+06
3.48718e+06
3.443e+06
3.43785e+06
3.44286e+06
3.43878e+06
3.44135e+06
3.44044e+06
3.43987e+06
3.43593e+06
3.42277e+06
3.43227e+06
3.46514e+06
3.46742e+06
3.47384e+06
3.47204e+06
3.47487e+06
3.47478e+06
3.47621e+06
3.47668e+06
3.47758e+06
3.4782e+06
3.47891e+06
3.47954e+06
3.48017e+06
3.48075e+06
3.48131e+06
3.48184e+06
3.48235e+06
3.48282e+06
3.48327e+06
3.4837e+06
3.4841e+06
3.48448e+06
3.48484e+06
3.48518e+06
3.48551e+06
3.48582e+06
3.48611e+06
3.48638e+06
3.48664e+06
3.48689e+06
3.48712e+06
3.44301e+06
3.44039e+06
3.44331e+06
3.44079e+06
3.44209e+06
3.44188e+06
3.44052e+06
3.43702e+06
3.42228e+06
3.43188e+06
3.46505e+06
3.46843e+06
3.47442e+06
3.47306e+06
3.47567e+06
3.47564e+06
3.47697e+06
3.4774e+06
3.47823e+06
3.47879e+06
3.47944e+06
3.48001e+06
3.48058e+06
3.48111e+06
3.48162e+06
3.48211e+06
3.48257e+06
3.483e+06
3.48342e+06
3.48381e+06
3.48419e+06
3.48454e+06
3.48488e+06
3.4852e+06
3.48551e+06
3.48581e+06
3.48608e+06
3.48635e+06
3.4866e+06
3.48684e+06
3.48706e+06
3.44329e+06
3.44362e+06
3.44383e+06
3.44332e+06
3.44303e+06
3.4436e+06
3.44143e+06
3.43837e+06
3.42199e+06
3.43145e+06
3.46482e+06
3.46923e+06
3.47487e+06
3.47398e+06
3.47639e+06
3.47646e+06
3.47769e+06
3.47811e+06
3.47887e+06
3.47938e+06
3.47997e+06
3.48049e+06
3.481e+06
3.48148e+06
3.48194e+06
3.48238e+06
3.4828e+06
3.48319e+06
3.48357e+06
3.48393e+06
3.48428e+06
3.48461e+06
3.48493e+06
3.48523e+06
3.48552e+06
3.4858e+06
3.48607e+06
3.48632e+06
3.48656e+06
3.48679e+06
3.48701e+06
3.44408e+06
3.4476e+06
3.44484e+06
3.44661e+06
3.4446e+06
3.44583e+06
3.44303e+06
3.44029e+06
3.42226e+06
3.4312e+06
3.46453e+06
3.46992e+06
3.47524e+06
3.47483e+06
3.47708e+06
3.47725e+06
3.47841e+06
3.47881e+06
3.47952e+06
3.47999e+06
3.48052e+06
3.48098e+06
3.48144e+06
3.48186e+06
3.48227e+06
3.48266e+06
3.48304e+06
3.48339e+06
3.48374e+06
3.48406e+06
3.48438e+06
3.48469e+06
3.48498e+06
3.48526e+06
3.48554e+06
3.4858e+06
3.48605e+06
3.48629e+06
3.48653e+06
3.48675e+06
3.48696e+06
3.44582e+06
3.45248e+06
3.44686e+06
3.45087e+06
3.44714e+06
3.44879e+06
3.44568e+06
3.44307e+06
3.42343e+06
3.43123e+06
3.46429e+06
3.47052e+06
3.4756e+06
3.47564e+06
3.47776e+06
3.47805e+06
3.47913e+06
3.47954e+06
3.48018e+06
3.48061e+06
3.48108e+06
3.48149e+06
3.48189e+06
3.48226e+06
3.48262e+06
3.48296e+06
3.48329e+06
3.4836e+06
3.48391e+06
3.4842e+06
3.48449e+06
3.48477e+06
3.48504e+06
3.4853e+06
3.48555e+06
3.4858e+06
3.48604e+06
3.48627e+06
3.48649e+06
3.48671e+06
3.48691e+06
3.44846e+06
3.45795e+06
3.45007e+06
3.45607e+06
3.45097e+06
3.45261e+06
3.44973e+06
3.44694e+06
3.42585e+06
3.43177e+06
3.46425e+06
3.47113e+06
3.476e+06
3.47647e+06
3.47848e+06
3.47888e+06
3.4799e+06
3.4803e+06
3.48088e+06
3.48126e+06
3.48168e+06
3.48202e+06
3.48236e+06
3.48268e+06
3.48298e+06
3.48327e+06
3.48355e+06
3.48382e+06
3.48409e+06
3.48435e+06
3.4846e+06
3.48485e+06
3.4851e+06
3.48534e+06
3.48558e+06
3.48581e+06
3.48603e+06
3.48625e+06
3.48647e+06
3.48667e+06
3.48687e+06
3.45282e+06
3.46428e+06
3.45459e+06
3.46197e+06
3.45623e+06
3.45735e+06
3.45541e+06
3.45205e+06
3.42968e+06
3.43284e+06
3.46445e+06
3.47173e+06
3.4765e+06
3.47733e+06
3.47927e+06
3.47976e+06
3.48072e+06
3.48111e+06
3.48164e+06
3.48196e+06
3.48231e+06
3.48259e+06
3.48287e+06
3.48312e+06
3.48336e+06
3.4836e+06
3.48383e+06
3.48405e+06
3.48428e+06
3.4845e+06
3.48472e+06
3.48494e+06
3.48516e+06
3.48538e+06
3.4856e+06
3.48582e+06
3.48603e+06
3.48624e+06
3.48644e+06
3.48664e+06
3.48682e+06
3.45858e+06
3.47069e+06
3.46027e+06
3.4681e+06
3.46292e+06
3.46291e+06
3.46266e+06
3.45819e+06
3.43496e+06
3.43459e+06
3.46494e+06
3.47235e+06
3.47714e+06
3.47828e+06
3.48018e+06
3.48075e+06
3.48165e+06
3.48201e+06
3.48246e+06
3.48272e+06
3.48299e+06
3.4832e+06
3.4834e+06
3.48358e+06
3.48376e+06
3.48394e+06
3.48411e+06
3.48429e+06
3.48447e+06
3.48466e+06
3.48485e+06
3.48504e+06
3.48523e+06
3.48543e+06
3.48563e+06
3.48583e+06
3.48603e+06
3.48622e+06
3.48641e+06
3.4866e+06
3.48678e+06
3.46568e+06
3.47661e+06
3.4673e+06
3.47415e+06
3.47097e+06
3.46901e+06
3.47136e+06
3.46501e+06
3.4415e+06
3.43695e+06
3.46568e+06
3.47299e+06
3.47796e+06
3.47934e+06
3.48125e+06
3.48187e+06
3.4827e+06
3.48301e+06
3.48337e+06
3.48355e+06
3.48373e+06
3.48385e+06
3.48397e+06
3.48407e+06
3.48418e+06
3.48429e+06
3.48441e+06
3.48454e+06
3.48467e+06
3.48482e+06
3.48497e+06
3.48513e+06
3.4853e+06
3.48548e+06
3.48566e+06
3.48584e+06
3.48602e+06
3.48621e+06
3.48639e+06
3.48657e+06
3.48675e+06
3.47424e+06
3.48157e+06
3.47562e+06
3.47973e+06
3.48012e+06
3.47509e+06
3.48133e+06
3.47214e+06
3.44872e+06
3.4389e+06
3.46657e+06
3.47359e+06
3.47902e+06
3.48061e+06
3.48256e+06
3.48318e+06
3.48392e+06
3.48415e+06
3.4844e+06
3.48447e+06
3.48454e+06
3.48456e+06
3.48458e+06
3.4846e+06
3.48463e+06
3.48467e+06
3.48472e+06
3.48479e+06
3.48488e+06
3.48499e+06
3.4851e+06
3.48523e+06
3.48538e+06
3.48553e+06
3.48569e+06
3.48586e+06
3.48603e+06
3.4862e+06
3.48637e+06
3.48654e+06
3.48671e+06
3.48485e+06
3.48588e+06
3.48561e+06
3.48501e+06
3.48997e+06
3.48079e+06
3.49163e+06
3.47826e+06
3.4562e+06
3.44054e+06
3.46767e+06
3.47433e+06
3.48048e+06
3.48219e+06
3.48419e+06
3.48475e+06
3.48537e+06
3.48547e+06
3.48557e+06
3.4855e+06
3.48543e+06
3.48533e+06
3.48524e+06
3.48515e+06
3.48509e+06
3.48506e+06
3.48504e+06
3.48506e+06
3.4851e+06
3.48516e+06
3.48524e+06
3.48534e+06
3.48545e+06
3.48558e+06
3.48572e+06
3.48587e+06
3.48603e+06
3.48619e+06
3.48635e+06
3.48652e+06
3.48668e+06
3.49854e+06
3.49098e+06
3.49828e+06
3.4911e+06
3.50035e+06
3.48589e+06
3.50104e+06
3.48148e+06
3.46327e+06
3.44306e+06
3.46934e+06
3.4758e+06
3.4826e+06
3.48433e+06
3.48628e+06
3.48669e+06
3.48709e+06
3.487e+06
3.48689e+06
3.48665e+06
3.48641e+06
3.48616e+06
3.48594e+06
3.48574e+06
3.48558e+06
3.48546e+06
3.48538e+06
3.48533e+06
3.48531e+06
3.48533e+06
3.48537e+06
3.48544e+06
3.48553e+06
3.48563e+06
3.48575e+06
3.48589e+06
3.48603e+06
3.48618e+06
3.48633e+06
3.48649e+06
3.48664e+06
3.51676e+06
3.50006e+06
3.51538e+06
3.50075e+06
3.51204e+06
3.49233e+06
3.50912e+06
3.48229e+06
3.46991e+06
3.44751e+06
3.47238e+06
3.47881e+06
3.48573e+06
3.48733e+06
3.48897e+06
3.48909e+06
3.48916e+06
3.48879e+06
3.4884e+06
3.48792e+06
3.48748e+06
3.48705e+06
3.48668e+06
3.48636e+06
3.48609e+06
3.48588e+06
3.48572e+06
3.4856e+06
3.48553e+06
3.4855e+06
3.4855e+06
3.48554e+06
3.4856e+06
3.48568e+06
3.48578e+06
3.4859e+06
3.48603e+06
3.48617e+06
3.48631e+06
3.48646e+06
3.48661e+06
3.53936e+06
3.51582e+06
3.53765e+06
3.5171e+06
3.52723e+06
3.50585e+06
3.51839e+06
3.48885e+06
3.48075e+06
3.4576e+06
3.47862e+06
3.48452e+06
3.4904e+06
3.49154e+06
3.49243e+06
3.49207e+06
3.49161e+06
3.49085e+06
3.4901e+06
3.48934e+06
3.48865e+06
3.48802e+06
3.48747e+06
3.487e+06
3.48662e+06
3.48631e+06
3.48606e+06
3.48588e+06
3.48575e+06
3.48567e+06
3.48564e+06
3.48564e+06
3.48567e+06
3.48573e+06
3.48581e+06
3.48592e+06
3.48603e+06
3.48616e+06
3.4863e+06
3.48644e+06
3.48658e+06
3.50494e+06
3.47861e+06
3.48965e+06
3.49419e+06
3.49704e+06
3.49724e+06
3.49675e+06
3.49567e+06
3.49447e+06
3.49319e+06
3.492e+06
3.49089e+06
3.4899e+06
3.48904e+06
3.4883e+06
3.48767e+06
3.48716e+06
3.48674e+06
3.48641e+06
3.48615e+06
3.48597e+06
3.48584e+06
3.48576e+06
3.48573e+06
3.48574e+06
3.48578e+06
3.48584e+06
3.48593e+06
3.48603e+06
3.48615e+06
3.48628e+06
3.48641e+06
3.48655e+06
3.47742e+06
3.47858e+06
3.47969e+06
3.48074e+06
3.48171e+06
3.48261e+06
3.48345e+06
3.48421e+06
3.48492e+06
3.48557e+06
3.48617e+06
3.48672e+06
3.48723e+06
3.4877e+06
3.48814e+06
3.48854e+06
3.48891e+06
3.48926e+06
3.48957e+06
3.48986e+06
3.47404e+06
3.47529e+06
3.4766e+06
3.47784e+06
3.47903e+06
3.48014e+06
3.48117e+06
3.48212e+06
3.483e+06
3.4838e+06
3.48454e+06
3.48522e+06
3.48585e+06
3.48642e+06
3.48695e+06
3.48744e+06
3.48789e+06
3.48831e+06
3.48869e+06
3.48904e+06
3.48937e+06
3.48967e+06
3.47314e+06
3.4769e+06
3.47216e+06
3.47798e+06
3.47299e+06
3.48117e+06
3.47952e+06
3.48925e+06
3.48666e+06
3.49427e+06
3.47444e+06
3.46935e+06
3.46861e+06
3.47016e+06
3.47131e+06
3.47287e+06
3.47429e+06
3.47574e+06
3.47709e+06
3.47837e+06
3.47955e+06
3.48065e+06
3.48165e+06
3.48257e+06
3.48341e+06
3.48418e+06
3.48489e+06
3.48554e+06
3.48614e+06
3.48668e+06
3.48719e+06
3.48765e+06
3.48808e+06
3.48847e+06
3.48883e+06
3.48917e+06
3.48948e+06
3.47602e+06
3.47347e+06
3.47491e+06
3.47468e+06
3.47566e+06
3.47768e+06
3.47829e+06
3.48102e+06
3.47793e+06
3.49061e+06
3.48807e+06
3.48877e+06
3.46938e+06
3.46612e+06
3.46591e+06
3.46824e+06
3.46973e+06
3.47162e+06
3.47324e+06
3.47486e+06
3.47634e+06
3.47772e+06
3.47898e+06
3.48013e+06
3.48119e+06
3.48215e+06
3.48303e+06
3.48384e+06
3.48457e+06
3.48524e+06
3.48586e+06
3.48643e+06
3.48694e+06
3.48742e+06
3.48786e+06
3.48826e+06
3.48863e+06
3.48898e+06
3.48929e+06
3.47693e+06
3.46742e+06
3.47537e+06
3.46902e+06
3.47627e+06
3.47177e+06
3.47368e+06
3.47256e+06
3.46913e+06
3.48526e+06
3.48248e+06
3.483e+06
3.46428e+06
3.46279e+06
3.4632e+06
3.46629e+06
3.46813e+06
3.47037e+06
3.4722e+06
3.474e+06
3.4756e+06
3.47709e+06
3.47843e+06
3.47965e+06
3.48076e+06
3.48176e+06
3.48268e+06
3.48351e+06
3.48427e+06
3.48497e+06
3.4856e+06
3.48618e+06
3.48671e+06
3.4872e+06
3.48765e+06
3.48806e+06
3.48844e+06
3.48879e+06
3.48911e+06
3.4894e+06
3.47438e+06
3.46232e+06
3.47267e+06
3.46428e+06
3.47421e+06
3.46716e+06
3.46679e+06
3.46465e+06
3.46033e+06
3.47893e+06
3.47653e+06
3.47675e+06
3.45957e+06
3.45959e+06
3.46068e+06
3.46442e+06
3.46662e+06
3.46918e+06
3.47122e+06
3.47319e+06
3.47492e+06
3.4765e+06
3.47792e+06
3.4792e+06
3.48035e+06
3.4814e+06
3.48235e+06
3.48321e+06
3.48399e+06
3.4847e+06
3.48535e+06
3.48595e+06
3.48649e+06
3.48699e+06
3.48745e+06
3.48787e+06
3.48825e+06
3.48861e+06
3.48893e+06
3.48923e+06
3.46699e+06
3.45838e+06
3.46589e+06
3.45987e+06
3.46731e+06
3.46256e+06
3.45827e+06
3.45706e+06
3.45172e+06
3.47212e+06
3.47076e+06
3.47053e+06
3.45555e+06
3.45669e+06
3.45851e+06
3.46273e+06
3.46527e+06
3.46811e+06
3.47033e+06
3.47246e+06
3.4743e+06
3.47597e+06
3.47745e+06
3.47879e+06
3.47999e+06
3.48107e+06
3.48204e+06
3.48293e+06
3.48373e+06
3.48446e+06
3.48512e+06
3.48573e+06
3.48628e+06
3.48679e+06
3.48726e+06
3.48768e+06
3.48807e+06
3.48843e+06
3.48876e+06
3.48907e+06
3.48934e+06
3.45549e+06
3.45471e+06
3.45527e+06
3.45502e+06
3.45599e+06
3.45691e+06
3.44955e+06
3.45035e+06
3.44406e+06
3.46518e+06
3.46567e+06
3.4647e+06
3.45238e+06
3.45419e+06
3.45674e+06
3.46129e+06
3.46414e+06
3.46718e+06
3.46957e+06
3.47182e+06
3.47375e+06
3.4755e+06
3.47704e+06
3.47843e+06
3.47966e+06
3.48077e+06
3.48177e+06
3.48267e+06
3.48349e+06
3.48423e+06
3.48491e+06
3.48552e+06
3.48609e+06
3.4866e+06
3.48707e+06
3.48751e+06
3.4879e+06
3.48827e+06
3.4886e+06
3.48891e+06
3.48918e+06
3.44339e+06
3.45231e+06
3.4442e+06
3.45129e+06
3.44458e+06
3.45137e+06
3.44235e+06
3.44504e+06
3.43787e+06
3.45838e+06
3.46147e+06
3.45946e+06
3.45005e+06
3.45212e+06
3.45543e+06
3.46012e+06
3.46326e+06
3.46644e+06
3.46896e+06
3.4713e+06
3.47331e+06
3.47511e+06
3.4767e+06
3.47811e+06
3.47938e+06
3.48051e+06
3.48153e+06
3.48244e+06
3.48327e+06
3.48403e+06
3.48471e+06
3.48534e+06
3.4859e+06
3.48643e+06
3.4869e+06
3.48734e+06
3.48774e+06
3.48811e+06
3.48844e+06
3.48875e+06
3.48903e+06
3.4344e+06
3.45191e+06
3.43623e+06
3.44995e+06
3.43734e+06
3.447e+06
3.43709e+06
3.4405e+06
3.43274e+06
3.45191e+06
3.45791e+06
3.45484e+06
3.44839e+06
3.45049e+06
3.45454e+06
3.45925e+06
3.46262e+06
3.46588e+06
3.4685e+06
3.47091e+06
3.47296e+06
3.4748e+06
3.47642e+06
3.47786e+06
3.47914e+06
3.48029e+06
3.48132e+06
3.48224e+06
3.48308e+06
3.48384e+06
3.48453e+06
3.48516e+06
3.48574e+06
3.48626e+06
3.48674e+06
3.48718e+06
3.48758e+06
3.48795e+06
3.48829e+06
3.4886e+06
3.48889e+06
3.42993e+06
3.45213e+06
3.4323e+06
3.44986e+06
3.43466e+06
3.44316e+06
3.43266e+06
3.43542e+06
3.42785e+06
3.44558e+06
3.45482e+06
3.45074e+06
3.44729e+06
3.44927e+06
3.45403e+06
3.45866e+06
3.46224e+06
3.46552e+06
3.46821e+06
3.47064e+06
3.47272e+06
3.47458e+06
3.47621e+06
3.47766e+06
3.47895e+06
3.48011e+06
3.48114e+06
3.48207e+06
3.48292e+06
3.48368e+06
3.48437e+06
3.485e+06
3.48558e+06
3.48611e+06
3.48659e+06
3.48703e+06
3.48744e+06
3.48781e+06
3.48815e+06
3.48846e+06
3.48875e+06
3.42911e+06
3.45021e+06
3.4314e+06
3.4482e+06
3.43388e+06
3.43852e+06
3.42793e+06
3.42918e+06
3.42278e+06
3.43942e+06
3.452e+06
3.44708e+06
3.44672e+06
3.44846e+06
3.4539e+06
3.45836e+06
3.46211e+06
3.46535e+06
3.46808e+06
3.4705e+06
3.47259e+06
3.47445e+06
3.47608e+06
3.47753e+06
3.47882e+06
3.47997e+06
3.481e+06
3.48193e+06
3.48278e+06
3.48354e+06
3.48423e+06
3.48486e+06
3.48544e+06
3.48597e+06
3.48645e+06
3.48689e+06
3.4873e+06
3.48767e+06
3.48801e+06
3.48833e+06
3.48861e+06
3.42959e+06
3.44484e+06
3.43128e+06
3.44365e+06
3.43256e+06
3.43275e+06
3.42284e+06
3.42237e+06
3.41778e+06
3.43372e+06
3.44944e+06
3.44402e+06
3.44668e+06
3.44809e+06
3.45414e+06
3.45835e+06
3.46222e+06
3.46538e+06
3.46811e+06
3.47049e+06
3.47256e+06
3.4744e+06
3.47601e+06
3.47745e+06
3.47873e+06
3.47987e+06
3.4809e+06
3.48182e+06
3.48266e+06
3.48342e+06
3.48411e+06
3.48474e+06
3.48531e+06
3.48584e+06
3.48632e+06
3.48676e+06
3.48717e+06
3.48754e+06
3.48788e+06
3.48819e+06
3.48848e+06
3.43033e+06
3.43732e+06
3.43076e+06
3.43708e+06
3.43014e+06
3.42669e+06
3.41817e+06
3.41623e+06
3.41354e+06
3.42886e+06
3.44725e+06
3.44179e+06
3.44718e+06
3.44821e+06
3.45473e+06
3.45862e+06
3.46256e+06
3.46558e+06
3.46829e+06
3.4706e+06
3.47263e+06
3.47443e+06
3.47601e+06
3.47743e+06
3.47868e+06
3.47981e+06
3.48083e+06
3.48174e+06
3.48257e+06
3.48332e+06
3.484e+06
3.48463e+06
3.4852e+06
3.48572e+06
3.4862e+06
3.48664e+06
3.48705e+06
3.48742e+06
3.48776e+06
3.48807e+06
3.48835e+06
3.43049e+06
3.42949e+06
3.42962e+06
3.43022e+06
3.42726e+06
3.42154e+06
3.41484e+06
3.41187e+06
3.41064e+06
3.42522e+06
3.44578e+06
3.44059e+06
3.44824e+06
3.44883e+06
3.45565e+06
3.45917e+06
3.46311e+06
3.46596e+06
3.4686e+06
3.47082e+06
3.4728e+06
3.47454e+06
3.47608e+06
3.47746e+06
3.47869e+06
3.47979e+06
3.48079e+06
3.48169e+06
3.4825e+06
3.48324e+06
3.48392e+06
3.48453e+06
3.4851e+06
3.48562e+06
3.48609e+06
3.48653e+06
3.48693e+06
3.4873e+06
3.48764e+06
3.48795e+06
3.48824e+06
3.43029e+06
3.42294e+06
3.42837e+06
3.42451e+06
3.4248e+06
3.41812e+06
3.41339e+06
3.40978e+06
3.40928e+06
3.42291e+06
3.44535e+06
3.44051e+06
3.44985e+06
3.44994e+06
3.45688e+06
3.45998e+06
3.46385e+06
3.4665e+06
3.46905e+06
3.47115e+06
3.47305e+06
3.47472e+06
3.47621e+06
3.47754e+06
3.47873e+06
3.47981e+06
3.48078e+06
3.48166e+06
3.48246e+06
3.48318e+06
3.48385e+06
3.48446e+06
3.48501e+06
3.48553e+06
3.486e+06
3.48643e+06
3.48683e+06
3.48719e+06
3.48753e+06
3.48784e+06
3.48812e+06
3.42772e+06
3.41731e+06
3.42714e+06
3.42069e+06
3.42334e+06
3.41671e+06
3.41384e+06
3.40986e+06
3.40938e+06
3.42198e+06
3.44599e+06
3.44151e+06
3.45195e+06
3.45148e+06
3.45837e+06
3.46102e+06
3.46476e+06
3.46717e+06
3.4696e+06
3.47157e+06
3.47338e+06
3.47496e+06
3.47639e+06
3.47767e+06
3.47882e+06
3.47986e+06
3.4808e+06
3.48165e+06
3.48243e+06
3.48314e+06
3.4838e+06
3.48439e+06
3.48494e+06
3.48544e+06
3.48591e+06
3.48633e+06
3.48673e+06
3.48709e+06
3.48742e+06
3.48773e+06
3.48801e+06
3.42787e+06
3.41528e+06
3.42671e+06
3.41889e+06
3.42306e+06
3.41709e+06
3.41581e+06
3.41157e+06
3.41063e+06
3.42225e+06
3.44756e+06
3.4434e+06
3.45441e+06
3.45337e+06
3.46005e+06
3.46223e+06
3.46579e+06
3.46795e+06
3.47023e+06
3.47206e+06
3.47376e+06
3.47526e+06
3.47661e+06
3.47783e+06
3.47894e+06
3.47994e+06
3.48085e+06
3.48168e+06
3.48243e+06
3.48312e+06
3.48376e+06
3.48434e+06
3.48488e+06
3.48537e+06
3.48583e+06
3.48625e+06
3.48664e+06
3.487e+06
3.48733e+06
3.48763e+06
3.48791e+06
3.42813e+06
3.41479e+06
3.42676e+06
3.41881e+06
3.42391e+06
3.41884e+06
3.41877e+06
3.41429e+06
3.41263e+06
3.42339e+06
3.44979e+06
3.44597e+06
3.45707e+06
3.45549e+06
3.46185e+06
3.46357e+06
3.46691e+06
3.46881e+06
3.47094e+06
3.47261e+06
3.4742e+06
3.4756e+06
3.47688e+06
3.47804e+06
3.47909e+06
3.48005e+06
3.48092e+06
3.48172e+06
3.48245e+06
3.48312e+06
3.48374e+06
3.48431e+06
3.48483e+06
3.48531e+06
3.48576e+06
3.48617e+06
3.48656e+06
3.48691e+06
3.48723e+06
3.48753e+06
3.48781e+06
3.42952e+06
3.41635e+06
3.42799e+06
3.4202e+06
3.42565e+06
3.42149e+06
3.42225e+06
3.4176e+06
3.41503e+06
3.425e+06
3.45236e+06
3.44889e+06
3.45978e+06
3.45773e+06
3.46369e+06
3.46499e+06
3.46807e+06
3.46973e+06
3.47169e+06
3.4732e+06
3.47468e+06
3.47598e+06
3.47718e+06
3.47827e+06
3.47927e+06
3.48018e+06
3.48101e+06
3.48178e+06
3.48249e+06
3.48313e+06
3.48373e+06
3.48428e+06
3.48479e+06
3.48527e+06
3.4857e+06
3.48611e+06
3.48648e+06
3.48683e+06
3.48715e+06
3.48744e+06
3.48771e+06
3.43093e+06
3.41858e+06
3.42992e+06
3.42252e+06
3.42801e+06
3.42461e+06
3.42588e+06
3.42112e+06
3.4175e+06
3.42682e+06
3.45501e+06
3.45198e+06