/*--------------------------------*- C++ -*----------------------------------*\
| =========                 |                                                 |
| \\      /  F ield         | OpenFOAM: The Open Source CFD Toolbox           |
|  \\    /   O peration     | Version:  v2012                                 |
|   \\  /    A nd           | Website:  www.openfoam.com                      |
|    \\/     M anipulation  |                                                 |
\*---------------------------------------------------------------------------*/
FoamFile
{
    version     2.0;
    format      ascii;
    class       surfaceScalarField;
    location    "0.35";
    object      alphaPhi0.water;
}
// * * * * * * * * * * * * * * * * * * * * * * * * * * * * * * * * * * * * * //

dimensions      [0 3 -1 0 0 0 0];
oriented        oriented;


internalField   nonuniform List<scalar> 
8134
(
-3.66954e-08
-7.96313e-09
-1.6596e-15
-2.98921e-08
-6.80329e-09
-1.36701e-15
-2.40438e-08
-5.84826e-09
-1.25802e-15
-1.90088e-08
-5.0351e-09
-1.14016e-15
-1.46795e-08
-4.32922e-09
-9.78972e-16
-1.09728e-08
-3.70672e-09
-7.01383e-16
-7.81851e-09
-3.15429e-09
-6.46661e-16
-5.15579e-09
-2.66272e-09
-6.51545e-16
-2.92928e-09
-2.2265e-09
-4.97267e-16
-1.08804e-09
-1.84124e-09
-4.80465e-16
4.1635e-10
-1.50439e-09
-4.40849e-16
1.62776e-09
-1.21141e-09
-3.86112e-16
2.58593e-09
-9.5817e-10
-4.57074e-16
3.32643e-09
-7.40514e-10
-9.52566e-17
3.88163e-09
-5.55202e-10
-2.32849e-16
4.27977e-09
-3.98144e-10
-1.98024e-16
4.54535e-09
-2.65575e-10
-1.84544e-16
4.69939e-09
-1.54031e-10
-1.42654e-16
4.75975e-09
-6.03569e-11
-1.38379e-16
4.74134e-09
1.83927e-11
-1.30942e-16
4.65678e-09
8.45626e-11
-1.46324e-16
4.51623e-09
1.40525e-10
-1.70571e-16
4.32817e-09
1.88095e-10
-1.95107e-16
4.09923e-09
2.28909e-10
-2.05682e-16
3.83545e-09
2.63794e-10
7.96185e-17
3.54204e-09
2.93385e-10
1.42419e-15
3.22433e-09
3.1769e-10
5.71557e-15
2.88897e-09
3.35344e-10
8.94625e-15
2.54441e-09
3.44514e-10
6.71062e-15
2.20035e-09
3.44056e-10
3.36019e-15
1.86669e-09
3.33664e-10
-1.97069e-15
1.55345e-09
3.13256e-10
-5.90639e-15
1.26931e-09
2.84155e-10
-5.05749e-15
1.02034e-09
2.48981e-10
-3.6601e-15
8.09121e-10
2.11222e-10
-1.90349e-15
6.34065e-10
1.75059e-10
-7.78494e-16
4.8987e-10
1.44196e-10
-3.61456e-16
3.684e-10
1.2147e-10
2.02901e-16
2.60926e-10
1.07474e-10
3.55252e-16
1.6048e-10
1.00447e-10
3.19107e-16
6.95375e-11
9.09425e-11
1.89522e-16
5.56552e-12
6.3972e-11
6.84567e-17
5.56554e-12
1.13459e-16
-4.67682e-08
-1.5274e-08
-3.64631e-15
-4.00554e-08
-1.3516e-08
-3.18729e-15
-3.38699e-08
-1.20338e-08
-2.93511e-15
-2.81584e-08
-1.07466e-08
-2.71538e-15
-2.28826e-08
-9.60502e-09
-2.46987e-15
-1.80189e-08
-8.57042e-09
-2.11733e-15
-1.35528e-08
-7.62033e-09
-2.03597e-15
-9.47739e-09
-6.73816e-09
-1.79115e-15
-5.78875e-09
-5.91514e-09
-1.50324e-15
-2.48387e-09
-5.1461e-09
-1.35806e-15
4.41145e-10
-4.42941e-09
-1.1961e-15
2.99391e-09
-3.76416e-09
-9.94757e-16
5.18464e-09
-3.1489e-09
-7.94488e-16
7.02776e-09
-2.58366e-09
-5.88741e-17
8.5412e-09
-2.06866e-09
-4.72675e-16
9.74605e-09
-1.60299e-09
-3.86519e-16
1.06655e-08
-1.18503e-09
-3.61878e-16
1.13239e-08
-8.12407e-10
-3.46045e-16
1.17456e-08
-4.82086e-10
-3.48544e-16
1.19543e-08
-1.90359e-10
-3.53053e-16
1.1972e-08
6.68633e-11
-3.47879e-16
1.18192e-08
2.93329e-10
-3.55687e-16
1.15137e-08
4.93632e-10
-3.58713e-16
1.10711e-08
6.71503e-10
-3.66016e-16
1.05059e-08
8.28954e-10
-1.74072e-16
9.8319e-09
9.67381e-10
1.23741e-15
9.06384e-09
1.08574e-09
7.92466e-15
8.21976e-09
1.17943e-09
1.14557e-14
7.32201e-09
1.2422e-09
7.11821e-15
6.39852e-09
1.26756e-09
1.72692e-15
5.47981e-09
1.25236e-09
-1.70736e-15
4.59813e-09
1.19492e-09
-4.72133e-15
3.78316e-09
1.09914e-09
-4.35247e-15
3.05719e-09
9.7495e-10
-3.70328e-15
2.43215e-09
8.36267e-10
-1.98899e-15
1.90756e-09
6.99663e-10
-1.99849e-15
1.47155e-09
5.80207e-10
-1.03039e-15
1.10397e-09
4.89051e-10
1.96279e-16
7.81964e-10
4.2948e-10
4.17068e-16
4.88479e-10
3.93932e-10
3.89657e-16
2.27492e-10
3.5193e-10
2.64261e-16
4.08636e-11
2.506e-10
1.3622e-16
4.64291e-11
1.21082e-16
-4.51277e-08
-2.11572e-08
-4.42972e-15
-3.95018e-08
-1.91418e-08
-4.02383e-15
-3.4136e-08
-1.73996e-08
-3.80421e-15
-2.90207e-08
-1.58619e-08
-3.50834e-15
-2.41454e-08
-1.44803e-08
-3.2332e-15
-1.95033e-08
-1.32125e-08
-2.88209e-15
-1.50918e-08
-1.20319e-08
-2.80268e-15
-1.09142e-08
-1.09157e-08
-2.50997e-15
-6.97874e-09
-9.85063e-09
-2.21473e-15
-3.2972e-09
-8.82763e-09
-2.02228e-15
1.13403e-10
-7.84001e-09
-1.7963e-15
3.24393e-09
-6.89468e-09
-1.4977e-15
6.07389e-09
-5.97886e-09
-1.05561e-15
8.59301e-09
-5.10281e-09
-4.55349e-16
1.07922e-08
-4.26782e-09
-7.62296e-16
1.26667e-08
-3.47752e-09
-6.58945e-16
1.42168e-08
-2.73514e-09
-6.34802e-16
1.54474e-08
-2.04292e-09
-6.31416e-16
1.63673e-08
-1.40201e-09
-6.4842e-16
1.69888e-08
-8.11975e-10
-6.50216e-16
1.73268e-08
-2.71075e-10
-6.37446e-16
1.73965e-08
2.23521e-10
-6.42107e-16
1.72148e-08
6.75442e-10
-6.36464e-16
1.67972e-08
1.08899e-09
-6.24153e-16
1.61603e-08
1.46592e-09
-4.32356e-16
1.53206e-08
1.80701e-09
4.44918e-16
1.42983e-08
2.10807e-09
4.15145e-15
1.31186e-08
2.35911e-09
4.26453e-15
1.18141e-08
2.54669e-09
1.69606e-15
1.04281e-08
2.65352e-09
-8.8487e-16
9.01185e-09
2.66864e-09
-2.11039e-15
7.6216e-09
2.58516e-09
-2.26238e-15
6.31179e-09
2.40897e-09
-1.72403e-15
5.12635e-09
2.16037e-09
-1.33703e-15
4.09231e-09
1.87032e-09
-1.87539e-15
3.21524e-09
1.57674e-09
-1.96019e-15
2.48099e-09
1.31446e-09
-1.28083e-15
1.86096e-09
1.10908e-09
-2.64393e-16
1.3211e-09
9.69348e-10
3.55155e-16
8.35751e-10
8.79277e-10
4.28305e-16
4.08412e-10
7.79271e-10
3.32412e-16
9.59498e-11
5.63061e-10
1.89777e-16
1.42379e-10
1.30392e-16
-4.13328e-08
-2.57578e-08
-4.63329e-15
-3.67311e-08
-2.37435e-08
-4.14382e-15
-3.21924e-08
-2.19383e-08
-3.9944e-15
-2.77517e-08
-2.03027e-08
-3.83495e-15
-2.3428e-08
-1.88039e-08
-3.67041e-15
-1.92324e-08
-1.74081e-08
-3.36576e-15
-1.51715e-08
-1.60927e-08
-3.26886e-15
-1.12519e-08
-1.48353e-08
-2.95545e-15
-7.48124e-09
-1.36213e-08
-2.63468e-15
-3.86946e-09
-1.24394e-08
-2.41867e-15
-4.29629e-10
-1.12798e-08
-2.17321e-15
2.82226e-09
-1.01466e-08
-1.83422e-15
5.86875e-09
-9.02534e-09
-1.29605e-15
8.69022e-09
-7.92431e-09
-6.57398e-16
1.12664e-08
-6.84401e-09
-1.03582e-15
1.35776e-08
-5.78873e-09
-9.53591e-16
1.56059e-08
-4.76348e-09
-9.26745e-16
1.73363e-08
-3.7732e-09
-9.22307e-16
1.87568e-08
-2.82257e-09
-9.37239e-16
1.98597e-08
-1.91492e-09
-9.30711e-16
2.06409e-08
-1.05233e-09
-9.06682e-16
2.10996e-08
-2.3519e-10
-8.9465e-16
2.12381e-08
5.37069e-10
-8.74265e-16
2.10608e-08
1.26614e-09
-8.48939e-16
2.05759e-08
1.95093e-09
-6.97436e-16
1.97936e-08
2.58925e-09
-2.48549e-16
1.87305e-08
3.17113e-09
1.58517e-15
1.74119e-08
3.67783e-09
1.19806e-15
1.5874e-08
4.08446e-09
1.98878e-16
1.4171e-08
4.35658e-09
-1.11053e-15
1.23713e-08
4.46831e-09
-1.71118e-15
1.05553e-08
4.40114e-09
-2.09095e-15
8.80466e-09
4.15961e-09
-1.40665e-15
7.18997e-09
3.77503e-09
-7.14181e-16
5.76031e-09
3.29999e-09
-1.61601e-15
4.53421e-09
2.80284e-09
-1.52948e-15
3.50051e-09
2.34816e-09
-1.21494e-15
2.626e-09
1.9836e-09
-7.80045e-16
1.86797e-09
1.72738e-09
1.07491e-16
1.19306e-09
1.55418e-09
4.07753e-16
6.02664e-10
1.36967e-09
3.82164e-16
1.6217e-10
1.00355e-09
2.26303e-16
3.04548e-10
1.65204e-16
-3.71361e-08
-2.92569e-08
-5.00119e-15
-3.34587e-08
-2.74209e-08
-4.45215e-15
-2.96935e-08
-2.57035e-08
-4.2292e-15
-2.59033e-08
-2.4093e-08
-3.95505e-15
-2.21309e-08
-2.25763e-08
-3.75384e-15
-1.84062e-08
-2.11328e-08
-3.47505e-15
-1.47492e-08
-1.97497e-08
-3.41526e-15
-1.11743e-08
-1.84102e-08
-3.1286e-15
-7.69236e-09
-1.71032e-08
-2.84342e-15
-4.31294e-09
-1.58188e-08
-2.63612e-15
-1.04548e-09
-1.45473e-08
-2.39115e-15
2.09824e-09
-1.32903e-08
-2.05147e-15
5.10703e-09
-1.20341e-08
-1.47187e-15
7.96591e-09
-1.07832e-08
-8.64789e-16
1.06573e-08
-9.53544e-09
-1.30195e-15
1.31613e-08
-8.29271e-09
-1.25924e-15
1.54559e-08
-7.05808e-09
-1.23281e-15
1.75179e-08
-5.83516e-09
-1.2186e-15
1.93236e-08
-4.62827e-09
-1.21821e-15
2.08497e-08
-3.44113e-09
-1.19527e-15
2.20746e-08
-2.27716e-09
-1.15547e-15
2.29779e-08
-1.13857e-09
-1.12702e-15
2.35423e-08
-2.72214e-11
-1.09218e-15
2.37516e-08
1.05668e-09
-1.05688e-15
2.35957e-08
2.10693e-09
-9.48629e-16
2.3068e-08
3.11686e-09
-5.98595e-16
2.21705e-08
4.0686e-09
1.24103e-16
2.09171e-08
4.93134e-09
-5.99353e-17
1.93377e-08
5.66372e-09
-2.55447e-16
1.74875e-08
6.20688e-09
-9.54884e-16
1.54452e-08
6.51059e-09
-1.34461e-15
1.33116e-08
6.53467e-09
-1.616e-15
1.11966e-08
6.27471e-09
-1.22955e-15
9.2012e-09
5.77037e-09
-1.16698e-15
7.40278e-09
5.09842e-09
-1.1102e-15
5.84034e-09
4.36527e-09
-7.17664e-16
4.51247e-09
3.67602e-09
-1.18718e-15
3.38605e-09
3.11003e-09
-9.32506e-16
2.41266e-09
2.70078e-09
-3.50773e-16
1.55211e-09
2.41473e-09
3.25291e-16
8.02454e-10
2.11933e-09
4.43789e-16
2.33689e-10
1.57232e-09
2.81153e-16
5.38237e-10
2.11261e-16
-3.28814e-08
-3.18195e-08
-5.04112e-15
-3.0027e-08
-3.02753e-08
-4.41635e-15
-2.69775e-08
-2.8753e-08
-4.27026e-15
-2.38074e-08
-2.72631e-08
-4.09343e-15
-2.05736e-08
-2.581e-08
-3.95025e-15
-1.73192e-08
-2.43872e-08
-3.68091e-15
-1.40758e-08
-2.29931e-08
-3.57936e-15
-1.08671e-08
-2.16189e-08
-3.28073e-15
-7.71026e-09
-2.02601e-08
-2.96457e-15
-4.61826e-09
-1.89108e-08
-2.74138e-15
-1.60123e-09
-1.75644e-08
-2.49978e-15
1.33151e-09
-1.6223e-08
-2.17517e-15
4.1728e-09
-1.48754e-08
-1.60898e-15
6.91395e-09
-1.35244e-08
-1.14666e-15
9.54441e-09
-1.21659e-08
-1.56575e-15
1.2051e-08
-1.07993e-08
-1.54194e-15
1.44174e-08
-9.42443e-09
-1.51041e-15
1.66234e-08
-8.04116e-09
-1.48397e-15
1.86453e-08
-6.65019e-09
-1.46295e-15
2.04558e-08
-5.25171e-09
-1.4216e-15
2.2025e-08
-3.84627e-09
-1.36746e-15
2.33201e-08
-2.4338e-09
-1.32527e-15
2.43071e-08
-1.01408e-09
-1.27768e-15
2.49515e-08
4.12105e-10
-1.23418e-15
2.52191e-08
1.83946e-09
-1.15063e-15
2.50798e-08
3.25612e-09
-9.11914e-16
2.45113e-08
4.63706e-09
-4.71701e-16
2.35046e-08
5.93816e-09
-4.89239e-16
2.20704e-08
7.09779e-09
-4.90361e-16
2.02514e-08
8.02588e-09
-9.69861e-16
1.8125e-08
8.63696e-09
-1.09543e-15
1.58038e-08
8.85584e-09
-1.21336e-15
1.34221e-08
8.6565e-09
-1.06935e-15
1.11133e-08
8.07911e-09
-1.02186e-15
8.98802e-09
7.22372e-09
-9.83783e-16
7.11264e-09
6.24064e-09
-5.18507e-16
5.50296e-09
5.28568e-09
-6.81856e-16
4.13178e-09
4.48121e-09
-1.14343e-15
2.94852e-09
3.88404e-09
-5.20652e-16
1.90755e-09
3.45571e-09
1.5669e-16
1.00292e-09
3.02396e-09
4.74556e-16
3.07112e-10
2.26812e-09
3.19786e-16
8.45349e-10
2.41354e-16
-2.88141e-08
-3.36411e-08
-5.12422e-15
-2.66488e-08
-3.24405e-08
-4.44311e-15
-2.42265e-08
-3.11753e-08
-4.28136e-15
-2.16203e-08
-2.98694e-08
-4.04082e-15
-1.88903e-08
-2.854e-08
-3.88343e-15
-1.60858e-08
-2.71917e-08
-3.64538e-15
-1.32455e-08
-2.58335e-08
-3.5841e-15
-1.03997e-08
-2.44647e-08
-3.31027e-15
-7.57178e-09
-2.3088e-08
-3.0241e-15
-4.77915e-09
-2.17034e-08
-2.81014e-15
-2.03493e-09
-2.03086e-08
-2.57596e-15
6.50706e-10
-1.89087e-08
-2.26768e-15
3.27142e-09
-1.74961e-08
-1.73787e-15
5.82157e-09
-1.60746e-08
-1.4592e-15
8.29612e-09
-1.46405e-08
-1.80143e-15
1.06886e-08
-1.31919e-08
-1.76977e-15
1.29906e-08
-1.17264e-08
-1.72839e-15
1.519e-08
-1.02405e-08
-1.68861e-15
1.72703e-08
-8.73053e-09
-1.64818e-15
1.92096e-08
-7.19108e-09
-1.59226e-15
2.09802e-08
-5.61684e-09
-1.52872e-15
2.25478e-08
-4.00143e-09
-1.477e-15
2.3872e-08
-2.3382e-09
-1.42112e-15
2.49069e-08
-6.22885e-10
-1.37127e-15
2.56008e-08
1.14565e-09
-1.29807e-15
2.58999e-08
2.95687e-09
-1.15421e-15
2.57545e-08
4.78252e-09
-7.95664e-16
2.51246e-08
6.56816e-09
-7.76995e-16
2.39904e-08
8.23185e-09
-7.04772e-16
2.23679e-08
9.64844e-09
-1.03266e-15
2.03177e-08
1.06871e-08
-9.87775e-16
1.79507e-08
1.12228e-08
-9.56274e-16
1.54168e-08
1.11905e-08
-9.48485e-16
1.28788e-08
1.0617e-08
-8.56714e-16
1.04833e-08
9.61925e-09
-8.02342e-16
8.32987e-09
8.39409e-09
-8.51262e-16
6.45856e-09
7.15696e-09
-3.22418e-16
4.85469e-09
6.08508e-09
-9.57994e-16
3.4699e-09
5.26883e-09
-6.88724e-16
2.25516e-09
4.67047e-09
-1.10205e-16
1.20063e-09
4.07849e-09
4.68495e-16
3.80323e-10
3.08842e-09
3.66915e-16
1.22567e-09
2.75074e-16
-2.50402e-08
-3.48878e-08
-5.27985e-15
-2.34363e-08
-3.40443e-08
-4.61782e-15
-2.15466e-08
-3.3065e-08
-4.46156e-15
-1.94363e-08
-3.19797e-08
-4.22567e-15
-1.71626e-08
-3.08136e-08
-4.05552e-15
-1.47752e-08
-2.95791e-08
-3.80156e-15
-1.23153e-08
-2.82934e-08
-3.70792e-15
-9.817e-09
-2.69629e-08
-3.39705e-15
-7.30765e-09
-2.55974e-08
-3.0852e-15
-4.80858e-09
-2.42024e-08
-2.85345e-15
-2.33619e-09
-2.2781e-08
-2.62035e-15
9.62517e-11
-2.13411e-08
-2.33421e-15
2.48402e-09
-1.98839e-08
-1.861e-15
4.81864e-09
-1.84092e-08
-1.73739e-15
7.09821e-09
-1.69201e-08
-1.98411e-15
9.3203e-09
-1.54139e-08
-1.93127e-15
1.14823e-08
-1.38884e-08
-1.87702e-15
1.35798e-08
-1.23381e-08
-1.82376e-15
1.56052e-08
-1.07559e-08
-1.7685e-15
1.75458e-08
-9.13175e-09
-1.70307e-15
1.93826e-08
-7.45363e-09
-1.63459e-15
2.10882e-08
-5.70711e-09
-1.57762e-15
2.2626e-08
-3.87584e-09
-1.5178e-15
2.39494e-08
-1.94636e-09
-1.46461e-15
2.50004e-08
9.46908e-11
-1.39649e-15
2.571e-08
2.24719e-09
-1.30162e-15
2.60051e-08
4.48739e-09
-1.08116e-15
2.58149e-08
6.75846e-09
-1.00535e-15
2.50831e-08
8.96349e-09
-8.72719e-16
2.37878e-08
1.09439e-08
-1.101e-15
2.19574e-08
1.25175e-08
-9.58298e-16
1.96848e-08
1.34953e-08
-8.32029e-16
1.71213e-08
1.3754e-08
-8.49077e-16
1.44511e-08
1.32872e-08
-7.58904e-16
1.18549e-08
1.22154e-08
-8.15128e-16
9.4694e-09
1.07796e-08
-6.31313e-16
7.36488e-09
9.26146e-09
-5.44147e-16
5.54576e-09
7.9042e-09
-7.58977e-16
3.97098e-09
6.84362e-09
-9.11759e-16
2.5909e-09
6.05055e-09
-2.27171e-16
1.39267e-09
5.27673e-09
4.25276e-16
4.51803e-10
4.02928e-09
4.12579e-16
1.67748e-09
3.09226e-16
-2.16275e-08
-3.5706e-08
-5.10468e-15
-2.04653e-08
-3.52065e-08
-4.56354e-15
-1.90138e-08
-3.45165e-08
-4.42143e-15
-1.73266e-08
-3.36669e-08
-4.1385e-15
-1.54542e-08
-3.2686e-08
-3.95363e-15
-1.34426e-08
-3.15906e-08
-3.71363e-15
-1.13324e-08
-3.04036e-08
-3.64916e-15
-9.15832e-09
-2.9137e-08
-3.39116e-15
-6.94956e-09
-2.78061e-08
-3.11101e-15
-4.72981e-09
-2.64222e-08
-2.88961e-15
-2.51804e-09
-2.49928e-08
-2.66332e-15
-3.28379e-10
-2.35308e-08
-2.3913e-15
1.8287e-09
-2.2041e-08
-1.98098e-15
3.9471e-09
-2.05276e-08
-1.96518e-15
6.0235e-09
-1.89965e-08
-2.10945e-15
8.05677e-09
-1.74472e-08
-2.03081e-15
1.00472e-08
-1.58788e-08
-1.9634e-15
1.19954e-08
-1.42862e-08
-1.8986e-15
1.39004e-08
-1.2661e-08
-1.83294e-15
1.57584e-08
-1.09898e-08
-1.76166e-15
1.75606e-08
-9.25576e-09
-1.69115e-15
1.92901e-08
-7.43676e-09
-1.63153e-15
2.09206e-08
-5.50621e-09
-1.57051e-15
2.24133e-08
-3.43917e-09
-1.51693e-15
2.37143e-08
-1.2062e-09
-1.45255e-15
2.47529e-08
1.20847e-09
-1.37885e-15
2.54425e-08
3.79782e-09
-1.25188e-15
2.56887e-08
6.51241e-09
-1.15368e-15
2.54009e-08
9.25111e-09
-9.86449e-16
2.45146e-08
1.18303e-08
-1.16272e-15
2.3015e-08
1.4017e-08
-9.72808e-16
2.09607e-08
1.55496e-08
-7.89769e-16
1.84877e-08
1.62272e-08
-8.22364e-16
1.5788e-08
1.59868e-08
-7.05337e-16
1.30704e-08
1.49331e-08
-7.85593e-16
1.05083e-08
1.33417e-08
-1.77517e-16
8.20684e-09
1.15629e-08
-9.6125e-16
6.19541e-09
9.91561e-09
-7.12277e-16
4.44563e-09
8.5934e-09
-1.01923e-15
2.91072e-09
7.58548e-09
-3.37359e-16
1.57641e-09
6.61104e-09
3.61984e-16
5.20354e-10
5.08534e-09
4.40961e-16
2.19783e-09
3.42936e-16
-1.85898e-08
-5.06983e-15
-1.77689e-08
-4.59753e-15
-1.66705e-08
-3.56149e-08
-4.51007e-15
-1.53369e-08
-3.50006e-08
-4.29235e-15
-1.38098e-08
-3.42131e-08
-4.1279e-15
-1.213e-08
-3.32704e-08
-3.87716e-15
-1.03345e-08
-3.2199e-08
-3.75079e-15
-8.45703e-09
-3.10145e-08
-3.49399e-15
-6.5266e-09
-2.97366e-08
-3.17572e-15
-4.56779e-09
-2.83809e-08
-2.92982e-15
-2.60095e-09
-2.69596e-08
-2.69689e-15
-6.41642e-10
-2.54901e-08
-2.43297e-15
1.29754e-09
-2.39801e-08
-2.0699e-15
3.20919e-09
-2.24393e-08
-2.13156e-15
5.0887e-09
-2.0876e-08
-2.18713e-15
6.93447e-09
-1.9293e-08
-2.08537e-15
8.74742e-09
-1.76918e-08
-2.00524e-15
1.05302e-08
-1.60689e-08
-1.93041e-15
1.22859e-08
-1.44167e-08
-1.85703e-15
1.40167e-08
-1.27207e-08
-1.78172e-15
1.57221e-08
-1.09612e-08
-1.71007e-15
1.7396e-08
-9.1107e-09
-1.64875e-15
1.90237e-08
-7.1338e-09
-1.58776e-15
2.05789e-08
-4.99448e-09
-1.53548e-15
2.20191e-08
-2.6463e-09
-1.47554e-15
2.32815e-08
-5.40955e-11
-1.41282e-15
2.42797e-08
2.7997e-09
-1.32558e-15
2.49075e-08
5.88464e-09
-1.23174e-15
2.50495e-08
9.10905e-09
-1.05704e-15
2.46016e-08
1.22782e-08
-1.20984e-15
2.35015e-08
1.51171e-08
-1.00632e-15
2.17613e-08
1.72897e-08
-7.95724e-16
1.9485e-08
1.85036e-08
-8.32717e-16
1.68566e-08
1.86152e-08
-6.79745e-16
1.4101e-08
1.76886e-08
-8.09652e-16
1.14249e-08
1.60179e-08
-2.60867e-16
8.96963e-09
1.40181e-08
-1.10615e-15
6.79407e-09
1.20912e-08
-8.35087e-16
4.88774e-09
1.04997e-08
-1.01083e-15
3.21068e-09
9.26254e-09
-4.67153e-16
1.74947e-09
8.07226e-09
2.90452e-16
5.84982e-10
6.24982e-09
4.60792e-16
2.78281e-09
3.7675e-16
-1.4539e-08
-3.64339e-08
-4.51266e-15
-1.34951e-08
-3.60445e-08
-4.23339e-15
-1.226e-08
-3.54482e-08
-4.0329e-15
-1.08677e-08
-3.46628e-08
-3.80005e-15
-9.35085e-09
-3.37159e-08
-3.71642e-15
-7.74029e-09
-3.2625e-08
-3.48773e-15
-6.06366e-09
-3.14132e-08
-3.19411e-15
-4.34513e-09
-3.00995e-08
-2.95589e-15
-2.60538e-09
-2.86994e-08
-2.72821e-15
-8.6081e-10
-2.72347e-08
-2.47148e-15
8.75015e-10
-2.5716e-08
-2.14165e-15
2.59311e-09
-2.41574e-08
-2.23358e-15
4.28757e-09
-2.25705e-08
-2.22651e-15
5.95563e-09
-2.0961e-08
-2.10905e-15
7.59756e-09
-1.93337e-08
-2.01791e-15
9.21614e-09
-1.76874e-08
-1.93491e-15
1.0816e-08
-1.60165e-08
-1.8556e-15
1.24025e-08
-1.43073e-08
-1.77676e-15
1.39807e-08
-1.25393e-08
-1.70385e-15
1.55522e-08
-1.06823e-08
-1.64052e-15
1.71133e-08
-8.69473e-09
-1.5793e-15
1.86503e-08
-6.53161e-09
-1.52793e-15
2.01349e-08
-4.13086e-09
-1.47247e-15
2.15185e-08
-1.43771e-09
-1.4175e-15
2.27254e-08
1.59274e-09
-1.35092e-15
2.36506e-08
4.95956e-09
-1.26614e-15
2.41663e-08
8.5932e-09
-1.09872e-15
2.41395e-08
1.2305e-08
-1.23991e-15
2.34634e-08
1.57932e-08
-1.04374e-15
2.20981e-08
1.86549e-08
-8.2787e-16
2.01026e-08
2.04992e-08
-8.61703e-16
1.76359e-08
2.10818e-08
-6.82199e-16
1.4925e-08
2.03995e-08
-8.09335e-16
1.22009e-08
1.8742e-08
-3.67639e-16
9.63972e-09
1.65792e-08
-5.82662e-16
7.33263e-09
1.43983e-08
-1.00124e-15
5.29143e-09
1.25409e-08
-9.93505e-16
3.48707e-09
1.10669e-08
-6.18608e-16
1.90969e-09
9.64966e-09
2.08515e-16
6.44847e-10
7.51466e-09
4.68954e-16
3.42766e-09
4.09738e-16
-1.26244e-08
-3.70353e-08
-4.38017e-15
-1.18149e-08
-3.6854e-08
-4.23598e-15
-1.0823e-08
-3.644e-08
-4.12814e-15
-9.67642e-09
-3.58094e-08
-3.93755e-15
-8.40279e-09
-3.49895e-08
-3.82719e-15
-7.02924e-09
-3.39986e-08
-3.56151e-15
-5.58109e-09
-3.28613e-08
-3.25098e-15
-4.08121e-09
-3.15993e-08
-2.99101e-15
-2.54973e-09
-3.02308e-08
-2.7546e-15
-1.00318e-09
-2.87812e-08
-2.5008e-15
5.44486e-10
-2.72636e-08
-2.19214e-15
2.08332e-09
-2.56962e-08
-2.29095e-15
3.60622e-09
-2.40934e-08
-2.24315e-15
5.1093e-09
-2.24641e-08
-2.11383e-15
6.59161e-09
-2.0816e-08
-2.01436e-15
8.05513e-09
-1.91509e-08
-1.9243e-15
9.50436e-09
-1.74658e-08
-1.8399e-15
1.09457e-08
-1.57487e-08
-1.75755e-15
1.23869e-08
-1.39805e-08
-1.6827e-15
1.38347e-08
-1.21302e-08
-1.6166e-15
1.52929e-08
-1.01528e-08
-1.55413e-15
1.67589e-08
-7.99772e-09
-1.50234e-15
1.82182e-08
-5.59002e-09
-1.44914e-15
1.96379e-08
-2.85755e-09
-1.39994e-15
2.09589e-08
2.71731e-10
-1.34593e-15
2.20878e-08
3.83078e-09
-1.27261e-15
2.28979e-08
7.78299e-09
-1.12147e-15
2.32405e-08
1.19626e-08
-1.25397e-15
2.29738e-08
1.60597e-08
-1.07506e-15
2.20084e-08
1.96203e-08
-8.69807e-16
2.035e-08
2.21576e-08
-8.99828e-16
1.81189e-08
2.33129e-08
-7.05727e-16
1.55284e-08
2.29902e-08
-8.14315e-16
1.28221e-08
2.14482e-08
-4.1688e-16
1.02057e-08
1.91955e-08
-3.03962e-16
7.80303e-09
1.6801e-08
-1.01758e-15
5.65139e-09
1.46926e-08
-9.84118e-16
3.73652e-09
1.29818e-08
-7.57061e-16
2.05515e-09
1.1331e-08
1.16553e-16
6.99233e-10
8.87056e-09
4.70554e-16
4.12689e-09
4.38297e-16
-1.09222e-08
-3.74692e-08
-4.33799e-15
-1.02999e-08
-3.74763e-08
-4.20149e-15
-9.50823e-09
-3.72317e-08
-4.08459e-15
-8.56904e-09
-3.67486e-08
-3.90942e-15
-7.50514e-09
-3.60534e-08
-3.8147e-15
-6.33966e-09
-3.51641e-08
-3.55933e-15
-5.09499e-09
-3.4106e-08
-3.2623e-15
-3.79204e-09
-3.29023e-08
-3.00652e-15
-2.4498e-09
-3.15731e-08
-2.77477e-15
-1.08431e-09
-3.01467e-08
-2.52757e-15
2.90544e-10
-2.86385e-08
-2.23277e-15
1.66445e-09
-2.70701e-08
-2.32753e-15
3.02943e-09
-2.54584e-08
-2.24722e-15
4.38071e-09
-2.38154e-08
-2.10804e-15
5.71613e-09
-2.21514e-08
-2.0016e-15
7.03651e-09
-2.04713e-08
-1.90584e-15
8.34539e-09
-1.87747e-08
-1.81715e-15
9.64891e-09
-1.70523e-08
-1.73116e-15
1.09554e-08
-1.5287e-08
-1.65376e-15
1.22741e-08
-1.34489e-08
-1.5842e-15
1.36136e-08
-1.14923e-08
-1.5196e-15
1.49792e-08
-9.36334e-09
-1.4663e-15
1.63675e-08
-6.97828e-09
-1.41382e-15
1.77608e-08
-4.25098e-09
-1.36782e-15
1.91178e-08
-1.08527e-09
-1.32059e-15
2.0363e-08
2.58573e-09
-1.25769e-15
2.13811e-08
6.76477e-09
-1.12763e-15
2.20215e-08
1.13223e-08
-1.25394e-15
2.21209e-08
1.59602e-08
-1.09639e-15
2.15479e-08
2.01933e-08
-9.10069e-16
2.02547e-08
2.34508e-08
-9.37075e-16
1.83127e-08
2.52549e-08
-7.37666e-16
1.59066e-08
2.53962e-08
-8.30655e-16
1.32798e-08
2.40751e-08
-4.78494e-16
1.06592e-08
2.18161e-08
-3.45929e-16
8.19866e-09
1.92615e-08
-8.88969e-16
5.96304e-09
1.69282e-08
-9.90194e-16
3.95612e-09
1.49887e-08
-8.55105e-16
2.18422e-09
1.3103e-08
3.35367e-17
7.47536e-10
1.03072e-08
4.67576e-16
4.87443e-09
4.63163e-16
-9.42067e-09
-3.77758e-08
-4.37798e-15
-8.94636e-09
-3.79507e-08
-4.22754e-15
-8.31794e-09
-3.78601e-08
-4.11107e-15
-7.55216e-09
-3.75144e-08
-3.94691e-15
-6.66734e-09
-3.69382e-08
-3.85313e-15
-5.68274e-09
-3.61487e-08
-3.58483e-15
-4.61759e-09
-3.51712e-08
-3.28795e-15
-3.49048e-09
-3.40294e-08
-3.02501e-15
-2.31879e-09
-3.27448e-08
-2.79087e-15
-1.11767e-09
-3.13478e-08
-2.54888e-15
9.93291e-11
-2.98555e-08
-2.27497e-15
1.32245e-09
-2.82932e-08
-2.35512e-15
2.54278e-09
-2.66787e-08
-2.24487e-15
3.75503e-09
-2.50276e-08
-2.09749e-15
4.95608e-09
-2.33525e-08
-1.98493e-15
6.14559e-09
-2.16608e-08
-1.88415e-15
7.32591e-09
-1.9955e-08
-1.79143e-15
8.50212e-09
-1.82285e-08
-1.70183e-15
9.68205e-09
-1.64669e-08
-1.62163e-15
1.08755e-08
-1.46425e-08
-1.54831e-15
1.20934e-08
-1.271e-08
-1.48099e-15
1.33457e-08
-1.06157e-08
-1.42542e-15
1.46375e-08
-8.27005e-09
-1.37265e-15
1.59634e-08
-5.57689e-09
-1.32833e-15
1.72984e-08
-2.42033e-09
-1.28501e-15
1.85869e-08
1.29734e-09
-1.23006e-15
1.97319e-08
5.61966e-09
-1.12031e-15
2.0592e-08
1.04622e-08
-1.24014e-15
2.09965e-08
1.55557e-08
-1.10621e-15
2.07837e-08
2.04061e-08
-9.43611e-16
1.98576e-08
2.4377e-08
-9.69519e-16
1.82361e-08
2.68763e-08
-7.72202e-16
1.60643e-08
2.7568e-08
-8.57198e-16
1.35712e-08
2.65682e-08
-5.60678e-16
1.09949e-08
2.43925e-08
-4.19482e-16
8.51471e-09
2.17416e-08
-8.15609e-16
6.22281e-09
1.92201e-08
-9.92307e-16
4.14351e-09
1.7068e-08
-9.21273e-16
2.29557e-09
1.49509e-08
-4.23454e-17
7.89271e-10
1.18135e-08
4.6038e-16
5.6637e-09
4.84081e-16
-8.10456e-09
-3.79867e-08
-4.2229e-15
-7.74624e-09
-3.8309e-08
-4.17372e-15
-7.24981e-09
-3.83565e-08
-4.06502e-15
-6.6278e-09
-3.81364e-08
-3.90978e-15
-5.89459e-09
-3.76714e-08
-3.80383e-15
-5.06589e-09
-3.69774e-08
-3.56356e-15
-4.15785e-09
-3.60792e-08
-3.28324e-15
-3.18653e-09
-3.50007e-08
-3.02798e-15
-2.16744e-09
-3.37639e-08
-2.80119e-15
-1.11456e-09
-3.24007e-08
-2.56733e-15
-4.04475e-11
-3.09296e-08
-2.31275e-15
1.04502e-09
-2.93787e-08
-2.37074e-15
2.13332e-09
-2.7767e-08
-2.23847e-15
3.21858e-09
-2.61129e-08
-2.08462e-15
4.29706e-09
-2.4431e-08
-1.96656e-15
5.3674e-09
-2.27311e-08
-1.86143e-15
6.43076e-09
-2.10183e-08
-1.76497e-15
7.49096e-09
-1.92888e-08
-1.672e-15
8.55468e-09
-1.75306e-08
-1.5888e-15
9.63113e-09
-1.57189e-08
-1.51172e-15
1.07317e-08
-1.38106e-08
-1.44145e-15
1.18689e-08
-1.1753e-08
-1.38316e-15
1.30529e-08
-9.45401e-09
-1.32923e-15
1.42874e-08
-6.81146e-09
-1.28543e-15
1.55614e-08
-3.69435e-09
-1.24481e-15
1.68378e-08
2.09969e-11
-1.19621e-15
1.80408e-08
4.41657e-09
-1.10466e-15
1.90461e-08
9.45693e-09
-1.21647e-15
1.96874e-08
1.49143e-08
-1.1053e-15
1.97864e-08
2.03071e-08
-9.68622e-16
1.92078e-08
2.49556e-08
-9.94209e-16
1.79178e-08
2.81663e-08
-8.0386e-16
1.60141e-08
2.94717e-08
-8.83252e-16
1.36993e-08
2.8883e-08
-6.41678e-16
1.12113e-08
2.68805e-08
-4.77501e-16
8.74845e-09
2.42045e-08
-9.17484e-16
6.42824e-09
2.15403e-08
-9.92487e-16
4.29695e-09
1.91993e-08
-9.55762e-16
2.38819e-09
1.68597e-08
-1.1296e-16
8.24071e-10
1.33776e-08
4.49946e-16
6.48777e-09
5.01311e-16
-6.95669e-09
-3.81264e-08
-4.30044e-15
-6.68864e-09
-3.85771e-08
-4.20543e-15
-6.29823e-09
-3.87469e-08
-4.08968e-15
-5.79459e-09
-3.86401e-08
-3.92539e-15
-5.18883e-09
-3.82772e-08
-3.82358e-15
-4.49354e-09
-3.76726e-08
-3.57293e-15
-3.72201e-09
-3.68507e-08
-3.29735e-15
-2.8878e-09
-3.58349e-08
-3.04118e-15
-2.0044e-09
-3.46473e-08
-2.81408e-15
-1.08438e-09
-3.33207e-08
-2.58395e-15
-1.39122e-10
-3.18749e-08
-2.34728e-15
8.21433e-10
-3.03392e-08
-2.36383e-15
1.78959e-09
-2.87352e-08
-2.23012e-15
2.75918e-09
-2.70825e-08
-2.07145e-15
3.72601e-09
-2.53978e-08
-1.94831e-15
4.68799e-09
-2.36931e-08
-1.83913e-15
5.64524e-09
-2.19756e-08
-1.73912e-15
6.60028e-09
-2.02438e-08
-1.64288e-15
7.55846e-09
-1.84888e-08
-1.55673e-15
8.52777e-09
-1.66883e-08
-1.47614e-15
9.519e-09
-1.48017e-08
-1.40287e-15
1.05452e-08
-1.27792e-08
-1.34158e-15
1.16194e-08
-1.05282e-08
-1.2859e-15
1.27514e-08
-7.94352e-09
-1.24176e-15
1.39408e-08
-4.88371e-09
-1.20276e-15
1.51665e-08
-1.20464e-09
-1.15896e-15
1.63735e-08
3.20942e-09
-1.0838e-15
1.74589e-08
8.37165e-09
-1.18579e-15
1.82697e-08
1.41034e-08
-1.09567e-15
1.86238e-08
1.9953e-08
-9.85356e-16
1.83583e-08
2.52211e-08
-1.01181e-15
1.73931e-08
2.91315e-08
-8.32298e-16
1.57754e-08
3.10894e-08
-9.05578e-16
1.36724e-08
3.09861e-08
-6.87171e-16
1.13106e-08
2.92422e-08
-4.96636e-16
8.8993e-09
2.66157e-08
-8.54762e-16
6.57811e-09
2.38614e-08
-1.04659e-15
4.41539e-09
2.13621e-08
-9.74684e-16
2.46145e-09
1.88136e-08
-1.77764e-16
8.517e-10
1.49874e-08
4.36604e-16
7.33947e-09
5.14722e-16
-5.95954e-09
-3.82138e-08
-4.27565e-15
-5.76125e-09
-3.87754e-08
-4.08469e-15
-5.45555e-09
-3.90526e-08
-4.04492e-15
-5.04885e-09
-3.90468e-08
-3.8904e-15
-4.54961e-09
-3.87764e-08
-3.77981e-15
-3.96776e-09
-3.82545e-08
-3.54775e-15
-3.31408e-09
-3.75044e-08
-3.28211e-15
-2.59981e-09
-3.65491e-08
-3.03592e-15
-1.83642e-09
-3.54107e-08
-2.81792e-15
-1.0349e-09
-3.41222e-08
-2.59502e-15
-2.05558e-10
-3.27042e-08
-2.37477e-15
6.42399e-10
-3.11872e-08
-2.35466e-15
1.50164e-09
-2.95944e-08
-2.22137e-15
2.36609e-09
-2.79469e-08
-2.05866e-15
3.23139e-09
-2.62631e-08
-1.93089e-15
4.09491e-09
-2.45566e-08
-1.81791e-15
4.95591e-09
-2.28366e-08
-1.71454e-15
5.81582e-09
-2.11038e-08
-1.61525e-15
6.67857e-09
-1.93515e-08
-1.52625e-15
7.55074e-09
-1.75605e-08
-1.44233e-15
8.44184e-09
-1.56928e-08
-1.36611e-15
9.36437e-09
-1.37018e-08
-1.30185e-15
1.03324e-08
-1.14961e-08
-1.24412e-15
1.13592e-08
-8.97035e-09
-1.1991e-15
1.24518e-08
-5.97637e-09
-1.16066e-15
1.36022e-08
-2.35492e-09
-1.12067e-15
1.47739e-08
2.03755e-09
-1.05948e-15
1.58864e-08
7.25924e-09
-1.15159e-15
1.68061e-08
1.31837e-08
-1.08007e-15
1.73571e-08
1.94019e-08
-9.94782e-16
1.73612e-08
2.52171e-08
-1.02174e-15
1.67002e-08
2.97925e-08
-8.55204e-16
1.53725e-08
3.24172e-08
-9.20003e-16
1.35031e-08
3.28555e-08
-6.78708e-16
1.1298e-08
3.14473e-08
-4.92375e-16
8.96883e-09
2.89449e-08
-4.24694e-16
6.67247e-09
2.61578e-08
-1.11046e-15
4.4985e-09
2.3536e-08
-9.99003e-16
2.51508e-09
2.07971e-08
-2.3539e-16
8.7206e-10
1.66304e-08
4.21125e-16
8.21153e-09
5.2483e-16
-5.096e-09
-3.82634e-08
-4.54862e-15
-4.95131e-09
-3.89201e-08
-4.22707e-15
-4.71302e-09
-3.92908e-08
-4.1227e-15
-4.38541e-09
-3.93744e-08
-3.9451e-15
-3.97475e-09
-3.91871e-08
-3.82273e-15
-3.48885e-09
-3.87404e-08
-3.56544e-15
-2.93635e-09
-3.80569e-08
-3.31044e-15
-2.32643e-09
-3.7159e-08
-3.05921e-15
-1.66862e-09
-3.60685e-08
-2.83642e-15
-9.72332e-10
-3.48185e-08
-2.61205e-15
-2.46671e-10
-3.34299e-08
-2.39562e-15
5.00015e-10
-3.19339e-08
-2.37061e-15
1.26083e-09
-3.03552e-08
-2.21225e-15
2.02998e-09
-2.87161e-08
-2.04704e-15
2.80307e-09
-2.70362e-08
-1.91499e-15
3.57716e-09
-2.53307e-08
-1.79844e-15
4.35088e-09
-2.36103e-08
-1.69184e-15
5.1247e-09
-2.18776e-08
-1.58963e-15
5.90129e-09
-2.01281e-08
-1.49783e-15
6.68575e-09
-1.8345e-08
-1.41085e-15
7.48607e-09
-1.64931e-08
-1.33182e-15
8.3135e-09
-1.45293e-08
-1.26467e-15
9.18181e-09
-1.23644e-08
-1.20485e-15
1.01059e-08
-9.89453e-09
-1.15853e-15
1.10979e-08
-6.96829e-09
-1.11997e-15
1.21591e-08
-3.41605e-09
-1.08304e-15
1.3269e-08
9.27495e-10
-1.03349e-15
1.43683e-08
6.16004e-09
-1.11488e-15
1.53455e-08
1.22064e-08
-1.06047e-15
1.60386e-08
1.87087e-08
-9.98319e-16
1.62649e-08
2.49909e-08
-1.02597e-15
1.58781e-08
3.01792e-08
-8.74131e-16
1.48322e-08
3.34631e-08
-9.30714e-16
1.32076e-08
3.44801e-08
-6.73885e-16
1.11818e-08
3.34731e-08
-5.14313e-16
8.9606e-09
3.11661e-08
-3.22557e-16
6.71261e-09
2.84058e-08
-1.08834e-15
4.54668e-09
2.5702e-08
-1.02835e-15
2.54919e-09
2.27946e-08
-2.85988e-16
8.85192e-10
1.82944e-08
4.03812e-16
9.09672e-09
5.3151e-16
-4.34996e-09
-3.82858e-08
-4.53277e-15
-4.24623e-09
-3.90238e-08
-4.23013e-15
-4.06141e-09
-3.94757e-08
-4.06081e-15
-3.79813e-09
-3.96377e-08
-3.91088e-15
-3.46093e-09
-3.95243e-08
-3.78303e-15
-3.05584e-09
-3.91455e-08
-3.53432e-15
-2.58979e-09
-3.85229e-08
-3.29425e-15
-2.07018e-09
-3.76786e-08
-3.05339e-15
-1.50483e-09
-3.66338e-08
-2.83908e-15
-9.0158e-10
-3.54218e-08
-2.62033e-15
-2.68299e-10
-3.40632e-08
-2.41142e-15
3.87604e-10
-3.25898e-08
-2.38095e-15
1.05976e-09
-3.10274e-08
-2.20327e-15
1.74272e-09
-2.9399e-08
-2.03647e-15
2.43222e-09
-2.77257e-08
-1.90072e-15
3.12515e-09
-2.60236e-08
-1.78092e-15
3.8197e-09
-2.43049e-08
-1.67133e-15
4.51558e-09
-2.25735e-08
-1.56627e-15
5.21437e-09
-2.08269e-08
-1.47175e-15
5.91976e-09
-1.90504e-08
-1.38189e-15
6.63815e-09
-1.72114e-08
-1.30023e-15
7.37923e-09
-1.52704e-08
-1.23036e-15
8.1557e-09
-1.31409e-08
-1.16838e-15
8.98277e-09
-1.07216e-08
-1.12056e-15
9.87516e-09
-7.86068e-09
-1.08147e-15
1.08413e-08
-4.3821e-09