/*--------------------------------*- C++ -*----------------------------------*\
| =========                 |                                                 |
| \\      /  F ield         | OpenFOAM: The Open Source CFD Toolbox           |
|  \\    /   O peration     | Version:  v2012                                 |
|   \\  /    A nd           | Website:  www.openfoam.com                      |
|    \\/     M anipulation  |                                                 |
\*---------------------------------------------------------------------------*/
FoamFile
{
    version     2.0;
    format      ascii;
    class       volVectorField;
    location    "0.65";
    object      U;
}
// * * * * * * * * * * * * * * * * * * * * * * * * * * * * * * * * * * * * * //

dimensions      [0 1 -1 0 0 0 0];


internalField   nonuniform List<vector> 
3338
(
(-0.0446854 -0.291505 0.00039049)
(-0.0360675 -0.0538806 0.000315233)
(-0.0126826 0.163713 0.000110555)
(-0.00966129 0.360755 8.41427e-05)
(-0.00739209 0.539295 6.45452e-05)
(-0.00652358 0.698198 5.69471e-05)
(-0.00592405 0.837614 5.17205e-05)
(-0.00542398 0.956795 4.7355e-05)
(-0.00494451 1.05507 4.31697e-05)
(-0.00446439 1.13168 3.89786e-05)
(-0.00397587 1.18577 3.47143e-05)
(-0.00347923 1.21636 3.03791e-05)
(-0.00297851 1.22228 2.60082e-05)
(-0.00248027 1.20217 2.16589e-05)
(-0.00199285 1.15442 1.74038e-05)
(-0.001526 1.07713 1.33281e-05)
(-0.00109147 0.968046 9.53435e-06)
(-0.000701858 0.824522 6.13262e-06)
(-0.000374565 0.643489 3.27466e-06)
(-0.000126507 0.421385 1.10945e-06)
(1.08427e-06 0.154377 1.45583e-08)
(-0.048399 -0.294719 0.000422536)
(-0.0420152 -0.0599348 0.00036689)
(-0.0304221 0.157745 0.000265699)
(-0.0257243 0.358745 0.000224673)
(-0.0216307 0.53842 0.000188895)
(-0.0194438 0.697822 0.000169755)
(-0.0177506 0.837373 0.000154976)
(-0.0162757 0.956585 0.000142098)
(-0.0148454 1.05486 0.000129614)
(-0.0134076 1.13145 0.000117062)
(-0.0119422 1.18552 0.000104271)
(-0.0104511 1.21609 9.12554e-05)
(-0.00894693 1.222 7.81252e-05)
(-0.00744968 1.20189 6.5055e-05)
(-0.00598468 1.15414 5.22658e-05)
(-0.00458151 1.07686 4.0016e-05)
(-0.00327594 0.967793 2.86174e-05)
(-0.00210646 0.824296 1.84061e-05)
(-0.00112601 0.643301 9.84388e-06)
(-0.000385916 0.421254 3.38208e-06)
(-2.75144e-06 0.154328 8.53321e-08)
(-0.0547391 -0.296337 0.000477869)
(-0.0504211 -0.0626999 0.000440234)
(-0.0443782 0.155375 0.00038748)
(-0.0398564 0.357121 0.000347997)
(-0.0352371 0.537403 0.000307667)
(-0.0321308 0.697222 0.000280519)
(-0.0294928 0.836921 0.000257492)
(-0.0270965 0.95617 0.000236571)
(-0.0247376 1.05443 0.000215981)
(-0.0223514 1.131 0.000195152)
(-0.0199129 1.18504 0.000173867)
(-0.0174284 1.21559 0.000152179)
(-0.0149202 1.22148 0.000130285)
(-0.0124225 1.20137 0.000108481)
(-0.00997815 1.15364 8.71427e-05)
(-0.00763711 1.07638 6.6705e-05)
(-0.00545978 0.967358 4.76952e-05)
(-0.00351133 0.823921 3.06822e-05)
(-0.00188102 0.643008 1.64442e-05)
(-0.000654358 0.421064 5.73264e-06)
(-1.27988e-05 0.154267 2.07574e-07)
(-0.0626447 -0.296628 0.000546879)
(-0.0600078 -0.0632248 0.000523883)
(-0.0567523 0.154552 0.000495449)
(-0.0528595 0.355913 0.000461486)
(-0.0482517 0.536414 0.000421275)
(-0.0445389 0.696507 0.000388846)
(-0.0411169 0.836312 0.000358975)
(-0.0378688 0.955575 0.00033062)
(-0.0346132 1.0538 0.000302203)
(-0.031293 1.13032 0.000273221)
(-0.0278876 1.18431 0.000243496)
(-0.0244118 1.21482 0.000213155)
(-0.0208994 1.2207 0.000182496)
(-0.0174001 1.20058 0.000151949)
(-0.0139749 1.15286 0.000122047)
(-0.0106944 1.07565 9.34085e-05)
(-0.00764443 0.966688 6.67797e-05)
(-0.00491719 0.823342 4.29667e-05)
(-0.00263851 0.64255 2.30663e-05)
(-0.000927357 0.420764 8.12431e-06)
(-2.4011e-05 0.154162 3.4882e-07)
(-0.0716524 -0.295998 0.000625491)
(-0.0702651 -0.0627592 0.000613397)
(-0.068458 0.154533 0.000597619)
(-0.0651924 0.35518 0.000569139)
(-0.060795 0.535592 0.000530768)
(-0.0566859 0.695763 0.00049489)
(-0.0526156 0.835589 0.000459362)
(-0.0485849 0.954817 0.000424178)
(-0.0444677 1.05297 0.00038824)
(-0.0402303 1.12942 0.000351252)
(-0.0358657 1.18334 0.000313155)
(-0.0314013 1.2138 0.000274185)
(-0.0268852 1.21964 0.000234764)
(-0.0223833 1.19952 0.000195465)
(-0.0179756 1.15183 0.000156987)
(-0.0137543 1.07466 0.000120135)
(-0.00983061 0.965791 8.58774e-05)
(-0.00632434 0.822567 5.52623e-05)
(-0.00339776 0.641937 2.97037e-05)
(-0.00120272 0.420361 1.05366e-05)
(-3.6002e-05 0.154019 4.97481e-07)
(-0.0814968 -0.294589 0.000711409)
(-0.0809897 -0.0615968 0.000707)
(-0.0799437 0.155106 0.000697876)
(-0.0771684 0.354905 0.000673677)
(-0.073008 0.534991 0.000637378)
(-0.0686215 0.695048 0.000599088)
(-0.0640007 0.834787 0.000558757)
(-0.0592467 0.953919 0.000517261)
(-0.0543009 1.05197 0.000474092)
(-0.0491631 1.1283 0.000429245)
(-0.0438473 1.18214 0.000382844)
(-0.0383973 1.21253 0.000335272)
(-0.0328779 1.21833 0.000287093)
(-0.0273727 1.1982 0.000239035)
(-0.0219811 1.15053 0.000191968)
(-0.0168174 1.07344 0.000146889)
(-0.0120188 0.96467 0.000104993)
(-0.00773296 0.821599 6.75708e-05)
(-0.00415838 0.641172 3.63531e-05)
(-0.00147934 0.419858 1.29599e-05)
(-4.83548e-05 0.153838 6.49094e-07)
(-0.092016 -0.292523 0.000803224)
(-0.092106 -0.0598905 0.000804028)
(-0.091451 0.156141 0.000798323)
(-0.0890033 0.355032 0.000776985)
(-0.0850214 0.534617 0.000742246)
(-0.0804073 0.694392 0.000701975)
(-0.0752966 0.833933 0.000657371)
(-0.0698635 0.952895 0.00060995)
(-0.0641167 1.05078 0.00055979)
(-0.0580934 1.12698 0.000507215)
(-0.0518335 1.18069 0.000452575)
(-0.0454009 1.211 0.000396425)
(-0.0388785 1.21675 0.000339491)
(-0.0323688 1.19661 0.000282665)
(-0.0259919 1.14898 0.000226996)
(-0.0198843 1.07196 0.000173676)
(-0.0142096 0.963325 0.000124131)
(-0.00914325 0.820438 7.9894e-05)
(-0.00492015 0.640256 4.30125e-05)
(-0.00175659 0.419254 1.53887e-05)
(-6.07488e-05 0.15362 8.01048e-07)
(-0.103118 -0.289907 0.000900125)
(-0.103593 -0.0577548 0.000904292)
(-0.103113 0.157537 0.000900122)
(-0.100841 0.355498 0.000880318)
(-0.0969445 0.534455 0.000846326)
(-0.0921055 0.693807 0.000804098)
(-0.0865337 0.833043 0.000755471)
(-0.08045 0.951757 0.000702374)
(-0.073922 1.04943 0.000645397)
(-0.0670249 1.12545 0.000585195)
(-0.0598267 1.17902 0.000522365)
(-0.0524133 1.20922 0.000457655)
(-0.0448878 1.21491 0.000391964)
(-0.0373725 1.19475 0.00032636)
(-0.0300086 1.14716 0.000262075)
(-0.0229555 1.07024 0.0002005)
(-0.0164032 0.961754 0.000143294)
(-0.0105554 0.819083 9.22331e-05)
(-0.00568294 0.639187 4.9681e-05)
(-0.00203413 0.418549 1.78199e-05)
(-7.30432e-05 0.153363 9.52121e-07)
(-0.114751 -0.286824 0.00100167)
(-0.11545 -0.0552669 0.0010078)
(-0.115006 0.159228 0.00100394)
(-0.112778 0.356244 0.00098452)
(-0.108864 0.534478 0.000950381)
(-0.103774 0.693291 0.000905959)
(-0.0977447 0.832122 0.000853345)
(-0.0910237 0.950513 0.000794687)
(-0.0837263 1.04792 0.000730995)
(-0.0759626 1.12371 0.00066323)
(-0.0678296 1.17711 0.000592241)
(-0.0594364 1.20718 0.000518978)
(-0.0509069 1.2128 0.000444524)
(-0.0423845 1.19263 0.000370128)
(-0.0340318 1.14508 0.000297211)
(-0.0260314 1.06827 0.000227366)
(-0.0186 0.959958 0.000162485)
(-0.0119695 0.817534 0.00010459)
(-0.00644673 0.637966 5.63581e-05)
(-0.00231178 0.417744 2.02522e-05)
(-8.51724e-05 0.153068 1.10174e-06)
(-0.126888 -0.283339 0.00110762)
(-0.127686 -0.0524803 0.00111461)
(-0.127176 0.161163 0.00111018)
(-0.12488 0.357218 0.00109016)
(-0.120849 0.534657 0.001055)
(-0.115462 0.692835 0.001008)
(-0.108962 0.831171 0.000951272)
(-0.101604 0.949164 0.000887054)
(-0.0935404 1.04625 0.000816679)
(-0.0849129 1.12178 0.000741375)
(-0.075846 1.17497 0.000662234)
(-0.0664722 1.2049 0.000580412)
(-0.0569373 1.21043 0.000497182)
(-0.0474057 1.19025 0.000413977)
(-0.0380621 1.14275 0.000332409)
(-0.0291124 1.06605 0.000254277)
(-0.0208003 0.957936 0.000181706)
(-0.0133858 0.815791 0.000116965)
(-0.00721154 0.636591 6.30441e-05)
(-0.0025895 0.416837 2.26851e-05)
(-9.71286e-05 0.152735 1.24979e-06)
(-0.139517 -0.2795 0.00121785)
(-0.140312 -0.0494351 0.00122483)
(-0.139655 0.163302 0.00121911)
(-0.137193 0.358376 0.00119765)
(-0.132951 0.534959 0.00116065)
(-0.127215 0.692423 0.0011106)
(-0.120215 0.830185 0.00104951)
(-0.112209 0.947711 0.000979644)
(-0.103376 1.04442 0.00090255)
(-0.0938826 1.11964 0.000819688)
(-0.0838798 1.1726 0.000732379)
(-0.0735232 1.20236 0.000641979)
(-0.0629803 1.2078 0.00054995)
(-0.052437 1.18759 0.000457913)
(-0.0421001 1.14015 0.000367674)
(-0.032199 1.06358 0.000281237)
(-0.0230044 0.955688 0.00020096)
(-0.0148043 0.813854 0.000129361)
(-0.00797742 0.635064 6.97395e-05)
(-0.00286732 0.415829 2.51188e-05)
(-0.000108927 0.152364 1.39644e-06)
(-0.152631 -0.275348 0.00133233)
(-0.153337 -0.0461635 0.00133853)
(-0.152462 0.165614 0.00133091)
(-0.149749 0.359681 0.00130726)
(-0.145211 0.535355 0.00126767)
(-0.139066 0.692037 0.00121405)
(-0.131531 0.829153 0.00114831)
(-0.122858 0.946149 0.00107261)
(-0.113244 1.04242 0.000988708)
(-0.102879 1.1173 0.000898233)
(-0.0919353 1.16999 0.000802714)
(-0.0805919 1.19957 0.0007037)
(-0.0690374 1.2049 0.000602841)
(-0.0574791 1.18467 0.000501944)
(-0.0461462 1.13728 0.00040301)
(-0.0352915 1.06087 0.000308247)
(-0.0252125 0.953213 0.000220249)
(-0.0162253 0.811721 0.000141777)
(-0.00874445 0.633383 7.64448e-05)
(-0.00314528 0.41472 2.75538e-05)
(-0.000120593 0.151956 1.54188e-06)
(-0.16623 -0.270916 0.00145105)
(-0.16677 -0.0426928 0.00145579)
(-0.165612 0.168072 0.00144571)
(-0.162572 0.361099 0.0014192)
(-0.157658 0.535817 0.00137633)
(-0.151044 0.691658 0.00131863)
(-0.142933 0.828065 0.00124785)
(-0.133567 0.944471 0.00116611)
(-0.123157 1.04026 0.00107525)
(-0.111908 1.11476 0.000977069)
(-0.100017 1.16715 0.000873275)
(-0.0876807 1.19652 0.000765597)
(-0.07511 1.20174 0.000655868)
(-0.062533 1.18147 0.000546078)
(-0.0502009 1.13415 0.000438421)
(-0.03839 1.0579 0.000335311)
(-0.0274247 0.950511 0.000239574)
(-0.0176488 0.809394 0.000154216)
(-0.00951268 0.631549 8.31608e-05)
(-0.00342346 0.413509 2.99907e-05)
(-0.000132154 0.151509 1.68642e-06)
(-0.180316 -0.266232 0.00157401)
(-0.18062 -0.0390474 0.00157669)
(-0.179117 0.170649 0.0015636)
(-0.175678 0.3626 0.00153362)
(-0.170316 0.536317 0.00148683)
(-0.163173 0.691265 0.00142452)
(-0.154441 0.826906 0.00134831)
(-0.144351 0.942669 0.00126025)
(-0.133123 1.03793 0.00116226)
(-0.120978 1.112 0.00105625)
(-0.108128 1.16408 0.000944098)
(-0.0947921 1.19322 0.000827691)
(-0.0811995 1.19831 0.000709041)
(-0.0675993 1.17801 0.00059032)
(-0.0542645 1.13076 0.000473911)
(-0.0414949 1.05468 0.000362429)
(-0.029641 0.947582 0.000258936)
(-0.0190749 0.80687 0.000166677)
(-0.0102822 0.629561 8.98877e-05)
(-0.00370191 0.412196 3.243e-05)
(-0.00014364 0.151025 1.8303e-06)
(-0.194891 -0.261321 0.00170124)
(-0.194892 -0.0352498 0.00170128)
(-0.192984 0.173322 0.00168466)
(-0.18908 0.364159 0.00165062)
(-0.183201 0.536832 0.00159932)
(-0.175471 0.690839 0.00153188)
(-0.16607 0.825662 0.00144983)
(-0.155222 0.940733 0.00135516)
(-0.143153 1.03542 0.00124983)
(-0.130093 1.10903 0.00113584)
(-0.116273 1.16076 0.00101522)
(-0.101928 1.18966 0.000890001)
(-0.0873069 1.19461 0.000762372)
(-0.0726785 1.17428 0.000634675)
(-0.0583373 1.1271 0.00050948)
(-0.044606 1.05121 0.000389603)
(-0.0318616 0.944424 0.000278334)
(-0.0205035 0.804151 0.00017916)
(-0.011053 0.627418 9.6626e-05)
(-0.0039807 0.410781 3.48723e-05)
(-0.000155075 0.150502 1.97376e-06)
(-0.209959 -0.256209 0.00183278)
(-0.209591 -0.0313216 0.00182961)
(-0.207219 0.176071 0.00180893)
(-0.202787 0.36575 0.00177028)
(-0.196326 0.537338 0.0017139)
(-0.187951 0.690359 0.00164082)
(-0.177833 0.824319 0.00155253)
(-0.16619 0.938653 0.00145092)
(-0.153253 1.03273 0.00133801)
(-0.13926 1.10585 0.00121587)
(-0.124455 1.1572 0.00108666)
(-0.109091 1.18583 0.000952543)
(-0.0934333 1.19063 0.000815869)
(-0.0777711 1.17027 0.000679147)
(-0.0624195 1.12318 0.000545131)
(-0.0477235 1.04749 0.000416833)
(-0.0340863 0.941037 0.000297769)
(-0.0219347 0.801234 0.000191666)
(-0.011825 0.625121 0.000103376)
(-0.00425986 0.409264 3.73178e-05)
(-0.000166481 0.149942 2.11702e-06)
(-0.225522 -0.250917 0.00196864)
(-0.224723 -0.027284 0.0019617)
(-0.221825 0.178873 0.00193644)
(-0.216804 0.367351 0.00189265)
(-0.209699 0.537812 0.00183065)
(-0.200622 0.689806 0.00175145)
(-0.189739 0.822859 0.00165648)
(-0.177264 0.936415 0.00154761)
(-0.163429 1.02984 0.00142686)
(-0.148481 1.10244 0.00129639)
(-0.132677 1.15339 0.00115844)
(-0.116282 1.18175 0.00101533)
(-0.0995793 1.18639 0.000869537)
(-0.0828773 1.16599 0.000723738)
(-0.0665108 1.11899 0.000580862)
(-0.0508472 1.04352 0.000444116)
(-0.0363151 0.937422 0.000317239)
(-0.0233683 0.798121 0.000204193)
(-0.0125984 0.622668 0.000110136)
(-0.00453943 0.407644 3.97669e-05)
(-0.000177877 0.149343 2.26023e-06)
(-0.241583 -0.245468 0.00210885)
(-0.240287 -0.023158 0.00209757)
(-0.236805 0.181707 0.00206721)
(-0.231134 0.36894 0.00201775)
(-0.223325 0.538233 0.00194961)
(-0.213491 0.68916 0.0018638)
(-0.201796 0.821269 0.00176174)
(-0.18845 0.934009 0.00164527)
(-0.173687 1.02675 0.00151642)
(-0.157762 1.0988 0.00137742)
(-0.14094 1.14933 0.00123059)
(-0.123501 1.17739 0.00107837)
(-0.105745 1.18187 0.000923379)
(-0.087997 1.16143 0.000768446)
(-0.0706112 1.11453 0.000616672)
(-0.0539768 1.0393 0.000471451)
(-0.0385476 0.933576 0.000336741)
(-0.0248042 0.794811 0.00021674)
(-0.0133729 0.620061 0.000116907)
(-0.00481941 0.405922 4.22196e-05)
(-0.000189277 0.148706 2.40354e-06)
(-0.258142 -0.239884 0.0022534)
(-0.256285 -0.0189651 0.00223724)
(-0.252158 0.184552 0.00220124)
(-0.245778 0.370496 0.00214559)
(-0.237207 0.538581 0.0020708)
(-0.226563 0.688404 0.00197792)
(-0.214008 0.819532 0.00186836)
(-0.199751 0.931422 0.00174393)
(-0.18403 1.02345 0.00160672)
(-0.167102 1.09492 0.00145897)
(-0.149245 1.14501 0.0013031)
(-0.13075 1.17276 0.00114166)
(-0.111931 1.17707 0.000977394)
(-0.0931298 1.1566 0.00081327)
(-0.0747201 1.10979 0.000652557)
(-0.0571118 1.03482 0.000498833)
(-0.0407835 0.9295 0.000356274)
(-0.0262421 0.791303 0.000229305)
(-0.0141486 0.617298 0.000123688)
(-0.00509979 0.404097 4.46758e-05)
(-0.000200692 0.148031 2.54705e-06)
(-0.275199 -0.23419 0.00240231)
(-0.272715 -0.0147267 0.00238067)
(-0.267882 0.187389 0.00233851)
(-0.260733 0.371997 0.00227615)
(-0.251344 0.538835 0.00219422)
(-0.239837 0.68752 0.0020938)
(-0.226376 0.817632 0.00197633)
(-0.211169 0.928642 0.00184362)
(-0.194458 1.01993 0.00169776)
(-0.176504 1.0908 0.00154106)
(-0.157593 1.14042 0.001376)
(-0.138028 1.16786 0.00120521)
(-0.118136 1.17198 0.00103158)
(-0.0982752 1.15148 0.000858203)
(-0.078837 1.10479 0.000688511)
(-0.0602517 1.03008 0.000526259)
(-0.0430224 0.925194 0.000375833)
(-0.0276819 0.787597 0.000241885)
(-0.0149252 0.614379 0.000130477)
(-0.00538054 0.40217 4.71352e-05)
(-0.00021213 0.147318 2.69082e-06)
(-0.292752 -0.228407 0.00255554)
(-0.289574 -0.0104652 0.00252785)
(-0.283972 0.190194 0.00247898)
(-0.275996 0.373423 0.0024094)
(-0.265733 0.538978 0.00231984)
(-0.253311 0.68649 0.00221144)
(-0.238899 0.815556 0.00208566)
(-0.222704 0.925656 0.00194433)
(-0.204971 1.01618 0.00178956)
(-0.185966 1.08642 0.00162368)
(-0.165984 1.13557 0.00144925)
(-0.145334 1.16268 0.00126901)
(-0.12436 1.16662 0.00108592)
(-0.103432 1.14608 0.000903237)
(-0.0829608 1.09952 0.000724527)
(-0.0633958 1.02509 0.00055372)
(-0.0452638 0.920656 0.000395413)
(-0.029123 0.783694 0.000254478)
(-0.0157026 0.611305 0.000137273)
(-0.00566161 0.400139 4.95974e-05)
(-0.000223597 0.146566 2.8349e-06)
(-0.310795 -0.222562 0.00271305)
(-0.306856 -0.00620324 0.00267872)
(-0.300422 0.192948 0.00262259)
(-0.291561 0.374755 0.00254528)
(-0.280369 0.538988 0.00244762)
(-0.266983 0.685296 0.0023308)
(-0.251574 0.813287 0.00219633)
(-0.234354 0.922452 0.00204604)
(-0.215568 1.01218 0.00188208)
(-0.195488 1.08179 0.00170681)
(-0.174415 1.13044 0.00152287)
(-0.152668 1.15721 0.00133304)
(-0.1306 1.16097 0.00114042)
(-0.108599 1.14041 0.000948361)
(-0.0870906 1.09397 0.000760593)
(-0.0665432 1.01984 0.00058121)
(-0.0475069 0.915887 0.000415008)
(-0.0305651 0.779591 0.000267079)
(-0.0164805 0.608075 0.000144074)
(-0.00594292 0.398005 5.20618e-05)
(-0.000235095 0.145776 2.9793e-06)
(-0.329321 -0.216679 0.00287478)
(-0.324551 -0.00196417 0.0028332)
(-0.317223 0.195628 0.00276927)
(-0.307418 0.375972 0.00268372)
(-0.295244 0.538849 0.00257749)
(-0.280845 0.683922 0.00245183)
(-0.264398 0.810813 0.00230829)
(-0.246115 0.919018 0.00214872)
(-0.226246 1.00794 0.00197531)
(-0.205067 1.07689 0.00179045)
(-0.182884 1.12504 0.00159682)
(-0.160026 1.15146 0.00139729)
(-0.136856 1.15503 0.00119504)
(-0.113775 1.13444 0.000993559)
(-0.0912248 1.08815 0.000796699)
(-0.0696927 1.01434 0.000608719)
(-0.049751 0.910886 0.000434612)
(-0.0320077 0.77529 0.000279684)
(-0.0172587 0.604688 0.000150877)
(-0.00622439 0.395768 5.45275e-05)
(-0.000246626 0.144948 3.12402e-06)
(-0.34832 -0.210784 0.00304064)
(-0.34265 0.00222811 0.00299121)
(-0.334365 0.198213 0.00291892)
(-0.323558 0.377053 0.00282462)
(-0.310349 0.538542 0.00270936)
(-0.29489 0.682353 0.00257445)
(-0.277362 0.808118 0.00242147)
(-0.257982 0.915343 0.00225233)
(-0.237001 1.00344 0.0020692)
(-0.214699 1.07171 0.00187454)
(-0.191388 1.11935 0.00167107)
(-0.167405 1.14542 0.00146173)
(-0.143124 1.1488 0.00124978)
(-0.118957 1.12819 0.00103881)
(-0.0953619 1.08206 0.00083283)
(-0.072843 1.00858 0.000636235)
(-0.0519951 0.905653 0.000454215)
(-0.0334501 0.770791 0.000292288)
(-0.0180368 0.601146 0.000157679)
(-0.00650591 0.393428 5.69937e-05)
(-0.000258187 0.144082 3.26902e-06)
(-0.367779 -0.204905 0.00321052)
(-0.361138 0.00634919 0.00315261)
(-0.351832 0.200681 0.00307141)
(-0.339967 0.37798 0.00296788)
(-0.325672 0.538049 0.00284313)
(-0.309107 0.680572 0.00269857)
(-0.290459 0.805189 0.00253582)
(-0.269946 0.911416 0.00235679)
(-0.247825 0.998665 0.00216371)
(-0.224378 1.06625 0.00195906)
(-0.199923 1.11337 0.0017456)
(-0.174803 1.13909 0.00152633)
(-0.149402 1.14228 0.0013046)
(-0.124144 1.12165 0.00108411)
(-0.0994998 1.07568 0.000868969)
(-0.0759927 1.00256 0.000663746)
(-0.0542381 0.900188 0.00047381)
(-0.0348917 0.766093 0.000304884)
(-0.0188145 0.597448 0.000164478)
(-0.00678735 0.390985 5.94592e-05)
(-0.000269777 0.143177 3.41428e-06)
(-0.387681 -0.19907 0.00338427)
(-0.379999 0.0103743 0.00331726)
(-0.369608 0.203009 0.0032266)
(-0.356629 0.378732 0.00311334)
(-0.341198 0.537353 0.00297868)
(-0.323484 0.678564 0.00282409)
(-0.303677 0.802014 0.00265122)
(-0.282 0.907225 0.00246203)
(-0.258712 0.993617 0.00225877)
(-0.2341 1.06051 0.00204394)
(-0.208484 1.1071 0.00182034)
(-0.182216 1.13245 0.00159105)
(-0.155686 1.13546 0.00135947)
(-0.129332 1.11483 0.00112941)
(-0.103637 1.06904 0.000905096)
(-0.0791401 0.996286 0.000691237)
(-0.0564789 0.89449 0.000493386)
(-0.0363316 0.761197 0.000317467)
(-0.0195914 0.593594 0.00017127)
(-0.00706857 0.388439 6.19227e-05)
(-0.00028139 0.142233 3.55971e-06)
(-0.408006 -0.193307 0.0035617)
(-0.399211 0.0142783 0.00348499)
(-0.387674 0.205177 0.00338433)
(-0.373526 0.37929 0.00326086)
(-0.356912 0.536437 0.00311587)
(-0.338006 0.676314 0.00295088)
(-0.317005 0.798579 0.00276758)
(-0.294134 0.902761 0.00256797)
(-0.269654 0.988283 0.0023543)
(-0.243856 1.05447 0.00212912)
(-0.217065 1.10053 0.00189527)
(-0.189637 1.12552 0.00165586)
(-0.161973 1.12834 0.00141437)
(-0.134517 1.10771 0.0011747)
(-0.107769 1.06211 0.000941191)
(-0.0822834 0.989752 0.000718691)
(-0.0587163 0.888561 0.00051293)
(-0.0377692 0.756103 0.000330028)
(-0.020367 0.589584 0.00017805)
(-0.00734941 0.385791 6.43829e-05)
(-0.000293019 0.141252 3.70525e-06)
(-0.428728 -0.187645 0.00374261)
(-0.418751 0.0180361 0.00365558)
(-0.406008 0.207161 0.00354439)
(-0.390638 0.379636 0.00341026)
(-0.372794 0.535284 0.00325453)
(-0.352658 0.673809 0.00307879)
(-0.330428 0.794874 0.00288478)
(-0.306334 0.898014 0.00267449)
(-0.28064 0.982657 0.00245022)
(-0.253638 1.04814 0.00221453)
(-0.225659 1.09365 0.00197031)
(-0.197063 1.11828 0.00172069)
(-0.168257 1.12093 0.00146925)
(-0.139698 1.1003 0.00121994)
(-0.111896 1.05491 0.000977229)
(-0.0854205 0.98296 0.000746092)
(-0.0609486 0.882401 0.000532432)
(-0.0392034 0.75081 0.000342561)
(-0.0211408 0.58542 0.000184815)
(-0.00762968 0.383039 6.68382e-05)
(-0.000304658 0.140232 3.85079e-06)
(-0.449819 -0.182114 0.00392673)
(-0.438591 0.0216227 0.00382879)
(-0.424584 0.208941 0.00370656)
(-0.407941 0.379752 0.00356132)
(-0.388825 0.53388 0.00339449)
(-0.367421 0.671036 0.00320769)
(-0.343931 0.790888 0.00300267)
(-0.318589 0.892974 0.00278149)
(-0.29166 0.976731 0.00254644)
(-0.263438 1.04149 0.0023001)
(-0.234259 1.08647 0.0020454)
(-0.204486 1.11074 0.00178551)
(-0.174535 1.11321 0.00152406)
(-0.144869 1.0926 0.0012651)
(-0.116013 1.04743 0.00101318)
(-0.0885492 0.975911 0.00077342)
(-0.0631745 0.876009 0.000551877)
(-0.0406334 0.745321 0.000355055)
(-0.0219124 0.5811 0.00019156)
(-0.0079092 0.380185 6.92868e-05)
(-0.000316298 0.139173 3.99625e-06)
(-0.471245 -0.176742 0.00411379)
(-0.458702 0.0250135 0.00400437)
(-0.443373 0.210496 0.0038706)
(-0.425411 0.379618 0.00371384)
(-0.404982 0.532209 0.00353555)
(-0.382275 0.667982 0.00333738)
(-0.357498 0.786609 0.00312112)
(-0.330884 0.887635 0.00288883)
(-0.302701 0.970499 0.00264284)
(-0.273246 1.03454 0.00238574)
(-0.242856 1.07898 0.00212047)
(-0.211901 1.10289 0.00185026)
(-0.1808 1.10519 0.00157877)
(-0.150028 1.08461 0.00131014)
(-0.120117 1.03967 0.00104903)
(-0.0916672 0.968604 0.000800654)
(-0.0653922 0.869386 0.00057125)
(-0.0420579 0.739635 0.000367503)
(-0.022681 0.576626 0.00019828)
(-0.00818775 0.377229 7.17269e-05)
(-0.000327929 0.138077 4.14148e-06)
(-0.49297 -0.171559 0.00430346)
(-0.479049 0.0281845 0.004182)
(-0.462346 0.211806 0.00403624)
(-0.443019 0.37922 0.00386757)
(-0.421239 0.530258 0.00367749)
(-0.3972 0.664636 0.00346768)
(-0.37111 0.78203 0.00323996)
(-0.343203 0.881988 0.00299639)
(-0.313751 0.963956 0.00273932)
(-0.283051 1.02728 0.00247135)
(-0.251443 1.07117 0.00219544)
(-0.219299 1.09473 0.00191486)
(-0.187047 1.09687 0.00163333)
(-0.155168 1.07633 0.00135503)
(-0.124205 1.03163 0.00108473)
(-0.0947719 0.961041 0.000827771)
(-0.0675999 0.862534 0.000590536)
(-0.0434759 0.733753 0.000379894)
(-0.0234462 0.571998 0.000204969)
(-0.00846511 0.374172 7.41567e-05)
(-0.00033954 0.136943 4.28637e-06)
(-0.514952 -0.166591 0.00449536)
(-0.499593 0.0311128 0.00436135)
(-0.481467 0.212852 0.00420317)
(-0.460735 0.378542 0.00402224)
(-0.437571 0.528013 0.00382008)
(-0.412172 0.660987 0.0035984)
(-0.384746 0.77714 0.00335902)
(-0.355531 0.876027 0.00310402)
(-0.324796 0.957095 0.00283575)
(-0.292841 1.0197 0.00255683)
(-0.260008 1.06305 0.00227024)
(-0.226674 1.08626 0.00197926)
(-0.19327 1.08824 0.00168767)
(-0.160285 1.06775 0.00139972)
(-0.128274 1.02332 0.00112026)
(-0.0978605 0.953222 0.000854749)
(-0.0697959 0.855453 0.00060972)
(-0.0448862 0.727676 0.000392217)
(-0.0242073 0.567218 0.000211622)
(-0.00874104 0.371013 7.65739e-05)
(-0.000351119 0.135771 4.43076e-06)
(-0.537143 -0.161865 0.0046891)
(-0.520293 0.0337765 0.00454207)
(-0.500699 0.213617 0.00437108)
(-0.478526 0.377568 0.00417757)
(-0.45395 0.525464 0.00396307)
(-0.427167 0.657026 0.00372931)
(-0.398387 0.771934 0.00347812)
(-0.367848 0.869746 0.00321156)
(-0.33582 0.949914 0.00293201)
(-0.302604 1.01179 0.00264208)
(-0.268544 1.05461 0.00234476)
(-0.234018 1.07747 0.00204338)
(-0.199463 1.07931 0.00174175)
(-0.165375 1.05888 0.00144417)
(-0.132318 1.01473 0.00115559)
(-0.10093 0.945149 0.000881562)
(-0.071978 0.848145 0.000628782)
(-0.0462876 0.721405 0.000404462)
(-0.0249635 0.562286 0.000218233)
(-0.00901529 0.367754 7.89764e-05)
(-0.000362654 0.134561 4.57452e-06)
(-0.559494 -0.157407 0.00488423)
(-0.541104 0.0361556 0.00472376)
(-0.520004 0.214083 0.00453962)
(-0.496359 0.376286 0.00433325)
(-0.470344 0.522599 0.0041062)
(-0.442158 0.652744 0.0038602)
(-0.41201 0.766405 0.00359706)
(-0.380136 0.863141 0.00331886)
(-0.346809 0.942409 0.00302795)
(-0.312328 1.00357 0.00272697)
(-0.277038 1.04586 0.00241893)
(-0.241321 1.06838 0.00210715)
(-0.205618 1.07008 0.00179549)
(-0.170432 1.04973 0.00148833)
(-0.136335 1.00587 0.00119067)
(-0.103978 0.936822 0.000908184)
(-0.0741443 0.84061 0.000647706)
(-0.0476786 0.714942 0.000416617)
(-0.0257143 0.557202 0.000224797)
(-0.00928761 0.364395 8.1362e-05)
(-0.000374131 0.133315 4.71748e-06)
(-0.58195 -0.153239 0.00508028)
(-0.561979 0.0382317 0.00490601)
(-0.539339 0.214236 0.00470843)
(-0.514196 0.374684 0.00448898)
(-0.486723 0.51941 0.0042492)
(-0.457119 0.648136 0.00399082)
(-0.425592 0.760548 0.00371564)
(-0.392377 0.856207 0.00342573)
(-0.357746 0.934578 0.00312345)
(-0.321998 0.995022 0.00281141)
(-0.28548 1.03678 0.00249264)
(-0.248575 1.05897 0.0021705)
(-0.211729 1.06055 0.00184886)
(-0.17545 1.04028 0.00153215)
(-0.14032 0.996738 0.00122547)
(-0.107001 0.928245 0.000934589)
(-0.0762925 0.832851 0.000666473)
(-0.0490581 0.708288 0.000428671)
(-0.0264588 0.551969 0.000231305)
(-0.00955772 0.360937 8.37282e-05)
(-0.000385536 0.132031 4.85948e-06)
(-0.604454 -0.149382 0.00527674)
(-0.582867 0.0399887 0.00508837)
(-0.558661 0.214064 0.00487712)
(-0.531999 0.372753 0.00464442)
(-0.503054 0.515889 0.00439179)
(-0.472022 0.643195 0.00412093)
(-0.439109 0.754358 0.00383366)
(-0.40455 0.848944 0.00353201)
(-0.368614 0.926418 0.00321834)
(-0.331601 0.986151 0.00289526)
(-0.293858 1.02739 0.0025658)
(-0.255771 1.04926 0.00223333)
(-0.217788 1.05071 0.00190177)
(-0.180424 1.03054 0.00157559)
(-0.144269 0.987333 0.00125996)
(-0.109996 0.919418 0.000960748)
(-0.0784206 0.82487 0.000685063)
(-0.0504245 0.701444 0.000440611)
(-0.0271963 0.546588 0.000237753)
(-0.00982535 0.357381 8.60727e-05)
(-0.000396855 0.13071 5.00034e-06)
(-0.626943 -0.145852 0.00547308)
(-0.603714 0.0414131 0.00527038)
(-0.577923 0.213557 0.00504529)
(-0.549729 0.370486 0.00479921)
(-0.519303 0.512031 0.00453365)
(-0.486838 0.637918 0.00425029)
(-0.452537 0.747834 0.00395089)
(-0.416634 0.841348 0.00363751)
(-0.379396 0.917931 0.00331248)
(-0.341123 0.976956 0.0029784)
(-0.302161 1.01768 0.0026383)
(-0.262899 1.03923 0.00229557)
(-0.223788 1.04058 0.00195416)
(-0.185347 1.02052 0.00161859)
(-0.148177 0.977661 0.00129409)
(-0.11296 0.910345 0.000986633)
(-0.0805261 0.816668 0.000703457)
(-0.0517764 0.694414 0.000452424)
(-0.0279261 0.54106 0.000244132)
(-0.0100902 0.353728 8.83929e-05)
(-0.000408072 0.129353 5.13989e-06)
(-0.649355 -0.142665 0.00566875)
(-0.624467 0.042494 0.00545156)
(-0.597078 0.212706 0.00521252)
(-0.567346 0.367875 0.00495301)
(-0.535435 0.507832 0.00467449)
(-0.501536 0.632302 0.00437862)
(-0.46585 0.740974 0.00406713)
(-0.428608 0.83342 0.00374206)
(-0.390074 0.909116 0.00340572)
(-0.350548 0.96744 0.0030607)
(-0.310377 1.00765 0.00271004)
(-0.26995 1.0289 0.00235714)
(-0.229721 1.03015 0.00200597)
(-0.190215 1.01022 0.0016611)
(-0.15204 0.967722 0.00132783)
(-0.115889 0.901027 0.00101221)
(-0.0826068 0.808248 0.000721634)
(-0.0531125 0.687197 0.000464099)
(-0.0286473 0.535386 0.000250437)
(-0.010352 0.349979 9.06862e-05)
(-0.000419173 0.12796 5.27795e-06)
(-0.671623 -0.139832 0.00586316)
(-0.645067 0.0432234 0.00563141)
(-0.616078 0.211506 0.0053784)
(-0.584807 0.364919 0.00510546)
(-0.551414 0.50329 0.004814)
(-0.516088 0.626346 0.00450566)
(-0.479024 0.733778 0.00418215)
(-0.44045 0.825161 0.00384546)
(-0.400631 0.899974 0.00349789)
(-0.359864 0.957603 0.00314203)
(-0.318494 0.997315 0.00278092)
(-0.276914 1.01826 0.00241795)
(-0.235579 1.01943 0.00205712)
(-0.19502 0.999638 0.00170306)
(-0.155853 0.957522 0.00136113)
(-0.118779 0.891468 0.00103746)
(-0.0846604 0.799613 0.000739574)
(-0.054431 0.679798 0.00047562)
(-0.0293591 0.529569 0.00025666)
(-0.0106104 0.346135 9.295e-05)
(-0.000430142 0.126532 5.41433e-06)
(-0.693681 -0.137359 0.00605573)
(-0.665458 0.0435967 0.00580944)
(-0.634873 0.209955 0.00554249)
(-0.60207 0.361614 0.00525618)
(-0.567205 0.498404 0.00495187)
(-0.530462 0.620052 0.00463116)
(-0.492032 0.726248 0.00429572)
(-0.45214 0.816573 0.00394753)
(-0.411049 0.890509 0.00358885)
(-0.369053 0.947449 0.00322227)
(-0.3265 0.986667 0.00285082)
(-0.28378 1.00732 0.00247791)
(-0.241354 1.00841 0.00210755)
(-0.199757 0.98878 0.00174443)
(-0.159611 0.947062 0.00139395)
(-0.121628 0.88167 0.00106235)
(-0.0866844 0.790766 0.000757255)
(-0.0557307 0.672219 0.000486977)
(-0.0300608 0.523611 0.000262794)
(-0.0108652 0.342197 9.51818e-05)
(-0.000440963 0.125068 5.54885e-06)
(-0.71546 -0.13525 0.00624587)
(-0.685582 0.0436122 0.00598513)
(-0.653414 0.208051 0.00570436)
(-0.619094 0.357963 0.00540481)
(-0.582772 0.493177 0.00508778)
(-0.544628 0.613421 0.00475484)
(-0.504848 0.718387 0.00440762)
(-0.463655 0.807659 0.00404807)
(-0.421309 0.880724 0.00367843)
(-0.378102 0.936981 0.00330128)
(-0.334382 0.975714 0.00291964)
(-0.29054 0.996088 0.00253693)
(-0.247039 0.997116 0.0021572)
(-0.20442 0.97765 0.00178514)
(-0.16331 0.936347 0.00142625)
(-0.124433 0.871638 0.00108684)
(-0.0886765 0.78171 0.000774657)
(-0.0570099 0.664462 0.000498155)
(-0.0307514 0.517514 0.000268832)
(-0.011116 0.338167 9.73788e-05)
(-0.000451621 0.12357 5.68134e-06)
(-0.736891 -0.133505 0.00643297)
(-0.70538 0.0432717 0.00615797)
(-0.671651 0.205798 0.00586358)
(-0.635835 0.353969 0.00555097)
(-0.598079 0.487612 0.00522142)
(-0.558555 0.606457 0.00487644)
(-0.517448 0.710199 0.00451763)
(-0.474975 0.798423 0.0041469)
(-0.431393 0.870624 0.00376648)
(-0.386995 0.926205 0.00337893)
(-0.342128 0.964459 0.00298728)
(-0.297183 0.984562 0.00259494)
(-0.252626 0.985537 0.00220598)
(-0.209001 0.966252 0.00182515)
(-0.166944 0.925381 0.001458)
(-0.127188 0.861376 0.00111091)
(-0.0906342 0.772449 0.000791759)
(-0.0582671 0.656529 0.00050914)
(-0.0314303 0.511279 0.000274766)
(-0.0113625 0.334046 9.95385e-05)
(-0.000462101 0.122039 5.81159e-06)
(-0.757908 -0.132117 0.00661646)
(-0.724795 0.0425806 0.00632747)
(-0.689535 0.203201 0.00601972)
(-0.652253 0.349637 0.00569432)
(-0.613091 0.481716 0.00535248)
(-0.572214 0.599167 0.0049957)
(-0.529805 0.70169 0.00462552)
(-0.486076 0.788872 0.00424383)
(-0.441284 0.860214 0.00385284)
(-0.395719 0.915126 0.0034551)
(-0.349726 0.952909 0.00305362)