/*--------------------------------*- C++ -*----------------------------------*\
| =========                 |                                                 |
| \\      /  F ield         | OpenFOAM: The Open Source CFD Toolbox           |
|  \\    /   O peration     | Version:  v2012                                 |
|   \\  /    A nd           | Website:  www.openfoam.com                      |
|    \\/     M anipulation  |                                                 |
\*---------------------------------------------------------------------------*/
FoamFile
{
    version     2.0;
    format      ascii;
    class       surfaceScalarField;
    location    "0.35";
    object      alphaPhi0.water;
}
// * * * * * * * * * * * * * * * * * * * * * * * * * * * * * * * * * * * * * //

dimensions      [0 3 -1 0 0 0 0];
oriented        oriented;


internalField   nonuniform List<scalar> 
8048
(
-1.80389e-12
-7.53808e-09
-4.15553e-15
-1.39821e-10
-2.3284e-08
-1.27474e-15
4.20998e-10
-3.24779e-08
-2.30084e-15
3.54375e-09
-5.12688e-08
-6.23163e-15
5.70846e-09
-7.8465e-08
-1.98806e-14
6.76661e-09
-1.0412e-07
-4.28775e-15
6.89966e-09
-1.24684e-07
3.29847e-15
-1.31879e-07
-2.49298e-14
-2.10783e-12
-7.53597e-09
-2.74023e-15
-1.18474e-10
-2.31676e-08
-5.17681e-15
5.19367e-10
-3.31157e-08
-2.12666e-15
2.97595e-09
-5.37253e-08
-5.2064e-15
4.53149e-09
-8.00206e-08
-2.52207e-14
5.29542e-09
-1.04884e-07
-1.52994e-14
5.42752e-09
-1.24817e-07
-1.96671e-14
4.82218e-09
-1.31274e-07
-2.07434e-14
3.26517e-09
-1.15214e-07
-2.30614e-14
1.63712e-09
-7.93319e-08
1.24653e-14
1.35281e-09
-3.39132e-08
-6.91212e-14
3.52628e-09
2.21044e-09
-1.82105e-14
2.72366e-09
-1.49395e-08
-9.40783e-16
1.02792e-09
-1.95149e-08
-2.76251e-15
-8.30265e-09
-1.80445e-15
-2.26414e-12
-7.5337e-09
-3.70253e-15
-9.0431e-11
-2.30794e-08
-4.4617e-15
5.9954e-10
-3.38057e-08
6.51707e-16
2.49559e-09
-5.56214e-08
1.37867e-15
3.62261e-09
-8.11476e-08
-1.77513e-14
4.17932e-09
-1.05441e-07
-1.39535e-14
4.34286e-09
-1.2498e-07
-1.32324e-14
3.94707e-09
-1.30878e-07
-7.62135e-15
2.78207e-09
-1.14049e-07
-1.33234e-14
1.54488e-09
-7.80947e-08
-1.81553e-15
1.58586e-09
-3.39543e-08
-4.06962e-14
3.40299e-09
3.93324e-10
-4.33286e-15
2.52591e-09
-1.4117e-08
4.19759e-15
9.24723e-10
-1.85988e-08
-2.37322e-15
-8.32504e-09
-2.14777e-15
-2.09619e-12
-7.53161e-09
-2.34564e-15
-6.4278e-11
-2.30172e-08
-5.98314e-15
6.64399e-10
-3.45344e-08
-2.53971e-15
2.12605e-09
-5.7083e-08
7.28054e-16
2.94118e-09
-8.19628e-08
-3.37794e-15
3.3609e-09
-1.05861e-07
-6.85397e-15
3.56465e-09
-1.25184e-07
-8.86801e-16
3.33215e-09
-1.30646e-07
-4.66626e-15
2.45121e-09
-1.13168e-07
-8.46174e-15
1.41165e-09
-7.70552e-08
-1.67701e-14
1.53834e-09
-3.4081e-08
-4.59565e-14
3.10795e-09
-1.17623e-09
-1.21322e-14
2.29714e-09
-1.33494e-08
8.12204e-15
8.05499e-10
-1.76542e-08
-1.0179e-15
-8.21711e-09
-1.94177e-15
-1.69853e-12
-7.52991e-09
-4.42949e-15
-4.39273e-11
-2.2975e-08
-1.04566e-14
7.09595e-10
-3.52879e-08
-3.89965e-16
1.84654e-09
-5.82199e-08
5.80278e-16
2.43845e-09
-8.25547e-08
-1.61765e-14
2.77836e-09
-1.06201e-07
-1.344e-14
3.02319e-09
-1.25429e-07
-1.51071e-14
2.91702e-09
-1.30539e-07
-1.23316e-14
2.23805e-09
-1.12489e-07
-1.15386e-14
1.30831e-09
-7.61254e-08
-2.92376e-14
1.38005e-09
-3.41528e-08
-4.1061e-14
2.75502e-09
-2.55119e-09
-1.53386e-14
2.04467e-09
-1.2673e-08
5.35983e-15
6.67108e-10
-1.67051e-08
-7.68572e-16
-7.99749e-09
-1.81189e-15
-1.07278e-12
-7.52883e-09
-1.76021e-15
-2.88105e-11
-2.29473e-08
-6.68575e-15
7.32079e-10
-3.60488e-08
-4.52628e-15
1.62782e-09
-5.91157e-08
2.64419e-15
2.06931e-09
-8.29962e-08
-1.29588e-14
2.37061e-09
-1.06502e-07
-1.22395e-14
2.6544e-09
-1.25712e-07
-8.89273e-15
2.64516e-09
-1.3053e-07
-1.18423e-14
2.10576e-09
-1.1195e-07
-1.11456e-14
1.25467e-09
-7.52743e-08
-3.82322e-14
1.22539e-09
-3.41236e-08
-3.03478e-14
2.41294e-09
-3.73866e-09
3.82063e-17
1.77807e-09
-1.20649e-08
5.87601e-15
5.09214e-10
-1.57631e-08
-4.95212e-18
-7.68378e-09
-1.75986e-15
-3.62386e-13
-7.52846e-09
-3.29295e-15
-1.58476e-11
-2.29318e-08
-9.51092e-15
7.3489e-10
-3.67996e-08
-1.50516e-15
1.44969e-09
-5.98305e-08
2.20426e-15
1.79629e-09
-8.33428e-08
-1.84152e-14
2.08302e-09
-1.06789e-07
-1.54173e-14
2.39965e-09
-1.26029e-07
-7.65952e-15
2.46071e-09
-1.30591e-07
-1.22398e-14
2.01001e-09
-1.11499e-07
-1.72569e-14
1.21587e-09
-7.448e-08
-3.40782e-14
1.09106e-09
-3.39989e-08
-5.7148e-15
2.08992e-09
-4.73739e-09
9.28806e-15
1.49985e-09
-1.14951e-08
3.41924e-15
3.32543e-10
-1.48243e-08
5.86582e-17
-7.26206e-09
-1.69591e-15
4.16424e-13
-7.52888e-09
-2.04903e-15
-2.14864e-12
-2.29292e-08
-9.84382e-15
7.22209e-10
-3.75239e-08
-3.48629e-15
1.29846e-09
-6.04068e-08
3.28051e-15
1.58752e-09
-8.36319e-08
-1.32443e-14
1.87014e-09
-1.07071e-07
-1.1778e-14
2.21008e-09
-1.26369e-07
-1.07234e-14
2.31706e-09
-1.30698e-07
-1.00855e-14
1.91387e-09
-1.11096e-07
-2.41571e-14
1.14615e-09
-7.37123e-08
-3.62045e-14
9.42696e-10
-3.37955e-08
-4.15126e-15
1.76494e-09
-5.5595e-09
1.49888e-14
1.20777e-09
-1.09539e-08
5.02308e-16
1.38844e-10
-1.38958e-08
-6.96522e-18
-6.79072e-09
-1.66811e-15
1.20352e-12
-7.53008e-09
-3.36842e-15
1.34549e-11
-2.29415e-08
-8.25388e-15
6.97486e-10
-3.8208e-08
-7.80051e-15
1.16569e-09
-6.0875e-08
-1.34593e-15
1.41889e-09
-8.38851e-08
-1.69161e-14
1.69952e-09
-1.07352e-07
-1.60748e-14
2.05213e-09
-1.26721e-07
-7.38494e-15
2.18514e-09
-1.30831e-07
-1.18488e-14
1.80011e-09
-1.10711e-07
-1.92186e-14
1.02479e-09
-7.29368e-08
-3.25225e-14
7.51e-10
-3.35217e-08
-4.08295e-14
1.42244e-09
-6.23081e-09
6.67812e-15
9.01286e-10
-1.04441e-08
-3.23834e-15
-5.00971e-11
-1.29884e-08
-2.44668e-16
-6.29525e-09
-1.55999e-15
2.00041e-12
-7.53208e-09
-1.33541e-15
2.99281e-11
-2.29694e-08
-7.74473e-15
6.61179e-10
-3.88393e-08
-6.112e-15
1.04427e-09
-6.12581e-08
1.87905e-15
1.27261e-09
-8.41134e-08
-1.54342e-14
1.55066e-09
-1.0763e-07
-1.26677e-14
1.90733e-09
-1.27078e-07
-1.34946e-14
2.05395e-09
-1.30978e-07
-6.92221e-15
1.67124e-09
-1.10328e-07
-2.34806e-15
8.62277e-10
-7.21276e-08
2.67068e-16
5.15831e-10
-3.31752e-08
-2.11783e-14
1.06311e-09
-6.77807e-09
-1.06285e-14
5.83375e-10
-9.97106e-09
8.79612e-17
-2.06399e-10
-1.20858e-08
3.20492e-16
-5.76875e-09
-1.32901e-15
2.73476e-12
-7.53481e-09
-2.41241e-15
4.48333e-11
-2.30115e-08
-5.31915e-15
6.13782e-10
-3.94082e-08
-1.07158e-14
9.30469e-10
-6.15749e-08
-2.20265e-15
1.13929e-09
-8.43221e-08
-1.67123e-14
1.41446e-09
-1.07905e-07
-1.42718e-14
1.77053e-09
-1.27434e-07
-1.34429e-14
1.92586e-09
-1.31133e-07
-9.02955e-15
1.54118e-09
-1.09944e-07
-9.62247e-15
6.86017e-10
-7.12722e-08
4.17736e-15
2.61223e-10
-3.27504e-08
6.42071e-16
7.00647e-10
-7.21753e-09
-1.77333e-14
2.58558e-10
-9.5306e-09
-1.29212e-16
-3.61104e-10
-1.11912e-08
7.56966e-16
-5.22118e-09
-1.21078e-15
3.3853e-12
-7.53819e-09
-1.64455e-15
5.5296e-11
-2.30634e-08
-4.99356e-15
5.5631e-10
-3.99093e-08
-9.62557e-15
8.22259e-10
-6.18409e-08
-6.07306e-15
1.01498e-09
-8.45148e-08
-1.08274e-14
1.28852e-09
-1.08179e-07
-1.24641e-14
1.64331e-09
-1.27789e-07
-1.40266e-14
1.80804e-09
-1.31298e-07
-7.64606e-15
1.42422e-09
-1.0956e-07
-1.39501e-14
5.22636e-10
-7.03703e-08
-5.24479e-15
2.13044e-11
-3.2249e-08
4.20138e-14
3.51088e-10
-7.54738e-09
-2.33709e-15
-6.75851e-11
-9.10593e-09
2.81488e-15
-5.07083e-10
-1.03058e-08
1.46796e-15
-4.66082e-09
-1.02569e-15
3.99582e-12
-7.54218e-09
-1.99094e-15
5.99613e-11
-2.31193e-08
-4.35233e-15
4.92413e-10
-4.03417e-08
-1.20058e-14
7.20743e-10
-6.20693e-08
-4.85866e-15
9.0066e-10
-8.46946e-08
-9.88816e-15
1.17486e-09
-1.08453e-07
-1.57801e-14
1.53024e-09
-1.28144e-07
-1.95953e-14
1.70705e-09
-1.31475e-07
-7.73607e-15
1.32812e-09
-1.09181e-07
-9.13672e-15
3.82899e-10
-6.94248e-08
-1.16325e-14
-2.09999e-10
-3.1656e-08
5.15083e-14
1.86686e-11
-7.77599e-09
9.9662e-15
-3.85896e-10
-8.68167e-09
6.82463e-15
-6.37521e-10
-9.42686e-09
1.62539e-15
-4.09485e-09
-8.7931e-16
4.5978e-12
-7.54678e-09
-2.15862e-15
5.90592e-11
-2.31738e-08
-2.6145e-15
4.27486e-10
-4.07102e-08
-8.28638e-15
6.2834e-10
-6.22702e-08
-1.10251e-14
7.99139e-10
-8.48654e-08
-9.78934e-15
1.07656e-09
-1.08731e-07
-9.36808e-15
1.43551e-09
-1.28503e-07
-7.36419e-15
1.62693e-09
-1.31666e-07
-1.20506e-14
1.25675e-09
-1.08811e-07
-9.89094e-15
2.71847e-10
-6.84395e-08
-2.31859e-14
-4.14546e-10
-3.09695e-08
2.81531e-14
-2.91992e-10
-7.89854e-09
9.95247e-15
-6.97586e-10
-8.23727e-09
5.45756e-15
-7.46129e-10
-8.5523e-09
9.82269e-16
-3.53058e-09
-8.03113e-16
5.18157e-12
-7.55196e-09
-2.08308e-15
5.44309e-11
-2.3223e-08
-3.08781e-15
3.67556e-10
-4.10233e-08
-9.21207e-15
5.48292e-10
-6.24509e-08
-1.06276e-14
7.13745e-10
-8.50308e-08
-1.21344e-14
9.96178e-10
-1.09013e-07
-1.0696e-14
1.36083e-09
-1.28868e-07
-8.77936e-15
1.56741e-09
-1.31873e-07
-8.47827e-15
1.20621e-09
-1.08449e-07
-1.36832e-14
1.77799e-10
-6.74106e-08
-3.61804e-14
-6.03093e-10
-3.01885e-08
-9.19568e-15
-5.98255e-10
-7.90274e-09
1.16314e-14
-9.99529e-10
-7.76889e-09
3.50623e-15
-8.26676e-10
-7.68063e-09
1.40365e-16
-2.97621e-09
-7.31906e-16
5.77551e-12
-7.55773e-09
-1.91915e-15
4.87383e-11
-2.3266e-08
-2.33967e-15
3.17469e-10
-4.1292e-08
-9.00659e-15
4.83024e-10
-6.26165e-08
-8.22876e-15
6.46474e-10
-8.51942e-08
-2.99063e-15
9.34621e-10
-1.09301e-07
-1.20667e-14
1.30557e-09
-1.29239e-07
-1.30343e-14
1.52544e-09
-1.32093e-07
-1.18429e-14
1.16971e-09
-1.08094e-07
-1.01985e-14
8.93026e-11
-6.63297e-08
-4.96861e-14
-7.93708e-10
-2.93053e-08
-3.26389e-14
-9.15076e-10
-7.78066e-09
-2.16569e-14
-1.289e-09
-7.28355e-09
-3.96034e-15
-8.73595e-10
-6.81291e-09
-6.32138e-16
-2.44314e-09
-6.89614e-16
6.40388e-12
-7.56413e-09
-1.58112e-15
4.48458e-11
-2.33044e-08
-2.7999e-15
2.80208e-10
-4.15274e-08
-8.37126e-15
4.3385e-10
-6.27702e-08
-1.03724e-14
5.97525e-10
-8.53578e-08
-6.65211e-15
8.90952e-10
-1.09595e-07
-1.09182e-14
1.26724e-09
-1.29615e-07
-9.07014e-15
1.4966e-09
-1.32322e-07
-9.42605e-15
1.14023e-09
-1.07737e-07
-9.20396e-15
-7.10763e-12
-6.51816e-08
-5.89403e-14
-1.00619e-09
-2.83061e-08
-2.77997e-14
-1.24409e-09
-7.54083e-09
-9.57879e-14
-1.55945e-09
-6.78918e-09
-1.68845e-14
-8.83073e-10
-5.95365e-09
-9.7252e-16
-1.94599e-09
-5.93758e-16
7.04449e-12
-7.57117e-09
-1.01803e-15
4.4953e-11
-2.33424e-08
-4.27506e-15
2.56503e-10
-4.17389e-08
-7.48647e-15
4.00469e-10
-6.29142e-08
-8.46782e-15
5.6532e-10
-8.55226e-08
-8.34001e-15
8.62517e-10
-1.09892e-07
-1.14431e-14
1.24178e-09
-1.29994e-07
-9.22919e-15
1.4757e-09
-1.32556e-07
-9.76123e-15
1.11258e-09
-1.07374e-07
-8.90798e-15
-1.16511e-10
-6.39516e-08
-5.9768e-14
-1.2558e-09
-2.71665e-08
-4.50489e-14
-1.58284e-09
-7.20894e-09
-5.97535e-14
-1.79968e-09
-6.29104e-09
-7.06334e-15
-8.5458e-10
-5.11163e-09
-1.36576e-15
-1.50056e-09
-4.9828e-16
7.67796e-12
-7.57885e-09
-1.02383e-15
5.02445e-11
-2.33849e-08
-3.65156e-15
2.45312e-10
-4.1934e-08
-6.50878e-15
3.80963e-10
-6.30498e-08
-9.21424e-15
5.46456e-10
-8.56881e-08
-9.71822e-15
8.4483e-10
-1.1019e-07
-1.27321e-14
1.22306e-09
-1.30372e-07
-7.63129e-15
1.45537e-09
-1.32788e-07
-1.00859e-14
1.07808e-09
-1.06997e-07
-9.62171e-15
-2.60381e-10
-6.2612e-08
-5.71347e-14
-1.55748e-09
-2.58686e-08
-5.40966e-14
-1.92873e-09
-6.82676e-09
-1.35355e-14
-1.99537e-09
-5.793e-09
8.40862e-16
-7.92413e-10
-4.30096e-09
-1.23395e-15
-1.11997e-09
-3.91106e-16
8.2736e-12
-7.58712e-09
-1.01971e-15
6.04845e-11
-2.34371e-08
-3.09654e-15
2.44079e-10
-4.21176e-08
-7.94397e-15
3.71966e-10
-6.31777e-08
-7.92131e-15
5.36126e-10
-8.58523e-08
-8.67253e-15
8.31849e-10
-1.10486e-07
-1.29873e-14
1.20335e-09
-1.30744e-07
-8.21131e-15
1.42763e-09
-1.33013e-07
-7.46246e-15
1.02883e-09
-1.06598e-07
-1.26607e-14
-4.47758e-10
-6.11338e-08
-4.96022e-14
-1.91743e-09
-2.43976e-08
-5.77458e-14
-2.273e-09
-6.4473e-09
-2.75942e-14
-2.13005e-09
-5.29584e-09
-4.63825e-15
-7.05481e-10
-3.54009e-09
-1.50957e-15
-8.11109e-10
-3.32024e-16
8.83721e-12
-7.59595e-09
-1.15249e-15
7.4026e-11
-2.35023e-08
-1.75242e-15
2.49126e-10
-4.22927e-08
-7.25791e-15
3.68581e-10
-6.32972e-08
-9.31293e-15
5.27975e-10
-8.60117e-08
-1.22115e-14
8.15607e-10
-1.10774e-07
-1.57036e-14
1.17287e-09
-1.31101e-07
-8.55281e-15
1.38272e-09
-1.33222e-07
-5.68468e-15
9.55146e-10
-1.0617e-07
-7.50798e-15
-6.863e-10
-5.94905e-08
-3.38647e-14
-2.32652e-09
-2.27548e-08
-1.02645e-13
-2.60161e-09
-6.12163e-09
-2.49136e-14
-2.1896e-09
-4.7985e-09
-3.3443e-15
-6.05676e-10
-2.84919e-09
-1.19555e-15
-5.73313e-10
-2.18351e-16
9.34897e-12
-7.6053e-09
-1.00085e-15
8.84098e-11
-2.35814e-08
-3.04486e-15
2.56539e-10
-4.24608e-08
-7.4994e-15
3.65448e-10
-6.34061e-08
-5.59511e-15
5.15017e-10
-8.61613e-08
-1.19309e-14
7.87004e-10
-1.11046e-07
-1.195e-14
1.12073e-09
-1.31435e-07
-7.66891e-15
1.31003e-09
-1.33412e-07
-8.82792e-15
8.46874e-10
-1.05707e-07
-7.95999e-15
-9.79975e-10
-5.76612e-08
-2.06833e-14
-2.75439e-09
-2.09752e-08
-1.40401e-13
-2.89808e-09
-5.87606e-09
-2.6977e-14
-2.16886e-09
-4.30278e-09
-3.67168e-15
-5.05245e-10
-2.24632e-09
-1.14874e-15
-3.99101e-10
-1.78851e-16
9.74187e-12
-7.61504e-09
-1.18759e-15
1.00801e-10
-2.36725e-08
-2.46922e-15
2.61861e-10
-4.26219e-08
-8.21468e-15
3.56114e-10
-6.35003e-08
-7.01016e-15
4.89186e-10
-8.62943e-08
-9.47579e-15
7.36094e-10
-1.11293e-07
-1.15829e-14
1.03613e-09
-1.31735e-07
-8.84852e-15
1.19906e-09
-1.33575e-07
-9.55293e-15
6.94549e-10
-1.05203e-07
-1.86555e-15
-1.33018e-09
-5.56335e-08
-1.61285e-14
-3.15849e-09
-1.91362e-08
-1.47562e-13
-3.14122e-09
-5.70179e-09
-2.17104e-14
-2.07537e-09
-3.81508e-09
-2.54236e-15
-4.13905e-10
-1.74243e-09
-8.44105e-16
-2.76724e-10
-1.22528e-16
1.00194e-11
-7.62506e-09
-1.33002e-15
1.09095e-10
-2.37715e-08
-2.57499e-15
2.61805e-10
-4.27746e-08
-4.80966e-15
3.35643e-10
-6.35741e-08
-5.52311e-15
4.44238e-10
-8.6403e-08
-1.81253e-14
6.5548e-10
-1.11504e-07
-1.5713e-14
9.12177e-10
-1.31992e-07
-7.22394e-15
1.04286e-09
-1.33705e-07
-9.27978e-15
4.93801e-10
-1.04654e-07
1.68494e-15
-1.73188e-09
-5.34039e-08
-1.75381e-15
-3.49499e-09
-1.7352e-08
-1.21611e-13
-3.30782e-09
-5.55876e-09
-1.56389e-14
-1.92819e-09
-3.34509e-09
-1.39526e-15
-3.37176e-10
-1.33823e-09
-6.43841e-16
-1.93304e-10
-8.1807e-17
1.01796e-11
-7.63524e-09
-1.23064e-15
1.11835e-10
-2.38732e-08
-2.84357e-15
2.53159e-10
-4.29159e-08
-4.82646e-15
2.99707e-10
-6.36207e-08
-4.81742e-15
3.76149e-10
-8.64794e-08
-1.24991e-14
5.41955e-10
-1.1167e-07
-1.50943e-14
7.47932e-10
-1.32197e-07
-6.77005e-15
8.41405e-10
-1.33799e-07
-1.3084e-14
2.52582e-10
-1.04065e-07
7.51653e-15
-2.16282e-09
-5.09837e-08
1.12082e-14
-3.73515e-09
-1.5739e-08
-8.34788e-14
-3.38074e-09
-5.3972e-09
-1.48822e-14
-1.75159e-09
-2.90313e-09
-1.27849e-15
-2.76433e-10
-1.02474e-09
-4.29008e-16
-1.37306e-10
-6.54808e-17
1.02601e-11
-7.6455e-09
-1.20844e-15
1.08993e-10
-2.39719e-08
-4.06493e-15
2.34984e-10
-4.30419e-08
-3.57457e-15
2.4798e-10
-6.36336e-08
-6.82196e-15
2.8619e-10
-8.65176e-08
-1.55341e-14
3.98894e-10
-1.11782e-07
-1.31145e-14
5.49602e-10
-1.32348e-07
-1.19927e-14
6.01494e-10
-1.33851e-07
-9.95792e-15
-1.60791e-11
-1.03447e-07
4.07989e-15
-2.57674e-09
-4.84172e-08
2.12487e-14
-3.87259e-09
-1.43704e-08
-7.25577e-14
-3.35648e-09
-5.18365e-09
-1.65169e-14
-1.56765e-09
-2.49774e-09
-1.89441e-15
-2.30226e-10
-3.75623e-16
-5.0841e-17
1.02754e-11
-7.65577e-09
-1.34018e-15
1.01074e-10
-2.40627e-08
-3.73257e-15
2.06793e-10
-4.31476e-08
-5.59883e-15
1.8179e-10
-6.36086e-08
-6.4712e-15
1.7891e-10
-8.65148e-08
-9.24193e-15
2.34575e-10
-1.11838e-07
-1.15371e-14
3.30218e-10
-1.32444e-07
-1.03863e-14
3.40232e-10
-1.33861e-07
-8.5861e-15
-2.63996e-10
-1.02843e-07
5.49222e-15
-2.91147e-09
-4.57631e-08
2.82908e-14
-3.91212e-09
-1.32505e-08
-3.56903e-14
-3.24631e-09
-4.90967e-09
-1.14503e-14
-2.13362e-09
-2.11281e-15
1.03116e-11
-7.66608e-09
-1.3264e-15
8.96171e-11
-2.4142e-08
-4.82343e-15
1.70723e-10
-4.32287e-08
-2.5591e-15
1.0621e-10
-6.35441e-08
-5.48633e-15
6.20367e-11
-8.64706e-08
-1.52906e-14
5.98292e-11
-1.11836e-07
-1.09551e-14
1.04587e-10
-1.32489e-07
-1.2236e-14
7.58574e-11
-1.33832e-07
-9.39775e-15
-4.83299e-10
-1.02284e-07
5.05288e-15
-3.12269e-09
-4.31169e-08
2.72628e-14
-3.86322e-09
-1.23338e-08
7.89085e-15
-3.07221e-09
-4.58584e-09
-4.43329e-15
-1.8114e-09
-2.04014e-15
1.0352e-11
-7.67644e-09
-1.6412e-15
7.57647e-11
-2.42074e-08
-4.04764e-15
1.28562e-10
-4.32815e-08
-3.70984e-15
2.56267e-11
-6.34411e-08
-8.46772e-15
-5.79909e-11
-8.6387e-08
-5.63365e-15
-1.16708e-10
-1.11777e-07
-7.45949e-15
-1.15675e-10
-1.3249e-07
-9.80639e-15
-1.82883e-10
-1.33765e-07
-1.29442e-14
-6.76336e-10
-1.0179e-07
-3.29165e-15
-3.17285e-09
-4.06135e-08
2.40125e-14
-3.72706e-09
-1.15459e-08
3.35243e-14
-2.85687e-09
-4.22363e-09
2.74697e-15
-1.52649e-09
-7.73145e-16
1.04035e-11
-7.68684e-09
-1.09678e-15
6.11997e-11
-2.42582e-08
-4.52255e-15
8.4126e-11
-4.33044e-08
-4.56983e-15
-5.22304e-11
-6.33047e-08
-9.08169e-15
-1.70527e-10
-8.62687e-08
-1.26405e-14
-2.77484e-10
-1.1167e-07
-1.191e-14
-3.084e-10
-1.32459e-07
-1.00409e-14
-4.12801e-10
-1.3366e-07
-7.43897e-15
-8.36678e-10
-1.01366e-07
1.23953e-15
-3.04704e-09
-3.83969e-08
3.10144e-14
-3.50856e-09
-1.08088e-08
3.98037e-14
-2.62043e-09
-3.82949e-09
6.52895e-15
-1.27157e-09
2.18948e-16
1.03473e-11
-7.69719e-09
-1.38774e-15
4.68886e-11
-2.42948e-08
-3.70784e-15
4.05708e-11
-4.32981e-08
-4.09107e-15
-1.20251e-10
-6.31439e-08
-1.02218e-14
-2.62629e-10
-8.61264e-08
-6.02534e-15
-4.00607e-10
-1.11532e-07
-8.99373e-15
-4.48949e-10
-1.32411e-07
-1.06686e-14
-5.68425e-10
-1.33541e-07
-8.21474e-15
-9.30547e-10
-1.01004e-07
-9.39246e-15
-2.72161e-09
-3.66031e-08
2.92452e-14
-3.20876e-09
-1.00417e-08
3.74649e-14
-2.37717e-09
-3.39757e-09
7.86605e-15
-1.03719e-09
9.28987e-16
1.01618e-11
-7.70735e-09
-1.48559e-15
3.4318e-11
-2.4319e-08
-4.20406e-15
2.77126e-12
-4.32665e-08
-2.99034e-15
-1.70031e-10
-6.29711e-08
-9.73204e-15
-3.20107e-10
-8.59763e-08
-1.47234e-14
-4.65507e-10
-1.11387e-07
-1.32853e-14
-5.05867e-10
-1.3237e-07
-5.63072e-15
-6.13647e-10
-1.33433e-07
-8.76773e-15
-9.1859e-10
-1.00699e-07
-1.09132e-14
-2.21748e-09
-3.53036e-08
3.15392e-14
-2.84202e-09
-9.18489e-09
2.95851e-14
-2.13918e-09
-2.93527e-09
6.51783e-15
-8.25636e-10
1.15478e-15
9.70692e-12
-7.71705e-09
-1.32208e-15
2.4175e-11
-2.43334e-08
-3.64681e-15
-2.6311e-11
-4.3216e-08
-4.9297e-15
-1.96842e-10
-6.28005e-08
-8.12395e-15
-3.35612e-10
-8.58376e-08
-1.11848e-14
-4.60152e-10
-1.11262e-07
-1.23908e-14
-4.60931e-10
-1.3237e-07
-8.89088e-15
-5.18113e-10
-1.33376e-07
-9.80456e-15
-7.30147e-10
-1.00487e-07
-2.68702e-14
-1.47661e-09
-3.45571e-08
2.28289e-14
-2.38997e-09
-8.08616e-09
2.5892e-14
-1.90962e-09
-2.4152e-09
5.37169e-15
-6.21014e-10
1.211e-15
8.93098e-12
-7.72598e-09
-1.90769e-15
1.74239e-11
-2.43419e-08
-4.59811e-15
-4.44253e-11
-4.31542e-08
-3.928e-15
-1.99362e-10
-6.26456e-08
-7.07324e-15
-3.10242e-10
-8.57267e-08
-1.62353e-14
-3.87514e-10
-1.11185e-07
-1.26745e-14
-3.22165e-10
-1.32435e-07
-2.77517e-15
-2.90575e-10
-1.33407e-07
-9.53651e-15
-3.87631e-10
-1.0039e-07
-1.18486e-14
-5.73564e-10
-3.43713e-08
8.15412e-15
-1.86916e-09
-6.68972e-09
1.77677e-14
-1.67031e-09
-1.80309e-09
4.86406e-15
-4.12066e-10
1.10753e-15
7.8616e-12
-7.73385e-09
-1.45949e-15
1.40292e-11
-2.43481e-08
-4.27033e-15
-5.33259e-11
-4.30868e-08
-5.7038e-15
-1.83804e-10
-6.25151e-08
-7.32865e-15
-2.56383e-10
-8.56542e-08
-1.01105e-14
-2.6877e-10
-1.11172e-07
-1.20355e-14
-1.23298e-10
-1.3258e-07
-9.13132e-15
3.54018e-11
-1.33566e-07
-8.0433e-15
1.39752e-10
-1.00494e-07
-5.54461e-15
6.45608e-10
-3.48772e-08
-9.63883e-15
-1.22714e-09
-4.78867e-09
1.11919e-14
-1.39411e-09
-1.08322e-09
4.75201e-15
-2.21089e-10
1.14824e-15
6.4332e-12
-7.74028e-09
-1.87809e-15
1.25633e-11
-2.43542e-08
-4.16076e-15
-5.86744e-11
-4.30156e-08
-4.81816e-15
-1.64954e-10
-6.24088e-08
-7.90881e-15
-2.01916e-10
-8.56172e-08
-1.15158e-14
-1.54795e-10
-1.1122e-07
-1.1406e-14
5.45925e-11
-1.3279e-07
-8.91004e-15
3.36215e-10
-1.33848e-07
-9.5937e-15
4.64994e-10
-1.00623e-07
-8.43905e-15
1.58364e-09
-3.59958e-08
-2.50579e-15
-5.35465e-10
-2.67875e-09
6.22485e-15
-9.57686e-10
-3.22043e-10
2.69086e-15
-2.46505e-11
9.573e-16
4.45198e-12
-7.74473e-09
-1.32435e-15
1.05851e-11
-2.43604e-08
-4.37701e-15
-6.77869e-11
-4.29373e-08
-5.9467e-15
-1.59423e-10
-6.23171e-08
-9.30072e-15
-1.78484e-10
-8.55982e-08
-7.73648e-15
-1.09623e-10
-1.11288e-07
-1.11682e-14
1.19219e-10
-1.33019e-07
-1.12204e-14
5.12178e-10
-1.34241e-07
-9.05407e-15
6.8749e-10
-1.00798e-07
-1.58839e-15
2.50904e-09
-3.78173e-08
9.25286e-15
-2.08366e-10
-2.54059e-15
-4.07317e-10
1.66821e-16
4.85477e-16
2.39996e-12
-7.74713e-09
-1.69036e-15
9.03804e-12
-2.4367e-08
-4.48235e-15
-7.77794e-11
-4.28505e-08
-5.29819e-15
-1.60411e-10
-6.22345e-08
-1.01533e-14
-1.75846e-10
-8.55827e-08
-8.33038e-15
-1.26779e-10
-1.11337e-07
-1.35449e-14
4.59128e-11
-1.33191e-07
-1.39215e-14
2.64917e-10
-1.3446e-07
-6.42118e-15
-3.26245e-10
-1.00207e-07
-5.74388e-15
-3.81435e-08
5.50305e-15
9.72971e-13
-7.7481e-09
-1.54739e-15
9.29887e-12
-2.43754e-08
-4.70212e-15
-8.24708e-11
-4.27587e-08
-6.89839e-15
-1.48787e-10
-6.21682e-08
-1.04715e-14
-1.46139e-10
-8.55854e-08
-8.38369e-15
-7.82267e-11
-1.11405e-07
-1.05087e-14
1.43135e-10
-1.33413e-07
-1.59348e-14
4.13086e-10
-1.3473e-07
-6.92097e-15
2.21538e-10
-1.00016e-07
-4.66423e-15
-3.7922e-08
-2.76063e-15
8.41242e-14
-7.74818e-09
-1.88863e-15
9.0205e-12
-2.43843e-08
-4.85974e-15
-8.67748e-11
-4.26629e-08
-6.99057e-15
-1.37142e-10
-6.21178e-08
-9.02389e-15
-1.2079e-10
-8.56017e-08
-9.20035e-15
-3.96722e-11
-1.11486e-07
-1.23995e-14
1.99331e-10
-1.33652e-07
-1.35102e-14
4.82283e-10
-1.35013e-07
-9.55372e-15
3.22695e-10
-9.98561e-08
-3.82726e-15
-3.75993e-08
-4.99144e-15
-3.55655e-13
-7.74783e-09
-1.79851e-15
7.28225e-12
-2.4392e-08
-5.03853e-15
-9.05379e-11
-4.25651e-08
-6.82939e-15
-1.23988e-10
-6.20844e-08
-1.03515e-14
-9.38358e-11
-8.56319e-08
-8.28715e-15
7.94812e-13
-1.11581e-07
-1.06482e-14
2.56804e-10
-1.33908e-07
-1.32531e-14
5.57822e-10
-1.35314e-07
-1.13073e-14
3.97747e-10
-9.9696e-08
-6.17363e-15
-3.72017e-08
-1.85078e-14
-4.38504e-13
-7.74739e-09
-1.88296e-15
3.5795e-12
-2.4396e-08
-5.02579e-15
-9.42355e-11
-4.24673e-08
-8.20011e-15
-1.11046e-10
-6.20676e-08
-1.08399e-14
-6.8954e-11
-8.56739e-08
-5.99913e-15
3.61891e-11
-1.11686e-07
-1.23343e-14
3.03854e-10
-1.34175e-07
-5.72057e-15
6.13546e-10
-1.35623e-07
-1.15001e-14
4.36068e-10
-9.95185e-08
-5.99914e-15
-3.67656e-08
5.83611e-15
-3.21541e-13
-7.74707e-09
-1.82308e-15
-2.14021e-12
-2.43942e-08
-4.97766e-15
-9.76798e-11
-4.23717e-08
-7.59929e-15
-9.79181e-11
-6.20673e-08
-9.63594e-15
-4.45985e-11
-8.57272e-08
-8.26264e-15
6.96424e-11
-1.11801e-07
-1.45954e-14
3.48402e-10
-1.34454e-07
-7.89652e-15
6.67169e-10
-1.35942e-07
-5.21545e-15
4.74185e-10
-9.93255e-08
-2.6293e-15
-3.62914e-08
-6.5056e-15
-5.09973e-14
-7.74702e-09
-2.30351e-15
-8.85573e-12
-2.43854e-08
-6.37402e-15
-9.95918e-11
-4.2281e-08
-8.06099e-15
-8.33412e-11
-6.20836e-08
-9.71851e-15
-1.93215e-11
-8.57912e-08
-6.86657e-15
1.03485e-10
-1.11923e-07
-8.91655e-15
3.92847e-10
-1.34743e-07
-6.073e-15
7.19895e-10
-1.36269e-07
-1.28868e-14
5.10242e-10
-9.91158e-08
-7.48134e-15
-3.57812e-08
-3.65188e-15
3.20743e-13
-7.74734e-09
-2.38437e-15
-1.54296e-11
-2.43696e-08
-5.66345e-15
-9.89435e-11
-4.21975e-08
-6.38184e-15
-6.62338e-11
-6.21163e-08
-1.37376e-14
8.15448e-12
-8.58656e-08
-8.82529e-15
1.39647e-10
-1.12055e-07
-9.56614e-15
4.3971e-10
-1.35043e-07
-4.57256e-15
7.75508e-10
-1.36605e-07
-7.87284e-15
5.49084e-10
-9.88894e-08
-3.88683e-15
-3.52321e-08
-7.48003e-15
7.90954e-13
-7.74813e-09
-2.38628e-15
-2.029e-11
-2.43485e-08
-6.77005e-15
-9.42261e-11
-4.21236e-08
-8.35564e-15
-4.49916e-11
-6.21655e-08
-3.49093e-15
3.93333e-11
-8.595e-08
-8.89793e-15
1.80079e-10
-1.12196e-07
-1.07021e-14
4.90967e-10
-1.35354e-07
-1.09524e-14
8.35381e-10
-1.36949e-07
-7.67584e-15
5.90666e-10
-9.86446e-08
-6.87382e-15
-3.46414e-08
-4.35385e-15
1.34833e-12
-7.74948e-09
-2.34606e-15
-2.21034e-11
-2.43251e-08
-6.45415e-15
-8.43712e-11
-4.20613e-08
-7.04667e-15
-1.87083e-11
-6.22312e-08
-7.49403e-15
7.54566e-11
-8.60441e-08
-7.45371e-15
2.26027e-10
-1.12346e-07
-1.35207e-14
5.48129e-10
-1.35676e-07
-8.3235e-15
9.00984e-10
-1.37302e-07
-7.17968e-15
6.36177e-10
-9.83798e-08
-5.54412e-15
-3.40052e-08
-9.24604e-17
2.01213e-12
-7.75149e-09
-2.51877e-15
-1.97297e-11
-2.43034e-08
-6.8762e-15
-6.84222e-11
-4.20126e-08
-7.00121e-15
1.35211e-11
-6.23131e-08
-7.16148e-15
1.17308e-10
-8.61479e-08
-7.95161e-15
2.78263e-10
-1.12507e-07
-1.22271e-14
6.1191e-10
-1.3601e-07
-1.2418e-14
9.72921e-10
-1.37663e-07
-5.6573e-15
6.8578e-10
-9.80927e-08
-4.36678e-15
-3.33194e-08
-7.07834e-16
2.79334e-12
-7.75428e-09
-2.43909e-15
-1.27012e-11
-2.42879e-08
-6.61696e-15
-4.61539e-11
-4.19791e-08
-7.15514e-15
5.17872e-11
-6.2411e-08
-6.40985e-15
1.65062e-10
-8.62612e-08
-9.14136e-15
3.37074e-10
-1.12679e-07
-1.29601e-14
6.82835e-10
-1.36356e-07
-1.23952e-14
1.05168e-09
-1.38032e-07
-5.40357e-15
7.39803e-10
-9.77808e-08
-3.47378e-15
-3.25796e-08
-2.94211e-15
3.71391e-12
-7.75799e-09
-2.52882e-15
-1.17566e-12
-2.4283e-08
-6.69325e-15
-1.78682e-11
-4.19624e-08
-6.35045e-15
9.5732e-11
-6.25247e-08
-6.52907e-15
2.18432e-10
-8.63839e-08
-7.83741e-15
4.02173e-10
-1.12863e-07
-1.04142e-14
7.60747e-10
-1.36715e-07
-1.30956e-14
1.13727e-09
-1.38409e-07
-6.88133e-15
7.98303e-10
-9.74418e-08
-5.64354e-15
-3.17812e-08
1.07332e-15
4.78792e-12
-7.76278e-09
-2.4304e-15
1.38447e-11
-2.4292e-08
-6.87632e-15
1.51366e-11
-4.19637e-08
-6.09494e-15
1.4416e-10
-6.26537e-08
-6.24944e-15
2.76327e-10
-8.65161e-08
-1.01752e-14
4.72554e-10
-1.13059e-07
-1.16044e-14
8.45003e-10
-1.37087e-07
-6.07762e-15
1.22937e-09
-1.38793e-07
1.22355e-15
8.61239e-10
-9.70737e-08
6.8275e-15
-3.092e-08
1.89587e-14
6.01818e-12
-7.7688e-09
-2.84099e-15
3.07145e-11
-2.43167e-08
-6.21721e-15
5.11227e-11
-4.19841e-08
-5.67232e-15
1.95439e-10
-6.2798e-08
-6.83945e-15
3.37449e-10
-8.66581e-08
-8.26287e-15
5.47274e-10
-1.13269e-07
1.25379e-15
9.34913e-10
-1.37475e-07
-2.49973e-14
1.32757e-09
-1.39186e-07
-1.60545e-14
9.28666e-10
-9.66749e-08
-2.00791e-14
-2.99914e-08
-2.24227e-14
7.40476e-12
-7.77621e-09
-2.73822e-15
4.71499e-11
-2.43565e-08
-6.74167e-15
8.78903e-11
-4.20248e-08
-5.13614e-15
2.47412e-10
-6.29575e-08
-5.8961e-15
3.99874e-10
-8.68106e-08
-8.97628e-15
6.24386e-10
-1.13493e-07
-4.03962e-16
1.02916e-09
-1.3788e-07
-1.9023e-14
1.43123e-09
-1.39588e-07
-8.08201e-15
1.00071e-09
-9.62444e-08
-6.40714e-15
-2.89907e-08
-4.01891e-15
8.92727e-12
-7.78513e-09
-2.91299e-15
6.08513e-11
-2.44084e-08
-6.12864e-15
1.23455e-10
-4.20874e-08
-6.50691e-15
2.9808e-10
-6.31321e-08
-4.6386e-15
4.62127e-10
-8.69747e-08
-8.90465e-15
7.02808e-10
-1.13734e-07
5.09663e-16
1.12683e-09
-1.38304e-07
-2.15216e-14
1.53964e-09
-1.40001e-07
-7.99906e-15
1.07682e-09
-9.57815e-08
-8.05964e-15
-2.79139e-08
-8.71508e-16
1.05656e-11
-7.7957e-09
-2.84148e-15
6.98587e-11
-2.44677e-08
-7.08858e-15
1.56079e-10
-4.21737e-08
-5.85076e-15
3.45579e-10
-6.33215e-08
-3.99498e-15
5.2271e-10
-8.71518e-08
-7.20962e-15
7.81208e-10
-1.13992e-07
2.80603e-15
1.22695e-09
-1.38749e-07
-2.07821e-14
1.6524e-09
-1.40426e-07
-7.3195e-15
1.15721e-09
-9.52864e-08
-5.78974e-15
-2.67566e-08
1.88275e-15
1.22893e-11
-7.80799e-09
-3.21898e-15
7.31347e-11
-2.45285e-08
-7.02999e-15
1.84836e-10
-4.22854e-08
-6.65776e-15
3.88941e-10
-6.35256e-08
1.05902e-15
5.80845e-10
-8.73438e-08
-1.28726e-14
8.5886e-10
-1.1427e-07
-1.60919e-14
1.3291e-09
-1.3922e-07
-1.00964e-14
1.76954e-09
-1.40866e-07
-7.71628e-15
1.24225e-09
-9.47591e-08
-3.86821e-15
-2.55144e-08
-4.59008e-15
1.40826e-11
-7.82207e-09
-3.15526e-15
7.07054e-11
-2.45852e-08
-8.10101e-15
2.09532e-10
-4.24242e-08
-6.18074e-15
4.27843e-10
-6.37439e-08
1.33255e-15
6.36539e-10
-8.75525e-08
-1.23332e-14
9.36334e-10
-1.1457e-07
-1.2616e-14
1.43377e-09
-1.39717e-07
-1.00697e-14
1.89164e-09
-1.41324e-07
-7.84401e-15
1.33234e-09
-9.41997e-08
-3.102e-15
-2.4182e-08
2.04741e-19
1.59416e-11
-7.83801e-09
-3.34466e-15
6.39469e-11
-2.46332e-08
-8.89821e-15
2.31e-10
-4.25912e-08
-5.3576e-15
4.63068e-10
-6.39759e-08
1.11337e-15
6.90354e-10
-8.77798e-08
-1.24656e-14
1.01409e-09
-1.14894e-07
-1.21807e-14
1.54149e-09
-1.40244e-07
-9.04857e-15
2.01949e-09
-1.41802e-07
-7.64489e-15
1.42829e-09
-9.36085e-08
-3.25507e-15
-2.27537e-08
4.20201e-16
1.78621e-11
-7.85588e-09
-3.37851e-15
5.5188e-11
-2.46705e-08
-9.56432e-15
2.50557e-10
-4.27866e-08
-5.1931e-15
4.95791e-10
-6.42212e-08
1.3196e-15
7.43185e-10
-8.80272e-08
-1.31316e-14
1.09319e-09
-1.15244e-07
-1.21558e-14
1.65319e-09
-1.40804e-07
-9.11537e-15
2.15409e-09
-1.42303e-07
-9.50923e-15
1.53098e-09
-9.29854e-08
-4.52286e-15
-2.12227e-08
-1.8204e-15
1.98276e-11
-7.8757e-09
-4.07197e-15
4.73743e-11
-2.46981e-08
-1.05768e-14
2.69983e-10
-4.30092e-08
-2.38998e-15
5.27679e-10
-6.44789e-08
-3.11217e-16
7.96247e-10
-8.82957e-08
-1.42745e-14
1.17476e-09
-1.15623e-07
-1.11401e-14
1.76984e-09
-1.41399e-07
-9.08964e-15
2.29657e-09
-1.4283e-07
-9.23001e-15
1.64148e-09
-9.23303e-08
-4.11677e-15
-1.95813e-08
4.92818e-16
2.1836e-11
-7.89754e-09
-4.29739e-15
4.35585e-11
-2.47198e-08
-1.11104e-14
2.90899e-10
-4.32565e-08
-1.42738e-15
5.60111e-10
-6.47481e-08
-4.38821e-16
8.50205e-10
-8.85858e-08
-1.35548e-14
1.2592e-09
-1.16032e-07
-1.2652e-14
1.89167e-09
-1.42032e-07
-8.98126e-15
2.44749e-09
-1.43386e-07
-9.21534e-15
1.7608e-09
-9.16436e-08
-3.95654e-15
-1.78205e-08
-9.83188e-16
2.38289e-11
-7.92137e-09
-4.69139e-15
4.62346e-11
-2.47422e-08
-1.06956e-14
3.14294e-10
-4.35246e-08
-1.27789e-15
5.93525e-10
-6.50273e-08
-4.53328e-15
9.04519e-10
-8.88968e-08
-9.96091e-15
1.34553e-09
-1.16473e-07
-1.24354e-14
2.01741e-09
-1.42704e-07
-1.01319e-14
2.60646e-09
-1.43975e-07
-1.03951e-14
1.8899e-09
-9.0927e-08
-5.65903e-15
-1.59306e-08
6.03472e-16
2.56835e-11
-7.94705e-09
-5.11143e-15
5.67391e-11
-2.47732e-08
-1.08685e-14
3.39936e-10
-4.38077e-08
-1.72621e-16
6.26797e-10
-6.53142e-08
-4.9507e-15
9.56591e-10
-8.92267e-08
-9.70837e-15
1.43009e-09
-1.16946e-07
-1.39196e-14
2.14297e-09
-1.43417e-07
-9.78008e-15
2.77102e-09
-1.44603e-07
-9.53365e-15
2.02949e-09
-9.01855e-08
-4.15411e-15
-1.39011e-08
-1.05841e-15
2.71641e-11
-7.97421e-09
-5.76536e-15
7.47505e-11
-2.48208e-08
-1.0786e-14
3.65597e-10
-4.40986e-08
9.15861e-17
6.55945e-10
-6.56045e-08
-3.62685e-15
1.00029e-09