/*--------------------------------*- C++ -*----------------------------------*\
| =========                 |                                                 |
| \\      /  F ield         | OpenFOAM: The Open Source CFD Toolbox           |
|  \\    /   O peration     | Version:  v2012                                 |
|   \\  /    A nd           | Website:  www.openfoam.com                      |
|    \\/     M anipulation  |                                                 |
\*---------------------------------------------------------------------------*/
FoamFile
{
    version     2.0;
    format      ascii;
    class       volScalarField;
    location    "0.35";
    object      p;
}
// * * * * * * * * * * * * * * * * * * * * * * * * * * * * * * * * * * * * * //

dimensions      [1 -1 -2 0 0 0 0];


internalField   nonuniform List<scalar> 
3332
(
3.48188e+06
3.47758e+06
3.4798e+06
3.47932e+06
3.47642e+06
3.4686e+06
3.46271e+06
3.45631e+06
3.47805e+06
3.46613e+06
3.4751e+06
3.46911e+06
3.4704e+06
3.4623e+06
3.45896e+06
3.45368e+06
3.4519e+06
3.45197e+06
3.45169e+06
3.45278e+06
3.45126e+06
3.44985e+06
3.44071e+06
3.4733e+06
3.45745e+06
3.47016e+06
3.46112e+06
3.46487e+06
3.45732e+06
3.4557e+06
3.45144e+06
3.45034e+06
3.45029e+06
3.45006e+06
3.45095e+06
3.44995e+06
3.44844e+06
3.43979e+06
3.46832e+06
3.45159e+06
3.46536e+06
3.45534e+06
3.46008e+06
3.45346e+06
3.45289e+06
3.44955e+06
3.44885e+06
3.44875e+06
3.4485e+06
3.44925e+06
3.44859e+06
3.44707e+06
3.43904e+06
3.46338e+06
3.44773e+06
3.46095e+06
3.45127e+06
3.45607e+06
3.45048e+06
3.45047e+06
3.4479e+06
3.44741e+06
3.44735e+06
3.44706e+06
3.4477e+06
3.44721e+06
3.44576e+06
3.43834e+06
3.45894e+06
3.44546e+06
3.45712e+06
3.44837e+06
3.45273e+06
3.4481e+06
3.4483e+06
3.44636e+06
3.44596e+06
3.44598e+06
3.44566e+06
3.44624e+06
3.44583e+06
3.44449e+06
3.43763e+06
3.45475e+06
3.44375e+06
3.45364e+06
3.44619e+06
3.44987e+06
3.44612e+06
3.44632e+06
3.44485e+06
3.44446e+06
3.44454e+06
3.44422e+06
3.4448e+06
3.44447e+06
3.44322e+06
3.43691e+06
3.45096e+06
3.44259e+06
3.45052e+06
3.44451e+06
3.44738e+06
3.44442e+06
3.44448e+06
3.44336e+06
3.44294e+06
3.44305e+06
3.44278e+06
3.44336e+06
3.44311e+06
3.44194e+06
3.43617e+06
3.44754e+06
3.44178e+06
3.44768e+06
3.44318e+06
3.44518e+06
3.44295e+06
3.44278e+06
3.44194e+06
3.44147e+06
3.44159e+06
3.44138e+06
3.44197e+06
3.4418e+06
3.44069e+06
3.43547e+06
3.44473e+06
3.44136e+06
3.44518e+06
3.44214e+06
3.44323e+06
3.44167e+06
3.44125e+06
3.44062e+06
3.44013e+06
3.44026e+06
3.44009e+06
3.44068e+06
3.44057e+06
3.4395e+06
3.43483e+06
3.44209e+06
3.44102e+06
3.44291e+06
3.44126e+06
3.44152e+06
3.44054e+06
3.43991e+06
3.43945e+06
3.43895e+06
3.4391e+06
3.43896e+06
3.43952e+06
3.43944e+06
3.4384e+06
3.4343e+06
3.43986e+06
3.44071e+06
3.44094e+06
3.44045e+06
3.44003e+06
3.4395e+06
3.43873e+06
3.43842e+06
3.43794e+06
3.43809e+06
3.43795e+06
3.43849e+06
3.43841e+06
3.4374e+06
3.4339e+06
3.43802e+06
3.44023e+06
3.43925e+06
3.43961e+06
3.4387e+06
3.43852e+06
3.43769e+06
3.43749e+06
3.43706e+06
3.4372e+06
3.43708e+06
3.43754e+06
3.43746e+06
3.43646e+06
3.43361e+06
3.43667e+06
3.43958e+06
3.43779e+06
3.43866e+06
3.43751e+06
3.43754e+06
3.43674e+06
3.43661e+06
3.43624e+06
3.43637e+06
3.43626e+06
3.43667e+06
3.43659e+06
3.4356e+06
3.43347e+06
3.43538e+06
3.43855e+06
3.4365e+06
3.43761e+06
3.43641e+06
3.43656e+06
3.43584e+06
3.43577e+06
3.43545e+06
3.43556e+06
3.43546e+06
3.43582e+06
3.43577e+06
3.43478e+06
3.43348e+06
3.43422e+06
3.43732e+06
3.43532e+06
3.43647e+06
3.43537e+06
3.43558e+06
3.43497e+06
3.43493e+06
3.43465e+06
3.43473e+06
3.43465e+06
3.43497e+06
3.43496e+06
3.434e+06
3.43366e+06
3.43313e+06
3.43599e+06
3.43423e+06
3.43531e+06
3.43439e+06
3.4346e+06
3.43411e+06
3.43408e+06
3.43384e+06
3.43389e+06
3.43382e+06
3.43412e+06
3.43417e+06
3.4333e+06
3.43406e+06
3.43235e+06
3.43473e+06
3.43323e+06
3.43421e+06
3.43348e+06
3.43367e+06
3.43329e+06
3.43324e+06
3.43301e+06
3.43303e+06
3.43298e+06
3.4333e+06
3.43341e+06
3.43274e+06
3.4347e+06
3.43147e+06
3.43361e+06
3.43238e+06
3.43322e+06
3.43269e+06
3.43281e+06
3.43252e+06
3.43243e+06
3.43218e+06
3.43219e+06
3.43214e+06
3.43252e+06
3.43268e+06
3.43241e+06
3.43561e+06
3.43088e+06
3.43274e+06
3.43175e+06
3.43243e+06
3.43208e+06
3.4321e+06
3.43187e+06
3.4317e+06
3.4314e+06
3.43141e+06
3.43135e+06
3.43185e+06
3.43208e+06
3.43244e+06
3.43679e+06
3.43067e+06
3.43218e+06
3.43145e+06
3.43192e+06
3.43174e+06
3.4316e+06
3.4314e+06
3.43111e+06
3.43073e+06
3.43076e+06
3.43064e+06
3.43135e+06
3.43171e+06
3.43297e+06
3.43825e+06
3.43077e+06
3.43186e+06
3.43153e+06
3.4318e+06
3.43177e+06
3.43142e+06
3.43122e+06
3.43073e+06
3.43027e+06
3.43031e+06
3.43012e+06
3.43111e+06
3.43173e+06
3.4341e+06
3.43997e+06
3.43175e+06
3.43231e+06
3.43224e+06
3.4322e+06
3.43227e+06
3.43166e+06
3.43145e+06
3.43067e+06
3.4302e+06
3.43016e+06
3.42997e+06
3.43123e+06
3.43234e+06
3.43585e+06
3.44193e+06
3.43343e+06
3.43341e+06
3.43357e+06
3.43321e+06
3.43333e+06
3.43245e+06
3.43223e+06
3.4311e+06
3.43068e+06
3.43043e+06
3.4304e+06
3.43187e+06
3.43371e+06
3.43817e+06
3.44411e+06
3.43576e+06
3.43529e+06
3.43558e+06
3.43494e+06
3.43505e+06
3.43392e+06
3.43369e+06
3.43217e+06
3.43194e+06
3.43133e+06
3.43167e+06
3.43328e+06
3.43597e+06
3.44096e+06
3.44647e+06
3.43802e+06
3.43774e+06
3.4382e+06
3.43743e+06
3.43749e+06
3.43619e+06
3.43595e+06
3.43409e+06
3.4342e+06
3.43301e+06
3.43397e+06
3.43564e+06
3.4391e+06
3.44409e+06
3.44897e+06
3.44163e+06
3.44121e+06
3.44155e+06
3.4407e+06
3.44063e+06
3.43928e+06
3.43904e+06
3.43695e+06
3.43744e+06
3.43564e+06
3.43731e+06
3.43899e+06
3.44294e+06
3.4458e+06
3.44529e+06
3.44542e+06
3.44466e+06
3.44445e+06
3.44317e+06
3.44294e+06
3.44069e+06
3.4417e+06
3.43926e+06
3.44161e+06
3.44321e+06
3.44723e+06
3.45041e+06
3.44999e+06
3.4498e+06
3.44925e+06
3.44889e+06
3.44786e+06
3.44757e+06
3.44548e+06
3.44679e+06
3.44398e+06
3.4467e+06
3.44806e+06
3.45166e+06
3.454e+06
3.45465e+06
3.45445e+06
3.45425e+06
3.45377e+06
3.45316e+06
3.45282e+06
3.45126e+06
3.45269e+06
3.4499e+06
3.45251e+06
3.45334e+06
3.45603e+06
3.4591e+06
3.4598e+06
3.45931e+06
3.45945e+06
3.45889e+06
3.45882e+06
3.45849e+06
3.45775e+06
3.45918e+06
3.45684e+06
3.45877e+06
3.45861e+06
3.45993e+06
3.46392e+06
3.46467e+06
3.46396e+06
3.46448e+06
3.4639e+06
3.46442e+06
3.46416e+06
3.46446e+06
3.46579e+06
3.46432e+06
3.46539e+06
3.46385e+06
3.46341e+06
3.46826e+06
3.46905e+06
3.46815e+06
3.46895e+06
3.46837e+06
3.46948e+06
3.46928e+06
3.47069e+06
3.47176e+06
3.47135e+06
3.4713e+06
3.46833e+06
3.4657e+06
3.47137e+06
3.47245e+06
3.47151e+06
3.47253e+06
3.472e+06
3.47356e+06
3.47333e+06
3.47583e+06
3.47644e+06
3.47731e+06
3.47631e+06
3.47236e+06
3.46773e+06
3.47381e+06
3.47498e+06
3.47392e+06
3.475e+06
3.47448e+06
3.47611e+06
3.47573e+06
3.47901e+06
3.47814e+06
3.4805e+06
3.47741e+06
3.47422e+06
3.46758e+06
3.47526e+06
3.4765e+06
3.47533e+06
3.4763e+06
3.47572e+06
3.47688e+06
3.47627e+06
3.47924e+06
3.47669e+06
3.4813e+06
3.47749e+06
3.47653e+06
3.46948e+06
3.47615e+06
3.47749e+06
3.47621e+06
3.47707e+06
3.47643e+06
3.47699e+06
3.47626e+06
3.47716e+06
3.47299e+06
3.47854e+06
3.46655e+06
3.47362e+06
3.46891e+06
3.47694e+06
3.47838e+06
3.4771e+06
3.47797e+06
3.47745e+06
3.47802e+06
3.47797e+06
3.47857e+06
3.47827e+06
3.47987e+06
3.47741e+06
3.47879e+06
3.47754e+06
3.47837e+06
3.4779e+06
3.47844e+06
3.47848e+06
3.479e+06
3.47916e+06
3.4796e+06
3.47771e+06
3.47897e+06
3.47786e+06
3.47863e+06
3.47821e+06
3.47872e+06
3.47881e+06
3.47927e+06
3.47945e+06
3.47963e+06
3.47785e+06
3.47884e+06
3.47788e+06
3.47853e+06
3.47817e+06
3.47863e+06
3.47869e+06
3.47909e+06
3.47922e+06
3.4793e+06
3.47778e+06
3.47847e+06
3.47769e+06
3.47822e+06
3.47793e+06
3.47832e+06
3.47838e+06
3.47873e+06
3.47884e+06
3.4789e+06
3.47746e+06
3.47783e+06
3.47723e+06
3.47763e+06
3.47741e+06
3.47777e+06
3.47784e+06
3.47818e+06
3.47828e+06
3.47834e+06
3.47663e+06
3.47688e+06
3.47649e+06
3.47682e+06
3.47667e+06
3.47702e+06
3.47713e+06
3.47748e+06
3.47758e+06
3.47764e+06
3.47571e+06
3.47578e+06
3.4755e+06
3.47579e+06
3.4757e+06
3.47607e+06
3.47622e+06
3.47659e+06
3.47671e+06
3.47677e+06
3.47438e+06
3.47439e+06
3.47425e+06
3.47456e+06
3.47453e+06
3.47492e+06
3.47512e+06
3.47551e+06
3.47566e+06
3.47572e+06
3.47285e+06
3.47288e+06
3.47275e+06
3.4731e+06
3.47313e+06
3.47356e+06
3.47381e+06
3.47423e+06
3.4744e+06
3.47446e+06
3.47097e+06
3.47111e+06
3.47102e+06
3.47141e+06
3.47151e+06
3.47196e+06
3.47228e+06
3.47273e+06
3.47293e+06
3.47299e+06
3.4689e+06
3.46915e+06
3.46906e+06
3.46948e+06
3.46965e+06
3.47012e+06
3.47051e+06
3.47098e+06
3.47122e+06
3.47129e+06
3.46662e+06
3.46692e+06
3.46688e+06
3.4673e+06
3.46756e+06
3.46802e+06
3.46849e+06
3.46899e+06
3.46926e+06
3.46932e+06
3.46417e+06
3.46443e+06
3.46449e+06
3.46484e+06
3.46522e+06
3.46564e+06
3.4662e+06
3.46671e+06
3.46701e+06
3.46709e+06
3.46152e+06
3.46163e+06
3.46188e+06
3.46209e+06
3.46261e+06
3.46297e+06
3.46362e+06
3.46414e+06
3.46447e+06
3.46455e+06
3.45877e+06
3.45852e+06
3.45903e+06
3.45903e+06
3.4597e+06
3.45997e+06
3.46071e+06
3.46123e+06
3.46158e+06
3.46167e+06
3.45581e+06
3.45505e+06
3.4559e+06
3.45563e+06
3.45646e+06
3.45662e+06
3.45743e+06
3.45796e+06
3.45832e+06
3.45843e+06
3.45259e+06
3.45118e+06
3.45244e+06
3.45184e+06
3.45284e+06
3.45289e+06
3.45374e+06
3.45429e+06
3.45467e+06
3.45478e+06
3.44892e+06
3.44686e+06
3.44854e+06
3.44763e+06
3.44878e+06
3.44875e+06
3.44962e+06
3.4502e+06
3.45058e+06
3.45071e+06
3.44474e+06
3.4421e+06
3.44413e+06
3.44297e+06
3.44421e+06
3.44413e+06
3.44501e+06
3.44563e+06
3.44601e+06
3.44617e+06
3.43986e+06
3.43684e+06
3.4391e+06
3.43779e+06
3.43907e+06
3.43899e+06
3.43986e+06
3.44056e+06
3.44093e+06
3.44111e+06
3.43417e+06
3.43105e+06
3.43337e+06
3.43205e+06
3.4333e+06
3.43329e+06
3.43413e+06
3.43491e+06
3.43529e+06
3.43549e+06
3.42752e+06
3.42468e+06
3.42687e+06
3.42571e+06
3.42687e+06
3.42697e+06
3.42776e+06
3.42865e+06
3.42902e+06
3.42925e+06
3.42003e+06
3.41773e+06
3.4196e+06
3.41873e+06
3.41973e+06
3.41998e+06
3.42072e+06
3.42169e+06
3.42208e+06
3.42232e+06
3.41165e+06
3.41018e+06
3.41157e+06
3.4111e+06
3.41189e+06
3.41227e+06
3.41296e+06
3.41399e+06
3.41438e+06
3.41465e+06
3.40255e+06
3.40206e+06
3.40284e+06
3.4028e+06
3.40334e+06
3.40381e+06
3.40442e+06
3.40545e+06
3.40584e+06
3.40614e+06
3.39288e+06
3.39345e+06
3.39354e+06
3.39388e+06
3.39415e+06
3.39458e+06
3.39509e+06
3.39598e+06
3.39636e+06
3.3967e+06
3.38299e+06
3.38451e+06
3.3839e+06
3.38448e+06
3.38442e+06
3.38463e+06
3.38496e+06
3.38551e+06
3.38584e+06
3.38622e+06
3.3733e+06
3.37555e+06
3.37428e+06
3.37485e+06
3.37438e+06
3.37406e+06
3.37404e+06
3.37393e+06
3.37415e+06
3.37456e+06
3.3645e+06
3.36711e+06
3.36524e+06
3.36543e+06
3.36439e+06
3.36311e+06
3.36246e+06
3.36116e+06
3.36117e+06
3.36163e+06
3.35759e+06
3.36012e+06
3.35767e+06
3.35701e+06
3.35508e+06
3.35225e+06
3.35042e+06
3.34711e+06
3.3467e+06
3.34716e+06
3.35401e+06
3.35603e+06
3.35296e+06
3.35092e+06
3.34756e+06
3.34238e+06
3.33845e+06
3.33182e+06
3.33068e+06
3.33108e+06
3.35612e+06
3.35725e+06
3.35329e+06
3.34934e+06
3.3437e+06
3.33523e+06
3.32767e+06
3.31543e+06
3.31286e+06
3.31297e+06
3.36718e+06
3.36713e+06
3.36195e+06
3.35544e+06
3.34632e+06
3.33343e+06
3.31972e+06
3.29884e+06
3.29347e+06
3.29297e+06
3.39188e+06
3.39049e+06
3.38361e+06
3.3737e+06
3.3597e+06
3.34068e+06
3.31728e+06
3.28452e+06
3.27273e+06
3.27106e+06
3.43622e+06
3.43356e+06
3.42457e+06
3.4106e+06
3.39073e+06
3.36379e+06
3.32776e+06
3.27988e+06
3.25379e+06
3.25029e+06
3.50739e+06
3.50372e+06
3.49263e+06
3.47488e+06
3.4493e+06
3.41417e+06
3.36523e+06
3.2973e+06
3.24099e+06
3.23459e+06
3.60987e+06
3.60569e+06
3.59312e+06
3.57234e+06
3.54147e+06
3.49857e+06
3.43597e+06
3.3412e+06
3.23625e+06
3.226e+06
3.74392e+06
3.73947e+06
3.72565e+06
3.70219e+06
3.66711e+06
3.61552e+06
3.53536e+06
3.41894e+06
3.2802e+06
3.23911e+06
3.9007e+06
3.89804e+06
3.88886e+06
3.8725e+06
3.84746e+06
3.8044e+06
3.73527e+06
3.62298e+06
3.36678e+06
3.00706e+06
4.07819e+06
4.07808e+06
4.07659e+06
4.07451e+06
4.07286e+06
4.06926e+06
4.07161e+06
4.06791e+06
3.98579e+06
3.93437e+06
4.23367e+06
4.36511e+06
4.4287e+06
4.45869e+06
4.47536e+06
4.48477e+06
4.49051e+06
4.19207e+06
4.19261e+06
4.19313e+06
4.19421e+06
4.19621e+06
4.19912e+06
4.20679e+06
4.21752e+06
4.22998e+06
4.28665e+06
4.37615e+06
4.4158e+06
4.4477e+06
4.46626e+06
4.47857e+06
4.48624e+06
4.49123e+06
4.29744e+06
4.2983e+06
4.29991e+06
4.30284e+06
4.30719e+06
4.31306e+06
4.32227e+06
4.33245e+06
4.34258e+06
4.36925e+06
4.4091e+06
4.43721e+06
4.45817e+06
4.47203e+06
4.48148e+06
4.48776e+06
4.49199e+06
4.35753e+06
4.35842e+06
4.36028e+06
4.36352e+06
4.36815e+06
4.37443e+06
4.38289e+06
4.39355e+06
4.40696e+06
4.42444e+06
4.44242e+06
4.45703e+06
4.46911e+06
4.4781e+06
4.48479e+06
4.48957e+06
4.49297e+06
4.40529e+06
4.40595e+06
4.40728e+06
4.40965e+06
4.41295e+06
4.41735e+06
4.42302e+06
4.42978e+06
4.43781e+06
4.44785e+06
4.45858e+06
4.46811e+06
4.47618e+06
4.48255e+06
4.48746e+06
4.49115e+06
4.49387e+06
4.43312e+06
4.4337e+06
4.43481e+06
4.43677e+06
4.43943e+06
4.44292e+06
4.44722e+06
4.45232e+06
4.45813e+06
4.46448e+06
4.47084e+06
4.47672e+06
4.48192e+06
4.48627e+06
4.48981e+06
4.49259e+06
4.49474e+06
4.45368e+06
4.45412e+06
4.45482e+06
4.45613e+06
4.45788e+06
4.46018e+06
4.46299e+06
4.4663e+06
4.47003e+06
4.47414e+06
4.47833e+06
4.48231e+06
4.48592e+06
4.48905e+06
4.49167e+06
4.4938e+06
4.49549e+06
4.4664e+06
4.46677e+06
4.46729e+06
4.46828e+06
4.46957e+06
4.47127e+06
4.47329e+06
4.47564e+06
4.47824e+06
4.481e+06
4.4838e+06
4.4865e+06
4.48901e+06
4.49125e+06
4.49319e+06
4.49481e+06
4.49615e+06
4.47566e+06
4.47591e+06
4.47623e+06
4.47691e+06
4.47778e+06
4.47893e+06
4.4803e+06
4.4819e+06
4.48368e+06
4.48559e+06
4.48754e+06
4.48946e+06
4.49127e+06
4.49293e+06
4.49439e+06
4.49565e+06
4.4967e+06
4.48175e+06
4.48194e+06
4.48218e+06
4.48268e+06
4.48331e+06
4.48415e+06
4.48514e+06
4.4863e+06
4.48756e+06
4.48892e+06
4.49031e+06
4.49169e+06
4.49301e+06
4.49425e+06
4.49536e+06
4.49634e+06
4.49718e+06
4.4862e+06
4.48634e+06
4.4865e+06
4.48686e+06
4.4873e+06
4.4879e+06
4.4886e+06
4.48942e+06
4.49033e+06
4.49131e+06
4.49233e+06
4.49335e+06
4.49434e+06
4.49528e+06
4.49614e+06
4.4969e+06
4.49757e+06
4.49814e+06
4.49861e+06
4.48932e+06
4.48943e+06
4.48954e+06
4.48981e+06
4.49014e+06
4.49058e+06
4.4911e+06
4.49171e+06
4.49238e+06
4.4931e+06
4.49386e+06
4.49462e+06
4.49537e+06
4.49609e+06
4.49676e+06
4.49737e+06
4.49791e+06
4.49837e+06
4.49876e+06
4.49165e+06
4.49173e+06
4.49181e+06
4.492e+06
4.49224e+06
4.49257e+06
4.49295e+06
4.49341e+06
4.49391e+06
4.49445e+06
4.49502e+06
4.4956e+06
4.49618e+06
4.49674e+06
4.49727e+06
4.49775e+06
4.49819e+06
4.49857e+06
4.49889e+06
4.49335e+06
4.49342e+06
4.49347e+06
4.49362e+06
4.49381e+06
4.49406e+06
4.49435e+06
4.49469e+06
4.49507e+06
4.49549e+06
4.49592e+06
4.49637e+06
4.49682e+06
4.49726e+06
4.49768e+06
4.49807e+06
4.49842e+06
4.49873e+06
4.499e+06
4.49465e+06
4.49471e+06
4.49475e+06
4.49487e+06
4.495e+06
4.49519e+06
4.49541e+06
4.49568e+06
4.49597e+06
4.49629e+06
4.49663e+06
4.49698e+06
4.49733e+06
4.49768e+06
4.49802e+06
4.49833e+06
4.49862e+06
4.49888e+06
4.4991e+06
4.49565e+06
4.49569e+06
4.49572e+06
4.49581e+06
4.49592e+06
4.49606e+06
4.49624e+06
4.49644e+06
4.49667e+06
4.49692e+06
4.49719e+06
4.49746e+06
4.49774e+06
4.49802e+06
4.49829e+06
4.49855e+06
4.49878e+06
4.499e+06
4.49918e+06
4.49642e+06
4.49646e+06
4.49648e+06
4.49655e+06
4.49663e+06
4.49675e+06
4.49688e+06
4.49704e+06
4.49722e+06
4.49742e+06
4.49763e+06
4.49785e+06
4.49808e+06
4.4983e+06
4.49852e+06
4.49873e+06
4.49892e+06
4.4991e+06
4.49926e+06
4.49703e+06
4.49706e+06
4.49708e+06
4.49713e+06
4.49719e+06
4.49729e+06
4.49739e+06
4.49752e+06
4.49766e+06
4.49782e+06
4.49799e+06
4.49817e+06
4.49835e+06
4.49853e+06
4.49871e+06
4.49888e+06
4.49904e+06
4.49919e+06
4.49932e+06
4.49751e+06
4.49753e+06
4.49755e+06
4.49759e+06
4.49764e+06
4.49772e+06
4.4978e+06
4.4979e+06
4.49802e+06
4.49814e+06
4.49828e+06
4.49842e+06
4.49857e+06
4.49872e+06
4.49886e+06
4.499e+06
4.49914e+06
4.49926e+06
4.49937e+06
4.4979e+06
4.49791e+06
4.49792e+06
4.49796e+06
4.498e+06
4.49806e+06
4.49813e+06
4.49821e+06
4.4983e+06
4.4984e+06
4.49851e+06
4.49863e+06
4.49875e+06
4.49887e+06
4.49899e+06
4.49911e+06
4.49922e+06
4.49932e+06
4.49941e+06
4.49821e+06
4.49822e+06
4.49823e+06
4.49826e+06
4.49829e+06
4.49834e+06
4.49839e+06
4.49846e+06
4.49853e+06
4.49862e+06
4.49871e+06
4.4988e+06
4.4989e+06
4.499e+06
4.4991e+06
4.4992e+06
4.49929e+06
4.49937e+06
4.49945e+06
4.49846e+06
4.49847e+06
4.49847e+06
4.4985e+06
4.49852e+06
4.49856e+06
4.49861e+06
4.49866e+06
4.49872e+06
4.49879e+06
4.49886e+06
4.49894e+06
4.49902e+06
4.49911e+06
4.49919e+06
4.49927e+06
4.49934e+06
4.49942e+06
4.49948e+06
4.49866e+06
4.49867e+06
4.49868e+06
4.4987e+06
4.49872e+06
4.49875e+06
4.49878e+06
4.49883e+06
4.49888e+06
4.49893e+06
4.49899e+06
4.49906e+06
4.49913e+06
4.49919e+06
4.49926e+06
4.49933e+06
4.49939e+06
4.49945e+06
4.49951e+06
4.49883e+06
4.49884e+06
4.49884e+06
4.49886e+06
4.49887e+06
4.4989e+06
4.49893e+06
4.49896e+06
4.499e+06
4.49905e+06
4.4991e+06
4.49915e+06
4.49921e+06
4.49927e+06
4.49932e+06
4.49938e+06
4.49943e+06
4.49948e+06
4.49953e+06
4.49896e+06
4.49897e+06
4.49897e+06
4.49899e+06
4.499e+06
4.49902e+06
4.49905e+06
4.49908e+06
4.49911e+06
4.49915e+06
4.49919e+06
4.49923e+06
4.49928e+06
4.49933e+06
4.49937e+06
4.49942e+06
4.49947e+06
4.49951e+06
4.49955e+06
4.49907e+06
4.49908e+06
4.49908e+06
4.49909e+06
4.49911e+06
4.49912e+06
4.49914e+06
4.49917e+06
4.4992e+06
4.49923e+06
4.49926e+06
4.4993e+06
4.49934e+06
4.49938e+06
4.49942e+06
4.49945e+06
4.49949e+06
4.49953e+06
4.49956e+06
4.49917e+06
4.49917e+06
4.49918e+06
4.49918e+06
4.49919e+06
4.49921e+06
4.49922e+06
4.49924e+06
4.49927e+06
4.49929e+06
4.49932e+06
4.49935e+06
4.49938e+06
4.49942e+06
4.49945e+06
4.49948e+06
4.49951e+06
4.49954e+06
4.49957e+06
4.49924e+06
4.49925e+06
4.49925e+06
4.49926e+06
4.49927e+06
4.49928e+06
4.49929e+06
4.49931e+06
4.49933e+06
4.49935e+06
4.49937e+06
4.4994e+06
4.49942e+06
4.49945e+06
4.49948e+06
4.49951e+06
4.49953e+06
4.49956e+06
4.49958e+06
4.4993e+06
4.49931e+06
4.49931e+06
4.49932e+06
4.49932e+06
4.49933e+06
4.49935e+06
4.49936e+06
4.49938e+06
4.49939e+06
4.49941e+06
4.49943e+06
4.49946e+06
4.49948e+06
4.4995e+06
4.49952e+06
4.49955e+06
4.49957e+06
4.49959e+06
4.49935e+06
4.49936e+06
4.49936e+06
4.49937e+06
4.49937e+06
4.49938e+06
4.49939e+06
4.4994e+06
4.49942e+06
4.49943e+06
4.49945e+06
4.49946e+06
4.49948e+06
4.4995e+06
4.49952e+06
4.49954e+06
4.49956e+06
4.49958e+06
4.49959e+06
4.4994e+06
4.4994e+06
4.4994e+06
4.49941e+06
4.49941e+06
4.49942e+06
4.49943e+06
4.49944e+06
4.49945e+06
4.49946e+06
4.49947e+06
4.49949e+06
4.4995e+06
4.49952e+06
4.49954e+06
4.49955e+06
4.49957e+06
4.49958e+06
4.4996e+06
4.49943e+06
4.49944e+06
4.49944e+06
4.49944e+06
4.49945e+06
4.49945e+06
4.49946e+06
4.49947e+06
4.49948e+06
4.49949e+06
4.4995e+06
4.49951e+06
4.49952e+06
4.49953e+06
4.49955e+06
4.49956e+06
4.49957e+06
4.49959e+06
4.4996e+06
4.49946e+06
4.49947e+06
4.49947e+06
4.49947e+06
4.49947e+06
4.49948e+06
4.49948e+06
4.49949e+06
4.4995e+06
4.49951e+06
4.49952e+06
4.49953e+06
4.49954e+06
4.49955e+06
4.49956e+06
4.49957e+06
4.49958e+06
4.49959e+06
4.4996e+06
4.49949e+06
4.49949e+06
4.49949e+06
4.49949e+06
4.4995e+06
4.4995e+06
4.4995e+06
4.49951e+06
4.49952e+06
4.49952e+06
4.49953e+06
4.49954e+06
4.49955e+06
4.49956e+06
4.49956e+06
4.49957e+06
4.49958e+06
4.49959e+06
4.4996e+06
4.49951e+06
4.49951e+06
4.49951e+06
4.49951e+06
4.49952e+06
4.49952e+06
4.49952e+06
4.49953e+06
4.49953e+06
4.49954e+06
4.49954e+06
4.49955e+06
4.49956e+06
4.49956e+06
4.49957e+06
4.49958e+06
4.49958e+06
4.49959e+06
4.4996e+06
4.49953e+06
4.49953e+06
4.49953e+06
4.49953e+06
4.49953e+06
4.49953e+06
4.49954e+06
4.49954e+06
4.49954e+06
4.49955e+06
4.49955e+06
4.49956e+06
4.49956e+06
4.49957e+06
4.49957e+06
4.49958e+06
4.49959e+06
4.49959e+06
4.4996e+06
4.49954e+06
4.49954e+06
4.49954e+06
4.49954e+06
4.49954e+06
4.49955e+06
4.49955e+06
4.49955e+06
4.49955e+06
4.49956e+06
4.49956e+06
4.49957e+06
4.49957e+06
4.49957e+06
4.49958e+06
4.49958e+06
4.49959e+06
4.49959e+06
4.49959e+06
4.49956e+06
4.49956e+06
4.49956e+06
4.49956e+06
4.49956e+06
4.49956e+06
4.49956e+06
4.49956e+06
4.49956e+06
4.49957e+06
4.49957e+06
4.49957e+06
4.49957e+06
4.49958e+06
4.49958e+06
4.49958e+06
4.49958e+06
4.49959e+06
4.49959e+06
4.49956e+06
4.49956e+06
4.49956e+06
4.49956e+06
4.49956e+06
4.49957e+06
4.49957e+06
4.49957e+06
4.49957e+06
4.49957e+06
4.49957e+06
4.49958e+06
4.49958e+06
4.49958e+06
4.49958e+06
4.49958e+06
4.49958e+06
4.49959e+06
4.49959e+06
4.49958e+06
4.49958e+06
4.49958e+06
4.49958e+06
4.49958e+06
4.49958e+06
4.49958e+06
4.49958e+06
4.49958e+06
4.49958e+06
4.49958e+06
4.49958e+06
4.49958e+06
4.49958e+06
4.49958e+06
4.49958e+06
4.49959e+06
4.49959e+06
4.49959e+06
3.48188e+06
3.47758e+06
3.4798e+06
3.47932e+06
3.47642e+06
3.4686e+06
3.46271e+06
3.45631e+06
3.47805e+06
3.46613e+06
3.4751e+06
3.46911e+06
3.4704e+06
3.4623e+06
3.45896e+06
3.45368e+06
3.4519e+06
3.45197e+06
3.45169e+06
3.45278e+06
3.45126e+06
3.44985e+06
3.44071e+06
3.4733e+06
3.45745e+06
3.47016e+06
3.46112e+06
3.46487e+06
3.45732e+06
3.4557e+06
3.45144e+06
3.45034e+06
3.45029e+06
3.45006e+06
3.45095e+06
3.44995e+06
3.44844e+06
3.43979e+06
3.46832e+06
3.45159e+06
3.46536e+06
3.45534e+06
3.46008e+06
3.45346e+06
3.45289e+06
3.44955e+06
3.44885e+06
3.44875e+06
3.4485e+06
3.44925e+06
3.44859e+06
3.44707e+06
3.43904e+06
3.46338e+06
3.44773e+06
3.46095e+06
3.45127e+06
3.45607e+06
3.45048e+06
3.45047e+06
3.4479e+06
3.44741e+06
3.44735e+06
3.44706e+06
3.4477e+06
3.44721e+06
3.44576e+06
3.43834e+06
3.45894e+06
3.44546e+06
3.45712e+06
3.44837e+06
3.45273e+06
3.4481e+06
3.4483e+06
3.44636e+06
3.44596e+06
3.44598e+06
3.44566e+06
3.44624e+06
3.44583e+06
3.44449e+06
3.43763e+06
3.45475e+06
3.44375e+06
3.45364e+06
3.44619e+06
3.44987e+06
3.44612e+06
3.44632e+06
3.44485e+06
3.44446e+06
3.44454e+06
3.44422e+06
3.4448e+06
3.44447e+06
3.44322e+06
3.43691e+06
3.45096e+06
3.44259e+06
3.45052e+06
3.44451e+06
3.44738e+06
3.44442e+06
3.44448e+06
3.44336e+06
3.44294e+06
3.44305e+06
3.44278e+06
3.44336e+06
3.44311e+06
3.44194e+06
3.43617e+06
3.44754e+06
3.44178e+06
3.44768e+06
3.44318e+06
3.44518e+06
3.44295e+06
3.44278e+06
3.44194e+06
3.44147e+06
3.44159e+06
3.44138e+06
3.44197e+06
3.4418e+06
3.44069e+06
3.43547e+06
3.44473e+06
3.44136e+06
3.44518e+06
3.44214e+06
3.44323e+06
3.44167e+06
3.44125e+06
3.44062e+06
3.44013e+06
3.44026e+06
3.44009e+06
3.44068e+06
3.44057e+06
3.4395e+06
3.43483e+06
3.44209e+06
3.44102e+06
3.44291e+06
3.44126e+06
3.44152e+06
3.44054e+06
3.43991e+06
3.43945e+06
3.43895e+06
3.4391e+06
3.43896e+06
3.43952e+06
3.43944e+06
3.4384e+06
3.4343e+06
3.43986e+06
3.44071e+06
3.44094e+06
3.44045e+06
3.44003e+06
3.4395e+06
3.43873e+06
3.43842e+06
3.43794e+06
3.43809e+06
3.43795e+06
3.43849e+06
3.43841e+06
3.4374e+06
3.4339e+06
3.43802e+06
3.44023e+06
3.43925e+06
3.43961e+06
3.4387e+06
3.43852e+06
3.43769e+06
3.43749e+06
3.43706e+06
3.4372e+06
3.43708e+06
3.43754e+06
3.43746e+06
3.43646e+06
3.43361e+06
3.43667e+06
3.43958e+06
3.43779e+06
3.43866e+06
3.43751e+06
3.43754e+06
3.43674e+06
3.43661e+06
3.43624e+06
3.43637e+06
3.43626e+06
3.43667e+06
3.43659e+06
3.4356e+06
3.43347e+06
3.43538e+06
3.43855e+06
3.4365e+06
3.43761e+06
3.43641e+06
3.43656e+06
3.43584e+06
3.43577e+06
3.43545e+06
3.43556e+06
3.43546e+06
3.43582e+06
3.43577e+06
3.43478e+06
3.43348e+06
3.43422e+06
3.43732e+06
3.43532e+06
3.43647e+06
3.43537e+06
3.43558e+06
3.43497e+06
3.43493e+06
3.43465e+06
3.43473e+06
3.43465e+06
3.43497e+06
3.43496e+06
3.434e+06
3.43366e+06
3.43313e+06
3.43599e+06
3.43423e+06
3.43531e+06
3.43439e+06
3.4346e+06
3.43411e+06
3.43408e+06
3.43384e+06
3.43389e+06
3.43382e+06
3.43412e+06
3.43417e+06
3.4333e+06
3.43406e+06
3.43235e+06
3.43473e+06
3.43323e+06
3.43421e+06
3.43348e+06
3.43367e+06
3.43329e+06
3.43324e+06
3.43301e+06
3.43303e+06
3.43298e+06
3.4333e+06
3.43341e+06
3.43274e+06
3.4347e+06
3.43147e+06
3.43361e+06
3.43238e+06
3.43322e+06
3.43269e+06
3.43281e+06
3.43252e+06
3.43243e+06
3.43218e+06
3.43219e+06
3.43214e+06
3.43252e+06
3.43268e+06
3.43241e+06
3.43561e+06
3.43088e+06
3.43274e+06
3.43175e+06
3.43243e+06
3.43208e+06
3.4321e+06
3.43187e+06
3.4317e+06
3.4314e+06
3.43141e+06
3.43135e+06
3.43185e+06
3.43208e+06
3.43244e+06
3.43679e+06
3.43067e+06
3.43218e+06
3.43145e+06
3.43192e+06
3.43174e+06
3.4316e+06
3.4314e+06
3.43111e+06
3.43073e+06
3.43076e+06
3.43064e+06
3.43135e+06
3.43171e+06
3.43297e+06
3.43825e+06
3.43077e+06
3.43186e+06
3.43153e+06
3.4318e+06
3.43177e+06
3.43142e+06
3.43122e+06
3.43073e+06
3.43027e+06
3.43031e+06
3.43012e+06
3.43111e+06
3.43173e+06
3.4341e+06
3.43997e+06
3.43175e+06
3.43231e+06
3.43224e+06
3.4322e+06
3.43227e+06
3.43166e+06
3.43145e+06
3.43067e+06
3.4302e+06
3.43016e+06
3.42997e+06
3.43123e+06
3.43234e+06
3.43585e+06
3.44193e+06
3.43343e+06
3.43341e+06
3.43357e+06
3.43321e+06
3.43333e+06
3.43245e+06
3.43223e+06
3.4311e+06
3.43068e+06
3.43043e+06
3.4304e+06
3.43187e+06
3.43371e+06
3.43817e+06
3.44411e+06
3.43576e+06
3.43529e+06
3.43558e+06
3.43494e+06
3.43505e+06
3.43392e+06
3.43369e+06
3.43217e+06
3.43194e+06
3.43133e+06
3.43167e+06
3.43328e+06
3.43597e+06
3.44096e+06
3.44647e+06
3.43802e+06
3.43774e+06
3.4382e+06
3.43743e+06
3.43749e+06
3.43619e+06
3.43595e+06
3.43409e+06
3.4342e+06
3.43301e+06
3.43397e+06
3.43564e+06
3.4391e+06
3.44409e+06
3.44897e+06
3.44163e+06
3.44121e+06
3.44155e+06
3.4407e+06
3.44063e+06
3.43928e+06
3.43904e+06
3.43695e+06
3.43744e+06
3.43564e+06
3.43731e+06
3.43899e+06
3.44294e+06
3.4458e+06
3.44529e+06
3.44542e+06
3.44466e+06
3.44445e+06
3.44317e+06
3.44294e+06
3.44069e+06
3.4417e+06
3.43926e+06
3.44161e+06
3.44321e+06
3.44723e+06
3.45041e+06
3.44999e+06
3.4498e+06
3.44925e+06
3.44889e+06
3.44786e+06
3.44757e+06
3.44548e+06
3.44679e+06
3.44398e+06
3.4467e+06
3.44806e+06
3.45166e+06
3.454e+06
3.45465e+06
3.45445e+06
3.45425e+06
3.45377e+06
3.45316e+06
3.45282e+06
3.45126e+06
3.45269e+06
3.4499e+06
3.45251e+06
3.45334e+06
3.45603e+06
3.4591e+06
3.4598e+06
3.45931e+06
3.45945e+06
3.45889e+06
3.45882e+06
3.45849e+06
3.45775e+06
3.45918e+06
3.45684e+06
3.45877e+06
3.45861e+06
3.45993e+06
3.46392e+06
3.46467e+06
3.46396e+06
3.46448e+06
3.4639e+06
3.46442e+06
3.46416e+06
3.46446e+06
3.46579e+06
3.46432e+06
3.46539e+06
3.46385e+06
3.46341e+06
3.46826e+06
3.46905e+06
3.46815e+06
3.46895e+06
3.46837e+06
3.46948e+06
3.46928e+06
3.47069e+06
3.47176e+06
3.47135e+06
3.4713e+06
3.46833e+06
3.4657e+06
3.47137e+06
3.47245e+06
3.47151e+06
3.47253e+06
3.472e+06
3.47356e+06
3.47333e+06
3.47583e+06
3.47644e+06
3.47731e+06
3.47631e+06
3.47236e+06
3.46773e+06
3.47381e+06
3.47498e+06
3.47392e+06
3.475e+06
3.47448e+06
3.47611e+06
3.47573e+06
3.47901e+06
3.47814e+06
3.4805e+06
3.47741e+06
3.47422e+06
3.46758e+06
3.47526e+06
3.4765e+06
3.47533e+06
3.4763e+06
3.47572e+06
3.47688e+06
3.47627e+06
3.47924e+06
3.47669e+06
3.4813e+06
3.47749e+06
3.47653e+06
3.46948e+06
3.47615e+06
3.47749e+06
3.47621e+06
3.47707e+06
3.47643e+06
3.47699e+06
3.47626e+06
3.47716e+06
3.47299e+06
3.47854e+06
3.46655e+06
3.47362e+06
3.46891e+06
3.47694e+06
3.47838e+06
3.4771e+06
3.47797e+06
3.47745e+06
3.47802e+06
3.47797e+06
3.47857e+06
3.47827e+06
3.47987e+06
3.47741e+06
3.47879e+06
3.47754e+06
3.47837e+06
3.4779e+06
3.47844e+06
3.47848e+06
3.479e+06
3.47916e+06
3.4796e+06
3.47771e+06
3.47897e+06
3.47786e+06
3.47863e+06
3.47821e+06
3.47872e+06
3.47881e+06
3.47927e+06
3.47945e+06
3.47963e+06
3.47785e+06
3.47884e+06
3.47788e+06
3.47853e+06
3.47817e+06
3.47863e+06
3.47869e+06
3.47909e+06
3.47922e+06
3.4793e+06
3.47778e+06
3.47847e+06
3.47769e+06
3.47822e+06
3.47793e+06
3.47832e+06
3.47838e+06
3.47873e+06
3.47884e+06
3.4789e+06
3.47746e+06
3.47783e+06
3.47723e+06
3.47763e+06
3.47741e+06
3.47777e+06
3.47784e+06
3.47818e+06
3.47828e+06
3.47834e+06
3.47663e+06
3.47688e+06
3.47649e+06
3.47682e+06
3.47667e+06
3.47702e+06
3.47713e+06
3.47748e+06
3.47758e+06
3.47764e+06
3.47571e+06
3.47578e+06
3.4755e+06
3.47579e+06
3.4757e+06
3.47607e+06
3.47622e+06
3.47659e+06
3.47671e+06
3.47677e+06
3.47438e+06
3.47439e+06
3.47425e+06
3.47456e+06
3.47453e+06
3.47492e+06
3.47512e+06
3.47551e+06
3.47566e+06
3.47572e+06
3.47285e+06
3.47288e+06
3.47275e+06
3.4731e+06
3.47313e+06
3.47356e+06
3.47381e+06
3.47423e+06
3.4744e+06
3.47446e+06
3.47097e+06
3.47111e+06
3.47102e+06
3.47141e+06
3.47151e+06
3.47196e+06
3.47228e+06
3.47273e+06
3.47293e+06
3.47299e+06
3.4689e+06
3.46915e+06
3.46906e+06
3.46948e+06
3.46965e+06
3.47012e+06
3.47051e+06
3.47098e+06
3.47122e+06
3.47129e+06
3.46662e+06
3.46692e+06
3.46688e+06
3.4673e+06
3.46756e+06
3.46802e+06
3.46849e+06
3.46899e+06
3.46926e+06
3.46932e+06
3.46417e+06
3.46443e+06
3.46449e+06
3.46484e+06
3.46522e+06
3.46564e+06
3.4662e+06
3.46671e+06
3.46702e+06
3.46709e+06
3.46152e+06
3.46163e+06
3.46188e+06
3.46209e+06
3.46261e+06
3.46297e+06
3.46362e+06
3.46414e+06
3.46447e+06
3.46455e+06
3.45877e+06
3.45852e+06
3.45903e+06
3.45903e+06
3.4597e+06
3.45997e+06
3.46071e+06
3.46123e+06
3.46158e+06
3.46167e+06
3.45581e+06
3.45505e+06
3.4559e+06
3.45563e+06
3.45646e+06
3.45662e+06
3.45743e+06
3.45796e+06
3.45832e+06
3.45843e+06
3.45259e+06
3.45118e+06
3.45244e+06
3.45184e+06
3.45284e+06
3.45289e+06
3.45374e+06
3.45429e+06
3.45467e+06
3.45478e+06
3.44892e+06
3.44686e+06
3.44854e+06
3.44763e+06
3.44878e+06
3.44875e+06
3.44962e+06
3.4502e+06
3.45058e+06
3.45071e+06
3.44474e+06
3.4421e+06
3.44413e+06
3.44297e+06
3.44421e+06
3.44413e+06
3.44501e+06
3.44563e+06
3.44601e+06
3.44617e+06
3.43986e+06
3.43684e+06
3.4391e+06
3.43779e+06
3.43907e+06
3.43899e+06
3.43986e+06
3.44056e+06
3.44093e+06
3.44111e+06
3.43417e+06
3.43105e+06
3.43337e+06
3.43205e+06
3.4333e+06
3.43329e+06
3.43413e+06
3.43491e+06
3.43529e+06
3.43549e+06
3.42752e+06
3.42468e+06
3.42687e+06
3.42571e+06
3.42687e+06
3.42697e+06
3.42776e+06
3.42865e+06
3.42902e+06
3.42925e+06
3.42003e+06
3.41773e+06
3.4196e+06
3.41873e+06
3.41973e+06
3.41998e+06
3.42072e+06
3.42169e+06
3.42208e+06
3.42232e+06
3.41165e+06
3.41018e+06
3.41157e+06
3.4111e+06
3.41189e+06
3.41227e+06
3.41296e+06
3.41399e+06
3.41438e+06
3.41465e+06
3.40255e+06
3.40206e+06
3.40284e+06
3.4028e+06
3.40334e+06
3.40381e+06
3.40442e+06
3.40545e+06
3.40584e+06