/*--------------------------------*- C++ -*----------------------------------*\
| =========                 |                                                 |
| \\      /  F ield         | OpenFOAM: The Open Source CFD Toolbox           |
|  \\    /   O peration     | Version:  v2012                                 |
|   \\  /    A nd           | Website:  www.openfoam.com                      |
|    \\/     M anipulation  |                                                 |
\*---------------------------------------------------------------------------*/
FoamFile
{
    version     2.0;
    format      ascii;
    class       surfaceScalarField;
    location    "0.85";
    object      phi;
}
// * * * * * * * * * * * * * * * * * * * * * * * * * * * * * * * * * * * * * //

dimensions      [0 3 -1 0 0 0 0];
oriented        oriented;


internalField   nonuniform List<scalar> 
8134
(
-2.24236e-10
-5.28904e-11
-2.92281e-15
-1.84084e-10
-4.01782e-11
-3.17495e-15
-1.52983e-10
-3.11282e-11
-3.28772e-15
-1.28434e-10
-2.45733e-11
-2.9512e-15
-1.08772e-10
-1.96821e-11
-2.36942e-15
-9.27777e-11
-1.60092e-11
-1.8324e-15
-7.96202e-11
-1.31695e-11
-1.4234e-15
-6.86711e-11
-1.09578e-11
-1.05284e-15
-5.94778e-11
-9.20002e-12
-8.0762e-16
-5.16909e-11
-7.79142e-12
-5.68139e-16
-4.50478e-11
-6.64669e-12
-4.15762e-16
-3.93405e-11
-5.70965e-12
-2.73088e-16
-3.4408e-11
-4.93408e-12
-1.82436e-16
-3.01212e-11
-4.28744e-12
-9.61924e-17
-2.63778e-11
-3.7437e-12
-4.52705e-17
-2.30951e-11
-3.28279e-12
-5.07266e-18
-2.02058e-11
-2.88907e-12
1.84165e-17
-1.76554e-11
-2.55014e-12
3.11221e-17
-1.53988e-11
-2.25625e-12
3.5382e-17
-1.33989e-11
-1.99951e-12
3.351e-17
-1.16249e-11
-1.77375e-12
2.89141e-17
-1.00506e-11
-1.57399e-12
2.21548e-17
-8.65444e-12
-1.39603e-12
1.60627e-17
-7.41673e-12
-1.23753e-12
9.93924e-18
-6.32142e-12
-1.09524e-12
5.30412e-18
-5.35342e-12
-9.6792e-13
1.49046e-18
-4.4997e-12
-8.53676e-13
-6.8394e-19
-3.74826e-12
-7.51438e-13
-2.16234e-18
-3.08751e-12
-6.60707e-13
-2.46298e-18
-2.50742e-12
-5.80085e-13
-2.24451e-18
-1.9982e-12
-5.09183e-13
-1.91526e-18
-1.55119e-12
-4.46969e-13
-8.84877e-19
-1.1587e-12
-3.92445e-13
3.15432e-19
-8.14335e-13
-3.44294e-13
1.64059e-18
-5.13816e-13
-3.00442e-13
2.69442e-18
-2.55257e-13
-2.58467e-13
3.75214e-18
-4.0216e-14
-2.14936e-13
4.45001e-18
1.25774e-13
-1.65871e-13
5.40291e-18
2.32275e-13
-1.06366e-13
6.15553e-18
2.66938e-13
-3.45108e-14
6.97064e-18
2.18654e-13
4.84574e-14
7.62818e-18
1.048e-13
1.14044e-13
8.27618e-18
1.04996e-13
8.32463e-18
-5.80502e-10
-1.66676e-10
-3.097e-15
-4.88971e-10
-1.31731e-10
-2.89522e-15
-4.14442e-10
-1.0568e-10
-2.89423e-15
-3.53489e-10
-8.55481e-11
-2.6459e-15
-3.03141e-10
-7.00476e-11
-2.18346e-15
-2.61267e-10
-5.78974e-11
-1.74289e-15
-2.26149e-10
-4.82994e-11
-1.3957e-15
-1.96488e-10
-4.06272e-11
-1.05603e-15
-1.7126e-10
-3.4435e-11
-8.29203e-16
-1.49664e-10
-2.93916e-11
-5.86583e-16
-1.31069e-10
-2.52449e-11
-4.37019e-16
-1.14969e-10
-2.18125e-11
-2.88428e-16
-1.00959e-10
-1.89457e-11
-1.98441e-16
-8.87116e-11
-1.65357e-11
-9.51979e-17
-7.79606e-11
-1.44949e-11
-4.81763e-17
-6.84894e-11
-1.27542e-11
-4.85673e-18
-6.01192e-11
-1.12591e-11
2.09447e-17
-5.27032e-11
-9.96595e-12
3.51935e-17
-4.61191e-11
-8.84003e-12
3.98347e-17
-4.02653e-11
-7.85282e-12
3.79917e-17
-3.50567e-11
-6.98201e-12
3.28249e-17
-3.0421e-11
-6.20932e-12
2.57299e-17
-2.62978e-11
-5.51926e-12
1.89821e-17
-2.26317e-11
-4.90334e-12
1.24191e-17
-1.93777e-11
-4.34926e-12
7.29388e-18
-1.6493e-11
-3.85252e-12
3.1642e-18
-1.39408e-11
-3.40587e-12
8.47833e-19
-1.1687e-11
-3.00528e-12
-5.42699e-19
-9.69858e-12
-2.649e-12
-1.07132e-18
-7.94718e-12
-2.3315e-12
-5.78948e-19
-6.40484e-12
-2.05147e-12
-6.43563e-20
-5.04695e-12
-1.80481e-12
1.04631e-18
-3.85158e-12
-1.58777e-12
2.2043e-18
-2.80045e-12
-1.39534e-12
3.46409e-18
-1.88117e-12
-1.21965e-12
4.47759e-18
-1.08799e-12
-1.05154e-12
5.34673e-18
-4.24364e-13
-8.78449e-13
6.06075e-18
9.53049e-14
-6.85412e-13
6.77867e-18
4.44955e-13
-4.55871e-13
7.40783e-18
5.92928e-13
-1.82318e-13
8.29861e-18
5.16193e-13
1.25379e-13
8.69324e-18
2.57131e-13
3.73306e-13
9.39586e-18
3.62331e-13
9.66496e-18
-8.10134e-10
-2.91593e-10
-2.99337e-15
-7.02166e-10
-2.39725e-10
-3.26893e-15
-6.09203e-10
-1.98668e-10
-3.14723e-15
-5.2953e-10
-1.65245e-10
-2.72416e-15
-4.61215e-10
-1.3838e-10
-2.16185e-15
-4.02623e-10
-1.16503e-10
-1.70038e-15
-3.52241e-10
-9.86924e-11
-1.34787e-15
-3.08803e-10
-8.40736e-11
-1.0172e-15
-2.71222e-10
-7.20233e-11
-8.00131e-16
-2.38589e-10
-6.20282e-11
-5.58416e-16
-2.10151e-10
-5.36862e-11
-4.2139e-16
-1.85275e-10
-4.66917e-11
-2.77461e-16
-1.63437e-10
-4.07852e-11
-1.94216e-16
-1.44201e-10
-3.57724e-11
-9.47051e-17
-1.27204e-10
-3.14923e-11
-4.5777e-17
-1.12143e-10
-2.78151e-11
-3.62957e-18
-9.87649e-11
-2.46367e-11
2.14071e-17
-8.68586e-11
-2.18722e-11
3.50621e-17
-7.62448e-11
-1.94535e-11
3.95459e-17
-6.67734e-11
-1.73236e-11
3.71677e-17
-5.83174e-11
-1.54377e-11
3.22977e-17
-5.07674e-11
-1.37588e-11
2.49076e-17
-4.40318e-11
-1.2255e-11
1.78131e-17
-3.80253e-11
-1.09094e-11
1.14632e-17
-3.26786e-11
-9.69598e-12
6.33761e-18
-2.79252e-11
-8.6058e-12
2.34383e-18
-2.37075e-11
-7.62349e-12
-1.25788e-19
-1.99723e-11
-6.7406e-12
-1.46901e-18
-1.66674e-11
-5.95375e-12
-1.89465e-18
-1.37481e-11
-5.25086e-12
-1.35596e-18
-1.11701e-11
-4.62938e-12
-8.46258e-19
-8.89445e-12
-4.08038e-12
1.96033e-19
-6.88633e-12
-3.59586e-12
1.38603e-18
-5.11653e-12
-3.16505e-12
2.90607e-18
-3.5651e-12
-2.771e-12
4.0701e-18
-2.22239e-12
-2.39415e-12
5.00757e-18
-1.09273e-12
-2.00799e-12
5.76008e-18
-1.97207e-13
-1.5808e-12
6.61853e-18
4.26303e-13
-1.07923e-12
7.35759e-18
7.31803e-13
-4.8765e-13
8.48851e-18
6.88674e-13
1.68696e-13
8.66245e-18
3.56412e-13
7.05773e-13
9.49561e-18
7.18951e-13
9.59532e-18
-9.45411e-10
-4.08153e-10
-1.79541e-15
-8.38832e-10
-3.46315e-10
-1.76518e-15
-7.42781e-10
-2.94733e-10
-1.84563e-15
-6.571e-10
-2.5094e-10
-1.7706e-15
-5.81114e-10
-2.14377e-10
-1.52755e-15
-5.14005e-10
-1.83623e-10
-1.31186e-15
-4.54834e-10
-1.57873e-10
-1.10425e-15
-4.02698e-10
-1.36216e-10
-8.76682e-16
-3.5674e-10
-1.17987e-10
-7.15461e-16
-3.16183e-10
-1.02588e-10
-5.24952e-16
-2.80342e-10
-8.95307e-11
-3.89593e-16
-2.48607e-10
-7.84299e-11
-2.56852e-16
-2.20453e-10
-6.8941e-11
-1.82143e-16
-1.95423e-10
-6.08016e-11
-9.65262e-17
-1.73129e-10
-5.37865e-11
-4.14023e-17
-1.53235e-10
-4.7709e-11
-9.69485e-19
-1.35455e-10
-4.24172e-11
2.28477e-17
-1.19542e-10
-3.77845e-11
3.5214e-17
-1.05288e-10
-3.37078e-11
3.97139e-17
-9.25108e-11
-3.00996e-11
3.65396e-17
-8.10578e-11
-2.68905e-11
3.20466e-17
-7.07938e-11
-2.40222e-11
2.43476e-17
-6.16051e-11
-2.14439e-11
1.65631e-17
-5.33842e-11
-1.91299e-11
1.08783e-17
-4.60431e-11
-1.70371e-11
6.24008e-18
-3.94964e-11
-1.51523e-11
2.31084e-18
-3.367e-11
-1.34499e-11
-1.83136e-19
-2.84944e-11
-1.19163e-11
-1.63561e-18
-2.39015e-11
-1.05465e-11
-1.96974e-18
-1.98325e-11
-9.31994e-12
-1.31489e-18
-1.6229e-11
-8.23282e-12
-9.87083e-19
-1.30393e-11
-7.26993e-12
1.62457e-20
-1.02173e-11
-6.41782e-12
1.42244e-18
-7.72396e-12
-5.65833e-12
2.82143e-18
-5.53236e-12
-4.96253e-12
4.06382e-18
-3.62896e-12
-4.29745e-12
4.7864e-18
-2.01821e-12
-3.61861e-12
5.66876e-18
-7.25986e-13
-2.8729e-12
6.4827e-18
2.00924e-13
-2.006e-12
7.43942e-18
7.05806e-13
-9.92363e-13
8.54658e-18
7.52101e-13
1.2259e-13
8.92643e-18
4.09592e-13
1.04848e-12
9.53239e-18
1.12875e-12
9.70749e-18
-9.92063e-10
-4.98459e-10
-2.78605e-15
-9.02855e-10
-4.35543e-10
-2.4822e-15
-8.17346e-10
-3.8026e-10
-2.24956e-15
-7.37028e-10
-3.31276e-10
-1.93816e-15
-6.62693e-10
-2.88724e-10
-1.54554e-15
-5.94633e-10
-2.51694e-10
-1.27031e-15
-5.32776e-10
-2.19738e-10
-1.03889e-15
-4.76849e-10
-1.9215e-10
-8.18373e-16
-4.26452e-10
-1.68389e-10
-6.64888e-16
-3.81129e-10
-1.47914e-10
-4.95796e-16
-3.40419e-10
-1.30245e-10
-3.59947e-16
-3.03859e-10
-1.14993e-10
-2.35376e-16
-2.71024e-10
-1.01778e-10
-1.67173e-16
-2.41518e-10
-9.0307e-11
-9.43543e-17
-2.14989e-10
-8.03157e-11
-3.69552e-17
-1.9112e-10
-7.15782e-11
2.52828e-18
-1.6963e-10
-6.39066e-11
2.48e-17
-1.50274e-10
-5.71404e-11
3.54632e-17
-1.32835e-10
-5.11468e-11
3.99776e-17
-1.17123e-10
-4.58106e-11
3.52173e-17
-1.02973e-10
-4.10399e-11
3.18744e-17
-9.02388e-11
-3.67562e-11
2.36536e-17
-7.87934e-11
-3.28896e-11
1.5418e-17
-6.85158e-11
-2.94069e-11
9.96504e-18
-5.93061e-11
-2.6247e-11
6.08688e-18
-5.10653e-11
-2.33928e-11
2.15934e-18
-4.37073e-11
-2.08079e-11
-9.79738e-20
-3.71504e-11
-1.84733e-11
-1.66726e-18
-3.13134e-11
-1.63833e-11
-2.07467e-18
-2.61263e-11
-1.45071e-11
-1.21884e-18
-2.15188e-11
-1.28402e-11
-8.79503e-19
-1.74287e-11
-1.136e-11
-8.02358e-20
-1.37998e-11
-1.00467e-11
1.32934e-18
-1.05846e-11
-8.87343e-12
2.75169e-18
-7.74998e-12
-7.79709e-12
3.99801e-18
-5.27861e-12
-6.76873e-12
4.80731e-18
-3.17443e-12
-5.72267e-12
5.72055e-18
-1.46664e-12
-4.58056e-12
6.44811e-18
-2.08683e-13
-3.26381e-12
7.35799e-18
5.34404e-13
-1.73528e-12
8.52413e-18
7.2055e-13
-6.33671e-14
8.88512e-18
4.2369e-13
1.34555e-12
9.5067e-18
1.55265e-12
9.66585e-18
-9.92448e-10
-5.65004e-10
-1.07193e-15
-9.21906e-10
-5.06089e-10
-7.76354e-16
-8.50422e-10
-4.51749e-10
-8.3368e-16
-7.80049e-10
-4.01656e-10
-8.59682e-16
-7.12266e-10
-3.56511e-10
-7.73858e-16
-6.48014e-10
-3.15952e-10
-7.66311e-16
-5.87828e-10
-2.79929e-10
-7.07329e-16
-5.31956e-10
-2.48026e-10
-6.20816e-16
-4.80432e-10
-2.19918e-10
-5.37883e-16
-4.33148e-10
-1.952e-10
-4.21476e-16
-3.89916e-10
-1.7348e-10
-3.17211e-16
-3.50482e-10
-1.54428e-10
-2.07008e-16
-3.1458e-10
-1.37682e-10
-1.45534e-16
-2.8193e-10
-1.22957e-10
-8.60127e-17
-2.52261e-10
-1.09984e-10
-3.02846e-17
-2.25318e-10
-9.85213e-11
7.34987e-18
-2.0086e-10
-8.83638e-11
2.74897e-17
-1.7867e-10
-7.93307e-11
3.55966e-17
-1.58547e-10
-7.12697e-11
4.04703e-17
-1.40311e-10
-6.40454e-11
3.42527e-17
-1.23802e-10
-5.75485e-11
3.17957e-17
-1.08873e-10
-5.16842e-11
2.26506e-17
-9.5397e-11
-4.63662e-11
1.45306e-17
-8.32466e-11
-4.15567e-11
9.30757e-18
-7.2317e-11
-3.71767e-11
6.18705e-18
-6.25018e-11
-3.32077e-11
2.2747e-18
-5.37074e-11
-2.96023e-11
7.36912e-20
-4.58439e-11
-2.6337e-11
-1.70926e-18
-3.88206e-11
-2.34064e-11
-2.15287e-18
-3.2559e-11
-2.07688e-11
-1.06605e-18
-2.69796e-11
-1.84195e-11
-8.52351e-19
-2.20115e-11
-1.6328e-11
-2.46427e-20
-1.75903e-11
-1.44678e-11
1.24257e-18
-1.36613e-11
-1.28024e-11
2.62884e-18
-1.01858e-11
-1.12725e-11
3.97196e-18
-7.14304e-12
-9.81138e-12
4.53558e-18
-4.53602e-12
-8.32956e-12
5.58735e-18
-2.39613e-12
-6.72032e-12
6.29204e-18
-7.81795e-13
-4.878e-12
7.39606e-18
2.35118e-13
-2.75203e-12
8.38706e-18
6.0658e-13
-4.34643e-13
8.73023e-18
4.04727e-13
1.5476e-12
9.34481e-18
1.95758e-12
9.56458e-18
-9.52351e-10
-6.06203e-10
-1.61921e-15
-9.03144e-10
-5.55307e-10
-1.35048e-15
-8.48954e-10
-5.05949e-10
-1.25516e-15
-7.92096e-10
-4.58525e-10
-1.05859e-15
-7.34486e-10
-4.14126e-10
-8.22415e-16
-6.77553e-10
-3.72892e-10
-7.37469e-16
-6.22327e-10
-3.35161e-10
-6.38942e-16
-5.69509e-10
-3.00848e-10
-5.52516e-16
-5.19538e-10
-2.69893e-10
-4.73728e-16
-4.72649e-10
-2.4209e-10
-3.71382e-16
-4.2894e-10
-2.17192e-10
-2.83312e-16
-3.8839e-10
-1.94981e-10
-1.83501e-16
-3.50916e-10
-1.75157e-10
-1.23786e-16
-3.16386e-10
-1.57487e-10
-7.4698e-17
-2.84644e-10
-1.41725e-10
-2.2773e-17
-2.55521e-10
-1.27644e-10
1.27799e-17
-2.28845e-10
-1.1504e-10
3.07775e-17
-2.04446e-10
-1.0373e-10
3.65501e-17
-1.8216e-10
-9.35552e-11
4.14109e-17
-1.61834e-10
-8.43699e-11
3.39078e-17
-1.43327e-10
-7.60556e-11
3.21173e-17
-1.26503e-10
-6.85073e-11
2.21277e-17
-1.11243e-10
-6.16263e-11
1.41526e-17
-9.7424e-11
-5.53755e-11
8.98435e-18
-8.49418e-11
-4.96591e-11
6.1406e-18
-7.36885e-11
-4.44606e-11
2.23003e-18
-6.35679e-11
-3.97228e-11
2.3082e-19
-5.44861e-11
-3.54191e-11
-1.79177e-18
-4.63462e-11
-3.15459e-11
-2.06203e-18
-3.90646e-11
-2.80505e-11
-9.02729e-19
-3.25546e-11
-2.49293e-11
-7.31967e-19
-2.6739e-11
-2.21435e-11
-7.86449e-20
-2.15472e-11
-1.96596e-11
1.20835e-18
-1.6918e-11
-1.74314e-11
2.74685e-18
-1.28086e-11
-1.53818e-11
3.99281e-18
-9.19491e-12
-1.3425e-11
4.49163e-18
-6.0787e-12
-1.14456e-11
5.4142e-18
-3.49273e-12
-9.30616e-12
6.2305e-18
-1.49928e-12
-6.87131e-12
7.35518e-18
-1.76198e-13
-4.07495e-12
8.17902e-18
4.21369e-13
-1.03203e-12
8.73315e-18
3.5789e-13
1.61128e-12
9.4493e-18
2.31567e-12
9.41502e-18
-8.97912e-10
-6.28914e-10
-5.20927e-16
-8.65883e-10
-5.87333e-10
8.73266e-17
-8.26985e-10
-5.44845e-10
1.85279e-17
-7.83247e-10
-5.02263e-10
-5.11268e-17
-7.36507e-10
-4.60865e-10
-8.52504e-17
-6.88266e-10
-4.21134e-10
-2.35091e-16
-6.39737e-10
-3.83692e-10
-2.96744e-16
-5.91855e-10
-3.48733e-10
-3.3683e-16
-5.45315e-10
-3.16435e-10
-3.344e-16
-5.00605e-10
-2.868e-10
-2.80982e-16
-4.58061e-10
-2.59739e-10
-2.28467e-16
-4.17869e-10
-2.35175e-10
-1.4944e-16
-3.80129e-10
-2.12898e-10
-9.73359e-17
-3.44859e-10
-1.92755e-10
-5.94125e-17
-3.12031e-10
-1.74553e-10
-1.36135e-17
-2.81577e-10
-1.58098e-10
1.89948e-17
-2.53405e-10
-1.43211e-10
3.45559e-17
-2.27413e-10
-1.29723e-10
3.82585e-17
-2.03487e-10
-1.17481e-10
4.2586e-17
-1.81512e-10
-1.06343e-10
3.4245e-17
-1.61378e-10
-9.61897e-11
3.25054e-17
-1.42971e-10
-8.69134e-11
2.19895e-17
-1.26189e-10
-7.8409e-11
1.41052e-17
-1.10918e-10
-7.06454e-11
9.01385e-18
-9.70637e-11
-6.35136e-11
6.09073e-18
-8.45214e-11
-5.70026e-11
2.24594e-18
-7.31968e-11
-5.10473e-11
5.67188e-19
-6.29961e-11
-4.56201e-11
-1.62361e-18
-5.38197e-11
-4.07219e-11
-1.91418e-18
-4.55815e-11
-3.62889e-11
-5.82944e-19
-3.81906e-11
-3.23201e-11
-6.71709e-19
-3.15654e-11
-2.87685e-11
-1.00626e-19
-2.56306e-11
-2.55945e-11
1.16026e-18
-2.03204e-11
-2.27414e-11
2.61737e-18
-1.55885e-11
-2.01137e-11
3.89937e-18
-1.1408e-11
-1.76055e-11
4.39718e-18
-7.77929e-12
-1.50742e-11
5.27721e-18
-4.73601e-12
-1.23493e-11
6.11992e-18
-2.34347e-12
-9.26371e-12
7.23064e-18
-6.85215e-13
-5.73304e-12
8.3386e-18
1.74812e-13
-1.89187e-12
8.60189e-18
2.87643e-13
1.49864e-12
9.18334e-18
2.60351e-12
9.33982e-18
-8.3025e-10
-6.35356e-10
-9.63416e-16
-8.13858e-10
-6.03729e-10
-5.13921e-16
-7.89371e-10
-5.69336e-10
-4.78583e-16
-7.58489e-10
-5.3315e-10
-3.31835e-16
-7.22876e-10
-4.96478e-10
-2.16702e-16
-6.84003e-10
-4.6001e-10
-2.71963e-16
-6.43145e-10
-4.24553e-10
-2.69237e-16
-6.01361e-10
-3.90519e-10
-2.89862e-16
-5.59511e-10
-3.58288e-10
-2.79272e-16
-5.18262e-10
-3.28049e-10
-2.32561e-16
-4.78129e-10
-2.99875e-10
-1.8939e-16
-4.39472e-10
-2.73834e-10
-1.20806e-16
-4.02549e-10
-2.49822e-10
-7.38857e-17
-3.6752e-10
-2.27783e-10
-4.41068e-17
-3.34479e-10
-2.07594e-10
-3.78586e-18
-3.03464e-10
-1.89112e-10
2.54397e-17
-2.74472e-10
-1.72203e-10
3.85028e-17
-2.47472e-10
-1.56723e-10
4.02497e-17
-2.2241e-10
-1.42543e-10
4.37886e-17
-1.9922e-10
-1.29531e-10
3.48094e-17
-1.77829e-10
-1.1758e-10
3.30237e-17
-1.58154e-10
-1.06587e-10
2.21329e-17
-1.40117e-10
-9.64471e-11
1.42686e-17
-1.23621e-10
-8.71411e-11
9.11836e-18
-1.08584e-10
-7.85507e-11
6.22475e-18
-9.49106e-11
-7.06753e-11
2.56909e-18
-8.25134e-11
-6.34445e-11
9.0295e-19
-7.13017e-11
-5.68321e-11
-1.45132e-18
-6.1177e-11
-5.08462e-11
-1.86614e-18
-5.20534e-11
-4.54127e-11
-3.76281e-19
-4.38381e-11
-4.05352e-11
-5.85534e-19
-3.64473e-11
-3.61592e-11
-1.11798e-19
-2.98029e-11
-3.2239e-11
1.21993e-18
-2.38358e-11
-2.87083e-11
2.58781e-18
-1.8497e-11
-2.54525e-11
3.8433e-18
-1.37572e-11
-2.23452e-11
4.2725e-18
-9.61581e-12
-1.92154e-11
5.23479e-18
-6.1068e-12
-1.58582e-11
6.09221e-18
-3.2981e-12
-1.20723e-11
7.01999e-18
-1.27909e-12
-7.7519e-12
8.32342e-18
-1.24371e-13
-3.04642e-12
8.39509e-18
1.97774e-13
1.17669e-12
9.15969e-18
2.80148e-12
9.18632e-18
-7.62472e-10
-3.14192e-16
-7.57523e-10
2.53455e-16
-7.44431e-10
-5.82423e-10
2.75785e-16
-7.24431e-10
-5.53147e-10
3.43735e-16
-6.98837e-10
-5.22068e-10
3.20194e-16
-6.68901e-10
-4.89945e-10
1.25503e-16
-6.35785e-10
-4.57668e-10
1.21745e-17
-6.00528e-10
-4.25776e-10
-9.79514e-17
-5.64027e-10
-3.94789e-10
-1.52111e-16
-5.27035e-10
-3.65041e-10
-1.47679e-16
-4.90173e-10
-3.36739e-10
-1.33508e-16
-4.53924e-10
-3.10084e-10
-8.47402e-17
-4.18669e-10
-2.85079e-10
-4.76519e-17
-3.84685e-10
-2.61766e-10
-2.66968e-17
-3.52175e-10
-2.40103e-10
6.75218e-18
-3.21276e-10
-2.20012e-10
3.19045e-17
-2.92069e-10
-2.01409e-10
4.24499e-17
-2.646e-10
-1.84192e-10
4.25069e-17
-2.38877e-10
-1.68266e-10
4.51319e-17
-2.14886e-10
-1.53521e-10
3.56843e-17
-1.92598e-10
-1.39868e-10
3.35548e-17
-1.71966e-10
-1.27218e-10
2.2637e-17
-1.52941e-10
-1.15474e-10
1.47246e-17
-1.35446e-10
-1.04634e-10
9.44522e-18
-1.19421e-10
-9.45769e-11
6.51325e-18
-1.0478e-10
-8.53151e-11
2.78454e-18
-9.14477e-11
-7.67769e-11
1.53621e-18
-7.93395e-11
-6.89406e-11
-1.15967e-18
-6.8361e-11
-6.18242e-11
-1.65732e-18
-5.84291e-11
-5.53448e-11
-4.15416e-20
-4.94517e-11
-4.95124e-11
-4.32512e-19
-4.13448e-11
-4.4266e-11
-1.17414e-19
-3.40289e-11
-3.95549e-11
1.0303e-18
-2.74331e-11
-3.53039e-11
2.47271e-18
-2.15067e-11
-3.13789e-11
3.79357e-18
-1.62187e-11
-2.7633e-11
4.17154e-18
-1.15675e-11
-2.38665e-11
5.17981e-18
-7.58719e-12
-1.98384e-11
6.13708e-18
-4.34823e-12
-1.53111e-11
6.99743e-18
-1.94621e-12
-1.01538e-11
8.03048e-18
-4.68548e-13
-4.52391e-12
8.25583e-18
9.13868e-14
6.16945e-13
8.95961e-18
2.89306e-12
9.06896e-18
-6.9458e-10
-5.85858e-10
-8.44292e-17
-6.84072e-10
-5.63655e-10
1.28482e-16
-6.67496e-10
-5.38641e-10
1.99237e-16
-6.4588e-10
-5.11561e-10
8.4444e-17
-6.2024e-10
-4.83307e-10
3.06198e-17
-5.91536e-10
-4.5448e-10
-5.77303e-17
-5.60644e-10
-4.25682e-10
-1.02929e-16
-5.28334e-10
-3.9735e-10
-1.04739e-16
-4.95283e-10
-3.69792e-10
-9.67156e-17
-4.62046e-10
-3.43322e-10
-5.74705e-17
-4.29088e-10
-3.18038e-10
-2.63798e-17
-3.96777e-10
-2.94076e-10
-1.13116e-17
-3.65404e-10
-2.71474e-10
1.65149e-17
-3.35191e-10
-2.50224e-10
3.78133e-17
-3.06299e-10
-2.303e-10
4.61122e-17
-2.78842e-10
-2.1165e-10
4.48591e-17
-2.5289e-10
-1.94217e-10
4.62521e-17
-2.28484e-10
-1.77925e-10
3.65001e-17
-2.05641e-10
-1.62711e-10
3.41624e-17
-1.84351e-10
-1.48507e-10
2.32449e-17
-1.64597e-10
-1.35228e-10
1.53264e-17
-1.46331e-10
-1.229e-10
1.01495e-17
-1.2951e-10
-1.11398e-10
6.99579e-18
-1.14068e-10
-1.00756e-10
3.24587e-18
-9.9941e-11
-9.0904e-11
2.01362e-18
-8.70548e-11
-8.18271e-11
-7.44475e-19
-7.53215e-11
-7.3557e-11
-1.24722e-18
-6.46631e-11
-6.60033e-11
2.54268e-19
-5.49905e-11
-5.91848e-11
-1.51178e-19
-4.6221e-11
-5.30352e-11
-1.20978e-19
-3.82759e-11
-4.75002e-11
1.02741e-18
-3.10835e-11
-4.24962e-11
2.43988e-18
-2.45922e-11
-3.78701e-11
3.8052e-18
-1.87702e-11
-3.3455e-11
4.0967e-18
-1.36148e-11
-2.90218e-11
5.12761e-18
-9.16052e-12
-2.42925e-11
5.93039e-18
-5.48016e-12
-1.89913e-11
6.83361e-18
-2.67617e-12
-1.29576e-11
7.83989e-18
-8.51042e-13
-6.34888e-12
8.05639e-18
-2.93261e-14
-2.04582e-13
8.87914e-18
2.86392e-12
8.97706e-18
-6.44081e-10
-5.82112e-10
2.77647e-16
-6.41094e-10
-5.66639e-10
4.83559e-16
-6.32048e-10
-5.47681e-10
5.04815e-16
-6.17708e-10
-5.25899e-10
3.33285e-16
-5.98884e-10
-5.02129e-10
2.15541e-16
-5.76395e-10
-4.76968e-10
8.16578e-17
-5.5103e-10
-4.51047e-10
-5.44799e-18
-5.23523e-10
-4.24855e-10
-3.88072e-17
-4.94548e-10
-3.98768e-10
-5.20912e-17
-4.64689e-10
-3.73182e-10
-2.75461e-17
-4.34458e-10
-3.4827e-10
-5.35116e-18
-4.04282e-10
-3.24251e-10
3.74742e-18
-3.74518e-10
-3.01236e-10
2.57561e-17
-3.45457e-10
-2.79285e-10
4.32896e-17
-3.17324e-10
-2.58433e-10
4.92438e-17
-2.90296e-10
-2.38678e-10
4.69839e-17
-2.64501e-10
-2.20012e-10
4.72416e-17
-2.40031e-10
-2.02393e-10
3.7444e-17
-2.16948e-10
-1.85794e-10
3.47175e-17
-1.95282e-10
-1.70172e-10
2.39043e-17
-1.7505e-10
-1.55461e-10
1.59527e-17
-1.5623e-10
-1.41719e-10
1.06896e-17
-1.38804e-10
-1.28824e-10
7.60463e-18
-1.22726e-10
-1.16834e-10
3.79328e-18
-1.07946e-10
-1.05684e-10
2.61022e-18
-9.44019e-11
-9.53714e-11
-3.70198e-19
-8.20153e-11
-8.59431e-11
-8.69564e-19
-7.07154e-11
-7.73034e-11
4.03241e-19
-6.04176e-11
-6.94824e-11
1.65775e-20
-5.10428e-11
-6.24099e-11
-2.01254e-19
-4.25139e-11
-5.60292e-11
1.00764e-18
-3.476e-11
-5.02499e-11
2.27751e-18
-2.77297e-11
-4.49003e-11
3.65027e-18
-2.13906e-11
-3.9794e-11
3.9112e-18
-1.57395e-11
-3.46727e-11
4.94886e-18
-1.08114e-11
-2.92206e-11
5.69468e-18
-6.68141e-12
-2.31211e-11
6.66722e-18
-3.45971e-12
-1.61792e-11
7.67499e-18
-1.26603e-12
-8.54239e-12
8.01288e-18
-1.60226e-13
-1.3102e-12
8.6402e-18
2.70388e-12
8.86191e-18
-5.93844e-10
-5.72682e-10
6.93421e-17
-5.96993e-10
-5.63488e-10
3.33255e-16
-5.9428e-10
-5.5039e-10
3.94407e-16
-5.86244e-10
-5.33933e-10
2.79068e-16
-5.73508e-10
-5.14862e-10
2.13882e-16
-5.56742e-10
-4.93733e-10
1.00805e-16
-5.36629e-10
-4.7116e-10
2.55541e-17
-5.13833e-10
-4.47649e-10
-8.74694e-18
-4.88994e-10
-4.23608e-10
-2.58977e-17
-4.62688e-10
-3.99488e-10
-7.26612e-18
-4.35443e-10
-3.75516e-10
1.01709e-17
-4.07716e-10
-3.51975e-10
1.56565e-17
-3.7991e-10
-3.29041e-10
3.31653e-17
-3.52362e-10
-3.06833e-10
4.7534e-17
-3.2535e-10
-2.85444e-10
5.16092e-17
-2.99103e-10
-2.64926e-10
4.86598e-17
-2.73799e-10
-2.45315e-10
4.80076e-17
-2.49577e-10
-2.26614e-10
3.82221e-17
-2.26541e-10
-2.08829e-10
3.50575e-17
-2.0476e-10
-1.91952e-10
2.45453e-17
-1.84283e-10
-1.75939e-10
1.68008e-17
-1.65118e-10
-1.60882e-10
1.14544e-17
-1.47273e-10
-1.46669e-10
8.19354e-18
-1.30719e-10
-1.33387e-10
4.31072e-18
-1.15425e-10
-1.20978e-10
3.10016e-18
-1.01344e-10
-1.09453e-10
5.66997e-21
-8.84064e-11
-9.88798e-11
-6.00528e-19
-7.65516e-11
-8.91584e-11
7.9488e-19
-6.5701e-11
-8.03328e-11
1.22422e-19
-5.57802e-11
-7.23304e-11
-9.3507e-20
-4.67156e-11
-6.5094e-11
9.60126e-19
-3.84379e-11
-5.85273e-11
2.24092e-18
-3.0897e-11
-5.24413e-11
3.5381e-18
-2.40604e-11
-4.66305e-11
3.77287e-18
-1.79247e-11
-4.08082e-11
4.724e-18
-1.25255e-11
-3.46197e-11
5.49177e-18
-7.94065e-12
-2.77059e-11
6.48197e-18
-4.28859e-12
-1.98311e-11
7.47833e-18
-1.70858e-12
-1.11222e-11
7.68619e-18
-3.01173e-13
-2.71742e-12
8.52636e-18
2.40289e-12
8.59369e-18
-5.45831e-10
-5.59266e-10
2.672e-16
-5.53604e-10
-5.55711e-10
4.79166e-16
-5.55927e-10
-5.4806e-10
5.14171e-16
-5.53129e-10
-5.36728e-10
3.83656e-16
-5.45643e-10
-5.22346e-10
3.01824e-16
-5.3398e-10
-5.05394e-10
1.74986e-16
-5.18697e-10
-4.86443e-10
8.23712e-17
-5.00366e-10
-4.65978e-10
3.27695e-17
-4.79563e-10
-4.44411e-10
2.97263e-18
-4.56834e-10
-4.22219e-10
1.15812e-17
-4.32692e-10
-3.99658e-10
2.34351e-17
-4.07603e-10
-3.77062e-10
2.55939e-17
-3.81991e-10
-3.54653e-10
3.91959e-17
-3.56223e-10
-3.32601e-10
5.07325e-17
-3.30615e-10
-3.11052e-10
5.33887e-17
-3.05436e-10
-2.90105e-10
4.98174e-17
-2.80905e-10
-2.69846e-10
4.83996e-17
-2.57202e-10
-2.50316e-10
3.88568e-17
-2.34468e-10
-2.31563e-10
3.53842e-17
-2.12808e-10
-2.13611e-10
2.5011e-17
-1.92303e-10
-1.96445e-10
1.75025e-17
-1.72988e-10
-1.80195e-10
1.22195e-17
-1.54897e-10
-1.64761e-10
8.78685e-18
-1.38023e-10
-1.50261e-10
5.06579e-18
-1.22352e-10
-1.36649e-10
3.77206e-18
-1.07852e-10
-1.23954e-10
4.82688e-19
-9.44656e-11
-1.12265e-10
-2.66821e-19
-8.21429e-11
-1.01481e-10
1.1263e-18
-7.08127e-11
-9.16628e-11
3.34153e-19
-6.04071e-11
-8.27359e-11
-4.09235e-20
-5.08566e-11
-7.46446e-11
9.38047e-19
-4.2095e-11
-6.72888e-11
2.1308e-18
-3.40738e-11
-6.04624e-11
3.62116e-18
-2.67615e-11
-5.39428e-11
3.64796e-18
-2.01549e-11
-4.74147e-11
4.57523e-18
-1.42899e-11
-4.04846e-11
5.43433e-18
-9.24765e-12
-3.2748e-11
6.29676e-18
-5.15556e-12
-2.3923e-11
7.4747e-18
-2.17446e-12
-1.41032e-11
7.62295e-18
-4.50238e-13
-4.44147e-12
8.32502e-18
1.95283e-12
8.41443e-18
-5.00202e-10
-5.42913e-10
1.09411e-16
-5.11539e-10
-5.44372e-10
3.68806e-16
-5.17888e-10
-5.41706e-10
4.29217e-16
-5.19415e-10
-5.35199e-10
3.39158e-16
-5.16396e-10
-5.25362e-10
2.89843e-16
-5.09202e-10
-5.12588e-10
1.81584e-16
-4.98266e-10
-4.97378e-10
9.862e-17
-4.84062e-10
-4.8018e-10
4.96019e-17
-4.67093e-10
-4.61381e-10
1.85276e-17
-4.4785e-10
-4.41462e-10
2.3163e-17
-4.26819e-10
-4.20691e-10
3.1811e-17
-4.04451e-10
-3.99427e-10
3.22957e-17
-3.81174e-10
-3.77928e-10
4.30016e-17
-3.57369e-10
-3.56405e-10
5.24572e-17
-3.33376e-10
-3.35045e-10
5.39245e-17
-3.0949e-10
-3.13991e-10
5.03248e-17
-2.85963e-10
-2.93372e-10
4.83441e-17
-2.63007e-10
-2.7327e-10
3.93856e-17
-2.40798e-10
-2.53772e-10
3.56097e-17
-2.19468e-10
-2.34939e-10
2.57174e-17
-1.99131e-10
-2.16784e-10
1.83647e-17
-1.79848e-10
-1.99477e-10
1.29519e-17
-1.61675e-10
-1.82934e-10
9.4307e-18
-1.44627e-10
-1.67308e-10
5.66815e-18
-1.2871e-10
-1.52567e-10
4.16756e-18
-1.13905e-10
-1.38759e-10
1.03547e-18
-1.0017e-10
-1.25999e-10
1.71809e-19
-8.74659e-11
-1.14186e-10
1.53513e-18
-7.57295e-11
-1.03399e-10
5.02357e-19
-6.49006e-11
-9.35646e-11
-9.66352e-20
-5.49152e-11
-8.46301e-11
8.84707e-19
-4.57108e-11
-7.64929e-11
2.13929e-18
-3.72417e-11
-6.89315e-11
3.4966e-18
-2.94775e-11
-6.17069e-11
3.35575e-18
-2.24156e-11
-5.44765e-11
4.44342e-18
-1.60927e-11
-4.68073e-11
5.25445e-18
-1.05932e-11
-3.82474e-11
6.18661e-18
-6.0543e-12
-2.84619e-11
7.30108e-18
-2.66012e-12
-1.74972e-11
7.42203e-18
-6.0621e-13
-6.49519e-12
8.00374e-18
1.34679e-12
8.1582e-18
-4.57736e-10
-5.24691e-10
2.05329e-16
-4.71601e-10
-5.30504e-10
4.30663e-16
-4.81008e-10
-5.32293e-10
4.88623e-16
-4.85985e-10
-5.30219e-10
3.87944e-16
-4.86669e-10
-5.24675e-10
3.38957e-16
-4.83299e-10
-5.15955e-10
2.18585e-16
-4.76194e-10
-5.04482e-10
1.27867e-16
-4.65726e-10
-4.90646e-10
7.03455e-17
-4.52313e-10
-4.74794e-10
3.29273e-17
-4.36387e-10
-4.57388e-10
3.19022e-17
-4.18388e-10
-4.3869e-10
3.7028e-17
-3.98742e-10
-4.19071e-10
3.62737e-17
-3.77862e-10
-3.98807e-10
4.47295e-17
-3.5613e-10
-3.78136e-10
5.26776e-17
-3.33896e-10
-3.57279e-10
5.36543e-17
-3.11473e-10
-3.36415e-10
5.03103e-17
-2.89133e-10
-3.15711e-10
4.7776e-17
-2.67113e-10
-2.95288e-10
3.94869e-17
-2.45615e-10
-2.7527e-10
3.55282e-17
-2.24801e-10
-2.55753e-10
2.61695e-17
-2.04806e-10
-2.36779e-10
1.90805e-17
-1.85717e-10
-2.18564e-10
1.36457e-17
-1.67614e-10
-2.01038e-10
9.96012e-18
-1.5053e-10
-1.84391e-10
6.27917e-18
-1.3449e-10
-1.68608e-10
4.75195e-18
-1.19491e-10
-1.53758e-10
1.64106e-18
-1.05504e-10
-1.39985e-10
6.96001e-19
-9.25023e-11
-1.27189e-10
1.78641e-18
-8.04322e-11
-1.15469e-10
7.04255e-19
-6.92415e-11
-1.04755e-10
-1.19736e-19
-5.88726e-11
-9.49991e-11
9.45288e-19
-4.92676e-11
-8.60977e-11
2.15752e-18
-4.0384e-11
-7.78151e-11
3.42961e-18
-3.21934e-11
-6.98975e-11
3.07955e-18
-2.46938e-11
-6.1976e-11
4.26771e-18
-1.79232e-11
-5.35778e-11
4.95157e-18
-1.19692e-11
-4.42012e-11
6.02568e-18
-6.97928e-12
-3.34517e-11
7.07203e-18
-3.16262e-12
-2.13138e-11
7.17706e-18
-7.68194e-13
-8.88945e-12
7.7539e-18
5.78756e-13
7.82162e-18
-4.18276e-10
-5.05264e-10
1.60658e-16
-4.33944e-10
-5.14833e-10
3.7782e-16
-4.45666e-10
-5.20566e-10
4.29692e-16
-4.53369e-10
-5.22514e-10
3.58079e-16
-4.57085e-10
-5.20956e-10
3.28345e-16
-4.56945e-10
-5.16093e-10
2.19055e-16
-4.53163e-10
-5.08263e-10
1.34273e-16
-4.46018e-10
-4.97788e-10
7.65173e-17
-4.35848e-10
-4.84965e-10
3.89406e-17
-4.23016e-10
-4.7022e-10
3.57703e-17
-4.07911e-10
-4.53796e-10
3.8745e-17
-3.90921e-10
-4.36058e-10
3.76173e-17
-3.72436e-10
-4.17291e-10
4.45755e-17
-3.52827e-10
-3.97745e-10
5.15516e-17
-3.32441e-10
-3.77664e-10
5.22897e-17
-3.11598e-10
-3.57258e-10
4.94936e-17
-2.90583e-10
-3.36726e-10
4.6847e-17
-2.6965e-10
-3.16219e-10
3.93522e-17
-2.49021e-10
-2.95899e-10
3.51992e-17
-2.28877e-10
-2.75895e-10
2.64694e-17
-2.09378e-10
-2.5628e-10
1.96725e-17
-1.9063e-10
-2.3731e-10
1.43264e-17
-1.72733e-10
-2.18935e-10
1.06119e-17
-1.5574e-10
-2.01383e-10
6.79641e-18
-1.39692e-10
-1.84656e-10
5.28366e-18
-1.24603e-10
-1.68847e-10
2.09341e-18
-1.10458e-10
-1.5413e-10
1.07441e-18
-9.7239e-11
-1.40407e-10
2.05888e-18
-8.49058e-11
-1.27802e-10
7.89592e-19
-7.34137e-11
-1.16247e-10
-7.096e-20
-6.27125e-11
-1.05701e-10
9.45479e-19
-5.27494e-11
-9.60606e-11
2.11533e-18
-4.34857e-11
-8.70787e-11
3.33836e-18
-3.48954e-11
-7.84878e-11
3.00018e-18
-2.69776e-11
-6.98936e-11
4.07908e-18
-1.97716e-11
-6.07837e-11
4.84178e-18
-1.33683e-11
-5.06044e-11
5.78576e-18
-7.9258e-12
-3.8894e-11
7.04047e-18
-3.67961e-12
-2.55598e-11
6.98866e-18
-9.35566e-13
-1.16333e-11
7.5783e-18
-3.56652e-13
7.59049e-18
-3.82034e-10
-4.85269e-10
2.62441e-16
-3.98841e-10
-4.98023e-10
4.26472e-16
-4.1221e-10
-5.07192e-10
4.65702e-16
-4.21991e-10
-5.1273e-10
3.71513e-16
-4.28128e-10
-5.14815e-10
3.43154e-16
-4.30662e-10
-5.13557e-10
2.25943e-16
-4.29716e-10
-5.09208e-10
1.39871e-16
-4.25484e-10
-5.02019e-10
7.89683e-17
-4.18223e-10
-4.92226e-10
3.99884e-17
-4.08231e-10
-4.80213e-10
3.49192e-17
-3.9584e-10
-4.66188e-10
3.65785e-17
-3.81394e-10
-4.50501e-10
3.60218e-17
-3.65253e-10
-4.33431e-10
4.21618e-17
-3.47766e-10
-4.15232e-10
4.91178e-17
-3.29269e-10
-3.96161e-10
5.00122e-17
-3.10079e-10
-3.76448e-10
4.80162e-17
-2.90488e-10
-3.56317e-10
4.53995e-17
-2.70757e-10
-3.35948e-10
3.87255e-17
-2.51122e-10
-3.15534e-10
3.47699e-17
-2.3178e-10
-2.95236e-10
2.66436e-17
-2.12907e-10
-2.75154e-10
2.00219e-17
-1.94628e-10
-2.55588e-10
1.49259e-17
-1.7706e-10
-2.36503e-10
1.1153e-17
-1.60274e-10
-2.18169e-10
7.31163e-18
-1.44325e-10
-2.00605e-10
5.7806e-18
-1.29243e-10
-1.8393e-10
2.44277e-18
-1.15025e-10
-1.68347e-10
1.57697e-18
-1.01667e-10
-1.53765e-10
2.30767e-18
-8.9139e-11
-1.4033e-10
1.01626e-18
-7.74046e-11
-1.27981e-10
1.63644e-20
-6.64215e-11
-1.16684e-10
8.1371e-19
-5.61425e-11
-1.06339e-10
2.01391e-18
-4.65336e-11
-9.66876e-11
3.20225e-18
-3.75713e-11
-8.745e-11
2.86854e-18
-2.92563e-11
-7.82084e-11
3.7508e-18
-2.16291e-11
-6.84109e-11
4.72361e-18
-1.4784e-11
-5.74494e-11
5.55637e-18
-8.88984e-12
-4.4788e-11
6.81581e-18
-4.20927e-12
-3.02403e-11
6.72639e-18
-1.10796e-12
-1.47345e-11
7.34103e-18
-1.46446e-12
7.41766e-18
-3.48748e-10
-4.65099e-10
1.88798e-16
-3.66231e-10
-4.80538e-10
3.81748e-16
-3.8074e-10
-4.92679e-10
4.38467e-16
-3.92074e-10
-5.01393e-10
3.58026e-16
-4.00115e-10
-5.06771e-10
3.36913e-16
-4.04833e-10
-5.08838e-10
2.23007e-16
-4.06274e-10
-5.07765e-10
1.38489e-16
-4.04559e-10
-5.03732e-10
7.63192e-17
-3.99875e-10
-4.9691e-10
3.74266e-17
-3.92454e-10
-4.87634e-10
3.14553e-17
-3.82571e-10
-4.76071e-10
3.23116e-17
-3.70526e-10
-4.62545e-10
3.25546e-17
-3.56639e-10
-4.47317e-10
3.83188e-17
-3.41234e-10
-4.30637e-10
4.54218e-17
-3.24628e-10
-4.12767e-10
4.6806e-17
-3.07129e-10
-3.93947e-10
4.58211e-17
-2.89023e-10
-3.74421e-10
4.34992e-17
-2.70578e-10