/*--------------------------------*- C++ -*----------------------------------*\
| =========                 |                                                 |
| \\      /  F ield         | OpenFOAM: The Open Source CFD Toolbox           |
|  \\    /   O peration     | Version:  v2012                                 |
|   \\  /    A nd           | Website:  www.openfoam.com                      |
|    \\/     M anipulation  |                                                 |
\*---------------------------------------------------------------------------*/
FoamFile
{
    version     2.0;
    format      ascii;
    class       surfaceScalarField;
    location    "0.65";
    object      phi;
}
// * * * * * * * * * * * * * * * * * * * * * * * * * * * * * * * * * * * * * //

dimensions      [0 3 -1 0 0 0 0];
oriented        oriented;


internalField   nonuniform List<scalar> 
8134
(
-2.16738e-10
-5.05096e-11
5.34138e-15
-1.78332e-10
-3.83546e-11
6.09702e-15
-1.48588e-10
-2.9706e-11
4.67533e-15
-1.25127e-10
-2.34465e-11
1.88746e-15
-1.06342e-10
-1.87765e-11
1.0569e-15
-9.10704e-11
-1.52714e-11
1.5924e-16
-7.85081e-11
-1.25621e-11
4.25825e-17
-6.80559e-11
-1.04531e-11
-1.04212e-16
-5.92783e-11
-8.77816e-12
-7.29125e-17
-5.1841e-11
-7.43729e-12
-2.29908e-17
-4.54913e-11
-6.34906e-12
7.7464e-17
-4.00302e-11
-5.45971e-12
1.54862e-16
-3.53032e-11
-4.72507e-12
2.20688e-16
-3.11869e-11
-4.11404e-12
2.41756e-16
-2.75828e-11
-3.60169e-12
2.56276e-16
-2.4412e-11
-3.16881e-12
2.31951e-16
-2.16097e-11
-2.80039e-12
2.11617e-16
-1.91237e-11
-2.4845e-12
1.69427e-16
-1.69107e-11
-2.21176e-12
1.39144e-16
-1.49352e-11
-1.97452e-12
9.99038e-17
-1.31678e-11
-1.76682e-12
7.25611e-17
-1.15835e-11
-1.5838e-12
4.3517e-17
-1.01619e-11
-1.42139e-12
2.52372e-17
-8.88451e-12
-1.27729e-12
8.18148e-18
-7.73623e-12
-1.14831e-12
-5.65878e-19
-6.70307e-12
-1.03322e-12
-8.36291e-18
-5.77307e-12
-9.30115e-13
-1.15031e-17
-4.93536e-12
-8.37905e-13
-1.53838e-17
-4.17939e-12
-7.56124e-13
-1.74041e-17
-3.49637e-12
-6.8325e-13
-1.8983e-17
-2.87768e-12
-6.18883e-13
-1.76766e-17
-2.31609e-12
-5.61808e-13
-1.85823e-17
-1.80549e-12
-5.10859e-13
-1.96899e-17
-1.3413e-12
-4.64465e-13
-2.12279e-17
-9.21555e-13
-4.20048e-13
-2.17036e-17
-5.47297e-13
-3.74581e-13
-2.22695e-17
-2.23947e-13
-3.2369e-13
-2.25133e-17
3.7934e-14
-2.62249e-13
-2.30149e-17
2.21308e-13
-1.83764e-13
-2.3137e-17
3.06438e-13
-8.55402e-14
-2.29188e-17
2.74038e-13
3.19879e-14
-2.16909e-17
1.41639e-13
1.32005e-13
-1.94749e-17
1.41298e-13
-1.68158e-17
-5.63583e-10
-1.60004e-10
3.01862e-15
-4.75561e-10
-1.26337e-10
4.61294e-15
-4.03965e-10
-1.01268e-10
4.04884e-15
-3.45481e-10
-8.19178e-11
1.72485e-15
-2.97214e-10
-6.70347e-11
1.08193e-15
-2.57104e-10
-5.53801e-11
1.94053e-16
-2.23483e-10
-4.61825e-11
6.67853e-17
-1.95099e-10
-3.8838e-11
-1.08432e-16
-1.70961e-10
-3.29171e-11
-8.438e-17
-1.50297e-10
-2.81014e-11
-3.51854e-17
-1.32497e-10
-2.41484e-11
7.07821e-17
-1.17073e-10
-2.08827e-11
1.55978e-16
-1.03635e-10
-1.81613e-11
2.30483e-16
-9.18663e-11
-1.58797e-11
2.542e-16
-8.15119e-11
-1.39535e-11
2.73277e-16
-7.23623e-11
-1.23163e-11
2.49415e-16
-6.42451e-11
-1.09155e-11
2.2989e-16
-5.70193e-11
-9.70892e-12
1.85125e-16
-5.05666e-11
-8.66304e-12
1.5316e-16
-4.47897e-11
-7.7502e-12
1.10536e-16
-3.96071e-11
-6.94871e-12
8.1091e-17
-3.49496e-11
-6.24076e-12
4.9085e-17
-3.07598e-11
-5.61111e-12
2.89895e-17
-2.69853e-11
-5.05153e-12
1.00422e-17
-2.3584e-11
-4.54973e-12
3.40213e-19
-2.05159e-11
-4.10132e-12
-8.36329e-18
-1.77472e-11
-3.69894e-12
-1.20098e-17
-1.52469e-11
-3.3384e-12
-1.64068e-17
-1.29851e-11
-3.01805e-12
-1.85135e-17
-1.09368e-11
-2.73182e-12
-2.0675e-17
-9.0776e-12
-2.47829e-12
-1.92522e-17
-7.38696e-12
-2.25267e-12
-2.05488e-17
-5.84761e-12
-2.05051e-12
-2.19425e-17
-4.4466e-12
-1.86577e-12
-2.38645e-17
-3.17834e-12
-1.68865e-12
-2.45275e-17
-2.0456e-12
-1.50767e-12
-2.5304e-17
-1.06283e-12
-1.30683e-12
-2.55199e-17
-2.58633e-13
-1.06685e-12
-2.62696e-17
3.22966e-13
-7.65789e-13
-2.67874e-17
6.30075e-13
-3.93096e-13
-2.65565e-17
6.20045e-13
4.15726e-14
-2.5285e-17
3.3377e-13
4.17852e-13
-2.29425e-17
4.74704e-13
-1.98522e-17
-7.88852e-10
-2.8052e-10
4.22596e-15
-6.84782e-10
-2.30364e-10
5.06762e-15
-5.95298e-10
-1.90722e-10
3.63667e-15
-5.1871e-10
-1.58496e-10
1.38912e-15
-4.5311e-10
-1.32626e-10
8.77773e-16
-3.96905e-10
-1.11586e-10
1.3305e-16
-3.48611e-10
-9.44755e-11
7.04825e-17
-3.06999e-10
-8.04501e-11
-8.95868e-17
-2.71012e-10
-6.89055e-11
-6.75795e-17
-2.39767e-10
-5.93455e-11
-2.65743e-17
-2.12533e-10
-5.13816e-11
6.14392e-17
-1.88696e-10
-4.47187e-11
1.3984e-16
-1.6775e-10
-3.91063e-11
2.11789e-16
-1.4927e-10
-3.43568e-11
2.32915e-16
-1.32906e-10
-3.0315e-11
2.56986e-16
-1.18365e-10
-2.6855e-11
2.37667e-16
-1.05402e-10
-2.38766e-11
2.2175e-16
-9.38125e-11
-2.12973e-11
1.79608e-16
-8.34232e-11
-1.90509e-11
1.50156e-16
-7.40898e-11
-1.70823e-11
1.08081e-16
-6.56902e-11
-1.53476e-11
8.01331e-17
-5.81195e-11
-1.38107e-11
4.85976e-17
-5.12907e-11
-1.244e-11
2.80825e-17
-4.51228e-11
-1.12191e-11
9.69854e-18
-3.95509e-11
-1.01218e-11
4.20347e-19
-3.45126e-11
-9.13951e-12
-8.36631e-18
-2.99553e-11
-8.25637e-12
-1.20573e-17
-2.58304e-11
-7.46358e-12
-1.66292e-17
-2.20907e-11
-6.75786e-12
-1.86287e-17
-1.86969e-11
-6.12587e-12
-2.08005e-17
-1.56106e-11
-5.56474e-12
-1.94168e-17
-1.27995e-11
-5.06403e-12
-2.09364e-17
-1.02362e-11
-4.6141e-12
-2.2485e-17
-7.90033e-12
-4.20193e-12
-2.41844e-17
-5.78301e-12
-3.80631e-12
-2.47566e-17
-3.88834e-12
-3.4027e-12
-2.55981e-17
-2.23822e-12
-2.95733e-12
-2.57835e-17
-8.76184e-13
-2.42929e-12
-2.62941e-17
1.32099e-13
-1.7745e-12
-2.671e-17
7.09559e-13
-9.71008e-13
-2.66622e-17
7.96953e-13
-4.6272e-14
-2.54707e-17
4.50427e-13
7.63945e-13
-2.29057e-17
9.24763e-13
-1.98085e-17
-9.23301e-10
-3.93338e-10
-1.37179e-15
-8.20322e-10
-3.3333e-10
1.36722e-15
-7.27672e-10
-2.83355e-10
1.91742e-15
-6.45165e-10
-2.40998e-10
9.3426e-16
-5.72094e-10
-2.05689e-10
8.45662e-16
-5.07644e-10
-1.76034e-10
1.98316e-16
-4.50876e-10
-1.51243e-10
1.20624e-16
-4.00901e-10
-1.30426e-10
-9.21205e-17
-3.56872e-10
-1.12934e-10
-9.16483e-17
-3.18031e-10
-9.81865e-11
-6.48503e-17
-2.83705e-10
-8.57077e-11
2.0014e-17
-2.53299e-10
-7.51248e-11
9.89907e-17
-2.263e-10
-6.61035e-11
1.7446e-16
-2.02265e-10
-5.83892e-11
1.99234e-16
-1.80814e-10
-5.17638e-11
2.30384e-16
-1.61621e-10
-4.60462e-11
2.18597e-16
-1.44407e-10
-4.10889e-11
2.08268e-16
-1.28934e-10
-3.67688e-11
1.70132e-16
-1.14998e-10
-3.29854e-11
1.44793e-16
-1.02425e-10
-2.96535e-11
1.04205e-16
-9.10675e-11
-2.67049e-11
7.90212e-17
-8.07948e-11
-2.40826e-11
4.77416e-17
-7.14989e-11
-2.1736e-11
2.79934e-17
-6.30775e-11
-1.964e-11
1.01413e-17
-5.54482e-11
-1.77513e-11
1.37505e-18
-4.85311e-11
-1.60565e-11
-7.54008e-18
-4.2258e-11
-1.45295e-11
-1.11114e-17
-3.65661e-11
-1.31559e-11
-1.60875e-17
-3.13933e-11
-1.19306e-11
-1.83465e-17
-2.66886e-11
-1.08309e-11
-2.03899e-17
-2.24013e-11
-9.85223e-12
-1.91692e-17
-1.84888e-11
-8.9767e-12
-2.08568e-17
-1.49153e-11
-8.18798e-12
-2.23829e-17
-1.16536e-11
-7.46389e-12
-2.42929e-17
-8.692e-12
-6.76823e-12
-2.47604e-17
-6.0356e-12
-6.05946e-12
-2.55712e-17
-3.71233e-12
-5.28096e-12
-2.58477e-17
-1.7779e-12
-4.36413e-12
-2.65235e-17
-3.15399e-13
-3.23743e-12
-2.68526e-17
5.78165e-13
-1.86502e-12
-2.66262e-17
8.30046e-13
-2.98604e-13
-2.5306e-17
5.04285e-13
1.08927e-12
-2.303e-17
1.42868e-12
-1.98632e-17
-9.71478e-10
-4.80758e-10
1.39016e-15
-8.85243e-10
-4.19547e-10
1.9725e-15
-8.02727e-10
-3.65857e-10
1.66583e-15
-7.25349e-10
-3.1837e-10
8.90409e-16
-6.53839e-10
-2.7719e-10
8.76023e-16
-5.88456e-10
-2.41415e-10
2.93107e-16
-5.29099e-10
-2.10598e-10
2.12432e-16
-4.75485e-10
-1.8404e-10
-2.67557e-17
-4.27206e-10
-1.61214e-10
-5.09061e-17
-3.83806e-10
-1.41585e-10
-5.40873e-17
-3.44827e-10
-1.24688e-10
6.05849e-18
-3.09811e-10
-1.10141e-10
7.01507e-17
-2.78339e-10
-9.75746e-11
1.39093e-16
-2.50022e-10
-8.67034e-11
1.63727e-16
-2.24514e-10
-7.72698e-11
1.99976e-16
-2.01505e-10
-6.90538e-11
1.96014e-16
-1.8072e-10
-6.18723e-11
1.91852e-16
-1.61919e-10
-5.55685e-11
1.59079e-16
-1.44891e-10
-5.00125e-11
1.38306e-16
-1.29451e-10
-4.50914e-11
1.00053e-16
-1.15441e-10
-4.07146e-11
7.76567e-17
-1.02718e-10
-3.68048e-11
4.72177e-17
-9.11617e-11
-3.32923e-11
2.84461e-17
-8.06568e-11
-3.01442e-11
1.12212e-17
-7.11096e-11
-2.72987e-11
2.70742e-18
-6.24275e-11
-2.47385e-11
-6.16234e-18
-5.45312e-11
-2.24259e-11
-9.82893e-18
-4.73468e-11
-2.03406e-11
-1.49913e-17
-4.08008e-11
-1.84765e-11
-1.72867e-17
-3.48326e-11
-1.67995e-11
-1.94482e-17
-2.93814e-11
-1.53036e-11
-1.84642e-17
-2.43962e-11
-1.3962e-11
-2.05622e-17
-1.98339e-11
-1.27506e-11
-2.22681e-17
-1.56618e-11
-1.16362e-11
-2.40774e-17
-1.18657e-11
-1.05647e-11
-2.46188e-17
-8.4513e-12
-9.47426e-12
-2.55506e-17
-5.45137e-12
-8.28124e-12
-2.56887e-17
-2.93149e-12
-6.88442e-12
-2.65382e-17
-9.88845e-13
-5.1805e-12
-2.66153e-17
2.63335e-13
-3.11766e-12
-2.65751e-17
7.40114e-13
-7.75835e-13
-2.53517e-17
5.06259e-13
1.32269e-12
-2.29598e-17
1.93457e-12
-1.97948e-17
-9.74456e-10
-5.45184e-10
-3.7744e-15
-9.06292e-10
-4.87719e-10
-1.29081e-15
-8.37332e-10
-4.34816e-10
-3.02717e-17
-7.69555e-10
-3.86146e-10
2.51512e-16
-7.04369e-10
-3.42369e-10
6.21947e-16
-6.42666e-10
-3.03117e-10
2.08859e-16
-5.84937e-10
-2.68325e-10
1.51633e-16
-5.31401e-10
-2.37578e-10
-9.84066e-17
-4.82067e-10
-2.10548e-10
-1.21023e-16
-4.36816e-10
-1.86836e-10
-1.26112e-16
-3.95448e-10
-1.66056e-10
-6.21227e-17
-3.57706e-10
-1.47883e-10
8.95084e-18
-3.2332e-10
-1.3196e-10
8.58973e-17
-2.9201e-10
-1.18011e-10
1.18981e-16
-2.63508e-10
-1.0577e-10
1.64458e-16
-2.3756e-10
-9.50006e-11
1.70451e-16
-2.13928e-10
-8.55024e-11
1.73646e-16
-1.92399e-10
-7.70976e-11
1.46974e-16
-1.72773e-10
-6.96365e-11
1.31138e-16
-1.54878e-10
-6.29854e-11
9.60362e-17
-1.38555e-10
-5.70362e-11
7.64515e-17
-1.23664e-10
-5.16947e-11
4.7292e-17
-1.10083e-10
-4.68744e-11
2.95215e-17
-9.76888e-11
-4.25373e-11
1.26472e-17
-8.63847e-11
-3.8603e-11
4.54782e-18
-7.60705e-11
-3.50525e-11
-4.425e-18
-6.66603e-11
-3.18361e-11
-8.09503e-18
-5.80732e-11
-2.89282e-11
-1.35906e-17
-5.02269e-11
-2.63227e-11
-1.63743e-17
-4.3054e-11
-2.39727e-11
-1.83484e-17
-3.64861e-11
-2.18716e-11
-1.77977e-17
-3.04655e-11
-1.99828e-11
-2.02844e-17
-2.49434e-11
-1.82731e-11
-2.19004e-17
-1.98823e-11
-1.66976e-11
-2.39126e-17
-1.5266e-11
-1.51813e-11
-2.4288e-17
-1.11008e-11
-1.36399e-11
-2.53397e-17
-7.42324e-12
-1.19591e-11
-2.56319e-17
-4.30686e-12
-1.00012e-11
-2.62235e-17
-1.86031e-12
-7.62747e-12
-2.64143e-17
-2.10532e-13
-4.76789e-12
-2.63656e-17
5.45264e-13
-1.53208e-12
-2.50118e-17
4.6535e-13
1.40217e-12
-2.26535e-17
2.39955e-12
-1.98046e-17
-9.37533e-10
-5.84854e-10
-1.6043e-15
-8.90158e-10
-5.35092e-10
8.29993e-18
-8.38028e-10
-4.86942e-10
1.78987e-16
-7.83391e-10
-4.40782e-10
2.88945e-16
-7.28091e-10
-3.97662e-10
5.72222e-16
-6.73505e-10
-3.57703e-10
2.01702e-16
-6.20607e-10
-3.21221e-10
1.59716e-16
-5.70063e-10
-2.88123e-10
-8.80902e-17
-5.22274e-10
-2.58337e-10
-1.16952e-16
-4.77452e-10
-2.31658e-10
-1.3857e-16
-4.35674e-10
-2.07836e-10
-9.20582e-17
-3.96904e-10
-1.86653e-10
-2.97829e-17
-3.61052e-10
-1.67813e-10
4.38526e-17
-3.27974e-10
-1.51086e-10
7.92587e-17
-2.97513e-10
-1.36229e-10
1.302e-16
-2.69496e-10
-1.23016e-10
1.44735e-16
-2.43749e-10
-1.11248e-10
1.54957e-16
-2.20104e-10
-1.00743e-10
1.34691e-16
-1.98396e-10
-9.13429e-11
1.23787e-16
-1.78476e-10
-8.29041e-11
9.21798e-17
-1.60203e-10
-7.53079e-11
7.54557e-17
-1.43448e-10
-6.84492e-11
4.76581e-17
-1.28094e-10
-6.22281e-11
3.09258e-17
-1.14024e-10
-5.66066e-11
1.4759e-17
-1.01141e-10
-5.14866e-11
6.86881e-18
-8.9343e-11
-4.68501e-11
-2.35379e-18
-7.85424e-11
-4.26367e-11
-6.10122e-18
-6.86545e-11
-3.88165e-11
-1.20101e-17
-5.95921e-11
-3.53848e-11
-1.50199e-17
-5.12836e-11
-3.22816e-11
-1.72228e-17
-4.36549e-11
-2.95004e-11
-1.69462e-17
-3.66439e-11
-2.69939e-11
-1.97227e-17
-3.01972e-11
-2.47202e-11
-2.1428e-17
-2.42739e-11
-2.26211e-11
-2.3459e-17
-1.88563e-11
-2.05992e-11
-2.39433e-17
-1.3951e-11
-1.85456e-11
-2.495e-17
-9.59767e-12
-1.63128e-11
-2.53559e-17
-5.87606e-12
-1.37232e-11
-2.59648e-17
-2.90441e-12
-1.05995e-11
-2.61034e-17
-8.21755e-13
-6.85099e-12
-2.62087e-17
2.61249e-13
-2.61553e-12
-2.47798e-17
3.8908e-13
1.27391e-12
-2.26591e-17
2.78827e-12
-1.97859e-17
-8.86259e-10
-6.06444e-10
-3.87151e-15
-8.55676e-10
-5.65686e-10
-1.67035e-15
-8.18475e-10
-5.24151e-10
-1.08328e-15
-7.76632e-10
-4.82631e-10
-4.61136e-16
-7.31926e-10
-4.42365e-10
1.0582e-16
-6.85812e-10
-4.03818e-10
-5.62955e-17
-6.3945e-10
-3.67583e-10
-1.13083e-17
-5.93732e-10
-3.33842e-10
-2.08694e-16
-5.49315e-10
-3.02756e-10
-2.10629e-16
-5.06655e-10
-2.74318e-10
-2.18444e-16
-4.66058e-10
-2.48435e-10
-1.62492e-16
-4.27691e-10
-2.25021e-10
-8.98636e-17
-3.91636e-10
-2.0387e-10
-7.9993e-18
-3.57897e-10
-1.84824e-10
3.60967e-17
-3.26434e-10
-1.6769e-10
9.5205e-17
-2.97173e-10
-1.52276e-10
1.19157e-16
-2.70017e-10
-1.38403e-10
1.36297e-16
-2.44859e-10
-1.259e-10
1.22578e-16
-2.21583e-10
-1.14618e-10
1.16549e-16
-2.00075e-10
-1.04411e-10
8.83019e-17
-1.80223e-10
-9.5159e-11
7.45479e-17
-1.61917e-10
-8.67538e-11
4.83036e-17
-1.45058e-10
-7.90875e-11
3.28014e-17
-1.29537e-10
-7.21269e-11
1.71887e-17
-1.15264e-10
-6.57594e-11
9.31736e-18
-1.02142e-10
-5.99716e-11
9.03165e-20
-9.00856e-11
-5.46937e-11
-3.81444e-18
-7.90093e-11
-4.98933e-11
-1.0222e-17
-6.88243e-11
-4.55695e-11
-1.34093e-17
-5.94575e-11
-4.16488e-11
-1.59003e-17
-5.08316e-11
-3.81263e-11
-1.59006e-17
-4.28817e-11
-3.49439e-11
-1.88475e-17
-3.55517e-11
-3.20506e-11
-2.09336e-17
-2.8798e-11
-2.9375e-11
-2.30499e-17
-2.26021e-11
-2.67955e-11
-2.33332e-17
-1.69708e-11
-2.41772e-11
-2.46765e-17
-1.19462e-11
-2.13378e-11
-2.50873e-17
-7.61316e-12
-1.80566e-11
-2.55554e-17
-4.09804e-12
-1.41151e-11
-2.58214e-17
-1.55118e-12
-9.3983e-12
-2.61364e-17
-9.82692e-14
-4.06889e-12
-2.46754e-17
2.83718e-13
8.91501e-13
-2.25439e-17
3.07162e-12
-1.96809e-17
-8.21679e-10
-6.1204e-10
-3.4545e-15
-8.06434e-10
-5.80935e-10
-9.96077e-16
-7.83352e-10
-5.47237e-10
-5.84059e-16
-7.54088e-10
-5.11894e-10
-6.30437e-18
-7.20264e-10
-4.76183e-10
3.88359e-16
-6.83307e-10
-4.40773e-10
1.31307e-16
-6.44446e-10
-4.06444e-10
8.97537e-17
-6.047e-10
-3.73589e-10
-1.51764e-16
-5.64885e-10
-3.42572e-10
-1.85845e-16
-5.25634e-10
-3.13568e-10
-2.16855e-16
-4.87431e-10
-2.8664e-10
-1.79666e-16
-4.50609e-10
-2.61845e-10
-1.17401e-16
-4.15402e-10
-2.39077e-10
-4.09718e-17
-3.81952e-10
-2.18272e-10
3.7658e-18
-3.50337e-10
-1.99304e-10
6.61409e-17
-3.20582e-10
-1.82029e-10
9.6561e-17
-2.92675e-10
-1.66309e-10
1.19297e-16
-2.66577e-10
-1.51998e-10
1.11296e-16
-2.42228e-10
-1.38965e-10
1.09663e-16
-2.1956e-10
-1.27077e-10
8.49121e-17
-1.98498e-10
-1.16221e-10
7.39206e-17
-1.78958e-10
-1.06292e-10
4.93151e-17
-1.60865e-10
-9.71816e-11
3.49037e-17
-1.44124e-10
-8.88669e-11
1.98692e-17
-1.28659e-10
-8.12242e-11
1.22525e-17
-1.14381e-10
-7.42491e-11
2.85128e-18
-1.0121e-10
-6.78648e-11
-1.38326e-18
-8.90651e-11
-6.20387e-11
-8.28113e-18
-7.78584e-11
-5.67759e-11
-1.16906e-17
-6.75175e-11
-5.19901e-11
-1.45562e-17
-5.79644e-11
-4.76794e-11
-1.48463e-17
-4.91329e-11
-4.37754e-11
-1.80589e-17
-4.09658e-11
-4.02182e-11
-2.02132e-17
-3.34179e-11
-3.6923e-11
-2.25076e-17
-2.64704e-11
-3.37434e-11
-2.29181e-17
-2.01304e-11
-3.05176e-11
-2.44686e-17
-1.44419e-11
-2.70265e-11
-2.46002e-17
-9.49415e-12
-2.30048e-11
-2.52662e-17
-5.42024e-12
-1.81894e-11
-2.54152e-17
-2.3817e-12
-1.24373e-11
-2.56484e-17
-5.21511e-13
-5.92952e-12
-2.44276e-17
1.54428e-13
2.15143e-13
-2.21661e-17
3.22569e-12
-1.94857e-17
-7.56663e-10
-3.79276e-15
-7.52687e-10
-1.97839e-15
-7.40803e-10
-5.59132e-10
-1.52842e-15
-7.22219e-10
-5.30485e-10
-6.67133e-16
-6.98217e-10
-5.00184e-10
-7.12274e-17
-6.70017e-10
-4.68975e-10
-1.4007e-16
-6.38742e-10
-4.37719e-10
-7.93303e-17
-6.05394e-10
-4.0694e-10
-2.5031e-16
-5.70831e-10
-3.77137e-10
-2.5237e-16
-5.35769e-10
-3.4863e-10
-2.67952e-16
-5.00798e-10
-3.21614e-10
-2.24155e-16
-4.6637e-10
-2.96275e-10
-1.56818e-16
-4.32839e-10
-2.72609e-10
-7.7049e-17
-4.00459e-10
-2.5065e-10
-2.71895e-17
-3.69414e-10
-2.30347e-10
3.97534e-17
-3.39823e-10
-2.11619e-10
7.64448e-17
-3.11756e-10
-1.94375e-10
1.04031e-16
-2.85244e-10
-1.7851e-10
1.0115e-16
-2.60288e-10
-1.6392e-10
1.03347e-16
-2.36869e-10
-1.50494e-10
8.19593e-17
-2.14953e-10
-1.38136e-10
7.32839e-17
-1.9449e-10
-1.26754e-10
5.0437e-17
-1.75431e-10
-1.16241e-10
3.72038e-17
-1.57703e-10
-1.06594e-10
2.2854e-17
-1.41247e-10
-9.76807e-11
1.51939e-17
-1.25985e-10
-8.95106e-11
5.54342e-18
-1.11847e-10
-8.20028e-11
1.00119e-18
-9.8759e-11
-7.51272e-11
-6.33068e-18
-8.66367e-11
-6.88977e-11
-1.01564e-17
-7.54114e-11
-6.32159e-11
-1.31596e-17
-6.50059e-11
-5.80848e-11
-1.36852e-17
-5.5355e-11
-5.34264e-11
-1.74797e-17
-4.64013e-11
-4.91723e-11
-1.9634e-17
-3.80993e-11
-4.52252e-11
-2.18457e-17
-3.04303e-11
-4.14127e-11
-2.23023e-17
-2.3402e-11
-3.75462e-11
-2.40896e-17
-1.706e-11
-3.33688e-11
-2.40784e-17
-1.14968e-11
-2.85684e-11
-2.48399e-17
-6.85196e-12
-2.28347e-11
-2.50538e-17
-3.29818e-12
-1.59915e-11
-2.50514e-17
-9.98333e-13
-8.22981e-12
-2.42295e-17
2.53883e-15
-7.86142e-13
-2.20161e-17
3.22787e-12
-1.92909e-17
-6.93192e-10
-5.61502e-10
-1.00594e-15
-6.83952e-10
-5.39729e-10
-4.078e-16
-6.68814e-10
-5.15319e-10
3.23819e-17
-6.48787e-10
-4.89003e-10
-8.85698e-17
-6.24853e-10
-4.61653e-10
-6.44823e-17
-5.9794e-10
-4.33854e-10
-2.38575e-16
-5.68888e-10
-4.06191e-10
-2.47801e-16
-5.38435e-10
-3.79083e-10
-2.68e-16
-5.07224e-10
-3.52828e-10
-2.30968e-16
-4.75779e-10
-3.27722e-10
-1.69975e-16
-4.44536e-10
-3.03854e-10
-9.52002e-17
-4.13837e-10
-2.81348e-10
-4.63445e-17
-3.83952e-10
-2.60232e-10
2.09162e-17
-3.55081e-10
-2.40489e-10
6.08903e-17
-3.27368e-10
-2.22087e-10
9.13691e-17
-3.00913e-10
-2.04965e-10
9.25035e-17
-2.75774e-10
-1.89058e-10
9.7952e-17
-2.51984e-10
-1.74282e-10
7.94334e-17
-2.29552e-10
-1.60568e-10
7.30298e-17
-2.08465e-10
-1.4784e-10
5.17897e-17
-1.88703e-10
-1.36004e-10
3.97615e-17
-1.70217e-10
-1.25078e-10
2.57531e-17
-1.52969e-10
-1.14929e-10
1.81292e-17
-1.36896e-10
-1.05583e-10
8.44815e-18
-1.2194e-10
-9.69585e-11
3.42252e-18
-1.08037e-10
-8.90306e-11
-4.20136e-18
-9.51092e-11
-8.18252e-11
-8.46582e-18
-8.30927e-11
-7.52329e-11
-1.17153e-17
-7.19136e-11
-6.92638e-11
-1.25837e-17
-6.1509e-11
-6.3831e-11
-1.66554e-17
-5.18228e-11
-5.8859e-11
-1.89797e-17
-4.28101e-11
-5.4238e-11
-2.1307e-17
-3.44529e-11
-4.97703e-11
-2.18578e-17
-2.67597e-11
-4.52399e-11
-2.35284e-17
-1.97771e-11
-4.03517e-11
-2.37554e-17
-1.36007e-11
-3.47451e-11
-2.43839e-17
-8.37599e-12
-2.80598e-11
-2.44764e-17
-4.28725e-12
-2.00807e-11
-2.44753e-17
-1.51982e-12
-1.09977e-11
-2.38466e-17
-1.59683e-13
-2.14669e-12
-2.18255e-17
3.06783e-12
-1.91922e-17
-6.44723e-10
-5.56774e-10
-1.74187e-15
-6.42906e-10
-5.41554e-10
-8.89949e-16
-6.35192e-10
-5.23034e-10
-2.70788e-16
-6.22329e-10
-5.0187e-10
-2.44071e-16
-6.05101e-10
-4.78881e-10
-1.39479e-16
-5.84302e-10
-4.54655e-10
-2.61343e-16
-5.60689e-10
-4.29805e-10
-2.55157e-16
-5.34966e-10
-4.04806e-10
-2.71886e-16
-5.07776e-10
-3.80021e-10
-2.37532e-16
-4.79672e-10
-3.55828e-10
-1.80784e-16
-4.51137e-10
-3.32391e-10
-1.08937e-16
-4.22568e-10
-3.09914e-10
-6.03252e-17
-3.94302e-10
-2.88497e-10
6.95023e-18
-3.66603e-10
-2.68188e-10
4.90327e-17
-3.39678e-10
-2.49011e-10
8.13408e-17
-3.13688e-10
-2.30955e-10
8.55686e-17
-2.88744e-10
-2.14e-10
9.33472e-17
-2.64928e-10
-1.98096e-10
7.75005e-17
-2.42293e-10
-1.83203e-10
7.27862e-17
-2.20861e-10
-1.6927e-10
5.33265e-17
-2.00646e-10
-1.5622e-10
4.23043e-17
-1.81625e-10
-1.44099e-10
2.88659e-17
-1.6378e-10
-1.32774e-10
2.1361e-17
-1.47067e-10
-1.22295e-10
1.12393e-17
-1.31443e-10
-1.12582e-10
6.14998e-18
-1.16855e-10
-1.03619e-10
-1.99497e-18
-1.03233e-10
-9.54465e-11
-6.73784e-18
-9.0521e-11
-8.79453e-11
-1.00847e-17
-7.86498e-11
-8.1135e-11
-1.14539e-17
-6.75601e-11
-7.49207e-11
-1.57579e-17
-5.71982e-11
-6.92213e-11
-1.82464e-17
-4.75209e-11
-6.39155e-11
-2.07405e-17
-3.85114e-11
-5.87802e-11
-2.13232e-17
-3.01789e-11
-5.35727e-11
-2.31198e-17
-2.25715e-11
-4.79594e-11
-2.32317e-17
-1.57872e-11
-4.15299e-11
-2.37856e-17
-9.97683e-12
-3.38706e-11
-2.41244e-17
-5.33716e-12
-2.47208e-11
-2.40471e-17
-2.07874e-12
-1.42565e-11
-2.34621e-17
-3.37587e-13
-3.88824e-12
-2.149e-17
2.72989e-12
-1.88677e-17
-5.963e-10
-5.46395e-10
-1.05643e-15
-6.00561e-10
-5.37296e-10
-4.02541e-16
-5.99107e-10
-5.24486e-10
-7.53644e-18
-5.92466e-10
-5.08511e-10
-9.23674e-17
-5.81243e-10
-4.90105e-10
-5.51303e-17
-5.66084e-10
-4.69815e-10
-2.00104e-16
-5.47648e-10
-4.48243e-10
-2.16062e-16
-5.2657e-10
-4.25883e-10
-2.44836e-16
-5.03462e-10
-4.03131e-10
-2.19651e-16
-4.78871e-10
-3.80421e-10
-1.72172e-16
-4.53295e-10
-3.57969e-10
-1.07944e-16
-4.27165e-10
-3.36043e-10
-6.36133e-17
-4.00856e-10
-3.14805e-10
3.03508e-19
-3.74681e-10
-2.94362e-10
4.17556e-17
-3.48898e-10
-2.74794e-10
7.41343e-17
-3.23715e-10
-2.56138e-10
8.01911e-17
-2.99294e-10
-2.3842e-10
8.97076e-17
-2.75759e-10
-2.21628e-10
7.60004e-17
-2.53204e-10
-2.05757e-10
7.2745e-17
-2.31687e-10
-1.90785e-10
5.46698e-17
-2.11254e-10
-1.76654e-10
4.47658e-17
-1.91907e-10
-1.63444e-10
3.19557e-17
-1.73653e-10
-1.51028e-10
2.43173e-17
-1.56467e-10
-1.3948e-10
1.41554e-17
-1.40322e-10
-1.28728e-10
8.6216e-18
-1.25177e-10
-1.18765e-10
4.83814e-20
-1.10973e-10
-1.0965e-10
-4.99268e-18
-9.7662e-11
-1.01256e-10
-8.66877e-18
-8.51814e-11
-9.36154e-11
-1.03229e-17
-7.34769e-11
-8.66253e-11
-1.4977e-17
-6.24983e-11
-8.02003e-11
-1.7544e-17
-5.22045e-11
-7.42093e-11
-2.00222e-17
-4.25808e-11
-6.84042e-11
-2.06981e-17
-3.36375e-11
-6.25163e-11
-2.24824e-17
-2.54235e-11
-5.61736e-11
-2.2817e-17
-1.80391e-11
-4.89147e-11
-2.31619e-17
-1.16406e-11
-4.02695e-11
-2.36612e-17
-6.43766e-12
-2.99241e-11
-2.33445e-17
-2.66878e-12
-1.80258e-11
-2.29999e-17
-5.26283e-13
-6.03112e-12
-2.11853e-17
2.20327e-12
-1.85621e-17
-5.49874e-10
-5.3204e-10
-1.35836e-15
-5.58734e-10
-5.28441e-10
-5.64736e-16
-5.62275e-10
-5.20944e-10
-9.41921e-17
-5.60819e-10
-5.09969e-10
-1.07069e-16
-5.54784e-10
-4.96139e-10
-3.18786e-17
-5.44665e-10
-4.79935e-10
-1.52376e-16
-5.30997e-10
-4.61913e-10
-1.71147e-16
-5.14328e-10
-4.42552e-10
-2.08633e-16
-4.95208e-10
-4.22253e-10
-1.93896e-16
-4.74154e-10
-4.01477e-10
-1.57624e-16
-4.51654e-10
-3.80471e-10
-1.01369e-16
-4.28144e-10
-3.5955e-10
-6.20959e-17
-4.04023e-10
-3.38926e-10
-1.9792e-18
-3.79633e-10
-3.18752e-10
3.77978e-17
-3.55266e-10
-2.99159e-10
6.93935e-17
-3.31171e-10
-2.80233e-10
7.62944e-17
-3.07548e-10
-2.62042e-10
8.67566e-17
-2.8456e-10
-2.44614e-10
7.47925e-17
-2.62337e-10
-2.2798e-10
7.28322e-17
-2.4097e-10
-2.1215e-10
5.6015e-17
-2.20534e-10
-1.97091e-10
4.71079e-17
-2.01059e-10
-1.82917e-10
3.47108e-17
-1.82576e-10
-1.69512e-10
2.70698e-17
-1.65077e-10
-1.56979e-10
1.68956e-17
-1.48552e-10
-1.45252e-10
1.10903e-17
-1.32976e-10
-1.34342e-10
2.293e-18
-1.183e-10
-1.24325e-10
-3.28624e-18
-1.04487e-10
-1.1507e-10
-7.12972e-18
-9.14803e-11
-1.06622e-10
-8.97051e-18
-7.92321e-11
-9.88734e-11
-1.4152e-17
-6.76969e-11
-9.17359e-11
-1.69974e-17
-5.68366e-11
-8.50697e-11
-1.93364e-17
-4.66387e-11
-7.86026e-11
-2.01466e-17
-3.71147e-11
-7.20406e-11
-2.20237e-17
-2.83147e-11
-6.49739e-11
-2.21687e-17
-2.03408e-11
-5.68889e-11
-2.28515e-17
-1.33548e-11
-4.72559e-11
-2.30534e-17
-7.57983e-12
-3.56995e-11
-2.2865e-17
-3.28469e-12
-2.23214e-11
-2.26467e-17
-7.23881e-13
-8.59232e-12
-2.07228e-17
1.47904e-12
-1.82819e-17
-5.0562e-10
-5.14727e-10
-9.11962e-16
-5.18041e-10
-5.16022e-10
-3.35028e-16
-5.2559e-10
-5.13393e-10
6.0814e-18
-5.28428e-10
-5.07131e-10
-5.45325e-17
-5.26821e-10
-4.97746e-10
-5.34899e-18
-5.21124e-10
-4.85631e-10
-1.22729e-16
-5.11756e-10
-4.71282e-10
-1.43333e-16
-4.99168e-10
-4.5514e-10
-1.80448e-16
-4.83839e-10
-4.37585e-10
-1.67585e-16
-4.66236e-10
-4.19081e-10
-1.37595e-16
-4.46817e-10
-3.99891e-10
-8.80592e-17
-4.2601e-10
-3.80356e-10
-5.42834e-17
-4.04214e-10
-3.60721e-10
6.30778e-19
-3.81786e-10
-3.41179e-10
3.72748e-17
-3.59041e-10
-3.21904e-10
6.68306e-17
-3.36255e-10
-3.0302e-10
7.37932e-17
-3.13656e-10
-2.8464e-10
8.43687e-17
-2.9144e-10
-2.66828e-10
7.39362e-17
-2.69767e-10
-2.49653e-10
7.26327e-17
-2.48758e-10
-2.33157e-10
5.725e-17
-2.28516e-10
-2.17334e-10
4.92424e-17
-2.09095e-10
-2.02337e-10
3.72548e-17
-1.90548e-10
-1.8806e-10
2.97795e-17
-1.72886e-10
-1.74639e-10
1.9366e-17
-1.56119e-10
-1.6202e-10
1.3259e-17
-1.40233e-10
-1.50228e-10
4.1264e-18
-1.25194e-10
-1.39364e-10
-1.59547e-18
-1.10973e-10
-1.29292e-10
-5.75928e-18
-9.75228e-11
-1.20072e-10
-7.97414e-18
-8.48023e-11
-1.11594e-10
-1.31484e-17
-7.27713e-11
-1.03767e-10
-1.61099e-17
-6.13952e-11
-9.64459e-11
-1.86756e-17
-5.06644e-11
-8.93337e-11
-1.94663e-17
-4.05919e-11
-8.21135e-11
-2.15362e-17
-3.12286e-11
-7.43374e-11
-2.1683e-17
-2.26786e-11
-6.54393e-11
-2.21256e-17
-1.51086e-11
-5.48262e-11
-2.23858e-17
-8.75602e-12
-4.20525e-11
-2.22561e-17
-3.92219e-12
-2.71556e-11
-2.18773e-17
-9.28968e-13
-1.15859e-11
-2.03364e-17
5.4974e-13
-1.8115e-17
-4.64323e-10
-4.95515e-10
-9.39727e-16
-4.79288e-10
-5.01061e-10
-3.92435e-16
-4.89896e-10
-5.02784e-10
-3.82743e-17
-4.96171e-10
-5.00857e-10
-5.14165e-17
-4.98244e-10
-4.95672e-10
2.54886e-17
-4.96343e-10
-4.87532e-10
-6.9651e-17
-4.90771e-10
-4.76855e-10
-9.09323e-17
-4.81882e-10
-4.64028e-10
-1.34551e-16
-4.70075e-10
-4.49393e-10
-1.30269e-16
-4.55758e-10
-4.334e-10
-1.11251e-16
-4.39346e-10
-4.16304e-10
-7.05488e-17
-4.2124e-10
-3.98459e-10
-4.33787e-17
-4.0183e-10
-3.8013e-10
5.9089e-18
-3.81471e-10
-3.61537e-10
3.86356e-17
-3.60489e-10
-3.42885e-10
6.57289e-17
-3.39175e-10
-3.24335e-10
7.20528e-17
-3.17779e-10
-3.06034e-10
8.25176e-17
-2.96521e-10
-2.88084e-10
7.31227e-17
-2.75584e-10
-2.70589e-10
7.23942e-17
-2.55116e-10
-2.53623e-10
5.83479e-17
-2.35242e-10
-2.37209e-10
5.10417e-17
-2.16039e-10
-2.21538e-10
3.96325e-17
-1.97581e-10
-2.06518e-10
3.21532e-17
-1.79899e-10
-1.9232e-10
2.18037e-17
-1.63017e-10
-1.78902e-10
1.54244e-17
-1.46939e-10
-1.66307e-10
6.16284e-18
-1.31639e-10
-1.54662e-10
5.64824e-20
-1.17102e-10
-1.43829e-10
-4.41823e-18
-1.0329e-10
-1.33884e-10
-6.82487e-18
-9.01676e-11
-1.24716e-10
-1.24735e-17
-7.77014e-11
-1.16234e-10
-1.53092e-17
-6.58609e-11
-1.08286e-10
-1.80374e-17
-5.46395e-11
-1.00555e-10
-1.86774e-17
-4.4052e-11
-9.27013e-11
-2.09385e-17
-3.41502e-11
-8.42394e-11
-2.09712e-17
-2.50396e-11
-7.45503e-11
-2.14976e-17
-1.68922e-11
-6.29741e-11
-2.18044e-17
-9.9597e-12
-4.89853e-11
-2.16741e-17
-4.57781e-12
-3.25379e-11
-2.14609e-17
-1.14053e-12
-1.50235e-11
-1.98346e-17
-5.91117e-13
-1.78983e-17
-4.25848e-10
-4.75055e-10
-3.73434e-16
-4.42642e-10
-4.84267e-10
-2.13277e-17
-4.55578e-10
-4.89845e-10
1.57741e-16
-4.64582e-10
-4.91852e-10
5.56265e-17
-4.69678e-10
-4.90575e-10
7.65336e-17
-4.7099e-10
-4.8622e-10
-3.20589e-17
-4.68718e-10
-4.79127e-10
-6.06587e-17
-4.63126e-10
-4.69618e-10
-1.04454e-16
-4.54534e-10
-4.57987e-10
-1.00755e-16
-4.43285e-10
-4.4465e-10
-8.65011e-17
-4.29744e-10
-4.29846e-10
-5.14032e-17
-4.14277e-10
-4.13924e-10
-2.98907e-17
-3.9725e-10
-3.97156e-10
1.35453e-17
-3.79008e-10
-3.79779e-10
4.1741e-17
-3.59875e-10
-3.62017e-10
6.57322e-17
-3.40149e-10
-3.44061e-10
7.10318e-17
-3.20092e-10
-3.2609e-10
8.08453e-17
-2.99938e-10
-3.08235e-10
7.22763e-17
-2.79892e-10
-2.90634e-10
7.19978e-17
-2.60119e-10
-2.73394e-10
5.90331e-17
-2.40766e-10
-2.56563e-10
5.2459e-17
-2.21928e-10
-2.40373e-10
4.14524e-17
-2.03699e-10
-2.24748e-10
3.43653e-17
-1.86126e-10
-2.09891e-10
2.38168e-17
-1.6925e-10
-1.95778e-10
1.7243e-17
-1.53087e-10
-1.8247e-10
7.81211e-18
-1.37627e-10
-1.70122e-10
1.44975e-18
-1.22863e-10
-1.58593e-10
-3.05775e-18
-1.08767e-10
-1.4798e-10
-5.80426e-18
-9.53119e-11
-1.38171e-10
-1.16242e-17
-8.24704e-11
-1.29076e-10
-1.47181e-17
-7.02167e-11
-1.2054e-10
-1.72383e-17
-5.85476e-11
-1.12225e-10
-1.79743e-17
-4.74798e-11
-1.03769e-10
-2.0276e-17
-3.70659e-11
-9.46536e-11
-2.04198e-17
-2.74128e-11
-8.42037e-11
-2.09078e-17
-1.86971e-11
-7.16901e-11
-2.1222e-17
-1.11854e-11
-5.64974e-11
-2.09314e-17
-5.24887e-12
-3.84748e-11
-2.09976e-17
-1.3579e-12
-1.89149e-11
-1.94441e-17
-1.94934e-12
-1.75054e-17
-3.9042e-10
-4.53982e-10
-3.94357e-16
-4.08387e-10
-4.66301e-10
-1.25291e-16
-4.22994e-10
-4.75236e-10
6.56423e-17
-4.34088e-10
-4.80758e-10
2.04523e-17
-4.41608e-10
-4.83053e-10
7.86827e-17
-4.45588e-10
-4.8224e-10
2.20466e-19
-4.46139e-10
-4.78576e-10
-2.0662e-17
-4.43442e-10
-4.72314e-10
-6.48522e-17
-4.37739e-10
-4.6369e-10
-6.55362e-17
-4.29309e-10
-4.53081e-10
-5.92906e-17
-4.18463e-10
-4.40692e-10
-3.12633e-17
-4.05525e-10
-4.2686e-10
-1.59412e-17
-3.9083e-10
-4.11851e-10
2.17533e-17
-3.74704e-10
-3.95904e-10
4.54458e-17
-3.57459e-10
-3.79261e-10
6.61641e-17
-3.39392e-10
-3.62129e-10
7.02972e-17
-3.2077e-10
-3.44712e-10
7.91951e-17
-3.01835e-10
-3.27168e-10
7.12807e-17
-2.82803e-10
-3.09666e-10
7.1289e-17
-2.63855e-10
-2.92341e-10
5.93209e-17
-2.45153e-10
-2.75266e-10
5.34846e-17
-2.26809e-10
-2.58715e-10
4.30739e-17
-2.08933e-10
-2.42624e-10
3.6026e-17
-1.91588e-10
-2.27236e-10
2.56203e-17
-1.74827e-10
-2.12538e-10
1.89639e-17
-1.58683e-10
-1.98615e-10
9.3783e-18
-1.43154e-10
-1.85649e-10
2.95212e-18
-1.28248e-10
-1.735e-10
-1.80631e-18
-1.13943e-10
-1.62285e-10
-4.95839e-18
-1.00222e-10
-1.51892e-10
-1.09007e-17
-8.70641e-11
-1.42235e-10
-1.37852e-17
-7.44479e-11
-1.33156e-10
-1.64484e-17
-6.23742e-11
-1.24299e-10
-1.73293e-17
-5.08616e-11
-1.15282e-10
-1.95722e-17
-3.99635e-11
-1.05552e-10
-1.98334e-17
-2.9788e-11
-9.43796e-11
-2.02288e-17
-2.05159e-11
-8.09625e-11
-2.05948e-17
-1.24285e-11
-6.45852e-11
-2.03332e-17
-5.93339e-12
-4.49704e-11
-2.03088e-17
-1.58076e-12
-2.32678e-11
-1.90468e-17
-3.53042e-12
-1.71218e-17
-3.57799e-10
-4.32686e-10
-8.95814e-17
-3.76479e-10
-4.4762e-10
8.45186e-17
-3.92254e-10
-4.59458e-10
1.85958e-16
-4.04921e-10
-4.68091e-10
8.68988e-17
-4.14355e-10
-4.73617e-10
1.05997e-16
-4.2052e-10
-4.76075e-10
2.19042e-17
-4.23454e-10
-4.75642e-10
-3.6508e-19
-4.23264e-10
-4.72502e-10
-4.11389e-17
-4.20124e-10
-4.66831e-10
-4.00918e-17
-4.1425e-10
-4.58956e-10
-3.65015e-17
-4.05898e-10
-4.49045e-10
-1.2576e-17