/*--------------------------------*- C++ -*----------------------------------*\
| =========                 |                                                 |
| \\      /  F ield         | OpenFOAM: The Open Source CFD Toolbox           |
|  \\    /   O peration     | Version:  v2012                                 |
|   \\  /    A nd           | Website:  www.openfoam.com                      |
|    \\/     M anipulation  |                                                 |
\*---------------------------------------------------------------------------*/
FoamFile
{
    version     2.0;
    format      ascii;
    class       volVectorField;
    location    "0.45";
    object      U;
}
// * * * * * * * * * * * * * * * * * * * * * * * * * * * * * * * * * * * * * //

dimensions      [0 1 -1 0 0 0 0];


internalField   nonuniform List<vector> 
15860
(
(5.95501e-06 -0.00280679 -5.25606e-08)
(1.55498e-05 -0.00302546 -1.36997e-07)
(2.53025e-05 -0.00319539 -2.22807e-07)
(3.75004e-05 -0.00333047 -3.29641e-07)
(4.86751e-05 -0.00344046 -4.26887e-07)
(6.10872e-05 -0.00353532 -5.35322e-07)
(7.65928e-05 -0.00361596 -6.70717e-07)
(9.03527e-05 -0.00368731 -7.90659e-07)
(0.000104637 -0.00374879 -9.15024e-07)
(0.00012203 -0.00380508 -1.06643e-06)
(0.00013776 -0.00385196 -1.20342e-06)
(0.000155841 -0.0038957 -1.3614e-06)
(0.000174763 -0.00393105 -1.5265e-06)
(0.000193571 -0.00396236 -1.69047e-06)
(0.00021387 -0.00398784 -1.86755e-06)
(0.000234461 -0.00400792 -2.0472e-06)
(0.00025561 -0.00402318 -2.23175e-06)
(0.000277173 -0.00403273 -2.41989e-06)
(0.00029876 -0.00403733 -2.60824e-06)
(0.000320628 -0.00403629 -2.79905e-06)
(0.000342442 -0.00402982 -2.98941e-06)
(0.000364107 -0.00401771 -3.17846e-06)
(0.000385451 -0.00399983 -3.36472e-06)
(0.000406349 -0.00397607 -3.5471e-06)
(0.000426635 -0.00394627 -3.72413e-06)
(0.000446176 -0.00391035 -3.89466e-06)
(0.000464802 -0.0038682 -4.0572e-06)
(0.000482355 -0.00381973 -4.21039e-06)
(0.000498657 -0.0037649 -4.35267e-06)
(0.000513538 -0.00370367 -4.48255e-06)
(0.000526813 -0.00363607 -4.59841e-06)
(0.000538306 -0.00356214 -4.69872e-06)
(0.000547838 -0.00348197 -4.78192e-06)
(0.000555237 -0.00339572 -4.8465e-06)
(0.000560335 -0.00330357 -4.89101e-06)
(0.000562982 -0.00320578 -4.91413e-06)
(0.000563047 -0.00310262 -4.91466e-06)
(0.000560416 -0.00299445 -4.89173e-06)
(0.000554999 -0.00288167 -4.84448e-06)
(0.000546734 -0.00276473 -4.77237e-06)
(0.000535587 -0.0026441 -4.67511e-06)
(0.000521558 -0.0025203 -4.55268e-06)
(0.000504682 -0.00239387 -4.40542e-06)
(0.000485034 -0.00226536 -4.23396e-06)
(0.000462732 -0.00213534 -4.03934e-06)
(0.000437928 -0.00200432 -3.82286e-06)
(0.000410814 -0.0018728 -3.58623e-06)
(0.000381627 -0.00174124 -3.3315e-06)
(0.000350636 -0.00161001 -3.06101e-06)
(0.000318153 -0.00147938 -2.7775e-06)
(0.000284514 -0.00134949 -2.48389e-06)
(0.000250095 -0.0012203 -2.18347e-06)
(0.000215307 -0.00109161 -1.87982e-06)
(0.000180588 -0.00096294 -1.57676e-06)
(0.000146415 -0.000833493 -1.27846e-06)
(0.000113311 -0.000702109 -9.8947e-07)
(8.18653e-05 -0.000567108 -7.14946e-07)
(5.27031e-05 -0.000425986 -4.60335e-07)
(2.69165e-05 -0.000274794 -2.35232e-07)
(5.04381e-06 -0.000104113 -4.75082e-08)
(8.06657e-06 -0.00287698 -7.13298e-08)
(2.06503e-05 -0.00309962 -1.81735e-07)
(3.3497e-05 -0.00327021 -2.9364e-07)
(4.70194e-05 -0.00340693 -4.12377e-07)
(6.19607e-05 -0.00351547 -5.43073e-07)
(7.59392e-05 -0.00361335 -6.6464e-07)
(9.01405e-05 -0.00369172 -7.88708e-07)
(0.000106548 -0.00376668 -9.31803e-07)
(0.000121906 -0.00382614 -1.06569e-06)
(0.000138525 -0.00388418 -1.21036e-06)
(0.000156318 -0.00392992 -1.36538e-06)
(0.000173542 -0.00397318 -1.51591e-06)
(0.000192915 -0.00400813 -1.68496e-06)
(0.000210937 -0.00403876 -1.8421e-06)
(0.000230725 -0.0040631 -2.01473e-06)
(0.000250229 -0.00408205 -2.1849e-06)
(0.000270372 -0.00409584 -2.36062e-06)
(0.000290914 -0.00410374 -2.53985e-06)
(0.000311574 -0.00410646 -2.72011e-06)
(0.000332569 -0.00410334 -2.90332e-06)
(0.000353399 -0.00409466 -3.08507e-06)
(0.000374227 -0.00408012 -3.2668e-06)
(0.000394829 -0.00405971 -3.44658e-06)
(0.000415064 -0.00403327 -3.62316e-06)
(0.000434776 -0.00400071 -3.79517e-06)
(0.00045379 -0.00396193 -3.96109e-06)
(0.000471951 -0.00391682 -4.11957e-06)
(0.000489069 -0.00386533 -4.26895e-06)
(0.000504977 -0.00380742 -4.40777e-06)
(0.000519481 -0.00374307 -4.53435e-06)
(0.000532407 -0.00367231 -4.64715e-06)
(0.000543564 -0.0035952 -4.74451e-06)
(0.000552774 -0.00351186 -4.82489e-06)
(0.00055986 -0.00342245 -4.88673e-06)
(0.000564655 -0.00332718 -4.92859e-06)
(0.000567006 -0.00322631 -4.94911e-06)
(0.000566781 -0.00312015 -4.94711e-06)
(0.000563865 -0.00300908 -4.92167e-06)
(0.000558167 -0.0028935 -4.87196e-06)
(0.000549623 -0.00277389 -4.79742e-06)
(0.000538202 -0.00265074 -4.69776e-06)
(0.000523904 -0.00252457 -4.57299e-06)
(0.000506767 -0.00239595 -4.42345e-06)
(0.000486865 -0.00226542 -4.24977e-06)
(0.000464319 -0.00213358 -4.05302e-06)
(0.000439281 -0.00200094 -3.83452e-06)
(0.000411945 -0.001868 -3.59597e-06)
(0.00038255 -0.00173523 -3.33943e-06)
(0.000351364 -0.00160299 -3.06726e-06)
(0.0003187 -0.00147157 -2.78218e-06)
(0.000284894 -0.00134108 -2.48714e-06)
(0.000250322 -0.0012115 -2.18541e-06)
(0.000215394 -0.00108262 -1.88055e-06)
(0.000180547 -0.000953935 -1.5764e-06)
(0.000146258 -0.000824669 -1.2771e-06)
(0.000113043 -0.000693653 -9.87187e-07)
(8.14944e-05 -0.000559211 -7.11789e-07)
(5.22192e-05 -0.000418882 -4.56228e-07)
(2.63318e-05 -0.000268728 -2.30412e-07)
(4.42999e-06 -0.000100198 -4.35898e-08)
(7.43491e-06 -0.00290164 -6.53732e-08)
(1.95488e-05 -0.00312227 -1.71463e-07)
(3.02581e-05 -0.00329093 -2.66008e-07)
(4.5868e-05 -0.00342842 -4.02111e-07)
(5.89761e-05 -0.0035356 -5.15943e-07)
(7.15524e-05 -0.00363485 -6.2651e-07)
(8.96701e-05 -0.00371316 -7.84259e-07)
(0.000103535 -0.00378811 -9.05314e-07)
(0.000121489 -0.00384864 -1.06193e-06)
(0.000137342 -0.00390721 -1.20015e-06)
(0.000156612 -0.00395366 -1.36823e-06)
(0.000173037 -0.00399849 -1.51142e-06)
(0.000193721 -0.00403424 -1.69168e-06)
(0.000212098 -0.00406643 -1.85221e-06)
(0.000233153 -0.00409171 -2.03599e-06)
(0.000253171 -0.00411197 -2.21056e-06)
(0.000274228 -0.00412667 -2.39427e-06)
(0.000295564 -0.00413554 -2.58043e-06)
(0.00031676 -0.00413893 -2.76535e-06)
(0.000338404 -0.00413644 -2.95422e-06)
(0.000359758 -0.00412815 -3.1406e-06)
(0.000381049 -0.00411382 -3.32639e-06)
(0.00040198 -0.0040934 -3.50903e-06)
(0.000422495 -0.00406675 -3.68805e-06)
(0.000442396 -0.00403376 -3.86171e-06)
(0.000461562 -0.00399434 -4.02896e-06)
(0.000479809 -0.00394841 -4.18819e-06)
(0.000496977 -0.0038959 -4.33801e-06)
(0.00051288 -0.00383677 -4.47679e-06)
(0.000527343 -0.00377104 -4.60302e-06)
(0.000540179 -0.00369873 -4.71503e-06)
(0.000551207 -0.00361993 -4.81127e-06)
(0.000560244 -0.00353477 -4.89014e-06)
(0.00056712 -0.00344341 -4.95015e-06)
(0.000571667 -0.00334609 -4.98984e-06)
(0.000573737 -0.0032431 -5.00791e-06)
(0.000573198 -0.00313477 -5.00316e-06)
(0.000569939 -0.0030215 -4.97473e-06)
(0.000563872 -0.0029037 -4.92179e-06)
(0.000554936 -0.0027819 -4.84382e-06)
(0.000543105 -0.00265659 -4.74057e-06)
(0.000528383 -0.00252833 -4.6121e-06)
(0.000510813 -0.0023977 -4.45878e-06)
(0.000490477 -0.00226528 -4.28131e-06)
(0.000467498 -0.00213167 -4.08078e-06)
(0.000442035 -0.00199741 -3.85855e-06)
(0.000414285 -0.00186301 -3.61638e-06)
(0.00038449 -0.00172896 -3.35635e-06)
(0.000352924 -0.00159562 -3.08086e-06)
(0.0003199 -0.00146328 -2.79264e-06)
(0.000285758 -0.00133208 -2.49466e-06)
(0.000250873 -0.00120198 -2.1902e-06)
(0.000215655 -0.00107278 -1.88282e-06)
(0.000180542 -0.000943984 -1.57635e-06)
(0.000146006 -0.000814809 -1.27491e-06)
(0.000112566 -0.000684095 -9.83026e-07)
(8.08084e-05 -0.000550173 -7.05817e-07)
(5.13436e-05 -0.000410634 -4.48613e-07)
(2.53255e-05 -0.000261586 -2.2167e-07)
(3.82786e-06 -9.55767e-05 -3.84819e-08)
(8.31393e-06 -0.00296536 -7.30433e-08)
(2.26011e-05 -0.00318973 -1.98097e-07)
(3.49285e-05 -0.00336128 -3.06251e-07)
(5.205e-05 -0.00349578 -4.55645e-07)
(6.87786e-05 -0.00360735 -6.01593e-07)
(8.1576e-05 -0.00370134 -7.13685e-07)
(0.000100941 -0.00378273 -8.82605e-07)
(0.000116301 -0.00385542 -1.01663e-06)
(0.000133977 -0.00391551 -1.17079e-06)
(0.000150659 -0.00397311 -1.31622e-06)
(0.000170635 -0.00401863 -1.49053e-06)
(0.000186546 -0.00406235 -1.62924e-06)
(0.000208143 -0.00409654 -1.81749e-06)
(0.00022602 -0.00412713 -1.97371e-06)
(0.000247292 -0.00415078 -2.15941e-06)
(0.000266787 -0.00416933 -2.32941e-06)
(0.000287636 -0.00418226 -2.51128e-06)
(0.000308644 -0.00418937 -2.69459e-06)
(0.000329548 -0.00419096 -2.87696e-06)
(0.000350907 -0.00418659 -3.06335e-06)
(0.00037195 -0.00417645 -3.24698e-06)
(0.000393034 -0.00416024 -3.43096e-06)
(0.000413813 -0.00413791 -3.61229e-06)
(0.000434197 -0.00410932 -3.79016e-06)
(0.000454006 -0.00407436 -3.96302e-06)
(0.000473073 -0.00403293 -4.1294e-06)
(0.000491235 -0.00398494 -4.28789e-06)
(0.000508298 -0.00393032 -4.43679e-06)
(0.000524086 -0.00386906 -4.57457e-06)
(0.000538404 -0.00380113 -4.69953e-06)
(0.000551069 -0.0037266 -4.81006e-06)
(0.000561887 -0.00364554 -4.90446e-06)
(0.000570677 -0.00355809 -4.98119e-06)
(0.000577262 -0.00346443 -5.03865e-06)
(0.000581476 -0.0033648 -5.07544e-06)
(0.000583169 -0.0032595 -5.09022e-06)
(0.000582211 -0.00314888 -5.08182e-06)
(0.000578493 -0.00303334 -5.04938e-06)
(0.00057193 -0.00291333 -4.99212e-06)
(0.000562465 -0.00278936 -4.90953e-06)
(0.000550077 -0.00266197 -4.80143e-06)
(0.000534776 -0.00253172 -4.66791e-06)
(0.000516613 -0.00239921 -4.50941e-06)
(0.000495675 -0.00226502 -4.32669e-06)
(0.000472094 -0.00212979 -4.1209e-06)
(0.000446034 -0.00199404 -3.89347e-06)
(0.0004177 -0.00185832 -3.6462e-06)
(0.000387339 -0.00172311 -3.38124e-06)
(0.000355231 -0.00158879 -3.10101e-06)
(0.000321692 -0.00145564 -2.8083e-06)
(0.000287066 -0.00132381 -2.50609e-06)
(0.00025173 -0.00119326 -2.19769e-06)
(0.000216095 -0.00106379 -1.88666e-06)
(0.000180598 -0.000934918 -1.57684e-06)
(0.000145712 -0.000805847 -1.27234e-06)
(0.000111954 -0.000675428 -9.77689e-07)
(7.99176e-05 -0.000542 -6.98043e-07)
(5.02394e-05 -0.000403213 -4.38971e-07)
(2.41412e-05 -0.000255273 -2.11302e-07)
(3.30822e-06 -9.17868e-05 -3.36644e-08)
(8.10531e-06 -0.00300232 -7.11943e-08)
(2.13535e-05 -0.00322559 -1.87028e-07)
(3.34844e-05 -0.00339698 -2.93474e-07)
(4.9731e-05 -0.00353139 -4.35251e-07)
(6.48129e-05 -0.00364278 -5.66764e-07)
(7.96703e-05 -0.00373722 -6.96954e-07)
(9.76911e-05 -0.00381893 -8.54135e-07)
(0.000116159 -0.00389187 -1.01529e-06)
(0.000134528 -0.00395405 -1.17518e-06)
(0.000151468 -0.00401207 -1.32312e-06)
(0.000173431 -0.00405899 -1.51476e-06)
(0.000189372 -0.00410309 -1.65386e-06)
(0.000213116 -0.00413808 -1.86087e-06)
(0.000231116 -0.00416945 -2.01814e-06)
(0.000254017 -0.00419359 -2.2181e-06)
(0.000274144 -0.0042127 -2.39362e-06)
(0.000296125 -0.00422581 -2.58536e-06)
(0.000318031 -0.0042331 -2.77652e-06)
(0.000339741 -0.00423456 -2.96594e-06)
(0.000361882 -0.00422996 -3.15913e-06)
(0.000383569 -0.00421931 -3.34839e-06)
(0.000405235 -0.00420241 -3.53744e-06)
(0.000426447 -0.00417917 -3.72256e-06)
(0.000447208 -0.00414948 -3.90372e-06)
(0.000467296 -0.00411324 -4.07902e-06)
(0.00048659 -0.00407036 -4.24739e-06)
(0.000504897 -0.00402075 -4.40714e-06)
(0.00052205 -0.00396438 -4.55683e-06)
(0.000537853 -0.00390123 -4.69473e-06)
(0.000552127 -0.0038313 -4.81931e-06)
(0.000564674 -0.00375466 -4.92881e-06)
(0.000575312 -0.0036714 -5.02164e-06)
(0.000583851 -0.00358169 -5.09617e-06)
(0.000590119 -0.00348571 -5.15088e-06)
(0.00059395 -0.00338374 -5.18431e-06)
(0.000595194 -0.00327608 -5.19518e-06)
(0.000593726 -0.00316311 -5.18232e-06)
(0.000589441 -0.00304524 -5.14494e-06)
(0.000582259 -0.00292294 -5.08228e-06)
(0.00057213 -0.00279676 -4.9939e-06)
(0.00055904 -0.00266724 -4.87967e-06)
(0.000543006 -0.00253496 -4.73976e-06)
(0.00052409 -0.00240053 -4.57468e-06)
(0.000502387 -0.00226457 -4.38528e-06)
(0.000478037 -0.0021277 -4.17279e-06)
(0.000451215 -0.00199048 -3.93871e-06)
(0.000422134 -0.00185345 -3.68491e-06)
(0.000391048 -0.00171709 -3.41362e-06)
(0.000358245 -0.00158181 -3.12733e-06)
(0.000324046 -0.00144788 -2.82886e-06)
(0.0002888 -0.00131544 -2.52123e-06)
(0.000252886 -0.00118448 -2.20779e-06)
(0.000216718 -0.00105477 -1.89211e-06)
(0.000180734 -0.000925841 -1.57803e-06)
(0.000145408 -0.000796893 -1.2697e-06)
(0.000111262 -0.000666786 -9.71651e-07)
(7.89003e-05 -0.000533871 -6.89167e-07)
(4.90136e-05 -0.000395863 -4.28269e-07)
(2.29118e-05 -0.000249137 -2.00572e-07)
(2.84759e-06 -8.82961e-05 -2.91728e-08)
(8.92266e-06 -0.00306171 -7.83214e-08)
(2.34737e-05 -0.00328841 -2.05363e-07)
(3.66551e-05 -0.00346262 -3.21037e-07)
(5.51456e-05 -0.00359533 -4.82458e-07)
(7.31449e-05 -0.00370982 -6.39058e-07)
(8.79023e-05 -0.00380167 -7.68703e-07)
(0.000107234 -0.00388349 -9.37018e-07)
(0.000125063 -0.00395741 -1.09263e-06)
(0.000142715 -0.00401485 -1.24656e-06)
(0.000161964 -0.00407345 -1.41423e-06)
(0.000184472 -0.00411931 -1.61111e-06)
(0.000201052 -0.00416181 -1.75581e-06)
(0.000225205 -0.00419594 -1.96629e-06)
(0.000243481 -0.00422597 -2.12601e-06)
(0.000267053 -0.00424895 -2.33185e-06)
(0.000287329 -0.00426674 -2.50869e-06)
(0.000309744 -0.00427855 -2.70421e-06)
(0.000331906 -0.00428448 -2.8976e-06)
(0.00035393 -0.00428457 -3.08977e-06)
(0.000376357 -0.00427854 -3.28546e-06)
(0.000398335 -0.00426644 -3.47723e-06)
(0.000420311 -0.00424802 -3.669e-06)
(0.000441839 -0.00422323 -3.85687e-06)
(0.000462875 -0.0041919 -4.04044e-06)
(0.000483226 -0.00415394 -4.21803e-06)
(0.000502722 -0.00410924 -4.38816e-06)
(0.000521194 -0.00405774 -4.54936e-06)
(0.000538443 -0.00399938 -4.69988e-06)
(0.000554285 -0.00393415 -4.83813e-06)
(0.000568519 -0.00386206 -4.96237e-06)
(0.000580958 -0.00378318 -5.07093e-06)
(0.000591403 -0.00369763 -5.16208e-06)
(0.000599671 -0.00360557 -5.23424e-06)
(0.000605583 -0.0035072 -5.28584e-06)
(0.000608976 -0.00340282 -5.31546e-06)
(0.000609702 -0.00329274 -5.32181e-06)
(0.000607637 -0.00317735 -5.30375e-06)
(0.000602684 -0.00305711 -5.26053e-06)
(0.000594768 -0.00293249 -5.19147e-06)
(0.000583848 -0.00280405 -5.09618e-06)
(0.000569918 -0.00267235 -4.97462e-06)
(0.000553006 -0.00253801 -4.82704e-06)
(0.000533183 -0.00240165 -4.65406e-06)
(0.000510557 -0.00226388 -4.4566e-06)
(0.00048528 -0.00212536 -4.23601e-06)
(0.000457537 -0.00198665 -3.9939e-06)
(0.000427552 -0.0018483 -3.73221e-06)
(0.00039559 -0.00171081 -3.45327e-06)
(0.000361945 -0.00157456 -3.15963e-06)
(0.000326948 -0.00143986 -2.8542e-06)
(0.000290952 -0.00130684 -2.54003e-06)
(0.000254342 -0.00117547 -2.22051e-06)
(0.000217534 -0.00104554 -1.89925e-06)
(0.000180969 -0.000916566 -1.5801e-06)
(0.000145124 -0.000787764 -1.26723e-06)
(0.000110532 -0.000657993 -9.65292e-07)
(7.78158e-05 -0.000525627 -6.79707e-07)
(4.77376e-05 -0.000388462 -4.17132e-07)
(2.17054e-05 -0.000243089 -1.90011e-07)
(2.46118e-06 -8.50239e-05 -2.55592e-08)
(9.12298e-06 -0.0031082 -8.00406e-08)
(2.27132e-05 -0.00333325 -1.98794e-07)
(3.73698e-05 -0.00350806 -3.27041e-07)
(5.40458e-05 -0.0036417 -4.72569e-07)
(6.89168e-05 -0.00375788 -6.02689e-07)
(9.04598e-05 -0.00385061 -7.90172e-07)
(0.000101906 -0.00393366 -8.90515e-07)
(0.000129857 -0.00400777 -1.13454e-06)
(0.000148395 -0.00406621 -1.29629e-06)
(0.000163295 -0.0041243 -1.42608e-06)
(0.000190404 -0.00417099 -1.66235e-06)
(0.000207053 -0.00421295 -1.80819e-06)
(0.000232876 -0.00424737 -2.03318e-06)
(0.000251738 -0.00427713 -2.19799e-06)
(0.000276992 -0.00429998 -2.41856e-06)
(0.00029809 -0.00431754 -2.60257e-06)
(0.000321772 -0.00432887 -2.80918e-06)
(0.000344943 -0.00433432 -3.01136e-06)
(0.00036794 -0.00433366 -3.21203e-06)
(0.000391281 -0.0043268 -3.4157e-06)
(0.000414042 -0.00431364 -3.61431e-06)
(0.000436746 -0.00429404 -3.81242e-06)
(0.000458868 -0.00426788 -4.00548e-06)
(0.000480442 -0.00423505 -4.19375e-06)
(0.000501227 -0.00419543 -4.37513e-06)
(0.000521093 -0.00414895 -4.54849e-06)
(0.000539837 -0.00409553 -4.71205e-06)
(0.00055728 -0.00403513 -4.86428e-06)
(0.000573218 -0.00396776 -5.00337e-06)
(0.000587461 -0.00389343 -5.12768e-06)
(0.000599805 -0.00381224 -5.23542e-06)
(0.000610062 -0.00372429 -5.32492e-06)
(0.000618038 -0.00362978 -5.39454e-06)
(0.000623559 -0.00352894 -5.44273e-06)
(0.00062646 -0.00342206 -5.46807e-06)
(0.000626599 -0.00330948 -5.46928e-06)
(0.000623853 -0.00319161 -5.44528e-06)
(0.000618133 -0.00306893 -5.39538e-06)
(0.000609372 -0.00294192 -5.31894e-06)
(0.000597538 -0.00281117 -5.21567e-06)
(0.000582635 -0.00267727 -5.08562e-06)
(0.000564703 -0.00254083 -4.92915e-06)
(0.000543828 -0.0024025 -4.74697e-06)
(0.000520128 -0.00226292 -4.54015e-06)
(0.000493773 -0.00212273 -4.31015e-06)
(0.000464957 -0.00198253 -4.05867e-06)
(0.000433919 -0.00184286 -3.7878e-06)
(0.000400936 -0.00170423 -3.49995e-06)
(0.000366312 -0.00156703 -3.19776e-06)
(0.000330387 -0.00143157 -2.88422e-06)
(0.00029352 -0.00129797 -2.56246e-06)
(0.000256103 -0.00116621 -2.23589e-06)
(0.000218556 -0.00103607 -1.90818e-06)
(0.000181325 -0.000907082 -1.58321e-06)
(0.000144893 -0.000778446 -1.26522e-06)
(0.000109807 -0.00064904 -9.58971e-07)
(7.67161e-05 -0.000517264 -6.70113e-07)
(4.64668e-05 -0.000381013 -4.0604e-07)
(2.0561e-05 -0.000237129 -1.80009e-07)
(2.12611e-06 -8.19426e-05 -2.23041e-08)
(1.00791e-05 -0.00316668 -8.82725e-08)
(2.41472e-05 -0.00339619 -2.11156e-07)
(4.04873e-05 -0.00357206 -3.5406e-07)
(5.88897e-05 -0.00370522 -5.14957e-07)
(7.63465e-05 -0.00382022 -6.67037e-07)
(9.85619e-05 -0.00391082 -8.608e-07)
(0.000111452 -0.00399548 -9.73337e-07)
(0.000138846 -0.00406411 -1.2126e-06)
(0.000156937 -0.00412908 -1.37084e-06)
(0.000174281 -0.00418251 -1.52155e-06)
(0.000201557 -0.00423144 -1.75967e-06)
(0.000219578 -0.0042716 -1.91746e-06)
(0.00024526 -0.00430648 -2.14119e-06)
(0.000265 -0.00433484 -2.31372e-06)
(0.000290888 -0.00435717 -2.53976e-06)
(0.000312607 -0.00437356 -2.7292e-06)
(0.000337038 -0.00438383 -2.94237e-06)
(0.000360851 -0.00438808 -3.15016e-06)
(0.000384583 -0.00438613 -3.35724e-06)
(0.000408576 -0.00437792 -3.5666e-06)
(0.000432021 -0.00436333 -3.77119e-06)
(0.000455367 -0.00434219 -3.97492e-06)
(0.000478124 -0.00431441 -4.17351e-06)
(0.000500245 -0.00427983 -4.36656e-06)
(0.000521531 -0.00423837 -4.55231e-06)
(0.0005418 -0.00418993 -4.72919e-06)
(0.000560875 -0.00413445 -4.89566e-06)
(0.000578547 -0.00407188 -5.04988e-06)
(0.00059462 -0.00400223 -5.19015e-06)
(0.000608888 -0.00392555 -5.31468e-06)
(0.000621151 -0.00384192 -5.42172e-06)
(0.000631209 -0.00375147 -5.50949e-06)
(0.000638873 -0.00365441 -5.57638e-06)
(0.000643963 -0.00355098 -5.62082e-06)
(0.00064632 -0.0034415 -5.6414e-06)
(0.0006458 -0.00332633 -5.63688e-06)
(0.00064229 -0.0032059 -5.6062e-06)
(0.000635706 -0.0030807 -5.54876e-06)
(0.000625991 -0.00295124 -5.46399e-06)
(0.000613122 -0.00281813 -5.3517e-06)
(0.000597117 -0.00268196 -5.21204e-06)
(0.00057803 -0.00254339 -5.04547e-06)
(0.00055596 -0.00240306 -4.85288e-06)
(0.000531043 -0.00226163 -4.63543e-06)
(0.000503463 -0.00211977 -4.39474e-06)
(0.00047343 -0.00197807 -4.13264e-06)
(0.000441198 -0.00183709 -3.85135e-06)
(0.000407057 -0.00169733 -3.55338e-06)
(0.000371322 -0.00155919 -3.24151e-06)
(0.000334346 -0.00142298 -2.91879e-06)
(0.000296495 -0.00128882 -2.58844e-06)
(0.000258168 -0.0011567 -2.25392e-06)
(0.000219792 -0.00102638 -1.91897e-06)
(0.000181818 -0.000897393 -1.58753e-06)
(0.000144739 -0.000768951 -1.26389e-06)
(0.000109121 -0.000639945 -9.5299e-07)
(7.56431e-05 -0.00050881 -6.60752e-07)
(4.52425e-05 -0.000373551 -3.95353e-07)
(1.95041e-05 -0.000231285 -1.70762e-07)
(1.83338e-06 -7.90491e-05 -1.94961e-08)
(1.02848e-05 -0.00322168 -9.06189e-08)
(2.37408e-05 -0.00344795 -2.08525e-07)
(4.17906e-05 -0.00362679 -3.6527e-07)
(5.84043e-05 -0.00376102 -5.10252e-07)
(7.49908e-05 -0.00387948 -6.55277e-07)
(9.90775e-05 -0.00397077 -8.64961e-07)
(0.000110004 -0.00405793 -9.6054e-07)
(0.000140689 -0.00412583 -1.22849e-06)
(0.00015916 -0.00419091 -1.38993e-06)
(0.000178337 -0.0042427 -1.55689e-06)
(0.000206848 -0.0042917 -1.80574e-06)
(0.000227352 -0.00433076 -1.98517e-06)
(0.00025436 -0.0043655 -2.22053e-06)
(0.000275875 -0.00439299 -2.40856e-06)
(0.000303162 -0.00441479 -2.64679e-06)
(0.000326345 -0.00443041 -2.84902e-06)
(0.000352067 -0.0044398 -3.07347e-06)
(0.00037713 -0.00444314 -3.29219e-06)
(0.000402009 -0.00444004 -3.50927e-06)
(0.000427073 -0.00443061 -3.728e-06)
(0.000451479 -0.00441462 -3.94098e-06)
(0.000475722 -0.00439197 -4.15254e-06)
(0.000499245 -0.00436252 -4.35782e-06)
(0.000522074 -0.00432615 -4.55705e-06)
(0.000543952 -0.00428275 -4.74797e-06)
(0.000564736 -0.00423225 -4.92935e-06)
(0.000584207 -0.00417459 -5.09927e-06)
(0.000602174 -0.00410973 -5.25607e-06)
(0.000618418 -0.00403768 -5.39784e-06)
(0.00063274 -0.00395851 -5.52285e-06)
(0.000644926 -0.00387231 -5.62921e-06)
(0.000654779 -0.00377924 -5.7152e-06)
(0.000662103 -0.0036795 -5.77913e-06)
(0.000666724 -0.00357338 -5.81947e-06)
(0.000668479 -0.00346119 -5.83481e-06)
(0.000667232 -0.00334332 -5.82394e-06)
(0.000662873 -0.00322023 -5.78585e-06)
(0.000655328 -0.00309241 -5.72003e-06)
(0.00064455 -0.00296043 -5.62598e-06)
(0.000630528 -0.00282488 -5.50363e-06)
(0.000613294 -0.0026864 -5.35324e-06)
(0.000592919 -0.00254564 -5.17544e-06)
(0.000569518 -0.00240329 -4.97122e-06)
(0.000543243 -0.00225999 -4.74193e-06)
(0.000514298 -0.00211644 -4.48932e-06)
(0.00048291 -0.00197323 -4.2154e-06)
(0.000449348 -0.00183094 -3.9225e-06)
(0.000413918 -0.00169006 -3.61329e-06)
(0.000376951 -0.001551 -3.29065e-06)
(0.000338807 -0.00141406 -2.95774e-06)
(0.000299866 -0.00127937 -2.61787e-06)
(0.000260534 -0.0011469 -2.27459e-06)
(0.000221246 -0.00101643 -1.93168e-06)
(0.000182461 -0.000887477 -1.59315e-06)
(0.000144684 -0.000759265 -1.26342e-06)
(0.000108502 -0.000630701 -9.47592e-07)
(7.46288e-05 -0.000500268 -6.51904e-07)
(4.40931e-05 -0.000366085 -3.85319e-07)
(1.85471e-05 -0.000225556 -1.62392e-07)
(1.58328e-06 -7.63301e-05 -1.707e-08)
(1.19867e-05 -0.00328269 -1.04076e-07)
(2.47081e-05 -0.00351202 -2.15189e-07)
(4.36835e-05 -0.0036944 -3.83196e-07)
(6.44778e-05 -0.00382193 -5.63373e-07)
(8.33547e-05 -0.00394773 -7.27182e-07)
(0.000108504 -0.00403124 -9.47611e-07)
(0.000121619 -0.00412257 -1.06158e-06)
(0.000153986 -0.0041866 -1.34438e-06)
(0.000172005 -0.00425562 -1.50197e-06)
(0.000192796 -0.00430434 -1.68304e-06)
(0.000220094 -0.00435603 -1.92126e-06)
(0.00024198 -0.00439302 -2.11273e-06)
(0.000268487 -0.00442851 -2.34375e-06)
(0.000291246 -0.00445471 -2.5426e-06)
(0.000319044 -0.00447614 -2.78529e-06)
(0.000343197 -0.00449062 -2.996e-06)
(0.000369815 -0.00449903 -3.2283e-06)
(0.000395777 -0.00450113 -3.45487e-06)
(0.000421676 -0.00449674 -3.68087e-06)
(0.000447625 -0.00448587 -3.90732e-06)
(0.000472981 -0.00446832 -4.1286e-06)
(0.000498089 -0.00444396 -4.3477e-06)
(0.000522463 -0.00441267 -4.56043e-06)
(0.000546035 -0.00437433 -4.76614e-06)
(0.000568587 -0.00432884 -4.96295e-06)
(0.000589924 -0.00427613 -5.14916e-06)
(0.000609849 -0.00421612 -5.32305e-06)
(0.00062814 -0.00414882 -5.48269e-06)
(0.000644589 -0.00407423 -5.62624e-06)
(0.000658973 -0.00399242 -5.7518e-06)
(0.000671085 -0.00390351 -5.85752e-06)
(0.000680716 -0.00380766 -5.94157e-06)
(0.000687675 -0.00370512 -6.00231e-06)
(0.00069178 -0.00359616 -6.03815e-06)
(0.000692875 -0.00348113 -6.04774e-06)
(0.000690827 -0.00336045 -6.02988e-06)
(0.000685533 -0.00323459 -5.98363e-06)
(0.000676929 -0.00310407 -5.90857e-06)
(0.000664979 -0.00296947 -5.8043e-06)
(0.000649687 -0.00283142 -5.67086e-06)
(0.0006311 -0.00269056 -5.50866e-06)
(0.000609306 -0.00254757 -5.31848e-06)
(0.000584439 -0.00240315 -5.10147e-06)
(0.000556672 -0.00225796 -4.85915e-06)
(0.000526226 -0.0021127 -4.59345e-06)
(0.00049335 -0.00196798 -4.30653e-06)
(0.000458329 -0.00182437 -4.0009e-06)
(0.000421487 -0.00168239 -3.67936e-06)
(0.000383169 -0.00154242 -3.34494e-06)
(0.00034375 -0.00140478 -3.0009e-06)
(0.000303621 -0.00126958 -2.65066e-06)
(0.000263197 -0.00113679 -2.29784e-06)
(0.000222921 -0.0010062 -1.94631e-06)
(0.000183264 -0.000877316 -1.60018e-06)
(0.000144743 -0.000749375 -1.26394e-06)
(0.000107971 -0.000621303 -9.42967e-07)
(7.36975e-05 -0.000491635 -6.4378e-07)
(4.30376e-05 -0.000358617 -3.76105e-07)
(1.76947e-05 -0.000219936 -1.54936e-07)
(1.37234e-06 -7.37609e-05 -1.5023e-08)
(1.35333e-05 -0.00334299 -1.18321e-07)
(2.41606e-05 -0.00357298 -2.11449e-07)
(5.02008e-05 -0.00375406 -4.37065e-07)
(6.14802e-05 -0.00388719 -5.35953e-07)
(8.02244e-05 -0.00401296 -7.02055e-07)
(0.000112058 -0.00410027 -9.77345e-07)
(0.000118322 -0.00419166 -1.03294e-06)
(0.000155204 -0.00425639 -1.35459e-06)
(0.0001728 -0.00432502 -1.50843e-06)
(0.000198 -0.00437279 -1.72826e-06)
(0.000225208 -0.00442407 -1.9656e-06)
(0.000252174 -0.00445984 -2.20157e-06)
(0.000278897 -0.00449475 -2.43479e-06)
(0.000304625 -0.00451975 -2.65924e-06)
(0.000333537 -0.00454029 -2.91156e-06)
(0.000359778 -0.00455368 -3.14061e-06)
(0.000387705 -0.00456091 -3.38434e-06)
(0.000415185 -0.00456176 -3.6242e-06)
(0.000442378 -0.00455595 -3.86151e-06)
(0.000469606 -0.00454352 -4.09913e-06)
(0.000496123 -0.00452428 -4.33052e-06)
(0.000522322 -0.00449811 -4.55915e-06)
(0.000547636 -0.00446487 -4.78009e-06)
(0.000572076 -0.00442445 -4.99338e-06)
(0.000595361 -0.00437674 -5.1966e-06)
(0.000617335 -0.00432166 -5.38837e-06)
(0.000637758 -0.00425917 -5.56661e-06)
(0.000656423 -0.00418926 -5.72951e-06)
(0.000673094 -0.00411197 -5.87501e-06)
(0.000687557 -0.00402736 -6.00126e-06)
(0.000699588 -0.00393558 -6.10627e-06)
(0.000708981 -0.00383681 -6.18825e-06)
(0.000715537 -0.0037313 -6.24548e-06)
(0.000719079 -0.00361936 -6.27642e-06)
(0.000719451 -0.00350137 -6.27969e-06)
(0.000716527 -0.00337775 -6.25419e-06)
(0.000710209 -0.003249 -6.19901e-06)
(0.000700447 -0.00311567 -6.11383e-06)
(0.000687215 -0.00297836 -5.99838e-06)
(0.000670535 -0.00283772 -5.85283e-06)
(0.00065047 -0.00269441 -5.67774e-06)
(0.000627128 -0.00254914 -5.47405e-06)
(0.000600665 -0.00240261 -5.24311e-06)
(0.000571273 -0.0022555 -4.98661e-06)
(0.000539196 -0.00210852 -4.70667e-06)
(0.000504702 -0.00196228 -4.40563e-06)
(0.000468098 -0.00181736 -4.08619e-06)
(0.000429726 -0.00167428 -3.7513e-06)
(0.000389948 -0.00153343 -3.40412e-06)
(0.000349153 -0.0013951 -3.04808e-06)
(0.000307743 -0.00125942 -2.68666e-06)
(0.000266147 -0.00112635 -2.32361e-06)
(0.000224816 -0.000995671 -1.96286e-06)
(0.000184233 -0.000866898 -1.60864e-06)
(0.000144929 -0.000739272 -1.26558e-06)
(0.000107545 -0.000611747 -9.39255e-07)
(7.28661e-05 -0.000482916 -6.36527e-07)
(4.20872e-05 -0.000351152 -3.67809e-07)
(1.69459e-05 -0.000214417 -1.48386e-07)
(1.19601e-06 -7.13238e-05 -1.33054e-08)
(1.40856e-05 -0.00340999 -1.22704e-07)
(2.58789e-05 -0.00364372 -2.25778e-07)
(5.34339e-05 -0.00382256 -4.65573e-07)
(6.69005e-05 -0.00396191 -5.83627e-07)
(9.09786e-05 -0.00407713 -7.94628e-07)
(0.000122286 -0.00416918 -1.06681e-06)
(0.000133871 -0.00425829 -1.16826e-06)
(0.000171592 -0.00432123 -1.49738e-06)
(0.000190079 -0.00439444 -1.65876e-06)
(0.000216117 -0.00443936 -1.88613e-06)
(0.000242038 -0.00449348 -2.11233e-06)
(0.000270134 -0.00452739 -2.35815e-06)
(0.000296067 -0.0045636 -2.58449e-06)
(0.000323119 -0.0045873 -2.82044e-06)
(0.000352237 -0.00460759 -3.07463e-06)
(0.000379615 -0.00461985 -3.31361e-06)
(0.000408479 -0.00462595 -3.56559e-06)
(0.000437008 -0.00462546 -3.81458e-06)
(0.000465461 -0.00461811 -4.06291e-06)
(0.000493724 -0.00460403 -4.30957e-06)
(0.000521352 -0.00458299 -4.55067e-06)
(0.00054858 -0.00455484 -4.78828e-06)
(0.000574905 -0.00451949 -5.01804e-06)
(0.000600241 -0.00447679 -5.23916e-06)
(0.000624338 -0.00442667 -5.44947e-06)
(0.000646984 -0.00436904 -5.64711e-06)
(0.000667956 -0.00430389 -5.83015e-06)
(0.000687014 -0.00423119 -5.99649e-06)
(0.000703931 -0.00415101 -6.14414e-06)
(0.000718471 -0.00406343 -6.27106e-06)
(0.000730413 -0.0039686 -6.3753e-06)
(0.000739539 -0.00386674 -6.45496e-06)
(0.000745654 -0.0037581 -6.50834e-06)
(0.000748578 -0.00364302 -6.53389e-06)
(0.000748161 -0.00352191 -6.53027e-06)
(0.000744278 -0.00339521 -6.4964e-06)
(0.000736845 -0.00326345 -6.43149e-06)
(0.000725822 -0.00312719 -6.33531e-06)
(0.000711198 -0.00298707 -6.20771e-06)
(0.00069301 -0.00284376 -6.04901e-06)
(0.000671344 -0.00269793 -5.85995e-06)
(0.000646327 -0.00255032 -5.64163e-06)
(0.000618137 -0.00240163 -5.39562e-06)
(0.00058699 -0.00225257 -5.12381e-06)
(0.000553154 -0.00210385 -4.82852e-06)
(0.000516919 -0.00195609 -4.51229e-06)
(0.000478614 -0.00180987 -4.17799e-06)
(0.0004386 -0.0016657 -3.82877e-06)
(0.000397257 -0.00152398 -3.46794e-06)
(0.000354991 -0.001385 -3.09905e-06)
(0.000312217 -0.00124887 -2.72572e-06)
(0.000269374 -0.00111555 -2.35179e-06)
(0.000226926 -0.000984828 -1.9813e-06)
(0.000185369 -0.000856209 -1.61857e-06)
(0.000145249 -0.000728949 -1.26838e-06)
(0.000107235 -0.00060203 -9.36552e-07)
(7.21454e-05 -0.000474109 -6.30241e-07)
(4.12473e-05 -0.000343689 -3.60477e-07)
(1.62963e-05 -0.000208991 -1.42703e-07)
(1.04958e-06 -6.90008e-05 -1.18752e-08)
(1.45624e-05 -0.00347939 -1.26889e-07)
(2.67149e-05 -0.00371215 -2.33164e-07)
(5.56793e-05 -0.0038928 -4.84875e-07)
(6.82479e-05 -0.00403423 -5.94859e-07)
(9.45525e-05 -0.00415374 -8.25653e-07)
(0.000120969 -0.00424922 -1.05487e-06)
(0.000135536 -0.00433892 -1.18256e-06)
(0.000168407 -0.00440299 -1.46933e-06)
(0.000188802 -0.00447277 -1.64807e-06)
(0.000221288 -0.00451642 -1.93089e-06)
(0.000245803 -0.00456914 -2.14521e-06)
(0.000281279 -0.00460182 -2.45532e-06)
(0.000306432 -0.00463684 -2.67464e-06)
(0.000338765 -0.00465914 -2.95678e-06)
(0.000368513 -0.00467837 -3.21647e-06)
(0.000399038 -0.00468931 -3.48304e-06)
(0.000429323 -0.0046941 -3.7474e-06)
(0.000459694 -0.0046922 -4.0125e-06)
(0.000489623 -0.00468322 -4.27369e-06)
(0.000519325 -0.00466736 -4.53294e-06)
(0.00054831 -0.00464438 -4.7859e-06)
(0.000576803 -0.00461412 -5.03457e-06)
(0.000604227 -0.00457651 -5.27391e-06)
(0.00063057 -0.0045314 -5.50383e-06)
(0.00065552 -0.00447871 -5.72158e-06)
(0.000678898 -0.00441838 -5.92563e-06)
(0.000700443 -0.00435037 -6.11367e-06)
(0.000719926 -0.00427471 -6.28371e-06)
(0.000737092 -0.00419145 -6.43354e-06)
(0.000751709 -0.00410071 -6.56115e-06)
(0.000763541 -0.00400265 -6.66443e-06)