/*--------------------------------*- C++ -*----------------------------------*\
| =========                 |                                                 |
| \\      /  F ield         | OpenFOAM: The Open Source CFD Toolbox           |
|  \\    /   O peration     | Version:  v2012                                 |
|   \\  /    A nd           | Website:  www.openfoam.com                      |
|    \\/     M anipulation  |                                                 |
\*---------------------------------------------------------------------------*/
FoamFile
{
    version     2.0;
    format      ascii;
    class       volScalarField;
    location    "0.25";
    object      alpha.water;
}
// * * * * * * * * * * * * * * * * * * * * * * * * * * * * * * * * * * * * * //

dimensions      [0 0 0 0 0 0 0];


internalField   nonuniform List<scalar> 
2625
(
-9.69755e-127
-9.55655e-121
-3.50165e-117
-3.24666e-115
-1.62062e-114
-1.78067e-114
-8.78308e-115
-3.17759e-115
-4.91084e-116
-4.86717e-117
-3.61084e-118
-2.36049e-119
-1.26949e-120
-5.48047e-122
-2.0788e-123
-7.10326e-125
-4.81448e-125
-2.09914e-120
-9.82525e-116
-6.84158e-111
-7.8291e-106
-1.27001e-99
-2.58209e-95
-2.32074e-85
-1.08135e-85
-2.38294e-86
-3.29924e-87
-3.2173e-88
-2.34867e-89
-1.3326e-90
-6.02469e-92
-2.20845e-93
-6.6477e-95
-1.65872e-96
-3.45524e-98
-6.04087e-100
-3.51926e-124
-1.95227e-118
-4.54119e-115
-3.16553e-113
-1.30522e-112
-1.22955e-112
-5.58595e-113
-1.76794e-113
-2.64679e-114
-2.44892e-115
-1.75364e-116
-1.09619e-117
-5.62514e-119
-2.36866e-120
-8.74625e-122
-2.92359e-123
-4.67699e-124
-1.88082e-119
-8.53138e-115
-5.77775e-110
-6.53781e-105
-3.42778e-98
-2.24941e-94
-7.67002e-84
-3.59798e-84
-7.98966e-85
-1.1156e-85
-1.09797e-86
-8.0949e-88
-4.64128e-89
-2.12148e-90
-7.86584e-92
-2.3957e-93
-6.05002e-95
-1.27575e-96
-2.25806e-98
-1.15482e-121
-3.68936e-116
-5.54817e-113
-2.94052e-111
-1.00523e-110
-8.14232e-111
-3.38055e-111
-9.51013e-112
-1.37259e-112
-1.20602e-113
-8.13578e-115
-4.90246e-116
-2.41289e-117
-9.85502e-119
-3.5383e-120
-1.15591e-121
-5.80279e-123
-1.33029e-118
-5.84125e-114
-3.84631e-109
-4.32313e-104
-9.38521e-97
-1.57575e-93
-2.4547e-82
-1.16035e-82
-2.59888e-83
-3.66314e-84
-3.64209e-85
-2.71447e-86
-1.5743e-87
-7.2827e-89
-2.73402e-90
-8.4344e-92
-2.15811e-93
-4.61178e-95
-8.27336e-97
-3.13265e-119
-6.53484e-114
-6.44364e-111
-2.59567e-109
-7.31102e-109
-5.18198e-109
-1.97631e-109
-4.9283e-110
-6.8762e-111
-5.71818e-112
-3.68049e-113
-2.10816e-114
-9.99492e-116
-3.9557e-117
-1.38532e-118
-4.42842e-120
-1.37618e-121
-7.0005e-118
-2.97013e-113
-1.89897e-108
-2.15238e-103
-2.52053e-95
-8.66685e-93
-7.60236e-81
-3.6247e-81
-8.19593e-82
-1.16723e-82
-1.17348e-83
-8.84979e-85
-5.19663e-86
-2.43528e-87
-9.26581e-89
-2.89822e-90
-7.52112e-92
-1.63047e-93
-2.96774e-95
-7.35898e-117
-1.08388e-111
-7.05416e-109
-2.1828e-107
-5.05037e-107
-3.17245e-107
-1.10124e-107
-2.45637e-108
-3.31816e-109
-2.61556e-110
-1.60568e-111
-8.78297e-113
-4.01619e-114
-1.5397e-115
-5.26007e-117
-1.64317e-118
-4.61018e-120
-2.5067e-117
-1.02269e-112
-6.30154e-108
-7.78606e-103
-6.54666e-94
-4.48386e-92
-2.27672e-79
-1.09587e-79
-2.50384e-80
-3.60624e-81
-3.66936e-82
-2.80261e-83
-1.66777e-84
-7.92476e-86
-3.05878e-87
-9.70957e-89
-2.55799e-90
-5.631e-92
-1.04095e-93
-1.66463e-114
-1.67968e-109
-7.31962e-107
-1.74711e-105
-3.32973e-105
-1.86254e-105
-5.88601e-106
-1.17983e-106
-1.53569e-107
-1.15031e-108
-6.76326e-110
-3.52846e-111
-1.5529e-112
-5.79448e-114
-1.93093e-115
-5.88769e-117
-1.60152e-118
-5.65291e-117
-2.1785e-112
-1.23045e-107
-2.66436e-102
-1.63645e-92
-5.81976e-91
-6.58791e-78
-3.20414e-78
-7.40406e-79
-1.07941e-79
-1.11255e-80
-8.61367e-82
-5.19907e-83
-2.50714e-84
-9.82547e-86
-3.16808e-87
-8.48075e-89
-1.89747e-90
-3.56578e-92
-3.82157e-112
-2.42904e-107
-7.13976e-105
-1.32405e-103
-2.08949e-103
-1.04551e-103
-2.98071e-104
-5.42674e-105
-6.81049e-106
-4.85947e-107
-2.74011e-108
-1.36365e-109
-5.7451e-111
-2.09934e-112
-6.8173e-114
-2.02522e-115
-5.39927e-117
-1.6438e-116
-5.88378e-112
-2.55615e-107
-2.03191e-101
-3.93042e-91
-1.80454e-89
-1.84031e-76
-9.05208e-77
-2.11735e-77
-3.12717e-78
-3.26779e-79
-2.56678e-80
-1.57275e-81
-7.70341e-83
-3.06788e-84
-1.00564e-85
-2.73775e-87
-6.23111e-89
-1.1914e-90
-7.64519e-110
-3.31949e-105
-6.61854e-103
-9.54801e-102
-1.2563e-101
-5.65526e-102
-1.46043e-102
-2.40905e-103
-2.86887e-104
-1.9737e-105
-1.06542e-106
-5.06271e-108
-2.05878e-109
-7.36849e-111
-2.33243e-112
-6.73969e-114
-1.75516e-115
-1.58669e-115
-5.6291e-111
-2.37569e-106
-2.03282e-100
-9.06226e-90
-6.12054e-88
-4.95793e-75
-2.46855e-75
-5.84996e-76
-8.76046e-77
-9.28893e-78
-7.40844e-79
-4.612e-80
-2.29636e-81
-9.30106e-83
-3.10209e-84
-8.59554e-86
-1.99175e-87
-3.87796e-89
-1.35721e-107
-4.245e-103
-5.78113e-101
-6.541e-100
-7.20153e-100
-2.92845e-100
-6.81928e-101
-1.03316e-101
-1.16052e-102
-7.66779e-104
-3.99009e-105
-1.80418e-106
-7.12226e-108
-2.48399e-109
-7.67371e-111
-2.16027e-112
-5.49358e-114
-1.60412e-114
-5.42595e-110
-2.26648e-105
-7.16658e-100
-2.00487e-88
-2.03088e-86
-1.28683e-73
-6.49144e-74
-1.55991e-74
-2.37062e-75
-2.5527e-76
-2.06893e-77
-1.30963e-78
-6.63402e-80
-2.73495e-81
-9.28818e-83
-2.62156e-84
-6.18945e-86
-1.22812e-87
-2.15654e-105
-5.06461e-101
-4.70856e-99
-4.23953e-98
-3.91938e-98
-1.45338e-98
-3.00792e-99
-4.25026e-100
-4.49374e-101
-2.84194e-102
-1.4293e-103
-6.16943e-105
-2.3773e-106
-8.04429e-108
-2.42744e-109
-6.66866e-111
-1.6531e-112
-1.7202e-113
-4.9935e-109
-2.09352e-104
3.77789e-98
-4.25548e-87
-6.55897e-85
-3.21405e-72
-1.64418e-72
-4.00999e-73
-6.18967e-74
-6.7744e-75
-5.58415e-76
-3.5971e-77
-1.85523e-78
-7.7909e-80
-2.69626e-81
-7.75771e-83
-1.8676e-84
-3.77937e-86
-3.91583e-103
-5.56084e-99
-3.56587e-97
-2.57864e-96
-2.02068e-96
-6.85657e-97
-1.27372e-97
-1.67546e-98
-1.6655e-99
-1.00593e-100
-4.90815e-102
-2.02104e-103
-7.62809e-105
-2.49529e-106
-7.36039e-108
-1.97575e-109
-4.77309e-111
-2.20137e-112
-4.33273e-108
-1.8408e-103
1.49506e-96
-8.6708e-86
-2.05839e-83
-7.71541e-71
-4.00627e-71
-9.92576e-72
-1.55752e-72
-1.73409e-73
-1.45497e-74
-9.5453e-76
-5.01637e-77
-2.14748e-78
-7.57919e-80
-2.22463e-81
-5.46497e-83
-1.12872e-84
-7.20579e-101
-5.72641e-97
-2.54827e-95
-1.47639e-94
-9.89448e-95
-3.06508e-95
-5.10428e-96
-6.29041e-97
-5.88868e-98
-3.38598e-99
-1.59031e-100
-6.40559e-102
-2.34697e-103
-7.44526e-105
-2.14037e-106
-5.60902e-108
-1.3199e-109
-3.74761e-111
-3.5198e-107
-1.51973e-102
3.9121e-95
-1.69856e-84
-6.2739e-82
-1.77781e-69
-9.37917e-70
-2.36275e-70
-3.77242e-71
-4.27626e-72
-3.65516e-73
-2.44415e-74
-1.30985e-75
-5.72058e-77
-2.06051e-78
-6.1743e-80
-1.54884e-81
-3.26717e-83
-1.27455e-98
-5.50982e-95
-1.70823e-93
-7.98881e-93
-4.63692e-93
-1.28096e-93
-1.96009e-94
-2.27025e-95
-1.98288e-96
-1.09382e-97
-4.92735e-99
-1.93964e-100
-6.90945e-102
-2.129e-103
-5.9636e-105
-1.52415e-106
-3.48675e-108
-7.95406e-110
-2.65779e-106
-1.16153e-101
8.74478e-94
-3.20805e-83
-1.85881e-80
-3.92673e-68
-2.10684e-68
-5.40166e-69
-8.78328e-70
-1.01458e-70
-8.84207e-72
-6.03135e-73
-3.29869e-74
-1.47085e-75
-5.41079e-77
-1.6564e-78
-4.24595e-80
-9.15393e-82
-2.06023e-96
-4.92466e-93
-1.06704e-91
-4.03126e-91
-2.07013e-91
-5.07358e-92
-7.17552e-93
-7.77273e-94
-6.34572e-95
-3.37265e-96
-1.4583e-97
-5.59481e-99
-1.93339e-100
-5.813e-102
-1.58307e-103
-3.94229e-105
-8.76485e-107
-1.82391e-108
-1.85065e-105
-8.13204e-101
1.79564e-92
-5.86777e-82
-5.36798e-79
-8.3019e-67
-4.53458e-67
-1.18439e-67
-1.96315e-68
-2.31291e-69
-2.05693e-70
-1.43243e-71
-8.0016e-73
-3.64535e-74
-1.3706e-75
-4.28957e-77
-1.12439e-78
-2.47918e-80
-3.03977e-94
-4.05719e-91
-6.21647e-90
-1.91687e-89
-8.65511e-90
-1.91156e-90
-2.46765e-91
-2.51122e-92
-1.93455e-93
-9.88727e-95
-4.10927e-96
-1.53174e-97
-5.1178e-99
-1.50169e-100
-3.98652e-102
-9.60726e-104
-2.08681e-105
-4.13133e-107
-1.17738e-104
-5.17632e-100
3.50138e-91
-1.04547e-80
-1.51831e-77
-1.6775e-65
-9.33751e-66
-2.48704e-66
-4.20618e-67
-5.05897e-68
-4.59511e-69
-3.2697e-70
-1.86695e-71
-8.69692e-73
-3.34454e-74
-1.07089e-75
-2.87237e-77
-6.48153e-79
-4.13231e-92
-3.1012e-89
-3.46052e-88
-8.73486e-88
-3.4196e-88
-6.87792e-89
-8.16574e-90
-7.75399e-91
-5.60367e-92
-2.70849e-93
-1.0921e-94
-3.96035e-96
-1.28534e-97
-3.68539e-99
-9.49741e-101
-2.22082e-102
-4.70209e-104
-8.93571e-106
-6.7735e-104
-2.97505e-99
6.60091e-90
-1.82609e-79
-4.23489e-76
-3.23444e-64
-1.8367e-64
-4.99378e-65
-8.62595e-66
-1.06013e-66
-9.8436e-68
-7.16297e-69
-4.18402e-70
-1.9945e-71
-7.85103e-73
-2.57369e-74
-7.06868e-76
-1.63346e-77
-5.11398e-90
-2.19631e-87
-1.80657e-86
-3.735e-86
-1.29648e-86
-2.33842e-87
-2.58165e-88
-2.27179e-89
-1.5416e-90
-7.07262e-92
-2.75888e-93
-9.71064e-95
-3.05674e-96
-8.51443e-98
-2.12627e-99
-4.83067e-101
-9.91492e-103
-1.81685e-104
-3.48766e-103
-1.5315e-98
1.21301e-88
-3.14198e-78
-1.17379e-74
-5.9409e-63
-3.44541e-63
-9.57269e-64
-1.69054e-64
-2.12508e-65
-2.01898e-66
-1.50376e-67
-8.99325e-69
-4.39045e-70
-1.77033e-71
-5.94587e-73
-1.67334e-74
-3.96252e-76
-5.7599e-88
-1.43337e-85
-8.75979e-85
-1.46797e-84
-4.65292e-85
-7.49723e-86
-7.73632e-87
-6.28256e-88
-4.00708e-89
-1.75385e-90
-6.58207e-92
-2.24459e-93
-6.82838e-95
-1.84064e-96
-4.4519e-98
-9.79217e-100
-1.94179e-101
-3.43066e-103
-1.59229e-102
-6.99402e-98
2.17305e-87
-5.33023e-77
-3.25341e-73
-1.03763e-61
-6.15292e-62
-1.74886e-62
-3.16096e-63
-4.06821e-64
-3.95855e-65
-3.02053e-66
-1.85111e-67
-9.26255e-69
-3.82879e-70
-1.31849e-71
-3.80485e-73
-9.23903e-75
-5.89711e-86
-8.5303e-84
-3.89601e-83
-5.32199e-83
-1.55959e-83
-2.24798e-84
-2.17287e-85
-1.6496e-86
-9.88081e-88
-4.11404e-89
-1.48292e-90
-4.90326e-92
-1.42646e-93
-3.71977e-95
-8.67048e-97
-1.8357e-98
-3.50315e-100
-5.93867e-102
-6.4052e-102
-2.80053e-97
3.77029e-86
-8.87253e-76
-9.03685e-72
-1.72009e-60
-1.04413e-60
-3.03958e-61
-5.62895e-62
-7.42507e-63
-7.40695e-64
-5.79555e-65
-3.64283e-66
-1.86986e-67
-7.93001e-69
-2.80202e-70
-8.29711e-72
-2.06732e-73
-5.42177e-84
-4.70436e-82
-1.61491e-81
-1.79433e-81
-4.86557e-82
-6.31734e-83
-5.73484e-84
-4.07639e-85
-2.27637e-86
-9.05045e-88
-3.13026e-89
-9.88726e-91
-2.7753e-92
-6.96338e-94
-1.55669e-95
-3.14921e-97
-5.7361e-99
-9.27628e-101
-2.29274e-101
-9.68532e-97
6.26699e-85
-1.4341e-74
-2.50592e-70
-2.7008e-59
-1.68038e-59
-5.01616e-60
-9.52882e-61
-1.28967e-61
-1.3203e-62
-1.06038e-63
-6.84235e-65
-3.60599e-66
-1.57029e-67
-5.69764e-69
-1.73245e-70
-4.43227e-72
-4.50134e-82
-2.40791e-80
-6.30578e-80
-5.65773e-80
-1.41999e-80
-1.66644e-81
-1.41601e-82
-9.39736e-84
-4.92927e-85
-1.85999e-86
-6.19222e-88
-1.8556e-89
-5.00273e-91
-1.20023e-92
-2.54807e-94
-4.88885e-96
-8.40581e-98
-1.27969e-99
-7.89969e-101
-2.83203e-96
9.85242e-84
-2.219e-73
-6.87328e-69
-4.00805e-58
-2.55935e-58
-7.84427e-59
-1.53038e-59
-2.12768e-60
-2.23785e-61
-1.84671e-62
-1.2245e-63
-6.63166e-65
-2.96783e-66
-1.10668e-67
-3.45796e-69
-9.0901e-71
-3.35184e-80
-1.11837e-78
-2.27828e-78
-1.67251e-78
-3.78208e-79
-4.11436e-80
-3.21687e-81
-2.00718e-82
-9.91767e-84
-3.53712e-85
-1.12522e-86
-3.22323e-88
-8.28473e-90
-1.87542e-91
-3.75165e-93
-6.73334e-95
-1.07481e-96
-1.50366e-98
-3.2351e-100
-6.74422e-96
1.4458e-82
-3.23523e-72
-1.84189e-67
-5.60878e-57
-3.68083e-57
-1.15988e-57
-2.32701e-58
-3.32735e-59
-3.59959e-60
-3.05542e-61
-2.08395e-62
-1.16094e-63
-5.34409e-65
-2.04969e-66
-6.58642e-68
-1.78028e-69
-2.22043e-78
-4.64126e-77
-7.52481e-77
-4.57123e-77
-9.19704e-78
-9.40812e-79
-6.79903e-80
-3.95001e-81
-1.8393e-82
-6.20848e-84
-1.88907e-85
-5.12878e-87
-1.24536e-88
-2.65511e-90
-4.87577e-92
-8.06643e-94
-1.14784e-95
-1.40116e-97
-1.64484e-99
-1.16857e-95
1.95517e-81
-4.37385e-71
-4.76235e-66
-7.38293e-56
-4.98682e-56
-1.61789e-56
-3.34246e-57
-4.92179e-58
-5.48322e-59
-4.79288e-60
-3.36616e-61
-1.93085e-62
-9.151e-64
-3.61321e-65
-1.19498e-66
-3.32357e-68
-1.32536e-76
-1.81283e-75
-2.29938e-75
-1.18008e-75
-2.14617e-76
-2.02439e-77
-1.3579e-78
-7.12549e-80
-3.12206e-81
-9.97082e-83
-2.87695e-84
-7.36156e-86
-1.67601e-87
-3.28239e-89
-5.38646e-91
-7.65026e-93
-9.27712e-95
-8.52702e-97
-5.44449e-99
-3.48798e-97
2.40567e-80
-5.39642e-70
-1.17523e-64
-9.1171e-55
-6.34811e-55
-2.12368e-55
-4.52446e-56
-6.87032e-57
-7.89241e-58
-7.11281e-59
-5.14984e-60
-3.0448e-61
-1.48717e-62
-6.05055e-64
-2.0612e-65
-5.90336e-67
-6.96397e-75
-6.43658e-74
-6.60083e-74
-2.86094e-74
-4.6634e-75
-3.99259e-76
-2.48962e-77
-1.20721e-78
-4.89196e-80
-1.48089e-81
-4.02007e-83
-9.50587e-85
-1.99385e-86
-3.51382e-88
-4.80662e-90
-4.86481e-92
-4.22114e-94
0
-1.51196e-106
0
2.65773e-79
-5.97677e-69
-2.74561e-63
-1.05319e-53
-7.57198e-54
-2.61625e-54
-5.75696e-55
-9.0281e-56
-1.0709e-56
-9.96351e-58
-7.44563e-59
-4.54259e-60
-2.28898e-61
-9.60517e-63
-3.37327e-64
-9.95653e-66
-3.21559e-73
-2.09305e-72
-1.725e-72
-6.43283e-73
-9.28483e-74
-7.26197e-75
-4.16494e-76
-1.87554e-77
-6.98283e-79
-1.97225e-80
-4.94718e-82
-1.07609e-83
-2.01216e-85
-3.01437e-87
-2.88152e-89
-1.57133e-92
1.40741e-97
6.57095e-96
5.09988e-98
2.30415e-94
2.59742e-78
-5.83373e-68
-6.04289e-62
-1.13455e-52
-8.43749e-53
-3.01624e-53
-6.86666e-54
-1.11386e-54
-1.36631e-55
-1.31415e-56
-1.01492e-57
-6.39719e-59
-3.32923e-60
-1.44238e-61
-5.22664e-63
-1.59117e-64
-1.31244e-71
-6.03724e-71
-4.0283e-71
-1.34342e-71
-1.68294e-72
-1.21321e-73
-6.30655e-75
-2.6054e-76
-8.87003e-78
-2.32302e-79
-5.30272e-81
-1.05041e-82
-1.60586e-84
-1.67153e-86
3.15325e-106
1.07413e-92
6.42448e-92
4.482e-92
2.30466e-94
1.99749e-87
2.20623e-77
-4.90729e-67
-1.2517e-60
-1.13586e-51
-8.75465e-52
-3.24412e-52
-7.65478e-53
-1.28661e-53
-1.63466e-54
-1.62781e-55
-1.30102e-56
-8.48308e-58
-4.56495e-59
-2.04418e-60
-7.64953e-62
-2.40409e-63
-4.7526e-70
-1.59331e-69
-8.58085e-70
-2.49672e-70
-2.77474e-71
-1.86075e-72
-8.74508e-74
-3.24506e-75
-9.89242e-77
-2.36398e-78
-4.77818e-80
-7.96176e-82
-8.29813e-84
1.60782e-107
7.65624e-89
1.65961e-88
1.49177e-88
6.77489e-89
1.01519e-90
3.57733e-83
1.59496e-76
-3.45359e-66
-2.44917e-59
-1.05287e-50
-8.42796e-51
-3.24404e-51
-7.94953e-52
-1.38707e-52
-1.82852e-53
-1.88825e-54
-1.56416e-55
-1.05647e-56
-5.88595e-58
-2.72742e-59
-1.05491e-60
-3.42607e-62
-1.54438e-68
-3.82026e-68
-1.66241e-68
-4.27719e-69
-4.18174e-70
-2.52447e-71
-1.06666e-72
-3.54486e-74
-9.60288e-76
-2.03587e-77
-3.40836e-79
-3.89084e-81
-6.97686e-105
2.22979e-84
6.76515e-84
1.3043e-83
1.11125e-83
4.49397e-85
8.8312e-86
1.03885e-81
9.62733e-76
-1.94706e-65
-4.56808e-58
-8.99831e-50
-7.49789e-50
-3.00467e-50
-7.66344e-51
-1.39097e-51
-1.90622e-52
-2.04494e-53
-1.75853e-54
-1.23218e-55
-7.11708e-57
-3.41688e-58
-1.36714e-59
-4.51309e-67
-8.31488e-67
-2.89594e-67
-6.57701e-68
-5.62937e-69
-3.01768e-70
-1.13671e-71
-3.33038e-73
-7.94741e-75
-1.37552e-76
-1.5853e-78
4.22128e-82
2.68836e-80
1.03368e-79
2.83226e-79
4.95104e-79
4.53824e-79
3.02565e-80
7.47795e-82
1.16371e-79
4.77639e-75
-8.16389e-65
-8.2283e-57
-7.05744e-49
-6.13698e-49
-2.56689e-49
-6.83069e-50
-1.29268e-50
-1.84551e-51
-2.06071e-52
-1.84289e-53
-1.34177e-54
-8.04656e-56
-4.00786e-57
-1.20054e-65
-1.59973e-65
-4.4426e-66
-8.77464e-67
-6.81646e-68
-3.33035e-69
-1.07805e-70
-2.53753e-72
-4.83108e-74
-5.72163e-76
-2.1669e-95
7.53795e-79
4.69386e-78
1.72042e-77
4.39744e-77
7.16395e-77
7.00361e-77
1.06093e-75
5.86118e-77
4.17866e-75
1.06683e-74
-2.11784e-64
-1.44916e-55
-5.05276e-48
-4.59821e-48
-2.01312e-48
-5.60466e-49
-1.10873e-49
-1.65291e-50
-1.92519e-51
-1.79398e-52
-1.35961e-53
-8.47909e-55
-4.38791e-56
-2.87705e-64
-2.78283e-64
-6.20503e-65
-1.07261e-65
-7.44156e-67
-3.07455e-68
-8.24985e-70
-1.30821e-71
-1.91615e-73
-1.0333e-101
1.0581e-98
1.55266e-78
1.00565e-77
3.84751e-77
1.03339e-76
1.73595e-76
2.04252e-76
1.49182e-73
1.56608e-72
6.35836e-73
8.27448e-71
6.32623e-65
-2.50866e-54
-3.28219e-47
-3.13579e-47
-1.44164e-47
-4.21227e-48
-8.73591e-49
-1.3636e-49
-1.66067e-50
-1.61596e-51
-1.27731e-52
-8.2984e-54
-4.46886e-55
-6.52182e-63
5.1889e-73
2.21747e-70
9.36285e-73
1.77636e-68
1.58823e-62
-4.25623e-53
-1.92077e-46
-1.93346e-46
-9.36882e-47
-2.88331e-47
-6.29011e-48
-1.03114e-48
-1.31666e-49
-1.34117e-50
-1.10805e-51
-7.51392e-53
-4.21811e-54
9.51009e-70
1.12721e-69
3.71251e-66
8.54046e-60
-7.07046e-52
-1.00421e-45
-1.06939e-45
-5.48536e-46
-1.78566e-46
-4.11388e-47
-7.1077e-48
-9.54577e-49
-1.02068e-49
-8.8357e-51
-6.26754e-52
-3.67479e-53
4.10068e-66
6.66315e-62
6.32527e-58
-1.16966e-50
-4.64302e-45
-5.25564e-45
-2.86843e-45
-9.92745e-46
-2.42672e-46
-4.43753e-47
-6.29136e-48
-7.08407e-49
-6.44351e-50
-4.79281e-51
-2.94133e-52
1.44829e-62
5.81619e-58
6.95248e-58
-2.00584e-49
-1.87466e-44
-2.26824e-44
-1.32544e-44
-4.90764e-45
-1.28026e-45
-2.49045e-46
-3.7438e-47
-4.456e-48
-4.27246e-49
-3.34172e-50
-2.15177e-51
4.95987e-59
1.07361e-52
1.44964e-52
-3.69512e-48
-6.50259e-44
-8.46807e-44
-5.339e-44
-2.13177e-44
-5.97865e-45
-1.24511e-45
-1.99533e-46
-2.52179e-47
-2.55852e-48
-2.11111e-49
-1.43026e-50
1.64511e-55
4.81232e-49
2.79864e-49
-7.21867e-47
-1.89478e-43
-2.67989e-43
-1.84138e-43
-8.01159e-44
-2.43918e-44
-5.48376e-45
-9.43244e-46
-1.27293e-46
-1.37288e-47
-1.19963e-48
-8.57872e-50
5.28337e-52
3.84452e-47
1.42361e-47
-1.40144e-45
-4.48572e-43
-6.98248e-43
-5.30268e-43
-2.55011e-43
-8.54406e-44
-2.09736e-44
-3.90741e-45
-5.67107e-46
-6.53907e-47
-6.079e-48
-4.60607e-49
1.64185e-48
1.26351e-46
6.0177e-47
-2.45452e-44
-8.16754e-43
-1.42847e-42
-1.22747e-42
-6.66039e-43
-2.50672e-43
-6.8331e-44
-1.39649e-44
-2.20076e-45
-2.73299e-46
-2.71867e-47
-2.19266e-48
4.93365e-45
5.14871e-47
-1.12968e-66
-3.17882e-43
-1.0516e-42
-2.09053e-42
-2.14222e-42
-1.35398e-42
-5.92153e-43
-1.84384e-43
-4.21561e-44
-7.3133e-45
-9.8788e-46
-1.05939e-46
-9.14671e-48
1.43274e-41
1.51428e-43
4.29217e-67
-3.02283e-45
-1.00174e-42
-1.70711e-42
-2.48281e-42
-1.93104e-42
-1.04275e-42
-3.93397e-43
-1.04192e-43
-2.03313e-44
-3.0304e-45
-3.53889e-46
-3.29504e-47
4.01546e-38
4.3146e-40
1.17982e-55
-4.4921e-42
-1.40741e-43
-1.02235e-45
-1.35755e-42
-1.46919e-42
-1.09411e-42
-6.0274e-43
-2.0017e-43
-4.56888e-44
-7.68686e-45
-9.91935e-46
-2.35737e-123
-2.39749e-117
-7.59561e-114
-3.09128e-112
-1.39024e-111
-1.66791e-111
-8.46491e-112
-2.35631e-112
-4.19708e-113
-5.23847e-114
-4.87301e-115
-3.60623e-116
-2.19527e-117
-1.12432e-118
-4.94907e-120
-1.89655e-121
-6.41721e-123
-1.31905e-120
-6.14374e-116
-4.27234e-111
-4.8682e-106
-3.84396e-100
-1.61719e-95
-1.43442e-85
-6.68809e-86
-1.47487e-86
-2.04344e-87
-1.99408e-88
-1.45668e-89
-8.27036e-91
-3.74124e-92
-1.37217e-93
-4.13247e-95
-1.03159e-96
-2.14973e-98
-3.75972e-100
-8.64757e-121
-4.9219e-115
-9.81254e-112
-3.00986e-110
-1.11808e-109
-1.16261e-109
-5.32299e-110
-1.35506e-110
-2.26184e-111
-2.65358e-112
-2.35122e-113
-1.66738e-114
-9.77516e-116
-4.84811e-117
-2.07214e-118
-7.73626e-120
-2.54712e-121
-1.18141e-119
-5.33194e-115
-3.60685e-110
-4.0581e-105
-9.42437e-99
-1.41129e-94
-4.7363e-84
-2.22333e-84
-4.94077e-85
-6.90401e-86
-6.79997e-87
-5.01701e-88
-2.87855e-89
-1.3166e-90
-4.88456e-92
-1.48852e-93
-3.76096e-95
-7.93418e-97
-1.4049e-98
-2.81421e-118
-9.38135e-113
-1.19639e-109
-2.78434e-108
-8.59486e-108
-7.76718e-108
-3.21284e-108
-7.49705e-109
-1.17384e-109
-1.29775e-110
-1.09482e-111
-7.43979e-113
-4.20481e-114
-2.0198e-115
-8.38654e-117
-3.05109e-118
-9.80562e-120
-8.36188e-119
-3.64502e-114
-2.3982e-109
-2.66797e-104
-2.47394e-97
-9.90482e-94
-1.51429e-82
-7.16334e-83
-1.60565e-83
-2.26499e-84
-2.25377e-85
-1.68106e-86
-9.75686e-88
-4.5167e-89
-1.69675e-90
-5.23765e-92
-1.34091e-93
-2.86691e-95
-5.14546e-97
-7.60241e-116
-1.67145e-110
-1.38005e-107
-2.45258e-106
-6.31313e-106
-4.97615e-106
-1.864e-106
-3.99486e-107
-5.87307e-108
-6.12523e-109
-4.92704e-110
-3.21014e-111
-1.75008e-112
-8.14524e-114
-3.28775e-115
-1.16609e-116
-3.66106e-118
-4.46389e-118
-1.84455e-113
-1.17925e-108
-1.29883e-103
-6.51639e-96
-5.43941e-93
-4.68487e-81
-2.23539e-81
-5.05867e-82
-7.21047e-83
-7.25523e-84
-5.47605e-85
-3.21815e-86
-1.50926e-87
-5.74659e-89
-1.79866e-90
-4.67055e-92
-1.01308e-93
-1.84492e-95
-1.77829e-113
-2.78203e-108
-1.50051e-105
-2.05279e-104
-4.4198e-104
-3.05309e-104
-1.0368e-104
-2.0454e-105
-2.82794e-106
-2.78388e-107
-2.13779e-108
-1.337e-109
-7.03281e-111
-3.17188e-112
-1.24516e-113
-4.30682e-115
-1.32146e-116
-1.89345e-117
-6.23434e-113
-3.85055e-108
-4.1843e-103
-1.67019e-94
-2.72153e-92
-1.40143e-79
-6.75096e-80
-1.5438e-80
-2.22549e-81
-2.26648e-82
-1.73264e-83
-1.03195e-84
-4.90751e-86
-1.89566e-87
-6.02183e-89
-1.58752e-90
-3.49685e-92
-6.46794e-94
-3.97275e-111
-4.32748e-106
-1.54177e-103
-1.63457e-102
-2.9521e-102
-1.79464e-102
-5.53202e-103
-1.00686e-103
-1.31029e-104
-1.21896e-105
-8.94699e-107
-5.37526e-108
-2.73068e-109
-1.1941e-110
-4.56032e-112
-1.5385e-113
-4.61444e-115
-1.55038e-116
-1.1931e-112
-6.80722e-108
-6.65265e-103
-4.12132e-93
-3.26594e-91
-4.05036e-78
-1.97159e-78
-4.56005e-79
-6.65418e-80
-6.86502e-81
-5.32008e-82
-3.21406e-83
-1.55127e-84
-6.08449e-86
-1.9634e-87
-5.25976e-89
-1.17761e-90
-2.21438e-92
-8.92058e-109
-6.26678e-104
-1.49332e-101
-1.23543e-100
-1.87887e-100
-1.00846e-100
-2.82482e-101
-4.75302e-102
-5.83016e-103
-5.13354e-104
-3.60416e-105
-2.08102e-106
-1.02153e-107
-4.33442e-109
-1.61095e-110
-5.3023e-112
-1.55518e-113
-4.15421e-115
-2.04759e-112
-7.80564e-108
1.00664e-102
-9.75817e-92
-1.00206e-89
-1.13003e-76
-5.56317e-77
-1.30251e-77
-1.92561e-78
-2.01423e-79
-1.5837e-80
-9.71333e-82
-4.76209e-83
-1.8982e-84
-6.22751e-86
-1.69672e-87
-3.86459e-89
-7.39423e-91
-1.71082e-106
-8.4941e-102
-1.3663e-99
-8.86736e-99
-1.14086e-98
-5.424e-99
-1.38257e-99
-2.15578e-100
-2.48929e-101
-2.08005e-102
-1.39747e-103
-7.76007e-105
-3.68398e-106
-1.51733e-107
-5.49002e-109
-1.76312e-110
-5.05675e-112
-1.30956e-113
-1.97127e-111
-7.42787e-107
3.56903e-101
-2.21318e-90
-3.42187e-88
-3.04034e-75
-1.51514e-75
-3.59415e-76
-5.38794e-77
-5.71902e-78
-4.56604e-79
-2.84545e-80
-1.41819e-81
-5.74964e-83
-1.91936e-84
-5.32289e-86
-1.2344e-87
-2.40518e-89
-2.83757e-104
-1.07399e-99
-1.17786e-97
-6.03665e-97
-6.59356e-97
-2.78689e-97
-6.47146e-98
-9.37712e-99
-1.01899e-99
-8.09233e-101
-5.2054e-102
-2.7819e-103
-1.27781e-104
-5.11011e-106
-1.80072e-107
-5.64381e-109
-1.58295e-110
-4.00302e-112
-1.93254e-110
-7.41583e-106
9.16788e-100
-4.80119e-89
-1.14323e-86
-7.88011e-74
-3.97885e-74
-9.57123e-75
-1.45614e-75
-1.56974e-76
-1.27366e-77
-8.07114e-79
-4.09279e-80
-1.68902e-81
-5.74165e-83
-1.62206e-84
-3.83294e-86
-7.61149e-88
-4.04821e-102
-1.26873e-97
-9.57208e-96
-3.90239e-95
-3.62479e-95
-1.36774e-95
-2.8927e-96
-3.90568e-97
-3.99597e-98
-3.01921e-99
-1.8614e-100
-9.58217e-102
-4.26084e-103
-1.65465e-104
-5.68002e-106
-1.73752e-107
-4.76479e-109
-1.17877e-110
-1.78618e-109
-7.00573e-105
2.09686e-98
-9.94693e-88
-3.71503e-85
-1.96526e-72
-1.00632e-72
-2.45698e-73
-3.79687e-74
-4.16043e-75
-3.43347e-76
-2.21428e-77
-1.1433e-78
-4.80641e-80
-1.66511e-81
-4.79558e-83
-1.15557e-84
-2.34049e-86
-6.81504e-100
-1.39755e-95
-7.32248e-94
-2.38892e-93
-1.89372e-93
-6.40116e-94
-1.23513e-94
-1.55711e-95
-1.49937e-96
-1.07923e-97
-6.38018e-99
-3.16397e-100
-1.36266e-101
-5.13894e-103
-1.71889e-104
-5.13266e-106
-1.37584e-107
-3.33117e-109
-1.54347e-108
-6.16455e-104
4.43288e-97
-1.9647e-86
-1.1722e-83
-4.71029e-71
-2.44829e-71
-6.07266e-72
-9.54053e-73
-1.06352e-73
-8.9344e-75
-5.86855e-76
-3.08776e-77
-1.32337e-78
-4.67575e-80
-1.37385e-81
-3.37832e-83
-6.98398e-85
-1.21261e-97
-1.4349e-93
-5.27524e-92
-1.38474e-91
-9.40144e-92
-2.85466e-92
-5.02752e-93
-5.92782e-94
-5.37627e-95
-3.68914e-96
-2.0925e-97
-1.00114e-98
-4.17529e-100
-1.52939e-101
-4.98377e-103
-1.45258e-104
-3.80478e-106
-9.01282e-108
-1.24902e-107
-5.01679e-103
8.78134e-96
-3.69292e-85
-3.58943e-82
-1.08357e-69
-5.7225e-70
-1.44329e-70
-2.3073e-71
-2.61886e-72
-2.24139e-73
-1.50072e-74
-8.05258e-76
-3.52111e-77
-1.26975e-78
-3.80905e-80
-9.56519e-82
-2.01973e-83
-2.11523e-95
-1.3708e-91
-3.57099e-90
-7.57824e-90
-4.42988e-90
-1.20979e-90
-1.95023e-91
-2.15445e-92
-1.83933e-93
-1.20457e-94
-6.55287e-96
-3.02788e-97
-1.22279e-98
-4.352e-100
-1.38122e-101
-3.92806e-103
-1.00493e-104
-2.32761e-106
-9.59727e-107
-3.74962e-102
1.63853e-94
-6.59218e-84
-1.06765e-80
-2.38917e-68
-1.28326e-68
-3.29418e-69
-5.36354e-70
-6.20403e-71
-5.41419e-72
-3.69814e-73
-2.02527e-74
-9.04199e-76
-3.33037e-77
-1.02073e-78
-2.61944e-80
-5.6533e-82
-3.3781e-93
-1.21773e-89
-2.26983e-88
-3.91081e-88
-1.98164e-88
-4.87057e-89
-7.20647e-90
-7.46875e-91
-5.99394e-92
-3.753e-93
-1.95765e-94
-8.73799e-96
-3.41792e-97
-1.18216e-98
-3.65255e-100
-1.01289e-101
-2.52919e-103
-5.72196e-105
-7.37847e-106
-2.55668e-101
2.88336e-93
-1.11513e-82
-3.09352e-79
-5.04192e-67
-2.75701e-67
-7.21035e-68
-1.19679e-68
-1.41204e-69
-1.25757e-70
-8.77013e-72
-4.90582e-73
-2.238e-74
-8.42556e-76
-2.64024e-77
-6.92892e-79
-1.52949e-80
-4.93486e-91
-1.00543e-87
-1.35401e-86
-1.9034e-86
-8.395e-87
-1.85943e-87
-2.52831e-88
-2.46203e-89
-1.85796e-90
-1.11348e-91
-5.56803e-93
-2.40079e-94
-9.09191e-96
-3.05527e-97
-9.18685e-99
-2.48237e-100
-6.04526e-102
-1.33419e-103
-6.52652e-105
-1.57961e-100
4.78057e-92
-1.78323e-81
-8.77514e-78
-1.01681e-65
-5.6664e-66
-1.51128e-66
-2.55967e-67
-3.08327e-68
-2.8048e-69
-1.99879e-70
-1.14295e-71
-5.33186e-73
-2.05327e-74
-6.58311e-76
-1.76797e-77
-3.99423e-79
-6.57318e-89
-7.69469e-86
-7.55346e-85
-8.7172e-85
-3.35711e-85
-6.72432e-86
-8.42605e-87
-7.71322e-88
-5.48131e-89
-3.13808e-90
-1.50602e-91
-6.27014e-93
-2.29841e-94
-7.50004e-96
-2.19285e-97
-5.76741e-99
-1.36768e-100
-2.93969e-102
-7.90374e-104
-8.77667e-100
7.45186e-91
-2.68858e-80
-2.45391e-76
-1.95655e-64
-1.11235e-64
-3.02864e-65
-5.2395e-66
-6.44954e-67
-5.99813e-68
-4.37161e-69
-2.55748e-70
-1.22097e-71
-4.81313e-73
-1.58002e-74
-4.34536e-76
-1.00542e-77
-7.98178e-87
-5.45684e-84
-3.93983e-83
-3.75405e-83
-1.26621e-83
-2.29808e-84
-2.6606e-85
-2.28789e-86
-1.53463e-87
-8.38795e-89
-3.86126e-90
-1.55122e-91
-5.50187e-93
-1.74209e-94
-4.9482e-96
-1.26527e-97
-2.91653e-99
-6.09208e-101
-1.26604e-102
-4.34669e-99
1.08869e-89
-3.81061e-79
-6.81772e-75
-3.58597e-63
-2.08222e-63
-5.79377e-64
-1.02483e-64
-1.2904e-65
-1.22803e-66
-9.16174e-68
-5.48809e-69
-2.6835e-70
-1.0837e-71
-3.64512e-73
-1.02729e-74
-2.43593e-76
-8.81802e-85
-3.57773e-82
-1.9182e-81
-1.51552e-81
-4.5019e-82
-7.41051e-83
-7.9512e-84
-6.41876e-85
-4.06944e-86
-2.12226e-87
-9.36588e-89
-3.62668e-90
-1.244e-91
-3.81782e-93
-1.05214e-94
-2.61096e-96
-5.83558e-98
-1.1811e-99
-2.22363e-101
-1.89845e-98
1.48518e-88
-5.06051e-78
-1.89372e-73
-6.24899e-62
-3.71018e-62
-1.05619e-62
-1.91222e-63
-2.46538e-64
-2.40316e-65
-1.83693e-66
-1.12768e-67
-5.65207e-69
-2.34012e-70
-8.07103e-72
-2.33257e-73
-5.67208e-75
-8.84407e-83
-2.16521e-80
-8.70089e-80
-5.72644e-80
-1.50486e-80
-2.24876e-81
-2.2425e-82
-1.69936e-83
-1.01948e-84
-5.06744e-86
-2.14201e-87
-7.98843e-89
-2.64565e-90
-7.85976e-92
-2.09803e-93
-5.04053e-95
-1.08888e-96
-2.12719e-98
-3.79861e-100
-7.21656e-98
1.88427e-87
-6.27362e-77
-5.2691e-72
-1.03341e-60
-6.2812e-61
-1.83148e-61
-3.39773e-62
-4.49019e-63
-4.48759e-64
-3.5178e-65
-2.21513e-66
-1.13902e-67
-4.83876e-69
-1.71254e-70
-5.07901e-72
-1.2674e-73
-8.04022e-81
-1.20861e-78
-3.66935e-78
-2.02347e-78
-4.7186e-79
-6.41303e-80
-5.95746e-81
-4.2373e-82
-2.40558e-83
-1.13854e-84
-4.60521e-86
-1.65128e-87
-5.27543e-89
-1.51433e-90
-3.90517e-92
-9.05235e-94
-1.88136e-95
-3.52801e-97
-6.0157e-99
-2.34767e-97
2.21311e-86
-7.23018e-76
-1.46258e-70
-1.61849e-59
-1.00834e-59
-3.01513e-60
-5.73836e-61
-7.7817e-62
-7.98225e-63
-6.42335e-64
-4.15269e-65
-2.19257e-66
-9.565e-68
-3.47655e-69
-1.05885e-70
-2.71323e-72
-6.61479e-79
-6.21111e-77
-1.43636e-76
-6.67596e-77
-1.38517e-77
-1.71624e-78
-1.48615e-79
-9.91747e-81
-5.32957e-82
-2.39807e-83
-9.27103e-85
-3.18968e-86
-9.81108e-88
-2.71412e-89
-6.73894e-91
-1.50035e-92
-2.98027e-94
-5.32212e-96
-8.61413e-98
-6.39255e-97
2.39377e-85
-7.70931e-75
-4.0117e-69
-2.39542e-58
-1.5317e-58
-4.70296e-59
-9.19345e-60
-1.2808e-60
-1.34992e-61
-1.11628e-62
-7.41657e-64
-4.02452e-65
-1.80447e-66
-6.74093e-68
-2.10996e-69
-5.55583e-71
-4.92107e-77
-2.93277e-75
-5.21008e-75
-2.053e-75
-3.79446e-76
-4.29946e-77
-3.46852e-78
-2.171e-79
-1.10452e-80
-4.71154e-82
-1.73889e-83
-5.72972e-85
-1.69186e-86
-4.49407e-88
-1.06936e-89
-2.27204e-91
-4.27212e-93
-7.17438e-95
-1.08793e-96
-1.41578e-96
2.37007e-84
-7.56362e-74
-1.07391e-67
-3.34256e-57
-2.19669e-57
-6.935e-58
-1.39425e-58
-1.99798e-59
-2.16622e-60
-1.84275e-61
-1.25952e-62
-7.03104e-64
-3.243e-65
-1.24621e-66
-4.0119e-68
-1.08631e-69
-3.30153e-75
-1.26872e-73
-1.74695e-73
-5.86791e-74
-9.67529e-75
-1.0051e-75
-7.55996e-77
-4.43639e-78
-2.13404e-79
-8.5985e-81
-3.02487e-82
-9.51093e-84
-2.68585e-85
-6.81455e-87
-1.54271e-88
-3.0977e-90
-5.42984e-92
-8.38886e-94
-1.16483e-95
-2.48636e-96
2.13291e-83
-6.78443e-73
-2.77076e-66
-4.38659e-56
-2.96722e-56
-9.64558e-57
-1.99714e-57
-2.94762e-58
-3.29154e-59
-2.88378e-60
-2.0299e-61
-1.1669e-62
-5.54194e-64
-2.19261e-65
-7.26551e-67
-2.02449e-68
-1.99529e-73
-5.02392e-72
-5.40813e-72
-1.55573e-72
-2.29677e-73
-2.18862e-74
-1.53244e-75
-8.4177e-77
-3.8188e-78
-1.45106e-79
-4.84334e-81
-1.44629e-82
-3.88275e-84
-9.33591e-86
-1.98913e-87
-3.71786e-89
-5.92156e-91
-8.03807e-93
-9.76569e-95
-3.48793e-96
1.73002e-82
-5.5218e-72
-6.81676e-65
-5.3996e-55
-3.76521e-55
-1.26221e-55
-2.69545e-56
-4.10311e-57
-4.72524e-58
-4.26893e-59
-3.09815e-60
-1.83597e-61
-8.98728e-63
-3.66424e-64
-1.25081e-65
-3.58937e-67
-1.08298e-71
-1.8153e-70
-1.54088e-70
-3.81251e-71
-5.05245e-72
-4.41777e-73
-2.87887e-74
-1.48061e-75
-6.31174e-77
-2.25657e-78
-7.09617e-80
-1.99512e-81
-5.04361e-83
-1.13404e-84
-2.23029e-86
-3.77627e-88
-5.17617e-90
-5.44524e-92
-5.10749e-94
-1.87956e-113
1.25181e-81
-4.0408e-71
-1.58676e-63
-6.21628e-54
-4.47592e-54
-1.54988e-54
-3.41901e-55
-5.37583e-56
-6.39361e-57
-5.96403e-58
-4.4681e-59
-2.73263e-60
-1.38017e-61
-5.80456e-63
-2.0429e-64
-6.0422e-66
-5.26782e-70
-5.9724e-69
-4.03025e-69
-8.61554e-70
-1.0263e-70
-8.23762e-72
-4.98581e-73
-2.39439e-74
-9.54224e-76
-3.19093e-77
-9.38527e-79
-2.4595e-80
-5.75997e-82
-1.17948e-83
-2.05883e-85
-2.98454e-87
-2.98347e-89
-1.1221e-91
-5.17605e-103
1.0697e-97