/*--------------------------------*- C++ -*----------------------------------*\
| =========                 |                                                 |
| \\      /  F ield         | OpenFOAM: The Open Source CFD Toolbox           |
|  \\    /   O peration     | Version:  v2012                                 |
|   \\  /    A nd           | Website:  www.openfoam.com                      |
|    \\/     M anipulation  |                                                 |
\*---------------------------------------------------------------------------*/
FoamFile
{
    version     2.0;
    format      ascii;
    class       surfaceScalarField;
    location    "0.25";
    object      phi;
}
// * * * * * * * * * * * * * * * * * * * * * * * * * * * * * * * * * * * * * //

dimensions      [0 3 -1 0 0 0 0];
oriented        oriented;


internalField   nonuniform List<scalar> 
6403
(
5.33599e-15
-8.42205e-14
-4.24276e-17
2.50402e-14
-4.78659e-13
3.02128e-17
5.40896e-14
-1.1292e-12
-7.26604e-18
7.56631e-14
-1.97343e-12
-3.9077e-16
1.48802e-13
-3.10783e-12
-1.73914e-16
2.26759e-13
-4.38818e-12
-3.68253e-17
3.27294e-13
-5.92869e-12
-2.16187e-16
4.48673e-13
-7.68131e-12
4.23663e-17
5.892e-13
-9.71264e-12
-4.7015e-16
7.77214e-13
-1.19759e-11
4.07945e-16
9.93096e-13
-1.45625e-11
-2.27143e-17
1.26952e-12
-1.73974e-11
8.90908e-16
1.58282e-12
-2.06049e-11
-6.94006e-16
1.93993e-12
-2.4097e-11
8.94093e-16
2.33868e-12
-2.79647e-11
-2.00526e-16
2.7861e-12
-3.2188e-11
4.5354e-17
3.28554e-12
-3.68078e-11
-1.44795e-16
3.83835e-12
-4.18236e-11
-1.33002e-16
4.44738e-12
-4.72661e-11
7.16339e-17
5.11508e-12
-5.31418e-11
-3.80482e-17
5.84267e-12
-5.9464e-11
-3.49015e-17
6.62943e-12
-6.62483e-11
-2.75165e-17
7.47583e-12
-7.34928e-11
-3.00812e-17
8.38102e-12
-8.1211e-11
2.51422e-17
9.34362e-12
-8.93947e-11
6.67872e-18
1.0361e-11
-9.80447e-11
3.02479e-17
1.14296e-11
-1.07151e-10
1.61758e-17
1.25443e-11
-1.16687e-10
1.19213e-17
1.3699e-11
-1.26652e-10
6.24221e-18
1.48856e-11
-1.36993e-10
5.5889e-19
1.6095e-11
-1.47687e-10
3.52485e-18
1.73163e-11
-1.58689e-10
3.7521e-18
1.85373e-11
-1.6994e-10
1.09429e-17
1.97443e-11
-1.81381e-10
1.59993e-17
2.0922e-11
-1.92938e-10
2.2948e-17
-2.04536e-10
2.69363e-17
5.85472e-15
-8.99546e-14
-4.87903e-17
2.39501e-14
-4.96969e-13
-2.23552e-17
6.81565e-14
-1.17262e-12
3.96532e-16
1.42983e-13
-2.05001e-12
-3.84799e-16
2.37077e-13
-3.198e-12
3.03801e-16
3.06776e-13
-4.45862e-12
8.09425e-17
4.14579e-13
-6.0399e-12
-4.66169e-16
5.55236e-13
-7.82227e-12
-1.4385e-17
7.1945e-13
-9.88627e-12
-1.2965e-15
9.38612e-13
-1.21942e-11
1.16274e-16
1.1704e-12
-1.47967e-11
-3.04251e-16
1.45663e-12
-1.7681e-11
2.43205e-16
1.76899e-12
-2.09218e-11
-3.29956e-16
2.12095e-12
-2.44472e-11
3.4661e-17
2.51562e-12
-2.83611e-11
-5.82809e-17
2.96151e-12
-3.26342e-11
-1.03891e-16
3.459e-12
-3.73061e-11
-2.31468e-17
4.01132e-12
-4.23777e-11
-2.17795e-16
4.61889e-12
-4.78767e-11
-2.59938e-16
5.28508e-12
-5.38091e-11
-1.24981e-16
6.01007e-12
-6.01902e-11
-5.52204e-17
6.79534e-12
-6.70348e-11
-9.24061e-17
7.64091e-12
-7.43392e-11
-1.26076e-17
8.54601e-12
-8.21165e-11
-3.51847e-18
9.50864e-12
-9.03577e-11
2.36902e-17
1.05263e-11
-9.90625e-11
1.31189e-17
1.15951e-11
-1.0822e-10
1.16637e-17
1.27101e-11
-1.17802e-10
-9.57148e-18
1.38649e-11
-1.27807e-10
-1.52182e-17
1.50516e-11
-1.3818e-10
-2.42115e-17
1.62607e-11
-1.48897e-10
-2.11308e-17
1.74816e-11
-1.5991e-10
-1.78686e-17
1.87016e-11
-1.71161e-10
-6.05187e-18
1.99067e-11
-1.82586e-10
1.30714e-17
2.10815e-11
-1.94113e-10
3.33227e-17
-2.05664e-10
4.03564e-17
5.58859e-15
-9.56283e-14
4.88199e-17
2.55285e-14
-5.16857e-13
-7.1356e-17
4.60973e-14
-1.192e-12
-3.71124e-16
7.64327e-14
-2.08145e-12
2.37886e-16
1.26138e-13
-3.24787e-12
7.03857e-16
2.38892e-13
-4.57762e-12
-1.48143e-15
3.6878e-13
-6.16013e-12
1.30656e-15
5.00767e-13
-7.96563e-12
-1.45967e-15
6.8377e-13
-1.00701e-11
6.51617e-17
8.90352e-13
-1.24055e-11
-6.26189e-16
1.12061e-12
-1.50332e-11
-7.0369e-16
1.39067e-12
-1.79528e-11
-2.52379e-16
1.70734e-12
-2.12415e-11
-4.85301e-16
2.08583e-12
-2.48217e-11
6.87868e-16
2.5037e-12
-2.87801e-11
-2.32422e-16
2.97105e-12
-3.31012e-11
1.28659e-16
3.48793e-12
-3.78229e-11
-3.94546e-17
4.05761e-12
-4.29488e-11
-8.30527e-17
4.68198e-12
-4.85026e-11
-1.84087e-16
5.36546e-12
-5.44932e-11
-4.20723e-17
6.10836e-12
-6.09334e-11
-8.14443e-17
6.9103e-12
-6.78369e-11
-8.26652e-19
7.77153e-12
-7.52003e-11
1.97716e-19
8.69153e-12
-8.30364e-11
4.21729e-17
9.6686e-12
-9.13348e-11
7.22418e-18
1.07002e-11
-1.00094e-10
1.57477e-17
1.17823e-11
-1.09303e-10
-1.0142e-17
1.291e-11
-1.1893e-10
-1.56863e-17
1.40768e-11
-1.28974e-10
-2.76425e-17
1.52745e-11
-1.39378e-10
-2.7382e-17
1.64938e-11
-1.50117e-10
-2.59136e-17
1.77236e-11
-1.6114e-10
-2.03169e-17
1.89513e-11
-1.72388e-10
-7.79899e-18
2.01624e-11
-1.83797e-10
2.10864e-17
2.13413e-11
-1.95291e-10
5.08703e-17
-2.06794e-10
5.90558e-17
6.12845e-15
-1.01822e-13
3.42362e-17
2.60309e-14
-5.3664e-13
-2.47342e-17
6.89507e-14
-1.23376e-12
-2.65213e-16
1.42681e-13
-2.16e-12
-2.44742e-16
2.03324e-13
-3.30604e-12
7.97151e-16
3.03075e-13
-4.67765e-12
-5.38093e-16
4.33365e-13
-6.28158e-12
1.30227e-15
5.55286e-13
-8.09962e-12
-1.3035e-15
7.59666e-13
-1.0273e-11
1.17424e-16
9.72205e-13
-1.26181e-11
1.41453e-16
1.2317e-12
-1.52912e-11
-5.5117e-19
1.52792e-12
-1.825e-11
-2.30813e-16
1.85281e-12
-2.15694e-11
-2.7258e-16
2.23123e-12
-2.51939e-11
6.98528e-16
2.65022e-12
-2.91985e-11
1.22692e-16
3.11917e-12
-3.35703e-11
-9.78706e-17
3.64049e-12
-3.83438e-11
1.12909e-16
4.21659e-12
-4.3526e-11
-1.53781e-16
4.84969e-12
-4.91365e-11
-3.77547e-17
5.54188e-12
-5.51862e-11
-1.23008e-16
6.29422e-12
-6.16868e-11
-7.29235e-17
7.10799e-12
-6.86511e-11
-6.03229e-17
7.98255e-12
-7.60748e-11
4.15595e-17
8.91677e-12
-8.39703e-11
5.0174e-17
9.90841e-12
-9.23263e-11
6.04189e-17
1.09548e-11
-1.0114e-10
4.06733e-17
1.20518e-11
-1.104e-10
2.86367e-17
1.31943e-11
-1.20073e-10
1.18613e-17
1.43755e-11
-1.30155e-10
7.90822e-18
1.55872e-11
-1.4059e-10
7.31068e-18
1.68195e-11
-1.51349e-10
1.35805e-17
1.80612e-11
-1.62382e-10
1.78069e-17
1.92993e-11
-1.73626e-10
2.75576e-17
2.0519e-11
-1.85017e-10
4.89685e-17
2.17045e-11
-1.96476e-10
7.317e-17
-2.07927e-10
8.07955e-17
5.74943e-15
-1.0767e-13
3.75336e-17
2.58544e-14
-5.56697e-13
-4.68601e-17
6.48489e-14
-1.27179e-12
-2.72907e-16
1.39378e-13
-2.23371e-12
4.22731e-16
1.87051e-13
-3.36012e-12
-2.98001e-16
2.78669e-13
-4.75894e-12
4.96849e-16
3.9232e-13
-6.37984e-12
1.98498e-15
3.99774e-13
-8.11626e-12
-1.90958e-15
7.12302e-13
-1.05872e-11
5.24614e-16
9.4905e-13
-1.28522e-11
1.50556e-16
1.22448e-12
-1.55714e-11
-4.02443e-16
1.52647e-12
-1.85529e-11
-3.25592e-16
1.87028e-12
-2.19155e-11
-1.69022e-16
2.26095e-12
-2.55785e-11
8.45286e-16
2.69855e-12
-2.96349e-11
3.28064e-17
3.18599e-12
-3.40584e-11
2.24681e-17
3.72959e-12
-3.8886e-11
7.75182e-17
4.32709e-12
-4.41245e-11
-2.66276e-17
4.9829e-12
-4.97932e-11
-9.92565e-17
5.69928e-12
-5.5902e-11
1.00739e-16
6.4762e-12
-6.24629e-11
6.86569e-17
7.31394e-12
-6.9488e-11
1.27221e-16
8.21261e-12
-7.69722e-11
1.51464e-16
9.17079e-12
-8.49272e-11
1.75303e-16
1.01864e-11
-9.33407e-11
1.46682e-16
1.12563e-11
-1.0221e-10
1.24002e-16
1.23764e-11
-1.11519e-10
9.10318e-17
1.35413e-11
-1.21237e-10
7.17546e-17
1.4744e-11
-1.31358e-10
5.94637e-17
1.59761e-11
-1.41821e-10
5.95076e-17
1.72273e-11
-1.526e-10
6.2554e-17
1.84862e-11
-1.6364e-10
6.50252e-17
1.97392e-11
-1.74879e-10
6.80867e-17
2.09715e-11
-1.86249e-10
8.00819e-17
2.21667e-11
-1.97671e-10
9.57778e-17
-2.09067e-10
1.03021e-16
6.26975e-15
-1.14009e-13
3.99407e-17
2.53774e-14
-5.76233e-13
-6.2127e-17
5.28516e-14
-1.29757e-12
-1.96062e-16
1.06729e-13
-2.28319e-12
1.00148e-15
1.81145e-13
-3.44817e-12
-5.03973e-16
3.64034e-13
-4.94401e-12
-5.51271e-16
6.59191e-13
-6.67454e-12
2.16763e-17
9.11274e-13
-8.37746e-12
-3.31329e-15
1.16048e-12
-1.08453e-11
-1.30273e-15
1.21183e-12
-1.29044e-11
3.28051e-16
1.40618e-12
-1.57667e-11
-3.5768e-16
1.67258e-12
-1.88127e-11
7.61825e-16
2.00759e-12
-2.22438e-11
6.35863e-16
2.39352e-12
-2.59615e-11
5.08812e-16
2.83529e-12
-3.0076e-11
4.72516e-17
3.33251e-12
-3.45551e-11
9.59703e-18
3.88811e-12
-3.94395e-11
2.75737e-16
4.50041e-12
-4.47368e-11
-1.43562e-17
5.17397e-12
-5.04656e-11
1.71847e-16
5.90978e-12
-5.66365e-11
1.40377e-16
6.70798e-12
-6.32597e-11
1.82001e-16
7.56903e-12
-7.03476e-11
1.73931e-16
8.49238e-12
-7.78939e-11
2.18048e-16
9.47648e-12
-8.59097e-11
2.10746e-16
1.05187e-11
-9.43816e-11
1.92083e-16
1.16158e-11
-1.03306e-10
1.59484e-16
1.27631e-11
-1.12665e-10
1.35263e-16
1.39549e-11
-1.22428e-10
1.16913e-16
1.51838e-11
-1.32586e-10
1.10836e-16
1.64409e-11
-1.43078e-10
1.11941e-16
1.77156e-11
-1.53874e-10
1.16234e-16
1.89958e-11
-1.6492e-10
1.16117e-16
2.02678e-11
-1.7615e-10
1.13865e-16
2.1516e-11
-1.87496e-10
1.15593e-16
2.27238e-11
-1.98878e-10
1.21542e-16
-2.10215e-10
1.27031e-16
6.47202e-15
-1.20462e-13
1.1277e-17
2.95147e-14
-5.99182e-13
-4.32988e-17
8.17471e-14
-1.34976e-12
-3.21089e-17
1.46429e-13
-2.35416e-12
-9.75896e-16
2.33741e-13
-3.52037e-12
1.1893e-15
2.62662e-13
-4.97534e-12
-1.37833e-15
2.33323e-13
-6.64532e-12
-1.65825e-15
3.38055e-13
-8.44795e-12
1.04642e-14
4.37367e-13
-1.09806e-11
-2.7665e-15
8.79928e-13
-1.33234e-11
-2.2679e-15
1.22824e-12
-1.61188e-11
1.60539e-15
1.60286e-12
-1.91847e-11
-2.24601e-16
1.99179e-12
-2.26294e-11
6.70567e-16
2.43039e-12
-2.63924e-11
9.2395e-16
2.90403e-12
-3.05504e-11
-8.27613e-17
3.43468e-12
-3.5083e-11
3.49249e-16
4.01956e-12
-4.00224e-11
1.9502e-16
4.66035e-12
-4.53786e-11
-5.04589e-17
5.36248e-12
-5.11679e-11
-2.57859e-18
6.12852e-12
-5.74001e-11
2.8698e-16
6.9577e-12
-6.40862e-11
3.20505e-16
7.85009e-12
-7.12376e-11
2.93628e-16
8.80535e-12
-7.88467e-11
3.06752e-16
9.82189e-12
-8.69239e-11
2.97906e-16
1.0897e-11
-9.54546e-11
2.80159e-16
1.20272e-11
-1.04434e-10
2.46231e-16
1.32073e-11
-1.13844e-10
2.20911e-16
1.44314e-11
-1.2365e-10
1.97165e-16
1.56917e-11
-1.33844e-10
1.86741e-16
1.69788e-11
-1.44363e-10
1.81337e-16
1.82815e-11
-1.55175e-10
1.79545e-16
1.95874e-11
-1.66224e-10
1.72583e-16
2.0882e-11
-1.77443e-10
1.62665e-16
2.21494e-11
-1.88762e-10
1.54475e-16
2.33723e-11
-2.00099e-10
1.51009e-16
-2.11374e-10
1.52664e-16
6.35599e-15
-1.26854e-13
6.2821e-18
3.1324e-14
-6.2399e-13
1.47989e-17
6.85829e-14
-1.3857e-12
1.00256e-16
1.15989e-13
-2.40545e-12
-5.77072e-16
2.24211e-13
-3.62108e-12
9.63666e-16
3.46267e-13
-5.10768e-12
-1.90505e-15
4.95372e-13
-6.81696e-12
-4.41588e-15
8.35548e-13
-8.7674e-12
7.48461e-15
8.70473e-13
-1.10638e-11
-5.23107e-15
1.12909e-12
-1.35566e-11
-1.45652e-15
1.401e-12
-1.63848e-11
2.26398e-15
1.73795e-12
-1.95228e-11
-3.15847e-16
2.11688e-12
-2.30049e-11
4.12613e-16
2.55924e-12
-2.68311e-11
5.67621e-16
3.04371e-12
-3.1038e-11
-3.86749e-16
3.59271e-12
-3.56285e-11
3.89144e-16
4.19758e-12
-4.06248e-11
2.67764e-16
4.86206e-12
-4.60431e-11
3.55069e-17
5.59063e-12
-5.1895e-11
1.58334e-16
6.3846e-12
-5.81924e-11
2.2512e-16
7.24438e-12
-6.49437e-11
2.76872e-16
8.16961e-12
-7.21604e-11
3.27916e-16
9.15946e-12
-7.98339e-11
3.33931e-16
1.02118e-11
-8.79738e-11
3.3973e-16
1.13238e-11
-9.65642e-11
3.07488e-16
1.24913e-11
-1.05599e-10
2.90256e-16
1.37089e-11
-1.1506e-10
2.6521e-16
1.497e-11
-1.24909e-10
2.56139e-16
1.62664e-11
-1.35139e-10
2.46825e-16
1.7588e-11
-1.45683e-10
2.44797e-16
1.89231e-11
-1.56508e-10
2.38338e-16
2.02586e-11
-1.67558e-10
2.27212e-16
2.15794e-11
-1.78762e-10
2.0993e-16
2.28689e-11
-1.9005e-10
1.9401e-16
2.41094e-11
-2.01338e-10
1.81769e-16
-2.12544e-10
1.78384e-16
5.78382e-15
-1.32921e-13
7.42737e-17
2.27237e-14
-6.40501e-13
-1.70199e-16
6.36345e-14
-1.42515e-12
2.57667e-16
1.85462e-13
-2.52512e-12
2.99868e-16
2.36491e-13
-3.67202e-12
-2.42706e-16
3.39412e-13
-5.22731e-12
-2.6056e-15
4.84318e-13
-6.96481e-12
-2.32513e-15
7.08044e-13
-8.97554e-12
5.83473e-15
8.74612e-13
-1.12636e-11
-2.70084e-15
1.15227e-12
-1.38269e-11
-3.78553e-15
1.45115e-12
-1.6687e-11
1.44063e-15
1.80856e-12
-1.98845e-11
-8.80865e-16
2.19988e-12
-2.3395e-11
2.82195e-16
2.65854e-12
-2.72885e-11
2.08183e-16
3.16495e-12
-3.15479e-11
-3.35102e-16
3.74053e-12
-3.62003e-11
3.60388e-16
4.37402e-12
-4.1256e-11
3.11073e-16
5.07028e-12
-4.67389e-11
3.91194e-17
5.83184e-12
-5.26555e-11
1.74637e-16
6.66098e-12
-5.90194e-11
2.31933e-16
7.55761e-12
-6.58375e-11
3.74674e-16
8.52132e-12
-7.3121e-11
3.6935e-16
9.55083e-12
-8.08602e-11
4.1527e-16
1.0644e-11
-8.90638e-11
3.86868e-16
1.17976e-11
-9.77148e-11
3.8199e-16
1.30073e-11
-1.06806e-10
3.47813e-16
1.42671e-11
-1.16317e-10
3.37512e-16
1.55699e-11
-1.2621e-10
3.19113e-16
1.69068e-11
-1.36473e-10
3.14764e-16
1.82673e-11
-1.47041e-10
3.04592e-16
1.96388e-11
-1.57877e-10
2.95336e-16
2.10076e-11
-1.68925e-10
2.7591e-16
2.23578e-11
-1.80111e-10
2.53132e-16
2.36723e-11
-1.91363e-10
2.2971e-16
2.49323e-11
-2.02597e-10
2.10827e-16
-2.13729e-10
2.01463e-16
7.63803e-15
-1.40836e-13
1.42424e-16
3.48667e-14
-6.68245e-13
5.17181e-18
5.89442e-14
-1.44796e-12
-7.05413e-16
6.46064e-14
-2.52908e-12
5.32092e-16
1.06079e-13
-3.71314e-12
5.45676e-16
2.97229e-13
-5.41146e-12
-1.97737e-16
4.98605e-13
-7.13776e-12
1.485e-15
7.25917e-13
-9.18412e-12
6.7206e-15
9.20646e-13
-1.1474e-11
-9.23498e-16
1.19474e-12
-1.40931e-11
-3.73001e-15
1.49912e-12
-1.69928e-11
1.64966e-15
1.86921e-12
-2.02584e-11
-9.4302e-16
2.28783e-12
-2.38104e-11
4.13904e-16
2.77555e-12
-2.77742e-11
3.33149e-16
3.31269e-12
-3.20844e-11
-7.45321e-17
3.91441e-12
-3.68008e-11
2.57454e-16
4.57793e-12
-4.19173e-11
1.42567e-16
5.30642e-12
-4.74668e-11
1.89526e-16
6.10261e-12
-5.34503e-11
1.16601e-16
6.96842e-12
-5.9883e-11
3.17926e-16
7.90444e-12
-6.67702e-11
3.65907e-16
8.90937e-12
-7.41226e-11
4.48568e-16
9.98197e-12
-8.19296e-11
3.96457e-16
1.11197e-11
-9.01986e-11
4.07175e-16
1.23191e-11
-9.89112e-11
3.65398e-16
1.35751e-11
-1.08059e-10
3.65068e-16
1.48815e-11
-1.1762e-10
3.48697e-16
1.62303e-11
-1.27556e-10
3.54347e-16
1.76122e-11
-1.37852e-10
3.487e-16
1.90156e-11
-1.48441e-10
3.47537e-16
2.04274e-11
-1.59287e-10
3.33306e-16
2.18329e-11
-1.70328e-10
3.13273e-16
2.32156e-11
-1.81491e-10
2.84949e-16
2.45575e-11
-1.92703e-10
2.58479e-16
2.58391e-11
-2.03876e-10
2.34032e-16
-2.14927e-10
2.20142e-16
6.77577e-15
-1.47428e-13
-9.58354e-17
2.63318e-14
-6.87773e-13
2.18072e-16
1.05826e-13
-1.52986e-12
1.05194e-15
2.25289e-13
-2.65201e-12
-1.4961e-15
3.73546e-13
-3.86485e-12
-2.52324e-15
4.34539e-13
-5.47006e-12
1.69758e-15
5.76295e-13
-7.28418e-12
-2.64057e-15
7.94412e-13
-9.39399e-12
5.04095e-15
9.70825e-13
-1.16985e-11
-4.26543e-15
1.28011e-12
-1.43709e-11
-9.01255e-16
1.61677e-12
-1.73217e-11
2.61452e-15
2.01754e-12
-2.06433e-11
1.89202e-15
2.45059e-12
-2.42457e-11
-1.42116e-16
2.94073e-12
-2.82628e-11
9.86002e-17
3.49261e-12
-3.26369e-11
2.40631e-17
4.11454e-12
-3.74219e-11
-2.26422e-17
4.80527e-12
-4.26074e-11
1.93204e-16
5.56627e-12
-4.82268e-11
2.58646e-17
6.39864e-12
-5.42816e-11
2.16585e-16
7.30401e-12
-6.07867e-11
1.64129e-16
8.28222e-12
-6.7746e-11
3.76482e-16
9.33245e-12
-7.51699e-11
3.47122e-16
1.04523e-11
-8.30464e-11
4.18852e-16
1.1639e-11
-9.13822e-11
3.82029e-16
1.28884e-11
-1.00158e-10
4.01319e-16
1.41953e-11
-1.09363e-10
3.73667e-16
1.55525e-11
-1.18974e-10
3.83737e-16
1.69516e-11
-1.28951e-10
3.73993e-16
1.83824e-11
-1.39279e-10
3.79894e-16
1.98326e-11
-1.49888e-10
3.70402e-16
2.12882e-11
-1.60739e-10
3.59135e-16
2.27336e-11
-1.71771e-10
3.33454e-16
2.41516e-11
-1.82907e-10
3.05146e-16
2.55231e-11
-1.94072e-10
2.75935e-16
2.68279e-11
-2.05179e-10
2.49868e-16
-2.16142e-10
2.32079e-16
7.82016e-15
-1.55175e-13
-3.44481e-17
3.61734e-14
-7.16369e-13
1.27081e-16
7.09502e-14
-1.5666e-12
7.69288e-16
9.32353e-14
-2.66885e-12
-4.07503e-16
2.50521e-13
-4.01577e-12
-7.27957e-16
3.7728e-13
-5.61366e-12
-9.9303e-16
5.71722e-13
-7.46933e-12
-1.45538e-15
8.69863e-13
-9.66027e-12
7.37852e-15
1.02553e-12
-1.18867e-11
-2.56932e-15
1.32699e-12
-1.46668e-11
-3.95262e-15
1.65575e-12
-1.76694e-11
-2.38923e-16
2.0726e-12
-2.10394e-11
2.25825e-15
2.53187e-12
-2.47041e-11
3.91484e-17
3.05666e-12
-2.87908e-11
-2.1292e-16
3.64697e-12
-3.32299e-11
-4.51906e-16
4.30885e-12
-3.80827e-11
2.84934e-16
5.04025e-12
-4.33376e-11
3.17086e-17
5.84194e-12
-4.90275e-11
2.35472e-16
6.7173e-12
-5.51558e-11
6.54451e-17
7.66716e-12
-6.1735e-11
2.69717e-16
8.69273e-12
-6.87684e-11
3.25178e-16
9.79202e-12
-7.62659e-11
4.53447e-16
1.09632e-11
-8.42142e-11
3.91701e-16
1.22027e-11
-9.26187e-11
4.0692e-16
1.35063e-11
-1.01458e-10
3.59225e-16
1.4868e-11
-1.10721e-10
3.72788e-16
1.62803e-11
-1.20384e-10
3.60816e-16
1.77337e-11
-1.30402e-10
3.7544e-16
1.92173e-11
-1.4076e-10
3.72867e-16
2.0718e-11
-1.51386e-10
3.74504e-16
2.22207e-11
-1.62239e-10
3.58799e-16
2.37091e-11
-1.73256e-10
3.37405e-16
2.51647e-11
-1.8436e-10
3.08169e-16
2.65678e-11
-1.95473e-10
2.82185e-16
2.78972e-11
-2.06507e-10
2.55728e-16
-2.17374e-10
2.37052e-16
7.87279e-15
-1.62916e-13
-3.81529e-17
3.28285e-14
-7.41722e-13
6.72543e-17
7.45194e-14
-1.60949e-12
9.05445e-16
9.87927e-14
-2.69345e-12
-1.00138e-15
2.68526e-13
-4.17768e-12
-6.05031e-16
4.20162e-13
-5.79571e-12
-2.17665e-15
6.57212e-13
-7.70886e-12
-2.31243e-15
1.25011e-12
-1.02327e-11
8.79596e-15
1.12489e-12
-1.18038e-11
-6.01805e-15
1.40821e-12
-1.494e-11
-2.90204e-15
1.73545e-12
-1.79959e-11
1.61631e-15
2.17661e-12
-2.14714e-11
9.16144e-16
2.65951e-12
-2.5186e-11
1.38476e-16
3.22256e-12
-2.93568e-11
-4.97801e-16
3.84477e-12
-3.38548e-11
-1.57705e-16
4.54227e-12
-3.87775e-11
1.50404e-16
5.30847e-12
-4.4103e-11
1.9805e-16
6.14869e-12
-4.98681e-11
-1.3121e-16
7.06655e-12
-5.60726e-11
2.05476e-16
8.06269e-12
-6.27299e-11
9.19396e-17
9.13751e-12
-6.98411e-11
3.4107e-16
1.02896e-11
-7.74152e-11
3.22706e-16
1.15156e-11
-8.54375e-11
3.84471e-16
1.2812e-11
-9.39125e-11
3.27025e-16
1.41738e-11
-1.02817e-10
3.47273e-16
1.55945e-11
-1.12139e-10
3.27083e-16
1.70657e-11
-1.21852e-10
3.4658e-16
1.85774e-11
-1.31911e-10
3.44252e-16
2.01175e-11
-1.42297e-10
3.56591e-16
2.16721e-11
-1.52937e-10
3.51688e-16
2.3225e-11
-1.6379e-10
3.43657e-16
2.47589e-11
-1.74788e-10
3.21143e-16
2.62545e-11
-1.85853e-10
2.97933e-16
2.76908e-11
-1.96907e-10
2.74982e-16
2.90459e-11
-2.0786e-10
2.52518e-16
-2.18623e-10
2.34138e-16
8.62234e-15
-1.71409e-13
-6.33055e-17
4.1774e-14
-7.75127e-13
1.61756e-16
1.26784e-13
-1.69697e-12
7.09659e-16
2.37275e-13
-2.79817e-12
-1.00451e-15
3.54918e-13
-4.27679e-12
-7.98524e-16
2.96887e-13
-5.73789e-12
2.44205e-16
7.72976e-14
-7.47121e-12
5.19025e-17
5.99654e-14
-1.02353e-11
8.05778e-15
1.28939e-13
-1.19377e-11
-5.13728e-15
9.90152e-13
-1.57502e-11
-1.19566e-16
1.59114e-12
-1.85857e-11
3.51627e-15
2.17028e-12
-2.20521e-11
-2.28052e-16
2.73291e-12
-2.57604e-11
-1.16642e-15
3.36197e-12
-2.99796e-11
6.55573e-16
4.03479e-12
-3.45276e-11
-7.07735e-17
4.77605e-12
-3.95182e-11
1.53714e-16
5.58729e-12
-4.49143e-11
-1.60647e-16
6.47305e-12
-5.07562e-11
-1.70156e-16
7.43994e-12
-5.70396e-11
-6.75564e-17
8.48727e-12
-6.37762e-11
1.8508e-16
9.61657e-12
-7.09674e-11
3.10408e-16
1.08253e-11
-7.86207e-11
4.4375e-16
1.21104e-11
-8.67196e-11
3.41999e-16
1.34676e-11
-9.52673e-11
3.41714e-16
1.48917e-11
-1.04239e-10
2.92483e-16
1.63754e-11
-1.13621e-10
3.12502e-16
1.79096e-11
-1.23384e-10
3.00979e-16
1.94832e-11
-1.33482e-10
3.16365e-16
2.10834e-11
-1.43895e-10
3.14226e-16
2.26951e-11
-1.54547e-10
3.18268e-16
2.43012e-11
-1.65393e-10
3.06553e-16
2.58831e-11
-1.76367e-10
2.91334e-16
2.74205e-11
-1.87388e-10
2.71802e-16
2.88915e-11
-1.98376e-10
2.57091e-16
3.02731e-11
-2.09239e-10
2.39481e-16
-2.19889e-10
2.24725e-16
8.21383e-15
-1.79681e-13
1.54302e-17
3.28593e-14
-7.99522e-13
6.95213e-17
5.23117e-14
-1.71694e-12
4.3895e-18
1.12818e-13
-2.85663e-12
1.03872e-15
2.30694e-13
-4.41325e-12
-7.00766e-16
5.88347e-13
-6.10086e-12
1.51898e-15
1.20498e-12
-8.10565e-12
9.82428e-16
1.68782e-12
-1.07147e-11
-1.30708e-14
2.14932e-12
-1.23866e-11
-1.66007e-15
2.00179e-12
-1.56167e-11
7.4916e-15
2.22215e-12
-1.87889e-11
-1.65123e-15
2.57102e-12
-2.23959e-11
1.15666e-15
3.06636e-12
-2.62474e-11
7.02933e-16
3.6364e-12
-3.05536e-11
-4.0429e-16
4.3154e-12
-3.51978e-11
1.06408e-15
5.07227e-12
-4.02713e-11
4.88634e-16
5.91147e-12
-4.57546e-11
-6.0198e-17
6.83628e-12
-5.16814e-11
-1.10757e-16
7.8491e-12
-5.80513e-11
1.78515e-16
8.94775e-12
-6.48748e-11
-1.20165e-17
1.0133e-11
-7.21512e-11
2.44928e-16
1.14018e-11
-7.98872e-11
2.72441e-16
1.27495e-11
-8.80653e-11
2.83124e-16
1.41716e-11
-9.66876e-11
2.16506e-16
1.56618e-11
-1.05728e-10
2.30779e-16
1.72125e-11
-1.15169e-10
2.1928e-16
1.88134e-11
-1.24983e-10
2.40793e-16
2.04526e-11
-1.35119e-10
2.42396e-16
2.21162e-11
-1.45556e-10
2.57322e-16
2.3788e-11
-1.56216e-10
2.58568e-16
2.54498e-11
-1.67053e-10
2.57443e-16
2.70819e-11
-1.77998e-10
2.45658e-16
2.86628e-11
-1.88967e-10
2.35807e-16
3.01696e-11
-1.99881e-10
2.28287e-16
3.15781e-11
-2.10646e-10
2.19059e-16
-2.21173e-10
2.09255e-16
9.46936e-15
-1.89146e-13
3.06041e-17
3.9628e-14
-8.30023e-13
9.68213e-18
1.04625e-13
-1.78375e-12
-1.91265e-16
2.43864e-13
-2.98766e-12
1.13729e-15
3.14886e-13
-4.49535e-12
-1.40605e-15
4.58706e-13
-6.22951e-12
2.95713e-15
6.30145e-13
-8.2529e-12
5.73374e-15
5.1872e-13
-1.06124e-11
-1.06587e-14
1.1832e-12
-1.30444e-11
1.21652e-15
1.59872e-12
-1.60395e-11
6.3017e-15
2.0801e-12
-1.92762e-11
-3.40205e-15
2.58721e-12
-2.28906e-11
1.79804e-15
3.17269e-12
-2.68271e-11
6.35517e-16
3.80927e-12
-3.11871e-11
4.4476e-16
4.54277e-12
-3.59195e-11
1.28761e-15
5.34756e-12
-4.10751e-11
3.15033e-16
6.23664e-12
-4.66468e-11
-4.32605e-16
7.21326e-12
-5.26608e-11
-2.82678e-16
8.28146e-12
-5.91202e-11
-8.99941e-17
9.43873e-12
-6.60316e-11
7.42927e-17
1.06858e-11
-7.33958e-11
2.63009e-16
1.20188e-11
-8.12176e-11
3.49411e-16
1.34336e-11
-8.94779e-11
2.53797e-16
1.49246e-11
-9.81771e-11
2.12326e-16
1.64852e-11
-1.07287e-10
1.69729e-16
1.81067e-11
-1.1679e-10
1.87153e-16
1.97782e-11
-1.26653e-10
1.84145e-16
2.14866e-11
-1.36826e-10
1.96438e-16
2.32168e-11
-1.47285e-10
1.98595e-16
2.49516e-11
-1.57949e-10
2.04684e-16
2.66716e-11
-1.68772e-10
2.01051e-16
2.83558e-11
-1.7968e-10
1.96028e-16
2.99816e-11
-1.90592e-10
1.91636e-16
3.15249e-11
-2.01423e-10
1.93518e-16
3.29605e-11
-2.1208e-10
1.92709e-16
-2.22474e-10
1.90091e-16
1.04534e-14
-1.9935e-13
-4.35973e-17
4.88603e-14
-8.69092e-13
1.51716e-16
1.12059e-13
-1.84845e-12
-2.40066e-16
1.64058e-13
-3.0375e-12
2.51516e-16
3.18267e-13
-4.6584e-12
-7.1651e-16
5.25349e-13
-6.3971e-12
5.85055e-15
7.2967e-13
-8.46786e-12
2.39189e-15
9.24804e-13
-1.08261e-11
-8.82428e-15
1.28443e-12
-1.34407e-11
-6.25979e-15
1.70607e-12
-1.64261e-11
1.17864e-14
2.18569e-12
-1.9737e-11
-1.05066e-15
2.72636e-12
-2.34177e-11
2.11648e-15
3.35038e-12
-2.74398e-11
1.24983e-15
4.03427e-12
-3.18659e-11
6.09564e-16
4.81045e-12
-3.66834e-11
1.39504e-15
5.6608e-12
-4.19237e-11
3.45761e-16
6.59626e-12
-4.75868e-11
-5.84096e-16
7.62386e-12
-5.36929e-11
-5.16598e-16
8.74846e-12
-6.02456e-11
-9.54885e-17
9.96646e-12
-6.72504e-11
-9.53664e-17
1.12782e-11
-7.47068e-11
1.17818e-16
1.26796e-11
-8.26177e-11
1.68967e-16
1.41653e-11
-9.09628e-11
1.32858e-16
1.57293e-11
-9.97407e-11
6.7323e-17
1.73642e-11
-1.08922e-10
7.21722e-17
1.90605e-11
-1.18485e-10
7.82566e-17
2.08061e-11
-1.28398e-10
1.0263e-16
2.2587e-11
-1.38606e-10
1.11667e-16
2.43869e-11
-1.49084e-10
1.28045e-16
2.61874e-11
-1.59749e-10
1.36137e-16
2.79676e-11
-1.70551e-10
1.41254e-16
2.97056e-11
-1.81418e-10
1.42e-16
3.13773e-11
-1.92263e-10
1.46357e-16
3.29575e-11
-2.03002e-10
1.56248e-16
3.44199e-11
-2.13541e-10
1.64617e-16
-2.2379e-10
1.69231e-16
9.71332e-15
-2.08856e-13
-1.09118e-16
4.20558e-14
-9.00809e-13
8.52211e-17
1.2339e-13
-1.93363e-12
3.46459e-16
2.90809e-13
-3.19579e-12
7.90448e-16
4.74e-13
-4.849e-12
-1.33765e-15
5.94794e-13
-6.53416e-12
-4.52977e-16
7.81283e-13
-8.68794e-12
-7.25176e-16
1.0317e-12
-1.10954e-11
-9.77354e-15
1.36449e-12
-1.38285e-11
-8.02991e-15
1.80278e-12
-1.68511e-11
9.20759e-15
2.2955e-12
-2.02351e-11
-3.65164e-15
2.86853e-12
-2.39742e-11
2.42688e-15
3.52519e-12
-2.80876e-11
1.03329e-15
4.25171e-12
-3.25915e-11
1.23961e-16
5.07415e-12
-3.74987e-11
9.33549e-16
5.97887e-12
-4.28266e-11
2.65792e-16
6.96997e-12
-4.85842e-11
-7.12472e-16
8.0577e-12
-5.47859e-11
-6.55139e-16
9.24502e-12
-6.14353e-11
-2.3879e-16
1.05293e-11
-6.85355e-11
-1.25625e-16
1.19106e-11
-7.60868e-11
1.50834e-16
1.33848e-11
-8.40901e-11
2.12073e-16
1.49457e-11
-9.25228e-11
1.19382e-16
1.6587e-11
-1.01382e-10
4.98643e-17
1.83003e-11
-1.10635e-10
2.10355e-17
2.00752e-11
-1.2026e-10
4.02994e-17
2.18987e-11
-1.30221e-10
5.38482e-17
2.37554e-11
-1.40462e-10
7.0823e-17
2.5628e-11
-1.50956e-10
8.2056e-17
2.74966e-11
-1.61617e-10
9.12902e-17
2.93391e-11
-1.72393e-10
9.47836e-17
3.11322e-11
-1.8321e-10
9.83882e-17
3.28505e-11
-1.9398e-10
1.07077e-16
3.44676e-11
-2.04618e-10
1.23301e-16
3.59563e-11
-2.15029e-10
1.38816e-16
-2.25122e-10
1.49547e-16
1.12008e-14
-2.20277e-13
9.95656e-17
5.3133e-14
-9.4248e-13
-1.52825e-16
9.1447e-14
-1.97033e-12
-1.14016e-15
1.52429e-13
-3.25359e-12
1.60858e-15
2.61788e-13
-4.94792e-12
3.35114e-15
5.19457e-13
-6.79523e-12
-1.33561e-15
7.77571e-13
-8.95591e-12
2.419e-15
1.07273e-12
-1.13911e-11
-7.45801e-15
1.46712e-12
-1.42171e-11
-1.37042e-15
1.91259e-12
-1.73209e-11
4.92466e-15
2.43771e-12
-2.07755e-11
-4.83661e-15
3.04203e-12
-2.45724e-11
9.9987e-16
3.74274e-12
-2.87711e-11
1.8599e-15
4.50777e-12
-3.33566e-11
2.03357e-16
5.37519e-12
-3.83586e-11
7.86258e-16
6.32923e-12
-4.37788e-11
4.18473e-16
7.37574e-12
-4.9635e-11
-6.29102e-16
8.52442e-12
-5.59369e-11
-2.53837e-16
9.77678e-12
-6.26891e-11
-2.31531e-16
1.11304e-11
-6.98915e-11
-2.30081e-16
1.25858e-11
-7.75427e-11
-4.97232e-17
1.41372e-11
-8.56413e-11
7.02476e-17
1.57778e-11
-9.41637e-11
-1.59398e-17
1.75006e-11
-1.03105e-10
-5.66883e-17
1.92964e-11
-1.12431e-10
-6.35681e-17
2.11537e-11
-1.22118e-10
-3.33561e-17
2.30584e-11
-1.32126e-10
-6.34785e-18
2.49942e-11
-1.42398e-10
1.82146e-17
2.69421e-11
-1.52904e-10
3.65332e-17
2.8881e-11
-1.63555e-10
5.01918e-17
3.07874e-11
-1.74299e-10
5.66132e-17
3.26366e-11
-1.85059e-10
6.50908e-17
3.44019e-11
-1.95745e-10
7.81638e-17
3.60557e-11
-2.06272e-10
9.92115e-17
3.75695e-11
-2.16542e-10
1.18906e-16
-2.26466e-10
1.33566e-16
1.13932e-14
-2.31742e-13
6.25562e-17
4.90531e-14
-9.79841e-13
-1.07392e-16
1.34371e-13
-2.05524e-12
-9.56036e-16
2.92019e-13
-3.41912e-12
2.3174e-16
4.00752e-13
-5.06283e-12
8.21943e-16
6.22161e-13
-6.98829e-12
2.85097e-15
8.66579e-13
-9.19938e-12
3.97617e-15
1.0965e-12
-1.1667e-11
-1.20503e-14
1.53778e-12
-1.46679e-11
-3.00514e-15
2.03277e-12
-1.77924e-11
1.0319e-14
2.60912e-12
-2.13195e-11
5.60885e-16
3.23624e-12
-2.51993e-11
3.90108e-16
3.97581e-12
-2.94957e-11
1.83768e-15
4.78575e-12
-3.41627e-11
3.40787e-16
5.70102e-12
-3.92635e-11
1.29722e-15
6.70613e-12
-4.47845e-11
-9.16139e-17
7.81024e-12
-5.07457e-11
-7.12463e-16
9.02417e-12
-5.71543e-11
-5.177e-16
1.03455e-11
-6.4013e-11
-2.40256e-16
1.17734e-11
-7.13207e-11
-2.24115e-16
1.33064e-11
-7.90751e-11
9.8045e-17
1.49388e-11
-8.72729e-11
9.00226e-17
1.66634e-11
-9.58883e-11
2.83075e-17
1.8472e-11
-1.04914e-10
-7.06914e-17
2.03543e-11
-1.14314e-10
-8.31384e-17
2.22979e-11
-1.24062e-10
-6.54519e-17
2.42874e-11
-1.34116e-10
-2.9437e-17
2.63052e-11
-1.44415e-10
-5.46371e-19
2.83311e-11
-1.5493e-10
2.66623e-17
3.03424e-11
-1.65566e-10
3.84509e-17
3.23141e-11
-1.76271e-10
4.5873e-17
3.42202e-11
-1.86965e-10
5.19238e-17
3.60325e-11
-1.97557e-10
6.63126e-17
3.77222e-11
-2.07961e-10
8.68142e-17
3.92598e-11
-2.18079e-10
1.07567e-16
-2.27821e-10
1.22047e-16
1.22977e-14
-2.44178e-13
6.16915e-17
5.59058e-14
-1.02319e-12
-6.80966e-17
1.42055e-13
-2.14069e-12
-9.73089e-16
3.09793e-13
-3.58648e-12
1.14922e-15
4.21468e-13
-5.18431e-12
3.74439e-16
6.53494e-13
-7.17195e-12
4.6838e-15
8.90014e-13
-9.42709e-12
4.57437e-15
9.00784e-13
-1.17098e-11
-1.32863e-14
1.63382e-12
-1.5404e-11
-1.82734e-17
2.1852e-12
-1.83319e-11
8.61173e-15
2.80182e-12
-2.19233e-11
-1.49631e-15
3.45636e-12
-2.58503e-11
8.70657e-16
4.22544e-12
-3.02565e-11
9.07444e-16
5.07272e-12
-3.5004e-11
8.91854e-16
6.03731e-12
-4.02172e-11
1.09104e-15
7.09999e-12
-4.58483e-11
1.64853e-16
8.26866e-12
-5.19216e-11
-9.73748e-16
9.55309e-12
-5.84419e-11
-2.9849e-16
1.09495e-11
-6.54126e-11
-4.28343e-16
1.2457e-11
-7.28301e-11
-1.71624e-16
1.40738e-11
-8.06916e-11
-8.34862e-19
1.57926e-11
-8.89915e-11
8.19606e-17
1.76058e-11
-9.7702e-11
-4.28591e-17
1.95045e-11
-1.06814e-10
-8.78006e-17
2.14774e-11
-1.16288e-10
-1.1775e-16
2.35109e-11
-1.26096e-10
-7.75657e-17
2.55885e-11
-1.36194e-10
-4.45953e-17
2.76912e-11
-1.46518e-10
-2.32245e-19
2.97974e-11
-1.57036e-10
2.65821e-17
3.18828e-11
-1.67652e-10
4.48679e-17
3.3921e-11
-1.78309e-10
4.84338e-17
3.58843e-11
-1.88928e-10
5.65366e-17
3.77433e-11
-1.99416e-10
6.83536e-17
3.94678e-11
-2.09685e-10
8.76246e-17
4.10272e-11
-2.19637e-10
1.03953e-16
-2.29184e-10
1.1504e-16
1.28752e-14
-2.57213e-13
8.68915e-17
5.38162e-14
-1.06349e-12
-1.21586e-16
1.06743e-13
-2.19314e-12
-9.78588e-16
2.05941e-13
-3.69068e-12
1.34303e-15
3.76705e-13
-5.3765e-12
4.74798e-16
8.11268e-13
-7.59558e-12
1.58649e-15
1.47503e-12
-1.01156e-11
3.16757e-16
2.08218e-12
-1.22805e-11
-9.9531e-15
2.68682e-12
-1.59613e-11
2.59101e-15
2.7404e-12
-1.84307e-11
3.90092e-15
3.15699e-12
-2.23531e-11
-4.91883e-15
3.75828e-12
-2.64448e-11
9.15247e-16
4.52526e-12
-3.1017e-11
7.74573e-16
5.39718e-12
-3.58822e-11
-8.22301e-16
6.40371e-12
-4.12218e-11
3.13651e-16
7.52863e-12
-4.69723e-11
1.03635e-16
8.76359e-12
-5.31642e-11
-7.74174e-16
1.01221e-11
-5.98024e-11
-3.54491e-16
1.15974e-11
-6.68896e-11
-1.39935e-16
1.31884e-11
-7.44226e-11
-2.30678e-16
1.4892e-11
-8.2395e-11
7.91528e-17
1.67014e-11
-9.08003e-11
6.01935e-17
1.86075e-11
-9.96082e-11
3.16841e-17
2.06005e-11
-1.08808e-10
-7.91708e-17
2.26679e-11
-1.18357e-10
-1.02475e-16
2.47951e-11
-1.28224e-10
-1.01447e-16
2.69642e-11
-1.38364e-10
-4.59953e-17
2.91547e-11
-1.48709e-10
-4.05336e-19
3.13434e-11
-1.59224e-10
4.86288e-17
3.35045e-11
-1.69812e-10
6.63006e-17
3.56099e-11
-1.80414e-10
7.48942e-17
3.76304e-11
-1.90948e-10
7.70845e-17
3.95354e-11
-2.0132e-10
8.71071e-17
4.12931e-11
-2.11442e-10
9.85758e-17
4.28719e-11
-2.21215e-10
1.07297e-16
-2.30551e-10
1.09373e-16
1.42867e-14
-2.71522e-13
1.75615e-17
6.69228e-14
-1.11643e-12