/*--------------------------------*- C++ -*----------------------------------*\
| =========                 |                                                 |
| \\      /  F ield         | OpenFOAM: The Open Source CFD Toolbox           |
|  \\    /   O peration     | Version:  v2012                                 |
|   \\  /    A nd           | Website:  www.openfoam.com                      |
|    \\/     M anipulation  |                                                 |
\*---------------------------------------------------------------------------*/
FoamFile
{
    version     2.0;
    format      ascii;
    class       volVectorField;
    location    "0.65";
    object      U;
}
// * * * * * * * * * * * * * * * * * * * * * * * * * * * * * * * * * * * * * //

dimensions      [0 1 -1 0 0 0 0];


internalField   nonuniform List<vector> 
3332
(
(0.00186502 -0.0241544 -1.62765e-05)
(0.00205112 -0.0247768 -1.79008e-05)
(0.0022425 -0.0253523 -1.9571e-05)
(0.00243801 -0.0258797 -2.12774e-05)
(0.00263632 -0.0263576 -2.30082e-05)
(0.002836 -0.0267848 -2.4751e-05)
(0.00303542 -0.0271595 -2.64914e-05)
(0.00323278 -0.0274803 -2.8214e-05)
(0.00342612 -0.0277456 -2.99016e-05)
(0.00361341 -0.0279538 -3.15363e-05)
(0.00379241 -0.0281034 -3.30987e-05)
(0.00396078 -0.0281931 -3.45684e-05)
(0.0041161 -0.0282217 -3.59242e-05)
(0.00425591 -0.0281882 -3.71447e-05)
(0.00437771 -0.0280918 -3.8208e-05)
(0.00447906 -0.0279319 -3.90928e-05)
(0.00455756 -0.0277081 -3.97783e-05)
(0.00461099 -0.0274206 -4.0245e-05)
(0.00463727 -0.0270694 -4.04748e-05)
(0.00463463 -0.0266551 -4.04524e-05)
(0.00161217 -0.0230808 -1.40698e-05)
(0.00179527 -0.0238008 -1.56678e-05)
(0.00198582 -0.0244739 -1.73308e-05)
(0.00218273 -0.0250994 -1.90493e-05)
(0.00238496 -0.0256764 -2.08144e-05)
(0.00259135 -0.0262036 -2.26156e-05)
(0.00280047 -0.0266797 -2.44408e-05)
(0.00301075 -0.0271033 -2.6276e-05)
(0.00322046 -0.0274727 -2.81065e-05)
(0.00342767 -0.0277864 -2.99149e-05)
(0.00363032 -0.0280427 -3.16837e-05)
(0.0038262 -0.0282403 -3.33934e-05)
(0.004013 -0.0283776 -3.5024e-05)
(0.00418821 -0.0284533 -3.65534e-05)
(0.00434934 -0.0284664 -3.79598e-05)
(0.00449376 -0.0284159 -3.92205e-05)
(0.0046189 -0.0283012 -4.03131e-05)
(0.0047222 -0.0281218 -4.1215e-05)
(0.00480123 -0.0278777 -4.19051e-05)
(0.00485367 -0.027569 -4.23632e-05)
(0.00487744 -0.0271962 -4.25711e-05)
(0.00487071 -0.02676 -4.2513e-05)
(6.03575e-07 -0.0013317 -5.26822e-09)
(1.105e-05 -0.00344907 -9.6432e-08)
(3.41216e-05 -0.0054845 -2.97738e-07)
(6.82218e-05 -0.00732702 -5.95321e-07)
(0.00011417 -0.00900949 -9.96356e-07)
(0.000171495 -0.0105613 -1.49662e-06)
(0.000238715 -0.012003 -2.0833e-06)
(0.000318682 -0.0133568 -2.78124e-06)
(0.000411975 -0.0146261 -3.59524e-06)
(0.000515296 -0.015825 -4.49699e-06)
(0.000886145 -0.0190558 -7.73355e-06)
(0.00103258 -0.0200245 -9.01153e-06)
(0.00118922 -0.0209431 -1.03786e-05)
(0.00135629 -0.0218131 -1.18366e-05)
(0.00153277 -0.022635 -1.33769e-05)
(0.00171846 -0.0234091 -1.49974e-05)
(0.00191263 -0.0241352 -1.6692e-05)
(0.00211444 -0.0248129 -1.84533e-05)
(0.00232276 -0.0254414 -2.02714e-05)
(0.00253647 -0.0260197 -2.21366e-05)
(0.00275432 -0.0265464 -2.4038e-05)
(0.00297477 -0.0270203 -2.5962e-05)
(0.00319616 -0.0274398 -2.78943e-05)
(0.00341662 -0.0278032 -2.98184e-05)
(0.0036341 -0.028109 -3.17166e-05)
(0.00384639 -0.0283557 -3.35695e-05)
(0.00405117 -0.0285417 -3.53569e-05)
(0.00424596 -0.0286656 -3.70572e-05)
(0.00442817 -0.0287263 -3.86478e-05)
(0.00459512 -0.0287226 -4.0105e-05)
(0.00474413 -0.028654 -4.14058e-05)
(0.00487248 -0.0285198 -4.25263e-05)
(0.00497754 -0.0283198 -4.34436e-05)
(0.00505677 -0.028054 -4.41355e-05)
(0.00510785 -0.027723 -4.45817e-05)
(0.00512862 -0.0273274 -4.47635e-05)
(0.00511728 -0.0268681 -4.46652e-05)
(6.91809e-07 -0.00134892 -6.03148e-09)
(1.19264e-05 -0.0034967 -1.04065e-07)
(3.6561e-05 -0.00556295 -3.19038e-07)
(7.34889e-05 -0.00743466 -6.41311e-07)
(0.000123198 -0.00914379 -1.07515e-06)
(0.000185071 -0.0107207 -1.61512e-06)
(0.00025917 -0.0121869 -2.26184e-06)
(0.000344154 -0.0135585 -3.00345e-06)
(0.000441575 -0.0148496 -3.85362e-06)
(0.000552299 -0.0160681 -4.82e-06)
(0.000673877 -0.0172209 -5.88103e-06)
(0.000804771 -0.0183135 -7.0234e-06)
(0.00094778 -0.0193498 -8.27142e-06)
(0.00110372 -0.0203324 -9.63245e-06)
(0.00127009 -0.0212635 -1.10844e-05)
(0.00144758 -0.0221445 -1.26334e-05)
(0.00163511 -0.022976 -1.427e-05)
(0.00183218 -0.023758 -1.599e-05)
(0.00203799 -0.0244905 -1.77861e-05)
(0.00225158 -0.0251727 -1.96502e-05)
(0.00247186 -0.0258041 -2.15727e-05)
(0.00269767 -0.0263834 -2.35435e-05)
(0.00292756 -0.0269094 -2.55499e-05)
(0.00315992 -0.0273805 -2.75779e-05)
(0.00339293 -0.0277952 -2.96115e-05)
(0.00362462 -0.0281519 -3.16337e-05)
(0.00385276 -0.0284491 -3.3625e-05)
(0.00407506 -0.0286851 -3.55653e-05)
(0.004289 -0.0288586 -3.74327e-05)
(0.004492 -0.0289681 -3.92047e-05)
(0.0046813 -0.0290125 -4.08571e-05)
(0.00485413 -0.028991 -4.23656e-05)
(0.00500764 -0.0289029 -4.37057e-05)
(0.00513904 -0.0287479 -4.48529e-05)
(0.00524559 -0.0285259 -4.57832e-05)
(0.0053247 -0.0282373 -4.64741e-05)
(0.00537396 -0.0278826 -4.69045e-05)
(0.00539124 -0.0274628 -4.70558e-05)
(0.0053747 -0.0269793 -4.6912e-05)
(7.53333e-07 -0.00136743 -6.57007e-09)
(1.27926e-05 -0.00354787 -1.11628e-07)
(3.93862e-05 -0.00564701 -3.43713e-07)
(7.9286e-05 -0.00754909 -6.91919e-07)
(0.000132586 -0.00928658 -1.15708e-06)
(0.000198633 -0.0108898 -1.73346e-06)
(0.00027763 -0.0123809 -2.42289e-06)
(0.000368365 -0.0137768 -3.21474e-06)
(0.000473021 -0.0150896 -4.12811e-06)
(0.000591175 -0.0163282 -5.15922e-06)
(0.000720756 -0.0175003 -6.29022e-06)
(0.000860895 -0.0186104 -7.51315e-06)
(0.0010134 -0.0196627 -8.84418e-06)
(0.00117947 -0.02066 -1.02935e-05)
(0.00135646 -0.0216043 -1.18381e-05)
(0.00154509 -0.0224968 -1.34843e-05)
(0.0017442 -0.0233382 -1.52221e-05)
(0.00195334 -0.0241285 -1.70473e-05)
(0.00217157 -0.0248674 -1.8952e-05)
(0.00239776 -0.0255544 -2.09259e-05)
(0.00263073 -0.0261885 -2.29593e-05)
(0.00286925 -0.0267686 -2.5041e-05)
(0.00311181 -0.0272934 -2.7158e-05)
(0.00335663 -0.0277612 -2.92946e-05)
(0.0036018 -0.0281706 -3.14345e-05)
(0.00384517 -0.0285199 -3.35586e-05)
(0.00408443 -0.0288075 -3.56469e-05)
(0.00431706 -0.0290319 -3.76774e-05)
(0.00454046 -0.0291917 -3.96273e-05)
(0.00475184 -0.0292856 -4.14724e-05)
(0.00494834 -0.0293126 -4.31877e-05)
(0.00512702 -0.0292719 -4.47474e-05)
(0.00528494 -0.029163 -4.61261e-05)
(0.00541919 -0.0289858 -4.7298e-05)
(0.00552694 -0.0287405 -4.82389e-05)
(0.00560552 -0.0284275 -4.89252e-05)
(0.00565251 -0.0280478 -4.93357e-05)
(0.0056657 -0.0276026 -4.94514e-05)
(0.00564333 -0.0270935 -4.92567e-05)
(0.00558399 -0.0265223 -4.87401e-05)
(8.50242e-07 -0.00138757 -7.41376e-09)
(1.39015e-05 -0.00360331 -1.21305e-07)
(4.25243e-05 -0.00573785 -3.71093e-07)
(8.53774e-05 -0.00767293 -7.45085e-07)
(0.000142536 -0.00944113 -1.2439e-06)
(0.000213397 -0.0110728 -1.8623e-06)
(0.00029826 -0.0125907 -2.60291e-06)
(0.00039546 -0.0140114 -3.45122e-06)
(0.000507488 -0.015347 -4.42887e-06)
(0.000633473 -0.0166072 -5.52841e-06)
(0.000771704 -0.0177991 -6.73483e-06)
(0.000921274 -0.0189276 -8.04014e-06)
(0.00108389 -0.0199968 -9.45932e-06)
(0.00126061 -0.0210094 -1.10016e-05)
(0.00144892 -0.0219673 -1.2645e-05)
(0.00164939 -0.0228718 -1.43947e-05)
(0.0018608 -0.0237234 -1.62397e-05)
(0.00208273 -0.0245221 -1.81765e-05)
(0.00231404 -0.0252677 -2.01953e-05)
(0.00255349 -0.0259593 -2.22851e-05)
(0.00279986 -0.026596 -2.44353e-05)
(0.00305182 -0.0271766 -2.66344e-05)
(0.0033077 -0.0276997 -2.88675e-05)
(0.00356561 -0.0281637 -3.11186e-05)
(0.0038235 -0.028567 -3.33694e-05)
(0.00407908 -0.0289081 -3.56001e-05)
(0.00432986 -0.0291852 -3.77889e-05)
(0.0045732 -0.0293969 -3.99129e-05)
(0.0048063 -0.0295419 -4.19475e-05)
(0.00502625 -0.0296189 -4.38675e-05)
(0.00523 -0.0296271 -4.56461e-05)
(0.00541453 -0.0295658 -4.72568e-05)
(0.00557672 -0.0294346 -4.86727e-05)
(0.00571358 -0.0292338 -4.98675e-05)
(0.00582217 -0.0289636 -5.08157e-05)
(0.0058998 -0.0286248 -5.14937e-05)
(0.00594394 -0.0282186 -5.18794e-05)
(0.00595245 -0.0277466 -5.19543e-05)
(0.00592353 -0.0272106 -5.17024e-05)
(0.00585588 -0.0266128 -5.11128e-05)
(9.21244e-07 -0.00140935 -8.0338e-09)
(1.49949e-05 -0.00366308 -1.30843e-07)
(4.58186e-05 -0.0058357 -3.99857e-07)
(9.20149e-05 -0.00780606 -8.03009e-07)
(0.000153409 -0.00960689 -1.33878e-06)
(0.000229214 -0.0112688 -2.00032e-06)
(0.000319925 -0.0128148 -2.79202e-06)
(0.000424507 -0.0142617 -3.70468e-06)
(0.000544323 -0.0156219 -4.75035e-06)
(0.000678649 -0.016905 -5.92264e-06)
(0.000826176 -0.018118 -7.21025e-06)
(0.000985815 -0.019266 -8.60336e-06)
(0.00115918 -0.020353 -1.01164e-05)
(0.00134737 -0.0213817 -1.17588e-05)
(0.00154776 -0.022354 -1.35077e-05)
(0.00176087 -0.023271 -1.53675e-05)
(0.00198537 -0.0241331 -1.73269e-05)
(0.00222077 -0.0249405 -1.93812e-05)
(0.00246595 -0.0256928 -2.15211e-05)
(0.00271949 -0.0263889 -2.37338e-05)
(0.00298006 -0.027028 -2.6008e-05)
(0.00324618 -0.0276088 -2.83306e-05)
(0.00351608 -0.0281297 -3.06862e-05)
(0.00378772 -0.0285892 -3.3057e-05)
(0.00405891 -0.0289857 -3.5424e-05)
(0.0043272 -0.0293175 -3.77656e-05)
(0.00458995 -0.0295831 -4.00589e-05)
(0.00484432 -0.0297809 -4.22792e-05)
(0.00508739 -0.0299098 -4.44008e-05)
(0.00531604 -0.0299686 -4.63968e-05)
(0.00552712 -0.0299565 -4.82393e-05)
(0.0057174 -0.029873 -4.99003e-05)
(0.0058837 -0.0297182 -5.13521e-05)
(0.00602287 -0.029492 -5.25671e-05)
(0.00613193 -0.0291954 -5.35194e-05)
(0.00620806 -0.0288293 -5.41843e-05)
(0.00624879 -0.0283951 -5.45403e-05)
(0.0062519 -0.0278948 -5.4568e-05)
(0.00621569 -0.0273306 -5.42526e-05)
(0.00613888 -0.0267048 -5.35828e-05)
(0.00602079 -0.0260203 -5.25536e-05)
(1.01873e-06 -0.00143301 -8.88304e-09)
(1.6265e-05 -0.00372771 -1.41927e-07)
(4.94673e-05 -0.00594115 -4.31693e-07)
(9.91314e-05 -0.00794923 -8.65132e-07)
(0.00016508 -0.00978488 -1.44063e-06)
(0.000246463 -0.0114791 -2.15088e-06)
(0.00034377 -0.0130551 -3.0001e-06)
(0.000455689 -0.0145299 -3.97684e-06)
(0.000583754 -0.0159163 -5.09444e-06)
(0.000727155 -0.0172236 -6.34599e-06)
(0.000884612 -0.0184589 -7.72019e-06)
(0.00105502 -0.0196275 -9.2074e-06)
(0.00123993 -0.0207332 -1.08211e-05)
(0.00144033 -0.0217787 -1.25701e-05)
(0.00165356 -0.022766 -1.4431e-05)
(0.0018801 -0.0236959 -1.64081e-05)
(0.00211853 -0.0245691 -1.84889e-05)
(0.00236826 -0.0253853 -2.06685e-05)
(0.00262811 -0.0261442 -2.29362e-05)
(0.00289655 -0.0268448 -2.52791e-05)
(0.00317208 -0.0274859 -2.76838e-05)
(0.00345314 -0.0280664 -3.01368e-05)
(0.00373776 -0.0285846 -3.26209e-05)
(0.00402381 -0.0290389 -3.51176e-05)
(0.0043089 -0.0294276 -3.76057e-05)
(0.00459043 -0.0297492 -4.0063e-05)
(0.00486557 -0.0300021 -4.24644e-05)
(0.00513135 -0.0301848 -4.47843e-05)
(0.00538461 -0.0302962 -4.69949e-05)
(0.00562212 -0.0303353 -4.90682e-05)
(0.00584052 -0.0303014 -5.09746e-05)
(0.00603647 -0.0301942 -5.26851e-05)
(0.00620663 -0.0300139 -5.41706e-05)
(0.00634778 -0.0297609 -5.5403e-05)
(0.00645682 -0.0294361 -5.63551e-05)
(0.00653092 -0.029041 -5.70024e-05)
(0.00656754 -0.0285773 -5.73224e-05)
(0.00656452 -0.0280472 -5.72968e-05)
(0.00652016 -0.0274532 -5.69102e-05)
(0.00643332 -0.0267982 -5.61528e-05)
(0.00630339 -0.0260852 -5.50198e-05)
(1.13317e-06 -0.0014586 -9.88917e-09)
(1.75995e-05 -0.00379743 -1.53585e-07)
(5.3522e-05 -0.00605477 -4.67076e-07)
(0.00010691 -0.00810331 -9.32989e-07)
(0.000177795 -0.00997626 -1.55162e-06)
(0.000264876 -0.011705 -2.31155e-06)
(0.00036912 -0.013313 -3.22135e-06)
(0.000489032 -0.0148175 -4.26779e-06)
(0.000625905 -0.0162315 -5.46233e-06)
(0.000779301 -0.0175643 -6.80103e-06)
(0.000947357 -0.0188232 -8.26782e-06)
(0.00112918 -0.0200134 -9.85455e-06)
(0.00132641 -0.0211388 -1.15759e-05)
(0.00153986 -0.022202 -1.34387e-05)
(0.00176682 -0.0232048 -1.54195e-05)
(0.00200764 -0.0241483 -1.75211e-05)
(0.00226089 -0.0250327 -1.97314e-05)
(0.00252584 -0.025858 -2.20436e-05)
(0.00280124 -0.0266235 -2.44473e-05)
(0.00308543 -0.0273284 -2.69275e-05)
(0.00337678 -0.0279714 -2.94703e-05)
(0.00367356 -0.0285511 -3.20605e-05)
(0.00397369 -0.0290659 -3.468e-05)
(0.00427483 -0.0295142 -3.73082e-05)
(0.00457444 -0.0298942 -3.99234e-05)
(0.00486974 -0.0302045 -4.25007e-05)
(0.00515774 -0.0304434 -4.50144e-05)
(0.00543524 -0.0306096 -4.74365e-05)
(0.00569893 -0.030702 -4.97383e-05)
(0.00594538 -0.0307197 -5.18895e-05)
(0.0061711 -0.0306623 -5.38599e-05)
(0.00637256 -0.0305297 -5.56185e-05)
(0.00654633 -0.0303222 -5.71355e-05)
(0.00668903 -0.0300404 -5.83815e-05)
(0.00679755 -0.0296858 -5.93291e-05)
(0.00686895 -0.02926 -5.99528e-05)
(0.00690074 -0.028765 -6.02308e-05)
(0.00689073 -0.0282035 -6.01441e-05)
(0.00683734 -0.0275784 -5.96787e-05)
(0.00673947 -0.0268928 -5.88251e-05)
(0.00659672 -0.0261501 -5.75802e-05)
(1.24545e-06 -0.00148642 -1.08674e-08)
(1.90795e-05 -0.00387281 -1.66502e-07)
(5.77725e-05 -0.00617727 -5.0416e-07)
(0.000115197 -0.00826907 -1.00533e-06)
(0.000191363 -0.010182 -1.67003e-06)
(0.00028492 -0.0119474 -2.48651e-06)
(0.000396754 -0.0135896 -3.46249e-06)
(0.000525134 -0.0151257 -4.58291e-06)
(0.000671523 -0.016569 -5.86041e-06)
(0.00083539 -0.017929 -7.29057e-06)
(0.00101478 -0.0192128 -8.85619e-06)
(0.00120891 -0.0204258 -1.05504e-05)
(0.00141927 -0.0215717 -1.23862e-05)
(0.00164661 -0.0226534 -1.43703e-05)
(0.00188815 -0.0236724 -1.64782e-05)
(0.00214416 -0.0246299 -1.87126e-05)
(0.00241315 -0.0255259 -2.10602e-05)
(0.00269427 -0.0263604 -2.35137e-05)
(0.00298616 -0.0271326 -2.60611e-05)
(0.003287 -0.0278416 -2.86868e-05)
(0.00359504 -0.028486 -3.13751e-05)
(0.00390841 -0.0290643 -3.41102e-05)
(0.00422481 -0.029575 -3.68716e-05)
(0.00454178 -0.0300164 -3.96382e-05)
(0.00485656 -0.0303867 -4.23855e-05)
(0.00516619 -0.0306844 -4.50881e-05)
(0.00546747 -0.030908 -4.77176e-05)
(0.00575703 -0.0310561 -5.02451e-05)
(0.00603135 -0.0311279 -5.26395e-05)
(0.00628684 -0.0311226 -5.48698e-05)
(0.00651979 -0.0310399 -5.69033e-05)
(0.00672658 -0.03088 -5.87084e-05)
(0.00690359 -0.0306433 -6.02538e-05)
(0.00704741 -0.030331 -6.15095e-05)
(0.00715478 -0.0299446 -6.24471e-05)
(0.0072228 -0.0294862 -6.30413e-05)
(0.00724889 -0.0289583 -6.32697e-05)
(0.00723102 -0.0283637 -6.31143e-05)
(0.00716757 -0.0277058 -6.25612e-05)
(0.00705765 -0.0269882 -6.16025e-05)
(0.00690097 -0.0262145 -6.0236e-05)
(1.38075e-06 -0.00151647 -1.20489e-08)
(2.06107e-05 -0.00395417 -1.79858e-07)
(6.23876e-05 -0.00630928 -5.44467e-07)
(0.000124144 -0.0084475 -1.08342e-06)
(0.00020605 -0.010403 -1.79821e-06)
(0.000306513 -0.0122077 -2.67493e-06)
(0.000426349 -0.0138862 -3.7208e-06)
(0.000563789 -0.0154559 -4.92021e-06)
(0.000720235 -0.0169301 -6.28557e-06)
(0.000895736 -0.0183187 -7.81718e-06)
(0.00108743 -0.019629 -9.49026e-06)
(0.00129466 -0.0208661 -1.12987e-05)
(0.00151905 -0.0220338 -1.3257e-05)
(0.00176112 -0.0231349 -1.53696e-05)
(0.00201821 -0.0241709 -1.76134e-05)
(0.00229037 -0.0251428 -1.99886e-05)
(0.00257609 -0.0260508 -2.24823e-05)
(0.00287438 -0.0268945 -2.50855e-05)
(0.00318374 -0.0276734 -2.77855e-05)
(0.00350222 -0.0283861 -3.0565e-05)
(0.0038279 -0.0290315 -3.34075e-05)
(0.00415872 -0.0296079 -3.62947e-05)
(0.00449224 -0.0301137 -3.92057e-05)
(0.00482577 -0.0305471 -4.21167e-05)
(0.00515639 -0.0309065 -4.50024e-05)
(0.0054809 -0.0311902 -4.78347e-05)
(0.00579591 -0.031397 -5.05842e-05)
(0.00609783 -0.0315254 -5.32195e-05)
(0.00638297 -0.0315748 -5.57085e-05)
(0.00664751 -0.0315446 -5.80177e-05)
(0.00688761 -0.0314347 -6.01137e-05)
(0.00709945 -0.0312454 -6.19628e-05)
(0.00727934 -0.0309776 -6.35333e-05)
(0.00742369 -0.0306327 -6.47937e-05)
(0.00752926 -0.0302126 -6.57157e-05)
(0.00759306 -0.0297197 -6.62731e-05)
(0.00761259 -0.029157 -6.64442e-05)
(0.00758579 -0.0285276 -6.6211e-05)
(0.00751125 -0.0278353 -6.55611e-05)
(0.00738813 -0.0270842 -6.44872e-05)
(0.0072164 -0.0262783 -6.29893e-05)
(1.51567e-06 -0.00154926 -1.3224e-08)
(2.2347e-05 -0.00404222 -1.95012e-07)
(6.73905e-05 -0.00645175 -5.88112e-07)
(0.000133843 -0.0086395 -1.16807e-06)
(0.00022193 -0.0106406 -1.93679e-06)
(0.000329789 -0.012487 -2.8781e-06)
(0.000458296 -0.0142044 -3.99959e-06)
(0.000605985 -0.0158096 -5.28851e-06)
(0.000773486 -0.0173162 -6.75021e-06)
(0.000960436 -0.018735 -8.38188e-06)
(0.00116503 -0.0200739 -1.01675e-05)
(0.0013866 -0.0213369 -1.21012e-05)
(0.00162605 -0.0225273 -1.41908e-05)
(0.001884 -0.0236486 -1.64422e-05)
(0.00215771 -0.0247022 -1.88308e-05)
(0.0024471 -0.0256891 -2.13565e-05)
(0.00275062 -0.0266093 -2.40053e-05)
(0.00306713 -0.0274625 -2.67678e-05)
(0.003395 -0.0282478 -2.96292e-05)
(0.0037321 -0.0289641 -3.25713e-05)
(0.00407638 -0.0296099 -3.5576e-05)
(0.0044256 -0.0301836 -3.8624e-05)
(0.0047771 -0.0306835 -4.16917e-05)
(0.00512799 -0.0311078 -4.47543e-05)
(0.00547511 -0.0314549 -4.77839e-05)
(0.00581507 -0.0317233 -5.07512e-05)
(0.00614424 -0.0319115 -5.36243e-05)
(0.00645884 -0.0320185 -5.63703e-05)
(0.00675492 -0.0320436 -5.89548e-05)
(0.00702853 -0.0319864 -6.13432e-05)
(0.00727559 -0.0318472 -6.34999e-05)
(0.00749219 -0.0316264 -6.53907e-05)
(0.00767443 -0.0313254 -6.69818e-05)
(0.00781873 -0.0309458 -6.82417e-05)
(0.0079217 -0.0304899 -6.9141e-05)
(0.00798041 -0.0299605 -6.96541e-05)
(0.00799234 -0.0293609 -6.97588e-05)
(0.00795556 -0.0286949 -6.94386e-05)
(0.00786872 -0.0279666 -6.86813e-05)
(0.00773121 -0.0271805 -6.7482e-05)
(0.00754314 -0.0263409 -6.58415e-05)
(1.73762e-06 -0.00158456 -1.51669e-08)
(2.41322e-05 -0.00413723 -2.10593e-07)
(7.2949e-05 -0.00660527 -6.36633e-07)
(0.000144332 -0.00884634 -1.25961e-06)
(0.000239085 -0.0108962 -2.08655e-06)
(0.000354742 -0.0127874 -3.09585e-06)
(0.00049275 -0.014546 -4.30029e-06)
(0.000651893 -0.0161891 -5.6891e-06)
(0.000830755 -0.0177308 -7.25022e-06)
(0.00102908 -0.0191818 -8.98087e-06)
(0.00124689 -0.0205502 -1.08818e-05)
(0.00148514 -0.0218398 -1.2961e-05)
(0.0017413 -0.0230542 -1.51967e-05)
(0.00201607 -0.0241968 -1.75946e-05)
(0.00230749 -0.0252688 -2.0138e-05)
(0.00261519 -0.0262711 -2.28234e-05)
(0.00293763 -0.0272039 -2.56375e-05)
(0.00327348 -0.0280665 -2.85685e-05)
(0.00362098 -0.0288581 -3.16015e-05)
(0.00397783 -0.0295775 -3.47158e-05)
(0.00434176 -0.0302231 -3.78921e-05)
(0.00471033 -0.0307932 -4.11089e-05)
(0.0050807 -0.0312862 -4.43415e-05)
(0.00544972 -0.0317002 -4.75623e-05)
(0.00581404 -0.0320336 -5.07421e-05)
(0.00617 -0.0322849 -5.38489e-05)
(0.00651376 -0.0324528 -5.68495e-05)
(0.00684129 -0.0325364 -5.97082e-05)
(0.00714846 -0.0325351 -6.23895e-05)
(0.00743104 -0.0324488 -6.48564e-05)
(0.00768487 -0.032278 -6.70722e-05)
(0.00790579 -0.0320235 -6.90007e-05)
(0.00808987 -0.0316869 -7.06078e-05)
(0.00823335 -0.0312703 -7.18607e-05)
(0.00833289 -0.0307763 -7.27301e-05)
(0.00838549 -0.0302083 -7.31898e-05)
(0.00838874 -0.0295699 -7.32188e-05)
(0.00834074 -0.0288655 -7.28007e-05)
(0.00824036 -0.0280994 -7.19253e-05)
(0.00808712 -0.0272767 -7.05886e-05)
(0.00788142 -0.0264022 -6.87944e-05)
(1.90841e-06 -0.00162322 -1.66542e-08)
(2.61801e-05 -0.0042399 -2.28468e-07)
(7.87626e-05 -0.0067712 -6.87348e-07)
(0.000155636 -0.00906873 -1.35827e-06)
(0.000257628 -0.0111713 -2.24835e-06)
(0.000381943 -0.0131097 -3.33328e-06)
(0.000530053 -0.0149125 -4.6258e-06)
(0.000700966 -0.0165961 -6.11742e-06)
(0.000892508 -0.0181757 -7.78905e-06)
(0.00110419 -0.0196609 -9.63642e-06)
(0.00133689 -0.0210598 -1.16672e-05)
(0.00159162 -0.0223771 -1.38904e-05)
(0.00186503 -0.0236169 -1.62764e-05)
(0.00215795 -0.0247816 -1.88329e-05)
(0.00246827 -0.0258729 -2.15411e-05)
(0.00279555 -0.0268913 -2.43975e-05)
(0.00313814 -0.0278368 -2.73873e-05)
(0.00349458 -0.028709 -3.04982e-05)
(0.00386289 -0.0295067 -3.37126e-05)
(0.00424058 -0.0302287 -3.7009e-05)
(0.00462524 -0.0308733 -4.03661e-05)
(0.0050142 -0.031439 -4.37609e-05)
(0.00540436 -0.0319238 -4.71662e-05)
(0.00579236 -0.032326 -5.05527e-05)
(0.00617456 -0.032644 -5.38886e-05)
(0.00654709 -0.0328765 -5.71402e-05)
(0.00690584 -0.0330221 -6.02714e-05)
(0.00724655 -0.0330801 -6.32454e-05)
(0.00756484 -0.0330502 -6.60236e-05)
(0.00785633 -0.0329325 -6.85683e-05)
(0.00811659 -0.0327276 -7.08403e-05)
(0.0083414 -0.0324369 -7.28027e-05)
(0.00852662 -0.0320623 -7.44198e-05)
(0.0086685 -0.0316063 -7.56588e-05)
(0.00876359 -0.0310719 -7.64894e-05)
(0.008809 -0.0304631 -7.68864e-05)
(0.0088023 -0.0297838 -7.68287e-05)
(0.00874182 -0.0290389 -7.63016e-05)
(0.00862649 -0.0282333 -7.52958e-05)
(0.00845615 -0.0273724 -7.38099e-05)
(0.00823136 -0.0264615 -7.1849e-05)
(2.37455e-06 -0.00166474 -2.07237e-08)
(2.77458e-05 -0.00435108 -2.42111e-07)
(8.50089e-05 -0.00694992 -7.41894e-07)
(0.000167764 -0.00930866 -1.46411e-06)
(0.00027723 -0.011467 -2.41946e-06)
(0.00041141 -0.0134564 -3.5904e-06)
(0.000569661 -0.0153063 -4.97152e-06)
(0.00075363 -0.0170328 -6.57697e-06)
(0.000958312 -0.0186523 -8.3634e-06)
(0.00118524 -0.0201736 -1.03437e-05)
(0.00143414 -0.0216052 -1.25159e-05)
(0.00170628 -0.0229521 -1.48909e-05)
(0.00199805 -0.0242183 -1.74375e-05)
(0.0023104 -0.0254062 -2.01633e-05)
(0.00264095 -0.0265173 -2.30482e-05)
(0.00298915 -0.0275522 -2.6087e-05)
(0.00335321 -0.0285108 -2.92644e-05)
(0.00373155 -0.0293923 -3.25663e-05)
(0.00412196 -0.0301958 -3.59737e-05)
(0.00452178 -0.0309198 -3.94631e-05)
(0.00492832 -0.0315627 -4.30114e-05)
(0.00533872 -0.0321228 -4.65931e-05)
(0.00574963 -0.0325981 -5.01797e-05)
(0.00615743 -0.032987 -5.37389e-05)
(0.00655823 -0.0332879 -5.72372e-05)
(0.00694786 -0.0334995 -6.06379e-05)
(0.00732198 -0.0336206 -6.39034e-05)
(0.00767605 -0.0336508 -6.6994e-05)
(0.00800551 -0.0335898 -6.98698e-05)
(0.00830568 -0.0334381 -7.24902e-05)
(0.00857203 -0.0331966 -7.48154e-05)
(0.0088001 -0.0328671 -7.68063e-05)
(0.00898575 -0.0324519 -7.84272e-05)
(0.00912505 -0.0319539 -7.96437e-05)
(0.00921465 -0.0313767 -8.04265e-05)
(0.00925159 -0.0307246 -8.07496e-05)
(0.00923366 -0.0300022 -8.05939e-05)
(0.00915921 -0.0292148 -7.99449e-05)
(0.00902749 -0.0283679 -7.8796e-05)
(0.00883848 -0.0274673 -7.71472e-05)
(0.00859312 -0.0265186 -7.50069e-05)
(2.53331e-06 -0.00171056 -2.21016e-08)
(3.02993e-05 -0.00447025 -2.6442e-07)
(9.20128e-05 -0.00714417 -8.02958e-07)
(0.000181028 -0.00956555 -1.57988e-06)
(0.000298772 -0.0117863 -2.60741e-06)
(0.000442498 -0.0138298 -3.86178e-06)
(0.000612746 -0.0157285 -5.34749e-06)
(0.000810365 -0.0175013 -7.07216e-06)
(0.00102986 -0.0191625 -8.98771e-06)
(0.00127309 -0.0207221 -1.11105e-05)
(0.00153913 -0.0221885 -1.34321e-05)
(0.00183005 -0.0235667 -1.59712e-05)
(0.00214145 -0.0248608 -1.86888e-05)
(0.00247456 -0.026073 -2.15961e-05)
(0.00282673 -0.0272048 -2.46694e-05)
(0.00319723 -0.0282566 -2.7903e-05)
(0.00358419 -0.0292284 -3.12801e-05)
(0.0039858 -0.0301193 -3.47854e-05)
(0.00439963 -0.0309282 -3.8397e-05)
(0.00482279 -0.0316536 -4.20903e-05)
(0.00525243 -0.0322938 -4.58399e-05)
(0.00568538 -0.032847 -4.96188e-05)
(0.00611805 -0.0333114 -5.3395e-05)
(0.00654653 -0.0336852 -5.71348e-05)
(0.00696662 -0.033967 -6.08014e-05)
(0.0073739 -0.0341555 -6.43564e-05)
(0.00776374 -0.0342498 -6.77589e-05)
(0.00813136 -0.0342495 -7.09679e-05)
(0.00847189 -0.0341548 -7.39403e-05)
(0.00878052 -0.0339663 -7.66347e-05)
(0.00905245 -0.0336855 -7.90085e-05)
(0.00928316 -0.0333144 -8.10225e-05)
(0.00946829 -0.0328558 -8.2639e-05)
(0.00960402 -0.0323131 -8.38243e-05)
(0.00968684 -0.0316904 -8.4548e-05)
(0.00971401 -0.0309926 -8.47859e-05)
(0.00968331 -0.0302249 -8.45187e-05)
(0.00959339 -0.0293929 -8.37347e-05)
(0.00944362 -0.0285027 -8.24283e-05)
(0.00923436 -0.0275607 -8.06028e-05)
(0.00896677 -0.0265728 -7.82685e-05)
(4.51845e-06 -0.00175965 -3.94612e-08)
(3.06851e-05 -0.00460071 -2.6774e-07)
(9.82903e-05 -0.00735389 -8.57968e-07)
(0.000195329 -0.00984641 -1.70464e-06)
(0.000317971 -0.0121309 -2.77502e-06)
(0.000479734 -0.0142318 -4.18674e-06)
(0.000660404 -0.016184 -5.76346e-06)
(0.000871219 -0.0180047 -7.60319e-06)
(0.00110695 -0.0197105 -9.66062e-06)
(0.0013673 -0.0213105 -1.19326e-05)
(0.00165206 -0.0228137 -1.44178e-05)
(0.00196298 -0.0242248 -1.71313e-05)
(0.00229566 -0.0255479 -2.00347e-05)
(0.00265112 -0.0267854 -2.31368e-05)
(0.00302645 -0.0279386 -2.64126e-05)
(0.00342087 -0.0290078 -2.98547e-05)
(0.00383225 -0.0299929 -3.34451e-05)
(0.00425865 -0.0308929 -3.71665e-05)
(0.00469735 -0.0317067 -4.09953e-05)
(0.0051453 -0.0324327 -4.49048e-05)
(0.00559932 -0.033069 -4.88675e-05)
(0.006056 -0.033614 -5.28532e-05)
(0.00651144 -0.0340657 -5.68284e-05)
(0.00696145 -0.0344226 -6.0756e-05)
(0.00740154 -0.0346831 -6.45974e-05)
(0.00782698 -0.0348461 -6.83106e-05)
(0.00823286 -0.034911 -7.18534e-05)
(0.00861408 -0.0348775 -7.5181e-05)
(0.0089656 -0.0347462 -7.82495e-05)
(0.0092823 -0.034518 -8.10142e-05)
(0.00955927 -0.0341948 -8.34321e-05)
(0.00979175 -0.033779 -8.54617e-05)
(0.00997544 -0.0332741 -8.70655e-05)
(0.0101063 -0.0326838 -8.82086e-05)
(0.0101811 -0.032013 -8.88618e-05)
(0.0101969 -0.0312669 -8.90008e-05)
(0.0101519 -0.0304514 -8.86086e-05)
(0.0100447 -0.0295727 -8.76744e-05)
(0.00987523 -0.0286373 -8.61958e-05)
(0.00964392 -0.0276521 -8.41779e-05)
(0.00935244 -0.0266236 -8.16351e-05)
(4.78101e-06 -0.00181308 -4.17436e-08)
(3.34715e-05 -0.0047434 -2.92042e-07)
(0.000106224 -0.00757705 -9.27249e-07)
(0.000213385 -0.0101444 -1.86242e-06)
(0.000346829 -0.0125014 -3.02676e-06)
(0.000518164 -0.0146603 -4.52218e-06)
(0.00071222 -0.0166709 -6.21559e-06)
(0.000939153 -0.0185442 -8.19616e-06)
(0.00119079 -0.0202973 -1.03922e-05)
(0.00147004 -0.0219415 -1.28293e-05)
(0.00177448 -0.0234831 -1.54861e-05)
(0.00210708 -0.024929 -1.83889e-05)
(0.0024624 -0.0262826 -2.14898e-05)
(0.00284168 -0.0275465 -2.48e-05)
(0.00324177 -0.0287218 -2.82916e-05)
(0.00366165 -0.0298088 -3.19562e-05)
(0.00409908 -0.0308074 -3.57738e-05)
(0.00455184 -0.0317163 -3.97254e-05)
(0.0050169 -0.0325344 -4.37841e-05)
(0.005491 -0.0332599 -4.79221e-05)
(0.00597073 -0.0338912 -5.21089e-05)
(0.00645234 -0.0344264 -5.63124e-05)
(0.00693162 -0.0348636 -6.04955e-05)
(0.00740406 -0.0352012 -6.46191e-05)
(0.00786485 -0.035438 -6.86409e-05)
(0.00830895 -0.0355729 -7.25173e-05)
(0.00873111 -0.0356055 -7.62021e-05)
(0.00912602 -0.0355359 -7.96492e-05)
(0.00948827 -0.0353648 -8.28113e-05)
(0.00981262 -0.0350937 -8.56429e-05)
(0.0100939 -0.0347249 -8.80983e-05)
(0.0103273 -0.0342613 -9.01358e-05)
(0.0105083 -0.0337068 -9.17164e-05)
(0.010633 -0.033066 -9.2806e-05)
(0.0106981 -0.032344 -9.33749e-05)
(0.010701 -0.031547 -9.34011e-05)
(0.0106398 -0.0306812 -9.28679e-05)
(0.0105137 -0.0297535 -9.17679e-05)
(0.0103225 -0.028771 -9.01002e-05)
(0.0100674 -0.027741 -8.78741e-05)
(0.00975008 -0.0266704 -8.51062e-05)
(4.55453e-06 -0.00187126 -3.97702e-08)
(3.4524e-05 -0.00489636 -3.01397e-07)
(0.000121414 -0.00782099 -1.05936e-06)
(0.000221055 -0.0104701 -1.92851e-06)
(0.000369158 -0.0129005 -3.22227e-06)
(0.000564321 -0.0151259 -4.92503e-06)
(0.000762899 -0.0171967 -6.65798e-06)
(0.00100867 -0.0191252 -8.80292e-06)
(0.00127912 -0.0209284 -1.11631e-05)
(0.00157907 -0.0226183 -1.37807e-05)
(0.00190684 -0.0242008 -1.66414e-05)
(0.0022621 -0.0256833 -1.97416e-05)
(0.00264208 -0.0270689 -2.3058e-05)
(0.00304691 -0.0283602 -2.6591e-05)
(0.0034736 -0.0295583 -3.0315e-05)
(0.00392078 -0.0306635 -3.42176e-05)
(0.00438601 -0.0316754 -3.8278e-05)
(0.00486689 -0.0325927 -4.24748e-05)
(0.00535994 -0.0334143 -4.67781e-05)
(0.00586184 -0.0341384 -5.11584e-05)
(0.00636871 -0.0347632 -5.55824e-05)
(0.00687652 -0.0352867 -6.00144e-05)
(0.00738073 -0.0357073 -6.44153e-05)
(0.00787648 -0.0360234 -6.87422e-05)
(0.00835865 -0.0362338 -7.29508e-05)
(0.00882184 -0.0363377 -7.69936e-05)
(0.00926053 -0.0363349 -8.08228e-05)
(0.00966902 -0.0362258 -8.43884e-05)
(0.0100417 -0.0360116 -8.7642e-05)
(0.0103731 -0.0356941 -9.05348e-05)
(0.0106579 -0.0352762 -9.30209e-05)
(0.010891 -0.0347614 -9.50563e-05)
(0.0110681 -0.034154 -9.66027e-05)
(0.0111851 -0.0334594 -9.7625e-05)
(0.011239 -0.0326833 -9.80956e-05)
(0.011227 -0.0318325 -9.79922e-05)
(0.0111478 -0.0309138 -9.73018e-05)
(0.0110006 -0.0299349 -9.6018e-05)
(0.0107858 -0.0289032 -9.41443e-05)
(0.0105047 -0.0278266 -9.16919e-05)
(0.0101598 -0.0267126 -8.86826e-05)
(4.93541e-06 -0.00193486 -4.30873e-08)
(3.77625e-05 -0.00506211 -3.2963e-07)
(0.000130719 -0.00808453 -1.14062e-06)
(0.000242197 -0.0108244 -2.11324e-06)
(0.000403224 -0.0133276 -3.51945e-06)
(0.000610274 -0.0156295 -5.32613e-06)
(0.00082434 -0.0177632 -7.19405e-06)
(0.0010883 -0.0197504 -9.49803e-06)
(0.0013774 -0.0216069 -1.20208e-05)
(0.00169927 -0.0233443 -1.48299e-05)
(0.00205006 -0.0249703 -1.78912e-05)
(0.00243033 -0.0264912 -2.121e-05)
(0.00283667 -0.0279104 -2.47561e-05)
(0.00326893 -0.0292303 -2.85287e-05)
(0.00372415 -0.0304519 -3.25015e-05)
(0.00420039 -0.0315755 -3.66581e-05)
(0.00469526 -0.0326005 -4.09768e-05)
(0.00520595 -0.0335259 -4.54341e-05)
(0.00572869 -0.0343501 -4.99962e-05)
(0.00625988 -0.0350715 -5.46324e-05)
(0.00679533 -0.035688 -5.93057e-05)
(0.00733064 -0.0361979 -6.39779e-05)
(0.00786088 -0.0365995 -6.86058e-05)
(0.00838087 -0.0368914 -7.31444e-05)
(0.00888508 -0.0370724 -7.75452e-05)
(0.0093678 -0.0371421 -8.17588e-05)
(0.00982312 -0.0371005 -8.5733e-05)
(0.0102451 -0.0369484 -8.94166e-05)
(0.0106278 -0.0366874 -9.27573e-05)
(0.0109655 -0.0363199 -9.57058e-05)
(0.0112528 -0.0358491 -9.82133e-05)
(0.0114845 -0.0352794 -0.000100236)
(0.0116561 -0.0346156 -0.000101735)
(0.0117638 -0.0338638 -0.000102676)
(0.0118043 -0.0330304 -0.000103031)
(0.0117756 -0.0321228 -0.000102781)
(0.0116762 -0.0311487 -0.000101914)
(0.0115059 -0.0301161 -0.000100428)
(0.0112652 -0.0290331 -9.8329e-05)
(0.0109561 -0.0279083 -9.56325e-05)
(0.0105814 -0.0267494 -9.2363e-05)
(5.44636e-06 -0.00200385 -4.75553e-08)
(4.11968e-05 -0.00524206 -3.59609e-07)
(0.000142384 -0.0083692 -1.24248e-06)
(0.000259432 -0.0112032 -2.26355e-06)
(0.000433063 -0.013791 -3.77997e-06)
(0.000659601 -0.0161702 -5.75651e-06)
(0.000890541 -0.0183724 -7.77186e-06)
(0.00117238 -0.020423 -1.02317e-05)
(0.00148376 -0.0223357 -1.29491e-05)
(0.00182864 -0.0241247 -1.59588e-05)
(0.00220503 -0.0257962 -1.92438e-05)
(0.00261179 -0.0273575 -2.27936e-05)
(0.00304669 -0.0288115 -2.65892e-05)
(0.00350863 -0.0301609 -3.06205e-05)
(0.00399444 -0.0314066 -3.48606e-05)
(0.00450193 -0.0325488 -3.92895e-05)
(0.00502839 -0.0335869 -4.38844e-05)