/*--------------------------------*- C++ -*----------------------------------*\
| =========                 |                                                 |
| \\      /  F ield         | OpenFOAM: The Open Source CFD Toolbox           |
|  \\    /   O peration     | Version:  v2012                                 |
|   \\  /    A nd           | Website:  www.openfoam.com                      |
|    \\/     M anipulation  |                                                 |
\*---------------------------------------------------------------------------*/
FoamFile
{
    version     2.0;
    format      ascii;
    class       volVectorField;
    location    "0.3";
    object      U;
}
// * * * * * * * * * * * * * * * * * * * * * * * * * * * * * * * * * * * * * //

dimensions      [0 1 -1 0 0 0 0];


internalField   nonuniform List<vector> 
3332
(
(-1.73826e-06 -0.000493012 1.51939e-08)
(3.88223e-05 -0.00263636 -3.38884e-07)
(0.000205395 -0.00618482 -1.79254e-06)
(0.000536965 -0.0106243 -4.68628e-06)
(0.00106824 -0.0156764 -9.32224e-06)
(0.00182251 -0.0211074 -1.59048e-05)
(0.00279886 -0.0267865 -2.44266e-05)
(0.00402096 -0.0325251 -3.50906e-05)
(-1.44688e-06 -0.000542541 1.27505e-08)
(4.46429e-05 -0.0029098 -3.89542e-07)
(0.000238035 -0.00682239 -2.07774e-06)
(0.000617455 -0.0117098 -5.38857e-06)
(0.00122834 -0.0172431 -1.07198e-05)
(0.00209157 -0.023187 -1.82532e-05)
(0.00320272 -0.0293501 -2.79501e-05)
(0.00458932 -0.0355839 -4.00512e-05)
(0.00621897 -0.041753 -5.42731e-05)
(0.00809381 -0.047753 -7.06363e-05)
(0.0102007 -0.0534795 -8.90207e-05)
(0.012493 -0.0588536 -0.000109028)
(0.0149649 -0.0637937 -0.0001306)
(0.0175623 -0.0682493 -0.000153271)
(0.020261 -0.0721529 -0.000176821)
(-2.26614e-06 -0.00060339 1.98857e-08)
(5.1308e-05 -0.00322814 -4.47638e-07)
(0.000274776 -0.00755666 -2.39803e-06)
(0.000709158 -0.0129485 -6.18874e-06)
(0.00140895 -0.0190315 -1.22962e-05)
(0.00238754 -0.0255357 -2.0836e-05)
(0.00365223 -0.0322574 -3.1873e-05)
(0.00521721 -0.0390126 -4.55306e-05)
(0.00705249 -0.0456761 -6.15483e-05)
(0.00916486 -0.0521034 -7.99826e-05)
(0.0115117 -0.0582059 -0.000100464)
(0.0140673 -0.063881 -0.000122766)
(0.0167955 -0.0690527 -0.000146578)
(0.019651 -0.0736598 -0.000171497)
(0.0225956 -0.0776416 -0.000197199)
(-2.78615e-06 -0.000670079 2.43961e-08)
(6.00295e-05 -0.0035942 -5.23754e-07)
(0.000319378 -0.00840805 -2.78722e-06)
(0.000824376 -0.0143839 -7.19446e-06)
(0.00163131 -0.0210946 -1.42368e-05)
(0.00275308 -0.0282394 -2.40266e-05)
(0.00419752 -0.0355781 -3.66319e-05)
(0.00597348 -0.0429214 -5.21311e-05)
(0.00804502 -0.0501073 -7.02089e-05)
(0.0104132 -0.0570046 -9.08779e-05)
(0.0130328 -0.0634938 -0.000113738)
(0.0158697 -0.0694821 -0.000138498)
(0.0188828 -0.0748813 -0.000164793)
(0.0220168 -0.0796299 -0.000192148)
(0.0252299 -0.083669 -0.000220186)
(-3.66915e-06 -0.00075349 3.2081e-08)
(7.05805e-05 -0.0040268 -6.15772e-07)
(0.000372062 -0.00939821 -3.2468e-06)
(0.000959272 -0.0160375 -8.37141e-06)
(0.00189114 -0.0234618 -1.65042e-05)
(0.00317794 -0.0313244 -2.7734e-05)
(0.00482974 -0.0393587 -4.21499e-05)
(0.00684712 -0.0473484 -5.97546e-05)
(0.00919112 -0.0551188 -8.02122e-05)
(0.0118567 -0.0625183 -0.000103474)
(0.0147867 -0.0694244 -0.000129046)
(0.0179424 -0.0757318 -0.000156584)
(0.0212717 -0.0813554 -0.000185644)
(0.0247131 -0.0862266 -0.000215675)
(0.0282152 -0.0902933 -0.000246245)
(-3.92656e-06 -0.000844183 3.43932e-08)
(8.41371e-05 -0.00452539 -7.34132e-07)
(0.00043911 -0.0105508 -3.83207e-06)
(0.00112422 -0.0179632 -9.81099e-06)
(0.00220456 -0.0262065 -1.92392e-05)
(0.00368874 -0.0348849 -3.2192e-05)
(0.005582 -0.0436962 -4.87142e-05)
(0.00788014 -0.0524005 -6.8771e-05)
(0.0105366 -0.0608026 -9.19527e-05)
(0.0135376 -0.0687396 -0.000118145)
(0.0168167 -0.0760793 -0.00014676)
(0.0203256 -0.0827097 -0.000177387)
(0.0240042 -0.0885448 -0.000209488)
(0.0277806 -0.0935137 -0.000242452)
(0.0315941 -0.0975706 -0.000275729)
(-5.22877e-06 -0.000960859 4.57606e-08)
(9.97801e-05 -0.00512607 -8.70599e-07)
(0.000517595 -0.0119081 -4.51688e-06)
(0.00132317 -0.0202093 -1.15468e-05)
(0.00258135 -0.0293838 -2.25273e-05)
(0.00429843 -0.0389859 -3.75119e-05)
(0.00647589 -0.0486671 -5.65159e-05)
(0.00909869 -0.0581649 -7.94037e-05)
(0.0121147 -0.0672578 -0.000105727)
(0.0154977 -0.0757715 -0.00013525)
(0.0191715 -0.0835641 -0.000167314)
(0.0230764 -0.090515 -0.000201389)
(0.0271405 -0.0965423 -0.000236865)
(0.031282 -0.101573 -0.000273004)
(0.0354282 -0.10557 -0.000309199)
(-7.09408e-06 -0.00108756 6.19779e-08)
(0.000119753 -0.00582295 -1.04494e-06)
(0.000616039 -0.0135033 -5.37577e-06)
(0.00156694 -0.0228455 -1.36745e-05)
(0.00303711 -0.0330968 -2.65044e-05)
(0.00502977 -0.0437482 -4.3895e-05)
(0.00753944 -0.0544042 -6.57962e-05)
(0.0105387 -0.0647734 -9.19724e-05)
(0.0139709 -0.0746127 -0.000121924)
(0.0177877 -0.0837335 -0.000155238)
(0.0219091 -0.0919873 -0.000191202)
(0.0262551 -0.0992489 -0.000229136)
(0.0307432 -0.105438 -0.0002683)
(0.0352804 -0.110483 -0.000307908)
(0.0397796 -0.11436 -0.000347166)
(-9.32757e-06 -0.00125668 8.14127e-08)
(0.000144019 -0.00667789 -1.25677e-06)
(0.000735933 -0.0154056 -6.42208e-06)
(0.00186596 -0.0259465 -1.62835e-05)
(0.00359301 -0.0374269 -3.13558e-05)
(0.00591436 -0.0492672 -5.16137e-05)
(0.0088165 -0.0610116 -7.69427e-05)
(0.0122543 -0.0723442 -0.000106942)
(0.0161634 -0.0829884 -0.000141062)
(0.0204754 -0.0927511 -0.000178689)
(0.0250962 -0.101472 -0.000219022)
(0.0299321 -0.109024 -0.000261219)
(0.0348858 -0.115335 -0.000304464)
(0.0398489 -0.120335 -0.000347769)
(0.0447219 -0.124014 -0.000390314)
(-1.10616e-05 -0.00143905 9.6742e-08)
(0.000180354 -0.00767894 -1.5736e-06)
(0.000891046 -0.0176672 -7.77536e-06)
(0.00223573 -0.0296287 -1.95107e-05)
(0.00426951 -0.0425381 -3.72587e-05)
(0.00698191 -0.0557297 -6.09314e-05)
(0.0103466 -0.0686921 -9.02936e-05)
(0.0142935 -0.0810755 -0.000124742)
(0.0187556 -0.0925821 -0.000163679)
(0.0236245 -0.103006 -0.000206178)
(0.0288122 -0.112184 -0.000251445)
(0.0341884 -0.11999 -0.000298377)
(0.0396502 -0.126359 -0.000346033)
(0.0450709 -0.131232 -0.000393359)
(0.050334 -0.134616 -0.000439279)
(-1.48035e-05 -0.0016917 1.29296e-07)
(0.000219567 -0.00893147 -1.9159e-06)
(0.00108075 -0.0203973 -9.43097e-06)
(0.00269612 -0.0339944 -2.35278e-05)
(0.00510754 -0.0485342 -4.45728e-05)
(0.0082894 -0.0632498 -7.23398e-05)
(0.012199 -0.0775713 -0.000106463)
(0.0167408 -0.0911022 -0.000146095)
(0.0218333 -0.103533 -0.000190546)
(0.0273411 -0.114637 -0.000238606)
(0.0331567 -0.124256 -0.000289372)
(0.0391315 -0.132269 -0.000341504)
(0.045143 -0.138617 -0.000393987)
(0.0510473 -0.143265 -0.000445501)
(0.056713 -0.146235 -0.000494974)
(-1.86721e-05 -0.00196419 1.6299e-07)
(0.000275453 -0.0104173 -2.40366e-06)
(0.00133012 -0.0236882 -1.16067e-05)
(0.00327373 -0.0392474 -2.85691e-05)
(0.00613656 -0.0556916 -5.35516e-05)
(0.00987346 -0.0721433 -8.61663e-05)
(0.014422 -0.0879713 -0.000125859)
(0.0196529 -0.102743 -0.000171516)
(0.0254685 -0.116134 -0.000222262)
(0.0316994 -0.127913 -0.000276652)
(0.0382205 -0.137926 -0.000333551)
(0.0448545 -0.14606 -0.000391469)
(0.0514589 -0.152279 -0.00044909)
(0.0578739 -0.156568 -0.000505105)
(0.0639505 -0.158974 -0.000558116)
(-2.47705e-05 -0.00235987 2.16167e-07)
(0.000344543 -0.0123174 -3.00632e-06)
(0.00164434 -0.0277085 -1.43488e-05)
(0.00400316 -0.04552 -3.49334e-05)
(0.00742626 -0.064129 -6.48081e-05)
(0.0118354 -0.0825298 -0.000103285)
(0.0171422 -0.100024 -0.000149603)
(0.0231796 -0.116135 -0.000202285)
(0.0298224 -0.130532 -0.000260271)
(0.0368693 -0.142974 -0.000321757)
(0.0441691 -0.153324 -0.000385486)
(0.0515201 -0.161485 -0.000449621)
(0.0587548 -0.167446 -0.000512791)
(0.0656968 -0.171222 -0.000573352)
(0.0721799 -0.172891 -0.000629973)
(-2.76237e-05 -0.00278831 2.41432e-07)
(0.000448978 -0.014607 -3.91789e-06)
(0.00206495 -0.0326332 -1.80196e-05)
(0.00492044 -0.0531778 -4.29398e-05)
(0.00901328 -0.0743208 -7.86556e-05)
(0.0142121 -0.0949304 -0.00012403)
(0.0204017 -0.114248 -0.000178041)
(0.0273677 -0.131774 -0.000238846)
(0.0349525 -0.147177 -0.000305028)
(0.0429199 -0.160224 -0.000374583)
(0.0510834 -0.1708 -0.000445806)
(0.0592166 -0.178836 -0.000516822)
(0.0671215 -0.184354 -0.000585782)
(0.0746086 -0.187404 -0.00065117)
(0.0814897 -0.188111 -0.000711191)
(-3.87417e-05 -0.00343411 3.38382e-07)
(0.000574448 -0.0176004 -5.01245e-06)
(0.00259798 -0.038711 -2.26714e-05)
(0.00610022 -0.0623737 -5.32333e-05)
(0.0110275 -0.0863649 -9.62371e-05)
(0.0171878 -0.109427 -0.000149992)
(0.0244268 -0.130732 -0.000213179)
(0.0324734 -0.149756 -0.00028339)
(0.0411334 -0.166172 -0.00035899)
(0.0501279 -0.179767 -0.000437465)
(0.0592375 -0.190451 -0.000517004)
(0.0682047 -0.198194 -0.000595231)
(0.0768058 -0.203065 -0.000670346)
(0.0848317 -0.20516 -0.000740352)
(0.0920751 -0.204655 -0.00080363)
(-5.12458e-05 -0.00414898 4.47364e-07)
(0.000765124 -0.0212736 -6.67679e-06)
(0.00331405 -0.0462852 -2.89194e-05)
(0.00759187 -0.0737575 -6.62534e-05)
(0.0135055 -0.101086 -0.000117858)
(0.0207814 -0.126898 -0.000181364)
(0.0292216 -0.150333 -0.000255011)
(0.0384971 -0.170879 -0.000335981)
(0.0483635 -0.188235 -0.000422064)
(0.0585075 -0.202224 -0.000510633)
(0.0686609 -0.212805 -0.000599207)
(0.0785294 -0.219991 -0.000685391)
(0.0878581 -0.223916 -0.000766757)
(0.0964262 -0.224729 -0.000841607)
(0.103994 -0.222679 -0.000907603)
(-7.07398e-05 -0.00527421 6.17309e-07)
(0.00100497 -0.0261772 -8.76964e-06)
(0.00423734 -0.0557125 -3.69781e-05)
(0.00951902 -0.0874426 -8.30679e-05)
(0.0166686 -0.118453 -0.000145469)
(0.0253062 -0.147265 -0.000220839)
(0.0351786 -0.172973 -0.000307019)
(0.0458786 -0.195082 -0.000400374)
(0.0571215 -0.213322 -0.000498536)
(0.0685343 -0.227559 -0.000598097)
(0.0798132 -0.237828 -0.000696596)
(0.0906217 -0.244175 -0.000790869)
(0.100679 -0.246847 -0.000878729)
(0.109742 -0.246049 -0.000957763)
(0.117546 -0.242109 -0.00102597)
(-8.61584e-05 -0.00654863 7.51943e-07)
(0.00138724 -0.0322972 -1.21054e-05)
(0.00549433 -0.0676253 -4.79458e-05)
(0.0119492 -0.104599 -0.000104281)
(0.0205148 -0.139911 -0.000179025)
(0.0306907 -0.172027 -0.000267849)
(0.0421726 -0.200099 -0.000368029)
(0.0544692 -0.223689 -0.000475387)
(0.0672509 -0.242611 -0.000586891)
(0.0800678 -0.256798 -0.000698819)
(0.0925922 -0.266374 -0.000808059)
(0.104411 -0.271461 -0.000911304)
(0.115188 -0.272406 -0.00100528)
(0.124725 -0.269507 -0.00108862)
(0.132674 -0.263194 -0.00115791)
(-0.000113404 -0.00863026 9.89458e-07)
(0.001858 -0.0405933 -1.62134e-05)
(0.00709347 -0.0824791 -6.19041e-05)
(0.0150679 -0.125121 -0.000131491)
(0.0254186 -0.165031 -0.000221837)
(0.0374831 -0.200652 -0.000327102)
(0.0508935 -0.231171 -0.00044418)
(0.065054 -0.256205 -0.000567712)
(0.0795828 -0.275659 -0.000694588)
(0.0939531 -0.289548 -0.000819926)
(0.10779 -0.298096 -0.000940797)
(0.120625 -0.301541 -0.00105271)
(0.132091 -0.300322 -0.00115292)
(0.14197 -0.29485 -0.00123904)
(0.149897 -0.2857 -0.00130836)
(-0.000123603 -0.0110611 1.07888e-06)
(0.00257885 -0.0510518 -2.25049e-05)
(0.00921088 -0.101407 -8.03788e-05)
(0.0188986 -0.151078 -0.000164934)
(0.0312178 -0.196363 -0.000272425)
(0.0453516 -0.235785 -0.000395813)
(0.0608833 -0.268757 -0.00053131)
(0.0771026 -0.294995 -0.000672943)
(0.0935646 -0.314589 -0.000816525)
(0.109655 -0.327631 -0.000957081)
(0.124927 -0.334514 -0.00109025)
(0.138854 -0.335584 -0.00121195)
(0.151012 -0.331447 -0.00131793)
(0.16118 -0.322655 -0.00140685)
(0.168958 -0.309948 -0.00147459)
(-0.000131699 -0.0150974 1.14975e-06)
(0.00346326 -0.0652291 -3.02227e-05)
(0.0118389 -0.124753 -0.000103318)
(0.0237146 -0.181635 -0.000206946)
(0.038539 -0.232449 -0.000336353)
(0.0552634 -0.275771 -0.00048226)
(0.0733989 -0.311199 -0.00064062)
(0.0920883 -0.338494 -0.000803631)
(0.110798 -0.35795 -0.000967061)
(0.128811 -0.369735 -0.00112413)
(0.145595 -0.374462 -0.0012708)
(0.160562 -0.372581 -0.00140127)
(0.173248 -0.364928 -0.00151219)
(0.183419 -0.352183 -0.00160079)
(0.190692 -0.335318 -0.00166448)
(-6.89038e-05 -0.0198817 6.04003e-07)
(0.00473292 -0.0829326 -4.13058e-05)
(0.0151227 -0.154441 -0.000131976)
(0.0293032 -0.220515 -0.000255746)
(0.0467952 -0.277946 -0.000408359)
(0.0662943 -0.325518 -0.000578616)
(0.087257 -0.363334 -0.000761457)
(0.108658 -0.391236 -0.000948395)
(0.129845 -0.409871 -0.00113314)
(0.149988 -0.419468 -0.00130916)
(0.168424 -0.420959 -0.00146986)
(0.184514 -0.41493 -0.00161054)
(0.197706 -0.402538 -0.00172546)
(0.20779 -0.384651 -0.00181373)
(0.214353 -0.362532 -0.00187081)
(-5.52394e-06 -0.0275706 5.08391e-08)
(0.00605706 -0.106296 -5.28617e-05)
(0.0188656 -0.190039 -0.000164652)
(0.0360996 -0.265089 -0.000315019)
(0.0571441 -0.329079 -0.000498756)
(0.0803169 -0.380902 -0.000700881)
(0.10494 -0.421004 -0.000915947)
(0.12977 -0.449182 -0.00113246)
(0.153956 -0.466529 -0.00134381)
(0.176535 -0.473278 -0.00154062)
(0.196685 -0.470836 -0.00171679)
(0.213713 -0.459855 -0.00186513)
(0.22701 -0.441947 -0.00198151)
(0.236413 -0.418114 -0.00206331)
(0.241567 -0.390033 -0.00210861)
(0.000123391 -0.0362499 -1.0771e-06)
(0.00767344 -0.134339 -6.69677e-05)
(0.0231392 -0.234882 -0.000201926)
(0.043546 -0.32223 -0.000380074)
(0.0683114 -0.394776 -0.000596103)
(0.0953799 -0.45144 -0.000832524)
(0.123927 -0.493802 -0.00108144)
(0.152437 -0.52148 -0.00133057)
(0.179838 -0.536373 -0.0015694)
(0.205047 -0.538621 -0.0017898)
(0.227003 -0.530353 -0.00198109)
(0.245028 -0.512329 -0.0021388)
(0.258344 -0.486844 -0.00225468)
(0.266916 -0.455119 -0.00232989)
(0.270354 -0.419382 -0.00235959)
(0.00010897 -0.049065 -9.52295e-07)
(0.00891452 -0.169641 -7.77953e-05)
(0.0277859 -0.286775 -0.000242517)
(0.0526367 -0.38574 -0.000459306)
(0.0827549 -0.466543 -0.000722344)
(0.115387 -0.527817 -0.00100689)
(0.149297 -0.572056 -0.00130319)
(0.182789 -0.598483 -0.00159513)
(0.214261 -0.610088 -0.00187025)
(0.242564 -0.606765 -0.00211685)
(0.266276 -0.59172 -0.00232429)
(0.284776 -0.565599 -0.00248532)
(0.297176 -0.531678 -0.00259403)
(0.303677 -0.491161 -0.00265038)
(0.304019 -0.44711 -0.0026538)
(0.000110279 -0.0610762 -9.61045e-07)
(0.0107258 -0.20995 -9.36052e-05)
(0.0335474 -0.352487 -0.000292722)
(0.0629209 -0.468973 -0.000549239)
(0.098529 -0.562106 -0.00085975)
(0.136727 -0.628889 -0.00119352)
(0.176057 -0.675306 -0.00153633)
(0.21445 -0.698989 -0.00187196)
(0.249885 -0.705336 -0.00218068)
(0.28119 -0.693323 -0.00245451)
(0.306486 -0.668119 -0.00267473)
(0.325371 -0.630087 -0.00284016)
(0.336644 -0.584183 -0.00293806)
(0.340895 -0.531598 -0.00297571)
(0.33775 -0.476586 -0.00294784)
(0.000360973 -0.0786714 -3.15451e-06)
(0.01265 -0.260632 -0.000110369)
(0.0407816 -0.42725 -0.000356007)
(0.0768323 -0.55935 -0.000670402)
(0.120318 -0.663182 -0.00105036)
(0.167231 -0.734425 -0.00145927)
(0.214078 -0.781346 -0.0018688)
(0.259876 -0.80062 -0.00226781)
(0.300536 -0.800171 -0.00262343)
(0.335638 -0.777799 -0.00292908)
(0.362101 -0.741491 -0.00316079)
(0.380149 -0.690317 -0.00331767)
(0.388194 -0.631941 -0.00338858)
(0.000552398 -0.0972159 -4.82368e-06)
(0.0154748 -0.319528 -0.00013509)
(0.0505132 -0.525477 -0.00044077)
(0.0936526 -0.681506 -0.000817726)
(0.14509 -0.805006 -0.00126607)
(0.199751 -0.881282 -0.00174389)
(0.253418 -0.930718 -0.0022114)
(0.3048 -0.942488 -0.00266077)
(0.349719 -0.932226 -0.00305187)
(0.387449 -0.893359 -0.0033821)
(0.414377 -0.839754 -0.0036163)
(0.431313 -0.768216 -0.00376498)
(0.435751 -0.691107 -0.00380305)
(0.00124802 -0.123874 -1.08631e-05)
(0.0176281 -0.395916 -0.000153802)
(0.0619025 -0.638009 -0.000540753)
(0.116746 -0.812952 -0.0010189)
(0.178 -0.949026 -0.00155433)
(0.247917 -1.02687 -0.00216346)
(0.31047 -1.07233 -0.00271049)
(0.37367 -1.07333 -0.00326085)
(0.42473 -1.0506 -0.00370764)
(0.467451 -0.99284 -0.00407939)
(0.493698 -0.922213 -0.00430959)
(0.507069 -0.829467 -0.00442543)
(0.503479 -0.735016 -0.00439507)
(0.00331446 -0.152561 -2.88999e-05)
(0.0231092 -0.481665 -0.000201924)
(0.0795132 -0.792548 -0.000694176)
(0.147955 -0.993827 -0.00129257)
(0.218466 -1.16368 -0.00190675)
(0.299019 -1.24266 -0.00261108)
(0.367484 -1.29176 -0.00320702)
(0.433871 -1.27647 -0.00378781)
(0.489024 -1.23715 -0.00426766)
(0.532608 -1.14862 -0.00464947)
(0.556532 -1.04913 -0.00485713)
(0.566309 -0.920756 -0.00494371)
(0.55429 -0.797388 -0.00483797)
(0.023166 -0.20451 -0.000202114)
(0.0579619 -0.603371 -0.000505365)
(0.0939006 -0.974762 -0.000820644)
(0.192052 -1.19022 -0.00167651)
(0.259883 -1.36901 -0.0022704)
(0.370517 -1.43794 -0.00323413)
(0.444966 -1.4697 -0.00388552)
(0.531735 -1.43307 -0.00464073)
(0.595484 -1.37616 -0.00519869)
(0.64816 -1.25295 -0.00565699)
(0.668669 -1.13146 -0.00583762)
(0.67027 -0.967487 -0.00585046)
(0.640368 -0.822891 -0.00559075)
(0.0377038 -0.260009 -0.000328628)
(0.0948361 -0.739764 -0.000827493)
(0.118387 -1.18672 -0.00103351)
(0.256746 -1.45551 -0.00224376)
(0.323165 -1.6715 -0.00282287)
(0.450116 -1.7577 -0.00393296)
(0.517303 -1.78959 -0.00451674)
(0.591316 -1.73272 -0.00516373)
(0.664513 -1.63538 -0.00579947)
(0.716208 -1.47264 -0.00625337)
(0.729084 -1.29838 -0.00636397)
(0.725419 -1.06918 -0.00633374)
(0.676573 -0.879618 -0.00590633)
(0.0426169 -0.325095 -0.000371647)
(0.106664 -0.925307 -0.0009296)
(0.115864 -1.46563 -0.00101398)
(0.270005 -1.76003 -0.00236076)
(0.338171 -1.92141 -0.00295773)
(0.498536 -1.98668 -0.00435687)
(0.594992 -1.95977 -0.00519947)
(0.714588 -1.87283 -0.00623838)
(0.801496 -1.74418 -0.00699798)
(0.859021 -1.54647 -0.00749687)
(0.89369 -1.36265 -0.00780227)
(0.867337 -1.06449 -0.00757067)
(0.778574 -0.85892 -0.0067981)
(0.0569692 -0.386215 -0.000495888)
(0.1041 -1.08563 -0.000901569)
(0.131402 -1.68515 -0.00115017)
(0.406259 -2.08874 -0.00355405)
(0.456467 -2.34465 -0.00399011)
(0.590508 -2.48116 -0.00516158)
(0.664431 -2.47427 -0.00580133)
(0.723694 -2.37545 -0.00632031)
(0.817904 -2.19328 -0.00713756)
(0.83665 -1.91573 -0.00729973)
(0.902949 -1.62263 -0.00787484)
(0.881801 -1.15933 -0.00769628)
(0.743792 -0.884834 -0.00649149)
(0.0439554 -0.414686 -0.000383193)
(0.0700129 -1.2572 -0.000612416)
(0.0428142 -2.26357 -0.000367895)
(0.196993 -2.62 -0.00173704)
(0.293388 -2.55821 -0.00255918)
(0.506456 -2.59969 -0.00441402)
(0.688422 -2.47459 -0.00601113)
(0.852014 -2.31329 -0.00743751)
(1.01303 -2.13893 -0.00883633)
(1.07627 -1.81634 -0.00937192)
(1.22592 -1.68677 -0.0106805)
(1.11616 -1.01169 -0.00972923)
(0.833881 -0.762792 -0.00727479)
(0.0553583 -0.416428 -0.00048306)
(-0.113432 -1.21894 0.000986547)
(0.0790465 -2.01822 -0.000701768)
(0.906306 -2.75935 -0.00796189)
(0.758385 -3.21763 -0.00661447)
(0.542765 -3.4848 -0.00473752)
(0.654972 -3.49313 -0.00571178)
(0.624628 -3.37637 -0.00544799)
(0.809676 -3.1019 -0.00706572)
(0.660131 -2.74889 -0.00573604)
(0.938431 -2.19392 -0.00810562)
(1.01721 -0.952499 -0.00884749)
(0.539354 -0.660879 -0.00469591)
(0.0155516 -0.407245 -0.000135726)
(0.0791991 -1.03085 -0.000690846)
(0.178158 -1.54725 -0.00155772)
(0.291862 -2.07904 -0.00254542)
(0.426937 -2.5147 -0.00372903)
(0.547425 -2.73072 -0.0047773)
(0.661714 -2.78723 -0.00576927)
(0.770075 -2.64194 -0.00671597)
(0.899082 -2.3017 -0.00783956)
(1.06302 -1.87308 -0.00927967)
(1.61155 -1.39527 -0.0140234)
(1.44163 -0.502761 -0.0124817)
(0.428189 -0.28604 -0.00371081)
(0.0104593 -0.420091 -9.13191e-05)
(0.0621377 -0.950422 -0.000542162)
(0.13767 -1.31268 -0.00119986)
(0.21341 -1.58429 -0.00185812)
(0.282634 -1.75785 -0.00246742)
(0.342333 -1.80996 -0.00298698)
(0.382911 -1.72911 -0.00334265)
(0.388821 -1.4997 -0.00339303)
(0.332344 -1.09364 -0.00289679)
(0.182004 -0.472354 -0.0015887)
(0.00546981 -0.42349 -4.77426e-05)
(0.0372424 -0.946004 -0.000324936)
(0.0851588 -1.22861 -0.000743044)
(0.132175 -1.38062 -0.00115327)
(0.170546 -1.43783 -0.00148808)
(0.195715 -1.40292 -0.00170763)
(0.201952 -1.27029 -0.00176274)
(0.181698 -1.0332 -0.00158684)
(0.126335 -0.690283 -0.0011051)
(0.0286695 -0.25934 -0.000256451)
(0.00196004 -0.43862 -1.70696e-05)
(0.0184366 -0.968158 -0.000160924)
(0.0452647 -1.21613 -0.000394953)
(0.0714995 -1.31028 -0.000623966)
(0.0911026 -1.30745 -0.000795005)
(0.100323 -1.2255 -0.000875625)
(0.0966142 -1.06875 -0.000843088)
(0.0790293 -0.839456 -0.000689941)
(0.04827 -0.541915 -0.000421612)
(0.00789187 -0.189064 -7.03106e-05)
(-0.000271955 -0.441966 2.40631e-06)
(0.00657552 -1.00168 -5.74643e-05)
(0.0190155 -1.25922 -0.000165926)
(0.0309677 -1.33703 -0.000270216)
(0.0391104 -1.31423 -0.000341363)
(0.0406633 -1.20826 -0.000354884)
(0.0319615 -1.0405 -0.000279052)
(0.0172491 -0.808156 -0.000150547)
(0.00512057 -0.521396 -4.47398e-05)
(-0.000501724 -0.183901 4.32177e-06)
(-0.00131253 -0.449208 1.14522e-05)
(0.00290547 -1.01989 -2.54028e-05)
(0.00295749 -1.28562 -2.57769e-05)
(0.013664 -1.36363 -0.000119236)
(0.0134109 -1.33412 -0.000116995)
(0.0176811 -1.21956 -0.000154344)
(0.0121638 -1.04404 -0.000106135)
(0.00899807 -0.806685 -7.85695e-05)
(0.00249935 -0.518331 -2.18059e-05)
(0.000621441 -0.182609 -5.492e-06)
(-0.00234251 -0.44396 2.03822e-05)
(0.00213542 -1.01771 -1.84599e-05)
(-0.00350315 -1.28543 3.04942e-05)
(0.00425163 -1.36595 -3.6974e-05)
(0.00240762 -1.33324 -2.10448e-05)
(0.00784065 -1.21591 -6.83512e-05)
(0.00489775 -1.03547 -4.27804e-05)
(0.00471826 -0.797836 -4.11474e-05)
(0.000870432 -0.511739 -7.62131e-06)
(0.000445077 -0.180198 -3.92111e-06)
(-0.00351183 -0.444347 3.06475e-05)
(-0.00614849 -1.01584 5.37378e-05)
(-0.0144448 -1.28774 0.00012618)
(-0.00350144 -1.37567 3.05587e-05)
(-0.00445174 -1.34309 3.8976e-05)
(0.00586539 -1.22685 -5.12132e-05)
(0.00558572 -1.04211 -4.86783e-05)
(0.00860391 -0.801797 -7.51223e-05)
(0.0042644 -0.512533 -3.72107e-05)
(0.00165015 -0.180403 -1.45622e-05)
(-0.00459263 -0.41935 4.01057e-05)
(-0.0170079 -0.990292 0.000148479)
(-0.0238274 -1.27461 0.000207989)
(-0.0202339 -1.37588 0.000176747)
(-0.0157847 -1.3479 0.00013773)
(-0.00783134 -1.23325 6.8483e-05)
(-0.00354288 -1.04419 3.08918e-05)
(0.00100729 -0.798626 -8.7229e-06)
(0.00133183 -0.504203 -1.16469e-05)
(0.000994145 -0.172156 -8.7272e-06)
(-0.0077708 -0.384238 6.78737e-05)
(-0.0340894 -0.941312 0.000297521)
(-0.0461693 -1.24941 0.000403152)
(-0.0444904 -1.36882 0.000388228)
(-0.0438708 -1.35127 0.000383054)
(-0.0396216 -1.24068 0.000345756)
(-0.0364038 -1.05388 0.000317847)
(-0.0283666 -0.809104 0.000247579)
(-0.0173998 -0.513484 0.000151954)
(-0.00436688 -0.177879 3.85895e-05)
(0.0215422 -0.289894 -0.000187949)
(0.0277697 -0.840849 -0.000242271)
(-0.00570286 -1.193 4.98667e-05)
(-0.0483723 -1.33347 0.0004223)
(-0.0958563 -1.32263 0.000836177)
(-0.136173 -1.21906 0.00118761)
(-0.161625 -1.04306 0.00140858)
(-0.165712 -0.812978 0.00144296)
(-0.133532 -0.531959 0.00116035)
(-0.0757753 -0.200291 0.000653971)
(0.574986 -0.558783 -0.00497495)
(0.723034 -0.939395 -0.00599749)
(0.384794 -1.12969 -0.00294355)
(0.0541074 -1.22809 -0.000292007)
(-0.189513 -1.21919 0.00138673)
(-0.354857 -1.13756 0.00229446)
(-0.467565 -0.989392 0.00271501)
(-0.541127 -0.795365 0.00280126)
(-0.537355 -0.549871 0.00220303)
(-0.55467 -0.308344 0.00168515)
(-0.0580677 -4.95325 0.000507292)
(-0.0399655 -2.12904 0.000349316)
(0.0203624 -0.561582 -0.000177656)
(0.000357696 -0.314783 -3.3173e-06)
(-0.0036994 -0.361019 3.20737e-05)
(-0.034294 -0.405429 0.000299)
(-0.0251473 -0.411126 0.000218867)
(-0.029505 -0.399008 0.000256204)
(0.0217438 -0.521329 -0.000192794)
(0.0644041 -1.73227 -0.000566382)
(-0.52909 -0.175843 0.00461817)
(-0.65592 -0.992834 0.0057254)
(-0.343702 -1.22537 0.00300043)
(-0.0632337 -1.23582 0.000552398)
(0.161301 -1.21391 -0.00140744)
(0.286276 -1.13687 -0.00249831)
(0.419155 -1.0109 -0.00365808)
(0.442194 -0.849059 -0.00385927)
(0.565731 -0.621281 -0.0049377)
(0.306614 -0.285066 -0.00270253)
(0.0365093 -0.670001 -0.000318428)
(0.018735 -1.00078 -0.00016335)
(0.0045533 -1.09444 -3.97717e-05)
(0.0258751 -1.10629 -0.000225918)
(0.0522708 -1.07304 -0.000456287)
(0.0676605 -1.01462 -0.000590579)
(0.0828567 -0.908003 -0.000723235)
(0.0770645 -0.802884 -0.000672739)
(0.0609767 -0.596757 -0.000532471)
(0.0228482 -0.407061 -0.00020114)
(-0.0317544 -0.399281 0.000277453)
(-0.0464249 -0.98097 0.000405503)
(-0.0126093 -1.24854 0.000110094)
(0.0295553 -1.33369 -0.000258003)
(0.0791282 -1.30685 -0.000690657)
(0.105773 -1.20919 -0.000923209)
(0.129955 -1.04825 -0.00113428)
(0.11666 -0.839389 -0.00101832)
(0.0970029 -0.558932 -0.000846835)
(0.0389511 -0.212276 -0.0003436)
(0.00295534 -0.3937 -2.55294e-05)
(0.00250193 -0.938899 -2.16553e-05)
(0.00919525 -1.21268 -8.02851e-05)
(0.0162634 -1.29637 -0.000142077)
(0.0230163 -1.26578 -0.000201003)
(0.0249613 -1.16757 -0.000217943)
(0.0247591 -1.0081 -0.000216176)
(0.0178932 -0.80813 -0.00015624)
(0.00963273 -0.53665 -8.41455e-05)
(0.00175633 -0.215984 -1.56482e-05)
(-0.00128265 -0.419873 1.14036e-05)
(0.00464709 -1.00083 -4.0426e-05)
(0.0154742 -1.28439 -0.000135116)
(0.0236525 -1.36875 -0.000206577)
(0.0328593 -1.3323 -0.000286905)
(0.0356513 -1.21922 -0.000311241)
(0.0367676 -1.04393 -0.000320978)
(0.0289645 -0.817343 -0.000252871)
(0.0189581 -0.533832 -0.000165534)
(0.00566535 -0.195149 -4.9979e-05)
(-0.000900728 -0.400173 8.00689e-06)
(0.00234894 -0.98335 -2.04606e-05)
(0.0060313 -1.26921 -5.27573e-05)
(0.0073976 -1.35117 -6.47452e-05)
(0.00839044 -1.31336 -7.3374e-05)
(0.00805465 -1.1993 -7.03965e-05)
(0.00680607 -1.0246 -5.9473e-05)
(0.00357372 -0.79846 -3.1237e-05)
(0.00149674 -0.518561 -1.30858e-05)
(-0.000841389 -0.187448 7.28011e-06)
(0.000223499 -0.421833 -1.74523e-06)
(0.00562927 -1.0195 -4.90863e-05)
(0.00913469 -1.30076 -7.98965e-05)
(0.0104771 -1.37774 -9.16368e-05)
(0.0125351 -1.33646 -0.000109561)
(0.0118758 -1.21758 -0.00010376)
(0.0117656 -1.0385 -0.000102764)
(0.00855278 -0.806312 -7.47041e-05)
(0.00498476 -0.524301 -4.35462e-05)
(0.00155178 -0.189705 -1.36369e-05)
(0.000687471 -0.416661 -5.88346e-06)
(0.00275857 -1.01286 -2.41203e-05)
(0.00260376 -1.29131 -2.29284e-05)
(0.00210022 -1.36758 -1.85309e-05)
(0.00272564 -1.32688 -2.39431e-05)
(0.00244085 -1.20825 -2.14112e-05)
(0.00265963 -1.02825 -2.32869e-05)
(0.00111268 -0.796345 -9.76291e-06)
(0.00034112 -0.514269 -3.00456e-06)
(-0.000303679 -0.183683 2.60658e-06)
(0.000564805 -0.432633 -4.80736e-06)
(0.00270566 -1.02868 -2.3679e-05)
(0.00254257 -1.303 -2.23851e-05)
(0.00300755 -1.3786 -2.64431e-05)
(0.00486092 -1.33777 -4.25726e-05)
(0.00497428 -1.21758 -4.35239e-05)
(0.00546223 -1.03575 -4.77564e-05)
(0.00383994 -0.801706 -3.3577e-05)
(0.00232475 -0.519163 -2.03291e-05)
(0.000665275 -0.187283 -5.83234e-06)
(-0.000376674 -0.426758 3.34958e-06)
(-8.24076e-05 -1.02218 6.56682e-07)
(-0.00120971 -1.29628 1.03848e-05)
(-0.00041155 -1.3742 3.42095e-06)
(0.00195695 -1.33495 -1.72152e-05)
(0.00255963 -1.21399 -2.24452e-05)
(0.00322492 -1.03053 -2.82286e-05)
(0.00185393 -0.795245 -1.62421e-05)
(0.00079478 -0.512327 -6.97152e-06)
(-9.20815e-05 -0.182581 7.59142e-07)
(0.00015502 -0.430709 -1.29724e-06)
(-0.000121013 -1.02631 1.12882e-06)
(-0.000774161 -1.30106 6.62546e-06)
(0.00139433 -1.3818 -1.22983e-05)
(0.00445833 -1.34306 -3.90279e-05)
(0.00557471 -1.2203 -4.87553e-05)
(0.00564507 -1.03453 -4.93536e-05)
(0.00388015 -0.797693 -3.39314e-05)
(0.00206632 -0.514547 -1.80766e-05)
(0.000418067 -0.184644 -3.68323e-06)
(0.000223678 -0.427475 -1.95617e-06)
(-0.00105562 -1.02017 9.25568e-06)
(-0.00152396 -1.29855 1.32059e-05)
(0.00174735 -1.38371 -1.53439e-05)
(0.0051555 -1.3454 -4.50874e-05)
(0.00604249 -1.21994 -5.28291e-05)
(0.00573617 -1.03136 -5.01458e-05)
(0.00354116 -0.792628 -3.09727e-05)
(0.00149971 -0.509199 -1.31292e-05)
(2.06989e-05 -0.181177 -2.31343e-07)
(0.000489077 -0.429162 -4.1801e-06)
(-0.000937995 -1.02079 8.19299e-06)
(-7.8598e-05 -1.30404 6.24577e-07)
(0.00457735 -1.39344 -4.0038e-05)
(0.00846572 -1.3538 -7.39795e-05)
(0.00949353 -1.22463 -8.29469e-05)
(0.00786791 -1.03264 -6.87525e-05)
(0.00516802 -0.79222 -4.51738e-05)
(0.0022664 -0.508774 -1.98262e-05)
(0.000298861 -0.18161 -2.65188e-06)
(0.000403534 -0.427475 -3.49874e-06)
(-0.00193932 -1.01736 1.68656e-05)
(0.000749603 -1.30858 -6.63271e-06)
(0.00679964 -1.40211 -5.94457e-05)
(0.0106587 -1.35919 -9.31212e-05)
(0.0108184 -1.22543 -9.45128e-05)
(0.00853033 -1.02943 -7.45347e-05)
(0.00516839 -0.787334 -4.51756e-05)
(0.00202538 -0.503938 -1.77193e-05)
(7.18019e-05 -0.178914 -6.87902e-07)
(0.000221894 -0.425847 -1.92415e-06)
(-0.00193633 -1.01791 1.68311e-05)
(0.00352017 -1.32037 -3.08241e-05)
(0.0106949 -1.41604 -9.34458e-05)
(0.0142572 -1.3678 -0.000124534)
(0.0133721 -1.22794 -0.000116808)
(0.0100515 -1.02791 -8.7816e-05)
(0.00604245 -0.784277 -5.28047e-05)
(0.00250295 -0.501235 -2.18855e-05)
(0.000229121 -0.177775 -2.04552e-06)
(-0.000230037 -0.42346 1.98875e-06)
(-0.00131079 -1.02087 1.13566e-05)
(0.00703412 -1.33572 -6.14815e-05)
(0.0143798 -1.43034 -0.000125605)
(0.0168165 -1.37425 -0.000146879)
(0.014494 -1.22767 -0.000126606)
(0.0103807 -1.02401 -9.0688e-05)
(0.00582313 -0.779369 -5.08864e-05)
(0.00219904 -0.497241 -1.92298e-05)
(-3.26813e-06 -0.176205 -5.88604e-08)
(-0.000714369 -0.421195 6.19823e-06)
(0.000731626 -1.03054 -6.44913e-06)
(0.0120819 -1.35718 -0.000105509)
(0.0190308 -1.44634 -0.000166197)
(0.0198626 -1.38019 -0.000173474)
(0.0155089 -1.22647 -0.000135478)
(0.0105916 -1.01971 -9.25415e-05)
(0.00585943 -0.774521 -5.12108e-05)
(0.00231443 -0.493525 -2.02518e-05)
(0.000186878 -0.174394 -1.69852e-06)
(-0.00154424 -0.422221 1.34222e-05)
(0.00361858 -1.04921 -3.16012e-05)
(0.0172946 -1.38375 -0.000150982)
(0.0223464 -1.46181 -0.000195136)
(0.0206762 -1.38384 -0.000180589)
(0.0145293 -1.22345 -0.000126945)
(0.00928209 -1.01515 -8.11053e-05)
(0.00464956 -0.770277 -4.06456e-05)
(0.00158552 -0.491034 -1.38852e-05)
(5.00392e-05 -0.173983 -4.75989e-07)
(-0.00181211 -0.42363 1.59041e-05)
(0.00846055 -1.07646 -7.36812e-05)
(0.0235913 -1.41277 -0.000205917)
(0.0252819 -1.47398 -0.000220755)
(0.0208064 -1.38355 -0.000181734)
(0.0127567 -1.21784 -0.000111495)
(0.00742846 -1.00923 -6.49039e-05)
(0.00399294 -0.765303 -3.48974e-05)
(0.00153903 -0.487223 -1.34452e-05)
(0.0004555 -0.171737 -4.02189e-06)
(-0.00217377 -0.437071 1.90546e-05)
(0.0135697 -1.11713 -0.000118311)
(0.0274085 -1.44432 -0.000239233)
(0.0247806 -1.4829 -0.000216377)
(0.0171237 -1.38068 -0.000149599)
(0.00817892 -1.21216 -7.15451e-05)