/*--------------------------------*- C++ -*----------------------------------*\
| =========                 |                                                 |
| \\      /  F ield         | OpenFOAM: The Open Source CFD Toolbox           |
|  \\    /   O peration     | Version:  v2012                                 |
|   \\  /    A nd           | Website:  www.openfoam.com                      |
|    \\/     M anipulation  |                                                 |
\*---------------------------------------------------------------------------*/
FoamFile
{
    version     2.0;
    format      ascii;
    class       volVectorField;
    location    "0.2";
    object      U;
}
// * * * * * * * * * * * * * * * * * * * * * * * * * * * * * * * * * * * * * //

dimensions      [0 1 -1 0 0 0 0];


internalField   nonuniform List<vector> 
2660
(
(0.738878 -28.8236 -0.00640798)
(0.705487 -23.1206 -0.00609218)
(-0.259014 -12.8944 0.00229473)
(-1.73615 -3.72504 0.0151764)
(-1.30492 2.83842 0.0114346)
(0.615641 -27.9106 -0.00535051)
(0.509656 -21.4567 -0.00437351)
(0.481696 -12.7276 -0.00417641)
(0.238713 -6.47452 -0.00207946)
(-0.544007 0.468515 0.00477556)
(0.518903 -28.9009 -0.00449091)
(0.449842 -20.8592 -0.00385869)
(0.429323 -12.8568 -0.00372835)
(0.76107 -6.41689 -0.00664168)
(-0.00721827 -1.8223 7.15252e-05)
(0.137294 -29.517 -0.00115716)
(0.164398 -20.6183 -0.00137724)
(0.565881 -14.4641 -0.00492778)
(0.938135 -7.01424 -0.00819277)
(0.326166 -1.80602 -0.00285008)
(-0.035677 -30.3485 0.000359956)
(0.168848 -21.5946 -0.00142465)
(0.882433 -16.8294 -0.0076948)
(0.975099 -8.23221 -0.00852314)
(0.480768 -1.55317 -0.00420736)
(-0.140004 -30.9821 0.00125909)
(0.47491 -23.2062 -0.00410546)
(0.950389 -18.2117 -0.00829167)
(0.822781 -8.79014 -0.00719844)
(0.388238 -1.2673 -0.00340637)
(-0.0614045 -31.7555 0.000565875)
(0.66006 -24.5889 -0.00572562)
(0.880471 -18.8543 -0.00768592)
(0.712549 -8.68883 -0.00623949)
(0.268833 -0.944628 -0.00236516)
(0.270535 -32.5382 -0.00233761)
(0.59044 -25.5409 -0.00511794)
(0.84198 -19.3988 -0.00735546)
(0.675441 -8.78592 -0.00591893)
(0.26782 -0.613599 -0.00235493)
(0.0374959 -32.8603 -0.00029501)
(0.560859 -26.8334 -0.00486155)
(0.802681 -19.5887 -0.00702)
(0.62094 -8.86333 -0.00544443)
(0.249483 -0.336826 -0.00219698)
(-0.116274 -33.2885 0.00105804)
(0.52906 -28.2932 -0.00459107)
(0.661092 -19.2435 -0.0057924)
(0.548839 -7.99897 -0.00481443)
(0.123673 0.0187225 -0.00109874)
(0.0689409 -33.8223 -0.000548354)
(0.376569 -29.0764 -0.00326835)
(0.419875 -19.2023 -0.00369116)
(0.50092 -6.57554 -0.00439795)
(-0.0282029 0.42887 0.000229336)
(0.14154 -34.6266 -0.00116934)
(0.160176 -29.5515 -0.00138629)
(0.207841 -20.412 -0.00183744)
(1.11993 -6.66783 -0.00980217)
(0.436585 0.666053 -0.00381502)
(-0.0372288 -35.5258 0.000387581)
(0.0252966 -30.2606 -0.000217161)
(-0.278947 -23.1751 0.00241964)
(3.037 -11.1159 -0.0265292)
(3.52692 -7.20388 -0.0307946)
(0.175047 -36.2167 -0.00146288)
(-0.706429 -31.8966 0.00615716)
(-2.31594 -26.2851 0.0202057)
(0.940981 -15.173 -0.00822607)
(1.7047 -10.3275 -0.0148865)
(0.12078 -36.7616 -0.000995626)
(-0.10049 -33.4151 0.000856652)
(-0.537726 -28.1886 0.00469064)
(0.782285 -16.8571 -0.00683105)
(1.11749 -9.62441 -0.00976501)
(0.13872 -37.2983 -0.00115893)
(0.429587 -33.7842 -0.00377271)
(0.0841718 -27.9949 -0.000734409)
(-0.00865415 -17.6132 7.49998e-05)
(0.423504 -8.70669 -0.00371161)
(0.0537608 -37.976 -0.000425618)
(0.359129 -33.9364 -0.00314907)
(-0.0783041 -26.9607 0.000690146)
(-0.170783 -17.2036 0.00149428)
(-0.263733 -8.12096 0.00229588)
(-0.0638169 -38.5937 0.000593766)
(-0.0149078 -33.9036 0.00013422)
(0.227453 -27.0807 -0.00197703)
(0.49488 -17.0517 -0.00431597)
(-0.492518 -8.96315 0.00430296)
(0.0593718 -38.9552 -0.000487991)
(-0.0848123 -34.2245 0.000763414)
(0.721738 -28.3036 -0.00629932)
(1.03339 -16.9088 -0.00902081)
(0.0808288 -8.48348 -0.000714312)
(-0.0666445 -38.8532 0.000600116)
(0.127724 -35.1239 -0.00108749)
(1.2358 -29.9032 -0.0107949)
(0.617678 -16.7021 -0.00539913)
(0.678513 -7.15352 -0.00593758)
(-1.05172 -39.4297 0.00919811)
(-1.59112 -36.1832 0.0139056)
(1.06584 -31.4588 -0.00931699)
(-0.089751 -16.6598 0.000765669)
(0.44984 -6.58204 -0.00393579)
(-0.622645 -40.5892 0.00543038)
(-1.55041 -37.0294 0.0135344)
(0.408128 -31.865 -0.00358186)
(-0.232144 -16.5583 0.00200258)
(0.223285 -6.28136 -0.00195214)
(0.0751659 -41.3765 -0.000671998)
(-1.3399 -39.0105 0.0116859)
(-2.95197 -31.4602 0.025738)
(-1.58802 -16.9391 0.0138344)
(0.5186 -6.93799 -0.00452941)
(-0.0525338 -42.0483 0.000433692)
(-0.202249 -41.2812 0.00175462)
(-2.4287 -31.3569 0.0211594)
(-2.84522 -18.3273 0.0247985)
(0.992232 -8.04035 -0.0086628)
(-0.0885075 -42.536 0.000766678)
(-0.118692 -41.8458 0.00102411)
(-1.20132 -31.6836 0.0104379)
(-2.45471 -20.6761 0.0213742)
(1.45131 -10.4951 -0.0126731)
(0.322957 -42.6988 -0.00280502)
(-0.951062 -41.5541 0.00828298)
(-0.7724 -32.8159 0.00668501)
(-1.66882 -23.2723 0.014502)
(1.34758 -15.1253 -0.011771)
(0.473674 -42.4439 -0.00412742)
(-1.39601 -40.9786 0.0121588)
(-1.71469 -34.1909 0.0149036)
(-1.33921 -24.9823 0.0116236)
(0.721929 -17.3899 -0.00632245)
(0.000696297 -42.141 -1.54719e-05)
(-1.07554 -41.4131 0.00936177)
(-2.04411 -34.6727 0.0177836)
(-0.50515 -26.3342 0.00435412)
(0.77674 -17.1978 -0.00680814)
(-0.553275 -42.6669 0.0048462)
(-1.10489 -42.187 0.00961965)
(-0.825268 -34.1496 0.00716685)
(-0.128247 -27.7045 0.00107978)
(0.674121 -17.1163 -0.00591421)
(-0.383458 -43.1879 0.00336456)
(-1.96521 -41.6545 0.0171327)
(-0.0683426 -34.0673 0.000585305)
(-0.345719 -28.5443 0.00299309)
(0.474537 -16.92 -0.00416585)
(0.135709 -42.9484 -0.00116548)
(-1.51404 -40.6589 0.0132071)
(0.71739 -34.8289 -0.00625415)
(-0.378728 -28.7849 0.00328792)
(0.298343 -16.9754 -0.00262666)
(0.17359 -42.8755 -0.00148442)
(-0.792612 -40.4095 0.00693077)
(1.10417 -35.5149 -0.00962511)
(-0.412824 -28.4456 0.00358983)
(0.442729 -16.9972 -0.00389103)
(0.186112 -43.016 -0.00157666)
(-0.181617 -40.6588 0.00161426)
(0.841595 -36.146 -0.00734185)
(-0.0134847 -28.1951 0.000104881)
(0.664384 -16.7379 -0.00582838)
(0.207397 -43.4565 -0.00175991)
(0.0933862 -41.0515 -0.000785554)
(0.361506 -36.8065 -0.00316007)
(0.430585 -28.5784 -0.0037672)
(0.778536 -15.9819 -0.00682215)
(-0.0448327 -0.000497354 0.000391336)
(-0.0390305 -0.000412883 0.000340701)
(-0.0339949 -0.000345511 0.000296749)
(-0.0296077 -0.000291162 0.000258455)
(-0.0257724 -0.000246824 0.000224976)
(-0.0224111 -0.000210253 0.000195634)
(-0.019459 -0.00017984 0.000169866)
(-0.0168624 -0.000154277 0.000147199)
(-0.014577 -0.000132641 0.000127252)
(-0.0125648 -0.000114217 0.000109683)
(-0.0107935 -9.84604e-05 9.42248e-05)
(-0.00923574 -8.49042e-05 8.06244e-05)
(-0.00786731 -7.31891e-05 6.86809e-05)
(-0.00666743 -6.30852e-05 5.82091e-05)
(-0.00561711 -5.435e-05 4.90391e-05)
(-0.00469972 -4.67837e-05 4.10389e-05)
(-0.00390043 -4.02674e-05 3.40502e-05)
(-0.0032056 -3.46534e-05 2.79768e-05)
(-0.00260323 -2.98296e-05 2.27248e-05)
(-0.00208249 -2.56454e-05 1.81796e-05)
(-0.00163343 -2.21467e-05 1.42639e-05)
(-0.00124853 -1.90863e-05 1.08977e-05)
(-0.00092017 -1.63931e-05 8.03235e-06)
(-0.000643295 -1.40747e-05 5.61676e-06)
(-0.000415154 -1.19575e-05 3.62561e-06)
(-0.000233309 -9.9463e-06 2.03907e-06)
(-0.000101203 -7.7409e-06 8.83698e-07)
(-1.84003e-05 -5.86667e-06 1.59226e-07)
(5.53668e-06 -3.03007e-06 -5.81328e-08)
(-0.107879 -0.00498159 0.00094173)
(-0.0945536 -0.00421594 0.000825429)
(-0.0828433 -0.00358698 0.000723211)
(-0.0725268 -0.003066 0.000633155)
(-0.0634181 -0.00263098 0.000553638)
(-0.0553629 -0.00226473 0.000483318)
(-0.0482308 -0.00195429 0.000421059)
(-0.0419121 -0.00168908 0.000365897)
(-0.0363139 -0.00146115 0.00031703)
(-0.0313557 -0.00126422 0.000273742)
(-0.0269682 -0.0010934 0.000235444)
(-0.0230912 -0.000944712 0.000201597)
(-0.0196713 -0.000815047 0.000171745)
(-0.0166617 -0.000702005 0.000145476)
(-0.0140192 -0.000603468 0.000122408)
(-0.0117052 -0.000517633 0.000102222)
(-0.00968503 -0.000443134 8.45588e-05)
(-0.00792655 -0.000378567 6.91873e-05)
(-0.00640117 -0.000322771 5.58846e-05)
(-0.00508255 -0.000274455 4.43763e-05)
(-0.00394678 -0.000232778 3.44704e-05)
(-0.00297586 -0.000196375 2.59791e-05)
(-0.00215124 -0.000164464 1.87828e-05)
(-0.00146101 -0.00013537 1.27602e-05)
(-0.000899306 -0.000108081 7.85762e-06)
(-0.000461231 -8.10812e-05 4.03529e-06)
(-0.000155802 -5.29531e-05 1.36325e-06)
(1.53178e-05 -2.43616e-05 -1.33571e-07)
(3.48396e-05 1.67449e-08 -3.24608e-07)
(-0.157625 -0.0120291 0.00137598)
(-0.13925 -0.0103142 0.00121562)
(-0.122895 -0.00887945 0.00107285)
(-0.108315 -0.00767091 0.000945584)
(-0.0953034 -0.00664605 0.000831996)
(-0.0836818 -0.00577091 0.000730543)
(-0.0732979 -0.00501908 0.000639897)
(-0.0640203 -0.004369 0.000558906)
(-0.0557362 -0.00380406 0.000486593)
(-0.0483456 -0.00331082 0.00042207)
(-0.0417609 -0.00287882 0.000364592)
(-0.0359052 -0.00249948 0.000313472)
(-0.0307088 -0.00216606 0.000268112)
(-0.0261097 -0.00187315 0.000227969)
(-0.0220497 -0.00161605 0.000192528)
(-0.0184762 -0.00139073 0.00016135)
(-0.0153413 -0.00119396 0.000133944)
(-0.0125999 -0.00102245 0.000109984)
(-0.0102115 -0.000873474 8.91507e-05)
(-0.00813825 -0.000743792 7.10573e-05)
(-0.00634602 -0.000631121 5.54229e-05)
(-0.00480838 -0.000532397 4.19792e-05)
(-0.00349853 -0.000445161 3.05477e-05)
(-0.002399 -0.000365283 2.09528e-05)
(-0.00150119 -0.000289925 1.31165e-05)
(-0.000798461 -0.000215331 6.98427e-06)
(-0.0003027 -0.00013826 2.64825e-06)
(-1.58563e-05 -5.96695e-05 1.4053e-07)
(4.26507e-05 8.23274e-06 -3.90728e-07)
(-0.194464 -0.0203115 0.00169757)
(-0.173107 -0.017626 0.00151116)
(-0.153861 -0.0153423 0.00134318)
(-0.13651 -0.0133888 0.00119171)
(-0.12086 -0.0117081 0.00105509)
(-0.106744 -0.0102533 0.000931873)
(-0.0940168 -0.00898724 0.00082077)
(-0.0825485 -0.00787943 0.000720656)
(-0.0722267 -0.00690597 0.000630555)
(-0.0629495 -0.00604728 0.000549565)
(-0.0546261 -0.0052879 0.000476909)
(-0.0471751 -0.00461522 0.000411863)
(-0.0405212 -0.00401912 0.000353782)
(-0.034597 -0.00349145 0.000302072)
(-0.0293374 -0.00302502 0.00025616)
(-0.0246827 -0.00261365 0.000215542)
(-0.0205779 -0.00225212 0.000179664)
(-0.0169704 -0.00193518 0.000148139)
(-0.0138123 -0.0016583 0.000120588)
(-0.0110585 -0.00141617 9.65544e-05)
(-0.00866788 -0.0012046 7.56975e-05)
(-0.00660808 -0.00101866 5.76929e-05)
(-0.00484673 -0.000852143 4.23203e-05)
(-0.0033624 -0.000700424 2.93667e-05)
(-0.00214442 -0.000556402 1.87358e-05)
(-0.001185 -0.000414178 1.03626e-05)
(-0.000497535 -0.000267846 4.35141e-06)
(-8.31954e-05 -0.000119741 7.30309e-07)
(3.87836e-05 7.78223e-06 -3.46257e-07)
(-0.219808 -0.0288993 0.0019188)
(-0.197024 -0.0253515 0.00171995)
(-0.176265 -0.0222903 0.00153874)
(-0.157351 -0.0196349 0.00137364)
(-0.140124 -0.0173192 0.00122326)
(-0.124443 -0.0152891 0.00108638)
(-0.110181 -0.0135007 0.00096188)
(-0.0972258 -0.0119178 0.000848785)
(-0.0854763 -0.0105119 0.000746222)
(-0.0748397 -0.00925933 0.000653366)
(-0.0652315 -0.00814119 0.000569496)
(-0.0565746 -0.00714217 0.000493924)
(-0.0487962 -0.00624979 0.000426027)
(-0.0418299 -0.00545392 0.000365221)
(-0.0356102 -0.00474555 0.000310929)
(-0.0300763 -0.00411679 0.000262634)
(-0.0251706 -0.00356079 0.000219761)
(-0.020838 -0.00307058 0.000181903)
(-0.017027 -0.00263986 0.000148653)
(-0.0136888 -0.00226147 0.000119521)
(-0.0107789 -0.00192896 9.41301e-05)
(-0.00826075 -0.00163547 7.21229e-05)
(-0.00609944 -0.00137068 5.32589e-05)
(-0.00427123 -0.00112944 3.73037e-05)
(-0.00276386 -0.000899035 2.41468e-05)
(-0.00156931 -0.000672235 1.37208e-05)
(-0.000701858 -0.000439966 6.13711e-06)
(-0.00016196 -0.000206186 1.4198e-06)
(3.09948e-05 -3.82846e-06 -2.6479e-07)
(-0.236094 -0.0372563 0.00206095)
(-0.212935 -0.0330055 0.00185882)
(-0.191622 -0.0292886 0.00167279)
(-0.172021 -0.0260224 0.0015017)
(-0.154008 -0.0231382 0.00134446)
(-0.137473 -0.020579 0.00120012)
(-0.122314 -0.0182983 0.00106779)
(-0.108439 -0.0162576 0.000946666)
(-0.0957646 -0.0144262 0.000836036)
(-0.0842128 -0.0127787 0.000735192)
(-0.0737103 -0.0112947 0.000643516)
(-0.0641888 -0.00995779 0.000560398)
(-0.0555828 -0.00875429 0.000485277)
(-0.0478314 -0.00767315 0.000417619)
(-0.0408729 -0.00670438 0.000356877)
(-0.0346488 -0.0058391 0.000302556)
(-0.0291034 -0.00506934 0.000254096)
(-0.0241819 -0.00438688 0.000211096)
(-0.0198325 -0.00378392 0.000173147)
(-0.0160057 -0.00325162 0.00013975)
(-0.0126558 -0.00278134 0.000110518)
(-0.00974463 -0.00236401 8.50793e-05)
(-0.00723659 -0.00198655 6.31884e-05)
(-0.00510684 -0.00164076 4.46012e-05)
(-0.00334274 -0.00130976 2.92033e-05)
(-0.00193672 -0.0009837 1.69311e-05)
(-0.000903478 -0.000651762 7.89907e-06)
(-0.000243392 -0.000318816 2.13256e-06)
(2.22195e-05 -2.71927e-05 -1.73993e-07)
(-0.245638 -0.045083 0.00214426)
(-0.222763 -0.0402996 0.00194461)
(-0.201525 -0.0360648 0.00175923)
(-0.181828 -0.0322981 0.00158729)
(-0.16358 -0.0289323 0.00142801)
(-0.146701 -0.0259114 0.00128067)
(-0.131114 -0.0231895 0.0011446)
(-0.116747 -0.0207284 0.0010192)
(-0.103538 -0.0184978 0.000903894)
(-0.0914219 -0.0164725 0.000798124)
(-0.0803392 -0.0146325 0.000701385)
(-0.0702332 -0.0129615 0.000613166)
(-0.0610474 -0.0114459 0.000532985)
(-0.0527288 -0.0100749 0.000460375)
(-0.0452217 -0.00883838 0.000394845)
(-0.0384728 -0.00772724 0.000335941)
(-0.03243 -0.00673303 0.000283138)
(-0.0270414 -0.00584678 0.000236061)
(-0.0222573 -0.00505956 0.000194317)
(-0.0180291 -0.00436117 0.000157416)
(-0.0143123 -0.00374103 0.000124982)
(-0.0110686 -0.00318776 9.66396e-05)
(-0.00826321 -0.00268601 7.21529e-05)
(-0.00587136 -0.00222364 5.12778e-05)
(-0.00388081 -0.00178094 3.3903e-05)
(-0.00228513 -0.00134372 1.99751e-05)
(-0.00109956 -0.00090051 9.61267e-06)
(-0.000324863 -0.000456893 2.84565e-06)
(1.33033e-05 -6.24749e-05 -8.17812e-08)
(-0.250226 -0.052238 0.00218429)
(-0.228033 -0.0470833 0.0019906)
(-0.207264 -0.0424652 0.00180931)
(-0.187855 -0.0383096 0.0016399)
(-0.169745 -0.0345539 0.00148182)
(-0.152877 -0.0311459 0.00133458)
(-0.137198 -0.0280425 0.00119771)
(-0.122656 -0.0252084 0.00107077)
(-0.109204 -0.0226153 0.000953357)
(-0.0967943 -0.02024 0.000845023)
(-0.0853793 -0.0180641 0.000745383)
(-0.0749136 -0.0160727 0.000654025)
(-0.0653508 -0.0142537 0.000570554)
(-0.0566464 -0.0125972 0.000494577)
(-0.0487519 -0.011094 0.000425665)
(-0.04162 -0.0097352 0.000363417)
(-0.0352039 -0.00851266 0.000307354)
(-0.0294558 -0.00741712 0.000257139)
(-0.0243293 -0.006439 0.000212407)
(-0.0197787 -0.00556704 0.000172692)
(-0.0157615 -0.00478902 0.000137635)
(-0.012241 -0.00409142 0.000106876)
(-0.00918385 -0.00345658 8.01921e-05)
(-0.00656654 -0.00286863 5.73488e-05)
(-0.0043778 -0.00230507 3.82438e-05)
(-0.00261278 -0.00174784 2.28375e-05)
(-0.00128773 -0.00118358 1.12571e-05)
(-0.000404516 -0.000619523 3.54285e-06)
(4.63759e-06 -0.000109569 8.05755e-09)
(-0.251159 -0.0586719 0.00219242)
(-0.229878 -0.0532906 0.00200669)
(-0.209818 -0.0484126 0.0018316)
(-0.190943 -0.0439725 0.00166685)
(-0.173217 -0.039915 0.00151212)
(-0.156604 -0.0361935 0.0013671)
(-0.14107 -0.03277 0.00123151)
(-0.126581 -0.0296132 0.00110504)
(-0.113106 -0.0266986 0.000987409)
(-0.100608 -0.0240062 0.000878311)
(-0.0890533 -0.0215202 0.000777455)
(-0.0784071 -0.0192285 0.000684522)
(-0.068632 -0.0171209 0.000599198)
(-0.0596919 -0.0151895 0.000521164)
(-0.0515455 -0.0134263 0.000450053)
(-0.0441521 -0.0118238 0.00038552)
(-0.0374703 -0.0103742 0.00032714)
(-0.0314574 -0.00906873 0.000274615)
(-0.0260712 -0.00789743 0.000227615)
(-0.0212695 -0.00684833 0.000185707)
(-0.0170127 -0.00590789 0.000148559)
(-0.0132665 -0.00506064 0.000115831)
(-0.0100002 -0.00428677 8.73205e-05)
(-0.00719181 -0.00356688 6.28092e-05)
(-0.00483172 -0.00287554 4.22084e-05)
(-0.00291688 -0.0021913 2.54939e-05)
(-0.00146518 -0.00149841 1.28078e-05)
(-0.0004805 -0.000805504 4.20799e-06)
(-3.4718e-06 -0.000168074 9.2438e-08)
(-0.249394 -0.0643867 0.002177)
(-0.229149 -0.0589056 0.00200032)
(-0.209938 -0.0538771 0.00183264)
(-0.191748 -0.0492467 0.00167386)
(-0.174563 -0.0449679 0.00152386)
(-0.158368 -0.0410018 0.00138249)
(-0.143144 -0.0373166 0.00124961)
(-0.128872 -0.0338866 0.00112502)
(-0.115532 -0.0306919 0.00100859)
(-0.103102 -0.0277168 0.000900082)
(-0.0915572 -0.0249492 0.00079931)
(-0.0808716 -0.0223802 0.000706034)
(-0.0710166 -0.0200024 0.000620014)
(-0.0619637 -0.0178105 0.000540995)
(-0.0536785 -0.0157983 0.000468673)
(-0.0461264 -0.0139598 0.000402755)
(-0.0392719 -0.0122885 0.000342867)
(-0.0330771 -0.0107761 0.000288754)
(-0.0275044 -0.00941282 0.000240127)
(-0.0225154 -0.00818623 0.000196585)
(-0.0180744 -0.00708176 0.000157829)
(-0.0141499 -0.00608226 0.000123544)
(-0.0107138 -0.00516589 9.35517e-05)
(-0.00774662 -0.00430994 6.76542e-05)
(-0.00524065 -0.00348608 4.578e-05)
(-0.00319492 -0.00266948 2.79227e-05)
(-0.00162955 -0.00184233 1.42442e-05)
(-0.000551304 -0.00101328 4.82783e-06)
(-1.08092e-05 -0.0002373 1.69138e-07)
(-0.245638 -0.0694116 0.00214421)
(-0.226488 -0.0639407 0.00197707)
(-0.2082 -0.0588572 0.00181745)
(-0.190782 -0.0541194 0.00166542)
(-0.174237 -0.0496913 0.00152101)
(-0.158565 -0.0455428 0.00138421)
(-0.143762 -0.0416496 0.001255)
(-0.129821 -0.0379926 0.00113331)
(-0.116734 -0.0345575 0.00101908)
(-0.104487 -0.0313336 0.000912169)
(-0.0930651 -0.0283131 0.000812471)
(-0.08245 -0.025491 0.000719811)
(-0.0726204 -0.0228634 0.000634013)
(-0.0635544 -0.0204274 0.00055488)
(-0.0552237 -0.0181796 0.000482161)
(-0.0475994 -0.0161157 0.000415612)
(-0.0406513 -0.0142307 0.000354908)
(-0.0343463 -0.0125172 0.000299835)
(-0.0286514 -0.0109658 0.00025014)
(-0.0235322 -0.009564 0.000205462)
(-0.0189568 -0.00829635 0.000165532)
(-0.0148968 -0.00714425 0.000130066)
(-0.0113274 -0.00608403 9.89097e-05)
(-0.00823151 -0.00508989 7.18885e-05)
(-0.00560371 -0.00413066 4.89509e-05)
(-0.00344535 -0.00317813 3.01101e-05)
(-0.00177926 -0.00221247 1.55524e-05)
(-0.000615945 -0.00124105 5.39371e-06)
(-1.72714e-05 -0.000316372 2.37056e-07)
(-0.24042 -0.0737897 0.00209865)
(-0.22238 -0.0684235 0.00194121)
(-0.205047 -0.0633678 0.00178992)
(-0.188447 -0.0585949 0.00164503)
(-0.172599 -0.0540807 0.0015067)
(-0.157517 -0.049805 0.00137505)
(-0.143208 -0.045752 0.00125015)
(-0.129677 -0.04191 0.00113204)
(-0.116924 -0.0382712 0.00102073)
(-0.104945 -0.0348304 0.000916162)
(-0.0937309 -0.0315849 0.00081828)
(-0.0832709 -0.0285338 0.000726975)
(-0.0735495 -0.0256768 0.000642121)
(-0.0645503 -0.0230145 0.000563572)
(-0.0562503 -0.0205458 0.000491121)
(-0.0486256 -0.0182688 0.000424568)
(-0.0416507 -0.01618 0.000363631)
(-0.035297 -0.0142733 0.000308134)
(-0.0295357 -0.0125397 0.00025786)
(-0.0243365 -0.0109669 0.000212484)
(-0.0196711 -0.00953886 0.000171768)
(-0.0155145 -0.00823574 0.000135459)
(-0.011845 -0.00703214 0.000103429)
(-0.00864815 -0.0058994 7.55268e-05)
(-0.00592104 -0.00480359 5.17222e-05)
(-0.00366749 -0.00371312 3.20504e-05)
(-0.00191343 -0.00260586 1.67248e-05)
(-0.000673899 -0.00148695 5.90106e-06)
(-2.2843e-05 -0.000404307 2.95972e-07)
(-0.234136 -0.0775697 0.00204379)
(-0.217195 -0.0723894 0.00189594)
(-0.200821 -0.0674329 0.00175303)
(-0.185057 -0.0626875 0.00161543)
(-0.169935 -0.0581422 0.00148344)
(-0.15548 -0.0537875 0.00135727)
(-0.141712 -0.0496173 0.00123709)
(-0.128643 -0.0456278 0.00112301)
(-0.116282 -0.0418186 0.00101512)
(-0.104631 -0.0381904 0.00091342)
(-0.0936886 -0.0347459 0.000817907)
(-0.0834479 -0.0314888 0.000728517)
(-0.073899 -0.0284228 0.000645169)
(-0.0650299 -0.0255518 0.000567756)
(-0.0568222 -0.0228776 0.000496111)
(-0.0492563 -0.0204006 0.000430071)
(-0.0423104 -0.0181191 0.000369389)
(-0.0359602 -0.0160283 0.000313923)
(-0.0301807 -0.01412 0.000263491)
(-0.0249453 -0.012382 0.000217798)
(-0.0202293 -0.010798 0.000176641)
(-0.0160108 -0.00934698 0.000139792)
(-0.0122713 -0.008002 0.000107151)
(-0.00899901 -0.00673174 7.85905e-05)
(-0.00619354 -0.00549953 5.4102e-05)
(-0.00386132 -0.0042704 3.37435e-05)
(-0.00203176 -0.00301954 1.77588e-05)
(-0.00072499 -0.00174906 6.34833e-06)
(-2.75426e-05 -0.000500081 3.46008e-07)
(-0.227085 -0.0808022 0.00198222)
(-0.211214 -0.0758771 0.00184372)
(-0.195787 -0.0710808 0.00170907)
(-0.180858 -0.0664169 0.00157877)
(-0.166471 -0.0618878 0.00145319)
(-0.152663 -0.0574962 0.00133267)
(-0.139462 -0.053246 0.00121744)
(-0.126888 -0.0491422 0.00110769)
(-0.114958 -0.0451921 0.00100356)
(-0.103679 -0.0414032 0.000905101)
(-0.0930534 -0.0377836 0.000812357)
(-0.0830803 -0.0343421 0.000725304)
(-0.0737533 -0.0310864 0.000643894)
(-0.0650643 -0.028024 0.000568053)
(-0.0569983 -0.0251598 0.000497645)
(-0.0495391 -0.0224963 0.000432537)
(-0.0426687 -0.0200339 0.000372515)
(-0.0363659 -0.0177689 0.000317465)
(-0.0306093 -0.0156944 0.000267232)
(-0.0253757 -0.0137982 0.000221555)
(-0.0206435 -0.0120638 0.000180257)
(-0.016394 -0.0104693 0.000143138)
(-0.0126116 -0.00898617 0.000110123)
(-0.00928714 -0.00758072 8.11064e-05)
(-0.00642269 -0.00621351 5.61031e-05)
(-0.00402739 -0.00484614 3.5194e-05)
(-0.00213435 -0.0034507 1.86553e-05)
(-0.000769271 -0.00202534 6.73599e-06)
(-3.14172e-05 -0.000602672 3.87584e-07)
(-0.219492 -0.0835375 0.00191594)
(-0.204655 -0.078926 0.00178645)
(-0.190149 -0.0743419 0.00165985)
(-0.176041 -0.0698055 0.00153672)
(-0.162387 -0.0653334 0.00141754)
(-0.149232 -0.060941 0.00130271)
(-0.136611 -0.056643 0.00119255)
(-0.124553 -0.052454 0.0010873)
(-0.113078 -0.0483893 0.000987142)
(-0.1022 -0.0444633 0.000892184)
(-0.0919244 -0.0406904 0.000802497)
(-0.0822546 -0.0370842 0.000718092)
(-0.0731872 -0.033657 0.000638948)
(-0.0647168 -0.0304199 0.000565016)
(-0.0568316 -0.0273805 0.000496186)
(-0.0495181 -0.0245441 0.00043235)
(-0.0427612 -0.0219127 0.000373321)
(-0.0365425 -0.0194843 0.000319006)
(-0.0308437 -0.0172525 0.000269277)
(-0.0256444 -0.0152059 0.0002239)
(-0.0209262 -0.0133276 0.000182723)
(-0.0166729 -0.0115949 0.000145572)
(-0.0128718 -0.009978 0.000112394)
(-0.00951614 -0.00844073 8.31059e-05)
(-0.00661051 -0.00694095 5.77432e-05)
(-0.00416669 -0.00543672 3.64105e-05)
(-0.00222167 -0.00389659 1.94182e-05)
(-0.000806975 -0.00231382 7.06608e-06)
(-3.45402e-05 -0.000711091 4.21399e-07)
(-0.211534 -0.0858244 0.00184646)
(-0.197684 -0.0815751 0.0017256)
(-0.184068 -0.0772468 0.00160676)
(-0.170761 -0.0728767 0.00149062)
(-0.157828 -0.0684964 0.00137773)
(-0.145322 -0.0641341 0.00126857)
(-0.133285 -0.0598161 0.00116351)
(-0.121752 -0.055567 0.00106284)
(-0.110748 -0.0514105 0.000966793)
(-0.100289 -0.0473686 0.000875503)
(-0.0903872 -0.0434619 0.000789074)
(-0.0810465 -0.0397093 0.000707541)
(-0.0722666 -0.0361274 0.000630908)
(-0.0640446 -0.0327311 0.000559144)
(-0.0563708 -0.029531 0.00049216)
(-0.049234 -0.0265347 0.000429867)
(-0.0426214 -0.0237464 0.000372099)
(-0.0365171 -0.0211652 0.000318784)
(-0.0309052 -0.0187858 0.000269814)
(-0.025768 -0.0165971 0.000224978)
(-0.0210896 -0.014582 0.000184149)
(-0.0168563 -0.0127172 0.000147174)
(-0.013058 -0.0109716 0.00011402)
(-0.00969008 -0.00930667 8.46245e-05)
(-0.00675949 -0.00767761 5.9044e-05)
(-0.00428065 -0.00603874 3.74057e-05)
(-0.00229447 -0.00435458 2.00543e-05)
(-0.000838494 -0.00261258 7.34203e-06)
(-3.70019e-05 -0.000824402 4.48331e-07)
(-0.203346 -0.0877094 0.00177498)
(-0.190435 -0.083862 0.00166232)
(-0.177671 -0.0798256 0.00155092)
(-0.165139 -0.0756541 0.00144154)
(-0.15291 -0.0713946 0.0013348)
(-0.141043 -0.0670887 0.00123122)
(-0.129588 -0.0627744 0.00113123)
(-0.118582 -0.0584868 0.00103517)
(-0.108056 -0.0542587 0.000943293)
(-0.0980295 -0.0501195 0.000855772)
(-0.0885158 -0.0460964 0.000772734)
(-0.0795223 -0.0422137 0.000694232)
(-0.0710504 -0.0384927 0.000620287)
(-0.0630989 -0.0349518 0.000550885)
(-0.05566 -0.0316047 0.000485952)
(-0.0487243 -0.0284613 0.000425414)
(-0.0422807 -0.0255277 0.000369123)
(-0.0363154 -0.0228044 0.000317023)
(-0.0308146 -0.020287 0.000269022)
(-0.0257627 -0.0179647 0.000224931)
(-0.0211462 -0.0158205 0.000184642)
(-0.0169536 -0.0138303 0.000148022)
(-0.0131768 -0.0119616 0.000115057)
(-0.00981344 -0.010174 8.57014e-05)
(-0.00687255 -0.00841964 6.0031e-05)
(-0.00437108 -0.00664904 3.81952e-05)
(-0.00235381 -0.00482221 2.05728e-05)
(-0.000864357 -0.00291983 7.56848e-06)
(-3.89037e-05 -0.00094174 4.69376e-07)
(-0.195036 -0.0892368 0.00170244)
(-0.183013 -0.0858227 0.00159752)
(-0.171062 -0.082107 0.00149322)
(-0.159275 -0.0781607 0.00139034)
(-0.147728 -0.0740459 0.00128956)
(-0.136488 -0.0698182 0.00119145)
(-0.125606 -0.0655278 0.00109647)
(-0.115125 -0.0612203 0.00100499)
(-0.10508 -0.0569378 0.000917305)
(-0.0954909 -0.0527178 0.000833607)
(-0.0863748 -0.0485939 0.000754039)
(-0.0777405 -0.0445961 0.000678673)
(-0.0695908 -0.04075 0.000607541)
(-0.061926 -0.0370781 0.000540642)
(-0.0547396 -0.0335969 0.000477913)
(-0.0480236 -0.0303186 0.000419294)
(-0.0417683 -0.0272511 0.000364649)
(-0.0359618 -0.0243962 0.000313935)
(-0.0305916 -0.0217505 0.000267074)
(-0.0256444 -0.0193034 0.000223897)
(-0.0211083 -0.0170378 0.00018431)
(-0.0169739 -0.0149292 0.0001482)
(-0.013235 -0.0129437 0.000115565)
(-0.00989106 -0.0110387 8.63788e-05)
(-0.00695298 -0.00916355 6.0733e-05)
(-0.0044401 -0.00726472 3.87978e-05)
(-0.00240099 -0.00529718 2.0985e-05)
(-0.000885208 -0.00323392 7.75102e-06)
(-4.03526e-05 -0.00106233 4.85605e-07)
(-0.186689 -0.090448 0.00162957)
(-0.175502 -0.087491 0.00153195)
(-0.164324 -0.0841186 0.00143439)
(-0.15325 -0.0804183 0.00133774)
(-0.142362 -0.0764677 0.00124272)
(-0.131731 -0.0723362 0.00114992)
(-0.121412 -0.0680864 0.00105985)
(-0.111451 -0.0637748 0.000972908)
(-0.101883 -0.059453 0.000889401)
(-0.0927343 -0.0551664 0.000809539)
(-0.0840205 -0.0509556 0.000733484)
(-0.0757525 -0.0468561 0.000661315)
(-0.0679345 -0.0428981 0.000593078)
(-0.0605676 -0.0391078 0.000528779)
(-0.0536463 -0.0355045 0.000468365)
(-0.0471638 -0.0321028 0.000411785)
(-0.0411117 -0.0289123 0.000358915)
(-0.0354791 -0.0259361 0.000309722)
(-0.0302554 -0.0231715 0.000264138)
(-0.0254284 -0.0206083 0.00022201)
(-0.0209881 -0.0182294 0.000183259)
(-0.0169268 -0.0160096 0.000147787)
(-0.0132397 -0.0139137 0.000115605)
(-0.009928 -0.0118971 8.6701e-05)
(-0.0070043 -0.00990623 6.11809e-05)
(-0.00449009 -0.00788317 3.92341e-05)
(-0.00243746 -0.00577741 2.13036e-05)
(-0.000901777 -0.00355337 7.89607e-06)
(-4.14548e-05 -0.0011855 4.9812e-07)
(-0.178375 -0.0913819 0.00155699)
(-0.167972 -0.0888988 0.00146621)
(-0.157524 -0.0858861 0.00137504)
(-0.147131 -0.0824477 0.00128433)
(-0.136879 -0.0786765 0.00119484)
(-0.126838 -0.0746555 0.0011072)
(-0.117069 -0.0704601 0.00102194)
(-0.107618 -0.0661577 0.000939447)
(-0.0985243 -0.0618094 0.000860074)
(-0.089813 -0.057469 0.000784035)
(-0.0815025 -0.0531837 0.000711499)
(-0.0736043 -0.0489946 0.000642558)
(-0.0661232 -0.0449367 0.000577262)
(-0.0590611 -0.0410396 0.000515624)
(-0.0524135 -0.0373256 0.0004576)
(-0.0461744 -0.0338115 0.000403144)
(-0.0403362 -0.0305085 0.000352143)
(-0.0348891 -0.0274209 0.00030457)
(-0.0298237 -0.0245466 0.000260369)
(-0.0251294 -0.021876 0.000219399)
(-0.0207974 -0.0193917 0.000181593)
(-0.0168212 -0.0170679 0.000146866)
(-0.0131978 -0.0148683 0.000115239)
(-0.00992944 -0.0127462 8.67131e-05)
(-0.00703022 -0.0106449 6.14068e-05)
(-0.00452359 -0.00850205 3.95262e-05)
(-0.00246482 -0.00626103 2.15426e-05)
(-0.000914861 -0.00387687 8.01059e-06)
(-4.23243e-05 -0.00131072 5.08099e-07)
(-0.170148 -0.0920745 0.00148518)
(-0.160479 -0.0900757 0.0014008)
(-0.150721 -0.0874337 0.00131565)
(-0.140977 -0.0842685 0.0012306)
(-0.131333 -0.0806877 0.00114643)
(-0.121863 -0.0767885 0.00106378)
(-0.112629 -0.0726585 0.000983178)
(-0.103679 -0.0683764 0.000905056)
(-0.0950514 -0.0640128 0.000829754)
(-0.0867737 -0.0596296 0.0007575)
(-0.0788647 -0.0552808 0.000688468)
(-0.0713363 -0.0510134 0.000622757)
(-0.0641942 -0.0468665 0.000560419)
(-0.0574407 -0.0428735 0.000501474)
(-0.0510717 -0.0390595 0.000445883)
(-0.0450822 -0.0354433 0.000393605)
(-0.0394651 -0.0320377 0.000344537)
(-0.0342118 -0.0288481 0.000298657)
(-0.0293138 -0.0258732 0.000255916)
(-0.0247615 -0.0231036 0.000216186)
(-0.0205474 -0.0205217 0.00017941)
(-0.0166664 -0.0181013 0.000145513)
(-0.0131162 -0.0158047 0.000114526)
(-0.00990053 -0.0135833 8.64602e-05)
(-0.00703449 -0.0113772 6.14436e-05)
(-0.00454319 -0.00911929 3.96969e-05)
(-0.00248473 -0.00674643 2.17164e-05)
(-0.000925311 -0.0042033 8.10202e-06)
(-4.31131e-05 -0.0014376 5.17005e-07)
(-0.162056 -0.0925589 0.00141454)
(-0.15307 -0.091049 0.00133613)
(-0.143963 -0.0887837 0.00125665)
(-0.134834 -0.0858984 0.00117698)
(-0.125774 -0.0825158 0.0010979)
(-0.116855 -0.0787465 0.00102005)
(-0.10814 -0.0746908 0.000943989)
(-0.099678 -0.0704381 0.000870129)
(-0.0915081 -0.0660686 0.000798821)
(-0.0836577 -0.0616524 0.000730296)
(-0.0761459 -0.0572503 0.000664732)
(-0.0689851 -0.0529145 0.000602228)
(-0.0621812 -0.0486889 0.000542843)
(-0.0557368 -0.0446101 0.000486597)
(-0.0496486 -0.040706 0.000433456)
(-0.0439117 -0.0369975 0.000383385)
(-0.0385202 -0.0334988 0.000336287)
(-0.0334659 -0.0302163 0.000292144)
(-0.0287413 -0.0271495 0.000250917)
(-0.0243379 -0.024289 0.000212487)
(-0.0202491 -0.0216173 0.000176803)
(-0.0164707 -0.0191074 0.000143805)
(-0.0130017 -0.0167206 0.000113526)
(-0.00984636 -0.0144062 8.59867e-05)
(-0.00702084 -0.0121011 6.13238e-05)
(-0.00455154 -0.0097331 3.97693e-05)
(-0.00249888 -0.00723219 2.184e-05)
(-0.000934006 -0.00453179 8.1781e-06)
(-4.39931e-05 -0.00156583 5.26448e-07)
(-0.154135 -0.0928654 0.0013454)
(-0.145787 -0.0918436 0.00127255)
(-0.13729 -0.0899563 0.0011984)
(-0.128746 -0.0873541 0.00112383)
(-0.120243 -0.084174 0.00104962)
(-0.111854 -0.0805404 0.000976402)
(-0.103642 -0.0765654 0.000904726)
(-0.0956557 -0.0723496 0.000835014)
(-0.087933 -0.0679824 0.000767609)
(-0.0805018 -0.0635419 0.000702743)
(-0.073381 -0.0590954 0.000640593)
(-0.0665832 -0.0547007 0.000581258)
(-0.0601144 -0.0504058 0.000524797)
(-0.0539773 -0.0462507 0.000471234)
(-0.0481692 -0.042266 0.000420538)
(-0.0426857 -0.0384744 0.000372678)
(-0.0375212 -0.0348915 0.000327565)
(-0.0326687 -0.0315249 0.000285184)
(-0.0281211 -0.0283743 0.000245502)
(-0.0238709 -0.0254308 0.000208409)
(-0.0199125 -0.0226768 0.000173864)