/*--------------------------------*- C++ -*----------------------------------*\
| =========                 |                                                 |
| \\      /  F ield         | OpenFOAM: The Open Source CFD Toolbox           |
|  \\    /   O peration     | Version:  v2012                                 |
|   \\  /    A nd           | Website:  www.openfoam.com                      |
|    \\/     M anipulation  |                                                 |
\*---------------------------------------------------------------------------*/
FoamFile
{
    version     2.0;
    format      ascii;
    class       volVectorField;
    location    "1";
    object      U;
}
// * * * * * * * * * * * * * * * * * * * * * * * * * * * * * * * * * * * * * //

dimensions      [0 1 -1 0 0 0 0];


internalField   nonuniform List<vector> 
20000
(
(-0.0179341 -43.7394 0.000156503)
(0.0497666 -42.7951 -0.00043446)
(-0.0481127 -41.1812 0.000419535)
(-0.122084 -39.1548 0.00106494)
(-0.134427 -35.1479 0.00117294)
(0.0254726 -33.2168 -0.000222073)
(0.140532 -27.04 -0.00122089)
(0.148919 -24.7412 -0.00129452)
(0.152093 -23.7009 -0.00132522)
(0.166095 -22.2353 -0.00144763)
(0.189678 -19.9678 -0.00165145)
(0.178646 -16.6833 -0.00155556)
(0.180039 -13.851 -0.00156412)
(0.170648 -12.3762 -0.00148732)
(0.163328 -11.5948 -0.0014253)
(0.150444 -11.0218 -0.00131321)
(0.137068 -10.483 -0.00119649)
(0.123511 -9.92987 -0.00107817)
(0.110296 -9.35749 -0.000962833)
(0.0974451 -8.77386 -0.000850669)
(0.084896 -8.18969 -0.00074114)
(0.0726295 -7.6136 -0.000634078)
(0.0605959 -7.05155 -0.000529048)
(0.0487913 -6.507 -0.000426016)
(0.0372183 -5.98167 -0.000325004)
(0.0259076 -5.4761 -0.000226281)
(0.0149053 -4.99021 -0.000130248)
(0.00427705 -4.52359 -3.7478e-05)
(-0.00589636 -4.0757 5.13243e-05)
(-0.0155188 -3.64605 0.000135321)
(-0.0244797 -3.23418 0.000213546)
(-0.0326543 -2.83976 0.000284911)
(-0.0399025 -2.46254 0.000348193)
(-0.0460661 -2.10238 0.000402015)
(-0.0509657 -1.75924 0.000444808)
(-0.0543887 -1.43314 0.00047472)
(-0.056084 -1.12418 0.000489561)
(-0.0556905 -0.83254 0.000486192)
(-0.0528348 -0.558441 0.000461333)
(-0.0462212 -0.302705 0.000403909)
(-0.0372171 -0.0655949 0.000325277)
(-0.0130283 0.151731 0.000113565)
(-0.00984163 0.348281 8.57116e-05)
(-0.0074657 0.526278 6.51888e-05)
(-0.00655149 0.684614 5.71912e-05)
(-0.00592529 0.823473 5.1732e-05)
(-0.00540841 0.942099 4.72196e-05)
(-0.00491741 1.03982 4.29336e-05)
(-0.00442892 1.11586 3.86695e-05)
(-0.00393387 1.16937 3.43482e-05)
(-0.00343176 1.19936 2.99653e-05)
(-0.0029262 1.20469 2.55522e-05)
(-0.00242376 1.18405 2.11663e-05)
(-0.00193332 1.13594 1.6885e-05)
(-0.00146578 1.05861 1.28034e-05)
(-0.00103474 0.950075 9.04014e-06)
(-0.000655177 0.808025 5.72586e-06)
(-0.000345943 0.629784 3.02498e-06)
(-0.000122816 0.41212 1.07584e-06)
(-5.61954e-06 0.151153 6.51365e-08)
(-0.0141338 -43.7931 0.000123343)
(0.0633845 -42.804 -0.000553287)
(-0.0489124 -40.8342 0.000426464)
(-0.16768 -38.9047 0.00146296)
(-0.138316 -35.2886 0.00120702)
(0.0531808 -33.6086 -0.000463807)
(0.194358 -27.2536 -0.00168555)
(0.215449 -24.8141 -0.00187122)
(0.231135 -23.7825 -0.00201361)
(0.260988 -22.3354 -0.00227472)
(0.267064 -20.0374 -0.00232525)
(0.225878 -16.7101 -0.00195864)
(0.210121 -13.8759 -0.0018243)
(0.205245 -12.3926 -0.00178861)
(0.192398 -11.6007 -0.00167899)
(0.175211 -11.0192 -0.00152939)
(0.155601 -10.4768 -0.00135827)
(0.137258 -9.92197 -0.00119817)
(0.12008 -9.34863 -0.00104824)
(0.104366 -8.76432 -0.000911072)
(0.0896967 -8.1796 -0.000783039)
(0.0759037 -7.60306 -0.00066265)
(0.0627447 -7.04066 -0.000547797)
(0.0501029 -6.4959 -0.000437458)
(0.0378924 -5.97047 -0.000330883)
(0.0260887 -5.46494 -0.000227859)
(0.0146988 -4.97921 -0.000128445)
(0.00376262 -4.51289 -3.29914e-05)
(-0.00665795 -4.06545 5.79634e-05)
(-0.0164805 -3.63635 0.000143701)
(-0.0256053 -3.22518 0.00022335)
(-0.0339168 -2.83157 0.000295901)
(-0.0412829 -2.45527 0.000360205)
(-0.0475543 -2.09616 0.000414956)
(-0.052562 -1.75418 0.000458681)
(-0.0561081 -1.42937 0.000489652)
(-0.0579694 -1.12185 0.000505921)
(-0.0578314 -0.831845 0.00050475)
(-0.0554625 -0.559689 0.000484092)
(-0.0499242 -0.306109 0.000435855)
(-0.0432229 -0.0718918 0.000377437)
(-0.0311304 0.145465 0.000271887)
(-0.0261307 0.34612 0.000228227)
(-0.0218204 0.52531 0.000190555)
(-0.0195157 0.684178 0.000170384)
(-0.0177481 0.823186 0.000154955)
(-0.0162246 0.941854 0.000141653)
(-0.0147607 1.03957 0.000128875)
(-0.0132985 1.11561 0.000116111)
(-0.0118144 1.1691 0.000103156)
(-0.0103081 1.19908 9.00074e-05)
(-0.00879088 1.20441 7.67636e-05)
(-0.00728292 1.18377 6.36e-05)
(-0.00581099 1.13567 5.07504e-05)
(-0.00440788 1.05836 3.85009e-05)
(-0.00311417 0.949853 2.72057e-05)
(-0.00197431 0.807844 1.72527e-05)
(-0.001044 0.629653 9.12767e-06)
(-0.000369708 0.412043 3.23879e-06)
(-1.48523e-05 0.151129 1.84618e-07)
(-0.0111847 -43.8435 9.76082e-05)
(0.0554802 -42.8311 -0.000484293)
(-0.0463163 -40.6908 0.000403831)
(-0.107384 -38.8619 0.000936852)
(-0.0689704 -35.4059 0.000601847)
(0.0986001 -33.8383 -0.000860223)
(0.234839 -27.3999 -0.00203445)
(0.281986 -24.9083 -0.00244988)
(0.309787 -23.8591 -0.00269964)
(0.331622 -22.3759 -0.00289156)
(0.302923 -20.0028 -0.00263985)
(0.235061 -16.6739 -0.00203935)
(0.208745 -13.8862 -0.00181535)
(0.21278 -12.4025 -0.0018553)
(0.203092 -11.6007 -0.00177245)
(0.188494 -11.0138 -0.00164534)
(0.168557 -10.4689 -0.00147138)
(0.148919 -9.91382 -0.00129998)
(0.129836 -9.3408 -0.00113342)
(0.112265 -8.75688 -0.000980045)
(0.0958921 -8.17237 -0.000837138)
(0.0806438 -7.59589 -0.000704044)
(0.0662506 -7.03345 -0.000578414)
(0.0525736 -6.48857 -0.000459036)
(0.0394896 -5.96302 -0.000344833)
(0.0269458 -5.45741 -0.000235346)
(0.0149239 -4.97166 -0.000130413)
(0.00344453 -4.50538 -3.02157e-05)
(-0.00744619 -4.05808 6.48454e-05)
(-0.0176787 -3.62922 0.000154163)
(-0.0271643 -3.21839 0.000236964)
(-0.0357975 -2.82523 0.000312326)
(-0.043457 -2.4495 0.000379191)
(-0.0500053 -2.09108 0.000436359)
(-0.0552901 -1.74991 0.000482503)
(-0.0591378 -1.42605 0.000516106)
(-0.0613689 -1.11962 0.000535601)
(-0.0617461 -0.830861 0.000538922)
(-0.0601949 -0.560113 0.000525402)
(-0.0562198 -0.307871 0.000490798)
(-0.0516385 -0.0748158 0.000450866)
(-0.0452471 0.142948 0.00039507)
(-0.0404002 0.344389 0.000352749)
(-0.0355163 0.524228 0.000310108)
(-0.0322413 0.683542 0.000281485)
(-0.0294891 0.822715 0.000257461)
(-0.0270155 0.941427 0.000235865)
(-0.0246021 1.03914 0.000214798)
(-0.0221762 1.11515 0.000193623)
(-0.0197074 1.16861 0.000172073)
(-0.0171986 1.19857 0.000150173)
(-0.0146703 1.20388 0.000128104)
(-0.0121569 1.18324 0.000106163)
(-0.00970342 1.13515 8.47442e-05)
(-0.0073645 1.05787 6.43248e-05)
(-0.00520746 0.949411 4.54918e-05)
(-0.00330549 0.807466 2.88841e-05)
(-0.00175019 0.629359 1.53009e-05)
(-0.00061807 0.411852 5.41481e-06)
(-2.22348e-05 0.151058 2.90846e-07)
(-0.0137594 -43.8888 0.000120087)
(0.0648415 -42.8298 -0.000565986)
(-0.0599258 -40.4818 0.000522576)
(-0.0968529 -38.7947 0.000845035)
(-0.067832 -35.5511 0.00059195)
(0.123419 -34.1542 -0.00107682)
(0.251144 -27.599 -0.00217461)
(0.298362 -25.0507 -0.00259139)
(0.338891 -23.9711 -0.00295319)
(0.357849 -22.4363 -0.00312025)
(0.326224 -19.993 -0.00284314)
(0.246531 -16.6475 -0.00214371)
(0.220246 -13.9028 -0.00191616)
(0.223251 -12.4282 -0.00194684)
(0.217513 -11.6126 -0.0018983)
(0.203446 -11.0138 -0.00177584)
(0.182914 -10.4623 -0.00159669)
(0.161525 -9.9045 -0.00141001)
(0.140331 -9.33056 -0.00122503)
(0.120669 -8.74655 -0.00105341)
(0.102404 -8.1622 -0.000893987)
(0.0855302 -7.58591 -0.000746706)
(0.0697597 -7.02364 -0.000609054)
(0.0549228 -6.47892 -0.000479552)
(0.0408546 -5.95353 -0.00035676)
(0.0274689 -5.4481 -0.000239924)
(0.0147189 -4.96259 -0.000128637)
(0.00260384 -4.49662 -2.28901e-05)
(-0.00884735 -4.04968 7.70631e-05)
(-0.0195786 -3.62126 0.000170734)
(-0.0295127 -3.21095 0.000257451)
(-0.0385551 -2.8184 0.000336384)
(-0.0465958 -2.44336 0.000406578)
(-0.0535111 -2.08571 0.000466951)
(-0.0591677 -1.7454 0.00051634)
(-0.0634201 -1.42247 0.000553476)
(-0.0661345 -1.11705 0.000577191)
(-0.0671535 -0.829356 0.000586112)
(-0.0665177 -0.559674 0.000580585)
(-0.0640437 -0.308262 0.000559095)
(-0.0611912 -0.0754389 0.000534217)
(-0.0576712 0.141997 0.000503473)
(-0.0534699 0.343052 0.000466818)
(-0.0485842 0.523141 0.000424181)
(-0.0446719 0.68276 0.00039001)
(-0.0411066 0.822059 0.000358887)
(-0.0377574 0.940799 0.000329649)
(-0.0344289 1.03849 0.000300595)
(-0.0310552 1.11445 0.000271145)
(-0.027609 1.16787 0.000241064)
(-0.0241008 1.19779 0.000210441)
(-0.0205625 1.20308 0.000179555)
(-0.0170439 1.18244 0.000148839)
(-0.0136086 1.13437 0.00011885)
(-0.0103335 1.05714 9.02572e-05)
(-0.00731226 0.948748 6.38792e-05)
(-0.00464652 0.806902 4.06025e-05)
(-0.0024633 0.628923 2.15353e-05)
(-0.000869035 0.411572 7.61347e-06)
(-3.01436e-05 0.150956 3.97743e-07)
(-0.0178347 -43.95 0.000155661)
(0.0787277 -42.8532 -0.000687176)
(-0.0731481 -40.3174 0.00063796)
(-0.0495765 -38.7896 0.000432547)
(-0.0519056 -35.6967 0.000452968)
(0.163082 -34.4616 -0.00142298)
(0.276607 -27.776 -0.00239562)
(0.325126 -25.1828 -0.00282435)
(0.365552 -24.0753 -0.00318575)
(0.382937 -22.4791 -0.00333921)
(0.342461 -19.9527 -0.00298503)
(0.259725 -16.6047 -0.00225898)
(0.232185 -13.9154 -0.00202108)
(0.234008 -12.4491 -0.00204099)
(0.227871 -11.6225 -0.00198877)
(0.213762 -11.0128 -0.00186588)
(0.192977 -10.455 -0.00168453)
(0.17082 -9.8945 -0.00149115)
(0.1485 -9.31973 -0.00129635)
(0.127523 -8.73573 -0.00111325)
(0.107908 -8.15163 -0.000942047)
(0.0897405 -7.57562 -0.000783468)
(0.0727735 -7.01356 -0.000635372)
(0.0568528 -6.46901 -0.000496408)
(0.0418103 -5.94378 -0.00036511)
(0.0275508 -5.43852 -0.000240647)
(0.0140163 -4.95321 -0.000122511)
(0.00119482 -4.48751 -1.05984e-05)
(-0.0108949 -4.04091 9.49284e-05)
(-0.0222061 -3.61293 0.000193662)
(-0.0326704 -3.20313 0.000285006)
(-0.0422026 -2.81117 0.000368215)
(-0.0507034 -2.43682 0.000442424)
(-0.0580629 -2.07993 0.000506673)
(-0.0641666 -1.74046 0.000559965)
(-0.0688972 -1.41844 0.000601274)
(-0.0721622 -1.11398 0.000629792)
(-0.0738714 -0.827248 0.000644734)
(-0.0741327 -0.558462 0.000647036)
(-0.0729393 -0.307709 0.000636727)
(-0.0713768 -0.0750492 0.000623104)
(-0.0693576 0.14187 0.000605475)
(-0.0658138 0.342197 0.000574568)
(-0.0611449 0.522216 0.000533827)
(-0.0568221 0.681938 0.000496083)
(-0.0525893 0.821279 0.000459135)
(-0.0484394 0.94 0.000422909)
(-0.0442342 1.03763 0.000386203)
(-0.0399313 1.11352 0.000348643)
(-0.0355167 1.16688 0.000310109)
(-0.0310131 1.19675 0.000270798)
(-0.0264665 1.20202 0.000231109)
(-0.0219429 1.18138 0.000191621)
(-0.0175256 1.13333 0.000153059)
(-0.0133136 1.05616 0.000116287)
(-0.00942729 0.947862 8.23559e-05)
(-0.00599615 0.80615 5.23959e-05)
(-0.00318249 0.628342 2.78227e-05)
(-0.00112276 0.411197 9.83629e-06)
(-3.83571e-05 0.150821 5.07791e-07)
(-0.0227528 -44.0127 0.00019859)
(0.0903348 -42.8574 -0.000788483)
(-0.095755 -40.163 0.000835261)
(0.00262461 -38.8096 -2.29711e-05)
(-0.0573179 -35.8415 0.000500186)
(0.199931 -34.794 -0.00174462)
(0.282559 -27.9544 -0.00244671)
(0.331871 -25.3298 -0.00288282)
(0.374475 -24.1937 -0.0032635)
(0.392854 -22.5321 -0.00342573)
(0.351649 -19.9278 -0.00306531)
(0.273742 -16.5738 -0.00238201)
(0.246001 -13.9307 -0.00214223)
(0.245641 -12.473 -0.00214274)
(0.238582 -11.6347 -0.0020823)
(0.223372 -11.0134 -0.00194978)
(0.201846 -10.4484 -0.00176195)
(0.178645 -9.88436 -0.00155946)
(0.155194 -9.30818 -0.00135478)
(0.132989 -8.72388 -0.00116097)
(0.112163 -8.13992 -0.000979197)
(0.0928384 -7.56419 -0.000810518)
(0.0747957 -7.00241 -0.000653033)
(0.0578838 -6.45812 -0.000505418)
(0.0419309 -5.93313 -0.000366174)
(0.0268344 -5.42813 -0.000234405)
(0.0125282 -4.94311 -0.000109532)
(-0.0010067 -4.47775 8.60749e-06)
(-0.0137574 -4.03156 0.000119904)
(-0.0256824 -3.60404 0.000223996)
(-0.036719 -3.19479 0.000320335)
(-0.0467882 -2.80346 0.000408231)
(-0.0557988 -2.42981 0.000486889)
(-0.0636524 -2.07369 0.000555452)
(-0.0702509 -1.73506 0.000613062)
(-0.0755012 -1.41392 0.000658906)
(-0.0793429 -1.11037 0.000692457)
(-0.081735 -0.824522 0.000713357)
(-0.082813 -0.556524 0.000722785)
(-0.0826499 -0.306357 0.000721477)
(-0.0820008 -0.0739475 0.000715828)
(-0.080779 0.142352 0.00070517)
(-0.0777587 0.341811 0.000678834)
(-0.0733436 0.521514 0.000640312)
(-0.068741 0.681141 0.000600134)
(-0.0639472 0.820414 0.000558292)
(-0.0590614 0.939053 0.000515645)
(-0.0540159 1.03659 0.000471605)
(-0.0488028 1.11238 0.000426101)
(-0.0434294 1.16565 0.000379197)
(-0.0379348 1.19546 0.000331236)
(-0.0323814 1.20069 0.00028276)
(-0.0268533 1.18004 0.000234502)
(-0.0214537 1.13203 0.000187364)
(-0.0163042 1.05493 0.000142408)
(-0.0115516 0.946755 0.000100914)
(-0.00735346 0.805207 6.42563e-05)
(-0.0039071 0.627612 3.41575e-05)
(-0.00137914 0.410726 1.20824e-05)
(-4.68486e-05 0.150652 6.21169e-07)
(-0.02673 -44.0828 0.000233306)
(0.1005 -42.8599 -0.000877202)
(-0.112436 -40.0596 0.00098088)
(0.0796876 -38.8651 -0.000695517)
(-0.0612803 -35.9787 0.000534728)
(0.24859 -35.1334 -0.00216932)
(0.294212 -28.114 -0.00254784)
(0.345062 -25.4683 -0.00299789)
(0.384496 -24.3073 -0.00335097)
(0.401864 -22.5793 -0.00350441)
(0.357392 -19.8981 -0.00311555)
(0.283067 -16.5427 -0.00246392)
(0.256408 -13.9441 -0.0022336)
(0.254398 -12.4941 -0.00221937)
(0.246016 -11.6451 -0.00214723)
(0.229746 -11.0129 -0.00200542)
(0.207604 -10.441 -0.00181221)
(0.183696 -9.87356 -0.00160355)
(0.159508 -9.29599 -0.00139245)
(0.136455 -8.71137 -0.00119124)
(0.114747 -8.12753 -0.00100176)
(0.094522 -7.55207 -0.000825223)
(0.0755962 -6.99057 -0.00066003)
(0.0578299 -6.44654 -0.000504957)
(0.0410595 -5.92181 -0.000358577)
(0.0251839 -5.41708 -0.000220008)
(0.0101372 -4.93237 -8.86725e-05)
(-0.00410015 -4.46737 3.55991e-05)
(-0.0175163 -4.0216 0.000152704)
(-0.0300711 -3.59458 0.000262293)
(-0.0417036 -3.18591 0.000363833)
(-0.0523378 -2.79522 0.000456661)
(-0.0618882 -2.42228 0.000540031)
(-0.0702648 -2.06695 0.000613159)
(-0.0773824 -1.72915 0.000675298)
(-0.083166 -1.40888 0.000725797)
(-0.0875779 -1.1062 0.000764324)
(-0.0906077 -0.821187 0.000790788)
(-0.0923909 -0.553922 0.000806372)
(-0.0930225 -0.304333 0.000812012)
(-0.0929965 -0.0722901 0.000811803)
(-0.0921927 0.14331 0.0008048)
(-0.0895313 0.341839 0.000781597)
(-0.085316 0.521043 0.000744821)
(-0.080491 0.680402 0.000702709)
(-0.0752038 0.819493 0.000656563)
(-0.0696313 0.937977 0.000607925)
(-0.0637764 1.03536 0.000556821)
(-0.0576704 1.11102 0.000503524)
(-0.051347 1.16418 0.000448328)
(-0.0448656 1.19391 0.000391753)
(-0.038307 1.19909 0.000334503)
(-0.0317745 1.17844 0.000277477)
(-0.0253921 1.13047 0.00022176)
(-0.0193043 1.05346 0.000168612)
(-0.0136844 0.945425 0.000119545)
(-0.00871765 0.804075 7.61768e-05)
(-0.00463654 0.626734 4.05344e-05)
(-0.001638 0.410158 1.43502e-05)
(-5.56723e-05 0.150448 7.38018e-07)
(-0.0265521 -44.1568 0.000231756)
(0.101438 -42.8477 -0.000885397)
(-0.117637 -40.0313 0.00102637)
(0.172859 -38.9457 -0.00150871)
(-0.0682453 -36.1054 0.000595441)
(0.301531 -35.4846 -0.00263139)
(0.301095 -28.2598 -0.00260732)
(0.353856 -25.6091 -0.00307467)
(0.390824 -24.4238 -0.00340623)
(0.407259 -22.6286 -0.00355156)
(0.360641 -19.8745 -0.00314402)
(0.290736 -16.5196 -0.00253136)
(0.265226 -13.9601 -0.00231108)
(0.261619 -12.5157 -0.00228257)
(0.251768 -11.6555 -0.00219747)
(0.23428 -11.0124 -0.002045)
(0.211403 -10.4337 -0.00184538)
(0.18677 -9.86252 -0.00163039)
(0.161912 -9.28335 -0.00141343)
(0.138135 -8.69825 -0.0012059)
(0.115695 -8.11445 -0.00101004)
(0.0947228 -7.53922 -0.000826984)
(0.0750556 -6.97799 -0.00065532)
(0.0565549 -6.43423 -0.000493837)
(0.0390626 -5.90976 -0.000341157)
(0.0224789 -5.40532 -0.000196406)
(0.00674023 -4.92093 -5.90319e-05)
(-0.0081705 -4.45631 7.1117e-05)
(-0.0222387 -4.01099 0.000193913)
(-0.0354217 -3.58449 0.000308985)
(-0.0476567 -3.17641 0.000415785)
(-0.0588677 -2.78639 0.000513647)
(-0.0689709 -2.41419 0.000601843)
(-0.0778816 -2.05965 0.000679632)
(-0.0855226 -1.72269 0.00074634)
(-0.0918316 -1.40329 0.000801423)
(-0.0967834 -1.10147 0.000844662)
(-0.100383 -0.817269 0.000876103)
(-0.102751 -0.550727 0.000896786)
(-0.103972 -0.301748 0.000907587)
(-0.104351 -0.0701952 0.000910913)
(-0.103743 0.14464 0.000905622)
(-0.101284 0.342217 0.000884192)
(-0.0971765 0.52079 0.000848355)
(-0.0921365 0.679734 0.000804372)
(-0.0863896 0.818534 0.000754216)
(-0.0801629 0.936783 0.00069987)
(-0.0735218 1.03397 0.000641905)
(-0.0665367 1.10946 0.000580935)
(-0.0592707 1.16248 0.000517513)
(-0.0518059 1.1921 0.000452353)
(-0.0442432 1.19723 0.000386338)
(-0.0367062 1.17657 0.000320545)
(-0.0293404 1.12865 0.000256242)
(-0.0223133 1.05174 0.000194894)
(-0.0158248 0.943873 0.000138244)
(-0.010088 0.802752 8.8151e-05)
(-0.00537026 0.625707 4.69488e-05)
(-0.00189907 0.409493 1.66373e-05)
(-6.48048e-05 0.150208 8.58025e-07)
(-0.0192992 -44.2354 0.000168456)
(0.0893397 -42.8297 -0.000779809)
(-0.0980313 -40.1201 0.00085541)
(0.276973 -39.0412 -0.00241745)
(-0.0700953 -36.218 0.000611491)
(0.359644 -35.8427 -0.00313858)
(0.314402 -28.3855 -0.00272287)
(0.36718 -25.7439 -0.00319111)
(0.39976 -24.536 -0.0034843)
(0.41345 -22.6736 -0.0036057)
(0.363125 -19.8496 -0.00316587)
(0.296169 -16.4987 -0.00257924)
(0.271219 -13.9752 -0.00236389)
(0.265972 -12.5353 -0.00232074)
(0.254546 -11.6643 -0.00222176)
(0.235985 -11.0108 -0.0020599)
(0.212513 -10.4255 -0.00185507)
(0.187384 -9.85088 -0.00163576)
(0.162094 -9.27016 -0.00141503)
(0.137835 -8.68456 -0.0012033)
(0.114884 -8.10077 -0.00100297)
(0.0933565 -7.52573 -0.000815067)
(0.0731064 -6.96475 -0.000638314)
(0.0539984 -6.42124 -0.000471532)
(0.0358828 -5.89703 -0.000313411)
(0.0186646 -5.39287 -0.000163123)
(0.00228646 -4.90881 -2.01669e-05)
(-0.0132627 -4.44457 0.000115554)
(-0.0279619 -3.99971 0.000243858)
(-0.0417624 -3.57375 0.000364319)
(-0.0545962 -3.16628 0.000476346)
(-0.0663839 -2.77695 0.000579241)
(-0.0770403 -2.40551 0.000672265)
(-0.0864818 -2.05178 0.000754688)
(-0.0946354 -1.71567 0.00082587)
(-0.101445 -1.39714 0.000885325)
(-0.106891 -1.09618 0.000932876)
(-0.110983 -0.812799 0.000968607)
(-0.113815 -0.547002 0.000993352)
(-0.115454 -0.298691 0.00100781)
(-0.116071 -0.0677429 0.00101322)
(-0.115513 0.146272 0.00100837)
(-0.113121 0.342883 0.00098752)
(-0.109017 0.520728 0.000951716)
(-0.103737 0.679138 0.000905644)
(-0.097538 0.817543 0.000851543)
(-0.0906738 0.93548 0.000791635)
(-0.0832607 1.03241 0.000726933)
(-0.075406 1.10769 0.000658373)
(-0.0672026 1.16054 0.000586769)
(-0.0587565 1.19005 0.000513044)
(-0.0501903 1.1951 0.000438269)
(-0.0416484 1.17444 0.000363703)
(-0.0332982 1.12657 0.000290807)
(-0.0253306 1.04978 0.000221249)
(-0.0179723 0.942097 0.000157004)
(-0.0114638 0.801239 0.000100173)
(-0.00610773 0.624531 5.3396e-05)
(-0.00216206 0.40873 1.89413e-05)
(-7.42111e-05 0.149933 9.80806e-07)
(-0.00208031 -44.3178 1.81744e-05)
(0.0588899 -42.8112 -0.000514061)
(-0.04644 -40.359 0.000405319)
(0.375391 -39.1315 -0.00327653)
(-0.0671968 -36.3197 0.000586083)
(0.416098 -36.2105 -0.00363125)
(0.330741 -28.4937 -0.00286492)
(0.38057 -25.8757 -0.00330816)
(0.408806 -24.6461 -0.00356336)
(0.418883 -22.7158 -0.00365323)
(0.364484 -19.8256 -0.00317792)
(0.299741 -16.4814 -0.00261088)
(0.274959 -13.9907 -0.002397)
(0.268037 -12.5537 -0.00233892)
(0.254979 -11.672 -0.00222558)
(0.235405 -11.0086 -0.00205485)
(0.211385 -10.417 -0.00184523)
(0.185874 -9.83887 -0.00162259)
(0.160285 -9.25655 -0.00139924)
(0.135701 -8.6704 -0.00118467)
(0.112393 -8.08655 -0.000981231)
(0.0904567 -7.51165 -0.000789762)
(0.0697539 -6.95088 -0.00060906)
(0.0501491 -6.40759 -0.000437941)
(0.0314997 -5.88361 -0.000275162)
(0.0137164 -5.37971 -0.000119942)
(-0.00324958 -4.89597 2.81446e-05)
(-0.0194006 -4.43212 0.000169119)
(-0.0347061 -3.98772 0.000302714)
(-0.049108 -3.56231 0.000428424)
(-0.06253 -3.15547 0.000545585)
(-0.0748858 -2.76686 0.000653439)
(-0.0860859 -2.39619 0.000751209)
(-0.0960443 -2.0433 0.000838143)
(-0.104688 -1.70807 0.000913602)
(-0.111962 -1.39042 0.000977113)
(-0.117847 -1.09035 0.00102849)
(-0.122347 -0.807814 0.00106779)
(-0.125533 -0.542803 0.00109562)
(-0.127446 -0.295229 0.00111249)
(-0.128169 -0.0649896 0.00111882)
(-0.127556 0.148154 0.0011135)
(-0.125113 0.343785 0.0010922)
(-0.120909 0.520826 0.00105553)
(-0.115346 0.678605 0.00100699)
(-0.108682 0.816523 0.000948833)
(-0.101183 0.934073 0.000883384)
(-0.0930037 1.03068 0.000811996)
(-0.0842839 1.10571 0.000735886)
(-0.0751457 1.15837 0.000656122)
(-0.065719 1.18773 0.000573838)
(-0.0561488 1.19272 0.000490299)
(-0.0466009 1.17204 0.000406952)
(-0.0372652 1.12423 0.000325452)
(-0.0283558 1.04757 0.000247672)
(-0.0201263 0.940099 0.00017582)
(-0.0128446 0.799534 0.000112239)
(-0.0068485 0.623205 5.98719e-05)
(-0.00242673 0.407869 2.12599e-05)
(-8.38461e-05 0.149622 1.1059e-06)
(0.0265882 -44.4034 -0.000232037)
(0.00825573 -42.8039 -7.21507e-05)
(0.0407412 -40.77 -0.000355381)
(0.449751 -39.1888 -0.00392569)
(-0.0584807 -36.4174 0.0005099)
(0.465111 -36.5892 -0.00405896)
(0.353022 -28.5843 -0.00305883)
(0.395727 -26.0008 -0.00344072)
(0.418859 -24.7509 -0.00365125)
(0.423772 -22.752 -0.00369605)
(0.364522 -19.799 -0.00317844)
(0.300847 -16.4648 -0.00262103)
(0.275803 -14.0048 -0.0024048)
(0.267157 -12.5698 -0.00233137)
(0.252556 -11.6779 -0.00220446)
(0.232155 -11.0053 -0.00202649)
(0.20777 -10.4078 -0.00181369)
(0.182095 -9.82634 -0.00158961)
(0.156418 -9.24248 -0.00136549)
(0.131712 -8.65576 -0.00114986)
(0.10823 -8.07182 -0.0009449)
(0.0860428 -7.49702 -0.000751242)
(0.0650181 -6.9364 -0.00056773)
(0.0450221 -6.39329 -0.000393197)
(0.0259216 -5.86951 -0.000226481)
(0.00763629 -5.36585 -6.68807e-05)
(-0.00987084 -4.88241 8.59285e-05)
(-0.0265899 -4.41894 0.00023186)
(-0.0424774 -3.97501 0.000370535)
(-0.0574629 -3.55016 0.000501339)
(-0.0714586 -3.14397 0.000623507)
(-0.0843686 -2.75609 0.000736199)
(-0.0960958 -2.38623 0.000838569)
(-0.106549 -2.0342 0.000929822)
(-0.115652 -1.69987 0.00100929)
(-0.123347 -1.38315 0.00107647)
(-0.129608 -1.08399 0.00113114)
(-0.134435 -0.802345 0.00117329)
(-0.137871 -0.538176 0.00120331)
(-0.139937 -0.291413 0.00122152)
(-0.140659 -0.0619777 0.00122785)
(-0.139905 0.150243 0.00122129)
(-0.137309 0.344877 0.00119867)
(-0.13291 0.521053 0.00116029)
(-0.127008 0.678118 0.0011088)
(-0.119853 0.815467 0.00104636)
(-0.11171 0.93256 0.000975288)
(-0.102762 1.0288 0.000897194)
(-0.0931769 1.10353 0.00081353)
(-0.0831033 1.15596 0.000725602)
(-0.0726951 1.18517 0.00063475)
(-0.0621193 1.19006 0.000542435)
(-0.051564 1.16937 0.000450293)
(-0.041241 1.12162 0.000360175)
(-0.0313884 1.04511 0.000274159)
(-0.0222861 0.937877 0.000194688)
(-0.0142298 0.797637 0.000124342)
(-0.00759214 0.621729 6.63729e-05)
(-0.00269282 0.406909 2.35909e-05)
(-9.36674e-05 0.149276 1.23291e-06)
(0.066051 -44.4914 -0.000576459)
(-0.0611726 -42.8187 0.000533785)
(0.158911 -41.352 -0.00138657)
(0.478399 -39.1809 -0.00417593)
(-0.0454881 -36.5251 0.000396413)
(0.497991 -36.9828 -0.00434586)
(0.377894 -28.6622 -0.00327534)
(0.409501 -26.1193 -0.00356127)
(0.427549 -24.85 -0.00372728)
(0.426183 -22.782 -0.00371724)
(0.36207 -19.77 -0.00315726)
(0.298937 -16.449 -0.00260486)
(0.273596 -14.0177 -0.00238594)
(0.26336 -12.584 -0.00229835)
(0.247461 -11.6823 -0.00216002)
(0.22646 -11.0011 -0.00197679)
(0.201905 -10.398 -0.0017625)
(0.17626 -9.81342 -0.00153868)
(0.150673 -9.22806 -0.00131536)
(0.126017 -8.64074 -0.00110015)
(0.102511 -8.05664 -0.000894985)
(0.0802037 -7.48188 -0.00070028)
(0.0589656 -6.92135 -0.000514907)
(0.0386656 -6.37836 -0.000337722)
(0.0191818 -5.85473 -0.000167661)
(0.000445763 -5.35127 -4.1272e-06)
(-0.0175646 -4.86811 0.000153074)
(-0.0348239 -4.405 0.00030372)
(-0.0512726 -3.96154 0.000447292)
(-0.0668247 -3.53726 0.000583042)
(-0.0813783 -3.13175 0.00071008)
(-0.0948253 -2.74463 0.000827458)
(-0.107058 -2.37561 0.000934244)
(-0.117978 -2.02448 0.00102957)
(-0.127503 -1.69109 0.00111272)
(-0.135569 -1.37533 0.00118314)
(-0.142143 -1.07713 0.00124055)
(-0.147216 -0.796426 0.00128484)
(-0.150808 -0.533164 0.00131622)
(-0.152922 -0.287288 0.00133488)
(-0.153553 -0.0587415 0.00134041)
(-0.152582 0.152505 0.00133197)
(-0.149744 0.346117 0.00130722)
(-0.14506 0.521378 0.00126636)
(-0.138761 0.67766 0.0012114)
(-0.131079 0.814368 0.00114436)
(-0.122273 0.930937 0.00106751)
(-0.112548 1.02676 0.000982628)
(-0.102092 1.10115 0.000891366)
(-0.0910793 1.15332 0.000795243)
(-0.0796866 1.18235 0.000695798)
(-0.0681029 1.18715 0.000594684)
(-0.0565378 1.16644 0.000493727)
(-0.0452256 1.11876 0.000394974)
(-0.034428 1.04241 0.000300708)
(-0.0244513 0.93543 0.000213603)
(-0.0156188 0.795548 0.00013648)
(-0.00833829 0.620102 7.28959e-05)
(-0.00296011 0.405851 2.59325e-05)
(-0.000103639 0.148893 1.36146e-06)
(0.11342 -44.5808 -0.000989886)
(-0.143633 -42.8644 0.00125346)
(0.295427 -42.0719 -0.00257793)
(0.441583 -39.0756 -0.00385486)
(-0.0297027 -36.6617 0.000258601)
(0.506156 -37.3939 -0.00441705)
(0.403231 -28.7338 -0.00349579)
(0.420559 -26.23 -0.00365821)
(0.433541 -24.9413 -0.00377981)
(0.424807 -22.8039 -0.00370539)
(0.356088 -19.7371 -0.00310528)
(0.293252 -16.4325 -0.00255576)
(0.267802 -14.0288 -0.00233573)
(0.256275 -12.596 -0.00223661)
(0.239504 -11.685 -0.00209059)
(0.218241 -10.9959 -0.00190506)
(0.193806 -10.3876 -0.00169181)
(0.168437 -9.80012 -0.0014704)
(0.143153 -9.21329 -0.00124972)
(0.118726 -8.62535 -0.00103652)
(0.0953451 -8.04105 -0.000832444)
(0.073038 -7.46623 -0.00063774)
(0.0516797 -6.90573 -0.000451318)
(0.031146 -6.36278 -0.000272094)
(0.0113303 -5.83925 -9.91379e-05)
(-0.00781958 -5.33595 6.80077e-05)
(-0.0263071 -4.85304 0.000229373)
(-0.0440877 -4.39029 0.000384568)
(-0.0610825 -3.94729 0.000532907)
(-0.0771873 -3.52359 0.000673481)
(-0.0922835 -3.11877 0.000805255)
(-0.106248 -2.73245 0.000927154)
(-0.118963 -2.36431 0.00103814)
(-0.130318 -2.01412 0.00113726)
(-0.140222 -1.68172 0.00122373)
(-0.148607 -1.36697 0.00129693)
(-0.15543 -1.06979 0.00135651)
(-0.160669 -0.790084 0.00140226)
(-0.164331 -0.527799 0.00143425)
(-0.166402 -0.282888 0.00145255)
(-0.16686 -0.0553104 0.00145658)
(-0.165605 0.154911 0.00144565)
(-0.162444 0.347473 0.00141809)
(-0.157393 0.52177 0.00137402)
(-0.150634 0.67721 0.00131505)
(-0.142383 0.813213 0.00124304)
(-0.132889 0.9292 0.00116019)
(-0.122371 1.02454 0.00106839)
(-0.111035 1.09856 0.000969452)
(-0.0990777 1.15044 0.000865079)
(-0.0866958 1.17928 0.000757)
(-0.0741004 1.18396 0.000647055)
(-0.0615225 1.16324 0.000537257)
(-0.0492188 1.11563 0.000429848)
(-0.0374741 1.03946 0.000327314)
(-0.0266215 0.93276 0.000232561)
(-0.0170114 0.793267 0.000148649)
(-0.00908661 0.618324 7.94378e-05)
(-0.00322841 0.404693 2.8283e-05)
(-0.000113731 0.148473 1.49124e-06)
(0.163148 -44.6703 -0.0014239)
(-0.229241 -42.9441 0.0020006)
(0.431603 -42.8624 -0.00376641)
(0.328548 -38.8491 -0.00286858)
(-0.0123679 -36.8493 0.000107353)
(0.481781 -37.8237 -0.00420424)
(0.42466 -28.8087 -0.00368219)
(0.425875 -26.3334 -0.0037051)
(0.434476 -25.0238 -0.00378822)
(0.417811 -22.8171 -0.00364451)
(0.345385 -19.7006 -0.00301211)
(0.283173 -16.4154 -0.00246827)
(0.258171 -14.0382 -0.00225199)
(0.245885 -12.606 -0.00214601)
(0.228833 -11.6864 -0.00199746)
(0.207722 -10.9899 -0.00181326)
(0.183736 -10.3768 -0.00160392)
(0.158887 -9.78655 -0.00138705)
(0.134097 -9.19828 -0.00117068)
(0.11005 -8.60966 -0.000960796)
(0.0869112 -8.02506 -0.000758831)
(0.0646915 -7.45011 -0.000564892)
(0.043276 -6.88953 -0.000377972)
(0.0225522 -6.34656 -0.000197091)
(0.00243306 -5.82305 -2.14864e-05)
(-0.0171131 -5.31987 0.000149117)
(-0.036067 -4.83717 0.000314552)
(-0.0543613 -4.37475 0.000474231)
(-0.071895 -3.93223 0.000627272)
(-0.0885432 -3.50913 0.000772589)
(-0.104168 -3.10503 0.000908981)
(-0.118632 -2.71953 0.00103523)
(-0.131801 -2.35232 0.00115019)
(-0.143556 -2.00313 0.0012528)
(-0.153796 -1.67177 0.0013422)
(-0.162444 -1.35809 0.00141771)
(-0.16945 -1.06198 0.00147887)
(-0.174782 -0.783348 0.00152544)
(-0.178432 -0.522115 0.00155732)
(-0.180378 -0.278245 0.00157455)
(-0.180589 -0.0517103 0.00157643)
(-0.178984 0.157434 0.00156245)
(-0.175427 0.348911 0.00153142)
(-0.169932 0.522203 0.00148348)
(-0.162652 0.676748 0.00141996)
(-0.153785 0.811989 0.00134259)
(-0.143574 0.927339 0.00125348)
(-0.132243 1.02216 0.00115458)
(-0.120014 1.09576 0.00104785)
(-0.107102 1.14733 0.000935143)
(-0.0937246 1.17595 0.000818374)
(-0.0801127 1.18051 0.000699555)
(-0.0665184 1.15976 0.000580885)
(-0.0532204 1.11224 0.000464795)
(-0.0405266 1.03626 0.000353975)
(-0.0287962 0.929864 0.000251559)
(-0.0184071 0.790793 0.000160845)
(-0.00983681 0.616395 8.59962e-05)
(-0.00349757 0.403435 3.0641e-05)
(-0.000123919 0.148017 1.62204e-06)
(0.208526 -44.7587 -0.00181995)
(-0.305679 -43.0555 0.00266771)
(0.545589 -43.6293 -0.0047613)
(0.144647 -38.4939 -0.00126378)
(0.00507651 -37.1046 -4.47424e-05)
(0.421064 -38.2703 -0.00367425)
(0.438655 -28.8978 -0.00380432)
(0.423315 -26.4305 -0.00368332)
(0.428592 -25.0963 -0.00373714)
(0.403902 -22.821 -0.00352332)
(0.329113 -19.6605 -0.00287032)
(0.26825 -16.3978 -0.0023385)
(0.244514 -14.0463 -0.00213305)
(0.232187 -12.6145 -0.00202651)
(0.215573 -11.6869 -0.00188174)
(0.195105 -10.9835 -0.00170313)
(0.171939 -10.3658 -0.00150096)
(0.147866 -9.77281 -0.00129085)
(0.123756 -9.18308 -0.00108042)
(0.100217 -8.5937 -0.000874963)
(0.0774053 -8.00869 -0.000675862)
(0.0553278 -7.43348 -0.000483165)
(0.0338858 -6.87273 -0.000296016)
(0.0129853 -6.32964 -0.000113593)
(-0.00743538 -5.80609 6.46416e-05)
(-0.0273824 -5.30297 0.000238742)
(-0.0468094 -4.82045 0.000408306)
(-0.0656232 -4.35837 0.000572518)
(-0.0836978 -3.91632 0.000730281)
(-0.100886 -3.49384 0.000880309)
(-0.117029 -3.0905 0.00102123)
(-0.131973 -2.70587 0.00115167)
(-0.145569 -2.33963 0.00127035)
(-0.157686 -1.99149 0.00137613)
(-0.168215 -1.66124 0.00146805)
(-0.177071 -1.3487 0.00154536)
(-0.184193 -1.05373 0.00160755)
(-0.189544 -0.776242 0.00165428)
(-0.193105 -0.516137 0.0016854)
(-0.19485 -0.273385 0.00170088)
(-0.194745 -0.0479652 0.0017)
(-0.192727 0.16005 0.00168242)
(-0.188704 0.350406 0.00164733)