/*--------------------------------*- C++ -*----------------------------------*\
| =========                 |                                                 |
| \\      /  F ield         | OpenFOAM: The Open Source CFD Toolbox           |
|  \\    /   O peration     | Version:  v2012                                 |
|   \\  /    A nd           | Website:  www.openfoam.com                      |
|    \\/     M anipulation  |                                                 |
\*---------------------------------------------------------------------------*/
FoamFile
{
    version     2.0;
    format      ascii;
    class       volScalarField;
    location    "0.5";
    object      p_rgh;
}
// * * * * * * * * * * * * * * * * * * * * * * * * * * * * * * * * * * * * * //

dimensions      [1 -1 -2 0 0 0 0];


internalField   nonuniform List<scalar> 
3332
(
3.48942e+06
3.48889e+06
3.48856e+06
3.48838e+06
3.48831e+06
3.48831e+06
3.48838e+06
3.4885e+06
3.48864e+06
3.48881e+06
3.48899e+06
3.48919e+06
3.48938e+06
3.48958e+06
3.48978e+06
3.48998e+06
3.49017e+06
3.49035e+06
3.49053e+06
3.4907e+06
3.48863e+06
3.48796e+06
3.48762e+06
3.48741e+06
3.48733e+06
3.48735e+06
3.48743e+06
3.48757e+06
3.48774e+06
3.48794e+06
3.48815e+06
3.48837e+06
3.4886e+06
3.48883e+06
3.48906e+06
3.48929e+06
3.48951e+06
3.48972e+06
3.48993e+06
3.49012e+06
3.49031e+06
3.49049e+06
3.48151e+06
3.49725e+06
3.48296e+06
3.49573e+06
3.48482e+06
3.49196e+06
3.48353e+06
3.48307e+06
3.4563e+06
3.47831e+06
3.48698e+06
3.48879e+06
3.48642e+06
3.48669e+06
3.48593e+06
3.48591e+06
3.48575e+06
3.48582e+06
3.48592e+06
3.4861e+06
3.48631e+06
3.48656e+06
3.48682e+06
3.4871e+06
3.48738e+06
3.48766e+06
3.48794e+06
3.48822e+06
3.48849e+06
3.48875e+06
3.489e+06
3.48924e+06
3.48947e+06
3.48969e+06
3.4899e+06
3.4901e+06
3.49029e+06
3.47023e+06
3.48634e+06
3.4718e+06
3.4849e+06
3.47369e+06
3.47773e+06
3.46851e+06
3.46557e+06
3.43865e+06
3.46531e+06
3.47576e+06
3.48426e+06
3.47888e+06
3.48232e+06
3.48137e+06
3.48265e+06
3.48268e+06
3.48329e+06
3.48362e+06
3.48407e+06
3.48447e+06
3.4849e+06
3.4853e+06
3.48571e+06
3.4861e+06
3.48647e+06
3.48684e+06
3.48719e+06
3.48752e+06
3.48784e+06
3.48815e+06
3.48844e+06
3.48871e+06
3.48897e+06
3.48922e+06
3.48946e+06
3.48968e+06
3.48989e+06
3.49009e+06
3.45989e+06
3.47283e+06
3.46104e+06
3.47187e+06
3.4621e+06
3.46258e+06
3.45363e+06
3.44793e+06
3.42258e+06
3.45276e+06
3.46434e+06
3.47399e+06
3.47164e+06
3.47635e+06
3.47676e+06
3.47888e+06
3.47967e+06
3.48082e+06
3.4816e+06
3.48241e+06
3.48309e+06
3.48375e+06
3.48434e+06
3.48489e+06
3.4854e+06
3.48587e+06
3.48631e+06
3.48673e+06
3.48711e+06
3.48748e+06
3.48782e+06
3.48814e+06
3.48844e+06
3.48872e+06
3.48898e+06
3.48923e+06
3.48947e+06
3.48969e+06
3.48989e+06
3.49008e+06
3.44993e+06
3.45729e+06
3.45029e+06
3.45702e+06
3.44993e+06
3.44708e+06
3.43917e+06
3.43087e+06
3.40835e+06
3.44107e+06
3.45431e+06
3.46484e+06
3.46532e+06
3.471e+06
3.47266e+06
3.47548e+06
3.47694e+06
3.47857e+06
3.47975e+06
3.48087e+06
3.48181e+06
3.48267e+06
3.48343e+06
3.48411e+06
3.48473e+06
3.4853e+06
3.48581e+06
3.48629e+06
3.48672e+06
3.48713e+06
3.4875e+06
3.48785e+06
3.48817e+06
3.48847e+06
3.48875e+06
3.48901e+06
3.48926e+06
3.48949e+06
3.4897e+06
3.4899e+06
3.44052e+06
3.44124e+06
3.43996e+06
3.44176e+06
3.43792e+06
3.43236e+06
3.42588e+06
3.41549e+06
3.39643e+06
3.43068e+06
3.44583e+06
3.45702e+06
3.45997e+06
3.46637e+06
3.46913e+06
3.4725e+06
3.47454e+06
3.47656e+06
3.47809e+06
3.47948e+06
3.48065e+06
3.48168e+06
3.48259e+06
3.4834e+06
3.48412e+06
3.48476e+06
3.48534e+06
3.48587e+06
3.48635e+06
3.48679e+06
3.4872e+06
3.48757e+06
3.48791e+06
3.48823e+06
3.48853e+06
3.4888e+06
3.48906e+06
3.48929e+06
3.48951e+06
3.48972e+06
3.48991e+06
3.43206e+06
3.42656e+06
3.43071e+06
3.42781e+06
3.42704e+06
3.41958e+06
3.41461e+06
3.40277e+06
3.3872e+06
3.42199e+06
3.43894e+06
3.45063e+06
3.45561e+06
3.46252e+06
3.46619e+06
3.46998e+06
3.47249e+06
3.47483e+06
3.47665e+06
3.47826e+06
3.47961e+06
3.4808e+06
3.48183e+06
3.48275e+06
3.48355e+06
3.48427e+06
3.48491e+06
3.48548e+06
3.48601e+06
3.48648e+06
3.48691e+06
3.48731e+06
3.48767e+06
3.488e+06
3.48831e+06
3.4886e+06
3.48886e+06
3.48911e+06
3.48933e+06
3.48954e+06
3.48974e+06
3.42465e+06
3.4145e+06
3.42307e+06
3.41653e+06
3.41817e+06
3.40965e+06
3.40608e+06
3.39343e+06
3.38082e+06
3.41521e+06
3.43365e+06
3.44569e+06
3.45222e+06
3.45947e+06
3.46383e+06
3.46792e+06
3.47081e+06
3.47339e+06
3.47543e+06
3.47721e+06
3.47872e+06
3.48003e+06
3.48117e+06
3.48217e+06
3.48304e+06
3.48382e+06
3.48451e+06
3.48513e+06
3.48568e+06
3.48619e+06
3.48664e+06
3.48706e+06
3.48744e+06
3.48778e+06
3.4881e+06
3.4884e+06
3.48867e+06
3.48892e+06
3.48916e+06
3.48937e+06
3.48957e+06
3.41943e+06
3.40636e+06
3.41752e+06
3.40861e+06
3.4119e+06
3.40302e+06
3.40069e+06
3.38765e+06
3.377e+06
3.41043e+06
3.42991e+06
3.44213e+06
3.44976e+06
3.45717e+06
3.46205e+06
3.46633e+06
3.46949e+06
3.47223e+06
3.47444e+06
3.47635e+06
3.47797e+06
3.47938e+06
3.4806e+06
3.48166e+06
3.4826e+06
3.48342e+06
3.48416e+06
3.48481e+06
3.48539e+06
3.48592e+06
3.48639e+06
3.48682e+06
3.48722e+06
3.48758e+06
3.48791e+06
3.48821e+06
3.48849e+06
3.48875e+06
3.48899e+06
3.48921e+06
3.48941e+06
3.41619e+06
3.40187e+06
3.41411e+06
3.40412e+06
3.40837e+06
3.39966e+06
3.39842e+06
3.38524e+06
3.37546e+06
3.40748e+06
3.42754e+06
3.43984e+06
3.44814e+06
3.4556e+06
3.46079e+06
3.46517e+06
3.46851e+06
3.47135e+06
3.47368e+06
3.47568e+06
3.47738e+06
3.47885e+06
3.48013e+06
3.48124e+06
3.48222e+06
3.48308e+06
3.48384e+06
3.48452e+06
3.48513e+06
3.48567e+06
3.48616e+06
3.48661e+06
3.48701e+06
3.48738e+06
3.48772e+06
3.48803e+06
3.48832e+06
3.48858e+06
3.48882e+06
3.48905e+06
3.48925e+06
3.41502e+06
3.40071e+06
3.41296e+06
3.4028e+06
3.40749e+06
3.39946e+06
3.39925e+06
3.3862e+06
3.37615e+06
3.40617e+06
3.42637e+06
3.43862e+06
3.44726e+06
3.45465e+06
3.46001e+06
3.46441e+06
3.46785e+06
3.47074e+06
3.47313e+06
3.47517e+06
3.47692e+06
3.47843e+06
3.47975e+06
3.48089e+06
3.4819e+06
3.48279e+06
3.48357e+06
3.48427e+06
3.48489e+06
3.48545e+06
3.48595e+06
3.48641e+06
3.48682e+06
3.4872e+06
3.48754e+06
3.48786e+06
3.48815e+06
3.48842e+06
3.48866e+06
3.48889e+06
3.4891e+06
3.4154e+06
3.40195e+06
3.41367e+06
3.40405e+06
3.4088e+06
3.40204e+06
3.4024e+06
3.38938e+06
3.37812e+06
3.40601e+06
3.42615e+06
3.43824e+06
3.447e+06
3.45425e+06
3.45965e+06
3.46401e+06
3.46748e+06
3.47037e+06
3.47278e+06
3.47484e+06
3.4766e+06
3.47813e+06
3.47946e+06
3.48063e+06
3.48165e+06
3.48255e+06
3.48335e+06
3.48406e+06
3.48469e+06
3.48526e+06
3.48577e+06
3.48623e+06
3.48665e+06
3.48703e+06
3.48738e+06
3.4877e+06
3.48799e+06
3.48826e+06
3.48851e+06
3.48874e+06
3.48895e+06
3.41742e+06
3.40513e+06
3.41579e+06
3.40706e+06
3.4117e+06
3.40658e+06
3.40685e+06
3.3938e+06
3.38071e+06
3.40636e+06
3.42652e+06
3.43845e+06
3.44721e+06
3.45427e+06
3.45964e+06
3.46392e+06
3.46737e+06
3.47022e+06
3.47261e+06
3.47466e+06
3.47642e+06
3.47794e+06
3.47927e+06
3.48044e+06
3.48146e+06
3.48236e+06
3.48317e+06
3.48388e+06
3.48452e+06
3.48509e+06
3.4856e+06
3.48606e+06
3.48649e+06
3.48687e+06
3.48722e+06
3.48754e+06
3.48784e+06
3.48811e+06
3.48836e+06
3.48859e+06
3.4888e+06
3.42046e+06
3.4095e+06
3.41887e+06
3.41124e+06
3.41568e+06
3.4122e+06
3.41229e+06
3.39962e+06
3.38443e+06
3.40733e+06
3.42752e+06
3.43917e+06
3.44784e+06
3.45467e+06
3.45994e+06
3.4641e+06
3.46748e+06
3.47026e+06
3.47261e+06
3.47462e+06
3.47635e+06
3.47785e+06
3.47916e+06
3.48032e+06
3.48133e+06
3.48223e+06
3.48303e+06
3.48374e+06
3.48437e+06
3.48494e+06
3.48545e+06
3.48592e+06
3.48634e+06
3.48672e+06
3.48708e+06
3.4874e+06
3.4877e+06
3.48797e+06
3.48822e+06
3.48845e+06
3.48866e+06
3.4241e+06
3.41462e+06
3.42259e+06
3.41623e+06
3.4203e+06
3.41854e+06
3.41821e+06
3.40629e+06
3.3888e+06
3.40882e+06
3.42896e+06
3.44026e+06
3.44878e+06
3.45535e+06
3.46048e+06
3.4645e+06
3.46778e+06
3.47048e+06
3.47276e+06
3.47471e+06
3.47639e+06
3.47786e+06
3.47914e+06
3.48027e+06
3.48126e+06
3.48215e+06
3.48293e+06
3.48363e+06
3.48426e+06
3.48482e+06
3.48533e+06
3.48579e+06
3.48621e+06
3.48659e+06
3.48694e+06
3.48726e+06
3.48756e+06
3.48783e+06
3.48808e+06
3.48832e+06
3.48853e+06
3.42566e+06
3.41908e+06
3.42629e+06
3.42178e+06
3.42522e+06
3.42515e+06
3.42428e+06
3.41335e+06
3.39352e+06
3.41079e+06
3.43069e+06
3.44163e+06
3.44996e+06
3.45627e+06
3.46124e+06
3.4651e+06
3.46826e+06
3.47085e+06
3.47304e+06
3.47491e+06
3.47654e+06
3.47795e+06
3.47919e+06
3.48028e+06
3.48125e+06
3.48211e+06
3.48287e+06
3.48356e+06
3.48417e+06
3.48473e+06
3.48523e+06
3.48568e+06
3.48609e+06
3.48647e+06
3.48682e+06
3.48714e+06
3.48743e+06
3.4877e+06
3.48795e+06
3.48819e+06
3.4884e+06
3.4299e+06
3.42576e+06
3.4304e+06
3.42798e+06
3.43024e+06
3.43172e+06
3.43015e+06
3.42043e+06
3.3985e+06
3.41301e+06
3.43263e+06
3.44321e+06
3.45134e+06
3.45738e+06
3.46217e+06
3.46586e+06
3.46888e+06
3.47135e+06
3.47344e+06
3.47522e+06
3.47677e+06
3.47812e+06
3.47931e+06
3.48036e+06
3.48129e+06
3.48211e+06
3.48285e+06
3.48352e+06
3.48411e+06
3.48465e+06
3.48514e+06
3.48559e+06
3.48599e+06
3.48636e+06
3.4867e+06
3.48702e+06
3.48731e+06
3.48758e+06
3.48783e+06
3.48806e+06
3.48827e+06
3.43408e+06
3.43294e+06
3.43462e+06
3.43495e+06
3.43549e+06
3.43813e+06
3.43576e+06
3.42741e+06
3.40349e+06
3.41521e+06
3.43471e+06
3.44492e+06
3.45288e+06
3.45866e+06
3.46326e+06
3.46676e+06
3.46964e+06
3.47197e+06
3.47395e+06
3.47563e+06
3.47709e+06
3.47837e+06
3.47949e+06
3.48049e+06
3.48137e+06
3.48216e+06
3.48287e+06
3.48351e+06
3.48408e+06
3.4846e+06
3.48508e+06
3.48551e+06
3.4859e+06
3.48627e+06
3.4866e+06
3.48691e+06
3.4872e+06
3.48746e+06
3.48771e+06
3.48794e+06
3.48815e+06
3.43967e+06
3.44189e+06
3.44019e+06
3.44307e+06
3.44139e+06
3.4444e+06
3.44129e+06
3.43426e+06
3.40893e+06
3.4177e+06
3.43704e+06
3.4468e+06
3.4546e+06
3.46009e+06
3.46449e+06
3.4678e+06
3.47051e+06
3.4727e+06
3.47455e+06
3.47612e+06
3.47749e+06
3.47868e+06
3.47974e+06
3.48067e+06
3.4815e+06
3.48225e+06
3.48292e+06
3.48353e+06
3.48407e+06
3.48457e+06
3.48503e+06
3.48544e+06
3.48583e+06
3.48618e+06
3.48651e+06
3.48681e+06
3.48709e+06
3.48735e+06
3.4876e+06
3.48782e+06
3.48803e+06
3.4464e+06
3.45174e+06
3.44749e+06
3.45239e+06
3.4485e+06
3.45083e+06
3.44748e+06
3.44144e+06
3.4154e+06
3.42104e+06
3.43987e+06
3.44899e+06
3.45658e+06
3.46172e+06
3.46589e+06
3.46897e+06
3.4715e+06
3.47353e+06
3.47524e+06
3.47669e+06
3.47796e+06
3.47906e+06
3.48003e+06
3.4809e+06
3.48168e+06
3.48238e+06
3.483e+06
3.48357e+06
3.48409e+06
3.48456e+06
3.485e+06
3.48539e+06
3.48576e+06
3.4861e+06
3.48642e+06
3.48672e+06
3.48699e+06
3.48725e+06
3.48749e+06
3.48771e+06
3.48792e+06
3.45599e+06
3.46297e+06
3.45718e+06
3.4628e+06
3.45744e+06
3.45813e+06
3.45552e+06
3.44987e+06
3.42351e+06
3.42525e+06
3.44328e+06
3.45154e+06
3.45884e+06
3.46353e+06
3.46745e+06
3.47027e+06
3.47261e+06
3.47445e+06
3.47602e+06
3.47734e+06
3.47849e+06
3.47949e+06
3.48039e+06
3.48118e+06
3.48189e+06
3.48253e+06
3.48312e+06
3.48364e+06
3.48413e+06
3.48457e+06
3.48498e+06
3.48536e+06
3.48571e+06
3.48604e+06
3.48634e+06
3.48663e+06
3.4869e+06
3.48715e+06
3.48738e+06
3.4876e+06
3.48781e+06
3.4683e+06
3.4749e+06
3.46932e+06
3.47411e+06
3.4685e+06
3.4674e+06
3.46629e+06
3.46053e+06
3.43385e+06
3.43048e+06
3.44747e+06
3.45449e+06
3.4614e+06
3.46554e+06
3.46917e+06
3.47169e+06
3.47381e+06
3.47547e+06
3.47687e+06
3.47805e+06
3.47908e+06
3.47998e+06
3.48078e+06
3.4815e+06
3.48214e+06
3.48272e+06
3.48325e+06
3.48374e+06
3.48419e+06
3.4846e+06
3.48498e+06
3.48534e+06
3.48567e+06
3.48598e+06
3.48627e+06
3.48655e+06
3.48681e+06
3.48705e+06
3.48728e+06
3.4875e+06
3.4877e+06
3.48276e+06
3.48722e+06
3.48367e+06
3.48613e+06
3.48145e+06
3.47904e+06
3.47954e+06
3.47345e+06
3.44625e+06
3.43667e+06
3.45235e+06
3.45779e+06
3.46425e+06
3.46773e+06
3.47104e+06
3.47323e+06
3.47512e+06
3.47657e+06
3.47781e+06
3.47884e+06
3.47974e+06
3.48053e+06
3.48123e+06
3.48186e+06
3.48243e+06
3.48294e+06
3.48342e+06
3.48386e+06
3.48426e+06
3.48464e+06
3.48499e+06
3.48533e+06
3.48564e+06
3.48593e+06
3.48621e+06
3.48648e+06
3.48673e+06
3.48696e+06
3.48719e+06
3.4874e+06
3.4876e+06
3.49786e+06
3.49924e+06
3.49883e+06
3.49831e+06
3.49561e+06
3.49219e+06
3.49446e+06
3.48771e+06
3.46005e+06
3.44349e+06
3.45768e+06
3.46133e+06
3.46731e+06
3.47006e+06
3.47305e+06
3.47487e+06
3.47653e+06
3.47775e+06
3.47881e+06
3.47968e+06
3.48045e+06
3.48112e+06
3.48171e+06
3.48225e+06
3.48274e+06
3.48319e+06
3.48361e+06
3.48399e+06
3.48436e+06
3.4847e+06
3.48502e+06
3.48532e+06
3.48561e+06
3.48589e+06
3.48616e+06
3.48641e+06
3.48665e+06
3.48688e+06
3.4871e+06
3.48731e+06
3.4875e+06
3.5124e+06
3.51092e+06
3.51317e+06
3.51016e+06
3.5098e+06
3.50563e+06
3.50997e+06
3.50222e+06
3.47449e+06
3.4505e+06
3.4632e+06
3.46496e+06
3.47049e+06
3.47249e+06
3.47515e+06
3.4766e+06
3.47802e+06
3.47901e+06
3.47989e+06
3.48059e+06
3.48121e+06
3.48176e+06
3.48224e+06
3.48268e+06
3.48309e+06
3.48346e+06
3.48382e+06
3.48415e+06
3.48446e+06
3.48477e+06
3.48505e+06
3.48533e+06
3.4856e+06
3.48586e+06
3.48611e+06
3.48635e+06
3.48658e+06
3.4868e+06
3.48701e+06
3.48721e+06
3.48741e+06
3.52428e+06
3.52136e+06
3.52496e+06
3.52085e+06
3.52289e+06
3.51818e+06
3.52468e+06
3.51577e+06
3.48851e+06
3.45719e+06
3.46858e+06
3.46853e+06
3.47368e+06
3.47496e+06
3.47733e+06
3.47842e+06
3.4796e+06
3.48035e+06
3.48103e+06
3.48157e+06
3.48204e+06
3.48244e+06
3.48281e+06
3.48315e+06
3.48346e+06
3.48376e+06
3.48404e+06
3.48432e+06
3.48458e+06
3.48484e+06
3.4851e+06
3.48535e+06
3.48559e+06
3.48583e+06
3.48606e+06
3.48629e+06
3.48651e+06
3.48672e+06
3.48693e+06
3.48713e+06
3.48731e+06
3.53256e+06
3.52974e+06
3.53319e+06
3.52948e+06
3.5338e+06
3.52854e+06
3.53722e+06
3.52708e+06
3.50101e+06
3.46309e+06
3.47327e+06
3.47189e+06
3.47676e+06
3.47747e+06
3.47958e+06
3.48033e+06
3.48127e+06
3.48178e+06
3.48226e+06
3.48261e+06
3.48291e+06
3.48317e+06
3.48342e+06
3.48364e+06
3.48386e+06
3.48407e+06
3.48429e+06
3.4845e+06
3.48472e+06
3.48493e+06
3.48515e+06
3.48537e+06
3.48559e+06
3.48581e+06
3.48602e+06
3.48623e+06
3.48644e+06
3.48665e+06
3.48685e+06
3.48704e+06
3.48723e+06
3.53748e+06
3.53515e+06
3.53811e+06
3.53531e+06
3.54202e+06
3.53552e+06
3.54653e+06
3.53471e+06
3.51095e+06
3.46791e+06
3.4768e+06
3.47504e+06
3.4797e+06
3.48006e+06
3.48191e+06
3.48236e+06
3.48305e+06
3.48331e+06
3.48357e+06
3.48372e+06
3.48385e+06
3.48396e+06
3.48406e+06
3.48417e+06
3.48428e+06
3.48441e+06
3.48455e+06
3.4847e+06
3.48486e+06
3.48503e+06
3.48521e+06
3.4854e+06
3.48559e+06
3.48579e+06
3.48598e+06
3.48618e+06
3.48638e+06
3.48658e+06
3.48677e+06
3.48696e+06
3.48714e+06
3.54167e+06
3.53743e+06
3.54186e+06
3.53847e+06
3.54779e+06
3.53875e+06
3.552e+06
3.53741e+06
3.51758e+06
3.47199e+06
3.47937e+06
3.47825e+06
3.48261e+06
3.48284e+06
3.48439e+06
3.48457e+06
3.48497e+06
3.48497e+06
3.48499e+06
3.48491e+06
3.48485e+06
3.48478e+06
3.48474e+06
3.48472e+06
3.48473e+06
3.48476e+06
3.48482e+06
3.4849e+06
3.48501e+06
3.48513e+06
3.48527e+06
3.48543e+06
3.48559e+06
3.48577e+06
3.48595e+06
3.48613e+06
3.48632e+06
3.48651e+06
3.48669e+06
3.48688e+06
3.48705e+06
3.5494e+06
3.53844e+06
3.54847e+06
3.54096e+06
3.55245e+06
3.53992e+06
3.55391e+06
3.53597e+06
3.52134e+06
3.47673e+06
3.48182e+06
3.4821e+06
3.48581e+06
3.48607e+06
3.48716e+06
3.48705e+06
3.48708e+06
3.48678e+06
3.48652e+06
3.4862e+06
3.48592e+06
3.48566e+06
3.48546e+06
3.4853e+06
3.48519e+06
3.48512e+06
3.4851e+06
3.48511e+06
3.48516e+06
3.48524e+06
3.48534e+06
3.48546e+06
3.4856e+06
3.48575e+06
3.48592e+06
3.48609e+06
3.48626e+06
3.48644e+06
3.48662e+06
3.4868e+06
3.48697e+06
3.56397e+06
3.54214e+06
3.56163e+06
3.54671e+06
3.55874e+06
3.54386e+06
3.55452e+06
3.53566e+06
3.52546e+06
3.4848e+06
3.48523e+06
3.48744e+06
3.4897e+06
3.48999e+06
3.49034e+06
3.48988e+06
3.48943e+06
3.48878e+06
3.48818e+06
3.48758e+06
3.48705e+06
3.48659e+06
3.48621e+06
3.4859e+06
3.48567e+06
3.4855e+06
3.48539e+06
3.48533e+06
3.48532e+06
3.48534e+06
3.4854e+06
3.48549e+06
3.48561e+06
3.48574e+06
3.48588e+06
3.48604e+06
3.48621e+06
3.48638e+06
3.48655e+06
3.48672e+06
3.48689e+06
3.58482e+06
3.55321e+06
3.58155e+06
3.55964e+06
3.57032e+06
3.55577e+06
3.55948e+06
3.54609e+06
3.53695e+06
3.50001e+06
3.49141e+06
3.49526e+06
3.49476e+06
3.4949e+06
3.49408e+06
3.49314e+06
3.49207e+06
3.49099e+06
3.48997e+06
3.48905e+06
3.48825e+06
3.48756e+06
3.48699e+06
3.48652e+06
3.48615e+06
3.48587e+06
3.48567e+06
3.48554e+06
3.48547e+06
3.48545e+06
3.48547e+06
3.48553e+06
3.48561e+06
3.48572e+06
3.48585e+06
3.48599e+06
3.48615e+06
3.48631e+06
3.48648e+06
3.48664e+06
3.48681e+06
3.60765e+06
3.57528e+06
3.60426e+06
3.58098e+06
3.5889e+06
3.57764e+06
3.57503e+06
3.57082e+06
3.56082e+06
3.52362e+06
3.50145e+06
3.50582e+06
3.50127e+06
3.50088e+06
3.49846e+06
3.49687e+06
3.495e+06
3.4934e+06
3.49191e+06
3.49062e+06
3.48951e+06
3.48857e+06
3.48779e+06
3.48715e+06
3.48664e+06
3.48625e+06
3.48596e+06
3.48575e+06
3.48562e+06
3.48555e+06
3.48553e+06
3.48555e+06
3.48562e+06
3.4857e+06
3.48582e+06
3.48595e+06
3.48609e+06
3.48625e+06
3.48641e+06
3.48657e+06
3.48673e+06
3.62619e+06
3.60625e+06
3.62461e+06
3.60851e+06
3.61162e+06
3.6066e+06
3.60056e+06
3.60587e+06
3.59398e+06
3.55345e+06
3.51473e+06
3.51831e+06
3.50911e+06
3.50776e+06
3.50346e+06
3.50104e+06
3.49823e+06
3.49602e+06
3.49398e+06
3.49228e+06
3.49082e+06
3.4896e+06
3.4886e+06
3.48778e+06
3.48713e+06
3.48662e+06
3.48624e+06
3.48596e+06
3.48576e+06
3.48564e+06
3.48559e+06
3.48558e+06
3.48561e+06
3.48568e+06
3.48578e+06
3.4859e+06
3.48604e+06
3.48618e+06
3.48634e+06
3.48649e+06
3.48665e+06
3.64003e+06
3.63925e+06
3.64126e+06
3.63658e+06
3.63411e+06
3.63576e+06
3.62748e+06
3.64162e+06
3.62494e+06
3.5856e+06
3.52941e+06
3.53157e+06
3.51797e+06
3.51527e+06
3.50902e+06
3.50556e+06
3.50172e+06
3.4988e+06
3.49616e+06
3.494e+06
3.49216e+06
3.49065e+06
3.48941e+06
3.48841e+06
3.48761e+06
3.48698e+06
3.4865e+06
3.48615e+06
3.48589e+06
3.48573e+06
3.48563e+06
3.4856e+06
3.48561e+06
3.48566e+06
3.48574e+06
3.48585e+06
3.48598e+06
3.48612e+06
3.48627e+06
3.48642e+06
3.48658e+06
3.65265e+06
3.66695e+06
3.65594e+06
3.65986e+06
3.65302e+06
3.65765e+06
3.64626e+06
3.66544e+06
3.64026e+06
3.61282e+06
3.54445e+06
3.54417e+06
3.52771e+06
3.52311e+06
3.51509e+06
3.51035e+06
3.50543e+06
3.50171e+06
3.49841e+06
3.49574e+06
3.49351e+06
3.49169e+06
3.4902e+06
3.48901e+06
3.48806e+06
3.48732e+06
3.48675e+06
3.48632e+06
3.48601e+06
3.4858e+06
3.48567e+06
3.4856e+06
3.4856e+06
3.48563e+06
3.4857e+06
3.4858e+06
3.48592e+06
3.48605e+06
3.4862e+06
3.48635e+06
3.4865e+06
3.66718e+06
3.68867e+06
3.67137e+06
3.67948e+06
3.67029e+06
3.67343e+06
3.66154e+06
3.67523e+06
3.64894e+06
3.63374e+06
3.56508e+06
3.55572e+06
3.53904e+06
3.53118e+06
3.52172e+06
3.51535e+06
3.50934e+06
3.50469e+06
3.5007e+06
3.49749e+06
3.49484e+06
3.4927e+06
3.49096e+06
3.48958e+06
3.48848e+06
3.48762e+06
3.48696e+06
3.48647e+06
3.4861e+06
3.48585e+06
3.48569e+06
3.4856e+06
3.48557e+06
3.48559e+06
3.48565e+06
3.48574e+06
3.48585e+06
3.48598e+06
3.48613e+06
3.48628e+06
3.48643e+06
3.68527e+06
3.70923e+06
3.68949e+06
3.6997e+06
3.69016e+06
3.6918e+06
3.68468e+06
3.6874e+06
3.67732e+06
3.66409e+06
3.60048e+06
3.56869e+06
3.55356e+06
3.53981e+06
3.52909e+06
3.52053e+06
3.51339e+06
3.50768e+06
3.50298e+06
3.49919e+06
3.49611e+06
3.49364e+06
3.49166e+06
3.49009e+06
3.48885e+06
3.48789e+06
3.48715e+06
3.48659e+06
3.48618e+06
3.48589e+06
3.4857e+06
3.48559e+06
3.48554e+06
3.48555e+06
3.4856e+06
3.48568e+06
3.48579e+06
3.48591e+06
3.48605e+06
3.4862e+06
3.48636e+06
3.70299e+06
3.72878e+06
3.70737e+06
3.72011e+06
3.71094e+06
3.71402e+06
3.71303e+06
3.712e+06
3.71947e+06
3.70466e+06
3.6452e+06
3.58365e+06
3.57013e+06
3.54896e+06
3.53693e+06
3.52578e+06
3.51745e+06
3.5106e+06
3.50516e+06
3.50078e+06
3.49728e+06
3.4945e+06
3.49228e+06
3.49054e+06
3.48917e+06
3.4881e+06
3.48729e+06
3.48667e+06
3.48622e+06
3.4859e+06
3.48569e+06
3.48556e+06
3.4855e+06
3.4855e+06
3.48554e+06
3.48562e+06
3.48572e+06
3.48584e+06
3.48598e+06
3.48613e+06
3.48628e+06
3.718e+06
3.74557e+06
3.72223e+06
3.73707e+06
3.72763e+06
3.73259e+06
3.73485e+06
3.73403e+06
3.75089e+06
3.73071e+06
3.68621e+06
3.59906e+06
3.58531e+06
3.55816e+06
3.54445e+06
3.53088e+06
3.5213e+06
3.51332e+06
3.50714e+06
3.5022e+06
3.4983e+06
3.49522e+06
3.49279e+06
3.49088e+06
3.4894e+06
3.48825e+06
3.48738e+06
3.48672e+06
3.48623e+06
3.48589e+06
3.48566e+06
3.48552e+06
3.48545e+06
3.48544e+06
3.48547e+06
3.48555e+06
3.48565e+06
3.48577e+06
3.48591e+06
3.48605e+06
3.48621e+06
3.75985e+06
3.73999e+06
3.71466e+06
3.62062e+06
3.59683e+06
3.56788e+06
3.55106e+06
3.5357e+06
3.52469e+06
3.51572e+06
3.50882e+06
3.50336e+06
3.4991e+06
3.49576e+06
3.49315e+06
3.49112e+06
3.48954e+06
3.48833e+06
3.48741e+06
3.48672e+06
3.48621e+06
3.48585e+06
3.4856e+06
3.48545e+06
3.48538e+06
3.48537e+06
3.4854e+06
3.48547e+06
3.48557e+06
3.48569e+06
3.48583e+06
3.48598e+06
3.48613e+06
3.48942e+06
3.48889e+06
3.48856e+06
3.48838e+06
3.48831e+06
3.48831e+06
3.48838e+06
3.4885e+06
3.48864e+06
3.48881e+06
3.48899e+06
3.48919e+06
3.48938e+06
3.48958e+06
3.48978e+06
3.48998e+06
3.49017e+06
3.49035e+06
3.49053e+06
3.4907e+06
3.48863e+06
3.48796e+06
3.48762e+06
3.48741e+06
3.48733e+06
3.48735e+06
3.48743e+06
3.48757e+06
3.48774e+06
3.48794e+06
3.48815e+06
3.48837e+06
3.4886e+06
3.48883e+06
3.48906e+06
3.48929e+06
3.48951e+06
3.48972e+06
3.48993e+06
3.49012e+06
3.49031e+06
3.49049e+06
3.48151e+06
3.49725e+06
3.48296e+06
3.49573e+06
3.48482e+06
3.49196e+06
3.48353e+06
3.48307e+06
3.4563e+06
3.47831e+06
3.48698e+06
3.48879e+06
3.48642e+06
3.48669e+06
3.48593e+06
3.48591e+06
3.48575e+06
3.48582e+06
3.48592e+06
3.4861e+06
3.48631e+06
3.48656e+06
3.48682e+06
3.4871e+06
3.48738e+06
3.48766e+06
3.48794e+06
3.48822e+06
3.48849e+06
3.48875e+06
3.489e+06
3.48924e+06
3.48947e+06
3.48969e+06
3.4899e+06
3.4901e+06
3.49029e+06
3.47023e+06
3.48634e+06
3.4718e+06
3.4849e+06
3.47369e+06
3.47773e+06
3.46851e+06
3.46557e+06
3.43865e+06
3.46531e+06
3.47576e+06
3.48426e+06
3.47888e+06
3.48232e+06
3.48137e+06
3.48265e+06
3.48268e+06
3.48329e+06
3.48362e+06
3.48407e+06
3.48447e+06
3.4849e+06
3.4853e+06
3.48571e+06
3.4861e+06
3.48647e+06
3.48684e+06
3.48719e+06
3.48752e+06
3.48784e+06
3.48815e+06
3.48844e+06
3.48871e+06
3.48897e+06
3.48922e+06
3.48946e+06
3.48968e+06
3.48989e+06
3.49009e+06
3.45989e+06
3.47283e+06
3.46104e+06
3.47187e+06
3.4621e+06
3.46258e+06
3.45363e+06
3.44793e+06
3.42258e+06
3.45276e+06
3.46434e+06
3.47399e+06
3.47164e+06
3.47635e+06
3.47676e+06
3.47888e+06
3.47967e+06
3.48082e+06
3.4816e+06
3.48241e+06
3.48309e+06
3.48375e+06
3.48434e+06
3.48489e+06
3.4854e+06
3.48587e+06
3.48631e+06
3.48673e+06
3.48711e+06
3.48748e+06
3.48782e+06
3.48814e+06
3.48844e+06
3.48872e+06
3.48898e+06
3.48923e+06
3.48947e+06
3.48969e+06
3.48989e+06
3.49008e+06
3.44993e+06
3.45729e+06
3.45029e+06
3.45702e+06
3.44993e+06
3.44708e+06
3.43917e+06
3.43087e+06
3.40835e+06
3.44107e+06
3.45431e+06
3.46484e+06
3.46532e+06
3.471e+06
3.47266e+06
3.47548e+06
3.47694e+06
3.47857e+06
3.47975e+06
3.48087e+06
3.48181e+06
3.48267e+06
3.48343e+06
3.48411e+06
3.48473e+06
3.4853e+06
3.48581e+06
3.48629e+06
3.48672e+06
3.48713e+06
3.4875e+06
3.48785e+06
3.48817e+06
3.48847e+06
3.48875e+06
3.48901e+06
3.48926e+06
3.48949e+06
3.4897e+06
3.4899e+06
3.44052e+06
3.44124e+06
3.43996e+06
3.44176e+06
3.43792e+06
3.43236e+06
3.42588e+06
3.41549e+06
3.39643e+06
3.43068e+06
3.44583e+06
3.45702e+06
3.45997e+06
3.46637e+06
3.46913e+06
3.4725e+06
3.47454e+06
3.47656e+06
3.47809e+06
3.47948e+06
3.48065e+06
3.48168e+06
3.48259e+06
3.4834e+06
3.48412e+06
3.48476e+06
3.48534e+06
3.48587e+06
3.48635e+06
3.48679e+06
3.4872e+06
3.48757e+06
3.48791e+06
3.48823e+06
3.48853e+06
3.4888e+06
3.48906e+06
3.48929e+06
3.48951e+06
3.48972e+06
3.48991e+06
3.43206e+06
3.42656e+06
3.43071e+06
3.42781e+06
3.42704e+06
3.41958e+06
3.41461e+06
3.40277e+06
3.3872e+06
3.42199e+06
3.43894e+06
3.45063e+06
3.45561e+06
3.46252e+06
3.46619e+06
3.46998e+06
3.47249e+06
3.47483e+06
3.47665e+06
3.47826e+06
3.47961e+06
3.4808e+06
3.48183e+06
3.48275e+06
3.48355e+06
3.48427e+06
3.48491e+06
3.48548e+06
3.48601e+06
3.48648e+06
3.48691e+06
3.48731e+06
3.48767e+06
3.488e+06
3.48831e+06
3.4886e+06
3.48886e+06
3.48911e+06
3.48933e+06
3.48954e+06
3.48974e+06
3.42465e+06
3.4145e+06
3.42307e+06
3.41653e+06
3.41817e+06
3.40965e+06
3.40608e+06
3.39343e+06
3.38082e+06
3.41521e+06
3.43365e+06
3.44569e+06
3.45222e+06
3.45947e+06
3.46383e+06
3.46792e+06
3.47081e+06
3.47339e+06
3.47543e+06
3.47721e+06
3.47872e+06
3.48003e+06
3.48117e+06
3.48217e+06
3.48304e+06
3.48382e+06
3.48451e+06
3.48513e+06
3.48568e+06
3.48619e+06
3.48664e+06
3.48706e+06
3.48744e+06
3.48778e+06
3.4881e+06
3.4884e+06
3.48867e+06
3.48892e+06
3.48916e+06
3.48937e+06
3.48957e+06
3.41943e+06
3.40636e+06
3.41752e+06
3.40861e+06
3.4119e+06
3.40302e+06
3.40069e+06
3.38765e+06
3.377e+06
3.41043e+06
3.42991e+06
3.44213e+06
3.44976e+06
3.45717e+06
3.46205e+06
3.46633e+06
3.46949e+06
3.47223e+06
3.47444e+06
3.47635e+06
3.47797e+06
3.47938e+06
3.4806e+06
3.48166e+06
3.4826e+06
3.48342e+06
3.48416e+06
3.48481e+06
3.48539e+06
3.48592e+06
3.48639e+06
3.48682e+06
3.48722e+06
3.48758e+06
3.48791e+06
3.48821e+06
3.48849e+06
3.48875e+06
3.48899e+06
3.48921e+06
3.48941e+06
3.41619e+06
3.40187e+06
3.41411e+06
3.40412e+06
3.40837e+06
3.39966e+06
3.39842e+06
3.38524e+06
3.37546e+06
3.40748e+06
3.42754e+06
3.43984e+06
3.44814e+06
3.4556e+06
3.46079e+06
3.46517e+06
3.46851e+06
3.47135e+06
3.47368e+06
3.47568e+06
3.47738e+06
3.47885e+06
3.48013e+06
3.48124e+06
3.48222e+06
3.48308e+06
3.48384e+06
3.48452e+06
3.48513e+06
3.48567e+06
3.48616e+06
3.48661e+06
3.48701e+06
3.48738e+06
3.48772e+06
3.48803e+06
3.48832e+06
3.48858e+06
3.48882e+06
3.48905e+06
3.48925e+06
3.41502e+06
3.40071e+06
3.41296e+06
3.4028e+06
3.40749e+06
3.39946e+06
3.39925e+06
3.3862e+06
3.37615e+06
3.40617e+06
3.42637e+06
3.43862e+06
3.44726e+06
3.45465e+06
3.46001e+06
3.46441e+06
3.46785e+06
3.47074e+06
3.47313e+06
3.47517e+06
3.47692e+06
3.47843e+06
3.47975e+06
3.48089e+06
3.4819e+06
3.48279e+06
3.48357e+06
3.48427e+06
3.48489e+06
3.48545e+06
3.48595e+06
3.48641e+06
3.48682e+06
3.4872e+06
3.48754e+06
3.48786e+06
3.48815e+06
3.48842e+06
3.48866e+06
3.48889e+06
3.4891e+06
3.4154e+06
3.40195e+06
3.41367e+06
3.40405e+06
3.4088e+06
3.40204e+06
3.4024e+06
3.38938e+06
3.37812e+06
3.40601e+06
3.42615e+06
3.43824e+06
3.447e+06
3.45425e+06
3.45965e+06
3.46401e+06
3.46748e+06
3.47037e+06
3.47278e+06
3.47484e+06
3.4766e+06
3.47813e+06
3.47946e+06
3.48063e+06
3.48165e+06
3.48255e+06
3.48335e+06
3.48406e+06
3.48469e+06
3.48526e+06
3.48577e+06
3.48623e+06
3.48665e+06
3.48703e+06
3.48738e+06
3.4877e+06
3.48799e+06
3.48826e+06
3.48851e+06
3.48874e+06
3.48895e+06
3.41742e+06
3.40513e+06
3.41579e+06
3.40706e+06
3.4117e+06
3.40658e+06
3.40685e+06
3.3938e+06
3.38071e+06
3.40636e+06
3.42652e+06
3.43845e+06
3.44721e+06
3.45427e+06
3.45964e+06
3.46392e+06
3.46737e+06
3.47022e+06
3.47261e+06
3.47466e+06
3.47642e+06
3.47794e+06
3.47927e+06
3.48044e+06
3.48146e+06
3.48236e+06
3.48317e+06
3.48388e+06
3.48452e+06
3.48509e+06
3.4856e+06
3.48606e+06
3.48649e+06
3.48687e+06
3.48722e+06
3.48754e+06
3.48784e+06
3.48811e+06
3.48836e+06
3.48859e+06
3.4888e+06
3.42046e+06
3.4095e+06
3.41887e+06
3.41124e+06
3.41568e+06
3.4122e+06
3.41229e+06
3.39962e+06
3.38443e+06
3.40733e+06
3.42752e+06
3.43917e+06
3.44784e+06
3.45467e+06
3.45994e+06
3.4641e+06
3.46748e+06
3.47026e+06
3.47261e+06
3.47462e+06
3.47635e+06
3.47785e+06
3.47916e+06
3.48032e+06
3.48133e+06
3.48223e+06
3.48303e+06
3.48374e+06
3.48437e+06
3.48494e+06
3.48545e+06
3.48592e+06
3.48634e+06
3.48672e+06
3.48708e+06
3.4874e+06
3.4877e+06
3.48797e+06
3.48822e+06
3.48845e+06
3.48866e+06
3.4241e+06
3.41462e+06
3.42259e+06
3.41623e+06
3.4203e+06
3.41854e+06
3.41821e+06
3.40629e+06
3.3888e+06
3.40882e+06
3.42896e+06
3.44026e+06
3.44878e+06
3.45535e+06
3.46048e+06
3.4645e+06
3.46778e+06
3.47048e+06
3.47276e+06
3.47471e+06
3.47639e+06
3.47786e+06
3.47914e+06
3.48027e+06
3.48126e+06
3.48215e+06
3.48293e+06
3.48363e+06
3.48426e+06
3.48482e+06
3.48533e+06
3.48579e+06
3.48621e+06
3.48659e+06
3.48694e+06
3.48726e+06
3.48756e+06
3.48783e+06
3.48808e+06
3.48832e+06
3.48853e+06
3.42566e+06
3.41908e+06
3.42629e+06
3.42178e+06
3.42522e+06
3.42515e+06
3.42428e+06
3.41335e+06
3.39352e+06
3.41079e+06
3.43069e+06
3.44163e+06
3.44996e+06
3.45627e+06
3.46124e+06
3.4651e+06
3.46826e+06
3.47085e+06
3.47304e+06
3.47491e+06
3.47654e+06
3.47795e+06
3.47919e+06
3.48028e+06
3.48125e+06
3.48211e+06
3.48287e+06
3.48356e+06
3.48417e+06
3.48473e+06
3.48523e+06
3.48568e+06
3.48609e+06
3.48647e+06
3.48682e+06
3.48714e+06
3.48743e+06
3.4877e+06
3.48795e+06
3.48819e+06
3.4884e+06
3.4299e+06
3.42576e+06
3.4304e+06
3.42798e+06
3.43024e+06
3.43172e+06
3.43015e+06
3.42043e+06
3.3985e+06
3.41301e+06
3.43263e+06
3.44321e+06
3.45134e+06
3.45738e+06
3.46217e+06
3.46586e+06
3.46888e+06
3.47135e+06
3.47344e+06
3.47522e+06
3.47677e+06
3.47812e+06
3.47931e+06
3.48036e+06
3.48129e+06
3.48211e+06
3.48285e+06
3.48352e+06
3.48411e+06
3.48465e+06
3.48514e+06
3.48559e+06
3.48599e+06
3.48636e+06
3.4867e+06
3.48702e+06
3.48731e+06
3.48758e+06
3.48783e+06
3.48806e+06
3.48827e+06
3.43408e+06
3.43294e+06
3.43462e+06
3.43495e+06
3.43549e+06
3.43813e+06
3.43576e+06
3.42741e+06
3.40349e+06
3.41521e+06
3.43471e+06
3.44492e+06
3.45288e+06
3.45866e+06
3.46326e+06
3.46676e+06
3.46964e+06
3.47197e+06
3.47395e+06
3.47563e+06
3.47709e+06
3.47837e+06
3.47949e+06
3.48049e+06
3.48137e+06
3.48216e+06
3.48287e+06
3.48351e+06
3.48408e+06
3.4846e+06
3.48508e+06
3.48551e+06
3.4859e+06
3.48627e+06
3.4866e+06
3.48691e+06
3.4872e+06
3.48746e+06
3.48771e+06
3.48794e+06
3.48815e+06
3.43967e+06
3.44189e+06
3.44019e+06
3.44307e+06
3.44139e+06
3.4444e+06
3.44129e+06
3.43426e+06
3.40893e+06
3.4177e+06
3.43704e+06
3.4468e+06
3.4546e+06
3.46009e+06
3.46449e+06
3.4678e+06
3.47051e+06
3.4727e+06
3.47455e+06
3.47612e+06
3.47749e+06
3.47868e+06
3.47974e+06
3.48067e+06
3.4815e+06
3.48225e+06
3.48292e+06
3.48353e+06
3.48407e+06
3.48457e+06
3.48503e+06
3.48544e+06
3.48583e+06
3.48618e+06
3.48651e+06
3.48681e+06
3.48709e+06
3.48735e+06
3.4876e+06
3.48782e+06
3.48803e+06
3.4464e+06
3.45174e+06
3.44749e+06
3.45239e+06
3.4485e+06
3.45083e+06
3.44748e+06
3.44144e+06
3.4154e+06
3.42104e+06
3.43987e+06
3.44899e+06
3.45658e+06
3.46172e+06