/*--------------------------------*- C++ -*----------------------------------*\
| =========                 |                                                 |
| \\      /  F ield         | OpenFOAM: The Open Source CFD Toolbox           |
|  \\    /   O peration     | Version:  v2012                                 |
|   \\  /    A nd           | Website:  www.openfoam.com                      |
|    \\/     M anipulation  |                                                 |
\*---------------------------------------------------------------------------*/
FoamFile
{
    version     2.0;
    format      ascii;
    class       volVectorField;
    location    "0.5";
    object      U;
}
// * * * * * * * * * * * * * * * * * * * * * * * * * * * * * * * * * * * * * //

dimensions      [0 1 -1 0 0 0 0];


internalField   nonuniform List<vector> 
3332
(
(-0.804617 -7.26445 0.00702223)
(-0.849121 -6.6825 0.00741074)
(-0.885171 -6.12785 0.00772546)
(-0.913872 -5.60297 0.00797603)
(-0.936209 -5.10831 0.00817105)
(-0.952952 -4.64296 0.00831724)
(-0.964721 -4.2053 0.00842002)
(-0.972 -3.7934 0.0084836)
(-0.97517 -3.40531 0.00851131)
(-0.974533 -3.03922 0.0085058)
(-0.970331 -2.69349 0.00846919)
(-0.962764 -2.36676 0.00840319)
(-0.952 -2.05783 0.00830927)
(-0.938183 -1.76577 0.00818871)
(-0.921442 -1.48977 0.00804264)
(-0.901892 -1.22923 0.00787205)
(-0.879643 -0.98364 0.0076779)
(-0.854796 -0.752628 0.00746108)
(-0.827454 -0.535916 0.00722247)
(-0.797717 -0.333318 0.006963)
(-0.773515 -8.35369 0.00675063)
(-0.835022 -7.75013 0.00728756)
(-0.885169 -7.15912 0.00772533)
(-0.925205 -6.58867 0.00807485)
(-0.956782 -6.04417 0.00835053)
(-0.981076 -5.52826 0.00856263)
(-0.999147 -5.04158 0.00872043)
(-1.01181 -4.58337 0.00883096)
(-1.0197 -4.15217 0.00889988)
(-1.02332 -3.74614 0.00893152)
(-1.02305 -3.36344 0.00892922)
(-1.01919 -3.00231 0.00889558)
(-1.01197 -2.66119 0.00883267)
(-1.00159 -2.33873 0.00874209)
(-0.988192 -2.03379 0.00862518)
(-0.971912 -1.74543 0.00848313)
(-0.952864 -1.47289 0.00831692)
(-0.931151 -1.21557 0.00812745)
(-0.906867 -0.972987 0.00791554)
(-0.880105 -0.74477 0.007682)
(-0.850954 -0.530655 0.00742761)
(-0.819505 -0.330463 0.00715319)
(-0.023617 -47.4816 0.000206179)
(0.154242 -46.0595 -0.0013463)
(-0.244322 -34.5483 0.00213242)
(0.566265 -30.4158 -0.0049396)
(2.10935 -42.6219 -0.0184066)
(2.80822 -48.9869 -0.0245104)
(1.90497 -35.8943 -0.016627)
(1.32078 -32.5678 -0.011535)
(0.956427 -30.2925 -0.00834623)
(0.393707 -24.502 -0.00343242)
(-0.332961 -11.6683 0.00290431)
(-0.478083 -10.6833 0.00417149)
(-0.597174 -9.99606 0.00521122)
(-0.702858 -9.39507 0.00613374)
(-0.7889 -8.80769 0.00688484)
(-0.860629 -8.21803 0.00751099)
(-0.917958 -7.62999 0.00801147)
(-0.963739 -7.05272 0.00841113)
(-0.999299 -6.49433 0.00872159)
(-1.02643 -5.96037 0.00895846)
(-1.04637 -5.45371 0.00913259)
(-1.06025 -4.97517 0.00925379)
(-1.06891 -4.52422 0.0093294)
(-1.07301 -4.09952 0.00936527)
(-1.07307 -3.6994 0.00936579)
(-1.06945 -3.3221 0.00933431)
(-1.06247 -2.96593 0.00927338)
(-1.05233 -2.62939 0.00918498)
(-1.03922 -2.31119 0.00907059)
(-1.02328 -2.0102 0.00893145)
(-1.00462 -1.72553 0.00876861)
(-0.983339 -1.45644 0.00858294)
(-0.959535 -1.20232 0.00837522)
(-0.933287 -0.962723 0.00814616)
(-0.904674 -0.737286 0.00789647)
(-0.873775 -0.525754 0.00762682)
(-0.84067 -0.327956 0.00733795)
(-0.0661413 -47.6058 0.000577309)
(0.211971 -45.9938 -0.00185009)
(-0.343595 -34.8434 0.00299909)
(0.803142 -33.0203 -0.00700648)
(2.15373 -44.9739 -0.0187943)
(2.73697 -49.6944 -0.023889)
(1.77157 -35.1115 -0.0154832)
(1.17124 -32.1683 -0.0102335)
(0.781202 -29.7763 -0.00681842)
(0.233683 -23.9414 -0.00203613)
(-0.093657 -17.1914 0.000821066)
(-0.293071 -13.2485 0.00255573)
(-0.435278 -11.4383 0.00379741)
(-0.574907 -10.4687 0.00501662)
(-0.690429 -9.80013 0.00602518)
(-0.792756 -9.21888 0.00691839)
(-0.875387 -8.65121 0.00763974)
(-0.943428 -8.07977 0.0082337)
(-0.996804 -7.50816 0.00869968)
(-1.03847 -6.94532 0.00906343)
(-1.06984 -6.39952 0.0093373)
(-1.0928 -5.87646 0.00953779)
(-1.10866 -5.37929 0.00967628)
(-1.1186 -4.90907 0.00976309)
(-1.12349 -4.46546 0.00980584)
(-1.12402 -4.04734 0.00981054)
(-1.12071 -3.65314 0.00978168)
(-1.11394 -3.28124 0.00972262)
(-1.10399 -2.93003 0.00963586)
(-1.09109 -2.59807 0.0095233)
(-1.07539 -2.2841 0.00938632)
(-1.05703 -1.98706 0.00922607)
(-1.0361 -1.70606 0.00904347)
(-1.0127 -1.44038 0.00883927)
(-0.986907 -1.18945 0.00861415)
(-0.958784 -0.952825 0.00836873)
(-0.928402 -0.730155 0.00810359)
(-0.89583 -0.521195 0.00781934)
(-0.86114 -0.325782 0.00751663)
(-0.106831 -47.7068 0.000932427)
(0.262007 -45.9033 -0.00228673)
(-0.425575 -35.238 0.00371475)
(0.956735 -35.7107 -0.00834684)
(2.04429 -47.0904 -0.0178397)
(2.57334 -50.2398 -0.0224609)
(1.59706 -34.2914 -0.0139826)
(1.0117 -31.7053 -0.00884371)
(0.600633 -29.2249 -0.00524377)
(0.0773456 -23.3913 -0.000671977)
(-0.21868 -16.8332 0.001911)
(-0.398944 -12.9921 0.00347969)
(-0.532692 -11.2054 0.00464772)
(-0.665327 -10.2497 0.00580587)
(-0.776825 -9.59943 0.00677928)
(-0.875535 -9.03848 0.00764092)
(-0.955015 -8.49134 0.00833476)
(-1.01973 -7.93901 0.00889973)
(-1.06967 -7.3846 0.00933569)
(-1.10774 -6.83684 0.00966807)
(-1.13544 -6.30411 0.00990991)
(-1.15472 -5.79232 0.0100782)
(-1.16695 -5.30489 0.010185)
(-1.17335 -4.84315 0.010241)
(-1.17484 -4.40701 0.0102541)
(-1.17214 -3.99552 0.0102305)
(-1.16575 -3.60729 0.0101748)
(-1.15608 -3.24081 0.0100905)
(-1.14341 -2.89455 0.00997993)
(-1.12795 -2.56716 0.00984503)
(-1.10985 -2.25742 0.0096871)
(-1.08923 -1.9643 0.00950718)
(-1.06619 -1.68695 0.00930612)
(-1.04081 -1.42468 0.00908457)
(-1.01314 -1.17693 0.00884311)
(-0.983247 -0.943267 0.00858226)
(-0.951195 -0.723354 0.00830255)
(-0.91704 -0.516957 0.00800448)
(-0.880846 -0.323921 0.00768862)
(-0.842683 -0.144187 0.00735568)
(-0.137857 -47.784 0.0012032)
(0.293561 -45.7952 -0.00256207)
(-0.466253 -35.7011 0.00406985)
(1.04166 -38.3016 -0.00908817)
(1.83752 -48.9395 -0.0160356)
(2.35075 -50.6591 -0.0205182)
(1.39635 -33.4878 -0.012253)
(0.850437 -31.2009 -0.00743774)
(0.426485 -28.648 -0.00372492)
(-0.0677734 -22.855 0.000594327)
(-0.334995 -16.4895 0.00292519)
(-0.496696 -12.7394 0.00433286)
(-0.621671 -10.9715 0.00542442)
(-0.7467 -10.0279 0.00651615)
(-0.854049 -9.39502 0.00745332)
(-0.949196 -8.85441 0.00828386)
(-1.02596 -8.32827 0.00895398)
(-1.08791 -7.79572 0.00949483)
(-1.13509 -7.25919 0.00990672)
(-1.17026 -6.72709 0.0102138)
(-1.19497 -6.20789 0.0104295)
(-1.21121 -5.70773 0.0105713)
(-1.22039 -5.23032 0.0106515)
(-1.22379 -4.77725 0.0106813)
(-1.22236 -4.3487 0.0106689)
(-1.21683 -3.94393 0.0106207)
(-1.20775 -3.56172 0.0105414)
(-1.19551 -3.20068 0.0104346)
(-1.1804 -2.8594 0.0103028)
(-1.16264 -2.53658 0.0101478)
(-1.14237 -2.23107 0.00997093)
(-1.1197 -1.94187 0.0097731)
(-1.09472 -1.66818 0.00955513)
(-1.0675 -1.40931 0.0093176)
(-1.0381 -1.16472 0.00906103)
(-1.00657 -0.934012 0.00878588)
(-0.972964 -0.71685 0.00849258)
(-0.937329 -0.51301 0.00818158)
(-0.899722 -0.322346 0.00785339)
(-0.860211 -0.144806 0.0075086)
(-0.154697 -47.839 0.00135017)
(0.301174 -45.6885 -0.00262846)
(-0.454474 -36.2268 0.00396706)
(1.06893 -40.6597 -0.00932657)
(1.5884 -50.5182 -0.0138619)
(2.09967 -50.9758 -0.0183267)
(1.18417 -32.73 -0.0104215)
(0.69164 -30.6763 -0.00605261)
(0.26476 -28.0571 -0.00231428)
(-0.198112 -22.3352 0.00173165)
(-0.439427 -16.1596 0.00383593)
(-0.583924 -12.4909 0.00509421)
(-0.700228 -10.738 0.00611015)
(-0.817559 -9.80467 0.00713466)
(-0.920776 -9.18784 0.00803575)
(-1.01256 -8.66724 0.00883694)
(-1.08708 -8.16222 0.00948748)
(-1.1469 -7.6499 0.0100097)
(-1.19207 -7.13176 0.010404)
(-1.2251 -6.61582 0.0106925)
(-1.2476 -6.11059 0.0108889)
(-1.26152 -5.62243 0.0110105)
(-1.26834 -5.1553 0.0110701)
(-1.26935 -4.71112 0.011079)
(-1.26555 -4.29032 0.0110458)
(-1.25769 -3.89239 0.0109772)
(-1.24634 -3.51628 0.0108782)
(-1.23191 -3.16074 0.0107523)
(-1.2147 -2.82447 0.0106022)
(-1.19493 -2.50624 0.0104297)
(-1.17274 -2.20497 0.0102361)
(-1.14825 -1.9197 0.0100223)
(-1.12154 -1.64966 0.00978922)
(-1.09267 -1.39419 0.00953729)
(-1.0617 -1.15278 0.009267)
(-1.02867 -0.92502 0.00897876)
(-0.993631 -0.710607 0.00867298)
(-0.956628 -0.509323 0.00835005)
(-0.917711 -0.321031 0.00801042)
(-0.876942 -0.145683 0.00765463)
(-0.834385 0.016734 0.00728334)
(-0.15645 -47.8746 0.00136547)
(0.285304 -45.6054 -0.00248992)
(-0.395726 -36.812 0.00345429)
(1.04675 -42.7083 -0.00913337)
(1.33849 -51.8454 -0.0116811)
(1.84219 -51.2016 -0.0160794)
(0.972933 -32.0272 -0.00859634)
(0.537686 -30.1479 -0.00470933)
(0.117695 -27.4629 -0.00103137)
(-0.313109 -21.8328 0.00273502)
(-0.531109 -15.8425 0.00463564)
(-0.659897 -12.247 0.00575737)
(-0.767697 -10.5061 0.00669911)
(-0.877458 -9.58103 0.00765752)
(-0.976559 -8.97883 0.00852265)
(-1.06519 -8.47755 0.00929634)
(-1.13789 -7.99348 0.00993095)
(-1.19616 -7.50157 0.0104396)
(-1.24004 -7.00216 0.0108227)
(-1.27173 -6.50279 0.0110994)
(-1.2928 -6.01194 0.0112834)
(-1.30517 -5.53611 0.0113915)
(-1.31034 -5.07957 0.0114366)
(-1.30962 -4.64451 0.0114304)
(-1.30403 -4.23164 0.0113817)
(-1.29437 -3.84068 0.0112974)
(-1.28122 -3.47077 0.0111828)
(-1.26503 -3.12081 0.0110414)
(-1.24609 -2.78961 0.0108762)
(-1.22463 -2.47602 0.0106889)
(-1.20081 -2.17902 0.0104811)
(-1.17475 -1.89771 0.0102536)
(-1.14652 -1.63133 0.0100073)
(-1.1162 -1.37928 0.00974268)
(-1.08383 -1.14104 0.00946018)
(-1.04946 -0.916243 0.00916021)
(-1.01312 -0.704584 0.00884313)
(-0.974876 -0.505861 0.00850934)
(-0.93476 -0.319943 0.00815923)
(-0.892832 -0.14679 0.00779332)
(-0.849155 0.0136058 0.00741219)
(-0.145535 -47.8939 0.0012702)
(0.251278 -45.5617 -0.00219294)
(-0.307468 -37.4454 0.00268395)
(0.985391 -44.4223 -0.00859829)
(1.11273 -52.9517 -0.00971111)
(1.59299 -51.3411 -0.0139043)
(0.772248 -31.3756 -0.00686132)
(0.390069 -29.6261 -0.00342114)
(-0.0151489 -26.8746 0.000127556)
(-0.413964 -21.3491 0.00361492)
(-0.610665 -15.5375 0.0053297)
(-0.724953 -12.0084 0.00632527)
(-0.824279 -10.2767 0.00719305)
(-0.926613 -9.35817 0.0080866)
(-1.02155 -8.769 0.00891535)
(-1.10719 -8.28605 0.00966295)
(-1.17839 -7.82243 0.0102844)
(-1.23562 -7.35086 0.0107841)
(-1.27886 -6.87034 0.0111616)
(-1.30992 -6.38783 0.0114328)
(-1.33033 -5.91167 0.011611)
(-1.34189 -5.44851 0.011712)
(-1.34612 -5.00284 0.011749)
(-1.34434 -4.57716 0.0117335)
(-1.33758 -4.17242 0.0116745)
(-1.32666 -3.7886 0.0115793)
(-1.31221 -3.42502 0.0114533)
(-1.29468 -3.08074 0.0113003)
(-1.2744 -2.75468 0.0111233)
(-1.2516 -2.44579 0.0109243)
(-1.22645 -2.15311 0.0107049)
(-1.19908 -1.87579 0.010466)
(-1.16957 -1.61311 0.0102085)
(-1.138 -1.36449 0.00993299)
(-1.10442 -1.12946 0.00963988)
(-1.06886 -0.907631 0.0093296)
(-1.03138 -0.698738 0.00900251)
(-0.99202 -0.502584 0.00865899)
(-0.95082 -0.319048 0.00829942)
(-0.907839 -0.148098 0.00792432)
(-0.863137 0.0102717 0.00753422)
(-0.125692 -47.9003 0.00109702)
(0.205759 -45.5612 -0.00179567)
(-0.210923 -38.106 0.00184127)
(0.896772 -45.817 -0.00782529)
(0.922669 -53.8716 -0.00805248)
(1.36066 -51.3975 -0.0118765)
(0.590387 -30.7659 -0.00529013)
(0.250245 -29.115 -0.00220126)
(-0.135289 -26.2988 0.00117573)
(-0.502721 -20.8846 0.00438924)
(-0.679427 -15.2447 0.00592969)
(-0.779972 -11.776 0.0068056)
(-0.87067 -10.0513 0.00759803)
(-0.965648 -9.13729 0.00842736)
(-1.0563 -8.55939 0.00921867)
(-1.13905 -8.09349 0.00994103)
(-1.20895 -7.64954 0.0105512)
(-1.26557 -7.19797 0.0110455)
(-1.3087 -6.73631 0.0114221)
(-1.33977 -6.27081 0.0116933)
(-1.3602 -5.80959 0.0118717)
(-1.37166 -5.35937 0.0119718)
(-1.37563 -4.92486 0.0120065)
(-1.37341 -4.5088 0.0119873)
(-1.36608 -4.11242 0.0119233)
(-1.35446 -3.73592 0.0118219)
(-1.33919 -3.37884 0.0116887)
(-1.32076 -3.04036 0.0115279)
(-1.29952 -2.71955 0.0113426)
(-1.27573 -2.41544 0.0111349)
(-1.24956 -2.12714 0.0109066)
(-1.22116 -1.85386 0.0106587)
(-1.19061 -1.59493 0.0103922)
(-1.15801 -1.34977 0.0101076)
(-1.1234 -1.11796 0.00980556)
(-1.08683 -0.899131 0.00948645)
(-1.04836 -0.693023 0.00915067)
(-1.00801 -0.499454 0.00879859)
(-0.965852 -0.318312 0.00843064)
(-0.921927 -0.149574 0.00804729)
(-0.876298 0.00675969 0.00764911)
(-0.101103 -47.8963 0.000882412)
(0.155491 -45.5954 -0.00135697)
(-0.122063 -38.7695 0.00106567)
(0.793494 -46.933 -0.00692425)
(0.772188 -54.6387 -0.00673928)
(1.15028 -51.3746 -0.0100403)
(0.433978 -30.1914 -0.00393811)
(0.120076 -28.6103 -0.00106587)
(-0.244371 -25.7393 0.00212738)
(-0.581378 -20.4404 0.00507545)
(-0.738707 -14.9645 0.00644705)
(-0.825914 -11.5509 0.00720671)
(-0.907672 -9.83097 0.00792108)
(-0.995323 -8.91955 0.00868641)
(-1.08154 -8.35102 0.00943902)
(-1.16147 -7.90066 0.0101367)
(-1.23022 -7.47535 0.0107369)
(-1.28654 -7.04321 0.0112285)
(-1.33 -6.60017 0.0116079)
(-1.36162 -6.15169 0.011884)
(-1.38265 -5.70557 0.0120676)
(-1.39462 -5.26851 0.0121722)
(-1.39895 -4.8454 0.01221)
(-1.3969 -4.43922 0.0121923)
(-1.38955 -4.05143 0.0121281)
(-1.37774 -3.68245 0.0120251)
(-1.36213 -3.33203 0.0118889)
(-1.34323 -2.9995 0.011724)
(-1.32142 -2.68406 0.0115337)
(-1.29697 -2.38482 0.0113204)
(-1.27009 -2.10099 0.0110858)
(-1.24092 -1.83182 0.0108312)
(-1.20958 -1.57668 0.0105578)
(-1.17616 -1.33504 0.0102661)
(-1.14072 -1.10649 0.00995679)
(-1.10332 -0.890688 0.00963037)
(-1.064 -0.687389 0.00928724)
(-1.02282 -0.496426 0.00892784)
(-0.979822 -0.317698 0.00855258)
(-0.935066 -0.151187 0.00816198)
(-0.888613 0.00309864 0.0077566)
(-0.0748513 -47.8845 0.000653291)
(0.105089 -45.6501 -0.00091712)
(-0.0494475 -39.4138 0.000431893)
(0.686335 -47.8225 -0.00598927)
(0.659493 -55.2834 -0.00575579)
(0.966397 -51.2751 -0.0084357)
(0.304821 -29.6399 -0.00281315)
(0.00246088 -28.1028 -3.98533e-05)
(-0.34246 -25.1964 0.00298308)
(-0.65065 -20.0168 0.00567977)
(-0.789318 -14.6977 0.00688883)
(-0.86348 -11.3345 0.00753475)
(-0.936052 -9.61704 0.00816888)
(-1.01643 -8.70608 0.00887069)
(-1.09812 -8.14486 0.00958376)
(-1.17528 -7.70833 0.0102572)
(-1.24299 -7.30042 0.0108483)
(-1.29925 -6.88692 0.0113394)
(-1.34338 -6.46209 0.0117247)
(-1.37597 -6.0305 0.0120093)
(-1.3981 -5.59952 0.0122025)
(-1.4111 -5.1758 0.0123161)
(-1.41632 -4.76431 0.0123617)
(-1.41497 -4.36823 0.01235)
(-1.4081 -3.98925 0.0122901)
(-1.39657 -3.62801 0.0121895)
(-1.38106 -3.28443 0.0120542)
(-1.3621 -2.95802 0.0118887)
(-1.34008 -2.64807 0.0116966)
(-1.31531 -2.35384 0.0114804)
(-1.28801 -2.07457 0.0112422)
(-1.25835 -1.80958 0.0109833)
(-1.22646 -1.5583 0.0107051)
(-1.19244 -1.32023 0.0104081)
(-1.15636 -1.09499 0.0100933)
(-1.11829 -0.882247 0.00976107)
(-1.07829 -0.68179 0.00941198)
(-1.03641 -0.49346 0.00904648)
(-0.992704 -0.317167 0.00866503)
(-0.947231 -0.152902 0.00826818)
(-0.900057 -0.00068177 0.00785651)
(-0.0487234 -47.8666 0.000425255)
(0.0568881 -45.7093 -0.00049647)
(0.00633103 -40.0247 -5.48983e-05)
(0.586834 -48.5406 -0.00512107)
(0.585438 -55.8334 -0.00510953)
(0.819004 -51.1107 -0.00714978)
(0.209075 -29.1096 -0.00197693)
(-0.0989699 -27.5878 0.000843985)
(-0.427813 -24.6691 0.00372757)
(-0.709832 -19.6135 0.00619604)
(-0.831236 -14.4447 0.00725479)
(-0.892889 -11.1278 0.0077916)
(-0.956352 -9.41049 0.00834615)
(-1.02968 -8.49776 0.00898635)
(-1.10688 -7.94172 0.00966026)
(-1.18138 -7.51717 0.0103105)
(-1.24814 -7.12526 0.0108933)
(-1.30454 -6.72946 0.0113856)
(-1.34958 -6.32228 0.0117788)
(-1.38348 -5.90733 0.0120748)
(-1.40709 -5.49146 0.0122809)
(-1.42155 -5.08116 0.0124073)
(-1.4281 -4.68146 0.0124645)
(-1.42789 -4.29569 0.0124628)
(-1.42195 -3.92575 0.0124109)
(-1.41112 -3.57245 0.0123165)
(-1.3961 -3.23591 0.0121855)
(-1.37744 -2.91577 0.0120226)
(-1.35555 -2.61148 0.0118316)
(-1.33077 -2.32236 0.0116154)
(-1.30334 -2.04776 0.011376)
(-1.27344 -1.78705 0.0111151)
(-1.24123 -1.53971 0.010834)
(-1.20682 -1.30527 0.0105337)
(-1.1703 -1.08338 0.0102149)
(-1.13174 -0.873755 0.00987841)
(-1.09121 -0.676178 0.0095247)
(-1.04877 -0.490512 0.00915433)
(-1.00448 -0.316681 0.0087678)
(-0.958405 -0.154687 0.00836571)
(-0.910615 -0.00455144 0.00794866)
(-0.0233001 -47.8444 0.00020337)
(0.0113168 -45.7613 -9.877e-05)
(0.0495203 -40.6019 -0.000431779)
(0.504455 -49.1464 -0.00440223)
(0.556224 -56.3171 -0.0048546)
(0.708686 -50.9109 -0.00618721)
(0.146157 -28.5681 -0.00144589)
(-0.181327 -27.0551 0.00156093)
(-0.49863 -24.1543 0.004345)
(-0.758082 -19.2289 0.00661689)
(-0.864286 -14.2051 0.00754338)
(-0.914395 -10.9312 0.00797948)
(-0.969178 -9.21191 0.00845817)
(-1.03585 -8.29517 0.0090403)
(-1.10876 -7.74218 0.00967666)
(-1.18076 -7.32772 0.0103052)
(-1.24668 -6.95034 0.0108805)
(-1.30334 -6.57119 0.0113752)
(-1.34948 -6.18101 0.0117779)
(-1.38491 -5.78232 0.0120873)
(-1.41027 -5.38143 0.0123087)
(-1.42651 -4.98459 0.0124505)
(-1.43474 -4.59681 0.0125224)
(-1.43603 -4.22153 0.0125338)
(-1.43137 -3.86082 0.0124932)
(-1.4216 -3.51567 0.012408)
(-1.40742 -3.18634 0.0122842)
(-1.38938 -2.87266 0.0121268)
(-1.36793 -2.57417 0.0119397)
(-1.34342 -2.29031 0.0117258)
(-1.31611 -2.02049 0.0114875)
(-1.28622 -1.76416 0.0112266)
(-1.25391 -1.52083 0.0109446)
(-1.21931 -1.2901 0.0106427)
(-1.18252 -1.07163 0.0103216)
(-1.14364 -0.86516 0.0099823)
(-1.10273 -0.670504 0.00962532)
(-1.05988 -0.48754 0.00925129)
(-1.01513 -0.316204 0.00886079)
(-0.968573 -0.156507 0.00845446)
(-0.920273 -0.00848027 0.00803296)
(0.00103045 -47.8189 -8.97629e-06)
(-0.0309167 -45.8002 0.000269793)
(0.0869177 -41.1568 -0.000758108)
(0.444308 -49.701 -0.00387738)
(0.578025 -56.757 -0.0050449)
(0.622924 -50.6612 -0.00543896)
(0.105723 -28.0271 -0.00110249)
(-0.242245 -26.4977 0.00209111)
(-0.552543 -23.6488 0.00481482)
(-0.793612 -18.8606 0.00692672)
(-0.887891 -13.978 0.00774953)
(-0.928033 -10.7447 0.00809868)
(-0.975077 -9.02142 0.00850974)
(-1.03575 -8.09861 0.00903943)
(-1.1047 -7.54663 0.00964131)
(-1.17444 -7.14041 0.01025)
(-1.23962 -6.77607 0.0108189)
(-1.29665 -6.41246 0.0113167)
(-1.34397 -6.03853 0.0117298)
(-1.38107 -5.65568 0.0120537)
(-1.40836 -5.26956 0.012292)
(-1.42659 -4.88614 0.0124512)
(-1.43674 -4.51035 0.0125399)
(-1.4398 -4.14571 0.0125667)
(-1.43671 -3.7944 0.0125398)
(-1.42829 -3.45757 0.0124663)
(-1.41522 -3.13566 0.0123523)
(-1.39809 -2.8286 0.0122028)
(-1.37734 -2.53607 0.0120218)
(-1.35335 -2.25759 0.0118125)
(-1.32641 -1.99267 0.0115773)
(-1.29674 -1.74082 0.0113184)
(-1.26453 -1.5016 0.0110373)
(-1.22993 -1.27465 0.0107354)
(-1.19305 -1.05966 0.0104136)
(-1.15401 -0.856411 0.0100728)
(-1.11287 -0.664726 0.00971382)
(-1.06973 -0.484505 0.00933732)
(-1.02466 -0.315699 0.00894394)
(-0.977728 -0.15833 0.00853437)
(-0.929021 -0.0124384 0.00810933)
(0.023762 -47.7925 -0.000207367)
(-0.0692419 -45.8281 0.000604245)
(0.121853 -41.707 -0.00106296)
(0.407088 -50.2637 -0.00355256)
(0.650409 -57.1666 -0.00567669)
(0.555547 -50.3502 -0.00485115)
(0.0857474 -27.4861 -0.00093525)
(-0.281501 -25.9215 0.002432)
(-0.588087 -23.1499 0.00512441)
(-0.815559 -18.5049 0.00711796)
(-0.901822 -13.7609 0.00787125)
(-0.934189 -10.5672 0.00815257)
(-0.974811 -8.83862 0.0085075)
(-1.03031 -7.90801 0.008992)
(-1.09577 -7.3552 0.00956341)
(-1.1635 -6.95551 0.0101545)
(-1.22803 -6.60278 0.0107178)
(-1.28547 -6.25361 0.0112191)
(-1.33398 -5.89514 0.0116426)
(-1.3728 -5.52764 0.0119815)
(-1.40209 -5.15602 0.0122373)
(-1.42243 -4.78591 0.0124148)
(-1.43465 -4.42215 0.0125216)
(-1.43967 -4.06824 0.0125654)
(-1.43835 -3.72647 0.012554)
(-1.43148 -3.39815 0.0124941)
(-1.41976 -3.0838 0.0123919)
(-1.40375 -2.78353 0.0122522)
(-1.38393 -2.4971 0.0120792)
(-1.36067 -2.22415 0.0118764)
(-1.3343 -1.96425 0.0116462)
(-1.30505 -1.71699 0.011391)
(-1.27313 -1.48197 0.0111124)
(-1.23871 -1.25888 0.010812)
(-1.20191 -1.04744 0.0104909)
(-1.16285 -0.847463 0.01015)
(-1.12163 -0.6588 0.00979027)
(-1.07834 -0.481367 0.00941244)
(-1.03306 -0.31513 0.00901724)
(-0.985866 -0.160124 0.00860541)
(-0.936857 -0.0163967 0.00817772)
(0.0436837 -47.7657 -0.000381243)
(-0.10127 -45.849 0.000883747)
(0.156472 -42.2698 -0.00136509)
(0.396015 -50.8918 -0.00345584)
(0.771949 -57.5534 -0.00673752)
(0.500228 -49.9648 -0.00436849)
(0.0875515 -26.9543 -0.000949866)
(-0.30106 -25.3288 0.0026009)
(-0.605961 -22.6555 0.00527983)
(-0.824625 -18.1582 0.00719679)
(-0.906655 -13.551 0.00791352)
(-0.933772 -10.3972 0.00814907)
(-0.969411 -8.66274 0.00846043)
(-1.02064 -7.72306 0.00890763)
(-1.08309 -7.16791 0.0094527)
(-1.14902 -6.77322 0.0100282)
(-1.21297 -6.43076 0.0105863)
(-1.27079 -6.09495 0.011091)
(-1.32046 -5.75116 0.0115246)
(-1.36094 -5.39845 0.011878)
(-1.39221 -5.04101 0.012151)
(-1.41467 -4.68408 0.0123471)
(-1.42903 -4.3323 0.0124725)
(-1.43609 -3.98919 0.0125342)
(-1.43666 -3.65709 0.0125393)
(-1.43151 -3.33739 0.0124944)
(-1.42129 -3.03077 0.0124052)
(-1.40658 -2.73743 0.0122769)
(-1.38786 -2.45724 0.0121136)
(-1.36553 -2.18994 0.0119187)
(-1.3399 -1.93519 0.0116951)
(-1.31125 -1.69261 0.011445)
(-1.27979 -1.46188 0.0111705)
(-1.2457 -1.24273 0.010873)
(-1.20912 -1.03492 0.0105538)
(-1.1702 -0.838276 0.0102141)
(-1.12903 -0.652689 0.0098548)
(-1.08571 -0.478091 0.00947675)
(-1.04033 -0.314464 0.00908074)
(-0.992991 -0.161857 0.0086676)
(-0.943779 -0.0203268 0.00823814)
(0.0608989 -47.7403 -0.00053149)
(-0.127116 -45.872 0.00110934)
(0.187943 -42.8638 -0.00163976)
(0.413248 -51.6426 -0.00360612)
(0.931199 -57.9146 -0.00812751)
(0.44632 -49.4916 -0.00389806)
(0.104111 -26.4378 -0.00108698)
(-0.30496 -24.7242 0.0026331)
(-0.609208 -22.1645 0.00530756)
(-0.82295 -17.8168 0.00718184)
(-0.903999 -13.3453 0.00789038)
(-0.928224 -10.2329 0.00810077)
(-0.960218 -8.49287 0.00838026)
(-1.00798 -7.54337 0.00879723)
(-1.06782 -6.98468 0.00931943)
(-1.13213 -6.59369 0.00988074)
(-1.19548 -6.26029 0.0104337)
(-1.25359 -5.9368 0.0109409)
(-1.30427 -5.60689 0.0113833)
(-1.3463 -5.26842 0.0117502)
(-1.37945 -4.9248 0.0120396)
(-1.40396 -4.58084 0.0122536)
(-1.42043 -4.24098 0.0123974)
(-1.42955 -3.90867 0.0124771)
(-1.43207 -3.5863 0.0124992)
(-1.4287 -3.27534 0.0124699)
(-1.4201 -2.97657 0.0123948)
(-1.40681 -2.69029 0.0122789)
(-1.38933 -2.41648 0.0121264)
(-1.36805 -2.15495 0.0119408)
(-1.34332 -1.90544 0.0117249)
(-1.31541 -1.66765 0.0114814)
(-1.28456 -1.4413 0.0112121)
(-1.25094 -1.22617 0.0109188)
(-1.21474 -1.02205 0.0106028)
(-1.17608 -0.828811 0.0102654)
(-1.13508 -0.646356 0.00990762)
(-1.09185 -0.474642 0.00953037)
(-1.04649 -0.31367 0.00913453)
(-0.999108 -0.1635 0.00872099)
(-0.94979 -0.0242016 0.00829061)
(0.0737035 -47.7177 -0.000643244)
(-0.143718 -45.9054 0.00125427)
(0.214248 -43.5051 -0.00186934)
(0.462078 -52.5628 -0.00403214)
(1.10624 -58.228 -0.00965539)
(0.376822 -48.9186 -0.00329154)
(0.128374 -25.9507 -0.00128668)
(-0.298158 -24.1131 0.00257178)
(-0.602123 -21.6764 0.00524501)
(-0.813662 -17.4781 0.00710042)
(-0.896132 -13.1416 0.00782173)
(-0.919277 -10.0729 0.00802279)
(-0.948697 -8.32816 0.00827975)
(-0.993606 -7.36855 0.00867177)
(-1.05109 -6.80546 0.00917345)
(-1.11384 -6.41705 0.00972114)
(-1.17651 -6.09161 0.0102681)
(-1.23475 -5.77949 0.0107765)
(-1.28625 -5.46268 0.011226)
(-1.32961 -5.13785 0.0116045)
(-1.36447 -4.80766 0.0119088)
(-1.3909 -4.47643 0.0121396)
(-1.40938 -4.14837 0.0123009)
(-1.4205 -3.82683 0.0123981)
(-1.42495 -3.51423 0.012437)
(-1.4234 -3.21208 0.0124235)
(-1.41645 -2.92125 0.012363)
(-1.40467 -2.64213 0.0122602)
(-1.38852 -2.3748 0.0121193)
(-1.36841 -2.11915 0.0119439)
(-1.34469 -1.87499 0.0117369)
(-1.31765 -1.64209 0.0115009)
(-1.28752 -1.42021 0.011238)
(-1.25451 -1.20917 0.0109499)
(-1.2188 -1.00881 0.0106382)
(-1.18052 -0.819037 0.0103042)
(-1.13981 -0.63977 0.00994895)
(-1.09679 -0.470991 0.00957349)
(-1.05156 -0.312718 0.00917874)
(-1.00423 -0.165026 0.00876567)
(-0.954899 -0.027995 0.0083352)
(0.0810983 -47.6989 -0.000707785)
(-0.149725 -45.9548 0.00130675)
(0.23115 -44.2089 -0.00201683)
(0.537825 -53.6734 -0.00469309)
(1.25784 -58.4479 -0.0109787)
(0.269508 -48.2408 -0.00235503)
(0.151887 -25.5182 -0.00147658)
(-0.285356 -23.5015 0.00245814)
(-0.589128 -21.1909 0.00513095)
(-0.800093 -17.1402 0.0069816)
(-0.885451 -12.9382 0.00772849)
(-0.908698 -9.91577 0.00793055)
(-0.936284 -8.16796 0.00817145)
(-0.978685 -7.19832 0.00854157)
(-1.03394 -6.63021 0.00902377)
(-1.09508 -6.24346 0.0095574)
(-1.1569 -5.92501 0.010097)
(-1.21505 -5.62334 0.0106045)
(-1.26711 -5.31886 0.0110589)
(-1.31155 -5.0071 0.0114469)
(-1.34787 -4.6899 0.011764)
(-1.37603 -4.37111 0.0120098)
(-1.39635 -4.05468 0.0121873)
(-1.40937 -3.74386 0.0123009)
(-1.41568 -3.441 0.0123561)
(-1.41591 -3.1477 0.0123581)
(-1.41063 -2.86488 0.0123121)
(-1.40038 -2.59301 0.0122227)
(-1.38562 -2.33225 0.0120939)
(-1.36676 -2.08257 0.0119294)
(-1.34414 -1.84385 0.011732)
(-1.31806 -1.61591 0.0115045)
(-1.28877 -1.39857 0.0112488)
(-1.25647 -1.1917 0.010967)
(-1.22136 -0.99518 0.0106606)
(-1.18358 -0.808927 0.0103309)
(-1.14327 -0.632904 0.0099791)
(-1.10055 -0.46711 0.00960632)
(-1.05555 -0.311582 0.00921354)
(-1.00836 -0.166409 0.00880177)
(-0.959114 -0.0316829 0.00837199)
(0.0828308 -47.6858 -0.000722909)
(-0.145561 -46.0247 0.00127043)
(0.239998 -44.986 -0.00209403)
(0.627319 -54.9464 -0.00547411)
(1.33689 -58.5075 -0.011669)
(0.107619 -47.4685 -0.000942223)
(0.166626 -25.1824 -0.00158804)
(-0.270508 -22.8954 0.00232651)
(-0.573667 -20.7081 0.00499552)
(-0.784854 -16.8022 0.00684818)
(-0.87379 -12.7341 0.00762664)
(-0.897861 -9.76074 0.00783605)
(-0.92409 -8.01178 0.00806506)
(-0.964138 -7.03251 0.00841463)
(-1.01717 -6.45897 0.00887744)
(-1.07657 -6.07309 0.00939587)
(-1.13734 -5.76074 0.00992624)
(-1.19512 -5.46868 0.0104306)
(-1.24744 -5.1758 0.0108873)
(-1.29268 -4.8765 0.0112821)
(-1.33019 -4.57184 0.0116096)
(-1.35981 -4.26518 0.0118682)
(-1.38179 -3.96018 0.0120601)
(-1.39653 -3.65994 0.0121889)
(-1.40459 -3.36679 0.0122593)
(-1.40653 -3.08234 0.0122762)
(-1.40288 -2.80756 0.0122445)
(-1.39415 -2.54299 0.0121684)
(-1.38081 -2.28887 0.012052)
(-1.36324 -2.04523 0.0118987)
(-1.34179 -1.81202 0.0117115)
(-1.31675 -1.58911 0.011493)
(-1.28838 -1.37639 0.0112455)
(-1.25689 -1.17376 0.0109707)
(-1.22248 -0.981129 0.0106703)
(-1.18529 -0.798458 0.0103458)
(-1.14548 -0.625733 0.00999837)
(-1.10317 -0.462975 0.00962913)
(-1.05848 -0.310238 0.00923913)
(-1.01153 -0.167626 0.00882944)
(-0.962449 -0.0352424 0.0084011)
(0.0804919 -47.6787 -0.000702496)
(-0.135496 -46.1147 0.00118262)
(0.243071 -45.834 -0.00212083)
(0.703753 -56.2901 -0.00614126)
(1.29829 -58.3366 -0.0113325)
(-0.110057 -46.6323 0.000957559)
(0.166963 -24.9966 -0.00157264)
(-0.255818 -22.301 0.0021959)
(-0.558164 -20.2286 0.00485968)
(-0.769692 -16.4636 0.00671543)
(-0.862499 -12.5287 0.007528)
(-0.887753 -9.6072 0.00774789)
(-0.912915 -7.85932 0.00796756)
(-0.95063 -6.87099 0.00829676)
(-1.00139 -6.2918 0.0087397)
(-1.05886 -5.90611 0.00924131)
(-1.11834 -5.59906 0.0097604)
(-1.17546 -5.31581 0.010259)
(-1.22773 -5.03382 0.0107152)
(-1.27344 -4.74639 0.0111142)
(-1.31184 -4.4538 0.0114494)
(-1.34266 -4.15892 0.0117185)
(-1.36604 -3.8651 0.0119227)
(-1.38233 -3.5753 0.0120649)
(-1.39198 -3.29177 0.0121492)
(-1.39552 -3.01613 0.0121801)
(-1.39343 -2.74939 0.012162)
(-1.3862 -2.49215 0.0120989)
(-1.37426 -2.24471 0.0119948)
(-1.35801 -2.00716 0.011853)
(-1.33776 -1.77952 0.0116764)
(-1.31383 -1.56171 0.0114675)
(-1.28645 -1.35366 0.0112286)
(-1.25585 -1.15533 0.0109616)
(-1.22221 -0.966647 0.010668)
(-1.18571 -0.787613 0.0103495)
(-1.14648 -0.618238 0.0100071)
(-1.10466 -0.458564 0.00964218)
(-1.06038 -0.308663 0.00925573)
(-1.01376 -0.168654 0.00884886)
(-0.96492 -0.0386524 0.00842266)
(0.0763205 -47.6779 -0.000666089)
(-0.124318 -46.2222 0.00108508)
(0.245741 -46.7312 -0.00214415)
(0.737325 -57.5591 -0.00643448)
(1.12804 -57.8924 -0.00984703)
(-0.353325 -45.7844 0.0030809)
(0.159216 -25.0138 -0.00148663)
(-0.240694 -21.7231 0.0020605)
(-0.543232 -19.7521 0.00472872)
(-0.755092 -16.124 0.00658754)
(-0.852147 -12.3216 0.00743753)
(-0.878762 -9.45466 0.00766947)
(-0.903134 -7.71026 0.00788222)
(-0.938501 -6.71368 0.00819092)
(-0.986921 -6.12872 0.00861348)
(-1.04228 -5.74266 0.00909663)
(-1.10024 -5.44021 0.00960241)
(-1.15641 -5.16502 0.0100927)
(-1.20832 -4.89325 0.0105458)
(-1.25417 -4.61709 0.010946)
(-1.29314 -4.3361 0.0112863)
(-1.32487 -4.05263 0.0115633)
(-1.34942 -3.76973 0.0117775)
(-1.36703 -3.49016 0.0119313)
(-1.3781 -3.21614 0.0120281)
(-1.3831 -2.94923 0.0120718)
(-1.38248 -2.6905 0.0120664)
(-1.37669 -2.44059 0.0120159)
(-1.36614 -2.19984 0.0119239)
(-1.3512 -1.96841 0.0117936)
(-1.33219 -1.74638 0.0116277)
(-1.30939 -1.53371 0.0114288)
(-1.28306 -1.33039 0.011199)
(-1.25341 -1.1364 0.0109403)
(-1.22063 -0.951725 0.0106542)
(-1.18488 -0.776379 0.0103423)
(-1.14632 -0.610402 0.0100057)
(-1.10508 -0.453859 0.00964579)
(-1.06128 -0.306839 0.00926357)
(-1.01506 -0.169475 0.00886021)
(-0.966543 -0.0418937 0.00843682)
(0.0726944 -47.6826 -0.000634441)
(-0.116719 -46.3411 0.00101874)
(0.250641 -47.635 -0.00218696)
(0.703933 -58.6014 -0.00614336)
(0.860676 -57.1883 -0.00751382)
(-0.580067 -45.0166 0.00506026)
(0.159206 -25.2445 -0.00146997)
(-0.223771 -21.1601 0.00190752)
(-0.528531 -19.2776 0.00459966)
(-0.740975 -15.7828 0.00646382)
(-0.842812 -12.1123 0.00735591)
(-0.870956 -9.30265 0.00760137)
(-0.894861 -7.5643 0.00781005)
(-0.92788 -6.56045 0.00809825)
(-0.973937 -5.96974 0.00850017)
(-1.02701 -5.58287 0.00896334)
(-1.08323 -5.28437 0.00945396)
(-1.13817 -5.01657 0.00993354)
(-1.18942 -4.75437 0.0103809)
(-1.2351 -4.48892 0.0107796)
(-1.27435 -4.21905 0.0111222)
(-1.30669 -3.9466 0.0114046)
(-1.33213 -3.67431 0.0116267)
(-1.35084 -3.40476 0.01179)
(-1.36315 -3.14008 0.0118976)
(-1.36947 -2.88181 0.0119528)
(-1.37022 -2.63102 0.0119593)
(-1.36579 -2.38839 0.0119208)
(-1.35658 -2.15433 0.0118405)
(-1.34294 -1.92904 0.0117215)
(-1.32517 -1.71264 0.0115664)
(-1.30354 -1.50515 0.0113777)
(-1.2783 -1.30659 0.0111574)
(-1.24965 -1.11699 0.0109075)
(-1.21779 -0.936359 0.0106294)
(-1.18287 -0.764747 0.0103247)
(-1.14504 -0.602213 0.00999455)
(-1.10445 -0.448845 0.00964027)
(-1.06121 -0.30475 0.00926294)
(-1.01546 -0.170071 0.00886372)
(-0.967339 -0.0449488 0.00844377)
(0.07109 -47.6912 -0.000620439)
(-0.115009 -46.4636 0.00100381)
(0.257334 -48.4884 -0.00224544)
(0.599542 -59.3178 -0.00523265)
(0.568089 -56.2952 -0.00496037)
(-0.764544 -44.4051 0.00667085)
(0.17614 -25.6609 -0.00160325)