/*--------------------------------*- C++ -*----------------------------------*\
| =========                 |                                                 |
| \\      /  F ield         | OpenFOAM: The Open Source CFD Toolbox           |
|  \\    /   O peration     | Version:  v2012                                 |
|   \\  /    A nd           | Website:  www.openfoam.com                      |
|    \\/     M anipulation  |                                                 |
\*---------------------------------------------------------------------------*/
FoamFile
{
    version     2.0;
    format      ascii;
    class       surfaceScalarField;
    location    "0.9";
    object      phi;
}
// * * * * * * * * * * * * * * * * * * * * * * * * * * * * * * * * * * * * * //

dimensions      [0 3 -1 0 0 0 0];
oriented        oriented;


internalField   nonuniform List<scalar> 
39020
(
5.4117e-15
-6.98007e-13
1.81465e-19
2.20832e-14
-2.18361e-12
1.4345e-18
5.0652e-14
-3.80483e-12
-1.3297e-18
9.2759e-14
-5.56632e-12
2.82899e-18
1.49811e-13
-7.47691e-12
5.47745e-18
2.23861e-13
-9.5433e-12
1.09459e-17
3.16893e-13
-1.17747e-11
1.56599e-17
4.31417e-13
-1.41794e-11
3.43927e-17
5.69829e-13
-1.67643e-11
3.31704e-17
7.35129e-13
-1.954e-11
8.4556e-17
9.28438e-13
-2.25108e-11
1.08018e-17
1.1535e-12
-2.56848e-11
6.63066e-17
1.41243e-12
-2.90721e-11
4.68217e-17
1.7073e-12
-3.2673e-11
6.75127e-17
2.03954e-12
-3.64977e-11
4.64657e-17
2.41085e-12
-4.05451e-11
6.8359e-17
2.82218e-12
-4.48194e-11
6.33604e-17
3.27447e-12
-4.93217e-11
6.93996e-17
3.76871e-12
-5.40512e-11
8.17593e-17
4.30501e-12
-5.90024e-11
5.38586e-18
4.88289e-12
-6.41661e-11
4.89312e-17
5.49816e-12
-6.95357e-11
-7.10116e-18
6.14894e-12
-7.5091e-11
2.86544e-17
6.83473e-12
-8.08345e-11
-2.81532e-17
7.55789e-12
-8.6746e-11
-1.00479e-16
8.32015e-12
-9.28022e-11
-6.47746e-20
9.11325e-12
-9.89535e-11
3.35674e-17
9.92365e-12
-1.05137e-10
3.5478e-17
1.07398e-11
-1.11333e-10
8.26012e-17
1.15554e-11
-1.17508e-10
9.93745e-18
1.23735e-11
-1.23667e-10
1.08925e-17
1.31976e-11
-1.29768e-10
8.03677e-17
1.40178e-11
-1.35714e-10
-6.52663e-17
1.48157e-11
-1.41385e-10
-2.7561e-16
1.55723e-11
-1.46672e-10
-3.69988e-16
1.62726e-11
-1.51508e-10
-1.41861e-16
1.69027e-11
-1.55836e-10
2.38169e-16
1.74526e-11
-1.59641e-10
6.53916e-16
1.79136e-11
-1.629e-10
8.5628e-16
1.82788e-11
-1.65553e-10
7.41609e-16
1.85412e-11
-1.67635e-10
3.62161e-16
1.86913e-11
-1.68949e-10
-1.78823e-16
1.87185e-11
-1.69478e-10
-6.93664e-16
1.86135e-11
-1.69031e-10
-1.03908e-15
1.83663e-11
-1.67482e-10
-1.11196e-15
1.7962e-11
-1.64823e-10
-9.22508e-16
1.73862e-11
-1.60884e-10
-5.89494e-16
1.66387e-11
-1.5593e-10
-2.15277e-16
1.57394e-11
-1.50135e-10
1.70623e-16
1.47002e-11
-1.43553e-10
2.53319e-16
1.35234e-11
-1.36142e-10
1.39907e-16
1.2214e-11
-1.27789e-10
1.60327e-17
1.07824e-11
-1.18542e-10
-4.08718e-17
9.24551e-12
-1.08442e-10
-4.17137e-17
7.62634e-12
-9.74774e-11
-1.92724e-17
5.9551e-12
-8.55811e-11
2.87819e-20
4.2702e-12
-7.25459e-11
7.10149e-18
2.62991e-12
-5.78166e-11
5.34326e-18
1.10633e-12
-4.03144e-11
8.85251e-19
-1.72134e-11
-2.35799e-18
7.0169e-15
-7.05025e-13
-2.732e-21
2.84591e-14
-2.20505e-12
2.167e-19
6.48191e-14
-3.84116e-12
2.40097e-18
1.17439e-13
-5.61892e-12
-2.03754e-19
1.87369e-13
-7.54682e-12
-3.26067e-18
2.76194e-13
-9.63209e-12
-6.9113e-18
3.85237e-13
-1.18837e-11
-1.30372e-17
5.16261e-13
-1.43103e-11
-1.51061e-17
6.70936e-13
-1.69188e-11
-3.34784e-17
8.51481e-13
-1.97198e-11
-8.17769e-18
1.05834e-12
-2.27183e-11
-8.17458e-17
1.29491e-12
-2.59217e-11
-2.96129e-17
1.56278e-12
-2.93399e-11
-5.1335e-17
1.86413e-12
-3.2974e-11
-3.63086e-17
2.20052e-12
-3.68338e-11
-5.26065e-17
2.5739e-12
-4.09179e-11
-4.13527e-17
2.98552e-12
-4.52304e-11
-5.52515e-17
3.43651e-12
-4.97719e-11
-1.00269e-16
3.92885e-12
-5.45416e-11
-1.50346e-16
4.46519e-12
-5.95327e-11
-6.03935e-17
5.04358e-12
-6.47381e-11
5.82525e-17
5.65632e-12
-7.01515e-11
6.41027e-17
6.29884e-12
-7.57491e-11
4.43435e-17
6.97344e-12
-8.15292e-11
-1.05924e-16
7.69101e-12
-8.74681e-11
-2.05579e-16
8.45949e-12
-9.35453e-11
-7.82713e-17
9.26568e-12
-9.97212e-11
3.99575e-18
1.00833e-11
-1.05937e-10
9.70069e-17
1.08907e-11
-1.12167e-10
2.44526e-16
1.1682e-11
-1.18363e-10
1.75505e-16
1.24766e-11
-1.24514e-10
1.50172e-16
1.32951e-11
-1.30581e-10
1.28619e-16
1.41289e-11
-1.36484e-10
-3.17188e-16
1.49482e-11
-1.42119e-10
-8.70672e-16
1.57202e-11
-1.47378e-10
-1.06845e-15
1.64232e-11
-1.52187e-10
-4.13579e-16
1.70397e-11
-1.56489e-10
5.92046e-16
1.75641e-11
-1.60258e-10
1.67209e-15
1.79946e-11
-1.63458e-10
2.16481e-15
1.8333e-11
-1.6601e-10
1.8444e-15
1.85789e-11
-1.67945e-10
8.63337e-16
1.87248e-11
-1.69073e-10
-5.07532e-16
1.87585e-11
-1.69395e-10
-1.80055e-15
1.86686e-11
-1.68742e-10
-2.65711e-15
1.84407e-11
-1.67015e-10
-2.82981e-15
1.80484e-11
-1.64229e-10
-2.3451e-15
1.7463e-11
-1.60215e-10
-1.49343e-15
1.66861e-11
-1.55195e-10
-5.64213e-16
1.57606e-11
-1.49287e-10
4.97055e-16
1.47079e-11
-1.42548e-10
7.13986e-16
1.35264e-11
-1.34969e-10
3.96336e-16
1.22147e-11
-1.26465e-10
4.42437e-17
1.078e-11
-1.17092e-10
-1.25526e-16
9.23824e-12
-1.06892e-10
-1.27977e-16
7.61285e-12
-9.58519e-11
-5.77297e-17
5.93467e-12
-8.39078e-11
5.71109e-18
4.24251e-12
-7.0859e-11
2.97918e-17
2.59444e-12
-5.61714e-11
2.23993e-17
1.06398e-12
-3.87841e-11
4.57723e-18
-1.61478e-11
-8.52452e-18
6.86759e-15
-7.11893e-13
2.9823e-20
2.7716e-14
-2.22589e-12
7.97301e-19
6.32453e-14
-3.87667e-12
4.49501e-18
1.14645e-13
-5.67035e-12
3.49437e-19
1.83408e-13
-7.61548e-12
1.10811e-17
2.71045e-13
-9.71976e-12
-7.08263e-18
3.7943e-13
-1.19921e-11
-4.12984e-18
5.10606e-13
-1.44415e-11
-4.19059e-18
6.6656e-13
-1.70747e-11
-8.732e-18
8.49547e-13
-1.99027e-11
1.92998e-18
1.06153e-12
-2.29299e-11
-4.22793e-18
1.30511e-12
-2.61642e-11
5.23104e-17
1.58054e-12
-2.96157e-11
-3.99603e-17
1.8911e-12
-3.32846e-11
9.42826e-18
2.23815e-12
-3.71807e-11
-1.17129e-17
2.6231e-12
-4.13026e-11
-2.0055e-18
3.04655e-12
-4.56538e-11
-2.0839e-17
3.50941e-12
-5.0235e-11
-7.51067e-17
4.01412e-12
-5.5045e-11
-1.23106e-16
4.56282e-12
-6.0077e-11
-1.55173e-16
5.15398e-12
-6.53228e-11
-4.39638e-19
5.77893e-12
-7.07766e-11
1.75949e-16
6.42985e-12
-7.64141e-11
2.2855e-16
7.10943e-12
-8.22311e-11
2.18068e-17
7.83319e-12
-8.82005e-11
-2.41983e-16
8.61322e-12
-9.43021e-11
-3.03239e-16
9.4366e-12
-1.00502e-10
-2.08122e-16
1.02701e-11
-1.06744e-10
8.8442e-17
1.10822e-11
-1.13002e-10
4.49934e-16
1.18654e-11
-1.19215e-10
5.09661e-16
1.26477e-11
-1.25363e-10
4.15631e-16
1.3463e-11
-1.31402e-10
1.40523e-16
1.43093e-11
-1.37266e-10
-6.26638e-16
1.51501e-11
-1.42864e-10
-1.47279e-15
1.59398e-11
-1.48089e-10
-1.73655e-15
1.66476e-11
-1.52865e-10
-6.93593e-16
1.72527e-11
-1.57135e-10
9.12906e-16
1.7754e-11
-1.60868e-10
2.66111e-15
1.81559e-11
-1.64011e-10
3.44788e-15
1.84675e-11
-1.66466e-10
2.92006e-15
1.86944e-11
-1.68254e-10
1.32795e-15
1.88308e-11
-1.6919e-10
-8.91416e-16
1.88644e-11
-1.69293e-10
-2.99357e-15
1.87832e-11
-1.68422e-10
-4.39335e-15
1.85695e-11
-1.66507e-10
-4.68476e-15
1.81848e-11
-1.63596e-10
-3.90028e-15
1.75842e-11
-1.5952e-10
-2.50015e-15
1.677e-11
-1.54451e-10
-9.51259e-16
1.58093e-11
-1.48437e-10
8.63524e-16
1.47349e-11
-1.41537e-10
1.25195e-15
1.35418e-11
-1.33785e-10
7.0765e-16
1.22219e-11
-1.25126e-10
8.19616e-17
1.07784e-11
-1.15626e-10
-2.31703e-16
9.22596e-12
-1.05327e-10
-2.4188e-16
7.58813e-12
-9.42136e-11
-1.11771e-16
5.89669e-12
-8.22229e-11
1.14291e-17
4.19139e-12
-6.91608e-11
6.07312e-17
2.5321e-12
-5.45158e-11
4.65088e-17
1.00642e-12
-3.72579e-11
9.21772e-18
-1.51383e-11
-1.86958e-17
8.06161e-15
-7.19956e-13
-1.87076e-19
3.25278e-14
-2.25037e-12
-6.95399e-19
7.41456e-14
-3.91826e-12
4.2391e-18
1.33946e-13
-5.73016e-12
2.283e-18
2.13167e-13
-7.69459e-12
1.22684e-17
3.1295e-13
-9.81952e-12
-9.37341e-20
4.34643e-13
-1.21138e-11
-2.73579e-19
5.79722e-13
-1.45866e-11
-4.44627e-18
7.49633e-13
-1.72447e-11
-4.83127e-18
9.46021e-13
-2.00991e-11
-6.33851e-18
1.17073e-12
-2.31544e-11
-2.62333e-17
1.42596e-12
-2.64186e-11
2.63461e-17
1.71154e-12
-2.99019e-11
-5.66965e-17
2.0311e-12
-3.36044e-11
1.77873e-17
2.38623e-12
-3.75359e-11
3.04737e-18
2.77854e-12
-4.16948e-11
2.72264e-17
3.20851e-12
-4.60845e-11
4.00071e-18
3.67732e-12
-5.07053e-11
-6.75024e-17
4.18857e-12
-5.55557e-11
-1.06429e-16
4.74493e-12
-6.06281e-11
-9.27009e-17
5.34439e-12
-6.59142e-11
3.99031e-17
5.97763e-12
-7.14081e-11
1.90995e-16
6.63526e-12
-7.70852e-11
2.11352e-16
7.32032e-12
-8.294e-11
2.77702e-17
8.05013e-12
-8.89427e-11
-2.3604e-16
8.83875e-12
-9.5072e-11
-3.76379e-16
9.67495e-12
-1.01294e-10
-2.91139e-16
1.05224e-11
-1.07557e-10
7.16156e-17
1.13427e-11
-1.13835e-10
5.30538e-16
1.21257e-11
-1.20064e-10
7.27237e-16
1.29023e-11
-1.26213e-10
6.24164e-16
1.37142e-11
-1.32235e-10
1.53894e-16
1.45676e-11
-1.38065e-10
-7.94271e-16
1.54244e-11
-1.4362e-10
-1.76939e-15
1.62282e-11
-1.48802e-10
-2.04844e-15
1.69376e-11
-1.53538e-10
-8.48226e-16
1.75305e-11
-1.57775e-10
1.09274e-15
1.8012e-11
-1.61473e-10
3.24294e-15
1.83923e-11
-1.64562e-10
4.2025e-15
1.8684e-11
-1.66921e-10
3.52815e-15
1.88945e-11
-1.68557e-10
1.55169e-15
1.9018e-11
-1.69291e-10
-1.17504e-15
1.90418e-11
-1.69163e-10
-3.75114e-15
1.89542e-11
-1.6806e-10
-5.45739e-15
1.87367e-11
-1.65952e-10
-5.80664e-15
1.83446e-11
-1.62917e-10
-4.83807e-15
1.77241e-11
-1.58792e-10
-3.11364e-15
1.68773e-11
-1.53686e-10
-1.18998e-15
1.58843e-11
-1.47571e-10
1.082e-15
1.47852e-11
-1.40512e-10
1.59599e-15
1.35736e-11
-1.32584e-10
9.18766e-16
1.22377e-11
-1.23767e-10
1.14145e-16
1.07786e-11
-1.1414e-10
-3.02473e-16
9.20994e-12
-1.03743e-10
-3.23946e-16
7.55514e-12
-9.25575e-11
-1.53203e-16
5.84665e-12
-8.05213e-11
1.51199e-17
4.12571e-12
-6.74475e-11
8.54479e-17
2.4562e-12
-5.28499e-11
6.66574e-17
9.46654e-13
-3.5747e-11
1.32107e-17
-1.41874e-11
-2.73179e-17
7.94555e-15
-7.27901e-13
3.63059e-20
3.21482e-14
-2.27457e-12
2.74171e-19
7.34712e-14
-3.95958e-12
2.34161e-18
1.33048e-13
-5.78978e-12
-2.15793e-18
2.12375e-13
-7.77384e-12
6.80518e-18
3.12869e-13
-9.92001e-12
-1.84889e-18
4.36265e-13
-1.22372e-11
-5.51785e-18
5.84321e-13
-1.47347e-11
-1.5599e-17
7.58966e-13
-1.74194e-11
-5.73153e-18
9.62011e-13
-2.03023e-11
-9.31976e-18
1.1956e-12
-2.33879e-11
-2.22579e-17
1.46191e-12
-2.66841e-11
3.27639e-17
1.76064e-12
-3.02014e-11
-4.86694e-17
2.09522e-12
-3.39394e-11
2.85784e-17
2.4669e-12
-3.79079e-11
1.20561e-17
2.87691e-12
-4.2105e-11
4.93076e-17
3.32491e-12
-4.65339e-11
2.10309e-17
3.81186e-12
-5.11947e-11
-5.49057e-17
4.34199e-12
-5.60853e-11
-7.76695e-17
4.91734e-12
-6.11979e-11
-1.20567e-16
5.53545e-12
-6.65238e-11
1.25639e-17
6.1864e-12
-7.20567e-11
1.99782e-16
6.86012e-12
-7.77723e-11
2.31532e-16
7.56012e-12
-8.36643e-11
6.15207e-17
8.30464e-12
-8.97014e-11
-2.0594e-16
9.10857e-12
-9.58595e-11
-3.89639e-16
9.96148e-12
-1.02103e-10
-3.33388e-16
1.08254e-11
-1.08382e-10
2.47699e-17
1.16582e-11
-1.14674e-10
5.04392e-16
1.24479e-11
-1.20915e-10
7.90142e-16
1.32264e-11
-1.27069e-10
7.22727e-16
1.40396e-11
-1.33081e-10
1.9036e-16
1.49003e-11
-1.3888e-10
-7.8599e-16
1.57702e-11
-1.44387e-10
-1.75551e-15
1.65837e-11
-1.49516e-10
-2.03148e-15
1.72904e-11
-1.54206e-10
-8.81564e-16
1.78695e-11
-1.58407e-10
1.10979e-15
1.83342e-11
-1.62069e-10
3.37044e-15
1.87e-11
-1.65102e-10
4.3666e-15
1.89794e-11
-1.67362e-10
3.61744e-15
1.91771e-11
-1.68843e-10
1.52426e-15
1.92849e-11
-1.69371e-10
-1.31635e-15
1.92891e-11
-1.69004e-10
-3.97896e-15
1.91793e-11
-1.67665e-10
-5.72375e-15
1.89386e-11
-1.65359e-10
-6.06713e-15
1.85233e-11
-1.622e-10
-5.05518e-15
1.78784e-11
-1.58029e-10
-3.26829e-15
1.7005e-11
-1.52891e-10
-1.28262e-15
1.59844e-11
-1.46682e-10
1.13829e-15
1.48584e-11
-1.39465e-10
1.7194e-15
1.36214e-11
-1.31362e-10
1.01192e-15
1.22622e-11
-1.22386e-10
1.36629e-16
1.07811e-11
-1.12631e-10
-3.3288e-16
9.19136e-12
-1.02135e-10
-3.67336e-16
7.51612e-12
-9.08797e-11
-1.78947e-16
5.78828e-12
-7.88006e-11
1.51213e-17
4.05117e-12
-6.57192e-11
9.9716e-17
2.37433e-12
-5.11778e-11
7.92e-17
8.87653e-13
-3.42594e-11
1.52967e-17
-1.32951e-11
-3.40592e-17
8.8664e-15
-7.36768e-13
1.26746e-19
3.58994e-14
-2.30159e-12
2.74992e-19
8.20238e-14
-4.00569e-12
2.91394e-18
1.48311e-13
-5.85611e-12
-4.6411e-18
2.36143e-13
-7.86156e-12
1.10711e-17
3.46729e-13
-1.00305e-11
1.14005e-17
4.81409e-13
-1.23717e-11
1.42153e-17
6.41545e-13
-1.48948e-11
3.87109e-18
8.28835e-13
-1.76067e-11
-1.39404e-19
1.04472e-12
-2.05183e-11
-1.48048e-17
1.29111e-12
-2.36342e-11
-2.35165e-17
1.56992e-12
-2.69625e-11
1.11953e-17
1.8813e-12
-3.05138e-11
-8.01694e-17
2.22847e-12
-3.42874e-11
-2.95729e-17
2.61299e-12
-3.82929e-11
-4.1703e-17
3.03637e-12
-4.25285e-11
1.61235e-17
3.49788e-12
-4.6997e-11
-1.58959e-17
3.999e-12
-5.16985e-11
-8.51097e-17
4.54444e-12
-5.66302e-11
-1.08876e-16
5.13649e-12
-6.17838e-11
-1.01546e-16
5.77166e-12
-6.71503e-11
1.72427e-17
6.43923e-12
-7.27231e-11
1.77127e-16
7.12898e-12
-7.84771e-11
1.86028e-16
7.84539e-12
-8.44061e-11
2.4561e-17
8.60782e-12
-9.04774e-11
-1.92503e-16
9.43086e-12
-9.66644e-11
-3.46463e-16
1.03028e-11
-1.02929e-10
-2.89182e-16
1.11833e-11
-1.09222e-10
2.97353e-17
1.20289e-11
-1.15525e-10
4.51026e-16
1.2828e-11
-1.21775e-10
7.36934e-16
1.36139e-11
-1.27935e-10
6.96654e-16
1.44346e-11
-1.33938e-10
1.96911e-16
1.53057e-11
-1.39706e-10
-6.84527e-16
1.61863e-11
-1.45162e-10
-1.54945e-15
1.70039e-11
-1.50232e-10
-1.80852e-15
1.7702e-11
-1.5487e-10
-8.41942e-16
1.82653e-11
-1.59028e-10
9.61547e-16
1.87166e-11
-1.62646e-10
3.05517e-15
1.90755e-11
-1.65615e-10
3.95122e-15
1.93505e-11
-1.6777e-10
3.2001e-15
1.95394e-11
-1.69097e-10
1.26364e-15
1.96288e-11
-1.69426e-10
-1.28468e-15
1.96038e-11
-1.68833e-10
-3.63168e-15
1.94561e-11
-1.67267e-10
-5.13498e-15
1.91733e-11
-1.64766e-10
-5.40615e-15
1.8719e-11
-1.61478e-10
-4.49813e-15
1.80454e-11
-1.57244e-10
-2.92579e-15
1.71517e-11
-1.5206e-10
-1.17635e-15
1.61084e-11
-1.45752e-10
1.01594e-15
1.49536e-11
-1.38383e-10
1.58705e-15
1.36852e-11
-1.30109e-10
9.61829e-16
1.22956e-11
-1.20979e-10
1.45723e-16
1.07867e-11
-1.11096e-10
-3.12125e-16
9.17162e-12
-1.00503e-10
-3.58962e-16
7.47317e-12
-8.91778e-11
-1.81075e-16
5.7246e-12
-7.70585e-11
1.30469e-17
3.97184e-12
-6.39753e-11
1.01924e-16
2.29105e-12
-4.95023e-11
8.26257e-17
8.31242e-13
-3.27991e-11
1.56035e-17
-1.24592e-11
-3.73777e-17
8.94308e-15
-7.45711e-13
-1.19618e-19
3.62939e-14
-2.32894e-12
6.60255e-19
8.3115e-14
-4.0525e-12
1.03045e-18
1.50688e-13
-5.92363e-12
5.16544e-18
2.40387e-13
-7.95128e-12
-4.05487e-18
3.53874e-13
-1.01439e-11
3.70444e-18
4.92748e-13
-1.25107e-11
1.88643e-17
6.5827e-13
-1.5061e-11
-4.27359e-17
8.53632e-13
-1.78017e-11
2.70948e-17
1.07944e-12
-2.07441e-11
-3.48565e-17
1.33775e-12
-2.38925e-11
-1.39003e-17
1.63039e-12
-2.7255e-11
8.67267e-19
1.95859e-12
-3.08418e-11
-1.27344e-17
2.32442e-12
-3.46525e-11
1.98297e-17
2.72902e-12
-3.86966e-11
2.79165e-18
3.17403e-12
-4.29718e-11
9.83645e-17
3.65745e-12
-4.74811e-11
1.79368e-17
4.18138e-12
-5.22239e-11
-2.79996e-17
4.75052e-12
-5.71976e-11
-6.43169e-17
5.36652e-12
-6.23933e-11
-1.18471e-16
6.02557e-12
-6.78007e-11
3.45485e-17
6.71587e-12
-7.34129e-11
2.25837e-16
7.42696e-12
-7.9205e-11
1.9685e-16
8.165e-12
-8.51707e-11
-1.65888e-17
8.95103e-12
-9.12754e-11
-2.4253e-16
9.79888e-12
-9.74906e-11
-3.561e-16
1.06939e-11
-1.03776e-10
-2.35478e-16
1.15929e-11
-1.10083e-10
8.80777e-17
1.24516e-11
-1.16395e-10
4.33727e-16
1.32618e-11
-1.22651e-10
6.4798e-16
1.40599e-11
-1.28811e-10
5.85882e-16
1.48952e-11
-1.34803e-10
1.50848e-16
1.57809e-11
-1.4054e-10
-5.62202e-16
1.66708e-11
-1.45944e-10
-1.25905e-15
1.74863e-11
-1.50954e-10
-1.48775e-15
1.81699e-11
-1.55534e-10
-7.68159e-16
1.87157e-11
-1.59638e-10
6.79118e-16
1.91566e-11
-1.63195e-10
2.38994e-15
1.95153e-11
-1.66085e-10
3.07653e-15
1.97927e-11
-1.6813e-10
2.38532e-15
1.99758e-11
-1.69309e-10
8.34454e-16
2.00441e-11
-1.69456e-10
-1.0848e-15
1.99812e-11
-1.68663e-10
-2.78176e-15
1.97816e-11
-1.66893e-10
-3.81244e-15
1.94398e-11
-1.6421e-10
-3.95889e-15
1.89324e-11
-1.60781e-10
-3.28044e-15
1.82256e-11
-1.56454e-10
-2.14808e-15
1.73166e-11
-1.51191e-10
-9.03559e-16
1.62546e-11
-1.4477e-10
7.56655e-16
1.50695e-11
-1.37252e-10
1.23635e-15
1.37644e-11
-1.28819e-10
7.80605e-16
1.23382e-11
-1.19541e-10
1.33469e-16
1.07963e-11
-1.09535e-10
-2.52803e-16
9.15213e-12
-9.88444e-11
-3.06171e-16
7.42825e-12
-8.74501e-11
-1.6114e-16
5.65824e-12
-7.52933e-11
9.70368e-18
3.89092e-12
-6.22156e-11
9.2238e-17
2.20949e-12
-4.78258e-11
7.59727e-17
7.78855e-13
-3.13682e-11
1.2925e-17
-1.16762e-11
-3.84526e-17
9.71457e-15
-7.55425e-13
1.82564e-19
3.94455e-14
-2.35867e-12
-1.85221e-19
9.03299e-14
-4.10337e-12
1.54912e-18
1.63649e-13
-5.99691e-12
1.53009e-18
2.60754e-13
-8.04838e-12
-7.43736e-20
3.83224e-13
-1.02663e-11
1.5052e-17
5.3242e-13
-1.26598e-11
3.69226e-17
7.09378e-13
-1.52385e-11
-2.51438e-17
9.17212e-13
-1.80091e-11
3.34757e-17
1.15633e-12
-2.09832e-11
-3.69328e-17
1.42867e-12
-2.41649e-11
-1.09493e-17
1.73593e-12
-2.75624e-11
-1.22139e-17
2.07978e-12
-3.11857e-11
-3.70729e-17
2.46211e-12
-3.50344e-11
-2.87165e-17
2.88429e-12
-3.9118e-11
-4.33399e-17
3.34809e-12
-4.34341e-11
6.52453e-17
3.8512e-12
-4.79854e-11
-2.2495e-17
4.39596e-12
-5.27709e-11
-7.91693e-17
4.98763e-12
-5.77876e-11
-1.11386e-16
5.62828e-12
-6.30257e-11
-7.28145e-17
6.31225e-12
-6.8475e-11
7.69063e-17
7.02622e-12
-7.4128e-11
2.22903e-16
7.75999e-12
-7.99588e-11
1.45899e-16
8.52221e-12
-8.59603e-11
-6.29451e-17
9.33558e-12
-9.20974e-11
-2.5564e-16
1.02124e-11
-9.83402e-11
-3.25416e-16
1.11338e-11
-1.04647e-10
-1.48377e-16
1.20527e-11
-1.10969e-10
1.75776e-16
1.29251e-11
-1.17288e-10
4.39252e-16
1.37475e-11
-1.23546e-10
5.44904e-16
1.45618e-11
-1.29701e-10
4.22196e-16
1.54175e-11
-1.35676e-10
5.36213e-17
1.6322e-11
-1.4138e-10
-4.56385e-16
1.72204e-11
-1.46735e-10
-9.42458e-16
1.80288e-11
-1.51684e-10
-1.12424e-15
1.86934e-11
-1.562e-10
-6.72753e-16
1.92203e-11
-1.60235e-10
3.19697e-16
1.96531e-11
-1.63712e-10
1.50807e-15
2.0016e-11
-1.66504e-10
1.91459e-15
2.02997e-11
-1.68431e-10
1.32815e-15
2.04777e-11
-1.69471e-10
3.18611e-16
2.05219e-11
-1.69464e-10
-7.45298e-16
2.04142e-11
-1.68505e-10
-1.56771e-15
2.01522e-11
-1.66566e-10
-1.9713e-15
1.97387e-11
-1.63716e-10
-1.95919e-15
1.91671e-11
-1.60132e-10
-1.59666e-15
1.84226e-11
-1.55669e-10
-1.06061e-15
1.75003e-11
-1.5028e-10
-4.75142e-16
1.64213e-11
-1.43725e-10
3.95873e-16
1.52042e-11
-1.36063e-10
7.10338e-16
1.38578e-11
-1.27484e-10
4.86867e-16
1.239e-11
-1.1807e-10
1.00225e-16
1.08106e-11
-1.07945e-10
-1.59687e-16
9.1342e-12
-9.71584e-11
-2.1174e-16
7.3831e-12
-8.56956e-11
-1.18452e-16
5.59139e-12
-7.35045e-11
7.46308e-18
3.81091e-12
-6.04407e-11
7.29893e-17
2.13171e-12
-4.61506e-11
6.07234e-17
7.31244e-13
-2.99677e-11
7.92673e-18
-1.09415e-11
-3.67935e-17
9.99157e-15
-7.65414e-13
5.316e-20
4.06228e-14
-2.3893e-12
4.00772e-19
9.31427e-14
-4.15588e-12
5.19447e-19
1.68976e-13
-6.07275e-12
5.04492e-19
2.69674e-13
-8.14911e-12
-4.11009e-18
3.97034e-13
-1.03936e-11
1.08825e-17
5.52691e-13
-1.28154e-11
2.95929e-17
7.37871e-13
-1.54243e-11
-3.40578e-17
9.55897e-13
-1.82269e-11
3.33942e-17
1.20735e-12
-2.12347e-11
-2.97018e-17
1.49428e-12
-2.44519e-11
-2.51911e-18
1.81834e-12
-2.78867e-11
-3.76045e-18
2.18123e-12
-3.15487e-11
-2.41348e-17
2.58458e-12
-3.54376e-11
-2.05773e-17
3.02957e-12
-3.95627e-11
-3.5855e-17
3.51766e-12
-4.39213e-11
6.64328e-17
4.04638e-12
-4.85161e-11
-1.57413e-17
4.61778e-12
-5.33453e-11
-9.37524e-17
5.23783e-12
-5.84055e-11
-9.73063e-17
5.90791e-12
-6.36869e-11
-8.75105e-17
6.6213e-12
-6.91784e-11
1.07433e-16
7.36339e-12
-7.48721e-11
2.8594e-16
8.12412e-12
-8.07418e-11
1.64008e-16
8.91429e-12
-8.67791e-11
-1.28192e-16
9.75859e-12
-9.29478e-11
-3.52848e-16
1.06681e-11
-9.92174e-11
-3.5678e-16
1.16194e-11
-1.05545e-10
-6.81157e-17
1.25606e-11
-1.11881e-10
3.079e-16
1.34482e-11
-1.18206e-10
4.99746e-16
1.42848e-11
-1.24462e-10
4.5967e-16
1.51183e-11
-1.30605e-10
2.37007e-16
1.59982e-11
-1.36558e-10
-7.81526e-17
1.69242e-11
-1.42228e-10
-3.76013e-16
1.78308e-11
-1.47535e-10
-6.33404e-16
1.86297e-11
-1.52426e-10
-7.53866e-16
1.9273e-11
-1.56871e-10
-5.60302e-16
1.97806e-11
-1.60819e-10
-4.8282e-17
2.02061e-11
-1.64193e-10
5.67668e-16
2.05739e-11
-1.66868e-10
6.71735e-16
2.08636e-11
-1.68668e-10
2.11824e-16
2.10349e-11
-1.69583e-10
-1.95416e-16
2.10516e-11
-1.6945e-10
-3.21564e-16
2.08943e-11
-1.68364e-10
-1.88451e-16
2.05639e-11
-1.66289e-10
8.91192e-17
2.00717e-11
-1.63289e-10
2.69169e-16
1.9429e-11
-1.59537e-10
2.81615e-16
1.86419e-11
-1.54892e-10
1.68974e-16
1.77043e-11
-1.49325e-10
2.07399e-17
1.66068e-11
-1.42612e-10
2.22242e-18
1.53549e-11
-1.34809e-10
1.02814e-16
1.39638e-11
-1.26099e-10
1.30337e-16
1.24505e-11
-1.16561e-10
4.63169e-17
1.08302e-11
-1.06323e-10
-5.5364e-17
9.11895e-12
-9.54434e-11
-9.60572e-17
7.33925e-12
-8.39135e-11
-6.17147e-17
5.52582e-12
-7.16919e-11
6.91879e-18
3.7336e-12
-5.86515e-11
4.75931e-17
2.05897e-12
-4.44786e-11
3.88462e-17
6.88609e-13
-2.85972e-11
2.74391e-19
-1.02501e-11
-3.43535e-17
1.06987e-14
-7.7611e-13
8.76564e-20
4.35452e-14
-2.42212e-12
1.71776e-18
9.98339e-14
-4.21218e-12
-1.42914e-18
1.81064e-13
-6.15401e-12
-1.68857e-18
2.88802e-13
-8.25688e-12
-5.47441e-18
4.24837e-13
-1.05295e-11
1.17883e-17
5.90732e-13
-1.29812e-11
3.03615e-17
7.87618e-13
-1.56217e-11
-3.49882e-17
1.01879e-12
-1.84578e-11
2.43008e-17
1.28473e-12
-2.15009e-11
-4.62169e-17
1.58756e-12
-2.4755e-11
-2.48506e-17
1.92896e-12
-2.82284e-11
-2.26768e-17
2.31052e-12
-3.19306e-11
-3.44045e-17
2.73411e-12
-3.58612e-11
-1.80952e-17
3.20092e-12
-4.00295e-11
-3.37253e-17
3.71239e-12
-4.44324e-11
5.03969e-17
4.2664e-12
-4.90722e-11
-3.36091e-17
4.86462e-12
-5.39469e-11
-1.51333e-16
5.51334e-12
-5.90521e-11
-1.58611e-16
6.21416e-12
-6.43778e-11
-6.69129e-17
6.95846e-12
-6.99128e-11
1.15015e-16
7.73043e-12
-7.56485e-11
2.66483e-16
8.52059e-12
-8.15571e-11
1.36359e-16
9.34165e-12
-8.76296e-11
-1.65304e-16
1.022e-11
-9.3829e-11
-3.72356e-16
1.11652e-11
-1.00124e-10
-3.27835e-16
1.21489e-11
-1.06473e-10
9.82523e-18
1.3115e-11
-1.12822e-10
4.05117e-16
1.40204e-11
-1.19153e-10
5.40949e-16
1.48734e-11
-1.25402e-10
3.82927e-16
1.57281e-11
-1.31527e-10
7.2955e-17
1.6634e-11
-1.37452e-10
-2.00127e-16
1.75826e-11
-1.43084e-10
-3.12246e-16
1.84979e-11
-1.48347e-10
-3.59553e-16
1.92874e-11
-1.53179e-10
-4.16734e-16
1.991e-11
-1.57546e-10
-4.4092e-16
2.03987e-11
-1.61392e-10
-3.6199e-16
2.08158e-11
-1.64641e-10
-2.72843e-16
2.11853e-11
-1.67179e-10
-4.45582e-16
2.14764e-11
-1.68848e-10
-7.84475e-16
2.16364e-11
-1.69646e-10
-6.30626e-16
2.16219e-11
-1.69413e-10
1.12659e-16
2.14127e-11
-1.68233e-10
1.13357e-15
2.10128e-11
-1.66053e-10
2.04417e-15
2.04409e-11
-1.62917e-10
2.3798e-15
1.97247e-11
-1.58983e-10
2.06483e-15
1.88902e-11
-1.54116e-10
1.34567e-15
1.79308e-11
-1.48324e-10
5.25584e-16
1.68094e-11
-1.41429e-10
-3.71106e-16
1.55191e-11
-1.33488e-10
-5.02456e-16
1.40803e-11
-1.24659e-10
-2.40799e-16
1.2519e-11
-1.1501e-10
-2.01905e-17
1.08554e-11
-1.04668e-10
4.86208e-17
9.10733e-12
-9.36977e-11
2.80018e-17
7.29796e-12
-8.21032e-11
3.66915e-18
5.46291e-12
-6.9856e-11
9.77081e-18
3.66022e-12
-5.68494e-11
2.07486e-17
1.9919e-12
-4.28113e-11
1.42662e-17
6.50825e-13
-2.72559e-11
-8.39449e-18
-9.59739e-12
-3.08248e-17
1.1129e-14
-7.87238e-13
4.18389e-19
4.53388e-14
-2.45633e-12
-2.33718e-19
1.04098e-13
-4.27091e-12
-7.90329e-19
1.89116e-13
-6.23887e-12
7.6855e-18
3.01823e-13
-8.36968e-12
-8.82271e-18
4.44449e-13
-1.06721e-11
1.89923e-17
6.1868e-13
-1.31554e-11
4.10589e-17
8.2565e-13
-1.58294e-11
-4.3679e-17
1.06936e-12
-1.87009e-11
5.0178e-17
1.34995e-12
-2.17813e-11
-3.99656e-17
1.66975e-12
-2.50746e-11
-1.52581e-17
2.03074e-12
-2.85889e-11
2.14716e-17
2.4335e-12
-3.23337e-11
-3.84454e-17
2.88062e-12
-3.63083e-11
1.10662e-17
3.37312e-12
-4.05216e-11
3.08326e-18
3.912e-12
-4.49704e-11
7.21861e-17
4.49566e-12
-4.96566e-11
2.9739e-17
5.12516e-12
-5.45779e-11
-9.76981e-17
5.80668e-12
-5.97299e-11
-1.15734e-16
6.54124e-12
-6.51021e-11
-9.09111e-17
7.31984e-12
-7.06816e-11
1.319e-16
8.12546e-12
-7.64595e-11
3.18395e-16
8.94857e-12
-8.24073e-11
1.56899e-16
9.80363e-12
-8.85152e-11
-2.12823e-16
1.07186e-11
-9.4745e-11
-4.49495e-16
1.17018e-11
-1.01065e-10
-3.62591e-16
1.27206e-11
-1.07433e-10
5.87941e-17
1.37147e-11
-1.13794e-10
5.03506e-16
1.46412e-11
-1.20127e-10
6.00035e-16
1.55131e-11
-1.26366e-10
3.40174e-16
1.63901e-11
-1.32468e-10
-5.01663e-17
1.73219e-11
-1.3836e-10
-2.99632e-16
1.8293e-11
-1.43953e-10
-2.72171e-16
1.9218e-11
-1.4917e-10
-1.57818e-16
2.00007e-11
-1.53942e-10
-1.58546e-16
2.06056e-11
-1.58224e-10
-3.31898e-16
2.10762e-11
-1.61952e-10
-5.70792e-16
2.1482e-11
-1.65058e-10
-8.7911e-16
2.18464e-11
-1.67445e-10
-1.26225e-15
2.21306e-11
-1.68977e-10
-1.51314e-15
2.22721e-11
-1.69666e-10
-9.32947e-16
2.22227e-11
-1.6935e-10
4.75611e-16
2.19617e-11
-1.68098e-10
2.18306e-15
2.14953e-11
-1.65832e-10
3.58765e-15
2.08479e-11
-1.62571e-10
4.04753e-15
2.00599e-11
-1.58446e-10
3.48068e-15
1.91732e-11
-1.53325e-10
2.29488e-15
1.81817e-11
-1.47273e-10
9.42542e-16
1.70276e-11
-1.40179e-10
-6.65746e-16
1.5694e-11
-1.321e-10
-1.00785e-15
1.42055e-11
-1.23163e-10
-5.66235e-16
1.25947e-11
-1.13413e-10
-8.96183e-17
1.08862e-11
-1.02974e-10
1.3273e-16
9.10004e-12
-9.1919e-11
1.37879e-16
7.26021e-12
-8.02641e-11
6.543e-17
5.4037e-12
-6.79976e-11
1.47001e-17
3.59159e-12
-5.50358e-11
-3.86222e-18
1.93073e-12
-4.115e-11
-9.85065e-18
6.17589e-13
-2.59423e-11
-1.7598e-17
-8.97856e-12
-2.80784e-17
1.18414e-14
-7.99077e-13
4.32854e-20
4.82608e-14
-2.49274e-12
1.18465e-18
1.10825e-13
-4.33346e-12
-3.31903e-18
2.01324e-13
-6.32925e-12
6.53684e-18
3.21248e-13
-8.48969e-12
-1.1754e-17
4.72843e-13
-1.08236e-11
1.78074e-17
6.57843e-13
-1.33403e-11
3.84594e-17
8.77376e-13
-1.60497e-11
-4.10474e-17
1.13546e-12
-1.89584e-11
3.96444e-17
1.43223e-12
-2.20781e-11
-5.55364e-17
1.77009e-12
-2.54124e-11
-3.79059e-17
2.15109e-12
-2.89694e-11
4.5809e-18
2.5757e-12
-3.27588e-11
-4.92422e-17
3.04667e-12
-3.67793e-11
1.17574e-17
3.56508e-12
-4.10397e-11
1.95612e-18
4.1318e-12
-4.55365e-11
5.41934e-17
4.74551e-12
-5.02711e-11
1.10381e-17
5.40677e-12
-5.52411e-11
-1.51346e-16
6.12203e-12
-6.04415e-11
-1.71629e-16
6.89284e-12
-6.58607e-11
-4.34127e-17
7.70823e-12
-7.14861e-11
1.69339e-16
8.54978e-12
-7.73076e-11
3.17135e-16
9.40831e-12
-8.32954e-11
1.3199e-16
1.03002e-11
-8.94384e-11
-2.2196e-16
1.12543e-11
-9.56976e-11
-4.38366e-16
1.22776e-11
-1.02042e-10
-3.45403e-16
1.33337e-11
-1.08428e-10
9.13354e-17
1.43589e-11
-1.14799e-10
5.44219e-16
1.53098e-11
-1.21132e-10
6.21944e-16
1.62033e-11
-1.27358e-10
3.21899e-16
1.71031e-11
-1.33432e-10
-1.06981e-16
1.80595e-11
-1.39286e-10
-3.52553e-16
1.9052e-11
-1.44836e-10
-2.60602e-16
1.99881e-11
-1.50003e-10
-6.15069e-17
2.07684e-11
-1.54712e-10
-2.18795e-17
2.13602e-11
-1.58901e-10
-2.52908e-16
2.18139e-11
-1.62502e-10
-6.45398e-16
2.22038e-11
-1.65453e-10
-1.15941e-15
2.25537e-11
-1.67679e-10
-1.65972e-15
2.28197e-11
-1.6907e-10
-1.87892e-15
2.29342e-11
-1.6965e-10
-1.07796e-15
2.28462e-11
-1.69256e-10
6.92241e-16
2.25348e-11
-1.67937e-10
2.78864e-15
2.20081e-11
-1.65593e-10
4.48331e-15
2.12932e-11
-1.62208e-10
5.0251e-15
2.04383e-11
-1.57886e-10
4.32235e-15
1.94948e-11
-1.52499e-10
2.87244e-15
1.84581e-11
-1.46169e-10
1.21336e-15
1.72598e-11
-1.38866e-10
-8.4448e-16
1.58774e-11
-1.3065e-10
-1.34425e-15
1.43373e-11
-1.21611e-10
-8.00263e-16
1.26765e-11
-1.11768e-10
-1.50802e-16
1.09226e-11
-1.0124e-10
1.8778e-16
9.0975e-12
-9.01051e-11
2.20404e-16
7.22668e-12
-7.83955e-11
1.1653e-16
5.34887e-12
-6.61174e-11
2.21593e-17
3.52818e-12
-5.32124e-11
-2.17468e-17
1.8754e-12
-3.94958e-11
-2.91451e-17
5.88511e-13
-2.46548e-11
-2.52624e-17
-8.38926e-12
-2.55462e-17
1.24173e-14
-8.11492e-13
3.67839e-19
5.06497e-14
-2.53097e-12
3.49263e-19
1.1638e-13
-4.39918e-12
-1.95422e-18
2.11502e-13
-6.42429e-12
8.41137e-19
3.37711e-13
-8.61603e-12
-9.60825e-18
4.97434e-13
-1.09832e-11
2.26061e-17
6.92513e-13
-1.35353e-11
4.87103e-17
9.2423e-13
-1.62822e-11
-3.26762e-17
1.19677e-12
-1.92304e-11
4.86103e-17
1.51037e-12
-2.23916e-11
-5.00402e-17
1.86748e-12
-2.57695e-11
-2.79643e-17
2.2702e-12
-2.93718e-11
1.22243e-17
2.71904e-12
-3.32082e-11
-3.81424e-17
3.21663e-12
-3.72771e-11
1.60511e-17
3.76397e-12
-4.15871e-11
8.53049e-18
4.36176e-12
-4.61341e-11
5.57477e-17
5.00853e-12
-5.09193e-11
2.0917e-17
5.70459e-12
-5.59397e-11
-1.58946e-16
6.45696e-12
-6.11899e-11
-1.61175e-16
7.26665e-12
-6.66578e-11
-6.35559e-17
8.12162e-12
-7.23298e-11
1.70492e-16
9.00242e-12
-7.81955e-11
3.45068e-16
9.89984e-12
-8.42237e-11
1.5074e-16
1.08313e-11
-9.04021e-11
-2.37374e-16
1.18267e-11
-9.66906e-11
-4.77399e-16
1.28918e-11
-1.03058e-10
-3.80785e-16
1.39875e-11
-1.0946e-10
8.32655e-17
1.5047e-11
-1.15839e-10
5.66885e-16
1.60259e-11
-1.22169e-10
6.57597e-16
1.69432e-11
-1.28377e-10
3.52426e-16
1.78658e-11
-1.3442e-10
-9.57519e-17
1.88448e-11
-1.40232e-10
-3.68072e-16
1.98573e-11
-1.45734e-10
-2.94656e-16
2.08063e-11
-1.50846e-10
-9.55834e-17
2.15892e-11
-1.55483e-10
-3.06705e-17
2.21732e-11
-1.59573e-10
-2.15581e-16
2.26108e-11
-1.6304e-10
-5.73883e-16
2.29794e-11
-1.65832e-10
-1.07624e-15
2.33037e-11
-1.67893e-10
-1.59227e-15
2.35395e-11
-1.69137e-10
-1.85125e-15
2.36178e-11
-1.69602e-10
-1.07112e-15
2.34875e-11
-1.69121e-10
7.09859e-16
2.31281e-11
-1.67727e-10
2.85215e-15
2.25482e-11
-1.65296e-10
4.60359e-15
2.17757e-11
-1.61783e-10
5.18043e-15
2.08603e-11
-1.57264e-10
4.4787e-15
1.98556e-11
-1.51611e-10
3.00418e-15
1.87596e-11
-1.45006e-10
1.29537e-15
1.75045e-11
-1.37495e-10
-8.88132e-16
1.60674e-11
-1.29142e-10
-1.46698e-15
1.44744e-11
-1.20004e-10
-9.09467e-16
1.27635e-11
-1.10073e-10
-1.93175e-16
1.09641e-11
-9.94606e-11
2.06623e-16
9.09982e-12
-8.82534e-11
2.63012e-16
7.19776e-12
-7.64968e-11
1.47815e-16
5.29885e-12
-6.42163e-11
2.92347e-17
3.47016e-12
-5.13806e-11
-3.17917e-17
1.82571e-12
-3.78495e-11
-4.1878e-17
5.63165e-13
-2.33915e-11
-3.10225e-17
-7.82546e-12
-2.45981e-17
1.31802e-14
-8.2467e-13
1.61067e-19
5.37677e-14
-2.57154e-12
1.33545e-18
1.23547e-13
-4.46895e-12
-3.50774e-18
2.24523e-13
-6.52519e-12
2.86205e-18
3.58487e-13
-8.75014e-12
-1.52373e-17
5.2791e-13
-1.11526e-11
1.43983e-17
7.34734e-13
-1.37422e-11
2.88394e-17
9.80312e-13