/*--------------------------------*- C++ -*----------------------------------*\
| =========                 |                                                 |
| \\      /  F ield         | OpenFOAM: The Open Source CFD Toolbox           |
|  \\    /   O peration     | Version:  v2006                                 |
|   \\  /    A nd           | Website:  www.openfoam.com                      |
|    \\/     M anipulation  |                                                 |
\*---------------------------------------------------------------------------*/
FoamFile
{
    version     2.0;
    format      ascii;
    class       surfaceScalarField;
    location    "0.01";
    object      phi;
}
// * * * * * * * * * * * * * * * * * * * * * * * * * * * * * * * * * * * * * //

dimensions      [0 3 -1 0 0 0 0];
oriented        oriented;


internalField   nonuniform List<scalar> 
23448
(
-1.83408e-07
1.4639e-07
3.70183e-08
9.02519e-07
-8.82816e-07
-2.23848e-06
2.21878e-06
1.50014e-06
-1.01391e-06
-4.86226e-07
6.78742e-08
-3.75881e-08
-3.02861e-08
-1.25214e-08
-1.07399e-09
1.35954e-08
-6.00325e-10
-3.99768e-08
4.05771e-08
7.92593e-08
4.32686e-07
-1.96647e-07
-3.65094e-07
-4.76037e-08
4.38812e-08
6.04422e-08
-5.67197e-08
3.16826e-08
2.52189e-08
-2.67383e-08
-5.65896e-08
2.53133e-08
5.80147e-08
-6.99218e-07
6.09816e-08
6.38237e-07
7.54526e-10
-5.59694e-10
-3.71596e-08
3.69648e-08
-1.7348e-08
-1.07151e-08
1.05861e-08
1.7477e-08
1.28593e-11
1.01042e-08
1.29495e-10
-1.02466e-08
4.03216e-08
-3.95671e-08
2.28341e-07
3.68442e-08
-2.65183e-07
-1.87998e-09
-5.20846e-11
1.93206e-09
-1.87998e-09
4.53725e-08
-3.40282e-08
9.75596e-09
-2.11002e-08
-3.54494e-09
-3.38754e-08
3.74204e-08
1.35686e-10
-2.63087e-10
1.27402e-10
-1.39404e-10
-2.4181e-09
5.8909e-10
1.96842e-09
3.4835e-08
-1.2595e-08
-2.224e-08
3.06195e-09
3.63489e-08
-3.94108e-08
-2.73411e-08
2.44929e-09
2.48918e-08
3.20278e-08
3.7692e-09
-3.2735e-08
5.938e-09
-3.9548e-09
-5.74924e-10
-1.40827e-09
-4.76479e-10
4.7648e-10
-8.90741e-10
-3.13998e-10
1.20474e-09
8.83073e-09
2.69123e-08
-3.57429e-08
-1.69291e-08
8.6636e-10
1.60628e-08
2.76382e-09
1.07778e-08
-1.30529e-08
-4.88632e-10
-2.92295e-09
-8.03287e-10
2.14344e-10
3.51189e-09
2.73191e-09
-2.91769e-08
2.6445e-08
-8.66622e-10
-2.31124e-09
2.54919e-10
-2.98502e-07
2.26468e-08
2.75856e-07
-7.6057e-09
6.80241e-09
-1.67696e-09
-6.79536e-09
-7.15981e-08
1.58726e-08
5.57255e-08
3.63446e-07
-8.96534e-07
5.33072e-07
1.70982e-08
-1.43344e-08
-1.83293e-09
1.26107e-08
-3.3133e-08
3.74496e-08
-3.91785e-08
3.48618e-08
1.03508e-08
-5.87875e-08
5.90836e-08
-1.0647e-08
-1.66383e-09
4.93061e-08
-4.89081e-08
-1.21007e-08
1.17027e-08
-5.08406e-10
3.69003e-10
4.30008e-09
-9.68196e-09
8.60546e-09
-3.22357e-09
-1.35686e-10
3.99199e-11
9.57668e-11
-5.28483e-09
8.54675e-09
-9.84586e-09
6.58395e-09
-4.78747e-08
-4.89709e-08
4.52049e-08
5.16407e-08
2.90773e-10
-4.81655e-08
2.17562e-09
-6.277e-08
6.05945e-08
7.82473e-08
-1.07572e-07
2.93243e-08
2.47071e-08
-2.73294e-08
2.62231e-09
9.14789e-07
-1.47947e-06
5.64683e-07
-3.15217e-07
-4.18384e-08
3.57055e-07
-3.62818e-09
3.73371e-11
3.59085e-09
6.98566e-09
-6.64714e-09
4.28736e-08
-4.32121e-08
-4.08547e-10
4.63506e-08
-4.59421e-08
1.31374e-08
3.67814e-08
-4.99187e-08
4.05797e-08
-7.52905e-09
-3.30507e-08
9.18995e-07
-9.15453e-07
-3.5415e-09
1.11685e-10
-2.83605e-09
2.72437e-09
1.11167e-09
-2.97358e-08
2.86242e-08
4.51184e-07
-1.13172e-07
1.33814e-07
-4.71827e-07
-5.53534e-09
3.12275e-09
2.41259e-09
2.24644e-07
-2.72532e-07
4.78875e-08
-1.36739e-09
1.60766e-09
-2.40272e-10
-3.06692e-07
-2.88924e-07
3.23156e-07
2.72462e-07
6.19339e-09
-1.20927e-09
-4.98412e-09
-1.15174e-08
1.10507e-08
1.75099e-08
-1.70432e-08
-5.99413e-09
5.48358e-09
4.95399e-10
1.51489e-11
-4.93347e-08
-1.66735e-07
2.1607e-07
2.54468e-06
-2.54148e-06
-3.1916e-09
2.41548e-08
3.42185e-10
-2.4497e-08
-1.36172e-07
2.08481e-07
1.12842e-07
-1.85148e-07
1.25348e-08
-1.25348e-08
2.93498e-08
-5.19499e-09
-3.98366e-07
4.66684e-07
-6.83187e-08
-2.29089e-06
-3.78659e-09
2.29467e-06
-2.89773e-07
-1.69186e-08
3.98573e-07
-3.69792e-07
-3.69758e-07
4.14489e-07
-9.01212e-09
4.24815e-08
-3.34694e-08
-6.72448e-08
4.14668e-07
-3.38837e-07
3.20804e-08
-3.21005e-07
-1.42481e-09
-4.60388e-08
4.74636e-08
-1.39525e-08
-2.57696e-07
-2.10711e-08
2.78769e-07
-1.05087e-08
-1.54494e-07
1.65004e-07
2.2243e-07
-2.35905e-07
1.3476e-08
-3.78252e-08
1.93291e-09
3.58923e-08
-8.47563e-07
8.21238e-07
2.63256e-08
-2.45866e-07
-2.23303e-08
3.70873e-08
3.26286e-09
-4.03502e-08
-1.63102e-08
2.62865e-08
-9.97648e-09
-1.29407e-08
-2.66673e-07
2.79614e-07
-1.75802e-06
1.75802e-06
6.24828e-09
-6.29676e-09
4.8483e-11
3.28525e-08
3.95822e-08
-7.24345e-08
2.57029e-08
-3.32265e-08
7.52377e-09
-1.75439e-06
-3.63287e-09
9.67389e-08
-3.78865e-08
-5.88519e-08
-3.63033e-08
1.33194e-08
2.29839e-08
-2.45759e-07
-1.07338e-10
1.83614e-08
1.29878e-08
-3.13492e-08
1.16595e-08
-1.16595e-08
-6.87745e-10
-2.51134e-08
2.58011e-08
1.34657e-07
-1.34657e-07
8.80685e-07
-8.53034e-07
-3.64079e-08
8.75687e-09
-4.13791e-08
1.03641e-08
3.1015e-08
1.01397e-08
-1.49156e-08
4.77588e-09
4.8104e-08
-3.08377e-08
-1.72663e-08
-1.40861e-09
-3.08808e-08
1.7766e-09
3.05129e-08
1.50246e-08
-1.31249e-08
8.14703e-09
-1.00468e-08
-4.40036e-07
4.53037e-07
-5.27192e-09
-7.7289e-09
-1.10329e-11
2.29459e-11
-1.19105e-11
9.0627e-07
-2.55849e-08
1.41942e-08
-1.99034e-08
-1.54471e-08
2.11559e-08
-9.01404e-07
-9.48699e-09
9.09558e-07
1.33119e-09
2.45507e-09
-2.45507e-09
-1.1464e-08
-3.15985e-09
1.46238e-08
-1.35036e-06
-7.80036e-09
1.35816e-06
-1.33454e-06
-1.58139e-08
-6.20523e-08
7.0991e-08
-8.93877e-09
-2.63175e-06
2.99518e-06
1.1126e-08
-4.22029e-08
3.10769e-08
8.47708e-09
-1.5076e-08
-9.50472e-09
1.61036e-08
3.51075e-08
-5.68152e-08
6.02671e-08
-3.85595e-08
5.1543e-07
-2.36095e-07
-2.79335e-07
-8.5148e-08
4.52154e-08
3.99326e-08
1.90983e-08
-7.2485e-08
5.33911e-08
-1.02333e-09
-4.10651e-08
4.15151e-08
5.73441e-10
-9.58736e-07
9.58736e-07
2.68967e-07
-2.27004e-07
3.1374e-07
-3.55703e-07
-2.81064e-08
-2.8026e-09
1.96058e-09
2.89484e-08
8.75781e-07
-2.53453e-08
-8.50436e-07
-2.07061e-08
5.40763e-08
-3.33702e-08
1.12153e-08
-1.32821e-08
2.06686e-09
-4.39196e-08
-1.22543e-08
-3.95261e-09
6.0129e-08
-1.35787e-08
-3.88437e-08
5.24224e-08
2.96969e-08
-2.63726e-06
2.60756e-06
-2.3651e-09
2.08787e-08
-1.85136e-08
-3.51234e-09
-1.4913e-08
1.84254e-08
9.61783e-10
-4.28549e-10
-1.06428e-08
1.01096e-08
-3.75504e-09
-1.76089e-08
2.13639e-08
-1.01385e-09
2.7308e-08
1.64169e-09
-2.79359e-08
2.27479e-08
1.2416e-08
-1.2416e-08
7.98843e-10
1.23846e-10
-9.22673e-10
2.58601e-09
1.00041e-08
-1.25901e-08
1.59239e-08
2.4877e-08
-4.0801e-08
-2.47555e-07
7.30534e-08
1.74501e-07
-6.41563e-09
1.98659e-09
4.42902e-09
-8.4251e-07
-2.51423e-07
1.09393e-06
1.04996e-07
-1.56699e-07
5.17012e-08
-1.2119e-07
8.41336e-07
2.42617e-08
-1.98207e-08
-4.44101e-09
-5.44996e-09
-3.56621e-09
9.0162e-09
-3.01044e-07
3.53563e-07
-9.49043e-07
-3.21614e-06
4.04719e-08
-5.15886e-08
1.11166e-08
1.11661e-08
2.1793e-09
-3.70871e-09
-9.63669e-09
2.40554e-08
-2.52928e-09
2.73558e-09
-1.49335e-08
1.62004e-08
-1.26688e-09
1.72817e-08
6.54217e-10
-1.79359e-08
-2.47499e-08
2.1887e-08
2.86293e-09
2.59743e-08
-3.50948e-10
-2.65444e-08
9.21111e-10
-1.58143e-09
3.08752e-08
-2.92937e-08
1.4691e-09
-1.38582e-09
-8.32691e-11
1.2559e-08
-1.20206e-08
1.53853e-08
1.10664e-08
-3.27554e-10
-1.07388e-08
7.81315e-09
-4.00493e-08
3.22361e-08
-9.60234e-09
9.60233e-09
-4.32946e-11
7.15795e-10
-6.72501e-10
-3.10102e-08
2.35976e-10
-7.44352e-10
3.15186e-08
-1.68284e-07
-6.14959e-08
9.54246e-08
1.34356e-07
-8.84157e-07
8.96716e-07
-3.06366e-09
3.46109e-08
-6.67097e-09
-4.45829e-09
4.77267e-09
-3.14378e-10
4.44683e-08
2.18243e-11
-4.44901e-08
-4.24221e-08
-1.62758e-08
5.8698e-08
-2.24409e-08
5.96929e-09
1.64717e-08
3.17618e-08
-2.67583e-08
-5.00358e-09
-1.11108e-07
5.82409e-07
-4.65109e-07
3.43444e-09
-5.65623e-10
-2.86883e-09
-2.65611e-08
2.61386e-08
2.91997e-10
1.30491e-10
9.25475e-08
-1.26181e-08
-7.99292e-08
-1.50843e-08
-6.22073e-09
-2.77852e-08
5.84016e-09
2.81658e-08
5.88181e-09
-2.06266e-08
2.25579e-08
-4.06794e-08
-2.30008e-09
4.29795e-08
8.881e-10
-2.15764e-09
3.27857e-08
-3.15161e-08
9.34381e-09
2.06597e-08
-3.00038e-08
6.09851e-10
9.59293e-11
-3.51921e-08
3.44864e-08
-4.92261e-10
3.37965e-08
-3.33042e-08
4.23788e-08
-4.29029e-08
5.24067e-10
-8.35187e-10
7.94472e-10
4.07293e-11
3.89449e-10
-1.09865e-08
1.05971e-08
3.97904e-08
2.58835e-09
-3.82913e-08
3.84327e-08
-1.41433e-10
-3.79858e-08
3.80607e-08
-7.48453e-11
-4.95657e-08
5.07313e-08
-1.16559e-09
3.34286e-08
-3.75828e-08
4.15426e-09
-1.82994e-09
2.88807e-08
-2.70507e-08
3.96701e-08
-8.94036e-09
8.41709e-09
-3.91469e-08
8.1982e-09
-5.99761e-09
3.01603e-08
-3.23609e-08
-2.45995e-10
-8.43641e-10
-4.85644e-08
4.9654e-08
-3.74016e-08
3.36123e-08
3.49383e-08
-3.1149e-08
6.16021e-08
-5.35744e-08
-8.51995e-09
8.35936e-08
4.00356e-09
-8.75964e-08
-3.25733e-08
-2.02024e-10
3.27753e-08
4.66066e-08
-4.67114e-08
1.04877e-10
7.22447e-09
-7.22446e-09
2.29975e-08
-2.29774e-08
-2.01361e-11
-2.62861e-08
6.13167e-10
-3.07997e-08
3.89979e-08
2.78599e-09
5.88161e-08
-5.97495e-10
-3.40332e-08
3.53691e-08
-7.3839e-10
-4.58521e-08
4.89829e-08
4.5438e-08
-4.85688e-08
3.30143e-08
-1.13396e-09
6.01829e-10
-3.24822e-08
1.14037e-08
-1.20012e-08
-4.09692e-09
4.29055e-09
-3.99618e-10
-4.19833e-09
3.074e-10
-6.4412e-09
3.47591e-08
-2.83179e-08
-3.09662e-09
1.71306e-08
-1.4034e-08
2.1697e-09
-1.45622e-10
-9.33389e-10
-1.09068e-09
1.3587e-07
-1.3587e-07
4.86928e-08
4.77413e-08
-5.25845e-08
-4.38495e-08
-7.35745e-09
-6.47416e-09
7.61798e-09
6.21365e-09
-4.35853e-09
1.27077e-09
3.42521e-09
-3.37443e-10
-3.53341e-08
1.41691e-08
2.11651e-08
2.19657e-08
-2.09453e-08
-4.11703e-09
1.34713e-08
-9.76222e-09
-3.70904e-09
1.04305e-08
-1.04305e-08
2.38618e-08
-3.94232e-08
3.65433e-08
-2.09817e-08
1.48999e-10
-2.1439e-08
2.17475e-08
-4.57578e-10
-7.96737e-09
-2.20374e-08
3.00048e-08
-1.23303e-08
-8.48909e-09
1.38627e-08
6.9568e-09
3.89927e-08
4.60542e-09
-3.60502e-09
-3.99931e-08
-1.50268e-08
9.65104e-09
1.77344e-08
-1.23586e-08
6.80205e-08
4.37413e-08
-1.11762e-07
-1.09346e-07
-6.5567e-08
1.74913e-07
-1.37158e-08
-4.62104e-10
6.62602e-11
1.41117e-08
-9.58831e-09
-2.08551e-08
3.04434e-08
-5.69915e-08
-2.54904e-08
8.2482e-08
-3.78586e-08
3.71792e-08
1.38168e-08
-2.33248e-08
5.67727e-08
-3.34479e-08
-1.67867e-09
-4.85889e-08
1.33883e-08
3.68798e-08
-8.63025e-10
1.58256e-09
-5.75625e-09
5.03674e-09
2.65619e-08
-4.59613e-09
-2.50053e-08
-3.159e-09
2.81643e-08
3.02342e-10
-3.02342e-10
5.86376e-08
-8.42187e-08
2.55815e-08
-3.41391e-10
1.23751e-09
-5.31892e-10
-3.64214e-10
-1.36742e-07
2.73964e-08
-5.50438e-09
-4.73254e-08
4.65988e-08
6.23107e-09
-6.09265e-08
3.04164e-07
-2.43237e-07
3.3526e-08
-3.27908e-08
-9.27028e-09
8.53523e-09
-9.47529e-08
-8.4408e-08
9.4013e-08
-3.03135e-07
1.64349e-07
1.38786e-07
6.96187e-09
-6.96186e-09
1.87723e-09
2.56226e-08
-2.74998e-08
-2.80192e-07
6.67055e-08
2.13487e-07
7.68386e-08
7.33225e-07
-8.10064e-07
-7.84015e-08
7.78578e-08
6.66675e-09
-6.12308e-09
2.2917e-07
4.98645e-08
-2.79035e-07
-1.66454e-08
3.65111e-08
-3.81967e-08
1.83311e-08
-1.06698e-10
1.76159e-08
1.75367e-09
-1.92629e-08
4.92059e-08
-5.29294e-08
3.72346e-09
-6.62227e-08
-1.14936e-08
7.77163e-08
-2.33463e-08
9.35616e-09
1.39902e-08
9.47277e-08
-9.47277e-08
1.96018e-08
-3.53938e-08
1.57921e-08
3.462e-09
-3.462e-09
-5.27981e-07
-2.18112e-07
1.81193e-07
5.64899e-07
1.71788e-08
1.7364e-08
-3.45428e-08
1.11594e-08
-5.62794e-08
4.512e-08
-1.63164e-07
-1.3997e-07
2.38862e-07
-3.44748e-08
-2.58686e-07
5.42992e-08
-3.91252e-07
1.18639e-07
2.72613e-07
6.54496e-08
1.87495e-08
-8.41991e-08
4.41736e-08
6.46879e-08
-5.71877e-08
-5.16736e-08
2.79499e-09
-5.04729e-09
2.2523e-09
-1.55056e-06
-1.59161e-07
1.68076e-06
2.89545e-08
-2.14593e-08
1.95966e-06
-1.95966e-06
1.69852e-08
-1.69852e-08
2.36482e-08
3.19653e-08
-3.442e-08
-2.11942e-08
1.79744e-08
6.00728e-09
-1.87478e-08
-5.23421e-09
3.19166e-09
2.33702e-08
-7.13197e-09
2.01209e-06
-2.00495e-06
6.07657e-09
-6.55196e-09
4.75447e-10
-3.71133e-07
3.61145e-07
9.99401e-09
1.72891e-07
5.95608e-08
-2.32452e-07
-6.3604e-08
-1.13188e-07
1.76792e-07
-3.31058e-08
-4.30357e-07
4.56329e-07
1.05093e-06
-1.08404e-06
-3.74912e-08
7.48733e-08
-3.73821e-08
1.69748e-09
-1.69748e-09
4.43927e-07
-4.35987e-07
-7.9395e-09
2.09613e-08
2.44179e-08
-4.53792e-08
-5.83336e-09
-7.95016e-14
-1.60687e-10
5.66004e-09
-4.23223e-09
-7.54612e-08
7.4033e-08
-2.31451e-08
-1.42624e-08
3.74076e-08
2.44898e-08
-2.61355e-08
2.26071e-08
2.42567e-08
2.2471e-08
-2.23097e-08
-3.90944e-07
1.20941e-07
3.47239e-07
-6.93175e-08
1.04275e-07
-6.77822e-08
-3.64926e-08
-6.1101e-09
-1.79917e-06
1.80528e-06
4.87464e-08
-8.91137e-09
-2.7874e-08
8.16455e-09
2.86208e-08
1.11935e-09
-4.24465e-10
-2.62603e-08
2.55655e-08
3.71066e-09
2.19496e-08
-2.56603e-08
1.51795e-08
3.82856e-07
-3.98036e-07
-3.61016e-08
3.72209e-08
-4.80377e-08
4.68424e-09
4.33535e-08
-3.56354e-08
3.48855e-09
3.21469e-08
1.95493e-08
-1.89778e-08
-5.71565e-10
-1.33218e-08
-1.28443e-07
1.41765e-07
6.09415e-09
-6.64018e-09
5.46026e-10
5.64185e-09
4.52298e-10
5.64185e-09
-4.11635e-08
4.11725e-08
1.10273e-09
5.7043e-10
4.14326e-08
-4.2003e-08
1.34137e-09
-1.34137e-09
-2.64992e-08
6.20814e-08
-6.10798e-08
2.54978e-08
-2.14591e-08
-1.06472e-08
3.21063e-08
2.5258e-08
-2.42769e-08
-9.81061e-10
4.51124e-09
5.93273e-10
-5.10451e-09
1.91388e-08
-1.19033e-08
-7.2355e-09
-1.10418e-08
1.71833e-09
9.32351e-09
2.45727e-08
-6.45526e-10
1.33088e-09
1.87803e-08
7.69075e-10
3.33982e-10
-3.72162e-11
9.01275e-09
-9.30952e-09
-1.80321e-08
6.10472e-12
1.836e-08
2.08934e-08
1.92049e-10
-2.10855e-08
-2.71569e-09
2.82196e-09
-1.06273e-10
1.52774e-06
-1.52774e-06
-2.69141e-09
2.57347e-09
1.17941e-10
1.86132e-08
-1.84553e-08
-1.57897e-10
-1.09707e-07
-2.54019e-08
1.35109e-07
-2.82696e-09
-1.19107e-08
1.47376e-08
5.81038e-10
2.22287e-07
1.89272e-07
-2.45533e-07
-1.66026e-07
7.12365e-10
-1.83893e-08
-7.78286e-10
-2.56237e-07
-7.50258e-08
4.60728e-08
2.8519e-07
-2.07888e-07
7.22372e-08
-1.06661e-07
2.42306e-07
-1.99566e-07
-2.04735e-08
-4.3627e-07
4.76129e-07
-4.49741e-08
-1.07526e-07
1.16789e-07
3.57141e-08
7.64775e-09
-5.07585e-07
9.40614e-07
-9.07326e-07
-3.3288e-08
2.75941e-09
-3.62833e-09
-2.72475e-09
3.59367e-09
1.49236e-08
-2.78381e-09
-1.57885e-08
3.64879e-09
2.92421e-08
-2.85298e-08
1.16012e-11
1.21041e-09
-1.22201e-09
2.36598e-08
3.45907e-08
-2.8381e-08
-2.98695e-08
-4.81924e-08
-2.25316e-08
2.61169e-08
4.46072e-08
3.99594e-09
-1.0925e-10
-3.85445e-09
-3.22411e-11
-1.63013e-09
-1.28006e-08
1.32731e-08
1.15766e-09
3.26993e-08
-8.08918e-08
3.73342e-11
5.03766e-09
-5.07499e-09
-1.8386e-08
4.15236e-09
-2.98956e-09
1.72232e-08
-3.65744e-09
-1.51388e-08
1.87963e-08
-2.19538e-08
7.41594e-09
1.4538e-08
-4.77123e-09
3.04636e-08
-9.78523e-09
9.78523e-09
-1.9324e-08
1.9324e-08
7.15205e-08
-7.5902e-08
4.38146e-09
-1.99602e-08
-8.93881e-07
9.13841e-07
3.36194e-09
2.06935e-08
8.70672e-08
-3.2456e-08
-5.46111e-08
1.35674e-10
9.46562e-09
-9.41446e-09
-1.86829e-10
-4.4733e-08
-7.14088e-08
1.16142e-07
5.61959e-08
-3.7474e-07
-1.16415e-07
4.20782e-07
-3.83845e-08
8.07187e-08
1.61028e-08
-5.63864e-08
4.02836e-08
-1.4058e-08
2.20369e-07
-2.06311e-07
-8.61674e-09
-2.32432e-09
1.09411e-08
2.45375e-09
-2.54947e-08
2.30409e-08
-1.1188e-08
-1.69183e-08
7.29154e-11
4.44633e-09
-4.51924e-09
-1.11513e-08
1.96283e-08
6.71664e-09
-7.13322e-09
1.50546e-08
-1.46381e-08
-1.50965e-08
3.64855e-08
-3.70714e-08
1.56824e-08
-3.08858e-09
9.80522e-09
-3.10187e-08
3.91571e-08
-8.13835e-09
2.77102e-09
-9.39404e-08
-1.98094e-11
-5.91586e-12
2.57257e-11
5.76519e-08
-5.82056e-08
-4.25594e-08
4.31131e-08
3.52309e-08
-5.79893e-08
2.27584e-08
6.73368e-08
-1.22422e-07
5.50853e-08
1.86566e-08
-2.0301e-08
9.17667e-09
-7.53233e-09
-6.54457e-08
8.34476e-08
5.24714e-07
-4.67718e-07
6.09955e-11
-3.80466e-11
-2.29459e-11
1.32134e-08
-2.72925e-08
1.40791e-08
8.8034e-11
-2.668e-07
2.66712e-07
-1.15341e-08
8.80557e-08
-7.65216e-08
9.13173e-08
-1.28142e-07
3.68246e-08
4.05641e-08
-6.52255e-07
6.11691e-07
-9.36971e-08
-1.60922e-08
-1.12214e-08
2.73138e-08
-3.41067e-08
3.17122e-08
-1.36976e-08
1.13541e-07
-2.04143e-08
2.02749e-08
-1.13405e-07
3.92955e-08
3.74582e-10
-1.81876e-08
1.23762e-08
5.81145e-09
3.87933e-07
3.87079e-09
-3.91803e-07
-3.27972e-08
3.19059e-08
8.91299e-10
4.4499e-07
9.40999e-10
-4.45931e-07
8.24196e-09
3.83459e-08
-4.65877e-08
5.31299e-08
1.6161e-08
-6.92908e-08
-4.51411e-08
2.16341e-08
-2.24582e-08
4.59651e-08
7.31398e-08
4.04e-08
-2.59656e-08
1.36352e-08
3.68664e-07
-4.35879e-08
-3.25076e-07
5.94683e-08
-6.87408e-08
9.27268e-09
6.87499e-09
-1.6009e-08
9.13399e-09
1.87668e-08
-3.27e-09
-1.54968e-08
3.66854e-08
-2.9477e-08
-2.71685e-08
-2.24515e-06
6.94595e-07
2.90959e-08
-2.94297e-08
-2.22922e-09
2.56307e-09
3.55838e-08
-2.80524e-08
-7.5314e-09
1.16862e-10
3.37107e-08
-8.13222e-10
9.58628e-10
-3.40158e-08
3.30572e-08
-1.81423e-11
1.97272e-11
-1.58165e-12
1.75876e-08
1.90978e-08
-3.2538e-08
-4.80756e-08
4.77367e-08
3.28769e-08
-1.2233e-07
1.54035e-07
-3.17098e-08
-4.19785e-08
3.86129e-08
3.36563e-09
-9.15062e-09
-4.40336e-07
-1.28474e-08
4.62335e-07
-4.06649e-07
-4.11552e-08
4.47808e-07
-1.42744e-07
9.83194e-08
1.2885e-07
1.68693e-10
-1.5238e-08
1.48535e-08
2.15826e-10
-1.12679e-10
1.41934e-09
3.3607e-08
-3.49136e-08
-3.80257e-08
4.06248e-10
2.09591e-12
3.76174e-08
-1.14425e-08
-6.41155e-10
1.20836e-08
6.21804e-08
5.17572e-09
-6.38649e-08
-3.49145e-09
4.97432e-09
-4.67718e-09
-2.97146e-10
2.87137e-08
5.28381e-10
8.75937e-09
6.59589e-08
-7.98336e-09
-6.67349e-08
9.09304e-09
-1.09813e-08
1.88829e-09
2.89077e-08
3.87087e-10
-1.82823e-08
-4.28137e-09
2.25637e-08
3.49974e-08
5.00098e-09
-3.99984e-08
8.03323e-07
-6.31495e-07
-1.71828e-07
-4.04492e-08
3.9929e-08
-4.35677e-08
4.40878e-08
-6.2258e-08
6.8605e-08
-6.34698e-09
-2.85245e-08
-4.97453e-09
3.34991e-08
1.42674e-08
5.9565e-10
-1.30525e-08
-1.81054e-09
-4.33661e-08
-6.16231e-09
4.95284e-08
-3.1006e-08
3.81528e-08
-7.14671e-09
8.88146e-10
-4.37724e-10
-1.53839e-08
-2.41118e-07
-8.86053e-08
3.29723e-07
3.65848e-08
-2.18038e-09
-3.44044e-08
-2.21005e-08
3.58481e-08
-1.37476e-08
1.1476e-08
-1.83537e-10
-1.12925e-08
-6.04815e-09
-2.28636e-11
6.03827e-09
3.27756e-11
1.20493e-09
-1.20492e-09
-2.32586e-09
2.32586e-09
6.25516e-09
2.67997e-11
-6.11325e-09
-4.36183e-09
7.22739e-09
-4.08824e-11
-2.82467e-09
4.25684e-08
-9.92285e-10
-4.15761e-08
-2.0873e-09
2.19657e-09
-3.57482e-12
-1.05677e-10
4.48977e-09
9.06452e-10
-5.39624e-09
3.91896e-08
-6.71293e-08
2.79397e-08
2.588e-08
-2.52773e-08
3.03234e-08
-3.09261e-08
-1.1371e-08
9.4451e-09
-1.86849e-08
1.86348e-08
5.00842e-11
-7.56078e-10
7.56083e-10
-1.26617e-08
1.26617e-08
2.34221e-10
-2.06858e-09
-7.86974e-10
2.62136e-09
2.97592e-08
-1.6458e-09
-3.21084e-08
3.995e-09
-6.12633e-08
-1.27695e-07
1.88959e-07
-2.18702e-08
-4.16301e-08
2.74476e-08
3.60528e-08
1.2753e-10
-4.62043e-10
7.98846e-10
2.74827e-09
-2.04774e-09
3.19888e-08
-3.26892e-08
-1.67446e-08
-9.60886e-09
2.63535e-08
5.34771e-09
-5.67788e-10
-4.77993e-09
-2.10238e-07
9.77901e-08
1.12448e-07
2.81598e-10
-5.12426e-11
2.20844e-10
-4.51187e-10
-1.12175e-09
-1.23311e-08
1.34528e-08
-4.70185e-10
3.85954e-08
-3.81252e-08
-3.64824e-08
-2.03933e-09
3.85217e-08
1.15446e-06
-1.11128e-06
-4.31648e-08
-1.82953e-08
-7.80521e-09
2.61005e-08
-5.079e-10
9.10693e-11
-5.16764e-08
5.20933e-08
1.68078e-08
-1.52054e-08
-1.60235e-09
-1.21769e-07
-1.93847e-08
1.99791e-09
-2.31022e-09
-9.10797e-09
9.42027e-09
1.11714e-08
-6.04976e-09
6.59981e-09
-1.17215e-08
-3.0335e-09
-3.06004e-08
3.36339e-08
2.43815e-08
-5.7644e-09
-1.8617e-08
7.70915e-09
-2.15699e-08
1.38608e-08
9.11548e-11
-3.54696e-11
-5.56847e-11
3.94235e-08
-3.94092e-08
-1.42844e-11
-3.07527e-08
-2.21266e-09
3.29654e-08
3.06544e-08
4.0799e-11
-3.05989e-08
-9.63269e-11
4.04175e-08
-4.0429e-08
1.15885e-11
2.12215e-08
-2.18929e-08
2.19807e-08
-2.13093e-08
6.26402e-09
-8.01858e-09
1.75457e-09
2.85845e-09
2.88628e-08
-3.17213e-08
-2.24349e-10
1.08508e-08
-1.06264e-08
-4.47594e-08
4.49722e-08
-8.64338e-10
6.51431e-10
-3.79886e-08
9.74004e-10
3.70146e-08
-1.71909e-09
5.68853e-10
-4.83142e-08
4.94645e-08
-6.96864e-09
1.59379e-07
-1.7244e-07
2.00293e-08
4.62786e-08
-4.74125e-08
6.88336e-10
4.47479e-08
-4.54362e-08
4.8463e-08
-8.04545e-09
4.39604e-08
-5.19354e-09
4.47168e-08
7.241e-09
-4.67642e-08
3.89692e-08
3.11747e-08
-3.46445e-08
-3.54994e-08
1.01957e-07
2.05275e-08
-1.22484e-07
3.76165e-08
1.35276e-09
5.31967e-07
-5.0967e-07
-2.22971e-08
-1.14616e-10
1.15907e-08
4.95694e-08
2.77066e-07
-3.26635e-07
-3.13508e-07
-5.68218e-07
4.30759e-07
4.40987e-07
3.77646e-07
-1.11229e-07
5.87964e-08
-3.3427e-07
-6.95917e-10
3.01484e-08
-2.94525e-08
-1.41476e-09
4.69729e-08
-4.55581e-08
-4.2626e-11
1.2493e-10
5.40128e-09
3.9439e-08
-5.14344e-08
1.19954e-08
-2.12197e-08
1.59177e-08
5.30202e-09
-4.00187e-08
5.16991e-08
-1.16804e-08
-3.92046e-09
8.82818e-09
-4.90771e-09
-2.94712e-08
3.37912e-08
3.32966e-08
-3.42818e-08
9.33853e-08
-5.91035e-08
-2.79653e-08
-3.10866e-07
5.86396e-08
1.11671e-08
-1.10944e-08
-7.26509e-11
8.71326e-11
6.16116e-09
-9.00044e-07
1.18132e-06
-2.81277e-07
-6.21389e-07
4.82813e-07
1.38576e-07
2.32493e-08
-2.3165e-08
-3.88702e-09
3.80273e-09
2.07583e-08
5.86042e-11
-2.07297e-08
-2.41764e-11
1.92817e-08
1.50077e-09
1.70344e-09
3.26445e-09
3.33204e-08
2.61242e-09
-2.98956e-08
2.72832e-08
-4.20174e-09
3.2293e-10
3.87881e-09
2.47506e-09
-2.14722e-09
-1.48658e-10
-1.79178e-10
-3.6584e-07
3.04981e-07
6.88693e-08
1.82188e-09
5.21735e-10
-1.49506e-09
-8.48543e-10
-7.94635e-09
9.6985e-09
-6.0729e-09
4.32076e-09
1.4136e-09
1.40557e-09
-3.44105e-10
1.2649e-08
2.65852e-09
-1.38418e-08
-1.46565e-09
-1.6536e-09
-1.80956e-08
1.97492e-08
-1.06835e-07
8.04015e-08
2.64338e-08
-2.67242e-09
2.67242e-09
-8.66916e-10
2.5384e-10
6.13076e-10
-3.26666e-08
-3.57935e-09
3.6246e-08
9.9607e-09
-1.05496e-08
2.00252e-09
3.54455e-09
2.03308e-09
-2.80662e-09
1.8593e-10
1.42538e-08
4.06197e-10
-1.48459e-08
-3.38188e-09
2.18568e-08
-1.84749e-08
1.51199e-07
5.39827e-07
-6.91026e-07
2.40945e-07
-8.53105e-07
6.1216e-07
1.14101e-08
4.35901e-07
-2.63728e-08
-4.20938e-07
2.05377e-08
3.55703e-10
1.09765e-08
-9.46548e-09
-3.3024e-08
3.1513e-08
9.75673e-08
-1.16608e-07
1.90329e-08
-3.31178e-08
-4.01515e-09
3.12405e-08
5.89241e-09
-2.12959e-07
7.44184e-08
-7.86112e-08
2.17151e-07
1.12526e-07
2.33081e-07
-3.45606e-07
-1.46572e-07
-7.06059e-07
1.80697e-07
6.71934e-07
-5.26808e-07
5.27291e-07
-1.06009e-09
1.10815e-08
-1.10815e-08
1.65252e-08
3.28669e-08
-2.76164e-08
-5.25042e-09
-3.50388e-07
8.40496e-09
3.41983e-07
-1.88479e-07
1.89816e-07
-1.33807e-09
2.3648e-08
-3.15217e-07
1.64944e-08
-1.4491e-07
1.28416e-07
7.84669e-08
-6.97075e-08
2.01623e-07
-1.35617e-07
1.27467e-07
-2.69524e-07
1.42057e-07
7.09404e-08
-2.55678e-08
1.82965e-07
-1.52202e-07
-3.07632e-08
-1.64443e-08
-3.0902e-08
4.73463e-08
4.34575e-07
-2.71564e-07
-1.63012e-07
-4.20354e-08
7.76034e-10
4.15057e-08
-2.46305e-10
-4.23199e-08
5.13314e-08
-9.01148e-09
4.49827e-08
-4.79436e-08
-4.57655e-08
4.87263e-08
-1.51032e-07
-1.10901e-09
-4.09264e-08
3.35547e-09
-5.18071e-07
5.6297e-07
-4.82541e-08
1.72035e-07
-1.6868e-07
1.59537e-08
5.23271e-07
-5.39224e-07
-1.18868e-08
-7.85957e-09
1.97463e-08
-2.07641e-10
2.06209e-10
-1.34319e-10
1.3574e-10
1.24006e-06
3.24159e-08
-1.27248e-06
-4.64251e-11
4.66288e-11
-1.78235e-10
1.78033e-10
-2.50348e-08
4.03388e-08
-3.98304e-08
2.45264e-08
2.65106e-09
-5.54659e-07
5.52008e-07
4.26928e-08
7.76074e-09
-5.04535e-08
2.50236e-08
-2.24572e-08
-2.56639e-09
-1.25913e-08
7.46764e-09
5.12362e-09
-8.34829e-09
8.07214e-09
2.76156e-10
1.32783e-06
-1.32424e-06
-9.33058e-10
4.05734e-08
1.09795e-09
-4.16714e-08
-4.20331e-08
5.28553e-07
-4.8652e-07
-6.76019e-09
1.47536e-09
3.37603e-08
-3.2671e-08
-1.08933e-09
-1.08155e-07
1.89083e-08
8.92462e-08
-2.21646e-07
-7.82309e-08
2.38614e-07
9.32009e-10
-3.66352e-08
3.57033e-08
-8.67581e-10
-1.4932e-07
3.69553e-08
1.66828e-09
-3.86236e-08
1.45127e-06
-1.43236e-06
-1.52808e-09
-3.21207e-11
1.5602e-09
-1.50571e-08
-1.66525e-10
1.52236e-08
4.16236e-08
-1.84266e-09
-4.21232e-08
2.34232e-09
4.0119e-08
2.2183e-09
-1.78602e-09
-4.05512e-08
-1.17047e-08
1.08051e-08
8.99637e-10
1.4504e-06
-3.77435e-09
-1.48525e-08
1.86269e-08
2.74736e-07
-5.00909e-08
-5.13906e-08
-2.29033e-08
-8.57776e-08
1.60074e-07
-1.22848e-08
1.18132e-08
4.71693e-10
4.27125e-08
2.09275e-07
-2.51987e-07
7.13942e-08
-3.11847e-07
-2.10357e-08
2.20066e-08
-9.70891e-10
6.22798e-09
-4.02562e-08
-1.53026e-08
1.77563e-08
6.69867e-08
3.9536e-09
-1.86269e-08
1.35643e-08
5.06253e-09
-2.09194e-09
1.62715e-09
-1.1422e-08
5.4755e-08
-1.45926e-07
9.11709e-08
1.84758e-08
-2.05678e-08
-4.69773e-08
2.66945e-07
-2.19968e-07
3.76956e-08
-3.85558e-08
3.83725e-10
4.76494e-10
1.65832e-10
6.79604e-09
2.76048e-08
-9.9832e-09
-1.76216e-08
-2.37212e-07
-3.89734e-07
6.26946e-07
3.37017e-08
-7.57298e-09
9.27005e-09
-3.53987e-08
9.41561e-09
-2.29492e-08
1.35336e-08
2.00319e-08
4.26409e-08
-1.68561e-08
-2.57847e-08
2.04121e-08
-2.31291e-10
-2.01808e-08
-1.94488e-08
2.85774e-10
1.9163e-08
5.08571e-12
-1.36898e-09
1.36391e-09
1.10846e-10
-4.75881e-10
-1.90837e-08
1.89632e-09
-1.2042e-10
-1.7759e-09
1.89632e-09
6.84991e-09
-3.63024e-07
3.56174e-07
-8.02425e-09
7.16734e-09
-4.51711e-10
1.30804e-09
2.16252e-06
-2.16252e-06
-9.42358e-07
-1.06684e-08
9.36716e-07
-5.29697e-09
2.53288e-08
-1.75461e-08
-1.65879e-06
1.67634e-06
-3.57247e-08
4.50223e-09
3.12225e-08
5.00864e-08
-1.15168e-07
6.50819e-08
9.72239e-09
-8.33982e-09
-8.14276e-09
-3.91964e-08
4.00095e-08
4.92733e-08
1.49783e-06
1.91041e-09
-1.49974e-06
4.12366e-08
-8.04329e-08
6.79242e-07
-6.79241e-07
3.86894e-10
-3.86897e-10
-2.32342e-08
3.3963e-08
-1.07287e-08
6.91681e-07
-6.51671e-07
4.92312e-08
-1.45151e-09
-5.04397e-09
-4.27356e-08
-3.04398e-09
5.22752e-08
-8.96156e-08
-6.03918e-08
7.79044e-08
7.21031e-08
4.48396e-08
-4.47934e-08
1.41005e-08
-1.41466e-08
2.82901e-09
7.30088e-07
-9.48928e-08
2.40312e-07
-1.45419e-07
-4.71797e-08
7.60655e-08
-2.88851e-08
2.71166e-08
-5.43846e-08
2.72679e-08
2.51408e-08
4.07049e-08
-3.9989e-08
-2.58572e-08
3.33826e-08
-2.33335e-08
1.13902e-09
-5.9958e-10
2.27941e-08
-1.64846e-08
-6.87751e-09
5.0799e-09
-4.76596e-09
3.41031e-08
-3.36184e-08
-3.69988e-08
2.38103e-08
1.31887e-08
6.9989e-10
1.79279e-08
-8.36417e-10
-1.77913e-08
5.65649e-07
-4.80602e-07
-8.50473e-08
1.10582e-08
-1.12227e-08
1.64464e-10
-3.75016e-10
1.11584e-08
-1.07834e-08
5.6718e-11
-2.47901e-11
-9.80925e-09
9.77738e-09
9.63254e-08
-2.87475e-07
1.9115e-07
-2.06001e-08
1.76793e-08
2.98795e-07
5.00052e-08
-2.52475e-07
-7.413e-09
1.97424e-09
5.43879e-09
-2.24444e-08
-8.89099e-10
-8.53046e-07
1.04969e-07
8.24916e-07
1.50588e-09
-1.75166e-08
1.71628e-08
-1.15203e-09
-7.5689e-07
7.45848e-07
1.10422e-08
-1.28651e-08
-2.43303e-08
3.71955e-08
2.11958e-10
-5.82985e-09
5.623e-09
-1.26557e-08
1.51709e-08
-2.51519e-09
-5.61202e-10
-6.85179e-09
3.87968e-08
-3.81619e-08
3.72257e-08
-3.78606e-08
2.25283e-08
-1.37249e-09
2.64473e-09
-2.38005e-08
1.20432e-08
-8.1706e-10
-1.12262e-08
3.7129e-10
1.52738e-08
-1.56451e-08
4.75461e-09
-4.59177e-09
-4.91913e-08
4.90285e-08
4.94304e-09
-5.29196e-09
-2.12265e-10
1.30849e-08
-1.30849e-08
3.84909e-08
7.98223e-10
-5.69377e-10
-3.87197e-08
9.05342e-09
-1.31867e-08
4.13331e-09
1.08886e-06
-1.12241e-06
3.35426e-08
-5.30465e-09
5.5285e-09
-2.23851e-10
-6.22603e-09
-8.91759e-09
1.51436e-08
8.79999e-10
-1.15187e-08
1.26366e-08
-1.55157e-08
2.075e-08
-5.23426e-09
-1.50868e-08
-5.45163e-09
2.05384e-08
1.41409e-08
-2.88883e-09
-1.12521e-08
3.91441e-08
-7.98632e-09
-3.11577e-08
1.22286e-08
1.79713e-08
-1.33038e-08
-1.68961e-08
-2.0428e-09
8.88512e-09
-6.8425e-09
-3.0012e-08
-2.50449e-08
5.50569e-08
3.63148e-09
3.64341e-08
-4.00656e-08
7.46834e-09
-1.19916e-08
4.52328e-09
7.28712e-09
2.15e-07
-2.13567e-08
-3.55041e-08
2.00805e-08
3.67803e-08
2.36902e-11
-6.04944e-11
3.68091e-11
3.11737e-11
-2.40891e-09
6.64964e-11
2.57812e-08
-8.50599e-09