/*--------------------------------*- C++ -*----------------------------------*\
| =========                 |                                                 |
| \\      /  F ield         | OpenFOAM: The Open Source CFD Toolbox           |
|  \\    /   O peration     | Version:  v2006                                 |
|   \\  /    A nd           | Website:  www.openfoam.com                      |
|    \\/     M anipulation  |                                                 |
\*---------------------------------------------------------------------------*/
FoamFile
{
    version     2.0;
    format      ascii;
    class       surfaceScalarField;
    location    "0.01";
    object      phi;
}
// * * * * * * * * * * * * * * * * * * * * * * * * * * * * * * * * * * * * * //

dimensions      [0 3 -1 0 0 0 0];
oriented        oriented;


internalField   nonuniform List<scalar> 
23448
(
-1.00431e-08
3.89446e-09
6.14866e-09
6.47869e-10
-1.05124e-08
6.51241e-10
9.21349e-09
-1.37611e-08
1.7783e-09
1.19829e-08
4.97425e-08
-2.56476e-08
-2.40949e-08
-7.90622e-09
-1.34723e-09
9.25349e-09
-1.04921e-09
3.33167e-09
-2.28256e-09
6.3729e-08
4.11251e-07
-1.91509e-07
-3.40933e-07
-4.8301e-08
3.71419e-08
1.11184e-08
4.05368e-11
2.32714e-08
1.96306e-08
-2.50414e-08
-4.84176e-08
2.27911e-08
5.0668e-08
-1.8507e-09
-1.01323e-08
1.1983e-08
4.28922e-10
3.50238e-09
3.5012e-09
-7.43265e-09
9.24034e-09
1.84349e-09
-6.93163e-09
-4.15223e-09
5.0107e-10
3.47402e-08
-7.66575e-10
-3.44747e-08
-4.90832e-09
5.33714e-09
9.28891e-08
-2.90221e-08
-6.38671e-08
-1.08311e-08
1.22118e-09
9.60995e-09
-1.08312e-08
3.33272e-08
-2.78003e-08
5.8691e-09
-1.13978e-08
-1.39716e-09
1.47334e-08
-1.33362e-08
2.82606e-09
-3.74098e-09
9.14901e-10
-5.4581e-10
-1.36896e-08
2.51244e-09
1.1723e-08
5.4529e-08
-1.83028e-08
-3.62261e-08
-5.97524e-10
-1.4087e-08
1.46844e-08
-2.37414e-08
3.2141e-09
2.05276e-08
-1.47338e-08
4.31189e-10
1.3705e-08
4.49277e-09
7.92178e-11
-2.03854e-09
-2.53361e-09
-5.36405e-09
5.36403e-09
-4.3492e-09
-1.91437e-09
6.26355e-09
-9.05823e-09
9.09016e-09
-3.19821e-11
-2.62437e-09
-5.54745e-10
3.17903e-09
9.2527e-10
4.36642e-11
-1.07466e-09
1.05642e-10
-1.34007e-08
-2.40427e-09
1.21105e-09
1.45938e-08
3.69694e-09
2.65883e-09
-6.35583e-09
-3.0812e-09
-1.1548e-08
1.22853e-09
-2.27569e-07
7.02366e-09
2.20545e-07
-1.61454e-08
1.37411e-08
-4.10419e-09
-1.51224e-08
-5.99553e-08
1.32801e-08
4.66754e-08
1.00018e-07
1.10386e-07
-2.10404e-07
2.98996e-09
-2.06475e-09
-1.69181e-09
1.73542e-09
6.15575e-09
-3.29048e-09
8.1912e-09
-1.10567e-08
9.88838e-09
-5.76656e-08
5.72815e-08
-9.50425e-09
-1.32625e-09
2.64533e-08
-2.41725e-08
-1.28545e-08
1.05736e-08
-4.29455e-09
3.74873e-09
3.25299e-10
2.9792e-09
-3.06715e-09
-2.3744e-10
-2.82606e-09
5.45597e-10
2.28046e-09
-1.01507e-08
1.42188e-08
-1.49146e-08
1.08464e-08
-3.86974e-09
-1.14393e-08
5.4922e-09
9.81684e-09
-3.18695e-10
-3.55105e-09
-1.80677e-09
-2.09354e-09
3.90032e-09
-5.11467e-09
-1.96443e-08
2.4759e-08
9.87124e-09
-7.20381e-09
-2.66745e-09
4.17096e-09
-1.26202e-08
8.44922e-09
-4.19319e-07
-6.58628e-08
4.84598e-07
-6.29049e-10
-1.28821e-10
7.57869e-10
5.74214e-09
-6.02744e-09
4.45617e-08
-4.42764e-08
-1.84893e-09
4.75176e-08
-4.56686e-08
-2.15284e-08
1.51836e-08
6.3447e-09
4.56849e-08
-7.92905e-09
-3.77559e-08
-2.0752e-07
2.19466e-07
-1.19465e-08
3.07968e-10
-1.60415e-08
1.57336e-08
8.15828e-10
-4.26947e-08
4.18789e-08
-5.47635e-09
1.3461e-09
-1.67172e-09
5.80199e-09
-1.5733e-08
7.99848e-09
7.73448e-09
8.76718e-10
-1.71419e-08
1.62652e-08
7.1613e-09
-7.03388e-09
-1.27512e-10
-1.56623e-08
-1.80289e-08
1.01221e-08
2.35687e-08
3.93066e-09
-1.08788e-09
-2.84279e-09
-8.42599e-09
8.20292e-09
1.26812e-08
-1.24582e-08
-2.07766e-08
2.01249e-08
7.66868e-10
-1.15244e-10
-1.91001e-08
2.24441e-07
-2.05342e-07
5.89807e-07
-5.59257e-07
-3.05507e-08
4.3491e-08
-1.77388e-10
-4.33136e-08
-7.86619e-08
1.61326e-08
6.85572e-08
-6.03437e-09
3.1986e-08
-3.19861e-08
4.89662e-08
-5.47533e-09
2.96435e-09
-2.40059e-09
-5.63739e-10
-4.58926e-07
-8.56424e-09
4.6749e-07
-2.74616e-08
1.17993e-08
4.28522e-07
-4.42446e-07
-4.75704e-07
4.68114e-07
-1.01486e-08
4.87682e-08
-3.86197e-08
-6.58845e-08
4.05067e-07
-3.39613e-07
8.50868e-09
-2.65376e-08
-2.04792e-09
-3.18718e-08
3.39197e-08
-6.63199e-09
-7.34048e-08
1.75585e-08
5.58454e-08
4.26484e-08
-2.46038e-07
2.03389e-07
1.58103e-07
-2.09183e-07
5.1079e-08
1.08202e-08
1.3707e-08
-2.45272e-08
1.09325e-07
-1.20294e-07
1.09695e-08
-5.14819e-08
2.07147e-08
-3.07019e-08
-3.98862e-08
7.05883e-08
2.65645e-09
4.53604e-08
-4.8017e-08
-2.4205e-08
-4.19293e-07
4.12279e-07
-4.93486e-07
4.93486e-07
-1.90911e-09
1.39716e-09
5.11912e-10
1.18837e-07
-5.97835e-08
-5.90527e-08
5.52792e-10
1.31701e-09
-1.86987e-09
-4.96112e-07
2.62546e-09
-1.2008e-07
3.13702e-08
8.87096e-08
9.02775e-09
-2.30893e-08
1.40615e-08
-1.65826e-08
-3.48994e-08
-2.55901e-10
-1.43538e-08
1.46096e-08
-4.90122e-09
4.90119e-09
-1.23591e-09
-3.64242e-08
3.76601e-08
-2.40978e-09
2.40976e-09
-9.41368e-08
1.18142e-07
1.63582e-08
-4.03638e-08
4.94414e-08
-5.20397e-08
2.59825e-09
-3.25431e-09
-7.34354e-09
1.05978e-08
-1.1278e-07
1.2532e-07
-1.25401e-08
-6.97448e-09
1.73476e-08
7.43178e-09
-1.78046e-08
-3.04336e-09
-1.3441e-09
9.08131e-09
-4.69399e-09
2.19517e-09
-2.63933e-09
-1.17857e-09
1.62269e-09
3.80703e-10
-1.98591e-10
-1.82037e-10
-9.92843e-08
5.14748e-09
-1.54855e-08
1.23432e-08
-6.28604e-09
9.42796e-09
2.08566e-07
-8.41626e-10
-1.97072e-07
-1.06576e-08
1.44951e-08
-1.44951e-08
-1.94933e-08
-7.14143e-09
2.6635e-08
-4.87812e-07
-2.42651e-08
5.12076e-07
-4.66668e-07
-2.11438e-08
-9.31263e-08
8.59538e-08
7.17203e-09
-4.40036e-07
5.40054e-07
-1.34957e-08
1.95414e-08
-6.04571e-09
7.62314e-09
-1.72452e-08
-9.07795e-09
1.86999e-08
2.63947e-08
-4.13353e-08
4.61785e-08
-3.12379e-08
1.54692e-09
-3.67653e-09
2.12963e-09
-4.02191e-09
6.16352e-09
-2.14158e-09
4.22401e-07
-5.21057e-07
9.86534e-08
1.1421e-09
1.73197e-08
-1.28177e-08
-5.6442e-09
-3.71719e-07
3.71719e-07
-3.44691e-08
8.33036e-09
-1.40323e-08
4.01708e-08
-2.68275e-08
-7.04343e-09
6.06976e-09
2.78014e-08
-1.0792e-07
2.82395e-09
1.05096e-07
-1.73265e-08
7.13651e-09
1.019e-08
6.8391e-09
-1.18675e-08
5.02856e-09
1.74715e-07
-1.63384e-08
4.10213e-08
-1.994e-07
-2.2696e-08
-2.26089e-08
4.53052e-08
2.32511e-08
-4.78377e-07
4.55125e-07
-2.84769e-09
1.51861e-08
-1.23384e-08
-9.21747e-09
-2.35104e-08
3.27281e-08
2.50087e-09
-2.27564e-09
-1.04142e-08
1.01891e-08
-4.18479e-09
-1.40869e-08
1.82718e-08
-2.54815e-10
2.92315e-08
5.8403e-10
-2.95608e-08
1.02217e-08
-3.72115e-09
3.72111e-09
2.79726e-09
-4.9219e-10
-2.30504e-09
3.53359e-09
9.37761e-09
-1.29111e-08
4.35199e-09
-1.19461e-07
1.15109e-07
2.7862e-08
-1.94604e-07
1.66746e-07
-1.99371e-08
1.90635e-09
1.80306e-08
7.04394e-09
-6.51409e-10
-6.39245e-09
7.21449e-08
4.76123e-09
-7.69066e-08
-4.78218e-08
-1.5572e-07
2.5722e-08
-2.32523e-08
-2.46976e-09
3.65675e-09
1.94454e-09
-5.60128e-09
2.1876e-07
-1.86114e-07
7.77404e-08
-6.04061e-07
3.06009e-08
-4.23925e-08
1.17916e-08
2.40545e-08
1.36934e-09
-4.347e-09
-2.10769e-08
2.22246e-08
4.44182e-10
3.05316e-09
-1.72956e-08
1.6887e-08
4.08696e-10
1.19256e-08
4.87567e-10
-1.24132e-08
-8.60686e-09
8.47791e-09
1.29121e-10
1.82553e-08
1.96623e-09
-1.91688e-08
-1.05261e-09
1.52331e-09
-4.53526e-09
3.01176e-09
1.8444e-09
-2.50196e-09
6.57525e-10
1.5246e-09
-4.24873e-08
4.53145e-08
-1.78975e-09
1.86167e-09
-7.19766e-11
8.27649e-09
-3.1279e-08
2.30027e-08
5.21698e-10
-5.21748e-10
9.48017e-10
9.91886e-09
-1.08669e-08
-2.01655e-09
-2.92268e-09
3.12203e-09
1.81706e-09
-1.50526e-07
-4.51301e-08
9.25992e-08
1.03066e-07
2.14107e-07
-2.12583e-07
-1.36014e-08
-1.18454e-07
1.25947e-08
4.08487e-09
-3.8184e-09
-2.66539e-10
-5.88175e-09
2.34993e-09
3.5317e-09
-1.26387e-08
1.55515e-08
-2.91282e-09
-1.79689e-08
2.65761e-09
1.53111e-08
2.31251e-08
-1.35609e-08
-9.56433e-09
-1.44593e-07
6.34713e-07
-4.94842e-07
-6.82927e-09
-5.65622e-10
7.39483e-09
3.00555e-09
-1.80976e-09
-5.30952e-10
-6.6498e-10
-1.19708e-07
4.38873e-08
7.58202e-08
-5.60887e-08
4.57736e-09
-2.02784e-09
-2.41662e-09
-1.3305e-10
5.84165e-09
-1.57911e-08
1.82261e-08
-2.94296e-07
-9.16858e-08
3.85982e-07
-1.36815e-09
2.02853e-09
-3.37125e-09
2.71072e-09
2.65176e-08
-2.00963e-09
-2.45079e-08
1.56165e-09
-1.91888e-09
4.76001e-09
-4.40289e-09
1.88169e-08
2.24729e-07
-2.43545e-07
-3.91155e-09
5.2165e-09
-1.30509e-09
-3.56539e-09
2.73566e-09
8.298e-10
6.72937e-11
1.08411e-09
-1.15146e-09
6.32782e-10
-4.54442e-09
-3.53999e-09
-1.283e-09
4.82284e-09
-2.39492e-08
3.03976e-08
-6.44855e-09
5.86068e-09
-6.42354e-09
5.6274e-10
-7.79891e-09
6.0373e-09
1.76149e-09
2.1503e-09
-3.51733e-09
1.36693e-09
-5.72005e-09
3.38266e-09
9.74056e-10
1.36321e-09
4.42948e-10
-1.36593e-09
-1.01006e-08
1.10235e-08
4.24715e-09
-2.57909e-09
7.85763e-09
-9.52581e-09
1.06339e-08
-1.18714e-08
-7.67832e-09
8.9157e-09
2.17014e-07
-1.85343e-07
-1.28534e-08
1.05905e-08
9.20787e-08
-1.02671e-07
-4.03233e-08
3.35292e-09
3.69704e-08
-7.2921e-09
6.44312e-09
8.4889e-10
-6.42933e-10
6.42909e-10
-1.27473e-08
1.05023e-08
2.24487e-09
1.8555e-09
-2.1815e-10
1.01343e-08
-9.69135e-09
-2.60398e-08
2.43055e-07
6.24863e-10
8.81139e-09
-8.55767e-09
-8.78677e-10
1.41683e-08
-1.56284e-08
-1.4478e-08
1.59379e-08
-1.49771e-09
1.62551e-09
-3.64994e-10
2.37084e-10
-3.74849e-09
4.37331e-09
-9.56071e-08
2.06117e-08
-1.50512e-09
-1.93633e-08
2.56719e-10
-7.86062e-09
2.3771e-08
-1.59105e-08
-2.82757e-09
1.37055e-08
-1.08779e-08
2.71953e-09
4.61023e-09
-4.94095e-09
-2.38892e-09
-1.11788e-09
1.11785e-09
-1.82699e-08
-1.52751e-08
1.80053e-08
1.55396e-08
-2.62276e-09
-7.70639e-09
3.90128e-09
6.42776e-09
-7.24823e-09
7.08622e-10
7.36223e-09
-8.22743e-10
4.10786e-08
-4.22067e-08
1.12844e-09
1.65915e-08
-1.55498e-08
-3.86926e-09
-1.20905e-09
-1.72814e-09
2.93713e-09
1.20993e-09
-1.20999e-09
-3.65018e-09
1.68043e-08
-1.89515e-08
5.79706e-09
-5.71008e-10
4.70293e-09
-3.98913e-09
-1.42861e-10
-7.55347e-09
2.7891e-08
-2.03379e-08
-1.64497e-10
2.55502e-09
-2.90234e-10
-2.10042e-09
-5.4736e-09
5.82731e-09
-1.50889e-09
1.15504e-09
-1.18332e-08
7.94802e-09
1.12867e-08
-7.40142e-09
-7.36968e-09
1.27066e-09
6.09899e-09
-4.10366e-09
6.98195e-09
-2.87833e-09
4.90087e-09
-1.32185e-09
2.89607e-09
-6.47525e-09
3.58245e-08
-3.208e-08
-3.7446e-09
1.02001e-08
-5.69874e-09
-4.50137e-09
-1.29213e-08
1.19949e-08
-2.0602e-08
-1.88281e-09
-7.85264e-09
9.73527e-09
8.69628e-09
-1.35032e-09
1.62034e-08
-2.35501e-08
2.45836e-09
-4.93821e-09
3.6595e-09
-1.17974e-09
2.1137e-08
-4.54548e-09
-6.16155e-10
-2.8795e-09
3.49561e-09
3.51021e-09
-3.51022e-09
-3.99485e-08
3.90782e-08
8.70173e-10
-5.22149e-10
3.24066e-09
-3.31845e-09
5.99842e-10
1.10263e-08
-1.513e-08
-3.10746e-09
-8.60732e-09
7.80847e-09
3.90673e-09
-4.8848e-09
3.31447e-09
1.57035e-09
-8.55094e-09
1.30537e-08
1.79711e-09
-6.29995e-09
-1.19284e-08
-4.4706e-09
1.23771e-08
-8.11504e-09
2.50064e-09
5.61442e-09
-3.53839e-09
3.53838e-09
4.7816e-09
-1.80576e-08
1.3276e-08
-2.78306e-09
2.50461e-09
2.7847e-10
-7.07332e-10
-1.3894e-09
2.09677e-09
-3.32857e-09
2.02048e-09
4.01203e-09
-2.70398e-09
-8.14953e-10
6.3968e-09
-5.58181e-09
1.81696e-09
-4.62881e-09
1.15957e-08
-8.78427e-09
4.37084e-10
-2.34533e-09
-1.04045e-10
2.01221e-09
6.76578e-09
-9.67519e-09
2.90936e-09
-7.98053e-09
-2.9965e-10
8.28014e-09
1.34589e-08
-7.84489e-09
-5.61401e-09
-2.22564e-09
2.22564e-09
4.4679e-09
1.3726e-08
-1.81941e-08
7.80927e-10
-7.80927e-10
6.05491e-09
2.03562e-10
1.30417e-09
-7.56261e-09
-1.23114e-08
-3.72816e-09
1.60394e-08
8.30277e-09
-6.65063e-09
-1.65218e-09
-1.03284e-08
2.2134e-09
-7.07947e-09
9.63844e-10
5.47337e-09
6.42272e-10
4.72607e-09
1.03523e-08
-1.50783e-08
-2.29334e-07
4.29912e-09
2.25034e-07
-2.1387e-09
-1.62705e-08
-2.06499e-08
3.90598e-08
7.34451e-09
-1.19809e-08
4.6364e-09
-1.32262e-08
-8.26737e-10
6.9433e-09
7.10971e-09
-1.78998e-08
7.94355e-07
-7.94355e-07
5.43408e-08
-5.43406e-08
5.43076e-08
7.14644e-08
-7.16069e-08
-5.41651e-08
3.2689e-08
4.16669e-09
-4.03719e-08
3.51658e-09
3.81795e-09
1.7319e-08
2.27947e-08
5.70265e-07
-5.93059e-07
9.20955e-09
-7.8811e-09
-1.32837e-09
-3.69334e-07
4.43449e-07
-7.41161e-08
5.36715e-09
3.00447e-09
-8.37161e-09
-3.2581e-08
1.79988e-08
1.45817e-08
3.13855e-08
2.86758e-07
-2.95338e-07
-2.2774e-07
2.59124e-07
-1.17825e-08
3.85039e-08
-2.67211e-08
1.19333e-08
-1.19333e-08
-3.51667e-07
2.65649e-07
8.60194e-08
1.48785e-08
1.68178e-08
-3.16963e-08
-2.02645e-08
1.07604e-10
-6.19719e-10
3.76669e-10
2.22467e-10
-1.23848e-07
1.23249e-07
5.18713e-08
8.05128e-10
-5.26762e-08
1.69996e-08
-1.82496e-08
1.61285e-08
1.68069e-08
1.53031e-08
-1.52922e-08
-4.25277e-07
1.69514e-07
3.85998e-07
-6.90362e-08
8.38553e-08
-5.62344e-08
-2.76207e-08
-5.60839e-09
-5.06323e-07
5.11932e-07
3.38066e-08
-5.5454e-09
-1.55117e-08
7.44602e-09
1.36109e-08
1.13577e-09
-8.42822e-10
-3.77822e-08
3.74892e-08
4.55109e-09
1.80305e-08
-2.25817e-08
5.01895e-09
-2.05572e-07
2.00552e-07
-3.96373e-08
4.0773e-08
-4.20902e-08
3.06003e-09
3.90301e-08
-4.01186e-08
4.41708e-09
3.57015e-08
2.70732e-08
-2.7302e-08
2.2876e-10
-1.38949e-09
1.12209e-08
-9.83138e-09
2.49197e-09
-3.30129e-09
8.09309e-10
1.72099e-09
7.70981e-10
1.72099e-09
-4.61484e-08
4.58601e-08
1.10413e-09
4.23561e-10
-1.0098e-08
9.6744e-09
9.43116e-09
-9.43119e-09
1.08576e-08
2.82618e-08
-2.53962e-08
-1.37225e-08
-1.57256e-08
-1.26386e-08
2.83642e-08
3.65829e-08
-3.5208e-08
-1.37487e-09
6.08155e-10
5.29924e-10
-1.13798e-09
-9.84476e-09
5.01493e-09
4.82974e-09
-7.00923e-09
1.05862e-09
5.95065e-09
3.62367e-08
-2.01964e-09
2.36579e-09
2.61476e-08
9.25654e-10
1.39628e-09
4.56605e-10
3.41565e-08
-3.60094e-08
-3.55107e-08
9.73495e-10
3.59334e-08
4.02528e-08
-1.67684e-09
-3.85759e-08
-1.62929e-08
1.59542e-08
3.38737e-10
5.5026e-07
-5.5026e-07
-1.67395e-08
1.66917e-08
4.78116e-11
3.64055e-08
-3.60318e-08
-3.7367e-10
-1.17566e-08
5.48243e-10
1.1208e-08
6.09939e-10
-9.88992e-09
9.28e-09
8.94825e-10
-2.82875e-09
-7.88389e-09
4.68351e-09
6.02919e-09
1.43595e-09
-3.6084e-08
-1.38373e-09
-3.96794e-07
-8.6189e-08
6.08001e-08
4.30472e-07
-3.4e-07
6.11863e-08
-1.44828e-07
4.15505e-07
-2.92739e-07
-6.24059e-08
-5.37255e-07
5.54926e-07
3.49405e-08
2.03785e-08
-4.20867e-08
-1.32408e-08
1.24067e-08
-6.12705e-07
-1.82698e-07
1.95606e-07
-1.29077e-08
7.78744e-09
-8.63961e-09
-7.87028e-09
8.7224e-09
1.88253e-08
-4.9083e-09
-1.91998e-08
5.28276e-09
4.27837e-08
-4.13477e-08
1.467e-10
4.70003e-09
-4.84676e-09
-1.57104e-08
-1.33203e-08
1.26223e-08
1.64083e-08
-4.38306e-08
-2.04984e-08
2.39448e-08
4.03843e-08
1.65832e-08
-4.9611e-10
-1.57086e-08
-3.78512e-10
-3.35764e-09
-2.85344e-08
2.85063e-08
3.38574e-09
2.52866e-08
-6.91172e-08
-4.58263e-10
-3.87889e-10
8.46104e-10
5.53778e-09
-1.17588e-09
1.15378e-09
-5.51576e-09
-5.70092e-09
-3.5664e-08
4.13649e-08
-1.02298e-08
6.88922e-09
3.34062e-09
-5.24533e-09
4.85107e-08
5.31159e-10
-5.312e-10
-4.10611e-08
4.10611e-08
1.51513e-07
-2.30138e-07
7.86246e-08
-1.05593e-08
1.99395e-07
-1.88835e-07
2.57585e-09
1.96487e-08
6.86235e-08
-2.24777e-08
-4.61457e-08
-6.28708e-10
2.91741e-08
-2.82687e-08
-2.76755e-10
-3.6942e-08
-5.93573e-08
9.62995e-08
5.27333e-08
-3.80315e-07
-9.38825e-08
4.39706e-07
-3.30132e-08
6.46948e-08
-3.20108e-08
-1.045e-08
4.24606e-08
2.57328e-09
-1.09632e-08
8.38998e-09
-1.01614e-08
-1.0595e-09
1.12208e-08
8.62284e-11
1.00141e-08
-1.01004e-08
-1.21411e-08
-1.46862e-08
-7.22862e-10
-6.64575e-10
1.38739e-09
-1.38516e-08
2.14747e-08
9.36719e-09
-8.84989e-09
2.09643e-08
-2.14816e-08
-1.55992e-08
3.18091e-08
-3.20383e-08
1.58284e-08
-5.92926e-09
1.52964e-08
1.37936e-08
-1.20209e-08
-1.77285e-09
7.93412e-09
-7.98558e-08
2.61038e-10
8.70482e-10
-1.13153e-09
6.04051e-08
-5.63507e-08
-4.20153e-08
3.79609e-08
2.96602e-08
-4.96162e-08
1.99561e-08
-2.47924e-08
-6.53003e-09
3.13202e-08
-1.32243e-09
2.05789e-09
-3.63107e-09
2.89552e-09
-4.90181e-08
5.12425e-09
4.7983e-07
-4.11191e-07
-4.48437e-10
2.49916e-10
1.98591e-10
-1.20198e-08
1.21271e-08
-1.07307e-10
8.61947e-09
6.79825e-09
-1.54182e-08
6.56787e-09
2.54881e-09
-9.11675e-09
-5.55962e-10
-4.90113e-09
5.45668e-09
3.32817e-08
1.31279e-07
-1.64561e-07
-7.70469e-08
8.97328e-09
3.15703e-08
-4.05449e-08
4.38825e-08
-4.7191e-08
1.22814e-08
2.65081e-07
9.28311e-08
-6.70841e-08
-2.90833e-07
-8.5079e-09
2.78778e-09
5.06258e-09
-6.20119e-09
1.13855e-09
-2.21314e-07
3.13157e-08
1.89998e-07
1.54402e-08
-2.99921e-08
1.45515e-08
1.98206e-07
2.41683e-08
-2.22374e-07
3.47908e-08
-4.51843e-08
1.03934e-08
9.60845e-09
6.64097e-08
-7.60182e-08
1.68883e-09
4.90538e-08
-4.73788e-08
-3.36395e-09
3.41309e-07
-7.62289e-08
-6.53837e-10
4.89261e-10
4.72905e-07
-5.45346e-08
-4.20255e-07
1.85631e-08
-3.41371e-08
1.55738e-08
6.72362e-08
-6.2104e-08
-5.13237e-09
-1.06987e-08
3.59352e-09
7.10513e-09
8.0295e-08
-6.48427e-08
-2.60118e-08
-2.05961e-08
7.36992e-09
1.89139e-09
-4.99263e-10
-6.19816e-10
-7.72479e-10
2.75427e-08
-1.63031e-08
-1.12394e-08
-1.68849e-11
-1.04848e-09
-4.32408e-10
-5.63175e-09
9.02463e-09
-3.39299e-09
-2.48738e-10
-9.49627e-11
3.43781e-10
7.44211e-08
5.87395e-09
4.84582e-08
-2.37038e-08
3.67103e-08
-6.14641e-08
-4.17999e-07
4.77983e-08
3.70195e-07
1.10259e-08
-1.07117e-08
-3.14191e-10
-1.57971e-08
-2.46268e-07
4.17054e-08
2.20361e-07
-1.97025e-07
-6.71362e-08
2.64164e-07
-3.25168e-07
3.65399e-07
2.36998e-08
2.81738e-11
-2.37546e-08
2.19945e-08
1.73198e-09
6.85379e-10
2.89216e-09
-6.62273e-09
3.04509e-09
5.05377e-09
7.41658e-10
7.99163e-10
-6.59472e-09
1.34847e-09
1.08684e-09
-2.43537e-09
1.12639e-07
-3.92447e-08
-1.2093e-07
4.75336e-08
2.17422e-09
-1.87863e-09
-2.956e-10
4.08997e-08
1.88394e-09
-5.05109e-09
9.15313e-09
4.70283e-09
-8.80492e-09
3.67056e-09
-1.39627e-09
-2.27437e-09
4.04492e-08
1.34536e-09
-1.12044e-08
-2.44235e-09
1.36469e-08
4.58554e-09
-9.15336e-10
-3.67025e-09
3.11437e-09
-5.76218e-10
-2.53806e-09
-2.90553e-08
2.87948e-08
-2.99356e-08
3.01961e-08
6.16402e-11
1.61237e-10
-2.22889e-10
-1.61347e-08
-1.07494e-08
2.68842e-08
-4.88015e-09
7.46424e-10
5.31636e-09
-1.18276e-09
-4.13881e-08
-5.15178e-08
9.29059e-08
-8.59771e-09
-9.15527e-09
1.77529e-08
2.41832e-09
-1.02272e-09
-1.86911e-08
2.65424e-09
1.2498e-08
-1.51522e-08
-8.08497e-09
-5.07435e-10
8.59233e-09
1.66774e-08
-1.29242e-08
-3.75321e-09
-4.67878e-09
2.23848e-09
2.44025e-09
-1.44824e-08
-1.39704e-09
1.74309e-08
-1.55132e-09
8.13153e-09
-8.13153e-09
-1.17736e-08
1.17736e-08
1.74347e-08
-1.25186e-09
-1.61547e-08
3.71479e-09
-5.38741e-10
-4.2496e-09
1.07339e-09
-4.50804e-09
3.98441e-09
5.23479e-10
-4.07724e-09
5.04582e-09
9.75125e-11
-1.06593e-09
2.14806e-08
-2.79746e-09
-1.86833e-08
2.77281e-08
-5.27544e-08
2.50263e-08
2.77983e-08
-2.87378e-08
3.05017e-08
-2.95622e-08
-1.95741e-08
2.11176e-08
-2.4118e-08
2.04334e-08
3.6847e-09
-6.48246e-09
6.48246e-09
1.33865e-09
-1.33864e-09
1.10382e-10
-3.43439e-09
-1.73173e-09
5.05585e-09
6.9915e-09
7.18333e-09
-8.53759e-09
-5.63738e-09
-8.24786e-08
-9.56298e-08
1.78114e-07
3.74245e-08
2.32928e-08
-3.84019e-08
-2.23158e-08
4.9445e-09
-4.23618e-09
2.79726e-09
7.37024e-09
-6.07357e-09
1.94708e-08
-2.07674e-08
-1.77871e-08
-1.01172e-08
2.79043e-08
-6.8943e-09
1.23733e-08
-5.47913e-09
5.01717e-08
-7.80735e-08
2.79006e-08
7.78956e-10
-5.36133e-11
1.18985e-09
-1.91506e-09
-9.51658e-10
-2.2664e-08
2.36155e-08
-2.85538e-10
-2.59179e-09
2.87718e-09
-3.55303e-08
-4.06855e-09
3.95988e-08
3.64384e-07
-3.61139e-07
-3.23382e-09
8.35901e-09
6.18303e-09
-1.4542e-08
-2.10508e-09
4.50211e-09
1.64292e-08
-1.88264e-08
2.2701e-08
-2.34671e-08
7.65978e-10
-4.7885e-09
-5.94891e-09
1.36603e-09
3.41201e-10
8.93372e-09
-1.06411e-08
6.99116e-09
3.00337e-09
-7.18093e-09
-2.81373e-09
1.99471e-09
3.3765e-09
-5.37133e-09
1.45487e-08
-6.68927e-09
-7.85963e-09
7.38226e-09
-1.23554e-08
4.97303e-09
1.88434e-09
-2.27033e-10
-1.65732e-09
4.37429e-08
-4.13736e-08
-2.36929e-09
-2.75392e-09
3.78372e-09
-1.02995e-09
-1.00151e-09
-8.28868e-10
2.42852e-09
-5.98264e-10
-2.60257e-09
1.69697e-09
9.05513e-10
-5.49152e-09
7.77682e-09
-7.93003e-09
5.64459e-09
4.43965e-10
-6.6344e-09
6.19038e-09
-3.32455e-09
1.08681e-09
2.23763e-09
5.9752e-11
-2.56588e-09
2.50607e-09
3.27114e-09
-4.69525e-09
-2.0139e-09
3.43785e-09
9.84074e-09
-5.0121e-09
-4.82879e-09
-3.7362e-09
-4.37916e-10
1.09636e-08
-6.78967e-09
7.6804e-09
-5.12698e-09
2.36605e-09
-4.91951e-09
-3.47627e-09
5.10169e-09
6.97184e-11
-4.28081e-09
4.21098e-09
-5.75261e-09
3.14997e-09
-7.98686e-09
6.59847e-09
-1.11147e-08
3.45008e-10
4.17109e-09
-9.45966e-09
-1.06665e-08
8.36259e-09
1.17635e-08
-6.24628e-08
5.59729e-08
6.48991e-09
-1.11448e-08
1.68509e-09
-3.29768e-07
3.78548e-07
-4.87795e-08
4.98749e-10
-5.17756e-09
1.11936e-07
2.46995e-07
-3.58914e-07
-2.9369e-07
-5.93721e-07
3.98128e-07
4.86135e-07
4.41981e-07
-1.08248e-07
6.14975e-08
-3.89076e-07
-8.66171e-10
4.2916e-08
-4.20498e-08
-7.3348e-09
1.6419e-09
5.69281e-09
-1.73389e-10
2.42588e-10
2.00557e-08
3.2095e-08
-4.05174e-08
8.42244e-09
8.72414e-09
-1.17845e-09
-7.54574e-09
1.31835e-09
-1.13893e-08
1.00709e-08
-5.72691e-09
1.47486e-08
-9.02171e-09
8.10376e-09
-1.13061e-08
-7.94253e-09
-7.44778e-09
-9.96133e-10
8.44387e-09
2.12504e-09
-8.4081e-09
3.50003e-09
2.33856e-09
-4.22383e-09
1.88518e-09
-9.04599e-10
-1.00453e-09
4.40114e-09
-1.13054e-09
-3.27052e-09
7.80734e-09
-6.8921e-09
-9.15213e-10
-1.40123e-08
1.5276e-08
7.36604e-09
-8.62978e-09
-8.87658e-10
-1.94648e-09
1.92949e-09
2.39626e-10
-1.76997e-09
6.42637e-10
-2.56276e-09
-2.37321e-10
-7.84769e-09
5.22264e-09
-4.37447e-08
3.8522e-08
6.07806e-10
-1.37247e-09
7.64602e-10
-1.99405e-09
3.42829e-09
-1.28543e-09
-1.48911e-10
-3.57699e-07
3.01467e-07
6.18803e-08
-1.16415e-08
-7.55666e-09
1.17718e-08
7.4262e-09
1.11176e-08
-9.2258e-09
-5.04058e-09
3.14868e-09
3.04972e-09
-4.80639e-09
-2.37439e-10
2.70343e-10
4.68412e-09
-2.73287e-09
-2.22171e-09
3.70847e-09
-7.07602e-09
3.36749e-09
-7.1868e-08
4.37592e-08
2.8109e-08
-1.52449e-09
1.52446e-09
2.19816e-09
-5.55039e-10
-1.64317e-09
3.92015e-09
-4.75034e-09
8.30134e-10
-2.06514e-09
5.56683e-10
4.5581e-09
8.40231e-09
5.19746e-09
-5.6657e-09
9.04412e-10
-6.14992e-09
1.65144e-10
5.08022e-09
-2.41891e-09
-1.96031e-09
4.37912e-09
7.24213e-11
-2.50107e-09
2.42863e-09
1.53269e-09
5.56468e-09
-7.09737e-09
7.89321e-10
-6.48845e-09
2.90987e-09
2.78915e-09
3.85269e-08
1.72581e-09
1.88295e-09
-5.45623e-09
-1.94236e-09
5.51546e-09
-3.73107e-08
5.24082e-07
-4.86786e-07
3.82168e-09
-1.83133e-09
-4.06843e-09
2.07798e-09
-4.3744e-09
-2.1547e-09
-1.99535e-10
6.72879e-09
-1.20991e-08
2.00756e-08
-7.97655e-09
-2.71135e-09
-4.44145e-10
2.03736e-09
1.11818e-09
-3.87431e-07
3.42105e-07
5.09666e-08
-1.85484e-09
1.8548e-09
-5.11259e-09
-8.37018e-09
7.66064e-10
7.60404e-09
-1.56579e-09
-2.0815e-09
3.64731e-09
1.81726e-07
-1.82212e-07
4.85213e-10
5.43075e-08
-4.01471e-07
-4.16021e-09
2.10285e-07
-2.06125e-07
-5.02787e-10
-4.54832e-09
5.16485e-10
-1.16598e-08
1.2038e-08
6.42923e-10
-1.26809e-08
5.10177e-08
-1.76905e-08
1.38468e-07
-1.77857e-08
-1.20682e-07
1.32404e-08
-9.70846e-09
-3.53201e-09
-5.94519e-10
-1.42749e-10
7.37268e-10
-4.65613e-08
3.98684e-09
4.59097e-08
-3.33526e-09
2.9057e-09
3.74367e-10
-3.28009e-09
4.57333e-08
3.82483e-08
-4.13092e-08
-4.26723e-08
3.7254e-09
-2.26901e-09
-4.42923e-08
-3.76009e-09
1.60791e-07
-1.40304e-07
-1.67211e-08
-1.94526e-07
1.90766e-07
-1.94232e-08
-2.8688e-07
3.06303e-07
-1.90673e-08
-1.06528e-08
2.972e-08
1.84703e-08
1.91759e-09
-9.47851e-10
-1.94402e-08
-2.3912e-07
-2.53341e-08
2.64454e-07
-2.53281e-09
2.86869e-10
-1.48821e-09
3.73413e-09
-2.12494e-08
3.39026e-08
-3.36178e-08
2.09647e-08
-2.99062e-08
3.32903e-07
-3.02997e-07
3.74343e-08
7.58659e-09
-4.50209e-08
1.64006e-08
-1.3988e-08
-2.41256e-09
-1.57642e-08
9.09923e-09
6.66496e-09
2.92736e-10
8.19638e-10
-1.11244e-09
-2.52025e-07
2.63599e-07
-4.14808e-08
2.31309e-08
2.18244e-09
-2.53134e-08
1.54745e-08
-1.86751e-07
1.71276e-07
-1.24814e-08
2.33072e-09
-8.3233e-10
2.77336e-09
-1.94115e-09
1.87159e-07
6.0242e-09
-1.93184e-07
-1.90383e-07
-7.7597e-08
1.85504e-07
-4.01416e-09
1.16896e-08
-7.67552e-09
9.65189e-09
1.92982e-07
1.97872e-08
-5.96687e-10
-1.91905e-08
5.04386e-07
-4.98362e-07
-1.02919e-08
-6.2914e-11
1.03548e-08
-2.88413e-08
-1.76745e-09
3.06087e-08
4.24372e-08
-3.03221e-09
-4.31797e-08
3.77468e-09
4.19681e-08
3.82226e-09
-3.67217e-09
-4.21182e-08
-6.73804e-09
1.74474e-08
-1.07095e-08
5.14038e-07
-1.82642e-09
-1.21577e-08
1.39844e-08
1.73047e-08
-1.64279e-08
3.80252e-08
1.12912e-08
-8.28835e-08
3.35687e-08
3.0783e-09
-2.80117e-09
-2.77183e-10
6.05772e-08
3.52434e-07
-3.87382e-07
1.0926e-08
-1.95592e-08
-2.2755e-08
2.44005e-08
-1.64556e-09
6.53119e-09
-3.43315e-08
-1.29663e-08
1.7671e-08
3.67965e-08
1.42216e-08
-1.39844e-08
1.7026e-08
-3.04075e-09
-3.36277e-09
2.22763e-09
-1.79321e-08
1.27172e-08
2.73193e-08
-4.00364e-08
2.34905e-08
-2.68533e-08
-3.84256e-09
-2.01073e-07
2.04915e-07
-1.09547e-08
7.56911e-09
-1.84091e-10
3.56942e-09
1.95935e-10
-3.73435e-09
-6.42633e-09
-4.69795e-09
1.11242e-08
2.17774e-08
9.79564e-11
-2.18751e-08
-7.56992e-09
4.30361e-09
-1.58235e-09
4.84858e-09
1.06042e-08
-2.46946e-08
1.40904e-08
2.34419e-08
2.21304e-09
-4.62345e-08
4.40213e-08
3.97127e-08
-5.03453e-11
-3.96623e-08
-3.72639e-08
1.35984e-11
3.72503e-08
-3.81276e-10
-6.29066e-09
6.672e-09
3.03717e-10
-6.47873e-10
-3.69198e-08
1.15642e-08
-9.9423e-10
-1.057e-08
1.15642e-08
1.63797e-09
2.37407e-07
-2.39045e-07
1.94689e-09
-1.56463e-09
-1.62792e-08
1.58966e-08
4.58331e-07
-4.58331e-07
2.0771e-07
5.48766e-10
-2.05603e-07
-6.53314e-09
2.99751e-08
-1.20883e-09
-4.80146e-07
4.81354e-07
1.12712e-07
1.65702e-08
-1.29282e-07
3.54993e-08
-2.17184e-08
-1.37812e-08
1.5718e-08
-1.49293e-08
-1.32701e-08
-1.73084e-08
1.98085e-08
3.29991e-08
5.34027e-07
5.76745e-09
-5.39794e-07
1.47467e-08
-3.2055e-08
1.26446e-07
-1.26446e-07
-9.58786e-09
9.5878e-09
4.47198e-09
3.46182e-09
-7.93374e-09
-1.38265e-07
1.58074e-07
3.96266e-07
1.33242e-08
-6.07746e-08
-3.48814e-07
-2.00435e-08
4.16309e-07
-7.63611e-08
-5.54981e-08
6.71355e-08
6.47241e-08
3.26763e-08
-3.18797e-08
1.11796e-08
-1.19762e-08
5.19499e-09
-1.28714e-07
-1.02362e-07
2.28765e-07
-1.26399e-07
2.05248e-09
4.02209e-08
-4.22736e-08
1.90174e-08
-3.83388e-08
1.93215e-08
-2.91465e-08
-3.79596e-08
1.8655e-08
4.84511e-08
5.64432e-09
-3.40311e-08
3.01052e-09
-2.89674e-09
3.39173e-08
-1.18154e-08
-6.68932e-09
7.30039e-09
-5.10572e-09
1.85227e-08
-1.58591e-08
-4.32072e-09
-9.33117e-09
1.36518e-08
-4.17451e-10
1.36589e-08
1.03483e-09
-1.42763e-08
4.7403e-09
-5.90156e-09
1.16127e-09
7.94556e-09
-8.63447e-09
6.88933e-10
-4.86059e-10
8.19405e-09
-7.70789e-09
5.76125e-10
-2.5077e-10
-7.63462e-09
7.30872e-09
2.6805e-08
-1.77538e-09
-2.50296e-08
1.52621e-08
-5.90056e-10
8.03285e-08
1.9956e-08
-7.34794e-08
-4.43367e-09
6.25134e-10
3.80862e-09
-3.13721e-08
-2.6591e-09
-1.93267e-09
1.3813e-09
-1.55933e-10
1.93952e-09
-1.30874e-08
1.45101e-08
-3.36209e-09
-6.99704e-10
5.88749e-09
-5.18776e-09
-7.65601e-09
7.27578e-09
3.80273e-10
1.51049e-09
-1.45786e-08
1.26869e-08
-2.60698e-09
3.27665e-09
-6.69733e-10
-3.33405e-10
-4.10022e-09
3.70256e-08
-4.03649e-08
3.79298e-08
-3.45905e-08
-1.0434e-08
3.68541e-09
-1.08239e-09
7.83098e-09
6.81778e-10
-2.29364e-09
1.61181e-09
6.62147e-10
2.88565e-08
-2.95187e-08
3.42769e-09
-4.74828e-09
-3.93146e-08
4.06352e-08
4.79881e-09
-5.24379e-09
1.11684e-10
-3.54787e-09
3.54784e-09
3.20768e-08
-6.03808e-10
2.56109e-09
-3.40341e-08
4.51895e-09
-6.38374e-09
1.86492e-09
-2.26171e-07
2.39309e-07
-1.31372e-08
5.55511e-09
-4.62392e-09
-9.31261e-10
-1.75041e-09
5.63748e-09
-3.88724e-09
1.66656e-09
7.98853e-09
-8.28916e-09
-4.02081e-09
8.5476e-09
-4.52667e-09
-1.30406e-08
-4.67376e-09
1.77142e-08
6.54853e-09
-1.09175e-09
-5.45667e-09
4.14964e-09
-1.27667e-08
8.61708e-09
4.58847e-09
1.03288e-08
-7.03415e-09
-7.88323e-09
1.16965e-08
-1.34246e-09
-1.03541e-08
-2.14389e-08
-1.89116e-08
4.03505e-08
-3.57588e-09
3.74854e-08
-3.39096e-08
1.69953e-08
-1.81837e-08
1.18828e-09
1.5289e-09
-4.35762e-09
3.34634e-09
-1.18367e-09
-8.35269e-09
6.18989e-09
-4.23146e-11
4.72953e-10
-4.3057e-10
9.19124e-11
-1.17219e-08
8.19573e-11
8.81459e-09
-3.71273e-09
-5.10172e-09
2.47022e-09
5.69693e-09
-8.16728e-09
-2.21861e-07
-2.25829e-09
-8.85073e-11
6.20183e-10
1.31706e-09
-1.84883e-09
-8.26018e-09
1.93088e-09
6.3292e-09
7.39531e-09
-3.34703e-09
-4.0484e-09
6.36663e-09
-4.33097e-08
3.6943e-08
-1.79212e-09
1.79208e-09
-3.34893e-10
3.74812e-09
-3.41331e-09
1.57779e-09
-2.73726e-09
1.15933e-09
-2.3205e-07
1.66678e-08
-1.21882e-08
2.87504e-09
-3.57048e-09
-2.88274e-09
3.57797e-09
5.73445e-10
2.3481e-08
2.25392e-10
8.55588e-10
-1.23666e-10
-9.57421e-10
-1.65334e-08
1.55401e-08
1.56657e-09
-1.13881e-08
9.99756e-10
1.03884e-08
-1.17873e-09
4.95739e-09
-3.77881e-09
-1.22922e-08
1.31438e-08
-5.85965e-09
5.00789e-09
-1.66166e-08
1.49478e-08
1.66888e-09
-1.21593e-10
-5.75311e-10
6.9686e-10
1.54258e-09
2.19383e-08
3.51859e-09
1.59204e-09
-5.11077e-09
1.96003e-08
-5.34534e-08
3.3853e-08
2.95812e-09
-2.18342e-09
-7.74808e-10
6.72002e-09
-1.03391e-08
3.61899e-09
3.45603e-10
6.60421e-10
8.69867e-10
-1.87609e-09
1.66404e-09
-1.13265e-09
4.39019e-09
-4.92175e-09
-1.24064e-08
7.68626e-09
4.72009e-09
-3.85982e-09
1.04821e-09
-4.55142e-09
7.36296e-09
1.27922e-08
1.19967e-08
-2.4789e-08
1.08243e-08
1.79836e-08
-1.44946e-08
-1.43135e-08
1.18649e-08
7.1645e-09
-1.90295e-08
1.2322e-08
1.4426e-08
-1.48833e-08
1.89372e-08
-1.27468e-07
1.28131e-07
2.85586e-09
-4.72929e-09
1.87338e-09
1.01841e-07
4.07498e-08
-1.4259e-07
2.55109e-09
3.49477e-09
-5.43608e-09
-6.09862e-10
-2.18862e-08
2.5884e-08
3.84862e-09
-7.84656e-09
9.97546e-09
1.2946e-09
-8.86491e-09
-2.40529e-09
-4.8762e-10
3.95566e-11
-2.30597e-09
1.66548e-08
-5.83054e-09
-1.0039e-08
-2.52649e-09
1.27078e-08
-1.42395e-10
2.80546e-09
-1.56074e-08
1.28019e-08
2.34802e-08
2.66202e-08
-5.01e-08
-4.39196e-10
-3.18507e-09
3.6242e-09
1.37095e-07
-1.18158e-07
-4.2358e-10
2.58819e-09
7.8399e-10
-2.94875e-09
-3.06092e-08
2.455e-08
6.05945e-09
-1.57254e-09
1.57251e-09
-5.46042e-09
-2.68625e-09
8.14656e-09
-6.3089e-09
2.29527e-09
2.14995e-09
-5.91079e-09
1.46536e-09
5.46709e-09
-6.5418e-09
-1.98425e-08
1.49335e-08
4.90905e-09
-4.40036e-07
1.28422e-08
-7.48851e-09
-5.35373e-09
1.17077e-08
-8.66079e-09
-3.04697e-09
-5.36589e-09
5.8907e-09
-5.24801e-10
6.36153e-10
-2.3888e-09
-3.05381e-09
1.04957e-08