/*--------------------------------*- C++ -*----------------------------------*\
| =========                 |                                                 |
| \\      /  F ield         | OpenFOAM: The Open Source CFD Toolbox           |
|  \\    /   O peration     | Version:  v2006                                 |
|   \\  /    A nd           | Website:  www.openfoam.com                      |
|    \\/     M anipulation  |                                                 |
\*---------------------------------------------------------------------------*/
FoamFile
{
    version     2.0;
    format      ascii;
    class       volVectorField;
    location    "0.01";
    object      U;
}
// * * * * * * * * * * * * * * * * * * * * * * * * * * * * * * * * * * * * * //

dimensions      [0 1 -1 0 0 0 0];


internalField   nonuniform List<vector> 
14347
(
(-0.15173 4.30064e-05 -0.4943)
(3.85107 0.196748 5.09018)
(1.10895 -0.183645 4.34173)
(-0.00420858 -0.000253874 -0.158877)
(0.00278301 0.000177164 -0.180983)
(0.00316452 0.000816158 -0.137665)
(-2.65045 -0.60801 -63.4388)
(-0.261555 -0.0129796 0.213079)
(-0.000819766 -5.0129e-05 -0.158014)
(-0.00496303 0.0012591 -0.154025)
(2.66153 -0.0201138 1.09104)
(0.0030611 -0.00132714 -0.113836)
(-0.0468068 -0.00115196 0.0557227)
(0.000153066 -0.000914118 -0.0384113)
(0.00252137 -0.000918129 -0.118527)
(-1.04515 0.0308708 2.12596)
(0.00190809 -0.00190702 -0.0146437)
(-0.00167044 -0.00123658 -0.0126251)
(-0.364426 -0.00780731 -0.903164)
(-0.0157285 -0.0022276 -0.100511)
(-0.000417021 0.000142923 -0.00189991)
(-0.00100515 4.50607e-05 -0.00955295)
(-0.00340124 0.00713109 -0.0815852)
(-0.0108949 0.00112056 -0.108795)
(-0.0661512 -0.00345274 -0.447249)
(-0.014924 -0.00461807 -0.0950929)
(-0.0164454 0.00144186 0.00585104)
(-0.000171867 1.68718e-05 -0.00305829)
(-0.00135268 -0.000117054 -0.0039962)
(0.0301006 -0.000141627 -0.125889)
(-0.00131054 0.000504122 -0.0526949)
(-0.00878917 0.006149 -0.0423338)
(-0.0153629 0.000181591 -0.00182843)
(-0.00844885 0.00311753 -0.0907104)
(-0.0130652 0.000580573 -0.00111106)
(0.288916 0.046967 -3.88362)
(-0.0271376 -0.00212318 -0.00482405)
(-0.024748 -0.00285526 -0.00388096)
(-0.46018 -0.00955474 -0.179981)
(-4.73835 -0.330761 13.7727)
(-0.00526623 0.00145656 -0.0549363)
(-0.00984843 0.00422199 -0.0405585)
(0.00278803 -0.00286876 -0.117869)
(-0.373234 -0.0228874 -0.0961757)
(-0.00616881 0.00192184 -0.0513795)
(0.0623952 0.00568926 0.125025)
(-0.000303925 -0.00016066 -0.00474341)
(-0.0122474 0.00762235 -0.0315851)
(-4.69425e-05 0.000173972 -0.000801395)
(-0.0168883 0.000195747 -0.0184376)
(-0.00382531 -0.00357021 0.153562)
(0.00360414 -0.00775065 0.137484)
(-0.0082715 -0.00072729 0.19977)
(0.400126 0.0220613 0.0929161)
(-4.1789e-05 -0.00240186 0.0948586)
(5.51257 0.10864 2.02592)
(0.263199 0.0431166 -48.0614)
(0.00383279 7.05084e-05 -0.113677)
(-0.000879969 -0.000700089 -0.124013)
(-0.00216269 0.000105658 -0.12167)
(-0.118335 -0.00251445 0.125301)
(-0.00133746 0.000605419 -0.111091)
(-0.0222377 -0.149885 13.2887)
(-0.00193734 -0.00239849 -0.0158082)
(-0.00280301 -0.00227008 -0.0909628)
(-0.370083 -0.0350535 -1.29086)
(-0.0035931 -0.000530937 -0.0161685)
(-0.563019 0.00690029 1.75156)
(0.00140278 0.000888157 -0.0122174)
(-0.755427 -0.0442867 2.22468)
(-9.89732e-05 -1.00181e-05 -0.180459)
(0.0023812 -7.11131e-05 -0.171074)
(-0.00100208 0.00139097 -0.0219158)
(-0.938644 -0.160218 2.22904)
(-1.45269 0.214335 -68.3899)
(-0.200404 -0.00495495 -0.0148488)
(-1.31017 -0.0576107 -2.17625)
(-0.0932346 -2.4192e-05 -0.0175065)
(-0.253678 -0.00703508 -0.0289206)
(-0.309811 -0.0333584 -1.16757)
(-1.18194 0.231326 -62.0576)
(-1.04768 -0.0373148 2.78323)
(-0.194541 -0.00818972 -34.4104)
(0.218959 0.120842 -31.7927)
(-0.00115866 -0.00175412 -0.107523)
(0.287491 -0.0659461 -61.7193)
(-0.826874 -0.0563295 1.87491)
(-0.0233866 -0.000347807 -0.161644)
(-0.68846 -0.0792881 2.02495)
(-0.258173 0.00101576 -3.9806)
(-0.381598 0.0909855 -2.26366)
(-0.469132 -0.0903177 -0.825472)
(-0.0554694 -0.0055166 -0.0707828)
(-1.02397 -0.0783874 13.2352)
(0.0763102 0.0489555 -3.70562)
(-0.101721 -0.00750691 0.161133)
(0.329619 0.0454893 0.695285)
(0.573935 0.287784 -37.333)
(-2.05019 -0.0162888 -60.2216)
(0.00555432 -0.00660972 -0.0452944)
(-0.25795 -0.0172464 0.445546)
(0.0117558 -0.000708479 -0.117457)
(-0.972673 0.203492 -47.2338)
(-0.00623619 0.0374671 -0.736568)
(0.235067 0.00344305 -0.0203921)
(0.214731 0.0480594 -3.70282)
(-0.135347 -0.00207394 -0.0204271)
(-0.000211604 -0.000650232 -0.0682855)
(-0.00367323 0.00120507 -0.0716697)
(0.0735978 0.100369 -0.885687)
(-0.78895 -0.0146942 13.5564)
(-0.265414 -0.00162708 -0.270191)
(0.0433762 0.000388888 -0.0529243)
(-0.14189 0.00726135 -0.342575)
(-0.120798 -0.00723822 -0.0706496)
(0.0406249 0.00540684 -0.0432728)
(-0.0904498 -0.0502356 -1.56143)
(0.000142631 -8.18285e-05 5.46758e-05)
(-0.485163 0.125705 13.2164)
(-0.115321 0.000194502 -0.200975)
(-0.125853 -0.00573263 13.3229)
(-0.000251009 -0.000152691 -0.0115203)
(-0.118872 -0.0118341 0.00960114)
(-0.454642 0.111435 -37.5735)
(-1.03314 0.0676312 -39.3526)
(0.18031 -0.00746536 -0.773479)
(-1.78485 0.166063 -70.2554)
(-0.107979 -0.00813917 0.0656579)
(-0.0350628 -0.00127603 -0.0458027)
(-0.00571696 -0.000257838 -0.160543)
(-1.04466 -0.101973 -1.41467)
(0.267761 0.0319509 0.0734452)
(-0.26645 -0.0140513 -1.00973)
(-0.00330149 0.00329334 -0.11476)
(0.990159 0.0228689 -41.3394)
(2.32653 0.188638 -1.29465)
(-0.156003 -0.00305253 0.0161915)
(-0.54008 0.125766 12.7513)
(0.233351 0.0116374 -0.0771762)
(-0.00558569 0.00116535 0.0433172)
(-0.0519873 0.033411 0.50562)
(-0.298584 -0.0205056 0.0685692)
(-0.959937 -0.305083 -74.7314)
(-0.0204699 -0.00143984 -0.200837)
(-0.144827 -0.00716212 0.0150617)
(-0.00190977 -0.00197353 0.0302035)
(-0.0542136 -0.00380702 -0.312401)
(-0.0130572 0.000638504 -0.0734718)
(-0.925323 -0.0692071 13.6561)
(0.0102001 0.0076972 -0.0865335)
(-0.000667094 0.000223279 0.00866039)
(-0.00294188 -0.00184622 0.0365048)
(-0.274829 -0.00758906 -0.36672)
(-4.80786 -0.33629 -1.41406)
(0.00961393 -0.000758179 0.00748987)
(0.888201 0.108053 -3.25852)
(3.31318 0.279044 1.16044)
(-5.703 -0.422845 8.01064)
(0.0159482 0.000101948 0.0682394)
(0.0282905 -0.00253552 -0.0718093)
(-6.84888 -0.569052 13.2695)
(-4.31914 0.0313121 -75.5193)
(-0.215784 -0.0147379 -0.110443)
(0.0138434 0.00949675 0.0261965)
(0.0156099 2.28583e-05 0.0637662)
(-9.21371e-05 -0.00127806 0.0482862)
(-0.00743397 -0.000350683 -0.182181)
(-0.0392807 -0.00294039 0.0478053)
(-0.00592553 0.00283031 0.0775054)
(0.00260068 0.000503019 -0.0847071)
(-0.00207061 0.00256983 -0.0109834)
(-0.213411 0.0346102 0.348928)
(0.000353721 -0.00235205 -0.100735)
(-0.105235 -0.0062377 -0.408556)
(-0.000523118 0.000229734 -0.0725355)
(0.00128911 -0.00154362 0.0056892)
(0.00499611 0.00100033 -0.124055)
(-3.75203 -0.130383 -6.8595)
(-0.133154 -0.149687 12.8223)
(-0.03875 0.00926673 -0.298278)
(0.00251095 -0.000787593 -0.0395557)
(-0.00162719 0.00351561 -0.15373)
(-0.159797 -0.00259069 0.164441)
(0.0257366 0.00256043 0.0534961)
(0.02385 0.00250463 0.0786396)
(-0.776326 0.0272824 -57.6431)
(0.00388272 0.000657971 -0.0265989)
(0.002082 -0.0032425 -0.0977263)
(-0.281009 0.00245328 -0.813912)
(-0.00354842 0.00812554 -0.158551)
(0.00559123 0.00879252 -0.0930712)
(-0.0972749 -0.00332641 -0.412667)
(-0.0420949 -0.00434378 -0.391455)
(0.00477195 0.00326395 -0.101609)
(-0.0669705 -0.00432361 -0.207877)
(-0.00152849 0.00254805 -0.14016)
(0.125944 -0.00875966 -0.410303)
(0.00450203 0.00129214 -0.135362)
(-0.00107917 0.0014317 0.00599809)
(-0.00904957 -0.00898661 -0.0753847)
(0.00394447 0.00130287 -0.136386)
(0.000360077 0.00224101 -0.128803)
(-0.00184829 -0.00022161 0.117574)
(0.00114036 -0.000511719 -0.14028)
(0.00719144 -0.000489546 -0.101928)
(0.00838771 -0.000622476 -0.100317)
(0.00188389 0.00569523 -0.13333)
(-0.00893063 0.00901816 -0.108363)
(-0.000500375 0.00663455 -0.138135)
(-0.00478686 -0.0023974 -0.112955)
(0.221078 -0.0589799 -1.1675)
(-0.566701 -0.0355996 0.300201)
(7.32025e-05 0.000604135 0.106455)
(0.00466585 0.000632309 -0.150931)
(-0.00745954 -0.00462409 -0.0503304)
(-0.0089237 -0.000602798 -0.0637524)
(0.000275901 -0.00185114 -0.103462)
(-0.00470721 0.00284611 -0.118889)
(-0.0557295 0.00969104 -0.572633)
(-0.00590377 0.000995878 -0.125089)
(-0.00760269 -0.00229591 -0.15373)
(-0.00111705 -0.00313826 -0.130554)
(-0.0116084 0.0070375 -0.0829628)
(-0.0615223 0.0346131 -0.283619)
(0.000887007 0.00312195 0.019062)
(0.025924 0.000290578 0.0989976)
(-0.0385273 -0.000531171 -0.24241)
(-0.00429215 -0.00559357 -0.00347648)
(0.0762225 -0.0868225 -0.930894)
(-0.00261078 -0.00114484 -0.157252)
(-0.0330065 -0.00188778 0.00524695)
(-0.00399112 -0.000397631 -0.0168939)
(-0.229937 -0.0038001 0.0269458)
(-0.0395263 -0.00178978 -0.24199)
(-0.0680887 -0.0006869 -0.01235)
(-0.00058079 0.00055061 -0.0768115)
(-0.214873 -0.00994142 0.0226079)
(-0.00265227 0.00178807 -0.0750094)
(-0.21638 -0.0158425 -0.0648693)
(0.0333801 0.0058703 -0.0656405)
(0.00792929 0.00180475 -0.123811)
(0.0124498 0.000541977 -0.174681)
(0.287017 0.0115771 -0.151313)
(0.382168 0.00115696 -0.457313)
(-0.000231109 0.00208182 -0.0570975)
(0.0525323 0.00357889 -0.156124)
(0.153167 0.0173041 -0.23849)
(-0.115939 -0.00517277 0.120773)
(-0.397317 -0.0285502 -0.0401962)
(-0.618983 0.0183207 -0.181231)
(-0.00266158 -0.00748985 0.0175552)
(-0.0425433 -0.00302863 -0.24856)
(-0.0174691 0.00559239 0.0791936)
(-0.00246171 0.00010977 -0.000685796)
(-0.667998 -0.0462123 -0.631044)
(-0.00419118 -0.000743034 -0.000455835)
(0.482027 0.0100007 -0.362235)
(-0.0854258 -0.00495681 0.0880519)
(-0.115987 -0.00639712 -0.699972)
(-0.00263442 0.000429688 -0.110368)
(0.295016 0.0041086 0.156014)
(-0.103583 -0.0089101 -0.651339)
(-0.00767115 -0.00554096 -0.0508755)
(-0.0327024 -0.00211757 -0.0879359)
(-0.203883 -0.00258194 -0.737558)
(-0.295123 -0.0250714 -2.35218)
(-0.028026 -0.00217397 0.17153)
(-0.176136 -0.00505601 -0.681806)
(-0.208544 -0.0116808 -0.00594422)
(-0.00440392 -0.000230143 -0.0711401)
(-0.0163053 0.00582055 0.133968)
(-0.05757 -0.00341466 0.198823)
(-0.048234 -0.0027027 -0.0506924)
(0.0846177 -0.0574307 -0.626647)
(-0.19745 -0.0141895 -0.00490633)
(0.00140361 6.90452e-05 -0.106721)
(0.88121 -0.0352224 -1.50708)
(-0.179505 -0.00237314 -0.00767105)
(-0.0518406 -0.000289651 0.185355)
(-0.125354 -0.00883163 -0.66581)
(-0.142932 0.0495403 -0.867888)
(-1.08055 0.0131123 -0.204735)
(1.15574 -0.162881 -0.481178)
(-0.485634 -0.040304 -1.24489)
(-0.00567186 -0.000275669 -0.015361)
(5.91239 0.349625 1.89694)
(-0.0865579 -0.00638693 -0.40595)
(-2.55236 -0.0246444 -66.1626)
(-0.164078 -0.00604402 0.00602762)
(-0.465921 0.00154268 0.0478015)
(-0.602138 -0.0240805 0.165724)
(-0.0396859 -0.00241682 -0.262334)
(-0.952166 0.229382 -53.3554)
(-0.0318894 -0.00221952 0.00510302)
(0.302194 -0.0234657 -34.0906)
(-0.0254237 0.0481676 0.798463)
(-0.559989 -0.0120793 -1.21593)
(0.892536 -0.259239 9.72104)
(-0.111168 -0.0812147 17.1961)
(-0.983171 -0.0172355 -2.04834)
(-0.0015512 -0.00121582 -0.0118539)
(0.126075 -0.0200795 17.9677)
(-0.0027238 -5.10493e-05 -0.163583)
(-0.00071018 0.00058921 -0.018011)
(-0.817955 -0.0313596 0.0974949)
(-0.262737 -0.0192754 -0.0475782)
(-0.00300303 -8.28991e-05 -0.163538)
(-0.00238188 -0.000104799 -0.164814)
(0.360515 0.0255783 -56.2649)
(-0.626601 -0.0143714 -0.502895)
(-1.01889 0.21633 -48.2777)
(-0.00271795 -0.000100849 -0.164735)
(0.0373517 0.00243994 0.0929225)
(-0.00283928 0.00348632 -0.0761116)
(-0.0794862 -0.0013935 -0.0855068)
(0.488889 -0.187893 7.92841)
(-0.00462902 -0.00198368 -0.0949096)
(-0.00536412 -0.000212965 -0.138043)
(-0.00491716 -0.00152024 -0.0947368)
(0.00256932 0.00279861 0.0664396)
(-0.266734 -0.0243832 0.439411)
(0.00418959 0.000262033 -0.178551)
(0.00445522 0.000128699 -0.177258)
(0.00320444 0.000157733 -0.173476)
(-0.00273254 0.00168679 -0.111921)
(-0.00584603 0.000875206 -0.131561)
(-8.50281e-05 4.3675e-06 -0.0098564)
(-0.263986 -0.0117435 0.123118)
(-0.040396 -0.000730096 -0.0929066)
(-0.00556316 0.0017304 -0.0693434)
(0.0101228 0.000308809 -0.162334)
(-0.0492076 -0.0013069 0.0126771)
(0.011192 0.000791357 -0.175957)
(-0.00430854 0.00298458 -0.0713427)
(0.00227349 0.000370923 0.0598409)
(-0.000128872 0.000432447 -0.0389062)
(-0.0014083 0.00416889 -0.0621361)
(0.00312063 0.00336494 -0.0622724)
(0.00244546 0.00179926 -0.0165864)
(-1.86132 -0.0259456 -51.6154)
(-0.00216719 -0.0022612 -0.0149245)
(0.000327616 0.00240175 -0.0598839)
(-0.619896 -0.044263 0.155797)
(0.008305 0.000574944 -0.173882)
(-0.0018099 0.00214603 -0.0661491)
(-0.0602631 0.0105305 -0.638701)
(-0.00199509 0.00199712 -0.0628558)
(0.0497639 0.00523901 -43.3227)
(-1.97098 0.0642485 -35.4308)
(-3.48545 -0.37925 -32.7736)
(0.161574 0.180198 -32.6484)
(-0.544126 -0.0256962 0.648233)
(-0.289701 -0.0241075 -37.8185)
(-0.363736 -0.159459 13.2553)
(-0.00730299 0.000869112 -0.00920815)
(-0.0105418 -0.000210408 -0.0528986)
(-0.000573036 -0.00141743 -0.0822362)
(-0.0044705 -1.10088e-05 -0.00448596)
(-0.00858517 0.00881411 -0.0771296)
(-0.775068 -0.0174899 -0.317748)
(-0.00086533 0.000751505 -0.0116061)
(-0.0867309 -0.00579672 -0.00784868)
(-0.690459 -0.0455545 -0.302736)
(-0.000320923 -0.00177739 -0.0468613)
(-0.0149752 -0.00405875 -0.0517797)
(-0.203746 -0.0149764 -0.0247376)
(-0.0707457 -0.00383424 0.0275888)
(-0.275171 -0.0245205 -0.0388945)
(0.00904782 -0.00433887 -0.0695138)
(-0.181382 -0.00211281 -0.032636)
(-0.0223815 0.00892499 -0.812505)
(-0.284089 -0.153629 12.9502)
(0.0162085 -0.00346432 0.0615988)
(-0.726002 -0.0478955 -0.405313)
(-0.000182461 -0.00254582 -0.0273255)
(-0.832621 -0.0197599 -0.477336)
(0.784915 -0.190851 -60.4778)
(-0.787517 -0.0506605 -0.508995)
(0.126387 0.00188078 0.151824)
(-0.0581341 -0.00121666 -0.643495)
(-0.0245719 0.00012932 -0.0417941)
(0.0145477 0.00381606 -0.0720913)
(-0.148987 -0.00843203 0.0191319)
(-0.000342054 -0.00149073 -0.0404817)
(-0.0300346 -0.00272653 -0.0400256)
(-0.0141272 0.0012199 -0.0349195)
(-0.0407356 -0.000764094 -0.101041)
(-0.0106043 0.000191491 -0.0287063)
(-0.245407 -0.006902 -0.22708)
(-0.00693397 0.000128381 -0.00696198)
(-0.773823 -0.011884 -0.350132)
(0.000137194 -1.02835e-05 -8.655e-05)
(-0.00780936 0.00178973 -0.128655)
(-0.189383 -0.0133254 -0.16679)
(-0.434526 -0.0287521 -1.59347)
(-0.0213688 0.00100932 0.069836)
(-0.483018 -0.057236 -1.57032)
(0.847673 0.0486829 -70.7479)
(0.000305472 3.8924e-05 9.34699e-05)
(-0.0990734 -0.00103614 -0.00825898)
(-1.50852 -0.0334585 -0.906165)
(-0.328865 -0.00631599 0.259953)
(-0.680347 -0.0431825 -0.0857868)
(-0.20473 -0.093099 10.2711)
(-0.694041 -0.0312954 -0.348475)
(-0.352903 0.0160024 0.233068)
(-0.494885 0.0310631 0.139416)
(-1.56117 -0.0619895 0.151197)
(0.00171517 0.00207972 -0.136436)
(-0.0511439 -0.00069786 0.0445736)
(0.40605 -0.0148899 16.536)
(-0.265383 -0.00403241 -0.138012)
(0.0689704 0.0230708 -7.7763)
(0.360768 0.00429435 -0.146766)
(-0.0222108 -0.00197252 0.161599)
(0.0687201 0.00513547 0.173324)
(-1.88814 -0.041905 0.249256)
(0.0278601 0.00409493 -0.0604817)
(0.0558955 -0.0173106 -49.2935)
(-0.294785 -0.02344 -0.248751)
(-0.0876622 0.0223687 0.506232)
(-0.0636925 -0.0045434 -0.026328)
(-0.347702 0.0289677 0.577823)
(5.8961 0.447465 2.72959)
(0.0116176 -0.00250765 -0.0876263)
(-0.183303 -0.00283744 0.0367122)
(-0.00268131 0.00317678 -0.123043)
(0.00399945 0.000705647 -0.107816)
(0.000138496 3.5276e-05 0.000138177)
(-0.218881 0.0213279 0.720508)
(0.292271 3.25595e-05 0.43458)
(-2.14899 -0.17675 0.698187)
(-0.00420715 0.000684597 -0.125633)
(-0.314019 0.119987 -6.08763)
(-0.848368 -0.0959502 -5.98363)
(-1.57855 -0.105401 0.400846)
(-2.66672 -0.128758 0.517298)
(0.00175759 -0.00365767 0.0478855)
(-0.00258004 0.00195997 -0.13823)
(-0.00189011 -0.00226472 -0.148719)
(0.0030093 -0.00228335 -0.109831)
(-1.06832 -0.0511058 0.0813327)
(-0.00687742 -0.000469706 -0.150671)
(-0.00238275 -0.00215376 -0.0893132)
(0.0145606 0.00340866 0.225389)
(-0.00347484 -0.00152148 -0.0288321)
(-0.000215512 -0.00241777 -0.0856734)
(-0.0995881 -0.00708301 0.0150124)
(-0.0164973 0.00386851 0.123292)
(2.34732 0.000677412 1.98734)
(-0.048047 -0.00160536 -0.174135)
(-0.0124814 -0.053979 -0.442752)
(-0.00149712 0.00175355 0.0766311)
(0.00702062 0.000987812 -0.0541474)
(0.0193807 0.000185865 0.185071)
(0.024634 0.0012754 -0.161341)
(-0.000323089 -0.00449136 0.044398)
(-0.977581 0.00794291 0.377509)
(-0.0086155 -0.000674405 -0.105302)
(-0.0576081 -0.00445014 0.07203)
(-0.000499666 -0.0028541 -0.107712)
(2.97942e-05 -0.00147185 0.0191755)
(0.00022767 1.72436e-05 0.00647146)
(0.00227494 -0.00168586 -0.0145471)
(0.000505102 -0.000109691 0.0237377)
(-0.00749562 -0.0032834 0.0104917)
(-0.00173309 0.00106097 -0.136205)
(-0.000664308 -0.00045305 0.0073079)
(0.00507867 -0.003164 0.0059615)
(-0.00436797 -0.000281177 -0.15608)
(0.00086581 0.0079071 0.0934757)
(0.0104253 -3.62656e-06 0.0235442)
(0.00022523 0.00373317 0.0648008)
(3.23231e-05 0.000273636 0.00558561)
(0.00355968 0.00547844 -0.10404)
(-0.0137574 -0.00106852 0.00231868)
(0.00913017 -0.00168762 -0.137324)
(-4.08383 -0.117725 -4.09294)
(-0.243414 -0.0135055 0.0281896)
(-0.00181595 0.00098242 -0.136167)
(-0.00114186 0.0006247 0.00514494)
(-0.0107044 -0.00218011 0.0876179)
(-0.0848934 -0.00168766 -0.0388115)
(0.0172388 0.00169073 -0.00962941)
(-0.913382 -0.0553349 -1.17352)
(-0.000700846 -0.000399808 0.00158974)
(0.00606417 -0.00118205 0.0450914)
(0.00202085 0.00213795 -0.129145)
(0.00907374 0.000741497 0.118637)
(-0.894711 -0.177754 -33.3332)
(-0.0444732 -0.000295218 -0.0761292)
(-0.00263868 0.00309653 -0.131423)
(0.00724132 0.00228986 0.0573372)
(-0.116534 -0.00599172 -0.393956)
(0.00953017 -0.00410883 -0.0246906)
(0.0500614 0.000543509 0.0410323)
(0.011313 -0.000138668 -0.096609)
(0.0574222 0.00437497 0.0340097)
(0.0358887 -0.000670228 0.0512009)
(-0.000932424 -9.69857e-05 -0.000412733)
(0.000358222 0.000978527 -0.104713)
(0.013024 -0.000464323 -0.0866774)
(-0.00075681 0.000429443 -0.107589)
(0.00278062 0.00271703 -0.157461)
(-0.0587633 -0.00183655 0.0565776)
(-0.0437922 0.00134193 0.00867024)
(-0.00517355 -0.000546028 -0.0849012)
(0.00158555 -0.00300034 -0.0952363)
(-0.0032808 0.00276068 -0.135222)
(-0.0018209 -0.00128085 -0.102388)
(0.00514023 0.0062543 -0.146976)
(0.0671847 0.00144285 0.457077)
(0.000241215 -0.00035275 -0.14159)
(0.0017474 -1.77518e-05 -0.145077)
(-0.005613 0.00217738 -0.155378)
(0.000713446 0.00345442 -0.149439)
(-0.000778843 0.00294351 -0.136944)
(-0.00367157 0.000918165 -0.111191)
(-1.08349 -0.0156472 -0.43941)
(0.000718017 0.0005918 -0.113632)
(-0.032924 -0.0334872 20.5963)
(-0.0106904 -0.00777471 -0.0797425)
(-27.8556 -2.13357 -45.9427)
(-0.791811 -0.475384 -56.3235)
(0.818588 -0.172661 -55.2884)
(0.00118283 0.00270676 -0.0915187)
(0.00323338 -0.00421738 -0.140718)
(-0.000285515 0.000622752 -0.0194888)
(-0.0177699 -0.0012509 -0.152484)
(-0.0229965 -0.00155723 -0.0461288)
(0.0215872 -0.000116354 -0.120094)
(-0.0274163 -0.00177789 -0.0143834)
(-0.00347245 -0.00176721 -0.108001)
(0.391144 0.0269317 -0.132546)
(-0.24496 -0.0110044 -0.774009)
(-0.00149527 -0.000662645 -0.0430348)
(0.00112993 -0.00269905 -0.0585173)
(0.683349 -0.00639675 -3.41942)
(-0.306236 -0.0134198 -1.65783)
(-0.0184771 0.0020331 -0.07637)
(-0.000965838 0.00109711 -0.0816576)
(-0.00405955 0.000243302 -0.0796225)
(-0.00587627 -0.00062369 -0.097527)
(-0.00772465 -0.000205194 -0.104781)
(-0.00276956 -0.00172179 -0.0883289)
(-0.00119424 -0.00117276 -0.0366634)
(-0.00205423 -0.00107332 0.0065312)
(0.110621 -0.0670685 -62.1662)
(-0.00852892 0.00764082 -0.00116178)
(-0.0142613 -0.000410487 0.0239315)
(-0.00506582 -0.00288901 0.00765587)
(-0.00515514 -0.00673439 0.0355578)
(-0.00862885 0.000326887 0.0589506)
(-0.884287 -0.0591753 -1.14655)
(-0.000366043 -0.000206169 -0.0149661)
(-0.000535757 -0.000257355 0.00684641)
(-0.0186679 0.00611979 0.10462)
(-0.00580445 -0.00270004 0.028337)
(-0.00910011 -0.000859862 -0.00717916)
(0.00281689 -0.00137344 -0.0600281)
(-0.0105173 -0.000920627 0.045109)
(0.728464 -0.0362015 -1.93042)
(0.957263 0.014355 -2.13212)
(0.055933 -0.0687679 -1.67821)
(0.00020893 -0.000426451 -0.0705758)
(0.00890134 0.00210852 -0.123914)
(-0.953359 -0.0414958 0.883381)
(-0.0202899 -0.00629699 0.0847468)
(-0.401749 -0.00822238 1.32358)
(-0.197564 -0.0198373 1.54785)
(-0.732768 -0.0246586 -2.39786)
(1.18601 0.0648931 -71.0051)
(-0.00033853 -0.000562034 -0.0654312)
(-0.414214 -0.0276216 1.01877)
(-0.0248652 -0.000137751 0.0957956)
(-0.890191 -0.0442741 -0.829324)
(-0.546329 0.0333688 9.42276)
(-0.306397 -0.00128216 0.00245927)
(0.660486 0.023123 -51.181)
(1.31752 -0.207017 0.608928)
(0.0167222 4.65965e-05 0.216488)
(-0.162755 -0.00779151 -0.659673)
(-0.616686 -0.0566927 -0.30289)
(-0.395655 -0.0264416 -1.04581)
(-1.40617 -0.0855047 1.08926)
(-0.0908701 -0.00557156 0.126356)
(1.48512 0.145059 0.0163545)
(-0.000255136 -0.00272612 -0.110175)
(-0.0487271 -0.000399483 0.16871)
(0.204791 0.0160986 0.35484)
(-0.133478 -0.0128675 -0.689661)
(-0.00278939 -0.00185142 -0.108289)
(-0.798425 0.0744187 7.85854)
(-0.5536 0.0305017 8.62938)
(0.493499 -0.0188032 21.4312)
(-0.0772921 -0.00501811 -0.0145464)
(0.00124244 0.00185356 -0.00290697)
(0.333436 -0.140382 18.5928)
(-0.000361876 -0.000237711 -0.000507658)
(-0.131259 -0.0052588 -0.0714366)
(0.363951 -0.0249424 22.0378)
(-0.00197391 -0.000958749 -0.136737)
(0.00408296 0.00025442 -0.176402)
(-0.0436442 -0.00356171 -0.0180087)
(0.00101841 -0.0030371 -0.087984)
(-0.141889 0.000186116 19.9988)
(-0.00342583 -0.000250582 -0.176293)
(2.86772 0.00674023 7.10841)
(-0.011947 0.000881155 -0.0159536)
(0.0156997 0.00241082 -0.0933702)
(0.25444 -0.104393 0.969897)
(-4.49719 -0.185194 -3.74355)
(0.0045732 0.000809479 -0.118056)
(1.12785 -0.156212 1.21875)
(-0.00634626 -0.000465631 -0.178239)
(-1.44493 0.0867208 -41.2916)
(-0.00169821 0.00209505 -0.0114433)
(0.000506393 0.00222041 -0.0439807)
(-0.00584215 0.00205219 -0.114779)
(-0.00492658 0.00201472 -0.116685)
(0.0343114 0.00194944 0.00342539)
(-0.937682 0.138002 -38.6903)
(-0.116732 -0.00742724 -0.592576)
(-0.45242 0.00403163 1.92607)
(0.57921 0.0989447 0.255315)
(-0.0113669 0.00880092 -0.0846819)
(-0.0235892 -0.0834871 -42.9371)
(-0.694677 -0.0205311 1.84243)
(-0.0794608 -0.00593902 -0.0246319)
(-0.161196 -0.00817225 -0.669284)
(-0.1283 -0.00426175 -0.645235)
(-0.167022 -0.0120778 -1.46383)
(0.150561 0.00104859 -0.610795)
(-0.0643351 -0.00338788 -0.0105601)
(-0.553914 -0.0388606 -1.35084)
(-0.0760306 -0.00243569 -0.0155678)
(-0.862354 -0.14616 3.14646)
(-0.00193613 -0.00355692 -0.103144)
(0.0065205 -0.00792161 -0.0558523)
(-0.079913 -0.00122736 0.0167966)
(0.17061 0.105412 2.39543)
(-0.0584694 -0.00210936 0.0987161)
(-0.0950696 -0.0067907 -0.0279119)
(-0.0863898 -0.00384198 -0.0208916)
(-0.147451 -0.00755746 0.165634)
(-0.00400099 -0.00272767 -0.0591455)
(0.00276574 0.00375558 -0.0581413)
(-0.000664194 0.000247063 0.0124905)
(-0.0027494 0.00739241 -0.0607477)
(0.0013608 -0.000515883 -0.0187442)
(-7.15325e-05 -7.83287e-05 -0.0106743)
(0.22403 -0.00630726 14.9388)
(0.0564514 -0.00309464 0.0246172)
(-2.32939 -0.205697 -73.7321)
(0.146475 0.0227399 14.1639)
(-0.0975609 -0.00177186 -0.0249604)
(-1.74227 0.108397 -48.1101)
(-0.191263 -0.00849067 -0.374599)
(-0.540288 -0.0325215 -1.01796)
(-0.0131919 0.00251729 -0.0202137)
(-0.486429 -0.0168142 -0.956881)
(-0.37132 0.195423 -39.39)
(-0.38738 -0.00437924 -0.860612)
(0.179064 0.0110766 -45.4861)
(-9.14225e-05 0.000485258 -0.00392409)
(-0.0442876 -0.000525361 0.102023)
(-0.652829 -0.201298 9.60651)
(-0.0735839 0.0322834 -0.378502)
(-0.0486076 -0.00366983 -0.477258)
(-0.977871 -0.028803 -0.667107)
(-0.0450341 -0.00199849 -0.162974)
(-0.67563 0.0573786 10.438)
(-11.1373 -0.475433 -13.8101)
(0.844053 0.109745 1.70649)
(-0.00441142 -0.000293104 -0.163908)
(0.331356 0.0049836 -0.0944545)
(0.285924 0.00388414 -0.0489969)
(-0.0050633 0.00333689 -0.0654779)
(-0.0864937 -0.00548251 0.0118147)
(-0.118388 -0.00767866 0.0251858)
(0.044172 0.00443382 -0.100808)
(-0.00757819 -0.000160756 -0.185857)
(2.35245 0.0761139 1.44811)
(-0.00181245 -4.71704e-05 -0.172679)
(0.00125193 7.93942e-05 -0.167549)
(-0.000389794 -0.000143864 -0.153354)
(0.335172 0.0334081 2.0125)
(0.248801 0.014382 -0.0159217)
(0.909094 0.0604986 2.56533)
(-0.0114431 -0.00045192 0.0246922)
(-0.00556942 0.00253354 -0.0637352)
(-0.421183 -0.0139625 -2.45211)
(-0.00433403 0.00290745 0.0531317)
(3.69571 0.320446 1.36649)
(-0.0547597 -0.00122492 0.114196)
(-0.00198938 -0.00399878 0.0230129)
(-0.0119803 -0.0080161 0.042164)
(-0.00829015 -0.00014922 0.0243158)
(0.00136595 -0.000269452 0.122206)
(-0.0622742 -0.00272702 0.0519361)
(0.00289389 -0.00199152 -0.102919)
(0.0015246 -0.0026688 0.0455313)
(-0.0132101 -0.00079831 -0.148696)
(-0.00565964 9.83904e-05 0.0195929)
(0.0117309 -0.00504001 -0.0883389)
(0.002903 5.28909e-05 0.136731)
(-0.0171619 -0.000467449 0.0286176)
(0.400483 -0.136877 16.3006)
(-0.00239568 -0.00238769 -0.0359477)
(0.0225234 0.000832417 -0.0370705)
(0.00618849 -0.00170759 -0.0461654)
(-0.0187097 -2.45848e-05 0.0653144)
(0.0207811 0.00130614 0.0549259)
(-0.0209546 0.00106019 0.0352582)
(-0.0499566 -0.00132114 0.119648)
(0.0603566 0.00575739 0.0889889)
(0.0451315 0.000555546 -0.0175345)
(-0.00144491 -1.4656e-06 -0.159653)
(0.0200994 0.000601062 0.121994)
(0.0189653 0.00158438 0.0235091)
(-0.0275327 0.00109237 -0.515705)
(0.0923986 0.0106021 -0.0832433)
(-3.80518e-05 4.66957e-05 -0.000321927)
(-0.00935519 -9.32434e-05 -0.000764476)
(-0.0282207 -0.00208745 0.0514336)
(0.0747398 0.00175686 -0.042974)
(0.490569 0.0377275 16.5828)
(-0.0187778 -0.00707509 0.0227826)
(0.015637 0.00159071 -0.109265)
(0.0232964 0.00103191 -0.0588429)
(-0.00711943 -0.00123564 -0.130487)
(-5.20531e-05 -0.000296743 0.00343765)
(-0.00625492 -0.000362045 -0.0195491)
(0.000736718 0.000127503 -0.081037)
(0.07238 0.0696789 -3.8767)
(0.00103614 -0.00188615 -0.0853856)
(0.0128787 0.00181249 0.0247457)
(-0.00183439 0.000879954 -0.110759)
(0.00661506 -0.00671859 0.00602762)
(0.00251443 0.00136868 0.0103387)
(0.00393868 1.22451e-05 -0.104067)
(0.0164795 0.000223828 -0.115238)
(-0.21735 -0.031162 0.965283)
(-0.00875147 0.0110769 -0.0817783)
(0.0121054 -0.00391101 0.0352149)
(0.108355 0.00875872 -0.00636474)
(0.174043 0.0104475 0.360179)
(0.00454472 0.000427249 -0.0988367)
(0.00791675 -0.000404167 -0.0983422)
(0.00260225 -0.00129443 -0.0921574)
(0.0041116 0.000740248 -0.0857068)
(0.0437149 0.000622997 -0.140031)
(-3.94455e-05 -0.00764727 -0.146867)
(-0.426209 -0.00871013 -0.296248)
(-0.0120882 0.00279071 -0.133913)
(-0.00488973 9.36932e-05 -0.122082)
(0.000506517 -0.00187991 -0.13332)
(0.145021 0.0162875 0.362074)
(0.00747565 0.000131885 -0.129127)
(0.550796 0.048215 -0.388697)
(-0.0191402 0.00104004 0.0828832)
(0.0214676 0.002094 0.114414)
(-0.000311696 -0.00282051 -0.149147)
(0.0133738 -0.00346676 -0.0857364)
(0.000806138 0.00259424 -0.133827)
(0.0024436 0.0029612 -0.137066)
(-0.0190194 0.000294334 -0.0783539)
(-0.208848 -0.0151846 0.0202264)
(-0.0341657 -0.000546739 0.0304557)
(0.126668 0.00285124 0.323994)
(0.0072345 -0.00505332 -0.0869202)
(-0.162806 -0.0111443 -0.0625494)
(-0.00494497 -0.00372074 -0.0305948)
(-0.00848679 0.0056932 -0.00227769)
(-0.00827019 0.000529913 -0.0120785)
(0.00316787 -0.000320906 -0.0949713)
(-0.0047621 0.00464426 -0.0455299)
(0.0820455 0.00137852 -0.177306)
(-2.56992 -0.00690117 -90.212)
(-0.076852 -0.00112 0.0492286)
(-0.00365243 -0.000512074 -0.00772724)
(-0.00677654 -0.00016444 0.19012)
(-0.000700681 -0.00251949 0.00469347)
(-0.0539312 -0.00229807 -0.39277)
(-0.0136567 -0.000118238 -0.0710548)
(-0.00533442 -0.00206162 -0.0919285)
(-0.0448124 -0.00361294 0.128086)
(-0.00447836 -0.00271089 -0.0928328)
(0.0184751 0.00214105 -0.0751473)
(-0.0191914 0.00459808 0.0722073)
(-0.00904467 0.00467064 0.0334642)
(-0.0333757 -0.002602 -0.15108)
(0.0486267 0.054851 -1.26632)
(-0.0363005 -0.00134231 0.116665)
(-0.113516 -0.00770937 -0.046724)
(0.00799195 -0.000757027 0.17488)
(0.245632 0.0150021 -0.0546986)
(0.00215201 0.00144478 0.223539)
(-0.00918663 -0.00709791 -0.093367)
(-0.0340312 -0.0157467 -0.333413)
(-0.126027 -0.00196417 -0.0624247)
(-0.236122 -0.00907444 0.109)
(0.347935 0.190251 -61.8748)
(-0.0118492 -0.000412856 0.0404598)
(-0.207972 -0.014594 0.38012)
(-0.0160561 -0.00669427 0.0561554)
(0.232546 0.013862 0.367726)
(3.13502 0.148448 -1.23298)
(3.81327 0.0376734 4.70153)
(-0.000500789 -0.000351999 -0.015105)
(-0.183249 -0.00635219 -0.861809)
(-0.404907 -0.0440289 -1.2527)
(-0.351043 0.0109498 -1.43784)
(-0.00403164 1.66078e-05 -0.158334)
(-1.31172 -0.00621493 -0.473711)
(-0.00901083 0.00862169 -0.0809289)
(-0.792989 -0.0592541 -1.0938)
(-0.611789 0.00796694 -1.02141)
(-0.00489112 0.000126885 -0.00689857)
(-0.0166128 -0.000636821 -0.0757584)
(0.000559415 -0.00317729 -0.0503083)
(0.00350872 -0.00225087 -0.118565)
(-0.00459019 -0.00325294 -0.0102604)
(-0.134868 -0.00739894 -0.28563)
(-0.00318497 0.00423522 -0.0946986)
(-0.0674653 -0.00217415 0.00556181)
(-0.00137891 0.00181828 -0.0241279)
(0.943556 0.0371823 -0.102586)
(-0.00295984 -0.00268269 -0.114438)
(-0.0219444 0.00155444 0.0322503)
(0.00196707 0.00165864 -0.0172251)
(-0.0159143 0.00265623 0.115754)
(-0.0959587 -0.00411079 0.00584852)
(0.00106634 -0.00257858 -0.117473)
(-0.00402491 0.000561847 0.00744523)
(-0.0032795 0.000703859 -0.030311)
(-0.178751 -0.0122951 0.0849351)
(0.620802 0.0213094 -0.468264)
(-0.0587708 -0.00360231 -0.0116706)
(0.0032807 -0.000784905 -0.11741)
(0.442388 0.0148822 0.444069)
(-0.0355024 -0.00282333 -0.0968018)
(-0.235275 0.00608246 1.07512)
(0.0528408 0.00195805 -0.0712032)
(-0.195844 -0.0157591 0.772469)
(0.0567618 -0.00143092 0.157031)
(-0.00616548 0.0023632 -0.0737218)
(-0.00982592 -0.0033687 0.145557)
(-0.0101431 -0.0067616 -0.0853472)
(-0.000640241 0.000361333 0.00256247)
(-0.0242201 0.000564108 -0.0523596)
(-0.129822 0.0074682 1.34403)
(-0.0135331 0.000263742 -0.00294288)
(-0.115981 0.00881317 1.18115)
(-0.175129 -0.0113857 0.910942)
(-0.198032 0.000666061 1.0386)
(2.02759 0.626666 -14.1543)
(-0.334575 -0.0801833 -2.85171)
(-0.885327 0.0489523 4.41986)
(-4.4698 -0.352391 14.4872)
(-0.540359 -0.0343224 -0.353796)
(-0.0523188 -0.0018571 0.047289)