/*--------------------------------*- C++ -*----------------------------------*\
| =========                 |                                                 |
| \\      /  F ield         | OpenFOAM: The Open Source CFD Toolbox           |
|  \\    /   O peration     | Version:  v2006                                 |
|   \\  /    A nd           | Website:  www.openfoam.com                      |
|    \\/     M anipulation  |                                                 |
\*---------------------------------------------------------------------------*/
FoamFile
{
    version     2.0;
    format      ascii;
    class       volVectorField;
    location    "0.01";
    object      U;
}
// * * * * * * * * * * * * * * * * * * * * * * * * * * * * * * * * * * * * * //

dimensions      [0 1 -1 0 0 0 0];


internalField   nonuniform List<vector> 
14347
(
(0.00948835 0.000194173 -0.0276317)
(0.0269045 0.00790254 -0.000379418)
(0.0256889 0.00885575 -0.0530335)
(0.00366516 -0.000213391 -0.117139)
(0.0130527 0.0010031 -0.118473)
(0.000922671 -0.00392015 0.00877727)
(-3.03117 -0.425094 -59.7847)
(-0.271541 0.0137219 -0.0847846)
(0.000541617 6.61361e-06 -0.119138)
(-0.00890261 -0.0017209 -0.130916)
(0.00605278 0.00340867 0.0362966)
(0.000470684 -0.00607706 0.0176897)
(0.0160286 0.00509299 -0.0182325)
(2.203e-05 -0.0069802 -0.129262)
(0.00139583 0.00349379 0.015105)
(0.305513 -0.0861598 0.776926)
(0.00183892 -0.0184035 -0.072251)
(-0.00547939 -0.0171886 -0.0775567)
(-0.196689 -0.00669281 -0.656473)
(-0.00387045 -0.00321937 0.0376103)
(-0.00088934 0.00233861 -0.0300233)
(-0.00567423 0.0056988 -0.047231)
(-0.00197434 0.00162014 -0.129653)
(0.00478091 0.00634455 0.0465944)
(-0.0737593 -0.00535347 -0.381061)
(0.00235419 -0.0027951 0.0416504)
(-0.00829074 0.0132975 0.00876078)
(-0.00421783 -0.00236355 -0.0367656)
(-0.00721837 0.00158511 -0.0213012)
(-0.0263853 -0.00958144 -0.0171102)
(0.000525762 0.00323858 -0.00855121)
(0.00184292 -0.00196393 -0.000936045)
(-0.0649588 0.000176047 -0.00671768)
(-0.00927277 -0.00337567 0.0181076)
(-0.0582577 -0.00414652 -0.00531577)
(-0.208341 0.0619901 -2.63175)
(-0.0598761 -0.00179411 -0.0111505)
(-0.0541175 -0.0015025 -0.014932)
(-0.384227 -0.0105907 -0.157396)
(-0.498791 -0.0232755 -5.44218)
(0.00514606 -0.00608831 -0.0113322)
(-0.0102318 0.00326632 -0.00141375)
(-0.0341797 -0.0523265 0.00513632)
(-0.36325 -0.014511 -0.0884857)
(-0.00709689 0.00522192 -0.00621187)
(0.0609174 0.00723289 0.0507189)
(0.00232453 -0.00416605 -0.0409509)
(-0.00212934 0.00102606 0.00909443)
(-8.15946e-05 0.00374097 -0.0181884)
(-0.0317728 0.00114026 -0.0293208)
(0.00927085 -0.0213706 0.0227962)
(-0.000566054 -0.0246704 0.00917475)
(0.0123735 0.0108047 0.00739339)
(0.0674531 0.00865399 -0.0648311)
(0.0127207 0.00478094 0.0221337)
(0.0325794 0.011489 0.0343009)
(0.639814 0.00330212 -66.2687)
(-0.00162195 -0.000282805 -0.0264125)
(0.00360238 -0.000109198 -0.126626)
(-0.00781467 0.000105861 -0.125748)
(-0.045353 0.0028687 -0.0587167)
(-0.000907997 -6.03117e-05 -0.122424)
(-0.525733 0.0313819 -2.2332)
(-0.00809294 -0.0133925 -0.095815)
(-0.00135187 -0.00106238 -0.127017)
(0.00566809 -0.000557278 0.0123297)
(-0.00849123 -0.00380982 -0.0456036)
(0.0242238 0.0144527 0.141142)
(0.00186126 0.00361803 0.0487608)
(-0.0545535 0.00887314 0.0750757)
(0.0109731 -8.21822e-05 -0.11117)
(0.00439515 0.000447972 -0.123867)
(-0.00261852 0.000938526 -0.0754993)
(-0.48826 0.0427012 -2.33522)
(-0.837096 0.00113111 -15.9145)
(-0.3817 -0.017998 -0.0101214)
(-0.594956 -0.0369676 0.116556)
(-0.233863 0.0220039 0.010251)
(-0.412549 -0.0131861 -0.0251817)
(-0.0026983 -0.00871713 0.00671126)
(-0.358202 0.0251571 -13.0832)
(-0.138795 -0.00999894 0.167972)
(0.592608 0.244335 -39.465)
(0.915867 0.369718 -38.1285)
(-0.000120524 -0.000729816 -0.120588)
(1.57589 -0.159938 -61.549)
(-0.0338306 -0.0201618 0.190787)
(-0.0219432 -0.000105051 -0.114507)
(-0.11953 -0.0140528 0.154813)
(0.284385 0.0617178 -0.559028)
(0.562726 -0.114328 -2.74341)
(0.843395 0.0660531 -4.51053)
(0.0623442 0.00342846 0.00667236)
(-0.00296118 -0.0885387 -2.22252)
(0.589728 0.129001 -1.09406)
(0.0765348 0.0247471 -0.301364)
(0.54772 -0.0573675 0.343785)
(-0.196269 0.315658 -57.4125)
(-0.254867 0.0223054 -15.8422)
(0.0017716 -0.00205919 0.0027058)
(0.40627 0.00599257 0.587096)
(-0.0134103 -0.0143416 0.00289584)
(-0.0595468 0.0324236 -14.5737)
(-0.309339 -0.0514458 1.28093)
(-0.0944113 0.0185956 -0.109056)
(0.427756 0.0937197 -0.757922)
(0.0674308 -0.0149277 -0.0174771)
(-0.00535515 -0.0083879 0.0326456)
(-0.00538049 0.00134309 -0.107991)
(0.00642755 -0.00950673 0.00825198)
(0.327947 0.0438842 -1.73483)
(-0.00539327 -0.0228553 0.470409)
(0.00123315 -0.016793 -0.0383257)
(-0.217535 -0.0403061 1.14311)
(0.0742613 0.00488426 0.0157756)
(0.0281336 -0.0057009 0.000384321)
(-0.000209954 0.0137366 0.00698286)
(-0.00116507 -0.00238034 0.00178476)
(0.0590174 -0.0887869 -0.838154)
(-0.000213138 0.0260751 0.0761852)
(-0.487273 0.127709 -3.28184)
(0.00532988 0.0150268 -0.0796544)
(-0.19961 -0.0168257 0.0362301)
(-0.676937 -0.00138913 -14.2184)
(-0.633989 0.0150487 -14.5747)
(-0.0833565 0.0283178 -1.12183)
(-0.719524 0.00809303 -13.1504)
(0.0234081 0.00284695 -0.044918)
(-0.0430506 -0.00124904 -0.048777)
(-0.00696811 -0.00245513 -0.118477)
(0.016138 0.00999322 -0.00234083)
(0.00557857 0.00135426 0.0161508)
(-0.913948 -0.21056 -7.76355)
(0.01964 0.0133632 0.0346814)
(2.17237 0.83271 -13.4595)
(0.0739135 -0.0414279 0.312313)
(-0.147885 -0.00629363 0.0478218)
(-0.0266418 -0.0953584 -1.05424)
(0.0401486 0.00769141 0.0375078)
(-0.0167186 0.00403422 0.0354532)
(0.587367 -0.0135856 -2.10936)
(-0.209083 -0.0163793 0.165146)
(0.364826 -0.0372216 -13.7574)
(-0.0234517 -0.00149551 -0.138638)
(-0.224937 -0.019069 0.0682161)
(-0.0077371 0.00025175 0.0274859)
(-0.0589671 -0.0039388 -0.25761)
(-0.0183025 -0.00104193 -0.0761057)
(0.0150192 -0.0904394 -2.20728)
(0.00750332 -0.00495759 0.0211207)
(0.0058626 0.00541197 0.0291022)
(-0.00810521 -0.000969961 0.0346635)
(-0.0987065 -0.018844 1.36138)
(0.444603 0.0797377 -1.2166)
(0.0072874 0.00195177 0.0639776)
(0.00851661 0.00500624 0.0220032)
(0.228254 0.0494773 -1.26079)
(-0.0956639 -0.103274 -2.25222)
(0.00864185 0.0159026 0.070809)
(-0.0103506 -0.00941663 0.0436487)
(0.328017 0.0155656 -3.52906)
(-0.559537 0.0209216 -13.419)
(-0.168792 -0.0105025 -0.108144)
(0.0111181 0.00873378 0.0606572)
(0.0150674 0.0149899 0.0674313)
(-0.00407479 -0.00613618 0.0511433)
(-0.00241535 -0.00046625 -0.125731)
(-0.0144633 0.000753656 0.0182013)
(-0.0104665 0.00279184 0.0540586)
(0.00166801 -0.00189593 0.00940881)
(0.00328635 -0.0108937 -0.0128243)
(0.319227 -0.0495126 0.987914)
(0.00418889 0.0135418 0.0188988)
(-0.103431 -0.00666311 -0.309516)
(0.00419752 0.00628647 0.00639298)
(0.00394185 -0.0157982 0.0746407)
(-0.0122573 -0.0194977 -0.00231415)
(-3.44363 -0.0672674 -5.20824)
(-0.37674 0.0463747 -2.25491)
(0.0178922 -0.00593909 1.02213)
(0.00699289 -0.000770669 0.0360172)
(-0.00478625 0.0311516 0.0108368)
(-0.0404822 -0.00703947 -0.045204)
(0.00854418 -0.00201088 0.0480661)
(0.0404507 0.00574287 0.0427699)
(2.09216 -0.216229 -60.5159)
(0.0066156 -0.00211403 0.0656441)
(-0.0115046 -0.00454418 0.00740951)
(-0.367751 -0.0668852 1.22313)
(0.38359 -0.0161944 0.733625)
(0.0118399 0.0139625 -0.00890397)
(-0.0935975 -0.00449223 -0.341943)
(-0.666367 0.00445042 -3.18823)
(-0.00422693 -0.0067513 0.00711685)
(-0.215267 -0.00754337 -0.125922)
(-0.00881999 0.00587329 0.0172369)
(-0.560678 0.0342659 -2.5927)
(-0.00447427 -0.0104939 0.0100995)
(-0.0074389 0.00734715 0.0238869)
(0.00609649 0.00983082 0.0105353)
(0.0226653 -0.00558057 0.00861715)
(-0.0155983 0.00705955 -0.0004894)
(-0.0331499 0.00217325 0.0901158)
(-0.00341006 0.00723058 0.0198333)
(0.0010424 -0.00732466 0.0194797)
(-0.0129166 0.00091969 0.00730757)
(-0.00426421 0.0233181 0.00165159)
(0.0137347 -0.00745192 0.0373097)
(-0.019253 -0.000288594 0.0220449)
(0.0172107 -0.0144216 0.0295188)
(0.246541 -0.09058 -3.33822)
(-0.108896 0.00552133 0.829133)
(-0.0130909 0.000528749 0.123983)
(-0.00143308 0.00574672 0.0198784)
(0.00730461 -0.000990255 0.00713611)
(0.0109709 -0.00456426 0.0349547)
(-0.00578023 -0.00307343 0.005049)
(0.0207448 -0.00474275 0.0322785)
(-0.17196 -0.0307948 -3.32012)
(-0.0078924 0.0189636 0.0262466)
(0.00158201 -0.000280689 0.0483246)
(-0.00176946 -0.00183456 0.00471271)
(0.000754408 0.00143692 0.033727)
(-0.672143 0.0586663 -2.81111)
(0.00360753 0.00547106 0.0842896)
(0.0250041 -0.000412374 0.0594424)
(-0.0330099 -0.00105784 -0.189264)
(-0.00922361 0.00229512 -0.016757)
(0.00106348 0.00466853 0.000781664)
(0.0080954 -0.00468704 0.054611)
(-0.010439 0.00384936 0.0162307)
(-0.00438983 -0.0117114 -0.0307644)
(0.295674 -0.00404707 0.151192)
(-0.0353715 -0.00135237 -0.183234)
(0.00487329 -0.00230187 -0.00791351)
(0.0052227 0.00674093 -0.00736718)
(0.0776434 0.0241521 -0.0142721)
(-0.00809705 -0.00707894 0.0126678)
(0.153811 -0.0149617 0.151028)
(-0.0109411 -0.00295647 0.00629762)
(0.0158888 0.0180998 -0.00364516)
(-0.0168803 -0.000487953 -0.121144)
(0.00482355 -0.000974824 0.00809826)
(0.0126642 0.0132041 0.0192114)
(0.00458576 0.0242115 0.0222524)
(-0.193657 -0.00892 -0.112851)
(0.0137582 0.0110787 0.024288)
(-0.035428 -0.00790686 -0.0721275)
(0.0891506 -0.0180868 0.0890084)
(0.422083 -0.0758803 0.185986)
(0.0154775 0.0102949 0.00356798)
(-0.0414302 -0.00228309 -0.190328)
(-0.0113381 -0.00613765 0.00513569)
(-0.0318471 0.000559995 -0.00203457)
(0.508435 -0.0242981 0.300527)
(-0.00698907 -0.0122941 -0.00837262)
(0.0200536 0.00546611 0.0383588)
(-0.0203735 -0.00354961 0.0124463)
(0.0104711 -0.00131394 -0.00837211)
(0.00356799 -0.00840901 0.036585)
(0.0162663 -0.0026053 0.0262549)
(0.00462468 -0.0027534 -0.0169409)
(0.00979243 0.00209519 0.0303588)
(-0.00467164 -0.0011752 0.0508971)
(0.00294909 0.00197077 -0.00651209)
(0.0064989 0.00138507 0.00358256)
(-0.015076 0.00467677 -0.00020507)
(0.0160764 0.000825227 -0.0162674)
(0.0336081 0.00474091 -0.0292124)
(0.000311278 -0.00222138 0.008724)
(0.00346065 0.00744284 0.0199515)
(-0.000431619 0.00432417 0.0175353)
(0.0433948 -0.00714034 0.0277521)
(-0.00480641 0.0158149 0.0065051)
(0.0601055 -0.00124129 -0.0574272)
(-7.17176e-05 -1.96649e-06 -0.0196736)
(0.00276749 -0.00427928 0.0211659)
(0.0861058 -0.0145999 0.00743786)
(-0.0425129 -0.00731646 0.0130549)
(0.0114097 -0.00208476 -0.0207794)
(0.00314313 -0.00201825 0.0263999)
(0.0275548 -0.000125795 -0.0321348)
(0.012532 -0.0524841 -7.78286)
(0.255134 -0.0836456 0.408147)
(-0.0125982 0.000436189 -0.0346629)
(0.0497104 -0.0140232 0.0160449)
(-0.086602 -0.00571226 -0.343455)
(1.37642 0.109458 -25.0322)
(-0.545372 0.041963 0.0402728)
(-1.05909 -0.0312831 0.0212058)
(-0.941234 0.082284 0.352003)
(-0.0447592 -0.00274001 -0.204648)
(0.376159 0.0828904 -16.7172)
(-0.0423298 -0.0055154 0.00584059)
(8.29015 1.44635 -20.9319)
(-0.00675625 -0.00559334 0.0239874)
(-0.388034 -0.0375793 -0.0382789)
(0.881376 -0.0556287 -9.31398)
(0.104002 0.138959 -4.25523)
(-0.388646 -0.0114696 -1.27027)
(-0.00151631 -0.0150868 -0.0896276)
(1.61945 -0.0147719 -8.30433)
(-0.00141902 0.000266744 -0.114172)
(0.000268043 -0.00269041 -0.0704396)
(-1.34828 -0.0180377 0.0980599)
(0.448477 -0.00159944 0.206574)
(-0.00131142 -0.000158337 -0.114436)
(-0.00120291 0.000250149 -0.113199)
(0.999659 0.337188 -60.8272)
(-0.484398 -0.0204985 -0.423384)
(-0.198413 0.0269093 -14.9233)
(-0.00227741 -7.51191e-05 -0.114587)
(0.0299394 -0.00356226 0.0530832)
(-0.00296704 0.000918544 -0.109952)
(-0.0715534 -0.00209619 -0.0667311)
(0.173882 -0.0626992 -7.16758)
(-0.00366635 -0.000917081 -0.106596)
(-0.00104199 7.79347e-05 -0.119532)
(-0.00939521 -0.0011542 -0.103164)
(-0.00313783 0.00100353 0.0927217)
(0.0153365 0.00335179 -0.0371639)
(0.0187868 0.00121276 -0.0822707)
(0.021041 0.000670944 -0.0737198)
(0.00849888 0.000365129 -0.0534154)
(-0.0012138 -0.00110609 -0.125338)
(0.00516703 -0.00671688 0.0313025)
(-0.0110715 0.0087905 -0.0747594)
(-0.0513511 -0.00585518 0.198546)
(-0.0481496 -0.00127308 -0.078415)
(-0.00691698 0.00164141 -0.103937)
(0.0114813 0.00038052 -0.0334512)
(0.0383773 0.00252454 -0.00460827)
(0.00522942 0.000266608 -0.110576)
(-0.0081459 0.00176124 -0.102619)
(0.0042577 4.45228e-05 0.0867805)
(-0.00736436 -0.0036483 -0.133461)
(-0.000919242 -0.00157383 -0.122835)
(-0.00491984 0.00287612 -0.122381)
(0.00496878 0.000765177 -0.0980625)
(-0.35794 0.0251056 -17.4601)
(-0.000674024 -0.0122754 -0.0931924)
(0.00261317 -0.00396148 -0.125261)
(-0.0612651 -0.00400538 0.00131142)
(-0.0124302 0.000536546 -0.124484)
(0.00110257 -0.00146435 -0.122645)
(0.0198476 0.0153526 0.0193973)
(0.0015336 -0.00404654 -0.121508)
(0.650255 0.341672 -63.5595)
(0.135388 0.337173 -58.8845)
(0.146511 0.239425 -55.9946)
(-0.00893688 0.140578 -39.1629)
(0.592149 0.0910139 0.28979)
(0.0193788 0.0854171 -47.995)
(-0.523795 0.0502033 -1.82444)
(-0.0192802 0.000461362 -0.0242351)
(-0.0173256 -0.00164795 -0.0684025)
(-0.00553839 -0.0017306 -0.123635)
(-0.0177438 -0.00134803 -0.0166972)
(0.0355008 0.011521 0.0340577)
(-0.693489 -0.025828 -0.292291)
(-0.00303807 0.00704477 -0.0517579)
(-0.190559 -0.0194041 -0.0211404)
(-0.580381 -0.0444813 -0.268378)
(0.0126701 0.00945261 0.0155798)
(0.00707005 0.00662579 0.0166097)
(-0.43493 1.50407e-05 -0.00951714)
(-0.031263 0.000624468 0.0274365)
(-0.449461 -0.0234208 -0.0419344)
(0.00538463 0.00839814 -0.00327949)
(-0.377742 0.02247 0.0102348)
(0.5654 0.00951673 -2.87403)
(-0.477985 0.0559875 -1.88897)
(0.003194 -0.00520678 0.0589952)
(-0.56956 -0.0368118 -0.363083)
(-7.45941e-05 0.00677221 -0.104591)
(-0.682413 -0.01704 -0.414854)
(1.88151 -0.0367675 -61.0766)
(-0.622691 -0.0290892 -0.430892)
(0.144831 0.0114004 -0.00274001)
(0.00907419 -0.00450402 0.0300935)
(-0.0283904 0.00320263 -0.0405746)
(-9.32339e-05 0.00237912 0.0282177)
(-0.12859 -0.00916692 0.0359744)
(0.0148242 0.0117501 0.0215768)
(-0.0384592 -0.00533847 -0.0419877)
(-0.0206387 0.000315654 -0.0485011)
(-0.0439468 -0.00192657 -0.0834798)
(-0.0194199 0.000282452 -0.0438407)
(0.125936 0.00227923 0.0198913)
(-0.0207475 0.00145701 -0.0209979)
(-0.660578 -0.0101149 -0.310731)
(-0.00826469 0.000174575 -0.00311509)
(0.00170253 -0.000773281 -0.126184)
(-0.162909 -0.0105645 -0.139364)
(-0.0422175 -0.091772 -0.253997)
(0.00981088 0.00141796 -0.00998546)
(-0.0501068 -0.102097 -0.206213)
(0.0348344 -0.112973 -64.403)
(-0.00343518 0.00022522 -0.00108563)
(0.0303881 -0.0164119 -0.00604946)
(-0.000465951 0.00147247 0.108854)
(-0.0363082 -0.0181718 0.00553072)
(-0.0395813 0.0271516 0.0657886)
(-0.86502 0.0233201 -2.52077)
(-0.553631 -0.025234 -0.320682)
(0.902186 -0.0772882 -0.467322)
(0.964945 -0.0925874 0.196939)
(-3.25823 0.0758813 -1.20955)
(-0.00153462 0.0201794 0.0260322)
(0.022104 -0.00317579 -0.0106353)
(0.559267 -0.0309811 -5.28419)
(0.171538 -0.00154108 0.238001)
(-0.551176 0.043165 -3.61049)
(-0.077756 -0.0176139 0.389442)
(-0.150386 -0.0225163 0.146016)
(0.150156 0.00571276 0.023102)
(-3.15638 -0.103366 -3.24257)
(-0.000598164 -0.00884321 0.00391473)
(0.80545 0.0522582 -63.5659)
(-0.113695 -0.00937288 -0.15619)
(0.553657 -0.0576926 0.460864)
(0.0329365 0.00160098 0.0410488)
(0.179271 -0.0688937 1.29009)
(0.0448334 0.00103337 0.0389272)
(-0.00632311 0.0039432 -0.00198302)
(-0.117052 -0.00598324 0.0709737)
(-0.000422313 0.00500605 0.00462577)
(-0.0341538 -0.00717676 0.0276388)
(-0.00329005 0.000597067 0.00153539)
(0.380689 -0.0645944 0.735672)
(0.139636 0.077995 -0.263258)
(-7.54604 0.495946 2.38036)
(0.00650375 -0.00851975 0.0336668)
(-0.582805 -0.0872688 -4.00849)
(-0.817033 0.0190356 -4.13848)
(-3.37682 -0.205144 -1.56721)
(-3.22994 0.361148 -1.77815)
(-0.00241732 -0.00216101 0.0720853)
(-0.00767458 -0.021138 0.0173157)
(-0.00204487 0.0117494 0.0216877)
(0.00637179 0.0151073 0.033111)
(-1.48497 -0.0100224 -0.685226)
(-0.00999841 -0.00099626 -0.0686693)
(-0.00756402 -0.000814389 -0.123367)
(-0.0232922 -0.00720478 0.020014)
(0.00936125 0.00457173 -0.00982333)
(-0.00321535 0.000468022 -0.121781)
(-0.060177 0.000740476 0.0068417)
(0.00498722 -0.00862014 0.0102155)
(0.025166 -0.0297056 0.0455902)
(-0.0351166 0.00054743 -0.12159)
(0.00681663 0.0090038 0.00433409)
(-0.0308546 0.00205955 0.0621736)
(0.00322987 -0.00450148 0.0171424)
(0.151826 0.0112197 0.281121)
(-0.0727591 -0.000330392 -0.00972096)
(-0.00212346 -0.010532 0.0522648)
(0.0306812 0.00058092 -0.0407692)
(-0.00609645 0.00112084 0.0239054)
(-0.0061403 -0.000741587 -0.040044)
(-0.00146051 0.0104381 0.0349653)
(-0.00837181 0.000781781 0.0600142)
(0.00973856 -0.00720262 0.0496143)
(-0.00269983 -0.0146786 -0.0787723)
(0.00364847 0.0119825 0.0630778)
(-0.014193 0.00680665 -0.00683108)
(-0.0115121 -0.0146756 0.00928105)
(-0.00407159 -0.00647577 0.0148757)
(-0.0113793 -0.00293977 0.0562829)
(0.0044113 -4.7434e-05 -0.12185)
(-0.0132481 -0.00407704 0.0889413)
(-0.00229873 0.00892061 0.0664167)
(-0.017219 0.00401904 0.0780141)
(-0.00535339 0.00494897 0.057432)
(0.00286345 0.0103583 0.0133828)
(-0.0201505 -0.00703288 0.00522453)
(-0.0194187 -0.00330807 -0.0396094)
(-3.34046 -0.201828 -2.25794)
(0.143735 0.00827166 -0.197663)
(-0.0174802 -0.00352518 0.00831253)
(-0.00391795 0.00735628 0.0173074)
(-0.0270505 -0.00324388 0.0420167)
(-0.088363 -0.0036882 -0.0401616)
(0.0202936 -0.007879 0.03258)
(-0.127388 -0.0250835 0.510421)
(-0.00172127 -0.000958394 0.00732465)
(0.00455448 0.00220582 0.0730941)
(-0.00310865 0.00263852 0.011776)
(0.0211657 0.000102255 0.114713)
(0.165969 -0.162619 -9.59208)
(0.0342493 0.000130125 0.0395653)
(-0.0124312 0.00769084 0.0490177)
(-0.00595345 0.0103908 0.0807821)
(0.00286487 0.00016415 -0.0298751)
(0.00318838 -0.00355036 0.0309947)
(0.022398 -0.0108084 -0.00528513)
(0.00583801 0.0184565 0.0110257)
(0.0318044 0.00774048 0.0232122)
(0.0353506 0.00357721 0.027241)
(-0.0205236 -0.00114944 -0.00415174)
(-0.00814382 0.00113062 -0.115522)
(0.0151963 -0.0107543 -0.00703731)
(-0.0110315 -0.00998896 0.000370679)
(0.00539965 0.0139546 0.00839785)
(0.0189305 -0.00469848 -0.0121203)
(-0.0294011 -0.0209978 -0.0190948)
(-0.013943 -0.000533501 0.00236074)
(0.00616364 0.00257996 0.0292709)
(-0.00823476 -0.0065571 0.00867616)
(-0.0199478 -0.00621727 0.0176903)
(0.00870198 0.0202681 0.0215507)
(-0.0330915 -0.00630811 0.00181957)
(-0.0106815 0.000610768 0.0167048)
(-0.00183288 -0.0072738 0.0137348)
(-0.0035688 0.00111245 0.00938086)
(-0.00303031 0.014547 0.025402)
(-0.00161099 0.0212725 0.0161184)
(0.00763332 0.00662549 0.0324722)
(0.0600517 -0.0053984 0.635421)
(0.00626152 0.0023641 0.0298587)
(-1.15007 -0.04188 -9.87724)
(0.0036072 0.00523319 0.0452691)
(-34.0575 -1.94351 -44.6592)
(2.30194 0.0407914 -56.9796)
(0.886382 0.092365 -62.8777)
(0.00172324 -0.00130195 -0.123972)
(0.0156252 -0.0231715 0.0079545)
(-0.000390675 0.00305433 -0.0726966)
(-0.010181 0.00142071 -0.123021)
(0.0368753 0.00343131 0.0112701)
(0.0225572 0.0042141 0.0171075)
(-0.0468072 -0.00151056 -0.023398)
(0.00895211 -0.00741018 0.0297115)
(-0.0228472 0.00273986 0.0308104)
(-0.00811601 0.00785316 -0.0163755)
(0.00961065 0.00372535 -0.0142381)
(0.0143065 -0.00218089 0.0151187)
(0.0181531 0.00585213 0.00800233)
(0.00928597 -0.0138537 0.0246416)
(0.0352128 0.00143135 0.0337188)
(0.00459934 -0.00944194 0.00380667)
(-0.00185522 -0.00317688 0.00399768)
(0.00589295 0.00829539 0.0294209)
(-0.000961567 -0.0042706 0.0268528)
(-0.011288 0.00225112 -0.12032)
(0.0178915 0.00963462 0.010599)
(-0.00572901 0.000199367 -0.0103824)
(1.57535 -0.0453893 -61.7654)
(0.0290245 -0.00428948 0.0285455)
(0.0322785 0.00145938 -0.00168605)
(-0.010409 -0.0139622 -0.0171594)
(-0.00924263 -0.00826688 0.00140372)
(0.0112389 0.00611085 0.015156)
(-0.416957 -0.0435789 -0.847785)
(-0.00720235 -0.0180765 -0.017866)
(0.00816058 9.40052e-05 -0.0143279)
(-0.0243821 -0.00225825 -0.00254423)
(-0.0125001 -0.00212232 -0.00686827)
(-0.0242713 2.43164e-05 -0.0166814)
(0.00439983 -0.0141793 0.0138511)
(-0.0163772 0.0085389 -0.00653059)
(-0.000742506 -0.0259398 0.00679025)
(0.00377424 -0.0147497 0.0248916)
(-0.00522369 0.0112675 0.0178406)
(-0.00621434 0.00070816 -0.125155)
(-0.00354953 -0.00457724 -0.0194327)
(0.35343 0.0877044 -6.37331)
(-0.00902159 0.000179267 -0.0137942)
(-0.00903174 -0.0101185 0.00652233)
(-0.0696652 -0.0228772 0.0139223)
(-0.00848096 -0.00464935 -0.00445692)
(9.06212 0.572621 -49.2003)
(-0.00839044 -0.0110584 0.00833966)
(-0.0368667 0.00172603 -0.00331537)
(0.0362317 0.00599657 -0.0160197)
(-0.0107949 -0.0110688 -0.00583619)
(0.0543461 -0.036444 -4.77005)
(-0.724654 0.0224556 0.0568879)
(1.0863 0.0253469 -62.9668)
(0.414655 -0.067093 -7.39369)
(-0.00757725 -0.00915661 0.00453918)
(0.0127178 1.53835e-06 -0.0203787)
(0.0190064 0.00110994 -0.0328499)
(-0.278435 -0.0151532 -0.763838)
(-0.324412 -0.0353792 1.29693)
(-0.0312298 -0.000417434 -0.0152425)
(0.000311956 0.00254063 -0.00576176)
(-0.0113371 -0.00183927 -0.119546)
(-0.0101577 -0.00156709 -0.00902763)
(0.203699 0.00919946 -0.0929947)
(0.0110855 0.00334859 -0.0145277)
(-0.00637215 -0.00115524 -0.120561)
(-0.514282 0.135138 -2.38432)
(0.126469 -0.0472547 -4.97349)
(-0.447077 -0.032206 -8.33297)
(-0.112586 -0.00239131 -0.0185826)
(0.0112509 0.0133328 0.0758292)
(-0.757765 0.0351809 -2.59881)
(-0.0115243 -0.0022265 -0.00608819)
(-0.109985 -0.00528946 -0.055587)
(-0.71867 -0.0327066 -8.91188)
(-0.000237076 0.000802264 -0.12356)
(0.00286783 -0.00103897 -0.115199)
(-0.0542252 -0.00534774 -0.0211193)
(0.0115585 -0.000839785 0.000711997)
(-1.11157 0.087276 -4.42828)
(0.00232618 -0.0022046 -0.100886)
(-0.534066 0.0635438 -3.11901)
(-0.0247713 0.000858165 -0.0300792)
(-0.00273139 0.0175481 -0.00652755)
(0.0845812 -0.0409714 -6.51417)
(-3.85434 -0.364489 -2.64636)
(-0.0211787 -0.00323793 0.033927)
(-0.0491334 -0.0681515 -6.64247)
(-0.00585919 -5.89666e-05 -0.0896847)
(-0.420361 0.0344121 -14.9233)
(-0.00804651 0.013273 -0.0769321)
(-0.00768625 0.00290542 -0.0905794)
(-0.0120046 0.00157339 -0.114669)
(-0.0119153 -4.82067e-05 -0.118694)
(0.0277314 0.00474105 0.0241582)
(-0.42942 0.0179073 -14.2752)
(-0.056215 -0.00552063 -0.516823)
(0.103635 0.0203192 0.0872611)
(0.0471443 -0.0291128 0.473955)
(0.00407786 -0.00513411 0.0260467)
(0.212105 0.366423 -67.5674)
(0.00687711 0.00955209 0.0863656)
(-0.0875281 -0.00736905 -0.025495)
(-0.15855 -0.0113589 -0.574038)
(-0.0836159 -0.00939221 -0.629944)
(-0.300234 -0.0238999 -0.924489)
(-0.105513 -0.002625 -0.646719)
(-0.107764 0.00181872 -0.0145262)
(-0.19883 -0.0329044 0.434573)
(-0.101861 -0.00134781 -0.0216032)
(-0.296032 0.0603978 -2.10148)
(-0.00591787 -0.00791441 0.0263798)
(0.0027226 -0.00102896 0.0219512)
(0.0126388 -0.00576456 -0.03485)
(0.0654893 -0.00545947 -0.0674155)
(0.0167953 0.00459115 -0.0234097)
(-0.101009 -0.00835948 -0.0297535)
(-0.104643 -0.00420075 -0.0251331)
(0.189491 0.0204256 0.130095)
(-0.00272453 0.0036105 -0.122127)
(0.000169079 0.00413756 -0.118165)
(0.00740594 0.0114815 0.0608001)
(-0.00106514 0.00140897 -0.118507)
(0.0106721 -0.00933484 -0.110022)
(0.00749154 -0.0114669 -0.0761535)
(0.025624 -0.0234027 -6.59651)
(0.000391695 0.00241678 -0.0943812)
(-0.163253 -0.0450097 -14.8814)
(-0.605223 0.0999309 -3.53995)
(-0.111948 -0.00214728 -0.0325609)
(-0.221693 0.0289794 -14.5022)
(-0.201029 -0.0321281 1.4414)
(-0.533898 0.00586442 0.00461174)
(-0.0216845 6.4329e-05 -0.0346458)
(-0.0863861 -0.064542 -0.439937)
(-0.0315607 0.0479017 -15.2897)
(0.170934 -0.0512519 -0.768149)
(-41.14 -0.238956 -16.9603)
(0.00463662 0.00950578 0.0666454)
(-0.0383664 -0.000153693 0.00076454)
(-0.470049 0.00321825 -1.64272)
(-0.518364 0.0414289 -4.00538)
(-0.130695 0.0308662 -4.10623)
(-0.836444 -0.0303891 -0.577758)
(-0.0362393 -0.00106411 -0.117203)
(-0.532614 0.0876781 -2.21872)
(-11.9672 -0.527303 -15.4128)
(0.550119 -0.0611831 0.286549)
(-0.00218578 -0.00113255 -0.117925)
(-0.086326 -0.0525503 0.209435)
(0.0270201 0.00997025 0.367748)
(-0.0138394 -0.000477103 -0.0930505)
(-0.0619488 0.00135078 0.0230776)
(-0.0558972 -0.00280003 0.0240648)
(-0.0530105 0.0101373 -0.0219776)
(0.00556294 0.000694277 -0.138939)
(0.0279303 -0.00378315 0.000275823)
(0.00789569 -5.73709e-05 -0.129378)
(0.00260075 -0.000214107 -0.12295)
(0.0048686 -9.61528e-06 -0.114196)
(-0.10236 -0.0598543 0.0031354)
(-0.0197206 0.0155276 0.0879764)
(0.145724 0.0528257 0.740147)
(-0.00393092 0.00290971 0.0163054)
(-0.0102436 0.000944785 -0.0945422)
(-0.00409086 -0.00659186 -0.00467154)
(-0.00964257 0.00851303 0.0428522)
(0.00440327 0.0121838 0.0193115)
(-0.0329476 0.00236337 -0.0131882)
(-0.00578895 -0.0206722 0.0492774)
(-0.00259098 -0.0115769 0.00577627)
(-0.00622948 7.27058e-05 0.0139175)
(-0.00818686 -0.00084933 0.119019)
(0.0222108 -0.00285586 -0.0201695)
(0.0231349 0.00640283 0.00819065)
(0.0011583 -0.000818905 0.0910916)
(-0.0126894 -0.00084661 -0.121267)
(-0.00352971 0.00142911 0.0172576)
(0.00799436 0.00799769 0.0177379)
(-0.011327 -0.0059372 0.126702)
(-0.00860499 -0.00216283 0.0149466)
(-0.562801 0.04155 -2.40654)
(0.00979214 0.00611575 0.0379393)
(0.00809701 -0.000508718 0.0118001)
(0.0074541 -0.0109895 0.0268144)
(-0.0166984 -0.00361775 0.0254841)
(0.0193182 -0.0021649 0.0410893)
(-0.00996052 0.000564457 0.0172811)
(-0.0701053 -0.00280811 -0.0156327)
(0.0246363 0.0105706 0.0442797)
(0.0131589 -0.014865 -0.0663241)
(0.00138868 0.000156124 -0.117301)
(0.0440433 0.00794753 0.111514)
(0.00125281 0.00315879 0.05067)
(0.0107751 0.0110147 0.018895)
(-0.0665859 0.027255 -0.0423626)
(0.00211205 -0.000608825 0.0035939)
(-0.0529992 -0.00176907 -0.00164622)
(-0.0147003 -0.00348235 0.0170304)
(0.00977417 -0.00373797 -0.0237335)
(-0.595848 0.108874 -3.78935)
(-0.000758233 0.00700549 0.00166667)
(-0.02451 0.00898514 -0.000807654)
(0.0168815 0.00609421 0.018631)
(-0.0151838 -0.00105254 -0.111822)
(0.00944982 -0.00164519 -0.00992087)
(-0.00203986 0.00147105 -0.0139625)
(-0.0103754 0.00681274 0.00399772)
(-0.484102 0.0790767 -3.63309)
(0.0153355 -0.00310692 -0.0089334)
(0.00822483 0.0138197 0.0672614)
(0.000630032 -0.00185135 -0.00278208)
(0.00587275 0.0046475 0.0500386)
(0.00414377 0.0135799 0.100211)
(-0.00424784 0.00852051 0.0140199)
(0.00461674 -0.00675666 -0.049046)
(0.0579091 0.00946655 0.0165848)
(0.00276337 0.00132057 0.0105963)
(-0.00301275 -0.00413386 0.0723982)
(0.0148956 0.00516975 -0.00289536)
(0.279512 0.0295137 0.0812505)
(0.0129441 -0.000278853 -0.0042617)
(-0.028951 -0.00137193 0.0255607)
(-0.000631942 -0.00398457 -0.0023229)
(-0.0115566 -0.00818189 0.0103521)
(-0.0361739 -0.00943314 -0.00438341)
(0.0123802 0.00966733 0.026956)
(-0.0805234 0.0124863 -0.142424)
(-0.0268085 -0.00558357 0.0338125)
(-0.0180015 0.00409705 0.0471917)
(-0.0128326 -0.00233049 0.0459813)
(1.00009 0.0141422 0.72052)
(-0.0180762 -0.0112877 -0.00388012)
(0.174774 0.0115855 1.31129)
(-0.020359 -0.00584247 -0.0126042)
(0.0286233 0.0162951 0.075143)
(-0.0153936 0.000915653 0.0247184)
(0.00199958 -0.00544121 -0.00185398)
(0.0245606 -0.010939 0.0256722)
(0.0011788 0.00285187 0.0302324)
(-0.0119467 0.00413669 0.0484391)
(0.253805 0.00923139 0.0312537)
(0.0208272 -0.00463093 0.0105435)
(0.909017 0.0715801 0.699063)
(0.00518948 0.00673994 0.00104683)
(0.123874 0.0125003 0.0340276)
(0.0070132 0.00128378 0.0106566)
(-0.0350041 0.00319903 0.00652474)
(-0.0225908 6.43478e-05 -0.02616)
(0.00803036 -0.00499121 0.0189936)
(0.031768 -0.00193904 0.000732317)
(-0.095136 -0.00826882 -0.0153176)
(-0.46331 0.0120205 -14.2935)
(0.0258215 -0.00014862 -0.0315547)
(-0.0143841 -0.00323261 -0.025259)
(-0.0255172 -0.00791866 0.0124662)
(0.00262296 -0.0117144 -0.016587)
(-0.0317272 -0.00163238 -0.352719)
(0.00373498 -0.00798802 0.0318379)
(-0.00641405 -0.000625111 -0.104732)
(-0.00860231 -0.00959243 -0.004364)
(-0.00754912 -0.000547978 -0.104115)
(0.0196474 0.00589238 0.0191527)
(0.00419051 -0.0058231 -0.0164513)
(0.00746985 0.0181655 -0.00156705)
(-0.0268183 -0.0019924 -0.112417)
(0.0165361 -0.0103364 0.0248355)
(-0.0103545 -0.00994467 -0.0291627)
(-0.112649 -0.00855572 -0.044425)
(0.00761869 0.00510739 0.0121545)
(0.0214943 0.00350969 -0.0706116)
(-0.0149258 0.00229567 0.0268492)
(0.021459 0.0252753 0.0147996)
(0.0119236 0.00764691 0.0220269)
(-0.105918 -0.0018542 -0.0485475)
(-0.0402134 -0.00413457 0.140469)
(0.906541 0.188229 -77.6004)
(0.0197356 0.00480578 0.00166341)
(-0.0478813 0.00479522 0.0133428)
(0.0217929 -0.0061753 0.00419544)
(-0.018977 -0.00284179 0.0144862)
(0.0137539 -0.0211313 0.0294262)
(-0.013083 0.000556599 -0.0057915)
(0.0145776 0.00483936 -0.0206411)
(0.0106478 -0.0023757 0.00523537)
(0.0194294 -0.00773507 0.0111687)
(-0.0019838 0.00150054 0.0137017)
(0.00107067 -0.00213318 -0.114891)
(0.0269746 -0.00394692 -0.0222771)
(0.00199711 -0.00762531 0.00227074)
(-0.0134169 -0.0184268 0.000765495)
(0.0226523 0.00485426 0.0103111)
(-0.014694 -0.00313309 -0.0226315)
(-0.00365928 -0.00268376 0.0560159)
(-0.00489693 0.0044176 -0.0982001)
(0.0362694 -0.0102702 0.0314325)
(0.0016906 -0.00488949 -0.0160146)
(-0.0976116 -0.00500823 -0.191547)
(-0.00252931 -0.000678604 -0.130291)
(-0.0967629 -0.0118869 0.0222376)
(0.00748094 0.00274705 0.0445599)
(0.0231331 -0.0247576 0.0178267)
(-0.00501158 -0.00129327 -0.120117)
(-0.0116484 0.00122233 0.0132614)
(-0.0023766 0.0115791 -0.0870967)
(-0.0289717 0.00743742 0.00882804)
(0.039188 0.00366554 -0.0450933)
(0.0203167 0.000996282 0.0254036)
(-0.00502808 0.000819999 0.0106698)
(-0.00367141 -0.00362102 -0.114599)
(-0.0346175 -0.00680961 0.075667)
(-0.0205229 -0.0104768 0.0208092)
(0.00503715 0.0109797 -0.00014274)
(-0.0100589 -0.0136536 0.0117161)
(0.016887 -0.00868726 0.00180419)
(-0.0380598 -0.00466492 -0.0807309)
(0.00031872 0.00183948 -0.0256552)
(-0.00725126 -0.000902428 -0.00716502)
(0.0028085 -0.00264222 -0.0370333)
(0.128245 0.00365536 0.0810727)
(-0.00283793 -0.0145189 0.0164011)
(0.00173751 -0.0133928 0.0339549)
(0.00880164 0.00250912 0.0199818)
(-0.00487851 0.006347 -0.00246127)
(-0.0317572 -0.00119032 -0.0586698)
(-0.0368746 0.00498559 -0.0522674)
(-0.0717032 0.00293333 -0.00806228)
(0.0149036 0.0135997 -0.0453563)
(-0.0134878 0.00464466 -0.0400891)
(-0.0226267 -0.00339886 -0.0255148)
(0.68806 0.149928 -6.39344)
(0.302097 0.0281677 -0.266817)
(0.0109159 -0.0311419 -6.15976)
(0.223501 0.0694178 -6.87638)
(-0.194242 0.015567 -0.0847444)
(0.0196547 -0.000959235 -0.0118417)