/*--------------------------------*- C++ -*----------------------------------*\
| =========                 |                                                 |
| \\      /  F ield         | OpenFOAM: The Open Source CFD Toolbox           |
|  \\    /   O peration     | Version:  v2012                                 |
|   \\  /    A nd           | Website:  www.openfoam.com                      |
|    \\/     M anipulation  |                                                 |
\*---------------------------------------------------------------------------*/
FoamFile
{
    version     2.0;
    format      ascii;
    class       volScalarField;
    location    "0.6";
    object      alpha.water;
}
// * * * * * * * * * * * * * * * * * * * * * * * * * * * * * * * * * * * * * //

dimensions      [0 0 0 0 0 0 0];


internalField   nonuniform List<scalar> 
20000
(
-1.60854e-170
-1.04797e-162
-6.28192e-156
-2.51353e-146
-1.28854e-139
-9.35701e-128
-1.35749e-120
-6.64579e-108
-6.45169e-102
-3.01235e-98
-4.54749e-95
-1.05816e-91
-3.19133e-88
-1.39767e-85
-1.79649e-82
-2.26981e-80
-1.19315e-76
-1.41114e-73
-3.66496e-71
-4.74113e-70
-2.00236e-69
-4.48676e-69
-6.35478e-69
-6.18657e-69
-4.3903e-69
-3.50466e-69
-1.24937e-67
-1.34096e-66
-4.90968e-66
-9.52682e-66
-7.82294e-65
-1.68855e-63
-4.43148e-63
-5.17242e-63
-3.48107e-63
-1.51022e-63
-4.4896e-64
-9.50024e-65
-1.46762e-65
-1.59448e-66
-1.39841e-67
-9.26339e-69
-4.64089e-70
-1.76143e-71
-5.06376e-73
-1.09894e-74
-1.79174e-76
-2.17819e-78
-1.95628e-80
-1.28341e-82
-6.06683e-85
-2.03449e-87
-4.75066e-90
-7.55154e-93
-7.94525e-96
-5.33288e-99
-2.16736e-102
-4.91713e-106
-5.37786e-110
-1.98222e-114
-2.01232e-168
-4.3014e-161
-1.30732e-154
-5.94096e-145
-6.99389e-138
-2.65765e-126
-5.13099e-119
-1.78575e-106
-1.68265e-100
-6.90891e-97
-9.46365e-94
-1.96903e-90
-5.38658e-87
-2.12827e-84
-2.50025e-81
-2.92543e-79
-1.32954e-75
-1.491e-72
-3.69816e-70
-4.59684e-69
-1.88028e-68
-4.09743e-68
-5.6623e-68
-5.39425e-68
-3.75043e-68
-2.74786e-68
-8.42381e-67
-8.92991e-66
-3.23513e-65
-6.22394e-65
-5.31471e-64
-1.17733e-62
-3.10368e-62
-3.63905e-62
-2.4634e-62
-1.07673e-62
-3.23052e-63
-6.91107e-64
-1.08121e-64
-1.19265e-65
-1.0627e-66
-7.16315e-68
-3.65775e-69
-1.41734e-70
-4.16648e-72
-9.25981e-74
-1.54813e-75
-1.93205e-77
-1.78279e-79
-1.2022e-81
-5.84112e-84
-2.01203e-86
-4.81924e-89
-7.84055e-92
-8.41664e-95
-5.73988e-98
-2.35759e-101
-5.36846e-105
-5.83069e-109
-2.07485e-113
-2.05348e-166
-1.5165e-159
-2.42434e-153
-1.32787e-143
-3.98419e-136
-7.39844e-125
-1.94553e-117
-4.51741e-105
-4.32915e-99
-1.5631e-95
-1.94146e-92
-3.61092e-89
-8.96053e-86
-3.19387e-83
-3.42872e-80
-3.71469e-78
-1.45998e-74
-1.55226e-71
-3.67663e-69
-4.39146e-68
-1.74001e-67
-3.68826e-67
-4.97395e-67
-4.63783e-67
-3.16066e-67
-2.14586e-67
-5.59204e-66
-5.85354e-65
-2.09876e-64
-4.00431e-64
-3.55772e-63
-8.09486e-62
-2.14434e-61
-2.52644e-61
-1.72074e-61
-7.5799e-62
-2.29588e-62
-4.96697e-63
-7.87173e-64
-8.81844e-65
-7.98539e-66
-5.47879e-67
-2.85245e-68
-1.12884e-69
-3.39465e-71
-7.72969e-73
-1.32589e-74
-1.69975e-76
-1.61265e-78
-1.11876e-80
-5.5927e-83
-1.98106e-85
-4.87329e-88
-8.12459e-91
-8.90733e-94
-6.17465e-97
-2.56123e-100
-5.8353e-104
-6.24189e-108
-2.09777e-112
-1.59374e-164
-4.41838e-158
-3.94358e-152
-3.27814e-142
-2.29082e-134
-2.12268e-123
-7.34022e-116
-1.07295e-103
-1.09863e-97
-3.48784e-94
-3.92536e-91
-6.52427e-88
-1.46862e-84
-4.72218e-82
-4.63161e-79
-4.64567e-77
-1.57943e-73
-1.59187e-70
-3.60025e-68
-4.13246e-67
-1.58639e-66
-3.27153e-66
-4.30645e-66
-3.93096e-66
-2.62701e-66
-1.6675e-66
-3.65423e-65
-3.77576e-64
-1.34011e-63
-2.53638e-63
-2.34597e-62
-5.4871e-61
-1.46115e-60
-1.73046e-60
-1.18621e-60
-5.26756e-61
-1.61117e-61
-3.52595e-62
-5.66222e-63
-6.44391e-64
-5.93171e-65
-4.14368e-66
-2.20026e-67
-8.89587e-69
-2.73763e-70
-6.38934e-72
-1.12501e-73
-1.48233e-75
-1.44698e-77
-1.03355e-79
-5.32094e-82
-1.94034e-84
-4.90805e-87
-8.39569e-90
-9.41202e-93
-6.63799e-96
-2.78101e-99
-6.33076e-103
-6.64385e-107
-2.11139e-111
-8.04765e-163
-9.99954e-157
-5.50549e-151
-1.22068e-140
-1.30996e-132
-6.68532e-122
-2.74662e-114
-2.38555e-102
-2.74941e-96
-7.67405e-93
-7.82008e-90
-1.16118e-86
-2.3711e-83
-6.8771e-81
-6.1614e-78
-5.72089e-76
-1.68295e-72
-1.60771e-69
-3.47164e-67
-3.82963e-66
-1.42462e-65
-2.85887e-65
-3.674e-65
-3.28379e-65
-2.15284e-65
-1.28803e-65
-2.35028e-64
-2.39596e-63
-8.41981e-63
-1.58125e-62
-1.52336e-61
-3.66596e-60
-9.81688e-60
-1.16907e-59
-8.06801e-60
-3.61282e-60
-1.11621e-60
-2.47168e-61
-4.02304e-62
-4.65236e-63
-4.35454e-64
-3.09801e-65
-1.6782e-66
-6.93406e-68
-2.18444e-69
-5.22756e-71
-9.45229e-73
-1.28073e-74
-1.28709e-76
-9.47243e-79
-5.02657e-81
-1.88896e-83
-4.91901e-86
-8.64498e-89
-9.92333e-92
-7.12895e-95
-3.01893e-98
-6.86569e-102
-7.05926e-106
-2.12352e-110
-1.79987e-161
-1.58345e-155
-6.4142e-150
-7.23351e-139
-7.41842e-131
-2.3919e-120
-1.01839e-112
-4.94954e-101
-6.7845e-95
-1.6646e-91
-1.53469e-88
-2.03518e-85
-3.76988e-82
-9.86208e-80
-8.06921e-77
-6.93462e-75
-1.76575e-71
-1.59857e-68
-3.29551e-66
-3.49401e-65
-1.25976e-64
-2.46054e-64
-3.08775e-64
-2.7029e-64
-1.73898e-64
-9.87828e-65
-1.48757e-63
-1.49523e-62
-5.20368e-62
-9.69961e-62
-9.73825e-61
-2.41339e-59
-6.50157e-59
-7.78811e-59
-5.41284e-59
-2.44492e-59
-7.63237e-60
-1.71054e-60
-2.82267e-61
-3.31778e-62
-3.15838e-63
-2.289e-64
-1.2653e-65
-5.34419e-67
-1.72398e-68
-4.23166e-70
-7.86057e-72
-1.09573e-73
-1.13428e-75
-8.60695e-78
-4.71155e-80
-1.82642e-82
-4.90213e-85
-8.86319e-88
-1.04324e-90
-7.64561e-94
-3.27694e-97
-7.45165e-101
-7.50876e-105
-2.13717e-109
-2.55486e-160
-1.41588e-154
-5.99843e-149
-5.23027e-137
-4.15486e-129
-9.49583e-119
-3.74007e-111
-9.54804e-100
-1.65047e-93
-3.559e-90
-2.96627e-87
-3.51192e-84
-5.90127e-81
-1.39229e-78
-1.0401e-75
-8.27198e-74
-1.82374e-70
-1.56445e-67
-3.07877e-65
-3.13754e-64
-1.09661e-63
-2.08514e-63
-2.55568e-63
-2.19147e-63
-1.38413e-63
-7.51314e-64
-9.26462e-63
-9.17378e-62
-3.16244e-61
-5.85238e-61
-6.1265e-60
-1.56507e-58
-4.24334e-58
-5.11474e-58
-3.58114e-58
-1.63212e-58
-5.14948e-59
-1.16839e-59
-1.95519e-60
-2.33644e-61
-2.26267e-62
-1.67088e-63
-9.42719e-65
-4.07121e-66
-1.34519e-67
-3.38776e-69
-6.4671e-71
-9.27825e-73
-9.89828e-75
-7.74864e-77
-4.37893e-79
-1.75262e-81
-4.85388e-84
-9.04056e-87
-1.09286e-89
-8.18449e-93
-3.55671e-96
-8.10092e-100
-8.01396e-104
-2.16106e-108
-7.33162e-160
-4.1457e-154
-4.2595e-148
-3.97507e-135
-2.30127e-127
-3.98084e-117
-1.3605e-109
-1.70512e-98
-3.95767e-92
-7.49873e-89
-5.64513e-86
-5.96488e-83
-9.0923e-80
-1.93441e-77
-1.31905e-74
-9.70679e-73
-1.85369e-69
-1.50647e-66
-2.82981e-64
-2.77214e-63
-9.39431e-63
-1.73931e-62
-2.08257e-62
-1.74971e-62
-1.08522e-62
-5.66025e-63
-5.67726e-62
-5.53158e-61
-1.88924e-60
-3.47205e-60
-3.79181e-59
-9.99494e-58
-2.72845e-57
-3.31048e-57
-2.33581e-57
-1.07446e-57
-3.42723e-58
-7.87463e-59
-1.33666e-59
-1.62432e-60
-1.60062e-61
-1.20462e-62
-6.93859e-64
-3.06453e-65
-1.03738e-66
-2.68122e-68
-5.26154e-70
-7.77195e-72
-8.54853e-74
-6.90762e-76
-4.0327e-78
-1.66791e-80
-4.77151e-83
-9.16721e-86
-1.13992e-88
-8.74008e-92
-3.85926e-95
-8.82562e-99
-8.59674e-103
-2.20393e-107
-5.62721e-159
-2.87918e-153
-2.08913e-147
-3.05629e-133
-1.26036e-125
-1.69795e-115
-4.90135e-108
-2.80348e-97
-9.35267e-91
-1.55666e-87
-1.05756e-84
-9.96929e-82
-1.37849e-78
-2.6443e-76
-1.64537e-73
-1.12018e-71
-1.85362e-68
-1.4269e-65
-2.55815e-63
-2.40914e-62
-7.91734e-62
-1.42762e-61
-1.67024e-61
-1.37524e-61
-8.37862e-62
-4.21921e-62
-3.42302e-61
-3.27684e-60
-1.10903e-59
-2.0247e-59
-2.30796e-58
-6.28381e-57
-1.72786e-56
-2.11107e-56
-1.50156e-56
-6.97353e-57
-2.24943e-57
-5.23531e-58
-9.01638e-59
-1.11448e-59
-1.11772e-60
-8.57483e-62
-5.04336e-63
-2.27852e-64
-7.9038e-66
-2.09698e-67
-4.23132e-69
-6.4371e-71
-7.30276e-73
-6.09405e-75
-3.67761e-77
-1.57306e-79
-4.65319e-82
-9.23351e-85
-1.18297e-87
-9.30445e-91
-4.18467e-94
-9.63716e-98
-9.279e-102
-2.27348e-106
-2.04497e-158
-5.60771e-153
-5.91508e-147
-2.35346e-131
-6.82659e-124
-7.24054e-114
-1.74867e-106
-4.21497e-96
-2.17781e-89
-3.18303e-86
-1.94978e-83
-1.63907e-80
-2.05586e-77
-3.55526e-75
-2.01803e-72
-1.27084e-70
-1.82293e-67
-1.32896e-64
-2.27368e-62
-2.05864e-61
-6.56218e-61
-1.15265e-60
-1.31795e-60
-1.06372e-60
-6.36775e-61
-3.10841e-61
-2.03083e-60
-1.90634e-59
-6.39483e-59
-1.16008e-58
-1.381e-57
-3.88793e-56
-1.07732e-55
-1.32594e-55
-9.51055e-56
-4.46077e-56
-1.45554e-56
-3.43236e-57
-5.99915e-58
-7.5444e-59
-7.70237e-60
-6.02468e-61
-3.61897e-62
-1.67278e-63
-5.94724e-65
-1.62005e-66
-3.36211e-68
-5.26919e-70
-6.1677e-72
-5.31755e-74
-3.31898e-76
-1.46927e-78
-4.49826e-81
-9.2307e-84
-1.2204e-86
-9.86704e-90
-4.5318e-93
-1.05454e-96
-1.00825e-100
-2.37644e-105
-1.45582e-165
-8.46866e-156
-4.42317e-146
-1.80497e-129
-3.65692e-122
-3.06729e-112
-6.17669e-105
-5.75047e-95
-4.99572e-88
-6.40948e-85
-3.53667e-82
-2.6502e-79
-3.01519e-76
-4.69998e-74
-2.43282e-71
-1.4169e-69
-1.76253e-66
-1.21663e-63
-1.98616e-61
-1.72908e-60
-5.34706e-60
-9.151e-60
-1.02283e-59
-8.09381e-60
-4.76209e-60
-2.26107e-60
-1.18579e-59
-1.08873e-58
-3.62046e-58
-6.52819e-58
-8.12017e-57
-2.36653e-55
-6.61117e-55
-8.19996e-55
-5.93316e-55
-2.81141e-55
-9.28236e-56
-2.21843e-56
-3.93603e-57
-5.03723e-58
-5.23629e-59
-4.17672e-60
-2.56283e-61
-1.2122e-62
-4.41791e-64
-1.23585e-65
-2.6384e-67
-4.26082e-69
-5.14735e-71
-4.58676e-73
-2.96244e-75
-1.35817e-77
-4.30741e-80
-9.15146e-83
-1.25054e-85
-1.04145e-88
-4.89794e-92
-1.1558e-95
-1.10287e-99
-2.51916e-104
-5.29784e-163
-1.43697e-153
-4.64105e-144
-1.37176e-127
-1.93771e-120
-1.28814e-110
-2.15964e-103
-7.08249e-94
-1.12866e-86
-1.27062e-83
-6.30941e-81
-4.21266e-78
-4.34728e-75
-6.10701e-73
-2.88166e-70
-1.55188e-68
-1.67479e-65
-1.09439e-62
-1.70455e-60
-1.42691e-59
-4.28167e-59
-7.14112e-59
-7.80416e-59
-6.05614e-59
-3.50298e-59
-1.62236e-59
-6.81625e-59
-6.1014e-58
-2.0117e-57
-3.60658e-57
-4.68993e-56
-1.41658e-54
-3.99163e-54
-4.99129e-54
-3.64449e-54
-1.74522e-54
-5.83225e-55
-1.41306e-55
-2.54564e-56
-3.31615e-57
-3.51067e-58
-2.85617e-59
-1.79052e-60
-8.66761e-62
-3.23878e-63
-9.30545e-65
-2.04399e-66
-3.40207e-68
-4.24284e-70
-3.90892e-72
-2.61362e-74
-1.24168e-76
-4.0827e-79
-8.99054e-82
-1.2717e-84
-1.0931e-87
-5.27852e-91
-1.2679e-94
-1.21388e-98
-2.70841e-103
-1.79463e-160
-2.25146e-151
-4.81124e-142
-1.02718e-125
-1.0157e-118
-5.35722e-109
-7.47321e-102
-7.96411e-93
-2.51072e-85
-2.47918e-82
-1.1067e-79
-6.58092e-77
-6.15959e-74
-7.79682e-72
-3.35244e-69
-1.66911e-67
-1.56341e-64
-9.66887e-62
-1.43662e-59
-1.15653e-58
-3.36798e-58
-5.47539e-58
-5.85187e-58
-4.4543e-58
-2.53356e-58
-1.14723e-58
-3.85912e-58
-3.35391e-57
-1.09656e-56
-1.95525e-56
-2.65954e-55
-8.33557e-54
-2.37028e-53
-2.98931e-53
-2.20345e-53
-1.06669e-53
-3.60916e-54
-8.86721e-55
-1.6224e-55
-2.15181e-56
-2.32047e-57
-1.9259e-58
-1.2337e-59
-6.11314e-61
-2.34232e-62
-6.91307e-64
-1.5626e-65
-2.68102e-67
-3.45249e-69
-3.28954e-71
-2.27789e-73
-1.12201e-75
-3.8276e-78
-8.74527e-81
-1.28226e-83
-1.13982e-86
-5.66684e-90
-1.39078e-93
-1.34324e-97
-2.95169e-102
-5.62679e-158
-3.22613e-149
-4.9275e-140
-7.53412e-124
-5.2675e-117
-2.20487e-107
-2.55852e-100
-8.7948e-92
-5.49757e-84
-4.75938e-81
-1.90791e-78
-1.00995e-75
-8.57327e-73
-9.77667e-71
-3.82898e-68
-1.7621e-66
-1.43316e-63
-8.38667e-61
-1.18857e-58
-9.20247e-58
-2.60136e-57
-4.12317e-57
-4.31048e-57
-3.21901e-57
-1.8009e-57
-7.98844e-58
-2.15336e-57
-1.80758e-56
-5.86099e-56
-1.03971e-55
-1.48009e-54
-4.81967e-53
-1.38374e-52
-1.76084e-52
-1.31076e-52
-6.41691e-53
-2.19895e-53
-5.47993e-54
-1.01857e-54
-1.37579e-55
-1.51158e-56
-1.28006e-57
-8.38028e-59
-4.25117e-60
-1.6705e-61
-5.0652e-63
-1.17833e-64
-2.08437e-66
-2.77208e-68
-2.73223e-70
-1.96007e-72
-1.00146e-74
-3.54689e-77
-8.41611e-80
-1.28083e-82
-1.17963e-85
-6.05392e-89
-1.52374e-92
-1.49265e-96
-3.25726e-101
-1.61981e-155
-4.17654e-147
-4.98482e-138
-5.38553e-122
-2.70289e-115
-8.97363e-106
-8.66277e-99
-1.17332e-90
-1.18455e-82
-8.98663e-80
-3.23154e-77
-1.52204e-74
-1.17173e-71
-1.20358e-69
-4.29164e-67
-1.82521e-65
-1.28955e-62
-7.13871e-60
-9.64854e-58
-7.18542e-57
-1.97202e-56
-3.04805e-56
-3.11764e-56
-2.2847e-56
-1.25753e-56
-5.47316e-57
-1.18522e-56
-9.54712e-56
-3.07018e-55
-5.42018e-55
-8.07987e-54
-2.73716e-52
-7.93844e-52
-1.01973e-51
-7.66887e-52
-3.79799e-52
-1.31856e-52
-3.33397e-53
-6.297e-54
-8.66402e-55
-9.70057e-56
-8.38343e-57
-5.61005e-58
-2.91388e-59
-1.17441e-60
-3.65885e-62
-8.76105e-64
-1.59799e-65
-2.1952e-67
-2.23865e-69
-1.66426e-71
-8.82397e-74
-3.2465e-76
-8.00688e-79
-1.26635e-81
-1.21046e-84
-6.42848e-88
-1.66528e-91
-1.66328e-95
-3.634e-100
-4.23029e-153
-4.81049e-145
-4.98058e-136
-3.74002e-120
-1.37247e-113
-3.60919e-104
-2.89961e-97
-2.29622e-89
-2.51074e-81
-1.66834e-78
-5.37534e-76
-2.2515e-73
-1.57185e-70
-1.45405e-68
-4.71822e-66
-1.85405e-64
-1.13842e-61
-5.96021e-59
-7.68155e-57
-5.50293e-56
-1.46656e-55
-2.21098e-55
-2.21307e-55
-1.59185e-55
-8.62216e-56
-3.68683e-56
-6.44176e-56
-4.93952e-55
-1.57539e-54
-2.76874e-54
-4.3245e-53
-1.52611e-51
-4.47357e-51
-5.80342e-51
-4.4111e-51
-2.21078e-51
-7.77837e-52
-1.9961e-52
-3.83198e-53
-5.3721e-54
-6.13078e-55
-5.40806e-56
-3.69975e-57
-1.96783e-58
-8.13573e-60
-2.60459e-61
-6.42005e-63
-1.20757e-64
-1.71371e-66
-1.80851e-68
-1.39362e-70
-7.67043e-73
-2.93315e-75
-7.52485e-78
-1.23815e-80
-1.23032e-83
-6.77716e-87
-1.81301e-90
-1.85555e-94
-4.09101e-99
-9.82302e-151
-4.83016e-143
-4.91401e-134
-2.52278e-118
-6.89722e-112
-1.43354e-102
-9.59049e-96
-5.82798e-88
-5.23311e-80
-3.04398e-77
-8.77739e-75
-3.26774e-72
-2.06868e-69
-1.72309e-67
-5.08557e-65
-1.84608e-63
-9.85543e-61
-4.87865e-58
-5.9947e-56
-4.13158e-55
-1.06944e-54
-1.57292e-54
-1.54105e-54
-1.08824e-54
-5.80182e-55
-2.44002e-55
-3.46162e-55
-2.5023e-54
-7.91421e-54
-1.38512e-53
-2.26807e-52
-8.34972e-51
-2.47522e-50
-3.24436e-50
-2.49337e-50
-1.2651e-50
-4.51241e-51
-1.1756e-51
-2.29449e-52
-3.27836e-53
-3.81433e-54
-3.43499e-55
-2.40275e-56
-1.30886e-57
-5.55144e-59
-1.82645e-60
-4.63479e-62
-8.99087e-64
-1.31824e-65
-1.43984e-67
-1.15029e-69
-6.57427e-72
-2.6141e-74
-6.98056e-77
-1.19615e-79
-1.23739e-82
-7.085e-86
-1.96347e-89
-2.06879e-93
-4.63687e-98
-1.96222e-148
-4.11188e-141
-4.78683e-132
-1.65902e-116
-3.43082e-110
-5.61946e-101
-3.13293e-94
-1.58304e-86
-1.07215e-78
-5.45613e-76
-1.40632e-73
-4.65091e-71
-2.66972e-68
-2.00193e-66
-5.37134e-64
-1.80083e-62
-8.36247e-60
-3.91296e-57
-4.58341e-55
-3.03944e-54
-7.64271e-54
-1.09688e-53
-1.05213e-53
-7.29578e-54
-3.82947e-54
-1.58544e-54
-1.84179e-54
-1.24063e-53
-3.89027e-53
-6.78234e-53
-1.165e-51
-4.48064e-50
-1.34403e-49
-1.78082e-49
-1.38438e-49
-7.11374e-50
-2.5732e-50
-6.80799e-51
-1.35128e-51
-1.96827e-52
-2.33525e-53
-2.14735e-54
-1.53605e-55
-8.57058e-57
-3.7297e-58
-1.26117e-59
-3.29496e-61
-6.59248e-63
-9.98725e-65
-1.12914e-66
-9.35381e-69
-5.55261e-71
-2.29666e-73
-6.3874e-76
-1.14083e-78
-1.23023e-81
-7.33612e-85
-2.11217e-88
-2.30092e-92
-5.27871e-97
-3.19361e-146
-2.84983e-139
-4.60285e-130
-1.07179e-114
-1.68932e-108
-2.17262e-99
-1.01028e-92
-4.28974e-85
-2.15829e-77
-9.60322e-75
-2.20982e-72
-6.48816e-70
-3.37683e-67
-2.2792e-65
-5.55614e-63
-1.7201e-61
-6.95093e-59
-3.07355e-56
-3.4314e-54
-2.18972e-53
-5.34987e-53
-7.49401e-53
-7.03909e-53
-4.79413e-53
-2.478e-53
-1.0107e-53
-9.71694e-54
-6.01743e-53
-1.87002e-52
-3.24866e-52
-5.85732e-51
-2.35703e-49
-7.15852e-49
-9.59289e-49
-7.54673e-49
-3.92893e-49
-1.44176e-49
-3.87497e-50
-7.82376e-51
-1.1621e-51
-1.40631e-52
-1.32067e-53
-9.66236e-55
-5.52288e-56
-2.46617e-57
-8.57141e-59
-2.30576e-60
-4.75843e-62
-7.44893e-64
-8.71795e-66
-7.48955e-68
-4.61873e-70
-1.98786e-72
-5.7609e-75
-1.0733e-77
-1.20792e-80
-7.5148e-84
-2.25361e-87
-2.54808e-91
-6.02078e-96
-3.86382e-144
-1.508e-137
-4.36802e-128
-6.87205e-113
-8.23476e-107
-8.27965e-98
-3.21424e-91
-1.14484e-83
-4.26698e-76
-1.65893e-73
-3.40374e-71
-8.8667e-69
-4.18394e-66
-2.54142e-64
-5.62552e-62
-1.60784e-60
-5.65652e-58
-2.36294e-55
-2.51397e-53
-1.54402e-52
-3.66601e-52
-5.01323e-52
-4.61223e-52
-3.08597e-52
-1.57109e-52
-6.31695e-53
-5.09041e-53
-2.85412e-52
-8.785e-52
-1.52122e-51
-2.88078e-50
-1.21482e-48
-3.73796e-48
-5.06878e-48
-4.03722e-48
-2.13035e-48
-7.93364e-49
-2.16678e-49
-4.45151e-50
-6.74449e-51
-8.32678e-52
-7.98769e-53
-5.9781e-54
-3.50088e-55
-1.60425e-56
-5.73143e-58
-1.58757e-59
-3.37952e-61
-5.46685e-63
-6.62374e-65
-5.90183e-67
-3.78164e-69
-1.69403e-71
-5.11782e-74
-9.95263e-77
-1.17016e-79
-7.60659e-83
-2.38149e-86
-2.80445e-90
-6.86287e-95
-2.90943e-142
-5.41698e-136
-4.08999e-126
-4.41372e-111
-3.97402e-105
-3.10814e-96
-1.00834e-89
-3.00482e-82
-8.28084e-75
-2.81123e-72
-5.13626e-70
-1.18634e-67
-5.07513e-65
-2.77387e-63
-5.57171e-61
-1.46987e-59
-4.50393e-57
-1.77695e-54
-1.80132e-52
-1.06494e-51
-2.45775e-51
-3.2818e-51
-2.95797e-51
-1.94471e-51
-9.75397e-52
-3.86812e-52
-2.65095e-52
-1.32336e-51
-4.03074e-51
-6.9591e-51
-1.38512e-49
-6.13102e-48
-1.91253e-47
-2.62577e-47
-2.11842e-47
-1.13348e-47
-4.28551e-48
-1.18976e-48
-2.48784e-49
-3.84598e-50
-4.84541e-51
-4.74887e-52
-3.63628e-53
-2.18202e-54
-1.0262e-55
-3.76892e-57
-1.07502e-58
-2.36063e-60
-3.94617e-62
-4.95e-64
-4.57466e-66
-3.04601e-68
-1.42049e-70
-4.47521e-73
-9.08929e-76
-1.1174e-78
-7.59974e-82
-2.48903e-85
-3.06206e-89
-7.79842e-94
-8.38612e-141
-9.90995e-135
-3.77777e-124
-2.85209e-109
-1.89862e-103
-1.14863e-94
-3.1172e-88
-7.75347e-81
-1.57668e-73
-4.67069e-71
-7.58888e-69
-1.55311e-66
-6.02328e-64
-2.96177e-62
-5.3948e-60
-1.31336e-58
-3.50664e-56
-1.30625e-53
-1.26148e-51
-7.18005e-51
-1.61102e-50
-2.10099e-50
-1.85562e-50
-1.19902e-50
-5.92602e-51
-2.31895e-51
-1.37333e-51
-5.99659e-51
-1.80503e-50
-3.10808e-50
-6.50639e-49
-3.02811e-47
-9.58294e-47
-1.33283e-46
-1.08973e-46
-5.91492e-47
-2.27128e-47
-6.41197e-48
-1.36508e-48
-2.15387e-49
-2.76978e-50
-2.774e-51
-2.17356e-52
-1.33665e-53
-6.45228e-55
-2.43626e-56
-7.15605e-58
-1.621e-59
-2.80032e-61
-3.63671e-63
-3.48619e-65
-2.41234e-67
-1.17134e-69
-3.84934e-72
-8.16898e-75
-1.05084e-77
-7.4864e-81
-2.56943e-84
-3.31094e-88
-8.81282e-93
-8.73045e-150
-2.56299e-144
-3.44126e-122
-1.85042e-107
-8.97904e-102
-4.17609e-93
-9.49009e-87
-1.96612e-79
-2.9436e-72
-7.60375e-70
-1.09719e-67
-1.98821e-65
-6.98983e-63
-3.09175e-61
-5.10309e-59
-1.14623e-57
-2.66781e-55
-9.3802e-53
-8.62851e-51
-4.72905e-50
-1.0318e-49
-1.31451e-49
-1.13793e-49
-7.22809e-50
-3.52094e-50
-1.36008e-50
-7.07782e-51
-2.65512e-50
-7.88385e-50
-1.35424e-49
-2.98382e-48
-1.46272e-46
-4.69954e-46
-6.62543e-46
-5.49255e-46
-3.02571e-46
-1.18048e-46
-3.39e-47
-7.35032e-48
-1.18407e-48
-1.55459e-49
-1.59137e-50
-1.27617e-51
-8.04373e-53
-3.98583e-54
-1.54733e-55
-4.68062e-57
-1.09376e-58
-1.95266e-60
-2.62544e-62
-2.61061e-64
-1.87743e-66
-9.49277e-69
-3.25477e-71
-7.21987e-74
-9.72427e-77
-7.26372e-80
-2.61639e-83
-3.53943e-87
-9.88185e-92
-2.30359e-149
-2.12922e-143
-3.09061e-120
-1.19792e-105
-4.2026e-100
-1.4928e-91
-2.84335e-85
-4.89755e-78
-5.38547e-71
-1.21217e-68
-1.55124e-66
-2.48709e-64
-7.92601e-62
-3.15325e-60
-4.71257e-58
-9.764e-57
-1.98187e-54
-6.57541e-52
-5.7603e-50
-3.0406e-49
-6.45244e-49
-8.03222e-49
-6.8166e-49
-4.25735e-49
-2.04439e-49
-7.79819e-50
-3.62664e-50
-1.1487e-49
-3.35609e-49
-5.75214e-49
-1.33496e-47
-6.90586e-46
-2.2543e-45
-3.22348e-45
-2.71101e-45
-1.5164e-45
-6.0137e-46
-1.75736e-46
-3.88194e-47
-6.38664e-48
-8.56309e-49
-8.96129e-50
-7.35625e-51
-4.75305e-52
-2.41794e-53
-9.65157e-55
-3.0068e-56
-7.24841e-58
-1.33729e-59
-1.86154e-61
-1.92002e-63
-1.43508e-65
-7.55647e-68
-2.70357e-70
-6.27049e-73
-8.84718e-76
-6.93463e-79
-2.62478e-82
-3.73485e-86
-1.0971e-90
-1.65982e-150
-9.86125e-142
-2.73593e-118
-7.68898e-104
-1.94615e-98
-5.24303e-90
-8.37786e-84
-1.19787e-76
-9.64938e-70
-1.89104e-67
-2.14323e-65
-3.03796e-63
-8.77586e-61
-3.1399e-59
-4.24549e-57
-8.11219e-56
-1.43656e-53
-4.49606e-51
-3.75044e-49
-1.90707e-48
-3.93699e-48
-4.78982e-48
-3.98595e-48
-2.44827e-48
-1.15921e-48
-4.36759e-49
-1.84505e-49
-4.85679e-49
-1.39139e-48
-2.37985e-48
-5.82238e-47
-3.18458e-45
-1.05705e-44
-1.53407e-44
-1.30961e-44
-7.44168e-45
-3.00112e-45
-8.92794e-46
-2.00986e-46
-3.3782e-47
-4.62674e-48
-4.95099e-49
-4.16108e-50
-2.75646e-51
-1.43975e-52
-5.90959e-54
-1.89614e-55
-4.71555e-57
-8.99065e-59
-1.2957e-60
-1.38619e-62
-1.07681e-64
-5.90487e-67
-2.20478e-69
-5.34784e-72
-7.90731e-75
-6.50802e-78
-2.59117e-81
-3.88437e-85
-1.20357e-89
-2.03064e-151
-1.27471e-139
-2.38659e-116
-4.87227e-102
-8.91319e-97
-1.80806e-88
-2.42583e-82
-2.87543e-75
-1.69206e-68
-2.8849e-66
-2.89158e-64
-3.62077e-62
-9.48075e-60
-3.05043e-58
-3.72826e-56
-6.56843e-55
-1.01522e-52
-2.99637e-50
-2.37962e-48
-1.1659e-47
-2.342e-47
-2.78539e-47
-2.27341e-47
-1.37357e-47
-6.4138e-48
-2.38759e-48
-9.30171e-49
-2.00772e-48
-5.61382e-48
-9.58275e-48
-2.47356e-46
-1.43338e-44
-4.84199e-44
-7.13684e-44
-6.18796e-44
-3.57394e-44
-1.46637e-44
-4.44259e-45
-1.01961e-45
-1.75142e-46
-2.45089e-47
-2.68233e-48
-2.30854e-49
-1.56812e-50
-8.41056e-52
-3.55017e-53
-1.17324e-54
-3.01009e-56
-5.93076e-58
-8.8486e-60
-9.81901e-62
-7.92708e-64
-4.52707e-66
-1.76414e-68
-4.4757e-71
-6.93726e-74
-5.99841e-77
-2.51436e-80
-3.97622e-84
-1.30229e-88
-5.74766e-150
-1.6578e-137
-2.05095e-114
-3.04173e-100
-4.03551e-95
-6.11796e-87
-6.89688e-81
-6.77054e-74
-2.90181e-67
-4.30062e-65
-3.80668e-63
-4.20727e-61
-9.98548e-59
-2.8891e-57
-3.18889e-55
-5.17898e-54
-6.98919e-52
-1.94471e-49
-1.47014e-47
-6.94216e-47
-1.35719e-46
-1.57828e-46
-1.26373e-46
-7.5121e-47
-3.45997e-47
-1.27286e-47
-4.63583e-48
-8.12069e-48
-2.20256e-47
-3.75205e-47
-1.02276e-45
-6.29252e-44
-2.16521e-43
-3.2436e-43
-2.85812e-43
-1.67875e-43
-7.01095e-44
-2.1641e-44
-5.06543e-45
-8.89533e-46
-1.27217e-46
-1.4243e-47
-1.25551e-48
-8.74638e-50
-4.8177e-51
-2.09148e-52
-7.11929e-54
-1.88437e-55
-3.83675e-57
-5.92603e-59
-6.82039e-61
-5.72226e-63
-3.40322e-65
-1.38412e-67
-3.67329e-70
-5.9697e-73
-5.42503e-76
-2.39569e-79
-4.00085e-83
-1.38745e-87
-3.87285e-150
-2.15873e-135
-1.73583e-112
-1.86883e-98
-1.80519e-93
-2.02977e-85
-1.92377e-79
-1.56287e-72
-4.8633e-66
-6.25979e-64
-4.88588e-62
-4.76219e-60
-1.02447e-57
-2.66545e-56
-2.65431e-54
-3.97293e-53
-4.68317e-51
-1.22809e-48
-8.83611e-47
-4.0225e-46
-7.65532e-46
-8.70665e-46
-6.84061e-46
-4.00153e-46
-1.81829e-46
-6.61177e-47
-2.27794e-47
-3.21743e-47
-8.39714e-47
-1.4272e-46
-4.11226e-45
-2.69226e-43
-9.44536e-43
-1.4392e-42
-1.28963e-42
-7.70774e-43
-3.27815e-43
-1.03141e-43
-2.46308e-44
-4.42344e-45
-6.46697e-46
-7.40828e-47
-6.68988e-48
-4.78045e-49
-2.70459e-50
-1.20766e-51
-4.23442e-53
-1.15629e-54
-2.4329e-56
-3.88995e-58
-4.64319e-60
-4.04819e-62
-2.50714e-64
-1.0642e-66
-2.95443e-69
-5.03501e-72
-4.81037e-75
-2.23907e-78
-3.95215e-82
-1.45317e-86
-2.45752e-148
-2.80085e-133
-1.44653e-110
-1.1291e-96
-7.97314e-92
-6.59769e-84
-5.26042e-78
-3.53485e-71
-7.95908e-65
-8.88933e-63
-6.10871e-61
-5.246e-59
-1.02292e-56
-2.39339e-55
-2.14807e-53
-2.96255e-52
-3.05142e-50
-7.53913e-48
-5.16199e-46
-2.26609e-45
-4.19917e-45
-4.67194e-45
-3.60258e-45
-2.07421e-45
-9.30011e-46
-3.34326e-46
-1.10052e-46
-1.25058e-46
-3.10849e-46
-5.26891e-46
-1.60637e-44
-1.12175e-42
-4.01664e-42
-6.22995e-42
-5.68093e-42
-3.45695e-42
-1.49808e-42
-4.80662e-43
-1.17158e-43
-2.1525e-44
-3.21769e-45
-3.7724e-46
-3.49052e-47
-2.55894e-48
-1.48722e-49
-6.83103e-51
-2.46734e-52
-6.95108e-54
-1.51134e-55
-2.5014e-57
-3.09638e-59
-2.80512e-61
-1.80898e-63
-8.01328e-66
-2.32718e-68
-4.15927e-71
-4.17838e-74
-2.0508e-77
-3.82836e-81
-1.49407e-85
-1.34018e-146
-3.60485e-131
-1.18652e-108
-6.70252e-95
-3.4745e-90
-2.09949e-82
-1.4089e-76
-7.82863e-70
-1.27087e-63
-1.2305e-61
-7.43305e-60
-5.61884e-58
-9.93079e-56
-2.08977e-54
-1.68855e-52
-2.14532e-51
-1.9315e-49
-4.49477e-47
-2.92826e-45
-1.24001e-44
-2.23786e-44
-2.43621e-44
-1.84416e-44
-1.04526e-44
-4.62521e-45
-1.64402e-45
-5.21314e-46
-4.77766e-46
-1.11656e-45
-1.88596e-45
-6.09057e-44
-4.54776e-42
-1.6638e-41
-2.62912e-41
-2.44142e-41
-1.51357e-41
-6.6869e-42
-2.18898e-42
-5.44809e-43
-1.02437e-43
-1.5661e-44
-1.87952e-45
-1.78232e-46
-1.34077e-47
-8.00595e-49
-3.78303e-50
-1.40767e-51
-4.09152e-53
-9.19262e-55
-1.57486e-56
-2.02154e-58
-1.9028e-60
-1.27761e-62
-5.90576e-65
-1.79408e-67
-3.36274e-70
-3.55259e-73
-1.83907e-76
-3.63262e-80
-1.50593e-84
-6.11148e-145
-4.58523e-129
-9.57636e-107
-3.90593e-93
-1.49258e-88
-6.53535e-81
-3.69268e-75
-1.69655e-68
-1.97818e-62
-1.65887e-60
-8.79386e-59
-5.84548e-57
-9.36458e-55
-1.77261e-53
-1.28797e-51
-1.50712e-50
-1.1865e-48
-2.59982e-46
-1.61138e-44
-6.58424e-44
-1.15754e-43
-1.23329e-43
-9.16662e-44
-5.11571e-44
-2.23432e-44
-7.85359e-45
-2.41486e-45
-1.79778e-45
-3.88926e-45
-6.5383e-45
-2.23914e-43
-1.79246e-41
-6.70794e-41
-1.08086e-40
-1.02288e-40
-6.46477e-41
-2.91345e-41
-9.73542e-42
-2.47525e-42
-4.76468e-43
-7.45182e-44
-9.15672e-45
-8.90101e-46
-6.87214e-47
-4.21663e-48
-2.05001e-49
-7.85892e-51
-2.35677e-52
-5.47159e-54
-9.70232e-56
-1.29138e-57
-1.26281e-59
-8.82714e-62
-4.25745e-64
-1.35277e-66
-2.65904e-69
-2.95429e-72
-1.6133e-75
-3.37296e-79
-1.48619e-83
-2.20041e-143
-5.74609e-127
-7.60194e-105
-2.23255e-91
-6.3148e-87
-1.98841e-79
-9.46284e-74
-3.59509e-67
-2.99886e-61
-2.17594e-59
-1.01052e-57
-5.90038e-56
-8.5682e-54
-1.45922e-52
-9.52255e-51
-1.02603e-49
-7.06577e-48
-1.45732e-45
-8.59236e-44
-3.38887e-43
-5.80516e-43
-6.05463e-43
-4.41959e-43
-2.42895e-43
-1.04725e-43
-3.64054e-44
-1.09113e-44
-6.677e-45
-1.31307e-44
-2.19298e-44
-7.97372e-43
-6.86207e-41
-2.63002e-40
-4.3253e-40
-4.17479e-40
-2.69172e-40
-1.23816e-40
-4.22556e-41
-1.09801e-41
-2.16472e-42
-3.46416e-43
-4.35938e-44
-4.34496e-45
-3.4436e-46
-2.17155e-47
-1.08636e-48
-4.29102e-50
-1.3277e-51
-3.18516e-53
-5.84567e-55
-8.06703e-57
-8.19458e-59
-5.96257e-61
-3.00029e-63
-9.97002e-66
-2.05498e-68
-2.40106e-71
-1.38325e-74
-3.06169e-78
-1.43443e-82
-5.5025e-142
-7.07692e-125
-5.93268e-103
-1.25044e-89
-2.62846e-85
-5.90839e-78
-2.36879e-72
-7.44376e-66
-4.42332e-60
-2.77432e-58
-1.12669e-56
-5.7721e-55
-7.59805e-53
-1.16455e-51
-6.81657e-50
-6.76136e-49
-4.07441e-47
-7.90754e-45
-4.43465e-43
-1.68881e-42
-2.81949e-42
-2.87929e-42
-2.06451e-42
-1.11754e-42
-4.75699e-43
-1.63559e-43
-4.79755e-44
-2.45179e-44
-4.2954e-44
-7.10785e-44
-2.74732e-42
-2.54911e-40
-1.00189e-39
-1.68339e-39
-1.65853e-39
-1.09168e-39
-5.1287e-40
-1.7886e-40
-4.75229e-41
-9.59993e-42
-1.57231e-42
-2.02684e-43
-2.07179e-44
-1.68592e-45
-1.09283e-46
-5.62639e-48
-2.28997e-49
-7.31086e-51
-1.81232e-52
-3.44237e-54
-4.92499e-56
-5.19636e-58
-3.93527e-60
-2.06557e-62
-7.17747e-65
-1.55111e-67
-1.90576e-70
-1.15825e-73
-2.71436e-77
-1.35253e-81
-7.03385e-141
-8.5486e-123
-4.54939e-101
-6.85618e-88
-1.07514e-83
-1.71311e-76
-5.78706e-71
-1.50482e-64
-6.34147e-59
-3.43469e-57
-1.21751e-55
-5.46588e-54
-6.52243e-52
-8.99997e-51
-4.71868e-49
-4.30761e-48
-2.27225e-46
-4.14829e-44
-2.21265e-42
-8.13874e-42
-1.32459e-41
-1.32475e-41
-9.3322e-42
-4.97616e-42
-2.09143e-42
-7.11258e-43
-2.04801e-43
-8.90882e-44
-1.36136e-43
-2.22355e-43
-9.14757e-42
-9.17911e-40
-3.70478e-39
-6.36623e-39
-6.40792e-39
-4.30916e-39
-2.06895e-39
-7.37737e-40
-2.00527e-40
-4.15262e-41
-6.96282e-42
-9.19666e-43
-9.64339e-44
-8.05909e-45
-5.37081e-46
-2.84606e-47
-1.1937e-48
-3.93235e-50
-1.00728e-51
-1.98006e-53
-2.93669e-55
-3.21799e-57
-2.53611e-59
-1.38836e-61
-5.04384e-64
-1.14268e-66
-1.47614e-69
-9.46369e-73
-2.3482e-76
-1.2446e-80
-4.49269e-140
-1.01111e-120
-3.42605e-99
-3.67637e-86
-4.31638e-82
-4.84247e-75
-1.37849e-69
-2.96783e-63
-8.82686e-58
-4.12442e-56
-1.27362e-54
-5.00394e-53
-5.41339e-51
-6.72758e-50
-3.15476e-48
-2.64977e-47
-1.22397e-45
-2.10121e-43
-1.06589e-41
-3.78817e-41
-6.01165e-41
-5.88937e-41
-4.07675e-41
-2.14161e-41
-8.88778e-42
-2.98967e-42
-8.46972e-43
-3.2022e-43
-4.18099e-43
-6.70512e-43
-2.93964e-41
-3.2004e-39
-1.32843e-38
-2.33718e-38
-2.40556e-38
-1.654e-38
-8.1215e-39
-2.96271e-39
-8.24259e-40
-1.75081e-40
-3.00624e-41
-4.06961e-42
-4.37865e-43
-3.7589e-44
-2.57593e-45
-1.40517e-46
-6.07396e-48
-2.06475e-49
-5.46515e-51
-1.11177e-52
-1.70921e-54
-1.94494e-56
-1.5949e-58
-9.10472e-61
-3.45758e-63
-8.21008e-66
-1.11495e-68
-7.53937e-72
-1.98056e-75
-1.1166e-79
-1.23917e-137
-1.16929e-118
-2.53232e-97
-1.92587e-84
-1.69866e-80
-1.33321e-73
-3.19842e-68
-5.70555e-62
-1.19152e-56
-4.79826e-55
-1.28817e-53
-4.42293e-52
-4.33818e-50
-4.85818e-49
-2.03434e-47
-1.57163e-46
-6.35931e-45
-1.02623e-42
-4.95063e-41
-1.70062e-40
-2.63218e-40
-2.52639e-40
-1.71872e-40
-8.89588e-41
-3.6455e-41
-1.21288e-41
-3.38612e-42
-1.13661e-42
-1.24497e-42
-1.94638e-42
-9.10475e-41
-1.07915e-38
-4.61397e-38
-8.32094e-38
-8.76598e-38
-6.16763e-38
-3.09937e-38
-1.15744e-38
-3.29768e-39
-7.18917e-40
-1.26452e-40
-1.75497e-41
-1.93806e-42
-1.70944e-43
-1.20485e-44
-6.76679e-46
-3.01484e-47
-1.05761e-48
-2.89266e-50
-6.08949e-52
-9.70351e-54
-1.14649e-55
-9.78098e-58
-5.8215e-60
-2.31049e-62
-5.74916e-65
-8.206e-68
-5.85168e-71
-1.62725e-74
-9.75766e-79
-3.28048e-135
-1.32046e-116
-1.83596e-95
-9.84597e-83
-6.54415e-79
-3.57133e-72
-7.22106e-67
-1.06824e-60
-1.55795e-55
-5.40167e-54
-1.25807e-52
-3.76915e-51
-3.3521e-49
-3.38471e-48
-1.26353e-46
-8.97495e-46
-3.18227e-44
-4.82563e-42
-2.21377e-40
-7.35315e-40
-1.11027e-39
-1.04423e-39
-6.98266e-40
-3.56114e-40
-1.44101e-40
-4.74152e-41
-1.30592e-41
-3.97162e-42
-3.59765e-42
-5.43116e-42
-2.71378e-40
-3.51457e-38
-1.55051e-37
-2.86982e-37
-3.09763e-37
-2.23216e-37
-1.14884e-37
-4.3948e-38
-1.283e-38
-2.87266e-39
-5.1778e-40
-7.36971e-41
-8.35578e-42
-7.57445e-43
-5.49192e-44
-3.17611e-45
-1.45869e-46
-5.28095e-48
-1.49256e-49
-3.25143e-51
-5.36978e-53
-6.58696e-55
-5.84536e-57
-3.62665e-59
-1.50401e-61
-3.92082e-64
-5.88065e-67
-4.4213e-70
-1.30125e-73
-8.29791e-78
-8.30498e-133
-1.4545e-114
-1.30481e-93
-4.90756e-81
-2.46484e-77
-9.29805e-71
-1.58462e-65
-1.94598e-59
-1.97076e-54
-5.87703e-53
-1.18481e-51
-3.09218e-50
-2.49379e-48
-2.27199e-47
-7.54761e-46
-4.92701e-45
-1.53136e-43
-2.18137e-41
-9.51617e-40
-3.05756e-39