/*--------------------------------*- C++ -*----------------------------------*\
| =========                 |                                                 |
| \\      /  F ield         | OpenFOAM: The Open Source CFD Toolbox           |
|  \\    /   O peration     | Version:  v2012                                 |
|   \\  /    A nd           | Website:  www.openfoam.com                      |
|    \\/     M anipulation  |                                                 |
\*---------------------------------------------------------------------------*/
FoamFile
{
    version     2.0;
    format      ascii;
    class       surfaceScalarField;
    location    "0.45";
    object      alphaPhi0.water;
}
// * * * * * * * * * * * * * * * * * * * * * * * * * * * * * * * * * * * * * //

dimensions      [0 3 -1 0 0 0 0];
oriented        oriented;


internalField   nonuniform List<scalar> 
8134
(
-3.65499e-08
-8.07735e-09
-1.92116e-15
-2.9638e-08
-6.91178e-09
-1.84853e-15
-2.36856e-08
-5.95239e-09
-1.44396e-15
-1.85502e-08
-5.13552e-09
-1.36994e-15
-1.41239e-08
-4.42619e-09
-1.27342e-15
-1.03238e-08
-3.80013e-09
-1.14772e-15
-7.08001e-09
-3.24381e-09
-1.00552e-15
-4.33225e-09
-2.74776e-09
-9.76455e-16
-2.02597e-09
-2.30627e-09
-7.62966e-16
-1.11414e-10
-1.91455e-09
-7.0361e-16
1.46364e-09
-1.57506e-09
-6.16323e-16
2.73688e-09
-1.27323e-09
-5.35682e-16
3.7487e-09
-1.01182e-09
-2.29078e-16
4.53519e-09
-7.86503e-10
-2.50521e-16
5.12847e-09
-5.93289e-10
-2.88951e-16
5.55686e-09
-4.28391e-10
-2.19669e-16
5.84517e-09
-2.88306e-10
-2.11947e-16
6.015e-09
-1.69814e-10
-2.13034e-16
6.08508e-09
-7.00848e-11
-2.07462e-16
6.07106e-09
1.39918e-11
-1.8169e-16
5.98709e-09
8.39761e-11
-1.69861e-16
5.84464e-09
1.42423e-10
-1.60008e-16
5.65335e-09
1.91334e-10
-1.55172e-16
5.42089e-09
2.32425e-10
-1.55082e-16
5.15377e-09
2.67137e-10
-1.57022e-16
4.85679e-09
2.9696e-10
-1.62787e-16
4.53388e-09
3.22915e-10
-1.72594e-16
4.18812e-09
3.4578e-10
-1.72765e-16
3.82191e-09
3.66186e-10
-1.68114e-16
3.43821e-09
3.83711e-10
-1.71005e-16
3.04033e-09
3.97873e-10
2.06512e-18
2.63309e-09
4.0723e-10
5.00417e-16
2.22299e-09
4.10098e-10
1.71333e-15
1.81863e-09
4.04343e-10
2.73703e-15
1.43092e-09
3.87706e-10
1.44727e-15
1.07127e-09
3.5965e-10
-1.8933e-16
7.50278e-10
3.20997e-10
-1.78301e-15
4.76096e-10
2.74186e-10
-2.06807e-15
2.53394e-10
2.22704e-10
-1.4375e-15
8.26778e-11
1.70717e-10
-5.6419e-16
-3.00743e-11
1.12752e-10
-2.04302e-16
-6.60142e-11
3.59404e-11
-1.72197e-16
-6.6015e-11
1.88691e-16
-4.63073e-08
-1.55526e-08
-4.15357e-15
-3.94257e-08
-1.37933e-08
-4.05609e-15
-3.30661e-08
-1.2312e-08
-3.57567e-15
-2.71748e-08
-1.10268e-08
-3.42921e-15
-2.17132e-08
-9.88781e-09
-3.24385e-15
-1.66579e-08
-8.85545e-09
-3.00681e-15
-1.1995e-08
-7.90663e-09
-2.7831e-15
-7.71872e-09
-7.02406e-09
-2.57515e-15
-3.82657e-09
-6.19842e-09
-2.19707e-15
-3.18074e-10
-5.42304e-09
-2.01221e-15
2.80928e-09
-4.70241e-09
-1.80456e-15
5.55855e-09
-4.02249e-09
-1.56118e-15
7.93736e-09
-3.39061e-09
-9.32505e-16
9.95673e-09
-2.80591e-09
-6.8682e-16
1.16321e-08
-2.26863e-09
-7.35993e-16
1.29821e-08
-1.77848e-09
-5.29483e-16
1.40287e-08
-1.33481e-09
-4.95643e-16
1.47953e-08
-9.36378e-10
-5.28344e-16
1.53066e-08
-5.81418e-10
-5.33405e-16
1.5588e-08
-2.67452e-10
-5.15251e-16
1.56627e-08
9.23914e-12
-4.85848e-16
1.55557e-08
2.49398e-10
-4.58826e-16
1.52874e-08
4.59674e-10
-4.3874e-16
1.48766e-08
6.43158e-10
-4.21968e-16
1.43401e-08
8.03686e-10
-4.04691e-16
1.36915e-08
9.45544e-10
-3.89134e-16
1.29425e-08
1.07194e-09
-3.66167e-16
1.21028e-08
1.18548e-09
-3.48798e-16
1.11804e-08
1.28849e-09
-2.99814e-16
1.01845e-08
1.37969e-09
-3.20462e-16
9.12481e-09
1.45754e-09
-1.58952e-16
8.01518e-09
1.51683e-09
3.9922e-16
6.87426e-09
1.55104e-09
2.34486e-15
5.72658e-09
1.55198e-09
3.61451e-15
4.60373e-09
1.51057e-09
1.39839e-15
3.54045e-09
1.42293e-09
-1.10418e-16
2.57094e-09
1.2905e-09
-1.67927e-15
1.72418e-09
1.12095e-09
-1.9791e-15
1.01926e-09
9.27624e-10
-1.35532e-15
4.65678e-10
7.24302e-10
-6.61834e-16
8.00075e-11
4.98423e-10
-1.34812e-16
-8.77881e-11
2.03736e-10
-1.20268e-16
-1.53804e-10
1.03237e-16
-4.46224e-08
-2.16036e-08
-5.24287e-15
-3.88182e-08
-1.95974e-08
-5.17064e-15
-3.32632e-08
-1.7867e-08
-4.56228e-15
-2.79475e-08
-1.63426e-08
-4.39841e-15
-2.28601e-08
-1.49752e-08
-4.20986e-15
-1.7994e-08
-1.37215e-08
-3.98978e-15
-1.33465e-08
-1.25541e-08
-3.7862e-15
-8.92127e-09
-1.14493e-08
-3.53318e-15
-4.72689e-09
-1.03928e-08
-3.13575e-15
-7.76269e-10
-9.37366e-09
-2.91972e-15
2.91302e-09
-8.39169e-09
-2.67394e-15
6.3246e-09
-7.43406e-09
-2.35773e-15
9.44039e-09
-6.50638e-09
-1.58283e-15
1.22439e-08
-5.60951e-09
-1.18081e-15
1.47223e-08
-4.74697e-09
-1.18285e-15
1.68664e-08
-3.92259e-09
-8.97023e-16
1.86722e-08
-3.14064e-09
-8.50922e-16
2.0141e-08
-2.40514e-09
-9.0674e-16
2.12791e-08
-1.71954e-09
-9.35377e-16
2.20976e-08
-1.08596e-09
-9.08628e-16
2.26121e-08
-5.05258e-10
-8.6009e-16
2.28391e-08
2.23052e-11
-8.2756e-16
2.27993e-08
4.99572e-10
-7.976e-16
2.25122e-08
9.30101e-10
-7.70226e-16
2.19978e-08
1.31818e-09
-7.41112e-16
2.12735e-08
1.66983e-09
-7.12962e-16
2.03554e-08
1.98997e-09
-6.7913e-16
1.92581e-08
2.28288e-09
-6.43123e-16
1.79937e-08
2.55277e-09
-5.55721e-16
1.65765e-08
2.797e-09
-6.36808e-16
1.50217e-08
3.01229e-09
-3.97711e-16
1.33509e-08
3.18763e-09
3.60014e-17
1.15936e-08
3.30837e-09
1.1165e-15
9.7892e-09
3.35632e-09
1.24712e-15
7.98926e-09
3.31052e-09
-1.17251e-16
6.25294e-09
3.15926e-09
-1.08944e-15
4.64132e-09
2.90212e-09
-1.43786e-15
3.20912e-09
2.55314e-09
-1.2097e-15
1.996e-09
2.14075e-09
-9.44092e-16
1.02576e-09
1.69454e-09
-8.14369e-16
3.25918e-10
1.19826e-09
-3.72888e-16
-3.26986e-11
5.62352e-10
-1.85441e-16
-1.86503e-10
4.29174e-17
-4.08645e-08
-2.63542e-08
-5.07384e-15
-3.60992e-08
-2.43627e-08
-5.30874e-15
-3.13834e-08
-2.25828e-08
-4.82032e-15
-2.67519e-08
-2.09741e-08
-4.77029e-15
-2.22237e-08
-1.95033e-08
-4.62951e-15
-1.78097e-08
-1.81356e-08
-4.4322e-15
-1.35162e-08
-1.68476e-08
-4.24762e-15
-9.34973e-09
-1.56158e-08
-3.98092e-15
-5.31777e-09
-1.44248e-08
-3.59911e-15
-1.43005e-09
-1.32614e-08
-3.38882e-15
2.29862e-09
-1.21204e-08
-3.14407e-15
5.85363e-09
-1.09891e-08
-2.81282e-15
9.21573e-09
-9.86846e-09
-1.96073e-15
1.23633e-08
-8.75714e-09
-1.56985e-15
1.52739e-08
-7.65763e-09
-1.54595e-15
1.79249e-08
-6.5735e-09
-1.25247e-15
2.02944e-08
-5.51017e-09
-1.21585e-15
2.23633e-08
-4.47398e-09
-1.28578e-15
2.41157e-08
-3.47198e-09
-1.32253e-15
2.55403e-08
-2.51068e-09
-1.29092e-15
2.66311e-08
-1.59604e-09
-1.23292e-15
2.73861e-08
-7.32819e-10
-1.18055e-15
2.78092e-08
7.66803e-11
-1.13525e-15
2.79068e-08
8.32358e-10
-1.09308e-15
2.769e-08
1.53506e-09
-1.04876e-15
2.71702e-08
2.18951e-09
-1.00587e-15
2.63601e-08
2.80012e-09
-9.58593e-16
2.5272e-08
3.37108e-09
-9.06932e-16
2.39174e-08
3.90719e-09
-7.78761e-16
2.23112e-08
4.40328e-09
-9.22696e-16
2.04705e-08
4.85298e-09
-6.46976e-16
1.8421e-08
5.23711e-09
-2.51387e-16
1.62e-08
5.52942e-09
1.43883e-16
1.38595e-08
5.69678e-09
2.72876e-16
1.147e-08
5.7e-09
-6.7954e-16
9.11611e-09
5.51316e-09
-1.10878e-15
6.88892e-09
5.12929e-09
-1.33813e-15
4.8742e-09
4.56786e-09
-1.1705e-15
3.13885e-09
3.8761e-09
-8.66904e-16
1.72672e-09
3.10667e-09
-9.59863e-16
6.77598e-10
2.24739e-09
-5.73845e-16
7.5604e-11
1.16435e-09
-4.36731e-16
-1.109e-10
5.00612e-17
-3.67105e-08
-2.99815e-08
-5.14508e-15
-3.28902e-08
-2.81829e-08
-5.36706e-15
-2.89681e-08
-2.65049e-08
-4.78754e-15
-2.50066e-08
-2.49356e-08
-4.74988e-15
-2.10488e-08
-2.3461e-08
-4.62391e-15
-1.71247e-08
-2.20597e-08
-4.47464e-15
-1.32542e-08
-2.07181e-08
-4.34737e-15
-9.45175e-09
-1.94182e-08
-4.1174e-15
-5.72836e-09
-1.81481e-08
-3.76853e-15
-2.0932e-09
-1.68965e-08
-3.5771e-15
1.44289e-09
-1.56564e-08
-3.34715e-15
4.87093e-09
-1.44171e-08
-3.01915e-15
8.1788e-09
-1.31763e-08
-2.13294e-15
1.13517e-08
-1.19301e-08
-1.86604e-15
1.43723e-08
-1.06783e-08
-1.84152e-15
1.72206e-08
-9.42178e-09
-1.59339e-15
1.98738e-08
-8.16332e-09
-1.58648e-15
2.23072e-08
-6.90735e-09
-1.66208e-15
2.44952e-08
-5.66002e-09
-1.69241e-15
2.64124e-08
-4.42798e-09
-1.6517e-15
2.80352e-08
-3.21877e-09
-1.5832e-15
2.93419e-08
-2.03962e-09
-1.51685e-15
3.03149e-08
-8.96198e-10
-1.4563e-15
3.09403e-08
2.06792e-10
-1.39897e-15
3.12082e-08
1.26725e-09
-1.33957e-15
3.11133e-08
2.2844e-09
-1.28199e-15
3.06534e-08
3.25996e-09
-1.22094e-15
2.9829e-08
4.1956e-09
-1.15619e-15
2.86417e-08
5.09441e-09
-9.88549e-16
2.70981e-08
5.94692e-09
-1.18255e-15
2.52096e-08
6.74143e-09
-8.96454e-16
2.29988e-08
7.44783e-09
-5.19032e-16
2.05043e-08
8.02396e-09
-3.0571e-16
1.77853e-08
8.41573e-09
-1.66207e-16
1.49278e-08
8.55752e-09
-6.49235e-16
1.20408e-08
8.40017e-09
-9.90223e-16
9.24785e-09
7.92224e-09
-1.22358e-15
6.67118e-09
7.14453e-09
-1.16994e-15
4.4122e-09
6.13508e-09
-1.08403e-15
2.54136e-09
4.97751e-09
-8.39357e-16
1.11387e-09
3.67488e-09
-8.05504e-16
2.2515e-10
2.05307e-09
-5.20252e-16
1.14249e-10
7.64568e-17
-3.24918e-08
-3.26521e-08
-5.30111e-15
-2.95149e-08
-3.11597e-08
-5.43215e-15
-2.63287e-08
-2.96912e-08
-4.90825e-15
-2.30079e-08
-2.82565e-08
-4.86581e-15
-1.96094e-08
-2.68595e-08
-4.73631e-15
-1.61768e-08
-2.54924e-08
-4.58521e-15
-1.27418e-08
-2.41531e-08
-4.45441e-15
-9.32841e-09
-2.28315e-08
-4.20979e-15
-5.95432e-09
-2.15222e-08
-3.85273e-15
-2.63254e-09
-2.02183e-08
-3.65533e-15
6.25341e-10
-1.89143e-08
-3.42744e-15
3.81203e-09
-1.76038e-08
-3.10253e-15
6.91971e-09
-1.6284e-08
-2.22172e-15
9.94049e-09
-1.49509e-08
-2.11979e-15
1.2865e-08
-1.36029e-08
-2.09786e-15
1.56817e-08
-1.22385e-08
-1.90879e-15
1.83759e-08
-1.08575e-08
-1.93026e-15
2.09292e-08
-9.46065e-09
-2.00048e-15
2.33196e-08
-8.05043e-09
-2.01512e-15
2.55213e-08
-6.62978e-09
-1.96397e-15
2.75059e-08
-5.20333e-09
-1.88835e-15
2.92424e-08
-3.77618e-09
-1.81311e-15
3.06994e-08
-2.35305e-09
-1.74089e-15
3.18457e-08
-9.39667e-10
-1.67107e-15
3.26512e-08
4.61825e-10
-1.5996e-15
3.30874e-08
1.84813e-09
-1.53032e-15
3.31303e-08
3.21703e-09
-1.45805e-15
3.27591e-08
4.56698e-09
-1.38326e-15
3.19553e-08
5.89797e-09
-1.18286e-15
3.07071e-08
7.19527e-09
-1.40883e-15
2.90087e-08
8.43977e-09
-1.12617e-15
2.68687e-08
9.58776e-09
-7.62368e-16
2.4316e-08
1.05767e-08
-6.49432e-16
2.14073e-08
1.13244e-08
-4.4561e-16
1.82361e-08
1.17288e-08
-8.33926e-16
1.49313e-08
1.1705e-08
-9.18616e-16
1.16485e-08
1.1205e-08
-1.12981e-15
8.55082e-09
1.02422e-08
-1.14052e-15
5.78143e-09
8.90447e-09
-1.11832e-15
3.44493e-09
7.31401e-09
-9.2837e-16
1.61717e-09
5.50264e-09
-7.64801e-16
4.07221e-10
3.26301e-09
-4.57896e-16
5.21469e-10
3.827e-17
-2.84547e-08
-3.4564e-08
-5.33814e-15
-2.61853e-08
-3.3429e-08
-5.41178e-15
-2.3645e-08
-3.22315e-08
-4.9883e-15
-2.09071e-08
-3.09944e-08
-4.91255e-15
-1.80321e-08
-2.97345e-08
-4.74139e-15
-1.50694e-08
-2.8455e-08
-4.58656e-15
-1.20582e-08
-2.71643e-08
-4.46861e-15
-9.02949e-09
-2.58603e-08
-4.23921e-15
-6.00707e-09
-2.45447e-08
-3.8919e-15
-3.00909e-09
-2.32162e-08
-3.69602e-15
-5.19601e-11
-2.18715e-08
-3.47326e-15
2.86063e-09
-2.05164e-08
-3.15568e-15
5.71566e-09
-1.9139e-08
-2.30836e-15
8.50965e-09
-1.77449e-08
-2.35831e-15
1.12381e-08
-1.63313e-08
-2.32854e-15
1.38961e-08
-1.48965e-08
-2.18566e-15
1.64775e-08
-1.34389e-08
-2.21932e-15
1.89736e-08
-1.19567e-08
-2.27278e-15
2.13717e-08
-1.04486e-08
-2.26766e-15
2.36547e-08
-8.91287e-09
-2.20729e-15
2.58004e-08
-7.349e-09
-2.12827e-15
2.77807e-08
-5.75655e-09
-2.04859e-15
2.95626e-08
-4.13483e-09
-1.96978e-15
3.11091e-08
-2.48626e-09
-1.89261e-15
3.2379e-08
-8.08013e-10
-1.81412e-15
3.33276e-08
8.99398e-10
-1.73821e-15
3.39093e-08
2.63535e-09
-1.65935e-15
3.40795e-08
4.39698e-09
-1.57863e-15
3.37944e-08
6.18288e-09
-1.35658e-15
3.30149e-08
7.97484e-09
-1.59762e-15
3.17079e-08
9.74663e-09
-1.32382e-15
2.98554e-08
1.14403e-08
-9.73187e-16
2.74626e-08
1.29696e-08
-9.44005e-16
2.45692e-08
1.42177e-08
-6.93014e-16
2.12635e-08
1.50345e-08
-1.01102e-15
1.76842e-08
1.52842e-08
-8.98641e-16
1.40144e-08
1.48747e-08
-1.06979e-15
1.0459e-08
1.37976e-08
-1.11271e-15
7.20922e-09
1.21543e-08
-1.00812e-15
4.41199e-09
1.01112e-08
-1.25631e-15
2.17084e-09
7.7438e-09
-3.4254e-16
6.13677e-10
4.82017e-09
-4.6224e-16
1.13515e-09
5.44834e-18
-2.47065e-08
-3.58856e-08
-5.48641e-15
-2.30146e-08
-3.51209e-08
-5.49073e-15
-2.10238e-08
-3.42223e-08
-5.02305e-15
-1.87993e-08
-3.3219e-08
-4.93917e-15
-1.63984e-08
-3.21353e-08
-4.77323e-15
-1.38712e-08
-3.09822e-08
-4.63187e-15
-1.12594e-08
-2.97761e-08
-4.51237e-15
-8.59776e-09
-2.85219e-08
-4.2826e-15
-5.91429e-09
-2.72281e-08
-3.93054e-15
-3.23128e-09
-2.58992e-08
-3.726e-15
-5.6629e-10
-2.45365e-08
-3.50383e-15
2.06739e-09
-2.31501e-08
-3.19788e-15
4.66127e-09
-2.17329e-08
-2.40501e-15
7.20929e-09
-2.02929e-08
-2.5778e-15
9.708e-09
-1.88301e-08
-2.52819e-15
1.21556e-08
-1.73441e-08
-2.41151e-15
1.45509e-08
-1.58342e-08
-2.43994e-15
1.68922e-08
-1.4298e-08
-2.469e-15
1.91759e-08
-1.27324e-08
-2.44379e-15
2.13951e-08
-1.11322e-08
-2.37582e-15
2.35384e-08
-9.49221e-09
-2.29541e-15
2.55876e-08
-7.80592e-09
-2.21446e-15
2.75182e-08
-6.0652e-09
-2.13343e-15
2.92977e-08
-4.26597e-09
-2.05435e-15
3.08864e-08
-2.39661e-09
-1.97417e-15
3.22359e-08
-4.50171e-10
-1.89692e-15
3.32892e-08
1.58202e-09
-1.81668e-15
3.3984e-08
3.70235e-09
-1.73453e-15
3.42538e-08
5.91288e-09
-1.50408e-15
3.4031e-08
8.19779e-09
-1.74752e-15
3.32495e-08
1.0528e-08
-1.48592e-15
3.18548e-08
1.28349e-08
-1.15163e-15
2.98153e-08
1.50092e-08
-1.18519e-15
2.71376e-08
1.68954e-08
-9.03368e-16
2.38868e-08
1.82854e-08
-1.16875e-15
2.01963e-08
1.89747e-08
-9.11742e-16
1.62656e-08
1.88053e-08
-1.056e-15
1.23378e-08
1.77254e-08
-1.07621e-15
8.65555e-09
1.58366e-08
-9.73364e-16
5.4159e-09
1.33509e-08
-1.25089e-15
2.75846e-09
1.04012e-08
-3.04991e-16
8.37347e-10
6.74127e-09
-6.79559e-16
1.97249e-09
-2.58178e-17
-2.13163e-08
-3.67658e-08
-5.47669e-15
-2.00802e-08
-3.6357e-08
-5.57232e-15
-1.85424e-08
-3.576e-08
-5.17295e-15
-1.67566e-08
-3.50048e-08
-5.01834e-15
-1.47732e-08
-3.41187e-08
-4.77485e-15
-1.26386e-08
-3.31168e-08
-4.60641e-15
-1.03937e-08
-3.2021e-08
-4.48519e-15
-8.07394e-09
-3.08416e-08
-4.27932e-15
-5.7094e-09
-2.95927e-08
-3.94701e-15
-3.32473e-09
-2.82839e-08
-3.74918e-15
-9.39971e-10
-2.69212e-08
-3.53502e-15
1.42879e-09
-2.55188e-08
-3.24381e-15
3.77077e-09
-2.40749e-08
-2.51512e-15
6.07809e-09
-2.26003e-08
-2.77322e-15
8.34622e-09
-2.10982e-08
-2.69179e-15
1.05734e-08
-1.95713e-08
-2.58272e-15
1.27601e-08
-1.80208e-08
-2.59351e-15
1.4908e-08
-1.64458e-08
-2.59553e-15
1.70191e-08
-1.48434e-08
-2.55191e-15
1.9094e-08
-1.32072e-08
-2.47744e-15
2.11311e-08
-1.15293e-08
-2.39606e-15
2.31237e-08
-9.7986e-09
-2.31524e-15
2.5059e-08
-8.00028e-09
-2.23472e-15
2.69161e-08
-6.1233e-09
-2.15732e-15
2.86649e-08
-4.14528e-09
-2.07982e-15
3.02642e-08
-2.04956e-09
-2.00503e-15
3.166e-08
1.86214e-10
-1.92774e-15
3.2784e-08
2.57855e-09
-1.84773e-15
3.35569e-08
5.13976e-09
-1.62146e-15
3.38895e-08
7.86531e-09
-1.85846e-15
3.36855e-08
1.07319e-08
-1.61268e-15
3.28514e-08
1.36689e-08
-1.2985e-15
3.13098e-08
1.65509e-08
-1.37341e-15
2.90198e-08
1.91853e-08
-1.07462e-15
2.6005e-08
2.13001e-08
-1.30521e-15
2.23734e-08
2.26064e-08
-9.50008e-16
1.83242e-08
2.28545e-08
-1.07436e-15
1.41284e-08
2.19211e-08
-1.05176e-15
1.00791e-08
1.98859e-08
-9.33221e-16
6.42933e-09
1.70007e-08
-8.87727e-16
3.36373e-09
1.34669e-08
-4.0912e-16
1.07156e-09
9.03343e-09
-4.60452e-16
3.04405e-09
-5.18668e-17
-1.82985e-08
-5.5981e-15
-1.74157e-08
-5.58416e-15
-1.62442e-08
-3.69315e-08
-5.18684e-15
-1.48258e-08
-3.64233e-08
-5.04309e-15
-1.32023e-08
-3.57422e-08
-4.80844e-15
-1.14145e-08
-3.49047e-08
-4.64632e-15
-9.49988e-09
-3.39356e-08
-4.51438e-15
-7.49275e-09
-3.28488e-08
-4.31541e-15
-5.42301e-09
-3.16624e-08
-3.9796e-15
-3.31625e-09
-3.03906e-08
-3.77406e-15
-1.19395e-09
-2.90435e-08
-3.56075e-15
9.2636e-10
-2.76391e-08
-3.28323e-15
3.03158e-09
-2.61801e-08
-2.62099e-15
5.11207e-09
-2.46808e-08
-2.93408e-15
7.16154e-09
-2.31477e-08
-2.81594e-15
9.17693e-09
-2.15866e-08
-2.70323e-15
1.11581e-08
-2.0002e-08
-2.69119e-15
1.31073e-08
-1.8395e-08
-2.66762e-15
1.50287e-08
-1.67648e-08
-2.60817e-15
1.69271e-08
-1.51057e-08
-2.52779e-15
1.88071e-08
-1.34093e-08
-2.445e-15
2.06708e-08
-1.16624e-08
-2.36425e-15
2.25164e-08
-9.84573e-09
-2.28515e-15
2.43359e-08
-7.94293e-09
-2.21072e-15
2.61124e-08
-5.92167e-09
-2.13769e-15
2.78179e-08
-3.75516e-09
-2.0681e-15
2.94103e-08
-1.40624e-09
-1.99619e-15
3.08297e-08
1.15935e-09
-1.92108e-15
3.19963e-08
3.97292e-09
-1.7088e-15
3.2812e-08
7.04973e-09
-1.93273e-15
3.31605e-08
1.03833e-08
-1.70551e-15
3.2915e-08
1.39144e-08
-1.41123e-15
3.19522e-08
1.75138e-08
-1.51222e-15
3.01755e-08
2.09618e-08
-1.20885e-15
2.75511e-08
2.39246e-08
-1.42048e-15
2.41402e-08
2.60173e-08
-1.00712e-15
2.01204e-08
2.68743e-08
-1.11438e-15
1.57747e-08
2.62669e-08
-1.04641e-15
1.1439e-08
2.42216e-08
-9.28877e-16
7.42499e-09
2.10147e-08
-6.70897e-16
3.97058e-09
1.69213e-08
-5.82485e-16
1.3099e-09
1.16941e-08
-3.76658e-16
4.35395e-09
-6.85699e-17
-1.41522e-08
-3.78125e-08
-5.16372e-15
-1.30359e-08
-3.75397e-08
-5.07262e-15
-1.17172e-08
-3.70608e-08
-4.82852e-15
-1.02304e-08
-3.63914e-08
-4.64411e-15
-8.60851e-09
-3.55575e-08
-4.4956e-15
-6.88274e-09
-3.45745e-08
-4.31059e-15
-5.08161e-09
-3.34635e-08
-3.99314e-15
-3.23034e-09
-3.22419e-08
-3.79333e-15
-1.35075e-09
-3.09231e-08
-3.5869e-15
5.39005e-10
-2.95289e-08
-3.32289e-15
2.42437e-09
-2.80654e-08
-2.72035e-15
4.2943e-09
-2.65507e-08
-3.06136e-15
6.14089e-09
-2.49943e-08
-2.90587e-15
7.95943e-09
-2.34052e-08
-2.78355e-15
9.74832e-09
-2.17909e-08
-2.74785e-15
1.15089e-08
-2.01556e-08
-2.7021e-15
1.32452e-08
-1.85011e-08
-2.62971e-15
1.49632e-08
-1.68237e-08
-2.54389e-15
1.66704e-08
-1.51165e-08
-2.45889e-15
1.83743e-08
-1.33663e-08
-2.37738e-15
2.00806e-08
-1.15519e-08
-2.29901e-15
2.1792e-08
-9.6544e-09
-2.22691e-15
2.35043e-08
-7.63394e-09
-2.15765e-15
2.52044e-08
-5.45532e-09
-2.09302e-15
2.6866e-08
-3.06781e-09
-2.02734e-15
2.84448e-08
-4.19307e-10
-1.95815e-15
2.98734e-08
2.54407e-09
-1.76692e-15
3.10581e-08
5.86516e-09
-1.97352e-15
3.18768e-08
9.56454e-09
-1.76662e-15
3.21823e-08
1.36088e-08
-1.49329e-15
3.18134e-08
1.78828e-08
-1.60793e-15
3.06187e-08
2.21564e-08
-1.31077e-15
2.84976e-08
2.60458e-08
-1.51494e-15
2.54467e-08
2.90682e-08
-1.07801e-15
2.15985e-08
3.07224e-08
-1.16749e-15
1.72266e-08
3.06388e-08
-1.05866e-15
1.26967e-08
2.87516e-08
-9.67241e-16
8.37649e-09
2.53349e-08
-7.21026e-16
4.56343e-09
2.07344e-08
-1.05218e-15
1.54617e-09
1.47113e-08
-3.36873e-16
5.90012e-09
-8.91789e-17
-1.22727e-08
-3.84661e-08
-5.14145e-15
-1.14013e-08
-3.84112e-08
-5.0803e-15
-1.03373e-08
-3.81248e-08
-4.85901e-15
-9.10827e-09
-3.76205e-08
-4.68415e-15
-7.74209e-09
-3.69237e-08
-4.52775e-15
-6.26632e-09
-3.60503e-08
-4.3387e-15
-4.707e-09
-3.50228e-08
-4.0241e-15
-3.08802e-09
-3.38609e-08
-3.81622e-15
-1.43064e-09
-3.25805e-08
-3.60853e-15
2.46982e-10
-3.12065e-08
-3.35429e-15
1.92974e-09
-2.97482e-08
-2.80821e-15
3.60565e-09
-2.82266e-08
-3.1536e-15
5.26566e-09
-2.66543e-08
-2.96622e-15
6.90359e-09
-2.50431e-08
-2.83338e-15
8.51627e-09
-2.34036e-08
-2.77693e-15
1.01036e-08
-2.17429e-08
-2.71324e-15
1.16683e-08
-2.00658e-08
-2.63046e-15
1.32158e-08
-1.83713e-08
-2.53967e-15
1.47542e-08
-1.66549e-08
-2.45178e-15
1.62929e-08
-1.49051e-08
-2.36843e-15
1.78422e-08
-1.31011e-08
-2.28952e-15
1.94114e-08
-1.12237e-08
-2.21817e-15
2.10065e-08
-9.22898e-09
-2.151e-15
2.26273e-08
-7.0761e-09
-2.08956e-15
2.42629e-08
-4.70346e-09
-2.02856e-15
2.58875e-08
-2.04375e-09
-1.96411e-15
2.74528e-08
9.78595e-10
-1.79687e-15
2.88802e-08
4.43782e-09
-1.98365e-15
3.0056e-08
8.38871e-09
-1.7976e-15
3.08281e-08
1.28366e-08
-1.54866e-15
3.10123e-08
1.76987e-08
-1.66839e-15
3.04112e-08
2.27574e-08
-1.38629e-15
2.88576e-08
2.75994e-08
-1.58907e-15
2.62719e-08
3.16539e-08
-1.15389e-15
2.27207e-08
3.42735e-08
-1.22714e-15
1.84438e-08
3.49156e-08
-1.08445e-15
1.3818e-08
3.33773e-08
-1.02208e-15
9.2593e-09
2.98936e-08
-7.98126e-16
5.12746e-09
2.48662e-08
-1.32301e-15
1.77438e-09
1.80644e-08
-3.49861e-16
7.6745e-09
-9.22922e-17
-1.06017e-08
-3.89443e-08
-5.05501e-15
-9.92647e-09
-3.90864e-08
-4.99531e-15
-9.07267e-09
-3.89785e-08
-4.79845e-15
-8.06176e-09
-3.86314e-08
-4.63234e-15
-6.91654e-09
-3.80689e-08
-4.47716e-15
-5.66047e-09
-3.73064e-08
-4.31461e-15
-4.31661e-09
-3.63667e-08
-4.02232e-15
-2.90681e-09
-3.52706e-08
-3.8248e-15
-1.45117e-09
-3.40361e-08
-3.62515e-15
3.22869e-11
-3.269e-08
-3.38258e-15
1.52998e-09
-3.12459e-08
-2.88193e-15
3.02805e-09
-2.97247e-08
-3.21802e-15
4.51722e-09
-2.81435e-08
-3.00482e-15
5.99024e-09
-2.65161e-08
-2.86274e-15
7.44264e-09
-2.4856e-08
-2.78898e-15
8.87279e-09
-2.3173e-08
-2.71122e-15
1.02819e-08
-2.14749e-08
-2.62022e-15
1.1674e-08
-1.97635e-08
-2.52488e-15
1.30563e-08
-1.80371e-08
-2.43368e-15
1.44383e-08
-1.62871e-08
-2.34772e-15
1.58316e-08
-1.44944e-08
-2.26706e-15
1.72494e-08
-1.26416e-08
-2.19493e-15
1.87038e-08
-1.06833e-08
-2.12807e-15
2.02041e-08
-8.57651e-09
-2.06806e-15
2.17529e-08
-6.25223e-09
-2.00973e-15
2.33408e-08
-3.63154e-09
-1.94876e-15
2.49402e-08
-6.20936e-10
-1.80419e-15
2.6494e-08
2.88406e-09
-1.96818e-15
2.7907e-08
6.97564e-09
-1.80136e-15
2.90371e-08
1.17064e-08
-1.57944e-15
2.96936e-08
1.70423e-08
-1.69978e-15
2.96492e-08
2.28017e-08
-1.43977e-15
2.86788e-08
2.85699e-08
-1.64311e-15
2.66236e-08
3.37091e-08
-1.22571e-15
2.34689e-08
3.74281e-08
-1.28785e-15
1.93977e-08
3.89869e-08
-1.11683e-15
1.4775e-08
3.8e-08
-1.04873e-15
1.00517e-08
3.46169e-08
-8.41285e-16
5.64908e-09
2.92689e-08
-1.2467e-15
1.98891e-09
2.17245e-08
-4.34505e-16
9.66341e-09
-9.03609e-17
-9.12816e-09
-3.92885e-08
-4.95393e-15
-8.6086e-09
-3.9606e-08
-4.96046e-15
-7.92662e-09
-3.96605e-08
-4.80533e-15
-7.09848e-09
-3.94595e-08
-4.65506e-15
-6.1423e-09
-3.90251e-08
-4.494e-15
-5.07752e-09
-3.83711e-08
-4.33867e-15
-3.9239e-09
-3.75203e-08
-4.04656e-15
-2.70087e-09
-3.64937e-08
-3.84338e-15
-1.42688e-09
-3.53101e-08
-3.64171e-15
-1.18561e-10
-3.39983e-08
-3.40373e-15
1.20968e-09
-3.25741e-08
-2.94572e-15
2.54535e-09
-3.10604e-08
-3.25847e-15
3.87853e-09
-2.94767e-08
-3.0265e-15
5.20132e-09
-2.78389e-08
-2.87814e-15
6.50828e-09
-2.61629e-08
-2.79105e-15
7.79649e-09
-2.44612e-08
-2.7026e-15
9.06566e-09
-2.27441e-08
-2.605e-15
1.03183e-08
-2.10162e-08
-2.50557e-15
1.15601e-08
-1.92789e-08
-2.4109e-15
1.27993e-08
-1.75264e-08
-2.32185e-15
1.40474e-08
-1.57424e-08
-2.23861e-15
1.53186e-08
-1.39128e-08
-2.16454e-15
1.66281e-08
-1.19928e-08
-2.09654e-15
1.79914e-08
-9.93983e-09
-2.03625e-15
1.94204e-08
-7.68119e-09
-1.97882e-15
2.09193e-08
-5.13037e-09
-1.91974e-15
2.24789e-08
-2.18068e-09
-1.79486e-15
2.40649e-08
1.29814e-09
-1.93427e-15
2.56061e-08
5.43441e-09
-1.78373e-15
2.6981e-08
1.03315e-08
-1.58909e-15
2.80083e-08
1.60151e-08
-1.70681e-15
2.84487e-08
2.23611e-08
-1.47379e-15
2.80348e-08
2.89838e-08
-1.67716e-15
2.65349e-08
3.52091e-08
-1.28795e-15
2.38455e-08
4.01175e-08
-1.34442e-15
2.00727e-08
4.27597e-08
-1.15115e-15
1.55467e-08
4.2526e-08
-1.03963e-15
1.07357e-08
3.94279e-08
-8.53617e-16
6.11636e-09
3.38882e-08
-6.28376e-16
2.18461e-09
2.56563e-08
-5.37102e-16
1.1848e-08
-8.80755e-17
-7.83738e-09
-3.95315e-08
-4.82161e-15
-7.44023e-09
-4.00031e-08
-4.91313e-15
-6.89756e-09
-4.02032e-08
-4.79828e-15
-6.22129e-09
-4.01358e-08
-4.65426e-15
-5.42551e-09
-3.98209e-08
-4.48088e-15
-4.5259e-09
-3.92708e-08
-4.33125e-15
-3.53899e-09
-3.85072e-08
-4.05017e-15
-2.48157e-09
-3.75511e-08
-3.8516e-15
-1.37014e-09
-3.64216e-08
-3.65396e-15
-2.19917e-10
-3.51485e-08
-3.42203e-15
9.55106e-10
-3.37491e-08
-3.00028e-15
2.14322e-09
-3.22485e-08
-3.28302e-15
3.33444e-09
-3.06679e-08
-3.03775e-15
4.52063e-09
-2.90251e-08
-2.88527e-15
5.69571e-09
-2.7338e-08
-2.7879e-15
6.85582e-09
-2.56213e-08
-2.69112e-15
7.99942e-09
-2.38877e-08
-2.58816e-15
9.12755e-09
-2.21443e-08
-2.48506e-15
1.02442e-08
-2.03955e-08
-2.38703e-15
1.13561e-08
-1.86384e-08
-2.2947e-15
1.24735e-08
-1.68597e-08
-2.20842e-15
1.36099e-08
-1.50493e-08
-2.13161e-15
1.47816e-08
-1.31644e-08
-2.06144e-15
1.60067e-08
-1.1165e-08
-1.99947e-15
1.73033e-08
-8.97777e-09
-1.94125e-15
1.86854e-08
-6.51234e-09
-1.88254e-15
2.01582e-08
-3.6536e-09
-1.77401e-15
2.17078e-08
-2.5141e-10
-1.88745e-15
2.32882e-08
3.85391e-09
-1.74996e-15
2.48045e-08
8.8151e-09
-1.58126e-15
2.60965e-08
1.47232e-08
-1.69389e-15
2.69303e-08
2.15273e-08
-1.49029e-15
2.70145e-08
2.88996e-08
-1.692e-15
2.60583e-08
3.61653e-08
-1.33782e-15
2.38703e-08
4.23055e-08
-1.39297e-15
2.04669e-08
4.6163e-08
-1.18841e-15
1.6121e-08
4.68719e-08
-1.02501e-15
1.12977e-08
4.42513e-08
-8.9003e-16
6.51942e-09
3.86665e-08
-5.37662e-16
2.35703e-09
2.98186e-08
-5.75169e-16
1.42051e-08
-8.80007e-17
-6.71265e-09
-3.9699e-08
-4.68924e-15
-6.41107e-09
-4.03047e-08
-4.83006e-15
-5.98058e-09
-4.06336e-08
-4.75499e-15
-5.42966e-09
-4.06867e-08
-4.64151e-15
-4.76899e-09
-4.04816e-08
-4.47306e-15
-4.01099e-09
-4.00287e-08
-4.33558e-15
-3.16916e-09
-3.93491e-08
-4.06078e-15
-2.25763e-09
-3.84626e-08
-3.86223e-15
-1.29082e-09
-3.73884e-08
-3.66468e-15
-2.82391e-10
-3.61569e-08
-3.43679e-15
7.54636e-10
-3.47862e-08
-3.04595e-15
1.80921e-09
-3.33031e-08
-3.29484e-15
2.87163e-09
-3.17303e-08
-3.042e-15
3.93383e-09
-3.00873e-08
-2.88737e-15
4.98942e-09
-2.83936e-08
-2.78213e-15
6.03388e-09
-2.66658e-08
-2.67889e-15
7.06475e-09
-2.49186e-08
-2.57147e-15
8.08179e-09
-2.31614e-08
-2.46512e-15
9.08747e-09
-2.14012e-08
-2.36387e-15
1.00869e-08
-1.96379e-08
-2.26829e-15
1.10886e-08
-1.78614e-08
-2.17883e-15
1.21047e-08
-1.60654e-08
-2.09889e-15
1.31507e-08
-1.42104e-08
-2.02583e-15
1.42457e-08
-1.226e-08
-1.96127e-15
1.54104e-08
-1.01425e-08
-1.90104e-15
1.66651e-08
-7.76698e-09
-1.84143e-15
1.80256e-08
-5.0142e-09
-1.74517e-15
1.94943e-08
-1.72007e-09
-1.83123e-15
2.10482e-08
2.29999e-09
-1.70416e-15
2.26201e-08
7.2431e-09
-1.55903e-15
2.40782e-08
1.32652e-08
-1.66471e-15
2.52074e-08
2.03981e-08
-1.49101e-15
2.57116e-08
2.83954e-08
-1.68897e-15
2.52584e-08
3.66185e-08
-1.37453e-15
2.35778e-08
4.39861e-08
-1.43155e-15
2.05904e-08
4.91503e-08
-1.22658e-15
1.64938e-08
5.09686e-08
-1.03652e-15
1.1729e-08
4.90161e-08
-9.46386e-16
6.85077e-09
4.35447e-08
-5.82437e-16
2.50253e-09
3.41668e-08
-5.71126e-16
1.67076e-08
-8.74076e-17
-5.73683e-09
-3.98105e-08
-4.74987e-15
-5.50935e-09
-4.05322e-08
-4.81572e-15
-5.1687e-09
-4.09743e-08
-4.75363e-15
-4.72063e-09
-4.11348e-08
-4.63564e-15
-4.17308e-09
-4.10291e-08
-4.45858e-15
-3.53572e-09
-4.06661e-08
-4.3252e-15
-2.81936e-09
-4.00654e-08
-4.05799e-15
-2.03563e-09
-3.92463e-08
-3.86439e-15
-1.19679e-09
-3.82272e-08
-3.67062e-15
-3.14866e-10
-3.70389e-08
-3.44899e-15
5.9835e-10
-3.56994e-08
-3.08509e-15
1.53253e-09
-3.42373e-08
-3.29987e-15
2.47847e-09
-3.26763e-08
-3.04335e-15
3.42835e-09
-3.10372e-08
-2.88713e-15
4.37575e-09
-2.9341e-08
-2.77548e-15
5.3158e-09
-2.76058e-08
-2.66693e-15
6.24534e-09
-2.58481e-08
-2.5557e-15
7.16318e-09
-2.40793e-08
-2.44642e-15
8.07047e-09
-2.23084e-08
-2.34224e-15
8.97083e-09
-2.05383e-08
-2.24361e-15
9.87095e-09
-1.87614e-08
-2.15098e-15
1.07812e-08
-1.69757e-08
-2.06773e-15
1.17156e-08
-1.51448e-08
-1.9915e-15
1.26925e-08
-1.32369e-08
-1.92377e-15
1.37334e-08
-1.11834e-08
-1.86065e-15
1.48617e-08
-8.89525e-09
-1.79913e-15
1.61e-08
-6.25263e-09
-1.71121e-15
1.74628e-08
-3.08275e-09
-1.77036e-15
1.89457e-08
8.16994e-10
-1.64996e-15
2.05079e-08
5.68089e-09
-1.5238e-15
2.2048e-08
1.17252e-08
-1.62137e-15
2.33791e-08
1.90669e-08
-1.47711e-15
2.42165e-08
2.75581e-08
-1.66989e-15
2.42056e-08
3.66294e-08
-1.39845e-15
2.30123e-08
4.51793e-08
-1.4594e-15
2.04637e-08
5.1699e-08
-1.26137e-15
1.66691e-08
5.47632e-08
-1.06154e-15
1.20259e-08
5.36593e-08
-1.00143e-15
7.10556e-09
4.8465e-08
-6.28067e-16
2.61843e-09
3.86539e-08
-5.54457e-16
1.9326e-08
-8.27989e-17
-4.8931e-09
-3.98812e-08
-4.74921e-15
-4.72276e-09
-4.07026e-08
-4.73368e-15
-4.45372e-09
-4.12433e-08
-4.70804e-15
-4.08968e-09
-4.14989e-08
-4.60636e-15
-3.63636e-09
-4.14824e-08
-4.43634e-15
-3.1012e-09
-4.12013e-08
-4.31415e-15
-2.49274e-09
-4.06739e-08
-4.0573e-15
-1.82036e-09
-3.99187e-08
-3.86777e-15
-1.09423e-09
-3.89534e-08
-3.67599e-15
-3.24663e-10
-3.78084e-08
-3.45936e-15
4.77882e-10
-3.65019e-08
-3.11928e-15
1.30391e-09
-3.50633e-08
-3.30083e-15
2.14483e-09
-3.35172e-08
-3.04338e-15
2.99321e-09
-3.18856e-08
-2.88583e-15
3.84279e-09
-3.01906e-08
-2.76867e-15
4.68856e-09
-2.84515e-08
-2.65567e-15
5.52694e-09
-2.66865e-08
-2.54115e-15
6.35602e-09
-2.49084e-08
-2.42931e-15
7.17592e-09
-2.31283e-08
-2.32245e-15
7.98892e-09
-2.13513e-08
-2.22103e-15
8.8001e-09
-1.95726e-08
-2.12536e-15
9.61797e-09
-1.77936e-08
-2.03893e-15
1.04548e-08
-1.59816e-08
-1.95936e-15
1.13271e-08
-1.41093e-08
-1.88822e-15
1.22559e-08
-1.21122e-08
-1.82172e-15
1.32655e-08
-9.90478e-09
-1.75749e-15
1.43821e-08
-7.36933e-09
-1.67435e-15
1.56282e-08
-4.32873e-09
-1.70665e-15
1.70137e-08
-5.68605e-10
-1.58759e-15
1.852e-08
4.1745e-09
-1.4717e-15
2.00756e-08
1.01697e-08
-1.56088e-15
2.1526e-08
1.76164e-08
-1.44823e-15
2.26101e-08
2.64741e-08
-1.6361e-15
2.29695e-08
3.627e-08
-1.41096e-15
2.22238e-08
4.59249e-08
-1.4768e-15
2.0115e-08
5.38078e-08
-1.28957e-15
1.66578e-08
5.82203e-08
-1.08504e-15
1.21895e-08
5.81276e-08
-1.04415e-15
7.28158e-09
5.3373e-08
-6.49724e-16
2.70311e-09
4.32324e-08
-5.31415e-16
2.20291e-08
-7.16459e-17
-4.16561e-09
-3.99226e-08
-4.78798e-15
-4.03908e-09
-4.08291e-08
-4.76668e-15
-3.82695e-09
-4.14554e-08
-4.70032e-15
-3.53132e-09
-4.17945e-08
-4.60837e-15
-3.15619e-09
-4.18575e-08
-4.4265e-15
-2.70721e-09
-4.16502e-08
-4.30103e-15
-2.19105e-09
-4.119e-08
-4.05392e-15
-1.61519e-09
-4.04945e-08
-3.8678e-15
-9.87867e-10
-3.95807e-08
-3.67851e-15
-3.17706e-10
-3.84786e-08
-3.4677e-15
3.86252e-10
-3.72059e-08
-3.14941e-15
1.11545e-09
-3.57925e-08
-3.30049e-15
1.86196e-09
-3.42637e-08
-3.04331e-15
2.61883e-09
-3.26424e-08
-2.88426e-15
3.38009e-09
-3.09518e-08
-2.76218e-15
4.14077e-09
-2.92122e-08
-2.64535e-15
4.89709e-09
-2.74428e-08
-2.52793e-15
5.64665e-09
-2.5658e-08
-2.41383e-15
6.38876e-09
-2.38704e-08
-2.30457e-15
7.12463e-09
-2.20872e-08
-2.20055e-15
7.85792e-09
-2.03058e-08
-2.10213e-15
8.59542e-09
-1.85312e-08
-2.01261e-15
9.34742e-09
-1.67335e-08
-1.92984e-15
1.01286e-08
-1.48905e-08
-1.8552e-15