/*--------------------------------*- C++ -*----------------------------------*\
| =========                 |                                                 |
| \\      /  F ield         | OpenFOAM: The Open Source CFD Toolbox           |
|  \\    /   O peration     | Version:  v2012                                 |
|   \\  /    A nd           | Website:  www.openfoam.com                      |
|    \\/     M anipulation  |                                                 |
\*---------------------------------------------------------------------------*/
FoamFile
{
    version     2.0;
    format      ascii;
    class       surfaceScalarField;
    location    "0.15";
    object      alphaPhi0.water;
}
// * * * * * * * * * * * * * * * * * * * * * * * * * * * * * * * * * * * * * //

dimensions      [0 3 -1 0 0 0 0];
oriented        oriented;


internalField   nonuniform List<scalar> 
8135
(
-5.55845e-17
-1.27652e-17
1.26595e-25
-6.11925e-68
-3.20728e-17
3.5825e-25
-4.18195e-78
3.39499e-64
-1.72131e-67
-1.46262e-94
5.79187e-76
1.1995e-86
-1.52083e-145
2.45039e-92
8.31807e-105
-4.14542e-192
3.63284e-143
-3.57094e-164
-1.36343e-201
1.37235e-189
-8.65469e-196
-4.81479e-199
5.83602e-199
-3.05794e-210
-2.14333e-196
2.56888e-196
-1.16852e-207
-1.17267e-193
1.39604e-193
-8.31818e-205
-7.79012e-191
9.21597e-191
-1.16822e-202
-6.26051e-188
7.34738e-188
2.80573e-200
-6.09506e-185
7.07775e-185
3.29524e-196
-7.22662e-182
8.28487e-182
-3.78508e-193
-1.05124e-178
1.18954e-178
-2.92007e-190
-1.89074e-175
2.11992e-175
-3.33601e-187
-4.2309e-172
4.75332e-172
-2.00773e-184
-1.17954e-168
1.36107e-168
4.36497e-180
-4.02933e-165
5.04809e-165
-2.36149e-176
-1.51688e-161
2.4349e-161
-1.38661e-172
1.28708e-157
-1.04431e-168
-8.5706e-18
-1.92977e-18
1.1749e-26
-9.60438e-37
-3.53692e-18
1.2388e-25
-3.07743e-77
8.78922e-36
7.16383e-45
-4.67923e-94
1.44354e-75
1.01179e-85
-4.94366e-147
2.74729e-92
-4.68094e-97
-1.74431e-182
3.63235e-143
-2.43404e-161
-3.67511e-184
1.93125e-180
-2.74913e-193
-4.51945e-182
5.24426e-182
-1.54927e-192
-6.9403e-180
8.03071e-180
4.51245e-190
-1.30095e-177
1.50485e-177
8.35885e-188
-2.94682e-175
3.40275e-175
2.51374e-185
-8.04637e-173
9.24882e-173
6.74962e-183
-2.65248e-170
3.02692e-170
2.34873e-180
-1.05991e-167
1.19971e-167
3.77959e-178
-5.1579e-165
5.80601e-165
1.95918e-175
-3.06603e-162
3.46225e-162
1.01561e-172
-2.2228e-159
2.56685e-159
6.88977e-170
-1.93812e-156
2.38316e-156
7.6205e-167
-2.42491e-153
3.26468e-153
-2.68443e-164
-7.35412e-150
1.20269e-149
-1.02377e-160
4.16985e-146
-3.5934e-158
-7.95844e-19
-7.02012e-19
2.00219e-27
-2.51503e-36
-1.12062e-18
9.53503e-27
-2.05498e-74
2.58187e-35
1.70859e-44
-2.20834e-93
6.21581e-73
5.8222e-83
-1.06039e-141
1.12004e-91
-2.25852e-99
-5.53375e-166
5.2198e-140
-1.17801e-146
-2.26655e-178
3.69434e-164
-1.84403e-169
-1.65428e-176
1.94328e-176
7.82438e-188
-1.51321e-174
1.76365e-174
2.28587e-184
-1.69817e-172
1.96723e-172
2.23284e-182
-2.31778e-170
2.6622e-170
3.74213e-180
-3.8401e-168
4.35922e-168
6.08051e-178
-7.72765e-166
8.65586e-166
1.27361e-175
-1.89113e-163
2.09432e-163
1.48812e-173
-5.62739e-161
6.20786e-161
4.65974e-171
-2.02911e-158
2.26416e-158
1.53605e-168
-8.7859e-156
1.01914e-155
6.49988e-166
-6.01708e-153
7.16099e-153
4.13147e-163
-1.34574e-149
1.34511e-149
4.76708e-161
-5.35974e-145
8.58351e-145
6.58138e-157
1.81163e-141
2.73732e-152
-3.08333e-19
-2.25202e-19
7.71283e-28
-3.815e-35
-3.12564e-19
3.20649e-27
-6.87125e-74
2.14222e-34
2.45437e-43
-1.13212e-92
1.59819e-72
2.13122e-82
-1.60451e-143
4.80685e-91
4.18251e-102
-1.53638e-164
5.21823e-140
-6.04958e-149
-3.08139e-174
7.37053e-163
-1.09642e-168
-1.58679e-172
1.89097e-172
7.86302e-183
-1.01417e-170
1.20868e-170
2.05052e-180
-7.92715e-169
9.41163e-169
1.16611e-178
-7.53962e-167
8.86681e-167
1.45435e-176
-8.72288e-165
1.0115e-164
1.7321e-174
-1.22757e-162
1.40233e-162
2.66707e-172
-2.09777e-160
2.37276e-160
2.14228e-170
-4.32923e-158
4.91156e-158
4.96672e-168
-1.06806e-155
1.24325e-155
1.19644e-165
-3.73615e-153
4.45386e-153
3.66309e-163
-2.02506e-150
2.02935e-150
1.22997e-160
-8.90205e-146
8.90051e-146
1.3283e-156
-2.56961e-141
4.0661e-141
6.57538e-152
6.18229e-138
2.03983e-148
-9.80713e-20
-7.25607e-20
2.50491e-28
-1.09511e-37
-8.8736e-20
9.77189e-28
-2.23245e-61
2.14112e-34
1.49119e-45
-2.75512e-82
4.31364e-60
9.06612e-70
-6.30431e-108
1.38178e-82
5.34396e-91
-1.96378e-163
1.77462e-106
9.37957e-117
-4.82476e-171
7.37332e-162
2.16511e-172
-1.83487e-169
2.30827e-169
2.07385e-179
-8.62496e-168
1.08746e-167
1.72719e-177
-4.96309e-166
6.22134e-166
4.61542e-176
-3.49223e-164
4.3125e-164
5.64439e-174
-3.01e-162
3.63839e-162
5.58898e-172
-3.17448e-160
3.75733e-160
7.18838e-170
-4.06958e-158
4.76405e-158
3.56445e-168
-6.2637e-156
7.40033e-156
7.35386e-166
-1.21911e-153
1.47558e-153
1.44698e-163
-3.64662e-151
3.68369e-151
2.34495e-161
-3.75155e-147
3.75331e-147
2.8773e-157
-1.31213e-142
1.3126e-142
3.3223e-153
-2.97079e-138
4.66735e-138
1.60406e-148
5.54306e-135
3.73149e-145
-3.24076e-20
-2.21102e-20
8.24996e-29
-1.78233e-34
-2.42378e-20
3.1402e-28
-7.3299e-61
7.30219e-34
1.30993e-42
-2.75696e-84
9.76428e-60
3.88728e-69
-4.07736e-109
1.35421e-82
1.16524e-92
-2.47984e-162
2.21291e-106
7.02116e-118
-1.59385e-168
7.66307e-161
7.63222e-171
-4.70722e-167
6.25315e-167
8.85984e-177
-1.73465e-165
2.28331e-165
2.90582e-175
-7.94322e-164
1.02295e-163
-2.44259e-175
-4.53071e-162
5.63928e-162
3.99885e-172
-3.22e-160
3.85543e-160
4.27325e-170
-2.82907e-158
3.28237e-158
5.56608e-168
-3.02968e-156
3.46729e-156
1.34785e-166
-3.98014e-154
4.57578e-154
3.59271e-164
-8.92919e-152
9.08418e-152
5.36979e-162
-2.89985e-148
2.90274e-148
1.79906e-158
-2.79797e-144
2.80152e-144
2.51847e-154
-8.00596e-140
8.01654e-140
2.699e-150
-1.49142e-135
2.33346e-135
1.23193e-145
2.27014e-132
2.51778e-142
-1.01936e-20
-6.30548e-21
2.48359e-29
-3.27112e-34
-6.32834e-21
9.40949e-29
-1.40483e-60
1.48641e-33
2.50787e-42
-9.6388e-84
1.71309e-59
8.84441e-69
-1.85955e-106
1.36173e-82
4.98364e-92
-3.83635e-164
3.09966e-105
9.31425e-115
-2.17581e-166
7.6633e-161
3.65337e-172
-5.73559e-165
7.23737e-165
1.47144e-174
-1.93419e-163
2.35439e-163
2.26225e-173
-8.26388e-162
9.64219e-162
-7.51925e-172
-4.42529e-160
4.95645e-160
3.83035e-171
-2.92546e-158
3.18017e-158
1.96852e-168
-2.34675e-156
2.51815e-156
3.5233e-166
-2.27692e-154
2.44988e-154
-1.42232e-165
-3.97324e-152
4.11289e-152
1.40537e-162
-2.43277e-149
2.43807e-149
1.02698e-159
-1.39105e-145
1.39377e-145
8.51203e-156
-1.13535e-141
1.13805e-141
1.13439e-151
-2.74773e-137
2.75488e-137
1.08035e-147
-4.34732e-133
6.78764e-133
4.68117e-143
5.5815e-130
8.49174e-140
-3.04789e-21
-1.61851e-21
6.76024e-30
-6.61727e-34
-1.52254e-21
2.58825e-29
-5.27976e-59
2.75569e-33
5.01732e-42
-1.03461e-83
4.08671e-58
3.59124e-67
-2.35375e-108
2.12846e-82
6.3338e-92
-4.35156e-126
3.15447e-105
4.82091e-110
-8.74812e-145
9.95397e-125
2.63673e-134
-5.88653e-163
1.71311e-141
4.95892e-144
-1.81003e-161
2.09375e-161
1.74018e-171
-6.94185e-160
7.81053e-160
-1.03234e-169
-3.27298e-158
3.60177e-158
-1.33315e-168
-1.86524e-156
2.03414e-156
5.52872e-167
-1.27143e-154
1.39492e-154
1.67533e-164
-1.3962e-152
1.50658e-152
-4.93924e-163
-2.33828e-150
2.36663e-150
3.49954e-161
-8.53204e-147
8.55453e-147
2.99967e-157
-4.23478e-143
4.24805e-143
2.57291e-153
-2.99341e-139
3.00448e-139
3.27372e-149
-6.27528e-135
6.30083e-135
2.77504e-145
-8.62423e-131
1.34561e-130
1.13246e-140
9.56314e-128
1.84379e-137
-8.31493e-22
-3.54891e-22
1.58935e-30
-1.32507e-33
-3.18337e-22
6.25972e-30
-5.56332e-61
5.06811e-33
9.43666e-42
-1.92226e-83
6.84025e-58
3.79368e-69
-1.21075e-105
2.81432e-82
1.25628e-91
-4.03865e-126
1.87331e-104
1.71871e-107
-7.45808e-143
8.17691e-125
2.7756e-134
-3.2204e-161
1.90151e-141
1.02359e-145
-8.36109e-160
1.01007e-159
9.17467e-170
-2.71568e-158
3.17854e-158
-5.1047e-168
-1.08337e-156
1.24067e-156
-7.2873e-167
-5.20201e-155
5.9382e-155
6.61787e-166
-3.33048e-153
3.78896e-153
3.96207e-163
-2.95193e-151
3.07524e-151
-1.26028e-161
-6.36664e-148
6.38778e-148
3.91426e-159
-2.08399e-144
2.09203e-144
6.46612e-155
-9.1175e-141
9.15836e-141
5.63572e-151
-5.68203e-137
5.71141e-137
6.76782e-147
-1.05033e-132
1.0563e-132
5.07099e-143
-1.27523e-128
1.99028e-128
1.93644e-138
1.24294e-125
2.82164e-135
-1.9492e-22
-6.2381e-23
3.06298e-31
-2.81409e-33
-5.20903e-23
1.25776e-30
-1.37603e-48
1.02348e-32
1.80632e-41
-5.7648e-83
4.60165e-48
7.12806e-57
-3.31481e-105
2.77556e-82
3.77057e-91
-1.12433e-125
4.61001e-104
2.87853e-107
-9.46065e-143
2.04088e-124
8.26854e-134
-9.50688e-160
2.41542e-141
8.09371e-145
-2.19941e-158
2.66498e-158
3.09438e-168
-6.4433e-157
7.46691e-157
-1.24782e-166
-2.32598e-155
2.62972e-155
-1.54746e-165
-1.05299e-153
1.17964e-153
1.64132e-164
-7.83253e-152
8.16005e-152
6.67265e-162
-5.67541e-149
5.69884e-149
-2.47651e-159
-1.29921e-145
1.30512e-145
4.85212e-157
-3.80083e-142
3.8207e-142
1.19651e-152
-1.48621e-138
1.49507e-138
9.82897e-149
-8.27961e-135
8.33564e-135
1.08284e-144
-1.36833e-130
1.37845e-130
7.26804e-141
-1.48711e-126
2.32324e-126
2.55077e-136
1.29139e-123
3.34025e-133
-3.53121e-23
-9.40527e-24
4.5907e-32
-7.1844e-33
-5.38016e-24
1.89319e-31
-8.53606e-51
2.57533e-32
4.03085e-41
-3.07943e-83
4.59311e-48
5.54849e-61
-8.54036e-107
2.49347e-82
2.22865e-91
-3.32831e-126
9.91909e-104
9.83949e-112
-1.26865e-141
2.94212e-125
2.5158e-134
-2.6204e-158
9.2079e-141
1.57937e-143
-5.95387e-157
6.63857e-157
1.01183e-166
-1.68054e-155
1.82573e-155
-2.8955e-165
-5.85533e-154
6.31806e-154
-2.72506e-164
-3.59886e-152
3.75914e-152
8.01835e-163
-5.96571e-150
6.01273e-150
4.89172e-160
-9.9284e-147
9.98028e-147
-4.4629e-157
-2.05645e-143
2.06867e-143
1.19422e-154
-5.43624e-140
5.47276e-140
1.92767e-150
-1.92101e-136
1.93554e-136
1.4014e-146
-9.673e-133
9.75494e-133
1.38733e-142
-1.44507e-128
1.45839e-128
8.4194e-139
-1.42075e-124
2.22286e-124
2.6893e-134
1.11104e-121
3.1551e-131
-3.98671e-24
-2.7513e-24
6.22559e-33
-2.35837e-32
-1.26618e-25
1.71779e-32
-1.67737e-48
8.30645e-32
1.12904e-40
-2.96165e-83
8.85274e-48
2.31792e-59
-2.36457e-99
2.46858e-82
8.50788e-91
-1.67699e-127
7.44917e-100
1.616e-107
-4.49537e-142
1.68179e-124
1.27613e-135
-5.94057e-157
3.18107e-140
1.61694e-143
-1.23472e-155
1.3711e-155
2.65536e-165
-3.15697e-154
3.48755e-154
-4.95051e-164
-1.26867e-152
1.37568e-152
-2.26384e-163
-7.512e-151
7.77045e-151
2.48866e-161
-9.0535e-148
9.10705e-148
8.92799e-158
-1.38797e-144
1.39717e-144
-5.8829e-155
-2.62122e-141
2.64073e-141
2.99614e-152
-6.31822e-138
6.3708e-138
2.68654e-148
-2.03604e-134
2.0549e-134
1.6747e-144
-9.35064e-131
9.4467e-131
1.48266e-140
-1.27419e-126
1.28836e-126
8.23224e-137
-1.14314e-122
1.79182e-122
2.36718e-132
8.12032e-120
2.49571e-129
-2.24113e-25
-1.767e-24
1.68804e-33
-9.0178e-32
-3.64532e-26
4.18451e-34
-2.43132e-48
3.02973e-31
3.59966e-40
-2.72451e-85
1.41936e-47
1.52635e-59
-6.66793e-101
2.46587e-82
3.01229e-93
-2.3745e-125
4.57718e-100
2.47316e-109
-4.25921e-140
4.66605e-124
1.79917e-133
-8.15263e-156
5.05022e-139
5.24676e-143
-1.51221e-154
1.73591e-154
4.06994e-164
-3.84929e-153
4.3653e-153
-4.94677e-163
-1.42129e-151
1.52576e-151
4.26448e-163
-9.63717e-149
9.70185e-149
4.41198e-159
-1.13309e-145
1.14136e-145
1.34299e-155
-1.5958e-142
1.6088e-142
-6.04683e-153
-2.76856e-139
2.79362e-139
5.22312e-150
-6.13103e-136
6.19245e-136
3.13751e-146
-1.81534e-132
1.8354e-132
1.68716e-142
-7.66128e-129
7.75441e-129
1.34238e-138
-9.59443e-125
9.72008e-125
6.86882e-135
-7.91182e-121
1.24274e-120
1.7706e-130
5.14179e-118
1.67519e-127
-8.95474e-26
-1.20175e-24
7.05926e-34
-3.49524e-31
-1.57904e-26
1.18861e-34
-5.06422e-48
1.09821e-30
1.13079e-39
-1.63609e-64
2.29319e-47
2.82916e-59
-8.26306e-101
9.55552e-64
8.36222e-73
-4.47564e-125
8.11048e-100
5.22981e-109
-7.37047e-142
7.94144e-124
3.35186e-133
-9.3518e-155
5.69976e-139
1.18316e-142
-1.74454e-153
1.9374e-153
5.01467e-163
-5.65342e-152
5.9733e-152
-4.44929e-162
-1.17956e-149
1.18938e-149
1.79904e-160
-1.09112e-146
1.09978e-146
6.66526e-157
-1.18683e-143
1.19729e-143
1.64275e-153
-1.54518e-140
1.56024e-140
-5.11431e-151
-2.47841e-137
2.50502e-137
6.67334e-148
-5.07466e-134
5.13453e-134
3.0771e-144
-1.38941e-130
1.40736e-130
1.45303e-140
-5.42283e-127
5.49936e-127
1.05097e-136
-6.28095e-123
6.37605e-123
5.03164e-133
-4.79022e-119
7.54131e-119
1.15392e-128
2.86525e-116
9.84122e-126
-4.84316e-26
-8.6302e-25
1.31127e-34
-1.28904e-30
-8.0873e-27
4.11371e-35
-3.13389e-50
3.75827e-30
3.24262e-39
-1.47245e-64
2.29006e-47
2.25572e-58
-6.93488e-100
9.1805e-64
6.79965e-73
-2.87184e-124
8.84446e-100
2.83486e-106
-1.57803e-139
3.39581e-123
2.11275e-132
-1.24817e-153
2.33432e-138
2.25098e-142
-2.32309e-152
2.65875e-152
6.71565e-162
-1.65978e-150
1.69927e-150
-9.76247e-161
-1.21376e-147
1.22416e-147
3.23989e-158
-1.04991e-144
1.05983e-144
7.9648e-155
-1.06141e-141
1.07245e-141
1.68004e-151
-1.28445e-138
1.29913e-138
-3.66765e-149
-1.91509e-135
1.93904e-135
6.68744e-146
-3.64545e-132
3.6952e-132
2.55577e-142
-9.28e-129
9.41783e-129
1.07846e-138
-3.36793e-125
3.42224e-125
7.1636e-135
-3.6275e-121
3.69004e-121
3.24009e-131
-2.57229e-117
4.05929e-117
6.61193e-127
1.42335e-114
5.08651e-124
-3.0691e-26
-6.51924e-25
-1.99937e-34
-4.35755e-30
-4.69925e-27
1.17117e-35
-1.31946e-45
1.17425e-29
7.95794e-39
-1.3548e-64
3.18687e-45
3.31688e-54
-1.03666e-100
7.75833e-64
5.8095e-73
-2.00373e-123
8.81138e-100
4.62132e-106
-3.41947e-139
2.20782e-122
1.44312e-131
-1.07803e-152
5.91003e-138
2.0053e-142
-3.0655e-151
3.25129e-151
6.13017e-161
-1.53303e-148
1.54722e-148
-8.48896e-159
-1.08074e-145
1.09159e-145
3.84847e-156
-8.72884e-143
8.82512e-143
7.73386e-153
-8.23997e-140
8.33944e-140
1.46182e-149
-9.31217e-137
9.43483e-137
-2.36862e-147
-1.29674e-133
1.31533e-133
5.43745e-144
-2.30568e-130
2.34155e-130
1.82163e-140
-5.48308e-127
5.57541e-127
6.99807e-137
-1.85914e-123
1.89296e-123
4.30152e-133
-1.87092e-119
1.90718e-119
1.88176e-129
-1.23925e-115
1.96048e-115
3.38702e-125
6.37147e-113
2.36454e-122
-2.28822e-26
-5.15464e-25
-4.09757e-34
-1.32839e-29
-3.19648e-27
-1.86626e-36
-8.16721e-48
3.31635e-29
1.54949e-38
-1.24755e-64
3.1787e-45
3.74519e-56
-1.38286e-101
5.32481e-64
4.84087e-73
-2.92801e-125
8.32955e-100
8.11187e-110
-5.58827e-139
2.3342e-122
2.06045e-133
-7.45275e-151
1.19151e-137
2.52223e-142
-2.26204e-149
2.22303e-149
4.24045e-159
-1.27084e-146
1.28425e-146
-7.35685e-157
-8.40144e-144
8.49905e-144
3.60802e-154
-6.36115e-141
6.44181e-141
6.39605e-151
-5.63015e-138
5.70784e-138
1.10119e-147
-5.96654e-135
6.05589e-135
-1.37297e-145
-7.79206e-132
7.9184e-132
3.76414e-142
-1.29952e-128
1.32228e-128
1.13459e-138
-2.89893e-125
2.95364e-125
4.01376e-135
-9.22139e-122
9.40855e-122
2.30329e-131
-8.70629e-118
8.89401e-118
9.69842e-128
-5.40885e-114
8.57829e-114
1.55857e-123
2.59375e-111
9.89802e-121
-2.08603e-26
-4.19414e-25
-5.56127e-34
-3.7273e-29
-2.6843e-27
-1.09268e-35
-2.15871e-45
8.72213e-29
1.98798e-38
-1.12673e-66
7.52861e-45
2.83578e-54
-1.11625e-100
5.31354e-64
3.9124e-75
-1.55461e-122
8.29871e-100
5.72111e-109
-4.49245e-138
1.50203e-121
1.06703e-130
-6.16883e-149
5.42633e-137
1.56086e-143
-1.76543e-147
1.72832e-147
3.46606e-157
-9.28662e-145
9.39881e-145
-6.03625e-155
-5.7743e-142
5.8508e-142
2.75088e-152
-4.11316e-139
4.17232e-139
4.52048e-149
-3.42564e-136
3.479e-136
7.23725e-146
-3.41663e-133
3.47413e-133
-7.77648e-144
-4.19992e-130
4.27611e-130
2.23327e-140
-6.59397e-127
6.72262e-127
6.23219e-137
-1.38492e-123
1.41392e-123
2.05623e-133
-4.14806e-120
4.24112e-120
1.11165e-129
-3.68779e-116
3.77544e-116
4.45097e-126
-2.15663e-112
3.42906e-112
6.51658e-122
9.67812e-110
3.79659e-119
-2.22578e-26
-3.40301e-25
-6.58536e-34
-1.01577e-28
-2.01834e-27
-2.06104e-35
-3.28075e-45
2.19423e-28
-7.54315e-39
-2.18792e-64
1.35212e-44
3.07979e-54
-1.16668e-100
1.28331e-64
6.70575e-73
-2.12596e-124
8.12394e-100
5.16561e-109
-1.20409e-137
1.50373e-121
1.42303e-132
-4.55335e-147
1.36634e-136
4.26834e-142
-1.22431e-145
1.19786e-145
2.51057e-155
-6.04595e-143
6.12859e-143
-4.40507e-153
-3.54683e-140
3.59977e-140
1.81779e-150
-2.38445e-137
2.42291e-137
2.83573e-147
-1.87468e-134
1.9073e-134
4.23932e-144
-1.76541e-131
1.79846e-131
-4.05872e-142
-2.04934e-128
2.09054e-128
1.17909e-138
-3.03886e-125
3.10433e-125
3.07275e-135
-6.02877e-122
6.1677e-122
9.50569e-132
-1.70581e-118
1.74777e-118
4.85693e-128
-1.43269e-114
1.46994e-114
1.80122e-124
-7.91236e-111
1.26128e-110
2.47826e-120
3.3327e-108
1.33197e-117
-2.19104e-26
-2.70874e-25
-7.10762e-34
-2.70095e-28
-1.66547e-27
-2.86474e-35
-9.12676e-45
4.26367e-28
-1.5276e-37
-1.95212e-66
2.83868e-44
5.15806e-54
-1.21606e-100
1.26575e-64
5.1916e-75
-9.53328e-122
7.91025e-100
5.54384e-109
-1.98782e-138
8.16245e-121
6.21317e-130
-3.00827e-145
4.14999e-136
4.88061e-141
-7.61827e-144
7.4495e-144
1.62142e-153
-3.54063e-141
3.5948e-141
-3.40235e-151
-1.9652e-138
1.99791e-138
1.044e-148
-1.25043e-135
1.27284e-135
1.57066e-145
-9.30732e-133
9.48655e-133
2.23007e-142
-8.29967e-130
8.47107e-130
-2.09882e-140
-9.12486e-127
9.32654e-127
5.50444e-137
-1.28169e-123
1.31195e-123
1.36521e-133
-2.40888e-120
2.46952e-120
3.99315e-130
-6.45759e-117
6.63059e-117
1.93692e-126
-5.13887e-113
5.28405e-113
7.16178e-123
-2.68801e-109
4.2958e-109
8.67311e-119
1.06546e-106
4.33932e-116
-3.2385e-26
-2.07198e-25
-7.06496e-34
-4.36875e-28
-5.29787e-27
-5.27804e-35
-5.69489e-47
6.23754e-28
-4.35917e-37
-3.07497e-65
2.83298e-44
4.24522e-56
-3.84102e-102
1.3137e-64
6.93879e-74
-1.75235e-121
7.67393e-100
2.18228e-110
-4.3875e-137
1.83685e-120
1.11146e-129
-1.7945e-143
8.48751e-136
1.49781e-142
-4.28958e-142
4.19213e-142
9.38736e-152
-1.8807e-139
1.91261e-139
-1.64549e-149
-9.90134e-137
1.00835e-136
5.38806e-147
-5.97818e-134
6.09622e-134
7.91693e-144
-4.22363e-131
4.31295e-131
1.07136e-140
-3.57585e-128
3.6567e-128
-9.90947e-139
-3.73326e-125
3.82332e-125
2.34899e-135
-4.98026e-122
5.10822e-122
5.55451e-132
-8.89101e-119
9.13389e-119
1.53893e-128
-2.26418e-115
2.32983e-115
7.08546e-125
-1.71173e-111
1.76396e-111
2.35245e-121
-8.50269e-108
1.36229e-107
2.79731e-117
3.17903e-105
1.30841e-114
-9.23983e-26
-9.73812e-26
-6.18047e-34
-7.3858e-28
-3.28753e-27
-2.20703e-34
-1.01353e-43
1.17773e-27
-1.29512e-36
-2.82722e-65
2.83353e-43
1.73415e-55
-1.29683e-100
1.21703e-64
5.25567e-74
-3.64887e-121
7.46667e-100
5.0852e-109
-1.0828e-135
3.66261e-120
2.24302e-129
-9.7397e-142
6.75386e-135
1.73959e-140
-2.20197e-140
2.15063e-140
4.93079e-150
-9.12703e-138
9.29739e-138
-8.9769e-148
-4.56828e-135
4.66049e-135
2.43502e-145
-2.62341e-132
2.68007e-132
3.59071e-142
-1.76344e-129
1.80412e-129
4.68844e-139
-1.42085e-126
1.45579e-126
-4.59877e-137
-1.41202e-123
1.44897e-123
9.03466e-134
-1.79332e-120
1.84317e-120
2.06951e-130
-3.04839e-117
3.13826e-117
5.47086e-127
-7.39234e-114
7.62307e-114
2.39665e-123
-5.32209e-110
5.49657e-110
6.51178e-120
-2.51656e-106
4.04218e-106
8.40612e-116
8.89401e-104
3.70446e-113
-5.46801e-26
-4.2882e-26
-3.12371e-34
-1.16839e-27
-8.35777e-28
-2.23022e-34
-1.16159e-43
1.30039e-27
-2.27364e-36
-2.54911e-65
3.31815e-43
-5.11398e-53
-1.33016e-100
1.04069e-64
3.74396e-74
-7.08448e-121
7.4511e-100
4.78449e-109
-4.9719e-136
7.48299e-120
4.19565e-129
-4.84219e-140
5.06938e-135
2.8601e-140
-1.03725e-138
1.01242e-138
2.34862e-148
-4.07264e-136
4.15569e-136
-4.50361e-146
-1.94208e-133
1.98479e-133
1.00854e-143
-1.06303e-130
1.08799e-130
1.50799e-140
-6.81334e-128
6.98373e-128
1.90132e-137
-5.23585e-125
5.37509e-125
-1.96751e-135
-4.96384e-122
5.10397e-122
3.23228e-132
-6.01513e-119
6.19509e-119
7.16564e-129
-9.75731e-116
1.00662e-115
1.80928e-125
-2.25815e-112
2.33366e-112
7.5721e-122
-1.55163e-108
1.60603e-108
1.8085e-118
-6.99966e-105
1.12712e-104
2.35617e-114
2.34287e-102
9.80546e-112
-2.57981e-26
-1.85509e-26
-1.64438e-34
-1.37175e-27
2.96539e-29
-1.19045e-34
-3.07872e-43
9.64181e-28
-2.43531e-36
-8.91194e-63
4.55696e-43
-2.69233e-52
-1.41667e-100
3.88491e-63
9.67708e-72
-8.25898e-119
7.53356e-100
4.63167e-109
-5.89441e-136
5.3917e-118
4.67039e-127
-2.21821e-138
5.54876e-135
1.16111e-139
-4.50963e-137
4.39867e-137
1.01518e-146
-1.68034e-134
1.71754e-134
-2.11153e-144
-7.64892e-132
7.83123e-132
3.66125e-142
-3.99858e-129
4.10005e-129
5.7724e-139
-2.44853e-126
2.51456e-126
7.11221e-136
-1.79823e-123
1.84968e-123
-7.6687e-134
-1.62963e-120
1.67902e-120
1.05536e-130
-1.88802e-117
1.94853e-117
2.29929e-127
-2.92851e-114
3.02761e-114
5.58497e-124
-6.48131e-111
6.71251e-111
2.24466e-120
-4.25912e-107
4.41815e-107
4.70657e-117
-1.83677e-103
2.96499e-103
6.23398e-113
5.83258e-101
2.46128e-110
-1.2133e-26
-7.5678e-27
-8.23976e-35
-1.05877e-27
1.85122e-28
-6.2157e-35
-1.9263e-45
5.7599e-28
-2.01784e-36
-1.57578e-64
4.53769e-43
-1.10028e-54
-1.28119e-100
3.72734e-63
5.62887e-74
-1.09888e-120
6.58302e-100
5.80751e-106
-9.22071e-136
5.40056e-118
5.91625e-129
-9.41235e-137
9.96483e-135
3.33599e-141
-1.81884e-135
1.77279e-135
4.03989e-145
-6.44243e-133
6.59649e-133
-9.2134e-143
-2.80449e-130
2.87655e-130
1.22286e-140
-1.40276e-127
1.44104e-127
2.07092e-137
-8.22181e-125
8.45981e-125
2.49182e-134
-5.78134e-122
5.95852e-122
-2.78358e-132
-5.01765e-119
5.1802e-119
3.24366e-129
-5.5683e-116
5.75869e-116
6.93326e-126
-8.27434e-113
8.57246e-113
1.62054e-122
-1.75452e-109
1.82104e-109
6.264e-119
-1.10472e-105
1.1485e-105
1.16219e-115
-4.56301e-102
7.38392e-102
1.55825e-111
1.37684e-99
5.82417e-109
-5.36615e-27
-2.87905e-27
-3.83295e-35
-6.46705e-28
1.41478e-28
-3.00715e-35
-4.53709e-43
2.92754e-28
-1.3551e-36
-2.65065e-63
4.74459e-43
-7.74032e-52
-1.38681e-100
9.30966e-63
9.3162e-73
-1.61111e-117
6.67351e-100
3.0099e-104
-3.40767e-134
1.00386e-116
8.24639e-126
-3.71659e-135
2.65681e-133
3.44103e-139
-6.8361e-134
6.65787e-134
1.48703e-143
-2.30543e-131
2.36469e-131
-3.7689e-141
-9.61378e-129
9.87884e-129
3.51809e-139
-4.60878e-126
4.74351e-126
6.8365e-136
-2.59005e-123
2.67018e-123
8.12556e-133
-1.74679e-120
1.8039e-120
-9.80466e-131
-1.45444e-117
1.50461e-117
9.1525e-128
-1.54875e-114
1.60503e-114
1.95495e-124
-2.20862e-111
2.29304e-111
4.42905e-121
-4.49484e-108
4.67531e-108
1.65256e-117
-2.71649e-104
2.83033e-104
2.7663e-114
-1.07654e-100
1.74631e-100
3.71823e-110
3.09112e-98
1.31795e-107
-2.20783e-27
-1.01385e-27
-1.64589e-35
-3.33671e-28
7.65646e-29
-1.3383e-35
-1.94409e-43
1.30363e-28
-7.68291e-37
-7.36636e-63
2.4869e-43
-3.94372e-52
-1.50712e-100
2.46667e-62
1.81783e-74
-3.50246e-117
7.11122e-100
3.50179e-109
-3.65755e-134
3.02315e-116
1.70865e-125
-5.26214e-134
5.70583e-133
8.18427e-139
-2.31993e-132
2.33981e-132
5.12139e-142
-7.72974e-130
7.94328e-130
-1.43576e-139
-3.09302e-127
3.18416e-127
9.21506e-138
-1.42343e-124
1.46782e-124
2.13652e-134
-7.68234e-122
7.93546e-122
2.50374e-131
-4.97741e-119
5.15041e-119
-3.15995e-129
-3.98241e-116
4.12819e-116
2.45432e-126
-4.0757e-113
4.23261e-113
5.22452e-123
-5.58702e-110
5.81289e-110
1.14777e-119
-1.09308e-106
1.13942e-106
4.14183e-116
-6.3512e-103
6.63184e-103
6.34753e-113
-2.41887e-99
3.93325e-99
8.45327e-109
6.61802e-97
2.83019e-106
-8.38322e-28
-3.28271e-28
-6.48781e-36
-1.50734e-28
3.39273e-29
-5.44675e-36
-8.40319e-44
5.17136e-29
-3.78835e-37
-6.50807e-65
9.32792e-44
-2.56071e-52
-1.76683e-100
2.46016e-62
-5.24966e-79
-1.66869e-116
8.26644e-100
3.58188e-109
-8.98735e-134
9.45567e-116
7.75219e-125
3.48512e-135
6.37682e-133
2.79511e-140
-7.20355e-131
7.45621e-131
1.58779e-140
-2.4365e-128
2.50876e-128
-5.12138e-138
-9.37129e-126
9.6654e-126
1.91096e-136
-4.14642e-123
4.28389e-123
6.18968e-133
-2.15242e-120
2.22769e-120
7.23706e-130
-1.34176e-117
1.39118e-117
-9.79398e-128
-1.03316e-114
1.07317e-114
6.0668e-125
-1.01779e-111
1.05918e-111
1.31535e-121
-1.3432e-108
1.40047e-108
2.82525e-118
-2.53021e-105
2.64316e-105
9.81238e-115
-1.41559e-101
1.48137e-101
1.41998e-111
-5.18913e-98
8.45809e-98
1.84748e-107
1.35448e-95
5.85073e-105
-2.91386e-28
-9.73123e-29
-2.33603e-36
-6.01609e-29
1.28327e-29
-2.01405e-36
-2.58998e-44
1.80993e-29
-1.63807e-37
-6.03013e-62
5.20374e-44
-2.35125e-52
-2.1993e-100
1.45692e-61
-5.67567e-74
-2.16207e-118
1.01802e-99
8.49018e-106
-1.30671e-132
9.44213e-116
9.58089e-127
-1.51623e-131
1.46889e-131
5.81365e-139
-2.2188e-129
2.2784e-129
4.71522e-139
-7.24585e-127
7.47437e-127
-1.70951e-136
-2.68205e-124
2.77141e-124
3.07986e-135
-1.14257e-121
1.18272e-121
1.71087e-131
-5.71289e-119
5.9243e-119
1.99086e-128
-3.43137e-116
3.5649e-116
-2.80413e-126
-2.54647e-113
2.65051e-113
1.43523e-123
-2.41821e-110
2.5218e-110
3.16072e-120
-3.07683e-107
3.21482e-107
6.64641e-117
-5.5884e-104
5.85045e-104
2.21651e-113
-3.0149e-100
3.16188e-100
3.0871e-110
-1.06527e-96
1.74047e-96
3.8689e-106
2.65577e-94
1.15414e-103
-9.21083e-29
-2.64178e-29
-7.66412e-37
-2.08978e-29
4.22041e-30
-6.73113e-37
-2.63706e-44
5.44543e-30
-6.11972e-38
-5.26822e-64
3.56758e-44
-4.14703e-52
-3.02097e-100
1.45165e-61
-1.45313e-75
-1.14169e-115
1.39633e-99
1.90908e-104
-2.04205e-131
2.14617e-115
4.81747e-124
-2.52214e-130
2.47333e-130
2.48584e-138
-6.46349e-128
6.66581e-128
1.33037e-137
-2.03824e-125
2.10641e-125
-5.37225e-135
-7.27034e-123
7.52679e-123
4.65952e-136
-2.98611e-120
3.09704e-120
4.4073e-130
-1.4401e-117
1.49635e-117
5.17316e-127
-8.34565e-115
8.68793e-115
-7.74761e-125
-5.97725e-112
6.23428e-112
3.12887e-122
-5.47918e-109
5.72586e-109
7.19462e-119
-6.73044e-106
7.04725e-106
1.4936e-115
-1.18029e-102
1.2383e-102
4.8558e-112
-6.14856e-99
6.46238e-99
6.56441e-109
-2.09691e-95
3.43412e-95
7.82609e-105
4.99825e-93
2.20348e-102
-2.64751e-29
-6.5787e-30
-2.29445e-37
-6.24043e-30
1.22668e-30
-2.03519e-37
-1.72435e-44
1.40447e-30
-1.95038e-38
-2.41763e-61
2.58534e-44
-6.41078e-52
-4.57343e-100
1.2211e-60
-2.75213e-74
-3.50134e-116
2.0672e-99
5.53486e-109
-6.13986e-130
1.67627e-115
1.40829e-124
-7.46329e-129
7.11551e-129
1.06638e-136
-1.78798e-126
1.84702e-126
3.55398e-136
-5.43641e-124
5.62871e-124
-1.58931e-133
-1.87112e-121
1.94082e-121
-2.00467e-132
-7.41916e-119
7.70979e-119
1.08903e-128
-3.45556e-116
3.5977e-116
1.28269e-125
-1.93467e-113
2.01811e-113
-1.99849e-123
-1.33901e-110
1.39947e-110
6.55263e-121
-1.18636e-107
1.24238e-107
1.57098e-117
-1.40873e-104
1.47819e-104
3.21801e-114
-2.38835e-101
2.51114e-101
1.03966e-110
-1.20294e-97
1.2671e-97
1.34958e-107
-3.9649e-94
6.50865e-94
1.52213e-103
9.04477e-92
4.02853e-101
-6.95217e-30
-1.49765e-30
-6.27829e-38
-1.63267e-30
3.19066e-31
-5.5986e-38
-1.30563e-44
3.23982e-31
-5.40765e-39
-4.55052e-61
2.03051e-44
-9.51955e-52
-6.82166e-100
1.2177e-60
-1.13524e-74
-4.5753e-118
3.09919e-99
6.52617e-109
-3.36963e-128
1.67739e-115
1.74991e-126
-2.1942e-127
1.93293e-127
2.08151e-136
-4.69468e-125
4.85685e-125
8.94316e-135
-1.37781e-122
1.42924e-122
-4.44819e-132
-4.58157e-120
4.76142e-120
-1.10173e-130
-1.75596e-117
1.82835e-117
2.51267e-127
-7.90855e-115
8.25043e-115
3.01099e-124
-4.28298e-112
4.47686e-112
-4.98698e-122
-2.86809e-109
3.00386e-109
1.25699e-119
-2.45916e-106
2.58073e-106
3.26182e-116
-2.82628e-103
2.97198e-103
6.63677e-113
-4.63815e-100
4.88717e-100
2.13874e-109
-2.26146e-96
2.38729e-96
2.68467e-106
-7.21264e-93
1.1868e-92
2.86559e-102
1.57607e-90
7.15191e-100
-1.66847e-30
-3.08441e-31
-1.56381e-38
-3.90459e-31
7.42167e-32
-1.40302e-38
-1.11655e-44
7.00052e-32
-1.36342e-39
-1.97786e-60
1.75508e-44
-1.3332e-51
-1.53477e-99
1.20939e-60
-1.9749e-74
-5.40308e-115
5.38395e-99
1.0935e-108
-4.75522e-127
5.10025e-115
1.96618e-123
-5.31791e-126
5.04933e-126
4.35101e-135
-1.17141e-123
1.21447e-123
2.12773e-133
-3.32429e-121
3.45498e-121
-1.17875e-130
-1.06927e-118
1.11342e-118
-3.93404e-129
-3.96603e-116
4.13778e-116
5.57084e-126
-1.72933e-113
1.80776e-113
6.84742e-123
-9.06992e-111
9.50013e-111
-1.17069e-120
-5.88354e-108
6.17501e-108
2.31637e-118
-4.8877e-105
5.14025e-105
6.51901e-115
-5.44331e-102
5.73628e-102
1.31507e-111
-8.65691e-99
9.1416e-99
4.18336e-108
-4.09091e-95
4.32804e-95
5.11746e-105
-1.26401e-91
2.08477e-91
5.19542e-101
2.64793e-89
1.21888e-98
-3.62313e-31
-5.6805e-32
-3.50841e-39
-8.69437e-32
1.52288e-32
-3.17279e-39
-1.0303e-44
1.402e-32
-3.18955e-40
-1.68357e-62
1.58946e-44
-1.82088e-51
-2.64256e-99
1.19255e-60
-2.02374e-74
-6.68818e-117
8.8908e-99
2.8743e-104
-2.31273e-125
5.05965e-115
2.30791e-125
-1.41729e-124
1.23953e-124
1.08475e-133
-2.78534e-122
2.89204e-122
4.77735e-132
-7.64777e-120
7.96392e-120
-2.96979e-129
-2.3823e-117
2.4856e-117
-1.24476e-127
-8.56132e-115
8.95018e-115
1.15422e-124
-3.61828e-112
3.79018e-112
1.45184e-121
-1.83993e-109
1.93125e-109
-2.65694e-119
-1.1575e-106
1.21742e-106
3.84408e-117
-9.32716e-104
9.83026e-104
1.24236e-113
-1.0077e-100
1.06425e-100
2.50009e-110
-1.55486e-97
1.64553e-97
7.84131e-107
-7.12936e-94
7.55935e-94
9.41091e-104
-2.13647e-90
3.53211e-90
9.12815e-100
4.29396e-88
2.02115e-97
-7.01233e-32
-9.31769e-33
-7.01335e-40
-1.74746e-32
2.72081e-33
-6.37913e-40
-9.71422e-45
2.44972e-33
-6.71574e-41
-6.2325e-61
1.45074e-44
-2.22457e-51
-1.79496e-99
7.31546e-61
-1.96314e-72
-1.39307e-115
1.01696e-98
1.5096e-105
-3.00752e-124
5.83486e-115
4.51181e-124
-3.10366e-123
2.93501e-123
2.63257e-132
-6.31227e-121
6.56884e-121
1.02063e-130
-1.67989e-118
1.75282e-118
-7.11485e-128
-5.07357e-116
5.30432e-116
-3.41351e-126
-1.76857e-113
1.85272e-113
2.30634e-123
-7.2528e-111
7.61334e-111
2.94359e-120
-3.57981e-108
3.76549e-108
-5.69092e-118
-2.18643e-105
2.30461e-105
6.07259e-116
-1.71082e-102
1.80705e-102
2.28522e-112
-1.79506e-99
1.9e-99
4.57632e-109
-2.69012e-96
2.85335e-96
1.41028e-105
-1.19814e-92
1.27325e-92
1.66396e-102
-3.48607e-89
5.77715e-89
1.5467e-98
6.72683e-87
3.22274e-96
-1.19965e-32
-1.37139e-33
-1.24562e-40
-3.01774e-33
4.24044e-34
-1.13089e-40
-9.18485e-45
3.55486e-34
-1.21047e-41
-5.20647e-63
1.325e-44
-2.42362e-51
-3.25451e-99
7.2634e-61
-3.62003e-74
-1.84752e-115
1.44344e-98
4.51773e-106
-7.03671e-123
7.43444e-115
5.69852e-124
-6.98021e-122
6.58859e-122
6.11333e-131
-1.36624e-119
1.42454e-119
2.0501e-129
-3.5271e-117
3.68773e-117
-1.62612e-126
-1.03396e-114
1.08323e-114
-8.80868e-125
-3.49985e-112
3.67412e-112
4.30569e-122
-1.3942e-109
1.46665e-109
5.7288e-119
-6.68651e-107
7.04863e-107
-1.17762e-116
-3.96912e-104
4.19286e-104
8.20398e-115
-3.01898e-101
3.19589e-101
4.01653e-111
-3.07952e-98
3.26688e-98
8.05233e-108
-4.48704e-95
4.7701e-95
2.44311e-104
-1.94322e-91
2.06977e-91
2.85121e-101