/*--------------------------------*- C++ -*----------------------------------*\
| =========                 |                                                 |
| \\      /  F ield         | OpenFOAM: The Open Source CFD Toolbox           |
|  \\    /   O peration     | Version:  v2012                                 |
|   \\  /    A nd           | Website:  www.openfoam.com                      |
|    \\/     M anipulation  |                                                 |
\*---------------------------------------------------------------------------*/
FoamFile
{
    version     2.0;
    format      ascii;
    class       volScalarField;
    location    "0.9";
    object      alpha.water;
}
// * * * * * * * * * * * * * * * * * * * * * * * * * * * * * * * * * * * * * //

dimensions      [0 0 0 0 0 0 0];


internalField   nonuniform List<scalar> 
2664
(
2.54887e-17
2.11935e-17
1.76244e-17
1.4242e-17
1.11041e-17
8.46738e-18
6.46756e-18
4.96357e-18
3.68332e-18
2.74155e-18
2.38123e-18
1.94999e-18
1.01678e-18
-1.25349e-55
1.76203e-31
2.27938e-30
2.06004e-30
3.15611e-29
3.08773e-33
8.1311e-53
2.46842e-43
5.20821e-42
1.28571e-49
8.13326e-53
3.97672e-52
-9.64563e-74
3.07689e-59
2.93721e-63
-3.93598e-101
1.99714e-71
5.91821e-319
-2.59394e-75
-3.18521e-77
-2.88538e-79
-1.49226e-81
-2.37203e-84
-7.29965e-88
3.13439e-17
2.45402e-17
1.98515e-17
1.60628e-17
1.25724e-17
9.50354e-18
7.10681e-18
5.37081e-18
3.97387e-18
2.88276e-18
2.43879e-18
2.04484e-18
1.31269e-18
2.55091e-20
5.45142e-33
1.9143e-30
1.77666e-30
2.74222e-28
7.51395e-32
8.1311e-53
8.1311e-53
8.1311e-53
8.1311e-53
8.81051e-53
2.76386e-51
-4.32433e-84
1.87013e-58
1.81661e-62
-5.67069e-150
2.00808e-70
1.41242e-74
-4.10851e-136
2.78845e-84
-2.38884e-83
-3.43979e-85
-1.24192e-87
-6.46414e-91
3.81271e-17
2.95872e-17
2.27248e-17
1.79637e-17
1.4074e-17
1.06269e-17
7.81902e-18
5.79453e-18
4.2583e-18
3.0387e-18
2.48775e-18
2.12133e-18
1.46953e-18
2.1949e-19
5.45142e-33
1.60835e-30
2.498e-30
4.01401e-28
1.06573e-31
8.1311e-53
4.71314e-37
1.54159e-40
8.1311e-53
8.1311e-53
1.44727e-50
1.54337e-56
6.41237e-69
6.41237e-69
1.43695e-65
7.02324e-70
1.95063e-81
8.16768e-78
1.30694e-82
-1.33403e-101
-9.03592e-89
-7.92078e-91
-5.69807e-94
4.19833e-17
3.51994e-17
2.68251e-17
2.0245e-17
1.5605e-17
1.17782e-17
8.58711e-18
6.2392e-18
4.53481e-18
3.19666e-18
2.53259e-18
2.18349e-18
1.59593e-18
3.94161e-19
5.45142e-33
9.67339e-31
2.33016e-30
3.17111e-30
1.9986e-30
8.1311e-53
1.52513e-36
5.88017e-40
8.1311e-53
8.1311e-53
5.63708e-50
3.64204e-57
3.64248e-57
6.41237e-69
6.41237e-69
6.41277e-69
1.95063e-81
1.95063e-81
1.95115e-81
-2.0552e-139
-1.0036e-106
-5.45529e-94
-5.00747e-97
4.15339e-17
3.8774e-17
3.13478e-17
2.32624e-17
1.73034e-17
1.29283e-17
9.37535e-18
6.70066e-18
4.80225e-18
3.34532e-18
2.57634e-18
2.23348e-18
1.6943e-18
5.71037e-19
5.45142e-33
5.6754e-31
2.31406e-30
2.59918e-30
8.05057e-30
1.76382e-33
4.6913e-41
4.68588e-41
1.37094e-43
8.1311e-53
1.85476e-49
8.60777e-54
2.47524e-64
2.51297e-64
2.43986e-64
2.22849e-76
2.22849e-76
2.22063e-76
-1.5867e-109
-2.07474e-168
8.51479e-91
1.67586e-96
-3.025e-100
5.13895e-17
4.01374e-17
3.45076e-17
2.66382e-17
1.93515e-17
1.41185e-17
1.01541e-17
7.16214e-18
5.05566e-18
3.47956e-18
2.61394e-18
2.27175e-18
1.77027e-18
7.4009e-19
5.45142e-33
3.9878e-31
2.29679e-30
2.42914e-30
2.05432e-29
1.09571e-32
4.69943e-41
3.00568e-39
2.00708e-42
8.1311e-53
4.80371e-49
3.07665e-53
2.47524e-64
2.47524e-64
8.47665e-64
1.33196e-67
2.22849e-76
6.32472e-76
1.7099e-80
-1.44872e-140
1.89324e-90
5.97769e-96
3.86779e-102
8.15921e-17
4.56765e-17
3.65654e-17
2.93603e-17
2.16269e-17
1.54238e-17
1.09165e-17
7.59762e-18
5.28909e-18
3.60044e-18
2.62809e-18
2.29799e-18
1.82926e-18
8.94542e-19
5.45142e-33
2.49809e-31
2.2202e-30
2.28351e-30
4.21496e-29
2.68307e-32
4.70619e-41
9.029e-39
4.86681e-42
8.1311e-53
1.07679e-48
1.19488e-52
2.47524e-64
1.80605e-60
2.43123e-63
2.9295e-71
2.9295e-71
3.99432e-76
4.54229e-85
4.54228e-85
3.24491e-90
9.61983e-96
6.6684e-102
9.17078e-17
6.84024e-17
3.99831e-17
3.12384e-17
2.36489e-17
1.67989e-17
1.16593e-17
7.99762e-18
5.50459e-18
3.68585e-18
2.62303e-18
2.31117e-18
1.8754e-18
1.03215e-18
5.45142e-33
1.60477e-31
2.19893e-30
2.14641e-30
7.27839e-29
5.29927e-32
4.71364e-41
2.01276e-38
1.01003e-41
8.1311e-53
2.12296e-48
3.58097e-52
2.47524e-64
2.3827e-59
7.95456e-63
2.9295e-71
5.81045e-71
2.18353e-75
4.54229e-85
6.67392e-85
4.50231e-90
1.20847e-95
8.45897e-102
9.05176e-17
7.88886e-17
5.35416e-17
3.36113e-17
2.50924e-17
1.80048e-17
1.23908e-17
8.39405e-18
5.67251e-18
3.70942e-18
2.60096e-18
2.31434e-18
1.91083e-18
1.10953e-18
4.60047e-20
8.30876e-32
1.93073e-30
2.00569e-30
1.09738e-28
8.92143e-32
4.72075e-41
3.6956e-38
1.83593e-41
8.1311e-53
3.76549e-48
8.95071e-52
2.47524e-64
8.52881e-59
1.64101e-62
2.9295e-71
8.1538e-71
2.87167e-75
4.5423e-85
7.73851e-85
4.80289e-90
1.16309e-95
8.71087e-102
7.72208e-17
7.72202e-17
6.28397e-17
3.96007e-17
2.63786e-17
1.89743e-17
1.31315e-17
8.73039e-18
5.72836e-18
3.69235e-18
2.59163e-18
2.31426e-18
1.93371e-18
1.16787e-18
9.03602e-20
8.30926e-32
1.80716e-30
1.88239e-30
1.48794e-28
1.32025e-31
4.72803e-41
5.82464e-38
2.97969e-41
8.1311e-53
6.15561e-48
1.93695e-51
2.47524e-64
1.69651e-58
2.30868e-62
2.92951e-71
9.26574e-71
3.05861e-75
6.19471e-80
7.14625e-85
4.02333e-90
8.59029e-96
6.61879e-102
1.1782e-16
6.22643e-17
6.2435e-17
4.54208e-17
2.87566e-17
2.00462e-17
1.36294e-17
8.84056e-18
5.7126e-18
3.67212e-18
2.60748e-18
2.31614e-18
1.94278e-18
1.20334e-18
1.27953e-19
8.3098e-32
1.78042e-30
1.80448e-30
1.84078e-28
1.7499e-31
4.73522e-41
8.09149e-38
4.33083e-41
8.1311e-53
9.45303e-48
3.83655e-51
2.47524e-64
2.14468e-58
2.51575e-62
2.92951e-71
8.66956e-71
2.6802e-75
5.03684e-80
5.27088e-85
2.61219e-90
4.74729e-96
3.39776e-102
1.9873e-16
8.1884e-17
5.98765e-17
4.63327e-17
3.19731e-17
2.08261e-17
1.37021e-17
8.81904e-18
5.68098e-18
3.69669e-18
2.58597e-18
2.31102e-18
1.94544e-18
1.21756e-18
1.52143e-19
8.31033e-32
1.70811e-30
1.78131e-30
2.06218e-28
2.06004e-31
4.74246e-41
1.00135e-37
5.76335e-41
8.1311e-53
1.43799e-47
6.84941e-51
2.47524e-64
2.28884e-58
2.25774e-62
2.92951e-71
6.76929e-71
1.93046e-75
3.29653e-80
3.06007e-85
1.30215e-90
1.92554e-96
1.38492e-102
1.99842e-16
1.43538e-16
4.93423e-17
4.91294e-17
3.4057e-17
2.09256e-17
1.36173e-17
8.72934e-18
5.68629e-18
3.71165e-18
2.54656e-18
2.29492e-18
1.94777e-18
1.22198e-18
1.649e-19
8.31086e-32
1.63775e-30
2.40952e-30
2.12513e-28
2.17108e-31
4.74967e-41
1.11935e-37
7.1084e-41
8.1311e-53
2.18753e-47
7.44993e-51
2.47524e-64
1.88135e-58
1.71233e-62
1.03652e-66
4.39589e-71
1.14301e-75
1.74166e-80
1.39514e-85
4.89647e-91
5.4834e-97
4.80312e-103
1.68512e-16
1.48063e-16
9.08489e-17
4.80068e-17
3.13059e-17
2.07207e-17
1.34648e-17
8.70761e-18
5.84114e-18
3.61038e-18
2.47404e-18
2.27771e-18
1.93554e-18
1.21518e-18
1.72954e-19
8.31139e-32
1.65643e-30
1.86162e-30
2.07533e-28
2.09414e-31
4.7569e-41
1.15908e-37
8.32838e-41
8.1311e-53
2.24486e-47
6.07243e-51
2.47524e-64
1.28964e-58
1.0914e-62
6.2933e-67
2.36793e-71
5.52341e-76
7.32675e-81
4.89879e-86
1.33781e-91
1.03037e-97
1.51316e-103
1.4196e-16
1.40459e-16
1.09246e-16
4.97123e-17
2.94287e-17
2.02775e-17
1.34258e-17
9.20876e-18
5.68461e-18
3.36589e-18
2.42313e-18
2.2564e-18
1.91672e-18
1.18385e-18
1.64187e-19
8.31192e-32
1.65056e-30
1.97481e-30
1.77325e-28
1.79739e-31
4.76412e-41
1.13178e-37
9.39029e-41
8.1311e-53
1.71646e-47
4.06662e-51
2.47524e-64
7.3831e-59
5.78434e-63
3.05079e-67
1.03879e-71
2.13199e-76
2.38957e-81
1.27249e-86
2.47298e-92
1.22875e-98
4.21965e-104
1.34579e-16
1.43319e-16
1.13124e-16
4.57595e-17
2.93101e-17
2.0152e-17
1.44225e-17
8.81686e-18
5.23961e-18
3.18228e-18
2.37907e-18
2.22914e-18
1.88681e-18
1.13164e-18
1.4324e-19
8.31245e-32
1.65293e-30
2.09579e-30
1.35026e-28
1.387e-31
4.77134e-41
1.06905e-37
9.03939e-41
8.1311e-53
1.06352e-47
2.20759e-51
2.47524e-64
3.45768e-59
2.49051e-63
1.19085e-67
3.59374e-72
6.31219e-77
5.75198e-82
2.25608e-87
2.78498e-93
1.17069e-99
9.60287e-105
1.34561e-16
8.51172e-17
8.52959e-17
6.51091e-17
2.92941e-17
2.16658e-17
1.36947e-17
8.13563e-18
4.9454e-18
2.95676e-18
2.34265e-18
2.19684e-18
1.844e-18
1.05422e-18
1.12168e-19
8.31298e-32
1.66129e-30
2.19436e-30
8.90123e-29
9.66153e-32
4.77856e-41
9.02927e-38
5.15481e-41
8.1311e-53
5.02832e-48
9.67398e-52
1.33516e-55
1.2925e-59
8.45454e-64
3.60101e-68
9.40364e-73
1.36132e-77
9.4514e-83
2.43246e-88
1.90683e-94
1.6044e-100
1.50453e-105
3.58644e-16
8.51172e-17
8.66616e-17
7.0083e-17
3.40623e-17
1.96855e-17
1.23859e-17
7.66942e-18
4.53036e-18
2.72112e-18
2.32291e-18
2.15966e-18
1.78365e-18
9.48085e-19
7.54996e-20
8.31351e-32
1.7234e-30
1.7234e-30
4.97652e-29
5.8675e-32
4.78578e-41
4.33206e-38
2.25808e-41
8.1311e-53
1.88524e-48
3.36651e-52
4.27065e-56
3.75391e-60
2.19417e-64
8.13498e-69
1.77307e-73
2.00683e-78
9.51705e-84
1.43652e-89
1.2624e-95
2.48802e-101
8.01363e-107
2.63079e-16
1.48203e-16
5.59343e-17
5.59331e-17
3.89125e-17
1.80196e-17
1.13946e-17
7.04724e-18
4.04011e-18
2.52415e-18
2.30671e-18
2.11796e-18
1.70031e-18
8.113e-19
3.94855e-20
8.31404e-32
1.06394e-31
4.35272e-27
2.32642e-29
2.32247e-36
2.73468e-35
1.82879e-38
5.86831e-46
2.42584e-45
5.51921e-49
9.06327e-53
1.04108e-56
8.19246e-61
4.18341e-65
1.30877e-69
2.26692e-74
1.82776e-79
5.08974e-85
5.87357e-91
1.27235e-96
3.49293e-102
-1.22293e-238
2.38484e-16
2.309e-16
9.29721e-17
4.14882e-17
2.75139e-17
1.72825e-17
1.0691e-17
6.24071e-18
3.52205e-18
2.39275e-18
2.28104e-18
2.06908e-18
1.58602e-18
6.4665e-19
1.09226e-20
8.31457e-32
1.82417e-30
5.17892e-27
1.18315e-29
2.32247e-36
9.6825e-36
5.2037e-39
5.86831e-46
5.87377e-46
1.22657e-49
1.82359e-53
1.8673e-57
1.28472e-61
5.56399e-66
1.40036e-70
1.78333e-75
8.82342e-81
1.50154e-86
3.09329e-92
1.233e-97
3.6857e-103
-8.79451e-107
3.48805e-16
1.86207e-16
5.5282e-17
3.82071e-17
2.5906e-17
1.6184e-17
9.42546e-18
5.36592e-18
3.05116e-18
2.3291e-18
2.24044e-18
2.00441e-18
1.42965e-18
4.59346e-19
2.0315e-31
2.03155e-31
2.0315e-31
2.68355e-27
3.59805e-30
2.32246e-36
2.32261e-36
1.02605e-39
3.62501e-43
1.05846e-46
2.00775e-50
2.64503e-54
2.36483e-58
1.38183e-62
4.85999e-67
9.18802e-72
7.50232e-77
2.00031e-82
4.06356e-88
1.89462e-93
9.01824e-99
-4.18935e-148
-3.96509e-107
1.18469e-16
1.21131e-16
8.41485e-17
3.91414e-17
2.27632e-17
1.37535e-17
8.07813e-18
4.51762e-18
2.67461e-18
2.30675e-18
2.18852e-18
1.91188e-18
1.21947e-18
2.77526e-19
2.0315e-31
2.0315e-31
2.59007e-26
5.00003e-28
9.74561e-36
6.75746e-34
4.08746e-37
1.60949e-40
5.87749e-44
1.38522e-47
2.32009e-51
2.64936e-55
2.00801e-59
9.57026e-64
2.55762e-68
3.19559e-73
1.35492e-78
3.01986e-84
1.55947e-89
9.38567e-95
4.21966e-100
1.03276e-106
-7.82666e-108
1.12245e-16
1.12243e-16
9.31042e-17
3.6998e-17
1.80587e-17
1.174e-17
6.79781e-18
3.69827e-18
2.43823e-18
2.28585e-18
2.12874e-18
1.77561e-18
9.51901e-19
1.3608e-19
2.0315e-31
5.39859e-31
4.12564e-26
9.85476e-29
9.74559e-36
9.8438e-35
5.22647e-38
2.06695e-41
6.04547e-45
1.25252e-48
1.7976e-52
1.73131e-56
1.06803e-60
3.88276e-65
7.00013e-70
4.50528e-75
1.1024e-80
6.57576e-86
4.65395e-91
3.30133e-96
1.61041e-101
3.76011e-108
-4.43823e-109
3.06758e-16
7.0979e-17
4.1223e-17
3.01686e-17
1.72126e-17
9.76697e-18
5.39518e-18
3.02239e-18
2.33612e-18
2.24209e-18
2.05152e-18
1.57164e-18
6.46681e-19
4.90602e-20
2.0315e-31
2.0315e-31
1.01219e-26
1.65131e-29
9.74556e-36
9.74555e-36
4.68054e-39
1.63648e-42
4.171e-46
7.31452e-50
8.74698e-54
6.80022e-58
3.18612e-62
7.83168e-67
7.17019e-72
1.52713e-77
1.14875e-82
1.17237e-87
9.71591e-93
7.82182e-98
4.06695e-103
7.5114e-110
-7.4622e-111
2.80585e-16
8.08607e-17
2.91775e-17
2.48914e-17
1.44152e-17
7.71496e-18
4.15627e-18
2.58481e-18
2.29721e-18
2.18054e-18
1.93197e-18
1.27481e-18
3.56541e-19
1.11065e-20
2.0315e-31
1.37796e-25
1.09781e-27
1.16106e-33
1.16108e-33
6.63759e-37
2.77484e-40
8.34124e-44
1.77252e-47
2.53686e-51
2.41051e-55
1.39885e-59
4.31357e-64
4.83166e-69
-3.12642e-100
3.83999e-80
1.48357e-84
1.21921e-89
1.26762e-94
1.12143e-99
7.65462e-105
1.07481e-110
-5.74163e-113
1.27259e-16
1.0916e-16
3.78185e-17
1.62792e-17
1.07635e-17
5.88784e-18
3.20788e-18
2.3777e-18
2.25425e-18
2.10321e-18
1.73199e-18
8.88485e-19
1.44716e-19
1.41263e-21
2.0315e-31
5.75076e-26
9.5228e-29
8.73416e-32
5.82942e-35
2.85944e-38
1.00505e-41
2.46078e-45
4.14576e-49
4.58279e-53
3.12147e-57
1.09559e-61
1.02129e-66
-3.47317e-118
-6.84031e-106
8.46226e-82
3.08068e-87
6.84834e-92
8.50122e-97
8.52154e-102
6.48286e-107
3.90805e-112
-2.71687e-115
1.23856e-16
8.57785e-17
1.99695e-17
1.4037e-17
8.1141e-18
4.21425e-18
2.62786e-18
2.29843e-18
2.1897e-18
1.98201e-18
1.40066e-18
4.81097e-19
3.88467e-20
2.45814e-22
1.178e-24
3.84113e-27
4.04858e-30
3.12179e-33
1.73586e-36
6.92463e-40
1.90238e-43
3.53385e-47
4.34349e-51
3.1077e-55
9.4959e-60
-1.25931e-141
-5.02793e-94
-6.02535e-93
1.15605e-79
-2.92025e-213
0
4.60456e-95
1.28125e-99
2.15784e-104
2.4712e-109
8.56555e-115
-6.65422e-118
1.3607e-16
2.54565e-17
1.87324e-17
1.07952e-17
5.48296e-18
3.08646e-18
2.37509e-18
2.23954e-18
2.10379e-18
1.74891e-18
9.23139e-19
1.75904e-19
6.45961e-21
4.49773e-23
9.28712e-26
1.11608e-28
9.49343e-32
5.82089e-35
2.47122e-38
7.09935e-42
1.35056e-45
1.53731e-49
7.24623e-54
-3.62287e-77
-4.72049e-87
-3.39153e-143
-4.21601e-98
-6.27843e-90
6.427e-100
-2.21206e-101
-5.7325e-127
-5.69681e-111
-1.77284e-130
-1.13909e-120
2.53309e-113
2.44678e-117
-3.15411e-121
5.47116e-17
3.49685e-17
1.27682e-17
6.73041e-18
3.70163e-18
2.52528e-18
2.27147e-18
2.16425e-18
1.94515e-18
1.31192e-18
4.19851e-19
3.54787e-20
4.84267e-22
1.2447e-24
1.60881e-27
1.42387e-30
8.50719e-34
3.27553e-37
7.45807e-41
6.44276e-45
-2.07514e-73
0
-8.51735e-104
-4.43515e-85
-3.04884e-128
-5.14558e-133
-2.50169e-90
-4.16387e-111
-9.42918e-127
-1.1471e-148
1.80568e-164
-2.69309e-112
-2.23583e-166
-1.82406e-128
-2.21108e-182
-1.18542e-133
-3.05792e-125
4.87964e-17
1.41666e-17
8.12007e-18
4.34459e-18
2.71447e-18
2.30289e-18
2.19404e-18
2.04547e-18
1.57889e-18
6.89906e-19
9.71862e-20
2.42549e-21
8.0632e-24
8.53009e-27
5.09129e-30
6.05933e-34
-3.16447e-100
-1.10703e-65
-2.18106e-68
-2.69611e-103
-5.05779e-76
4.01143e-222
-6.70128e-78
-4.28764e-82
-1.20987e-135
-2.0136e-113
-9.01358e-124
-8.04234e-121
0
-6.87154e-124
-6.05049e-145
0
-9.80139e-122
-1.89902e-127
-4.04629e-131
-3.00597e-137
-3.79726e-130
1.56557e-17
9.2694e-18
4.79361e-18
2.85908e-18
2.32758e-18
2.20411e-18
2.09315e-18
1.72966e-18
8.87076e-19
1.68855e-19
6.11925e-21
1.65296e-23
-3.13444e-82
-6.82492e-98
-5.2037e-57
-2.98393e-87
-5.94803e-88
3.03915e-194
-1.04029e-115
-2.5325e-138
-3.763e-79
-1.85561e-103
-2.85992e-81
-5.78209e-91
3.86039e-147
-4.84472e-90
0
1.54856e-239
-1.38237e-160
0
-1.04265e-136
-9.00234e-188
-6.7414e-125
0
-4.68227e-135
-4.83759e-142
-3.28034e-129
9.6154e-18
4.81671e-18
2.85416e-18
2.3168e-18
2.19705e-18
2.10758e-18
1.7727e-18
9.50344e-19
1.96988e-19
7.21165e-21
-6.45305e-49
-1.29269e-51
-6.36193e-53
-4.62007e-110
-1.28684e-81
-2.84781e-97
-4.27799e-61
-4.07992e-121
-1.61956e-155
-1.96836e-77
-1.90127e-104
-4.82187e-86
-1.20773e-127
-8.42795e-89
-4.7907e-102
-6.55504e-92
-1.56393e-180
-2.61958e-121
-9.64554e-108
-5.09095e-155
-1.7478e-143
-7.33683e-138
-1.06765e-148
1.65924e-189
0
-9.59789e-129
-6.1849e-132
4.21301e-18
2.62503e-18
2.2454e-18
2.17293e-18
2.08505e-18
1.68249e-18
8.19354e-19
1.36084e-19
2.13715e-21
-7.84915e-48
-5.55243e-51
-5.92111e-81
-1.50505e-77
-1.39712e-53
-3.6033e-79
-8.28392e-61
-2.01647e-64
-3.10666e-112
-9.42432e-77
-4.89677e-111
-6.64701e-85
-4.24865e-89
-1.42704e-93
-1.02054e-111
3.65605e-134
-3.60625e-95
-1.69088e-99
-1.26158e-130
-5.82089e-114
2.37072e-104
5.74489e-109
6.10561e-114
-1.45443e-143
4.74408e-169
7.67976e-320
-1.25311e-130
-4.66234e-135
2.23735e-18
2.16303e-18
2.13548e-18
1.95525e-18
1.33434e-18
4.20112e-19
2.69133e-20
-1.74461e-46
-5.54253e-48
-1.14976e-46
-4.00526e-53
-4.88636e-70
-1.62834e-46
-6.00927e-51
-3.43689e-117
-3.18527e-87
-1.44841e-103
-3.85763e-95
-2.15607e-105
-1.11208e-104
-1.12597e-128
0
9.01968e-96
2.08331e-95
-1.24407e-170
-4.44579e-123
-1.59487e-106
2.30438e-203
-1.76768e-138
-3.30504e-119
6.98135e-133
3.38081e-182
3.38079e-182
4.28816e-156
1.0776e-135
-7.853e-134
-1.50993e-138
2.10588e-18
2.00979e-18
1.32565e-18
3.75012e-19
1.81826e-20
-1.59936e-41
-5.33685e-47
-3.66828e-115
-1.43974e-74
0
1.16993e-51
2.37767e-51
1.12505e-51
7.77031e-55
9.36029e-53
2.14749e-56
3.66943e-60
4.70703e-64
4.44771e-68
3.22539e-72
1.91031e-76
7.54812e-81
2.15321e-85
4.6427e-90
8.63487e-95
1.48522e-99
-1.36068e-149
2.77681e-177
4.38902e-225
-2.16097e-178
-2.59989e-160
5.38647e-140
1.2838e-139
2.17578e-141
1.01525e-136
-1.42084e-137
-1.92985e-142
3.22448e-19
4.526e-20
4.16911e-39
4.16909e-39
4.16907e-39
4.1698e-39
8.90302e-39
1.74518e-38
1.74517e-38
1.70373e-41
9.87569e-45
4.86766e-48
2.32283e-51
7.04134e-55
2.36119e-58
4.83945e-62
7.36311e-66
8.60813e-70
7.44858e-74
4.87531e-78
2.31575e-82
8.1426e-87
2.13695e-91
4.74415e-96
1.01338e-100
2.6728e-105
7.22288e-110
3.1221e-114
9.9536e-119
1.9405e-123
3.66665e-128
3.77114e-133
2.50127e-138
4.35141e-141
1.10878e-177
-5.63816e-142
-5.40225e-147
2.5489e-17
2.11934e-17
1.76243e-17
1.4242e-17
1.11041e-17
8.46739e-18
6.46755e-18
4.96358e-18
3.68334e-18
2.74152e-18
2.38122e-18
1.95005e-18
1.01706e-18
-1.2497e-31
1.20294e-31
2.177e-30
2.04347e-30
3.17072e-29
3.10987e-33
8.1311e-53
2.56585e-43
5.21348e-42
2.01357e-51
8.13326e-53
3.98384e-52
-8.23883e-81
3.08203e-59
2.94116e-63
-3.21227e-147
1.87382e-71
-2.41124e-89
-1.19189e-75
-1.57165e-77
-1.46292e-79
-7.64046e-82
-1.22328e-84
-3.78686e-88
3.13441e-17
2.45404e-17
1.98515e-17
1.60628e-17
1.25724e-17
9.50355e-18
7.1068e-18
5.37082e-18
3.97388e-18
2.88275e-18
2.43877e-18
2.04489e-18
1.31285e-18
2.56857e-20
5.45142e-33
1.78463e-30
1.77666e-30
2.74383e-28
7.52437e-32
8.1311e-53
8.1311e-53
8.1311e-53
8.1311e-53
8.81009e-53
2.7687e-51
-1.05401e-90
1.87259e-58
1.81977e-62
-1.77537e-111
1.93424e-70
1.42488e-74
-1.71969e-97
9.48908e-84
-1.21398e-83
-1.77794e-85
-6.45783e-88
-3.37489e-91
3.81266e-17
2.95874e-17
2.27249e-17
1.79637e-17
1.4074e-17
1.06269e-17
7.819e-18
5.79453e-18
4.25831e-18
3.03869e-18
2.48772e-18
2.12136e-18
1.46968e-18
2.19685e-19
5.45142e-33
1.56672e-30
2.50939e-30
4.01401e-28
1.06519e-31
8.1311e-53
4.72095e-37
1.55192e-40
8.1311e-53
8.1311e-53
1.44942e-50
1.55046e-56
6.41237e-69
6.41251e-69
1.43851e-65
1.56954e-69
1.95063e-81
8.18511e-78
4.71884e-82
-1.89865e-165
-4.49653e-89
-4.13855e-91
-2.98861e-94
4.19823e-17
3.51993e-17
2.68253e-17
2.02451e-17
1.5605e-17
1.17782e-17
8.58709e-18
6.2392e-18
4.53482e-18
3.19666e-18
2.53256e-18
2.18351e-18
1.59605e-18
3.94388e-19
5.45142e-33
7.49319e-31
2.29448e-30
3.16849e-30
2.00363e-30
8.1311e-53
1.52711e-36
5.88853e-40
8.1311e-53
8.1311e-53
5.64626e-50
3.64204e-57
3.64654e-57
4.01821e-61
6.41237e-69
6.42769e-69
3.22268e-73
1.95063e-81
1.95666e-81
1.2841e-86
-6.84841e-106
-2.62639e-94
-2.62715e-97
4.15326e-17
3.87735e-17
3.13477e-17
2.32625e-17
1.73034e-17
1.29283e-17
9.37532e-18
6.70066e-18
4.80226e-18
3.34532e-18
2.57631e-18
2.23349e-18
1.6944e-18
5.71283e-19
5.45142e-33
4.77814e-31
2.2822e-30
2.59873e-30
8.0654e-30
1.77428e-33
4.69943e-41
5.05499e-41
5.54785e-43
8.1311e-53
1.85757e-49
8.60168e-54
2.47524e-64
2.51244e-64
2.44295e-64
2.22849e-76
2.22902e-76
2.22693e-76
7.71883e-82
-9.87841e-125
8.52752e-91
1.93637e-96
-1.11083e-100
5.13915e-17
4.01368e-17
3.45073e-17
2.66382e-17
1.93515e-17
1.41186e-17
1.01541e-17
7.16214e-18
5.05567e-18
3.47957e-18
2.61391e-18
2.27175e-18
1.77035e-18
7.40345e-19
5.45142e-33
3.58652e-31
2.28775e-30
2.42887e-30
2.05686e-29
1.09713e-32
4.70619e-41
3.01061e-39
1.99096e-42
8.1311e-53
4.81153e-49
3.12159e-53
2.47524e-64
2.47524e-64
8.48165e-64
1.3325e-67
2.22849e-76
6.32827e-76
1.71303e-80
-3.06272e-135
1.89619e-90
5.9833e-96
4.01548e-102
8.15912e-17
4.56777e-17
3.65652e-17
2.93602e-17
2.16269e-17
1.54238e-17
1.09165e-17
7.59762e-18
5.2891e-18
3.60044e-18
2.62807e-18
2.29799e-18
1.82933e-18
8.94788e-19
5.45142e-33
1.98783e-31
2.17577e-30
2.28245e-30
4.22029e-29
2.68676e-32
4.71364e-41
9.04347e-39
4.87275e-42
8.1311e-53
1.07835e-48
1.19632e-52
2.47524e-64
1.81172e-60
2.43445e-63
2.9295e-71
2.93368e-71
5.11845e-76
4.54229e-85
4.54921e-85
3.25577e-90
9.63439e-96
6.68833e-102
9.17073e-17
6.8402e-17
3.99835e-17
3.12383e-17
2.36489e-17
1.6799e-17
1.16593e-17
7.99763e-18
5.5046e-18
3.68585e-18
2.62301e-18
2.31117e-18
1.87545e-18
1.03238e-18
5.45142e-33
8.30776e-32
2.19485e-30
2.14547e-30
7.28544e-29
5.30611e-32
4.72075e-41
2.01571e-38
1.01218e-41
8.1311e-53
2.12647e-48
3.58814e-52
2.47524e-64
2.38786e-59
7.96587e-63
2.9295e-71
5.81875e-71
2.18722e-75
4.5423e-85
6.68621e-85
4.50924e-90
1.21043e-95
8.48285e-102
9.05178e-17
7.88882e-17
5.35415e-17
3.36114e-17
2.50923e-17
1.80048e-17
1.23907e-17
8.39406e-18
5.67252e-18
3.70942e-18
2.60094e-18
2.31434e-18
1.91087e-18
1.10966e-18
4.60983e-20
8.30816e-32
1.83188e-30
1.99802e-30
1.09847e-28
8.93232e-32
4.72803e-41
3.70052e-38
1.83805e-41
8.1311e-53
3.77041e-48
8.96276e-52
2.47524e-64
8.54025e-59
1.64316e-62
2.92951e-71
8.17593e-71
2.87558e-75
4.54231e-85
7.74737e-85
4.81006e-90
1.16492e-95
8.72346e-102
7.7221e-17
7.72203e-17
6.28396e-17
3.96007e-17
2.63786e-17
1.89743e-17
1.31314e-17
8.7304e-18
5.72837e-18
3.69235e-18
2.59162e-18
2.31426e-18
1.93374e-18
1.16797e-18
9.04438e-20
8.30876e-32
1.78314e-30
1.88073e-30
1.48905e-28
1.32176e-31
4.73522e-41
5.83153e-38
2.9828e-41
8.1311e-53
6.16276e-48
1.93928e-51
2.47524e-64
1.69854e-58
2.31146e-62
2.92951e-71
9.26665e-71
3.06262e-75
6.20303e-80
7.15601e-85
4.02904e-90
8.6032e-96
6.6278e-102
1.1782e-16
6.22643e-17
6.2435e-17
4.54207e-17
2.87566e-17
2.00463e-17
1.36293e-17
8.84057e-18
5.71261e-18
3.67212e-18
2.60747e-18
2.31614e-18
1.9428e-18
1.20341e-18
1.2802e-19
8.30926e-32
1.77453e-30
1.80368e-30
1.84195e-28
1.75099e-31
4.74246e-41
8.09862e-38
4.33506e-41
8.1311e-53
9.46276e-48
3.84059e-51
2.47524e-64
2.14705e-58
2.51848e-62
2.92951e-71
8.6796e-71
2.68341e-75
5.04302e-80
5.2775e-85
2.6156e-90
4.75392e-96
3.40194e-102
1.98728e-16
8.18853e-17
5.98764e-17
4.63326e-17
3.1973e-17
2.08262e-17
1.3702e-17
8.81906e-18
5.68099e-18
3.69669e-18
2.58597e-18
2.31102e-18
1.94546e-18
1.21761e-18
1.52191e-19
8.3098e-32
1.68003e-30
1.77945e-30
2.06297e-28
2.05952e-31
4.74967e-41
1.00161e-37
5.76714e-41
8.1311e-53
1.43915e-47
6.85493e-51
2.47524e-64
2.29017e-58
2.25984e-62
2.92951e-71
6.7762e-71
1.93248e-75
3.30008e-80
3.06346e-85
1.30366e-90
1.92794e-96
1.38675e-102
1.99842e-16
1.43537e-16
4.93432e-17
4.91294e-17
3.40569e-17
2.09256e-17
1.36173e-17
8.72936e-18
5.6863e-18
3.71165e-18
2.54656e-18
2.29492e-18
1.94778e-18
1.22202e-18
1.64936e-19
8.31033e-32
1.63046e-30
2.41222e-30
2.12513e-28
2.17228e-31
4.7569e-41
1.11994e-37
7.1125e-41
8.1311e-53
2.1888e-47
7.45474e-51
2.47524e-64
1.88338e-58
1.71362e-62
1.03733e-66
4.39953e-71
1.144e-75
1.74321e-80
1.39643e-85
4.90121e-91
5.48924e-97
4.81407e-103
1.68504e-16
1.48061e-16
9.08509e-17
4.80071e-17
3.13058e-17
2.07208e-17
1.34647e-17
8.70763e-18
5.84115e-18
3.61038e-18
2.47404e-18
2.27771e-18
1.93554e-18
1.2152e-18
1.72978e-19
8.31086e-32
1.6566e-30
1.86137e-30
2.07654e-28
2.09419e-31
4.76412e-41
1.15908e-37
8.33117e-41
8.1311e-53
2.24486e-47
6.07517e-51
2.47524e-64
1.29033e-58
1.092e-62
6.29695e-67
2.3694e-71
5.52699e-76
7.33174e-81
4.90226e-86
1.33882e-91
1.03124e-97
1.52061e-103
1.41958e-16
1.40455e-16
1.09246e-16
4.97131e-17
2.94287e-17
2.02775e-17
1.34257e-17
9.20878e-18
5.68462e-18
3.36588e-18
2.42313e-18
2.2564e-18
1.91672e-18
1.18386e-18
1.64196e-19
8.31139e-32
1.65056e-30
1.97479e-30
1.77341e-28
1.79775e-31
4.77134e-41
1.13233e-37
9.39249e-41
8.1311e-53
1.71777e-47
4.06776e-51
2.47524e-64
7.38565e-59
5.78641e-63
3.05195e-67
1.03921e-71
2.13291e-76
2.39065e-81
1.27309e-86
2.47422e-92
1.2294e-98
4.25644e-104
1.34579e-16
1.43319e-16
1.13123e-16
4.57596e-17
2.93101e-17
2.0152e-17
1.44224e-17
8.81686e-18
5.23962e-18
3.18227e-18
2.37908e-18
2.22914e-18
1.88681e-18
1.13164e-18
1.4324e-19
8.31192e-32
1.65294e-30
2.09578e-30
1.35031e-28
1.38709e-31
4.77856e-41
1.06913e-37
9.04026e-41
8.1311e-53
1.06363e-47
2.20789e-51
2.47524e-64
3.45831e-59
2.49098e-63
1.19108e-67
3.59453e-72
6.31366e-77
5.75337e-82
2.25665e-87
2.78567e-93
1.17079e-99
9.81785e-105
1.34562e-16
8.51172e-17
8.52957e-17
6.51085e-17
2.92942e-17
2.16658e-17
1.36947e-17
8.13565e-18
4.94542e-18
2.95676e-18
2.34265e-18
2.19685e-18
1.844e-18
1.05421e-18
1.12163e-19
8.31245e-32
1.6613e-30
2.19437e-30
8.90099e-29
9.66137e-32
4.78578e-41
9.02924e-38
5.15485e-41
8.1311e-53
5.02833e-48
9.67423e-52
1.33523e-55
1.29257e-59
8.45499e-64
3.60121e-68
9.40429e-73
1.36142e-77
9.45217e-83
2.43265e-88
1.90688e-94
1.60352e-100
1.78673e-105
3.58642e-16
8.51172e-17
8.66616e-17
7.00824e-17
3.40622e-17
1.96856e-17
1.23858e-17
7.66944e-18
4.53037e-18
2.72112e-18
2.32291e-18
2.15966e-18
1.78365e-18
9.48073e-19
7.54939e-20
8.31298e-32
1.7234e-30
1.7234e-30
4.97616e-29
5.86706e-32
4.793e-41
4.33178e-38
2.25796e-41
8.1311e-53
1.88511e-48
3.36635e-52
4.27052e-56
3.7538e-60
2.19409e-64
8.13463e-69
1.77301e-73
2.00675e-78
9.51668e-84
1.43643e-89
1.262e-95
2.6959e-101
2.53347e-106
2.63078e-16
1.48202e-16
5.59343e-17
5.5933e-17
3.89123e-17
1.80197e-17
1.13946e-17
7.04725e-18
4.04012e-18
2.52415e-18
2.30672e-18
2.11796e-18
1.7003e-18
8.11288e-19
3.94811e-20
8.31351e-32
1.07502e-31
4.35284e-27
2.32621e-29
2.32247e-36
2.73468e-35
1.828e-38
5.86831e-46
2.42584e-45
5.5186e-49
9.06241e-53
1.04099e-56
8.1918e-61
4.18301e-65
1.30863e-69
2.2667e-74
1.82757e-79
5.0892e-85
5.8724e-91
1.2716e-96
3.85345e-102
2.54076e-107
2.38484e-16
2.309e-16
9.29721e-17
4.14879e-17
2.7514e-17
1.72825e-17
1.06909e-17
6.24072e-18
3.52206e-18
2.39275e-18
2.28104e-18
2.06908e-18
1.58602e-18
6.46641e-19
1.09202e-20
8.31404e-32
1.82417e-30
5.17892e-27
1.18306e-29
2.32246e-36
9.67922e-36
5.20317e-39
5.86831e-46
5.87084e-46
1.22642e-49
1.82339e-53
1.86712e-57
1.28459e-61
5.56334e-66
1.40018e-70
1.78312e-75
8.82247e-81
1.50134e-86
3.09183e-92
1.23211e-97
4.18983e-103
5.66036e-109
3.48805e-16
1.86208e-16
5.52827e-17
3.82067e-17
2.5906e-17
1.61841e-17
9.42541e-18
5.36593e-18
3.05116e-18
2.3291e-18
2.24044e-18
2.00441e-18
1.42965e-18
4.5934e-19
2.0315e-31
2.0315e-31
2.0315e-31
2.6831e-27
3.59788e-30
2.32245e-36
2.32245e-36
1.02548e-39
3.62492e-43
1.05837e-46
2.00753e-50
2.64477e-54
2.36463e-58
1.38171e-62
4.85949e-67
9.18704e-72
7.50161e-77
2.00014e-82
4.0626e-88
1.89328e-93
9.31048e-99
3.35741e-104
5.52771e-110
1.18464e-16
1.21133e-16
8.41504e-17
3.9141e-17
2.27632e-17
1.37535e-17
8.07808e-18
4.51762e-18
2.67461e-18
2.30675e-18
2.18852e-18
1.91188e-18
1.21947e-18
2.77525e-19
2.0315e-31
2.0315e-31
2.59041e-26
4.99985e-28
9.74564e-36
6.75746e-34
4.08729e-37
1.60942e-40
5.87723e-44
1.38513e-47
2.31991e-51
2.64918e-55
2.0079e-59
9.56978e-64
2.55746e-68
3.19542e-73
1.35494e-78
3.0199e-84
1.55875e-89
9.37766e-95
5.09523e-100
1.92769e-105
3.27656e-111
1.12245e-16
1.12243e-16
9.31041e-17
3.69979e-17
1.80587e-17
1.174e-17
6.79778e-18
3.69828e-18
2.43823e-18
2.28585e-18
2.12874e-18
1.77562e-18
9.51906e-19
1.36082e-19
2.0315e-31
5.3985e-31
4.12564e-26
9.85477e-29
9.74561e-36
9.84113e-35
5.22644e-38
2.06693e-41
6.04543e-45
1.25249e-48
1.79754e-52
1.73128e-56
1.06803e-60
3.88279e-65
7.00017e-70
4.50568e-75
1.10257e-80
6.57427e-86
4.6508e-91
3.29811e-96
1.93816e-101
7.70239e-107
1.41475e-112
3.06758e-16
7.09794e-17
4.12228e-17
3.01686e-17
1.72126e-17
9.76697e-18
5.39516e-18
3.0224e-18
2.33612e-18
2.24209e-18
2.05152e-18
1.57165e-18
6.46689e-19
4.9062e-20
2.0315e-31
2.0315e-31
1.01224e-26
1.65136e-29
9.74559e-36
9.74585e-36
4.68068e-39
1.63654e-42
4.17114e-46
7.3147e-50
8.74706e-54
6.80043e-58
3.18631e-62
7.83234e-67
7.17124e-72
1.52758e-77
1.14873e-82
1.17176e-87
9.70774e-93
7.81347e-98
4.88938e-103
2.06065e-108
4.09822e-114
2.80584e-16
8.08603e-17
2.91775e-17
2.48914e-17
1.44152e-17
7.71496e-18
4.15626e-18
2.58482e-18
2.29721e-18
2.18054e-18
1.93198e-18
1.27483e-18
3.56549e-19
1.11073e-20
2.0315e-31
1.37796e-25
1.09788e-27
1.16106e-33
1.16113e-33
6.63802e-37
2.77503e-40
8.34182e-44
1.77266e-47
2.53704e-51
2.41065e-55
1.39898e-59
4.31416e-64
4.83281e-69
-3.93544e-99
3.84491e-80
1.4833e-84
1.21836e-89
1.26635e-94
1.12014e-99
7.59651e-105
3.49509e-110
7.71315e-116
1.27259e-16
1.0916e-16
3.78186e-17
1.62792e-17
1.07635e-17
5.88784e-18
3.20788e-18
2.3777e-18
2.25425e-18
2.10321e-18
1.732e-18
8.88498e-19
1.44722e-19
1.41283e-21
2.0315e-31
5.75047e-26
9.52356e-29
8.73488e-32
5.83213e-35
2.8597e-38
1.00515e-41
2.46103e-45
4.14622e-49
4.5833e-53
3.12179e-57
1.09576e-61
1.02169e-66
-9.44322e-201
-3.68389e-108
8.45621e-82
3.07342e-87
6.8386e-92
8.49001e-97
8.51001e-102
6.60259e-107
3.52449e-112
9.05515e-118
1.23856e-16
8.57783e-17
1.99696e-17
1.40371e-17
8.1141e-18
4.21425e-18
2.62786e-18
2.29843e-18
2.1897e-18
1.98202e-18
1.40067e-18
4.81108e-19
3.88487e-20
2.45844e-22
1.17808e-24
3.84147e-27
4.04894e-30
3.12208e-33
1.73603e-36
6.92533e-40
1.90259e-43
3.53427e-47
4.34406e-51
3.10813e-55
9.49716e-60
-1.90352e-90
-5.46206e-133
5.04256e-100
1.15543e-79
-2.47134e-127
-3.40949e-102
4.58405e-95
1.27819e-99
2.15379e-104
2.51617e-109
1.88195e-114
6.28856e-120
1.3607e-16
2.54564e-17
1.87325e-17
1.07952e-17
5.48295e-18
3.08646e-18
2.37509e-18
2.23954e-18
2.10379e-18
1.74891e-18
9.23149e-19
1.7591e-19
6.45998e-21
4.49807e-23
9.2879e-26
1.11617e-28
9.49429e-32
5.82143e-35
2.47146e-38
7.10008e-42
1.3507e-45
1.5375e-49
7.24723e-54
-5.14431e-105
-1.58406e-131
-1.75873e-92
-1.39022e-134
-3.31425e-90
-1.51078e-95
5.03588e-176
2.51794e-176
-5.38452e-173
-8.66548e-169
-2.2124e-123
2.01744e-113
4.04351e-117
2.38678e-122
5.47114e-17
3.49685e-17
1.27683e-17
6.73041e-18
3.70163e-18
2.52528e-18
2.27147e-18
2.16425e-18
1.94515e-18
1.31193e-18
4.19858e-19
3.548e-20
4.84295e-22
1.24479e-24
1.60892e-27
1.42397e-30
8.50778e-34
3.27575e-37
7.45845e-41
6.44249e-45
-3.48846e-73
-1.39709e-99
-7.57629e-105
0
-4.61411e-90
-4.73202e-88
5.91949e-102
-2.80861e-110
-1.63329e-99
-2.03899e-103
-2.08982e-107
9.9503e-147
-3.23973e-134
-2.1323e-157
-8.75495e-144
0
4.10622e-125
4.87963e-17
1.41666e-17
8.12007e-18
4.34459e-18
2.71447e-18
2.30289e-18
2.19404e-18
2.04547e-18
1.57889e-18
6.8991e-19
9.71878e-20
2.42557e-21
8.06351e-24
8.53028e-27
5.09118e-30
6.05599e-34
-4.83618e-61
-8.35808e-187