/*--------------------------------*- C++ -*----------------------------------*\
| =========                 |                                                 |
| \\      /  F ield         | OpenFOAM: The Open Source CFD Toolbox           |
|  \\    /   O peration     | Version:  v2012                                 |
|   \\  /    A nd           | Website:  www.openfoam.com                      |
|    \\/     M anipulation  |                                                 |
\*---------------------------------------------------------------------------*/
FoamFile
{
    version     2.0;
    format      ascii;
    class       surfaceScalarField;
    location    "0.45";
    object      phi;
}
// * * * * * * * * * * * * * * * * * * * * * * * * * * * * * * * * * * * * * //

dimensions      [0 3 -1 0 0 0 0];
oriented        oriented;


internalField   nonuniform List<scalar> 
8145
(
3.09647e-10
-1.37661e-09
7.95715e-16
2.5375e-10
-1.27106e-09
3.53326e-16
2.00502e-10
-1.15398e-09
1.26773e-16
1.50742e-10
-1.02345e-09
-3.06246e-17
1.05447e-10
-8.79216e-10
-7.01752e-17
6.57775e-11
-7.24234e-10
-8.7905e-17
3.31945e-11
-5.63224e-10
-6.8679e-17
9.89075e-12
-3.92208e-10
-5.23159e-17
-1.67406e-10
-3.96913e-17
4.85839e-10
-1.58107e-09
-1.31954e-16
4.25337e-10
-1.49979e-09
4.55507e-16
3.65756e-10
-1.41297e-09
1.07361e-15
3.07688e-10
-1.31854e-09
6.91328e-16
2.51751e-10
-1.21512e-09
3.63736e-16
1.98634e-10
-1.10086e-09
1.00362e-16
1.49142e-10
-9.73961e-10
-5.1793e-18
1.04217e-10
-8.34292e-10
-6.66299e-17
6.4965e-11
-6.84983e-10
-5.77338e-17
3.27825e-11
-5.31042e-10
-4.6591e-17
9.77702e-12
-3.69203e-10
-1.88125e-17
-1.57629e-10
-9.30508e-18
3.05037e-10
-8.51402e-10
7.59936e-15
3.58964e-10
-9.64071e-10
-3.39674e-15
4.16619e-10
-1.08009e-09
-5.74998e-15
4.77448e-10
-1.19816e-09
5.45466e-16
5.40644e-10
-1.31676e-09
-7.27006e-16
6.05348e-10
-1.43437e-09
-1.84229e-15
6.70613e-10
-1.5495e-09
-1.87058e-15
7.35417e-10
-1.66035e-09
-7.00319e-16
7.98682e-10
-1.7656e-09
1.16501e-16
8.59316e-10
-1.86361e-09
4.32928e-16
9.16256e-10
-1.95318e-09
1.04456e-15
9.68489e-10
-2.03318e-09
1.23653e-15
1.0151e-09
-2.10247e-09
1.73316e-15
1.05527e-09
-2.16076e-09
1.4232e-15
1.08833e-09
-2.20722e-09
1.78624e-15
1.11376e-09
-2.24192e-09
1.51146e-15
1.13122e-09
-2.26491e-09
1.81655e-15
1.14054e-09
-2.27646e-09
1.21729e-15
1.1417e-09
-2.27712e-09
1.52212e-15
1.13483e-09
-2.26757e-09
1.05738e-15
1.12022e-09
-2.24873e-09
1.41314e-15
1.09827e-09
-2.22141e-09
8.64166e-16
1.06949e-09
-2.18668e-09
1.0724e-15
1.03444e-09
-2.14543e-09
4.94338e-16
9.93773e-10
-2.09817e-09
5.60997e-16
9.48133e-10
-2.04689e-09
8.27522e-17
8.98228e-10
-1.991e-09
2.20373e-16
8.44718e-10
-1.93223e-09
-1.81023e-16
7.88293e-10
-1.87018e-09
-1.55703e-17
7.29618e-10
-1.80518e-09
-1.82069e-16
6.6928e-10
-1.73848e-09
2.97028e-17
6.0792e-10
-1.66838e-09
-1.06527e-16
5.46087e-10
-1.59571e-09
1.36636e-17
4.8435e-10
-1.51933e-09
-7.6074e-17
4.23255e-10
-1.43869e-09
4.84101e-16
3.63323e-10
-1.35303e-09
8.14018e-16
3.05124e-10
-1.26033e-09
6.48163e-16
2.49251e-10
-1.15924e-09
2.99187e-16
1.96363e-10
-1.04798e-09
1.19143e-16
1.47235e-10
-9.24832e-10
-1.66028e-17
1.02766e-10
-7.89824e-10
-3.87187e-17
6.40119e-11
-6.4623e-10
-4.50393e-17
3.2298e-11
-4.99328e-10
-1.154e-17
9.64135e-12
-3.46546e-10
8.90407e-18
-1.47988e-10
2.33536e-17
3.34718e-10
-9.05106e-10
1.37246e-14
3.92802e-10
-1.02212e-09
4.55673e-15
4.54598e-10
-1.14189e-09
-6.64277e-16
5.19462e-10
-1.26297e-09
6.02438e-15
5.86473e-10
-1.38374e-09
4.22911e-15
6.5466e-10
-1.50253e-09
2.74406e-15
7.22972e-10
-1.6178e-09
1.69494e-15
7.90294e-10
-1.72765e-09
2.55979e-15
8.55466e-10
-1.83075e-09
2.25811e-15
9.17338e-10
-1.92546e-09
2.58206e-15
9.74804e-10
-2.01062e-09
2.13451e-15
1.02684e-09
-2.08519e-09
2.69192e-15
1.07252e-09
-2.14813e-09
2.1732e-15
1.11108e-09
-2.1993e-09
2.539e-15
1.14189e-09
-2.23801e-09
1.87386e-15
1.16451e-09
-2.26452e-09
2.42944e-15
1.17869e-09
-2.27907e-09
1.67801e-15
1.18434e-09
-2.28209e-09
1.98822e-15
1.18155e-09
-2.27431e-09
1.23223e-15
1.17058e-09
-2.25658e-09
1.65551e-15
1.15178e-09
-2.22992e-09
1.00457e-15
1.12567e-09
-2.19529e-09
1.31117e-15
1.09283e-09
-2.15383e-09
6.4744e-16
1.0539e-09
-2.1065e-09
8.65954e-16
1.00959e-09
-2.05386e-09
2.2901e-16
9.60595e-10
-1.99789e-09
4.19647e-16
9.0765e-10
-1.93805e-09
-3.76968e-17
8.51435e-10
-1.87601e-09
1.1534e-16
7.92652e-10
-1.8114e-09
-1.78996e-16
7.31966e-10
-1.74449e-09
5.34279e-17
6.69958e-10
-1.67647e-09
-9.44699e-17
6.07254e-10
-1.60567e-09
7.09503e-17
5.44388e-10
-1.53285e-09
-1.0789e-17
4.81907e-10
-1.45685e-09
1.24518e-16
4.20334e-10
-1.37711e-09
3.56664e-16
3.60164e-10
-1.29286e-09
6.85406e-16
3.01946e-10
-1.2021e-09
4.96383e-16
2.46243e-10
-1.10353e-09
2.90981e-16
1.93686e-10
-9.95419e-10
7.84941e-17
1.45016e-10
-8.76162e-10
1.83091e-18
1.01093e-10
-7.45901e-10
-4.4723e-17
6.29171e-11
-6.08055e-10
-2.19522e-17
3.17405e-11
-4.68152e-10
1.00432e-18
9.48353e-12
-3.24289e-10
3.30004e-17
-1.38503e-10
3.80587e-17
3.67563e-10
-9.63269e-10
1.18801e-14
4.30138e-10
-1.08467e-09
3.53283e-15
4.96376e-10
-1.20812e-09
3.57514e-16
5.65489e-10
-1.33203e-09
5.52593e-15
6.3645e-10
-1.45467e-09
3.25993e-15
7.0818e-10
-1.57424e-09
1.66712e-15
7.79515e-10
-1.68912e-09
1.07048e-15
8.49242e-10
-1.79736e-09
1.79204e-15
9.16122e-10
-1.89761e-09
2.25235e-15
9.78949e-10
-1.98826e-09
2.28749e-15
1.03659e-09
-2.06824e-09
2.74609e-15
1.088e-09
-2.13658e-09
2.58861e-15
1.1323e-09
-2.19241e-09
3.03891e-15
1.16876e-09
-2.23573e-09
2.45834e-15
1.19683e-09
-2.26606e-09
2.83269e-15
1.21614e-09
-2.28382e-09
2.26494e-15
1.22656e-09
-2.28947e-09
2.5816e-15
1.2281e-09
-2.28362e-09
1.72184e-15
1.22097e-09
-2.26717e-09
2.01884e-15
1.20554e-09
-2.24112e-09
1.28886e-15
1.18227e-09
-2.20664e-09
1.62984e-15
1.15176e-09
-2.16478e-09
8.95502e-16
1.11469e-09
-2.11674e-09
1.14552e-15
1.07176e-09
-2.06357e-09
4.84001e-16
1.02375e-09
-2.00583e-09
6.56384e-16
9.71373e-10
-1.94552e-09
1.16978e-16
9.15403e-10
-1.88208e-09
3.07195e-16
8.56533e-10
-1.81714e-09
-1.04895e-16
7.95466e-10
-1.75033e-09
1.07215e-16
7.32864e-10
-1.68189e-09
-1.0265e-16
6.69293e-10
-1.6129e-09
1.10834e-16
6.05363e-10
-1.54174e-09
-3.20887e-17
5.41586e-10
-1.46907e-09
1.76068e-16
4.78485e-10
-1.39375e-09
1.00214e-16
4.16556e-10
-1.31517e-09
3.69267e-16
3.56269e-10
-1.23257e-09
4.4581e-16
2.98146e-10
-1.14397e-09
4.34004e-16
2.42722e-10
-1.04811e-09
2.02719e-16
1.906e-10
-9.43297e-10
8.45578e-17
1.42485e-10
-8.28048e-10
-2.39892e-17
9.9197e-11
-7.02613e-10
-2.75702e-17
6.16805e-11
-5.70539e-10
-2.2828e-17
3.11098e-11
-4.37581e-10
2.20554e-17
9.30338e-12
-3.02482e-10
4.37148e-17
-1.29199e-10
5.45936e-17
4.04125e-10
-1.02621e-09
1.02658e-14
4.71518e-10
-1.15199e-09
8.21298e-15
5.42463e-10
-1.27902e-09
4.76979e-15
6.15995e-10
-1.40555e-09
2.37472e-15
6.91007e-10
-1.52967e-09
9.28626e-16
7.66297e-10
-1.64952e-09
1.6055e-15
8.40574e-10
-1.76339e-09
1.56442e-15
9.12528e-10
-1.86928e-09
3.13709e-15
9.80844e-10
-1.96589e-09
2.91762e-15
1.04427e-09
-2.05166e-09
3.68772e-15
1.10165e-09
-2.12559e-09
3.10716e-15
1.15196e-09
-2.18686e-09
3.816e-15
1.19435e-09
-2.23477e-09
3.05856e-15
1.22816e-09
-2.26951e-09
3.57602e-15
1.25293e-09
-2.2908e-09
2.65059e-15
1.26841e-09
-2.29928e-09
3.27119e-15
1.27456e-09
-2.2956e-09
2.24849e-15
1.27154e-09
-2.28057e-09
2.61445e-15
1.25967e-09
-2.25528e-09
1.60461e-15
1.23942e-09
-2.22086e-09
2.03276e-15
1.2114e-09
-2.17861e-09
1.16158e-15
1.17629e-09
-2.12966e-09
1.49334e-15
1.13483e-09
-2.07528e-09
6.94941e-16
1.08782e-09
-2.01655e-09
9.7553e-16
1.03606e-09
-1.95406e-09
2.8823e-16
9.80303e-10
-1.88976e-09
5.27258e-16
9.21351e-10
-1.82312e-09
1.98882e-17
8.59896e-10
-1.75569e-09
2.29121e-16
7.96642e-10
-1.68708e-09
-9.36915e-17
7.32237e-10
-1.61748e-09
1.50882e-16
6.67228e-10
-1.5479e-09
-3.77747e-17
6.02203e-10
-1.47671e-09
1.50297e-16
5.37649e-10
-1.40452e-09
9.85375e-17
4.74061e-10
-1.33016e-09
2.36324e-16
4.11907e-10
-1.25302e-09
2.13258e-16
3.51628e-10
-1.17229e-09
3.56219e-16
2.93719e-10
-1.08606e-09
2.65721e-16
2.38688e-10
-9.93074e-10
1.79812e-16
1.87106e-10
-8.91715e-10
2.69676e-17
1.39644e-10
-7.80587e-10
-1.41342e-17
9.70798e-11
-6.6005e-10
-4.37783e-17
6.03024e-11
-5.33761e-10
-7.32505e-18
3.04059e-11
-4.07684e-10
2.35648e-17
9.10071e-12
-2.81176e-10
5.79856e-17
-1.20097e-10
6.04591e-17
4.44766e-10
-1.09438e-09
5.18442e-15
5.17305e-10
-1.22449e-09
6.1167e-15
5.93215e-10
-1.35489e-09
4.82774e-15
6.71369e-10
-1.48368e-09
2.82428e-15
7.50524e-10
-1.60881e-09
1.68386e-15
8.29348e-10
-1.72832e-09
1.80965e-15
9.06432e-10
-1.84045e-09
2.23984e-15
9.80369e-10
-1.94319e-09
2.97651e-15
1.04978e-09
-2.03527e-09
3.53394e-15
1.11337e-09
-2.11521e-09
3.39535e-15
1.16998e-09
-2.18217e-09
3.91104e-15
1.21863e-09
-2.23548e-09
3.42058e-15
1.25852e-09
-2.27462e-09
3.95933e-15
1.28908e-09
-2.30004e-09
3.14155e-15
1.30996e-09
-2.31164e-09
3.62446e-15
1.32102e-09
-2.31032e-09
2.78265e-15
1.32238e-09
-2.29693e-09
3.17846e-15
1.31432e-09
-2.27249e-09
2.0909e-15
1.2973e-09
-2.23824e-09
2.44151e-15
1.27193e-09
-2.19546e-09
1.48184e-15
1.23889e-09
-2.14555e-09
1.8529e-15
1.19897e-09
-2.08973e-09
9.56772e-16
1.15301e-09
-2.02931e-09
1.2618e-15
1.10184e-09
-1.96538e-09
5.11515e-16
1.04632e-09
-1.89853e-09
7.62765e-16
9.87221e-10
-1.83067e-09
1.63508e-16
9.25354e-10
-1.76125e-09
4.02703e-16
8.61413e-10
-1.69175e-09
-3.65951e-17
7.9609e-10
-1.62175e-09
2.09703e-16
7.30015e-10
-1.5514e-09
-4.12957e-17
6.63709e-10
-1.48159e-09
1.7651e-16
5.97736e-10
-1.41074e-09
1.41728e-17
5.32551e-10
-1.33933e-09
2.54031e-16
4.68619e-10
-1.26623e-09
1.37162e-16
4.06377e-10
-1.19077e-09
2.20466e-16
3.46237e-10
-1.11215e-09
1.48864e-16
2.88665e-10
-1.02849e-09
2.10759e-16
2.34141e-10
-9.38549e-10
7.9875e-17
1.83204e-10
-8.40779e-10
2.64564e-17
1.36493e-10
-7.33876e-10
-4.77134e-17
9.47425e-11
-6.183e-10
-2.97871e-17
5.8784e-11
-4.97803e-10
-1.33328e-17
2.96292e-11
-3.78528e-10
3.9464e-17
8.87559e-12
-2.60421e-10
6.2007e-17
-1.11221e-10
7.18394e-17
4.90119e-10
-1.16812e-09
4.19887e-15
5.68124e-10
-1.30245e-09
5.6047e-15
6.49228e-10
-1.43597e-09
3.49423e-15
7.32134e-10
-1.56659e-09
-3.78355e-16
8.15455e-10
-1.69214e-09
-1.26232e-15
8.97722e-10
-1.81058e-09
5.01865e-16
9.77401e-10
-1.92012e-09
9.16622e-16
1.05299e-09
-2.01876e-09
2.91273e-15
1.12306e-09
-2.10532e-09
2.6951e-15
1.18629e-09
-2.17842e-09
3.91842e-15
1.24155e-09
-2.23739e-09
3.22983e-15
1.28789e-09
-2.28179e-09
4.20851e-15
1.32461e-09
-2.31131e-09
3.27327e-15
1.35125e-09
-2.32664e-09
4.07393e-15
1.36759e-09
-2.32794e-09
2.94502e-15
1.37364e-09
-2.31635e-09
3.73198e-15
1.36967e-09
-2.29293e-09
2.4846e-15
1.3561e-09
-2.2589e-09
2.98884e-15
1.33353e-09
-2.21565e-09
1.76867e-15
1.30269e-09
-2.16461e-09
2.26081e-15
1.2644e-09
-2.10725e-09
1.20521e-15
1.21952e-09
-2.04485e-09
1.60224e-15
1.16896e-09
-1.97874e-09
6.90178e-16
1.1136e-09
-1.91001e-09
1.04458e-15
1.05434e-09
-1.83926e-09
3.03439e-16
9.9196e-10
-1.76829e-09
6.00955e-16
9.27278e-10
-1.69656e-09
5.27067e-17
8.60975e-10
-1.62545e-09
3.139e-16
7.93726e-10
-1.5545e-09
-3.94971e-17
7.26133e-10
-1.4838e-09
2.18024e-16
6.58692e-10
-1.41416e-09
-7.05523e-18
5.91929e-10
-1.34397e-09
1.90819e-16
5.26271e-10
-1.27367e-09
1.23303e-16
4.62146e-10
-1.2021e-09
2.33875e-16
3.9996e-10
-1.12858e-09
5.87419e-17
3.40094e-10
-1.05228e-09
1.0631e-16
2.82986e-10
-9.71378e-10
5.78274e-17
2.29084e-10
-8.84647e-10
6.20549e-17
1.789e-10
-7.90596e-10
-3.54197e-17
1.33037e-10
-6.88015e-10
-3.7304e-17
9.21883e-11
-5.77452e-10
-4.70498e-17
5.71269e-11
-4.62742e-10
3.56846e-18
2.87806e-11
-3.50181e-10
4.01632e-17
8.62807e-12
-2.40268e-10
7.67613e-17
-1.02591e-10
7.79379e-17
5.40571e-10
-1.24787e-09
5.63897e-15
6.24405e-10
-1.38623e-09
6.47263e-15
7.10953e-10
-1.52248e-09
4.00706e-15
7.98742e-10
-1.65438e-09
4.21094e-17
8.86222e-10
-1.77963e-09
-2.61159e-16
9.71778e-10
-1.89612e-09
7.23595e-16
1.05376e-09
-2.00209e-09
1.88394e-15
1.13059e-09
-2.09556e-09
2.52596e-15
1.20078e-09
-2.17548e-09
3.41944e-15
1.26303e-09
-2.24064e-09
3.15639e-15
1.31624e-09
-2.29057e-09
3.99054e-15
1.35955e-09
-2.32507e-09
3.27664e-15
1.39236e-09
-2.34409e-09
4.1135e-15
1.41435e-09
-2.3486e-09
3.13191e-15
1.42546e-09
-2.33902e-09
3.8716e-15
1.42587e-09
-2.31673e-09
2.82125e-15
1.416e-09
-2.28304e-09
3.40228e-15
1.39644e-09
-2.23932e-09
2.14392e-15
1.36794e-09
-2.18713e-09
2.62132e-15
1.33136e-09
-2.128e-09
1.47954e-15
1.2876e-09
-2.06348e-09
1.92895e-15
1.23763e-09
-1.99487e-09
9.07237e-16
1.18241e-09
-1.92351e-09
1.29227e-15
1.12286e-09
-1.85047e-09
4.68133e-16
1.05992e-09
-1.7763e-09
7.99944e-16
9.9436e-10
-1.70273e-09
1.54274e-16
9.26992e-10
-1.62918e-09
4.50095e-16
8.5848e-10
-1.55694e-09
-1.19237e-17
7.8947e-10
-1.48549e-09
2.677e-16
7.20535e-10
-1.41486e-09
-1.83599e-17
6.52132e-10
-1.34576e-09
2.06425e-16
5.84756e-10
-1.27659e-09
1.89278e-17
5.18791e-10
-1.20771e-09
2.53453e-16
4.54633e-10
-1.13794e-09
9.15057e-17
3.92653e-10
-1.0666e-09
8.27674e-17
3.33202e-10
-9.92834e-10
-6.06663e-17
2.76684e-10
-9.14861e-10
3.4338e-17
2.23523e-10
-8.31486e-10
-3.16901e-17
1.74199e-10
-7.41272e-10
-3.19491e-17
1.29281e-10
-6.43098e-10
-7.14741e-17
8.94211e-11
-5.37593e-10
-3.06508e-17
5.5334e-11
-4.28655e-10
-1.866e-18
2.78612e-11
-3.22708e-10
5.74964e-17
8.35847e-12
-2.20764e-10
8.11761e-17
-9.42311e-11
9.01054e-17
5.96981e-10
-1.33404e-09
4.21868e-15
6.86937e-10
-1.47614e-09
6.8905e-15
7.79088e-10
-1.61461e-09
1.85019e-15
8.71803e-10
-1.74709e-09
1.29956e-15
9.63332e-10
-1.87116e-09
-6.99896e-16
1.05191e-09
-1.9847e-09
6.09923e-16
1.13579e-09
-2.08596e-09
4.20564e-16
1.21331e-09
-2.17306e-09
2.45438e-15
1.28298e-09
-2.24513e-09
1.93748e-15
1.34352e-09
-2.30115e-09
3.50487e-15
1.39388e-09
-2.34091e-09
2.61331e-15
1.43333e-09
-2.36449e-09
3.93471e-15
1.46142e-09
-2.37214e-09
2.83037e-15
1.47798e-09
-2.36513e-09
3.99438e-15
1.48313e-09
-2.34414e-09
2.70788e-15
1.47725e-09
-2.31083e-09
3.7513e-15
1.46092e-09
-2.26669e-09
2.34139e-15
1.43491e-09
-2.21329e-09
3.05178e-15
1.40012e-09
-2.15232e-09
1.67794e-15
1.35751e-09
-2.08538e-09
2.28445e-15
1.30812e-09
-2.01407e-09
1.09113e-15
1.25297e-09
-1.93971e-09
1.58367e-15
1.19308e-09
-1.86361e-09
5.8731e-16
1.1294e-09
-1.78679e-09
1.02446e-15
1.06287e-09
-1.70976e-09
2.4129e-16
9.94261e-10
-1.63413e-09
6.04316e-16
9.24371e-10
-1.55929e-09
2.95914e-17
8.53829e-10
-1.4864e-09
3.42278e-16
7.83252e-10
-1.41491e-09
-3.49567e-17
7.13169e-10
-1.34477e-09
2.38894e-16
6.43999e-10
-1.27659e-09
-1.38449e-17
5.76194e-10
-1.20878e-09
1.88643e-16
5.10102e-10
-1.14161e-09
8.1964e-17
4.46079e-10
-1.07392e-09
1.7188e-16
3.84461e-10
-1.00498e-09
-7.06797e-17
3.25566e-10
-9.33941e-10
-5.63043e-17
2.69771e-10
-8.59066e-10
-9.12325e-17
2.17468e-10
-7.79184e-10
-3.4506e-17
1.69109e-10
-6.92916e-10
-9.16767e-17
1.25232e-10
-5.99222e-10
-5.80903e-17
8.64466e-11
-4.98808e-10
-4.77092e-17
5.34086e-11
-3.95616e-10
1.69007e-17
2.68727e-11
-2.96171e-10
5.85933e-17
8.06708e-12
-2.01956e-10
9.76986e-17
-8.61622e-11
9.76284e-17
6.59743e-10
-1.42711e-09
6.12111e-15
7.5617e-10
-1.5725e-09
8.25382e-15
8.54129e-10
-1.71254e-09
3.35068e-15
9.51777e-10
-1.84472e-09
1.88133e-15
1.04718e-09
-1.96656e-09
7.02104e-16
1.13844e-09
-2.07594e-09
6.32501e-16
1.2237e-09
-2.17121e-09
1.60862e-15
1.30126e-09
-2.2506e-09
1.73102e-15
1.36963e-09
-2.31348e-09
2.89673e-15
1.42759e-09
-2.35908e-09
2.33605e-15
1.47421e-09
-2.3875e-09
3.53916e-15
1.50888e-09
-2.39914e-09
2.5756e-15
1.53135e-09
-2.39457e-09
3.78624e-15
1.54164e-09
-2.37539e-09
2.63407e-15
1.54008e-09
-2.34255e-09
3.69741e-15
1.52723e-09
-2.29796e-09
2.47811e-15
1.50389e-09
-2.24333e-09
3.30358e-15
1.471e-09
-2.18037e-09
1.91856e-15
1.42958e-09
-2.11088e-09
2.56511e-15
1.38074e-09
-2.03652e-09
1.2903e-15
1.32558e-09
-1.9589e-09
1.84769e-15
1.26521e-09
-1.87933e-09
7.37207e-16
1.20068e-09
-1.79907e-09
1.21492e-15
1.13297e-09
-1.71907e-09
3.37601e-16
1.06299e-09
-1.63977e-09
7.50435e-16
9.91513e-10
-1.56265e-09
7.60453e-17
9.19297e-10
-1.48707e-09
4.32111e-16
8.46939e-10
-1.41404e-09
-4.41445e-17
7.75008e-10
-1.34298e-09
2.69411e-16
7.03994e-10
-1.27375e-09
-4.06916e-17
6.34265e-10
-1.20686e-09
1.96169e-16
5.66233e-10
-1.14075e-09
-1.39848e-17
5.002e-10
-1.07558e-09
1.9764e-16
4.36487e-10
-1.01021e-09
4.92831e-18
3.75391e-10
-9.43886e-10
-2.73724e-17
3.17199e-10
-8.75753e-10
-1.90895e-16
2.62257e-10
-8.04126e-10
-8.34889e-17
2.10931e-10
-7.27859e-10
-1.17437e-16
1.63643e-10
-6.4563e-10
-8.16931e-17
1.20901e-10
-5.56481e-10
-9.20232e-17
8.32718e-11
-4.6118e-10
-2.9859e-17
5.13554e-11
-3.637e-10
1.09314e-17
2.58172e-11
-2.70631e-10
7.6358e-17
7.75448e-12
-1.83892e-10
1.01856e-16
-7.84058e-11
1.10414e-16
7.30054e-10
-1.52745e-09
6.19217e-15
8.33156e-10
-1.67553e-09
9.08721e-15
9.36955e-10
-1.8163e-09
3.67709e-15
1.03939e-09
-1.94713e-09
2.65676e-15
1.13834e-09
-2.06551e-09
-9.01135e-17
1.23176e-09
-2.16935e-09
1.15802e-15
1.31771e-09
-2.25715e-09
1.76826e-16
1.39448e-09
-2.32736e-09
2.22221e-15
1.46063e-09
-2.3796e-09
1.19197e-15
1.51501e-09
-2.41344e-09
3.03346e-15
1.55685e-09
-2.42932e-09
1.80166e-15
1.58574e-09
-2.42801e-09
3.46561e-15
1.60162e-09
-2.41043e-09
2.13048e-15
1.60476e-09
-2.37849e-09
3.64136e-15
1.5957e-09
-2.33347e-09
2.18863e-15
1.57523e-09
-2.27747e-09
3.49992e-15
1.54435e-09
-2.21242e-09
1.95962e-15
1.50415e-09
-2.14015e-09
2.8843e-15
1.45582e-09
-2.06253e-09
1.40089e-15
1.40057e-09
-1.98125e-09
2.13669e-15
1.33959e-09
-1.89791e-09
8.4954e-16
1.27402e-09
-1.81376e-09
1.44406e-15
1.20495e-09
-1.72999e-09
3.93129e-16
1.13334e-09
-1.64746e-09
9.11413e-16
1.0601e-09
-1.56652e-09
1.03801e-16
9.85972e-10
-1.48852e-09
5.32946e-16
9.11664e-10
-1.41275e-09
-5.27092e-17
8.37729e-10
-1.34011e-09
3.08929e-16
7.64687e-10
-1.26993e-09
-8.13288e-17
6.92975e-10
-1.20204e-09
2.12758e-16
6.22915e-10
-1.13681e-09
-5.5631e-17
5.54866e-10
-1.07269e-09
1.51341e-16
4.8909e-10
-1.00981e-09
-6.49372e-19
4.25866e-10
-9.46984e-10
8.09349e-17
3.65456e-10
-8.83477e-10
-1.74021e-16
3.08115e-10
-8.18415e-10
-1.54843e-16
2.54159e-10
-7.50171e-10
-1.87129e-16
2.03926e-10
-6.77628e-10
-1.05455e-16
1.57814e-10
-5.9952e-10
-1.37732e-16
1.16297e-10
-5.14966e-10
-7.59162e-17
7.99055e-11
-4.24789e-10
-4.74204e-17
4.91799e-11
-3.32974e-10
3.00167e-17
2.46975e-11
-2.46147e-10
7.65673e-17
7.42128e-12
-1.66614e-10
1.18509e-16
-7.09823e-11
1.17919e-16
8.08144e-10
-1.63558e-09
5.20326e-15
9.18244e-10
-1.78556e-09
8.49047e-15
1.02797e-09
-1.92598e-09
5.34046e-15
1.13502e-09
-2.05415e-09
3.17277e-15
1.2371e-09
-2.16757e-09
1.84015e-15
1.33205e-09
-2.26428e-09
8.53552e-16
1.41787e-09
-2.34297e-09
1.72826e-15
1.49289e-09
-2.40235e-09
1.13701e-15
1.55572e-09
-2.44242e-09
2.56412e-15
1.60539e-09
-2.46309e-09
1.54252e-15
1.64132e-09
-2.46523e-09
3.09737e-15
1.66332e-09
-2.44999e-09
1.81415e-15
1.67159e-09
-2.41867e-09
3.36661e-15
1.66665e-09
-2.37352e-09
1.99871e-15
1.6493e-09
-2.31609e-09
3.35111e-15
1.62056e-09
-2.24872e-09
1.97386e-15
1.58163e-09
-2.17347e-09
3.02426e-15
1.53377e-09
-2.09227e-09
1.54073e-15
1.47831e-09
-2.00705e-09
2.34635e-15
1.41655e-09
-1.91947e-09
9.82497e-16
1.34974e-09
-1.83109e-09
1.64482e-15
1.27906e-09
-1.74308e-09
4.80331e-16
1.20559e-09
-1.65651e-09
1.04418e-15
1.13029e-09
-1.57216e-09
1.36879e-16
1.05403e-09
-1.49026e-09
6.23188e-16
9.77508e-10
-1.412e-09
-6.12343e-17
9.01377e-10
-1.33662e-09
3.52275e-16
8.26137e-10
-1.26487e-09
-1.2704e-16
7.52247e-10
-1.19604e-09
2.20004e-16
6.80093e-10
-1.12988e-09
-1.01013e-16
6.09939e-10
-1.06665e-09
1.52177e-16
5.42097e-10
-1.00485e-09
-7.32617e-17
4.76782e-10
-9.44492e-10
1.10475e-16
4.14234e-10
-8.84437e-10
-9.78351e-17
3.54677e-10
-8.23921e-10
-1.16822e-16
2.98336e-10
-7.62077e-10
-2.71233e-16
2.45497e-10
-6.97335e-10
-1.58024e-16
1.96475e-10
-6.28608e-10
-1.79227e-16
1.51639e-10
-5.54687e-10
-1.21595e-16
1.11436e-10
-4.74765e-10
-1.09279e-16
7.63582e-11
-3.89712e-10
-2.87961e-17
4.68891e-11
-3.03504e-10
2.29993e-17
2.3517e-11
-2.22774e-10
9.40023e-17
7.06848e-12
-1.50163e-10
1.21784e-16
-6.39114e-11
1.30565e-16
8.95884e-10
-1.75169e-09
5.58718e-15
1.01296e-09
-1.90256e-09
1.07536e-14
1.12836e-09
-2.04133e-09
5.40983e-15
1.23955e-09
-2.16533e-09
2.95492e-15
1.34406e-09
-2.27208e-09
-7.51877e-16
1.43963e-09
-2.35985e-09
8.11433e-16
1.52426e-09
-2.4276e-09
-6.7872e-16
1.59632e-09
-2.4744e-09
1.74813e-15
1.65457e-09
-2.50065e-09
3.50431e-16
1.69823e-09
-2.50673e-09
2.59642e-15
1.72697e-09
-2.49395e-09
1.03845e-15
1.74089e-09
-2.46389e-09
3.04326e-15
1.74046e-09
-2.41822e-09
1.45552e-15
1.72651e-09
-2.35954e-09
3.23932e-15
1.70009e-09
-2.28965e-09
1.61892e-15
1.66247e-09
-2.21108e-09
3.13616e-15
1.61504e-09
-2.12602e-09
1.49533e-15
1.55923e-09
-2.03645e-09
2.58333e-15
1.49649e-09
-1.94429e-09
1.03433e-15
1.42819e-09
-1.85116e-09
1.87391e-15
1.35563e-09
-1.75852e-09
5.37766e-16
1.27999e-09
-1.66744e-09
1.21503e-15
1.20235e-09
-1.57886e-09
1.41001e-16
1.12361e-09
-1.49342e-09
7.25518e-16
1.04462e-09
-1.41126e-09
-8.57712e-17
9.66003e-10
-1.33338e-09
4.01279e-16
8.88356e-10
-1.25897e-09
-1.79293e-16
8.12109e-10
-1.18863e-09
2.25446e-16
7.37663e-10
-1.1216e-09
-1.65062e-16
6.65336e-10
-1.05755e-09
1.50899e-16
5.95343e-10
-9.96664e-10
-1.21069e-16
5.27939e-10
-9.37446e-10
9.14327e-17
4.63298e-10
-8.79852e-10
-1.00744e-16
4.01614e-10
-8.22756e-10
-1.8642e-17
3.4308e-10
-7.65389e-10
-2.59127e-16
2.87887e-10
-7.06889e-10
-2.18298e-16
2.36298e-10
-6.45748e-10
-2.48855e-16
1.88599e-10
-5.80912e-10
-1.56554e-16
1.45139e-10
-5.11229e-10
-1.74041e-16
1.06335e-10
-4.35963e-10
-9.07982e-17
7.26426e-11
-3.56021e-10
-4.6715e-17
4.44912e-11
-2.75352e-10
4.20355e-17
2.22801e-11
-2.00561e-10
9.32979e-17
6.69716e-12
-1.34578e-10
1.38235e-16
-5.72117e-11
1.37757e-16
9.92994e-10
-1.87636e-09
3.95505e-15
1.11728e-09
-2.02677e-09
9.1923e-15
1.23825e-09
-2.16225e-09
6.85573e-15
1.35313e-09
-2.28017e-09
3.16166e-15
1.45931e-09
-2.37825e-09
1.80591e-15
1.55448e-09
-2.455e-09
-4.93489e-19
1.63668e-09
-2.50979e-09
1.25257e-15
1.7044e-09
-2.5421e-09
3.16212e-17
1.75662e-09
-2.55286e-09
2.00527e-15
1.79283e-09
-2.54293e-09
6.48361e-16
1.81301e-09
-2.51411e-09
2.64654e-15
1.81757e-09
-2.46843e-09
1.11396e-15
1.80733e-09
-2.40797e-09
2.95596e-15
1.78342e-09
-2.3356e-09
1.40504e-15
1.74718e-09
-2.25339e-09
2.95164e-15
1.70012e-09
-2.164e-09
1.46129e-15
1.64381e-09
-2.0697e-09
2.65475e-15
1.57986e-09
-1.97247e-09
1.11851e-15
1.50976e-09
-1.87419e-09
2.02716e-15
1.43499e-09
-1.77637e-09
6.27469e-16
1.35684e-09
-1.68036e-09
1.36116e-15
1.27648e-09
-1.58708e-09
1.82849e-16
1.19495e-09
-1.49733e-09
8.08398e-16
1.11311e-09
-1.41159e-09
-1.01323e-16
1.03173e-09
-1.32987e-09
4.4148e-16
9.51361e-10
-1.25302e-09
-2.33326e-16
8.72537e-10
-1.18014e-09
2.28211e-16
7.95613e-10
-1.11171e-09
-2.41229e-16
7.20918e-10
-1.0469e-09
1.35978e-16
6.4871e-10
-9.85337e-10
-1.83062e-16
5.7914e-10
-9.27099e-10
8.74158e-17
5.12418e-10
-8.70721e-10
-1.44598e-16
4.48664e-10
-8.16101e-10
1.32902e-17
3.88039e-10
-7.62133e-10
-1.99097e-16
3.30697e-10
-7.08049e-10
-1.92442e-16
2.76803e-10
-6.53e-10
-3.26522e-16
2.26592e-10
-5.9554e-10
-2.0846e-16
1.80328e-10
-5.34651e-10
-2.24364e-16
1.38337e-10
-4.69241e-10
-1.53167e-16
1.01013e-10
-3.9864e-10
-1.23157e-16
6.87739e-11
-3.23783e-10
-2.73538e-17
4.19963e-11
-2.48574e-10
3.44467e-17
2.09918e-11
-1.79555e-10
1.10617e-16
6.30891e-12
-1.19893e-10
1.41052e-16
-5.09e-11
1.50457e-16
1.1024e-09
-2.0094e-09
2.95442e-15
1.23344e-09
-2.15773e-09
1.09882e-14
1.35924e-09
-2.28799e-09
4.81396e-15
1.47681e-09
-2.39774e-09
1.36423e-15
1.58341e-09
-2.48488e-09
-3.6608e-15
1.67674e-09
-2.54834e-09
-1.65795e-15
1.75491e-09
-2.58798e-09
-3.10819e-15
1.81664e-09
-2.60383e-09
1.8867e-16
1.86117e-09
-2.59739e-09
-1.07363e-15
1.88831e-09
-2.57007e-09
1.85575e-15
1.89843e-09
-2.52421e-09
2.41786e-16
1.8923e-09
-2.46229e-09
2.5956e-15
1.87112e-09
-2.38677e-09
8.77763e-16
1.83634e-09
-2.3008e-09
2.82132e-15
1.78959e-09
-2.20662e-09
1.11002e-15
1.73261e-09
-2.10701e-09
2.71601e-15
1.66716e-09
-2.00423e-09
1.04745e-15
1.59494e-09
-1.90024e-09
2.19974e-15
1.51755e-09
-1.79679e-09
6.52704e-16
1.43646e-09
-1.69527e-09
1.53617e-15
1.35297e-09
-1.59686e-09
2.08117e-16
1.26821e-09
-1.50232e-09
9.27967e-16
1.18316e-09
-1.41227e-09
-1.30563e-16
1.0986e-09
-1.32703e-09
4.93919e-16
1.01523e-09
-1.24649e-09
-2.96272e-16
9.33502e-10
-1.1713e-09
2.32618e-16
8.53878e-10
-1.10051e-09
-3.25978e-16
7.7663e-10
-1.03446e-09
1.12339e-16
7.02018e-10
-9.72291e-10
-2.65233e-16
6.3023e-10
-9.13547e-10
7.04371e-17
5.61362e-10
-8.58235e-10
-1.94948e-16
4.95566e-10
-8.04924e-10
2.249e-17
4.32922e-10
-7.5346e-10
-1.99283e-16
3.73548e-10
-7.02763e-10
-1.1261e-16
3.1757e-10
-6.52073e-10
-3.3044e-16
2.65121e-10
-6.00556e-10
-2.66451e-16
2.16415e-10
-5.46836e-10
-2.93356e-16
1.71694e-10
-4.89933e-10
-1.9547e-16
1.31264e-10
-4.28814e-10
-2.02445e-16
9.54934e-11
-3.62872e-10
-1.02529e-16
6.47701e-11
-2.9306e-10
-4.48458e-17
3.94165e-11
-2.2322e-10
5.38601e-17
1.96586e-11
-1.59795e-10
1.09834e-16
5.90552e-12
-1.06137e-10
1.57844e-16
-4.49915e-11
1.57919e-16
1.22273e-09
-2.15136e-09
1.22353e-14
1.36064e-09
-2.29551e-09
1.54882e-14
1.49085e-09
-2.41814e-09
7.82881e-15
1.61024e-09
-2.5171e-09
2.64897e-15
1.71601e-09
-2.59064e-09
1.23386e-15
1.80593e-09
-2.63825e-09
-1.7665e-15
1.87832e-09
-2.66039e-09
1.29348e-16
1.9322e-09
-2.65771e-09
-1.61577e-15
1.96719e-09
-2.63237e-09
1.1051e-15
1.98353e-09
-2.5864e-09
-3.22195e-16
1.98201e-09
-2.52267e-09
2.11817e-15
1.96383e-09
-2.44411e-09
5.38355e-16
1.9306e-09
-2.35351e-09
2.52862e-15
1.88409e-09
-2.25427e-09
9.39559e-16
1.82623e-09
-2.14874e-09
2.51183e-15
1.75897e-09
-2.03974e-09
1.0238e-15
1.68421e-09
-1.92946e-09
2.22013e-15
1.60376e-09
-1.81977e-09
7.21038e-16
1.51924e-09
-1.71226e-09
1.63732e-15
1.43212e-09
-1.60814e-09
2.77836e-16
1.34366e-09
-1.50839e-09
1.02454e-15
1.25491e-09
-1.41358e-09
-1.14949e-16
1.16678e-09
-1.32413e-09
5.34177e-16
1.07995e-09
-1.24021e-09
-3.4359e-16
9.95025e-10
-1.16156e-09
2.31113e-16
9.12374e-10
-1.08866e-09
-4.12286e-16
8.32356e-10
-1.02049e-09
8.25859e-17
7.55167e-10
-9.57277e-10
-3.62823e-16
6.80985e-10
-8.98111e-10
3.77077e-17
6.09934e-10
-8.42494e-10
-2.67942e-16
5.42049e-10
-7.90354e-10
1.64922e-17
4.77434e-10
-7.40308e-10
-2.14643e-16
4.16121e-10
-6.92151e-10
-7.86495e-17
3.58195e-10
-6.44841e-10
-2.87252e-16
3.03748e-10
-5.97628e-10
-2.57016e-16
2.52891e-10
-5.49704e-10
-3.71314e-16
2.05812e-10
-4.99761e-10
-2.49002e-16
1.62737e-10
-4.46862e-10
-2.59891e-16
1.23952e-10
-3.90033e-10
-1.78361e-16
8.98052e-11
-3.28727e-10
-1.33233e-16
6.06522e-11
-2.63908e-10
-2.43655e-17
3.67661e-11
-1.99332e-10
4.6773e-17
1.82881e-11
-1.41315e-10
1.2782e-16
5.48944e-12
-9.33355e-11
1.61218e-16
-3.94989e-11
1.71428e-16
1.35881e-09
-2.30141e-09
9.37121e-16
1.50228e-09
-2.43885e-09
1.75695e-14
1.63532e-09
-2.55119e-09
-1.83314e-15
1.75468e-09
-2.63645e-09
2.81036e-15
1.85757e-09
-2.69355e-09
-4.31544e-15
1.94189e-09
-2.7226e-09
-3.34744e-15
2.00627e-09
-2.7248e-09
-5.40147e-15
2.0501e-09
-2.70155e-09
-1.68944e-15
2.07347e-09
-2.65575e-09
-2.61854e-15
2.07711e-09
-2.59004e-09
8.38744e-16
2.0623e-09
-2.50785e-09
-5.06329e-16
2.03072e-09
-2.41253e-09
2.01589e-15
1.98437e-09
-2.30715e-09
4.36986e-16
1.92538e-09
-2.19526e-09
2.32724e-15
1.85594e-09
-2.07928e-09
7.27803e-16
1.77817e-09
-1.96196e-09
2.22539e-15
1.6941e-09
-1.84539e-09
6.71181e-16
1.60558e-09
-1.73124e-09
1.74412e-15
1.51425e-09
-1.62091e-09
3.04699e-16
1.4215e-09
-1.51539e-09
1.14315e-15
1.32853e-09
-1.41542e-09
-1.00891e-16
1.23631e-09
-1.32135e-09
6.05564e-16
1.14561e-09
-1.23344e-09
-3.89062e-16
1.05704e-09
-1.15164e-09
2.40857e-16
9.7106e-10
-1.07558e-09
-4.98789e-16
8.87952e-10
-1.00556e-09
5.0408e-17
8.07981e-10
-9.40521e-10
-4.67997e-16
7.31248e-10
-8.80549e-10
-8.73295e-18
6.57862e-10
-8.24726e-10
-3.6056e-16
5.87874e-10
-7.72505e-10
-1.12254e-17
5.21264e-10
-7.23749e-10
-2.62522e-16
4.58082e-10
-6.77126e-10
-4.39574e-17
3.98326e-10
-6.32398e-10
-2.83814e-16
3.42041e-10
-5.88559e-10
-1.92255e-16
2.89292e-10
-5.44882e-10
-3.89191e-16
2.40166e-10
-5.00584e-10
-3.09893e-16
1.94833e-10
-4.54431e-10
-3.31872e-16
1.53501e-10
-4.05534e-10
-2.28452e-16
1.16441e-10
-3.52976e-10
-2.24702e-16
8.39802e-11
-2.96268e-10
-1.10577e-16
5.64455e-11
-2.36374e-10
-4.03096e-17
3.4062e-11
-1.76948e-10
6.73605e-17
1.68897e-11
-1.2414e-10
1.28192e-16
5.06352e-12
-8.15062e-11
1.7926e-16
-3.4432e-11
1.8013e-16
1.50678e-09
-2.45998e-09
2.03863e-14
1.6558e-09
-2.58764e-09
2.46943e-14
1.79084e-09
-2.68622e-09
3.26963e-15
1.90875e-09
-2.75431e-09
3.19764e-15
2.00685e-09
-2.79165e-09
6.18857e-16
2.08335e-09
-2.79912e-09
-4.61064e-15
2.13736e-09
-2.77883e-09
-2.38617e-15
2.16879e-09
-2.733e-09
-4.06247e-15
2.17833e-09
-2.6653e-09
-5.53061e-16
2.16731e-09
-2.57902e-09
-1.48761e-15
2.13757e-09
-2.4781e-09
1.21052e-15
2.09129e-09
-2.36624e-09
2.79919e-17
2.03088e-09
-2.24672e-09
1.9092e-15
1.95879e-09
-2.12316e-09
6.06673e-16
1.87746e-09
-1.99793e-09
1.95666e-15
1.78914e-09
-1.87364e-09
6.95976e-16
1.69594e-09
-1.75218e-09
1.70198e-15
1.5997e-09
-1.63499e-09
3.89928e-16
1.502e-09
-1.52321e-09
1.18496e-15
1.40418e-09
-1.41755e-09
-3.03786e-17
1.30729e-09
-1.31853e-09
6.51482e-16
1.21219e-09
-1.22626e-09
-3.82868e-16
1.11953e-09
-1.14078e-09
2.42033e-16
1.02978e-09
-1.0619e-09
-5.62839e-16
9.43301e-10
-9.8909e-10
1.41271e-17
8.60248e-10
-9.22509e-10
-5.73774e-16
7.80784e-10
-8.61057e-10
-6.36758e-17
7.04932e-10
-8.04702e-10
-4.70177e-16
6.32715e-10
-7.52512e-10
-5.61412e-17
5.64125e-10
-7.03913e-10
-3.38747e-16
4.99082e-10
-6.58711e-10
-4.76587e-17
4.37594e-10
-6.15638e-10
-2.7295e-16
3.79615e-10
-5.74423e-10
-1.5589e-16
3.25162e-10
-5.34111e-10
-3.55562e-16
2.74272e-10
-4.93996e-10
-3.11168e-16
2.27014e-10
-4.53332e-10
-4.13048e-16
1.8354e-10
-4.10961e-10
-2.88572e-16
1.44042e-10
-3.6604e-10
-2.91029e-16
1.08778e-10
-3.17715e-10
-1.98733e-16
7.80566e-11
-2.65549e-10
-1.38826e-16
5.21788e-11
-2.10496e-10
-1.81682e-17
3.13244e-11
-1.56092e-10
6.20849e-17
1.54743e-11
-1.08288e-10
1.47808e-16
4.63141e-12
-7.066e-11
1.84388e-16
-2.97969e-11
1.95357e-16
1.67484e-09
-2.62497e-09
2.11082e-14
1.82671e-09
-2.73924e-09
3.0953e-14
1.96084e-09
-2.82033e-09
-2.04293e-16
2.07413e-09
-2.86762e-09
7.16324e-16
2.16422e-09
-2.88179e-09
-7.28422e-15
2.22974e-09
-2.8647e-09
-6.48373e-15
2.27034e-09
-2.81949e-09
-8.04784e-15
2.2866e-09