/*--------------------------------*- C++ -*----------------------------------*\
| =========                 |                                                 |
| \\      /  F ield         | OpenFOAM: The Open Source CFD Toolbox           |
|  \\    /   O peration     | Version:  v2012                                 |
|   \\  /    A nd           | Website:  www.openfoam.com                      |
|    \\/     M anipulation  |                                                 |
\*---------------------------------------------------------------------------*/
FoamFile
{
    version     2.0;
    format      ascii;
    class       surfaceScalarField;
    location    "0.95";
    object      alphaPhi0.water;
}
// * * * * * * * * * * * * * * * * * * * * * * * * * * * * * * * * * * * * * //

dimensions      [0 3 -1 0 0 0 0];
oriented        oriented;


internalField   nonuniform List<scalar> 
8162
(
-1.50194e-45
-2.61047e-35
-7.95978e-43
-2.9319e-53
-1.36303e-44
-4.01315e-52
-9.0773e-60
-2.42381e-52
-6.40256e-60
-2.64445e-66
-6.98921e-59
-1.68558e-66
-1.71614e-85
-1.85208e-65
-4.15692e-73
-3.06521e-87
-1.05027e-84
-2.69708e-93
-3.44003e-90
-1.89224e-86
-1.7611e-95
-8.77366e-95
-1.96335e-89
-2.07884e-97
-1.63531e-99
-4.67025e-94
-5.73189e-102
-8.66835e-103
-8.05797e-99
-1.41342e-106
-4.55915e-108
-3.87465e-102
-6.65097e-110
-4.64635e-112
-1.90019e-107
-3.52165e-115
-1.52682e-117
-1.69254e-111
-3.04789e-119
-3.71456e-122
-5.64071e-117
-8.01382e-125
-8.32742e-129
-1.13878e-121
-2.07907e-129
-5.26211e-139
-2.28191e-128
-5.66014e-136
-1.72946e-148
-1.02673e-138
-2.01885e-146
-3.78051e-160
-3.24602e-148
-7.55128e-156
-1.0765e-168
-8.52165e-160
-1.52844e-167
-1.99451e-168
-4.01252e-176
-4.14011e-28
-8.54274e-22
-3.23673e-29
-3.15301e-36
-3.84721e-27
-1.33514e-34
-1.82545e-45
-2.775e-35
-8.21153e-43
-3.54998e-53
-1.47779e-44
-4.13561e-52
-1.13572e-59
-2.64855e-52
-6.75564e-60
-3.21113e-66
-7.98502e-59
-1.88108e-66
-3.39733e-85
-2.06987e-65
-4.62647e-73
-3.96571e-87
-1.3745e-84
-4.21633e-92
-4.43156e-90
-2.28406e-86
-2.22947e-95
-1.14967e-94
-2.37155e-89
-2.57267e-97
-2.16014e-99
-5.76169e-94
-7.28712e-102
-1.09813e-102
-1.00785e-98
-1.81625e-106
-6.09921e-108
-4.62689e-102
-8.21378e-110
-5.66784e-112
-2.42523e-107
-4.67816e-115
-2.86184e-117
-1.96375e-111
-3.68337e-119
-4.96986e-122
-1.12935e-116
-1.48908e-124
-1.2785e-128
-1.4297e-121
-2.75513e-129
-5.33689e-139
-3.45979e-128
-8.54698e-136
-3.09953e-148
-1.01748e-138
-2.02073e-146
-7.13989e-160
-6.76267e-148
-1.34216e-155
-2.49428e-168
-1.57684e-159
-2.85803e-167
-4.55018e-168
-9.20133e-176
2.49065e-11
-7.48007e-09
-2.92649e-15
2.15497e-10
-2.2105e-08
4.92107e-15
1.66668e-09
-3.78467e-08
-6.54114e-15
2.7926e-09
-7.27866e-08
-6.64429e-15
1.22734e-09
-9.19826e-08
-2.45632e-14
4.48128e-10
-9.4979e-08
-3.28619e-15
1.48127e-09
-8.03988e-08
-1.479e-14
8.89412e-10
-7.69429e-08
-8.12425e-15
5.91821e-12
-4.82328e-08
-7.74871e-15
-7.10719e-09
-9.40524e-16
-3.51061e-14
-3.121e-12
-2.8748e-19
-3.74789e-15
-3.64203e-13
-2.69027e-20
-2.59118e-16
-3.14587e-14
-1.98227e-21
-8.22584e-18
-1.92806e-15
-9.84038e-23
-9.85076e-23
-6.81124e-17
-3.45065e-24
-4.58785e-28
-9.49133e-22
-3.85847e-29
-3.80518e-36
-3.75255e-27
-1.48394e-34
-2.21994e-45
-2.99404e-35
-1.00127e-42
-4.30407e-53
-1.6256e-44
-4.99741e-52
-1.43006e-59
-2.93151e-52
-8.11838e-60
-3.9235e-66
-9.26884e-59
-2.31438e-66
-2.59627e-85
-2.34726e-65
-5.49567e-73
-5.16946e-87
-1.62075e-84
-3.11951e-92
-5.75242e-90
-2.79351e-86
-2.45864e-95
-1.51661e-94
-2.90185e-89
-3.23486e-97
-2.88452e-99
-7.1894e-94
-9.35913e-102
-1.3826e-102
-1.27977e-98
-2.3608e-106
-8.27965e-108
-5.51598e-102
-1.00805e-109
-6.94961e-112
-3.15495e-107
-6.27668e-115
-6.58101e-117
-2.30578e-111
-4.4575e-119
-6.42971e-122
-2.6038e-116
-3.4384e-124
-2.12545e-128
-1.74721e-121
-3.52074e-129
-5.71753e-139
-5.7335e-128
-1.3789e-135
-8.01124e-148
-1.18963e-138
-2.11751e-146
-1.37042e-159
-1.89019e-147
-3.43293e-155
-5.8886e-168
-2.9714e-159
-5.42714e-167
-1.05926e-167
-2.14984e-175
2.20663e-11
-7.50209e-09
-3.15024e-15
2.16603e-10
-2.22996e-08
5.30439e-15
1.53237e-09
-3.91624e-08
-1.87239e-15
1.98926e-09
-7.32435e-08
-1.09968e-14
4.79283e-10
-9.04726e-08
-1.96979e-14
-5.624e-11
-9.44434e-08
-9.55742e-15
9.65595e-10
-8.14206e-08
-2.06252e-14
1.6211e-10
-7.64412e-08
-1.56995e-14
-1.26912e-10
-4.97614e-08
-8.53143e-15
-1.02536e-11
-7.92685e-09
-1.13096e-15
-1.1965e-12
-3.89476e-10
-5.05781e-17
-2.62989e-13
-2.29058e-11
-2.66151e-18
-3.9938e-14
-2.85157e-12
-2.83691e-19
-4.10937e-15
-3.31851e-13
-2.62368e-20
-2.79744e-16
-2.87648e-14
-1.90343e-21
-9.55795e-18
-1.78179e-15
-9.25663e-23
-1.26806e-22
-6.62163e-17
-3.44872e-24
-5.03915e-28
-1.09705e-21
-4.39482e-29
-4.58836e-36
-3.70413e-27
-1.37368e-34
-2.70362e-45
-3.27842e-35
-1.02817e-42
-5.22838e-53
-1.81417e-44
-5.34659e-52
-1.81242e-59
-3.28667e-52
-8.92467e-60
-4.82733e-66
-1.09286e-58
-2.70491e-66
-3.6696e-85
-2.70236e-65
-6.3508e-73
-6.78424e-87
-1.96787e-84
-4.20344e-92
-7.52493e-90
-3.45892e-86
-4.38292e-95
-2.01429e-94
-3.59717e-89
-4.09976e-97
-3.89521e-99
-9.07413e-94
-1.21404e-101
-1.7338e-102
-1.65032e-98
-3.11565e-106
-1.1436e-107
-6.5806e-102
-1.23517e-109
-8.65513e-112
-4.19453e-107
-8.60039e-115
-1.56242e-116
-2.77311e-111
-5.48299e-119
-8.13705e-122
-5.85645e-116
-8.23543e-124
-3.81751e-128
-2.10526e-121
-4.40296e-129
-1.30515e-138
-1.0205e-127
-2.37582e-135
-2.17042e-147
-4.43876e-138
-4.57605e-146
-2.67258e-159
-4.62184e-147
-9.19958e-155
-1.41499e-167
-5.69865e-159
-1.0468e-166
-2.51328e-167
-5.11252e-175
1.87318e-11
-7.52082e-09
-2.95199e-15
2.09578e-10
-2.24905e-08
4.95268e-15
1.34261e-09
-4.02954e-08
1.99562e-16
1.35027e-09
-7.32512e-08
-1.07394e-14
1.12948e-10
-8.92353e-08
-1.86439e-14
-3.38693e-10
-9.39917e-08
-1.16252e-14
6.18552e-10
-8.23774e-08
-1.69166e-14
-3.98866e-10
-7.57e-08
-1.34193e-14
-2.77566e-10
-5.1812e-08
-9.23714e-15
-1.75595e-11
-9.0149e-09
-1.34497e-15
-1.46293e-12
-4.54391e-10
-6.16266e-17
-2.99722e-13
-2.31328e-11
-2.7992e-18
-4.3942e-14
-2.67191e-12
-2.86225e-19
-4.42735e-15
-3.09134e-13
-2.67257e-20
-2.99278e-16
-2.6903e-14
-1.93852e-21
-1.07906e-17
-1.68341e-15
-9.55679e-23
-1.67284e-22
-6.52227e-17
-3.42781e-24
-5.5066e-28
-1.32983e-21
-5.40233e-29
-5.53397e-36
-3.68965e-27
-1.41505e-34
-3.29966e-45
-3.64169e-35
-1.18128e-42
-6.3663e-53
-2.0533e-44
-6.26497e-52
-2.31189e-59
-3.73168e-52
-1.05018e-59
-5.98492e-66
-1.30817e-58
-3.32664e-66
-4.56869e-85
-3.15977e-65
-7.60737e-73
-8.95734e-87
-2.3986e-84
-5.08094e-92
-9.92069e-90
-4.33173e-86
-7.38881e-95
-2.69375e-94
-4.51721e-89
-5.26181e-97
-5.32053e-99
-1.15852e-93
-1.59039e-101
-2.17173e-102
-2.16151e-98
-4.16762e-106
-1.61125e-107
-7.88151e-102
-1.5133e-109
-1.11122e-111
-5.71283e-107
-1.20311e-114
-3.44269e-116
-3.47448e-111
-6.94924e-119
-1.02305e-121
-1.1955e-115
-1.82422e-123
-7.16003e-128
-2.54605e-121
-5.46983e-129
-7.15908e-138
-1.86537e-127
-4.248e-135
-4.74666e-147
-2.36086e-137
-2.66707e-145
-5.29254e-159
-8.65349e-147
-1.9896e-154
-3.45681e-167
-1.11097e-158
-2.04928e-166
-5.33807e-175
-6.07013e-167
-1.23434e-174
-7.55153e-175
-1.75822e-182
1.5143e-11
-7.53596e-09
7.61561e-16
1.96006e-10
-2.26713e-08
1.41941e-15
1.1208e-09
-4.12202e-08
4.37576e-15
9.39451e-10
-7.30698e-08
-2.37181e-14
7.709e-11
-8.83729e-08
-1.38181e-14
-4.12012e-10
-9.35026e-08
-2.1933e-15
4.66649e-10
-8.32559e-08
5.69754e-15
-8.54344e-10
-7.46153e-08
-1.23857e-14
-4.5406e-10
-5.41941e-08
-9.94486e-15
-2.73096e-11
-1.04167e-08
-1.64354e-15
-1.74564e-12
-5.4512e-10
-7.58855e-17
-3.29627e-13
-2.48938e-11
-3.03154e-18
-4.73715e-14
-2.56764e-12
-2.79309e-19
-4.72057e-15
-2.93916e-13
-2.57093e-20
-3.18558e-16
-2.56935e-14
-1.86251e-21
-1.1957e-17
-1.62197e-15
-9.12702e-23
-2.26903e-22
-6.47264e-17
-3.38366e-24
-5.9884e-28
-1.67853e-21
-6.67457e-29
-6.68099e-36
-3.71531e-27
-1.39722e-34
-4.03734e-45
-4.10092e-35
-1.31675e-42
-7.77279e-53
-2.35547e-44
-7.20814e-52
-2.96743e-59
-4.28899e-52
-1.22534e-59
-7.48166e-66
-1.58845e-58
-4.11573e-66
-5.4491e-85
-3.75315e-65
-9.23921e-73
-1.20273e-86
-2.91076e-84
-5.94135e-92
-1.31817e-89
-5.49458e-86
-1.11299e-94
-3.62768e-94
-5.74555e-89
-6.87546e-97
-7.35149e-99
-1.49619e-93
-2.11631e-101
-2.72809e-102
-2.87514e-98
-5.6751e-106
-2.32033e-107
-9.51928e-102
-1.86637e-109
-1.50022e-111
-7.98365e-107
-1.7243e-114
-6.82487e-116
-4.63451e-111
-9.26204e-119
-1.30757e-121
-2.19094e-115
-3.61876e-123
-1.34006e-127
-3.17683e-121
-6.90271e-129
-2.92207e-137
-3.34828e-127
-7.58383e-135
-8.39813e-147
-7.70996e-137
-1.17895e-144
-1.06308e-158
-1.34134e-146
-3.47906e-154
-8.57574e-167
-2.19787e-158
-4.06761e-166
-2.17825e-174
-1.49056e-166
-3.02631e-174
-3.07177e-174
-7.08056e-182
1.15635e-11
-7.54754e-09
2.2255e-15
1.78223e-10
-2.2838e-08
-1.04139e-15
8.96666e-10
-4.19387e-08
6.86118e-15
7.60949e-10
-7.29341e-08
-2.31123e-14
2.32037e-10
-8.7844e-08
-9.10611e-15
-3.68041e-10
-9.29025e-08
-9.17253e-16
4.71017e-10
-8.40948e-08
1.56625e-14
-1.21318e-09
-7.31191e-08
-1.33649e-14
-6.59733e-10
-5.6776e-08
-1.04798e-14
-4.05757e-11
-1.22029e-08
-2.01423e-15
-2.09924e-12
-6.71158e-10
-9.44982e-17
-3.53125e-13
-2.79205e-11
-3.5077e-18
-5.04062e-14
-2.51624e-12
-2.80989e-19
-4.99966e-15
-2.84069e-13
-2.57623e-20
-3.37522e-16
-2.49647e-14
-1.87777e-21
-1.31415e-17
-1.5901e-15
-9.42548e-23
-3.13951e-22
-6.50957e-17
-3.56159e-24
-6.48918e-28
-2.1891e-21
-9.16071e-29
-8.07741e-36
-3.77545e-27
-1.49961e-34
-4.9537e-45
-4.67754e-35
-1.56914e-42
-9.51745e-53
-2.73663e-44
-8.55668e-52
-3.83114e-59
-4.98723e-52
-1.44622e-59
-9.43542e-66
-1.95462e-58
-5.11477e-66
-8.44236e-85
-4.52901e-65
-1.12569e-72
-1.58907e-86
-3.69913e-84
-8.96407e-92
-1.76511e-89
-7.0164e-86
-1.48046e-94
-4.92032e-94
-7.39987e-89
-9.01363e-97
-1.02742e-98
-1.95454e-93
-2.82828e-101
-3.45635e-102
-3.88277e-98
-7.80363e-106
-3.41896e-107
-1.16687e-101
-2.31715e-109
-2.1775e-111
-1.14537e-106
-2.51406e-114
-1.22139e-115
-6.72454e-111
-1.325e-118
-1.76187e-121
-3.64517e-115
-6.44901e-123
-2.41985e-127
-4.27367e-121
-9.16168e-129
-7.86429e-137
-5.74746e-127
-1.31216e-134
-1.35124e-146
-1.70492e-136
-3.37466e-144
-2.1623e-158
-2.02154e-146
-5.52795e-154
-2.15805e-166
-4.40322e-158
-8.17073e-166
-8.99767e-174
-3.71723e-166
-7.52278e-174
-2.44805e-262
-1.26584e-173
-2.8881e-181
6.90137e-264
-1.60542e-273
8.28375e-12
-7.55584e-09
6.27132e-15
1.57484e-10
-2.29871e-08
-5.86697e-15
7.06883e-10
-4.24881e-08
1.1078e-14
7.4859e-10
-7.29759e-08
-3.11059e-14
3.50303e-10
-8.74457e-08
-1.36524e-15
-4.15718e-10
-9.21365e-08
7.53947e-15
4.14535e-10
-8.49252e-08
2.1631e-14
-1.47523e-09
-7.13695e-08
-1.36952e-14
-8.99547e-10
-5.93883e-08
-1.12346e-14
-5.91434e-11
-1.44499e-08
-2.40672e-15
-2.5059e-12
-8.47287e-10
-1.1968e-16
-3.6838e-13
-3.24219e-11
-4.28826e-18
-5.31004e-14
-2.49715e-12
-2.79317e-19
-5.25758e-15
-2.78765e-13
-2.54507e-20
-3.55068e-16
-2.45711e-14
-1.84283e-21
-1.43747e-17
-1.58076e-15
-9.52437e-23
-4.40954e-22
-6.62495e-17
-3.6795e-24
-7.0056e-28
-2.92796e-21
-1.25037e-28
-9.78226e-36
-3.86718e-27
-1.57726e-34
-6.09538e-45
-5.39854e-35
-1.87934e-42
-1.16885e-52
-3.21717e-44
-1.04835e-51
-4.97258e-59
-5.86311e-52
-1.78012e-59
-1.20101e-65
-2.43466e-58
-6.66162e-66
-1.21807e-84
-5.55214e-65
-1.43577e-72
-2.12844e-86
-4.83557e-84
-1.29793e-91
-2.38176e-89
-9.0315e-86
-1.83761e-94
-6.72229e-94
-9.647e-89
-1.21143e-96
-1.45194e-98
-2.58265e-93
-3.85354e-101
-4.45205e-102
-5.3207e-98
-1.09334e-105
-5.15325e-107
-1.46477e-101
-2.93762e-109
-3.45125e-111
-1.68522e-106
-3.7457e-114
-2.00036e-115
-1.07188e-110
-2.07234e-118
-2.6384e-121
-5.59217e-115
-1.0484e-122
-4.15521e-127
-6.5716e-121
-1.34729e-128
-1.65119e-136
-9.36714e-127
-2.17051e-134
-2.45691e-146
-3.14181e-136
-7.48209e-144
-4.44484e-158
-4.05951e-146
-9.91712e-154
-5.50335e-166
-8.91571e-158
-1.6575e-165
-3.75446e-173
-9.40622e-166
-1.89427e-173
-1.07962e-262
-5.27301e-173
-1.19096e-180
2.21396e-264
-6.99273e-274
5.48156e-12
-7.56137e-09
5.31649e-15
1.3497e-10
-2.31166e-08
-3.44443e-15
5.85136e-10
-4.29382e-08
1.21872e-14
7.6916e-10
-7.31599e-08
-2.71381e-14
1.59497e-10
-8.6836e-08
2.96215e-15
-8.26304e-10
-9.11507e-08
4.09445e-15
-5.28524e-11
-8.56997e-08
1.91108e-14
-1.66545e-09
-6.98551e-08
-1.3909e-14
-1.17716e-09
-6.18847e-08
-1.08262e-14
-8.57173e-11
-1.7246e-08
-2.95136e-15
-3.03636e-12
-1.0958e-09
-1.54672e-16
-3.83555e-13
-3.89421e-11
-5.18018e-18
-5.52915e-14
-2.5733e-12
-2.83185e-19
-5.51086e-15
-2.76764e-13
-2.62821e-20
-3.79036e-16
-2.46184e-14
-1.83491e-21
-1.55685e-17
-1.59917e-15
-9.80091e-23
-6.24877e-22
-6.80544e-17
-3.95564e-24
-7.53831e-28
-3.98401e-21
-1.76191e-28
-1.18678e-35
-3.98749e-27
-1.67973e-34
-7.52115e-45
-6.29792e-35
-2.23947e-42
-1.43979e-52
-3.82322e-44
-1.25166e-51
-6.48439e-59
-6.96392e-52
-2.1232e-59
-1.54353e-65
-3.06589e-58
-8.44737e-66
-3.66354e-84
-6.91351e-65
-1.80203e-72
-2.882e-86
-8.1225e-84
-1.63207e-91
-3.23806e-89
-1.17289e-85
-2.38702e-94
-9.25302e-94
-1.27247e-88
-1.62343e-96
-2.0738e-98
-3.45173e-93
-5.25585e-101
-5.89453e-102
-7.39291e-98
-1.54277e-105
-7.93129e-107
-1.90596e-101
-3.82042e-109
-5.95526e-111
-2.5365e-106
-5.6778e-114
-3.04235e-115
-1.85351e-110
-3.53008e-118
-4.60936e-121
-8.02535e-115
-1.57751e-122
-6.79279e-127
-1.19678e-120
-2.30465e-128
-3.36497e-136
-1.45903e-126
-3.43247e-134
-7.49771e-146
-6.29382e-136
-1.62508e-143
-9.21688e-158
-1.65102e-145
-2.98299e-153
-1.42112e-165
-1.82225e-157
-3.38887e-165
-1.57953e-172
-2.41325e-165
-4.82652e-173
-4.60183e-263
-2.2159e-172
-4.95117e-180
5.85381e-265
-2.97587e-274
3.26578e-12
-7.56467e-09
3.48449e-15
1.1102e-10
-2.32243e-08
-3.38342e-15
5.37154e-10
-4.33644e-08
3.38605e-15
6.66242e-10
-7.3289e-08
-1.80335e-14
-4.84192e-10
-8.56856e-08
1.34676e-15
-1.70866e-09
-8.99262e-08
-2.67429e-15
-1.08319e-09
-8.63257e-08
1.05585e-14
-1.81018e-09
-6.91931e-08
-1.32881e-14
-1.49132e-09
-6.41344e-08
-1.08596e-14
-1.24284e-10
-2.068e-08
-3.73873e-15
-3.91708e-12
-1.45012e-09
-2.11387e-16
-4.03626e-13
-4.83488e-11
-6.48582e-18
-5.78674e-14
-2.73758e-12
-3.04484e-19
-5.8231e-15
-2.79966e-13
-2.8e-20
-4.01049e-16
-2.49207e-14
-1.95991e-21
-1.6805e-17
-1.62982e-15
-1.05667e-22
-8.879e-22
-7.04333e-17
-4.30978e-24
-8.08315e-28
-5.47597e-21
-2.52803e-28
-1.44227e-35
-4.13293e-27
-1.85661e-34
-9.30499e-45
-7.41858e-35
-2.81794e-42
-1.77884e-52
-4.58831e-44
-1.5943e-51
-8.48955e-59
-8.35087e-52
-2.69056e-59
-2.00341e-65
-3.89819e-58
-1.13034e-65
-2.776e-85
-8.74173e-65
-2.37739e-72
-6.80752e-86
-8.32925e-84
-5.45414e-92
-4.43463e-89
-1.8234e-85
-4.21754e-94
-1.28347e-93
-1.69739e-88
-2.22704e-96
-2.99168e-98
-4.66604e-93
-7.29814e-101
-8.13433e-102
-1.04057e-97
-2.2116e-105
-1.2425e-106
-2.60893e-101
-5.19404e-109
-1.09138e-110
-3.89045e-106
-8.74229e-114
-4.35335e-115
-3.36734e-110
-6.3945e-118
-9.32598e-121
-1.09074e-114
-2.22794e-122
-1.06991e-126
-2.47985e-120
-4.56658e-128
-9.23386e-136
-2.20683e-126
-5.24497e-134
-3.68885e-145
-2.07678e-135
-4.81731e-143
-1.92575e-157
-8.54076e-145
-1.44511e-152
-3.71372e-165
-3.75933e-157
-6.97509e-165
-6.68845e-172
-6.27274e-165
-1.24338e-172
-1.89451e-263
-9.37693e-172
-2.07e-179
9.27074e-266
-1.23751e-274
1.54689e-12
-7.56623e-09
1.26019e-15
8.66715e-11
-2.33094e-08
-1.21269e-15
5.32906e-10
-4.38106e-08
5.21076e-15
3.4753e-10
-7.31037e-08
-1.74072e-14
-1.45432e-09
-8.38838e-08
-4.20357e-15
-2.85905e-09
-8.85215e-08
9.49559e-15
-2.39738e-09
-8.67873e-08
2.70611e-15
-1.90163e-09
-6.97152e-08
9.09093e-16
-1.8287e-09
-6.59973e-08
-1.32322e-14
-1.80393e-10
-2.48182e-08
-4.65583e-15
-5.15476e-12
-1.96005e-09
-2.92781e-16
-4.23829e-13
-6.22951e-11
-8.50032e-18
-6.02819e-14
-3.00684e-12
-3.24887e-19
-6.09228e-15
-2.86274e-13
-2.78599e-20
-4.23424e-16
-2.54455e-14
-1.96604e-21
-1.80772e-17
-1.67718e-15
-1.02807e-22
-1.25863e-21
-7.34107e-17
-4.25257e-24
-8.63415e-28
-7.55902e-21
-3.21869e-28
-1.75553e-35
-4.29989e-27
-1.8583e-34
-1.15401e-44
-8.81473e-35
-3.24086e-42
-2.20427e-52
-5.55563e-44
-1.86045e-51
-1.1151e-58
-1.01037e-51
-3.15526e-59
-2.62643e-65
-4.99799e-58
-1.42062e-65
-4.74966e-84
-1.12196e-64
-3.01035e-72
-6.36939e-86
-1.26046e-83
-4.93125e-91
-6.11684e-89
-2.40389e-85
-5.43141e-94
-1.79446e-93
-2.28862e-88
-3.02635e-96
-4.35553e-98
-6.3797e-93
-1.0114e-100
-1.18762e-101
-1.48205e-97
-3.18379e-105
-1.97292e-106
-3.81135e-101
-7.45291e-109
-2.05052e-110
-6.05204e-106
-1.36137e-113
-5.93003e-115
-6.1975e-110
-1.18763e-117
-2.02688e-120
-1.41991e-114
-2.98845e-122
-1.65659e-126
-5.32927e-120
-9.74235e-128
-4.52394e-135
-3.3193e-126
-7.88976e-134
-1.5563e-144
-1.25346e-134
-2.42382e-142
-4.05462e-157
-3.10207e-144
-5.9978e-152
-9.8154e-165
-7.8403e-157
-1.44543e-164
-2.84626e-171
-1.65035e-164
-3.23661e-172
-6.65555e-196
-3.98908e-171
-8.68796e-179
-1.22851e-195
-1.87012e-203
8.25022e-14
-7.5663e-09
-2.61787e-15
6.37882e-11
-2.33731e-08
-1.23951e-16
5.23506e-10
-4.42703e-08
-5.47346e-15
-1.46701e-10
-7.24335e-08
-9.66738e-15
-2.3893e-09
-8.16412e-08
-1.18137e-14
-3.84891e-09
-8.70619e-08
5.26565e-15
-3.48421e-09
-8.7152e-08
-5.49526e-15
-1.87579e-09
-7.13318e-08
-2.6976e-15
-2.1575e-09
-6.72705e-08
-1.4392e-14
-2.61295e-10
-2.96649e-08
-5.27093e-15
-6.94756e-12
-2.69874e-09
-3.83487e-16
-4.45026e-13
-8.37295e-11
-1.14006e-17
-6.24668e-14
-3.43474e-12
-3.95122e-19
-6.37183e-15
-2.97191e-13
-2.98536e-20
-4.46948e-16
-2.62417e-14
-2.12115e-21
-1.93739e-17
-1.73952e-15
-1.09787e-22
-1.77273e-21
-7.69564e-17
-4.59546e-24
-9.18351e-28
-1.04317e-20
-4.60566e-28
-2.13991e-35
-4.4848e-27
-2.04022e-34
-1.43443e-44
-1.05552e-34
-4.04033e-42
-2.73963e-52
-6.78091e-44
-2.34899e-51
-1.46838e-58
-1.2327e-51
-3.98768e-59
-3.47774e-65
-6.45383e-58
-1.9053e-65
-5.98322e-85
-1.46086e-64
-4.05166e-72
-1.41623e-85
-1.30575e-83
-9.02844e-92
-8.49581e-89
-3.73715e-85
-8.05105e-94
-2.52955e-93
-3.11742e-88
-4.2128e-96
-6.39355e-98
-8.82248e-93
-1.42655e-100
-1.85528e-101
-2.13335e-97
-4.64242e-105
-3.16038e-106
-5.99089e-101
-1.1473e-108
-3.8282e-110
-9.50133e-106
-2.13952e-113
-7.7824e-115
-1.12371e-109
-2.19165e-117
-4.35202e-120
-1.7923e-114
-3.85417e-122
-2.59168e-126
-1.10203e-119
-2.05801e-127
-2.72451e-134
-5.12241e-126
-1.1996e-133
-4.54609e-144
-7.39688e-134
-1.40104e-141
-8.61714e-157
-7.64123e-144
-1.72252e-151
-2.62181e-164
-1.65794e-156
-3.02139e-164
-1.2156e-170
-4.38943e-164
-8.50726e-172
-4.26461e-193
-1.70354e-170
-3.65535e-178
-9.02981e-193
-1.18155e-200
-1.29086e-12
-7.565e-09
-3.51471e-15
4.44102e-11
-2.34188e-08
1.44532e-15
4.80644e-10
-4.47065e-08
-2.6525e-15
-6.22223e-10
-7.13306e-08
-1.56454e-14
-2.88861e-09
-7.93748e-08
-1.0883e-14
-4.25181e-09
-8.56987e-08
6.45347e-15
-3.91217e-09
-8.74917e-08
2.28969e-15
-1.59631e-09
-7.36522e-08
-8.36849e-15
-2.41993e-09
-6.76728e-08
-1.25336e-14
-3.75477e-10
-3.51089e-08
-6.2531e-15
-9.63346e-12
-3.77056e-09
-5.38711e-16
-4.64266e-13
-1.17699e-10
-1.57386e-17
-6.47031e-14
-4.05926e-12
-4.66186e-19
-6.65491e-15
-3.13655e-13
-2.99631e-20
-4.7068e-16
-2.73029e-14
-2.17665e-21
-2.0692e-17
-1.81642e-15
-1.15459e-22
-2.47338e-21
-8.10683e-17
-4.93076e-24
-9.72283e-28
-1.43436e-20
-6.40781e-28
-2.61187e-35
-4.68447e-27
-2.13793e-34
-1.78667e-44
-1.27276e-34
-4.89687e-42
-3.4155e-52
-8.33637e-44
-2.87943e-51
-1.93715e-58
-1.51589e-51
-4.85516e-59
-4.6503e-65
-8.38345e-58
-2.44444e-65
-1.04818e-83
-1.92831e-64
-5.26839e-72
-1.36161e-85
-2.21892e-83
-1.07955e-90
-1.18794e-88
-4.9565e-85
-1.36811e-93
-3.59612e-93
-4.28764e-88
-5.79964e-96
-9.45342e-98
-1.234e-92
-2.00698e-100
-3.10422e-101
-3.09976e-97
-6.7833e-105
-5.08405e-106
-1.00867e-100
-1.89296e-108
-6.95948e-110
-1.49846e-105
-3.38647e-113
-9.98708e-115
-1.97554e-109
-3.9367e-117
-8.79967e-120
-2.23017e-114
-4.85204e-122
-4.23413e-126
-2.12212e-119
-4.09969e-127
-1.26679e-133
-8.4004e-126
-1.90389e-133
-9.92399e-144
-3.00579e-133
-6.19008e-141
-1.8544e-156
-1.4642e-143
-3.69617e-151
-7.06995e-164
-3.56757e-156
-6.39234e-164
-5.20435e-170
-1.17831e-163
-2.25583e-171
-8.57026e-191
-7.29381e-170
-1.53997e-177
-1.71149e-190
-2.33786e-198
-2.4981e-12
-7.56249e-09
-1.22127e-15
2.97661e-11
-2.34511e-08
-2.25775e-16
4.21191e-10
-4.50979e-08
-3.37034e-15
-8.55158e-10
-7.00542e-08
-1.50087e-14
-2.74509e-09
-7.74849e-08
-1.70362e-14
-3.87607e-09
-8.45676e-08
-6.33946e-15
-3.47999e-09
-8.78877e-08
-1.19475e-14
-9.24609e-10
-7.62086e-08
-1.24521e-14
-2.53785e-09
-6.69188e-08
-1.32124e-14
-5.31328e-10
-4.08751e-08
-6.99584e-15
-1.37449e-11
-5.31821e-09
-7.45211e-16
-5.23788e-13
-1.72619e-10
-2.18677e-17
-6.70179e-14
-4.91161e-12
-5.23719e-19
-6.94031e-15
-3.36891e-13
-3.16908e-20
-4.94817e-16
-2.86621e-14
-2.29826e-21
-2.20262e-17
-1.90885e-15
-1.21147e-22
-3.41147e-21
-8.5775e-17
-5.29162e-24
-1.02446e-27
-1.96025e-20
-8.72629e-28
-3.19185e-35
-4.89664e-27
-2.28192e-34
-2.22972e-44
-1.54443e-34
-5.99489e-42
-4.27195e-52
-1.03161e-43
-3.5474e-51
-2.55865e-58
-1.87841e-51
-5.9906e-59
-6.2771e-65
-1.09434e-57
-3.20341e-65
-6.44523e-84
-2.5782e-64
-7.08403e-72
-2.22261e-85
-2.77157e-83
-6.63042e-91
-1.67191e-88
-6.98811e-85
-1.8967e-93
-5.1572e-93
-5.9514e-88
-8.11968e-96
-1.40652e-97
-1.74566e-92
-2.86164e-100
-5.49311e-101
-4.54064e-97
-9.99276e-105
-8.1813e-106
-1.7865e-100
-3.31237e-108
-1.22022e-109
-2.36502e-105
-5.36513e-113
-1.28146e-114
-3.34666e-109
-6.81413e-117
-1.65311e-119
-2.80988e-114
-6.09466e-122
-7.44081e-126
-3.79351e-119
-7.59374e-127
-4.14182e-133
-1.50089e-125
-3.24838e-133
-1.86177e-143
-8.50696e-133
-1.94459e-140
-4.05595e-156
-2.56846e-143
-6.81786e-151
-1.92192e-163
-7.83216e-156
-1.37454e-163
-2.23144e-169
-3.187e-163
-6.02707e-171
-9.46211e-189
-3.12777e-169
-6.49098e-177
-1.76589e-188
-2.53764e-196
-3.34972e-12
-7.55913e-09
-1.93797e-16
2.05719e-11
-2.3475e-08
2.37748e-16
3.94854e-10
-4.54722e-08
7.93976e-16
-7.52084e-10
-6.89073e-08
-2.19861e-14
-2.12322e-09
-7.61138e-08
-1.76276e-14
-3.00152e-09
-8.36894e-08
-1.09168e-14
-2.54532e-09
-8.83439e-08
-1.32051e-14
-6.38464e-11
-7.86895e-08
-5.53134e-15
-2.45439e-09
-6.50547e-08
-1.35205e-14
-7.35372e-10
-4.65431e-08
-8.15795e-15
-2.00892e-11
-7.52822e-09
-1.08441e-15
-6.35965e-13
-2.61603e-10
-3.227e-17
-6.96039e-14
-6.12369e-12
-7.05817e-19
-7.23348e-15
-3.69347e-13
-3.26382e-20
-5.19412e-16
-3.03728e-14
-2.36711e-21
-2.33763e-17
-2.01844e-15
-1.22927e-22
-4.64538e-21
-9.11323e-17
-5.61188e-24
-1.07436e-27
-2.65832e-20
-1.17844e-27
-3.90546e-35
-5.12056e-27
-2.32815e-34
-2.78784e-44
-1.88506e-34
-7.17776e-42
-5.36205e-52
-1.28434e-43
-4.30843e-51
-3.3818e-58
-2.34513e-51
-7.23552e-59
-8.54855e-65
-1.43415e-57
-4.06109e-65
-8.83023e-84
-3.48803e-64
-9.27002e-72
-3.42513e-85
-3.52656e-83
-8.7911e-91
-2.36792e-88
-1.01421e-84
-2.90665e-93
-7.46229e-93
-8.33269e-88
-1.12567e-95
-2.10381e-97
-2.49733e-92
-4.07312e-100
-1.00492e-100
-6.69771e-97
-1.47156e-104
-1.31313e-105
-3.24488e-100
-5.98692e-108
-2.05912e-109
-3.72541e-105
-8.47076e-113
-1.70846e-114
-5.4636e-109
-1.13499e-116
-2.90411e-119
-3.76407e-114
-7.94215e-122
-1.41713e-125
-6.37144e-119
-1.31697e-126
-1.0217e-132
-2.90138e-125
-6.01068e-133
-3.53777e-143
-1.86599e-132
-4.66551e-140
-9.04167e-156
-5.01122e-143
-1.27489e-150
-5.25895e-163
-1.75402e-155
-3.01365e-163
-9.57471e-169
-8.6737e-163
-1.62063e-170
-6.92878e-187
-1.34237e-168
-2.73593e-176
-1.21118e-186
-1.82454e-194
-3.62675e-12
-7.55551e-09
1.84229e-15
1.85692e-11
-2.34972e-08
-5.88393e-15
4.42636e-10
-4.58963e-08
-2.87287e-15
-4.33457e-10
-6.80312e-08
-2.47136e-14
-1.54452e-09
-7.50027e-08
-1.7504e-14
-2.37213e-09
-8.28618e-08
-1.23609e-14
-2.09331e-09
-8.86228e-08
-3.9082e-14
1.14589e-10
-8.08977e-08
-7.05506e-15
-2.19192e-09
-6.30232e-08
-1.28544e-14
-9.88623e-10
-5.16632e-08
-7.37164e-15
-3.07748e-11
-1.06289e-08
-1.49238e-15
-7.96626e-13
-4.05467e-10
-4.14211e-17
-7.24281e-14
-8.02908e-12
-8.59109e-19
-7.53748e-15
-4.16118e-13
-3.54578e-20
-5.44689e-16
-3.25272e-14
-2.58156e-21
-2.47478e-17
-2.14822e-15
-1.21947e-22
-6.24045e-21
-9.72414e-17
-5.82019e-24
-1.12188e-27
-3.57355e-20
-1.52535e-27
-4.78507e-35
-5.35751e-27
-2.35868e-34
-3.49235e-44
-2.31354e-34
-8.45875e-42
-6.75684e-52
-1.60808e-43
-5.13218e-51
-4.47074e-58
-2.94992e-51
-8.66399e-59
-1.17371e-64
-1.88542e-57
-5.15117e-65
-6.23566e-84
-4.76936e-64
-1.23027e-71
-4.92219e-85
-4.09766e-83
-9.59047e-91
-3.3743e-88
-1.47047e-84
-4.46629e-93
-1.08958e-92
-1.17628e-87
-1.57366e-95
-3.16092e-97
-3.6123e-92
-5.8503e-100
-1.85412e-100
-9.93844e-97
-2.17546e-104
-2.09851e-105
-5.89881e-100
-1.09049e-107
-3.35325e-109
-5.84825e-105
-1.33073e-112
-2.53288e-114
-8.62993e-109
-1.82444e-116
-4.85243e-119
-5.83247e-114
-1.15006e-121
-2.84582e-125
-1.02603e-118
-2.17561e-126
-2.10924e-132
-5.81578e-125
-1.17589e-132
-8.24831e-143
-3.55618e-132
-9.45848e-140
-2.05448e-155
-1.31514e-142
-2.9292e-150
-1.4468e-162
-3.99132e-155
-6.74062e-163
-4.1094e-168
-2.37446e-162
-4.38239e-170
-3.70561e-185
-5.76306e-168
-1.15296e-175
-6.08536e-185
-9.57095e-193
-3.40177e-12
-7.55211e-09
1.46219e-15
2.35427e-11
-2.35241e-08
5.96998e-15
5.57531e-10
-4.64303e-08
5.37465e-15
-1.76265e-10
-6.72974e-08
-1.95732e-14
-1.52849e-09
-7.36505e-08
-9.98686e-15
-2.64329e-09
-8.17472e-08
-2.22059e-14
-2.86549e-09
-8.84005e-08
-1.58874e-14
-1.04518e-09
-8.27183e-08
-5.53701e-15
-1.83963e-09
-6.23506e-08
-5.23861e-15
-1.27631e-09
-5.58709e-08
-5.77238e-15
-5.10216e-11
-1.48592e-08
-2.0103e-15
-1.05566e-12
-6.44302e-10
-6.21796e-17
-7.51023e-14
-1.13728e-11
-1.21641e-18
-7.85276e-15
-4.87671e-13
-3.75509e-20
-5.71042e-16
-3.52882e-14
-2.7313e-21
-2.61542e-17
-2.30326e-15
-1.17735e-22
-8.26802e-21
-1.04268e-16
-5.87165e-24
-1.16734e-27
-4.75958e-20
-2.04082e-27
-5.87201e-35
-5.61127e-27
-2.45659e-34
-4.38384e-44
-2.8548e-34
-1.0273e-41
-8.55252e-52
-2.02447e-43
-6.29119e-51
-5.90962e-58
-3.73949e-51
-1.06779e-58
-1.62322e-64
-2.48492e-57
-6.68783e-65
-1.21783e-82
-6.58249e-64
-1.67277e-71
-5.58533e-85
-1.47725e-82
-1.10059e-89
-4.83715e-88
-1.98599e-84
-7.22488e-93
-1.60536e-92
-1.67344e-87
-2.21406e-95
-4.76751e-97
-5.2813e-92
-8.46529e-100
-3.38089e-100
-1.48234e-96
-3.22495e-104
-3.33759e-105
-1.05399e-99
-1.96293e-107
-5.30002e-109
-9.1479e-105
-2.08155e-112
-4.56969e-114
-1.32758e-108
-2.85048e-116
-7.90038e-119
-1.14145e-113
-2.03826e-121
-5.74392e-125
-1.62831e-118
-3.51063e-126
-4.05944e-132
-1.14818e-124
-2.32298e-132
-2.51236e-142
-6.62458e-132
-1.80003e-139
-4.74088e-155
-4.2758e-142
-8.80918e-150
-4.0011e-162
-9.16051e-155
-1.53302e-162
-1.76377e-167
-6.54481e-162
-1.19194e-169
-1.53514e-183
-2.47429e-167
-4.85837e-175
-2.37916e-183
-3.88638e-191
-2.76653e-12
-7.54934e-09
8.42901e-16
3.48889e-11
-2.35618e-08
-3.34184e-15
6.87487e-10
-4.70828e-08
-6.00628e-15
-2.16975e-10
-6.63929e-08
-1.06035e-14
-2.15722e-09
-7.17103e-08
-1.77532e-15
-3.75283e-09
-8.01516e-08
-3.09436e-14
-4.52349e-09
-8.76297e-08
-7.97157e-15
-2.91887e-09
-8.43229e-08
-1.21793e-14
-1.4342e-09
-6.38661e-08
-1.01554e-14
-1.55328e-09
-5.887e-08
-3.69288e-15
-8.61766e-11
-2.039e-08
-2.15301e-15
-1.51853e-12
-1.05652e-09
-9.54078e-17
-7.6053e-14
-1.78382e-11
-1.86856e-18
-8.1761e-15
-5.98402e-13
-4.32787e-20
-5.99041e-16
-3.89331e-14
-2.6878e-21
-2.76186e-17
-2.49171e-15
-1.26411e-22
-1.08043e-20
-1.12468e-16
-5.98148e-24
-1.21159e-27
-6.28005e-20
-2.66135e-27
-7.21957e-35
-5.88818e-27
-2.47285e-34
-5.51541e-44
-3.542e-34
-1.23539e-41
-1.08809e-51
-2.56251e-43
-7.78069e-51
-7.80897e-58
-4.77896e-51
-1.32575e-58
-2.25888e-64
-3.28163e-57
-8.60936e-65
-4.44209e-83
-9.15725e-64
-2.25086e-71
-7.52994e-85
-1.86876e-82
-4.06706e-90
-6.97466e-88
-2.69441e-84
-1.08599e-92
-2.38642e-92
-2.39828e-87
-3.10854e-95
-7.21568e-97
-7.80089e-92
-1.23128e-99
-6.01206e-100
-2.22125e-96
-4.79735e-104
-5.28751e-105
-1.83094e-99
-3.45391e-107
-8.19778e-109
-1.42748e-104
-3.25091e-112
-1.03106e-113
-2.00716e-108
-4.36934e-116
-1.29414e-118
-2.75007e-113
-4.58198e-121
-1.11976e-124
-2.64098e-118
-5.71461e-126
-8.19305e-132
-2.15996e-124
-4.45517e-132
-8.07359e-142
-1.37612e-131
-3.60205e-139
-1.10332e-154
-1.29248e-141
-2.80119e-149
-1.11359e-161
-2.1014e-154
-3.52182e-162
-7.56991e-167
-1.82047e-161
-3.26573e-169
-5.13726e-182
-1.06203e-166
-2.04771e-174
-7.57211e-182
-1.27441e-189
-2.13733e-12
-7.54719e-09
1.12252e-16
5.02037e-11
-2.36141e-08
4.47751e-15
7.62928e-10
-4.77956e-08
9.58405e-16
-5.73518e-10
-6.50564e-08
-2.52925e-14
-3.0362e-09
-6.92476e-08
-1.82893e-14
-4.97758e-09
-7.82103e-08
-1.49876e-14
-6.00972e-09
-8.65975e-08
1.01855e-14
-4.26051e-09
-8.60721e-08
-1.69935e-14
-8.11604e-10
-6.73219e-08
-2.86671e-14
-1.7321e-09
-6.02943e-08
-3.68384e-15
-1.47062e-10
-2.71787e-08
-2.48951e-15
-2.40806e-12
-1.79014e-09
-1.54911e-16
-8.23307e-14
-3.12881e-11
-2.78946e-18
-8.51852e-15
-7.69296e-13
-5.14661e-20
-6.29513e-16
-4.3949e-14
-3.11531e-21
-2.91768e-17
-2.72644e-15
-1.34246e-22
-1.3929e-20
-1.22232e-16
-6.26336e-24
-1.25586e-27
-8.21063e-20
-3.12022e-27
-8.89721e-35
-6.19676e-27
-2.37933e-34
-6.95711e-44
-4.41978e-34
-1.40525e-41
-1.39244e-51
-3.26145e-43
-9.06486e-51
-1.03142e-57
-6.16014e-51
-1.61419e-58
-3.15949e-64
-4.34102e-57
-1.13183e-64
-6.78612e-83
-1.28221e-63
-3.16838e-71
-1.03558e-84
-2.48539e-82
-6.20221e-90
-1.01142e-87
-3.68781e-84
-1.5241e-92
-3.57805e-92
-3.46114e-87
-4.46035e-95
-1.09581e-96
-1.16337e-91
-1.82063e-99
-1.03529e-99
-3.34333e-96
-7.19374e-104
-8.36219e-105
-3.07647e-99
-5.90881e-107
-1.25465e-108
-2.2278e-104
-5.08084e-112
-2.61502e-113
-3.01905e-108
-6.64897e-116
-2.22067e-118
-7.02878e-113
-1.17316e-120
-2.07348e-124
-4.57765e-118
-9.77237e-126
-1.93757e-131
-3.84375e-124
-8.15555e-132
-2.30134e-141
-3.5059e-131
-8.40419e-139
-2.56843e-154
-3.32854e-141
-7.91933e-149
-3.12681e-161
-4.77832e-154
-8.10662e-162
-3.24856e-166
-5.12337e-161
-9.03769e-169
-1.43789e-180
-4.55542e-166
-8.63515e-174
-2.03524e-180
-3.49566e-188
-1.58009e-12
-7.54561e-09
1.27867e-15
6.8635e-11
-2.36843e-08
-1.49571e-15
7.44352e-10
-4.84713e-08
2.06243e-15
-1.05745e-09
-6.32546e-08
-1.95907e-14
-3.69041e-09
-6.66147e-08
-1.12485e-14
-5.67167e-09
-7.62291e-08
-1.73865e-14
-6.58444e-09
-8.56847e-08
1.58217e-14
-4.48764e-09
-8.81689e-08
-1.75776e-14
1.78025e-10
-7.19882e-08
-2.18364e-15
-1.69223e-09
-5.98925e-08
1.23592e-14
-2.48509e-10
-3.47927e-08
-4.47093e-15
-4.18869e-12
-3.11522e-09
-3.01432e-16
-1.05076e-13
-6.06409e-11
-3.97696e-18
-8.88873e-15