/*--------------------------------*- C++ -*----------------------------------*\
| =========                 |                                                 |
| \\      /  F ield         | OpenFOAM: The Open Source CFD Toolbox           |
|  \\    /   O peration     | Version:  v2012                                 |
|   \\  /    A nd           | Website:  www.openfoam.com                      |
|    \\/     M anipulation  |                                                 |
\*---------------------------------------------------------------------------*/
FoamFile
{
    version     2.0;
    format      ascii;
    class       volScalarField;
    location    "0.95";
    object      alpha.water;
}
// * * * * * * * * * * * * * * * * * * * * * * * * * * * * * * * * * * * * * //

dimensions      [0 0 0 0 0 0 0];


internalField   nonuniform List<scalar> 
3332
(
2.25639e-28
1.14354e-37
1.99238e-45
5.56853e-52
1.48094e-58
8.48611e-78
1.46468e-79
1.53539e-82
3.67901e-87
6.478e-92
3.26396e-95
1.63646e-100
1.60017e-104
5.00784e-110
1.19056e-114
2.58517e-121
1.59631e-131
5.11392e-141
1.10432e-152
3.10627e-161
7.72178e-15
3.60451e-20
2.41521e-28
1.2483e-37
2.19318e-45
6.39769e-52
1.66542e-58
1.68555e-77
1.77861e-79
1.86637e-82
4.5701e-87
8.14427e-92
3.95e-95
2.09739e-100
1.87526e-104
9.00842e-110
1.53767e-114
3.83442e-121
1.56739e-131
8.85231e-141
2.02613e-152
7.00027e-161
1
0.999981
0.999991
1
0.999996
0.999996
0.999997
0.969123
0.527366
0.0700087
3.36745e-05
3.94585e-06
3.37981e-07
2.02703e-08
6.7948e-10
8.61687e-15
3.54613e-20
2.62388e-28
1.38248e-37
2.44515e-45
7.468e-52
1.8997e-58
1.16425e-77
2.18902e-79
2.29777e-82
5.74096e-87
1.0392e-91
4.76765e-95
2.73629e-100
2.21504e-104
2.00405e-109
1.92467e-114
6.17299e-121
1.60342e-131
2.22842e-140
3.7844e-152
1.60996e-160
0.999986
0.999987
0.99999
1
0.999997
0.999996
0.999997
0.972463
0.546217
0.0780317
0.00372389
0.00023632
3.08244e-05
3.60296e-06
3.09704e-07
1.87874e-08
6.67822e-10
9.89267e-15
3.52473e-20
2.89349e-28
1.55352e-37
2.76146e-45
8.85613e-52
2.19939e-58
1.57448e-77
2.72849e-79
2.86562e-82
7.29396e-87
1.34635e-91
5.75183e-95
3.64371e-100
2.66461e-104
4.6249e-109
2.36181e-114
1.07674e-120
3.46069e-131
5.90353e-140
7.19416e-152
3.77462e-160
0.99998
0.99999
0.999989
1
0.999997
0.999996
0.99998
0.977029
0.575066
0.0889927
0.00433413
0.000236005
2.89419e-05
3.36939e-06
2.90715e-07
1.78181e-08
6.6235e-10
1.18934e-14
3.54611e-20
3.23815e-28
1.77101e-37
3.15894e-45
1.06655e-51
2.58579e-58
1.862e-77
3.44159e-79
3.62037e-82
9.37351e-87
1.77146e-91
6.9558e-95
4.96516e-100
3.313e-104
9.92579e-109
2.88548e-114
1.96686e-120
1.89614e-130
1.26146e-139
1.39109e-151
9.01147e-160
1.38621e-167
0.999975
0.999992
0.999989
1
0.999997
0.999996
0.999957
0.98235
0.610467
0.103662
0.00521043
0.000251952
2.79431e-05
3.22001e-06
2.79141e-07
1.7281e-08
6.63195e-10
1.49776e-14
3.6067e-20
3.67585e-28
2.04732e-37
3.65932e-45
1.30362e-51
3.08823e-58
2.09554e-77
4.38934e-79
4.63322e-82
1.21851e-86
2.36721e-91
8.4653e-95
6.93754e-100
4.34225e-104
1.91944e-108
3.59056e-114
3.59404e-120
7.65876e-130
2.18027e-139
2.73293e-151
2.18811e-159
5.53994e-167
0.999975
0.999992
0.999989
1
0.999998
0.999997
0.999952
0.987459
0.651992
0.122735
0.00643438
0.000283203
2.75019e-05
3.13991e-06
2.7317e-07
1.70376e-08
6.73871e-10
1.9553e-14
3.70627e-20
4.22956e-28
2.39851e-37
4.29072e-45
1.6158e-51
3.74759e-58
3.11148e-77
5.66811e-79
6.00533e-82
1.60236e-86
3.21226e-91
1.04259e-94
9.94984e-100
6.13432e-104
3.35667e-108
4.71764e-114
6.34952e-120
2.02265e-129
3.42456e-139
5.44594e-151
5.3977e-159
2.24442e-166
6.11798e-255
0.999975
0.99999
0.999989
1
0.999997
0.999997
0.999948
0.991869
0.698342
0.147457
0.00815971
0.000329034
2.74315e-05
3.10496e-06
2.71175e-07
1.69948e-08
6.92833e-10
2.62863e-14
3.84161e-20
4.9287e-28
2.84549e-37
5.08974e-45
2.02891e-51
4.62129e-58
4.03904e-77
7.3703e-79
7.88142e-82
2.13166e-86
4.42472e-91
1.30971e-94
1.46434e-99
9.49061e-104
5.38289e-108
6.89886e-114
1.06869e-119
4.15448e-129
6.04028e-139
1.09856e-150
1.3514e-158
9.19845e-166
2.65105e-255
0.999992
0.999987
0.999991
1
0.999997
0.999998
0.999973
0.995345
0.747811
0.179147
0.0106155
0.000395999
2.82849e-05
3.10137e-06
2.72955e-07
1.74409e-08
7.20778e-10
3.6108e-14
4.0131e-20
5.81101e-28
3.41551e-37
6.10427e-45
2.57802e-51
5.79077e-58
1.39477e-76
9.70855e-79
1.047e-81
2.86893e-86
6.18313e-91
1.69638e-94
2.20746e-99
1.60399e-103
8.03359e-108
1.1799e-113
1.71548e-119
8.23095e-129
1.78846e-138
2.23905e-150
3.43123e-158
3.80623e-165
1.11173e-255
1
0.999985
0.999992
1
0.999998
0.999998
0.999994
0.997803
0.798627
0.219439
0.0141553
0.000492484
3.03033e-05
3.18018e-06
2.81356e-07
1.80284e-08
7.56326e-10
5.02889e-14
4.21915e-20
6.92499e-28
4.14423e-37
7.39725e-45
3.31089e-51
7.37245e-58
1.34202e-78
1.32246e-78
1.40733e-81
3.90653e-86
8.75864e-91
2.29676e-94
3.39752e-99
2.88937e-103
1.13052e-107
2.34662e-113
2.65777e-119
2.16615e-128
8.75307e-138
4.60558e-150
8.82937e-158
1.5874e-164
4.50867e-256
1.00001
0.999985
0.999992
1.00001
0.999998
0.999998
0.999997
0.999261
0.848512
0.270015
0.01932
0.000634035
3.34069e-05
3.29661e-06
2.90982e-07
1.87947e-08
7.99756e-10
7.05634e-14
4.45816e-20
8.33317e-28
5.0784e-37
9.05201e-45
4.29249e-51
9.53393e-58
1.7396e-76
2.08142e-78
1.91326e-81
5.38224e-86
1.25648e-90
3.29942e-94
5.3158e-99
5.35353e-103
1.5178e-107
5.03333e-113
4.05451e-119
1.03914e-127
3.67946e-137
9.56121e-150
2.30122e-157
6.66214e-164
1.56229e-188
1.00001
0.999985
0.999993
1.00001
0.999998
0.999999
0.999998
0.999667
0.89456
0.332263
0.0269355
0.00084975
3.81996e-05
3.45995e-06
3.04385e-07
1.97966e-08
8.51824e-10
9.92423e-14
4.72827e-20
1.01164e-27
6.27961e-37
1.11795e-44
5.61129e-51
1.25182e-57
1.56483e-78
2.76174e-78
2.62959e-81
7.50359e-86
1.82345e-90
5.08667e-94
8.41444e-99
9.88387e-103
1.96735e-107
1.0694e-112
6.25938e-119
6.31208e-127
1.06557e-136
2.00661e-149
6.07004e-157
2.80982e-163
9.88596e-186
1.00001
0.999985
0.999992
1.00001
0.999999
0.999999
0.999998
0.999877
0.933317
0.406641
0.0382446
0.00119105
4.54086e-05
3.69587e-06
3.21563e-07
2.10073e-08
9.12578e-10
1.39354e-13
5.02771e-20
1.23799e-27
7.82926e-37
1.39289e-44
7.38769e-51
1.66791e-57
3.70186e-76
4.38994e-78
3.65213e-81
1.05862e-85
2.67391e-90
8.42693e-94
1.34119e-98
1.78116e-102
2.49827e-107
2.14327e-112
1.01067e-118
2.94799e-126
2.30217e-136
4.27052e-149
1.61862e-156
1.18949e-162
1.96434e-183
1
0.999989
0.999992
1.00001
0.999999
0.999998
0.999999
0.999969
0.962411
0.491911
0.0550627
0.00174676
5.55098e-05
4.01651e-06
3.42834e-07
2.24511e-08
9.82772e-10
1.94808e-13
5.35526e-20
1.52607e-27
9.83549e-37
1.75019e-44
9.78565e-51
2.25347e-57
2.20156e-76
5.79983e-78
5.12332e-81
1.51147e-85
3.95735e-90
1.48158e-93
2.14386e-98
3.10232e-102
3.1769e-107
3.99649e-112
1.7586e-118
9.61401e-126
4.27297e-136
9.25058e-149
4.35692e-156
5.04926e-162
2.14684e-181
0.999996
0.999989
0.999992
1.00001
0.999999
0.999998
0.999998
0.999974
0.981609
0.584662
0.0799442
0.00266371
6.93942e-05
4.45052e-06
3.69062e-07
2.41571e-08
1.06348e-09
2.70574e-13
5.711e-20
1.89393e-27
1.24427e-36
2.21746e-44
1.30285e-50
3.08453e-57
2.9457e-76
8.59562e-78
7.2563e-81
2.18396e-85
5.90441e-90
2.7019e-93
3.42612e-98
5.21086e-102
4.2008e-107
6.97808e-112
3.32417e-118
2.35886e-125
8.02678e-136
2.04513e-148
1.182e-155
2.14753e-161
1.55794e-179
0.999997
0.99999
0.999992
1
0.999999
0.999999
0.999998
0.999984
0.992481
0.679711
0.116326
0.00417314
9.01146e-05
5.05147e-06
4.0144e-07
2.61695e-08
1.15631e-09
3.729e-13
6.09702e-20
2.36549e-27
1.58452e-36
2.83286e-44
1.74205e-50
4.27286e-57
1.2689e-77
1.26215e-77
1.03719e-80
3.19327e-85
8.87208e-90
4.98382e-93
5.46366e-98
8.46196e-102
6.17545e-107
1.16033e-111
6.64199e-118
4.84046e-125
1.85115e-135
4.61472e-148
3.22805e-155
9.14681e-161
8.26638e-178
0.999998
0.999987
0.999992
1
0.999999
1
0.999998
0.999997
0.997777
0.771021
0.168471
0.00667826
0.000124532
5.92892e-06
4.41996e-07
2.85587e-08
1.26365e-09
5.09563e-13
6.5182e-20
2.97272e-27
2.03062e-36
3.64971e-44
2.33774e-50
5.98296e-57
4.43615e-75
1.82507e-77
1.49556e-80
4.72372e-85
1.34151e-89
9.10768e-93
8.68895e-98
1.33599e-101
1.10572e-106
1.88221e-111
1.33658e-117
9.25822e-125
5.61192e-135
1.05882e-147
8.87253e-155
3.90034e-160
3.40116e-176
0.999999
0.999989
0.999993
1
0.999999
1
0.999998
0.999999
0.999465
0.852289
0.24082
0.0110059
0.000188235
7.27526e-06
4.94189e-07
3.14341e-08
1.38914e-09
6.90192e-13
6.98294e-20
3.75884e-27
2.61849e-36
4.74343e-44
3.14677e-50
8.45679e-57
1.54329e-75
2.48442e-77
2.17466e-80
7.06704e-85
2.04002e-89
1.62648e-92
1.37897e-97
2.0674e-101
2.48915e-106
3.07474e-111
2.60142e-117
1.85655e-124
1.80164e-134
2.45301e-147
2.45712e-154
1.6649e-159
1.13157e-174
0.999998
0.999988
0.999994
1
1
1
0.999998
1
0.999887
0.917
0.336418
0.0187887
0.000317557
9.35339e-06
5.63909e-07
3.49671e-08
1.53815e-09
9.26687e-13
7.50342e-20
4.78289e-27
3.39768e-36
6.22194e-44
4.24715e-50
1.20498e-56
2.42268e-75
3.46258e-77
3.18768e-80
1.06874e-84
3.1191e-89
2.8178e-92
2.18842e-97
3.16999e-101
6.33741e-106
5.26573e-111
4.81403e-117
4.36952e-124
5.12476e-134
5.69101e-147
6.87245e-154
7.11345e-159
3.15192e-173
0.999997
0.999988
0.999995
1
1
1
0.999998
1
0.999985
0.960914
0.454279
0.0331777
0.000598393
1.26506e-05
6.62125e-07
3.94286e-08
1.71876e-09
1.23378e-12
8.09531e-20
6.12642e-27
4.43708e-36
8.24156e-44
5.74629e-50
1.7283e-56
3.19789e-75
4.85045e-77
4.70881e-80
1.63263e-84
4.79511e-89
4.72334e-92
3.48468e-97
4.88648e-101
1.58155e-105
9.85956e-111
8.52189e-117
1.22058e-123
1.33932e-133
1.31296e-146
1.94663e-153
3.04128e-158
7.5767e-172
0.999999
0.999986
0.999995
1
1
1
0.999999
1
0.999995
0.985227
0.586979
0.0600237
0.0012348
1.87761e-05
8.10701e-07
4.52596e-08
1.94308e-09
1.62985e-12
8.77771e-20
7.90342e-27
5.83342e-36
1.10313e-43
7.7928e-50
2.49182e-56
4.39785e-75
6.84991e-77
7.00775e-80
2.51726e-84
7.41512e-89
7.66351e-92
5.59358e-97
7.71681e-101
3.58142e-105
2.06171e-110
1.48031e-116
3.5242e-123
3.84562e-133
3.00759e-146
5.5918e-153
1.30055e-157
1.61121e-170
1
0.999985
0.999996
1
1
1
0.999999
1
0.999997
0.99575
0.720918
0.109311
0.00270789
3.24297e-05
1.04611e-06
5.32037e-08
2.22976e-09
2.13807e-12
9.57686e-20
1.0275e-26
7.72378e-36
1.49303e-43
1.05934e-49
3.60655e-56
6.05838e-75
9.73397e-77
1.05042e-79
3.91368e-84
1.15426e-88
1.20626e-91
9.10373e-97
1.27699e-100
7.23264e-105
4.69696e-110
2.6342e-116
9.17403e-123
1.47994e-132
6.90787e-146
1.62624e-152
5.56096e-157
3.08989e-169
1.00001
0.999984
0.999997
1
1
1
1
1
1
0.999135
0.839149
0.195205
0.00613571
6.78079e-05
1.42059e-06
6.46131e-08
2.60818e-09
2.78817e-12
1.05434e-19
1.34712e-26
1.03043e-35
2.0446e-43
1.44372e-49
5.2337e-56
8.43881e-75
1.39158e-76
1.58551e-79
6.12953e-84
1.81047e-88
1.84874e-91
1.51182e-96
2.26271e-100
1.31633e-104
1.097e-109
5.07937e-116
2.07503e-122
7.00397e-132
1.64466e-145
4.76207e-152
2.37828e-156
5.42676e-168
1.00001
0.999982
0.999999
0.999999
1
1
1
1
1
0.999907
0.925417
0.330172
0.0142192
0.000168864
2.10304e-06
8.20789e-08
3.1251e-09
3.61888e-12
1.18038e-19
1.7824e-26
1.38579e-35
2.83435e-43
1.9732e-49
7.60662e-56
1.18574e-74
2.00201e-76
2.40943e-79
9.66115e-84
2.86506e-88
2.77291e-91
2.57681e-96
4.33871e-100
2.20447e-104
2.47996e-109
1.11091e-115
4.24033e-122
2.97244e-131
4.78831e-145
1.39249e-151
1.0189e-155
8.83971e-167
1.00001
0.999982
0.999999
1
1
1
1
1
1.00001
1
0.973445
0.509373
0.0341052
0.000473759
3.69032e-06
1.09483e-07
3.85212e-09
4.68146e-12
1.37036e-19
2.3816e-26
1.87958e-35
3.97854e-43
2.7057e-49
1.10618e-55
1.67981e-74
2.90085e-76
3.68588e-79
1.53111e-83
4.58067e-88
4.09893e-91
4.52557e-96
8.91095e-100
3.48922e-104
5.26668e-109
2.72775e-115
8.51407e-122
9.9606e-131
3.95199e-144
4.03246e-151
4.38472e-155
1.3497e-165
1.00002
0.999981
1
0.999995
1
1
1
1
1
1
0.992801
0.697749
0.0831514
0.001425
8.36034e-06
1.49809e-07
4.8928e-09
6.04435e-12
1.72435e-19
3.21539e-26
2.57195e-35
5.65457e-43
3.72428e-49
1.60832e-55
2.39216e-74
4.23752e-76
5.67564e-79
2.4381e-83
7.40946e-88
6.03213e-91
8.19343e-96
1.90291e-99
5.41108e-104
1.04776e-108
6.98475e-115
1.88543e-121
2.85071e-130
2.7363e-143
1.15174e-150
1.90081e-154
1.94916e-164
1.00002
0.999981
0.999999
0.999993
1
1
1
1
1
1
0.998626
0.847387
0.191232
0.00451212
2.44108e-05
2.0837e-07
6.40515e-09
7.7991e-12
2.54915e-19
4.38771e-26
3.55139e-35
8.13398e-43
5.14933e-49
2.33647e-55
3.40431e-74
6.24946e-76
8.7969e-79
3.89915e-83
1.21407e-87
8.96988e-91
1.52322e-95
4.07833e-99
8.68289e-104
1.98503e-108
1.72603e-114
5.06343e-121
8.33793e-130
1.58691e-142
3.26356e-150
8.30711e-154
2.68297e-163
1.00002
0.99998
1
0.99999
1
1
1
1
1
0.999998
0.999905
0.935927
0.373988
0.0151117
8.47145e-05
2.99394e-07
8.64795e-09
1.00671e-11
4.79542e-19
6.0518e-26
4.94848e-35
1.18323e-42
7.15748e-49
3.39002e-55
4.67549e-74
9.33495e-76
1.37251e-78
6.26189e-83
2.01692e-87
1.37682e-90
2.8853e-95
8.53605e-99
1.56752e-103
3.69304e-108
3.98175e-114
1.5703e-120
3.02215e-129
7.70711e-142
9.38004e-150
3.64712e-153
3.54368e-162
1.00002
0.999981
1
0.999989
1
1
0.999999
1
1
0.999999
1
0.977166
0.586597
0.0502972
0.000335447
4.6717e-07
1.19966e-08
1.30054e-11
1.12411e-18
8.43356e-26
6.95638e-35
1.73843e-42
1.00116e-48
4.91132e-55
5.59525e-74
1.42567e-75
2.15599e-78
1.01013e-82
3.39835e-87
2.24285e-90
5.51446e-95
1.72056e-98
3.49088e-103
7.04103e-108
8.69191e-114
4.77308e-120
1.35041e-128
4.4778e-141
2.83963e-149
1.59588e-152
4.51854e-161
1.00002
0.999978
1
0.999987
0.999998
1
0.999999
1
1
0.999999
1
0.993231
0.762091
0.137208
0.00150523
8.71829e-07
1.68644e-08
1.68098e-11
2.90754e-18
1.18653e-25
9.86098e-35
2.57543e-42
1.41095e-48
7.10481e-55
1.25725e-73
2.30375e-75
3.41071e-78
1.63793e-82
5.80541e-87
3.98764e-90
1.05352e-94
3.33393e-98
9.60221e-103
1.44385e-107
1.88277e-113
1.29241e-119
5.92438e-128
3.91744e-140
9.33063e-149
6.89931e-152
5.595e-160
1.00003
0.999978
1
0.999985
0.999995
1
1
1
1
0.999999
1
0.998463
0.875636
0.273451
0.00653961
2.17745e-06
2.37376e-08
2.17099e-11
7.40207e-18
1.68336e-25
1.40856e-34
3.83981e-42
2.00643e-48
1.0266e-54
3.04917e-73
3.59437e-75
5.43602e-78
2.67282e-82
1.00441e-86
7.83469e-90
1.99831e-94
6.25809e-98
2.85246e-102
3.28989e-107
4.33086e-113
3.18941e-119
2.28733e-127
3.30473e-139
3.28169e-148
2.94222e-151
6.76739e-159
1.00003
0.999978
1
0.999985
0.999993
1
1
1
1
0.999999
0.999999
0.999864
0.937107
0.424384
0.0210472
7.47715e-06
3.30189e-08
2.7955e-11
1.74339e-17
2.40484e-25
2.02563e-34
5.74935e-42
2.88407e-48
1.4827e-54
6.16437e-75
6.05567e-75
8.73337e-78
4.39645e-82
1.75695e-86
1.66944e-89
3.75224e-94
1.1553e-97
7.95669e-102
8.21348e-107
1.12171e-112
7.9594e-119
8.59522e-127
2.02714e-138
1.1639e-147
1.2592e-150
8.03964e-158
1.00003
0.999979
1
0.999983
0.999994
1
1
1
1
0.999999
0.999999
1
0.96674
0.555438
0.0473831
3.08344e-05
4.47936e-08
3.57869e-11
3.71459e-17
3.45407e-25
2.92995e-34
8.62673e-42
4.19875e-48
2.14317e-54
1.20964e-72
1.2194e-74
1.41522e-77
7.30388e-82
3.10086e-86
3.68823e-89
6.9855e-94
2.14327e-97
1.96439e-101
2.11818e-106
3.25696e-112
2.31226e-118
3.82534e-126
1.17958e-137
3.87963e-147
5.64685e-150
9.41546e-157
1.00003
0.999977
1
0.999984
0.999995
1
1
1
1
0.999999
1
1
0.98013
0.652082
0.0820696
0.000117425
5.88322e-08
4.54021e-11
7.15257e-17
4.98046e-25
4.25865e-34
1.29453e-41
6.20404e-48
3.10646e-54
2.11061e-74
2.06299e-74
2.31482e-77
1.2282e-81
5.51077e-86
8.05328e-89
1.29734e-93
4.10196e-97
4.30931e-101
5.31702e-106
9.79817e-112
8.30507e-118
2.13264e-125
1.08794e-136
1.14859e-146
2.77277e-149
1.08758e-155
1.00002
0.999977
1
0.999987
0.999996
1
1
1
1
1
0.999999
1
0.986179
0.717225
0.119106
0.000338174
7.5204e-08
5.69007e-11
1.25566e-16
7.20036e-25
6.21495e-34
1.93927e-41
9.32184e-48
4.52829e-54
1.81567e-72
4.58172e-74
3.82459e-77
2.09484e-81
9.84746e-86
1.68202e-88
2.42879e-93
8.30949e-97
8.714e-101
1.26784e-105
2.81736e-111
3.22779e-117
1.19846e-124
1.2901e-135
2.90372e-146
1.46719e-148
1.23701e-154
1.00002
0.999976
1
0.999989
0.999998
1
1
1
1
0.999999
0.999997
1
0.989004
0.760071
0.154155
0.000729384
9.58048e-08
7.02139e-11
2.0342e-16
1.0427e-24
9.10068e-34
2.89593e-41
1.42622e-47
6.6647e-54
1.50523e-72
8.53074e-74
6.38764e-77
3.63016e-81
1.76854e-85
3.31287e-88
4.64615e-93
1.80677e-96
1.72048e-100
2.91642e-105
7.57385e-111
1.15835e-116
5.83939e-124
1.0129e-134
6.10857e-146
7.64364e-148
1.38826e-153
1.00002
0.999976
1
0.999991
0.999999
1
1
1
1
0.999998
0.999994
1
0.990464
0.789253
0.185689
0.00130414
1.27964e-07
8.50155e-11
3.07809e-16
1.51135e-24
1.3365e-33
4.30631e-41
2.22261e-47
9.95394e-54
2.65079e-72
1.9267e-73
1.07904e-76
6.39667e-81
3.19469e-85
6.15364e-88
9.20863e-93
4.17911e-96
3.58338e-100
6.77967e-105
1.97912e-110
3.79884e-116
2.71878e-123
5.89518e-134
1.07131e-145
3.49686e-147
1.56248e-152
1.00003
0.999975
1
0.999994
1
1
1
1
1
0.999998
0.999993
1.00001
0.991452
0.810783
0.213983
0.00211457
1.95609e-07
1.00647e-10
4.39633e-16
2.19157e-24
1.96776e-33
6.37286e-41
3.52409e-47
1.51747e-53
3.42253e-72
4.27772e-73
1.84436e-76
1.14583e-80
5.81691e-85
1.08926e-87
1.90888e-92
9.974e-96
8.55975e-100
1.69592e-104
5.4338e-110
1.28341e-115
1.52546e-122
5.07932e-133
1.69915e-145
1.26537e-146
1.82517e-151
1.00002
0.999976
1
0.999994
1
1
1
1
1
0.999997
0.999993
1.00001
0.992359
0.828115
0.239818
0.00320274
3.69851e-07
1.16139e-10
5.97541e-16
3.17817e-24
2.90398e-33
9.38554e-41
5.66956e-47
2.3752e-53
5.21285e-73
9.40275e-73
3.19014e-76
2.0835e-80
1.07115e-84
1.87335e-87
4.13679e-92
2.37081e-95
2.4161e-99
4.78025e-104
1.68988e-109
5.22704e-115
1.11307e-121
8.00333e-132
2.57729e-145
3.34103e-146
2.26777e-150
1.00002
0.999979
1
0.999994
1
1
1
1
1
0.999996
0.999993
1.00001
0.993274
0.842866
0.263717
0.00457906
8.12879e-07
1.30434e-10
7.76985e-16
4.60823e-24
4.29518e-33
1.37641e-40
9.21624e-47
3.8343e-53
9.38775e-71
1.78616e-72
5.5828e-76
3.83652e-80
2.003e-84
3.22507e-87
9.2611e-92
5.48642e-95
7.44504e-99
1.49369e-103
5.97819e-109
2.59428e-114
8.28873e-121
6.99421e-131
3.76602e-145
6.21417e-146
2.88656e-149
1.00001
0.999981
1
0.999994
1
1
1
1
1
0.999995
0.999993
1.00001
0.994133
0.855572
0.285711
0.00620658
1.76518e-06
1.42844e-10
9.68508e-16
6.68003e-24
6.36687e-33
2.01289e-40
1.50601e-46
6.39217e-53
3.68812e-72
3.12763e-72
9.88068e-76
7.13442e-80
3.81937e-84
5.79907e-87
2.10215e-91
1.23271e-94
2.22277e-98
4.80897e-103
2.22356e-108
1.31019e-113
5.63113e-120
3.15195e-130
4.54145e-145
9.15871e-146
3.37917e-148
1
0.999994
0.999993
1.00001
0.994867
0.8663
0.305443
0.00800713
3.43539e-06
1.5364e-10
1.15587e-15
9.68088e-24
9.45928e-33
2.94246e-40
2.46049e-46
1.09691e-52
1.74935e-69
5.82931e-72
1.76758e-75
1.33674e-79
7.45067e-84
1.14645e-86
4.75903e-91
2.73417e-94
6.05215e-98
1.50075e-102
8.14352e-108
6.11887e-113
4.33319e-119
1.71556e-129
4.92915e-145
1.25515e-145
3.13546e-147
2.25635e-28
1.14352e-37
1.99236e-45
5.56848e-52
1.48098e-58
7.31991e-81
7.17759e-81
8.97498e-83
2.58268e-87
6.60208e-92
3.3007e-95
1.63083e-100
1.5531e-104
4.27791e-110
1.18484e-114
3.40533e-121
1.28911e-131
5.11403e-141
1.10359e-152
3.10628e-161
7.72175e-15
3.6045e-20
2.41517e-28
1.24827e-37
2.19315e-45
6.39764e-52
1.66546e-58
8.51987e-79
9.08594e-81
1.09093e-82
3.2142e-87
8.29736e-92
3.99286e-95
2.09185e-100
1.81937e-104
7.69359e-110
1.53003e-114
5.01426e-121
1.26084e-131
8.85231e-141
2.02474e-152
7.0003e-161
1
0.99999
0.999994
1
0.999998
0.999997
0.999998
0.969122
0.527365
0.0700087
3.3675e-05
3.94593e-06
3.37989e-07
2.02708e-08
6.79488e-10
8.61685e-15
3.54611e-20
2.62383e-28
1.38245e-37
2.44513e-45
7.46794e-52
1.89975e-58
7.60381e-79
9.50847e-81
1.34248e-82
4.0459e-87
1.05835e-91
4.81716e-95
2.73119e-100
2.14728e-104
1.74011e-109
1.91512e-114
7.92862e-121
1.27672e-131
2.22837e-140
3.78176e-152
1.60996e-160
0.999992
0.999992
0.999994
1
0.999999
0.999997
0.999997
0.972462
0.546216
0.0780316
0.00372389
0.000236322
3.08248e-05
3.60303e-06
3.09711e-07
1.87879e-08
6.67831e-10
9.89264e-15
3.52472e-20
2.89343e-28
1.55349e-37
2.76143e-45
8.85605e-52
2.19946e-58
9.92382e-79
1.70357e-80
1.67281e-82
5.15165e-87
1.37064e-91
5.80847e-95
3.63969e-100
2.57985e-104
4.09999e-109
2.34985e-114
1.34231e-120
2.61859e-131
5.90332e-140
7.18918e-152
3.77464e-160
0.999986
0.999994
0.999994
1
0.999999
0.999997
0.99998
0.977029
0.575065
0.0889925
0.00433413
0.000236005
2.89423e-05
3.36945e-06
2.90721e-07
1.78184e-08
6.62359e-10
1.18933e-14
3.54609e-20
3.23809e-28
1.77097e-37
3.15891e-45
1.06654e-51
2.58586e-58
1.4608e-78
2.83717e-80
2.11079e-82
6.63591e-87
1.80271e-91
7.01988e-95
4.96343e-100
3.20216e-104
8.94918e-109
2.86936e-114
2.3641e-120
1.54536e-130
1.26142e-139
1.39015e-151
9.0115e-160
1.38621e-167
0.999983
0.999994
0.999993
1
0.999999
0.999997
0.999958
0.982349
0.610465
0.103662
0.00521043
0.000251952
2.79434e-05
3.22007e-06
2.79146e-07
1.72814e-08
6.63205e-10
1.49775e-14
3.60669e-20
3.67578e-28
2.04727e-37
3.65928e-45
1.30361e-51
3.08831e-58
2.324e-78
4.19206e-80
2.69712e-82
8.64757e-87
2.40803e-91
8.53685e-95
6.94034e-100
4.18877e-104
1.75126e-108
3.56545e-114
4.16783e-120
6.85771e-130
2.1802e-139
2.73117e-151
2.18812e-159
5.53993e-167
0.999984
0.999994
0.999994
1
0.999999
0.999998
0.999952
0.987458
0.651991
0.122734
0.00643437
0.000283204
2.75021e-05
3.13996e-06
2.73175e-07
1.7038e-08
6.7388e-10
1.95529e-14
3.70625e-20
4.22948e-28
2.39845e-37
4.29068e-45
1.61579e-51
3.74769e-58
4.26518e-78
5.52568e-80
3.48952e-82
1.14008e-86
3.26636e-91
1.05044e-94
9.9613e-100
5.9075e-104
3.08669e-108
4.67034e-114
7.14084e-120
1.95166e-129
3.42446e-139
5.44265e-151
5.39771e-159
2.24442e-166
1.35513e-258
0.999994
0.999994
0.999994
1
0.999999
0.999997
0.999948
0.991868
0.69834
0.147457
0.0081597
0.000329034
2.74317e-05
3.105e-06
2.71179e-07
1.69951e-08
6.92842e-10
2.62862e-14
3.8416e-20
4.92861e-28
2.84542e-37
5.08969e-45
2.02889e-51
4.62141e-58
2.31106e-77
6.6022e-80
4.57051e-82
1.52062e-86
4.49749e-91
1.31814e-94
1.4671e-99
9.13479e-104
4.97463e-108
6.79251e-114
1.1729e-119
4.28853e-129
6.04021e-139
1.09793e-150
1.3514e-158
9.19843e-166
5.89181e-259
0.999996
0.999992
0.999995
1
0.999999
0.999999
0.999974
0.995344
0.747808
0.179146
0.0106154
0.000395999
2.82851e-05
3.10141e-06
2.72959e-07
1.74411e-08
7.20787e-10
3.61079e-14
4.01309e-20
5.8109e-28
3.41543e-37
6.1042e-45
2.578e-51
5.79093e-58
8.56682e-80
8.35903e-80
6.05892e-82
2.0519e-86
6.28243e-91
1.70511e-94
2.21321e-99
1.54593e-103
7.4461e-108
1.15337e-113
1.84739e-119
9.17571e-129
1.78849e-138
2.23784e-150
3.43124e-158
3.80622e-165
2.49656e-259
1
0.999991
0.999995
1
0.999999
0.999999
0.999995
0.997802
0.798624
0.219438
0.0141553
0.000492483
3.03033e-05
3.18021e-06
2.81359e-07
1.80287e-08
7.56335e-10
5.02887e-14
4.21913e-20
6.92486e-28
4.14413e-37
7.39717e-45
3.31086e-51
7.37264e-58
1.14512e-77
1.46898e-79
8.12718e-82
2.80117e-86
8.89604e-91
2.30532e-94
3.40866e-99
2.79372e-103
1.04931e-107
2.28004e-113
2.81962e-119
2.65214e-128
8.75332e-138
4.60319e-150
8.8294e-158
1.5874e-164
1.03495e-259
1
0.99999
0.999995
1
0.999999
0.999999
0.999998
0.999261
0.848507
0.270014
0.01932
0.000634033
3.34069e-05
3.29664e-06
2.90985e-07
1.8795e-08
7.99764e-10
7.0563e-14
4.45814e-20
8.33301e-28
5.07828e-37
9.05191e-45
4.29245e-51
9.53418e-58
2.68453e-77
1.87898e-79
1.10272e-81
3.86884e-86
1.27574e-90
3.30709e-94
5.33655e-99
5.19882e-103
1.40887e-107
4.87766e-113
4.248e-119
1.33406e-127
3.67958e-137
9.55634e-150
2.30122e-157
6.66213e-164
1.56229e-188
1.00001
0.999991
0.999995
1
0.999999
0.999999
0.999999
0.999667
0.894555
0.332261
0.0269355
0.000849748
3.81996e-05
3.45997e-06
3.04388e-07
1.97968e-08
8.51832e-10
9.92417e-14
4.72825e-20
1.01162e-27
6.27946e-37
1.11794e-44
5.61124e-51
1.25185e-57
2.76409e-79
2.70853e-79
1.51298e-81
5.40612e-86
1.85078e-90
5.09283e-94
8.45198e-99
9.6431e-103
1.8239e-107
1.03674e-112
6.48325e-119
7.90751e-127
1.06561e-136
2.00561e-149
6.07005e-157
2.80981e-163
9.88593e-186
1
0.999992
0.999995
1
1
1
0.999999
0.999876
0.933312
0.406639
0.0382446
0.00119104
4.54086e-05
3.69588e-06
3.21565e-07
2.10075e-08
9.12584e-10
1.39353e-13
5.02768e-20
1.23796e-27
7.82908e-37
1.39287e-44
7.38763e-51
1.66795e-57
8.22385e-77
4.73429e-79
2.09847e-81
7.64296e-86
2.71314e-90
8.43242e-94
1.34783e-98
1.74552e-102
2.30978e-107
2.08201e-112
1.03457e-118
3.56646e-126
2.30222e-136
4.26843e-149
1.61862e-156
1.18949e-162
1.96433e-183
1
0.999993
0.999995
1
1
0.999999
0.999999
0.999969
0.962407
0.491908
0.0550627
0.00174675
5.55096e-05
4.01652e-06
3.42836e-07
2.24513e-08
9.82777e-10
1.94807e-13
5.35524e-20
1.52604e-27
9.83525e-37
1.75017e-44
9.78557e-51
2.25353e-57
4.09324e-77
6.50647e-79
2.94121e-81
1.09322e-85
4.0142e-90
1.48271e-93
2.15536e-98
3.05242e-102
2.92356e-107
3.89239e-112
1.77722e-118
1.13594e-125
4.27304e-136
9.24631e-149
4.35693e-156
5.04924e-162
2.14683e-181
0.999997
0.999993
0.999995
1
1
0.999999
0.999999
0.999973
0.981605
0.584659
0.0799441
0.00266371
6.9394e-05
4.45052e-06
3.69063e-07
2.41572e-08
1.06349e-09
2.70572e-13
5.71098e-20
1.89389e-27
1.24424e-36
2.21744e-44
1.30283e-50
3.0846e-57
6.30587e-77
1.02558e-78
4.1645e-81
1.58199e-85
5.98753e-90
2.70574e-93
3.44568e-98
5.14516e-102
3.83839e-107
6.8145e-112
3.3143e-118
2.75313e-125
8.02683e-136
2.04427e-148
1.182e-155
2.14752e-161
1.55794e-179
0.999998
0.999994
0.999995
1
1
0.999999
0.999999
0.999984
0.992478
0.679707
0.116326
0.00417313
9.01142e-05
5.05146e-06
4.0144e-07
2.61696e-08
1.15631e-09
3.72897e-13
6.09699e-20
2.36544e-27
1.58449e-36
2.83283e-44
1.74204e-50
4.27295e-57
7.54621e-77
1.61486e-78
5.9548e-81
2.31578e-85
8.99452e-90
4.99583e-93
5.49637e-98
8.38139e-102
5.59139e-107
1.13598e-111
6.53844e-118
5.62532e-125
1.85114e-135
4.61303e-148
3.22806e-155
9.14678e-161
8.26636e-178
0.999999
0.999992
0.999995
1
1
1
0.999999
0.999998
0.997774
0.771016
0.168471
0.00667826
0.000124531
5.92891e-06
4.41996e-07
2.85587e-08
1.26365e-09
5.09559e-13
6.51817e-20
2.97266e-27
2.03057e-36
3.64967e-44
2.33772e-50
5.98309e-57
2.72728e-78
2.70663e-78
8.59595e-81
3.42845e-85
1.35966e-89
9.13944e-93
8.74282e-98
1.32702e-101
9.95003e-107
1.8468e-111
1.30163e-117
1.07629e-124
5.61187e-135
1.05847e-147
8.87255e-155
3.90033e-160
3.40115e-176
0.999999
0.999994
0.999996
1
1
1
0.999999
0.999999
0.999463
0.852284
0.24082
0.0110059
0.000188234
7.27523e-06
4.94188e-07
3.14341e-08
1.38914e-09
6.90188e-13
6.98291e-20
3.75877e-27
2.61843e-36
4.74338e-44
3.14674e-50
8.45697e-57
1.24106e-75
4.27246e-78
1.25226e-80
5.13168e-85
2.06707e-89
1.6338e-92
1.38773e-97
2.05895e-101
2.25124e-106
3.02222e-111
2.51149e-117
2.15939e-124
1.80162e-134
2.45222e-147
2.45713e-154
1.6649e-159
1.13157e-174
0.999999
0.999992
0.999996
1
1
1
0.999999
1
0.999886
0.916997
0.336418
0.0187887
0.000317556
9.35334e-06
5.63907e-07
3.4967e-08
1.53815e-09
9.26681e-13
7.50338e-20
4.78279e-27
3.3976e-36
6.22188e-44
4.24711e-50
1.205e-56
4.58898e-76
6.11559e-78
1.84039e-80
7.7621e-85
3.15959e-89
2.83294e-92
2.20254e-97
3.16518e-101
5.81767e-106
5.18107e-111
4.61465e-117
5.04585e-124
5.12476e-134
5.68859e-147
6.87246e-154
7.11343e-159
3.15191e-173
0.999998
0.999992
0.999997
1
1
1
0.999999
1
0.999983
0.960911
0.454279
0.0331778
0.000598392
1.26506e-05
6.62121e-07
3.94285e-08
1.71875e-09
1.23377e-12
8.09527e-20
6.1263e-27
4.43697e-36
8.24148e-44
5.74624e-50
1.72834e-56
9.3219e-76
9.01729e-78
2.72761e-80
1.18575e-84
4.856e-89
4.75202e-92
3.50732e-97
4.89177e-101
1.47583e-105
9.69986e-111
8.11805e-117
1.38151e-123
1.33933e-133
1.31232e-146
1.94664e-153
3.04128e-158
7.57667e-172
0.999999
0.999991
0.999997
1
1
1
0.999999
0.999999
0.999994
0.985223
0.58698
0.0600237
0.0012348
1.8776e-05
8.10696e-07
4.52593e-08
1.94307e-09
1.62984e-12
8.77766e-20
7.90327e-27
5.83328e-36
1.10312e-43
7.79274e-50
2.49187e-56
2.07129e-75
1.34323e-77
4.07512e-80
1.82802e-84
7.50705e-89
7.71411e-92
5.62985e-97
7.74577e-101
3.38697e-105
2.02551e-110
1.40189e-116
3.88784e-123
3.84569e-133
3.00522e-146
5.59181e-153
1.30055e-157
1.61121e-170
1
0.999991
0.999998
1
1
1
1
1
0.999995
0.995744
0.72092
0.109311
0.00270788
3.24295e-05
1.04611e-06
5.32033e-08
2.22974e-09
2.13806e-12
9.57681e-20
1.02748e-26
7.72361e-36
1.49302e-43
1.05933e-49
3.60661e-56
2.13502e-77
2.09508e-77
6.13498e-80
2.84175e-84
1.1682e-88
1.21466e-91
9.16219e-97
1.28519e-100
6.90685e-105
4.6048e-110
2.48081e-116
9.8959e-123
1.47996e-132
6.89377e-146
1.62624e-152
5.56094e-157
3.08988e-169
1
0.99999
0.999998
1
1
1
1
1
1
0.99913
0.839152
0.195205
0.0061357
6.78076e-05
1.42058e-06
6.46126e-08
2.60816e-09
2.78815e-12
1.05433e-19
1.3471e-26
1.03041e-35
2.04457e-43
1.44371e-49
5.2338e-56
2.23424e-75
3.92376e-77
9.30294e-80
4.45065e-84
1.83174e-88
1.862e-91
1.52136e-96
2.28274e-100
1.26569e-104
1.0733e-109
4.76237e-116
2.19976e-122
7.00404e-132
1.6447e-145
4.76208e-152
2.37827e-156
5.42674e-168
1.00001
0.999989
0.999999
0.999999
1
1
1
1
1
0.999904
0.925422
0.330173
0.0142192
0.000168864
2.10302e-06
8.20782e-08
3.12507e-09
3.61886e-12
1.18037e-19
1.78237e-26
1.38576e-35
2.83432e-43
1.97318e-49
7.60676e-56
3.03915e-75
5.62416e-77
1.42033e-79
7.01648e-84
2.89771e-88
2.79293e-91
2.59266e-96
4.3852e-100
2.1301e-104
2.4226e-109
1.0399e-115
4.43196e-122
2.97245e-131
4.77292e-145
1.39249e-151
1.0189e-155
8.83968e-167
1.00001
0.999989
0.999999
0.999999
1
1
1
1
1
1
0.973449
0.509374
0.0341052
0.000473758
3.6903e-06
1.09482e-07
3.85208e-09
4.68143e-12
1.37035e-19
2.38156e-26
1.87953e-35
3.9785e-43
2.70567e-49
1.1062e-55
5.18027e-75
8.44501e-77
2.18249e-79
1.11258e-83
4.63122e-88
4.12801e-91
4.55256e-96
9.01594e-100
3.3842e-104
5.13894e-109
2.55871e-115
8.77659e-122
9.96057e-131
3.97276e-144
4.03247e-151
4.38471e-155
1.3497e-165
1.00001
0.999988
1
0.999996
1
1
1
1
1
1
0.992806
0.697751
0.0831514
0.001425
8.3603e-06
1.49808e-07
4.89274e-09
6.04431e-12
1.72434e-19
3.21533e-26
2.57189e-35
5.65452e-43
3.72425e-49
1.60835e-55
1.71369e-74
1.23146e-76
3.37418e-79
1.77333e-83
7.48847e-88
6.073e-91
8.24067e-96
1.92601e-99
5.26607e-104
1.02134e-108
6.5796e-115
1.91266e-121
2.85068e-130
2.73301e-143
1.15175e-150
1.9008e-154
1.94916e-164
1.00001
0.999988
0.999999
0.999996
1
1
1
1
1
1
0.998629
0.847389
0.191232
0.00451212
2.44107e-05
2.08367e-07
6.40508e-09
7.79905e-12
2.54914e-19
4.38763e-26
3.55131e-35
8.1339e-43
5.14929e-49
2.33651e-55
1.92259e-76
1.88629e-76
5.24715e-79
2.83998e-83
1.22657e-87
9.0257e-91
1.5317e-95
4.12767e-99
8.48408e-104
1.93298e-108
1.6325e-114
5.04687e-121
8.33785e-130
1.5876e-142
3.26356e-150