/*--------------------------------*- C++ -*----------------------------------*\
| =========                 |                                                 |
| \\      /  F ield         | OpenFOAM: The Open Source CFD Toolbox           |
|  \\    /   O peration     | Version:  v2012                                 |
|   \\  /    A nd           | Website:  www.openfoam.com                      |
|    \\/     M anipulation  |                                                 |
\*---------------------------------------------------------------------------*/
FoamFile
{
    version     2.0;
    format      ascii;
    class       volScalarField;
    location    "0.95";
    object      p;
}
// * * * * * * * * * * * * * * * * * * * * * * * * * * * * * * * * * * * * * //

dimensions      [1 -1 -2 0 0 0 0];


internalField   nonuniform List<scalar> 
3332
(
3.48226e+06
3.48331e+06
3.48418e+06
3.48492e+06
3.48554e+06
3.48608e+06
3.48655e+06
3.48697e+06
3.48734e+06
3.48768e+06
3.48798e+06
3.48826e+06
3.48852e+06
3.48876e+06
3.48898e+06
3.48919e+06
3.48939e+06
3.48958e+06
3.48975e+06
3.48992e+06
3.47806e+06
3.47984e+06
3.4813e+06
3.48249e+06
3.48347e+06
3.4843e+06
3.485e+06
3.4856e+06
3.48612e+06
3.48658e+06
3.48698e+06
3.48734e+06
3.48767e+06
3.48796e+06
3.48824e+06
3.48849e+06
3.48873e+06
3.48895e+06
3.48915e+06
3.48935e+06
3.48953e+06
3.4897e+06
3.45423e+06
3.44516e+06
3.45493e+06
3.44462e+06
3.44493e+06
3.43573e+06
3.43829e+06
3.43196e+06
3.42146e+06
3.42202e+06
3.45578e+06
3.46267e+06
3.46749e+06
3.47152e+06
3.47452e+06
3.47699e+06
3.47892e+06
3.48051e+06
3.48179e+06
3.48287e+06
3.48376e+06
3.48452e+06
3.48517e+06
3.48573e+06
3.48621e+06
3.48664e+06
3.48703e+06
3.48737e+06
3.48768e+06
3.48797e+06
3.48823e+06
3.48848e+06
3.48871e+06
3.48892e+06
3.48912e+06
3.48931e+06
3.48949e+06
3.46454e+06
3.44781e+06
3.46449e+06
3.44798e+06
3.45339e+06
3.44286e+06
3.4476e+06
3.44006e+06
3.4283e+06
3.42197e+06
3.43498e+06
3.44625e+06
3.4547e+06
3.46142e+06
3.46643e+06
3.47051e+06
3.47365e+06
3.4762e+06
3.47823e+06
3.47989e+06
3.48125e+06
3.48238e+06
3.48332e+06
3.48411e+06
3.48479e+06
3.48538e+06
3.48589e+06
3.48634e+06
3.48673e+06
3.48709e+06
3.48742e+06
3.48771e+06
3.48798e+06
3.48824e+06
3.48847e+06
3.48869e+06
3.4889e+06
3.4891e+06
3.48928e+06
3.47505e+06
3.45283e+06
3.47445e+06
3.45409e+06
3.46339e+06
3.45233e+06
3.45837e+06
3.45063e+06
3.43724e+06
3.4235e+06
3.43581e+06
3.44593e+06
3.45447e+06
3.46088e+06
3.46596e+06
3.46999e+06
3.47316e+06
3.47573e+06
3.47779e+06
3.47948e+06
3.48086e+06
3.48201e+06
3.48298e+06
3.48379e+06
3.48448e+06
3.48508e+06
3.4856e+06
3.48606e+06
3.48647e+06
3.48684e+06
3.48717e+06
3.48747e+06
3.48775e+06
3.48801e+06
3.48825e+06
3.48847e+06
3.48869e+06
3.48889e+06
3.48907e+06
3.48925e+06
3.48436e+06
3.46033e+06
3.48298e+06
3.46239e+06
3.47312e+06
3.4629e+06
3.46911e+06
3.46201e+06
3.44721e+06
3.42665e+06
3.43751e+06
3.44665e+06
3.45502e+06
3.46107e+06
3.46607e+06
3.46995e+06
3.47308e+06
3.47559e+06
3.47762e+06
3.47928e+06
3.48065e+06
3.48179e+06
3.48274e+06
3.48355e+06
3.48424e+06
3.48484e+06
3.48536e+06
3.48582e+06
3.48623e+06
3.4866e+06
3.48693e+06
3.48724e+06
3.48752e+06
3.48778e+06
3.48803e+06
3.48826e+06
3.48847e+06
3.48868e+06
3.48887e+06
3.48905e+06
3.49066e+06
3.47012e+06
3.48887e+06
3.47242e+06
3.48124e+06
3.47315e+06
3.47857e+06
3.47228e+06
3.45704e+06
3.43098e+06
3.4397e+06
3.44831e+06
3.45628e+06
3.46198e+06
3.46675e+06
3.47042e+06
3.47339e+06
3.47577e+06
3.47771e+06
3.47929e+06
3.4806e+06
3.4817e+06
3.48262e+06
3.4834e+06
3.48407e+06
3.48466e+06
3.48517e+06
3.48562e+06
3.48602e+06
3.48639e+06
3.48672e+06
3.48703e+06
3.48731e+06
3.48757e+06
3.48782e+06
3.48805e+06
3.48827e+06
3.48848e+06
3.48867e+06
3.48886e+06
3.48903e+06
3.49451e+06
3.48259e+06
3.49254e+06
3.48405e+06
3.48765e+06
3.48261e+06
3.48616e+06
3.48044e+06
3.46603e+06
3.43683e+06
3.4423e+06
3.451e+06
3.45822e+06
3.46362e+06
3.46799e+06
3.47137e+06
3.4741e+06
3.47629e+06
3.47806e+06
3.47952e+06
3.48074e+06
3.48175e+06
3.48261e+06
3.48334e+06
3.48398e+06
3.48453e+06
3.48502e+06
3.48545e+06
3.48584e+06
3.4862e+06
3.48652e+06
3.48682e+06
3.48711e+06
3.48737e+06
3.48762e+06
3.48785e+06
3.48807e+06
3.48828e+06
3.48848e+06
3.48867e+06
3.48884e+06
3.49743e+06
3.4972e+06
3.49626e+06
3.49722e+06
3.49396e+06
3.49236e+06
3.49298e+06
3.4883e+06
3.47536e+06
3.44555e+06
3.44582e+06
3.45503e+06
3.46096e+06
3.46606e+06
3.4698e+06
3.47283e+06
3.4752e+06
3.47713e+06
3.47868e+06
3.47997e+06
3.48104e+06
3.48194e+06
3.48271e+06
3.48337e+06
3.48395e+06
3.48446e+06
3.48491e+06
3.48532e+06
3.48569e+06
3.48603e+06
3.48634e+06
3.48664e+06
3.48691e+06
3.48717e+06
3.48742e+06
3.48765e+06
3.48788e+06
3.48809e+06
3.48829e+06
3.48848e+06
3.48866e+06
3.50397e+06
3.5139e+06
3.50374e+06
3.5118e+06
3.50306e+06
3.5043e+06
3.50194e+06
3.49926e+06
3.48788e+06
3.45859e+06
3.45108e+06
3.46071e+06
3.46464e+06
3.46933e+06
3.47219e+06
3.47479e+06
3.47668e+06
3.47828e+06
3.47955e+06
3.48061e+06
3.4815e+06
3.48226e+06
3.48291e+06
3.48348e+06
3.48399e+06
3.48444e+06
3.48485e+06
3.48522e+06
3.48556e+06
3.48588e+06
3.48618e+06
3.48647e+06
3.48673e+06
3.48699e+06
3.48723e+06
3.48747e+06
3.48769e+06
3.4879e+06
3.4881e+06
3.48829e+06
3.48848e+06
3.5166e+06
3.5308e+06
3.5172e+06
3.52706e+06
3.51712e+06
3.51953e+06
3.51567e+06
3.51542e+06
3.50567e+06
3.47619e+06
3.45881e+06
3.46804e+06
3.46935e+06
3.47343e+06
3.47516e+06
3.47721e+06
3.47852e+06
3.47973e+06
3.48065e+06
3.48145e+06
3.48212e+06
3.4827e+06
3.48322e+06
3.48368e+06
3.48409e+06
3.48447e+06
3.48482e+06
3.48515e+06
3.48546e+06
3.48576e+06
3.48604e+06
3.48631e+06
3.48656e+06
3.48681e+06
3.48705e+06
3.48728e+06
3.4875e+06
3.48772e+06
3.48792e+06
3.48811e+06
3.4883e+06
3.53452e+06
3.5464e+06
3.53593e+06
3.54247e+06
3.53569e+06
3.5376e+06
3.53426e+06
3.53629e+06
3.52792e+06
3.49738e+06
3.46902e+06
3.47657e+06
3.47502e+06
3.47818e+06
3.47864e+06
3.48003e+06
3.48068e+06
3.48143e+06
3.48196e+06
3.48246e+06
3.48287e+06
3.48326e+06
3.48361e+06
3.48394e+06
3.48425e+06
3.48455e+06
3.48483e+06
3.48511e+06
3.48538e+06
3.48565e+06
3.4859e+06
3.48616e+06
3.4864e+06
3.48664e+06
3.48688e+06
3.4871e+06
3.48732e+06
3.48754e+06
3.48774e+06
3.48793e+06
3.48812e+06
3.55479e+06
3.56053e+06
3.55594e+06
3.5576e+06
3.55548e+06
3.55655e+06
3.55495e+06
3.55877e+06
3.5516e+06
3.52043e+06
3.48109e+06
3.48563e+06
3.48144e+06
3.48338e+06
3.48256e+06
3.48318e+06
3.48312e+06
3.48336e+06
3.48346e+06
3.48361e+06
3.48375e+06
3.48391e+06
3.48408e+06
3.48426e+06
3.48445e+06
3.48466e+06
3.48487e+06
3.48509e+06
3.48532e+06
3.48555e+06
3.48578e+06
3.48602e+06
3.48625e+06
3.48648e+06
3.48671e+06
3.48693e+06
3.48715e+06
3.48736e+06
3.48756e+06
3.48776e+06
3.48795e+06
3.57213e+06
3.57285e+06
3.57293e+06
3.57167e+06
3.57287e+06
3.57344e+06
3.57303e+06
3.57826e+06
3.57148e+06
3.54244e+06
3.49382e+06
3.49434e+06
3.48832e+06
3.48877e+06
3.48681e+06
3.48657e+06
3.48579e+06
3.48548e+06
3.48511e+06
3.48489e+06
3.48473e+06
3.48464e+06
3.48461e+06
3.48463e+06
3.4847e+06
3.4848e+06
3.48494e+06
3.4851e+06
3.48528e+06
3.48547e+06
3.48567e+06
3.48589e+06
3.4861e+06
3.48632e+06
3.48654e+06
3.48676e+06
3.48698e+06
3.48719e+06
3.48739e+06
3.48759e+06
3.48778e+06
3.58563e+06
3.58379e+06
3.58604e+06
3.58382e+06
3.58645e+06
3.58621e+06
3.58562e+06
3.59135e+06
3.58346e+06
3.56032e+06
3.50672e+06
3.50201e+06
3.49549e+06
3.49418e+06
3.49133e+06
3.49014e+06
3.48866e+06
3.48774e+06
3.48689e+06
3.48628e+06
3.48579e+06
3.48544e+06
3.48519e+06
3.48505e+06
3.48498e+06
3.48497e+06
3.48502e+06
3.48511e+06
3.48524e+06
3.4854e+06
3.48557e+06
3.48576e+06
3.48596e+06
3.48617e+06
3.48638e+06
3.4866e+06
3.48681e+06
3.48702e+06
3.48722e+06
3.48742e+06
3.48761e+06
3.59742e+06
3.59389e+06
3.59739e+06
3.59443e+06
3.59751e+06
3.59556e+06
3.59448e+06
3.59833e+06
3.59064e+06
3.57392e+06
3.5217e+06
3.50889e+06
3.50324e+06
3.49964e+06
3.49617e+06
3.49386e+06
3.49171e+06
3.49013e+06
3.48877e+06
3.48774e+06
3.4869e+06
3.48628e+06
3.48581e+06
3.48549e+06
3.48527e+06
3.48516e+06
3.48512e+06
3.48514e+06
3.48522e+06
3.48533e+06
3.48547e+06
3.48564e+06
3.48583e+06
3.48602e+06
3.48623e+06
3.48644e+06
3.48664e+06
3.48685e+06
3.48706e+06
3.48725e+06
3.48745e+06
3.61301e+06
3.60498e+06
3.61033e+06
3.60498e+06
3.60874e+06
3.6045e+06
3.60395e+06
3.6039e+06
3.59968e+06
3.58737e+06
3.54108e+06
3.51615e+06
3.51205e+06
3.50537e+06
3.50138e+06
3.49776e+06
3.49493e+06
3.49262e+06
3.49074e+06
3.48925e+06
3.48806e+06
3.48714e+06
3.48645e+06
3.48594e+06
3.48558e+06
3.48535e+06
3.48522e+06
3.48517e+06
3.48519e+06
3.48526e+06
3.48538e+06
3.48552e+06
3.48569e+06
3.48588e+06
3.48607e+06
3.48628e+06
3.48648e+06
3.48669e+06
3.48689e+06
3.48709e+06
3.48728e+06
3.62881e+06
3.61569e+06
3.62577e+06
3.61649e+06
3.6218e+06
3.61569e+06
3.61673e+06
3.61347e+06
3.61425e+06
3.60434e+06
3.56397e+06
3.52496e+06
3.52174e+06
3.51154e+06
3.50694e+06
3.50184e+06
3.49827e+06
3.49518e+06
3.49275e+06
3.49078e+06
3.48923e+06
3.48801e+06
3.48708e+06
3.48638e+06
3.48588e+06
3.48553e+06
3.48531e+06
3.4852e+06
3.48516e+06
3.4852e+06
3.48528e+06
3.48541e+06
3.48556e+06
3.48573e+06
3.48592e+06
3.48612e+06
3.48632e+06
3.48653e+06
3.48673e+06
3.48693e+06
3.48712e+06
3.64615e+06
3.62747e+06
3.64238e+06
3.62893e+06
3.63606e+06
3.629e+06
3.63194e+06
3.62741e+06
3.63287e+06
3.62359e+06
3.58804e+06
3.53602e+06
3.53163e+06
3.51826e+06
3.51268e+06
3.50608e+06
3.5017e+06
3.49778e+06
3.49477e+06
3.49231e+06
3.49038e+06
3.48886e+06
3.48769e+06
3.48681e+06
3.48616e+06
3.4857e+06
3.48539e+06
3.48521e+06
3.48513e+06
3.48513e+06
3.48518e+06
3.48529e+06
3.48542e+06
3.48559e+06
3.48577e+06
3.48596e+06
3.48616e+06
3.48637e+06
3.48657e+06
3.48677e+06
3.48697e+06
3.66081e+06
3.6395e+06
3.65688e+06
3.64175e+06
3.6493e+06
3.64217e+06
3.64582e+06
3.6406e+06
3.6492e+06
3.63823e+06
3.61022e+06
3.54904e+06
3.54082e+06
3.52552e+06
3.51841e+06
3.51047e+06
3.50512e+06
3.50038e+06
3.49676e+06
3.4938e+06
3.49148e+06
3.48966e+06
3.48826e+06
3.48719e+06
3.4864e+06
3.48584e+06
3.48545e+06
3.48521e+06
3.48508e+06
3.48505e+06
3.48508e+06
3.48516e+06
3.48529e+06
3.48544e+06
3.48562e+06
3.48581e+06
3.48601e+06
3.48621e+06
3.48641e+06
3.48661e+06
3.48681e+06
3.67205e+06
3.6533e+06
3.66794e+06
3.65478e+06
3.66025e+06
3.65407e+06
3.65586e+06
3.65001e+06
3.65794e+06
3.64602e+06
3.6275e+06
3.5649e+06
3.54881e+06
3.53343e+06
3.52398e+06
3.51496e+06
3.50847e+06
3.50293e+06
3.49866e+06
3.4952e+06
3.4925e+06
3.49039e+06
3.48876e+06
3.48752e+06
3.48661e+06
3.48594e+06
3.48549e+06
3.48519e+06
3.48502e+06
3.48495e+06
3.48496e+06
3.48503e+06
3.48514e+06
3.48529e+06
3.48546e+06
3.48565e+06
3.48585e+06
3.48605e+06
3.48626e+06
3.48646e+06
3.48666e+06
3.67957e+06
3.66932e+06
3.67652e+06
3.66863e+06
3.67005e+06
3.6661e+06
3.66415e+06
3.6593e+06
3.6619e+06
3.65413e+06
3.6421e+06
3.58657e+06
3.5563e+06
3.54233e+06
3.52944e+06
3.51956e+06
3.51169e+06
3.50537e+06
3.50041e+06
3.49646e+06
3.49339e+06
3.491e+06
3.48917e+06
3.48778e+06
3.48675e+06
3.486e+06
3.48548e+06
3.48514e+06
3.48494e+06
3.48484e+06
3.48483e+06
3.48489e+06
3.485e+06
3.48514e+06
3.48531e+06
3.48549e+06
3.48569e+06
3.4859e+06
3.4861e+06
3.48631e+06
3.48651e+06
3.68481e+06
3.68723e+06
3.68369e+06
3.68338e+06
3.68002e+06
3.67911e+06
3.67413e+06
3.67221e+06
3.66933e+06
3.67007e+06
3.66017e+06
3.61419e+06
3.56504e+06
3.55215e+06
3.53496e+06
3.52414e+06
3.51471e+06
3.5076e+06
3.50194e+06
3.49753e+06
3.49411e+06
3.49147e+06
3.48945e+06
3.48793e+06
3.48681e+06
3.486e+06
3.48543e+06
3.48505e+06
3.48482e+06
3.48471e+06
3.48469e+06
3.48474e+06
3.48484e+06
3.48498e+06
3.48515e+06
3.48534e+06
3.48553e+06
3.48574e+06
3.48595e+06
3.48615e+06
3.48636e+06
3.68745e+06
3.70392e+06
3.68877e+06
3.69668e+06
3.68918e+06
3.69095e+06
3.68498e+06
3.68639e+06
3.68197e+06
3.6904e+06
3.67873e+06
3.64271e+06
3.57633e+06
3.56149e+06
3.54052e+06
3.52837e+06
3.51741e+06
3.50949e+06
3.50316e+06
3.49833e+06
3.4946e+06
3.49175e+06
3.48959e+06
3.48798e+06
3.48678e+06
3.48592e+06
3.48532e+06
3.48492e+06
3.48468e+06
3.48456e+06
3.48454e+06
3.48458e+06
3.48468e+06
3.48482e+06
3.48499e+06
3.48518e+06
3.48538e+06
3.48558e+06
3.48579e+06
3.486e+06
3.48621e+06
3.68978e+06
3.71636e+06
3.69131e+06
3.70513e+06
3.69492e+06
3.69812e+06
3.69261e+06
3.69633e+06
3.69304e+06
3.70473e+06
3.69074e+06
3.66664e+06
3.5913e+06
3.56864e+06
3.546e+06
3.53173e+06
3.51959e+06
3.51084e+06
3.50395e+06
3.49877e+06
3.49481e+06
3.49181e+06
3.48956e+06
3.48788e+06
3.48665e+06
3.48577e+06
3.48516e+06
3.48475e+06
3.48451e+06
3.48439e+06
3.48436e+06
3.48441e+06
3.48451e+06
3.48465e+06
3.48482e+06
3.48501e+06
3.48522e+06
3.48543e+06
3.48564e+06
3.48585e+06
3.48606e+06
3.68589e+06
3.71851e+06
3.6894e+06
3.70658e+06
3.69514e+06
3.69879e+06
3.69472e+06
3.69962e+06
3.69901e+06
3.70921e+06
3.69743e+06
3.68301e+06
3.6117e+06
3.57266e+06
3.55115e+06
3.5338e+06
3.52104e+06
3.51145e+06
3.50421e+06
3.49877e+06
3.49468e+06
3.49161e+06
3.48933e+06
3.48764e+06
3.48641e+06
3.48553e+06
3.48493e+06
3.48453e+06
3.4843e+06
3.48419e+06
3.48417e+06
3.48422e+06
3.48433e+06
3.48448e+06
3.48465e+06
3.48485e+06
3.48506e+06
3.48527e+06
3.48549e+06
3.48571e+06
3.48592e+06
3.67728e+06
3.71132e+06
3.68199e+06
3.69982e+06
3.68803e+06
3.69173e+06
3.69033e+06
3.69703e+06
3.70116e+06
3.70916e+06
3.70316e+06
3.69378e+06
3.63553e+06
3.5743e+06
3.55503e+06
3.53431e+06
3.52142e+06
3.51114e+06
3.50379e+06
3.49825e+06
3.49416e+06
3.49112e+06
3.48888e+06
3.48723e+06
3.48605e+06
3.48521e+06
3.48463e+06
3.48427e+06
3.48405e+06
3.48396e+06
3.48396e+06
3.48402e+06
3.48414e+06
3.4843e+06
3.48448e+06
3.48468e+06
3.4849e+06
3.48512e+06
3.48534e+06
3.48556e+06
3.48578e+06
3.66059e+06
3.69199e+06
3.66593e+06
3.68268e+06
3.67134e+06
3.67475e+06
3.67745e+06
3.68819e+06
3.69895e+06
3.70765e+06
3.70709e+06
3.69888e+06
3.65479e+06
3.57592e+06
3.55546e+06
3.53306e+06
3.52021e+06
3.50973e+06
3.50254e+06
3.49713e+06
3.49321e+06
3.49031e+06
3.4882e+06
3.48666e+06
3.48556e+06
3.48479e+06
3.48427e+06
3.48395e+06
3.48377e+06
3.48371e+06
3.48373e+06
3.48381e+06
3.48394e+06
3.48411e+06
3.4843e+06
3.48451e+06
3.48474e+06
3.48496e+06
3.48519e+06
3.48541e+06
3.48563e+06
3.63753e+06
3.66286e+06
3.64165e+06
3.65524e+06
3.6441e+06
3.64673e+06
3.65447e+06
3.67123e+06
3.689e+06
3.69969e+06
3.70389e+06
3.6927e+06
3.66341e+06
3.57869e+06
3.55027e+06
3.5298e+06
3.5169e+06
3.50708e+06
3.50036e+06
3.49538e+06
3.4918e+06
3.48918e+06
3.48729e+06
3.48592e+06
3.48495e+06
3.48429e+06
3.48385e+06
3.48358e+06
3.48346e+06
3.48343e+06
3.48348e+06
3.48358e+06
3.48374e+06
3.48392e+06
3.48412e+06
3.48434e+06
3.48457e+06
3.48481e+06
3.48504e+06
3.48527e+06
3.4855e+06
3.60714e+06
3.62559e+06
3.6107e+06
3.62043e+06
3.60881e+06
3.61127e+06
3.62294e+06
3.64554e+06
3.66765e+06
3.67813e+06
3.68635e+06
3.67164e+06
3.65653e+06
3.57903e+06
3.5389e+06
3.52373e+06
3.51124e+06
3.50309e+06
3.4972e+06
3.49299e+06
3.48995e+06
3.48775e+06
3.48616e+06
3.48503e+06
3.48423e+06
3.4837e+06
3.48336e+06
3.48318e+06
3.48311e+06
3.48313e+06
3.48321e+06
3.48335e+06
3.48352e+06
3.48372e+06
3.48394e+06
3.48417e+06
3.48441e+06
3.48465e+06
3.48489e+06
3.48513e+06
3.48536e+06
3.57667e+06
3.58876e+06
3.57924e+06
3.58532e+06
3.57274e+06
3.57701e+06
3.58843e+06
3.61294e+06
3.63407e+06
3.64114e+06
3.65038e+06
3.637e+06
3.63088e+06
3.57074e+06
3.52267e+06
3.51398e+06
3.50345e+06
3.49776e+06
3.49316e+06
3.49003e+06
3.48771e+06
3.48605e+06
3.48484e+06
3.484e+06
3.48342e+06
3.48304e+06
3.48283e+06
3.48273e+06
3.48273e+06
3.4828e+06
3.48293e+06
3.4831e+06
3.4833e+06
3.48352e+06
3.48375e+06
3.484e+06
3.48425e+06
3.4845e+06
3.48474e+06
3.48499e+06
3.48522e+06
3.55159e+06
3.55778e+06
3.55296e+06
3.55569e+06
3.54494e+06
3.54876e+06
3.55878e+06
3.57725e+06
3.59154e+06
3.59339e+06
3.60004e+06
3.59267e+06
3.59097e+06
3.54947e+06
3.50406e+06
3.50056e+06
3.49423e+06
3.49132e+06
3.4885e+06
3.48664e+06
3.48518e+06
3.48414e+06
3.48338e+06
3.48286e+06
3.48252e+06
3.48233e+06
3.48225e+06
3.48225e+06
3.48233e+06
3.48246e+06
3.48263e+06
3.48284e+06
3.48307e+06
3.48331e+06
3.48356e+06
3.48382e+06
3.48408e+06
3.48434e+06
3.4846e+06
3.48485e+06
3.48509e+06
3.53529e+06
3.53457e+06
3.53572e+06
3.53382e+06
3.5302e+06
3.52828e+06
3.53612e+06
3.54309e+06
3.54717e+06
3.54401e+06
3.54683e+06
3.5462e+06
3.54803e+06
3.51998e+06
3.48646e+06
3.48551e+06
3.48472e+06
3.48437e+06
3.48359e+06
3.48303e+06
3.48251e+06
3.48212e+06
3.48184e+06
3.48166e+06
3.48158e+06
3.48157e+06
3.48164e+06
3.48175e+06
3.48191e+06
3.48211e+06
3.48233e+06
3.48257e+06
3.48283e+06
3.4831e+06
3.48337e+06
3.48364e+06
3.48392e+06
3.48419e+06
3.48445e+06
3.48471e+06
3.48495e+06
3.52688e+06
3.51974e+06
3.52581e+06
3.51962e+06
3.52289e+06
3.51599e+06
3.51738e+06
3.51371e+06
3.50874e+06
3.5026e+06
3.50275e+06
3.5065e+06
3.51137e+06
3.49198e+06
3.47194e+06
3.47177e+06
3.47601e+06
3.47768e+06
3.47883e+06
3.47945e+06
3.47983e+06
3.48008e+06
3.48026e+06
3.48043e+06
3.48061e+06
3.4808e+06
3.48101e+06
3.48124e+06
3.48148e+06
3.48175e+06
3.48202e+06
3.4823e+06
3.48259e+06
3.48288e+06
3.48318e+06
3.48347e+06
3.48375e+06
3.48403e+06
3.4843e+06
3.48457e+06
3.48482e+06
3.51873e+06
3.51078e+06
3.51681e+06
3.51116e+06
3.51518e+06
3.50738e+06
3.5008e+06
3.49104e+06
3.48124e+06
3.47475e+06
3.4739e+06
3.4791e+06
3.48468e+06
3.47168e+06
3.46073e+06
3.46127e+06
3.46868e+06
3.47185e+06
3.47453e+06
3.47611e+06
3.47728e+06
3.47809e+06
3.47871e+06
3.47921e+06
3.47963e+06
3.48001e+06
3.48037e+06
3.48071e+06
3.48105e+06
3.48138e+06
3.4817e+06
3.48203e+06
3.48235e+06
3.48267e+06
3.48298e+06
3.48329e+06
3.48359e+06
3.48388e+06
3.48416e+06
3.48443e+06
3.48469e+06
3.50861e+06
3.50669e+06
3.50662e+06
3.50677e+06
3.50506e+06
3.49944e+06
3.48716e+06
3.47579e+06
3.46522e+06
3.46027e+06
3.45945e+06
3.46417e+06
3.46778e+06
3.45995e+06
3.45264e+06
3.45428e+06
3.46287e+06
3.46712e+06
3.47081e+06
3.47314e+06
3.47494e+06
3.47623e+06
3.47724e+06
3.47803e+06
3.47868e+06
3.47924e+06
3.47974e+06
3.48019e+06
3.48061e+06
3.48101e+06
3.48139e+06
3.48175e+06
3.48211e+06
3.48245e+06
3.48279e+06
3.48311e+06
3.48342e+06
3.48373e+06
3.48402e+06
3.4843e+06
3.48457e+06
3.49761e+06
3.50441e+06
3.49645e+06
3.50444e+06
3.49543e+06
3.49182e+06
3.47753e+06
3.46696e+06
3.45793e+06
3.45508e+06
3.45442e+06
3.45815e+06
3.45871e+06
3.45466e+06
3.44742e+06
3.45005e+06
3.45848e+06
3.46347e+06
3.46771e+06
3.47059e+06
3.47286e+06
3.47454e+06
3.47586e+06
3.47691e+06
3.47777e+06
3.47849e+06
3.47912e+06
3.47967e+06
3.48018e+06
3.48064e+06
3.48107e+06
3.48148e+06
3.48187e+06
3.48224e+06
3.48259e+06
3.48294e+06
3.48326e+06
3.48358e+06
3.48388e+06
3.48417e+06
3.48444e+06
3.48953e+06
3.50094e+06
3.48888e+06
3.50088e+06
3.48864e+06
3.48461e+06
3.47144e+06
3.4623e+06
3.45556e+06
3.45444e+06
3.45395e+06
3.45636e+06
3.45468e+06
3.45274e+06
3.44426e+06
3.44747e+06
3.45522e+06
3.46069e+06
3.46516e+06
3.46843e+06
3.47103e+06
3.47302e+06
3.4746e+06
3.47587e+06
3.47691e+06
3.47778e+06
3.47852e+06
3.47917e+06
3.47975e+06
3.48028e+06
3.48076e+06
3.48121e+06
3.48163e+06
3.48203e+06
3.4824e+06
3.48276e+06
3.4831e+06
3.48343e+06
3.48374e+06
3.48404e+06
3.48432e+06
3.48525e+06
3.49321e+06
3.4843e+06
3.49362e+06
3.48354e+06
3.47762e+06
3.46732e+06
3.45955e+06
3.45494e+06
3.45474e+06
3.45424e+06
3.45575e+06
3.45325e+06
3.45204e+06
3.44244e+06
3.44573e+06
3.45279e+06
3.45855e+06
3.46309e+06
3.46663e+06
3.46945e+06
3.47167e+06
3.47346e+06
3.47491e+06
3.4761e+06
3.4771e+06
3.47795e+06
3.47869e+06
3.47934e+06
3.47993e+06
3.48046e+06
3.48094e+06
3.48139e+06
3.48182e+06
3.48222e+06
3.48259e+06
3.48295e+06
3.48329e+06
3.48361e+06
3.48391e+06
3.4842e+06
3.48239e+06
3.48198e+06
3.48079e+06
3.48358e+06
3.47839e+06
3.47086e+06
3.46386e+06
3.45731e+06
3.45433e+06
3.4544e+06
3.45387e+06
3.45484e+06
3.45258e+06
3.45136e+06
3.44128e+06
3.44436e+06
3.45095e+06
3.45685e+06
3.4614e+06
3.46511e+06
3.46809e+06
3.47049e+06
3.47244e+06
3.47404e+06
3.47536e+06
3.47647e+06
3.47742e+06
3.47823e+06
3.47895e+06
3.47959e+06
3.48016e+06
3.48068e+06
3.48117e+06
3.48161e+06
3.48203e+06
3.48242e+06
3.48279e+06
3.48314e+06
3.48347e+06
3.48379e+06
3.48408e+06
3.47909e+06
3.47033e+06
3.47682e+06
3.47316e+06
3.47273e+06
3.46463e+06
3.46051e+06
3.45507e+06
3.45319e+06
3.45319e+06
3.45269e+06
3.45349e+06
3.4518e+06
3.45038e+06
3.44042e+06
3.44318e+06
3.4495e+06
3.45546e+06
3.46001e+06
3.46385e+06
3.46693e+06
3.46946e+06
3.47154e+06
3.47325e+06
3.47468e+06
3.47589e+06
3.47691e+06
3.4778e+06
3.47857e+06
3.47926e+06
3.47987e+06
3.48043e+06
3.48094e+06
3.48141e+06
3.48185e+06
3.48226e+06
3.48264e+06
3.483e+06
3.48334e+06
3.48367e+06
3.48397e+06
3.45161e+06
3.45149e+06
3.45107e+06
3.45179e+06
3.45067e+06
3.4491e+06
3.43964e+06
3.44213e+06
3.44834e+06
3.45432e+06
3.45886e+06
3.46278e+06
3.46594e+06
3.46857e+06
3.47074e+06
3.47255e+06
3.47407e+06
3.47535e+06
3.47644e+06
3.47739e+06
3.47822e+06
3.47895e+06
3.4796e+06
3.48019e+06
3.48073e+06
3.48122e+06
3.48167e+06
3.4821e+06
3.4825e+06
3.48287e+06
3.48322e+06
3.48355e+06
3.48386e+06
3.48226e+06
3.48331e+06
3.48418e+06
3.48492e+06
3.48554e+06
3.48608e+06
3.48655e+06
3.48697e+06
3.48734e+06
3.48768e+06
3.48798e+06
3.48826e+06
3.48852e+06
3.48876e+06
3.48898e+06
3.48919e+06
3.48939e+06
3.48958e+06
3.48975e+06
3.48992e+06
3.47806e+06
3.47984e+06
3.4813e+06
3.48249e+06
3.48347e+06
3.4843e+06
3.485e+06
3.4856e+06
3.48612e+06
3.48658e+06
3.48698e+06
3.48734e+06
3.48767e+06
3.48796e+06
3.48824e+06
3.48849e+06
3.48873e+06
3.48895e+06
3.48915e+06
3.48935e+06
3.48953e+06
3.4897e+06
3.45423e+06
3.44516e+06
3.45493e+06
3.44462e+06
3.44493e+06
3.43573e+06
3.43829e+06
3.43196e+06
3.42146e+06
3.42202e+06
3.45578e+06
3.46267e+06
3.46749e+06
3.47152e+06
3.47452e+06
3.47699e+06
3.47892e+06
3.48051e+06
3.48179e+06
3.48287e+06
3.48376e+06
3.48452e+06
3.48517e+06
3.48573e+06
3.48621e+06
3.48664e+06
3.48703e+06
3.48737e+06
3.48768e+06
3.48797e+06
3.48823e+06
3.48848e+06
3.48871e+06
3.48892e+06
3.48912e+06
3.48931e+06
3.48949e+06
3.46454e+06
3.44781e+06
3.46449e+06
3.44798e+06
3.45339e+06
3.44286e+06
3.4476e+06
3.44006e+06
3.4283e+06
3.42197e+06
3.43498e+06
3.44625e+06
3.4547e+06
3.46142e+06
3.46643e+06
3.47051e+06
3.47365e+06
3.4762e+06
3.47823e+06
3.47989e+06
3.48125e+06
3.48238e+06
3.48332e+06
3.48411e+06
3.48479e+06
3.48538e+06
3.48589e+06
3.48634e+06
3.48673e+06
3.48709e+06
3.48742e+06
3.48771e+06
3.48798e+06
3.48824e+06
3.48847e+06
3.48869e+06
3.4889e+06
3.4891e+06
3.48928e+06
3.47505e+06
3.45283e+06
3.47445e+06
3.45409e+06
3.46339e+06
3.45233e+06
3.45837e+06
3.45063e+06
3.43724e+06
3.4235e+06
3.43581e+06
3.44593e+06
3.45447e+06
3.46088e+06
3.46596e+06
3.46999e+06
3.47316e+06
3.47573e+06
3.47779e+06
3.47948e+06
3.48086e+06
3.48201e+06
3.48298e+06
3.48379e+06
3.48448e+06
3.48508e+06
3.4856e+06
3.48606e+06
3.48647e+06
3.48684e+06
3.48717e+06
3.48747e+06
3.48775e+06
3.48801e+06
3.48825e+06
3.48847e+06
3.48869e+06
3.48889e+06
3.48907e+06
3.48925e+06
3.48436e+06
3.46033e+06
3.48298e+06
3.46239e+06
3.47312e+06
3.4629e+06
3.46911e+06
3.46201e+06
3.44721e+06
3.42665e+06
3.43751e+06
3.44665e+06
3.45502e+06
3.46107e+06
3.46607e+06
3.46995e+06
3.47308e+06
3.47559e+06
3.47762e+06
3.47928e+06
3.48065e+06
3.48179e+06
3.48274e+06
3.48355e+06
3.48424e+06
3.48484e+06
3.48536e+06
3.48582e+06
3.48623e+06
3.4866e+06
3.48693e+06
3.48724e+06
3.48752e+06
3.48778e+06
3.48803e+06
3.48826e+06
3.48847e+06
3.48868e+06
3.48887e+06
3.48905e+06
3.49066e+06
3.47012e+06
3.48887e+06
3.47242e+06
3.48124e+06
3.47315e+06
3.47857e+06
3.47228e+06
3.45704e+06
3.43098e+06
3.4397e+06
3.44831e+06
3.45628e+06
3.46198e+06
3.46675e+06
3.47042e+06
3.47339e+06
3.47577e+06
3.47771e+06
3.47929e+06
3.4806e+06
3.4817e+06
3.48262e+06
3.4834e+06
3.48407e+06
3.48466e+06
3.48517e+06
3.48562e+06
3.48602e+06
3.48639e+06
3.48672e+06
3.48703e+06
3.48731e+06
3.48757e+06
3.48782e+06
3.48805e+06
3.48827e+06
3.48848e+06
3.48867e+06
3.48886e+06
3.48903e+06
3.49451e+06
3.48259e+06
3.49254e+06
3.48405e+06
3.48765e+06
3.48261e+06
3.48616e+06
3.48044e+06
3.46603e+06
3.43683e+06
3.4423e+06
3.451e+06
3.45822e+06
3.46362e+06
3.46799e+06
3.47137e+06
3.4741e+06
3.47629e+06
3.47806e+06
3.47952e+06
3.48074e+06
3.48175e+06
3.48261e+06
3.48334e+06
3.48398e+06
3.48453e+06
3.48502e+06
3.48545e+06
3.48584e+06
3.4862e+06
3.48652e+06
3.48682e+06
3.48711e+06
3.48737e+06
3.48762e+06
3.48785e+06
3.48807e+06
3.48828e+06
3.48848e+06
3.48867e+06
3.48884e+06
3.49743e+06
3.4972e+06
3.49626e+06
3.49722e+06
3.49396e+06
3.49236e+06
3.49298e+06
3.4883e+06
3.47536e+06
3.44555e+06
3.44582e+06
3.45503e+06
3.46096e+06
3.46606e+06
3.4698e+06
3.47283e+06
3.4752e+06
3.47713e+06
3.47868e+06
3.47997e+06
3.48104e+06
3.48194e+06
3.48271e+06
3.48337e+06
3.48395e+06
3.48446e+06
3.48491e+06
3.48532e+06
3.48569e+06
3.48603e+06
3.48634e+06
3.48664e+06
3.48691e+06
3.48717e+06
3.48742e+06
3.48765e+06
3.48788e+06
3.48809e+06
3.48829e+06
3.48848e+06
3.48866e+06
3.50397e+06
3.5139e+06
3.50374e+06
3.5118e+06
3.50306e+06
3.5043e+06
3.50194e+06
3.49926e+06
3.48788e+06
3.45859e+06
3.45108e+06
3.46071e+06
3.46464e+06
3.46933e+06
3.47219e+06
3.47479e+06
3.47668e+06
3.47828e+06
3.47955e+06
3.48061e+06
3.4815e+06
3.48226e+06
3.48291e+06
3.48348e+06
3.48399e+06
3.48444e+06
3.48485e+06
3.48522e+06
3.48556e+06
3.48588e+06
3.48618e+06
3.48647e+06
3.48673e+06
3.48699e+06
3.48723e+06
3.48747e+06
3.48769e+06
3.4879e+06
3.4881e+06
3.48829e+06
3.48848e+06
3.5166e+06
3.5308e+06
3.5172e+06
3.52706e+06
3.51712e+06
3.51953e+06
3.51567e+06
3.51542e+06
3.50567e+06
3.47619e+06
3.45881e+06
3.46804e+06
3.46935e+06
3.47343e+06
3.47516e+06
3.47721e+06
3.47852e+06
3.47973e+06
3.48065e+06
3.48145e+06
3.48212e+06
3.4827e+06
3.48322e+06
3.48368e+06
3.48409e+06
3.48447e+06
3.48482e+06
3.48515e+06
3.48546e+06
3.48576e+06
3.48604e+06
3.48631e+06
3.48656e+06
3.48681e+06
3.48705e+06
3.48728e+06
3.4875e+06
3.48772e+06
3.48792e+06
3.48811e+06
3.4883e+06
3.53452e+06
3.5464e+06
3.53593e+06
3.54247e+06
3.53569e+06
3.5376e+06
3.53426e+06
3.53629e+06
3.52792e+06
3.49738e+06
3.46902e+06
3.47657e+06
3.47502e+06
3.47818e+06
3.47864e+06
3.48003e+06
3.48068e+06
3.48143e+06
3.48196e+06
3.48246e+06
3.48287e+06
3.48326e+06
3.48361e+06
3.48394e+06
3.48425e+06
3.48455e+06
3.48483e+06
3.48511e+06
3.48538e+06
3.48565e+06
3.4859e+06
3.48616e+06
3.4864e+06
3.48664e+06
3.48688e+06
3.4871e+06
3.48732e+06
3.48754e+06
3.48774e+06
3.48793e+06
3.48812e+06
3.55479e+06
3.56053e+06
3.55594e+06
3.5576e+06
3.55548e+06
3.55655e+06
3.55495e+06
3.55877e+06
3.5516e+06
3.52043e+06
3.48109e+06
3.48563e+06
3.48144e+06
3.48338e+06
3.48256e+06
3.48318e+06
3.48312e+06
3.48336e+06
3.48346e+06
3.48361e+06
3.48375e+06
3.48391e+06
3.48408e+06
3.48426e+06
3.48445e+06
3.48466e+06
3.48487e+06
3.48509e+06
3.48532e+06
3.48555e+06
3.48578e+06
3.48602e+06
3.48625e+06
3.48648e+06
3.48671e+06
3.48693e+06
3.48715e+06
3.48736e+06
3.48756e+06
3.48776e+06
3.48795e+06
3.57213e+06
3.57285e+06
3.57293e+06
3.57167e+06
3.57287e+06
3.57344e+06
3.57303e+06
3.57826e+06
3.57148e+06
3.54244e+06
3.49382e+06
3.49434e+06
3.48832e+06
3.48877e+06
3.48681e+06
3.48657e+06
3.48579e+06
3.48548e+06
3.48511e+06
3.48489e+06
3.48473e+06
3.48464e+06
3.48461e+06
3.48463e+06
3.4847e+06
3.4848e+06
3.48494e+06
3.4851e+06
3.48528e+06
3.48547e+06
3.48567e+06
3.48589e+06
3.4861e+06
3.48632e+06
3.48654e+06
3.48676e+06
3.48698e+06
3.48719e+06
3.48739e+06
3.48759e+06
3.48778e+06
3.58563e+06
3.58379e+06
3.58604e+06
3.58382e+06
3.58645e+06
3.58621e+06
3.58562e+06
3.59135e+06
3.58346e+06
3.56032e+06
3.50672e+06
3.50201e+06
3.49549e+06
3.49418e+06
3.49133e+06
3.49014e+06
3.48866e+06
3.48774e+06
3.48689e+06
3.48628e+06
3.48579e+06
3.48544e+06
3.48519e+06
3.48505e+06
3.48498e+06
3.48497e+06
3.48502e+06
3.48511e+06
3.48524e+06
3.4854e+06
3.48557e+06
3.48576e+06
3.48596e+06
3.48617e+06
3.48638e+06
3.4866e+06
3.48681e+06
3.48702e+06
3.48722e+06
3.48742e+06
3.48761e+06
3.59742e+06
3.59389e+06
3.59739e+06
3.59443e+06
3.59751e+06
3.59556e+06
3.59448e+06
3.59833e+06
3.59064e+06
3.57392e+06
3.5217e+06
3.50889e+06
3.50324e+06
3.49964e+06
3.49617e+06
3.49386e+06
3.49171e+06
3.49013e+06
3.48877e+06
3.48774e+06
3.4869e+06
3.48628e+06
3.48581e+06
3.48549e+06
3.48527e+06
3.48516e+06
3.48512e+06
3.48514e+06
3.48522e+06
3.48533e+06
3.48547e+06
3.48564e+06
3.48583e+06
3.48602e+06
3.48623e+06
3.48644e+06
3.48664e+06
3.48685e+06
3.48706e+06
3.48725e+06
3.48745e+06
3.61301e+06
3.60498e+06
3.61033e+06
3.60498e+06
3.60874e+06
3.6045e+06
3.60395e+06
3.6039e+06
3.59968e+06
3.58736e+06
3.54108e+06
3.51615e+06
3.51205e+06
3.50537e+06
3.50138e+06
3.49776e+06
3.49493e+06
3.49262e+06
3.49074e+06
3.48925e+06
3.48806e+06
3.48714e+06
3.48645e+06
3.48594e+06
3.48558e+06
3.48535e+06
3.48522e+06
3.48517e+06
3.48519e+06
3.48526e+06
3.48538e+06
3.48552e+06
3.48569e+06
3.48588e+06
3.48607e+06
3.48628e+06
3.48648e+06
3.48669e+06
3.48689e+06
3.48709e+06
3.48728e+06
3.62881e+06
3.61569e+06
3.62577e+06
3.61649e+06
3.6218e+06
3.61569e+06
3.61673e+06
3.61347e+06
3.61425e+06
3.60434e+06
3.56397e+06
3.52496e+06
3.52174e+06
3.51154e+06
3.50694e+06
3.50184e+06
3.49827e+06
3.49518e+06
3.49275e+06
3.49078e+06
3.48923e+06
3.48801e+06
3.48708e+06
3.48638e+06
3.48588e+06
3.48553e+06
3.48531e+06
3.4852e+06
3.48516e+06
3.4852e+06
3.48528e+06
3.48541e+06
3.48556e+06
3.48573e+06
3.48592e+06
3.48612e+06
3.48632e+06
3.48653e+06
3.48673e+06
3.48693e+06
3.48712e+06
3.64615e+06
3.62747e+06
3.64238e+06
3.62893e+06
3.63606e+06
3.629e+06
3.63194e+06
3.62741e+06
3.63287e+06
3.62359e+06
3.58804e+06
3.53602e+06
3.53163e+06
3.51826e+06
3.51268e+06
3.50608e+06
3.5017e+06
3.49778e+06
3.49477e+06
3.49231e+06
3.49038e+06
3.48886e+06
3.48769e+06
3.48681e+06
3.48616e+06
3.4857e+06
3.48539e+06
3.48521e+06
3.48513e+06
3.48513e+06
3.48518e+06
3.48529e+06
3.48542e+06
3.48559e+06
3.48577e+06
3.48596e+06
3.48616e+06
3.48637e+06
3.48657e+06
3.48677e+06
3.48697e+06
3.66081e+06
3.6395e+06
3.65688e+06
3.64175e+06
3.6493e+06
3.64217e+06
3.64582e+06
3.6406e+06
3.6492e+06
3.63823e+06
3.61022e+06
3.54904e+06
3.54082e+06
3.52552e+06
3.51841e+06
3.51047e+06
3.50512e+06
3.50038e+06
3.49676e+06
3.4938e+06
3.49148e+06
3.48966e+06
3.48826e+06
3.48719e+06
3.4864e+06
3.48584e+06
3.48545e+06
3.48521e+06
3.48508e+06
3.48505e+06
3.48508e+06
3.48516e+06
3.48529e+06
3.48544e+06
3.48562e+06
3.48581e+06
3.48601e+06
3.48621e+06
3.48641e+06
3.48661e+06
3.48681e+06
3.67205e+06
3.6533e+06
3.66794e+06
3.65478e+06
3.66025e+06
3.65407e+06
3.65586e+06
3.65001e+06
3.65794e+06
3.64602e+06