/*--------------------------------*- C++ -*----------------------------------*\
| =========                 |                                                 |
| \\      /  F ield         | OpenFOAM: The Open Source CFD Toolbox           |
|  \\    /   O peration     | Version:  v2012                                 |
|   \\  /    A nd           | Website:  www.openfoam.com                      |
|    \\/     M anipulation  |                                                 |
\*---------------------------------------------------------------------------*/
FoamFile
{
    version     2.0;
    format      ascii;
    class       volScalarField;
    location    "0.95";
    object      p_rgh;
}
// * * * * * * * * * * * * * * * * * * * * * * * * * * * * * * * * * * * * * //

dimensions      [1 -1 -2 0 0 0 0];


internalField   nonuniform List<scalar> 
3332
(
3.48228e+06
3.48332e+06
3.4842e+06
3.48493e+06
3.48556e+06
3.4861e+06
3.48657e+06
3.48698e+06
3.48735e+06
3.48769e+06
3.48799e+06
3.48827e+06
3.48853e+06
3.48877e+06
3.48899e+06
3.4892e+06
3.4894e+06
3.48959e+06
3.48977e+06
3.48993e+06
3.47807e+06
3.47985e+06
3.48132e+06
3.4825e+06
3.48349e+06
3.48431e+06
3.48501e+06
3.48561e+06
3.48613e+06
3.48659e+06
3.48699e+06
3.48735e+06
3.48768e+06
3.48798e+06
3.48825e+06
3.4885e+06
3.48874e+06
3.48896e+06
3.48916e+06
3.48936e+06
3.48954e+06
3.48972e+06
3.45433e+06
3.44525e+06
3.45503e+06
3.44471e+06
3.44503e+06
3.43582e+06
3.43839e+06
3.43205e+06
3.42151e+06
3.42204e+06
3.45579e+06
3.46268e+06
3.4675e+06
3.47153e+06
3.47453e+06
3.477e+06
3.47893e+06
3.48052e+06
3.48181e+06
3.48288e+06
3.48377e+06
3.48453e+06
3.48518e+06
3.48574e+06
3.48623e+06
3.48666e+06
3.48704e+06
3.48738e+06
3.48769e+06
3.48798e+06
3.48824e+06
3.48849e+06
3.48872e+06
3.48893e+06
3.48913e+06
3.48932e+06
3.4895e+06
3.46463e+06
3.44791e+06
3.46458e+06
3.44807e+06
3.45349e+06
3.44295e+06
3.44769e+06
3.44016e+06
3.42836e+06
3.42199e+06
3.435e+06
3.44626e+06
3.45471e+06
3.46143e+06
3.46644e+06
3.47053e+06
3.47366e+06
3.47622e+06
3.47824e+06
3.4799e+06
3.48126e+06
3.48239e+06
3.48333e+06
3.48413e+06
3.48481e+06
3.48539e+06
3.4859e+06
3.48635e+06
3.48675e+06
3.48711e+06
3.48743e+06
3.48772e+06
3.488e+06
3.48825e+06
3.48849e+06
3.48871e+06
3.48891e+06
3.48911e+06
3.48929e+06
3.47515e+06
3.45293e+06
3.47455e+06
3.45419e+06
3.46349e+06
3.45243e+06
3.45847e+06
3.45073e+06
3.4373e+06
3.42352e+06
3.43582e+06
3.44595e+06
3.45448e+06
3.4609e+06
3.46597e+06
3.47e+06
3.47318e+06
3.47575e+06
3.4778e+06
3.47949e+06
3.48088e+06
3.48203e+06
3.48299e+06
3.4838e+06
3.4845e+06
3.4851e+06
3.48562e+06
3.48608e+06
3.48648e+06
3.48685e+06
3.48718e+06
3.48748e+06
3.48776e+06
3.48802e+06
3.48826e+06
3.48849e+06
3.4887e+06
3.4889e+06
3.48909e+06
3.48926e+06
3.48446e+06
3.46043e+06
3.48308e+06
3.46249e+06
3.47322e+06
3.463e+06
3.46921e+06
3.46211e+06
3.44728e+06
3.42667e+06
3.43753e+06
3.44666e+06
3.45504e+06
3.46109e+06
3.46608e+06
3.46997e+06
3.47309e+06
3.4756e+06
3.47763e+06
3.47929e+06
3.48066e+06
3.4818e+06
3.48275e+06
3.48356e+06
3.48426e+06
3.48486e+06
3.48538e+06
3.48584e+06
3.48625e+06
3.48661e+06
3.48695e+06
3.48725e+06
3.48754e+06
3.4878e+06
3.48804e+06
3.48827e+06
3.48849e+06
3.48869e+06
3.48888e+06
3.48907e+06
3.49076e+06
3.47022e+06
3.48897e+06
3.47252e+06
3.48134e+06
3.47325e+06
3.47867e+06
3.47238e+06
3.45711e+06
3.43101e+06
3.43971e+06
3.44832e+06
3.4563e+06
3.46199e+06
3.46676e+06
3.47043e+06
3.47341e+06
3.47579e+06
3.47772e+06
3.47931e+06
3.48062e+06
3.48171e+06
3.48263e+06
3.48342e+06
3.48409e+06
3.48467e+06
3.48518e+06
3.48563e+06
3.48604e+06
3.4864e+06
3.48673e+06
3.48704e+06
3.48732e+06
3.48759e+06
3.48783e+06
3.48806e+06
3.48828e+06
3.48849e+06
3.48869e+06
3.48887e+06
3.48904e+06
3.49462e+06
3.48269e+06
3.49264e+06
3.48415e+06
3.48775e+06
3.48271e+06
3.48627e+06
3.48054e+06
3.46611e+06
3.43686e+06
3.44232e+06
3.45101e+06
3.45824e+06
3.46363e+06
3.468e+06
3.47139e+06
3.47412e+06
3.4763e+06
3.47808e+06
3.47954e+06
3.48075e+06
3.48176e+06
3.48262e+06
3.48336e+06
3.48399e+06
3.48454e+06
3.48503e+06
3.48547e+06
3.48586e+06
3.48621e+06
3.48654e+06
3.48684e+06
3.48712e+06
3.48738e+06
3.48763e+06
3.48786e+06
3.48808e+06
3.48829e+06
3.48849e+06
3.48868e+06
3.48886e+06
3.49753e+06
3.4973e+06
3.49637e+06
3.49733e+06
3.49407e+06
3.49247e+06
3.49308e+06
3.48841e+06
3.47544e+06
3.44558e+06
3.44584e+06
3.45505e+06
3.46098e+06
3.46607e+06
3.46981e+06
3.47285e+06
3.47522e+06
3.47714e+06
3.4787e+06
3.47998e+06
3.48105e+06
3.48195e+06
3.48272e+06
3.48339e+06
3.48396e+06
3.48447e+06
3.48493e+06
3.48533e+06
3.4857e+06
3.48604e+06
3.48636e+06
3.48665e+06
3.48693e+06
3.48719e+06
3.48743e+06
3.48767e+06
3.48789e+06
3.4881e+06
3.4883e+06
3.48849e+06
3.48867e+06
3.50408e+06
3.514e+06
3.50385e+06
3.5119e+06
3.50317e+06
3.5044e+06
3.50205e+06
3.49936e+06
3.48797e+06
3.45862e+06
3.4511e+06
3.46072e+06
3.46465e+06
3.46935e+06
3.47221e+06
3.4748e+06
3.4767e+06
3.47829e+06
3.47956e+06
3.48063e+06
3.48152e+06
3.48228e+06
3.48293e+06
3.4835e+06
3.484e+06
3.48445e+06
3.48486e+06
3.48523e+06
3.48558e+06
3.4859e+06
3.4862e+06
3.48648e+06
3.48675e+06
3.487e+06
3.48725e+06
3.48748e+06
3.4877e+06
3.48791e+06
3.48812e+06
3.48831e+06
3.48849e+06
3.51671e+06
3.53091e+06
3.51731e+06
3.52717e+06
3.51723e+06
3.51964e+06
3.51578e+06
3.51553e+06
3.50577e+06
3.47623e+06
3.45883e+06
3.46805e+06
3.46936e+06
3.47344e+06
3.47518e+06
3.47722e+06
3.47854e+06
3.47974e+06
3.48066e+06
3.48147e+06
3.48213e+06
3.48272e+06
3.48323e+06
3.48369e+06
3.4841e+06
3.48448e+06
3.48484e+06
3.48517e+06
3.48548e+06
3.48577e+06
3.48605e+06
3.48632e+06
3.48658e+06
3.48683e+06
3.48707e+06
3.4873e+06
3.48752e+06
3.48773e+06
3.48793e+06
3.48813e+06
3.48831e+06
3.53463e+06
3.54651e+06
3.53604e+06
3.54258e+06
3.5358e+06
3.53772e+06
3.53437e+06
3.5364e+06
3.52802e+06
3.49743e+06
3.46904e+06
3.47659e+06
3.47504e+06
3.4782e+06
3.47866e+06
3.48005e+06
3.4807e+06
3.48145e+06
3.48198e+06
3.48247e+06
3.48289e+06
3.48327e+06
3.48362e+06
3.48395e+06
3.48426e+06
3.48456e+06
3.48485e+06
3.48513e+06
3.4854e+06
3.48566e+06
3.48592e+06
3.48617e+06
3.48642e+06
3.48666e+06
3.48689e+06
3.48712e+06
3.48734e+06
3.48755e+06
3.48775e+06
3.48795e+06
3.48814e+06
3.5549e+06
3.56065e+06
3.55605e+06
3.55772e+06
3.55559e+06
3.55667e+06
3.55506e+06
3.55888e+06
3.55171e+06
3.52049e+06
3.48111e+06
3.48565e+06
3.48146e+06
3.4834e+06
3.48257e+06
3.4832e+06
3.48314e+06
3.48338e+06
3.48347e+06
3.48363e+06
3.48376e+06
3.48392e+06
3.48409e+06
3.48428e+06
3.48447e+06
3.48467e+06
3.48489e+06
3.48511e+06
3.48534e+06
3.48557e+06
3.4858e+06
3.48603e+06
3.48627e+06
3.4865e+06
3.48672e+06
3.48695e+06
3.48716e+06
3.48738e+06
3.48758e+06
3.48778e+06
3.48796e+06
3.57224e+06
3.57296e+06
3.57305e+06
3.57179e+06
3.57299e+06
3.57356e+06
3.57315e+06
3.57838e+06
3.57159e+06
3.5425e+06
3.49385e+06
3.49436e+06
3.48834e+06
3.48879e+06
3.48682e+06
3.48659e+06
3.48581e+06
3.48549e+06
3.48512e+06
3.48491e+06
3.48474e+06
3.48466e+06
3.48463e+06
3.48465e+06
3.48472e+06
3.48482e+06
3.48495e+06
3.48511e+06
3.48529e+06
3.48548e+06
3.48569e+06
3.4859e+06
3.48612e+06
3.48634e+06
3.48656e+06
3.48678e+06
3.48699e+06
3.4872e+06
3.48741e+06
3.4876e+06
3.48779e+06
3.58575e+06
3.58391e+06
3.58616e+06
3.58393e+06
3.58657e+06
3.58633e+06
3.58574e+06
3.59146e+06
3.58357e+06
3.56039e+06
3.50674e+06
3.50203e+06
3.4955e+06
3.4942e+06
3.49135e+06
3.49016e+06
3.48868e+06
3.48776e+06
3.4869e+06
3.48629e+06
3.4858e+06
3.48545e+06
3.48521e+06
3.48506e+06
3.48499e+06
3.48499e+06
3.48504e+06
3.48513e+06
3.48526e+06
3.48541e+06
3.48559e+06
3.48578e+06
3.48598e+06
3.48619e+06
3.4864e+06
3.48661e+06
3.48683e+06
3.48703e+06
3.48724e+06
3.48744e+06
3.48763e+06
3.59754e+06
3.59401e+06
3.59751e+06
3.59455e+06
3.59763e+06
3.59568e+06
3.5946e+06
3.59845e+06
3.59076e+06
3.57401e+06
3.52173e+06
3.50891e+06
3.50326e+06
3.49966e+06
3.49619e+06
3.49388e+06
3.49173e+06
3.49015e+06
3.48879e+06
3.48775e+06
3.48692e+06
3.48629e+06
3.48583e+06
3.4855e+06
3.48529e+06
3.48517e+06
3.48513e+06
3.48516e+06
3.48523e+06
3.48535e+06
3.48549e+06
3.48566e+06
3.48584e+06
3.48604e+06
3.48624e+06
3.48645e+06
3.48666e+06
3.48687e+06
3.48707e+06
3.48727e+06
3.48746e+06
3.61313e+06
3.60511e+06
3.61045e+06
3.6051e+06
3.60886e+06
3.60462e+06
3.60407e+06
3.60402e+06
3.59981e+06
3.58746e+06
3.54112e+06
3.51616e+06
3.51206e+06
3.50538e+06
3.5014e+06
3.49778e+06
3.49494e+06
3.49263e+06
3.49076e+06
3.48926e+06
3.48808e+06
3.48716e+06
3.48646e+06
3.48595e+06
3.48559e+06
3.48536e+06
3.48523e+06
3.48519e+06
3.48521e+06
3.48528e+06
3.48539e+06
3.48554e+06
3.48571e+06
3.48589e+06
3.48609e+06
3.48629e+06
3.4865e+06
3.48671e+06
3.48691e+06
3.48711e+06
3.4873e+06
3.62894e+06
3.61581e+06
3.6259e+06
3.61662e+06
3.62192e+06
3.61581e+06
3.61685e+06
3.61359e+06
3.61438e+06
3.60445e+06
3.56401e+06
3.52498e+06
3.52176e+06
3.51155e+06
3.50695e+06
3.50186e+06
3.49829e+06
3.4952e+06
3.49277e+06
3.4908e+06
3.48925e+06
3.48803e+06
3.4871e+06
3.4864e+06
3.48589e+06
3.48555e+06
3.48533e+06
3.48521e+06
3.48518e+06
3.48521e+06
3.4853e+06
3.48542e+06
3.48557e+06
3.48575e+06
3.48594e+06
3.48614e+06
3.48634e+06
3.48654e+06
3.48675e+06
3.48695e+06
3.48714e+06
3.64628e+06
3.6276e+06
3.64251e+06
3.62905e+06
3.63618e+06
3.62913e+06
3.63206e+06
3.62754e+06
3.633e+06
3.6237e+06
3.5881e+06
3.53604e+06
3.53165e+06
3.51827e+06
3.5127e+06
3.5061e+06
3.50171e+06
3.4978e+06
3.49479e+06
3.49233e+06
3.4904e+06
3.48888e+06
3.48771e+06
3.48682e+06
3.48617e+06
3.48571e+06
3.48541e+06
3.48523e+06
3.48515e+06
3.48514e+06
3.4852e+06
3.4853e+06
3.48544e+06
3.4856e+06
3.48579e+06
3.48598e+06
3.48618e+06
3.48638e+06
3.48659e+06
3.48679e+06
3.48698e+06
3.66094e+06
3.63963e+06
3.65701e+06
3.64188e+06
3.64943e+06
3.6423e+06
3.64595e+06
3.64073e+06
3.64933e+06
3.63835e+06
3.61029e+06
3.54906e+06
3.54084e+06
3.52554e+06
3.51842e+06
3.51048e+06
3.50514e+06
3.5004e+06
3.49678e+06
3.49382e+06
3.4915e+06
3.48968e+06
3.48828e+06
3.48721e+06
3.48642e+06
3.48586e+06
3.48547e+06
3.48523e+06
3.4851e+06
3.48506e+06
3.48509e+06
3.48518e+06
3.4853e+06
3.48546e+06
3.48563e+06
3.48582e+06
3.48602e+06
3.48623e+06
3.48643e+06
3.48663e+06
3.48683e+06
3.67218e+06
3.65343e+06
3.66807e+06
3.65491e+06
3.66038e+06
3.6542e+06
3.65599e+06
3.65015e+06
3.65807e+06
3.64615e+06
3.62759e+06
3.56492e+06
3.54883e+06
3.53345e+06
3.52399e+06
3.51498e+06
3.50849e+06
3.50295e+06
3.49868e+06
3.49522e+06
3.49252e+06
3.4904e+06
3.48878e+06
3.48754e+06
3.48662e+06
3.48596e+06
3.4855e+06
3.48521e+06
3.48504e+06
3.48497e+06
3.48498e+06
3.48505e+06
3.48516e+06
3.48531e+06
3.48548e+06
3.48567e+06
3.48587e+06
3.48607e+06
3.48627e+06
3.48648e+06
3.48668e+06
3.6797e+06
3.66945e+06
3.67665e+06
3.66877e+06
3.67018e+06
3.66623e+06
3.66429e+06
3.65944e+06
3.66203e+06
3.65427e+06
3.6422e+06
3.5866e+06
3.55632e+06
3.54235e+06
3.52946e+06
3.51957e+06
3.51171e+06
3.50539e+06
3.50043e+06
3.49648e+06
3.49341e+06
3.49102e+06
3.48918e+06
3.4878e+06
3.48676e+06
3.48602e+06
3.4855e+06
3.48516e+06
3.48495e+06
3.48486e+06
3.48485e+06
3.48491e+06
3.48502e+06
3.48516e+06
3.48533e+06
3.48551e+06
3.48571e+06
3.48591e+06
3.48612e+06
3.48632e+06
3.48652e+06
3.68495e+06
3.68736e+06
3.68382e+06
3.68351e+06
3.68015e+06
3.67925e+06
3.67426e+06
3.67234e+06
3.66946e+06
3.6702e+06
3.66028e+06
3.61423e+06
3.56506e+06
3.55217e+06
3.53498e+06
3.52416e+06
3.51473e+06
3.50762e+06
3.50195e+06
3.49755e+06
3.49413e+06
3.49149e+06
3.48947e+06
3.48795e+06
3.48683e+06
3.48601e+06
3.48545e+06
3.48507e+06
3.48484e+06
3.48473e+06
3.48471e+06
3.48476e+06
3.48486e+06
3.485e+06
3.48517e+06
3.48535e+06
3.48555e+06
3.48576e+06
3.48597e+06
3.48617e+06
3.48638e+06
3.68759e+06
3.70406e+06
3.68891e+06
3.69681e+06
3.68932e+06
3.69109e+06
3.68512e+06
3.68653e+06
3.68211e+06
3.69054e+06
3.67886e+06
3.64277e+06
3.57635e+06
3.56151e+06
3.54054e+06
3.52839e+06
3.51743e+06
3.50951e+06
3.50317e+06
3.49835e+06
3.49462e+06
3.49177e+06
3.48961e+06
3.48799e+06
3.4868e+06
3.48594e+06
3.48534e+06
3.48494e+06
3.4847e+06
3.48458e+06
3.48456e+06
3.4846e+06
3.4847e+06
3.48484e+06
3.48501e+06
3.48519e+06
3.48539e+06
3.4856e+06
3.48581e+06
3.48602e+06
3.48623e+06
3.68992e+06
3.7165e+06
3.69144e+06
3.70527e+06
3.69506e+06
3.69826e+06
3.69275e+06
3.69647e+06
3.69318e+06
3.70486e+06
3.69087e+06
3.66672e+06
3.59133e+06
3.56866e+06
3.54602e+06
3.53175e+06
3.51961e+06
3.51086e+06
3.50397e+06
3.49879e+06
3.49483e+06
3.49183e+06
3.48958e+06
3.4879e+06
3.48667e+06
3.48579e+06
3.48518e+06
3.48477e+06
3.48453e+06
3.48441e+06
3.48438e+06
3.48443e+06
3.48453e+06
3.48467e+06
3.48484e+06
3.48503e+06
3.48524e+06
3.48545e+06
3.48566e+06
3.48587e+06
3.48608e+06
3.68604e+06
3.71865e+06
3.68954e+06
3.70672e+06
3.69528e+06
3.69893e+06
3.69486e+06
3.69976e+06
3.69915e+06
3.70935e+06
3.69757e+06
3.68311e+06
3.61173e+06
3.57268e+06
3.55116e+06
3.53382e+06
3.52106e+06
3.51147e+06
3.50423e+06
3.49879e+06
3.4947e+06
3.49163e+06
3.48935e+06
3.48766e+06
3.48643e+06
3.48555e+06
3.48495e+06
3.48455e+06
3.48432e+06
3.48421e+06
3.48419e+06
3.48424e+06
3.48435e+06
3.4845e+06
3.48467e+06
3.48487e+06
3.48508e+06
3.48529e+06
3.48551e+06
3.48573e+06
3.48594e+06
3.67742e+06
3.71146e+06
3.68213e+06
3.69996e+06
3.68817e+06
3.69187e+06
3.69047e+06
3.69717e+06
3.70131e+06
3.7093e+06
3.7033e+06
3.6939e+06
3.63557e+06
3.57432e+06
3.55505e+06
3.53433e+06
3.52143e+06
3.51116e+06
3.50381e+06
3.49827e+06
3.49418e+06
3.49114e+06
3.4889e+06
3.48725e+06
3.48607e+06
3.48523e+06
3.48465e+06
3.48428e+06
3.48407e+06
3.48398e+06
3.48398e+06
3.48404e+06
3.48416e+06
3.48432e+06
3.4845e+06
3.4847e+06
3.48492e+06
3.48514e+06
3.48536e+06
3.48558e+06
3.4858e+06
3.66074e+06
3.69213e+06
3.66607e+06
3.68282e+06
3.67148e+06
3.6749e+06
3.67759e+06
3.68834e+06
3.6991e+06
3.7078e+06
3.70723e+06
3.69902e+06
3.65486e+06
3.57595e+06
3.55548e+06
3.53308e+06
3.52023e+06
3.50975e+06
3.50256e+06
3.49715e+06
3.49323e+06
3.49033e+06
3.48822e+06
3.48668e+06
3.48558e+06
3.48481e+06
3.48429e+06
3.48397e+06
3.48379e+06
3.48373e+06
3.48375e+06
3.48383e+06
3.48396e+06
3.48413e+06
3.48432e+06
3.48453e+06
3.48476e+06
3.48498e+06
3.48521e+06
3.48543e+06
3.48565e+06
3.63768e+06
3.66301e+06
3.6418e+06
3.65539e+06
3.64425e+06
3.64687e+06
3.65462e+06
3.67137e+06
3.68914e+06
3.69984e+06
3.70403e+06
3.69284e+06
3.66351e+06
3.57871e+06
3.55029e+06
3.52982e+06
3.51692e+06
3.5071e+06
3.50038e+06
3.4954e+06
3.49182e+06
3.4892e+06
3.48731e+06
3.48594e+06
3.48497e+06
3.48431e+06
3.48387e+06
3.4836e+06
3.48347e+06
3.48345e+06
3.4835e+06
3.4836e+06
3.48376e+06
3.48394e+06
3.48414e+06
3.48436e+06
3.48459e+06
3.48483e+06
3.48506e+06
3.48529e+06
3.48551e+06
3.60729e+06
3.62574e+06
3.61085e+06
3.62058e+06
3.60896e+06
3.61142e+06
3.62308e+06
3.64569e+06
3.6678e+06
3.67828e+06
3.6865e+06
3.67179e+06
3.65665e+06
3.57906e+06
3.53892e+06
3.52375e+06
3.51126e+06
3.50311e+06
3.49722e+06
3.49301e+06
3.48997e+06
3.48777e+06
3.48618e+06
3.48505e+06
3.48425e+06
3.48372e+06
3.48338e+06
3.4832e+06
3.48313e+06
3.48315e+06
3.48323e+06
3.48337e+06
3.48354e+06
3.48374e+06
3.48396e+06
3.48419e+06
3.48443e+06
3.48467e+06
3.48491e+06
3.48515e+06
3.48538e+06
3.57682e+06
3.58891e+06
3.57939e+06
3.58547e+06
3.57289e+06
3.57716e+06
3.58858e+06
3.6131e+06
3.63422e+06
3.64129e+06
3.65053e+06
3.63715e+06
3.63102e+06
3.5708e+06
3.52269e+06
3.514e+06
3.50348e+06
3.49778e+06
3.49318e+06
3.49005e+06
3.48773e+06
3.48607e+06
3.48486e+06
3.48402e+06
3.48344e+06
3.48306e+06
3.48285e+06
3.48275e+06
3.48275e+06
3.48282e+06
3.48295e+06
3.48312e+06
3.48332e+06
3.48354e+06
3.48377e+06
3.48402e+06
3.48427e+06
3.48452e+06
3.48476e+06
3.48501e+06
3.48524e+06
3.55174e+06
3.55794e+06
3.55311e+06
3.55585e+06
3.5451e+06
3.54892e+06
3.55893e+06
3.5774e+06
3.5917e+06
3.59354e+06
3.60019e+06
3.59282e+06
3.59112e+06
3.54955e+06
3.50408e+06
3.50059e+06
3.49425e+06
3.49134e+06
3.48852e+06
3.48666e+06
3.4852e+06
3.48416e+06
3.48341e+06
3.48288e+06
3.48254e+06
3.48235e+06
3.48227e+06
3.48227e+06
3.48235e+06
3.48248e+06
3.48266e+06
3.48286e+06
3.48309e+06
3.48333e+06
3.48358e+06
3.48384e+06
3.4841e+06
3.48436e+06
3.48462e+06
3.48487e+06
3.48511e+06
3.53544e+06
3.53472e+06
3.53587e+06
3.53398e+06
3.53036e+06
3.52844e+06
3.53628e+06
3.54324e+06
3.54733e+06
3.54417e+06
3.54698e+06
3.54636e+06
3.54818e+06
3.52008e+06
3.48648e+06
3.48553e+06
3.48474e+06
3.48439e+06
3.48361e+06
3.48305e+06
3.48253e+06
3.48214e+06
3.48186e+06
3.48168e+06
3.4816e+06
3.48159e+06
3.48166e+06
3.48177e+06
3.48193e+06
3.48213e+06
3.48235e+06
3.48259e+06
3.48285e+06
3.48312e+06
3.48339e+06
3.48366e+06
3.48394e+06
3.48421e+06
3.48447e+06
3.48473e+06
3.48497e+06
3.52704e+06
3.51989e+06
3.52597e+06
3.51978e+06
3.52304e+06
3.51615e+06
3.51754e+06
3.51387e+06
3.5089e+06
3.50275e+06
3.50291e+06
3.50666e+06
3.51152e+06
3.49209e+06
3.47198e+06
3.47179e+06
3.47603e+06
3.4777e+06
3.47885e+06
3.47947e+06
3.47985e+06
3.4801e+06
3.48028e+06
3.48045e+06
3.48063e+06
3.48082e+06
3.48103e+06
3.48126e+06
3.4815e+06
3.48177e+06
3.48204e+06
3.48232e+06
3.48261e+06
3.4829e+06
3.4832e+06
3.48349e+06
3.48377e+06
3.48405e+06
3.48433e+06
3.48459e+06
3.48484e+06
3.51889e+06
3.51094e+06
3.51697e+06
3.51132e+06
3.51534e+06
3.50754e+06
3.50096e+06
3.4912e+06
3.4814e+06
3.47491e+06
3.47406e+06
3.47926e+06
3.48484e+06
3.4718e+06
3.46076e+06
3.46129e+06
3.4687e+06
3.47187e+06
3.47455e+06
3.47614e+06
3.4773e+06
3.47811e+06
3.47874e+06
3.47923e+06
3.47966e+06
3.48004e+06
3.48039e+06
3.48073e+06
3.48107e+06
3.4814e+06
3.48173e+06
3.48205e+06
3.48237e+06
3.48269e+06
3.483e+06
3.48331e+06
3.48361e+06
3.4839e+06
3.48418e+06
3.48445e+06
3.48472e+06
3.50877e+06
3.50685e+06
3.50678e+06
3.50694e+06
3.50522e+06
3.4996e+06
3.48732e+06
3.47595e+06
3.46538e+06
3.46044e+06
3.45962e+06
3.46433e+06
3.46794e+06
3.46008e+06
3.45268e+06
3.4543e+06
3.46289e+06
3.46714e+06
3.47083e+06
3.47317e+06
3.47496e+06
3.47626e+06
3.47726e+06
3.47805e+06
3.47871e+06
3.47926e+06
3.47976e+06
3.48021e+06
3.48063e+06
3.48103e+06
3.48141e+06
3.48178e+06
3.48213e+06
3.48247e+06
3.48281e+06
3.48313e+06
3.48345e+06
3.48375e+06
3.48404e+06
3.48432e+06
3.48459e+06
3.49777e+06
3.50457e+06
3.49661e+06
3.5046e+06
3.4956e+06
3.49198e+06
3.4777e+06
3.46713e+06
3.45809e+06
3.45525e+06
3.45459e+06
3.45832e+06
3.45887e+06
3.45479e+06
3.44746e+06
3.45007e+06
3.4585e+06
3.4635e+06
3.46773e+06
3.47061e+06
3.47288e+06
3.47456e+06
3.47588e+06
3.47693e+06
3.47779e+06
3.47852e+06
3.47914e+06
3.4797e+06
3.4802e+06
3.48066e+06
3.48109e+06
3.4815e+06
3.48189e+06
3.48226e+06
3.48262e+06
3.48296e+06
3.48329e+06
3.4836e+06
3.4839e+06
3.48419e+06
3.48446e+06
3.4897e+06
3.5011e+06
3.48905e+06
3.50104e+06
3.4888e+06
3.48477e+06
3.47161e+06
3.46247e+06
3.45572e+06
3.4546e+06
3.45411e+06
3.45653e+06
3.45484e+06
3.45288e+06
3.44431e+06
3.4475e+06
3.45524e+06
3.46071e+06
3.46518e+06
3.46845e+06
3.47105e+06
3.47304e+06
3.47462e+06
3.47589e+06
3.47693e+06
3.4778e+06
3.47854e+06
3.4792e+06
3.47978e+06
3.4803e+06
3.48078e+06
3.48123e+06
3.48165e+06
3.48205e+06
3.48243e+06
3.48278e+06
3.48313e+06
3.48345e+06
3.48376e+06
3.48406e+06
3.48434e+06
3.48542e+06
3.49338e+06
3.48447e+06
3.49378e+06
3.48371e+06
3.47779e+06
3.46749e+06
3.45972e+06
3.4551e+06
3.45491e+06
3.45441e+06
3.45592e+06
3.45342e+06
3.45219e+06
3.44249e+06
3.44576e+06
3.45281e+06
3.45857e+06
3.46311e+06
3.46665e+06
3.46947e+06
3.47169e+06
3.47348e+06
3.47493e+06
3.47612e+06
3.47712e+06
3.47798e+06
3.47871e+06
3.47937e+06
3.47995e+06
3.48048e+06
3.48097e+06
3.48142e+06
3.48184e+06
3.48224e+06
3.48261e+06
3.48297e+06
3.48331e+06
3.48363e+06
3.48393e+06
3.48422e+06
3.48256e+06
3.48215e+06
3.48096e+06
3.48375e+06
3.47856e+06
3.47103e+06
3.46403e+06
3.45748e+06
3.4545e+06
3.45457e+06
3.45404e+06
3.45502e+06
3.45274e+06
3.4515e+06
3.44134e+06
3.44439e+06
3.45097e+06
3.45687e+06
3.46142e+06
3.46514e+06
3.46811e+06
3.47052e+06
3.47246e+06
3.47406e+06
3.47538e+06
3.47649e+06
3.47744e+06
3.47826e+06
3.47897e+06
3.47961e+06
3.48018e+06
3.48071e+06
3.48119e+06
3.48164e+06
3.48205e+06
3.48245e+06
3.48282e+06
3.48317e+06
3.4835e+06
3.48381e+06
3.48411e+06
3.47926e+06
3.4705e+06
3.477e+06
3.47333e+06
3.4729e+06
3.4648e+06
3.46068e+06
3.45524e+06
3.45336e+06
3.45336e+06
3.45286e+06
3.45366e+06
3.45197e+06
3.45053e+06
3.44048e+06
3.4432e+06
3.44952e+06
3.45548e+06
3.46003e+06
3.46387e+06
3.46695e+06
3.46949e+06
3.47156e+06
3.47328e+06
3.4747e+06
3.47591e+06
3.47694e+06
3.47782e+06
3.4786e+06
3.47928e+06
3.4799e+06
3.48046e+06
3.48097e+06
3.48144e+06
3.48187e+06
3.48228e+06
3.48267e+06
3.48303e+06
3.48337e+06
3.48369e+06
3.48399e+06
3.45178e+06
3.45167e+06
3.45124e+06
3.45197e+06
3.45085e+06
3.44926e+06
3.43971e+06
3.44215e+06
3.44836e+06
3.45434e+06
3.45889e+06
3.4628e+06
3.46596e+06
3.46859e+06
3.47076e+06
3.47257e+06
3.47409e+06
3.47537e+06
3.47647e+06
3.47741e+06
3.47824e+06
3.47897e+06
3.47962e+06
3.48021e+06
3.48075e+06
3.48124e+06
3.4817e+06
3.48212e+06
3.48252e+06
3.48289e+06
3.48324e+06
3.48357e+06
3.48388e+06
3.48228e+06
3.48332e+06
3.4842e+06
3.48493e+06
3.48556e+06
3.4861e+06
3.48657e+06
3.48698e+06
3.48735e+06
3.48769e+06
3.48799e+06
3.48827e+06
3.48853e+06
3.48877e+06
3.48899e+06
3.4892e+06
3.4894e+06
3.48959e+06
3.48977e+06
3.48993e+06
3.47807e+06
3.47985e+06
3.48132e+06
3.4825e+06
3.48349e+06
3.48431e+06
3.48501e+06
3.48561e+06
3.48613e+06
3.48659e+06
3.48699e+06
3.48735e+06
3.48768e+06
3.48798e+06
3.48825e+06
3.4885e+06
3.48874e+06
3.48896e+06
3.48916e+06
3.48936e+06
3.48954e+06
3.48972e+06
3.45433e+06
3.44525e+06
3.45503e+06
3.44471e+06
3.44503e+06
3.43582e+06
3.43839e+06
3.43205e+06
3.42151e+06
3.42204e+06
3.45579e+06
3.46268e+06
3.4675e+06
3.47153e+06
3.47453e+06
3.477e+06
3.47893e+06
3.48052e+06
3.48181e+06
3.48288e+06
3.48377e+06
3.48453e+06
3.48518e+06
3.48574e+06
3.48623e+06
3.48666e+06
3.48704e+06
3.48738e+06
3.48769e+06
3.48798e+06
3.48824e+06
3.48849e+06
3.48872e+06
3.48893e+06
3.48913e+06
3.48932e+06
3.4895e+06
3.46463e+06
3.44791e+06
3.46458e+06
3.44807e+06
3.45349e+06
3.44295e+06
3.44769e+06
3.44016e+06
3.42836e+06
3.42199e+06
3.435e+06
3.44626e+06
3.45471e+06
3.46143e+06
3.46644e+06
3.47053e+06
3.47366e+06
3.47622e+06
3.47824e+06
3.4799e+06
3.48126e+06
3.48239e+06
3.48333e+06
3.48413e+06
3.48481e+06
3.48539e+06
3.4859e+06
3.48635e+06
3.48675e+06
3.48711e+06
3.48743e+06
3.48772e+06
3.488e+06
3.48825e+06
3.48849e+06
3.48871e+06
3.48891e+06
3.48911e+06
3.48929e+06
3.47515e+06
3.45293e+06
3.47455e+06
3.45419e+06
3.46349e+06
3.45243e+06
3.45847e+06
3.45073e+06
3.4373e+06
3.42352e+06
3.43582e+06
3.44595e+06
3.45448e+06
3.4609e+06
3.46597e+06
3.47e+06
3.47318e+06
3.47575e+06
3.4778e+06
3.47949e+06
3.48088e+06
3.48203e+06
3.48299e+06
3.4838e+06
3.4845e+06
3.4851e+06
3.48562e+06
3.48608e+06
3.48648e+06
3.48685e+06
3.48718e+06
3.48748e+06
3.48776e+06
3.48802e+06
3.48826e+06
3.48849e+06
3.4887e+06
3.4889e+06
3.48909e+06
3.48926e+06
3.48446e+06
3.46043e+06
3.48308e+06
3.46249e+06
3.47322e+06
3.463e+06
3.46921e+06
3.46211e+06
3.44728e+06
3.42667e+06
3.43753e+06
3.44666e+06
3.45504e+06
3.46109e+06
3.46608e+06
3.46997e+06
3.47309e+06
3.4756e+06
3.47763e+06
3.47929e+06
3.48066e+06
3.4818e+06
3.48275e+06
3.48356e+06
3.48426e+06
3.48486e+06
3.48538e+06
3.48584e+06
3.48625e+06
3.48661e+06
3.48695e+06
3.48725e+06
3.48754e+06
3.4878e+06
3.48804e+06
3.48827e+06
3.48849e+06
3.48869e+06
3.48888e+06
3.48907e+06
3.49076e+06
3.47022e+06
3.48897e+06
3.47252e+06
3.48134e+06
3.47325e+06
3.47867e+06
3.47238e+06
3.45711e+06
3.43101e+06
3.43971e+06
3.44832e+06
3.4563e+06
3.46199e+06
3.46676e+06
3.47043e+06
3.47341e+06
3.47579e+06
3.47772e+06
3.47931e+06
3.48062e+06
3.48171e+06
3.48263e+06
3.48342e+06
3.48409e+06
3.48467e+06
3.48518e+06
3.48563e+06
3.48604e+06
3.4864e+06
3.48673e+06
3.48704e+06
3.48732e+06
3.48759e+06
3.48783e+06
3.48806e+06
3.48828e+06
3.48849e+06
3.48869e+06
3.48887e+06
3.48904e+06
3.49462e+06
3.48269e+06
3.49264e+06
3.48415e+06
3.48775e+06
3.48271e+06
3.48627e+06
3.48054e+06
3.46611e+06
3.43686e+06
3.44232e+06
3.45101e+06
3.45824e+06
3.46363e+06
3.468e+06
3.47139e+06
3.47412e+06
3.4763e+06
3.47808e+06
3.47954e+06
3.48075e+06
3.48176e+06
3.48262e+06
3.48336e+06
3.48399e+06
3.48454e+06
3.48503e+06
3.48547e+06
3.48586e+06
3.48621e+06
3.48654e+06
3.48684e+06
3.48712e+06
3.48738e+06
3.48763e+06
3.48786e+06
3.48808e+06
3.48829e+06
3.48849e+06
3.48868e+06
3.48886e+06
3.49753e+06
3.4973e+06
3.49637e+06
3.49733e+06
3.49407e+06
3.49247e+06
3.49308e+06
3.48841e+06
3.47544e+06
3.44558e+06
3.44584e+06
3.45505e+06
3.46098e+06
3.46607e+06
3.46981e+06
3.47285e+06
3.47522e+06
3.47714e+06
3.4787e+06
3.47998e+06
3.48105e+06
3.48195e+06
3.48272e+06
3.48339e+06
3.48396e+06
3.48447e+06
3.48493e+06
3.48533e+06
3.4857e+06
3.48604e+06
3.48636e+06
3.48665e+06
3.48693e+06
3.48719e+06
3.48743e+06
3.48767e+06
3.48789e+06
3.4881e+06
3.4883e+06
3.48849e+06
3.48867e+06
3.50408e+06
3.514e+06
3.50385e+06
3.5119e+06
3.50317e+06
3.5044e+06
3.50205e+06
3.49936e+06
3.48797e+06
3.45862e+06
3.4511e+06
3.46072e+06
3.46465e+06
3.46935e+06
3.47221e+06
3.4748e+06
3.4767e+06
3.47829e+06
3.47956e+06
3.48063e+06
3.48152e+06
3.48228e+06
3.48293e+06
3.4835e+06
3.484e+06
3.48445e+06
3.48486e+06
3.48523e+06
3.48558e+06
3.4859e+06
3.4862e+06
3.48648e+06
3.48675e+06
3.487e+06
3.48725e+06
3.48748e+06
3.4877e+06
3.48791e+06
3.48812e+06
3.48831e+06
3.48849e+06
3.51671e+06
3.53091e+06
3.51731e+06
3.52717e+06
3.51723e+06
3.51964e+06
3.51578e+06
3.51553e+06
3.50577e+06
3.47623e+06
3.45883e+06
3.46805e+06
3.46936e+06
3.47344e+06
3.47518e+06
3.47722e+06
3.47854e+06
3.47974e+06
3.48066e+06
3.48147e+06
3.48213e+06
3.48272e+06
3.48323e+06
3.48369e+06
3.4841e+06
3.48448e+06
3.48484e+06
3.48517e+06
3.48548e+06
3.48577e+06
3.48605e+06
3.48632e+06
3.48658e+06
3.48683e+06
3.48707e+06
3.4873e+06
3.48752e+06
3.48773e+06
3.48793e+06
3.48813e+06
3.48831e+06
3.53463e+06
3.54651e+06
3.53604e+06
3.54258e+06
3.5358e+06
3.53772e+06
3.53437e+06
3.5364e+06
3.52802e+06
3.49743e+06
3.46904e+06
3.47659e+06
3.47504e+06
3.4782e+06
3.47866e+06
3.48005e+06
3.4807e+06
3.48145e+06
3.48198e+06
3.48247e+06
3.48289e+06
3.48327e+06
3.48362e+06
3.48395e+06
3.48426e+06
3.48456e+06
3.48485e+06
3.48513e+06
3.4854e+06
3.48566e+06
3.48592e+06
3.48617e+06
3.48642e+06
3.48666e+06
3.48689e+06
3.48712e+06
3.48734e+06
3.48755e+06
3.48775e+06
3.48795e+06
3.48814e+06
3.5549e+06
3.56065e+06
3.55605e+06
3.55772e+06
3.55559e+06
3.55667e+06
3.55506e+06
3.55888e+06
3.55171e+06
3.52049e+06
3.48111e+06
3.48565e+06
3.48146e+06
3.4834e+06
3.48257e+06
3.4832e+06
3.48314e+06
3.48338e+06
3.48347e+06
3.48363e+06
3.48376e+06
3.48392e+06
3.48409e+06
3.48428e+06
3.48447e+06
3.48467e+06
3.48489e+06
3.48511e+06
3.48534e+06
3.48557e+06
3.4858e+06
3.48603e+06
3.48627e+06
3.4865e+06
3.48672e+06
3.48695e+06
3.48716e+06
3.48738e+06
3.48758e+06
3.48778e+06
3.48796e+06
3.57224e+06
3.57296e+06
3.57305e+06
3.57179e+06
3.57299e+06
3.57356e+06
3.57315e+06
3.57838e+06
3.57159e+06
3.5425e+06
3.49385e+06
3.49436e+06
3.48834e+06
3.48879e+06
3.48682e+06
3.48659e+06
3.48581e+06
3.48549e+06
3.48512e+06
3.48491e+06
3.48474e+06
3.48466e+06
3.48463e+06
3.48465e+06
3.48472e+06
3.48482e+06
3.48495e+06
3.48511e+06
3.48529e+06
3.48548e+06
3.48569e+06
3.4859e+06
3.48612e+06
3.48634e+06
3.48656e+06
3.48678e+06
3.48699e+06
3.4872e+06
3.48741e+06
3.4876e+06
3.48779e+06
3.58575e+06
3.58391e+06
3.58616e+06
3.58393e+06
3.58657e+06
3.58633e+06
3.58574e+06
3.59146e+06
3.58357e+06
3.56039e+06
3.50674e+06
3.50203e+06
3.4955e+06
3.4942e+06
3.49135e+06
3.49016e+06
3.48868e+06
3.48776e+06
3.4869e+06
3.48629e+06
3.4858e+06
3.48545e+06
3.48521e+06
3.48506e+06
3.48499e+06
3.48499e+06
3.48504e+06
3.48513e+06
3.48526e+06
3.48541e+06
3.48559e+06
3.48578e+06
3.48598e+06
3.48619e+06
3.4864e+06
3.48661e+06
3.48683e+06
3.48703e+06
3.48724e+06
3.48744e+06
3.48763e+06
3.59754e+06
3.59401e+06
3.59751e+06
3.59455e+06
3.59763e+06
3.59568e+06
3.5946e+06
3.59845e+06
3.59076e+06
3.57401e+06
3.52173e+06
3.50891e+06
3.50326e+06
3.49966e+06
3.49619e+06
3.49388e+06
3.49173e+06
3.49015e+06
3.48879e+06
3.48775e+06
3.48692e+06
3.48629e+06
3.48583e+06
3.4855e+06
3.48529e+06
3.48517e+06
3.48513e+06
3.48516e+06
3.48523e+06
3.48535e+06
3.48549e+06
3.48566e+06
3.48584e+06
3.48604e+06
3.48624e+06
3.48645e+06
3.48666e+06
3.48687e+06
3.48707e+06
3.48727e+06
3.48746e+06
3.61313e+06
3.60511e+06
3.61045e+06
3.6051e+06
3.60886e+06
3.60462e+06
3.60407e+06
3.60402e+06
3.59981e+06
3.58746e+06
3.54112e+06
3.51616e+06
3.51206e+06
3.50538e+06
3.5014e+06
3.49778e+06
3.49494e+06
3.49263e+06
3.49076e+06
3.48926e+06
3.48808e+06
3.48716e+06
3.48646e+06
3.48595e+06
3.48559e+06
3.48536e+06
3.48523e+06
3.48519e+06
3.48521e+06
3.48528e+06
3.48539e+06
3.48554e+06
3.48571e+06
3.48589e+06
3.48609e+06
3.48629e+06
3.4865e+06
3.48671e+06
3.48691e+06
3.48711e+06
3.4873e+06
3.62894e+06
3.61581e+06
3.6259e+06
3.61662e+06
3.62192e+06
3.61581e+06
3.61685e+06
3.61359e+06
3.61438e+06
3.60445e+06
3.56401e+06
3.52498e+06
3.52176e+06
3.51155e+06
3.50695e+06
3.50186e+06
3.49829e+06
3.4952e+06
3.49277e+06
3.4908e+06
3.48925e+06
3.48803e+06
3.4871e+06
3.4864e+06
3.48589e+06
3.48555e+06
3.48533e+06
3.48521e+06
3.48518e+06
3.48521e+06
3.4853e+06
3.48542e+06
3.48557e+06
3.48575e+06
3.48594e+06
3.48614e+06
3.48634e+06
3.48654e+06
3.48675e+06
3.48695e+06
3.48714e+06
3.64628e+06
3.6276e+06
3.64251e+06
3.62905e+06
3.63618e+06
3.62913e+06
3.63206e+06
3.62754e+06
3.633e+06
3.6237e+06
3.5881e+06
3.53604e+06
3.53165e+06
3.51827e+06
3.5127e+06
3.5061e+06
3.50171e+06
3.4978e+06
3.49479e+06
3.49233e+06
3.4904e+06
3.48888e+06
3.48771e+06
3.48682e+06
3.48617e+06
3.48571e+06
3.48541e+06
3.48523e+06
3.48515e+06
3.48514e+06
3.4852e+06
3.4853e+06
3.48544e+06
3.4856e+06
3.48579e+06
3.48598e+06
3.48618e+06
3.48638e+06
3.48659e+06
3.48679e+06
3.48698e+06
3.66094e+06
3.63963e+06
3.65701e+06
3.64188e+06
3.64943e+06
3.6423e+06
3.64595e+06
3.64073e+06
3.64933e+06
3.63835e+06
3.61029e+06
3.54906e+06
3.54084e+06
3.52554e+06
3.51842e+06
3.51048e+06
3.50514e+06
3.5004e+06
3.49678e+06
3.49382e+06
3.4915e+06
3.48968e+06
3.48828e+06
3.48721e+06
3.48642e+06
3.48586e+06
3.48547e+06
3.48523e+06
3.4851e+06
3.48506e+06
3.48509e+06
3.48518e+06
3.4853e+06
3.48546e+06
3.48563e+06
3.48582e+06
3.48602e+06
3.48623e+06
3.48643e+06
3.48663e+06
3.48683e+06
3.67218e+06
3.65343e+06
3.66807e+06
3.65491e+06
3.66038e+06
3.6542e+06
3.65599e+06
3.65015e+06
3.65807e+06
3.64615e+06
3.62759e+06
3.56492e+06
3.54883e+06
3.53345e+06
3.52399e+06
3.51498e+06