/*--------------------------------*- C++ -*----------------------------------*\
| =========                 |                                                 |
| \\      /  F ield         | OpenFOAM: The Open Source CFD Toolbox           |
|  \\    /   O peration     | Version:  v2012                                 |
|   \\  /    A nd           | Website:  www.openfoam.com                      |
|    \\/     M anipulation  |                                                 |
\*---------------------------------------------------------------------------*/
FoamFile
{
    version     2.0;
    format      ascii;
    class       volScalarField;
    location    "0.5";
    object      alpha.water;
}
// * * * * * * * * * * * * * * * * * * * * * * * * * * * * * * * * * * * * * //

dimensions      [0 0 0 0 0 0 0];


internalField   nonuniform List<scalar> 
2664
(
2.81329e-17
2.32699e-17
1.90533e-17
1.54477e-17
1.23901e-17
9.96668e-18
8.40893e-18
7.26566e-18
5.52656e-18
2.60298e-18
4.18054e-19
1.249e-20
6.50747e-23
1.38394e-25
2.13195e-28
2.61145e-31
2.55137e-34
2.01496e-37
1.2712e-40
6.48931e-44
2.65889e-47
8.7679e-51
2.35292e-54
4.97924e-58
8.26758e-62
1.08781e-65
1.12078e-69
-2.42971e-70
-8.84533e-72
-1.27441e-73
-1.04502e-75
-5.14221e-78
-1.52268e-80
-2.67458e-83
-2.98386e-86
-1.77884e-89
-2.61469e-93
3.31449e-17
2.71211e-17
2.19641e-17
1.76151e-17
1.39766e-17
1.10023e-17
8.95662e-18
7.70263e-18
6.28811e-18
3.72076e-18
9.47763e-19
5.48476e-20
5.13763e-22
1.38639e-24
2.38419e-27
3.19513e-30
3.38975e-33
2.88814e-36
1.95405e-39
1.06402e-42
4.62541e-46
1.61012e-49
4.54715e-53
1.01627e-56
1.81293e-60
2.54056e-64
2.7783e-68
2.33076e-72
7.18077e-77
-1.92694e-78
-2.38601e-80
-1.51807e-82
-5.3774e-85
-1.12306e-87
-1.81765e-90
-1.83657e-93
-5.06624e-97
3.90719e-17
3.16233e-17
2.53087e-17
2.00574e-17
1.57402e-17
1.22067e-17
9.61393e-18
8.09182e-18
6.83038e-18
4.68653e-18
1.68265e-18
1.68698e-19
2.87353e-21
1.06223e-23
2.06031e-26
3.00891e-29
3.44947e-32
3.1557e-35
2.27907e-38
1.31758e-41
6.05149e-45
2.21362e-48
6.54589e-52
1.52685e-55
2.83402e-59
4.12062e-63
4.66307e-67
4.0801e-71
2.68864e-75
1.31252e-79
4.09958e-84
-3.11157e-87
-1.85729e-89
-4.6511e-92
-1.13558e-94
-2.02084e-97
-1.1103e-100
4.60341e-17
3.6868e-17
2.91479e-17
2.28045e-17
1.76804e-17
1.35463e-17
1.03929e-17
8.48544e-18
7.2343e-18
5.4478e-18
2.51246e-18
3.9234e-19
1.16349e-20
6.28296e-23
1.39901e-25
2.2171e-28
2.72982e-31
2.66575e-34
2.04354e-37
1.2475e-40
6.02201e-44
2.30328e-47
7.09698e-51
1.71932e-54
3.30456e-58
4.96143e-62
5.78229e-66
5.19689e-70
3.50799e-74
1.75365e-78
6.3365e-83
1.58914e-87
2.55555e-92
2.63201e-98
-7.56269e-99
-2.70911e-101
-2.92162e-104
5.41666e-17
4.29327e-17
3.35363e-17
2.58858e-17
1.98028e-17
1.49945e-17
1.12782e-17
8.91333e-18
7.55896e-18
6.02267e-18
3.32431e-18
7.37294e-19
3.55483e-20
2.89597e-22
7.59191e-25
1.30177e-27
1.71042e-30
1.77178e-33
1.43318e-36
9.18625e-40
4.63555e-43
1.84436e-46
5.89232e-50
1.4755e-53
2.92279e-57
4.51017e-61
5.38801e-65
4.95042e-69
3.40637e-73
1.73053e-77
6.33286e-82
1.60382e-86
2.6598e-91
2.68324e-96
1.34431e-101
-4.65305e-104
-2.25207e-107
6.36536e-17
4.98938e-17
3.85131e-17
2.93233e-17
2.21117e-17
1.65325e-17
1.22418e-17
9.3867e-18
7.84117e-18
6.45337e-18
4.04557e-18
1.18038e-18
8.59301e-20
1.05321e-21
3.33999e-24
6.18822e-27
8.61995e-30
9.4095e-33
7.98117e-36
5.33951e-39
2.80064e-42
1.1532e-45
3.79981e-49
9.78611e-53
1.98825e-56
3.13834e-60
3.82477e-64
3.575e-68
2.49497e-72
1.28127e-76
4.72174e-81
1.19896e-85
1.9832e-90
1.98431e-95
1.04669e-100
-5.91631e-104
-2.3368e-107
7.47404e-17
5.7848e-17
4.41041e-17
3.31249e-17
2.46054e-17
1.8144e-17
1.32524e-17
9.90059e-18
8.10148e-18
6.78076e-18
4.64806e-18
1.67694e-18
1.71872e-19
3.08177e-21
1.20733e-23
2.4166e-26
3.54502e-29
4.04986e-32
3.57841e-35
2.48309e-38
1.34564e-41
5.70362e-45
1.92755e-48
5.07826e-52
1.05276e-55
1.69122e-59
2.09214e-63
1.9792e-67
1.39349e-71
7.19317e-76
2.65331e-80
6.71079e-85
1.09913e-89
1.08165e-94
5.6088e-100
-5.93562e-104
-3.93124e-107
8.77145e-17
6.69177e-17
5.0331e-17
3.72805e-17
2.72705e-17
1.98102e-17
1.42788e-17
1.04373e-17
8.34833e-18
7.0352e-18
5.13318e-18
2.18038e-18
2.95703e-19
7.44071e-21
3.63492e-23
7.86177e-26
1.20636e-28
1.43197e-31
1.30897e-34
9.35873e-38
5.20667e-41
2.25815e-44
7.78235e-48
2.08554e-51
4.38706e-55
7.13351e-59
8.90835e-63
8.48206e-67
5.99e-71
3.08904e-75
1.13303e-79
2.83398e-84
4.55995e-89
4.37468e-94
2.19624e-99
2.97954e-106
-6.49874e-107
1.02878e-16
7.72342e-17
5.7213e-17
4.17628e-17
3.00771e-17
2.1505e-17
1.5289e-17
1.09697e-17
8.57957e-18
7.23539e-18
5.51579e-18
2.65527e-18
4.51905e-19
1.52358e-20
9.2479e-23
2.1604e-25
3.44437e-28
4.21706e-31
3.95956e-34
2.89686e-37
1.64357e-40
7.24725e-44
2.53156e-47
6.85941e-51
1.45544e-54
2.38121e-58
2.98384e-62
2.84182e-66
2.00004e-70
1.02343e-74
3.70549e-79
9.0933e-84
1.4248e-88
1.3195e-93
6.33392e-99
5.10097e-105
-1.07419e-106
1.20517e-16
8.8907e-17
6.47531e-17
4.65249e-17
3.29752e-17
2.31904e-17
1.62479e-17
1.1464e-17
8.78301e-18
7.38998e-18
5.81369e-18
3.08112e-18
6.29538e-19
2.71678e-20
2.01955e-22
5.08472e-25
8.36689e-28
1.04891e-30
1.00439e-33
7.46706e-37
4.29123e-40
1.91111e-43
6.72356e-47
1.83042e-50
3.89284e-54
6.36738e-58
7.95376e-62
7.52574e-66
5.24086e-70
2.64084e-74
9.36174e-79
2.23402e-83
3.37517e-88
2.98345e-93
1.3507e-98
1.15925e-104
-1.76995e-106
1.40853e-16
1.01995e-16
7.29177e-17
5.14924e-17
3.58918e-17
2.48132e-17
1.71146e-17
1.18842e-17
8.9396e-18
7.50092e-18
6.04288e-18
3.45017e-18
8.15996e-19
4.32021e-20
3.84788e-22
1.03915e-24
1.75309e-27
2.23437e-30
2.16664e-33
1.62554e-36
9.39842e-40
4.19937e-43
1.47837e-46
4.01764e-50
8.50825e-54
1.38198e-57
1.70888e-61
1.59464e-65
1.09034e-69
5.36566e-74
1.84572e-78
4.24096e-83
6.10988e-88
5.0889e-93
2.13881e-98
1.19729e-104
-2.82724e-106
1.63942e-16
1.16467e-16
8.1614e-17
5.65524e-17
3.87264e-17
2.63036e-17
1.78441e-17
1.21988e-17
9.03404e-18
7.56938e-18
6.21657e-18
3.76294e-18
1.00008e-18
6.25423e-20
6.50413e-22
1.86975e-24
3.2121e-27
4.13321e-30
4.03062e-33
3.03099e-36
1.75124e-39
7.79851e-43
2.72951e-46
7.35638e-50
1.54094e-53
2.46837e-57
2.99968e-61
2.73958e-65
1.82419e-69
8.68971e-74
2.87251e-78
6.28644e-83
8.52809e-88
6.59365e-93
2.52477e-98
-1.81898e-103
-4.30292e-106
1.896e-16
1.32144e-16
9.06674e-17
6.1544e-17
4.13512e-17
2.7579e-17
1.8394e-17
1.23917e-17
9.07052e-18
7.60081e-18
6.34482e-18
4.02324e-18
1.17337e-18
8.39026e-20
9.92225e-22
3.00669e-24
5.22356e-27
6.73938e-30
6.56384e-33
4.91361e-36
2.81791e-39
1.24229e-42
4.29462e-46
1.1403e-49
2.34665e-53
3.68106e-57
4.36379e-61
3.86994e-65
2.48781e-69
1.13624e-73
3.57099e-78
7.35603e-83
9.26674e-88
6.5373e-93
2.21271e-98
-1.81974e-102
-5.96799e-106
2.17417e-16
1.48651e-16
9.9791e-17
6.6251e-17
4.36166e-17
2.85558e-17
1.87392e-17
1.24744e-17
9.07501e-18
7.60691e-18
6.4327e-18
4.23115e-18
1.32816e-18
1.05651e-19
1.38611e-21
4.38176e-24
7.64992e-27
9.83465e-30
9.50518e-33
7.03709e-36
3.97943e-39
1.72529e-42
5.85253e-46
1.52071e-49
3.05291e-53
4.65443e-57
5.33912e-61
4.55751e-65
2.80324e-69
1.2158e-73
3.59413e-78
6.87921e-83
7.91918e-88
4.99109e-93
1.44259e-98
-4.04601e-102
-7.19905e-106
2.46779e-16
1.65393e-16
1.08561e-16
7.04032e-17
4.53713e-17
2.91778e-17
1.88935e-17
1.24898e-17
9.04021e-18
7.59381e-18
6.47949e-18
4.37416e-18
1.44827e-18
1.24581e-19
1.76571e-21
5.75874e-24
1.00601e-26
1.2838e-29
1.22627e-32
8.93929e-36
4.96126e-39
2.10474e-42
6.96844e-46
1.76145e-49
3.42889e-53
5.04941e-57
5.56818e-61
4.54235e-65
2.64972e-69
1.0799e-73
2.9656e-78
5.19636e-83
5.36486e-88
2.92373e-93
6.87396e-99
-6.222e-102
-7.44899e-106
2.76769e-16
1.81551e-16
1.16415e-16
7.3702e-17
4.65093e-17
2.9461e-17
1.89248e-17
1.2404e-17
8.95328e-18
7.55471e-18
6.48838e-18
4.43461e-18
1.50586e-18
1.34444e-19
1.9758e-21
6.52982e-24
1.13733e-26
1.43948e-29
1.35889e-32
9.75929e-36
5.3202e-39
2.21042e-42
7.14696e-46
1.75766e-49
3.31302e-53
4.69776e-57
4.95632e-61
3.83937e-65
2.10801e-69
7.99845e-74
2.01661e-78
3.18491e-83
2.88396e-88
1.3143e-93
2.22735e-99
-7.50716e-102
-6.7408e-106
3.0598e-16
1.96074e-16
1.22725e-16
7.59075e-17
4.7047e-17
2.95223e-17
1.87462e-17
1.21642e-17
8.80021e-18
7.4883e-18
6.46888e-18
4.43508e-18
1.50712e-18
1.34318e-19
1.96145e-21
6.41864e-24
1.10478e-26
1.37745e-29
1.27721e-32
8.98898e-36
4.79271e-39
1.9438e-42
6.1224e-46
1.46176e-49
2.66357e-53
3.63138e-57
3.6586e-61
2.68362e-65
1.38069e-69
4.84442e-74
1.10996e-78
1.5556e-83
1.1979e-88
4.38751e-94
3.12101e-100
-7.25028e-102
-5.29482e-106
3.32392e-16
2.07758e-16
1.26974e-16
7.69955e-17
4.71758e-17
2.91994e-17
1.82583e-17
1.17424e-17
8.58489e-18
7.39904e-18
6.41524e-18
4.36889e-18
1.44974e-18
1.23629e-19
1.70781e-21
5.37826e-24
9.03848e-27
1.10016e-29
9.93848e-33
6.80515e-36
3.52622e-39
1.38859e-42
4.24053e-46
9.78722e-50
1.71706e-53
2.24175e-57
2.14767e-61
1.48458e-65
7.11534e-70
2.29004e-74
4.7121e-79
5.74783e-84
3.6403e-89
1.00744e-94
-9.23181e-99
-5.60781e-102
-3.57677e-106
3.53586e-16
2.15582e-16
1.29084e-16
7.72814e-17
4.65932e-17
2.8315e-17
1.74177e-17
1.11604e-17
8.33069e-18
7.29365e-18
6.32288e-18
4.21069e-18
1.31891e-18
1.02203e-19
1.26557e-21
3.73617e-24
6.07081e-27
7.15962e-30
6.25661e-33
4.1396e-36
2.07079e-39
7.8679e-43
2.31354e-46
5.12506e-50
8.59267e-54
1.0659e-57
9.6297e-62
6.21662e-66
2.74642e-70
8.00197e-75
1.45212e-79
1.4896e-84
7.40211e-90
1.41878e-95
-9.50238e-99
-3.29359e-102
-1.92714e-106
3.67537e-16
2.19366e-16
1.29643e-16
7.62698e-17
4.49931e-17
2.67933e-17
1.62434e-17
1.04646e-17
8.06294e-18
7.17546e-18
6.1824e-18
3.94718e-18
1.1201e-18
7.42447e-20
7.77589e-22
2.09971e-24
3.26399e-27
3.6963e-30
3.09827e-33
1.9649e-36
9.41432e-40
3.42415e-43
9.61294e-47
2.02542e-50
3.2137e-54
3.74787e-58
3.15649e-62
1.87843e-66
7.53235e-71
1.94836e-75
3.03407e-80
2.49975e-85
9.00925e-91
1.04382e-96
-4.96016e-99
-1.42252e-102
-7.77946e-107
3.74021e-16
2.20295e-16
1.27842e-16
7.33757e-17
4.22251e-17
2.46591e-17
1.48062e-17
9.72265e-18
7.80562e-18
7.04412e-18
5.97745e-18
3.56492e-18
8.71954e-19
4.61602e-20
3.86236e-22
9.35972e-25
1.37711e-27
1.4827e-30
1.18114e-33
7.11812e-37
3.23907e-40
1.11828e-43
2.97071e-47
5.89648e-51
8.76207e-55
9.49683e-59
7.35907e-63
3.97444e-67
1.41893e-71
3.17593e-76
4.04776e-81
2.50767e-86
5.99791e-92
3.32328e-98
-1.57952e-99
-4.03491e-103
-2.13095e-107
3.75469e-16
2.16828e-16
1.22437e-16
6.82666e-17
3.83338e-17
2.20357e-17
1.32188e-17
9.00861e-18
7.57304e-18
6.89299e-18
5.68006e-18
3.0538e-18
6.05204e-19
2.36891e-20
1.50692e-22
3.23964e-25
4.46191e-28
4.51702e-31
3.38452e-34
1.91917e-37
8.21333e-41
2.66496e-44
6.62878e-48
1.22567e-51
1.68515e-55
1.67474e-59
1.17548e-63
5.65454e-68
1.75446e-72
3.2804e-77
3.2245e-82
1.37166e-87
2.27794e-93
-1.23894e-97
-2.66924e-100
-6.40932e-104
-3.37222e-108
3.6852e-16
2.06424e-16
1.12782e-16
6.1056e-17
3.35814e-17
1.91216e-17
1.16197e-17
8.38731e-18
7.36714e-18
6.70591e-18
5.24926e-18
2.42165e-18
3.60013e-19
9.58155e-21
4.4827e-23
8.51124e-26
1.08463e-28
1.01999e-31
7.10708e-35
3.75024e-38
1.49284e-41
4.50083e-45
1.03566e-48
1.7606e-52
2.20778e-56
1.97954e-60
1.23523e-64
5.17344e-69
1.35279e-73
1.99587e-78
1.39661e-83
3.93121e-89
6.35698e-95
-7.08913e-99
-1.31645e-101
-3.27676e-105
-1.73846e-109
3.47988e-16
1.87876e-16
9.91878e-17
5.23083e-17
2.83625e-17
1.61427e-17
1.01539e-17
7.89785e-18
7.17792e-18
6.45035e-18
4.63363e-18
1.71284e-18
1.73608e-19
2.88567e-21
9.85336e-24
1.65019e-26
1.92078e-29
1.656e-32
1.05977e-35
5.1404e-39
1.88171e-42
5.20138e-46
1.0915e-49
1.68039e-53
1.89074e-57
1.50209e-61
8.16048e-66
2.89638e-70
6.12151e-75
6.63601e-80
3.09703e-85
7.24891e-91
1.48395e-96
-2.24201e-103
-1.6409e-103
-4.50032e-107
-2.11309e-111
3.11971e-16
1.62142e-16
8.28938e-17
4.28391e-17
2.30898e-17
1.33272e-17
8.95128e-18
7.54141e-18
6.98426e-18
6.06686e-18
3.79045e-18
1.02253e-18
6.29686e-20
6.0852e-22
1.54922e-24
2.28138e-27
2.38963e-30
1.86139e-33
1.0788e-36
4.74216e-40
1.57351e-43
3.92576e-47
7.39165e-51
1.01299e-54
1.00407e-58
6.92427e-63
3.19262e-67
9.24971e-72
1.47991e-76
1.10131e-81
3.83588e-87
1.0312e-92
2.51674e-98
1.87441e-104
-1.088e-105
-3.26166e-109
-1.3127e-113
2.63346e-16
1.31898e-16
6.55516e-17
3.34681e-17
1.8139e-17
1.09055e-17
8.09138e-18
7.28235e-18
6.74653e-18
5.45973e-18
2.73333e-18
4.75212e-19
1.56091e-20
8.5132e-23
1.68302e-25
2.1621e-28
2.00435e-31
1.38803e-34
7.16949e-38
2.80978e-41
8.30892e-45
1.83826e-48
3.04901e-52
3.64848e-56
3.11972e-60
1.82128e-64
6.88178e-69
1.54754e-73
1.7447e-78
9.21955e-84
3.28139e-89
1.05634e-94
2.73334e-100
4.87664e-106
-4.67936e-108
-1.50668e-111
-5.11933e-116
2.07776e-16
1.00359e-16
4.88055e-17
2.49157e-17
1.38622e-17
9.08507e-18
7.56065e-18
7.06387e-18
6.38072e-18
4.50945e-18
1.60141e-18
1.52849e-19
2.35989e-21
7.58147e-24
1.20772e-26
1.33533e-29
1.07592e-32
6.50755e-36
2.94163e-39
1.01085e-42
2.61211e-46
5.02391e-50
7.19352e-54
7.35726e-58
5.29542e-62
2.53282e-66
7.50441e-71
1.22722e-75
9.78208e-81
4.76005e-86
1.9784e-91
6.6518e-97
1.72489e-102
3.73791e-108
-1.40153e-110
-4.79707e-114
-1.36783e-118
1.51162e-16
7.07198e-17
3.40882e-17
1.77556e-17
1.05823e-17
7.95621e-18
7.24955e-18
6.8122e-18
5.72076e-18
3.16163e-18
6.68081e-19
2.87412e-20
1.94254e-22
4.09682e-25
5.3412e-28
4.99322e-31
3.43089e-34
1.7786e-37
6.9063e-41
2.04322e-44
4.52946e-48
7.43237e-52
9.00718e-56
7.69669e-60
4.52836e-64
1.70928e-68
3.78578e-73
4.44002e-78
3.05529e-83
1.63393e-88
7.18188e-94
2.38608e-99
6.15163e-105
1.31956e-110
-2.98816e-113
-1.08571e-116
-2.60032e-121
1.0003e-16
4.57952e-17
2.23878e-17
1.23995e-17
8.50444e-18
7.39355e-18
7.01349e-18
6.37545e-18
4.52632e-18
1.63172e-18
1.6022e-19
2.51882e-21
7.97114e-24
1.22554e-26
1.29834e-29
1.00436e-32
5.76368e-36
2.50993e-39
8.23106e-43
2.05345e-46
3.82483e-50
5.2429e-54
5.25424e-58
3.64881e-62
1.69875e-66
4.87312e-71
7.98064e-76
7.83479e-81
5.5882e-86
3.16127e-91
1.35175e-96
4.35617e-102
1.16726e-107
2.74787e-113
-4.51254e-116
-1.75412e-119
-3.54973e-124
5.90169e-17
2.7174e-17
1.41515e-17
9.0739e-18
7.51818e-18
7.10921e-18
6.69007e-18
5.42078e-18
2.71537e-18
4.79125e-19
1.57627e-20
8.19681e-23
1.49697e-25
1.75194e-28
1.47785e-31
9.24963e-35
4.33816e-38
1.55553e-41
4.21459e-45
8.67862e-49
1.32991e-52
1.48864e-56
1.20271e-60
6.60207e-65
2.37079e-69
5.18589e-74
7.108e-79
7.06334e-84
5.42692e-89
3.14672e-94
1.45914e-99
6.01041e-105
2.43045e-110
8.06942e-116
-4.16124e-119
-1.97974e-122
-3.42667e-127
3.08916e-17
1.52634e-17
9.40918e-18
7.58328e-18
7.14126e-18
6.82417e-18
5.89585e-18
3.54017e-18
8.99172e-19
4.96423e-20
4.00606e-22
8.55191e-25
1.06557e-27
9.42715e-31
6.17112e-34
3.04647e-37
1.14024e-40
3.29462e-44
7.20931e-48
1.19838e-51
1.47649e-55
1.31798e-59
8.40419e-64
3.59843e-68
1.01614e-72
1.92856e-77
2.69575e-82
3.0774e-87
2.97171e-92
2.72093e-97
2.62604e-102
2.43001e-107
1.73984e-112
7.32001e-118
-7.24682e-123
-1.50344e-125
-2.24586e-130
1.49729e-17
9.23051e-18
7.51963e-18
7.11827e-18
6.85259e-18
6.05822e-18
3.91395e-18
1.16926e-18
8.1479e-20
8.03835e-22
1.81444e-24
2.2533e-27
1.9758e-30
1.28536e-33
6.35037e-37
2.41e-40
7.03842e-44
1.59598e-47
2.74862e-51
3.59575e-55
3.48198e-59
2.44269e-63
1.23023e-67
4.31746e-72
1.13521e-76
2.40338e-81
4.60887e-86
9.04536e-91
1.76988e-95
3.2614e-100
5.15608e-105
6.12079e-110
4.84564e-115
2.1624e-120
2.70519e-126
-7.13001e-129
-9.02859e-134
8.49473e-18
7.31295e-18
7.04599e-18
6.78793e-18
5.91052e-18
3.71533e-18
1.03505e-18
6.12581e-20
4.81469e-22
9.27916e-25
1.03373e-27
8.23871e-31
4.93995e-34
2.27993e-37
8.20005e-41
2.30754e-44
5.03803e-48
8.57241e-52
1.11362e-55
1.1083e-59
8.28585e-64
4.66425e-68
2.11093e-72
8.30309e-77
3.23794e-81
1.26347e-85
4.82147e-90
1.63564e-94
4.62885e-99
1.07744e-103
1.97431e-108
2.61815e-113
2.23981e-118
1.02865e-123
4.49833e-129
-1.89787e-132
-2.01503e-137
7.05222e-18
6.91725e-18
6.50964e-18
5.24036e-18
2.62655e-18
4.19278e-19
1.00238e-20
3.34076e-23
4.08063e-26
3.10693e-29
1.634e-32
5.94996e-36
1.40315e-39
2.09491e-43
1.83591e-47
3.472e-52
1.33202e-56
1.74549e-60
2.03538e-64
1.80569e-68
1.17868e-72
5.68008e-77
2.13769e-81
8.97968e-83
1.60467e-86
9.22379e-91
4.66147e-95
1.93105e-99
6.49288e-104
1.69402e-108
3.19875e-113
3.77208e-118
2.43107e-123
3.65254e-129
1.08337e-135
-2.69867e-136
-2.3292e-141
6.56886e-18
5.48782e-18
2.80702e-18
4.34864e-19
1.02481e-20
3.98184e-23
3.5516e-26
1.07556e-29
2.27781e-33
6.92164e-37
4.41547e-40
1.62179e-43
2.28531e-47
1.78087e-51
3.51392e-55
7.92012e-59
1.65373e-62
2.80306e-66
3.61892e-70
3.54993e-74
3.01149e-78
1.80765e-82
6.98276e-87
2.11646e-91
1.49329e-95
7.68667e-100
2.53185e-104
1.25463e-108
6.80102e-113
3.46606e-117
1.19242e-121
1.5333e-126
1.27809e-131
2.58615e-137
3.19194e-143
-1.59541e-140
-1.17551e-145
5.4557e-19
4.99428e-20
2.58117e-21
1.4283e-23
5.05743e-27
2.50033e-31
2.58486e-34
2.21551e-37
4.19693e-40
3.49126e-43
1.87684e-46
7.17419e-50
2.41269e-53
7.02729e-57
1.8701e-60
4.57833e-64
9.21439e-68
1.48404e-71
1.78943e-75
1.61065e-79
1.06613e-83
5.30675e-88
2.10293e-92
7.64306e-97
3.09786e-101
1.39888e-105
5.18873e-110
2.92425e-114
7.34691e-119
1.65499e-123
3.37681e-128
4.25188e-133
3.75478e-138
8.37206e-143
1.0617e-145
-2.33987e-145
-1.28059e-150
2.81329e-17
2.32699e-17
1.90533e-17
1.54477e-17
1.23901e-17
9.96667e-18
8.40891e-18
7.26576e-18
5.527e-18
2.60365e-18
4.18304e-19
1.25031e-20
6.51638e-23
1.38597e-25
2.13515e-28
2.61546e-31
2.55537e-34
2.01817e-37
1.27326e-40
6.50001e-44
2.66333e-47
8.78275e-51
2.35707e-54
5.00203e-58
8.31874e-62
1.09433e-65
1.12672e-69
-1.23258e-70
-4.59928e-72
-6.69933e-74
-5.53705e-76
-2.74367e-78
-8.1724e-81
-1.44411e-83
-1.62133e-86
-9.71475e-90
-1.43417e-93
3.31449e-17
2.71211e-17
2.19641e-17
1.76151e-17
1.39766e-17
1.10023e-17
8.95659e-18
7.70266e-18
6.28841e-18
3.72142e-18
9.48205e-19
5.48966e-20
5.14428e-22
1.3884e-24
2.38777e-27
3.20004e-30
3.39508e-33
2.89277e-36
1.95724e-39
1.06579e-42
4.63321e-46
1.61287e-49
4.55499e-53
1.01803e-56
1.81605e-60
2.545e-64
2.78321e-68
2.33508e-72
1.08484e-76
-9.73207e-79
-1.25996e-80
-8.07912e-83
-2.88081e-85
-6.05803e-88
-9.89364e-91
-1.00628e-93
-2.78884e-97
3.90719e-17
3.16233e-17
2.53087e-17
2.00574e-17
1.57402e-17
1.22067e-17
9.6139e-18
8.09181e-18
6.83057e-18
4.68711e-18
1.68325e-18
1.68825e-19
2.87695e-21
1.06375e-23
2.0634e-26
3.01355e-29
3.45491e-32
3.16078e-35
2.28281e-38
1.31978e-41
6.06176e-45
2.21743e-48
6.55728e-52
1.52952e-55
2.83898e-59
4.12793e-63
4.67146e-67
4.08746e-71
2.69342e-75
1.31549e-79
4.36311e-84
-1.03083e-87
-9.85403e-90
-2.50484e-92
-6.1981e-95
-1.11204e-97
-6.13671e-101
4.60341e-17
3.6868e-17
2.91479e-17
2.28045e-17
1.76804e-17
1.35463e-17
1.03929e-17
8.48541e-18
7.2344e-18
5.44826e-18
2.51315e-18
3.92584e-19
1.16473e-20
6.29172e-23
1.4011e-25
2.22051e-28
2.73412e-31
2.67005e-34
2.0469e-37
1.24959e-40
6.03228e-44
2.30726e-47
7.1094e-51
1.72234e-54
3.31039e-58
4.97033e-62
5.79281e-66
5.20639e-70
3.51439e-74
1.75685e-78
6.34815e-83
1.59219e-87
2.59129e-92
4.63193e-98
-4.09458e-99
-1.49581e-101
-1.62048e-104
5.41666e-17
4.29327e-17
3.35363e-17
2.58858e-17
1.98028e-17
1.49945e-17
1.12782e-17
8.91329e-18
7.55901e-18
6.02302e-18
3.32501e-18
7.37673e-19
3.55821e-20
2.89983e-22
7.60313e-25
1.30376e-27
1.71311e-30
1.77463e-33
1.43554e-36
9.20166e-40
4.64346e-43
1.84756e-46
5.90268e-50
1.4781e-53
2.92798e-57
4.51832e-61
5.3979e-65
4.95956e-69
3.41265e-73
1.73373e-77
6.34468e-82
1.60684e-86
2.66488e-91
2.68898e-96
1.42439e-101
-1.02661e-105
-4.97642e-108
6.36536e-17
4.98938e-17
3.85131e-17
2.93233e-17
2.21117e-17
1.65325e-17
1.22418e-17
9.38666e-18
7.84119e-18
6.45363e-18
4.04621e-18
1.18088e-18
8.60019e-20
1.05453e-21
3.34484e-24
6.1976e-27
8.63339e-30
9.42455e-33
7.99424e-36
5.34844e-39
2.80542e-42
1.1552e-45
3.8065e-49
9.80344e-53
1.99179e-56
3.14404e-60
3.83183e-64
3.58164e-68
2.4996e-72
1.28366e-76
4.73064e-81
1.20125e-85
1.98704e-90
1.98823e-95
1.05969e-100
2.43619e-106
-8.70379e-130
7.47404e-17
5.7848e-17
4.41041e-17
3.31249e-17
2.46054e-17
1.8144e-17
1.32524e-17
9.90056e-18
8.10147e-18
6.78094e-18
4.64862e-18
1.67753e-18
1.71997e-19
3.08534e-21
1.20904e-23
2.42019e-26
3.55046e-29
4.05625e-32
3.58421e-35
2.4872e-38
1.34791e-41
5.71345e-45
1.93093e-48
5.08722e-52
1.05464e-55
1.69429e-59
2.09601e-63
1.98289e-67
1.39609e-71
7.20666e-76
2.65835e-80
6.72367e-85
1.10128e-89
1.08379e-94
5.63902e-100
1.25864e-105
6.57058e-112
8.77145e-17
6.69177e-17
5.0331e-17
3.72805e-17
2.72705e-17
1.98102e-17
1.42788e-17
1.04373e-17
8.34831e-18
7.03532e-18
5.13365e-18
2.181e-18
2.95889e-19
7.44856e-21
3.63982e-23
7.87311e-26
1.20817e-28
1.43418e-31
1.31105e-34
9.37394e-38
5.21533e-41
2.26199e-44
7.79581e-48
2.08918e-51
4.39479e-55
7.14639e-59
8.92473e-63
8.4978e-67
6.00115e-71
3.09483e-75
1.13518e-79
2.83943e-84
4.56887e-89
4.38336e-94
2.20426e-99
4.70833e-105
2.39968e-111
1.02878e-16
7.72342e-17
5.7213e-17
4.17628e-17
3.00771e-17
2.1505e-17
1.5289e-17
1.09697e-17
8.57954e-18
7.23548e-18
5.51618e-18
2.65589e-18
4.52147e-19
1.52502e-20
9.25957e-23
2.16337e-25
3.44931e-28
4.22331e-31
3.96561e-34
2.90141e-37
1.64622e-40
7.25922e-44
2.53583e-47
6.87111e-51
1.45795e-54
2.38543e-58
2.98924e-62
2.84702e-66
2.00372e-70
1.02533e-74
3.71247e-79
9.11068e-84
1.42758e-88
1.3221e-93
6.35297e-99
1.2805e-104
6.07255e-111
1.20517e-16
8.8907e-17
6.47531e-17
4.65249e-17
3.29752e-17
2.31904e-17
1.62479e-17
1.1464e-17
8.78299e-18
7.39004e-18
5.814e-18
3.08169e-18
6.29821e-19
2.71903e-20
2.02188e-22
5.09124e-25
8.37813e-28
1.05037e-30
1.00584e-33
7.47818e-37
4.2978e-40
1.91412e-43
6.73441e-47
1.83342e-50
3.89931e-54
6.37828e-58
7.96771e-62
7.53912e-66
5.25025e-70
2.64563e-74
9.379e-79
2.23821e-83
3.38163e-88
2.98924e-93
1.35453e-98
2.53578e-104
1.0869e-110
1.40853e-16
1.01995e-16
7.29177e-17
5.14924e-17
3.58918e-17
2.48132e-17
1.71146e-17
1.18842e-17
8.93959e-18
7.50096e-18
6.04311e-18
3.45066e-18
8.16297e-19
4.32324e-20
3.8518e-22
1.04035e-24
1.75523e-27
2.23721e-30
2.1695e-33
1.62777e-36
9.41174e-40
4.20551e-43
1.4806e-46
4.0238e-50
8.52154e-54
1.38421e-57
1.71172e-61
1.59734e-65
1.0922e-69
5.37496e-74
1.84898e-78
4.24861e-83
6.12117e-88
5.09844e-93
2.14499e-98
3.6362e-104
1.36545e-110
1.63942e-16
1.16467e-16
8.1614e-17
5.65524e-17
3.87264e-17
2.63036e-17
1.78441e-17
1.21988e-17
9.03404e-18
7.56941e-18
6.21675e-18
3.76335e-18
1.00037e-18
6.25782e-20
6.50974e-22
1.87162e-24
3.21552e-27
4.13782e-30
4.03531e-33
3.03468e-36
1.75345e-39
7.80873e-43
2.73321e-46
7.36659e-50
1.54313e-53
2.47202e-57
3.00426e-61
2.74386e-65
1.82708e-69
8.70372e-74
2.87725e-78
6.29706e-83
8.54289e-88
6.60529e-93
2.53313e-98
3.77808e-104
1.18902e-110
1.896e-16
1.32144e-16
9.06674e-17
6.1544e-17
4.13512e-17
2.7579e-17
1.8394e-17
1.23917e-17
9.07052e-18
7.60083e-18
6.34494e-18
4.02355e-18
1.17362e-18
8.39398e-20
9.92907e-22
3.00915e-24
5.22813e-27
6.74561e-30
6.57023e-33
4.91863e-36
2.82092e-39
1.24368e-42
4.29962e-46
1.14167e-49
2.34954e-53
3.68582e-57
4.36966e-61
3.8753e-65
2.49132e-69
1.13787e-73
3.57627e-78
7.36723e-83
9.28131e-88
6.5478e-93
2.22313e-98
2.83158e-104
6.80306e-111
2.17417e-16
1.48651e-16
9.9791e-17
6.6251e-17
4.36166e-17
2.85558e-17
1.87392e-17
1.24744e-17
9.07502e-18
7.60693e-18
6.43278e-18
4.23136e-18
1.32836e-18
1.05684e-19
1.38681e-21
4.38443e-24
7.65498e-27
9.84159e-30
9.51231e-33
7.04268e-36
3.98277e-39
1.72683e-42
5.858e-46
1.52218e-49
3.05597e-53
4.65937e-57
5.34507e-61
4.56277e-65
2.80655e-69
1.21728e-73
3.59864e-78
6.88814e-83
7.92987e-88
4.99817e-93
1.45665e-98
1.5196e-104
2.10438e-111
2.46779e-16
1.65393e-16
1.08561e-16
7.04032e-17
4.53713e-17
2.91778e-17
1.88935e-17
1.24898e-17
9.04021e-18
7.59383e-18
6.47954e-18
4.37428e-18
1.44839e-18
1.24605e-19
1.76626e-21
5.76097e-24
1.00644e-26
1.2844e-29
1.22689e-32
8.9441e-36
4.96413e-39
2.10605e-42
6.97306e-46
1.76267e-49
3.43139e-53
5.0534e-57
5.57288e-61
4.54636e-65
2.65213e-69
1.08091e-73
2.9685e-78
5.20167e-83
5.37062e-88
2.92711e-93
7.06578e-99
5.69327e-105
-2.09354e-110
2.76769e-16
1.81551e-16
1.16415e-16
7.3702e-17
4.65093e-17
2.9461e-17
1.89248e-17
1.2404e-17
8.9533e-18
7.55473e-18
6.48841e-18
4.43466e-18
1.50591e-18
1.34455e-19
1.97609e-21
6.53106e-24
1.13758e-26
1.43984e-29
1.35926e-32
9.76225e-36
5.32199e-39
2.21124e-42
7.14985e-46
1.75841e-49
3.31452e-53
4.70012e-57
4.95904e-61
3.8416e-65
2.10928e-69
8.00345e-74
2.01794e-78
3.18705e-83
2.88608e-88
1.31548e-93
2.49515e-99
1.43561e-105
-7.77021e-110
3.0598e-16
1.96074e-16
1.22725e-16
7.59075e-17
4.7047e-17
2.95223e-17
1.87462e-17
1.21642e-17
8.80022e-18
7.48831e-18
6.46889e-18
4.4351e-18
1.50714e-18
1.34322e-19
1.96156e-21
6.41909e-24
1.10487e-26
1.37758e-29
1.27734e-32
8.99008e-36
4.79339e-39
1.94411e-42
6.12352e-46
1.46204e-49
2.66412e-53
3.63226e-57
3.65961e-61
2.68442e-65
1.38111e-69
4.84596e-74
1.11034e-78
1.55612e-83
1.19838e-88
4.39138e-94
6.08212e-100
2.25412e-106
-8.92016e-110
3.32392e-16
2.07758e-16
1.26974e-16
7.69955e-17
4.71758e-17
2.91994e-17
1.82583e-17
1.17424e-17
8.58491e-18
7.39905e-18
6.41524e-18
4.36887e-18
1.44972e-18
1.23626e-19
1.70777e-21
5.37811e-24
9.03826e-27
1.10014e-29
9.93836e-33
6.80513e-36
3.52624e-39
1.38861e-42
4.24065e-46
9.78749e-50
1.71711e-53
2.24187e-57
2.14783e-61
1.4847e-65
7.11585e-70
2.2902e-74
4.71246e-79
5.74832e-84
3.64075e-89
1.00962e-94
9.36894e-101
2.22071e-107
-7.44023e-110
3.53586e-16
2.15582e-16
1.29084e-16
7.72814e-17
4.65932e-17
2.8315e-17
1.74177e-17
1.11604e-17
8.3307e-18
7.29366e-18
6.32288e-18
4.21066e-18
1.31887e-18
1.02198e-19
1.26548e-21
3.73585e-24
6.07029e-27
7.15901e-30
6.25609e-33
4.13927e-36
2.07063e-39
7.86734e-43
2.31338e-46
5.12467e-50
8.59193e-54
1.06582e-57
9.62913e-62
6.21622e-66
2.74619e-70
8.00117e-75
1.45196e-79
1.48944e-84
7.40153e-90
1.43045e-95
9.13435e-102
-1.46943e-106
-4.4791e-110
3.67536e-16
2.19365e-16
1.29643e-16
7.62698e-17
4.49931e-17
2.67933e-17
1.62434e-17
1.04646e-17
8.06295e-18
7.17546e-18
6.18239e-18
3.94714e-18
1.12006e-18
7.42403e-20
7.77518e-22
2.09949e-24
3.26363e-27
3.69589e-30
3.09792e-33
1.96468e-36
9.41325e-40
3.42376e-43
9.61185e-47
2.02517e-50
3.21325e-54
3.74738e-58
3.1561e-62
1.87817e-66
7.53112e-71
1.948e-75
3.03351e-80
2.49923e-85
9.0076e-91
1.12936e-96
7.15173e-103
-1.59648e-106
-1.70995e-110
3.74021e-16
2.20295e-16
1.27842e-16
7.33757e-17
4.22251e-17
2.46591e-17
1.48062e-17
9.72265e-18
7.80563e-18
7.04413e-18
5.97744e-18
3.56489e-18
8.71931e-19
4.61577e-20
3.86204e-22
9.35883e-25
1.37697e-27
1.48254e-30
1.18102e-33
7.11734e-37
3.23871e-40
1.11816e-43
2.97037e-47
5.89572e-51
8.76076e-55
9.4955e-59
7.35807e-63
3.97384e-67
1.41867e-71
3.17525e-76
4.04692e-81
2.50708e-86
5.99672e-92
5.90226e-98
5.04264e-104
-3.88851e-107
-3.43258e-111
3.75468e-16
2.16828e-16
1.22437e-16
6.82666e-17
3.83338e-17
2.20357e-17
1.32188e-17
9.00862e-18
7.57304e-18
6.893e-18
5.68006e-18
3.05378e-18
6.05194e-19
2.36882e-20
1.50683e-22
3.23942e-25
4.4616e-28
4.51668e-31
3.38425e-34
1.91902e-37
8.21265e-41
2.66473e-44
6.6282e-48
1.22554e-51
1.68494e-55
1.67455e-59
1.17535e-63
5.65383e-68
1.75418e-72
3.27986e-77
3.22394e-82
1.37138e-87
2.27763e-93
2.62478e-99
2.84542e-105
-2.81837e-108
-2.42486e-112
3.6852e-16
2.06424e-16
1.12782e-16
6.1056e-17
3.35814e-17
1.91216e-17
1.16197e-17
8.38731e-18
7.36715e-18
6.70592e-18
5.24926e-18
2.42165e-18
3.60012e-19
9.58144e-21
4.48261e-23
8.51102e-26
1.0846e-28
1.01996e-31
7.10684e-35
3.75011e-38
1.49279e-41
4.50066e-45
1.03562e-48
1.76051e-52
2.20762e-56
1.97942e-60
1.23516e-64
5.17307e-69
1.35266e-73
1.99566e-78
1.39647e-83
3.93072e-89
6.35672e-95
9.71986e-101
1.23051e-106
-2.6904e-110
-2.56818e-114
3.47988e-16
1.87876e-16
9.91878e-17
5.23083e-17
2.83625e-17
1.61427e-17
1.0154e-17
7.89786e-18
7.17793e-18
6.45036e-18
4.63365e-18
1.71286e-18
1.73611e-19
2.88572e-21
9.85356e-24
1.65021e-26
1.92081e-29
1.65603e-32
1.05978e-35
5.14047e-39
1.88174e-42
5.20148e-46
1.09152e-49
1.68041e-53
1.89072e-57
1.5021e-61
8.16058e-66
2.8964e-70
6.12136e-75
6.63601e-80
3.09711e-85
7.24904e-91
1.48401e-96
2.67002e-102
3.83469e-108
-1.11746e-114
-1.45508e-116
3.11971e-16
1.62142e-16
8.28938e-17
4.28391e-17
2.30898e-17
1.33272e-17
8.95128e-18
7.54142e-18
6.98427e-18
6.06688e-18
3.79048e-18
1.02255e-18
6.2971e-20
6.08552e-22
1.54931e-24
2.28151e-27
2.38976e-30
1.8615e-33
1.07887e-36
4.74247e-40
1.57362e-43
3.92605e-47
7.39224e-51
1.01306e-54
1.00413e-58
6.92479e-63
3.19291e-67
9.25056e-72
1.48005e-76
1.10147e-81
3.83661e-87
1.03139e-92
2.51696e-98
4.83925e-104
7.27396e-110
1.35526e-116
-5.00965e-119
2.63346e-16
1.31898e-16
6.55515e-17
3.34681e-17
1.8139e-17
1.09055e-17
8.09138e-18
7.28235e-18
6.74654e-18
5.45976e-18
2.73337e-18
4.75228e-19
1.56101e-20
8.51387e-23
1.68317e-25
2.16229e-28
2.00453e-31
1.38816e-34
7.17021e-38
2.81008e-41
8.30985e-45
1.83848e-48
3.04941e-52
3.64896e-56
3.12007e-60
1.82154e-64
6.88294e-69
1.54783e-73
1.74509e-78
9.22252e-84
3.28262e-89
1.05674e-94
2.73396e-100
5.41284e-106
8.35421e-112
4.47646e-118
-8.86371e-122
2.07776e-16
1.00359e-16
4.88055e-17
2.49157e-17
1.38622e-17
9.08507e-18
7.56066e-18
7.06387e-18
6.38073e-18
4.50949e-18
1.60145e-18
1.52857e-19
2.36008e-21
7.58219e-24
1.20784e-26
1.33547e-29
1.07604e-32
6.50829e-36
2.94199e-39
1.01099e-42
2.61247e-46
5.02468e-50
7.19472e-54
7.35851e-58
5.29624e-62
2.53331e-66
7.50618e-71
1.22759e-75
9.78565e-81
4.76244e-86
1.97943e-91
6.65521e-97
1.72542e-102
3.50927e-108
5.61639e-114
4.80971e-120
-2.11914e-126
1.51162e-16
7.07198e-17
3.40882e-17
1.77556e-17
1.05823e-17
7.95622e-18
7.24955e-18
6.8122e-18
5.72078e-18
3.16167e-18
6.68104e-19
2.87431e-20
1.94272e-22
4.09722e-25
5.34175e-28
4.99376e-31
3.43128e-34
1.77882e-37
6.9072e-41
2.04351e-44
4.53015e-48
7.43363e-52
9.00887e-56
7.69821e-60
4.52919e-64
1.70968e-68
3.78691e-73
4.44188e-78
3.05683e-83
1.63502e-88
7.18679e-94
2.38774e-99
6.15411e-105
1.30972e-110
2.18888e-116
2.07897e-122
-4.64068e-130
1.0003e-16
4.57952e-17
2.23878e-17
1.23995e-17
8.50445e-18
7.39355e-18
7.0135e-18
6.37545e-18
4.52635e-18
1.63175e-18
1.60227e-19
2.51899e-21
7.97181e-24
1.22565e-26
1.29846e-29
1.00446e-32
5.76429e-36
2.51021e-39
8.23207e-43
2.05373e-46
3.8254e-50
5.2438e-54
5.25527e-58
3.6496e-62
1.69909e-66
4.87452e-71
7.98391e-76
7.83917e-81
5.59172e-86
3.1639e-91
1.35291e-96
4.36005e-102
1.16789e-107
2.71771e-113
4.94043e-119
5.34857e-125
8.24279e-132
5.90169e-17
2.7174e-17
1.41515e-17
9.0739e-18
7.51818e-18
7.10921e-18
6.69007e-18
5.42078e-18
2.71539e-18
4.79134e-19
1.57633e-20
8.19725e-23
1.49706e-25