/*--------------------------------*- C++ -*----------------------------------*\
| =========                 |                                                 |
| \\      /  F ield         | OpenFOAM: The Open Source CFD Toolbox           |
|  \\    /   O peration     | Version:  v2012                                 |
|   \\  /    A nd           | Website:  www.openfoam.com                      |
|    \\/     M anipulation  |                                                 |
\*---------------------------------------------------------------------------*/
FoamFile
{
    version     2.0;
    format      ascii;
    class       volScalarField;
    location    "0.35";
    object      p_rgh;
}
// * * * * * * * * * * * * * * * * * * * * * * * * * * * * * * * * * * * * * //

dimensions      [1 -1 -2 0 0 0 0];


internalField   nonuniform List<scalar> 
20000
(
3.49944e+06
3.50014e+06
3.50017e+06
3.49989e+06
3.49849e+06
3.49853e+06
3.49868e+06
3.49881e+06
3.49781e+06
3.49385e+06
3.49485e+06
3.49606e+06
3.49796e+06
3.50041e+06
3.49994e+06
3.50047e+06
3.50075e+06
3.50104e+06
3.50121e+06
3.5013e+06
3.50134e+06
3.50134e+06
3.50131e+06
3.50127e+06
3.50122e+06
3.50115e+06
3.50108e+06
3.501e+06
3.50092e+06
3.50083e+06
3.50073e+06
3.50063e+06
3.50053e+06
3.50042e+06
3.50031e+06
3.50019e+06
3.50006e+06
3.49992e+06
3.49975e+06
3.49957e+06
3.49906e+06
3.49903e+06
3.4998e+06
3.49986e+06
3.49988e+06
3.49989e+06
3.49989e+06
3.49989e+06
3.49989e+06
3.49989e+06
3.49989e+06
3.49989e+06
3.49989e+06
3.49989e+06
3.49989e+06
3.49988e+06
3.49988e+06
3.49988e+06
3.49988e+06
3.49988e+06
3.49859e+06
3.50046e+06
3.4986e+06
3.50069e+06
3.50036e+06
3.50178e+06
3.50129e+06
3.50219e+06
3.5025e+06
3.50019e+06
3.49864e+06
3.50242e+06
3.50787e+06
3.50708e+06
3.50468e+06
3.50289e+06
3.50188e+06
3.5012e+06
3.50081e+06
3.50055e+06
3.50041e+06
3.50033e+06
3.50028e+06
3.50026e+06
3.50025e+06
3.50025e+06
3.50025e+06
3.50024e+06
3.50023e+06
3.50021e+06
3.50019e+06
3.50015e+06
3.5001e+06
3.50004e+06
3.49997e+06
3.49989e+06
3.49979e+06
3.49967e+06
3.49951e+06
3.49936e+06
3.49892e+06
3.49906e+06
3.49956e+06
3.49961e+06
3.49965e+06
3.49966e+06
3.49966e+06
3.49967e+06
3.49967e+06
3.49967e+06
3.49967e+06
3.49967e+06
3.49967e+06
3.49967e+06
3.49966e+06
3.49966e+06
3.49965e+06
3.49965e+06
3.49964e+06
3.49964e+06
3.49771e+06
3.49997e+06
3.49802e+06
3.49973e+06
3.49864e+06
3.49962e+06
3.49929e+06
3.49969e+06
3.49981e+06
3.4975e+06
3.49511e+06
3.50025e+06
3.50707e+06
3.5056e+06
3.50436e+06
3.50299e+06
3.50229e+06
3.50173e+06
3.50136e+06
3.50107e+06
3.50085e+06
3.50068e+06
3.50055e+06
3.50044e+06
3.50035e+06
3.50027e+06
3.5002e+06
3.50014e+06
3.50008e+06
3.50002e+06
3.49996e+06
3.4999e+06
3.49984e+06
3.49977e+06
3.4997e+06
3.49962e+06
3.49953e+06
3.49943e+06
3.4993e+06
3.4992e+06
3.49895e+06
3.49902e+06
3.49931e+06
3.49936e+06
3.49941e+06
3.49942e+06
3.49943e+06
3.49944e+06
3.49945e+06
3.49945e+06
3.49945e+06
3.49945e+06
3.49945e+06
3.49944e+06
3.49944e+06
3.49943e+06
3.49943e+06
3.49942e+06
3.49941e+06
3.4994e+06
3.49714e+06
3.49962e+06
3.49743e+06
3.49943e+06
3.49854e+06
3.49953e+06
3.49938e+06
3.49993e+06
3.50077e+06
3.49964e+06
3.49974e+06
3.50329e+06
3.50819e+06
3.50771e+06
3.50578e+06
3.5041e+06
3.50296e+06
3.50207e+06
3.50147e+06
3.50102e+06
3.50071e+06
3.50049e+06
3.50032e+06
3.5002e+06
3.5001e+06
3.50002e+06
3.49995e+06
3.49989e+06
3.49983e+06
3.49977e+06
3.49971e+06
3.49965e+06
3.49959e+06
3.49952e+06
3.49945e+06
3.49937e+06
3.49929e+06
3.4992e+06
3.49909e+06
3.499e+06
3.49884e+06
3.49888e+06
3.49908e+06
3.49912e+06
3.49917e+06
3.49919e+06
3.49921e+06
3.49922e+06
3.49922e+06
3.49923e+06
3.49923e+06
3.49923e+06
3.49923e+06
3.49922e+06
3.49922e+06
3.49921e+06
3.4992e+06
3.49919e+06
3.49918e+06
3.49917e+06
3.49617e+06
3.49831e+06
3.49668e+06
3.49821e+06
3.49765e+06
3.49816e+06
3.49832e+06
3.49827e+06
3.49921e+06
3.49826e+06
3.49858e+06
3.50253e+06
3.50764e+06
3.50696e+06
3.50545e+06
3.50398e+06
3.50299e+06
3.50216e+06
3.50157e+06
3.5011e+06
3.50075e+06
3.50047e+06
3.50026e+06
3.50009e+06
3.49996e+06
3.49985e+06
3.49976e+06
3.49968e+06
3.4996e+06
3.49953e+06
3.49947e+06
3.4994e+06
3.49934e+06
3.49927e+06
3.4992e+06
3.49913e+06
3.49905e+06
3.49897e+06
3.49887e+06
3.4988e+06
3.49869e+06
3.49871e+06
3.49885e+06
3.4989e+06
3.49894e+06
3.49896e+06
3.49898e+06
3.49899e+06
3.499e+06
3.499e+06
3.49901e+06
3.49901e+06
3.49901e+06
3.499e+06
3.499e+06
3.49899e+06
3.49898e+06
3.49896e+06
3.49895e+06
3.49893e+06
3.49616e+06
3.49675e+06
3.4964e+06
3.49716e+06
3.49737e+06
3.49739e+06
3.49807e+06
3.49779e+06
3.49922e+06
3.49888e+06
3.5001e+06
3.50367e+06
3.5081e+06
3.50736e+06
3.50576e+06
3.50426e+06
3.50317e+06
3.50226e+06
3.50159e+06
3.50106e+06
3.50066e+06
3.50035e+06
3.50011e+06
3.49992e+06
3.49977e+06
3.49965e+06
3.49954e+06
3.49945e+06
3.49937e+06
3.4993e+06
3.49922e+06
3.49916e+06
3.49909e+06
3.49902e+06
3.49896e+06
3.49889e+06
3.49881e+06
3.49874e+06
3.49866e+06
3.4986e+06
3.49852e+06
3.49854e+06
3.49863e+06
3.49867e+06
3.49871e+06
3.49874e+06
3.49876e+06
3.49877e+06
3.49878e+06
3.49878e+06
3.49879e+06
3.49879e+06
3.49879e+06
3.49878e+06
3.49878e+06
3.49876e+06
3.49875e+06
3.49874e+06
3.49872e+06
3.49869e+06
3.49643e+06
3.49473e+06
3.49635e+06
3.49571e+06
3.497e+06
3.49633e+06
3.49757e+06
3.49681e+06
3.49842e+06
3.49815e+06
3.49977e+06
3.50327e+06
3.50741e+06
3.50665e+06
3.50529e+06
3.50395e+06
3.50297e+06
3.50212e+06
3.50148e+06
3.50095e+06
3.50055e+06
3.50022e+06
3.49996e+06
3.49976e+06
3.49959e+06
3.49945e+06
3.49933e+06
3.49923e+06
3.49914e+06
3.49906e+06
3.49898e+06
3.49891e+06
3.49884e+06
3.49878e+06
3.49871e+06
3.49865e+06
3.49858e+06
3.49851e+06
3.49844e+06
3.49839e+06
3.49834e+06
3.49835e+06
3.49842e+06
3.49845e+06
3.49849e+06
3.49851e+06
3.49853e+06
3.49855e+06
3.49856e+06
3.49856e+06
3.49857e+06
3.49857e+06
3.49857e+06
3.49856e+06
3.49855e+06
3.49854e+06
3.49853e+06
3.49851e+06
3.49849e+06
3.49846e+06
3.49741e+06
3.49249e+06
3.49673e+06
3.49435e+06
3.49692e+06
3.49554e+06
3.49731e+06
3.4963e+06
3.49815e+06
3.49812e+06
3.5002e+06
3.50347e+06
3.50716e+06
3.50633e+06
3.50505e+06
3.50377e+06
3.50282e+06
3.50198e+06
3.50133e+06
3.5008e+06
3.50039e+06
3.50005e+06
3.49978e+06
3.49956e+06
3.49939e+06
3.49924e+06
3.49911e+06
3.499e+06
3.4989e+06
3.49882e+06
3.49874e+06
3.49867e+06
3.4986e+06
3.49853e+06
3.49847e+06
3.49841e+06
3.49834e+06
3.49829e+06
3.49823e+06
3.49819e+06
3.49815e+06
3.49815e+06
3.4982e+06
3.49823e+06
3.49826e+06
3.49829e+06
3.49831e+06
3.49832e+06
3.49833e+06
3.49834e+06
3.49835e+06
3.49835e+06
3.49835e+06
3.49834e+06
3.49833e+06
3.49832e+06
3.4983e+06
3.49828e+06
3.49826e+06
3.49822e+06
3.4984e+06
3.49029e+06
3.49739e+06
3.49297e+06
3.49678e+06
3.4947e+06
3.49682e+06
3.49562e+06
3.49745e+06
3.49753e+06
3.49991e+06
3.50301e+06
3.50634e+06
3.50553e+06
3.50444e+06
3.50331e+06
3.50246e+06
3.5017e+06
3.5011e+06
3.50059e+06
3.50019e+06
3.49985e+06
3.49958e+06
3.49936e+06
3.49917e+06
3.49902e+06
3.49889e+06
3.49877e+06
3.49867e+06
3.49858e+06
3.4985e+06
3.49842e+06
3.49835e+06
3.49829e+06
3.49823e+06
3.49817e+06
3.49811e+06
3.49806e+06
3.49801e+06
3.49797e+06
3.49794e+06
3.49795e+06
3.49798e+06
3.49801e+06
3.49804e+06
3.49807e+06
3.49809e+06
3.4981e+06
3.49811e+06
3.49812e+06
3.49813e+06
3.49813e+06
3.49813e+06
3.49812e+06
3.49811e+06
3.4981e+06
3.49808e+06
3.49805e+06
3.49803e+06
3.49799e+06
3.49962e+06
3.48832e+06
3.49813e+06
3.49183e+06
3.49659e+06
3.49398e+06
3.49612e+06
3.49502e+06
3.49668e+06
3.49706e+06
3.49969e+06
3.50266e+06
3.50562e+06
3.50484e+06
3.50389e+06
3.50288e+06
3.5021e+06
3.5014e+06
3.50083e+06
3.50035e+06
3.49996e+06
3.49963e+06
3.49937e+06
3.49914e+06
3.49895e+06
3.49879e+06
3.49865e+06
3.49853e+06
3.49843e+06
3.49834e+06
3.49825e+06
3.49818e+06
3.49811e+06
3.49804e+06
3.49798e+06
3.49793e+06
3.49788e+06
3.49783e+06
3.49779e+06
3.49776e+06
3.49774e+06
3.49774e+06
3.49777e+06
3.49779e+06
3.49782e+06
3.49784e+06
3.49786e+06
3.49788e+06
3.49789e+06
3.4979e+06
3.49791e+06
3.49791e+06
3.49791e+06
3.4979e+06
3.49789e+06
3.49788e+06
3.49785e+06
3.49783e+06
3.4978e+06
3.49775e+06
3.50022e+06
3.48706e+06
3.49853e+06
3.49092e+06
3.49608e+06
3.49325e+06
3.49495e+06
3.49418e+06
3.49543e+06
3.49623e+06
3.49903e+06
3.50196e+06
3.5046e+06
3.50393e+06
3.50317e+06
3.50231e+06
3.50164e+06
3.50102e+06
3.50051e+06
3.50007e+06
3.4997e+06
3.49939e+06
3.49913e+06
3.49891e+06
3.49872e+06
3.49856e+06
3.49842e+06
3.49829e+06
3.49819e+06
3.49809e+06
3.49801e+06
3.49793e+06
3.49786e+06
3.4978e+06
3.49774e+06
3.49769e+06
3.49764e+06
3.4976e+06
3.49756e+06
3.49754e+06
3.49752e+06
3.49753e+06
3.49755e+06
3.49757e+06
3.4976e+06
3.49762e+06
3.49764e+06
3.49766e+06
3.49768e+06
3.49769e+06
3.49769e+06
3.49769e+06
3.49769e+06
3.49768e+06
3.49767e+06
3.49765e+06
3.49763e+06
3.4976e+06
3.49757e+06
3.49752e+06
3.49982e+06
3.48655e+06
3.4981e+06
3.49032e+06
3.49512e+06
3.49251e+06
3.49327e+06
3.49315e+06
3.4938e+06
3.49529e+06
3.4982e+06
3.5012e+06
3.50355e+06
3.50305e+06
3.50245e+06
3.50173e+06
3.50117e+06
3.50063e+06
3.50017e+06
3.49977e+06
3.49943e+06
3.49913e+06
3.49888e+06
3.49867e+06
3.49848e+06
3.49832e+06
3.49818e+06
3.49805e+06
3.49794e+06
3.49784e+06
3.49776e+06
3.49768e+06
3.49761e+06
3.49755e+06
3.4975e+06
3.49745e+06
3.49741e+06
3.49737e+06
3.49734e+06
3.49732e+06
3.49731e+06
3.49731e+06
3.49733e+06
3.49735e+06
3.49738e+06
3.4974e+06
3.49742e+06
3.49744e+06
3.49746e+06
3.49747e+06
3.49747e+06
3.49748e+06
3.49747e+06
3.49747e+06
3.49745e+06
3.49743e+06
3.49741e+06
3.49738e+06
3.49734e+06
3.49729e+06
3.49769e+06
3.48708e+06
3.4965e+06
3.49e+06
3.49349e+06
3.49169e+06
3.49103e+06
3.49182e+06
3.49169e+06
3.49407e+06
3.49703e+06
3.50023e+06
3.50235e+06
3.50208e+06
3.50165e+06
3.50111e+06
3.50065e+06
3.5002e+06
3.49981e+06
3.49945e+06
3.49914e+06
3.49886e+06
3.49862e+06
3.49842e+06
3.49823e+06
3.49807e+06
3.49793e+06
3.4978e+06
3.49769e+06
3.4976e+06
3.49751e+06
3.49743e+06
3.49737e+06
3.49731e+06
3.49725e+06
3.49721e+06
3.49717e+06
3.49714e+06
3.49711e+06
3.4971e+06
3.49709e+06
3.4971e+06
3.49711e+06
3.49713e+06
3.49716e+06
3.49718e+06
3.4972e+06
3.49722e+06
3.49724e+06
3.49725e+06
3.49726e+06
3.49726e+06
3.49726e+06
3.49725e+06
3.49723e+06
3.49721e+06
3.49719e+06
3.49715e+06
3.49711e+06
3.49705e+06
3.49403e+06
3.48846e+06
3.49357e+06
3.48996e+06
3.49118e+06
3.49079e+06
3.48838e+06
3.49023e+06
3.48926e+06
3.49272e+06
3.4957e+06
3.49921e+06
3.50114e+06
3.50114e+06
3.50087e+06
3.5005e+06
3.50015e+06
3.49978e+06
3.49944e+06
3.49913e+06
3.49884e+06
3.49859e+06
3.49836e+06
3.49816e+06
3.49798e+06
3.49782e+06
3.49768e+06
3.49755e+06
3.49744e+06
3.49734e+06
3.49726e+06
3.49718e+06
3.49712e+06
3.49706e+06
3.49701e+06
3.49697e+06
3.49693e+06
3.4969e+06
3.49688e+06
3.49687e+06
3.49687e+06
3.49688e+06
3.49689e+06
3.49691e+06
3.49694e+06
3.49696e+06
3.49699e+06
3.49701e+06
3.49702e+06
3.49703e+06
3.49704e+06
3.49704e+06
3.49704e+06
3.49703e+06
3.49702e+06
3.49699e+06
3.49696e+06
3.49693e+06
3.49688e+06
3.49682e+06
3.48907e+06
3.49082e+06
3.4896e+06
3.4902e+06
3.48834e+06
3.48975e+06
3.48556e+06
3.48843e+06
3.48668e+06
3.49126e+06
3.49424e+06
3.49812e+06
3.49992e+06
3.50021e+06
3.5001e+06
3.4999e+06
3.49965e+06
3.49936e+06
3.49908e+06
3.4988e+06
3.49855e+06
3.49831e+06
3.4981e+06
3.4979e+06
3.49772e+06
3.49757e+06
3.49742e+06
3.4973e+06
3.49719e+06
3.49709e+06
3.497e+06
3.49693e+06
3.49686e+06
3.49681e+06
3.49676e+06
3.49672e+06
3.49669e+06
3.49667e+06
3.49665e+06
3.49665e+06
3.49665e+06
3.49666e+06
3.49667e+06
3.49669e+06
3.49672e+06
3.49674e+06
3.49677e+06
3.49679e+06
3.4968e+06
3.49682e+06
3.49683e+06
3.49683e+06
3.49682e+06
3.49682e+06
3.4968e+06
3.49677e+06
3.49674e+06
3.4967e+06
3.49666e+06
3.49659e+06
3.48351e+06
3.49357e+06
3.4852e+06
3.49055e+06
3.48543e+06
3.4886e+06
3.48295e+06
3.48656e+06
3.48426e+06
3.48984e+06
3.49285e+06
3.49708e+06
3.49878e+06
3.49938e+06
3.4994e+06
3.49936e+06
3.49918e+06
3.49897e+06
3.49873e+06
3.49849e+06
3.49826e+06
3.49804e+06
3.49783e+06
3.49764e+06
3.49747e+06
3.49731e+06
3.49717e+06
3.49704e+06
3.49693e+06
3.49683e+06
3.49675e+06
3.49667e+06
3.49661e+06
3.49656e+06
3.49651e+06
3.49648e+06
3.49645e+06
3.49643e+06
3.49642e+06
3.49642e+06
3.49642e+06
3.49643e+06
3.49645e+06
3.49647e+06
3.4965e+06
3.49653e+06
3.49655e+06
3.49657e+06
3.49659e+06
3.4966e+06
3.49661e+06
3.49661e+06
3.49661e+06
3.4966e+06
3.49658e+06
3.49656e+06
3.49652e+06
3.49648e+06
3.49643e+06
3.49636e+06
3.4785e+06
3.49594e+06
3.48115e+06
3.49089e+06
3.48289e+06
3.48745e+06
3.48095e+06
3.48482e+06
3.48229e+06
3.4886e+06
3.49165e+06
3.49617e+06
3.49781e+06
3.49865e+06
3.49879e+06
3.49888e+06
3.49877e+06
3.49862e+06
3.49842e+06
3.4982e+06
3.49798e+06
3.49777e+06
3.49757e+06
3.49738e+06
3.49721e+06
3.49705e+06
3.49691e+06
3.49678e+06
3.49667e+06
3.49657e+06
3.49649e+06
3.49642e+06
3.49635e+06
3.4963e+06
3.49626e+06
3.49623e+06
3.49621e+06
3.4962e+06
3.49619e+06
3.49619e+06
3.4962e+06
3.49621e+06
3.49623e+06
3.49625e+06
3.49628e+06
3.49631e+06
3.49633e+06
3.49635e+06
3.49637e+06
3.49639e+06
3.4964e+06
3.4964e+06
3.4964e+06
3.49638e+06
3.49637e+06
3.49634e+06
3.4963e+06
3.49626e+06
3.49621e+06
3.49613e+06
3.47548e+06
3.49703e+06
3.47878e+06
3.49084e+06
3.48146e+06
3.48644e+06
3.47993e+06
3.48353e+06
3.48116e+06
3.48773e+06
3.49086e+06
3.4955e+06
3.49708e+06
3.49811e+06
3.49833e+06
3.49851e+06
3.49844e+06
3.49833e+06
3.49814e+06
3.49794e+06
3.49772e+06
3.49751e+06
3.49731e+06
3.49712e+06
3.49695e+06
3.49679e+06
3.49665e+06
3.49652e+06
3.49641e+06
3.49631e+06
3.49623e+06
3.49616e+06
3.4961e+06
3.49605e+06
3.49601e+06
3.49599e+06
3.49597e+06
3.49596e+06
3.49595e+06
3.49596e+06
3.49597e+06
3.49599e+06
3.49601e+06
3.49603e+06
3.49606e+06
3.49609e+06
3.49612e+06
3.49614e+06
3.49616e+06
3.49617e+06
3.49618e+06
3.49619e+06
3.49618e+06
3.49617e+06
3.49615e+06
3.49612e+06
3.49609e+06
3.49604e+06
3.49598e+06
3.4959e+06
3.47527e+06
3.49673e+06
3.47857e+06
3.49061e+06
3.48137e+06
3.48604e+06
3.48024e+06
3.48316e+06
3.48119e+06
3.48746e+06
3.4906e+06
3.49516e+06
3.49667e+06
3.49777e+06
3.49803e+06
3.49825e+06
3.49819e+06
3.49809e+06
3.4979e+06
3.4977e+06
3.49748e+06
3.49727e+06
3.49706e+06
3.49687e+06
3.49669e+06
3.49653e+06
3.49638e+06
3.49625e+06
3.49614e+06
3.49604e+06
3.49596e+06
3.49589e+06
3.49584e+06
3.49579e+06
3.49576e+06
3.49574e+06
3.49572e+06
3.49572e+06
3.49572e+06
3.49573e+06
3.49574e+06
3.49576e+06
3.49579e+06
3.49581e+06
3.49584e+06
3.49587e+06
3.4959e+06
3.49592e+06
3.49594e+06
3.49596e+06
3.49597e+06
3.49597e+06
3.49597e+06
3.49596e+06
3.49594e+06
3.49591e+06
3.49587e+06
3.49581e+06
3.49576e+06
3.49567e+06
3.47747e+06
3.49618e+06
3.48039e+06
3.49083e+06
3.48282e+06
3.48661e+06
3.48208e+06
3.48399e+06
3.48251e+06
3.48795e+06
3.49101e+06
3.49524e+06
3.49662e+06
3.49769e+06
3.49793e+06
3.49813e+06
3.49805e+06
3.49793e+06
3.49772e+06
3.4975e+06
3.49727e+06
3.49704e+06
3.49682e+06
3.49662e+06
3.49643e+06
3.49627e+06
3.49612e+06
3.49598e+06
3.49587e+06
3.49577e+06
3.49569e+06
3.49563e+06
3.49557e+06
3.49553e+06
3.49551e+06
3.49549e+06
3.49548e+06
3.49547e+06
3.49548e+06
3.49549e+06
3.49551e+06
3.49553e+06
3.49556e+06
3.49559e+06
3.49562e+06
3.49565e+06
3.49568e+06
3.49571e+06
3.49573e+06
3.49575e+06
3.49576e+06
3.49576e+06
3.49576e+06
3.49575e+06
3.49572e+06
3.49569e+06
3.49565e+06
3.49559e+06
3.49553e+06
3.49544e+06
3.48133e+06
3.49605e+06
3.484e+06
3.49193e+06
3.48583e+06
3.4884e+06
3.48544e+06
3.48617e+06
3.48524e+06
3.48933e+06
3.49215e+06
3.49578e+06
3.49697e+06
3.49787e+06
3.49803e+06
3.49815e+06
3.49801e+06
3.49784e+06
3.49759e+06
3.49733e+06
3.49707e+06
3.49682e+06
3.49659e+06
3.49637e+06
3.49618e+06
3.496e+06
3.49585e+06
3.49571e+06
3.4956e+06
3.4955e+06
3.49542e+06
3.49536e+06
3.49531e+06
3.49527e+06
3.49525e+06
3.49523e+06
3.49523e+06
3.49523e+06
3.49524e+06
3.49526e+06
3.49528e+06
3.49531e+06
3.49534e+06
3.49537e+06
3.49541e+06
3.49544e+06
3.49547e+06
3.4955e+06
3.49552e+06
3.49554e+06
3.49555e+06
3.49555e+06
3.49555e+06
3.49553e+06
3.49551e+06
3.49548e+06
3.49543e+06
3.49538e+06
3.49531e+06
3.49522e+06
3.48729e+06
3.49696e+06
3.48928e+06
3.49427e+06
3.49042e+06
3.49158e+06
3.49024e+06
3.48984e+06
3.48939e+06
3.49164e+06
3.49402e+06
3.49683e+06
3.49773e+06
3.49833e+06
3.49834e+06
3.49831e+06
3.49808e+06
3.49782e+06
3.4975e+06
3.4972e+06
3.4969e+06
3.49662e+06
3.49636e+06
3.49612e+06
3.49592e+06
3.49573e+06
3.49557e+06
3.49543e+06
3.49532e+06
3.49522e+06
3.49515e+06
3.49509e+06
3.49504e+06
3.49501e+06
3.49499e+06
3.49498e+06
3.49498e+06
3.49499e+06
3.495e+06
3.49503e+06
3.49505e+06
3.49508e+06
3.49512e+06
3.49515e+06
3.49519e+06
3.49522e+06
3.49525e+06
3.49528e+06
3.49531e+06
3.49533e+06
3.49534e+06
3.49534e+06
3.49534e+06
3.49532e+06
3.4953e+06
3.49527e+06
3.49522e+06
3.49516e+06
3.49509e+06
3.49499e+06
3.49471e+06
3.49958e+06
3.49609e+06
3.49804e+06
3.4965e+06
3.49615e+06
3.49625e+06
3.49494e+06
3.49472e+06
3.49476e+06
3.49657e+06
3.49834e+06
3.49885e+06
3.49904e+06
3.49885e+06
3.49861e+06
3.49823e+06
3.49786e+06
3.49746e+06
3.49709e+06
3.49674e+06
3.49642e+06
3.49613e+06
3.49588e+06
3.49565e+06
3.49546e+06
3.49529e+06
3.49515e+06
3.49504e+06
3.49494e+06
3.49487e+06
3.49481e+06
3.49477e+06
3.49474e+06
3.49473e+06
3.49472e+06
3.49473e+06
3.49474e+06
3.49476e+06
3.49479e+06
3.49482e+06
3.49486e+06
3.49489e+06
3.49493e+06
3.49497e+06
3.49501e+06
3.49504e+06
3.49507e+06
3.4951e+06
3.49512e+06
3.49513e+06
3.49513e+06
3.49513e+06
3.49511e+06
3.49509e+06
3.49505e+06
3.49501e+06
3.49494e+06
3.49487e+06
3.49477e+06
3.50339e+06
3.50374e+06
3.504e+06
3.50321e+06
3.5038e+06
3.50198e+06
3.5031e+06
3.50121e+06
3.50101e+06
3.49873e+06
3.49971e+06
3.50027e+06
3.50031e+06
3.49998e+06
3.49951e+06
3.49901e+06
3.49847e+06
3.49795e+06
3.49745e+06
3.497e+06
3.49659e+06
3.49622e+06
3.4959e+06
3.49562e+06
3.49538e+06
3.49518e+06
3.49501e+06
3.49486e+06
3.49475e+06
3.49465e+06
3.49458e+06
3.49453e+06
3.49449e+06
3.49447e+06
3.49446e+06
3.49447e+06
3.49448e+06
3.4945e+06
3.49452e+06
3.49456e+06
3.49459e+06
3.49463e+06
3.49467e+06
3.49471e+06
3.49475e+06
3.49479e+06
3.49483e+06
3.49486e+06
3.49489e+06
3.49491e+06
3.49492e+06
3.49493e+06
3.49492e+06
3.49491e+06
3.49488e+06
3.49484e+06
3.49479e+06
3.49473e+06
3.49465e+06
3.49454e+06
3.51236e+06
3.50959e+06
3.5126e+06
3.50964e+06
3.5118e+06
3.50871e+06
3.51044e+06
3.50824e+06
3.50795e+06
3.50338e+06
3.50331e+06
3.50257e+06
3.50201e+06
3.50109e+06
3.5003e+06
3.49949e+06
3.49876e+06
3.49807e+06
3.49746e+06
3.49691e+06
3.49643e+06
3.49602e+06
3.49566e+06
3.49536e+06
3.4951e+06
3.49489e+06
3.49471e+06
3.49457e+06
3.49445e+06
3.49436e+06
3.49429e+06
3.49425e+06
3.49422e+06
3.4942e+06
3.4942e+06
3.49421e+06
3.49423e+06
3.49425e+06
3.49428e+06
3.49432e+06
3.49436e+06
3.4944e+06
3.49445e+06
3.49449e+06
3.49454e+06
3.49458e+06
3.49462e+06
3.49465e+06
3.49468e+06
3.4947e+06
3.49471e+06
3.49472e+06
3.49471e+06
3.4947e+06
3.49467e+06
3.49463e+06
3.49458e+06
3.49451e+06
3.49444e+06
3.49432e+06
3.52119e+06
3.51648e+06
3.52096e+06
3.5169e+06
3.51984e+06
3.51598e+06
3.5179e+06
3.5156e+06
3.51515e+06
3.50838e+06
3.50719e+06
3.50508e+06
3.50387e+06
3.50232e+06
3.50116e+06
3.50002e+06
3.49907e+06
3.4982e+06
3.49746e+06
3.49682e+06
3.49627e+06
3.4958e+06
3.49541e+06
3.49508e+06
3.49481e+06
3.49459e+06
3.4944e+06
3.49426e+06
3.49415e+06
3.49406e+06
3.494e+06
3.49396e+06
3.49393e+06
3.49393e+06
3.49393e+06
3.49395e+06
3.49397e+06
3.494e+06
3.49404e+06
3.49408e+06
3.49413e+06
3.49418e+06
3.49423e+06
3.49427e+06
3.49432e+06
3.49436e+06
3.49441e+06
3.49444e+06
3.49447e+06
3.49449e+06
3.49451e+06
3.49451e+06
3.49451e+06
3.49449e+06
3.49447e+06
3.49443e+06
3.49437e+06
3.4943e+06
3.49422e+06
3.4941e+06
3.52888e+06
3.52407e+06
3.52842e+06
3.52434e+06
3.52726e+06
3.52339e+06
3.5252e+06
3.523e+06
3.52239e+06
3.5136e+06
3.51113e+06
3.5077e+06
3.50579e+06
3.50358e+06
3.50203e+06
3.50054e+06
3.49936e+06
3.49831e+06
3.49744e+06
3.4967e+06
3.49608e+06
3.49556e+06
3.49514e+06
3.49479e+06
3.4945e+06
3.49427e+06
3.49409e+06
3.49394e+06
3.49383e+06
3.49375e+06
3.4937e+06
3.49366e+06
3.49365e+06
3.49365e+06
3.49366e+06
3.49368e+06
3.49372e+06
3.49375e+06
3.4938e+06
3.49385e+06
3.4939e+06
3.49395e+06
3.494e+06
3.49406e+06
3.49411e+06
3.49415e+06
3.4942e+06
3.49423e+06
3.49426e+06
3.49429e+06
3.4943e+06
3.49431e+06
3.49431e+06
3.49429e+06
3.49426e+06
3.49422e+06
3.49416e+06
3.49409e+06
3.49401e+06
3.49388e+06
3.53514e+06
3.53117e+06
3.53447e+06
3.53117e+06
3.53357e+06
3.53058e+06
3.53229e+06
3.53025e+06
3.52955e+06
3.51888e+06
3.51504e+06
3.5103e+06
3.50765e+06
3.50479e+06
3.50284e+06
3.50101e+06
3.4996e+06
3.49837e+06
3.49737e+06
3.49654e+06
3.49585e+06
3.49529e+06
3.49484e+06
3.49447e+06
3.49417e+06
3.49394e+06
3.49375e+06
3.49361e+06
3.49351e+06
3.49344e+06
3.49339e+06
3.49337e+06
3.49336e+06
3.49337e+06
3.49339e+06
3.49342e+06
3.49346e+06
3.49351e+06
3.49356e+06
3.49361e+06
3.49367e+06
3.49372e+06
3.49378e+06
3.49384e+06
3.49389e+06
3.49394e+06
3.49399e+06
3.49403e+06
3.49406e+06
3.49408e+06
3.4941e+06
3.49411e+06
3.4941e+06
3.49409e+06
3.49406e+06
3.49401e+06
3.49396e+06
3.49388e+06
3.49379e+06
3.49366e+06
3.54001e+06
3.53687e+06
3.53912e+06
3.53667e+06
3.53865e+06
3.53733e+06
3.53931e+06
3.53742e+06
3.53659e+06
3.52404e+06
3.51879e+06
3.51273e+06
3.50934e+06
3.50585e+06
3.50351e+06
3.50136e+06
3.49973e+06
3.49834e+06
3.49723e+06
3.49631e+06
3.49557e+06
3.49498e+06
3.4945e+06
3.49412e+06
3.49382e+06
3.49358e+06
3.4934e+06
3.49327e+06
3.49318e+06
3.49311e+06
3.49308e+06
3.49306e+06
3.49307e+06
3.49308e+06
3.49311e+06
3.49316e+06
3.4932e+06
3.49326e+06
3.49331e+06
3.49337e+06
3.49344e+06
3.4935e+06
3.49356e+06
3.49362e+06
3.49368e+06
3.49373e+06
3.49378e+06
3.49382e+06
3.49385e+06
3.49388e+06
3.4939e+06
3.49391e+06
3.4939e+06
3.49388e+06
3.49385e+06
3.49381e+06
3.49375e+06
3.49367e+06
3.49358e+06
3.49345e+06
3.54371e+06
3.54066e+06
3.54256e+06
3.54053e+06
3.54262e+06
3.5435e+06
3.54648e+06
3.54462e+06
3.5436e+06
3.52895e+06
3.52217e+06
3.51485e+06
3.51073e+06
3.50666e+06
3.50396e+06
3.50153e+06
3.49972e+06
3.49818e+06
3.49698e+06
3.496e+06
3.49523e+06
3.4946e+06
3.49411e+06
3.49373e+06
3.49343e+06
3.4932e+06
3.49303e+06
3.49291e+06
3.49283e+06
3.49278e+06
3.49276e+06
3.49275e+06
3.49277e+06
3.4928e+06
3.49284e+06
3.49289e+06
3.49295e+06
3.49301e+06
3.49307e+06
3.49314e+06
3.49321e+06
3.49327e+06
3.49334e+06
3.4934e+06
3.49347e+06
3.49352e+06
3.49357e+06
3.49362e+06
3.49365e+06
3.49368e+06
3.4937e+06
3.49371e+06
3.4937e+06
3.49368e+06
3.49365e+06
3.49361e+06
3.49355e+06
3.49346e+06
3.49337e+06
3.49323e+06
3.5464e+06
3.54291e+06
3.545e+06
3.54308e+06
3.54581e+06
3.54908e+06
3.5535e+06
3.55186e+06
3.55013e+06
3.533e+06
3.52479e+06
3.51633e+06
3.51161e+06
3.50707e+06
3.50409e+06
3.50144e+06
3.4995e+06
3.49787e+06
3.49661e+06
3.49559e+06
3.4948e+06
3.49417e+06
3.49368e+06
3.4933e+06
3.49302e+06
3.4928e+06
3.49265e+06
3.49254e+06
3.49247e+06
3.49244e+06
3.49243e+06
3.49244e+06
3.49247e+06
3.49251e+06
3.49256e+06
3.49262e+06
3.49269e+06
3.49276e+06
3.49283e+06
3.4929e+06
3.49298e+06
3.49305e+06
3.49312e+06
3.49319e+06
3.49325e+06
3.49331e+06
3.49337e+06
3.49341e+06
3.49345e+06
3.49348e+06
3.4935e+06
3.49351e+06
3.4935e+06
3.49348e+06
3.49345e+06
3.4934e+06
3.49334e+06
3.49326e+06
3.49316e+06
3.49302e+06
3.548e+06
3.54474e+06
3.5465e+06
3.54512e+06
3.54824e+06
3.554e+06
3.55938e+06
3.55839e+06
3.5551e+06
3.53574e+06
3.52636e+06
3.51701e+06
3.51184e+06
3.50698e+06
3.50382e+06
3.50105e+06
3.49904e+06
3.49736e+06
3.49609e+06
3.49506e+06
3.49427e+06
3.49366e+06
3.49319e+06
3.49283e+06
3.49257e+06
3.49237e+06
3.49224e+06
3.49215e+06
3.49211e+06
3.49209e+06
3.4921e+06
3.49212e+06
3.49217e+06
3.49222e+06
3.49228e+06
3.49235e+06
3.49243e+06
3.49251e+06
3.49259e+06
3.49267e+06
3.49275e+06
3.49283e+06
3.4929e+06
3.49298e+06
3.49304e+06
3.49311e+06
3.49316e+06
3.49321e+06
3.49325e+06
3.49328e+06
3.4933e+06
3.49331e+06
3.49331e+06
3.49329e+06
3.49325e+06
3.49321e+06
3.49314e+06
3.49305e+06
3.49295e+06
3.49281e+06
3.54833e+06
3.54686e+06
3.54701e+06
3.54752e+06
3.54944e+06
3.55752e+06
3.5629e+06
3.56276e+06
3.55742e+06
3.53644e+06
3.52625e+06
3.5165e+06
3.51116e+06
3.50623e+06
3.50304e+06
3.50027e+06
3.49828e+06
3.49663e+06
3.49539e+06
3.4944e+06
3.49365e+06
3.49307e+06
3.49264e+06
3.49231e+06
3.49208e+06
3.49192e+06
3.49181e+06
3.49175e+06
3.49173e+06
3.49173e+06
3.49176e+06
3.4918e+06
3.49186e+06
3.49193e+06
3.49201e+06
3.49209e+06
3.49217e+06
3.49226e+06
3.49235e+06
3.49244e+06
3.49252e+06
3.49261e+06
3.49269e+06
3.49276e+06
3.49283e+06
3.4929e+06
3.49296e+06
3.49301e+06
3.49305e+06
3.49308e+06
3.4931e+06
3.49311e+06
3.49311e+06
3.49309e+06
3.49306e+06
3.49301e+06
3.49294e+06
3.49285e+06
3.49275e+06
3.4926e+06
3.54686e+06
3.54765e+06
3.54599e+06
3.54865e+06
3.54912e+06
3.55817e+06
3.56299e+06
3.56355e+06
3.55626e+06
3.53458e+06
3.52417e+06
3.51468e+06
3.50947e+06
3.50475e+06
3.5017e+06
3.49908e+06
3.4972e+06
3.49566e+06
3.4945e+06
3.4936e+06
3.49292e+06
3.4924e+06
3.49202e+06
3.49175e+06
3.49156e+06
3.49144e+06
3.49137e+06
3.49134e+06
3.49134e+06
3.49137e+06
3.49142e+06
3.49148e+06
3.49155e+06
3.49164e+06
3.49173e+06
3.49182e+06
3.49191e+06
3.49201e+06
3.49211e+06
3.4922e+06
3.4923e+06
3.49239e+06
3.49247e+06
3.49255e+06
3.49263e+06
3.4927e+06
3.49276e+06
3.49281e+06
3.49285e+06
3.49289e+06
3.49291e+06
3.49292e+06
3.49292e+06
3.4929e+06
3.49286e+06
3.49281e+06
3.49274e+06
3.49265e+06
3.49255e+06
3.49239e+06
3.54247e+06
3.5447e+06
3.5421e+06
3.54603e+06
3.54599e+06
3.55448e+06
3.55856e+06
3.55938e+06
3.55041e+06
3.52951e+06
3.51984e+06
3.51132e+06
3.50664e+06
3.50246e+06
3.49975e+06
3.49744e+06
3.49578e+06
3.49443e+06
3.49343e+06
3.49265e+06
3.49208e+06
3.49165e+06
3.49135e+06
3.49114e+06
3.49101e+06
3.49093e+06
3.4909e+06
3.49091e+06
3.49094e+06
3.491e+06
3.49107e+06
3.49115e+06
3.49125e+06
3.49134e+06
3.49145e+06
3.49155e+06
3.49166e+06
3.49176e+06
3.49187e+06
3.49197e+06
3.49207e+06
3.49217e+06
3.49226e+06
3.49234e+06
3.49242e+06
3.49249e+06
3.49256e+06
3.49261e+06
3.49266e+06
3.49269e+06
3.49272e+06
3.49273e+06
3.49272e+06
3.4927e+06
3.49267e+06
3.49262e+06
3.49255e+06
3.49245e+06
3.49234e+06
3.49218e+06
3.53459e+06
3.53719e+06
3.53457e+06
3.53884e+06
3.53886e+06
3.54576e+06
3.54915e+06
3.54977e+06
3.53959e+06
3.52128e+06
3.5132e+06
3.50646e+06
3.50269e+06
3.49939e+06
3.4972e+06
3.49537e+06
3.49403e+06
3.49296e+06
3.49217e+06
3.49157e+06
3.49114e+06
3.49083e+06
3.49062e+06
3.49049e+06
3.49042e+06
3.4904e+06
3.49042e+06
3.49047e+06
3.49054e+06
3.49062e+06
3.49072e+06
3.49082e+06
3.49094e+06
3.49105e+06
3.49117e+06
3.49129e+06
3.4914e+06
3.49152e+06
3.49163e+06
3.49174e+06
3.49185e+06
3.49195e+06
3.49204e+06
3.49213e+06
3.49222e+06
3.49229e+06
3.49236e+06
3.49242e+06
3.49246e+06
3.4925e+06
3.49252e+06
3.49254e+06
3.49253e+06
3.49251e+06
3.49248e+06
3.49242e+06
3.49235e+06
3.49225e+06
3.49214e+06
3.49198e+06
3.52345e+06
3.52448e+06
3.52363e+06
3.52659e+06
3.52779e+06
3.53214e+06
3.53501e+06
3.53515e+06
3.52439e+06
3.51041e+06
3.50459e+06
3.50031e+06
3.49774e+06
3.49561e+06
3.4941e+06
3.49289e+06
3.49198e+06
3.49127e+06
3.49075e+06
3.49037e+06
3.4901e+06
3.48993e+06
3.48984e+06
3.4898e+06
3.48981e+06
3.48986e+06
3.48993e+06
3.49002e+06
3.49013e+06
3.49024e+06
3.49037e+06
3.4905e+06
3.49063e+06
3.49076e+06
3.49089e+06
3.49102e+06
3.49115e+06
3.49127e+06
3.4914e+06
3.49151e+06
3.49163e+06
3.49173e+06
3.49183e+06
3.49193e+06
3.49201e+06
3.49209e+06
3.49216e+06
3.49222e+06
3.49227e+06
3.49231e+06
3.49233e+06
3.49235e+06
3.49234e+06
3.49232e+06
3.49229e+06
3.49223e+06
3.49216e+06
3.49206e+06
3.49195e+06
3.49178e+06
3.51001e+06
3.50715e+06
3.50986e+06
3.50981e+06
3.51311e+06
3.51456e+06
3.51696e+06
3.51647e+06
3.50551e+06
3.4973e+06
3.4943e+06
3.49307e+06
3.49194e+06
3.49123e+06
3.49055e+06
3.49009e+06
3.48968e+06
3.4894e+06
3.48919e+06
3.48906e+06
3.489e+06
3.48899e+06
3.48902e+06
3.48909e+06
3.48919e+06
3.4893e+06
3.48943e+06
3.48957e+06
3.48972e+06
3.48987e+06
3.49002e+06
3.49017e+06
3.49032e+06
3.49047e+06
3.49062e+06
3.49076e+06
3.4909e+06
3.49103e+06
3.49116e+06
3.49129e+06
3.49141e+06
3.49152e+06
3.49162e+06
3.49172e+06
3.49181e+06
3.49189e+06
3.49197e+06
3.49203e+06
3.49208e+06
3.49212e+06
3.49215e+06
3.49216e+06
3.49216e+06
3.49214e+06
3.4921e+06
3.49204e+06
3.49197e+06
3.49186e+06
3.49175e+06
3.49158e+06
3.49462e+06
3.48726e+06
3.49399e+06
3.49042e+06
3.49569e+06
3.49469e+06
3.49639e+06
3.49537e+06
3.48442e+06
3.48294e+06
3.48296e+06
3.48514e+06
3.48557e+06
3.48645e+06
3.48668e+06
3.48705e+06
3.4872e+06
3.48739e+06
3.48753e+06
3.48769e+06
3.48784e+06
3.48801e+06
3.48818e+06
3.48837e+06
3.48855e+06
3.48874e+06
3.48893e+06
3.48912e+06
3.48931e+06
3.48949e+06
3.48967e+06
3.48985e+06
3.49002e+06
3.49018e+06
3.49034e+06
3.4905e+06
3.49065e+06
3.49079e+06
3.49093e+06
3.49106e+06
3.49119e+06
3.49131e+06
3.49142e+06
3.49152e+06
3.49161e+06
3.4917e+06
3.49177e+06
3.49184e+06
3.49189e+06
3.49193e+06
3.49196e+06
3.49197e+06
3.49197e+06
3.49195e+06
3.49191e+06
3.49186e+06
3.49178e+06
3.49167e+06
3.49156e+06
3.49138e+06
3.47844e+06
3.46769e+06
3.4771e+06
3.47115e+06
3.47694e+06
3.47441e+06
3.47497e+06
3.47361e+06
3.46259e+06
3.46799e+06
3.4711e+06
3.47684e+06
3.4789e+06
3.48145e+06
3.48265e+06
3.48389e+06
3.48464e+06
3.48532e+06
3.48583e+06
3.48628e+06
3.48667e+06
3.48702e+06
3.48734e+06
3.48764e+06
3.48792e+06
3.48818e+06
3.48843e+06
3.48867e+06
3.4889e+06
3.48912e+06
3.48933e+06
3.48953e+06
3.48972e+06
3.4899e+06
3.49008e+06
3.49024e+06
3.4904e+06
3.49056e+06
3.4907e+06
3.49084e+06
3.49097e+06
3.4911e+06
3.49121e+06
3.49132e+06
3.49142e+06
3.4915e+06
3.49158e+06
3.49165e+06
3.4917e+06
3.49175e+06
3.49178e+06
3.49179e+06
3.49179e+06
3.49177e+06
3.49173e+06
3.49167e+06
3.49159e+06
3.49148e+06
3.49136e+06
3.49118e+06
3.46207e+06
3.45142e+06
3.4607e+06
3.45472e+06
3.4586e+06
3.45544e+06
3.45451e+06
3.4529e+06
3.44175e+06
3.45354e+06
3.45952e+06
3.46866e+06
3.4723e+06
3.47647e+06
3.47863e+06
3.48074e+06
3.48208e+06
3.48326e+06
3.48413e+06
3.48488e+06
3.4855e+06
3.48603e+06
3.4865e+06
3.48691e+06
3.48729e+06
3.48763e+06
3.48794e+06
3.48823e+06
3.4885e+06
3.48875e+06
3.48899e+06
3.48921e+06
3.48942e+06
3.48962e+06
3.48981e+06
3.48999e+06
3.49016e+06
3.49032e+06
3.49048e+06
3.49062e+06
3.49076e+06
3.49089e+06
3.49101e+06
3.49112e+06
3.49122e+06
3.49131e+06
3.49139e+06
3.49146e+06
3.49152e+06
3.49156e+06
3.49159e+06
3.49161e+06