/*--------------------------------*- C++ -*----------------------------------*\
| =========                 |                                                 |
| \\      /  F ield         | OpenFOAM: The Open Source CFD Toolbox           |
|  \\    /   O peration     | Version:  v2012                                 |
|   \\  /    A nd           | Website:  www.openfoam.com                      |
|    \\/     M anipulation  |                                                 |
\*---------------------------------------------------------------------------*/
FoamFile
{
    version     2.0;
    format      ascii;
    class       surfaceScalarField;
    location    "0.35";
    object      phi;
}
// * * * * * * * * * * * * * * * * * * * * * * * * * * * * * * * * * * * * * //

dimensions      [0 3 -1 0 0 0 0];
oriented        oriented;


internalField   nonuniform List<scalar> 
49380
(
4.21732e-12
-6.89807e-09
1.5504e-16
5.92866e-12
-2.11466e-08
-5.36925e-16
-1.29358e-10
-3.51672e-08
-7.16317e-15
-1.8766e-10
-4.91399e-08
-1.06446e-14
3.5441e-11
-6.13529e-08
-9.71943e-15
5.93694e-10
-7.53593e-08
-7.3084e-15
9.98463e-10
-7.38785e-08
-8.71456e-15
1.14398e-09
-8.02632e-08
1.27416e-15
1.29182e-09
-9.17678e-08
2.28407e-15
1.46708e-09
-1.01264e-07
1.10323e-15
1.61137e-09
-1.05889e-07
1.69717e-15
1.70486e-09
-1.04311e-07
-1.19094e-16
1.79451e-09
-1.01526e-07
-4.45681e-16
1.85994e-09
-1.02751e-07
-6.25221e-16
1.88972e-09
-1.07534e-07
-6.70683e-16
1.8771e-09
-1.13919e-07
-9.39534e-16
1.83794e-09
-1.2075e-07
-1.07979e-15
1.77577e-09
-1.27392e-07
-1.0765e-15
1.69319e-09
-1.33511e-07
-1.46558e-15
1.5903e-09
-1.38936e-07
-1.50807e-15
1.46694e-09
-1.43602e-07
-1.44977e-15
1.32264e-09
-1.47497e-07
-1.47289e-15
1.15699e-09
-1.50584e-07
-1.50679e-15
9.6973e-10
-1.52867e-07
-1.52146e-15
7.60945e-10
-1.54297e-07
-1.48672e-15
5.31159e-10
-1.54838e-07
-1.45282e-15
2.81486e-10
-1.5443e-07
-1.41522e-15
1.37966e-11
-1.52989e-07
-1.37982e-15
-2.69233e-10
-1.50466e-07
-1.34497e-15
-5.63862e-10
-1.46749e-07
-1.3904e-15
-8.65197e-10
-1.41769e-07
-1.24744e-15
-1.16697e-09
-1.35441e-07
-1.1464e-15
-1.46128e-09
-1.27675e-07
-1.09218e-15
-1.73822e-09
-1.18396e-07
-1.03342e-15
-1.98539e-09
-1.0753e-07
-9.68916e-16
-2.18705e-09
-9.50194e-08
-8.98084e-16
-2.32248e-09
-8.08094e-08
-8.19318e-16
-2.36402e-09
-6.48734e-08
-7.30807e-16
-2.26724e-09
-4.7202e-08
-6.29204e-16
-1.98036e-09
-2.78492e-08
-5.07121e-16
-1.26792e-09
-6.95377e-09
-3.61359e-16
-6.17405e-10
1.56677e-08
-9.44567e-17
-4.64467e-10
3.98902e-08
-4.75627e-17
-3.99567e-10
6.52613e-08
-3.15288e-17
-3.71262e-10
9.16677e-08
-2.19979e-17
-3.52043e-10
1.18991e-07
-1.50319e-17
-3.34522e-10
1.4677e-07
-9.87459e-18
-3.1569e-10
1.74612e-07
-1.11289e-17
-2.94394e-10
2.01871e-07
-8.43783e-18
-2.70158e-10
2.27827e-07
-1.21757e-18
-2.42904e-10
2.51625e-07
5.01985e-18
-2.12866e-10
2.72021e-07
1.14181e-17
-1.80541e-10
2.87682e-07
1.34466e-17
-1.46714e-10
2.96932e-07
1.96673e-17
-1.12508e-10
2.97635e-07
2.52342e-17
-7.94135e-11
2.87239e-07
3.01857e-17
-4.93315e-11
2.62695e-07
3.37001e-17
-2.45068e-11
2.20123e-07
3.05263e-17
-7.35734e-12
1.54905e-07
2.57788e-17
6.10964e-08
2.19091e-17
8.14978e-12
-6.90621e-09
9.87425e-16
1.20038e-11
-2.11505e-08
-5.01607e-15
-1.78e-10
-3.49772e-08
-1.1218e-14
-2.34566e-10
-4.90833e-08
-5.2187e-15
5.65974e-11
-6.16441e-08
-7.78111e-15
7.91213e-10
-7.60939e-08
-1.30388e-14
1.20331e-09
-7.42906e-08
-5.42641e-16
1.43755e-09
-8.04975e-08
2.59724e-16
1.6958e-09
-9.20261e-08
1.25821e-15
1.91716e-09
-1.01485e-07
1.28995e-15
1.98532e-09
-1.05957e-07
8.29602e-16
1.99847e-09
-1.04324e-07
4.43889e-16
2.09061e-09
-1.01618e-07
-2.94406e-16
2.16933e-09
-1.0283e-07
-5.81785e-16
2.17869e-09
-1.07543e-07
-9.81672e-16
2.12854e-09
-1.13869e-07
-8.53315e-16
2.04336e-09
-1.20665e-07
-1.15657e-15
1.93763e-09
-1.27287e-07
-1.1197e-15
1.81692e-09
-1.3339e-07
-1.02969e-15
1.68268e-09
-1.38802e-07
-1.11474e-15
1.53414e-09
-1.43454e-07
-1.34327e-15
1.36978e-09
-1.47332e-07
-1.4782e-15
1.18801e-09
-1.50402e-07
-1.48868e-15
9.87571e-10
-1.52667e-07
-1.45565e-15
7.67736e-10
-1.54077e-07
-1.40076e-15
5.28452e-10
-1.54599e-07
-1.38778e-15
2.70417e-10
-1.54172e-07
-1.36686e-15
-4.79157e-12
-1.52714e-07
-1.35273e-15
-2.94709e-10
-1.50176e-07
-1.32887e-15
-5.9576e-10
-1.46448e-07
-1.29321e-15
-9.03197e-10
-1.41462e-07
-1.15558e-15
-1.21091e-09
-1.35133e-07
-1.15018e-15
-1.51119e-09
-1.27375e-07
-1.10106e-15
-1.7944e-09
-1.18113e-07
-1.04319e-15
-2.04862e-09
-1.07276e-07
-9.78975e-16
-2.25897e-09
-9.48091e-08
-9.0752e-16
-2.40656e-09
-8.06618e-08
-8.27318e-16
-2.46775e-09
-6.48122e-08
-7.36505e-16
-2.41018e-09
-4.72595e-08
-6.31171e-16
-2.21259e-09
-2.80468e-08
-5.06911e-16
-1.86623e-09
-7.3001e-09
-3.66793e-16
-1.51133e-09
1.53128e-08
-2.03401e-16
-1.30201e-09
3.96809e-08
-1.31839e-16
-1.17924e-09
6.51386e-08
-9.08272e-17
-1.10904e-09
9.15975e-08
-6.4283e-17
-1.0553e-09
1.18938e-07
-4.38506e-17
-1.00385e-09
1.46718e-07
-2.78509e-17
-9.478e-10
1.74556e-07
-2.60544e-17
-8.84101e-10
2.01808e-07
-1.34226e-17
-8.11474e-10
2.27754e-07
1.43488e-17
-7.29734e-10
2.51544e-07
3.9302e-17
-6.3961e-10
2.71931e-07
6.5356e-17
-5.42609e-10
2.87585e-07
7.82036e-17
-4.41092e-10
2.9683e-07
1.06001e-16
-3.38408e-10
2.97532e-07
1.32296e-16
-2.39005e-10
2.8714e-07
1.56135e-16
-1.48492e-10
2.62604e-07
1.72763e-16
-7.36099e-11
2.20048e-07
1.61849e-16
-2.15704e-11
1.54853e-07
1.41117e-16
6.10748e-08
1.14836e-16
7.57813e-12
-6.91378e-09
1.32205e-15
9.42914e-12
-2.11524e-08
-2.05731e-15
-1.19818e-10
-3.4848e-08
-1.63144e-14
-9.22755e-11
-4.91108e-08
8.55737e-16
1.86306e-10
-6.19227e-08
-5.99857e-15
9.06188e-10
-7.68138e-08
-1.46897e-14
1.37534e-09
-7.47597e-08
-7.56387e-16
1.7203e-09
-8.08424e-08
1.18181e-15
2.03075e-09
-9.23365e-08
1.42363e-15
2.19507e-09
-1.0165e-07
1.44234e-15
2.13149e-09
-1.05894e-07
8.4992e-16
2.05698e-09
-1.0425e-07
1.77038e-16
2.15478e-09
-1.01716e-07
-5.21533e-16
2.28214e-09
-1.02957e-07
-9.60874e-16
2.32836e-09
-1.07589e-07
-1.1108e-15
2.29899e-09
-1.13839e-07
-1.15167e-15
2.21473e-09
-1.2058e-07
-1.34188e-15
2.09735e-09
-1.27169e-07
-1.19318e-15
1.95808e-09
-1.33251e-07
-1.39932e-15
1.80284e-09
-1.38646e-07
-1.37505e-15
1.63321e-09
-1.43284e-07
-1.53322e-15
1.44882e-09
-1.47148e-07
-1.61676e-15
1.24846e-09
-1.50202e-07
-1.57846e-15
1.03084e-09
-1.52449e-07
-1.51632e-15
7.95061e-10
-1.53841e-07
-1.42907e-15
5.40845e-10
-1.54344e-07
-1.39423e-15
2.68669e-10
-1.539e-07
-1.35941e-15
-2.00828e-11
-1.52426e-07
-1.34183e-15
-3.23114e-10
-1.49873e-07
-1.31827e-15
-6.37002e-10
-1.46134e-07
-1.31738e-15
-9.57158e-10
-1.41142e-07
-1.17507e-15
-1.27767e-09
-1.34812e-07
-1.14656e-15
-1.5911e-09
-1.27061e-07
-1.09957e-15
-1.88827e-09
-1.17815e-07
-1.04408e-15
-2.15805e-09
-1.07006e-07
-9.81821e-16
-2.38698e-09
-9.45801e-08
-9.11721e-16
-2.55901e-09
-8.04898e-08
-8.32667e-16
-2.65626e-09
-6.47149e-08
-7.4287e-16
-2.65974e-09
-4.7256e-08
-6.38797e-16
-2.56958e-09
-2.81369e-08
-5.18806e-16
-2.42341e-09
-7.44624e-09
-3.94336e-16
-2.24649e-09
1.51358e-08
-2.73679e-16
-2.06895e-09
3.95034e-08
-1.90897e-16
-1.93302e-09
6.50027e-08
-1.35479e-16
-1.83735e-09
9.15019e-08
-9.88559e-17
-1.75522e-09
1.18856e-07
-6.98888e-17
-1.67232e-09
1.46635e-07
-4.46596e-17
-1.58015e-09
1.74464e-07
-4.17915e-17
-1.47457e-09
2.01702e-07
-2.6427e-17
-1.35382e-09
2.27633e-07
1.24055e-17
-1.21772e-09
2.51408e-07
4.68904e-17
-1.06758e-09
2.71781e-07
8.35566e-17
-9.0593e-10
2.87423e-07
9.79369e-17
-7.36716e-10
2.96661e-07
1.37194e-16
-5.65496e-10
2.97361e-07
1.74331e-16
-3.99617e-10
2.86974e-07
2.08635e-16
-2.48328e-10
2.62453e-07
2.34056e-16
-1.22782e-10
2.19923e-07
2.19326e-16
-3.52681e-11
1.54766e-07
1.95305e-16
6.10395e-08
1.56553e-16
8.522e-12
-6.92229e-09
8.17151e-16
9.44955e-12
-2.11533e-08
-1.20121e-15
-1.09172e-10
-3.47294e-08
-1.14329e-14
-5.34338e-11
-4.91665e-08
-1.66706e-15
2.32004e-10
-6.22081e-08
-5.77926e-15
9.97164e-10
-7.7579e-08
-8.65339e-15
1.4237e-09
-7.51862e-08
-9.11572e-15
1.8008e-09
-8.12196e-08
1.27516e-15
2.1478e-09
-9.26835e-08
1.43393e-15
2.3143e-09
-1.01816e-07
1.42429e-15
2.23621e-09
-1.05815e-07
9.44097e-16
2.145e-09
-1.04159e-07
2.18567e-16
2.24985e-09
-1.01821e-07
-2.60707e-16
2.40868e-09
-1.03116e-07
-7.86861e-16
2.4909e-09
-1.07672e-07
-9.8756e-16
2.47942e-09
-1.13828e-07
-1.31377e-15
2.3969e-09
-1.20498e-07
-1.33505e-15
2.2679e-09
-1.2704e-07
-1.12792e-15
2.10943e-09
-1.33092e-07
-1.24802e-15
1.93157e-09
-1.38468e-07
-1.51144e-15
1.73866e-09
-1.43091e-07
-1.56001e-15
1.53174e-09
-1.46941e-07
-1.54897e-15
1.31011e-09
-1.4998e-07
-1.508e-15
1.07255e-09
-1.52211e-07
-1.48328e-15
8.17964e-10
-1.53587e-07
-1.4208e-15
5.4583e-10
-1.54072e-07
-1.40143e-15
2.56372e-10
-1.53611e-07
-1.36881e-15
-4.92481e-11
-1.5212e-07
-1.35153e-15
-3.68929e-10
-1.49554e-07
-1.32657e-15
-6.99423e-10
-1.45803e-07
-1.32302e-15
-1.03633e-09
-1.40805e-07
-1.17639e-15
-1.37398e-09
-1.34475e-07
-1.15096e-15
-1.70526e-09
-1.2673e-07
-1.1044e-15
-2.02157e-09
-1.17499e-07
-1.04946e-15
-2.31269e-09
-1.06715e-07
-9.87869e-16
-2.56681e-09
-9.4326e-08
-9.18373e-16
-2.77083e-09
-8.02858e-08
-8.40051e-16
-2.9121e-09
-6.45737e-08
-7.51605e-16
-2.9814e-09
-4.71867e-08
-6.5025e-16
-2.98702e-09
-2.81313e-08
-5.35245e-16
-2.97028e-09
-7.46294e-09
-4.21568e-16
-2.90915e-09
1.50747e-08
-3.19605e-16
-2.78391e-09
3.93781e-08
-2.3451e-16
-2.66007e-09
6.48788e-08
-1.72338e-16
-2.55325e-09
9.13951e-08
-1.29678e-16
-2.44978e-09
1.18752e-07
-9.46098e-17
-2.33875e-09
1.46524e-07
-6.3214e-17
-2.21207e-09
1.74337e-07
-6.26763e-17
-2.06542e-09
2.01555e-07
-4.96309e-17
-1.89694e-09
2.27465e-07
-5.15607e-18
-1.70669e-09
2.51217e-07
3.3214e-17
-1.49661e-09
2.71571e-07
7.44553e-17
-1.27034e-09
2.87197e-07
8.37341e-17
-1.03341e-09
2.96424e-07
1.27234e-16
-7.93589e-10
2.97121e-07
1.68052e-16
-5.61087e-10
2.86741e-07
2.07094e-16
-3.48754e-10
2.6224e-07
2.39354e-16
-1.72167e-10
2.19746e-07
2.24374e-16
-4.89581e-11
1.54642e-07
2.05854e-16
6.09906e-08
1.66425e-16
9.94112e-12
-6.93222e-09
1.63092e-15
9.64778e-12
-2.1153e-08
-8.76907e-16
-5.90841e-11
-3.46607e-08
-1.0966e-14
4.018e-11
-4.92658e-08
7.41696e-16
3.14732e-10
-6.24827e-08
-5.63768e-15
1.10656e-09
-7.83708e-08
-1.02993e-14
1.51768e-09
-7.55974e-08
-8.02134e-15
1.90131e-09
-8.16032e-08
1.69132e-15
2.25588e-09
-9.30381e-08
1.53685e-15
2.41619e-09
-1.01976e-07
1.72421e-15
2.32483e-09
-1.05724e-07
1.10972e-15
2.23196e-09
-1.04066e-07
5.30979e-16
2.3406e-09
-1.0193e-07
-1.75621e-16
2.50694e-09
-1.03282e-07
-7.66737e-16
2.60306e-09
-1.07768e-07
-1.14032e-15
2.60496e-09
-1.1383e-07
-1.32584e-15
2.52959e-09
-1.20423e-07
-1.36126e-15
2.39952e-09
-1.2691e-07
-1.35238e-15
2.2328e-09
-1.32926e-07
-1.42271e-15
2.04143e-09
-1.38277e-07
-1.58173e-15
1.83173e-09
-1.42881e-07
-1.59887e-15
1.6062e-09
-1.46716e-07
-1.55482e-15
1.36512e-09
-1.49739e-07
-1.48861e-15
1.10781e-09
-1.51954e-07
-1.46764e-15
8.33434e-10
-1.53312e-07
-1.41376e-15
5.4153e-10
-1.5378e-07
-1.40712e-15
2.32308e-10
-1.53301e-07
-1.3826e-15
-9.31342e-11
-1.51794e-07
-1.36944e-15
-4.32787e-10
-1.49214e-07
-1.34597e-15
-7.83512e-10
-1.45453e-07
-1.34358e-15
-1.14105e-09
-1.40447e-07
-1.1891e-15
-1.49995e-09
-1.34116e-07
-1.16173e-15
-1.85345e-09
-1.26376e-07
-1.1139e-15
-2.1935e-09
-1.17159e-07
-1.05824e-15
-2.51082e-09
-1.06398e-07
-9.96538e-16
-2.79515e-09
-9.40417e-08
-9.27148e-16
-3.036e-09
-8.00449e-08
-8.4944e-16
-3.22462e-09
-6.43851e-08
-7.6269e-16
-3.35751e-09
-4.70538e-08
-6.65354e-16
-3.44409e-09
-2.80448e-08
-5.56158e-16
-3.51605e-09
-7.39094e-09
-4.49344e-16
-3.53476e-09
1.50934e-08
-3.5623e-16
-3.46452e-09
3.93079e-08
-2.72448e-16
-3.36452e-09
6.47789e-08
-2.07091e-16
-3.25678e-09
9.12873e-08
-1.59704e-16
-3.13828e-09
1.18634e-07
-1.19301e-16
-3.00256e-09
1.46388e-07
-8.24368e-17
-2.84319e-09
1.74178e-07
-8.8132e-17
-2.65642e-09
2.01369e-07
-8.21831e-17
-2.4407e-09
2.27249e-07
-3.77508e-17
-2.19653e-09
2.50973e-07
-1.17844e-18
-1.92662e-09
2.71301e-07
3.86244e-17
-1.63576e-09
2.86906e-07
3.61852e-17
-1.33109e-09
2.96119e-07
7.67004e-17
-1.02259e-09
2.96813e-07
1.13909e-16
-7.23324e-10
2.86442e-07
1.51763e-16
-4.49725e-10
2.61967e-07
1.88331e-16
-2.21814e-10
2.19518e-07
1.75685e-16
-6.27137e-11
1.54483e-07
1.70084e-16
6.09279e-08
1.39366e-16
1.06796e-11
-6.9429e-09
1.68839e-15
5.83395e-12
-2.11482e-08
-1.33269e-15
2.75997e-12
-3.46576e-08
-9.16832e-15
1.25963e-10
-4.9389e-08
-1.67475e-15
3.78864e-10
-6.27356e-08
-8.42322e-15
1.18981e-09
-7.91818e-08
-1.34358e-14
1.54233e-09
-7.59499e-08
-3.4209e-15
1.92545e-09
-8.19863e-08
9.34013e-16
2.29232e-09
-9.34049e-08
1.65494e-15
2.4656e-09
-1.0215e-07
1.8303e-15
2.40035e-09
-1.05659e-07
1.1551e-15
2.33121e-09
-1.03997e-07
4.36242e-16
2.44211e-09
-1.02041e-07
-2.32955e-16
2.60874e-09
-1.03449e-07
-7.24611e-16
2.7077e-09
-1.07867e-07
-1.16623e-15
2.71314e-09
-1.13835e-07
-1.26886e-15
2.63885e-09
-1.20348e-07
-1.30761e-15
2.50528e-09
-1.26777e-07
-1.39341e-15
2.33048e-09
-1.32751e-07
-1.40627e-15
2.12717e-09
-1.38074e-07
-1.57126e-15
1.90272e-09
-1.42657e-07
-1.61758e-15
1.66053e-09
-1.46473e-07
-1.60654e-15
1.40153e-09
-1.4948e-07
-1.55607e-15
1.1254e-09
-1.51678e-07
-1.54296e-15
8.31498e-10
-1.53018e-07
-1.48386e-15
5.19452e-10
-1.53468e-07
-1.46918e-15
1.89484e-10
-1.52971e-07
-1.43451e-15
-1.57318e-10
-1.51448e-07
-1.4119e-15
-5.18974e-10
-1.48852e-07
-1.38155e-15
-8.92393e-10
-1.45079e-07
-1.3747e-15
-1.27341e-09
-1.40066e-07
-1.21031e-15
-1.65671e-09
-1.33733e-07
-1.17762e-15
-2.03584e-09
-1.25997e-07
-1.12669e-15
-2.40323e-09
-1.16792e-07
-1.06934e-15
-2.75041e-09
-1.06051e-07
-1.00688e-15
-3.06845e-09
-9.37236e-08
-9.37348e-16
-3.34878e-09
-7.97646e-08
-8.60224e-16
-3.5852e-09
-6.41486e-08
-7.75467e-16
-3.77677e-09
-4.68622e-08
-6.82972e-16
-3.93074e-09
-2.78908e-08
-5.80561e-16
-4.06665e-09
-7.25499e-09
-4.79888e-16
-4.14376e-09
1.51706e-08
-3.91596e-16
-4.12406e-09
3.92883e-08
-3.09826e-16
-4.05201e-09
6.47068e-08
-2.4235e-16
-3.94969e-09
9.1185e-08
-1.90199e-16
-3.82101e-09
1.18505e-07
-1.44145e-16
-3.66365e-09
1.46231e-07
-1.0242e-16
-3.47337e-09
1.73988e-07
-1.13863e-16
-3.24745e-09
2.01143e-07
-1.16351e-16
-2.98501e-09
2.26987e-07
-7.38414e-17
-2.68718e-09
2.50675e-07
-4.13104e-17
-2.35755e-09
2.70971e-07
-5.87814e-18
-2.00211e-09
2.86551e-07
-2.40029e-17
-1.62968e-09
2.95747e-07
8.38648e-18
-1.25243e-09
2.96435e-07
3.61394e-17
-8.86267e-10
2.86076e-07
6.73014e-17
-5.5121e-10
2.61632e-07
1.04727e-16
-2.71745e-10
2.19239e-07
9.42092e-17
-7.6561e-11
1.54288e-07
1.04451e-16
6.08513e-08
8.79977e-17
1.15834e-11
-6.95447e-09
1.7135e-15
4.28531e-12
-2.11409e-08
-2.81503e-16
9.75895e-11
-3.47509e-08
-7.20922e-15
2.29907e-10
-4.95213e-08
-2.94372e-15
4.60354e-10
-6.2966e-08
-8.48718e-15
1.29548e-09
-8.00169e-08
-1.02214e-14
1.60142e-09
-7.62558e-08
-2.44107e-15
1.97037e-09
-8.23553e-08
2.50141e-16
2.33231e-09
-9.37669e-08
1.36196e-15
2.50569e-09
-1.02323e-07
1.63432e-15
2.45293e-09
-1.05606e-07
9.73641e-16
2.40275e-09
-1.03947e-07
2.566e-16
2.51772e-09
-1.02156e-07
-3.84057e-16
2.68004e-09
-1.03611e-07
-7.69899e-16
2.77604e-09
-1.07963e-07
-1.21988e-15
2.78121e-09
-1.1384e-07
-1.43992e-15
2.70693e-09
-1.20274e-07
-1.43833e-15
2.57148e-09
-1.26641e-07
-1.50786e-15
2.3918e-09
-1.32571e-07
-1.5554e-15
2.18034e-09
-1.37862e-07
-1.60149e-15
1.94479e-09
-1.42421e-07
-1.61236e-15
1.68898e-09
-1.46218e-07
-1.6036e-15
1.41431e-09
-1.49206e-07
-1.5584e-15
1.12081e-09
-1.51384e-07
-1.55398e-15
8.08088e-10
-1.52706e-07
-1.50072e-15
4.75922e-10
-1.53136e-07
-1.49255e-15
1.2463e-10
-1.5262e-07
-1.46266e-15
-2.44635e-10
-1.51078e-07
-1.44179e-15
-6.29855e-10
-1.48467e-07
-1.41266e-15
-1.02792e-09
-1.44681e-07
-1.40642e-15
-1.43468e-09
-1.3966e-07
-1.23311e-15
-1.84492e-09
-1.33322e-07
-1.19477e-15
-2.25238e-09
-1.2559e-07
-1.1406e-15
-2.64986e-09
-1.16394e-07
-1.08129e-15
-3.02955e-09
-1.05671e-07
-1.01796e-15
-3.38344e-09
-9.33697e-08
-9.48234e-16
-3.70429e-09
-7.94437e-08
-8.7178e-16
-3.98722e-09
-6.38657e-08
-7.89055e-16
-4.23174e-09
-4.66177e-08
-7.01406e-16
-4.4418e-09
-2.76807e-08
-6.05838e-16
-4.62657e-09
-7.07017e-09
-5.11139e-16
-4.74859e-09
1.52926e-08
-4.26446e-16
-4.77253e-09
3.93123e-08
-3.46698e-16
-4.72821e-09
6.46625e-08
-2.77486e-16
-4.63451e-09
9.10913e-08
-2.20505e-16
-4.49895e-09
1.18369e-07
-1.68699e-16
-4.32236e-09
1.46055e-07
-1.21308e-16
-4.10269e-09
1.73768e-07
-1.36028e-16
-3.83853e-09
2.00879e-07
-1.45502e-16
-3.52985e-09
2.26678e-07
-1.04509e-16
-3.1786e-09
2.50324e-07
-7.58092e-17
-2.78935e-09
2.70582e-07
-4.49439e-17
-2.36936e-09
2.86131e-07
-7.95642e-17
-1.92913e-09
2.95307e-07
-5.68749e-17
-1.48304e-09
2.95989e-07
-4.08759e-17
-1.04986e-09
2.85643e-07
-1.91098e-17
-6.53178e-10
2.61235e-07
1.65383e-17
-3.21962e-10
2.18907e-07
5.9336e-18
-9.05203e-11
1.54057e-07
3.01e-17
6.07608e-08
2.73046e-17
1.22108e-11
-6.96667e-09
1.86509e-15
4.58585e-12
-2.11332e-08
-1.80616e-15
2.17174e-10
-3.49635e-08
-6.42741e-15
3.30345e-10
-4.96344e-08
-3.32715e-15
5.43875e-10
-6.31795e-08
-8.46431e-15
1.40102e-09
-8.0874e-08
-6.65288e-15
1.6474e-09
-7.65021e-08
-6.23004e-15
2.00101e-09
-8.27089e-08
8.2202e-17
2.3582e-09
-9.4124e-08
7.34274e-16
2.53214e-09
-1.02497e-07
1.028e-15
2.49377e-09
-1.05568e-07
4.88384e-16
2.46231e-09
-1.03915e-07
-1.63583e-16
2.57904e-09
-1.02272e-07
-7.09796e-16
2.73391e-09
-1.03766e-07
-1.01175e-15
2.82258e-09
-1.08051e-07
-1.34162e-15
2.82304e-09
-1.13841e-07
-1.63359e-15
2.74526e-09
-1.20196e-07
-1.54751e-15
2.60593e-09
-1.26502e-07
-1.57157e-15
2.42086e-09
-1.32386e-07
-1.58424e-15
2.20191e-09
-1.37643e-07
-1.70206e-15
1.95657e-09
-1.42176e-07
-1.7182e-15
1.68875e-09
-1.4595e-07
-1.69818e-15
1.39995e-09
-1.48917e-07
-1.63989e-15
1.09032e-09
-1.51075e-07
-1.62587e-15
7.59594e-10
-1.52375e-07
-1.56221e-15
4.07629e-10
-1.52784e-07
-1.54507e-15
3.48325e-11
-1.52247e-07
-1.50783e-15
-3.57555e-10
-1.50686e-07
-1.48096e-15
-7.6743e-10
-1.48057e-07
-1.44866e-15
-1.1916e-09
-1.44257e-07
-1.44336e-15
-1.62586e-09
-1.39225e-07
-1.25594e-15
-2.06501e-09
-1.32883e-07
-1.21242e-15
-2.50287e-09
-1.25152e-07
-1.15483e-15
-2.93249e-09
-1.15965e-07
-1.0935e-15
-3.34644e-09
-1.05257e-07
-1.02923e-15
-3.73733e-09
-9.29789e-08
-9.59392e-16
-4.09863e-09
-7.90824e-08
-8.83694e-16
-4.42584e-09
-6.35385e-08
-8.02918e-16
-4.71778e-09
-4.63257e-08
-7.19515e-16
-4.97499e-09
-2.74235e-08
-6.29968e-16
-5.19894e-09
-6.84616e-09
-5.40572e-16
-5.35681e-09
1.54505e-08
-4.58864e-16
-5.41729e-09
3.93728e-08
-3.80981e-16
-5.39824e-09
6.46435e-08
-3.10448e-16
-5.31409e-09
9.10072e-08
-2.49108e-16
-5.17349e-09
1.18229e-07
-1.91936e-16
-4.97933e-09
1.4586e-07
-1.39291e-16
-4.73146e-09
1.7352e-07
-1.53535e-16
-4.42978e-09
2.00577e-07
-1.67315e-16
-4.07529e-09
2.26323e-07
-1.25098e-16
-3.67081e-09
2.4992e-07
-9.73329e-17
-3.22201e-09
2.70133e-07
-6.81716e-17
-2.73747e-09
2.85646e-07
-1.16733e-16
-2.22939e-09
2.94799e-07
-1.01786e-16
-1.71438e-09
2.95474e-07
-9.63842e-17
-1.21406e-09
2.85142e-07
-8.39339e-17
-7.55594e-10
2.60777e-07
-5.13523e-17
-3.72459e-10
2.18524e-07
-6.50492e-17
-1.04594e-10
1.53789e-07
-3.16617e-17
6.06562e-08
-2.4932e-17
1.27817e-11
-6.97944e-09
1.97162e-15
9.81572e-12
-2.11303e-08
-8.28449e-16
3.55182e-10
-3.53089e-08
-4.07453e-15
4.15763e-10
-4.96949e-08
-6.55428e-15
6.31324e-10
-6.33951e-08
-1.20447e-14
1.51708e-09
-8.17598e-08
-5.69302e-15
1.71642e-09
-7.67015e-08
-4.65083e-15
2.04918e-09
-8.30416e-08
-6.59824e-16
2.39349e-09
-9.44684e-08
9.67581e-17
2.55899e-09
-1.02663e-07
2.47634e-16
2.52451e-09
-1.05533e-07
-2.77466e-16
2.5024e-09
-1.03893e-07
-6.36016e-16
2.61509e-09
-1.02385e-07
-1.07882e-15
2.75826e-09
-1.03909e-07
-1.25795e-15
2.83655e-09
-1.0813e-07
-1.56283e-15
2.83019e-09
-1.13834e-07
-1.74674e-15
2.74785e-09
-1.20114e-07
-1.64083e-15
2.60468e-09
-1.26359e-07
-1.68269e-15
2.4151e-09
-1.32196e-07
-1.68095e-15
2.19009e-09
-1.37418e-07
-1.75172e-15
1.93667e-09
-1.41923e-07
-1.75857e-15
1.6585e-09
-1.45672e-07
-1.74073e-15
1.35702e-09
-1.48615e-07
-1.68092e-15
1.0324e-09
-1.5075e-07
-1.6624e-15
6.84391e-10
-1.52027e-07
-1.59482e-15
3.1293e-10
-1.52413e-07
-1.57485e-15
-8.14921e-11
-1.51853e-07
-1.53682e-15
-4.97524e-10
-1.5027e-07
-1.50966e-15
-9.32936e-10
-1.47622e-07
-1.47864e-15
-1.38439e-09
-1.43806e-07
-1.47597e-15
-1.84757e-09
-1.38762e-07
-1.27643e-15
-2.31718e-09
-1.32414e-07
-1.22913e-15
-2.78701e-09
-1.24682e-07
-1.16875e-15
-3.2502e-09
-1.15501e-07
-1.10556e-15
-3.69951e-09
-1.04808e-07
-1.04048e-15
-4.1278e-09
-9.25506e-08
-9.70641e-16
-4.52875e-09
-7.86814e-08
-8.9585e-16
-4.89767e-09
-6.31696e-08
-8.16873e-16
-5.23206e-09
-4.59913e-08
-7.36923e-16
-5.52944e-09
-2.71261e-08
-6.52136e-16
-5.78595e-09
-6.58957e-09
-5.66916e-16
-5.97318e-09
1.56377e-08
-4.8748e-16
-6.06373e-09
3.94634e-08
-4.11146e-16
-6.06644e-09
6.46463e-08
-3.39727e-16
-5.99121e-09
9.09319e-08
-2.74879e-16
-5.8462e-09
1.18084e-07
-2.13266e-16
-5.63541e-09
1.4565e-07
-1.55157e-16
-5.36012e-09
1.73245e-07
-1.66779e-16
-5.02144e-09
2.00238e-07
-1.82208e-16
-4.62141e-09
2.25923e-07
-1.36169e-16
-4.16384e-09
2.49462e-07
-1.06298e-16
-3.65553e-09
2.69625e-07
-7.54227e-17
-3.1064e-09
2.85097e-07
-1.34189e-16
-2.53041e-09
2.94223e-07
-1.23122e-16
-1.94639e-09
2.9489e-07
-1.24689e-16
-1.37881e-09
2.84575e-07
-1.18887e-16
-8.58425e-10
2.60256e-07
-8.87178e-17
-4.23217e-10
2.18089e-07
-1.07957e-16
-1.1878e-10
1.53484e-07
-7.07657e-17
6.05374e-08
-6.0442e-17
1.31901e-11
-6.99262e-09
1.93361e-15
2.001e-11
-2.11371e-08
-2.35996e-16
4.9157e-10
-3.57805e-08
-2.39346e-15
4.61984e-10
-4.96653e-08
-6.19302e-15
7.07207e-10
-6.36403e-08
-1.44762e-14
1.62292e-09
-8.26755e-08
-4.54574e-15
1.78501e-09
-7.68635e-08
-3.99976e-15
2.09698e-09
-8.33536e-08
-2.54248e-15
2.4264e-09
-9.47978e-08
-1.06826e-15
2.5796e-09
-1.02816e-07
-9.5509e-16
2.54397e-09
-1.05498e-07
-1.26035e-15
2.5253e-09
-1.03874e-07
-1.47711e-15
2.62946e-09
-1.02489e-07
-1.51657e-15
2.75785e-09
-1.04038e-07
-1.69877e-15
2.82332e-09
-1.08195e-07
-1.83559e-15
2.80808e-09
-1.13819e-07
-1.89918e-15
2.7197e-09
-1.20026e-07
-1.76921e-15
2.57186e-09
-1.26211e-07
-1.82348e-15
2.37764e-09
-1.32002e-07
-1.73026e-15
2.147e-09
-1.37188e-07
-1.79137e-15
1.88628e-09
-1.41662e-07
-1.79994e-15
1.59871e-09
-1.45384e-07
-1.78067e-15
1.28548e-09
-1.48302e-07
-1.71867e-15
9.46616e-10
-1.50411e-07
-1.69741e-15
5.8182e-10
-1.51662e-07
-1.62756e-15
1.9103e-10
-1.52022e-07
-1.60512e-15
-2.25189e-10
-1.51437e-07
-1.56538e-15
-6.6536e-10
-1.4983e-07
-1.53739e-15
-1.12709e-09
-1.4716e-07
-1.50687e-15
-1.60685e-09
-1.43326e-07
-1.50693e-15
-2.10011e-09
-1.38269e-07
-1.29538e-15
-2.60141e-09
-1.31912e-07
-1.24509e-15
-3.10442e-09
-1.24179e-07
-1.18226e-15
-3.60217e-09
-1.15004e-07
-1.11745e-15
-4.0874e-09
-1.04323e-07
-1.05168e-15
-4.55297e-09
-9.2085e-08
-9.81991e-16
-4.9924e-09
-7.8242e-08
-9.08228e-16
-5.40038e-09
-6.27616e-08
-8.30948e-16
-5.77291e-09
-4.56188e-08
-7.53707e-16
-6.10498e-09
-2.6794e-08
-6.72444e-16
-6.38921e-09
-6.30527e-09
-5.90197e-16
-6.60081e-09
1.58493e-08
-5.12231e-16
-6.71577e-09
3.95784e-08
-4.36985e-16
-6.73637e-09
6.46669e-08
-3.64964e-16
-6.66843e-09
9.0864e-08
-2.97496e-16
-6.51872e-09
1.17934e-07
-2.32327e-16
-6.29156e-09
1.45422e-07
-1.69208e-16
-5.9892e-09
1.72943e-07
-1.77713e-16
-5.61379e-09
1.99863e-07
-1.93534e-16
-5.16839e-09
2.25478e-07
-1.41573e-16
-4.65778e-09
2.48952e-07
-1.06777e-16
-4.08993e-09
2.69057e-07
-7.06331e-17
-3.47616e-09
2.84484e-07
-1.35409e-16
-2.83216e-09
2.93579e-07
-1.2354e-16
-2.17903e-09
2.94237e-07
-1.27273e-16
-1.54408e-09
2.8394e-07
-1.24006e-16
-9.61637e-10
2.59674e-07
-9.39433e-17
-4.74217e-10
2.17602e-07
-1.19768e-16
-1.33069e-10
1.53143e-07
-8.29707e-17
6.04043e-08
-7.39472e-17
1.34576e-11
-7.00608e-09
1.59917e-15
3.46232e-11
-2.11583e-08
-1.73135e-15
5.99668e-10
-3.63455e-08
-1.99707e-15
4.47041e-10
-4.95126e-08
-1.18082e-14
7.57179e-10
-6.39504e-08
-1.63645e-14
1.70543e-09
-8.36237e-08
-1.19295e-15
1.85591e-09
-7.7014e-08
-5.94774e-15
2.14717e-09
-8.36449e-08
-4.17296e-15
2.45688e-09
-9.51075e-08
-2.6517e-15
2.59129e-09
-1.0295e-07
-2.56118e-15
2.54727e-09
-1.05454e-07
-2.6025e-15
2.5249e-09
-1.03852e-07
-2.46636e-15
2.61595e-09
-1.0258e-07
-2.17915e-15
2.72703e-09
-1.04149e-07
-2.27058e-15
2.77841e-09
-1.08247e-07
-2.22846e-15
2.75367e-09
-1.13794e-07
-2.12209e-15
2.65913e-09
-1.19931e-07
-1.93651e-15
2.50697e-09
-1.26059e-07
-1.96175e-15
2.30877e-09
-1.31804e-07
-1.86603e-15
2.07338e-09
-1.36952e-07
-1.87176e-15
1.80631e-09
-1.41395e-07
-1.85115e-15
1.51024e-09
-1.45088e-07
-1.82675e-15
1.18601e-09
-1.47978e-07
-1.76331e-15
8.33414e-10
-1.50059e-07
-1.73662e-15
4.5207e-10
-1.51281e-07
-1.66196e-15
4.19066e-11
-1.51612e-07
-1.63403e-15
-3.96434e-10
-1.50998e-07
-1.5912e-15
-8.61325e-10
-1.49365e-07
-1.56177e-15
-1.35017e-09
-1.46671e-07
-1.53179e-15
-1.85918e-09
-1.42817e-07
-1.53394e-15
-2.38356e-09
-1.37744e-07
-1.31297e-15
-2.91758e-09
-1.31378e-07
-1.26001e-15
-3.45466e-09
-1.23642e-07
-1.19525e-15
-3.98762e-09
-1.14471e-07
-1.12908e-15
-4.50899e-09
-1.03801e-07
-1.0628e-15
-5.01137e-09
-9.15826e-08
-9.934e-16
-5.48787e-09
-7.77655e-08
-9.20801e-16
-5.93236e-09
-6.23171e-08
-8.45144e-16
-6.33932e-09
-4.52118e-08
-7.7005e-16
-6.70174e-09
-2.64316e-08
-6.91328e-16
-7.00988e-09
-5.99705e-09
-6.11073e-16
-7.24185e-09
1.60813e-08
-5.33895e-16
-7.37628e-09
3.97129e-08
-4.59237e-16
-7.41089e-09
6.47016e-08
-3.86719e-16
-7.34801e-09
9.08011e-08
-3.17302e-16
-7.19262e-09
1.17779e-07
-2.49438e-16
-6.94878e-09
1.45179e-07
-1.81525e-16
-6.61932e-09
1.72613e-07
-1.88282e-16
-6.20719e-09
1.99451e-07
-2.04287e-16
-5.7164e-09
2.24987e-07
-1.45801e-16
-5.15271e-09
2.48388e-07
-1.04797e-16
-4.52524e-09
2.6843e-07
-6.13511e-17
-3.84673e-09
2.83805e-07
-1.29224e-16
-3.13462e-09
2.92867e-07
-1.12748e-16
-2.41227e-09
2.93515e-07
-1.14182e-16
-1.70982e-09
2.83238e-07
-1.09127e-16
-1.0652e-09
2.59029e-07
-7.62395e-17
-5.25437e-10
2.17062e-07
-1.08298e-16
-1.47452e-10
1.52765e-07
-7.40996e-17
6.02569e-08
-6.98343e-17
1.35686e-11
-7.01964e-09
1.4978e-15
5.17258e-11
-2.11964e-08
1.21021e-15
6.51997e-10
-3.69458e-08
5.49938e-16
3.57458e-10
-4.92181e-08
-1.35993e-14
7.64036e-10
-6.43569e-08
-1.6527e-14
1.74264e-09
-8.46023e-08
-1.94259e-15
1.91034e-09
-7.71817e-08
-4.82662e-15
2.18445e-09
-8.3919e-08
-4.61918e-15
2.4719e-09
-9.53949e-08
-4.2453e-15
2.58343e-09
-1.03062e-07
-4.25642e-15
2.52698e-09
-1.05397e-07
-4.08464e-15
2.49701e-09
-1.03822e-07
-3.43296e-15
2.57291e-09
-1.02656e-07
-2.91848e-15
2.66616e-09
-1.04242e-07
-2.51993e-15
2.70353e-09
-1.08284e-07
-2.48945e-15
2.66951e-09
-1.1376e-07
-2.25341e-15
2.56914e-09
-1.19831e-07
-2.06798e-15
2.41308e-09
-1.25903e-07
-2.03977e-15
2.21144e-09
-1.31602e-07
-1.94428e-15
1.97191e-09
-1.36713e-07
-2.00799e-15
1.69908e-09
-1.41122e-07
-1.97117e-15
1.39502e-09
-1.44784e-07
-1.91859e-15
1.06012e-09
-1.47643e-07
-1.82952e-15
6.93938e-10
-1.49692e-07
-1.78197e-15
2.9595e-10
-1.50883e-07
-1.69459e-15
-1.33923e-10
-1.51182e-07
-1.6585e-15
-5.94943e-10
-1.50537e-07
-1.61204e-15
-1.0853e-09
-1.48875e-07
-1.58163e-15
-1.60214e-09
-1.46154e-07
-1.55222e-15
-2.14137e-09
-1.42278e-07
-1.5542e-15
-2.69784e-09
-1.37188e-07
-1.32851e-15
-3.26548e-09
-1.30811e-07
-1.27354e-15
-3.83734e-09
-1.2307e-07
-1.2074e-15
-4.4059e-09
-1.13902e-07
-1.14029e-15
-4.96335e-09
-1.03244e-07
-1.07372e-15
-5.50187e-09
-9.10441e-08
-1.00478e-15
-6.01395e-09
-7.72534e-08
-9.33443e-16
-6.49256e-09
-6.18385e-08
-8.59374e-16
-6.93075e-09
-4.47736e-08
-7.86008e-16
-7.31993e-09
-2.60424e-08
-7.09141e-16
-7.64885e-09
-5.66803e-09
-6.30237e-16
-7.89779e-09
1.63303e-08
-5.53397e-16
-8.04741e-09
3.98626e-08
-4.78921e-16
-8.09228e-09
6.47465e-08
-4.05856e-16
-8.03189e-09
9.07408e-08
-3.34917e-16
-7.86932e-09
1.17617e-07
-2.6491e-16
-7.60804e-09
1.44917e-07
-1.92848e-16
-7.25107e-09
1.72256e-07
-1.99471e-16
-6.80202e-09
1.99002e-07
-2.16501e-16
-6.26566e-09
2.24451e-07
-1.51798e-16
-5.64873e-09
2.47771e-07
-1.04424e-16
-4.9615e-09
2.67743e-07
-5.28185e-17
-4.21811e-09
2.83062e-07
-1.22155e-16
-3.43777e-09
2.92086e-07
-9.85113e-17
-2.64607e-09
2.92723e-07
-9.42516e-17
-1.876e-09
2.82467e-07
-8.37396e-17
-1.16907e-09
2.58322e-07
-4.50379e-17
-5.76855e-10
2.1647e-07
-8.17235e-17
-1.61917e-10
1.5235e-07
-5.05772e-17
6.0095e-08
-5.1813e-17
1.35595e-11
-7.03319e-09
1.4722e-15
6.83957e-11
-2.12513e-08
-1.80386e-15
6.29262e-10
-3.75066e-08
-2.89378e-16
1.97357e-10
-4.87862e-08
-2.12401e-14
7.15873e-10
-6.48754e-08
-1.47543e-14
1.7218e-09
-8.56082e-08
7.76868e-16
1.93953e-09
-7.73994e-08
-7.59852e-15
2.20061e-09
-8.41801e-08
-6.77396e-15
2.46287e-09
-9.56572e-08
-6.3461e-15
2.54748e-09
-1.03146e-07
-6.21628e-15
2.47553e-09
-1.05325e-07
-5.67195e-15
2.43559e-09
-1.03782e-07
-4.60119e-15
2.496e-09
-1.02717e-07
-3.68694e-15
2.57247e-09
-1.04318e-07
-3.05844e-15
2.59743e-09
-1.08309e-07
-2.81815e-15
2.55566e-09
-1.13719e-07
-2.56728e-15
2.45083e-09
-1.19726e-07
-2.29384e-15
2.29204e-09
-1.25744e-07
-2.21326e-15
2.08795e-09
-1.31398e-07
-2.10924e-15
1.84505e-09
-1.3647e-07
-2.08095e-15
1.56702e-09
-1.40844e-07
-2.00034e-15
1.25527e-09
-1.44472e-07
-1.94455e-15
9.09762e-10
-1.47297e-07
-1.85987e-15
5.29776e-10
-1.49312e-07
-1.81125e-15
1.14688e-10
-1.50468e-07
-1.72369e-15
-3.35563e-10
-1.50732e-07
-1.68317e-15
-8.20105e-10
-1.50053e-07
-1.63344e-15
-1.3369e-09
-1.48358e-07
-1.60069e-15
-1.88277e-09
-1.45608e-07
-1.57082e-15
-2.45325e-09
-1.41707e-07
-1.57406e-15
-3.04279e-09
-1.36598e-07
-1.34259e-15
-3.64485e-09
-1.30208e-07
-1.28564e-15
-4.25208e-09
-1.22463e-07
-1.21863e-15
-4.85648e-09
-1.13298e-07
-1.15092e-15
-5.44979e-09
-1.0265e-07
-1.0843e-15
-6.02362e-09
-9.04703e-08
-1.01594e-15
-6.56977e-09
-7.67072e-08
-9.4595e-16
-7.08028e-09
-6.1328e-08
-8.73409e-16
-7.5469e-09
-4.43069e-08
-8.01463e-16
-7.95981e-09
-2.56295e-08
-7.26002e-16
-8.30678e-09
-5.32097e-09
-6.48107e-16
-8.56968e-09
1.65932e-08
-5.71405e-16
-8.73073e-09
4.00237e-08
-4.96845e-16
-8.78232e-09
6.47981e-08
-4.23143e-16
-8.7217e-09
9.06801e-08
-3.50912e-16
-8.55011e-09
1.17445e-07
-2.79165e-16
-8.27025e-09
1.44638e-07
-2.03396e-16
-7.88508e-09
1.71871e-07
-2.12014e-16
-7.39863e-09
1.98516e-07
-2.31273e-16
-6.81639e-09
2.23869e-07
-1.61418e-16
-6.14597e-09
2.47101e-07
-1.08558e-16
-5.39876e-09
2.66995e-07
-4.92963e-17
-4.59031e-09
2.82253e-07
-1.20007e-16
-3.74157e-09
2.91238e-07
-8.82789e-17
-2.88039e-09
2.91862e-07