/*--------------------------------*- C++ -*----------------------------------*\
| =========                 |                                                 |
| \\      /  F ield         | OpenFOAM: The Open Source CFD Toolbox           |
|  \\    /   O peration     | Version:  v2012                                 |
|   \\  /    A nd           | Website:  www.openfoam.com                      |
|    \\/     M anipulation  |                                                 |
\*---------------------------------------------------------------------------*/
FoamFile
{
    version     2.0;
    format      ascii;
    class       surfaceScalarField;
    location    "0.8";
    object      phi;
}
// * * * * * * * * * * * * * * * * * * * * * * * * * * * * * * * * * * * * * //

dimensions      [0 3 -1 0 0 0 0];
oriented        oriented;


internalField   nonuniform List<scalar> 
8135
(
-1.91654e-09
-2.75428e-08
-5.86182e-16
-1.22798e-09
-6.55637e-09
-4.1257e-16
-6.00196e-10
1.61464e-08
-1.08983e-16
-4.53699e-10
4.04705e-08
-6.03002e-17
-3.91808e-10
6.59705e-08
-4.52089e-17
-3.6497e-10
9.25273e-08
-3.83318e-17
-3.46668e-10
1.20021e-07
-3.53298e-17
-3.29821e-10
1.47989e-07
-2.77133e-17
-3.11564e-10
1.76043e-07
-3.85342e-17
-2.90821e-10
2.0354e-07
-5.10891e-17
-2.67169e-10
2.29761e-07
-5.2968e-17
-2.40573e-10
2.53861e-07
-5.05819e-17
-2.11297e-10
2.74595e-07
-4.62613e-17
-1.79848e-10
2.90633e-07
-4.63293e-17
-1.46988e-10
3.00289e-07
-4.24153e-17
-1.13755e-10
3.01402e-07
-3.82504e-17
-8.14685e-11
2.91357e-07
-3.33298e-17
-5.17596e-11
2.66991e-07
-2.66802e-17
-2.65547e-11
2.24233e-07
-2.30306e-17
-8.24812e-12
1.58185e-07
-1.62438e-17
6.25514e-08
-9.52306e-18
-2.14466e-09
-2.77306e-08
-5.93642e-16
-1.81131e-09
-6.88969e-09
-4.23865e-16
-1.47217e-09
1.58072e-08
-2.38668e-16
-1.27328e-09
4.02716e-08
-1.66173e-16
-1.15694e-09
6.58541e-08
-1.27789e-16
-1.09057e-09
9.2461e-08
-1.10238e-16
-1.03943e-09
1.1997e-07
-1.04748e-16
-9.89968e-10
1.47939e-07
-9.23911e-17
-9.3563e-10
1.75989e-07
-1.46521e-16
-8.73578e-10
2.03478e-07
-1.95403e-16
-8.02682e-10
2.2969e-07
-2.06895e-16
-7.22869e-10
2.53781e-07
-2.03391e-16
-6.34946e-10
2.74507e-07
-1.93452e-16
-5.40441e-10
2.90538e-07
-1.97479e-16
-4.41634e-10
3.0019e-07
-1.87578e-16
-3.41635e-10
3.01302e-07
-1.75248e-16
-2.44419e-10
2.9126e-07
-1.57528e-16
-1.5488e-10
2.66901e-07
-1.30249e-16
-7.89774e-11
2.24157e-07
-1.09523e-16
-2.39216e-11
1.58129e-07
-7.59622e-17
6.25275e-08
-4.49293e-17
-2.49676e-09
-2.78141e-08
-6.17814e-16
-2.35827e-09
-7.02816e-09
-4.60839e-16
-2.1922e-09
1.56412e-08
-3.20564e-16
-2.02528e-09
4.01047e-08
-2.32016e-16
-1.89734e-09
6.57262e-08
-1.74984e-16
-1.80716e-09
9.23708e-08
-1.46803e-16
-1.72905e-09
1.19892e-07
-1.37811e-16
-1.64933e-09
1.4786e-07
-1.26388e-16
-1.55996e-09
1.759e-07
-1.97126e-16
-1.45709e-09
2.03375e-07
-2.55632e-16
-1.33917e-09
2.29572e-07
-2.66371e-16
-1.20619e-09
2.53648e-07
-2.61242e-16
-1.05957e-09
2.7436e-07
-2.48442e-16
-9.01855e-10
2.9038e-07
-2.59288e-16
-7.36856e-10
3.00025e-07
-2.47013e-16
-5.6975e-10
3.01135e-07
-2.3198e-16
-4.07176e-10
2.91097e-07
-2.08915e-16
-2.57353e-10
2.66751e-07
-1.7149e-16
-1.30393e-10
2.2403e-07
-1.45226e-16
-3.87346e-11
1.58038e-07
-9.81431e-17
6.24887e-08
-5.72736e-17
-2.90965e-09
-2.78045e-08
-6.4753e-16
-2.89721e-09
-7.04057e-09
-4.99598e-16
-2.84361e-09
1.55876e-08
-3.756e-16
-2.72792e-09
3.9989e-08
-2.77074e-16
-2.61243e-09
6.56107e-08
-2.0642e-16
-2.51207e-09
9.22704e-08
-1.68027e-16
-2.41369e-09
1.19793e-07
-1.54701e-16
-2.30688e-09
1.47753e-07
-1.41734e-16
-2.184e-09
1.75777e-07
-2.07218e-16
-2.04107e-09
2.03232e-07
-2.59861e-16
-1.87646e-09
2.29408e-07
-2.64294e-16
-1.69045e-09
2.53462e-07
-2.56323e-16
-1.48511e-09
2.74155e-07
-2.40172e-16
-1.26407e-09
2.90159e-07
-2.58188e-16
-1.03268e-09
2.99794e-07
-2.45254e-16
-7.98189e-10
3.009e-07
-2.30543e-16
-5.69932e-10
2.90869e-07
-2.07431e-16
-3.59501e-10
2.66541e-07
-1.67436e-16
-1.81282e-10
2.23852e-07
-1.45713e-16
-5.31684e-11
1.5791e-07
-9.56593e-17
6.24356e-08
-5.21923e-17
-3.3626e-09
-2.77162e-08
-6.80771e-16
-3.43656e-09
-6.96657e-09
-5.40261e-16
-3.4604e-09
1.56114e-08
-4.22428e-16
-3.39822e-09
3.99269e-08
-3.18481e-16
-3.30623e-09
6.55188e-08
-2.38232e-16
-3.20539e-09
9.21696e-08
-1.8957e-16
-3.09272e-09
1.19681e-07
-1.69151e-16
-2.96208e-09
1.47622e-07
-1.47959e-16
-2.80742e-09
1.75622e-07
-1.84954e-16
-2.62529e-09
2.0305e-07
-2.20032e-16
-2.41444e-09
2.29197e-07
-2.14353e-16
-2.17556e-09
2.53223e-07
-2.02425e-16
-1.91152e-09
2.73891e-07
-1.82147e-16
-1.62706e-09
2.89875e-07
-2.06507e-16
-1.3291e-09
2.99496e-07
-1.92813e-16
-1.02699e-09
3.00598e-07
-1.80042e-16
-7.32774e-10
2.90575e-07
-1.6081e-16
-4.61477e-10
2.6627e-07
-1.24873e-16
-2.31855e-10
2.23622e-07
-1.16206e-16
-6.73871e-11
1.57745e-07
-7.22152e-17
6.23682e-08
-3.3115e-17
-3.8454e-09
-2.75624e-08
-7.15067e-16
-3.98168e-09
-6.83025e-09
-5.82956e-16
-4.06212e-09
1.56919e-08
-4.69529e-16
-4.04893e-09
3.99137e-08
-3.64142e-16
-3.98421e-09
6.54541e-08
-2.78066e-16
-3.88885e-09
9.20742e-08
-2.19856e-16
-3.76648e-09
1.19558e-07
-1.8946e-16
-3.61488e-09
1.47471e-07
-1.54339e-16
-3.43009e-09
1.75437e-07
-1.56402e-16
-3.20969e-09
2.02829e-07
-1.71603e-16
-2.95304e-09
2.2894e-07
-1.53778e-16
-2.6615e-09
2.52931e-07
-1.36015e-16
-2.33877e-09
2.73568e-07
-1.09244e-16
-1.99081e-09
2.89527e-07
-1.37054e-16
-1.62612e-09
2.99131e-07
-1.19779e-16
-1.25618e-09
3.00228e-07
-1.07129e-16
-8.95773e-10
2.90214e-07
-9.17223e-17
-5.63396e-10
2.65937e-07
-6.20623e-17
-2.82253e-10
2.23341e-07
-7.08138e-17
-8.14806e-11
1.57544e-07
-3.79402e-17
6.22867e-08
-6.94935e-18
-4.35269e-09
-2.73539e-08
-7.47418e-16
-4.53662e-09
-6.64626e-09
-6.23956e-16
-4.66059e-09
1.58159e-08
-5.15533e-16
-4.68962e-09
3.99428e-08
-4.11852e-16
-4.65182e-09
6.54163e-08
-3.23432e-16
-4.56491e-09
9.19873e-08
-2.57501e-16
-4.43592e-09
1.19429e-07
-2.16211e-16
-4.26562e-09
1.473e-07
-1.64777e-16
-4.05215e-09
1.75224e-07
-1.39934e-16
-3.79429e-09
2.02571e-07
-1.40821e-16
-3.49228e-09
2.28638e-07
-1.11706e-16
-3.14824e-09
2.52587e-07
-8.67497e-17
-2.76686e-09
2.73187e-07
-5.11617e-17
-2.35532e-09
2.89115e-07
-7.94051e-17
-1.92376e-09
2.987e-07
-5.51747e-17
-1.4858e-09
2.9979e-07
-3.94179e-17
-1.05899e-09
2.89788e-07
-2.51559e-17
-6.65354e-10
2.65544e-07
-6.86281e-20
-3.32587e-10
2.23008e-07
-2.53837e-17
-9.55227e-11
1.57307e-07
-3.53164e-18
6.21912e-08
1.88543e-17
-4.88193e-09
-2.70993e-08
-7.76112e-16
-5.10417e-09
-6.42396e-09
-6.59982e-16
-5.26291e-09
1.59746e-08
-5.56418e-16
-5.3273e-09
4.00072e-08
-4.56016e-16
-5.31395e-09
6.5403e-08
-3.67742e-16
-5.23629e-09
9.19097e-08
-2.96447e-16
-5.10238e-09
1.19296e-07
-2.45105e-16
-4.91494e-09
1.47113e-07
-1.79794e-16
-4.67388e-09
1.74983e-07
-1.40821e-16
-4.37924e-09
2.02277e-07
-1.35672e-16
-4.03222e-09
2.28291e-07
-9.79896e-17
-3.63584e-09
2.52191e-07
-6.66601e-17
-3.1958e-09
2.72747e-07
-2.21576e-17
-2.7206e-09
2.8864e-07
-4.96901e-17
-2.22203e-09
2.98201e-07
-1.63087e-17
-1.71588e-09
2.99284e-07
5.63289e-18
-1.22248e-09
2.89294e-07
2.24515e-17
-7.67423e-10
2.65089e-07
4.69087e-17
-3.82936e-10
2.22624e-07
8.63394e-18
-1.0956e-10
1.57034e-07
2.29316e-17
6.20816e-08
3.909e-17
-5.4321e-09
-2.68054e-08
-8.01029e-16
-5.68626e-09
-6.16974e-09
-6.90002e-16
-5.87354e-09
1.61619e-08
-5.90066e-16
-5.96704e-09
4.01008e-08
-4.9288e-16
-5.97473e-09
6.54107e-08
-4.05943e-16
-5.90566e-09
9.18406e-08
-3.31336e-16
-5.7674e-09
1.19157e-07
-2.72045e-16
-5.56367e-09
1.46909e-07
-1.96911e-16
-5.29572e-09
1.74715e-07
-1.58477e-16
-4.96476e-09
2.01946e-07
-1.55297e-16
-4.57299e-09
2.27899e-07
-1.12027e-16
-4.12433e-09
2.51743e-07
-7.55533e-17
-3.62563e-09
2.72248e-07
-2.29448e-17
-3.08667e-09
2.88101e-07
-5.01355e-17
-2.52094e-09
2.97636e-07
-7.13358e-18
-1.94643e-09
2.9871e-07
2.25221e-17
-1.38629e-09
2.88734e-07
4.46644e-17
-8.69664e-10
2.64572e-07
7.24476e-17
-4.3336e-10
2.22188e-07
2.61883e-17
-1.23625e-10
1.56724e-07
3.76662e-17
6.1958e-08
5.09497e-17
-6.00286e-09
-2.64774e-08
-8.22914e-16
-6.28429e-09
-5.88824e-09
-7.14838e-16
-6.49538e-09
1.6373e-08
-6.16893e-16
-6.61255e-09
4.0218e-08
-5.2195e-16
-6.63753e-09
6.54357e-08
-4.36422e-16
-6.57546e-09
9.17786e-08
-3.59841e-16
-6.43252e-09
1.19015e-07
-2.94799e-16
-6.21272e-09
1.46689e-07
-2.14574e-16
-5.9182e-09
1.7442e-07
-1.84222e-16
-5.55116e-09
2.01579e-07
-1.87725e-16
-5.11473e-09
2.27463e-07
-1.41184e-16
-4.61383e-09
2.51242e-07
-1.01757e-16
-4.05638e-09
2.71691e-07
-4.35017e-17
-3.45354e-09
2.87498e-07
-7.26491e-17
-2.82051e-09
2.97003e-07
-2.15543e-17
-2.17749e-09
2.98067e-07
1.54138e-17
-1.55044e-09
2.88107e-07
4.39415e-17
-9.72118e-10
2.63994e-07
7.76735e-17
-4.83902e-10
2.21699e-07
2.73195e-17
-1.37741e-10
1.56378e-07
4.01769e-17
6.18202e-08
5.37491e-17
-6.59421e-09
-2.61193e-08
-8.42586e-16
-6.89931e-09
-5.58306e-09
-7.35947e-16
-7.1304e-09
1.66041e-08
-6.38673e-16
-7.26654e-09
4.03542e-08
-5.4482e-16
-7.30509e-09
6.54743e-08
-4.60159e-16
-7.24784e-09
9.17213e-08
-3.82215e-16
-7.09926e-09
1.18866e-07
-3.1316e-16
-6.86306e-09
1.46453e-07
-2.30261e-16
-6.54191e-09
1.74099e-07
-2.12146e-16
-6.13877e-09
2.01176e-07
-2.23873e-16
-5.65766e-09
2.26982e-07
-1.75065e-16
-5.10441e-09
2.50688e-07
-1.34039e-16
-4.48811e-09
2.71074e-07
-7.22128e-17
-3.82125e-09
2.86832e-07
-1.05882e-16
-3.12076e-09
2.96302e-07
-4.91048e-17
-2.40907e-09
2.97355e-07
-6.5907e-18
-1.71497e-09
2.87413e-07
2.77334e-17
-1.07482e-09
2.63353e-07
6.83108e-17
-5.34591e-10
2.21159e-07
1.6427e-17
-1.51921e-10
1.55995e-07
3.33823e-17
6.16683e-08
4.95004e-17
-7.20633e-09
-2.57347e-08
-8.6053e-16
-7.53211e-09
-5.25719e-09
-7.54554e-16
-7.77999e-09
1.6852e-08
-6.57211e-16
-7.93101e-09
4.05053e-08
-5.63574e-16
-7.97955e-09
6.55229e-08
-4.79095e-16
-7.92466e-09
9.16664e-08
-3.99933e-16
-7.76897e-09
1.1871e-07
-3.27963e-16
-7.51563e-09
1.462e-07
-2.44184e-16
-7.16745e-09
1.73751e-07
-2.37072e-16
-6.72797e-09
2.00736e-07
-2.56211e-16
-6.20199e-09
2.26456e-07
-2.04734e-16
-5.59622e-09
2.50083e-07
-1.62689e-16
-4.92087e-09
2.70399e-07
-9.89048e-17
-4.18981e-09
2.86101e-07
-1.39491e-16
-3.4217e-09
2.95534e-07
-7.9641e-17
-2.64118e-09
2.96575e-07
-3.3979e-17
-1.87988e-09
2.86652e-07
4.45782e-18
-1.17779e-09
2.62651e-07
5.11926e-17
-5.85445e-10
2.20567e-07
-1.41894e-18
-1.66173e-10
1.55576e-07
2.06599e-17
6.15022e-08
4.02047e-17
-7.83943e-09
-2.53263e-08
-8.76881e-16
-8.1833e-09
-4.91322e-09
-7.7134e-16
-8.44513e-09
1.71139e-08
-6.737e-16
-8.60745e-09
4.06677e-08
-5.79801e-16
-8.66259e-09
6.55781e-08
-4.94947e-16
-8.60745e-09
9.16113e-08
-4.14519e-16
-8.4429e-09
1.18546e-07
-3.40344e-16
-8.1713e-09
1.45928e-07
-2.55384e-16
-7.7954e-09
1.73375e-07
-2.56999e-16
-7.31912e-09
2.0026e-07
-2.81437e-16
-6.74793e-09
2.25885e-07
-2.26499e-16
-6.08937e-09
2.49424e-07
-1.83279e-16
-5.35474e-09
2.69664e-07
-1.18174e-16
-4.55927e-09
2.85305e-07
-1.67176e-16
-3.72335e-09
2.94698e-07
-1.06241e-16
-2.87383e-09
2.95725e-07
-5.95865e-17
-2.0452e-09
2.85823e-07
-1.89287e-17
-1.28104e-09
2.61887e-07
3.26404e-17
-6.36476e-10
2.19922e-07
-2.10316e-17
-1.805e-10
1.5512e-07
6.11877e-18
6.13217e-08
2.91875e-17
-8.49373e-09
-2.48967e-08
-8.91592e-16
-8.85335e-09
-4.5535e-09
-7.86543e-16
-9.12654e-09
1.73871e-08
-6.88678e-16
-9.29696e-09
4.08382e-08
-5.9435e-16
-9.35553e-09
6.56367e-08
-5.08773e-16
-9.29748e-09
9.15533e-08
-4.27e-16
-9.12208e-09
1.18371e-07
-3.50955e-16
-8.83086e-09
1.45637e-07
-2.65321e-16
-8.42631e-09
1.72971e-07
-2.72089e-16
-7.91258e-09
1.99747e-07
-2.99963e-16
-7.29569e-09
2.25268e-07
-2.40078e-16
-6.58397e-09
2.48713e-07
-1.94693e-16
-5.78976e-09
2.6887e-07
-1.2794e-16
-4.92965e-09
2.84445e-07
-1.85848e-16
-4.02571e-09
2.93794e-07
-1.24952e-16
-3.10702e-09
2.94806e-07
-7.89008e-17
-2.21091e-09
2.84927e-07
-3.77658e-17
-1.38457e-09
2.61061e-07
1.69234e-17
-6.87686e-10
2.19225e-07
-3.88819e-17
-1.94903e-10
1.54627e-07
-7.53174e-18
6.11267e-08
1.82282e-17
-9.16945e-09
-2.44482e-08
-9.04569e-16
-9.54261e-09
-4.18023e-09
-8.0017e-16
-9.82473e-09
1.76693e-08
-7.02256e-16
-1.00003e-08
4.10139e-08
-6.075e-16
-1.00593e-08
6.56958e-08
-5.21019e-16
-9.99575e-09
9.14897e-08
-4.37872e-16
-9.80741e-09
1.18182e-07
-3.60258e-16
-9.49499e-09
1.45325e-07
-2.72902e-16
-9.06066e-09
1.72537e-07
-2.82905e-16
-8.50867e-09
1.99195e-07
-3.1297e-16
-7.84548e-09
2.24605e-07
-2.47439e-16
-7.08014e-09
2.47947e-07
-1.99159e-16
-6.226e-09
2.68016e-07
-1.30135e-16
-5.30095e-09
2.8352e-07
-1.96749e-16
-4.32877e-09
2.92822e-07
-1.36098e-16
-3.34075e-09
2.93818e-07
-9.12991e-17
-2.37703e-09
2.83963e-07
-5.05978e-17
-1.48839e-09
2.60172e-07
6.18558e-18
-7.39075e-10
2.18476e-07
-5.28737e-17
-2.09382e-10
1.54098e-07
-1.82528e-17
6.09174e-08
9.39804e-18
-9.86675e-09
-2.39829e-08
-9.15793e-16
-1.02513e-08
-3.79555e-09
-8.12189e-16
-1.05401e-08
1.7958e-08
-7.14381e-16
-1.07181e-08
4.11921e-08
-6.19251e-16
-1.07748e-08
6.57526e-08
-5.31777e-16
-1.0703e-08
9.1418e-08
-4.47256e-16
-1.04996e-08
1.17979e-07
-3.68094e-16
-1.01643e-08
1.44989e-07
-2.79385e-16
-9.69888e-09
1.72071e-07
-2.90906e-16
-9.10767e-09
1.98604e-07
-3.23094e-16
-8.39747e-09
2.23894e-07
-2.51002e-16
-7.57797e-09
2.47128e-07
-1.98787e-16
-6.66349e-09
2.67102e-07
-1.26502e-16
-5.6732e-09
2.8253e-07
-2.01062e-16
-4.63255e-09
2.91781e-07
-1.40296e-16
-3.57501e-09
2.92761e-07
-9.68519e-17
-2.54354e-09
2.82932e-07
-5.70527e-17
-1.59248e-09
2.59221e-07
1.06614e-18
-7.9064e-10
2.17674e-07
-6.22059e-17
-2.23932e-10
1.53531e-07
-2.53537e-17
6.06934e-08
3.11431e-18
-1.05857e-08
-2.3503e-08
-9.25342e-16
-1.09796e-08
-3.40154e-09
-8.22626e-16
-1.12728e-08
1.82512e-08
-7.25009e-16
-1.14507e-08
4.13701e-08
-6.29531e-16
-1.15023e-08
6.58043e-08
-5.41026e-16
-1.14199e-08
9.13356e-08
-4.55154e-16
-1.11991e-08
1.17759e-07
-3.74583e-16
-1.08392e-08
1.44629e-07
-2.83406e-16
-1.03413e-08
1.71574e-07
-2.96872e-16
-9.70981e-09
1.97972e-07
-3.31547e-16
-8.9518e-09
2.23136e-07
-2.53368e-16
-8.07753e-09
2.46254e-07
-1.97066e-16
-7.10225e-09
2.66126e-07
-1.20902e-16
-6.04638e-09
2.81474e-07
-2.02691e-16
-4.93701e-09
2.90672e-07
-1.41063e-16
-3.80977e-09
2.91634e-07
-9.83977e-17
-2.71041e-09
2.81832e-07
-5.91274e-17
-1.69684e-09
2.58208e-07
5.64308e-19
-8.42371e-10
2.1682e-07
-6.72269e-17
-2.38552e-10
1.52927e-07
-2.88562e-17
6.04549e-08
-2.03342e-19
-1.13264e-08
-2.30104e-08
-9.33413e-16
-1.17276e-08
-3.00026e-09
-8.31614e-16
-1.20229e-08
1.85466e-08
-7.34185e-16
-1.21982e-08
4.15456e-08
-6.38337e-16
-1.22423e-08
6.58484e-08
-5.48746e-16
-1.21468e-08
9.124e-08
-4.61544e-16
-1.19065e-08
1.17518e-07
-3.79453e-16
-1.152e-08
1.44243e-07
-2.86287e-16
-1.09882e-08
1.71042e-07
-3.01553e-16
-1.03153e-08
1.97299e-07
-3.39425e-16
-9.50856e-09
2.2233e-07
-2.55597e-16
-8.57886e-09
2.45324e-07
-1.94978e-16
-7.54229e-09
2.6509e-07
-1.14322e-16
-6.42048e-09
2.80352e-07
-2.02686e-16
-5.24213e-09
2.89494e-07
-1.39494e-16
-4.04501e-09
2.90437e-07
-9.70441e-17
-2.87764e-09
2.80665e-07
-5.78902e-17
-1.80145e-09
2.57131e-07
3.64751e-18
-8.94258e-10
2.15913e-07
-6.86344e-17
-2.53234e-10
1.52286e-07
-2.93482e-17
6.02016e-08
-1.09788e-18
-1.20888e-08
-2.25073e-08
-9.40299e-16
-1.24951e-08
-2.59381e-09
-8.39355e-16
-1.27904e-08
1.88419e-08
-7.42049e-16
-1.29608e-08
4.17161e-08
-6.45758e-16
-1.29949e-08
6.58826e-08
-5.55018e-16
-1.28838e-08
9.1129e-08
-4.66493e-16
-1.26218e-08
1.17257e-07
-3.82947e-16
-1.2207e-08
1.43828e-07
-2.86849e-16
-1.16397e-08
1.70475e-07
-3.0529e-16
-1.09241e-08
1.96584e-07
-3.47365e-16
-1.00678e-08
2.21474e-07
-2.59041e-16
-9.08197e-09
2.44338e-07
-1.94678e-16
-7.98359e-09
2.63992e-07
-1.09509e-16
-6.79546e-09
2.79164e-07
-2.04144e-16
-5.54786e-09
2.88246e-07
-1.38721e-16
-4.28069e-09
2.89169e-07
-9.56795e-17
-3.04518e-09
2.7943e-07
-5.57989e-17
-1.90629e-09
2.55993e-07
8.38233e-18
-9.46288e-10
2.14953e-07
-6.77073e-17
-2.67976e-10
1.51608e-07
-2.7786e-17
5.99337e-08
-8.14341e-20
-1.28728e-08
-2.19956e-08
-9.46329e-16
-1.32821e-08
-2.18429e-09
-8.46119e-16
-1.35752e-08
1.9135e-08
-7.48796e-16
-1.37384e-08
4.18794e-08
-6.51963e-16
-1.376e-08
6.59043e-08
-5.59996e-16
-1.36311e-08
9.10001e-08
-4.70128e-16
-1.33453e-08
1.16971e-07
-3.8495e-16
-1.29002e-08
1.43383e-07
-2.86356e-16
-1.2296e-08
1.69871e-07
-3.0804e-16
-1.15365e-08
1.95824e-07
-3.55672e-16
-1.06295e-08
2.20567e-07
-2.63261e-16
-9.58683e-09
2.43296e-07
-1.95435e-16
-8.4261e-09
2.62831e-07
-1.05757e-16
-7.17126e-09
2.77909e-07
-2.06541e-16
-5.85417e-09
2.86929e-07
-1.38541e-16
-4.51676e-09
2.87832e-07
-9.44792e-17
-3.213e-09
2.78126e-07
-5.34373e-17
-2.01132e-09
2.54791e-07
1.38092e-17
-9.98445e-10
2.1394e-07
-6.52538e-17
-2.82771e-10
1.50892e-07
-2.49568e-17
5.96509e-08
2.13836e-18
-1.3678e-08
-2.14775e-08
-9.51809e-16
-1.40883e-08
-1.77383e-09
-8.52179e-16
-1.4377e-08
1.94238e-08
-7.54679e-16
-1.45306e-08
4.20331e-08
-6.57183e-16
-1.45376e-08
6.59113e-08
-5.63895e-16
-1.43886e-08
9.08511e-08
-4.72621e-16
-1.40769e-08
1.16659e-07
-3.85825e-16
-1.35997e-08
1.42906e-07
-2.83853e-16
-1.29569e-08
1.69228e-07
-3.10204e-16
-1.21522e-08
1.9502e-07
-3.64135e-16
-1.11937e-08
2.19608e-07
-2.68672e-16
-1.00934e-08
2.42195e-07
-1.98156e-16
-8.86975e-09
2.61607e-07
-1.04397e-16
-7.54782e-09
2.76587e-07
-2.1151e-16
-6.16096e-09
2.85542e-07
-1.40707e-16
-4.75316e-09
2.86424e-07
-9.51594e-17
-3.38106e-09
2.76754e-07
-5.23751e-17
-2.11652e-09
2.53526e-07
1.84106e-17
-1.05071e-09
2.12874e-07
-6.25534e-17
-2.97612e-10
1.50139e-07
-2.17774e-17
5.93533e-08
4.8798e-18
-1.45043e-08
-2.09553e-08
-9.5704e-16
-1.49133e-08
-1.36462e-09
-8.57818e-16
-1.51955e-08
1.97059e-08
-7.59972e-16
-1.53373e-08
4.21751e-08
-6.61667e-16
-1.53273e-08
6.59014e-08
-5.66953e-16
-1.5156e-08
9.06798e-08
-4.74206e-16
-1.48164e-08
1.1632e-07
-3.85564e-16
-1.43053e-08
1.42395e-07
-2.80328e-16
-1.36224e-08
1.68545e-07
-3.11556e-16
-1.27713e-08
1.94169e-07
-3.75219e-16
-1.17602e-08
2.18597e-07
-2.74256e-16
-1.06015e-08
2.41037e-07
-2.01413e-16
-9.31442e-09
2.6032e-07
-1.03837e-16
-7.92503e-09
2.75198e-07
-2.17519e-16
-6.46816e-09
2.84086e-07
-1.43962e-16
-4.98982e-09
2.84946e-07
-9.68813e-17
-3.54929e-09
2.75313e-07
-5.22969e-17
-2.22186e-09
2.52199e-07
2.18816e-17
-1.10307e-09
2.11755e-07
-5.66828e-17
-3.12493e-10
1.49349e-07
-1.87679e-17
5.90408e-08
7.74745e-18
-1.53511e-08
-2.0431e-08
-9.62322e-16
-1.57567e-08
-9.58885e-10
-8.63301e-16
-1.603e-08
1.99793e-08
-7.64933e-16
-1.61579e-08
4.23031e-08
-6.65676e-16
-1.61287e-08
6.58723e-08
-5.69437e-16
-1.5933e-08
9.04841e-08
-4.75115e-16
-1.55635e-08
1.15951e-07
-3.84547e-16
-1.50168e-08
1.41848e-07
-2.7548e-16
-1.42923e-08
1.67821e-07
-3.12281e-16
-1.33936e-08
1.9327e-07
-3.80824e-16
-1.23289e-08
2.17532e-07
-2.80227e-16
-1.11111e-08
2.39819e-07
-2.05664e-16
-9.76e-09
2.58969e-07
-1.04745e-16
-8.30277e-09
2.73741e-07
-2.25372e-16
-6.77566e-09
2.82559e-07
-1.4914e-16
-5.22666e-09
2.83397e-07
-1.00412e-16
-3.71765e-09
2.73804e-07
-5.38578e-17
-2.32728e-09
2.50809e-07
2.33964e-17
-1.15549e-09
2.10583e-07
-5.33898e-17
-3.27407e-10
1.4852e-07
-1.64275e-17
5.87134e-08
1.02332e-17
-1.6218e-08
-1.99071e-08
-9.6793e-16
-1.66178e-08
-5.58866e-10
-8.68857e-16
-1.68801e-08
2.02417e-08
-7.69794e-16
-1.69918e-08
4.24149e-08
-6.69429e-16
-1.69414e-08
6.5822e-08
-5.71577e-16
-1.67192e-08
9.0262e-08
-4.7557e-16
-1.63179e-08
1.1555e-07
-3.82825e-16
-1.57339e-08
1.41264e-07
-2.67126e-16
-1.49663e-08
1.67053e-07
-3.12191e-16
-1.40188e-08
1.92323e-07
-3.88333e-16
-1.28996e-08
2.16413e-07
-2.85699e-16
-1.16219e-08
2.38541e-07
-2.09652e-16
-1.02063e-08
2.57554e-07
-1.0558e-16
-8.68089e-09
2.72215e-07
-2.33434e-16
-7.08335e-09
2.80961e-07
-1.5472e-16
-5.46358e-09
2.81777e-07
-1.04521e-16
-3.88605e-09
2.72227e-07
-5.62228e-17
-2.43275e-09
2.49355e-07
2.31988e-17
-1.20796e-09
2.09359e-07
-5.98344e-17
-3.42347e-10
1.47655e-07
-1.48083e-17
5.8371e-08
1.23879e-17
-1.7104e-08
-1.93859e-08
-9.74059e-16
-1.74958e-08
-1.66849e-10
-8.74686e-16
-1.7745e-08
2.04909e-08
-7.74745e-16
-1.78383e-08
4.25085e-08
-6.73148e-16
-1.77646e-08
6.57483e-08
-5.73589e-16
-1.7514e-08
9.00115e-08
-4.75778e-16
-1.70791e-08
1.15115e-07
-3.80658e-16
-1.64562e-08
1.40641e-07
-2.57091e-16
-1.56441e-08
1.66241e-07
-3.11534e-16
-1.46465e-08
1.91326e-07
-3.95191e-16
-1.34719e-08
2.15239e-07
-2.91053e-16
-1.21337e-08
2.37203e-07
-2.13856e-16
-1.06531e-08
2.56073e-07
-1.06915e-16
-9.05923e-09
2.70622e-07
-2.42299e-16
-7.39108e-09
2.79293e-07
-1.61235e-16
-5.70048e-09
2.80087e-07
-1.09599e-16
-4.05442e-09
2.70581e-07
-5.95848e-17
-2.53822e-09
2.47839e-07
2.2138e-17
-1.26045e-09
2.08081e-07
-6.21748e-17
-3.57303e-10
1.46752e-07
-1.40418e-17
5.80137e-08
1.39158e-17
-1.80085e-08
-1.88698e-08
-9.80834e-16
-1.839e-08
2.14862e-10
-8.80921e-16
-1.86237e-08
2.07246e-08
-7.7994e-16
-1.86967e-08
4.25816e-08
-6.7699e-16
-1.85976e-08
6.56493e-08
-5.75652e-16
-1.83168e-08
8.97307e-08
-4.75914e-16
-1.78465e-08
1.14645e-07
-3.78049e-16
-1.7183e-08
1.39978e-07
-2.52018e-16
-1.63252e-08
1.65383e-07
-3.10385e-16
-1.52765e-08
1.90277e-07
-4.01872e-16
-1.40456e-08
2.14008e-07
-2.95904e-16
-1.26462e-08
2.35804e-07
-2.17456e-16
-1.11002e-08
2.54527e-07
-1.07639e-16
-9.43758e-09
2.68959e-07
-2.50693e-16
-7.69869e-09
2.77554e-07
-1.67419e-16
-5.93723e-09
2.78325e-07
-1.14534e-16
-4.22268e-09
2.68866e-07
-6.30495e-17
-2.64363e-09
2.4626e-07
2.0863e-17
-1.31293e-09
2.0675e-07
-6.50523e-17
-3.72269e-10
1.45811e-07
-1.37438e-17
5.76415e-08
1.51674e-17
-1.89303e-08
-1.83612e-08
-9.88317e-16
-1.92992e-08
5.83963e-10
-8.87643e-16
-1.95153e-08
2.09408e-08
-7.85481e-16
-1.95658e-08
4.26323e-08
-6.81092e-16
-1.94395e-08
6.55231e-08
-5.77917e-16
-1.91266e-08
8.94179e-08
-4.76147e-16
-1.86194e-08
1.14138e-07
-3.75494e-16
-1.7914e-08
1.39273e-07
-2.45456e-16
-1.7009e-08
1.64479e-07
-3.09226e-16
-1.59083e-08
1.89176e-07
-4.08604e-16
-1.46203e-08
2.1272e-07
-3.00624e-16
-1.31592e-08
2.34343e-07
-2.20978e-16
-1.15474e-08
2.52915e-07
-1.08363e-16
-9.81574e-09
2.67227e-07
-2.59239e-16
-8.00602e-09
2.75745e-07
-1.73807e-16
-6.1737e-09
2.76493e-07
-1.19705e-16
-4.39072e-09
2.67083e-07
-6.68105e-17
-2.74892e-09
2.44618e-07
1.92781e-17
-1.36536e-09
2.05367e-07
-6.83565e-17
-3.87233e-10
1.44833e-07
-1.38937e-17
5.72542e-08
1.59116e-17
-1.98683e-08
-1.78626e-08
-9.96513e-16
-2.02223e-08
9.38161e-10
-8.94884e-16
-2.04187e-08
2.11373e-08
-7.91438e-16
-2.04448e-08
4.26586e-08
-6.85546e-16
-2.02893e-08
6.53677e-08
-5.80501e-16
-1.99426e-08
8.90713e-08
-4.76635e-16
-1.93969e-08
1.13593e-07
-3.73227e-16
-1.86482e-08
1.38524e-07
-2.37911e-16
-1.76952e-08
1.63526e-07
-3.08357e-16
-1.65413e-08
1.88023e-07
-4.15383e-16
-1.51955e-08
2.11374e-07
-3.05025e-16
-1.36722e-08
2.3282e-07
-2.23959e-16
-1.19942e-08
2.51238e-07
-1.08381e-16
-1.01935e-08
2.65427e-07
-2.67072e-16
-8.31286e-09
2.73864e-07
-1.79506e-16
-6.40974e-09
2.7459e-07
-1.24281e-16
-4.55845e-09
2.65232e-07
-7.01499e-17
-2.85402e-09
2.42914e-07
1.81274e-17
-1.41772e-09
2.0393e-07
-7.12236e-17
-4.02187e-10
1.43817e-07
-1.40064e-17
5.68521e-08
1.66348e-17
-2.08211e-08
-1.73764e-08
-1.00536e-15
-2.11579e-08
1.2752e-09
-9.02631e-16
-2.13325e-08
2.1312e-08
-7.97842e-16
-2.13323e-08
4.26585e-08
-6.90425e-16
-2.11459e-08
6.51815e-08
-5.83488e-16
-2.0764e-08
8.86893e-08
-4.77453e-16
-2.01783e-08
1.13007e-07
-3.71365e-16
-1.93851e-08
1.37731e-07
-2.31269e-16
-1.83828e-08
1.62524e-07
-3.07998e-16
-1.71751e-08
1.86815e-07
-4.22306e-16
-1.57709e-08
2.0997e-07
-3.09417e-16
-1.41848e-08
2.31234e-07
-2.26873e-16
-1.24405e-08
2.49493e-07
-1.08267e-16
-1.05704e-08
2.63557e-07
-2.74813e-16
-8.61901e-09
2.71913e-07
-1.85083e-16
-6.6452e-09
2.72616e-07
-1.28693e-16
-4.72576e-09
2.63313e-07
-7.32597e-17
-2.95887e-09
2.41147e-07
1.28603e-17
-1.46998e-09
2.02441e-07
-7.37271e-17
-4.1712e-10
1.42765e-07
-1.42055e-17
5.64349e-08
1.70709e-17
-2.17872e-08
-1.69051e-08
-1.01474e-15
-2.21046e-08
1.59287e-09
-9.10834e-16
-2.22554e-08
2.14629e-08
-8.04699e-16
-2.2227e-08
4.26303e-08
-6.95766e-16
-2.20082e-08
6.49628e-08
-5.86947e-16
-2.15894e-08
8.82706e-08
-4.78684e-16
-2.09626e-08
1.12381e-07
-3.69808e-16
-2.01237e-08
1.36892e-07
-2.2486e-16
-1.90713e-08
1.61471e-07
-3.07923e-16
-1.7809e-08
1.85553e-07
-4.29436e-16
-1.63458e-08
2.08507e-07
-3.13744e-16
-1.46967e-08
2.29585e-07
-2.29466e-16
-1.28857e-08
2.47682e-07
-1.07549e-16
-1.09464e-08
2.61618e-07
-2.81886e-16
-8.92424e-09
2.69891e-07
-1.89931e-16
-6.8799e-09
2.70572e-07
-1.32357e-16
-4.89252e-09
2.61325e-07
-7.56203e-17
-3.06339e-09
2.39318e-07
8.92631e-18
-1.52208e-09
2.009e-07
-7.54185e-17
-4.32021e-10
1.41675e-07
-1.40269e-17
5.60029e-08
1.77692e-17
-2.27647e-08
-1.64511e-08
-1.0245e-15
-2.30607e-08
1.88908e-09
-9.19421e-16
-2.31858e-08
2.15881e-08
-8.11994e-16
-2.31276e-08
4.25723e-08
-7.01588e-16
-2.28748e-08
6.47102e-08
-5.90921e-16
-2.24179e-08
8.78137e-08
-4.8037e-16
-2.17487e-08
1.11712e-07
-3.68591e-16
-2.08632e-08
1.36007e-07
-2.18322e-16
-1.97599e-08
1.60368e-07
-3.08083e-16
-1.84423e-08
1.84236e-07
-4.36884e-16
-1.69197e-08
2.06984e-07
-3.18214e-16
-1.52073e-08
2.27873e-07
-2.32074e-16
-1.33297e-08
2.45805e-07
-1.06589e-16
-1.13211e-08
2.59609e-07
-2.88829e-16
-9.22831e-09
2.67798e-07
-1.94575e-16
-7.11367e-09
2.68457e-07
-1.35725e-16
-5.05862e-09
2.5927e-07
-7.75294e-17
-3.16751e-09
2.37427e-07
1.12137e-17
-1.574e-09
1.99307e-07
-7.66136e-17
-4.46878e-10
1.40547e-07
-1.37405e-17
5.5556e-08
1.83114e-17
-2.37519e-08
-1.60165e-08
-1.03449e-15
-2.40243e-08
2.16181e-09
-9.28322e-16
-2.41221e-08
2.16859e-08
-8.19708e-16
-2.40324e-08
4.24828e-08
-7.07907e-16
-2.37443e-08
6.44222e-08
-5.95436e-16
-2.32481e-08
8.73175e-08
-4.82577e-16
-2.25356e-08
1.10999e-07
-3.6782e-16
-2.16026e-08
1.35074e-07
-2.11626e-16
-2.04477e-08
1.59213e-07
-3.08872e-16
-1.90744e-08
1.82863e-07
-4.44783e-16
-1.74921e-08
2.05402e-07
-3.22862e-16
-1.57162e-08
2.26097e-07
-2.3457e-16
-1.37719e-08
2.43861e-07
-1.05354e-16
-1.16942e-08
2.57531e-07
-2.95243e-16
-9.53096e-09
2.65635e-07
-1.98592e-16
-7.34631e-09
2.66273e-07
-1.38383e-16
-5.22391e-09
2.57148e-07
-7.84903e-17
-3.27113e-09
2.35474e-07
1.75236e-17
-1.62569e-09
1.97661e-07
-7.69485e-17
-4.6168e-10
1.39383e-07
-1.29551e-17
5.50944e-08
1.92541e-17
-2.47466e-08
-1.56035e-08
-1.0446e-15
-2.49937e-08
2.40923e-09
-9.37485e-16
-2.50624e-08
2.17547e-08
-8.27822e-16
-2.49399e-08
4.23606e-08
-7.14733e-16
-2.46153e-08
6.40977e-08
-6.00507e-16
-2.40787e-08
8.6781e-08
-4.8533e-16
-2.3322e-08
1.10243e-07
-3.67645e-16
-2.23409e-08
1.34093e-07
-2.05631e-16
-2.11338e-08
1.58006e-07
-3.10141e-16
-1.97044e-08
1.81433e-07
-4.53282e-16
-1.80622e-08
2.0376e-07
-3.27768e-16
-1.62227e-08
2.24257e-07
-2.37129e-16
-1.42118e-08
2.4185e-07
-1.0179e-16
-1.20653e-08
2.55385e-07
-3.01551e-16
-9.83193e-09
2.63401e-07
-2.02421e-16
-7.57763e-09
2.64018e-07
-1.40743e-16
-5.38825e-09
2.54959e-07
-7.89065e-17
-3.37418e-09
2.3346e-07
2.2857e-17
-1.67711e-09
1.95964e-07
-7.6915e-17
-4.76413e-10
1.38183e-07
-1.20821e-17
5.46179e-08
2.00584e-17
-2.57465e-08
-1.52141e-08
-1.05473e-15
-2.59666e-08
2.62963e-09
-9.46871e-16
-2.60048e-08
2.1793e-08
-8.36318e-16
-2.58484e-08
4.22045e-08
-7.22036e-16
-2.54862e-08
6.37356e-08
-6.06142e-16
-2.49084e-08
8.62033e-08
-4.88658e-16
-2.41067e-08
1.09442e-07
-3.68111e-16
-2.3077e-08
1.33063e-07
-1.99079e-16
-2.18174e-08
1.56747e-07
-3.12171e-16
-2.03317e-08
1.79948e-07
-4.62569e-16
-1.86294e-08
2.02057e-07
-3.33053e-16
-1.67265e-08
2.22355e-07
-2.39716e-16
-1.46492e-08
2.39772e-07
-1.02255e-16
-1.2434e-08
2.5317e-07
-3.07466e-16
-1.01309e-08
2.61098e-07
-2.05755e-16
-7.80741e-09
2.61695e-07
-1.42513e-16
-5.55151e-09
2.52703e-07
-7.86285e-17
-3.47656e-09
2.31385e-07
2.87366e-17
-1.72821e-09
1.94216e-07
-7.63746e-17
-4.91064e-10
1.36946e-07
-1.07841e-17
5.41269e-08
2.12826e-17
-2.67492e-08
-1.48499e-08
-1.06478e-15
-2.69409e-08
2.82157e-09
-9.56415e-16
-2.69474e-08
2.17996e-08
-8.45165e-16
-2.67559e-08
4.20132e-08
-7.29801e-16
-2.63553e-08
6.33351e-08
-6.12329e-16
-2.57357e-08
8.55837e-08
-4.92515e-16
-2.48885e-08
1.08595e-07
-3.68973e-16
-2.38097e-08
1.31984e-07
-1.93947e-16
-2.24974e-08
1.55435e-07
-3.14653e-16
-2.09553e-08
1.78406e-07
-4.72708e-16
-1.9193e-08
2.00295e-07
-3.38613e-16
-1.72268e-08
2.20389e-07
-2.42395e-16
-1.50834e-08
2.37629e-07
-1.00685e-16
-1.27999e-08
2.50886e-07
-3.13322e-16
-1.04276e-08
2.58726e-07
-2.08937e-16
-8.03543e-09
2.59303e-07
-1.44054e-16
-5.71353e-09
2.50381e-07
-7.81367e-17
-3.57819e-09
2.2925e-07
3.4189e-17
-1.77895e-09
1.92416e-07
-7.58434e-17
-5.05621e-10
1.35672e-07
-9.52887e-18
5.36213e-08
2.23128e-17
-2.77523e-08
-1.45126e-08
-1.07468e-15
-2.79142e-08
2.98379e-09
-9.66089e-16
-2.7888e-08
2.17735e-08
-8.54324e-16
-2.76607e-08
4.17862e-08
-7.37999e-16
-2.7221e-08
6.28956e-08
-6.19012e-16
-2.6559e-08
8.49218e-08
-4.969e-16
-2.56661e-08
1.07702e-07
-3.70678e-16
-2.4538e-08
1.30856e-07
-1.91735e-16
-2.31729e-08
1.5407e-07
-3.18253e-16
-2.15744e-08
1.76808e-07
-4.83778e-16
-1.97524e-08
1.98473e-07
-3.44541e-16
-1.77232e-08
2.1836e-07
-2.45218e-16
-1.5514e-08
2.3542e-07
-9.89549e-17
-1.31628e-08
2.48535e-07
-3.18962e-16
-1.07218e-08
2.56285e-07
-2.11752e-16
-8.26147e-09
2.56842e-07
-1.45142e-16
-5.87415e-09
2.47994e-07
-7.72348e-17
-3.67895e-09
2.27055e-07
3.91289e-17
-1.82928e-09
1.90567e-07
-7.50993e-17
-5.20068e-10
1.34363e-07
-7.97108e-18
5.31012e-08
2.37236e-17
-2.87529e-08
-1.42032e-08
-1.08441e-15
-2.88841e-08
3.11532e-09
-9.75856e-16
-2.88244e-08
2.17139e-08
-8.63763e-16
-2.85607e-08
4.15227e-08
-7.46587e-16
-2.80815e-08
6.24166e-08
-6.26151e-16
-2.73769e-08
8.42173e-08
-5.01715e-16
-2.64381e-08
1.06764e-07
-3.72623e-16
-2.52607e-08
1.29679e-07
-1.91009e-16
-2.38428e-08
1.52652e-07
-3.21787e-16
-2.21882e-08
1.75153e-07
-4.95406e-16
-2.03067e-08
1.96592e-07
-3.50461e-16
-1.82149e-08
2.16268e-07
-2.47907e-16
-1.59405e-08
2.33146e-07
-9.77691e-17
-1.35221e-08
2.46117e-07
-3.24435e-16
-1.10131e-08
2.53776e-07
-2.14432e-16
-8.4853e-09
2.54315e-07
-1.46065e-16
-6.03322e-09
2.45542e-07
-7.62144e-17
-3.77876e-09
2.248e-07
4.34344e-17
-1.87914e-09
1.88667e-07
-7.45485e-17
-5.34391e-10
1.33018e-07
-6.5848e-18
5.25668e-08
2.48693e-17
-2.97484e-08
-1.39227e-08
-1.09392e-15
-2.98482e-08
3.21546e-09
-9.85678e-16
-2.97545e-08
2.16203e-08
-8.73421e-16
-2.9454e-08
4.12225e-08
-7.55506e-16
-2.89351e-08
6.1898e-08
-6.33677e-16
-2.81878e-08
8.347e-08
-5.06926e-16
-2.72031e-08
1.05779e-07
-3.74784e-16
-2.59766e-08
1.28452e-07
-1.88278e-16
-2.45062e-08