/*--------------------------------*- C++ -*----------------------------------*\
| =========                 |                                                 |
| \\      /  F ield         | OpenFOAM: The Open Source CFD Toolbox           |
|  \\    /   O peration     | Version:  v2012                                 |
|   \\  /    A nd           | Website:  www.openfoam.com                      |
|    \\/     M anipulation  |                                                 |
\*---------------------------------------------------------------------------*/
FoamFile
{
    version     2.0;
    format      ascii;
    class       volVectorField;
    location    "0.75";
    object      U;
}
// * * * * * * * * * * * * * * * * * * * * * * * * * * * * * * * * * * * * * //

dimensions      [0 1 -1 0 0 0 0];


internalField   nonuniform List<vector> 
3332
(
(0.00196322 -0.0245374 -1.71337e-05)
(0.002148 -0.0250665 -1.87464e-05)
(0.00233726 -0.0255453 -2.03981e-05)
(0.00252973 -0.0259731 -2.2078e-05)
(0.00272391 -0.0263484 -2.37728e-05)
(0.00291824 -0.0266701 -2.54689e-05)
(0.00311105 -0.0269366 -2.71517e-05)
(0.00330053 -0.0271467 -2.88055e-05)
(0.00348476 -0.0272989 -3.04134e-05)
(0.00366169 -0.0273919 -3.19578e-05)
(0.00382915 -0.0274244 -3.34196e-05)
(0.00398489 -0.0273956 -3.4779e-05)
(0.00412657 -0.0273044 -3.60157e-05)
(0.00425185 -0.0271503 -3.71093e-05)
(0.00435839 -0.0269327 -3.80394e-05)
(0.00444392 -0.0266518 -3.87862e-05)
(0.00450625 -0.0263075 -3.93305e-05)
(0.0045434 -0.0259004 -3.96552e-05)
(0.00455356 -0.0254313 -3.97442e-05)
(0.00453524 -0.0249013 -3.95849e-05)
(0.00171298 -0.0236501 -1.49497e-05)
(0.00189657 -0.0242819 -1.6552e-05)
(0.00208678 -0.0248636 -1.82121e-05)
(0.00228237 -0.0253943 -1.99191e-05)
(0.00248218 -0.0258732 -2.1663e-05)
(0.0026851 -0.0262992 -2.3434e-05)
(0.00288953 -0.0266712 -2.52182e-05)
(0.00309389 -0.0269878 -2.70018e-05)
(0.00329633 -0.0272476 -2.87687e-05)
(0.00349497 -0.0274492 -3.05025e-05)
(0.00368774 -0.0275911 -3.2185e-05)
(0.00387249 -0.0276723 -3.37975e-05)
(0.00404691 -0.0276914 -3.53201e-05)
(0.00420861 -0.0276475 -3.67316e-05)
(0.00435517 -0.0275399 -3.80109e-05)
(0.00448413 -0.027368 -3.91366e-05)
(0.00459306 -0.0271317 -4.00876e-05)
(0.00467958 -0.0268308 -4.08431e-05)
(0.0047415 -0.0264659 -4.13838e-05)
(0.00477673 -0.0260377 -4.16917e-05)
(0.00478351 -0.0255471 -4.17513e-05)
(0.00476029 -0.0249955 -4.15492e-05)
(1.88141e-06 -0.0019941 -1.64163e-08)
(1.49733e-05 -0.00445457 -1.30666e-07)
(4.08706e-05 -0.00666618 -3.56695e-07)
(8.55606e-05 -0.0085977 -7.46744e-07)
(0.000137056 -0.0103153 -1.1962e-06)
(0.000210074 -0.0118721 -1.83354e-06)
(0.000297564 -0.013307 -2.59704e-06)
(0.000380637 -0.0146093 -3.322e-06)
(0.000481316 -0.0158408 -4.20083e-06)
(0.000588836 -0.0169858 -5.13898e-06)
(0.000976914 -0.0200316 -8.52581e-06)
(0.00112772 -0.0209286 -9.8419e-06)
(0.00128748 -0.0217717 -1.12362e-05)
(0.00145701 -0.0225622 -1.27158e-05)
(0.00163559 -0.023301 -1.42743e-05)
(0.00182256 -0.0239887 -1.5906e-05)
(0.00201708 -0.0246249 -1.76037e-05)
(0.00221828 -0.0252094 -1.93597e-05)
(0.00242501 -0.0257415 -2.1164e-05)
(0.00263602 -0.02622 -2.30056e-05)
(0.00284994 -0.026644 -2.48726e-05)
(0.00306519 -0.0270122 -2.67513e-05)
(0.00328002 -0.0273231 -2.86263e-05)
(0.00349255 -0.0275754 -3.04812e-05)
(0.00370071 -0.0277677 -3.22981e-05)
(0.00390233 -0.0278986 -3.40579e-05)
(0.00409511 -0.0279669 -3.57405e-05)
(0.00427663 -0.0279715 -3.7325e-05)
(0.00444438 -0.0279115 -3.87893e-05)
(0.0045958 -0.0277863 -4.0111e-05)
(0.00472834 -0.0275955 -4.12681e-05)
(0.00483945 -0.027339 -4.22381e-05)
(0.00492673 -0.0270171 -4.30002e-05)
(0.00498784 -0.0266303 -4.3534e-05)
(0.00502076 -0.0261797 -4.38216e-05)
(0.00502362 -0.0256664 -4.3847e-05)
(0.00499497 -0.0250921 -4.35976e-05)
(1.99693e-06 -0.00202081 -1.74246e-08)
(1.70632e-05 -0.00451832 -1.4892e-07)
(4.72862e-05 -0.00676359 -4.12686e-07)
(9.47522e-05 -0.00872098 -8.26941e-07)
(0.000150503 -0.0104634 -1.31347e-06)
(0.000219523 -0.012039 -1.91587e-06)
(0.000301408 -0.0134897 -2.6305e-06)
(0.000394159 -0.0148315 -3.44002e-06)
(0.000505786 -0.0160797 -4.41417e-06)
(0.000622183 -0.0172491 -5.42992e-06)
(0.000749846 -0.018344 -6.54402e-06)
(0.000890224 -0.0193739 -7.76926e-06)
(0.00103927 -0.0203426 -9.07e-06)
(0.00120128 -0.0212527 -1.04839e-05)
(0.00137155 -0.022107 -1.197e-05)
(0.00155181 -0.0229071 -1.35432e-05)
(0.00174147 -0.023654 -1.51984e-05)
(0.00193965 -0.0243479 -1.6928e-05)
(0.00214574 -0.0249887 -1.87266e-05)
(0.00235853 -0.0255761 -2.05838e-05)
(0.00257695 -0.0261092 -2.249e-05)
(0.00279959 -0.0265871 -2.44331e-05)
(0.00302505 -0.0270086 -2.64009e-05)
(0.00325158 -0.0273723 -2.8378e-05)
(0.00347738 -0.0276769 -3.03488e-05)
(0.00370038 -0.027921 -3.22951e-05)
(0.00391843 -0.0281031 -3.41982e-05)
(0.00412919 -0.0282219 -3.60378e-05)
(0.00433022 -0.0282763 -3.77925e-05)
(0.00451899 -0.0282652 -3.94403e-05)
(0.00469283 -0.0281879 -4.09577e-05)
(0.00484908 -0.0280439 -4.23216e-05)
(0.00498505 -0.0278328 -4.35086e-05)
(0.00509814 -0.0275549 -4.4496e-05)
(0.00518582 -0.0272106 -4.52616e-05)
(0.00524577 -0.0268007 -4.57852e-05)
(0.00527584 -0.0263264 -4.60481e-05)
(0.00527426 -0.0257893 -4.60347e-05)
(0.00523952 -0.0251911 -4.57321e-05)
(1.9818e-06 -0.00204985 -1.72925e-08)
(1.85251e-05 -0.00458728 -1.61669e-07)
(5.11372e-05 -0.00687078 -4.46289e-07)
(0.000100378 -0.00886354 -8.76018e-07)
(0.000161244 -0.0106383 -1.4072e-06)
(0.000236242 -0.0122452 -2.06173e-06)
(0.000325022 -0.0137187 -2.8366e-06)
(0.000424924 -0.0150796 -3.70846e-06)
(0.00054006 -0.0163478 -4.7133e-06)
(0.00066402 -0.0175345 -5.79509e-06)
(0.000800267 -0.0186468 -6.98412e-06)
(0.000949291 -0.0196922 -8.28473e-06)
(0.00110824 -0.0206744 -9.67199e-06)
(0.00128038 -0.0215974 -1.11742e-05)
(0.00146152 -0.0224631 -1.27552e-05)
(0.001653 -0.023273 -1.44263e-05)
(0.00185421 -0.0240281 -1.61823e-05)
(0.00206445 -0.0247285 -1.80171e-05)
(0.00228268 -0.025374 -1.99218e-05)
(0.00250779 -0.0259642 -2.18864e-05)
(0.00273848 -0.0264983 -2.38998e-05)
(0.00297341 -0.0269752 -2.59502e-05)
(0.00321096 -0.0273938 -2.80235e-05)
(0.00344936 -0.0277525 -3.01041e-05)
(0.0036866 -0.0280501 -3.21748e-05)
(0.00392053 -0.0282851 -3.42165e-05)
(0.00414883 -0.0284561 -3.62091e-05)
(0.00436902 -0.0285618 -3.8131e-05)
(0.00457853 -0.0286012 -3.99597e-05)
(0.00477465 -0.0285732 -4.16716e-05)
(0.00495462 -0.0284773 -4.32426e-05)
(0.00511561 -0.028313 -4.46479e-05)
(0.00525487 -0.0280804 -4.58636e-05)
(0.00536965 -0.0277797 -4.68657e-05)
(0.0054574 -0.0274116 -4.76319e-05)
(0.00551569 -0.0269772 -4.81411e-05)
(0.00554243 -0.026478 -4.83749e-05)
(0.00553576 -0.0259156 -4.83172e-05)
(0.00549429 -0.0252924 -4.79558e-05)
(0.00541699 -0.0246108 -4.72824e-05)
(2.16727e-06 -0.00208123 -1.8909e-08)
(2.01532e-05 -0.00466121 -1.7588e-07)
(5.55805e-05 -0.00698406 -4.85062e-07)
(0.000108889 -0.00901123 -9.50314e-07)
(0.00017475 -0.0108174 -1.52508e-06)
(0.000254281 -0.0124528 -2.21919e-06)
(0.000348968 -0.0139528 -3.04554e-06)
(0.000454765 -0.0153392 -3.96889e-06)
(0.000576346 -0.01663 -5.02999e-06)
(0.000708273 -0.0178366 -6.18135e-06)
(0.000853513 -0.0189682 -7.44879e-06)
(0.00101239 -0.0200302 -8.83543e-06)
(0.00118168 -0.0210279 -1.03129e-05)
(0.00136491 -0.0219643 -1.1912e-05)
(0.00155762 -0.0228419 -1.35938e-05)
(0.00176098 -0.023662 -1.53687e-05)
(0.00197457 -0.0244254 -1.72328e-05)
(0.00219746 -0.0251324 -1.9178e-05)
(0.00242861 -0.0257827 -2.11953e-05)
(0.00266661 -0.0263756 -2.32725e-05)
(0.00291031 -0.0269104 -2.53994e-05)
(0.00315814 -0.027386 -2.75624e-05)
(0.00340845 -0.027801 -2.9747e-05)
(0.00365925 -0.028154 -3.1936e-05)
(0.00390847 -0.0284438 -3.41111e-05)
(0.00415376 -0.0286687 -3.6252e-05)
(0.00439269 -0.0288276 -3.83374e-05)
(0.0046226 -0.028919 -4.03441e-05)
(0.00484077 -0.0289421 -4.22484e-05)
(0.00504436 -0.028896 -4.40256e-05)
(0.00523043 -0.02878 -4.56499e-05)
(0.00539609 -0.0285942 -4.70958e-05)
(0.0055384 -0.0283385 -4.83382e-05)
(0.00565459 -0.0280135 -4.93526e-05)
(0.00574196 -0.0276202 -5.01156e-05)
(0.00579812 -0.0271599 -5.06062e-05)
(0.00582089 -0.0266342 -5.08054e-05)
(0.0058085 -0.0260454 -5.06978e-05)
(0.00575953 -0.0253958 -5.02709e-05)
(0.00567312 -0.0246883 -4.95174e-05)
(2.25463e-06 -0.00211512 -1.96719e-08)
(2.2027e-05 -0.0047409 -1.92228e-07)
(6.04489e-05 -0.00710613 -5.27564e-07)
(0.000115408 -0.0091708 -1.0072e-06)
(0.000185938 -0.0110111 -1.62273e-06)
(0.00027176 -0.0126774 -2.37172e-06)
(0.000372615 -0.0142056 -3.25191e-06)
(0.000486745 -0.0156182 -4.24796e-06)
(0.000616225 -0.0169322 -5.37805e-06)
(0.00075658 -0.0181603 -6.60291e-06)
(0.00091138 -0.0193111 -7.95385e-06)
(0.00108071 -0.0203908 -9.43168e-06)
(0.00126089 -0.0214044 -1.10042e-05)
(0.00145575 -0.0223549 -1.27047e-05)
(0.00166045 -0.0232448 -1.44913e-05)
(0.00187645 -0.0240754 -1.63763e-05)
(0.00210296 -0.0248475 -1.83533e-05)
(0.00233922 -0.0255611 -2.04151e-05)
(0.00258396 -0.026216 -2.25511e-05)
(0.00283574 -0.0268115 -2.47486e-05)
(0.00309314 -0.0273467 -2.69951e-05)
(0.00335461 -0.0278204 -2.92771e-05)
(0.00361827 -0.0282312 -3.15782e-05)
(0.00388209 -0.0285779 -3.38808e-05)
(0.00414378 -0.0288589 -3.61648e-05)
(0.0044009 -0.0290728 -3.84089e-05)
(0.00465081 -0.0292184 -4.05902e-05)
(0.00489072 -0.0292943 -4.26842e-05)
(0.00511775 -0.0292998 -4.46658e-05)
(0.00532886 -0.029234 -4.65087e-05)
(0.00552104 -0.0290967 -4.81862e-05)
(0.00569118 -0.0288877 -4.96714e-05)
(0.00583632 -0.0286074 -5.09385e-05)
(0.00595351 -0.0282566 -5.19617e-05)
(0.00604008 -0.0278364 -5.27176e-05)
(0.00609351 -0.0273486 -5.31844e-05)
(0.00611169 -0.0267951 -5.33436e-05)
(0.00609281 -0.0261784 -5.31793e-05)
(0.00603558 -0.0255012 -5.26803e-05)
(0.00593916 -0.0247667 -5.18394e-05)
(0.00580333 -0.0239782 -5.06553e-05)
(2.4644e-06 -0.0021518 -2.1501e-08)
(2.3811e-05 -0.00482659 -2.078e-07)
(6.53008e-05 -0.0072378 -5.69899e-07)
(0.000124396 -0.00934277 -1.08565e-06)
(0.000200153 -0.0112185 -1.74678e-06)
(0.000292022 -0.0129175 -2.54857e-06)
(0.000399835 -0.014475 -3.48946e-06)
(0.000521796 -0.0159147 -4.55388e-06)
(0.000659696 -0.0172544 -5.7574e-06)
(0.000809172 -0.0185054 -7.06191e-06)
(0.000974072 -0.0196762 -8.50097e-06)
(0.00115404 -0.0207747 -1.00717e-05)
(0.00134577 -0.0218052 -1.1745e-05)
(0.00155294 -0.0227707 -1.3553e-05)
(0.00177048 -0.0236736 -1.54515e-05)
(0.00199984 -0.0245151 -1.74533e-05)
(0.00224015 -0.025296 -1.95506e-05)
(0.00249052 -0.0260164 -2.17356e-05)
(0.00274965 -0.0266758 -2.39971e-05)
(0.00301587 -0.0272736 -2.63206e-05)
(0.00328775 -0.0278087 -2.86935e-05)
(0.00356353 -0.02828 -3.11004e-05)
(0.00384125 -0.028686 -3.35243e-05)
(0.00411867 -0.0290254 -3.59456e-05)
(0.0043934 -0.0292966 -3.83434e-05)
(0.0046628 -0.0294984 -4.06947e-05)
(0.00492407 -0.0296294 -4.29751e-05)
(0.00517426 -0.0296886 -4.51588e-05)
(0.00541028 -0.0296749 -4.7219e-05)
(0.005629 -0.029588 -4.91282e-05)
(0.00582718 -0.0294276 -5.08582e-05)
(0.00600166 -0.0291938 -5.23812e-05)
(0.00614928 -0.0288873 -5.367e-05)
(0.0062671 -0.028509 -5.46986e-05)
(0.00635228 -0.0280604 -5.54426e-05)
(0.00640239 -0.0275435 -5.58803e-05)
(0.00641521 -0.0269606 -5.59928e-05)
(0.00638908 -0.0263145 -5.57652e-05)
(0.00632268 -0.0256083 -5.51863e-05)
(0.00621538 -0.0248456 -5.42503e-05)
(0.00606702 -0.0240299 -5.29564e-05)
(2.73249e-06 -0.00219139 -2.3849e-08)
(2.54457e-05 -0.00491899 -2.22073e-07)
(6.97657e-05 -0.00737867 -6.0886e-07)
(0.00013363 -0.00952636 -1.16622e-06)
(0.00021472 -0.0114402 -1.87394e-06)
(0.000312862 -0.0131738 -2.73042e-06)
(0.000428111 -0.0147628 -3.73624e-06)
(0.000557978 -0.0162313 -4.86963e-06)
(0.000704917 -0.0175975 -6.15209e-06)
(0.000866078 -0.0188727 -7.55851e-06)
(0.00104197 -0.0200656 -9.09352e-06)
(0.00123264 -0.021184 -1.07576e-05)
(0.00143681 -0.0222322 -1.25395e-05)
(0.00165702 -0.0232133 -1.44613e-05)
(0.00188818 -0.0241297 -1.64787e-05)
(0.00213181 -0.0249825 -1.8605e-05)
(0.00238667 -0.0257725 -2.08293e-05)
(0.00265201 -0.0264996 -2.3145e-05)
(0.00292633 -0.0271634 -2.55391e-05)
(0.0032079 -0.0277632 -2.79965e-05)
(0.00349504 -0.0282978 -3.05025e-05)
(0.0037859 -0.028766 -3.30411e-05)
(0.00407834 -0.0291665 -3.55934e-05)
(0.00437 -0.0294976 -3.8139e-05)
(0.00465829 -0.0297581 -4.06552e-05)
(0.00494042 -0.0299465 -4.31176e-05)
(0.00521341 -0.0300617 -4.55003e-05)
(0.00547411 -0.0301025 -4.77758e-05)
(0.00571929 -0.0300682 -4.99159e-05)
(0.0059456 -0.0299585 -5.18915e-05)
(0.00614971 -0.0297733 -5.36732e-05)
(0.00632825 -0.029513 -5.52317e-05)
(0.00647804 -0.0291784 -5.65393e-05)
(0.00659594 -0.0287708 -5.75688e-05)
(0.00667919 -0.0282921 -5.82959e-05)
(0.00672522 -0.0277444 -5.86981e-05)
(0.00673194 -0.0271306 -5.87573e-05)
(0.00669762 -0.0264536 -5.84583e-05)
(0.00662116 -0.0257171 -5.77916e-05)
(0.00650194 -0.0249248 -5.67517e-05)
(0.0063401 -0.0240807 -5.534e-05)
(2.98071e-06 -0.0022343 -2.60132e-08)
(2.75142e-05 -0.00501876 -2.4013e-07)
(7.52372e-05 -0.00753026 -6.56602e-07)
(0.000143784 -0.00972365 -1.25484e-06)
(0.000230787 -0.0116784 -2.01414e-06)
(0.00033576 -0.0134487 -2.93029e-06)
(0.000459055 -0.0150712 -4.00628e-06)
(0.000597819 -0.0165704 -5.21735e-06)
(0.000754459 -0.0179639 -6.58442e-06)
(0.00092634 -0.0192644 -8.08446e-06)
(0.00111379 -0.020481 -9.72029e-06)
(0.00131686 -0.0216203 -1.14927e-05)
(0.00153432 -0.022687 -1.33905e-05)
(0.00176846 -0.0236844 -1.54338e-05)
(0.0020142 -0.0246148 -1.75785e-05)
(0.00227291 -0.0254793 -1.98365e-05)
(0.0025433 -0.0262786 -2.21962e-05)
(0.00282451 -0.0270125 -2.46505e-05)
(0.0031149 -0.0276806 -2.71848e-05)
(0.00341259 -0.0282821 -2.97829e-05)
(0.00371582 -0.0288157 -3.24294e-05)
(0.00402253 -0.0292802 -3.51063e-05)
(0.00433043 -0.0296741 -3.77935e-05)
(0.00463698 -0.0299961 -4.04691e-05)
(0.00493941 -0.0302446 -4.31087e-05)
(0.00523475 -0.0304183 -4.56864e-05)
(0.00551981 -0.030516 -4.81744e-05)
(0.00579127 -0.030537 -5.05439e-05)
(0.0060457 -0.0304804 -5.27647e-05)
(0.00627961 -0.0303461 -5.48066e-05)
(0.00648945 -0.0301343 -5.66384e-05)
(0.00667181 -0.0298456 -5.82302e-05)
(0.00682328 -0.0294811 -5.95526e-05)
(0.00694077 -0.0290424 -6.05785e-05)
(0.00702136 -0.0285316 -6.12823e-05)
(0.00706257 -0.0279515 -6.16426e-05)
(0.00706225 -0.0273049 -6.16403e-05)
(0.00701885 -0.0265955 -6.12621e-05)
(0.00693125 -0.0258271 -6.04982e-05)
(0.00679912 -0.025004 -5.93456e-05)
(0.00662265 -0.0241303 -5.78063e-05)
(3.25082e-06 -0.00228057 -2.83716e-08)
(2.97808e-05 -0.00512598 -2.59905e-07)
(8.10922e-05 -0.0076931 -7.07729e-07)
(0.000154384 -0.00993526 -1.34734e-06)
(0.000247721 -0.0119334 -2.16192e-06)
(0.0003603 -0.0137428 -3.14443e-06)
(0.000491969 -0.0154009 -4.29358e-06)
(0.000640691 -0.0169324 -5.59148e-06)
(0.000807761 -0.0183555 -7.04962e-06)
(0.000991153 -0.0196831 -8.65006e-06)
(0.00119101 -0.0209243 -1.03943e-05)
(0.00140737 -0.0220857 -1.22825e-05)
(0.001639 -0.0231716 -1.4304e-05)
(0.00188786 -0.0241862 -1.64759e-05)
(0.00214911 -0.0251311 -1.87559e-05)
(0.00242386 -0.0260077 -2.11538e-05)
(0.00271072 -0.0268165 -2.36574e-05)
(0.00300878 -0.0275572 -2.62586e-05)
(0.00331618 -0.0282293 -2.89415e-05)
(0.00363097 -0.028832 -3.16888e-05)
(0.00395116 -0.029364 -3.44833e-05)
(0.00427455 -0.029824 -3.73057e-05)
(0.00459865 -0.0302105 -4.01344e-05)
(0.00492074 -0.0305221 -4.29456e-05)
(0.00523788 -0.0307573 -4.57136e-05)
(0.00554686 -0.0309148 -4.84104e-05)
(0.00584435 -0.0309936 -5.10069e-05)
(0.00612677 -0.0309929 -5.3472e-05)
(0.00639055 -0.0309122 -5.57745e-05)
(0.00663196 -0.0307514 -5.78818e-05)
(0.00684736 -0.030511 -5.97622e-05)
(0.00703312 -0.0301919 -6.13837e-05)
(0.00718584 -0.0297954 -6.2717e-05)
(0.00730222 -0.0293236 -6.37333e-05)
(0.00737945 -0.0287789 -6.44078e-05)
(0.00741491 -0.0281644 -6.47179e-05)
(0.00740665 -0.0274834 -6.46463e-05)
(0.00735305 -0.0267399 -6.41792e-05)
(0.00725329 -0.0259382 -6.33091e-05)
(0.00710704 -0.0250828 -6.20333e-05)
(0.00691484 -0.0241785 -6.03568e-05)
(3.54327e-06 -0.00233078 -3.0921e-08)
(3.21707e-05 -0.00524177 -2.80769e-07)
(8.74136e-05 -0.00786834 -7.62886e-07)
(0.000166131 -0.0101628 -1.44988e-06)
(0.00026625 -0.012207 -2.32362e-06)
(0.000386683 -0.0140583 -3.3747e-06)
(0.000527562 -0.0157542 -4.60418e-06)
(0.000686385 -0.01732 -5.9903e-06)
(0.000864458 -0.0187749 -7.54442e-06)
(0.00106015 -0.0201309 -9.25221e-06)
(0.00127338 -0.0213976 -1.1113e-05)
(0.00150458 -0.0225821 -1.31309e-05)
(0.0017514 -0.0236881 -1.5285e-05)
(0.00201575 -0.0247206 -1.75921e-05)
(0.00229358 -0.0256806 -2.00168e-05)
(0.00258539 -0.0265696 -2.25636e-05)
(0.00288981 -0.0273879 -2.52204e-05)
(0.00320573 -0.0281354 -2.79775e-05)
(0.00353117 -0.0288113 -3.08178e-05)
(0.003864 -0.0294148 -3.37225e-05)
(0.00420206 -0.0299445 -3.6673e-05)
(0.00454298 -0.0303991 -3.96485e-05)
(0.00488406 -0.0307771 -4.26253e-05)
(0.0052224 -0.0310771 -4.55783e-05)
(0.00555482 -0.0312975 -4.84797e-05)
(0.00587793 -0.0314373 -5.12998e-05)
(0.00618815 -0.0314954 -5.40075e-05)
(0.00648174 -0.0314712 -5.65701e-05)
(0.00675487 -0.0313643 -5.89541e-05)
(0.0070037 -0.031175 -6.11263e-05)
(0.00722435 -0.0309039 -6.30524e-05)
(0.00741314 -0.0305522 -6.47004e-05)
(0.00756645 -0.0301217 -6.6039e-05)
(0.00768108 -0.0296147 -6.704e-05)
(0.00775402 -0.029034 -6.76771e-05)
(0.00778285 -0.0283831 -6.79293e-05)
(0.0077655 -0.0276658 -6.77786e-05)
(0.00770065 -0.0268866 -6.72132e-05)
(0.00758745 -0.0260499 -6.62258e-05)
(0.00742593 -0.025161 -6.48168e-05)
(0.00721671 -0.0242248 -6.29918e-05)
(3.76885e-06 -0.00238489 -3.28966e-08)
(3.4867e-05 -0.00536622 -3.04298e-07)
(9.43839e-05 -0.00805654 -8.23721e-07)
(0.000178736 -0.0104067 -1.55988e-06)
(0.000286349 -0.0125003 -2.49907e-06)
(0.000415001 -0.014396 -3.62182e-06)
(0.000565904 -0.016132 -4.93883e-06)
(0.000735934 -0.0177344 -6.42269e-06)
(0.000926041 -0.0192225 -8.08178e-06)
(0.00113586 -0.0206086 -9.9129e-06)
(0.00136312 -0.0219023 -1.18963e-05)
(0.00160929 -0.0231111 -1.40447e-05)
(0.00187223 -0.0242387 -1.63395e-05)
(0.00215303 -0.0252898 -1.87901e-05)
(0.00244849 -0.0262655 -2.13687e-05)
(0.00275841 -0.0271673 -2.40735e-05)
(0.0030815 -0.0279953 -2.68933e-05)
(0.00341635 -0.0287494 -2.98156e-05)
(0.0037609 -0.0294288 -3.28227e-05)
(0.00411278 -0.0300325 -3.58938e-05)
(0.00446969 -0.0305592 -3.90087e-05)
(0.00482903 -0.0310074 -4.2145e-05)
(0.00518791 -0.0313757 -4.52772e-05)
(0.00554318 -0.0316626 -4.83779e-05)
(0.00589148 -0.0318668 -5.14179e-05)
(0.00622915 -0.031987 -5.43651e-05)
(0.00655244 -0.0320225 -5.71869e-05)
(0.00685733 -0.0319727 -5.98481e-05)
(0.00713984 -0.0318375 -6.2314e-05)
(0.00739587 -0.0316174 -6.45491e-05)
(0.00762147 -0.0313134 -6.65184e-05)
(0.00781272 -0.0309268 -6.81879e-05)
(0.00796604 -0.03046 -6.95266e-05)
(0.00807802 -0.0299155 -7.05045e-05)
(0.0081458 -0.0292967 -7.10966e-05)
(0.00816685 -0.0286074 -7.1281e-05)
(0.00813934 -0.0278519 -7.10415e-05)
(0.0080619 -0.0270351 -7.03664e-05)
(0.00793405 -0.026162 -6.92512e-05)
(0.00775587 -0.0252381 -6.76968e-05)
(0.0075284 -0.0242688 -6.57124e-05)
(4.13481e-06 -0.00244378 -3.60868e-08)
(3.7682e-05 -0.00550079 -3.28874e-07)
(0.00010164 -0.00825962 -8.87029e-07)
(0.000192218 -0.0106696 -1.67755e-06)
(0.000307578 -0.0128158 -2.68431e-06)
(0.000445302 -0.0147587 -3.88629e-06)
(0.000606974 -0.0165371 -5.29721e-06)
(0.000788651 -0.0181783 -6.8828e-06)
(0.000991619 -0.0197011 -8.65407e-06)
(0.00121564 -0.0211191 -1.06093e-05)
(0.00145825 -0.0224415 -1.27266e-05)
(0.00172117 -0.0236758 -1.50211e-05)
(0.00200145 -0.0248261 -1.74672e-05)
(0.00230011 -0.0258965 -2.00738e-05)
(0.00261446 -0.0268884 -2.28172e-05)
(0.00294375 -0.0278032 -2.56911e-05)
(0.00328673 -0.028641 -2.86843e-05)
(0.00364169 -0.0294015 -3.17823e-05)
(0.00400651 -0.030084 -3.49662e-05)
(0.00437856 -0.0306872 -3.82133e-05)
(0.00475532 -0.03121 -4.15016e-05)
(0.00513403 -0.0316507 -4.48068e-05)
(0.00551152 -0.032008 -4.81014e-05)
(0.00588446 -0.0322803 -5.13564e-05)
(0.0062492 -0.0324664 -5.45399e-05)
(0.0066019 -0.0325652 -5.76183e-05)
(0.0069385 -0.0325759 -6.05562e-05)
(0.00725483 -0.0324984 -6.33173e-05)
(0.00754661 -0.0323326 -6.58643e-05)
(0.00780965 -0.0320793 -6.81605e-05)
(0.00803972 -0.0317398 -7.01689e-05)
(0.0082329 -0.0313161 -7.18553e-05)
(0.00838538 -0.0308104 -7.31866e-05)
(0.00849388 -0.0302261 -7.41341e-05)
(0.00855536 -0.0295669 -7.46714e-05)
(0.00856753 -0.0288371 -7.47782e-05)
(0.00852849 -0.0280414 -7.44382e-05)
(0.00843722 -0.0271853 -7.36423e-05)
(0.00829325 -0.026274 -7.23865e-05)
(0.00809709 -0.0253137 -7.06751e-05)
(0.00784987 -0.02431 -6.85185e-05)
(4.4232e-06 -0.0025071 -3.86062e-08)
(4.0946e-05 -0.00564537 -3.57346e-07)
(0.00010956 -0.00847731 -9.56199e-07)
(0.000207466 -0.010951 -1.8106e-06)
(0.000331592 -0.0131534 -2.89389e-06)
(0.000479326 -0.0151469 -4.18319e-06)
(0.000652318 -0.0169709 -5.69302e-06)
(0.000846483 -0.0186534 -7.38749e-06)
(0.00106334 -0.0202135 -9.28007e-06)
(0.00130276 -0.0216651 -1.13695e-05)
(0.00156166 -0.0230178 -1.36291e-05)
(0.00184178 -0.0242789 -1.60737e-05)
(0.00214046 -0.0254526 -1.86805e-05)
(0.00245831 -0.0265432 -2.14544e-05)
(0.00279275 -0.0275518 -2.43732e-05)
(0.00314263 -0.0284799 -2.74267e-05)
(0.00350672 -0.0293275 -3.06043e-05)
(0.00388301 -0.0300942 -3.38883e-05)
(0.00426927 -0.0307792 -3.72594e-05)
(0.00466256 -0.0313813 -4.06919e-05)
(0.00506025 -0.0318991 -4.41628e-05)
(0.00545927 -0.0323311 -4.76454e-05)
(0.00585627 -0.0326758 -5.11102e-05)
(0.00624759 -0.0329318 -5.45257e-05)
(0.0066294 -0.0330979 -5.78581e-05)
(0.00699753 -0.0331731 -6.10712e-05)
(0.00734774 -0.0331569 -6.4128e-05)
(0.00767554 -0.0330492 -6.69891e-05)
(0.00797653 -0.0328503 -6.96164e-05)
(0.00824619 -0.0325613 -7.19706e-05)
(0.00848029 -0.0321838 -7.40141e-05)
(0.00867462 -0.03172 -7.57106e-05)
(0.00882548 -0.0311731 -7.70278e-05)
(0.00892936 -0.0305465 -7.7935e-05)
(0.00898346 -0.0298445 -7.84078e-05)
(0.00898535 -0.0290718 -7.84251e-05)
(0.00893349 -0.028234 -7.79732e-05)
(0.00882683 -0.0273365 -7.7043e-05)
(0.00866533 -0.0263855 -7.56342e-05)
(0.00844958 -0.0253873 -7.3752e-05)
(0.00818124 -0.0243481 -7.1411e-05)
(4.8707e-06 -0.002576 -4.24991e-08)
(4.41156e-05 -0.00580231 -3.84997e-07)
(0.000117665 -0.00871166 -1.02688e-06)
(0.000222603 -0.011255 -1.94273e-06)
(0.000355958 -0.0135163 -3.10649e-06)
(0.000513895 -0.0155645 -4.48492e-06)
(0.000699671 -0.0174356 -6.1062e-06)
(0.000907621 -0.0191627 -7.92111e-06)
(0.00113976 -0.0207619 -9.9469e-06)
(0.00139549 -0.0222494 -1.21788e-05)
(0.00167201 -0.0236337 -1.45921e-05)
(0.00197135 -0.024923 -1.72045e-05)
(0.0022899 -0.0261213 -1.99845e-05)
(0.00262819 -0.0272327 -2.2937e-05)
(0.0029841 -0.0282586 -2.60432e-05)
(0.00335597 -0.0292003 -2.92886e-05)
(0.00374254 -0.0300575 -3.26624e-05)
(0.00414148 -0.0308302 -3.61441e-05)
(0.00455048 -0.0315171 -3.97136e-05)
(0.00496629 -0.0321171 -4.33427e-05)
(0.00538603 -0.0326288 -4.7006e-05)
(0.00580641 -0.0330507 -5.06749e-05)
(0.00622375 -0.0333812 -5.43175e-05)
(0.00663423 -0.033619 -5.79001e-05)
(0.00703364 -0.033763 -6.13862e-05)
(0.00741764 -0.0338123 -6.47377e-05)
(0.00778162 -0.0337666 -6.79147e-05)
(0.00812095 -0.0336261 -7.08765e-05)
(0.00843087 -0.0333914 -7.35819e-05)
(0.00870683 -0.0330638 -7.59909e-05)
(0.00894426 -0.0326455 -7.80636e-05)
(0.00913902 -0.0321391 -7.97638e-05)
(0.00928716 -0.031548 -8.10573e-05)
(0.00938536 -0.0308765 -8.19151e-05)
(0.00943066 -0.0301291 -8.23112e-05)
(0.00942096 -0.0293114 -8.22272e-05)
(0.00935465 -0.0284291 -8.16492e-05)
(0.00923112 -0.0274885 -8.05718e-05)
(0.00905037 -0.0264959 -7.89951e-05)
(0.00881354 -0.0254584 -7.69288e-05)
(0.00852238 -0.0243824 -7.43888e-05)
(3.9124e-06 -0.00265041 -3.41497e-08)
(4.73369e-05 -0.00597101 -4.13311e-07)
(0.000126062 -0.00896532 -1.10013e-06)
(0.000239805 -0.0115824 -2.09274e-06)
(0.000384534 -0.0139074 -3.35599e-06)
(0.000553385 -0.0160128 -4.82941e-06)
(0.000752977 -0.0179353 -6.57151e-06)
(0.000973939 -0.0197085 -8.49983e-06)
(0.0012233 -0.0213493 -1.06761e-05)
(0.00149663 -0.0228743 -1.30615e-05)
(0.00179232 -0.0242918 -1.56421e-05)
(0.00211117 -0.0256108 -1.84248e-05)
(0.00245094 -0.0268348 -2.139e-05)
(0.00281121 -0.027968 -2.45342e-05)
(0.00319 -0.0290116 -2.78401e-05)
(0.00358526 -0.0299671 -3.12896e-05)
(0.00399571 -0.030834 -3.48719e-05)
(0.00441867 -0.0316121 -3.85632e-05)
(0.00485172 -0.0323003 -4.23427e-05)
(0.00529123 -0.0328973 -4.61785e-05)
(0.00573417 -0.0334016 -5.00444e-05)
(0.00617692 -0.0338117 -5.39086e-05)
(0.00661558 -0.0341262 -5.77371e-05)
(0.00704594 -0.0343437 -6.14933e-05)
(0.00746359 -0.0344632 -6.51385e-05)
(0.00786378 -0.0344841 -6.86315e-05)
(0.00824176 -0.0344063 -7.19306e-05)
(0.00859249 -0.03423 -7.49921e-05)
(0.00891115 -0.0339566 -7.77736e-05)
(0.00919281 -0.0335875 -8.02325e-05)
(0.00943294 -0.0331253 -8.23287e-05)
(0.00962709 -0.0325732 -8.40237e-05)
(0.00977149 -0.0319352 -8.52846e-05)
(0.0098626 -0.0312159 -8.60805e-05)
(0.00989777 -0.0304207 -8.63881e-05)
(0.00987478 -0.0295553 -8.61883e-05)
(0.00979248 -0.0286264 -8.54707e-05)
(0.00965024 -0.0276405 -8.42302e-05)
(0.00944864 -0.0266048 -8.24714e-05)
(0.00918887 -0.0255264 -8.02051e-05)
(0.00887335 -0.0244123 -7.74524e-05)
(4.52904e-06 -0.00273156 -3.9521e-08)
(5.1045e-05 -0.00615346 -4.45635e-07)
(0.000135351 -0.00923707 -1.18106e-06)
(0.000259424 -0.0119224 -2.2639e-06)
(0.000416397 -0.0143324 -3.63399e-06)
(0.000595974 -0.016488 -5.20124e-06)
(0.000810275 -0.018473 -7.0715e-06)
(0.00104702 -0.0202925 -9.1377e-06)
(0.00131333 -0.0219786 -1.14617e-05)
(0.00160541 -0.0235432 -1.40109e-05)
(0.00192126 -0.024996 -1.67673e-05)
(0.00226163 -0.026346 -1.97379e-05)
(0.00262412 -0.0275968 -2.29014e-05)
(0.00300795 -0.0287526 -2.62513e-05)
(0.00341125 -0.0298144 -2.9771e-05)
(0.00383152 -0.0307838 -3.34388e-05)
(0.0042674 -0.0316601 -3.7243e-05)
(0.0047159 -0.0324433 -4.11573e-05)
(0.00517449 -0.0331318 -4.51596e-05)
(0.00563912 -0.0337245 -4.92147e-05)
(0.00610651 -0.03422 -5.32939e-05)
(0.00657277 -0.0346166 -5.73633e-05)
(0.00703363 -0.0349129 -6.13856e-05)
(0.00748466 -0.0351078 -6.53222e-05)
(0.00792102 -0.0352003 -6.91308e-05)
(0.00833781 -0.03519 -7.27686e-05)
(0.00872981 -0.035077 -7.61902e-05)
(0.00909189 -0.0348621 -7.93506e-05)
(0.00941881 -0.0345466 -8.22044e-05)
(0.00970565 -0.0341328 -8.47085e-05)
(0.0099475 -0.0336235 -8.68199e-05)
(0.0101401 -0.0330227 -8.85011e-05)
(0.0102793 -0.0323345 -8.97172e-05)
(0.010362 -0.0315646 -9.04395e-05)
(0.0103853 -0.0307186 -9.06437e-05)
(0.0103475 -0.0298032 -9.0314e-05)
(0.0102472 -0.0288252 -8.944e-05)
(0.0100846 -0.0277921 -8.80212e-05)
(0.00986011 -0.0267113 -8.60631e-05)
(0.00957572 -0.0255907 -8.35818e-05)
(0.00923394 -0.0244373 -8.06e-05)
(4.06579e-06 -0.00281921 -3.54712e-08)
(5.56437e-05 -0.00635035 -4.856e-07)
(0.000156227 -0.00953113 -1.3635e-06)
(0.000266312 -0.0123 -2.32463e-06)
(0.000428573 -0.0147833 -3.74025e-06)
(0.000650821 -0.0170039 -5.67975e-06)
(0.000861924 -0.0190473 -7.52249e-06)
(0.00112898 -0.0209192 -9.85265e-06)
(0.00140967 -0.0226522 -1.23026e-05)
(0.00172375 -0.0242589 -1.50436e-05)
(0.00206134 -0.0257492 -1.79899e-05)
(0.00242439 -0.0271318 -2.11582e-05)
(0.00281126 -0.0284105 -2.45347e-05)
(0.00322029 -0.0295897 -2.81044e-05)
(0.0036497 -0.0306703 -3.1852e-05)
(0.0040966 -0.0316537 -3.57523e-05)
(0.00455954 -0.0325392 -3.97926e-05)
(0.00503513 -0.0333267 -4.39432e-05)
(0.00552073 -0.0340147 -4.81813e-05)
(0.00601177 -0.0346019 -5.2467e-05)
(0.0065049 -0.0350868 -5.67708e-05)
(0.00699573 -0.0354678 -6.10547e-05)
(0.0074798 -0.0357438 -6.52795e-05)
(0.0079522 -0.0359134 -6.94026e-05)
(0.00840789 -0.035976 -7.338e-05)
(0.00884149 -0.0359314 -7.71645e-05)
(0.00924764 -0.0357802 -8.07096e-05)
(0.00962075 -0.0355231 -8.39664e-05)
(0.00995556 -0.0351623 -8.68889e-05)
(0.0102467 -0.0347002 -8.94307e-05)
(0.0104894 -0.0341405 -9.15496e-05)
(0.0106791 -0.0334873 -9.32053e-05)
(0.0108119 -0.0327459 -9.43651e-05)
(0.0108844 -0.0319221 -9.49986e-05)
(0.0108942 -0.0310226 -9.50848e-05)
(0.0108394 -0.0300543 -9.46077e-05)
(0.0107194 -0.029025 -9.35613e-05)
(0.0105342 -0.0279425 -9.19456e-05)
(0.010285 -0.026815 -8.97718e-05)
(0.0099739 -0.0256505 -8.70575e-05)
(0.00960412 -0.0244568 -8.38313e-05)
(4.7828e-06 -0.00291466 -4.17245e-08)
(6.01875e-05 -0.00656337 -5.2524e-07)
(0.000167579 -0.00985013 -1.46246e-06)
(0.000289781 -0.0127174 -2.5294e-06)
(0.000465978 -0.0152634 -4.06663e-06)
(0.000701285 -0.0175635 -6.12031e-06)
(0.000929195 -0.0196621 -8.10951e-06)
(0.00121468 -0.0215924 -1.06006e-05)
(0.00151508 -0.0233746 -1.32224e-05)
(0.00185079 -0.0250259 -1.61523e-05)
(0.00221174 -0.0265554 -1.93024e-05)
(0.00259989 -0.0279722 -2.269e-05)
(0.00301291 -0.0292801 -2.62945e-05)
(0.00344888 -0.0304835 -3.00993e-05)
(0.00390627 -0.0315832 -3.40911e-05)
(0.00438168 -0.0325807 -3.82403e-05)
(0.00487349 -0.033475 -4.25325e-05)
(0.00537789 -0.0342661 -4.69347e-05)
(0.00589215 -0.0349523 -5.14229e-05)
(0.00641123 -0.0355325 -5.59532e-05)
(0.00693143 -0.0360049 -6.04934e-05)
(0.00744809 -0.0363682 -6.50026e-05)
(0.00795627 -0.0366211 -6.9438e-05)
(0.00845085 -0.0367626 -7.37546e-05)
(0.00892628 -0.0367922 -7.79042e-05)
(0.00937698 -0.0367101 -8.18381e-05)
(0.00979713 -0.0365169 -8.55054e-05)
(0.010181 -0.0362141 -8.88564e-05)
(0.010523 -0.0358041 -9.18412e-05)
(0.0108177 -0.0352902 -9.44139e-05)
(0.0110599 -0.0346762 -9.6529e-05)
(0.0112454 -0.0339672 -9.81481e-05)
(0.01137 -0.033169 -9.92361e-05)
(0.0114306 -0.0322882 -9.97662e-05)
(0.0114248 -0.0313319 -9.97162e-05)
(0.0113512 -0.0303082 -9.90747e-05)
(0.0112091 -0.0292251 -9.7836e-05)
(0.0109994 -0.0280912 -9.60059e-05)
(0.0107232 -0.0269149 -9.35967e-05)
(0.0103835 -0.0257052 -9.06324e-05)
(0.00998357 -0.0244699 -8.71435e-05)
(5.0983e-06 -0.00301799 -4.44892e-08)
(6.59755e-05 -0.00679333 -5.75736e-07)
(0.000181538 -0.0101912 -1.58432e-06)
(0.000313805 -0.0131536 -2.73903e-06)
(0.000504282 -0.0157839 -4.40094e-06)
(0.00075544 -0.0181589 -6.59289e-06)
(0.00100004 -0.0203238 -8.72797e-06)
(0.00130613 -0.0223138 -1.13987e-05)
(0.00162882 -0.0241491 -1.42151e-05)
(0.00198883 -0.0258475 -1.7357e-05)
(0.00237542 -0.0274185 -2.0731e-05)
(0.0027899 -0.0288711 -2.43482e-05)
(0.0032309 -0.0302096 -2.8197e-05)
(0.00369597 -0.031438 -3.22558e-05)
(0.0041832 -0.0325573 -3.65081e-05)
(0.00468903 -0.0335687 -4.09226e-05)
(0.00521156 -0.0344714 -4.5483e-05)
(0.00574655 -0.0352652 -5.01521e-05)