/*--------------------------------*- C++ -*----------------------------------*\
| =========                 |                                                 |
| \\      /  F ield         | OpenFOAM: The Open Source CFD Toolbox           |
|  \\    /   O peration     | Version:  v2012                                 |
|   \\  /    A nd           | Website:  www.openfoam.com                      |
|    \\/     M anipulation  |                                                 |
\*---------------------------------------------------------------------------*/
FoamFile
{
    version     2.0;
    format      ascii;
    class       volScalarField;
    location    "0.15";
    object      alpha.water;
}
// * * * * * * * * * * * * * * * * * * * * * * * * * * * * * * * * * * * * * //

dimensions      [0 0 0 0 0 0 0];


internalField   nonuniform List<scalar> 
15860
(
-8.1549e-183
-4.94717e-178
-7.11728e-168
-1.20278e-161
-2.51387e-156
-7.76726e-153
-2.80375e-151
-9.54006e-151
-7.66396e-151
-1.46092e-151
-1.54103e-152
-1.01824e-153
-4.41831e-155
-3.35544e-154
-3.34917e-150
-3.00937e-146
-4.55444e-142
-6.04204e-138
-1.13086e-133
-2.49267e-129
-6.34168e-125
-7.67244e-121
-2.92889e-116
-1.17571e-111
-5.46079e-112
-1.18987e-112
-1.61759e-113
-1.53964e-114
-1.0914e-115
-5.98603e-117
-2.60561e-118
-9.1628e-120
-2.6371e-121
-6.27255e-123
-1.2441e-124
-2.10202e-126
-3.37349e-128
-7.7763e-130
-3.10306e-131
-1.34541e-132
-4.85937e-134
-1.39097e-135
-3.14622e-137
-5.64548e-139
-8.06419e-141
-9.18062e-143
-8.33173e-145
-6.0144e-147
-3.44014e-149
-1.54964e-151
-5.44866e-154
-1.47834e-156
-3.04751e-159
-4.67552e-162
-5.19341e-165
-4.02053e-168
-2.05248e-171
-6.33587e-175
-1.01237e-178
-5.66791e-183
-7.16041e-179
-2.50604e-173
-6.68474e-169
-2.95643e-158
-2.98433e-153
-4.53565e-150
-1.09132e-148
-2.77911e-148
-1.88403e-148
-3.10097e-149
-2.92455e-150
-1.73442e-151
-6.99305e-153
-2.5457e-152
-2.38454e-148
-2.01837e-144
-2.88706e-140
-3.62442e-136
-6.48019e-132
-1.37183e-127
-3.41401e-123
-4.27994e-119
-1.68267e-114
-6.85812e-110
-3.12487e-110
-6.69835e-111
-8.98056e-112
-8.4487e-113
-5.93164e-114
-3.22825e-115
-1.39679e-116
-4.89042e-118
-1.40342e-119
-3.33278e-121
-6.60162e-123
-1.10554e-124
-1.659e-126
-2.9982e-128
-9.4074e-130
-3.80004e-131
-1.36097e-132
-3.91512e-134
-8.92882e-136
-1.6174e-137
-2.33405e-139
-2.68588e-141
-2.46484e-143
-1.7997e-145
-1.04137e-147
-4.74556e-150
-1.6878e-152
-4.63074e-155
-9.64841e-158
-1.49506e-160
-1.67551e-163
-1.30676e-166
-6.70566e-170
-2.0732e-173
-3.29278e-177
-1.78885e-181
-1.71988e-178
-1.49968e-168
-8.04494e-161
-9.5043e-155
-3.10139e-150
-2.44468e-147
-3.97572e-146
-7.63577e-146
-4.39239e-146
-6.3484e-147
-5.27924e-148
-2.83377e-149
-1.0661e-150
-1.76852e-150
-1.56472e-146
-1.24521e-142
-1.6874e-138
-2.01069e-134
-3.45537e-130
-7.0921e-126
-1.76125e-121
-2.28809e-117
-9.36354e-113
-3.90067e-108
-1.7443e-108
-3.68039e-109
-4.86946e-110
-4.53111e-111
-3.15296e-112
-1.70395e-113
-7.33368e-115
-2.55822e-116
-7.32537e-118
-1.73813e-119
-3.44264e-121
-5.74511e-123
-8.31907e-125
-1.26215e-126
-2.9917e-128
-1.06933e-129
-3.74851e-131
-1.08168e-132
-2.4882e-134
-4.55387e-136
-6.64516e-138
-7.73667e-140
-7.18618e-142
-5.31209e-144
-3.11227e-146
-1.436e-148
-5.17008e-151
-1.43537e-153
-3.02433e-156
-4.73441e-159
-5.35255e-162
-4.20219e-165
-2.16327e-168
-6.67018e-172
-1.0437e-175
-5.4217e-180
-5.18382e-175
-9.06699e-169
-2.82034e-158
-9.2084e-152
-2.83216e-147
-1.20835e-144
-1.34563e-143
-1.99992e-143
-9.75445e-144
-1.24759e-144
-9.22382e-146
-4.47879e-147
-1.56663e-148
-1.12887e-148
-9.48188e-145
-7.04475e-141
-9.0752e-137
-1.02905e-132
-1.7119e-128
-3.44091e-124
-8.70622e-120
-1.17836e-115
-5.05996e-111
-2.1637e-106
-9.49842e-107
-1.97361e-107
-2.57839e-108
-2.37459e-109
-1.63878e-110
-8.80031e-112
-3.77012e-113
-1.31117e-114
-3.74874e-116
-8.8933e-118
-1.76294e-119
-2.94094e-121
-4.18639e-123
-5.69394e-125
-1.0273e-126
-3.04101e-128
-1.01826e-129
-2.93369e-131
-6.80494e-133
-1.25913e-134
-1.85947e-136
-2.19224e-138
-2.06278e-140
-1.54507e-142
-9.17346e-145
-4.28902e-147
-1.56438e-149
-4.39794e-152
-9.37605e-155
-1.48341e-157
-1.69201e-160
-1.33665e-163
-6.89483e-167
-2.11477e-170
-3.2445e-174
-1.60589e-178
-2.24723e-171
-1.55905e-165
-1.28196e-155
-7.88214e-149
-2.30133e-144
-5.49273e-142
-4.26041e-141
-4.97259e-141
-2.05271e-141
-2.33987e-142
-1.54362e-143
-6.83612e-145
-2.21186e-146
-6.71172e-147
-5.23493e-143
-3.6437e-139
-4.48948e-135
-4.84715e-131
-7.87122e-127
-1.56697e-122
-4.13058e-118
-5.88787e-114
-2.66208e-109
-1.17117e-104
-5.04696e-105
-1.03294e-105
-1.33304e-106
-1.21571e-107
-8.32601e-109
-4.44551e-110
-1.89689e-111
-6.5812e-113
-1.87989e-114
-4.46173e-116
-8.85859e-118
-1.48006e-119
-2.0929e-121
-2.67892e-123
-3.87599e-125
-8.94417e-127
-2.74453e-128
-7.81731e-130
-1.82584e-131
-3.41671e-133
-5.11014e-135
-6.10563e-137
-5.82469e-139
-4.42437e-141
-2.66415e-143
-1.2632e-145
-4.67115e-148
-1.33067e-150
-2.87219e-153
-4.59479e-156
-5.28898e-159
-4.20395e-162
-2.17157e-165
-6.61644e-169
-9.93081e-173
-4.67346e-177
-5.48487e-166
-5.09575e-159
-5.94992e-154
-7.17204e-146
-1.67072e-141
-2.26913e-139
-1.24902e-138
-1.19083e-138
-4.09861e-139
-4.19291e-140
-2.46946e-141
-1.0054e-142
-3.00245e-144
-3.82448e-145
-2.60202e-141
-1.71571e-137
-2.04238e-133
-2.09479e-129
-3.35454e-125
-6.70554e-121
-1.88616e-116
-2.87587e-112
-1.36542e-107
-6.18999e-103
-2.61753e-103
-5.27676e-104
-6.72847e-105
-6.0788e-106
-4.13351e-107
-2.19559e-108
-9.33654e-110
-3.2334e-111
-9.23292e-113
-2.19357e-114
-4.36488e-116
-7.31279e-118
-1.03316e-119
-1.28325e-121
-1.59737e-123
-2.80432e-125
-7.4256e-127
-2.0512e-128
-4.80605e-130
-9.09384e-132
-1.37824e-133
-1.67009e-135
-1.61656e-137
-1.24621e-139
-7.61645e-142
-3.66507e-144
-1.37507e-146
-3.97206e-149
-8.6859e-152
-1.4058e-154
-1.63373e-157
-1.30685e-160
-6.75941e-164
-2.04481e-167
-3.00057e-171
-1.34182e-175
-1.125e-162
-2.29696e-155
-3.93342e-149
-4.29191e-143
-1.09105e-138
-8.72446e-137
-3.42952e-136
-2.72711e-136
-7.75451e-137
-7.17595e-138
-3.78459e-139
-1.41898e-140
-3.89798e-142
-2.23414e-143
-1.15498e-139
-7.32115e-136
-8.39283e-132
-8.28094e-128
-1.32452e-123
-2.70641e-119
-8.32384e-115
-1.38166e-110
-6.82715e-106
-3.19794e-101
-1.32589e-101
-2.63177e-102
-3.3156e-103
-2.96804e-104
-2.00458e-105
-1.05975e-106
-4.49341e-108
-1.55415e-109
-4.4387e-111
-1.05619e-112
-2.10748e-114
-3.54355e-116
-5.018e-118
-6.15498e-120
-7.01243e-122
-9.62677e-124
-2.05755e-125
-5.32639e-127
-1.24186e-128
-2.37307e-130
-3.64559e-132
-4.48308e-134
-4.40606e-136
-3.44973e-138
-2.14152e-140
-1.04661e-142
-3.98686e-145
-1.16863e-147
-2.59077e-150
-4.24493e-153
-4.98337e-156
-4.0136e-159
-2.07933e-162
-6.24702e-166
-8.96716e-170
-3.81474e-174
-3.66718e-162
-1.11968e-156
-2.19732e-148
-6.67478e-140
-6.36823e-136
-3.023e-134
-8.64624e-134
-5.68043e-134
-1.39385e-134
-1.16048e-135
-5.52596e-137
-1.91579e-138
-4.8704e-140
-1.50985e-141
-4.5548e-138
-2.81381e-134
-3.1094e-130
-2.98535e-126
-4.85073e-122
-1.03744e-117
-3.56494e-113
-6.54143e-109
-3.31983e-104
-1.61712e-99
-6.56521e-100
-1.28207e-100
-1.59527e-101
-1.41493e-102
-9.49336e-104
-4.99688e-105
-2.11346e-106
-7.30397e-108
-2.08747e-109
-4.97731e-111
-9.96403e-113
-1.6825e-114
-2.3925e-116
-2.92588e-118
-3.1844e-120
-3.64284e-122
-6.01107e-124
-1.3824e-125
-3.15603e-127
-6.07087e-129
-9.45153e-131
-1.18009e-132
-1.1784e-134
-9.37702e-137
-5.91672e-139
-2.9389e-141
-1.13747e-143
-3.38571e-146
-7.61483e-149
-1.26398e-151
-1.49999e-154
-1.21718e-157
-6.32058e-161
-1.88748e-164
-2.65436e-168
-1.0773e-172
-1.68359e-156
-8.32262e-150
-3.6291e-143
-8.36283e-137
-3.34578e-133
-9.86234e-132
-2.06822e-131
-1.11545e-131
-2.38629e-132
-1.78476e-133
-7.72437e-135
-2.46819e-136
-5.81837e-138
-1.25636e-139
-1.58973e-136
-9.67053e-133
-1.04236e-128
-9.79699e-125
-1.65535e-120
-3.82009e-116
-1.48631e-111
-3.04071e-107
-1.56312e-102
-8.01852e-98
-3.1818e-98
-6.1052e-99
-7.49709e-100
-6.58604e-101
-4.38958e-102
-2.30076e-103
-9.71015e-105
-3.35438e-106
-9.59759e-108
-2.29414e-109
-4.60977e-111
-7.82115e-113
-1.11805e-114
-1.37025e-116
-1.46154e-118
-1.49189e-120
-1.90946e-122
-3.65044e-124
-7.92293e-126
-1.52331e-127
-2.40069e-129
-3.04409e-131
-3.09016e-133
-2.50071e-135
-1.6049e-137
-8.10749e-140
-3.19043e-142
-9.65003e-145
-2.2035e-147
-3.70814e-150
-4.45186e-153
-3.64281e-156
-1.89793e-159
-5.64116e-163
-7.78961e-167
-3.02815e-171
-3.29289e-153
-2.59423e-147
-6.51996e-140
-9.42684e-134
-1.59055e-130
-2.97528e-129
-4.61275e-129
-2.06505e-129
-3.88726e-130
-2.60076e-131
-1.02819e-132
-3.04181e-134
-6.65321e-136
-1.19954e-137
-4.89175e-135
-2.94485e-131
-3.13959e-127
-2.92967e-123
-5.32001e-119
-1.37052e-114
-6.03212e-110
-1.37499e-105
-7.08192e-101
-3.90693e-96
-1.51177e-96
-2.84508e-97
-3.4436e-98
-2.99397e-99
-1.98154e-100
-1.03418e-101
-4.35587e-103
-1.50455e-104
-4.31123e-106
-1.03352e-107
-2.08534e-109
-3.5566e-111
-5.11491e-113
-6.29968e-115
-6.67876e-117
-6.41141e-119
-6.70101e-121
-1.00799e-122
-1.98225e-124
-3.75544e-126
-5.97316e-128
-7.69007e-130
-7.93926e-132
-6.53774e-134
-4.27021e-136
-2.19535e-138
-8.78955e-141
-2.70344e-143
-6.27181e-146
-1.07088e-148
-1.30178e-151
-1.0752e-154
-5.62746e-158
-1.66765e-161
-2.26741e-165
-8.48326e-170
-5.64717e-150
-2.96434e-145
-6.26033e-137
-9.11468e-131
-6.88028e-128
-8.23861e-127
-9.57741e-127
-3.61453e-127
-6.03885e-128
-3.6125e-129
-1.30973e-130
-3.58481e-132
-7.2908e-134
-1.1953e-135
-1.32718e-133
-7.87366e-130
-8.44589e-126
-8.04965e-122
-1.64118e-117
-4.8523e-113
-2.37358e-108
-5.97483e-104
-3.06491e-99
-1.875e-94
-7.05633e-95
-1.29949e-95
-1.54754e-96
-1.32997e-97
-8.73431e-99
-4.53744e-100
-1.90714e-101
-6.58737e-103
-1.89089e-104
-4.54764e-106
-9.21722e-108
-1.58087e-109
-2.28848e-111
-2.83687e-113
-3.01186e-115
-2.81072e-117
-2.5702e-119
-3.0054e-121
-5.0238e-123
-9.13282e-125
-1.45646e-126
-1.90167e-128
-1.99703e-130
-1.67421e-132
-1.11358e-134
-5.82987e-137
-2.3763e-139
-7.43733e-142
-1.7543e-144
-3.04161e-147
-3.74723e-150
-3.12752e-153
-1.64669e-156
-4.87498e-160
-6.54695e-164
-2.37e-168
-1.23322e-147
-7.2792e-143
-2.09671e-133
-7.58335e-128
-2.69282e-125
-2.12218e-124
-1.87237e-124
-5.95974e-125
-8.88605e-126
-4.72308e-127
-1.5719e-128
-4.00382e-130
-7.63843e-132
-1.17065e-133
-3.1153e-132
-1.83832e-128
-2.04401e-124
-2.07764e-120
-4.9864e-116
-1.70249e-111
-8.98349e-107
-2.46271e-102
-1.25712e-97
-8.88364e-93
-3.24299e-93
-5.82872e-94
-6.814e-95
-5.77835e-96
-3.7609e-97
-1.9433e-98
-8.14788e-100
-2.8141e-101
-8.09277e-103
-1.95308e-104
-3.97759e-106
-6.86273e-108
-1.00041e-109
-1.24935e-111
-1.33353e-113
-1.23261e-115
-1.04588e-117
-9.88561e-120
-1.32357e-121
-2.20903e-123
-3.48591e-125
-4.6026e-127
-4.91501e-129
-4.19643e-131
-2.84385e-133
-1.51698e-135
-6.29899e-138
-2.00743e-140
-4.81782e-143
-8.48906e-146
-1.06094e-148
-8.95823e-152
-4.75216e-155
-1.40851e-158
-1.87471e-162
-6.60332e-167
-2.88891e-144
-7.35712e-140
-1.10751e-130
-5.4707e-125
-9.63135e-123
-5.05889e-122
-3.42024e-122
-9.32521e-123
-1.2385e-123
-5.89723e-125
-1.80509e-126
-4.26929e-128
-7.66725e-130
-1.1105e-131
-6.32785e-131
-3.79038e-127
-4.58674e-123
-5.25239e-119
-1.52512e-114
-5.86878e-110
-3.23598e-105
-9.51541e-101
-4.84854e-96
-4.16345e-91
-1.47096e-91
-2.57322e-92
-2.94513e-93
-2.45876e-94
-1.58324e-95
-8.1271e-97
-3.39669e-98
-1.17261e-99
-3.37811e-101
-8.18159e-103
-1.67459e-104
-2.90726e-106
-4.26913e-108
-5.37425e-110
-5.77925e-112
-5.34377e-114
-4.3756e-116
-3.57116e-118
-3.74316e-120
-5.39625e-122
-8.2207e-124
-1.09072e-125
-1.18303e-127
-1.02879e-129
-7.1066e-132
-3.86458e-134
-1.63567e-136
-5.31128e-139
-1.2979e-141
-2.32601e-144
-2.9518e-147
-2.52458e-150
-1.35148e-153
-4.01954e-157
-5.32079e-161
-1.83412e-165
-1.35935e-139
-1.43259e-133
-1.76208e-127
-3.41213e-122
-3.14819e-120
-1.12588e-119
-5.92431e-120
-1.39024e-120
-1.62398e-121
-6.98585e-123
-1.96865e-124
-4.32595e-126
-7.34528e-128
-1.00678e-129
-1.14098e-129
-7.25017e-126
-1.01532e-121
-1.36643e-117
-4.70354e-113
-1.9494e-108
-1.09659e-103
-3.41205e-99
-1.74472e-94
-1.93239e-89
-6.598e-90
-1.1207e-90
-1.25228e-91
-1.02649e-92
-6.52437e-94
-3.32136e-95
-1.38207e-96
-4.76555e-98
-1.37478e-99
-3.34109e-101
-6.87319e-103
-1.20089e-104
-1.77682e-106
-2.25565e-108
-2.44661e-110
-2.27474e-112
-1.83867e-114
-1.37852e-116
-1.16431e-118
-1.36456e-120
-1.92529e-122
-2.53482e-124
-2.78441e-126
-2.46539e-128
-1.73641e-130
-9.63094e-133
-4.15727e-135
-1.37629e-137
-3.42677e-140
-6.25122e-143
-8.06316e-146
-6.99373e-149
-3.78438e-152
-1.13205e-155
-1.49564e-159
-5.07453e-164
-5.36665e-137
-5.83577e-131
-5.5423e-125
-1.86497e-119
-9.34169e-118
-2.31723e-117
-9.51269e-118
-1.9578e-118
-1.99838e-119
-7.83893e-121
-2.04153e-122
-4.16067e-124
-6.6915e-126
-8.67328e-128
-1.99948e-128
-1.42007e-124
-2.3741e-120
-3.72634e-116
-1.42824e-111
-6.09339e-107
-3.45656e-102
-1.12643e-97
-5.81219e-93
-8.88281e-88
-2.93043e-88
-4.82503e-89
-5.25038e-90
-4.21349e-91
-2.63636e-92
-1.32795e-93
-5.49218e-95
-1.88927e-96
-5.45374e-98
-1.32946e-99
-2.74845e-101
-4.83303e-103
-7.2063e-105
-9.22815e-107
-1.01028e-108
-9.47022e-111
-7.64875e-113
-5.50142e-115
-3.98258e-117
-3.68607e-119
-4.54392e-121
-5.79844e-123
-6.41082e-125
-5.7723e-127
-4.14543e-129
-2.34603e-131
-1.03333e-133
-3.48973e-136
-8.85912e-139
-1.64634e-141
-2.16042e-144
-1.90271e-147
-1.0424e-150
-3.14348e-154
-4.15952e-158
-1.39691e-162
-6.99282e-135
-1.4058e-129
-7.15375e-122
-8.94188e-117
-2.54077e-115
-4.45686e-115
-1.44505e-115
-2.5526e-116
-2.30174e-117
-8.27932e-119
-1.99636e-120
-3.79559e-122
-5.77247e-124
-7.09246e-126
-4.12659e-127
-3.11028e-123
-5.92131e-119
-1.02873e-114
-4.11407e-110
-1.75216e-105
-1.00312e-100
-3.40436e-96
-1.77811e-91
-4.03965e-86
-1.28899e-86
-2.05637e-87
-2.1751e-88
-1.70442e-89
-1.04676e-90
-5.20285e-92
-2.13385e-93
-7.31035e-95
-2.10914e-96
-5.15338e-98
-1.07023e-99
-1.89377e-101
-2.84566e-103
-3.67649e-105
-4.06416e-107
-3.84639e-109
-3.12371e-111
-2.21161e-113
-1.46098e-115
-1.09104e-117
-1.10658e-119
-1.31561e-121
-1.44614e-123
-1.32024e-125
-9.66372e-128
-5.58165e-130
-2.50975e-132
-8.65115e-135
-2.24063e-137
-4.24496e-140
-5.67252e-143
-5.07878e-146
-2.82157e-149
-8.59708e-153
-1.14315e-156
-3.82029e-161
-1.60128e-131
-1.55968e-125
-8.85799e-119
-3.78079e-114
-6.37604e-113
-7.98203e-113
-2.07591e-113
-3.16114e-114
-2.47703e-115
-8.18393e-117
-1.83582e-118
-3.27282e-120
-4.70632e-122
-5.47766e-124
-1.21442e-125
-7.49134e-122
-1.484e-117
-2.71137e-113
-1.08527e-108
-4.54408e-104
-2.65697e-99
-9.39939e-95
-4.95246e-90
-1.81362e-84
-5.6097e-85
-8.67813e-86
-8.91639e-87
-6.80873e-88
-4.09303e-89
-2.00154e-90
-8.11813e-92
-2.76357e-93
-7.95543e-95
-1.94602e-96
-4.05675e-98
-7.22054e-100
-1.09326e-101
-1.42508e-103
-1.59105e-105
-1.52145e-107
-1.24638e-109
-8.80841e-112
-5.55861e-114
-3.54696e-116
-2.86665e-118
-3.00272e-120
-3.2078e-122
-2.95108e-124
-2.19876e-126
-1.29613e-128
-5.95162e-131
-2.09501e-133
-5.53911e-136
-1.07061e-138
-1.45815e-141
-1.32871e-144
-7.49727e-148
-2.31305e-151
-3.1005e-155
-1.03626e-159
-2.63639e-128
-1.00743e-122
-1.07828e-115
-1.40092e-111
-1.4753e-110
-1.32392e-110
-2.80503e-111
-3.67967e-112
-2.48787e-113
-7.55977e-115
-1.57984e-116
-2.6489e-118
-3.60744e-120
-3.97061e-122
-5.05593e-124
-1.80781e-120
-3.48234e-116
-6.49272e-112
-2.55043e-107
-1.04442e-102
-6.38026e-98
-2.38206e-93
-1.2436e-88
-8.01564e-83
-2.41043e-83
-3.62316e-84
-3.61823e-85
-2.69005e-86
-1.57949e-87
-7.57738e-89
-3.03017e-90
-1.02217e-91
-2.92929e-93
-7.16155e-95
-1.49683e-96
-2.67779e-98
-4.08368e-100
-5.36999e-102
-6.05558e-104
-5.85307e-106
-4.84456e-108
-3.4422e-110
-2.13359e-112
-1.23761e-114
-8.10188e-117
-7.05199e-119
-7.04913e-121
-6.45653e-123
-4.88208e-125
-2.93577e-127
-1.37696e-129
-4.95184e-132
-1.33727e-134
-2.6387e-137
-3.66602e-140
-3.40365e-143
-1.95341e-146
-6.11492e-150
-8.28744e-154
-2.78303e-158
-7.09406e-127
-2.89021e-118
-1.02125e-112
-4.55075e-109
-3.14166e-108
-2.03285e-108
-3.57187e-109
-4.02708e-110
-2.32634e-111
-6.52271e-113
-1.27275e-114
-2.01455e-116
-2.59497e-118
-2.69413e-120
-2.57512e-122
-4.00817e-119
-7.28977e-115
-1.36395e-110
-5.22227e-106
-2.09202e-101
-1.38396e-96
-5.64432e-92
-2.78343e-87
-3.477e-81
-1.01976e-81
-1.49349e-82
-1.45225e-83
-1.05164e-84
-6.02461e-86
-2.82893e-87
-1.11211e-88
-3.7061e-90
-1.05438e-91
-2.57054e-93
-5.37753e-95
-9.65792e-97
-1.48239e-98
-1.96575e-100
-2.23869e-102
-2.18741e-104
-1.83071e-106
-1.31253e-108
-8.1134e-111
-4.48309e-113
-2.5072e-115
-1.75445e-117
-1.55552e-119
-1.38759e-121
-1.0583e-123
-6.48311e-126
-3.1058e-128
-1.14147e-130
-3.15016e-133
-6.34976e-136
-9.00615e-139
-8.52813e-142
-4.98509e-145
-1.58642e-148
-2.17982e-152
-7.38609e-157
-1.79188e-124
-1.75867e-116
-8.09918e-110
-1.31603e-106
-5.9733e-106
-2.89458e-106
-4.23253e-107
-4.15344e-108
-2.02623e-109
-5.25767e-111
-9.58889e-113
-1.43259e-114
-1.74125e-116
-1.69604e-118
-1.39469e-120
-7.71341e-118
-1.31962e-113
-2.44592e-109
-9.12252e-105
-3.58732e-100
-2.71486e-95
-1.30403e-90
-5.47682e-86
-1.47613e-79
-4.2347e-80
-6.06117e-81
-5.75394e-82
-4.06501e-83
-2.27259e-84
-1.04318e-85
-4.02171e-87
-1.32001e-88
-3.7167e-90
-9.0107e-92
-1.88245e-93
-3.38828e-95
-5.22834e-97
-6.98673e-99
-8.03272e-101
-7.93342e-103
-6.7158e-105
-4.86695e-107
-3.02409e-109
-1.63856e-111
-8.31452e-114
-4.73778e-116
-3.52175e-118
-2.95034e-120
-2.24305e-122
-1.39561e-124
-6.82533e-127
-2.56413e-129
-7.23453e-132
-1.49052e-134
-2.15981e-137
-2.08788e-140
-1.24465e-143
-4.03367e-147
-5.63318e-151
-1.93328e-155
-4.94441e-121
-6.20167e-113
-5.28751e-107
-3.40174e-104
-1.03823e-103
-3.82353e-104
-4.72276e-105
-4.00464e-106
-1.64318e-107
-3.97237e-109
-6.76393e-111
-9.50742e-113
-1.08273e-114
-9.8761e-117
-7.33222e-119
-1.23218e-116
-2.00633e-112
-3.64493e-108
-1.32807e-103
-5.15742e-99
-4.85751e-94
-3.1346e-89
-9.3125e-85
-6.11922e-78
-1.72112e-78
-2.41434e-79
-2.24413e-80
-1.55059e-81
-8.47206e-83
-3.80177e-84
-1.43533e-85
-4.62824e-87
-1.28572e-88
-3.09003e-90
-6.42858e-92
-1.157e-93
-1.79187e-95
-2.41039e-97
-2.79577e-99
-2.78995e-101
-2.38869e-103
-1.75114e-105
-1.09801e-107
-5.92853e-110
-2.86021e-112
-1.39432e-114
-8.40702e-117
-6.28639e-119
-4.66422e-121
-2.9298e-123
-1.46072e-125
-5.60891e-128
-1.61843e-130
-3.40994e-133
-5.05134e-136
-4.98943e-139
-3.03682e-142
-1.00385e-145
-1.42805e-149
-4.98079e-154
-2.05444e-117
-3.85173e-110
-2.8519e-104
-7.86858e-102
-1.62057e-101
-4.66887e-102
-4.91785e-103
-3.51716e-104
-1.24559e-105
-2.79531e-107
-4.43627e-109
-5.83952e-111
-6.19283e-113
-5.27009e-115
-3.54728e-117
-1.55541e-115
-2.46321e-111
-4.37116e-107
-1.56495e-102
-6.05565e-98
-8.06933e-93
-8.25902e-88
-1.33841e-83
-2.47293e-76
-6.8303e-77
-9.41126e-78
-8.58864e-79
-5.82041e-80
-3.11534e-81
-1.36846e-82
-5.05885e-84
-1.60004e-85
-4.37383e-87
-1.03877e-88
-2.14519e-90
-3.84957e-92
-5.9707e-94
-8.07224e-96
-9.4353e-98
-9.50679e-100
-8.22933e-102
-6.10374e-104
-3.86922e-106
-2.09928e-108
-9.91809e-111
-4.38296e-113
-2.16494e-115
-1.36943e-117
-9.57971e-120
-6.00632e-122
-3.04387e-124
-1.19399e-126
-3.52401e-129
-7.59627e-132
-1.15107e-134
-1.16263e-137
-7.23256e-141
-2.44206e-144
-3.54578e-148
-1.26062e-152
-3.84093e-115
-1.12566e-108
-1.2682e-101
-1.62001e-99
-2.25015e-99
-5.17072e-100
-4.65419e-101
-2.72173e-102
-8.88819e-104
-1.83273e-105
-2.70552e-107
-3.30776e-109
-3.22273e-111
-2.53886e-113
-1.51913e-115
-1.45293e-114
-2.31328e-110
-4.03929e-106
-1.43475e-101
-5.60531e-97
-1.2748e-91
-2.36543e-86
-1.57823e-82
-9.73308e-75
-2.64219e-75
-3.58131e-76
-3.21572e-77
-2.14309e-78
-1.1268e-79
-4.85596e-81
-1.75977e-82
-5.45786e-84
-1.46558e-85
-3.43013e-87
-7.0084e-89
-1.24992e-90
-1.93625e-92
-2.62541e-94
-3.08751e-96
-3.13743e-98
-2.74379e-100
-2.05841e-102
-1.32009e-104
-7.2268e-107
-3.39955e-109
-1.42613e-111
-6.03855e-114
-3.12742e-116
-1.96647e-118
-1.20627e-120
-6.17789e-123
-2.47226e-125
-7.46302e-128
-1.64637e-130
-2.55328e-133
-2.63896e-136
-1.6795e-139
-5.79973e-143
-8.60991e-147
-3.12826e-151
-2.63781e-112
-7.07669e-105
-4.77766e-99
-2.98834e-97
-2.91046e-97
-5.33642e-98
-4.20053e-99
-2.07044e-100
-5.93279e-102
-1.09956e-103
-1.52035e-105
-1.71779e-107
-1.53097e-109
-1.08135e-111
-5.59585e-114
-9.02705e-114
-1.55143e-109
-2.69869e-105
-9.66457e-101
-3.88713e-96
-1.95186e-90
-6.97926e-85
-1.46347e-81
-3.72959e-73
-9.95288e-74
-1.32805e-74
-1.17495e-75
-7.71643e-77
-3.99574e-78
-1.6939e-79
-6.0305e-81
-1.8359e-82
-4.84059e-84
-1.11439e-85
-2.24608e-87
-3.96771e-89
-6.12017e-91
-8.30068e-93
-9.79989e-95
-1.00264e-96
-8.8483e-99
-6.70951e-101
-4.35311e-103
-2.40905e-105
-1.13818e-107
-4.66922e-110
-1.79077e-112
-7.64615e-115
-4.10813e-117
-2.38775e-119
-1.22275e-121
-4.978e-124
-1.53616e-126
-3.46872e-129
-5.50798e-132
-5.82892e-135
-3.79826e-138
-1.34294e-141
-2.04146e-145
-7.5968e-150
-5.64142e-108
-1.95897e-101
-1.53109e-96
-4.93388e-95
-3.41513e-95
-5.09776e-96
-3.49708e-97
-1.4376e-98
-3.63167e-100
-6.0758e-102
-7.83543e-104
-8.13633e-106
-6.51367e-108
-4.00522e-110
-1.6581e-112
-2.88067e-113
-6.61184e-109
-1.1767e-104
-4.373e-100
-1.86403e-95
-2.898e-89
-2.02105e-83
-9.99029e-81
-1.39146e-71
-3.64928e-72
-4.79397e-73
-4.18156e-74
-2.70986e-75
-1.38478e-76
-5.78937e-78
-2.03005e-79
-6.07871e-81
-1.57508e-82
-3.56469e-84
-7.07228e-86
-1.23366e-87
-1.88903e-89
-2.55483e-91
-3.01959e-93
-3.1034e-95
-2.75903e-97
-2.11224e-99
-1.38565e-101
-7.7563e-104
-3.69623e-106
-1.50817e-108
-5.4805e-111
-2.00952e-113
-8.93204e-116
-4.70729e-118
-2.36653e-120
-9.74928e-123
-3.07162e-125
-7.09886e-128
-1.15451e-130
-1.25163e-133
-8.35657e-137
-3.02803e-140
-4.71953e-144
-1.8021e-148
-1.70098e-104
-3.06136e-98
-4.1759e-94
-7.27623e-93
-3.63103e-93
-4.50156e-94
-2.67824e-95
-9.24946e-97
-2.04878e-98
-3.08307e-100
-3.64522e-102
-3.47687e-104
-2.42116e-106
-1.19798e-108
-3.16326e-111
-7.46286e-120
-1.36092e-108
-2.77992e-104
-1.13583e-99
-5.35059e-95
-4.09898e-88
-5.60164e-82
-4.46932e-80
-5.05643e-70
-1.3024e-70
-1.68376e-71
-1.44793e-72
-9.26392e-74
-4.67765e-75
-1.93238e-76
-6.6904e-78
-1.9754e-79
-5.03988e-81
-1.12212e-82
-2.18931e-84
-3.76266e-86
-5.70505e-88
-7.6688e-90
-9.04343e-92
-9.30958e-94
-8.31886e-96
-6.41939e-98
-4.25355e-100
-2.40772e-102
-1.15943e-104
-4.74758e-107
-1.68388e-109
-5.58352e-112
-2.05964e-114
-9.38848e-117
-4.502e-119
-1.85892e-121
-5.96444e-124
-1.41018e-126
-2.3493e-129
-2.61022e-132
-1.78665e-135
-6.64015e-139
-1.06229e-142
-4.16854e-147
-1.33261e-100
-3.24064e-95
-9.3725e-92
-9.67604e-91
-3.51025e-91
-3.61474e-92
-1.82225e-93
-5.54197e-95
-1.05284e-96
-1.40097e-98
-1.47524e-100
-1.32718e-102
-7.53217e-105
-2.38201e-107
-3.92087e-131
3.75515e-111
4.12437e-111
-2.36843e-104
-1.19939e-99
-6.52877e-95
-5.39562e-87
-1.47169e-80
-1.0341e-79
-1.79054e-68
-4.5255e-69
-5.75343e-70
-4.87526e-71
-3.07913e-72
-1.53693e-73
-6.28134e-75
-2.15146e-76
-6.27901e-78
-1.5812e-79
-3.46968e-81
-6.65886e-83
-1.12647e-84
-1.68896e-86
-2.24922e-88
-2.63668e-90
-2.70942e-92
-2.42654e-94
-1.88323e-96
-1.25843e-98
-7.19714e-101
-3.50355e-103
-1.44597e-105
-5.09277e-108
-1.59535e-110
-5.05888e-113
-1.93113e-115
-8.49151e-118
-3.4583e-120
-1.12476e-122
-2.71748e-125
-4.6372e-128
-5.28178e-131
-3.7082e-134
-1.41447e-137
-2.32472e-141
-9.38679e-146
-1.37205e-98
-2.42003e-92
-1.85878e-89
-1.14793e-88
-3.09302e-89
-2.6716e-90
-1.17776e-91
-3.00504e-93
-5.01558e-95
-5.86994e-97
-5.39172e-99
-4.18958e-101
-1.65415e-103
7.91127e-128
6.30838e-108
2.1008e-107
5.49323e-107
-5.30915e-122
5.69734e-103
1.92146e-96
-6.48416e-86
-3.65122e-79
-1.75953e-79
-6.18159e-67
-1.53147e-67
-1.9129e-68
-1.59593e-69
-9.9441e-71
-4.90555e-72
-1.98419e-73
-6.73105e-75
-1.94542e-76
-4.84705e-78
-1.05073e-79
-1.98595e-81
-3.30864e-83
-4.90774e-85
-6.45556e-87
-7.49553e-89
-7.66062e-91
-6.85358e-93
-5.33482e-95
-3.58744e-97
-2.06993e-99
-1.01807e-101
-4.24228e-104
-1.4974e-106
-4.56483e-109
-1.30496e-111
-4.16463e-114
-1.60838e-116
-6.30272e-119
-2.06109e-121
-5.0778e-124
-8.87195e-127
-1.03608e-129
-7.46365e-133
-2.92347e-136
-4.93966e-140
-2.05437e-144
-4.54203e-95
-1.3342e-89
-3.1739e-87
-1.21912e-86
-2.47523e-87
-1.813e-88
-6.86705e-90
-1.50268e-91
-2.18698e-93
-2.26607e-95
-1.761e-97
-1.09006e-99
-1.28291e-102
1.33046e-104
9.76207e-104
2.95527e-103
8.34501e-103
2.43473e-103
1.93598e-101
2.20624e-95
-7.00073e-85
-8.53126e-78
-4.40013e-78
-2.08119e-65
-5.04854e-66
-6.18913e-67
-5.07912e-68
-3.11946e-69
-1.51984e-70
-6.08222e-72
-2.04417e-73
-5.85731e-75
-1.44655e-76
-3.10508e-78
-5.78914e-80
-9.56707e-82
-1.40039e-83
-1.8138e-85
-2.07996e-87
-2.10727e-89
-1.87676e-91
-1.46046e-93
-9.85619e-96
-5.72542e-98
-2.84143e-100
-1.19562e-102
-4.24797e-105
-1.28266e-107
-3.44783e-110
-9.4615e-113
-3.10722e-115
-1.13271e-117
-3.67558e-120
-9.19867e-123
-1.64411e-125
-1.96849e-128
-1.45535e-131
-5.85603e-135
-1.01779e-138
-4.36326e-143
-1.02191e-92
-5.59124e-87
-4.75181e-85
-1.17625e-84
-1.7875e-85
-1.11588e-86
-3.66165e-88
-6.78414e-90
-8.45744e-92
-7.69956e-94
-4.92254e-96
-1.94409e-98
-1.62593e-121
3.64921e-100
1.8103e-99
5.39507e-99
1.42909e-98
3.95143e-99
7.88133e-100
2.28056e-94
-6.66588e-84
-1.87266e-76
-1.06644e-76
-6.83267e-64
-1.62125e-64
-1.94867e-65
-1.57143e-66
-9.50379e-68
-4.56886e-69
-1.80761e-70
-6.0166e-72
-1.70961e-73
-4.18953e-75
-8.92115e-77
-1.65147e-78
-2.70121e-80
-3.8986e-82
-4.97951e-84
-5.63546e-86
-5.64652e-88
-4.98982e-90
-3.86832e-92
-2.61142e-94
-1.52306e-96
-7.6116e-99
-3.23109e-101
-1.15738e-103
-3.49444e-106
-9.09875e-109
-2.23961e-111
-6.20712e-114
-2.02649e-116
-6.39643e-119
-1.61586e-121
-2.94946e-124
-3.61939e-127
-2.74656e-130
-1.13561e-133
-2.03101e-137
-8.98e-142
-1.49441e-90
-1.83007e-84
-6.28082e-83
-1.01042e-82
-1.15065e-83
-6.29831e-85
-1.72598e-86
-2.76699e-88
-2.83988e-90
-1.96973e-92
-8.49894e-95
4.01612e-118
3.94744e-98
2.11137e-97
9.83141e-97
2.9208e-96
7.36357e-96
5.74329e-95
1.13769e-95
2.16226e-93
-5.45611e-83
-3.85939e-75
-2.54262e-75
-2.18598e-62
-5.06983e-63
-5.96898e-64
-4.72521e-65
-2.81127e-66
-1.33218e-67
-5.20552e-69
-1.71451e-70
-4.82901e-72
-1.17449e-73
-2.4835e-75
-4.56371e-77
-7.40074e-79
-1.05714e-80
-1.33408e-82
-1.49042e-84
-1.47482e-86
-1.2897e-88
-9.9262e-91
-6.67893e-93
-3.89815e-95
-1.95646e-97
-8.36307e-100
-3.01959e-102
-9.15747e-105
-2.35219e-107
-5.40498e-110
-1.28872e-112
-3.65069e-115
-1.091e-117
-2.75447e-120
-5.12015e-123
-6.43527e-126
-5.01199e-129
-2.12971e-132
-3.92049e-136
-1.78847e-140
-7.93142e-90
-4.79917e-82
-7.20969e-81
-7.61071e-81
-7.1719e-82
-3.19774e-83
-7.63968e-85
-1.02304e-86
-8.13499e-89
-3.50924e-91
-6.68869e-103
3.02262e-98
3.17293e-97
1.72676e-96
7.9657e-96
2.35412e-95
5.89688e-95
2.52875e-92
1.45093e-91
1.63083e-92
-3.69843e-82
-7.52179e-74
-6.07146e-74
-6.80502e-61
-1.54232e-61
-1.77752e-62
-1.38014e-63
-8.06999e-65
-3.76579e-66
-1.4518e-67
-4.72668e-69
-1.31842e-70
-3.18092e-72
-6.68032e-74
-1.21979e-75
-1.96462e-77
-2.78354e-79
-3.47786e-81
-3.84019e-83
-3.75239e-85
-3.24185e-87
-2.47002e-89
-1.65065e-91
-9.60576e-94
-4.82581e-96
-2.07182e-98
-7.52964e-101
-2.29696e-103
-5.87901e-106
-1.29928e-108
-2.75991e-111
-6.69146e-114
-1.83492e-116
-4.56303e-119
-8.59932e-122
-1.10566e-124
-8.83574e-128
-3.85857e-131
-7.31215e-135
-3.44235e-139
-1.37995e-85
-1.04028e-79
-6.83927e-79
-5.21778e-79
-4.07594e-80
-1.45433e-81
-2.79292e-83
-2.97777e-85
-1.66533e-87
-7.47347e-108
1.91294e-91
2.66637e-90
2.20935e-89
1.13809e-88
4.97383e-88
1.40819e-87
3.40524e-87
1.87184e-91
5.86829e-89
6.79182e-89
-1.94799e-81
-1.43e-72
-1.47655e-72
-2.05623e-59
-4.55615e-60
-5.13934e-61
-3.91158e-62
-2.24604e-63
-1.03117e-64
-3.9184e-66
-1.25971e-67
-3.47593e-69
-8.31102e-71
-1.73256e-72
-3.14388e-74
-5.03394e-76
-7.08664e-78
-8.78528e-80
-9.60647e-82
-9.27942e-84
-7.91805e-86
-5.96165e-88
-3.94506e-90
-2.28077e-92
-1.14274e-94
-4.91138e-97
-1.79237e-99
-5.49713e-102
-1.40864e-104
-3.05202e-107
-5.99084e-110
-1.25385e-112
-3.06494e-115
-7.36258e-118
-1.39739e-120
-1.83457e-123
-1.50354e-126
-6.74719e-130
-1.31624e-133
-6.39482e-138
-2.41177e-82
-1.67334e-77
-5.8389e-77
-3.22853e-77
-1.75004e-78
-5.60339e-80
-9.19586e-82
-7.15664e-84
-1.92403e-86
-6.12051e-104
2.3167e-87
3.29845e-86
2.72601e-85
1.41349e-84
6.17107e-84
1.76103e-83
5.01305e-83
9.72832e-84
4.38993e-88
4.23809e-87
-6.68798e-81
-2.89353e-71
-3.68818e-71
-6.01127e-58
-1.30338e-58
-1.4396e-59
-1.07392e-60
-6.05245e-62
-2.7318e-63
-1.0223e-64
-3.2421e-66
-8.84008e-68
-2.09231e-69
-4.32516e-71
-7.79474e-73
-1.24088e-74
-1.73734e-76
-2.14062e-78
-2.3229e-80
-2.2223e-82
-1.8747e-84
-1.39421e-86
-9.11811e-89
-5.22075e-91
-2.59906e-93
-1.11415e-95
-4.07007e-98
-1.25261e-100
-3.21807e-103
-6.91042e-106
-1.29098e-108
-2.39142e-111
-5.1174e-114
-1.16052e-116
-2.19782e-119
-2.93813e-122
-2.46759e-125
-1.13761e-128
-2.28426e-132
-1.14518e-136
-2.73116e-79
-2.31185e-75
-4.33081e-75
-1.74299e-75
-7.77482e-77
-1.89444e-78
-2.52441e-80
-1.19937e-82
1.37485e-105
6.21444e-85
1.16902e-83
1.65031e-82
1.32101e-81
6.6726e-81
2.84767e-80
7.96556e-80
2.23668e-79
1.80445e-79
2.104e-80
1.1512e-86
1.18391e-80
-7.17373e-70
-9.40238e-70
-1.6942e-56
-3.59775e-57
-3.89451e-58
-2.84889e-59
-1.57578e-60
-6.98903e-62
-2.57391e-63
-8.04583e-65
-2.16575e-66
-5.06851e-68
-1.03771e-69
-1.85533e-71
-2.9346e-73
-4.08647e-75
-5.00895e-77
-5.40318e-79
-5.13011e-81
-4.28605e-83
-3.15104e-85
-2.03542e-87
-1.15178e-89
-5.6789e-92
-2.41891e-94
-8.81287e-97
-2.71381e-99
-6.98444e-102
-1.49431e-104
-2.71109e-107
-4.58318e-110
-8.56767e-113
-1.7927e-115
-3.34763e-118
-4.53982e-121
-3.90278e-124
-1.8477e-127
-3.81785e-131
-1.97462e-135
-1.91653e-76
-2.63403e-73
-2.8205e-73
-7.85546e-74
-2.9934e-75
-5.89088e-77
-5.55761e-79
-2.97339e-83
1.0995e-82
3.05285e-81
5.81973e-80
7.91267e-79
6.14222e-78
3.02785e-77
1.26451e-76
3.47118e-76
9.62585e-76
7.67916e-76
3.88936e-76
3.69814e-83
1.16257e-78
-2.25891e-68
-2.39463e-68
-4.58917e-55
-9.5451e-56
-1.0135e-56
-7.27646e-58
-3.95195e-59
-1.72235e-60
-6.23969e-62
-1.92126e-63
-5.10134e-65
-1.17933e-66
-2.38862e-68
-4.23147e-70
-6.6424e-72
-9.19327e-74
-1.12105e-75
-1.20319e-77
-1.13562e-79
-9.41508e-82
-6.854e-84
-4.37575e-86
-2.44515e-88
-1.19131e-90
-5.02513e-93
-1.81895e-95
-5.58448e-98
-1.43653e-100
-3.06688e-103
-5.46961e-106
-8.67529e-109
-1.43466e-111
-2.72068e-114
-4.94103e-117
-6.76471e-120