/*--------------------------------*- C++ -*----------------------------------*\
| =========                 |                                                 |
| \\      /  F ield         | OpenFOAM: The Open Source CFD Toolbox           |
|  \\    /   O peration     | Version:  v2012                                 |
|   \\  /    A nd           | Website:  www.openfoam.com                      |
|    \\/     M anipulation  |                                                 |
\*---------------------------------------------------------------------------*/
FoamFile
{
    version     2.0;
    format      ascii;
    class       volScalarField;
    location    "0.15";
    object      p_rgh;
}
// * * * * * * * * * * * * * * * * * * * * * * * * * * * * * * * * * * * * * //

dimensions      [1 -1 -2 0 0 0 0];


internalField   nonuniform List<scalar> 
15860
(
3.1805e+06
3.12039e+06
3.09974e+06
3.09726e+06
3.09979e+06
3.09973e+06
3.09927e+06
3.09918e+06
3.09907e+06
3.09905e+06
3.09992e+06
3.10014e+06
3.10013e+06
3.1001e+06
3.10007e+06
3.10005e+06
3.10005e+06
3.10005e+06
3.10004e+06
3.10003e+06
3.10002e+06
3.10002e+06
3.10002e+06
3.10001e+06
3.10001e+06
3.10001e+06
3.1e+06
3.1e+06
3.1e+06
3.1e+06
3.1e+06
3.1e+06
3.1e+06
3.1e+06
3.1e+06
3.1e+06
3.1e+06
3.1e+06
3.1e+06
3.1e+06
3.1e+06
3.1e+06
3.1e+06
3.1e+06
3.1e+06
3.1e+06
3.1e+06
3.1e+06
3.1e+06
3.1e+06
3.1e+06
3.1e+06
3.1e+06
3.1e+06
3.1e+06
3.1e+06
3.1e+06
3.1e+06
3.1e+06
3.1e+06
3.25661e+06
3.19599e+06
3.13558e+06
3.11191e+06
3.10563e+06
3.10074e+06
3.09916e+06
3.09856e+06
3.09839e+06
3.09858e+06
3.09958e+06
3.09988e+06
3.10007e+06
3.1001e+06
3.10008e+06
3.10008e+06
3.10008e+06
3.10008e+06
3.10006e+06
3.10006e+06
3.10005e+06
3.10005e+06
3.10004e+06
3.10003e+06
3.10002e+06
3.10002e+06
3.10001e+06
3.10001e+06
3.10001e+06
3.10001e+06
3.10001e+06
3.10001e+06
3.10001e+06
3.1e+06
3.1e+06
3.1e+06
3.1e+06
3.1e+06
3.1e+06
3.1e+06
3.1e+06
3.1e+06
3.1e+06
3.1e+06
3.1e+06
3.1e+06
3.1e+06
3.1e+06
3.1e+06
3.1e+06
3.1e+06
3.1e+06
3.1e+06
3.1e+06
3.1e+06
3.1e+06
3.1e+06
3.1e+06
3.1e+06
3.1e+06
3.22029e+06
3.22231e+06
3.22064e+06
3.17861e+06
3.11958e+06
3.09784e+06
3.09858e+06
3.09833e+06
3.09861e+06
3.09851e+06
3.09863e+06
3.0989e+06
3.09971e+06
3.09997e+06
3.09999e+06
3.1e+06
3.10001e+06
3.10002e+06
3.10001e+06
3.10001e+06
3.10001e+06
3.10001e+06
3.10001e+06
3.10001e+06
3.10001e+06
3.1e+06
3.1e+06
3.1e+06
3.1e+06
3.10001e+06
3.10001e+06
3.10001e+06
3.10001e+06
3.1e+06
3.1e+06
3.1e+06
3.1e+06
3.1e+06
3.1e+06
3.1e+06
3.1e+06
3.1e+06
3.1e+06
3.1e+06
3.1e+06
3.1e+06
3.1e+06
3.1e+06
3.1e+06
3.1e+06
3.1e+06
3.1e+06
3.1e+06
3.1e+06
3.1e+06
3.1e+06
3.1e+06
3.1e+06
3.1e+06
3.1e+06
3.23351e+06
3.23792e+06
3.2426e+06
3.19479e+06
3.1249e+06
3.09788e+06
3.09803e+06
3.09801e+06
3.09883e+06
3.09849e+06
3.09828e+06
3.09851e+06
3.0995e+06
3.09983e+06
3.09987e+06
3.0999e+06
3.09991e+06
3.09994e+06
3.09995e+06
3.09996e+06
3.09996e+06
3.09997e+06
3.09997e+06
3.09998e+06
3.09998e+06
3.09998e+06
3.09998e+06
3.09999e+06
3.09999e+06
3.1e+06
3.1e+06
3.1e+06
3.1e+06
3.1e+06
3.1e+06
3.1e+06
3.1e+06
3.1e+06
3.1e+06
3.1e+06
3.1e+06
3.1e+06
3.1e+06
3.1e+06
3.1e+06
3.1e+06
3.1e+06
3.1e+06
3.1e+06
3.1e+06
3.1e+06
3.1e+06
3.1e+06
3.1e+06
3.1e+06
3.1e+06
3.1e+06
3.1e+06
3.1e+06
3.1e+06
3.23425e+06
3.23814e+06
3.23995e+06
3.19221e+06
3.1231e+06
3.09598e+06
3.09664e+06
3.09662e+06
3.09951e+06
3.0987e+06
3.09833e+06
3.09847e+06
3.09943e+06
3.09976e+06
3.09979e+06
3.09981e+06
3.09982e+06
3.09986e+06
3.09989e+06
3.09991e+06
3.09992e+06
3.09993e+06
3.09993e+06
3.09994e+06
3.09995e+06
3.09995e+06
3.09996e+06
3.09997e+06
3.09998e+06
3.09998e+06
3.09999e+06
3.1e+06
3.1e+06
3.1e+06
3.1e+06
3.1e+06
3.1e+06
3.1e+06
3.1e+06
3.1e+06
3.1e+06
3.1e+06
3.10001e+06
3.10001e+06
3.1e+06
3.1e+06
3.1e+06
3.1e+06
3.1e+06
3.1e+06
3.1e+06
3.1e+06
3.1e+06
3.1e+06
3.1e+06
3.1e+06
3.1e+06
3.1e+06
3.1e+06
3.1e+06
3.23694e+06
3.24141e+06
3.24592e+06
3.2063e+06
3.14909e+06
3.12697e+06
3.12609e+06
3.11761e+06
3.10814e+06
3.10059e+06
3.09866e+06
3.09846e+06
3.09936e+06
3.0997e+06
3.09974e+06
3.09977e+06
3.09977e+06
3.09982e+06
3.09984e+06
3.09987e+06
3.09988e+06
3.09989e+06
3.0999e+06
3.09991e+06
3.09992e+06
3.09993e+06
3.09994e+06
3.09995e+06
3.09996e+06
3.09997e+06
3.09998e+06
3.09999e+06
3.1e+06
3.1e+06
3.1e+06
3.1e+06
3.1e+06
3.1e+06
3.1e+06
3.1e+06
3.10001e+06
3.10001e+06
3.10001e+06
3.10001e+06
3.10001e+06
3.10001e+06
3.10001e+06
3.1e+06
3.1e+06
3.1e+06
3.1e+06
3.1e+06
3.1e+06
3.1e+06
3.1e+06
3.1e+06
3.1e+06
3.1e+06
3.1e+06
3.1e+06
3.22019e+06
3.22061e+06
3.22036e+06
3.21411e+06
3.20715e+06
3.20416e+06
3.20311e+06
3.17401e+06
3.12153e+06
3.09859e+06
3.09768e+06
3.09806e+06
3.09922e+06
3.09966e+06
3.09973e+06
3.09977e+06
3.09975e+06
3.09979e+06
3.09982e+06
3.09984e+06
3.09986e+06
3.09987e+06
3.09988e+06
3.09989e+06
3.0999e+06
3.09992e+06
3.09993e+06
3.09994e+06
3.09995e+06
3.09996e+06
3.09998e+06
3.09999e+06
3.09999e+06
3.1e+06
3.1e+06
3.1e+06
3.1e+06
3.1e+06
3.1e+06
3.10001e+06
3.10001e+06
3.10001e+06
3.10001e+06
3.10001e+06
3.10001e+06
3.10001e+06
3.10001e+06
3.10001e+06
3.1e+06
3.1e+06
3.1e+06
3.1e+06
3.1e+06
3.1e+06
3.1e+06
3.1e+06
3.1e+06
3.1e+06
3.1e+06
3.10001e+06
3.2227e+06
3.2258e+06
3.22764e+06
3.22898e+06
3.23316e+06
3.23495e+06
3.23229e+06
3.19457e+06
3.12982e+06
3.10032e+06
3.09789e+06
3.09795e+06
3.09909e+06
3.09956e+06
3.09967e+06
3.09973e+06
3.09972e+06
3.09976e+06
3.0998e+06
3.09982e+06
3.09984e+06
3.09985e+06
3.09986e+06
3.09987e+06
3.09989e+06
3.0999e+06
3.09992e+06
3.09993e+06
3.09994e+06
3.09996e+06
3.09997e+06
3.09998e+06
3.09999e+06
3.09999e+06
3.09999e+06
3.1e+06
3.1e+06
3.1e+06
3.1e+06
3.10001e+06
3.10001e+06
3.10001e+06
3.10001e+06
3.10001e+06
3.10001e+06
3.10001e+06
3.10001e+06
3.10001e+06
3.10001e+06
3.10001e+06
3.1e+06
3.1e+06
3.1e+06
3.1e+06
3.1e+06
3.1e+06
3.1e+06
3.10001e+06
3.10001e+06
3.10001e+06
3.1678e+06
3.21365e+06
3.22895e+06
3.23118e+06
3.23071e+06
3.23222e+06
3.23006e+06
3.19245e+06
3.12988e+06
3.10019e+06
3.09775e+06
3.09776e+06
3.09893e+06
3.09944e+06
3.09958e+06
3.09968e+06
3.09968e+06
3.09974e+06
3.09978e+06
3.09981e+06
3.09982e+06
3.09983e+06
3.09984e+06
3.09986e+06
3.09988e+06
3.09989e+06
3.09991e+06
3.09992e+06
3.09993e+06
3.09995e+06
3.09996e+06
3.09998e+06
3.09999e+06
3.09999e+06
3.09999e+06
3.1e+06
3.1e+06
3.1e+06
3.1e+06
3.10001e+06
3.10001e+06
3.10001e+06
3.10001e+06
3.10001e+06
3.10001e+06
3.10001e+06
3.10001e+06
3.10001e+06
3.10001e+06
3.10001e+06
3.10001e+06
3.10001e+06
3.1e+06
3.1e+06
3.1e+06
3.10001e+06
3.10001e+06
3.10001e+06
3.10001e+06
3.10001e+06
3.11326e+06
3.15788e+06
3.20331e+06
3.22052e+06
3.22557e+06
3.2299e+06
3.22853e+06
3.19183e+06
3.1301e+06
3.10058e+06
3.09821e+06
3.09809e+06
3.09898e+06
3.09941e+06
3.09954e+06
3.09965e+06
3.09967e+06
3.09973e+06
3.09977e+06
3.0998e+06
3.09982e+06
3.09982e+06
3.09983e+06
3.09985e+06
3.09986e+06
3.09988e+06
3.0999e+06
3.09991e+06
3.09993e+06
3.09994e+06
3.09996e+06
3.09997e+06
3.09998e+06
3.09999e+06
3.09999e+06
3.1e+06
3.1e+06
3.1e+06
3.10001e+06
3.10001e+06
3.10001e+06
3.10001e+06
3.10001e+06
3.10001e+06
3.10001e+06
3.10001e+06
3.10001e+06
3.10001e+06
3.10001e+06
3.10001e+06
3.10001e+06
3.10001e+06
3.10001e+06
3.10001e+06
3.10001e+06
3.10001e+06
3.10001e+06
3.10001e+06
3.10001e+06
3.10001e+06
3.1361e+06
3.13777e+06
3.1416e+06
3.17247e+06
3.21593e+06
3.23211e+06
3.22858e+06
3.19183e+06
3.13121e+06
3.10219e+06
3.09969e+06
3.09921e+06
3.0993e+06
3.09943e+06
3.09955e+06
3.09966e+06
3.09969e+06
3.09975e+06
3.09979e+06
3.09981e+06
3.09981e+06
3.09981e+06
3.09982e+06
3.09984e+06
3.09986e+06
3.09987e+06
3.09989e+06
3.09991e+06
3.09992e+06
3.09994e+06
3.09996e+06
3.09997e+06
3.09998e+06
3.09999e+06
3.09999e+06
3.1e+06
3.1e+06
3.1e+06
3.10001e+06
3.10001e+06
3.10001e+06
3.10001e+06
3.10001e+06
3.10001e+06
3.10001e+06
3.10001e+06
3.10001e+06
3.10001e+06
3.10001e+06
3.10001e+06
3.10001e+06
3.10001e+06
3.10001e+06
3.10001e+06
3.10001e+06
3.10001e+06
3.10001e+06
3.10001e+06
3.10001e+06
3.10001e+06
3.12563e+06
3.12561e+06
3.12526e+06
3.16038e+06
3.21151e+06
3.23147e+06
3.22858e+06
3.19216e+06
3.13148e+06
3.10265e+06
3.10022e+06
3.09963e+06
3.09945e+06
3.09947e+06
3.09957e+06
3.09968e+06
3.09971e+06
3.09977e+06
3.0998e+06
3.09982e+06
3.09982e+06
3.09982e+06
3.09982e+06
3.09983e+06
3.09985e+06
3.09987e+06
3.09989e+06
3.0999e+06
3.09992e+06
3.09994e+06
3.09995e+06
3.09997e+06
3.09998e+06
3.09999e+06
3.09999e+06
3.1e+06
3.1e+06
3.1e+06
3.10001e+06
3.10001e+06
3.10001e+06
3.10001e+06
3.10001e+06
3.10001e+06
3.10001e+06
3.10001e+06
3.10001e+06
3.10001e+06
3.10001e+06
3.10001e+06
3.10001e+06
3.10001e+06
3.10001e+06
3.10001e+06
3.10001e+06
3.10001e+06
3.10001e+06
3.10001e+06
3.10001e+06
3.10001e+06
3.12383e+06
3.12437e+06
3.12623e+06
3.1614e+06
3.21224e+06
3.23249e+06
3.22926e+06
3.19287e+06
3.13079e+06
3.10231e+06
3.10006e+06
3.09954e+06
3.09941e+06
3.09945e+06
3.09957e+06
3.09969e+06
3.09972e+06
3.09978e+06
3.09982e+06
3.09984e+06
3.09983e+06
3.09982e+06
3.09982e+06
3.09983e+06
3.09985e+06
3.09987e+06
3.09988e+06
3.0999e+06
3.09992e+06
3.09993e+06
3.09995e+06
3.09997e+06
3.09998e+06
3.09999e+06
3.09999e+06
3.1e+06
3.1e+06
3.1e+06
3.10001e+06
3.10001e+06
3.10001e+06
3.10001e+06
3.10001e+06
3.10001e+06
3.10001e+06
3.10001e+06
3.10001e+06
3.10001e+06
3.10001e+06
3.10001e+06
3.10001e+06
3.10001e+06
3.10001e+06
3.10001e+06
3.10001e+06
3.10001e+06
3.10001e+06
3.10001e+06
3.10001e+06
3.10001e+06
3.12228e+06
3.12221e+06
3.12132e+06
3.15051e+06
3.19322e+06
3.21025e+06
3.20824e+06
3.17796e+06
3.12467e+06
3.10092e+06
3.09979e+06
3.09954e+06
3.09952e+06
3.09958e+06
3.0997e+06
3.09978e+06
3.09979e+06
3.09983e+06
3.09985e+06
3.09986e+06
3.09985e+06
3.09983e+06
3.09982e+06
3.09983e+06
3.09985e+06
3.09987e+06
3.09988e+06
3.0999e+06
3.09992e+06
3.09993e+06
3.09995e+06
3.09997e+06
3.09998e+06
3.09999e+06
3.09999e+06
3.1e+06
3.1e+06
3.10001e+06
3.10001e+06
3.10001e+06
3.10001e+06
3.10001e+06
3.10001e+06
3.10001e+06
3.10001e+06
3.10001e+06
3.10001e+06
3.10001e+06
3.10001e+06
3.10001e+06
3.10001e+06
3.10001e+06
3.10001e+06
3.10001e+06
3.10001e+06
3.10001e+06
3.10001e+06
3.10001e+06
3.10001e+06
3.10001e+06
3.13718e+06
3.13741e+06
3.1404e+06
3.14579e+06
3.15086e+06
3.15433e+06
3.15282e+06
3.13721e+06
3.11484e+06
3.10222e+06
3.10042e+06
3.09989e+06
3.09978e+06
3.09982e+06
3.09989e+06
3.09992e+06
3.09989e+06
3.09989e+06
3.09989e+06
3.09989e+06
3.09987e+06
3.09984e+06
3.09983e+06
3.09984e+06
3.09985e+06
3.09987e+06
3.09988e+06
3.0999e+06
3.09992e+06
3.09993e+06
3.09995e+06
3.09997e+06
3.09998e+06
3.09999e+06
3.09999e+06
3.1e+06
3.1e+06
3.10001e+06
3.10001e+06
3.10001e+06
3.10001e+06
3.10001e+06
3.10001e+06
3.10001e+06
3.10001e+06
3.10001e+06
3.10001e+06
3.10001e+06
3.10001e+06
3.10001e+06
3.10001e+06
3.10001e+06
3.10001e+06
3.10001e+06
3.10001e+06
3.10001e+06
3.10001e+06
3.10001e+06
3.10001e+06
3.10001e+06
3.13373e+06
3.136e+06
3.1357e+06
3.1352e+06
3.13219e+06
3.13236e+06
3.13213e+06
3.12265e+06
3.10901e+06
3.10101e+06
3.1003e+06
3.10004e+06
3.10001e+06
3.10004e+06
3.10008e+06
3.10006e+06
3.09999e+06
3.09996e+06
3.09994e+06
3.09992e+06
3.09989e+06
3.09986e+06
3.09985e+06
3.09985e+06
3.09986e+06
3.09987e+06
3.09989e+06
3.0999e+06
3.09992e+06
3.09993e+06
3.09995e+06
3.09997e+06
3.09998e+06
3.09999e+06
3.1e+06
3.1e+06
3.1e+06
3.10001e+06
3.10001e+06
3.10001e+06
3.10001e+06
3.10001e+06
3.10001e+06
3.10001e+06
3.10001e+06
3.10001e+06
3.10001e+06
3.10001e+06
3.10001e+06
3.10001e+06
3.10001e+06
3.10001e+06
3.10001e+06
3.10001e+06
3.10001e+06
3.10001e+06
3.10001e+06
3.10001e+06
3.10001e+06
3.10001e+06
3.07196e+06
3.12018e+06
3.13562e+06
3.13685e+06
3.13369e+06
3.13403e+06
3.13363e+06
3.12399e+06
3.1089e+06
3.10107e+06
3.10041e+06
3.1002e+06
3.10017e+06
3.10018e+06
3.1002e+06
3.10015e+06
3.10006e+06
3.10001e+06
3.09999e+06
3.09997e+06
3.09993e+06
3.09989e+06
3.09987e+06
3.09986e+06
3.09987e+06
3.09988e+06
3.09989e+06
3.0999e+06
3.09992e+06
3.09994e+06
3.09995e+06
3.09997e+06
3.09998e+06
3.09999e+06
3.1e+06
3.1e+06
3.10001e+06
3.10001e+06
3.10001e+06
3.10001e+06
3.10001e+06
3.10002e+06
3.10001e+06
3.10001e+06
3.10001e+06
3.10001e+06
3.10001e+06
3.10001e+06
3.10001e+06
3.10001e+06
3.10001e+06
3.10001e+06
3.10001e+06
3.10001e+06
3.10001e+06
3.10001e+06
3.10001e+06
3.10001e+06
3.10001e+06
3.10001e+06
3.0141e+06
3.06093e+06
3.1083e+06
3.12637e+06
3.1304e+06
3.13456e+06
3.13479e+06
3.12499e+06
3.10929e+06
3.10138e+06
3.10063e+06
3.10041e+06
3.10035e+06
3.10034e+06
3.10032e+06
3.10024e+06
3.10014e+06
3.10006e+06
3.10004e+06
3.1e+06
3.09996e+06
3.09991e+06
3.09988e+06
3.09987e+06
3.09988e+06
3.09989e+06
3.0999e+06
3.09991e+06
3.09992e+06
3.09994e+06
3.09995e+06
3.09997e+06
3.09998e+06
3.09999e+06
3.1e+06
3.1e+06
3.10001e+06
3.10001e+06
3.10001e+06
3.10001e+06
3.10002e+06
3.10002e+06
3.10001e+06
3.10001e+06
3.10001e+06
3.10001e+06
3.10001e+06
3.10001e+06
3.10001e+06
3.10001e+06
3.10001e+06
3.10001e+06
3.10001e+06
3.10001e+06
3.10001e+06
3.10001e+06
3.10001e+06
3.10001e+06
3.10001e+06
3.10001e+06
3.04024e+06
3.04041e+06
3.04341e+06
3.07576e+06
3.12139e+06
3.13847e+06
3.13641e+06
3.12621e+06
3.10966e+06
3.10153e+06
3.10067e+06
3.1005e+06
3.10046e+06
3.10044e+06
3.1004e+06
3.10029e+06
3.10019e+06
3.1001e+06
3.10007e+06
3.10004e+06
3.09999e+06
3.09994e+06
3.0999e+06
3.09989e+06
3.09989e+06
3.09989e+06
3.0999e+06
3.09991e+06
3.09993e+06
3.09994e+06
3.09996e+06
3.09997e+06
3.09998e+06
3.09999e+06
3.1e+06
3.1e+06
3.10001e+06
3.10001e+06
3.10001e+06
3.10002e+06
3.10002e+06
3.10002e+06
3.10002e+06
3.10001e+06
3.10001e+06
3.10001e+06
3.10001e+06
3.10001e+06
3.10001e+06
3.10001e+06
3.10001e+06
3.10001e+06
3.10001e+06
3.10001e+06
3.10001e+06
3.10001e+06
3.10001e+06
3.10001e+06
3.10001e+06
3.10001e+06
3.02958e+06
3.0279e+06
3.02656e+06
3.06393e+06
3.11783e+06
3.13895e+06
3.13758e+06
3.12721e+06
3.11003e+06
3.10182e+06
3.10088e+06
3.10072e+06
3.10066e+06
3.10057e+06
3.1005e+06
3.10035e+06
3.10024e+06
3.10014e+06
3.10011e+06
3.10007e+06
3.10001e+06
3.09996e+06
3.09992e+06
3.0999e+06
3.0999e+06
3.0999e+06
3.09991e+06
3.09992e+06
3.09993e+06
3.09995e+06
3.09996e+06
3.09997e+06
3.09999e+06
3.1e+06
3.1e+06
3.10001e+06
3.10001e+06
3.10001e+06
3.10001e+06
3.10002e+06
3.10002e+06
3.10002e+06
3.10002e+06
3.10001e+06
3.10001e+06
3.10001e+06
3.10001e+06
3.10001e+06
3.10001e+06
3.10001e+06
3.10001e+06
3.10001e+06
3.10001e+06
3.10001e+06
3.10001e+06
3.10001e+06
3.10001e+06
3.10001e+06
3.10001e+06
3.10002e+06
3.02812e+06
3.02725e+06
3.02829e+06
3.06566e+06
3.11951e+06
3.14073e+06
3.13905e+06
3.12867e+06
3.10983e+06
3.10187e+06
3.10098e+06
3.10086e+06
3.10078e+06
3.10064e+06
3.10055e+06
3.10038e+06
3.10027e+06
3.10017e+06
3.10013e+06
3.10009e+06
3.10003e+06
3.09997e+06
3.09993e+06
3.09991e+06
3.09991e+06
3.09991e+06
3.09992e+06
3.09993e+06
3.09994e+06
3.09995e+06
3.09996e+06
3.09998e+06
3.09999e+06
3.1e+06
3.1e+06
3.10001e+06
3.10001e+06
3.10001e+06
3.10002e+06
3.10002e+06
3.10002e+06
3.10002e+06
3.10002e+06
3.10001e+06
3.10001e+06
3.10001e+06
3.10001e+06
3.10001e+06
3.10001e+06
3.10001e+06
3.10001e+06
3.10001e+06
3.10001e+06
3.10001e+06
3.10001e+06
3.10001e+06
3.10001e+06
3.10001e+06
3.10002e+06
3.10002e+06
3.02578e+06
3.02449e+06
3.02316e+06
3.05453e+06
3.09937e+06
3.11679e+06
3.11642e+06
3.11268e+06
3.10336e+06
3.1006e+06
3.10085e+06
3.10092e+06
3.10085e+06
3.10066e+06
3.10055e+06
3.10037e+06
3.10027e+06
3.10018e+06
3.10014e+06
3.1001e+06
3.10004e+06
3.09998e+06
3.09994e+06
3.09992e+06
3.09992e+06
3.09992e+06
3.09992e+06
3.09993e+06
3.09994e+06
3.09995e+06
3.09997e+06
3.09998e+06
3.09999e+06
3.1e+06
3.10001e+06
3.10001e+06
3.10001e+06
3.10001e+06
3.10002e+06
3.10002e+06
3.10002e+06
3.10002e+06
3.10002e+06
3.10001e+06
3.10001e+06
3.10001e+06
3.10001e+06
3.10001e+06
3.10001e+06
3.10001e+06
3.10001e+06
3.10001e+06
3.10001e+06
3.10001e+06
3.10001e+06
3.10001e+06
3.10001e+06
3.10002e+06
3.10002e+06
3.10002e+06
3.03832e+06
3.03995e+06
3.04235e+06
3.04796e+06
3.05349e+06
3.05638e+06
3.05636e+06
3.06842e+06
3.09274e+06
3.10191e+06
3.10146e+06
3.10108e+06
3.10082e+06
3.10057e+06
3.10045e+06
3.10029e+06
3.10023e+06
3.10017e+06
3.10014e+06
3.10011e+06
3.10005e+06
3.09999e+06
3.09995e+06
3.09993e+06
3.09992e+06
3.09993e+06
3.09993e+06
3.09994e+06
3.09995e+06
3.09996e+06
3.09997e+06
3.09999e+06
3.1e+06
3.1e+06
3.10001e+06
3.10001e+06
3.10001e+06
3.10002e+06
3.10002e+06
3.10002e+06
3.10002e+06
3.10002e+06
3.10002e+06
3.10001e+06
3.10001e+06
3.10001e+06
3.10001e+06
3.10001e+06
3.10001e+06
3.10001e+06
3.10001e+06
3.10001e+06
3.10001e+06
3.10001e+06
3.10001e+06
3.10001e+06
3.10001e+06
3.10002e+06
3.10002e+06
3.10002e+06
3.03527e+06
3.03499e+06
3.03569e+06
3.03547e+06
3.03259e+06
3.03191e+06
3.03324e+06
3.05209e+06
3.08593e+06
3.10026e+06
3.10103e+06
3.10087e+06
3.10069e+06
3.10046e+06
3.10035e+06
3.10022e+06
3.10019e+06
3.10014e+06
3.10013e+06
3.1001e+06
3.10005e+06
3.09999e+06
3.09995e+06
3.09993e+06
3.09993e+06
3.09993e+06
3.09994e+06
3.09994e+06
3.09995e+06
3.09997e+06
3.09998e+06
3.09999e+06
3.1e+06
3.10001e+06
3.10001e+06
3.10001e+06
3.10002e+06
3.10002e+06
3.10002e+06
3.10002e+06
3.10002e+06
3.10002e+06
3.10002e+06
3.10001e+06
3.10001e+06
3.10001e+06
3.10001e+06
3.10001e+06
3.10001e+06
3.10001e+06
3.10001e+06
3.10001e+06
3.10001e+06
3.10001e+06
3.10001e+06
3.10001e+06
3.10002e+06
3.10002e+06
3.10002e+06
3.10002e+06
3.06675e+06
3.04077e+06
3.03308e+06
3.0323e+06
3.03314e+06
3.03277e+06
3.03395e+06
3.05291e+06
3.08515e+06
3.09983e+06
3.10073e+06
3.10064e+06
3.10055e+06
3.10034e+06
3.10027e+06
3.10016e+06
3.10015e+06
3.10012e+06
3.10012e+06
3.10009e+06
3.10004e+06
3.09999e+06
3.09995e+06
3.09994e+06
3.09993e+06
3.09994e+06
3.09994e+06
3.09995e+06
3.09996e+06
3.09997e+06
3.09998e+06
3.09999e+06
3.1e+06
3.10001e+06
3.10001e+06
3.10001e+06
3.10002e+06
3.10002e+06
3.10002e+06
3.10002e+06
3.10002e+06
3.10002e+06
3.10002e+06
3.10001e+06
3.10001e+06
3.10001e+06
3.10001e+06
3.10001e+06
3.10001e+06
3.10001e+06
3.10001e+06
3.10001e+06
3.10001e+06
3.10001e+06
3.10001e+06
3.10002e+06
3.10002e+06
3.10002e+06
3.10002e+06
3.10002e+06
3.10109e+06
3.0754e+06
3.04813e+06
3.03791e+06
3.03537e+06
3.03319e+06
3.03394e+06
3.0525e+06
3.08449e+06
3.0993e+06
3.10029e+06
3.10027e+06
3.10034e+06
3.1002e+06
3.10017e+06
3.1001e+06
3.10011e+06
3.10009e+06
3.1001e+06
3.10008e+06
3.10004e+06
3.09999e+06
3.09995e+06
3.09994e+06
3.09994e+06
3.09994e+06
3.09995e+06
3.09996e+06
3.09997e+06
3.09998e+06
3.09999e+06
3.1e+06
3.10001e+06
3.10001e+06
3.10001e+06
3.10002e+06
3.10002e+06
3.10002e+06
3.10002e+06
3.10002e+06
3.10002e+06
3.10002e+06
3.10002e+06
3.10001e+06
3.10001e+06
3.10001e+06
3.10001e+06
3.10001e+06
3.10001e+06
3.10001e+06
3.10001e+06
3.10001e+06
3.10001e+06
3.10001e+06
3.10002e+06
3.10002e+06
3.10002e+06
3.10002e+06
3.10002e+06
3.10002e+06
3.0832e+06
3.08643e+06
3.08849e+06
3.06979e+06
3.04057e+06
3.03055e+06
3.03289e+06
3.05188e+06
3.08365e+06
3.09819e+06
3.09939e+06
3.09957e+06
3.10005e+06
3.10005e+06
3.10008e+06
3.10004e+06
3.10007e+06
3.10007e+06
3.10008e+06
3.10007e+06
3.10003e+06
3.09998e+06
3.09995e+06
3.09994e+06
3.09994e+06
3.09995e+06
3.09996e+06
3.09996e+06
3.09997e+06
3.09998e+06
3.09999e+06
3.1e+06
3.10001e+06
3.10001e+06
3.10002e+06
3.10002e+06
3.10002e+06
3.10002e+06
3.10002e+06
3.10002e+06
3.10002e+06
3.10002e+06
3.10001e+06
3.10001e+06
3.10001e+06
3.10001e+06
3.10001e+06
3.10001e+06
3.10001e+06
3.10001e+06
3.10001e+06
3.10001e+06
3.10001e+06
3.10002e+06
3.10002e+06
3.10002e+06
3.10002e+06
3.10002e+06
3.10002e+06
3.10002e+06
3.09017e+06
3.0939e+06
3.09852e+06
3.07682e+06
3.04258e+06
3.03029e+06
3.03209e+06
3.05082e+06
3.08294e+06
3.09742e+06
3.09878e+06
3.09925e+06
3.0999e+06
3.09996e+06
3.10003e+06
3.1e+06
3.10005e+06
3.10005e+06
3.10007e+06
3.10006e+06
3.10002e+06
3.09998e+06
3.09995e+06
3.09994e+06
3.09995e+06
3.09995e+06
3.09996e+06
3.09997e+06
3.09998e+06
3.09999e+06
3.1e+06
3.1e+06
3.10001e+06
3.10001e+06
3.10002e+06
3.10002e+06
3.10002e+06
3.10002e+06
3.10002e+06
3.10002e+06
3.10002e+06
3.10002e+06
3.10001e+06
3.10001e+06
3.10001e+06
3.10001e+06
3.10001e+06
3.10001e+06
3.10001e+06
3.10001e+06
3.10001e+06
3.10002e+06
3.10002e+06
3.10002e+06
3.10002e+06
3.10002e+06
3.10002e+06
3.10002e+06
3.10002e+06
3.10002e+06
3.09068e+06
3.09438e+06
3.09705e+06
3.07533e+06
3.04074e+06
3.02835e+06
3.03057e+06
3.04955e+06
3.08277e+06
3.09697e+06
3.0984e+06
3.09911e+06
3.0998e+06
3.09987e+06
3.09999e+06
3.09997e+06
3.10003e+06
3.10003e+06
3.10005e+06
3.10005e+06
3.10002e+06
3.09998e+06
3.09995e+06
3.09995e+06
3.09995e+06
3.09996e+06
3.09997e+06
3.09998e+06
3.09998e+06
3.09999e+06
3.1e+06
3.10001e+06
3.10001e+06
3.10002e+06
3.10002e+06
3.10002e+06
3.10002e+06
3.10002e+06
3.10002e+06
3.10002e+06
3.10002e+06
3.10002e+06
3.10001e+06
3.10001e+06
3.10001e+06
3.10001e+06
3.10001e+06
3.10001e+06
3.10001e+06
3.10001e+06
3.10002e+06
3.10002e+06
3.10002e+06
3.10002e+06
3.10002e+06
3.10002e+06
3.10002e+06
3.10002e+06
3.10002e+06
3.10002e+06
3.09155e+06
3.09488e+06
3.10081e+06
3.08272e+06
3.05312e+06
3.04274e+06
3.04431e+06
3.0589e+06
3.08615e+06
3.09763e+06
3.0984e+06
3.09905e+06
3.09966e+06
3.09972e+06
3.09991e+06
3.09991e+06
3.09998e+06
3.09999e+06
3.10003e+06
3.10004e+06
3.10001e+06
3.09997e+06
3.09995e+06
3.09995e+06
3.09996e+06
3.09997e+06
3.09997e+06
3.09998e+06
3.09999e+06
3.1e+06
3.1e+06
3.10001e+06
3.10001e+06
3.10002e+06
3.10002e+06
3.10002e+06
3.10002e+06
3.10002e+06
3.10002e+06
3.10002e+06
3.10002e+06
3.10001e+06
3.10001e+06
3.10001e+06
3.10001e+06
3.10001e+06
3.10001e+06
3.10001e+06
3.10001e+06
3.10001e+06
3.10002e+06
3.10002e+06
3.10002e+06
3.10002e+06
3.10002e+06
3.10002e+06
3.10002e+06
3.10002e+06
3.10002e+06
3.10002e+06
3.08838e+06
3.08694e+06
3.08643e+06
3.084e+06
3.08168e+06
3.08081e+06
3.08283e+06
3.08724e+06
3.09252e+06
3.09634e+06
3.09775e+06
3.09869e+06
3.09919e+06
3.09938e+06
3.09973e+06
3.09981e+06
3.09988e+06
3.09992e+06
3.09999e+06
3.10002e+06
3.10001e+06
3.09998e+06
3.09996e+06
3.09996e+06
3.09996e+06
3.09997e+06
3.09998e+06
3.09999e+06
3.09999e+06
3.1e+06
3.1e+06
3.10001e+06
3.10001e+06
3.10001e+06
3.10002e+06
3.10002e+06
3.10002e+06
3.10002e+06
3.10002e+06
3.10002e+06
3.10002e+06
3.10001e+06
3.10001e+06
3.10001e+06
3.10001e+06
3.10001e+06
3.10001e+06
3.10001e+06
3.10001e+06
3.10002e+06
3.10002e+06
3.10002e+06
3.10002e+06
3.10002e+06
3.10002e+06
3.10002e+06
3.10002e+06
3.10002e+06
3.10002e+06
3.10002e+06
3.08988e+06
3.08757e+06
3.08797e+06
3.09166e+06
3.09454e+06
3.09561e+06
3.09686e+06
3.09763e+06
3.09689e+06
3.09734e+06
3.09799e+06
3.09861e+06
3.09908e+06
3.0993e+06
3.09951e+06
3.09974e+06
3.0998e+06
3.09988e+06
3.09997e+06
3.10001e+06
3.1e+06
3.09998e+06
3.09997e+06
3.09997e+06
3.09997e+06
3.09998e+06
3.09999e+06
3.09999e+06
3.1e+06
3.1e+06
3.1e+06
3.10001e+06
3.10001e+06
3.10001e+06
3.10001e+06
3.10002e+06
3.10002e+06
3.10002e+06
3.10002e+06
3.10002e+06
3.10001e+06
3.10001e+06
3.10001e+06
3.10001e+06
3.10001e+06
3.10001e+06
3.10001e+06
3.10001e+06
3.10002e+06
3.10002e+06
3.10002e+06
3.10002e+06
3.10002e+06
3.10002e+06
3.10002e+06
3.10002e+06
3.10002e+06
3.10002e+06
3.10002e+06
3.10002e+06
3.08837e+06
3.0912e+06
3.09106e+06
3.08973e+06
3.09103e+06
3.09639e+06
3.09775e+06
3.09827e+06
3.09846e+06
3.09851e+06
3.0989e+06
3.09928e+06
3.09964e+06
3.09966e+06
3.09971e+06
3.09979e+06
3.09981e+06
3.09988e+06
3.09996e+06
3.10001e+06
3.10001e+06
3.09999e+06
3.09998e+06
3.09998e+06
3.09998e+06
3.09998e+06
3.09999e+06
3.09999e+06
3.1e+06
3.1e+06
3.1e+06
3.10001e+06
3.10001e+06
3.10001e+06
3.10001e+06
3.10001e+06
3.10002e+06
3.10002e+06
3.10002e+06
3.10001e+06
3.10001e+06
3.10001e+06
3.10001e+06
3.10001e+06
3.10001e+06
3.10001e+06
3.10001e+06
3.10001e+06
3.10002e+06
3.10002e+06
3.10002e+06
3.10002e+06
3.10002e+06
3.10002e+06
3.10002e+06
3.10002e+06
3.10002e+06
3.10002e+06
3.10002e+06
3.10002e+06
3.09418e+06
3.09341e+06
3.09044e+06
3.09032e+06
3.09549e+06
3.09703e+06
3.09719e+06
3.09868e+06
3.09908e+06
3.09912e+06
3.09935e+06
3.09962e+06
3.09975e+06
3.09994e+06
3.09982e+06
3.09984e+06
3.09985e+06
3.09989e+06
3.09996e+06
3.10001e+06
3.10001e+06
3.1e+06
3.09999e+06
3.09998e+06
3.09999e+06
3.09999e+06
3.09999e+06
3.09999e+06
3.1e+06
3.1e+06
3.1e+06
3.1e+06
3.10001e+06
3.10001e+06
3.10001e+06
3.10001e+06
3.10001e+06
3.10001e+06
3.10001e+06
3.10001e+06
3.10001e+06
3.10001e+06
3.10001e+06
3.10001e+06
3.10001e+06
3.10001e+06
3.10001e+06
3.10001e+06
3.10002e+06
3.10002e+06
3.10002e+06
3.10002e+06
3.10002e+06
3.10002e+06
3.10002e+06
3.10002e+06
3.10002e+06
3.10002e+06
3.10002e+06
3.10002e+06
3.09528e+06
3.09464e+06
3.09215e+06
3.09285e+06
3.09674e+06
3.09843e+06
3.09817e+06
3.09894e+06
3.09925e+06
3.09986e+06
3.09992e+06
3.09978e+06
3.09981e+06
3.09999e+06
3.09984e+06
3.09988e+06
3.09988e+06
3.0999e+06
3.09996e+06
3.10001e+06
3.10001e+06
3.10001e+06
3.1e+06
3.09999e+06
3.09999e+06
3.09999e+06
3.09999e+06
3.09999e+06
3.09999e+06
3.09999e+06
3.1e+06
3.1e+06
3.1e+06
3.10001e+06
3.10001e+06
3.10001e+06
3.10001e+06
3.10001e+06
3.10001e+06
3.10001e+06
3.10001e+06
3.10001e+06
3.10001e+06
3.10001e+06
3.10001e+06
3.10001e+06
3.10001e+06
3.10002e+06
3.10002e+06
3.10002e+06
3.10002e+06
3.10002e+06
3.10002e+06
3.10002e+06
3.10002e+06
3.10002e+06
3.10002e+06
3.10002e+06
3.10002e+06
3.10002e+06
3.09594e+06
3.09521e+06
3.09397e+06
3.09421e+06
3.0977e+06
3.0994e+06
3.09878e+06
3.09939e+06
3.09952e+06
3.10031e+06
3.10029e+06
3.10011e+06
3.10005e+06
3.10012e+06
3.09992e+06
3.09996e+06
3.09993e+06
3.09994e+06
3.09998e+06
3.1e+06
3.10001e+06
3.10001e+06
3.10001e+06
3.1e+06
3.1e+06
3.09999e+06
3.09999e+06
3.09999e+06
3.09999e+06
3.09999e+06
3.09999e+06
3.1e+06
3.1e+06
3.1e+06
3.1e+06
3.10001e+06
3.10001e+06
3.10001e+06
3.10001e+06
3.10001e+06
3.10001e+06
3.10001e+06
3.10001e+06
3.10001e+06
3.10001e+06
3.10001e+06
3.10001e+06
3.10002e+06
3.10002e+06
3.10002e+06
3.10002e+06
3.10002e+06
3.10002e+06
3.10002e+06
3.10002e+06
3.10002e+06
3.10002e+06
3.10002e+06
3.10002e+06
3.10002e+06
3.09797e+06
3.09852e+06
3.097e+06
3.09799e+06
3.09738e+06
3.09958e+06
3.09942e+06
3.10044e+06
3.10027e+06
3.10079e+06
3.10067e+06
3.10057e+06
3.1004e+06
3.1003e+06
3.10005e+06
3.10005e+06
3.1e+06
3.09998e+06
3.1e+06
3.10001e+06
3.10001e+06
3.10002e+06
3.10002e+06
3.10001e+06
3.1e+06
3.09999e+06
3.09999e+06
3.09998e+06
3.09998e+06
3.09998e+06
3.09999e+06
3.09999e+06
3.09999e+06
3.1e+06
3.1e+06
3.1e+06
3.10001e+06
3.10001e+06
3.10001e+06
3.10001e+06
3.10001e+06
3.10001e+06
3.10001e+06
3.10001e+06
3.10001e+06
3.10001e+06
3.10001e+06
3.10002e+06
3.10002e+06
3.10002e+06
3.10002e+06
3.10002e+06
3.10002e+06
3.10002e+06
3.10002e+06
3.10002e+06
3.10002e+06
3.10002e+06
3.10002e+06
3.10002e+06
3.10389e+06
3.10393e+06
3.10344e+06
3.10048e+06
3.09434e+06
3.09583e+06
3.10102e+06
3.10201e+06
3.10145e+06
3.10131e+06
3.10114e+06
3.10094e+06
3.10068e+06
3.10048e+06
3.10019e+06
3.10015e+06
3.10007e+06
3.10003e+06
3.10003e+06
3.10002e+06
3.10002e+06
3.10002e+06
3.10002e+06
3.10001e+06
3.1e+06
3.09999e+06
3.09998e+06
3.09998e+06
3.09998e+06
3.09998e+06
3.09998e+06
3.09998e+06
3.09999e+06
3.09999e+06
3.09999e+06
3.1e+06
3.1e+06
3.1e+06
3.10001e+06
3.10001e+06
3.10001e+06
3.10001e+06
3.10001e+06
3.10001e+06
3.10001e+06
3.10001e+06
3.10001e+06
3.10002e+06
3.10002e+06
3.10002e+06
3.10002e+06
3.10002e+06
3.10002e+06
3.10002e+06
3.10002e+06
3.10002e+06
3.10002e+06
3.10002e+06
3.10002e+06
3.10002e+06
3.11237e+06
3.11714e+06
3.11526e+06
3.11115e+06
3.09379e+06
3.09362e+06
3.09887e+06
3.10142e+06
3.10169e+06
3.10207e+06
3.10178e+06
3.1013e+06
3.10093e+06
3.10066e+06
3.10032e+06
3.10024e+06
3.10013e+06
3.10008e+06
3.10005e+06
3.10003e+06
3.10002e+06
3.10003e+06
3.10002e+06
3.10001e+06
3.1e+06
3.09998e+06
3.09997e+06
3.09997e+06
3.09997e+06
3.09997e+06
3.09997e+06
3.09997e+06
3.09998e+06
3.09998e+06
3.09999e+06
3.09999e+06
3.1e+06
3.1e+06
3.1e+06
3.1e+06
3.10001e+06
3.10001e+06
3.10001e+06
3.10001e+06
3.10001e+06
3.10001e+06
3.10002e+06
3.10002e+06
3.10002e+06
3.10002e+06
3.10002e+06
3.10002e+06
3.10002e+06
3.10002e+06
3.10002e+06
3.10002e+06
3.10002e+06
3.10002e+06
3.10002e+06
3.10002e+06
3.04396e+06
3.03916e+06
3.04347e+06
3.06319e+06
3.07933e+06
3.09241e+06
3.09565e+06
3.09809e+06
3.10203e+06
3.10298e+06
3.1023e+06
3.10162e+06
3.10108e+06
3.10078e+06
3.10041e+06
3.1003e+06
3.10018e+06
3.10011e+06
3.10007e+06
3.10003e+06
3.10002e+06
3.10003e+06
3.10002e+06
3.10001e+06
3.09999e+06
3.09998e+06
3.09997e+06
3.09996e+06
3.09996e+06
3.09996e+06
3.09996e+06
3.09997e+06
3.09997e+06
3.09998e+06
3.09998e+06
3.09999e+06
3.09999e+06
3.1e+06
3.1e+06
3.1e+06
3.1e+06
3.10001e+06
3.10001e+06
3.10001e+06
3.10001e+06
3.10001e+06
3.10002e+06
3.10002e+06
3.10002e+06
3.10002e+06
3.10002e+06
3.10002e+06
3.10002e+06
3.10002e+06
3.10002e+06
3.10002e+06
3.10002e+06
3.10002e+06
3.10002e+06
3.10002e+06
2.99084e+06
2.80192e+06
2.75366e+06
2.86412e+06
3.04813e+06
3.10577e+06
3.09771e+06
3.09919e+06
3.10265e+06
3.10366e+06
3.10272e+06
3.10171e+06
3.10112e+06
3.1008e+06
3.10042e+06
3.10031e+06
3.10019e+06
3.10013e+06
3.10008e+06
3.10003e+06
3.10002e+06
3.10002e+06
3.10002e+06
3.10001e+06
3.09999e+06
3.09997e+06
3.09996e+06
3.09996e+06
3.09995e+06
3.09995e+06
3.09996e+06
3.09996e+06
3.09997e+06
3.09997e+06
3.09998e+06
3.09999e+06
3.09999e+06
3.1e+06
3.1e+06
3.1e+06
3.1e+06
3.10001e+06
3.10001e+06
3.10001e+06
3.10001e+06
3.10001e+06
3.10002e+06
3.10002e+06
3.10002e+06
3.10002e+06
3.10002e+06
3.10002e+06
3.10002e+06
3.10002e+06
3.10002e+06
3.10002e+06
3.10002e+06
3.10002e+06
3.10002e+06
3.10002e+06
2.70603e+06
2.69066e+06
2.68353e+06
2.81632e+06
3.03096e+06
3.10306e+06
3.09989e+06
3.10031e+06
3.10354e+06
3.10383e+06
3.10273e+06
3.10164e+06
3.1011e+06
3.10078e+06
3.1004e+06
3.10028e+06
3.10018e+06
3.10013e+06
3.10008e+06
3.10003e+06
3.10001e+06
3.10002e+06
3.10002e+06
3.10001e+06
3.09999e+06
3.09997e+06
3.09996e+06
3.09995e+06
3.09995e+06
3.09995e+06
3.09995e+06
3.09996e+06
3.09996e+06
3.09997e+06
3.09998e+06
3.09998e+06
3.09999e+06
3.09999e+06
3.1e+06
3.1e+06
3.1e+06
3.10001e+06
3.10001e+06
3.10001e+06
3.10001e+06
3.10002e+06
3.10002e+06
3.10002e+06
3.10002e+06
3.10002e+06
3.10002e+06
3.10002e+06
3.10002e+06
3.10002e+06
3.10002e+06
3.10002e+06
3.10002e+06
3.10002e+06
3.10002e+06
3.10002e+06
2.6996e+06
2.69645e+06
2.69461e+06
2.82806e+06
3.03346e+06
3.10502e+06
3.10059e+06
3.10092e+06
3.10384e+06
3.10379e+06
3.10277e+06
3.10158e+06
3.10107e+06
3.10072e+06
3.10039e+06
3.10029e+06