/*--------------------------------*- C++ -*----------------------------------*\
| =========                 |                                                 |
| \\      /  F ield         | OpenFOAM: The Open Source CFD Toolbox           |
|  \\    /   O peration     | Version:  v2012                                 |
|   \\  /    A nd           | Website:  www.openfoam.com                      |
|    \\/     M anipulation  |                                                 |
\*---------------------------------------------------------------------------*/
FoamFile
{
    version     2.0;
    format      ascii;
    class       volScalarField;
    location    "0.8";
    object      alpha.water;
}
// * * * * * * * * * * * * * * * * * * * * * * * * * * * * * * * * * * * * * //

dimensions      [0 0 0 0 0 0 0];


internalField   nonuniform List<scalar> 
20000
(
-2.06494e-142
-4.45816e-134
-6.35881e-126
-2.67244e-116
-2.31246e-110
-1.38216e-101
-5.63151e-96
-4.58958e-88
-9.47744e-83
-3.77307e-80
-8.31456e-78
-2.08881e-75
-1.22326e-72
-7.73597e-71
-1.76727e-68
-6.1072e-67
-1.63183e-64
-9.23616e-62
-1.34937e-59
-1.17858e-58
-4.06037e-58
-7.97385e-58
-1.03753e-57
-9.67787e-58
-6.77871e-58
-3.68748e-58
-2.18483e-58
-7.19285e-58
-2.52643e-57
-5.17984e-57
-1.20138e-55
-6.7164e-54
-2.44853e-53
-3.84909e-53
-3.49191e-53
-2.06534e-53
-8.48823e-54
-2.5181e-54
-5.52647e-55
-8.79232e-56
-1.11427e-56
-1.0787e-57
-7.98556e-59
-4.52279e-60
-1.95673e-61
-6.43711e-63
-1.6006e-64
-2.9823e-66
-4.12133e-68
-4.17275e-70
-3.05095e-72
-1.58523e-74
-5.7443e-77
-1.41963e-79
-2.32831e-82
-2.44512e-85
-1.56187e-88
-5.59077e-92
-9.60357e-96
-5.44413e-100
-1.20815e-140
-1.37816e-132
-2.1575e-124
-8.92661e-115
-7.25588e-109
-2.92064e-100
-1.20872e-94
-9.48327e-87
-1.38506e-81
-4.93151e-79
-9.80211e-77
-2.23477e-74
-1.21215e-71
-7.08172e-70
-1.4943e-67
-4.84392e-66
-1.17558e-63
-6.33205e-61
-8.86546e-59
-7.48914e-58
-2.51315e-57
-4.82568e-57
-6.15743e-57
-5.64714e-57
-3.8985e-57
-2.09419e-57
-1.16856e-57
-3.34598e-57
-1.14896e-56
-2.34143e-56
-5.5878e-55
-3.22753e-53
-1.18694e-52
-1.88157e-52
-1.72276e-52
-1.02967e-52
-4.28212e-53
-1.28725e-53
-2.86684e-54
-4.63812e-55
-5.98168e-56
-5.90104e-57
-4.45801e-58
-2.58026e-59
-1.14237e-60
-3.85085e-62
-9.82326e-64
-1.87965e-65
-2.66961e-67
-2.77907e-69
-2.08911e-71
-1.11531e-73
-4.14696e-76
-1.04935e-78
-1.75675e-81
-1.87562e-84
-1.21186e-87
-4.3589e-91
-7.44594e-95
-4.07764e-99
-5.45749e-139
-3.70154e-131
-7.04377e-123
-3.03164e-113
-2.24564e-107
-5.63444e-99
-2.56445e-93
-1.8541e-85
-1.99325e-80
-6.34636e-78
-1.13723e-75
-2.35223e-73
-1.18177e-70
-6.37931e-69
-1.24285e-66
-3.77902e-65
-8.33178e-63
-4.27027e-60
-5.72941e-58
-4.68174e-57
-1.53051e-56
-2.87398e-56
-3.59671e-56
-3.24386e-56
-2.20755e-56
-1.17128e-56
-6.19629e-57
-1.53523e-56
-5.13831e-56
-1.04075e-55
-2.55608e-54
-1.52664e-52
-5.66587e-52
-9.06058e-52
-8.37554e-52
-5.06023e-52
-2.13016e-52
-6.49093e-53
-1.46741e-53
-2.415e-54
-3.17055e-55
-3.18848e-56
-2.45903e-57
-1.45506e-58
-6.59531e-60
-2.27922e-61
-5.9681e-63
-1.17351e-64
-1.71421e-66
-1.83635e-68
-1.42065e-70
-7.80132e-73
-2.97985e-75
-7.7289e-78
-1.32192e-80
-1.43527e-83
-9.37118e-87
-3.37608e-90
-5.69125e-94
-2.95404e-98
-1.69975e-137
-8.99467e-130
-2.20759e-121
-1.05514e-111
-6.85704e-106
-9.90829e-98
-5.37964e-92
-3.41269e-84
-2.824e-79
-8.03918e-77
-1.29805e-74
-2.43494e-72
-1.13317e-69
-5.65274e-68
-1.01644e-65
-2.89886e-64
-5.80713e-62
-2.83179e-59
-3.64081e-57
-2.8783e-56
-9.1681e-56
-1.68389e-55
-2.06727e-55
-1.83384e-55
-1.23047e-55
-6.44991e-56
-3.25477e-56
-6.95053e-56
-2.25917e-55
-4.54755e-55
-1.14959e-53
-7.1058e-52
-2.66256e-51
-4.29686e-51
-4.01157e-51
-2.45079e-51
-1.04465e-51
-3.22769e-52
-7.40932e-53
-1.24081e-53
-1.6588e-54
-1.70109e-55
-1.33975e-56
-8.10759e-58
-3.76385e-59
-1.33407e-60
-3.58755e-62
-7.25318e-64
-1.09045e-65
-1.20304e-67
-9.58702e-70
-5.42082e-72
-2.12952e-74
-5.66836e-77
-9.91557e-80
-1.0956e-82
-7.22854e-86
-2.60442e-89
-4.31766e-93
-2.12579e-97
-2.80101e-136
-2.22169e-128
-6.61897e-120
-3.74706e-110
-2.0653e-104
-1.60167e-96
-1.1159e-90
-5.89622e-83
-3.93794e-78
-1.00218e-75
-1.4573e-73
-2.47832e-71
-1.06842e-68
-4.92617e-67
-8.17196e-65
-2.18596e-63
-3.97947e-61
-1.84611e-58
-2.27436e-56
-1.73983e-55
-5.40049e-55
-9.70347e-55
-1.16884e-54
-1.02001e-54
-6.74927e-55
-3.49593e-55
-1.69217e-55
-3.10654e-55
-9.76311e-55
-1.95271e-54
-5.08179e-53
-3.25367e-51
-1.23142e-50
-2.00627e-50
-1.89241e-50
-1.16946e-50
-5.04911e-51
-1.58235e-51
-3.68948e-52
-6.28909e-53
-8.56402e-54
-8.95831e-55
-7.20731e-56
-4.46213e-57
-2.12239e-58
-7.7187e-60
-2.1327e-61
-4.43579e-63
-6.86778e-65
-7.80882e-67
-6.41556e-69
-3.73897e-71
-1.51237e-73
-4.13638e-76
-7.40954e-79
-8.34064e-82
-5.56398e-85
-2.00425e-88
-3.26334e-92
-1.52681e-96
-7.48567e-136
-6.40568e-127
-1.89318e-118
-1.34328e-108
-6.1376e-103
-2.46134e-95
-2.28946e-89
-9.56238e-82
-5.40351e-77
-1.22915e-74
-1.60874e-72
-2.47933e-70
-9.90172e-68
-4.22052e-66
-6.45641e-64
-1.61979e-62
-2.68017e-60
-1.18272e-57
-1.39614e-55
-1.03364e-54
-3.12718e-54
-5.49778e-54
-6.49886e-54
-5.58028e-54
-3.64195e-54
-1.86447e-54
-8.69992e-55
-1.37154e-54
-4.14611e-54
-8.23719e-54
-2.20721e-52
-1.46516e-50
-5.6035e-50
-9.22036e-50
-8.79006e-50
-5.49662e-50
-2.40452e-50
-7.64572e-51
-1.8113e-51
-3.14367e-52
-4.36166e-53
-4.65522e-54
-3.82709e-55
-2.42479e-56
-1.18208e-57
-4.41264e-59
-1.25323e-60
-2.68281e-62
-4.28004e-64
-5.01886e-66
-4.25449e-68
-2.5581e-70
-1.06659e-72
-3.00126e-75
-5.51288e-78
-6.33061e-81
-4.27481e-84
-1.54057e-87
-2.46397e-91
-1.09591e-95
-3.72571e-134
-2.10901e-125
-5.14609e-117
-4.80611e-107
-1.79941e-101
-3.88433e-94
-4.64651e-88
-1.46084e-80
-7.2944e-76
-1.48288e-73
-1.74586e-71
-2.43734e-69
-9.01776e-67
-3.55407e-65
-5.01142e-63
-1.17912e-61
-1.77356e-59
-7.44385e-57
-8.41932e-55
-6.03373e-54
-1.77951e-53
-3.06163e-53
-3.5523e-53
-3.00177e-53
-1.93269e-53
-9.78113e-54
-4.41923e-54
-5.98559e-54
-1.72987e-53
-3.41234e-53
-9.41614e-52
-6.48642e-50
-2.50799e-49
-4.1696e-49
-4.01902e-49
-2.54393e-49
-1.12794e-49
-3.64011e-50
-8.7645e-51
-1.54926e-51
-2.19071e-52
-2.38634e-53
-2.00523e-54
-1.30056e-55
-6.50024e-57
-2.49149e-58
-7.27622e-60
-1.60388e-61
-2.63793e-63
-3.1921e-65
-2.79407e-67
-1.73483e-69
-7.46427e-72
-2.1637e-74
-4.08146e-77
-4.78887e-80
-3.27861e-83
-1.18392e-86
-1.86275e-90
-7.89175e-95
-1.73285e-132
-7.03779e-124
-1.32479e-115
-1.7039e-105
-5.20548e-100
-6.98067e-93
-9.33036e-87
-2.11884e-79
-9.68509e-75
-1.75926e-72
-1.86199e-70
-2.35367e-68
-8.06759e-66
-2.94057e-64
-3.82006e-62
-8.4289e-61
-1.15268e-58
-4.60088e-56
-4.98581e-54
-3.45936e-53
-9.94761e-53
-1.67522e-52
-1.90817e-52
-1.58715e-52
-1.00831e-52
-5.04559e-53
-2.2159e-53
-2.58408e-53
-7.08954e-53
-1.38771e-52
-3.94404e-51
-2.8222e-49
-1.10373e-48
-1.85478e-48
-1.80827e-48
-1.159e-48
-5.21025e-49
-1.70711e-49
-4.17872e-50
-7.52518e-51
-1.08477e-51
-1.20631e-52
-1.03636e-53
-6.88269e-55
-3.52781e-56
-1.38883e-57
-4.17212e-59
-9.47328e-61
-1.60705e-62
-2.00791e-64
-1.81604e-66
-1.16538e-68
-5.17975e-71
-1.54875e-73
-3.00478e-76
-3.60872e-79
-2.50994e-82
-9.10172e-86
-1.41241e-89
-5.71903e-94
-7.58252e-131
-2.25381e-122
-3.21616e-114
-5.96305e-104
-1.48578e-98
-1.48296e-91
-1.85384e-85
-2.95292e-78
-1.26449e-73
-2.05199e-71
-1.95111e-69
-2.23203e-67
-7.08792e-65
-2.3898e-63
-2.85879e-61
-5.91503e-60
-7.35533e-58
-2.79162e-55
-2.89833e-53
-1.94734e-52
-5.46072e-52
-9.00297e-52
-1.00694e-51
-8.24559e-52
-5.1697e-52
-2.55837e-52
-1.09584e-52
-1.10446e-52
-2.85355e-52
-5.53796e-52
-1.62136e-50
-1.20636e-48
-4.77446e-48
-8.11337e-48
-8.00361e-48
-5.19632e-48
-2.36924e-48
-7.88357e-49
-1.96247e-49
-3.60145e-50
-5.2939e-51
-6.01148e-52
-5.28151e-53
-3.59251e-54
-1.8889e-55
-7.63991e-57
-2.36154e-58
-5.5255e-60
-9.67211e-62
-1.24842e-63
-1.16746e-65
-7.74912e-68
-3.56162e-70
-1.09986e-72
-2.19818e-75
-2.70741e-78
-1.91739e-81
-7.00166e-85
-1.07536e-88
-4.18169e-93
-3.15619e-129
-6.87686e-121
-7.33157e-113
-2.05764e-102
-4.18477e-97
-3.50443e-90
-3.64481e-84
-4.01135e-77
-1.62294e-72
-2.35242e-70
-2.00808e-68
-2.07789e-66
-6.11304e-64
-1.907e-62
-2.09954e-60
-4.07325e-59
-4.60625e-57
-1.66213e-54
-1.65324e-52
-1.07585e-51
-2.94255e-51
-4.75035e-51
-5.21799e-51
-4.20744e-51
-2.60384e-51
-1.27461e-51
-5.34028e-52
-4.67724e-52
-1.12788e-51
-2.1679e-51
-6.53898e-50
-5.06419e-48
-2.02933e-47
-3.48873e-47
-3.48368e-47
-2.29191e-47
-1.06022e-47
-3.58393e-48
-9.07545e-49
-1.69772e-49
-2.54538e-50
-2.95222e-51
-2.65312e-52
-1.84881e-53
-9.97414e-55
-4.14576e-56
-1.31896e-57
-3.18113e-59
-5.74801e-61
-7.66806e-63
-7.41851e-65
-5.09712e-67
-2.42488e-69
-7.74344e-72
-1.59675e-74
-2.02089e-77
-1.46092e-80
-5.38918e-84
-8.22617e-88
-3.09035e-92
-1.26952e-127
-1.98158e-119
-1.56149e-111
-6.9973e-101
-1.16293e-95
-8.5861e-89
-7.09051e-83
-5.38331e-76
-2.04714e-71
-2.64986e-69
-2.02928e-67
-1.8983e-65
-5.17379e-63
-1.49368e-61
-1.51266e-59
-2.75143e-58
-2.82992e-56
-9.70717e-54
-9.24954e-52
-5.83101e-51
-1.55583e-50
-2.45988e-50
-2.65421e-50
-2.10781e-50
-1.28784e-50
-6.23693e-51
-2.56238e-51
-1.96397e-51
-4.37743e-51
-8.32127e-51
-2.5861e-49
-2.08696e-47
-8.47199e-47
-1.47413e-46
-1.49062e-46
-9.94117e-47
-4.66735e-47
-1.60333e-47
-4.13134e-48
-7.88018e-49
-1.20538e-49
-1.42828e-50
-1.31327e-51
-9.37745e-53
-5.19204e-54
-2.2183e-55
-7.26575e-57
-1.80689e-58
-3.37133e-60
-4.65029e-62
-4.65689e-64
-3.31437e-66
-1.63354e-68
-5.40061e-71
-1.15079e-73
-1.49966e-76
-1.10954e-79
-4.14892e-83
-6.32338e-87
-2.31035e-91
-5.03436e-126
-5.34219e-118
-3.09079e-110
-2.34482e-99
-3.18889e-94
-2.11167e-87
-1.36475e-81
-7.20798e-75
-2.537e-70
-2.93196e-68
-2.01286e-66
-1.70119e-64
-4.2953e-62
-1.1479e-60
-1.06868e-58
-1.8223e-57
-1.70487e-55
-5.55832e-53
-5.07354e-51
-3.09909e-50
-8.06825e-50
-1.24958e-49
-1.32469e-49
-1.03628e-49
-6.25201e-50
-2.99612e-50
-1.20959e-50
-8.18148e-51
-1.66824e-50
-3.13055e-50
-1.00251e-48
-8.4394e-47
-3.47257e-46
-6.11843e-46
-6.26781e-46
-4.23898e-46
-2.02061e-46
-7.0561e-47
-1.85063e-47
-3.60029e-48
-5.62001e-49
-6.80493e-50
-6.40314e-51
-4.68612e-52
-2.66337e-53
-1.16994e-54
-3.946e-56
-1.0121e-57
-1.95057e-59
-2.78301e-61
-2.8862e-63
-2.12913e-65
-1.08808e-67
-3.72848e-70
-8.22225e-73
-1.10547e-75
-8.39309e-79
-3.19282e-82
-4.88291e-86
-1.74764e-90
-1.99909e-124
-1.33356e-116
-5.65247e-109
-7.74102e-98
-8.62779e-93
-5.16661e-86
-2.598e-80
-9.68421e-74
-3.0879e-69
-3.18543e-67
-1.95903e-65
-1.49492e-63
-3.49653e-61
-8.65216e-60
-7.40051e-58
-1.18288e-56
-1.00671e-54
-3.11903e-52
-2.72714e-50
-1.61444e-49
-4.10182e-49
-6.22413e-49
-6.48407e-49
-4.99755e-49
-2.97779e-49
-1.41235e-49
-5.61317e-50
-3.38245e-50
-6.24344e-50
-1.15386e-49
-3.80749e-48
-3.34744e-46
-1.39692e-45
-2.4935e-45
-2.58889e-45
-1.77625e-45
-8.59942e-46
-3.05369e-46
-8.15458e-47
-1.61851e-47
-2.57892e-48
-3.19171e-49
-3.07409e-50
-2.3063e-51
-1.34582e-52
-6.07934e-54
-2.11193e-55
-5.58805e-57
-1.11273e-58
-1.64272e-60
-1.76505e-62
-1.35039e-64
-7.16117e-67
-2.54607e-69
-5.81913e-72
-8.08766e-75
-6.31804e-78
-2.45403e-81
-3.78525e-85
-1.33713e-89
-7.94683e-123
-3.04858e-115
-9.49857e-108
-2.51726e-96
-2.30326e-91
-1.25455e-84
-4.88996e-79
-1.31006e-72
-3.68996e-68
-3.39702e-66
-1.87004e-64
-1.28757e-62
-2.7896e-60
-6.39335e-59
-5.02095e-57
-7.52163e-56
-5.82373e-54
-1.71439e-51
-1.43581e-49
-8.23947e-49
-2.04337e-48
-3.03845e-48
-3.11118e-48
-2.36301e-48
-1.39084e-48
-6.53002e-49
-2.55874e-49
-1.38788e-49
-2.29514e-49
-4.16483e-49
-1.41604e-47
-1.30173e-45
-5.51266e-45
-9.97383e-45
-1.05e-44
-7.31137e-45
-3.59638e-45
-1.29909e-45
-3.53323e-46
-7.15665e-47
-1.16431e-47
-1.47317e-48
-1.45265e-49
-1.11745e-50
-6.69634e-52
-3.11119e-53
-1.11343e-54
-3.03985e-56
-6.25569e-58
-9.55881e-60
-1.06451e-61
-8.45082e-64
-4.65372e-66
-1.71842e-68
-4.07601e-71
-5.86713e-74
-4.72823e-77
-1.88198e-80
-2.94283e-84
-1.03385e-88
-3.09241e-121
-6.30348e-114
-1.46285e-106
-8.06089e-95
-6.06667e-90
-3.01827e-83
-9.09622e-78
-1.78738e-71
-4.32737e-67
-3.55451e-65
-1.75011e-63
-1.08645e-61
-2.18024e-59
-4.62937e-58
-3.33591e-56
-4.68299e-55
-3.29889e-53
-9.22551e-51
-7.40044e-49
-4.11762e-48
-9.96946e-48
-1.45301e-47
-1.46262e-47
-1.09493e-47
-6.36723e-48
-2.95974e-48
-1.1449e-48
-5.65016e-49
-8.29017e-49
-1.47155e-48
-5.15435e-47
-4.96056e-45
-2.13315e-44
-3.91392e-44
-4.17983e-44
-2.95506e-44
-1.4774e-44
-5.43051e-45
-1.50474e-45
-3.11139e-46
-5.16964e-47
-6.68876e-48
-6.75404e-49
-5.32824e-50
-3.27951e-51
-1.56746e-52
-5.77996e-54
-1.62857e-55
-3.46432e-57
-5.48044e-59
-6.32798e-61
-5.21511e-63
-2.98414e-65
-1.14546e-67
-2.82329e-70
-4.21641e-73
-3.51409e-76
-1.43839e-79
-2.29164e-83
-8.06738e-88
-1.13487e-119
-1.1622e-112
-2.08797e-105
-2.54133e-93
-1.57657e-88
-7.18327e-82
-1.67136e-76
-2.4585e-70
-4.97835e-66
-3.64783e-64
-1.60506e-62
-8.97692e-61
-1.66843e-58
-3.28318e-57
-2.16934e-55
-2.8533e-54
-1.82883e-52
-4.85769e-50
-3.73213e-48
-2.01387e-47
-4.76127e-47
-6.80294e-47
-6.73344e-47
-4.96927e-47
-2.85553e-47
-1.31441e-47
-5.0247e-48
-2.28071e-48
-2.94378e-48
-5.08756e-48
-1.83527e-46
-1.8515e-44
-8.09001e-44
-1.50613e-43
-1.63242e-43
-1.17226e-43
-5.9592e-44
-2.22972e-44
-6.29653e-45
-1.32947e-45
-2.25656e-46
-2.98631e-47
-3.08854e-48
-2.49925e-49
-1.58027e-50
-7.77122e-52
-2.95312e-53
-8.58871e-55
-1.88892e-56
-3.09444e-58
-3.70567e-60
-3.17172e-62
-1.88693e-64
-7.53539e-67
-1.9322e-69
-2.99887e-72
-2.59087e-75
-1.09424e-78
-1.78485e-82
-6.34248e-87
-3.76871e-118
-1.87814e-111
-2.94072e-104
-7.88557e-92
-4.04204e-87
-1.68856e-80
-3.0315e-75
-3.40053e-69
-5.61581e-65
-3.67005e-63
-1.44188e-61
-7.2594e-60
-1.24945e-57
-2.27944e-56
-1.38006e-54
-1.70039e-53
-9.9168e-52
-2.50139e-49
-1.84055e-47
-9.63417e-47
-2.22463e-46
-3.11672e-46
-3.03392e-46
-2.20771e-46
-1.25385e-46
-5.71616e-47
-2.16143e-47
-9.1189e-48
-1.02831e-47
-1.72039e-47
-6.38853e-46
-6.76509e-44
-3.00559e-43
-5.68076e-43
-6.25189e-43
-4.56221e-43
-2.3591e-43
-8.98847e-44
-2.58766e-44
-5.58091e-45
-9.67954e-46
-1.31053e-46
-1.38854e-47
-1.15274e-48
-7.48899e-50
-3.78986e-51
-1.48438e-52
-4.45684e-54
-1.01359e-55
-1.71985e-57
-2.1366e-59
-1.89994e-61
-1.17579e-63
-4.88861e-66
-1.30547e-68
-2.10886e-71
-1.89281e-74
-8.27458e-78
-1.38814e-81
-5.01397e-86
-1.08823e-116
-2.60312e-110
-4.95298e-103
-2.40753e-90
-1.0223e-85
-3.91493e-79
-5.42386e-74
-4.7097e-68
-6.20865e-64
-3.61815e-62
-1.26813e-60
-5.74241e-59
-9.15159e-57
-1.54842e-55
-8.58382e-54
-9.90538e-53
-5.25664e-51
-1.25888e-48
-8.87101e-47
-4.50545e-46
-1.01631e-45
-1.39643e-45
-1.33715e-45
-9.59587e-46
-5.38732e-46
-2.43287e-46
-9.10629e-47
-3.60668e-47
-3.53649e-47
-5.68814e-47
-2.17279e-45
-2.41848e-43
-1.0933e-42
-2.09909e-42
-2.34688e-42
-1.7411e-42
-9.16177e-43
-3.55596e-43
-1.04399e-43
-2.30065e-44
-4.0785e-45
-5.65072e-46
-6.13478e-47
-5.22607e-48
-3.48907e-49
-1.81726e-50
-7.33722e-52
-2.27462e-53
-5.35006e-55
-9.40425e-57
-1.21229e-58
-1.12033e-60
-7.21542e-63
-3.12543e-65
-8.70033e-68
-1.46487e-70
-1.36868e-73
-6.21114e-77
-1.07621e-80
-3.97698e-85
-2.6238e-115
-3.00587e-109
-1.26094e-101
-7.22981e-89
-2.55037e-84
-8.94059e-78
-9.56488e-73
-6.49745e-67
-6.7239e-63
-3.49356e-61
-1.09136e-59
-4.44077e-58
-6.55211e-56
-1.02856e-54
-5.21705e-53
-5.63709e-52
-2.72216e-50
-6.18826e-48
-4.17599e-46
-2.05842e-45
-4.53691e-45
-6.11504e-45
-5.76106e-45
-4.07807e-45
-2.26362e-45
-1.01276e-45
-3.75482e-46
-1.40895e-46
-1.19858e-46
-1.83824e-46
-7.21567e-45
-8.45436e-43
-3.8917e-42
-7.59473e-42
-8.63089e-42
-6.51273e-42
-3.48888e-42
-1.37997e-42
-4.13309e-43
-9.30955e-44
-1.68733e-44
-2.39287e-45
-2.66252e-46
-2.32784e-47
-1.59736e-48
-8.56416e-50
-3.56493e-51
-1.14125e-52
-2.77653e-54
-5.05677e-56
-6.76536e-58
-6.49942e-60
-4.35795e-62
-1.96775e-64
-5.71493e-67
-1.00414e-69
-9.78429e-73
-4.62149e-76
-8.30286e-80
-3.15775e-84
-5.03509e-114
-2.77421e-108
-4.47665e-100
-2.13477e-87
-6.27493e-83
-2.0087e-76
-1.66112e-71
-8.88173e-66
-7.12936e-62
-3.30206e-60
-9.1856e-59
-3.35529e-57
-4.58245e-55
-6.67709e-54
-3.09643e-52
-3.13198e-51
-1.37627e-49
-2.96925e-47
-1.91877e-45
-9.1817e-45
-1.97779e-44
-2.61551e-44
-2.42489e-44
-1.69346e-44
-9.29523e-45
-4.12085e-45
-1.51411e-45
-5.42717e-46
-4.00728e-46
-5.80513e-46
-2.33824e-44
-2.8882e-42
-1.35485e-41
-2.68916e-41
-3.108e-41
-2.38657e-41
-1.30213e-41
-5.25067e-42
-1.60488e-42
-3.69609e-43
-6.85109e-44
-9.94726e-45
-1.13462e-45
-1.01831e-46
-7.18324e-48
-3.96495e-49
-1.70181e-50
-5.62659e-52
-1.41609e-53
-2.67254e-55
-3.7115e-57
-3.70746e-59
-2.58895e-61
-1.21918e-63
-3.69697e-66
-6.78624e-69
-6.90723e-72
-3.40387e-75
-6.3629e-79
-2.50398e-83
-7.18276e-113
-1.91747e-107
-1.77453e-98
-6.19537e-86
-1.52232e-81
-4.4348e-75
-2.83841e-70
-1.19746e-64
-7.39674e-61
-3.05351e-59
-7.55665e-58
-2.47531e-56
-3.12865e-54
-4.23338e-53
-1.79353e-51
-1.69773e-50
-6.78853e-49
-1.38968e-46
-8.59927e-45
-3.99583e-44
-8.41385e-44
-1.09194e-43
-9.9645e-44
-6.86679e-44
-3.72777e-44
-1.63782e-44
-5.96643e-45
-2.05762e-45
-1.32301e-45
-1.79111e-45
-7.38836e-44
-9.63624e-42
-4.61035e-41
-9.31324e-41
-1.0953e-40
-8.56314e-41
-4.76071e-41
-1.95788e-41
-6.10936e-42
-1.4391e-42
-2.72887e-43
-4.05753e-44
-4.7455e-45
-4.37283e-46
-3.17151e-47
-1.80253e-48
-7.97841e-50
-2.7246e-51
-7.09447e-53
-1.3876e-54
-2.0006e-56
-2.07832e-58
-1.5119e-60
-7.42865e-63
-2.35345e-65
-4.5176e-68
-4.81001e-71
-2.47828e-74
-4.83525e-78
-1.97833e-82
-6.76004e-112
-8.81786e-107
-7.11467e-97
-1.76648e-84
-3.64072e-80
-9.6113e-74
-4.76754e-69
-1.58683e-63
-7.50463e-60
-2.76093e-58
-6.07255e-57
-1.78182e-55
-2.08376e-53
-2.6196e-52
-1.01314e-50
-8.97204e-50
-3.2645e-48
-6.33958e-46
-3.7563e-44
-1.69542e-43
-3.49055e-43
-4.44652e-43
-3.99474e-43
-2.71697e-43
-1.45902e-43
-6.35374e-44
-2.2957e-44
-7.66458e-45
-4.31701e-45
-5.39894e-45
-2.27476e-43
-3.13786e-41
-1.5325e-40
-3.1529e-40
-3.77547e-40
-3.00681e-40
-1.70415e-40
-7.15094e-41
-2.27887e-41
-5.49243e-42
-1.06577e-42
-1.62327e-43
-1.94708e-44
-1.84248e-45
-1.37418e-46
-8.04304e-48
-3.67171e-49
-1.29525e-50
-3.48965e-52
-7.07424e-54
-1.059e-55
-1.14431e-57
-8.67401e-60
-4.44842e-62
-1.47319e-64
-2.95968e-67
-3.30058e-70
-1.7813e-73
-3.63729e-77
-1.55377e-81
-3.1464e-111
-2.02242e-106
-2.81759e-95
-4.94631e-83
-8.5803e-79
-2.04271e-72
-7.86373e-68
-2.06205e-62
-7.44123e-59
-2.43944e-57
-4.76382e-56
-1.25062e-54
-1.35285e-52
-1.58096e-51
-5.57743e-50
-4.61914e-49
-1.5293e-47
-2.81674e-45
-1.59804e-43
-7.00815e-43
-1.41109e-42
-1.76481e-42
-1.56123e-42
-1.0482e-42
-5.56898e-43
-2.40411e-43
-8.61802e-44
-2.80007e-44
-1.39305e-44
-1.59001e-44
-6.81888e-43
-9.96556e-41
-4.9729e-40
-1.04274e-39
-1.27215e-39
-1.03265e-39
-5.96941e-40
-2.55693e-40
-8.32519e-41
-2.05376e-41
-4.0793e-42
-6.36622e-43
-7.83337e-44
-7.61373e-45
-5.84049e-46
-3.52088e-47
-1.65793e-48
-6.04214e-50
-1.68449e-51
-3.53962e-53
-5.50214e-55
-6.18491e-57
-4.88604e-59
-2.61621e-61
-9.06114e-64
-1.90662e-66
-2.2294e-69
-1.26233e-72
-2.70408e-76
-1.21042e-80
-7.09993e-136
-7.40464e-118
-1.09737e-93
-1.35942e-81
-1.99202e-77
-4.25331e-71
-1.27247e-66
-2.62396e-61
-7.20601e-58
-2.10486e-56
-3.64581e-55
-8.55233e-54
-8.55489e-52
-9.29856e-51
-2.99001e-49
-2.3149e-48
-6.9735e-47
-1.21793e-44
-6.61603e-43
-2.81997e-42
-5.55435e-42
-6.82168e-42
-5.94368e-42
-3.93998e-42
-2.07133e-42
-8.86534e-43
-3.15371e-43
-1.0015e-43
-4.44608e-44
-4.57613e-44
-1.98848e-42
-3.08457e-40
-1.57422e-39
-3.36688e-39
-4.18768e-39
-3.46668e-39
-2.04502e-39
-8.94576e-40
-2.97708e-40
-7.52006e-41
-1.52945e-41
-2.44634e-42
-3.08863e-43
-3.08415e-44
-2.43376e-45
-1.51136e-46
-7.34174e-48
-2.76443e-49
-7.97564e-51
-1.7373e-52
-2.80443e-54
-3.27976e-56
-2.70072e-58
-1.51018e-60
-5.47224e-63
-1.20671e-65
-1.48082e-68
-8.80897e-72
-1.98363e-75
-9.33346e-80
-3.79709e-135
-4.1062e-116
-4.1997e-92
-3.66563e-80
-4.55351e-76
-8.66875e-70
-2.01796e-65
-3.26664e-60
-6.81051e-57
-1.77239e-55
-2.72011e-54
-5.69381e-53
-5.26477e-51
-5.32563e-50
-1.55971e-48
-1.12834e-47
-3.09258e-46
-5.12058e-44
-2.6633e-42
-1.10367e-41
-2.12704e-41
-2.56593e-41
-2.20239e-41
-1.44171e-41
-7.5011e-42
-3.1834e-42
-1.12402e-42
-3.50113e-43
-1.40297e-43
-1.28761e-43
-5.63617e-42
-9.29774e-40
-4.85805e-39
-1.06064e-38
-1.34586e-38
-1.13692e-38
-6.84781e-39
-3.06066e-39
-1.04153e-39
-2.69495e-40
-5.61413e-41
-9.2061e-42
-1.19293e-42
-1.22405e-43
-9.93828e-45
-6.35849e-46
-3.18681e-47
-1.23989e-48
-3.70219e-50
-8.36017e-52
-1.40154e-53
-1.70542e-55
-1.46398e-57
-8.55065e-60
-3.24262e-62
-7.49729e-65
-9.6631e-68
-6.04621e-71
-1.43371e-74
-7.10973e-79
-6.16924e-141
-2.23334e-114
-1.57859e-90
-9.69267e-79
-1.02413e-74
-1.72756e-68
-3.13293e-64
-3.97552e-59
-6.27733e-56
-1.45541e-54
-1.97703e-53
-3.68738e-52
-3.15034e-50
-2.96768e-49
-7.91015e-48
-5.34437e-47
-1.33264e-45
-2.09145e-43
-1.04153e-41
-4.19764e-41
-7.91776e-41
-9.38392e-41
-7.93618e-41
-5.13119e-41
-2.64256e-41
-1.11214e-41
-3.89821e-42
-1.19437e-42
-4.37267e-43
-3.54421e-43
-1.5513e-41
-2.72706e-39
-1.4604e-38
-3.2576e-38
-4.22013e-38
-3.64023e-38
-2.23992e-38
-1.02343e-38
-3.56283e-39
-9.44706e-40
-2.01648e-40
-3.39097e-41
-4.51093e-42
-4.75735e-43
-3.97493e-44
-2.62056e-45
-1.35524e-46
-5.4489e-48
-1.68394e-49
-3.94234e-51
-6.8641e-53
-8.69085e-55
-7.77801e-57
-4.74582e-59
-1.88398e-61
-4.56908e-64
-6.18911e-67
-4.07718e-70
-1.01955e-73
-5.34034e-78
-5.50763e-139
-1.19067e-112
-5.82514e-89
-2.51176e-77
-2.26499e-73
-3.36394e-67
-4.75705e-63
-4.72635e-58
-5.63846e-55
-1.16462e-53
-1.39877e-52
-2.32087e-51
-1.83123e-49
-1.60755e-48
-3.89686e-47
-2.45752e-46
-5.5745e-45
-8.29086e-43
-3.95318e-41
-1.55005e-40
-2.86232e-40
-3.3336e-40
-2.77849e-40
-1.77468e-40
-9.04796e-41
-3.77658e-41
-1.31424e-41
-3.96971e-42
-1.34393e-42
-9.55067e-43
-4.14214e-41
-7.77629e-39
-4.27319e-38
-9.74749e-38
-1.2902e-37
-1.13716e-37
-7.15265e-38
-3.34259e-38
-1.19097e-38
-3.23752e-39
-7.0831e-40
-1.22187e-40
-1.66912e-41
-1.80968e-42
-1.55634e-43
-1.05745e-44
-5.64364e-46
-2.34506e-47
-7.50145e-49
-1.8208e-50
-3.29266e-52
-4.33804e-54
-4.04787e-56
-2.58043e-58
-1.07252e-60
-2.72923e-63
-3.88731e-66
-2.69832e-69
-7.12415e-73
-3.9487e-77
-4.76334e-137
-6.21852e-111
-2.10929e-87
-6.37554e-76
-4.92158e-72
-6.39384e-66
-7.05572e-62
-5.48392e-57
-4.93148e-54
-9.07414e-53
-9.626e-52
-1.41842e-50
-1.033e-48
-8.45659e-48
-1.8631e-46
-1.096e-45
-2.26133e-44
-3.18671e-42
-1.45485e-40
-5.55183e-40
-1.00393e-39
-1.14925e-39
-9.44219e-40
-5.95893e-40
-3.00803e-40
-1.24532e-40
-4.30289e-41
-1.28354e-41
-4.06461e-42
-2.52177e-42
-1.0718e-40
-2.15384e-38
-1.21603e-37
-2.83936e-37
-3.84301e-37
-3.46342e-37
-2.22827e-37
-1.06566e-37
-3.88804e-38
-1.08403e-38
-2.43175e-39
-4.30452e-40
-6.03993e-41
-6.73395e-42
-5.96212e-43
-4.17558e-44
-2.30012e-45
-9.87844e-47
-3.271e-48
-8.23199e-50
-1.54617e-51
-2.11973e-53
-2.06231e-55
-1.37364e-57
-5.97846e-60
-1.59666e-62
-2.39224e-65
-1.75081e-68
-4.88532e-72
-2.86958e-76
-3.98615e-135
-3.17949e-109
-7.49087e-86
-1.58409e-74
-1.04971e-70
-1.18518e-64
-1.02128e-60
-6.20571e-56
-4.19647e-53
-6.87847e-52
-6.43798e-51
-8.40929e-50
-5.64894e-48
-4.31586e-47
-8.63627e-46
-4.7357e-45
-8.88628e-44
-1.18637e-41
-5.18609e-40
-1.9268e-39
-3.41288e-39
-3.84106e-39
-3.11144e-39
-1.94052e-39
-9.70004e-40
-3.98345e-40
-1.36664e-40
-4.03122e-41
-1.20664e-41
-6.52988e-42
-2.68451e-40
-5.78888e-38
-3.36251e-37
-8.04502e-37
-1.1144e-36
-1.02772e-36
-6.76763e-37
-3.31416e-37
-1.23881e-37
-3.54417e-38
-8.15491e-39
-1.48174e-39
-2.13623e-40
-2.44974e-41
-2.23343e-42
-1.61259e-43
-9.16958e-45
-4.07075e-46
-1.39539e-47
-3.64121e-49
-7.10347e-51
-1.01339e-52
-1.02801e-54
-7.15454e-57
-3.26091e-59
-9.14159e-62
-1.44123e-64
-1.11269e-67
-3.28384e-71
-2.04659e-75
-3.22354e-133
-1.5904e-107
-2.60777e-84
-3.85021e-73
-2.19541e-69
-2.14038e-63
-1.44093e-59
-6.84244e-55
-3.47129e-52
-5.0684e-51
-4.18107e-50
-4.83142e-49
-2.99128e-47
-2.13457e-46
-3.87742e-45
-1.98031e-44
-3.37889e-43
-4.27317e-41
-1.7887e-39
-6.47256e-39
-1.12332e-38
-1.24325e-38
-9.93142e-39
-6.12211e-39
-3.03078e-39
-1.23468e-39
-4.20596e-40
-1.22797e-40
-3.50622e-41
-1.65932e-41
-6.50043e-40
-1.50822e-37
-9.02624e-37
-2.21534e-36
-3.14354e-36
-2.96888e-36
-2.00246e-36
-1.00474e-36
-3.84983e-37
-1.13072e-37
-2.66962e-38
-4.98074e-39
-7.38032e-40
-8.70756e-41
-8.17646e-42
-6.08745e-43
-3.57364e-44
-1.64009e-45
-5.82034e-47
-1.57484e-48
-3.19111e-50
-4.73726e-52
-5.0106e-54
-3.64373e-56
-1.73926e-58
-5.11865e-61
-8.49338e-64
-6.9198e-67
-2.16132e-70
-1.43053e-74
-2.51567e-131
-7.77724e-106
-8.89415e-83
-9.14818e-72
-4.49733e-68
-3.76233e-62
-1.97943e-58
-7.34411e-54
-2.78871e-51
-3.62701e-50
-2.63435e-49
-2.68714e-48
-1.53197e-46
-1.02192e-45
-1.68429e-44
-8.00472e-44
-1.24164e-42
-1.48739e-40
-5.96225e-39
-2.10214e-38
-3.5757e-38
-3.89264e-38
-3.06711e-38
-1.86906e-38
-9.16475e-39
-3.70385e-39
-1.25275e-39
-3.62248e-40
-9.94329e-41
-4.13917e-41
-1.51969e-39
-3.80481e-37
-2.34985e-36
-5.92327e-36
-8.61855e-36
-8.34299e-36
-5.76794e-36
-2.9672e-36
-1.1661e-36
-3.51779e-37
-8.5256e-38
-1.63386e-38
-2.48908e-39
-3.02226e-40
-2.92361e-41
-2.24485e-42
-1.36075e-43
-6.45672e-45
-2.37237e-46
-6.65621e-48
-1.40093e-49
-2.16409e-51
-2.38655e-53
-1.81339e-55
-9.0651e-58
-2.80092e-60
-4.89218e-63
-4.20734e-66
-1.39139e-69
-9.78746e-74
-1.89181e-129
-3.71526e-104
-2.97017e-81
-2.12334e-70
-9.0128e-67
-6.43044e-61
-2.64441e-57
-7.66556e-53
-2.17379e-50
-2.51835e-49
-1.60882e-48
-1.44518e-47
-7.57861e-46
-4.72997e-45
-7.07063e-44
-3.12379e-43
-4.40369e-42
-4.99695e-40
-1.91838e-38
-6.59283e-38
-1.09944e-37
-1.17757e-37
-9.15358e-38
-5.5151e-38
-2.67878e-38
-1.07402e-38
-3.60654e-39
-1.03326e-39
-2.74378e-40
-1.01325e-40
-3.42493e-39
-9.28277e-37
-5.92652e-36
-1.53629e-35
-2.29456e-35
-2.27874e-35
-1.61608e-35
-8.52953e-36
-3.44015e-36
-1.0665e-36
-2.6543e-37
-5.22692e-38
-8.1895e-39
-1.02364e-39
-1.02038e-40
-8.08189e-42
-5.05925e-43
-2.48225e-44
-9.44358e-46
-2.7476e-47
-6.00659e-49
-9.65505e-51
-1.11012e-52
-8.81327e-55
-4.61396e-57
-1.49673e-59
-2.75206e-62
-2.49883e-65
-8.75259e-69
-6.54687e-73
-1.36874e-127
-1.73246e-102
-9.70565e-80
-4.81079e-69
-1.7647e-65
-1.06755e-59
-3.43155e-56
-7.77258e-52
-1.64251e-49
-1.69489e-48
-9.51438e-48
-7.5069e-47
-3.61646e-45
-2.11374e-44
-2.86511e-43
-1.17533e-42
-1.5053e-41
-1.61813e-39
-5.95046e-38
-1.99412e-37
-3.26127e-37
-3.43746e-37
-2.63656e-37
-1.57082e-37
-7.55838e-38
-3.00639e-38
-1.00215e-38
-2.84509e-39
-7.34506e-40
-2.4314e-40
-7.42852e-39
-2.18736e-36
-1.44639e-35
-3.86117e-35
-5.9265e-35
-6.04399e-35
-4.40077e-35
-2.38475e-35
-9.87718e-36
-3.14849e-36
-8.05032e-37
-1.62961e-37
-2.62685e-38
-3.38107e-39
-3.4738e-40
-2.83878e-41
-1.83551e-42
-9.31308e-44
-3.66893e-45
-1.107e-46
-2.51367e-48
-4.20429e-50
-5.03975e-52
-4.18024e-54
-2.29177e-56
-7.80502e-59
-1.51082e-61
-1.44847e-64
-5.37485e-68
-4.27665e-72
-9.51158e-126
-7.8795e-101
-3.10129e-78
-1.06314e-67
-3.37129e-64
-1.7196e-58
-4.32008e-55
-7.64748e-51
-1.20185e-48
-1.10454e-47
-5.44332e-47
-3.7616e-46
-1.66225e-44
-9.10703e-44
-1.11921e-42
-4.2576e-42
-4.95164e-41
-5.04355e-39
-1.77692e-37
-5.80917e-37
-9.31995e-37
-9.6694e-37
-7.31934e-37
-4.31253e-37
-2.05575e-37
-8.11166e-38
-2.6837e-38
-7.54935e-39
-1.90182e-39
-5.70739e-40
-1.54765e-38
-4.97084e-36
-3.41154e-35
-9.39322e-35
-1.4835e-34
-1.55524e-34
-1.16367e-34
-6.47937e-35
-2.75774e-35
-9.04413e-36
-2.37679e-36
-4.9478e-37
-8.20853e-38
-1.08831e-38
-1.1528e-39
-9.7219e-41
-6.49386e-42
-3.40778e-43
-1.3903e-44
-4.35034e-46
-1.02607e-47
-1.7857e-49
-2.23153e-51
-1.93371e-53
-1.11011e-55
-3.96897e-58
-8.08781e-61
-8.18778e-64
-3.2191e-67
-2.72533e-71
-6.33716e-124
-3.49249e-99
-9.68329e-77
-2.28978e-66
-6.27511e-63
-2.68456e-57
-5.26968e-54
-7.29277e-50
-8.50757e-48
-6.9624e-47
-3.00968e-46
-1.81593e-45
-7.34755e-44
-3.77716e-43
-4.20893e-42
-1.48263e-41
-1.56487e-40
-1.51082e-38
-5.10108e-37
-1.62754e-36
-2.56228e-36
-2.61722e-36
-1.95545e-36
-1.13949e-36
-5.38128e-37
-2.10625e-37
-6.91451e-38
-1.9268e-38
-4.74855e-39
-1.3066e-39
-3.09025e-38
-1.08766e-35
-7.766e-35
-2.20917e-34
-3.59489e-34
-3.87862e-34
-2.98508e-34
-1.70926e-34
-7.48111e-35
-2.5258e-35
-6.8256e-36
-1.46185e-36
-2.49704e-37
-3.41135e-38
-3.72651e-39
-3.24389e-40
-2.23884e-41
-1.21529e-42
-5.13507e-44
-1.66645e-45
-4.08264e-47
-7.39275e-49
-9.63068e-51
-8.71783e-53
-5.24024e-55
-1.96668e-57
-4.21869e-60
-4.50966e-63
-1.87865e-66
-1.69254e-70
-4.04036e-122
-1.5073e-97
-2.95206e-75
-4.80264e-65
-1.13633e-61
-4.05711e-56
-6.22027e-53
-6.73209e-49
-5.82006e-47
-4.24026e-46
-1.60657e-45
-8.43426e-45
-3.11806e-43
-1.50554e-42
-1.52156e-41
-4.95512e-41
-4.74256e-40
-4.34243e-38
-1.40559e-36
-4.37857e-36
-6.76629e-36
-6.80576e-36
-5.01956e-36
-2.89296e-36
-1.3534e-36
-5.25372e-37
-1.71083e-37
-4.72041e-38
-1.1398e-38
-2.90564e-39
-5.89798e-38
-2.28724e-35
-1.70357e-34
-5.01629e-34
-8.42312e-34
-9.36451e-34
-7.42104e-34
-4.37372e-34
-1.97005e-34
-6.85215e-35
-1.90505e-35
-4.19961e-36
-7.3889e-37
-1.04051e-37
-1.17253e-38
-1.0538e-39
-7.51624e-41
-4.22094e-42
-1.84734e-43
-6.21789e-45
-1.58232e-46
-2.98114e-48
-4.04821e-50
-3.82774e-52
-2.40884e-54
-9.48899e-57
-2.14246e-59
-2.41814e-62
-1.06737e-65
-1.02338e-69
-2.46017e-120
-6.32858e-96
-8.77997e-74
-9.80137e-64
-1.9989e-60
-5.9284e-55
-7.09565e-52
-6.00796e-48
-3.84394e-46
-2.49215e-45
-8.2707e-45
-3.76358e-44
-1.268e-42
-5.75651e-42
-5.27929e-41
-1.58655e-40
-1.37556e-39
-1.1954e-37
-3.71143e-36
-1.12927e-35
-1.7134e-35
-1.69733e-35
-1.23584e-35
-7.04421e-36
-3.2641e-36
-1.25636e-36
-4.05647e-37
-1.10744e-37
-2.62145e-38
-6.24614e-39
-1.07244e-37
-4.61269e-35
-3.59495e-34
-1.09807e-33
-1.90582e-33
-2.18629e-33
-1.78601e-33
-1.08448e-33
-5.03116e-34
-1.80409e-34
-5.16308e-35
-1.17211e-35
-2.12508e-36
-3.08578e-37
-3.58819e-38
-3.33035e-39
-2.4553e-40
-1.42669e-41
-6.46818e-43
-2.25817e-44
-5.96917e-46
-1.17008e-47
-1.65616e-49
-1.63558e-51
-1.07749e-53
-4.45451e-56
-1.0585e-58
-1.2613e-61
-5.89863e-65
-6.01856e-69
-1.42779e-118
-2.58269e-94
-2.54533e-72
-1.94469e-62
-3.41036e-59
-8.36547e-54
-7.81169e-51
-5.17653e-47
-2.44865e-45
-1.41183e-44
-4.10186e-44
-1.61105e-43
-4.93143e-42
-2.10718e-41
-1.75501e-40
-4.85727e-40
-3.80977e-39
-3.14559e-37
-9.37416e-36
-2.78708e-35
-4.153e-35
-4.05231e-35
-2.91272e-35
-1.64172e-35
-7.53293e-36
-2.87381e-36
-9.19445e-37
-2.48133e-37
-5.75617e-38
-1.29046e-38