/*--------------------------------*- C++ -*----------------------------------*\
| =========                 |                                                 |
| \\      /  F ield         | OpenFOAM: The Open Source CFD Toolbox           |
|  \\    /   O peration     | Version:  v2012                                 |
|   \\  /    A nd           | Website:  www.openfoam.com                      |
|    \\/     M anipulation  |                                                 |
\*---------------------------------------------------------------------------*/
FoamFile
{
    version     2.0;
    format      ascii;
    class       surfaceScalarField;
    location    "0.8";
    object      phi;
}
// * * * * * * * * * * * * * * * * * * * * * * * * * * * * * * * * * * * * * //

dimensions      [0 3 -1 0 0 0 0];
oriented        oriented;


internalField   nonuniform List<scalar> 
49380
(
2.11915e-15
-3.02059e-13
1.7077e-17
1.17692e-14
-1.94536e-12
3.22188e-17
3.15304e-14
-4.91104e-12
-1.35757e-17
6.37803e-14
-9.10916e-12
-5.07227e-17
1.09467e-13
-1.45406e-11
-2.7818e-16
1.7407e-13
-2.12477e-11
5.63231e-20
2.56787e-13
-2.92995e-11
-2.92995e-16
3.62896e-13
-3.87861e-11
-2.66246e-16
4.95085e-13
-4.98046e-11
-4.03304e-16
6.58747e-13
-6.24802e-11
-2.38108e-16
8.5731e-13
-7.69302e-11
-1.88587e-16
1.09565e-12
-9.32976e-11
-7.87319e-17
1.37792e-12
-1.11745e-10
-5.18933e-18
1.70815e-12
-1.32417e-10
-1.98347e-16
2.09221e-12
-1.55508e-10
-1.89514e-16
2.53455e-12
-1.81184e-10
-2.18996e-16
3.04009e-12
-2.0965e-10
-2.61607e-16
3.61295e-12
-2.41114e-10
-3.65165e-16
4.25932e-12
-2.75798e-10
-2.58885e-16
4.98455e-12
-3.1392e-10
-1.25625e-16
5.79232e-12
-3.55714e-10
-1.34948e-16
6.68727e-12
-4.01455e-10
-1.00536e-16
7.67347e-12
-4.51333e-10
-8.6765e-17
8.75484e-12
-5.05668e-10
-6.58082e-17
9.9345e-12
-5.64666e-10
-6.43597e-17
1.12149e-11
-6.28619e-10
-5.05992e-17
1.25973e-11
-6.97779e-10
-4.7853e-17
1.40817e-11
-7.72322e-10
-3.96701e-17
1.56667e-11
-8.52617e-10
-4.11378e-17
1.73486e-11
-9.38725e-10
-3.80686e-17
1.91218e-11
-1.03092e-09
-4.30479e-17
2.09782e-11
-1.12937e-09
-4.18488e-17
2.29068e-11
-1.23413e-09
-4.59908e-17
2.48932e-11
-1.34528e-09
-4.15555e-17
2.69196e-11
-1.46281e-09
-4.40264e-17
2.8964e-11
-1.58667e-09
-3.53123e-17
3.10006e-11
-1.71662e-09
-3.23805e-17
3.29996e-11
-1.85243e-09
-1.72257e-17
3.49261e-11
-1.99361e-09
-1.63867e-17
3.67413e-11
-2.1391e-09
-4.14819e-18
3.84024e-11
-2.28929e-09
-6.47349e-18
3.98632e-11
-2.4417e-09
6.86401e-18
4.10744e-11
-2.59632e-09
1.54489e-18
4.19849e-11
-2.75048e-09
1.09908e-17
4.25433e-11
-2.90202e-09
2.61572e-18
4.26987e-11
-3.05037e-09
1.11169e-17
4.24045e-11
-3.18989e-09
3.74779e-18
4.1618e-11
-3.31888e-09
3.38024e-17
4.03054e-11
-3.43182e-09
4.05716e-17
3.84429e-11
-3.52397e-09
5.49678e-17
3.60175e-11
-3.59009e-09
4.51187e-17
3.30317e-11
-3.62136e-09
5.2611e-17
2.95004e-11
-3.61043e-09
3.91959e-17
2.54538e-11
-3.54819e-09
4.10914e-17
2.09498e-11
-3.42306e-09
2.60974e-17
1.61027e-11
-3.22092e-09
2.60074e-17
1.11322e-11
-2.92048e-09
1.21193e-17
6.43136e-12
-2.48045e-09
8.92504e-18
2.47077e-12
-1.82496e-09
-7.85523e-18
-8.19014e-10
-2.19106e-17
1.83366e-15
-3.03781e-13
1.40783e-17
1.14567e-14
-1.95452e-12
5.83944e-17
3.26777e-14
-4.9316e-12
8.2202e-17
6.72409e-14
-9.14418e-12
-4.92766e-17
1.19168e-13
-1.45923e-11
3.60301e-17
1.90316e-13
-2.13192e-11
-2.67089e-17
2.8413e-13
-2.93935e-11
-1.25055e-17
3.99768e-13
-3.8906e-11
-4.68322e-16
5.45361e-13
-4.99521e-11
-2.16418e-16
7.19934e-13
-6.26589e-11
-4.63937e-16
9.29502e-13
-7.71432e-11
-3.71485e-16
1.17963e-12
-9.35479e-11
-5.26383e-17
1.46999e-12
-1.12038e-10
-3.42177e-16
1.80828e-12
-1.32759e-10
-3.4731e-16
2.1983e-12
-1.55902e-10
-4.49627e-16
2.6449e-12
-1.81637e-10
-6.11098e-16
3.15402e-12
-2.10165e-10
-6.2069e-16
3.72818e-12
-2.41696e-10
-8.65856e-16
4.37505e-12
-2.76452e-10
-7.88186e-16
5.10334e-12
-3.14649e-10
-1.43747e-16
5.91404e-12
-3.56525e-10
3.06845e-17
6.81159e-12
-4.02352e-10
9.40171e-18
7.80054e-12
-4.52323e-10
-6.69448e-17
8.88531e-12
-5.06755e-10
-1.03915e-16
1.00691e-11
-5.65852e-10
-1.25611e-16
1.13545e-11
-6.29906e-10
-1.25859e-16
1.27426e-11
-6.99169e-10
-1.22619e-16
1.42333e-11
-7.73815e-10
-1.23939e-16
1.58253e-11
-8.54211e-10
-1.22436e-16
1.75147e-11
-9.40417e-10
-1.29472e-16
1.92958e-11
-1.03271e-09
-1.29748e-16
2.11605e-11
-1.13123e-09
-1.33662e-16
2.30976e-11
-1.23607e-09
-1.28806e-16
2.50925e-11
-1.34728e-09
-1.26099e-16
2.71275e-11
-1.46485e-09
-1.15496e-16
2.91803e-11
-1.58873e-09
-1.03021e-16
3.12249e-11
-1.71867e-09
-7.70794e-17
3.32314e-11
-1.85444e-09
-5.13485e-17
3.51644e-11
-1.99555e-09
-3.3409e-17
3.6985e-11
-2.14093e-09
-1.79755e-17
3.865e-11
-2.29096e-09
4.21503e-18
4.01131e-11
-2.44317e-09
2.12651e-17
4.13244e-11
-2.59754e-09
3.1817e-17
4.22327e-11
-2.7514e-09
3.48927e-17
4.27861e-11
-2.90259e-09
3.74683e-17
4.29335e-11
-3.05054e-09
3.63429e-17
4.2628e-11
-3.1896e-09
4.20738e-17
4.18271e-11
-3.3181e-09
8.92019e-17
4.04967e-11
-3.43052e-09
1.24793e-16
3.86134e-11
-3.52212e-09
1.35881e-16
3.61643e-11
-3.58768e-09
1.3627e-16
3.31525e-11
-3.61838e-09
1.27298e-16
2.95933e-11
-3.60691e-09
1.15553e-16
2.55173e-11
-3.54416e-09
9.63147e-17
2.09822e-11
-3.41857e-09
7.58857e-17
1.61015e-11
-3.21609e-09
4.97672e-17
1.1094e-11
-2.91552e-09
2.16261e-17
6.35103e-12
-2.47576e-09
-1.40881e-17
2.34143e-12
-1.821e-09
-5.78507e-17
-8.16672e-10
-1.05066e-16
1.23392e-15
-3.04895e-13
1.47279e-17
8.14577e-15
-1.9615e-12
-7.18792e-18
2.54491e-14
-4.94848e-12
5.19667e-17
5.54782e-14
-9.17415e-12
9.71717e-18
1.02116e-13
-1.46385e-11
6.09421e-17
1.66336e-13
-2.13844e-11
-1.08862e-16
2.53657e-13
-2.94804e-11
7.07096e-17
3.65592e-13
-3.90173e-11
9.44037e-17
5.07279e-13
-5.00924e-11
1.8327e-16
6.79104e-13
-6.28322e-11
-1.51381e-16
8.88955e-13
-7.73527e-11
6.99218e-17
1.13769e-12
-9.37986e-11
-1.94076e-16
1.43052e-12
-1.12334e-10
-2.75529e-16
1.77399e-12
-1.33103e-10
-8.95919e-17
2.17009e-12
-1.56301e-10
-2.33539e-16
2.6251e-12
-1.82093e-10
-1.74104e-16
3.14361e-12
-2.10685e-10
-2.40235e-16
3.72726e-12
-2.42286e-10
-6.23692e-16
4.38559e-12
-2.77115e-10
-5.17171e-16
5.12502e-12
-3.15392e-10
-2.87786e-16
5.9479e-12
-3.57351e-10
-3.11462e-16
6.85912e-12
-4.03267e-10
-3.25879e-16
7.86292e-12
-4.53331e-10
-3.64966e-16
8.96372e-12
-5.07859e-10
-3.45314e-16
1.01646e-11
-5.67056e-10
-3.32926e-16
1.14682e-11
-6.31212e-10
-2.93714e-16
1.28756e-11
-7.00579e-10
-2.66936e-16
1.43867e-11
-7.75328e-10
-2.46572e-16
1.59999e-11
-8.55826e-10
-2.34767e-16
1.77115e-11
-9.42131e-10
-2.35272e-16
1.95154e-11
-1.03451e-09
-2.35021e-16
2.14035e-11
-1.13312e-09
-2.3754e-16
2.33643e-11
-1.23803e-09
-2.33613e-16
2.5383e-11
-1.3493e-09
-2.28385e-16
2.74414e-11
-1.46691e-09
-2.15656e-16
2.95171e-11
-1.5908e-09
-1.93222e-16
3.15837e-11
-1.72074e-09
-1.5315e-16
3.36107e-11
-1.85646e-09
-1.072e-16
3.55623e-11
-1.9975e-09
-8.04154e-17
3.73989e-11
-2.14277e-09
-5.02771e-17
3.90769e-11
-2.29263e-09
-9.09928e-18
4.05493e-11
-2.44463e-09
2.77227e-17
4.17655e-11
-2.59875e-09
4.47872e-17
4.26737e-11
-2.7523e-09
5.68812e-17
4.32213e-11
-2.90312e-09
5.81026e-17
4.33568e-11
-3.05066e-09
6.24289e-17
4.30327e-11
-3.18927e-09
6.93476e-17
4.22062e-11
-3.31726e-09
1.25989e-16
4.08433e-11
-3.42914e-09
1.64621e-16
3.89205e-11
-3.52018e-09
1.84042e-16
3.64255e-11
-3.58517e-09
1.79166e-16
3.33621e-11
-3.6153e-09
1.70209e-16
2.97472e-11
-3.60328e-09
1.46979e-16
2.56135e-11
-3.54001e-09
1.2358e-16
2.10209e-11
-3.41397e-09
8.50795e-17
1.60856e-11
-3.21115e-09
4.54772e-17
1.10283e-11
-2.91046e-09
-1.20465e-17
6.23674e-12
-2.47097e-09
-7.65788e-17
2.22895e-12
-1.81701e-09
-1.65965e-16
-8.14467e-10
-2.4105e-16
1.24527e-15
-3.06133e-13
1.10539e-18
8.88346e-15
-1.9689e-12
2.9194e-17
2.71909e-14
-4.96637e-12
5.1732e-17
5.89855e-14
-9.20616e-12
-2.40102e-17
1.08656e-13
-1.46876e-11
6.75644e-17
1.7764e-13
-2.14538e-11
-4.4125e-17
2.69485e-13
-2.95729e-11
-7.18247e-17
3.87758e-13
-3.91358e-11
-1.10377e-17
5.35781e-13
-5.024e-11
5.24504e-17
7.14867e-13
-6.30124e-11
-1.01325e-16
9.30825e-13
-7.75695e-11
-8.58713e-17
1.18429e-12
-9.4056e-11
-4.35823e-16
1.48346e-12
-1.12636e-10
-2.79577e-16
1.83145e-12
-1.33454e-10
-2.81826e-16
2.23287e-12
-1.56705e-10
-2.77096e-16
2.69192e-12
-1.82556e-10
-3.87412e-16
3.21622e-12
-2.11211e-10
-1.94106e-16
3.80539e-12
-2.42881e-10
-6.8855e-16
4.46987e-12
-2.77785e-10
-6.09847e-16
5.21674e-12
-3.16142e-10
-3.31918e-16
6.04848e-12
-3.58187e-10
-3.78448e-16
6.97084e-12
-4.04193e-10
-3.38313e-16
7.98808e-12
-4.54352e-10
-3.07812e-16
9.10456e-12
-5.08978e-10
-2.55619e-16
1.03233e-11
-5.68278e-10
-2.29639e-16
1.16471e-11
-6.32538e-10
-1.98225e-16
1.30768e-11
-7.02011e-10
-1.80259e-16
1.46125e-11
-7.76866e-10
-1.81275e-16
1.62523e-11
-8.57468e-10
-1.85123e-16
1.79923e-11
-9.43873e-10
-2.10547e-16
1.98264e-11
-1.03635e-09
-2.26249e-16
2.17459e-11
-1.13505e-09
-2.50279e-16
2.37391e-11
-1.24003e-09
-2.57655e-16
2.57909e-11
-1.35136e-09
-2.67901e-16
2.78825e-11
-1.469e-09
-2.59713e-16
2.9991e-11
-1.59292e-09
-2.42667e-16
3.20894e-11
-1.72284e-09
-1.92292e-16
3.41464e-11
-1.85852e-09
-1.39695e-16
3.61254e-11
-1.99948e-09
-1.02658e-16
3.79859e-11
-2.14463e-09
-6.99179e-17
3.96835e-11
-2.29433e-09
-1.03596e-17
4.11703e-11
-2.44612e-09
3.4308e-17
4.23945e-11
-2.59997e-09
6.29779e-17
4.33035e-11
-2.7532e-09
7.35192e-17
4.38437e-11
-2.90366e-09
8.13366e-17
4.39627e-11
-3.05078e-09
8.25922e-17
4.36125e-11
-3.18891e-09
9.54182e-17
4.27496e-11
-3.31639e-09
1.42543e-16
4.13399e-11
-3.42772e-09
1.80811e-16
3.936e-11
-3.51818e-09
1.95544e-16
3.67983e-11
-3.58259e-09
1.98619e-16
3.36599e-11
-3.61214e-09
1.82845e-16
2.9964e-11
-3.59956e-09
1.62387e-16
2.5747e-11
-3.53576e-09
1.26013e-16
2.10733e-11
-3.40926e-09
8.30054e-17
1.60644e-11
-3.2061e-09
2.34045e-17
1.09464e-11
-2.9053e-09
-4.87355e-17
6.10958e-12
-2.46608e-09
-1.42799e-16
2.12147e-12
-1.81296e-09
-2.57015e-16
-8.12281e-10
-3.4974e-16
9.88042e-16
-3.06945e-13
2.26023e-17
6.71487e-15
-1.97451e-12
1.5256e-17
2.15321e-14
-4.98105e-12
1.45448e-17
4.88189e-14
-9.23365e-12
-2.31589e-17
9.29563e-14
-1.47311e-11
6.53173e-17
1.56085e-13
-2.15169e-11
-9.84065e-18
2.42114e-13
-2.96591e-11
-1.55134e-17
3.54984e-13
-3.92486e-11
1.60637e-17
4.98331e-13
-5.03829e-11
6.02651e-17
6.76021e-13
-6.31888e-11
1.71101e-16
8.91871e-13
-7.7784e-11
1.61866e-16
1.14763e-12
-9.43132e-11
-1.40271e-16
1.45233e-12
-1.1294e-10
8.97148e-17
1.80684e-12
-1.33809e-10
-1.16109e-16
2.21819e-12
-1.57116e-10
-4.55241e-17
2.6882e-12
-1.83029e-10
-2.98104e-16
3.22607e-12
-2.1175e-10
-8.87351e-17
3.83062e-12
-2.43492e-10
-5.83254e-16
4.5111e-12
-2.78473e-10
-7.29281e-16
5.27577e-12
-3.16912e-10
-5.46986e-16
6.1273e-12
-3.59044e-10
-5.90012e-16
7.07136e-12
-4.05142e-10
-5.06432e-16
8.11228e-12
-4.55397e-10
-4.3857e-16
9.25453e-12
-5.10124e-10
-3.31041e-16
1.05013e-11
-5.69528e-10
-2.64948e-16
1.18552e-11
-6.33895e-10
-1.91568e-16
1.33175e-11
-7.03476e-10
-1.50469e-16
1.48878e-11
-7.78439e-10
-1.30025e-16
1.65646e-11
-8.59147e-10
-1.27126e-16
1.83435e-11
-9.45654e-10
-1.49522e-16
2.02183e-11
-1.03823e-09
-1.72883e-16
2.21801e-11
-1.13701e-09
-2.0497e-16
2.42167e-11
-1.24207e-09
-2.26648e-16
2.63125e-11
-1.35345e-09
-2.47953e-16
2.84482e-11
-1.47114e-09
-2.53373e-16
3.06001e-11
-1.59507e-09
-2.40821e-16
3.27406e-11
-1.72498e-09
-1.9223e-16
3.48373e-11
-1.86062e-09
-1.32034e-16
3.68528e-11
-2.0015e-09
-9.58287e-17
3.87453e-11
-2.14652e-09
-5.63486e-17
4.04693e-11
-2.29605e-09
6.26668e-18
4.19757e-11
-2.44762e-09
6.34402e-17
4.32115e-11
-2.60121e-09
9.11722e-17
4.41226e-11
-2.75411e-09
1.07351e-16
4.46545e-11
-2.90419e-09
1.08956e-16
4.47534e-11
-3.05087e-09
1.15006e-16
4.43707e-11
-3.18852e-09
1.19328e-16
4.34621e-11
-3.31548e-09
1.48958e-16
4.19932e-11
-3.42625e-09
1.68939e-16
3.99409e-11
-3.51613e-09
1.86735e-16
3.72942e-11
-3.57994e-09
1.83365e-16
3.40603e-11
-3.60891e-09
1.73528e-16
3.02613e-11
-3.59576e-09
1.45389e-16
2.59384e-11
-3.53144e-09
1.12205e-16
2.11629e-11
-3.40448e-09
5.79548e-17
1.60636e-11
-3.201e-09
-4.25706e-18
1.08752e-11
-2.90011e-09
-9.30566e-17
5.9955e-12
-2.4612e-09
-1.94939e-16
2.0322e-12
-1.809e-09
-3.23256e-16
-8.10256e-10
-4.08453e-16
1.23469e-15
-3.0791e-13
3.23195e-17
7.03037e-15
-1.9807e-12
-4.24526e-17
2.38243e-14
-4.99662e-12
1.48107e-16
5.19689e-14
-9.2623e-12
-6.55491e-17
9.78359e-14
-1.47766e-11
5.2089e-17
1.62725e-13
-2.15826e-11
-9.12455e-17
2.52328e-13
-2.97479e-11
8.43211e-17
3.6791e-13
-3.93644e-11
-3.08627e-17
5.1431e-13
-5.05292e-11
1.79979e-17
6.9541e-13
-6.33692e-11
8.64333e-17
9.14078e-13
-7.80025e-11
3.77295e-17
1.17438e-12
-9.45738e-11
-2.45719e-17
1.4831e-12
-1.13247e-10
1.3561e-16
1.84255e-12
-1.34169e-10
-3.21814e-17
2.26008e-12
-1.57533e-10
5.79628e-17
2.73697e-12
-1.83508e-10
-3.25717e-16
3.28357e-12
-2.12298e-10
-1.6683e-16
3.89882e-12
-2.44114e-10
-7.27245e-16
4.59198e-12
-2.79174e-10
-8.59644e-16
5.37215e-12
-3.17697e-10
-5.17506e-16
6.24195e-12
-3.59918e-10
-4.87538e-16
7.20739e-12
-4.06112e-10
-4.04355e-16
8.27297e-12
-4.56466e-10
-3.33831e-16
9.44322e-12
-5.11297e-10
-2.37976e-16
1.07214e-11
-5.70808e-10
-1.63662e-16
1.21101e-11
-6.35285e-10
-9.3696e-17
1.36104e-11
-7.04977e-10
-4.72662e-17
1.52221e-11
-7.80051e-10
-3.29408e-17
1.69432e-11
-8.60869e-10
-2.93071e-17
1.87693e-11
-9.47482e-10
-6.25117e-17
2.06937e-11
-1.04015e-09
-9.07485e-17
2.2707e-11
-1.13903e-09
-1.37322e-16
2.47968e-11
-1.24416e-09
-1.66975e-16
2.69466e-11
-1.35561e-09
-2.0408e-16
2.91365e-11
-1.47333e-09
-2.16576e-16
3.13418e-11
-1.59728e-09
-2.14606e-16
3.35341e-11
-1.72718e-09
-1.62598e-16
3.56799e-11
-1.86277e-09
-1.0339e-16
3.77403e-11
-2.00356e-09
-6.22651e-17
3.96724e-11
-2.14845e-09
-2.48909e-17
4.14292e-11
-2.29781e-09
4.68629e-17
4.29601e-11
-2.44915e-09
1.05995e-16
4.42106e-11
-2.60246e-09
1.40888e-16
4.5125e-11
-2.75503e-09
1.51157e-16
4.56474e-11
-2.90471e-09
1.55458e-16
4.57227e-11
-3.05095e-09
1.53294e-16
4.53011e-11
-3.1881e-09
1.53256e-16
4.43378e-11
-3.31451e-09
1.58309e-16
4.27978e-11
-3.42471e-09
1.74831e-16
4.06584e-11
-3.51399e-09
1.86288e-16
3.79096e-11
-3.57719e-09
1.91081e-16
3.45607e-11
-3.60555e-09
1.76226e-16
3.06379e-11
-3.59183e-09
1.54851e-16
2.61882e-11
-3.52699e-09
1.14404e-16
2.1291e-11
-3.39958e-09
6.30054e-17
1.60851e-11
-3.19579e-09
-9.73825e-18
1.08159e-11
-2.89484e-09
-9.9594e-17
5.89254e-12
-2.45628e-09
-2.09183e-16
1.95189e-12
-1.80507e-09
-3.2906e-16
-8.08311e-10
-4.02977e-16
9.87522e-16
-3.086e-13
3.78986e-17
5.38339e-15
-1.98573e-12
-7.11289e-17
2.00683e-14
-5.0098e-12
1.78251e-16
4.4936e-14
-9.28719e-12
-8.51292e-18
8.66543e-14
-1.48175e-11
1.08294e-16
1.47502e-13
-2.16434e-11
3.59112e-18
2.33169e-13
-2.98325e-11
1.30041e-16
3.45171e-13
-3.94764e-11
-1.48117e-17
4.89045e-13
-5.06725e-11
4.82845e-17
6.69359e-13
-6.3548e-11
1.71574e-16
8.88553e-13
-7.82211e-11
5.94195e-17
1.15319e-12
-9.48364e-11
2.33174e-16
1.46763e-12
-1.13559e-10
3.21127e-16
1.83597e-12
-1.34535e-10
2.78834e-16
2.26483e-12
-1.57959e-10
3.54963e-16
2.75524e-12
-1.83999e-10
-3.51471e-17
3.31806e-12
-2.1286e-10
1.35003e-16
3.9513e-12
-2.44751e-10
-4.53099e-16
4.66555e-12
-2.79894e-10
-5.82586e-16
5.46841e-12
-3.18505e-10
-5.86235e-16
6.36408e-12
-3.6082e-10
-6.29301e-16
7.35819e-12
-4.07111e-10
-5.2172e-16
8.45543e-12
-4.57568e-10
-4.25572e-16
9.66053e-12
-5.12506e-10
-2.96108e-16
1.0977e-11
-5.72127e-10
-1.99713e-16
1.24076e-11
-6.36718e-10
-1.00961e-16
1.39535e-11
-7.06525e-10
-3.90837e-17
1.56143e-11
-7.81713e-10
-2.8371e-18
1.7388e-11
-8.62644e-10
1.17012e-17
1.92698e-11
-9.49365e-10
-8.80704e-18
2.12528e-11
-1.04214e-09
-3.54408e-17
2.33271e-11
-1.1411e-09
-7.97299e-17
2.54796e-11
-1.24631e-09
-1.16171e-16
2.76932e-11
-1.35782e-09
-1.57723e-16
2.9947e-11
-1.47559e-09
-1.801e-16
3.22154e-11
-1.59955e-09
-1.80185e-16
3.44688e-11
-1.72943e-09
-1.30617e-16
3.66725e-11
-1.86497e-09
-6.51685e-17
3.87861e-11
-2.00567e-09
-2.67372e-17
4.0765e-11
-2.15043e-09
1.70099e-17
4.25608e-11
-2.29961e-09
9.0396e-17
4.41208e-11
-2.45071e-09
1.6151e-16
4.5389e-11
-2.60372e-09
1.9392e-16
4.63078e-11
-2.75594e-09
2.09122e-16
4.68195e-11
-2.90522e-09
2.05143e-16
4.68677e-11
-3.05099e-09
2.05495e-16
4.64014e-11
-3.18763e-09
1.94045e-16
4.53746e-11
-3.31349e-09
1.95507e-16
4.37523e-11
-3.42308e-09
2.03882e-16
4.1512e-11
-3.51174e-09
2.21558e-16
3.8645e-11
-3.57432e-09
2.19931e-16
3.5163e-11
-3.60207e-09
2.12533e-16
3.10969e-11
-3.58776e-09
1.8514e-16
2.65007e-11
-3.52239e-09
1.51456e-16
2.14636e-11
-3.39455e-09
9.31231e-17
1.61357e-11
-3.19046e-09
2.483e-17
1.07749e-11
-2.88948e-09
-7.12396e-17
5.80422e-12
-2.45131e-09
-1.71222e-16
1.88129e-12
-1.80115e-09
-2.81726e-16
-8.06434e-10
-3.35797e-16
9.52205e-16
-3.09407e-13
1.5014e-17
6.62159e-15
-1.99105e-12
4.17753e-17
2.15851e-14
-5.02404e-12
1.01593e-16
4.64408e-14
-9.31435e-12
-2.81082e-16
8.94823e-14
-1.48606e-11
-1.06345e-17
1.52557e-13
-2.17054e-11
1.30834e-16
2.39843e-13
-2.99192e-11
5.15851e-17
3.54008e-13
-3.95902e-11
2.85909e-17
4.99908e-13
-5.08184e-11
-1.24983e-17
6.82503e-13
-6.37298e-11
7.48031e-17
9.04113e-13
-7.84434e-11
-8.43106e-17
1.17329e-12
-9.51039e-11
1.63519e-16
1.49173e-12
-1.13877e-10
4.50175e-17
1.86725e-12
-1.34909e-10
2.00457e-16
2.30442e-12
-1.58394e-10
2.73723e-16
2.8058e-12
-1.84501e-10
-2.84267e-17
3.38259e-12
-2.13435e-10
2.68208e-16
4.03196e-12
-2.45405e-10
-4.45599e-16
4.7654e-12
-2.80633e-10
-5.34977e-16
5.59203e-12
-3.19334e-10
-1.662e-16
6.51457e-12
-3.61745e-10
-1.94023e-16
7.53913e-12
-4.08138e-10
-2.3458e-16
8.67089e-12
-4.58703e-10
-2.44794e-16
9.91475e-12
-5.13752e-10
-2.04034e-16
1.12744e-11
-5.73489e-10
-1.39021e-16
1.27525e-11
-6.38197e-10
-6.4981e-17
1.43504e-11
-7.08124e-10
-1.16686e-18
1.60673e-11
-7.83431e-10
3.22076e-17
1.79012e-11
-8.64478e-10
5.67779e-17
1.9847e-11
-9.51311e-10
3.59418e-17
2.18972e-11
-1.04419e-09
1.56048e-17
2.40415e-11
-1.14325e-09
-3.36988e-17
2.6266e-11
-1.24854e-09
-6.97696e-17
2.85528e-11
-1.36011e-09
-1.21112e-16
3.088e-11
-1.47792e-09
-1.45406e-16
3.32209e-11
-1.60189e-09
-1.53192e-16
3.55444e-11
-1.73176e-09
-9.82474e-17
3.78146e-11
-1.86724e-09
-3.37236e-17
3.99893e-11
-2.00785e-09
1.04154e-17
4.2022e-11
-2.15246e-09
5.23218e-17
4.38625e-11
-2.30145e-09
1.38089e-16
4.54562e-11
-2.4523e-09
2.12249e-16
4.67448e-11
-2.60501e-09
2.53569e-16
4.7669e-11
-2.75687e-09
2.63493e-16
4.8169e-11
-2.90572e-09
2.63474e-16
4.81868e-11
-3.05101e-09
2.5545e-16
4.76699e-11
-3.18711e-09
2.45198e-16
4.65715e-11
-3.31239e-09
2.45568e-16
4.48562e-11
-3.42137e-09
2.64827e-16
4.25018e-11
-3.50938e-09
2.79533e-16
3.95011e-11
-3.57132e-09
2.87826e-16
3.58691e-11
-3.59843e-09
2.76137e-16
3.16414e-11
-3.58353e-09
2.58061e-16
2.68804e-11
-3.51763e-09
2.19447e-16
2.16858e-11
-3.38935e-09
1.68404e-16
1.6221e-11
-3.185e-09
9.47325e-17
1.07576e-11
-2.88402e-09
6.4326e-18
5.73334e-12
-2.44629e-09
-8.96826e-17
1.82117e-12
-1.79724e-09
-1.78373e-16
-8.04614e-10
-2.20175e-16
8.88114e-16
-3.10033e-13
3.10816e-17
5.53763e-15
-1.99579e-12
-1.01238e-17
1.91722e-14
-5.03658e-12
1.40949e-16
4.21089e-14
-9.3384e-12
-1.37898e-16
8.29108e-14
-1.49007e-11
1.0342e-16
1.43869e-13
-2.17653e-11
1.44285e-16
2.28934e-13
-3.00033e-11
1.14072e-16
3.41094e-13
-3.97012e-11
1.08495e-16
4.86937e-13
-5.09633e-11
1.00522e-16
6.70183e-13
-6.39119e-11
1.15119e-16
8.94347e-13
-7.86681e-11
-9.84394e-17
1.16873e-12
-9.53762e-11
2.27514e-16
1.49405e-12
-1.14202e-10
7.75539e-17
1.88021e-12
-1.35291e-10
4.53009e-16
2.33018e-12
-1.58839e-10
4.98692e-16
2.84807e-12
-1.85016e-10
3.78905e-16
3.44379e-12
-2.14025e-10
6.38977e-16
4.11467e-12
-2.46077e-10
-4.55649e-17
4.87422e-12
-2.81393e-10
-4.48993e-17
5.72916e-12
-3.2019e-10
-1.19727e-16
6.68419e-12
-3.62702e-10
-2.46679e-16
7.74493e-12
-4.09202e-10
-2.73951e-16
8.91693e-12
-4.59878e-10
-2.70977e-16
1.02053e-11
-5.15044e-10
-2.17239e-16
1.16141e-11
-5.749e-10
-1.55665e-16
1.31462e-11
-6.39731e-10
-7.40333e-17
1.48027e-11
-7.09781e-10
-1.16423e-17
1.6583e-11
-7.85212e-10
3.36676e-17
1.84848e-11
-8.66381e-10
6.29598e-17
2.05026e-11
-9.5333e-10
5.53731e-17
2.26286e-11
-1.04632e-09
3.89621e-17
2.48517e-11
-1.14547e-09
-2.37232e-18
2.71574e-11
-1.25085e-09
-4.05993e-17
2.95266e-11
-1.36248e-09
-9.0861e-17
3.19364e-11
-1.48033e-09
-1.21475e-16
3.43589e-11
-1.60432e-09
-1.27755e-16
3.67615e-11
-1.73416e-09
-7.39694e-17
3.91065e-11
-1.86959e-09
-1.56467e-18
4.13498e-11
-2.01009e-09
4.04824e-17
4.34431e-11
-2.15455e-09
8.9997e-17
4.53339e-11
-2.30333e-09
1.78898e-16
4.69655e-11
-2.45393e-09
2.66918e-16
4.82773e-11
-2.60632e-09
3.06505e-16
4.92077e-11
-2.75779e-09
3.23411e-16
4.9695e-11
-2.9062e-09
3.15714e-16
4.9679e-11
-3.05099e-09
3.12327e-16
4.91059e-11
-3.18654e-09
2.95982e-16
4.7928e-11
-3.3112e-09
3.11354e-16
4.61093e-11
-3.41954e-09
3.29536e-16
4.36284e-11
-3.5069e-09
3.53863e-16
4.04795e-11
-3.56816e-09
3.56926e-16
3.66811e-11
-3.59463e-09
3.55485e-16
3.22747e-11
-3.57912e-09
3.33577e-16
2.73312e-11
-3.51268e-09
3.05561e-16
2.19625e-11
-3.38398e-09
2.51271e-16
1.6346e-11
-3.17937e-09
1.87739e-16
1.07684e-11
-2.87844e-09
9.97217e-17
5.68233e-12
-2.4412e-09
2.10425e-17
1.77185e-12
-1.79333e-09
-5.36891e-17
-8.02841e-10
-8.12378e-17
8.35509e-16
-3.10735e-13
1.6683e-17
6.25075e-15
-2.00066e-12
6.74098e-17
2.05899e-14
-5.04986e-12
1.34935e-16
4.46386e-14
-9.36418e-12
-1.98392e-16
8.55638e-14
-1.49425e-11
-8.98834e-17
1.46531e-13
-2.18272e-11
-1.91651e-16
2.33512e-13
-3.00884e-11
2.50864e-16
3.46465e-13
-3.98155e-11
-9.6869e-17
4.97199e-13
-5.11126e-11
9.89495e-17
6.82959e-13
-6.40984e-11
-1.13697e-16
9.11754e-13
-7.88976e-11
-1.05526e-16
1.19192e-12
-9.56538e-11
2.4214e-16
1.5234e-12
-1.14534e-10
-5.35571e-17
1.91912e-12
-1.35683e-10
4.10569e-16
2.38054e-12
-1.59298e-10
3.84123e-16
2.91384e-12
-1.85546e-10
3.1942e-16
3.5276e-12
-2.14634e-10
4.94615e-16
4.2203e-12
-2.46772e-10
-2.47515e-16
5.00569e-12
-2.8218e-10
-1.2743e-16
5.89177e-12
-3.21074e-10
2.62354e-16
6.88161e-12
-3.63691e-10
1.96326e-16
7.98154e-12
-4.10302e-10
3.78237e-17
9.19774e-12
-4.61095e-10
-5.72847e-17
1.05355e-11
-5.16383e-10
-1.01456e-16
1.19989e-11
-5.76365e-10
-8.6379e-17
1.35909e-11
-6.41324e-10
-4.80777e-17
1.53127e-11
-7.11504e-10
4.54057e-18
1.71636e-11
-7.87064e-10
3.72643e-17
1.91409e-11
-8.68359e-10
7.33184e-17
2.12388e-11
-9.55428e-10
6.48251e-17
2.3449e-11
-1.04853e-09
5.82395e-17
2.57597e-11
-1.14778e-09
1.60417e-17
2.81555e-11
-1.25324e-09
-1.62552e-17
3.06163e-11
-1.36495e-09
-7.17721e-17
3.31179e-11
-1.48283e-09
-9.9446e-17
3.56309e-11
-1.60683e-09
-1.10353e-16
3.81211e-11
-1.73665e-09
-4.8231e-17
4.0549e-11
-1.87202e-09
2.47717e-17
4.28684e-11
-2.01241e-09
7.51545e-17
4.50289e-11
-2.15671e-09
1.23197e-16
4.69754e-11
-2.30528e-09
2.25556e-16
4.86491e-11
-2.4556e-09
3.16318e-16
4.99866e-11
-2.60765e-09
3.66006e-16
5.0924e-11
-2.75873e-09
3.77546e-16
5.13973e-11
-2.90667e-09
3.74837e-16
5.13443e-11
-3.05093e-09
3.62789e-16
5.07096e-11
-3.1859e-09
3.51447e-16
4.94444e-11
-3.30994e-09
3.70976e-16
4.75124e-11
-3.41761e-09
3.99919e-16
4.48927e-11
-3.50427e-09
4.19398e-16
4.15817e-11
-3.56485e-09
4.33268e-16
3.76014e-11
-3.59065e-09
4.28121e-16
3.29998e-11
-3.57451e-09
4.18421e-16
2.78569e-11
-3.50753e-09
3.87863e-16
2.22977e-11
-3.37841e-09
3.45393e-16
1.65148e-11
-3.17359e-09
2.80792e-16
1.08108e-11
-2.87273e-09
2.06575e-16
5.6529e-12
-2.43604e-09
1.35536e-16
1.73365e-12
-1.7894e-09
8.26053e-17
-8.01103e-10
6.03541e-17
7.72191e-16
-3.11338e-13
2.06805e-17
5.36461e-15
-2.00529e-12
-3.93128e-18
1.87771e-14
-5.06224e-12
1.29584e-16
4.2234e-14
-9.38806e-12
-4.29816e-17
8.23991e-14
-1.49824e-11
3.69997e-17
1.41658e-13
-2.18884e-11
-2.90413e-16
2.28962e-13
-3.01741e-11
2.57301e-16
3.44632e-13
-3.99313e-11
6.36397e-17
4.97114e-13
-5.12625e-11
2.84044e-16
6.83783e-13
-6.42865e-11
-1.95768e-16
9.17036e-13
-7.91309e-11
-4.54445e-17
1.20378e-12
-9.59382e-11
2.23481e-16
1.54464e-12
-1.14874e-10
-2.71526e-17
1.95304e-12
-1.36086e-10
5.60779e-16
2.42998e-12
-1.5977e-10
5.37999e-16
2.9825e-12
-1.86094e-10
5.90063e-16
3.61839e-12
-2.15264e-10
7.08011e-16
4.3373e-12
-2.47491e-10
7.27908e-17
5.15387e-12
-2.82995e-10
1.99255e-16
6.07428e-12
-3.21993e-10
1.57542e-16
7.10381e-12
-3.64721e-10
2.45187e-17
8.24827e-12
-4.11448e-10
-8.32465e-17
9.51411e-12
-4.62363e-10
-1.32333e-16
1.09068e-11
-5.17778e-10
-1.3749e-16
1.24307e-11
-5.77891e-10
-1.13007e-16
1.4089e-11
-6.42984e-10
-6.14455e-17
1.58829e-11
-7.13299e-10
-1.11347e-17
1.78114e-11
-7.88993e-10
2.94882e-17
1.98719e-11
-8.7042e-10
6.43391e-17
2.2058e-11
-9.57615e-10
6.56242e-17
2.43608e-11
-1.05083e-09
6.05245e-17
2.67678e-11
-1.15019e-09
2.7411e-17
2.92626e-11
-1.25574e-09
-5.49409e-18
3.18239e-11
-1.36751e-09
-5.5976e-17
3.44263e-11
-1.48544e-09
-8.67799e-17
3.70386e-11
-1.60945e-09
-9.18681e-17
3.9625e-11
-1.73924e-09
-2.84047e-17
4.21438e-11
-1.87454e-09
5.60003e-17
4.45466e-11
-2.01481e-09
1.0678e-16
4.67805e-11
-2.15895e-09
1.64614e-16
4.87881e-11
-2.30729e-09
2.69365e-16
5.05077e-11
-2.45732e-09
3.74557e-16
5.18733e-11
-2.60902e-09
4.21694e-16
5.28185e-11
-2.75967e-09
4.40797e-16
5.32765e-11
-2.90712e-09
4.28803e-16
5.31833e-11
-3.05084e-09
4.21022e-16
5.24816e-11
-3.18519e-09
4.01261e-16
5.11216e-11
-3.30857e-09
4.3231e-16
4.90665e-11
-3.41555e-09
4.51851e-16
4.62963e-11
-3.5015e-09
4.77628e-16
4.28096e-11
-3.56135e-09
4.83945e-16
3.86325e-11
-3.58646e-09
4.89792e-16
3.38196e-11
-3.56969e-09
4.76448e-16
2.8461e-11
-3.50216e-09
4.58939e-16
2.26951e-11
-3.37264e-09
4.15262e-16
1.67309e-11
-3.16762e-09
3.6478e-16
1.08873e-11
-2.86688e-09
2.93865e-16
5.64616e-12
-2.43079e-09
2.41968e-16
1.70657e-12
-1.78546e-09
1.99259e-16
-7.99389e-10
1.85917e-16
6.7655e-16
-3.11995e-13
2.86428e-18
5.92691e-15
-2.01e-12
6.52452e-17
1.96609e-14
-5.07525e-12
9.10831e-17
4.41683e-14
-9.41361e-12
-1.16332e-16
8.67357e-14
-1.50247e-11
4.68709e-17
1.47586e-13
-2.19512e-11
-2.13173e-16
2.34598e-13
-3.02616e-11
-9.51675e-17
3.50056e-13
-4.0049e-11
-4.76356e-16
5.04009e-13
-5.14156e-11
1.69748e-16
7.00284e-13
-6.44816e-11
1.81773e-16
9.38388e-13
-7.93722e-11
-3.95518e-16
1.23493e-12
-9.62311e-11
3.61766e-16
1.58559e-12
-1.15226e-10
-1.11174e-16
2.00692e-12
-1.36502e-10
5.81095e-16
2.49926e-12
-1.60257e-10
5.31653e-16
3.07088e-12
-1.8666e-10
5.89514e-16
3.72972e-12
-2.15916e-10
7.36678e-16
4.47669e-12
-2.48237e-10
1.35034e-16
5.32547e-12
-2.83842e-10
2.49582e-16
6.28346e-12
-3.22947e-10
4.58975e-16
7.35553e-12
-3.65789e-10
3.87322e-16
8.54819e-12
-4.12639e-10
2.17084e-16
9.8682e-12
-4.63682e-10
1.1806e-16
1.13211e-11
-5.19231e-10
3.6336e-17
1.29115e-11
-5.79482e-10
1.5733e-17
1.46424e-11
-6.44716e-10
1.24149e-17
1.65152e-11
-7.15173e-10
3.9007e-17
1.85289e-11
-7.91007e-10
5.07232e-17
2.06802e-11
-8.72571e-10
8.06739e-17
2.29626e-11
-9.59898e-10
7.10838e-17
2.53665e-11
-1.05324e-09
7.08979e-17
2.78786e-11
-1.1527e-09
3.3672e-17
3.04813e-11
-1.25834e-09
7.07106e-18
3.31522e-11
-1.37018e-09
-4.76834e-17
3.58642e-11
-1.48815e-09
-7.23273e-17
3.85846e-11
-1.61217e-09
-7.94756e-17
4.12754e-11
-1.74193e-09
-4.06143e-18
4.3893e-11
-1.87715e-09
8.33919e-17
4.63864e-11
-2.01731e-09
1.46729e-16
4.87e-11
-2.16126e-09
2.04259e-16
5.07737e-11
-2.30936e-09
3.23297e-16
5.25431e-11
-2.45908e-09
4.30203e-16
5.39391e-11
-2.61041e-09
4.87995e-16
5.48925e-11
-2.76062e-09
5.00251e-16
5.53341e-11
-2.90756e-09
4.92659e-16
5.51974e-11
-3.0507e-09
4.72796e-16
5.44233e-11
-3.18441e-09
4.55389e-16
5.29609e-11
-3.3071e-09
4.80412e-16
5.07732e-11
-3.41335e-09
5.01361e-16
4.7841e-11
-3.49856e-09
5.14695e-16
4.41652e-11
-3.55767e-09
5.28906e-16
3.97767e-11
-3.58207e-09
5.27917e-16
3.47369e-11
-3.56465e-09
5.26455e-16
2.91466e-11
-3.49657e-09
5.05428e-16
2.31581e-11
-3.36664e-09
4.75119e-16
1.69973e-11
-3.16145e-09
4.24431e-16
1.1e-11
-2.86087e-09
3.6931e-16
5.66283e-12
-2.42545e-09
3.23471e-16
1.69027e-12
-1.78148e-09
2.98122e-16
-7.97691e-10
2.8582e-16
8.00644e-16
-3.1259e-13
2.52262e-17
5.51772e-15
-2.01471e-12
1.254e-18
1.88234e-14
-5.08808e-12
5.87072e-17
4.34495e-14
-9.43867e-12
-4.58089e-17
8.59617e-14
-1.50664e-11
1.06673e-16
1.46199e-13
-2.20137e-11
-2.55349e-16
2.34995e-13
-3.03513e-11
-1.21656e-16
3.55807e-13
-4.01701e-11
-2.25581e-16
5.12868e-13
-5.15707e-11
3.47495e-16
7.12565e-13
-6.46802e-11
1.77189e-16
9.57234e-13
-7.96194e-11
-3.31449e-16
1.26314e-12
-9.65332e-11
3.97415e-16
1.62629e-12
-1.15589e-10
-3.82473e-17
2.06266e-12
-1.36933e-10
6.14469e-16
2.57361e-12
-1.60763e-10
5.79119e-16
3.16793e-12
-1.87248e-10
7.27292e-16
3.8533e-12
-2.16594e-10
8.49805e-16
4.63204e-12
-2.49013e-10
4.03656e-16
5.51759e-12
-2.84723e-10
4.76361e-16
6.51689e-12
-3.23944e-10
3.88297e-16
7.63644e-12
-3.66907e-10
2.62375e-16
8.88241e-12
-4.13885e-10
1.24885e-16
1.02619e-11
-4.65062e-10
5.11259e-17
1.17806e-11
-5.2075e-10
6.79986e-18
1.34435e-11
-5.81146e-10
-1.08749e-18
1.52536e-11
-6.46527e-10
1.42401e-17
1.72123e-11
-7.17132e-10
4.00836e-17
1.93184e-11
-7.93114e-10
5.84789e-17
2.15685e-11
-8.74822e-10
8.32836e-17
2.39555e-11
-9.62285e-10
7.91352e-17
2.6469e-11
-1.05575e-09
7.5412e-17
2.90948e-11
-1.15533e-09
4.42672e-17
3.18144e-11
-1.26106e-09
1.45126e-17
3.46038e-11
-1.37297e-09
-3.49913e-17
3.74344e-11
-1.49098e-09
-6.24441e-17
4.02716e-11
-1.61501e-09
-6.13316e-17
4.30753e-11
-1.74474e-09
1.67843e-17
4.57993e-11
-1.87988e-09
1.1871e-16
4.83904e-11
-2.0199e-09
1.84798e-16
5.07899e-11
-2.16366e-09
2.54461e-16
5.29347e-11
-2.3115e-09
3.74928e-16
5.47574e-11
-2.4609e-09
4.96672e-16
5.6186e-11
-2.61183e-09
5.50477e-16
5.71481e-11
-2.76157e-09
5.70496e-16
5.75719e-11
-2.90798e-09
5.50921e-16
5.73883e-11
-3.05051e-09
5.33537e-16
5.65364e-11
-3.18356e-09
5.01856e-16
5.49642e-11
-3.30553e-09
5.30611e-16
5.26344e-11
-3.41102e-09
5.31682e-16
4.95288e-11
-3.49545e-09
5.45813e-16
4.5651e-11
-3.55379e-09
5.46974e-16
4.10365e-11
-3.57745e-09
5.54564e-16
3.57546e-11
-3.55936e-09
5.45892e-16
2.99166e-11
-3.49072e-09
5.36872e-16
2.36895e-11
-3.36041e-09
5.03445e-16
1.73165e-11
-3.15506e-09
4.67007e-16
1.11506e-11
-2.8547e-09
4.13618e-16
5.7033e-12
-2.41999e-09
3.84319e-16
1.68439e-12
-1.77745e-09
3.62878e-16
-7.95997e-10
3.57261e-16
7.3409e-16
-3.13227e-13
1.22894e-17
6.05467e-15
-2.01941e-12
7.61353e-17
1.9658e-14
-5.10116e-12
6.4895e-17
4.52354e-14
-9.46457e-12
-3.71275e-17
8.91355e-14
-1.51095e-11
1.03867e-16
1.51813e-13
-2.20791e-11
-3.01993e-16
2.4393e-13
-3.04439e-11
-6.5819e-17
3.67246e-13
-4.02957e-11
-4.28737e-16