/*--------------------------------*- C++ -*----------------------------------*\
| =========                 |                                                 |
| \\      /  F ield         | OpenFOAM: The Open Source CFD Toolbox           |
|  \\    /   O peration     | Version:  v2012                                 |
|   \\  /    A nd           | Website:  www.openfoam.com                      |
|    \\/     M anipulation  |                                                 |
\*---------------------------------------------------------------------------*/
FoamFile
{
    version     2.0;
    format      ascii;
    class       surfaceScalarField;
    location    "0.05";
    object      phi;
}
// * * * * * * * * * * * * * * * * * * * * * * * * * * * * * * * * * * * * * //

dimensions      [0 3 -1 0 0 0 0];
oriented        oriented;


internalField   nonuniform List<scalar> 
8145
(
-1.64117e-08
6.6097e-08
8.43189e-16
-1.3766e-08
6.777e-08
4.34512e-16
-1.11153e-08
6.80095e-08
4.07565e-16
-8.51342e-09
6.64193e-08
3.34995e-16
-6.03414e-09
6.25211e-08
2.76973e-16
-3.77809e-09
5.57575e-08
2.67574e-16
-1.88373e-09
4.54644e-08
-3.24868e-17
-5.3947e-10
3.09786e-08
-9.36721e-17
1.16363e-08
-1.85583e-16
-2.3965e-08
5.28417e-08
1.14854e-15
-2.15479e-08
5.71462e-08
1.01052e-15
-1.90284e-08
6.07684e-08
8.25738e-16
-1.64309e-08
6.34996e-08
8.44111e-16
-1.3786e-08
6.5125e-08
4.34282e-16
-1.11336e-08
6.53572e-08
4.08577e-16
-8.52871e-09
6.38144e-08
3.38769e-16
-6.04575e-09
6.00382e-08
2.82965e-16
-3.78594e-09
5.34976e-08
2.77342e-16
-1.8881e-09
4.35665e-08
-2.12881e-17
-5.41011e-10
2.96315e-08
-8.18526e-17
1.10953e-08
-1.73065e-16
-8.51147e-09
-3.48288e-08
7.06221e-15
-1.01031e-08
-3.62251e-08
7.77976e-15
-1.18068e-08
-3.78392e-08
8.31721e-15
-1.35969e-08
-3.94694e-08
8.16779e-15
-1.54477e-08
-4.09673e-08
7.99776e-15
-1.73368e-08
-4.22526e-08
8.0053e-15
-1.92439e-08
-4.32762e-08
7.86948e-15
-2.11513e-08
-4.40035e-08
7.7437e-15
-2.30431e-08
-4.4422e-08
7.53129e-15
-2.49039e-08
-4.45136e-08
7.35349e-15
-2.67192e-08
-4.42689e-08
7.08245e-15
-2.84737e-08
-4.36743e-08
6.83656e-15
-3.01518e-08
-4.2711e-08
6.56169e-15
-3.17367e-08
-4.13712e-08
6.28159e-15
-3.32105e-08
-3.96308e-08
6.10628e-15
-3.45545e-08
-3.748e-08
5.7142e-15
-3.57503e-08
-3.49064e-08
5.38764e-15
-3.67789e-08
-3.19019e-08
5.05639e-15
-3.76224e-08
-2.84663e-08
4.76167e-15
-3.82644e-08
-2.46064e-08
4.48317e-15
-3.86905e-08
-2.03386e-08
4.20633e-15
-3.88893e-08
-1.5687e-08
3.93744e-15
-3.88535e-08
-1.06869e-08
3.6686e-15
-3.85783e-08
-5.3814e-09
3.40986e-15
-3.8064e-08
1.76965e-10
3.15503e-15
-3.73129e-08
5.92974e-09
2.91019e-15
-3.63318e-08
1.18115e-08
2.68966e-15
-3.51289e-08
1.77587e-08
2.48981e-15
-3.37153e-08
2.36955e-08
2.30859e-15
-3.21031e-08
2.9545e-08
2.14314e-15
-3.03039e-08
3.52524e-08
2.01009e-15
-2.83323e-08
4.07096e-08
1.98897e-15
-2.62016e-08
4.58522e-08
1.55644e-15
-2.39272e-08
5.05674e-08
1.11354e-15
-2.15264e-08
5.47453e-08
9.99297e-16
-1.90181e-08
5.82602e-08
8.36608e-16
-1.64279e-08
6.09093e-08
8.41358e-16
-1.37869e-08
6.2484e-08
4.30972e-16
-1.11364e-08
6.27066e-08
4.06909e-16
-8.53188e-09
6.12099e-08
3.40194e-16
-6.0486e-09
5.75549e-08
2.87492e-16
-3.78817e-09
5.12372e-08
2.86396e-16
-1.88961e-09
4.1668e-08
-9.06764e-18
-5.41712e-10
2.82836e-08
-6.76278e-17
1.05536e-08
-1.56485e-16
-7.82512e-09
-3.34203e-08
6.83975e-15
-9.37003e-09
-3.46802e-08
7.27162e-15
-1.10265e-08
-3.61827e-08
7.77265e-15
-1.27723e-08
-3.77236e-08
7.52243e-15
-1.45825e-08
-3.91571e-08
7.50377e-15
-1.64356e-08
-4.03995e-08
7.61558e-15
-1.8312e-08
-4.13998e-08
7.57505e-15
-2.01941e-08
-4.21214e-08
7.48328e-15
-2.20662e-08
-4.255e-08
7.29313e-15
-2.39129e-08
-4.26668e-08
7.12529e-15
-2.57196e-08
-4.24621e-08
6.8598e-15
-2.74713e-08
-4.19226e-08
6.61461e-15
-2.91521e-08
-4.10302e-08
6.34436e-15
-3.07456e-08
-3.97777e-08
6.06968e-15
-3.22341e-08
-3.81423e-08
5.8968e-15
-3.35992e-08
-3.61147e-08
5.56687e-15
-3.48226e-08
-3.3683e-08
5.22412e-15
-3.58854e-08
-3.0839e-08
4.89861e-15
-3.67698e-08
-2.7582e-08
4.61227e-15
-3.7459e-08
-2.39172e-08
4.34388e-15
-3.79383e-08
-1.98593e-08
4.07947e-15
-3.81955e-08
-1.54296e-08
3.82316e-15
-3.8222e-08
-1.06604e-08
3.56785e-15
-3.80119e-08
-5.59132e-09
3.32109e-15
-3.7564e-08
-2.71224e-10
3.0782e-15
-3.68786e-08
5.2446e-09
2.84601e-15
-3.59614e-08
1.08941e-08
2.63314e-15
-3.48188e-08
1.66162e-08
2.43931e-15
-3.34607e-08
2.23374e-08
2.26366e-15
-3.18983e-08
2.79825e-08
2.10373e-15
-3.01427e-08
3.34969e-08
1.97499e-15
-2.82081e-08
3.87749e-08
1.95326e-15
-2.61079e-08
4.37521e-08
1.5127e-15
-2.3858e-08
4.83176e-08
1.0693e-15
-2.14761e-08
5.23633e-08
9.75308e-16
-1.89821e-08
5.57662e-08
8.35051e-16
-1.64021e-08
5.83293e-08
8.33207e-16
-1.37685e-08
5.98504e-08
4.23533e-16
-1.11232e-08
6.00613e-08
4.00818e-16
-8.52256e-09
5.86093e-08
3.36982e-16
-6.04239e-09
5.50747e-08
2.87353e-16
-3.78458e-09
4.89794e-08
2.90352e-16
-1.88814e-09
3.97715e-08
-1.36848e-18
-5.41536e-10
2.6937e-08
-5.77465e-17
1.00121e-08
-1.43765e-16
-7.10086e-09
-3.20521e-08
6.22666e-15
-8.60322e-09
-3.31778e-08
6.7282e-15
-1.02165e-08
-3.45695e-08
7.45703e-15
-1.19217e-08
-3.60183e-08
7.45966e-15
-1.36948e-08
-3.7384e-08
7.43722e-15
-1.55155e-08
-3.85789e-08
7.44689e-15
-1.73642e-08
-3.9551e-08
7.36809e-15
-1.9224e-08
-4.02616e-08
7.24486e-15
-2.10789e-08
-4.06951e-08
7.05802e-15
-2.29137e-08
-4.08319e-08
6.90156e-15
-2.47138e-08
-4.0662e-08
6.64384e-15
-2.6464e-08
-4.01723e-08
6.39967e-15
-2.81487e-08
-3.93456e-08
6.13286e-15
-2.97514e-08
-3.81751e-08
5.85845e-15
-3.12546e-08
-3.66391e-08
5.67703e-15
-3.26403e-08
-3.47289e-08
5.41642e-15
-3.389e-08
-3.24332e-08
5.05714e-15
-3.49854e-08
-2.97437e-08
4.73732e-15
-3.59083e-08
-2.6659e-08
4.45915e-15
-3.66421e-08
-2.31836e-08
4.20022e-15
-3.71714e-08
-1.93299e-08
3.9467e-15
-3.74835e-08
-1.51174e-08
3.702e-15
-3.75688e-08
-1.05751e-08
3.4587e-15
-3.74203e-08
-5.73965e-09
3.22339e-15
-3.70354e-08
-6.56414e-10
2.99176e-15
-3.6413e-08
4.62244e-09
2.77061e-15
-3.55572e-08
1.00383e-08
2.56618e-15
-3.44732e-08
1.55323e-08
2.37911e-15
-3.31697e-08
2.10338e-08
2.20979e-15
-3.16569e-08
2.64696e-08
2.05577e-15
-2.99452e-08
3.17854e-08
1.93213e-15
-2.80487e-08
3.68783e-08
1.90944e-15
-2.59807e-08
4.16841e-08
1.46523e-15
-2.37573e-08
4.60943e-08
1.01919e-15
-2.13969e-08
5.00028e-08
9.4471e-16
-1.89199e-08
5.32892e-08
8.25017e-16
-1.63533e-08
5.57627e-08
8.22832e-16
-1.37303e-08
5.72273e-08
4.15243e-16
-1.10936e-08
5.74247e-08
3.93916e-16
-8.5004e-09
5.60161e-08
3.32568e-16
-6.0268e-09
5.26011e-08
2.85737e-16
-3.77495e-09
4.67275e-08
2.92203e-16
-1.88357e-09
3.78801e-08
4.11559e-18
-5.40443e-10
2.55939e-08
-5.0558e-17
9.47161e-09
-1.34355e-16
-6.34896e-09
-3.07175e-08
6.1743e-15
-7.81222e-09
-3.17145e-08
6.16329e-15
-9.38589e-09
-3.29958e-08
6.93206e-15
-1.10537e-08
-3.43505e-08
6.93505e-15
-1.27927e-08
-3.56449e-08
6.98624e-15
-1.45837e-08
-3.6788e-08
7.06821e-15
-1.64075e-08
-3.77271e-08
7.06015e-15
-1.82474e-08
-3.84218e-08
6.97596e-15
-2.00873e-08
-3.88551e-08
6.81801e-15
-2.19122e-08
-3.9007e-08
6.6831e-15
-2.37072e-08
-3.8867e-08
6.43139e-15
-2.5457e-08
-3.84224e-08
6.18903e-15
-2.71461e-08
-3.76565e-08
5.92399e-15
-2.87582e-08
-3.6563e-08
5.64896e-15
-3.02759e-08
-3.51215e-08
5.43887e-15
-3.16811e-08
-3.33236e-08
5.23914e-15
-3.29558e-08
-3.11583e-08
4.88689e-15
-3.40817e-08
-2.86178e-08
4.57771e-15
-3.50408e-08
-2.57e-08
4.3076e-15
-3.58161e-08
-2.24084e-08
4.05773e-15
-3.63921e-08
-1.87539e-08
3.81393e-15
-3.67555e-08
-1.47538e-08
3.57991e-15
-3.6896e-08
-1.04346e-08
3.34748e-15
-3.68055e-08
-5.83001e-09
3.12286e-15
-3.64801e-08
-9.82004e-10
2.90185e-15
-3.59177e-08
4.06023e-09
2.69064e-15
-3.51209e-08
9.24139e-09
2.49444e-15
-3.40936e-08
1.45051e-08
2.31372e-15
-3.28434e-08
1.97836e-08
2.15057e-15
-3.13797e-08
2.50057e-08
2.00218e-15
-2.97121e-08
3.01181e-08
1.88356e-15
-2.78545e-08
3.50206e-08
1.86132e-15
-2.582e-08
3.96497e-08
1.41435e-15
-2.36251e-08
4.38995e-08
9.73239e-16
-2.12885e-08
4.76661e-08
9.13849e-16
-1.88312e-08
5.0832e-08
8.10727e-16
-1.62811e-08
5.32126e-08
8.1134e-16
-1.36719e-08
5.46182e-08
4.06998e-16
-1.10473e-08
5.48001e-08
3.8725e-16
-8.46502e-09
5.34338e-08
3.28339e-16
-6.00156e-09
5.01377e-08
2.84183e-16
-3.75908e-09
4.4485e-08
2.93743e-16
-1.87577e-09
3.59968e-08
9.36882e-18
-5.38392e-10
2.42565e-08
-4.37987e-17
8.93322e-09
-1.25846e-16
-5.58066e-09
-2.94118e-08
5.36145e-15
-7.00714e-09
-3.02881e-08
5.53242e-15
-8.54397e-09
-3.1459e-08
6.51121e-15
-1.01766e-08
-3.27179e-08
6.67102e-15
-1.18841e-08
-3.39374e-08
6.75013e-15
-1.36477e-08
-3.50243e-08
6.81214e-15
-1.54489e-08
-3.59259e-08
6.81248e-15
-1.72709e-08
-3.65998e-08
6.73198e-15
-1.90977e-08
-3.70283e-08
6.59531e-15
-2.09141e-08
-3.71907e-08
6.4654e-15
-2.2705e-08
-3.70761e-08
6.21827e-15
-2.44552e-08
-3.66721e-08
5.97662e-15
-2.6149e-08
-3.59627e-08
5.71662e-15
-2.77702e-08
-3.49419e-08
5.44677e-15
-2.93015e-08
-3.35903e-08
5.21944e-15
-3.07251e-08
-3.18999e-08
5.06417e-15
-3.2023e-08
-2.98603e-08
4.72017e-15
-3.31772e-08
-2.74636e-08
4.42163e-15
-3.41696e-08
-2.47076e-08
4.15931e-15
-3.49833e-08
-2.15947e-08
3.91778e-15
-3.56025e-08
-1.81347e-08
3.68281e-15
-3.60136e-08
-1.43426e-08
3.45854e-15
-3.62054e-08
-1.02428e-08
3.23611e-15
-3.61691e-08
-5.86614e-09
3.02155e-15
-3.58998e-08
-1.25152e-09
2.81065e-15
-3.53942e-08
3.5548e-09
2.60906e-15
-3.46537e-08
8.50077e-09
2.42107e-15
-3.3681e-08
1.35326e-08
2.24698e-15
-3.24827e-08
1.85853e-08
2.09023e-15
-3.10672e-08
2.35901e-08
1.94764e-15
-2.94438e-08
2.84948e-08
1.83427e-15
-2.76256e-08
3.32024e-08
1.81238e-15
-2.5626e-08
3.76501e-08
1.36672e-15
-2.34613e-08
4.17349e-08
9.30536e-16
-2.11507e-08
4.53554e-08
8.83913e-16
-1.87158e-08
4.83972e-08
7.95007e-16
-1.6185e-08
5.06818e-08
7.9784e-16
-1.3593e-08
5.20262e-08
3.97832e-16
-1.09839e-08
5.21911e-08
3.79923e-16
-8.41607e-09
5.0866e-08
3.23519e-16
-5.96636e-09
4.7688e-08
2.82049e-16
-3.73673e-09
4.22554e-08
2.94493e-16
-1.86462e-09
3.41247e-08
1.40186e-17
-5.35338e-10
2.29272e-08
-3.7655e-17
8.39787e-09
-1.18197e-16
-4.80554e-09
-2.81333e-08
5.06014e-15
-6.19682e-09
-2.88968e-08
5.15024e-15
-7.69879e-09
-2.9957e-08
6.17151e-15
-9.29814e-09
-3.11185e-08
6.43372e-15
-1.09762e-08
-3.22593e-08
6.5675e-15
-1.27147e-08
-3.32859e-08
6.61631e-15
-1.44953e-08
-3.41452e-08
6.59685e-15
-1.63012e-08
-3.47939e-08
6.50611e-15
-1.81163e-08
-3.52131e-08
6.36675e-15
-1.99252e-08
-3.53817e-08
6.25282e-15
-2.17128e-08
-3.52886e-08
6.01061e-15
-2.34635e-08
-3.49213e-08
5.77124e-15
-2.51618e-08
-3.42645e-08
5.51554e-15
-2.67913e-08
-3.33124e-08
5.25231e-15
-2.83351e-08
-3.20466e-08
5.02628e-15
-2.97753e-08
-3.04595e-08
4.90853e-15
-3.10944e-08
-2.85412e-08
4.56318e-15
-3.22742e-08
-2.62838e-08
4.27057e-15
-3.3297e-08
-2.36849e-08
4.01458e-15
-3.41457e-08
-2.07461e-08
3.78071e-15
-3.48045e-08
-1.74758e-08
3.55351e-15
-3.52593e-08
-1.38877e-08
3.33809e-15
-3.54985e-08
-1.00036e-08
3.12466e-15
-3.55126e-08
-5.85188e-09
2.91946e-15
-3.52958e-08
-1.46861e-09
2.71808e-15
-3.48436e-08
3.10285e-09
2.52571e-15
-3.41566e-08
7.8136e-09
2.34581e-15
-3.32363e-08
1.26124e-08
2.1785e-15
-3.20882e-08
1.74372e-08
2.02827e-15
-3.07202e-08
2.22219e-08
1.8916e-15
-2.91405e-08
2.69154e-08
1.78357e-15
-2.73623e-08
3.14241e-08
1.76316e-15
-2.53985e-08
3.56864e-08
1.32074e-15
-2.32657e-08
3.96021e-08
8.91704e-16
-2.09832e-08
4.30728e-08
8.55183e-16
-1.85732e-08
4.59873e-08
7.77119e-16
-1.60648e-08
4.81733e-08
7.83953e-16
-1.3493e-08
4.94544e-08
3.89019e-16
-1.09029e-08
4.9601e-08
3.73196e-16
-8.35319e-09
4.83162e-08
3.1936e-16
-5.92089e-09
4.52557e-08
2.80494e-16
-3.70768e-09
4.00422e-08
2.95526e-16
-1.84999e-09
3.2267e-08
1.91256e-17
-5.31236e-10
2.16085e-08
-3.10277e-17
7.86664e-09
-1.10128e-16
-4.03003e-09
-2.68817e-08
5.18702e-15
-5.38776e-09
-2.75391e-08
5.02081e-15
-6.8568e-09
-2.8488e-08
5.83459e-15
-8.42512e-09
-2.95502e-08
6.12253e-15
-1.0076e-08
-3.06084e-08
6.29172e-15
-1.17914e-08
-3.15706e-08
6.36497e-15
-1.35533e-08
-3.23833e-08
6.3732e-15
-1.53446e-08
-3.30026e-08
6.29404e-15
-1.71492e-08
-3.34085e-08
6.16433e-15
-1.89513e-08
-3.35796e-08
6.04381e-15
-2.07357e-08
-3.35043e-08
5.80122e-15
-2.24867e-08
-3.31701e-08
5.56053e-15
-2.41887e-08
-3.25625e-08
5.31093e-15
-2.58255e-08
-3.16757e-08
5.05375e-15
-2.738e-08
-3.04921e-08
4.83345e-15
-2.88348e-08
-2.90045e-08
4.76444e-15
-3.01724e-08
-2.72035e-08
4.413e-15
-3.1375e-08
-2.50813e-08
4.12449e-15
-3.24247e-08
-2.26351e-08
3.87405e-15
-3.33049e-08
-1.9866e-08
3.64694e-15
-3.39994e-08
-1.67813e-08
3.42652e-15
-3.44939e-08
-1.3393e-08
3.21889e-15
-3.47766e-08
-9.72095e-09
3.01355e-15
-3.48371e-08
-5.7912e-09
2.81693e-15
-3.46689e-08
-1.63701e-09
2.62446e-15
-3.42669e-08
2.70098e-09
2.44086e-15
-3.36303e-08
7.17695e-09
2.26892e-15
-3.276e-08
1.17422e-08
2.1085e-15
-3.16605e-08
1.63377e-08
1.9649e-15
-3.03387e-08
2.09e-08
1.83429e-15
-2.88026e-08
2.53794e-08
1.73189e-15
-2.70646e-08
2.96859e-08
1.71326e-15
-2.51375e-08
3.37593e-08
1.27676e-15
-2.3038e-08
3.75027e-08
8.55999e-16
-2.07857e-08
4.08204e-08
8.28017e-16
-1.84031e-08
4.36048e-08
7.59498e-16
-1.59199e-08
4.569e-08
7.68137e-16
-1.33717e-08
4.69062e-08
3.79257e-16
-1.0804e-08
4.70333e-08
3.65724e-16
-8.27602e-09
4.57883e-08
3.14564e-16
-5.86486e-09
4.28445e-08
2.78335e-16
-3.67172e-09
3.7849e-08
2.95794e-16
-1.83174e-09
3.0427e-08
2.38184e-17
-5.2604e-10
2.03028e-08
-2.46675e-17
7.34059e-09
-1.02314e-16
-3.25592e-09
-2.56564e-08
5.28092e-15
-4.58329e-09
-2.62117e-08
4.97921e-15
-6.0225e-09
-2.70488e-08
5.78618e-15
-7.56299e-09
-2.80097e-08
5.95813e-15
-9.18958e-09
-2.89818e-08
6.12935e-15
-1.08843e-08
-2.98759e-08
6.18942e-15
-1.26294e-08
-3.06382e-08
6.17113e-15
-1.44075e-08
-3.12244e-08
6.07354e-15
-1.62023e-08
-3.16137e-08
5.93605e-15
-1.7998e-08
-3.17839e-08
5.81973e-15
-1.97788e-08
-3.17234e-08
5.58746e-15
-2.15294e-08
-3.14195e-08
5.35472e-15
-2.32338e-08
-3.08581e-08
5.11459e-15
-2.48761e-08
-3.00335e-08
4.86382e-15
-2.64393e-08
-2.89289e-08
4.65385e-15
-2.79061e-08
-2.75376e-08
4.62632e-15
-2.92593e-08
-2.58502e-08
4.26996e-15
-3.04813e-08
-2.38593e-08
3.98394e-15
-3.15545e-08
-2.15619e-08
3.73788e-15
-3.24622e-08
-1.89584e-08
3.51666e-15
-3.31883e-08
-1.60552e-08
3.30201e-15
-3.37184e-08
-1.28627e-08
3.10128e-15
-3.40403e-08
-9.3991e-09
2.90315e-15
-3.41432e-08
-5.68814e-09
2.71441e-15
-3.40199e-08
-1.76054e-09
2.53022e-15
-3.36645e-08
2.34573e-09
2.35496e-15
-3.30754e-08
6.58778e-09
2.19083e-15
-3.22526e-08
1.09195e-08
2.0374e-15
-3.11998e-08
1.52849e-08
1.90053e-15
-2.99231e-08
1.96232e-08
1.77612e-15
-2.84299e-08
2.38864e-08
1.67945e-15
-2.67323e-08
2.79882e-08
1.66339e-15
-2.48428e-08
3.18699e-08
1.23453e-15
-2.27781e-08
3.54381e-08
8.23231e-16
-2.05579e-08
3.86002e-08
8.01972e-16
-1.82052e-08
4.12521e-08
7.40054e-16
-1.57499e-08
4.32347e-08
7.52547e-16
-1.32285e-08
4.43848e-08
3.70061e-16
-1.06867e-08
4.44916e-08
3.58963e-16
-8.18419e-09
4.32857e-08
3.10492e-16
-5.79797e-09
4.04583e-08
2.7677e-16
-3.62863e-09
3.56797e-08
2.96354e-16
-1.80974e-09
2.86081e-08
2.90865e-17
-5.19698e-10
1.90127e-08
-1.7704e-17
6.82089e-09
-9.37562e-17
-2.48069e-09
-2.4452e-08
5.26489e-15
-3.78412e-09
-2.49083e-08
4.89935e-15
-5.19903e-09
-2.56339e-08
5.55465e-15
-6.71654e-09
-2.64922e-08
5.72413e-15
-8.32266e-09
-2.73757e-08
5.90957e-15
-9.99965e-09
-2.81989e-08
5.98842e-15
-1.17299e-08
-2.89079e-08
5.99018e-15
-1.34961e-08
-2.94583e-08
5.89741e-15
-1.52817e-08
-2.98281e-08
5.75049e-15
-1.70705e-08
-2.99951e-08
5.61998e-15
-1.88471e-08
-2.99468e-08
5.38295e-15
-2.05958e-08
-2.96708e-08
5.1471e-15
-2.23009e-08
-2.91531e-08
4.91517e-15
-2.39464e-08
-2.83881e-08
4.67536e-15
-2.55155e-08
-2.73598e-08
4.49486e-15
-2.69913e-08
-2.60617e-08
4.492e-15
-2.83568e-08
-2.44847e-08
4.13131e-15
-2.95945e-08
-2.26216e-08
3.84812e-15
-3.06872e-08
-2.04692e-08
3.60602e-15
-3.16183e-08
-1.80274e-08
3.38984e-15
-3.23719e-08
-1.53016e-08
3.18012e-15
-3.29333e-08
-1.23011e-08
2.98543e-15
-3.32902e-08
-9.04228e-09
2.79378e-15
-3.34313e-08
-5.54684e-09
2.61227e-15
-3.3349e-08
-1.84309e-09
2.43583e-15
-3.30366e-08
2.03354e-09
2.26848e-15
-3.24919e-08
6.04301e-09
2.11201e-15
-3.17141e-08
1.01418e-08
1.9656e-15
-3.0706e-08
1.42768e-08
1.83551e-15
-2.94732e-08
1.83902e-08
1.71739e-15
-2.80224e-08
2.24358e-08
1.6266e-15
-2.63652e-08
2.63309e-08
1.61351e-15
-2.4514e-08
3.00188e-08
1.19359e-15
-2.24854e-08
3.34096e-08
7.92871e-16
-2.02993e-08
3.6414e-08
7.77204e-16
-1.79789e-08
3.89318e-08
7.2177e-16
-1.55545e-08
4.08103e-08
7.35162e-16
-1.3063e-08
4.18933e-08
3.59934e-16
-1.05507e-08
4.19793e-08
3.51283e-16
-8.07736e-09
4.08124e-08
3.05539e-16
-5.71991e-09
3.81008e-08
2.74323e-16
-3.57816e-09
3.35379e-08
2.95871e-16
-1.78385e-09
2.68138e-08
3.37779e-17
-5.12159e-10
1.7741e-08
-1.11929e-17
6.30873e-09
-8.56172e-17
-1.70078e-09
-2.32572e-08
5.33996e-15
-2.99078e-09
-2.36183e-08
4.88633e-15
-4.38981e-09
-2.42348e-08
5.40434e-15
-5.89099e-09
-2.4991e-08
5.54924e-15
-7.48143e-09
-2.57852e-08
5.69977e-15
-9.14403e-09
-2.65363e-08
5.73477e-15
-1.08615e-08
-2.71904e-08
5.71671e-15
-1.26166e-08
-2.77032e-08
5.62839e-15
-1.43929e-08
-2.80518e-08
5.49362e-15
-1.61742e-08
-2.82137e-08
5.38193e-15
-1.79451e-08
-2.81759e-08
5.16461e-15
-1.969e-08
-2.79258e-08
4.94265e-15
-2.13933e-08
-2.74498e-08
4.72668e-15
-2.30391e-08
-2.67423e-08
4.50366e-15
-2.4611e-08
-2.57879e-08
4.34553e-15
-2.60923e-08
-2.45803e-08
4.35877e-15
-2.74662e-08
-2.31108e-08
3.99953e-15
-2.87156e-08
-2.13722e-08
3.71812e-15
-2.98236e-08
-1.93611e-08
3.47837e-15
-3.07739e-08
-1.70773e-08
3.26631e-15
-3.15504e-08
-1.45251e-08
3.06073e-15
-3.21387e-08
-1.17127e-08
2.87142e-15
-3.25261e-08
-8.65487e-09
2.68564e-15
-3.27013e-08
-5.3715e-09
2.51086e-15
-3.2656e-08
-1.88859e-09
2.3417e-15
-3.23831e-08
1.76086e-09
2.1819e-15
-3.18798e-08
5.53954e-09
2.0329e-15
-3.11443e-08
9.40648e-09
1.89351e-15
-3.0179e-08
1.33115e-08
1.77022e-15
-2.89888e-08
1.71998e-08
1.65843e-15
-2.75797e-08
2.10269e-08
1.57348e-15
-2.5963e-08
2.47141e-08
1.56352e-15
-2.41508e-08
2.82067e-08
1.15437e-15
-2.21597e-08
3.14185e-08
7.6411e-16
-2.00096e-08
3.42638e-08
7.53168e-16
-1.77238e-08
3.66461e-08
7.01767e-16
-1.53332e-08
3.84197e-08
7.18701e-16
-1.28749e-08
3.94349e-08
3.50673e-16
-1.03956e-08
3.95e-08
3.44437e-16
-7.95517e-09
3.8372e-08
3.01333e-16
-5.63041e-09
3.57761e-08
2.72436e-16
-3.52011e-09
3.14276e-08
2.95614e-16
-1.75393e-09
2.50476e-08
3.9001e-17
-5.0337e-10
1.64905e-08
-4.18391e-18
5.80536e-09
-7.6756e-17
-9.16466e-10
-2.20548e-08
5.51001e-15
-2.207e-09
-2.23277e-08
4.94664e-15
-3.60077e-09
-2.2841e-08
5.22949e-15
-5.09335e-09
-2.34984e-08
5.43503e-15
-6.67334e-09
-2.42052e-08
5.61785e-15
-8.32476e-09
-2.48849e-08
5.64518e-15
-1.00311e-08
-2.54841e-08
5.6209e-15
-1.17754e-08
-2.59588e-08
5.51372e-15
-1.35417e-08
-2.62856e-08
5.34829e-15
-1.53141e-08
-2.64413e-08
5.20433e-15
-1.70771e-08
-2.64128e-08
4.97184e-15
-1.88155e-08
-2.61874e-08
4.74317e-15
-2.05138e-08
-2.57515e-08
4.53741e-15
-2.21565e-08
-2.50996e-08
4.33286e-15
-2.37274e-08
-2.42171e-08
4.1983e-15
-2.52101e-08
-2.30975e-08
4.21857e-15
-2.65883e-08
-2.17326e-08
3.87255e-15
-2.78451e-08
-2.01153e-08
3.59216e-15
-2.89639e-08
-1.82423e-08
3.3541e-15
-2.99287e-08
-1.61126e-08
3.14552e-15
-3.07235e-08
-1.37301e-08
2.94363e-15
-3.13342e-08
-1.11019e-08
2.7592e-15
-3.17478e-08
-8.24129e-09
2.57891e-15
-3.19528e-08
-5.16634e-09
2.41044e-15
-3.19406e-08
-1.901e-09
2.24822e-15
-3.17037e-08
1.5241e-09
2.09567e-15
-3.12385e-08
5.07426e-09
1.95396e-15
-3.05429e-08
8.71097e-09
1.82154e-15
-2.96184e-08
1.23871e-08
1.705e-15
-2.84693e-08
1.60506e-08
1.59951e-15
-2.71013e-08
1.96591e-08
1.52035e-15
-2.55252e-08
2.31379e-08
1.51397e-15
-2.37528e-08
2.64343e-08
1.11554e-15
-2.18004e-08
2.94662e-08
7.37218e-16
-1.96881e-08
3.21514e-08
7.30156e-16
-1.74395e-08
3.43975e-08
6.83637e-16
-1.50855e-08
3.60657e-08
7.00627e-16
-1.26637e-08
3.70131e-08
3.40582e-16
-1.02209e-08
3.70573e-08
3.36595e-16
-7.8173e-09
3.59683e-08
2.96083e-16
-5.52917e-09
3.34879e-08
2.69458e-16
-3.45425e-09
2.93527e-08
2.94104e-16
-1.71984e-09
2.33132e-08
4.34252e-17
-4.93275e-10
1.52639e-08
2.12812e-18
5.31208e-09
-6.85661e-17
-1.37433e-10
-2.08252e-08
5.28955e-15
-1.44325e-09
-2.10219e-08
4.84373e-15
-2.84245e-09
-2.14418e-08
4.99628e-15
-4.33368e-09
-2.20072e-08
5.27547e-15
-5.9077e-09
-2.26312e-08
5.44464e-15
-7.55025e-09
-2.32424e-08
5.41343e-15
-9.24602e-09
-2.37883e-08
5.34512e-15
-1.0979e-08
-2.42259e-08
5.23002e-15
-1.27336e-08
-2.45309e-08
5.08192e-15
-1.44946e-08
-2.46804e-08
4.96371e-15
-1.62468e-08
-2.46606e-08
4.75727e-15
-1.79752e-08
-2.44589e-08
4.54751e-15
-1.96648e-08
-2.4062e-08
4.36006e-15
-2.13003e-08
-2.34642e-08
4.17256e-15
-2.28659e-08
-2.26515e-08
4.02578e-15
-2.43456e-08
-2.16177e-08
4.08281e-15
-2.57234e-08
-2.03548e-08
3.75047e-15
-2.69829e-08
-1.88559e-08
3.46965e-15
-2.81077e-08
-1.71174e-08
3.23236e-15
-2.90822e-08
-1.51383e-08
3.02685e-15
-2.98907e-08
-1.29216e-08
2.82844e-15
-3.0519e-08
-1.04735e-08
2.64865e-15
-3.09543e-08
-7.80601e-09
2.47362e-15
-3.11849e-08
-4.93561e-09
2.31125e-15
-3.12019e-08
-1.88423e-09
2.15572e-15
-3.09973e-08
1.31974e-09
2.01018e-15
-3.05673e-08
4.64408e-09
1.87559e-15
-2.9909e-08
8.05276e-09
1.75005e-15
-2.90234e-08
1.15015e-08
1.64017e-15
-2.79142e-08
1.49413e-08
1.54092e-15
-2.65867e-08
1.83318e-08
1.46739e-15
-2.50512e-08
2.16023e-08
1.46418e-15
-2.33192e-08
2.47024e-08
1.07853e-15
-2.1407e-08
2.75541e-08
7.10835e-16
-1.93345e-08
3.00788e-08
7.0754e-16
-1.71255e-08
3.21886e-08
6.63789e-16
-1.4811e-08
3.37512e-08
6.84025e-16
-1.2429e-08
3.4631e-08
3.31639e-16
-1.00264e-08
3.46548e-08
3.29718e-16
-7.66342e-09
3.36053e-08
2.91625e-16
-5.41593e-09
3.12404e-08
2.67036e-16
-3.38039e-09
2.73171e-08
2.92781e-16
-1.68144e-09
2.16142e-08
4.8253e-17
-4.81818e-10
1.40643e-08
8.78421e-18
4.83026e-09
-5.97486e-17
6.1417e-10
-1.95522e-08
6.14521e-15
-7.18439e-10
-1.96893e-08
5.24896e-15
-2.13089e-09
-2.00294e-08
4.86154e-15
-3.6255e-09
-2.05126e-08
5.1398e-15
-5.19581e-09
-2.10609e-08
5.33947e-15
-6.82992e-09
-2.16083e-08
5.31407e-15
-8.51411e-09
-2.21041e-08
5.24455e-15
-1.02336e-08
-2.25064e-08
5.10995e-15
-1.19738e-08
-2.27908e-08
4.93469e-15
-1.37198e-08
-2.29343e-08
4.80234e-15
-1.54573e-08
-2.29231e-08
4.57267e-15
-1.71715e-08
-2.27446e-08
4.3599e-15
-1.88479e-08
-2.23857e-08
4.18116e-15
-2.04714e-08
-2.18406e-08
4.0043e-15
-2.20269e-08
-2.1096e-08
3.84411e-15
-2.34986e-08
-2.01459e-08
3.9447e-15
-2.4871e-08
-1.89823e-08
3.62281e-15
-2.61282e-08
-1.75987e-08
3.34564e-15
-2.72541e-08
-1.59915e-08
3.11111e-15
-2.82334e-08
-1.41591e-08
2.9093e-15
-2.90507e-08
-1.21042e-08
2.71468e-15
-2.9692e-08
-9.83205e-09
2.53956e-15
-3.01445e-08
-7.35353e-09
2.36982e-15
-3.03965e-08
-4.68353e-09
2.21344e-15
-3.04387e-08
-1.84217e-09
2.06445e-15
-3.02631e-08
1.14429e-09
1.92575e-15
-2.98652e-08
4.24602e-09
1.79812e-15
-2.92417e-08
7.42938e-09
1.67936e-15
-2.83931e-08
1.0653e-08
1.57602e-15
-2.73227e-08
1.38707e-08
1.48285e-15
-2.60351e-08
1.70443e-08
1.41475e-15
-2.45403e-08
2.01074e-08
1.41533e-15
-2.28495e-08
2.30118e-08
1.0412e-15
-2.09789e-08
2.56835e-08
6.86085e-16
-1.89481e-08
2.80481e-08
6.85772e-16
-1.67812e-08
3.00217e-08
6.46269e-16
-1.45093e-08
3.14793e-08
6.65885e-16
-1.21704e-08
3.2292e-08
3.21965e-16
-9.81169e-09
3.22961e-08
3.21832e-16
-7.49326e-09
3.12869e-08
2.86046e-16
-5.29045e-09
2.90376e-08
2.63418e-16
-3.29832e-09
2.5325e-08
2.9009e-16
-1.63861e-09
1.99545e-08
5.20812e-17
-4.68944e-10
1.28947e-08
1.45533e-17
4.36132e-09
-5.18118e-17
1.30531e-09
-1.82279e-08
6.14247e-15
-5.86642e-11
-1.83254e-08
5.36986e-15
-1.48653e-09
-1.86015e-08
4.84881e-15
-2.9848e-09
-1.90143e-08
5.21594e-15
-4.55021e-09
-1.94955e-08
5.33812e-15
-6.17353e-09
-1.9985e-08
5.19419e-15
-7.84296e-09
-2.04346e-08
5.05076e-15
-9.54516e-09
-2.08042e-08
4.89072e-15
-1.12665e-08
-2.10694e-08
4.71828e-15
-1.2993e-08
-2.12078e-08
4.59116e-15
-1.47108e-08
-2.12053e-08
4.38879e-15
-1.64058e-08
-2.10495e-08
4.18774e-15
-1.80636e-08
-2.07278e-08
4.01747e-15
-1.967e-08
-2.02342e-08
3.84448e-15
-2.121e-08
-1.95561e-08
3.67703e-15
-2.26685e-08
-1.86873e-08
3.79708e-15
-2.40302e-08
-1.76205e-08
3.48629e-15
-2.52797e-08
-1.63492e-08
3.21813e-15
-2.64016e-08
-1.48696e-08
2.98917e-15
-2.73806e-08
-1.31802e-08
2.79212e-15
-2.82019e-08
-1.12828e-08
2.6019e-15
-2.88515e-08
-9.18233e-09
2.43174e-15
-2.93168e-08
-6.88828e-09
2.26745e-15
-2.95859e-08
-4.41425e-09
2.1171e-15
-2.96497e-08
-1.77862e-09
1.97461e-15
-2.94996e-08
9.94371e-10
1.84265e-15
-2.91308e-08
3.87717e-09
1.72183e-15
-2.85398e-08
6.83848e-09
1.60972e-15
-2.77265e-08
9.83968e-09
1.51274e-15
-2.66936e-08
1.28377e-08
1.42549e-15
-2.54455e-08
1.57964e-08
1.36259e-15
-2.39916e-08
1.86534e-08
1.36613e-15
-2.23429e-08
2.13631e-08
1.00595e-15
-2.05153e-08
2.38559e-08
6.61267e-16
-1.85284e-08
2.60611e-08
6.6418e-16
-1.64062e-08
2.78995e-08
6.26917e-16
-1.41799e-08
2.92529e-08
6.49535e-16
-1.18875e-08
2.99997e-08
3.13615e-16
-9.57647e-09
2.99851e-08
3.15007e-16
-7.30655e-09
2.9017e-08
2.81299e-16
-5.15253e-09
2.68836e-08
2.60362e-16
-3.20788e-09
2.33804e-08
2.87578e-16
-1.59122e-09
1.83378e-08
5.62064e-17
-4.54597e-10
1.1758e-08
2.05357e-17
3.90672e-09
-4.33359e-17
1.89666e-09
-1.6857e-08
6.41358e-15
5.06399e-10
-1.69351e-08
5.50422e-15
-9.31539e-10
-1.71636e-08
4.85324e-15
-2.42813e-09
-1.75177e-08
5.15315e-15
-3.98318e-09
-1.79404e-08
5.27196e-15
-5.59018e-09
-1.8378e-08
5.11549e-15
-7.23923e-09
-1.87855e-08
4.95501e-15
-8.91842e-09
-1.9125e-08
4.76806e-15
-1.06152e-08
-1.93727e-08
4.57245e-15
-1.23163e-08
-1.95066e-08
4.42545e-15
-1.40086e-08
-1.95131e-08
4.22229e-15
-1.56784e-08
-1.93797e-08
4.02115e-15
-1.73119e-08
-1.90943e-08
3.85218e-15
-1.88953e-08
-1.86509e-08
3.67951e-15
-2.04141e-08
-1.80373e-08
3.54044e-15
-2.18535e-08
-1.72478e-08
3.6262e-15
-2.3199e-08
-1.6275e-08
3.33654e-15
-2.44355e-08
-1.51127e-08
3.08481e-15
-2.5548e-08
-1.37571e-08
2.86529e-15
-2.65217e-08
-1.22065e-08
2.67462e-15
-2.73421e-08
-1.04625e-08
2.48976e-15
-2.79953e-08
-8.52895e-09
2.32501e-15
-2.8469e-08
-6.41464e-09
2.16649e-15
-2.87513e-08
-4.13182e-09
2.02231e-15
-2.88328e-08
-1.69726e-09
1.88634e-15
-2.8705e-08
8.66735e-10
1.76105e-15
-2.83627e-08
3.53478e-09
1.64691e-15
-2.7802e-08
6.27784e-09
1.54132e-15
-2.70223e-08
9.06004e-09
1.45051e-15
-2.6026e-08
1.18412e-08
1.36894e-15
-2.4817e-08
1.45875e-08
1.3109e-15
-2.34043e-08
1.72406e-08
1.31815e-15
-2.17987e-08
1.97576e-08
9.69988e-16
-2.00157e-08
2.20729e-08
6.38387e-16
-1.80748e-08
2.41202e-08
6.43417e-16
-1.59999e-08
2.58246e-08
6.10131e-16
-1.38223e-08
2.70753e-08
6.31618e-16
-1.15801e-08
2.77574e-08
3.04594e-16
-9.32049e-09
2.77256e-08
3.07188e-16
-7.10311e-09
2.67996e-08
2.75406e-16
-5.00198e-09
2.47825e-08
2.5608e-16
-3.10892e-09
2.14873e-08
2.8366e-16
-1.53917e-09
1.67681e-08
5.92522e-17
-4.38724e-10
1.06576e-08
2.55201e-17
3.468e-09
-3.58955e-17
2.35189e-09
-1.5457e-08
6.86522e-15
9.50084e-10
-1.55333e-08
5.72957e-15
-4.85311e-10
-1.57282e-08
5.13608e-15
-1.96944e-09
-1.60336e-08
5.23608e-15
-3.50468e-09
-1.64052e-08
5.28546e-15
-5.08685e-09
-1.67958e-08
5.08464e-15
-6.70765e-09
-1.71647e-08
4.89751e-15
-8.35643e-09
-1.74762e-08
4.68968e-15
-1.00215e-08
-1.77076e-08
4.47383e-15
-1.16904e-08
-1.78377e-08
4.31034e-15
-1.33504e-08
-1.78531e-08
4.09691e-15
-1.49885e-08
-1.77416e-08
3.88722e-15
-1.65913e-08
-1.74915e-08
3.70905e-15
-1.81454e-08
-1.70968e-08
3.52818e-15
-1.96369e-08
-1.65459e-08
3.39531e-15
-2.10514e-08
-1.58331e-08
3.44379e-15
-2.23749e-08
-1.49514e-08
3.18065e-15
-2.35929e-08
-1.38947e-08
2.94839e-15
-2.46907e-08
-1.26593e-08
2.74005e-15
-2.5654e-08
-1.12433e-08
2.55675e-15
-2.64686e-08
-9.64789e-09
2.37802e-15
-2.71209e-08
-7.87649e-09
2.21921e-15
-2.75987e-08
-5.93687e-09
2.06687e-15
-2.78902e-08
-3.84015e-09
1.92907e-15
-2.79861e-08
-1.6016e-09
1.7997e-15
-2.78775e-08
7.58305e-10
1.68106e-15
-2.75591e-08
3.21625e-09
1.57349e-15
-2.70265e-08
5.7454e-09
1.47428e-15
-2.62791e-08
8.31259e-09
1.3894e-15
-2.53185e-08
1.08805e-08
1.31332e-15
-2.41484e-08
1.34176e-08
1.25982e-15
-2.27774e-08
1.58696e-08
1.26966e-15
-2.12159e-08
1.81962e-08
9.36498e-16
-1.94792e-08
2.03363e-08
6.15342e-16
-1.75867e-08
2.22276e-08
6.2272e-16
-1.5562e-08
2.38e-08
5.91354e-16
-1.34364e-08
2.49497e-08
6.15614e-16
-1.12478e-08
2.55688e-08
2.96973e-16
-9.04356e-09
2.55213e-08
3.00463e-16
-6.88277e-09
2.46388e-08
2.70352e-16
-4.83869e-09
2.27384e-08
2.52351e-16
-3.00133e-09
1.96499e-08
2.79925e-16
-1.48236e-09
1.52491e-08
6.25802e-17
-4.21277e-10
9.59651e-09
3.06446e-17
3.04672e-09
-2.80102e-17
2.64605e-09
-1.40546e-08
6.68443e-15
1.25475e-09
-1.4142e-08
5.78683e-15
-1.60312e-10
-1.43132e-08
5.40865e-15
-1.61729e-09
-1.45766e-08
5.31727e-15
-3.12041e-09
-1.49021e-08
5.23337e-15
-4.66709e-09
-1.52491e-08
4.95944e-15
-6.25017e-09
-1.55816e-08
4.7446e-15
-7.85987e-09
-1.58665e-08
4.53253e-15
-9.4852e-09
-1.60822e-08
4.31915e-15
-1.11142e-08
-1.62087e-08
4.16278e-15
-1.27347e-08
-1.62326e-08
3.95423e-15
-1.4334e-08
-1.61422e-08
3.74647e-15
-1.58993e-08
-1.59262e-08
3.56518e-15
-1.74176e-08
-1.55786e-08
3.37841e-15
-1.88753e-08
-1.50882e-08
3.22932e-15
-2.0259e-08
-1.44494e-08
3.24951e-15
-2.15547e-08
-1.36556e-08
3.02295e-15
-2.27486e-08
-1.27009e-08
2.81064e-15
-2.38264e-08
-1.15815e-08
2.61377e-15
-2.47743e-08
-1.02955e-08
2.4384e-15
-2.55783e-08
-8.84382e-09
2.2666e-15
-2.62254e-08
-7.22935e-09
2.11427e-15
-2.67032e-08
-5.45905e-09
1.96856e-15
-2.70003e-08
-3.54295e-09
1.8374e-15
-2.71071e-08
-1.49497e-09
1.71474e-15
-2.70148e-08
6.66203e-10
1.60273e-15
-2.67179e-08
2.91919e-09
1.50162e-15
-2.62117e-08
5.23933e-09
1.40861e-15
-2.54952e-08
7.59604e-09
1.32946e-15
-2.45697e-08
9.95488e-09
1.2586e-15
-2.34385e-08
1.22865e-08
1.20925e-15
-2.21098e-08
1.45408e-08
1.22292e-15
-2.05938e-08
1.66802e-08
9.0151e-16
-1.89053e-08
1.86479e-08
5.94263e-16
-1.70636e-08
2.03858e-08
6.02755e-16
-1.5092e-08
2.18285e-08
5.75207e-16
-1.30218e-08
2.28794e-08
5.97961e-16
-1.08906e-08
2.34377e-08
2.88704e-16
-8.74558e-09
2.33763e-08
2.92764e-16
-6.64549e-09
2.25387e-08
2.6416e-16
-4.66262e-09
2.07555e-08
2.47397e-16
-2.88507e-09
1.78724e-08
2.74758e-16
-1.42074e-09
1.37848e-08
6.48641e-17
-4.02213e-10
8.57799e-09
3.47431e-17
2.6445e-09
-2.12714e-17
2.77494e-09
-1.26783e-08
7.14465e-15
1.41771e-09
-1.27848e-08
5.98456e-15