/*--------------------------------*- C++ -*----------------------------------*\
| =========                 |                                                 |
| \\      /  F ield         | OpenFOAM: The Open Source CFD Toolbox           |
|  \\    /   O peration     | Version:  v2012                                 |
|   \\  /    A nd           | Website:  www.openfoam.com                      |
|    \\/     M anipulation  |                                                 |
\*---------------------------------------------------------------------------*/
FoamFile
{
    version     2.0;
    format      ascii;
    class       volScalarField;
    location    "0.4";
    object      alpha.water;
}
// * * * * * * * * * * * * * * * * * * * * * * * * * * * * * * * * * * * * * //

dimensions      [0 0 0 0 0 0 0];


internalField   nonuniform List<scalar> 
2664
(
2.85259e-17
2.40821e-17
2.03584e-17
1.75551e-17
1.56053e-17
1.36186e-17
1.00219e-17
4.30666e-18
5.77793e-19
1.28825e-20
4.76953e-23
7.59524e-26
8.83916e-29
8.23254e-32
6.30973e-35
4.05573e-38
2.19789e-41
1.01695e-44
3.94621e-48
1.29198e-51
3.41526e-55
7.44316e-59
1.34609e-62
1.96128e-66
2.31547e-70
2.17388e-74
1.60878e-78
9.30461e-83
4.08352e-87
1.13528e-91
-1.37353e-85
-1.57814e-82
-2.2328e-84
-1.23393e-86
-1.62512e-89
-7.39871e-93
-6.85334e-97
3.3612e-17
2.7988e-17
2.31665e-17
1.93053e-17
1.66783e-17
1.47986e-17
1.22118e-17
7.26649e-18
1.85702e-18
1.04006e-19
8.58268e-22
1.87512e-24
2.55506e-27
2.71299e-30
2.3504e-33
1.69689e-36
1.02628e-39
5.26908e-43
2.25224e-46
8.088e-50
2.3988e-53
5.82989e-57
1.1703e-60
1.88548e-64
2.45305e-68
2.5291e-72
2.04808e-76
1.29174e-80
6.16517e-85
2.1849e-89
-2.77839e-91
-2.09434e-88
-1.61389e-89
-3.20689e-91
-9.06683e-94
-8.37366e-97
-1.13761e-100
3.96139e-17
3.25927e-17
2.65785e-17
2.15876e-17
1.79444e-17
1.56951e-17
1.362e-17
9.82153e-18
3.9309e-18
4.62608e-19
8.92791e-21
3.13011e-23
5.10591e-26
6.14066e-29
5.93143e-32
4.72893e-35
3.13633e-38
1.75573e-41
8.14039e-45
3.14997e-48
1.00231e-51
2.60272e-55
5.56108e-59
9.50186e-63
1.3067e-66
1.41955e-70
1.20767e-74
7.97899e-79
3.97805e-83
1.47247e-87
3.91103e-92
-3.8289e-94
-1.30296e-94
-7.66641e-96
-4.5958e-98
-8.92251e-101
-1.63502e-104
4.66842e-17
3.79493e-17
3.05429e-17
2.43714e-17
1.95784e-17
1.65685e-17
1.45617e-17
1.16848e-17
6.31354e-18
1.31031e-18
5.4697e-20
3.53192e-22
7.2621e-25
9.88422e-28
1.05674e-30
9.22567e-34
6.65138e-37
4.02479e-40
2.00701e-43
8.29923e-47
2.80962e-50
7.72914e-54
1.74242e-57
3.12892e-61
4.50574e-65
5.10746e-69
4.51827e-73
3.09371e-77
1.59315e-81
6.06999e-86
1.66503e-90
2.92112e-95
-9.78462e-97
-4.7043e-99
-9.44029e-102
-1.34998e-104
-2.7035e-108
5.49874e-17
4.41578e-17
3.50727e-17
2.75817e-17
2.16095e-17
1.75853e-17
1.52854e-17
1.29526e-17
8.49792e-18
2.68399e-18
2.1378e-19
2.67388e-21
7.5233e-24
1.16659e-26
1.37243e-29
1.30268e-32
1.01358e-35
6.58294e-39
3.50655e-42
1.54048e-45
5.51096e-49
1.59528e-52
3.76911e-56
7.066e-60
1.05834e-63
1.24326e-67
1.13569e-71
8.00107e-76
4.22413e-80
1.64369e-84
4.58628e-89
8.75089e-94
-1.02767e-96
-8.90943e-99
-1.63985e-101
-9.91921e-105
-1.29031e-108
6.46845e-17
5.13148e-17
4.02123e-17
3.11803e-17
2.39793e-17
1.88302e-17
1.59452e-17
1.38237e-17
1.02424e-17
4.3832e-18
5.866e-19
1.37618e-20
5.76321e-23
1.03484e-25
1.33354e-28
1.36712e-31
1.14034e-34
7.89815e-38
4.4664e-41
2.07368e-44
7.79534e-48
2.36116e-51
5.81368e-55
1.13138e-58
1.75251e-62
2.12126e-66
1.98934e-70
1.43361e-74
7.7132e-79
3.04621e-83
8.58752e-88
1.65304e-92
1.53613e-97
-1.55859e-98
-3.51007e-101
-2.28744e-104
-3.07756e-108
7.59704e-17
5.94981e-17
4.59979e-17
3.51571e-17
2.66164e-17
2.03112e-17
1.66319e-17
1.44637e-17
1.15368e-17
6.12557e-18
1.23182e-18
5.02901e-20
3.30058e-22
7.04956e-25
9.91867e-28
1.09072e-30
9.68527e-34
7.10666e-37
4.24024e-40
2.06851e-43
8.12643e-47
2.56202e-50
6.54012e-54
1.31443e-57
2.09489e-61
2.59932e-65
2.48966e-69
1.82569e-73
9.95622e-78
3.96822e-82
1.12354e-86
2.16199e-91
2.61377e-96
-2.59454e-98
-7.12489e-101
-5.00269e-104
-6.90593e-108
8.91054e-17
6.87861e-17
5.24391e-17
3.95004e-17
2.94633e-17
2.19851e-17
1.73922e-17
1.49792e-17
1.24724e-17
7.70138e-18
2.12196e-18
1.38252e-19
1.43131e-21
3.75477e-24
5.75778e-27
6.74336e-30
6.32846e-33
4.88589e-36
3.05611e-39
1.55695e-42
6.35589e-46
2.07415e-49
5.46006e-53
1.12744e-56
1.83942e-60
2.3279e-64
2.26591e-68
1.68235e-72
9.25133e-77
3.70109e-81
1.04656e-85
2.00033e-90
2.42896e-95
-3.94997e-98
-1.41092e-100
-1.0492e-103
-1.46559e-107
1.0438e-16
7.92762e-17
5.95238e-17
4.41765e-17
3.24689e-17
2.37875e-17
1.82351e-17
1.54302e-17
1.31531e-17
9.01765e-18
3.16228e-18
3.02771e-19
4.80524e-21
1.5908e-23
2.65762e-26
3.29107e-29
3.23967e-32
2.61266e-35
1.70138e-38
8.99239e-42
3.79268e-45
1.27314e-48
3.43571e-52
7.24769e-56
1.20388e-59
1.54575e-63
1.52104e-67
1.13748e-71
6.27405e-76
2.50564e-80
7.03564e-85
1.32751e-89
1.58538e-94
-3.37559e-98
-2.73854e-100
-2.12419e-103
-2.94413e-107
1.22025e-16
9.10663e-17
6.72294e-17
4.91242e-17
3.55736e-17
2.56482e-17
1.91375e-17
1.58454e-17
1.36601e-17
1.00675e-17
4.2422e-18
5.55278e-19
1.2889e-20
5.4619e-23
9.94631e-26
1.29284e-28
1.32434e-31
1.10701e-34
7.44936e-38
4.05545e-41
1.75544e-44
6.02235e-48
1.65543e-51
3.5455e-55
5.95974e-59
7.71783e-63
7.63321e-67
5.71675e-71
3.14448e-75
1.24612e-79
3.45277e-84
6.38831e-89
7.41612e-94
2.03641e-99
-5.16184e-100
-4.14943e-103
-5.59413e-107
1.42144e-16
1.04198e-16
7.55157e-17
5.42588e-17
3.86984e-17
2.74904e-17
2.00511e-17
1.62289e-17
1.40451e-17
1.08854e-17
5.27494e-18
8.88503e-19
2.86169e-20
1.55079e-22
3.0797e-25
4.17135e-28
4.41081e-31
3.79135e-34
2.61604e-37
1.45587e-40
6.42045e-44
2.23548e-47
6.21669e-51
1.34272e-54
2.2689e-58
2.94411e-62
2.90785e-66
2.16704e-70
1.18091e-74
4.61225e-79
1.2521e-83
2.25373e-88
2.51887e-93
9.76434e-99
-9.59033e-100
-7.71209e-103
-9.90194e-107
1.64714e-16
1.18601e-16
8.4297e-17
5.947e-17
4.17409e-17
2.9225e-17
2.09063e-17
1.65621e-17
1.43344e-17
1.15157e-17
6.21046e-18
1.28128e-18
5.44215e-20
3.72033e-22
8.04981e-25
1.12823e-27
1.22198e-30
1.07181e-33
7.52526e-37
4.24854e-40
1.89452e-43
6.64611e-47
1.8564e-50
4.01482e-54
6.77185e-58
8.74308e-62
8.56322e-66
6.30534e-70
3.37929e-74
1.29082e-78
3.40535e-83
5.89587e-88
6.27996e-93
2.69174e-98
-1.76104e-99
-1.3599e-102
-1.61796e-106
1.89613e-16
1.34071e-16
9.34053e-17
6.46096e-17
4.45731e-17
3.0747e-17
2.16206e-17
1.68087e-17
1.45371e-17
1.19981e-17
7.02991e-18
1.70744e-18
9.1356e-20
7.70854e-22
1.8116e-24
2.60998e-27
2.87485e-30
2.55463e-33
1.81184e-36
1.03009e-39
4.6103e-43
1.61776e-46
4.50609e-50
9.68786e-54
1.61937e-57
2.06523e-61
1.99116e-65
1.4373e-69
7.51383e-74
2.78323e-78
7.06938e-83
1.16544e-87
1.16807e-92
4.48023e-98
-3.16159e-99
-2.24329e-102
-2.40179e-106
2.16579e-16
1.50245e-16
1.02557e-16
6.94713e-17
4.70413e-17
3.19452e-17
2.2119e-17
1.69402e-17
1.46585e-17
1.23636e-17
7.7329e-18
2.14269e-18
1.38822e-19
1.40964e-21
3.57854e-24
5.26663e-27
5.86113e-30
5.24182e-33
3.73002e-36
2.1207e-39
9.45935e-43
3.29725e-46
9.09485e-50
1.93029e-53
3.17506e-57
3.97123e-61
3.74135e-65
2.62704e-69
1.32851e-73
4.72963e-78
1.1425e-82
1.77369e-87
1.64873e-92
4.28576e-98
-5.41418e-99
-3.38355e-102
-3.16291e-106
2.45097e-16
1.66576e-16
1.11327e-16
7.37813e-17
4.89821e-17
3.27368e-17
2.23747e-17
1.69759e-17
1.47116e-17
1.26316e-17
8.322e-18
2.56575e-18
1.9473e-19
2.32011e-21
6.31835e-24
9.44605e-27
1.05604e-29
9.44936e-33
6.70444e-36
3.78725e-39
1.67245e-42
5.75317e-46
1.56119e-49
3.24941e-53
5.22436e-57
6.36472e-61
5.81784e-65
3.94358e-69
1.91326e-73
6.48018e-78
1.47334e-82
2.12593e-87
1.79995e-92
2.04644e-98
-8.6209e-99
-4.56001e-102
-3.60672e-106
2.74245e-16
1.82272e-16
1.19152e-16
7.72278e-17
5.02743e-17
3.31233e-17
2.24457e-17
1.69587e-17
1.4719e-17
1.28077e-17
8.78229e-18
2.94674e-18
2.54252e-19
3.46503e-21
1.00444e-23
1.51965e-26
1.70076e-29
1.51688e-32
1.06842e-35
5.96687e-39
2.59474e-42
8.76047e-46
2.32555e-49
4.71931e-53
7.37259e-57
8.69467e-61
7.66029e-65
4.97601e-69
2.29727e-73
7.32242e-78
1.55072e-82
2.05078e-87
1.54739e-92
-2.54377e-96
-1.21074e-98
-5.26768e-102
-3.47419e-106
3.02561e-16
1.96289e-16
1.25409e-16
7.95584e-17
5.09187e-17
3.32239e-17
2.241e-17
1.68707e-17
1.46878e-17
1.28888e-17
9.0663e-18
3.21997e-18
3.03803e-19
4.56367e-21
1.38884e-23
2.12264e-26
2.38028e-29
2.11889e-32
1.48271e-35
8.18518e-39
3.50171e-42
1.15859e-45
3.00266e-49
5.92621e-53
8.96847e-57
1.02025e-60
8.62914e-65
5.34677e-69
2.33106e-73
6.94582e-78
1.35621e-82
1.61675e-87
1.05691e-92
-6.34446e-96
-1.41197e-98
-5.00458e-102
-2.78871e-106
3.28047e-16
2.07468e-16
1.2961e-16
8.07342e-17
5.10933e-17
3.30806e-17
2.21241e-17
1.66749e-17
1.46093e-17
1.28953e-17
9.15252e-18
3.31654e-18
3.23464e-19
5.04247e-21
1.56363e-23
2.399e-26
2.69388e-29
2.3969e-32
1.67021e-35
9.14075e-39
3.86036e-42
1.25644e-45
3.19216e-49
6.15326e-53
9.05803e-57
9.97574e-61
8.11525e-65
4.79481e-69
1.97171e-73
5.47576e-78
9.77987e-83
1.03358e-87
5.63738e-93
-8.55384e-96
-1.30748e-98
-3.79618e-102
-1.86925e-106
3.48444e-16
2.14897e-16
1.31693e-16
8.10535e-17
5.07426e-17
3.24073e-17
2.15251e-17
1.63734e-17
1.44877e-17
1.28412e-17
9.10983e-18
3.2788e-18
3.15283e-19
4.81464e-21
1.46679e-23
2.22595e-26
2.47802e-29
2.18416e-32
1.50301e-35
8.09491e-39
3.35453e-42
1.06925e-45
2.6552e-49
4.99084e-53
7.14377e-57
7.6216e-61
5.97127e-65
3.36427e-69
1.30686e-73
3.37767e-78
5.47403e-83
5.02791e-88
2.21651e-93
-7.74678e-96
-9.02024e-99
-2.20671e-102
-1.00571e-106
3.61944e-16
2.18475e-16
1.32236e-16
8.02782e-17
4.93845e-17
3.10906e-17
2.0623e-17
1.59893e-17
1.43309e-17
1.2708e-17
8.8753e-18
3.06361e-18
2.74156e-19
3.83506e-21
1.10412e-23
1.63425e-26
1.78577e-29
1.54332e-32
1.03759e-35
5.44214e-39
2.19204e-42
6.78713e-46
1.63574e-49
2.98022e-53
4.12747e-57
4.24867e-61
3.18613e-65
1.70673e-69
6.23347e-74
1.48514e-78
2.1475e-83
1.66899e-88
5.82249e-94
-4.62732e-96
-4.32947e-99
-9.38231e-103
-4.07631e-107
3.68322e-16
2.19339e-16
1.30639e-16
7.76054e-17
4.68382e-17
2.91489e-17
1.94966e-17
1.55691e-17
1.4146e-17
1.24794e-17
8.40999e-18
2.66498e-18
2.07425e-19
2.47305e-21
6.49572e-24
9.26962e-27
9.86226e-30
8.28673e-33
5.39362e-36
2.72931e-39
1.05911e-42
3.15675e-46
7.31676e-50
1.28019e-53
1.69925e-57
1.66689e-61
1.18416e-65
5.9572e-70
2.01201e-74
4.32013e-79
5.39134e-84
3.42956e-89
9.14861e-95
-1.64099e-96
-1.30696e-99
-2.64775e-103
-1.13653e-107
3.69751e-16
2.16081e-16
1.25413e-16
7.26944e-17
4.31629e-17
2.67201e-17
1.82696e-17
1.5156e-17
1.39316e-17
1.21218e-17
7.68059e-18
2.11963e-18
1.3285e-19
1.25442e-21
2.92254e-24
3.97793e-27
4.08255e-30
3.30163e-33
2.05879e-36
9.94969e-40
3.68551e-43
1.04743e-46
2.31252e-50
3.84659e-54
4.83096e-58
4.45895e-62
2.95719e-66
1.37151e-70
4.17957e-75
7.81861e-80
8.14624e-85
3.93783e-90
7.981e-96
-2.93627e-97
-2.11638e-100
-4.2091e-104
-1.84866e-108
3.63004e-16
2.05919e-16
1.15904e-16
6.56895e-17
3.86091e-17
2.40122e-17
1.7079e-17
1.4777e-17
1.36749e-17
1.15784e-17
6.6556e-18
1.49815e-18
6.92879e-20
4.84346e-22
9.84642e-25
1.26598e-27
1.23985e-30
9.5366e-34
5.63018e-37
2.56991e-40
8.99387e-44
2.41279e-47
5.02223e-51
7.84031e-55
9.20651e-59
7.88353e-63
4.79402e-67
2.00275e-71
5.34391e-76
8.41235e-81
6.93456e-86
2.43889e-91
4.28686e-97
-1.28593e-98
-9.79068e-102
-2.08259e-105
-9.5546e-110
3.42488e-16
1.87636e-16
1.0254e-16
5.72068e-17
3.35631e-17
2.12794e-17
1.60458e-17
1.44367e-17
1.33444e-17
1.076e-17
5.33388e-18
9.01049e-19
2.7882e-20
1.37131e-22
2.4238e-25
2.91691e-28
2.69253e-31
1.94362e-34
1.07267e-37
4.57122e-41
1.49556e-44
3.74743e-48
7.26268e-52
1.05249e-55
1.14082e-59
8.91465e-64
4.86898e-68
1.786e-72
4.03723e-77
5.15687e-82
3.1003e-87
8.72405e-93
1.49915e-98
-7.99649e-101
-8.73105e-104
-2.18497e-107
-9.29569e-112
3.06569e-16
1.62438e-16
8.67002e-17
4.80689e-17
2.84402e-17
1.87903e-17
1.52417e-17
1.41167e-17
1.28737e-17
9.54877e-18
3.79826e-18
4.33319e-19
8.08202e-21
2.74102e-23
4.23177e-26
4.71557e-29
4.04138e-32
2.69619e-35
1.37168e-38
5.39175e-42
1.62896e-45
3.7616e-49
6.70758e-53
8.89691e-57
8.74168e-61
6.10882e-65
2.92771e-69
9.15496e-74
1.70797e-78
1.67257e-83
7.28524e-89
1.76947e-94
2.9288e-100
-2.04677e-103
-4.08857e-106
-1.19014e-109
-4.45676e-114
2.5865e-16
1.33147e-16
7.0025e-17
3.90173e-17
2.3643e-17
1.6788e-17
1.46642e-17
1.37762e-17
1.2136e-17
7.83344e-18
2.26078e-18
1.5295e-19
1.56399e-21
3.74312e-24
5.0776e-27
5.16541e-30
4.03704e-33
2.44725e-36
1.13036e-39
4.04302e-43
1.11152e-46
2.33272e-50
3.76671e-54
4.48887e-58
3.9156e-62
2.39052e-66
9.77548e-71
2.5488e-75
3.7636e-80
2.63256e-85
9.38193e-91
2.18872e-96
3.50197e-102
-4.16266e-107
-1.22745e-108
-4.12416e-112
-1.32214e-116
2.04421e-16
1.02877e-16
5.40212e-17
3.06817e-17
1.95965e-17
1.54133e-17
1.42408e-17
1.33306e-17
1.09152e-17
5.61538e-18
1.02442e-18
3.52995e-20
1.88162e-22
3.37052e-25
4.02311e-28
3.67102e-31
2.56539e-34
1.38716e-37
5.71883e-41
1.83494e-44
4.5224e-48
8.47861e-52
1.21572e-55
1.27498e-59
9.64933e-64
5.01206e-68
1.71311e-72
3.6087e-77
3.975e-82
2.04619e-87
6.30118e-93
1.35573e-98
2.03403e-104
1.4363e-110
-2.6431e-111
-9.87485e-115
-2.67053e-119
1.50072e-16
7.47443e-17
3.98998e-17
2.36415e-17
1.66886e-17
1.46078e-17
1.38606e-17
1.25857e-17
8.92475e-18
3.19265e-18
3.06055e-19
4.59189e-21
1.33177e-23
1.90079e-26
1.98366e-29
1.5903e-32
9.73635e-36
4.62179e-39
1.68048e-42
4.76447e-46
1.03445e-49
1.69971e-53
2.12317e-57
1.91586e-61
1.22973e-65
5.34713e-70
1.49218e-74
2.43616e-79
1.98822e-84
8.53998e-90
2.46176e-95
4.97499e-101
7.85047e-107
3.71201e-112
-3.94141e-114
-1.67891e-117
-3.82271e-122
1.01806e-16
5.11728e-17
2.84763e-17
1.84768e-17
1.50361e-17
1.41305e-17
1.33601e-17
1.11434e-17
6.02746e-18
1.21896e-18
4.82904e-20
2.84913e-22
5.17611e-25
6.09462e-28
5.45994e-31
3.7611e-34
1.98051e-37
8.1165e-41
2.56121e-44
6.29711e-48
1.18191e-51
1.67018e-55
1.78141e-59
1.35515e-63
7.2817e-68
2.6023e-72
5.76982e-77
7.30873e-82
4.5807e-87
1.74433e-92
4.78444e-98
1.18523e-103
5.2029e-109
2.21683e-114
-3.62205e-117
-2.02836e-120
-3.91523e-125
6.34228e-17
3.3306e-17
2.03437e-17
1.55258e-17
1.42831e-17
1.37015e-17
1.23427e-17
8.43006e-18
2.79088e-18
2.34919e-19
2.9559e-21
7.48374e-24
9.88237e-27
9.64491e-30
7.24259e-33
4.18645e-36
1.85807e-39
6.47312e-43
1.73911e-46
3.63573e-50
5.77879e-54
6.87808e-58
6.16106e-62
3.90647e-66
1.73324e-70
5.02382e-75
9.00007e-80
9.68306e-85
6.00141e-90
2.86702e-95
1.80576e-100
1.21358e-105
7.51864e-111
2.70572e-116
-5.78848e-121
-1.70637e-123
-2.8228e-128
3.68663e-17
2.1598e-17
1.5869e-17
1.43454e-17
1.38354e-17
1.29039e-17
9.93771e-18
4.40052e-18
6.12003e-19
1.40325e-20
5.06908e-23
7.37267e-26
7.58839e-29
6.00304e-32
3.66999e-35
1.73933e-38
6.38594e-42
1.85296e-45
4.14271e-49
7.19891e-53
9.5059e-57
9.40989e-61
7.00748e-65
3.68049e-69
1.35895e-73
3.35742e-78
5.67631e-83
7.2739e-88
8.18659e-93
1.04383e-97
1.32547e-102
1.40944e-107
1.0234e-112
3.78235e-118
4.77208e-124
-8.93151e-127
-1.23046e-131
2.14059e-17
1.57747e-17
1.42892e-17
1.38426e-17
1.30885e-17
1.05817e-17
5.35768e-18
9.54786e-19
2.97944e-20
1.31585e-22
1.98055e-25
2.04527e-28
1.63105e-31
1.01039e-34
4.88393e-38
1.85008e-41
5.48397e-45
1.28907e-48
2.33983e-52
3.31765e-56
3.59741e-60
2.95179e-64
1.84844e-68
8.41158e-73
2.91034e-77
7.99068e-82
1.97178e-86
4.78771e-91
1.08516e-95
2.18384e-100
3.59345e-105
4.25226e-110
3.24185e-115
1.32666e-120
2.68893e-126
-1.67967e-130
-2.3216e-135
1.5134e-17
1.41073e-17
1.37478e-17
1.29583e-17
1.03683e-17
5.1831e-18
8.75304e-19
2.40019e-20
9.04465e-23
1.22981e-25
1.18567e-28
8.92657e-32
5.27283e-35
2.44882e-38
8.99693e-42
2.62569e-45
6.03603e-49
1.1119e-52
1.60337e-56
1.84022e-60
1.65979e-64
1.19919e-68
7.27557e-73
3.76519e-77
1.83522e-81
8.36693e-86
3.45723e-90
1.22278e-94
3.55784e-99
8.45569e-104
1.55972e-108
2.04786e-113
1.70498e-118
7.26738e-124
5.43066e-130
-1.0615e-134
-1.75833e-139
1.38304e-17
1.3478e-17
1.22472e-17
8.86656e-18
3.30373e-18
2.95873e-19
3.33556e-21
6.46484e-24
6.28203e-27
4.66199e-30
2.70088e-33
1.18558e-36
3.83551e-40
8.70443e-44
1.16039e-47
2.58329e-52
8.56506e-57
9.36394e-61
1.11895e-64
1.11444e-68
3.9297e-71
1.62977e-74
2.40768e-78
2.32042e-82
1.6863e-86
9.81573e-91
4.7212e-95
1.92145e-99
6.39913e-104
1.65951e-108
3.12287e-113
3.6997e-118
2.4269e-123
3.83014e-129
7.67383e-136
4.85077e-139
-2.64128e-144
1.25547e-17
9.59384e-18
3.80774e-18
3.56505e-19
4.59161e-21
1.08446e-23
1.63059e-27
2.58899e-31
1.70403e-34
1.07623e-37
5.33034e-41
2.00487e-44
5.61702e-48
1.14116e-51
1.54697e-55
1.21901e-59
1.89036e-63
2.59945e-67
2.82662e-71
2.46123e-75
3.01396e-79
5.77683e-83
6.74394e-87
5.65162e-91
3.76959e-95
2.12875e-99
1.07558e-103
5.12043e-108
2.25045e-112
7.77808e-117
1.90525e-121
2.78758e-126
2.14464e-131
3.75814e-137
8.05507e-144
4.75924e-143
1.48212e-148
6.51683e-19
4.5215e-20
1.71685e-21
4.57652e-24
5.83343e-28
3.43715e-31
1.14649e-34
1.05284e-37
7.08477e-41
3.71951e-44
1.56226e-47
5.07752e-51
1.26524e-54
2.40774e-58
6.177e-62
1.63303e-65
3.24164e-69
5.11336e-73
5.78422e-77
5.44521e-81
3.83544e-85
3.07343e-89
2.08332e-93
2.35834e-97
1.0968e-101
5.57584e-106
1.62332e-110
1.71527e-114
3.23232e-119
3.11782e-124
8.06069e-129
4.11873e-134
3.47989e-139
7.18681e-143
1.06001e-145
4.84891e-148
1.07e-152
2.85259e-17
2.40821e-17
2.03584e-17
1.75551e-17
1.56053e-17
1.36189e-17
1.00229e-17
4.30806e-18
5.78224e-19
1.28992e-20
4.77744e-23
7.6086e-26
8.8551e-29
8.24769e-32
6.32153e-35
4.06342e-38
2.20211e-41
1.01893e-44
3.95399e-48
1.29476e-51
3.42443e-55
7.47044e-59
1.35265e-62
1.97297e-66
2.33093e-70
2.18911e-74
1.62006e-78
9.36832e-83
4.11901e-87
1.27815e-91
-8.0237e-86
-8.72693e-83
-1.23996e-84
-6.88274e-87
-9.10191e-90
-4.15901e-93
-3.86506e-97
3.3612e-17
2.7988e-17
2.31665e-17
1.93053e-17
1.66783e-17
1.47987e-17
1.22125e-17
7.26795e-18
1.85801e-18
1.04114e-19
8.59592e-22
1.87838e-24
2.55965e-27
2.71798e-30
2.35479e-33
1.70011e-36
1.02825e-39
5.27935e-43
2.25669e-46
8.10416e-50
2.40364e-53
5.84179e-57
1.17271e-60
1.88937e-64
2.4581e-68
2.53439e-72
2.05242e-76
1.2945e-80
6.17832e-85
2.1913e-89
-1.46718e-91
-1.15726e-88
-8.96636e-90
-1.79104e-91
-5.08877e-94
-4.7165e-97
-6.42743e-101
3.96139e-17
3.25927e-17
2.65785e-17
2.15876e-17
1.79443e-17
1.56951e-17
1.36204e-17
9.82271e-18
3.93235e-18
4.62984e-19
8.94003e-21
3.13542e-23
5.11505e-26
6.15193e-29
5.94252e-32
4.73791e-35
3.14237e-38
1.75916e-41
8.15651e-45
3.15629e-48
1.00434e-51
2.60807e-55
5.57264e-59
9.52167e-63
1.30942e-66
1.42256e-70
1.21027e-74
7.99622e-79
3.98665e-83
1.47569e-87
3.9288e-92
-1.71926e-94
-7.20724e-95
-4.28656e-96
-2.58414e-98
-5.03385e-101
-9.25218e-105
4.66842e-17
3.79493e-17
3.05429e-17
2.43714e-17
1.95784e-17
1.65685e-17
1.45619e-17
1.16856e-17
6.31512e-18
1.31112e-18
5.47598e-20
3.5376e-22
7.27496e-25
9.90228e-28
1.05871e-30
9.24319e-34
6.66421e-37
4.03267e-40
2.01099e-43
8.31596e-47
2.81536e-50
7.74512e-54
1.74606e-57
3.13549e-61
4.51519e-65
5.11835e-69
4.52804e-73
3.10045e-77
1.59662e-81
6.08334e-86
1.66911e-90
3.15274e-95
2.59502e-100
-1.01024e-100
-1.29158e-102
-5.36481e-105
-1.24818e-108
5.49874e-17
4.41578e-17
3.50727e-17
2.75817e-17
2.16095e-17
1.75852e-17
1.52854e-17
1.29531e-17
8.49934e-18
2.68525e-18
2.13983e-19
2.67782e-21
7.53636e-24
1.16871e-26
1.37498e-29
1.30514e-32
1.01553e-35
6.59583e-39
3.51352e-42
1.5436e-45
5.52224e-49
1.59859e-52
3.77703e-56
7.0809e-60
1.06058e-63
1.24593e-67
1.13816e-71
8.01865e-76
4.23343e-80
1.64734e-84
4.5967e-89
8.80699e-94
1.09752e-98
7.63981e-104
-5.37839e-106
-1.13868e-108
-2.61884e-112
6.46845e-17
5.13148e-17
4.02123e-17
3.11803e-17
2.39793e-17
1.88302e-17
1.59452e-17
1.3824e-17
1.02436e-17
4.38473e-18
5.87055e-19
1.37799e-20
5.7729e-23
1.03669e-25
1.336e-28
1.3697e-31
1.14253e-34
7.91358e-38
4.47528e-41
2.07787e-44
7.81132e-48
2.36607e-51
5.82592e-55
1.13377e-58
1.75622e-62
2.12583e-66
1.9937e-70
1.43678e-74
7.73029e-79
3.05302e-83
8.6071e-88
1.65788e-92
2.06648e-97
1.53974e-102
-5.47215e-106
-1.1411e-108
-2.28003e-112
7.59704e-17
5.94981e-17
4.59979e-17
3.51571e-17
2.66164e-17
2.03112e-17
1.66319e-17
1.44639e-17
1.15377e-17
6.12716e-18
1.23259e-18
5.03478e-20
3.30585e-22
7.06199e-25
9.93677e-28
1.09276e-30
9.70374e-34
7.12048e-37
4.24864e-40
2.07268e-43
8.14306e-47
2.56734e-50
6.55389e-54
1.31722e-57
2.09934e-61
2.60494e-65
2.49513e-69
1.82974e-73
9.9784e-78
3.97717e-82
1.12613e-86
2.16724e-91
2.68363e-96
1.97953e-101
4.21367e-107
-2.24681e-108
-5.12382e-112
8.91054e-17
6.87861e-17
5.24391e-17
3.95004e-17
2.94633e-17
2.19851e-17
1.73922e-17
1.49792e-17
1.2473e-17
7.70285e-18
2.12303e-18
1.38389e-19
1.43343e-21
3.7612e-24
5.76809e-27
6.75578e-30
6.34037e-33
4.89528e-36
3.0621e-39
1.56006e-42
6.36881e-46
2.07844e-49
5.4715e-53
1.12982e-56
1.84332e-60
2.33292e-64
2.27089e-68
1.68609e-72
9.27198e-77
3.70946e-81
1.04897e-85
2.00507e-90
2.45099e-95
1.76877e-100
5.79297e-106
-4.36091e-108
-1.10628e-111
1.0438e-16
7.92762e-17
5.95238e-17
4.41764e-17
3.24689e-17
2.37875e-17
1.8235e-17
1.54302e-17
1.31535e-17
9.01892e-18
3.16355e-18
3.03026e-19
4.81172e-21
1.59341e-23
2.66224e-26
3.29697e-29
3.24563e-32
2.61759e-35
1.70466e-38
9.01008e-42
3.80028e-45
1.27574e-48
3.44283e-52
7.26284e-56
1.20641e-59
1.54907e-63
1.52437e-67
1.13999e-71
6.28802e-76
2.5113e-80
7.05188e-85
1.33063e-89
1.5935e-94
1.1156e-99
3.88089e-105
-8.29931e-108
-2.30669e-111
1.22025e-16
9.10663e-17
6.72294e-17
4.91242e-17
3.55736e-17
2.56483e-17
1.91375e-17
1.58453e-17
1.36604e-17
1.00686e-17
4.24355e-18
5.5567e-19
1.29044e-20
5.47032e-23
9.96281e-26
1.29507e-28
1.32669e-31
1.10902e-34
7.46326e-38
4.0632e-41
1.75887e-44
6.03435e-48
1.65879e-51
3.55277e-55
5.97203e-59
7.7341e-63
7.64964e-67
5.72923e-71
3.1514e-75
1.2489e-79
3.46069e-84
6.40326e-89
7.44343e-94
5.01104e-99
1.66438e-104
-1.64422e-107
-4.71329e-111
1.42144e-16
1.04198e-16
7.55157e-17
5.42588e-17
3.86983e-17
2.74905e-17
2.00511e-17
1.62288e-17
1.40453e-17
1.08863e-17
5.27624e-18
8.89019e-19
2.86466e-20
1.55297e-22
3.08446e-25
4.17808e-28
4.41816e-31
3.79787e-34
2.62067e-37
1.45851e-40
6.43243e-44
2.23975e-47
6.22881e-51
1.34537e-54
2.27342e-58
2.95013e-62
2.91393e-66
2.17165e-70
1.18345e-74
4.62235e-79
1.25491e-83
2.25892e-88
2.52674e-93
1.61838e-98
5.03143e-104
-3.31649e-107
-9.31624e-111
1.64714e-16
1.18601e-16
8.4297e-17
5.947e-17
4.17409e-17
2.9225e-17
2.09063e-17
1.65621e-17
1.43346e-17
1.15163e-17
6.21162e-18
1.28188e-18
5.44688e-20
3.72493e-22
8.06101e-25
1.12988e-27
1.22384e-30
1.0735e-33
7.53753e-37
4.2557e-40
1.89781e-43
6.65795e-47
1.85979e-50
4.02226e-54
6.78456e-58
8.75997e-62
8.58023e-66
6.31811e-70
3.38623e-74
1.29353e-78
3.41273e-83
5.909e-88
6.2976e-93
3.79081e-98
1.08188e-103
-6.76826e-107
-1.74397e-110
1.89613e-16
1.34071e-16
9.34053e-17
6.46096e-17
4.45731e-17
3.0747e-17
2.16206e-17
1.68087e-17
1.45372e-17
1.19986e-17
7.03086e-18
1.70805e-18
9.14195e-20
7.71651e-22
1.81376e-24
2.61329e-27
2.87866e-30
2.55817e-33
1.81445e-36
1.03163e-39
4.61745e-43
1.62035e-46
4.51351e-50
9.70414e-54
1.62214e-57
2.06888e-61
1.99479e-65
1.44e-69
7.52821e-74
2.78871e-78
7.0838e-83
1.16789e-87
1.1713e-92
6.51695e-98
1.66492e-103
-1.36142e-106
-3.02456e-110
2.16579e-16
1.50245e-16
1.02557e-16
6.94713e-17
4.70413e-17
3.19452e-17
2.2119e-17
1.69402e-17
1.46585e-17
1.23639e-17
7.73362e-18
2.14324e-18
1.38894e-19
1.41078e-21
3.58197e-24
5.27203e-27
5.86748e-30
5.24781e-33
3.73449e-36
2.12336e-39
9.47173e-43
3.30173e-46
9.10767e-50
1.93308e-53
3.17974e-57
3.97734e-61
3.74734e-65
2.63139e-69
1.33077e-73
4.73796e-78
1.1446e-82
1.77709e-87
1.6535e-92
8.32887e-98
1.84106e-103
-2.58944e-106
-4.7447e-110
2.45097e-16
1.66576e-16
1.11326e-16
7.37813e-17
4.89821e-17
3.27368e-17
2.23748e-17
1.69759e-17
1.47117e-17
1.26318e-17
8.32248e-18
2.56618e-18
1.94799e-19
2.32142e-21
6.32272e-24
9.45315e-27
1.05689e-29
9.45745e-33
6.71054e-36
3.7909e-39
1.67415e-42
5.7593e-46
1.56293e-49
3.25315e-53
5.23052e-57
6.37264e-61
5.82546e-65
3.94897e-69
1.91597e-73
6.48978e-78
1.47565e-82
2.12944e-87
1.80558e-92
8.01597e-98
1.46042e-103
-4.41761e-106
-6.47809e-110
2.74245e-16
1.82272e-16
1.19152e-16
7.72278e-17
5.02743e-17
3.31233e-17
2.24457e-17
1.69587e-17
1.47191e-17
1.28078e-17
8.78255e-18
2.947e-18
2.54302e-19
3.46617e-21
1.00486e-23
1.52036e-26
1.70162e-29
1.51771e-32
1.06906e-35
5.97069e-39
2.59651e-42
8.76685e-46
2.32734e-49
4.72311e-53
7.37872e-57
8.70243e-61
7.66761e-65
4.98105e-69
2.2997e-73
7.33069e-78
1.55261e-82
2.05347e-87
1.55265e-92
5.859e-98
8.32444e-104
-6.50403e-106
-7.45796e-110
3.02561e-16
1.96289e-16
1.25409e-16
7.95584e-17
5.09187e-17
3.32239e-17
2.241e-17
1.68707e-17
1.46878e-17
1.28889e-17
9.0664e-18
3.22007e-18
3.03826e-19
4.56427e-21
1.38908e-23
2.12306e-26
2.38082e-29
2.11943e-32
1.48313e-35
8.18779e-39
3.50294e-42
1.15904e-45
3.00391e-49
5.92879e-53
8.97253e-57
1.02077e-60
8.63406e-65
5.35011e-69
2.33261e-73
6.95086e-78
1.35731e-82
1.61821e-87
1.06199e-92
3.25658e-98
2.46601e-104
-7.91817e-106
-7.01974e-110
3.28047e-16
2.07468e-16
1.2961e-16
8.07342e-17
5.10933e-17
3.30806e-17
2.21242e-17
1.6675e-17
1.46093e-17
1.28953e-17
9.15253e-18
3.31655e-18
3.23465e-19
5.04252e-21
1.56366e-23
2.39906e-26
2.69398e-29
2.39703e-32
1.67032e-35
9.1415e-39
3.86074e-42
1.25659e-45
3.19258e-49
6.1541e-53
9.05927e-57
9.97748e-61
8.11701e-65
4.79603e-69
1.97226e-73
5.47753e-78
9.78369e-83
1.03408e-87
5.69342e-93
1.36787e-98
-9.93469e-104
-7.3669e-106
-5.25285e-110
3.48444e-16
2.14897e-16
1.31693e-16
8.10535e-17
5.07426e-17
3.24073e-17
2.15251e-17
1.63735e-17
1.44878e-17
1.28412e-17
9.1098e-18
3.27875e-18
3.15272e-19
4.81437e-21
1.46669e-23
2.2258e-26
2.47786e-29
2.18402e-32
1.50292e-35
8.09443e-39
3.35433e-42
1.06919e-45
2.65506e-49
4.9905e-53
7.14316e-57
7.6211e-61
5.97103e-65
3.3642e-69
1.30683e-73
3.37769e-78
5.47432e-83
5.02862e-88
2.26644e-93
4.16301e-99
-7.12691e-103
-4.75417e-106
-2.94189e-110
3.61944e-16
2.18475e-16
1.32236e-16
8.02782e-17
4.93845e-17
3.10906e-17
2.06231e-17
1.59894e-17
1.43309e-17
1.2708e-17
8.87524e-18
3.06352e-18
2.7414e-19
3.8347e-21
1.104e-23
1.63406e-26
1.78555e-29
1.54312e-32
1.03746e-35
5.44143e-39
2.19174e-42
6.78617e-46
1.6355e-49
2.97971e-53
4.12665e-57
4.24786e-61
3.18557e-65
1.70643e-69
6.2323e-74
1.48488e-78
2.14719e-83
1.66892e-88
5.90736e-94
7.94957e-100
-4.33464e-103
-1.89395e-106
-1.08793e-110
3.68322e-16
2.19339e-16
1.30639e-16
7.76054e-17
4.68382e-17
2.91489e-17
1.94966e-17
1.55691e-17
1.41461e-17
1.24794e-17
8.40993e-18
2.6649e-18
2.07412e-19
2.47281e-21
6.49496e-24
9.26847e-27
9.86099e-30
8.28562e-33
5.39287e-36
2.72891e-39
1.05894e-42
3.15624e-46
7.3155e-50
1.27994e-53
1.69886e-57
1.66651e-61
1.1839e-65
5.95588e-70
2.01152e-74
4.31909e-79
5.39022e-84
3.42937e-89
9.15125e-95
1.05488e-100
-1.02573e-103
-3.84894e-107
-2.17023e-111
3.69751e-16
2.16081e-16
1.25413e-16
7.26943e-17
4.31629e-17
2.67202e-17
1.82696e-17
1.5156e-17
1.39316e-17
1.21218e-17
7.68055e-18
2.11959e-18
1.32844e-19
1.25433e-21
2.92228e-24
3.97755e-27
4.08213e-30
3.30127e-33
2.05855e-36
9.94848e-40
3.68504e-43
1.04728e-46
2.31217e-50
3.8459e-54
4.82992e-58
4.45803e-62
2.9566e-66
1.37124e-70
4.17863e-75
7.81693e-80
8.14484e-85
3.93828e-90
7.986e-96
8.9532e-102
-6.70187e-105
-2.62302e-108
-1.51691e-112
3.63004e-16
2.05919e-16
1.15904e-16
6.56894e-17
3.86091e-17
2.40122e-17
1.7079e-17
1.4777e-17
1.36749e-17
1.15785e-17
6.65559e-18
1.49814e-18
6.92864e-20
4.84329e-22
9.84598e-25
1.26591e-27
1.23978e-30
9.53603e-34
5.62981e-37
2.56973e-40
8.99315e-44
2.41257e-47
5.02173e-51
7.83932e-55
9.20502e-59
7.88234e-63
4.79335e-67
2.00247e-71
5.34306e-76
8.41123e-81
6.93409e-86
2.43899e-91
4.28797e-97
4.85821e-103
-2.28552e-108
-1.9903e-110
-1.14131e-114
3.42488e-16
1.87636e-16
1.0254e-16
5.72068e-17
3.35631e-17
2.12795e-17
1.60459e-17
1.44367e-17
1.33444e-17
1.076e-17
5.33391e-18
9.01057e-19
2.78823e-20
1.37132e-22
2.42381e-25
2.91692e-28
2.69253e-31
1.94362e-34
1.07267e-37
4.57117e-41
1.49554e-44
3.74735e-48
7.26245e-52
1.05243e-55
1.14073e-59
8.91404e-64
4.8687e-68
1.78591e-72
4.03699e-77
5.15679e-82
3.1006e-87
8.72617e-93
1.49983e-98
1.69552e-104
5.63838e-111
-9.41351e-113
-5.08873e-117
3.06569e-16
1.62438e-16
8.67002e-17
4.80689e-17
2.84402e-17
1.87903e-17
1.52417e-17
1.41167e-17
1.28738e-17
9.54883e-18
3.79832e-18
4.33332e-19
8.08239e-21
2.74117e-23
4.23201e-26
4.71584e-29
4.0416e-32
2.69634e-35
1.37176e-38
5.39204e-42
1.62904e-45
3.76178e-49
6.70785e-53
8.89708e-57
8.74165e-61
6.10892e-65
2.92781e-69
9.15543e-74
1.70806e-78
1.6728e-83
7.28704e-89
1.77012e-94
2.93037e-100
3.21717e-106
1.7423e-112
-2.76984e-115
-1.53262e-119
2.5865e-16
1.33147e-16
7.0025e-17
3.90173e-17
2.3643e-17
1.6788e-17
1.46642e-17
1.37762e-17
1.2136e-17
7.83352e-18
2.26084e-18
1.52959e-19
1.56411e-21
3.74346e-24
5.07808e-27
5.16591e-30
4.03743e-33
2.44749e-36
1.13048e-39
4.04345e-43
1.11164e-46
2.33297e-50
3.76711e-54
4.48926e-58
3.91587e-62
2.39076e-66
9.77671e-71
2.54919e-75
3.76424e-80
2.63342e-85
9.38653e-91
2.19008e-96
3.50451e-102
3.66829e-108
5.95516e-114
-2.66247e-118
-2.90957e-122
2.04421e-16
1.02877e-16
5.40212e-17
3.06817e-17
1.95965e-17
1.54133e-17
1.42408e-17
1.33306e-17
1.09152e-17
5.61548e-18
1.02446e-18
3.53021e-20
1.88181e-22
3.3709e-25
4.02357e-28
3.67146e-31
2.5657e-34
1.38734e-37
5.71958e-41
1.83519e-44
4.52304e-48
8.47984e-52
1.2159e-55
1.27515e-59
9.65046e-64
5.01284e-68
1.71344e-72
3.60955e-77
3.97612e-82
2.04697e-87
6.30424e-93
1.35652e-98
2.03528e-104
3.47364e-110
1.16871e-115
-6.15602e-122
-3.10981e-125
1.50072e-16
7.47443e-17
3.98998e-17
2.36415e-17
1.66886e-17
1.46078e-17
1.38606e-17
1.25857e-17
8.92482e-18
3.19273e-18
3.06071e-19
4.59229e-21
1.33191e-23
1.90101e-26
1.9839e-29
1.5905e-32
9.73761e-36
4.62243e-39
1.68073e-42
4.76519e-46
1.03462e-49
1.69999e-53
2.12353e-57
1.91616e-61
1.22991e-65
5.34817e-70
1.49254e-74
2.43691e-79
1.98902e-84
8.54466e-90
2.46335e-95
4.97869e-101
7.8473e-107
3.17269e-112
7.02164e-118
4.74208e-124
-1.04902e-128
1.01806e-16
5.11728e-17
2.84763e-17
1.84769e-17
1.50361e-17
1.41305e-17
1.33601e-17
1.11435e-17
6.02753e-18
1.219e-18
4.82934e-20
2.84939e-22
5.17663e-25
6.09528e-28
5.46054e-31
3.76154e-34
1.98075e-37
8.11755e-41
2.56156e-44
6.29805e-48
1.1821e-51
1.67046e-55
1.78172e-59
1.35537e-63
7.28284e-68
2.60287e-72
5.77146e-77
7.31149e-82
4.58326e-87
1.74565e-92
4.78908e-98
1.1883e-103
5.20231e-109
1.90686e-114
3.8177e-120
5.38188e-126
-1.90646e-132
6.34228e-17
3.3306e-17
2.03437e-17
1.55258e-17
1.42831e-17
1.37015e-17