/*--------------------------------*- C++ -*----------------------------------*\
| =========                 |                                                 |
| \\      /  F ield         | OpenFOAM: The Open Source CFD Toolbox           |
|  \\    /   O peration     | Version:  v2012                                 |
|   \\  /    A nd           | Website:  www.openfoam.com                      |
|    \\/     M anipulation  |                                                 |
\*---------------------------------------------------------------------------*/
FoamFile
{
    version     2.0;
    format      ascii;
    class       surfaceScalarField;
    location    "0.4";
    object      phi;
}
// * * * * * * * * * * * * * * * * * * * * * * * * * * * * * * * * * * * * * //

dimensions      [0 3 -1 0 0 0 0];
oriented        oriented;


internalField   nonuniform List<scalar> 
6514
(
1.05412e-10
-2.33041e-10
-3.12228e-16
1.10513e-10
-2.39629e-10
-2.39824e-16
1.14946e-10
-2.44933e-10
-3.02388e-16
1.18638e-10
-2.48893e-10
1.52648e-16
1.21526e-10
-2.51456e-10
5.20324e-16
1.23563e-10
-2.52662e-10
8.21442e-16
1.24719e-10
-2.52486e-10
8.59052e-16
1.24983e-10
-2.51004e-10
7.78428e-16
1.24365e-10
-2.48284e-10
6.5495e-16
1.22889e-10
-2.44407e-10
3.69225e-16
1.20596e-10
-2.39482e-10
7.38767e-17
1.17542e-10
-2.33622e-10
-1.81588e-16
1.13792e-10
-2.26955e-10
-3.22656e-16
1.09421e-10
-2.19595e-10
-4.22199e-16
1.0451e-10
-2.11667e-10
-4.59436e-16
9.91419e-11
-2.03279e-10
-4.16929e-16
9.34047e-11
-1.94491e-10
-3.2326e-16
8.73783e-11
-1.85499e-10
-1.74997e-16
8.11478e-11
-1.76252e-10
-1.71663e-17
7.4788e-11
-1.66906e-10
1.64139e-16
6.83733e-11
-1.57427e-10
3.20267e-16
6.19722e-11
-1.4784e-10
4.60174e-16
5.56421e-11
-1.38244e-10
5.4283e-16
4.94431e-11
-1.28501e-10
5.90286e-16
4.34236e-11
-1.18678e-10
6.18625e-16
3.76294e-11
-1.08698e-10
5.00319e-16
3.21019e-11
-9.85412e-11
3.37618e-16
2.68772e-11
-8.81917e-11
1.66695e-16
2.19922e-11
-7.75763e-11
3.14902e-17
1.74805e-11
-6.67108e-11
-7.05728e-17
1.33753e-11
-5.56214e-11
-1.14658e-16
9.71329e-12
-4.43761e-11
-9.7743e-17
6.53561e-12
-3.31469e-11
-2.7354e-17
3.89252e-12
-2.22635e-11
9.43891e-17
1.85088e-12
-1.22828e-11
2.30381e-16
5.05418e-13
-4.18553e-12
3.72416e-16
5.28728e-13
4.75131e-16
1.11403e-10
-2.3873e-10
-1.92354e-16
1.16437e-10
-2.44665e-10
-2.3976e-16
1.20727e-10
-2.49226e-10
-3.72517e-16
1.24203e-10
-2.52369e-10
4.24567e-18
1.26808e-10
-2.54057e-10
3.7511e-16
1.28504e-10
-2.54351e-10
6.52593e-16
1.29269e-10
-2.53245e-10
7.53917e-16
1.29105e-10
-2.50834e-10
6.93048e-16
1.28031e-10
-2.47205e-10
6.08102e-16
1.26085e-10
-2.42457e-10
3.63664e-16
1.23317e-10
-2.36713e-10
1.22308e-16
1.19795e-10
-2.301e-10
-9.89523e-17
1.15594e-10
-2.22755e-10
-2.0894e-16
1.10795e-10
-2.14799e-10
-2.98315e-16
1.05487e-10
-2.06362e-10
-3.37134e-16
9.97581e-11
-1.97553e-10
-3.15961e-16
9.36996e-11
-1.88434e-10
-2.45089e-16
8.73933e-11
-1.79194e-10
-1.28693e-16
8.09252e-11
-1.69783e-10
2.37098e-20
7.43696e-11
-1.60349e-10
1.46549e-16
6.77995e-11
-1.50854e-10
2.74503e-16
6.12815e-11
-1.41318e-10
3.87931e-16
5.48704e-11
-1.31828e-10
4.56667e-16
4.86232e-11
-1.22248e-10
5.01134e-16
4.25852e-11
-1.12635e-10
5.305e-16
3.67993e-11
-1.02907e-10
4.46127e-16
3.13036e-11
-9.30416e-11
3.17805e-16
2.61311e-11
-8.30169e-11
1.78404e-16
2.13157e-11
-7.27598e-11
6.32973e-17
1.68877e-11
-6.22828e-11
-2.77378e-17
1.28773e-11
-5.16117e-11
-7.25967e-17
9.3173e-12
-4.08167e-11
-6.6121e-17
6.24447e-12
-3.00739e-11
-1.18154e-17
3.70326e-12
-1.97206e-11
8.86289e-17
1.75257e-12
-1.03286e-11
2.05427e-16
4.75727e-13
-2.90306e-12
3.2978e-16
1.01129e-12
4.15548e-16
1.17704e-10
-2.44389e-10
-3.98065e-17
1.22625e-10
-2.49587e-10
-1.22351e-16
1.2672e-10
-2.53324e-10
-4.37782e-16
1.29926e-10
-2.55575e-10
-9.08505e-17
1.32192e-10
-2.56321e-10
2.20664e-16
1.33491e-10
-2.55645e-10
5.32763e-16
1.33814e-10
-2.53562e-10
6.49302e-16
1.33173e-10
-2.50187e-10
6.40014e-16
1.316e-10
-2.45627e-10
5.61118e-16
1.29145e-10
-2.39999e-10
3.65837e-16
1.25872e-10
-2.33439e-10
1.4837e-16
1.21857e-10
-2.26085e-10
-3.80132e-17
1.17186e-10
-2.18085e-10
-1.34884e-16
1.11949e-10
-2.09564e-10
-2.13842e-16
1.0624e-10
-2.00654e-10
-2.60455e-16
1.00151e-10
-1.91466e-10
-2.51277e-16
9.37759e-11
-1.8206e-10
-1.97883e-16
8.71987e-11
-1.72618e-10
-1.00251e-16
8.05048e-11
-1.63089e-10
8.34571e-18
7.37673e-11
-1.53611e-10
1.33246e-16
6.70574e-11
-1.44141e-10
2.41617e-16
6.04388e-11
-1.34695e-10
3.37352e-16
5.3963e-11
-1.25349e-10
3.95672e-16
4.76839e-11
-1.15964e-10
4.36094e-16
4.16432e-11
-1.06589e-10
4.6928e-16
3.58805e-11
-9.71398e-11
4.09012e-16
3.04305e-11
-8.75878e-11
3.07524e-16
2.5323e-11
-7.7907e-11
1.93384e-16
2.05888e-11
-6.8024e-11
9.55253e-17
1.62549e-11
-5.79485e-11
1.41814e-17
1.23485e-11
-4.77053e-11
-3.08855e-17
8.89856e-12
-3.73669e-11
-3.36961e-17
5.93755e-12
-2.71125e-11
5.12179e-18
3.50411e-12
-1.72857e-11
8.4047e-17
1.64919e-12
-8.47075e-12
1.79715e-16
4.44473e-13
-1.69363e-12
2.83231e-16
1.4614e-12
3.52387e-16
1.24318e-10
-2.4997e-10
5.97055e-17
1.29072e-10
-2.54342e-10
-1.69866e-16
1.32914e-10
-2.5717e-10
-5.1443e-16
1.35788e-10
-2.58451e-10
-2.27924e-16
1.37655e-10
-2.58187e-10
1.13947e-16
1.38498e-10
-2.56484e-10
4.00179e-16
1.38322e-10
-2.5338e-10
5.74471e-16
1.37152e-10
-2.49013e-10
5.68283e-16
1.35036e-10
-2.43506e-10
5.25028e-16
1.32035e-10
-2.36994e-10
3.47629e-16
1.28226e-10
-2.29629e-10
1.7189e-16
1.23698e-10
-2.21556e-10
2.89164e-18
1.18543e-10
-2.12931e-10
-7.27478e-17
1.1286e-10
-2.03882e-10
-1.51094e-16
1.06747e-10
-1.94543e-10
-1.9974e-16
1.00302e-10
-1.85022e-10
-2.0411e-16
9.3619e-11
-1.75378e-10
-1.63385e-16
8.67827e-11
-1.65783e-10
-8.28862e-17
7.98777e-11
-1.56183e-10
9.6992e-18
7.29748e-11
-1.46707e-10
1.1692e-16
6.61426e-11
-1.37307e-10
2.10081e-16
5.94412e-11
-1.2799e-10
2.92501e-16
5.29188e-11
-1.18823e-10
3.43157e-16
4.66252e-11
-1.09666e-10
3.84324e-16
4.05984e-11
-1.00558e-10
4.18188e-16
3.48744e-11
-9.14116e-11
3.77598e-16
2.94844e-11
-8.21941e-11
2.97339e-16
2.44548e-11
-7.28748e-11
2.04192e-16
1.98133e-11
-6.33806e-11
1.21363e-16
1.55839e-11
-5.37181e-11
4.85107e-17
1.17904e-11
-4.39115e-11
3.31732e-18
8.4583e-12
-3.40346e-11
-7.73972e-18
5.61575e-12
-2.42694e-11
1.7061e-17
3.29568e-12
-1.49643e-11
7.67422e-17
1.54105e-12
-6.71359e-12
1.53049e-16
4.11727e-13
-5.6037e-13
2.37664e-16
1.87781e-12
2.92279e-16
1.31244e-10
-2.55417e-10
4.02263e-17
1.35768e-10
-2.58866e-10
-1.14138e-16
1.3929e-10
-2.60697e-10
-5.81366e-16
1.41765e-10
-2.60928e-10
-2.72078e-16
1.43166e-10
-2.59587e-10
6.79428e-18
1.4349e-10
-2.56804e-10
3.25927e-16
1.42756e-10
-2.52642e-10
4.88576e-16
1.41006e-10
-2.47258e-10
5.21639e-16
1.38301e-10
-2.40797e-10
4.71756e-16
1.34718e-10
-2.33408e-10
3.33824e-16
1.30346e-10
-2.25255e-10
1.76022e-16
1.25284e-10
-2.16493e-10
3.64623e-17
1.19634e-10
-2.07281e-10
-3.14826e-17
1.13501e-10
-1.9775e-10
-1.03079e-16
1.06987e-10
-1.88031e-10
-1.583e-16
1.00193e-10
-1.7823e-10
-1.71038e-16
9.32146e-11
-1.684e-10
-1.43527e-16
8.61345e-11
-1.58703e-10
-7.66694e-17
7.90358e-11
-1.49084e-10
1.07968e-18
7.19866e-11
-1.39657e-10
9.40817e-17
6.50516e-11
-1.3037e-10
1.7461e-16
5.82873e-11
-1.21223e-10
2.47142e-16
5.17375e-11
-1.12271e-10
2.92691e-16
4.54478e-11
-1.03373e-10
3.33395e-16
3.94522e-11
-9.4558e-11
3.70795e-16
3.37829e-11
-8.57383e-11
3.46659e-16
2.84673e-11
-7.6875e-11
2.85812e-16
2.35287e-11
-6.79336e-11
2.11419e-16
1.89915e-11
-5.88413e-11
1.42413e-16
1.48766e-11
-4.96019e-11
7.76152e-17
1.12047e-11
-4.02389e-11
3.3233e-17
7.99794e-12
-3.08273e-11
1.58008e-17
5.28012e-12
-2.1551e-11
2.91038e-17
3.07864e-12
-1.27616e-11
7.26094e-17
1.42849e-12
-5.0613e-12
1.3232e-16
3.77593e-13
4.93785e-13
2.00592e-16
2.25924e-12
2.44761e-16
1.38476e-10
-2.60664e-10
1.56108e-16
1.42697e-10
-2.63089e-10
-1.45964e-16
1.45825e-10
-2.63831e-10
-5.91255e-16
1.47827e-10
-2.62932e-10
-3.65214e-16
1.48689e-10
-2.60449e-10
-4.71977e-17
1.48426e-10
-2.56538e-10
2.27513e-16
1.47073e-10
-2.51285e-10
4.37449e-16
1.4469e-10
-2.44871e-10
4.58157e-16
1.41353e-10
-2.37457e-10
4.36504e-16
1.37153e-10
-2.29206e-10
3.0493e-16
1.32194e-10
-2.20294e-10
1.81679e-16
1.26583e-10
-2.10881e-10
5.26606e-17
1.2043e-10
-2.01129e-10
1.91573e-19
1.13847e-10
-1.91167e-10
-7.33583e-17
1.06939e-10
-1.81125e-10
-1.29561e-16
9.9808e-11
-1.711e-10
-1.52685e-16
9.25494e-11
-1.61142e-10
-1.34683e-16
8.52441e-11
-1.51399e-10
-8.11898e-17
7.79723e-11
-1.41812e-10
-1.55697e-17
7.07982e-11
-1.32482e-10
6.4951e-17
6.37823e-11
-1.23353e-10
1.35383e-16
5.69765e-11
-1.14415e-10
2.00132e-16
5.04198e-11
-1.05712e-10
2.421e-16
4.41534e-11
-9.71032e-11
2.85391e-16
3.8207e-11
-8.86081e-11
3.21534e-16
3.26086e-11
-8.01365e-11
3.11962e-16
2.73822e-11
-7.16453e-11
2.68024e-16
2.25476e-11
-6.30964e-11
2.11011e-16
1.8126e-11
-5.44175e-11
1.55668e-16
1.41354e-11
-4.56098e-11
9.93425e-17
1.05936e-11
-3.6696e-11
5.67447e-17
7.51912e-12
-2.77521e-11
3.41145e-17
4.93189e-12
-1.8963e-11
3.72711e-17
2.85379e-12
-1.06823e-11
6.61736e-17
1.31193e-12
-3.51768e-12
1.10789e-16
3.42197e-13
1.46613e-12
1.64432e-16
2.6045e-12
1.98669e-16
1.46001e-10
-2.65631e-10
1.03495e-16
1.49838e-10
-2.66927e-10
-8.84367e-17
1.52488e-10
-2.66486e-10
-6.57233e-16
1.53933e-10
-2.6438e-10
-3.72798e-16
1.5418e-10
-2.60695e-10
-1.23857e-16
1.53258e-10
-2.55614e-10
1.90804e-16
1.51225e-10
-2.49248e-10
3.72578e-16
1.48155e-10
-2.41798e-10
4.26743e-16
1.44144e-10
-2.33442e-10
3.89102e-16
1.39297e-10
-2.24357e-10
2.87578e-16
1.33729e-10
-2.14724e-10
1.7312e-16
1.27558e-10
-2.04709e-10
6.58726e-17
1.20901e-10
-1.94471e-10
1.56423e-17
1.13872e-10
-1.8414e-10
-5.38905e-17
1.06582e-10
-1.73835e-10
-1.15665e-16
9.91302e-11
-1.6365e-10
-1.4505e-16
9.16112e-11
-1.53623e-10
-1.37329e-16
8.4103e-11
-1.43892e-10
-9.44247e-17
7.66816e-11
-1.3439e-10
-3.99777e-17
6.94067e-11
-1.25207e-10
3.05973e-17
6.23337e-11
-1.16279e-10
9.27262e-17
5.55093e-11
-1.07589e-10
1.5194e-16
4.89676e-11
-9.91682e-11
1.92085e-16
4.27448e-11
-9.08777e-11
2.35656e-16
3.68659e-11
-8.27264e-11
2.71415e-16
3.13551e-11
-7.46227e-11
2.7373e-16
2.62326e-11
-6.65198e-11
2.45561e-16
2.15149e-11
-5.83762e-11
2.04534e-16
1.722e-11
-5.01204e-11
1.6205e-16
1.33632e-11
-4.17513e-11
1.14351e-16
9.95927e-12
-3.32909e-11
7.47088e-17
7.02371e-12
-2.48157e-11
4.88022e-17
4.57243e-12
-1.65109e-11
4.40374e-17
2.62203e-12
-8.73097e-12
6.0697e-17
1.19183e-12
-2.08608e-12
9.21918e-17
3.05679e-13
2.3543e-12
1.32822e-16
2.91251e-12
1.59615e-16
1.53798e-10
-2.70231e-10
1.58457e-16
1.57158e-10
-2.70289e-10
-1.59498e-16
1.59237e-10
-2.68571e-10
-6.36952e-16
1.60038e-10
-2.65184e-10
-4.45079e-16
1.59585e-10
-2.60243e-10
-1.39816e-16
1.57932e-10
-2.53959e-10
1.20539e-16
1.55155e-10
-2.46467e-10
3.44998e-16
1.51348e-10
-2.37988e-10
3.77471e-16
1.46624e-10
-2.28715e-10
3.62864e-16
1.41103e-10
-2.18833e-10
2.58659e-16
1.3491e-10
-2.08529e-10
1.69724e-16
1.28173e-10
-1.9797e-10
6.60519e-17
1.21015e-10
-1.87313e-10
2.55955e-17
1.13553e-10
-1.76678e-10
-4.79086e-17
1.05896e-10
-1.6618e-10
-1.10781e-16
9.81445e-11
-1.55899e-10
-1.48695e-16
9.03893e-11
-1.45869e-10
-1.48389e-16
8.27039e-11
-1.36208e-10
-1.15888e-16
7.51597e-11
-1.26847e-10
-7.03375e-17
6.78105e-11
-1.17858e-10
-8.26267e-18
6.07063e-11
-1.09174e-10
4.76572e-17
5.38878e-11
-1.00769e-10
1.03018e-16
4.73838e-11
-9.26631e-11
1.42498e-16
4.12254e-11
-8.47171e-11
1.89212e-16
3.5433e-11
-7.69316e-11
2.19919e-16
3.00265e-11
-6.92137e-11
2.3272e-16
2.50226e-11
-6.15132e-11
2.1791e-16
2.04343e-11
-5.37856e-11
1.91393e-16
1.6277e-11
-4.59608e-11
1.61299e-16
1.2563e-11
-3.80355e-11
1.22437e-16
9.30441e-12
-3.0031e-11
8.6514e-17
6.51379e-12
-2.20241e-11
5.83477e-17
4.20328e-12
-1.41996e-11
4.68297e-17
2.38435e-12
-6.91122e-12
5.24532e-17
1.06872e-12
-7.69404e-13
7.1965e-17
2.68197e-13
3.15625e-12
1.00678e-16
3.18234e-12
1.19794e-16
1.61837e-10
-2.74359e-10
7.5203e-17
1.64615e-10
-2.73067e-10
-9.75657e-17
1.66022e-10
-2.69984e-10
-7.08677e-16
1.66081e-10
-2.65248e-10
-4.32378e-16
1.64844e-10
-2.59006e-10
-2.00229e-16
1.62384e-10
-2.51498e-10
1.07272e-16
1.58802e-10
-2.42881e-10
2.96362e-16
1.5421e-10
-2.33394e-10
3.59335e-16
1.48738e-10
-2.2324e-10
3.25466e-16
1.42521e-10
-2.12614e-10
2.43589e-16
1.35694e-10
-2.01701e-10
1.56384e-16
1.28393e-10
-1.90667e-10
6.69287e-17
1.20743e-10
-1.79662e-10
2.46564e-17
1.12863e-10
-1.68799e-10
-4.77588e-17
1.04863e-10
-1.5818e-10
-1.15995e-16
9.68375e-11
-1.47876e-10
-1.59485e-16
8.88746e-11
-1.37907e-10
-1.67357e-16
8.10418e-11
-1.28377e-10
-1.43155e-16
7.34044e-11
-1.1921e-10
-1.05682e-16
6.601e-11
-1.10464e-10
-5.02138e-17
5.89021e-11
-1.02066e-10
9.13026e-19
5.21153e-11
-9.39814e-11
5.40849e-17
4.56728e-11
-8.62198e-11
9.43812e-17
3.96002e-11
-7.86429e-11
1.41961e-16
3.39132e-11
-7.12429e-11
1.69104e-16
2.86278e-11
-6.39263e-11
1.9022e-16
2.37568e-11
-5.66399e-11
1.87779e-16
1.93105e-11
-4.93372e-11
1.7427e-16
1.53009e-11
-4.19492e-11
1.55412e-16
1.17382e-11
-3.4471e-11
1.25107e-16
8.63189e-12
-2.69233e-11
9.36342e-17
5.99164e-12
-1.93828e-11
6.4742e-17
3.82611e-12
-1.20333e-11
4.83805e-17
2.14185e-12
-5.22631e-12
4.4976e-17
9.43154e-13
4.30001e-13
5.41285e-17
2.29927e-13
3.87036e-12
7.20772e-17
3.41326e-12
8.52706e-17
1.70074e-10
-2.77897e-10
1.31826e-16
1.72153e-10
-2.75147e-10
-1.86535e-16
1.72777e-10
-2.70613e-10
-6.74067e-16
1.71995e-10
-2.64469e-10
-4.9448e-16
1.69883e-10
-2.56895e-10
-1.96227e-16
1.66542e-10
-2.48156e-10
5.67838e-17
1.62095e-10
-2.3843e-10
2.8497e-16
1.56674e-10
-2.27971e-10
3.24123e-16
1.50426e-10
-2.1699e-10
3.09266e-16
1.43499e-10
-2.05684e-10
2.20294e-16
1.36036e-10
-1.94237e-10
1.50405e-16
1.28178e-10
-1.82808e-10
5.97889e-17
1.20054e-10
-1.71538e-10
2.22391e-17
1.11781e-10
-1.60527e-10
-5.55989e-17
1.03465e-10
-1.49866e-10
-1.26041e-16
9.51979e-11
-1.3961e-10
-1.77049e-16
8.70603e-11
-1.2977e-10
-1.91145e-16
7.91135e-11
-1.20432e-10
-1.75044e-16
7.14156e-11
-1.11513e-10
-1.44057e-16
6.40072e-11
-1.03057e-10
-9.41225e-17
5.69248e-11
-9.49838e-11
-4.63723e-17
5.01967e-11
-8.7253e-11
5.81331e-18
4.384e-11
-7.98629e-11
4.76044e-17
3.7875e-11
-7.26768e-11
9.87361e-17
3.23126e-11
-6.56794e-11
1.19114e-16
2.71648e-11
-5.87769e-11
1.47771e-16
2.24409e-11
-5.19142e-11
1.55515e-16
1.81482e-11
-4.50427e-11
1.53381e-16
1.42963e-11
-3.80954e-11
1.44793e-16
1.08927e-11
-3.10658e-11
1.22682e-16
7.94487e-12
-2.39741e-11
9.58819e-17
5.45976e-12
-1.68966e-11
6.68882e-17
3.44276e-12
-1.00156e-11
4.6586e-17
1.89574e-12
-3.67881e-12
3.51776e-17
8.15775e-13
1.51034e-12
3.50126e-17
1.9106e-13
4.49545e-12
4.31659e-17
3.60471e-12
4.99509e-17
1.78453e-10
-2.80712e-10
4.27707e-17
1.79704e-10
-2.764e-10
-1.14255e-16
1.79425e-10
-2.7034e-10
-7.40039e-16
1.77695e-10
-2.62743e-10
-4.74419e-16
1.74619e-10
-2.5382e-10
-2.45787e-16
1.70324e-10
-2.4386e-10
5.4131e-17
1.64957e-10
-2.3306e-10
2.49701e-16
1.58671e-10
-2.21682e-10
3.15445e-16
1.51627e-10
-2.09944e-10
2.83928e-16
1.43983e-10
-1.98038e-10
2.10575e-16
1.35892e-10
-1.86144e-10
1.39001e-16
1.27495e-10
-1.7441e-10
5.59731e-17
1.18921e-10
-1.62964e-10
1.44021e-17
1.10286e-10
-1.51893e-10
-6.52851e-17
1.0169e-10
-1.41271e-10
-1.41134e-16
9.3217e-11
-1.3114e-10
-1.97896e-16
8.49422e-11
-1.21497e-10
-2.18663e-16
7.69183e-11
-1.12411e-10
-2.09338e-16
6.91953e-11
-1.03792e-10
-1.8414e-16
6.18062e-11
-9.56693e-11
-1.38576e-16
5.478e-11
-8.79586e-11
-9.32031e-17
4.81383e-11
-8.06115e-11
-4.09905e-17
4.18923e-11
-7.36172e-11
3.38374e-18
3.60568e-11
-6.68405e-11
5.59746e-17
3.06379e-11
-6.02599e-11
7.19636e-17
2.56439e-11
-5.37819e-11
1.0657e-16
2.10808e-11
-4.73496e-11
1.23703e-16
1.6953e-11
-4.09134e-11
1.31414e-16
1.32678e-11
-3.44084e-11
1.31668e-16
1.00307e-11
-2.78271e-11
1.16988e-16
7.24678e-12
-2.11888e-11
9.50314e-17
4.92085e-12
-1.45697e-11
6.69387e-17
3.05521e-12
-8.14931e-12
4.41892e-17
1.6473e-12
-2.27059e-12
2.64714e-17
6.87262e-13
2.47044e-12
1.84456e-17
1.51807e-13
5.03081e-12
1.78227e-17
3.75634e-12
1.98373e-17
1.86893e-10
-2.82654e-10
1.97269e-16
1.87178e-10
-2.76686e-10
-1.55607e-16
1.85871e-10
-2.69039e-10
-6.92632e-16
1.83085e-10
-2.59961e-10
-5.19166e-16
1.78957e-10
-2.49693e-10
-2.35066e-16
1.73641e-10
-2.38544e-10
2.13121e-17
1.67307e-10
-2.26723e-10
2.47938e-16
1.60127e-10
-2.145e-10
2.95072e-16
1.52276e-10
-2.0209e-10
2.77393e-16
1.4392e-10
-1.8968e-10
1.97118e-16
1.35216e-10
-1.77439e-10
1.35393e-16
1.26307e-10
-1.655e-10
4.90843e-17
1.17318e-10
-1.53975e-10
7.84836e-18
1.08359e-10
-1.42935e-10
-7.79064e-17
9.95243e-11
-1.32437e-10
-1.57514e-16
9.0889e-11
-1.22507e-10
-2.21113e-16
8.25189e-11
-1.13128e-10
-2.47563e-16
7.44582e-11
-1.04353e-10
-2.4463e-16
6.67482e-11
-9.60834e-11
-2.24354e-16
5.94133e-11
-8.83365e-11
-1.82354e-16
5.24752e-11
-8.10218e-11
-1.38592e-16
4.59484e-11
-7.40853e-11
-8.55626e-17
3.98381e-11
-6.75075e-11
-3.84187e-17
3.41537e-11
-6.11559e-11
1.78861e-17
2.88971e-11
-5.50031e-11
2.7811e-17
2.40726e-11
-4.89568e-11
6.8049e-17
1.96832e-11
-4.29591e-11
9.27461e-17
1.5731e-11
-3.69599e-11
1.08686e-16
1.22209e-11
-3.08968e-11
1.16511e-16
9.15651e-12
-2.47612e-11
1.08389e-16
6.54129e-12
-1.85724e-11
9.09211e-17
4.3778e-12
-1.24053e-11
6.38503e-17
2.66557e-12
-6.43653e-12
3.91643e-17
1.39792e-12
-1.0028e-12
1.59206e-17
5.58347e-13
3.30978e-12
9.37256e-19
1.12395e-13
5.47622e-12
-7.51698e-18
3.86805e-12
-1.07819e-17
1.95301e-10
-2.83562e-10
8.79519e-17
1.9447e-10
-2.75856e-10
-1.18762e-16
1.92004e-10
-2.66579e-10
-7.53756e-16
1.88054e-10
-2.56015e-10
-5.1413e-16
1.82789e-10
-2.44429e-10
-2.75134e-16
1.76391e-10
-2.32145e-10
1.81113e-17
1.69053e-10
-2.19382e-10
2.26182e-16
1.60963e-10
-2.06408e-10
2.92548e-16
1.52306e-10
-1.93431e-10
2.65859e-16
1.43256e-10
-1.80628e-10
1.94258e-16
1.33968e-10
-1.6815e-10
1.3081e-16
1.24584e-10
-1.56115e-10
4.62371e-17
1.15224e-10
-1.44614e-10
5.33499e-19
1.05988e-10
-1.33701e-10
-8.97836e-17
9.6962e-11
-1.23413e-10
-1.74635e-16
8.82117e-11
-1.13759e-10
-2.44541e-16
7.97925e-11
-1.04711e-10
-2.76499e-16
7.17385e-11
-9.63019e-11
-2.79418e-16
6.40815e-11
-8.84287e-11
-2.63354e-16
5.68374e-11
-8.10948e-11
-2.24408e-16
5.00199e-11
-7.42061e-11
-1.81544e-16
4.36366e-11
-6.77031e-11
-1.27245e-16
3.7687e-11
-6.15589e-11
-7.66158e-17
3.21753e-11
-5.56443e-11
-1.83686e-17
2.70989e-11
-4.9927e-11
-1.16662e-17
2.24589e-11
-4.43166e-11
3.3037e-17
1.82556e-11
-3.87549e-11
6.46069e-17
1.44886e-11
-3.3192e-11
8.73509e-17
1.11611e-11
-2.7568e-11
1.01267e-16
8.27503e-12
-2.18739e-11
9.86418e-17
5.83233e-12
-1.61285e-11
8.53819e-17
3.83368e-12
-1.04058e-11
5.98103e-17
2.27611e-12
-4.87851e-12
3.42012e-17
1.14909e-12
1.2418e-13
6.73273e-18
4.29818e-13
4.02855e-12
-1.39775e-17
7.30726e-14
5.83202e-12
-2.93418e-17
3.93997e-12
-3.63022e-17
2.0355e-10
-2.83257e-10
1.76137e-16
2.01447e-10
-2.73754e-10
-1.45466e-16
1.97693e-10
-2.62831e-10
-7.38439e-16
1.92475e-10
-2.50802e-10
-5.41936e-16
1.85997e-10
-2.37953e-10
-2.72177e-16
1.78469e-10
-2.24616e-10
3.98832e-18
1.70103e-10
-2.11013e-10
2.28751e-16
1.611e-10
-1.97403e-10
2.88307e-16
1.51654e-10
-1.83983e-10
2.67669e-16
1.41939e-10
-1.70911e-10
1.92924e-16
1.32109e-10
-1.58319e-10
1.32105e-16
1.22299e-10
-1.46304e-10
4.44574e-17
1.12619e-10
-1.34935e-10
-4.69953e-18
1.03162e-10
-1.24244e-10
-1.00752e-16
9.39995e-11
-1.14252e-10
-1.90911e-16
8.51872e-11
-1.0495e-10
-2.66895e-16
7.67687e-11
-9.62948e-11
-3.04324e-16
6.87674e-11
-8.83039e-11
-3.12308e-16
6.12053e-11
-8.08692e-11
-3.00237e-16
5.40894e-11
-7.39816e-11
-2.63627e-16
4.74255e-11
-6.75445e-11
-2.21408e-16
4.12145e-11
-6.14936e-11
-1.65332e-16
3.54502e-11
-5.5796e-11
-1.11415e-16
3.01318e-11
-5.03264e-11
-4.9598e-17
2.5253e-11
-4.50489e-11
-4.65793e-17
2.08118e-11
-3.98754e-11
2.47261e-18
1.68058e-11
-3.47484e-11
3.94697e-17
1.32328e-11
-2.96183e-11
6.75849e-17
1.00944e-11
-2.44285e-11
8.62487e-17
7.39131e-12
-1.91696e-11
8.7966e-17
5.12403e-12
-1.38602e-11
7.8131e-17
3.29173e-12
-8.57276e-12
5.37265e-17
1.8892e-12
-3.47563e-12
2.72938e-17
9.02362e-13
1.1108e-12
-3.90976e-18
3.02508e-13
4.62763e-12
-2.96407e-17
3.41029e-14
6.09911e-12
-5.10405e-17
3.97249e-12
-6.2191e-17
2.11494e-10
-2.8155e-10
2.46471e-16
2.07958e-10
-2.70218e-10
-9.27462e-17
2.02785e-10
-2.57664e-10
-7.39809e-16
1.96204e-10
-2.44226e-10
-5.46473e-16
1.88451e-10
-2.302e-10
-2.89591e-16
1.79759e-10
-2.15923e-10
-3.97996e-18
1.70357e-10
-2.01608e-10
2.22668e-16
1.60457e-10
-1.87501e-10
2.88796e-16
1.50254e-10
-1.73778e-10
2.69916e-16
1.3992e-10
-1.60575e-10
1.96075e-16
1.29604e-10
-1.48001e-10
1.36031e-16
1.19428e-10
-1.36127e-10
4.50179e-17
1.09493e-10
-1.24999e-10
-7.53867e-18
9.98761e-11
-1.14629e-10
-1.10308e-16
9.06388e-11
-1.05016e-10
-2.05018e-16
8.18219e-11
-9.61358e-11
-2.87769e-16
7.34572e-11
-8.79327e-11
-3.29596e-16
6.5557e-11
-8.04073e-11
-3.42804e-16
5.81329e-11
-7.34481e-11
-3.33816e-16
5.11832e-11
-6.7035e-11
-2.99516e-16
4.47059e-11
-6.10697e-11
-2.57354e-16
3.86954e-11
-5.5485e-11
-1.99472e-16
3.31402e-11
-5.02424e-11
-1.41849e-16
2.80352e-11
-4.52221e-11
-7.78066e-17
2.33703e-11
-4.03849e-11
-7.56871e-17
1.91408e-11
-3.56463e-11
-2.32213e-17
1.53423e-11
-3.09496e-11
1.85154e-17
1.19711e-11
-2.62465e-11
5.07488e-17
9.02729e-12
-2.14837e-11
7.28377e-17
6.51067e-12
-1.6652e-11
7.77972e-17
4.42076e-12
-1.17693e-11
7.08617e-17
2.75537e-12
-6.90673e-12
4.77075e-17
1.50735e-12
-2.22738e-12
2.10325e-17
6.59394e-13
1.95838e-12
-1.30092e-17
1.77304e-13
5.10872e-12
-4.2817e-17
-4.22935e-15
6.27899e-12
-6.94944e-17
3.96629e-12
-8.33491e-17
2.18944e-10
-2.78248e-10
2.64991e-16
2.13819e-10
-2.65094e-10
-6.40871e-17
2.0711e-10
-2.50962e-10
-7.58779e-16
1.99085e-10
-2.36206e-10
-5.42757e-16
1.90011e-10
-2.21128e-10
-3.00688e-16
1.80142e-10
-2.06053e-10
1.08067e-18
1.69718e-10
-1.91182e-10
2.23461e-16
1.58956e-10
-1.76737e-10
2.98508e-16
1.48048e-10
-1.62867e-10
2.76034e-16
1.37159e-10
-1.49684e-10
2.05366e-16
1.26425e-10
-1.37266e-10
1.41294e-16
1.15956e-10
-1.25658e-10
4.93134e-17
1.05838e-10
-1.14881e-10
-9.65292e-18
9.61333e-11
-1.04926e-10
-1.16765e-16
8.68873e-11
-9.57723e-11
-2.17869e-16
7.81274e-11
-8.73791e-11
-3.05548e-16
6.98724e-11
-7.96804e-11
-3.52573e-16
6.2123e-11
-7.26617e-11
-3.69629e-16
5.48807e-11
-6.62091e-11
-3.63991e-16
4.81351e-11
-6.02929e-11
-3.3119e-16
4.18769e-11
-5.48144e-11
-2.89187e-16
3.60943e-11
-4.97046e-11
-2.29118e-16
3.07711e-11
-4.49212e-11
-1.6823e-16
2.5898e-11
-4.03499e-11
-1.01053e-16
2.1462e-11
-3.59502e-11
-9.94439e-17
1.74561e-11
-3.1641e-11
-4.36644e-17
1.38741e-11
-2.73675e-11
1.73104e-18
1.07112e-11
-2.30832e-11
3.69383e-17
7.96637e-12
-1.87381e-11
6.12397e-17
5.63872e-12
-1.43234e-11
6.82203e-17
3.72706e-12
-9.8568e-12
6.31826e-17
2.22815e-12
-5.40728e-12
4.06285e-17
1.13315e-12
-1.13227e-12
1.34627e-17
4.21912e-13
2.66907e-12
-2.3234e-17
5.5138e-14
5.47426e-12
-5.66405e-17
-4.16238e-14
6.37379e-12
-8.78649e-17
3.92235e-12
-1.0492e-16
2.25691e-10
-2.73153e-10
3.14785e-16
2.18824e-10
-2.58228e-10
-1.13192e-16
2.10474e-10
-2.42618e-10
-7.28252e-16
2.00946e-10
-2.26682e-10
-5.76626e-16
1.9053e-10
-2.10713e-10
-2.98283e-16
1.79496e-10
-1.95018e-10
-1.94527e-17
1.6809e-10
-1.79773e-10
2.29172e-16
1.56524e-10
-1.65169e-10
2.96255e-16
1.44984e-10
-1.51324e-10
2.87826e-16
1.3362e-10
-1.38317e-10
2.10608e-16
1.22553e-10
-1.26197e-10
1.5145e-16
1.11876e-10
-1.1498e-10
5.21516e-17
1.01658e-10
-1.04662e-10
-7.9306e-18
9.19421e-11
-9.52121e-11
-1.22999e-16
8.2759e-11
-8.65912e-11
-2.27241e-16
7.41209e-11
-7.87442e-11
-3.21669e-16
6.60331e-11
-7.15956e-11
-3.71735e-16
5.8485e-11
-6.51177e-11
-3.93359e-16
5.14682e-11
-5.91958e-11
-3.89781e-16
4.4964e-11
-5.37924e-11
-3.58783e-16
3.89563e-11
-4.88099e-11
-3.16315e-16
3.34278e-11
-4.41785e-11
-2.54299e-16
2.8358e-11
-3.98535e-11
-1.89934e-16
2.37341e-11
-3.57272e-11
-1.20459e-16
1.95406e-11
-3.17582e-11
-1.17039e-16
1.57688e-11
-2.78698e-11
-5.87362e-17
1.24109e-11
-2.40097e-11
-1.04193e-17
9.46135e-12
-2.01333e-11
2.67208e-17
6.91863e-12
-1.61947e-11
5.21945e-17
4.78127e-12
-1.21853e-11
6.02628e-17
3.04764e-12
-8.12242e-12
5.65605e-17
1.71373e-12
-4.07293e-12
3.44603e-17
7.69327e-13
-1.87861e-13
7.03176e-18
1.91716e-13
3.24598e-12
-3.1791e-17
-6.30089e-14
5.72754e-12
-6.81699e-17
-7.77554e-14
6.38628e-12
-1.03387e-16
3.84195e-12
-1.22319e-16
2.3147e-10
-2.66082e-10
2.7672e-16
2.22734e-10
-2.49493e-10
-4.18948e-19
2.12668e-10
-2.32558e-10
-7.60794e-16
2.01606e-10
-2.15625e-10
-5.27386e-16
1.89859e-10
-1.98968e-10
-3.19901e-16
1.77703e-10
-1.82861e-10
2.94227e-18
1.65381e-10
-1.67448e-10
2.23525e-16
1.53096e-10
-1.52882e-10
3.1426e-16
1.41018e-10
-1.39243e-10
2.92634e-16
1.29278e-10
-1.26576e-10
2.25552e-16
1.17979e-10
-1.14896e-10
1.56942e-16
1.07191e-10
-1.04192e-10
5.99303e-17
9.69621e-11
-9.44337e-11
-8.42353e-18
8.73194e-11
-8.5571e-11
-1.25528e-16
7.82746e-11
-7.75484e-11
-2.36432e-16
6.98251e-11
-7.02981e-11
-3.34052e-16
6.1963e-11
-6.37367e-11
-3.8869e-16
5.46668e-11
-5.78257e-11
-4.12792e-16
4.79183e-11
-5.24511e-11
-4.11885e-16
4.16916e-11
-4.75696e-11
-3.81647e-16
3.59643e-11
-4.30859e-11
-3.39026e-16
3.07142e-11
-3.89311e-11
-2.74689e-16
2.59174e-11
-3.5059e-11
-2.07396e-16
2.15582e-11
-3.13693e-11
-1.35397e-16
1.76192e-11
-2.78207e-11
-1.29225e-16
1.40901e-11
-2.43415e-11
-6.85292e-17
1.09624e-11
-2.08822e-11
-1.80038e-17
8.23013e-12
-1.74008e-11
2.02604e-17
5.89129e-12
-1.38552e-11
4.59304e-17
3.94431e-12
-1.02376e-11
5.39721e-17
2.38738e-12
-6.56481e-12
5.05477e-17
1.21595e-12
-2.90115e-12
2.80673e-17
4.18679e-13
6.09303e-13
-1.25413e-19
-2.93227e-14
3.69314e-12
-4.1163e-17
-1.7611e-13
5.87269e-12
-8.02842e-17
-1.12283e-13
6.31994e-12
-1.18943e-16
3.72674e-12
-1.40282e-16
2.36004e-10
-2.56862e-10
4.784e-16
2.25295e-10
-2.38784e-10
-7.10928e-17
2.13467e-10
-2.20736e-10
-6.65137e-16
2.0088e-10
-2.03041e-10
-5.65209e-16
1.87849e-10
-1.85939e-10
-2.90915e-16
1.7465e-10
-1.6966e-10
-2.61349e-17
1.61512e-10
-1.54307e-10
2.37001e-16
1.4862e-10
-1.39988e-10
3.05417e-16
1.36121e-10
-1.26742e-10
3.07619e-16
1.24124e-10
-1.14577e-10
2.27843e-16
1.12706e-10
-1.03476e-10
1.68403e-16
1.01913e-10
-9.33984e-11
6.15679e-17
9.17727e-11
-8.42932e-11
-4.98478e-18
8.2291e-11
-7.60908e-11
-1.30195e-16
7.34624e-11
-6.87219e-11
-2.42141e-16
6.52693e-11
-6.21086e-11
-3.45759e-16
5.76911e-11
-5.61619e-11
-4.01746e-16
5.0696e-11
-5.08349e-11
-4.29452e-16
4.42571e-11
-4.60162e-11
-4.29488e-16
3.83419e-11
-4.16585e-11
-4.00502e-16
3.29228e-11
-3.76703e-11
-3.5697e-16
2.79734e-11
-3.39846e-11
-2.907e-16
2.34672e-11
-3.05552e-11
-2.20369e-16
1.9386e-11
-2.72897e-11
-1.46137e-16
1.57114e-11
-2.41476e-11
-1.35553e-16
1.24321e-11
-2.1063e-11
-7.30909e-17
9.53912e-12
-1.79894e-11
-2.11075e-17
7.02634e-12
-1.48878e-11
1.74659e-17
4.8918e-12
-1.17201e-11
4.262e-17
3.13404e-12
-8.47911e-12
4.99516e-17
1.75128e-12
-5.18142e-12
4.63214e-17
7.38687e-13
-1.88827e-12
2.32158e-17
8.40934e-14
1.2637e-12
-5.76097e-18
-2.39269e-13
4.01553e-12
-4.87971e-17
-2.83093e-13
5.91469e-12
-9.03335e-17
-1.44842e-13
6.17893e-12
-1.32107e-16
3.5787e-12
-1.54724e-16
2.38952e-10
-2.45372e-10
4.26385e-16
2.26218e-10
-2.2605e-10
1.08463e-16
2.12639e-10
-2.07162e-10
-6.93005e-16
1.98582e-10
-1.88989e-10
-4.8165e-16
1.84362e-10
-1.71722e-10
-3.1988e-16
1.70238e-10
-1.55535e-10
2.96539e-18
1.56418e-10
-1.40485e-10
2.20743e-16
1.4306e-10
-1.26627e-10
3.22558e-16
1.30282e-10
-1.13962e-10
3.05317e-16
1.18163e-10
-1.02456e-10
2.41498e-16
1.06752e-10
-9.20627e-11
1.6935e-16
9.60706e-11
-8.27162e-11
6.82454e-17
8.61216e-11
-7.43442e-11
-7.14683e-18
7.68918e-11
-6.68625e-11
-1.3155e-16
6.83581e-11
-6.01904e-11
-2.49543e-16
6.04888e-11
-5.42428e-11
-3.54111e-16
5.32512e-11
-4.89277e-11
-4.13609e-16
4.66042e-11
-4.41924e-11
-4.42119e-16
4.05137e-11
-3.99298e-11
-4.43947e-16
3.49415e-11
-3.60904e-11
-4.14884e-16
2.98555e-11
-3.2588e-11
-3.70857e-16
2.52265e-11
-2.93585e-11
-3.02205e-16
2.10258e-11
-2.6357e-11
-2.29387e-16
1.72339e-11
-2.34993e-11
-1.53257e-16
1.38316e-11
-2.07469e-11
-1.36995e-16
1.08071e-11
-1.80393e-11
-7.28785e-17
8.15157e-12
-1.53339e-11
-1.97723e-17
5.85903e-12
-1.25949e-11
1.86302e-17
3.92779e-12
-9.78827e-12
4.25435e-17
2.35677e-12
-6.90741e-12
4.82194e-17
1.14445e-12
-3.9685e-12
4.33731e-17
2.85957e-13
-1.02955e-12
1.87396e-17
-2.31471e-13
1.78085e-12
-1.16776e-17
-4.36127e-13
4.21908e-12
-5.70065e-17
-3.82842e-13
5.85942e-12
-1.00931e-16
-1.75047e-13
5.96815e-12
-1.45444e-16
3.4002e-12
-1.69896e-16
2.39983e-10
-2.31529e-10
4.5804e-16
2.25222e-10
-2.1129e-10
-9.31216e-17
2.09954e-10
-1.919e-10
-6.33497e-16
1.94541e-10
-1.73579e-10
-5.48618e-16
1.79276e-10
-1.56458e-10
-2.9497e-16
1.64389e-10
-1.40648e-10
-3.95161e-17
1.50058e-10
-1.2615e-10
2.29786e-16
1.36403e-10
-1.1297e-10
3.03185e-16
1.23508e-10
-1.01064e-10
3.15714e-16
1.11418e-10
-9.03639e-11
2.36395e-16
1.00152e-10
-8.07943e-11
1.76635e-16
8.97036e-11
-7.22672e-11
6.48801e-17
8.00527e-11
-6.46934e-11
-5.88535e-18
7.11665e-11
-5.79779e-11
-1.37524e-16
6.30056e-11
-5.20317e-11
-2.54155e-16
5.55251e-11
-4.67659e-11
-3.63304e-16
4.86819e-11
-4.20881e-11
-4.22235e-16
4.24271e-11
-3.79421e-11
-4.53e-16
3.67203e-11
-3.42272e-11
-4.54491e-16
3.1519e-11
-3.08934e-11
-4.25957e-16
2.6788e-11
-2.78608e-11
-3.80518e-16
2.24959e-11
-2.50695e-11
-3.09941e-16
1.86131e-11
-2.24767e-11
-2.34547e-16
1.5119e-11
-2.00068e-11
-1.56286e-16
1.19945e-11
-1.76239e-11
-1.33386e-16
9.22793e-12
-1.52734e-11
-6.80143e-17
6.81068e-12
-1.29167e-11
-1.44909e-17
4.73744e-12
-1.05213e-11
2.313e-17
3.00703e-12
-8.05719e-12
4.53629e-17
1.61892e-12
-5.51861e-12
4.89522e-17
5.72099e-13
-2.92108e-12
4.25299e-17
-1.38172e-13
-3.19084e-13
1.6107e-17
-5.2499e-13
2.16733e-12
-1.59158e-17
-6.1785e-13
4.31073e-12
-6.35327e-17
-4.742e-13
5.71361e-12
-1.09741e-16
-2.02489e-13
5.69324e-12
-1.56852e-16
3.19403e-12
-1.82191e-16
2.38703e-10
-2.15351e-10
3.81731e-16
2.22006e-10
-1.94593e-10
6.28691e-17
2.05194e-10
-1.75094e-10
-6.57989e-16
1.88604e-10
-1.56993e-10
-4.6782e-16
1.72495e-10
-1.40351e-10
-3.27656e-16
1.57056e-10
-1.25209e-10
-1.7517e-17
1.42419e-10
-1.11511e-10
2.03746e-16
1.28664e-10
-9.9213e-11
3.11927e-16
1.15833e-10
-8.82302e-11
3.04102e-16
1.03936e-10
-7.84643e-11
2.43371e-16
9.29581e-11
-6.98148e-11
1.70023e-16
8.28682e-11
-6.21764e-11
6.6471e-17
7.36224e-11
-5.54478e-11
-1.27058e-17
6.51698e-11
-4.95268e-11
-1.40846e-16
5.74564e-11
-4.43206e-11
-2.62261e-16
5.0426e-11