/*--------------------------------*- C++ -*----------------------------------*\
| =========                 |                                                 |
| \\      /  F ield         | OpenFOAM: The Open Source CFD Toolbox           |
|  \\    /   O peration     | Version:  v2012                                 |
|   \\  /    A nd           | Website:  www.openfoam.com                      |
|    \\/     M anipulation  |                                                 |
\*---------------------------------------------------------------------------*/
FoamFile
{
    version     2.0;
    format      ascii;
    class       volVectorField;
    location    "0.4";
    object      U;
}
// * * * * * * * * * * * * * * * * * * * * * * * * * * * * * * * * * * * * * //

dimensions      [0 1 -1 0 0 0 0];


internalField   nonuniform List<vector> 
2664
(
(0.00501487 -0.00978584 -4.37702e-05)
(0.00496924 -0.00918135 -4.33723e-05)
(0.00489242 -0.00857653 -4.27022e-05)
(0.00478619 -0.00797654 -4.17754e-05)
(0.00465282 -0.00738634 -4.06117e-05)
(0.00449489 -0.00681043 -3.92336e-05)
(0.00431535 -0.00625288 -3.7667e-05)
(0.0041174 -0.00571723 -3.59396e-05)
(0.00390446 -0.00520639 -3.40811e-05)
(0.00367996 -0.00472266 -3.21219e-05)
(0.00344734 -0.00426773 -3.00918e-05)
(0.00320994 -0.00384265 -2.80198e-05)
(0.00297088 -0.00344787 -2.59333e-05)
(0.00273304 -0.00308334 -2.38574e-05)
(0.00249898 -0.00274851 -2.18146e-05)
(0.00227095 -0.00244246 -1.98242e-05)
(0.00205086 -0.00216395 -1.79032e-05)
(0.00184023 -0.00191147 -1.60647e-05)
(0.00164029 -0.00168332 -1.43194e-05)
(0.00145192 -0.0014777 -1.26752e-05)
(0.00127572 -0.00129278 -1.11372e-05)
(0.0011121 -0.00112674 -9.70892e-06)
(0.000961141 -0.000977738 -8.39119e-06)
(0.000822808 -0.000844063 -7.18364e-06)
(0.00069691 -0.000724109 -6.08462e-06)
(0.00058312 -0.000616391 -5.09126e-06)
(0.000481031 -0.000519577 -4.20005e-06)
(0.000390163 -0.000432479 -3.40678e-06)
(0.000310016 -0.0003541 -2.70709e-06)
(0.000240076 -0.000283636 -2.0965e-06)
(0.000179828 -0.000220473 -1.5705e-06)
(0.000128776 -0.000164236 -1.12476e-06)
(8.65028e-05 -0.000114829 -7.55659e-07)
(5.26099e-05 -7.25182e-05 -4.59703e-07)
(2.69469e-05 -3.80553e-05 -2.35572e-07)
(9.26769e-06 -1.29229e-05 -8.11912e-08)
(3.03299e-07 6.84727e-07 -4.08877e-09)
(0.00530762 -0.0100279 -4.63255e-05)
(0.0052435 -0.00937807 -4.57664e-05)
(0.00514637 -0.00873114 -4.4919e-05)
(0.00501855 -0.00809262 -4.38037e-05)
(0.00486277 -0.00746771 -4.24444e-05)
(0.00468212 -0.00686108 -4.08681e-05)
(0.00448001 -0.00627685 -3.91044e-05)
(0.00426006 -0.00571849 -3.71849e-05)
(0.00402602 -0.00518879 -3.51424e-05)
(0.00378168 -0.00468982 -3.30099e-05)
(0.00353068 -0.004223 -3.08194e-05)
(0.00327654 -0.00378905 -2.86013e-05)
(0.0030225 -0.0033881 -2.63841e-05)
(0.00277148 -0.00301972 -2.41931e-05)
(0.00252602 -0.00268302 -2.20507e-05)
(0.00228832 -0.00237673 -1.99759e-05)
(0.00206019 -0.00209932 -1.79847e-05)
(0.00184304 -0.00184896 -1.60893e-05)
(0.00163795 -0.00162372 -1.42991e-05)
(0.00144566 -0.00142157 -1.26207e-05)
(0.00126663 -0.00124049 -1.10579e-05)
(0.00110108 -0.00107849 -9.61279e-06)
(0.000948987 -0.00093363 -8.28512e-06)
(0.000810164 -0.000804082 -7.07328e-06)
(0.000684304 -0.000688171 -5.97458e-06)
(0.000570973 -0.000584356 -4.98523e-06)
(0.00046967 -0.000491266 -4.10087e-06)
(0.000379831 -0.00040769 -3.31659e-06)
(0.000300887 -0.000332617 -2.6274e-06)
(0.000232263 -0.00026524 -2.02828e-06)
(0.000173387 -0.000204952 -1.51425e-06)
(0.000123714 -0.000151392 -1.08056e-06)
(8.27787e-05 -0.000104485 -7.23132e-07)
(5.01305e-05 -6.45292e-05 -4.38041e-07)
(2.55542e-05 -3.23194e-05 -2.23399e-07)
(8.73458e-06 -9.40256e-06 -7.65216e-08)
(2.73706e-07 1.92984e-06 -3.74223e-09)
(0.00561649 -0.0102695 -4.90216e-05)
(0.00553092 -0.00957136 -4.82752e-05)
(0.00541063 -0.00887987 -4.72257e-05)
(0.00525844 -0.00820093 -4.58978e-05)
(0.0050777 -0.00753999 -4.43207e-05)
(0.00487202 -0.00690182 -4.25259e-05)
(0.00464532 -0.00629053 -4.05476e-05)
(0.00440164 -0.00570947 -3.84209e-05)
(0.00414512 -0.00516122 -3.61822e-05)
(0.00387983 -0.00464756 -3.38669e-05)
(0.00360966 -0.00416957 -3.15089e-05)
(0.00333826 -0.0037276 -2.91402e-05)
(0.00306894 -0.00332137 -2.67896e-05)
(0.00280463 -0.00295005 -2.44827e-05)
(0.00254785 -0.00261238 -2.22413e-05)
(0.00230066 -0.00230672 -2.00838e-05)
(0.00206479 -0.00203118 -1.8025e-05)
(0.00184148 -0.00178366 -1.60757e-05)
(0.00163164 -0.00156194 -1.42441e-05)
(0.00143585 -0.0013638 -1.2535e-05)
(0.00125439 -0.00118701 -1.0951e-05)
(0.00108733 -0.00102944 -9.49276e-06)
(0.00093448 -0.000889029 -8.1585e-06)
(0.000795524 -0.000763857 -6.94549e-06)
(0.000670026 -0.000652181 -5.84995e-06)
(0.000557444 -0.000552415 -4.86713e-06)
(0.000457182 -0.000463158 -3.99186e-06)
(0.000368597 -0.000383179 -3.21851e-06)
(0.000291048 -0.000311464 -2.54149e-06)
(0.000223901 -0.000247205 -1.95526e-06)
(0.000166533 -0.000189807 -1.45441e-06)
(0.000118354 -0.000138921 -1.03375e-06)
(7.8849e-05 -9.44976e-05 -6.88808e-07)
(4.75206e-05 -5.68644e-05 -4.15239e-07)
(2.40899e-05 -2.68561e-05 -2.106e-07)
(8.17376e-06 -6.07862e-06 -7.16094e-08)
(2.42252e-07 3.08836e-06 -3.37453e-09)
(0.0059418 -0.010509 -5.18612e-05)
(0.00583148 -0.0097593 -5.08987e-05)
(0.00568477 -0.00902077 -4.96187e-05)
(0.00550523 -0.00829962 -4.80521e-05)
(0.00529677 -0.00760145 -4.6233e-05)
(0.00506363 -0.0069311 -4.41985e-05)
(0.00481022 -0.00629256 -4.19871e-05)
(0.00454108 -0.00568902 -3.96383e-05)
(0.00426069 -0.00512273 -3.71911e-05)
(0.00397341 -0.00459515 -3.46839e-05)
(0.00368334 -0.0041069 -3.21523e-05)
(0.00339424 -0.00365791 -2.9629e-05)
(0.00310945 -0.00324744 -2.71433e-05)
(0.00283187 -0.00287422 -2.47205e-05)
(0.00256391 -0.00253656 -2.23817e-05)
(0.00230755 -0.00223244 -2.0144e-05)
(0.00206431 -0.00195961 -1.80209e-05)
(0.00183527 -0.00171565 -1.60217e-05)
(0.00162115 -0.00149811 -1.41526e-05)
(0.00142233 -0.00130452 -1.24171e-05)
(0.00123891 -0.00113247 -1.0816e-05)
(0.00107078 -0.000979711 -9.34833e-06)
(0.000917591 -0.000844044 -8.01109e-06)
(0.00077888 -0.000723484 -6.80021e-06)
(0.000654083 -0.000616227 -5.71078e-06)
(0.000542549 -0.000520647 -4.73711e-06)
(0.000443591 -0.00043532 -3.8732e-06)
(0.000356483 -0.000359009 -3.11275e-06)
(0.00028052 -0.000290694 -2.44958e-06)
(0.000215012 -0.000229577 -1.87765e-06)
(0.000159287 -0.000175074 -1.39113e-06)
(0.00011271 -0.000126855 -9.84464e-07)
(7.47251e-05 -8.48904e-05 -6.52788e-07)
(4.47879e-05 -4.95401e-05 -3.91364e-07)
(2.25584e-05 -2.16746e-05 -1.97213e-07)
(7.58679e-06 -2.95313e-06 -6.64681e-08)
(2.08712e-07 4.16547e-06 -2.98528e-09)
(0.00628373 -0.0107441 -5.48459e-05)
(0.00614486 -0.00993962 -5.36343e-05)
(0.00596823 -0.00915164 -5.20931e-05)
(0.00575802 -0.0083866 -5.02588e-05)
(0.00551892 -0.0076502 -4.81723e-05)
(0.00525573 -0.00694723 -4.58756e-05)
(0.00497347 -0.00628152 -4.34124e-05)
(0.00467711 -0.00565596 -4.08259e-05)
(0.00437151 -0.00507241 -3.81587e-05)
(0.00406129 -0.00453187 -3.54512e-05)
(0.0037507 -0.00403448 -3.27404e-05)
(0.00344357 -0.00357965 -3.00597e-05)
(0.00314323 -0.00316612 -2.74384e-05)
(0.00285251 -0.00279215 -2.49009e-05)
(0.00257369 -0.00245557 -2.24671e-05)
(0.00230854 -0.00215396 -2.01528e-05)
(0.00205842 -0.00188471 -1.79695e-05)
(0.00182417 -0.00164509 -1.59248e-05)
(0.00160631 -0.00143237 -1.40231e-05)
(0.00140499 -0.00124388 -1.22658e-05)
(0.00122012 -0.00107703 -1.0652e-05)
(0.0010514 -0.000929435 -9.17915e-06)
(0.000898307 -0.000798805 -7.84276e-06)
(0.000760236 -0.00068308 -6.63747e-06)
(0.000636493 -0.000580409 -5.55723e-06)
(0.000526315 -0.000489138 -4.59539e-06)
(0.000428925 -0.000407828 -3.74517e-06)
(0.000343521 -0.00033524 -2.99959e-06)
(0.000269335 -0.00027036 -2.35192e-06)
(0.000205623 -0.000212399 -1.79567e-06)
(0.00015167 -0.000160788 -1.32462e-06)
(0.000106802 -0.00011522 -9.32865e-07)
(7.04208e-05 -7.56861e-05 -6.15192e-07)
(4.19413e-05 -4.25741e-05 -3.66495e-07)
(2.09647e-05 -1.67885e-05 -1.83283e-07)
(6.97552e-06 -3.5505e-08 -6.11142e-08)
(1.73181e-07 5.15652e-06 -2.57512e-09)
(0.00664214 -0.0109721 -5.79744e-05)
(0.00647061 -0.0101097 -5.64778e-05)
(0.0062601 -0.00927 -5.46409e-05)
(0.00601571 -0.00845956 -5.25083e-05)
(0.0057428 -0.00768416 -5.01268e-05)
(0.00544692 -0.00694843 -4.75447e-05)
(0.00513361 -0.00625591 -4.48104e-05)
(0.00480832 -0.00560908 -4.19715e-05)
(0.00447624 -0.00500931 -3.90731e-05)
(0.00414222 -0.00445705 -3.61578e-05)
(0.00381062 -0.00395185 -3.32636e-05)
(0.00348528 -0.00349252 -3.04241e-05)
(0.00316948 -0.00307727 -2.76677e-05)
(0.0028659 -0.00270379 -2.50178e-05)
(0.00257662 -0.00236946 -2.24929e-05)
(0.00230322 -0.0020714 -2.01064e-05)
(0.00204679 -0.00180665 -1.78681e-05)
(0.00180795 -0.00157215 -1.57832e-05)
(0.00158694 -0.00136491 -1.38541e-05)
(0.00138372 -0.00118205 -1.20802e-05)
(0.00119796 -0.00102085 -1.04585e-05)
(0.00102916 -0.00087877 -8.98503e-06)
(0.000876631 -0.000753448 -7.65356e-06)
(0.000739614 -0.000642765 -6.45746e-06)
(0.000617286 -0.000544832 -5.38957e-06)
(0.000508778 -0.000457977 -4.4423e-06)
(0.000413223 -0.000380757 -3.60809e-06)
(0.000329749 -0.000311936 -2.87935e-06)
(0.000257526 -0.000250512 -2.24882e-06)
(0.000195765 -0.000195711 -1.7096e-06)
(0.000143709 -0.000146983 -1.25511e-06)
(0.00010065 -0.000104042 -8.79135e-07)
(6.59514e-05 -6.6904e-05 -5.76154e-07)
(3.89914e-05 -3.59811e-05 -3.40722e-07)
(1.93145e-05 -1.22085e-05 -1.6886e-07)
(6.34216e-06 2.66751e-06 -5.55669e-08)
(1.35842e-07 6.05928e-06 -2.14538e-09)
(0.00701676 -0.0111901 -6.12446e-05)
(0.00680782 -0.0102667 -5.94214e-05)
(0.00655921 -0.00937303 -5.7252e-05)
(0.00627679 -0.00851598 -5.47875e-05)
(0.00596682 -0.00770112 -5.20825e-05)
(0.00563549 -0.00693282 -4.91909e-05)
(0.00528895 -0.0062142 -4.61667e-05)
(0.00493308 -0.00554718 -4.30607e-05)
(0.00457338 -0.00493254 -3.99213e-05)
(0.00421485 -0.00437004 -3.6792e-05)
(0.00386191 -0.00385858 -3.37116e-05)
(0.00351837 -0.00339631 -3.07131e-05)
(0.00318735 -0.00298081 -2.78238e-05)
(0.00287133 -0.0026092 -2.50654e-05)
(0.00257217 -0.00227835 -2.24542e-05)
(0.00229116 -0.00198493 -2.00013e-05)
(0.00202912 -0.00172561 -1.7714e-05)
(0.00178638 -0.00149702 -1.55951e-05)
(0.00156293 -0.00129593 -1.36445e-05)
(0.00135845 -0.00111925 -1.18596e-05)
(0.00117239 -0.00096411 -1.02354e-05)
(0.00100406 -0.000827881 -8.76597e-06)
(0.000852585 -0.000708121 -7.44366e-06)
(0.000717051 -0.000602667 -6.26049e-06)
(0.000596509 -0.000509605 -5.20819e-06)
(0.000489988 -0.000427257 -4.27826e-06)
(0.000396536 -0.000354182 -3.4624e-06)
(0.000315212 -0.000289158 -2.75243e-06)
(0.000245137 -0.0002312 -2.14064e-06)
(0.000185474 -0.000179553 -1.61974e-06)
(0.000135435 -0.00013369 -1.18285e-06)
(9.42768e-05 -9.33473e-05 -8.23481e-07)
(6.13345e-05 -5.85631e-05 -5.35828e-07)
(3.59499e-05 -2.97753e-05 -3.14149e-07)
(1.76147e-05 -7.94496e-06 -1.54002e-07)
(5.68923e-06 5.14899e-06 -4.98481e-08)
(9.68562e-08 6.87075e-06 -1.69814e-09)
(0.00740672 -0.0113945 -6.46486e-05)
(0.00715532 -0.010407 -6.24549e-05)
(0.00686391 -0.00945764 -5.9912e-05)
(0.00653944 -0.00855307 -5.70805e-05)
(0.00618897 -0.00769871 -5.40218e-05)
(0.00581944 -0.00689844 -5.07969e-05)
(0.00543754 -0.00615482 -4.7464e-05)
(0.00504957 -0.00546908 -4.40779e-05)
(0.00466126 -0.00484123 -4.06887e-05)
(0.00427771 -0.00427029 -3.73411e-05)
(0.00390333 -0.00375436 -3.40734e-05)
(0.00354178 -0.00329089 -3.09176e-05)
(0.00319598 -0.00287675 -2.78993e-05)
(0.00286815 -0.00250848 -2.50378e-05)
(0.00255983 -0.00218241 -2.23465e-05)
(0.002272 -0.00189477 -1.98341e-05)
(0.00200515 -0.00164184 -1.75048e-05)
(0.00175931 -0.00141996 -1.53588e-05)
(0.00153416 -0.00122566 -1.33935e-05)
(0.00132913 -0.00105568 -1.16037e-05)
(0.00114342 -0.000907016 -9.98252e-06)
(0.000976131 -0.000776947 -8.52218e-06)
(0.000826212 -0.000662979 -7.21345e-06)
(0.0006926 -0.000562918 -6.04705e-06)
(0.000574221 -0.000474839 -5.01362e-06)
(0.000470004 -0.000397069 -4.10379e-06)
(0.000378919 -0.00032818 -3.30861e-06)
(0.000299966 -0.000266968 -2.61932e-06)
(0.000232213 -0.000212473 -2.02781e-06)
(0.000174792 -0.000163964 -1.52647e-06)
(0.00012688 -0.000120939 -1.10814e-06)
(8.77103e-05 -8.31569e-05 -7.66134e-07)
(5.65898e-05 -5.06802e-05 -4.94385e-07)
(3.28298e-05 -2.39692e-05 -2.8689e-07)
(1.58724e-05 -4.00682e-06 -1.38773e-07)
(5.01955e-06 7.40307e-06 -4.39828e-08)
(5.64092e-08 7.5885e-06 -1.2352e-09)
(0.00781098 -0.0115812 -6.81776e-05)
(0.00751134 -0.010527 -6.55628e-05)
(0.00717219 -0.00952036 -6.26032e-05)
(0.00680137 -0.00856787 -5.93671e-05)
(0.00640692 -0.00767441 -5.59247e-05)
(0.00599645 -0.00684327 -5.23423e-05)
(0.0055772 -0.00607621 -4.86834e-05)
(0.00515578 -0.00537362 -4.50052e-05)
(0.00473809 -0.00473462 -4.13596e-05)
(0.00432926 -0.00415731 -3.77912e-05)
(0.00393356 -0.00363896 -3.43374e-05)
(0.00355443 -0.0031762 -3.10283e-05)
(0.00319452 -0.00276518 -2.78867e-05)
(0.00285567 -0.00240182 -2.4929e-05)
(0.00253909 -0.0020819 -2.21656e-05)
(0.00224537 -0.0018012 -1.96017e-05)
(0.00197464 -0.00155563 -1.72385e-05)
(0.00172658 -0.00134125 -1.50732e-05)
(0.00150057 -0.00115438 -1.31003e-05)
(0.00129574 -0.000991594 -1.13123e-05)
(0.00111106 -0.000849782 -9.70009e-06)
(0.000945416 -0.000726155 -8.25407e-06)
(0.000797576 -0.000618181 -6.96348e-06)
(0.000666334 -0.000523653 -5.81776e-06)
(0.000550496 -0.000440648 -4.8065e-06)
(0.000448899 -0.000367506 -3.91955e-06)
(0.000360442 -0.000302824 -3.14729e-06)
(0.00028407 -0.000245426 -2.48054e-06)
(0.000218811 -0.000194379 -1.91079e-06)
(0.000163763 -0.000148981 -1.43017e-06)
(0.000118082 -0.000108757 -1.03132e-06)
(8.09793e-05 -7.34918e-05 -7.07351e-07)
(5.17387e-05 -4.32706e-05 -4.52013e-07)
(2.96455e-05 -1.85737e-05 -2.5907e-07)
(1.40958e-05 -4.01632e-07 -1.23245e-07)
(4.33625e-06 9.42488e-06 -3.79982e-08)
(1.4672e-08 8.21045e-06 -7.5872e-10)
(0.00822752 -0.0117455 -7.18137e-05)
(0.00787362 -0.0106222 -6.87254e-05)
(0.00748135 -0.00955745 -6.53022e-05)
(0.00705982 -0.00855717 -6.16235e-05)
(0.00661787 -0.00762563 -5.77664e-05)
(0.00616385 -0.00676526 -5.3804e-05)
(0.00570542 -0.00597686 -4.9803e-05)
(0.00524947 -0.00525975 -4.58234e-05)
(0.00480193 -0.00461203 -4.19171e-05)
(0.00436783 -0.00403076 -3.81282e-05)
(0.00395123 -0.00351228 -3.44919e-05)
(0.00355524 -0.00305232 -3.10355e-05)
(0.00318211 -0.00264632 -2.77786e-05)
(0.00283328 -0.00228951 -2.47337e-05)
(0.00250951 -0.00197714 -2.19075e-05)
(0.00221097 -0.00170455 -1.93016e-05)
(0.00193741 -0.00146731 -1.69136e-05)
(0.00168811 -0.00126121 -1.47374e-05)
(0.00146213 -0.00108237 -1.27647e-05)
(0.00125831 -0.000927247 -1.09855e-05)
(0.00107538 -0.000792636 -9.38857e-06)
(0.000911993 -0.000675702 -7.9623e-06)
(0.000766765 -0.000573895 -6.69451e-06)
(0.000638343 -0.000485011 -5.5734e-06)
(0.000525424 -0.000407144 -4.58762e-06)
(0.000426759 -0.000338661 -3.72625e-06)
(0.000341183 -0.00027819 -2.97915e-06)
(0.000267595 -0.00022459 -2.33669e-06)
(0.000204989 -0.000176962 -1.7901e-06)
(0.000152439 -0.000134637 -1.33129e-06)
(0.000109082 -9.71695e-05 -9.52729e-07)
(7.41159e-05 -6.43705e-05 -6.4741e-07)
(4.68047e-05 -3.63471e-05 -4.08917e-07)
(2.64126e-05 -1.35976e-05 -2.30825e-07)
(1.22938e-05 2.86463e-06 -1.07495e-07)
(3.64277e-06 1.12106e-05 -3.19245e-08)
(-2.81531e-08 8.73498e-06 -2.70978e-10)
(0.00865405 -0.011882 -7.55372e-05)
(0.00823912 -0.0106881 -7.19162e-05)
(0.00778823 -0.00956482 -6.79813e-05)
(0.00731145 -0.00851761 -6.38203e-05)
(0.00681861 -0.00754971 -5.95191e-05)
(0.0063186 -0.00666243 -5.51551e-05)
(0.00581947 -0.00585533 -5.07989e-05)
(0.00532821 -0.00512655 -4.65111e-05)
(0.0048507 -0.00447293 -4.23432e-05)
(0.00439172 -0.00389044 -3.8337e-05)
(0.00395496 -0.00337433 -3.45248e-05)
(0.00354312 -0.00291947 -3.09299e-05)
(0.00315794 -0.00252047 -2.75678e-05)
(0.00280038 -0.00217192 -2.44467e-05)
(0.00247069 -0.00186854 -2.15688e-05)
(0.00216857 -0.00160524 -1.89315e-05)
(0.00189331 -0.00137728 -1.65288e-05)
(0.00164384 -0.0011802 -1.43511e-05)
(0.00141886 -0.00100996 -1.2387e-05)
(0.0012169 -0.000862924 -1.06241e-05)
(0.00103645 -0.000735821 -9.04877e-06)
(0.000875965 -0.000625792 -7.64781e-06)
(0.000733889 -0.000530291 -6.40751e-06)
(0.000608739 -0.000447132 -5.31496e-06)
(0.000499111 -0.000374441 -4.3579e-06)
(0.00040368 -0.000310623 -3.52477e-06)
(0.000321229 -0.000254347 -2.80494e-06)
(0.000250617 -0.000204514 -2.18846e-06)
(0.000190814 -0.000160264 -1.66634e-06)
(0.000140874 -0.000120964 -1.23031e-06)
(9.99254e-05 -8.61994e-05 -8.72768e-07)
(6.71544e-05 -5.58089e-05 -5.86614e-07)
(4.1813e-05 -2.99205e-05 -3.65317e-07)
(2.31481e-05 -9.04793e-06 -2.02304e-07)
(1.0476e-05 5.78769e-06 -9.16065e-08)
(2.94287e-06 1.27578e-05 -2.57947e-08)
(-7.18392e-08 9.16097e-06 2.25389e-10)
(0.00908688 -0.0119848 -7.93157e-05)
(0.00860403 -0.0107193 -7.51019e-05)
(0.00808873 -0.00953816 -7.06048e-05)
(0.00755233 -0.00844573 -6.59234e-05)
(0.00700536 -0.00744399 -6.11496e-05)
(0.00645728 -0.00653283 -5.63661e-05)
(0.00591631 -0.00571036 -5.16446e-05)
(0.00538942 -0.00497325 -4.70458e-05)
(0.00488224 -0.004317 -4.26188e-05)
(0.00439916 -0.00373631 -3.84023e-05)
(0.00394339 -0.00322534 -3.44239e-05)
(0.00351703 -0.00277798 -3.07024e-05)
(0.00312127 -0.00238807 -2.72478e-05)
(0.00275646 -0.00204954 -2.40634e-05)
(0.0024223 -0.00175659 -2.11464e-05)
(0.00211796 -0.00150374 -1.84899e-05)
(0.0018423 -0.00128596 -1.60835e-05)
(0.0015938 -0.0010986 -1.39143e-05)
(0.00137082 -0.000937494 -1.19677e-05)
(0.00117162 -0.00079892 -1.02288e-05)
(0.000994407 -0.000679588 -8.68178e-06)
(0.000837469 -0.000576635 -7.31175e-06)
(0.000699083 -0.000487541 -6.10366e-06)
(0.000577651 -0.000410156 -5.04356e-06)
(0.000471677 -0.000342652 -4.1184e-06)
(0.000379773 -0.000283482 -3.31605e-06)
(0.000300678 -0.000231366 -2.62552e-06)
(0.000233222 -0.000185252 -2.03659e-06)
(0.000176357 -0.000144325 -1.54011e-06)
(0.000129129 -0.00010799 -1.12775e-06)
(9.06595e-05 -7.58664e-05 -7.91854e-07)
(6.01321e-05 -4.78201e-05 -5.25286e-07)
(3.67908e-05 -2.3999e-05 -3.21449e-07)
(1.987e-05 -4.92925e-06 -1.73665e-07)
(8.65278e-06 8.3651e-06 -7.56703e-08)
(2.24062e-06 1.40651e-05 -1.96443e-08)
(-1.16125e-07 9.48785e-06 7.27431e-10)
(0.00952181 -0.0120471 -8.31126e-05)
(0.00896356 -0.0107102 -7.82407e-05)
(0.00837815 -0.00947288 -7.31316e-05)
(0.00777782 -0.008338 -6.78922e-05)
(0.0071739 -0.0073059 -6.26213e-05)
(0.00657608 -0.00637473 -5.74036e-05)
(0.00599266 -0.00554086 -5.23115e-05)
(0.00543034 -0.00479934 -4.74033e-05)
(0.00489431 -0.00414412 -4.27245e-05)
(0.0043884 -0.00356857 -3.83086e-05)
(0.00391516 -0.00306569 -3.41778e-05)
(0.003476 -0.0026284 -3.03444e-05)
(0.00307141 -0.00224972 -2.68128e-05)
(0.00270108 -0.00192297 -2.35801e-05)
(0.00236409 -0.00164186 -2.06384e-05)
(0.00205907 -0.00140058 -1.79758e-05)
(0.00178437 -0.00119384 -1.55778e-05)
(0.00153806 -0.00101685 -1.34277e-05)
(0.00131815 -0.000865334 -1.1508e-05)
(0.00112261 -0.000735547 -9.80096e-06)
(0.000949417 -0.000624196 -8.28904e-06)
(0.000796671 -0.000528445 -6.95559e-06)
(0.00066251 -0.000445819 -5.78438e-06)
(0.00054523 -0.000374222 -4.76053e-06)
(0.000443261 -0.000311886 -3.87032e-06)
(0.000355161 -0.000257322 -3.10118e-06)
(0.000279637 -0.00020931 -2.44181e-06)
(0.000215502 -0.000166851 -1.88187e-06)
(0.000161697 -0.000129179 -1.4121e-06)
(0.000117267 -9.57391e-05 -1.02417e-06)
(8.13354e-05 -6.6187e-05 -7.10431e-07)
(5.30882e-05 -4.04143e-05 -4.63769e-07)
(3.17667e-05 -1.85881e-05 -2.77566e-07)
(1.65976e-05 -1.24398e-06 -1.45075e-07)
(6.83503e-06 1.05963e-05 -5.97824e-08)
(1.54038e-06 1.51327e-05 -1.35116e-08)
(-1.60718e-07 9.71562e-06 1.23186e-09)
(0.00995277 -0.0120619 -8.6875e-05)
(0.00931181 -0.010655 -8.12811e-05)
(0.00865068 -0.00936438 -7.55111e-05)
(0.00798262 -0.00819098 -6.96805e-05)
(0.00731941 -0.00713304 -6.3892e-05)
(0.00667087 -0.0061866 -5.82314e-05)
(0.00604502 -0.00534606 -5.2769e-05)
(0.0054481 -0.00460457 -4.75587e-05)
(0.00488465 -0.00395447 -4.26405e-05)
(0.00435771 -0.00338768 -3.8041e-05)
(0.00386901 -0.00289601 -3.37752e-05)
(0.00341915 -0.0024714 -2.98483e-05)
(0.0030078 -0.00210612 -2.62576e-05)
(0.00263393 -0.0017929 -2.2994e-05)
(0.00229594 -0.00152501 -2.00436e-05)
(0.00199188 -0.00129636 -1.73894e-05)
(0.00171961 -0.00110145 -1.50126e-05)
(0.00147677 -0.000935389 -1.28927e-05)
(0.00126103 -0.000793867 -1.10094e-05)
(0.00107008 -0.000673127 -9.34241e-06)
(0.000901683 -0.000569911 -7.87234e-06)
(0.00075377 -0.000481437 -6.58107e-06)
(0.000624355 -0.000405296 -5.45129e-06)
(0.000511648 -0.000339465 -4.46735e-06)
(0.000414015 -0.000282247 -3.61499e-06)
(0.000329978 -0.000232224 -2.88132e-06)
(0.000258223 -0.00018824 -2.25485e-06)
(0.000197555 -0.000149356 -1.72517e-06)
(0.000146915 -0.000114857 -1.28304e-06)
(0.000105356 -8.42333e-05 -9.20166e-07)
(7.20072e-05 -5.71742e-05 -6.28973e-07)
(4.60645e-05 -3.35985e-05 -4.02428e-07)
(2.67712e-05 -1.36905e-05 -2.33933e-07)
(1.33513e-05 2.00798e-06 -1.16712e-07)
(5.03449e-06 1.24829e-05 -4.40449e-08)
(8.46846e-07 1.59622e-05 -7.43762e-09)
(-2.05287e-07 9.84493e-06 1.73501e-09)
(0.0103729 -0.0120212 -9.05433e-05)
(0.00964177 -0.0105474 -8.4162e-05)
(0.00889973 -0.00920799 -7.76856e-05)
(0.00816068 -0.00800141 -7.12353e-05)
(0.00743663 -0.00692332 -6.49157e-05)
(0.00673714 -0.00596733 -5.88104e-05)
(0.00606971 -0.00512553 -5.2985e-05)
(0.0054398 -0.00438908 -4.74867e-05)
(0.00485103 -0.00374854 -4.23473e-05)
(0.00430546 -0.00319435 -3.75851e-05)
(0.00380381 -0.00271714 -3.32062e-05)
(0.00334573 -0.0023079 -2.92076e-05)
(0.00293001 -0.00195816 -2.55787e-05)
(0.0025548 -0.00166016 -2.23034e-05)
(0.00221782 -0.00140679 -1.93617e-05)
(0.00191651 -0.00119173 -1.67314e-05)
(0.0016482 -0.00100936 -1.43893e-05)
(0.00141016 -0.000854711 -1.23113e-05)
(0.00119971 -0.000723495 -1.04741e-05)
(0.00101429 -0.000611987 -8.85535e-06)
(0.000851453 -0.000516998 -7.43385e-06)
(0.000708998 -0.000435823 -6.19021e-06)
(0.000584832 -0.00036614 -5.10625e-06)
(0.000477094 -0.000306015 -4.16568e-06)
(0.000384107 -0.000253836 -3.35388e-06)
(0.000304371 -0.000208263 -2.65774e-06)
(0.000236561 -0.000168211 -2.06572e-06)
(0.000179487 -0.000132806 -1.56742e-06)
(0.000132101 -0.000101387 -1.15368e-06)
(9.34668e-05 -7.34891e-05 -8.16352e-07)
(6.27319e-05 -4.88374e-05 -5.47975e-07)
(3.91046e-05 -2.73765e-05 -3.41644e-07)
(2.18362e-05 -9.30608e-06 -1.90827e-07)
(1.01523e-05 4.82929e-06 -8.87641e-08)
(3.26352e-06 1.40286e-05 -2.85658e-08)
(1.65017e-07 1.65568e-05 -1.46625e-09)
(-2.49464e-07 9.8771e-06 2.23283e-09)
(0.010773 -0.0119169 -9.40364e-05)
(0.00994483 -0.0103812 -8.68082e-05)
(0.0091175 -0.00899932 -7.95873e-05)
(0.00830521 -0.00776639 -7.24975e-05)
(0.00751978 -0.00667511 -6.56422e-05)
(0.00677017 -0.00571623 -5.90993e-05)
(0.00606298 -0.00487935 -5.29267e-05)
(0.00540256 -0.00415343 -4.71619e-05)
(0.00479133 -0.0035272 -4.18265e-05)
(0.00423015 -0.00298964 -3.6928e-05)
(0.00371858 -0.00253019 -3.24624e-05)
(0.00325519 -0.00213896 -2.84174e-05)
(0.00283779 -0.00180687 -2.47738e-05)
(0.00246368 -0.00152567 -2.15081e-05)
(0.00212986 -0.00128802 -1.85939e-05)
(0.00183316 -0.0010874 -1.60039e-05)
(0.00157044 -0.000918152 -1.37104e-05)
(0.00133855 -0.000775309 -1.16861e-05)
(0.00113451 -0.000654624 -9.90492e-06)
(0.000955532 -0.00055246 -8.34246e-06)
(0.000799016 -0.000465722 -6.97607e-06)
(0.000662619 -0.00039181 -5.78533e-06)
(0.000544177 -0.000328513 -4.75132e-06)
(0.000441778 -0.000273997 -3.85736e-06)
(0.00035372 -0.000226746 -3.08859e-06)
(0.000278495 -0.000185507 -2.43183e-06)
(0.000214784 -0.000149272 -1.87558e-06)
(0.00016141 -0.000117235 -1.40959e-06)
(0.000117345 -8.87903e-05 -1.02485e-06)
(8.16753e-05 -6.35189e-05 -7.13388e-07)
(5.35688e-05 -4.1182e-05 -4.67957e-07)
(3.2254e-05 -2.17487e-05 -2.81815e-07)
(1.69948e-05 -5.43152e-06 -1.48539e-07)
(7.0232e-06 7.22528e-06 -6.14256e-08)
(1.53508e-06 1.52391e-05 -1.34585e-08)
(-4.99792e-07 1.69213e-05 4.35603e-09)
(-2.92835e-07 9.81418e-06 2.72079e-09)
(0.0111428 -0.0117404 -9.72648e-05)
(0.0102114 -0.0101504 -8.91357e-05)
(0.00929537 -0.00873432 -8.11407e-05)
(0.0084088 -0.0074836 -7.34025e-05)
(0.00756275 -0.00638737 -6.60178e-05)
(0.0067651 -0.00543326 -5.90555e-05)
(0.00602108 -0.00460813 -5.25613e-05)
(0.00533361 -0.00389866 -4.65604e-05)
(0.00470361 -0.00329175 -4.10611e-05)
(0.00413053 -0.00277491 -3.60586e-05)
(0.0036126 -0.00233652 -3.15375e-05)
(0.00314719 -0.00196589 -2.74748e-05)
(0.00273109 -0.0016534 -2.38424e-05)
(0.00236071 -0.00139048 -2.06093e-05)
(0.00203234 -0.00116958 -1.77427e-05)
(0.0017422 -0.00098413 -1.52099e-05)
(0.0014867 -0.000828464 -1.29794e-05)
(0.00126232 -0.000697693 -1.10207e-05)
(0.00106581 -0.000587668 -9.30519e-06)
(0.000894183 -0.000494871 -7.80689e-06)
(0.000744701 -0.000416339 -6.50191e-06)
(0.00061493 -0.0003496 -5.369e-06)
(0.000502652 -0.000292568 -4.3888e-06)
(0.000405929 -0.000243526 -3.54438e-06)
(0.000323051 -0.000201062 -2.82082e-06)
(0.000252519 -0.000164018 -2.20503e-06)
(0.000193033 -0.000131465 -1.68567e-06)
(0.000143442 -0.00010267 -1.2527e-06)
(0.000102746 -7.70828e-05 -8.97366e-07)
(7.00592e-05 -5.43304e-05 -6.11955e-07)
(4.45796e-05 -3.42093e-05 -3.89457e-07)
(2.55599e-05 -1.67115e-05 -2.23352e-07)
(1.22816e-05 -2.06038e-06 -1.0737e-07)
(3.98713e-06 9.20405e-06 -3.49003e-08)
(-1.37239e-07 1.61228e-05 1.15824e-09)
(-1.14194e-06 1.70623e-05 9.97986e-09)
(-3.3494e-07 9.65895e-06 3.19392e-09)
(0.011469 -0.0114838 -0.000100113)
(0.0104298 -0.00984949 -9.10431e-05)
(0.00942358 -0.00840977 -8.22607e-05)
(0.00846341 -0.00715152 -7.38799e-05)
(0.00755916 -0.00605992 -6.59872e-05)
(0.00671701 -0.00511913 -5.86362e-05)
(0.00594042 -0.00431317 -5.18577e-05)
(0.00523044 -0.0036264 -4.56602e-05)
(0.00458626 -0.00304392 -4.0037e-05)
(0.00400566 -0.00255191 -3.49688e-05)
(0.00348543 -0.00213777 -3.04275e-05)
(0.00302167 -0.00179017 -2.63792e-05)
(0.0026101 -0.00149907 -2.27864e-05)
(0.00224626 -0.0012557 -1.96102e-05)
(0.00192571 -0.00105242 -1.68119e-05)
(0.00164413 -0.000882693 -1.43538e-05)
(0.00139749 -0.000740932 -1.22007e-05)
(0.00118196 -0.000622377 -1.03192e-05)
(0.000994071 -0.000523033 -8.6789e-06)
(0.000830653 -0.000439542 -7.25227e-06)
(0.000688881 -0.000369098 -6.01459e-06)
(0.000566258 -0.000309381 -4.94408e-06)
(0.000460542 -0.000258447 -4.02116e-06)
(0.00036979 -0.000214707 -3.22887e-06)
(0.000292307 -0.000176861 -2.55241e-06)
(0.000226618 -0.000143848 -1.9789e-06)
(0.000171455 -0.000114827 -1.49728e-06)
(0.000125704 -8.91327e-05 -1.09782e-06)
(8.84017e-05 -6.62755e-05 -7.72119e-07)
(5.86993e-05 -4.59266e-05 -5.12758e-07)
(3.58281e-05 -2.79164e-05 -3.13032e-07)
(1.90712e-05 -1.2258e-05 -1.66683e-07)
(7.73212e-06 8.17096e-07 -6.76316e-08)
(1.06824e-06 1.07765e-05 -9.39862e-09)
(-1.73926e-06 1.66902e-05 1.51607e-08)
(-1.75548e-06 1.69879e-05 1.5353e-08)
(-3.75259e-07 9.41505e-06 3.64664e-09)
(0.0117375 -0.011139 -0.000102458)
(0.0105878 -0.00947378 -9.24235e-05)
(0.00949174 -0.00802338 -8.28564e-05)
(0.00846078 -0.00676971 -7.38577e-05)
(0.00750262 -0.00569354 -6.54942e-05)
(0.00662123 -0.00477545 -5.78007e-05)
(0.00581772 -0.00399651 -5.0787e-05)
(0.00509095 -0.00333887 -4.44429e-05)
(0.00443804 -0.00278594 -3.87434e-05)
(0.00385499 -0.00232273 -3.36537e-05)
(0.003337 -0.00193584 -2.9132e-05)
(0.00287889 -0.00161346 -2.51329e-05)
(0.0024753 -0.00134531 -2.16097e-05)
(0.00212091 -0.00112253 -1.8516e-05)
(0.00181061 -0.000937536 -1.58072e-05)
(0.0015396 -0.000783895 -1.34413e-05)
(0.00130344 -0.000656196 -1.13797e-05)
(0.00109807 -0.000549869 -9.58679e-06)
(0.000919813 -0.000461116 -8.03063e-06)
(0.00076541 -0.000386777 -6.6827e-06)
(0.000631966 -0.000324231 -5.51772e-06)
(0.00051696 -0.000271328 -4.51369e-06)
(0.000418153 -0.00022628 -3.65108e-06)
(0.000333623 -0.000187632 -2.91311e-06)
(0.000261709 -0.000154206 -2.28526e-06)
(0.000200978 -0.000125042 -1.75503e-06)
(0.000150205 -9.93831e-05 -1.31174e-06)
(0.000108324 -7.66378e-05 -9.46068e-07)
(7.44169e-05 -5.63734e-05 -6.50006e-07)
(4.76784e-05 -3.83052e-05 -4.16521e-07)
(2.73795e-05 -2.22957e-05 -2.39253e-07)
(1.28379e-05 -8.37701e-06 -1.12244e-07)
(3.3831e-06 3.21402e-06 -2.96436e-08)
(-1.70858e-06 1.19566e-05 1.48619e-08)
(-3.25627e-06 1.69544e-05 2.84201e-08)
(-2.3341e-06 1.67086e-05 2.04204e-08)
(-4.13212e-07 9.08696e-06 4.07278e-09)
(0.0119307 -0.0107 -0.000104145)
(0.010671 -0.00902018 -9.31508e-05)
(0.00948868 -0.00757448 -8.28306e-05)
(0.00839234 -0.00633913 -7.3261e-05)
(0.00738696 -0.0052903 -6.44852e-05)
(0.00647346 -0.00440485 -5.65113e-05)
(0.00565025 -0.00366105 -4.93255e-05)
(0.00491356 -0.00303895 -4.28947e-05)
(0.00425828 -0.00252052 -3.71745e-05)
(0.00367845 -0.00208981 -3.21129e-05)
(0.00316769 -0.00173286 -2.76542e-05)
(0.00271949 -0.00143759 -2.37415e-05)
(0.00232746 -0.00119364 -2.03192e-05)
(0.00198549 -0.000992223 -1.73339e-05)
(0.00168789 -0.000825929 -1.47359e-05)
(0.00142939 -0.00068854 -1.24792e-05)
(0.00120529 -0.00057489 -1.05228e-05)
(0.00101129 -0.000480659 -8.82926e-06)
(0.000843631 -0.000402295 -7.36557e-06)
(0.000698973 -0.000336862 -6.10269e-06)
(0.000574405 -0.000281951 -5.01519e-06)
(0.000467419 -0.000235597 -4.08118e-06)
(0.00037581 -0.000196177 -3.28141e-06)
(0.000297703 -0.000162382 -2.59949e-06)
(0.000231487 -0.000133151 -2.0214e-06)
(0.000175789 -0.000107632 -1.53511e-06)
(0.00012944 -8.51522e-05 -1.13043e-06)
(9.14311e-05 -6.51921e-05 -7.98567e-07)
(6.0897e-05 -4.73749e-05 -5.31951e-07)
(3.70817e-05 -3.14586e-05 -3.23987e-07)
(1.93009e-05 -1.73353e-05 -1.68703e-07)
(6.91119e-06 -5.05374e-06 -6.04815e-08)
(-7.28004e-07 5.1469e-06 6.26644e-09)
(-4.31775e-06 1.2761e-05 3.76581e-08)
(-4.67302e-06 1.69309e-05 4.08032e-08)
(-2.87117e-06 1.62361e-05 2.5124e-08)
(-4.48145e-07 8.68008e-06 4.46545e-09)
(0.0120311 -0.0101619 -0.000105023)
(0.0106654 -0.0084874 -9.31027e-05)
(0.00940336 -0.00706416 -8.20867e-05)
(0.00825011 -0.00586243 -7.20201e-05)
(0.00720658 -0.00485365 -6.29112e-05)
(0.00627021 -0.00401114 -5.47375e-05)
(0.00543602 -0.00331056 -4.74558e-05)
(0.00469747 -0.00273018 -4.10086e-05)
(0.00404697 -0.00225084 -3.533e-05)
(0.0034766 -0.00185593 -3.0351e-05)
(0.00297836 -0.00153119 -2.60015e-05)
(0.00254451 -0.00126451 -2.22141e-05)
(0.00216769 -0.00104565 -1.89246e-05)
(0.00184112 -0.000866055 -1.60736e-05)
(0.00155857 -0.000718612 -1.3607e-05)
(0.00131447 -0.000597418 -1.1476e-05)
(0.00110388 -0.000497622 -9.63759e-06)