/*--------------------------------*- C++ -*----------------------------------*\
| =========                 |                                                 |
| \\      /  F ield         | OpenFOAM: The Open Source CFD Toolbox           |
|  \\    /   O peration     | Version:  v2012                                 |
|   \\  /    A nd           | Website:  www.openfoam.com                      |
|    \\/     M anipulation  |                                                 |
\*---------------------------------------------------------------------------*/
FoamFile
{
    version     2.0;
    format      ascii;
    class       volScalarField;
    location    "0.35";
    object      alpha.water;
}
// * * * * * * * * * * * * * * * * * * * * * * * * * * * * * * * * * * * * * //

dimensions      [0 0 0 0 0 0 0];


internalField   nonuniform List<scalar> 
2619
(
-3.386e-58
-2.55231e-59
-1.24802e-60
2.78404e-81
1.3773e-62
2.52628e-60
8.62416e-59
3.16543e-57
3.92749e-56
4.25417e-55
3.43418e-54
1.56687e-53
4.48025e-53
8.62689e-53
1.33029e-52
5.13498e-53
-7.83895e-58
-7.75598e-58
-4.1027e-59
2.16531e-79
4.67258e-60
4.88954e-58
6.10777e-56
2.12924e-54
7.27465e-53
9.00055e-52
1.04308e-50
8.39015e-50
3.90638e-49
1.12584e-48
2.24277e-48
3.41976e-48
3.02076e-48
6.4625e-50
-1.06587e-57
-1.59673e-57
1.39976e-78
1.11935e-59
1.71233e-56
1.81796e-54
2.15462e-52
7.92572e-51
2.56347e-49
3.30323e-48
4.01749e-47
3.10478e-46
1.43248e-45
4.15999e-45
8.17846e-45
1.23512e-44
1.07272e-44
7.85373e-45
1.84188e-46
1.31125e-57
-6.53587e-58
-1.99341e-75
3.35223e-56
6.05045e-53
6.37996e-51
7.70984e-49
3.09245e-47
9.70433e-46
1.20481e-44
8.28841e-44
6.99768e-43
3.25493e-42
9.32559e-42
1.80912e-41
2.67249e-41
2.30792e-41
1.71691e-41
8.95659e-42
3.73817e-54
3.64337e-60
1.86607e-56
1.18038e-52
2.1158e-49
2.46883e-47
2.7004e-45
6.34402e-44
2.10451e-42
2.53051e-41
4.31142e-40
3.94369e-39
1.8121e-38
5.31182e-38
1.08853e-37
1.74694e-37
1.63043e-37
1.21452e-37
6.12369e-38
2.44335e-52
4.08163e-56
6.78253e-53
3.64677e-49
7.72732e-46
4.88599e-44
6.14822e-42
2.80682e-40
1.13022e-38
1.47094e-37
1.7516e-36
1.27767e-35
5.72065e-35
1.62207e-34
3.04838e-34
4.33846e-34
3.59432e-34
2.71183e-34
1.42471e-34
1.57008e-51
1.44855e-52
2.34735e-49
1.47518e-45
1.70555e-42
2.22561e-40
3.10642e-38
1.25912e-36
3.49349e-35
3.95635e-34
2.40173e-33
1.48833e-32
6.96163e-32
2.0525e-31
4.18036e-31
6.84148e-31
6.37236e-31
4.87695e-31
2.58242e-31
1.95909e-51
5.04521e-49
7.848e-46
1.94793e-42
8.57713e-39
9.91891e-37
9.51466e-35
1.76173e-33
4.1401e-32
5.19197e-31
8.96403e-30
1.53914e-28
1.21302e-27
5.04604e-27
1.28824e-26
2.54941e-26
2.5287e-26
1.85824e-26
9.00876e-27
1.3812e-48
1.67531e-45
2.45622e-42
1.1374e-38
2.41868e-35
1.40891e-33
1.13149e-31
5.42752e-30
5.68647e-28
1.54922e-26
4.18079e-25
4.33076e-24
2.0996e-23
6.14026e-23
1.23718e-22
1.89064e-22
1.87017e-22
1.5556e-22
9.60827e-23
4.64807e-45
5.29576e-42
7.35097e-39
3.16807e-35
3.04282e-32
3.92091e-30
2.10723e-27
2.55367e-25
1.15627e-23
1.38578e-22
8.45172e-22
3.20029e-21
8.45532e-21
1.65518e-20
2.56348e-20
3.32412e-20
3.27241e-20
2.89128e-20
2.11739e-20
1.48407e-41
1.58784e-38
2.10603e-35
5.7079e-32
4.08954e-28
2.09441e-25
3.18302e-23
6.80698e-22
5.88537e-21
2.80375e-20
8.79947e-20
2.01931e-19
3.65678e-19
5.46132e-19
7.04454e-19
8.1234e-19
7.99763e-19
7.36746e-19
6.07045e-19
4.48589e-38
4.50989e-35
3.79251e-32
9.02075e-27
1.05473e-23
7.30277e-22
1.16049e-20
7.8738e-20
3.01304e-19
7.76261e-19
1.51924e-18
2.43244e-18
3.3639e-18
4.15181e-18
4.71524e-18
5.0118e-18
4.93623e-18
4.66891e-18
4.15799e-18
3.41294e-18
2.49993e-18
1.54615e-18
7.33015e-19
6.47464e-35
6.12557e-32
6.74634e-26
1.24317e-22
6.7753e-21
8.82892e-20
4.79625e-19
1.49105e-18
3.20101e-18
5.36795e-18
7.6238e-18
9.63171e-18
1.12138e-17
1.2289e-17
1.29011e-17
1.30584e-17
1.28234e-17
1.2279e-17
1.14091e-17
1.01883e-17
8.59932e-18
6.65608e-18
4.46726e-18
1.74683e-31
7.58372e-26
6.48701e-22
3.43254e-20
3.79776e-19
1.71629e-18
4.43558e-18
8.12625e-18
1.19939e-17
1.54282e-17
1.81296e-17
2.00163e-17
2.11911e-17
2.17649e-17
2.18737e-17
2.15889e-17
2.10113e-17
2.01477e-17
1.90303e-17
1.76518e-17
1.59652e-17
1.38849e-17
1.12951e-17
4.15494e-25
1.43549e-21
1.07785e-19
1.10414e-18
4.2828e-18
9.56464e-18
1.54516e-17
2.06982e-17
2.47994e-17
2.77093e-17
2.95291e-17
3.04687e-17
3.07775e-17
3.05931e-17
3.00532e-17
2.91922e-17
2.8071e-17
2.67461e-17
2.52661e-17
2.36618e-17
2.1928e-17
2.00073e-17
1.77669e-17
3.69497e-21
2.10038e-19
2.38015e-18
8.42367e-18
1.6838e-17
2.48692e-17
3.11427e-17
3.56173e-17
3.85939e-17
4.03356e-17
4.10623e-17
4.10925e-17
4.06503e-17
3.97809e-17
3.85158e-17
3.69155e-17
3.50562e-17
3.30198e-17
3.08897e-17
2.87412e-17
2.66238e-17
2.45418e-17
2.2436e-17
4.19122e-19
3.92967e-18
1.395e-17
2.60854e-17
3.62932e-17
4.36058e-17
4.85344e-17
5.17923e-17
5.37197e-17
5.44988e-17
5.4432e-17
5.3877e-17
5.27831e-17
5.11465e-17
4.90122e-17
4.64578e-17
4.35864e-17
4.05125e-17
3.73584e-17
3.42461e-17
3.12847e-17
2.85457e-17
2.60441e-17
6.55409e-18
2.01644e-17
3.7009e-17
4.99149e-17
5.86928e-17
6.45726e-17
6.85553e-17
7.11618e-17
7.23931e-17
7.24699e-17
7.19418e-17
7.07338e-17
6.8782e-17
6.61127e-17
6.28144e-17
5.90004e-17
5.48029e-17
5.03645e-17
4.58341e-17
4.1364e-17
3.71064e-17
3.31988e-17
2.97365e-17
2.94443e-17
4.92321e-17
6.59154e-17
7.71559e-17
8.48716e-17
9.03685e-17
9.41801e-17
9.64214e-17
9.6956e-17
9.65302e-17
9.52832e-17
9.30089e-17
8.97222e-17
8.55415e-17
8.06213e-17
7.51209e-17
6.9205e-17
6.30428e-17
5.68071e-17
5.06673e-17
4.47869e-17
3.9327e-17
3.44366e-17
6.60817e-17
8.43969e-17
9.95616e-17
1.10567e-16
1.18674e-16
1.24579e-16
1.28324e-16
1.29884e-16
1.29678e-16
1.28536e-16
1.26002e-16
1.22047e-16
1.16812e-16
1.10506e-16
1.03351e-16
9.55616e-17
8.7352e-17
7.89361e-17
7.05254e-17
6.23212e-17
5.45006e-17
4.72143e-17
4.06025e-17
1.08704e-16
1.26259e-16
1.42491e-16
1.55003e-16
1.64176e-16
1.7044e-16
1.73655e-16
1.74149e-16
1.73236e-16
1.70638e-16
1.66098e-16
1.5973e-16
1.51814e-16
1.42632e-16
1.32462e-16
1.2158e-16
1.10276e-16
9.88419e-17
8.75544e-17
7.6666e-17
6.6396e-17
5.69062e-17
4.83013e-17
1.60933e-16
1.81475e-16
2.00943e-16
2.15591e-16
2.25886e-16
2.32126e-16
2.34281e-16
2.338e-16
2.31426e-16
2.2639e-16
2.18767e-16
2.08911e-16
1.9723e-16
1.8408e-16
1.69808e-16
1.54762e-16
1.39319e-16
1.23869e-16
1.08778e-16
9.43677e-17
8.09062e-17
6.86032e-17
5.75698e-17
2.32904e-16
2.58576e-16
2.82298e-16
2.99407e-16
3.10875e-16
3.16606e-16
3.17408e-16
3.15728e-16
3.10535e-16
3.01551e-16
2.89274e-16
2.74245e-16
2.57017e-16
2.38096e-16
2.17982e-16
1.97158e-16
1.76112e-16
1.55319e-16
1.35234e-16
1.16249e-16
9.86683e-17
8.27328e-17
6.86056e-17
3.36386e-16
3.68482e-16
3.97477e-16
4.17475e-16
4.29776e-16
4.34106e-16
4.33422e-16
4.28901e-16
4.19021e-16
4.04093e-16
3.84999e-16
3.62429e-16
3.37086e-16
3.097e-16
2.81054e-16
2.51912e-16
2.22991e-16
1.94908e-16
1.6818e-16
1.43231e-16
1.20378e-16
9.98304e-17
8.17548e-17
4.86552e-16
5.269e-16
5.62301e-16
5.85129e-16
5.96998e-16
5.98813e-16
5.95478e-16
5.85192e-16
5.67689e-16
5.43923e-16
5.14952e-16
4.816e-16
4.44756e-16
4.05408e-16
3.64664e-16
3.23665e-16
2.83526e-16
2.45201e-16
2.09376e-16
1.76489e-16
1.46801e-16
1.2043e-16
9.74164e-17
7.04428e-16
7.54865e-16
7.97531e-16
8.22416e-16
8.32024e-16
8.3074e-16
8.21409e-16
8.01428e-16
7.72056e-16
7.34883e-16
6.91208e-16
6.4212e-16
5.88856e-16
5.32781e-16
4.75368e-16
4.18097e-16
3.62457e-16
3.09855e-16
2.61396e-16
2.17692e-16
1.7894e-16
1.45092e-16
1.15944e-16
1.01942e-15
1.08168e-15
1.1323e-15
1.15785e-15
1.16356e-15
1.15762e-15
1.13742e-15
1.10254e-15
1.05532e-15
9.97854e-16
9.31968e-16
8.59387e-16
7.82021e-16
7.01906e-16
6.21129e-16
5.41616e-16
4.65116e-16
3.9328e-16
3.27617e-16
2.69153e-16
2.18199e-16
1.74541e-16
1.37654e-16
1.48105e-15
1.55781e-15
1.61664e-15
1.64019e-15
1.63998e-15
1.62295e-15
1.58434e-15
1.52645e-15
1.45209e-15
1.36382e-15
1.26428e-15
1.15635e-15
1.04315e-15
9.27814e-16
8.13396e-16
7.02627e-16
5.97673e-16
5.00224e-16
4.11791e-16
3.33654e-16
2.66394e-16
2.09766e-16
1.62932e-16
2.17134e-15
2.26653e-15
2.33308e-15
2.35048e-15
2.33996e-15
2.29923e-15
2.22848e-15
2.13255e-15
2.01482e-15
1.87872e-15
1.72787e-15
1.56665e-15
1.39988e-15
1.23248e-15
1.06901e-15
9.13399e-16
7.68591e-16
6.36384e-16
5.17886e-16
4.14064e-16
3.25505e-16
2.51942e-16
1.92279e-16
3.19017e-15
3.31044e-15
3.38672e-15
3.39715e-15
3.36905e-15
3.29091e-15
3.16883e-15
3.01064e-15
2.82219e-15
2.61004e-15
2.37995e-15
2.13825e-15
1.89167e-15
1.64733e-15
1.41203e-15
1.19149e-15
9.89879e-16
8.09432e-16
6.50606e-16
5.13287e-16
3.97365e-16
3.02185e-16
2.26222e-16
4.65525e-15
4.81015e-15
4.90155e-15
4.90736e-15
4.85463e-15
4.72637e-15
4.5328e-15
4.28344e-15
3.98777e-15
3.65751e-15
3.30387e-15
2.9386e-15
2.57221e-15
2.21478e-15
1.87536e-15
1.56138e-15
1.27845e-15
1.02991e-15
8.15947e-16
6.34536e-16
4.83619e-16
3.6131e-16
2.65121e-16
6.85988e-15
7.04496e-15
7.13645e-15
7.11749e-15
7.0084e-15
6.79604e-15
6.49372e-15
6.11197e-15
5.66275e-15
5.16009e-15
4.6212e-15
4.06691e-15
3.5175e-15
2.99084e-15
2.50009e-15
2.05364e-15
1.6565e-15
1.31221e-15
1.0217e-15
7.81417e-16
5.85719e-16
4.29736e-16
3.08976e-16
1.0581e-14
1.07439e-14
1.07597e-14
1.06257e-14
1.03518e-14
9.94178e-15
9.41493e-15
8.78762e-15
8.07966e-15
7.30893e-15
6.49523e-15
5.66274e-15
4.84031e-15
4.05869e-15
3.34249e-15
2.70508e-15
2.14934e-15
1.67394e-15
1.27816e-15
9.58235e-16
7.04787e-16
5.07372e-16
3.57333e-16
1.70598e-14
1.71268e-14
1.69763e-14
1.65692e-14
1.59448e-14
1.51125e-14
1.4108e-14
1.29687e-14
1.17403e-14
1.04654e-14
9.18178e-15
7.91658e-15
6.6924e-15
5.53827e-15
4.48847e-15
3.56884e-15
2.78654e-15
2.13274e-15
1.59647e-15
1.17013e-15
8.41614e-16
5.9336e-16
4.09124e-16
2.74811e-14
2.7503e-14
2.7189e-14
2.64196e-14
2.52628e-14
2.3734e-14
2.18996e-14
1.9835e-14
1.76336e-14
1.53963e-14
1.32218e-14
1.11806e-14
9.30303e-15
7.59246e-15
6.05896e-15
4.72695e-15
3.6132e-15
2.70845e-15
1.98568e-15
1.42142e-15
9.96565e-16
6.85962e-16
4.62454e-16
4.35189e-14
4.35818e-14
4.31111e-14
4.18732e-14
3.99668e-14
3.74262e-14
3.43583e-14
3.08704e-14
2.71171e-14
2.32846e-14
1.95691e-14
1.61368e-14
1.30986e-14
1.04717e-14
8.21073e-15
6.28397e-15
4.69251e-15
3.42871e-15
2.4525e-15
1.71232e-15
1.16799e-15
7.82275e-16
5.14431e-16
6.88131e-14
6.86466e-14
6.76684e-14
6.55206e-14
6.23617e-14
5.82544e-14
5.33607e-14
4.779e-14
4.17401e-14
3.54962e-14
2.94084e-14
2.37677e-14
1.87937e-14
1.46081e-14
1.11757e-14
8.36667e-15
6.0957e-15
4.32661e-15
3.00319e-15
2.0377e-15
1.34996e-15
8.77472e-16
5.61198e-16
1.10529e-13
1.09506e-13
1.07242e-13
1.03162e-13
9.7505e-14
9.03836e-14
8.21795e-14
7.31328e-14
6.35295e-14
5.3673e-14
4.4039e-14
3.51111e-14
2.72318e-14
2.05984e-14
1.52808e-14
1.11219e-14
7.88402e-15
5.42306e-15
3.63617e-15
2.38558e-15
1.53074e-15
9.63884e-16
5.98256e-16
1.85551e-13
1.83227e-13
1.78486e-13
1.70314e-13
1.59256e-13
1.45412e-13
1.29752e-13
1.13169e-13
9.66322e-14
8.06336e-14
6.55103e-14
5.16212e-14
3.94172e-14
2.91571e-14
2.09573e-14
1.47276e-14
1.01014e-14
6.71408e-15
4.33236e-15
2.73469e-15
1.69372e-15
1.03198e-15
6.21884e-16
3.27887e-13
3.2254e-13
3.12819e-13
2.96364e-13
2.74584e-13
2.47312e-13
2.16251e-13
1.83371e-13
1.51548e-13
1.22706e-13
9.75591e-14
7.56874e-14
5.6837e-14
4.11261e-14
2.86623e-14
1.93541e-14
1.27423e-14
8.14424e-15
5.04124e-15
3.05052e-15
1.81949e-15
1.07384e-15
6.31798e-16
5.81229e-13
5.66099e-13
5.47121e-13
5.16709e-13
4.76554e-13
4.267e-13
3.69861e-13
3.08946e-13
2.49125e-13
1.94797e-13
1.4908e-13
1.1203e-13
8.20002e-14
5.7739e-14
3.88948e-14
2.51415e-14
1.57561e-14
9.60555e-15
5.6822e-15
3.29278e-15
1.89404e-15
1.08956e-15
6.33203e-16
1.04471e-12
1.01326e-12
9.67985e-13
9.02057e-13
8.20844e-13
7.25501e-13
6.22788e-13
5.17005e-13
4.13918e-13
3.18553e-13
2.36183e-13
1.69612e-13
1.18542e-13
8.00573e-14
5.17221e-14
3.18952e-14
1.89307e-14
1.09201e-14
6.15389e-15
3.42942e-15
1.91898e-15
1.09031e-15
6.17641e-16
2.1591e-12
2.13828e-12
1.98523e-12
1.76061e-12
1.52708e-12
1.29141e-12
1.06808e-12
8.65197e-13
6.84845e-13
5.22259e-13
3.80312e-13
2.62691e-13
1.72741e-13
1.09216e-13
6.65671e-14
3.89519e-14
2.18696e-14
1.19049e-14
6.40459e-15
3.47136e-15
1.91254e-15
1.05348e-15
5.74378e-16
5.12397e-12
4.90832e-12
4.52153e-12
3.90066e-12
3.24776e-12
2.62372e-12
2.0521e-12
1.55134e-12
1.16202e-12
8.56464e-13
6.05342e-13
4.01673e-13
2.4816e-13
1.44525e-13
8.1455e-14
4.48793e-14
2.39198e-14
1.2407e-14
6.46749e-15
3.42258e-15
1.81682e-15
9.60781e-16
5.02753e-16
1.15181e-11
9.79802e-12
9.13893e-12
8.2438e-12
7.03926e-12
5.70002e-12
4.42111e-12
3.18908e-12
2.15732e-12
1.44122e-12
9.5246e-13
5.94192e-13
3.41672e-13
1.82467e-13
9.42066e-14
4.86301e-14
2.48158e-14
1.25382e-14
6.31791e-15
3.19474e-15
1.61909e-15
8.1942e-16
4.1116e-16
2.35001e-11
1.98854e-11
1.79233e-11
1.64641e-11
1.46461e-11
1.20173e-11
9.14439e-12
6.51799e-12
4.22183e-12
2.48825e-12
1.44842e-12
8.21633e-13
4.32926e-13
2.11937e-13
1.01432e-13
4.9725e-14
2.48389e-14
1.20308e-14
5.71317e-15
2.73453e-15
1.32344e-15
6.4244e-16
3.10327e-16
5.94863e-11
6.65933e-11
5.67204e-11
4.17493e-11
3.2409e-11
2.54852e-11
1.87194e-11
1.22789e-11
7.58224e-12
4.2132e-12
2.13391e-12
1.05359e-12
5.01347e-13
2.27151e-13
1.03979e-13
4.97097e-14
2.35058e-14
1.05726e-14
4.68221e-15
2.12615e-15
9.86575e-16
4.5981e-16
2.15451e-16
2.43758e-10
2.58814e-10
2.45112e-10
1.8946e-10
1.13396e-10
6.01086e-11
3.78001e-11
2.28037e-11
1.21726e-11
6.18245e-12
2.85307e-12
1.2206e-12
5.22724e-13
2.26791e-13
9.89499e-14
4.404e-14
1.92039e-14
7.98421e-15
3.34304e-15
1.46225e-15
6.54264e-16
2.93853e-16
1.3667e-16
7.60195e-10
8.12594e-10
6.72414e-10
6.24023e-10
4.75223e-10
2.23308e-10
8.1341e-11
3.91343e-11
1.86679e-11
8.08801e-12
3.35051e-12
1.31625e-12
5.26937e-13
2.13098e-13
8.58671e-14
3.50513e-14
1.38876e-14
5.30622e-15
2.11039e-15
8.88093e-16
3.80397e-16
1.66607e-16
8.01675e-17
1.75267e-09
4.89262e-09
1.73996e-09
1.03862e-09
8.96746e-10
5.97897e-10
2.15413e-10
6.06568e-11
2.35505e-11
9.11786e-12
3.38959e-12
1.19773e-12
4.19539e-13
1.52255e-13
5.68489e-14
2.14316e-14
7.68176e-15
2.7583e-15
1.07554e-15
4.38718e-16
1.82215e-16
8.28551e-17
4.42364e-17
6.87734e-09
5.77029e-08
1.12721e-08
1.22644e-09
9.74741e-10
8.00662e-10
4.1471e-10
1.0203e-10
2.65412e-11
9.50303e-12
3.27098e-12
1.00391e-12
3.02109e-13
9.84699e-14
3.34492e-14
1.11697e-14
3.56247e-15
1.21747e-15
4.5705e-16
1.77466e-16
7.55171e-17
3.95252e-17
2.61559e-17
6.44994e-08
5.60346e-07
1.34248e-07
2.13254e-08
1.05407e-09
6.59508e-10
4.56499e-10
1.30574e-10
2.36362e-11
6.49678e-12
1.76973e-12
4.18614e-13
1.12357e-13
3.47676e-14
1.02394e-14
2.83043e-15
8.69627e-16
3.07101e-16
1.16629e-16
5.21193e-17
2.96655e-17
2.24767e-17
2.1052e-17
5.79964e-07
6.45984e-06
2.19304e-06
2.3641e-07
3.30525e-09
3.08434e-10
3.57838e-10
1.58563e-10
2.48524e-11
4.88192e-12
1.07264e-12
1.99729e-13
4.80393e-14
1.27079e-14
2.84901e-15
6.77716e-16
1.8533e-16
6.45399e-17
3.21295e-17
2.21323e-17
2.02923e-17
2.02138e-17
1.99019e-17
7.07765e-06
0.000376865
2.25781e-05
6.7784e-07
1.20989e-09
9.92084e-11
9.41099e-11
1.3934e-11
8.42146e-13
7.39305e-14
8.2337e-15
1.25331e-15
2.80982e-16
9.59224e-17
3.82983e-17
2.40781e-17
2.13024e-17
2.07133e-17
2.01383e-17
1.83171e-17
1.33102e-17
7.86593e-18
3.66475e-18
0.000393704
0.0103623
0.000111193
1.51695e-06
2.82359e-08
0.00537225
0.0183658
0.000109212
7.4882e-06
9.38309e-07
0.0120007
0.0264862
0.000529893
0.000146567
4.43283e-05
0.0159185
0.033402
0.0299749
0.0143456
0.0133128
0.150166
0.113839
0.137849
0.188417
0.264925
0.472446
0.452567
0.47246
0.530795
0.644346
0.866294
0.845486
0.887313
0.93396
0.992717
0.999836
0.980913
0.99928
0.999434
0.999475
0.999452
0.994428
0.99775
0.999831
0.981978
0.973571
0.976148
0.990524
0.986989
0.988331
0.98333
0.98705
0.992813
1
0.999991
0.933331
1
0.992956
0.999999
0.95725
0.890185
1
0.989997
0.999999
0.944326
0.891455
0.999431
1
0.980591
1
0.968428
1
1
0.974076
0.993514
0.94877
1
1
1
1
1
0.999968
0.999909
1
0.961946
0.999976
0.967947
0.993489
0.998011
0.999997
1
0.881422
0.861979
0.853398
0.942459
1
0.999934
0.999824
0.74963
0.920452
0.998211
0.732873
0.799638
0.778949
0.976961
0.859755
0.631486
0.814334
0.756129
0.952873
0.740585
0.592076
0.998249
0.995863
0.999207
-1.5298e-54
-9.35688e-55
-8.80947e-56
-4.59174e-57
-1.13102e-58
-8.09816e-80
2.54416e-60
8.59962e-59
3.16053e-57
3.92272e-56
4.2399e-55
3.42071e-54
1.5567e-53
4.46569e-53
8.62485e-53
1.32943e-52
5.1309e-53
-5.65741e-54
-3.28862e-54
-2.47791e-55
-7.80186e-57
8.15734e-78
5.06776e-58
6.10555e-56
2.12849e-54
7.27376e-53
9.00088e-52
1.04339e-50
8.38721e-50
3.90576e-49
1.12572e-48
2.24308e-48
3.421e-48
3.02136e-48
6.465e-50
-1.60446e-53
-9.19893e-54
-4.54251e-55
-3.86574e-77
1.73838e-56
1.81424e-54
2.15396e-52
7.92103e-51
2.56203e-49
3.30364e-48
4.01831e-47
3.10537e-46
1.43298e-45
4.1595e-45
8.17984e-45
1.23547e-44
1.07276e-44
7.85412e-45
1.8415e-46
-2.98914e-53
-1.84035e-53
-1.55577e-72
3.40713e-56
6.05323e-53
6.40819e-51
7.70245e-49
3.09095e-47
9.70173e-46
1.20474e-44
8.28719e-44
6.99991e-43
3.25616e-42
9.32218e-42
1.80948e-41
2.67331e-41
2.30797e-41
1.71706e-41
8.95695e-42
-9.80798e-54
-1.56598e-53
-1.01392e-71
1.17855e-52
2.11389e-49
2.4661e-47
2.70163e-45
6.34077e-44
2.10298e-42
2.52952e-41
4.31197e-40
3.9446e-39
1.81257e-38
5.31211e-38
1.08885e-37
1.74753e-37
1.63064e-37
1.21469e-37
6.12448e-38
1.71087e-52
1.22584e-71
6.78064e-53
3.63911e-49
7.72635e-46
4.86719e-44
6.15166e-42
2.80342e-40
1.13047e-38
1.47085e-37
1.75145e-36
1.27799e-35
5.72224e-35
1.6221e-34
3.0492e-34
4.33947e-34
3.59449e-34
2.7119e-34
1.42469e-34
1.32312e-51
1.44769e-52
2.34736e-49
1.46758e-45
1.70606e-42
2.22408e-40
3.10283e-38
1.25791e-36
3.4931e-35
3.95521e-34
2.40099e-33
1.48863e-32
6.96218e-32
2.05229e-31
4.18161e-31
6.84417e-31
6.37326e-31
4.87764e-31
2.58269e-31
1.71214e-51
5.04524e-49
7.84841e-46
1.92693e-42
8.57768e-39
9.91153e-37
9.51085e-35
1.75599e-33
4.13823e-32
5.19175e-31
8.96419e-30
1.53945e-28
1.21333e-27
5.04759e-27
1.28864e-26
2.5504e-26
2.52917e-26
1.85848e-26
9.00961e-27
1.38094e-48
1.6752e-45
2.45558e-42
1.14035e-38
2.41636e-35
1.40882e-33
1.1295e-31
5.41876e-30
5.68536e-28
1.54909e-26
4.18113e-25
4.33136e-24
2.10004e-23
6.14175e-23
1.23746e-22
1.89105e-22
1.87039e-22
1.55572e-22
9.6089e-23
4.64794e-45
5.29571e-42
7.34966e-39
3.1703e-35
3.03869e-32
3.92005e-30
2.10627e-27
2.55255e-25
1.15605e-23
1.38567e-22
8.45186e-22
3.20054e-21
8.45643e-21
1.65543e-20
2.56385e-20
3.32455e-20
3.27266e-20
2.89142e-20
2.11747e-20
1.48403e-41
1.58782e-38
2.10564e-35
5.71607e-32
4.08837e-28
2.09333e-25
3.18213e-23
6.80561e-22
5.88465e-21
2.80359e-20
8.79951e-20
2.01941e-19
3.65706e-19
5.4618e-19
7.04514e-19
8.12397e-19
7.99801e-19
7.36768e-19
6.07058e-19
4.48573e-38
4.50982e-35
3.78529e-32
9.02046e-27
1.05454e-23
7.30126e-22
1.16029e-20
7.87282e-20
3.0128e-19
7.7623e-19
1.51924e-18
2.43249e-18
3.36402e-18
4.15199e-18
4.71544e-18
5.01197e-18
4.93636e-18
4.66899e-18
4.15803e-18
3.41298e-18
2.49996e-18
1.5462e-18
7.33074e-19
6.47463e-35
6.12558e-32
6.74635e-26
1.24309e-22
6.77457e-21
8.82783e-20
4.79576e-19
1.49095e-18
3.20086e-18
5.36783e-18
7.62377e-18
9.63179e-18
1.1214e-17
1.22892e-17
1.29013e-17
1.30586e-17
1.28236e-17
1.22791e-17
1.14091e-17
1.01883e-17
8.59936e-18
6.65617e-18
4.46743e-18
1.74682e-31
7.58351e-26
6.48698e-22
3.4324e-20
3.79753e-19
1.71618e-18
4.43535e-18
8.12596e-18
1.19936e-17
1.5428e-17
1.81295e-17
2.00163e-17
2.11912e-17
2.17651e-17
2.18738e-17
2.1589e-17
2.10114e-17
2.01478e-17
1.90304e-17
1.76518e-17
1.59652e-17
1.3885e-17
1.12953e-17
4.15479e-25
1.4355e-21
1.07784e-19
1.10411e-18
4.28267e-18
9.56437e-18
1.54512e-17
2.06979e-17
2.47992e-17
2.77092e-17
2.95291e-17
3.04687e-17
3.07775e-17
3.05931e-17
3.00532e-17
2.91923e-17
2.8071e-17
2.67461e-17
2.52661e-17
2.36618e-17
2.1928e-17
2.00073e-17
1.7767e-17
3.69495e-21
2.10038e-19
2.38014e-18
8.42358e-18
1.68378e-17
2.48689e-17
3.11425e-17
3.56172e-17
3.85938e-17
4.03355e-17
4.10623e-17
4.10925e-17
4.06502e-17
3.97809e-17
3.85158e-17
3.69155e-17
3.50562e-17
3.30198e-17
3.08897e-17
2.87412e-17
2.66238e-17
2.45418e-17
2.2436e-17
4.19122e-19
3.92967e-18
1.395e-17
2.60853e-17
3.6293e-17
4.36057e-17
4.85343e-17
5.17923e-17
5.37197e-17
5.44988e-17
5.4432e-17
5.3877e-17
5.27831e-17
5.11465e-17
4.90122e-17
4.64578e-17
4.35864e-17
4.05125e-17
3.73584e-17
3.42461e-17
3.12847e-17
2.85457e-17
2.60441e-17
6.55409e-18
2.01644e-17
3.70089e-17
4.99149e-17
5.86928e-17
6.45726e-17
6.85553e-17
7.11619e-17
7.23932e-17
7.247e-17
7.19418e-17
7.07338e-17
6.8782e-17
6.61127e-17
6.28144e-17
5.90003e-17
5.48029e-17
5.03645e-17
4.58341e-17
4.1364e-17
3.71064e-17
3.31988e-17
2.97365e-17
2.94443e-17
4.92321e-17
6.59154e-17
7.71559e-17
8.48716e-17
9.03685e-17
9.41802e-17
9.64214e-17
9.6956e-17
9.65302e-17
9.52832e-17
9.30089e-17
8.97222e-17
8.55415e-17
8.06213e-17
7.51209e-17
6.9205e-17
6.30428e-17
5.68071e-17
5.06673e-17
4.47869e-17
3.9327e-17
3.44366e-17
6.60817e-17
8.43969e-17
9.95616e-17
1.10567e-16
1.18674e-16
1.24579e-16
1.28324e-16
1.29884e-16
1.29678e-16
1.28536e-16
1.26002e-16
1.22047e-16
1.16812e-16
1.10506e-16
1.03351e-16
9.55616e-17
8.7352e-17
7.89361e-17
7.05254e-17
6.23212e-17
5.45006e-17
4.72143e-17
4.06025e-17
1.08704e-16
1.26259e-16
1.42491e-16
1.55003e-16
1.64176e-16
1.7044e-16
1.73655e-16
1.74149e-16
1.73236e-16
1.70638e-16
1.66098e-16
1.5973e-16
1.51814e-16
1.42632e-16
1.32462e-16
1.2158e-16
1.10276e-16
9.88419e-17
8.75544e-17
7.6666e-17
6.6396e-17
5.69062e-17
4.83013e-17
1.60933e-16
1.81475e-16
2.00943e-16
2.15591e-16
2.25886e-16
2.32126e-16
2.34281e-16
2.338e-16
2.31426e-16
2.2639e-16
2.18767e-16
2.0891e-16
1.9723e-16
1.8408e-16
1.69808e-16
1.54762e-16
1.39319e-16
1.23869e-16
1.08778e-16
9.43677e-17
8.09062e-17
6.86032e-17
5.75698e-17
2.32904e-16
2.58576e-16
2.82298e-16
2.99407e-16
3.10875e-16
3.16606e-16
3.17408e-16
3.15728e-16
3.10535e-16
3.01551e-16
2.89274e-16
2.74245e-16
2.57017e-16
2.38096e-16
2.17982e-16
1.97158e-16
1.76112e-16
1.55319e-16
1.35234e-16
1.16249e-16
9.86683e-17
8.27328e-17
6.86056e-17
3.36386e-16
3.68482e-16
3.97477e-16
4.17475e-16
4.29776e-16
4.34106e-16
4.33421e-16
4.28901e-16
4.19021e-16
4.04093e-16
3.84999e-16
3.62429e-16
3.37086e-16
3.097e-16
2.81054e-16
2.51912e-16
2.22991e-16
1.94908e-16
1.6818e-16
1.43231e-16
1.20378e-16
9.98304e-17
8.17548e-17
4.86552e-16
5.269e-16
5.62301e-16
5.85129e-16
5.96998e-16
5.98813e-16
5.95478e-16
5.85192e-16
5.67689e-16
5.43923e-16
5.14952e-16
4.816e-16
4.44756e-16
4.05408e-16
3.64664e-16
3.23665e-16
2.83526e-16
2.45201e-16
2.09376e-16
1.76489e-16
1.46801e-16
1.2043e-16
9.74164e-17
7.04428e-16
7.54865e-16
7.97531e-16
8.22416e-16
8.32024e-16
8.3074e-16
8.21409e-16
8.01428e-16
7.72056e-16
7.34883e-16
6.91208e-16
6.4212e-16
5.88856e-16
5.32781e-16
4.75369e-16
4.18097e-16
3.62457e-16
3.09855e-16
2.61396e-16
2.17692e-16
1.7894e-16
1.45092e-16
1.15944e-16
1.01942e-15
1.08168e-15
1.1323e-15
1.15785e-15
1.16356e-15
1.15762e-15
1.13742e-15
1.10254e-15
1.05532e-15
9.97854e-16
9.31968e-16
8.59386e-16
7.82021e-16
7.01906e-16
6.21129e-16
5.41616e-16
4.65116e-16
3.9328e-16
3.27617e-16
2.69153e-16
2.18199e-16
1.74541e-16
1.37654e-16
1.48105e-15
1.55781e-15
1.61664e-15
1.64019e-15
1.63998e-15
1.62295e-15
1.58434e-15
1.52645e-15
1.45209e-15
1.36382e-15
1.26428e-15
1.15635e-15
1.04315e-15
9.27814e-16
8.13396e-16
7.02627e-16
5.97673e-16
5.00224e-16
4.11792e-16
3.33654e-16
2.66394e-16
2.09766e-16
1.62932e-16
2.17134e-15
2.26653e-15
2.33308e-15
2.35048e-15
2.33996e-15
2.29923e-15
2.22848e-15
2.13255e-15
2.01482e-15
1.87872e-15
1.72787e-15
1.56665e-15
1.39988e-15
1.23248e-15
1.06901e-15
9.13399e-16
7.68591e-16
6.36384e-16
5.17886e-16
4.14064e-16
3.25505e-16
2.51942e-16
1.92279e-16
3.19017e-15
3.31044e-15
3.38672e-15
3.39715e-15
3.36905e-15
3.29091e-15
3.16883e-15
3.01064e-15
2.82219e-15
2.61004e-15
2.37995e-15
2.13825e-15
1.89167e-15
1.64733e-15
1.41203e-15
1.19149e-15
9.89879e-16
8.09432e-16
6.50606e-16
5.13287e-16
3.97365e-16
3.02185e-16
2.26222e-16
4.65525e-15
4.81015e-15
4.90155e-15
4.90736e-15
4.85463e-15
4.72637e-15
4.5328e-15
4.28344e-15
3.98777e-15
3.65751e-15
3.30387e-15
2.9386e-15
2.57221e-15
2.21478e-15
1.87536e-15
1.56138e-15
1.27845e-15
1.02991e-15
8.15947e-16
6.34536e-16
4.83619e-16
3.6131e-16
2.6512e-16
6.85988e-15
7.04496e-15
7.13645e-15
7.11749e-15
7.0084e-15
6.79604e-15
6.49372e-15
6.11197e-15
5.66275e-15
5.16009e-15
4.6212e-15
4.06691e-15
3.5175e-15
2.99084e-15
2.50009e-15
2.05364e-15
1.6565e-15
1.31221e-15
1.0217e-15
7.81417e-16
5.85719e-16
4.29736e-16
3.08976e-16
1.0581e-14
1.07439e-14
1.07597e-14
1.06257e-14
1.03518e-14
9.94178e-15
9.41493e-15
8.78762e-15
8.07966e-15
7.30893e-15
6.49522e-15
5.66274e-15
4.84031e-15
4.05869e-15
3.34249e-15
2.70508e-15
2.14934e-15
1.67394e-15
1.27816e-15
9.58235e-16
7.04787e-16
5.07372e-16
3.57333e-16
1.70598e-14
1.71268e-14
1.69763e-14
1.65692e-14
1.59448e-14
1.51125e-14
1.4108e-14
1.29687e-14
1.17403e-14
1.04654e-14
9.18178e-15
7.91658e-15
6.69239e-15
5.53827e-15
4.48847e-15
3.56884e-15
2.78654e-15
2.13274e-15
1.59647e-15
1.17013e-15
8.41614e-16
5.9336e-16
4.09124e-16
2.74811e-14
2.7503e-14
2.7189e-14
2.64196e-14
2.52628e-14
2.3734e-14
2.18996e-14
1.98349e-14
1.76336e-14
1.53963e-14
1.32218e-14
1.11806e-14
9.30303e-15
7.59246e-15
6.05896e-15
4.72695e-15
3.6132e-15
2.70845e-15
1.98568e-15
1.42142e-15
9.96565e-16
6.85962e-16
4.62454e-16
4.35189e-14
4.35818e-14
4.31111e-14
4.18732e-14
3.99668e-14
3.74262e-14
3.43583e-14
3.08704e-14
2.71171e-14
2.32846e-14
1.95692e-14
1.61368e-14
1.30986e-14
1.04717e-14
8.21073e-15
6.28397e-15
4.69251e-15
3.42871e-15
2.4525e-15
1.71232e-15
1.16799e-15
7.82275e-16
5.14431e-16
6.88131e-14
6.86466e-14
6.76684e-14
6.55206e-14
6.23617e-14
5.82544e-14
5.33606e-14
4.779e-14
4.17401e-14
3.54962e-14
2.94084e-14
2.37677e-14
1.87937e-14
1.46081e-14
1.11757e-14
8.36667e-15
6.0957e-15
4.32661e-15
3.00319e-15
2.0377e-15
1.34996e-15
8.77472e-16
5.61198e-16
1.10529e-13
1.09506e-13
1.07242e-13
1.03162e-13
9.7505e-14
9.03836e-14
8.21795e-14
7.31328e-14
6.35295e-14
5.3673e-14
4.4039e-14
3.51111e-14
2.72318e-14
2.05984e-14
1.52808e-14
1.11219e-14
7.88402e-15
5.42306e-15
3.63617e-15
2.38558e-15
1.53074e-15
9.63884e-16
5.98255e-16
1.85551e-13
1.83227e-13
1.78486e-13
1.70314e-13
1.59256e-13
1.45412e-13
1.29752e-13
1.13169e-13
9.66322e-14
8.06336e-14
6.55103e-14
5.16212e-14
3.94172e-14
2.91571e-14
2.09573e-14
1.47276e-14
1.01014e-14
6.71408e-15
4.33236e-15
2.73469e-15
1.69372e-15
1.03198e-15
6.21884e-16
3.27887e-13
3.2254e-13
3.12819e-13
2.96365e-13
2.74584e-13
2.47312e-13
2.16251e-13
1.83371e-13
1.51548e-13
1.22706e-13
9.75591e-14
7.56874e-14
5.6837e-14
4.11261e-14
2.86623e-14
1.93541e-14
1.27423e-14
8.14424e-15
5.04125e-15
3.05053e-15
1.81949e-15
1.07384e-15
6.31798e-16
5.81229e-13
5.66099e-13
5.47121e-13
5.16709e-13
4.76554e-13
4.267e-13
3.69861e-13
3.08946e-13
2.49125e-13
1.94797e-13
1.4908e-13
1.1203e-13
8.20002e-14
5.7739e-14
3.88948e-14
2.51415e-14
1.57561e-14
9.60555e-15
5.6822e-15
3.29278e-15
1.89404e-15
1.08956e-15
6.33203e-16
1.04471e-12
1.01326e-12
9.67985e-13
9.02057e-13
8.20844e-13
7.25501e-13
6.22788e-13
5.17005e-13
4.13918e-13
3.18553e-13
2.36183e-13
1.69612e-13
1.18542e-13
8.00573e-14
5.17221e-14
3.18952e-14
1.89307e-14
1.09201e-14
6.15389e-15
3.42942e-15
1.91898e-15
1.09031e-15
6.17641e-16
2.1591e-12
2.13828e-12
1.98523e-12
1.76062e-12
1.52708e-12
1.29141e-12
1.06808e-12
8.65197e-13
6.84845e-13
5.22259e-13
3.80312e-13
2.62691e-13
1.7274e-13
1.09216e-13
6.65671e-14
3.89519e-14
2.18696e-14
1.19049e-14
6.40459e-15
3.47136e-15
1.91254e-15
1.05348e-15
5.74378e-16
5.12397e-12
4.90833e-12
4.52153e-12
3.90066e-12
3.24776e-12
2.62372e-12
2.0521e-12
1.55134e-12
1.16202e-12
8.56464e-13
6.05342e-13
4.01674e-13
2.4816e-13
1.44525e-13
8.1455e-14
4.48793e-14
2.39198e-14
1.2407e-14
6.46749e-15
3.42258e-15
1.81682e-15
9.60781e-16
5.02753e-16
1.15181e-11
9.79802e-12
9.13893e-12
8.2438e-12
7.03926e-12
5.70002e-12
4.42112e-12
3.18908e-12
2.15732e-12
1.44122e-12
9.5246e-13
5.94192e-13
3.41672e-13
1.82467e-13
9.42066e-14
4.86301e-14
2.48158e-14
1.25382e-14
6.31791e-15
3.19474e-15
1.61909e-15
8.1942e-16
4.1116e-16
2.35001e-11
1.98854e-11
1.79233e-11
1.64641e-11
1.46461e-11
1.20173e-11
9.14439e-12
6.518e-12
4.22183e-12
2.48825e-12
1.44842e-12
8.21633e-13
4.32926e-13
2.11937e-13
1.01432e-13
4.9725e-14
2.48389e-14
1.20308e-14
5.71317e-15
2.73453e-15
1.32344e-15
6.4244e-16
3.10327e-16
5.94862e-11
6.65932e-11
5.67204e-11
4.17493e-11
3.2409e-11
2.54851e-11
1.87194e-11
1.22789e-11
7.58225e-12
4.2132e-12
2.13392e-12
1.05359e-12
5.01347e-13
2.27151e-13
1.03979e-13
4.97097e-14
2.35058e-14
1.05726e-14
4.68221e-15
2.12615e-15
9.86575e-16
4.5981e-16
2.15451e-16
2.43758e-10
2.58814e-10
2.45112e-10
1.8946e-10
1.13396e-10
6.01086e-11
3.78e-11
2.28037e-11
1.21726e-11
6.18245e-12
2.85307e-12
1.2206e-12
5.22724e-13
2.26791e-13
9.89499e-14
4.404e-14
1.92039e-14
7.98421e-15
3.34304e-15
1.46225e-15
6.54265e-16
2.93853e-16
1.3667e-16
7.60195e-10
8.12595e-10
6.72414e-10
6.24023e-10
4.75224e-10
2.23309e-10
8.1341e-11
3.91343e-11
1.86678e-11
8.088e-12
3.35052e-12
1.31625e-12
5.26937e-13
2.13098e-13
8.58671e-14
3.50513e-14
1.38876e-14
5.30622e-15
2.11039e-15
8.88094e-16
3.80397e-16
1.66607e-16
8.01675e-17
1.75267e-09
4.89266e-09
1.73996e-09
1.03862e-09
8.96746e-10
5.97898e-10
2.15414e-10
6.06569e-11
2.35504e-11
9.11784e-12
3.38959e-12
1.19773e-12
4.19539e-13
1.52255e-13
5.68489e-14
2.14316e-14
7.68176e-15
2.7583e-15
1.07554e-15
4.38718e-16
1.82215e-16
8.28551e-17
4.42364e-17
6.87736e-09
5.77034e-08
1.12721e-08
1.22644e-09
9.74739e-10
8.00663e-10
4.14711e-10
1.0203e-10
2.65411e-11
9.50301e-12
3.27099e-12
1.00391e-12
3.02109e-13
9.84699e-14
3.34492e-14
1.11697e-14
3.56246e-15
1.21747e-15
4.57051e-16
1.77467e-16
7.55172e-17
3.95252e-17
2.61559e-17
6.45003e-08
5.60349e-07
1.34251e-07
2.13259e-08
1.05408e-09
6.59509e-10
4.565e-10
1.30575e-10
2.36361e-11
6.49676e-12
1.76973e-12
4.18614e-13
1.12357e-13
3.47676e-14
1.02394e-14
2.83043e-15
8.69627e-16
3.07101e-16
1.16629e-16
5.21194e-17
2.96655e-17
2.24767e-17
2.1052e-17
5.79982e-07
6.45994e-06
2.19309e-06
2.36415e-07
3.30539e-09
3.08435e-10
3.57839e-10
1.58564e-10
2.48524e-11
4.88191e-12
1.07264e-12
1.99729e-13
4.80393e-14
1.27079e-14
2.84902e-15
6.77716e-16
1.85331e-16
6.45401e-17
3.21295e-17
2.21322e-17
2.02922e-17
2.02138e-17
1.99019e-17
7.07768e-06