/*--------------------------------*- C++ -*----------------------------------*\
| =========                 |                                                 |
| \\      /  F ield         | OpenFOAM: The Open Source CFD Toolbox           |
|  \\    /   O peration     | Version:  v2012                                 |
|   \\  /    A nd           | Website:  www.openfoam.com                      |
|    \\/     M anipulation  |                                                 |
\*---------------------------------------------------------------------------*/
FoamFile
{
    version     2.0;
    format      ascii;
    class       surfaceScalarField;
    location    "0.35";
    object      phi;
}
// * * * * * * * * * * * * * * * * * * * * * * * * * * * * * * * * * * * * * //

dimensions      [0 3 -1 0 0 0 0];
oriented        oriented;


internalField   nonuniform List<scalar> 
6347
(
1.38984e-13
-2.69414e-12
-3.0882e-15
3.36498e-13
-4.95146e-12
4.39724e-16
5.61759e-13
-7.65886e-12
-1.25299e-15
8.75134e-13
-1.06195e-11
-1.46949e-15
1.26099e-12
-1.39309e-11
2.36556e-15
1.69005e-12
-1.79922e-11
-5.19206e-15
2.3803e-12
-2.15417e-11
-3.71748e-15
3.01747e-12
-2.71206e-11
-1.5234e-16
4.17767e-12
-3.09124e-11
-3.03109e-15
5.20613e-12
-3.77233e-11
8.52357e-16
6.85228e-12
-4.22621e-11
1.05225e-15
8.3774e-12
-4.98454e-11
3.19031e-15
1.0449e-11
-5.55626e-11
-4.12918e-16
1.24939e-11
-6.35532e-11
-2.89807e-16
1.48959e-11
-7.05933e-11
1.14613e-15
-7.8951e-11
-3.27353e-16
3.74793e-14
-8.27961e-13
-7.2157e-17
1.53335e-13
-2.80968e-12
-9.62914e-17
4.08792e-13
-5.20586e-12
-4.51492e-16
7.12377e-13
-7.97325e-12
-7.97633e-16
1.28106e-12
-1.11746e-11
3.38784e-15
1.95937e-12
-1.46105e-11
-1.60928e-15
2.75399e-12
-1.87803e-11
1.18983e-15
3.90915e-12
-2.26924e-11
2.56221e-15
4.84499e-12
-2.80463e-11
-1.2897e-15
6.33058e-12
-3.23949e-11
8.52164e-16
7.49984e-12
-3.88827e-11
9.95458e-16
9.20315e-12
-4.39691e-11
-1.72488e-16
1.06768e-11
-5.13124e-11
-8.34371e-17
1.2602e-11
-5.74865e-11
4.38913e-16
1.44763e-11
-6.54282e-11
8.07652e-16
1.67076e-11
-7.28209e-11
-9.87883e-16
1.90439e-11
-8.12876e-11
3.15461e-16
-8.97472e-11
-2.72858e-16
3.95494e-14
-8.67441e-13
-4.15552e-17
1.65049e-13
-2.93503e-12
-1.87279e-17
3.85462e-13
-5.42536e-12
-5.44482e-16
6.84866e-13
-8.28361e-12
-6.11782e-16
1.10043e-12
-1.15812e-11
1.89617e-15
1.62493e-12
-1.51327e-11
-1.04161e-15
2.22611e-12
-1.93835e-11
1.99057e-16
3.06649e-12
-2.35384e-11
-3.77802e-17
3.93846e-12
-2.89215e-11
-5.00664e-17
5.24081e-12
-3.36942e-11
3.7589e-16
6.5202e-12
-4.01537e-11
-2.83008e-16
8.30848e-12
-4.5756e-11
1.69e-15
1.00757e-11
-5.30657e-11
4.36675e-16
1.2299e-11
-5.97098e-11
7.78911e-16
1.45553e-11
-6.76828e-11
1.1426e-17
1.71379e-11
-7.54051e-11
-3.08537e-16
1.98235e-11
-8.39736e-11
1.32513e-16
2.2725e-11
-9.2647e-11
-5.40287e-17
-1.01807e-10
-5.00102e-17
4.25471e-14
-9.10003e-13
-1.15369e-17
1.82465e-13
-3.07463e-12
-9.44404e-17
4.354e-13
-5.67786e-12
-2.93782e-16
8.1233e-13
-8.67104e-12
-4.43658e-16
1.35783e-12
-1.21164e-11
1.27294e-15
2.07175e-12
-1.58474e-11
-1.14954e-15
2.91777e-12
-2.02332e-11
1.11045e-15
4.0308e-12
-2.46528e-11
-1.08987e-15
5.16376e-12
-3.00569e-11
-1.1224e-16
6.65997e-12
-3.51898e-11
1.50566e-15
8.10349e-12
-4.15926e-11
1.54149e-16
9.93778e-12
-4.75807e-11
-3.61227e-16
1.17535e-11
-5.48702e-11
1.73238e-15
1.39171e-11
-6.1875e-11
1.3e-15
1.61597e-11
-6.99229e-11
-8.60833e-17
1.87052e-11
-7.79524e-11
-1.12131e-15
2.14101e-11
-8.6679e-11
5.00741e-16
2.43565e-11
-9.55928e-11
-1.99983e-16
-1.04932e-10
7.64399e-17
4.56048e-14
-9.55632e-13
-5.1263e-18
1.91977e-13
-3.22067e-12
-1.38621e-16
4.52721e-13
-5.93759e-12
-4.73738e-16
8.17186e-13
-9.04563e-12
-1.64533e-16
1.34268e-12
-1.26303e-11
2.63808e-15
1.98029e-12
-1.64827e-11
-1.33272e-15
2.80952e-12
-2.10445e-11
1.84125e-15
3.80199e-12
-2.56496e-11
-1.16554e-15
4.96027e-12
-3.12088e-11
1.10004e-15
6.39615e-12
-3.66326e-11
7.99121e-16
7.97274e-12
-4.31685e-11
6.40834e-17
9.89822e-12
-4.95012e-11
-9.00328e-16
1.196e-11
-5.69242e-11
8.75868e-16
1.43361e-11
-6.42537e-11
1.49419e-15
1.68643e-11
-7.24495e-11
-3.76608e-16
1.96608e-11
-8.07511e-11
-1.03063e-15
2.26272e-11
-8.9646e-11
5.32347e-16
2.5806e-11
-9.87718e-11
-3.70364e-16
-1.08276e-10
1.28092e-17
4.9241e-14
-1.00486e-12
-1.81671e-17
2.08287e-13
-3.37972e-12
1.93624e-17
4.96324e-13
-6.22538e-12
-8.11294e-17
9.2319e-13
-9.47277e-12
-5.28414e-16
1.51698e-12
-1.32265e-11
-1.3417e-15
2.2419e-12
-1.72464e-11
-2.4976e-15
3.2106e-12
-2.19947e-11
3.75264e-15
4.34062e-12
-2.6777e-11
-1.48149e-15
5.67203e-12
-3.25365e-11
3.81681e-16
7.22622e-12
-3.81873e-11
-1.0497e-15
8.94391e-12
-4.48892e-11
7.34214e-16
1.09489e-11
-5.15026e-11
4.32338e-17
1.31184e-11
-5.90868e-11
5.01351e-16
1.55686e-11
-6.67026e-11
5.12185e-16
1.82047e-11
-7.50862e-11
1.46432e-16
2.11036e-11
-8.36521e-11
-6.69822e-16
2.42036e-11
-9.27465e-11
2.45293e-16
2.75245e-11
-1.02094e-10
-1.03186e-16
-1.11781e-10
-2.13439e-17
5.29904e-14
-1.05788e-12
-5.81291e-18
2.20504e-13
-3.54707e-12
-3.3407e-17
5.34194e-13
-6.53836e-12
-2.52009e-16
9.63385e-13
-9.90336e-12
-3.39833e-16
1.59935e-12
-1.38607e-11
-1.03817e-17
2.3348e-12
-1.80084e-11
-1.77124e-15
3.34975e-12
-2.29671e-11
6.01005e-15
4.52065e-12
-2.79192e-11
1.11494e-15
5.92592e-12
-3.39344e-11
1.53234e-15
7.56756e-12
-3.98303e-11
-4.68421e-16
9.42416e-12
-4.67495e-11
-9.42325e-16
1.1561e-11
-5.36398e-11
4.24171e-16
1.39125e-11
-6.1435e-11
-1.04238e-17
1.6538e-11
-6.93289e-11
3.28513e-16
1.93773e-11
-7.79288e-11
-1.37226e-16
2.24709e-11
-8.67486e-11
-7.29787e-16
2.57739e-11
-9.60514e-11
2.71733e-16
2.9294e-11
-1.05615e-10
-1.08678e-16
-1.15485e-10
-2.92927e-16
5.72897e-14
-1.11502e-12
-8.24325e-17
2.38073e-13
-3.72806e-12
6.98468e-17
5.7538e-13
-6.87666e-12
4.27571e-17
1.03809e-12
-1.03713e-11
-6.83666e-17
1.72967e-12
-1.45516e-11
-1.20057e-15
2.55431e-12
-1.88313e-11
-1.26922e-15
3.63475e-12
-2.40608e-11
-1.43554e-15
4.82324e-12
-2.91959e-11
-8.01611e-15
6.37232e-12
-3.54439e-11
6.58761e-15
8.12605e-12
-4.15577e-11
6.10942e-16
1.01164e-11
-4.87302e-11
2.37869e-15
1.23702e-11
-5.58901e-11
-7.16459e-16
1.48718e-11
-6.39337e-11
8.35445e-16
1.76526e-11
-7.21125e-11
9.6418e-16
2.06727e-11
-8.09501e-11
-9.23811e-16
2.39561e-11
-9.00335e-11
-6.43411e-16
2.74632e-11
-9.95598e-11
1.73292e-17
3.11916e-11
-1.09344e-10
-2.1443e-16
-1.19399e-10
1.30717e-17
6.10534e-14
-1.17651e-12
8.14362e-17
2.62553e-13
-3.9289e-12
-1.87395e-16
6.09448e-13
-7.22031e-12
-1.10931e-15
1.16845e-12
-1.09147e-11
3.20992e-15
1.83291e-12
-1.52402e-11
-7.33944e-16
2.81154e-12
-1.97927e-11
-2.46244e-15
3.9055e-12
-2.51659e-11
-1.19851e-15
5.27818e-12
-3.0633e-11
-5.00589e-15
6.89682e-12
-3.70261e-11
5.22152e-15
8.846e-12
-4.3484e-11
2.24354e-15
1.0959e-11
-5.08383e-11
2.96771e-16
1.33928e-11
-5.83212e-11
-8.10814e-16
1.60461e-11
-6.65878e-11
9.04416e-16
1.89974e-11
-7.50681e-11
1.93328e-15
2.21908e-11
-8.41454e-11
-1.0538e-15
2.56561e-11
-9.35002e-11
-8.10152e-16
2.93527e-11
-1.03259e-10
2.31248e-16
3.32786e-11
-1.13269e-10
-3.83996e-16
-1.23516e-10
-4.66509e-17
6.63677e-14
-1.24283e-12
-2.28446e-17
2.83215e-13
-4.14572e-12
-2.27222e-17
6.51521e-13
-7.58676e-12
-9.69988e-16
1.24908e-12
-1.15022e-11
2.79533e-15
1.94559e-12
-1.59574e-11
-9.91845e-16
2.98162e-12
-2.08097e-11
-1.80678e-15
4.12807e-12
-2.63205e-11
-7.18563e-16
5.55549e-12
-3.21195e-11
-2.47338e-15
7.27771e-12
-3.87008e-11
7.21289e-15
9.32271e-12
-4.54967e-11
-3.54927e-15
1.15788e-11
-5.30907e-11
2.19558e-15
1.41678e-11
-6.09133e-11
3.51259e-15
1.70204e-11
-6.94387e-11
-1.80777e-15
2.01962e-11
-7.82406e-11
-2.22316e-15
2.36282e-11
-8.75822e-11
8.25153e-16
2.73384e-11
-9.7213e-11
-3.35179e-16
3.12871e-11
-1.0721e-10
-4.64091e-16
3.54584e-11
-1.17441e-10
1.41047e-16
-1.27874e-10
-2.51702e-16
7.19394e-14
-1.31472e-12
-2.66214e-17
3.03959e-13
-4.37781e-12
-2.79631e-17
7.14411e-13
-7.99518e-12
-1.03709e-15
1.34775e-12
-1.21253e-11
2.72693e-15
2.14559e-12
-1.67769e-11
-9.74547e-16
3.26998e-12
-2.19161e-11
-1.89504e-15
4.56095e-12
-2.76183e-11
-9.98958e-16
6.1415e-12
-3.37642e-11
-3.57634e-15
8.02863e-12
-4.05428e-11
6.41531e-15
1.02544e-11
-4.76983e-11
-3.45305e-15
1.26845e-11
-5.55245e-11
1.77175e-15
1.54533e-11
-6.3688e-11
3.81955e-15
1.84844e-11
-7.24719e-11
-1.96139e-15
2.18349e-11
-8.15887e-11
-1.28624e-15
2.54527e-11
-9.12056e-11
8.04393e-16
2.93544e-11
-1.01117e-10
-6.00565e-16
3.35059e-11
-1.11365e-10
-2.12811e-16
3.78894e-11
-1.21826e-10
-1.00836e-16
-1.32449e-10
-4.77606e-16
7.78045e-14
-1.39246e-12
-3.36015e-17
3.29933e-13
-4.62984e-12
-5.46316e-17
7.64887e-13
-8.42815e-12
-1.01554e-15
1.44757e-12
-1.27977e-11
2.69008e-15
2.28001e-12
-1.7629e-11
-8.27481e-16
3.45596e-12
-2.30737e-11
-2.54904e-15
4.80843e-12
-2.89751e-11
-2.18592e-16
6.44672e-12
-3.54671e-11
-3.19055e-15
8.43936e-12
-4.24865e-11
6.87277e-15
1.07701e-11
-5.00082e-11
-9.72883e-16
1.33717e-11
-5.8129e-11
1.62691e-15
1.63381e-11
-6.66476e-11
-2.32191e-15
1.96091e-11
-7.57488e-11
4.4688e-16
2.32145e-11
-8.51941e-11
2.22352e-16
2.71189e-11
-9.51097e-11
-3.14255e-16
3.13081e-11
-1.05305e-10
-1.02243e-17
3.57488e-11
-1.15807e-10
-4.22267e-16
4.04112e-11
-1.26488e-10
4.03892e-17
4.52513e-11
-1.37292e-10
-1.73374e-16
5.02231e-11
-1.48105e-10
-3.06493e-17
5.52775e-11
-1.5883e-10
-2.59206e-16
6.03507e-11
-1.69372e-10
1.9899e-16
-1.79594e-10
9.14713e-17
8.4366e-14
-1.47676e-12
-2.60937e-17
3.57348e-13
-4.90296e-12
1.00069e-17
8.33206e-13
-8.90228e-12
-8.97725e-16
1.57145e-12
-1.35275e-11
3.70035e-15
2.49536e-12
-1.85818e-11
-7.10815e-16
3.80128e-12
-2.43614e-11
-5.02669e-15
5.30273e-12
-3.04966e-11
-3.06968e-15
7.13361e-12
-3.73658e-11
-1.31158e-15
9.32601e-12
-4.46414e-11
4.63228e-15
1.18727e-11
-5.2536e-11
-3.0184e-15
1.46911e-11
-6.09522e-11
1.24135e-15
1.78588e-11
-6.98132e-11
-9.71725e-16
2.13371e-11
-7.92346e-11
3.20174e-16
2.51453e-11
-8.90021e-11
-2.08331e-16
2.92609e-11
-9.92266e-11
-7.57745e-17
3.36678e-11
-1.09711e-10
-1.29639e-16
3.8336e-11
-1.20478e-10
-2.13933e-16
4.32328e-11
-1.31384e-10
1.30013e-16
4.83117e-11
-1.42371e-10
-2.46844e-16
5.35187e-11
-1.53312e-10
-1.72516e-16
5.87942e-11
-1.64105e-10
2.06139e-16
6.40711e-11
-1.74648e-10
1.10163e-17
-1.84799e-10
2.82797e-16
9.18168e-14
-1.56846e-12
-5.77379e-17
3.85955e-13
-5.19688e-12
-6.88776e-17
9.02826e-13
-9.41914e-12
5.15145e-17
1.68481e-12
-1.43054e-11
-8.8494e-16
2.71041e-12
-1.95966e-11
-4.69514e-15
4.07586e-12
-2.57001e-11
1.16244e-14
5.64709e-12
-3.20922e-11
-8.50504e-16
7.55794e-12
-3.93279e-11
-1.5846e-14
9.88949e-12
-4.69241e-11
1.44529e-14
1.25867e-11
-5.51997e-11
2.91261e-15
1.55791e-11
-6.39543e-11
-3.27629e-16
1.89757e-11
-7.32097e-11
-2.06376e-15
2.27171e-11
-8.29861e-11
7.76024e-16
2.6827e-11
-9.31106e-11
-1.25786e-15
3.12576e-11
-1.03659e-10
3.16057e-16
3.59887e-11
-1.14442e-10
-5.44503e-17
4.09771e-11
-1.25469e-10
-4.7987e-16
4.61826e-11
-1.3659e-10
1.91526e-16
5.15531e-11
-1.47742e-10
-2.62783e-16
5.7029e-11
-1.58788e-10
2.49949e-16
6.25477e-11
-1.69623e-10
-1.78203e-16
6.80369e-11
-1.80137e-10
1.41366e-16
-1.90183e-10
7.55521e-17
9.982e-14
-1.66817e-12
-4.41849e-17
4.19948e-13
-5.517e-12
-7.7661e-17
9.81909e-13
-9.98151e-12
2.87256e-16
1.82926e-12
-1.51493e-11
2.00565e-16
2.95346e-12
-2.07202e-11
-4.23753e-15
4.43173e-12
-2.71695e-11
1.07608e-14
6.17298e-12
-3.38827e-11
-3.06691e-15
8.2916e-12
-4.15124e-11
-2.12954e-14
1.08611e-11
-4.94447e-11
1.01244e-14
1.38034e-11
-5.81115e-11
3.63027e-15
1.70567e-11
-6.72161e-11
-9.40051e-16
2.07044e-11
-7.68615e-11
-3.93355e-15
2.47021e-11
-8.69951e-11
3.27129e-16
2.90609e-11
-9.74704e-11
-1.37658e-15
3.37493e-11
-1.0835e-10
4.07846e-16
3.87419e-11
-1.19433e-10
-1.47761e-16
4.39969e-11
-1.30727e-10
-2.64588e-16
4.94709e-11
-1.42064e-10
9.97716e-17
5.51054e-11
-1.53377e-10
-1.13104e-16
6.08343e-11
-1.64516e-10
1.75673e-17
6.65845e-11
-1.75373e-10
8.81454e-17
7.22778e-11
-1.85829e-10
7.01307e-17
-1.95734e-10
1.86839e-16
1.08772e-13
-1.77685e-12
-4.74958e-17
4.56478e-13
-5.86435e-12
-1.66405e-16
1.07042e-12
-1.05949e-11
-3.63347e-16
1.98259e-12
-1.60588e-11
4.825e-16
3.19956e-12
-2.19392e-11
-7.64103e-16
4.78197e-12
-2.87349e-11
-3.41744e-15
6.7023e-12
-3.57798e-11
-4.96429e-15
8.96769e-12
-4.38039e-11
1.84112e-14
1.16408e-11
-5.21005e-11
5.59362e-15
1.47737e-11
-6.12181e-11
-1.3364e-14
1.82447e-11
-7.06938e-11
9.50798e-15
2.21925e-11
-8.07822e-11
1.6699e-15
2.6464e-11
-9.12853e-11
-1.16158e-15
3.11579e-11
-1.02164e-10
-1.34098e-15
3.61818e-11
-1.13378e-10
5.69679e-16
4.15297e-11
-1.2478e-10
-7.84317e-16
4.71289e-11
-1.36329e-10
-1.30349e-16
5.29364e-11
-1.47871e-10
1.17644e-16
5.8882e-11
-1.59322e-10
-2.48365e-16
6.48937e-11
-1.70528e-10
2.28073e-16
7.08927e-11
-1.81372e-10
-1.40749e-16
7.67948e-11
-1.91731e-10
1.48617e-16
-2.0145e-10
5.23364e-17
1.18706e-13
-1.89549e-12
-3.48791e-17
4.9483e-13
-6.24084e-12
1.9165e-16
1.16856e-12
-1.12722e-11
1.83968e-15
2.1442e-12
-1.70314e-11
-1.40138e-15
3.51444e-12
-2.33023e-11
-3.64688e-15
5.19543e-12
-3.04262e-11
1.45286e-15
7.3371e-12
-3.79081e-11
-4.75461e-15
9.81257e-12
-4.63158e-11
1.13331e-14
1.27707e-11
-5.50312e-11
3.41337e-15
1.6153e-11
-6.4578e-11
-1.19601e-14
1.99329e-11
-7.44803e-11
9.14172e-15
2.41678e-11
-8.49931e-11
2.30833e-16
2.87521e-11
-9.58887e-11
-1.59206e-15
3.37469e-11
-1.07161e-10
-1.59888e-15
3.90842e-11
-1.1872e-10
7.58821e-16
4.4745e-11
-1.30439e-10
-8.46548e-16
5.06563e-11
-1.42244e-10
5.06819e-17
5.67695e-11
-1.53985e-10
-1.32823e-18
6.30058e-11
-1.65558e-10
-8.24264e-17
6.92863e-11
-1.76808e-10
1.16709e-16
7.55215e-11
-1.87607e-10
4.56172e-17
8.16206e-11
-1.97829e-10
6.05163e-17
-2.07316e-10
1.32515e-16
1.29618e-13
-2.02512e-12
5.56969e-18
5.40836e-13
-6.65201e-12
4.97583e-17
1.27451e-12
-1.20087e-11
1.42454e-15
2.33871e-12
-1.80926e-11
-1.338e-15
3.81048e-12
-2.4768e-11
-2.81695e-15
5.6234e-12
-3.22453e-11
1.77115e-15
7.91981e-12
-4.0189e-11
-6.09815e-15
1.05661e-11
-4.89979e-11
8.06228e-15
1.37465e-11
-5.81958e-11
4.65444e-15
1.73856e-11
-6.81968e-11
-1.10485e-14
2.14535e-11
-7.85561e-11
8.51235e-15
2.60232e-11
-8.95367e-11
-9.70388e-16
3.09618e-11
-1.00847e-10
-9.68925e-16
3.63375e-11
-1.1254e-10
-1.78525e-15
4.2059e-11
-1.24446e-10
6.50405e-16
4.81077e-11
-1.36487e-10
-8.78241e-16
5.43925e-11
-1.48532e-10
-3.73027e-17
6.08605e-11
-1.60453e-10
5.22489e-17
6.74219e-11
-1.72119e-10
-2.23238e-16
7.39907e-11
-1.83376e-10
2.1423e-16
8.04701e-11
-1.94086e-10
-1.32342e-16
8.67624e-11
-2.04121e-10
1.15102e-16
-2.13319e-10
5.29312e-18
1.41974e-13
-2.16716e-12
3.46661e-17
5.93805e-13
-7.10392e-12
-1.97787e-17
1.39172e-12
-1.28094e-11
1.46639e-15
2.56784e-12
-1.92642e-11
-1.15792e-15
4.16941e-12
-2.63647e-11
-3.01979e-15
6.17692e-12
-3.42586e-11
1.47734e-15
8.68788e-12
-4.26855e-11
-6.04146e-15
1.15991e-11
-5.1946e-11
9.24597e-15
1.50623e-11
-6.16438e-11
4.94879e-15
1.90063e-11
-7.21199e-11
-1.12679e-14
2.34046e-11
-8.29614e-11
8.41564e-15
2.8315e-11
-9.44212e-11
-9.82708e-16
3.36106e-11
-1.06163e-10
-6.48638e-16
3.93554e-11
-1.18289e-10
-2.0091e-15
4.54503e-11
-1.30545e-10
7.68598e-16
5.18741e-11
-1.42909e-10
-1.05366e-15
5.8523e-11
-1.55184e-10
9.30201e-17
6.5338e-11
-1.67268e-10
-6.62407e-17
7.22168e-11
-1.78998e-10
-5.77302e-17
7.90657e-11
-1.90224e-10
1.58006e-16
8.57777e-11
-2.00797e-10
1.69849e-17
9.22481e-11
-2.1059e-10
8.68194e-17
-2.19439e-10
1.38582e-16
1.55794e-13
-2.32301e-12
2.7426e-17
6.49941e-13
-7.59813e-12
2.99743e-17
1.5252e-12
-1.36874e-11
1.42246e-15
2.80471e-12
-2.05403e-11
-1.26694e-15
4.54843e-12
-2.81034e-11
-2.78317e-15
6.72349e-12
-3.64397e-11
2.68809e-15
9.44482e-12
-4.53914e-11
-6.55845e-15
1.25914e-11
-5.51294e-11
8.79102e-15
1.6351e-11
-6.53874e-11
4.7281e-15
2.06238e-11
-7.63721e-11
-1.19515e-14
2.53961e-11
-8.774e-11
8.29729e-15
3.07049e-11
-9.97072e-11
6.36609e-16
3.64201e-11
-1.11898e-10
-1.43572e-15
4.25943e-11
-1.24466e-10
-2.3071e-15
4.91153e-11
-1.37071e-10
1.05849e-15
5.5956e-11
-1.49748e-10
-9.3186e-16
6.30016e-11
-1.62232e-10
3.0072e-18
7.01853e-11
-1.74452e-10
1.15196e-16
7.73944e-11
-1.86207e-10
-2.6157e-16
8.45259e-11
-1.97356e-10
1.63287e-16
9.14636e-11
-2.07735e-10
-1.19933e-16
9.80953e-11
-2.17222e-10
8.69723e-17
-2.2565e-10
2.75635e-17
1.71555e-13
-2.49455e-12
-4.24091e-18
7.17863e-13
-8.14454e-12
7.36631e-18
1.67132e-12
-1.46434e-11
1.2965e-15
3.10157e-12
-2.19635e-11
-2.34686e-15
4.99324e-12
-2.99904e-11
-4.39821e-15
7.4235e-12
-3.88786e-11
4.72965e-15
1.03713e-11
-4.83256e-11
-5.68465e-15
1.38488e-11
-5.86429e-11
7.77416e-15
1.79189e-11
-6.9445e-11
5.07491e-15
2.25527e-11
-8.09844e-11
-1.19552e-14
2.77004e-11
-9.28947e-11
8.20166e-15
3.34096e-11
-1.05394e-10
4.17881e-16
3.95448e-11
-1.18053e-10
-1.44094e-15
4.61587e-11
-1.31083e-10
-2.81084e-15
5.31226e-11
-1.44041e-10
1.16609e-15
6.04031e-11
-1.57028e-10
-1.11688e-15
6.78668e-11
-1.69699e-10
7.3377e-17
7.54361e-11
-1.82021e-10
2.30636e-17
8.29831e-11
-1.93754e-10
-8.83124e-17
9.03958e-11
-2.04768e-10
1.87085e-16
9.7548e-11
-2.14887e-10
-3.76824e-17
1.04321e-10
-2.23994e-10
4.31194e-17
-2.31924e-10
5.66583e-17
1.89034e-13
-2.68352e-12
-3.11387e-17
7.89503e-13
-8.74491e-12
-8.03291e-17
1.84095e-12
-1.56948e-11
8.38157e-17
3.3914e-12
-2.35178e-11
1.78447e-15
5.44021e-12
-3.20472e-11
5.0212e-15
8.11498e-12
-4.15341e-11
-1.01285e-14
1.13202e-11
-5.15077e-11
-7.14636e-15
1.51209e-11
-6.25036e-11
1.82048e-14
1.95415e-11
-7.38387e-11
-2.51261e-15
2.46163e-11
-8.60438e-11
-9.07401e-15
3.02212e-11
-9.85045e-11
7.40052e-15
3.64243e-11
-1.11573e-10
-2.73375e-16
4.30663e-11
-1.24716e-10
-1.25833e-15
5.01685e-11
-1.38194e-10
-1.34563e-15
5.76175e-11
-1.51494e-10
2.09799e-16
6.53512e-11
-1.64761e-10
-1.08358e-15
7.32369e-11
-1.77589e-10
6.87713e-17
8.11845e-11
-1.89969e-10
-1.16599e-16
8.90571e-11
-2.01627e-10
-1.71169e-16
9.67315e-11
-2.12442e-10
9.59562e-17
1.04072e-10
-2.22228e-10
-1.49658e-16
1.10952e-10
-2.30875e-10
-6.38094e-18
-2.38219e-10
-3.08296e-17
2.0911e-13
-2.89248e-12
-7.5335e-17
8.76396e-13
-9.41204e-12
-9.41193e-17
2.02685e-12
-1.68455e-11
1.78492e-16
3.76504e-12
-2.52566e-11
6.46211e-16
6.00941e-12
-3.4298e-11
2.69452e-15
8.98437e-12
-4.44892e-11
-1.12443e-14
1.25059e-11
-5.50062e-11
-8.50912e-15
1.66833e-11
-6.67493e-11
2.34763e-14
2.14889e-11
-7.86212e-11
1.29613e-15
2.69802e-11
-9.15158e-11
-1.10985e-14
3.30373e-11
-1.04568e-10
8.59222e-15
3.97032e-11
-1.18215e-10
-9.7472e-16
4.68441e-11
-1.31878e-10
-1.22896e-15
5.44592e-11
-1.45817e-10
-1.86164e-15
6.24239e-11
-1.59464e-10
1.62964e-16
7.06595e-11
-1.72996e-10
-1.36537e-15
7.90111e-11
-1.85945e-10
1.09116e-16
8.73716e-11
-1.9833e-10
-1.72312e-16
9.55875e-11
-2.09843e-10
-8.05477e-17
1.03524e-10
-2.20379e-10
1.36575e-16
1.11037e-10
-2.29741e-10
-9.48467e-17
1.17994e-10
-2.37831e-10
4.33878e-17
-2.44493e-10
2.65159e-17
2.31422e-13
-3.12393e-12
2.0913e-17
9.68716e-13
-1.01488e-11
-2.58362e-16
2.24808e-12
-1.81236e-11
-4.3878e-16
4.1564e-12
-2.7164e-11
2.84616e-16
6.64547e-12
-3.679e-11
1.16437e-15
9.86776e-12
-4.7717e-11
3.27782e-15
1.37093e-11
-5.88412e-11
1.29648e-15
1.83285e-11
-7.13743e-11
-7.14302e-15
2.36077e-11
-8.38766e-11
2.18706e-15
2.96473e-11
-9.75619e-11
-1.25976e-15
3.62452e-11
-1.11159e-10
5.04228e-16
4.35345e-11
-1.25488e-10
3.77373e-15
5.12482e-11
-1.39611e-10
-3.00551e-15
5.94389e-11
-1.54015e-10
-1.96492e-15
6.7939e-11
-1.67971e-10
4.22698e-16
7.66636e-11
-1.81722e-10
-8.56871e-16
8.5456e-11
-1.94741e-10
-2.1202e-16
9.41916e-11
-2.07066e-10
-7.05691e-17
1.02709e-10
-2.18361e-10
-2.12954e-16
1.10863e-10
-2.28533e-10
8.07954e-18
1.18498e-10
-2.37377e-10
-1.19627e-16
1.25477e-10
-2.4481e-10
-4.87545e-17
-2.50685e-10
-1.60306e-17
2.58353e-13
-3.38209e-12
-6.21494e-17
1.06892e-12
-1.09604e-11
4.55965e-16
2.50083e-12
-1.9561e-11
2.59042e-15
4.56415e-12
-2.92265e-11
-2.90196e-15
7.39583e-12
-3.9609e-11
-3.70419e-15
1.08569e-11
-5.11903e-11
4.56025e-15
1.51775e-11
-6.31505e-11
-2.44409e-15
2.01566e-11
-7.63666e-11
-1.9365e-15
2.59722e-11
-8.96702e-11
6.01372e-15
3.24712e-11
-1.04064e-10
-3.14854e-15
3.96559e-11
-1.18338e-10
1.78719e-15
4.74978e-11
-1.33313e-10
2.9002e-15
5.58288e-11
-1.47961e-10
-2.76862e-15
6.46312e-11
-1.62825e-10
-2.11637e-15
7.3738e-11
-1.77085e-10
4.20197e-16
8.30332e-11
-1.91019e-10
-1.08091e-15
9.23346e-11
-2.04047e-10
-1.09588e-16
1.01497e-10
-2.16229e-10
-7.92984e-17
1.1034e-10
-2.27205e-10
-1.96341e-16
1.18707e-10
-2.369e-10
6.31535e-17
1.26438e-10
-2.45108e-10
-1.68322e-16
1.33391e-10
-2.51764e-10
-2.47192e-17
-2.56733e-10
-6.65224e-17
2.87352e-13
-3.66959e-12
8.36346e-17
1.18992e-12
-1.18632e-11
1.57243e-16
2.79079e-12
-2.11658e-11
2.03398e-15
5.08522e-12
-3.15194e-11
-2.80711e-15
8.24607e-12
-4.27588e-11
-2.42376e-15
1.21126e-11
-5.50687e-11
3.67056e-15
1.69015e-11
-6.79299e-11
-9.44747e-16
2.24404e-11
-8.19261e-11
1.1612e-15
2.88631e-11
-9.60667e-11
3.16118e-15
3.60302e-11
-1.11238e-10
-3.04678e-15
4.38991e-11
-1.26201e-10
1.02305e-15
5.24365e-11
-1.41834e-10
3.28855e-15
6.14363e-11
-1.5698e-10
-2.92428e-15
7.08665e-11
-1.72264e-10
-1.66685e-15
8.05485e-11
-1.86774e-10
-2.58265e-17
9.03521e-11
-2.00824e-10
-1.05513e-15
1.00086e-10
-2.13784e-10
-4.8197e-17
1.09593e-10
-2.25736e-10
-2.3801e-16
1.1868e-10
-2.36294e-10
-7.98117e-17
1.27182e-10
-2.45402e-10
-1.95103e-17
1.34926e-10
-2.52853e-10
-1.39457e-16
1.4177e-10
-2.58609e-10
-1.13436e-16
-2.62549e-10
-5.85796e-17
3.21945e-13
-3.99171e-12
9.13515e-17
1.33561e-12
-1.2877e-11
1.10835e-16
3.10614e-12
-2.29405e-11
2.16291e-15
5.67664e-12
-3.4088e-11
-2.64529e-15
9.13122e-12
-4.62026e-11
-2.88675e-15
1.3395e-11
-5.93433e-11
3.474e-15
1.86345e-11
-7.31592e-11
-1.67184e-15
2.46802e-11
-8.79921e-11
6.40422e-16
3.16875e-11
-1.03048e-10
3.20067e-15
3.94753e-11
-1.1903e-10
-3.26713e-15
4.80355e-11
-1.34755e-10
1.8234e-15
5.72932e-11
-1.51071e-10
3.16997e-15
6.70377e-11
-1.66743e-10
-2.25294e-15
7.72105e-11
-1.82445e-10
-1.81507e-15
8.75935e-11
-1.97162e-10
2.74644e-16
9.80337e-11
-2.11265e-10
-1.07595e-15
1.08302e-10
-2.24055e-10
4.89859e-17
1.18221e-10
-2.35655e-10
-1.81374e-16
1.27579e-10
-2.45653e-10
-1.87074e-16
1.36202e-10
-2.54026e-10
4.19433e-17
1.43916e-10
-2.60568e-10
-2.14631e-16
1.50581e-10
-2.65275e-10
-4.89883e-17
-2.68048e-10
-1.24679e-16
3.60999e-13
-4.35286e-12
9.05062e-17
1.49273e-12
-1.40091e-11
1.65892e-16
3.48745e-12
-2.49393e-11
2.08833e-15
6.35521e-12
-3.69539e-11
-2.68295e-15
1.02569e-11
-5.00932e-11
-2.57231e-15
1.50579e-11
-6.41596e-11
5.24429e-15
2.09294e-11
-7.90221e-11
-2.09059e-15
2.77343e-11
-9.48113e-11
-1.25137e-15
3.55236e-11
-1.10814e-10
3.98305e-15
4.41637e-11
-1.27678e-10
-1.19503e-15
5.35539e-11
-1.44137e-10
-1.3846e-16
6.36317e-11
-1.61131e-10
4.01987e-15
7.41417e-11
-1.77269e-10
-2.88829e-15
8.50133e-11
-1.93324e-10
-1.55859e-15
9.6007e-11
-2.08161e-10
2.6217e-16
1.06958e-10
-2.22219e-10
-9.31198e-16
1.17624e-10
-2.34724e-10
-2.00707e-17
1.27817e-10
-2.45849e-10
-2.30799e-16
1.37312e-10
-2.55149e-10
-8.05306e-17
1.45929e-10
-2.62642e-10
-1.47442e-18
1.53488e-10
-2.68128e-10
-9.39922e-17
1.59853e-10
-2.71641e-10
-1.41519e-16
-2.73109e-10
-6.78436e-17
4.08062e-13
-4.76105e-12
6.58688e-17
1.68743e-12
-1.52887e-11
1.44719e-16
3.92291e-12
-2.71785e-11
1.93482e-15
7.15657e-12
-4.01812e-11
-4.44156e-15
1.14761e-11
-5.43989e-11
-4.99534e-15
1.68006e-11
-6.95027e-11
8.5802e-15
2.32497e-11
-8.54626e-11
-4.1338e-16
3.06963e-11
-1.02268e-10
-2.94525e-15
3.92229e-11
-1.19312e-10
4.55508e-15
4.86383e-11
-1.37101e-10
-3.14559e-16
5.88673e-11
-1.54361e-10
6.09373e-16
6.98205e-11
-1.72062e-10
3.92355e-15
8.12038e-11
-1.88669e-10
-2.41077e-15
9.29222e-11
-2.05047e-10
-1.70049e-15
1.04685e-10
-2.19928e-10
6.79033e-16
1.16294e-10
-2.33829e-10
-9.48175e-16
1.27471e-10
-2.45901e-10
1.43591e-16
1.38e-10
-2.56379e-10
-1.65952e-16
1.47646e-10
-2.64796e-10
-2.17523e-16
1.56221e-10
-2.71218e-10
3.94207e-17
1.63554e-10
-2.75461e-10
-2.33464e-16
1.69518e-10
-2.77607e-10
-7.02409e-17
-2.77616e-10
-1.52878e-16
4.60398e-13
-5.22152e-12
4.98195e-17
1.90361e-12
-1.67318e-11
-5.85567e-18
4.41881e-12
-2.96939e-11
2.25376e-16
8.04174e-12
-4.38104e-11
2.45085e-15
1.28858e-11
-5.92558e-11
7.87852e-15
1.89102e-11
-7.55082e-11
-1.4444e-14
2.62184e-11
-9.27494e-11
-4.28078e-15
3.45863e-11
-1.1069e-10
1.67086e-14
4.41085e-11
-1.28802e-10
-6.42677e-15
5.45679e-11
-1.47568e-10
-5.39565e-15
6.58705e-11
-1.65656e-10
1.98338e-15
7.78015e-11
-1.83971e-10
5.28928e-15
9.01069e-11
-2.00988e-10
-3.71896e-15
1.02597e-10
-2.17545e-10
-2.37092e-17
1.1502e-10
-2.32353e-10
-1.77095e-16
1.27116e-10
-2.45927e-10
-6.4317e-16
1.38622e-10
-2.57408e-10
2.04749e-16
1.49297e-10
-2.67054e-10
-2.65419e-16
1.58907e-10
-2.74406e-10
3.87566e-17
1.67261e-10
-2.79571e-10
2.89476e-17
1.74193e-10
-2.82394e-10
-7.16176e-17
1.7959e-10
-2.83005e-10
-1.41171e-16
-2.81409e-10
-7.5085e-17
5.25758e-13
-5.74734e-12
4.13342e-17
2.17213e-12
-1.83781e-11
8.76405e-17
5.02793e-12
-3.25498e-11
1.35932e-17
9.15233e-12
-4.79382e-11
1.07667e-16
1.46014e-11
-6.47109e-11
4.93259e-15
2.13784e-11
-8.22621e-11
-1.54673e-14
2.95064e-11
-1.00852e-10
-4.69037e-15
3.87457e-11
-1.19987e-10
2.3592e-14
4.92415e-11
-1.39266e-10
-1.02512e-15
6.06714e-11
-1.59009e-10
-6.70287e-15
7.30063e-11
-1.7799e-10
2.46815e-15
8.5957e-11
-1.96897e-10
5.83744e-15
9.92495e-11
-2.14297e-10
-3.43303e-15
1.12643e-10
-2.30941e-10
-5.0967e-19
1.2584e-10
-2.45552e-10
-3.57864e-17
1.38534e-10
-2.58621e-10
-6.50034e-16
1.50435e-10
-2.69309e-10
3.14855e-16
1.61272e-10
-2.77892e-10
-1.70595e-16
1.7081e-10
-2.83945e-10
-1.05628e-16
1.78858e-10
-2.87619e-10
8.15033e-17
1.8527e-10
-2.88806e-10
-1.61159e-16
1.89958e-10
-2.87694e-10
-4.02348e-17
-2.84337e-10
-1.14229e-16
5.97911e-13
-6.34526e-12
1.4094e-17
2.46621e-12
-2.02467e-11
1.40962e-16
5.69615e-12
-3.57802e-11
3.49733e-16
1.03725e-11
-5.26181e-11
-4.78224e-16
1.65202e-11
-7.08564e-11
1.33749e-15
2.41545e-11
-8.99106e-11
6.62709e-15
3.32531e-11
-1.09959e-10
8.08644e-15
4.37262e-11
-1.30441e-10
-2.52115e-14
5.55264e-11
-1.5103e-10
8.43306e-16
6.8226e-11
-1.71751e-10
1.23766e-14
8.18626e-11
-1.91608e-10
-1.09946e-14
9.59568e-11
-2.10987e-10
5.30636e-15
1.10338e-10
-2.28691e-10
-3.64956e-15
1.2459e-10
-2.45198e-10
-2.64195e-17
1.38465e-10
-2.59428e-10
-1.90391e-16
1.51578e-10
-2.71736e-10
-2.11723e-17
1.63665e-10
-2.81396e-10
-1.48165e-17
1.7443e-10
-2.88658e-10
-1.65302e-16
1.83657e-10
-2.93171e-10
4.19301e-17
1.91162e-10
-2.95123e-10
7.74606e-17
1.96827e-10
-2.9447e-10
-4.73205e-17
2.0059e-10
-2.91458e-10
-1.16572e-16
-2.862e-10
-7.76776e-17
6.90059e-13
-7.03563e-12
1.46843e-16
2.84548e-12
-2.24014e-11
-2.54125e-16
6.56318e-12
-3.94953e-11
-1.22192e-15
1.19283e-11
-5.79843e-11
1.04301e-15
1.89214e-11
-7.78566e-11
2.33173e-15
2.75884e-11
-9.85755e-11
-8.66649e-16
3.78334e-11
-1.20207e-10
5.92139e-15
4.95041e-11
-1.421e-10
-1.71852e-14
6.25935e-11
-1.64088e-10
4.89884e-15
7.65773e-11
-1.85779e-10
1.13629e-14
9.14937e-11
-2.06508e-10
-1.04499e-14
1.06797e-10
-2.26284e-10
5.80697e-15
1.22266e-10
-2.44172e-10
-3.58524e-15
1.37433e-10
-2.60369e-10
3.51727e-16
1.52e-10
-2.73995e-10
-2.53638e-16
1.6554e-10
-2.85278e-10
-4.59845e-17
1.7777e-10
-2.93625e-10
9.02938e-17
1.88378e-10
-2.99267e-10
-1.09821e-16
1.97162e-10
-3.01956e-10
-7.65708e-17
2.03958e-10
-3.01919e-10
4.21302e-17
2.08685e-10
-2.99198e-10
-1.19944e-16
2.11326e-10
-2.94101e-10
-7.96055e-17
-2.86807e-10
-1.119e-16
7.91738e-13
-7.82743e-12
3.76992e-17
3.25616e-12
-2.48657e-11
-1.33107e-16
7.50594e-12
-4.37427e-11
-9.44078e-16
1.36125e-11
-6.40933e-11
1.08764e-15
2.16026e-11
-8.58519e-11
1.97291e-15
3.14624e-11
-1.08434e-10
-1.22424e-15
4.30845e-11
-1.31836e-10
7.72561e-15
5.63097e-11
-1.55324e-10
-1.25986e-14
7.09522e-11
-1.78695e-10
2.388e-15
8.65495e-11
-2.01413e-10
8.8751e-15
1.02973e-10
-2.22913e-10
-9.11008e-15
1.19632e-10
-2.42941e-10
6.73175e-15
1.36239e-10
-2.60793e-10
-4.39409e-15
1.52269e-10
-2.76399e-10
7.01152e-16
1.67398e-10
-2.89125e-10
-3.832e-16
1.81161e-10
-2.99042e-10
2.24134e-16
1.93282e-10
-3.05744e-10
1.94669e-17
2.0345e-10
-3.09436e-10
-9.96766e-17
2.11495e-10
-3.1e-10
3.71169e-17
2.17287e-10
-3.0771e-10
1.09859e-16
2.20796e-10
-3.02706e-10
-9.05792e-17
2.22056e-10
-2.95363e-10
-1.13105e-16
-2.85929e-10
-1.29744e-16
9.28069e-13
-8.75556e-12
3.19838e-17
3.80951e-12
-2.77469e-11
-4.68217e-17
8.76621e-12
-4.86976e-11
-1.00929e-15
1.58535e-11
-7.11825e-11
8.79102e-16
2.50727e-11
-9.50754e-11
2.12109e-15
3.63589e-11
-1.19719e-10
-1.1488e-15
4.95708e-11
-1.45053e-10
7.15992e-15
6.44649e-11
-1.70215e-10
-1.36228e-14
8.08346e-11
-1.95028e-10
1.47238e-15
9.81159e-11
-2.18731e-10
9.79673e-15
1.16112e-10
-2.4089e-10
-9.05752e-15
1.34158e-10
-2.60984e-10
7.24963e-15
1.51887e-10
-2.78535e-10
-4.46276e-15
1.68723e-10
-2.93235e-10
8.7602e-16
1.84294e-10
-3.04695e-10
-1.26634e-16
1.98116e-10
-3.12865e-10
1.88613e-16
2.09913e-10
-3.17539e-10
2.37652e-16
2.19391e-10
-3.18916e-10
-1.30184e-16
2.26422e-10
-3.17031e-10
-2.61301e-17
2.30927e-10
-3.12216e-10
-1.58879e-18
2.3294e-10
-3.04719e-10
-7.83423e-17
2.32562e-10
-2.94986e-10
-1.2403e-16
-2.83339e-10
-1.08638e-16
1.07454e-12
-9.83014e-12
1.88092e-17
4.40211e-12
-3.10743e-11
-9.85928e-17
1.01163e-11
-5.44098e-11
-9.61072e-16
1.82612e-11
-7.93296e-11
8.01974e-16
2.88506e-11
-1.05669e-10
2.05865e-15
4.17629e-11
-1.32631e-10
-1.49611e-15
5.68113e-11
-1.60106e-10
8.02407e-15
7.37002e-11
-1.87099e-10
-1.46062e-14
9.20535e-11
-2.13348e-10
2.29e-15
1.11284e-10
-2.37999e-10
1.12038e-14
1.31025e-10
-2.60613e-10
-9.51726e-15
1.50575e-10
-2.80526e-10
5.3845e-15
1.69445e-10
-2.97416e-10
-3.62196e-15
1.87016e-10
-3.10809e-10
1.26357e-15
2.02874e-10
-3.20552e-10
-6.9608e-16
2.16523e-10
-3.26516e-10
3.7717e-16
2.27704e-10
-3.28717e-10
-3.20984e-17
2.36163e-10
-3.27376e-10
-1.39345e-16
2.41833e-10
-3.227e-10
4.09716e-18
2.44708e-10
-3.1509e-10
1.89558e-16
2.44904e-10
-3.04915e-10
-1.23403e-16
2.42606e-10
-2.92689e-10
-8.33674e-17
-2.78802e-10
-1.48179e-16
1.28184e-12
-1.11121e-11
4.51762e-17
5.2371e-12
-3.50294e-11
-4.19782e-17
1.20282e-11
-6.11992e-11
-9.26983e-16
2.16065e-11
-8.89115e-11
1.69651e-15
3.40581e-11
-1.18126e-10
2.97103e-15
4.90096e-11
-1.47577e-10
-3.27067e-15
6.63867e-11
-1.7749e-10
7.14201e-15
8.55635e-11
-2.06273e-10
-1.37479e-14
1.06252e-10
-2.33999e-10
1.19035e-15
1.27598e-10
-2.59386e-10
1.20068e-14
1.49184e-10
-2.82179e-10
-9.53553e-15
1.70178e-10
-3.01513e-10
5.49842e-15
1.90009e-10
-3.17259e-10