/*--------------------------------*- C++ -*----------------------------------*\
| =========                 |                                                 |
| \\      /  F ield         | OpenFOAM: The Open Source CFD Toolbox           |
|  \\    /   O peration     | Version:  v2012                                 |
|   \\  /    A nd           | Website:  www.openfoam.com                      |
|    \\/     M anipulation  |                                                 |
\*---------------------------------------------------------------------------*/
FoamFile
{
    version     2.0;
    format      ascii;
    class       surfaceScalarField;
    location    "0.75";
    object      phi;
}
// * * * * * * * * * * * * * * * * * * * * * * * * * * * * * * * * * * * * * //

dimensions      [0 3 -1 0 0 0 0];
oriented        oriented;


internalField   nonuniform List<scalar> 
49380
(
4.16377e-12
-6.9051e-09
-1.01856e-15
3.62016e-11
-2.1078e-08
-1.92178e-15
1.53098e-10
-3.60929e-08
-4.34258e-15
9.49009e-11
-5.02605e-08
-1.41663e-14
4.34736e-10
-7.17188e-08
-3.99442e-15
9.99435e-10
-9.24066e-08
-4.95282e-15
1.504e-09
-9.60772e-08
7.33891e-16
1.80761e-09
-7.82428e-08
4.07905e-15
1.77688e-09
-7.36082e-08
4.95134e-17
1.79321e-09
-8.32887e-08
-2.22153e-15
1.84608e-09
-9.2659e-08
-2.40908e-15
1.90501e-09
-1.00491e-07
-2.37398e-15
1.95916e-09
-1.06722e-07
-2.29059e-15
1.99979e-09
-1.11734e-07
-2.24547e-15
2.0227e-09
-1.16223e-07
-2.16523e-15
2.02566e-09
-1.20606e-07
-1.98812e-15
2.00704e-09
-1.25065e-07
-1.90924e-15
1.96535e-09
-1.2961e-07
-1.8339e-15
1.89934e-09
-1.34153e-07
-1.78979e-15
1.80806e-09
-1.38556e-07
-1.75748e-15
1.69096e-09
-1.4267e-07
-1.78249e-15
1.54785e-09
-1.46361e-07
-1.79591e-15
1.379e-09
-1.49475e-07
-1.81592e-15
1.18504e-09
-1.51915e-07
-1.83611e-15
9.67042e-10
-1.5356e-07
-1.82831e-15
7.26491e-10
-1.54323e-07
-1.81213e-15
4.65355e-10
-1.54115e-07
-1.78903e-15
1.86207e-10
-1.52835e-07
-1.75488e-15
-1.07758e-10
-1.50428e-07
-1.7166e-15
-4.12453e-10
-1.46785e-07
-1.75246e-15
-7.22816e-10
-1.4184e-07
-1.5802e-15
-1.03256e-09
-1.35513e-07
-1.47021e-15
-1.33388e-09
-1.27722e-07
-1.40117e-15
-1.61711e-09
-1.18396e-07
-1.32375e-15
-1.87017e-09
-1.07467e-07
-1.23798e-15
-2.07777e-09
-9.48791e-08
-1.14411e-15
-2.21976e-09
-8.05812e-08
-1.04093e-15
-2.26924e-09
-6.4548e-08
-9.2644e-16
-2.18304e-09
-4.67713e-08
-7.95959e-16
-1.91066e-09
-2.73054e-08
-6.39324e-16
-1.22471e-09
-6.29022e-09
-4.44436e-16
-5.99218e-10
1.64409e-08
-1.04095e-16
-4.53533e-10
4.07967e-08
-4.74003e-17
-3.921e-10
6.6332e-08
-3.11358e-17
-3.65553e-10
9.29273e-08
-2.24441e-17
-3.47471e-10
1.20463e-07
-1.60648e-17
-3.30804e-10
1.48476e-07
-8.75825e-18
-3.12699e-10
1.76581e-07
-1.29374e-17
-2.92084e-10
2.04132e-07
-1.60303e-17
-2.6854e-10
2.30413e-07
-1.40671e-17
-2.4203e-10
2.54577e-07
-1.22072e-17
-2.1281e-10
2.75377e-07
-9.79365e-18
-1.81372e-10
2.91478e-07
-1.18437e-17
-1.48451e-10
3.01187e-07
-1.00401e-17
-1.15047e-10
3.02327e-07
-8.44553e-18
-8.24389e-11
2.92265e-07
-6.78768e-18
-5.22441e-11
2.67813e-07
-4.35988e-18
-2.64621e-11
2.24879e-07
-5.66278e-18
-7.83479e-12
1.58561e-07
-4.17234e-18
6.26249e-08
-1.90295e-18
6.108e-12
-6.91121e-09
1.42271e-16
3.93252e-11
-2.11112e-08
-3.06958e-15
1.8233e-10
-3.62359e-08
-5.44277e-15
3.19343e-11
-5.01101e-08
-1.41128e-14
4.80036e-10
-7.21669e-08
-7.36935e-15
1.21012e-09
-9.31367e-08
-7.19255e-15
1.73529e-09
-9.66024e-08
-6.156e-15
2.03597e-09
-7.85435e-08
-6.37768e-15
1.89773e-09
-7.34699e-08
-1.18235e-15
1.88042e-09
-8.32714e-08
-2.26707e-15
1.93284e-09
-9.27114e-08
-2.47733e-15
1.99899e-09
-1.00558e-07
-2.2653e-15
2.06046e-09
-1.06783e-07
-2.32362e-15
2.10359e-09
-1.11777e-07
-2.08766e-15
2.12333e-09
-1.16243e-07
-1.9578e-15
2.11831e-09
-1.20601e-07
-1.88115e-15
2.0883e-09
-1.25035e-07
-1.89116e-15
2.0332e-09
-1.29555e-07
-1.8821e-15
1.95297e-09
-1.34073e-07
-1.91348e-15
1.84764e-09
-1.38451e-07
-1.80757e-15
1.7173e-09
-1.4254e-07
-1.81653e-15
1.56219e-09
-1.46206e-07
-1.83474e-15
1.38273e-09
-1.49295e-07
-1.86633e-15
1.17955e-09
-1.51712e-07
-1.87019e-15
9.53586e-10
-1.53334e-07
-1.85772e-15
7.06136e-10
-1.54076e-07
-1.84202e-15
4.38955e-10
-1.53848e-07
-1.81334e-15
1.54405e-10
-1.5255e-07
-1.77441e-15
-1.44507e-10
-1.50129e-07
-1.73256e-15
-4.53864e-10
-1.46475e-07
-1.6715e-15
-7.68755e-10
-1.41525e-07
-1.50617e-15
-1.08305e-09
-1.35198e-07
-1.48295e-15
-1.38912e-09
-1.27416e-07
-1.41551e-15
-1.67756e-09
-1.18107e-07
-1.33646e-15
-1.93674e-09
-1.07208e-07
-1.24952e-15
-2.15217e-09
-9.46637e-08
-1.15438e-15
-2.30545e-09
-8.04279e-08
-1.05003e-15
-2.37358e-09
-6.44798e-08
-9.34377e-16
-2.32503e-09
-4.68198e-08
-8.02291e-16
-2.13894e-09
-2.74915e-08
-6.44677e-16
-1.8075e-09
-6.62163e-09
-4.53601e-16
-1.47052e-09
1.6104e-08
-2.20821e-16
-1.27319e-09
4.05994e-08
-1.30915e-16
-1.15796e-09
6.62168e-08
-8.90571e-17
-1.09239e-09
9.28617e-08
-6.41847e-17
-1.04189e-09
1.20412e-07
-4.48003e-17
-9.92951e-10
1.48428e-07
-2.55079e-17
-9.39053e-10
1.76527e-07
-5.31537e-17
-8.77372e-10
2.04071e-07
-6.72074e-17
-8.06781e-10
2.30343e-07
-6.29818e-17
-7.27203e-10
2.54497e-07
-5.80485e-17
-6.39422e-10
2.75289e-07
-5.05491e-17
-5.44921e-10
2.91383e-07
-5.65594e-17
-4.45911e-10
3.01088e-07
-4.94526e-17
-3.45401e-10
3.02227e-07
-4.26996e-17
-2.47273e-10
2.92167e-07
-3.54291e-17
-1.564e-10
2.67722e-07
-2.5286e-17
-7.89722e-11
2.24801e-07
-2.78769e-17
-2.30562e-11
1.58505e-07
-2.11138e-17
6.26019e-08
-1.41338e-17
6.49826e-12
-6.9177e-09
2.31429e-16
3.07391e-11
-2.11355e-08
-5.33224e-15
1.23662e-10
-3.63288e-08
-1.14996e-14
3.00639e-11
-5.00164e-08
-7.33985e-15
5.11887e-10
-7.26487e-08
-3.76108e-15
1.23391e-09
-9.38587e-08
-6.45785e-15
1.66824e-09
-9.70367e-08
-8.54254e-15
2.07753e-09
-7.89528e-08
-1.0024e-14
2.03828e-09
-7.34307e-08
-2.05119e-15
2.02221e-09
-8.32553e-08
-2.13852e-15
2.05487e-09
-9.27441e-08
-2.28631e-15
2.10236e-09
-1.00605e-07
-2.26223e-15
2.15082e-09
-1.06832e-07
-2.28815e-15
2.18653e-09
-1.11813e-07
-2.07395e-15
2.20219e-09
-1.16259e-07
-2.00613e-15
2.19397e-09
-1.20593e-07
-1.82512e-15
2.16e-09
-1.25001e-07
-1.91275e-15
2.09932e-09
-1.29494e-07
-1.88091e-15
2.0117e-09
-1.33986e-07
-1.88188e-15
1.89738e-09
-1.38336e-07
-1.80821e-15
1.7569e-09
-1.42399e-07
-1.80313e-15
1.59093e-09
-1.4604e-07
-1.81191e-15
1.40032e-09
-1.49105e-07
-1.85218e-15
1.18599e-09
-1.51498e-07
-1.8659e-15
9.49048e-10
-1.53097e-07
-1.86415e-15
6.90869e-10
-1.53818e-07
-1.8473e-15
4.13202e-10
-1.5357e-07
-1.82093e-15
1.18354e-10
-1.52256e-07
-1.78205e-15
-1.90761e-10
-1.4982e-07
-1.74265e-15
-5.10337e-10
-1.46156e-07
-1.71414e-15
-8.35597e-10
-1.412e-07
-1.54682e-15
-1.16059e-09
-1.34873e-07
-1.49234e-15
-1.47795e-09
-1.27098e-07
-1.42272e-15
-1.77869e-09
-1.17807e-07
-1.34312e-15
-2.05191e-09
-1.06934e-07
-1.25622e-15
-2.28449e-09
-9.44311e-08
-1.16156e-15
-2.46077e-09
-8.02516e-08
-1.05848e-15
-2.5633e-09
-6.43773e-08
-9.45115e-16
-2.57355e-09
-4.68096e-08
-8.1668e-16
-2.49156e-09
-2.75735e-08
-6.65915e-16
-2.35468e-09
-6.75848e-09
-4.92562e-16
-2.19059e-09
1.59399e-08
-3.09547e-16
-2.02553e-09
4.04344e-08
-2.04221e-16
-1.89913e-09
6.60904e-08
-1.4355e-16
-1.81017e-09
9.27728e-08
-1.05082e-16
-1.73306e-09
1.20335e-07
-7.47485e-17
-1.65418e-09
1.48349e-07
-4.86551e-17
-1.56552e-09
1.76439e-07
-9.14624e-17
-1.46324e-09
2.03968e-07
-1.10935e-16
-1.3458e-09
2.30225e-07
-1.02225e-16
-1.21319e-09
2.54365e-07
-9.36827e-17
-1.06677e-09
2.75143e-07
-8.13548e-17
-9.09035e-10
2.91226e-07
-9.12157e-17
-7.4369e-10
3.00922e-07
-7.88267e-17
-5.75773e-10
3.02059e-07
-6.73949e-17
-4.118e-10
2.92003e-07
-5.51058e-17
-2.59997e-10
2.67571e-07
-3.83894e-17
-1.30842e-10
2.24672e-07
-4.24835e-17
-3.79533e-11
1.58412e-07
-3.15032e-17
6.25639e-08
-2.34613e-17
8.55918e-12
-6.92626e-09
-2.83951e-16
3.90842e-11
-2.1166e-08
-1.67451e-15
9.96869e-11
-3.63894e-08
-6.82304e-15
3.08357e-11
-4.99476e-08
-1.21399e-14
6.06294e-10
-7.32242e-08
-1.7232e-15
1.36996e-09
-9.46224e-08
-9.128e-15
1.71098e-09
-9.73777e-08
-1.05085e-14
2.14779e-09
-7.93897e-08
-8.0434e-15
2.118e-09
-7.34009e-08
-2.52724e-15
2.11628e-09
-8.32536e-08
-1.85785e-15
2.1549e-09
-9.27827e-08
-1.97592e-15
2.20491e-09
-1.00655e-07
-2.06429e-15
2.25454e-09
-1.06881e-07
-2.05938e-15
2.29023e-09
-1.11848e-07
-1.99465e-15
2.30413e-09
-1.16273e-07
-1.95373e-15
2.2917e-09
-1.20581e-07
-1.76724e-15
2.25083e-09
-1.2496e-07
-1.96394e-15
2.18067e-09
-1.29424e-07
-1.88784e-15
2.08147e-09
-1.33886e-07
-1.96429e-15
1.95409e-09
-1.38209e-07
-1.87503e-15
1.79968e-09
-1.42245e-07
-1.87478e-15
1.61943e-09
-1.45859e-07
-1.87843e-15
1.41454e-09
-1.489e-07
-1.91253e-15
1.18613e-09
-1.51269e-07
-1.91444e-15
9.35412e-10
-1.52846e-07
-1.90549e-15
6.63718e-10
-1.53546e-07
-1.88187e-15
3.72715e-10
-1.53279e-07
-1.84984e-15
6.45857e-11
-1.51947e-07
-1.80564e-15
-2.57898e-10
-1.49498e-07
-1.76337e-15
-5.91084e-10
-1.45822e-07
-1.72978e-15
-9.30372e-10
-1.4086e-07
-1.55987e-15
-1.27003e-09
-1.34534e-07
-1.50532e-15
-1.60304e-09
-1.26765e-07
-1.43415e-15
-1.9209e-09
-1.17489e-07
-1.35328e-15
-2.21363e-09
-1.06642e-07
-1.26583e-15
-2.46965e-09
-9.4175e-08
-1.17122e-15
-2.67616e-09
-8.00451e-08
-1.06913e-15
-2.82076e-09
-6.42327e-08
-9.58171e-16
-2.89445e-09
-4.67359e-08
-8.3416e-16
-2.90532e-09
-2.75627e-08
-6.91374e-16
-2.8943e-09
-6.76945e-09
-5.34051e-16
-2.84253e-09
1.58881e-08
-3.78025e-16
-2.72882e-09
4.03207e-08
-2.67837e-16
-2.61512e-09
6.59767e-08
-1.94986e-16
-2.5163e-09
9.26739e-08
-1.45543e-16
-2.41923e-09
1.20238e-07
-1.05899e-16
-2.31355e-09
1.48243e-07
-7.22319e-17
-2.19162e-09
1.76317e-07
-1.20473e-16
-2.04947e-09
2.03826e-07
-1.41236e-16
-1.8855e-09
2.30061e-07
-1.2739e-16
-1.69996e-09
2.54179e-07
-1.15391e-16
-1.49486e-09
2.74937e-07
-9.84703e-17
-1.27377e-09
2.91004e-07
-1.1297e-16
-1.04188e-09
3.0069e-07
-9.64895e-17
-8.06312e-10
3.01823e-07
-8.15536e-17
-5.76243e-10
2.91773e-07
-6.56376e-17
-3.6331e-10
2.67358e-07
-4.37931e-17
-1.82373e-10
2.24491e-07
-5.1115e-17
-5.26388e-11
1.58282e-07
-3.74323e-17
6.25113e-08
-2.85797e-17
9.26152e-12
-6.93551e-09
1.03501e-15
3.8002e-11
-2.11947e-08
-7.60815e-15
4.72502e-11
-3.63987e-08
-1.11189e-14
2.57204e-11
-4.99261e-08
-1.05856e-14
6.98144e-10
-7.38966e-08
-6.05597e-16
1.43889e-09
-9.53632e-08
-1.02122e-14
1.65625e-09
-9.75951e-08
-7.81264e-15
2.1697e-09
-7.99031e-08
-6.11014e-15
2.17928e-09
-7.34105e-08
-1.58736e-15
2.18491e-09
-8.32592e-08
-1.56811e-15
2.22671e-09
-9.28245e-08
-1.69569e-15
2.27855e-09
-1.00707e-07
-1.89297e-15
2.32974e-09
-1.06933e-07
-1.92098e-15
2.36694e-09
-1.11885e-07
-1.98604e-15
2.38181e-09
-1.16288e-07
-1.96233e-15
2.36901e-09
-1.20568e-07
-1.83306e-15
2.32566e-09
-1.24916e-07
-2.05559e-15
2.25045e-09
-1.29349e-07
-1.90278e-15
2.14355e-09
-1.33779e-07
-2.05339e-15
2.00605e-09
-1.38072e-07
-1.98639e-15
1.83951e-09
-1.42078e-07
-1.973e-15
1.64563e-09
-1.45665e-07
-1.96235e-15
1.42606e-09
-1.4868e-07
-1.97892e-15
1.1823e-09
-1.51025e-07
-1.96541e-15
9.15787e-10
-1.5258e-07
-1.94411e-15
6.28012e-10
-1.53258e-07
-1.91224e-15
3.20683e-10
-1.52972e-07
-1.87624e-15
-4.03953e-12
-1.51623e-07
-1.82885e-15
-3.43454e-10
-1.49158e-07
-1.78519e-15
-6.94018e-10
-1.45472e-07
-1.75119e-15
-1.05128e-09
-1.40503e-07
-1.57568e-15
-1.40974e-09
-1.34175e-07
-1.51992e-15
-1.7627e-09
-1.26412e-07
-1.44733e-15
-2.10222e-09
-1.17149e-07
-1.36517e-15
-2.4192e-09
-1.06325e-07
-1.27712e-15
-2.70357e-09
-9.38907e-08
-1.18251e-15
-2.94504e-09
-7.98036e-08
-1.08135e-15
-3.135e-09
-6.40427e-08
-9.72784e-16
-3.27004e-09
-4.66008e-08
-8.53447e-16
-3.35943e-09
-2.74733e-08
-7.18575e-16
-3.43468e-09
-6.69417e-09
-5.73961e-16
-3.46024e-09
1.59137e-08
-4.34755e-16
-3.40005e-09
4.02605e-08
-3.24785e-16
-3.31002e-09
6.58867e-08
-2.44348e-16
-3.21095e-09
9.25749e-08
-1.86119e-16
-3.09984e-09
1.20127e-07
-1.38238e-16
-2.97055e-09
1.48114e-07
-9.62472e-17
-2.81704e-09
1.76163e-07
-1.38461e-16
-2.63588e-09
2.03645e-07
-1.56007e-16
-2.4258e-09
2.29851e-07
-1.35754e-16
-2.18747e-09
2.53941e-07
-1.20354e-16
-1.92369e-09
2.74674e-07
-9.96006e-17
-1.63913e-09
2.9072e-07
-1.19829e-16
-1.34053e-09
3.00392e-07
-1.00599e-16
-1.03709e-09
3.0152e-07
-8.38729e-17
-7.40699e-10
2.91477e-07
-6.62708e-17
-4.66465e-10
2.67083e-07
-4.14172e-17
-2.33684e-10
2.24258e-07
-5.38644e-17
-6.71913e-11
1.58116e-07
-3.9038e-17
6.24441e-08
-2.99787e-17
1.03956e-11
-6.94591e-09
2.7281e-17
4.04995e-11
-2.12248e-08
-3.35445e-15
6.18426e-12
-3.63643e-08
-1.13061e-14
3.77916e-11
-4.99577e-08
-8.32504e-15
8.06546e-10
-7.46653e-08
-1.35258e-15
1.47012e-09
-9.60268e-08
-1.04427e-14
1.56264e-09
-9.76876e-08
-3.03934e-15
2.16133e-09
-8.05018e-08
-6.14394e-15
2.20384e-09
-7.3453e-08
-1.84012e-15
2.2204e-09
-8.32758e-08
-1.52578e-15
2.2697e-09
-9.28738e-08
-1.55704e-15
2.32829e-09
-1.00765e-07
-1.77876e-15
2.38547e-09
-1.0699e-07
-1.86519e-15
2.42737e-09
-1.11927e-07
-1.94491e-15
2.44503e-09
-1.16305e-07
-1.98539e-15
2.43272e-09
-1.20555e-07
-1.89903e-15
2.38726e-09
-1.24871e-07
-2.20489e-15
2.30726e-09
-1.29269e-07
-2.01329e-15
2.19298e-09
-1.33665e-07
-2.18065e-15
2.04574e-09
-1.37924e-07
-2.05939e-15
1.86747e-09
-1.419e-07
-2.02458e-15
1.66021e-09
-1.45458e-07
-2.01327e-15
1.42595e-09
-1.48446e-07
-2.03043e-15
1.16644e-09
-1.50766e-07
-2.01647e-15
8.83319e-10
-1.52297e-07
-1.99081e-15
5.78176e-10
-1.52953e-07
-1.95401e-15
2.52781e-10
-1.52646e-07
-1.91303e-15
-9.06947e-11
-1.51279e-07
-1.86035e-15
-4.49579e-10
-1.488e-07
-1.81291e-15
-8.2039e-10
-1.45101e-07
-1.77625e-15
-1.19878e-09
-1.40125e-07
-1.59442e-15
-1.57943e-09
-1.33795e-07
-1.53651e-15
-1.95592e-09
-1.26036e-07
-1.46193e-15
-2.32081e-09
-1.16784e-07
-1.37827e-15
-2.66579e-09
-1.0598e-07
-1.28951e-15
-2.98206e-09
-9.35744e-08
-1.19483e-15
-3.26121e-09
-7.95245e-08
-1.09451e-15
-3.49711e-09
-6.38068e-08
-9.88242e-16
-3.68884e-09
-4.64091e-08
-8.73503e-16
-3.84365e-09
-2.73185e-08
-7.46175e-16
-3.98111e-09
-6.55666e-09
-6.1214e-16
-4.06317e-09
1.59958e-08
-4.84405e-16
-4.05195e-09
4.02494e-08
-3.76526e-16
-3.98926e-09
6.5824e-08
-2.91561e-16
-3.89584e-09
9.24815e-08
-2.26463e-16
-3.77522e-09
1.20007e-07
-1.71455e-16
-3.62517e-09
1.47964e-07
-1.20428e-16
-3.44172e-09
1.7598e-07
-1.5119e-16
-3.22243e-09
2.03426e-07
-1.63145e-16
-2.96666e-09
2.29595e-07
-1.35212e-16
-2.67573e-09
2.5365e-07
-1.15567e-16
-2.35327e-09
2.74351e-07
-9.05661e-17
-2.00513e-09
2.90372e-07
-1.16492e-16
-1.63966e-09
3.00026e-07
-9.48501e-17
-1.26815e-09
3.01148e-07
-7.71186e-17
-9.05249e-10
2.91114e-07
-5.89868e-17
-5.69556e-10
2.66748e-07
-3.25954e-17
-2.84864e-10
2.23974e-07
-5.16197e-17
-8.16577e-11
1.57913e-07
-3.69527e-17
6.23624e-08
-2.81752e-17
1.11946e-11
-6.9571e-09
8.15366e-16
4.0253e-11
-2.12539e-08
-6.89335e-15
-3.83731e-11
-3.62857e-08
-1.37306e-14
4.0218e-11
-5.00363e-08
-5.75588e-15
8.72255e-10
-7.54974e-08
1.06341e-15
1.40572e-09
-9.65602e-08
-8.45942e-15
1.41503e-09
-9.76969e-08
4.98635e-15
2.12939e-09
-8.12162e-08
-3.22747e-15
2.21469e-09
-7.35383e-08
-1.68163e-15
2.23686e-09
-8.3298e-08
-1.60118e-15
2.28942e-09
-9.29264e-08
-1.60356e-15
2.3518e-09
-1.00828e-07
-1.8771e-15
2.41306e-09
-1.07051e-07
-2.00605e-15
2.45878e-09
-1.11973e-07
-2.07287e-15
2.47928e-09
-1.16326e-07
-2.13912e-15
2.46842e-09
-1.20545e-07
-2.01453e-15
2.42257e-09
-1.24825e-07
-2.34258e-15
2.33998e-09
-1.29186e-07
-2.10379e-15
2.22071e-09
-1.33546e-07
-2.2656e-15
2.06604e-09
-1.3777e-07
-2.2183e-15
1.87799e-09
-1.41712e-07
-2.16874e-15
1.65881e-09
-1.45239e-07
-2.12701e-15
1.41072e-09
-1.48198e-07
-2.11198e-15
1.13571e-09
-1.50491e-07
-2.07842e-15
8.35629e-10
-1.51997e-07
-2.03775e-15
5.12222e-10
-1.5263e-07
-1.99276e-15
1.67372e-10
-1.52301e-07
-1.94704e-15
-1.96675e-10
-1.50915e-07
-1.89057e-15
-5.77213e-10
-1.48419e-07
-1.84058e-15
-9.70754e-10
-1.44708e-07
-1.80235e-15
-1.373e-09
-1.39722e-07
-1.61513e-15
-1.77873e-09
-1.33389e-07
-1.55407e-15
-2.18176e-09
-1.25633e-07
-1.47739e-15
-2.57503e-09
-1.16391e-07
-1.39217e-15
-2.95084e-09
-1.05604e-07
-1.30265e-15
-3.30134e-09
-9.32239e-08
-1.20781e-15
-3.61939e-09
-7.92064e-08
-1.10821e-15
-3.90016e-09
-6.35261e-08
-1.00399e-15
-4.14318e-09
-4.6166e-08
-8.93444e-16
-4.35252e-09
-2.71091e-08
-7.7283e-16
-4.53757e-09
-6.37155e-09
-6.47495e-16
-4.66308e-09
1.61213e-08
-5.28099e-16
-4.69405e-09
4.02804e-08
-4.22913e-16
-4.65833e-09
6.57883e-08
-3.35452e-16
-4.57346e-09
9.23966e-08
-2.65154e-16
-4.44637e-09
1.1988e-07
-2.04153e-16
-4.27779e-09
1.47795e-07
-1.4437e-16
-4.0658e-09
1.75768e-07
-1.6236e-16
-3.80918e-09
2.03169e-07
-1.68592e-16
-3.50813e-09
2.29294e-07
-1.32643e-16
-3.16474e-09
2.53307e-07
-1.08221e-16
-2.78361e-09
2.7397e-07
-7.85591e-17
-2.37181e-09
2.8996e-07
-1.09963e-16
-1.93932e-09
2.99594e-07
-8.58424e-17
-1.49956e-09
3.00708e-07
-6.72445e-17
-1.06996e-09
2.90684e-07
-4.88725e-17
-6.72665e-10
2.6635e-07
-2.13563e-17
-3.35988e-10
2.23637e-07
-4.72191e-17
-9.60809e-11
1.57673e-07
-3.32653e-17
6.22663e-08
-2.50622e-17
1.2011e-11
-6.96911e-09
3.08079e-16
4.25346e-11
-2.12844e-08
-1.85608e-15
-7.1911e-11
-3.61713e-08
-1.58064e-14
3.59934e-11
-5.01442e-08
-5.65033e-15
8.74307e-10
-7.63357e-08
-3.3007e-16
1.25436e-09
-9.69403e-08
-9.61458e-15
1.25263e-09
-9.76952e-08
6.85191e-15
2.08443e-09
-8.2048e-08
-2.86344e-15
2.20618e-09
-7.366e-08
-2.38267e-15
2.23353e-09
-8.33253e-08
-1.80967e-15
2.2883e-09
-9.29811e-08
-1.84003e-15
2.35322e-09
-1.00893e-07
-2.12809e-15
2.41739e-09
-1.07115e-07
-2.16e-15
2.46585e-09
-1.12021e-07
-2.23008e-15
2.48828e-09
-1.16348e-07
-2.30153e-15
2.47827e-09
-1.20535e-07
-2.09373e-15
2.43188e-09
-1.24779e-07
-2.51106e-15
2.34713e-09
-1.29101e-07
-2.24116e-15
2.22379e-09
-1.33423e-07
-2.39963e-15
2.06295e-09
-1.37609e-07
-2.30968e-15
1.86654e-09
-1.41515e-07
-2.24215e-15
1.63677e-09
-1.45009e-07
-2.20029e-15
1.37594e-09
-1.47937e-07
-2.18269e-15
1.08611e-09
-1.50201e-07
-2.14502e-15
7.69266e-10
-1.5168e-07
-2.09647e-15
4.27278e-10
-1.52288e-07
-2.04379e-15
6.2154e-11
-1.51936e-07
-1.99108e-15
-3.23744e-10
-1.50529e-07
-1.92797e-15
-7.27611e-10
-1.48015e-07
-1.87291e-15
-1.14588e-09
-1.44289e-07
-1.83112e-15
-1.57422e-09
-1.39294e-07
-1.63708e-15
-2.00743e-09
-1.32956e-07
-1.57245e-15
-2.43944e-09
-1.25201e-07
-1.49348e-15
-2.86343e-09
-1.15967e-07
-1.4066e-15
-3.27212e-09
-1.05195e-07
-1.31625e-15
-3.65825e-09
-9.28378e-08
-1.2212e-15
-4.01537e-09
-7.88493e-08
-1.12217e-15
-4.33907e-09
-6.32024e-08
-1.0197e-15
-4.6282e-09
-4.58769e-08
-9.12756e-16
-4.88349e-09
-2.68538e-08
-7.97793e-16
-5.10679e-09
-6.14819e-09
-6.79338e-16
-5.26704e-09
1.62815e-08
-5.6609e-16
-5.33332e-09
4.03467e-08
-4.63554e-16
-5.32207e-09
6.57771e-08
-3.74826e-16
-5.24654e-09
9.23211e-08
-3.00698e-16
-5.11465e-09
1.19748e-07
-2.34835e-16
-4.92905e-09
1.47609e-07
-1.67769e-16
-4.68958e-09
1.75528e-07
-1.75438e-16
-4.39628e-09
2.02876e-07
-1.77424e-16
-4.05029e-09
2.28948e-07
-1.33411e-16
-3.65456e-09
2.52911e-07
-1.03485e-16
-3.21475e-09
2.7353e-07
-6.83092e-17
-2.7392e-09
2.89484e-07
-1.04398e-16
-2.23953e-09
2.99094e-07
-7.70834e-17
-1.73135e-09
3.002e-07
-5.70582e-17
-1.23489e-09
2.90188e-07
-3.79871e-17
-7.75858e-10
2.65891e-07
-8.92671e-18
-3.87116e-10
2.23248e-07
-4.1513e-17
-1.1049e-10
1.57396e-07
-2.80475e-17
6.21558e-08
-2.01883e-17
1.26551e-11
-6.98177e-09
3.11873e-16
4.51098e-11
-2.13169e-08
-5.43183e-15
-1.01755e-10
-3.60244e-08
-1.81273e-14
5.0287e-12
-5.0251e-08
-2.05718e-15
7.83003e-10
-7.71136e-08
1.85706e-16
1.0368e-09
-9.71941e-08
-6.72506e-15
1.11403e-09
-9.77724e-08
4.40695e-15
2.04676e-09
-8.29807e-08
-4.20221e-15
2.18992e-09
-7.38032e-08
-4.08115e-15
2.21658e-09
-8.3352e-08
-2.34506e-15
2.26926e-09
-9.30338e-08
-2.34061e-15
2.33287e-09
-1.00956e-07
-2.56593e-15
2.39673e-09
-1.07179e-07
-2.57336e-15
2.44549e-09
-1.1207e-07
-2.62994e-15
2.46824e-09
-1.16371e-07
-2.64136e-15
2.45833e-09
-1.20525e-07
-2.32123e-15
2.41148e-09
-1.24732e-07
-2.73434e-15
2.32532e-09
-1.29015e-07
-2.41021e-15
2.19917e-09
-1.33296e-07
-2.52256e-15
2.03372e-09
-1.37443e-07
-2.43874e-15
1.83056e-09
-1.41312e-07
-2.34212e-15
1.5917e-09
-1.4477e-07
-2.28283e-15
1.31933e-09
-1.47664e-07
-2.25065e-15
1.0155e-09
-1.49897e-07
-2.2045e-15
6.82244e-10
-1.51346e-07
-2.14719e-15
3.21552e-10
-1.51927e-07
-2.0883e-15
-6.44308e-11
-1.5155e-07
-2.03056e-15
-4.73187e-10
-1.50121e-07
-1.96282e-15
-9.01753e-10
-1.47587e-07
-1.90403e-15
-1.34641e-09
-1.43845e-07
-1.85936e-15
-1.8027e-09
-1.38838e-07
-1.65816e-15
-2.26536e-09
-1.32493e-07
-1.59081e-15
-2.72829e-09
-1.24738e-07
-1.50974e-15
-3.18479e-09
-1.15511e-07
-1.42122e-15
-3.62776e-09
-1.04752e-07
-1.33003e-15
-4.0502e-09
-9.24153e-08
-1.23469e-15
-4.44591e-09
-7.84535e-08
-1.13612e-15
-4.81027e-09
-6.2838e-08
-1.0351e-15
-5.14086e-09
-4.55463e-08
-9.31201e-16
-5.43547e-09
-2.65592e-08
-8.20853e-16
-5.69068e-09
-5.89291e-09
-7.07664e-16
-5.87945e-09
1.64703e-08
-5.98858e-16
-5.97483e-09
4.04421e-08
-4.98552e-16
-5.98463e-09
6.57869e-08
-4.09195e-16
-5.91774e-09
9.22542e-08
-3.32263e-16
-5.78158e-09
1.19612e-07
-2.62611e-16
-5.57979e-09
1.47408e-07
-1.89553e-16
-5.31354e-09
1.75262e-07
-1.91117e-16
-4.98398e-09
2.02546e-07
-1.91114e-16
-4.59327e-09
2.28558e-07
-1.39931e-16
-4.14528e-09
2.52463e-07
-1.04566e-16
-3.64675e-09
2.73032e-07
-6.35862e-17
-3.10732e-09
2.88945e-07
-1.03923e-16
-2.54033e-09
2.98527e-07
-7.2834e-17
-1.96357e-09
2.99624e-07
-5.06887e-17
-1.40009e-09
2.89624e-07
-3.00716e-17
-8.79187e-10
2.65371e-07
1.36549e-18
-4.38293e-10
2.22807e-07
-3.68102e-17
-1.24909e-10
1.57083e-07
-2.31456e-17
6.20309e-08
-1.52717e-17
1.32445e-11
-6.99501e-09
5.99075e-16
4.84445e-11
-2.13521e-08
-9.58531e-16
-1.29457e-10
-3.58465e-08
-1.82787e-14
-5.96011e-11
-5.03208e-08
-9.74546e-16
6.07498e-10
-7.77807e-08
-2.07093e-15
8.09396e-10
-9.7396e-08
-8.68239e-15
1.03623e-09
-9.79992e-08
1.29684e-15
2.02421e-09
-8.39687e-08
-3.89718e-15
2.16438e-09
-7.39433e-08
-2.00432e-15
2.18469e-09
-8.33723e-08
-2.82219e-15
2.23207e-09
-9.30812e-08
-2.99604e-15
2.29138e-09
-1.01016e-07
-3.17674e-15
2.35238e-09
-1.0724e-07
-3.12624e-15
2.39942e-09
-1.12117e-07
-3.15421e-15
2.421e-09
-1.16393e-07
-3.08789e-15
2.41026e-09
-1.20514e-07
-2.68278e-15
2.3626e-09
-1.24684e-07
-3.11694e-15
2.27523e-09
-1.28928e-07
-2.74258e-15
2.14696e-09
-1.33168e-07
-2.74713e-15
1.97792e-09
-1.37274e-07
-2.58616e-15
1.76921e-09
-1.41103e-07
-2.4629e-15
1.52246e-09
-1.44524e-07
-2.39103e-15
1.23956e-09
-1.47382e-07
-2.34458e-15
9.2247e-10
-1.4958e-07
-2.2845e-15
5.7317e-10
-1.50997e-07
-2.21418e-15
1.93727e-10
-1.51548e-07
-2.1441e-15
-2.13573e-10
-1.51143e-07
-2.07755e-15
-6.46023e-10
-1.49688e-07
-2.00219e-15
-1.10044e-09
-1.47132e-07
-1.93762e-15
-1.57289e-09
-1.43372e-07
-1.88868e-15
-2.05869e-09
-1.38352e-07
-1.67947e-15
-2.5524e-09
-1.31999e-07
-1.60921e-15
-3.0478e-09
-1.24242e-07
-1.52593e-15
-3.53811e-09
-1.1502e-07
-1.43576e-15
-4.01624e-09
-1.04274e-07
-1.34372e-15
-4.47518e-09
-9.19564e-08
-1.24806e-15
-4.90859e-09
-7.80201e-08
-1.14984e-15
-5.31126e-09
-6.24354e-08
-1.05003e-15
-5.67933e-09
-4.51782e-08
-9.48677e-16
-6.00808e-09
-2.62305e-08
-8.42086e-16
-6.29059e-09
-5.61033e-09
-7.32882e-16
-6.50318e-09
1.66829e-08
-6.27201e-16
-6.62223e-09
4.05613e-08
-5.28571e-16
-6.64935e-09
6.58141e-08
-4.38845e-16
-6.5895e-09
9.21943e-08
-3.59792e-16
-6.44874e-09
1.19471e-07
-2.87142e-16
-6.23095e-09
1.4719e-07
-2.09848e-16
-5.9382e-09
1.74969e-07
-2.08947e-16
-5.57261e-09
2.02181e-07
-2.09158e-16
-5.13727e-09
2.28122e-07
-1.51534e-16
-4.637e-09
2.51963e-07
-1.10782e-16
-4.07965e-09
2.72474e-07
-6.3755e-17
-3.47623e-09
2.88342e-07
-1.07969e-16
-2.84175e-09
2.97893e-07
-7.25915e-17
-2.19625e-09
2.98978e-07
-4.77064e-17
-1.5656e-09
2.88994e-07
-2.4795e-17
-9.82698e-10
2.64788e-07
9.90503e-18
-4.89557e-10
2.22314e-07
-3.3328e-17
-1.39356e-10
1.56733e-07
-1.82551e-17
6.18916e-08
-9.71797e-18
1.37066e-11
-7.00873e-09
-8.67133e-17
5.03751e-11
-2.13887e-08
-2.84498e-15
-1.6313e-10
-3.5633e-08
-2.01221e-14
-1.67368e-10
-5.03165e-08
9.12139e-16
3.78026e-10
-7.83261e-08
-2.79213e-15
6.2588e-10
-9.76438e-08
-4.95408e-15
1.02704e-09
-9.84003e-08
7.23775e-16
2.0105e-09
-8.49522e-08
-6.19125e-15
2.1319e-09
-7.40647e-08
-6.07324e-15
2.13854e-09
-8.33789e-08
-4.00283e-15
2.17647e-09
-9.31192e-08
-3.94261e-15
2.22801e-09
-1.01067e-07
-4.02133e-15
2.2835e-09
-1.07296e-07
-3.84368e-15
2.32694e-09
-1.12161e-07
-3.77999e-15
2.34619e-09
-1.16412e-07
-3.56547e-15
2.3341e-09
-1.20502e-07
-3.06872e-15
2.28565e-09
-1.24636e-07
-3.42907e-15
2.19753e-09
-1.2884e-07
-2.98573e-15
2.06789e-09
-1.33038e-07
-2.9347e-15
1.89622e-09
-1.37103e-07
-2.75609e-15
1.68298e-09
-1.4089e-07
-2.58896e-15
1.42927e-09
-1.4427e-07
-2.48871e-15
1.13662e-09
-1.47089e-07
-2.42142e-15
8.06752e-10
-1.4925e-07
-2.34863e-15
4.41576e-10
-1.50632e-07
-2.26809e-15
4.32063e-11
-1.51149e-07
-2.19054e-15
-3.85926e-10
-1.50714e-07
-2.11801e-15
-8.4289e-10
-1.49231e-07
-2.03746e-15
-1.32424e-09
-1.46651e-07
-1.96865e-15
-1.82572e-09
-1.42871e-07
-1.91635e-15
-2.34238e-09
-1.37835e-07
-1.6998e-15
-2.86847e-09
-1.31473e-07
-1.62692e-15
-3.39756e-09
-1.23713e-07
-1.54163e-15
-3.92263e-09
-1.14495e-07
-1.44991e-15
-4.43641e-09
-1.0376e-07
-1.35707e-15
-4.93167e-09
-9.14611e-08
-1.26107e-15
-5.40165e-09
-7.75501e-08
-1.16313e-15
-5.84038e-09
-6.19966e-08
-1.0643e-15
-6.2425e-09
-4.47761e-08
-9.65117e-16
-6.60131e-09
-2.58717e-08
-8.61629e-16
-6.90755e-09
-5.30401e-09
-7.55486e-16
-7.14018e-09
1.69156e-08
-6.51997e-16
-7.27823e-09
4.06994e-08
-5.54537e-16
-7.31895e-09
6.58549e-08
-4.64497e-16
-7.26397e-09
9.21394e-08
-3.83747e-16
-7.11762e-09
1.19325e-07
-3.08697e-16
-6.8835e-09
1.46956e-07
-2.27741e-16
-6.56417e-09
1.7465e-07
-2.27947e-16
-6.16251e-09
2.01779e-07
-2.30246e-16
-5.68248e-09
2.27642e-07
-1.67411e-16
-5.12983e-09
2.5141e-07
-1.2195e-16
-4.51353e-09
2.71858e-07
-6.91796e-17
-3.84595e-09
2.87674e-07
-1.17369e-16
-3.14383e-09
2.97191e-07
-7.75186e-17
-2.42943e-09
2.98264e-07
-4.94908e-17
-1.73145e-09
2.88296e-07
-2.36078e-17
-1.08642e-09
2.64143e-07
1.51427e-17
-5.40934e-10
2.21769e-07
-3.19488e-17
-1.53842e-10
1.56345e-07
-1.46006e-17
6.17377e-08
-4.95214e-18
1.40949e-11
-7.02282e-09
5.47401e-16
5.05219e-11
-2.14252e-08
-7.59652e-16
-2.07801e-10
-3.53747e-08
-1.61465e-14
-3.11489e-10
-5.02129e-08
-1.36629e-15
1.49193e-10
-7.87867e-08
-5.38488e-15
5.24817e-10
-9.80195e-08
-3.44829e-15
1.06554e-09
-9.89411e-08
-1.42618e-15
1.98097e-09
-8.58677e-08
-9.26684e-15
2.08788e-09
-7.41716e-08
-1.55102e-15
2.07581e-09
-8.33669e-08
-5.05314e-15
2.10096e-09
-9.31443e-08
-4.99135e-15
2.14215e-09
-1.01108e-07
-4.85151e-15
2.19038e-09
-1.07344e-07
-4.71163e-15
2.22922e-09
-1.122e-07
-4.42882e-15
2.24575e-09
-1.16428e-07
-4.09385e-15
2.23227e-09
-1.20488e-07
-3.49815e-15
2.18329e-09
-1.24587e-07
-3.76226e-15
2.09489e-09
-1.28751e-07
-3.23756e-15
1.96449e-09
-1.32908e-07
-3.13668e-15
1.79084e-09
-1.36929e-07
-2.93189e-15
1.57368e-09
-1.40673e-07
-2.73126e-15
1.31352e-09
-1.4401e-07
-2.6054e-15
1.01145e-09
-1.46787e-07
-2.51729e-15
6.6891e-10
-1.48908e-07
-2.4267e-15
2.87696e-10
-1.50251e-07
-2.33192e-15
-1.3004e-10
-1.50731e-07
-2.24261e-15
-5.81705e-10
-1.50262e-07
-2.1614e-15
-1.06411e-09
-1.48749e-07
-2.07375e-15
-1.57347e-09
-1.46141e-07
-1.99962e-15
-2.1052e-09
-1.42339e-07
-1.94336e-15
-2.65392e-09
-1.37286e-07
-1.71935e-15
-3.21355e-09
-1.30913e-07
-1.64381e-15
-3.77728e-09
-1.2315e-07
-1.55657e-15
-4.33777e-09
-1.13935e-07
-1.46343e-15
-4.8874e-09
-1.03211e-07
-1.36984e-15
-5.41855e-09
-9.093e-08
-1.27352e-15
-5.92388e-09
-7.70448e-08
-1.17579e-15
-6.39653e-09
-6.1524e-08
-1.07778e-15
-6.82976e-09
-4.43428e-08
-9.80442e-16
-7.21528e-09
-2.54861e-08
-8.79586e-16
-7.54231e-09
-4.9769e-09
-7.75884e-16
-7.79181e-09
1.71651e-08
-6.73973e-16
-7.94482e-09
4.08525e-08
-5.77306e-16
-7.99557e-09
6.59057e-08
-4.86933e-16
-7.943e-09
9.20868e-08
-4.04721e-16
-7.7896e-09
1.19171e-07
-3.27602e-16
-7.53837e-09
1.46705e-07
-2.43841e-16
-7.19205e-09
1.74304e-07
-2.46759e-16
-6.75406e-09
2.01341e-07
-2.52504e-16
-6.22914e-09
2.27117e-07
-1.85027e-16
-5.62392e-09
2.50805e-07
-1.35217e-16
-4.94847e-09
2.71183e-07
-7.69142e-17
-4.21654e-09
2.86942e-07
-1.29237e-16
-3.44659e-09
2.96421e-07
-8.49327e-17
-2.66311e-09
2.9748e-07
-5.36664e-17
-1.89766e-09
2.8753e-07
-2.45508e-17
-1.19038e-09
2.63435e-07
1.87522e-17
-5.92445e-10
2.21171e-07
-3.1705e-17
-1.68378e-10
1.55921e-07
-1.13815e-17
6.15694e-08
-7.32433e-20
1.43477e-11
-7.03718e-09
-5.72518e-16
4.84404e-11
-2.14592e-08
-2.42297e-15
-2.67915e-10
-3.50583e-08
-1.59046e-14
-4.70266e-10
-5.00105e-08
-1.51692e-15
-1.60276e-11
-7.9241e-08
-5.62894e-15
5.18855e-10
-9.85544e-08
-1.98337e-15
1.11268e-09
-9.95349e-08
1.20591e-15
1.9066e-09
-8.66616e-08
-8.73542e-15
2.02823e-09
-7.42932e-08
-3.082e-15
1.99555e-09
-8.33342e-08
-6.25618e-15
2.005e-09
-9.31538e-08
-6.07709e-15
2.03372e-09
-1.01137e-07
-5.84861e-15
2.0736e-09
-1.07384e-07
-5.57991e-15
2.1076e-09
-1.12234e-07
-5.13856e-15
2.12168e-09
-1.16442e-07
-4.63841e-15
2.10739e-09
-1.20474e-07
-3.94485e-15
2.05858e-09
-1.24538e-07
-4.09426e-15
1.97057e-09
-1.28663e-07
-3.49632e-15
1.84001e-09
-1.32778e-07
-3.34328e-15
1.66482e-09
-1.36754e-07
-3.09006e-15
1.44402e-09
-1.40452e-07
-2.84193e-15
1.17748e-09
-1.43743e-07
-2.69054e-15
8.65834e-10
-1.46475e-07
-2.58659e-15
5.1023e-10
-1.48552e-07
-2.48574e-15
1.12367e-10
-1.49853e-07
-2.38215e-15
-3.25554e-10
-1.50294e-07
-2.28568e-15
-8.00746e-10
-1.49787e-07
-2.19843e-15
-1.30971e-09
-1.4824e-07
-2.10571e-15
-1.84831e-09
-1.45603e-07
-2.02743e-15
-2.41149e-09
-1.41776e-07
-1.968e-15
-2.99344e-09
-1.36705e-07
-1.73716e-15
-3.58763e-09
-1.30319e-07
-1.65935e-15
-4.18679e-09
-1.2255e-07
-1.57046e-15
-4.78314e-09
-1.13339e-07
-1.47608e-15
-5.36861e-09
-1.02625e-07
-1.38187e-15
-5.93505e-09
-9.03635e-08
-1.28524e-15
-6.47444e-09
-7.65053e-08
-1.18767e-15
-6.97902e-09
-6.10194e-08
-1.09033e-15
-7.44078e-09
-4.3881e-08
-9.94573e-16
-7.8502e-09
-2.50767e-08
-8.95994e-16
-8.19547e-09
-4.63153e-09
-7.94334e-16
-8.45905e-09
1.74287e-08
-6.9363e-16
-8.62345e-09
4.10169e-08
-5.97511e-16
-8.68088e-09
6.59631e-08
-5.06771e-16
-8.62812e-09
9.20341e-08
-4.23248e-16
-8.4659e-09
1.19009e-07
-3.44273e-16
-8.19645e-09
1.46435e-07
-2.56913e-16
-7.82243e-09
1.7393e-07
-2.64585e-16
-7.34765e-09
2.00867e-07
-2.74727e-16
-6.77748e-09
2.26547e-07
-2.03543e-16
-6.11938e-09
2.50147e-07
-1.50139e-16
-5.38454e-09
2.70448e-07
-8.68431e-17
-4.58803e-09