/*--------------------------------*- C++ -*----------------------------------*\
| =========                 |                                                 |
| \\      /  F ield         | OpenFOAM: The Open Source CFD Toolbox           |
|  \\    /   O peration     | Version:  v2012                                 |
|   \\  /    A nd           | Website:  www.openfoam.com                      |
|    \\/     M anipulation  |                                                 |
\*---------------------------------------------------------------------------*/
FoamFile
{
    version     2.0;
    format      ascii;
    class       volVectorField;
    location    "0.75";
    object      U;
}
// * * * * * * * * * * * * * * * * * * * * * * * * * * * * * * * * * * * * * //

dimensions      [0 1 -1 0 0 0 0];


internalField   nonuniform List<vector> 
20000
(
(0.0569111 -43.7528 -0.000496724)
(-0.0809162 -42.5618 0.000706071)
(0.171672 -41.5854 -0.00149834)
(-0.0170116 -39.5515 0.000147911)
(0.0957217 -41.5316 -0.000835301)
(0.192183 -41.603 -0.00167712)
(0.326903 -34.8517 -0.00285312)
(0.357891 -23.4257 -0.00312193)
(0.312691 -18.5732 -0.00272344)
(0.273063 -17.8683 -0.00238182)
(0.250242 -17.0964 -0.00218372)
(0.231839 -16.0971 -0.00202344)
(0.21624 -14.9529 -0.00188749)
(0.201659 -13.7823 -0.00176024)
(0.187467 -12.6889 -0.00163638)
(0.173383 -11.7097 -0.00151346)
(0.159376 -10.8424 -0.00139121)
(0.145377 -10.0692 -0.00126903)
(0.131388 -9.36915 -0.00114694)
(0.117411 -8.72372 -0.00102495)
(0.103483 -8.11881 -0.00090339)
(0.0896507 -7.54456 -0.000782661)
(0.0759762 -6.99457 -0.000663309)
(0.0625274 -6.46499 -0.000545927)
(0.0493767 -5.95365 -0.000431143)
(0.0365983 -5.45945 -0.000319607)
(0.0242678 -4.98188 -0.00021198)
(0.0124643 -4.52079 -0.00010895)
(0.00127042 -4.07618 -1.12388e-05)
(-0.00922504 -3.6481 8.03789e-05)
(-0.0189246 -3.23664 0.000165053)
(-0.0277204 -2.84187 0.000241841)
(-0.035491 -2.46385 0.000309685)
(-0.0420977 -2.10267 0.000367373)
(-0.0473801 -1.75844 0.000413507)
(-0.0511445 -1.43125 0.000446399)
(-0.0531582 -1.12125 0.000464019)
(-0.053081 -0.828664 0.00046341)
(-0.0505574 -0.553715 0.000441448)
(-0.0443471 -0.297221 0.000387533)
(-0.0357473 -0.0594964 0.000312434)
(-0.012549 0.158211 0.00010939)
(-0.00954262 0.355421 8.31087e-05)
(-0.00728566 0.534146 6.36163e-05)
(-0.00642016 0.693249 5.60446e-05)
(-0.00582318 0.832872 5.08403e-05)
(-0.00532616 0.952264 4.65013e-05)
(-0.00485057 1.05075 4.23499e-05)
(-0.00437517 1.12758 3.82e-05)
(-0.00389219 1.1819 3.39841e-05)
(-0.00340195 1.21274 2.97048e-05)
(-0.00290858 1.21895 2.53981e-05)
(-0.00241887 1.19922 2.11231e-05)
(-0.00194146 1.15195 1.69553e-05)
(-0.00148635 1.07528 1.29819e-05)
(-0.00106534 0.966973 9.30607e-06)
(-0.000690609 0.82436 6.03388e-06)
(-0.000377727 0.644241 3.30132e-06)
(-0.000140286 0.42276 1.22822e-06)
(-7.11943e-06 0.155482 8.48123e-08)
(0.102292 -43.8051 -0.000892783)
(-0.147477 -42.6824 0.00128694)
(0.25619 -41.8401 -0.00223596)
(-0.0784931 -39.4356 0.000684401)
(0.108248 -41.8804 -0.000944538)
(0.221329 -42.0535 -0.00193141)
(0.39211 -35.1609 -0.00342214)
(0.406215 -23.573 -0.00354419)
(0.342157 -18.5447 -0.00298281)
(0.286477 -17.8726 -0.00249928)
(0.261937 -17.114 -0.00228595)
(0.242897 -16.1142 -0.00211995)
(0.2273 -14.9664 -0.00198401)
(0.212211 -13.791 -0.00185234)
(0.197086 -12.6929 -0.00172033)
(0.181695 -11.7099 -0.001586)
(0.166254 -10.8395 -0.00145124)
(0.150811 -10.0638 -0.00131645)
(0.135483 -9.36167 -0.00118267)
(0.120321 -8.71465 -0.00105034)
(0.105391 -8.10854 -0.000920029)
(0.0907382 -7.53341 -0.00079214)
(0.0764119 -6.98285 -0.000667101)
(0.0624568 -6.45296 -0.000545301)
(0.0489195 -5.94153 -0.000427146)
(0.035849 -5.44742 -0.000313064)
(0.0232988 -4.97012 -0.000203522)
(0.0113293 -4.50946 -9.90483e-05)
(8.38359e-06 -4.0654 -2.33765e-07)
(-0.0105864 -3.63799 9.22449e-05)
(-0.0203663 -3.22731 0.000177614)
(-0.0292304 -2.83341 0.00025499)
(-0.0370634 -2.45638 0.00032337)
(-0.0437329 -2.09629 0.000381596)
(-0.0490867 -1.75324 0.000428342)
(-0.0529437 -1.42736 0.000462028)
(-0.0550968 -1.11881 0.000480845)
(-0.0552495 -0.827845 0.000482211)
(-0.0531815 -0.554813 0.00046418)
(-0.0479971 -0.300439 0.000419028)
(-0.0416091 -0.0655254 0.000363344)
(-0.0300742 0.152285 0.000262662)
(-0.0253907 0.353427 0.00022176)
(-0.0213137 0.533283 0.000186128)
(-0.0191337 0.692886 0.000167049)
(-0.0174482 0.832647 0.000152336)
(-0.0159827 0.952074 0.000139541)
(-0.0145645 1.05056 0.000127161)
(-0.0131412 1.12738 0.000114737)
(-0.0116928 1.18168 0.000102094)
(-0.0102212 1.21251 8.92486e-05)
(-0.00873938 1.21872 7.63133e-05)
(-0.0072678 1.19898 6.34671e-05)
(-0.00583251 1.15172 5.09372e-05)
(-0.00446373 1.07506 3.89874e-05)
(-0.00319711 0.966775 2.79286e-05)
(-0.00206961 0.824188 1.80836e-05)
(-0.00112876 0.644101 9.86686e-06)
(-0.000416584 0.422662 3.64863e-06)
(-2.0123e-05 0.155441 2.41908e-07)
(0.10382 -43.8308 -0.00090612)
(-0.145568 -42.7019 0.00127028)
(0.230436 -41.9293 -0.00201125)
(-0.10572 -39.3337 0.000922127)
(0.123106 -42.0908 -0.0010741)
(0.238037 -42.3137 -0.00207727)
(0.379849 -35.283 -0.00331521)
(0.395768 -23.6478 -0.00345274)
(0.365799 -18.5168 -0.00318641)
(0.309528 -17.8628 -0.0026999)
(0.280007 -17.1169 -0.00244354)
(0.256555 -16.1194 -0.00223917)
(0.237902 -14.9712 -0.00207656)
(0.220863 -13.7939 -0.00192787)
(0.204559 -12.6938 -0.00178557)
(0.188288 -11.709 -0.00164356)
(0.172083 -10.837 -0.00150213)
(0.155862 -10.0601 -0.00136055)
(0.139732 -9.35692 -0.00121977)
(0.123752 -8.70904 -0.0010803)
(0.108023 -8.10224 -0.000943015)
(0.0926143 -7.52657 -0.000808531)
(0.0775971 -6.97558 -0.000677458)
(0.0630248 -6.44536 -0.000550267)
(0.0489457 -5.93372 -0.00042738)
(0.0354043 -5.4395 -0.000309185)
(0.0224462 -4.96219 -0.000196081)
(0.0101226 -4.50161 -8.85131e-05)
(-0.00150803 -4.05773 1.3007e-05)
(-0.0123768 -3.63061 0.000107879)
(-0.0224028 -3.22031 0.000195397)
(-0.0314926 -2.82691 0.000274746)
(-0.0395389 -2.45048 0.000344987)
(-0.0464186 -2.0911 0.000405049)
(-0.0519937 -1.74888 0.000453727)
(-0.0561048 -1.42395 0.000489629)
(-0.0585847 -1.11649 0.000511296)
(-0.0592104 -0.826766 0.000516786)
(-0.0579123 -0.555125 0.000505476)
(-0.0542231 -0.302072 0.000473364)
(-0.0498845 -0.0682962 0.000435549)
(-0.0438437 0.149911 0.000382813)
(-0.0393249 0.351797 0.000343358)
(-0.0347185 0.532257 0.00030314)
(-0.031621 0.692275 0.000276069)
(-0.0289949 0.832185 0.000253145)
(-0.0266143 0.951649 0.000232362)
(-0.0242755 1.05012 0.000211946)
(-0.0219136 1.12691 0.000191329)
(-0.0195035 1.18119 0.000170292)
(-0.0170515 1.21199 0.000148889)
(-0.0145803 1.21819 0.000127317)
(-0.0121249 1.19845 0.000105882)
(-0.00972888 1.1512 8.49657e-05)
(-0.00744302 1.07457 6.50097e-05)
(-0.00532719 0.966334 4.65368e-05)
(-0.00344377 0.823809 3.00916e-05)
(-0.00187329 0.643803 1.63763e-05)
(-0.000687527 0.422463 6.02276e-06)
(-3.16261e-05 0.155366 3.8462e-07)
(0.102828 -43.8869 -0.000897449)
(-0.131705 -42.7773 0.00114928)
(0.22334 -42.0467 -0.00194939)
(-0.118752 -39.2774 0.00103592)
(0.131868 -42.4196 -0.00115047)
(0.297777 -42.681 -0.00259871)
(0.385206 -35.451 -0.00336208)
(0.409798 -23.7922 -0.00357519)
(0.378677 -18.5155 -0.00329754)
(0.323456 -17.8646 -0.00282112)
(0.293562 -17.1255 -0.00256175)
(0.269111 -16.1288 -0.00234874)
(0.249458 -14.9794 -0.00217742)
(0.231425 -13.7993 -0.00202006)
(0.214163 -12.696 -0.0018694)
(0.196857 -11.7081 -0.00171836)
(0.179553 -10.8336 -0.00156733)
(0.162168 -10.0546 -0.0014156)
(0.144864 -9.34988 -0.00126458)
(0.127743 -8.70086 -0.00111514)
(0.110944 -8.09327 -0.000968523)
(0.0945634 -7.51709 -0.000825551)
(0.0786817 -6.96583 -0.000686934)
(0.0633522 -6.43552 -0.000553135)
(0.0486153 -5.92392 -0.000424506)
(0.0345031 -5.42986 -0.00030133)
(0.0210478 -4.9528 -0.000183886)
(0.00828732 -4.49256 -7.25053e-05)
(-0.00373191 -4.0491 3.24069e-05)
(-0.0149514 -3.62247 0.000130341)
(-0.0252994 -3.21274 0.00022067)
(-0.0346909 -2.81998 0.000302652)
(-0.0430277 -2.44426 0.00037543)
(-0.050198 -2.08567 0.00043803)
(-0.05608 -1.74431 0.000489387)
(-0.0605395 -1.42032 0.000528331)
(-0.0634519 -1.11387 0.000553774)
(-0.0646699 -0.825202 0.000564431)
(-0.0642347 -0.554617 0.000560655)
(-0.0619804 -0.302389 0.00054108)
(-0.0593125 -0.0688466 0.000517814)
(-0.0560347 0.14907 0.000489184)
(-0.0521354 0.350578 0.000455164)
(-0.0475357 0.53126 0.000415024)
(-0.043833 0.691553 0.000382684)
(-0.0404273 0.831571 0.000352955)
(-0.0372012 0.951051 0.000324792)
(-0.0339739 1.04949 0.000296622)
(-0.0306879 1.12624 0.000267938)
(-0.0273225 1.18047 0.000238562)
(-0.0238921 1.21124 0.000208618)
(-0.0204314 1.21741 0.000178409)
(-0.0169905 1.19767 0.000148372)
(-0.0136315 1.15044 0.000119048)
(-0.0104256 1.07385 9.10609e-05)
(-0.00745762 0.965681 6.51475e-05)
(-0.0048157 0.823246 4.20794e-05)
(-0.00261419 0.643358 2.28532e-05)
(-0.000955387 0.422166 8.36917e-06)
(-4.22041e-05 0.155254 5.19131e-07)
(0.0887152 -43.9397 -0.000774278)
(-0.102256 -42.827 0.000892262)
(0.180925 -42.0736 -0.00157931)
(-0.127454 -39.2318 0.00111198)
(0.133931 -42.7703 -0.00116836)
(0.358715 -43.0171 -0.00313062)
(0.357321 -35.5442 -0.00311878)
(0.411561 -23.9242 -0.00359062)
(0.388007 -18.5077 -0.00337797)
(0.333826 -17.8627 -0.00291138)
(0.303265 -17.1315 -0.00264639)
(0.278132 -16.1358 -0.00242746)
(0.257769 -14.9855 -0.00224996)
(0.239154 -13.803 -0.00208752)
(0.221365 -12.6971 -0.00193226)
(0.203515 -11.7067 -0.00177647)
(0.185593 -10.83 -0.00162006)
(0.167484 -10.0491 -0.00146201)
(0.149365 -9.34288 -0.00130387)
(0.131362 -8.69276 -0.00114674)
(0.113657 -8.08438 -0.000992216)
(0.0963828 -7.50769 -0.000841441)
(0.0796481 -6.95611 -0.000695377)
(0.0635242 -6.42566 -0.000554643)
(0.0480602 -5.91405 -0.000419668)
(0.0332891 -5.42009 -0.000290739)
(0.019239 -4.94323 -0.000168103)
(0.00594109 -4.48328 -5.20316e-05)
(-0.00656604 -4.04019 5.71394e-05)
(-0.018232 -3.61402 0.00015897)
(-0.0289931 -3.20483 0.000252905)
(-0.0387726 -2.81269 0.000338274)
(-0.0474817 -2.43767 0.000414301)
(-0.0550208 -2.07986 0.000480118)
(-0.0612848 -1.73935 0.000534809)
(-0.0661652 -1.41627 0.000577426)
(-0.0695761 -1.11077 0.000607217)
(-0.071434 -0.823061 0.000623458)
(-0.0718453 -0.553366 0.000627068)
(-0.070814 -0.301793 0.000618172)
(-0.0693908 -0.068415 0.000605765)
(-0.0675523 0.149024 0.000589713)
(-0.0642747 0.349828 0.000561128)
(-0.0598823 0.530426 0.000522801)
(-0.0557854 0.690801 0.000487029)
(-0.051736 0.830843 0.000451683)
(-0.0477343 0.950293 0.000416752)
(-0.043654 1.04867 0.000381137)
(-0.0394611 1.12534 0.000344537)
(-0.0351481 1.17951 0.00030689)
(-0.0307424 1.21023 0.000268432)
(-0.0262924 1.21637 0.000229588)
(-0.0218648 1.19663 0.000190938)
(-0.0175405 1.14943 0.000153188)
(-0.0134122 1.0729 0.000117146)
(-0.0095893 0.964811 8.37693e-05)
(-0.00618662 0.822497 5.40585e-05)
(-0.00335279 0.642765 2.931e-05)
(-0.00122117 0.421771 1.06974e-05)
(-5.23312e-05 0.155105 6.48878e-07)
(0.0679149 -44.0041 -0.000592731)
(-0.0608206 -42.8928 0.000530641)
(0.133677 -42.0659 -0.00116705)
(-0.122257 -39.2403 0.00106674)
(0.14099 -43.1968 -0.00122988)
(0.418948 -43.3467 -0.00365639)
(0.313702 -35.6035 -0.0027381)
(0.409925 -24.0937 -0.00357629)
(0.390481 -18.5169 -0.00339849)
(0.338877 -17.8666 -0.00295515)
(0.308679 -17.1408 -0.00269358)
(0.283941 -16.1453 -0.00247813)
(0.263693 -14.9936 -0.00230166)
(0.245122 -13.8083 -0.00213961)
(0.227166 -12.6991 -0.0019829)
(0.208993 -11.7055 -0.00182429)
(0.19058 -10.8261 -0.00166359)
(0.171845 -10.043 -0.00150008)
(0.152995 -9.33504 -0.00133556)
(0.134193 -8.68366 -0.00117146)
(0.115661 -8.07445 -0.00100971)
(0.097557 -7.49725 -0.000851699)
(0.0800165 -6.94542 -0.000698602)
(0.0631247 -6.4149 -0.000551166)
(0.0469389 -5.90337 -0.00040989)
(0.0314947 -5.4096 -0.000275087)
(0.0168195 -4.93301 -0.000146994)
(0.0029412 -4.47341 -2.58561e-05)
(-0.0101058 -4.03076 8.80275e-05)
(-0.022276 -3.60508 0.000194259)
(-0.0335107 -3.19647 0.000292329)
(-0.0437397 -2.80497 0.00038162)
(-0.0528815 -2.43066 0.000461425)
(-0.0608472 -2.07363 0.000530966)
(-0.0675469 -1.73396 0.000589459)
(-0.0728941 -1.41176 0.000636149)
(-0.0768336 -1.10716 0.000670553)
(-0.0793283 -0.820328 0.000692349)
(-0.0805115 -0.551415 0.000702696)
(-0.0804639 -0.300424 0.000702393)
(-0.0799201 -0.067292 0.000697662)
(-0.0788416 0.149564 0.000688255)
(-0.076053 0.34953 0.00066394)
(-0.0718971 0.529809 0.00062768)
(-0.067526 0.690075 0.000589524)
(-0.0629317 0.830036 0.000549424)
(-0.0582142 0.949393 0.000508247)
(-0.0533146 1.04767 0.000465481)
(-0.048232 1.12424 0.000421116)
(-0.0429799 1.17831 0.000375271)
(-0.037602 1.20897 0.000328328)
(-0.0321632 1.21508 0.000280853)
(-0.0267479 1.19533 0.00023358)
(-0.0214564 1.14816 0.000187386)
(-0.0164031 1.0717 0.00014327)
(-0.011723 0.963721 0.000102409)
(-0.00755749 0.821559 6.60371e-05)
(-0.00409011 0.642024 3.57557e-05)
(-0.00148562 0.421279 1.30141e-05)
(-6.21557e-05 0.15492 7.75703e-07)
(0.0442374 -44.0716 -0.000386075)
(-0.0171535 -42.9491 0.000149556)
(0.0812925 -41.9952 -0.000709953)
(-0.118487 -39.2833 0.00103396)
(0.145936 -43.6668 -0.00127298)
(0.448591 -43.6206 -0.00391518)
(0.253412 -35.6145 -0.0022119)
(0.401477 -24.2874 -0.00350251)
(0.390866 -18.5311 -0.00340113)
(0.341328 -17.8701 -0.00297632)
(0.311088 -17.1498 -0.0027146)
(0.286663 -16.1547 -0.00250188)
(0.266537 -15.0016 -0.00232648)
(0.248166 -13.8135 -0.00216618)
(0.230249 -12.701 -0.00200981)
(0.212024 -11.7043 -0.00185075)
(0.193417 -10.8221 -0.00168835)
(0.174366 -10.0366 -0.00152209)
(0.155076 -9.32689 -0.00135373)
(0.135735 -8.67418 -0.00118492)
(0.116586 -8.06406 -0.00101779)
(0.0978171 -7.48628 -0.000853977)
(0.0795869 -6.93416 -0.000694861)
(0.0620015 -6.40356 -0.00054137)
(0.0451329 -5.89209 -0.000394135)
(0.0290267 -5.39851 -0.000253554)
(0.013716 -4.92221 -0.000119914)
(-0.000768589 -4.46298 6.5159e-06)
(-0.0143919 -4.02077 0.000125429)
(-0.027109 -3.59561 0.000236436)
(-0.0388636 -3.18759 0.000339043)
(-0.0495886 -2.79675 0.000432664)
(-0.0592082 -2.42317 0.000516638)
(-0.0676413 -2.06692 0.000590259)
(-0.0748103 -1.72808 0.000652848)
(-0.0806463 -1.40674 0.000703803)
(-0.0851147 -1.10301 0.000742824)
(-0.0882083 -0.817008 0.000769845)
(-0.0900604 -0.548822 0.00078603)
(-0.090772 -0.298403 0.000792364)
(-0.090827 -0.0656289 0.000792863)
(-0.0901428 0.150562 0.000786903)
(-0.0876839 0.349631 0.000765467)
(-0.0837088 0.529416 0.000730787)
(-0.0791148 0.689408 0.000690692)
(-0.0740374 0.829176 0.000646378)
(-0.0686494 0.948369 0.000599351)
(-0.0629587 1.04649 0.000549681)
(-0.057002 1.12292 0.000497687)
(-0.0508183 1.17688 0.000443711)
(-0.0444713 1.20745 0.000388309)
(-0.0380442 1.21352 0.000332206)
(-0.03164 1.19377 0.000276301)
(-0.0253794 1.14663 0.000221648)
(-0.019399 1.07025 0.000169437)
(-0.0138593 0.96241 0.000121071)
(-0.00892912 0.820431 7.80226e-05)
(-0.004827 0.641134 4.21977e-05)
(-0.00174938 0.420688 1.53248e-05)
(-7.18377e-05 0.154699 9.01096e-07)
(0.0218854 -44.1459 -0.000190988)
(0.0232652 -43.0103 -0.000203173)
(0.0396911 -41.8836 -0.000346961)
(-0.116675 -39.363 0.00101825)
(0.149187 -44.1635 -0.00130136)
(0.436081 -43.8283 -0.00380607)
(0.191423 -35.6086 -0.00167089)
(0.389666 -24.5208 -0.00339939)
(0.388349 -18.5586 -0.00337853)
(0.340752 -17.876 -0.00297109)
(0.310707 -17.1601 -0.00271127)
(0.286732 -16.1652 -0.00250248)
(0.266838 -15.0107 -0.00232911)
(0.248788 -13.8195 -0.00217161)
(0.231016 -12.7035 -0.0020165)
(0.212862 -11.7034 -0.00185806)
(0.194198 -10.8181 -0.00169518)
(0.174995 -10.0301 -0.00152758)
(0.155448 -9.31839 -0.00135698)
(0.135757 -8.66422 -0.00118512)
(0.116174 -8.05308 -0.0010142)
(0.0969043 -7.47469 -0.000846017)
(0.0781215 -6.92224 -0.000682078)
(0.0599483 -6.39153 -0.000523458)
(0.0424714 -5.88014 -0.000370913)
(0.0257488 -5.38675 -0.000224951)
(0.00982341 -4.91075 -8.59471e-05)
(-0.00526605 -4.45191 4.57624e-05)
(-0.0194787 -4.01017 0.00016982)
(-0.0327659 -3.58555 0.000285802)
(-0.0450688 -3.17814 0.000393196)
(-0.0563204 -2.78798 0.000491412)
(-0.0664467 -2.41514 0.00057981)
(-0.0753719 -2.05968 0.000657726)
(-0.0830263 -1.72168 0.00072455)
(-0.0893526 -1.4012 0.000779786)
(-0.0943289 -1.09832 0.000823238)
(-0.0979628 -0.813123 0.000854974)
(-0.100372 -0.545653 0.000876021)
(-0.101648 -0.295836 0.000887298)
(-0.102092 -0.0635392 0.000891192)
(-0.101589 0.15192 0.000886815)
(-0.0993103 0.350068 0.000866956)
(-0.0954254 0.529234 0.000833065)
(-0.0906131 0.68881 0.000791069)
(-0.0850826 0.828279 0.000742804)
(-0.0790535 0.947231 0.000690183)
(-0.0725926 1.04515 0.000633791)
(-0.065774 1.1214 0.000574274)
(-0.058665 1.17522 0.000512223)
(-0.0513513 1.20569 0.000448382)
(-0.0439358 1.2117 0.000383652)
(-0.0365415 1.19194 0.000319104)
(-0.02931 1.14485 0.000255974)
(-0.0224002 1.06857 0.000195651)
(-0.0159989 0.960878 0.000139762)
(-0.0103022 0.819113 9.00205e-05)
(-0.00556413 0.640095 4.86419e-05)
(-0.00201294 0.419999 1.76336e-05)
(-8.1468e-05 0.154443 1.02596e-06)
(0.00452999 -44.2239 -3.95141e-05)
(0.0542195 -43.0725 -0.000473298)
(0.0105678 -41.7307 -9.28572e-05)
(-0.124796 -39.453 0.0010892)
(0.139332 -44.6427 -0.00121542)
(0.37793 -43.9651 -0.00329859)
(0.14093 -35.6137 -0.00123016)
(0.378854 -24.7875 -0.00330509)
(0.385641 -18.5928 -0.00335466)
(0.338298 -17.8818 -0.00294961)
(0.308126 -17.1701 -0.0026888)
(0.284314 -16.1755 -0.00248139)
(0.264495 -15.0197 -0.00230867)
(0.246719 -13.8255 -0.00215356)
(0.229133 -12.706 -0.00200007)
(0.211167 -11.7024 -0.00184328)
(0.192619 -10.8141 -0.0016814)
(0.173473 -10.0235 -0.0015143)
(0.153893 -9.30967 -0.00134341)
(0.134077 -8.65394 -0.00117046)
(0.11427 -8.04171 -0.000997587)
(0.0946823 -7.46261 -0.000826628)
(0.0754991 -6.90977 -0.000659194)
(0.0568573 -6.37891 -0.000496486)
(0.0388594 -5.86755 -0.000339394)
(0.0215789 -5.37434 -0.000188564)
(0.00507332 -4.89863 -4.44953e-05)
(-0.0106061 -4.44018 9.23636e-05)
(-0.0254079 -3.99892 0.000221563)
(-0.0392746 -3.57486 0.000342603)
(-0.0521411 -3.16807 0.000454916)
(-0.0639364 -2.77861 0.000557878)
(-0.0745851 -2.40653 0.000650835)
(-0.0840126 -2.05189 0.000733135)
(-0.0921531 -1.71473 0.000804203)
(-0.0989559 -1.39511 0.000863597)
(-0.104404 -1.09309 0.000911166)
(-0.108509 -0.808702 0.000947013)
(-0.111365 -0.541967 0.000971964)
(-0.113043 -0.292807 0.000986766)
(-0.113716 -0.0610996 0.000992663)
(-0.113256 0.15357 0.00098866)
(-0.111028 0.350783 0.000969244)
(-0.107133 0.529235 0.000935268)
(-0.102077 0.688281 0.00089115)
(-0.0960992 0.827353 0.00083898)
(-0.0894435 0.945988 0.000780891)
(-0.0822249 1.04364 0.000717888)
(-0.0745525 1.11968 0.000650919)
(-0.0665224 1.17333 0.000580828)
(-0.0582431 1.20369 0.000508559)
(-0.0498388 1.20963 0.000435198)
(-0.0414529 1.18985 0.000361993)
(-0.0332484 1.14281 0.00029037)
(-0.0254072 1.06664 0.000221914)
(-0.0181422 0.959125 0.000158485)
(-0.0116773 0.817605 0.000102036)
(-0.00630207 0.638907 5.5093e-05)
(-0.00227665 0.419213 1.99439e-05)
(-9.11136e-05 0.154151 1.15097e-06)
(-0.00683026 -44.3064 5.96379e-05)
(0.074814 -43.1416 -0.000653018)
(-0.00515884 -41.5441 4.43439e-05)
(-0.143799 -39.5305 0.00125507)
(0.108683 -45.0683 -0.000948034)
(0.290154 -44.0576 -0.00253249)
(0.114641 -35.6643 -0.00100063)
(0.371983 -25.0804 -0.00324529)
(0.382681 -18.6302 -0.00332903)
(0.333679 -17.8874 -0.00290938)
(0.30327 -17.1796 -0.0026465)
(0.279433 -16.1856 -0.00243882)
(0.259631 -15.0286 -0.00226622)
(0.242116 -13.8315 -0.00211339)
(0.224773 -12.7085 -0.00196203)
(0.207094 -11.7015 -0.00180773)
(0.188795 -10.81 -0.00164803)
(0.16987 -10.0167 -0.00148286)
(0.150438 -9.30078 -0.00131326)
(0.130684 -8.6434 -0.00114085)
(0.110833 -8.02998 -0.000967594)
(0.091094 -7.45009 -0.000795312)
(0.0716539 -6.89677 -0.000625638)
(0.0526608 -6.3657 -0.000459863)
(0.0342319 -5.85433 -0.000299011)
(0.016458 -5.36127 -0.000143875)
(-0.000585959 -4.88583 4.89227e-06)
(-0.0168318 -4.42777 0.000146694)
(-0.0322128 -3.98698 0.00028095)
(-0.0466587 -3.56349 0.000407045)
(-0.0600937 -3.15735 0.000524319)
(-0.0724389 -2.76861 0.000632081)
(-0.0836139 -2.39731 0.000729632)
(-0.093542 -2.0435 0.000816301)
(-0.102157 -1.70721 0.000891513)
(-0.10941 -1.38847 0.000954838)
(-0.115284 -1.08732 0.00100612)
(-0.119786 -0.803774 0.00104544)
(-0.122986 -0.537815 0.00107339)
(-0.124932 -0.289378 0.00109054)
(-0.125709 -0.0583634 0.00109735)
(-0.12519 0.155463 0.00109285)
(-0.122903 0.351725 0.0010729)
(-0.1189 0.529392 0.00103798)
(-0.113558 0.687812 0.000991371)
(-0.107119 0.826398 0.000935181)
(-0.0998377 0.944643 0.000871637)
(-0.091866 1.04198 0.000802061)
(-0.0833433 1.11776 0.000727672)
(-0.0743935 1.17122 0.000649553)
(-0.0651486 1.20143 0.000568856)
(-0.0557541 1.20729 0.000486851)
(-0.0463747 1.1875 0.000404974)
(-0.0371951 1.14051 0.000324838)
(-0.0284202 1.06447 0.000248232)
(-0.0202896 0.95715 0.000177244)
(-0.0130548 0.815907 0.000114073)
(-0.00704123 0.637569 6.15549e-05)
(-0.00254083 0.418328 2.22582e-05)
(-0.000100821 0.153823 1.27661e-06)
(-0.0122175 -44.3919 0.000106656)
(0.0852505 -43.2147 -0.00074409)
(-0.0125107 -41.3196 0.000108478)
(-0.177271 -39.5628 0.00154717)
(0.054374 -45.4189 -0.000474141)
(0.195853 -44.148 -0.00170934)
(0.117096 -35.7792 -0.00102192)
(0.36694 -25.3815 -0.00320152)
(0.37987 -18.6637 -0.00330531)
(0.327095 -17.8906 -0.00285215)
(0.296138 -17.1876 -0.0025844)
(0.272015 -16.1945 -0.00237412)
(0.252149 -15.0368 -0.00220093)
(0.234895 -13.8371 -0.00205038)
(0.217888 -12.7107 -0.00190194)
(0.200629 -11.7003 -0.00175131)
(0.182748 -10.8058 -0.00159525)
(0.164228 -10.0099 -0.00143361)
(0.145132 -9.29177 -0.00126695)
(0.125623 -8.63266 -0.00109668)
(0.105899 -8.01797 -0.000924529)
(0.0861594 -7.43719 -0.000752245)
(0.0665908 -6.88332 -0.00058145)
(0.0473506 -6.35195 -0.00041352)
(0.028571 -5.84049 -0.000249608)
(0.0103621 -5.34753 -9.06749e-05)
(-0.00718073 -4.87234 6.24453e-05)
(-0.0239687 -4.41464 0.000208979)
(-0.039916 -3.97433 0.000348176)
(-0.0549353 -3.55141 0.000479276)
(-0.0689367 -3.14594 0.000601494)
(-0.0818299 -2.75794 0.000714039)
(-0.0935262 -2.38746 0.000816141)
(-0.103943 -2.0345 0.00090708)
(-0.113012 -1.69911 0.000986249)
(-0.120681 -1.38129 0.0010532)
(-0.126927 -1.08104 0.00110774)
(-0.131752 -0.798369 0.00114987)
(-0.135202 -0.533241 0.00118001)
(-0.137301 -0.2856 0.00119851)
(-0.138081 -0.0553706 0.00120535)
(-0.137424 0.15756 0.00119964)
(-0.13498 0.352852 0.00117833)
(-0.130777 0.529672 0.00114167)
(-0.125096 0.687388 0.0010921)
(-0.118171 0.825408 0.00103167)
(-0.110255 0.943195 0.000962582)
(-0.101527 1.04016 0.000886408)
(-0.0921528 1.11564 0.000804587)
(-0.0822822 1.16887 0.00071843)
(-0.0720698 1.19892 0.000629289)
(-0.061683 1.20469 0.000538622)
(-0.0513076 1.18489 0.000448051)
(-0.0411504 1.13796 0.000359381)
(-0.0314397 1.06205 0.000274605)
(-0.0224414 0.954953 0.000196042)
(-0.0144351 0.814017 0.000126134)
(-0.00778195 0.636082 6.80304e-05)
(-0.00280566 0.417346 2.45783e-05)
(-0.000110621 0.153459 1.40318e-06)
(-0.0131817 -44.4803 0.000115069)
(0.0882085 -43.2899 -0.000769895)
(-0.0149369 -41.0506 0.000129643)
(-0.228373 -39.5237 0.00199312)
(-0.012817 -45.7027 0.000112227)
(0.118141 -44.2822 -0.00103092)
(0.145161 -35.9569 -0.00126668)
(0.35657 -25.6718 -0.00311129)
(0.375891 -18.6917 -0.00327194)
(0.318179 -17.8903 -0.00277466)
(0.286464 -17.1936 -0.00250016)
(0.261933 -16.2021 -0.00228619)
(0.242033 -15.0441 -0.00211266)
(0.225137 -13.8422 -0.00196522)
(0.208628 -12.7127 -0.00182113)
(0.191963 -11.6991 -0.00167568)
(0.174684 -10.8016 -0.00152486)
(0.156745 -10.003 -0.0013683)
(0.138154 -9.28268 -0.00120605)
(0.119045 -8.62179 -0.00103926)
(0.0995861 -8.00573 -0.000869432)
(0.0799663 -7.42395 -0.000698193)
(0.0603696 -6.86941 -0.000527153)
(0.0409627 -6.33766 -0.000357769)
(0.0218939 -5.82604 -0.000191334)
(0.00329439 -5.33312 -2.89931e-05)
(-0.014717 -4.85813 0.000128216)
(-0.032028 -4.40077 0.000279314)
(-0.0485301 -3.96093 0.000423353)
(-0.0641158 -3.5386 0.000559397)
(-0.0786778 -3.13381 0.000686508)
(-0.0921116 -2.74659 0.000803771)
(-0.104317 -2.37694 0.00091032)
(-0.115205 -2.02488 0.00100536)
(-0.124698 -1.69043 0.00108824)
(-0.132741 -1.37356 0.00115846)
(-0.139304 -1.07426 0.00121576)
(-0.144379 -0.792516 0.00126008)
(-0.147991 -0.528282 0.00129163)
(-0.150145 -0.281513 0.00131063)
(-0.150842 -0.0521534 0.00131675)
(-0.149976 0.159829 0.00130922)
(-0.147293 0.354125 0.00128582)
(-0.142804 0.530048 0.00124666)
(-0.136728 0.686992 0.00119365)
(-0.129281 0.824375 0.00112866)
(-0.120712 0.94164 0.00105388)
(-0.111219 1.03818 0.000971025)
(-0.100988 1.11333 0.000881724)
(-0.0901921 1.16629 0.000787495)
(-0.0790088 1.19616 0.000689878)
(-0.0676265 1.20184 0.000590521)
(-0.0562522 1.18201 0.000491231)
(-0.0451148 1.13514 0.000394004)
(-0.0344659 1.05938 0.000301036)
(-0.0245979 0.952532 0.000214881)
(-0.0158185 0.811936 0.000138223)
(-0.00852447 0.634444 7.45217e-05)
(-0.00307131 0.416265 2.69055e-05)
(-0.000120532 0.153059 1.53087e-06)
(-0.0115061 -44.5706 0.000100442)
(0.0863298 -43.362 -0.000753496)
(-0.0160191 -40.7225 0.000139094)
(-0.299428 -39.4 0.00261321)
(-0.0699871 -45.955 0.000611212)
(0.0723881 -44.4885 -0.000631406)
(0.189591 -36.1737 -0.00165432)
(0.332346 -25.9323 -0.00290011)
(0.369219 -18.7182 -0.00321538)
(0.306808 -17.8854 -0.00267575)
(0.27413 -17.1969 -0.00239274)
(0.249155 -16.2077 -0.00217475)
(0.229307 -15.0503 -0.00200161)
(0.212943 -13.8467 -0.00185879)
(0.197153 -12.7143 -0.00172097)
(0.181301 -11.6977 -0.00158262)
(0.164831 -10.7973 -0.00143887)
(0.147657 -9.99618 -0.00128898)
(0.12973 -9.27356 -0.00113251)
(0.111152 -8.61081 -0.000970372)
(0.0920665 -7.99328 -0.000803799)
(0.0726525 -7.41039 -0.000634357)
(0.0530943 -6.85507 -0.000463655)
(0.0335705 -6.32283 -0.000293252)
(0.014248 -5.81097 -0.000124604)
(-0.0047183 -5.31801 4.0937e-05)
(-0.0231834 -4.84318 0.000202105)
(-0.0410084 -4.38614 0.000357689)
(-0.0580598 -3.94677 0.000506522)
(-0.0742069 -3.52503 0.000647466)
(-0.0893228 -3.12094 0.000779412)
(-0.103286 -2.73451 0.0009013)
(-0.115985 -2.36575 0.00101215)
(-0.127318 -2.01463 0.00111108)
(-0.137202 -1.68116 0.00119737)
(-0.145573 -1.36529 0.00127046)
(-0.152394 -1.067 0.00133001)
(-0.157647 -0.786241 0.00137588)
(-0.161339 -0.52297 0.00140814)
(-0.163464 -0.277149 0.0014269)
(-0.164002 -0.0487391 0.00143163)
(-0.162863 0.162242 0.00142171)
(-0.159864 0.355511 0.00139556)
(-0.155012 0.53049 0.00135324)
(-0.148482 0.686604 0.00129626)
(-0.140473 0.823288 0.00122637)
(-0.131227 0.939973 0.00114568)
(-0.120953 1.03604 0.00105601)
(-0.109855 1.11081 0.000959142)
(-0.0981274 1.16348 0.00085678)
(-0.085968 1.19315 0.000750643)
(-0.0735859 1.19871 0.000642559)
(-0.0612092 1.17887 0.000534518)
(-0.0490886 1.13207 0.000428708)
(-0.0374989 1.05648 0.000327528)
(-0.0267594 0.949888 0.000233763)
(-0.0172052 0.809663 0.000150339)
(-0.00926895 0.632656 8.10301e-05)
(-0.00333787 0.415085 2.92407e-05)
(-0.000130565 0.152623 1.6598e-06)
(-0.0092585 -44.6623 8.08219e-05)
(0.0831585 -43.4278 -0.000725827)
(-0.0181231 -40.3193 0.00015747)
(-0.383735 -39.206 0.00334901)
(-0.0848397 -46.2311 0.000740944)
(0.0678985 -44.7671 -0.000592105)
(0.23847 -36.3902 -0.00208091)
(0.288978 -26.1494 -0.00252184)
(0.3582 -18.7536 -0.00312063)
(0.292912 -17.8763 -0.00255476)
(0.259176 -17.1971 -0.00226248)
(0.233837 -16.2113 -0.00204116)
(0.214196 -15.0553 -0.00186973)
(0.198606 -13.8506 -0.00173367)
(0.183799 -12.7157 -0.00160443)
(0.169003 -11.6963 -0.00147528)
(0.153549 -10.7931 -0.0013404)
(0.137305 -9.98937 -0.00119862)
(0.120167 -9.26445 -0.00104905)
(0.102213 -8.59974 -0.000892347)
(0.0835644 -7.98062 -0.00072959)
(0.0643979 -7.3965 -0.00056231)
(0.044903 -6.84027 -0.000392162)
(0.0252747 -6.30742 -0.000220848)
(0.00570205 -5.79523 -5.00183e-05)
(-0.0136329 -5.30217 0.000118739)
(-0.0325563 -4.82745 0.000283906)
(-0.0509003 -4.37071 0.000444019)
(-0.0685041 -3.93179 0.000597673)
(-0.0852123 -3.51065 0.000743515)
(-0.100876 -3.1073 0.000880246)
(-0.115358 -2.72171 0.00100665)
(-0.128529 -2.35386 0.00112163)
(-0.140279 -2.00374 0.0012242)
(-0.150515 -1.6713 0.00131356)
(-0.159165 -1.3565 0.00138908)
(-0.166184 -1.05927 0.00145037)
(-0.171545 -0.779568 0.00149718)
(-0.175242 -0.517334 0.00152948)
(-0.177259 -0.272538 0.00154732)
(-0.177567 -0.0451519 0.00155005)
(-0.176095 0.164775 0.00153722)
(-0.17271 0.356982 0.0015077)
(-0.167424 0.530972 0.00146159)
(-0.16038 0.686205 0.00140013)
(-0.151766 0.822134 0.00132496)
(-0.141812 0.938185 0.00123809)
(-0.130738 1.03373 0.00114144)
(-0.11876 1.10808 0.00103689)
(-0.106092 1.16044 0.00092632)
(-0.0929495 1.18989 0.000811603)
(-0.0795623 1.19533 0.000694746)
(-0.066179 1.17546 0.000577918)
(-0.053072 1.12873 0.000463497)
(-0.040539 1.05332 0.000354082)
(-0.0289258 0.94702 0.000252688)
(-0.0185952 0.807199 0.000162486)
(-0.0100155 0.630718 8.75566e-05)
(-0.00360541 0.413806 3.15845e-05)
(-0.000140725 0.152151 1.79004e-06)
(-0.00845325 -44.7544 7.37888e-05)
(0.0823511 -43.4862 -0.000718784)
(-0.0232273 -39.8324 0.000202033)
(-0.458753 -38.9951 0.00400385)
(-0.0256642 -46.5904 0.000224626)
(0.108949 -45.084 -0.000950441)
(0.27772 -36.5563 -0.00242362)
(0.226663 -26.3162 -0.00197818)
(0.342157 -18.8104 -0.00298034)
(0.276853 -17.8635 -0.00241489)
(0.242019 -17.1938 -0.00211302)
(0.216428 -16.2125 -0.00188933)
(0.197154 -15.0591 -0.00172101)
(0.182596 -13.854 -0.00159394)
(0.169037 -12.7171 -0.00147558)
(0.155529 -11.695 -0.00135768)
(0.141273 -10.7891 -0.00123325)
(0.126089 -9.98268 -0.00110072)
(0.109822 -9.25537 -0.000958748)
(0.0925338 -8.58858 -0.000807865)
(0.074335 -7.96772 -0.000649033)
(0.0554074 -7.38223 -0.00048384)
(0.0359539 -6.82497 -0.000314055)
(0.0161917 -6.2914 -0.000141574)
(-0.0036629 -5.77877 3.17154e-05)
(-0.0233971 -5.28555 0.000203956)
(-0.0428057 -4.81089 0.000373358)
(-0.0616899 -4.35442 0.000538185)
(-0.07986 -3.91597 0.000696781)
(-0.097135 -3.49545 0.00084757)
(-0.113344 -3.09286 0.000989059)
(-0.128331 -2.70815 0.00111987)
(-0.141953 -2.34128 0.00123879)
(-0.154087 -1.99221 0.00134472)
(-0.164632 -1.66087 0.00143678)
(-0.17351 -1.34719 0.00151428)
(-0.180666 -1.0511 0.00157676)
(-0.186066 -0.772522 0.00162393)
(-0.189696 -0.5114 0.00165563)
(-0.191531 -0.267705 0.00167191)
(-0.191545 -0.0414144 0.00167207)
(-0.189679 0.167404 0.00165581)
(-0.185843 0.358511 0.00162235)