/*--------------------------------*- C++ -*----------------------------------*\
| =========                 |                                                 |
| \\      /  F ield         | OpenFOAM: The Open Source CFD Toolbox           |
|  \\    /   O peration     | Version:  v2012                                 |
|   \\  /    A nd           | Website:  www.openfoam.com                      |
|    \\/     M anipulation  |                                                 |
\*---------------------------------------------------------------------------*/
FoamFile
{
    version     2.0;
    format      ascii;
    class       volScalarField;
    location    "0.4";
    object      alpha.water;
}
// * * * * * * * * * * * * * * * * * * * * * * * * * * * * * * * * * * * * * //

dimensions      [0 0 0 0 0 0 0];


internalField   nonuniform List<scalar> 
3352
(
0.999994
0.999999
0.999999
1
0.999997
0.999986
0.999177
0.953606
0.747745
0.601742
0.693894
0.768324
0.647334
0.28834
0.0419841
0.00105904
1.43939e-06
1.44767e-10
8.13569e-14
1.80572e-16
3.35944e-19
5.12824e-22
6.23019e-25
5.75623e-28
3.75626e-31
1.50415e-34
2.52332e-38
-4.44915e-57
-1.54041e-63
2.12871e-90
1.07997e-77
3.10546e-74
4.25254e-71
4.98677e-68
5.32251e-65
5.36468e-62
5.28072e-59
2.74529e-56
1.54357e-44
0.999993
0.999998
1
0.999999
0.999997
0.999989
0.999308
0.953749
0.739231
0.575611
0.663142
0.753439
0.580115
0.227767
0.028051
0.000557137
3.27414e-07
2.43507e-11
6.93989e-14
1.65483e-16
3.26419e-19
5.2283e-22
6.60527e-25
6.29135e-28
4.18933e-31
1.68423e-34
2.69996e-38
1.67464e-55
-3.26169e-64
2.63789e-83
2.25604e-86
3.79709e-90
-1.62644e-84
-6.67784e-86
2.74332e-81
-4.92463e-78
2.78741e-62
5.38946e-56
2.24702e-54
0.999993
0.999997
1
0.999999
0.999997
0.99999
0.999358
0.953041
0.733097
0.560959
0.646654
0.704203
0.541724
0.198135
0.0223967
0.000400558
1.90026e-07
2.14062e-11
6.50065e-14
1.6429e-16
3.41526e-19
5.73225e-22
7.5443e-25
7.43649e-28
5.0801e-31
2.06324e-34
3.17173e-38
1.0416e-55
-4.39227e-65
2.95435e-82
4.51205e-86
7.59708e-90
1.41528e-89
5.79675e-87
1.1452e-80
1.01126e-78
2.45291e-77
1.04747e-76
6.91097e-71
0.999993
0.999996
0.999998
0.999999
0.999997
0.99999
0.999401
0.952136
0.724406
0.543386
0.626758
0.679719
0.498293
0.167162
0.0170996
0.000270817
1.01272e-07
1.86319e-11
5.99756e-14
1.59476e-16
3.46353e-19
6.032e-22
8.17791e-25
8.23046e-28
5.66516e-31
2.25704e-34
3.05238e-38
-5.51082e-54
-3.1444e-67
2.91901e-82
4.51133e-86
5.32932e-90
1.66693e-91
9.43294e-89
1.32515e-85
6.63191e-83
6.38083e-76
1.27672e-72
2.54112e-71
0.999993
0.999996
0.999998
0.999999
0.999997
0.999991
0.999433
0.95103
0.715418
0.526128
0.60686
0.649355
0.456152
0.140559
0.0131057
0.000187711
6.52604e-08
1.52812e-11
5.04055e-14
1.39013e-16
3.12678e-19
5.61423e-22
7.78778e-25
7.92717e-28
5.41217e-31
2.04764e-34
2.10719e-38
-6.31215e-48
7.39327e-79
2.93058e-82
4.52e-86
5.28408e-90
2.59087e-95
2.28302e-97
1.55225e-95
4.34151e-94
2.4397e-80
6.14467e-77
2.25711e-75
0.999993
0.999996
0.999998
0.999998
0.999998
0.999992
0.999457
0.949696
0.705515
0.508411
0.585985
0.618918
0.414407
0.117079
0.0100026
0.000131901
4.4304e-08
1.25051e-11
-1.97366e-13
-8.4389e-16
-2.23239e-18
-4.4612e-21
-6.89689e-24
-8.12842e-27
-7.06158e-30
-4.16277e-33
-1.37121e-36
-1.00938e-40
7.18478e-79
2.89833e-82
4.53242e-86
4.66876e-90
2.57807e-95
3.07162e-97
2.96028e-95
5.03429e-95
8.13602e-94
2.733e-91
1.99627e-85
0.999993
0.999996
0.999997
0.999998
0.999998
0.999992
0.999472
0.948261
0.695192
0.490531
0.564283
0.587128
0.373728
0.0968576
0.00764773
9.50976e-05
3.20629e-08
2.29461e-12
-1.72286e-13
-7.33036e-16
-2.03682e-18
-4.19459e-21
-6.76442e-24
-8.35459e-27
-7.45806e-30
-4.37249e-33
-1.31247e-36
-4.5527e-48
7.17961e-79
2.88904e-82
4.5484e-86
4.12381e-90
2.48722e-95
7.12075e-98
2.67336e-95
6.69134e-94
7.53725e-94
6.32653e-93
3.53458e-87
0.999994
0.999997
0.999997
0.999997
0.999999
0.999992
0.999486
0.946663
0.684302
0.472459
0.541728
0.554548
0.334512
0.0796794
0.0058752
7.05926e-05
2.43326e-08
-1.29213e-12
-1.40148e-13
-5.93299e-16
-1.6778e-18
-3.56613e-21
-5.90271e-24
-7.33274e-27
-6.46164e-30
-3.57291e-33
-8.59218e-37
-1.48344e-53
6.31156e-79
2.8853e-82
4.57119e-86
3.6211e-90
2.47162e-95
5.01825e-98
1.31147e-95
5.6896e-94
2.59105e-93
2.47624e-93
6.03768e-89
0.999994
0.999997
0.999998
0.999998
0.999998
0.999992
0.99949
0.944941
0.672946
0.454265
0.518337
0.521346
0.297113
0.0652659
0.00454606
5.40473e-05
1.94675e-08
-3.68647e-12
-1.09485e-13
-4.54571e-16
-1.29426e-18
-2.79446e-21
-4.54769e-24
-5.4993e-27
-4.60104e-30
-2.26504e-33
-3.47391e-37
9.00894e-76
6.80415e-79
2.887e-82
4.59948e-86
3.18534e-90
2.56276e-95
3.36931e-98
9.29751e-96
4.44041e-94
2.38973e-93
2.3787e-93
1.12284e-90
0.999994
0.999997
0.999998
0.999998
0.999998
0.999992
0.999492
0.943052
0.661037
0.435973
0.494204
0.487644
0.261991
0.0533148
0.00354988
4.26569e-05
1.68308e-08
-4.41287e-12
-8.56656e-14
-3.4473e-16
-9.67231e-19
-2.06468e-21
-3.34165e-24
-3.92736e-27
-3.04032e-30
-1.21343e-33
-2.44337e-38
8.95538e-76
6.64462e-79
2.90996e-82
4.63435e-86
2.83357e-90
3.12985e-95
2.17048e-98
6.01633e-96
3.25292e-94
1.97001e-93
4.15677e-93
2.90998e-92
0.999995
0.999998
0.999998
0.999999
0.999999
0.999993
0.999481
0.940991
0.648577
0.417631
0.469598
0.453443
0.229489
0.0434954
0.00280004
3.46575e-05
1.64954e-08
-4.44006e-12
-8.31492e-14
-3.04893e-16
-7.99928e-19
-1.61095e-21
-2.4425e-24
-2.61834e-27
-1.73547e-30
-4.69701e-34
-1.17011e-51
9.05022e-76
6.56003e-79
2.94017e-82
4.67655e-86
2.5771e-90
4.32443e-95
1.31315e-98
3.79898e-96
2.48222e-94
1.61726e-93
2.99284e-93
4.33568e-93
0.999996
0.999998
0.999997
0.999999
1
0.999994
0.999465
0.938729
0.635526
0.399285
0.444697
0.419029
0.199752
0.0354936
0.00223216
2.89398e-05
1.83435e-08
-4.94348e-12
-6.58715e-14
-2.30584e-16
-5.81443e-19
-1.11199e-21
-1.56559e-24
-1.49214e-27
-7.86529e-31
-8.6297e-35
6.60145e-73
9.04783e-76
6.47782e-79
2.97818e-82
4.72695e-86
2.42007e-90
5.9228e-95
7.49554e-99
2.18366e-96
1.75431e-94
1.28273e-93
2.41257e-93
2.60346e-93
0.999997
0.999998
0.999998
1
1
0.999994
0.99944
0.936258
0.62191
0.380999
0.419607
0.384752
0.172898
0.0290161
0.00179839
2.47958e-05
2.18796e-08
-4.65989e-12
-5.12473e-14
-1.69151e-16
-4.02107e-19
-7.14014e-22
-9.05028e-25
-7.24761e-28
-2.60041e-31
-5.06405e-45
6.62432e-73
9.11601e-76
6.41361e-79
3.02948e-82
4.78682e-86
2.35042e-90
7.67566e-95
3.99469e-99
1.16386e-96
1.19524e-94
9.83499e-94
1.92184e-93
1.93993e-93
0.999998
0.999998
0.999998
1
1
0.999993
0.999404
0.933577
0.607788
0.362849
0.394479
0.350967
0.148962
0.0237999
0.00146392
2.17579e-05
2.57139e-08
-4.22591e-12
-3.93792e-14
-1.20884e-16
-2.65895e-19
-4.27396e-22
-4.66705e-25
-2.88123e-28
-4.57072e-32
-2.27545e-53
3.93619e-73
9.14749e-76
6.36897e-79
3.0924e-82
4.8577e-86
2.33351e-90
9.4082e-95
1.99927e-99
5.485e-97
7.69591e-95
7.33553e-94
1.53876e-93
1.56454e-93
0.999999
0.999999
0.999998
1
1
0.999993
0.999359
0.930714
0.59329
0.344924
0.369457
0.318048
0.127897
0.0196115
0.00120336
1.9504e-05
2.86349e-08
-3.62271e-12
-2.98163e-14
-8.39453e-17
-1.67002e-19
-2.34935e-22
-2.09329e-25
-8.50146e-29
-2.75976e-42
4.21645e-70
6.44388e-73
9.18681e-76
6.3451e-79
3.1673e-82
4.94153e-86
2.39352e-90
1.09534e-94
9.5614e-100
2.20505e-97
4.65476e-95
5.30159e-94
1.22236e-93
1.2686e-93
0.999999
0.999999
0.999998
1
1
0.999993
0.999306
0.927721
0.578609
0.327328
0.344701
0.286363
0.109573
0.0162498
0.000998229
1.78021e-05
3.02317e-08
-2.94512e-12
-2.29218e-14
-5.75891e-17
-1.00389e-19
-1.18142e-22
-7.82307e-26
-1.30681e-29
-1.73993e-51
4.20738e-70
6.3595e-73
9.22692e-76
6.33748e-79
3.25507e-82
5.04066e-86
2.83768e-90
1.21168e-94
4.56795e-100
6.94987e-98
2.60093e-95
3.67466e-94
9.6088e-94
1.03924e-93
1
1
0.999999
1
1
0.999993
0.999248
0.92468
0.564013
0.310176
0.320384
0.256242
0.0937876
0.0135449
0.000834992
1.64785e-05
3.06386e-08
-2.33635e-12
-1.65466e-14
-3.70509e-17
-5.52931e-20
-5.15117e-23
-2.12382e-26
-4.08003e-38
1.78357e-67
4.2259e-70
6.34221e-73
9.27386e-76
6.37049e-79
3.35611e-82
5.15798e-86
3.83307e-90
1.27607e-94
2.32004e-100
1.41006e-98
1.32022e-95
2.41331e-94
7.40568e-94
8.55595e-94
1
0.999999
0.999999
1
1
0.999993
0.99919
0.921714
0.549819
0.293626
0.296645
0.227953
0.0802825
0.0113569
0.000703666
1.53981e-05
3.04106e-08
-1.68777e-12
-1.14925e-14
-2.25117e-17
-2.76663e-20
-1.85795e-23
-2.68149e-27
-4.05032e-51
1.85048e-67
4.26676e-70
6.33909e-73
9.33015e-76
6.45533e-79
3.47114e-82
5.29696e-86
5.26612e-90
1.29559e-94
1.30244e-100
7.84007e-100
5.95315e-96
1.4778e-94
5.53233e-94
7.01925e-94
1
1
0.999999
1
1
0.999993
0.999137
0.918912
0.53637
0.277737
0.273616
0.201743
0.0687719
0.00957354
0.000596811
1.44535e-05
2.9692e-08
-1.11672e-12
-7.70304e-15
-1.28856e-17
-1.23551e-20
-4.93715e-24
-3.77187e-35
9.45383e-60
1.83924e-67
4.3148e-70
6.40317e-73
9.39999e-76
6.56538e-79
3.60109e-82
5.46176e-86
7.02223e-90
1.29587e-94
8.16801e-101
1.82838e-100
2.32508e-96
8.2551e-95
3.94041e-94
5.66966e-94
1
0.999999
1
1
1
0.999992
0.999097
0.916535
0.524003
0.262454
0.251444
0.177877
0.058968
0.00810636
0.00050883
1.35587e-05
2.85934e-08
-6.59636e-13
-5.01474e-15
-6.95835e-18
-4.78185e-21
-5.7886e-25
-7.46247e-38
1.04412e-59
1.89766e-67
4.38411e-70
6.51308e-73
9.4877e-76
6.72855e-79
3.74713e-82
5.65742e-86
9.03976e-90
1.27072e-94
6.12612e-101
7.25035e-101
7.74834e-97
4.08455e-95
2.61148e-94
4.42738e-94
1
0.999999
1
1
1
0.999993
0.999067
0.914388
0.512991
0.24778
0.230342
0.156447
0.0506005
0.00688712
0.000435485
1.26495e-05
2.71752e-08
1.28827e-12
-3.23523e-15
-3.57186e-18
-1.48626e-21
-2.31862e-32
2.23164e-52
1.1032e-59
1.9463e-67
4.47238e-70
6.64873e-73
9.59829e-76
6.94346e-79
3.91081e-82
5.88998e-86
1.12426e-89
1.21018e-94
5.39094e-101
5.72988e-101
2.31268e-97
1.7255e-95
1.55064e-94
3.25043e-94
1
0.999999
1
1
1
0.999996
0.999061
0.913339
0.50361
0.233832
0.210428
0.13736
0.043432
0.0058636
0.000373565
1.16878e-05
2.54386e-08
1.60319e-12
-2.04351e-15
-1.71665e-18
-2.6226e-22
-8.12527e-34
2.32977e-52
1.17753e-59
2.00765e-67
4.58111e-70
6.83751e-73
9.73736e-76
7.21836e-79
4.09415e-82
6.1667e-86
1.351e-89
1.12474e-94
5.65415e-101
5.10743e-101
7.94336e-98
6.06247e-96
7.76009e-95
2.21509e-94
1
1
1
1
1
0.999998
0.999074
0.912158
0.495837
0.22072
0.191751
0.12044
0.0372651
0.00499603
0.000320647
1.06658e-05
2.34003e-08
1.37149e-12
-1.27693e-15
-7.56073e-19
-7.34833e-29
-2.30153e-35
2.38417e-52
1.25586e-59
2.07931e-67
4.71271e-70
7.08098e-73
9.91137e-76
7.56131e-79
4.29975e-82
6.4964e-86
1.56967e-89
1.02717e-94
5.61418e-101
3.34534e-101
4.09949e-98
1.96828e-96
3.05512e-95
1.32941e-94
1.00001
1
0.999999
0.999999
1
0.999999
0.999145
0.911904
0.490164
0.20849
0.174328
0.105481
0.0319404
0.00425418
0.000274931
9.60206e-06
2.11046e-08
1.12809e-12
-8.03178e-16
-2.88525e-19
-1.01637e-29
7.97324e-46
2.45156e-52
1.34134e-59
2.16242e-67
4.86894e-70
7.38175e-73
1.01278e-75
7.98131e-79
4.53099e-82
6.88978e-86
1.76679e-89
9.28784e-95
5.62888e-101
2.21665e-101
2.5167e-98
8.04092e-97
9.63278e-96
5.80065e-95
1.00001
0.999999
0.999999
0.999999
1
1
0.999337
0.912245
0.485863
0.197241
0.158147
0.0922697
0.0273296
0.00361518
0.000235094
8.52909e-06
1.85904e-08
9.20754e-13
-5.17302e-16
-7.20211e-20
-9.83338e-31
8.35408e-46
2.52005e-52
1.43335e-59
2.25769e-67
5.05229e-70
7.74878e-73
1.03953e-75
8.48925e-79
4.79218e-82
7.35994e-86
1.93194e-89
8.40075e-95
5.81497e-101
1.85902e-101
1.30832e-98
4.21886e-97
3.50756e-96
1.36277e-95
1.00001
0.999999
0.999999
0.999999
1
1
0.999536
0.913676
0.48366
0.186824
0.143179
0.0805994
0.0233289
0.00306188
0.00020018
7.48037e-06
1.59006e-08
7.47005e-13
-3.44372e-16
-6.8148e-27
-5.25342e-32
9.06233e-46
2.59284e-52
1.53218e-59
2.36614e-67
5.26566e-70
8.18993e-73
1.07244e-75
9.09786e-79
5.08882e-82
7.92296e-86
2.05665e-89
7.70483e-95
6.06176e-101
1.10694e-101
4.98894e-99
1.87164e-97
1.60773e-96
5.26652e-96
1.00001
0.999998
0.999999
1
1
1
0.99971
0.915851
0.48224
0.177209
0.129398
0.0702883
0.0198536
0.00258141
0.000169499
6.48294e-06
1.31146e-08
5.96972e-13
-2.35617e-16
-4.36361e-28
-3.35591e-34
9.47598e-46
2.66923e-52
1.63794e-59
2.48892e-67
5.51249e-70
8.7148e-73
1.11277e-75
9.82246e-79
5.428e-82
8.59878e-86
2.13228e-89
7.26768e-95
6.47205e-101
6.65714e-102
1.82164e-99
7.07017e-98
6.43584e-97
2.16614e-96
1.00001
0.999998
0.999998
1
1
1
0.999847
0.91891
0.482122
0.168318
0.116761
0.0611751
0.0168336
0.00216401
0.00014255
5.55572e-06
1.03465e-08
4.61207e-13
-1.62899e-16
1.93282e-28
8.2424e-38
9.97417e-46
2.74975e-52
1.75089e-59
2.62745e-67
5.79706e-70
9.33532e-73
1.16208e-75
1.06815e-78
5.81873e-82
9.41231e-86
2.15867e-89
7.08881e-95
7.37626e-101
2.74497e-102
6.49135e-100
2.51236e-98
2.33407e-97
8.19185e-97
1.00001
0.999997
0.999998
0.999999
1
1
0.999946
0.922474
0.484152
0.160174
0.105187
0.0531153
0.0142103
0.00180211
0.000118965
4.71053e-06
7.72958e-09
3.3453e-13
-1.067e-16
2.44525e-28
8.63082e-38
1.04789e-45
2.83492e-52
1.87139e-59
2.78352e-67
6.12462e-70
1.00657e-72
1.2223e-75
1.16974e-78
6.27266e-82
1.03948e-85
2.15889e-89
7.05887e-95
8.57654e-101
1.17295e-102
2.19649e-100
8.45892e-99
7.94993e-98
2.84861e-97
1
0.999996
0.999998
0.999998
1
1
0.999918
0.926119
0.486799
0.152753
0.094605
0.0459689
0.0119344
0.00148962
9.84562e-05
3.95374e-06
5.3974e-09
2.18559e-13
-5.60099e-17
2.46965e-28
8.81926e-38
1.10123e-45
2.92572e-52
2.00001e-59
2.95938e-67
6.50173e-70
1.09235e-72
1.29586e-75
1.28979e-78
6.80479e-82
1.15861e-85
2.13196e-89
7.96891e-95
1.01216e-100
3.75947e-103
7.05896e-101
2.65149e-99
2.51429e-98
9.15189e-98
1
0.999996
0.999998
0.999998
1
1
0.999934
0.929912
0.489735
0.145942
0.0849382
0.0396231
0.009964
0.00122143
8.0786e-05
3.28759e-06
3.45944e-09
1.23169e-13
-7.92503e-18
2.49433e-28
9.04391e-38
1.15721e-45
3.02358e-52
2.13762e-59
3.15789e-67
6.93665e-70
1.193e-72
1.38588e-75
1.43172e-78
7.43463e-82
1.30369e-85
2.07796e-89
1.2124e-94
1.20697e-100
1.16432e-103
2.18551e-101
7.73032e-100
7.3245e-99
2.70707e-98
1
0.999995
0.999998
0.999998
1
0.999999
0.999962
0.931607
0.492696
0.13981
0.076038
0.0339947
0.00826361
0.000993106
6.57346e-05
2.71095e-06
1.98114e-09
5.46114e-14
1.24661e-19
2.51986e-28
9.26288e-38
1.21646e-45
3.13049e-52
2.2855e-59
3.38272e-67
7.43985e-70
1.31119e-72
1.49634e-75
1.59983e-78
8.18774e-82
1.48128e-85
2.01152e-89
2.08196e-94
1.45201e-100
3.43743e-104
6.61014e-102
2.11374e-100
1.9553e-99
7.30425e-99
1
0.999994
0.999998
0.999998
1
0.999999
0.999998
0.933829
0.494853
0.133838
0.0677861
0.0290081
0.00680279
0.000800599
5.30812e-05
2.22006e-06
9.74441e-10
1.55965e-14
1.24419e-19
2.54226e-28
9.49366e-38
1.27969e-45
3.24916e-52
2.44542e-59
3.63858e-67
8.02467e-70
1.45022e-72
1.63244e-75
1.79955e-78
9.09789e-82
1.69994e-85
1.94897e-89
3.48919e-94
1.76237e-100
9.25796e-105
1.93876e-102
5.53385e-101
4.81813e-100
1.78221e-99
1
0.999994
0.999998
0.999998
1
0.999999
1
0.934456
0.495475
0.127444
0.0601516
0.0245987
0.00555558
0.000640154
4.25935e-05
1.80913e-06
4.36685e-10
1.41289e-14
1.23207e-19
2.56621e-28
9.74021e-38
1.34798e-45
3.38315e-52
2.61982e-59
3.93155e-67
8.70818e-70
1.61428e-72
1.80095e-75
2.03778e-78
1.02101e-81
1.97092e-85
1.90513e-89
5.54328e-94
2.16037e-100
2.1193e-105
5.2056e-103
1.40138e-101
1.12984e-100
3.97938e-100
1
0.999993
0.999998
0.999999
1
0.999999
1
0.933624
0.490005
0.119941
0.053069
0.020714
0.00449961
0.00050818
3.40275e-05
1.47092e-06
2.48841e-10
4.27054e-14
1.21468e-19
2.59296e-28
1.00128e-37
1.42277e-45
3.53709e-52
2.81194e-59
4.26941e-67
9.51235e-70
1.80863e-72
2.01085e-75
2.32344e-78
1.15849e-81
2.30918e-85
1.88747e-89
8.27927e-94
2.67867e-100
3.95029e-106
1.1628e-103
3.26785e-102
2.56796e-101
8.61142e-101
0.999999
0.999993
0.999999
1
1
0.999999
1
0.93152
0.480681
0.111005
0.0464836
0.0173119
0.00361535
0.000401211
2.71338e-05
1.19691e-06
5.5943e-10
3.95185e-14
1.19406e-19
2.62561e-28
1.03231e-37
1.50596e-45
3.71691e-52
3.02606e-59
4.66218e-67
1.04655e-69
2.03999e-72
2.274e-75
2.66806e-78
1.33046e-81
2.73482e-85
1.89752e-89
1.16027e-93
3.36571e-100
1.78981e-106
2.05306e-104
6.41777e-103
5.27047e-102
1.77809e-101
0.999997
0.999992
0.999999
1
1
0.999999
1
0.927309
0.464583
0.100569
0.0403941
0.0143604
0.00288528
0.000315891
2.16682e-05
9.78624e-07
9.86124e-10
3.58955e-14
1.17199e-19
2.66753e-28
1.06861e-37
1.60001e-45
3.93013e-52
3.26764e-59
5.12274e-67
1.16043e-69
2.31697e-72
2.60632e-75
3.08677e-78
1.54823e-81
3.27514e-85
2.13602e-89
1.53319e-93
4.29365e-100
3.31127e-106
2.90306e-105
1.02759e-103
8.90189e-103
3.12783e-102
0.999996
0.999992
1
1
0.999999
0.999999
1
0.920891
0.442217
0.0889932
0.0348348
0.0118334
0.0022927
0.000248986
1.73899e-05
8.0695e-07
1.0129e-09
3.28861e-14
1.15028e-19
2.72274e-28
1.11201e-37
1.70802e-45
4.18635e-52
3.54372e-59
5.66766e-67
1.29766e-69
2.65067e-72
3.0292e-75
3.59957e-78
1.82744e-81
3.96762e-85
2.7987e-89
1.9251e-93
5.5708e-100
5.78619e-106
3.05341e-106
1.40339e-104
1.23217e-103
4.44172e-103
0.999996
0.999991
1
1
0.999999
1
1
0.912038
0.413946
0.0770249
0.0298566
0.00970641
0.00182087
0.000197327
1.41096e-05
6.67043e-07
1.04538e-09
3.01984e-14
1.1307e-19
2.79589e-28
1.16469e-37
1.83391e-45
4.49774e-52
3.86317e-59
6.31831e-67
1.4645e-69
3.05547e-72
3.57155e-75
4.23317e-78
2.18998e-81
4.86432e-85
4.33788e-89
2.31466e-93
7.36067e-100
9.13233e-106
3.62144e-107
1.68631e-105
1.45939e-104
5.26134e-104
0.999995
0.999991
1
1
0.999999
0.999999
0.999999
0.900836
0.381516
0.0655787
0.0254951
0.00795
0.0014524
0.000158195
1.15521e-05
5.50887e-07
1.07766e-09
2.78779e-14
1.1149e-19
2.89237e-28
1.22936e-37
1.98253e-45
4.87994e-52
4.23728e-59
7.10233e-67
1.66916e-69
3.55013e-72
4.27271e-75
5.02356e-78
2.66672e-81
6.03837e-85
7.74408e-89
2.68465e-93
9.91162e-100
1.38555e-105
3.78948e-108
1.7388e-106
1.49145e-105
5.35969e-105
0.999995
0.999991
1
1
0.999999
1
0.999999
0.887693
0.347237
0.0554431
0.0217472
0.00652967
0.00116993
0.000128689
9.49798e-06
4.59047e-07
1.11562e-09
2.59163e-14
1.10398e-19
3.01845e-28
1.30925e-37
2.15994e-45
5.35304e-52
4.68028e-59
8.05559e-67
1.92252e-69
4.15923e-72
5.1864e-75
6.01987e-78
3.3015e-81
7.59376e-85
1.44813e-88
3.02608e-93
1.36039e-99
1.80667e-105
3.13414e-109
1.45782e-107
1.25648e-106
4.5436e-106
0.999995
0.99999
1
1
1
1
0.999999
0.873403
0.31396
0.0470899
0.0185803
0.00540076
0.00095766
0.000105878
7.89139e-06
3.87228e-07
1.16121e-09
2.43076e-14
1.09889e-19
3.18148e-28
1.40834e-37
2.37367e-45
5.94316e-52
5.21025e-59
9.2248e-67
2.23907e-69
4.91524e-72
6.3863e-75
7.28984e-78
4.15712e-81
9.68013e-85
2.65613e-88
3.34228e-93
1.90256e-99
2.13021e-105
2.00376e-110
9.47475e-109
8.25331e-108
3.02076e-107
0.999995
0.99999
1
1
1
1
0.999999
0.858831
0.283684
0.0406211
0.0159212
0.0045307
0.000795053
8.81925e-05
6.65698e-06
3.31455e-07
1.21707e-09
2.30423e-14
1.10127e-19
0.999994
0.99999
1
1
1
0.999999
0.999999
0.845798
0.259648
0.0358768
0.0137426
0.00385035
0.000669562
7.47452e-05
5.71422e-06
2.88515e-07
1.28596e-09
0.0119282
0.003316
0.999996
0.999999
0.999999
1
0.999997
0.999986
0.999178
0.953606
0.747744
0.601742
0.693895
0.768324
0.647332
0.288338
0.0419838
0.00105904
1.43939e-06
1.44768e-10
8.13567e-14
1.80572e-16
3.35943e-19
5.12823e-22
6.23018e-25
5.75622e-28
3.75625e-31
1.50414e-34
2.52332e-38
6.58744e-55
1.10028e-63
3.81811e-78
8.57987e-75
1.41768e-71
1.91158e-68
2.24162e-65
2.39253e-62
2.4114e-59
2.3711e-56
1.23193e-53
2.69541e-44
0.999996
0.999999
1
0.999999
0.999997
0.999988
0.999309
0.953749
0.73923
0.575612
0.663144
0.753439
0.580112
0.227765
0.0280508
0.000557136
3.27418e-07
2.43507e-11
6.93988e-14
1.65483e-16
3.26418e-19
5.22829e-22
6.60526e-25
6.29134e-28
4.18932e-31
1.68423e-34
2.69996e-38
4.15188e-55
-3.29092e-64
2.83659e-95
2.25703e-86
3.92147e-89
-1.60617e-85
-8.62471e-81
8.37825e-81
-2.17599e-75
-2.60835e-74
-2.35102e-69
6.12376e-51
0.999996
0.999998
1
0.999999
0.999997
0.999989
0.999358
0.953041
0.733096
0.56096
0.646655
0.704202
0.541721
0.198133
0.0223965
0.000400558
1.90029e-07
2.14062e-11
6.50065e-14
1.6429e-16
3.41525e-19
5.73224e-22
7.54431e-25
7.43649e-28
5.0801e-31
2.06324e-34
3.17173e-38
-1.56796e-55
-4.2588e-65
3.32477e-83
4.514e-86
1.58698e-89
8.25703e-88
1.03294e-84
1.15303e-81
1.18223e-78
2.03266e-76
5.18953e-74
9.49213e-67
0.999996
0.999998
0.999999
0.999999
0.999997
0.99999
0.999401
0.952137
0.724405
0.543387
0.62676
0.679718
0.49829
0.167161
0.0170995
0.000270817
1.01275e-07
1.86319e-11
5.99757e-14
1.59476e-16
3.46353e-19
6.03201e-22
8.17793e-25
8.23047e-28
5.66517e-31
2.25704e-34
3.05239e-38
-1.18617e-55
-1.95095e-68
2.96914e-82
4.51274e-86
5.33129e-90
3.38283e-89
3.51985e-86
3.70238e-83
3.54623e-80
3.21145e-77
1.49893e-74
1.50168e-68
0.999995
0.999998
0.999999
0.999999
0.999998
0.999991
0.999433
0.95103
0.715418
0.526129
0.606862
0.649353
0.456149
0.140558
0.0131056
0.000187712
6.52619e-08
1.52812e-11
5.04056e-14
1.39013e-16
3.12679e-19
5.61424e-22
7.7878e-25
7.92718e-28
5.41218e-31
2.04764e-34
2.1072e-38
-6.5758e-48
7.16217e-79
2.93878e-82
4.52094e-86
5.19641e-90
2.59577e-95
1.04161e-97
2.2491e-95
1.42094e-92
5.3095e-90
-1.77995e-84
1.72674e-71
0.999996
0.999998
0.999998
0.999999
0.999998
0.999992
0.999457
0.949696
0.705514
0.508412
0.585987
0.618916
0.414404
0.117077
0.0100026
0.000131902
4.4305e-08
1.25051e-11
-1.97367e-13
-8.43892e-16
-2.2324e-18
-4.46121e-21
-6.8969e-24
-8.12843e-27
-7.06158e-30
-4.16277e-33
-1.37121e-36
-1.00938e-40
7.01069e-79
2.90522e-82
4.53345e-86
4.70525e-90
2.58315e-95
8.83958e-98
2.46746e-95
2.53871e-94
5.8249e-94
-1.07615e-90
8.54372e-86
0.999996
0.999998
0.999998
0.999998
0.999998
0.999992
0.999472
0.948261
0.695192
0.490532
0.564285
0.587126
0.373725
0.0968567
0.00764771
9.50982e-05
3.20637e-08
2.29477e-12
-1.72287e-13
-7.33039e-16
-2.03683e-18
-4.19461e-21
-6.76444e-24
-8.35462e-27
-7.45807e-30
-4.3725e-33
-1.31247e-36
-4.55277e-48
6.91613e-79
2.8958e-82
4.54923e-86
4.13705e-90
2.49405e-95
5.70328e-98
2.10148e-95
5.34811e-94
6.00397e-94
6.49461e-93
3.7552e-87
0.999996
0.999998
0.999998
0.999998
0.999999
0.999992
0.999486
0.946663
0.684301
0.47246
0.54173
0.554547
0.334509
0.0796787
0.00587519
7.05931e-05
2.43333e-08
-1.292e-12
-1.40148e-13
-5.93302e-16
-1.67781e-18
-3.56615e-21
-5.90273e-24
-7.33278e-27
-6.46166e-30
-3.57292e-33
-8.59222e-37
-1.48351e-53
6.80629e-79
2.89196e-82
4.5719e-86
3.63703e-90
2.479e-95
3.96059e-98
1.07559e-95
4.45949e-94
1.90305e-93
1.98625e-93
5.95295e-89
0.999996
0.999998
0.999999
0.999999
0.999998
0.999992
0.99949
0.944941
0.672945
0.454266
0.518339
0.521344
0.29711
0.0652653
0.00454606
5.40478e-05
1.94681e-08
-3.68639e-12
-1.09485e-13
-4.54574e-16
-1.29427e-18
-2.79448e-21
-4.54771e-24
-5.49933e-27
-4.60107e-30
-2.26505e-33
-3.47393e-37
8.79876e-76
6.70069e-79
2.89343e-82
4.60011e-86
3.19887e-90
2.5752e-95
2.62494e-98
7.54225e-96
3.53119e-94
1.83856e-93
1.83563e-93
1.04093e-90
0.999997
0.999998
0.999998
0.999999
0.999998
0.999993
0.999492
0.943052
0.661037
0.435974
0.494206
0.487643
0.261989
0.0533144
0.00354988
4.26573e-05
1.68312e-08
-4.41282e-12
-8.56663e-14
-3.44732e-16
-9.67239e-19
-2.06469e-21
-3.34167e-24
-3.92739e-27
-3.04034e-30
-1.21343e-33
-2.44338e-38
8.89279e-76
6.59875e-79
2.91613e-82
4.63489e-86
2.84599e-90
3.15613e-95
1.6624e-98
4.84342e-96
2.58879e-94
1.4822e-93
2.59125e-93
1.86329e-92
0.999997
0.999999
0.999998
0.999999
0.999999
0.999993
0.999481
0.940991
0.648576
0.417632
0.4696
0.453442
0.229487
0.0434951
0.00280005
3.46578e-05
1.64958e-08
-4.44003e-12
-8.31498e-14
-3.04895e-16
-7.99934e-19
-1.61096e-21
-2.44252e-24
-2.61836e-27
-1.73549e-30
-4.69705e-34
-1.17014e-51
9.04827e-76
6.50537e-79
2.94629e-82
4.67703e-86
2.58858e-90
4.36794e-95
9.88118e-99
2.99744e-96
1.92837e-94
1.2227e-93
2.08493e-93
1.83406e-93
0.999997
0.999999
0.999998
0.999999
0.999999
0.999994
0.999464
0.938728
0.635525
0.399286
0.444698
0.419028
0.19975
0.0354935
0.00223217
2.89401e-05
1.83439e-08
-4.94345e-12
-6.5872e-14
-2.30586e-16
-5.81448e-19
-1.11199e-21
-1.56561e-24
-1.49216e-27
-7.86535e-31
-8.62977e-35
6.69651e-73
8.97366e-76
6.42392e-79
2.98407e-82
4.72738e-86
2.43092e-90
5.98383e-95
5.48472e-99
1.71175e-96
1.35081e-94
9.43692e-94
1.69302e-93
1.33154e-93
0.999998
0.999999
0.999999
1
1
0.999994
0.999439
0.936257
0.621909
0.381
0.419609
0.384751
0.172897
0.0290161
0.0017984
2.4796e-05
2.18801e-08
-4.65988e-12
-5.12477e-14
-1.69152e-16
-4.02111e-19
-7.1402e-22
-9.05035e-25
-7.24767e-28
-2.60043e-31
-5.06408e-45
6.69651e-73
9.05143e-76
6.35835e-79
3.03509e-82
4.7872e-86
2.36096e-90
7.75432e-95
2.82317e-99
8.85919e-97
9.16403e-95
7.25303e-94
1.35581e-93
1.15678e-93
0.999999
0.999999
0.999999
1
1
0.999994
0.999404
0.933577
0.607787
0.36285
0.39448
0.350966
0.148961
0.0237998
0.00146393
2.1758e-05
2.57143e-08
-4.2259e-12
-3.93796e-14
-1.20885e-16
-2.65898e-19
-4.274e-22
-4.66709e-25
-2.88126e-28
-4.57075e-32
-2.27556e-53
4.65596e-73
9.08559e-76
6.31253e-79
3.09771e-82
4.85805e-86
2.34396e-90
9.50416e-95
1.35837e-99
3.99034e-97
5.84428e-95
5.43228e-94
1.08388e-93
9.78375e-94
1
0.999999
0.999999
1
1
0.999993
0.999358
0.930714
0.593288
0.344924
0.369459
0.318047
0.127896
0.0196115
0.00120337
1.95041e-05
2.86353e-08
-3.62271e-12
-2.98166e-14
-8.3946e-17
-1.67004e-19
-2.34937e-22
-2.0933e-25
-8.50154e-29
-2.75997e-42
4.28149e-70
6.47569e-73
9.12867e-76
6.28776e-79
3.17222e-82
4.94184e-86
2.40391e-90
1.10651e-94
6.27799e-100
1.48714e-97
3.46671e-95
3.94099e-94
8.6253e-94
8.33689e-94
1
0.999999
0.999999
1
1
0.999993
0.999305
0.927721
0.578608
0.327329
0.344703
0.286362
0.109573
0.0162499
0.000998235
1.78023e-05
3.02321e-08
-2.94513e-12
-2.2922e-14
-5.75896e-17
-1.0039e-19
-1.18143e-22
-7.82314e-26
-1.30682e-29
-1.73998e-51
4.27392e-70
6.39668e-73
9.17217e-76
6.27968e-79
3.25952e-82
5.04095e-86
2.84853e-90
1.22409e-94
2.95953e-100
4.12657e-98
1.86952e-95
2.72732e-94
6.82706e-94
7.05138e-94
1
1
0.999999
1
1
0.999993
0.999247
0.924679
0.564012
0.310177
0.320385
0.256241
0.0937873
0.013545
0.000834998
1.64786e-05
3.0639e-08
-2.33635e-12
-1.65468e-14
-3.70513e-17
-5.52937e-20
-5.15122e-23
-2.12384e-26
-4.08005e-38
1.81314e-67
4.29341e-70
6.38219e-73
9.22252e-76
6.30969e-79
3.36001e-82
5.15824e-86
3.84476e-90
1.28923e-94
1.52254e-100
6.70245e-99
8.96547e-96
1.76445e-94
5.32809e-94
5.94219e-94
1
1
0.999999
1
1
0.999992
0.999189
0.921713
0.549818
0.293626
0.296646
0.227953
0.0802823
0.011357
0.000703672
1.53983e-05
3.0411e-08
-1.68778e-12
-1.14926e-14
-2.25119e-17
-2.76666e-20
-1.85797e-23
-2.68152e-27
-4.05046e-51
1.85034e-67
4.33476e-70
6.38214e-73
9.28209e-76
6.39405e-79
3.47439e-82
5.29718e-86
5.27823e-90
1.30902e-94
8.83647e-101
3.50493e-100
3.73149e-96
1.05857e-94
4.00984e-94
4.97832e-94
1
1
1
1
1
0.999992
0.999136
0.918912
0.536368
0.277737
0.273617
0.201743
0.0687718
0.00957359
0.000596816
1.44536e-05
2.96924e-08
-1.11672e-12
-7.70312e-15
-1.28857e-17
-1.23553e-20
-4.9372e-24
-3.7719e-35
9.47313e-60
1.88034e-67
4.38383e-70
6.4558e-73
9.35509e-76
6.50222e-79
3.60359e-82
5.46195e-86
7.03407e-90
1.30933e-94
6.11974e-101
8.07392e-101
1.27084e-96
5.72179e-95
2.86669e-94
4.09045e-94
1
1
1
1
1
0.999992
0.999096
0.916534
0.524001
0.262454
0.251445
0.177877
0.0589679
0.00810641
0.000508835
1.35589e-05
2.85938e-08
-6.59637e-13
-5.0148e-15
-6.95843e-18
-4.78191e-21
-5.78867e-25
-7.46255e-38
9.99594e-60
1.92237e-67
4.45457e-70
6.56743e-73
9.44581e-76
6.6631e-79
3.74876e-82
5.65755e-86
9.05074e-90
1.28402e-94
5.18112e-101
5.69014e-101
3.20602e-97
2.6696e-95
1.89633e-94
3.23292e-94
1
1
1
1
1
0.999993
0.999066
0.914387
0.51299
0.247781
0.230343
0.156447
0.0506005
0.00688717
0.00043549
1.26497e-05
2.71755e-08
1.28833e-12
-3.23527e-15
-3.57191e-18
-1.48628e-21
-2.31863e-32
2.22883e-52
1.10303e-59
1.97408e-67
4.54432e-70
6.70829e-73
9.55926e-76
6.87598e-79
3.91146e-82
5.89004e-86
1.12523e-89
1.22301e-94
4.92841e-101
4.34416e-101
4.6656e-98
9.97419e-96
1.11271e-94
2.39612e-94
1
1
1
1
1
0.999995
0.99906
0.913338
0.503608
0.233832
0.210429
0.13736
0.043432
0.00586365
0.000373569
1.1688e-05
2.54389e-08
1.60322e-12
-2.04354e-15
-1.71667e-18
-2.62263e-22
-8.12534e-34
2.35368e-52
1.16776e-59
2.03558e-67
4.6549e-70
6.90377e-73
9.70104e-76
7.14821e-79
4.09369e-82
6.16668e-86
1.35181e-89
1.13686e-94
4.87022e-101
3.42092e-101
5.94262e-100
2.56193e-96
5.33353e-95
1.63712e-94
1
1
1
0.999999
1
0.999998
0.999073
0.912157
0.495835
0.22072
0.191752
0.12044
0.0372652
0.00499608
0.000320651
1.06659e-05
2.34007e-08
1.37151e-12
-1.27695e-15
-7.56084e-19
-7.34838e-29
-2.30154e-35
2.34568e-52
1.24793e-59
2.10792e-67
4.78866e-70
7.1537e-73
9.87762e-76
7.48838e-79
4.29804e-82
6.49627e-86
1.57032e-89
1.0385e-94
4.79244e-101
2.07918e-101
3.26342e-101
3.15822e-97
1.69437e-95
1.01444e-94
1
1
1
0.999999
1
0.999999
0.999144
0.911902
0.490162
0.20849
0.174329
0.105481
0.0319405
0.00425422
0.000274934
9.60219e-06
2.1105e-08
1.12811e-12
-8.03189e-16
-2.88529e-19
-1.01637e-29
7.86115e-46
2.45741e-52
1.33217e-59
2.19179e-67
4.9474e-70
7.46201e-73
1.00965e-75
7.90524e-79
4.52786e-82
6.88951e-86
1.76726e-89
9.3936e-95
4.85221e-101
1.8098e-101
2.58814e-100
1.23371e-98
2.54878e-96
4.01416e-95
1
1
1
0.999999
1
1
0.999337
0.912243
0.485861
0.197241
0.158148
0.0922699
0.0273297
0.00361521
0.000235097
8.52922e-06
1.85908e-08
9.20769e-13
-5.1731e-16
-7.20222e-20
-9.83344e-31
8.59235e-46
2.51828e-52
1.42364e-59
2.28796e-67
5.13367e-70
7.83762e-73
1.03663e-75
8.40972e-79
4.78743e-82
7.35948e-86
1.93226e-89
8.50015e-95
5.22712e-101
1.60957e-101
3.05495e-100
3.20477e-99
1.3733e-97
2.42364e-96
1
0.999999
1
0.999999
1
1
0.999535
0.913675
0.483658
0.186824
0.143179
0.0805997
0.023329
0.00306191
0.000200183
7.48048e-06
1.59009e-08
7.47019e-13
-3.44378e-16
-6.81482e-27
-5.25344e-32
9.00557e-46
2.59323e-52
1.52169e-59
2.39744e-67
5.3504e-70
8.28842e-73
1.06978e-75
9.01452e-79
5.08223e-82
7.92227e-86
2.05683e-89
7.80001e-95
5.63596e-101
9.75648e-102
1.95696e-100
1.85519e-99
2.49476e-98
2.05703e-97
1
0.999999
0.999999
1
1
1
0.99971
0.91585
0.482237
0.177209
0.129399
0.0702885
0.0198537
0.00258144
0.000169501
6.48305e-06
1.31148e-08
5.96983e-13
-2.35622e-16
-4.36366e-28
-3.35594e-34
9.48825e-46
2.66907e-52
1.62668e-59
2.52138e-67
5.60112e-70
8.82428e-73
1.11034e-75
9.73491e-79
5.41928e-82
8.5978e-86
2.13236e-89
7.36117e-95
6.33498e-101
6.10615e-102
1.09137e-100
5.9549e-100
3.61759e-99
1.87176e-98
1
0.999999
0.999999
1
1
1
0.999847
0.918909
0.48212
0.168317
0.116762
0.0611754
0.0168337
0.00216404
0.000142553