/*--------------------------------*- C++ -*----------------------------------*\
| =========                 |                                                 |
| \\      /  F ield         | OpenFOAM: The Open Source CFD Toolbox           |
|  \\    /   O peration     | Version:  v2012                                 |
|   \\  /    A nd           | Website:  www.openfoam.com                      |
|    \\/     M anipulation  |                                                 |
\*---------------------------------------------------------------------------*/
FoamFile
{
    version     2.0;
    format      ascii;
    class       surfaceScalarField;
    location    "0.05";
    object      alphaPhi0.water;
}
// * * * * * * * * * * * * * * * * * * * * * * * * * * * * * * * * * * * * * //

dimensions      [0 3 -1 0 0 0 0];
oriented        oriented;


internalField   nonuniform List<scalar> 
8162
(
-2.4699e-12
-1.56059e-11
1.59404e-18
-1.00854e-11
-8.1812e-11
8.46603e-18
-2.07903e-11
-1.84942e-10
1.93657e-17
-5.89514e-11
-3.25447e-10
3.58592e-17
-1.13561e-09
-1.58504e-09
2.25403e-16
-1.00607e-08
-1.79458e-08
2.48049e-15
-2.76477e-08
-6.98064e-08
9.29731e-15
-4.09588e-08
-1.18601e-07
1.48043e-14
-4.23841e-08
-1.2153e-07
1.68244e-14
-3.4228e-08
-8.25557e-08
4.54251e-14
-2.6349e-08
-3.84295e-08
-3.92438e-15
-2.14316e-08
-1.16964e-08
6.75534e-15
-1.74628e-08
1.38406e-09
8.55816e-15
-1.38554e-08
8.37436e-09
1.5809e-15
-1.04401e-08
1.17649e-08
1.375e-15
-7.33425e-09
1.24572e-08
9.35078e-16
-4.72237e-09
1.12109e-08
6.19878e-16
-2.73917e-09
8.81054e-09
3.82017e-16
-1.40445e-09
6.05503e-09
2.15754e-16
3.60308e-09
1.09267e-16
-7.7419e-15
-2.55013e-13
2.61175e-20
-1.39259e-13
-8.3915e-13
8.82227e-20
-2.43464e-12
-1.36473e-11
1.46567e-18
-1.00595e-11
-7.2136e-11
7.82813e-18
-2.03029e-11
-1.64947e-10
1.81079e-17
-4.6654e-11
-2.77877e-10
3.1812e-17
-6.49071e-10
-9.29394e-10
1.3721e-16
-7.25302e-09
-1.10065e-08
1.65779e-15
-2.37765e-08
-5.21249e-08
7.49646e-15
-3.90906e-08
-1.01876e-07
1.4325e-14
-4.39153e-08
-1.15833e-07
1.83165e-14
-3.77697e-08
-8.81674e-08
1.61402e-14
-2.92341e-08
-4.64299e-08
3.1232e-14
-2.3354e-08
-1.68081e-08
1.5605e-14
-1.8891e-08
-1.33771e-09
4.83492e-15
-1.51164e-08
7.0198e-09
7.92086e-16
-1.1548e-08
1.13503e-08
1.80853e-15
-8.27035e-09
1.27881e-08
1.2144e-15
-5.4513e-09
1.20318e-08
7.93395e-16
-3.24742e-09
9.82661e-09
4.86622e-16
-1.71441e-09
6.99845e-09
2.75349e-16
4.30864e-09
1.40259e-16
-2.24272e-126
8.93235e-124
-4.33634e-130
-3.09126e-82
6.38973e-80
-2.72003e-86
4.85952e-59
-4.90161e-59
1.21342e-66
2.68445e-35
-2.71884e-35
8.31348e-43
1.33342e-15
-1.35549e-15
3.24749e-23
5.08598e-11
-6.81922e-10
2.0579e-16
4.17016e-10
-2.31479e-09
-4.56138e-16
3.98105e-09
-1.1606e-08
-6.72258e-14
1.70923e-08
-8.68001e-08
2.87038e-14
-1.776e-07
5.65963e-14
3.66454e-09
-9.57775e-08
1.56972e-15
6.57064e-10
-4.06627e-08
2.94175e-15
8.43611e-12
-3.8674e-09
4.49713e-16
-6.32535e-16
-2.04206e-11
2.66444e-18
-4.13884e-15
-2.61626e-13
2.7145e-20
-8.73637e-15
-2.35663e-13
2.5394e-20
-1.37057e-13
-7.38394e-13
8.28891e-20
-2.32291e-12
-1.16953e-11
1.32693e-18
-9.7984e-12
-6.27083e-11
7.09131e-18
-1.98022e-11
-1.45956e-10
1.66273e-17
-3.94483e-11
-2.39191e-10
2.83035e-17
-3.48369e-10
-5.76898e-10
8.53615e-17
-4.81698e-09
-6.27711e-09
1.03048e-15
-1.92681e-08
-3.658e-08
5.69135e-15
-3.57395e-08
-8.37388e-08
1.28419e-14
-4.39814e-08
-1.06372e-07
1.24403e-14
-4.07689e-08
-9.07071e-08
1.82912e-15
-3.24221e-08
-5.42416e-08
4.64515e-14
-2.5393e-08
-2.30691e-08
1.99216e-14
-2.05036e-08
-4.72143e-09
-2.63315e-15
-1.64784e-08
5.17955e-09
-1.11237e-15
-1.27361e-08
1.05605e-08
2.47558e-15
-9.28033e-09
1.28463e-08
1.54497e-15
-6.25135e-09
1.26891e-08
9.97901e-16
-3.81865e-09
1.07809e-08
6.11034e-16
-2.07252e-09
7.95359e-09
3.46995e-16
5.06018e-09
1.78185e-16
-3.39014e-125
1.11317e-122
-6.34304e-129
-2.38403e-81
4.22472e-79
-2.16661e-85
5.52055e-57
-5.56957e-57
1.39108e-64
2.06521e-33
-2.09239e-33
5.98452e-41
7.71713e-14
-7.85268e-14
1.62688e-21
1.01691e-10
-8.90829e-10
2.92569e-17
7.60528e-10
-2.91972e-09
-1.68516e-14
5.82576e-09
-1.66756e-08
6.94395e-14
1.89946e-08
-9.99691e-08
1.48225e-13
2.52257e-08
-1.83809e-07
5.39422e-14
1.95323e-08
-2.00124e-07
-2.82679e-15
7.99594e-09
-1.43464e-07
2.20235e-15
2.81298e-09
-8.66912e-08
1.85162e-15
3.5396e-10
-3.1849e-08
2.77705e-15
2.34543e-12
-2.54833e-09
2.86361e-16
-2.02e-15
-1.71183e-11
1.82785e-18
-5.12523e-15
-2.40084e-13
2.58784e-20
-9.49573e-15
-2.17063e-13
2.39654e-20
-1.29516e-13
-6.36393e-13
7.25842e-20
-2.15354e-12
-9.82194e-12
1.14621e-18
-9.33362e-12
-5.3701e-11
6.32096e-18
-1.92377e-11
-1.27848e-10
1.52629e-17
-3.46844e-11
-2.06632e-10
2.55013e-17
-1.83219e-10
-3.9297e-10
5.72716e-17
-2.93004e-09
-3.34442e-09
5.97469e-16
-1.46496e-08
-2.39237e-08
4.00442e-15
-3.11538e-08
-6.54359e-08
1.09004e-14
-4.19469e-08
-9.39499e-08
1.51916e-14
-4.24345e-08
-8.92252e-08
9.84178e-15
-3.53325e-08
-6.06325e-08
2.64326e-14
-2.77596e-08
-2.98679e-08
-1.15042e-15
-2.23245e-08
-8.86568e-09
-7.02275e-15
-1.79378e-08
2.77169e-09
3.86793e-15
-1.39803e-08
9.32986e-09
4.24199e-15
-1.03374e-08
1.25536e-08
1.90984e-15
-7.09951e-09
1.30925e-08
1.23412e-15
-4.43652e-09
1.15827e-08
7.56237e-16
-2.46927e-09
8.84324e-09
4.31008e-16
5.80291e-09
2.22815e-16
-4.30437e-124
1.1919e-121
-9.39695e-128
-1.46531e-80
2.44049e-78
-1.40444e-84
6.07658e-55
-6.13201e-55
1.58344e-62
1.54022e-31
-1.56114e-31
4.45181e-39
1.53448e-12
-1.613e-12
1.15589e-19
1.30228e-10
-1.06294e-09
1.16066e-15
8.93834e-10
-3.66184e-09
8.01727e-15
7.92756e-09
-2.3712e-08
1.76061e-13
2.05953e-08
-1.12637e-07
7.14548e-14
2.45695e-08
-1.87755e-07
3.54252e-14
1.72908e-08
-1.92646e-07
-7.66458e-15
6.65491e-09
-1.32018e-07
1.56134e-15
2.06598e-09
-7.77705e-08
1.93298e-15
1.7241e-10
-2.46096e-08
2.36154e-15
3.92248e-14
-1.78765e-09
2.02498e-16
-3.17026e-15
-1.73083e-11
1.77619e-18
-5.92923e-15
-2.22728e-13
2.44819e-20
-1.00409e-14
-1.99408e-13
2.28591e-20
-1.18169e-13
-5.38135e-13
6.483e-20
-1.94543e-12
-8.07917e-12
9.9434e-19
-8.69355e-12
-4.52714e-11
5.56368e-18
-1.84444e-11
-1.10685e-10
1.37511e-17
-3.10874e-11
-1.78614e-10
2.28074e-17
-1.01784e-10
-2.93099e-10
4.19496e-17
-1.62393e-09
-1.69783e-09
3.24515e-16
-1.03535e-08
-1.44671e-08
2.62058e-15
-2.58508e-08
-4.81776e-08
8.44968e-15
-3.84033e-08
-7.94119e-08
1.57022e-14
-4.21771e-08
-8.40405e-08
2.2979e-14
-3.76872e-08
-6.41793e-08
1.01802e-14
-3.04222e-08
-3.62902e-08
-2.66133e-15
-2.43474e-08
-1.38421e-08
7.88585e-15
-1.95268e-08
-2.92194e-10
9.50178e-15
-1.52996e-08
7.60967e-09
3.88419e-15
-1.14338e-08
1.18674e-08
2.31917e-15
-7.97757e-09
1.31952e-08
1.50042e-15
-5.08291e-09
1.21746e-08
9.22955e-16
-2.89149e-09
9.60907e-09
5.27938e-16
-1.43402e-09
6.48902e-09
2.74973e-16
3.7073e-09
1.25617e-16
-4.26846e-123
1.08834e-120
-1.08318e-126
-6.97095e-80
1.21346e-77
-8.88457e-84
6.51256e-53
-6.5736e-53
1.72485e-60
1.12135e-29
-1.13696e-29
3.40541e-37
1.4578e-12
-1.43313e-11
1.13826e-17
9.68826e-11
-1.16887e-09
4.98593e-15
5.27936e-10
-4.15832e-09
3.44791e-14
9.48174e-09
-3.26664e-08
1.36576e-13
2.12282e-08
-1.24383e-07
3.47068e-14
2.31498e-08
-1.8964e-07
2.7711e-14
1.48162e-08
-1.84075e-07
-8.31876e-15
5.44731e-09
-1.21645e-07
2.15121e-15
1.42099e-09
-6.91362e-08
2.6086e-15
6.9579e-11
-1.8941e-08
1.934e-15
-9.78818e-14
-1.33199e-09
1.50136e-16
-4.20385e-15
-1.76356e-11
1.83946e-18
-6.58064e-15
-2.06779e-13
2.32922e-20
-1.04173e-14
-1.82804e-13
2.14035e-20
-1.0442e-13
-4.47393e-13
5.55408e-20
-1.71513e-12
-6.5032e-12
8.33642e-19
-7.9216e-12
-3.75439e-11
4.81357e-18
-1.73461e-11
-9.4637e-11
1.22764e-17
-2.81447e-11
-1.54039e-10
2.04231e-17
-6.44597e-11
-2.32265e-10
3.33048e-17
-8.22892e-10
-8.58319e-10
1.69928e-16
-6.73549e-09
-8.04077e-09
1.58736e-15
-2.02362e-08
-3.31171e-08
6.19097e-15
-3.36698e-08
-6.37952e-08
1.19772e-14
-4.02755e-08
-7.55874e-08
1.50419e-14
-3.88368e-08
-6.43242e-08
1.6943e-14
-3.27314e-08
-4.13084e-08
1.58247e-14
-2.62229e-08
-1.93003e-08
8.25864e-15
-2.09757e-08
-3.86041e-09
6.88614e-15
-1.66004e-08
5.37223e-09
4.30504e-15
-1.25703e-08
1.06038e-08
2.6709e-15
-8.90695e-09
1.28064e-08
1.76754e-15
-5.77423e-09
1.24077e-08
1.10199e-15
-3.3475e-09
1.01482e-08
6.3508e-16
-1.69394e-09
7.05493e-09
3.33136e-16
4.13367e-09
1.5497e-16
-3.5091e-122
8.22293e-120
-1.19346e-125
-2.85131e-79
5.02886e-77
-4.29474e-83
6.86323e-51
-6.92897e-51
1.86347e-58
8.06879e-28
-8.18249e-28
2.62785e-35
9.50712e-13
-4.68724e-11
9.88226e-17
3.20455e-11
-1.2018e-09
7.14238e-15
1.44529e-10
-4.30385e-09
2.78893e-14
1.02775e-08
-4.27993e-08
2.43262e-14
2.08266e-08
-1.34932e-07
1.96247e-14
2.10586e-08
-1.89827e-07
2.82234e-14
1.22318e-08
-1.74968e-07
-4.35697e-15
4.32088e-09
-1.12505e-07
1.69042e-15
8.89071e-10
-6.09886e-08
3.37987e-15
1.39804e-11
-1.46685e-08
1.58846e-15
-2.03685e-13
-1.03835e-09
1.20824e-16
-5.09434e-15
-1.76633e-11
1.9613e-18
-7.0996e-15
-1.91716e-13
2.25376e-20
-1.06576e-14
-1.67229e-13
2.04561e-20
-8.9555e-14
-3.66733e-13
4.79649e-20
-1.47634e-12
-5.11598e-12
6.93464e-19
-7.07013e-12
-3.05993e-11
4.10776e-18
-1.60225e-11
-7.98365e-11
1.07775e-17
-2.56631e-11
-1.32123e-10
1.81024e-17
-4.7183e-11
-1.89836e-10
2.75848e-17
-3.88603e-10
-4.63367e-10
9.01651e-17
-3.99635e-09
-4.09968e-09
8.79506e-16
-1.48361e-08
-2.10223e-08
4.23405e-15
-2.81172e-08
-4.83427e-08
9.93538e-15
-3.66482e-08
-6.48609e-08
1.51106e-14
-3.81247e-08
-6.1133e-08
1.55781e-14
-3.40548e-08
-4.39834e-08
8.11224e-15
-2.79362e-08
-2.40457e-08
8.66056e-15
-2.23823e-08
-7.75249e-09
6.79889e-15
-1.76277e-08
2.74664e-09
4.4016e-15
-1.33834e-08
8.96448e-09
2.95589e-15
-9.59001e-09
1.18625e-08
1.97856e-15
-6.32008e-09
1.19838e-08
1.25011e-15
-3.7348e-09
1.00663e-08
7.28111e-16
-1.92802e-09
7.1496e-09
3.85979e-16
-8.46429e-10
4.27882e-09
1.82109e-16
2.12293e-09
7.33221e-17
-2.4892e-121
2.46788e-119
-9.02802e-125
-1.06501e-78
1.65778e-76
-1.88067e-82
7.15992e-49
-7.22921e-49
1.83289e-56
5.79617e-26
-5.878e-26
1.93654e-33
4.09176e-13
-9.0334e-11
2.68408e-16
1.89229e-11
-1.22681e-09
8.81611e-15
3.95266e-10
-4.68796e-09
3.43999e-15
1.10887e-08
-5.34928e-08
-2.93583e-15
2.00934e-08
-1.43937e-07
2.98753e-14
1.88375e-08
-1.88517e-07
2.08996e-14
9.85935e-09
-1.65665e-07
-6.46282e-15
3.32279e-09
-1.04491e-07
3.51294e-15
4.84876e-10
-5.34844e-08
3.32651e-15
-5.29114e-12
-1.15273e-08
1.25073e-15
-3.08246e-13
-8.26833e-10
9.92038e-17
-5.85771e-15
-1.73706e-11
1.99005e-18
-7.49833e-15
-1.77803e-13
2.15493e-20
-1.07861e-14
-1.52651e-13
1.91359e-20
-7.46736e-14
-2.97563e-13
4.0132e-20
-1.24038e-12
-3.9272e-12
5.54264e-19
-6.18505e-12
-2.4478e-11
3.41122e-18
-1.45632e-11
-6.6364e-11
9.28673e-18
-2.34995e-11
-1.12337e-10
1.58911e-17
-3.80636e-11
-1.57276e-10
2.32973e-17
-1.8044e-10
-2.83848e-10
5.20639e-17
-2.14068e-09
-1.9388e-09
4.4739e-16
-1.00635e-08
-1.21803e-08
2.64762e-15
-2.23073e-08
-3.41224e-08
7.36045e-15
-3.19765e-08
-5.28157e-08
1.27618e-14
-3.57147e-08
-5.53506e-08
1.71843e-14
-3.40179e-08
-4.40272e-08
1.18872e-14
-2.92034e-08
-2.73069e-08
7.87543e-15
-2.37378e-08
-1.17066e-08
6.30098e-15
-1.86505e-08
-1.51725e-10
4.61593e-15
-1.41545e-08
7.0207e-09
3.20759e-15
-1.01252e-08
1.06418e-08
2.1562e-15
-6.66929e-09
1.12905e-08
1.36413e-15
-3.94351e-09
9.73687e-09
7.92995e-16
-2.04197e-09
7.02183e-09
4.18268e-16
-9.01472e-10
4.23074e-09
1.96342e-16
2.10899e-09
7.96267e-17
-7.6737e-121
1.11604e-118
-2.83904e-124
-3.54215e-78
4.02383e-76
-5.90798e-82
7.4075e-47
-7.4798e-47
1.81117e-54
4.175e-24
-4.23378e-24
1.45601e-31
3.13417e-12
-1.47586e-10
4.61648e-16
8.61174e-11
-1.37449e-09
7.57953e-15
1.26285e-09
-5.86496e-09
-2.66006e-14
1.22083e-08
-6.44382e-08
-3.66448e-14
1.94695e-08
-1.51198e-07
3.73334e-14
1.68587e-08
-1.85842e-07
1.73339e-14
7.90628e-09
-1.56335e-07
-1.04232e-14
2.49251e-09
-9.73443e-08
4.52689e-15
2.0262e-10
-4.67048e-08
3.33372e-15
-1.12417e-11
-9.2283e-09
1.0286e-15
-4.06608e-13
-6.6671e-10
8.25147e-17
-6.50642e-15
-1.69535e-11
2.02957e-18
-7.78623e-15
-1.64959e-13
2.05668e-20
-1.08219e-14
-1.39033e-13
1.78309e-20
-6.0664e-14
-2.40218e-13
3.32472e-20
-1.01614e-12
-2.9362e-12
4.31923e-19
-5.30329e-12
-1.91871e-11
2.77823e-18
-1.30116e-11
-5.42828e-11
7.85965e-18
-2.14281e-11
-9.44294e-11
1.37536e-17
-3.22106e-11
-1.30951e-10
1.9767e-17
-9.09843e-11
-1.9753e-10
3.41649e-17
-1.03331e-09
-8.81999e-10
2.12476e-16
-6.21423e-09
-6.39167e-09
1.50477e-15
-1.65817e-08
-2.21134e-08
5.06501e-15
-2.66882e-08
-4.02988e-08
9.97729e-15
-3.2104e-08
-4.75586e-08
1.46184e-14
-3.24923e-08
-4.166e-08
1.14227e-14
-2.93574e-08
-2.87048e-08
8.65323e-15
-2.45067e-08
-1.47971e-08
6.04564e-15
-1.94411e-08
-2.98828e-09
4.50687e-15
-1.48166e-08
4.87224e-09
3.4003e-15
-1.06016e-08
9.1382e-09
2.28631e-15
-6.98053e-09
1.03117e-08
1.45592e-15
-4.1274e-09
9.14164e-09
8.47524e-16
-2.13549e-09
6.69725e-09
4.45615e-16
-9.4132e-10
4.07646e-09
2.07631e-16
2.04443e-09
8.37525e-17
-3.9241e-120
7.83106e-119
-1.11504e-123
-1.03307e-77
5.56167e-76
-1.34974e-81
7.5862e-45
-7.661e-45
1.74036e-52
3.00638e-22
-3.04872e-22
1.05921e-29
1.53255e-11
-2.41628e-10
5.06399e-16
2.14074e-10
-1.71651e-09
1.979e-15
2.58797e-09
-8.24237e-09
-3.96591e-14
1.34052e-08
-7.52554e-08
-1.60564e-14
1.89275e-08
-1.56721e-07
3.29713e-15
1.51518e-08
-1.81991e-07
5.72008e-15
6.37747e-09
-1.47125e-07
-1.18584e-14
1.82265e-09
-9.08066e-08
5.05229e-15
1.85305e-11
-4.06714e-08
3.07053e-15
-1.45771e-11
-7.52937e-09
8.50531e-16
-4.93279e-13
-5.45194e-10
6.98566e-17
-7.04887e-15
-1.62146e-11
2.00977e-18
-7.97182e-15
-1.53146e-13
1.97161e-20
-1.07786e-14
-1.26329e-13
1.6634e-20
-4.81781e-14
-1.94138e-13
2.78001e-20
-8.10105e-13
-2.13404e-12
3.30025e-19
-4.45359e-12
-1.47064e-11
2.2226e-18
-1.14093e-11
-4.36326e-11
6.55161e-18
-1.92835e-11
-7.8352e-11
1.17662e-17
-2.7858e-11
-1.08967e-10
1.67971e-17
-5.45768e-11
-1.49207e-10
2.50651e-17
-4.56837e-10
-4.14831e-10
9.87002e-17
-3.45073e-09
-3.03623e-09
7.70423e-16
-1.13526e-08
-1.29935e-08
3.1621e-15
-2.10428e-08
-2.83797e-08
7.18399e-15
-2.76393e-08
-3.83169e-08
1.14091e-14
-2.96775e-08
-3.71336e-08
9.98078e-15
-2.80778e-08
-2.8049e-08
8.30946e-15
-2.42727e-08
-1.63801e-08
6.08525e-15
-1.97214e-08
-5.3665e-09
4.47704e-15
-1.51541e-08
2.66179e-09
3.43942e-15
-1.08765e-08
7.37665e-09
2.32993e-15
-7.16168e-09
9.02486e-09
1.49937e-15
-4.22845e-09
8.26866e-09
8.76916e-16
-2.18376e-09
6.15646e-09
4.60509e-16
-9.60561e-10
3.78278e-09
2.13442e-16
1.90804e-09
8.54362e-17
-3.14029e-120
1.60598e-118
-6.18563e-124
-1.87889e-77
-8.60312e-78
-1.61665e-81
7.62856e-43
-7.70517e-43
1.63601e-50
2.13494e-20
-2.16542e-20
7.5403e-28
3.94038e-11
-3.95457e-10
5.62337e-16
3.62147e-10
-2.08787e-09
1.70842e-16
3.92131e-09
-1.18044e-08
2.52456e-14
1.4407e-08
-8.57412e-08
1.76285e-14
1.83506e-08
-1.60664e-07
-9.12924e-16
1.36417e-08
-1.77193e-07
5.7302e-15
5.19527e-09
-1.38176e-07
-9.66081e-15
1.28689e-09
-8.46854e-08
4.28438e-15
-5.26185e-11
-3.54057e-08
2.87715e-15
-1.62739e-11
-6.21318e-09
7.12006e-16
-5.95699e-13
-4.51367e-10
5.90599e-17
-7.49942e-15
-1.50517e-11
1.94383e-18
-8.06361e-15
-1.42341e-13
1.86558e-20
-1.06656e-14
-1.14493e-13
1.52703e-20
-3.76234e-14
-1.58085e-13
2.27363e-20
-6.26832e-13
-1.50534e-12
2.40065e-19
-3.65719e-12
-1.09949e-11
1.71574e-18
-9.81366e-12
-3.44091e-11
5.31726e-18
-1.7089e-11
-6.40804e-11
9.86225e-18
-2.43497e-11
-9.01953e-11
1.4155e-17
-3.8803e-11
-1.17229e-10
1.954e-17
-1.94289e-10
-2.20458e-10
4.85812e-17
-1.71201e-09
-1.322e-09
3.56929e-16
-7.0531e-09
-6.85448e-09
1.77521e-15
-1.5422e-08
-1.82006e-08
4.7188e-15
-2.25404e-08
-2.86008e-08
8.13109e-15
-2.58728e-08
-3.10034e-08
7.93741e-15
-2.56455e-08
-2.55818e-08
7.43393e-15
-2.29422e-08
-1.64066e-08
6.01182e-15
-1.91877e-08
-7.01852e-09
4.42712e-15
-1.49187e-08
6.55603e-10
3.30055e-15
-1.07711e-08
5.47902e-09
2.28313e-15
-7.10023e-09
7.45435e-09
1.48221e-15
-4.18476e-09
7.1036e-09
8.70293e-16
-2.15389e-09
5.38612e-09
4.56501e-16
-9.43459e-10
3.3384e-09
2.10399e-16
1.69037e-09
8.36273e-17
-6.89685e-120
5.22963e-118
-8.42504e-124
1.52362e-75
-1.53223e-75
2.32086e-83
7.44216e-41
-7.51921e-41
1.91689e-48
1.46907e-18
-1.49072e-18
7.07097e-26
6.36549e-11
-5.72814e-10
1.55123e-15
5.05573e-10
-2.5246e-09
9.54569e-15
5.15366e-09
-1.64542e-08
7.46588e-14
1.52755e-08
-9.58632e-08
4.06636e-14
1.77409e-08
-1.6313e-07
-2.33087e-15
1.22998e-08
-1.71647e-07
7.96025e-15
4.29018e-09
-1.29586e-07
-8.56211e-15
8.62328e-10
-7.88437e-08
3.85229e-15
-8.99676e-11
-3.08377e-08
2.5987e-15
-1.69768e-11
-5.17693e-09
6.11235e-16
-6.90653e-13
-3.77712e-10
5.11793e-17
-7.87514e-15
-1.36138e-11
1.83453e-18
-8.07033e-15
-1.32524e-13
1.79302e-20
-1.04889e-14
-1.03478e-13
1.41385e-20
-2.91612e-14
-1.30407e-13
1.92354e-20
-4.69308e-13
-1.02978e-12
1.7246e-19
-2.93e-12
-7.9948e-12
1.30194e-18
-8.27451e-12
-2.6567e-11
4.24962e-18
-1.49109e-11
-5.15653e-11
8.16369e-18
-2.13359e-11
-7.39689e-11
1.18595e-17
-3.04851e-11
-9.36327e-11
1.56666e-17
-8.7749e-11
-1.37593e-10
2.74911e-17
-7.59572e-10
-5.49073e-10
1.52853e-16
-3.92491e-09
-3.22496e-09
8.90535e-16
-1.03533e-08
-1.04918e-08
2.80796e-15
-1.72281e-08
-1.95309e-08
5.37016e-15
-2.14716e-08
-2.40662e-08
5.87326e-15
-2.23778e-08
-2.18897e-08
6.0553e-15
-2.06179e-08
-1.54328e-08
5.3828e-15
-1.78487e-08
-7.84641e-09
4.27742e-15
-1.40029e-08
-8.86224e-10
3.0595e-15
-1.01704e-08
3.67483e-09
2.15213e-15
-6.70877e-09
5.75324e-09
1.39796e-15
-3.94255e-09
5.72852e-09
8.20172e-16
-2.01823e-09
4.42396e-09
4.28652e-16
-8.77653e-10
2.76153e-09
1.96103e-16
1.39923e-09
7.72229e-17
-2.15982e-119
4.95279e-116
-2.56489e-123
2.6192e-73
-2.63452e-73
5.10493e-81
7.0039e-39
-7.0791e-39
2.69069e-46
9.73403e-17
-9.8831e-17
7.51068e-24
6.98354e-11
-7.14588e-10
3.97454e-15
5.39529e-10
-3.00154e-09
1.3607e-14
6.29926e-09
-2.22143e-08
7.37063e-14
1.60138e-08
-1.05578e-07
6.809e-14
1.7042e-08
-1.64158e-07
-4.89667e-14
1.10639e-08
-1.65546e-07
-1.23765e-14
3.58339e-09
-1.21434e-07
-5.13382e-16
5.24227e-10
-7.32053e-08
4.28727e-15
-1.11685e-10
-2.68894e-08
2.37941e-15
-1.70991e-11
-4.35014e-09
5.24666e-16
-7.435e-13
-3.19034e-10
4.38861e-17
-8.19474e-15
-1.21422e-11
1.67406e-18
-8.00079e-15
-1.23681e-13
1.70493e-20
-1.02526e-14
-9.32439e-14
1.29195e-20
-2.27254e-14
-1.09314e-13
1.6179e-20
-3.38935e-13
-6.83829e-13
1.1831e-19
-2.28349e-12
-5.63575e-12
9.50351e-19
-6.82881e-12
-2.0031e-11
3.29941e-18
-1.27846e-11
-4.07504e-11
6.60698e-18
-1.85614e-11
-5.99348e-11
9.78459e-18
-2.50419e-11
-7.51735e-11
1.26472e-17
-4.72775e-11
-9.69194e-11
1.8082e-17
-3.0723e-10
-2.37158e-10
6.37621e-17
-1.93331e-09
-1.35543e-09
3.98433e-16
-6.26345e-09
-5.36229e-09
1.49905e-15
-1.21475e-08
-1.20199e-08
3.26394e-15
-1.67423e-08
-1.71961e-08
4.11006e-15
-1.86499e-08
-1.75213e-08
4.68561e-15
-1.81532e-08
-1.35561e-08
4.47932e-15
-1.58298e-08
-7.76312e-09
3.84688e-15
-1.25274e-08
-1.85732e-09
2.75908e-15
-9.12717e-09
2.17488e-09
1.94054e-15
-6.00346e-09
4.15021e-09
1.25216e-15
-3.50529e-09
4.33138e-09
7.29769e-16
-1.77749e-09
3.39815e-09
3.78141e-16
-7.63654e-10
2.12723e-09
1.71036e-16
1.07268e-09
6.64276e-17
-1.7833e-117
2.11867e-114
-3.02198e-121
4.35479e-71
-4.38114e-71
1.15673e-78
6.39267e-37
-6.46346e-37
3.43773e-44
6.22651e-15
-6.32534e-15
6.19555e-22
5.16459e-11
-7.98604e-10
5.67044e-15
2.95071e-10
-3.28197e-09
2.9794e-15
7.02179e-09
-2.8941e-08
5.20187e-14
1.62564e-08
-1.14813e-07
6.99662e-14
1.60459e-08
-1.63948e-07
-3.63755e-14
9.79941e-09
-1.59156e-07
-5.77546e-15
2.97179e-09
-1.13832e-07
1.61898e-16
2.41745e-10
-6.77638e-08
4.42998e-15
-1.24598e-10
-2.35007e-08
2.20643e-15
-1.69198e-11
-3.68376e-09
4.48655e-16
-7.68817e-13
-2.71735e-10
3.75678e-17
-8.47845e-15
-1.07707e-11
1.51651e-18
-7.86381e-15
-1.15811e-13
1.62061e-20
-9.96039e-15
-8.37523e-14
1.18179e-20
-1.80712e-14
-9.31179e-14
1.38503e-20
-2.35489e-13
-4.42629e-13
7.87358e-20
-1.72478e-12
-3.83826e-12
6.68799e-19
-5.50378e-12
-1.47035e-11
2.48958e-18
-1.07509e-11
-3.15597e-11
5.23429e-18
-1.5931e-11
-4.78856e-11
7.95689e-18
-2.09507e-11
-6.02299e-11
1.02176e-17
-3.11506e-11
-7.26264e-11
1.31449e-17
-1.20666e-10
-1.19066e-10
2.86249e-17
-8.36996e-10
-5.21994e-10
1.60738e-16
-3.35266e-09
-2.40481e-09
7.1276e-16
-7.76963e-09
-6.52866e-09
1.82465e-15
-1.21884e-08
-1.0996e-08
2.71176e-15
-1.47361e-08
-1.27108e-08
3.42893e-15
-1.49884e-08
-1.08302e-08
3.48139e-15
-1.33308e-08
-6.83648e-09
3.13454e-15
-1.07195e-08
-2.30277e-09
2.35454e-15
-7.81307e-09
1.06194e-09
1.65767e-15
-5.10253e-09
2.81056e-09
1.06384e-15
-2.94534e-09
3.09437e-09
6.13633e-16
-1.47118e-09
2.45941e-09
3.13631e-16
-6.20403e-10
1.53595e-09
1.39515e-16
7.65689e-10
5.31277e-17
-6.71636e-116
5.7592e-113
-1.69109e-119
7.04937e-69
-7.09318e-69
2.71915e-76
5.71631e-35
-5.78095e-35
4.29293e-42
2.4069e-13
-2.47016e-13
4.69289e-20
1.9923e-11
-8.31984e-10
5.54912e-15
1.4551e-11
-3.30433e-09
-6.53248e-15
7.34252e-09
-3.6269e-08
5.45777e-14
1.59721e-08
-1.23442e-07
4.85483e-14
1.47838e-08
-1.62759e-07
-3.56236e-14
8.49836e-09
-1.52704e-07
-3.33218e-15
2.40726e-09
-1.06851e-07
4.68398e-16
-4.59887e-13
-6.25459e-08
4.62816e-15
-1.32463e-10
-2.06209e-08
2.02454e-15
-1.65939e-11
-3.14267e-09
3.84788e-16
-7.77427e-13
-2.33277e-10
3.2442e-17
-8.74517e-15
-9.54629e-12
1.36375e-18
-7.66753e-15
-1.0892e-13
1.53814e-20
-9.59055e-15
-7.49932e-14
1.07428e-20
-1.48441e-14
-8.03673e-14
1.20322e-20
-1.57211e-13
-2.81882e-13
5.13321e-20
-1.25723e-12
-2.51717e-12
4.55055e-19
-4.3187e-12
-1.04698e-11
1.82815e-18
-8.855e-12
-2.3888e-11
4.05959e-18
-1.34659e-11
-3.7643e-11
6.36919e-18
-1.76104e-11
-4.79078e-11
8.20897e-18
-2.32746e-11
-5.58555e-11
9.99656e-18
-5.23644e-11
-7.22567e-11
1.52625e-17
-3.22342e-10
-1.9791e-10
6.06865e-17
-1.56553e-09
-9.45132e-10
3.00117e-16
-4.3877e-09
-3.08172e-09
9.1473e-16
-7.96399e-09
-6.18154e-09
1.6201e-15
-1.06171e-08
-8.2388e-09
2.29066e-15
-1.14783e-08
-7.8189e-09
2.5026e-15
-1.0613e-08
-5.42832e-09
2.3328e-15
-8.76666e-09
-2.38594e-09
1.88253e-15
-6.38904e-09
3.20218e-10
1.33949e-15
-4.14087e-09
1.78292e-09
8.57729e-16
-2.35583e-09
2.1025e-09
4.89858e-16
-1.1538e-09
1.69481e-09
2.4635e-16
-4.74814e-10
1.05313e-09
1.07345e-16
5.16642e-10
3.98715e-17
-1.78095e-114
1.42146e-111
-6.54721e-118
1.11639e-66
-1.12348e-66
5.80875e-74
5.04931e-33
-5.10712e-33
5.30082e-40
3.71105e-13
-2.16501e-12
2.95287e-18
1.18518e-11
-8.58586e-10
4.02869e-15
1.97484e-10
-3.499e-09
1.95023e-14
7.81895e-09
-4.38906e-08
1.01663e-13
1.56336e-08
-1.31257e-07
3.72298e-14
1.35667e-08
-1.60693e-07
-2.06645e-14
7.30583e-09
-1.46254e-07
-3.0931e-15
1.91232e-09
-1.00439e-07
2.21549e-15
-1.38339e-10
-5.76134e-08
4.45423e-15
-1.36685e-10
-1.81375e-08
1.77648e-15
-1.61856e-11
-2.70026e-09
3.32901e-16
-7.75727e-13
-2.01782e-10
2.79083e-17
-9.01162e-15
-8.47626e-12
1.21781e-18
-7.43686e-15
-1.03003e-13
1.4549e-20
-9.14036e-15
-6.69784e-14
9.67859e-21
-1.26549e-14
-6.99539e-14
1.04776e-20
-1.01023e-13
-1.79548e-13
3.28615e-20
-8.80441e-13
-1.58519e-12
2.95443e-19
-3.28645e-12
-7.20352e-12
1.29022e-18
-7.12818e-12
-1.76115e-11
3.05177e-18
-1.11889e-11
-2.90417e-11
4.98217e-18
-1.47161e-11
-3.77009e-11
6.50877e-18
-1.83615e-11
-4.3346e-11
7.71746e-18
-2.83874e-11
-4.99351e-11
9.71869e-18
-1.15728e-10
-8.43904e-11
2.34265e-17
-6.32209e-10
-3.33109e-10
1.12383e-16
-2.15032e-09
-1.25594e-09
4.0365e-16
-4.60873e-09
-3.01796e-09
8.5694e-16
-6.92347e-09
-4.7338e-09
1.38106e-15
-8.06017e-09
-5.15251e-09
1.65123e-15
-7.93781e-09
-4.01945e-09
1.62508e-15
-6.78477e-09
-2.08644e-09
1.44284e-15
-4.95954e-09
-9.9003e-11
1.01199e-15
-3.20882e-09
1.04514e-09
6.55208e-16
-1.80167e-09
1.35546e-09
3.71981e-16
-8.64492e-10
1.11603e-09
1.84395e-16
-3.46301e-10
6.91489e-10
7.86651e-17
3.33789e-10
2.84384e-17
-4.37964e-113
5.79282e-110
-1.39001e-116
1.73291e-64
-1.74415e-64
1.27437e-71
4.42789e-31
-4.47896e-31
5.89519e-38
6.85136e-13
-2.55926e-11
1.04129e-16
5.05739e-11
-9.66189e-10
3.92155e-15
8.7974e-10
-4.33091e-09
4.93394e-14
8.62807e-09
-5.16389e-08
9.16816e-14
1.55277e-08
-1.38156e-07
4.23901e-14
1.25752e-08
-1.5774e-07
-3.11192e-14
6.31402e-09
-1.39777e-07
-4.02715e-15
1.50421e-09
-9.44743e-08
1.78731e-15
-2.39727e-10
-5.2951e-08
4.03405e-15
-1.37977e-10
-1.59909e-08
1.64099e-15
-1.57247e-11
-2.33588e-09
2.92349e-16
-7.67687e-13
-1.75823e-10
2.45353e-17
-9.29294e-15
-7.55288e-12
1.10211e-18
-7.16933e-15
-9.8052e-14
1.3925e-20
-8.68776e-15
-5.96481e-14
8.7408e-21
-1.11489e-14
-6.11676e-14
9.23501e-21
-6.29468e-14
-1.17114e-13
2.13113e-20
-5.89828e-13
-9.57164e-13
1.8475e-19
-2.41421e-12
-4.76945e-12
8.81601e-19
-5.58958e-12
-1.25962e-11
2.23978e-18
-9.11969e-12
-2.19214e-11
3.83274e-18
-1.21498e-11
-2.92764e-11
5.11329e-18
-1.47742e-11
-3.3629e-11
5.99725e-18
-1.89359e-11
-3.66455e-11
6.89117e-18
-4.37919e-11
-4.51626e-11
1.06057e-17
-2.23267e-10
-1.13185e-10
3.86248e-17
-9.02673e-10
-4.40611e-10
1.55397e-16
-2.31454e-09
-1.25319e-09
3.93437e-16
-4.04544e-09
-2.33337e-09
7.38089e-16
-5.28817e-09
-2.93581e-09
9.98122e-16
-5.54622e-09
-2.5823e-09
1.07102e-15
-4.82191e-09
-1.52314e-09
9.87716e-16
-3.62012e-09
-2.6915e-10
7.10635e-16
-2.35642e-09
5.50996e-10
4.71472e-16
-1.31313e-09
8.19481e-10
2.67526e-16
-6.19562e-10
6.97857e-10
1.3145e-16
-2.42036e-10
4.34054e-10
5.50883e-17
2.07049e-10
1.94161e-17
-1.7435e-111
1.02965e-108
-7.18457e-115
2.63998e-62
-2.65742e-62
2.04228e-69
3.86213e-29
-3.90692e-29
5.16799e-36
3.55489e-12
-9.54608e-11
4.63728e-16
1.11364e-10
-1.20229e-09
1.10833e-14
1.8559e-09
-6.07855e-09
4.52861e-14
9.50571e-09
-5.92887e-08
-3.07905e-14
1.55115e-08
-1.44162e-07
6.28284e-14
1.1712e-08
-1.53941e-07
-1.4445e-14
5.47401e-09
-1.33295e-07
-1.71206e-15
1.15732e-09
-8.8856e-08
2.95454e-15
-3.12898e-10
-4.85538e-08
3.80964e-15
-1.37241e-10
-1.41319e-08
1.46932e-15
-1.52419e-11
-2.03365e-09
2.53878e-16
-7.56245e-13
-1.543e-10
2.14318e-17
-9.60552e-15
-6.76218e-12
9.93344e-19
-6.85506e-15
-9.41023e-14
1.33594e-20
-8.21937e-15
-5.29496e-14
7.84854e-21
-1.00531e-14
-5.35548e-14
8.14453e-21
-3.86644e-14
-8.02267e-14
1.42796e-20
-3.76654e-13
-5.54728e-13
1.10581e-19
-1.70345e-12
-3.0269e-12
5.76293e-19
-4.25081e-12
-8.70129e-12
1.58224e-18
-7.2752e-12
-1.61233e-11
2.86107e-18
-9.89213e-12
-2.23653e-11
3.93556e-18
-1.19261e-11
-2.59386e-11
4.62684e-18
-1.40524e-11
-2.75207e-11
5.0901e-18
-2.07447e-11
-2.92994e-11
6.04386e-18
-7.24518e-11
-4.3607e-11
1.33267e-17
-3.21685e-10
-1.36616e-10
5.21139e-17
-9.86762e-10
-4.30189e-10
1.5315e-16
-2.01989e-09
-9.48373e-10
3.36791e-16
-2.97229e-09
-1.40012e-09
5.18576e-16
-3.3941e-09
-1.41212e-09
6.10515e-16
-3.13363e-09
-9.56411e-10
5.9315e-16
-2.45618e-09
-2.95749e-10
4.68122e-16
-1.61711e-09
2.48506e-10
3.14824e-16
-9.02634e-10
4.56741e-10
1.80328e-16
-4.21752e-10
4.08695e-10
8.85187e-17
-1.61568e-10
2.57714e-10
3.66719e-17
1.2239e-10
1.26638e-17
-3.46255e-110
2.32443e-107
-1.32555e-113
3.94354e-60
-3.97011e-60
3.08293e-67
3.33619e-27
-3.37525e-27
3.7541e-34
1.16936e-11
-1.99607e-10
7.03684e-16
1.16313e-10
-1.38848e-09
2.47679e-14
2.58212e-09
-8.54552e-09
-1.11228e-13
1.00574e-08
-6.67638e-08
-1.99587e-13
1.52839e-08
-1.49389e-07
1.53613e-14
1.08111e-08
-1.49468e-07
-4.55467e-15
4.69041e-09
-1.26902e-07
2.54018e-16
8.32298e-10
-8.3544e-08
4.06655e-15
-3.68483e-10
-4.44425e-08
3.63158e-15
-1.35417e-10
-1.25214e-08
1.35935e-15
-1.47679e-11
-1.7815e-09
2.26318e-16
-7.436e-13
-1.36363e-10
1.91428e-17
-9.96428e-15
-6.08851e-12
9.09255e-19
-6.51099e-15
-9.11339e-14
1.29766e-20
-7.65393e-15
-4.69263e-14
7.01786e-21
-9.17711e-15
-4.67712e-14
7.1303e-21
-2.40966e-14
-5.86395e-14
1.00284e-20
-2.28793e-13
-3.10406e-13
6.3289e-20
-1.14896e-12
-1.83487e-12
3.60127e-19
-3.1185e-12
-5.7792e-12
1.08096e-18
-5.65828e-12
-1.14988e-11
2.08742e-18
-7.92734e-12
-1.67388e-11
2.99091e-18
-9.56619e-12
-1.98222e-11
3.55807e-18
-1.08378e-11
-2.08179e-11
3.82921e-18
-1.28222e-11
-2.08213e-11
4.06501e-18
-2.5121e-11
-2.21835e-11
5.49185e-18
-9.78924e-11
-4.28443e-11
1.58963e-17
-3.43879e-10
-1.25873e-10
4.96408e-17
-8.33931e-10
-3.17482e-10
1.27072e-16
-1.4139e-09
-5.61074e-10
2.26693e-16
-1.802e-09
-6.71296e-10
3.0058e-16
-1.84424e-09
-5.2916e-10
3.18166e-16
-1.51774e-09
-2.19789e-10
2.91316e-16
-1.01802e-09
8.78326e-11
1.89721e-16
-5.76367e-10
2.2986e-10
1.12337e-16
-2.69096e-10
2.19972e-10
5.55153e-17
-1.01905e-10
1.42326e-10
2.29247e-17
6.79328e-11
7.81257e-18
-9.20689e-109
1.15575e-106
-3.56289e-112
5.73853e-58
-5.77823e-58
4.39788e-65
2.82027e-25
-2.85402e-25
2.8228e-32
1.8096e-11
-3.01152e-10
9.57624e-16
8.70683e-11
-1.47977e-09
1.40586e-14
2.89311e-09
-1.1352e-08
-3.31581e-13
1.03178e-08
-7.41883e-08
-1.3807e-13
1.48271e-08
-1.53898e-07
2.85029e-14
9.88836e-09
-1.44529e-07
4.37681e-15
3.95104e-09
-1.20659e-07
1.12862e-15
5.21834e-10
-7.85066e-08
4.21326e-15
-4.11861e-10
-4.06355e-08
3.43048e-15
-1.33047e-10
-1.11266e-08
1.23493e-15
-1.43212e-11
-1.57005e-09
2.0189e-16
-7.3131e-13
-1.21346e-10
1.71413e-17
-1.036e-14
-5.51639e-12
8.3366e-19
-6.20521e-15
-8.90377e-14
1.27184e-20
-7.07977e-15
-4.15917e-14
6.34112e-21
-8.39839e-15
-4.06896e-14
6.3459e-21
-1.58297e-14
-4.56325e-14
7.67567e-21
-1.32268e-13
-1.70203e-13
3.571e-20
-7.37677e-13
-1.05944e-12
2.16552e-19
-2.19485e-12
-3.67474e-12
7.09613e-19
-4.26531e-12
-7.911e-12
1.46852e-18
-6.23358e-12
-1.22046e-11
2.20996e-18
-7.6086e-12
-1.49434e-11
2.69183e-18
-8.45629e-12
-1.57462e-11
2.87944e-18
-9.178e-12
-1.52706e-11
2.91586e-18
-1.15351e-11
-1.42334e-11
3.00222e-18
-2.86119e-11
-1.69423e-11
5.18045e-18
-9.9809e-11
-3.50058e-11
1.41182e-17
-2.83729e-10
-8.78062e-11
3.99066e-17
-5.75307e-10
-1.77753e-10
8.35041e-17
-8.44976e-10
-2.505e-10
1.28619e-16
-9.41603e-10
-2.31553e-10
1.5148e-16
-8.16376e-10
-1.18486e-10
1.46056e-16
-5.77646e-10
1.98037e-11
1.02852e-16
-3.35038e-10
1.01133e-10
6.33143e-17
-1.57983e-10
1.06161e-10
3.18015e-17
-5.9714e-11
7.1465e-11
1.32195e-17
3.46574e-11
4.48478e-18
-4.54322e-108
-8.5936e-107
-1.77403e-111
8.08682e-56
-8.1446e-56
6.86168e-63
2.31386e-23
-2.3424e-23
2.63913e-30
1.65469e-11
-3.74139e-10
2.33178e-15
1.49717e-10
-1.60984e-09
-1.13233e-15
3.3339e-09
-1.45366e-08
-2.74069e-13
1.07225e-08
-8.15768e-08
2.46059e-15
1.44253e-08
-1.57601e-07
2.91472e-14
9.0903e-09
-1.39194e-07
-7.73512e-15
3.31518e-09
-1.14546e-07
3.80309e-16
2.49339e-10
-7.36793e-08
4.38123e-15
-4.42889e-10
-3.71242e-08
3.34333e-15
-1.30222e-10
-9.91544e-09
1.15212e-15
-1.39046e-11
-1.39167e-09
1.8299e-16