/*--------------------------------*- C++ -*----------------------------------*\
| =========                 |                                                 |
| \\      /  F ield         | OpenFOAM: The Open Source CFD Toolbox           |
|  \\    /   O peration     | Version:  v2012                                 |
|   \\  /    A nd           | Website:  www.openfoam.com                      |
|    \\/     M anipulation  |                                                 |
\*---------------------------------------------------------------------------*/
FoamFile
{
    version     2.0;
    format      ascii;
    class       volScalarField;
    location    "0.05";
    object      p_rgh;
}
// * * * * * * * * * * * * * * * * * * * * * * * * * * * * * * * * * * * * * //

dimensions      [1 -1 -2 0 0 0 0];


internalField   nonuniform List<scalar> 
3332
(
3.4539e+06
3.45592e+06
3.45752e+06
3.45873e+06
3.4595e+06
3.4639e+06
3.47566e+06
3.4869e+06
3.49257e+06
3.49432e+06
3.49432e+06
3.49449e+06
3.49482e+06
3.49537e+06
3.49582e+06
3.49627e+06
3.49663e+06
3.49687e+06
3.49698e+06
3.497e+06
3.45062e+06
3.45328e+06
3.45548e+06
3.45716e+06
3.45846e+06
3.45944e+06
3.45992e+06
3.46268e+06
3.47258e+06
3.48448e+06
3.49158e+06
3.49444e+06
3.49465e+06
3.49477e+06
3.49516e+06
3.49571e+06
3.49612e+06
3.49655e+06
3.49688e+06
3.49709e+06
3.49716e+06
3.49714e+06
3.44562e+06
3.44183e+06
3.44619e+06
3.44075e+06
3.44637e+06
3.43711e+06
3.44564e+06
3.4336e+06
3.44583e+06
3.43844e+06
3.44595e+06
3.44508e+06
3.44419e+06
3.44637e+06
3.45046e+06
3.45314e+06
3.4554e+06
3.45717e+06
3.45853e+06
3.45956e+06
3.46032e+06
3.46064e+06
3.46213e+06
3.46979e+06
3.48155e+06
3.49006e+06
3.49403e+06
3.49488e+06
3.49511e+06
3.4955e+06
3.49599e+06
3.4964e+06
3.49682e+06
3.49713e+06
3.4973e+06
3.49734e+06
3.49727e+06
3.45314e+06
3.44998e+06
3.45353e+06
3.44968e+06
3.45331e+06
3.44675e+06
3.45055e+06
3.4399e+06
3.45e+06
3.44578e+06
3.44678e+06
3.44277e+06
3.45253e+06
3.44933e+06
3.44833e+06
3.4502e+06
3.45369e+06
3.45575e+06
3.4576e+06
3.45897e+06
3.46004e+06
3.46082e+06
3.46138e+06
3.46159e+06
3.46221e+06
3.4676e+06
3.47825e+06
3.48772e+06
3.49304e+06
3.49488e+06
3.49537e+06
3.49573e+06
3.49623e+06
3.49667e+06
3.49706e+06
3.49736e+06
3.4975e+06
3.4975e+06
3.49739e+06
3.46227e+06
3.46049e+06
3.46249e+06
3.46109e+06
3.46259e+06
3.45972e+06
3.46012e+06
3.45571e+06
3.45799e+06
3.45621e+06
3.45377e+06
3.45269e+06
3.45883e+06
3.45402e+06
3.45246e+06
3.45419e+06
3.4569e+06
3.45844e+06
3.45987e+06
3.46087e+06
3.46166e+06
3.46222e+06
3.46259e+06
3.46274e+06
3.46285e+06
3.46625e+06
3.47515e+06
3.48492e+06
3.4914e+06
3.49434e+06
3.49543e+06
3.49589e+06
3.49637e+06
3.49689e+06
3.49728e+06
3.49757e+06
3.49769e+06
3.49765e+06
3.4975e+06
3.49729e+06
3.47078e+06
3.47062e+06
3.47072e+06
3.47183e+06
3.47083e+06
3.473e+06
3.46957e+06
3.47641e+06
3.46794e+06
3.46697e+06
3.46061e+06
3.46294e+06
3.46458e+06
3.45899e+06
3.45666e+06
3.45829e+06
3.46013e+06
3.46122e+06
3.4622e+06
3.46286e+06
3.46338e+06
3.46374e+06
3.46396e+06
3.46404e+06
3.46392e+06
3.46577e+06
3.47258e+06
3.48191e+06
3.48925e+06
3.49332e+06
3.49513e+06
3.49593e+06
3.4964e+06
3.49702e+06
3.49743e+06
3.49772e+06
3.49783e+06
3.49776e+06
3.49758e+06
3.49733e+06
3.47626e+06
3.47957e+06
3.47601e+06
3.48115e+06
3.47501e+06
3.48475e+06
3.47334e+06
3.49012e+06
3.47471e+06
3.47499e+06
3.46649e+06
3.47253e+06
3.46987e+06
3.46419e+06
3.46101e+06
3.46245e+06
3.46339e+06
3.46406e+06
3.46459e+06
3.46493e+06
3.46519e+06
3.46536e+06
3.46544e+06
3.46546e+06
3.46528e+06
3.46609e+06
3.47083e+06
3.47903e+06
3.48671e+06
3.49174e+06
3.49435e+06
3.49572e+06
3.49635e+06
3.49699e+06
3.49748e+06
3.49779e+06
3.4979e+06
3.49782e+06
3.49761e+06
3.49734e+06
3.49707e+06
3.48153e+06
3.48739e+06
3.48104e+06
3.489e+06
3.47931e+06
3.49303e+06
3.47461e+06
3.49621e+06
3.47919e+06
3.48117e+06
3.47248e+06
3.48167e+06
3.47546e+06
3.46969e+06
3.46559e+06
3.46665e+06
3.4667e+06
3.46694e+06
3.46702e+06
3.46705e+06
3.46707e+06
3.46706e+06
3.46703e+06
3.46698e+06
3.46681e+06
3.46704e+06
3.47001e+06
3.47665e+06
3.48411e+06
3.48975e+06
3.49314e+06
3.49511e+06
3.49615e+06
3.49682e+06
3.49743e+06
3.49776e+06
3.49788e+06
3.49781e+06
3.49759e+06
3.49731e+06
3.49703e+06
3.48651e+06
3.49402e+06
3.48565e+06
3.49532e+06
3.48315e+06
3.49803e+06
3.47741e+06
3.50071e+06
3.48504e+06
3.48764e+06
3.47961e+06
3.49068e+06
3.48169e+06
3.47534e+06
3.47039e+06
3.47082e+06
3.47004e+06
3.46983e+06
3.46946e+06
3.4692e+06
3.46898e+06
3.46882e+06
3.46868e+06
3.46857e+06
3.46844e+06
3.46841e+06
3.47008e+06
3.475e+06
3.48175e+06
3.48763e+06
3.49162e+06
3.49409e+06
3.49566e+06
3.49656e+06
3.49726e+06
3.49763e+06
3.49779e+06
3.49773e+06
3.49752e+06
3.49724e+06
3.49697e+06
3.49229e+06
3.50073e+06
3.49146e+06
3.50191e+06
3.48856e+06
3.50304e+06
3.48655e+06
3.5057e+06
3.49346e+06
3.4954e+06
3.4881e+06
3.49969e+06
3.48849e+06
3.48099e+06
3.47532e+06
3.47491e+06
3.47339e+06
3.47269e+06
3.47191e+06
3.47137e+06
3.47092e+06
3.4706e+06
3.47037e+06
3.47021e+06
3.4701e+06
3.47002e+06
3.47086e+06
3.47419e+06
3.47981e+06
3.48555e+06
3.48992e+06
3.49281e+06
3.49485e+06
3.49609e+06
3.49691e+06
3.49739e+06
3.4976e+06
3.49757e+06
3.49739e+06
3.49713e+06
3.49687e+06
3.50137e+06
3.50897e+06
3.501e+06
3.51004e+06
3.49869e+06
3.51015e+06
3.49858e+06
3.51152e+06
3.50292e+06
3.50414e+06
3.49764e+06
3.50856e+06
3.49553e+06
3.48649e+06
3.48024e+06
3.47886e+06
3.47668e+06
3.47549e+06
3.47432e+06
3.47351e+06
3.47286e+06
3.47239e+06
3.47207e+06
3.47187e+06
3.47177e+06
3.47173e+06
3.47214e+06
3.47423e+06
3.47854e+06
3.48375e+06
3.48824e+06
3.49146e+06
3.4938e+06
3.49538e+06
3.49637e+06
3.49702e+06
3.49731e+06
3.49734e+06
3.4972e+06
3.49698e+06
3.49674e+06
3.51237e+06
3.51847e+06
3.51274e+06
3.51929e+06
3.5116e+06
3.5191e+06
3.5103e+06
3.51876e+06
3.51291e+06
3.51341e+06
3.50783e+06
3.51711e+06
3.50249e+06
3.4917e+06
3.48501e+06
3.48262e+06
3.47986e+06
3.4782e+06
3.47668e+06
3.47561e+06
3.47476e+06
3.47417e+06
3.47376e+06
3.47352e+06
3.47342e+06
3.47343e+06
3.47369e+06
3.47498e+06
3.47806e+06
3.48246e+06
3.48679e+06
3.4902e+06
3.49271e+06
3.49452e+06
3.49571e+06
3.49652e+06
3.49691e+06
3.49703e+06
3.49696e+06
3.49678e+06
3.49659e+06
3.52425e+06
3.52907e+06
3.5253e+06
3.52974e+06
3.52552e+06
3.52998e+06
3.52538e+06
3.5286e+06
3.52381e+06
3.52272e+06
3.51798e+06
3.52496e+06
3.50896e+06
3.49652e+06
3.48948e+06
3.48612e+06
3.48289e+06
3.48077e+06
3.47894e+06
3.47763e+06
3.47662e+06
3.47591e+06
3.47542e+06
3.47514e+06
3.47504e+06
3.47509e+06
3.47533e+06
3.47617e+06
3.47829e+06
3.48176e+06
3.48568e+06
3.48909e+06
3.49168e+06
3.49365e+06
3.49502e+06
3.49595e+06
3.49645e+06
3.49666e+06
3.49667e+06
3.49656e+06
3.49641e+06
3.53485e+06
3.5378e+06
3.53634e+06
3.53793e+06
3.53814e+06
3.53906e+06
3.54175e+06
3.53828e+06
3.53354e+06
3.53077e+06
3.52694e+06
3.53149e+06
3.51448e+06
3.50079e+06
3.49351e+06
3.48932e+06
3.4857e+06
3.48318e+06
3.48109e+06
3.47957e+06
3.47841e+06
3.47759e+06
3.47703e+06
3.47672e+06
3.4766e+06
3.47667e+06
3.47694e+06
3.47757e+06
3.47904e+06
3.48164e+06
3.48495e+06
3.48817e+06
3.49077e+06
3.49284e+06
3.49434e+06
3.49535e+06
3.49596e+06
3.49626e+06
3.49635e+06
3.49631e+06
3.49622e+06
3.54226e+06
3.54203e+06
3.54395e+06
3.54112e+06
3.54695e+06
3.54208e+06
3.5519e+06
3.54399e+06
3.53997e+06
3.53695e+06
3.5343e+06
3.53662e+06
3.51892e+06
3.5045e+06
3.49707e+06
3.49221e+06
3.48829e+06
3.48543e+06
3.48312e+06
3.48142e+06
3.48012e+06
3.4792e+06
3.47858e+06
3.47823e+06
3.4781e+06
3.47817e+06
3.47846e+06
3.47901e+06
3.48009e+06
3.482e+06
3.48466e+06
3.48752e+06
3.49004e+06
3.49213e+06
3.4937e+06
3.49477e+06
3.49547e+06
3.49585e+06
3.49602e+06
3.49605e+06
3.49602e+06
3.54685e+06
3.54583e+06
3.54857e+06
3.54419e+06
3.5515e+06
3.54235e+06
3.55482e+06
3.54712e+06
3.54396e+06
3.54204e+06
3.54054e+06
3.54083e+06
3.52254e+06
3.50775e+06
3.50018e+06
3.4948e+06
3.49064e+06
3.48749e+06
3.485e+06
3.48315e+06
3.48174e+06
3.48074e+06
3.48006e+06
3.47967e+06
3.47951e+06
3.47959e+06
3.47987e+06
3.48039e+06
3.48127e+06
3.48272e+06
3.48479e+06
3.48722e+06
3.48954e+06
3.49154e+06
3.49312e+06
3.49424e+06
3.49501e+06
3.49546e+06
3.4957e+06
3.49579e+06
3.49582e+06
3.54585e+06
3.54735e+06
3.55068e+06
3.54747e+06
3.55362e+06
3.54449e+06
3.55578e+06
3.55122e+06
3.5476e+06
3.54679e+06
3.54607e+06
3.54453e+06
3.52556e+06
3.51061e+06
3.50291e+06
3.49713e+06
3.49277e+06
3.48939e+06
3.48676e+06
3.48477e+06
3.48327e+06
3.4822e+06
3.48147e+06
3.48103e+06
3.48085e+06
3.4809e+06
3.48118e+06
3.48167e+06
3.48244e+06
3.4836e+06
3.48523e+06
3.48721e+06
3.48926e+06
3.49109e+06
3.49264e+06
3.49378e+06
3.49458e+06
3.49509e+06
3.49539e+06
3.49554e+06
3.49562e+06
3.54882e+06
3.55186e+06
3.55351e+06
3.55214e+06
3.55685e+06
3.55366e+06
3.55877e+06
3.55776e+06
3.55204e+06
3.55124e+06
3.55094e+06
3.54778e+06
3.5281e+06
3.51315e+06
3.50529e+06
3.49921e+06
3.49469e+06
3.49113e+06
3.48838e+06
3.48629e+06
3.48471e+06
3.48358e+06
3.48279e+06
3.48232e+06
3.48211e+06
3.48213e+06
3.48238e+06
3.48284e+06
3.48354e+06
3.48452e+06
3.48582e+06
3.48743e+06
3.48917e+06
3.49082e+06
3.49227e+06
3.4934e+06
3.4942e+06
3.49475e+06
3.4951e+06
3.49531e+06
3.49542e+06
3.55267e+06
3.55836e+06
3.55694e+06
3.55974e+06
3.56186e+06
3.56491e+06
3.56374e+06
3.56424e+06
3.55665e+06
3.55501e+06
3.55495e+06
3.55046e+06
3.5302e+06
3.5154e+06
3.50736e+06
3.50107e+06
3.49642e+06
3.49272e+06
3.48988e+06
3.4877e+06
3.48606e+06
3.48487e+06
3.48404e+06
3.48353e+06
3.48329e+06
3.48328e+06
3.48349e+06
3.48391e+06
3.48454e+06
3.48539e+06
3.48649e+06
3.48781e+06
3.48927e+06
3.49071e+06
3.49201e+06
3.49309e+06
3.49389e+06
3.49446e+06
3.49484e+06
3.49509e+06
3.49524e+06
3.55712e+06
3.56384e+06
3.56065e+06
3.56582e+06
3.5652e+06
3.56945e+06
3.56678e+06
3.56823e+06
3.56058e+06
3.55813e+06
3.55805e+06
3.55262e+06
3.53186e+06
3.51738e+06
3.50915e+06
3.50274e+06
3.49797e+06
3.49416e+06
3.49125e+06
3.48901e+06
3.48732e+06
3.48608e+06
3.48522e+06
3.48467e+06
3.48439e+06
3.48435e+06
3.48451e+06
3.48488e+06
3.48544e+06
3.48619e+06
3.48713e+06
3.48825e+06
3.48947e+06
3.49071e+06
3.49186e+06
3.49286e+06
3.49364e+06
3.49421e+06
3.49461e+06
3.49489e+06
3.49507e+06
3.56174e+06
3.56716e+06
3.565e+06
3.56991e+06
3.56699e+06
3.57018e+06
3.56813e+06
3.57125e+06
3.56425e+06
3.56121e+06
3.56058e+06
3.55448e+06
3.5332e+06
3.51914e+06
3.51069e+06
3.50422e+06
3.49935e+06
3.49549e+06
3.49252e+06
3.49023e+06
3.4885e+06
3.48723e+06
3.48633e+06
3.48574e+06
3.48543e+06
3.48534e+06
3.48546e+06
3.48577e+06
3.48626e+06
3.48692e+06
3.48774e+06
3.48869e+06
3.48973e+06
3.4908e+06
3.49181e+06
3.49271e+06
3.49344e+06
3.494e+06
3.49442e+06
3.49471e+06
3.49492e+06
3.56747e+06
3.57215e+06
3.56964e+06
3.57477e+06
3.56943e+06
3.57282e+06
3.57005e+06
3.57506e+06
3.56801e+06
3.56426e+06
3.56253e+06
3.55592e+06
3.5342e+06
3.52062e+06
3.51198e+06
3.50553e+06
3.50059e+06
3.49669e+06
3.49369e+06
3.49137e+06
3.48961e+06
3.48831e+06
3.48737e+06
3.48675e+06
3.4864e+06
3.48627e+06
3.48634e+06
3.4866e+06
3.48702e+06
3.48759e+06
3.4883e+06
3.48912e+06
3.49001e+06
3.49093e+06
3.49182e+06
3.49262e+06
3.4933e+06
3.49384e+06
3.49425e+06
3.49456e+06
3.49478e+06
3.57126e+06
3.57797e+06
3.57238e+06
3.58059e+06
3.57228e+06
3.57922e+06
3.57299e+06
3.57958e+06
3.57167e+06
3.5668e+06
3.56376e+06
3.55678e+06
3.53484e+06
3.52181e+06
3.51305e+06
3.50667e+06
3.50169e+06
3.4978e+06
3.49478e+06
3.49244e+06
3.49066e+06
3.48932e+06
3.48836e+06
3.48771e+06
3.48732e+06
3.48714e+06
3.48717e+06
3.48736e+06
3.48771e+06
3.4882e+06
3.48881e+06
3.48952e+06
3.49029e+06
3.49109e+06
3.49187e+06
3.49258e+06
3.4932e+06
3.49371e+06
3.49412e+06
3.49442e+06
3.49465e+06
3.5729e+06
3.58381e+06
3.57292e+06
3.58624e+06
3.57356e+06
3.58657e+06
3.57554e+06
3.58339e+06
3.57485e+06
3.56837e+06
3.56411e+06
3.55688e+06
3.53508e+06
3.52269e+06
3.51391e+06
3.50766e+06
3.50268e+06
3.49881e+06
3.49579e+06
3.49345e+06
3.49165e+06
3.4903e+06
3.48931e+06
3.48862e+06
3.48819e+06
3.48797e+06
3.48794e+06
3.48808e+06
3.48836e+06
3.48877e+06
3.48929e+06
3.4899e+06
3.49057e+06
3.49126e+06
3.49194e+06
3.49258e+06
3.49314e+06
3.49362e+06
3.494e+06
3.49431e+06
3.49454e+06
3.5709e+06
3.58613e+06
3.57182e+06
3.59014e+06
3.5726e+06
3.59073e+06
3.57656e+06
3.58557e+06
3.5775e+06
3.56901e+06
3.56366e+06
3.55631e+06
3.53501e+06
3.52331e+06
3.51459e+06
3.50852e+06
3.50357e+06
3.49976e+06
3.49675e+06
3.49441e+06
3.4926e+06
3.49123e+06
3.49021e+06
3.48949e+06
3.48901e+06
3.48875e+06
3.48867e+06
3.48875e+06
3.48896e+06
3.4893e+06
3.48973e+06
3.49025e+06
3.49083e+06
3.49143e+06
3.49203e+06
3.4926e+06
3.49311e+06
3.49355e+06
3.49391e+06
3.49421e+06
3.49444e+06
3.57209e+06
3.5888e+06
3.57163e+06
3.59218e+06
3.57073e+06
3.59255e+06
3.57718e+06
3.58656e+06
3.57984e+06
3.56916e+06
3.56263e+06
3.55527e+06
3.5347e+06
3.52374e+06
3.51516e+06
3.50931e+06
3.50441e+06
3.50067e+06
3.49767e+06
3.49534e+06
3.49352e+06
3.49213e+06
3.49108e+06
3.49032e+06
3.48981e+06
3.4895e+06
3.48936e+06
3.48938e+06
3.48953e+06
3.4898e+06
3.49016e+06
3.49059e+06
3.49109e+06
3.49161e+06
3.49213e+06
3.49263e+06
3.4931e+06
3.4935e+06
3.49384e+06
3.49413e+06
3.49435e+06
3.57413e+06
3.58957e+06
3.57252e+06
3.59194e+06
3.57036e+06
3.59306e+06
3.57951e+06
3.58716e+06
3.58189e+06
3.5691e+06
3.5612e+06
3.55398e+06
3.53428e+06
3.52408e+06
3.51569e+06
3.51006e+06
3.50523e+06
3.50157e+06
3.49859e+06
3.49626e+06
3.49443e+06
3.49301e+06
3.49193e+06
3.49114e+06
3.49058e+06
3.49022e+06
3.49003e+06
3.48999e+06
3.49007e+06
3.49027e+06
3.49056e+06
3.49092e+06
3.49134e+06
3.49178e+06
3.49224e+06
3.49268e+06
3.4931e+06
3.49347e+06
3.49379e+06
3.49406e+06
3.49428e+06
3.58087e+06
3.59033e+06
3.57878e+06
3.59258e+06
3.57814e+06
3.59398e+06
3.58513e+06
3.58842e+06
3.58365e+06
3.56902e+06
3.55949e+06
3.55261e+06
3.53385e+06
3.52441e+06
3.51623e+06
3.51083e+06
3.50608e+06
3.50248e+06
3.49951e+06
3.49719e+06
3.49534e+06
3.49389e+06
3.49277e+06
3.49193e+06
3.49132e+06
3.49091e+06
3.49067e+06
3.49057e+06
3.49059e+06
3.49072e+06
3.49094e+06
3.49123e+06
3.49158e+06
3.49196e+06
3.49235e+06
3.49274e+06
3.49311e+06
3.49345e+06
3.49375e+06
3.494e+06
3.49421e+06
3.5899e+06
3.59217e+06
3.58868e+06
3.59736e+06
3.59293e+06
3.59863e+06
3.59237e+06
3.59032e+06
3.58529e+06
3.56928e+06
3.55787e+06
3.55148e+06
3.53364e+06
3.52489e+06
3.5169e+06
3.51169e+06
3.50699e+06
3.50344e+06
3.50047e+06
3.49814e+06
3.49626e+06
3.49477e+06
3.49361e+06
3.49272e+06
3.49206e+06
3.49159e+06
3.49129e+06
3.49112e+06
3.49109e+06
3.49115e+06
3.49131e+06
3.49153e+06
3.49182e+06
3.49213e+06
3.49247e+06
3.49281e+06
3.49314e+06
3.49344e+06
3.49372e+06
3.49395e+06
3.49416e+06
3.59635e+06
3.59418e+06
3.59612e+06
3.60143e+06
3.60274e+06
3.60318e+06
3.59689e+06
3.59169e+06
3.58669e+06
3.56942e+06
3.55661e+06
3.55057e+06
3.53375e+06
3.52555e+06
3.51775e+06
3.51267e+06
3.508e+06
3.50448e+06
3.50149e+06
3.49913e+06
3.4972e+06
3.49567e+06
3.49445e+06
3.4935e+06
3.49278e+06
3.49225e+06
3.49189e+06
3.49167e+06
3.49157e+06
3.49157e+06
3.49166e+06
3.49183e+06
3.49205e+06
3.49231e+06
3.49259e+06
3.49289e+06
3.49317e+06
3.49345e+06
3.4937e+06
3.49392e+06
3.49411e+06
3.59676e+06
3.59562e+06
3.59742e+06
3.60095e+06
3.60216e+06
3.60275e+06
3.59751e+06
3.59265e+06
3.58871e+06
3.57023e+06
3.55627e+06
3.55023e+06
3.53439e+06
3.52653e+06
3.51885e+06
3.51383e+06
3.50916e+06
3.50562e+06
3.50259e+06
3.50017e+06
3.49818e+06
3.49659e+06
3.4953e+06
3.49429e+06
3.4935e+06
3.49291e+06
3.49248e+06
3.49219e+06
3.49203e+06
3.49197e+06
3.492e+06
3.49211e+06
3.49227e+06
3.49248e+06
3.49271e+06
3.49296e+06
3.49321e+06
3.49346e+06
3.49368e+06
3.49389e+06
3.49407e+06
3.59382e+06
3.59788e+06
3.59499e+06
3.5984e+06
3.59706e+06
3.59945e+06
3.5971e+06
3.59454e+06
3.59284e+06
3.57307e+06
3.55727e+06
3.55083e+06
3.53564e+06
3.5279e+06
3.52027e+06
3.51522e+06
3.5105e+06
3.50689e+06
3.50378e+06
3.50129e+06
3.49921e+06
3.49753e+06
3.49617e+06
3.49508e+06
3.49422e+06
3.49355e+06
3.49305e+06
3.4927e+06
3.49248e+06
3.49236e+06
3.49233e+06
3.49238e+06
3.49249e+06
3.49265e+06
3.49284e+06
3.49304e+06
3.49326e+06
3.49347e+06
3.49368e+06
3.49386e+06
3.49403e+06
3.59222e+06
3.59994e+06
3.59355e+06
3.59646e+06
3.59305e+06
3.59663e+06
3.59847e+06
3.59822e+06
3.59908e+06
3.57798e+06
3.55929e+06
3.55231e+06
3.53746e+06
3.5297e+06
3.52202e+06
3.51686e+06
3.51203e+06
3.50831e+06
3.50509e+06
3.50248e+06
3.5003e+06
3.49852e+06
3.49706e+06
3.49588e+06
3.49493e+06
3.49419e+06
3.49362e+06
3.4932e+06
3.49291e+06
3.49274e+06
3.49265e+06
3.49265e+06
3.4927e+06
3.49281e+06
3.49296e+06
3.49313e+06
3.49331e+06
3.49349e+06
3.49368e+06
3.49385e+06
3.494e+06
3.59755e+06
3.6033e+06
3.59857e+06
3.59767e+06
3.59463e+06
3.59694e+06
3.60339e+06
3.60358e+06
3.6062e+06
3.58415e+06
3.56181e+06
3.5544e+06
3.53977e+06
3.53191e+06
3.52411e+06
3.51877e+06
3.51379e+06
3.5099e+06
3.50651e+06
3.50376e+06
3.50144e+06
3.49954e+06
3.49797e+06
3.49669e+06
3.49565e+06
3.49482e+06
3.49418e+06
3.49369e+06
3.49334e+06
3.4931e+06
3.49296e+06
3.4929e+06
3.49291e+06
3.49297e+06
3.49308e+06
3.49321e+06
3.49336e+06
3.49352e+06
3.49368e+06
3.49383e+06
3.49397e+06
3.61348e+06
3.60848e+06
3.61415e+06
3.60385e+06
3.60828e+06
3.60265e+06
3.61236e+06
3.60955e+06
3.61176e+06
3.58992e+06
3.56437e+06
3.55674e+06
3.54253e+06
3.53455e+06
3.52661e+06
3.52101e+06
3.51579e+06
3.51167e+06
3.50808e+06
3.50514e+06
3.50265e+06
3.5006e+06
3.4989e+06
3.49751e+06
3.49637e+06
3.49545e+06
3.49473e+06
3.49417e+06
3.49375e+06
3.49345e+06
3.49325e+06
3.49314e+06
3.49311e+06
3.49313e+06
3.49319e+06
3.49329e+06
3.49341e+06
3.49355e+06
3.49368e+06
3.49382e+06
3.49395e+06
3.63853e+06
3.61405e+06
3.63968e+06
3.6138e+06
3.63506e+06
3.61316e+06
3.62344e+06
3.61457e+06
3.61382e+06
3.59384e+06
3.56719e+06
3.55932e+06
3.54597e+06
3.53772e+06
3.5296e+06
3.52362e+06
3.51809e+06
3.51365e+06
3.50979e+06
3.50661e+06
3.50393e+06
3.5017e+06
3.49986e+06
3.49833e+06
3.49709e+06
3.49608e+06
3.49527e+06
3.49463e+06
3.49415e+06
3.49379e+06
3.49354e+06
3.49338e+06
3.4933e+06
3.49328e+06
3.49331e+06
3.49337e+06
3.49346e+06
3.49357e+06
3.49369e+06
3.49381e+06
3.49393e+06
3.6665e+06
3.61425e+06
3.66858e+06
3.62018e+06
3.66503e+06
3.6244e+06
3.63394e+06
3.61865e+06
3.6143e+06
3.59733e+06
3.57137e+06
3.56297e+06
3.55065e+06
3.54173e+06
3.53328e+06
3.52668e+06
3.52072e+06
3.51585e+06
3.51166e+06
3.50819e+06
3.50527e+06
3.50284e+06
3.50083e+06
3.49916e+06
3.4978e+06
3.49669e+06
3.49579e+06
3.49508e+06
3.49453e+06
3.49411e+06
3.49381e+06
3.4936e+06
3.49348e+06
3.49342e+06
3.49341e+06
3.49345e+06
3.49351e+06
3.4936e+06
3.4937e+06
3.49381e+06
3.49392e+06
3.6902e+06
3.61274e+06
3.69243e+06
3.62189e+06
3.68557e+06
3.63531e+06
3.64478e+06
3.62576e+06
3.621e+06
3.6069e+06
3.58068e+06
3.56963e+06
3.55746e+06
3.547e+06
3.53784e+06
3.53028e+06
3.52371e+06
3.51828e+06
3.51367e+06
3.50985e+06
3.50665e+06
3.50401e+06
3.50181e+06
3.49999e+06
3.4985e+06
3.49729e+06
3.4963e+06
3.49552e+06
3.4949e+06
3.49442e+06
3.49407e+06
3.49381e+06
3.49365e+06
3.49355e+06
3.49351e+06
3.49352e+06
3.49356e+06
3.49363e+06
3.49371e+06
3.49381e+06
3.4939e+06
3.70571e+06
3.61943e+06
3.70738e+06
3.6265e+06
3.69667e+06
3.65137e+06
3.661e+06
3.64324e+06
3.64221e+06
3.62977e+06
3.60009e+06
3.58139e+06
3.56738e+06
3.55387e+06
3.54341e+06
3.53443e+06
3.52706e+06
3.5209e+06
3.5158e+06
3.51158e+06
3.50808e+06
3.50518e+06
3.50279e+06
3.50081e+06
3.49919e+06
3.49787e+06
3.49679e+06
3.49593e+06
3.49524e+06
3.49471e+06
3.49431e+06
3.49401e+06
3.49381e+06
3.49368e+06
3.49361e+06
3.49359e+06
3.49361e+06
3.49366e+06
3.49372e+06
3.4938e+06
3.49389e+06
3.71521e+06
3.64438e+06
3.71508e+06
3.64772e+06
3.70589e+06
3.6784e+06
3.68599e+06
3.67448e+06
3.67845e+06
3.66571e+06
3.629e+06
3.59713e+06
3.58006e+06
3.56193e+06
3.5498e+06
3.53896e+06
3.53066e+06
3.52365e+06
3.51801e+06
3.51333e+06
3.50951e+06
3.50635e+06
3.50375e+06
3.50161e+06
3.49986e+06
3.49842e+06
3.49726e+06
3.49632e+06
3.49557e+06
3.49498e+06
3.49453e+06
3.49419e+06
3.49395e+06
3.49379e+06
3.4937e+06
3.49365e+06
3.49365e+06
3.49368e+06
3.49373e+06
3.4938e+06
3.49388e+06
3.72404e+06
3.69322e+06
3.72279e+06
3.69507e+06
3.71879e+06
3.71368e+06
3.71659e+06
3.71276e+06
3.72173e+06
3.70718e+06
3.66329e+06
3.61299e+06
3.59407e+06
3.57015e+06
3.55651e+06
3.54357e+06
3.53432e+06
3.52641e+06
3.52021e+06
3.51507e+06
3.51091e+06
3.50748e+06
3.50468e+06
3.50238e+06
3.50049e+06
3.49895e+06
3.49769e+06
3.49668e+06
3.49587e+06
3.49523e+06
3.49474e+06
3.49436e+06
3.49409e+06
3.4939e+06
3.49377e+06
3.49371e+06
3.49369e+06
3.4937e+06
3.49374e+06
3.4938e+06
3.49386e+06
3.7582e+06
3.74062e+06
3.69774e+06
3.62531e+06
3.60749e+06
3.57747e+06
3.56294e+06
3.5479e+06
3.53785e+06
3.52904e+06
3.52232e+06
3.51673e+06
3.51225e+06
3.50856e+06
3.50556e+06
3.5031e+06
3.50108e+06
3.49944e+06
3.4981e+06
3.49701e+06
3.49615e+06
3.49546e+06
3.49492e+06
3.49451e+06
3.49421e+06
3.49399e+06
3.49384e+06
3.49376e+06
3.49372e+06
3.49372e+06
3.49374e+06
3.49379e+06
3.49385e+06
3.4539e+06
3.45592e+06
3.45752e+06
3.45873e+06
3.4595e+06
3.4639e+06
3.47566e+06
3.4869e+06
3.49257e+06
3.49432e+06
3.49432e+06
3.49449e+06
3.49482e+06
3.49537e+06
3.49582e+06
3.49627e+06
3.49663e+06
3.49687e+06
3.49698e+06
3.497e+06
3.45062e+06
3.45328e+06
3.45548e+06
3.45716e+06
3.45846e+06
3.45944e+06
3.45992e+06
3.46268e+06
3.47258e+06
3.48448e+06
3.49158e+06
3.49444e+06
3.49465e+06
3.49477e+06
3.49516e+06
3.49571e+06
3.49612e+06
3.49655e+06
3.49688e+06
3.49709e+06
3.49716e+06
3.49714e+06
3.44562e+06
3.44183e+06
3.44619e+06
3.44075e+06
3.44637e+06
3.43711e+06
3.44564e+06
3.4336e+06
3.44583e+06
3.43844e+06
3.44595e+06
3.44508e+06
3.44419e+06
3.44637e+06
3.45046e+06
3.45314e+06
3.4554e+06
3.45717e+06
3.45853e+06
3.45956e+06
3.46032e+06
3.46064e+06
3.46213e+06
3.46979e+06
3.48155e+06
3.49006e+06
3.49403e+06
3.49488e+06
3.49511e+06
3.4955e+06
3.49599e+06
3.4964e+06
3.49682e+06
3.49713e+06
3.4973e+06
3.49734e+06
3.49727e+06
3.45314e+06
3.44998e+06
3.45353e+06
3.44968e+06
3.45331e+06
3.44675e+06
3.45055e+06
3.4399e+06
3.45e+06
3.44578e+06
3.44678e+06
3.44277e+06
3.45253e+06
3.44933e+06
3.44833e+06
3.4502e+06
3.45369e+06
3.45575e+06
3.4576e+06
3.45897e+06
3.46004e+06
3.46082e+06
3.46138e+06
3.46159e+06
3.46221e+06
3.4676e+06
3.47825e+06
3.48772e+06
3.49304e+06
3.49488e+06
3.49537e+06
3.49573e+06
3.49623e+06
3.49667e+06
3.49706e+06
3.49736e+06
3.4975e+06
3.4975e+06
3.49739e+06
3.46227e+06
3.46049e+06
3.46249e+06
3.46109e+06
3.46259e+06
3.45972e+06
3.46012e+06
3.45571e+06
3.45799e+06
3.45621e+06
3.45377e+06
3.45269e+06
3.45883e+06
3.45402e+06
3.45246e+06
3.45419e+06
3.4569e+06
3.45844e+06
3.45987e+06
3.46087e+06
3.46166e+06
3.46222e+06
3.46259e+06
3.46274e+06
3.46285e+06
3.46625e+06
3.47515e+06
3.48492e+06
3.4914e+06
3.49434e+06
3.49543e+06
3.49589e+06
3.49637e+06
3.49689e+06
3.49728e+06
3.49757e+06
3.49769e+06
3.49765e+06
3.4975e+06
3.49729e+06
3.47078e+06
3.47062e+06
3.47072e+06
3.47183e+06
3.47083e+06
3.473e+06
3.46957e+06
3.47641e+06
3.46794e+06
3.46697e+06
3.46061e+06
3.46294e+06
3.46458e+06
3.45899e+06
3.45666e+06
3.45829e+06
3.46013e+06
3.46122e+06
3.4622e+06
3.46286e+06
3.46338e+06
3.46374e+06
3.46396e+06
3.46404e+06
3.46392e+06
3.46577e+06
3.47258e+06
3.48191e+06
3.48925e+06
3.49332e+06
3.49513e+06
3.49593e+06
3.4964e+06
3.49702e+06
3.49743e+06
3.49772e+06
3.49783e+06
3.49776e+06
3.49758e+06
3.49733e+06
3.47626e+06
3.47957e+06
3.47601e+06
3.48115e+06
3.47501e+06
3.48475e+06
3.47334e+06
3.49012e+06
3.47471e+06
3.47499e+06
3.46649e+06
3.47253e+06
3.46987e+06
3.46419e+06
3.46101e+06
3.46245e+06
3.46339e+06
3.46406e+06
3.46459e+06
3.46493e+06
3.46519e+06
3.46536e+06
3.46544e+06
3.46546e+06
3.46528e+06
3.46609e+06
3.47083e+06
3.47903e+06
3.48671e+06
3.49174e+06
3.49435e+06
3.49572e+06
3.49635e+06
3.49699e+06
3.49748e+06
3.49779e+06
3.4979e+06
3.49782e+06
3.49761e+06
3.49734e+06
3.49707e+06
3.48153e+06
3.48739e+06
3.48104e+06
3.489e+06
3.47931e+06
3.49303e+06
3.47461e+06
3.49621e+06
3.47919e+06
3.48117e+06
3.47248e+06
3.48167e+06
3.47546e+06
3.46969e+06
3.46559e+06
3.46665e+06
3.4667e+06
3.46694e+06
3.46702e+06
3.46705e+06
3.46707e+06
3.46706e+06
3.46703e+06
3.46698e+06
3.46681e+06
3.46704e+06
3.47001e+06
3.47665e+06
3.48411e+06
3.48975e+06
3.49314e+06
3.49511e+06
3.49615e+06
3.49682e+06
3.49743e+06
3.49776e+06
3.49788e+06
3.49781e+06
3.49759e+06
3.49731e+06
3.49703e+06
3.48651e+06
3.49402e+06
3.48565e+06
3.49532e+06
3.48315e+06
3.49803e+06
3.47741e+06
3.50071e+06
3.48504e+06
3.48764e+06
3.47961e+06
3.49068e+06
3.48169e+06
3.47534e+06
3.47039e+06
3.47082e+06
3.47004e+06
3.46983e+06
3.46946e+06
3.4692e+06
3.46898e+06
3.46882e+06
3.46868e+06
3.46857e+06
3.46844e+06
3.46841e+06
3.47008e+06
3.475e+06
3.48175e+06
3.48763e+06
3.49162e+06
3.49409e+06
3.49566e+06
3.49656e+06
3.49726e+06
3.49763e+06
3.49779e+06
3.49773e+06
3.49752e+06
3.49724e+06
3.49697e+06
3.49229e+06
3.50073e+06
3.49146e+06
3.50191e+06
3.48856e+06
3.50304e+06
3.48655e+06
3.5057e+06
3.49346e+06
3.4954e+06
3.4881e+06
3.49969e+06
3.48849e+06
3.48099e+06
3.47532e+06
3.47491e+06
3.47339e+06
3.47269e+06
3.47191e+06
3.47137e+06
3.47092e+06
3.4706e+06
3.47037e+06
3.47021e+06
3.4701e+06
3.47002e+06
3.47086e+06
3.47419e+06
3.47981e+06
3.48555e+06
3.48992e+06
3.49281e+06
3.49485e+06
3.49609e+06
3.49691e+06
3.49739e+06
3.4976e+06
3.49757e+06
3.49739e+06
3.49713e+06
3.49687e+06
3.50137e+06
3.50897e+06
3.501e+06
3.51004e+06
3.49869e+06
3.51015e+06
3.49858e+06
3.51152e+06
3.50292e+06
3.50414e+06
3.49764e+06
3.50856e+06
3.49553e+06
3.48649e+06
3.48024e+06
3.47886e+06
3.47668e+06
3.47549e+06
3.47432e+06
3.47351e+06
3.47286e+06
3.47239e+06
3.47207e+06
3.47187e+06
3.47177e+06
3.47173e+06
3.47214e+06
3.47423e+06
3.47854e+06
3.48375e+06
3.48824e+06
3.49146e+06
3.4938e+06
3.49538e+06
3.49637e+06
3.49702e+06
3.49731e+06
3.49734e+06
3.4972e+06
3.49698e+06
3.49674e+06
3.51237e+06
3.51847e+06
3.51274e+06
3.51929e+06
3.5116e+06
3.5191e+06
3.5103e+06
3.51876e+06
3.51291e+06
3.51341e+06
3.50783e+06
3.51711e+06
3.50249e+06
3.4917e+06
3.48501e+06
3.48262e+06
3.47986e+06
3.4782e+06
3.47668e+06
3.47561e+06
3.47476e+06
3.47417e+06
3.47376e+06
3.47352e+06
3.47342e+06
3.47343e+06
3.47369e+06
3.47498e+06
3.47806e+06
3.48246e+06
3.48679e+06
3.4902e+06
3.49271e+06
3.49452e+06
3.49571e+06
3.49652e+06
3.49691e+06
3.49703e+06
3.49696e+06
3.49678e+06
3.49659e+06
3.52425e+06
3.52907e+06
3.5253e+06
3.52974e+06
3.52552e+06
3.52998e+06
3.52538e+06
3.5286e+06
3.52381e+06
3.52272e+06
3.51798e+06
3.52496e+06
3.50896e+06
3.49652e+06
3.48948e+06
3.48612e+06
3.48289e+06
3.48077e+06
3.47894e+06
3.47763e+06
3.47662e+06
3.47591e+06
3.47542e+06
3.47514e+06
3.47504e+06
3.47509e+06
3.47533e+06
3.47617e+06
3.47829e+06
3.48176e+06
3.48568e+06
3.48909e+06
3.49168e+06
3.49365e+06
3.49502e+06
3.49595e+06
3.49645e+06
3.49666e+06
3.49667e+06
3.49656e+06
3.49641e+06
3.53485e+06
3.5378e+06
3.53634e+06
3.53793e+06
3.53814e+06
3.53906e+06
3.54175e+06
3.53828e+06
3.53354e+06
3.53077e+06
3.52694e+06
3.53149e+06
3.51448e+06
3.50079e+06
3.49351e+06
3.48932e+06
3.4857e+06
3.48318e+06
3.48109e+06
3.47957e+06
3.47841e+06
3.47759e+06
3.47703e+06
3.47672e+06
3.4766e+06
3.47667e+06
3.47694e+06
3.47757e+06
3.47904e+06
3.48164e+06
3.48495e+06
3.48817e+06
3.49077e+06
3.49284e+06
3.49434e+06
3.49535e+06
3.49596e+06
3.49626e+06
3.49635e+06
3.49631e+06
3.49622e+06
3.54226e+06
3.54203e+06
3.54395e+06
3.54112e+06
3.54695e+06
3.54208e+06
3.5519e+06
3.54399e+06
3.53997e+06
3.53695e+06
3.5343e+06
3.53662e+06
3.51892e+06
3.5045e+06
3.49707e+06
3.49221e+06
3.48829e+06
3.48543e+06
3.48312e+06
3.48142e+06
3.48012e+06
3.4792e+06
3.47858e+06
3.47823e+06
3.4781e+06
3.47817e+06
3.47846e+06
3.47901e+06
3.48009e+06
3.482e+06
3.48466e+06
3.48752e+06
3.49004e+06
3.49213e+06
3.4937e+06
3.49477e+06
3.49547e+06
3.49585e+06
3.49602e+06
3.49605e+06
3.49602e+06
3.54685e+06
3.54583e+06
3.54857e+06
3.54419e+06
3.5515e+06
3.54235e+06
3.55482e+06
3.54712e+06
3.54396e+06
3.54204e+06
3.54054e+06
3.54083e+06
3.52254e+06
3.50775e+06
3.50018e+06
3.4948e+06
3.49064e+06
3.48749e+06
3.485e+06
3.48315e+06
3.48174e+06
3.48074e+06
3.48006e+06
3.47967e+06
3.47951e+06
3.47959e+06
3.47987e+06
3.48039e+06
3.48127e+06
3.48272e+06
3.48479e+06
3.48722e+06
3.48954e+06
3.49154e+06
3.49312e+06
3.49424e+06
3.49501e+06
3.49546e+06
3.4957e+06
3.49579e+06
3.49582e+06
3.54585e+06
3.54735e+06
3.55068e+06
3.54747e+06
3.55362e+06
3.54449e+06
3.55578e+06
3.55122e+06
3.5476e+06
3.54679e+06
3.54607e+06
3.54453e+06
3.52556e+06
3.51061e+06
3.50291e+06
3.49713e+06
3.49277e+06
3.48939e+06
3.48676e+06
3.48477e+06
3.48327e+06
3.4822e+06
3.48147e+06
3.48103e+06
3.48085e+06
3.4809e+06
3.48118e+06
3.48167e+06
3.48244e+06
3.4836e+06
3.48523e+06
3.48721e+06
3.48926e+06
3.49109e+06
3.49264e+06
3.49378e+06
3.49458e+06
3.49509e+06
3.49539e+06
3.49554e+06
3.49562e+06
3.54882e+06
3.55186e+06
3.55351e+06
3.55214e+06
3.55685e+06
3.55366e+06
3.55877e+06
3.55776e+06
3.55204e+06
3.55124e+06
3.55094e+06
3.54778e+06
3.5281e+06
3.51315e+06
3.50529e+06
3.49921e+06
3.49469e+06
3.49113e+06
3.48838e+06
3.48629e+06
3.48471e+06
3.48358e+06
3.48279e+06
3.48232e+06
3.48211e+06
3.48213e+06
3.48238e+06
3.48284e+06
3.48354e+06
3.48452e+06
3.48582e+06
3.48743e+06
3.48917e+06
3.49082e+06
3.49227e+06
3.4934e+06
3.4942e+06
3.49475e+06
3.4951e+06
3.49531e+06
3.49542e+06
3.55267e+06
3.55836e+06
3.55694e+06
3.55974e+06
3.56186e+06
3.56491e+06
3.56374e+06
3.56424e+06
3.55665e+06
3.55501e+06
3.55495e+06
3.55046e+06
3.5302e+06
3.5154e+06
3.50736e+06
3.50107e+06
3.49642e+06
3.49272e+06
3.48988e+06
3.4877e+06
3.48606e+06
3.48487e+06
3.48404e+06
3.48353e+06
3.48329e+06
3.48328e+06
3.48349e+06
3.48391e+06
3.48454e+06
3.48539e+06
3.48649e+06
3.48781e+06
3.48927e+06
3.49071e+06
3.49201e+06
3.49309e+06
3.49389e+06
3.49446e+06
3.49484e+06
3.49509e+06
3.49524e+06
3.55712e+06
3.56384e+06
3.56065e+06
3.56582e+06
3.5652e+06
3.56945e+06
3.56678e+06
3.56823e+06
3.56058e+06
3.55813e+06
3.55805e+06
3.55262e+06
3.53186e+06
3.51738e+06
3.50915e+06
3.50274e+06
3.49797e+06
3.49416e+06
3.49125e+06
3.48901e+06
3.48732e+06
3.48608e+06
3.48522e+06
3.48467e+06
3.48439e+06
3.48435e+06
3.48451e+06
3.48488e+06
3.48544e+06
3.48619e+06
3.48713e+06
3.48825e+06
3.48947e+06
3.49071e+06
3.49186e+06
3.49286e+06
3.49364e+06
3.49421e+06
3.49461e+06
3.49489e+06
3.49507e+06
3.56174e+06
3.56716e+06
3.565e+06
3.56991e+06
3.56699e+06
3.57018e+06
3.56813e+06
3.57125e+06
3.56425e+06
3.56121e+06
3.56058e+06
3.55448e+06