/*--------------------------------*- C++ -*----------------------------------*\
| =========                 |                                                 |
| \\      /  F ield         | OpenFOAM: The Open Source CFD Toolbox           |
|  \\    /   O peration     | Version:  v2006                                 |
|   \\  /    A nd           | Website:  www.openfoam.com                      |
|    \\/     M anipulation  |                                                 |
\*---------------------------------------------------------------------------*/
FoamFile
{
    version     2.0;
    format      ascii;
    class       volScalarField;
    location    "0.02";
    object      p;
}
// * * * * * * * * * * * * * * * * * * * * * * * * * * * * * * * * * * * * * //

dimensions      [1 -1 -2 0 0 0 0];


internalField   nonuniform List<scalar> 
14347
(
100804
101005
101040
2.00001e+06
2e+06
100160
6642.29
100934
1.99999e+06
2.00002e+06
100950
100176
100708
2.00003e+06
100171
100819
2.00007e+06
2.00007e+06
1.99999e+06
100551
2.00018e+06
2.00017e+06
2e+06
100559
2.00009e+06
100560
100700
2.00017e+06
2.00019e+06
100368
100700
100695
2.0002e+06
100640
2.0002e+06
98158.9
2.00019e+06
2.00019e+06
2.0001e+06
99353.6
100696
100698
100086
2.00013e+06
100698
99722.2
2.00017e+06
100662
2.00019e+06
2.00019e+06
100885
100887
100888
99954.9
100890
100959
2301.81
2.00003e+06
2.00005e+06
2.00004e+06
100806
2.00004e+06
101559
2.00005e+06
2.00003e+06
100878
2.00018e+06
100773
99753.6
100799
2e+06
2.00004e+06
2.00014e+06
101158
101225
2.00013e+06
100732
2.00015e+06
2.00012e+06
100870
100097
100793
2761.87
2481.55
2.00009e+06
2300.29
100777
2.0001e+06
100786
101165
101169
101111
100623
100204
101101
99723.3
101798
3219.01
99170.6
100648
98924.6
100368
99519.3
99604.6
100231
101044
100682
100558
2.00011e+06
100937
100549
95765.9
100449
96242.3
100693
99652.5
100933
99564.3
100538
94931
97810.5
2.00012e+06
99332.6
98958.3
99197.1
99065.3
104324
100680
2.00017e+06
2.00002e+06
100901
100923
93757.8
100512
106492
101176
99373.4
100286
100926
99658.2
99148.1
99282.5
101854
2.00009e+06
99227.1
99653.8
2.00011e+06
2.00015e+06
100517
100451
99653.3
99663.5
101162
100493
99743.8
100948
100446
100661
99743.1
100920
99388.5
94671
2.00016e+06
99735.6
99744.5
99707.2
2.00008e+06
99599.1
99711.4
99688.6
100759
101136
99659.6
2.0001e+06
99708.7
99776.4
99676.7
1.97499e+06
101253
101056
99728.1
100356
100869
99728.1
99741.3
2333.13
99739.8
99655.1
100175
101068
99646.5
2.0001e+06
101539
99654.4
99075.5
100352
101172
99723.4
99670
99786.6
99732.7
99718.7
99780.8
100158
100291
100264
100080
100619
100120
100624
101282
93292.5
99781.6
100385
100625
100625
99657.2
100619
101525
100543
100539
100208
100542
101463
99776.2
99745.7
2.00011e+06
100774
100936
100533
100657
100766
100837
2.00011e+06
100652
99657.3
100615
100644
100866
99618.7
100141
2.00003e+06
100928
100933
99709.6
100405
100927
100798
100608
100467
100812
2.00011e+06
100805
2.0002e+06
100541
100801
100933
99602.5
100815
100466
100924
100809
100612
100555
100828
100935
100858
100819
100671
100662
100849
100881
100631
100937
100711
2.00004e+06
100941
100643
100873
100815
100870
100836
101231
101082
2.00018e+06
100971
2.0001e+06
101748
98408.9
98076
98001.9
2.00011e+06
102194
99483.9
254039
100933
101030
101700
101541
1.99966e+06
2.00005e+06
101610
2.00001e+06
2.00014e+06
97655.5
100938
2.00001e+06
2.00001e+06
-552.641
2e+06
99103.2
2.00002e+06
99734
2.00011e+06
2.00016e+06
98570.6
2.00011e+06
2.00008e+06
2.00012e+06
99777.3
100786
2e+06
2.00001e+06
2.00001e+06
2.00003e+06
100597
2.00012e+06
99399
2.00015e+06
2.00012e+06
2.00001e+06
100661
2.00002e+06
2.00012e+06
99775.4
2.00004e+06
2.00004e+06
2.00007e+06
2.00006e+06
98102.2
2.00007e+06
2.00004e+06
100902
2.00002e+06
2.00004e+06
100836
2.00004e+06
2249.21
2370.06
2565.99
2120.89
94745.1
4389.96
99897.8
2.00019e+06
2.00016e+06
2.00004e+06
2.00019e+06
100618
1.99993e+06
2.00016e+06
2.00018e+06
1.99997e+06
100674
100631
2.00011e+06
99543.4
2.00011e+06
99659.8
2.00008e+06
101216
98633.1
99746.5
1.99996e+06
2.00007e+06
1.99985e+06
2121.13
1.99989e+06
99669.5
100856
2.00017e+06
99673.4
99398.2
100691
2.00018e+06
2.00017e+06
2.00015e+06
2.00018e+06
100614
2.00019e+06
1.99993e+06
2.0002e+06
2e+06
2.00015e+06
101038
100742
101010
2191.76
99567.7
100658
100873
100939
100903
100855
1.99997e+06
101211
101184
91407
100089
100677
100286
100708
101051
99942
99875.3
99706.9
90097.4
99627.7
2306.88
98777.4
98632.2
100648
97511.4
100976
99535
99401.5
100215
100318
99565.9
97828.5
97037.1
81806.8
100605
100292
97654.8
89850.2
83805
99746.7
100370
100472
100273
97137
2.0001e+06
2.00004e+06
100900
100726
2.00004e+06
99466.6
100844
100995
2.00011e+06
100937
99735.2
99717.2
99888
100414
99711.2
100768
100634
100740
100549
99736.6
99742.8
2.00001e+06
99744.8
100784
99700.8
99617.5
99739.9
2e+06
99759.1
99742.9
99760.7
99752.3
100926
99545
98842.4
1.99342e+06
100592
99712.5
99649.3
99709.7
2.00018e+06
99715.6
100830
99583.5
99770.3
99687.9
99779.9
115966
100599
100363
99762.2
100800
99716.7
99720.3
99607.1
99717.3
99723.4
2.0002e+06
2.00007e+06
99612.2
99865.9
100362
100709
100660
99812.5
99877.9
99899.8
99848.2
100285
100925
100212
100237
100369
100362
100464
100627
100681
100628
101366
100553
855382
2328.26
2262.63
2.00006e+06
100437
2.00015e+06
2.0001e+06
100621
100431
2.00019e+06
100630
100930
100834
100715
100649
100952
100906
100593
100650
100652
100629
100636
2.00007e+06
100698
100822
1992.24
100683
100681
100819
100830
100848
1.99973e+06
100727
100824
100833
100821
2.00019e+06
99708.2
100771
100942
100943
100938
2.00007e+06
98995.8
111698
100779
100789
100675
100937
2277.81
99686.7
100798
100769
100863
101381
97988.4
2220.05
100908
100898
100817
100808
1.99995e+06
101035
100829
100940
2.00007e+06
100858
99134.6
100819
2.00007e+06
101376
101418
100556
2.00019e+06
99755.5
99686.3
2.0002e+06
2.00017e+06
100855
2.00004e+06
2.00004e+06
2.00019e+06
99643.7
100841
2.00005e+06
101671
2.00018e+06
100083
101716
1.99124e+06
100413
101797
2.00006e+06
102421
2.00011e+06
2.00014e+06
2.0001e+06
2.0001e+06
99707.5
102330
2.00007e+06
100774
99417.3
100518
1683.91
100774
2.00019e+06
2.00002e+06
2.00003e+06
1.9998e+06
1.99983e+06
2.00019e+06
101115
2.00019e+06
101267
99681
100614
100655
100157
100773
2.00018e+06
2.00019e+06
100474
2.00009e+06
2.00009e+06
99721.5
2.00009e+06
2.00009e+06
2.00009e+06
101475
100745
100466
101521
2.00019e+06
101494
101316
100533
2.00018e+06
100533
101108
100493
245979
99768.4
99673
100382
101717
101736
1.9997e+06
2.00011e+06
100275
1.61087e+06
99493.3
2.00002e+06
100109
100096
2.00013e+06
99474.3
99472.9
100357
2.00007e+06
100947
2.00006e+06
2.00006e+06
2.00007e+06
100370
100151
100277
99601.7
2.00013e+06
100937
99689
100950
99688.7
99721.1
100761
99606.5
99790.8
100684
100148
99778.1
2.0001e+06
99607.7
100400
99807.2
99597.7
99336.2
99718.7
99681.4
99718.9
99641.5
99734.7
99600.5
99711.4
99724.8
100563
2e+06
99769.7
99721.9
100834
99656.4
99572.3
2.0002e+06
99611.2
99668.7
99316
100708
100331
99658.4
2.0001e+06
100819
100743
99741.4
98154.5
99636.8
99736.9
99633.2
99738.1
99773
99658.4
99203.9
100940
100186
99739.3
99740.4
96287.7
100151
100194
99610.4
99609.4
100374
100511
99288.8
100357
100380
100374
96569.8
100415
96103.1
100756
99758.8
100442
99612.2
100350
100395
100567
100837
100669
97667
99602.4
100753
100672
100678
2.00019e+06
99629.7
100693
100354
109314
100665
2.00019e+06
100884
100815
2.00008e+06
100614
2.00011e+06
100806
2.00012e+06
99628
100796
100797
2.00011e+06
100939
100783
2.00018e+06
100894
99881.5
100898
100443
100883
2.00017e+06
99421.7
3323.65
100767
100925
100764
100924
100950
101002
100764
100848
100874
100889
2.00004e+06
100861
99617.3
100874
100865
2.00019e+06
100578
2.00012e+06
100439
100764
2.00012e+06
2.00002e+06
99435.6
99731.8
100937
2.00002e+06
99595.9
2.00001e+06
100836
100646
100498
99586.5
2e+06
99477.5
100935
100652
100299
100931
2.00015e+06
100751
99584.1
100708
99738.1
100632
100870
100312
99623.2
2.00017e+06
100650
2.0002e+06
100610
100669
100689
101432
100828
101289
99611.2
100990
100681
99582.1
100954
100489
100475
101328
100870
101526
100883
101459
100635
100993
99741
99584.1
100657
100888
100589
100422
101984
100579
100705
100664
100588
99701.1
102136
100767
100661
100672
2.00008e+06
101709
101744
1.99999e+06
92383.6
100883
85623.1
100759
99801.8
100907
101761
100466
100630
100637
101036
84860.1
100916
100691
99876
99674.1
94788.6
2.0002e+06
100649
101131
100739
101110
100387
99766
100885
96521
100796
101007
100874
2.00002e+06
100839
100952
2.00001e+06
99514.4
100500
100820
100803
2.00001e+06
100621
101138
2.00002e+06
100196
2.00002e+06
2.00011e+06
99582.4
100679
2.00002e+06
2.00002e+06
2.00019e+06
100875
101578
99582.5
2.00003e+06
100495
99586.5
2.0002e+06
99692.9
2.00006e+06
100923
99580.7
100937
99854.7
100757
100938
2.00015e+06
100935
99805.9
99792
2.00015e+06
99472.5
99694
99725.3
99726.1
99644.5
99616.6
99636.7
2.00016e+06
99281.4
2.00016e+06
100446
99793.4
99624.5
99761
100842
100370
100831
99627.2
99776.6
100206
100196
100194
100898
100932
100201
107237
100424
100408
2e+06
100401
100824
1.99996e+06
2.00006e+06
2.00004e+06
1.99981e+06
100572
99584.6
99379.7
99588.3
100627
99590.2
100059
99657
100705
100050
99527.5
99770.9
100806
99133.4
100913
2.00004e+06
100802
100769
100546
99716.4
99758.2
99712.4
100891
100083
99526.5
100942
99711.7
2e+06
99723.5
100935
2911.92
99722.4
99489.8
100601
100908
100888
2287.05
99694.9
99479.1
99461
99463.9
99791.5
99750.9
100918
99735.5
99587.5
99667.4
99579.5
1884.27
99581.3
2.00017e+06
101434
5666.02
99733.3
100787
99732.2
2.00017e+06
2.00016e+06
99737.7
100016
2.00014e+06
99662.2
2.00004e+06
100026
100005
2.00006e+06
99990.1
99606.6
100018
2.00009e+06
99767.6
100040
100483
1.99819e+06
99755.9
100697
2.00015e+06
100240
100070
100489
100548
99130.9
101040
100632
100479
100759
100916
99760.8
100484
100485
100032
100670
100681
100674
100623
101283
100674
99345.2
100856
100967
99624.1
99637.8
100858
2.00017e+06
100429
100357
100620
100858
100833
100618
101095
99826
100619
100460
97733.2
99058.7
98696.7
99876.3
100534
100621
2.00012e+06
100620
100934
100930
99722.7
100036
100278
100926
100878
100231
2.00007e+06
98631.9
2.00013e+06
2.00013e+06
100744
100437
2.00011e+06
100761
100509
100517
100620
2e+06
100745
2.00002e+06
2.0001e+06
100744
2.00002e+06
100765
2.00005e+06
100697
100552
100861
100074
2.00008e+06
2578.75
99732.5
100787
100062
98827.8
5703.87
100436
99783.8
100538
100895
2.00015e+06
99788.8
100520
100538
100763
100678
99718.2
100064
100649
99725.6
99520.2
2.0002e+06
100765
100555
97024.9
99710.3
100763
99701.1
99678.4
100495
99575.4
100499
100847
100474
100337
100381
100854
99607.7
99504.3
99775.7
96423.1
2.00017e+06
100786
100212
100220
100359
100749
99614
100947
99775.9
99991
100929
2.00008e+06
2.00009e+06
2.00009e+06
100410
99776.2
100374
100863
102233
100571
100022
2.00009e+06
2.00014e+06
100571
100525
99567.1
100643
100631
100802
100638
100723
100807
100711
100724
100705
100811
2.00009e+06
100121
99731.6
100816
2.00004e+06
2.00001e+06
1848.76
100782
2296.3
100120
2.00004e+06
100818
100898
100887
100670
100671
100644
99931.5
100671
99673.8
100351
2.00011e+06
100674
2.00008e+06
2.00009e+06
100933
99670.1
100978
2.00007e+06
2.00015e+06
100820
2.00015e+06
2.00019e+06
100926
2.00019e+06
2.00016e+06
2.0001e+06
99943.5
2.00019e+06
2.00011e+06
2.00011e+06
2.00012e+06
100925
2.00012e+06
100589
100419
2.00014e+06
2.00014e+06
100902
100788
100047
99968.1
100929
100918
99715.7
100779
99916.3
2.00016e+06
99822.9
99756.5
100785
99809.2
99949.8
100875
100435
99975.5
99673.7
99649.3
100630
100956
100239
100928
100276
99619.2
100588
99666.4
100850
100499
99727.8
100221
2.00006e+06
100646
2.0001e+06
100414
100562
100287
100284
100439
2.00013e+06
99645.3
100519
99758.4
99596.6
99724.1
100598
2.00007e+06
99844.5
100460
100357
100857
100600
2.0001e+06
100494
2.00008e+06
100938
96974.3
101164
99697.1
99800.1
99713.6
100596
99550.3
99706.2
100596
99774.5
100647
99644.5
99774.5
99635.5
100645
99878.2
100654
99700
100339
99537.6
99506.1
99805.2
99747.3
99783.1
99666.4
99281.8
100866
100866
99548.4
100868
99623.3
100299
99713.8
100868
2.00007e+06
2.00006e+06
100212
100281
100857
100225
100131
99706.1
100828
99670.5
100445
99533.9
100609
100514
95557.2
99488.2
101036
99650.8
99859.7
100918
100828
100762
100082
100511
100960
100279
100514
100945
2298.95
101049
99709.9
100929
99953.9
100584
100117
100597
100937
101818
1.99993e+06
2.00006e+06
1.88014e+06
100060
100636
100639
2.00012e+06
100711
100086
100531
100733
100726
100797
100407
100776
100789
100794
100902
100741
99527.5
100750
96585.4
100726
100518
99754.6
99758
101034
99450.2
100510
100245
100550
100930
99504.6
99779.9
100634
2.00006e+06
2.00007e+06
99779.4
100062
2.00011e+06
100936
99428.3
2.00005e+06
2e+06
99781.1
2.00004e+06
99785.1
100577
2.00014e+06
2.00015e+06
2.0001e+06
2.00019e+06
100877
2.00012e+06
99760.2
2.00009e+06
2.00008e+06
2.00011e+06
2.00013e+06
2.00007e+06
100943
100930
100935
2.00008e+06
2.00008e+06
2.00002e+06
2.00019e+06
2.00008e+06
2.00019e+06
100789
100786
2.00008e+06
100655
100694
100704
100679
99675.8
99816.1
100580
100517
100426
99653
100389
99789.3
2.00018e+06
99690
99711.8
100597
2.00018e+06
96647.9
100843
100646
99373.6
99300.3
99680.9
2.00019e+06
100382
2.00017e+06
2.00018e+06
2.00004e+06
100912
97123.9
99329.9
101891
95960.9
99524.5
99741.9
99735.7
99446.1
100689
100576
99366
100004
2.0001e+06
99680.8
99755.6
99634.6
2.00007e+06
100506
101649
101862
99845.5
100741
2475.17
100619
100686
100627
99618.1
100778
100511
99632.1
100711
99725
99802.5
100996
101165
99635.2
99732.7
99629.7
99826.1
100678
99709.9
100743
100350
100947
100857
100685
100933
100442
100679
100674
100675
101114
100673
100676
99263.8
100427
1.99997e+06
100196
99499.4
100734
100295
99740.8
99638.5
99641.1
3947.3
2.00001e+06
100325
100925
99638.8
100774
100383
2.00003e+06
100384
100805
2.00018e+06
100373
100622
100628
2.00013e+06
99677.4
2.00017e+06
100747
100357
2.00009e+06
2.0001e+06
100563
100335
100880
100344
99504
100617
99162.4
99413.8
2.0001e+06
100614
99079.1
100649
99728.3
100767
100648
100332
100662
99723.2
100666
100337
100806
99856.9
100653
100804
100131
99691.4
100802
100798
100801
100801
100405
2.00013e+06
99787.6
99643
100869
100904
100689
100806
99673
99691.4
100898
100627
100647
99651.1
2.00014e+06
100677
100876
100873
100928
100939
2.00015e+06
100920
100598
100948
100935
2.00004e+06
100959
2.00014e+06
100948
99689.2
100985
100947
100945
100887
100916
100864
100544
2.00018e+06
2.00014e+06
100756
99624.5
101663
2.00018e+06
100601
99731.3
100885
100336
100959
99740
100536
100790
99742.4
100632
-5265.62
100660
99703.7
94333.9
99730.7
98548.6
100689
99773.2
99626.7
2.00005e+06
99570.2
99518.8
100425
99716.2
100195
2.00005e+06
2.00001e+06
99533.7
2.00007e+06
99661.6
100099
2.00003e+06
100619
100622
100623
2.0002e+06
99680.3
2.00016e+06
100809
2.00017e+06
100616
99754.3
2.00009e+06
2.00003e+06
99846.1
98861.1
99567.1
100883
2.00019e+06
2.00002e+06
99831.8
99244.1
99731
100134
99913.8
99559.4
98520.5
99957.7
99771.3
99446.5
100219
99629.9
98100.1
100850
2.00018e+06
99050.1
100945
2.00018e+06
2.00018e+06
100844
2.00005e+06
2.00018e+06
99628.5
99607.4
100651
100655
100272
2.00006e+06
2.00006e+06
100686
100874
100863
100917
100886
2.00018e+06
99606.7
100188
2.00018e+06
101130
100935
99790.1
100853
2.0002e+06
100244
2.00001e+06
2.00006e+06
2.00004e+06
2.00001e+06
2.00005e+06
100936
5375.26
65899.3
2.00001e+06
99475.5
2.00001e+06
100177
100726
100196
99787.5
100566
101029
101001
101042
99645.9
100829
100015
99558.7
99573
99590.8
99798
99828.9
100281
99841.6
100775
99561.6
100935
99774.9
99582.3
100362
99776.7
100985
99772
99776.5
100803
99741.4
100331
100750
100654
100833
100683
100985
99663.7
100569
2.00011e+06
100610
100932
95096.6
100939
99917.1
2.00012e+06
2.0001e+06
100112
100030
100092
99693.1
100761
100650
101331
99698.2
102132
100544
2.00012e+06
2.00012e+06
100948
101363
100866
100874
2.0001e+06
100871
101147
99576.2
99570.2
100895
100920
2.0001e+06
100455
102202
102217
100647
100874
2.0001e+06
2.00014e+06
100685
99682.6
100296
100101
2.0001e+06
100594
100192
95553.6
100599
2.00016e+06
99758.3
2.00007e+06
100927
100582
1.99999e+06
2.00009e+06
100578
100590
99247.3
2.00016e+06
99144.7
99755.7
96996.2
99756.1
2.00009e+06
2.00011e+06
2.00011e+06
100522
2.00011e+06
2.00017e+06
100659
99759
2.00002e+06
2.00002e+06
1.99999e+06
2.00014e+06
2e+06
2.00014e+06
2e+06
2.00019e+06
99765.4
2.00009e+06
99760
99761
100875
100797
99799.7
2e+06
2.00008e+06
2.00009e+06
99428.2
2.00009e+06
99012.7
98864
99622.3
2.00009e+06
99761.9
99771.2
2.0001e+06
100845
2.0001e+06
100429
99767.9
2.0002e+06
99652.8
2.0002e+06
96905.1
99987
100928
99423.7
95846.4
100286
98844
100683
100706
2230.29
99091.7
100929
99782.2
39469.6
99504.7
95808.5
100931
100912
100940
99041
78366
99788.3
98782.9
99402.4
99577.8
2.00008e+06
2.0001e+06
99782.3
100673
2.00008e+06
99603.5
99769.1
99765.6
99481.3
99763.6
100658
100670
100685
100699
2.00009e+06
99351.8
100858
99647.3
100648
100872
1.99988e+06
100313
100952
100867
100158
100355
100853
100187
100498
97246
100860
100257
100547
100573
100724
99819.7
99784.2
2.00015e+06
100425
99741.5
100947
100719
100714
100105
2.00019e+06
100732
100945
100931
100094
100264
100669
100801
100165
100710
100911
98048.1
100491
100896
101034
100943
100664
100897
100925
100910
100710
101012
100900
100496
100454
2.00003e+06
100925
2.00006e+06
100874
100384
2.00005e+06
100449
100952
100323
100925
99726.4
99769.1
100937
100945
100402
100893
100940
100958
100346
100425
100753
100348
100596
100385
100529
100701
99775.5
100683
99738.7
99736.2
100574
99768.9
101502
100343
100853
100562
100785
2.00016e+06
100431
2.00005e+06
2.00016e+06
2.00016e+06
100114
99971.7
2.00016e+06
99567.1
2775.46
2.00014e+06
2.00016e+06
100252
99758.4
100818
2.00009e+06
2.00001e+06
2.00017e+06
2.00008e+06
2.00002e+06
99751.6
99739.9
99748.5
2.0002e+06
99604.4
100007
100896
99631.5
99530.1
2.00018e+06
101023
100308
2.00015e+06
100437
100315
99625.1
2.00016e+06
101419
99658
99605.9
2.00019e+06
99780.2
100938
100939
99776.8
99395.9
99776.3
2.00019e+06
99445.1
99776.2
99770.2
2.00018e+06
100894
99769
99413.3
99384.8
99680.9
99709.2
99704.3
99680
100333
2.00013e+06
95098.8
2.00018e+06
100169
99683.9
100032
99955.8
99832.3
99744.8
99862.1
2.00012e+06
2.00008e+06
99873.8
2.00004e+06
2.0002e+06
2.00019e+06
99186.4
2.00018e+06
100817
100479
100527
100525
100626
100630
100682
100673
100655
1602.83
100810
100673
99710.2
2e+06
2e+06
2.00018e+06
100935
2.00018e+06
100916
100980
100775
2.00006e+06
100777
100866
100739
100960
100913
100929
2.00003e+06
100652
2.00005e+06
100605
100710
100917
101642
101322
101359
2.00008e+06
100910
98319.7
100708
101635
2.00008e+06
100562
2.00015e+06
100503
100691
100588
100772
101041
100674
99750.3
100764
99728.2
100590
100544
2.00013e+06
2.00002e+06
2.00015e+06
100091
100207
2.00007e+06
99900.5
100587
99776.9
99293.1
100593
100046
100583
100579
99719.4
101732
100523
101184
2.00011e+06
99637.1
99479.1
100919
100775
2.00007e+06
100781
2.00008e+06
100813
2.00011e+06
100933
100916
2.00004e+06
1.99999e+06
100587
2.00001e+06
100923
100491
2.00001e+06
100911
2.00003e+06
2.00008e+06
2.00006e+06
101433
100924
2.00002e+06
100622
2.00008e+06
2.0001e+06
2.00008e+06
100912
99807.8
100578
100765
2.00012e+06
100843
2.00017e+06
100608
97542.1
100768
100860
100598
100321
100542
100769
2.00016e+06
92888.4
27246.4
100325
99743.3
99756.2
100746
99775.2
99770.4
100877
2643.07
100775
100648
100404
100628
100933
100785
99678.6
99690.1
99658.4
98677.7
100050
100286
99701.9
99707.2
99736.2
99651.4
100590
100775
99538.8
99607.6
99666.3
1687.91
99583
100259
99376.8
100087
100382
100010
100357
100396
100478
91718.1
100883
100211
100321
2305.89
100212
100429
100599
100603
100598
100600
100533
2188.35
100258
2422.88
100737
92259
2.0001e+06
2.0001e+06
100704
2.00007e+06
2.00004e+06
2.00007e+06
100947
100183
100261
2.00011e+06
100101
100606
96171.3
100376
100913
100356
94591.7
99792.6
95674.6
95929
100851
100930
96727.8
100916
100848
100799
2.00008e+06
99606.7
100838
100922
99592.4
100925
92706.4
95996.4
99778.9
99706.3
100906
100884
100890
100525
100883
100345
100428
99772.7
100040
2.00009e+06
2.00007e+06
100506
99685.9
99289.5
99714.5
99765.8
99874.1
2.00008e+06
101681
100910
100893
99766.9
99762.6
99761.5
2.00014e+06
2.00015e+06
99699.7
2.00016e+06
100858
100707
2.00014e+06
2.00014e+06
99767.9
2.00017e+06
2.00017e+06
100447
99720
99720.9
2.00004e+06
99732.8
2.00015e+06
2.00005e+06
100975
99715.7
99625.8
2.00013e+06
99720.9
2.00008e+06
2.00009e+06
99620
99773.2
99778.2
99788.9
100779
99749.9
99619.8
101234
100893
99628
99908.2
100551
100559
99893
100562
99952.7
2.00017e+06
99728.2
99654.3
100310
99738.3
99752.8
100824
99661.3
100356
99734.5
100314
99644.3
100555
100558
99899.3
100561
100977
100526
100568
100461
100619
100231
100527
100532
100887
100532
100505
100831
100733
100711
100727
100699
99789.5
99861.9
100702
100684
100595
100778
100922
100914
100952
100768
100920
100916
100918
100797
100943
99799.8
2.00009e+06
100835
100593
100911
2.00012e+06
100592
100760
100802
99671.1
100780
100785
100325
100936
100564
100906
99777.3
99608.2
100631
100700
99610.2
100484
99800.8
99554.8
99199.8
99476.1
2.00011e+06
2.00013e+06
99378.7
99309.6
100732
100728
100735
100927
100530
2.00014e+06
2268.73
100821
2.00001e+06
2.00002e+06
2.00002e+06
2.00002e+06
91953.6
100187
2.00013e+06
1.99975e+06
100808
2.0001e+06
2.00011e+06
2.0001e+06
2.00002e+06
100817
100203
2e+06
2.00006e+06
100203
100505
96444.5
2.00001e+06
100494
97494.9
100500
100538
100531
100207
100527
100471
100903
100478
100471
99967.1
100477
99757.2
97182.1
100807
100462
100908
100894
100479
99737.9
2.00005e+06
100897
99733.6
2.00014e+06
99739.7
100208
99640
99624.9
99639.2
100945
99631.6
99776.1
2.00009e+06
100320
90436.9
100628
100608
100944
100917
100623
100610
100463
100897
100932
100901
2.00007e+06
100967
100932
100913
100324
2.00007e+06
102395
101319
2.00007e+06
100928
1.59954e+06
100835
100859
2.00007e+06
100840
100481
99722.9
99967.4
98068.5
2.00006e+06
100487
94350.2
1.99932e+06
2.00007e+06
2.00013e+06
2.00004e+06
1.99968e+06
2.00009e+06
100509
100502
100500
100506
99818.5
99536.3
100769
100907
99833.1
100914
3616.05
100462
2.00011e+06
100429
1.99998e+06
2.00011e+06
100589
91380.1
100896
2.00004e+06
99640.4
99615.3
2296.32
97438.5
100537
99651.6
2.00011e+06
100371
100764
100777
2.00017e+06
2.00017e+06
100894
100878
100602
2.00017e+06
100773
100645
100640
2298.41
2.00011e+06
100641
100331
100640
100647
100645
100549
100887
100670
100488
99651.8
100875
100478
100483
100665
100659
100783
100558
99751.8
100320
100938
100696
100913
99782.8
2.00012e+06
100306
100895
100818
2.00015e+06
99818
100316
2.00002e+06
2.00015e+06
99780.7
2.00016e+06
2.00016e+06
100832
2.00016e+06
2.00007e+06
99772
100523
100321
100681
99477.7
2.00005e+06
2.00001e+06
2e+06
100693
2e+06
100928
99231.7
98043.9
100627
99483.1
99494.6
100640
2045.74
99491.5
99655.4
2.00001e+06
99447
2.00004e+06
2.00003e+06
97858.8
97366.3
97603.1
2.00003e+06
99587.2
2e+06
99630.9
100811
2321.9
2.00002e+06
2316.68
2.00009e+06
99436.4
99431
2.00016e+06
6135.82
100868
2249.08
2.00004e+06
2.00015e+06
1407.27
2.00017e+06
2.00016e+06
100189
2.00016e+06
99724.9
100383
1.99976e+06
2.00019e+06
99559.7
100055
2.00015e+06
96247.2
2.00003e+06
100700
100905
96238.5
100880
96090.9
100055
100661
100621
100478
100705
99892.8
100744
100634
98870.5
100690
2529.45
96790.3
99761.2
99673.9
100533
100546
99908.1
2.00012e+06
99786.6
99055.5
94179.6
2.00011e+06
100729
2.00011e+06
97934.5
99789.2
99717.6
2.00011e+06
99803.5
100303
99724
100898
99711.5
99842.7
2.00012e+06
99725.6
100786
100911
99883.9
99586.4
99726
100707
2.00013e+06
99570.3
100527
100534
100703
99714.7
100702
100859
100849
100848
100848
100864
100804
99556.2
100423
99647.9
99727.3
100866
99568.2
99622.5
100769
100658
101539
100664
100833
100887
99499
99703.6
99726.8
99498.6
99962.3
100291
99638.2
99806
2.00013e+06
99537.5
100848
100977
101010
101014
101809
99831
100621
100378
98192.7
99777.1
100841
100023
99731.9
99863.6
99995.6
100985
100990
100726
99982.4
100651
100695
100570
100578
100922
100930
101019
97932
100681
2.00003e+06
100848
99729.7
99781.6
100676
99792.8
99807.4
1712.1
99860
99721.9
100654
2493.61
100649
100941
99626.8
99689.8
99744.4
2.00008e+06
100745
100943
2317.92
99774.2
100834
100834
99658.9
2e+06
2277.29
55657.6
99774.6
2237.63
100408
99730.1
99798
100289
2.00013e+06
99809
100842
100842
100430
99742.9
100451
99502.6
100565
100734
100729
100407
99929.7
100026
100556
100919
100916
100922
100945
100865
2.00011e+06
100643
2.00013e+06
2.00015e+06
100645
2.00016e+06
2.00016e+06
2.0001e+06
2.00018e+06
95903.4
2.00015e+06
2.00017e+06
100696
2e+06
100699
1980.19
100694
95350.6
96740.8
100889
99798.4
99648.1
96203.6
99745.1
100708
99641.3
100887
99689.2
98400.5
100936
99730.1
100472
100990
100935
99991.5
100705
99676.7
100717
99725.8
99709
2.00005e+06
2.00006e+06
99759
100720
99780
99774.2
99763.8
100887
100685
100866
100887
100880
100885
99703.5
99693.3
100817
100890
100096
100838
99951.2
100839
99741.9
100384
100818
100156
100808
100884
99833
99687.7
100505
100054
99518.7
101000
100009
100160
100355
100927
100181
100928
100442
100940
99650.7
100715
101001
2.00003e+06
2.00008e+06
2.00006e+06
100986
100244
99958.8
100412
99938.9
100718
100991
2.00009e+06
2.00007e+06
100468
100799
100800
100357
100481
100790
100793
100561
100720
100833
101025
100661
99595.5
100227
100639
100520
100363
100838
100641
100645
100910
100209
100645
100646
2.00007e+06
100743
100103
2.0001e+06
2.00008e+06
100686
2.00013e+06
2.00013e+06
100862
100845
2.00006e+06
2.00013e+06
100803
100099
2.00006e+06
2.00006e+06
100734
100738
2.00011e+06
2.00007e+06
100401
100848
100367
100856
100888
2.00008e+06
2.00012e+06
100490
2.00007e+06
101355
100939
100889
101121
100383
100095
100924
99977.2
100806
100913
100936
2.00018e+06
2.00019e+06
99757
99833.4
99718.4
2.00018e+06
2.0002e+06
2.00003e+06
2.0002e+06
103562
99159.9
2.0002e+06
2.0002e+06
100245
2.00015e+06
2.00015e+06
2.00007e+06
2.00017e+06
97492.7
2.00017e+06
2.00018e+06
99530.6
2.00005e+06
2.00018e+06
99537.1
99396.1
99539.6
82514.9
4026.79
2.00008e+06
100314
100332
2338.74
100482
2.00008e+06
2.00007e+06
2e+06
100365
2.00011e+06
96219.7
2.00012e+06
97108.2
95100.8
99261.7
100157
99836.9
99189.3
99481.1
99883.1
2.00008e+06
2e+06
99806.8
99656.8
99720.3
100762
99753.5
99602.4
100762
99350.8
99770.7
99773.9
99653.8
99596.9
2.00008e+06
99052.2
99771
99785.1
100974
99798.2
99843.4
99770.8
99859.4
100091
101009
99724.6
99795.8
101044
100894
99804.3
99717.8
100262
99936.1
99715.7
99755.4
100825
100917
100549
100368
96465.8
100733
100537
97649.8
100018
99781.3
100079
100865
100504
100614
100636
100933
100964
96540.5
100935
100886
100602
100860
100735
100293
100787
100723
100824
100953
100951
100708
99738.8
99583.7
100953
2.0001e+06
100928
99701.7
99762
99707.3
2.00011e+06
100940
99741.9
100401
99748.5
99718
100647
2262.1
100334
2.00007e+06
100663
2.00017e+06
100357
100327
100854
2.00017e+06
2.00004e+06
101114
2.00004e+06
2.00002e+06
2.00004e+06
100362
101074
99644.4
99485.8
99434.2
99496.1
100711
100939
100836
98018.9
99680.3
2.00012e+06
100793
2.00014e+06
100841
100830
100643
99201.4
100680
100040
99820.6
99260.3
100961
100188
100190
100237
100412
99931.6
100620
99879.6
100923
100628
99884.9
100387
99839.4
99853.3
99119.4
99703.3
99723.7
99254.7
99753
2.00008e+06
99618.8
100517
99900.7
2.00008e+06
99728.2
99792.8
99443.9
99835
100529
99260.2
100540
100396
100523
99738
100504
99734
100576
99848.1
100569
100784
100678
100561
99512.4
100698
101148
100484
99615.1
100293
100791
99829
98892.1
100640
99672.3
100706
100660
99675
99667.9
100941
100789
100648
99677.1
100798
99928.3
99076.7
100801
100648
100649
99754.6
99759
99377.7
98893.4
100704
100891
101210
100887
99670.5
100815
100913
100649
100810
99739.8
100916
100879
100115
100753
100814
100111
100809
100649
100816
100652
99888.8
100373
100328
100650
100370
100138
99204.8
99780.7
100595
100037
100339
100358
99346.6
100629
99924.9
100352
99846.8
99768.5
99763.3
99664.3
100627
100383
99883.7
100639
100335
100957
100949
100647
101033
99863
99977.7
100631
101268
99708.8
99767.4
99785.2
99555.5
2.00006e+06
99708.5
100375
2.00005e+06
97604.3
2.00006e+06
100636
100364
99808.1
99846.5
99517.4
2.00006e+06
99548.4
99566.5
99581.6
100867
2.00014e+06
100319
99558.1
99552.4
99568.7
2.00014e+06
99531
100523
99555
100591
100607
100612
99680.7
100572
100877
100861
99572.3
100691
99708.5
100907
99718.2
100691
99568.2
99914.4
99712
99929.5
99722.4
100679
2.00009e+06
2.00016e+06
2.00005e+06
100680
2.00015e+06
100789
100652
99938.2
99806.8
99802.7
99789
99928
100652
99790.1
99780.6
100708
100433
100430
100407
100430
99832.9
100809
100866
100866
100652
100404
100405
100866
100863
100868
100643
100936
2.00009e+06
2.0001e+06
100808
100643
100841
100892
100422
100806
100419
100810
100824
100932
100941
100805
100933
100813
100927
100893
100948
100938
100937
100942
100804
100562
99744.5
100570
99727.8
99614.7
100892
100893
100657
99626.1
100600
100490
100576
100536
101081
99753.8
101006
96070.6
91595
96270.4
100348
96948
101014
100649
99619.6
101543
99624.9
100924
100567
99641.9
100957
100562
99618.5
98724.8
99446.7
100367
100364
100264
100369
100229
100363
100267
100213
100160
2.0002e+06
2289.69
100555
100559
100921
100883
100859
2264.44
100605
100431
99595.3
99597.9
100632
100727
100754
100740
100750
99588.1
99586.6
99448.7
2.00017e+06
2.00018e+06
100937
100914
2.00005e+06
2.00012e+06
2.00018e+06
100918
2.00019e+06
2.0002e+06
2307.66
99577.2
101081
99584
2.0002e+06
2.00016e+06
2254.24
2.00008e+06
2.00007e+06
2e+06
2.00006e+06
100928
100930
2.00005e+06
2.00007e+06
2.0001e+06
100818
2.00007e+06
100810
2.00002e+06
2e+06
100862
2.00007e+06
2.00009e+06
2678.98
2.0001e+06
100657
99767.1
2.00012e+06
2321.36
100909
2.00014e+06
100810
100876
2.00015e+06
101109
100522
99766.1
100727
2302.29
99618.5
99615.8
99629.1
100952
2260.19
100423
2.00002e+06
2317.68
2.00003e+06
99620.6
2.00003e+06
99711.2
2.00001e+06
100205
96237
100280
97709.1
101653
100237
100230
99563.4
2.00004e+06
2.00006e+06
77401.7
100239
104803
1998.57