/*--------------------------------*- C++ -*----------------------------------*\
| =========                 |                                                 |
| \\      /  F ield         | OpenFOAM: The Open Source CFD Toolbox           |
|  \\    /   O peration     | Version:  v2012                                 |
|   \\  /    A nd           | Website:  www.openfoam.com                      |
|    \\/     M anipulation  |                                                 |
\*---------------------------------------------------------------------------*/
FoamFile
{
    version     2.0;
    format      ascii;
    class       surfaceScalarField;
    location    "0.55";
    object      phi;
}
// * * * * * * * * * * * * * * * * * * * * * * * * * * * * * * * * * * * * * //

dimensions      [0 3 -1 0 0 0 0];
oriented        oriented;


internalField   nonuniform List<scalar> 
6449
(
1.77007e-10
-6.78524e-09
-1.07496e-11
1.33147e-09
-1.81373e-08
1.45972e-11
2.97144e-09
-2.05292e-08
-7.69317e-13
2.9928e-09
-4.80326e-09
1.17213e-12
1.68486e-08
-1.51038e-12
6.73648e-11
-6.90474e-09
-6.30579e-12
8.16076e-10
-1.89151e-08
1.34556e-11
9.5911e-10
-2.09401e-08
1.86191e-12
1.03448e-10
-8.88593e-09
1.05929e-12
2.5838e-09
-1.45722e-12
1.88265e-11
-6.952e-09
-8.43407e-12
1.42215e-09
-2.03412e-08
1.18616e-11
8.12008e-09
-2.76353e-08
-1.15307e-12
4.13929e-09
-2.76884e-08
4.84966e-13
-2.95374e-08
-1.84007e-12
8.36552e-11
-7.0148e-09
-8.55425e-12
9.12909e-10
-2.11894e-08
9.38331e-12
3.1884e-09
-2.99119e-08
-2.18388e-13
4.10312e-09
-2.86689e-08
2.74998e-13
-2.54469e-08
-4.66204e-13
4.57214e-11
-7.03279e-09
-1.5972e-11
3.83805e-10
-2.15663e-08
1.85838e-11
-4.95683e-10
-2.90265e-08
-4.69233e-12
3.57001e-10
-2.95215e-08
-1.35416e-13
-2.50908e-08
-2.26166e-14
-8.2089e-12
-7.01668e-09
-6.54022e-12
2.10998e-10
-2.17936e-08
3.11799e-12
-1.21519e-09
-2.76057e-08
1.02157e-12
-7.24514e-10
-3.00114e-08
-9.75167e-13
-2.58152e-08
4.14123e-13
-8.00916e-10
-7.00781e-09
-6.14399e-12
-8.09431e-10
-2.18015e-08
7.40862e-12
-4.51262e-10
-2.7957e-08
-5.33812e-12
1.77241e-09
-3.22348e-08
-6.00128e-13
-2.40428e-08
8.13195e-14
-5.45942e-10
-7.00011e-09
7.15335e-13
-8.40933e-10
-2.14976e-08
-5.89007e-12
3.70836e-11
-2.88399e-08
1.07822e-12
3.4267e-09
-3.56241e-08
-8.9672e-13
-2.06159e-08
-1.59862e-13
6.1813e-12
-7.00957e-09
-2.07713e-13
-5.19031e-10
-2.0974e-08
-4.7712e-13
5.05184e-10
-2.98588e-08
-3.76862e-12
2.42522e-09
-3.75442e-08
-1.1729e-13
-1.81914e-08
-7.42102e-14
-1.60076e-12
-7.02855e-09
8.81004e-12
-8.45467e-10
-2.01015e-08
-1.51696e-11
1.56102e-09
-3.22742e-08
3.86383e-12
1.95867e-09
-3.79412e-08
-4.42657e-13
-1.62324e-08
2.22565e-13
-7.26622e-12
-7.06014e-09
1.82279e-11
-6.27161e-10
-1.94447e-08
-1.89189e-11
2.6174e-09
-3.55177e-08
-7.26015e-13
2.65413e-09
-3.7977e-08
-2.70543e-13
-1.35778e-08
3.08406e-13
7.70676e-11
-7.13107e-09
-2.91119e-12
2.75658e-10
-1.96455e-08
1.16186e-12
2.00917e-09
-3.72544e-08
1.45379e-12
7.22472e-10
-3.66898e-08
-4.05886e-13
-1.28559e-08
1.40102e-13
2.1041e-11
-7.15824e-09
2.61022e-12
5.98181e-10
-2.02187e-08
-2.13554e-12
-1.7163e-10
-3.64825e-08
-1.47152e-12
-1.63998e-09
-3.52215e-08
-2.52138e-13
-1.44961e-08
5.05667e-14
-9.27682e-11
-7.07243e-09
3.25873e-12
9.08644e-11
-2.03938e-08
-4.61493e-12
-2.57127e-09
-3.38223e-08
8.05776e-13
-2.26998e-09
-3.55232e-08
-2.25319e-13
-1.6766e-08
-2.03808e-14
-3.76366e-10
-6.71723e-09
1.03786e-11
-1.28546e-09
-1.9461e-08
-1.21948e-11
-4.24074e-09
-3.08696e-08
1.32047e-12
-1.86272e-09
-3.79013e-08
-3.32638e-13
-1.86286e-08
-9.57916e-14
-6.34985e-10
-6.07192e-09
-4.64432e-12
-2.86751e-09
-1.72394e-08
5.17858e-12
-5.61717e-09
-2.81191e-08
-3.50199e-13
-4.55962e-09
-3.8959e-08
-2.32937e-13
-2.31883e-08
-2.01499e-13
-1.19889e-09
-4.87071e-09
-1.34386e-12
-4.68566e-09
-1.37564e-08
1.71776e-12
-8.57814e-09
-2.42252e-08
-8.12836e-13
-1.15994e-08
-3.59376e-08
-1.29996e-13
-3.47876e-08
-9.79211e-14
-1.79823e-09
-3.07292e-09
1.29248e-13
-7.04384e-09
-8.51039e-09
-1.70721e-13
-1.69087e-08
-1.436e-08
-1.90166e-13
-3.29784e-08
-1.98681e-08
-5.90478e-14
-4.7618e-08
-2.01474e-08
1.92212e-15
-4.00504e-08
-7.56789e-09
-7.97071e-14
-3.1977e-08
-8.0734e-09
-2.19817e-14
-2.64044e-08
-5.57211e-09
2.76087e-14
-2.18518e-08
-4.55236e-09
2.46493e-14
-1.83637e-08
-3.48838e-09
-6.08743e-14
-1.55353e-08
-2.82854e-09
-3.48276e-14
-1.32806e-08
-2.25472e-09
-8.28841e-15
-1.14272e-08
-1.85346e-09
-1.4556e-14
-9.9072e-09
-1.52003e-09
-5.62743e-15
-8.64044e-09
-1.26689e-09
-1.82453e-14
-7.5794e-09
-1.0607e-09
4.03072e-14
-6.68239e-09
-8.97067e-10
-7.5077e-15
-5.91931e-09
-7.62991e-10
1.19447e-14
-5.26755e-09
-6.51728e-10
4.69508e-15
-4.70692e-09
-5.60609e-10
5.41682e-15
-4.22197e-09
-4.8494e-10
6.29993e-15
-3.80038e-09
-4.2153e-10
9.13706e-15
-3.43183e-09
-3.68512e-10
8.2756e-15
-3.10811e-09
-3.23674e-10
9.32936e-15
-2.8221e-09
-2.85952e-10
6.71197e-15
-2.56806e-09
-2.5399e-10
7.84294e-15
-2.34119e-09
-2.26815e-10
7.32596e-15
-2.13761e-09
-2.03539e-10
7.0244e-15
-1.95399e-09
-1.83589e-10
9.24801e-15
-1.78758e-09
-1.66375e-10
1.48011e-14
-1.51476e-10
-4.32124e-15
-1.04092e-09
-2.03249e-09
1.8506e-13
-3.98482e-09
-5.5662e-09
-1.88957e-13
-9.82528e-09
-8.5192e-09
-2.04518e-13
-1.86974e-08
-1.09961e-08
3.34422e-14
-2.62852e-08
-1.25594e-08
1.90777e-14
-2.45792e-08
-9.27395e-09
-2.6255e-14
-2.39606e-08
-8.69259e-09
-7.07672e-14
-2.28984e-08
-6.63396e-09
8.12205e-15
-2.14993e-08
-5.95141e-09
-1.5975e-14
-2.01517e-08
-4.83634e-09
-6.97013e-14
-1.87428e-08
-4.23763e-09
-4.68138e-14
-1.74139e-08
-3.58353e-09
5.38505e-15
-1.61345e-08
-3.13271e-09
-1.84884e-15
-1.49383e-08
-2.71636e-09
-7.20627e-15
-1.38143e-08
-2.39104e-09
-1.79736e-14
-1.27658e-08
-2.10881e-09
4.20458e-14
-1.17894e-08
-1.87353e-09
-5.31691e-15
-1.08833e-08
-1.66901e-09
1.42055e-14
-1.00437e-08
-1.49125e-09
6.56954e-15
-9.26748e-09
-1.33684e-09
8.13922e-15
-8.55182e-09
-1.2006e-09
9.432e-15
-7.89261e-09
-1.08066e-09
1.24847e-14
-7.28658e-09
-9.74514e-10
1.17906e-14
-6.72941e-09
-8.80789e-10
1.23235e-14
-6.21713e-09
-7.98181e-10
8.85114e-15
-5.74568e-09
-7.25392e-10
1.06476e-14
-5.31124e-09
-6.61185e-10
1.06363e-14
-4.91026e-09
-6.04487e-10
1.03938e-14
-4.53932e-09
-5.54494e-10
1.4956e-14
-4.1954e-09
-5.10275e-10
1.98924e-14
-4.71123e-10
-1.0129e-14
-6.22057e-10
-1.41048e-09
-1.38085e-16
-2.28852e-09
-3.89946e-09
-2.20429e-13
-4.84435e-09
-5.9636e-09
7.6406e-14
-8.46617e-09
-7.3742e-09
-3.38227e-14
-1.3091e-08
-7.9343e-09
7.06794e-14
-1.56065e-08
-6.75861e-09
9.41927e-15
-1.72746e-08
-7.02467e-09
-9.10159e-15
-1.78485e-08
-6.05989e-09
1.94259e-15
-1.80356e-08
-5.76438e-09
-2.04051e-14
-1.78129e-08
-5.05925e-09
-5.86825e-14
-1.74118e-08
-4.63885e-09
-4.1599e-14
-1.68622e-08
-4.1331e-09
-4.04272e-16
-1.62371e-08
-3.75775e-09
-1.15444e-15
-1.55592e-08
-3.3943e-09
-5.19439e-15
-1.48539e-08
-3.09648e-09
-1.49178e-14
-1.41345e-08
-2.8278e-09
4.50068e-14
-1.34143e-08
-2.59382e-09
-3.12784e-15
-1.27007e-08
-2.38251e-09
1.62033e-14
-1.20004e-08
-2.1915e-09
9.44498e-15
-1.13191e-08
-2.01814e-09
1.11006e-14
-1.06607e-08
-1.859e-09
1.24804e-14
-1.00277e-08
-1.71355e-09
1.55077e-14
-9.4222e-09
-1.58001e-09
1.47435e-14
-8.84473e-09
-1.4582e-09
1.41031e-14
-8.2955e-09
-1.34736e-09
1.10349e-14
-7.77395e-09
-1.24689e-09
1.27213e-14
-7.27913e-09
-1.15593e-09
1.26801e-14
-6.80992e-09
-1.07367e-09
1.23757e-14
-6.36483e-09
-9.99551e-10
1.68096e-14
-5.94246e-09
-9.32622e-10
1.86141e-14
-8.72234e-10
-1.22972e-14
-5.54761e-10
-8.54693e-10
-5.18142e-13
-2.07643e-09
-2.37936e-09
7.12072e-13
-4.35609e-09
-3.68332e-09
-3.85167e-13
-7.01903e-09
-4.71142e-09
-1.24564e-14
-9.55273e-09
-5.40052e-09
4.54827e-15
-1.09875e-08
-5.32379e-09
9.88137e-15
-1.2518e-08
-5.49424e-09
-5.48184e-16
-1.34639e-08
-5.11366e-09
3.09196e-14
-1.42274e-08
-5.00074e-09
5.74706e-15
-1.46614e-08
-4.6257e-09
-8.19779e-14
-1.48975e-08
-4.40304e-09
-5.95264e-14
-1.49339e-08
-4.09665e-09
-3.18448e-16
-1.48284e-08
-3.86315e-09
-3.57794e-15
-1.46039e-08
-3.61886e-09
-7.02761e-15
-1.42915e-08
-3.40895e-09
-1.40833e-14
-1.39109e-08
-3.20808e-09
4.12182e-14
-1.34816e-08
-3.02322e-09
-5.48555e-15
-1.30163e-08
-2.84778e-09
1.42901e-14
-1.25266e-08
-2.68114e-09
6.34006e-15
-1.20219e-08
-2.52292e-09
9.13601e-15
-1.15091e-08
-2.37181e-09
1.11402e-14
-1.09938e-08
-2.22871e-09
1.43269e-14
-1.0481e-08
-2.09284e-09
1.44622e-14
-9.9739e-09
-1.96523e-09
1.50005e-14
-9.47537e-09
-1.84583e-09
1.21162e-14
-8.98722e-09
-1.73499e-09
1.38014e-14
-8.51067e-09
-1.6324e-09
1.35943e-14
-8.04659e-09
-1.53772e-09
1.31234e-14
-7.59533e-09
-1.45079e-09
1.70258e-14
-7.15707e-09
-1.37086e-09
1.6722e-14
-1.29753e-09
-1.24902e-14
-2.42234e-10
-6.12728e-10
1.45192e-13
-9.18798e-10
-1.70226e-09
-3.11162e-13
-2.02516e-09
-2.57729e-09
7.93876e-14
-3.54286e-09
-3.19362e-09
-6.85968e-14
-5.36045e-09
-3.58283e-09
-8.9159e-16
-7.02096e-09
-3.66356e-09
-3.94206e-14
-8.63657e-09
-3.87873e-09
-1.28239e-14
-9.93928e-09
-3.81056e-09
3.82566e-14
-1.10566e-08
-3.88306e-09
3.03891e-14
-1.18866e-08
-3.79619e-09
-9.31166e-14
-1.25097e-08
-3.78024e-09
-5.77649e-14
-1.29152e-08
-3.6911e-09
3.37582e-15
-1.31542e-08
-3.62398e-09
-3.96699e-15
-1.32456e-08
-3.52747e-09
-5.13348e-15
-1.3222e-08
-3.43273e-09
-1.13931e-14
-1.31035e-08
-3.32625e-09
4.00962e-14
-1.29116e-08
-3.21519e-09
-3.45527e-15
-1.26605e-08
-3.09875e-09
2.05703e-14
-1.23636e-08
-2.97801e-09
1.34353e-14
-1.20308e-08
-2.85565e-09
1.44085e-14
-1.16704e-08
-2.73226e-09
1.55513e-14
-1.12886e-08
-2.6104e-09
1.83352e-14
-1.08911e-08
-2.49026e-09
1.72248e-14
-1.04824e-08
-2.37388e-09
1.61636e-14
-1.00664e-08
-2.26184e-09
1.36514e-14
-9.64588e-09
-2.15541e-09
1.48474e-14
-9.22336e-09
-2.05485e-09
1.42658e-14
-8.80074e-09
-1.96031e-09
1.3341e-14
-8.37948e-09
-1.87203e-09
1.67745e-14
-7.96082e-09
-1.7895e-09
1.53988e-14
-1.71258e-09
-1.17129e-14
-2.37963e-10
-3.74817e-10
3.76771e-14
-9.04052e-10
-1.03603e-09
-6.13091e-14
-1.90327e-09
-1.57815e-09
4.65082e-15
-3.11067e-09
-1.98621e-09
-6.40482e-14
-4.38517e-09
-2.30835e-09
-1.52784e-14
-5.58537e-09
-2.46334e-09
-1.04214e-14
-6.82243e-09
-2.64206e-09
-5.5162e-14
-7.92163e-09
-2.71074e-09
6.47625e-14
-8.9467e-09
-2.85763e-09
2.66028e-14
-9.80589e-09
-2.93749e-09
-8.3565e-14
-1.05275e-08
-3.05883e-09
-5.16477e-14
-1.1087e-08
-3.13168e-09
-1.65891e-14
-1.15077e-08
-3.20341e-09
-1.95081e-14
-1.1796e-08
-3.23925e-09
-1.25409e-14
-1.19722e-08
-3.25663e-09
-1.74792e-14
-1.20505e-08
-3.24777e-09
3.19422e-14
-1.20474e-08
-3.21844e-09
-1.09513e-14
-1.19746e-08
-3.17154e-09
1.51372e-14
-1.18438e-08
-3.10883e-09
2.53629e-15
-1.1664e-08
-3.03542e-09
5.72698e-15
-1.14434e-08
-2.95296e-09
8.55115e-15
-1.11882e-08
-2.86553e-09
1.32248e-14
-1.09044e-08
-2.77405e-09
1.42234e-14
-1.05968e-08
-2.68145e-09
1.5601e-14
-1.02698e-08
-2.5888e-09
1.30165e-14
-9.92697e-09
-2.49818e-09
1.43796e-14
-9.57126e-09
-2.41049e-09
1.4193e-14
-9.2052e-09
-2.32635e-09
1.30738e-14
-8.83081e-09
-2.24641e-09
1.63478e-14
-8.44992e-09
-2.17038e-09
1.46459e-14
-2.09839e-09
-1.09345e-14
-1.23e-10
-2.51838e-10
1.24451e-14
-4.82096e-10
-6.76886e-10
-2.14053e-14
-1.05021e-09
-1.01008e-09
-1.38295e-15
-1.80517e-09
-1.23121e-09
-1.80765e-14
-2.73052e-09
-1.38299e-09
-1.7691e-14
-3.7431e-09
-1.45088e-09
-3.75533e-14
-4.83037e-09
-1.55521e-09
-5.78205e-14
-5.89144e-09
-1.64899e-09
7.72603e-14
-6.91803e-09
-1.83052e-09
5.59288e-14
-7.84129e-09
-2.01479e-09
-8.22176e-14
-8.65872e-09
-2.24167e-09
-4.57879e-14
-9.34487e-09
-2.44555e-09
-6.90494e-15
-9.90872e-09
-2.6396e-09
-1.30135e-14
-1.03511e-08
-2.79702e-09
-8.77328e-15
-1.06844e-08
-2.92342e-09
-1.53815e-14
-1.09187e-08
-3.01326e-09
3.06161e-14
-1.10674e-08
-3.06997e-09
-1.35632e-14
-1.11401e-08
-3.09878e-09
1.47053e-14
-1.11474e-08
-3.10154e-09
4.71268e-15
-1.10975e-08
-3.08537e-09
8.42498e-15
-1.0998e-08
-3.05248e-09
1.11896e-14
-1.0855e-08
-3.00839e-09
1.58379e-14
-1.06745e-08
-2.95456e-09
1.55569e-14
-1.04611e-08
-2.89479e-09
1.60886e-14
-1.02194e-08
-2.83046e-09
1.38454e-14
-9.95334e-09
-2.76419e-09
1.46987e-14
-9.66611e-09
-2.69765e-09
1.42301e-14
-9.36055e-09
-2.63189e-09
1.29912e-14
-9.03894e-09
-2.568e-09
1.60398e-14
-8.70345e-09
-2.50586e-09
1.41851e-14
-2.44586e-09
-1.00962e-14
-1.11817e-10
-1.40038e-10
9.9391e-15
-4.37631e-10
-3.5104e-10
-1.49719e-14
-9.46465e-10
-5.01258e-10
-1.66563e-14
-1.59471e-09
-5.82995e-10
-3.98851e-14
-2.349e-09
-6.28785e-10
-3.63348e-14
-3.15661e-09
-6.42999e-10
-2.72539e-15
-4.01201e-09
-7.00109e-10
-5.26868e-14
-4.86569e-09
-7.94611e-10
8.2831e-14
-5.71488e-09
-9.80911e-10
5.51412e-14
-6.52033e-09
-1.20985e-09
-6.64398e-14
-7.27264e-09
-1.48954e-09
-2.5845e-14
-7.9491e-09
-1.7692e-09
-9.46415e-15
-8.54549e-09
-2.04328e-09
-1.29134e-14
-9.05446e-09
-2.28819e-09
-1.10156e-14
-9.47706e-09
-2.50103e-09
-2.01481e-14
-9.81479e-09
-2.67537e-09
2.63955e-14
-1.00737e-08
-2.81127e-09
-1.66956e-14
-1.02587e-08
-2.91381e-09
1.04228e-14
-1.03766e-08
-2.98365e-09
8.8748e-16
-1.04337e-08
-3.02838e-09
4.12343e-15
-1.04362e-08
-3.05003e-09
7.84795e-15
-1.03896e-08
-3.05486e-09
1.24318e-14
-1.02995e-08
-3.0447e-09
1.33493e-14
-1.01702e-08
-3.02403e-09
1.5317e-14
-1.00061e-08
-2.99452e-09
1.24862e-14
-9.81122e-09
-2.95903e-09
1.4055e-14
-9.58896e-09
-2.91983e-09
1.37173e-14
-9.34232e-09
-2.87851e-09
1.26206e-14
-9.0737e-09
-2.83661e-09
1.56584e-14
-8.78538e-09
-2.79418e-09
1.42134e-14
-2.75182e-09
-8.68766e-15
-6.95296e-11
-7.04973e-11
-3.33678e-15
-2.76693e-10
-1.43868e-10
-9.61893e-15
-6.13695e-10
-1.64273e-10
6.49701e-15
-1.06174e-09
-1.34959e-10
-2.53092e-14
-1.60384e-09
-8.67874e-11
-3.294e-14
-2.21467e-09
-3.22077e-11
-3.63547e-14
-2.8929e-09
-2.20818e-11
-3.45402e-14
-3.61503e-09
-7.19635e-11
6.90376e-14
-4.37374e-09
-2.21595e-10
7.38014e-14
-5.13913e-09
-4.44925e-10
-5.87162e-14
-5.88852e-09
-7.40157e-10
-8.90799e-15
-6.59534e-09
-1.06253e-09
-1.6739e-14
-7.24446e-09
-1.39419e-09
-1.2243e-14
-7.82325e-09
-1.70951e-09
-1.1104e-14
-8.32622e-09
-1.99822e-09
-1.89479e-14
-8.75064e-09
-2.25069e-09
3.29197e-14
-9.09919e-09
-2.46282e-09
-8.19226e-15
-9.37479e-09
-2.63813e-09
1.76035e-14
-9.58258e-09
-2.77585e-09
7.81995e-15
-9.72774e-09
-2.8832e-09
1.11473e-14
-9.81568e-09
-2.9621e-09
1.32432e-14
-9.85133e-09
-3.01913e-09
1.74217e-14
-9.83949e-09
-3.0565e-09
1.64008e-14
-9.7843e-09
-3.07916e-09
1.67177e-14
-9.68961e-09
-3.08916e-09
1.38701e-14
-9.55923e-09
-3.08935e-09
1.46645e-14
-9.39672e-09
-3.08227e-09
1.3186e-14
-9.20514e-09
-3.07006e-09
1.24619e-14
-8.98697e-09
-3.05477e-09
1.5297e-14
-8.74454e-09
-3.03661e-09
1.45047e-14
-3.01636e-09
-6.75954e-15
-5.73157e-11
-1.31986e-11
1.38023e-14
-2.28746e-10
2.75909e-11
-2.71277e-15
-5.09966e-10
1.16898e-10
6.08895e-16
-8.83608e-10
2.38994e-10
3.16666e-14
-1.3308e-09
3.59973e-10
-4.8148e-14
-1.82914e-09
4.66517e-10
3.1029e-14
-2.37772e-09
5.26292e-10
-2.05048e-14
-2.96397e-09
5.1442e-10
4.02132e-14
-3.59495e-09
4.09527e-10
3.5323e-14
-4.25138e-09
2.11109e-10
-3.47355e-14
-4.91813e-09
-7.34427e-11
2.60793e-15
-5.57334e-09
-4.07436e-10
-2.4287e-15
-6.20076e-09
-7.668e-10
-2.2554e-15
-6.78518e-09
-1.12515e-09
-1.04971e-16
-7.31598e-09
-1.46757e-09
-1.42903e-14
-7.78497e-09
-1.78143e-09
3.46295e-14
-8.18951e-09
-2.05838e-09
-6.09247e-15
-8.52864e-09
-2.29893e-09
1.57079e-14
-8.80409e-09
-2.5004e-09
7.6387e-15
-9.01874e-09
-2.66853e-09
1.04608e-14
-9.17621e-09
-2.80465e-09
1.14301e-14
-9.28032e-09
-2.91495e-09
1.45955e-14
-9.33498e-09
-3.00182e-09
1.42798e-14
-9.34379e-09
-3.07031e-09
1.53273e-14
-9.31011e-09
-3.1228e-09
1.21074e-14
-9.23723e-09
-3.16218e-09
1.34717e-14
-9.12858e-09
-3.19086e-09
1.22587e-14
-8.98726e-09
-3.21136e-09
1.17551e-14
-8.8158e-09
-3.22623e-09
1.44884e-14
-8.61652e-09
-3.23589e-09
1.36184e-14
-3.24128e-09
-7.46755e-15
-3.62274e-11
2.3032e-11
2.02893e-15
-1.42878e-10
1.3425e-10
8.48516e-15
-3.24017e-10
2.98032e-10
1.6831e-14
-5.77584e-10
4.92431e-10
2.05612e-15
-9.01724e-10
6.84172e-10
2.32851e-14
-1.29074e-09
8.55446e-10
-1.98816e-15
-1.74002e-09
9.75461e-10
3.60083e-16
-2.24076e-09
1.01536e-09
3.58398e-14
-2.79121e-09
9.60159e-10
3.56024e-14
-3.38051e-09
8.00064e-10
-2.25108e-14
-3.99856e-09
5.44554e-10
3.55769e-15
-4.62653e-09
2.20517e-10
1.15207e-14
-5.24589e-09
-1.47407e-10
8.47798e-15
-5.83888e-09
-5.32251e-10
-6.67394e-16
-6.39149e-09
-9.15111e-10
-1.07764e-14
-6.89313e-09
-1.27955e-09
3.27394e-14
-7.3388e-09
-1.61282e-09
-6.99431e-15
-7.72566e-09
-1.91201e-09
1.41377e-14
-8.05347e-09
-2.17258e-09
9.29438e-15
-8.32349e-09
-2.39849e-09
1.23628e-14
-8.53781e-09
-2.59034e-09
1.35299e-14
-8.69906e-09
-2.75362e-09
1.68262e-14
-8.8102e-09
-2.89065e-09
1.54696e-14
-8.87415e-09
-3.0063e-09
1.54099e-14
-8.89375e-09
-3.10315e-09
1.22416e-14
-8.87174e-09
-3.18414e-09
1.3214e-14
-8.8112e-09
-3.25133e-09
1.17537e-14
-8.71524e-09
-3.3073e-09
1.11706e-14
-8.58638e-09
-3.35509e-09
1.35665e-14
-8.42692e-09
-3.39536e-09
1.27233e-14
-3.42918e-09
-7.63986e-15
-3.16641e-11
5.47079e-11
-3.36427e-15
-1.23443e-10
2.2603e-10
1.0985e-14
-2.77872e-10
4.52443e-10
1.07607e-14
-4.91396e-10
7.05943e-10
1.10448e-14
-7.65586e-10
9.58238e-10
2.99123e-15
-1.09293e-09
1.18301e-09
3.9522e-14
-1.4718e-09
1.35444e-09
2.57961e-14
-1.89699e-09
1.44081e-09
4.31953e-14
-2.3673e-09
1.43068e-09
3.97106e-14
-2.8775e-09
1.30978e-09
-3.87805e-14
-3.42106e-09
1.08785e-09
-2.03752e-14
-3.98407e-09
7.835e-10
1.16435e-14
-4.5518e-09
4.20302e-10
3.65262e-15
-5.10836e-09
2.42603e-11
5.24266e-15
-5.64082e-09
-3.82766e-10
-6.10964e-15
-6.13831e-09
-7.81872e-10
2.79847e-14
-6.59375e-09
-1.15753e-09
-1.09303e-14
-7.00187e-09
-1.50385e-09
1.08728e-14
-7.36e-09
-1.81451e-09
6.88223e-16
-7.66692e-09
-2.09159e-09
4.43571e-15
-7.92264e-09
-2.33467e-09
5.98723e-15
-8.12803e-09
-2.54818e-09
1.06415e-14
-8.28466e-09
-2.73401e-09
1.10179e-14
-8.3944e-09
-2.89651e-09
1.27814e-14
-8.45934e-09
-3.03818e-09
1.00076e-14
-8.48155e-09
-3.1619e-09
1.13202e-14
-8.46344e-09
-3.26939e-09
1.04728e-14
-8.40789e-09
-3.36284e-09
1.01294e-14
-8.31741e-09
-3.44557e-09
1.23015e-14
-8.19421e-09
-3.51858e-09
1.18419e-14
-3.58297e-09
-7.75638e-15
-2.38017e-11
7.85216e-11
-5.5104e-15
-9.41878e-11
2.96415e-10
2.67104e-15
-2.1546e-10
5.73691e-10
7.91468e-15
-3.87198e-10
8.77798e-10
1.92656e-14
-6.0817e-10
1.17917e-09
2.77338e-15
-8.7259e-10
1.44731e-09
-8.10194e-15
-1.18709e-09
1.66903e-09
1.98109e-14
-1.54694e-09
1.80095e-09
4.59419e-14
-1.95469e-09
1.83894e-09
7.23745e-14
-2.40588e-09
1.76033e-09
-5.59502e-14
-2.89437e-09
1.57609e-09
-1.7632e-14
-3.40787e-09
1.29704e-09
1.80745e-14
-3.9341e-09
9.46484e-10
9.18211e-16
-4.45907e-09
5.49163e-10
3.09126e-15
-4.97112e-09
1.29169e-10
-5.21293e-15
-5.4597e-09
-2.93168e-10
2.12419e-14
-5.91707e-09
-7.00298e-10
-1.06061e-14
-6.33671e-09
-1.08414e-09
1.55206e-14
-6.71458e-09
-1.43666e-09
7.44151e-15
-7.04779e-09
-1.75836e-09
9.98757e-15
-7.33475e-09
-2.04773e-09
1.10086e-14
-7.57481e-09
-2.30805e-09
1.43089e-14
-7.76829e-09
-2.5405e-09
1.26399e-14
-7.916e-09
-2.74875e-09
1.35024e-14
-8.01924e-09
-2.9349e-09
1.02244e-14
-8.07949e-09
-3.10162e-09
1.11839e-14
-8.09846e-09
-3.25036e-09
1.00431e-14
-8.07863e-09
-3.38267e-09
9.43912e-15
-8.0224e-09
-3.5018e-09
1.12213e-14
-7.93189e-09
-3.60911e-09
1.07911e-14
-3.70571e-09
-8.15629e-15
-2.04174e-11
9.89188e-11
1.38794e-14
-8.04105e-11
3.56422e-10
-1.69943e-15
-1.84828e-10
6.78127e-10
-1.36809e-15
-3.37411e-10
1.03043e-09
-1.95477e-15
-5.31662e-10
1.37329e-09
-5.48701e-15
-7.68821e-10
1.68446e-09
2.40971e-15
-1.04902e-09
1.94894e-09
-3.06744e-14
-1.37043e-09
2.12292e-09
6.90788e-14
-1.73109e-09
2.20014e-09
7.3013e-14
-2.12967e-09
2.15822e-09
-6.56742e-14
-2.55941e-09
2.00554e-09
-2.4863e-14
-3.01282e-09
1.75039e-09
6.72183e-15
-3.48188e-09
1.41542e-09
-8.25956e-15
-3.95699e-09
1.0242e-09
3.00825e-15
-4.42936e-09
6.01426e-10
-4.89795e-15
-4.89009e-09
1.67626e-10
1.52551e-14
-5.33166e-09
-2.58914e-10
-1.58431e-14
-5.74674e-09
-6.69005e-10
1.20291e-14
-6.13e-09
-1.05347e-09
-2.60398e-15
-6.47673e-09
-1.41169e-09
6.59925e-16
-6.78362e-09
-1.7409e-09
2.46495e-15
-7.04837e-09
-2.04328e-09
7.92052e-15
-7.26992e-09
-2.31896e-09
8.28285e-15
-7.44788e-09
-2.57076e-09
1.01704e-14
-7.58262e-09
-2.80014e-09
7.57903e-15
-7.67492e-09
-3.0093e-09
8.99704e-15
-7.72582e-09
-3.19942e-09
8.56267e-15
-7.73718e-09
-3.37131e-09
8.30306e-15
-7.71122e-09
-3.52778e-09
9.73903e-15
-7.64993e-09
-3.67042e-09
9.79541e-15
-3.80042e-09
-8.02876e-15
-1.59041e-11
1.14801e-10
1.41758e-14
-6.11817e-11
4.01722e-10
-2.4258e-15
-1.41313e-10
7.58254e-10
1.35697e-14
-2.62528e-10
1.1516e-09
1.70914e-14
-4.27637e-10
1.53856e-09
2.12328e-14
-6.41178e-10
1.89774e-09
-3.07704e-14
-8.93543e-10
2.2009e-09
-4.89821e-14
-1.18514e-09
2.41505e-09
6.36592e-14
-1.50862e-09
2.52423e-09
7.70292e-14
-1.86368e-09
2.5125e-09
-7.65348e-14
-2.244e-09
2.38549e-09
-3.38073e-14
-2.64578e-09
2.15215e-09
9.74936e-15
-3.06523e-09
1.83476e-09
-5.19272e-15
-3.49666e-09
1.45557e-09
4.42109e-15
-3.93385e-09
1.0385e-09
-4.20276e-15
-4.36933e-09
6.03155e-10
1.37402e-14
-4.79579e-09
1.67328e-10
-1.73056e-14
-5.20492e-09
-2.59826e-10
1.12867e-14
-5.59017e-09
-6.683e-10
-1.88016e-15
-5.94555e-09
-1.05636e-09
1.57091e-15
-6.26655e-09
-1.41995e-09
4.75261e-15
-6.54972e-09
-1.76008e-09
9.1401e-15
-6.79297e-09
-2.0757e-09
8.3025e-15
-6.99501e-09
-2.36868e-09
1.03583e-14
-7.15545e-09
-2.63968e-09
7.5364e-15
-7.27442e-09
-2.89031e-09
8.52535e-15
-7.35245e-09
-3.12136e-09
7.9585e-15
-7.39076e-09
-3.33301e-09
7.61588e-15
-7.39126e-09
-3.52729e-09
8.70533e-15
-7.35581e-09
-3.7059e-09
8.76776e-15
-3.87005e-09
-7.86381e-15
-1.38136e-11
1.28596e-10
1.17903e-14
-5.35751e-11
4.41503e-10
-1.62987e-16
-1.25415e-10
8.30099e-10
1.38845e-14
-2.34934e-10
1.26097e-09
6.26499e-15
-3.85724e-10
1.68956e-09
2.26273e-14
-5.79864e-10
2.09183e-09
-1.41279e-14
-8.03468e-10
2.42429e-09
-3.25269e-14
-1.05823e-09
2.67055e-09
8.21623e-14
-1.33887e-09
2.80554e-09
8.39646e-14
-1.64653e-09
2.81956e-09
-5.43546e-14
-1.97753e-09
2.71637e-09
-4.05347e-15
-2.33095e-09
2.5055e-09
9.55272e-15
-2.7055e-09
2.2092e-09
-6.67224e-16
-3.09777e-09
1.84772e-09
1.8824e-15
-3.50276e-09
1.44333e-09
-8.0804e-15
-3.91352e-09
1.01395e-09
1.48461e-14
-4.32266e-09
5.76245e-10
-1.7859e-14
-4.72153e-09
1.39084e-10
9.0381e-15
-5.10294e-09
-2.86959e-10
-1.75586e-15
-5.46031e-09
-6.99036e-10
1.07463e-15
-5.78846e-09
-1.09186e-09
2.83944e-15
-6.08321e-09
-1.46532e-09
6.26705e-15
-6.34165e-09
-1.81727e-09
5.6316e-15
-6.56173e-09
-2.14859e-09
7.75269e-15
-6.74228e-09
-2.45911e-09
5.384e-15
-6.88286e-09
-2.74973e-09
6.57314e-15
-6.98345e-09
-3.02074e-09
6.78737e-15
-7.04469e-09
-3.27179e-09
6.44871e-15
-7.06802e-09
-3.50398e-09
7.93303e-15
-7.05519e-09
-3.71877e-09
8.00883e-15
-3.91747e-09
-7.38226e-15
-1.17857e-11
1.40373e-10
6.7521e-15
-4.66352e-11
4.76355e-10
3.29504e-16
-1.10789e-10
8.94279e-10
1.73061e-14
-2.10202e-10
1.36027e-09
5.4181e-15
-3.46478e-10
1.82607e-09
1.46151e-14
-5.18009e-10
2.26321e-09
-3.59298e-14
-7.09457e-10
2.6157e-09
-1.83827e-14
-9.22867e-10
2.88452e-09
6.00574e-14
-1.15819e-09
3.04156e-09
8.31519e-14
-1.41981e-09
3.08055e-09
-5.96572e-14
-1.70798e-09
3.00447e-09
2.23283e-15
-2.02347e-09
2.82073e-09
-1.6322e-14
-2.36456e-09
2.5502e-09
-1.60767e-16
-2.72796e-09
2.21097e-09
-3.76754e-15
-3.10866e-09
1.82383e-09
-1.40156e-14
-3.49947e-09
1.40489e-09
2.23354e-14
-3.89338e-09
9.69974e-10
-1.50896e-14
-4.28197e-09
5.27715e-10
9.30498e-15
-4.65788e-09
8.88725e-11
-2.49998e-15
-5.01431e-09
-3.4265e-10
7.97293e-16
-5.34571e-09
-7.60511e-10
4.22583e-15
-5.64758e-09
-1.16341e-09
8.17172e-15
-5.91648e-09
-1.54837e-09
7.08031e-15
-6.1498e-09
-1.91524e-09
8.43543e-15
-6.34582e-09
-2.26308e-09
5.68853e-15
-6.50354e-09
-2.59199e-09
6.46774e-15
-6.62254e-09
-2.90171e-09
6.31386e-15
-6.70293e-09
-3.19141e-09
5.93586e-15
-6.7457e-09
-3.46123e-09
7.16482e-15
-6.7524e-09
-3.7121e-09
7.39594e-15
-3.94541e-09
-6.88068e-15
-1.00736e-11
1.50431e-10
1.00157e-14
-3.84933e-11
5.04787e-10
-2.03441e-15
-8.80075e-11
9.43778e-10
3.77211e-15
-1.6313e-10
1.4357e-09
4.80642e-14
-2.71944e-10
1.93431e-09
-6.28949e-14
-4.11044e-10
2.40265e-09
3.30371e-14
-5.75886e-10
2.78034e-09
-3.51297e-14
-7.6067e-10
3.0696e-09
2.77177e-14
-9.6234e-10
3.2435e-09
3.24078e-14
-1.18885e-09
3.30652e-09
-4.94381e-14
-1.44431e-09
3.25991e-09
7.24462e-15
-1.7314e-09
3.10753e-09
-1.71365e-14
-2.048e-09
2.8667e-09
-1.28867e-15
-2.39029e-09
2.55314e-09
2.90831e-17
-2.75275e-09
2.18609e-09
-1.27789e-14
-3.12778e-09
1.78007e-09
2.54674e-14
-3.50845e-09
1.35049e-09
-1.15178e-14
-3.88675e-09
9.06061e-10
1.02292e-14
-4.25554e-09
4.5763e-10
1.66391e-15
-4.60824e-09
1.00264e-11
3.65262e-15
-4.9392e-09
-4.29581e-10
4.27645e-15
-5.24396e-09
-8.58625e-10
6.63038e-15
-5.51884e-09
-1.2735e-09
5.04405e-15
-5.76092e-09
-1.67315e-09
6.34881e-15
-5.96806e-09
-2.05594e-09
3.9108e-15
-6.13882e-09
-2.42123e-09
4.73446e-15
-6.27236e-09
-2.76816e-09
5.39636e-15
-6.36839e-09
-3.0954e-09
5.34576e-15
-6.42743e-09
-3.40223e-09
6.60661e-15
-6.45077e-09
-3.68879e-09
7.09012e-15
-3.95648e-09
-7.41049e-15
-8.33351e-12
1.58761e-10
2.87472e-15
-3.02411e-11
5.26701e-10
2.75949e-15
-6.48234e-11
9.78371e-10
7.52801e-15
-1.13874e-10
1.48459e-09
-9.5715e-15
-1.83407e-10
2.00398e-09
2.57819e-14
-2.77501e-10
2.49664e-09
-6.74294e-15
-4.03007e-10
2.90574e-09
-1.1453e-14
-5.56254e-10
3.22312e-09
3.56843e-14
-7.34685e-10
3.42219e-09
3.58967e-14
-9.42585e-10
3.51405e-09
-2.65272e-14
-1.18083e-09
3.49809e-09
6.96581e-15
-1.45212e-09
3.37867e-09
-9.23878e-16
-1.75375e-09
3.16825e-09
3.9422e-15
-2.08187e-09
2.8811e-09
-1.89951e-15
-2.43061e-09
2.53461e-09
-1.15613e-14
-2.79267e-09
2.14226e-09
2.2503e-14
-3.16136e-09
1.71901e-09
-1.01642e-14
-3.52935e-09
1.27408e-09
9.10813e-15
-3.89002e-09
8.1824e-10
1.51208e-15
-4.23727e-09
3.57253e-10
3.82193e-15
-4.56554e-09
-1.01351e-10
5.40698e-15
-4.87033e-09
-5.53804e-10
7.94658e-15
-5.14792e-09
-9.95917e-10
6.14954e-15
-5.39526e-09
-1.42579e-09
6.30173e-15
-5.60993e-09
-1.84128e-09
4.10383e-15
-5.79015e-09
-2.241e-09
4.47508e-15
-5.93479e-09
-2.62351e-09
4.84442e-15
-6.04323e-09
-2.98698e-09
4.76601e-15
-6.11557e-09
-3.32992e-09
5.8333e-15
-6.15285e-09
-3.65155e-09
6.33103e-15
-3.95313e-09
-7.03968e-15
-7.16908e-12
1.6593e-10
1.67021e-15
-2.54314e-11
5.44965e-10
3.00253e-15
-5.27333e-11
1.00567e-09
3.8486e-15
-8.91783e-11
1.521e-09
2.78108e-15
-1.36241e-10
2.05097e-09
-3.66576e-15
-1.97256e-10
2.55783e-09
3.04234e-14
-2.86816e-10
2.99547e-09
2.99969e-14
-4.08143e-10
3.34461e-09
3.23237e-14
-5.64271e-10
3.57848e-09
2.91657e-14
-7.55507e-10
3.70484e-09
-3.54143e-14
-9.78849e-10
3.72123e-09
-7.56503e-15
-1.23451e-09
3.63422e-09
4.36971e-15
-1.51991e-09
3.45358e-09
4.95096e-15
-1.83131e-09
3.19248e-09
1.30024e-14
-2.1632e-09
2.8664e-09
9.58259e-16
-2.50904e-09
2.48823e-09
2.56706e-14
-2.86242e-09
2.07227e-09
-6.21733e-15
-3.21669e-09
1.6284e-09
1.06713e-14
-3.56572e-09
1.16722e-09
-1.81011e-16
-3.90391e-09
6.95411e-10
9.27882e-16
-4.22592e-09
2.20615e-10
1.25437e-15
-4.52724e-09
-2.52481e-10
4.48166e-15
-4.80404e-09
-7.19137e-10
3.32246e-15
-5.05317e-09
-1.17666e-09
4.41278e-15
-5.27199e-09
-1.62247e-09
1.8805e-15
-5.45844e-09
-2.05456e-09
2.95318e-15
-5.61106e-09
-2.47089e-09
3.6509e-15
-5.72896e-09
-2.8691e-09
3.98647e-15
-5.81187e-09
-3.24705e-09
5.04206e-15
-5.86056e-09
-3.6029e-09
5.42619e-15
-3.93767e-09
-7.35943e-15
-6.21374e-12
1.72145e-10
9.88447e-17
-2.20402e-11
5.60786e-10
1.46973e-15
-4.52235e-11
1.02886e-09
4.9451e-15
-7.69344e-11
1.55278e-09
1.09294e-14
-1.1745e-10
2.09147e-09
-2.70504e-16
-1.67901e-10
2.6082e-09
-5.16207e-15
-2.39218e-10
3.06698e-09
3.22193e-14
-3.37369e-10
3.44291e-09
3.20265e-14
-4.71506e-10
3.71294e-09
4.76025e-14
-6.41788e-10
3.87456e-09
-4.81789e-14
-8.45268e-10
3.92446e-09
-1.46717e-14
-1.08054e-09
3.86946e-09
1.26756e-14
-1.34522e-09
3.71809e-09
-4.37728e-15
-1.6355e-09
3.48266e-09
6.08344e-15
-1.94626e-09
3.17703e-09
-1.76602e-15
-2.2718e-09
2.81379e-09
1.43619e-14
-2.60614e-09
2.40645e-09
-8.34564e-15
-2.94329e-09
1.96556e-09
7.67051e-15
-3.27766e-09
1.50151e-09
-9.44267e-16
-3.60398e-09
1.02167e-09
8.4161e-16
-3.91709e-09
5.33663e-10
2.74822e-15
-4.21237e-09
4.28059e-11
5.42206e-15
-4.48578e-09
-4.45747e-10
4.03079e-15
-4.73399e-09
-9.28448e-10
4.24836e-15
-4.95418e-09
-1.40228e-09
2.49929e-15
-5.14407e-09
-1.86468e-09
3.16637e-15
-5.30193e-09
-2.31303e-09
3.21246e-15
-5.42663e-09
-2.74442e-09
3.53056e-15
-5.51762e-09
-3.1561e-09
4.39659e-15
-5.5754e-09
-3.54516e-09
4.71638e-15
-3.91223e-09
-7.10924e-15
-5.47568e-12
1.77607e-10
8.27405e-15
-1.93144e-11
5.74629e-10
-1.1821e-15
-3.94882e-11
1.04906e-09
6.13365e-16
-6.83198e-11
1.58168e-09
8.46028e-15
-1.06431e-10
2.12946e-09
-1.30203e-14
-1.5672e-10
2.65839e-09
-7.61905e-15
-2.24613e-10
3.1347e-09
-1.13163e-14
-3.14558e-10
3.5332e-09
5.12892e-14
-4.33665e-10
3.83235e-09
4.32242e-14
-5.84951e-10
4.02535e-09
-4.20915e-14
-7.67202e-10
4.10652e-09
-9.34018e-15
-9.79672e-10
4.082e-09
2.46757e-14
-1.22048e-09
3.95884e-09
6.91763e-15
-1.48638e-09
3.7486e-09
2.0888e-14
-1.77283e-09
3.46347e-09
1.35604e-14
-2.07504e-09
3.11607e-09
1.87623e-14
-2.38762e-09
2.71893e-09
-2.68053e-15
-2.7052e-09
2.28318e-09
1.11635e-14
-3.02263e-09
1.8189e-09
5.36852e-16
-3.33485e-09
1.33387e-09
1.07751e-15
-3.63683e-09
8.35595e-10
1.32408e-15
-3.92387e-09
3.29856e-10
3.77189e-15
-4.1917e-09
-1.77936e-10
2.51878e-15
-4.43672e-09
-6.83436e-10
3.22979e-15
-4.65595e-09
-1.18307e-09
8.12353e-16
-4.84689e-09
-1.67376e-09
2.05487e-15
-5.00761e-09
-2.15232e-09
2.38549e-15
-5.1368e-09
-2.61527e-09
2.91742e-15
-5.23365e-09
-3.05928e-09
3.76613e-15
-5.29843e-09
-3.48043e-09
3.93928e-15
-3.87875e-09
-7.04249e-15
-4.67895e-12
1.8228e-10
4.3129e-15
-1.61261e-11
5.86087e-10
5.10799e-16
-3.27285e-11
1.06566e-09
5.58937e-15
-5.6668e-11
1.6055e-09
-4.94598e-15
-9.20858e-11
2.1651e-09
2.89755e-14
-1.43565e-10
2.70964e-09
-2.54563e-14
-2.1244e-10
3.2033e-09
-2.482e-14
-3.01422e-10
3.62248e-09
4.62216e-14
-4.13412e-10
3.94464e-09
4.0891e-14
-5.52162e-10
4.16352e-09
-5.28488e-14
-7.17055e-10
4.2711e-09
-2.20723e-14
-9.08613e-10
4.27365e-09
2.59333e-14
-1.12609e-09
4.17623e-09
4.97924e-15
-1.36748e-09
3.99e-09
1.79358e-14
-1.62915e-09
3.72513e-09
1.16471e-14
-1.90735e-09
3.39428e-09
1.48783e-14
-2.19746e-09
3.00894e-09
-1.7194e-15
-2.49481e-09
2.58054e-09
8.73268e-15
-2.79463e-09
2.11864e-09
-3.14016e-15
-3.09197e-09
1.63114e-09