/*--------------------------------*- C++ -*----------------------------------*\
| =========                 |                                                 |
| \\      /  F ield         | OpenFOAM: The Open Source CFD Toolbox           |
|  \\    /   O peration     | Version:  v2012                                 |
|   \\  /    A nd           | Website:  www.openfoam.com                      |
|    \\/     M anipulation  |                                                 |
\*---------------------------------------------------------------------------*/
FoamFile
{
    version     2.0;
    format      ascii;
    class       volVectorField;
    location    "0.55";
    object      U;
}
// * * * * * * * * * * * * * * * * * * * * * * * * * * * * * * * * * * * * * //

dimensions      [0 1 -1 0 0 0 0];


internalField   nonuniform List<vector> 
2650
(
(-0.0961319 -42.3053 0.00091576)
(1.0272 -35.8145 -0.00892786)
(1.1456 -25.5585 -0.00996169)
(2.21316 -5.86921 -0.0193396)
(0.124484 9.53918 -0.00113498)
(-0.120652 -43.7383 0.0011144)
(0.573779 -37.5276 -0.0049888)
(0.693214 -21.9735 -0.00603147)
(0.440151 -1.67412 -0.00373319)
(-0.430595 9.81467 0.00378665)
(0.133093 -43.8197 -0.0011149)
(-0.330211 -39.1792 0.00289899)
(3.45008 -26.7842 -0.0301062)
(4.89931 -13.7501 -0.042747)
(-1.13896 -8.26281 0.0100356)
(0.100566 -44.3243 -0.000817893)
(0.200938 -42.6274 -0.00175735)
(1.34934 -35.7946 -0.0118)
(2.95681 -25.9087 -0.0258057)
(-0.711684 -21.1895 0.00627174)
(-0.419777 -44.5873 0.00367737)
(0.450839 -43.4377 -0.00396138)
(0.263554 -34.7049 -0.00233503)
(-0.836262 -22.6219 0.00730105)
(1.36004 -13.3866 -0.0119092)
(-0.57115 -44.6247 0.00497975)
(0.76224 -43.7335 -0.00667842)
(-0.483262 -31.8241 0.00417576)
(-0.900778 -22.4881 0.00784349)
(0.416888 -13.9657 -0.00363385)
(-1.21492 -44.3837 0.0105676)
(-1.166 -44.2824 0.0101476)
(-0.772471 -32.0263 0.00669723)
(0.736291 -24.6069 -0.00645042)
(0.645357 -15.8747 -0.00563492)
(-0.957761 -44.4159 0.00832596)
(-0.806281 -43.9313 0.00700197)
(-0.975013 -32.7196 0.00847025)
(1.4314 -26.3797 -0.0125081)
(1.36165 -12.6524 -0.0119196)
(-0.0105697 -44.3799 3.5829e-05)
(-0.00618504 -43.1062 1.02921e-05)
(-0.820472 -33.8352 0.00713928)
(1.37215 -29.4585 -0.0119807)
(0.670097 -11.0408 -0.00586576)
(0.676278 -44.5 -0.00594688)
(-1.16556 -41.6724 0.0101429)
(-0.0429405 -35.2431 0.000371428)
(1.79394 -29.5739 -0.0156637)
(-0.256246 -10.1543 0.00223428)
(1.01662 -44.627 -0.00891244)
(-1.76758 -39.6488 0.015415)
(1.1257 -39.3749 -0.00982244)
(1.70951 -30.1064 -0.0149296)
(0.386276 -8.83034 -0.00338065)
(0.981903 -44.8881 -0.00856529)
(-1.31736 -38.9707 0.0114964)
(2.17925 -42.7063 -0.0190236)
(-0.158285 -29.5605 0.00136814)
(0.790258 -6.92326 -0.00690222)
(0.47241 -45.5394 -0.00413977)
(-0.636581 -40.4853 0.00554867)
(1.78073 -43.4538 -0.0155483)
(-2.15564 -28.1587 0.0188039)
(0.952514 -8.12434 -0.00831362)
(-0.395449 -45.2259 0.00344666)
(0.351278 -41.2522 -0.00307371)
(-0.455893 -40.8024 0.00397402)
(-2.36563 -27.0375 0.0206426)
(0.635927 -8.44607 -0.00554227)
(-1.22979 -44.4603 0.0107268)
(0.390785 -41.3015 -0.00342046)
(-2.95785 -37.5328 0.0258127)
(-1.55424 -29.1252 0.0135642)
(0.0991701 -11.6315 -0.000867172)
(-1.2144 -40.6985 0.0106153)
(-0.90358 -37.3004 0.00787933)
(-4.19853 -33.485 0.0366411)
(-1.85965 -29.7641 0.0162272)
(-1.85153 -8.49363 0.0162079)
(-1.39145 -36.3238 0.01214)
(-3.17742 -32.6126 0.027726)
(-4.82863 -32.1318 0.0421398)
(-4.30936 -32.7917 0.0376099)
(-6.11287 -21.7413 0.0533883)
(-2.00639 -25.4075 0.0175078)
(-4.88111 -22.789 0.042598)
(-7.19407 -23.1705 0.0627816)
(-11.6282 -22.1977 0.101479)
(-16.0521 -15.4454 0.14006)
(-13.1511 -1.41173 0.114826)
(-7.896 -2.25636 0.068929)
(-6.00777 -1.14988 0.0524289)
(-4.04446 -0.754651 0.0352991)
(-3.11637 -0.474417 0.0271969)
(-2.26624 -0.307552 0.0197785)
(-1.7697 -0.20119 0.0154445)
(-1.35536 -0.134197 0.0118289)
(-1.07501 -0.0904436 0.00938213)
(-0.851815 -0.0616793 0.00743441)
(-0.686995 -0.0424837 0.00599593)
(-0.557261 -0.0296085 0.00486374)
(-0.456453 -0.0209051 0.00398397)
(-0.376757 -0.0148335 0.00328842)
(-0.313031 -0.0106597 0.00273225)
(-0.262007 -0.00779466 0.00228693)
(-0.220377 -0.0057496 0.0019236)
(-0.186523 -0.00431875 0.00162812)
(-0.158559 -0.00327464 0.00138406)
(-0.13543 -0.00252175 0.00118214)
(-0.11611 -0.00196558 0.00101351)
(-0.099899 -0.00155177 0.000872022)
(-0.0862038 -0.00123731 0.000752489)
(-0.074579 -0.000996694 0.000651048)
(-0.0646564 -0.000809838 0.000564493)
(-0.0561473 -0.000663656 0.000490022)
(-1.28189 -13.573 0.0111865)
(-2.61884 -11.7509 0.0228532)
(-4.26673 -10.3591 0.0372352)
(-6.68883 -9.66769 0.0583766)
(-8.72816 -9.01069 0.0761771)
(-7.61551 -5.17552 0.0664729)
(-5.41902 -3.51344 0.0473038)
(-4.94583 -2.12301 0.0431699)
(-3.78178 -1.50445 0.033012)
(-3.26606 -0.999042 0.0285086)
(-2.6383 -0.723863 0.0230301)
(-2.23697 -0.513474 0.0195265)
(-1.85951 -0.3806 0.0162321)
(-1.57532 -0.281748 0.0137513)
(-1.32996 -0.21327 0.0116097)
(-1.13168 -0.162554 0.00987879)
(-0.964204 -0.125494 0.00841695)
(-0.824741 -0.0975418 0.00719958)
(-0.707338 -0.0763192 0.00617475)
(-0.608007 -0.0601892 0.00530765)
(-0.524237 -0.0477387 0.0045764)
(-0.452808 -0.0380881 0.00395287)
(-0.392223 -0.0305604 0.00342401)
(-0.340385 -0.0246563 0.00297149)
(-0.296071 -0.0200131 0.0025846)
(-0.257994 -0.0163397 0.00225223)
(-0.225219 -0.0134172 0.00196612)
(-0.196897 -0.0110793 0.00171889)
(-0.17236 -0.00919955 0.00150474)
(-0.151028 -0.0076801 0.00131858)
(-0.132429 -0.00644474 0.0011559)
(-0.782774 -12.1944 0.00683082)
(-1.53923 -10.73 0.0134315)
(-2.39508 -9.25611 0.0209015)
(-2.96299 -7.53177 0.0258593)
(-4.00738 -5.6608 0.0349757)
(-4.28243 -3.32267 0.0373782)
(-3.90798 -2.83053 0.0341107)
(-3.63523 -1.8905 0.0317298)
(-3.13495 -1.5021 0.0273638)
(-2.79905 -1.0848 0.0244316)
(-2.41298 -0.843924 0.0210622)
(-2.12266 -0.638258 0.0185281)
(-1.84346 -0.499299 0.0160914)
(-1.61557 -0.389763 0.0141023)
(-1.41103 -0.309576 0.012317)
(-1.23696 -0.247327 0.0107976)
(-1.08421 -0.199491 0.00946433)
(-0.9519 -0.161766 0.00830943)
(-0.836429 -0.131855 0.0073015)
(-0.735523 -0.107981 0.00642068)
(-0.647648 -0.0887139 0.00565362)
(-0.570542 -0.0731319 0.00498057)
(-0.503261 -0.0604643 0.00439327)
(-0.444189 -0.0501512 0.00387761)
(-0.39243 -0.0417417 0.00342573)
(-0.346931 -0.0348687 0.00302859)
(-0.306915 -0.0292342 0.00267928)
(-0.271639 -0.0246042 0.00237135)
(-0.240499 -0.0207884 0.00209958)
(-0.212954 -0.017634 0.00185915)
(-0.188548 -0.0150165 0.00164577)
(-0.685325 -5.69394 0.00598104)
(-1.39503 -5.06079 0.012174)
(-2.17475 -4.58228 0.0189781)
(-2.64576 -4.13871 0.0230903)
(-3.08271 -3.65438 0.0269055)
(-2.97049 -2.80927 0.0259273)
(-2.79404 -2.31066 0.0243873)
(-2.68169 -1.74631 0.0234065)
(-2.42732 -1.4042 0.0211866)
(-2.25887 -1.08077 0.019716)
(-2.03214 -0.865265 0.0177375)
(-1.8511 -0.683124 0.0161573)
(-1.66215 -0.551776 0.0145084)
(-1.49811 -0.446029 0.0130767)
(-1.34322 -0.365346 0.0117249)
(-1.20525 -0.300834 0.0105206)
(-1.07966 -0.249508 0.00942442)
(-0.967128 -0.207832 0.00844222)
(-0.865993 -0.173772 0.00755944)
(-0.775201 -0.145755 0.00676694)
(-0.694105 -0.122531 0.00605908)
(-0.62124 -0.103242 0.00542305)
(-0.556201 -0.0871584 0.00485534)
(-0.497861 -0.0737423 0.00434608)
(-0.445689 -0.0625407 0.00389061)
(-0.398931 -0.0531798 0.00348249)
(-0.357041 -0.0453434 0.00311682)
(-0.319461 -0.0387749 0.00278879)
(-0.285733 -0.0332577 0.00249442)
(-0.255426 -0.0286132 0.00222987)
(-0.228172 -0.0246924 0.00199165)
(-0.299277 -5.14297 0.00261173)
(-0.609365 -4.55744 0.00531702)
(-0.971477 -3.91992 0.00847662)
(-1.27638 -3.24879 0.011138)
(-1.62164 -2.61536 0.0141527)
(-1.79806 -2.00529 0.015693)
(-1.88221 -1.68732 0.0164278)
(-1.91148 -1.32471 0.0166834)
(-1.8562 -1.11496 0.016201)
(-1.79309 -0.903508 0.0156502)
(-1.68461 -0.759453 0.0147036)
(-1.57908 -0.629756 0.0137827)
(-1.45931 -0.531011 0.0127375)
(-1.34531 -0.446929 0.0117427)
(-1.23211 -0.379043 0.0107548)
(-1.12621 -0.322052 0.00983055)
(-1.02642 -0.274542 0.00895959)
(-0.934175 -0.234452 0.00815445)
(-0.849127 -0.200491 0.00741211)
(-0.770956 -0.171685 0.00672979)
(-0.699661 -0.147151 0.00610749)
(-0.634303 -0.126272 0.00553701)
(-0.574866 -0.108465 0.00501821)
(-0.520579 -0.0932973 0.00454434)
(-0.471194 -0.0803778 0.00411321)
(-0.426203 -0.0693824 0.00372051)
(-0.385256 -0.0600158 0.00336309)
(-0.347965 -0.0520336 0.00303758)
(-0.314007 -0.0452207 0.0027412)
(-0.283069 -0.0393964 0.00247113)
(-0.254877 -0.0344062 0.00222476)
(-0.28255 -2.62714 0.00246642)
(-0.618166 -2.33084 0.00539549)
(-0.932848 -2.04739 0.00813973)
(-1.17675 -1.78589 0.0102689)
(-1.35839 -1.57101 0.0118554)
(-1.43761 -1.32588 0.012547)
(-1.48751 -1.15411 0.0129827)
(-1.51143 -0.973072 0.0131916)
(-1.4911 -0.850099 0.0130142)
(-1.46403 -0.728934 0.0127779)
(-1.40525 -0.638575 0.012265)
(-1.34271 -0.554444 0.0117194)
(-1.26605 -0.485496 0.0110505)
(-1.18833 -0.423683 0.0103723)
(-1.10742 -0.370559 0.00966629)
(-1.02847 -0.323686 0.00897729)
(-0.951508 -0.282677 0.00830555)
(-0.878163 -0.246717 0.00766543)
(-0.808768 -0.215151 0.00705973)
(-0.743413 -0.187589 0.00648929)
(-0.682553 -0.163506 0.00595808)
(-0.625626 -0.142555 0.0054612)
(-0.572928 -0.124318 0.00500124)
(-0.523971 -0.108491 0.00457389)
(-0.478725 -0.094766 0.00417892)
(-0.436894 -0.0828946 0.0038138)
(-0.398287 -0.0726245 0.0034768)
(-0.362656 -0.0637435 0.00316579)
(-0.329794 -0.0560547 0.00287898)
(-0.299488 -0.0493906 0.00261443)
(-0.271548 -0.0436037 0.00237028)
(-0.144807 -2.12548 0.00126389)
(-0.321696 -1.85828 0.00280768)
(-0.506891 -1.59776 0.00442374)
(-0.659043 -1.33139 0.00575123)
(-0.814546 -1.10857 0.00710841)
(-0.931718 -0.899284 0.00813118)
(-1.02982 -0.7661 0.00898786)
(-1.09795 -0.651231 0.00958269)
(-1.13545 -0.586943 0.00990999)
(-1.15239 -0.528514 0.0100579)
(-1.14244 -0.488373 0.00997115)
(-1.11909 -0.447729 0.00976746)
(-1.08015 -0.411449 0.00942785)
(-1.03391 -0.374976 0.00902446)
(-0.980969 -0.340209 0.00856248)
(-0.925566 -0.306708 0.00807896)
(-0.868739 -0.275125 0.007583)
(-0.812341 -0.245822 0.00709081)
(-0.757241 -0.218821 0.00660989)
(-0.703856 -0.194359 0.00614393)
(-0.652998 -0.172284 0.00570004)
(-0.604397 -0.152574 0.00527584)
(-0.558584 -0.135012 0.00487597)
(-0.515291 -0.119456 0.00449808)
(-0.474656 -0.105706 0.00414336)
(-0.43655 -0.0936074 0.00381076)
(-0.400916 -0.0829807 0.00349972)
(-0.367624 -0.0736605 0.00320913)
(-0.336561 -0.0654826 0.00293802)
(-0.307595 -0.0583016 0.00268518)
(-0.28061 -0.0519863 0.00244938)
(-0.13117 -1.06799 0.00114483)
(-0.293264 -0.880147 0.00255944)
(-0.458641 -0.739575 0.00400226)
(-0.591793 -0.607711 0.00516404)
(-0.70848 -0.505829 0.00618258)
(-0.793123 -0.420387 0.00692135)
(-0.859979 -0.374073 0.00750533)
(-0.907431 -0.345295 0.00791993)
(-0.936607 -0.341406 0.0081747)
(-0.95391 -0.340009 0.00832573)
(-0.954423 -0.342356 0.00833024)
(-0.945668 -0.338297 0.00825386)
(-0.925408 -0.329994 0.00807715)
(-0.898305 -0.316117 0.00784074)
(-0.864533 -0.29869 0.00754607)
(-0.826913 -0.278609 0.00721776)
(-0.786263 -0.257147 0.00686301)
(-0.744128 -0.235495 0.00649532)
(-0.701467 -0.214156 0.00612299)
(-0.658777 -0.193881 0.00575039)
(-0.617054 -0.17483 0.00538624)
(-0.576231 -0.157276 0.00502993)
(-0.53699 -0.141203 0.00468744)
(-0.499244 -0.126637 0.00435797)
(-0.46325 -0.113489 0.00404376)
(-0.429003 -0.101697 0.00374485)
(-0.396563 -0.0911668 0.00346169)
(-0.365895 -0.0817939 0.00319401)
(-0.336964 -0.0734568 0.00294152)
(-0.309708 -0.0660401 0.0027036)
(-0.284068 -0.0594357 0.00247956)
(-0.0818293 -0.707673 0.000714172)
(-0.181968 -0.539295 0.00158813)
(-0.294017 -0.418181 0.00256585)
(-0.387914 -0.307022 0.00338491)
(-0.478327 -0.223382 0.00417402)
(-0.548002 -0.15933 0.00478205)
(-0.612095 -0.133131 0.00534193)
(-0.663636 -0.129076 0.00579214)
(-0.706894 -0.150326 0.00616968)
(-0.741222 -0.176612 0.00646927)
(-0.763415 -0.205485 0.00666295)
(-0.775884 -0.227185 0.00677181)
(-0.777032 -0.241691 0.00678193)
(-0.769549 -0.247799 0.00671675)
(-0.753938 -0.247041 0.00658059)
(-0.732427 -0.240633 0.00639291)
(-0.706086 -0.230077 0.00616306)
(-0.676471 -0.217033 0.00590466)
(-0.644743 -0.20236 0.00562779)
(-0.611563 -0.187202 0.00533821)
(-0.578071 -0.17202 0.00504591)
(-0.544377 -0.15737 0.00475183)
(-0.511259 -0.143446 0.00446279)
(-0.478775 -0.130448 0.00417925)
(-0.447268 -0.118416 0.00390421)
(-0.416822 -0.107378 0.00363849)
(-0.387591 -0.0973283 0.00338335)
(-0.359625 -0.0882314 0.00313925)
(-0.332953 -0.0800192 0.00290648)
(-0.307572 -0.0726111 0.00268494)
(-0.283474 -0.0659272 0.00247438)
(-0.0675423 -0.186275 0.000589647)
(-0.149871 -0.0427937 0.00130836)
(-0.24379 0.0377019 0.0021276)
(-0.323006 0.0935395 0.00281899)
(-0.397824 0.120347 0.00347209)
(-0.453564 0.127744 0.00395827)
(-0.504806 0.113921 0.00440598)
(-0.543394 0.0825694 0.00474296)
(-0.580135 0.0354866 0.00506367)
(-0.610426 -0.0170022 0.005328)
(-0.634382 -0.0700645 0.00553699)
(-0.65161 -0.115155 0.0056873)
(-0.660912 -0.150451 0.0057685)
(-0.663181 -0.174924 0.00578837)
(-0.658428 -0.189869 0.00574693)
(-0.647864 -0.196693 0.00565476)
(-0.632132 -0.197022 0.00551751)
(-0.612406 -0.192804 0.00534542)
(-0.589721 -0.185202 0.00514747)
(-0.564666 -0.175639 0.00492881)
(-0.538377 -0.164847 0.00469938)
(-0.511046 -0.153608 0.00446085)
(-0.483487 -0.142316 0.00422032)
(-0.455856 -0.131331 0.00397916)
(-0.428557 -0.120823 0.00374085)
(-0.401744 -0.110907 0.00350685)
(-0.375621 -0.101656 0.00327884)
(-0.350313 -0.0931111 0.00305794)
(-0.325907 -0.0852631 0.00284496)
(-0.302448 -0.0780719 0.00264019)
(-0.279971 -0.0714892 0.00244379)
(-0.0437544 0.0189286 0.000381957)
(-0.0928587 0.154534 0.000810683)
(-0.1532 0.232962 0.00133746)
(-0.207303 0.282883 0.00180971)
(-0.264189 0.299664 0.00230612)
(-0.313663 0.296178 0.00273767)
(-0.362777 0.271873 0.00316643)
(-0.405072 0.228854 0.00353564)
(-0.445146 0.172997 0.00388547)
(-0.479554 0.109301 0.00418575)
(-0.510499 0.04439 0.00445577)
(-0.535599 -0.0142719 0.0046748)
(-0.554261 -0.0636467 0.00483767)
(-0.566264 -0.102131 0.00494247)
(-0.571299 -0.130243 0.00498644)
(-0.570156 -0.148993 0.00497649)
(-0.563394 -0.159684 0.0049175)
(-0.552033 -0.164207 0.00481841)
(-0.537053 -0.163839 0.00468772)
(-0.519037 -0.160155 0.00453049)
(-0.499078 -0.154097 0.00435632)
(-0.477426 -0.14663 0.00416735)
(-0.454894 -0.138327 0.00397071)
(-0.431708 -0.129693 0.00376834)
(-0.40831 -0.121023 0.00356409)
(-0.384908 -0.112527 0.00335986)
(-0.361741 -0.104341 0.00315765)
(-0.33899 -0.0965794 0.00295909)
(-0.316794 -0.0892978 0.00276538)
(-0.295236 -0.0825015 0.00257723)
(-0.27439 -0.0761753 0.00239506)
(-0.0384747 0.2731 0.000335834)
(-0.0807134 0.388277 0.000704613)
(-0.131872 0.455542 0.00115119)
(-0.177032 0.490408 0.00154538)
(-0.224198 0.49514 0.00195716)
(-0.266255 0.477196 0.00232408)
(-0.306583 0.437435 0.00267602)
(-0.342839 0.37939 0.00299245)
(-0.376981 0.309486 0.00329053)
(-0.407252 0.232492 0.0035547)
(-0.435577 0.155298 0.00380187)
(-0.459574 0.0838582 0.00401126)
(-0.479063 0.0214875 0.00418135)
(-0.493349 -0.0298362 0.00430607)
(-0.502033 -0.0700291 0.00438187)
(-0.505514 -0.0997468 0.00441225)
(-0.504048 -0.120093 0.00439947)
(-0.498269 -0.132897 0.0043491)
(-0.488904 -0.139553 0.00426741)
(-0.476352 -0.14173 0.00415788)
(-0.461544 -0.140523 0.00402866)
(-0.44468 -0.137022 0.00388149)
(-0.426509 -0.131943 0.00372291)
(-0.407266 -0.125902 0.00355496)
(-0.387392 -0.119308 0.00338148)
(-0.367127 -0.112463 0.00320462)
(-0.346722 -0.105563 0.00302654)
(-0.326385 -0.0987807 0.00284904)
(-0.3063 -0.0922367 0.00267377)
(-0.286583 -0.0859866 0.00250167)
(-0.267335 -0.0800501 0.00233347)
(-0.028795 0.42062 0.000251296)
(-0.0608779 0.525972 0.00053133)
(-0.101503 0.590624 0.000886012)
(-0.13812 0.619647 0.00120556)
(-0.178237 0.620427 0.00155577)
(-0.211383 0.595096 0.00184498)
(-0.246071 0.551124 0.00214779)
(-0.277807 0.487621 0.0024248)
(-0.309379 0.413205 0.0027005)
(-0.338371 0.330505 0.0029535)
(-0.366424 0.247165 0.00319829)
(-0.391069 0.16796 0.00341334)
(-0.411984 0.0968637 0.00359587)
(-0.428592 0.0361964 0.00374086)
(-0.440409 -0.0132952 0.00384399)
(-0.447644 -0.0518936 0.00390714)
(-0.45042 -0.0804487 0.00393137)
(-0.449141 -0.100605 0.00392026)
(-0.444355 -0.113715 0.00387853)
(-0.436344 -0.121447 0.00380864)
(-0.425895 -0.124967 0.00371746)
(-0.413155 -0.125437 0.00360629)
(-0.398801 -0.123665 0.00348103)
(-0.38306 -0.12035 0.00334364)
(-0.366358 -0.115987 0.00319785)
(-0.348948 -0.110954 0.00304592)
(-0.331097 -0.105506 0.00289012)
(-0.313014 -0.0998605 0.00273231)
(-0.294919 -0.0941945 0.00257441)
(-0.276956 -0.0886168 0.00241762)
(-0.259248 -0.0831828 0.00226287)
(-0.0233361 0.575053 0.0002038)
(-0.0546306 0.672781 0.000477279)
(-0.0833645 0.735355 0.000727258)
(-0.122617 0.759792 0.00106994)
(-0.153133 0.75073 0.00133671)
(-0.187366 0.714978 0.00163534)
(-0.215937 0.664757 0.00188463)
(-0.246766 0.593859 0.00215373)
(-0.273641 0.51341 0.00238849)
(-0.299891 0.424135 0.00261759)
(-0.324037 0.334039 0.00282832)
(-0.345747 0.247201 0.00301777)
(-0.364259 0.168006 0.00317934)
(-0.379704 0.0989598 0.00331417)
(-0.391509 0.0412331 0.0034172)
(-0.399828 -0.0052319 0.00348979)
(-0.404615 -0.0411044 0.00353156)
(-0.406021 -0.0679014 0.00354388)
(-0.404366 -0.0869391 0.00352947)
(-0.399732 -0.0998897 0.00348905)
(-0.392712 -0.107951 0.0034278)
(-0.383354 -0.112326 0.00334615)
(-0.372229 -0.113873 0.00324906)
(-0.359521 -0.113352 0.00313816)
(-0.345621 -0.111317 0.00301683)
(-0.330775 -0.108208 0.00288728)
(-0.315249 -0.104338 0.00275177)
(-0.299251 -0.0999539 0.00261215)
(-0.283012 -0.0952806 0.00247045)
(-0.266701 -0.0904797 0.00232809)
(-0.250459 -0.0856427 0.00218615)
(-0.0182716 0.679254 0.000159575)
(-0.0422795 0.768781 0.000369306)
(-0.0626772 0.832313 0.000547351)
(-0.0950041 0.859924 0.000829752)
(-0.119352 0.847355 0.00104173)
(-0.15513 0.810967 0.00135387)
(-0.181414 0.756616 0.00158324)
(-0.212757 0.682478 0.00185683)
(-0.237514 0.596804 0.00207313)
(-0.262292 0.502514 0.00228941)
(-0.283788 0.406847 0.00247704)
(-0.303419 0.314211 0.00264836)
(-0.320148 0.229063 0.00279437)
(-0.3348 0.153973 0.00292227)
(-0.346751 0.0902362 0.00302657)
(-0.356116 0.0378684 0.00310829)
(-0.362728 -0.00371882 0.00316597)
(-0.366505 -0.0359685 0.00319896)
(-0.36755 -0.0601082 0.00320811)
(-0.365805 -0.077745 0.0031929)
(-0.361712 -0.0900251 0.0031572)
(-0.355257 -0.098136 0.00310087)
(-0.346922 -0.102936 0.00302814)
(-0.336865 -0.10521 0.00294038)
(-0.325441 -0.105546 0.00284066)
(-0.312884 -0.10443 0.00273109)
(-0.299458 -0.102218 0.00261392)
(-0.285369 -0.09919 0.00249097)
(-0.270845 -0.0956005 0.00236423)
(-0.256077 -0.0916604 0.00223534)
(-0.241216 -0.0874982 0.00210546)
(-0.0154278 0.776441 0.000134742)
(-0.0374458 0.855911 0.000327092)
(-0.0544346 0.920402 0.000475412)
(-0.0855999 0.950022 0.000747728)
(-0.106289 0.942212 0.000927572)
(-0.141272 0.907363 0.00123273)
(-0.163171 0.847475 0.00142385)
(-0.191055 0.768482 0.00166732)
(-0.211103 0.675882 0.00184259)
(-0.232313 0.575283 0.0020278)
(-0.250167 0.473554 0.00218367)
(-0.267261 0.375344 0.00233286)
(-0.282145 0.285071 0.00246274)
(-0.295948 0.205043 0.00258321)
(-0.307909 0.136419 0.00268758)
(-0.31799 0.0791498 0.00277553)
(-0.325927 0.0326521 0.00284476)
(-0.331431 -0.00444381 0.00289282)
(-0.334511 -0.0332331 0.00291972)
(-0.334988 -0.055221 0.00292391)
(-0.333207 -0.0714821 0.00290838)
(-0.329113 -0.0831754 0.00287266)
(-0.323099 -0.0911426 0.00282018)
(-0.315298 -0.0961791 0.00275211)
(-0.306019 -0.0988945 0.00267111)
(-0.295479 -0.0998028 0.00257915)
(-0.283929 -0.0992991 0.00247836)
(-0.271571 -0.0976918 0.00237051)
(-0.258618 -0.095255 0.00225749)
(-0.245277 -0.0922408 0.00214106)
(-0.231707 -0.0888156 0.00202246)
(-0.0128054 0.85419 0.000111826)
(-0.0325521 0.929723 0.000284318)
(-0.0474496 0.998547 0.000414442)
(-0.0763492 1.03205 0.000666842)
(-0.0953533 1.02367 0.000831866)
(-0.127032 0.987418 0.00110819)
(-0.144909 0.920153 0.00126433)
(-0.167751 0.836674 0.0014639)
(-0.182946 0.739384 0.00159679)
(-0.200516 0.634921 0.00175026)
(-0.215579 0.529563 0.00188177)
(-0.231316 0.427929 0.00201909)
(-0.24569 0.334394 0.00214454)
(-0.259595 0.25101 0.00226588)
(-0.272247 0.178832 0.00237628)
(-0.283295 0.117763 0.00247266)
(-0.292557 0.0672585 0.00255347)
(-0.299591 0.0260506 0.00261488)
(-0.304407 -0.00683076 0.00265694)
(-0.306758 -0.0327524 0.00267748)
(-0.306907 -0.052695 0.0026788)
(-0.304797 -0.0677624 0.0026604)
(-0.300749 -0.0787669 0.00262508)
(-0.294882 -0.086494 0.00257389)
(-0.287462 -0.0915601 0.00250913)
(-0.278693 -0.0944956 0.00243262)
(-0.268807 -0.095722 0.00234635)
(-0.258005 -0.0955745 0.00225208)
(-0.246481 -0.0943395 0.00215154)
(-0.23445 -0.0922995 0.00204654)
(-0.222076 -0.0896589 0.0019384)
(-0.0114346 0.925773 9.98724e-05)
(-0.0269875 0.996835 0.000235758)
(-0.0390601 1.06864 0.000341033)
(-0.0588316 1.10597 0.00051374)
(-0.0749134 1.10037 0.00065393)
(-0.0994034 1.06187 0.000867361)
(-0.116244 0.986711 0.00101419)
(-0.137891 0.896789 0.0012033)
(-0.151294 0.794454 0.00132053)
(-0.16729 0.686844 0.00146028)
(-0.181204 0.579555 0.00158176)
(-0.196741 0.476078 0.00171733)
(-0.211521 0.380439 0.00184632)
(-0.226186 0.294522 0.0019743)
(-0.239913 0.219406 0.00209407)
(-0.252103 0.154994 0.00220041)
(-0.262653 0.100869 0.00229246)
(-0.271022 0.0558995 0.00236552)
(-0.277278 0.0192258 0.00242015)
(-0.28115 -0.0103797 0.00245396)
(-0.282861 -0.0338056 0.00246891)
(-0.282366 -0.0520838 0.00246461)
(-0.279939 -0.0660067 0.00244343)
(-0.275691 -0.0763439 0.00240637)
(-0.269857 -0.0837147 0.00235544)
(-0.262621 -0.0886586 0.00229232)
(-0.254196 -0.0916159 0.00221881)
(-0.244777 -0.0929449 0.00213661)
(-0.234546 -0.0929428 0.00204734)
(-0.223707 -0.0919105 0.00195276)
(-0.212436 -0.0900891 0.00185425)
(-0.00973082 0.981722 8.49625e-05)
(-0.0218436 1.04474 0.000190752)
(-0.0299004 1.11305 0.000261142)
(-0.0420421 1.15064 0.000367208)
(-0.0511259 1.15016 0.00044643)
(-0.0662667 1.11428 0.000578477)
(-0.0797493 1.04008 0.000696002)
(-0.0981757 0.94772 0.000856864)
(-0.113109 0.841541 0.000987337)
(-0.130567 0.732186 0.00113981)
(-0.145927 0.624136 0.0012739)
(-0.163165 0.520108 0.00142431)
(-0.179417 0.423313 0.00156613)
(-0.195502 0.335583 0.00170651)
(-0.210555 0.258036 0.00183785)
(-0.223967 0.190673 0.00195485)
(-0.235702 0.133258 0.00205724)
(-0.24524 0.0848393 0.00214049)
(-0.252689 0.0446652 0.00220553)
(-0.25782 0.0116415 0.00225033)
(-0.260827 -0.01505 0.00227658)
(-0.261675 -0.0363601 0.00228399)
(-0.260598 -0.0530624 0.00227461)
(-0.257715 -0.0659079 0.00224946)
(-0.25323 -0.0755162 0.00221031)
(-0.247315 -0.0824294 0.00215871)
(-0.240167 -0.0870998 0.00209634)
(-0.231969 -0.0899034 0.0020248)
(-0.222895 -0.0911476 0.00194563)
(-0.213136 -0.0911435 0.00186048)
(-0.202874 -0.0901638 0.00177078)
(-0.00840835 1.03141 7.34089e-05)
(-0.0187195 1.08545 0.000163459)
(-0.0247318 1.14855 0.000215985)
(-0.033662 1.18279 0.000293952)
(-0.0393318 1.18109 0.000343418)
(-0.0475593 1.14671 0.00041528)
(-0.0562863 1.07836 0.000491446)
(-0.0703644 0.989381 0.000614337)
(-0.0847539 0.884431 0.000739936)
(-0.102642 0.775738 0.0008961)
(-0.119114 0.667347 0.00103988)
(-0.137208 0.562844 0.00119776)
(-0.154166 0.464878 0.00134575)
(-0.170841 0.375392 0.00149129)
(-0.186424 0.29548 0.00162725)
(-0.200363 0.225301 0.00174885)
(-0.21267 0.164743 0.00185623)
(-0.222845 0.113054 0.00194502)
(-0.231013 0.0695622 0.00201633)
(-0.236975 0.0333074 0.00206838)
(-0.2409 0.00351369 0.00210265)
(-0.242762 -0.0206934 0.00211891)
(-0.242746 -0.0400591 0.00211878)
(-0.240967 -0.0553176 0.00210326)
(-0.237603 -0.0670915 0.0020739)
(-0.232809 -0.0759247 0.00203208)
(-0.226763 -0.0822781 0.00197933)
(-0.219634 -0.0865408 0.00191713)
(-0.211588 -0.089031 0.00184693)
(-0.202801 -0.0900631 0.00177025)
(-0.193457 -0.0899372 0.00168857)
(-0.00724187 1.07261 6.32148e-05)
(-0.0163037 1.1186 0.000142338)
(-0.0213157 1.17622 0.000186151)
(-0.0287475 1.20792 0.000250985)
(-0.0342665 1.20501 0.000299093)
(-0.040635 1.16979 0.000354748)
(-0.0477058 1.10547 0.000416573)
(-0.0578852 1.02067 0.000505464)
(-0.0702844 0.920497 0.00061366)
(-0.086412 0.814213 0.000754444)
(-0.102022 0.706661 0.000890705)
(-0.119358 0.602143 0.00104197)
(-0.135746 0.50339 0.00118499)
(-0.151947 0.41248 0.00132639)
(-0.16716 0.330534 0.00145913)
(-0.180879 0.257883 0.00157881)
(-0.19313 0.194522 0.00168568)
(-0.203424 0.139896 0.00177552)
(-0.211885 0.093406 0.00184938)
(-0.218323 0.0542149 0.00190558)
(-0.222865 0.0215805 0.00194523)
(-0.225475 -0.00531231 0.00196801)
(-0.226289 -0.0271781 0.00197513)
(-0.225399 -0.0447233 0.00196737)
(-0.22296 -0.0585682 0.00194608)
(-0.21911 -0.0692548 0.00191251)
(-0.214007 -0.0772467 0.00186799)
(-0.207807 -0.0829408 0.00181389)
(-0.200668 -0.0866639 0.00175161)
(-0.192749 -0.0887297 0.00168251)
(-0.184235 -0.0894599 0.00160808)
(-0.00587452 1.11022 5.13225e-05)
(-0.0152131 1.14947 0.00013296)
(-0.0176455 1.20209 0.000153979)
(-0.0260806 1.23267 0.000227612)
(-0.0299452 1.22806 0.000261395)
(-0.0379252 1.19227 0.000331069)
(-0.0446383 1.13035 0.000389744)
(-0.0544295 1.04836 0.000475245)
(-0.0650561 0.952107 0.000567992)
(-0.079043 0.848445 0.000690103)
(-0.0926851 0.742272 0.000809196)
(-0.108232 0.638162 0.000944863)
(-0.123069 0.538973 0.00107436)
(-0.137949 0.44696 0.00120422)
(-0.152075 0.363284 0.00132747)
(-0.164968 0.288493 0.00143995)
(-0.176662 0.222656 0.00154196)
(-0.186661 0.165407 0.00162921)
(-0.195071 0.116218 0.00170262)
(-0.201683 0.0743528 0.00176034)
(-0.206579 0.0391058 0.00180308)
(-0.209701 0.00971609 0.00183033)
(-0.211141 -0.0145021 0.0018429)
(-0.210953 -0.034217 0.00184127)
(-0.209268 -0.0500395 0.00182656)
(-0.206204 -0.0625084 0.00179985)
(-0.201904 -0.072087 0.00176233)
(-0.196506 -0.0791763 0.00171524)
(-0.190162 -0.08411 0.00165989)
(-0.183016 -0.0871981 0.00159754)
(-0.175248 -0.0887784 0.00152963)
(-0.00497322 1.14187 4.34486e-05)
(-0.0130709 1.17455 0.000114191)
(-0.0142651 1.22299 0.000124638)
(-0.0219793 1.25347 0.000192053)
(-0.0246033 1.24934 0.000214762)
(-0.0341678 1.21532 0.000298263)
(-0.0415579 1.15497 0.000362852)
(-0.0521575 1.07501 0.000455394)
(-0.0623408 0.980826 0.00054427)
(-0.075026 0.878993 0.000655028)
(-0.0870317 0.773937 0.000759844)
(-0.100723 0.670318 0.000879326)
(-0.113782 0.570918 0.000993305)
(-0.127034 0.478135 0.00110896)
(-0.139783 0.393112 0.0012202)
(-0.151567 0.316596 0.001323)
(-0.162457 0.248708 0.00141799)
(-0.171941 0.189244 0.00150074)
(-0.180114 0.137729 0.00157208)
(-0.186727 0.0935131 0.0016298)
(-0.191817 0.0559259 0.00167423)
(-0.195289 0.0242604 0.00170454)
(-0.197197 -0.00213646 0.0017212)
(-0.197563 -0.0238916 0.0017244)
(-0.196488 -0.0415907 0.00171501)
(-0.194075 -0.0557642 0.00169398)
(-0.190449 -0.0668712 0.00166235)
(-0.185739 -0.0753121 0.00162126)
(-0.180087 -0.0814258 0.00157195)
(-0.173624 -0.0855176 0.00151556)
(-0.166525 -0.0879349 0.0014535)
(-0.00421246 1.16949 3.68024e-05)
(-0.0120825 1.19582 0.000105543)
(-0.0128818 1.2404 0.00011256)
(-0.0209663 1.26999 0.000183247)
(-0.0226455 1.26944 0.000197647)
(-0.0327944 1.23865 0.000286237)
(-0.0395522 1.18031 0.000345328)
(-0.0497552 1.10199 0.00043441)
(-0.0591322 1.00869 0.000516246)
(-0.0706695 0.90771 0.000616985)
(-0.0812998 0.803009 0.000709804)
(-0.0934427 0.699561 0.000815787)
(-0.105033 0.599885 0.000916954)
(-0.116883 0.506502 0.00102038)
(-0.128464 0.420402 0.00112143)
(-0.139287 0.342498 0.00121583)
(-0.149494 0.27292 0.00130486)
(-0.158537 0.211586 0.00138376)
(-0.166503 0.15806 0.00145328)
(-0.173094 0.111759 0.00151081)
(-0.178319 0.0720577 0.00155642)
(-0.182055 0.0383009 0.00158903)
(-0.184327 0.00987774 0.00160887)
(-0.185139 -0.0137998 0.00161595)
(-0.18456 -0.0332817 0.00161091)
(-0.182686 -0.0490838 0.00159456)
(-0.179627 -0.061659 0.00156789)
(-0.175503 -0.0714042 0.00153191)
(-0.170449 -0.0786611 0.00148782)
(-0.16459 -0.0837317 0.0014367)
(-0.158088 -0.0869672 0.00137985)
(-0.00370503 1.19488 3.23636e-05)
(-0.0112666 1.21725 9.84053e-05)
(-0.0122621 1.25956 0.000107149)
(-0.020491 1.28865 0.000179056)
(-0.0222466 1.28895 0.000194069)
(-0.0315117 1.26066 0.000274934)
(-0.0372718 1.20264 0.000325377)
(-0.0462159 1.12589 0.000403516)
(-0.0540732 1.03357 0.000472097)
(-0.0639945 0.933445 0.000558727)
(-0.0734085 0.82915 0.00064093)
(-0.084364 0.725945 0.000736553)
(-0.0951203 0.626153 0.000830436)
(-0.106116 0.532377 0.000926404)
(-0.117081 0.445477 0.00102207)
(-0.127365 0.366486 0.00111177)
(-0.137228 0.295532 0.0011978)
(-0.146054 0.232616 0.0012748)
(-0.153952 0.177334 0.00134373)
(-0.160582 0.129164 0.0014016)
(-0.165943 0.0875301 0.00144839)
(-0.1699 0.0518356 0.00148293)
(-0.172462 0.0215162 0.0015053)
(-0.173628 -0.00397708 0.00151548)
(-0.173451 -0.0251571 0.00151393)
(-0.172014 -0.0425165 0.00150141)
(-0.169425 -0.0565005 0.00147883)
(-0.165795 -0.0675007 0.00144717)
(-0.161256 -0.0758599 0.00140757)
(-0.155924 -0.0818789 0.00136105)
(-0.149954 -0.0859086 0.00130886)
(-0.00331316 1.2179 2.89516e-05)
(-0.00981326 1.23647 8.57274e-05)
(-0.01025 1.27657 8.95306e-05)
(-0.0164123 1.30518 0.000143363)
(-0.0168907 1.30734 0.000147524)
(-0.0255415 1.28069 0.000223041)
(-0.0298712 1.22305 0.000260696)
(-0.0382742 1.1471 0.000334129)
(-0.0453306 1.05484 0.000395761)
(-0.0542596 0.955879 0.000473744)
(-0.0630852 0.852512 0.000550816)
(-0.0735388 0.750087 0.000642059)
(-0.0841389 0.650498 0.000734573)
(-0.0948929 0.556549 0.000828431)
(-0.105772 0.469057 0.000923347)
(-0.115932 0.389154 0.00101197)
(-0.125761 0.317006 0.00109771)
(-0.134566 0.252664 0.00117453)
(-0.142497 0.195767 0.00124375)
(-0.149188 0.145854 0.00130215)
(-0.154657 0.102405 0.00134989)
(-0.158774 0.0648813 0.00138582)
(-0.161548 0.0327655 0.00141004)
(-0.162979 0.00554713 0.00142253)
(-0.163114 -0.0172549 0.00142371)
(-0.162027 -0.0361047 0.00141424)
(-0.159822 -0.0514384 0.00139501)
(-0.156605 -0.0636428 0.00136695)
(-0.152504 -0.0730605 0.00133118)
(-0.147633 -0.0799928 0.00128868)
(-0.142136 -0.0847881 0.00124061)
(-0.0029324 1.23739 2.56127e-05)
(-0.00836478 1.25165 7.30569e-05)
(-0.0081968 1.28774 7.1626e-05)
(-0.0119633 1.31485 0.000104524)
(-0.0109845 1.31884 9.59921e-05)