/*--------------------------------*- C++ -*----------------------------------*\
| =========                 |                                                 |
| \\      /  F ield         | OpenFOAM: The Open Source CFD Toolbox           |
|  \\    /   O peration     | Version:  v2012                                 |
|   \\  /    A nd           | Website:  www.openfoam.com                      |
|    \\/     M anipulation  |                                                 |
\*---------------------------------------------------------------------------*/
FoamFile
{
    version     2.0;
    format      ascii;
    class       surfaceScalarField;
    location    "0.2";
    object      alphaPhi0.water;
}
// * * * * * * * * * * * * * * * * * * * * * * * * * * * * * * * * * * * * * //

dimensions      [0 3 -1 0 0 0 0];
oriented        oriented;


internalField   nonuniform List<scalar> 
8048
(
-1.72658e-12
-7.51496e-09
-2.45244e-15
2.00207e-11
-2.28217e-08
-5.11655e-15
4.81941e-10
-4.00803e-08
-1.63937e-16
8.64018e-10
-6.29365e-08
-8.02182e-15
1.438e-09
-8.93556e-08
-1.12833e-14
1.94903e-09
-1.16496e-07
-1.95936e-14
2.03656e-09
-1.34474e-07
-2.51156e-14
-1.21823e-07
-6.85752e-14
-1.7711e-12
-7.51319e-09
-1.60102e-15
2.35232e-11
-2.2847e-08
-2.96204e-15
4.30447e-10
-4.04873e-08
-6.32247e-16
8.16258e-10
-6.33224e-08
3.25011e-15
1.39865e-09
-8.9938e-08
-7.39524e-16
1.89669e-09
-1.16994e-07
-1.09267e-14
1.9587e-09
-1.34536e-07
-1.01139e-14
3.50043e-10
-1.20213e-07
-3.37138e-15
-1.58014e-09
-9.20626e-08
-5.65846e-14
-2.88658e-09
-6.43839e-08
-9.48867e-14
-4.22275e-09
-3.23454e-08
-7.11571e-14
-4.37918e-09
-1.82805e-08
-3.16313e-14
-2.54752e-09
-1.42223e-08
-5.51574e-15
-4.90525e-10
-6.03188e-09
-1.56433e-15
-9.97105e-10
-2.73391e-16
-1.58678e-12
-7.5116e-09
-1.33551e-15
2.78071e-11
-2.28764e-08
-3.16001e-15
3.86293e-10
-4.08458e-08
-3.66384e-15
7.84829e-10
-6.37209e-08
2.04964e-17
1.37567e-09
-9.05289e-08
1.02427e-15
1.85799e-09
-1.17476e-07
-1.009e-14
1.88941e-09
-1.34567e-07
-1.23614e-14
2.24773e-10
-1.18547e-07
-1.29759e-14
-1.7714e-09
-8.99521e-08
-3.21288e-14
-3.13972e-09
-6.29228e-08
-7.47205e-14
-4.48451e-09
-3.09575e-08
-5.67457e-14
-4.47489e-09
-1.75376e-08
-5.69711e-15
-2.44996e-09
-1.30159e-08
-2.48263e-15
-4.61869e-10
-5.30212e-09
-1.13379e-15
-8.72033e-10
-2.22664e-16
-1.13415e-12
-7.51047e-09
-1.87979e-15
3.37396e-11
-2.29113e-08
-4.43648e-15
3.5193e-10
-4.11639e-08
-3.83946e-15
7.71536e-10
-6.41405e-08
1.47275e-15
1.36986e-09
-9.11272e-08
-1.29541e-14
1.83147e-09
-1.17938e-07
-4.23554e-15
1.82633e-09
-1.34562e-07
-9.07512e-15
1.15023e-10
-1.16835e-07
-5.15864e-15
-1.97444e-09
-8.77362e-08
-2.67312e-14
-3.43501e-09
-6.13421e-08
-9.85106e-14
-4.74397e-09
-2.95886e-08
-6.16385e-14
-4.53418e-09
-1.67869e-08
-3.63564e-15
-2.33519e-09
-1.18403e-08
-2.96385e-15
-4.31157e-10
-4.62888e-09
-9.20948e-16
-7.56913e-10
-1.91239e-16
-4.3888e-13
-7.51003e-09
-1.00184e-15
4.1473e-11
-2.29532e-08
-3.23658e-15
3.28655e-10
-4.14511e-08
-5.46969e-15
7.76558e-10
-6.45884e-08
6.92028e-16
1.3818e-09
-9.17325e-08
-4.95229e-15
1.81621e-09
-1.18372e-07
-5.56778e-15
1.76916e-09
-1.34515e-07
-9.26515e-15
2.96893e-11
-1.15093e-07
-1.10772e-14
-2.18685e-09
-8.538e-08
-3.78052e-14
-3.77334e-09
-5.95984e-08
-1.10584e-13
-4.99333e-09
-2.82796e-08
-4.56092e-14
-4.55009e-09
-1.60216e-08
-6.09008e-15
-2.20502e-09
-1.07017e-08
-3.41176e-15
-3.98923e-10
-4.01286e-09
-7.88915e-16
-6.5194e-10
-1.72647e-16
4.17702e-13
-7.51045e-09
-2.49841e-15
5.05231e-11
-2.30034e-08
-5.02189e-15
3.1805e-10
-4.17187e-08
-1.06577e-15
8.01402e-10
-6.50718e-08
-8.22885e-16
1.41238e-09
-9.23435e-08
-7.82849e-15
1.81106e-09
-1.18771e-07
-5.73249e-15
1.71772e-09
-1.34422e-07
-6.88825e-15
-1.88224e-11
-1.13355e-07
-1.76199e-15
-2.40096e-09
-8.28441e-08
-4.85307e-14
-4.14462e-09
-5.76487e-08
-1.06774e-13
-5.21206e-09
-2.70671e-08
-8.15235e-14
-4.51672e-09
-1.52329e-08
-2.44948e-14
-2.06167e-09
-9.60666e-09
-4.62536e-15
-3.65694e-10
-3.45414e-09
-8.22372e-16
-5.57114e-10
-1.5828e-16
1.36542e-12
-7.51181e-09
-1.25322e-15
5.95119e-11
-2.30615e-08
-4.11863e-15
3.20031e-10
-4.19792e-08
-3.53715e-15
8.45874e-10
-6.55977e-08
-2.89387e-15
1.45966e-09
-9.29573e-08
-2.40224e-15
1.81147e-09
-1.19123e-07
-3.92141e-15
1.6687e-09
-1.34279e-07
-3.99782e-15
-2.1141e-11
-1.11664e-07
3.50987e-15
-2.60584e-09
-8.00911e-08
-4.80143e-14
-4.5232e-09
-5.54617e-08
-8.84234e-14
-5.398e-09
-2.59669e-08
-1.00546e-13
-4.43102e-09
-1.44144e-08
-2.74009e-14
-1.90802e-09
-8.56174e-09
-4.75632e-15
-3.32001e-10
-2.95201e-09
-8.32517e-16
-4.72253e-10
-1.41383e-16
2.31158e-12
-7.51413e-09
-1.68474e-15
6.7381e-11
-2.31266e-08
-2.79901e-15
3.35966e-10
-4.22477e-08
-1.79403e-15
9.10897e-10
-6.61726e-08
-2.28092e-15
1.51901e-09
-9.35654e-08
-4.57838e-15
1.80886e-09
-1.19413e-07
-2.59158e-15
1.61377e-09
-1.34084e-07
-1.42945e-15
2.78981e-11
-1.10077e-07
2.53035e-15
-2.79185e-09
-7.70897e-08
-4.22586e-14
-4.87784e-09
-5.30247e-08
-7.19536e-14
-5.54656e-09
-2.49605e-08
-6.36016e-14
-4.29342e-09
-1.35643e-08
-1.37366e-14
-1.74738e-09
-7.57374e-09
-3.74605e-15
-2.98359e-10
-2.50497e-09
-7.373e-16
-3.97016e-10
-1.18194e-16
3.21544e-12
-7.51734e-09
1.37616e-16
7.33832e-11
-2.31968e-08
-3.91605e-15
3.66228e-10
-4.25406e-08
-2.54733e-15
9.92678e-10
-6.67991e-08
-3.57836e-15
1.57694e-09
-9.41496e-08
-4.56703e-15
1.78595e-09
-1.19622e-07
-4.44538e-15
1.53518e-09
-1.33833e-07
-2.52899e-15
1.25689e-10
-1.08665e-07
2.50985e-15
-2.95408e-09
-7.38191e-08
-4.08567e-14
-5.19275e-09
-5.03345e-08
-5.85104e-14
-5.65178e-09
-2.40098e-08
-2.84825e-14
-4.10722e-09
-1.26848e-08
-5.78956e-15
-1.58314e-09
-6.64989e-09
-2.64247e-15
-2.65251e-10
-2.11087e-09
-5.88744e-16
-3.30958e-10
-9.99528e-17
4.03693e-12
-7.52138e-09
-1.66565e-15
7.83945e-11
-2.32711e-08
-4.37252e-15
4.12709e-10
-4.28749e-08
3.46995e-16
1.08387e-09
-6.74703e-08
-2.94581e-15
1.61311e-09
-9.46789e-08
-4.0713e-15
1.7184e-09
-1.19727e-07
-1.46175e-15
1.40564e-09
-1.3352e-07
-8.55136e-15
2.52516e-10
-1.07511e-07
1.73709e-14
-3.09726e-09
-7.02728e-08
-3.54134e-14
-5.46086e-09
-4.73994e-08
-5.27872e-14
-5.70172e-09
-2.30671e-08
-2.00963e-14
-3.87687e-09
-1.17822e-08
-4.24783e-15
-1.4184e-09
-5.7973e-09
-1.83827e-15
-2.33112e-10
-1.767e-09
-4.33219e-16
-2.73554e-10
-7.45823e-17
4.81155e-12
-7.52619e-09
-5.08382e-16
8.37641e-11
-2.33501e-08
-6.63744e-15
4.73899e-10
-4.3265e-08
1.76171e-16
1.16637e-09
-6.81628e-08
-2.80018e-15
1.59617e-09
-9.51087e-08
-2.71608e-15
1.571e-09
-1.19702e-07
-3.53278e-15
1.18471e-09
-1.33134e-07
-8.34522e-15
3.60727e-10
-1.06685e-07
1.54668e-14
-3.24165e-09
-6.648e-08
-3.54405e-14
-5.67902e-09
-4.42579e-08
-5.48089e-14
-5.6796e-09
-2.20638e-08
-2.83966e-14
-3.60873e-09
-1.08711e-08
-6.90069e-15
-1.25606e-09
-5.02237e-09
-2.15239e-15
-2.02348e-10
-1.47023e-09
-4.16052e-16
-2.24216e-10
-6.64973e-17
5.63573e-12
-7.53183e-09
-2.31285e-16
9.22233e-11
-2.34367e-08
-5.17503e-15
5.45624e-10
-4.37184e-08
6.22504e-16
1.21487e-09
-6.8832e-08
-2.15422e-15
1.48891e-09
-9.53827e-08
-7.34513e-15
1.29943e-09
-1.19512e-07
-5.76417e-15
8.2097e-10
-1.32655e-07
-9.64052e-15
3.7384e-10
-1.06235e-07
2.2731e-14
-3.39504e-09
-6.25247e-08
-2.95855e-14
-5.84585e-09
-4.09686e-08
-4.89792e-14
-5.55678e-09
-2.08918e-08
-2.75995e-14
-3.30956e-09
-9.96895e-09
-7.18283e-15
-1.09854e-09
-4.32903e-09
-2.19317e-15
-1.73316e-10
-1.21692e-09
-3.93257e-16
-1.82298e-10
-5.93014e-17
6.54356e-12
-7.53837e-09
-4.60828e-16
1.04962e-10
-2.35351e-08
-5.16455e-15
6.13908e-10
-4.42274e-08
3.79565e-16
1.1931e-09
-6.94112e-08
-3.22757e-15
1.24771e-09
-9.54373e-08
-8.5968e-16
8.53437e-10
-1.19118e-07
-7.01612e-15
2.52868e-10
-1.32055e-07
-1.33787e-14
2.11982e-10
-1.06193e-07
1.32992e-14
-3.589e-09
-5.85414e-08
-2.12566e-14
-5.93337e-09
-3.76431e-08
-4.16169e-14
-5.32286e-09
-1.95164e-08
-2.70155e-14
-2.98936e-09
-9.09252e-09
-7.67137e-15
-9.48399e-10
-3.71782e-09
-2.14404e-15
-1.46353e-10
-1.00302e-09
-3.74489e-16
-1.47115e-10
-5.32628e-17
7.56579e-12
-7.54594e-09
1.76573e-16
1.22995e-10
-2.36505e-08
-3.80087e-15
6.60693e-10
-4.47651e-08
3.38073e-15
1.06826e-09
-6.98188e-08
-4.42751e-15
8.39935e-10
-9.5209e-08
-1.24891e-14
1.98092e-10
-1.18476e-07
3.96921e-15
-5.57439e-10
-1.31299e-07
4.05141e-15
-1.78077e-10
-1.06572e-07
1.67665e-14
-3.83983e-09
-5.47173e-08
-1.18124e-14
-5.8946e-09
-3.44914e-08
-3.4858e-14
-5.00086e-09
-1.80239e-08
-2.42706e-14
-2.66157e-09
-8.26004e-09
-7.56687e-15
-8.08467e-10
-3.18775e-09
-2.20889e-15
-1.21785e-10
-8.24595e-10
-3.58884e-16
-1.1798e-10
-4.90323e-17
8.63101e-12
-7.55457e-09
-1.00921e-15
1.43753e-10
-2.37857e-08
-2.57046e-15
6.62172e-10
-4.52835e-08
1.26722e-15
8.15739e-10
-6.99724e-08
-7.20221e-15
2.57246e-10
-9.46504e-08
-1.00759e-14
-6.7388e-10
-1.17545e-07
4.86457e-15
-1.62642e-09
-1.30347e-07
-1.57615e-15
-8.49138e-10
-1.07349e-07
1.62961e-14
-4.1039e-09
-5.13314e-08
-3.98473e-15
-5.70091e-09
-3.17748e-08
-2.68706e-14
-4.60239e-09
-1.65263e-08
-2.02017e-14
-2.33389e-09
-7.48394e-09
-6.48681e-15
-6.80246e-10
-2.73587e-09
-1.84588e-15
-9.98135e-11
-6.7778e-10
-3.06075e-16
-9.42107e-11
-4.12066e-17
9.75839e-12
-7.56433e-09
3.05324e-16
1.63769e-10
-2.39397e-08
-1.53106e-15
6.0256e-10
-4.57223e-08
1.91867e-15
4.34887e-10
-6.98047e-08
-4.05089e-15
-4.77059e-10
-9.37385e-08
9.0576e-17
-1.73579e-09
-1.16286e-07
-4.20214e-15
-2.92098e-09
-1.29161e-07
-1.37105e-15
-1.86536e-09
-1.08404e-07
8.17271e-15
-4.32738e-09
-4.87899e-08
6.58078e-15
-5.35864e-09
-2.9685e-08
-2.08269e-14
-4.13791e-09
-1.51281e-08
-1.66904e-14
-2.01146e-09
-6.77491e-09
-5.71044e-15
-5.64318e-10
-2.35669e-09
-1.62378e-15
-8.05307e-11
-5.58537e-10
-2.61796e-16
-7.51016e-11
-3.50544e-17
1.06731e-11
-7.575e-09
-5.70257e-16
1.75849e-10
-2.41049e-08
-3.60251e-15
4.68108e-10
-4.60146e-08
8.38643e-16
-6.16958e-11
-6.92749e-08
-4.41264e-15
-1.32679e-09
-9.24734e-08
-3.27586e-15
-2.93075e-09
-1.14682e-07
-5.06827e-15
-4.42228e-09
-1.2767e-07
-2.15088e-15
-3.29651e-09
-1.0953e-07
-6.24723e-18
-4.44769e-09
-4.76202e-08
1.57564e-14
-4.87621e-09
-2.8357e-08
-1.58868e-14
-3.62299e-09
-1.39288e-08
-1.3124e-14
-1.69937e-09
-6.14761e-09
-4.90308e-15
-4.60891e-10
-2.04353e-09
-1.5002e-15
-6.39403e-11
-4.62856e-10
-2.32526e-16
-5.99499e-11
-2.85528e-17
1.12591e-11
-7.58626e-09
-6.65229e-16
1.73724e-10
-2.42673e-08
-1.72762e-16
2.63134e-10
-4.6104e-08
-2.90135e-16
-6.17175e-10
-6.83946e-08
-5.31824e-15
-2.18796e-09
-9.09026e-08
-1.79125e-15
-4.10451e-09
-1.12766e-07
-4.22832e-15
-5.93734e-09
-1.25837e-07
-3.85274e-15
-5.00377e-09
-1.10464e-07
3.37197e-15
-4.20353e-09
-4.8449e-08
2.68555e-14
-4.23409e-09
-2.76758e-08
-1.13417e-14
-3.06919e-09
-1.30299e-08
-1.09765e-14
-1.40217e-09
-5.60863e-09
-3.75632e-15
-3.6986e-10
-1.78776e-09
-1.1314e-15
-4.99566e-11
-3.86691e-10
-1.82575e-16
-4.8067e-11
-1.99106e-17
1.13246e-11
-7.59758e-09
7.35272e-16
1.5392e-10
-2.44099e-08
-2.59115e-15
1.79969e-11
-4.59681e-08
-2.22519e-16
-1.12607e-09
-6.72506e-08
-5.57658e-15
-2.87533e-09
-8.91533e-08
2.90767e-16
-4.95285e-09
-1.10688e-07
-5.03698e-15
-6.96758e-09
-1.23822e-07
-6.11004e-15
-6.26881e-09
-1.11162e-07
-1.23732e-14
-3.25645e-09
-5.14843e-08
4.17562e-14
-3.44348e-09
-2.76201e-08
-3.35567e-15
-2.49646e-09
-1.24882e-08
-9.10826e-15
-1.12713e-09
-5.1482e-09
-3.4681e-15
-2.91469e-10
-1.57943e-09
-1.0987e-15
-3.84666e-11
-3.26181e-10
-1.77638e-16
-3.88178e-11
-1.68519e-17
1.09805e-11
-7.60856e-09
-1.45982e-15
1.21243e-10
-2.45202e-08
-2.60103e-15
-2.11445e-10
-4.56354e-08
4.2305e-16
-1.47276e-09
-6.59892e-08
-5.76144e-15
-3.20968e-09
-8.74163e-08
-3.59459e-15
-5.18237e-09
-1.08716e-07
-9.05926e-15
-7.03496e-09
-1.2197e-07
-6.10773e-15
-6.30015e-09
-1.11897e-07
-1.0739e-14
-1.44301e-09
-5.63496e-08
2.48338e-14
-2.50038e-09
-2.70065e-08
-3.24146e-15
-1.93195e-09
-1.19728e-08
-8.06457e-15
-8.81453e-10
-4.74582e-09
-2.76456e-15
-2.25898e-10
-1.40828e-09
-7.82054e-16
-2.92944e-11
-2.77993e-10
-1.48996e-16
-3.16553e-11
-1.25613e-17
1.04278e-11
-7.61899e-09
1.95106e-15
8.44957e-11
-2.45942e-08
-2.80373e-15
-3.78201e-10
-4.51727e-08
1.26409e-16
-1.60716e-09
-6.47603e-08
-5.72542e-15
-3.14819e-09
-8.58753e-08
2.49152e-15
-4.77117e-09
-1.07093e-07
-7.198e-15
-6.14446e-09
-1.20597e-07
-5.60519e-15
-5.16061e-09
-1.12881e-07
-1.18623e-14
8.09229e-10
-6.23196e-08
1.21365e-14
-1.47629e-09
-2.52464e-08
4.3848e-15
-1.41284e-09
-1.14425e-08
-5.21801e-15
-6.71561e-10
-4.39461e-09
-2.1433e-15
-1.72982e-10
-1.26428e-09
-6.25931e-16
-2.2198e-11
-2.39518e-10
-1.23205e-16
-2.61385e-11
-1.03949e-17
9.76558e-12
-7.62876e-09
-1.66044e-15
5.14531e-11
-2.46359e-08
-3.72934e-15
-4.67113e-10
-4.46541e-08
1.81953e-15
-1.55784e-09
-6.36696e-08
-1.00091e-14
-2.78943e-09
-8.46437e-08
-3.33523e-15
-3.94872e-09
-1.05933e-07
-2.69118e-15
-4.68336e-09
-1.19862e-07
7.38811e-16
-3.48595e-09
-1.14078e-07
-2.42926e-14
2.77562e-09
-6.85811e-08
1.66245e-14
-5.11362e-10
-2.24092e-08
1.25027e-14
-9.70298e-10
-1.08578e-08
-3.24488e-15
-5.00459e-10
-4.12435e-09
-1.81612e-15
-1.31701e-10
-1.13991e-09
-6.55531e-16
-1.68671e-11
-2.08578e-10
-1.06561e-16
-2.19092e-11
-9.92633e-18
9.34552e-12
-7.63811e-09
1.79172e-15
2.57347e-11
-2.46523e-08
-2.244e-15
-4.94279e-10
-4.41341e-08
2.27286e-15
-1.40454e-09
-6.27593e-08
-1.02768e-14
-2.31259e-09
-8.37356e-08
-6.36618e-15
-3.04993e-09
-1.05196e-07
-2.01073e-15
-3.20177e-09
-1.1971e-07
-8.54199e-15
-1.96706e-09
-1.15313e-07
-2.26921e-15
3.68163e-09
-7.42298e-08
6.67833e-15
2.97796e-10
-1.93123e-08
2.3374e-15
-6.13692e-10
-1.01839e-08
-2.51636e-15
-3.66678e-10
-3.85459e-09
-1.07951e-15
-1.0023e-10
-1.04315e-09
-4.96273e-16
-1.29399e-11
-1.83863e-10
-8.00067e-17
-1.86685e-11
-8.29959e-18
9.08665e-12
-7.64719e-09
-1.07059e-15
4.93938e-12
-2.46482e-08
-3.72742e-15
-4.94256e-10
-4.36349e-08
-2.29698e-15
-1.23734e-09
-6.20162e-08
-5.07012e-15
-1.88859e-09
-8.30843e-08
1.24468e-14
-2.3413e-09
-1.04743e-07
-1.21225e-14
-2.13824e-09
-1.19913e-07
-1.08279e-14
-1.09132e-09
-1.1636e-07
2.2047e-16
3.40009e-09
-7.87213e-08
-8.56461e-16
8.27831e-10
-1.69086e-08
2.69298e-15
-3.39192e-10
-9.53924e-09
-7.80384e-16
-2.64672e-10
-3.62908e-09
-6.91006e-16
-7.64977e-11
-9.75941e-10
-3.87606e-16
-1.00607e-11
-1.67608e-10
-6.49445e-17
-1.63629e-11
-7.18534e-18
8.94005e-12
-7.65613e-09
4.05808e-16
-1.56288e-11
-2.46236e-08
-2.31769e-15
-4.9452e-10
-4.31561e-08
-1.6323e-15
-1.10416e-09
-6.14066e-08
-5.30315e-15
-1.58501e-09
-8.26034e-08
8.10117e-15
-1.88225e-09
-1.04446e-07
-1.90393e-14
-1.56591e-09
-1.2023e-07
-2.04907e-14
-8.32333e-10
-1.17093e-07
-1.11915e-14
2.31496e-09
-8.18686e-08
-5.36555e-14
1.05779e-09
-1.57573e-08
-4.38366e-15
-1.20724e-10
-9.21072e-09
2.75084e-15
-1.80669e-10
-3.48427e-09
-4.14311e-16
-5.79998e-11
-9.22426e-10
-3.15785e-16
-7.93369e-12
-1.56628e-10
-5.48171e-17
-1.511e-11
-6.36592e-18
8.60425e-12
-7.66474e-09
-5.43918e-16
-4.00199e-11
-2.4575e-08
-2.11415e-15
-5.00058e-10
-4.2696e-08
-3.37871e-15
-9.9408e-10
-6.09125e-08
-5.33465e-15
-1.35159e-09
-8.22459e-08
-2.63031e-15
-1.54725e-09
-1.0425e-07
4.49001e-15
-1.24639e-09
-1.2053e-07
2.36492e-15
-7.89866e-10
-1.1755e-07
1.10984e-14
1.04598e-09
-8.37043e-08
-2.65406e-15
1.40879e-09
-1.61674e-08
5.19449e-14
1.70011e-10
-9.29548e-09
9.19036e-15
-9.40676e-11
-3.52019e-09
-6.46979e-17
-4.08131e-11
-9.02289e-10
-1.87862e-16
-6.15691e-12
-4.17692e-17
-4.9442e-18
7.98735e-12
-7.67273e-09
4.92904e-16
-6.55602e-11
-2.45014e-08
-7.69187e-16
-4.88845e-10
-4.22728e-08
-3.08074e-15
-8.53392e-10
-6.0548e-08
-4.35605e-15
-1.07396e-09
-8.20253e-08
-2.7144e-15
-1.13462e-09
-1.0419e-07
-3.18359e-15
-8.12183e-10
-1.20853e-07
-2.73366e-15
-4.13337e-10
-1.17949e-07
-4.82786e-15
5.69134e-10
-8.46868e-08
-2.33275e-14
2.52612e-09
-1.81245e-08
2.27683e-14
8.17676e-10
-9.03945e-09
7.63878e-15
3.331e-11
-3.82091e-09
1.3426e-16
-9.29533e-10
-9.98872e-17
7.09551e-12
-7.67982e-09
-1.14605e-15
-8.42606e-11
-2.44101e-08
-1.9862e-15
-4.36624e-10
-4.19204e-08
-3.4026e-15
-6.42827e-10
-6.03418e-08
-3.28626e-15
-6.8118e-10
-8.1987e-08
-1.24008e-15
-5.26572e-10
-1.04344e-07
-3.90939e-15
-3.48717e-11
-1.21344e-07
-6.58013e-15
5.8547e-10
-1.18569e-07
-8.43511e-16
1.53429e-09
-8.56356e-08
-1.23234e-14
4.59472e-09
-2.11849e-08
2.32028e-14
1.98577e-09
-7.3892e-09
1.18454e-15
3.02917e-10
-4.12325e-09
2.22216e-16
-1.00881e-09
-5.03195e-17
6.28199e-12
-7.68611e-09
3.43226e-16
-8.79833e-11
-2.43158e-08
-1.06775e-15
-3.39937e-10
-4.16684e-08
-1.80778e-15
-3.75887e-10
-6.03059e-08
-1.38298e-15
-2.13106e-10
-8.21497e-08
-1.43249e-15
1.90928e-10
-1.04748e-07
-3.82907e-15
9.30094e-10
-1.22084e-07
-1.60914e-15
1.92382e-09
-1.19563e-07
-5.36233e-15
3.21548e-09
-8.69272e-08
-1.25622e-14
6.7292e-09
-2.46986e-08
-1.18517e-15
3.35983e-09
-4.46433e-09
6.89454e-15
7.89671e-10
-3.89382e-09
1.44953e-15
-1.10791e-09
9.0339e-17
5.78496e-12
-7.69189e-09
-7.52955e-16
-7.56946e-11
-2.42343e-08
-1.77163e-15
-2.20363e-10
-4.15238e-08
-2.21165e-15
-1.06759e-10
-6.04195e-08
-4.14995e-15
2.24951e-10
-8.24814e-08
-3.75701e-15
8.26754e-10
-1.0535e-07
-3.67956e-15
1.76151e-09
-1.23018e-07
-7.99603e-15
2.99389e-09
-1.20796e-07
-1.36583e-15
4.3699e-09
-8.83032e-08
-4.01869e-15
7.6958e-09
-2.80245e-08
1.59566e-15
4.41944e-09
-1.37413e-09
-2.40589e-15
1.44571e-09
-3.01722e-09
1.40814e-15
-1.14748e-09
2.42647e-16
5.76188e-12
-7.69765e-09
-1.28928e-16
-5.18185e-11
-2.41767e-08
-1.44993e-15
-1.03814e-10
-4.14718e-08
-1.11887e-15
1.15948e-10
-6.06392e-08
-3.23492e-15
5.52166e-10
-8.29177e-08
-3.7768e-15
1.25447e-09
-1.06053e-07
-3.52683e-15
2.26454e-09
-1.24028e-07
-9.54809e-15
3.51576e-09
-1.22047e-07
-7.56882e-15
4.6631e-09
-8.94505e-08
-3.53009e-15
7.41713e-09
-3.07786e-08
-4.68593e-15
4.94156e-09
1.0177e-09
8.143e-15
2.0859e-09
-1.81431e-09
2.30973e-15
-1.06401e-09
3.32052e-16
6.07081e-12
-7.70372e-09
-5.77404e-16
-2.34901e-11
-2.41472e-08
-1.72717e-15
-1.00469e-11
-4.14852e-08
-2.60026e-15
2.67025e-10
-6.09163e-08
-1.53736e-15
7.4236e-10
-8.3393e-08
2.79001e-15
1.45849e-09
-1.06769e-07
-9.15318e-15
2.44003e-09
-1.2501e-07
1.95718e-14
3.56934e-09
-1.23176e-07
-2.91934e-14
4.38452e-09
-9.02657e-08
7.10965e-15
6.42721e-09
-3.28213e-08
-3.02731e-15
4.96524e-09
2.43706e-09
6.99644e-15
2.56502e-09
-6.52336e-10
1.16143e-15
-8.70873e-10
4.14816e-16
6.50672e-12
-7.71023e-09
-3.41544e-16
2.7641e-12
-2.41434e-08
-1.31144e-15
5.25488e-11
-4.1535e-08
-2.48235e-15
3.45795e-10
-6.12096e-08
-1.01821e-15
8.08267e-10
-8.38554e-08
3.86176e-15
1.47451e-09
-1.07435e-07
-1.09658e-14
2.36387e-09
-1.25899e-07
9.32772e-15
3.3125e-09
-1.24125e-07
-3.36834e-14
3.81567e-09
-9.07689e-08
-1.15871e-14
5.15385e-09
-3.41595e-08
-1.44457e-14
4.70424e-09
2.86233e-09
-3.04522e-14
2.8876e-09
2.62484e-10
-3.15671e-15
-6.16796e-10
2.81191e-16
6.80981e-12
-7.71704e-09
-2.80922e-16
2.19017e-11
-2.41585e-08
-1.33205e-15
8.3551e-11
-4.15967e-08
-2.35509e-15
3.64147e-10
-6.14902e-08
-2.38297e-15
7.78961e-10
-8.42703e-08
-3.27988e-15
1.35904e-09
-1.08015e-07
-2.43245e-15
2.12768e-09
-1.26668e-07
-2.26899e-15
2.87986e-09
-1.24877e-07
-6.46729e-16
3.10202e-09
-9.0991e-08
1.17132e-14
3.68688e-09
-3.47443e-08
2.13822e-14
4.20602e-09
2.32765e-09
8.79688e-15
3.07662e-09
7.58521e-10
1.31494e-15
-3.64704e-10
8.73943e-16
6.7229e-12
-7.72376e-09
-5.18897e-16
3.17544e-11
-2.41836e-08
-1.1472e-15
8.91804e-11
-4.16541e-08
-2.16581e-15
3.41068e-10
-6.1742e-08
-1.6738e-15
6.91624e-10
-8.46208e-08
-1.07176e-16
1.17386e-09
-1.08497e-07
-5.19172e-15
1.82188e-09
-1.27316e-07
-6.83742e-15
2.41119e-09
-1.25466e-07
7.62213e-17
2.50525e-09
-9.10851e-08
-9.89991e-15
2.52962e-09
-3.47687e-08
-1.8169e-15
3.62044e-09
1.22497e-09
2.66469e-15
3.12511e-09
8.19133e-10
8.41183e-16
-1.3747e-10
7.77647e-16
5.99063e-12
-7.72975e-09
-2.82411e-16
3.25181e-11
-2.42101e-08
-1.5582e-15
7.77324e-11
-4.16993e-08
-2.10673e-15
2.94613e-10
-6.19589e-08
-9.00409e-16
5.77684e-10
-8.49039e-08
-1.71723e-15
9.67077e-10
-1.08887e-07
-4.57006e-15
1.50363e-09
-1.27852e-07
-1.27821e-15
1.94515e-09
-1.25908e-07
-9.87076e-16
1.8927e-09
-9.10326e-08
-9.24212e-15
1.30623e-09
-3.41822e-08
-2.96871e-15
2.47368e-09
4.53554e-11
2.92329e-15
2.6471e-09
3.33851e-10
2.68346e-16
-3.58864e-11
6.85117e-16
4.43879e-12
-7.73419e-09
-6.26844e-16
2.53239e-11
-2.4231e-08
-1.52182e-15
5.53774e-11
-4.17294e-08
-2.33411e-15
2.35105e-10
-6.21386e-08
-1.08407e-15
4.52843e-10
-8.51217e-08
-2.15628e-15
7.6073e-10
-1.09195e-07
-6.98986e-15
1.21511e-09
-1.28307e-07
-4.04265e-15
1.62162e-09
-1.26314e-07
-1.39706e-15
1.69774e-09
-9.11087e-08
-8.3784e-15
1.16322e-09
-3.36477e-08
-1.59514e-15
1.19688e-09
2.70583e-15
1.24345e-09
6.85621e-17
3.75441e-16
2.58227e-12
-7.73677e-09
-5.20782e-16
1.30198e-11
-2.42414e-08
-1.2323e-15
2.85516e-11
-4.17449e-08
-1.83725e-15
1.70482e-10
-6.22806e-08
-8.15648e-16
3.22067e-10
-8.52733e-08
-3.34575e-15
5.37811e-10
-1.0941e-07
-1.61551e-15
8.69974e-10
-1.28639e-07
-4.93596e-16
1.12542e-09
-1.2657e-07
-5.11426e-15
8.63889e-10
-9.08472e-08
-2.40188e-15
-3.27839e-08
-5.98531e-15
1.13188e-12
-7.73791e-09
-6.30085e-16
1.82953e-13
-2.42405e-08
-1.60928e-15
8.05528e-12
-4.17528e-08
-1.10401e-15
1.22263e-10
-6.23948e-08
-1.41875e-15
2.27231e-10
-8.53783e-08
-3.10995e-15
3.81372e-10
-1.09564e-07
-2.30971e-15
6.46625e-10
-1.28904e-07
-1.95592e-15
8.41565e-10
-1.26765e-07
-8.58011e-15
4.72755e-10
-9.04784e-08
-4.52405e-15
-3.23111e-08
-8.77367e-16
1.38253e-13
-7.73804e-09
-5.71257e-16
-1.1027e-11
-2.42293e-08
-1.75216e-15
-3.39796e-12
-4.17604e-08
-1.29428e-15
9.33343e-11
-6.24915e-08
-6.12852e-16
1.69668e-10
-8.54546e-08
-3.43209e-15
2.90549e-10
-1.09685e-07
-4.05512e-15
5.35389e-10
-1.29149e-07
-3.53793e-15
7.42647e-10
-1.26972e-07
-3.39115e-15
4.61376e-10
-9.01971e-08
-3.77936e-15
-3.18497e-08
-1.93307e-15
-4.2369e-13
-7.73762e-09
-6.42157e-16
-1.93325e-11
-2.42104e-08
-1.94518e-15
-5.8505e-12
-4.17739e-08
-9.92528e-16
8.08096e-11
-6.25782e-08
-4.92688e-16
1.39531e-10
-8.55133e-08
-3.44632e-15
2.41191e-10
-1.09787e-07
-2.80198e-15
4.76653e-10
-1.29384e-07
-2.56313e-15
6.94402e-10
-1.2719e-07
-1.50218e-15
4.34153e-10
-8.99368e-08
1.06134e-15
-3.14155e-08
7.57827e-15
-6.22418e-13
-7.737e-09
-6.84285e-16
-2.38883e-11
-2.41871e-08
-1.75631e-15
-5.77978e-14
-4.17977e-08
-1.87105e-15
8.16309e-11
-6.26599e-08
1.52115e-15
1.2996e-10
-8.55616e-08
-4.43234e-15
2.21509e-10
-1.09879e-07
-1.63152e-15
4.56502e-10
-1.29619e-07
-1.22546e-14
6.88614e-10
-1.27422e-07
-4.98319e-15
4.40614e-10
-8.96888e-08
-4.54562e-15
-3.0975e-08
-9.30363e-15
-5.70171e-13
-7.73643e-09
-6.67529e-16
-2.43018e-11
-2.41634e-08
-2.54626e-15
1.26421e-11
-4.18347e-08
-1.58835e-15
9.24848e-11
-6.27397e-08
-7.79345e-16
1.3458e-10
-8.56037e-08
-1.09338e-15
2.20726e-10
-1.09965e-07
2.55034e-15
4.58423e-10
-1.29857e-07
-7.78954e-15
7.01443e-10
-1.27665e-07
-4.65961e-15
4.53385e-10
-8.94407e-08
-1.83943e-15
-3.05216e-08
-1.32106e-15
-2.95281e-13
-7.73613e-09
-4.65699e-16
-2.04864e-11
-2.41432e-08
-1.80498e-15
3.04021e-11
-4.18856e-08
-1.00946e-15
1.09866e-10
-6.28192e-08
1.15482e-15
1.47661e-10
-8.56416e-08
-4.80313e-15
2.31545e-10
-1.10049e-07
-6.52923e-15
4.73931e-10
-1.301e-07
-1.02761e-14
7.27216e-10
-1.27918e-07
2.05184e-15
4.73812e-10
-8.91873e-08
-4.50057e-16
-3.00477e-08
1.76462e-15
1.51965e-13
-7.73629e-09
-3.49067e-16
-1.27308e-11
-2.41303e-08
-3.18388e-15
5.20304e-11
-4.19503e-08
-1.72952e-15
1.31845e-10
-6.2899e-08
2.63563e-15
1.66251e-10
-8.5676e-08
-2.38649e-15
2.49594e-10
-1.10132e-07
-3.71938e-15
4.97411e-10
-1.30347e-07
-9.07776e-15
7.6062e-10
-1.28181e-07
-1.48796e-15
4.98193e-10
-8.89249e-08
-3.17462e-15
-2.95496e-08
-1.88631e-15
7.57987e-13
-7.73704e-09
-4.47884e-16
-1.81493e-12
-2.41277e-08
-1.93738e-15
7.57815e-11
-4.20279e-08
-1.6054e-15
1.55903e-10
-6.29791e-08
-1.18947e-15
1.87636e-10
-8.57077e-08
-1.01446e-15
2.72014e-10
-1.10216e-07
-4.79593e-15
5.26144e-10
-1.30601e-07
-3.6038e-15
7.99401e-10
-1.28455e-07
-3.97618e-15
5.26175e-10
-8.86517e-08
-2.31991e-15
-2.90234e-08
-1.58454e-15
1.50241e-12
-7.73855e-09
-5.59308e-16
1.10779e-11
-2.41373e-08
-2.0866e-15
9.99294e-11
-4.21168e-08
-1.68771e-15
1.80029e-10
-6.30592e-08
1.8224e-15
2.09184e-10
-8.57368e-08
-3.2486e-15
2.95667e-10
-1.10303e-07
-3.97826e-15
5.57192e-10
-1.30863e-07
-3.21062e-15
8.41314e-10
-1.28739e-07
-7.60443e-15
5.56578e-10
-8.8367e-08
-4.83087e-15
-2.84668e-08
-1.15116e-15
2.37873e-12
-7.74093e-09
-4.21306e-16
2.43917e-11
-2.41593e-08
-2.23902e-15
1.22754e-10
-4.22151e-08
-1.33169e-15
2.02488e-10
-6.31389e-08
1.86653e-15
2.29364e-10
-8.57637e-08
-2.05688e-15
3.18751e-10
-1.10392e-07
-4.21279e-15
5.88836e-10
-1.31133e-07
-6.45163e-15
8.85089e-10
-1.29035e-07
-5.80404e-15
5.89035e-10
-8.80709e-08
-5.62811e-15
-2.78778e-08
-2.50613e-15
3.36887e-12
-7.74429e-09
-6.8769e-16
3.63173e-11
-2.41923e-08
-1.85027e-15
1.42585e-10
-4.23214e-08
-1.637e-16
2.21408e-10
-6.32178e-08
2.14507e-15
2.46549e-10
-8.57888e-08
-1.63111e-15
3.39732e-10
-1.10485e-07
-4.28674e-15
6.19867e-10
-1.31413e-07
-4.10301e-15
9.2995e-10
-1.29345e-07
-3.42019e-15
6.23406e-10
-8.77643e-08
-2.48137e-15
-2.72544e-08
9.66709e-16
4.44983e-12
-7.74874e-09
-7.08438e-16
4.50491e-11
-2.42329e-08
-1.95054e-15
1.57983e-10
-4.24343e-08
-3.55802e-16
2.35414e-10
-6.32952e-08
1.87459e-15
2.59594e-10
-8.5813e-08
-2.13183e-15
3.57584e-10
-1.10583e-07
-4.03789e-15
6.49583e-10
-1.31705e-07
-6.78301e-15
9.75755e-10
-1.29671e-07
-4.3681e-15
6.60224e-10
-8.74488e-08
-1.34036e-15
-2.65942e-08
-5.48103e-15
5.59417e-12
-7.75434e-09
-1.03917e-15
4.93892e-11
-2.42767e-08
-1.48434e-15
1.68295e-10
-4.25532e-08
8.34795e-16
2.43922e-10
-6.33709e-08
2.64832e-15
2.68326e-10
-8.58374e-08
-1.66896e-15
3.72269e-10
-1.10687e-07
-7.0676e-15
6.78141e-10
-1.32011e-07
-3.4691e-15
1.02265e-09
-1.30016e-07
-9.30526e-15
6.99688e-10
-8.71258e-08
-7.63109e-15
-2.58945e-08
-2.28897e-15
6.79227e-12
-7.76113e-09
-7.19935e-16
4.89479e-11
-2.43188e-08
-2.9561e-15
1.73533e-10
-4.26778e-08
5.5891e-16
2.46964e-10
-6.34443e-08
1.79999e-15
2.73079e-10
-8.58635e-08
-1.20747e-15
3.84443e-10
-1.10799e-07
-7.08796e-15
7.05811e-10
-1.32332e-07
-4.90404e-15
1.07069e-09
-1.30381e-07
-4.14517e-17
7.41419e-10
-8.67966e-08
2.06447e-15
-2.5153e-08
-8.41972e-16
8.03195e-12
-7.76916e-09
-1.08292e-15
4.44095e-11
-2.43552e-08
-2.46088e-15
1.74604e-10
-4.2808e-08
1.34292e-15
2.45406e-10
-6.35151e-08
1.29902e-15
2.74553e-10
-8.58926e-08
-1.16311e-15
3.94643e-10
-1.10919e-07
-8.38412e-15
7.33305e-10
-1.32671e-07
-2.1906e-15
1.12109e-09
-1.30769e-07
-6.57986e-15
7.86591e-10
-8.64621e-08
-5.81862e-15
-2.43664e-08
-6.86907e-16
9.32623e-12
-7.77849e-09
-1.13478e-15
3.73606e-11
-2.43832e-08
-3.29516e-15
1.73018e-10
-4.29437e-08
8.07392e-16
2.40892e-10
-6.3583e-08
1.0623e-15
2.74779e-10
-8.59265e-08
-1.6897e-15
4.0527e-10
-1.11049e-07
-8.73411e-15
7.62921e-10
-1.33029e-07
-1.38762e-15
1.17567e-09
-1.31181e-07
-7.52148e-15
8.36521e-10
-8.61229e-08
-2.57101e-15
-2.35299e-08
-4.24065e-15
1.0687e-11
-7.78917e-09
-1.57958e-15
3.01322e-11
-2.44027e-08
-2.70358e-15
1.70855e-10
-4.30844e-08
1.51674e-15
2.35612e-10
-6.36477e-08
4.34537e-16
2.75902e-10
-8.59668e-08
-2.77878e-15
4.18422e-10
-1.11192e-07
-7.47109e-15
7.96676e-10
-1.33407e-07
-2.65518e-15
1.23605e-09
-1.31621e-07
-7.31512e-15
8.91888e-10
-8.57787e-08
-5.289e-15
-2.2638e-08
4.98832e-16
1.21529e-11
-7.80133e-09
-1.34015e-15
2.53229e-11
-2.44158e-08
-4.14993e-15
1.70308e-10
-4.32294e-08
1.97862e-15
2.32054e-10
-6.37095e-08
-1.35034e-15
2.80136e-10
-8.60149e-08
-2.31034e-15
4.36289e-10
-1.11348e-07
-6.26589e-15
8.36833e-10
-1.33807e-07
-3.96177e-15
1.3041e-09
-1.32088e-07
-4.41169e-15
9.53892e-10
-8.54285e-08
1.15023e-16
-2.16841e-08
-5.5917e-15
1.37503e-11
-7.81508e-09
-1.90171e-15
2.54395e-11
-2.44275e-08
-3.04856e-15
1.73189e-10
-4.33771e-08
3.16691e-15
2.32119e-10
-6.37684e-08
-1.49611e-15
2.89428e-10
-8.60722e-08
-3.3875e-15
4.61638e-10
-1.1152e-07
-4.86667e-15
8.86312e-10
-1.34232e-07
-7.07269e-15
1.38219e-09
-1.32584e-07
-4.88205e-15
1.02389e-09
-8.50702e-08
-3.79056e-15
-2.06603e-08
-1.21611e-15
1.55208e-11
-7.8306e-09
-2.07447e-15
3.23994e-11
-2.44444e-08
-3.11291e-15
1.80888e-10
-4.35256e-08
2.72563e-15
2.37525e-10
-6.3825e-08
-2.78347e-15
3.05325e-10
-8.614e-08
-2.86004e-15
4.95945e-10
-1.11711e-07
-6.72944e-15
9.46463e-10
-1.34683e-07
-4.54344e-15
1.47173e-09
-1.33109e-07
-3.10306e-15
1.10285e-09
-8.47013e-08
-2.03897e-15
-1.95574e-08
2.23498e-16
1.74814e-11
-7.84808e-09
-2.62207e-15
4.72918e-11
-2.44742e-08
-2.23147e-15
1.94003e-10
-4.36724e-08
4.19158e-15
2.49186e-10
-6.38802e-08
-2.91207e-15
3.29041e-10
-8.62198e-08
-2.45061e-15
5.40799e-10
-1.11923e-07
-5.48516e-15
1.01861e-09
-1.3516e-07
-4.42425e-15
1.57399e-09
-1.33665e-07
-3.12635e-15
1.19171e-09
-8.4319e-08
-1.98742e-15
-1.83657e-08
-2.19994e-15
1.96466e-11
-7.86772e-09
-2.12545e-15
6.98159e-11
-2.45244e-08
-3.0778e-15
2.11669e-10
-4.38142e-08
3.82579e-15
2.66644e-10
-6.39352e-08
-3.45735e-15
3.60111e-10
-8.63133e-08
-3.17987e-15
5.9547e-10
-1.12158e-07
-5.23435e-15
1.10227e-09
-1.35667e-07
-4.87384e-15
1.68899e-09
-1.34251e-07
-3.95633e-15
1.29089e-09
-8.39209e-08
-3.89551e-15
-1.70748e-08
-1.05025e-15
2.19827e-11
-7.8897e-09
-2.5886e-15
9.84326e-11
-2.46008e-08
-2.71805e-15
2.32232e-10
-4.3948e-08
4.36305e-15
2.88681e-10
-6.39916e-08
-4.637e-15
3.97033e-10
-8.64217e-08
-2.11319e-15
6.57983e-10
-1.12419e-07
-5.62923e-15
1.1958e-09
-1.36205e-07
-3.17379e-15
1.81605e-09
-1.34872e-07
-2.017e-15
1.40097e-09
-8.35059e-08
-2.45624e-16
-1.56738e-08
4.94581e-16
2.43983e-11
-7.9141e-09
-2.90016e-15
1.29943e-10
-2.47064e-08
-2.84252e-15
2.52173e-10
-4.40702e-08
3.54408e-15
3.11768e-10
-6.40512e-08
-2.11216e-15
4.35839e-10
-8.65458e-08
-5.11311e-15
7.24183e-10
-1.12707e-07
-6.26389e-15
1.29574e-09
-1.36776e-07
-4.69108e-15
1.95339e-09
-1.35529e-07
-5.15981e-15
1.52247e-09
-8.30749e-08
-1.21551e-15
-1.41514e-08
-1.94066e-15
2.67009e-11
-7.9408e-09
-3.60796e-15
1.60055e-10
-2.48397e-08
-2.18343e-15
2.67362e-10
-4.41776e-08
3.34855e-15
3.31678e-10
-6.41155e-08
-2.85578e-15
4.71714e-10
-8.66858e-08
-4.4324e-15
7.88592e-10
-1.13024e-07
-7.92672e-15
1.39705e-09
-1.37385e-07
-3.29522e-15
2.09834e-09
-1.3623e-07
-4.61949e-15
1.65653e-09
-8.26331e-08
1.4999e-15
-1.24948e-08
1.08688e-15
2.85769e-11
-7.96938e-09
-3.88021e-15
1.83546e-10
-2.49947e-08
-2.5088e-15
2.72334e-10
-4.42663e-08
3.2516e-15
3.41546e-10
-6.41847e-08
-4.52539e-15
4.96492e-10