/*--------------------------------*- C++ -*----------------------------------*\
| =========                 |                                                 |
| \\      /  F ield         | OpenFOAM: The Open Source CFD Toolbox           |
|  \\    /   O peration     | Version:  v2012                                 |
|   \\  /    A nd           | Website:  www.openfoam.com                      |
|    \\/     M anipulation  |                                                 |
\*---------------------------------------------------------------------------*/
FoamFile
{
    version     2.0;
    format      ascii;
    class       volScalarField;
    location    "0.2";
    object      p;
}
// * * * * * * * * * * * * * * * * * * * * * * * * * * * * * * * * * * * * * //

dimensions      [1 -1 -2 0 0 0 0];


internalField   nonuniform List<scalar> 
3332
(
3.42106e+06
3.42447e+06
3.42283e+06
3.42396e+06
3.42301e+06
3.42273e+06
3.42263e+06
3.42132e+06
3.41996e+06
3.42484e+06
3.42236e+06
3.42421e+06
3.42299e+06
3.42304e+06
3.42295e+06
3.42164e+06
3.42255e+06
3.42476e+06
3.42484e+06
3.42586e+06
3.42638e+06
3.42979e+06
3.4372e+06
3.42009e+06
3.42549e+06
3.42223e+06
3.42459e+06
3.42313e+06
3.42345e+06
3.42341e+06
3.42208e+06
3.42301e+06
3.42551e+06
3.4259e+06
3.42696e+06
3.42818e+06
3.4323e+06
3.43963e+06
3.42046e+06
3.42613e+06
3.42236e+06
3.42511e+06
3.42349e+06
3.42403e+06
3.42403e+06
3.42268e+06
3.42361e+06
3.4264e+06
3.42731e+06
3.42835e+06
3.4305e+06
3.43516e+06
3.44235e+06
3.42119e+06
3.4269e+06
3.42281e+06
3.4258e+06
3.42407e+06
3.42481e+06
3.42483e+06
3.42347e+06
3.42438e+06
3.42738e+06
3.42918e+06
3.43015e+06
3.43344e+06
3.4384e+06
3.44536e+06
3.42201e+06
3.42752e+06
3.42349e+06
3.4267e+06
3.4249e+06
3.42585e+06
3.42583e+06
3.42449e+06
3.4253e+06
3.42839e+06
3.43155e+06
3.43243e+06
3.43703e+06
3.44199e+06
3.44867e+06
3.42364e+06
3.42871e+06
3.42468e+06
3.42792e+06
3.426e+06
3.4272e+06
3.42699e+06
3.42577e+06
3.42632e+06
3.42938e+06
3.43438e+06
3.43515e+06
3.44122e+06
3.44592e+06
3.45225e+06
3.42586e+06
3.43029e+06
3.42633e+06
3.42955e+06
3.42744e+06
3.42893e+06
3.42831e+06
3.42734e+06
3.4274e+06
3.4303e+06
3.43755e+06
3.43834e+06
3.44595e+06
3.45014e+06
3.45608e+06
3.42868e+06
3.43247e+06
3.42859e+06
3.4318e+06
3.42935e+06
3.43114e+06
3.42978e+06
3.42924e+06
3.42848e+06
3.43107e+06
3.4409e+06
3.44203e+06
3.45108e+06
3.45464e+06
3.46011e+06
3.43146e+06
3.43515e+06
3.43166e+06
3.43488e+06
3.43199e+06
3.43403e+06
3.43156e+06
3.43168e+06
3.42958e+06
3.43173e+06
3.44431e+06
3.44643e+06
3.45652e+06
3.45947e+06
3.46431e+06
3.43658e+06
3.43936e+06
3.43624e+06
3.43912e+06
3.43574e+06
3.43787e+06
3.43392e+06
3.43486e+06
3.4308e+06
3.43231e+06
3.44767e+06
3.45186e+06
3.46216e+06
3.46468e+06
3.46867e+06
3.44378e+06
3.44519e+06
3.44275e+06
3.44493e+06
3.4411e+06
3.44309e+06
3.4373e+06
3.43902e+06
3.43276e+06
3.43349e+06
3.45109e+06
3.45868e+06
3.4679e+06
3.4703e+06
3.47314e+06
3.45351e+06
3.45316e+06
3.45179e+06
3.4529e+06
3.44875e+06
3.45025e+06
3.44221e+06
3.44535e+06
3.43641e+06
3.43677e+06
3.45493e+06
3.46653e+06
3.47374e+06
3.47628e+06
3.47775e+06
3.46532e+06
3.46319e+06
3.46385e+06
3.4638e+06
3.4597e+06
3.46043e+06
3.45005e+06
3.45479e+06
3.44226e+06
3.44292e+06
3.45954e+06
3.47461e+06
3.47976e+06
3.48246e+06
3.48251e+06
3.48208e+06
3.47822e+06
3.47999e+06
3.47823e+06
3.47449e+06
3.47379e+06
3.46223e+06
3.46794e+06
3.45214e+06
3.45309e+06
3.46626e+06
3.48343e+06
3.48653e+06
3.48898e+06
3.48758e+06
3.50258e+06
3.49765e+06
3.49991e+06
3.49667e+06
3.49351e+06
3.49099e+06
3.47949e+06
3.48505e+06
3.46665e+06
3.46803e+06
3.47659e+06
3.49375e+06
3.49459e+06
3.49602e+06
3.49309e+06
3.52617e+06
3.52155e+06
3.52331e+06
3.51938e+06
3.51681e+06
3.51266e+06
3.50314e+06
3.50644e+06
3.48815e+06
3.4893e+06
3.49289e+06
3.50646e+06
3.50455e+06
3.50374e+06
3.4991e+06
3.54914e+06
3.54801e+06
3.5488e+06
3.54552e+06
3.54377e+06
3.53933e+06
3.53404e+06
3.53416e+06
3.52338e+06
3.52078e+06
3.51533e+06
3.52217e+06
3.5164e+06
3.51213e+06
3.50558e+06
3.57455e+06
3.57536e+06
3.57437e+06
3.57262e+06
3.57189e+06
3.56878e+06
3.5689e+06
3.56767e+06
3.56836e+06
3.56093e+06
3.54267e+06
3.53987e+06
3.52932e+06
3.52073e+06
3.51218e+06
3.59685e+06
3.59941e+06
3.59692e+06
3.59697e+06
3.59735e+06
3.59622e+06
3.60132e+06
3.60051e+06
3.61032e+06
3.59829e+06
3.57321e+06
3.55643e+06
3.54224e+06
3.52875e+06
3.5185e+06
3.61405e+06
3.61759e+06
3.61437e+06
3.61577e+06
3.61699e+06
3.61742e+06
3.62589e+06
3.62505e+06
3.64076e+06
3.62342e+06
3.6e+06
3.56814e+06
3.55323e+06
3.53515e+06
3.524e+06
3.62567e+06
3.62962e+06
3.62604e+06
3.62802e+06
3.62942e+06
3.63054e+06
3.63994e+06
3.63794e+06
3.65572e+06
3.63535e+06
3.6175e+06
3.57537e+06
3.56105e+06
3.5398e+06
3.52833e+06
3.63175e+06
3.63568e+06
3.63223e+06
3.63447e+06
3.63538e+06
3.63663e+06
3.64457e+06
3.64113e+06
3.65739e+06
3.63742e+06
3.62502e+06
3.5802e+06
3.56571e+06
3.54309e+06
3.53146e+06
3.63409e+06
3.63788e+06
3.63465e+06
3.63685e+06
3.63692e+06
3.63818e+06
3.64328e+06
3.63951e+06
3.65206e+06
3.63448e+06
3.62585e+06
3.58434e+06
3.56804e+06
3.54557e+06
3.53355e+06
3.63426e+06
3.63744e+06
3.63464e+06
3.63662e+06
3.63609e+06
3.63761e+06
3.63994e+06
3.63769e+06
3.64516e+06
3.63171e+06
3.6251e+06
3.58846e+06
3.56908e+06
3.54754e+06
3.53479e+06
3.63369e+06
3.63525e+06
3.63305e+06
3.63472e+06
3.6342e+06
3.6364e+06
3.63738e+06
3.63813e+06
3.64095e+06
3.63419e+06
3.62777e+06
3.59379e+06
3.56961e+06
3.54918e+06
3.53537e+06
3.63051e+06
3.63067e+06
3.62965e+06
3.63107e+06
3.6312e+06
3.63429e+06
3.63552e+06
3.63954e+06
3.64034e+06
3.64022e+06
3.63215e+06
3.60073e+06
3.56923e+06
3.62464e+06
3.62366e+06
3.62388e+06
3.62502e+06
3.62589e+06
3.62954e+06
3.63131e+06
3.63772e+06
3.63769e+06
3.64215e+06
3.63151e+06
3.60652e+06
3.56746e+06
3.616e+06
3.61441e+06
3.61553e+06
3.61635e+06
3.61764e+06
3.62107e+06
3.62285e+06
3.62915e+06
3.62791e+06
3.63418e+06
3.62299e+06
3.60592e+06
3.56529e+06
3.60591e+06
3.60396e+06
3.6052e+06
3.60564e+06
3.60684e+06
3.60938e+06
3.61052e+06
3.61511e+06
3.61259e+06
3.61841e+06
3.60889e+06
3.59835e+06
3.56328e+06
3.59377e+06
3.59246e+06
3.59354e+06
3.59379e+06
3.59459e+06
3.59601e+06
3.59634e+06
3.59869e+06
3.59559e+06
3.59981e+06
3.59282e+06
3.58658e+06
3.55972e+06
3.58157e+06
3.58105e+06
3.58172e+06
3.58182e+06
3.58212e+06
3.5825e+06
3.58208e+06
3.58241e+06
3.57939e+06
3.58187e+06
3.57731e+06
3.57373e+06
3.55466e+06
3.57027e+06
3.57032e+06
3.57056e+06
3.57054e+06
3.57038e+06
3.56995e+06
3.56899e+06
3.5678e+06
3.56526e+06
3.56607e+06
3.56355e+06
3.5615e+06
3.54865e+06
3.56048e+06
3.56078e+06
3.56068e+06
3.56054e+06
3.56002e+06
3.55911e+06
3.55782e+06
3.55579e+06
3.55403e+06
3.55355e+06
3.55309e+06
3.55182e+06
3.54428e+06
3.55231e+06
3.55261e+06
3.55235e+06
3.55209e+06
3.5514e+06
3.55031e+06
3.54884e+06
3.54659e+06
3.54535e+06
3.54363e+06
3.54447e+06
3.54369e+06
3.5392e+06
3.54577e+06
3.54583e+06
3.5456e+06
3.54518e+06
3.54443e+06
3.54328e+06
3.54179e+06
3.53996e+06
3.53921e+06
3.5377e+06
3.54011e+06
3.53967e+06
3.53775e+06
3.54067e+06
3.54039e+06
3.5403e+06
3.5397e+06
3.53896e+06
3.53767e+06
3.53598e+06
3.53398e+06
3.53203e+06
3.53073e+06
3.53196e+06
3.53243e+06
3.52944e+06
3.5371e+06
3.53647e+06
3.53664e+06
3.53594e+06
3.53543e+06
3.53428e+06
3.53299e+06
3.53138e+06
3.52975e+06
3.52948e+06
3.5346e+06
3.53365e+06
3.53411e+06
3.53338e+06
3.53317e+06
3.53231e+06
3.53156e+06
3.53059e+06
3.52997e+06
3.52993e+06
3.53291e+06
3.53173e+06
3.5324e+06
3.53166e+06
3.53173e+06
3.5311e+06
3.53074e+06
3.53019e+06
3.52991e+06
3.5299e+06
3.53163e+06
3.53032e+06
3.53118e+06
3.53048e+06
3.53075e+06
3.53033e+06
3.53022e+06
3.52995e+06
3.52986e+06
3.52988e+06
3.53058e+06
3.52928e+06
3.53025e+06
3.52961e+06
3.53002e+06
3.52974e+06
3.52977e+06
3.52967e+06
3.52967e+06
3.5297e+06
3.52962e+06
3.52844e+06
3.52941e+06
3.52889e+06
3.52935e+06
3.52919e+06
3.52934e+06
3.52936e+06
3.52941e+06
3.52945e+06
3.52874e+06
3.52777e+06
3.52868e+06
3.52826e+06
3.52867e+06
3.52861e+06
3.52886e+06
3.52896e+06
3.52903e+06
3.52908e+06
3.52776e+06
3.52705e+06
3.52786e+06
3.52757e+06
3.528e+06
3.528e+06
3.52828e+06
3.52844e+06
3.52852e+06
3.52858e+06
3.52682e+06
3.52636e+06
3.527e+06
3.5268e+06
3.52725e+06
3.5273e+06
3.52759e+06
3.52778e+06
3.52788e+06
3.52794e+06
3.52583e+06
3.52553e+06
3.5261e+06
3.52597e+06
3.5264e+06
3.52647e+06
3.52677e+06
3.52698e+06
3.52708e+06
3.52715e+06
3.52484e+06
3.52462e+06
3.52513e+06
3.52501e+06
3.52544e+06
3.5255e+06
3.5258e+06
3.52602e+06
3.52612e+06
3.52621e+06
3.52382e+06
3.52354e+06
3.52407e+06
3.52391e+06
3.52434e+06
3.52437e+06
3.52467e+06
3.5249e+06
3.525e+06
3.52509e+06
3.52273e+06
3.52228e+06
3.52289e+06
3.52263e+06
3.52307e+06
3.52307e+06
3.52336e+06
3.5236e+06
3.52369e+06
3.52379e+06
3.52152e+06
3.5208e+06
3.52153e+06
3.52115e+06
3.52161e+06
3.52157e+06
3.52186e+06
3.52212e+06
3.5222e+06
3.52231e+06
3.52009e+06
3.51908e+06
3.51994e+06
3.51944e+06
3.51991e+06
3.51986e+06
3.52015e+06
3.52044e+06
3.52051e+06
3.52063e+06
3.51831e+06
3.51708e+06
3.51805e+06
3.51747e+06
3.51794e+06
3.5179e+06
3.51818e+06
3.5185e+06
3.51857e+06
3.5187e+06
3.51611e+06
3.51479e+06
3.5158e+06
3.51522e+06
3.51566e+06
3.51567e+06
3.51592e+06
3.5163e+06
3.51636e+06
3.5165e+06
3.5134e+06
3.51219e+06
3.51314e+06
3.51266e+06
3.51306e+06
3.51316e+06
3.51337e+06
3.51382e+06
3.51388e+06
3.51403e+06
3.51016e+06
3.50926e+06
3.51002e+06
3.50975e+06
3.51011e+06
3.51033e+06
3.51049e+06
3.51103e+06
3.51109e+06
3.51125e+06
3.50634e+06
3.50596e+06
3.50644e+06
3.50647e+06
3.50671e+06
3.50709e+06
3.50724e+06
3.50788e+06
3.50796e+06
3.50813e+06
3.50197e+06
3.50228e+06
3.50238e+06
3.50277e+06
3.50289e+06
3.50344e+06
3.50359e+06
3.50434e+06
3.50444e+06
3.50461e+06
3.49713e+06
3.49823e+06
3.49786e+06
3.49864e+06
3.49862e+06
3.49935e+06
3.49951e+06
3.50035e+06
3.50049e+06
3.50066e+06
3.49211e+06
3.49388e+06
3.49292e+06
3.49404e+06
3.49391e+06
3.49477e+06
3.49496e+06
3.49588e+06
3.49605e+06
3.49623e+06
3.4865e+06
3.48893e+06
3.48758e+06
3.48896e+06
3.48873e+06
3.48965e+06
3.48989e+06
3.49085e+06
3.49106e+06
3.49125e+06
3.48062e+06
3.4835e+06
3.48191e+06
3.4834e+06
3.48306e+06
3.48395e+06
3.48424e+06
3.4852e+06
3.48545e+06
3.48565e+06
3.47451e+06
3.47753e+06
3.4758e+06
3.47724e+06
3.47689e+06
3.47764e+06
3.47798e+06
3.47886e+06
3.47914e+06
3.47936e+06
3.46832e+06
3.47107e+06
3.46935e+06
3.47053e+06
3.4702e+06
3.47067e+06
3.47103e+06
3.47174e+06
3.47204e+06
3.47228e+06
3.46198e+06
3.46416e+06
3.46264e+06
3.46334e+06
3.46303e+06
3.46305e+06
3.46336e+06
3.46374e+06
3.46404e+06
3.46429e+06
3.45576e+06
3.45706e+06
3.45585e+06
3.45586e+06
3.45549e+06
3.45483e+06
3.45494e+06
3.45473e+06
3.45498e+06
3.45526e+06
3.44998e+06
3.45026e+06
3.44933e+06
3.44845e+06
3.44784e+06
3.4462e+06
3.44584e+06
3.44461e+06
3.44471e+06
3.44501e+06
3.44573e+06
3.44476e+06
3.4438e+06
3.44179e+06
3.4406e+06
3.4375e+06
3.43616e+06
3.43324e+06
3.43307e+06
3.43336e+06
3.44349e+06
3.44155e+06
3.44043e+06
3.43707e+06
3.43472e+06
3.42949e+06
3.42631e+06
3.4205e+06
3.41975e+06
3.41995e+06
3.44579e+06
3.44307e+06
3.44132e+06
3.4363e+06
3.43187e+06
3.42379e+06
3.4175e+06
3.40648e+06
3.40467e+06
3.40464e+06
3.45566e+06
3.45238e+06
3.44934e+06
3.44226e+06
3.43459e+06
3.42263e+06
3.41069e+06
3.39196e+06
3.38764e+06
3.38702e+06
3.47785e+06
3.47412e+06
3.46906e+06
3.45924e+06
3.44701e+06
3.42958e+06
3.40866e+06
3.37916e+06
3.36921e+06
3.36758e+06
3.5179e+06
3.5139e+06
3.50638e+06
3.49319e+06
3.47536e+06
3.45072e+06
3.41798e+06
3.37443e+06
3.3514e+06
3.34783e+06
3.58279e+06
3.57873e+06
3.5687e+06
3.55231e+06
3.52899e+06
3.4968e+06
3.45189e+06
3.38993e+06
3.33942e+06
3.33342e+06
3.67683e+06
3.67302e+06
3.66117e+06
3.64227e+06
3.61396e+06
3.57462e+06
3.51696e+06
3.42984e+06
3.33336e+06
3.32332e+06
3.80056e+06
3.79699e+06
3.78362e+06
3.76234e+06
3.72995e+06
3.68262e+06
3.60866e+06
3.50117e+06
3.37385e+06
3.33718e+06
3.9449e+06
3.94316e+06
3.93393e+06
3.91904e+06
3.89566e+06
3.85582e+06
3.79116e+06
3.68654e+06
3.45064e+06
3.11933e+06
4.11028e+06
4.11091e+06
4.10887e+06
4.10713e+06
4.10547e+06
4.10214e+06
4.10387e+06
4.10019e+06
4.02374e+06
3.9751e+06
4.25121e+06
4.37229e+06
4.43122e+06
4.45914e+06
4.47479e+06
4.48371e+06
4.48922e+06
4.2153e+06
4.21644e+06
4.21632e+06
4.2174e+06
4.21906e+06
4.22166e+06
4.22848e+06
4.23825e+06
4.24923e+06
4.30074e+06
4.38344e+06
4.41974e+06
4.44922e+06
4.46644e+06
4.47795e+06
4.4852e+06
4.48997e+06
4.31332e+06
4.31465e+06
4.31567e+06
4.3184e+06
4.3222e+06
4.32746e+06
4.33569e+06
4.34486e+06
4.35374e+06
4.37778e+06
4.4143e+06
4.44002e+06
4.45933e+06
4.47213e+06
4.48093e+06
4.48683e+06
4.49085e+06
4.36878e+06
4.37e+06
4.37138e+06
4.37436e+06
4.37844e+06
4.38412e+06
4.39172e+06
4.40134e+06
4.4134e+06
4.42923e+06
4.44559e+06
4.45886e+06
4.46989e+06
4.47813e+06
4.48431e+06
4.48876e+06
4.49196e+06
4.41309e+06
4.41397e+06
4.41496e+06
4.41711e+06
4.41998e+06
4.42391e+06
4.42894e+06
4.43497e+06
4.44212e+06
4.45113e+06
4.46081e+06
4.46943e+06
4.47675e+06
4.48255e+06
4.48706e+06
4.49047e+06
4.49301e+06
4.43872e+06
4.43944e+06
4.44031e+06
4.44208e+06
4.44439e+06
4.44749e+06
4.45131e+06
4.45585e+06
4.46103e+06
4.4667e+06
4.47239e+06
4.47766e+06
4.48233e+06
4.48627e+06
4.48948e+06
4.49202e+06
4.494e+06
4.45768e+06
4.45824e+06
4.45878e+06
4.45993e+06
4.46143e+06
4.46345e+06
4.46591e+06
4.46882e+06
4.47211e+06
4.47574e+06
4.47946e+06
4.48301e+06
4.48623e+06
4.48903e+06
4.49139e+06
4.49332e+06
4.49487e+06
4.46933e+06
4.46979e+06
4.4702e+06
4.47107e+06
4.47217e+06
4.47365e+06
4.47541e+06
4.47747e+06
4.47974e+06
4.48217e+06
4.48463e+06
4.48701e+06
4.48923e+06
4.49122e+06
4.49295e+06
4.49442e+06
4.49562e+06
4.47787e+06
4.47813e+06
4.47838e+06
4.47897e+06
4.4797e+06
4.48069e+06
4.48187e+06
4.48325e+06
4.48479e+06
4.48646e+06
4.48816e+06
4.48984e+06
4.49144e+06
4.4929e+06
4.49419e+06
4.49531e+06
4.49626e+06
4.4834e+06
4.4836e+06
4.48378e+06
4.48421e+06
4.48474e+06
4.48546e+06
4.48631e+06
4.4873e+06
4.48839e+06
4.48957e+06
4.49077e+06
4.49197e+06
4.49313e+06
4.49421e+06
4.49519e+06
4.49605e+06
4.4968e+06
4.48743e+06
4.48758e+06
4.4877e+06
4.48801e+06
4.48837e+06
4.48888e+06
4.48948e+06
4.49018e+06
4.49096e+06
4.4918e+06
4.49267e+06
4.49355e+06
4.49441e+06
4.49523e+06
4.49598e+06
4.49666e+06
4.49725e+06
4.49776e+06
4.49818e+06
4.49024e+06
4.49035e+06
4.49044e+06
4.49067e+06
4.49094e+06
4.49132e+06
4.49175e+06
4.49227e+06
4.49284e+06
4.49346e+06
4.49411e+06
4.49477e+06
4.49542e+06
4.49604e+06
4.49662e+06
4.49715e+06
4.49762e+06
4.49804e+06
4.49839e+06
4.49233e+06
4.49242e+06
4.49248e+06
4.49265e+06
4.49285e+06
4.49312e+06
4.49344e+06
4.49383e+06
4.49425e+06
4.49471e+06
4.4952e+06
4.4957e+06
4.4962e+06
4.49668e+06
4.49714e+06
4.49756e+06
4.49794e+06
4.49827e+06
4.49856e+06
4.49386e+06
4.49394e+06
4.49397e+06
4.49411e+06
4.49425e+06
4.49447e+06
4.49471e+06
4.495e+06
4.49532e+06
4.49567e+06
4.49605e+06
4.49643e+06
4.49682e+06
4.49719e+06
4.49756e+06
4.49789e+06
4.4982e+06
4.49848e+06
4.49872e+06
4.49503e+06
4.49509e+06
4.49512e+06
4.49522e+06
4.49533e+06
4.49549e+06
4.49567e+06
4.4959e+06
4.49614e+06
4.49642e+06
4.49671e+06
4.49701e+06
4.49731e+06
4.49761e+06
4.4979e+06
4.49817e+06
4.49842e+06
4.49865e+06
4.49885e+06
4.49592e+06
4.49597e+06
4.49599e+06
4.49607e+06
4.49615e+06
4.49628e+06
4.49642e+06
4.4966e+06
4.49679e+06
4.497e+06
4.49723e+06
4.49747e+06
4.49771e+06
4.49795e+06
4.49818e+06
4.4984e+06
4.49861e+06
4.49879e+06
4.49896e+06
4.49661e+06
4.49665e+06
4.49667e+06
4.49673e+06
4.4968e+06
4.4969e+06
4.49701e+06
4.49714e+06
4.4973e+06
4.49747e+06
4.49765e+06
4.49784e+06
4.49803e+06
4.49822e+06
4.49841e+06
4.49859e+06
4.49876e+06
4.49892e+06
4.49905e+06
4.49716e+06
4.49719e+06
4.4972e+06
4.49725e+06
4.4973e+06
4.49738e+06
4.49747e+06
4.49758e+06
4.4977e+06
4.49784e+06
4.49798e+06
4.49814e+06
4.49829e+06
4.49845e+06
4.4986e+06
4.49875e+06
4.49889e+06
4.49902e+06
4.49914e+06
4.49759e+06
4.49762e+06
4.49763e+06
4.49767e+06
4.49771e+06
4.49777e+06
4.49784e+06
4.49793e+06
4.49803e+06
4.49814e+06
4.49826e+06
4.49838e+06
4.49851e+06
4.49864e+06
4.49876e+06
4.49889e+06
4.499e+06
4.49911e+06
4.49921e+06
4.49794e+06
4.49796e+06
4.49797e+06
4.498e+06
4.49803e+06
4.49808e+06
4.49814e+06
4.49821e+06
4.49829e+06
4.49838e+06
4.49848e+06
4.49858e+06
4.49869e+06
4.49879e+06
4.4989e+06
4.499e+06
4.49909e+06
4.49918e+06
4.49927e+06
4.49822e+06
4.49824e+06
4.49824e+06
4.49827e+06
4.4983e+06
4.49834e+06
4.49839e+06
4.49845e+06
4.49851e+06
4.49858e+06
4.49866e+06
4.49875e+06
4.49883e+06
4.49892e+06
4.49901e+06
4.49909e+06
4.49917e+06
4.49925e+06
4.49932e+06
4.49845e+06
4.49847e+06
4.49847e+06
4.49849e+06
4.49851e+06
4.49855e+06
4.49859e+06
4.49864e+06
4.49869e+06
4.49875e+06
4.49881e+06
4.49888e+06
4.49895e+06
4.49903e+06
4.4991e+06
4.49917e+06
4.49924e+06
4.4993e+06
4.49936e+06
4.49864e+06
4.49865e+06
4.49865e+06
4.49867e+06
4.49869e+06
4.49872e+06
4.49875e+06
4.49879e+06
4.49884e+06
4.49889e+06
4.49894e+06
4.499e+06
4.49906e+06
4.49912e+06
4.49918e+06
4.49924e+06
4.49929e+06
4.49935e+06
4.4994e+06
4.49879e+06
4.49881e+06
4.49881e+06
4.49882e+06
4.49884e+06
4.49886e+06
4.49889e+06
4.49892e+06
4.49896e+06
4.499e+06
4.49904e+06
4.49909e+06
4.49914e+06
4.49919e+06
4.49924e+06
4.49929e+06
4.49934e+06
4.49939e+06
4.49943e+06
4.49892e+06
4.49893e+06
4.49893e+06
4.49895e+06
4.49896e+06
4.49898e+06
4.499e+06
4.49903e+06
4.49906e+06
4.49909e+06
4.49913e+06
4.49917e+06
4.49921e+06
4.49926e+06
4.4993e+06
4.49934e+06
4.49938e+06
4.49942e+06
4.49946e+06
4.49903e+06
4.49904e+06
4.49904e+06
4.49905e+06
4.49906e+06
4.49908e+06
4.4991e+06
4.49912e+06
4.49914e+06
4.49917e+06
4.49921e+06
4.49924e+06
4.49927e+06
4.49931e+06
4.49935e+06
4.49938e+06
4.49941e+06
4.49945e+06
4.49948e+06
4.49912e+06
4.49913e+06
4.49913e+06
4.49914e+06
4.49915e+06
4.49916e+06
4.49918e+06
4.49919e+06
4.49922e+06
4.49924e+06
4.49927e+06
4.4993e+06
4.49932e+06
4.49935e+06
4.49938e+06
4.49941e+06
4.49944e+06
4.49947e+06
4.4995e+06
4.49919e+06
4.4992e+06
4.4992e+06
4.49921e+06
4.49922e+06
4.49923e+06
4.49924e+06
4.49926e+06
4.49928e+06
4.4993e+06
4.49932e+06
4.49934e+06
4.49937e+06
4.49939e+06
4.49942e+06
4.49944e+06
4.49947e+06
4.49949e+06
4.49951e+06
4.49926e+06
4.49926e+06
4.49926e+06
4.49927e+06
4.49928e+06
4.49929e+06
4.4993e+06
4.49931e+06
4.49933e+06
4.49934e+06
4.49936e+06
4.49938e+06
4.4994e+06
4.49942e+06
4.49945e+06
4.49947e+06
4.49949e+06
4.49951e+06
4.49953e+06
4.49931e+06
4.49932e+06
4.49932e+06
4.49932e+06
4.49933e+06
4.49934e+06
4.49935e+06
4.49936e+06
4.49937e+06
4.49938e+06
4.4994e+06
4.49942e+06
4.49943e+06
4.49945e+06
4.49947e+06
4.49949e+06
4.4995e+06
4.49952e+06
4.49954e+06
4.49936e+06
4.49936e+06
4.49936e+06
4.49937e+06
4.49937e+06
4.49938e+06
4.49939e+06
4.49939e+06
4.49941e+06
4.49942e+06
4.49943e+06
4.49944e+06
4.49946e+06
4.49947e+06
4.49949e+06
4.4995e+06
4.49952e+06
4.49953e+06
4.49955e+06
4.4994e+06
4.4994e+06
4.4994e+06
4.4994e+06
4.49941e+06
4.49941e+06
4.49942e+06
4.49943e+06
4.49944e+06
4.49945e+06
4.49946e+06
4.49947e+06
4.49948e+06
4.49949e+06
4.49951e+06
4.49952e+06
4.49953e+06
4.49954e+06
4.49955e+06
4.49943e+06
4.49943e+06
4.49943e+06
4.49943e+06
4.49944e+06
4.49944e+06
4.49945e+06
4.49946e+06
4.49946e+06
4.49947e+06
4.49948e+06
4.49949e+06
4.4995e+06
4.49951e+06
4.49952e+06
4.49953e+06
4.49954e+06
4.49955e+06
4.49956e+06
4.49946e+06
4.49946e+06
4.49946e+06
4.49946e+06
4.49947e+06
4.49947e+06
4.49947e+06
4.49948e+06
4.49949e+06
4.49949e+06
4.4995e+06
4.49951e+06
4.49952e+06
4.49952e+06
4.49953e+06
4.49954e+06
4.49955e+06
4.49956e+06
4.49956e+06
4.49948e+06
4.49948e+06
4.49948e+06
4.49949e+06
4.49949e+06
4.49949e+06
4.4995e+06
4.4995e+06
4.4995e+06
4.49951e+06
4.49952e+06
4.49952e+06
4.49953e+06
4.49954e+06
4.49954e+06
4.49955e+06
4.49956e+06
4.49956e+06
4.49957e+06
4.49951e+06
4.49951e+06
4.49951e+06
4.49951e+06
4.49951e+06
4.49951e+06
4.49952e+06
4.49952e+06
4.49952e+06
4.49953e+06
4.49953e+06
4.49954e+06
4.49954e+06
4.49955e+06
4.49955e+06
4.49956e+06
4.49956e+06
4.49957e+06
4.49957e+06
4.49952e+06
4.49952e+06
4.49952e+06
4.49952e+06
4.49953e+06
4.49953e+06
4.49953e+06
4.49953e+06
4.49954e+06
4.49954e+06
4.49954e+06
4.49955e+06
4.49955e+06
4.49956e+06
4.49956e+06
4.49956e+06
4.49957e+06
4.49957e+06
4.49958e+06
4.49955e+06
4.49955e+06
4.49955e+06
4.49955e+06
4.49955e+06
4.49955e+06
4.49955e+06
4.49955e+06
4.49955e+06
4.49955e+06
4.49956e+06
4.49956e+06
4.49956e+06
4.49956e+06
4.49957e+06
4.49957e+06
4.49957e+06
4.49957e+06
4.49958e+06
4.49955e+06
4.49955e+06
4.49955e+06
4.49955e+06
4.49956e+06
4.49956e+06
4.49956e+06
4.49956e+06
4.49956e+06
4.49956e+06
4.49957e+06
4.49957e+06
4.49957e+06
4.49957e+06
4.49957e+06
4.49958e+06
4.49958e+06
4.49958e+06
4.49958e+06
4.49958e+06
4.49958e+06
4.49958e+06
4.49958e+06
4.49958e+06
4.49958e+06
4.49958e+06
4.49958e+06
4.49958e+06
4.49958e+06
4.49958e+06
4.49958e+06
4.49958e+06
4.49958e+06
4.49958e+06
4.49958e+06
4.49958e+06
4.49958e+06
4.49958e+06
3.42106e+06
3.42447e+06
3.42283e+06
3.42396e+06
3.42301e+06
3.42273e+06
3.42263e+06
3.42132e+06
3.41996e+06
3.42484e+06
3.42236e+06
3.42421e+06
3.42299e+06
3.42304e+06
3.42295e+06
3.42164e+06
3.42255e+06
3.42476e+06
3.42484e+06
3.42586e+06
3.42638e+06
3.42979e+06
3.4372e+06
3.42009e+06
3.42549e+06
3.42223e+06
3.42459e+06
3.42313e+06
3.42345e+06
3.42341e+06
3.42208e+06
3.42301e+06
3.42551e+06
3.4259e+06
3.42696e+06
3.42818e+06
3.4323e+06
3.43963e+06
3.42046e+06
3.42613e+06
3.42236e+06
3.42511e+06
3.42349e+06
3.42403e+06
3.42403e+06
3.42268e+06
3.42361e+06
3.4264e+06
3.42731e+06
3.42835e+06
3.4305e+06
3.43516e+06
3.44235e+06
3.42119e+06
3.4269e+06
3.42281e+06
3.4258e+06
3.42407e+06
3.42481e+06
3.42483e+06
3.42347e+06
3.42438e+06
3.42738e+06
3.42918e+06
3.43015e+06
3.43344e+06
3.4384e+06
3.44536e+06
3.42201e+06
3.42752e+06
3.42349e+06
3.4267e+06
3.4249e+06
3.42585e+06
3.42583e+06
3.42449e+06
3.4253e+06
3.42839e+06
3.43155e+06
3.43243e+06
3.43703e+06
3.44199e+06
3.44867e+06
3.42364e+06
3.42871e+06
3.42468e+06
3.42792e+06
3.426e+06
3.4272e+06
3.42699e+06
3.42577e+06
3.42632e+06
3.42938e+06
3.43438e+06
3.43515e+06
3.44122e+06
3.44592e+06
3.45225e+06
3.42586e+06
3.43029e+06
3.42633e+06
3.42955e+06
3.42744e+06
3.42893e+06
3.42831e+06
3.42734e+06
3.4274e+06
3.4303e+06
3.43755e+06
3.43834e+06
3.44595e+06
3.45014e+06
3.45608e+06
3.42868e+06
3.43247e+06
3.42859e+06
3.4318e+06
3.42935e+06
3.43114e+06
3.42978e+06
3.42924e+06
3.42848e+06
3.43107e+06
3.4409e+06
3.44203e+06
3.45108e+06
3.45464e+06
3.46011e+06
3.43146e+06
3.43515e+06
3.43166e+06
3.43488e+06
3.43199e+06
3.43403e+06
3.43156e+06
3.43168e+06
3.42958e+06
3.43173e+06
3.44431e+06
3.44643e+06
3.45652e+06
3.45947e+06
3.46431e+06
3.43658e+06
3.43936e+06
3.43624e+06
3.43912e+06
3.43574e+06
3.43787e+06
3.43392e+06
3.43486e+06
3.4308e+06
3.43231e+06
3.44767e+06
3.45186e+06
3.46216e+06
3.46468e+06
3.46867e+06
3.44378e+06
3.44519e+06
3.44275e+06
3.44493e+06
3.4411e+06
3.44309e+06
3.4373e+06
3.43902e+06
3.43276e+06
3.43349e+06
3.45109e+06
3.45868e+06
3.4679e+06
3.4703e+06
3.47314e+06
3.45351e+06
3.45316e+06
3.45179e+06
3.4529e+06
3.44875e+06
3.45025e+06
3.44221e+06
3.44535e+06
3.43641e+06
3.43677e+06
3.45493e+06
3.46653e+06
3.47374e+06
3.47628e+06
3.47775e+06
3.46532e+06
3.46319e+06
3.46385e+06
3.4638e+06
3.4597e+06
3.46043e+06
3.45005e+06
3.45479e+06
3.44226e+06
3.44292e+06
3.45954e+06
3.47461e+06
3.47976e+06
3.48246e+06
3.48251e+06
3.48208e+06
3.47822e+06
3.47999e+06
3.47823e+06
3.47449e+06
3.47379e+06
3.46223e+06
3.46794e+06
3.45214e+06
3.45309e+06
3.46626e+06
3.48343e+06
3.48653e+06
3.48898e+06
3.48758e+06
3.50258e+06
3.49765e+06
3.49991e+06
3.49667e+06
3.49351e+06
3.49099e+06
3.47949e+06
3.48505e+06
3.46665e+06
3.46803e+06
3.47659e+06
3.49375e+06
3.49459e+06
3.49602e+06
3.49309e+06
3.52617e+06
3.52155e+06
3.52331e+06
3.51938e+06
3.51681e+06
3.51266e+06
3.50314e+06
3.50644e+06
3.48815e+06
3.4893e+06
3.49289e+06
3.50646e+06
3.50455e+06
3.50374e+06
3.4991e+06
3.54914e+06
3.54801e+06
3.5488e+06
3.54552e+06
3.54377e+06
3.53933e+06
3.53404e+06
3.53416e+06
3.52338e+06
3.52078e+06
3.51533e+06
3.52217e+06
3.5164e+06
3.51213e+06
3.50558e+06
3.57455e+06
3.57536e+06
3.57437e+06
3.57262e+06
3.57189e+06
3.56878e+06
3.5689e+06
3.56767e+06
3.56836e+06
3.56093e+06
3.54267e+06
3.53987e+06
3.52932e+06
3.52073e+06
3.51218e+06
3.59685e+06
3.59941e+06
3.59692e+06
3.59697e+06
3.59735e+06
3.59622e+06
3.60132e+06
3.60051e+06
3.61032e+06
3.59829e+06
3.57321e+06
3.55643e+06
3.54224e+06
3.52875e+06
3.5185e+06
3.61405e+06
3.61759e+06
3.61437e+06
3.61577e+06
3.61699e+06
3.61742e+06
3.62589e+06
3.62505e+06
3.64076e+06
3.62342e+06
3.6e+06
3.56814e+06
3.55323e+06
3.53515e+06
3.524e+06
3.62567e+06
3.62962e+06
3.62604e+06
3.62802e+06
3.62942e+06
3.63054e+06
3.63994e+06
3.63794e+06
3.65572e+06
3.63535e+06
3.6175e+06
3.57537e+06
3.56105e+06
3.5398e+06
3.52833e+06
3.63175e+06
3.63568e+06
3.63223e+06
3.63447e+06
3.63538e+06
3.63663e+06
3.64457e+06
3.64113e+06
3.65739e+06
3.63742e+06
3.62502e+06
3.5802e+06
3.56571e+06
3.54309e+06
3.53146e+06
3.63409e+06
3.63788e+06
3.63465e+06
3.63685e+06
3.63692e+06
3.63818e+06
3.64328e+06
3.63951e+06
3.65206e+06
3.63448e+06
3.62585e+06
3.58434e+06
3.56804e+06
3.54557e+06
3.53355e+06
3.63426e+06
3.63744e+06
3.63464e+06
3.63662e+06
3.63609e+06
3.63761e+06
3.63994e+06
3.63769e+06
3.64516e+06
3.63171e+06
3.6251e+06
3.58846e+06
3.56908e+06
3.54754e+06
3.53479e+06
3.63369e+06
3.63525e+06
3.63305e+06
3.63472e+06
3.6342e+06
3.6364e+06
3.63738e+06
3.63813e+06
3.64095e+06
3.63419e+06
3.62777e+06
3.59379e+06
3.56961e+06
3.54918e+06
3.53537e+06
3.63051e+06
3.63067e+06
3.62965e+06
3.63107e+06
3.6312e+06
3.63429e+06
3.63552e+06
3.63954e+06
3.64034e+06
3.64022e+06
3.63215e+06
3.60073e+06
3.56923e+06
3.62464e+06
3.62366e+06
3.62388e+06
3.62502e+06
3.62589e+06
3.62954e+06
3.63131e+06
3.63772e+06
3.63769e+06
3.64215e+06
3.63151e+06
3.60652e+06
3.56746e+06
3.616e+06
3.61441e+06
3.61553e+06
3.61635e+06
3.61764e+06
3.62107e+06
3.62285e+06
3.62915e+06
3.62791e+06
3.63418e+06
3.62299e+06
3.60592e+06
3.56529e+06
3.60591e+06
3.60396e+06
3.6052e+06
3.60564e+06
3.60684e+06
3.60938e+06
3.61052e+06
3.61511e+06
3.61259e+06
3.61841e+06
3.60889e+06
3.59835e+06
3.56328e+06
3.59377e+06
3.59246e+06
3.59354e+06
3.59379e+06
3.59459e+06
3.59601e+06
3.59634e+06
3.59869e+06
3.59559e+06
3.59981e+06
3.59282e+06
3.58658e+06
3.55972e+06
3.58157e+06
3.58105e+06
3.58172e+06
3.58182e+06
3.58212e+06
3.5825e+06
3.58208e+06
3.58241e+06
3.57939e+06
3.58187e+06
3.57731e+06
3.57373e+06
3.55466e+06
3.57027e+06
3.57032e+06
3.57056e+06
3.57054e+06
3.57038e+06
3.56995e+06
3.56899e+06
3.5678e+06
3.56526e+06
3.56607e+06
3.56355e+06
3.5615e+06
3.54865e+06
3.56048e+06
3.56078e+06
3.56068e+06
3.56054e+06
3.56002e+06
3.55911e+06
3.55782e+06
3.55579e+06
3.55403e+06
3.55355e+06
3.55309e+06
3.55182e+06
3.54428e+06
3.55231e+06
3.55261e+06
3.55235e+06
3.55209e+06
3.5514e+06
3.55031e+06
3.54884e+06
3.54659e+06
3.54535e+06
3.54363e+06
3.54447e+06
3.54369e+06
3.5392e+06
3.54577e+06
3.54583e+06
3.5456e+06
3.54518e+06
3.54443e+06
3.54328e+06
3.54179e+06
3.53996e+06
3.53921e+06
3.5377e+06
3.54011e+06
3.53967e+06
3.53775e+06
3.54067e+06
3.54039e+06
3.5403e+06
3.5397e+06
3.53896e+06
3.53767e+06
3.53598e+06
3.53398e+06
3.53203e+06
3.53073e+06
3.53196e+06
3.53243e+06
3.52944e+06
3.5371e+06
3.53647e+06
3.53664e+06
3.53594e+06
3.53543e+06
3.53428e+06
3.53299e+06
3.53138e+06
3.52975e+06
3.52948e+06
3.5346e+06
3.53365e+06
3.53411e+06
3.53338e+06
3.53317e+06
3.53231e+06
3.53156e+06
3.53059e+06
3.52997e+06
3.52993e+06
3.53291e+06
3.53173e+06
3.5324e+06
3.53166e+06
3.53173e+06
3.5311e+06
3.53074e+06
3.53019e+06
3.52991e+06
3.5299e+06
3.53163e+06
3.53032e+06
3.53118e+06
3.53048e+06
3.53075e+06
3.53033e+06
3.53022e+06
3.52995e+06
3.52986e+06
3.52988e+06
3.53058e+06
3.52928e+06
3.53025e+06
3.52961e+06
3.53002e+06
3.52974e+06
3.52977e+06
3.52967e+06
3.52967e+06
3.5297e+06
3.52962e+06
3.52844e+06
3.52941e+06
3.52889e+06
3.52935e+06
3.52919e+06
3.52934e+06
3.52936e+06
3.52941e+06
3.52945e+06
3.52874e+06
3.52777e+06
3.52868e+06
3.52826e+06
3.52867e+06
3.52861e+06
3.52886e+06
3.52896e+06
3.52903e+06
3.52908e+06
3.52776e+06
3.52705e+06
3.52786e+06
3.52757e+06
3.528e+06
3.528e+06
3.52828e+06
3.52844e+06
3.52852e+06
3.52858e+06
3.52682e+06
3.52636e+06
3.527e+06
3.5268e+06
3.52725e+06
3.5273e+06
3.52759e+06
3.52778e+06
3.52788e+06
3.52794e+06
3.52583e+06
3.52553e+06
3.5261e+06
3.52597e+06
3.5264e+06
3.52647e+06
3.52677e+06
3.52698e+06
3.52708e+06
3.52715e+06
3.52484e+06
3.52462e+06
3.52513e+06
3.52501e+06
3.52544e+06
3.5255e+06
3.5258e+06
3.52602e+06
3.52612e+06
3.52621e+06
3.52382e+06
3.52354e+06
3.52407e+06
3.52391e+06
3.52434e+06
3.52437e+06
3.52467e+06
3.5249e+06
3.525e+06
3.52509e+06
3.52273e+06
3.52228e+06
3.52289e+06
3.52263e+06
3.52307e+06
3.52307e+06
3.52336e+06
3.5236e+06
3.52369e+06
3.52379e+06
3.52152e+06
3.5208e+06
3.52153e+06
3.52115e+06
3.52161e+06
3.52157e+06
3.52186e+06
3.52212e+06
3.5222e+06
3.52231e+06
3.52009e+06
3.51908e+06
3.51994e+06
3.51944e+06
3.51991e+06
3.51986e+06
3.52015e+06
3.52044e+06
3.52051e+06
3.52063e+06
3.51831e+06
3.51708e+06
3.51805e+06
3.51747e+06
3.51794e+06
3.5179e+06
3.51818e+06
3.5185e+06
3.51857e+06
3.5187e+06
3.51611e+06
3.51479e+06
3.5158e+06
3.51522e+06
3.51566e+06
3.51567e+06
3.51592e+06
3.5163e+06
3.51636e+06
3.5165e+06
3.5134e+06
3.51219e+06
3.51314e+06
3.51266e+06
3.51306e+06
3.51316e+06
3.51337e+06
3.51382e+06
3.51388e+06
3.51403e+06
3.51016e+06
3.50926e+06
3.51002e+06
3.50975e+06
3.51011e+06
3.51033e+06
3.51049e+06
3.51103e+06
3.51109e+06
3.51125e+06
3.50634e+06
3.50596e+06
3.50644e+06
3.50647e+06
3.50671e+06
3.50709e+06
3.50724e+06
3.50788e+06
3.50796e+06
3.50813e+06
3.50197e+06
3.50228e+06
3.50238e+06
3.50277e+06
3.50289e+06
3.50344e+06
3.50359e+06
3.50434e+06
3.50444e+06
3.50461e+06
3.49713e+06
3.49823e+06
3.49786e+06
3.49864e+06
3.49862e+06
3.49935e+06
3.49951e+06
3.50035e+06
3.50049e+06
3.50066e+06
3.49211e+06
3.49388e+06
3.49292e+06
3.49404e+06
3.49391e+06
3.49477e+06
3.49496e+06
3.49588e+06
3.49605e+06
3.49623e+06
3.4865e+06
3.48893e+06
3.48758e+06
3.48896e+06
3.48873e+06
3.48965e+06
3.48989e+06
3.49085e+06
3.49106e+06
3.49125e+06
3.48062e+06
3.4835e+06
3.48191e+06
3.4834e+06
3.48306e+06
3.48395e+06
3.48424e+06
3.4852e+06
3.48545e+06
3.48565e+06
3.47451e+06
3.47753e+06
3.4758e+06
3.47724e+06
3.47689e+06
3.47764e+06
3.47798e+06
3.47886e+06
3.47914e+06