/*--------------------------------*- C++ -*----------------------------------*\
| =========                 |                                                 |
| \\      /  F ield         | OpenFOAM: The Open Source CFD Toolbox           |
|  \\    /   O peration     | Version:  v2012                                 |
|   \\  /    A nd           | Website:  www.openfoam.com                      |
|    \\/     M anipulation  |                                                 |
\*---------------------------------------------------------------------------*/
FoamFile
{
    version     2.0;
    format      ascii;
    class       volVectorField;
    location    "0.2";
    object      U;
}
// * * * * * * * * * * * * * * * * * * * * * * * * * * * * * * * * * * * * * //

dimensions      [0 1 -1 0 0 0 0];


internalField   nonuniform List<vector> 
3332
(
(0.106469 -47.6508 -0.000929288)
(-0.189222 -46.1306 0.00165128)
(0.269752 -46.1454 -0.0023539)
(0.25772 -49.3757 -0.00224932)
(0.446809 -51.9154 -0.00389956)
(0.473923 -52.7287 -0.00413641)
(0.55399 -49.0028 -0.00483564)
(0.305645 -36.5435 -0.00267765)
(0.0934612 -47.6394 -0.000815756)
(-0.165799 -46.1787 0.00144682)
(0.244647 -46.638 -0.00213486)
(0.229946 -49.679 -0.00200689)
(0.43567 -52.2547 -0.00380231)
(0.46448 -52.9562 -0.00405401)
(0.535926 -49.0242 -0.00467801)
(0.289817 -36.0494 -0.00254112)
(-0.199652 -23.5761 0.0017608)
(-0.34611 -14.0435 0.00306)
(-0.552062 -6.0681 0.00482613)
(-0.569279 -3.08109 0.00494671)
(-0.59596 -2.79094 0.00518851)
(-0.637209 -2.74097 0.0055552)
(-0.686966 -2.71311 0.00599327)
(0.0787777 -47.6284 -0.000687604)
(-0.13894 -46.2344 0.00121239)
(0.217459 -47.0716 -0.00189763)
(0.212968 -49.9902 -0.00185867)
(0.427326 -52.5992 -0.00372946)
(0.462364 -53.1772 -0.00403557)
(0.517334 -49.0347 -0.0045158)
(0.277529 -35.5374 -0.00243598)
(-0.235967 -23.0782 0.00207742)
(-0.376307 -13.7586 0.00332749)
(-0.596897 -5.81672 0.00522004)
(-0.598886 -2.98632 0.00521033)
(-0.61952 -2.67647 0.00539576)
(-0.654911 -2.61728 0.00571028)
(-0.699141 -2.58692 0.00609978)
(0.0627913 -47.6194 -0.000548079)
(-0.108845 -46.2993 0.000949735)
(0.190015 -47.4548 -0.00165815)
(0.207545 -50.3161 -0.0018113)
(0.422353 -52.9484 -0.00368603)
(0.467675 -53.3896 -0.00408194)
(0.497268 -49.0321 -0.00434072)
(0.269516 -35.0102 -0.00236833)
(-0.270091 -22.5581 0.00237474)
(-0.414048 -13.4556 0.00366035)
(-0.643753 -5.56899 0.00563323)
(-0.628174 -2.89756 0.00547028)
(-0.642602 -2.56779 0.0055987)
(-0.671796 -2.4987 0.00585823)
(-0.710497 -2.46548 0.00619914)
(0.0461047 -47.6142 -0.000402441)
(-0.0766277 -46.3773 0.00066857)
(0.163829 -47.7982 -0.00142964)
(0.213394 -50.6627 -0.00186233)
(0.421288 -53.3018 -0.00367674)
(0.48061 -53.5904 -0.00419486)
(0.474869 -49.0144 -0.00414528)
(0.26723 -34.4724 -0.00235152)
(-0.299588 -22.0074 0.00263177)
(-0.460721 -13.1277 0.00407078)
(-0.690857 -5.33312 0.00605312)
(-0.656787 -2.81528 0.00572356)
(-0.66502 -2.4652 0.00579569)
(-0.687727 -2.38543 0.00599784)
(-0.72097 -2.34887 0.00629079)
(0.029641 -47.6141 -0.000258747)
(-0.0443472 -46.4712 0.000386866)
(0.140651 -48.1134 -0.00122739)
(0.230593 -51.0355 -0.0020124)
(0.425208 -53.6591 -0.00371095)
(0.501036 -53.7761 -0.00437316)
(0.448752 -48.9798 -0.00391737)
(0.272857 -33.9322 -0.00240462)
(-0.322069 -21.4165 0.00282727)
(-0.516396 -12.7668 0.00455878)
(-0.736195 -5.11914 0.00645993)
(-0.684273 -2.73919 0.00596636)
(-0.68652 -2.36876 0.00598451)
(-0.702528 -2.27758 0.00612755)
(-0.73045 -2.23716 0.00637375)
(0.0150316 -47.6199 -0.000131236)
(-0.0149357 -46.5822 0.000130209)
(0.121064 -48.4149 -0.00105645)
(0.258546 -51.4407 -0.00225632)
(0.434463 -54.0195 -0.00379174)
(0.527505 -53.942 -0.00460421)
(0.416596 -48.9273 -0.00363677)
(0.288229 -33.402 -0.00254363)
(-0.336666 -20.7744 0.00295308)
(-0.578373 -12.3681 0.00510073)
(-0.778469 -4.93338 0.00683777)
(-0.710385 -2.66923 0.00619677)
(-0.70691 -2.27842 0.00616353)
(-0.716028 -2.17523 0.00624588)
(-0.738794 -2.1304 0.00644679)
(0.0035975 -47.6317 -3.14361e-05)
(0.00886526 -46.7089 -7.74836e-05)
(0.106566 -48.7189 -0.000929918)
(0.297711 -51.884 -0.00259809)
(0.448659 -54.3792 -0.00391567)
(0.556997 -54.0816 -0.00486168)
(0.375227 -48.8558 -0.00327573)
(0.313663 -32.8985 -0.00277124)
(-0.343303 -20.0704 0.00300833)
(-0.642637 -11.9306 0.00566096)
(-0.817051 -4.77532 0.00717999)
(-0.735298 -2.60594 0.00641636)
(-0.726005 -2.19416 0.00633121)
(-0.728051 -2.07849 0.00635131)
(-0.745799 -2.02864 0.00650813)
(-0.0034776 -47.6496 3.03212e-05)
(0.0249236 -46.8479 -0.000217604)
(0.0983843 -49.0447 -0.00085849)
(0.347404 -52.3696 -0.00303176)
(0.464265 -54.73 -0.00405193)
(0.583359 -54.1868 -0.00509184)
(0.320232 -48.7647 -0.00279573)
(0.347089 -32.4425 -0.00306938)
(-0.343056 -19.2966 0.00300192)
(-0.70714 -11.4561 0.006221)
(-0.852748 -4.64116 0.00749351)
(-0.759416 -2.55077 0.00662858)
(-0.743592 -2.11632 0.00648569)
(-0.738417 -1.98757 0.00644226)
(-0.75119 -1.93197 0.00655537)
(-0.00573718 -47.6729 5.00475e-05)
(0.032472 -46.9959 -0.00028346)
(0.0994153 -49.4119 -0.000867458)
(0.406198 -52.8957 -0.00354487)
(0.475693 -55.0557 -0.00415176)
(0.597603 -54.2478 -0.00521625)
(0.246972 -48.652 -0.00215631)
(0.381671 -32.0581 -0.00337792)
(-0.338765 -18.4449 0.0029579)
(-0.772082 -10.9453 0.00678228)
(-0.886063 -4.52634 0.00778423)
(-0.782944 -2.50535 0.00683512)
(-0.759188 -2.04544 0.00662271)
(-0.746821 -1.90281 0.00651606)
(-0.754535 -1.84053 0.00658474)
(-0.00363991 -47.7014 3.17469e-05)
(0.0318515 -47.1525 -0.000278025)
(0.112306 -49.8405 -0.000979915)
(0.467694 -53.4492 -0.0040816)
(0.473852 -55.3326 -0.00413581)
(0.586843 -54.2535 -0.00512244)
(0.150142 -48.5145 -0.00131116)
(0.402922 -31.7703 -0.00356914)
(-0.335637 -17.515 0.00292095)
(-0.839966 -10.4026 0.0073671)
(-0.916689 -4.42953 0.00805135)
(-0.80582 -2.47173 0.00703557)
(-0.772043 -1.98237 0.00673574)
(-0.752849 -1.82459 0.00656907)
(-0.755287 -1.75449 0.00659146)
(0.00230134 -47.7347 -2.01025e-05)
(0.0244763 -47.321 -0.000213646)
(0.140777 -50.3439 -0.00122836)
(0.520908 -54.0006 -0.00454608)
(0.448513 -55.5295 -0.00391483)
(0.535748 -54.1899 -0.00467659)
(0.022278 -48.3467 -0.000195197)
(0.388012 -31.6012 -0.00344295)
(-0.335418 -16.5121 0.00290961)
(-0.905411 -9.83265 0.00792972)
(-0.941077 -4.35211 0.00826143)
(-0.826936 -2.45101 0.00722035)
(-0.780911 -1.92806 0.00681385)
(-0.755847 -1.75324 0.0065956)
(-0.752739 -1.67405 0.00656938)
(0.0112616 -47.7738 -9.82997e-05)
(0.0118744 -47.5107 -0.000103651)
(0.185063 -50.9225 -0.00161483)
(0.546842 -54.5021 -0.00477253)
(0.389568 -55.6101 -0.00340056)
(0.42596 -54.0396 -0.00371847)
(-0.144508 -48.1408 0.0012605)
(0.319603 -31.5507 -0.00284891)
(-0.351376 -15.4806 0.0030385)
(-0.959136 -9.24724 0.00838993)
(-0.958775 -4.29038 0.00840738)
(-0.844513 -2.44187 0.00737396)
(-0.78494 -1.883 0.00684965)
(-0.755011 -1.68878 0.00658863)
(-0.746192 -1.59932 0.00651236)
(0.0212664 -47.819 -0.000185613)
(-0.00247926 -47.7305 2.16341e-05)
(0.242639 -51.5524 -0.00211732)
(0.525333 -54.8893 -0.00458499)
(0.292156 -55.5341 -0.0025506)
(0.239618 -53.7805 -0.00209214)
(-0.340028 -47.8815 0.00296692)
(0.189244 -31.6385 -0.0017134)
(-0.401108 -14.4566 0.0034535)
(-0.997497 -8.67478 0.00871548)
(-0.971926 -4.23995 0.00851118)
(-0.85709 -2.44372 0.00748366)
(-0.784126 -1.84793 0.00684305)
(-0.749548 -1.63141 0.00654124)
(-0.735083 -1.53044 0.00641552)
(0.0309784 -47.8709 -0.000270372)
(-0.0157248 -47.9898 0.000137266)
(0.302721 -52.1855 -0.00264171)
(0.441743 -55.0946 -0.00385568)
(0.157197 -55.2697 -0.00137292)
(-0.0298255 -53.3977 0.00025954)
(-0.558531 -47.5579 0.00487393)
(-0.0317114 -31.8625 0.000222538)
(-0.474331 -13.4794 0.00406564)
(-1.01264 -8.14594 0.00883839)
(-0.974123 -4.19561 0.00852064)
(-0.860776 -2.4555 0.00751554)
(-0.776894 -1.82332 0.00678031)
(-0.737969 -1.58155 0.00644042)
(-0.718529 -1.46754 0.00627114)
(0.0378705 -47.9299 -0.000330517)
(-0.02322 -48.2911 0.000202705)
(0.351642 -52.754 -0.00306875)
(0.295169 -55.058 -0.00257669)
(-0.0172747 -54.7999 0.000149645)
(-0.363577 -52.872 0.00317246)
(-0.789658 -47.1622 0.00689132)
(-0.374229 -32.1966 0.00323151)
(-0.55156 -12.6545 0.00470102)
(-0.999653 -7.68397 0.00871776)
(-0.956847 -4.15133 0.00836234)
(-0.849733 -2.4724 0.00741865)
(-0.760095 -1.80767 0.00663392)
(-0.718118 -1.53876 0.00626734)
(-0.6953 -1.41021 0.00606847)
(0.0399414 -47.9958 -0.000348583)
(-0.0223019 -48.6247 0.000194709)
(0.370548 -53.1784 -0.00323388)
(0.0942963 -54.7353 -0.00082379)
(-0.230586 -54.1169 0.00201128)
(-0.734569 -52.187 0.00641035)
(-1.01883 -46.6637 0.00889166)
(-0.864563 -32.5921 0.00753118)
(-0.617021 -12.0989 0.00521149)
(-0.947611 -7.30737 0.00825997)
(-0.911562 -4.10368 0.00796141)
(-0.816965 -2.48829 0.00713194)
(-0.729785 -1.79751 0.00636945)
(-0.687595 -1.50146 0.00600105)
(-0.664143 -1.35738 0.00579657)
(0.0364675 -48.0664 -0.00031827)
(-0.0115519 -48.9661 0.000100887)
(0.345308 -53.3804 -0.00301376)
(-0.135074 -54.1138 0.00117787)
(-0.458989 -53.2325 0.00400472)
(-1.08431 -51.3411 0.0094627)
(-1.22426 -46.0242 0.0106849)
(-1.44025 -32.9301 0.012568)
(-0.614171 -11.9637 0.00511574)
(-0.83802 -7.02836 0.00729544)
(-0.82563 -4.04571 0.00720652)
(-0.756369 -2.49411 0.0066021)
(-0.681928 -1.78679 0.00595164)
(-0.644324 -1.46645 0.00562342)
(-0.624085 -1.307 0.00544695)
(0.0267728 -48.1386 -0.000233657)
(0.0070299 -49.2784 -6.12987e-05)
(0.274982 -53.3104 -0.00240015)
(-0.350205 -53.2404 0.00305535)
(-0.65216 -52.204 0.00569076)
(-1.32798 -50.3803 0.0115893)
(-1.34049 -45.2749 0.0116995)
(-1.85997 -33.1603 0.0162331)
(-0.46216 -12.459 0.00378144)
(-0.658318 -6.78217 0.00571023)
(-0.695264 -3.95649 0.0060635)
(-0.667213 -2.47648 0.0058227)
(-0.615789 -1.7676 0.00537411)
(-0.58845 -1.42905 0.00513573)
(-0.57551 -1.25624 0.00502296)
(0.0137487 -48.2093 -0.000119986)
(0.0292704 -49.5297 -0.00025543)
(0.177568 -52.9809 -0.0015501)
(-0.504133 -52.2274 0.00439879)
(-0.760476 -51.1416 0.0066363)
(-1.40346 -49.4235 0.0122481)
(-1.29222 -44.5389 0.0112784)
(-1.94774 -33.3704 0.0169995)
(-0.128857 -13.5638 0.000961917)
(-0.414836 -6.44762 0.00356304)
(-0.537409 -3.81211 0.00468008)
(-0.554869 -2.42285 0.00484076)
(-0.535877 -1.73264 0.00467628)
(-0.522646 -1.38473 0.0045613)
(-0.520484 -1.20242 0.00454264)
(0.000343477 -48.2765 -2.98923e-06)
(0.0505925 -49.7041 -0.000441545)
(0.0781509 -52.4632 -0.000682516)
(-0.573587 -51.2062 0.00500507)
(-0.772339 -50.168 0.00674007)
(-1.30971 -48.6045 0.0114301)
(-1.08634 -43.9553 0.00948183)
(-1.74224 -33.6622 0.0152066)
(0.302826 -15.0419 -0.00274318)
(-0.144081 -5.92153 0.00116686)
(-0.378731 -3.59864 0.00328913)
(-0.432908 -2.33071 0.00377488)
(-0.450859 -1.67757 0.00393385)
(-0.452063 -1.33096 0.00394516)
(-0.462462 -1.14378 0.00403615)
(-0.0115106 -48.3396 0.000100469)
(0.0683988 -49.8071 -0.000596968)
(-0.00617016 -51.854 5.33668e-05)
(-0.565855 -50.2821 0.00493775)
(-0.714526 -49.3725 0.00623575)
(-1.09696 -48.0039 0.00957349)
(-0.817353 -43.6106 0.00713452)
(-1.34806 -34.0344 0.011767)
(0.621895 -16.6954 -0.00548566)
(0.100234 -5.19923 -0.00100925)
(-0.236648 -3.31845 0.00204451)
(-0.317728 -2.20645 0.00276839)
(-0.368328 -1.60316 0.00321319)
(-0.382482 -1.26809 0.00333777)
(-0.404793 -1.08016 0.00353275)
(-0.021016 -48.3989 0.000183429)
(0.0829257 -49.8538 -0.000723765)
(-0.0706365 -51.2319 0.000616)
(-0.510313 -49.5072 0.00445319)
(-0.632261 -48.7828 0.00551798)
(-0.844909 -47.6211 0.00737388)
(-0.598186 -43.5086 0.00522185)
(-0.904593 -34.4362 0.00789657)
(0.689709 -18.2315 -0.00604853)
(0.26967 -4.41492 -0.00252678)
(-0.120439 -2.9978 0.00102972)
(-0.220171 -2.06105 0.00191619)
(-0.292802 -1.51444 0.00255378)
(-0.317878 -1.19835 0.00277384)
(-0.349643 -1.01274 0.00305134)
(-0.0281569 -48.4566 0.000245755)
(0.0940227 -49.8584 -0.000820628)
(-0.121541 -50.6373 0.00106029)
(-0.443975 -48.8795 0.00387437)
(-0.562397 -48.3663 0.00490836)
(-0.626069 -47.3936 0.00546404)
(-0.485231 -43.5706 0.00423601)
(-0.532907 -34.7928 0.0046521)
(0.511107 -19.4779 -0.0044715)
(0.34295 -3.78251 -0.0031944)
(-0.0330866 -2.67915 0.00027015)
(-0.14248 -1.90736 0.001238)
(-0.225084 -1.41826 0.00196265)
(-0.259244 -1.12463 0.00226203)
(-0.297497 -0.943317 0.00259618)
(-0.0322273 -48.5134 0.000281278)
(0.099915 -49.8255 -0.000872069)
(-0.166224 -50.0724 0.00145028)
(-0.390384 -48.3673 0.00340678)
(-0.512101 -48.0642 0.00446944)
(-0.470203 -47.2498 0.00410379)
(-0.450992 -43.6943 0.00393705)
(-0.270369 -35.054 0.00236028)
(0.20462 -20.4006 -0.00178761)
(0.345859 -3.40113 -0.0032534)
(0.032043 -2.40625 -0.000295371)
(-0.0776392 -1.75876 0.000672279)
(-0.162174 -1.32096 0.00141357)
(-0.20448 -1.04953 0.00178401)
(-0.247196 -0.873367 0.00215713)
(-0.031945 -48.5692 0.000278803)
(0.0966944 -49.7482 -0.000843977)
(-0.206663 -49.5269 0.00180324)
(-0.350048 -47.9451 0.00305486)
(-0.463302 -47.8343 0.00404357)
(-0.359208 -47.1486 0.00313514)
(-0.422196 -43.8108 0.00368549)
(-0.0924717 -35.2111 0.000807408)
(-0.0892921 -20.9616 0.000779697)
(0.358596 -3.31818 -0.00335778)
(0.10613 -2.19137 -0.000942642)
(-0.0088661 -1.62226 7.14907e-05)
(-0.095991 -1.22502 0.00083582)
(-0.148933 -0.97381 0.00129913)
(-0.196314 -0.803204 0.001713)
(-0.025905 -48.6218 0.000226088)
(0.0820278 -49.6178 -0.000715994)
(-0.233809 -49.0088 0.0020402)
(-0.304382 -47.6145 0.00265642)
(-0.387818 -47.6728 0.00338481)
(-0.247117 -47.0936 0.00215693)
(-0.33013 -43.9163 0.00288172)
(0.0659553 -35.3168 -0.000575317)
(-0.196388 -21.2252 0.00171401)
(0.505161 -3.59391 -0.00454676)
(0.236619 -1.97883 -0.0020905)
(0.0810552 -1.4837 -0.000716014)
(-0.0169462 -1.12443 0.000145399)
(-0.0150253 -48.6694 0.000131134)
(0.0578886 -49.4403 -0.000505331)
(-0.234957 -48.5553 0.00205029)
(-0.238633 -47.4008 0.00208271)
(-0.271303 -47.6081 0.00236797)
(-0.104646 -47.1238 0.000913585)
(-0.152404 -44.0669 0.00133045)
(0.26538 -35.4683 -0.00231562)
(-0.0609962 -21.4405 0.000532504)
(0.853875 -4.22011 -0.00752776)
(0.438147 -1.64262 -0.00387532)
(0.192537 -1.30699 -0.00169393)
(0.0742038 -1.00748 -0.000651357)
(-0.00275344 -48.7108 2.40263e-05)
(0.0322403 -49.2414 -0.000281488)
(-0.205818 -48.2103 0.00179607)
(-0.15506 -47.3245 0.00135341)
(-0.127912 -47.664 0.00111656)
(0.0517137 -47.2717 -0.000450991)
(0.0737412 -44.3102 -0.000643303)
(0.47928 -35.7363 -0.00418224)
(0.20308 -21.7609 -0.00177199)
(1.21413 -5.00654 -0.0106367)
(0.653951 -1.09205 -0.00580354)
(0.310187 -1.06251 -0.00272494)
(0.163116 -0.867248 -0.00142904)
(0.00674704 -48.748 -5.88931e-05)
(0.013426 -49.0567 -0.000117276)
(-0.156248 -47.9951 0.00136353)
(-0.068985 -47.3792 0.000602251)
(0.00998245 -47.8327 -8.68983e-05)
(0.186943 -47.5262 -0.00163121)
(0.271911 -44.6388 -0.00237287)
(0.628817 -36.1013 -0.00548733)
(0.442199 -22.1281 -0.00385891)
(1.31845 -5.7674 -0.0115217)
(0.80473 -0.457296 -0.00715666)
(0.412739 -0.764292 -0.00361964)
(0.237073 -0.70598 -0.0020757)
(0.0111969 -48.7837 -9.77293e-05)
(0.00620366 -48.9147 -5.42277e-05)
(-0.100914 -47.9005 0.000880651)
(0.00567023 -47.5342 -4.92832e-05)
(0.116192 -48.0788 -0.00101385)
(0.278901 -47.843 -0.00243382)
(0.402686 -45.0128 -0.00351426)
(0.685571 -36.4913 -0.00598279)
(0.584903 -22.4524 -0.00510464)
(1.18853 -6.41614 -0.0103772)
(0.856681 0.061956 -0.00761014)
(0.481995 -0.462647 -0.00422021)
(0.292525 -0.535477 -0.00255965)
(0.0101671 -48.8208 -8.87412e-05)
(0.0101548 -48.8296 -8.86898e-05)
(-0.0524447 -47.8973 0.000457664)
(0.060054 -47.7489 -0.000523923)
(0.181064 -48.3609 -0.00158005)
(0.324025 -48.1794 -0.00282771)
(0.46117 -45.3867 -0.00402477)
(0.669057 -36.8545 -0.00583884)
(0.635133 -22.6935 -0.00554332)
(0.96072 -6.91719 -0.0083858)
(0.820639 0.408748 -0.00726124)
(0.511129 -0.198648 -0.00446936)
(0.330568 -0.371143 -0.0028905)
(0.00513642 -48.8609 -4.4836e-05)
(0.0214534 -48.8024 -0.000187279)
(-0.0178204 -47.95 0.000155488)
(0.0927295 -47.987 -0.00080912)
(0.207495 -48.6451 -0.00181077)
(0.329666 -48.5012 -0.00287702)
(0.460111 -45.7324 -0.00401557)
(0.606848 -37.1659 -0.00529608)
(0.619845 -22.8507 -0.00541007)
(0.711727 -7.27006 -0.00621186)
(0.736803 0.55166 -0.00648316)
(0.512729 -0.00293649 -0.00447808)
(0.356889 -0.231435 -0.00311838)
(-0.00149815 -48.9038 1.30679e-05)
(0.0346375 -48.8215 -0.000302327)
(0.00077843 -48.0262 -6.83763e-06)
(0.106165 -48.2211 -0.0009264)
(0.203915 -48.9062 -0.00177957)
(0.307354 -48.7867 -0.00268237)
(0.417797 -46.0346 -0.00364625)
(0.524222 -37.4167 -0.00457514)
(0.55983 -22.93 -0.0048864)
(0.470241 -7.4545 -0.00410426)
(0.604162 0.563928 -0.00527661)
(0.495455 0.128372 -0.00432067)
(0.375235 -0.119057 -0.00327604)
(-0.00763393 -48.9478 6.66188e-05)
(0.0448787 -48.8693 -0.0003917)
(0.00569281 -48.1024 -4.97371e-05)
(0.105327 -48.4349 -0.000919117)
(0.181814 -49.1308 -0.00158673)
(0.269368 -49.0266 -0.00235089)
(0.354402 -46.2896 -0.00309296)
(0.443938 -37.61 -0.00387458)
(0.478752 -22.9563 -0.00417864)
(0.307005 -7.51814 -0.00267949)
(0.471508 0.293858 -0.00408205)
(0.462464 0.153111 -0.0040298)
(0.379353 -0.0508746 -0.00331006)
(-0.0123051 -48.9895 0.000107387)
(0.0493741 -48.9269 -0.000430933)
(0.00103633 -48.166 -9.10364e-06)
(0.0954397 -48.6213 -0.000832842)
(0.151168 -49.3154 -0.0013193)
(0.224565 -49.223 -0.0019599)
(0.286174 -46.5037 -0.00249753)
(0.372194 -37.759 -0.00324857)
(0.375688 -22.9509 -0.00327923)
(0.191477 -7.39261 -0.00166619)
(0.252643 0.232229 -0.00214632)
(0.371254 0.144144 -0.00322786)
(0.335083 -0.000374218 -0.00292163)
(-0.0153122 -49.0241 0.00013363)
(0.0470727 -48.9792 -0.000410853)
(-0.00973789 -48.2126 8.49288e-05)
(0.0799064 -48.7789 -0.000697289)
(0.11706 -49.4616 -0.00102165)
(0.177178 -49.3815 -0.00154633)
(0.224107 -46.6859 -0.00195585)
(0.313332 -37.8911 -0.00273463)
(0.294047 -22.9824 -0.00256616)
(0.24194 -7.35431 -0.00205147)
(0.121144 -0.27467 -0.00101866)
(0.188952 -0.0334242 -0.00164344)
(0.175472 -0.0181499 -0.00153015)
(-0.0159206 -49.0461 0.000138938)
(0.039155 -49.0126 -0.000341763)
(-0.022879 -48.2398 0.000199624)
(0.0618973 -48.9047 -0.000540129)
(0.0817944 -49.567 -0.000713888)
(0.126694 -49.4975 -0.00110576)
(0.157943 -46.8251 -0.00137846)
(0.227215 -37.9835 -0.00198308)
(0.186426 -22.9398 -0.00162735)
(0.105225 -7.06326 -0.000864005)
(-0.0136415 -49.0571 0.000119044)
(0.0281445 -49.0218 -0.000245681)
(-0.0330811 -48.253 0.000288674)
(0.0482576 -49.0034 -0.000421096)
(0.0558562 -49.6384 -0.000487526)
(0.0901973 -49.5769 -0.000787247)
(0.112497 -46.9283 -0.00098184)
(0.171803 -38.0445 -0.00149948)
(0.143152 -22.8493 -0.00124992)
(0.0123325 -6.99861 -0.000111079)
(-0.0092931 -49.0606 8.10913e-05)
(0.0157718 -49.0085 -0.000137709)
(-0.0384284 -48.2623 0.000335356)
(0.0401371 -49.0851 -0.00035023)
(0.0403905 -49.6893 -0.000352557)
(0.0677602 -49.6372 -0.000591429)
(0.0873583 -47.0198 -0.000762437)
(0.148484 -38.1049 -0.00129591)
(0.131218 -22.7713 -0.00114564)
(0.0188275 -6.88355 -0.000167617)
(-0.00383334 -49.059 3.34392e-05)
(0.00356962 -48.9764 -3.12248e-05)
(-0.0385224 -48.275 0.000336193)
(0.0369052 -49.1562 -0.000322029)
(0.0334231 -49.7271 -0.000291757)
(0.0547054 -49.686 -0.000477496)
(0.0743506 -47.1064 -0.000648914)
(0.136075 -38.1686 -0.0011876)
(0.12609 -22.7048 -0.00110087)
(0.013958 -6.79521 -0.000124713)
(0.00177582 -49.0553 -1.55169e-05)
(-0.00709606 -48.9319 6.18542e-05)
(-0.0335022 -48.2977 0.000292393)
(0.0379244 -49.2217 -0.00033093)
(0.0330064 -49.7571 -0.000288127)
(0.0485052 -49.7285 -0.000423388)
(0.0698963 -47.1913 -0.000610032)
(0.132109 -38.236 -0.00115297)
(0.128166 -22.6412 -0.00111898)
(0.0133245 -6.70033 -0.000119263)
(0.00658093 -49.0511 -5.74559e-05)
(-0.0150906 -48.8826 0.000131626)
(-0.0241922 -48.3343 0.000211151)
(0.0423507 -49.2847 -0.000369566)
(0.0369598 -49.7826 -0.00032264)
(0.0471088 -49.768 -0.000411214)
(0.0707489 -47.2769 -0.00061746)
(0.132216 -38.3073 -0.00115391)
(0.132807 -22.5792 -0.00115949)
(0.0124851 -6.60557 -0.000111966)
(0.00997207 -49.0481 -8.70541e-05)
(-0.0195174 -48.8368 0.000170263)
(-0.0114866 -48.3869 0.000100273)
(0.0490656 -49.3469 -0.000428172)
(0.043549 -49.805 -0.000380157)
(0.0486371 -49.8055 -0.000424562)
(0.0747725 -47.364 -0.000652566)
(0.135022 -38.3819 -0.0011784)
(0.139537 -22.5165 -0.00121823)
(0.0121438 -6.50677 -0.0001091)
(0.0114513 -49.0473 -9.99643e-05)
(-0.0198061 -48.8025 0.000172789)
(0.00337253 -48.4556 -2.94e-05)
(0.0578434 -49.4091 -0.000504784)
(0.0519953 -49.825 -0.000453882)
(0.0517644 -49.8425 -0.000451861)
(0.0806812 -47.453 -0.000704125)
(0.139527 -38.4594 -0.00121773)
(0.147506 -22.4518 -0.00128779)
(0.0119247 -6.40312 -0.000107325)
(0.011147 -49.05 -9.73082e-05)
(-0.0162506 -48.7867 0.000141769)
(0.0192158 -48.5397 -0.000167663)
(0.0678209 -49.4714 -0.00059187)
(0.0609892 -49.8433 -0.000532388)
(0.0559743 -49.8798 -0.000488611)
(0.0877548 -47.544 -0.000765865)
(0.145041 -38.5399 -0.00126587)
(0.156496 -22.3846 -0.00136626)
(0.011856 -6.2938 -0.000106886)
(0.00948448 -49.057 -8.27984e-05)
(-0.0097808 -48.7944 8.53159e-05)
(0.0352207 -48.6375 -0.000307337)
(0.07792 -49.5336 -0.000680018)
(0.069741 -49.86 -0.000608785)
(0.0604756 -49.9177 -0.000527905)
(0.0952687 -47.6375 -0.000831462)
(0.15099 -38.6236 -0.0013178)
(0.166248 -22.3145 -0.0014514)
(0.011832 -6.17824 -0.000106852)
(0.00725217 -49.0691 -6.33161e-05)
(-0.00178348 -48.8278 1.55304e-05)
(0.0500784 -48.7471 -0.000436998)
(0.0874747 -49.5957 -0.000763415)
(0.0778121 -49.8751 -0.000679241)
(0.064593 -49.9567 -0.000563846)
(0.102945 -47.734 -0.000898464)
(0.156965 -38.7108 -0.00136994)
(0.176687 -22.2417 -0.00154252)
(0.0118168 -6.05596 -0.000106906)
(0.00551633 -49.0872 -4.81665e-05)
(0.00577971 -48.8856 -5.04705e-05)
(0.0629133 -48.8663 -0.000549005)
(0.0954634 -49.657 -0.000833146)
(0.0847317 -49.889 -0.000739647)
(0.0677645 -49.9971 -0.000591529)
(0.110559 -47.8338 -0.000964921)
(0.162709 -38.8019 -0.00142007)
(0.187807 -22.1661 -0.00163959)
(0.0118046 -5.92659 -0.000106997)
(0.00548828 -49.1119 -4.79224e-05)
(0.0107103 -48.9625 -9.35023e-05)
(0.0730868 -48.9935 -0.000637783)
(0.100999 -49.7172 -0.000881464)
(0.090299 -49.9019 -0.000788248)
(0.0695669 -50.0395 -0.000607261)
(0.118022 -47.9376 -0.00103005)
(0.168103 -38.8975 -0.00146713)
(0.199689 -22.0881 -0.00174331)
(0.0119027 -5.78973 -0.000108074)
(0.00815904 -49.1437 -7.12332e-05)
(0.0112127 -49.0504 -9.78948e-05)
(0.0805607 -49.1275 -0.000703)
(0.103516 -49.776 -0.000903444)
(0.0945829 -49.9145 -0.000825645)
(0.0699195 -50.0843 -0.000610339)
(0.125399 -48.0461 -0.00109442)
(0.173139 -38.9983 -0.00151107)
(0.212274 -22.0081 -0.00185316)
(0.0121746 -5.64426 -0.000110684)
(0.014072 -49.1829 -0.000122842)
(0.00634505 -49.1393 -5.54293e-05)
(0.0857628 -49.268 -0.000748391)
(0.102706 -49.833 -0.00089638)
(0.0978494 -49.9277 -0.000854158)
(0.068925 -50.1322 -0.000601661)
(0.132762 -48.1601 -0.00115867)
(0.177933 -39.1052 -0.0015529)
(0.225448 -21.9266 -0.00196815)
(0.012569 -5.49045 -0.000114369)
(0.0230825 -49.2298 -0.000201485)
(-0.00362851 -49.2196 3.1592e-05)
(0.0896543 -49.4147 -0.000782343)
(0.0987015 -49.888 -0.00086144)
(0.10062 -49.9422 -0.00087834)
(0.0666204 -50.1837 -0.000581547)
(0.140167 -48.2801 -0.00122331)
(0.182879 -39.2186 -0.00159605)
(0.239427 -21.8437 -0.00209016)
(0.0133213 -5.3276 -0.000121224)
(0.03443 -49.2847 -0.000300525)
(-0.017284 -49.2844 0.000150745)
(0.0933901 -49.5677 -0.000814937)
(0.0921274 -49.9406 -0.000804073)
(0.103502 -49.959 -0.000903491)
(0.0637972 -50.2396 -0.000556905)
(0.148186 -48.4066 -0.00129329)
(0.188435 -39.3391 -0.00164454)
(0.254388 -21.7595 -0.00222075)
(0.0146238 -5.15415 -0.000132921)
(0.0467804 -49.348 -0.000408318)
(-0.0322032 -49.3308 0.000280927)
(0.098273 -49.7266 -0.000857542)
(0.0840628 -49.9907 -0.000733701)
(0.107228 -49.979 -0.000935999)
(0.0611013 -50.3004 -0.000533372)
(0.15721 -48.5405 -0.00137202)
(0.195108 -39.4676 -0.00170277)
(0.270462 -21.6742 -0.00236104)
(0.0165595 -4.96965 -0.000150189)
(0.0585006 -49.4202 -0.000510612)
(-0.045373 -49.3611 0.000395848)
(0.105377 -49.8907 -0.000919531)
(0.0759107 -50.0383 -0.00066257)
(0.112349 -50.0034 -0.000980694)
(0.0593251 -50.3672 -0.000517865)
(0.167692 -48.6821 -0.00146346)
(0.203388 -39.6044 -0.00177502)
(0.287935 -21.5877 -0.00251355)
(0.0192222 -4.77253 -0.000173865)
(0.0678459 -49.502 -0.000592179)
(-0.0536651 -49.3829 0.000468206)
(0.115568 -50.0588 -0.00100847)
(0.0687666 -50.0834 -0.000600241)
(0.119004 -50.0327 -0.00103877)
(0.0596304 -50.4407 -0.000520525)
(0.180216 -48.8324 -0.00157274)
(0.213764 -39.7496 -0.00186558)
(0.30716 -21.4993 -0.00268135)
(0.0226956 -4.56127 -0.000204686)
(0.0733254 -49.5945 -0.000640008)
(-0.0543501 -49.4083 0.000474184)
(0.129017 -50.2288 -0.00112584)
(0.063918 -50.1265 -0.000557949)
(0.127519 -50.0678 -0.00111308)
(0.0625468 -50.522 -0.000545972)
(0.194962 -48.9917 -0.00170142)
(0.226586 -39.9035 -0.00197748)
(0.328387 -21.4087 -0.00286664)
(0.0269898 -4.33398 -0.000242746)
(0.0738653 -49.6988 -0.000644726)
(-0.04552 -49.4524 0.000397129)
(0.145373 -50.3979 -0.0012686)
(0.0622853 -50.1681 -0.000543728)
(0.137852 -50.1095 -0.00120326)
(0.0686849 -50.6125 -0.000599536)
(0.212149 -49.1607 -0.0018514)
(0.242022 -40.0664 -0.00211219)
(0.351934 -21.3149 -0.00307217)
(0.0320789 -4.08866 -0.000287822)
(0.0691187 -49.8163 -0.000603306)
(-0.0266121 -49.5314 0.000232127)
(0.163324 -50.5631 -0.00142529)
(0.0641112 -50.2091 -0.000559693)
(0.149553 -50.1589 -0.00130538)
(0.0779136 -50.7131 -0.000680074)
(0.231589 -49.3399 -0.00202105)
(0.259856 -40.2384 -0.00226784)
(0.378053 -21.2175 -0.00330015)
(0.0378486 -3.82316 -0.000338916)
(0.0593166 -49.948 -0.000517764)
(0.00173012 -49.6592 -1.52065e-05)
(0.181116 -50.7205 -0.00158059)
(0.0690765 -50.2505 -0.000603053)
(0.161998 -50.2167 -0.001414)
(0.089653 -50.8249 -0.000782524)
(0.252965 -49.5299 -0.0022076)
(0.279574 -40.4201 -0.00243994)
(0.407084 -21.1157 -0.00355356)
(0.0442107 -3.53522 -0.000395256)
(0.0456967 -50.0951 -0.000398902)
(0.0368376 -49.845 -0.000321579)
(0.196077 -50.8664 -0.0017112)
(0.0758565 -50.2941 -0.000662246)
(0.173783 -50.2836 -0.00151685)
(0.102595 -50.9485 -0.000895466)
(0.275619 -49.7316 -0.00240532)
(0.30026 -40.6123 -0.00262047)
(0.439389 -21.0096 -0.00383554)
(0.0510566 -3.22245 -0.000455892)
(0.0301424 -50.2576 -0.000263161)
(0.0745404 -50.0905 -0.000650604)
(0.205193 -50.9968 -0.00179081)
(0.0829366 -50.3412 -0.000724053)
(0.183345 -50.3597 -0.0016003)
(0.114994 -51.0849 -0.00100367)
(0.298554 -49.9462 -0.00260549)
(0.320646 -40.8165 -0.00279838)
(0.475411 -20.8998 -0.00414998)
(0.058416 -2.88228 -0.000521057)
(0.0148393 -50.434 -0.000129614)
(0.109535 -50.3879 -0.000956)
(0.205415 -51.1079 -0.00179279)
(0.0873239 -50.3925 -0.000762347)
(0.188113 -50.4451 -0.0016419)
(0.124357 -51.2345 -0.00108537)
(0.319884 -50.175 -0.00279163)
(0.338799 -41.035 -0.00295677)
(0.515515 -20.7883 -0.00450002)
(0.0664113 -2.51174 -0.000591912)
(0.0017478 -50.6202 -1.53735e-05)
(0.136092 -50.7192 -0.00118777)
(0.19395 -51.1956 -0.00169278)
(0.0856904 -50.4478 -0.000748086)
(0.185049 -50.5388 -0.00161515)
(0.127252 -51.3975 -0.00111062)
(0.336522 -50.4193 -0.00293682)
(0.351831 -41.2715 -0.00307045)
(0.559996 -20.6786 -0.00488826)
(0.0756408 -2.10794 -0.000673678)
(-0.00789804 -50.8085 6.87894e-05)
(0.148527 -51.0571 -0.00129632)
(0.167934 -51.2551 -0.00146576)
(0.0734485 -50.5041 -0.000641229)
(0.169377 -50.6378 -0.00147836)
(0.118391 -51.5722 -0.00103324)
(0.342911 -50.6803 -0.00299256)
(0.354938 -41.5314 -0.00309745)
(0.608612 -20.5775 -0.00531254)
(0.0870107 -1.66627 -0.000774201)
(-0.0142967 -50.9849 0.000124607)
(0.141856 -51.3659 -0.00123813)
(0.124276 -51.279 -0.00108475)
(0.0446812 -50.5541 -0.000390138)
(0.133873 -50.7358 -0.00116848)
(0.0896431 -51.7542 -0.000782293)
(0.329282 -50.9583 -0.00287356)
(0.339994 -41.8229 -0.00296685)
(0.65984 -20.4973 -0.00575952)
(0.103395 -1.18475 -0.000918557)
(-0.0194835 -51.1266 0.000169841)
(0.111354 -51.6033 -0.000971963)
(0.0580593 -51.2543 -0.000506841)
(-0.00950421 -50.5831 8.27963e-05)
(0.0667313 -50.8202 -0.00058247)
(0.0274042 -51.9336 -0.000239043)
(0.278465 -51.2516 -0.00242998)
(0.293178 -42.1584 -0.00255797)
(0.708635 -20.4586 -0.0061854)
(0.127017 -0.653684 -0.00112702)
(-0.027497 -51.1972 0.000239736)
(0.0522708 -51.7189 -0.000456365)
(-0.0381637 -51.1572 0.000332965)
(-0.102305 -50.5642 0.00089275)
(-0.0505509 -50.8668 0.000441149)
(-0.0906437 -52.0901 0.000791275)
(0.162031 -51.5534 -0.00141369)
(0.192324 -42.556 -0.0016773)
(0.745713 -20.4991 -0.00650875)
(0.168348 -0.0840381 -0.00149066)
(-0.0439072 -51.1411 0.000382905)
(-0.0415509 -51.6511 0.00036242)
(-0.175785 -50.9476 0.00153408)
(-0.254082 -50.4519 0.00221741)
(-0.245024 -50.8321 0.00213846)
(-0.29738 -52.1831 0.00259558)
(-0.0671114 -51.846 0.000586419)
(-0.0031309 -43.0407 2.92667e-05)
(0.747 -20.6789 -0.00651928)
(0.231246 0.548865 -0.00204183)
(-0.0760824 -50.8788 0.000663654)
(-0.178113 -51.3238 0.00155423)
(-0.371333 -50.5589 0.00324076)
(-0.493007 -50.177 0.00430265)
(-0.550905 -50.6462 0.00480807)
(-0.639587 -52.1383 0.00558214)
(-0.482944 -52.1068 0.00421599)
(-0.362884 -43.6425 0.00317017)
(0.664483 -21.1045 -0.00579799)
(0.337822 1.18243 -0.00297516)
(-0.132797 -50.2977 0.00115856)
(-0.368525 -50.6366 0.00321603)
(-0.647726 -49.8893 0.00565301)
(-0.856613 -49.6356 0.00747603)
(-1.01618 -50.2008 0.00886876)
(-1.1915 -51.8448 0.0103989)
(-1.17712 -52.254 0.0102748)
(-0.991506 -44.3953 0.00865807)
(0.384328 -21.9199 -0.00335093)
(0.475627 1.82407 -0.00417841)
(-0.222926 -49.2468 0.00194508)
(-0.624514 -49.4571 0.00545016)
(-1.03064 -48.7945 0.00899486)
(-1.38468 -48.6768 0.0120847)
(-1.6964 -49.33 0.0148053)
(-2.03718 -51.1169 0.0177794)
(-2.2557 -52.1149 0.0196881)
(-2.0582 -45.303 0.0179697)
(-0.298021 -23.2952 0.00260816)
(0.73132 2.189 -0.00641062)
(-0.350781 -47.5399 0.00306084)
(-0.950519 -47.6201 0.00829537)
(-1.53529 -47.086 0.0133993)
(-2.1006 -47.0964 0.0183328)
(-2.63229 -47.805 0.0229731)
(-3.2353 -49.6715 0.0282356)
(-3.80515 -51.3539 0.03321)
(-3.81434 -46.242 0.0332988)
(-1.79255 -25.5113 0.0156587)
(1.18986 2.25734 -0.0104015)
(-0.512771 -44.9942 0.00447451)
(-1.33492 -44.9607 0.0116503)
(-2.14675 -44.5679 0.0187358)
(-2.98694 -44.6808 0.0260683)
(-3.81322 -45.3946 0.0332795)