/*--------------------------------*- C++ -*----------------------------------*\
| =========                 |                                                 |
| \\      /  F ield         | OpenFOAM: The Open Source CFD Toolbox           |
|  \\    /   O peration     | Version:  v2012                                 |
|   \\  /    A nd           | Website:  www.openfoam.com                      |
|    \\/     M anipulation  |                                                 |
\*---------------------------------------------------------------------------*/
FoamFile
{
    version     2.0;
    format      ascii;
    class       volVectorField;
    location    "0.35";
    object      U;
}
// * * * * * * * * * * * * * * * * * * * * * * * * * * * * * * * * * * * * * //

dimensions      [0 1 -1 0 0 0 0];


internalField   nonuniform List<vector> 
2650
(
(-0.124815 -44.4635 0.001149)
(0.620896 -38.8036 -0.00542718)
(0.881369 -33.5551 -0.00769834)
(-0.694404 -25.863 0.00605397)
(0.975536 -12.0149 -0.00851902)
(-0.201627 -44.7236 0.00180362)
(-0.319287 -38.9508 0.00277453)
(0.174092 -33.8985 -0.00152357)
(-0.405602 -25.9601 0.00353241)
(0.710435 -11.6563 -0.00621159)
(-0.638814 -44.9638 0.0056137)
(-1.88402 -39.1365 0.0164237)
(-0.137829 -34.1721 0.00119446)
(-0.663063 -26.3114 0.00577852)
(0.689095 -11.5803 -0.00602251)
(-0.480402 -45.811 0.00421119)
(-1.79069 -39.0105 0.0156055)
(-0.295406 -34.6569 0.00256537)
(-0.598335 -26.7536 0.00521412)
(0.738945 -11.7318 -0.00645766)
(0.095707 -46.152 -0.000851282)
(-0.341395 -38.4699 0.00295936)
(-0.0891839 -34.9714 0.000764107)
(-0.00725943 -27.2322 5.61819e-05)
(0.633782 -11.5321 -0.00554053)
(0.0960629 -45.9639 -0.00086977)
(-0.352037 -37.7598 0.00306032)
(-0.161206 -35.5465 0.00139278)
(0.672794 -27.9337 -0.00587742)
(0.439124 -10.9821 -0.00384614)
(0.113353 -45.6977 -0.00102832)
(-0.305335 -37.0189 0.00265733)
(-0.00519249 -36.8836 3.57119e-05)
(1.20114 -28.6628 -0.010485)
(0.219599 -9.94926 -0.00192792)
(0.369286 -45.9704 -0.00326787)
(-0.323965 -36.6494 0.00282496)
(0.734664 -38.7163 -0.00641302)
(0.851725 -28.9314 -0.00743686)
(0.119549 -8.9494 -0.0010521)
(0.476063 -46.695 -0.00420584)
(-0.369925 -37.2456 0.00322703)
(1.63347 -40.127 -0.0142571)
(-0.526222 -28.1104 0.00459006)
(0.426841 -8.58392 -0.00372851)
(0.368753 -47.3111 -0.00325587)
(-0.227357 -38.6109 0.00198398)
(1.73824 -40.1079 -0.0151732)
(-1.82738 -26.6977 0.0159462)
(1.04258 -9.15629 -0.0091043)
(-0.0406047 -47.6795 0.000345177)
(0.311775 -40.195 -0.00272307)
(0.632017 -38.5364 -0.00552015)
(-1.72296 -26.1716 0.0150356)
(1.43606 -9.94008 -0.0125431)
(-0.637768 -47.6533 0.00556466)
(0.86826 -40.9432 -0.00758358)
(-1.10056 -36.4154 0.00960055)
(-0.303838 -27.4343 0.0026519)
(1.17262 -9.70926 -0.0102497)
(-1.06415 -46.9668 0.00927873)
(0.891572 -40.7394 -0.00778619)
(-2.18101 -35.1227 0.0190313)
(1.13905 -30.1066 -0.00993938)
(0.528285 -8.8409 -0.00462689)
(-0.993568 -45.0647 0.00866692)
(0.124686 -39.3454 -0.00109366)
(-2.0365 -34.9176 0.0177704)
(1.49996 -32.4082 -0.0130903)
(-0.0338662 -6.98317 0.000288905)
(-0.780261 -42.6913 0.00681513)
(-1.24871 -37.9101 0.0108938)
(-1.61342 -36.4719 0.0140795)
(0.637842 -34.393 -0.00556516)
(-0.465601 -7.77749 0.0040571)
(-0.815103 -37.8646 0.00712624)
(-1.89709 -34.2466 0.0165531)
(-1.59398 -36.3042 0.0139091)
(-1.49238 -33.0449 0.0130229)
(-2.44801 -4.26794 0.0214247)
(-1.34563 -33.8577 0.0117423)
(-2.54876 -32.4229 0.0222415)
(-3.57006 -36.008 0.0311557)
(-5.20926 -33.013 0.0454663)
(-6.63962 -18.0908 0.0580042)
(-1.9017 -24.4352 0.016595)
(-4.21258 -23.5064 0.036763)
(-8.02054 -24.769 0.069994)
(-12.9961 -21.6694 0.11342)
(-15.8121 -13.9676 0.137976)
(-12.3305 -1.46585 0.10766)
(-7.51615 -2.32695 0.0656126)
(-5.55107 -1.1183 0.0484425)
(-3.73527 -0.743704 0.0326003)
(-2.85203 -0.462671 0.02489)
(-2.03931 -0.299882 0.0177981)
(-1.58432 -0.194569 0.0138266)
(-1.18965 -0.128923 0.0103827)
(-0.932749 -0.0856911 0.00814045)
(-0.725589 -0.0575434 0.00633269)
(-0.576282 -0.0387882 0.0050296)
(-0.459341 -0.0262913 0.00400907)
(-0.370651 -0.0179207 0.00323504)
(-0.301119 -0.0122687 0.00262823)
(-0.246841 -0.00846122 0.00215453)
(-0.203815 -0.00587056 0.00177903)
(-0.169512 -0.00410583 0.00147964)
(-0.141909 -0.00289731 0.00123873)
(-0.119519 -0.00206352 0.00104331)
(-0.101216 -0.00148455 0.00088354)
(-0.0861338 -0.00107895 0.000751906)
(-0.0736144 -0.000792358 0.000642634)
(-0.0631477 -0.00058777 0.000551281)
(-0.0543408 -0.000440527 0.000474414)
(-0.0468829 -0.000333339 0.000409316)
(-0.0405305 -0.000254531 0.000353789)
(-1.22487 -13.4204 0.0106891)
(-2.48798 -10.8097 0.0217112)
(-4.83656 -9.78679 0.0422074)
(-7.0173 -10.1043 0.0612421)
(-8.52574 -9.34837 0.074411)
(-7.17257 -5.34168 0.0626071)
(-5.20743 -3.4503 0.0454564)
(-4.6878 -2.07604 0.0409184)
(-3.55629 -1.46252 0.0310443)
(-3.0683 -0.964147 0.0267832)
(-2.45113 -0.703593 0.021397)
(-2.07646 -0.49759 0.0181258)
(-1.71111 -0.370213 0.0149371)
(-1.44412 -0.272997 0.0126063)
(-1.21142 -0.20586 0.0105752)
(-1.02606 -0.155328 0.00895703)
(-0.869817 -0.118503 0.00759316)
(-0.74115 -0.0907766 0.00646999)
(-0.633114 -0.0700441 0.00552692)
(-0.542795 -0.0543494 0.00473849)
(-0.466712 -0.0424427 0.00407433)
(-0.402493 -0.0333538 0.00351372)
(-0.348079 -0.0263843 0.00303872)
(-0.301814 -0.0210119 0.00263483)
(-0.262342 -0.0168506 0.00229024)
(-0.228539 -0.0136095 0.00199517)
(-0.199486 -0.0110697 0.00174156)
(-0.174424 -0.00906696 0.00152278)
(-0.152728 -0.00747765 0.00133339)
(-0.133877 -0.00620791 0.00116881)
(-0.117444 -0.00518682 0.00102522)
(-0.793833 -11.8696 0.00692716)
(-1.44556 -10.3345 0.0126139)
(-2.19996 -9.54898 0.0191982)
(-2.83116 -8.0448 0.024707)
(-4.08216 -5.69672 0.0356259)
(-4.30947 -3.39274 0.037613)
(-3.92046 -2.85784 0.0342193)
(-3.56405 -1.89291 0.031109)
(-3.03927 -1.50279 0.0265293)
(-2.68156 -1.07538 0.023407)
(-2.28294 -0.837324 0.0199279)
(-1.99607 -0.62919 0.0174238)
(-1.71796 -0.490971 0.0149964)
(-1.49841 -0.380324 0.0130798)
(-1.30198 -0.299806 0.0113653)
(-1.13755 -0.236786 0.00992995)
(-0.994113 -0.188763 0.00867797)
(-0.871139 -0.151104 0.00760454)
(-0.764182 -0.121689 0.00667093)
(-0.671499 -0.0984298 0.0058619)
(-0.590764 -0.0799922 0.00515715)
(-0.52038 -0.0652888 0.00454275)
(-0.458894 -0.0535226 0.00400602)
(-0.405088 -0.044071 0.00353633)
(-0.357928 -0.0364543 0.00312464)
(-0.316517 -0.0302948 0.00276316)
(-0.280088 -0.0252951 0.00244518)
(-0.247982 -0.0212214 0.00216492)
(-0.219633 -0.0178889 0.00191745)
(-0.194551 -0.0151513 0.00169845)
(-0.172316 -0.0128927 0.00150421)
(-0.654627 -5.7431 0.00571282)
(-1.33361 -4.6996 0.0116372)
(-2.15487 -4.32338 0.0188044)
(-2.87021 -4.13129 0.0250485)
(-3.2752 -3.79281 0.0285845)
(-3.07529 -3.00469 0.0268413)
(-2.85958 -2.46324 0.0249589)
(-2.6852 -1.85824 0.0234372)
(-2.38697 -1.48039 0.0208348)
(-2.19052 -1.12701 0.0191202)
(-1.94123 -0.893523 0.0169448)
(-1.75474 -0.696303 0.0153169)
(-1.56092 -0.555945 0.0136253)
(-1.3998 -0.44294 0.0122188)
(-1.24937 -0.35785 0.0109058)
(-1.11785 -0.290095 0.00975789)
(-0.999225 -0.237174 0.00872244)
(-0.894004 -0.194795 0.007804)
(-0.799785 -0.160903 0.00698159)
(-0.715793 -0.13347 0.00624844)
(-0.640698 -0.111184 0.00559295)
(-0.573576 -0.0929631 0.00500704)
(-0.513544 -0.0780096 0.00448301)
(-0.459818 -0.0656907 0.00401403)
(-0.411718 -0.0555117 0.00359415)
(-0.368622 -0.0470756 0.00321798)
(-0.329984 -0.0400632 0.00288071)
(-0.295315 -0.0342176 0.00257809)
(-0.264184 -0.0293303 0.00230632)
(-0.236202 -0.0252317 0.002062)
(-0.211026 -0.0217832 0.00184211)
(-0.323332 -5.14245 0.00282199)
(-0.584151 -4.26513 0.00509721)
(-0.92544 -3.72127 0.00807505)
(-1.26514 -3.2276 0.0110402)
(-1.64708 -2.72804 0.0143739)
(-1.852 -2.16795 0.016163)
(-1.93402 -1.8598 0.0168795)
(-1.94116 -1.47173 0.0169422)
(-1.85473 -1.23339 0.0161884)
(-1.765 -0.988362 0.0154057)
(-1.63241 -0.817637 0.0142487)
(-1.51521 -0.66462 0.0132258)
(-1.38562 -0.549257 0.0120949)
(-1.26913 -0.452275 0.0110781)
(-1.15632 -0.375926 0.0100935)
(-1.05322 -0.313045 0.00919355)
(-0.957575 -0.262268 0.00835874)
(-0.870234 -0.220481 0.00759639)
(-0.790171 -0.186159 0.00689757)
(-0.717159 -0.157704 0.00626028)
(-0.650532 -0.134046 0.00567871)
(-0.589801 -0.114272 0.00514859)
(-0.534471 -0.097694 0.00466562)
(-0.484069 -0.0837513 0.00422567)
(-0.438172 -0.071996 0.00382503)
(-0.396376 -0.0620612 0.00346021)
(-0.358313 -0.0536453 0.00312797)
(-0.323645 -0.0465004 0.00282535)
(-0.292065 -0.0404206 0.00254967)
(-0.263289 -0.0352349 0.00229842)
(-0.23706 -0.0308003 0.00206935)
(-0.303736 -2.62441 0.00265112)
(-0.587695 -2.1493 0.00512909)
(-0.898172 -1.81992 0.00783756)
(-1.16588 -1.66165 0.0101744)
(-1.38779 -1.58767 0.0121115)
(-1.48638 -1.4433 0.0129723)
(-1.53508 -1.32652 0.0133976)
(-1.5471 -1.1498 0.0135027)
(-1.50126 -1.00619 0.0131029)
(-1.45357 -0.851812 0.0126871)
(-1.37383 -0.727684 0.0119915)
(-1.30049 -0.612918 0.0113515)
(-1.2137 -0.520006 0.010594)
(-1.1317 -0.439674 0.00987833)
(-1.04915 -0.373832 0.00915791)
(-0.970504 -0.318225 0.00847142)
(-0.895339 -0.272056 0.00781538)
(-0.824623 -0.233209 0.00719816)
(-0.758213 -0.200567 0.00661852)
(-0.696277 -0.172944 0.00607792)
(-0.63864 -0.149514 0.00557484)
(-0.585144 -0.129555 0.00510788)
(-0.535591 -0.112512 0.00467535)
(-0.489744 -0.0979224 0.00427515)
(-0.447377 -0.0854092 0.00390534)
(-0.408252 -0.0746576 0.00356384)
(-0.372141 -0.0654031 0.00324864)
(-0.338823 -0.0574237 0.00295781)
(-0.308095 -0.0505309 0.00268956)
(-0.279758 -0.0445654 0.00244215)
(-0.253632 -0.0393909 0.002214)
(-0.158627 -2.10522 0.0013844)
(-0.31436 -1.72597 0.00274349)
(-0.476284 -1.41219 0.00415612)
(-0.634126 -1.21335 0.0055334)
(-0.805416 -1.10556 0.00702878)
(-0.943542 -0.998244 0.00823437)
(-1.04858 -0.936384 0.00915137)
(-1.12042 -0.840382 0.00977836)
(-1.14699 -0.763842 0.0100103)
(-1.15328 -0.674509 0.0100658)
(-1.12914 -0.598567 0.00985548)
(-1.09756 -0.523795 0.00957998)
(-1.04909 -0.459442 0.0091571)
(-0.997181 -0.400944 0.00870406)
(-0.940664 -0.350467 0.00821082)
(-0.883158 -0.306057 0.00770891)
(-0.825854 -0.267675 0.00720877)
(-0.769899 -0.234303 0.0067204)
(-0.715857 -0.205374 0.00624873)
(-0.664211 -0.180235 0.00579794)
(-0.615157 -0.158384 0.00536979)
(-0.56879 -0.139363 0.00496507)
(-0.525143 -0.122794 0.0045841)
(-0.484159 -0.108351 0.00422636)
(-0.445767 -0.0957525 0.00389124)
(-0.409855 -0.0847558 0.0035778)
(-0.376307 -0.0751482 0.00328497)
(-0.344994 -0.0667458 0.00301165)
(-0.315793 -0.0593876 0.00275672)
(-0.288575 -0.0529341 0.0025191)
(-0.263223 -0.0472631 0.00229771)
(-0.141792 -1.01976 0.00123746)
(-0.290147 -0.799401 0.00253209)
(-0.434109 -0.579301 0.00378789)
(-0.562405 -0.471486 0.00490743)
(-0.686831 -0.469188 0.00599393)
(-0.787126 -0.489396 0.00686941)
(-0.865104 -0.522288 0.00755018)
(-0.92488 -0.527923 0.00807178)
(-0.953069 -0.521647 0.00831768)
(-0.967558 -0.495927 0.00844467)
(-0.959172 -0.46497 0.00837177)
(-0.944437 -0.427098 0.00824332)
(-0.915074 -0.389319 0.00798719)
(-0.881108 -0.351674 0.00769079)
(-0.841934 -0.316463 0.00734893)
(-0.799939 -0.283746 0.00698242)
(-0.756578 -0.253978 0.00660399)
(-0.712786 -0.227063 0.0062218)
(-0.66933 -0.202859 0.00584253)
(-0.626793 -0.18117 0.00547127)
(-0.585551 -0.161785 0.00511131)
(-0.545844 -0.144496 0.00476473)
(-0.507853 -0.129103 0.00443312)
(-0.471647 -0.115419 0.0041171)
(-0.437272 -0.103268 0.00381706)
(-0.404717 -0.0924894 0.00353291)
(-0.373952 -0.0829298 0.00326438)
(-0.344923 -0.0744512 0.00301099)
(-0.317572 -0.0669268 0.00277223)
(-0.291828 -0.0602422 0.00254747)
(-0.267624 -0.0542942 0.00233612)
(-0.0874789 -0.645118 0.000763458)
(-0.186109 -0.481945 0.00162417)
(-0.274134 -0.309117 0.00239197)
(-0.353252 -0.21176 0.00308217)
(-0.439058 -0.197624 0.00383161)
(-0.525507 -0.219552 0.00458626)
(-0.60535 -0.26289 0.00528333)
(-0.679352 -0.296667 0.00592897)
(-0.73067 -0.323002 0.00637645)
(-0.768949 -0.332916 0.00671102)
(-0.786035 -0.334148 0.00686043)
(-0.793307 -0.325106 0.00692408)
(-0.785105 -0.310887 0.00685264)
(-0.769434 -0.292918 0.00671594)
(-0.746708 -0.273141 0.00651767)
(-0.719015 -0.252736 0.006276)
(-0.688179 -0.232447 0.0060069)
(-0.655269 -0.212865 0.00571968)
(-0.621271 -0.194232 0.00542298)
(-0.586941 -0.176766 0.00512336)
(-0.552804 -0.160548 0.00482541)
(-0.519234 -0.145616 0.00453241)
(-0.486529 -0.131955 0.00424696)
(-0.454863 -0.119522 0.00397056)
(-0.424372 -0.108252 0.00370442)
(-0.395126 -0.0980694 0.00344916)
(-0.367166 -0.0888893 0.00320512)
(-0.340501 -0.0806244 0.00297237)
(-0.315127 -0.0731866 0.00275086)
(-0.291021 -0.0664911 0.00254041)
(-0.268157 -0.060457 0.00234076)
(-0.0729667 -0.0999046 0.000636903)
(-0.155058 -0.00723285 0.00135347)
(-0.234084 0.105293 0.00204276)
(-0.306014 0.162027 0.00267036)
(-0.380439 0.147192 0.00331982)
(-0.447492 0.0922788 0.00390517)
(-0.513769 0.0197089 0.00448467)
(-0.573366 -0.0533962 0.00500438)
(-0.618709 -0.116223 0.00539951)
(-0.652747 -0.16492 0.0056969)
(-0.672661 -0.200331 0.00587091)
(-0.684933 -0.219811 0.00597816)
(-0.684828 -0.228587 0.00597737)
(-0.678087 -0.229537 0.0059186)
(-0.664873 -0.224723 0.00580333)
(-0.646668 -0.216413 0.00564447)
(-0.624897 -0.205665 0.00545448)
(-0.600459 -0.193644 0.00524121)
(-0.574194 -0.180942 0.005012)
(-0.546845 -0.168118 0.00477332)
(-0.518929 -0.155509 0.00452968)
(-0.490861 -0.14337 0.00428471)
(-0.462985 -0.131853 0.0040414)
(-0.435534 -0.121051 0.0038018)
(-0.408704 -0.111006 0.00356762)
(-0.382624 -0.101728 0.00334)
(-0.35739 -0.0932005 0.00311976)
(-0.333064 -0.0853907 0.00290743)
(-0.309684 -0.0782524 0.00270333)
(-0.287269 -0.0717327 0.00250764)
(-0.265828 -0.0657759 0.00232042)
(-0.0448624 0.121653 0.000391611)
(-0.0988815 0.19265 0.000863193)
(-0.149363 0.291112 0.00130367)
(-0.201554 0.347546 0.00175908)
(-0.256784 0.33412 0.002241)
(-0.317231 0.278556 0.00276852)
(-0.376397 0.198252 0.00328485)
(-0.432485 0.112304 0.00377422)
(-0.48136 0.0359249 0.00420095)
(-0.521186 -0.0311421 0.00454869)
(-0.552191 -0.0849616 0.00481944)
(-0.574175 -0.123096 0.00501143)
(-0.585647 -0.14897 0.00511166)
(-0.589599 -0.165287 0.00514622)
(-0.586425 -0.173676 0.00511858)
(-0.577636 -0.176533 0.00504189)
(-0.564351 -0.175015 0.00492597)
(-0.547671 -0.170541 0.00478042)
(-0.528366 -0.163945 0.00461195)
(-0.507275 -0.156022 0.00442789)
(-0.484941 -0.147323 0.00423297)
(-0.461841 -0.13829 0.00403137)
(-0.438366 -0.129228 0.00382647)
(-0.414796 -0.120354 0.00362076)
(-0.391375 -0.11181 0.00341633)
(-0.368275 -0.103688 0.00321473)
(-0.345638 -0.0960397 0.00301716)
(-0.323566 -0.0888867 0.00282451)
(-0.302137 -0.0822267 0.00263744)
(-0.281402 -0.0760411 0.00245642)
(-0.261402 -0.0703011 0.00228178)
(-0.0389446 0.381137 0.000339943)
(-0.0851089 0.424474 0.00074294)
(-0.127813 0.499847 0.00111561)
(-0.167512 0.545648 0.00146209)
(-0.211826 0.533713 0.00184883)
(-0.261285 0.476219 0.00228047)
(-0.312384 0.388186 0.00272633)
(-0.362755 0.289431 0.00316581)
(-0.407671 0.192923 0.00355797)
(-0.444559 0.105918 0.00387997)
(-0.474737 0.0329442 0.00414344)
(-0.497687 -0.0246455 0.00434383)
(-0.512028 -0.0678693 0.00446908)
(-0.519952 -0.0993158 0.0045383)
(-0.521573 -0.120588 0.00455251)
(-0.51818 -0.134232 0.00452292)
(-0.510442 -0.141706 0.00445539)
(-0.499357 -0.144652 0.00435867)
(-0.48544 -0.144167 0.00423723)
(-0.46945 -0.14124 0.00409769)
(-0.451844 -0.136611 0.00394404)
(-0.433071 -0.130878 0.00378021)
(-0.413511 -0.124484 0.0036095)
(-0.393455 -0.117755 0.00343445)
(-0.373161 -0.110925 0.00325733)
(-0.352831 -0.10416 0.00307989)
(-0.332632 -0.0975759 0.00290361)
(-0.3127 -0.0912473 0.00272964)
(-0.293143 -0.0852159 0.00255892)
(-0.27404 -0.0794983 0.00239214)
(-0.255458 -0.0740935 0.00222989)
(-0.0283943 0.537343 0.000247792)
(-0.0652816 0.562682 0.00056974)
(-0.0978213 0.619376 0.000853729)
(-0.127744 0.660797 0.00111496)
(-0.160706 0.654011 0.00140267)
(-0.19793 0.603157 0.00172757)
(-0.239967 0.517848 0.0020944)
(-0.282953 0.416719 0.00246941)
(-0.325 0.312451 0.0028365)
(-0.361395 0.215487 0.00315413)
(-0.393908 0.130876 0.00343795)
(-0.420356 0.0609351 0.00366886)
(-0.439524 0.00563972 0.00383623)
(-0.452945 -0.0371883 0.00395343)
(-0.460063 -0.0688997 0.00401561)
(-0.462268 -0.0917782 0.00403488)
(-0.459844 -0.107301 0.00401374)
(-0.453899 -0.117132 0.00396187)
(-0.44481 -0.122487 0.00388256)
(-0.43334 -0.124463 0.00378248)
(-0.419912 -0.123923 0.0036653)
(-0.404979 -0.12158 0.00353498)
(-0.388921 -0.117981 0.00339483)
(-0.372036 -0.113547 0.00324746)
(-0.354596 -0.108589 0.00309525)
(-0.336816 -0.103338 0.00294008)
(-0.318887 -0.0979669 0.00278361)
(-0.300964 -0.0926006 0.00262718)
(-0.283181 -0.0873232 0.00247195)
(-0.26564 -0.0821863 0.00231881)
(-0.24843 -0.0772174 0.00216854)
(-0.0234762 0.693058 0.000204914)
(-0.0558855 0.709109 0.000487958)
(-0.0849792 0.749532 0.000741443)
(-0.112287 0.780325 0.000979879)
(-0.138712 0.772696 0.0012107)
(-0.16861 0.723623 0.00147167)
(-0.202725 0.639971 0.00176937)
(-0.238641 0.537414 0.00208268)
(-0.27546 0.427771 0.00240412)
(-0.308636 0.322741 0.00269365)
(-0.339478 0.227723 0.00296289)
(-0.365446 0.146357 0.00318961)
(-0.385211 0.0791029 0.00336218)
(-0.400114 0.0250996 0.00349232)
(-0.409437 -0.0168767 0.00357373)
(-0.414524 -0.0486842 0.00361814)
(-0.415357 -0.071955 0.00362542)
(-0.412954 -0.0884053 0.00360446)
(-0.407485 -0.0994108 0.00355675)
(-0.399608 -0.106184 0.00348802)
(-0.389649 -0.109702 0.00340112)
(-0.377999 -0.110775 0.00329945)
(-0.365 -0.11004 0.00318601)
(-0.350934 -0.107996 0.00306325)
(-0.336066 -0.105019 0.00293349)
(-0.320614 -0.1014 0.00279863)
(-0.304775 -0.0973592 0.00266041)
(-0.288723 -0.0930667 0.00252031)
(-0.272605 -0.0886465 0.00237962)
(-0.256544 -0.0841845 0.0022394)
(-0.240645 -0.0797364 0.00210058)
(-0.0179526 0.800719 0.000156698)
(-0.0445549 0.811217 0.000389043)
(-0.0674702 0.840351 0.000588911)
(-0.0911809 0.864389 0.000795959)
(-0.111971 0.855906 0.000977287)
(-0.137804 0.810932 0.00120278)
(-0.165662 0.73104 0.00144587)
(-0.196468 0.630816 0.00171459)
(-0.229042 0.519771 0.001999)
(-0.258914 0.41073 0.00225969)
(-0.288096 0.30903 0.00251444)
(-0.313418 0.219796 0.00273552)
(-0.33391 0.143961 0.00291443)
(-0.350513 0.0816625 0.00305939)
(-0.362233 0.0317718 0.00316172)
(-0.370224 -0.00727017 0.00323148)
(-0.374183 -0.0371333 0.00326603)
(-0.374994 -0.0594502 0.00327312)
(-0.372728 -0.0756359 0.00325336)
(-0.367984 -0.0869318 0.00321197)
(-0.361042 -0.0943699 0.0031514)
(-0.35226 -0.098812 0.00307477)
(-0.341955 -0.10095 0.00298484)
(-0.330393 -0.10134 0.00288393)
(-0.317833 -0.100415 0.00277432)
(-0.30449 -0.0985101 0.00265788)
(-0.290567 -0.0958881 0.00253638)
(-0.276242 -0.0927572 0.00241135)
(-0.261676 -0.0892779 0.00228421)
(-0.247005 -0.0855683 0.00215613)
(-0.23235 -0.0817117 0.00202816)
(-0.0151433 0.899546 0.000132178)
(-0.0385136 0.906609 0.000336323)
(-0.0593369 0.929585 0.000518111)
(-0.0816261 0.946737 0.000712716)
(-0.0993986 0.936689 0.000867542)
(-0.121296 0.892955 0.00105868)
(-0.144115 0.815222 0.00125778)
(-0.169681 0.716313 0.00148079)
(-0.197437 0.604356 0.00172317)
(-0.223262 0.492253 0.00194855)
(-0.249614 0.385278 0.0021786)
(-0.273112 0.28958 0.00238375)
(-0.292989 0.206309 0.00255727)
(-0.309809 0.136635 0.00270412)
(-0.322518 0.0794647 0.00281507)
(-0.332033 0.0336717 0.00289813)
(-0.337947 -0.00239116 0.00294975)
(-0.340972 -0.0302635 0.00297616)
(-0.341093 -0.0513786 0.00297723)
(-0.338805 -0.0670068 0.00295727)
(-0.334327 -0.0782346 0.00291821)
(-0.327959 -0.0859728 0.00286264)
(-0.31997 -0.0909588 0.00279293)
(-0.310601 -0.0937956 0.00271116)
(-0.30009 -0.094957 0.00261943)
(-0.288644 -0.0948194 0.00251955)
(-0.276461 -0.093679 0.00241323)
(-0.26372 -0.0917765 0.00230203)
(-0.25059 -0.0893037 0.00218743)
(-0.237216 -0.0864089 0.00207068)
(-0.223729 -0.0832017 0.00195291)
(-0.0122843 0.977505 0.000107223)
(-0.0331233 0.984779 0.000289242)
(-0.0514389 1.00259 0.000449185)
(-0.0720966 1.01364 0.000629523)
(-0.0871226 0.99969 0.000760285)
(-0.106008 0.957047 0.000925135)
(-0.124808 0.881316 0.00108921)
(-0.146201 0.784527 0.00127584)
(-0.169844 0.673432 0.00148232)
(-0.192256 0.560255 0.00167792)
(-0.216028 0.450319 0.00188546)
(-0.237695 0.350367 0.00207462)
(-0.256873 0.2618 0.00224204)
(-0.273549 0.18655 0.00238762)
(-0.286954 0.123664 0.00250464)
(-0.297578 0.0723713 0.00259737)
(-0.305058 0.0310738 0.00266266)
(-0.309878 -0.00165209 0.00270474)
(-0.311987 -0.0272109 0.00272316)
(-0.311762 -0.0468393 0.00272121)
(-0.309375 -0.061636 0.00270039)
(-0.305076 -0.0725347 0.00266288)
(-0.299098 -0.0802981 0.00261072)
(-0.291653 -0.0855558 0.00254575)
(-0.282958 -0.0888099 0.00246987)
(-0.27321 -0.0904659 0.00238481)
(-0.262599 -0.0908476 0.00229221)
(-0.251303 -0.0902211 0.00219363)
(-0.239493 -0.0888047 0.00209055)
(-0.227322 -0.0867734 0.0019843)
(-0.214928 -0.0842618 0.00187608)
(-0.0107769 1.04822 9.40617e-05)
(-0.0274235 1.05748 0.000239469)
(-0.0439936 1.07343 0.000384117)
(-0.0622 1.07805 0.000542974)
(-0.0762802 1.06021 0.000665725)
(-0.0913553 1.01661 0.000797305)
(-0.107081 0.941727 0.000934352)
(-0.12701 0.846158 0.00110827)
(-0.146988 0.735583 0.00128281)
(-0.166582 0.621371 0.00145383)
(-0.187711 0.509433 0.00163832)
(-0.207443 0.406262 0.00181058)
(-0.225621 0.313389 0.00196926)
(-0.24179 0.2335 0.0021104)
(-0.255465 0.165684 0.00222977)
(-0.266761 0.109558 0.00232837)
(-0.275379 0.0635694 0.0024036)
(-0.281575 0.0264402 0.00245768)
(-0.285289 -0.0032117 0.00249012)
(-0.286775 -0.0265826 0.0025031)
(-0.286153 -0.044759 0.00249769)
(-0.283621 -0.058686 0.0024756)
(-0.27938 -0.0691444 0.0024386)
(-0.273615 -0.0767809 0.00238829)
(-0.266521 -0.0821149 0.00232639)
(-0.258284 -0.0855726 0.00225451)
(-0.249086 -0.0874989 0.00217424)
(-0.2391 -0.0881802 0.0020871)
(-0.228497 -0.087856 0.00199456)
(-0.217434 -0.0867248 0.00189798)
(-0.206056 -0.0849442 0.00179862)
(-0.00910326 1.10332 7.947e-05)
(-0.0219633 1.11225 0.000191771)
(-0.0344872 1.12793 0.000301105)
(-0.0494267 1.12939 0.00043146)
(-0.0615471 1.10886 0.000537061)
(-0.074884 1.06388 0.000653434)
(-0.0879099 0.990916 0.000767177)
(-0.103858 0.897674 0.000906431)
(-0.121058 0.788194 0.00105649)
(-0.140446 0.674056 0.00122574)
(-0.159596 0.561151 0.00139295)
(-0.178442 0.45581 0.00155747)
(-0.196214 0.359979 0.0017126)
(-0.212151 0.276571 0.00185171)
(-0.226319 0.204894 0.00197538)
(-0.238299 0.144775 0.00207995)
(-0.248004 0.0947983 0.00216466)
(-0.255454 0.0537952 0.00222969)
(-0.260602 0.0204501 0.00227463)
(-0.263601 -0.0063841 0.00230082)
(-0.264528 -0.0277504 0.00230892)
(-0.263537 -0.0445755 0.00230029)
(-0.260809 -0.057642 0.00227649)
(-0.256514 -0.0676054 0.00223901)
(-0.250831 -0.074995 0.00218942)
(-0.243933 -0.0802491 0.00212923)
(-0.235997 -0.0837286 0.00205998)
(-0.227191 -0.0857358 0.00198314)
(-0.217685 -0.0865275 0.00190018)
(-0.207638 -0.086322 0.00181247)
(-0.197199 -0.0852984 0.0017213)
(-0.00788646 1.15118 6.88465e-05)
(-0.018181 1.1572 0.000158746)
(-0.0275554 1.17211 0.00024057)
(-0.0388956 1.17232 0.000339536)
(-0.0486825 1.15041 0.000424809)
(-0.0601914 1.10373 0.000525162)
(-0.0713047 1.0328 0.000622252)
(-0.0851048 0.941477 0.000742817)
(-0.0998777 0.834519 0.000871643)
(-0.11738 0.721443 0.00102447)
(-0.134717 0.608141 0.00117584)
(-0.152497 0.50122 0.00133104)
(-0.169763 0.403265 0.00148175)
(-0.185539 0.316979 0.00161944)
(-0.20008 0.242123 0.00174635)
(-0.212649 0.178545 0.00185607)
(-0.223247 0.125042 0.00194857)
(-0.231732 0.0805282 0.00202263)
(-0.238058 0.0437755 0.00207785)
(-0.242307 0.0136938 0.00211495)
(-0.244532 -0.0107082 0.00213438)
(-0.244849 -0.0303213 0.00213716)
(-0.243413 -0.0459147 0.00212464)
(-0.240384 -0.0581485 0.00209821)
(-0.235928 -0.0675598 0.00205933)
(-0.230207 -0.0745946 0.00200941)
(-0.223389 -0.0796241 0.00194992)
(-0.215639 -0.0829638 0.00188229)
(-0.207123 -0.0848841 0.00180797)
(-0.198001 -0.0856203 0.00172834)
(-0.188425 -0.0853704 0.00164471)
(-0.00667917 1.19014 5.8297e-05)
(-0.015252 1.19237 0.000133168)
(-0.0224704 1.20442 0.000196166)
(-0.0305736 1.20377 0.000266879)
(-0.0374473 1.18259 0.000326797)
(-0.0470634 1.13639 0.00041066)
(-0.0561519 1.06702 0.00049002)
(-0.0683181 0.977403 0.000596317)
(-0.0807984 0.873366 0.000705159)
(-0.0966049 0.761936 0.00084319)
(-0.112389 0.649386 0.000980994)
(-0.129209 0.542026 0.0011278)
(-0.146083 0.442908 0.00127507)
(-0.161706 0.354605 0.00141142)
(-0.176559 0.277244 0.00154106)
(-0.189596 0.210757 0.00165485)
(-0.200902 0.154168 0.00175353)
(-0.210219 0.106492 0.00183484)
(-0.217499 0.0666126 0.00189839)
(-0.222775 0.0335058 0.00194445)
(-0.226079 0.00623748 0.0019733)
(-0.227501 -0.0160437 0.00198573)
(-0.227167 -0.034078 0.00198282)
(-0.225224 -0.0485193 0.00196588)
(-0.221829 -0.0599096 0.00193625)
(-0.217134 -0.0686994 0.00189529)
(-0.211299 -0.0752662 0.00184438)
(-0.204487 -0.0799346 0.00178494)
(-0.196859 -0.0829865 0.00171836)
(-0.188574 -0.0846711 0.00164604)
(-0.179787 -0.0852038 0.0015693)
(-0.0056643 1.22431 4.94386e-05)
(-0.0131553 1.22298 0.000114908)
(-0.0192663 1.23146 0.000168125)
(-0.0253123 1.2281 0.000220936)
(-0.0299936 1.207 0.000261787)
(-0.0370875 1.16191 0.000323678)
(-0.0439069 1.09485 0.00038322)
(-0.054187 1.00749 0.000473034)
(-0.0648038 0.906427 0.000565613)
(-0.0789023 0.796953 0.000688719)
(-0.0933519 0.686126 0.000814859)
(-0.109275 0.579069 0.000953822)
(-0.125648 0.479585 0.00109671)
(-0.141057 0.389855 0.00123119)
(-0.156015 0.310519 0.00136174)
(-0.169314 0.241545 0.00147782)
(-0.181074 0.182219 0.00158045)
(-0.190969 0.131665 0.00166682)
(-0.198949 0.0888973 0.00173647)
(-0.20501 0.0529642 0.00178938)
(-0.209166 0.022989 0.00182567)
(-0.211488 -0.00183974 0.00184595)
(-0.21207 -0.0222289 0.00185104)
(-0.21104 -0.0388129 0.00184206)
(-0.208545 -0.0521337 0.0018203)
(-0.204733 -0.0626454 0.00178704)
(-0.199754 -0.0707282 0.00174359)
(-0.193765 -0.0767129 0.00169134)
(-0.186927 -0.0808907 0.00163167)
(-0.179396 -0.0835222 0.00156593)
(-0.171327 -0.0848387 0.00149545)
(-0.00483101 1.25271 4.21735e-05)
(-0.0111567 1.24888 9.74521e-05)
(-0.0169532 1.25356 0.000148006)
(-0.0217298 1.24756 0.000189636)
(-0.0258579 1.22575 0.000225776)
(-0.0301703 1.18113 0.000263365)
(-0.0354034 1.11664 0.000309066)
(-0.0435148 1.03197 0.000379938)
(-0.052188 0.934337 0.000455539)
(-0.064852 0.827468 0.000566106)
(-0.0778376 0.718939 0.000679457)
(-0.0928943 0.61284 0.000810855)
(-0.108525 0.513497 0.000947268)
(-0.123545 0.422817 0.00107834)
(-0.138304 0.341918 0.00120716)
(-0.151616 0.270827 0.00132335)
(-0.163572 0.209088 0.00142769)
(-0.173808 0.155938 0.00151703)
(-0.182261 0.110524 0.00159081)
(-0.188898 0.0719654 0.00164875)
(-0.193711 0.0394465 0.00169076)
(-0.196748 0.0121973 0.00171728)
(-0.198079 -0.0104537 0.00172891)
(-0.197808 -0.0291134 0.00172656)
(-0.196071 -0.0443124 0.0017114)
(-0.193008 -0.0565065 0.00168469)
(-0.188765 -0.0660771 0.00164768)
(-0.183495 -0.0733581 0.00160169)
(-0.177354 -0.0786481 0.0015481)
(-0.170497 -0.0822177 0.00148824)
(-0.163077 -0.0843123 0.00142344)
(-0.00407729 1.27737 3.55965e-05)
(-0.00990911 1.27272 8.65534e-05)
(-0.0153331 1.27347 0.000133947)
(-0.0197011 1.26501 0.000172019)
(-0.0230353 1.2409 0.000201182)
(-0.0263731 1.19624 0.000230247)
(-0.03028 1.13333 0.000264377)
(-0.0369356 1.0516 0.000322543)
(-0.04392 0.95744 0.000383395)
(-0.0551087 0.853742 0.000481078)
(-0.0665014 0.747929 0.00058052)
(-0.0804306 0.643285 0.000702076)
(-0.0949839 0.544585 0.000829082)
(-0.109302 0.453426 0.000954033)
(-0.123517 0.371381 0.0010781)
(-0.136548 0.298535 0.00119183)
(-0.148418 0.234704 0.00129543)
(-0.15874 0.179235 0.00138551)
(-0.167432 0.131409 0.00146138)
(-0.174433 0.0904227 0.00152249)
(-0.179703 0.0555216 0.0015685)
(-0.183272 0.025981 0.00159965)
(-0.185182 0.00116598 0.00161634)
(-0.18552 -0.0194981 0.0016193)
(-0.184401 -0.0365195 0.00160954)
(-0.181961 -0.0503508 0.00158826)
(-0.178342 -0.0613743 0.00155668)
(-0.173689 -0.0699247 0.00151609)
(-0.168158 -0.076306 0.00146782)
(-0.161899 -0.0807979 0.00141319)
(-0.155065 -0.0836585 0.0013535)
(-0.00364406 1.29884 3.1819e-05)
(-0.00863285 1.29399 7.54076e-05)
(-0.0141113 1.29212 0.000123316)
(-0.0184159 1.28038 0.000160841)
(-0.0214607 1.25466 0.000187451)
(-0.0242189 1.20954 0.000211466)
(-0.0273057 1.14783 0.000238417)
(-0.0331417 1.06853 0.000289433)
(-0.038948 0.977334 0.000339994)
(-0.0489791 0.876735 0.000427573)
(-0.0588969 0.773662 0.000514143)
(-0.0716023 0.670753 0.000625021)
(-0.0847653 0.572971 0.000739895)
(-0.0981492 0.481689 0.000856688)
(-0.111491 0.398838 0.000973127)
(-0.123966 0.324571 0.001082)
(-0.135476 0.258954 0.00118246)
(-0.145642 0.201444 0.00127119)
(-0.154351 0.151445 0.00134721)
(-0.161515 0.108233 0.00140974)
(-0.16706 0.0711167 0.00145815)
(-0.170992 0.0394206 0.00149247)
(-0.173328 0.012548 0.00151287)
(-0.174137 -0.0100401 0.00151993)
(-0.17351 -0.0288228 0.00151448)
(-0.171579 -0.0442408 0.00149763)
(-0.168479 -0.0566757 0.00147059)
(-0.164352 -0.066462 0.00143458)
(-0.159348 -0.0739072 0.00139092)
(-0.153618 -0.0792992 0.00134091)
(-0.147311 -0.0829076 0.00128582)
(-0.00322598 1.31794 2.81658e-05)
(-0.0072852 1.3136 6.3651e-05)
(-0.0127501 1.31005 0.000111395)
(-0.0168413 1.2961 0.000147094)
(-0.0207959 1.26737 0.000181539)
(-0.0237777 1.22149 0.000207457)
(-0.027327 1.16095 0.000238663)
(-0.0312132 1.0837 0.000272639)
(-0.0365858 0.995259 0.000319381)
(-0.0454978 0.897577 0.000397193)
(-0.0541311 0.796786 0.000472552)
(-0.0655606 0.695534 0.000572296)
(-0.0772296 0.598762 0.000674132)
(-0.0894761 0.507568 0.000780994)
(-0.101729 0.424216 0.000887926)
(-0.113453 0.348854 0.00099025)
(-0.124412 0.281761 0.0010859)
(-0.134258 0.222496 0.00117183)
(-0.14283 0.170568 0.00124665)
(-0.150009 0.125334 0.00130931)
(-0.155686 0.0861679 0.00135887)
(-0.159841 0.0524503 0.00139514)
(-0.162469 0.0236282 0.00141808)
(-0.163622 -0.000800038 0.00142815)
(-0.163375 -0.02128 0.00142601)
(-0.161846 -0.0382306 0.00141268)
(-0.159169 -0.0520308 0.00138933)
(-0.155483 -0.0630139 0.00135716)
(-0.150933 -0.0714896 0.00131746)
(-0.145667 -0.0777537 0.0012715)
(-0.139832 -0.0820864 0.00122054)
(-0.00276027 1.33382 2.41089e-05)
(-0.00605517 1.32997 5.28982e-05)
(-0.0107854 1.32644 9.42274e-05)