/*--------------------------------*- C++ -*----------------------------------*\
| =========                 |                                                 |
| \\      /  F ield         | OpenFOAM: The Open Source CFD Toolbox           |
|  \\    /   O peration     | Version:  v2012                                 |
|   \\  /    A nd           | Website:  www.openfoam.com                      |
|    \\/     M anipulation  |                                                 |
\*---------------------------------------------------------------------------*/
FoamFile
{
    version     2.0;
    format      ascii;
    class       volScalarField;
    location    "0.8";
    object      p_rgh;
}
// * * * * * * * * * * * * * * * * * * * * * * * * * * * * * * * * * * * * * //

dimensions      [1 -1 -2 0 0 0 0];


internalField   nonuniform List<scalar> 
3326
(
3.48605e+06
3.4861e+06
3.48611e+06
3.48609e+06
3.48604e+06
3.48595e+06
3.48581e+06
3.48565e+06
3.4854e+06
3.48569e+06
3.48582e+06
3.48592e+06
3.48599e+06
3.48604e+06
3.48605e+06
3.48604e+06
3.48598e+06
3.4859e+06
3.48576e+06
3.4856e+06
3.48535e+06
3.43735e+06
3.44445e+06
3.45017e+06
3.45493e+06
3.45891e+06
3.46225e+06
3.4651e+06
3.46754e+06
3.46964e+06
3.47145e+06
3.47303e+06
3.47441e+06
3.47562e+06
3.47669e+06
3.47765e+06
3.4785e+06
3.47926e+06
3.47996e+06
3.48058e+06
3.48116e+06
3.48168e+06
3.48216e+06
3.4826e+06
3.48301e+06
3.48339e+06
3.48374e+06
3.48406e+06
3.48436e+06
3.48463e+06
3.48488e+06
3.48511e+06
3.48531e+06
3.48549e+06
3.48564e+06
3.48577e+06
3.48587e+06
3.48594e+06
3.48599e+06
3.486e+06
3.48598e+06
3.48593e+06
3.48585e+06
3.48571e+06
3.48556e+06
3.4853e+06
3.43876e+06
3.44569e+06
3.45124e+06
3.45586e+06
3.45971e+06
3.46295e+06
3.4657e+06
3.46805e+06
3.47007e+06
3.47181e+06
3.47333e+06
3.47466e+06
3.47583e+06
3.47686e+06
3.47778e+06
3.4786e+06
3.47934e+06
3.48001e+06
3.48062e+06
3.48118e+06
3.48169e+06
3.48216e+06
3.48259e+06
3.48299e+06
3.48336e+06
3.48371e+06
3.48402e+06
3.48432e+06
3.48459e+06
3.48484e+06
3.48506e+06
3.48526e+06
3.48544e+06
3.48559e+06
3.48572e+06
3.48582e+06
3.48589e+06
3.48594e+06
3.48595e+06
3.48594e+06
3.48588e+06
3.4858e+06
3.48567e+06
3.48551e+06
3.48526e+06
3.44037e+06
3.44709e+06
3.45245e+06
3.45691e+06
3.46061e+06
3.46372e+06
3.46636e+06
3.46861e+06
3.47054e+06
3.47222e+06
3.47367e+06
3.47494e+06
3.47606e+06
3.47705e+06
3.47793e+06
3.47872e+06
3.47944e+06
3.48008e+06
3.48067e+06
3.48121e+06
3.4817e+06
3.48216e+06
3.48258e+06
3.48297e+06
3.48334e+06
3.48368e+06
3.48399e+06
3.48428e+06
3.48455e+06
3.48479e+06
3.48501e+06
3.48521e+06
3.48539e+06
3.48554e+06
3.48567e+06
3.48577e+06
3.48584e+06
3.48589e+06
3.48591e+06
3.48589e+06
3.48584e+06
3.48576e+06
3.48563e+06
3.48547e+06
3.48523e+06
3.4422e+06
3.44867e+06
3.45381e+06
3.45808e+06
3.46161e+06
3.46458e+06
3.46709e+06
3.46923e+06
3.47107e+06
3.47266e+06
3.47404e+06
3.47525e+06
3.47632e+06
3.47726e+06
3.4781e+06
3.47886e+06
3.47954e+06
3.48016e+06
3.48072e+06
3.48124e+06
3.48172e+06
3.48217e+06
3.48258e+06
3.48296e+06
3.48332e+06
3.48365e+06
3.48396e+06
3.48425e+06
3.48451e+06
3.48475e+06
3.48497e+06
3.48517e+06
3.48535e+06
3.4855e+06
3.48562e+06
3.48573e+06
3.4858e+06
3.48585e+06
3.48586e+06
3.48585e+06
3.4858e+06
3.48572e+06
3.48559e+06
3.48544e+06
3.48519e+06
3.44426e+06
3.45043e+06
3.45532e+06
3.45938e+06
3.46272e+06
3.46553e+06
3.4679e+06
3.46991e+06
3.47165e+06
3.47314e+06
3.47445e+06
3.47559e+06
3.47659e+06
3.47749e+06
3.47828e+06
3.479e+06
3.47965e+06
3.48025e+06
3.48079e+06
3.48129e+06
3.48175e+06
3.48218e+06
3.48258e+06
3.48295e+06
3.4833e+06
3.48363e+06
3.48393e+06
3.48421e+06
3.48448e+06
3.48472e+06
3.48493e+06
3.48513e+06
3.48531e+06
3.48546e+06
3.48558e+06
3.48569e+06
3.48576e+06
3.48581e+06
3.48582e+06
3.48581e+06
3.48576e+06
3.48568e+06
3.48556e+06
3.48541e+06
3.48517e+06
3.44656e+06
3.45237e+06
3.45698e+06
3.46079e+06
3.46393e+06
3.46655e+06
3.46877e+06
3.47065e+06
3.47227e+06
3.47367e+06
3.47488e+06
3.47595e+06
3.47689e+06
3.47773e+06
3.47848e+06
3.47916e+06
3.47978e+06
3.48034e+06
3.48086e+06
3.48134e+06
3.48178e+06
3.4822e+06
3.48259e+06
3.48295e+06
3.48329e+06
3.48361e+06
3.48391e+06
3.48419e+06
3.48444e+06
3.48468e+06
3.4849e+06
3.4851e+06
3.48527e+06
3.48542e+06
3.48555e+06
3.48565e+06
3.48572e+06
3.48577e+06
3.48579e+06
3.48578e+06
3.48573e+06
3.48565e+06
3.48553e+06
3.48538e+06
3.48514e+06
3.4491e+06
3.45452e+06
3.4588e+06
3.46234e+06
3.46524e+06
3.46766e+06
3.46971e+06
3.47144e+06
3.47294e+06
3.47422e+06
3.47535e+06
3.47634e+06
3.47721e+06
3.47799e+06
3.47869e+06
3.47933e+06
3.47991e+06
3.48044e+06
3.48094e+06
3.48139e+06
3.48182e+06
3.48222e+06
3.4826e+06
3.48295e+06
3.48328e+06
3.48359e+06
3.48389e+06
3.48416e+06
3.48442e+06
3.48465e+06
3.48487e+06
3.48506e+06
3.48524e+06
3.48539e+06
3.48551e+06
3.48561e+06
3.48569e+06
3.48574e+06
3.48575e+06
3.48574e+06
3.4857e+06
3.48562e+06
3.4855e+06
3.48535e+06
3.48512e+06
3.45188e+06
3.45686e+06
3.46078e+06
3.46401e+06
3.46665e+06
3.46886e+06
3.47071e+06
3.47229e+06
3.47364e+06
3.47482e+06
3.47584e+06
3.47674e+06
3.47755e+06
3.47826e+06
3.47891e+06
3.47951e+06
3.48005e+06
3.48055e+06
3.48102e+06
3.48145e+06
3.48186e+06
3.48225e+06
3.48261e+06
3.48295e+06
3.48328e+06
3.48358e+06
3.48387e+06
3.48414e+06
3.48439e+06
3.48462e+06
3.48484e+06
3.48503e+06
3.4852e+06
3.48535e+06
3.48548e+06
3.48558e+06
3.48566e+06
3.48571e+06
3.48573e+06
3.48571e+06
3.48567e+06
3.48559e+06
3.48547e+06
3.48533e+06
3.4851e+06
3.45493e+06
3.45941e+06
3.46293e+06
3.46581e+06
3.46816e+06
3.47013e+06
3.47178e+06
3.47318e+06
3.47439e+06
3.47544e+06
3.47636e+06
3.47717e+06
3.4779e+06
3.47855e+06
3.47915e+06
3.47969e+06
3.4802e+06
3.48067e+06
3.4811e+06
3.48152e+06
3.48191e+06
3.48228e+06
3.48263e+06
3.48296e+06
3.48327e+06
3.48357e+06
3.48386e+06
3.48412e+06
3.48437e+06
3.4846e+06
3.48481e+06
3.48501e+06
3.48518e+06
3.48533e+06
3.48545e+06
3.48555e+06
3.48563e+06
3.48568e+06
3.4857e+06
3.48569e+06
3.48564e+06
3.48557e+06
3.48545e+06
3.48531e+06
3.48509e+06
3.45822e+06
3.46216e+06
3.46522e+06
3.46773e+06
3.46977e+06
3.47148e+06
3.47291e+06
3.47413e+06
3.47518e+06
3.47609e+06
3.4769e+06
3.47762e+06
3.47826e+06
3.47885e+06
3.47939e+06
3.47988e+06
3.48035e+06
3.48078e+06
3.48119e+06
3.48158e+06
3.48195e+06
3.48231e+06
3.48264e+06
3.48297e+06
3.48327e+06
3.48357e+06
3.48384e+06
3.4841e+06
3.48435e+06
3.48458e+06
3.48479e+06
3.48498e+06
3.48515e+06
3.4853e+06
3.48543e+06
3.48553e+06
3.48561e+06
3.48566e+06
3.48568e+06
3.48567e+06
3.48562e+06
3.48555e+06
3.48544e+06
3.4853e+06
3.48508e+06
3.46177e+06
3.46511e+06
3.46767e+06
3.46977e+06
3.47147e+06
3.47289e+06
3.47409e+06
3.47511e+06
3.47599e+06
3.47677e+06
3.47745e+06
3.47807e+06
3.47864e+06
3.47915e+06
3.47963e+06
3.48008e+06
3.48051e+06
3.48091e+06
3.48129e+06
3.48165e+06
3.482e+06
3.48234e+06
3.48267e+06
3.48298e+06
3.48328e+06
3.48356e+06
3.48383e+06
3.48409e+06
3.48433e+06
3.48456e+06
3.48477e+06
3.48496e+06
3.48513e+06
3.48528e+06
3.48541e+06
3.48551e+06
3.48558e+06
3.48563e+06
3.48565e+06
3.48565e+06
3.48561e+06
3.48554e+06
3.48542e+06
3.48529e+06
3.48507e+06
3.46556e+06
3.46824e+06
3.47027e+06
3.47192e+06
3.47326e+06
3.47437e+06
3.47531e+06
3.47612e+06
3.47683e+06
3.47746e+06
3.47803e+06
3.47854e+06
3.47902e+06
3.47946e+06
3.47988e+06
3.48028e+06
3.48066e+06
3.48103e+06
3.48138e+06
3.48172e+06
3.48206e+06
3.48238e+06
3.48269e+06
3.48299e+06
3.48328e+06
3.48356e+06
3.48383e+06
3.48408e+06
3.48432e+06
3.48454e+06
3.48475e+06
3.48494e+06
3.48511e+06
3.48526e+06
3.48539e+06
3.48549e+06
3.48557e+06
3.48562e+06
3.48564e+06
3.48563e+06
3.48559e+06
3.48552e+06
3.48541e+06
3.48528e+06
3.48507e+06
3.46961e+06
3.47154e+06
3.473e+06
3.47417e+06
3.47512e+06
3.47591e+06
3.47658e+06
3.47717e+06
3.47769e+06
3.47817e+06
3.47861e+06
3.47902e+06
3.47941e+06
3.47978e+06
3.48014e+06
3.48048e+06
3.48082e+06
3.48115e+06
3.48148e+06
3.4818e+06
3.48211e+06
3.48241e+06
3.48271e+06
3.483e+06
3.48328e+06
3.48356e+06
3.48382e+06
3.48407e+06
3.48431e+06
3.48453e+06
3.48474e+06
3.48493e+06
3.4851e+06
3.48525e+06
3.48537e+06
3.48547e+06
3.48555e+06
3.4856e+06
3.48562e+06
3.48562e+06
3.48558e+06
3.48551e+06
3.4854e+06
3.48528e+06
3.48507e+06
3.47387e+06
3.475e+06
3.47584e+06
3.4765e+06
3.47704e+06
3.47749e+06
3.47788e+06
3.47824e+06
3.47857e+06
3.47889e+06
3.4792e+06
3.4795e+06
3.4798e+06
3.48009e+06
3.48039e+06
3.48069e+06
3.48098e+06
3.48128e+06
3.48157e+06
3.48187e+06
3.48216e+06
3.48245e+06
3.48274e+06
3.48302e+06
3.48329e+06
3.48356e+06
3.48382e+06
3.48406e+06
3.4843e+06
3.48452e+06
3.48473e+06
3.48491e+06
3.48508e+06
3.48523e+06
3.48536e+06
3.48546e+06
3.48554e+06
3.48559e+06
3.48561e+06
3.48561e+06
3.48557e+06
3.4855e+06
3.4854e+06
3.48527e+06
3.48508e+06
3.47835e+06
3.4786e+06
3.4788e+06
3.4789e+06
3.479e+06
3.47909e+06
3.47919e+06
3.47931e+06
3.47945e+06
3.47961e+06
3.47978e+06
3.47997e+06
3.48018e+06
3.48041e+06
3.48064e+06
3.48089e+06
3.48114e+06
3.4814e+06
3.48167e+06
3.48194e+06
3.48221e+06
3.48249e+06
3.48276e+06
3.48303e+06
3.4833e+06
3.48356e+06
3.48382e+06
3.48406e+06
3.48429e+06
3.48451e+06
3.48472e+06
3.48491e+06
3.48507e+06
3.48522e+06
3.48535e+06
3.48545e+06
3.48553e+06
3.48558e+06
3.4856e+06
3.4856e+06
3.48556e+06
3.4855e+06
3.4854e+06
3.48528e+06
3.48508e+06
3.48302e+06
3.48233e+06
3.48183e+06
3.48135e+06
3.48099e+06
3.48071e+06
3.48051e+06
3.48039e+06
3.48033e+06
3.48032e+06
3.48036e+06
3.48045e+06
3.48056e+06
3.48071e+06
3.48089e+06
3.48108e+06
3.48129e+06
3.48152e+06
3.48176e+06
3.48201e+06
3.48226e+06
3.48252e+06
3.48279e+06
3.48305e+06
3.48331e+06
3.48356e+06
3.48381e+06
3.48406e+06
3.48429e+06
3.48451e+06
3.48471e+06
3.4849e+06
3.48507e+06
3.48522e+06
3.48534e+06
3.48545e+06
3.48552e+06
3.48558e+06
3.4856e+06
3.48559e+06
3.48556e+06
3.4855e+06
3.4854e+06
3.48528e+06
3.4851e+06
3.48785e+06
3.48616e+06
3.4849e+06
3.48383e+06
3.48299e+06
3.48233e+06
3.48182e+06
3.48145e+06
3.48119e+06
3.48102e+06
3.48093e+06
3.48091e+06
3.48093e+06
3.48101e+06
3.48112e+06
3.48127e+06
3.48144e+06
3.48163e+06
3.48185e+06
3.48207e+06
3.48231e+06
3.48256e+06
3.48281e+06
3.48306e+06
3.48332e+06
3.48357e+06
3.48382e+06
3.48406e+06
3.48429e+06
3.4845e+06
3.48471e+06
3.48489e+06
3.48506e+06
3.48521e+06
3.48534e+06
3.48544e+06
3.48552e+06
3.48557e+06
3.4856e+06
3.48559e+06
3.48556e+06
3.4855e+06
3.4854e+06
3.48529e+06
3.48511e+06
3.49276e+06
3.49004e+06
3.48797e+06
3.48628e+06
3.48496e+06
3.48391e+06
3.48311e+06
3.48249e+06
3.48203e+06
3.4817e+06
3.48148e+06
3.48135e+06
3.48129e+06
3.4813e+06
3.48135e+06
3.48145e+06
3.48158e+06
3.48174e+06
3.48193e+06
3.48214e+06
3.48236e+06
3.48259e+06
3.48283e+06
3.48308e+06
3.48333e+06
3.48357e+06
3.48382e+06
3.48406e+06
3.48428e+06
3.4845e+06
3.48471e+06
3.48489e+06
3.48506e+06
3.48521e+06
3.48534e+06
3.48544e+06
3.48552e+06
3.48557e+06
3.4856e+06
3.48559e+06
3.48556e+06
3.4855e+06
3.48541e+06
3.4853e+06
3.48513e+06
3.49762e+06
3.49387e+06
3.49097e+06
3.48867e+06
3.48686e+06
3.48544e+06
3.48434e+06
3.48349e+06
3.48284e+06
3.48235e+06
3.48201e+06
3.48177e+06
3.48163e+06
3.48157e+06
3.48157e+06
3.48162e+06
3.48171e+06
3.48185e+06
3.48201e+06
3.4822e+06
3.4824e+06
3.48262e+06
3.48286e+06
3.48309e+06
3.48334e+06
3.48358e+06
3.48382e+06
3.48406e+06
3.48429e+06
3.4845e+06
3.48471e+06
3.4849e+06
3.48507e+06
3.48522e+06
3.48534e+06
3.48545e+06
3.48553e+06
3.48558e+06
3.4856e+06
3.4856e+06
3.48556e+06
3.4855e+06
3.48541e+06
3.48531e+06
3.48515e+06
3.50221e+06
3.49751e+06
3.49381e+06
3.49093e+06
3.48867e+06
3.48689e+06
3.48551e+06
3.48443e+06
3.4836e+06
3.48297e+06
3.4825e+06
3.48217e+06
3.48195e+06
3.48182e+06
3.48177e+06
3.48177e+06
3.48184e+06
3.48194e+06
3.48208e+06
3.48225e+06
3.48244e+06
3.48265e+06
3.48288e+06
3.48311e+06
3.48335e+06
3.48359e+06
3.48383e+06
3.48406e+06
3.48429e+06
3.48451e+06
3.48471e+06
3.4849e+06
3.48507e+06
3.48522e+06
3.48535e+06
3.48545e+06
3.48553e+06
3.48558e+06
3.48561e+06
3.4856e+06
3.48557e+06
3.48551e+06
3.48542e+06
3.48532e+06
3.48517e+06
3.50637e+06
3.50086e+06
3.49642e+06
3.49303e+06
3.49033e+06
3.48824e+06
3.48659e+06
3.4853e+06
3.4843e+06
3.48353e+06
3.48296e+06
3.48254e+06
3.48224e+06
3.48205e+06
3.48195e+06
3.48192e+06
3.48195e+06
3.48203e+06
3.48215e+06
3.4823e+06
3.48248e+06
3.48268e+06
3.48289e+06
3.48312e+06
3.48336e+06
3.48359e+06
3.48383e+06
3.48407e+06
3.48429e+06
3.48451e+06
3.48472e+06
3.48491e+06
3.48508e+06
3.48523e+06
3.48536e+06
3.48546e+06
3.48554e+06
3.48559e+06
3.48562e+06
3.48561e+06
3.48558e+06
3.48552e+06
3.48544e+06
3.48534e+06
3.48519e+06
3.50996e+06
3.50381e+06
3.49873e+06
3.4949e+06
3.49184e+06
3.48945e+06
3.48757e+06
3.48609e+06
3.48494e+06
3.48405e+06
3.48337e+06
3.48287e+06
3.48251e+06
3.48226e+06
3.48211e+06
3.48205e+06
3.48205e+06
3.4821e+06
3.4822e+06
3.48234e+06
3.48251e+06
3.4827e+06
3.48291e+06
3.48313e+06
3.48336e+06
3.4836e+06
3.48384e+06
3.48407e+06
3.4843e+06
3.48452e+06
3.48473e+06
3.48492e+06
3.48509e+06
3.48524e+06
3.48537e+06
3.48548e+06
3.48555e+06
3.48561e+06
3.48563e+06
3.48562e+06
3.48559e+06
3.48553e+06
3.48545e+06
3.48535e+06
3.48522e+06
3.51294e+06
3.5063e+06
3.50072e+06
3.49653e+06
3.49315e+06
3.49052e+06
3.48843e+06
3.4868e+06
3.48551e+06
3.48451e+06
3.48374e+06
3.48317e+06
3.48274e+06
3.48245e+06
3.48226e+06
3.48216e+06
3.48213e+06
3.48217e+06
3.48225e+06
3.48237e+06
3.48253e+06
3.48272e+06
3.48292e+06
3.48314e+06
3.48337e+06
3.48361e+06
3.48385e+06
3.48408e+06
3.48431e+06
3.48453e+06
3.48474e+06
3.48493e+06
3.4851e+06
3.48526e+06
3.48539e+06
3.48549e+06
3.48557e+06
3.48562e+06
3.48564e+06
3.48564e+06
3.4856e+06
3.48555e+06
3.48546e+06
3.48537e+06
3.48524e+06
3.51535e+06
3.50832e+06
3.50237e+06
3.49789e+06
3.49426e+06
3.49144e+06
3.48918e+06
3.48741e+06
3.48601e+06
3.48491e+06
3.48407e+06
3.48342e+06
3.48295e+06
3.48261e+06
3.48238e+06
3.48225e+06
3.4822e+06
3.48222e+06
3.48229e+06
3.4824e+06
3.48255e+06
3.48273e+06
3.48293e+06
3.48315e+06
3.48338e+06
3.48362e+06
3.48385e+06
3.48409e+06
3.48432e+06
3.48454e+06
3.48475e+06
3.48495e+06
3.48512e+06
3.48528e+06
3.48541e+06
3.48551e+06
3.48559e+06
3.48564e+06
3.48566e+06
3.48566e+06
3.48562e+06
3.48556e+06
3.48548e+06
3.48539e+06
3.48527e+06
3.51729e+06
3.50991e+06
3.5037e+06
3.49899e+06
3.49518e+06
3.49219e+06
3.4898e+06
3.48792e+06
3.48642e+06
3.48525e+06
3.48434e+06
3.48364e+06
3.48312e+06
3.48274e+06
3.48249e+06
3.48233e+06
3.48226e+06
3.48226e+06
3.48232e+06
3.48242e+06
3.48257e+06
3.48274e+06
3.48294e+06
3.48316e+06
3.48339e+06
3.48362e+06
3.48386e+06
3.4841e+06
3.48433e+06
3.48456e+06
3.48477e+06
3.48496e+06
3.48514e+06
3.4853e+06
3.48543e+06
3.48553e+06
3.48561e+06
3.48566e+06
3.48568e+06
3.48568e+06
3.48564e+06
3.48558e+06
3.4855e+06
3.48542e+06
3.4853e+06
3.542e+06
3.52952e+06
3.51884e+06
3.51108e+06
3.50473e+06
3.49984e+06
3.4959e+06
3.49279e+06
3.4903e+06
3.48833e+06
3.48676e+06
3.48552e+06
3.48456e+06
3.48381e+06
3.48325e+06
3.48284e+06
3.48256e+06
3.48239e+06
3.4823e+06
3.48229e+06
3.48234e+06
3.48244e+06
3.48258e+06
3.48275e+06
3.48295e+06
3.48316e+06
3.48339e+06
3.48363e+06
3.48387e+06
3.48411e+06
3.48435e+06
3.48457e+06
3.48479e+06
3.48499e+06
3.48517e+06
3.48532e+06
3.48545e+06
3.48556e+06
3.48564e+06
3.48569e+06
3.48571e+06
3.4857e+06
3.48566e+06
3.4856e+06
3.48552e+06
3.48544e+06
3.48533e+06
3.54451e+06
3.53051e+06
3.51998e+06
3.51187e+06
3.50546e+06
3.50044e+06
3.49643e+06
3.49324e+06
3.49068e+06
3.48865e+06
3.48702e+06
3.48574e+06
3.48473e+06
3.48395e+06
3.48335e+06
3.48292e+06
3.48262e+06
3.48243e+06
3.48233e+06
3.48231e+06
3.48235e+06
3.48244e+06
3.48258e+06
3.48275e+06
3.48295e+06
3.48317e+06
3.4834e+06
3.48364e+06
3.48388e+06
3.48413e+06
3.48437e+06
3.48459e+06
3.48481e+06
3.48501e+06
3.48519e+06
3.48535e+06
3.48548e+06
3.48559e+06
3.48567e+06
3.48572e+06
3.48573e+06
3.48572e+06
3.48568e+06
3.48562e+06
3.48554e+06
3.48546e+06
3.48536e+06
3.54573e+06
3.53058e+06
3.5205e+06
3.5122e+06
3.50587e+06
3.5008e+06
3.49677e+06
3.49354e+06
3.49095e+06
3.48887e+06
3.48721e+06
3.48589e+06
3.48485e+06
3.48404e+06
3.48342e+06
3.48297e+06
3.48265e+06
3.48245e+06
3.48234e+06
3.48231e+06
3.48235e+06
3.48244e+06
3.48257e+06
3.48275e+06
3.48295e+06
3.48317e+06
3.4834e+06
3.48365e+06
3.48389e+06
3.48414e+06
3.48438e+06
3.48462e+06
3.48484e+06
3.48504e+06
3.48522e+06
3.48538e+06
3.48552e+06
3.48562e+06
3.4857e+06
3.48575e+06
3.48576e+06
3.48575e+06
3.48571e+06
3.48565e+06
3.48556e+06
3.48548e+06
3.48539e+06
3.54508e+06
3.53006e+06
3.52041e+06
3.51219e+06
3.506e+06
3.50096e+06
3.49695e+06
3.49372e+06
3.49111e+06
3.48901e+06
3.48733e+06
3.48598e+06
3.48492e+06
3.48409e+06
3.48346e+06
3.48299e+06
3.48266e+06
3.48245e+06
3.48233e+06
3.4823e+06
3.48233e+06
3.48242e+06
3.48256e+06
3.48274e+06
3.48294e+06
3.48316e+06
3.4834e+06
3.48365e+06
3.48391e+06
3.48416e+06
3.48441e+06
3.48464e+06
3.48487e+06
3.48507e+06
3.48526e+06
3.48542e+06
3.48555e+06
3.48566e+06
3.48574e+06
3.48578e+06
3.4858e+06
3.48578e+06
3.48574e+06
3.48567e+06
3.48558e+06
3.4855e+06
3.48542e+06
3.5428e+06
3.52902e+06
3.5197e+06
3.51185e+06
3.50585e+06
3.50092e+06
3.49699e+06
3.49378e+06
3.49118e+06
3.48908e+06
3.48738e+06
3.48602e+06
3.48494e+06
3.4841e+06
3.48345e+06
3.48298e+06
3.48264e+06
3.48242e+06
3.48231e+06
3.48227e+06
3.48231e+06
3.4824e+06
3.48254e+06
3.48272e+06
3.48293e+06
3.48316e+06
3.48341e+06
3.48366e+06
3.48392e+06
3.48418e+06
3.48443e+06
3.48467e+06
3.4849e+06
3.48511e+06
3.48529e+06
3.48546e+06
3.4856e+06
3.4857e+06
3.48578e+06
3.48582e+06
3.48583e+06
3.48581e+06
3.48577e+06
3.48569e+06
3.48561e+06
3.48552e+06
3.48544e+06
3.54021e+06
3.52788e+06
3.51884e+06
3.51144e+06
3.50561e+06
3.50081e+06
3.49694e+06
3.49376e+06
3.49118e+06
3.48908e+06
3.48738e+06
3.48601e+06
3.48492e+06
3.48407e+06
3.48342e+06
3.48294e+06
3.4826e+06
3.48238e+06
3.48226e+06
3.48223e+06
3.48227e+06
3.48237e+06
3.48252e+06
3.4827e+06
3.48292e+06
3.48315e+06
3.48341e+06
3.48367e+06
3.48393e+06
3.4842e+06
3.48445e+06
3.4847e+06
3.48493e+06
3.48514e+06
3.48534e+06
3.4855e+06
3.48564e+06
3.48575e+06
3.48582e+06
3.48587e+06
3.48587e+06
3.48585e+06
3.4858e+06
3.48572e+06
3.48563e+06
3.48554e+06
3.48547e+06
3.53741e+06
3.52624e+06
3.51768e+06
3.51077e+06
3.50517e+06
3.50055e+06
3.49677e+06
3.49365e+06
3.4911e+06
3.48901e+06
3.48731e+06
3.48594e+06
3.48485e+06
3.484e+06
3.48335e+06
3.48287e+06
3.48253e+06
3.48231e+06
3.4822e+06
3.48218e+06
3.48223e+06
3.48233e+06
3.48249e+06
3.48268e+06
3.4829e+06
3.48315e+06
3.48341e+06
3.48368e+06
3.48395e+06
3.48422e+06
3.48448e+06
3.48473e+06
3.48497e+06
3.48519e+06
3.48538e+06
3.48555e+06
3.48569e+06
3.4858e+06
3.48587e+06
3.48591e+06
3.48592e+06
3.48589e+06
3.48583e+06
3.48575e+06
3.48565e+06
3.48556e+06
3.48548e+06
3.5364e+06
3.52552e+06
3.51716e+06
3.51043e+06
3.50491e+06
3.50035e+06
3.4966e+06
3.4935e+06
3.49095e+06
3.48887e+06
3.48718e+06
3.48581e+06
3.48473e+06
3.48388e+06
3.48323e+06
3.48276e+06
3.48243e+06
3.48222e+06
3.48212e+06
3.48211e+06
3.48216e+06
3.48228e+06
3.48244e+06
3.48265e+06
3.48288e+06
3.48314e+06
3.4834e+06
3.48368e+06
3.48396e+06
3.48424e+06
3.48451e+06
3.48477e+06
3.48501e+06
3.48523e+06
3.48543e+06
3.4856e+06
3.48574e+06
3.48585e+06
3.48592e+06
3.48596e+06
3.48596e+06
3.48593e+06
3.48587e+06
3.48578e+06
3.48567e+06
3.48557e+06
3.4855e+06
3.53475e+06
3.52402e+06
3.51608e+06
3.50965e+06
3.50434e+06
3.49992e+06
3.49625e+06
3.49321e+06
3.4907e+06
3.48864e+06
3.48696e+06
3.48561e+06
3.48454e+06
3.4837e+06
3.48307e+06
3.48261e+06
3.4823e+06
3.4821e+06
3.48202e+06
3.48202e+06
3.48209e+06
3.48222e+06
3.48239e+06
3.48261e+06
3.48285e+06
3.48312e+06
3.4834e+06
3.48369e+06
3.48398e+06
3.48427e+06
3.48454e+06
3.48481e+06
3.48506e+06
3.48528e+06
3.48548e+06
3.48566e+06
3.4858e+06
3.48591e+06
3.48598e+06
3.48602e+06
3.48602e+06
3.48598e+06
3.4859e+06
3.48581e+06
3.48569e+06
3.48559e+06
3.48551e+06
3.53603e+06
3.52473e+06
3.51615e+06
3.50945e+06
3.50401e+06
3.49954e+06
3.49587e+06
3.49283e+06
3.49034e+06
3.4883e+06
3.48665e+06
3.48532e+06
3.48427e+06
3.48346e+06
3.48285e+06
3.48241e+06
3.48212e+06
3.48195e+06
3.48188e+06
3.4819e+06
3.48199e+06
3.48213e+06
3.48233e+06
3.48256e+06
3.48282e+06
3.4831e+06
3.4834e+06
3.4837e+06
3.484e+06
3.48429e+06
3.48458e+06
3.48485e+06
3.48511e+06
3.48534e+06
3.48555e+06
3.48572e+06
3.48587e+06
3.48598e+06
3.48605e+06
3.48608e+06
3.48607e+06
3.48603e+06
3.48595e+06
3.48584e+06
3.48571e+06
3.4856e+06
3.48551e+06
3.52983e+06
3.52104e+06
3.51381e+06
3.50779e+06
3.50274e+06
3.49852e+06
3.495e+06
3.49209e+06
3.48969e+06
3.48773e+06
3.48614e+06
3.48487e+06
3.48387e+06
3.48311e+06
3.48254e+06
3.48214e+06
3.48189e+06
3.48175e+06
3.48171e+06
3.48176e+06
3.48187e+06
3.48204e+06
3.48226e+06
3.48251e+06
3.48279e+06
3.48308e+06
3.48339e+06
3.4837e+06
3.48401e+06
3.48432e+06
3.48462e+06
3.4849e+06
3.48516e+06
3.48539e+06
3.4856e+06
3.48578e+06
3.48593e+06
3.48604e+06
3.48611e+06
3.48614e+06
3.48613e+06
3.48608e+06
3.48599e+06
3.48587e+06
3.48573e+06
3.4856e+06
3.48551e+06
3.48605e+06
3.4861e+06
3.48611e+06
3.48609e+06
3.48604e+06
3.48595e+06
3.48581e+06
3.48565e+06
3.4854e+06
3.48569e+06
3.48582e+06
3.48592e+06
3.48599e+06
3.48604e+06
3.48605e+06
3.48604e+06
3.48598e+06
3.4859e+06
3.48576e+06
3.4856e+06
3.48535e+06
3.43735e+06
3.44445e+06
3.45017e+06
3.45493e+06
3.45891e+06
3.46225e+06
3.4651e+06
3.46754e+06
3.46964e+06
3.47145e+06
3.47303e+06
3.47441e+06
3.47562e+06
3.47669e+06
3.47765e+06
3.4785e+06
3.47926e+06
3.47996e+06
3.48058e+06
3.48116e+06
3.48168e+06
3.48216e+06
3.4826e+06
3.48301e+06
3.48339e+06
3.48374e+06
3.48406e+06
3.48436e+06
3.48463e+06
3.48488e+06
3.48511e+06
3.48531e+06
3.48549e+06
3.48564e+06
3.48577e+06
3.48587e+06
3.48594e+06
3.48599e+06
3.486e+06
3.48598e+06
3.48593e+06
3.48585e+06
3.48571e+06
3.48556e+06
3.4853e+06
3.43876e+06
3.44569e+06
3.45124e+06
3.45586e+06
3.45971e+06
3.46295e+06
3.4657e+06
3.46805e+06
3.47007e+06
3.47181e+06
3.47333e+06
3.47466e+06
3.47583e+06
3.47686e+06
3.47778e+06
3.4786e+06
3.47934e+06
3.48001e+06
3.48062e+06
3.48118e+06
3.48169e+06
3.48216e+06
3.48259e+06
3.48299e+06
3.48336e+06
3.48371e+06
3.48402e+06
3.48432e+06
3.48459e+06
3.48484e+06
3.48506e+06
3.48526e+06
3.48544e+06
3.48559e+06
3.48572e+06
3.48582e+06
3.48589e+06
3.48594e+06
3.48595e+06
3.48594e+06
3.48588e+06
3.4858e+06
3.48567e+06
3.48551e+06
3.48526e+06
3.44037e+06
3.44709e+06
3.45245e+06
3.45691e+06
3.46061e+06
3.46372e+06
3.46636e+06
3.46861e+06
3.47054e+06
3.47222e+06
3.47367e+06
3.47494e+06
3.47606e+06
3.47705e+06
3.47793e+06
3.47872e+06
3.47944e+06
3.48008e+06
3.48067e+06
3.48121e+06
3.4817e+06
3.48216e+06
3.48258e+06
3.48297e+06
3.48334e+06
3.48368e+06
3.48399e+06
3.48428e+06
3.48455e+06
3.48479e+06
3.48501e+06
3.48521e+06
3.48539e+06
3.48554e+06
3.48567e+06
3.48577e+06
3.48584e+06
3.48589e+06
3.48591e+06
3.48589e+06
3.48584e+06
3.48576e+06
3.48563e+06
3.48547e+06
3.48523e+06
3.4422e+06
3.44867e+06
3.45381e+06
3.45808e+06
3.46161e+06
3.46458e+06
3.46709e+06
3.46923e+06
3.47107e+06
3.47266e+06
3.47404e+06
3.47525e+06
3.47632e+06
3.47726e+06
3.4781e+06
3.47886e+06
3.47954e+06
3.48016e+06
3.48072e+06
3.48124e+06
3.48172e+06
3.48217e+06
3.48258e+06
3.48296e+06
3.48332e+06
3.48365e+06
3.48396e+06
3.48425e+06
3.48451e+06
3.48475e+06
3.48497e+06
3.48517e+06
3.48535e+06
3.4855e+06
3.48562e+06
3.48573e+06
3.4858e+06
3.48585e+06
3.48586e+06
3.48585e+06
3.4858e+06
3.48572e+06
3.48559e+06
3.48544e+06
3.48519e+06
3.44426e+06
3.45043e+06
3.45532e+06
3.45938e+06
3.46272e+06
3.46553e+06
3.4679e+06
3.46991e+06
3.47165e+06
3.47314e+06
3.47445e+06
3.47559e+06
3.47659e+06
3.47749e+06
3.47828e+06
3.479e+06
3.47965e+06
3.48025e+06
3.48079e+06
3.48129e+06
3.48175e+06
3.48218e+06
3.48258e+06
3.48295e+06
3.4833e+06
3.48363e+06
3.48393e+06
3.48421e+06
3.48448e+06
3.48472e+06
3.48493e+06
3.48513e+06
3.48531e+06
3.48546e+06
3.48558e+06
3.48569e+06
3.48576e+06
3.48581e+06
3.48582e+06
3.48581e+06
3.48576e+06
3.48568e+06
3.48556e+06
3.48541e+06
3.48517e+06
3.44656e+06
3.45237e+06
3.45698e+06
3.46079e+06
3.46393e+06
3.46655e+06
3.46877e+06
3.47065e+06
3.47227e+06
3.47367e+06
3.47488e+06
3.47595e+06
3.47689e+06
3.47773e+06
3.47848e+06
3.47916e+06
3.47978e+06
3.48034e+06
3.48086e+06
3.48134e+06
3.48178e+06
3.4822e+06
3.48259e+06
3.48295e+06
3.48329e+06
3.48361e+06
3.48391e+06
3.48419e+06
3.48444e+06
3.48468e+06
3.4849e+06
3.4851e+06
3.48527e+06
3.48542e+06
3.48555e+06
3.48565e+06
3.48572e+06
3.48577e+06
3.48579e+06
3.48578e+06
3.48573e+06
3.48565e+06
3.48553e+06
3.48538e+06
3.48514e+06
3.4491e+06
3.45452e+06
3.4588e+06
3.46234e+06
3.46524e+06
3.46766e+06
3.46971e+06
3.47144e+06
3.47294e+06
3.47422e+06
3.47535e+06
3.47634e+06
3.47721e+06
3.47799e+06
3.47869e+06
3.47933e+06
3.47991e+06
3.48044e+06
3.48094e+06
3.48139e+06
3.48182e+06
3.48222e+06
3.4826e+06
3.48295e+06
3.48328e+06
3.48359e+06
3.48389e+06
3.48416e+06
3.48442e+06
3.48465e+06
3.48487e+06
3.48506e+06
3.48524e+06
3.48539e+06
3.48551e+06
3.48561e+06
3.48569e+06
3.48574e+06
3.48575e+06
3.48574e+06
3.4857e+06
3.48562e+06
3.4855e+06
3.48535e+06
3.48512e+06
3.45188e+06
3.45686e+06
3.46078e+06
3.46401e+06
3.46665e+06
3.46886e+06
3.47071e+06
3.47229e+06
3.47364e+06
3.47482e+06
3.47584e+06
3.47674e+06
3.47755e+06
3.47826e+06
3.47891e+06
3.47951e+06
3.48005e+06
3.48055e+06
3.48102e+06
3.48145e+06
3.48186e+06
3.48225e+06
3.48261e+06
3.48295e+06
3.48328e+06
3.48358e+06
3.48387e+06
3.48414e+06
3.48439e+06
3.48462e+06
3.48484e+06
3.48503e+06
3.4852e+06
3.48535e+06
3.48548e+06
3.48558e+06
3.48566e+06
3.48571e+06
3.48573e+06
3.48571e+06
3.48567e+06
3.48559e+06
3.48547e+06
3.48533e+06
3.4851e+06
3.45493e+06
3.45941e+06
3.46293e+06
3.46581e+06
3.46816e+06
3.47013e+06
3.47178e+06
3.47318e+06
3.47439e+06
3.47544e+06
3.47636e+06
3.47717e+06
3.4779e+06
3.47855e+06
3.47915e+06
3.47969e+06
3.4802e+06
3.48067e+06
3.4811e+06
3.48152e+06
3.48191e+06
3.48228e+06
3.48263e+06
3.48296e+06
3.48327e+06
3.48357e+06
3.48386e+06
3.48412e+06
3.48437e+06
3.4846e+06
3.48481e+06
3.48501e+06
3.48518e+06
3.48533e+06
3.48545e+06
3.48555e+06
3.48563e+06
3.48568e+06
3.4857e+06
3.48569e+06
3.48564e+06
3.48557e+06
3.48545e+06
3.48531e+06
3.48509e+06
3.45822e+06
3.46216e+06
3.46522e+06
3.46773e+06
3.46977e+06
3.47148e+06
3.47291e+06
3.47413e+06
3.47518e+06
3.47609e+06
3.4769e+06
3.47762e+06
3.47826e+06
3.47885e+06
3.47939e+06
3.47988e+06
3.48035e+06
3.48078e+06
3.48119e+06
3.48158e+06
3.48195e+06
3.48231e+06
3.48264e+06
3.48297e+06
3.48327e+06
3.48357e+06
3.48384e+06
3.4841e+06
3.48435e+06
3.48458e+06
3.48479e+06
3.48498e+06
3.48515e+06
3.4853e+06
3.48543e+06
3.48553e+06
3.48561e+06
3.48566e+06
3.48568e+06
3.48567e+06
3.48562e+06
3.48555e+06
3.48544e+06
3.4853e+06
3.48508e+06
3.46177e+06
3.46511e+06
3.46767e+06
3.46977e+06
3.47147e+06
3.47289e+06
3.47409e+06
3.47511e+06
3.47599e+06
3.47677e+06
3.47745e+06
3.47807e+06
3.47864e+06
3.47915e+06
3.47963e+06
3.48008e+06
3.48051e+06
3.48091e+06
3.48129e+06
3.48165e+06
3.482e+06
3.48234e+06
3.48267e+06
3.48298e+06
3.48328e+06
3.48356e+06
3.48383e+06
3.48409e+06
3.48433e+06
3.48456e+06
3.48477e+06
3.48496e+06
3.48513e+06
3.48528e+06
3.48541e+06
3.48551e+06
3.48558e+06
3.48563e+06
3.48565e+06
3.48565e+06
3.48561e+06
3.48554e+06
3.48542e+06
3.48529e+06
3.48507e+06
3.46556e+06
3.46824e+06
3.47027e+06
3.47192e+06
3.47326e+06
3.47437e+06
3.47531e+06
3.47612e+06
3.47683e+06
3.47746e+06
3.47803e+06
3.47854e+06
3.47902e+06
3.47946e+06
3.47988e+06
3.48028e+06
3.48066e+06
3.48103e+06
3.48138e+06
3.48172e+06
3.48206e+06
3.48238e+06
3.48269e+06
3.48299e+06
3.48328e+06
3.48356e+06
3.48383e+06
3.48408e+06
3.48432e+06
3.48454e+06
3.48475e+06
3.48494e+06
3.48511e+06
3.48526e+06
3.48539e+06
3.48549e+06
3.48557e+06
3.48562e+06
3.48564e+06
3.48563e+06
3.48559e+06
3.48552e+06
3.48541e+06
3.48528e+06
3.48507e+06
3.46961e+06
3.47154e+06
3.473e+06
3.47417e+06
3.47512e+06
3.47591e+06
3.47658e+06
3.47717e+06
3.47769e+06
3.47817e+06
3.47861e+06
3.47902e+06
3.47941e+06
3.47978e+06
3.48014e+06
3.48048e+06
3.48082e+06
3.48115e+06
3.48148e+06
3.4818e+06
3.48211e+06
3.48241e+06
3.48271e+06
3.483e+06
3.48328e+06
3.48356e+06
3.48382e+06
3.48407e+06
3.48431e+06
3.48453e+06
3.48474e+06
3.48493e+06
3.4851e+06
3.48525e+06
3.48537e+06
3.48547e+06
3.48555e+06
3.4856e+06
3.48562e+06
3.48562e+06
3.48558e+06
3.48551e+06
3.4854e+06
3.48528e+06
3.48507e+06
3.47387e+06
3.475e+06
3.47584e+06
3.4765e+06
3.47704e+06
3.47749e+06
3.47788e+06
3.47824e+06
3.47857e+06
3.47889e+06
3.4792e+06
3.4795e+06
3.4798e+06
3.48009e+06
3.48039e+06
3.48069e+06
3.48098e+06
3.48128e+06
3.48157e+06
3.48187e+06
3.48216e+06
3.48245e+06
3.48274e+06
3.48302e+06
3.48329e+06
3.48356e+06
3.48382e+06
3.48406e+06
3.4843e+06
3.48452e+06
3.48473e+06
3.48491e+06
3.48508e+06
3.48523e+06
3.48536e+06
3.48546e+06
3.48554e+06
3.48559e+06
3.48561e+06
3.48561e+06
3.48557e+06
3.4855e+06
3.4854e+06
3.48527e+06
3.48508e+06
3.47835e+06
3.4786e+06
3.4788e+06
3.4789e+06
3.479e+06
3.47909e+06
3.47919e+06
3.47931e+06
3.47945e+06
3.47961e+06
3.47978e+06
3.47997e+06
3.48018e+06
3.48041e+06
3.48064e+06
3.48089e+06
3.48114e+06
3.4814e+06
3.48167e+06
3.48194e+06
3.48221e+06
3.48249e+06
3.48276e+06
3.48303e+06
3.4833e+06
3.48356e+06
3.48382e+06
3.48406e+06
3.48429e+06
3.48451e+06
3.48472e+06
3.48491e+06
3.48507e+06
3.48522e+06
3.48535e+06
3.48545e+06
3.48553e+06
3.48558e+06
3.4856e+06
3.4856e+06
3.48556e+06
3.4855e+06
3.4854e+06
3.48528e+06
3.48508e+06
3.48302e+06
3.48233e+06
3.48183e+06
3.48135e+06
3.48099e+06
3.48071e+06
3.48051e+06
3.48039e+06
3.48033e+06
3.48032e+06
3.48036e+06
3.48045e+06
3.48056e+06
3.48071e+06
3.48089e+06
3.48108e+06
3.48129e+06
3.48152e+06
3.48176e+06
3.48201e+06
3.48226e+06
3.48252e+06
3.48279e+06
3.48305e+06
3.48331e+06
3.48356e+06
3.48381e+06
3.48406e+06
3.48429e+06
3.48451e+06
3.48471e+06
3.4849e+06
3.48507e+06
3.48522e+06
3.48534e+06
3.48545e+06
3.48552e+06
3.48558e+06
3.4856e+06
3.48559e+06
3.48556e+06
3.4855e+06
3.4854e+06
3.48528e+06
3.4851e+06
3.48785e+06
3.48616e+06
3.4849e+06
3.48383e+06
3.48299e+06
3.48233e+06
3.48182e+06
3.48145e+06
3.48119e+06
3.48102e+06
3.48093e+06
3.48091e+06
3.48093e+06
3.48101e+06
3.48112e+06
3.48127e+06
3.48144e+06
3.48163e+06
3.48185e+06
3.48207e+06
3.48231e+06
3.48256e+06
3.48281e+06
3.48306e+06
3.48332e+06
3.48357e+06
3.48382e+06
3.48406e+06
3.48429e+06
3.4845e+06
3.48471e+06
3.48489e+06
3.48506e+06
3.48521e+06
3.48534e+06
3.48544e+06
3.48552e+06
3.48557e+06
3.4856e+06
3.48559e+06
3.48556e+06
3.4855e+06
3.4854e+06
3.48529e+06
3.48511e+06
3.49276e+06