/*--------------------------------*- C++ -*----------------------------------*\
| =========                 |                                                 |
| \\      /  F ield         | OpenFOAM: The Open Source CFD Toolbox           |
|  \\    /   O peration     | Version:  v2012                                 |
|   \\  /    A nd           | Website:  www.openfoam.com                      |
|    \\/     M anipulation  |                                                 |
\*---------------------------------------------------------------------------*/
FoamFile
{
    version     2.0;
    format      ascii;
    class       surfaceScalarField;
    location    "0.8";
    object      phi;
}
// * * * * * * * * * * * * * * * * * * * * * * * * * * * * * * * * * * * * * //

dimensions      [0 3 -1 0 0 0 0];
oriented        oriented;


internalField   nonuniform List<scalar> 
8145
(
-2.40565e-08
8.51508e-08
-4.01933e-17
-2.0435e-08
8.96092e-08
-4.01805e-16
-1.66793e-08
9.19578e-08
-2.35095e-16
-1.28914e-08
9.15529e-08
-1.22082e-16
-9.20606e-09
8.76469e-08
-7.04927e-18
-5.80031e-09
7.93821e-08
1.76009e-16
-2.90808e-09
6.5716e-08
-8.50077e-17
-8.37863e-10
4.55187e-08
-1.99786e-17
1.74793e-08
-1.23784e-17
-3.32226e-08
6.13899e-08
-7.1538e-16
-3.04005e-08
6.90556e-08
-4.44473e-16
-2.72757e-08
7.59754e-08
-2.35276e-16
-2.38877e-08
8.17628e-08
-4.61061e-17
-2.02916e-08
8.6013e-08
-3.99291e-16
-1.65621e-08
8.82285e-08
-2.32529e-16
-1.28009e-08
8.77917e-08
-1.19883e-16
-9.1418e-09
8.39878e-08
-4.3949e-18
-5.76039e-09
7.60007e-08
1.79501e-16
-2.88864e-09
6.28442e-08
-7.92319e-17
-8.32613e-10
4.34627e-08
-1.72014e-17
1.66467e-08
-9.80186e-18
-8.45714e-09
-2.6962e-08
-4.79668e-15
-9.91187e-09
-2.94323e-08
-4.92191e-15
-1.14429e-08
-3.16539e-08
-4.5158e-15
-1.30298e-08
-3.36116e-08
-5.00596e-15
-1.46584e-08
-3.5312e-08
-4.59599e-15
-1.63196e-08
-3.67768e-08
-4.28823e-15
-1.80083e-08
-3.80282e-08
-3.9253e-15
-1.97209e-08
-3.90742e-08
-3.66577e-15
-2.14542e-08
-3.99232e-08
-3.43137e-15
-2.32042e-08
-4.0564e-08
-3.24929e-15
-2.49651e-08
-4.0983e-08
-3.02872e-15
-2.67291e-08
-4.11569e-08
-2.87246e-15
-2.84864e-08
-4.10534e-08
-2.73217e-15
-3.02254e-08
-4.06488e-08
-2.64823e-15
-3.1932e-08
-3.99025e-08
-2.55991e-15
-3.35909e-08
-3.87862e-08
-2.6033e-15
-3.51853e-08
-3.72673e-08
-2.33895e-15
-3.66972e-08
-3.53144e-08
-2.13548e-15
-3.8107e-08
-3.29002e-08
-1.95681e-15
-3.93947e-08
-2.99998e-08
-1.79062e-15
-4.05389e-08
-2.65936e-08
-1.65077e-15
-4.15179e-08
-2.26642e-08
-1.51787e-15
-4.23099e-08
-1.82021e-08
-1.404e-15
-4.28924e-08
-1.32028e-08
-1.29519e-15
-4.32436e-08
-7.66964e-09
-1.18709e-15
-4.33412e-08
-1.62051e-09
-1.07092e-15
-4.31649e-08
4.92309e-09
-9.52067e-16
-4.26947e-08
1.1923e-08
-8.34013e-16
-4.19136e-08
1.93228e-08
-7.07542e-16
-4.08069e-08
2.70444e-08
-5.61528e-16
-3.93619e-08
3.50126e-08
-3.85888e-16
-3.75731e-08
4.30792e-08
-1.16197e-16
-3.54381e-08
5.11148e-08
-3.89145e-16
-3.29634e-08
5.89152e-08
-6.98978e-16
-3.01635e-08
6.62557e-08
-4.47994e-16
-2.70628e-08
7.28747e-08
-2.50672e-16
-2.37007e-08
7.84007e-08
-5.05001e-17
-2.0132e-08
8.24443e-08
-3.96514e-16
-1.64314e-08
8.45279e-08
-2.29937e-16
-1.26996e-08
8.40599e-08
-1.17592e-16
-9.06959e-09
8.03578e-08
-1.87159e-18
-5.71532e-09
7.26464e-08
1.82367e-16
-2.86656e-09
5.99955e-08
-7.43689e-17
-8.26594e-10
4.14227e-08
-1.42168e-17
1.58201e-08
-7.52248e-18
-8.55575e-09
-2.56538e-08
-4.90821e-15
-9.96719e-09
-2.80208e-08
-4.944e-15
-1.14569e-08
-3.01641e-08
-4.33213e-15
-1.30054e-08
-3.20631e-08
-4.64644e-15
-1.45981e-08
-3.37193e-08
-4.29458e-15
-1.62258e-08
-3.51491e-08
-4.02742e-15
-1.78828e-08
-3.63713e-08
-3.73204e-15
-1.9565e-08
-3.7392e-08
-3.53306e-15
-2.1269e-08
-3.82191e-08
-3.36061e-15
-2.29906e-08
-3.88424e-08
-3.2221e-15
-2.47241e-08
-3.92495e-08
-3.02578e-15
-2.6462e-08
-3.94189e-08
-2.8881e-15
-2.81947e-08
-3.93208e-08
-2.7721e-15
-2.99107e-08
-3.89328e-08
-2.7139e-15
-3.15965e-08
-3.82168e-08
-2.65905e-15
-3.32367e-08
-3.71458e-08
-2.72321e-15
-3.4815e-08
-3.56889e-08
-2.4302e-15
-3.63132e-08
-3.38161e-08
-2.19536e-15
-3.77121e-08
-3.15013e-08
-1.99238e-15
-3.89915e-08
-2.87206e-08
-1.81027e-15
-4.013e-08
-2.54551e-08
-1.65664e-15
-4.11058e-08
-2.16882e-08
-1.51549e-15
-4.18972e-08
-1.74107e-08
-1.39366e-15
-4.24813e-08
-1.26185e-08
-1.27908e-15
-4.28365e-08
-7.31474e-09
-1.1673e-15
-4.294e-08
-1.51669e-09
-1.05073e-15
-4.27719e-08
4.75479e-09
-9.33e-16
-4.23118e-08
1.1463e-08
-8.14642e-16
-4.15426e-08
1.85536e-08
-6.87417e-16
-4.04496e-08
2.59513e-08
-5.42289e-16
-3.90203e-08
3.35836e-08
-3.69297e-16
-3.72491e-08
4.13079e-08
-1.07791e-16
-3.51337e-08
4.89995e-08
-3.73024e-16
-3.26804e-08
5.64621e-08
-6.77204e-16
-2.99042e-08
6.34793e-08
-4.40207e-16
-2.68292e-08
6.97998e-08
-2.55644e-16
-2.34949e-08
7.50664e-08
-5.21929e-17
-1.9956e-08
7.89054e-08
-3.93227e-16
-1.62867e-08
8.08586e-08
-2.27155e-16
-1.25872e-08
8.03604e-08
-1.15058e-16
-8.98916e-09
7.67598e-08
7.39709e-19
-5.6649e-09
6.93221e-08
1.84781e-16
-2.84172e-09
5.71723e-08
-6.94157e-17
-8.1977e-10
3.94008e-08
-1.06976e-17
1.50003e-08
-4.4324e-18
-8.6495e-09
-2.43903e-08
-4.65698e-15
-1.00168e-08
-2.66535e-08
-5.03432e-15
-1.14642e-08
-2.87167e-08
-4.46112e-15
-1.2973e-08
-3.05543e-08
-5.00593e-15
-1.45287e-08
-3.21635e-08
-4.73689e-15
-1.61219e-08
-3.35559e-08
-4.37526e-15
-1.77462e-08
-3.47469e-08
-3.97194e-15
-1.93973e-08
-3.57408e-08
-3.65073e-15
-2.10715e-08
-3.65449e-08
-3.41354e-15
-2.27644e-08
-3.71495e-08
-3.24487e-15
-2.44702e-08
-3.75436e-08
-3.04395e-15
-2.61817e-08
-3.77074e-08
-2.90862e-15
-2.78894e-08
-3.76131e-08
-2.80703e-15
-2.95822e-08
-3.72401e-08
-2.77143e-15
-3.12467e-08
-3.65524e-08
-2.74656e-15
-3.28678e-08
-3.55246e-08
-2.85403e-15
-3.44293e-08
-3.41274e-08
-2.51472e-15
-3.59132e-08
-3.23322e-08
-2.24901e-15
-3.73002e-08
-3.01142e-08
-2.02295e-15
-3.85703e-08
-2.74506e-08
-1.82493e-15
-3.9702e-08
-2.43233e-08
-1.65937e-15
-4.06736e-08
-2.07164e-08
-1.51048e-15
-4.14631e-08
-1.66211e-08
-1.38284e-15
-4.20478e-08
-1.20337e-08
-1.2643e-15
-4.24059e-08
-6.95696e-09
-1.15052e-15
-4.25146e-08
-1.40777e-09
-1.03405e-15
-4.23537e-08
4.59379e-09
-9.17292e-16
-4.1903e-08
1.10125e-08
-7.99087e-16
-4.11453e-08
1.77959e-08
-6.71773e-16
-4.0066e-08
2.48718e-08
-5.27587e-16
-3.86524e-08
3.21703e-08
-3.56833e-16
-3.68991e-08
3.95544e-08
-9.61004e-17
-3.48039e-08
4.69043e-08
-3.5874e-16
-3.23732e-08
5.40315e-08
-6.54906e-16
-2.96219e-08
6.07279e-08
-4.27795e-16
-2.65743e-08
6.67523e-08
-2.54209e-16
-2.32699e-08
7.1762e-08
-5.30858e-17
-1.97631e-08
7.53985e-08
-3.89433e-16
-1.61278e-08
7.72233e-08
-2.23885e-16
-1.24633e-08
7.66959e-08
-1.12193e-16
-8.90023e-09
7.31967e-08
3.35616e-18
-5.60893e-09
6.60308e-08
1.86654e-16
-2.81402e-09
5.43773e-08
-6.48321e-17
-8.12098e-10
3.73989e-08
-7.46481e-18
1.41882e-08
-1.88027e-18
-8.73852e-09
-2.31723e-08
-4.51834e-15
-1.00606e-08
-2.53314e-08
-5.09081e-15
-1.14647e-08
-2.73127e-08
-4.5568e-15
-1.29324e-08
-2.90865e-08
-4.62072e-15
-1.44499e-08
-3.06461e-08
-4.34203e-15
-1.60073e-08
-3.19986e-08
-4.05674e-15
-1.75979e-08
-3.31562e-08
-3.75302e-15
-1.92172e-08
-3.41216e-08
-3.49724e-15
-2.08609e-08
-3.49012e-08
-3.31856e-15
-2.25246e-08
-3.54858e-08
-3.18875e-15
-2.42025e-08
-3.58657e-08
-3.02269e-15
-2.58874e-08
-3.60225e-08
-2.90946e-15
-2.757e-08
-3.59305e-08
-2.82874e-15
-2.92393e-08
-3.55708e-08
-2.81584e-15
-3.08821e-08
-3.49096e-08
-2.81661e-15
-3.24836e-08
-3.39229e-08
-2.9735e-15
-3.40276e-08
-3.25833e-08
-2.58375e-15
-3.54964e-08
-3.08635e-08
-2.29253e-15
-3.68707e-08
-2.87399e-08
-2.04692e-15
-3.81305e-08
-2.6191e-08
-1.83501e-15
-3.92544e-08
-2.31994e-08
-1.65913e-15
-4.02207e-08
-1.975e-08
-1.50353e-15
-4.10073e-08
-1.58345e-08
-1.37108e-15
-4.15915e-08
-1.14493e-08
-1.24948e-15
-4.19513e-08
-6.59736e-09
-1.13433e-15
-4.20642e-08
-1.29468e-09
-1.01827e-15
-4.19098e-08
4.43926e-09
-9.02366e-16
-4.14679e-08
1.05707e-08
-7.84697e-16
-4.07213e-08
1.70494e-08
-6.57817e-16
-3.96554e-08
2.38057e-08
-5.14995e-16
-3.82577e-08
3.07728e-08
-3.46673e-16
-3.65227e-08
3.78193e-08
-8.82189e-17
-3.44483e-08
4.48301e-08
-3.45811e-16
-3.20412e-08
5.16244e-08
-6.35749e-16
-2.93162e-08
5.80028e-08
-4.15124e-16
-2.62977e-08
6.37339e-08
-2.51928e-16
-2.30252e-08
6.84894e-08
-5.32362e-17
-1.95528e-08
7.19261e-08
-3.85292e-16
-1.5954e-08
7.36246e-08
-2.20383e-16
-1.23275e-08
7.30694e-08
-1.09244e-16
-8.80248e-09
6.96717e-08
5.85104e-18
-5.54719e-09
6.27755e-08
1.88092e-16
-2.78331e-09
5.16135e-08
-6.04047e-17
-8.03535e-10
3.54191e-08
-4.21473e-18
1.33847e-08
7.44728e-19
-8.82225e-09
-2.20007e-08
-3.97966e-15
-1.00982e-08
-2.40555e-08
-4.67808e-15
-1.14576e-08
-2.59533e-08
-4.44282e-15
-1.2883e-08
-2.76611e-08
-4.61064e-15
-1.43608e-08
-2.91683e-08
-4.33889e-15
-1.58811e-08
-3.04783e-08
-4.02913e-15
-1.74371e-08
-3.16002e-08
-3.74418e-15
-1.90236e-08
-3.25351e-08
-3.47821e-15
-2.06363e-08
-3.32885e-08
-3.29772e-15
-2.22704e-08
-3.38517e-08
-3.17102e-15
-2.39201e-08
-3.42159e-08
-3.01448e-15
-2.55781e-08
-3.43644e-08
-2.91136e-15
-2.72353e-08
-3.42733e-08
-2.84341e-15
-2.88809e-08
-3.39253e-08
-2.8462e-15
-3.05018e-08
-3.32887e-08
-2.86348e-15
-3.20832e-08
-3.23414e-08
-3.05203e-15
-3.36093e-08
-3.10571e-08
-2.63027e-15
-3.50622e-08
-2.94105e-08
-2.32217e-15
-3.6423e-08
-2.73792e-08
-2.06183e-15
-3.76716e-08
-2.49425e-08
-1.83884e-15
-3.87867e-08
-2.20842e-08
-1.65464e-15
-3.97465e-08
-1.879e-08
-1.49362e-15
-4.05291e-08
-1.50519e-08
-1.35736e-15
-4.11116e-08
-1.08666e-08
-1.23342e-15
-4.14722e-08
-6.23698e-09
-1.11734e-15
-4.15883e-08
-1.1784e-09
-1.00174e-15
-4.14395e-08
4.29039e-09
-8.86686e-16
-4.10057e-08
1.01371e-08
-7.69641e-16
-4.02698e-08
1.63134e-08
-6.43552e-16
-3.92171e-08
2.27528e-08
-5.02603e-16
-3.78353e-08
2.93912e-08
-3.37501e-16
-3.6119e-08
3.61029e-08
-8.3082e-17
-3.40662e-08
4.27774e-08
-3.36017e-16
-3.16836e-08
4.92419e-08
-6.19715e-16
-2.89863e-08
5.53054e-08
-4.04214e-16
-2.59987e-08
6.07463e-08
-2.49242e-16
-2.27601e-08
6.52508e-08
-5.37022e-17
-1.93245e-08
6.84906e-08
-3.80982e-16
-1.57651e-08
7.00653e-08
-2.169e-16
-1.21795e-08
6.94839e-08
-1.06539e-16
-8.69559e-09
6.61878e-08
7.81151e-18
-5.47944e-09
5.95594e-08
1.88639e-16
-2.74947e-09
4.88835e-08
-5.6639e-17
-7.94033e-10
3.34637e-08
-1.52178e-18
1.25906e-08
2.8367e-18
-8.89921e-09
-2.08764e-08
-3.83664e-15
-1.01279e-08
-2.28267e-08
-4.33625e-15
-1.14415e-08
-2.46397e-08
-4.19056e-15
-1.28233e-08
-2.62792e-08
-4.29502e-15
-1.42602e-08
-2.77315e-08
-4.08695e-15
-1.57423e-08
-2.89962e-08
-3.85956e-15
-1.72625e-08
-3.00799e-08
-3.64649e-15
-1.88155e-08
-3.09821e-08
-3.40865e-15
-2.03966e-08
-3.17074e-08
-3.24635e-15
-2.20007e-08
-3.22476e-08
-3.13203e-15
-2.36219e-08
-3.25946e-08
-2.98843e-15
-2.5253e-08
-3.27333e-08
-2.89758e-15
-2.68847e-08
-3.26416e-08
-2.84156e-15
-2.85063e-08
-3.23038e-08
-2.85582e-15
-3.01049e-08
-3.16901e-08
-2.8811e-15
-3.16659e-08
-3.07802e-08
-3.07492e-15
-3.31735e-08
-2.95495e-08
-2.64928e-15
-3.461e-08
-2.7974e-08
-2.33472e-15
-3.59564e-08
-2.60327e-08
-2.06579e-15
-3.71928e-08
-2.37062e-08
-1.83554e-15
-3.8298e-08
-2.0979e-08
-1.64553e-15
-3.92503e-08
-1.78376e-08
-1.48071e-15
-4.00277e-08
-1.42745e-08
-1.34171e-15
-4.06074e-08
-1.02867e-08
-1.21616e-15
-4.09678e-08
-5.8769e-09
-1.09955e-15
-4.10861e-08
-1.0599e-09
-9.84576e-16
-4.09421e-08
4.14631e-09
-8.70407e-16
-4.05158e-08
9.71089e-09
-7.54165e-16
-3.979e-08
1.55876e-08
-6.29274e-16
-3.87504e-08
2.1713e-08
-4.90718e-16
-3.73846e-08
2.80257e-08
-3.29736e-16
-3.56873e-08
3.44055e-08
-8.12579e-17
-3.36568e-08
4.0747e-08
-3.27683e-16
-3.12999e-08
4.6885e-08
-6.07468e-16
-2.86316e-08
5.26371e-08
-3.9548e-16
-2.56766e-08
5.77914e-08
-2.47319e-16
-2.2474e-08
6.20482e-08
-5.38267e-17
-1.90778e-08
6.50943e-08
-3.76291e-16
-1.55604e-08
6.65479e-08
-2.13357e-16
-1.20188e-08
6.59422e-08
-1.03952e-16
-8.57921e-09
6.27482e-08
9.49603e-18
-5.40542e-09
5.63856e-08
1.88721e-16
-2.71233e-09
4.61904e-08
-5.30145e-17
-7.83537e-10
3.15349e-08
1.06976e-18
1.18071e-08
5.0384e-18
-8.96674e-09
-1.98e-08
-3.44826e-15
-1.01474e-08
-2.16461e-08
-3.96035e-15
-1.14141e-08
-2.3373e-08
-4.04186e-15
-1.27512e-08
-2.49421e-08
-4.28661e-15
-1.4146e-08
-2.63367e-08
-4.05436e-15
-1.55889e-08
-2.75533e-08
-3.7766e-15
-1.70726e-08
-2.85962e-08
-3.57093e-15
-1.85914e-08
-2.94632e-08
-3.34142e-15
-2.01404e-08
-3.01584e-08
-3.19147e-15
-2.17143e-08
-3.06737e-08
-3.0883e-15
-2.3307e-08
-3.1002e-08
-2.95691e-15
-2.49109e-08
-3.11293e-08
-2.87681e-15
-2.65171e-08
-3.10355e-08
-2.82824e-15
-2.81146e-08
-3.07063e-08
-2.84735e-15
-2.96908e-08
-3.01141e-08
-2.87258e-15
-3.1231e-08
-2.92399e-08
-3.05994e-15
-3.27195e-08
-2.8061e-08
-2.64269e-15
-3.41388e-08
-2.65547e-08
-2.32982e-15
-3.547e-08
-2.47015e-08
-2.05817e-15
-3.66934e-08
-2.2483e-08
-1.82466e-15
-3.77876e-08
-1.98847e-08
-1.63146e-15
-3.87312e-08
-1.68939e-08
-1.46465e-15
-3.95023e-08
-1.35035e-08
-1.32403e-15
-4.00782e-08
-9.71064e-09
-1.19761e-15
-4.04371e-08
-5.5182e-09
-1.08087e-15
-4.05566e-08
-9.40174e-10
-9.66707e-16
-4.04166e-08
4.00618e-09
-8.53497e-16
-3.9997e-08
9.29147e-09
-7.38267e-16
-3.9281e-08
1.48716e-08
-6.14961e-16
-3.82542e-08
2.0686e-08
-4.79359e-16
-3.69045e-08
2.66762e-08
-3.23452e-16
-3.52267e-08
3.27276e-08
-8.2814e-17
-3.32193e-08
3.87397e-08
-3.22397e-16
-3.08891e-08
4.45549e-08
-5.95878e-16
-2.82514e-08
4.99993e-08
-3.87943e-16
-2.53307e-08
5.48708e-08
-2.45208e-16
-2.21664e-08
5.88838e-08
-5.38115e-17
-1.8812e-08
6.17398e-08
-3.71061e-16
-1.53395e-08
6.30755e-08
-2.09632e-16
-1.18449e-08
6.24477e-08
-1.01456e-16
-8.45298e-09
5.93563e-08
1.07905e-17
-5.32487e-09
5.32575e-08
1.88111e-16
-2.67175e-09
4.35373e-08
-4.98446e-17
-7.71992e-10
2.96351e-08
3.16574e-18
1.10351e-08
6.72897e-18
-9.02112e-09
-1.87724e-08
-3.93588e-15
-1.01529e-08
-2.05142e-08
-4.04391e-15
-1.13721e-08
-2.21539e-08
-4.13178e-15
-1.26637e-08
-2.36505e-08
-3.9923e-15
-1.40157e-08
-2.49846e-08
-3.7775e-15
-1.54186e-08
-2.61504e-08
-3.5975e-15
-1.68653e-08
-2.71495e-08
-3.4673e-15
-1.83497e-08
-2.79789e-08
-3.27242e-15
-1.98665e-08
-2.86416e-08
-3.13697e-15
-2.14101e-08
-2.91301e-08
-3.03909e-15
-2.29742e-08
-2.94379e-08
-2.91293e-15
-2.4551e-08
-2.95523e-08
-2.83853e-15
-2.61316e-08
-2.9455e-08
-2.79456e-15
-2.7705e-08
-2.91329e-08
-2.81522e-15
-2.92584e-08
-2.85607e-08
-2.83739e-15
-3.07774e-08
-2.77207e-08
-3.01422e-15
-3.22464e-08
-2.65919e-08
-2.6122e-15
-3.36479e-08
-2.51532e-08
-2.30713e-15
-3.49631e-08
-2.33862e-08
-2.03837e-15
-3.61724e-08
-2.12738e-08
-1.80579e-15
-3.72546e-08
-1.88024e-08
-1.61238e-15
-3.81884e-08
-1.59599e-08
-1.44544e-15
-3.8952e-08
-1.27399e-08
-1.30437e-15
-3.95227e-08
-9.13968e-09
-1.17787e-15
-3.98792e-08
-5.16201e-09
-1.06137e-15
-3.99989e-08
-8.20241e-10
-9.48187e-16
-3.9862e-08
3.86913e-09
-8.36008e-16
-3.94485e-08
8.87815e-09
-7.21982e-16
-3.87418e-08
1.41649e-08
-6.00607e-16
-3.77276e-08
1.96717e-08
-4.68395e-16
-3.63941e-08
2.53429e-08
-3.18176e-16
-3.47363e-08
3.10696e-08
-8.70135e-17
-3.27527e-08
3.67562e-08
-3.17511e-16
-3.04504e-08
4.22527e-08
-5.85721e-16
-2.78448e-08
4.73936e-08
-3.81195e-16
-2.49604e-08
5.19865e-08
-2.43012e-16
-2.18365e-08
5.57599e-08
-5.33077e-17
-1.85265e-08
5.84298e-08
-3.65322e-16
-1.51018e-08
5.96509e-08
-2.05775e-16
-1.16575e-08
5.90033e-08
-9.8983e-17
-8.31653e-09
5.60153e-08
1.19546e-17
-5.23751e-09
5.01784e-08
1.87239e-16
-2.62755e-09
4.09273e-08
-4.65747e-17
-7.59335e-10
2.77669e-08
5.36694e-18
1.02758e-08
8.71781e-18
-9.05753e-09
-1.77942e-08
-3.55379e-15
-1.01401e-08
-1.94316e-08
-3.79235e-15
-1.13112e-08
-2.09827e-08
-3.96857e-15
-1.2557e-08
-2.24046e-08
-3.90224e-15
-1.3866e-08
-2.36757e-08
-3.68545e-15
-1.52289e-08
-2.47875e-08
-3.49904e-15
-1.66385e-08
-2.57399e-08
-3.37669e-15
-1.80884e-08
-2.65289e-08
-3.1955e-15
-1.95731e-08
-2.71569e-08
-3.0727e-15
-2.10866e-08
-2.76166e-08
-2.98403e-15
-2.26223e-08
-2.79022e-08
-2.86544e-15
-2.41723e-08
-2.80022e-08
-2.79544e-15
-2.57273e-08
-2.79e-08
-2.7511e-15
-2.72765e-08
-2.75838e-08
-2.767e-15
-2.8807e-08
-2.70302e-08
-2.78118e-15
-3.03045e-08
-2.62231e-08
-2.94259e-15
-3.17533e-08
-2.5143e-08
-2.56106e-15
-3.31362e-08
-2.37703e-08
-2.26826e-15
-3.44346e-08
-2.20879e-08
-2.00717e-15
-3.56288e-08
-2.00798e-08
-1.77935e-15
-3.66979e-08
-1.77332e-08
-1.58847e-15
-3.76206e-08
-1.5037e-08
-1.42323e-15
-3.83755e-08
-1.19851e-08
-1.28288e-15
-3.894e-08
-8.57501e-09
-1.15707e-15
-3.92928e-08
-4.80947e-09
-1.04118e-15
-3.94116e-08
-7.01131e-10
-9.29152e-16
-3.92769e-08
3.73427e-09
-8.18071e-16
-3.88689e-08
8.47027e-09
-7.0542e-16
-3.8171e-08
1.3467e-08
-5.86233e-16
-3.71694e-08
1.86699e-08
-4.57743e-16
-3.58523e-08
2.4026e-08
-3.13638e-16
-3.42149e-08
2.94321e-08
-9.3e-17
-3.2256e-08
3.47974e-08
-3.14266e-16
-2.99828e-08
3.99796e-08
-5.75229e-16
-2.74108e-08
4.48215e-08
-3.74613e-16
-2.45647e-08
4.91405e-08
-2.40273e-16
-2.14837e-08
5.26788e-08
-5.2362e-17
-1.82207e-08
5.51667e-08
-3.58938e-16
-1.48468e-08
5.62771e-08
-2.01617e-16
-1.1456e-08
5.56125e-08
-9.6474e-17
-8.16946e-09
5.27288e-08
1.28677e-17
-5.14305e-09
4.7152e-08
1.85816e-16
-2.57955e-09
3.83638e-08
-4.36405e-17
-7.45502e-10
2.59329e-08
7.20919e-18
9.53026e-09
1.0301e-17
-9.07025e-09
-1.68661e-08
-3.41184e-15
-1.01036e-08
-1.83983e-08
-3.63665e-15
-1.12269e-08
-1.98594e-08
-3.73377e-15
-1.24272e-08
-2.12043e-08
-3.7318e-15
-1.36935e-08
-2.24094e-08
-3.56247e-15
-1.50168e-08
-2.34642e-08
-3.40477e-15
-1.63897e-08
-2.43671e-08
-3.29281e-15
-1.78056e-08
-2.5113e-08
-3.11597e-15
-1.92587e-08
-2.57038e-08
-2.99364e-15
-2.07425e-08
-2.61327e-08
-2.90601e-15
-2.22502e-08
-2.63944e-08
-2.7914e-15
-2.37736e-08
-2.64788e-08
-2.72548e-15
-2.53033e-08
-2.63703e-08
-2.68277e-15
-2.68282e-08
-2.60589e-08
-2.69512e-15
-2.83356e-08
-2.55228e-08
-2.7021e-15
-2.98112e-08
-2.47475e-08
-2.84833e-15
-3.12393e-08
-2.37148e-08
-2.49105e-15
-3.26029e-08
-2.24067e-08
-2.21468e-15
-3.38834e-08
-2.08074e-08
-1.96541e-15
-3.50614e-08
-1.89019e-08
-1.74575e-15
-3.61162e-08
-1.66784e-08
-1.56002e-15
-3.70267e-08
-1.41264e-08
-1.3982e-15
-3.77715e-08
-1.12403e-08
-1.25969e-15
-3.83285e-08
-8.01788e-09
-1.13534e-15
-3.86764e-08
-4.46176e-09
-1.02043e-15
-3.87935e-08
-5.8389e-10
-9.09727e-16
-3.86601e-08
3.60075e-09
-7.99816e-16
-3.82568e-08
8.06716e-09
-6.88673e-16
-3.75674e-08
1.27776e-08
-5.71849e-16
-3.65782e-08
1.76805e-08
-4.47228e-16
-3.52777e-08
2.27257e-08
-3.09263e-16
-3.36613e-08
2.78156e-08
-9.87044e-17
-3.1728e-08
3.28642e-08
-3.1053e-16
-2.94853e-08
3.77369e-08
-5.65458e-16
-2.69487e-08
4.22848e-08
-3.68091e-16
-2.41429e-08
4.63349e-08
-2.36957e-16
-2.1107e-08
4.96429e-08
-5.10495e-17
-1.78938e-08
5.19536e-08
-3.52161e-16
-1.45738e-08
5.29571e-08
-1.97332e-16
-1.12399e-08
5.22785e-08
-9.39309e-17
-8.01136e-09
4.95003e-08
1.37344e-17
-5.04118e-09
4.41818e-08
1.84225e-16
-2.52758e-09
3.58502e-08
-4.05575e-17
-7.3042e-10
2.41357e-08
9.24261e-18
8.79984e-09
1.2285e-17
-9.05268e-09
-1.59879e-08
-3.5173e-15
-1.00374e-08
-1.74136e-08
-3.61081e-15
-1.11138e-08
-1.87829e-08
-3.5651e-15
-1.22697e-08
-2.00484e-08
-3.57833e-15
-1.34945e-08
-2.11846e-08
-3.3836e-15
-1.47793e-08
-2.21794e-08
-3.2494e-15
-1.61165e-08
-2.30298e-08
-3.17111e-15
-1.74994e-08
-2.37301e-08
-3.02765e-15
-1.89217e-08
-2.42816e-08
-2.92239e-15
-2.03766e-08
-2.46778e-08
-2.84205e-15
-2.18568e-08
-2.49142e-08
-2.72874e-15
-2.3354e-08
-2.49815e-08
-2.65998e-15
-2.48585e-08
-2.48659e-08
-2.61047e-15
-2.63593e-08
-2.45582e-08
-2.61208e-15
-2.78434e-08
-2.40387e-08
-2.60717e-15
-2.92965e-08
-2.32942e-08
-2.73653e-15
-3.07033e-08
-2.23079e-08
-2.40529e-15
-3.20467e-08
-2.10634e-08
-2.14853e-15
-3.33084e-08
-1.95458e-08
-1.9145e-15
-3.4469e-08
-1.77413e-08
-1.70588e-15
-3.55082e-08
-1.56391e-08
-1.52744e-15
-3.64051e-08
-1.32294e-08
-1.37063e-15
-3.71386e-08
-1.05069e-08
-1.23498e-15
-3.76867e-08
-7.46957e-09
-1.11277e-15
-3.80287e-08
-4.12006e-09
-9.99191e-16
-3.81428e-08
-4.69579e-10
-8.89988e-16
-3.80098e-08
3.46768e-09
-7.81323e-16
-3.76107e-08
7.66819e-09
-6.71795e-16
-3.69294e-08
1.20963e-08
-5.57424e-16
-3.59525e-08
1.67034e-08
-4.36718e-16
-3.46689e-08
2.14423e-08
-3.04821e-16
-3.30742e-08
2.62208e-08
-1.01005e-16
-3.11676e-08
3.09577e-08
-3.07515e-16
-2.89567e-08
3.55261e-08
-5.55168e-16
-2.64572e-08
3.97852e-08
-3.61399e-16
-2.36939e-08
4.35717e-08
-2.3318e-16
-2.07058e-08
4.66547e-08
-4.92918e-17
-1.75453e-08
4.87931e-08
-3.4483e-16
-1.42824e-08
4.96942e-08
-1.92731e-16
-1.10087e-08
4.90048e-08
-9.13032e-17
-7.84184e-09
4.63335e-08
1.4411e-17
-4.93161e-09
4.12716e-08
1.82134e-16
-2.47143e-09
3.339e-08
-3.7817e-17
-7.14017e-10
2.23783e-08
1.09363e-17
8.08582e-09
1.39117e-17
-8.9981e-09
-1.51589e-08
-3.3756e-15
-9.93559e-09
-1.64761e-08
-3.41028e-15
-1.09669e-08
-1.77516e-08
-3.37038e-15
-1.20803e-08
-1.8935e-08
-3.5042e-15
-1.32655e-08
-1.99994e-08
-3.33693e-15
-1.45135e-08
-2.09314e-08
-3.20451e-15
-1.58168e-08
-2.17265e-08
-3.10559e-15
-1.71681e-08
-2.23787e-08
-2.94175e-15
-1.85608e-08
-2.28889e-08
-2.8228e-15
-1.99877e-08
-2.32509e-08
-2.73914e-15
-2.14413e-08
-2.34606e-08
-2.62834e-15
-2.29127e-08
-2.35099e-08
-2.56256e-15
-2.43923e-08
-2.33863e-08
-2.51322e-15
-2.58688e-08
-2.30818e-08
-2.50912e-15
-2.73293e-08
-2.25783e-08
-2.49559e-15
-2.87595e-08
-2.18638e-08
-2.6118e-15
-3.01442e-08
-2.09232e-08
-2.3072e-15
-3.14664e-08
-1.97412e-08
-2.07237e-15
-3.2708e-08
-1.83041e-08
-1.85602e-15
-3.385e-08
-1.65994e-08
-1.66055e-15
-3.48723e-08
-1.46168e-08
-1.4911e-15
-3.57542e-08
-1.23473e-08
-1.34065e-15
-3.64749e-08
-9.78615e-09
-1.20878e-15
-3.70129e-08
-6.93142e-09
-1.08936e-15
-3.73476e-08
-3.78561e-09
-9.77454e-16
-3.74577e-08
-3.59263e-10
-8.69933e-16
-3.73243e-08
3.33422e-09
-7.62611e-16
-3.69288e-08
7.27276e-09
-6.54785e-16
-3.62553e-08
1.14229e-08
-5.4291e-16
-3.52908e-08
1.57388e-08
-4.26032e-16
-3.40244e-08
2.01762e-08
-2.99867e-16
-3.24521e-08
2.46484e-08
-1.03142e-16
-3.05733e-08
2.9079e-08
-3.03484e-16
-2.83958e-08
3.33486e-08
-5.45583e-16
-2.59354e-08
3.73247e-08
-3.54561e-16
-2.32169e-08
4.08533e-08
-2.28747e-16
-2.02792e-08
4.37169e-08
-4.74379e-17
-1.71744e-08
4.56883e-08
-3.37283e-16
-1.39717e-08
4.64916e-08
-1.88046e-16
-1.07619e-08
4.5795e-08
-8.86279e-17
-7.66047e-09
4.32321e-08
1.50903e-17
-4.81403e-09
3.84252e-08
1.79925e-16
-2.41091e-09
3.09869e-08
-3.49168e-17
-6.96213e-10
2.06636e-08
1.29035e-17
7.38961e-09
1.59884e-17
-8.89957e-09
-1.4377e-08
-3.61219e-15
-9.79235e-09
-1.55833e-08
-3.42382e-15
-1.07814e-08
-1.67625e-08
-3.21993e-15
-1.18552e-08
-1.78612e-08
-3.36658e-15
-1.30034e-08
-1.88512e-08
-3.18881e-15
-1.42172e-08
-1.97176e-08
-3.06286e-15
-1.54886e-08
-2.04551e-08
-2.98566e-15
-1.68102e-08
-2.10572e-08
-2.84034e-15
-1.81748e-08
-2.15243e-08
-2.73217e-15
-1.9575e-08
-2.18507e-08
-2.65493e-15
-2.10027e-08
-2.20329e-08
-2.54396e-15
-2.24489e-08
-2.20636e-08
-2.474e-15
-2.39037e-08
-2.19315e-08
-2.41657e-15
-2.53558e-08
-2.16298e-08
-2.40044e-15
-2.67923e-08
-2.11419e-08
-2.37458e-15
-2.81989e-08
-2.0457e-08
-2.4773e-15
-2.95605e-08
-1.95615e-08
-2.19962e-15
-3.08605e-08
-1.84412e-08
-1.98808e-15
-3.20808e-08
-1.70838e-08
-1.79121e-15
-3.32028e-08
-1.54775e-08
-1.61051e-15
-3.42066e-08
-1.36129e-08
-1.45144e-15
-3.5072e-08
-1.14818e-08
-1.30841e-15
-3.57785e-08
-9.07966e-09
-1.1811e-15
-3.63049e-08
-6.40482e-09
-1.06501e-15
-3.66311e-08
-3.45966e-09
-9.55119e-16
-3.67362e-08
-2.54008e-10
-8.49474e-16
-3.66016e-08
3.19952e-09
-7.43615e-16
-3.6209e-08
6.8803e-09
-6.37585e-16
-3.55431e-08
1.07569e-08
-5.28212e-16
-3.45911e-08
1.47866e-08
-4.15037e-16
-3.33425e-08
1.89278e-08
-2.94303e-16
-3.17934e-08
2.30992e-08
-1.03901e-16
-2.99437e-08
2.72294e-08
-2.99411e-16
-2.78013e-08
3.12062e-08
-5.35558e-16
-2.5382e-08
3.49054e-08
-3.4747e-16
-2.27108e-08
3.81821e-08
-2.24111e-16
-1.98262e-08
4.08323e-08
-4.52525e-17
-1.67802e-08
4.26422e-08
-3.2931e-16
-1.36414e-08
4.33528e-08
-1.83084e-16
-1.0499e-08
4.26527e-08
-8.5865e-17
-7.46685e-09
4.01999e-08
1.56068e-17
-4.68811e-09
3.56464e-08
1.77244e-16
-2.34582e-09
2.86446e-08
-3.23284e-17
-6.76925e-10
1.89948e-08
1.46173e-17
6.71268e-09
1.77407e-17
-8.75161e-09
-1.36392e-08
-3.56983e-15
-9.60305e-09
-1.47318e-08
-3.37416e-15
-1.05535e-08
-1.58121e-08
-3.10219e-15
-1.15913e-08
-1.68234e-08
-3.37706e-15
-1.27061e-08
-1.77364e-08
-3.18633e-15
-1.38887e-08
-1.8535e-08
-3.01254e-15
-1.51309e-08
-1.92129e-08
-2.9049e-15
-1.64249e-08
-1.97632e-08
-2.74113e-15
-1.77631e-08
-2.0186e-08
-2.62202e-15
-1.91377e-08
-2.04761e-08
-2.54504e-15
-2.05404e-08
-2.06303e-08
-2.43436e-15
-2.19618e-08
-2.0642e-08
-2.36456e-15
-2.3392e-08
-2.05014e-08
-2.30436e-15
-2.48194e-08
-2.02024e-08
-2.2805e-15
-2.62312e-08
-1.97301e-08
-2.2456e-15
-2.76134e-08
-1.90747e-08
-2.33579e-15
-2.89509e-08
-1.8224e-08
-2.08702e-15
-3.02273e-08
-1.71649e-08
-1.89866e-15
-3.14248e-08
-1.58862e-08
-1.72172e-15
-3.25253e-08
-1.43771e-08
-1.5565e-15
-3.35091e-08
-1.26291e-08
-1.40861e-15
-3.43564e-08
-1.06344e-08
-1.27384e-15
-3.50471e-08
-8.38893e-09
-1.15173e-15
-3.55606e-08
-5.89121e-09
-1.03951e-15
-3.5877e-08
-3.14347e-09
-9.31989e-16
-3.5976e-08
-1.54865e-10
-8.28439e-16
-3.58394e-08
3.0628e-09
-7.24206e-16
-3.54492e-08
6.49032e-09
-6.20083e-16
-3.47907e-08
1.00984e-08
-5.13223e-16
-3.38514e-08
1.38471e-08
-4.03577e-16
-3.26212e-08
1.76977e-08
-2.8784e-16
-3.10965e-08
2.15744e-08
-1.03879e-16
-2.92773e-08
2.54103e-08
-2.94116e-16
-2.71717e-08
2.91007e-08
-5.25952e-16
-2.47959e-08
3.25294e-08
-3.40148e-16
-2.21745e-08
3.55608e-08
-2.18864e-16
-1.93461e-08
3.80039e-08
-4.32386e-17
-1.63622e-08
3.96583e-08
-3.21339e-16
-1.32906e-08
4.02813e-08
-1.78092e-16
-1.02195e-08
3.95816e-08
-8.3054e-17
-7.26058e-09
3.7241e-08
1.61636e-17
-4.55356e-09
3.29394e-08
1.74493e-16
-2.27596e-09
2.6367e-08
-2.9526e-17
-6.5607e-10
1.73749e-08
1.66187e-17
6.05661e-09
1.99642e-17
-8.54931e-09
-1.29408e-08
-3.51003e-15
-9.36409e-09
-1.3917e-08
-3.27834e-15
-1.02807e-08
-1.48954e-08
-2.9435e-15
-1.12869e-08
-1.58172e-08
-3.22536e-15
-1.23722e-08
-1.66511e-08
-3.06051e-15
-1.35272e-08
-1.73801e-08
-2.88086e-15
-1.47431e-08
-1.79969e-08
-2.77772e-15
-1.60118e-08
-1.84944e-08
-2.61743e-15
-1.73254e-08
-1.88724e-08
-2.50879e-15
-1.86756e-08
-1.91258e-08
-2.44241e-15
-2.00539e-08
-1.92519e-08
-2.33523e-15
-2.14509e-08
-1.9245e-08
-2.26339e-15
-2.28562e-08
-1.90962e-08
-2.19528e-15
-2.42585e-08
-1.88002e-08
-2.15923e-15
-2.56449e-08
-1.83437e-08
-2.11249e-15
-2.70015e-08
-1.7718e-08
-2.18966e-15
-2.83136e-08
-1.69119e-08
-1.96964e-15
-2.95649e-08
-1.59136e-08
-1.80458e-15
-3.07381e-08
-1.4713e-08
-1.64801e-15
-3.18153e-08
-1.33001e-08
-1.4988e-15
-3.27773e-08
-1.1667e-08
-1.36277e-15
-3.36048e-08
-9.80673e-09
-1.23686e-15
-3.42782e-08
-7.71554e-09
-1.12046e-15
-3.47773e-08
-5.39202e-09
-1.01255e-15
-3.50826e-08
-2.83831e-09
-9.07793e-16
-3.51744e-08
-6.2863e-11
-8.06589e-16
-3.50351e-08
2.92331e-09
-7.04189e-16
-3.4647e-08
6.10243e-09
-6.02123e-16
-3.39959e-08
9.44725e-09
-4.97804e-16
-3.30696e-08
1.29207e-08
-3.91547e-16
-3.18585e-08
1.64868e-08
-2.80532e-16
-3.03593e-08
2.00751e-08
-1.02442e-16
-2.85723e-08
2.36234e-08
-2.88511e-16
-2.65057e-08
2.70342e-08
-5.15911e-16
-2.41756e-08
3.01993e-08
-3.32547e-16
-2.1607e-08
3.29923e-08
-2.1364e-16
-1.88379e-08
3.52348e-08
-4.09957e-17
-1.59195e-08
3.67399e-08
-3.13018e-16
-1.29189e-08
3.72807e-08
-1.72882e-16
-9.923e-09
3.65857e-08
-8.01833e-17
-7.04128e-09
3.43592e-08
1.65666e-17
-4.41008e-09
3.03082e-08
1.713e-16
-2.20113e-09
2.4158e-08
-2.69615e-17
-6.33561e-10
1.58073e-08
1.8417e-17
5.42305e-09
2.18993e-17
-8.28949e-09
-1.22756e-08
-3.52388e-15
-9.0736e-09
-1.31329e-08
-3.25694e-15
-9.96203e-09
-1.4007e-08
-2.92311e-15
-1.09418e-08
-1.48374e-08
-3.12044e-15
-1.2002e-08
-1.55909e-08
-2.95956e-15
-1.31329e-08
-1.62492e-08
-2.79004e-15
-1.43254e-08
-1.68044e-08
-2.69524e-15
-1.55711e-08
-1.72488e-08
-2.53387e-15
-1.68616e-08
-1.75819e-08
-2.41797e-15
-1.81886e-08
-1.77989e-08
-2.34457e-15
-1.95431e-08
-1.78974e-08
-2.23112e-15
-2.09155e-08
-1.78725e-08
-2.15361e-15
-2.22956e-08
-1.77161e-08
-2.07842e-15
-2.36719e-08
-1.74239e-08
-2.03279e-15
-2.50318e-08
-1.69838e-08
-1.97664e-15
-2.63615e-08
-1.63881e-08
-2.04005e-15
-2.76465e-08
-1.56268e-08
-1.84997e-15
-2.8871e-08
-1.46892e-08
-1.70782e-15
-3.0018e-08
-1.35659e-08
-1.57122e-15
-3.10701e-08
-1.22481e-08
-1.43788e-15
-3.20085e-08
-1.07285e-08
-1.31392e-15
-3.28145e-08
-9.00066e-09
-1.19727e-15
-3.34689e-08
-7.06117e-09
-1.08706e-15
-3.3952e-08
-4.90876e-09
-9.83893e-16
-3.42451e-08
-2.54544e-09
-8.82191e-16
-3.43287e-08
2.10186e-11
-7.83589e-16
-3.41859e-08
2.78039e-09
-6.83321e-16
-3.37997e-08
5.7163e-09
-5.83497e-16
-3.3156e-08
8.80354e-09
-4.81807e-16
-3.22433e-08
1.20078e-08
-3.78854e-16
-3.10522e-08
1.5296e-08
-2.72229e-16
-2.95799e-08
1.86027e-08
-1.00136e-16
-2.78269e-08
2.18704e-08
-2.81906e-16
-2.58015e-08
2.50089e-08
-5.04972e-16
-2.352e-08
2.79177e-08
-3.24578e-16
-2.10071e-08
3.04794e-08
-2.0781e-16
-1.83007e-08
3.25284e-08
-3.90874e-17
-1.54514e-08
3.38906e-08
-3.04709e-16
-1.25257e-08
3.4355e-08
-1.67663e-16
-9.60894e-09
3.3669e-08
-7.72668e-17
-6.8086e-09
3.15589e-08
1.70391e-17
-4.25741e-09
2.7757e-08
1.68079e-16
-2.12115e-09
2.20217e-08
-2.40647e-17
-6.09311e-10
1.42955e-08
2.05462e-17
4.81374e-09
2.43174e-17
-7.97076e-09
-1.1635e-08
-3.33942e-15
-8.73169e-09
-1.2372e-08
-3.02611e-15
-9.59834e-09
-1.31403e-08
-2.76669e-15
-1.0557e-08
-1.38787e-08
-2.96381e-15
-1.15967e-08
-1.45512e-08
-2.78068e-15
-1.27072e-08
-1.51388e-08
-2.579e-15
-1.38791e-08
-1.56324e-08
-2.4957e-15
-1.51037e-08
-1.60242e-08
-2.36288e-15
-1.63724e-08
-1.63131e-08
-2.27403e-15
-1.76767e-08
-1.64946e-08
-2.22417e-15
-1.90074e-08
-1.65667e-08
-2.12109e-15
-2.0355e-08
-1.65249e-08
-2.04501e-15
-2.1709e-08
-1.63621e-08
-1.96363e-15
-2.30582e-08
-1.60747e-08
-1.90773e-15
-2.43901e-08
-1.56519e-08
-1.84115e-15
-2.56913e-08
-1.50869e-08
-1.88632e-15
-2.69474e-08
-1.43706e-08
-1.72723e-15
-2.81431e-08
-1.34935e-08
-1.60798e-15
-2.92619e-08
-1.24471e-08
-1.49115e-15
-3.02867e-08
-1.12233e-08
-1.37364e-15
-3.11996e-08
-9.81559e-09
-1.26197e-15
-3.19821e-08
-8.21802e-09
-1.15487e-15
-3.26158e-08
-6.42751e-09
-1.05124e-15
-3.30815e-08
-4.44291e-09
-9.53164e-16
-3.3361e-08
-2.26609e-09
-8.54845e-16
-3.34357e-08
9.58652e-11
-7.59214e-16
-3.32889e-08
2.63349e-09
-6.61326e-16
-3.29043e-08
5.33178e-09
-5.63979e-16