/*--------------------------------*- C++ -*----------------------------------*\
| =========                 |                                                 |
| \\      /  F ield         | OpenFOAM: The Open Source CFD Toolbox           |
|  \\    /   O peration     | Version:  v2012                                 |
|   \\  /    A nd           | Website:  www.openfoam.com                      |
|    \\/     M anipulation  |                                                 |
\*---------------------------------------------------------------------------*/
FoamFile
{
    version     2.0;
    format      ascii;
    class       surfaceScalarField;
    location    "0.8";
    object      alphaPhi0.water;
}
// * * * * * * * * * * * * * * * * * * * * * * * * * * * * * * * * * * * * * //

dimensions      [0 3 -1 0 0 0 0];
oriented        oriented;


internalField   nonuniform List<scalar> 
8135
(
-4.03381e-103
-3.21423e-122
-2.10962e-110
-1.02769e-249
-1.60654e-119
-1.52642e-109
0
1.35008e-248
-5.34052e-252
0
0
0
0
0
0
0
0
0
0
0
0
0
0
0
0
0
0
0
0
0
0
0
0
0
0
0
0
0
0
0
0
0
0
0
0
0
0
0
0
0
0
0
0
0
0
0
0
0
0
0
0
0
-6.87294e-123
-4.56755e-145
-1.83511e-122
-7.42948e-226
-6.937e-145
-2.82856e-121
0
6.4779e-225
-5.76218e-237
0
0
0
0
0
0
0
0
0
0
0
0
0
0
0
0
0
0
0
0
0
0
0
0
0
0
0
0
0
0
0
0
0
0
0
0
0
0
0
0
0
0
0
0
0
0
0
0
0
0
0
2.56914e-322
0
-2.81157e-148
-3.46375e-145
-1.69615e-149
-3.89796e-224
-6.93969e-145
-7.92861e-152
0
2.58303e-223
-3.40137e-235
0
0
0
0
0
0
0
0
0
0
0
0
0
0
0
0
0
0
0
0
0
0
0
0
0
0
0
0
0
0
0
0
0
0
0
0
0
0
0
0
0
0
0
0
0
0
0
0
-1.03754e-322
1.5316e-322
0
1.66802e-319
0
-2.869e-145
-2.8516e-153
-8.9826e-150
-8.44113e-223
-1.03232e-152
-7.54238e-149
0
4.53754e-222
-7.51994e-234
0
0
0
0
0
0
0
0
0
0
0
0
0
0
0
0
0
0
0
0
0
0
0
0
0
0
0
0
0
0
0
0
0
0
0
0
0
0
0
0
0
0
0
0
0
-7.90505e-323
9.88131e-323
0
-4.48562e-320
6.70052e-320
0
5.26537e-317
0
-2.46388e-153
-8.25858e-171
-6.26251e-156
-1.06951e-221
-1.13185e-170
-6.71347e-155
0
4.85434e-221
-9.55075e-233
0
0
0
0
0
0
0
0
0
0
0
0
0
0
0
0
0
0
0
0
0
0
0
0
0
0
0
0
0
0
0
0
0
0
0
0
0
0
0
0
0
0
-6.91692e-323
8.39912e-323
0
-2.65412e-320
3.40065e-320
0
-1.19099e-317
1.80624e-317
0
1.10211e-314
-4.94066e-324
-6.23844e-171
-1.31797e-173
-2.66421e-176
-9.24316e-221
-1.58831e-173
-1.11539e-175
0
3.63968e-220
-8.29962e-232
0
0
0
0
0
0
0
0
0
0
0
0
0
0
0
0
0
0
0
0
0
0
0
0
0
0
0
0
0
0
0
0
0
0
0
0
0
0
0
-8.39912e-323
9.88131e-323
0
-2.04444e-320
2.50392e-320
0
-6.26311e-318
8.10721e-318
0
-2.27702e-315
3.49668e-315
0
1.74067e-312
-1.72923e-322
-1.01064e-173
-5.579e-178
-1.52593e-177
-5.94596e-220
-5.85985e-178
-6.11998e-177
0
2.07121e-219
-5.36134e-231
0
0
0
0
0
0
0
0
0
0
0
0
0
0
0
0
0
0
0
0
0
0
0
0
0
0
0
0
0
0
0
0
0
0
0
0
-1.33398e-322
1.58101e-322
0
-2.14672e-320
2.57606e-320
0
-4.37139e-318
5.38397e-318
0
-1.12274e-315
1.46552e-315
0
-3.42341e-313
5.31168e-313
-9.88131e-324
2.22918e-310
6.81415e-320
-4.29751e-178
-5.88818e-187
-5.12493e-182
-3.01205e-219
-1.52302e-193
-1.86321e-181
0
9.41926e-219
-2.70451e-230
0
0
0
0
0
0
0
0
0
0
0
0
0
0
0
0
0
0
0
0
0
0
0
0
0
0
0
0
0
0
-4.94066e-324
4.94066e-324
0
-2.66795e-322
3.11261e-322
0
-3.00787e-320
3.5637e-320
0
-4.21615e-318
5.07217e-318
0
-7.3897e-316
9.14409e-316
0
-1.6315e-313
2.14419e-313
9.88131e-324
-4.27643e-311
6.69222e-311
9.89613e-321
2.42379e-308
1.4936e-317
-1.28575e-193
-6.96135e-187
-1.75762e-194
-1.24983e-218
-1.89499e-195
-1.81898e-197
0
3.54954e-218
-1.10579e-229
0
0
0
0
0
0
0
0
0
0
0
0
0
0
0
0
0
0
0
0
0
0
0
0
0
0
0
-9.88131e-324
9.88131e-324
0
-6.66989e-322
7.80624e-322
0
-5.49302e-320
6.44311e-320
0
-5.49096e-318
6.50935e-318
0
-6.75706e-316
8.14621e-316
0
-1.03837e-313
1.28979e-313
3.45846e-323
-2.00781e-311
2.65348e-311
3.19166e-321
-4.60857e-309
7.26321e-309
1.70836e-318
2.31038e-306
1.82425e-315
-1.84056e-195
-8.38812e-187
-2.15935e-194
-4.37335e-218
-5.87059e-197
-5.88421e-204
0
1.13855e-217
-3.78043e-229
0
0
0
0
0
0
0
0
0
0
0
0
0
0
0
0
0
0
0
0
0
0
0
0
-3.95253e-323
4.94066e-323
0
-2.10472e-321
2.43574e-321
0
-1.28378e-319
1.49287e-319
0
-9.41759e-318
1.10406e-317
0
-8.39181e-316
9.95296e-316
0
-9.19523e-314
1.11045e-313
1.4822e-323
-1.25679e-311
1.56591e-311
4.57505e-321
-2.15941e-309
2.8668e-309
3.37343e-319
-4.40323e-307
6.98025e-307
1.68134e-316
1.97688e-304
1.59977e-313
-6.56254e-197
-1.03125e-186
-2.699e-194
-1.31967e-217
-1.79672e-198
-8.07834e-206
0
3.17356e-217
-1.10892e-228
0
0
0
0
0
0
0
0
0
0
0
0
0
0
0
0
0
0
-4.94066e-324
9.88131e-324
0
-2.12448e-322
2.42092e-322
0
-8.23607e-321
9.45642e-321
0
-3.79156e-319
4.3747e-319
0
-2.08645e-317
2.42315e-317
0
-1.38084e-315
1.61789e-315
0
-1.10906e-313
1.31578e-313
-4.94066e-324
-1.09431e-311
1.32328e-311
1.14623e-321
-1.34555e-309
1.68067e-309
4.17253e-319
-2.07822e-307
2.76922e-307
1.62749e-317
-3.80811e-305
6.06593e-305
1.12447e-314
1.54634e-302
1.10273e-311
-2.31467e-198
-1.295e-186
-3.43689e-194
-3.49533e-217
-5.31151e-200
-1.20155e-207
0
7.8145e-217
-2.84899e-228
0
0
0
0
0
0
0
0
0
0
0
0
-4.94066e-324
4.94066e-324
0
-5.43472e-323
6.42285e-323
0
-1.35374e-321
1.54148e-321
0
-3.98859e-320
4.55183e-320
0
-1.40401e-318
1.60834e-318
0
-5.89027e-317
6.78373e-317
0
-2.95253e-315
3.4246e-315
0
-1.77862e-313
2.08265e-313
-5.92879e-323
-1.2993e-311
1.54169e-311
-2.08002e-321
-1.16507e-309
1.41027e-309
-5.93867e-321
-1.30082e-307
1.62801e-307
2.83637e-317
-1.82309e-305
2.43653e-305
-7.70157e-316
-3.03025e-303
4.84597e-303
4.39067e-313
1.12193e-300
5.97429e-310
-7.90427e-200
-1.66287e-186
-4.4643e-194
-8.24364e-217
-1.48916e-201
-2.07554e-209
0
1.72275e-216
-6.51418e-228
0
0
0
0
0
0
-4.94066e-324
4.94066e-324
0
-3.95253e-323
4.44659e-323
0
-5.68175e-322
6.47226e-322
0
-1.05829e-320
1.20058e-320
0
-2.39493e-319
2.71855e-319
0
-6.49438e-318
7.39092e-318
0
-2.10025e-316
2.40042e-316
0
-8.09029e-315
9.30062e-315
-4.94066e-324
-3.72114e-313
4.31055e-313
-2.61855e-322
-2.05558e-311
2.40528e-311
-9.34772e-321
-1.37603e-309
1.63271e-309
-3.74838e-319
-1.12988e-307
1.36868e-307
-1.28631e-317
-1.15438e-305
1.44699e-305
1.38821e-315
-1.47956e-303
1.98216e-303
-2.57202e-313
-2.24819e-301
3.60689e-301
-5.38771e-312
7.64066e-299
2.49439e-308
-2.56876e-201
-2.1859e-186
-5.92154e-194
-1.75189e-216
-3.90403e-203
-4.30239e-211
-4.94066e-324
3.43807e-216
-1.34213e-227
-1.4822e-323
1.4822e-323
0
-7.90505e-323
8.89318e-323
0
-6.57107e-322
7.5592e-322
0
-7.33193e-321
8.34477e-321
0
-1.03378e-319
1.1701e-319
0
-1.79166e-318
2.02472e-318
0
-3.75369e-317
4.24682e-317
0
-9.41564e-316
1.06859e-315
0
-2.81473e-314
3.20968e-314
-2.47033e-323
-1.00165e-312
1.14942e-312
-5.82997e-322
-4.25369e-311
4.92099e-311
-3.372e-320
-2.16822e-309
2.53513e-309
-1.16361e-318
-1.33848e-307
1.58787e-307
-4.78951e-317
-1.01287e-305
1.22754e-305
-2.04476e-315
-9.53123e-304
1.19613e-303
3.55793e-314
-1.12453e-301
1.50939e-301
-3.28177e-311
-1.57233e-299
2.52916e-299
-2.87273e-309
4.93309e-297
6.14791e-307
-7.84306e-203
-2.94503e-186
-8.02929e-194
-3.38818e-216
-9.51466e-205
-1.01917e-212
-8.05327e-322
6.2692e-216
-2.51638e-227
-2.73218e-321
3.35471e-321
0
-1.53951e-320
1.79543e-320
0
-1.22568e-319
1.39984e-319
0
-1.28129e-318
1.44896e-318
0
-1.68568e-317
1.89837e-317
0
-2.72123e-316
3.06281e-316
0
-5.30508e-315
5.98205e-315
-9.88131e-324
-1.23728e-313
1.40031e-313
-1.58101e-322
-3.43683e-312
3.9101e-312
-3.25095e-321
-1.13579e-310
1.30097e-310
-6.72226e-320
-4.47684e-309
5.17213e-309
-3.76428e-318
-2.11691e-307
2.47302e-307
-1.23901e-316
-1.21162e-305
1.43692e-305
-4.99613e-315
-8.49613e-304
1.02995e-303
-2.2219e-313
-7.40445e-302
9.3003e-302
-1.46897e-312
-8.08681e-300
1.08706e-299
-3.13449e-309
-1.04629e-297
1.68652e-297
-3.21527e-307
3.04521e-295
-1.11027e-305
-2.24e-204
-4.07147e-186
-1.11431e-193
-6.01399e-216
-2.18581e-206
-2.5302e-214
-1.58575e-319
1.05279e-215
-4.32874e-227
-5.16768e-319
6.19534e-319
0
-2.75389e-318
3.16949e-318
0
-2.06399e-317
2.3361e-317
0
-2.0249e-316
2.2748e-316
0
-2.49537e-315
2.79587e-315
-4.94066e-324
-3.76841e-314
4.22401e-314
-7.41098e-323
-6.86601e-313
7.71596e-313
-1.27469e-321
-1.49549e-311
1.68777e-311
-1.93624e-320
-3.8772e-310
4.40085e-310
-3.66508e-319
-1.19529e-308
1.36656e-308
-6.90852e-318
-4.39286e-307
5.06794e-307
-3.7826e-316
-1.93582e-305
2.25934e-305
-1.17048e-314
-1.03205e-303
1.22342e-303
-4.51399e-313
-6.73778e-302
8.16839e-302
-1.9674e-311
-5.4643e-300
6.86747e-300
-2.62618e-310
-5.55099e-298
7.47031e-298
-2.50176e-307
-6.67786e-296
1.07819e-295
-2.60761e-305
1.8106e-293
-2.70524e-303
-6.07888e-206
-5.78291e-186
-1.58489e-193
-9.86809e-216
-5.0216e-208
-6.24324e-216
-2.83347e-317
1.63923e-215
-6.88035e-227
-8.8723e-317
1.03951e-316
0
-4.4889e-316
5.09751e-316
-4.94066e-324
-3.17764e-315
3.56383e-315
-1.97626e-323
-2.93602e-314
3.27621e-314
-1.03754e-322
-3.40149e-313
3.79124e-313
-7.5098e-322
-4.82326e-312
5.38372e-312
-9.45642e-321
-8.24427e-311
9.23286e-311
-1.569e-319
-1.68346e-309
1.89446e-309
-2.19975e-318
-4.08946e-308
4.63079e-308
-3.83515e-317
-1.1807e-306
1.3473e-306
-6.54469e-316
-4.06194e-305
4.67926e-305
-3.5294e-314
-1.67486e-303
1.95275e-303
-1.01917e-312
-8.35115e-302
9.89387e-302
-3.70959e-311
-5.0968e-300
6.17827e-300
-1.53677e-309
-3.86243e-298
4.85598e-298
-1.9998e-308
-3.6649e-296
4.93614e-296
-1.78002e-305
-4.11656e-294
6.65498e-294
-1.7762e-303
1.04362e-291
-2.16707e-301
-1.66678e-207
-8.44918e-186
-2.31373e-193
-1.50622e-215
-1.3156e-209
-1.55326e-217
-4.64968e-315
2.38041e-215
-1.0168e-226
-1.40255e-314
1.60617e-314
-2.47033e-322
-6.75652e-314
7.56946e-314
-6.37345e-322
-4.53097e-313
5.03464e-313
-2.57408e-321
-3.95503e-312
4.38304e-312
-1.42736e-320
-4.32138e-311
4.79083e-311
-9.60118e-320
-5.77242e-310
6.41551e-310
-1.14896e-318
-9.287e-309
1.03639e-308
-1.81098e-317
-1.78385e-307
2.00155e-307
-2.35361e-316
-4.07409e-306
4.60218e-306
-3.78895e-315
-1.10539e-304
1.25887e-304
-5.8297e-314
-3.57223e-303
4.10877e-303
-3.11032e-312
-1.38304e-301
1.6107e-301
-8.34032e-311
-6.47259e-300
7.6629e-300
-2.83955e-309
-3.70617e-298
4.49132e-298
-1.09615e-307
-2.63397e-296
3.31199e-296
-9.26162e-307
-2.34296e-294
3.15743e-294
-1.15825e-303
-2.46624e-292
3.99084e-292
-1.07767e-301
5.86516e-290
-1.28995e-299
-5.28171e-209
-1.27146e-185
-3.47251e-193
-2.15026e-215
-4.59925e-211
-4.32416e-219
-7.09244e-313
3.24029e-215
-1.40495e-226
-2.0656e-312
2.31242e-312
-3.61409e-320
-9.49883e-312
1.04974e-311
-8.92826e-320
-6.05068e-311
6.66005e-311
-3.44136e-319
-5.00335e-310
5.50599e-310
-1.8123e-318
-5.17035e-309
5.70075e-309
-1.14742e-317
-6.52485e-308
7.2199e-308
-1.31398e-316
-9.90986e-307
1.1019e-306
-1.97899e-315
-1.79587e-305
2.00899e-305
-2.4046e-314
-3.86779e-304
4.35825e-304
-3.60032e-313
-9.89195e-303
1.12424e-302
-5.02779e-312
-3.0121e-301
3.4589e-301
-2.64675e-310
-1.09842e-299
1.27767e-299
-6.59831e-309
-4.84003e-298
5.72541e-298
-2.09493e-307
-2.60838e-296
3.1596e-296
-7.45169e-306
-1.74409e-294
2.19294e-294
-1.51457e-305
-1.45907e-292
1.96693e-292
-7.10989e-302
-1.44394e-290
2.33816e-290
-6.04155e-300
3.23058e-288
-6.37546e-298
-2.27296e-210
-1.97315e-185
-5.36666e-193
-2.88468e-215
-2.34274e-212
-1.58125e-220
-1.01621e-310
4.15308e-215
-1.82417e-226
-2.86324e-310
3.13394e-310
-4.91981e-318
-1.25981e-309
1.37321e-309
-1.17672e-317
-7.64097e-309
8.33014e-309
-4.33981e-317
-6.00032e-308
6.55594e-308
-2.17248e-316
-5.87915e-307
6.44605e-307
-1.29746e-315
-7.02741e-306
7.74097e-306
-1.4279e-314
-1.0102e-304
1.1191e-304
-2.06663e-313
-1.73175e-303
1.93129e-303
-2.36164e-312
-3.52658e-302
3.96358e-302
-3.30852e-311
-8.52478e-301
9.66816e-301
-4.22119e-310
-2.45259e-299
2.81161e-299
-2.18778e-308
-8.44742e-298
9.81313e-298
-5.08378e-307
-3.51444e-296
4.15347e-296
-1.50513e-305
-1.78763e-294
2.16419e-294
-4.9082e-304
-1.12778e-292
1.41773e-292
2.41877e-303
-8.89879e-291
1.19978e-290
-4.18671e-300
-8.30329e-289
1.34516e-288
-3.19107e-298
1.75222e-286
-2.645e-296
-1.45966e-211
-3.16187e-185
-8.55449e-193
-3.65192e-215
-1.91351e-213
-8.32732e-222
-1.38034e-308
5.03163e-215
-2.23559e-226
-3.76923e-308
4.03422e-308
-6.35173e-316
-1.59012e-307
1.70933e-307
-1.47285e-315
-9.20293e-307
9.93555e-307
-5.20623e-315
-6.87838e-306
7.4605e-306
-2.48147e-314
-6.4046e-305
6.98202e-305
-1.39644e-313
-7.26783e-304
7.96883e-304
-1.48645e-312
-9.91162e-303
1.09384e-302
-2.07848e-311
-1.61112e-301
1.79107e-301
-2.2476e-310
-3.1097e-300
3.4858e-300
-2.96933e-309
-7.12218e-299
8.05975e-299
-3.50865e-308
-1.94077e-297
2.22091e-297
-1.77884e-306
-6.32922e-296
7.3422e-296
-3.87986e-305
-2.49241e-294
2.94256e-294
-1.07664e-303
-1.1996e-292
1.4513e-292
-3.2341e-302
-7.15874e-291
8.996e-291
3.36595e-301
-5.34136e-289
7.20113e-289
-2.42325e-298
-4.71119e-287
7.63413e-287
-1.63148e-296
9.399e-285
-8.98617e-295
-1.55489e-212
-5.23848e-185
-1.40866e-192
-4.37884e-215
-2.8589e-214
-6.62085e-223
-1.79198e-306
5.78222e-215
-2.59654e-226
-4.74988e-306
4.97195e-306
-7.84348e-314
-1.92493e-305
2.04045e-305
-1.76541e-313
-1.06518e-304
1.13863e-304
-5.98979e-313
-7.59266e-304
8.17395e-304
-2.72124e-312
-6.73221e-303
7.29622e-303
-1.4447e-311
-7.26787e-302
7.93116e-302
-1.4927e-310
-9.42313e-301
1.03587e-300
-2.02298e-309
-1.4555e-299
1.6128e-299
-2.07829e-308
-2.66849e-298
2.98307e-298
-2.6015e-307
-5.80329e-297
6.55232e-297
-2.86903e-306
-1.50111e-295
1.71459e-295
-1.42086e-304
-4.64553e-294
5.38102e-294
-2.92495e-303
-1.73548e-292
2.04659e-292
-7.64973e-302
-7.92169e-291
9.57604e-291
-2.13444e-300
-4.4819e-289
5.62938e-289
2.91112e-299
-3.16944e-287
4.27212e-287
-1.36659e-296
-2.64863e-285
4.29218e-285
-8.19364e-295
5.00597e-283
-1.80314e-293
-3.18979e-213
-8.9843e-185
-2.40012e-192
-4.98908e-215
-7.25495e-215
-8.90546e-224
-2.23971e-304
6.32193e-215
-2.86842e-226
-5.77084e-304
5.90855e-304
-9.33492e-312
-2.25049e-303
2.3521e-303
-2.04179e-311
-1.19284e-302
1.26233e-302
-6.65826e-311
-8.12395e-302
8.67953e-302
-2.88707e-310
-6.87229e-301
7.40346e-301
-1.4431e-309
-7.07151e-300
7.67944e-300
-1.45476e-308
-8.73337e-299
9.56193e-299
-1.93324e-307
-1.28433e-297
1.41836e-297
-1.8777e-306
-2.24101e-296
2.49816e-296
-2.23915e-305
-4.63689e-295
5.22307e-295
-2.32841e-304
-1.14081e-293
1.30051e-293
-1.12298e-302
-3.35705e-292
3.88242e-292
-2.19698e-301
-1.19217e-290
1.40415e-290
-5.45538e-300
-5.17141e-289
6.24568e-289
-1.43319e-298
-2.77967e-287
3.48919e-287
2.04064e-297
-1.86689e-285
2.51555e-285
-7.26076e-295
-1.48121e-283
2.40013e-283
-4.16267e-293
2.65718e-281
4.17942e-292
-1.21265e-213
-1.59702e-184
-4.2378e-192
-5.41695e-215
-2.31812e-215
-2.2056e-224
-2.71279e-302
6.5939e-215
-3.02354e-226
-6.80315e-302
6.8141e-302
-1.07818e-309
-2.55706e-301
2.63474e-301
-2.29401e-309
-1.30036e-300
1.36213e-300
-7.1992e-309
-8.47619e-300
8.9858e-300
-2.98156e-308
-6.85254e-299
7.33701e-299
-1.4024e-307
-6.7325e-298
7.27496e-298
-1.38374e-306
-7.93396e-297
8.65095e-297
-1.77653e-305
-1.11284e-295
1.22473e-295
-1.66268e-304
-1.85135e-294
2.05781e-294
-1.89266e-303
-3.65116e-293
4.10272e-293
-1.86062e-302
-8.5596e-292
9.73808e-292
-8.76085e-301
-2.39948e-290
2.77039e-290
-1.63484e-299
-8.11521e-289
9.5455e-289
-3.87286e-298
-3.35157e-287
4.04369e-287
-9.67058e-297
-1.71469e-285
2.1508e-285
1.26826e-295
-1.0958e-283
1.47585e-283
-4.83089e-293
-8.26999e-282
1.33975e-281
-2.14808e-291
1.41056e-279
8.89699e-290
-6.95078e-214
-2.94569e-184
-7.765e-192
-5.61913e-215
-4.64013e-216
-9.47148e-225
-3.20328e-300
6.57669e-215
-3.04954e-226
-7.82763e-300
7.67084e-300
-1.21608e-307
-2.83977e-299
2.88441e-299
-2.51945e-307
-1.3877e-298
1.43863e-298
-7.61775e-307
-8.67081e-298
9.11968e-298
-3.01647e-306
-6.70988e-297
7.13935e-297
-1.33375e-305
-6.30446e-296
6.77777e-296
-1.29243e-304
-7.10075e-295
7.70978e-295
-1.62076e-303
-9.51476e-294
1.04344e-293
-1.45109e-302
-1.51167e-292
1.67523e-292
-1.58086e-301
-2.84626e-291
3.19022e-291
-1.47564e-300
-6.36879e-290
7.23035e-290
-6.7879e-299
-1.7036e-288
1.9635e-288
-1.213e-297
-5.49645e-287
6.45604e-287
-2.75432e-296
-2.16494e-285
2.60912e-285
-6.5957e-295
-1.05603e-283
1.32351e-283
7.51596e-294
-6.43257e-282
8.6585e-282
-2.99184e-291
-4.62566e-280
7.49097e-280
-1.1495e-289
7.51316e-278
7.35599e-288
-4.67839e-214
-5.6441e-184
-1.47837e-191
-5.58143e-215
5.27035e-216
-5.18766e-225
-3.70766e-298
6.28581e-215
-2.95033e-226
-8.83733e-298
8.47426e-298
-1.34705e-305
-3.09869e-297
3.10228e-297
-2.72007e-305
-1.45711e-296
1.4948e-296
-7.93285e-305
-8.74011e-296
9.11881e-296
-3.00586e-304
-6.48354e-295
6.8545e-295
-1.23341e-303
-5.83438e-294
6.23974e-294
-1.19156e-302
-6.28983e-293
6.79978e-293
-1.46145e-301
-8.06369e-292
8.81096e-292
-1.25257e-300
-1.22532e-290
1.35373e-290
-1.30637e-299
-2.20598e-289
2.46613e-289
-1.15623e-298
-4.71853e-288
5.34509e-288
-5.21907e-297
-1.20623e-286
1.38771e-286
-8.94136e-296
-3.71833e-285
4.36095e-285
-1.94963e-294
-1.39895e-283
1.68394e-283
-4.49474e-293
-6.51628e-282
8.15924e-282
4.32684e-292
-3.78919e-280
5.09694e-280
-1.85112e-289
-2.60033e-278
4.20914e-278
-6.2901e-288
4.02776e-276
5.21398e-286
-3.38532e-214
-1.12452e-183
-2.92786e-191
-5.31929e-215
1.0224e-215
-3.24455e-225
-4.22779e-296
5.76788e-215
-2.74384e-226
-9.83832e-296
9.23253e-296
-1.4731e-303
-3.33824e-295
3.2939e-295
-2.90181e-303
-1.51255e-294
1.53525e-294
-8.1716e-303
-8.72127e-294
9.02488e-294
-2.96582e-302
-6.21021e-293
6.52278e-293
-1.1227e-301
-5.35961e-292
5.70148e-292
-1.09008e-300
-5.53814e-291
5.96063e-291
-1.30953e-299
-6.80239e-290
7.40505e-290
-1.07516e-298
-9.90009e-289
1.0903e-288
-1.07474e-297
-1.70661e-287
1.90274e-287
-9.02913e-297
-3.49438e-286
3.9494e-286
-4.00714e-295
-8.54912e-285
9.8166e-285
-6.59268e-294
-2.5215e-283
2.9526e-283
-1.38307e-292
-9.07443e-282
1.09091e-281
-3.07936e-291
-4.04209e-280
5.05609e-280
2.31887e-290
-2.24705e-278
3.02022e-278
-1.15445e-287
-1.4737e-276
2.38412e-276
-3.55035e-286
2.17972e-274
3.28594e-284
-2.54699e-214
-2.33184e-183
-6.03745e-191
-4.87263e-215
1.18659e-215
-2.20414e-225
-4.77158e-294
5.08966e-215
-2.45758e-226
-1.08497e-293
9.96512e-294
-1.59802e-301
-3.56656e-293
3.46809e-293
-3.07349e-301
-1.55902e-292
1.56545e-292
-8.36628e-301
-8.65198e-292
8.87888e-292
-2.91112e-300
-5.92142e-291
6.17817e-291
-1.04402e-299
-4.90741e-290
5.19204e-290
-9.94104e-299
-4.8666e-289
5.21412e-289
-1.17076e-297
-5.73436e-288
6.21852e-288
-9.20881e-297
-8.00357e-287
8.78569e-287
-8.82106e-296
-1.32276e-285
1.4707e-285
-7.01404e-295
-2.59608e-284
2.92722e-284
-3.07429e-293
-6.08643e-283
6.97491e-283
-4.85635e-292
-1.71984e-281
2.01054e-281
-9.80153e-291
-5.92824e-280
7.11707e-280
-2.10599e-289
-2.52855e-278
3.15939e-278
1.18166e-288
-1.34557e-276
1.80701e-276
-7.21693e-286
-8.44474e-275
1.36529e-274
-2.01765e-284
1.19416e-272
2.0757e-282
-1.93668e-214
-5.03636e-183
-1.2972e-190
-4.2969e-215
1.17417e-215
-1.55313e-225
-5.35345e-292
4.32523e-215
-2.12332e-226
-1.19031e-291
1.07013e-291
-1.72724e-299
-3.7948e-291
3.63614e-291
-3.24627e-299
-1.60215e-290
1.59131e-290
-8.5507e-299
-8.56786e-290
8.71843e-290
-2.8562e-298
-5.64267e-289
5.84751e-289
-9.74312e-298
-4.49603e-288
4.73039e-288
-9.07925e-297
-4.28416e-287
4.5688e-287
-1.04861e-295
-4.84849e-286
5.23726e-286
-7.90902e-295
-6.49753e-285
7.1087e-285
-7.26552e-294
-1.0308e-283
1.14282e-283
-5.46678e-293
-1.94147e-282
2.1838e-282
-2.37108e-291
-4.36713e-281
4.99432e-281
-3.5988e-290
-1.18368e-279
1.38136e-279
-6.99112e-289
-3.9127e-278
4.69059e-278
-1.44932e-287
-1.59995e-276
1.99678e-276
6.63646e-287
-8.16016e-275
1.09483e-274
-4.54744e-284
-4.90666e-273
7.92699e-273
-1.16851e-282
6.64098e-271
1.26712e-280
-1.46397e-214
-1.13366e-182
-2.90552e-190
-3.65282e-215
1.06144e-215
-1.10583e-225
-5.99516e-290
3.54431e-215
-1.77204e-226
-1.30436e-289
1.14794e-289
-1.86779e-297
-4.03691e-289
3.81129e-289
-3.43321e-297
-1.64794e-288
1.61882e-288
-8.75965e-297
-8.50156e-288
8.57691e-288
-2.81229e-296
-5.39385e-287
5.55118e-287
-9.00442e-296
-4.13665e-286
4.32763e-286
-8.3408e-295
-3.79171e-285
4.02448e-285
-9.44464e-294
-4.12615e-284
4.43913e-284
-6.83377e-293
-5.31518e-283
5.79524e-283
-6.01929e-292
-8.10324e-282
8.95756e-282
-4.27166e-291
-1.46631e-280
1.6452e-280
-1.84075e-289
-3.16809e-279
3.61534e-279
-2.68303e-288
-8.24592e-278
9.60565e-278
-5.01237e-287
-2.61681e-276
3.13233e-276
-9.97536e-286
-1.02701e-274
1.28015e-274
2.10598e-285
-5.02585e-273
6.73628e-273
-2.87007e-282
-2.89861e-271
4.67912e-271
-6.72939e-281
3.75885e-269
8.06616e-279
-1.0919e-214
-2.66062e-182
-6.78616e-190
-2.99713e-215
8.99572e-216
-7.85765e-226
-6.72729e-288
2.80377e-215
-1.43019e-226
-1.43309e-287
1.23475e-287
-2.02854e-295
-4.3097e-287
4.00871e-287
-3.64967e-295
-1.70278e-286
1.65413e-286
-9.02905e-295
-8.48315e-286
8.48401e-286
-2.7894e-294
-5.19043e-285
5.30441e-285
-8.3843e-294
-3.83546e-284
3.98938e-284
-7.73368e-293
-3.38542e-283
3.57587e-283
-8.58645e-292
-3.54609e-282
3.79942e-282
-5.9656e-291
-4.39551e-281
4.77571e-281
-5.04184e-290
-6.44645e-280
7.10468e-280
-3.37357e-289
-1.1219e-278
1.25552e-278
-1.44641e-287
-2.3307e-277
2.65387e-277
-2.02555e-286
-5.83156e-276
6.78045e-276
-3.63901e-285
-1.77854e-274
2.12556e-274
-6.93738e-284
-6.70644e-273
8.34848e-273
1.46935e-283
-3.15224e-271
4.2205e-271
-1.82872e-280
-1.74558e-269
2.81539e-269
-3.92229e-279
2.17092e-267
5.11057e-277
-7.99916e-215
-6.51187e-182
-1.65289e-189
-2.37598e-215
7.23339e-216
-5.53037e-226
-7.59183e-286
2.14318e-215
-1.1174e-226
-1.58438e-285
1.33652e-285
-2.2207e-293
-4.63369e-285
4.24605e-285
-3.91394e-293
-1.77366e-284
1.70368e-284
-9.39817e-293
-8.54164e-284
8.46728e-284
-2.79667e-292
-5.04507e-283
5.11915e-283
-7.8619e-292
-3.59566e-282
3.71797e-282
-7.2664e-291
-3.05925e-281
3.21541e-281
-7.90776e-290
-3.08751e-280
3.29422e-280
-5.27808e-289
-3.68625e-279
3.99074e-279
-4.27946e-288
-5.20588e-278
5.71976e-278
-2.69015e-287
-8.72204e-277
9.73502e-277
-1.15211e-285
-1.74397e-275
1.98127e-275
-1.54934e-284
-4.19873e-274
4.87247e-274
-2.67426e-283
-1.23187e-272
1.46982e-272
-4.86561e-282
-4.46724e-271
5.5534e-271
2.92339e-281
-2.01873e-269
2.6998e-269
-1.17475e-278
-1.07438e-267
1.73123e-267
-2.26084e-277
1.28259e-265
3.4056e-275
-5.7388e-215
-1.66205e-181
-4.19789e-189
-1.82153e-215
5.55355e-216
-3.83634e-226
-8.6467e-284
1.58432e-215
-8.45831e-227
-1.76875e-283
1.4609e-283
-2.45896e-291
-5.03473e-283
4.54465e-283
-4.24879e-291
-1.86872e-282
1.77466e-282
-9.91248e-291
-8.70745e-282
8.55462e-282
-2.8447e-290
-4.96943e-281
5.00594e-281
-7.5342e-290
-3.41922e-280
3.51438e-280
-6.9393e-289
-2.8068e-279
2.93524e-279
-7.40398e-288
-2.73193e-278
2.90236e-278
-4.7502e-287
-3.1446e-277
3.39187e-277
-3.69717e-286
-4.28032e-276
4.68798e-276
-2.18052e-285
-6.91022e-275
7.69178e-275
-9.34839e-284
-1.33106e-273
1.50864e-273
-1.20779e-282
-3.08642e-272
3.5745e-272
-2.00275e-281
-8.71893e-271
1.03854e-270
-3.4697e-280
-3.04353e-269
3.77812e-269
2.94792e-279
-1.32348e-267
1.76789e-267
-7.67796e-277
-6.77556e-266
1.09073e-265
-1.31959e-275
7.77072e-264
2.27747e-273
-4.02374e-215
-4.42261e-181
-1.11131e-188
-1.35152e-215
4.08634e-216
-2.61408e-226
-9.97323e-282
1.13344e-215
-6.20776e-227
-2.00059e-281
1.61795e-281
-2.76333e-289
-5.54672e-281
4.93165e-281
-4.68431e-289
-1.99801e-280
1.87574e-280
-1.06295e-288
-9.01586e-280
8.77757e-280
-2.94821e-288
-4.97626e-279
4.97602e-279
-7.4356e-288
-3.30842e-278
3.3798e-278
-6.774e-287
-2.62267e-277
2.72862e-277
-7.0735e-286
-2.46405e-276
2.60634e-276
-4.36191e-285
-2.73683e-275
2.94097e-275
-3.25807e-284
-3.59366e-274
3.92321e-274
-1.77571e-283
-5.59527e-273
6.21073e-273
-7.73908e-282
-1.03917e-271
1.17498e-271
-9.60348e-281
-2.3227e-270
2.68445e-270
-1.52855e-279
-6.32315e-269
7.51847e-269
-2.51157e-278
-2.12644e-267
2.63577e-267
2.61366e-277
-8.90557e-266
1.18812e-265
-5.10344e-275
-4.38931e-264
7.05861e-264
-7.60514e-274
4.8399e-262
1.59841e-271
-2.75325e-215
-1.22625e-180
-3.06479e-188
-9.71139e-216
2.88829e-216
-1.74552e-226
-1.16884e-279
7.85212e-216
-4.41997e-227
-2.30023e-279
1.82158e-279
-3.16191e-287
-6.21621e-279
5.44352e-279
-5.26214e-287
-2.17486e-278
2.01821e-278
-1.16243e-286
-9.51196e-278
9.17583e-278
-3.11861e-286
-5.08179e-277
5.04369e-277
-7.52349e-286
-3.26741e-276
3.31726e-276
-6.7591e-285
-2.5034e-275
2.59096e-275
-6.91946e-284
-2.27222e-274
2.39274e-274
-4.09975e-283
-2.43731e-273
2.6091e-273
-2.94062e-282
-3.08986e-272
3.36207e-272
-1.51248e-281
-4.64351e-271
5.13956e-271
-6.56713e-280
-8.32194e-270
9.3863e-270
-7.83042e-279
-1.79444e-268
2.06952e-268
-1.19652e-277
-4.71138e-267
5.59185e-267
-1.86307e-276
-1.52763e-265
1.89061e-265
2.30998e-275
-6.16642e-264
8.21617e-264
-3.48941e-273
-2.92828e-262
4.70401e-262
-4.45422e-272
3.10666e-260
1.13028e-269
-1.83657e-215
-3.53992e-180
-8.79755e-188
-6.76159e-216
1.96402e-216
-1.1402e-226
-1.39655e-277
5.27002e-216
-3.0544e-227
-2.69734e-277
2.09165e-277
-3.6958e-285
-7.10978e-277
6.13162e-277
-6.04208e-285
-2.41791e-276
2.21763e-276
-1.30055e-284
-1.02579e-275
9.80377e-276
-3.37778e-284
-5.30894e-275
5.22935e-275
-7.74654e-284
-3.30382e-274
3.33316e-274
-6.92096e-283
-2.4485e-273
2.52069e-273
-6.95379e-282
-2.14872e-272
2.25244e-272
-3.95591e-281
-2.22765e-271
2.37536e-271
-2.72362e-280
-2.72868e-270
2.95905e-270
-1.33088e-279
-3.96113e-269
4.37146e-269
-5.72054e-278
-6.85553e-268
7.71278e-268
-6.55437e-277
-1.42716e-266
1.64235e-266
-9.60955e-276
-3.61656e-265
4.28441e-265
-1.41469e-274
-1.13145e-263
1.39808e-263
2.04781e-273
-4.40534e-262
5.86185e-262
-2.45194e-271
-2.01707e-260
3.2366e-260
-2.56025e-270
2.06033e-258
8.36864e-268
-1.19333e-215
-1.06278e-179
-2.62568e-187
-4.56365e-216
1.28609e-216
-7.27628e-227
-1.70683e-275
3.428e-216
-2.04931e-227
-3.23665e-275
2.45771e-275
-4.42705e-283
-8.3264e-275
7.07144e-275
-7.11364e-283
-2.75446e-274
2.49663e-274
-1.49313e-282
-1.13439e-273
1.07403e-273
-3.75774e-282
-5.69192e-273
5.56367e-273
-8.19765e-282
-3.43105e-272
3.43944e-272
-7.28368e-281
-2.4615e-271
2.5204e-271
-7.18583e-280
-2.09012e-270
2.1809e-270
-3.92781e-279
-2.0959e-269
2.22599e-269
-2.5983e-278
-2.48242e-268
2.68273e-268
-1.19214e-277
-3.48353e-267
3.83289e-267
-5.13826e-276
-5.82639e-266
6.53797e-266
-5.66063e-275
-1.17184e-264
1.34551e-264
-7.96609e-274
-2.86816e-263
3.39128e-263
-1.10899e-272
-8.66401e-262
1.06882e-261
1.81065e-271
-3.25603e-260
4.32655e-260
-1.78947e-269
-1.43843e-258
2.30542e-258
-1.49156e-268
1.41551e-256
6.2799e-266
-7.54787e-216
-3.3139e-179
-8.13675e-187
-2.98687e-216
8.11494e-217
-4.53156e-227
-2.14121e-273
2.16172e-216
-1.33529e-227
-3.98784e-273
2.96519e-273
-5.45265e-281
-1.00184e-272
8.37818e-273
-8.61558e-281
-3.2261e-272
2.8895e-272
-1.76472e-280
-1.29073e-271
1.21048e-271
-4.30716e-280
-6.28345e-271
6.09424e-271
-8.92168e-280
-3.67155e-270
3.6567e-270
-7.90749e-279
-2.55172e-269
2.59845e-269
-7.63813e-278
-2.09802e-268
2.17886e-268
-4.02342e-277
-2.03636e-267
2.15397e-267
-2.56022e-276
-2.3338e-266
2.51324e-266
-1.10447e-275
-3.168e-265
3.47507e-265
-4.76949e-274
-5.12414e-264
5.73471e-264
-5.05202e-273
-9.9637e-263
1.14142e-262
-6.82137e-272
-2.35698e-261
2.78137e-261
-8.96183e-271
-6.87911e-260
8.47198e-260
1.63059e-269
-2.49695e-258
3.31317e-258
-1.35404e-267
-1.06499e-256
1.70485e-256
-8.28457e-267
1.01027e-254
4.93818e-264
-4.64463e-216
-1.07144e-178
-2.61386e-186
-1.89611e-216
4.93554e-217
-2.7518e-227
-2.76713e-271
1.32182e-216
-8.45046e-228
-5.06317e-271
3.68645e-271
-6.92929e-279
-1.24289e-270
1.02341e-270
-1.07705e-278
-3.8985e-270
3.45006e-270
-2.15422e-278
-1.51633e-269
1.40845e-269
-5.10272e-278
-7.16694e-269
6.89653e-269
-1.0054e-277
-4.06236e-268
4.01935e-268
-8.86754e-277
-2.73702e-267
2.77161e-267
-8.36961e-276
-2.18053e-266
2.25373e-266
-4.26245e-275
-2.04996e-265
2.15941e-265
-2.61429e-274
-2.27485e-264
2.44098e-264
-1.06284e-273
-2.98909e-263
3.2686e-263
-4.59478e-272
-4.67858e-262
5.22185e-262
-4.68313e-271
-8.80079e-261
1.00583e-260
-6.06996e-270
-2.0134e-259
2.37112e-259
-7.52818e-269
-5.68116e-258
6.98452e-258
1.49743e-267
-1.99291e-256
2.64048e-256
-1.07291e-265
-8.21149e-255
1.31287e-254
-4.48341e-265
7.51323e-253
3.96859e-262
-2.77921e-216
-3.58517e-178
-8.68872e-186
-1.16766e-216
2.8938e-217
-1.62812e-227
-3.69811e-269
7.83814e-217
-5.19446e-228
-6.64996e-269
4.74093e-269
-9.11913e-277
-1.59593e-268
1.29378e-268
-1.39482e-276
-4.87914e-268
4.26594e-268
-2.72601e-276
-1.84616e-267
1.69824e-267
-6.27165e-276
-8.47787e-267
8.09312e-267
-1.17385e-275
-4.66467e-266
4.58455e-266
-1.03292e-274
-3.04881e-265
3.06988e-265
-9.51129e-274
-2.35511e-264
2.42234e-264
-4.69173e-273
-2.14595e-263
2.25102e-263
-2.77692e-272
-2.30728e-262
2.46673e-262
-1.06363e-271
-2.93647e-261
3.20083e-261
-4.60723e-270
-4.45048e-260
4.95349e-260
-4.51936e-269
-8.10376e-259
9.23935e-259
-5.62159e-268
-1.79402e-257
2.10837e-257
-6.56695e-267
-4.89687e-256
6.00958e-256
1.43051e-265
-1.66109e-254
2.1975e-254
-8.87974e-264
-6.61564e-253
1.05636e-252
-1.94093e-263
5.84136e-251
3.35502e-260
-1.61633e-216
-1.23896e-177
-2.98368e-185
-6.97608e-217
1.63551e-217
-9.37963e-228
-5.13255e-267
4.5075e-217
-3.10112e-228
-9.07288e-267
6.33331e-267
-1.24778e-274
-2.12985e-266
1.69978e-266
-1.87864e-274
-6.35055e-266
5.48509e-266
-3.58977e-274
-2.33912e-265
2.13068e-265
-8.027e-274
-1.04432e-264
9.88898e-265
-1.43228e-273
-5.58139e-264
5.44848e-264
-1.25335e-272
-3.54115e-263
3.54513e-263
-1.12731e-271
-2.65399e-262
2.71626e-262
-5.38629e-271
-2.34532e-261
2.44962e-261
-3.07969e-270
-2.44469e-260
2.60389e-260
-1.11171e-269
-3.01542e-259
3.2762e-259
-4.83065e-268
-4.42782e-258
4.9143e-258
-4.56499e-267
-7.80893e-257
8.88128e-257
-5.45299e-266
-1.67383e-255
1.96293e-255
-5.99784e-265
-4.42209e-254
5.41699e-254
1.35489e-263
-1.45132e-252
1.91699e-252
-7.73855e-262
-5.59006e-251
8.91419e-251
-3.65751e-262
4.7655e-249
2.92826e-258
-9.13221e-217
-4.41184e-177
-1.0554e-184
-4.04333e-217
8.90797e-218
-5.25828e-228
-7.432e-265
2.51378e-217
-1.79789e-228
-1.29185e-264
8.82909e-265
-1.78304e-272
-2.96787e-264
2.33157e-264
-2.64309e-272
-8.63563e-264
7.3676e-264
-4.94099e-272
-3.09828e-263
2.79436e-263
-1.07478e-271
-1.34568e-262
1.26389e-262
-1.82599e-271
-6.99041e-262
6.77723e-262
-1.59426e-270
-4.30792e-261
4.28761e-261
-1.40103e-269
-3.13445e-260
3.19188e-260
-6.48562e-269
-2.68794e-259
2.79525e-259
-3.5849e-268
-2.71792e-258
2.88392e-258
-1.21981e-267
-3.25094e-257
3.52036e-257
-5.31748e-266
-4.62759e-256
5.12114e-256
-4.84296e-265
-7.90891e-255
8.9723e-255