/*--------------------------------*- C++ -*----------------------------------*\
| =========                 |                                                 |
| \\      /  F ield         | OpenFOAM: The Open Source CFD Toolbox           |
|  \\    /   O peration     | Version:  v2012                                 |
|   \\  /    A nd           | Website:  www.openfoam.com                      |
|    \\/     M anipulation  |                                                 |
\*---------------------------------------------------------------------------*/
FoamFile
{
    version     2.0;
    format      ascii;
    class       surfaceScalarField;
    location    "0.2";
    object      phi;
}
// * * * * * * * * * * * * * * * * * * * * * * * * * * * * * * * * * * * * * //

dimensions      [0 3 -1 0 0 0 0];
oriented        oriented;


internalField   nonuniform List<scalar> 
6449
(
1.80785e-10
-7.11629e-09
-7.86079e-13
1.50173e-10
-2.03226e-08
4.03419e-12
4.86161e-10
-3.23718e-08
-9.11777e-13
1.33389e-09
-3.76878e-08
-1.05964e-13
-2.53326e-08
-3.13286e-13
1.25455e-10
-7.23785e-09
-3.13259e-13
-1.3161e-10
-2.00691e-08
2.17095e-12
1.95448e-10
-3.26988e-08
-4.57685e-13
8.99783e-10
-3.83925e-08
-4.92969e-13
-2.44323e-08
-3.66695e-14
5.29404e-11
-7.28938e-09
7.06984e-13
-3.28892e-10
-1.96898e-08
1.06116e-12
1.71636e-10
-3.31977e-08
-1.40177e-12
8.13902e-10
-3.90356e-08
-9.09202e-14
-2.36178e-08
4.45656e-14
-1.04557e-11
-7.27517e-09
-9.69257e-13
-3.22425e-10
-1.93799e-08
4.79893e-13
5.68442e-10
-3.40899e-08
3.98424e-13
1.19399e-09
-3.96616e-08
-3.60807e-13
-2.24245e-08
-7.82997e-15
-7.33238e-11
-7.19519e-09
-3.22984e-12
-1.79256e-10
-1.92842e-08
4.22487e-12
1.23467e-09
-3.55e-08
-2.18832e-12
1.66563e-09
-4.00925e-08
5.13241e-13
-2.0758e-08
1.30974e-13
-1.20976e-10
-7.07697e-09
8.02701e-13
2.15887e-10
-1.96158e-08
-3.67268e-12
1.90406e-09
-3.71915e-08
1.71892e-12
1.77462e-09
-3.99623e-08
2.01067e-14
-1.89836e-08
1.21277e-13
-1.0967e-10
-6.95827e-09
-5.52762e-12
7.57079e-10
-2.04952e-08
5.13092e-12
2.09425e-09
-3.85247e-08
-1.91172e-12
1.03805e-09
-3.89067e-08
6.1409e-13
-1.79455e-08
9.03262e-14
-6.44129e-11
-6.90089e-09
2.46859e-12
1.1077e-09
-2.16582e-08
-5.65793e-12
1.34924e-09
-3.87694e-08
1.69035e-12
-4.4203e-10
-3.71151e-08
1.2027e-13
-1.83875e-08
1.90987e-13
1.52522e-11
-6.91385e-09
-2.98558e-12
1.08728e-09
-2.27343e-08
1.45268e-12
4.97572e-12
-3.76851e-08
-7.0062e-13
-1.45441e-09
-3.56562e-08
3.39673e-13
-1.98421e-08
1.64066e-13
8.79396e-11
-7.00464e-09
5.63704e-14
8.70889e-10
-2.35132e-08
-1.97409e-12
-9.87445e-10
-3.58277e-08
6.32584e-13
-9.91631e-10
-3.5652e-08
7.95933e-14
-2.08339e-08
1.70277e-13
1.50512e-10
-7.16239e-09
2.80656e-12
3.79309e-10
-2.37339e-08
-3.81095e-12
-1.30208e-09
-3.41467e-08
2.32431e-13
2.79361e-10
-3.72335e-08
-2.64867e-14
-2.05546e-08
1.0384e-13
1.57591e-10
-7.31994e-09
2.34778e-13
-3.12341e-10
-2.32636e-08
-1.38053e-13
-1.17622e-09
-3.32833e-08
2.02568e-13
9.4342e-10
-3.93535e-08
-1.49337e-13
-1.96112e-08
2.00455e-14
1.3851e-11
-7.33113e-09
-1.78209e-12
-9.86192e-10
-2.22664e-08
1.3689e-12
-1.09651e-09
-3.31728e-08
-2.30825e-13
5.33093e-10
-4.09835e-08
-1.02536e-13
-1.90778e-08
4.26233e-15
-1.76894e-10
-7.1539e-09
-3.2331e-13
-1.43231e-09
-2.10116e-08
2.59643e-13
-1.39681e-09
-3.32076e-08
-3.41035e-13
-4.75114e-10
-4.19055e-08
-3.17432e-14
-1.95529e-08
-4.25421e-14
-4.3839e-10
-6.71921e-09
1.72682e-12
-2.15376e-09
-1.92918e-08
-2.32685e-12
-2.69146e-09
-3.26707e-08
2.64337e-13
-1.59498e-09
-4.3002e-08
-7.52634e-14
-2.11481e-08
-3.49799e-14
-6.28516e-10
-6.08892e-09
-4.53499e-13
-2.76848e-09
-1.71532e-08
7.79426e-13
-4.68205e-09
-3.07572e-08
-1.41405e-13
-4.98753e-09
-4.26964e-08
1.29982e-13
-2.61345e-08
-2.05986e-14
-1.14274e-09
-4.94447e-09
-9.50852e-13
-4.18588e-09
-1.41115e-08
9.45491e-13
-8.53801e-09
-2.64037e-08
-6.91222e-14
-1.22046e-08
-3.90309e-08
-4.13393e-13
-3.83413e-08
-1.16711e-13
-1.80901e-09
-3.13562e-09
8.41093e-14
-7.12664e-09
-8.79412e-09
-3.01166e-13
-1.83197e-08
-1.52112e-08
-1.00006e-13
-3.56733e-08
-2.16794e-08
-2.51129e-13
-5.18877e-08
-2.21223e-08
5.19576e-13
-4.34816e-08
-8.40693e-09
-1.21108e-13
-3.45005e-08
-8.97995e-09
1.41489e-13
-2.83244e-08
-6.17362e-09
2.96965e-13
-2.3262e-08
-5.06095e-09
1.5328e-13
-1.93929e-08
-3.86959e-09
-5.68376e-14
-1.62516e-08
-3.14051e-09
8.06936e-14
-1.37527e-08
-2.50024e-09
-1.37289e-13
-1.17025e-08
-2.05086e-09
-7.92264e-14
-1.00285e-08
-1.67421e-09
-2.94345e-14
-8.6413e-09
-1.38744e-09
-3.36537e-14
-7.49071e-09
-1.15071e-09
-1.82207e-14
-6.52897e-09
-9.61884e-10
-1.85141e-14
-5.72246e-09
-8.0668e-10
-1.9429e-14
-5.04248e-09
-6.80154e-10
-2.01099e-14
-4.4665e-09
-5.76133e-10
-1.73475e-14
-3.976e-09
-4.90656e-10
-1.50396e-14
-3.55587e-09
-4.20262e-10
-1.44706e-14
-3.19391e-09
-3.62091e-10
-1.38052e-14
-2.88009e-09
-3.13948e-10
-1.31174e-14
-2.60627e-09
-2.7395e-10
-1.35771e-14
-2.36574e-09
-2.40648e-10
-1.25594e-14
-2.15303e-09
-2.12819e-10
-1.21147e-14
-1.96369e-09
-1.89442e-10
-1.04951e-14
-1.79403e-09
-1.69756e-10
-8.79132e-15
-1.64105e-09
-1.53076e-10
-7.94285e-15
-1.38892e-10
-1.30264e-14
-1.0734e-09
-2.06225e-09
3.13227e-14
-4.20386e-09
-5.66376e-09
-1.77052e-13
-1.05458e-08
-8.8694e-09
-4.78454e-14
-2.00466e-08
-1.21772e-08
1.31487e-13
-2.8236e-08
-1.39357e-08
-3.76223e-13
-2.62036e-08
-1.04397e-08
-7.00272e-14
-2.54473e-08
-9.73752e-09
-1.59832e-13
-2.41324e-08
-7.48736e-09
1.40872e-13
-2.24835e-08
-6.71004e-09
-3.68488e-14
-2.08882e-08
-5.46618e-09
-1.51384e-13
-1.92475e-08
-4.78121e-09
-1.75641e-14
-1.7713e-08
-4.03596e-09
-1.29076e-13
-1.62537e-08
-3.51079e-09
-7.98909e-14
-1.49059e-08
-3.02218e-09
-2.22713e-14
-1.3658e-08
-2.63554e-09
-2.72989e-14
-1.25139e-08
-2.29493e-09
-1.51319e-14
-1.14652e-08
-2.01067e-09
-1.30824e-14
-1.05079e-08
-1.76409e-09
-1.44609e-14
-9.63488e-09
-1.55332e-09
-1.40547e-14
-8.84021e-09
-1.37094e-09
-1.18916e-14
-8.11737e-09
-1.21364e-09
-1.0524e-14
-7.46013e-09
-1.0776e-09
-1.00827e-14
-6.86254e-09
-9.59815e-10
-1.02516e-14
-6.3187e-09
-8.57906e-10
-1.03589e-14
-5.82311e-09
-7.6966e-10
-1.14626e-14
-5.37055e-09
-6.93327e-10
-1.003e-14
-4.95621e-09
-6.27252e-10
-9.49166e-15
-4.57581e-09
-5.69957e-10
-7.48993e-15
-4.22537e-09
-5.20294e-10
-5.33339e-15
-3.90146e-09
-4.77084e-10
-6.49899e-15
-4.39423e-10
-1.5833e-14
-6.32345e-10
-1.42988e-09
-3.36008e-14
-2.31282e-09
-3.98333e-09
-8.00453e-14
-4.88695e-09
-6.29547e-09
-1.08577e-13
-8.9823e-09
-8.08214e-09
-6.62655e-14
-1.41134e-08
-8.80374e-09
6.79241e-14
-1.67877e-08
-7.76474e-09
5.15362e-14
-1.84404e-08
-8.08433e-09
3.31498e-14
-1.88576e-08
-7.06972e-09
5.49237e-14
-1.88587e-08
-6.71072e-09
-2.32064e-13
-1.84244e-08
-5.90045e-09
-1.02335e-14
-1.78249e-08
-5.38072e-09
-6.62968e-16
-1.7095e-08
-4.76679e-09
-9.08414e-14
-1.6314e-08
-4.29229e-09
-7.23158e-14
-1.55052e-08
-3.83107e-09
-1.61424e-14
-1.46943e-08
-3.44664e-09
-2.00512e-14
-1.38927e-08
-3.09662e-09
-1.27703e-14
-1.31095e-08
-2.79395e-09
-7.67369e-15
-1.23504e-08
-2.52331e-09
-1.11055e-14
-1.16192e-08
-2.28467e-09
-1.22314e-14
-1.09186e-08
-2.0717e-09
-9.99506e-15
-1.02501e-08
-1.88225e-09
-8.40154e-15
-9.61456e-09
-1.71328e-09
-7.86823e-15
-9.01203e-09
-1.56248e-09
-8.01848e-15
-8.44191e-09
-1.42814e-09
-8.22133e-15
-7.90317e-09
-1.30851e-09
-9.2125e-15
-7.39437e-09
-1.20225e-09
-7.76217e-15
-6.91377e-09
-1.10793e-09
-6.97621e-15
-6.45966e-09
-1.02418e-09
-4.96593e-15
-6.03009e-09
-9.4997e-10
-3.24874e-15
-5.62326e-09
-8.84007e-10
-5.94364e-15
-8.25345e-10
-1.61626e-14
-5.64611e-10
-8.6522e-10
-2.47735e-14
-2.11501e-09
-2.43294e-09
-3.85507e-14
-4.55716e-09
-3.85337e-09
-1.04544e-13
-7.57074e-09
-5.06888e-09
-7.92604e-14
-1.02919e-08
-6.0819e-09
5.2261e-14
-1.18248e-08
-6.23187e-09
-3.92483e-14
-1.33601e-08
-6.54868e-09
1.58341e-14
-1.42263e-08
-6.20207e-09
1.54696e-13
-1.4866e-08
-6.07256e-09
-1.98312e-13
-1.51475e-08
-5.61899e-09
-2.07807e-14
-1.52295e-08
-5.29877e-09
-1.08941e-14
-1.51223e-08
-4.87453e-09
-5.40979e-14
-1.48903e-08
-4.52468e-09
-4.2787e-14
-1.45588e-08
-4.16248e-09
2.57184e-15
-1.41595e-08
-3.84597e-09
-2.73122e-15
-1.37106e-08
-3.5455e-09
-4.19143e-15
-1.32284e-08
-3.27623e-09
1.06882e-15
-1.2724e-08
-3.02779e-09
-3.98389e-15
-1.22064e-08
-2.80228e-09
-3.33956e-15
-1.16826e-08
-2.59555e-09
-1.83001e-15
-1.11581e-08
-2.40687e-09
-1.40431e-15
-1.06371e-08
-2.23441e-09
-2.47138e-15
-1.01229e-08
-2.07676e-09
-3.64303e-15
-9.61799e-09
-1.93313e-09
-4.87256e-15
-9.1242e-09
-1.80241e-09
-6.19066e-15
-8.64268e-09
-1.68387e-09
-5.33031e-15
-8.1741e-09
-1.57658e-09
-4.74223e-15
-7.71892e-09
-1.47947e-09
-3.16035e-15
-7.27713e-09
-1.39186e-09
-2.17972e-15
-6.84865e-09
-1.31258e-09
-5.83448e-15
-1.24083e-09
-1.53758e-14
-2.48388e-10
-6.16801e-10
-2.10727e-14
-9.4976e-10
-1.73159e-09
2.61034e-15
-2.10916e-09
-2.69399e-09
-1.04294e-13
-3.70563e-09
-3.47273e-09
-8.94914e-14
-5.65972e-09
-4.12699e-09
7.29022e-14
-7.4574e-09
-4.43385e-09
9.65645e-15
-9.1518e-09
-4.85398e-09
6.91107e-15
-1.04589e-08
-4.89399e-09
9.99195e-14
-1.15253e-08
-5.00792e-09
-2.42177e-13
-1.22619e-08
-4.88264e-09
-3.40046e-14
-1.2776e-08
-4.78485e-09
-2.7547e-14
-1.30718e-08
-4.5792e-09
-4.73829e-14
-1.321e-08
-4.38675e-09
-3.57614e-14
-1.32136e-08
-4.15896e-09
-4.05289e-15
-1.31167e-08
-3.94283e-09
-2.70272e-15
-1.29392e-08
-3.72306e-09
-8.3698e-15
-1.27002e-08
-3.51533e-09
2.41505e-16
-1.24129e-08
-3.31522e-09
-7.72936e-15
-1.20884e-08
-3.12688e-09
-7.34186e-15
-1.17352e-08
-2.94884e-09
-4.56696e-15
-1.13603e-08
-2.78193e-09
-3.55431e-15
-1.0969e-08
-2.62575e-09
-3.52999e-15
-1.05661e-08
-2.47983e-09
-3.81371e-15
-1.0155e-08
-2.34426e-09
-4.42315e-15
-9.73896e-09
-2.21859e-09
-5.26539e-15
-9.32023e-09
-2.1027e-09
-4.27294e-15
-8.90075e-09
-1.99612e-09
-3.59598e-15
-8.48219e-09
-1.89813e-09
-2.25247e-15
-8.06571e-09
-1.80843e-09
-1.67027e-15
-7.65238e-09
-1.72599e-09
-5.66125e-15
-1.65024e-09
-1.4091e-14
-2.40835e-10
-3.75892e-10
-2.073e-14
-9.17382e-10
-1.05512e-09
9.09701e-15
-1.94615e-09
-1.66528e-09
-5.28675e-14
-3.20666e-09
-2.2118e-09
-4.53711e-15
-4.58354e-09
-2.75104e-09
-1.33037e-13
-5.87304e-09
-3.14476e-09
-7.01166e-14
-7.16698e-09
-3.55903e-09
8.84218e-14
-8.27848e-09
-3.78137e-09
1.14187e-13
-9.27887e-09
-4.0089e-09
-1.93991e-13
-1.00825e-08
-4.07869e-09
2.1895e-14
-1.07335e-08
-4.13354e-09
2.74339e-14
-1.12186e-08
-4.09433e-09
-1.75018e-14
-1.15667e-08
-4.03868e-09
-4.10222e-15
-1.17883e-08
-3.93733e-09
8.55744e-15
-1.19053e-08
-3.82572e-09
9.19689e-15
-1.19323e-08
-3.69605e-09
2.32306e-16
-1.18849e-08
-3.56271e-09
8.36188e-15
-1.17751e-08
-3.42506e-09
4.10322e-16
-1.16137e-08
-3.28836e-09
2.1873e-15
-1.14092e-08
-3.15335e-09
4.01574e-15
-1.1169e-08
-3.02214e-09
4.02935e-15
-1.08991e-08
-2.89568e-09
2.16627e-15
-1.06046e-08
-2.77441e-09
6.56219e-16
-1.02897e-08
-2.65927e-09
-1.10668e-15
-9.95792e-09
-2.55044e-09
-2.57563e-15
-9.61227e-09
-2.44842e-09
-2.29535e-15
-9.25523e-09
-2.35321e-09
-1.98405e-15
-8.88903e-09
-2.26442e-09
-1.04467e-15
-8.51545e-09
-2.1821e-09
-7.91542e-16
-8.13616e-09
-2.10535e-09
-4.80352e-15
-2.03385e-09
-1.2396e-14
-1.25175e-10
-2.50711e-10
7.59928e-16
-4.82881e-10
-6.97395e-10
-7.34596e-15
-1.06976e-09
-1.07844e-09
-4.20254e-14
-1.86171e-09
-1.42e-09
-6.69624e-14
-2.83259e-09
-1.78006e-09
-3.45456e-15
-3.89366e-09
-2.08362e-09
-5.3021e-15
-5.02537e-09
-2.42746e-09
-3.75425e-14
-6.11343e-09
-2.69209e-09
1.25677e-13
-7.14848e-09
-2.97578e-09
-2.58087e-13
-8.0554e-09
-3.17129e-09
3.75655e-14
-8.84043e-09
-3.34811e-09
4.06303e-14
-9.48405e-09
-3.45106e-09
-3.22286e-14
-9.99922e-09
-3.52353e-09
-5.04526e-15
-1.03905e-08
-3.54598e-09
5.54958e-15
-1.0674e-08
-3.54225e-09
7.53481e-15
-1.08611e-08
-3.5089e-09
1.70562e-15
-1.09657e-08
-3.45806e-09
1.04449e-14
-1.0999e-08
-3.39181e-09
1.02537e-15
-1.09713e-08
-3.31607e-09
-2.23905e-16
-1.08913e-08
-3.23341e-09
7.40349e-16
-1.07664e-08
-3.14713e-09
1.46619e-15
-1.06027e-08
-3.05944e-09
5.20431e-16
-1.04055e-08
-2.97168e-09
-2.00805e-16
-1.01793e-08
-2.88563e-09
-1.31932e-15
-9.92773e-09
-2.80206e-09
-2.32784e-15
-9.65416e-09
-2.72207e-09
-1.77126e-15
-9.36126e-09
-2.64615e-09
-1.24307e-15
-9.05154e-09
-2.57423e-09
-2.74614e-16
-8.72703e-09
-2.50668e-09
9.19519e-18
-8.3897e-09
-2.44276e-09
-3.79668e-15
-2.38229e-09
-1.08019e-14
-1.1353e-10
-1.37171e-10
-2.79878e-15
-4.37197e-10
-3.73703e-10
-4.56426e-15
-9.47919e-10
-5.67721e-10
-3.86509e-14
-1.60719e-09
-7.61552e-10
-1.43537e-13
-2.38557e-09
-1.00077e-09
9.52084e-14
-3.22873e-09
-1.24039e-09
2.53869e-15
-4.13236e-09
-1.52327e-09
5.52344e-14
-5.02958e-09
-1.79246e-09
2.73431e-13
-5.91457e-09
-2.09151e-09
-1.1899e-13
-6.73388e-09
-2.35176e-09
8.9727e-15
-7.48102e-09
-2.60059e-09
3.32019e-14
-8.136e-09
-2.79647e-09
-4.32948e-14
-8.69813e-09
-2.96149e-09
-1.67128e-14
-9.16402e-09
-3.08004e-09
5.98876e-15
-9.53938e-09
-3.16682e-09
6.16947e-15
-9.82897e-09
-3.21926e-09
6.49713e-15
-1.00406e-08
-3.24636e-09
1.41404e-14
-1.01815e-08
-3.25085e-09
6.16808e-15
-1.02593e-08
-3.23824e-09
7.65818e-15
-1.02808e-08
-3.21188e-09
8.37071e-15
-1.02524e-08
-3.17555e-09
7.3379e-15
-1.01796e-08
-3.13225e-09
5.00689e-15
-1.00674e-08
-3.08397e-09
3.25821e-15
-9.91995e-09
-3.03308e-09
1.19366e-15
-9.7412e-09
-2.98087e-09
-1.30801e-16
-9.53442e-09
-2.92891e-09
-6.24855e-17
-9.30242e-09
-2.87817e-09
3.36808e-16
-9.0478e-09
-2.82892e-09
1.09475e-15
-8.77272e-09
-2.78182e-09
1.26296e-15
-8.47926e-09
-2.73626e-09
-2.47521e-15
-2.69224e-09
-9.14498e-15
-7.08381e-11
-6.63286e-11
-1.67514e-16
-2.74937e-10
-1.69616e-10
-3.77421e-15
-6.03844e-10
-2.38752e-10
-2.41432e-14
-1.05392e-09
-3.11961e-10
-9.53167e-14
-1.61922e-09
-4.34216e-10
1.36207e-13
-2.27796e-09
-5.82024e-10
-4.42862e-14
-3.021e-09
-7.79941e-10
3.28022e-14
-3.80718e-09
-1.00421e-09
2.38359e-13
-4.62003e-09
-1.27965e-09
-1.50209e-13
-5.41187e-09
-1.55961e-09
1.69601e-14
-6.16449e-09
-1.84765e-09
2.686e-14
-6.85406e-09
-2.10721e-09
-3.54331e-14
-7.47098e-09
-2.34482e-09
-3.32518e-14
-8.00649e-09
-2.5445e-09
-1.85771e-16
-8.46073e-09
-2.71262e-09
-6.40696e-15
-8.83476e-09
-2.84524e-09
-3.38262e-15
-9.13327e-09
-2.94783e-09
2.7499e-15
-9.36158e-09
-3.02264e-09
-6.86572e-15
-9.52556e-09
-3.07434e-09
-4.72941e-15
-9.63099e-09
-3.10653e-09
-2.56877e-15
-9.68345e-09
-3.1232e-09
-4.19113e-16
-9.68789e-09
-3.12788e-09
-1.11408e-15
-9.64889e-09
-3.12305e-09
-8.5654e-16
-9.57049e-09
-3.11156e-09
-9.88545e-16
-9.45635e-09
-3.09507e-09
-1.07896e-15
-9.30975e-09
-3.07557e-09
-1.73653e-16
-9.13353e-09
-3.05442e-09
8.11201e-16
-8.9303e-09
-3.03221e-09
1.84758e-15
-8.70227e-09
-3.00991e-09
2.21136e-15
-8.45158e-09
-2.98701e-09
-1.20401e-15
-2.96365e-09
-7.58756e-15
-5.78818e-11
-8.43514e-12
-5.27892e-16
-2.29688e-10
2.14591e-12
1.6286e-15
-5.1291e-10
4.43969e-11
-1.76321e-14
-9.0128e-10
7.81783e-11
1.78473e-13
-1.38997e-09
5.11245e-11
-4.2094e-13
-1.94667e-09
-2.40855e-11
1.43808e-13
-2.56791e-09
-1.59e-10
-2.82466e-14
-3.22652e-09
-3.44416e-10
1.37509e-13
-3.91509e-09
-5.92893e-10
-2.42751e-13
-4.60275e-09
-8.72407e-10
-6.93892e-14
-5.27613e-09
-1.17458e-09
-4.41717e-14
-5.91596e-09
-1.46785e-09
-5.51619e-14
-6.51082e-09
-1.7504e-09
-5.52684e-14
-7.04953e-09
-2.00576e-09
4.28261e-16
-7.52755e-09
-2.23465e-09
-7.5641e-15
-7.94145e-09
-2.43132e-09
8.6564e-16
-8.2913e-09
-2.59793e-09
5.33029e-15
-8.57859e-09
-2.73539e-09
-2.2534e-15
-8.80594e-09
-2.84699e-09
2.14145e-15
-8.97672e-09
-2.93576e-09
3.16769e-15
-9.09464e-09
-3.00531e-09
4.28947e-15
-9.16339e-09
-3.05914e-09
3.32874e-15
-9.18667e-09
-3.0998e-09
2.73788e-15
-9.16791e-09
-3.13035e-09
1.6112e-15
-9.11042e-09
-3.1526e-09
1.28772e-15
-9.01727e-09
-3.16876e-09
1.77541e-15
-8.89122e-09
-3.18047e-09
2.59779e-15
-8.73483e-09
-3.18864e-09
3.47156e-15
-8.55032e-09
-3.19446e-09
3.83764e-15
-8.33982e-09
-3.19754e-09
6.32338e-16
-3.19816e-09
-5.68879e-15
-3.57669e-11
2.73399e-11
-1.36311e-16
-1.46022e-10
1.12408e-10
1.02132e-14
-3.3578e-10
2.34145e-10
3.01961e-15
-6.16121e-10
3.57741e-10
-1.0086e-13
-9.88211e-10
4.2443e-10
1.27505e-13
-1.43903e-09
4.26762e-10
-8.57663e-15
-1.95462e-09
3.56349e-10
-3.87651e-14
-2.51918e-09
2.20699e-10
6.57258e-14
-3.12768e-09
1.33395e-11
-2.89533e-13
-3.7563e-09
-2.43727e-10
-9.18703e-15
-4.39139e-09
-5.39713e-10
-3.03554e-14
-5.0123e-09
-8.47313e-10
-4.21285e-14
-5.60539e-09
-1.1578e-09
-5.89396e-14
-6.15685e-09
-1.45425e-09
3.51289e-15
-6.65965e-09
-1.73191e-09
-7.36775e-15
-7.1079e-09
-1.98303e-09
2.41566e-15
-7.49938e-09
-2.2064e-09
6.25645e-15
-7.83358e-09
-2.40123e-09
-1.89319e-15
-8.11142e-09
-2.56919e-09
-9.78682e-16
-8.33478e-09
-2.71245e-09
-4.05192e-17
-8.50617e-09
-2.83398e-09
1.48761e-15
-8.62832e-09
-2.93703e-09
7.64192e-16
-8.70414e-09
-3.02403e-09
1.13502e-15
-8.73648e-09
-3.09805e-09
9.41198e-16
-8.72817e-09
-3.16094e-09
1.18699e-15
-8.682e-09
-3.21496e-09
2.15498e-15
-8.60055e-09
-3.26192e-09
3.34748e-15
-8.48629e-09
-3.30294e-09
4.49573e-15
-8.34137e-09
-3.3394e-09
5.19645e-15
-8.1679e-09
-3.37103e-09
2.48452e-15
-3.39818e-09
-3.78238e-15
-3.0867e-11
5.8216e-11
-1.64756e-15
-1.25572e-10
2.07109e-10
9.00122e-15
-2.85999e-10
3.94556e-10
1.08348e-15
-5.19494e-10
5.91137e-10
-1.5399e-14
-8.36102e-10
7.40825e-10
-3.37349e-14
-1.22444e-09
8.15725e-10
6.40323e-14
-1.67187e-09
8.04334e-10
5.85243e-14
-2.16235e-09
7.12322e-10
1.3689e-13
-2.69168e-09
5.40815e-10
-2.4037e-13
-3.24212e-09
3.06963e-10
1.56664e-14
-3.80542e-09
2.35478e-11
-6.94464e-15
-4.36669e-09
-2.86134e-10
-9.71342e-15
-4.91531e-09
-6.09404e-10
-2.76932e-14
-5.43941e-09
-9.3002e-10
1.29794e-14
-5.93109e-09
-1.24019e-09
2.9096e-15
-6.38294e-09
-1.53108e-09
7.76264e-15
-6.79025e-09
-1.79898e-09
1.15499e-14
-7.14996e-09
-2.0415e-09
4.21092e-15
-7.46045e-09
-2.25864e-09
7.0165e-15
-7.72146e-09
-2.4514e-09
7.80251e-15
-7.93366e-09
-2.62176e-09
7.88534e-15
-8.09836e-09
-2.77229e-09
6.33368e-15
-8.21738e-09
-2.90502e-09
5.53918e-15
-8.29272e-09
-3.02271e-09
4.21791e-15
-8.32658e-09
-3.12709e-09
3.84845e-15
-8.32127e-09
-3.22028e-09
4.29051e-15
-8.2791e-09
-3.30408e-09
5.17217e-15
-8.20235e-09
-3.3797e-09
6.16793e-15
-8.09306e-09
-3.4487e-09
6.83961e-15
-7.95328e-09
-3.51083e-09
4.41771e-15
-3.56648e-09
-2.01681e-15
-2.28929e-11
8.11109e-11
-1.12254e-16
-9.40187e-11
2.78217e-10
7.73498e-16
-2.14474e-10
5.15041e-10
2.24142e-15
-3.89657e-10
7.66299e-10
-6.62373e-15
-6.30826e-10
9.81961e-10
-9.97704e-15
-9.38289e-10
1.12373e-09
5.65982e-14
-1.30688e-09
1.17323e-09
3.22363e-14
-1.72578e-09
1.13226e-09
1.26051e-13
-2.19127e-09
1.00421e-09
-2.65149e-13
-2.68754e-09
8.03259e-10
-9.72759e-15
-3.20667e-09
5.42411e-10
-3.43112e-14
-3.73488e-09
2.42023e-10
-5.49247e-15
-4.26076e-09
-8.36388e-11
-1.55283e-14
-4.77233e-09
-4.18453e-10
-1.39739e-16
-5.26048e-09
-7.52027e-10
-1.30146e-16
-5.71732e-09
-1.07422e-09
1.18268e-15
-6.13709e-09
-1.37913e-09
7.83556e-15
-6.51574e-09
-1.66287e-09
-1.17779e-15
-6.8505e-09
-1.9239e-09
3.12442e-16
-7.13999e-09
-2.16193e-09
1.62557e-15
-7.38384e-09
-2.37794e-09
3.05779e-15
-7.58239e-09
-2.57374e-09
2.80727e-15
-7.7366e-09
-2.75084e-09
3.11815e-15
-7.84773e-09
-2.9116e-09
2.93526e-15
-7.91733e-09
-3.05749e-09
3.39727e-15
-7.94722e-09
-3.19041e-09
4.37837e-15
-7.93931e-09
-3.31196e-09
5.62459e-15
-7.89567e-09
-3.42336e-09
6.83774e-15
-7.81817e-09
-3.5262e-09
7.59809e-15
-7.70875e-09
-3.62025e-09
5.27647e-15
-3.70591e-09
-8.49382e-16
-1.92545e-11
1.00366e-10
3.40551e-15
-7.86807e-11
3.37618e-10
-1.93265e-15
-1.79111e-10
6.15467e-10
-2.97637e-17
-3.23255e-10
9.10898e-10
4.53596e-14
-5.20963e-10
1.17888e-09
-9.84449e-14
-7.7729e-10
1.37981e-09
-3.32411e-14
-1.09178e-09
1.48789e-09
1.51185e-14
-1.45723e-09
1.49891e-09
1.49246e-13
-1.86974e-09
1.41495e-09
-2.28718e-13
-2.31432e-09
1.24836e-09
4.72531e-14
-2.78385e-09
1.01213e-09
1.84252e-14
-3.26668e-09
7.252e-10
4.07099e-14
-3.75304e-09
4.0301e-10
2.99495e-14
-4.23319e-09
6.18233e-11
1.46946e-14
-4.69904e-09
-2.8603e-10
1.54284e-14
-5.14336e-09
-6.29802e-10
8.22676e-15
-5.55986e-09
-9.62476e-10
1.51794e-14
-5.94353e-09
-1.27917e-09
5.32076e-15
-6.29028e-09
-1.57706e-09
9.46182e-15
-6.59743e-09
-1.85471e-09
1.08699e-14
-6.86334e-09
-2.11198e-09
1.03258e-14
-7.08724e-09
-2.34979e-09
8.47125e-15
-7.26907e-09
-2.56898e-09
7.63239e-15
-7.40926e-09
-2.77138e-09
6.33175e-15
-7.50866e-09
-2.95807e-09
5.99023e-15
-7.56846e-09
-3.13059e-09
6.36203e-15
-7.59015e-09
-3.29023e-09
7.24395e-15
-7.57548e-09
-3.43803e-09
8.08155e-15
-7.52611e-09
-3.57555e-09
8.4927e-15
-7.44382e-09
-3.70252e-09
5.96208e-15
-3.81926e-09
1.0859e-16
-1.4668e-11
1.15031e-10
4.39295e-15
-6.00434e-11
3.83006e-10
2.08393e-15
-1.37998e-10
6.93417e-10
1.20879e-15
-2.51674e-10
1.02429e-09
-4.02683e-14
-4.0853e-10
1.33581e-09
6.54829e-15
-6.17309e-10
1.58883e-09
2.6179e-14
-8.81149e-10
1.75147e-09
-3.22204e-14
-1.19538e-09
1.81424e-09
1.35286e-13
-1.55815e-09
1.77547e-09
-2.8527e-13
-1.95561e-09
1.64649e-09
6.2469e-14
-2.38188e-09
1.43865e-09
2.39671e-14
-2.82713e-09
1.17074e-09
3.3281e-14
-3.28219e-09
8.58366e-10
3.24753e-14
-3.73839e-09
5.1813e-10
1.28193e-14
-4.18733e-09
1.63065e-10
1.743e-14
-4.62143e-09
-1.95607e-10
9.3135e-15
-5.03383e-09
-5.49907e-10
1.81801e-14
-5.41913e-09
-8.93817e-10
6.43608e-15
-5.77275e-09
-1.22337e-09
7.60084e-15
-6.09145e-09
-1.53597e-09
7.76727e-15
-6.37291e-09
-1.83049e-09
8.17099e-15
-6.61565e-09
-2.10701e-09
6.81339e-15
-6.81889e-09
-2.36573e-09
6.48267e-15
-6.98235e-09
-2.60791e-09
5.78169e-15
-7.10622e-09
-2.83418e-09
5.9261e-15
-7.19115e-09
-3.04565e-09
6.56577e-15
-7.23812e-09
-3.24322e-09
7.58429e-15
-7.24853e-09
-3.4276e-09
8.47221e-15
-7.22384e-09
-3.60023e-09
8.83278e-15
-7.16563e-09
-3.76071e-09
6.30232e-15
-3.90924e-09
8.50121e-16
-1.24437e-11
1.27473e-10
3.8912e-15
-5.08261e-11
4.21397e-10
2.975e-15
-1.16975e-10
7.59576e-10
4.46134e-15
-2.13056e-10
1.11985e-09
-6.58884e-14
-3.44312e-10
1.46753e-09
5.37148e-14
-5.19675e-10
1.76438e-09
2.05107e-14
-7.43518e-10
1.97566e-09
3.97801e-14
-1.01437e-09
2.08698e-09
2.2794e-13
-1.33268e-09
2.09233e-09
-1.91679e-13
-1.68702e-09
2.00131e-09
4.08397e-14
-2.07195e-09
1.82379e-09
2.03392e-14
-2.47917e-09
1.57817e-09
2.3928e-14
-2.90033e-09
1.27973e-09
2.22793e-14
-3.32742e-09
9.45386e-10
1.98812e-14
-3.75263e-09
5.88464e-10
2.19362e-14
-4.16871e-09
2.20632e-10
1.6344e-14
-4.56899e-09
-1.49408e-10
2.41703e-14
-4.94804e-09
-5.14665e-10
1.20462e-14
-5.30102e-09
-8.70247e-10
1.54788e-14
-5.6242e-09
-1.21268e-09
1.53438e-14
-5.91461e-09
-1.53999e-09
1.36768e-14
-6.17006e-09
-1.85148e-09
1.12018e-14
-6.389e-09
-2.14673e-09
9.96856e-15
-6.57047e-09
-2.42639e-09
8.42567e-15
-6.71401e-09
-2.6906e-09
7.88473e-15
-6.81967e-09
-2.93996e-09
8.02334e-15
-6.88795e-09
-3.17488e-09
8.714e-15
-6.91987e-09
-3.39566e-09
9.28025e-15
-6.91661e-09
-3.60346e-09
9.4184e-15
-6.87957e-09
-3.79772e-09
6.9354e-15
-3.97844e-09
1.64572e-15
-1.03834e-11
1.37854e-10
3.52743e-15
-4.23259e-11
4.53323e-10
2.94236e-16
-9.70653e-11
8.14352e-10
6.88039e-15
-1.76417e-10
1.19885e-09
-4.64193e-14
-2.84166e-10
1.57615e-09
1.01584e-13
-4.29095e-10
1.90955e-09
2.83601e-14
-6.17253e-10
2.16393e-09
1.26579e-14
-8.50099e-10
2.32131e-09
1.81029e-13
-1.12927e-09
2.36976e-09
-2.25938e-13
-1.44559e-09
2.31822e-09
5.23839e-14
-1.79422e-09
2.17264e-09
1.87287e-14
-2.1679e-09
1.95206e-09
2.23231e-14
-2.55885e-09
1.67072e-09
3.5062e-15
-2.95936e-09
1.34607e-09
2.02047e-14
-3.36223e-09
9.91457e-10
1.42158e-14
-3.76051e-09
6.19001e-10
9.87479e-15
-4.14776e-09
2.38001e-10
1.64648e-14
-4.51851e-09
-1.43889e-10
3.14966e-15
-4.86781e-09
-5.20902e-10
5.97635e-15
-5.19166e-09
-8.88796e-10
6.55636e-15
-5.48675e-09
-1.24487e-09
7.69688e-15
-5.75041e-09
-1.58779e-09
6.62213e-15
-5.98055e-09
-1.91657e-09
6.74518e-15
-6.17563e-09
-2.23128e-09
6.41184e-15
-6.33465e-09
-2.53155e-09
7.00136e-15
-6.45713e-09
-2.81744e-09
7.64003e-15
-6.54311e-09
-3.08885e-09
8.59402e-15
-6.59322e-09
-3.34553e-09
9.22486e-15
-6.60838e-09
-3.58826e-09
9.38855e-15
-6.58981e-09
-3.81626e-09
7.14254e-15
-4.02929e-09
2.11077e-15
-8.80073e-12
1.46655e-10
2.08002e-15
-3.61586e-11
4.80646e-10
-2.56876e-15
-8.34447e-11
8.61613e-10
9.32414e-16
-1.50408e-10
1.26698e-09
1.3622e-13
-2.43968e-10
1.66743e-09
-2.7613e-13
-3.656e-10
2.0313e-09
3.07724e-15
-5.25249e-10
2.32418e-09
7.73368e-14
-7.26182e-10
2.52354e-09
1.66079e-13
-9.7191e-10
2.61349e-09
-2.54956e-13
-1.254e-09
2.6003e-09
-1.66687e-14
-1.56856e-09
2.48693e-09
-3.68217e-14
-1.90922e-09
2.29268e-09
-5.63638e-15
-2.26946e-09
2.03074e-09
-2.57204e-14
-2.64205e-09
1.71881e-09
1.75498e-14
-3.02059e-09
1.37008e-09
1.01782e-14
-3.3985e-09
9.9703e-10
1.27539e-14
-3.7698e-09
6.09472e-10
1.82062e-14
-4.12913e-09
2.15495e-10
5.64907e-15
-4.47142e-09
-1.78516e-10
9.86824e-15
-4.79244e-09
-5.67699e-10
1.00442e-14
-5.08854e-09
-9.487e-10
1.04163e-14
-5.35662e-09
-1.31964e-09
9.14174e-15
-5.59413e-09
-1.67902e-09
8.96881e-15
-5.79904e-09
-2.02632e-09
8.20875e-15
-5.96987e-09
-2.36067e-09
8.34497e-15
-6.10569e-09
-2.68157e-09
8.62029e-15
-6.20611e-09
-2.98836e-09
9.33117e-15
-6.27139e-09
-3.28021e-09
9.68959e-15
-6.3022e-09
-3.55741e-09
9.65772e-15
-6.29955e-09
-3.81888e-09
7.55044e-15
-4.06408e-09
2.71373e-15
-7.05168e-12
1.53708e-10
1.10849e-15
-2.9263e-11
5.02862e-10
2.61329e-15
-6.86252e-11
9.00961e-10
1.94895e-15
-1.27092e-10
1.32505e-09
-4.92923e-14
-2.05345e-10
1.74632e-09
6.77886e-14
-3.08917e-10
2.13504e-09
1.47472e-14
-4.45328e-10
2.46025e-09
-4.19857e-14
-6.19285e-10
2.69675e-09
-8.93511e-14
-8.33723e-10
2.82632e-09
-2.01963e-13
-1.0832e-09
2.84994e-09
6.58306e-15
-1.36595e-09
2.76949e-09
-2.68141e-14
-1.67577e-09
2.60247e-09
-4.65773e-15
-2.00753e-09
2.36225e-09
-2.95836e-14
-2.35422e-09
2.06566e-09
1.926e-14
-2.71009e-09
1.72601e-09
9.05941e-15
-3.06877e-09
1.35584e-09
1.48728e-14
-3.42455e-09
9.65425e-10
1.87486e-14
-3.77219e-09
5.63196e-10
6.66062e-15
-4.10656e-09
1.55932e-10
8.7982e-15
-4.42314e-09
-2.51059e-10
8.13317e-15
-4.71801e-09
-6.53783e-10
8.71757e-15
-4.98781e-09
-1.04978e-09
7.65983e-15
-5.22968e-09
-1.43711e-09
7.84417e-15
-5.44128e-09
-1.81467e-09
7.48994e-15
-5.62077e-09
-2.18114e-09
8.10068e-15
-5.76686e-09
-2.53545e-09
8.57054e-15
-5.87878e-09
-2.87637e-09
9.37751e-15
-5.95649e-09
-3.20247e-09
9.77683e-15
-6.00039e-09
-3.51347e-09
9.81897e-15
-6.01131e-09
-3.80791e-09
7.94479e-15
-4.08494e-09
3.29625e-15
-5.75949e-12
1.59468e-10
9.40499e-16
-2.40658e-11
5.21166e-10
1.77677e-15
-5.69086e-11
9.33789e-10
1.39001e-15
-1.06705e-10
1.37483e-09
-3.54628e-15
-1.76053e-10
1.81551e-09
-2.51644e-14
-2.66745e-10
2.22619e-09
4.82517e-14
-3.84388e-10
2.57833e-09
4.88771e-14
-5.33799e-10
2.84628e-09
1.41638e-14
-7.19982e-10
3.01141e-09
-1.37549e-13
-9.39207e-10
3.06945e-09
2.51269e-14
-1.19168e-09
3.02189e-09
-1.00779e-14
-1.47222e-09
2.88312e-09
1.25745e-14
-1.77666e-09
2.66657e-09
-1.27076e-14
-2.09853e-09
2.38769e-09
1.96662e-14
-2.43237e-09
2.05992e-09
1.07634e-14
-2.77207e-09
1.69568e-09
1.53888e-14
-3.11206e-09
1.30558e-09
1.95989e-14
-3.44716e-09
8.98371e-10
7.78449e-15
-3.77226e-09
4.81133e-10
1.06127e-14
-4.08269e-09
5.94618e-11
1.07054e-14
-4.37426e-09
-3.62138e-10
1.09622e-14
-4.6434e-09
-7.80564e-10
9.80615e-15
-4.88705e-09
-1.1934e-09
9.67037e-15
-5.10263e-09
-1.59904e-09
8.9763e-15
-5.28802e-09
-1.99568e-09
9.1139e-15
-5.44165e-09
-2.38176e-09
9.30568e-15
-5.56246e-09
-2.75548e-09
9.89058e-15
-5.65009e-09
-3.1148e-09
1.01337e-14
-5.70473e-09
-3.45878e-09
1.00743e-14
-5.72707e-09
-3.78554e-09
8.35349e-15
-4.09385e-09
3.83915e-15
-4.73612e-12
1.64205e-10
1.4367e-16
-2.00196e-11
5.36435e-10
-6.77355e-16
-4.70588e-11
9.60824e-10
2.97276e-15
-8.82809e-11
1.41611e-09
6.91741e-15
-1.47546e-10
1.87474e-09
-8.53506e-15
-2.26187e-10
2.30521e-09
3.71169e-14
-3.28475e-10
2.68085e-09
2.02329e-14
-4.5795e-10
2.97579e-09
3.25821e-15
-6.1981e-10
3.17212e-09
-1.4232e-13
-8.12651e-10
3.26234e-09
3.61245e-17
-1.038e-09
3.24701e-09
-2.633e-14
-1.29199e-09
3.13722e-09
1.34484e-14
-1.57118e-09
2.94571e-09
-3.28593e-15
-1.86984e-09
2.68644e-09
1.21363e-14
-2.18269e-09
2.37284e-09
9.43675e-15
-2.504e-09
2.01709e-09
1.22829e-14
-2.82831e-09
1.63006e-09
1.78584e-14
-3.15056e-09
1.22067e-09
6.14934e-15
-3.4656e-09
7.9626e-10
8.60511e-15
-3.76874e-09
3.6267e-10
8.64998e-15
-4.05556e-09
-7.52529e-11
9.12585e-15
-4.32227e-09
-5.13794e-10
8.2387e-15
-4.56565e-09
-9.49972e-10
8.43831e-15
-4.78296e-09
-1.38167e-09
8.13673e-15
-4.97191e-09
-1.80668e-09
8.72791e-15
-5.13071e-09
-2.22292e-09
9.12635e-15
-5.25806e-09
-2.62806e-09
9.80773e-15
-5.35337e-09
-3.01945e-09
1.00626e-14
-5.41662e-09
-3.39548e-09
9.97896e-15
-5.44837e-09
-3.75374e-09
8.42104e-15
-4.09265e-09
4.15535e-15
-3.90701e-12
1.68109e-10
3.46419e-15
-1.66673e-11
5.49191e-10
6.8034e-17
-3.91236e-11
9.83255e-10
-1.98068e-15
-7.33881e-11
1.45076e-09
4.49895e-14
-1.23666e-10
1.92443e-09
-7.31975e-14
-1.91454e-10
2.37275e-09
-3.55052e-14
-2.80358e-10
2.76991e-09
1.15493e-14
-3.93084e-10
3.08897e-09
5.16203e-14
-5.34957e-10
3.31332e-09
-8.47284e-14
-7.05432e-10
3.43312e-09
3.32197e-14
-9.06948e-10
3.44857e-09
7.48268e-15
-1.13686e-09
3.36743e-09
3.74795e-14
-1.39242e-09
3.20144e-09
2.07497e-14
-1.66881e-09
2.96294e-09
1.52037e-14
-1.96112e-09
2.66525e-09
1.34726e-14
-2.26409e-09
2.32017e-09
1.12962e-14
-2.57248e-09
1.93861e-09
1.73136e-14
-2.8813e-09
1.52955e-09
5.76038e-15
-3.18543e-09
1.10047e-09
8.75033e-15
-3.4801e-09
6.57426e-10
9.39786e-15
-3.76082e-09
2.05537e-10
1.01081e-14
-4.02355e-09
-2.50989e-10
9.26882e-15
-4.2649e-09
-7.08562e-10
9.3787e-15
-4.48203e-09
-1.16449e-09
8.90406e-15
-4.6725e-09
-1.61614e-09
9.26183e-15
-4.83437e-09
-2.06099e-09
9.50281e-15
-4.96619e-09
-2.49616e-09
1.00087e-14
-5.06715e-09
-2.91843e-09
1.00761e-14
-5.1371e-09
-3.32548e-09
9.93113e-15
-5.17646e-09
-3.71434e-09
8.46247e-15
-4.08299e-09
4.44939e-15
-3.06313e-12
1.71172e-10
1.91191e-15
-1.31757e-11
5.59311e-10
1.80402e-15
-3.10608e-11
1.00114e-09
3.69774e-15
-5.94996e-11
1.47906e-09
-1.47983e-14
-1.00837e-10
1.9659e-09
1.30481e-14
-1.59025e-10
2.43094e-09
-4.6037e-15
-2.3627e-10
2.84701e-09
-2.19415e-14
-3.3525e-10
3.18821e-09
3.10944e-14
-4.60643e-10
3.43777e-09
-1.14905e-13
-6.12492e-10
3.58531e-09
3.77097e-14
-7.93565e-10
3.62972e-09
1.28542e-14
-1.00224e-09
3.57634e-09
3.02104e-14
-1.2363e-09
3.43567e-09
2.26768e-14
-1.49186e-09
3.21859e-09
1.33531e-14
-1.76455e-09
2.93806e-09
1.41767e-14
-2.04967e-09
2.60537e-09
1.05176e-14
-2.34219e-09