/*--------------------------------*- C++ -*----------------------------------*\
| =========                 |                                                 |
| \\      /  F ield         | OpenFOAM: The Open Source CFD Toolbox           |
|  \\    /   O peration     | Version:  v2012                                 |
|   \\  /    A nd           | Website:  www.openfoam.com                      |
|    \\/     M anipulation  |                                                 |
\*---------------------------------------------------------------------------*/
FoamFile
{
    version     2.0;
    format      ascii;
    class       volScalarField;
    location    "0.85";
    object      p;
}
// * * * * * * * * * * * * * * * * * * * * * * * * * * * * * * * * * * * * * //

dimensions      [1 -1 -2 0 0 0 0];


internalField   nonuniform List<scalar> 
20000
(
3.49893e+06
3.49677e+06
3.499e+06
3.49717e+06
3.49896e+06
3.49755e+06
3.50011e+06
3.49936e+06
3.49914e+06
3.49664e+06
3.49629e+06
3.49685e+06
3.49769e+06
3.49841e+06
3.49912e+06
3.49972e+06
3.50024e+06
3.50064e+06
3.50093e+06
3.50113e+06
3.50125e+06
3.50131e+06
3.50132e+06
3.5013e+06
3.50125e+06
3.50119e+06
3.50111e+06
3.50103e+06
3.50093e+06
3.50084e+06
3.50074e+06
3.50064e+06
3.50053e+06
3.50042e+06
3.5003e+06
3.50019e+06
3.50006e+06
3.49992e+06
3.49975e+06
3.49957e+06
3.49907e+06
3.49903e+06
3.49979e+06
3.49985e+06
3.49987e+06
3.49987e+06
3.49987e+06
3.49987e+06
3.49988e+06
3.49988e+06
3.49988e+06
3.49988e+06
3.49987e+06
3.49987e+06
3.49987e+06
3.49987e+06
3.49987e+06
3.49987e+06
3.49987e+06
3.49987e+06
3.5061e+06
3.49872e+06
3.50532e+06
3.50086e+06
3.50465e+06
3.50237e+06
3.50415e+06
3.50241e+06
3.50313e+06
3.50084e+06
3.50093e+06
3.50072e+06
3.50075e+06
3.50047e+06
3.50027e+06
3.50007e+06
3.49997e+06
3.49991e+06
3.4999e+06
3.49991e+06
3.49995e+06
3.49999e+06
3.50003e+06
3.50008e+06
3.50011e+06
3.50014e+06
3.50016e+06
3.50017e+06
3.50017e+06
3.50016e+06
3.50014e+06
3.50011e+06
3.50007e+06
3.50001e+06
3.49994e+06
3.49986e+06
3.49977e+06
3.49965e+06
3.4995e+06
3.49934e+06
3.49891e+06
3.49904e+06
3.49953e+06
3.49958e+06
3.49961e+06
3.49962e+06
3.49963e+06
3.49963e+06
3.49964e+06
3.49964e+06
3.49964e+06
3.49964e+06
3.49964e+06
3.49964e+06
3.49963e+06
3.49963e+06
3.49963e+06
3.49963e+06
3.49963e+06
3.49963e+06
3.50574e+06
3.49652e+06
3.50482e+06
3.49901e+06
3.50388e+06
3.50087e+06
3.50357e+06
3.50191e+06
3.5023e+06
3.49936e+06
3.49895e+06
3.49878e+06
3.49922e+06
3.49937e+06
3.49963e+06
3.49978e+06
3.49994e+06
3.50003e+06
3.50011e+06
3.50015e+06
3.50017e+06
3.50016e+06
3.50015e+06
3.50013e+06
3.5001e+06
3.50007e+06
3.50004e+06
3.5e+06
3.49996e+06
3.49992e+06
3.49987e+06
3.49982e+06
3.49977e+06
3.49971e+06
3.49964e+06
3.49957e+06
3.49948e+06
3.49939e+06
3.49927e+06
3.49917e+06
3.49893e+06
3.49898e+06
3.49927e+06
3.49932e+06
3.49936e+06
3.49938e+06
3.49939e+06
3.4994e+06
3.4994e+06
3.49941e+06
3.49941e+06
3.49941e+06
3.49941e+06
3.49941e+06
3.49941e+06
3.4994e+06
3.4994e+06
3.49939e+06
3.49939e+06
3.49938e+06
3.50856e+06
3.49751e+06
3.5072e+06
3.50028e+06
3.50547e+06
3.50215e+06
3.50449e+06
3.50297e+06
3.50339e+06
3.50068e+06
3.50042e+06
3.50006e+06
3.50025e+06
3.50008e+06
3.50005e+06
3.49993e+06
3.49988e+06
3.49982e+06
3.49979e+06
3.49977e+06
3.49976e+06
3.49975e+06
3.49975e+06
3.49974e+06
3.49973e+06
3.49972e+06
3.4997e+06
3.49968e+06
3.49965e+06
3.49962e+06
3.49958e+06
3.49954e+06
3.49949e+06
3.49943e+06
3.49937e+06
3.4993e+06
3.49922e+06
3.49914e+06
3.49903e+06
3.49895e+06
3.4988e+06
3.49883e+06
3.49902e+06
3.49907e+06
3.49912e+06
3.49914e+06
3.49916e+06
3.49917e+06
3.49917e+06
3.49918e+06
3.49918e+06
3.49918e+06
3.49918e+06
3.49918e+06
3.49918e+06
3.49917e+06
3.49917e+06
3.49916e+06
3.49915e+06
3.49914e+06
3.50776e+06
3.49738e+06
3.50696e+06
3.50017e+06
3.5051e+06
3.50205e+06
3.50391e+06
3.50277e+06
3.5027e+06
3.49992e+06
3.49945e+06
3.49921e+06
3.49951e+06
3.49951e+06
3.49963e+06
3.49964e+06
3.49968e+06
3.49967e+06
3.49966e+06
3.49963e+06
3.49961e+06
3.49958e+06
3.49955e+06
3.49952e+06
3.4995e+06
3.49947e+06
3.49944e+06
3.49941e+06
3.49937e+06
3.49934e+06
3.4993e+06
3.49925e+06
3.49921e+06
3.49915e+06
3.4991e+06
3.49903e+06
3.49896e+06
3.49889e+06
3.4988e+06
3.49873e+06
3.49863e+06
3.49865e+06
3.49879e+06
3.49883e+06
3.49888e+06
3.4989e+06
3.49892e+06
3.49893e+06
3.49894e+06
3.49895e+06
3.49895e+06
3.49895e+06
3.49895e+06
3.49895e+06
3.49895e+06
3.49894e+06
3.49893e+06
3.49892e+06
3.49891e+06
3.49889e+06
3.50722e+06
3.49852e+06
3.50662e+06
3.50096e+06
3.50484e+06
3.50244e+06
3.50353e+06
3.50287e+06
3.50248e+06
3.5e+06
3.49955e+06
3.49941e+06
3.49964e+06
3.49959e+06
3.49963e+06
3.49957e+06
3.49954e+06
3.49948e+06
3.49943e+06
3.49939e+06
3.49934e+06
3.49931e+06
3.49928e+06
3.49924e+06
3.49922e+06
3.49919e+06
3.49916e+06
3.49912e+06
3.49909e+06
3.49905e+06
3.49901e+06
3.49897e+06
3.49893e+06
3.49888e+06
3.49882e+06
3.49877e+06
3.49871e+06
3.49864e+06
3.49857e+06
3.49852e+06
3.49844e+06
3.49846e+06
3.49856e+06
3.49859e+06
3.49864e+06
3.49866e+06
3.49868e+06
3.4987e+06
3.49871e+06
3.49872e+06
3.49872e+06
3.49873e+06
3.49873e+06
3.49872e+06
3.49872e+06
3.49871e+06
3.4987e+06
3.49869e+06
3.49867e+06
3.49865e+06
3.50485e+06
3.4999e+06
3.50487e+06
3.50137e+06
3.50366e+06
3.50234e+06
3.50256e+06
3.50241e+06
3.50157e+06
3.49927e+06
3.49874e+06
3.4988e+06
3.49908e+06
3.49914e+06
3.49925e+06
3.49926e+06
3.49927e+06
3.49924e+06
3.4992e+06
3.49916e+06
3.49911e+06
3.49907e+06
3.49902e+06
3.49899e+06
3.49895e+06
3.49891e+06
3.49888e+06
3.49884e+06
3.49881e+06
3.49877e+06
3.49873e+06
3.49869e+06
3.49865e+06
3.4986e+06
3.49856e+06
3.49851e+06
3.49845e+06
3.4984e+06
3.49834e+06
3.49829e+06
3.49824e+06
3.49826e+06
3.49833e+06
3.49836e+06
3.4984e+06
3.49843e+06
3.49845e+06
3.49847e+06
3.49848e+06
3.49849e+06
3.4985e+06
3.4985e+06
3.4985e+06
3.4985e+06
3.49849e+06
3.49848e+06
3.49847e+06
3.49845e+06
3.49843e+06
3.4984e+06
3.50203e+06
3.50168e+06
3.5026e+06
3.50194e+06
3.50223e+06
3.50215e+06
3.50154e+06
3.50182e+06
3.50069e+06
3.49869e+06
3.49822e+06
3.49849e+06
3.49879e+06
3.49891e+06
3.49901e+06
3.49903e+06
3.49903e+06
3.49899e+06
3.49895e+06
3.4989e+06
3.49885e+06
3.4988e+06
3.49876e+06
3.49871e+06
3.49867e+06
3.49864e+06
3.4986e+06
3.49857e+06
3.49853e+06
3.49849e+06
3.49846e+06
3.49842e+06
3.49838e+06
3.49833e+06
3.49829e+06
3.49824e+06
3.4982e+06
3.49815e+06
3.4981e+06
3.49807e+06
3.49804e+06
3.49805e+06
3.4981e+06
3.49813e+06
3.49817e+06
3.4982e+06
3.49822e+06
3.49824e+06
3.49825e+06
3.49826e+06
3.49827e+06
3.49827e+06
3.49827e+06
3.49827e+06
3.49826e+06
3.49825e+06
3.49824e+06
3.49822e+06
3.4982e+06
3.49816e+06
3.49853e+06
3.50338e+06
3.49996e+06
3.5022e+06
3.5005e+06
3.5016e+06
3.50033e+06
3.5009e+06
3.49955e+06
3.49776e+06
3.49734e+06
3.49784e+06
3.49821e+06
3.49844e+06
3.4986e+06
3.49867e+06
3.49871e+06
3.49869e+06
3.49867e+06
3.49863e+06
3.49858e+06
3.49853e+06
3.49849e+06
3.49844e+06
3.4984e+06
3.49836e+06
3.49832e+06
3.49829e+06
3.49825e+06
3.49821e+06
3.49818e+06
3.49814e+06
3.4981e+06
3.49806e+06
3.49802e+06
3.49798e+06
3.49794e+06
3.49791e+06
3.49787e+06
3.49784e+06
3.49782e+06
3.49783e+06
3.49787e+06
3.4979e+06
3.49794e+06
3.49796e+06
3.49799e+06
3.49801e+06
3.49802e+06
3.49803e+06
3.49804e+06
3.49804e+06
3.49805e+06
3.49804e+06
3.49803e+06
3.49802e+06
3.498e+06
3.49798e+06
3.49796e+06
3.49792e+06
3.49547e+06
3.50464e+06
3.49748e+06
3.50221e+06
3.49885e+06
3.50084e+06
3.49919e+06
3.49984e+06
3.49844e+06
3.49684e+06
3.49657e+06
3.49726e+06
3.49771e+06
3.49802e+06
3.49822e+06
3.49833e+06
3.49838e+06
3.49839e+06
3.49837e+06
3.49834e+06
3.4983e+06
3.49825e+06
3.49821e+06
3.49816e+06
3.49812e+06
3.49808e+06
3.49804e+06
3.49801e+06
3.49797e+06
3.49794e+06
3.4979e+06
3.49787e+06
3.49783e+06
3.49779e+06
3.49776e+06
3.49773e+06
3.49769e+06
3.49766e+06
3.49763e+06
3.49761e+06
3.4976e+06
3.49761e+06
3.49764e+06
3.49767e+06
3.4977e+06
3.49773e+06
3.49776e+06
3.49778e+06
3.49779e+06
3.4978e+06
3.49781e+06
3.49782e+06
3.49782e+06
3.49781e+06
3.49781e+06
3.49779e+06
3.49777e+06
3.49775e+06
3.49772e+06
3.49768e+06
3.4931e+06
3.50506e+06
3.49548e+06
3.50181e+06
3.49746e+06
3.49987e+06
3.49814e+06
3.49869e+06
3.49735e+06
3.4958e+06
3.4957e+06
3.49655e+06
3.49711e+06
3.49751e+06
3.49777e+06
3.49793e+06
3.49802e+06
3.49805e+06
3.49806e+06
3.49804e+06
3.498e+06
3.49796e+06
3.49792e+06
3.49788e+06
3.49784e+06
3.4978e+06
3.49776e+06
3.49773e+06
3.49769e+06
3.49766e+06
3.49762e+06
3.49759e+06
3.49756e+06
3.49753e+06
3.4975e+06
3.49747e+06
3.49744e+06
3.49741e+06
3.49739e+06
3.49738e+06
3.49737e+06
3.49738e+06
3.49741e+06
3.49744e+06
3.49747e+06
3.4975e+06
3.49752e+06
3.49755e+06
3.49756e+06
3.49758e+06
3.49759e+06
3.49759e+06
3.49759e+06
3.49759e+06
3.49758e+06
3.49756e+06
3.49754e+06
3.49751e+06
3.49748e+06
3.49744e+06
3.49211e+06
3.50433e+06
3.49441e+06
3.50094e+06
3.49655e+06
3.49881e+06
3.49731e+06
3.49759e+06
3.49642e+06
3.49481e+06
3.49489e+06
3.49586e+06
3.49654e+06
3.49701e+06
3.49733e+06
3.49753e+06
3.49765e+06
3.49771e+06
3.49773e+06
3.49772e+06
3.4977e+06
3.49767e+06
3.49764e+06
3.4976e+06
3.49756e+06
3.49752e+06
3.49748e+06
3.49745e+06
3.49741e+06
3.49738e+06
3.49735e+06
3.49732e+06
3.49729e+06
3.49726e+06
3.49723e+06
3.49721e+06
3.49718e+06
3.49717e+06
3.49715e+06
3.49714e+06
3.49714e+06
3.49715e+06
3.49718e+06
3.49721e+06
3.49724e+06
3.49727e+06
3.49729e+06
3.49732e+06
3.49734e+06
3.49735e+06
3.49736e+06
3.49737e+06
3.49737e+06
3.49736e+06
3.49735e+06
3.49734e+06
3.49731e+06
3.49728e+06
3.49725e+06
3.49719e+06
3.4923e+06
3.50274e+06
3.49432e+06
3.49982e+06
3.49616e+06
3.4978e+06
3.49671e+06
3.49666e+06
3.49567e+06
3.49387e+06
3.49405e+06
3.49514e+06
3.49594e+06
3.49648e+06
3.49686e+06
3.49711e+06
3.49727e+06
3.49735e+06
3.4974e+06
3.49741e+06
3.4974e+06
3.49737e+06
3.49734e+06
3.49731e+06
3.49727e+06
3.49724e+06
3.4972e+06
3.49716e+06
3.49713e+06
3.4971e+06
3.49707e+06
3.49704e+06
3.49701e+06
3.49699e+06
3.49697e+06
3.49695e+06
3.49693e+06
3.49692e+06
3.49691e+06
3.4969e+06
3.49691e+06
3.49692e+06
3.49695e+06
3.49698e+06
3.49701e+06
3.49704e+06
3.49707e+06
3.49709e+06
3.49711e+06
3.49712e+06
3.49714e+06
3.49714e+06
3.49714e+06
3.49714e+06
3.49713e+06
3.49711e+06
3.49708e+06
3.49705e+06
3.49701e+06
3.49695e+06
3.49357e+06
3.50082e+06
3.49497e+06
3.49874e+06
3.49622e+06
3.497e+06
3.49635e+06
3.49598e+06
3.49514e+06
3.49308e+06
3.49331e+06
3.49448e+06
3.49536e+06
3.49597e+06
3.49641e+06
3.49669e+06
3.49689e+06
3.497e+06
3.49706e+06
3.49709e+06
3.49709e+06
3.49707e+06
3.49705e+06
3.49702e+06
3.49699e+06
3.49695e+06
3.49692e+06
3.49688e+06
3.49685e+06
3.49682e+06
3.49679e+06
3.49677e+06
3.49674e+06
3.49672e+06
3.4967e+06
3.49669e+06
3.49668e+06
3.49667e+06
3.49666e+06
3.49667e+06
3.49667e+06
3.49669e+06
3.49672e+06
3.49675e+06
3.49678e+06
3.49681e+06
3.49684e+06
3.49686e+06
3.49688e+06
3.4969e+06
3.49691e+06
3.49692e+06
3.49692e+06
3.49691e+06
3.4969e+06
3.49688e+06
3.49685e+06
3.49682e+06
3.49678e+06
3.49671e+06
3.49528e+06
3.49914e+06
3.49607e+06
3.49792e+06
3.49661e+06
3.49648e+06
3.49618e+06
3.49558e+06
3.49485e+06
3.49246e+06
3.49264e+06
3.49385e+06
3.49481e+06
3.49547e+06
3.49595e+06
3.49628e+06
3.49651e+06
3.49665e+06
3.49673e+06
3.49677e+06
3.49678e+06
3.49677e+06
3.49675e+06
3.49673e+06
3.4967e+06
3.49666e+06
3.49663e+06
3.4966e+06
3.49657e+06
3.49654e+06
3.49651e+06
3.49649e+06
3.49647e+06
3.49645e+06
3.49644e+06
3.49643e+06
3.49642e+06
3.49642e+06
3.49642e+06
3.49643e+06
3.49644e+06
3.49646e+06
3.49649e+06
3.49652e+06
3.49655e+06
3.49658e+06
3.49661e+06
3.49664e+06
3.49666e+06
3.49667e+06
3.49669e+06
3.49669e+06
3.49669e+06
3.49669e+06
3.49668e+06
3.49665e+06
3.49663e+06
3.49659e+06
3.49654e+06
3.49648e+06
3.4971e+06
3.49795e+06
3.49729e+06
3.49748e+06
3.49717e+06
3.49629e+06
3.49617e+06
3.49547e+06
3.49477e+06
3.49202e+06
3.49201e+06
3.49327e+06
3.49429e+06
3.495e+06
3.49553e+06
3.49589e+06
3.49614e+06
3.4963e+06
3.4964e+06
3.49645e+06
3.49648e+06
3.49647e+06
3.49646e+06
3.49644e+06
3.49641e+06
3.49638e+06
3.49634e+06
3.49631e+06
3.49628e+06
3.49626e+06
3.49623e+06
3.49621e+06
3.4962e+06
3.49618e+06
3.49617e+06
3.49617e+06
3.49616e+06
3.49617e+06
3.49617e+06
3.49618e+06
3.4962e+06
3.49622e+06
3.49625e+06
3.49628e+06
3.49632e+06
3.49635e+06
3.49638e+06
3.49641e+06
3.49643e+06
3.49645e+06
3.49646e+06
3.49647e+06
3.49647e+06
3.49647e+06
3.49645e+06
3.49643e+06
3.4964e+06
3.49636e+06
3.49631e+06
3.49624e+06
3.49848e+06
3.49749e+06
3.49839e+06
3.49747e+06
3.49773e+06
3.49639e+06
3.4963e+06
3.49558e+06
3.49484e+06
3.49175e+06
3.49146e+06
3.49278e+06
3.49381e+06
3.49457e+06
3.49513e+06
3.49552e+06
3.49579e+06
3.49597e+06
3.49609e+06
3.49615e+06
3.49617e+06
3.49618e+06
3.49617e+06
3.49615e+06
3.49612e+06
3.49609e+06
3.49606e+06
3.49603e+06
3.496e+06
3.49597e+06
3.49595e+06
3.49594e+06
3.49592e+06
3.49591e+06
3.49591e+06
3.4959e+06
3.49591e+06
3.49591e+06
3.49593e+06
3.49594e+06
3.49596e+06
3.49599e+06
3.49602e+06
3.49605e+06
3.49609e+06
3.49612e+06
3.49615e+06
3.49618e+06
3.49621e+06
3.49623e+06
3.49624e+06
3.49625e+06
3.49625e+06
3.49624e+06
3.49623e+06
3.4962e+06
3.49617e+06
3.49613e+06
3.49608e+06
3.496e+06
3.49935e+06
3.49768e+06
3.49912e+06
3.49783e+06
3.4982e+06
3.49671e+06
3.49655e+06
3.49588e+06
3.49505e+06
3.49168e+06
3.491e+06
3.49239e+06
3.4934e+06
3.49421e+06
3.49477e+06
3.49519e+06
3.49548e+06
3.49567e+06
3.49578e+06
3.49585e+06
3.49588e+06
3.49589e+06
3.49588e+06
3.49586e+06
3.49583e+06
3.4958e+06
3.49577e+06
3.49574e+06
3.49571e+06
3.49569e+06
3.49567e+06
3.49566e+06
3.49565e+06
3.49564e+06
3.49564e+06
3.49564e+06
3.49565e+06
3.49566e+06
3.49568e+06
3.4957e+06
3.49572e+06
3.49575e+06
3.49579e+06
3.49582e+06
3.49586e+06
3.49589e+06
3.49593e+06
3.49596e+06
3.49598e+06
3.49601e+06
3.49602e+06
3.49603e+06
3.49603e+06
3.49602e+06
3.49601e+06
3.49598e+06
3.49595e+06
3.4959e+06
3.49584e+06
3.49576e+06
3.49954e+06
3.49842e+06
3.49943e+06
3.49839e+06
3.49851e+06
3.4972e+06
3.49694e+06
3.49632e+06
3.49541e+06
3.49182e+06
3.49066e+06
3.4921e+06
3.49307e+06
3.49391e+06
3.49447e+06
3.4949e+06
3.49519e+06
3.49538e+06
3.4955e+06
3.49557e+06
3.4956e+06
3.4956e+06
3.49559e+06
3.49557e+06
3.49554e+06
3.49551e+06
3.49548e+06
3.49545e+06
3.49543e+06
3.49541e+06
3.49539e+06
3.49538e+06
3.49537e+06
3.49537e+06
3.49537e+06
3.49538e+06
3.49539e+06
3.49541e+06
3.49543e+06
3.49545e+06
3.49548e+06
3.49552e+06
3.49555e+06
3.49559e+06
3.49563e+06
3.49567e+06
3.4957e+06
3.49573e+06
3.49576e+06
3.49578e+06
3.4958e+06
3.49581e+06
3.49581e+06
3.4958e+06
3.49578e+06
3.49576e+06
3.49572e+06
3.49567e+06
3.49561e+06
3.49553e+06
3.4993e+06
3.49933e+06
3.49939e+06
3.49892e+06
3.49872e+06
3.49775e+06
3.49747e+06
3.4969e+06
3.49596e+06
3.49219e+06
3.49049e+06
3.49196e+06
3.49285e+06
3.4937e+06
3.49423e+06
3.49466e+06
3.49494e+06
3.49513e+06
3.49524e+06
3.4953e+06
3.49532e+06
3.49532e+06
3.49531e+06
3.49528e+06
3.49525e+06
3.49522e+06
3.49519e+06
3.49516e+06
3.49514e+06
3.49512e+06
3.4951e+06
3.4951e+06
3.49509e+06
3.49509e+06
3.4951e+06
3.49511e+06
3.49513e+06
3.49515e+06
3.49518e+06
3.49521e+06
3.49524e+06
3.49528e+06
3.49532e+06
3.49536e+06
3.4954e+06
3.49544e+06
3.49548e+06
3.49551e+06
3.49554e+06
3.49556e+06
3.49558e+06
3.49559e+06
3.49559e+06
3.49558e+06
3.49556e+06
3.49554e+06
3.4955e+06
3.49544e+06
3.49538e+06
3.49529e+06
3.4983e+06
3.49995e+06
3.49919e+06
3.49919e+06
3.49893e+06
3.4983e+06
3.49818e+06
3.49766e+06
3.49673e+06
3.49283e+06
3.49055e+06
3.49199e+06
3.49274e+06
3.49358e+06
3.49406e+06
3.49448e+06
3.49472e+06
3.4949e+06
3.49499e+06
3.49504e+06
3.49505e+06
3.49505e+06
3.49502e+06
3.49499e+06
3.49496e+06
3.49493e+06
3.49489e+06
3.49487e+06
3.49484e+06
3.49483e+06
3.49482e+06
3.49481e+06
3.49481e+06
3.49482e+06
3.49483e+06
3.49485e+06
3.49487e+06
3.4949e+06
3.49493e+06
3.49496e+06
3.495e+06
3.49504e+06
3.49508e+06
3.49513e+06
3.49517e+06
3.49521e+06
3.49525e+06
3.49529e+06
3.49532e+06
3.49534e+06
3.49536e+06
3.49537e+06
3.49537e+06
3.49536e+06
3.49534e+06
3.49531e+06
3.49527e+06
3.49522e+06
3.49516e+06
3.49506e+06
3.49793e+06
3.49969e+06
3.49894e+06
3.49893e+06
3.49919e+06
3.49882e+06
3.49906e+06
3.49866e+06
3.49774e+06
3.49378e+06
3.49086e+06
3.4922e+06
3.49278e+06
3.49356e+06
3.49397e+06
3.49434e+06
3.49455e+06
3.4947e+06
3.49477e+06
3.4948e+06
3.49479e+06
3.49477e+06
3.49474e+06
3.49471e+06
3.49467e+06
3.49463e+06
3.4946e+06
3.49457e+06
3.49455e+06
3.49454e+06
3.49453e+06
3.49453e+06
3.49453e+06
3.49454e+06
3.49456e+06
3.49458e+06
3.49461e+06
3.49464e+06
3.49468e+06
3.49472e+06
3.49476e+06
3.4948e+06
3.49485e+06
3.4949e+06
3.49494e+06
3.49499e+06
3.49503e+06
3.49507e+06
3.4951e+06
3.49512e+06
3.49514e+06
3.49515e+06
3.49515e+06
3.49515e+06
3.49513e+06
3.49509e+06
3.49505e+06
3.49499e+06
3.49493e+06
3.49483e+06
3.49769e+06
3.49869e+06
3.49871e+06
3.49791e+06
3.49947e+06
3.49937e+06
3.5001e+06
3.5e+06
3.49898e+06
3.49505e+06
3.49142e+06
3.49259e+06
3.49294e+06
3.49364e+06
3.49394e+06
3.49426e+06
3.49441e+06
3.49452e+06
3.49455e+06
3.49456e+06
3.49454e+06
3.4945e+06
3.49446e+06
3.49442e+06
3.49437e+06
3.49433e+06
3.4943e+06
3.49427e+06
3.49425e+06
3.49424e+06
3.49424e+06
3.49424e+06
3.49425e+06
3.49426e+06
3.49429e+06
3.49431e+06
3.49435e+06
3.49438e+06
3.49443e+06
3.49447e+06
3.49452e+06
3.49457e+06
3.49462e+06
3.49467e+06
3.49472e+06
3.49476e+06
3.49481e+06
3.49485e+06
3.49488e+06
3.49491e+06
3.49493e+06
3.49494e+06
3.49494e+06
3.49493e+06
3.49491e+06
3.49488e+06
3.49483e+06
3.49477e+06
3.4947e+06
3.4946e+06
3.49773e+06
3.4968e+06
3.49826e+06
3.49623e+06
3.49955e+06
3.50016e+06
3.50126e+06
3.50174e+06
3.50045e+06
3.49665e+06
3.49222e+06
3.49315e+06
3.49322e+06
3.4938e+06
3.49396e+06
3.49421e+06
3.49429e+06
3.49435e+06
3.49435e+06
3.49433e+06
3.49428e+06
3.49423e+06
3.49418e+06
3.49412e+06
3.49407e+06
3.49403e+06
3.494e+06
3.49397e+06
3.49395e+06
3.49394e+06
3.49394e+06
3.49395e+06
3.49396e+06
3.49398e+06
3.49401e+06
3.49405e+06
3.49408e+06
3.49413e+06
3.49417e+06
3.49422e+06
3.49428e+06
3.49433e+06
3.49438e+06
3.49444e+06
3.49449e+06
3.49454e+06
3.49459e+06
3.49463e+06
3.49466e+06
3.49469e+06
3.49471e+06
3.49472e+06
3.49472e+06
3.49471e+06
3.49469e+06
3.49466e+06
3.49461e+06
3.49455e+06
3.49448e+06
3.49437e+06
3.49729e+06
3.49524e+06
3.49763e+06
3.49476e+06
3.49923e+06
3.50148e+06
3.50253e+06
3.50389e+06
3.50215e+06
3.49853e+06
3.49319e+06
3.49382e+06
3.49357e+06
3.494e+06
3.49401e+06
3.49417e+06
3.49418e+06
3.49419e+06
3.49414e+06
3.49409e+06
3.49402e+06
3.49396e+06
3.49389e+06
3.49383e+06
3.49377e+06
3.49372e+06
3.49369e+06
3.49366e+06
3.49365e+06
3.49364e+06
3.49364e+06
3.49366e+06
3.49368e+06
3.4937e+06
3.49374e+06
3.49378e+06
3.49382e+06
3.49387e+06
3.49392e+06
3.49398e+06
3.49403e+06
3.49409e+06
3.49415e+06
3.49421e+06
3.49426e+06
3.49432e+06
3.49436e+06
3.49441e+06
3.49444e+06
3.49447e+06
3.4945e+06
3.49451e+06
3.49451e+06
3.4945e+06
3.49448e+06
3.49444e+06
3.49439e+06
3.49433e+06
3.49425e+06
3.49414e+06
3.49723e+06
3.49569e+06
3.49704e+06
3.49545e+06
3.49863e+06
3.50353e+06
3.50395e+06
3.50628e+06
3.50404e+06
3.50055e+06
3.49424e+06
3.49454e+06
3.49393e+06
3.4942e+06
3.49406e+06
3.49413e+06
3.49406e+06
3.49401e+06
3.49393e+06
3.49384e+06
3.49375e+06
3.49367e+06
3.49359e+06
3.49352e+06
3.49346e+06
3.49341e+06
3.49337e+06
3.49335e+06
3.49334e+06
3.49334e+06
3.49334e+06
3.49336e+06
3.49339e+06
3.49342e+06
3.49346e+06
3.49351e+06
3.49356e+06
3.49361e+06
3.49367e+06
3.49373e+06
3.49379e+06
3.49385e+06
3.49392e+06
3.49398e+06
3.49404e+06
3.49409e+06
3.49414e+06
3.49419e+06
3.49423e+06
3.49426e+06
3.49428e+06
3.49429e+06
3.4943e+06
3.49429e+06
3.49426e+06
3.49423e+06
3.49418e+06
3.49411e+06
3.49403e+06
3.49391e+06
3.49741e+06
3.49934e+06
3.49697e+06
3.49905e+06
3.49876e+06
3.50613e+06
3.50546e+06
3.50854e+06
3.50593e+06
3.50244e+06
3.4952e+06
3.49516e+06
3.49422e+06
3.49435e+06
3.49406e+06
3.49405e+06
3.4939e+06
3.49381e+06
3.49369e+06
3.49358e+06
3.49347e+06
3.49337e+06
3.49327e+06
3.4932e+06
3.49314e+06
3.49309e+06
3.49305e+06
3.49303e+06
3.49302e+06
3.49303e+06
3.49304e+06
3.49306e+06
3.4931e+06
3.49314e+06
3.49318e+06
3.49323e+06
3.49329e+06
3.49335e+06
3.49342e+06
3.49348e+06
3.49355e+06
3.49362e+06
3.49368e+06
3.49375e+06
3.49381e+06
3.49387e+06
3.49392e+06
3.49397e+06
3.49401e+06
3.49405e+06
3.49407e+06
3.49408e+06
3.49408e+06
3.49407e+06
3.49405e+06
3.49401e+06
3.49396e+06
3.49389e+06
3.49381e+06
3.49369e+06
3.49796e+06
3.50479e+06
3.49727e+06
3.50451e+06
3.49981e+06
3.50864e+06
3.5068e+06
3.51016e+06
3.5075e+06
3.50384e+06
3.49585e+06
3.49552e+06
3.49434e+06
3.49436e+06
3.49397e+06
3.4939e+06
3.4937e+06
3.49357e+06
3.49342e+06
3.49328e+06
3.49315e+06
3.49304e+06
3.49295e+06
3.49287e+06
3.4928e+06
3.49275e+06
3.49272e+06
3.49271e+06
3.4927e+06
3.49271e+06
3.49273e+06
3.49276e+06
3.4928e+06
3.49285e+06
3.4929e+06
3.49296e+06
3.49303e+06
3.49309e+06
3.49316e+06
3.49324e+06
3.49331e+06
3.49338e+06
3.49345e+06
3.49352e+06
3.49359e+06
3.49365e+06
3.49371e+06
3.49376e+06
3.4938e+06
3.49383e+06
3.49386e+06
3.49387e+06
3.49387e+06
3.49386e+06
3.49384e+06
3.4938e+06
3.49375e+06
3.49367e+06
3.49359e+06
3.49346e+06
3.49835e+06
3.51074e+06
3.49777e+06
3.51053e+06
3.50123e+06
3.51022e+06
3.50768e+06
3.51073e+06
3.5084e+06
3.50441e+06
3.49602e+06
3.49548e+06
3.4942e+06
3.49417e+06
3.49374e+06
3.49364e+06
3.49341e+06
3.49327e+06
3.49309e+06
3.49295e+06
3.49281e+06
3.4927e+06
3.4926e+06
3.49252e+06
3.49245e+06
3.49241e+06
3.49238e+06
3.49237e+06
3.49238e+06
3.49239e+06
3.49242e+06
3.49246e+06
3.49251e+06
3.49256e+06
3.49262e+06
3.49269e+06
3.49276e+06
3.49283e+06
3.49291e+06
3.49299e+06
3.49307e+06
3.49314e+06
3.49322e+06
3.49329e+06
3.49336e+06
3.49343e+06
3.49349e+06
3.49354e+06
3.49359e+06
3.49362e+06
3.49365e+06
3.49366e+06
3.49367e+06
3.49366e+06
3.49363e+06
3.49359e+06
3.49354e+06
3.49346e+06
3.49337e+06
3.49324e+06
3.49853e+06
3.51448e+06
3.49817e+06
3.51443e+06
3.5026e+06
3.51013e+06
3.50784e+06
3.51001e+06
3.50838e+06
3.50392e+06
3.49553e+06
3.49491e+06
3.49374e+06
3.49374e+06
3.49334e+06
3.49325e+06
3.49303e+06
3.49289e+06
3.49271e+06
3.49257e+06
3.49244e+06
3.49232e+06
3.49222e+06
3.49215e+06
3.49209e+06
3.49206e+06
3.49204e+06
3.49203e+06
3.49204e+06
3.49207e+06
3.49211e+06
3.49215e+06
3.49221e+06
3.49227e+06
3.49234e+06
3.49241e+06
3.49249e+06
3.49257e+06
3.49266e+06
3.49274e+06
3.49283e+06
3.49291e+06
3.49299e+06
3.49307e+06
3.49314e+06
3.49321e+06
3.49327e+06
3.49333e+06
3.49338e+06
3.49341e+06
3.49344e+06
3.49346e+06
3.49346e+06
3.49345e+06
3.49342e+06
3.49338e+06
3.49332e+06
3.49324e+06
3.49315e+06
3.49302e+06
3.49861e+06
3.51322e+06
3.4983e+06
3.51351e+06
3.50328e+06
3.50797e+06
3.50702e+06
3.50795e+06
3.50724e+06
3.50225e+06
3.49428e+06
3.49375e+06
3.49289e+06
3.49302e+06
3.49274e+06
3.49271e+06
3.49254e+06
3.49242e+06
3.49227e+06
3.49214e+06
3.49202e+06
3.49191e+06
3.49183e+06
3.49176e+06
3.49172e+06
3.49169e+06
3.49168e+06
3.49169e+06
3.49171e+06
3.49174e+06
3.49179e+06
3.49184e+06
3.49191e+06
3.49198e+06
3.49206e+06
3.49214e+06
3.49223e+06
3.49232e+06
3.49241e+06
3.4925e+06
3.49259e+06
3.49267e+06
3.49276e+06
3.49284e+06
3.49292e+06
3.49299e+06
3.49306e+06
3.49312e+06
3.49317e+06
3.4932e+06
3.49323e+06
3.49325e+06
3.49325e+06
3.49324e+06
3.49322e+06
3.49317e+06
3.49312e+06
3.49303e+06
3.49294e+06
3.4928e+06
3.49891e+06
3.50627e+06
3.49822e+06
3.50704e+06
3.50279e+06
3.50398e+06
3.50507e+06
3.50477e+06
3.5049e+06
3.49948e+06
3.49224e+06
3.49201e+06
3.49167e+06
3.49201e+06
3.49193e+06
3.49201e+06
3.49193e+06
3.49187e+06
3.49176e+06
3.49166e+06
3.49156e+06
3.49147e+06
3.49141e+06
3.49135e+06
3.49132e+06
3.49131e+06
3.49131e+06
3.49133e+06
3.49136e+06
3.49141e+06
3.49147e+06
3.49153e+06
3.49161e+06
3.49169e+06
3.49177e+06
3.49187e+06
3.49196e+06
3.49206e+06
3.49215e+06
3.49225e+06
3.49235e+06
3.49244e+06
3.49253e+06
3.49262e+06
3.4927e+06
3.49278e+06
3.49284e+06
3.49291e+06
3.49296e+06
3.493e+06
3.49303e+06
3.49305e+06
3.49305e+06
3.49304e+06
3.49301e+06
3.49297e+06
3.49291e+06
3.49282e+06
3.49273e+06
3.49258e+06
3.49906e+06
3.49522e+06
3.49786e+06
3.49727e+06
3.50097e+06
3.49889e+06
3.50191e+06
3.50076e+06
3.50143e+06
3.49577e+06
3.48947e+06
3.48976e+06
3.49008e+06
3.49073e+06
3.49094e+06
3.49117e+06
3.49121e+06
3.49122e+06
3.49118e+06
3.49112e+06
3.49106e+06
3.491e+06
3.49096e+06
3.49093e+06
3.49091e+06
3.49092e+06
3.49094e+06
3.49097e+06
3.49101e+06
3.49107e+06
3.49114e+06
3.49122e+06
3.4913e+06
3.4914e+06
3.49149e+06
3.49159e+06
3.49169e+06
3.4918e+06
3.4919e+06
3.49201e+06
3.49211e+06
3.49221e+06
3.4923e+06
3.4924e+06
3.49248e+06
3.49256e+06
3.49263e+06
3.4927e+06
3.49275e+06
3.49279e+06
3.49282e+06
3.49284e+06
3.49285e+06
3.49284e+06
3.49281e+06
3.49276e+06
3.4927e+06
3.49261e+06
3.49252e+06
3.49236e+06
3.49872e+06
3.48401e+06
3.49665e+06
3.48771e+06
3.49796e+06
3.49362e+06
3.49765e+06
3.49626e+06
3.49698e+06
3.4914e+06
3.48609e+06
3.48712e+06
3.48821e+06
3.48925e+06
3.48978e+06
3.49019e+06
3.49039e+06
3.4905e+06
3.49053e+06
3.49054e+06
3.49052e+06
3.4905e+06
3.49049e+06
3.49048e+06
3.49049e+06
3.49052e+06
3.49055e+06
3.4906e+06
3.49066e+06
3.49073e+06
3.49081e+06
3.4909e+06
3.491e+06
3.4911e+06
3.49121e+06
3.49132e+06
3.49143e+06
3.49154e+06
3.49165e+06
3.49176e+06
3.49187e+06
3.49198e+06
3.49208e+06
3.49217e+06
3.49226e+06
3.49235e+06
3.49242e+06
3.49249e+06
3.49254e+06
3.49259e+06
3.49262e+06
3.49264e+06
3.49265e+06
3.49264e+06
3.49261e+06
3.49256e+06
3.4925e+06
3.49241e+06
3.49231e+06
3.49215e+06
3.49758e+06
3.47583e+06
3.4948e+06
3.481e+06
3.49416e+06
3.48897e+06
3.49269e+06
3.49164e+06
3.49194e+06
3.48672e+06
3.48233e+06
3.48426e+06
3.48613e+06
3.48761e+06
3.48849e+06
3.48912e+06
3.48948e+06
3.48971e+06
3.48984e+06
3.48991e+06
3.48995e+06
3.48997e+06
3.49e+06
3.49002e+06
3.49006e+06
3.49011e+06
3.49016e+06
3.49023e+06
3.49031e+06
3.49039e+06
3.49049e+06
3.49059e+06
3.4907e+06
3.49081e+06
3.49092e+06
3.49104e+06
3.49116e+06
3.49128e+06
3.4914e+06
3.49152e+06
3.49163e+06
3.49174e+06
3.49185e+06
3.49195e+06
3.49205e+06
3.49213e+06
3.49221e+06
3.49228e+06
3.49234e+06
3.49239e+06
3.49242e+06
3.49244e+06
3.49245e+06
3.49244e+06
3.49241e+06
3.49236e+06
3.4923e+06
3.4922e+06
3.4921e+06
3.49194e+06
3.49615e+06
3.47228e+06
3.4928e+06
3.47859e+06
3.49014e+06
3.48555e+06
3.48772e+06
3.48743e+06
3.48693e+06
3.48226e+06
3.47854e+06
3.48137e+06
3.48399e+06
3.48592e+06
3.48714e+06
3.48798e+06
3.48852e+06
3.48888e+06
3.4891e+06
3.48925e+06
3.48935e+06
3.48943e+06
3.48949e+06
3.48955e+06
3.48962e+06
3.48969e+06
3.48977e+06
3.48985e+06
3.48995e+06
3.49005e+06
3.49016e+06
3.49027e+06
3.49039e+06
3.49051e+06
3.49064e+06
3.49077e+06
3.4909e+06
3.49103e+06
3.49115e+06
3.49128e+06
3.4914e+06
3.49152e+06
3.49163e+06
3.49173e+06
3.49183e+06
3.49192e+06
3.492e+06
3.49208e+06
3.49214e+06
3.49219e+06
3.49222e+06
3.49224e+06
3.49225e+06
3.49224e+06
3.49221e+06
3.49216e+06
3.49209e+06
3.492e+06
3.49189e+06
3.49173e+06
3.49426e+06
3.47422e+06
3.49105e+06
3.48022e+06
3.4866e+06
3.4837e+06
3.48362e+06
3.48424e+06
3.4827e+06
3.4786e+06
3.47507e+06
3.47866e+06
3.4819e+06
3.48425e+06
3.48577e+06
3.48683e+06
3.48753e+06
3.48802e+06
3.48835e+06
3.48858e+06
3.48874e+06
3.48887e+06
3.48898e+06
3.48908e+06
3.48917e+06
3.48927e+06
3.48937e+06
3.48948e+06
3.48959e+06
3.4897e+06
3.48983e+06
3.48995e+06
3.49009e+06
3.49022e+06
3.49036e+06
3.4905e+06
3.49063e+06
3.49077e+06
3.4909e+06
3.49104e+06
3.49116e+06
3.49129e+06
3.4914e+06
3.49152e+06
3.49162e+06
3.49171e+06
3.4918e+06
3.49187e+06
3.49194e+06
3.49199e+06
3.49202e+06
3.49205e+06
3.49205e+06
3.49204e+06
3.49201e+06
3.49196e+06
3.4919e+06
3.4918e+06
3.49169e+06
3.49152e+06
3.49209e+06
3.47973e+06
3.4899e+06
3.48423e+06
3.48434e+06
3.48356e+06
3.48123e+06
3.48265e+06
3.48001e+06
3.47628e+06
3.47226e+06
3.4763e+06
3.47997e+06
3.48266e+06
3.48444e+06
3.48569e+06
3.48655e+06
3.48716e+06
3.48759e+06
3.4879e+06
3.48813e+06
3.48832e+06
3.48847e+06
3.4886e+06
3.48873e+06
3.48885e+06
3.48897e+06
3.4891e+06
3.48923e+06
3.48936e+06
3.4895e+06
3.48964e+06
3.48978e+06
3.48993e+06
3.49008e+06
3.49022e+06
3.49037e+06
3.49052e+06
3.49066e+06
3.4908e+06
3.49093e+06
3.49106e+06
3.49118e+06
3.4913e+06
3.49141e+06
3.49151e+06
3.49159e+06
3.49167e+06
3.49174e+06
3.49179e+06
3.49183e+06
3.49185e+06
3.49186e+06
3.49185e+06
3.49182e+06
3.49177e+06
3.4917e+06
3.4916e+06
3.49149e+06
3.49131e+06
3.49103e+06
3.48667e+06
3.49036e+06
3.48872e+06
3.48416e+06
3.48509e+06
3.48109e+06
3.483e+06
3.47945e+06
3.47566e+06
3.47028e+06
3.47434e+06
3.47828e+06
3.48122e+06
3.48319e+06
3.48461e+06
3.48561e+06
3.48633e+06
3.48685e+06
3.48724e+06
3.48754e+06
3.48777e+06
3.48797e+06
3.48813e+06
3.48829e+06
3.48844e+06
3.48858e+06
3.48872e+06
3.48887e+06
3.48902e+06
3.48917e+06
3.48932e+06
3.48948e+06
3.48964e+06
3.4898e+06
3.48995e+06
3.49011e+06
3.49026e+06
3.49041e+06
3.49056e+06
3.4907e+06
3.49084e+06
3.49096e+06
3.49109e+06
3.4912e+06
3.4913e+06
3.49139e+06
3.49147e+06
3.49154e+06
3.4916e+06
3.49164e+06
3.49166e+06
3.49167e+06
3.49166e+06
3.49163e+06
3.49158e+06
3.49151e+06
3.4914e+06
3.49129e+06
3.49111e+06
3.4922e+06
3.49282e+06
3.49314e+06
3.49239e+06
3.48637e+06
3.48774e+06
3.48318e+06
3.48527e+06
3.48129e+06
3.4768e+06
3.46916e+06
3.47278e+06
3.47685e+06
3.47996e+06
3.48208e+06
3.48363e+06
3.48475e+06
3.48556e+06
3.48617e+06
3.48662e+06
3.48697e+06
3.48725e+06
3.48748e+06
3.48768e+06
3.48786e+06
3.48803e+06
3.48819e+06
3.48836e+06
3.48852e+06
3.48868e+06
3.48885e+06
3.48901e+06
3.48918e+06
3.48935e+06
3.48952e+06
3.48968e+06
3.48985e+06
3.49001e+06
3.49017e+06
3.49032e+06
3.49047e+06
3.49061e+06
3.49075e+06
3.49087e+06
3.49099e+06
3.4911e+06
3.49119e+06
3.49128e+06
3.49135e+06
3.4914e+06
3.49144e+06
3.49147e+06
3.49148e+06
3.49147e+06
3.49144e+06
3.49139e+06
3.49131e+06
3.49121e+06
3.49109e+06
3.49091e+06
3.49609e+06
3.49706e+06
3.49783e+06
3.49524e+06
3.49059e+06
3.49108e+06
3.48731e+06
3.4887e+06
3.48504e+06
3.47922e+06
3.46868e+06
3.4715e+06
3.47568e+06
3.4789e+06
3.48115e+06
3.4828e+06
3.48401e+06
3.4849e+06
3.48556e+06
3.48607e+06
3.48646e+06
3.48677e+06
3.48703e+06
3.48725e+06
3.48745e+06
3.48764e+06
3.48782e+06
3.488e+06
3.48817e+06
3.48835e+06
3.48853e+06
3.4887e+06
3.48888e+06
3.48906e+06
3.48924e+06
3.48942e+06
3.48959e+06
3.48976e+06
3.48993e+06
3.49009e+06
3.49024e+06
3.49039e+06
3.49053e+06
3.49066e+06
3.49078e+06
3.49089e+06
3.49099e+06
3.49108e+06
3.49115e+06
3.49121e+06
3.49126e+06