/*--------------------------------*- C++ -*----------------------------------*\
| =========                 |                                                 |
| \\      /  F ield         | OpenFOAM: The Open Source CFD Toolbox           |
|  \\    /   O peration     | Version:  v2012                                 |
|   \\  /    A nd           | Website:  www.openfoam.com                      |
|    \\/     M anipulation  |                                                 |
\*---------------------------------------------------------------------------*/
FoamFile
{
    version     2.0;
    format      ascii;
    class       surfaceScalarField;
    location    "0.85";
    object      phi;
}
// * * * * * * * * * * * * * * * * * * * * * * * * * * * * * * * * * * * * * //

dimensions      [0 3 -1 0 0 0 0];
oriented        oriented;


internalField   nonuniform List<scalar> 
49380
(
5.24562e-12
-6.90307e-09
-1.03312e-16
1.21568e-12
-2.10796e-08
-8.57703e-16
1.01632e-10
-3.50115e-08
-9.50664e-15
1.9641e-10
-4.9815e-08
-1.48148e-14
4.746e-10
-6.69318e-08
-1.47471e-14
1.16683e-09
-8.51053e-08
-1.21567e-14
1.52009e-09
-8.11097e-08
-1.09467e-14
1.64465e-09
-7.17667e-08
-4.18934e-15
1.71393e-09
-8.14034e-08
-2.43114e-15
1.80041e-09
-9.11429e-08
-2.07707e-15
1.88242e-09
-9.85681e-08
-2.12816e-15
1.95388e-09
-1.03622e-07
-2.09403e-15
2.01045e-09
-1.07053e-07
-2.11351e-15
2.05001e-09
-1.10126e-07
-2.06538e-15
2.06948e-09
-1.1368e-07
-2.07679e-15
2.06678e-09
-1.17933e-07
-2.02087e-15
2.04043e-09
-1.22773e-07
-2.00242e-15
1.98954e-09
-1.27935e-07
-1.98414e-15
1.91344e-09
-1.33133e-07
-1.94079e-15
1.81191e-09
-1.38107e-07
-1.92671e-15
1.68502e-09
-1.42654e-07
-1.92589e-15
1.53312e-09
-1.46634e-07
-1.90662e-15
1.35685e-09
-1.49911e-07
-1.87992e-15
1.15701e-09
-1.52416e-07
-1.86534e-15
9.34701e-10
-1.54058e-07
-1.82256e-15
6.91296e-10
-1.54779e-07
-1.78531e-15
4.28571e-10
-1.54509e-07
-1.74804e-15
1.4886e-10
-1.53164e-07
-1.70526e-15
-1.44888e-10
-1.50699e-07
-1.6621e-15
-4.48818e-10
-1.4701e-07
-1.69748e-15
-7.5806e-10
-1.42035e-07
-1.53403e-15
-1.06647e-09
-1.35694e-07
-1.41439e-15
-1.36634e-09
-1.27903e-07
-1.34227e-15
-1.64803e-09
-1.1859e-07
-1.26484e-15
-1.89944e-09
-1.07686e-07
-1.18107e-15
-2.10524e-09
-9.51314e-08
-1.09042e-15
-2.24516e-09
-8.08744e-08
-9.91429e-16
-2.29214e-09
-6.48879e-08
-8.81932e-16
-2.20277e-09
-4.71628e-08
-7.58695e-16
-1.92633e-09
-2.77523e-08
-6.11863e-16
-1.23393e-09
-6.79577e-09
-4.27541e-16
-6.02626e-10
1.58772e-08
-9.94105e-17
-4.55069e-10
4.01675e-08
-4.53378e-17
-3.92641e-10
6.56278e-08
-3.11787e-17
-3.65506e-10
9.21394e-08
-2.29404e-17
-3.46997e-10
1.19582e-07
-1.69845e-17
-3.29984e-10
1.47493e-07
-1.23328e-17
-3.11579e-10
1.75484e-07
-8.51029e-18
-2.90693e-10
2.02909e-07
-5.77317e-18
-2.66897e-10
2.2905e-07
-1.9548e-18
-2.40149e-10
2.53061e-07
2.67116e-20
-2.10716e-10
2.73698e-07
2.18856e-18
-1.79113e-10
2.89633e-07
-2.71372e-19
-1.46124e-10
2.99188e-07
1.04958e-18
-1.12824e-10
3.00214e-07
1.99821e-18
-8.05861e-11
2.90119e-07
2.96653e-18
-5.1099e-11
2.65775e-07
4.40297e-18
-2.63106e-11
2.23157e-07
1.90369e-18
-8.40754e-12
1.57415e-07
1.72244e-18
6.22747e-08
2.46121e-18
8.48534e-12
-6.91155e-09
1.34294e-16
-1.93625e-12
-2.10692e-08
-3.69477e-15
1.92144e-10
-3.52056e-08
-8.34607e-15
2.35812e-10
-4.98587e-08
-1.39248e-14
5.57897e-10
-6.72539e-08
-1.01242e-14
1.36855e-09
-8.5916e-08
-1.0654e-14
1.73764e-09
-8.14788e-08
-9.40535e-15
1.74533e-09
-7.17744e-08
-2.17274e-15
1.82243e-09
-8.14805e-08
-2.28397e-15
1.93436e-09
-9.12548e-08
-2.55363e-15
2.03383e-09
-9.86676e-08
-2.41996e-15
2.1135e-09
-1.03702e-07
-2.35646e-15
2.17188e-09
-1.07111e-07
-2.2303e-15
2.20866e-09
-1.10163e-07
-2.237e-15
2.21971e-09
-1.13691e-07
-2.06269e-15
2.20296e-09
-1.17916e-07
-2.11139e-15
2.15836e-09
-1.22728e-07
-2.03931e-15
2.08705e-09
-1.27864e-07
-2.08566e-15
1.99029e-09
-1.33037e-07
-2.07417e-15
1.86928e-09
-1.37986e-07
-1.94852e-15
1.72494e-09
-1.4251e-07
-1.89024e-15
1.55796e-09
-1.46467e-07
-1.87825e-15
1.36894e-09
-1.49722e-07
-1.87772e-15
1.15843e-09
-1.52206e-07
-1.87141e-15
9.27169e-10
-1.53827e-07
-1.83311e-15
6.76162e-10
-1.54528e-07
-1.80594e-15
4.06843e-10
-1.54239e-07
-1.76687e-15
1.21257e-10
-1.52878e-07
-1.72179e-15
-1.77878e-10
-1.504e-07
-1.6749e-15
-4.86892e-10
-1.46701e-07
-1.61318e-15
-8.01065e-10
-1.41721e-07
-1.4509e-15
-1.11441e-09
-1.3538e-07
-1.42394e-15
-1.41938e-09
-1.27598e-07
-1.3546e-15
-1.70661e-09
-1.18303e-07
-1.27605e-15
-1.96444e-09
-1.07428e-07
-1.1911e-15
-2.17833e-09
-9.49175e-08
-1.09869e-15
-2.3298e-09
-8.07229e-08
-9.97658e-16
-2.39571e-09
-6.4822e-08
-8.86034e-16
-2.34435e-09
-4.72142e-08
-7.61687e-16
-2.15483e-09
-2.79419e-08
-6.16309e-16
-1.8192e-09
-7.13138e-09
-4.37255e-16
-1.47747e-09
1.55355e-08
-2.11506e-16
-1.27679e-09
3.99668e-08
-1.28254e-16
-1.15926e-09
6.55103e-08
-9.3227e-17
-1.0921e-09
9.20723e-08
-6.99316e-17
-1.04037e-09
1.1953e-07
-5.14906e-17
-9.90423e-10
1.47443e-07
-3.39307e-17
-9.35648e-10
1.75429e-07
-1.28132e-17
-8.73178e-10
2.02846e-07
-2.34586e-18
-8.0186e-10
2.28979e-07
1.03937e-17
-7.21613e-10
2.52981e-07
1.68767e-17
-6.33249e-10
2.7361e-07
2.42864e-17
-5.3832e-10
2.89538e-07
1.72344e-17
-4.39169e-10
2.99089e-07
2.27259e-17
-3.39005e-10
3.00114e-07
2.62717e-17
-2.41942e-10
2.90022e-07
2.90627e-17
-1.53015e-10
2.65686e-07
3.20763e-17
-7.82034e-11
2.23082e-07
2.04748e-17
-2.41908e-11
1.57361e-07
1.57744e-17
6.22505e-08
1.17076e-17
7.70014e-12
-6.91925e-09
2.31798e-16
7.63488e-12
-2.10691e-08
-3.76217e-15
2.71463e-10
-3.54695e-08
-1.38756e-14
2.51806e-10
-4.9839e-08
-8.38377e-15
5.87095e-10
-6.75892e-08
-2.5391e-15
1.29071e-09
-8.66196e-08
-5.44124e-15
1.76766e-09
-8.19557e-08
-4.10851e-15
1.88102e-09
-7.18878e-08
-3.21427e-15
1.97744e-09
-8.15769e-08
-2.57462e-15
2.08046e-09
-9.13579e-08
-2.72803e-15
2.16289e-09
-9.875e-08
-2.60828e-15
2.22821e-09
-1.03767e-07
-2.64568e-15
2.28118e-09
-1.07164e-07
-2.4406e-15
2.31997e-09
-1.10202e-07
-2.301e-15
2.33498e-09
-1.13706e-07
-2.15138e-15
2.3196e-09
-1.17901e-07
-2.08953e-15
2.27164e-09
-1.2268e-07
-2.03747e-15
2.19227e-09
-1.27785e-07
-2.09556e-15
2.08385e-09
-1.32928e-07
-1.98423e-15
1.94896e-09
-1.37851e-07
-1.94958e-15
1.78972e-09
-1.42351e-07
-1.90876e-15
1.60772e-09
-1.46285e-07
-1.89557e-15
1.40409e-09
-1.49518e-07
-1.88875e-15
1.17967e-09
-1.51981e-07
-1.88538e-15
9.35258e-10
-1.53583e-07
-1.84429e-15
6.7179e-10
-1.54264e-07
-1.81219e-15
3.90577e-10
-1.53958e-07
-1.77227e-15
9.35105e-11
-1.52581e-07
-1.72657e-15
-2.16851e-10
-1.5009e-07
-1.68067e-15
-5.3699e-10
-1.46381e-07
-1.65084e-15
-8.62349e-10
-1.41396e-07
-1.48477e-15
-1.18712e-09
-1.35056e-07
-1.42901e-15
-1.50405e-09
-1.27281e-07
-1.35885e-15
-1.80417e-09
-1.18003e-07
-1.28048e-15
-2.07658e-09
-1.07155e-07
-1.19574e-15
-2.30813e-09
-9.46859e-08
-1.10343e-15
-2.48306e-09
-8.05479e-08
-1.00284e-15
-2.58385e-09
-6.47212e-08
-8.92404e-16
-2.59187e-09
-4.72061e-08
-7.7163e-16
-2.50719e-09
-2.80265e-08
-6.35071e-16
-2.36725e-09
-7.27129e-09
-4.76172e-16
-2.19928e-09
1.53675e-08
-2.99856e-16
-2.03045e-09
3.9798e-08
-2.0444e-16
-1.90098e-09
6.53808e-08
-1.536e-16
-1.80965e-09
9.19809e-08
-1.17677e-16
-1.73062e-09
1.19451e-07
-8.79579e-17
-1.65013e-09
1.47363e-07
-5.71205e-17
-1.56005e-09
1.75339e-07
-3.04956e-17
-1.45651e-09
2.02743e-07
-1.96519e-17
-1.33791e-09
2.2886e-07
-4.64804e-19
-1.20425e-09
2.52847e-07
1.04262e-17
-1.05693e-09
2.73462e-07
2.31901e-17
-8.98567e-10
2.8938e-07
1.24207e-17
-7.33051e-10
2.98923e-07
2.32798e-17
-5.65707e-10
2.99946e-07
3.04933e-17
-4.03374e-10
2.8986e-07
3.64265e-17
-2.54449e-10
2.65537e-07
4.2392e-17
-1.29025e-10
2.22957e-07
2.48643e-17
-3.87812e-11
1.57271e-07
1.92289e-17
6.22117e-08
1.11846e-17
8.9336e-12
-6.92818e-09
4.51613e-16
1.64877e-11
-2.10767e-08
-1.97024e-15
3.30974e-10
-3.5784e-08
-5.01523e-15
2.40953e-10
-4.97489e-08
-1.30419e-14
6.2088e-10
-6.79691e-08
-3.24019e-15
1.33623e-09
-8.7335e-08
-4.18826e-15
1.85807e-09
-8.24776e-08
-7.85426e-15
1.9421e-09
-7.19718e-08
-4.53789e-15
2.06089e-09
-8.16957e-08
-2.77285e-15
2.17969e-09
-9.14767e-08
-2.95708e-15
2.27167e-09
-9.8842e-08
-2.95555e-15
2.34425e-09
-1.03839e-07
-2.88531e-15
2.40506e-09
-1.07225e-07
-2.54385e-15
2.45203e-09
-1.10249e-07
-2.40116e-15
2.4729e-09
-1.13727e-07
-2.25318e-15
2.45846e-09
-1.17886e-07
-2.10732e-15
2.40539e-09
-1.22627e-07
-2.10388e-15
2.31533e-09
-1.27695e-07
-2.14459e-15
2.19204e-09
-1.32805e-07
-2.05388e-15
2.03977e-09
-1.37698e-07
-1.9844e-15
1.8621e-09
-1.42173e-07
-1.95846e-15
1.66163e-09
-1.46085e-07
-1.95079e-15
1.44009e-09
-1.49297e-07
-1.9361e-15
1.19858e-09
-1.5174e-07
-1.91948e-15
9.37887e-10
-1.53322e-07
-1.86884e-15
6.58845e-10
-1.53985e-07
-1.83255e-15
3.62564e-10
-1.53662e-07
-1.78938e-15
5.07251e-11
-1.52269e-07
-1.74111e-15
-2.74318e-10
-1.49765e-07
-1.69387e-15
-6.09242e-10
-1.46046e-07
-1.66041e-15
-9.49691e-10
-1.41055e-07
-1.492e-15
-1.2901e-09
-1.34715e-07
-1.4377e-15
-1.62353e-09
-1.26948e-07
-1.36705e-15
-1.94157e-09
-1.17685e-07
-1.28819e-15
-2.23419e-09
-1.06863e-07
-1.20321e-15
-2.48982e-09
-9.44303e-08
-1.11078e-15
-2.69559e-09
-8.03422e-08
-1.01065e-15
-2.83906e-09
-6.45778e-08
-9.01564e-16
-2.91118e-09
-4.7134e-08
-7.84369e-16
-2.92007e-09
-2.80176e-08
-6.5621e-16
-2.90677e-09
-7.28455e-09
-5.14957e-16
-2.85177e-09
1.53126e-08
-3.6774e-16
-2.7343e-09
3.96806e-08
-2.69898e-16
-2.61715e-09
6.52637e-08
-2.09045e-16
-2.5154e-09
9.18792e-08
-1.63335e-16
-2.41585e-09
1.19352e-07
-1.24038e-16
-2.30802e-09
1.47255e-07
-8.29287e-17
-2.18419e-09
1.75215e-07
-5.8157e-17
-2.04034e-09
2.02599e-07
-5.18021e-17
-1.87482e-09
2.28695e-07
-2.79064e-17
-1.6879e-09
2.5266e-07
-1.2965e-17
-1.48165e-09
2.73256e-07
5.15469e-18
-1.25977e-09
2.89158e-07
-9.79668e-18
-1.02772e-09
2.98691e-07
5.74258e-18
-7.92943e-10
2.99712e-07
1.67511e-17
-5.65e-10
2.89632e-07
2.66553e-17
-3.55684e-10
2.65327e-07
3.77059e-17
-1.79321e-10
2.2278e-07
1.68701e-17
-5.29452e-11
1.57144e-07
1.3279e-17
6.21588e-08
4.91334e-18
9.69214e-12
-6.93786e-09
5.99384e-16
2.61914e-11
-2.10932e-08
-5.64717e-15
3.58726e-10
-3.61166e-08
-5.92371e-15
1.90781e-10
-4.9581e-08
-1.74523e-14
6.16534e-10
-6.83948e-08
-2.21564e-15
1.31879e-09
-8.80372e-08
-8.62627e-16
1.91448e-09
-8.30732e-08
-6.40973e-15
2.01119e-09
-7.20685e-08
-3.56304e-15
2.12924e-09
-8.18137e-08
-2.8936e-15
2.25004e-09
-9.15975e-08
-3.12833e-15
2.34542e-09
-9.89374e-08
-3.15307e-15
2.42238e-09
-1.03916e-07
-3.06126e-15
2.48943e-09
-1.07292e-07
-2.69265e-15
2.54429e-09
-1.10304e-07
-2.59694e-15
2.57328e-09
-1.13756e-07
-2.37773e-15
2.5648e-09
-1.17878e-07
-2.2268e-15
2.51349e-09
-1.22576e-07
-2.20892e-15
2.42007e-09
-1.27601e-07
-2.17442e-15
2.28856e-09
-1.32673e-07
-2.1366e-15
2.12409e-09
-1.37534e-07
-2.03544e-15
1.93138e-09
-1.4198e-07
-1.99053e-15
1.7141e-09
-1.45868e-07
-1.98395e-15
1.47481e-09
-1.49057e-07
-1.97e-15
1.21514e-09
-1.5148e-07
-1.95001e-15
9.36226e-10
-1.53043e-07
-1.8923e-15
6.38999e-10
-1.53688e-07
-1.85152e-15
3.24567e-10
-1.53348e-07
-1.80581e-15
-5.46453e-12
-1.51939e-07
-1.75597e-15
-3.48865e-10
-1.49421e-07
-1.70822e-15
-7.02455e-10
-1.45693e-07
-1.67568e-15
-1.06205e-09
-1.40696e-07
-1.50243e-15
-1.42232e-09
-1.34355e-07
-1.44783e-15
-1.77668e-09
-1.26593e-07
-1.37683e-15
-2.11725e-09
-1.17344e-07
-1.29756e-15
-2.43493e-09
-1.06545e-07
-1.21246e-15
-2.71965e-09
-9.41456e-08
-1.12013e-15
-2.96106e-09
-8.01007e-08
-1.02076e-15
-3.15055e-09
-6.43883e-08
-9.13331e-16
-3.28468e-09
-4.69999e-08
-7.99407e-16
-3.37276e-09
-2.79296e-08
-6.77895e-16
-3.44631e-09
-7.21095e-09
-5.49014e-16
-3.46916e-09
1.53354e-08
-4.19991e-16
-3.40541e-09
3.96169e-08
-3.23353e-16
-3.31179e-09
6.51701e-08
-2.56088e-16
-3.20943e-09
9.17768e-08
-2.02981e-16
-3.09541e-09
1.19238e-07
-1.56317e-16
-2.96353e-09
1.47123e-07
-1.08145e-16
-2.8077e-09
1.75059e-07
-9.32047e-17
-2.62445e-09
2.02415e-07
-9.35827e-17
-2.41247e-09
2.28483e-07
-6.56703e-17
-2.17248e-09
2.5242e-07
-4.71341e-17
-1.90734e-09
2.72991e-07
-2.45098e-17
-1.62187e-09
2.88872e-07
-4.45723e-17
-1.32314e-09
2.98393e-07
-2.50843e-17
-1.02071e-09
2.99409e-07
-1.06784e-17
-7.26868e-10
2.89338e-07
3.54514e-18
-4.56857e-10
2.65057e-07
2.09751e-17
-2.29335e-10
2.22553e-07
-8.2835e-19
-6.68895e-11
1.56982e-07
6.4618e-19
6.20919e-08
-4.84118e-18
1.02234e-11
-6.94808e-09
8.35002e-16
3.79984e-11
-2.1121e-08
-3.61127e-15
3.55288e-10
-3.64338e-08
-2.90511e-15
1.24763e-10
-4.93504e-08
-1.90389e-14
6.04485e-10
-6.88745e-08
-3.40801e-15
1.30335e-09
-8.87361e-08
-4.48117e-15
1.95504e-09
-8.37249e-08
-4.73988e-15
2.04069e-09
-7.21542e-08
-2.32607e-15
2.16408e-09
-8.19371e-08
-3.17542e-15
2.29338e-09
-9.17268e-08
-3.41833e-15
2.39928e-09
-9.90433e-08
-3.39709e-15
2.48628e-09
-1.04003e-07
-3.28351e-15
2.56203e-09
-1.07368e-07
-2.89862e-15
2.62405e-09
-1.10366e-07
-2.78259e-15
2.65879e-09
-1.13791e-07
-2.49571e-15
2.65384e-09
-1.17873e-07
-2.38868e-15
2.60288e-09
-1.22525e-07
-2.33567e-15
2.50599e-09
-1.27504e-07
-2.24082e-15
2.36712e-09
-1.32534e-07
-2.21611e-15
2.19186e-09
-1.37359e-07
-2.13627e-15
1.98563e-09
-1.41774e-07
-2.07573e-15
1.7528e-09
-1.45635e-07
-2.04722e-15
1.49656e-09
-1.48801e-07
-2.01699e-15
1.21896e-09
-1.51202e-07
-1.98624e-15
9.21415e-10
-1.52745e-07
-1.92044e-15
6.04998e-10
-1.53372e-07
-1.87548e-15
2.7086e-10
-1.53013e-07
-1.827e-15
-7.94091e-11
-1.51589e-07
-1.77498e-15
-4.43634e-10
-1.49057e-07
-1.72614e-15
-8.18716e-10
-1.45317e-07
-1.69321e-15
-1.20059e-09
-1.40314e-07
-1.51456e-15
-1.58411e-09
-1.33971e-07
-1.45962e-15
-1.96298e-09
-1.26214e-07
-1.38809e-15
-2.32982e-09
-1.16978e-07
-1.3083e-15
-2.67632e-09
-1.06199e-07
-1.22306e-15
-2.99368e-09
-9.38282e-08
-1.13099e-15
-3.27348e-09
-7.98209e-08
-1.0327e-15
-3.50958e-09
-6.41522e-08
-9.27208e-16
-3.70103e-09
-4.68084e-08
-8.16397e-16
-3.8551e-09
-2.77755e-08
-7.00128e-16
-3.99134e-09
-7.07467e-09
-5.79697e-16
-4.07113e-09
1.54152e-08
-4.61727e-16
-4.05663e-09
3.96024e-08
-3.66459e-16
-3.99037e-09
6.51038e-08
-2.94677e-16
-3.89345e-09
9.16799e-08
-2.3596e-16
-3.76959e-09
1.19114e-07
-1.84014e-16
-3.61659e-09
1.4697e-07
-1.3227e-16
-3.43045e-09
1.74873e-07
-1.28238e-16
-3.20873e-09
2.02194e-07
-1.35223e-16
-2.95078e-09
2.28225e-07
-1.03171e-16
-2.65793e-09
2.52127e-07
-8.12123e-17
-2.33394e-09
2.72667e-07
-5.47852e-17
-1.98484e-09
2.88523e-07
-8.11112e-17
-1.61929e-09
2.98027e-07
-5.90603e-17
-1.249e-09
2.99039e-07
-4.25512e-17
-8.89025e-10
2.88978e-07
-2.49068e-17
-5.58072e-10
2.64726e-07
-1.28048e-18
-2.79222e-10
2.22274e-07
-2.33131e-17
-8.07208e-11
1.56783e-07
-1.53509e-17
6.20112e-08
-1.62856e-17
1.06973e-11
-6.95878e-09
5.63657e-16
4.85851e-11
-2.11589e-08
-5.52476e-15
3.13798e-10
-3.66991e-08
-4.06303e-15
4.46833e-11
-4.90813e-08
-1.97995e-14
5.74108e-10
-6.9404e-08
-1.94638e-15
1.27226e-09
-8.94342e-08
-1.84361e-15
1.97887e-09
-8.44315e-08
-2.60683e-15
2.07123e-09
-7.22466e-08
-2.61628e-15
2.19213e-09
-8.2058e-08
-3.66697e-15
2.32313e-09
-9.18578e-08
-3.79184e-15
2.4343e-09
-9.91544e-08
-3.76508e-15
2.52698e-09
-1.04096e-07
-3.58699e-15
2.60747e-09
-1.07448e-07
-3.16469e-15
2.67307e-09
-1.10431e-07
-2.9613e-15
2.71091e-09
-1.13829e-07
-2.64602e-15
2.70838e-09
-1.1787e-07
-2.53776e-15
2.65841e-09
-1.22475e-07
-2.46033e-15
2.56014e-09
-1.27406e-07
-2.3382e-15
2.41694e-09
-1.32391e-07
-2.29345e-15
2.2342e-09
-1.37176e-07
-2.22994e-15
2.01753e-09
-1.41557e-07
-2.16256e-15
1.77167e-09
-1.45389e-07
-2.11529e-15
1.50023e-09
-1.4853e-07
-2.06637e-15
1.20567e-09
-1.50908e-07
-2.02356e-15
8.89712e-10
-1.5243e-07
-1.94887e-15
5.53635e-10
-1.53036e-07
-1.89953e-15
1.98726e-10
-1.52658e-07
-1.84874e-15
-1.73351e-10
-1.51217e-07
-1.79506e-15
-5.60391e-10
-1.4867e-07
-1.74552e-15
-9.59299e-10
-1.44919e-07
-1.71251e-15
-1.36606e-09
-1.39907e-07
-1.52795e-15
-1.77563e-09
-1.33562e-07
-1.47253e-15
-2.18195e-09
-1.25808e-07
-1.40042e-15
-2.578e-09
-1.16582e-07
-1.32007e-15
-2.95612e-09
-1.05821e-07
-1.2347e-15
-3.30843e-09
-9.34759e-08
-1.14305e-15
-3.6278e-09
-7.95015e-08
-1.04601e-15
-3.90937e-09
-6.38706e-08
-9.42638e-16
-4.15269e-09
-4.65651e-08
-8.34809e-16
-4.36178e-09
-2.75664e-08
-7.22776e-16
-4.54599e-09
-6.89041e-09
-6.08167e-16
-4.6696e-09
1.55388e-08
-4.96852e-16
-4.69759e-09
3.96304e-08
-4.0236e-16
-4.65838e-09
6.50647e-08
-3.26977e-16
-4.56993e-09
9.15915e-08
-2.63758e-16
-4.43937e-09
1.18983e-07
-2.0801e-16
-4.26754e-09
1.46798e-07
-1.53527e-16
-4.05256e-09
1.74658e-07
-1.57302e-16
-3.79321e-09
2.01934e-07
-1.68448e-16
-3.48973e-09
2.27921e-07
-1.3192e-16
-3.14422e-09
2.51782e-07
-1.06854e-16
-2.76144e-09
2.72284e-07
-7.73035e-17
-2.34864e-09
2.88111e-07
-1.10854e-16
-1.91615e-09
2.97595e-07
-8.7407e-17
-1.47783e-09
2.98601e-07
-7.00402e-17
-1.05151e-09
2.88552e-07
-5.01651e-17
-6.59413e-10
2.64334e-07
-2.12936e-17
-3.291e-10
2.21943e-07
-4.42994e-17
-9.45248e-11
1.56549e-07
-3.02457e-17
6.19167e-08
-2.66614e-17
1.11432e-11
-6.96992e-09
7.51098e-16
5.86437e-11
-2.12064e-08
-3.8856e-15
2.44654e-10
-3.68851e-08
-7.07809e-15
-2.75232e-11
-4.88091e-08
-1.94646e-14
5.39903e-10
-6.99714e-08
-3.12382e-15
1.23783e-09
-9.01321e-08
-1.34534e-15
1.97875e-09
-8.51724e-08
-4.88975e-15
2.08106e-09
-7.23489e-08
-4.84834e-15
2.20384e-09
-8.21808e-08
-4.53473e-15
2.33735e-09
-9.19913e-08
-4.31961e-15
2.45318e-09
-9.92703e-08
-4.24926e-15
2.55017e-09
-1.04193e-07
-3.97824e-15
2.63329e-09
-1.07532e-07
-3.55068e-15
2.69965e-09
-1.10498e-07
-3.28084e-15
2.73744e-09
-1.13867e-07
-2.92714e-15
2.73451e-09
-1.17867e-07
-2.76318e-15
2.68364e-09
-1.22424e-07
-2.61374e-15
2.58334e-09
-1.27306e-07
-2.47801e-15
2.43634e-09
-1.32244e-07
-2.40188e-15
2.24756e-09
-1.36987e-07
-2.28569e-15
2.02236e-09
-1.41332e-07
-2.20681e-15
1.76546e-09
-1.45132e-07
-2.16188e-15
1.48059e-09
-1.48245e-07
-2.11202e-15
1.1704e-09
-1.50598e-07
-2.06654e-15
8.36776e-10
-1.52096e-07
-1.98637e-15
4.81188e-10
-1.5268e-07
-1.93193e-15
1.05076e-10
-1.52282e-07
-1.87697e-15
-2.89767e-10
-1.50822e-07
-1.81965e-15
-7.01033e-10
-1.48259e-07
-1.76799e-15
-1.12554e-09
-1.44494e-07
-1.73391e-15
-1.55924e-09
-1.39473e-07
-1.54252e-15
-1.99711e-09
-1.33124e-07
-1.48634e-15
-2.43318e-09
-1.25372e-07
-1.41352e-15
-2.86069e-09
-1.16154e-07
-1.33255e-15
-3.27237e-09
-1.05409e-07
-1.24708e-15
-3.66094e-09
-9.30873e-08
-1.15591e-15
-4.01997e-09
-7.91425e-08
-1.06023e-15
-4.34502e-09
-6.35456e-08
-9.59012e-16
-4.63492e-09
-4.62751e-08
-8.54027e-16
-4.89038e-09
-2.73109e-08
-7.45594e-16
-5.11314e-09
-6.66758e-09
-6.35301e-16
-5.27178e-09
1.56975e-08
-5.28252e-16
-5.33536e-09
3.96941e-08
-4.34101e-16
-5.32076e-09
6.50501e-08
-3.55676e-16
-5.2416e-09
9.15123e-08
-2.88592e-16
-5.10608e-09
1.18848e-07
-2.29718e-16
-4.917e-09
1.46609e-07
-1.72818e-16
-4.6743e-09
1.74415e-07
-1.7975e-16
-4.37802e-09
2.01638e-07
-1.92553e-16
-4.02938e-09
2.27573e-07
-1.50379e-16
-3.63138e-09
2.51384e-07
-1.21388e-16
-3.18982e-09
2.71843e-07
-8.81488e-17
-2.71327e-09
2.87634e-07
-1.28745e-16
-2.21371e-09
2.97095e-07
-1.04205e-16
-1.7072e-09
2.98094e-07
-8.67135e-17
-1.21436e-09
2.88059e-07
-6.57216e-17
-7.6094e-10
2.63881e-07
-3.29848e-17
-3.79046e-10
2.21562e-07
-5.85119e-17
-1.08351e-10
1.56278e-07
-3.97806e-17
6.18083e-08
-3.26532e-17
1.1659e-11
-6.98157e-09
8.56951e-16
6.53601e-11
-2.12601e-08
-4.76272e-15
1.53251e-10
-3.6973e-08
-9.63098e-15
-8.72543e-11
-4.85686e-08
-1.63556e-14
5.006e-10
-7.05593e-08
-1.64497e-15
1.19977e-09
-9.08313e-08
-2.62377e-15
1.95914e-09
-8.59318e-08
-3.40698e-15
2.08346e-09
-7.24732e-08
-6.26906e-15
2.20705e-09
-8.23044e-08
-5.35775e-15
2.33938e-09
-9.21236e-08
-4.92514e-15
2.45518e-09
-9.93861e-08
-4.82528e-15
2.5518e-09
-1.0429e-07
-4.53084e-15
2.63336e-09
-1.07613e-07
-3.97889e-15
2.69701e-09
-1.10561e-07
-3.64851e-15
2.73205e-09
-1.13902e-07
-3.21737e-15
2.72692e-09
-1.17862e-07
-2.93806e-15
2.67436e-09
-1.22371e-07
-2.76279e-15
2.57225e-09
-1.27204e-07
-2.5875e-15
2.42254e-09
-1.32095e-07
-2.47332e-15
2.22939e-09
-1.36794e-07
-2.36893e-15
1.99764e-09
-1.411e-07
-2.27945e-15
1.73168e-09
-1.44866e-07
-2.21679e-15
1.43513e-09
-1.47948e-07
-2.1527e-15
1.11063e-09
-1.50273e-07
-2.10019e-15
7.6018e-10
-1.51745e-07
-2.01569e-15
3.85394e-10
-1.52305e-07
-1.95887e-15
-1.21259e-11
-1.51885e-07
-1.90257e-15
-4.30411e-10
-1.50404e-07
-1.84348e-15
-8.66982e-10
-1.47822e-07
-1.79085e-15
-1.3185e-09
-1.44043e-07
-1.75612e-15
-1.78078e-09
-1.39011e-07
-1.55788e-15
-2.24872e-09
-1.32656e-07
-1.50067e-15
-2.71632e-09
-1.24904e-07
-1.42709e-15
-3.17692e-09
-1.15693e-07
-1.34545e-15
-3.62343e-09
-1.04962e-07
-1.25986e-15
-4.04885e-09
-9.26619e-08
-1.1692e-15
-4.44694e-09
-7.87444e-08
-1.07485e-15
-4.81307e-09
-6.31795e-08
-9.75728e-16
-5.14482e-09
-4.59434e-08
-8.73396e-16
-5.4399e-09
-2.70159e-08
-7.68159e-16
-5.6948e-09
-6.41262e-09
-6.61413e-16
-5.88218e-09
1.58849e-08
-5.57485e-16
-5.97509e-09
3.9787e-08
-4.6357e-16
-5.98166e-09
6.50567e-08
-3.82596e-16
-5.91114e-09
9.14418e-08
-3.12093e-16
-5.77125e-09
1.18708e-07
-2.50418e-16
-5.5658e-09
1.46404e-07
-1.9e-16
-5.2961e-09
1.74146e-07
-1.96386e-16
-4.96338e-09
2.01306e-07
-2.08939e-16
-4.56984e-09
2.27179e-07
-1.6074e-16
-4.11946e-09
2.50933e-07
-1.27488e-16
-3.61911e-09
2.71342e-07
-9.00609e-17
-3.07873e-09
2.87094e-07
-1.37168e-16
-2.51198e-09
2.96528e-07
-1.11206e-16
-1.93712e-09
2.97519e-07
-9.35533e-17
-1.37758e-09
2.87499e-07
-7.18408e-17
-8.627e-10
2.63366e-07
-3.60679e-17
-4.29115e-10
2.21128e-07
-6.55629e-17
-1.22233e-10
1.55971e-07
-4.37679e-17
6.16861e-08
-3.45077e-17
1.22867e-11
-6.99386e-09
5.4585e-16
6.80273e-11
-2.13158e-08
-3.37313e-15
5.34117e-11
-3.69584e-08
-1.16895e-14
-1.24769e-10
-4.83904e-08
-1.54975e-14
4.62132e-10
-7.11462e-08
-1.03923e-15
1.1611e-09
-9.15303e-08
-1.65588e-15
1.91918e-09
-8.66899e-08
-3.68079e-15
2.06832e-09
-7.26223e-08
-6.33896e-15
2.19478e-09
-8.24308e-08
-6.57865e-15
2.32506e-09
-9.22539e-08
-5.83812e-15
2.43824e-09
-9.94993e-08
-5.47643e-15
2.53153e-09
-1.04383e-07
-5.1856e-15
2.60872e-09
-1.0769e-07
-4.46883e-15
2.66723e-09
-1.1062e-07
-4.01511e-15
2.69746e-09
-1.13932e-07
-3.51861e-15
2.68852e-09
-1.17853e-07
-3.11951e-15
2.63324e-09
-1.22316e-07
-2.95583e-15
2.52897e-09
-1.27099e-07
-2.73305e-15
2.37687e-09
-1.31942e-07
-2.58407e-15
2.18026e-09
-1.36597e-07
-2.46315e-15
1.94322e-09
-1.40863e-07
-2.36173e-15
1.66961e-09
-1.44593e-07
-2.29034e-15
1.3627e-09
-1.47641e-07
-2.2163e-15
1.02498e-09
-1.49935e-07
-2.1554e-15
6.58434e-10
-1.51379e-07
-2.06237e-15
2.64753e-10
-1.51912e-07
-1.99797e-15
-1.543e-10
-1.51466e-07
-1.9359e-15
-5.96554e-10
-1.49962e-07
-1.87177e-15
-1.05931e-09
-1.4736e-07
-1.81581e-15
-1.53898e-09
-1.43563e-07
-1.77847e-15
-2.03116e-09
-1.38519e-07
-1.57322e-15
-2.53057e-09
-1.32157e-07
-1.51522e-15
-3.03107e-09
-1.24404e-07
-1.4408e-15
-3.5259e-09
-1.15199e-07
-1.35847e-15
-4.00798e-09
-1.0448e-07
-1.27276e-15
-4.47027e-09
-9.21996e-08
-1.1826e-15
-4.90641e-09
-7.83082e-08
-1.0895e-15
-5.31118e-09
-6.27747e-08
-9.92301e-16
-5.68066e-09
-4.55739e-08
-8.92361e-16
-6.01008e-09
-2.66864e-08
-7.89974e-16
-6.29242e-09
-6.13021e-09
-6.86344e-16
-6.50378e-09
1.60963e-08
-5.84996e-16
-6.62051e-09
3.99038e-08
-4.91417e-16
-6.6445e-09
6.50807e-08
-4.08402e-16
-6.58103e-09
9.13783e-08
-3.34875e-16
-6.43646e-09
1.18564e-07
-2.70377e-16
-6.21487e-09
1.46182e-07
-2.06138e-16
-5.9185e-09
1.73849e-07
-2.1015e-16
-5.54957e-09
2.00937e-07
-2.22022e-16
-5.11127e-09
2.26741e-07
-1.67358e-16
-4.60851e-09
2.50431e-07
-1.29045e-16
-4.04934e-09
2.70783e-07
-8.63083e-17
-3.44502e-09
2.86489e-07
-1.38751e-16
-2.81095e-09
2.95894e-07
-1.10342e-16
-2.1676e-09
2.96876e-07
-9.1823e-17
-1.54121e-09
2.86873e-07
-6.91512e-17
-9.64723e-10
2.6279e-07
-3.06916e-17
-4.79344e-10
2.20643e-07
-6.50888e-17
-1.36191e-10
1.55628e-07
-4.15037e-17
6.15499e-08
-3.1085e-17
1.30183e-11
-7.00688e-09
8.71592e-16
6.56676e-11
-2.13685e-08
-3.1326e-15
-4.16376e-11
-3.68511e-08
-1.69762e-14
-1.40774e-10
-4.82912e-08
-8.93768e-15
4.24191e-10
-7.17111e-08
-2.00778e-16
1.12157e-09
-9.22276e-08
-3.2874e-15
1.86519e-09
-8.74335e-08
-3.77577e-15
2.03905e-09
-7.27962e-08
-4.64198e-15
2.16678e-09
-8.25585e-08
-6.91715e-15
2.29244e-09
-9.23796e-08
-6.75761e-15
2.39944e-09
-9.96063e-08
-6.3172e-15
2.48606e-09
-1.04469e-07
-5.90851e-15
2.55614e-09
-1.0776e-07
-5.0567e-15
2.60764e-09
-1.10671e-07
-4.44584e-15
2.63187e-09
-1.13956e-07
-3.86525e-15
2.61853e-09
-1.1784e-07
-3.36681e-15
2.56041e-09
-1.22258e-07
-3.16523e-15
2.4543e-09
-1.26993e-07
-2.88207e-15
2.30049e-09
-1.31789e-07
-2.71278e-15
2.10134e-09
-1.36398e-07
-2.55229e-15
1.86008e-09
-1.40622e-07
-2.42765e-15
1.5799e-09
-1.44312e-07
-2.33873e-15
1.26359e-09
-1.47325e-07
-2.25231e-15
9.1339e-10
-1.49585e-07
-2.18608e-15
5.31177e-10
-1.50997e-07
-2.09081e-15
1.18697e-10
-1.51499e-07
-2.02509e-15
-3.22136e-10
-1.51025e-07
-1.96247e-15
-7.88921e-10
-1.49495e-07
-1.89663e-15
-1.27868e-09
-1.4687e-07
-1.83945e-15
-1.78752e-09
-1.43054e-07
-1.80158e-15
-2.31074e-09
-1.37996e-07
-1.58802e-15
-2.84274e-09
-1.31625e-07
-1.52982e-15
-3.37716e-09
-1.23869e-07
-1.45451e-15
-3.907e-09
-1.14669e-07
-1.37142e-15
-4.42497e-09
-1.03962e-07
-1.28557e-15
-4.92382e-09
-9.17007e-08
-1.19586e-15
-5.39675e-09
-7.78353e-08
-1.10388e-15
-5.83774e-09
-6.23337e-08
-1.00838e-15
-6.24141e-09
-4.51702e-08
-9.10523e-16
-6.60098e-09
-2.63269e-08
-8.10637e-16
-6.9071e-09
-5.82401e-09
-7.09771e-16
-7.13857e-09
1.63278e-08
-6.10672e-16
-7.2744e-09
4.00397e-08
-5.17565e-16
-7.31205e-09
6.51184e-08
-4.32987e-16
-7.25345e-09
9.13198e-08
-3.56831e-16
-7.10321e-09
1.18414e-07
-2.89606e-16
-6.86517e-09
1.45944e-07
-2.20872e-16
-6.54208e-09
1.73526e-07
-2.2295e-16
-6.13695e-09
2.00532e-07
-2.34759e-16
-5.65384e-09
2.26258e-07
-1.74308e-16
-5.09865e-09
2.49876e-07
-1.31036e-16
-4.48054e-09
2.70165e-07
-8.25322e-17
-3.81215e-09
2.85821e-07
-1.39486e-16
-3.11061e-09
2.95193e-07
-1.07619e-16
-2.39862e-09
2.96164e-07
-8.72408e-17
-1.70525e-09
2.8618e-07
-6.28566e-17
-1.06703e-09
2.62151e-07
-2.136e-17
-5.29752e-10
2.20105e-07
-6.08166e-17
-1.50233e-10
1.55249e-07
-3.59652e-17
6.13996e-08
-2.5155e-17
1.37676e-11
-7.02065e-09
3.41592e-16
6.05355e-11
-2.14152e-08
-2.04873e-15
-1.14453e-10
-3.66761e-08
-1.60242e-14
-1.4083e-10
-4.82649e-08
-1.19196e-14
3.88134e-10
-7.22401e-08
3.09844e-16
1.08072e-09
-9.29202e-08
-2.07205e-15
1.80168e-09
-8.81544e-08
-3.6005e-15
1.99151e-09
-7.2986e-08
-5.53334e-15
2.11808e-09
-8.26851e-08
-6.62029e-15
2.23703e-09
-9.24986e-08
-7.22245e-15
2.3354e-09
-9.97046e-08
-7.12938e-15
2.41339e-09
-1.04547e-07
-6.47092e-15
2.47509e-09
-1.07822e-07
-5.61462e-15
2.519e-09
-1.10715e-07
-4.92304e-15
2.53712e-09
-1.13974e-07
-4.19667e-15
2.51956e-09
-1.17822e-07
-3.64582e-15
2.45896e-09
-1.22197e-07
-3.37443e-15
2.35149e-09
-1.26886e-07
-3.0303e-15
2.19653e-09
-1.31634e-07
-2.83313e-15
1.99546e-09
-1.36197e-07
-2.67212e-15
1.75062e-09
-1.40377e-07
-2.53054e-15
1.46444e-09
-1.44026e-07
-2.42297e-15
1.13918e-09
-1.47e-07
-2.32036e-15
7.76742e-10
-1.49223e-07
-2.24289e-15
3.78876e-10
-1.50599e-07
-2.13831e-15
-5.26492e-11
-1.51068e-07
-2.06448e-15
-5.15757e-10
-1.50562e-07
-1.99593e-15
-1.00779e-09
-1.49003e-07
-1.92475e-15
-1.52543e-09
-1.46352e-07
-1.86402e-15
-2.06445e-09
-1.42515e-07
-1.82223e-15
-2.61971e-09
-1.3744e-07
-1.60344e-15
-3.18527e-09
-1.31059e-07
-1.54434e-15
-3.75439e-09
-1.233e-07
-1.46785e-15
-4.31972e-09
-1.14103e-07
-1.38404e-15
-4.87363e-09
-1.03408e-07
-1.29805e-15
-5.40845e-09
-9.11659e-08
-1.20878e-15
-5.91679e-09
-7.73269e-08
-1.11778e-15
-6.39175e-09
-6.18587e-08
-1.02376e-15
-6.82653e-09
-4.47354e-08
-9.27657e-16
-7.2128e-09
-2.59406e-08
-8.29909e-16
-7.53967e-09
-5.49706e-09
-7.31448e-16
-7.78799e-09
1.65761e-08
-6.34297e-16
-7.93878e-09
4.01906e-08
-5.41738e-16
-7.98646e-09
6.51661e-08
-4.55985e-16
-7.93025e-09
9.12635e-08
-3.77583e-16
-7.77288e-09
1.18256e-07
-3.07638e-16
-7.51764e-09
1.45689e-07
-2.34584e-16
-7.16743e-09
1.73176e-07
-2.3582e-16
-6.72586e-09
2.0009e-07
-2.48805e-16
-6.19778e-09
2.2573e-07
-1.83203e-16
-5.58999e-09
2.49268e-07
-1.35127e-16
-4.91277e-09
2.69488e-07
-8.0514e-17
-4.18014e-09
2.85088e-07
-1.41304e-16
-3.41099e-09
2.94424e-07
-1.05096e-16
-2.6302e-09
2.95383e-07
-8.19154e-17
-1.8697e-09
2.85419e-07
-5.49854e-17
-1.16963e-09
2.61451e-07
-9.98287e-18
-5.80352e-10
2.19516e-07
-5.40861e-17
-1.64364e-10
1.54833e-07
-2.79833e-17
6.12353e-08
-1.66307e-17
1.44206e-11
-7.03507e-09
4.55444e-16
5.5185e-11
-2.1456e-08
-2.16808e-15
-1.5804e-10
-3.64629e-08
-2.02963e-14
-1.38413e-10
-4.82845e-08
-8.2429e-15
3.51402e-10
-7.27299e-08
-1.15513e-15
1.03591e-09
-9.36047e-08
-4.42875e-15
1.73398e-09
-8.88525e-08
-5.25556e-15
1.92686e-09
-7.31789e-08
-6.53574e-15
2.04735e-09
-8.28056e-08
-7.2425e-15
2.15637e-09
-9.26076e-08
-8.08828e-15
2.24361e-09
-9.97919e-08
-7.91433e-15
2.31163e-09
-1.04615e-07
-7.10249e-15
2.36461e-09
-1.07875e-07
-6.14909e-15
2.40142e-09
-1.10752e-07
-5.28195e-15
2.41435e-09
-1.13987e-07
-4.48931e-15
2.39368e-09
-1.17802e-07
-3.89842e-15
2.33168e-09
-1.22135e-07
-3.5836e-15
2.22378e-09
-1.26778e-07
-3.18489e-15
2.06842e-09
-1.31478e-07
-2.97241e-15
1.86599e-09
-1.35995e-07
-2.76718e-15
1.61792e-09
-1.40129e-07
-2.59981e-15
1.32588e-09
-1.43734e-07
-2.47012e-15
9.91601e-10
-1.46666e-07
-2.35221e-15
6.16649e-10
-1.48848e-07
-2.26962e-15
2.02643e-10
-1.50185e-07
-2.1639e-15
-2.48605e-10
-1.50616e-07
-2.08944e-15
-7.34831e-10
-1.50076e-07
-2.0207e-15
-1.25308e-09
-1.48485e-07
-1.94789e-15
-1.79966e-09
-1.45806e-07
-1.88598e-15
-2.36989e-09
-1.41945e-07
-1.84285e-15
-2.9582e-09
-1.36852e-07
-1.62142e-15
-3.55817e-09
-1.30459e-07
-1.5586e-15
-4.16261e-09
-1.22696e-07
-1.48072e-15
-4.76372e-09
-1.13502e-07
-1.39615e-15
-5.3534e-09
-1.02819e-07
-1.31007e-15
-5.92343e-09
-9.05959e-08
-1.22119e-15
-6.46576e-09
-7.67846e-08
-1.13105e-15
-6.97256e-09
-6.1352e-08
-1.0383e-15
-7.43576e-09
-4.42721e-08
-9.43656e-16
-7.84579e-09
-2.55306e-08
-8.47703e-16
-8.19077e-09
-5.15199e-09
-7.51282e-16
-8.45305e-09
1.68384e-08
-6.55776e-16
-8.61516e-09
4.03528e-08
-5.63755e-16
-8.66947e-09
6.52205e-08
-4.77109e-16
-8.61299e-09
9.12071e-08
-3.96777e-16
-8.44673e-09
1.1809e-07
-3.24275e-16
-8.17316e-09
1.45415e-07
-2.46764e-16
-7.79515e-09
1.72798e-07
-2.49224e-16
-7.31668e-09
1.99612e-07
-2.64747e-16
-6.7433e-09
2.25156e-07
-1.95096e-16
-6.08262e-09
2.48607e-07
-1.42964e-16
-5.34607e-09
2.68751e-07
-8.25738e-17
-4.54902e-09
2.84291e-07
-1.47143e-16