/*--------------------------------*- C++ -*----------------------------------*\
| =========                 |                                                 |
| \\      /  F ield         | OpenFOAM: The Open Source CFD Toolbox           |
|  \\    /   O peration     | Version:  v2012                                 |
|   \\  /    A nd           | Website:  www.openfoam.com                      |
|    \\/     M anipulation  |                                                 |
\*---------------------------------------------------------------------------*/
FoamFile
{
    version     2.0;
    format      ascii;
    class       volVectorField;
    location    "0.85";
    object      U;
}
// * * * * * * * * * * * * * * * * * * * * * * * * * * * * * * * * * * * * * //

dimensions      [0 1 -1 0 0 0 0];


internalField   nonuniform List<vector> 
20000
(
(-0.020377 -43.7333 0.000177823)
(0.0573798 -42.637 -0.000500865)
(-0.0634499 -40.355 0.000553582)
(0.184363 -39.0839 -0.00160934)
(-0.0232941 -38.7831 0.000203158)
(0.320686 -38.2449 -0.00279847)
(0.320769 -29.4478 -0.00279913)
(0.330552 -21.537 -0.00287052)
(0.293073 -20.512 -0.0025547)
(0.272334 -19.5384 -0.00237584)
(0.253907 -18.182 -0.00221577)
(0.237627 -16.5969 -0.00207404)
(0.221919 -14.9991 -0.00193701)
(0.2069 -13.5842 -0.00180597)
(0.191998 -12.4116 -0.00167592)
(0.177183 -11.4507 -0.00154663)
(0.162322 -10.6444 -0.00141693)
(0.147483 -9.93988 -0.00128742)
(0.132671 -9.29859 -0.00115815)
(0.117955 -8.69601 -0.00102971)
(0.103391 -8.11841 -0.000902591)
(0.0890477 -7.55904 -0.000777402)
(0.0749889 -7.01526 -0.000654695)
(0.0612768 -6.4865 -0.000535012)
(0.0479682 -5.97309 -0.000418849)
(0.0351185 -5.47563 -0.00030669)
(0.0227833 -4.99463 -0.000199021)
(0.0110225 -4.53052 -9.63638e-05)
(-9.80324e-05 -4.08351 7.07456e-07)
(-0.0105028 -3.65369 9.15337e-05)
(-0.0201043 -3.24108 0.000175352)
(-0.0288016 -2.84564 0.000251279)
(-0.0364769 -2.46732 0.000318291)
(-0.0429934 -2.1061 0.000375192)
(-0.0481903 -1.76199 0.000420581)
(-0.0518729 -1.43503 0.000452759)
(-0.0538061 -1.1253 0.000469676)
(-0.0536467 -0.833004 0.000468349)
(-0.0510361 -0.558329 0.000445629)
(-0.0447253 -0.302088 0.000390838)
(-0.0360257 -0.0645784 0.000314867)
(-0.0126313 0.152965 0.000110107)
(-0.00958505 0.349974 8.34779e-05)
(-0.00730127 0.528491 6.37528e-05)
(-0.00642334 0.687379 5.60726e-05)
(-0.00581834 0.826787 5.07982e-05)
(-0.00531565 0.94596 4.64098e-05)
(-0.00483573 1.04422 4.22205e-05)
(-0.00435686 1.12082 3.80404e-05)
(-0.00387101 1.17491 3.37995e-05)
(-0.00337835 1.20552 2.9499e-05)
(-0.00288299 1.21152 2.5175e-05)
(-0.00239189 1.19162 2.08879e-05)
(-0.00191401 1.1443 1.67161e-05)
(-0.00145998 1.06775 1.27522e-05)
(-0.00104239 0.959859 9.10605e-06)
(-0.000674204 0.818069 5.8908e-06)
(-0.000370967 0.639291 3.24207e-06)
(-0.000144487 0.419691 1.26395e-06)
(-1.21325e-05 0.154607 1.25888e-07)
(0.00196173 -43.7987 -1.71336e-05)
(0.0290834 -42.615 -0.000253923)
(-0.0234443 -40.5705 0.000204554)
(0.230228 -39.1994 -0.00200974)
(-0.0249219 -39.0593 0.000217328)
(0.370511 -38.7912 -0.00323324)
(0.377966 -29.6542 -0.00329835)
(0.358965 -21.5722 -0.00311712)
(0.309483 -20.5429 -0.00269753)
(0.291717 -19.5732 -0.00254482)
(0.273839 -18.21 -0.00238963)
(0.257177 -16.6176 -0.00224465)
(0.239911 -15.0129 -0.00209404)
(0.223297 -13.5923 -0.00194908)
(0.206444 -12.4147 -0.00180202)
(0.189489 -11.4497 -0.00165404)
(0.172347 -10.6402 -0.00150443)
(0.155321 -9.93314 -0.00135583)
(0.138531 -9.2899 -0.00120928)
(0.122134 -8.68588 -0.00106618)
(0.1062 -8.10726 -0.000927103)
(0.0907821 -7.54721 -0.000792531)
(0.0759003 -7.00303 -0.000662641)
(0.0615696 -6.4741 -0.000537561)
(0.0478001 -5.96073 -0.000417378)
(0.0346074 -5.46346 -0.000302228)
(0.0220148 -4.98281 -0.000192316)
(0.0100579 -4.51916 -8.7951e-05)
(-0.00121514 -4.07273 1.04465e-05)
(-0.0117417 -3.64359 0.00010233)
(-0.0214434 -3.23177 0.000187016)
(-0.0302264 -2.83722 0.000263685)
(-0.0379793 -2.45988 0.000331365)
(-0.0445715 -2.09975 0.000388917)
(-0.049851 -1.75682 0.000435014)
(-0.0536356 -1.43117 0.000468068)
(-0.0557162 -1.12289 0.000486252)
(-0.0557939 -0.832221 0.000486963)
(-0.0536466 -0.55947 0.00046824)
(-0.0483719 -0.305355 0.000422301)
(-0.0419005 -0.07067 0.00036589)
(-0.0302417 0.14697 0.000264125)
(-0.0254847 0.347945 0.000222583)
(-0.0213524 0.527607 0.000186467)
(-0.01914 0.687003 0.000167104)
(-0.0174318 0.826553 0.000152194)
(-0.01595 0.945764 0.000139255)
(-0.0145191 1.04403 0.000126765)
(-0.0130857 1.12062 0.000114253)
(-0.0116291 1.17469 0.000101538)
(-0.0101508 1.20529 8.86342e-05)
(-0.00866364 1.21129 7.56525e-05)
(-0.00718859 1.1914 6.2776e-05)
(-0.00575266 1.14408 5.02405e-05)
(-0.00438766 1.06755 3.83236e-05)
(-0.00313123 0.959688 2.73536e-05)
(-0.00202223 0.817928 1.76699e-05)
(-0.00110751 0.639185 9.68098e-06)
(-0.000423715 0.419621 3.70995e-06)
(-3.00774e-05 0.154575 3.28991e-07)
(0.0232969 -43.8416 -0.000203339)
(-0.0131605 -42.5987 0.000114756)
(0.0516877 -40.8168 -0.000451055)
(0.229548 -39.1766 -0.00200392)
(-0.00090435 -39.1962 7.76468e-06)
(0.351906 -39.0401 -0.00307086)
(0.366746 -29.7668 -0.00320038)
(0.382046 -21.5757 -0.00331521)
(0.336814 -20.5541 -0.00293576)
(0.315426 -19.588 -0.00275168)
(0.292678 -18.2202 -0.00255412)
(0.271943 -16.624 -0.00237359)
(0.252097 -15.0169 -0.00220045)
(0.234418 -13.5945 -0.00204617)
(0.217005 -12.4148 -0.00189421)
(0.1995 -11.4477 -0.00174143)
(0.181498 -10.6365 -0.00158433)
(0.163358 -9.92812 -0.001426)
(0.145295 -9.28393 -0.00126835)
(0.127605 -8.67923 -0.00111395)
(0.110444 -8.10012 -0.000964159)
(0.0939189 -7.53972 -0.000819927)
(0.0780712 -6.99528 -0.000681603)
(0.0629151 -6.46618 -0.000549315)
(0.0484474 -5.9527 -0.000423034)
(0.0346658 -5.4554 -0.000302741)
(0.0215746 -4.97479 -0.000188474)
(0.00919217 -4.51127 -8.0392e-05)
(-0.00244845 -4.06505 2.12159e-05)
(-0.0132968 -3.63621 0.00011591)
(-0.0232848 -3.22479 0.000203097)
(-0.0323274 -2.83073 0.000282033)
(-0.0403222 -2.454 0.000351826)
(-0.0471489 -2.09458 0.000411425)
(-0.05267 -1.75249 0.000459632)
(-0.0567258 -1.42779 0.000495051)
(-0.0591482 -1.12061 0.000516216)
(-0.0597123 -0.83117 0.000521168)
(-0.0583481 -0.559814 0.000509281)
(-0.0545841 -0.307025 0.000476517)
(-0.0501768 -0.0734817 0.000438102)
(-0.0440482 0.144558 0.0003846)
(-0.039449 0.346286 0.000344442)
(-0.0347739 0.526561 0.000303624)
(-0.0316294 0.68638 0.000276143)
(-0.0289686 0.826081 0.000252916)
(-0.0265618 0.945331 0.000231904)
(-0.0242026 1.04359 0.000211311)
(-0.0218245 1.12015 0.000190552)
(-0.0194013 1.17419 0.0001694)
(-0.0169387 1.20477 0.000147904)
(-0.0144594 1.21076 0.000126261)
(-0.0119989 1.19086 0.000104783)
(-0.00960256 1.14356 8.38628e-05)
(-0.0073232 1.06706 6.39634e-05)
(-0.00522348 0.959241 4.5631e-05)
(-0.00336812 0.817546 2.94306e-05)
(-0.00183586 0.638884 1.60492e-05)
(-0.00069022 0.419418 6.04622e-06)
(-4.13062e-05 0.154494 4.74265e-07)
(0.0536279 -43.8958 -0.000468048)
(-0.0614031 -42.6125 0.000535772)
(0.132296 -41.1725 -0.0011545)
(0.201361 -39.1549 -0.00175805)
(0.0258226 -39.4275 -0.000225434)
(0.343374 -39.3963 -0.00299636)
(0.398254 -29.9707 -0.00347533)
(0.391954 -21.6189 -0.00339914)
(0.349945 -20.5896 -0.00304994)
(0.33001 -19.6165 -0.00287881)
(0.307139 -18.2396 -0.00268029)
(0.285879 -16.6376 -0.00249524)
(0.265466 -15.0269 -0.00231715)
(0.247481 -13.6011 -0.00216019)
(0.229656 -12.4175 -0.00200463)
(0.211455 -11.4465 -0.00184578)
(0.19235 -10.6319 -0.00167904)
(0.172801 -9.92108 -0.00150842)
(0.153163 -9.27524 -0.00133702)
(0.133888 -8.66954 -0.0011688)
(0.115236 -8.0899 -0.001006)
(0.0973753 -7.52927 -0.000850107)
(0.0803667 -6.98482 -0.00070165)
(0.0642197 -6.45583 -0.000560713)
(0.048912 -5.94256 -0.000427101)
(0.0344176 -5.44553 -0.000300587)
(0.0207169 -4.96526 -0.000180999)
(0.0078068 -4.50214 -6.83119e-05)
(-0.00429704 -4.05637 3.73395e-05)
(-0.0155584 -3.62805 0.000135639)
(-0.025921 -3.2172 0.000226096)
(-0.0353099 -2.82379 0.000308055)
(-0.0436329 -2.44778 0.000380714)
(-0.050782 -2.08915 0.000443128)
(-0.056637 -1.74792 0.000494249)
(-0.0610641 -1.42416 0.00053291)
(-0.0639386 -1.118 0.000558022)
(-0.0651124 -0.829624 0.000568295)
(-0.0646275 -0.559329 0.000564085)
(-0.0623156 -0.307367 0.000544007)
(-0.0595931 -0.074058 0.000520264)
(-0.0562484 0.143685 0.000491051)
(-0.0522716 0.345035 0.000456354)
(-0.0475986 0.525537 0.000415574)
(-0.0438395 0.685638 0.000382742)
(-0.0403897 0.825452 0.000352627)
(-0.0371293 0.944721 0.000324165)
(-0.0338749 1.04295 0.000295757)
(-0.0305671 1.11946 0.000266884)
(-0.0271841 1.17346 0.000237354)
(-0.0237397 1.204 0.000207288)
(-0.0202686 1.20997 0.000176988)
(-0.0168218 1.19008 0.000146899)
(-0.013463 1.1428 0.000117577)
(-0.0102664 1.06634 8.96707e-05)
(-0.00731983 0.958593 6.39442e-05)
(-0.00471394 0.816991 4.11904e-05)
(-0.00256014 0.638449 2.23806e-05)
(-0.000950391 0.419127 8.3252e-06)
(-5.06203e-05 0.154378 5.95763e-07)
(0.0886143 -43.9551 -0.000773396)
(-0.117867 -42.6305 0.00102854)
(0.220593 -41.548 -0.00192509)
(0.132316 -39.0421 -0.00115558)
(0.0583318 -39.6488 -0.000509042)
(0.308679 -39.7025 -0.00269356)
(0.419387 -30.1633 -0.00365974)
(0.402845 -21.6384 -0.00349299)
(0.36204 -20.6151 -0.00315543)
(0.340585 -19.6395 -0.00297108)
(0.31709 -18.2547 -0.00276715)
(0.295207 -16.6478 -0.00257667)
(0.274519 -15.0345 -0.00239617)
(0.256451 -13.6065 -0.00223849)
(0.238662 -12.4197 -0.00208324)
(0.220379 -11.4451 -0.00192368)
(0.200906 -10.6273 -0.00175373)
(0.180659 -9.91404 -0.00157702)
(0.160048 -9.26653 -0.00139713)
(0.139633 -8.6598 -0.00121895)
(0.119776 -8.0796 -0.00104563)
(0.10073 -7.51874 -0.000879399)
(0.0826078 -6.97425 -0.000721222)
(0.0654462 -6.44535 -0.000571427)
(0.0492303 -5.93225 -0.000429887)
(0.0339299 -5.43547 -0.000296337)
(0.0195145 -4.95549 -0.000170511)
(0.00596872 -4.49272 -5.22743e-05)
(-0.00670487 -4.04737 5.83503e-05)
(-0.0184817 -3.61954 0.000161149)
(-0.0293157 -3.20925 0.000255721)
(-0.0391424 -2.81648 0.000341501)
(-0.0478802 -2.44117 0.00041778)
(-0.0554341 -2.08333 0.000483727)
(-0.0617018 -1.74296 0.000538449)
(-0.0665759 -1.42011 0.000581011)
(-0.0699714 -1.1149 0.000610669)
(-0.071805 -0.827494 0.000626696)
(-0.0721844 -0.558093 0.000630028)
(-0.0711127 -0.306789 0.00062078)
(-0.069648 -0.0736459 0.000608011)
(-0.0677567 0.143611 0.000591498)
(-0.0644084 0.344252 0.000562296)
(-0.0599432 0.524675 0.000523334)
(-0.0557848 0.684862 0.000487026)
(-0.0516847 0.824705 0.000451237)
(-0.0476423 0.943947 0.000415949)
(-0.043529 1.04211 0.000380046)
(-0.0393095 1.11856 0.000343214)
(-0.0349751 1.17249 0.00030538)
(-0.0305525 1.20299 0.000266775)
(-0.0260904 1.20893 0.000227825)
(-0.0216563 1.18903 0.000189118)
(-0.0173333 1.14178 0.000151378)
(-0.0132171 1.06539 0.000115443)
(-0.00942047 0.95773 8.2295e-05)
(-0.00606062 0.816254 5.29578e-05)
(-0.00328226 0.637871 2.86935e-05)
(-0.00120709 0.418742 1.05739e-05)
(-5.88813e-05 0.15423 7.06715e-07)
(0.120216 -44.0185 -0.0010492)
(-0.168382 -42.6786 0.00146939)
(0.302023 -41.9393 -0.00263578)
(0.0397978 -38.8872 -0.00034823)
(0.0971654 -39.9176 -0.000847835)
(0.267698 -40.0254 -0.00233592)
(0.443675 -30.3966 -0.00387166)
(0.405107 -21.67 -0.00351134)
(0.367855 -20.6485 -0.003206)
(0.346479 -19.6681 -0.00302247)
(0.323883 -18.2745 -0.00282642)
(0.302528 -16.662 -0.00264057)
(0.282239 -15.0453 -0.00246357)
(0.26424 -13.6144 -0.00230648)
(0.246405 -12.4236 -0.00215082)
(0.227902 -11.4447 -0.00198934)
(0.208014 -10.6229 -0.00181578)
(0.187124 -9.90658 -0.00163346)
(0.165675 -9.25696 -0.00144625)
(0.144286 -8.64896 -0.00125957)
(0.123389 -8.06811 -0.00107718)
(0.103297 -7.50702 -0.000901816)
(0.0841648 -6.96257 -0.000734823)
(0.0660541 -6.43386 -0.000576745)
(0.048961 -5.92104 -0.000427547)
(0.0328562 -5.4246 -0.000286976)
(0.0177053 -4.94501 -0.00015473)
(0.00348598 -4.48268 -3.06136e-05)
(-0.00980659 -4.03781 8.54142e-05)
(-0.0221552 -3.61051 0.000193204)
(-0.0335212 -3.20082 0.00029242)
(-0.0438474 -2.80871 0.00038256)
(-0.0530611 -2.43413 0.000462992)
(-0.0610787 -2.07707 0.000532986)
(-0.0678136 -1.73755 0.000591787)
(-0.0731818 -1.41559 0.000638661)
(-0.0771292 -1.11129 0.000673134)
(-0.07962 -0.824762 0.000694895)
(-0.0807892 -0.556148 0.00070512)
(-0.0807175 -0.305431 0.000704607)
(-0.0801443 -0.0725375 0.00069962)
(-0.0790237 0.144128 0.000689845)
(-0.0761725 0.343925 0.000664985)
(-0.0719472 0.524028 0.000628119)
(-0.0675129 0.684111 0.00058941)
(-0.0628636 0.823876 0.000548831)
(-0.0581005 0.94303 0.000507254)
(-0.0531632 1.04109 0.00046416)
(-0.0480499 1.11744 0.000419527)
(-0.0427731 1.17129 0.000373467)
(-0.0373761 1.20172 0.000326357)
(-0.0319239 1.20763 0.000278764)
(-0.0265021 1.18773 0.000231434)
(-0.0212132 1.14051 0.000185263)
(-0.0161749 1.06419 0.000141278)
(-0.0115256 0.956649 0.000100685)
(-0.00740892 0.81533 6.47393e-05)
(-0.00400362 0.637146 3.49997e-05)
(-0.00146204 0.418261 1.28074e-05)
(-6.65787e-05 0.154047 8.12754e-07)
(0.145287 -44.0847 -0.00126801)
(-0.206034 -42.7431 0.001798)
(0.360934 -42.2826 -0.00314998)
(-0.0663144 -38.6816 0.000577813)
(0.133715 -40.2097 -0.00116668)
(0.221609 -40.3388 -0.00193373)
(0.462348 -30.6428 -0.00403457)
(0.407448 -21.6937 -0.00353095)
(0.373123 -20.6777 -0.00325193)
(0.350634 -19.6952 -0.00305875)
(0.328403 -18.2939 -0.00286588)
(0.307201 -16.6759 -0.00268137)
(0.287138 -15.0559 -0.00250634)
(0.269053 -13.622 -0.0023485)
(0.251133 -12.4274 -0.00219209)
(0.232483 -11.4443 -0.00202933)
(0.212397 -10.6185 -0.00185403)
(0.191175 -9.899 -0.00166882)
(0.169246 -9.24712 -0.00147743)
(0.147233 -8.6377 -0.0012853)
(0.125603 -8.05609 -0.00109652)
(0.104711 -7.4947 -0.000914167)
(0.0847511 -6.95024 -0.000739949)
(0.0658152 -6.42171 -0.000574669)
(0.0479199 -5.90918 -0.000418469)
(0.0310475 -5.41308 -0.000271198)
(0.015169 -4.93391 -0.000132601)
(0.000263436 -4.47202 -2.49497e-06)
(-0.013675 -4.02766 0.000119171)
(-0.0266315 -3.60092 0.000232266)
(-0.0385705 -3.19185 0.000336483)
(-0.0494392 -2.80042 0.000431359)
(-0.0591711 -2.42658 0.000516314)
(-0.0676913 -2.07032 0.000590695)
(-0.074926 -1.73164 0.000653858)
(-0.0808091 -1.41055 0.000705224)
(-0.0853082 -1.10713 0.000744512)
(-0.0884174 -0.821436 0.00077167)
(-0.0902724 -0.553555 0.000787881)
(-0.0909746 -0.303414 0.000794133)
(-0.091011 -0.0708846 0.00079447)
(-0.0902935 0.145106 0.00078822)
(-0.0877802 0.343999 0.000766309)
(-0.0837405 0.523608 0.000731066)
(-0.0790836 0.683416 0.000690421)
(-0.0739489 0.822993 0.000645607)
(-0.0685118 0.941985 0.00059815)
(-0.0627798 1.0399 0.000548119)
(-0.0567891 1.11611 0.000495829)
(-0.0505782 1.16985 0.000441615)
(-0.0442103 1.2002 0.000386031)
(-0.037769 1.20606 0.000329804)
(-0.0313587 1.18616 0.000273845)
(-0.0251024 1.13899 0.000219229)
(-0.01914 1.06275 0.000167176)
(-0.0136355 0.955349 0.000119116)
(-0.00875947 0.814217 7.65406e-05)
(-0.00472528 0.636273 4.13087e-05)
(-0.00171647 0.417684 1.50364e-05)
(-7.41629e-05 0.153829 9.17752e-07)
(0.157568 -44.1541 -0.00137519)
(-0.220844 -42.8318 0.00192725)
(0.387966 -42.552 -0.00338601)
(-0.164603 -38.4632 0.00143564)
(0.165292 -40.5323 -0.00144216)
(0.180668 -40.6561 -0.00157647)
(0.473447 -30.9095 -0.00413136)
(0.405725 -21.7236 -0.00351498)
(0.375368 -20.7093 -0.00327141)
(0.352423 -19.7242 -0.00307437)
(0.330762 -18.3155 -0.00288648)
(0.309812 -16.6916 -0.00270418)
(0.289977 -15.0678 -0.00253112)
(0.271733 -13.6304 -0.00237189)
(0.253619 -12.4318 -0.0022138)
(0.234732 -11.4441 -0.00204896)
(0.214437 -10.6142 -0.00187184)
(0.192964 -9.8913 -0.00168444)
(0.170719 -9.23696 -0.00149029)
(0.148294 -8.62597 -0.00129457)
(0.126162 -8.04348 -0.0011014)
(0.104688 -7.48171 -0.000913977)
(0.0840904 -6.93721 -0.00073419)
(0.0644807 -6.40883 -0.000563029)
(0.0458947 -5.89658 -0.000400801)
(0.0283296 -5.40086 -0.000247484)
(0.0117673 -4.92211 -0.000102918)
(-0.00380563 -4.4607 3.30118e-05)
(-0.0183895 -4.01687 0.000160311)
(-0.031966 -3.59072 0.000278819)
(-0.0444982 -3.18229 0.000388213)
(-0.0559333 -2.79156 0.000488033)
(-0.0662074 -2.41848 0.00057772)
(-0.0752508 -2.06303 0.000656668)
(-0.0829981 -1.72519 0.000724304)
(-0.0893953 -1.40498 0.000780158)
(-0.0944227 -1.10241 0.000824057)
(-0.0980899 -0.817537 0.000856084)
(-0.100517 -0.55038 0.000877288)
(-0.101797 -0.300848 0.000888594)
(-0.102231 -0.0688017 0.000892407)
(-0.101702 0.146448 0.000887805)
(-0.0993766 0.344411 0.000867536)
(-0.0954323 0.523397 0.000833127)
(-0.0905586 0.682791 0.000790595)
(-0.0849701 0.822072 0.000741822)
(-0.0788895 0.940826 0.000688752)
(-0.0723846 1.03853 0.000631977)
(-0.0655296 1.11457 0.000572142)
(-0.0583914 1.16817 0.000509835)
(-0.0510556 1.19843 0.000445801)
(-0.0436257 1.20424 0.000380945)
(-0.036226 1.18433 0.00031635)
(-0.0290007 1.1372 0.000253274)
(-0.0221122 1.06107 0.000193136)
(-0.0157503 0.953829 0.000137591)
(-0.0101128 0.812916 8.83658e-05)
(-0.00544802 0.635253 4.76271e-05)
(-0.00197116 0.417011 1.72677e-05)
(-8.18437e-05 0.153577 1.02363e-06)
(0.15495 -44.226 -0.00135234)
(-0.209163 -42.9352 0.00182531)
(0.374977 -42.7129 -0.00327277)
(-0.242234 -38.2543 0.00211324)
(0.183932 -40.8705 -0.00160475)
(0.14957 -40.9719 -0.00130511)
(0.4745 -31.1841 -0.00414051)
(0.403327 -21.7565 -0.00349332)
(0.376292 -20.7398 -0.00327941)
(0.352662 -19.7525 -0.00307649)
(0.331095 -18.3368 -0.00288941)
(0.31002 -16.707 -0.00270601)
(0.290134 -15.0793 -0.00253251)
(0.271589 -13.6384 -0.00237065)
(0.253234 -12.4357 -0.00221045)
(0.234151 -11.4437 -0.0020439)
(0.213764 -10.6097 -0.00186598)
(0.192224 -9.88343 -0.00167798)
(0.169891 -9.2266 -0.00148307)
(0.147306 -8.61394 -0.00128595)
(0.124919 -8.03047 -0.00109056)
(0.103092 -7.46823 -0.000900051)
(0.0820518 -6.9236 -0.000716403)
(0.0619268 -6.39533 -0.000540745)
(0.0427714 -5.88333 -0.000373548)
(0.0246005 -5.38796 -0.000214943)
(0.00741175 -4.90962 -6.49109e-05)
(-0.00879461 -4.4487 7.65482e-05)
(-0.0240081 -4.0054 0.000209342)
(-0.0382017 -3.57986 0.000333237)
(-0.051332 -3.17209 0.000447852)
(-0.0633425 -2.78209 0.000552693)
(-0.0741675 -2.40979 0.000647189)
(-0.0837388 -2.05517 0.000730744)
(-0.0919949 -1.71819 0.000802822)
(-0.0988885 -1.39885 0.000863008)
(-0.104405 -1.09715 0.000911175)
(-0.108558 -0.813095 0.000947443)
(-0.111445 -0.546682 0.000972661)
(-0.113137 -0.297815 0.000987581)
(-0.113808 -0.0663663 0.000993463)
(-0.113328 0.148084 0.000989289)
(-0.11106 0.345104 0.000969519)
(-0.10711 0.523373 0.000935068)
(-0.101995 0.682235 0.000890434)
(-0.095959 0.82112 0.000837757)
(-0.0892506 0.93956 0.000779208)
(-0.0819862 1.03701 0.000715804)
(-0.0742755 1.11284 0.000648502)
(-0.0662147 1.16627 0.000578143)
(-0.0579127 1.19641 0.000505676)
(-0.0494942 1.20215 0.00043219)
(-0.0411042 1.18224 0.000358949)
(-0.0329081 1.13517 0.0002874)
(-0.0250914 1.05915 0.000219158)
(-0.0178701 0.952088 0.000156109)
(-0.0114692 0.811426 0.000100218)
(-0.00617239 0.634086 5.39598e-05)
(-0.00222662 0.416241 1.95057e-05)
(-8.97451e-05 0.153291 1.13161e-06)
(0.136725 -44.3018 -0.00119327)
(-0.170763 -43.049 0.00149019)
(0.322681 -42.755 -0.0028165)
(-0.286681 -38.0849 0.00250128)
(0.187373 -41.2159 -0.00163473)
(0.131869 -41.2889 -0.00115065)
(0.465225 -31.4625 -0.00405955)
(0.398655 -21.7978 -0.00345183)
(0.374377 -20.7716 -0.00326265)
(0.350576 -19.781 -0.00305831)
(0.328983 -18.3582 -0.00287101)
(0.307709 -16.7225 -0.00268586)
(0.287659 -15.0906 -0.00251092)
(0.268798 -13.6461 -0.0023463)
(0.250213 -12.4394 -0.00218409)
(0.230992 -11.4431 -0.00201633)
(0.210606 -10.6051 -0.00183842)
(0.189133 -9.87543 -0.001651)
(0.166881 -9.21606 -0.0014568)
(0.144326 -8.60166 -0.00125995)
(0.121884 -8.01713 -0.00106407)
(0.099895 -7.45432 -0.000872148)
(0.0785844 -6.90948 -0.000686144)
(0.0580904 -6.38125 -0.000507266)
(0.0384825 -5.86944 -0.000336121)
(0.0197943 -5.37438 -0.000173002)
(0.0020422 -4.89644 -1.80522e-05)
(-0.014756 -4.43599 0.000128572)
(-0.030574 -3.99324 0.000266642)
(-0.0453714 -3.56831 0.000395806)
(-0.0590938 -3.16123 0.00051559)
(-0.0716765 -2.77197 0.000625425)
(-0.0830487 -2.40047 0.000724698)
(-0.0931398 -2.0467 0.00081279)
(-0.101888 -1.71061 0.000889162)
(-0.109247 -1.39216 0.000953414)
(-0.115202 -1.09135 0.00100541)
(-0.119764 -0.808142 0.00104525)
(-0.123005 -0.542515 0.00107356)
(-0.124972 -0.29438 0.00109089)
(-0.125753 -0.0636323 0.00109773)
(-0.125219 0.149965 0.0010931)
(-0.122896 0.346025 0.00107285)
(-0.118843 0.523503 0.00103749)
(-0.113444 0.681739 0.000990378)
(-0.106948 0.820139 0.000933688)
(-0.0996132 0.938191 0.000869678)
(-0.0915945 1.03533 0.000799691)
(-0.0830323 1.1109 0.000724957)
(-0.074051 1.16414 0.000646564)
(-0.0647832 1.19414 0.000565666)
(-0.0553752 1.19981 0.000483543)
(-0.0459932 1.17989 0.000401644)
(-0.0368246 1.13287 0.000321604)
(-0.0280778 1.05699 0.000245242)
(-0.019995 0.950127 0.000174672)
(-0.012829 0.809747 0.0001121)
(-0.00689878 0.632769 6.03101e-05)
(-0.00248319 0.415374 2.17534e-05)
(-9.79208e-05 0.15297 1.24222e-06)
(0.106231 -44.3818 -0.000927131)
(-0.112126 -43.1607 0.00097846)
(0.239032 -42.6792 -0.00208661)
(-0.294369 -37.9744 0.00256856)
(0.173806 -41.5534 -0.00151629)
(0.127103 -41.6052 -0.00110907)
(0.447121 -31.737 -0.00390157)
(0.392791 -21.8465 -0.00340019)
(0.369727 -20.8036 -0.00322206)
(0.345951 -19.8084 -0.00301799)
(0.324063 -18.3786 -0.00282811)
(0.30248 -16.737 -0.00264024)
(0.282171 -15.101 -0.00246304)
(0.263052 -13.6529 -0.00229615)
(0.244344 -12.4424 -0.00213287)
(0.225147 -11.442 -0.00196532)
(0.204942 -10.6002 -0.00178898)
(0.183731 -9.86725 -0.00160386)
(0.16176 -9.20537 -0.0014121)
(0.139432 -8.5892 -0.00121723)
(0.117122 -8.00352 -0.00102251)
(0.0951426 -7.44005 -0.000830669)
(0.0737124 -6.89491 -0.000643623)
(0.0529757 -6.36662 -0.000462628)
(0.0330171 -5.85494 -0.000288423)
(0.0138899 -5.36014 -0.000121473)
(-0.00436822 -4.88257 3.78919e-05)
(-0.021718 -4.42257 0.00018933)
(-0.0381134 -3.98037 0.000332439)
(-0.0534965 -3.55605 0.000466716)
(-0.0677983 -3.14967 0.000591556)
(-0.0809422 -2.76118 0.000706289)
(-0.0928487 -2.39051 0.000810225)
(-0.103441 -2.03762 0.000902695)
(-0.112654 -1.70244 0.000983125)
(-0.120439 -1.38492 0.00105109)
(-0.126777 -1.08503 0.00110643)
(-0.131669 -0.802709 0.00114915)
(-0.135165 -0.537922 0.00117969)
(-0.13729 -0.290594 0.00119842)
(-0.138078 -0.0606408 0.00120532)
(-0.137409 0.15205 0.00119951)
(-0.134933 0.347132 0.00117792)
(-0.130683 0.523759 0.00114085)
(-0.124947 0.681289 0.0010908)
(-0.117965 0.819123 0.00102987)
(-0.109996 0.936719 0.000960323)
(-0.10122 1.03348 0.000883733)
(-0.0918061 1.10876 0.000801561)
(-0.0819037 1.16177 0.000715127)
(-0.0716686 1.19162 0.000625788)
(-0.0612694 1.1972 0.000535012)
(-0.0508935 1.17727 0.000444436)
(-0.0407503 1.13032 0.000355888)
(-0.0310713 1.05458 0.000271388)
(-0.0221252 0.947944 0.000193281)
(-0.0141923 0.807878 0.000124014)
(-0.00762743 0.631305 6.66801e-05)
(-0.00274104 0.414411 2.40123e-05)
(-0.000106386 0.152615 1.35566e-06)
(0.0696862 -44.4669 -0.000608176)
(-0.0452601 -43.262 0.000394911)
(0.145212 -42.5068 -0.00126794)
(-0.269898 -37.9293 0.00235515)
(0.145989 -41.8728 -0.00127354)
(0.131923 -41.9205 -0.00115113)
(0.423465 -32.0043 -0.0036952)
(0.384833 -21.9021 -0.00333072)
(0.361476 -20.836 -0.00315015)
(0.338023 -19.8349 -0.0029489)
(0.315791 -18.3977 -0.00275596)
(0.294002 -16.7503 -0.00256626)
(0.273538 -15.1103 -0.0023877)
(0.254373 -13.6588 -0.00222042)
(0.235759 -12.4447 -0.00205794)
(0.216817 -11.4405 -0.00189261)
(0.197006 -10.595 -0.00171971)
(0.176257 -9.85894 -0.00153862)
(0.154748 -9.19458 -0.00135089)
(0.132816 -8.5766 -0.00115948)
(0.110789 -7.98969 -0.000967227)
(0.0889531 -7.42546 -0.000776647)
(0.0675193 -6.87991 -0.00058957)
(0.0466364 -6.35147 -0.000407301)
(0.0264048 -5.83984 -0.000230715)
(0.00689855 -5.34523 -6.04574e-05)
(-0.0118206 -4.86798 0.000102931)
(-0.0296894 -4.40842 0.000258898)
(-0.0466385 -3.96674 0.00040684)
(-0.0625893 -3.54306 0.000546071)
(-0.0774547 -3.13739 0.000675831)
(-0.0911437 -2.74969 0.000795321)
(-0.103565 -2.37989 0.00090375)
(-0.114633 -2.02792 0.00100037)
(-0.124277 -1.69369 0.00108456)
(-0.132441 -1.37714 0.00115584)
(-0.139099 -1.0782 0.00121398)
(-0.144246 -0.796826 0.00125892)
(-0.147906 -0.532944 0.00129089)
(-0.150089 -0.286498 0.00131014)
(-0.150795 -0.0574247 0.00131634)
(-0.149918 0.154309 0.00130871)
(-0.147204 0.348386 0.00128505)
(-0.142671 0.52411 0.0012455)
(-0.136542 0.680865 0.00119202)
(-0.129039 0.818063 0.00112655)
(-0.120417 0.935138 0.0010513)
(-0.110875 1.03148 0.000968025)
(-0.100604 1.10642 0.000878371)
(-0.0897763 1.15918 0.000783865)
(-0.078571 1.18885 0.000686057)
(-0.0671777 1.19434 0.000586604)
(-0.0558053 1.17439 0.00048733)
(-0.0446851 1.1275 0.000390252)
(-0.0340718 1.05192 0.000297595)
(-0.0242605 0.945539 0.000211935)
(-0.0155593 0.805818 0.000135958)
(-0.00835846 0.629691 7.3071e-05)
(-0.00300024 0.413351 2.62831e-05)
(-0.000115138 0.152224 1.47189e-06)
(0.0347553 -44.5564 -0.000303314)
(0.0164441 -43.3498 -0.000143587)
(0.0620438 -42.2745 -0.000542198)
(-0.230299 -37.933 0.0020097)
(0.109999 -42.1686 -0.000959494)
(0.139638 -42.2325 -0.00121847)
(0.398238 -32.2625 -0.00347515)
(0.37463 -21.9606 -0.00324235)
(0.349574 -20.8674 -0.0030465)
(0.326408 -19.8595 -0.00284767)
(0.303817 -18.4149 -0.00265151)
(0.281981 -16.762 -0.00246137)
(0.261607 -15.1183 -0.00228357)
(0.242719 -13.6637 -0.0021187)
(0.22452 -12.4463 -0.00195985)
(0.206144 -11.4386 -0.00179946)
(0.186994 -10.5897 -0.00163233)
(0.166936 -9.85056 -0.00145726)
(0.146077 -9.18373 -0.00127521)
(0.124695 -8.5639 -0.00108859)
(0.103076 -7.97567 -0.000899909)
(0.0814857 -7.41057 -0.00071147)
(0.0601288 -6.86449 -0.000525066)
(0.0391631 -6.3358 -0.000342076)
(0.0187069 -5.82413 -0.00016353)
(-0.00114217 -5.32964 9.71776e-06)
(-0.0202957 -4.85267 0.000176896)
(-0.0386634 -4.39351 0.000337217)
(-0.0561503 -3.95236 0.000489853)
(-0.0726543 -3.5293 0.000633912)
(-0.088068 -3.12437 0.000768458)
(-0.102283 -2.7375 0.000892543)
(-0.115195 -2.3686 0.00100526)
(-0.126709 -2.01758 0.00110576)
(-0.136742 -1.68435 0.00119336)
(-0.145235 -1.36882 0.0012675)
(-0.152152 -1.0709 0.00132789)
(-0.157476 -0.790521 0.00137439)
(-0.161217 -0.527614 0.00140707)
(-0.163368 -0.282127 0.00142606)
(-0.163914 -0.0540125 0.00143086)
(-0.162763 0.15671 0.00142084)
(-0.159734 0.349753 0.00139443)
(-0.154839 0.524527 0.00135172)
(-0.148255 0.68045 0.00129428)
(-0.140191 0.816948 0.00122391)
(-0.130892 0.933445 0.00114275)
(-0.120569 1.02932 0.00105266)
(-0.109431 1.10388 0.000955444)
(-0.0976726 1.15636 0.00085281)
(-0.0854924 1.18583 0.000746492)
(-0.0731012 1.19121 0.000638329)
(-0.060729 1.17124 0.000530327)
(-0.0486291 1.12443 0.000424697)
(-0.0370793 1.04902 0.000323864)
(-0.026401 0.942912 0.000230634)
(-0.0169299 0.803568 0.000147935)
(-0.00909193 0.627929 7.94832e-05)
(-0.00326083 0.412193 2.8566e-05)
(-0.000124159 0.151799 1.59078e-06)
(0.00673679 -44.6497 -5.87797e-05)
(0.0640779 -43.4269 -0.000559292)
(0.00202337 -42.014 -1.84489e-05)
(-0.194292 -37.96 0.00169556)
(0.0701125 -42.4425 -0.000611449)
(0.143826 -42.5402 -0.00125503)
(0.374241 -32.513 -0.00326585)
(0.361735 -22.0179 -0.00313173)
(0.333868 -20.8967 -0.00290979)
(0.310833 -19.8817 -0.00271189)
(0.287974 -18.4299 -0.00251328)
(0.26637 -16.7721 -0.00232513)
(0.246482 -15.1251 -0.00215157)
(0.228302 -13.6679 -0.00199287)
(0.210925 -12.4475 -0.00184119)
(0.193467 -11.4365 -0.00168881)
(0.175263 -10.5843 -0.00152993)
(0.156115 -9.84218 -0.00136281)
(0.136069 -9.17289 -0.00118786)
(0.115354 -8.55112 -0.00100707)
(0.0942274 -7.96147 -0.000822675)
(0.0729392 -7.39538 -0.000636875)
(0.0516972 -6.84865 -0.000451475)
(0.0306727 -6.31959 -0.000267972)
(0.0100062 -5.80778 -8.75927e-05)
(-0.0101775 -5.31334 8.85738e-05)
(-0.0297605 -4.83659 0.0002595)
(-0.0486231 -4.3778 0.00042414)
(-0.0666425 -3.93717 0.000581423)
(-0.0836914 -3.51476 0.000730238)
(-0.0996404 -3.11059 0.000869456)
(-0.114363 -2.72457 0.000997969)
(-0.12774 -2.35662 0.00111474)
(-0.139663 -2.0066 0.00121882)
(-0.150043 -1.67443 0.00130944)
(-0.15881 -1.35997 0.00138598)
(-0.16592 -1.06313 0.00144806)
(-0.171348 -0.783821 0.00149547)
(-0.17509 -0.521962 0.00152815)
(-0.17713 -0.27751 0.00154619)
(-0.177443 -0.0504293 0.00154896)
(-0.175955 0.15923 0.001536)
(-0.172539 0.351203 0.00150621)
(-0.167209 0.524984 0.00145971)
(-0.160112 0.680023 0.00139779)
(-0.151442 0.815765 0.00132214)
(-0.141435 0.93163 0.0012348)
(-0.130313 1.02698 0.00113773)
(-0.118295 1.10114 0.00103284)
(-0.105596 1.1533 0.000921995)
(-0.0924347 1.18255 0.000807109)
(-0.0790406 1.18782 0.000690193)
(-0.0656649 1.16783 0.000573431)
(-0.0525823 1.1211 0.000459222)
(-0.0400936 1.04588 0.000350193)
(-0.0285466 0.940062 0.000249377)
(-0.0183042 0.801128 0.000159944)
(-0.00982782 0.626017 8.59164e-05)
(-0.00352276 0.410938 3.08607e-05)
(-0.00013343 0.151338 1.71213e-06)
(-0.011805 -44.7452 0.000103043)
(0.0940609 -43.4973 -0.000820958)
(-0.0318588 -41.7425 0.000277216)
(-0.177934 -37.9787 0.00155286)
(0.0274388 -42.7004 -0.000239057)
(0.140019 -42.845 -0.0012218)
(0.352297 -32.7583 -0.00307447)
(0.346309 -22.0695 -0.00299822)
(0.314698 -20.9219 -0.00274299)
(0.291456 -19.9006 -0.00254298)
(0.268442 -18.4423 -0.00234288)
(0.247394 -16.7805 -0.00215952)
(0.228467 -15.1309 -0.00199433)
(0.211478 -13.6715 -0.00184603)
(0.195371 -12.4484 -0.00170543)
(0.179198 -11.4344 -0.00156427)
(0.162221 -10.5789 -0.00141609)
(0.144182 -9.8339 -0.00125865)
(0.12508 -9.16208 -0.00109193)
(0.105109 -8.53828 -0.000917635)
(0.0845097 -7.94707 -0.000737854)
(0.0635327 -7.37984 -0.000554772)
(0.0423971 -6.83233 -0.000370304)
(0.0212957 -6.30279 -0.000186132)
(0.000396757 -5.79073 -3.7246e-06)
(-0.0201436 -5.29628 0.000175554)
(-0.0401752 -4.8197 0.000350395)
(-0.0595467 -4.36127 0.000519475)
(-0.0781057 -3.92115 0.000681467)
(-0.0956987 -3.4994 0.000835032)
(-0.112174 -3.09602 0.000978839)
(-0.127385 -2.7109 0.00111162)
(-0.141198 -2.34394 0.0012322)
(-0.153494 -1.99499 0.00133954)
(-0.164173 -1.66393 0.00143277)
(-0.173158 -1.35061 0.00151121)
(-0.180397 -1.05492 0.00157442)
(-0.185857 -0.776751 0.0016221)
(-0.189523 -0.516015 0.00165413)
(-0.191376 -0.272674 0.00167056)
(-0.191388 -0.0466986 0.0016707)
(-0.189502 0.161845 0.00165427)
(-0.185632 0.35271 0.00162051)
(-0.179798 0.525457 0.00156962)
(-0.172129 0.679564 0.0015027)