/*--------------------------------*- C++ -*----------------------------------*\
| =========                 |                                                 |
| \\      /  F ield         | OpenFOAM: The Open Source CFD Toolbox           |
|  \\    /   O peration     | Version:  v2012                                 |
|   \\  /    A nd           | Website:  www.openfoam.com                      |
|    \\/     M anipulation  |                                                 |
\*---------------------------------------------------------------------------*/
FoamFile
{
    version     2.0;
    format      ascii;
    class       volScalarField;
    location    "0.5";
    object      p;
}
// * * * * * * * * * * * * * * * * * * * * * * * * * * * * * * * * * * * * * //

dimensions      [1 -1 -2 0 0 0 0];


internalField   nonuniform List<scalar> 
3326
(
3.4991e+06
3.49911e+06
3.49913e+06
3.49914e+06
3.49915e+06
3.49916e+06
3.49916e+06
3.49917e+06
3.49917e+06
3.49904e+06
3.49906e+06
3.49908e+06
3.49909e+06
3.49911e+06
3.49912e+06
3.49913e+06
3.49914e+06
3.49915e+06
3.49915e+06
3.49916e+06
3.49916e+06
3.49792e+06
3.49795e+06
3.49798e+06
3.49802e+06
3.49806e+06
3.49809e+06
3.49814e+06
3.49818e+06
3.49822e+06
3.49826e+06
3.49829e+06
3.49833e+06
3.49837e+06
3.4984e+06
3.49844e+06
3.49847e+06
3.49851e+06
3.49855e+06
3.49858e+06
3.49862e+06
3.49865e+06
3.49869e+06
3.49872e+06
3.49875e+06
3.49879e+06
3.49882e+06
3.49885e+06
3.49888e+06
3.49891e+06
3.49893e+06
3.49896e+06
3.49898e+06
3.49901e+06
3.49903e+06
3.49905e+06
3.49906e+06
3.49908e+06
3.4991e+06
3.49911e+06
3.49912e+06
3.49913e+06
3.49914e+06
3.49915e+06
3.49915e+06
3.49915e+06
3.49782e+06
3.49785e+06
3.49788e+06
3.49792e+06
3.49797e+06
3.49801e+06
3.49806e+06
3.4981e+06
3.49815e+06
3.49819e+06
3.49823e+06
3.49827e+06
3.49831e+06
3.49835e+06
3.49839e+06
3.49843e+06
3.49847e+06
3.49851e+06
3.49855e+06
3.49858e+06
3.49862e+06
3.49866e+06
3.49869e+06
3.49873e+06
3.49876e+06
3.4988e+06
3.49883e+06
3.49886e+06
3.49889e+06
3.49892e+06
3.49895e+06
3.49897e+06
3.49899e+06
3.49902e+06
3.49904e+06
3.49905e+06
3.49907e+06
3.49909e+06
3.4991e+06
3.49911e+06
3.49912e+06
3.49913e+06
3.49914e+06
3.49914e+06
3.49915e+06
3.49769e+06
3.49774e+06
3.49778e+06
3.49783e+06
3.49788e+06
3.49792e+06
3.49798e+06
3.49803e+06
3.49808e+06
3.49812e+06
3.49817e+06
3.49821e+06
3.49825e+06
3.4983e+06
3.49834e+06
3.49838e+06
3.49842e+06
3.49847e+06
3.49851e+06
3.49855e+06
3.49859e+06
3.49863e+06
3.49867e+06
3.4987e+06
3.49874e+06
3.49878e+06
3.49881e+06
3.49884e+06
3.49887e+06
3.4989e+06
3.49893e+06
3.49896e+06
3.49898e+06
3.499e+06
3.49903e+06
3.49904e+06
3.49906e+06
3.49908e+06
3.49909e+06
3.4991e+06
3.49912e+06
3.49912e+06
3.49913e+06
3.49914e+06
3.49914e+06
3.49756e+06
3.49762e+06
3.49767e+06
3.49772e+06
3.49777e+06
3.49783e+06
3.49789e+06
3.49794e+06
3.498e+06
3.49805e+06
3.4981e+06
3.49815e+06
3.49819e+06
3.49824e+06
3.49829e+06
3.49833e+06
3.49838e+06
3.49842e+06
3.49847e+06
3.49851e+06
3.49855e+06
3.4986e+06
3.49864e+06
3.49868e+06
3.49872e+06
3.49875e+06
3.49879e+06
3.49882e+06
3.49886e+06
3.49889e+06
3.49892e+06
3.49894e+06
3.49897e+06
3.49899e+06
3.49902e+06
3.49904e+06
3.49905e+06
3.49907e+06
3.49908e+06
3.4991e+06
3.49911e+06
3.49912e+06
3.49912e+06
3.49913e+06
3.49913e+06
3.49741e+06
3.49749e+06
3.49755e+06
3.4976e+06
3.49767e+06
3.49773e+06
3.4978e+06
3.49786e+06
3.49792e+06
3.49797e+06
3.49803e+06
3.49808e+06
3.49813e+06
3.49818e+06
3.49823e+06
3.49828e+06
3.49833e+06
3.49838e+06
3.49843e+06
3.49847e+06
3.49852e+06
3.49857e+06
3.49861e+06
3.49865e+06
3.49869e+06
3.49873e+06
3.49877e+06
3.49881e+06
3.49884e+06
3.49887e+06
3.4989e+06
3.49893e+06
3.49896e+06
3.49898e+06
3.499e+06
3.49903e+06
3.49904e+06
3.49906e+06
3.49908e+06
3.49909e+06
3.4991e+06
3.49911e+06
3.49912e+06
3.49912e+06
3.49912e+06
3.49728e+06
3.49736e+06
3.49742e+06
3.49749e+06
3.49756e+06
3.49763e+06
3.4977e+06
3.49777e+06
3.49783e+06
3.49789e+06
3.49795e+06
3.49801e+06
3.49807e+06
3.49812e+06
3.49818e+06
3.49823e+06
3.49828e+06
3.49833e+06
3.49838e+06
3.49843e+06
3.49848e+06
3.49853e+06
3.49858e+06
3.49862e+06
3.49867e+06
3.49871e+06
3.49875e+06
3.49879e+06
3.49882e+06
3.49886e+06
3.49889e+06
3.49892e+06
3.49895e+06
3.49897e+06
3.49899e+06
3.49902e+06
3.49904e+06
3.49905e+06
3.49907e+06
3.49908e+06
3.49909e+06
3.4991e+06
3.49911e+06
3.49911e+06
3.49912e+06
3.49714e+06
3.49722e+06
3.4973e+06
3.49737e+06
3.49744e+06
3.49752e+06
3.4976e+06
3.49767e+06
3.49774e+06
3.49781e+06
3.49787e+06
3.49793e+06
3.498e+06
3.49806e+06
3.49811e+06
3.49817e+06
3.49823e+06
3.49829e+06
3.49834e+06
3.49839e+06
3.49845e+06
3.4985e+06
3.49855e+06
3.4986e+06
3.49864e+06
3.49869e+06
3.49873e+06
3.49877e+06
3.49881e+06
3.49884e+06
3.49887e+06
3.49891e+06
3.49893e+06
3.49896e+06
3.49898e+06
3.49901e+06
3.49903e+06
3.49904e+06
3.49906e+06
3.49907e+06
3.49909e+06
3.49909e+06
3.4991e+06
3.49911e+06
3.49911e+06
3.49701e+06
3.4971e+06
3.49717e+06
3.49724e+06
3.49732e+06
3.49741e+06
3.49749e+06
3.49757e+06
3.49764e+06
3.49772e+06
3.49779e+06
3.49786e+06
3.49792e+06
3.49799e+06
3.49805e+06
3.49811e+06
3.49818e+06
3.49824e+06
3.4983e+06
3.49835e+06
3.49841e+06
3.49846e+06
3.49852e+06
3.49857e+06
3.49862e+06
3.49866e+06
3.49871e+06
3.49875e+06
3.49879e+06
3.49883e+06
3.49886e+06
3.49889e+06
3.49892e+06
3.49895e+06
3.49897e+06
3.499e+06
3.49902e+06
3.49904e+06
3.49905e+06
3.49907e+06
3.49908e+06
3.49909e+06
3.49909e+06
3.4991e+06
3.4991e+06
3.49685e+06
3.49695e+06
3.49703e+06
3.49711e+06
3.49719e+06
3.49728e+06
3.49737e+06
3.49746e+06
3.49754e+06
3.49762e+06
3.4977e+06
3.49777e+06
3.49784e+06
3.49792e+06
3.49798e+06
3.49805e+06
3.49812e+06
3.49818e+06
3.49825e+06
3.49831e+06
3.49837e+06
3.49843e+06
3.49849e+06
3.49854e+06
3.49859e+06
3.49864e+06
3.49869e+06
3.49873e+06
3.49877e+06
3.49881e+06
3.49885e+06
3.49888e+06
3.49891e+06
3.49894e+06
3.49896e+06
3.49899e+06
3.49901e+06
3.49903e+06
3.49904e+06
3.49906e+06
3.49907e+06
3.49908e+06
3.49909e+06
3.49909e+06
3.4991e+06
3.49669e+06
3.4968e+06
3.49688e+06
3.49696e+06
3.49706e+06
3.49715e+06
3.49725e+06
3.49734e+06
3.49743e+06
3.49752e+06
3.4976e+06
3.49768e+06
3.49776e+06
3.49784e+06
3.49791e+06
3.49799e+06
3.49806e+06
3.49813e+06
3.4982e+06
3.49827e+06
3.49833e+06
3.49839e+06
3.49845e+06
3.49851e+06
3.49857e+06
3.49862e+06
3.49867e+06
3.49871e+06
3.49876e+06
3.4988e+06
3.49883e+06
3.49887e+06
3.4989e+06
3.49893e+06
3.49896e+06
3.49898e+06
3.499e+06
3.49902e+06
3.49904e+06
3.49905e+06
3.49906e+06
3.49907e+06
3.49908e+06
3.49909e+06
3.49909e+06
3.49649e+06
3.49661e+06
3.4967e+06
3.4968e+06
3.4969e+06
3.497e+06
3.49711e+06
3.49721e+06
3.49731e+06
3.49741e+06
3.4975e+06
3.49759e+06
3.49767e+06
3.49776e+06
3.49784e+06
3.49792e+06
3.498e+06
3.49807e+06
3.49815e+06
3.49822e+06
3.49829e+06
3.49836e+06
3.49842e+06
3.49848e+06
3.49854e+06
3.49859e+06
3.49864e+06
3.49869e+06
3.49874e+06
3.49878e+06
3.49882e+06
3.49886e+06
3.49889e+06
3.49892e+06
3.49895e+06
3.49897e+06
3.49899e+06
3.49901e+06
3.49903e+06
3.49905e+06
3.49906e+06
3.49907e+06
3.49908e+06
3.49908e+06
3.49908e+06
3.49629e+06
3.49641e+06
3.49651e+06
3.49661e+06
3.49673e+06
3.49684e+06
3.49696e+06
3.49707e+06
3.49718e+06
3.49729e+06
3.49739e+06
3.49748e+06
3.49758e+06
3.49767e+06
3.49776e+06
3.49785e+06
3.49793e+06
3.49802e+06
3.4981e+06
3.49817e+06
3.49825e+06
3.49832e+06
3.49839e+06
3.49845e+06
3.49851e+06
3.49857e+06
3.49862e+06
3.49867e+06
3.49872e+06
3.49877e+06
3.49881e+06
3.49884e+06
3.49888e+06
3.49891e+06
3.49894e+06
3.49896e+06
3.49899e+06
3.49901e+06
3.49902e+06
3.49904e+06
3.49905e+06
3.49906e+06
3.49907e+06
3.49907e+06
3.49908e+06
3.496e+06
3.49615e+06
3.49627e+06
3.49639e+06
3.49652e+06
3.49666e+06
3.49679e+06
3.49692e+06
3.49704e+06
3.49715e+06
3.49727e+06
3.49737e+06
3.49748e+06
3.49758e+06
3.49768e+06
3.49777e+06
3.49787e+06
3.49795e+06
3.49804e+06
3.49812e+06
3.4982e+06
3.49828e+06
3.49835e+06
3.49842e+06
3.49848e+06
3.49855e+06
3.4986e+06
3.49866e+06
3.4987e+06
3.49875e+06
3.49879e+06
3.49883e+06
3.49887e+06
3.4989e+06
3.49893e+06
3.49895e+06
3.49898e+06
3.499e+06
3.49902e+06
3.49903e+06
3.49905e+06
3.49906e+06
3.49906e+06
3.49907e+06
3.49907e+06
3.49574e+06
3.49588e+06
3.49602e+06
3.49615e+06
3.4963e+06
3.49645e+06
3.4966e+06
3.49674e+06
3.49688e+06
3.49701e+06
3.49713e+06
3.49725e+06
3.49737e+06
3.49748e+06
3.49759e+06
3.49769e+06
3.49779e+06
3.49789e+06
3.49798e+06
3.49807e+06
3.49816e+06
3.49824e+06
3.49832e+06
3.49839e+06
3.49846e+06
3.49852e+06
3.49858e+06
3.49864e+06
3.49869e+06
3.49874e+06
3.49878e+06
3.49882e+06
3.49886e+06
3.49889e+06
3.49892e+06
3.49895e+06
3.49897e+06
3.49899e+06
3.49901e+06
3.49903e+06
3.49904e+06
3.49905e+06
3.49906e+06
3.49906e+06
3.49906e+06
3.49535e+06
3.49553e+06
3.4957e+06
3.49587e+06
3.49604e+06
3.49621e+06
3.49638e+06
3.49655e+06
3.4967e+06
3.49685e+06
3.49699e+06
3.49712e+06
3.49725e+06
3.49738e+06
3.49749e+06
3.49761e+06
3.49772e+06
3.49782e+06
3.49792e+06
3.49802e+06
3.49811e+06
3.4982e+06
3.49828e+06
3.49836e+06
3.49843e+06
3.4985e+06
3.49856e+06
3.49862e+06
3.49867e+06
3.49872e+06
3.49877e+06
3.49881e+06
3.49884e+06
3.49888e+06
3.49891e+06
3.49894e+06
3.49896e+06
3.49898e+06
3.499e+06
3.49902e+06
3.49903e+06
3.49904e+06
3.49905e+06
3.49906e+06
3.49906e+06
3.49508e+06
3.49522e+06
3.49539e+06
3.49557e+06
3.49577e+06
3.49596e+06
3.49615e+06
3.49634e+06
3.49651e+06
3.49668e+06
3.49683e+06
3.49698e+06
3.49713e+06
3.49726e+06
3.49739e+06
3.49752e+06
3.49764e+06
3.49775e+06
3.49786e+06
3.49797e+06
3.49806e+06
3.49816e+06
3.49824e+06
3.49833e+06
3.4984e+06
3.49847e+06
3.49854e+06
3.4986e+06
3.49866e+06
3.49871e+06
3.49875e+06
3.4988e+06
3.49883e+06
3.49887e+06
3.4989e+06
3.49893e+06
3.49896e+06
3.49898e+06
3.499e+06
3.49901e+06
3.49903e+06
3.49904e+06
3.49905e+06
3.49905e+06
3.49905e+06
3.49457e+06
3.49474e+06
3.49497e+06
3.49521e+06
3.49544e+06
3.49566e+06
3.49588e+06
3.4961e+06
3.4963e+06
3.49648e+06
3.49666e+06
3.49683e+06
3.49699e+06
3.49714e+06
3.49729e+06
3.49743e+06
3.49756e+06
3.49768e+06
3.4978e+06
3.49791e+06
3.49802e+06
3.49811e+06
3.49821e+06
3.49829e+06
3.49837e+06
3.49845e+06
3.49852e+06
3.49858e+06
3.49864e+06
3.49869e+06
3.49874e+06
3.49878e+06
3.49882e+06
3.49886e+06
3.49889e+06
3.49892e+06
3.49895e+06
3.49897e+06
3.49899e+06
3.49901e+06
3.49902e+06
3.49903e+06
3.49904e+06
3.49905e+06
3.49905e+06
3.49421e+06
3.49434e+06
3.49459e+06
3.49484e+06
3.4951e+06
3.49535e+06
3.4956e+06
3.49584e+06
3.49606e+06
3.49627e+06
3.49648e+06
3.49666e+06
3.49684e+06
3.49701e+06
3.49717e+06
3.49733e+06
3.49747e+06
3.49761e+06
3.49773e+06
3.49785e+06
3.49797e+06
3.49807e+06
3.49817e+06
3.49826e+06
3.49835e+06
3.49842e+06
3.4985e+06
3.49856e+06
3.49862e+06
3.49868e+06
3.49873e+06
3.49877e+06
3.49882e+06
3.49885e+06
3.49889e+06
3.49892e+06
3.49894e+06
3.49897e+06
3.49899e+06
3.499e+06
3.49902e+06
3.49903e+06
3.49904e+06
3.49904e+06
3.49904e+06
3.49349e+06
3.49372e+06
3.49404e+06
3.49437e+06
3.49468e+06
3.49498e+06
3.49527e+06
3.49554e+06
3.4958e+06
3.49604e+06
3.49627e+06
3.49649e+06
3.49669e+06
3.49688e+06
3.49705e+06
3.49722e+06
3.49738e+06
3.49753e+06
3.49767e+06
3.4978e+06
3.49792e+06
3.49803e+06
3.49813e+06
3.49823e+06
3.49832e+06
3.4984e+06
3.49848e+06
3.49855e+06
3.49861e+06
3.49866e+06
3.49872e+06
3.49876e+06
3.49881e+06
3.49884e+06
3.49888e+06
3.49891e+06
3.49894e+06
3.49896e+06
3.49898e+06
3.499e+06
3.49901e+06
3.49902e+06
3.49903e+06
3.49904e+06
3.49904e+06
3.49311e+06
3.49329e+06
3.4936e+06
3.49393e+06
3.49427e+06
3.49459e+06
3.49491e+06
3.49523e+06
3.49552e+06
3.49579e+06
3.49605e+06
3.49629e+06
3.49652e+06
3.49673e+06
3.49693e+06
3.49711e+06
3.49729e+06
3.49745e+06
3.4976e+06
3.49774e+06
3.49787e+06
3.49799e+06
3.4981e+06
3.4982e+06
3.49829e+06
3.49838e+06
3.49846e+06
3.49853e+06
3.49859e+06
3.49865e+06
3.4987e+06
3.49875e+06
3.4988e+06
3.49884e+06
3.49887e+06
3.4989e+06
3.49893e+06
3.49895e+06
3.49898e+06
3.49899e+06
3.49901e+06
3.49902e+06
3.49903e+06
3.49903e+06
3.49903e+06
3.49211e+06
3.49245e+06
3.49288e+06
3.49331e+06
3.49373e+06
3.49413e+06
3.49451e+06
3.49487e+06
3.4952e+06
3.49552e+06
3.49581e+06
3.49608e+06
3.49634e+06
3.49658e+06
3.4968e+06
3.497e+06
3.49719e+06
3.49736e+06
3.49753e+06
3.49768e+06
3.49782e+06
3.49794e+06
3.49806e+06
3.49817e+06
3.49827e+06
3.49836e+06
3.49844e+06
3.49851e+06
3.49858e+06
3.49864e+06
3.49869e+06
3.49874e+06
3.49879e+06
3.49883e+06
3.49886e+06
3.4989e+06
3.49892e+06
3.49895e+06
3.49897e+06
3.49899e+06
3.499e+06
3.49902e+06
3.49902e+06
3.49903e+06
3.49903e+06
3.49172e+06
3.49196e+06
3.49235e+06
3.49278e+06
3.49322e+06
3.49365e+06
3.49407e+06
3.49448e+06
3.49486e+06
3.49522e+06
3.49555e+06
3.49586e+06
3.49615e+06
3.49641e+06
3.49666e+06
3.49688e+06
3.49709e+06
3.49728e+06
3.49746e+06
3.49762e+06
3.49776e+06
3.4979e+06
3.49802e+06
3.49814e+06
3.49824e+06
3.49833e+06
3.49842e+06
3.49849e+06
3.49856e+06
3.49863e+06
3.49868e+06
3.49873e+06
3.49878e+06
3.49882e+06
3.49886e+06
3.49889e+06
3.49892e+06
3.49894e+06
3.49897e+06
3.49898e+06
3.499e+06
3.49901e+06
3.49902e+06
3.49903e+06
3.49903e+06
3.4902e+06
3.49074e+06
3.49134e+06
3.49194e+06
3.49252e+06
3.49305e+06
3.49356e+06
3.49404e+06
3.49448e+06
3.49489e+06
3.49527e+06
3.49562e+06
3.49594e+06
3.49624e+06
3.49651e+06
3.49676e+06
3.49699e+06
3.49719e+06
3.49738e+06
3.49756e+06
3.49771e+06
3.49786e+06
3.49799e+06
3.49811e+06
3.49821e+06
3.49831e+06
3.4984e+06
3.49848e+06
3.49855e+06
3.49861e+06
3.49867e+06
3.49873e+06
3.49877e+06
3.49881e+06
3.49885e+06
3.49888e+06
3.49891e+06
3.49894e+06
3.49896e+06
3.49898e+06
3.499e+06
3.49901e+06
3.49902e+06
3.49902e+06
3.49902e+06
3.4898e+06
3.49017e+06
3.49069e+06
3.49127e+06
3.49187e+06
3.49245e+06
3.49302e+06
3.49357e+06
3.49407e+06
3.49454e+06
3.49497e+06
3.49537e+06
3.49573e+06
3.49606e+06
3.49636e+06
3.49663e+06
3.49688e+06
3.49711e+06
3.49731e+06
3.4975e+06
3.49766e+06
3.49782e+06
3.49795e+06
3.49808e+06
3.49819e+06
3.49829e+06
3.49838e+06
3.49846e+06
3.49854e+06
3.4986e+06
3.49866e+06
3.49872e+06
3.49876e+06
3.49881e+06
3.49885e+06
3.49888e+06
3.49891e+06
3.49894e+06
3.49896e+06
3.49898e+06
3.49899e+06
3.49901e+06
3.49901e+06
3.49902e+06
3.49902e+06
3.48739e+06
3.4883e+06
3.48922e+06
3.49009e+06
3.49091e+06
3.49167e+06
3.49237e+06
3.49302e+06
3.49361e+06
3.49416e+06
3.49465e+06
3.4951e+06
3.49551e+06
3.49588e+06
3.49621e+06
3.49651e+06
3.49678e+06
3.49702e+06
3.49724e+06
3.49744e+06
3.49761e+06
3.49777e+06
3.49792e+06
3.49805e+06
3.49817e+06
3.49827e+06
3.49836e+06
3.49845e+06
3.49852e+06
3.49859e+06
3.49865e+06
3.49871e+06
3.49876e+06
3.4988e+06
3.49884e+06
3.49887e+06
3.49891e+06
3.49893e+06
3.49895e+06
3.49897e+06
3.49899e+06
3.499e+06
3.49901e+06
3.49902e+06
3.49902e+06
3.48578e+06
3.4863e+06
3.48696e+06
3.48763e+06
3.4884e+06
3.48924e+06
3.49009e+06
3.49092e+06
3.4917e+06
3.49244e+06
3.49313e+06
3.49375e+06
3.49431e+06
3.49482e+06
3.49528e+06
3.49568e+06
3.49605e+06
3.49638e+06
3.49667e+06
3.49693e+06
3.49717e+06
3.49738e+06
3.49757e+06
3.49773e+06
3.49789e+06
3.49802e+06
3.49814e+06
3.49825e+06
3.49835e+06
3.49844e+06
3.49851e+06
3.49858e+06
3.49865e+06
3.4987e+06
3.49875e+06
3.4988e+06
3.49884e+06
3.49887e+06
3.4989e+06
3.49893e+06
3.49895e+06
3.49897e+06
3.49899e+06
3.499e+06
3.49901e+06
3.49901e+06
3.49901e+06
3.47909e+06
3.48111e+06
3.48305e+06
3.48472e+06
3.4862e+06
3.48755e+06
3.48877e+06
3.48988e+06
3.49087e+06
3.49177e+06
3.49258e+06
3.4933e+06
3.49395e+06
3.49453e+06
3.49504e+06
3.49549e+06
3.49589e+06
3.49625e+06
3.49657e+06
3.49685e+06
3.4971e+06
3.49732e+06
3.49752e+06
3.4977e+06
3.49785e+06
3.498e+06
3.49812e+06
3.49823e+06
3.49833e+06
3.49842e+06
3.4985e+06
3.49857e+06
3.49864e+06
3.49869e+06
3.49875e+06
3.49879e+06
3.49883e+06
3.49887e+06
3.4989e+06
3.49892e+06
3.49895e+06
3.49897e+06
3.49898e+06
3.499e+06
3.49901e+06
3.49901e+06
3.49901e+06
3.48131e+06
3.48184e+06
3.48284e+06
3.48399e+06
3.4852e+06
3.48649e+06
3.48775e+06
3.48895e+06
3.49007e+06
3.4911e+06
3.49202e+06
3.49285e+06
3.49358e+06
3.49423e+06
3.4948e+06
3.4953e+06
3.49574e+06
3.49612e+06
3.49647e+06
3.49677e+06
3.49703e+06
3.49727e+06
3.49748e+06
3.49766e+06
3.49783e+06
3.49797e+06
3.4981e+06
3.49822e+06
3.49832e+06
3.49841e+06
3.49849e+06
3.49857e+06
3.49863e+06
3.49869e+06
3.49874e+06
3.49879e+06
3.49883e+06
3.49886e+06
3.49889e+06
3.49892e+06
3.49895e+06
3.49897e+06
3.49898e+06
3.49899e+06
3.499e+06
3.49901e+06
3.49901e+06
3.46998e+06
3.47338e+06
3.47666e+06
3.47951e+06
3.48193e+06
3.4841e+06
3.48597e+06
3.48762e+06
3.48905e+06
3.49031e+06
3.49141e+06
3.49236e+06
3.4932e+06
3.49392e+06
3.49456e+06
3.49511e+06
3.49558e+06
3.496e+06
3.49637e+06
3.49669e+06
3.49697e+06
3.49722e+06
3.49743e+06
3.49763e+06
3.4978e+06
3.49795e+06
3.49808e+06
3.4982e+06
3.49831e+06
3.4984e+06
3.49848e+06
3.49856e+06
3.49862e+06
3.49868e+06
3.49873e+06
3.49878e+06
3.49882e+06
3.49886e+06
3.49889e+06
3.49892e+06
3.49894e+06
3.49896e+06
3.49898e+06
3.49899e+06
3.499e+06
3.49901e+06
3.49901e+06
3.47485e+06
3.47519e+06
3.47688e+06
3.47876e+06
3.48076e+06
3.48282e+06
3.48474e+06
3.48654e+06
3.48814e+06
3.48956e+06
3.4908e+06
3.49189e+06
3.49282e+06
3.49363e+06
3.49432e+06
3.49492e+06
3.49544e+06
3.49589e+06
3.49628e+06
3.49662e+06
3.49691e+06
3.49717e+06
3.4974e+06
3.4976e+06
3.49777e+06
3.49793e+06
3.49807e+06
3.49819e+06
3.4983e+06
3.49839e+06
3.49848e+06
3.49855e+06
3.49862e+06
3.49868e+06
3.49873e+06
3.49878e+06
3.49882e+06
3.49886e+06
3.49889e+06
3.49892e+06
3.49894e+06
3.49896e+06
3.49898e+06
3.49899e+06
3.499e+06
3.49901e+06
3.49901e+06
3.4551e+06
3.4608e+06
3.46699e+06
3.4719e+06
3.47604e+06
3.47957e+06
3.48245e+06
3.48492e+06
3.48696e+06
3.4887e+06
3.49016e+06
3.4914e+06
3.49245e+06
3.49334e+06
3.4941e+06
3.49475e+06
3.4953e+06
3.49578e+06
3.49619e+06
3.49655e+06
3.49686e+06
3.49713e+06
3.49736e+06
3.49757e+06
3.49775e+06
3.49791e+06
3.49805e+06
3.49818e+06
3.49829e+06
3.49838e+06
3.49847e+06
3.49854e+06
3.49861e+06
3.49867e+06
3.49873e+06
3.49877e+06
3.49882e+06
3.49885e+06
3.49889e+06
3.49891e+06
3.49894e+06
3.49896e+06
3.49898e+06
3.49899e+06
3.499e+06
3.499e+06
3.49901e+06
3.46332e+06
3.46363e+06
3.46781e+06
3.47127e+06
3.47481e+06
3.47818e+06
3.48112e+06
3.48378e+06
3.48602e+06
3.48795e+06
3.48958e+06
3.49095e+06
3.4921e+06
3.49308e+06
3.4939e+06
3.49459e+06
3.49518e+06
3.49569e+06
3.49612e+06
3.49649e+06
3.49681e+06
3.49709e+06
3.49733e+06
3.49755e+06
3.49773e+06
3.4979e+06
3.49804e+06
3.49817e+06
3.49828e+06
3.49838e+06
3.49846e+06
3.49854e+06
3.49861e+06
3.49867e+06
3.49872e+06
3.49877e+06
3.49881e+06
3.49885e+06
3.49888e+06
3.49891e+06
3.49894e+06
3.49896e+06
3.49898e+06
3.49899e+06
3.499e+06
3.499e+06
3.499e+06
3.43167e+06
3.44198e+06
3.45374e+06
3.46206e+06
3.46882e+06
3.4743e+06
3.47856e+06
3.48207e+06
3.48485e+06
3.48714e+06
3.48899e+06
3.49052e+06
3.49179e+06
3.49284e+06
3.49372e+06
3.49446e+06
3.49508e+06
3.49561e+06
3.49606e+06
3.49644e+06
3.49677e+06
3.49706e+06
3.49731e+06
3.49753e+06
3.49772e+06
3.49788e+06
3.49803e+06
3.49816e+06
3.49827e+06
3.49837e+06
3.49846e+06
3.49854e+06
3.4986e+06
3.49867e+06
3.49872e+06
3.49877e+06
3.49881e+06
3.49885e+06
3.49888e+06
3.49891e+06
3.49894e+06
3.49896e+06
3.49898e+06
3.49899e+06
3.499e+06
3.499e+06
3.499e+06
3.44638e+06
3.44635e+06
3.45514e+06
3.46151e+06
3.46761e+06
3.47299e+06
3.47735e+06
3.48107e+06
3.48406e+06
3.48653e+06
3.48853e+06
3.49018e+06
3.49153e+06
3.49265e+06
3.49357e+06
3.49435e+06
3.49499e+06
3.49554e+06
3.496e+06
3.4964e+06
3.49674e+06
3.49704e+06
3.49729e+06
3.49751e+06
3.4977e+06
3.49787e+06
3.49802e+06
3.49815e+06
3.49826e+06
3.49836e+06
3.49845e+06
3.49853e+06
3.4986e+06
3.49866e+06
3.49872e+06
3.49877e+06
3.49881e+06
3.49885e+06
3.49888e+06
3.49891e+06
3.49894e+06
3.49896e+06
3.49898e+06
3.49899e+06
3.499e+06
3.499e+06
3.499e+06
3.3958e+06
3.41727e+06
3.43796e+06
3.45161e+06
3.46176e+06
3.46955e+06
3.47527e+06
3.47979e+06
3.48324e+06
3.48598e+06
3.48816e+06
3.48992e+06
3.49134e+06
3.49251e+06
3.49347e+06
3.49427e+06
3.49493e+06
3.4955e+06
3.49597e+06
3.49638e+06
3.49672e+06
3.49702e+06
3.49728e+06
3.4975e+06
3.4977e+06
3.49787e+06
3.49802e+06
3.49815e+06
3.49826e+06
3.49836e+06
3.49845e+06
3.49853e+06
3.4986e+06
3.49866e+06
3.49872e+06
3.49877e+06
3.49881e+06
3.49885e+06
3.49888e+06
3.49891e+06
3.49894e+06
3.49896e+06
3.49898e+06
3.49899e+06
3.499e+06
3.499e+06
3.499e+06
3.40326e+06
3.4193e+06
3.43778e+06
3.45061e+06
3.46059e+06
3.46855e+06
3.47446e+06
3.47917e+06
3.48278e+06
3.48565e+06
3.48792e+06
3.48974e+06
3.49122e+06
3.49242e+06
3.49341e+06
3.49422e+06
3.4949e+06
3.49547e+06
3.49595e+06
3.49636e+06
3.49671e+06
3.49701e+06
3.49727e+06
3.4975e+06
3.49769e+06
3.49786e+06
3.49801e+06
3.49814e+06
3.49826e+06
3.49836e+06
3.49845e+06
3.49853e+06
3.4986e+06
3.49866e+06
3.49872e+06
3.49877e+06
3.49881e+06
3.49885e+06
3.49888e+06
3.49891e+06
3.49894e+06
3.49896e+06
3.49898e+06
3.49899e+06
3.499e+06
3.499e+06
3.499e+06
3.4991e+06
3.49911e+06
3.49913e+06
3.49914e+06
3.49915e+06
3.49916e+06
3.49916e+06
3.49917e+06
3.49917e+06
3.49904e+06
3.49906e+06
3.49908e+06
3.49909e+06
3.49911e+06
3.49912e+06
3.49913e+06
3.49914e+06
3.49915e+06
3.49915e+06
3.49916e+06
3.49916e+06
3.49792e+06
3.49795e+06
3.49798e+06
3.49802e+06
3.49806e+06
3.49809e+06
3.49814e+06
3.49818e+06
3.49822e+06
3.49826e+06
3.49829e+06
3.49833e+06
3.49837e+06
3.4984e+06
3.49844e+06
3.49847e+06
3.49851e+06
3.49855e+06
3.49858e+06
3.49862e+06
3.49865e+06
3.49869e+06
3.49872e+06
3.49875e+06
3.49879e+06
3.49882e+06
3.49885e+06
3.49888e+06
3.49891e+06
3.49893e+06
3.49896e+06
3.49898e+06
3.49901e+06
3.49903e+06
3.49905e+06
3.49906e+06
3.49908e+06
3.4991e+06
3.49911e+06
3.49912e+06
3.49913e+06
3.49914e+06
3.49915e+06
3.49915e+06
3.49915e+06
3.49782e+06
3.49785e+06
3.49788e+06
3.49792e+06
3.49797e+06
3.49801e+06
3.49806e+06
3.4981e+06
3.49815e+06
3.49819e+06
3.49823e+06
3.49827e+06
3.49831e+06
3.49835e+06
3.49839e+06
3.49843e+06
3.49847e+06
3.49851e+06
3.49855e+06
3.49858e+06
3.49862e+06
3.49866e+06
3.49869e+06
3.49873e+06
3.49876e+06
3.4988e+06
3.49883e+06
3.49886e+06
3.49889e+06
3.49892e+06
3.49895e+06
3.49897e+06
3.49899e+06
3.49902e+06
3.49904e+06
3.49905e+06
3.49907e+06
3.49909e+06
3.4991e+06
3.49911e+06
3.49912e+06
3.49913e+06
3.49914e+06
3.49914e+06
3.49915e+06
3.49769e+06
3.49774e+06
3.49778e+06
3.49783e+06
3.49788e+06
3.49792e+06
3.49798e+06
3.49803e+06
3.49808e+06
3.49812e+06
3.49817e+06
3.49821e+06
3.49825e+06
3.4983e+06
3.49834e+06
3.49838e+06
3.49842e+06
3.49847e+06
3.49851e+06
3.49855e+06
3.49859e+06
3.49863e+06
3.49867e+06
3.4987e+06
3.49874e+06
3.49878e+06
3.49881e+06
3.49884e+06
3.49887e+06
3.4989e+06
3.49893e+06
3.49896e+06
3.49898e+06
3.499e+06
3.49903e+06
3.49904e+06
3.49906e+06
3.49908e+06
3.49909e+06
3.4991e+06
3.49912e+06
3.49912e+06
3.49913e+06
3.49914e+06
3.49914e+06
3.49756e+06
3.49762e+06
3.49767e+06
3.49772e+06
3.49777e+06
3.49783e+06
3.49789e+06
3.49794e+06
3.498e+06
3.49805e+06
3.4981e+06
3.49815e+06
3.49819e+06
3.49824e+06
3.49829e+06
3.49833e+06
3.49838e+06
3.49842e+06
3.49847e+06
3.49851e+06
3.49855e+06
3.4986e+06
3.49864e+06
3.49868e+06
3.49872e+06
3.49875e+06
3.49879e+06
3.49882e+06
3.49886e+06
3.49889e+06
3.49892e+06
3.49894e+06
3.49897e+06
3.49899e+06
3.49902e+06
3.49904e+06
3.49905e+06
3.49907e+06
3.49908e+06
3.4991e+06
3.49911e+06
3.49912e+06
3.49912e+06
3.49913e+06
3.49913e+06
3.49741e+06
3.49749e+06
3.49755e+06
3.4976e+06
3.49767e+06
3.49773e+06
3.4978e+06
3.49786e+06
3.49792e+06
3.49797e+06
3.49803e+06
3.49808e+06
3.49813e+06
3.49818e+06
3.49823e+06
3.49828e+06
3.49833e+06
3.49838e+06
3.49843e+06
3.49847e+06
3.49852e+06
3.49857e+06
3.49861e+06
3.49865e+06
3.49869e+06
3.49873e+06
3.49877e+06
3.49881e+06
3.49884e+06
3.49887e+06
3.4989e+06
3.49893e+06
3.49896e+06
3.49898e+06
3.499e+06
3.49903e+06
3.49904e+06
3.49906e+06
3.49908e+06
3.49909e+06
3.4991e+06
3.49911e+06
3.49912e+06
3.49912e+06
3.49912e+06
3.49728e+06
3.49736e+06
3.49742e+06
3.49749e+06
3.49756e+06
3.49763e+06
3.4977e+06
3.49777e+06
3.49783e+06
3.49789e+06
3.49795e+06
3.49801e+06
3.49807e+06
3.49812e+06
3.49818e+06
3.49823e+06
3.49828e+06
3.49833e+06
3.49838e+06
3.49843e+06
3.49848e+06
3.49853e+06
3.49858e+06
3.49862e+06
3.49867e+06
3.49871e+06
3.49875e+06
3.49879e+06
3.49882e+06
3.49886e+06
3.49889e+06
3.49892e+06
3.49895e+06
3.49897e+06
3.49899e+06
3.49902e+06
3.49904e+06
3.49905e+06
3.49907e+06
3.49908e+06
3.49909e+06
3.4991e+06
3.49911e+06
3.49911e+06
3.49912e+06
3.49714e+06
3.49722e+06
3.4973e+06
3.49737e+06
3.49744e+06
3.49752e+06
3.4976e+06
3.49767e+06
3.49774e+06
3.49781e+06
3.49787e+06
3.49793e+06
3.498e+06
3.49806e+06
3.49811e+06
3.49817e+06
3.49823e+06
3.49829e+06
3.49834e+06
3.49839e+06
3.49845e+06
3.4985e+06
3.49855e+06
3.4986e+06
3.49864e+06
3.49869e+06
3.49873e+06
3.49877e+06
3.49881e+06
3.49884e+06
3.49887e+06
3.49891e+06
3.49893e+06
3.49896e+06
3.49898e+06
3.49901e+06
3.49903e+06
3.49904e+06
3.49906e+06
3.49907e+06
3.49909e+06
3.49909e+06
3.4991e+06
3.49911e+06
3.49911e+06
3.49701e+06
3.4971e+06
3.49717e+06
3.49724e+06
3.49732e+06
3.49741e+06
3.49749e+06
3.49757e+06
3.49764e+06
3.49772e+06
3.49779e+06
3.49786e+06
3.49792e+06
3.49799e+06
3.49805e+06
3.49811e+06
3.49818e+06
3.49824e+06
3.4983e+06
3.49835e+06
3.49841e+06
3.49846e+06
3.49852e+06
3.49857e+06
3.49862e+06
3.49866e+06
3.49871e+06
3.49875e+06
3.49879e+06
3.49883e+06
3.49886e+06
3.49889e+06
3.49892e+06
3.49895e+06
3.49897e+06
3.499e+06
3.49902e+06
3.49904e+06
3.49905e+06
3.49907e+06
3.49908e+06
3.49909e+06
3.49909e+06
3.4991e+06
3.4991e+06
3.49685e+06
3.49695e+06
3.49703e+06
3.49711e+06
3.49719e+06
3.49728e+06
3.49737e+06
3.49746e+06
3.49754e+06
3.49762e+06
3.4977e+06
3.49777e+06
3.49784e+06
3.49792e+06
3.49798e+06
3.49805e+06
3.49812e+06
3.49818e+06
3.49825e+06
3.49831e+06
3.49837e+06
3.49843e+06
3.49849e+06
3.49854e+06
3.49859e+06
3.49864e+06
3.49869e+06
3.49873e+06
3.49877e+06
3.49881e+06
3.49885e+06
3.49888e+06
3.49891e+06
3.49894e+06
3.49896e+06
3.49899e+06
3.49901e+06
3.49903e+06
3.49904e+06
3.49906e+06
3.49907e+06
3.49908e+06
3.49909e+06
3.49909e+06
3.4991e+06
3.49669e+06
3.4968e+06
3.49688e+06
3.49696e+06
3.49706e+06
3.49715e+06
3.49725e+06
3.49734e+06
3.49743e+06
3.49752e+06
3.4976e+06
3.49768e+06
3.49776e+06
3.49784e+06
3.49791e+06
3.49799e+06
3.49806e+06
3.49813e+06
3.4982e+06
3.49827e+06
3.49833e+06
3.49839e+06
3.49845e+06
3.49851e+06
3.49857e+06
3.49862e+06
3.49867e+06
3.49871e+06
3.49876e+06
3.4988e+06
3.49883e+06
3.49887e+06
3.4989e+06
3.49893e+06
3.49896e+06
3.49898e+06
3.499e+06
3.49902e+06
3.49904e+06
3.49905e+06
3.49906e+06
3.49907e+06
3.49908e+06
3.49909e+06
3.49909e+06
3.49649e+06
3.49661e+06
3.4967e+06
3.4968e+06
3.4969e+06
3.497e+06
3.49711e+06
3.49721e+06
3.49731e+06
3.49741e+06
3.4975e+06
3.49759e+06
3.49767e+06
3.49776e+06
3.49784e+06
3.49792e+06
3.498e+06
3.49807e+06
3.49815e+06
3.49822e+06
3.49829e+06
3.49836e+06
3.49842e+06
3.49848e+06
3.49854e+06
3.49859e+06
3.49864e+06
3.49869e+06
3.49874e+06
3.49878e+06
3.49882e+06
3.49886e+06
3.49889e+06
3.49892e+06
3.49895e+06
3.49897e+06
3.49899e+06
3.49901e+06
3.49903e+06
3.49905e+06
3.49906e+06
3.49907e+06
3.49908e+06
3.49908e+06
3.49908e+06
3.49629e+06
3.49641e+06
3.49651e+06
3.49661e+06
3.49673e+06
3.49684e+06
3.49696e+06
3.49707e+06
3.49718e+06
3.49729e+06
3.49739e+06
3.49748e+06
3.49758e+06
3.49767e+06
3.49776e+06
3.49785e+06
3.49793e+06
3.49802e+06
3.4981e+06
3.49817e+06
3.49825e+06
3.49832e+06
3.49839e+06
3.49845e+06
3.49851e+06
3.49857e+06
3.49862e+06
3.49867e+06
3.49872e+06
3.49877e+06
3.49881e+06
3.49884e+06
3.49888e+06
3.49891e+06
3.49894e+06
3.49896e+06
3.49899e+06
3.49901e+06
3.49902e+06
3.49904e+06
3.49905e+06
3.49906e+06
3.49907e+06
3.49907e+06
3.49908e+06
3.496e+06
3.49615e+06
3.49627e+06
3.49639e+06
3.49652e+06
3.49666e+06
3.49679e+06
3.49692e+06
3.49704e+06
3.49715e+06
3.49727e+06
3.49737e+06
3.49748e+06
3.49758e+06
3.49768e+06
3.49777e+06
3.49787e+06
3.49795e+06
3.49804e+06
3.49812e+06
3.4982e+06
3.49828e+06
3.49835e+06
3.49842e+06
3.49848e+06
3.49855e+06
3.4986e+06
3.49866e+06
3.4987e+06
3.49875e+06
3.49879e+06
3.49883e+06
3.49887e+06
3.4989e+06
3.49893e+06
3.49895e+06
3.49898e+06
3.499e+06
3.49902e+06
3.49903e+06
3.49905e+06
3.49906e+06
3.49906e+06
3.49907e+06
3.49907e+06
3.49574e+06
3.49588e+06
3.49602e+06
3.49615e+06
3.4963e+06
3.49645e+06
3.4966e+06
3.49674e+06
3.49688e+06
3.49701e+06
3.49713e+06
3.49725e+06
3.49737e+06
3.49748e+06
3.49759e+06
3.49769e+06
3.49779e+06
3.49789e+06
3.49798e+06
3.49807e+06
3.49816e+06
3.49824e+06
3.49832e+06
3.49839e+06
3.49846e+06
3.49852e+06
3.49858e+06
3.49864e+06
3.49869e+06
3.49874e+06
3.49878e+06
3.49882e+06
3.49886e+06
3.49889e+06
3.49892e+06
3.49895e+06
3.49897e+06
3.49899e+06
3.49901e+06
3.49903e+06
3.49904e+06
3.49905e+06
3.49906e+06
3.49906e+06
3.49906e+06
3.49535e+06
3.49553e+06
3.4957e+06
3.49587e+06
3.49604e+06
3.49621e+06
3.49638e+06
3.49655e+06
3.4967e+06
3.49685e+06
3.49699e+06
3.49712e+06
3.49725e+06
3.49738e+06
3.49749e+06
3.49761e+06
3.49772e+06
3.49782e+06
3.49792e+06
3.49802e+06
3.49811e+06
3.4982e+06
3.49828e+06
3.49836e+06
3.49843e+06
3.4985e+06
3.49856e+06
3.49862e+06
3.49867e+06
3.49872e+06
3.49877e+06
3.49881e+06
3.49884e+06
3.49888e+06
3.49891e+06
3.49894e+06
3.49896e+06
3.49898e+06
3.499e+06
3.49902e+06
3.49903e+06
3.49904e+06
3.49905e+06
3.49906e+06
3.49906e+06
3.49508e+06
3.49522e+06
3.49539e+06
3.49557e+06
3.49577e+06
3.49596e+06
3.49615e+06
3.49634e+06
3.49651e+06
3.49668e+06
3.49683e+06
3.49698e+06
3.49713e+06
3.49726e+06
3.49739e+06
3.49752e+06
3.49764e+06
3.49775e+06
3.49786e+06
3.49797e+06
3.49806e+06
3.49816e+06
3.49824e+06
3.49833e+06
3.4984e+06
3.49847e+06
3.49854e+06
3.4986e+06
3.49866e+06
3.49871e+06
3.49875e+06
3.4988e+06
3.49883e+06
3.49887e+06
3.4989e+06
3.49893e+06
3.49896e+06
3.49898e+06
3.499e+06
3.49901e+06
3.49903e+06
3.49904e+06
3.49905e+06
3.49905e+06
3.49905e+06
3.49457e+06
3.49474e+06
3.49497e+06
3.49521e+06
3.49544e+06
3.49566e+06
3.49588e+06
3.4961e+06
3.4963e+06
3.49648e+06
3.49666e+06
3.49683e+06
3.49699e+06
3.49714e+06
3.49729e+06
3.49743e+06
3.49756e+06
3.49768e+06
3.4978e+06
3.49791e+06
3.49802e+06
3.49811e+06
3.49821e+06
3.49829e+06
3.49837e+06
3.49845e+06
3.49852e+06
3.49858e+06
3.49864e+06
3.49869e+06
3.49874e+06
3.49878e+06
3.49882e+06
3.49886e+06
3.49889e+06
3.49892e+06
3.49895e+06
3.49897e+06
3.49899e+06
3.49901e+06
3.49902e+06
3.49903e+06
3.49904e+06
3.49905e+06
3.49905e+06
3.49421e+06
3.49434e+06
3.49459e+06
3.49484e+06