/*--------------------------------*- C++ -*----------------------------------*\
| =========                 |                                                 |
| \\      /  F ield         | OpenFOAM: The Open Source CFD Toolbox           |
|  \\    /   O peration     | Version:  v2012                                 |
|   \\  /    A nd           | Website:  www.openfoam.com                      |
|    \\/     M anipulation  |                                                 |
\*---------------------------------------------------------------------------*/
FoamFile
{
    version     2.0;
    format      ascii;
    class       surfaceScalarField;
    location    "1";
    object      alphaPhi0.water;
}
// * * * * * * * * * * * * * * * * * * * * * * * * * * * * * * * * * * * * * //

dimensions      [0 3 -1 0 0 0 0];
oriented        oriented;


internalField   nonuniform List<scalar> 
8048
(
-2.52308e-12
-7.5463e-09
-3.36979e-15
-1.38941e-10
-2.35937e-08
3.37576e-15
-4.92996e-12
-3.18019e-08
-1.20217e-14
4.13718e-09
-4.38346e-08
-3.50414e-15
8.79561e-09
-7.20341e-08
-8.20531e-15
1.13455e-08
-9.99422e-08
-8.81798e-15
1.23608e-08
-1.22677e-07
-9.12892e-15
-1.3266e-07
-5.51419e-14
-2.31246e-12
-7.54399e-09
-2.85212e-15
-1.4391e-10
-2.34521e-08
-2.33632e-15
2.43458e-10
-3.21893e-08
-1.98439e-14
4.06073e-09
-4.76518e-08
-1.72225e-14
7.32657e-09
-7.52999e-08
-5.28337e-15
9.06933e-09
-1.01685e-07
-6.65483e-15
9.70525e-09
-1.23312e-07
-1.46061e-14
8.95562e-09
-1.3191e-07
-1.16236e-14
6.45609e-09
-1.18377e-07
-2.7701e-14
2.81297e-09
-8.20514e-08
-5.21912e-14
1.11266e-09
-3.08607e-08
-6.71901e-14
4.16244e-09
1.25821e-08
3.88685e-14
4.2032e-09
-1.28836e-08
-1.31367e-14
1.72763e-09
-1.86595e-08
-2.2717e-15
-6.56499e-09
-1.39501e-15
-2.1452e-12
-7.54184e-09
-3.31712e-15
-1.35456e-10
-2.33187e-08
-6.44934e-15
4.1412e-10
-3.27388e-08
-8.49227e-15
3.60406e-09
-5.08418e-08
-1.14002e-14
5.89188e-09
-7.75877e-08
-1.08528e-14
7.21604e-09
-1.03009e-07
-1.5123e-14
7.6939e-09
-1.2379e-07
-1.58325e-14
7.06608e-09
-1.31283e-07
-1.87956e-14
5.02755e-09
-1.16338e-07
-1.12465e-14
2.37512e-09
-7.93988e-08
-7.68883e-15
1.27476e-09
-2.9761e-08
-1.67059e-13
4.18803e-09
9.66894e-09
-3.41827e-15
3.87695e-09
-1.27021e-08
-1.59179e-14
1.69013e-09
-1.79893e-08
-3.48014e-15
-6.97698e-09
-1.74583e-15
-1.93749e-12
-7.53991e-09
-2.18126e-15
-1.1438e-10
-2.32063e-08
-5.26895e-15
5.27359e-10
-3.33806e-08
-7.15856e-15
3.05185e-09
-5.33662e-08
-8.64511e-15
4.73076e-09
-7.92667e-08
-1.56169e-14
5.78864e-09
-1.04067e-07
-1.669e-14
6.19941e-09
-1.24201e-07
-2.19823e-14
5.74983e-09
-1.30833e-07
-1.95555e-14
4.1757e-09
-1.14764e-07
-2.94189e-15
2.40511e-09
-7.76281e-08
1.41127e-14
1.96229e-09
-2.93187e-08
-1.93664e-13
4.3598e-09
7.27163e-09
-3.38441e-14
3.65396e-09
-1.21062e-08
-1.28159e-14
1.6326e-09
-1.72144e-08
-4.44479e-15
-7.22291e-09
-1.80989e-15
-1.6585e-12
-7.53825e-09
-2.68894e-15
-8.83085e-11
-2.31196e-08
-1.14055e-14
6.05552e-10
-3.40744e-08
-2.67384e-15
2.56778e-09
-5.53285e-08
-7.99252e-15
3.85511e-09
-8.0554e-08
-7.76187e-15
4.68875e-09
-1.04901e-07
-9.27063e-15
5.05411e-09
-1.24566e-07
-1.17503e-14
4.74558e-09
-1.30525e-07
-1.6627e-14
3.51881e-09
-1.13537e-07
-8.46538e-15
2.29288e-09
-7.6402e-08
1.18394e-14
2.36784e-09
-2.93939e-08
-1.1971e-13
4.29802e-09
5.34177e-09
-1.28683e-14
3.42792e-09
-1.13265e-08
-8.69965e-15
1.54797e-09
-1.63618e-08
-3.02521e-15
-7.31817e-09
-1.71064e-15
-1.18667e-12
-7.53707e-09
-3.4359e-15
-6.41258e-11
-2.30567e-08
-4.03543e-15
6.61803e-10
-3.48004e-08
-1.07906e-14
2.19333e-09
-5.686e-08
-8.88301e-15
3.18929e-09
-8.155e-08
-1.08747e-14
3.82324e-09
-1.05535e-07
-4.85428e-15
4.14267e-09
-1.24886e-07
-1.94558e-14
3.92135e-09
-1.30303e-07
-1.27961e-14
2.9223e-09
-1.12538e-07
-2.38555e-14
1.91763e-09
-7.53972e-08
2.92478e-15
2.26033e-09
-2.97368e-08
-5.62098e-14
3.94162e-09
3.66079e-09
-6.66818e-15
3.14967e-09
-1.06063e-08
-1.00997e-14
1.42881e-09
-1.54789e-08
-1.28505e-15
-7.28077e-09
-1.78119e-15
-5.55527e-13
-7.53651e-09
-4.25336e-15
-4.41786e-11
-2.3013e-08
-9.45196e-15
7.00646e-10
-3.55452e-08
-7.96491e-15
1.90988e-09
-5.80692e-08
-7.21975e-15
2.66647e-09
-8.23066e-08
-5.67976e-15
3.13666e-09
-1.06005e-07
-6.45945e-15
3.41549e-09
-1.25165e-07
-1.89401e-14
3.25245e-09
-1.3014e-07
-1.31983e-14
2.41165e-09
-1.11698e-07
-2.04918e-14
1.45364e-09
-7.44391e-08
3.82937e-15
1.83454e-09
-3.01179e-08
-3.99764e-14
3.42603e-09
2.06962e-09
5.44459e-15
2.82406e-09
-1.00602e-08
-8.55346e-15
1.275e-09
-1.46043e-08
-8.05252e-16
-7.13408e-09
-1.75253e-15
2.00955e-13
-7.53672e-09
-2.26896e-15
-2.67532e-11
-2.29861e-08
-6.64446e-15
7.22687e-10
-3.62947e-08
-6.68157e-15
1.68565e-09
-5.90322e-08
-7.8685e-15
2.24809e-09
-8.2869e-08
-1.2738e-14
2.60053e-09
-1.06357e-07
-8.14688e-15
2.85669e-09
-1.25421e-07
-2.06503e-14
2.75083e-09
-1.30034e-07
-1.41151e-14
2.044e-09
-1.10991e-07
-1.24591e-14
1.09949e-09
-7.34944e-08
1.46004e-14
1.38586e-09
-3.04045e-08
-5.03449e-14
2.91762e-09
5.38106e-10
8.35308e-15
2.47976e-09
-9.6663e-09
-9.33301e-15
1.09282e-09
-1.3755e-08
-1.39153e-15
-6.90297e-09
-1.70525e-15
9.89577e-13
-7.53771e-09
-2.26664e-15
-9.2138e-12
-2.29759e-08
-1.24477e-14
7.29294e-10
-3.70332e-08
-2.776e-15
1.49796e-09
-5.98008e-08
-5.30724e-15
1.91455e-09
-8.32856e-08
-3.14765e-15
2.19463e-09
-1.06637e-07
-9.23148e-15
2.45103e-09
-1.25677e-07
-2.66022e-14
2.41226e-09
-1.29996e-07
-2.17641e-14
1.83178e-09
-1.1041e-07
-3.56476e-14
9.31576e-10
-7.25941e-08
-7.99037e-15
1.0839e-09
-3.05571e-08
-6.16611e-14
2.50285e-09
-8.80708e-10
-2.99458e-15
2.14013e-09
-9.33844e-09
-1.46817e-14
8.90385e-10
-1.29268e-08
-2.52584e-15
-6.60014e-09
-1.68324e-15
1.76442e-12
-7.53947e-09
-3.60323e-15
9.41982e-12
-2.29835e-08
-8.73291e-15
7.21027e-10
-3.77448e-08
-4.59532e-15
1.33364e-09
-6.04135e-08
-1.02395e-14
1.6503e-09
-8.36022e-08
-1.3504e-14
1.89464e-09
-1.06882e-07
-2.58095e-15
2.16942e-09
-1.25952e-07
-2.99768e-14
2.20269e-09
-1.30029e-07
2.12745e-15
1.73441e-09
-1.09942e-07
-9.67978e-15
9.03936e-10
-7.17634e-08
1.529e-14
9.3226e-10
-3.05854e-08
-1.46549e-14
2.17382e-09
-2.12212e-09
4.95583e-15
1.81127e-09
-9.00374e-09
-6.94457e-15
6.73899e-10
-1.20962e-08
-2.16689e-15
-6.19649e-09
-1.43719e-15
2.50154e-12
-7.54197e-09
-3.23519e-15
2.80684e-11
-2.30091e-08
-1.23266e-14
6.97877e-10
-3.84146e-08
-6.50893e-16
1.18635e-09
-6.09019e-08
-9.66416e-15
1.43992e-09
-8.38558e-08
-7.8359e-15
1.6727e-09
-1.07114e-07
-8.00501e-15
1.97394e-09
-1.26254e-07
-3.35738e-14
2.073e-09
-1.30128e-07
-3.98399e-15
1.68992e-09
-1.09559e-07
-2.10447e-14
9.21152e-10
-7.09946e-08
-1.05011e-14
8.45835e-10
-3.05102e-08
-1.90064e-14
1.87816e-09
-3.15437e-09
-4.58366e-16
1.48711e-09
-8.63549e-09
-7.5933e-15
4.48047e-10
-1.12756e-08
-1.92428e-15
-5.75033e-09
-1.35682e-15
3.14479e-12
-7.54512e-09
-2.29866e-15
4.4117e-11
-2.30501e-08
-9.86767e-15
6.59069e-10
-3.90295e-08
-3.10638e-15
1.05141e-09
-6.12943e-08
-5.08336e-15
1.26672e-09
-8.40711e-08
-1.29109e-14
1.50138e-09
-1.07349e-07
-7.54705e-15
1.82811e-09
-1.26581e-07
-3.23375e-14
1.97876e-09
-1.30278e-07
1.2838e-15
1.64858e-09
-1.09229e-07
-1.6428e-14
9.0777e-10
-7.02537e-08
-8.41047e-15
7.40665e-10
-3.03432e-08
-1.89357e-14
1.57251e-09
-3.98619e-09
-5.03171e-15
1.16083e-09
-8.24124e-09
-6.85169e-15
2.17267e-10
-1.04652e-08
-1.43749e-15
-5.26509e-09
-1.26748e-15
3.75425e-12
-7.54887e-09
-2.2811e-15
5.4923e-11
-2.31012e-08
-9.78284e-15
6.05912e-10
-3.95805e-08
-4.31762e-15
9.26399e-10
-6.16148e-08
-9.19406e-15
1.11804e-09
-8.42628e-08
-1.258e-14
1.36011e-09
-1.07591e-07
-1.56498e-14
1.70621e-09
-1.26927e-07
-3.44624e-14
1.89232e-09
-1.30464e-07
-5.59013e-15
1.58727e-09
-1.08924e-07
-2.10351e-14
8.35486e-10
-6.95018e-08
-6.79328e-15
5.77529e-10
-3.00853e-08
-1.69285e-14
1.23891e-09
-4.64753e-09
-4.56678e-15
8.2929e-10
-7.84347e-09
-7.36263e-15
-1.10982e-11
-9.65566e-09
-1.04198e-15
-4.74005e-09
-1.15334e-15
4.37149e-12
-7.55324e-09
-3.03289e-15
5.90609e-11
-2.31559e-08
-8.43746e-15
5.41584e-10
-4.0063e-08
-4.50751e-15
8.09991e-10
-6.18832e-08
-5.31853e-15
9.85612e-10
-8.44384e-08
-2.32616e-14
1.23625e-09
-1.07842e-07
-3.28086e-16
1.59474e-09
-1.27285e-07
-1.33084e-14
1.80324e-09
-1.30673e-07
-1.29585e-14
1.50544e-09
-1.08626e-07
-1.41751e-14
7.14025e-10
-6.87102e-08
2.92299e-15
3.61335e-10
-2.97325e-08
-1.5667e-14
8.82611e-10
-5.16873e-09
-1.07669e-15
4.92897e-10
-7.45936e-09
-8.2139e-15
-1.78165e-10
-8.84677e-09
-9.81476e-16
-4.19127e-09
-1.11325e-15
4.98631e-12
-7.55822e-09
-2.96086e-15
5.72647e-11
-2.32082e-08
-7.4972e-15
4.72459e-10
-4.04782e-08
-4.06608e-15
7.03374e-10
-6.21141e-08
-7.11065e-15
8.67095e-10
-8.46021e-08
-2.65161e-14
1.12496e-09
-1.08099e-07
-4.96507e-15
1.49022e-09
-1.2765e-07
-1.6828e-14
1.71289e-09
-1.30896e-07
-1.80051e-14
1.41411e-09
-1.08327e-07
-1.38896e-14
5.68729e-10
-6.78647e-08
5.27344e-15
1.20704e-10
-2.92845e-08
-1.88105e-14
5.19016e-10
-5.56697e-09
-4.46669e-15
1.53537e-10
-7.09144e-09
-1.18078e-14
-3.31452e-10
-8.04129e-09
-1.49108e-15
-3.628e-09
-1.07981e-15
5.61462e-12
-7.56384e-09
-2.75747e-15
5.17794e-11
-2.32544e-08
-6.75088e-15
4.05738e-10
-4.08321e-08
-7.13009e-15
6.08869e-10
-6.23172e-08
-3.5593e-15
7.63093e-10
-8.47564e-08
-1.79983e-14
1.02605e-09
-1.08362e-07
-1.91643e-14
1.39463e-09
-1.28019e-07
-1.41928e-14
1.62715e-09
-1.31128e-07
-1.66992e-14
1.3254e-09
-1.08025e-07
-1.66551e-14
4.22349e-10
-6.69615e-08
-1.2662e-15
-1.22442e-10
-2.87397e-08
-2.12955e-14
1.59249e-10
-5.84861e-09
-1.29454e-14
-1.83112e-10
-6.73172e-09
-1.07746e-14
-4.63499e-10
-7.24018e-09
-1.74614e-15
-3.06171e-09
-1.02862e-15
6.26823e-12
-7.5701e-09
-2.36515e-15
4.58289e-11
-2.3294e-08
-8.41124e-15
3.47996e-10
-4.11343e-08
-5.45403e-15
5.29151e-10
-6.24984e-08
-2.98888e-15
6.7544e-10
-8.49027e-08
-2.15663e-14
9.41443e-10
-1.08628e-07
-1.53338e-14
1.31141e-09
-1.28389e-07
-1.6044e-14
1.55156e-09
-1.31368e-07
-1.61385e-14
1.24758e-09
-1.07721e-07
-1.73703e-14
2.86701e-10
-6.60004e-08
-2.1373e-14
-3.6906e-10
-2.8084e-08
3.14086e-16
-1.87224e-10
-6.03026e-09
-4.26969e-14
-5.1244e-10
-6.36374e-09
-1.22355e-14
-5.66707e-10
-6.44283e-09
-1.51338e-15
-2.50842e-09
-8.95872e-16
6.90368e-12
-7.57701e-09
-2.35266e-15
4.23787e-11
-2.33295e-08
-6.46252e-15
3.03126e-10
-4.1395e-08
-5.0474e-15
4.65602e-10
-6.26608e-08
-4.59853e-15
6.05201e-10
-8.50423e-08
-1.98476e-14
8.72403e-10
-1.08896e-07
-1.52456e-14
1.24271e-09
-1.28759e-07
-1.71738e-14
1.48895e-09
-1.31615e-07
-1.49507e-14
1.18405e-09
-1.07417e-07
-1.72902e-14
1.62432e-10
-6.49785e-08
-4.75971e-14
-6.03386e-10
-2.73181e-08
1.28734e-14
-5.25457e-10
-6.10734e-09
-3.05408e-14
-8.30704e-10
-5.9764e-09
-7.52382e-15
-6.3412e-10
-5.65025e-09
-1.56376e-15
-1.98843e-09
-7.66304e-16
7.51643e-12
-7.58452e-09
-2.20152e-15
4.36529e-11
-2.33656e-08
-7.32559e-15
2.72616e-10
-4.1624e-08
-8.17495e-15
4.18439e-10
-6.28067e-08
-6.09697e-15
5.52078e-10
-8.51759e-08
-1.88985e-14
8.18809e-10
-1.09162e-07
-1.38562e-14
1.18825e-09
-1.29129e-07
-1.66389e-14
1.43854e-09
-1.31865e-07
-1.51013e-14
1.13188e-09
-1.0711e-07
-1.69042e-14
4.30397e-11
-6.38894e-08
-6.20181e-14
-8.36392e-10
-2.64385e-08
-9.62703e-15
-8.69435e-10
-6.07205e-09
-6.73943e-15
-1.13122e-09
-5.57018e-09
1.73745e-16
-6.61979e-10
-4.86903e-09
-1.34515e-15
-1.52267e-09
-6.15277e-16
8.06891e-12
-7.59259e-09
-1.99521e-15
5.03846e-11
-2.34079e-08
-6.51768e-15
2.55397e-10
-4.1829e-08
-6.60555e-15
3.8589e-10
-6.29371e-08
-6.70968e-15
5.13811e-10
-8.53038e-08
-1.82954e-14
7.7841e-10
-1.09427e-07
-1.57635e-14
1.14535e-09
-1.29496e-07
-1.67075e-14
1.39705e-09
-1.32116e-07
-1.5362e-14
1.08709e-09
-1.068e-07
-1.17526e-14
-7.74306e-11
-6.27245e-08
-6.2283e-14
-1.08367e-09
-2.5432e-08
-2.50413e-14
-1.22203e-09
-5.92862e-09
-2.18701e-14
-1.40263e-09
-5.14827e-09
-4.43462e-15
-6.51462e-10
-4.11171e-09
-1.56035e-15
-1.12738e-09
-4.86431e-16
8.5842e-12
-7.60117e-09
-2.02098e-15
6.1808e-11
-2.34611e-08
-5.8392e-15
2.48684e-10
-4.20158e-08
-9.21127e-15
3.64727e-10
-6.30532e-08
-8.89141e-15
4.86611e-10
-8.54257e-08
-1.41457e-14
7.47076e-10
-1.09687e-07
-1.44089e-14
1.10903e-09
-1.29858e-07
-1.76989e-14
1.3588e-09
-1.32366e-07
-1.87627e-14
1.04357e-09
-1.06485e-07
-1.26112e-14
-2.11732e-10
-6.14687e-08
-6.2415e-14
-1.3648e-09
-2.42785e-08
-3.60055e-14
-1.57968e-09
-5.70275e-09
-2.57041e-14
-1.62935e-09
-4.71358e-09
-6.83282e-15
-6.09253e-10
-3.39603e-09
-1.60615e-15
-8.10408e-10
-3.57677e-16
9.05441e-12
-7.61023e-09
-2.43e-15
7.57981e-11
-2.35279e-08
-4.72013e-15
2.48689e-10
-4.21887e-08
-8.53352e-15
3.50615e-10
-6.31551e-08
-1.13314e-14
4.6542e-10
-8.55405e-08
-1.69248e-14
7.18999e-10
-1.09941e-07
-1.4648e-14
1.0724e-09
-1.30211e-07
-1.7552e-14
1.31663e-09
-1.32611e-07
-2.00198e-14
9.93641e-10
-1.06162e-07
-6.33377e-15
-3.75119e-10
-6.00992e-08
-4.731e-14
-1.69104e-09
-2.29617e-08
-5.66028e-14
-1.93589e-09
-5.43451e-09
-2.57009e-14
-1.7954e-09
-4.27009e-09
-6.79915e-15
-5.46443e-10
-2.74273e-09
-1.50542e-15
-5.7007e-10
-2.73478e-16
9.42983e-12
-7.61965e-09
-2.54425e-15
8.95081e-11
-2.3608e-08
-4.75719e-15
2.51103e-10
-4.23503e-08
-6.80165e-15
3.38471e-10
-6.32425e-08
-1.0138e-14
4.44498e-10
-8.56465e-08
-1.60043e-14
6.87507e-10
-1.10184e-07
-1.44914e-14
1.0277e-09
-1.30551e-07
-1.84058e-14
1.26297e-09
-1.32846e-07
-2.01309e-14
9.28537e-10
-1.05827e-07
-5.74879e-15
-5.77736e-10
-5.85922e-08
-3.52188e-14
-2.06012e-09
-2.14775e-08
-1.08819e-13
-2.27812e-09
-5.16837e-09
-2.70738e-14
-1.8894e-09
-3.82346e-09
-4.74504e-15
-4.75519e-10
-2.17046e-09
-1.20524e-15
-3.96709e-10
-1.90843e-16
9.69912e-12
-7.62935e-09
-2.68401e-15
1.00348e-10
-2.36986e-08
-4.72885e-15
2.52205e-10
-4.25022e-08
-8.05759e-15
3.23645e-10
-6.3314e-08
-1.13594e-14
4.1838e-10
-8.57412e-08
-1.12188e-14
6.46011e-10
-1.10412e-07
-1.57803e-14
9.67504e-10
-1.30873e-07
-1.70632e-14
1.19061e-09
-1.33069e-07
-1.79242e-14
8.40272e-10
-1.05477e-07
-5.33493e-15
-8.2479e-10
-5.69262e-08
-2.1504e-14
-2.45022e-09
-1.98484e-08
-1.29742e-13
-2.58937e-09
-4.93528e-09
-2.12878e-14
-1.91011e-09
-3.38251e-09
-2.62124e-15
-4.07024e-10
-1.69022e-09
-9.30498e-16
-2.76355e-10
-1.38577e-16
9.87049e-12
-7.63922e-09
-2.68587e-15
1.06402e-10
-2.37952e-08
-4.15853e-15
2.48827e-10
-4.26446e-08
-8.31056e-15
3.01974e-10
-6.33672e-08
-1.15219e-14
3.82035e-10
-8.58212e-08
-1.22181e-14
5.88567e-10
-1.10618e-07
-1.50001e-14
8.85369e-10
-1.3117e-07
-1.93388e-14
1.09299e-09
-1.33276e-07
-1.4958e-14
7.21402e-10
-1.05105e-07
-6.24174e-15
-1.11874e-09
-5.50848e-08
-1.64802e-14
-2.82531e-09
-1.81343e-08
-1.21117e-13
-2.85004e-09
-4.74053e-09
-1.15139e-14
-1.86785e-09
-2.95853e-09
-1.57754e-15
-3.47422e-10
-1.30251e-09
-6.78268e-16
-1.94654e-10
-9.70127e-17
9.97339e-12
-7.6492e-09
-1.88169e-15
1.0696e-10
-2.38921e-08
-6.28251e-15
2.39219e-10
-4.27768e-08
-6.19765e-15
2.70966e-10
-6.33989e-08
-1.10956e-14
3.32411e-10
-8.58826e-08
-1.18919e-14
5.11348e-10
-1.10797e-07
-1.48275e-14
7.77369e-10
-1.31436e-07
-1.33997e-14
9.65102e-10
-1.33464e-07
-1.31684e-14
5.66459e-10
-1.04707e-07
-5.9589e-15
-1.45798e-09
-5.30588e-08
1.93276e-15
-3.14816e-09
-1.64295e-08
-1.17089e-13
-3.04132e-09
-4.56572e-09
-1.34394e-14
-1.78032e-09
-2.56208e-09
-1.64315e-15
-2.99029e-10
-5.36724e-16
-7.23226e-17
1.00189e-11
-7.65921e-09
-2.0233e-15
1.02266e-10
-2.39844e-08
-4.98667e-15
2.22274e-10
-4.28968e-08
-8.7197e-15
2.29106e-10
-6.34058e-08
-1.33259e-14
2.68053e-10
-8.59216e-08
-1.47859e-14
4.13167e-10
-1.10942e-07
-1.5428e-14
6.43109e-10
-1.31665e-07
-1.54367e-14
8.05601e-10
-1.33627e-07
-1.06047e-14
3.75876e-10
-1.04277e-07
-1.27982e-14
-1.82749e-09
-5.08536e-08
3.32421e-14
-3.39011e-09
-1.48394e-08
-1.08523e-13
-3.14924e-09
-4.38154e-09
-2.06434e-14
-2.19936e-09
-2.00938e-15
1.0084e-11
-7.6693e-09
-2.0427e-15
9.35483e-11
-2.40679e-08
-6.02673e-15
1.98503e-10
-4.30018e-08
-8.56201e-15
1.77444e-10
-6.33847e-08
-1.39432e-14
1.90734e-10
-8.59348e-08
-1.1789e-14
2.96955e-10
-1.11049e-07
-1.73846e-14
4.87429e-10
-1.31856e-07
-1.36861e-14
6.19421e-10
-1.33759e-07
-1.23243e-14
1.61267e-10
-1.03819e-07
-1.15417e-14
-2.18683e-09
-4.85034e-08
3.97992e-14
-3.53678e-09
-1.34414e-08
-5.91723e-14
-3.16949e-09
-4.16331e-09
-1.61467e-14
-1.87151e-09
-2.14555e-15
1.01815e-11
-7.67948e-09
-2.07646e-15
8.20881e-11
-2.41398e-08
-5.67613e-15
1.68624e-10
-4.30883e-08
-8.1958e-15
1.18057e-10
-6.33342e-08
-1.25961e-14
1.04323e-10
-8.59211e-08
-1.74165e-14
1.69576e-10
-1.11114e-07
-1.54776e-14
3.20595e-10
-1.32007e-07
-1.38766e-14
4.18101e-10
-1.33856e-07
-1.16989e-14
-5.76227e-11
-1.03343e-07
-7.65059e-15
-2.46921e-09
-4.60898e-08
3.8464e-14
-3.58109e-09
-1.22524e-08
-3.96286e-15
-3.10737e-09
-3.89583e-09
-4.93149e-15
-1.57423e-09
-1.57921e-15
1.03081e-11
-7.68979e-09
-2.13045e-15
6.95045e-11
-2.4199e-08
-5.97838e-15
1.35058e-10
-4.31539e-08
-1.06993e-14
5.59676e-11
-6.32551e-08
-1.43895e-14
1.67614e-11
-8.58819e-08
-1.8194e-14
4.35785e-11
-1.11141e-07
-8.81634e-15
1.60964e-10
-1.32124e-07
-1.4329e-14
2.26537e-10
-1.33922e-07
-1.46605e-14
-2.28299e-10
-1.02888e-07
-4.72778e-15
-2.61557e-09
-4.37005e-08
2.99695e-14
-3.52583e-09
-1.12307e-08
3.12381e-14
-2.97847e-09
-3.57396e-09
3.6762e-15
-1.30174e-09
-7.099e-16
1.03689e-11
-7.70016e-09
-2.16202e-15
5.68011e-11
-2.42454e-08
-6.57863e-15
9.99873e-11
-4.31971e-08
-9.01669e-15
-3.60403e-12
-6.31515e-08
-1.19379e-14
-6.35687e-11
-8.5822e-08
-1.61702e-14
-6.84028e-11
-1.11136e-07
-1.18072e-14
2.71778e-11
-1.3222e-07
-1.97498e-14
7.13059e-11
-1.33966e-07
-1.536e-14
-3.3511e-10
-1.02482e-07
-1.09165e-14
-2.57714e-09
-4.14568e-08
1.72812e-14
-3.37029e-09
-1.02952e-08
4.45298e-14
-2.80092e-09
-3.19256e-09
8.34589e-15
-1.04608e-09
1.42812e-16
1.03105e-11
-7.71047e-09
-2.35434e-15
4.51961e-11
-2.42803e-08
-6.17475e-15
6.66009e-11
-4.32185e-08
-9.94759e-15
-5.44708e-11
-6.30304e-08
-1.48162e-14
-1.27324e-10
-8.57492e-08
-1.505e-14
-1.52093e-10
-1.11111e-07
-1.1998e-14
-6.0814e-11
-1.32311e-07
-1.01935e-14
-3.08894e-11
-1.33996e-07
-3.96747e-15
-3.75069e-10
-1.02137e-07
-1.69501e-14
-2.34581e-09
-3.94852e-08
1.60043e-14
-3.13053e-09
-9.35277e-09
4.47396e-14
-2.59556e-09
-2.75573e-09
8.29939e-15
-8.03645e-10
6.76692e-16
9.98645e-12
-7.72045e-09
-2.39531e-15
3.51729e-11
-2.43055e-08
-6.55001e-15
3.69139e-11
-4.32202e-08
-8.30417e-15
-9.25518e-11
-6.2901e-08
-1.4254e-14
-1.67556e-10
-8.56742e-08
-1.51293e-14
-1.94546e-10
-1.11084e-07
-1.18654e-14
-8.7321e-11
-1.32418e-07
-1.60723e-14
-4.8564e-11
-1.34035e-07
-9.47998e-15
-3.00178e-10
-1.01886e-07
-2.36549e-14
-1.84363e-09
-3.79416e-08
8.23687e-15
-2.78511e-09
-8.264e-09
3.1906e-14
-2.37403e-09
-2.24312e-09
6.77303e-15
-5.75777e-10
8.66161e-16
9.3064e-12
-7.72976e-09
-2.28008e-15
2.73699e-11
-2.43235e-08
-7.05263e-15
1.28843e-11
-4.32057e-08
-9.72377e-15
-1.15354e-10
-6.27727e-08
-1.62583e-14
-1.81564e-10
-8.56079e-08
-1.01812e-14
-1.9117e-10
-1.11074e-07
-1.51804e-14
-5.25014e-11
-1.32557e-07
-2.02703e-14
2.5445e-11
-1.34113e-07
-1.73532e-14
-1.10897e-10
-1.01749e-07
-3.71484e-15
-1.1172e-09
-3.69352e-08
1.11044e-14
-2.34869e-09
-6.91941e-09
1.71726e-14
-2.12999e-09
-1.6643e-09
5.38237e-15
-3.50361e-10
7.60522e-16
8.25021e-12
-7.73801e-09
-2.32809e-15
2.18568e-11
-2.43371e-08
-6.55159e-15
-5.52976e-12
-4.31783e-08
-8.83956e-15
-1.24781e-10
-6.26535e-08
-1.53968e-14
-1.73548e-10
-8.55592e-08
-1.77988e-14
-1.48456e-10
-1.11099e-07
-9.37332e-15
3.56869e-11
-1.32741e-07
-1.3805e-14
1.99561e-10
-1.34276e-07
-1.75511e-14
2.43863e-10
-1.01794e-07
-9.76771e-15
2.56923e-11
-3.67171e-08
-6.16055e-15
-1.76956e-09
-5.05396e-09
2.98595e-14
-1.83602e-09
-9.63313e-10
7.56539e-15
-1.476e-10
7.83388e-16
6.77156e-12
-7.74478e-09
-2.55081e-15
1.78424e-11
-2.43482e-08
-7.13224e-15
-2.13764e-11
-4.31391e-08
-9.21857e-15
-1.3019e-10
-6.25447e-08
-1.42479e-14
-1.61382e-10
-8.5528e-08
-1.398e-14
-1.01518e-10
-1.11159e-07
-1.52982e-14
1.17874e-10
-1.3296e-07
-1.68834e-14
3.74161e-10
-1.34533e-07
-1.83384e-14
4.63645e-10
-1.01883e-07
-6.12941e-15
1.09239e-09
-3.73458e-08
-1.01439e-14
-1.06841e-09
-2.86823e-09
2.27149e-14
-1.34947e-09
-2.54268e-10
6.53399e-15
1.99468e-11
6.96536e-16
4.72589e-12
-7.74951e-09
-2.59268e-15
1.3878e-11
-2.43573e-08
-6.45604e-15
-3.90463e-11
-4.30862e-08
-9.08304e-15
-1.43089e-10
-6.24406e-08
-1.30782e-14
-1.67767e-10
-8.55033e-08
-1.84961e-14
-9.89098e-11
-1.11228e-07
-1.29298e-14
1.27175e-10
-1.33187e-07
-9.37769e-15
4.86151e-10
-1.34892e-07
-9.86661e-15
6.25068e-10
-1.02022e-07
-1.42821e-14
2.2552e-09
-3.8976e-08
-1.17826e-14
-6.16009e-10
-1.03348e-15
-6.47915e-10
1.21424e-15
-1.19366e-17
2.61073e-12
-7.75212e-09
-2.58704e-15
1.13378e-11
-2.43661e-08
-6.43637e-15
-5.50929e-11
-4.30198e-08
-1.05762e-14
-1.56303e-10
-6.23394e-08
-1.27773e-14
-1.82229e-10
-8.54774e-08
-1.46892e-14
-1.35438e-10
-1.11275e-07
-1.73672e-14
3.71215e-11
-1.33359e-07
-9.17875e-15
2.47257e-10
-1.35102e-07
-1.31882e-14
-3.54623e-10
-1.0142e-07
-1.11811e-14
-3.93306e-08
-1.0571e-14
1.1039e-12
-7.75322e-09
-2.72513e-15
1.15824e-11
-2.43765e-08
-5.82894e-15
-6.41259e-11
-4.29441e-08
-9.80492e-15
-1.53242e-10
-6.22503e-08
-1.25165e-14
-1.63223e-10
-8.54674e-08
-1.44987e-14
-9.74677e-11
-1.11341e-07
-1.58639e-14
1.27443e-10
-1.33584e-07
-1.0527e-14
4.03577e-10
-1.35378e-07
-1.03935e-14
2.1961e-10
-1.01236e-07
-7.03028e-15
-3.9111e-08
-1.18497e-14
1.58699e-13
-7.75338e-09
-2.68438e-15
1.21549e-11
-2.43885e-08
-6.99843e-15
-7.16591e-11
-4.28602e-08
-1.06728e-14
-1.47743e-10
-6.21742e-08
-1.34045e-14
-1.44791e-10
-8.54704e-08
-1.49865e-14
-6.54605e-11
-1.1142e-07
-1.30881e-14
1.7795e-10
-1.33827e-07
-1.28858e-14
4.68798e-10
-1.35669e-07
-8.33197e-15
3.1636e-10
-1.01084e-07
-1.26101e-14
-3.87947e-08
1.48265e-15
-3.18077e-13
-7.75306e-09
-2.81735e-15
1.18153e-11
-2.44007e-08
-6.19208e-15
-7.81242e-11
-4.27703e-08
-1.00234e-14
-1.39127e-10
-6.21132e-08
-1.30071e-14
-1.21922e-10
-8.54876e-08
-1.51062e-14
-2.78433e-11
-1.11514e-07
-1.52634e-14
2.33545e-10
-1.34089e-07
-1.19667e-14
5.45399e-10
-1.35981e-07
-1.27252e-14
3.96073e-10
-1.00935e-07
-1.50786e-14
-3.83986e-08
4.06322e-15
-4.17679e-13
-7.75265e-09
-2.84758e-15
9.59647e-12
-2.44107e-08
-6.68045e-15
-8.45622e-11
-4.26761e-08
-1.09891e-14
-1.29942e-10
-6.20678e-08
-1.41821e-14
-9.95349e-11
-8.5518e-08
-1.36406e-14
5.9559e-12
-1.11619e-07
-1.59563e-14
2.79373e-10
-1.34362e-07
-1.20864e-14
6.006e-10
-1.36302e-07
-9.49e-15
4.34238e-10
-1.00768e-07
-4.53235e-15
-3.79644e-08
-1.25443e-14
-2.97199e-13
-7.75235e-09
-2.94942e-15
5.03616e-12
-2.4416e-08
-6.47563e-15
-9.10741e-11
-4.258e-08
-1.00416e-14
-1.20204e-10
-6.20387e-08
-1.48007e-14
-7.67115e-11
-8.55615e-08
-1.32526e-14
3.92424e-11
-1.11735e-07
-1.82651e-14
3.23521e-10
-1.34647e-07
-1.43156e-14
6.54324e-10
-1.36633e-07
-1.18073e-14
4.7318e-10
-1.00587e-07
-7.61245e-15
-3.74912e-08
-1.20526e-14
-1.47455e-14
-7.75234e-09
-3.00223e-15
-1.25263e-12
-2.44148e-08
-8.10308e-15
-9.66592e-11
-4.24846e-08
-1.16013e-14
-1.08982e-10
-6.20264e-08
-1.566e-14
-5.27236e-11
-8.56177e-08
-1.17534e-14
7.22078e-11
-1.1186e-07
-1.7997e-14
3.66986e-10
-1.34941e-07
-1.26291e-14
7.0626e-10
-1.36972e-07
-1.15728e-14
5.09022e-10
-1.0039e-07
-7.4168e-15
-3.69822e-08
-5.44003e-15
3.66683e-13
-7.7527e-09
-3.02887e-15
-8.34062e-12
-2.44061e-08
-7.81922e-15
-1.00469e-10
-4.23925e-08
-1.09513e-14
-9.54679e-11
-6.20314e-08
-1.65534e-14
-2.66662e-11
-8.56865e-08
-1.16655e-14
1.0713e-10
-1.11994e-07
-1.46698e-14
4.12586e-10
-1.35247e-07
-1.40524e-14
7.606e-10
-1.3732e-07
-1.31406e-14
5.47132e-10
-1.00176e-07
-1.0035e-14
-3.6435e-08
-8.26451e-15
8.40069e-13
-7.75354e-09
-3.0222e-15
-1.47179e-11
-2.43905e-08
-9.16692e-15
-1.00974e-10
-4.23063e-08
-1.21815e-14
-7.81147e-11
-6.20542e-08
-1.31513e-14
2.81815e-12
-8.57675e-08
-1.65449e-14
1.45517e-10
-1.12137e-07
-1.50487e-14
4.61916e-10
-1.35563e-07
-1.26371e-14
8.18773e-10
-1.37677e-07
-1.17963e-14
5.87714e-10
-9.99452e-08
-7.44351e-15
-3.58473e-08
-1.04418e-14
1.38799e-12
-7.75493e-09
-3.06832e-15
-1.89452e-11
-2.43702e-08
-8.65536e-15
-9.70175e-11
-4.22282e-08
-1.22341e-14
-5.59083e-11
-6.20953e-08
-1.26899e-14
3.64622e-11
-8.58598e-08
-1.61085e-14
1.88889e-10
-1.12289e-07
-1.08531e-14
5.16675e-10
-1.35891e-07
-1.06332e-14
8.82496e-10
-1.38043e-07
-1.64814e-14
6.32208e-10
-9.96949e-08
-9.40758e-15
-3.52152e-08
-1.11206e-14
2.03308e-12
-7.75697e-09
-3.11769e-15
-1.95953e-11
-2.43485e-08
-9.59399e-15
-8.73386e-11
-4.21605e-08
-1.20207e-14
-2.77216e-11
-6.2155e-08
-1.24742e-14
7.5759e-11
-8.59633e-08
-1.65698e-14
2.38663e-10
-1.12452e-07
-1.12484e-14
5.78348e-10
-1.36231e-07
-1.31368e-14
9.53039e-10
-1.38418e-07
-1.38962e-14
6.81306e-10
-9.94231e-08
-9.95402e-15
-3.45339e-08
-7.25034e-15
2.78261e-12
-7.75975e-09
-3.22998e-15
-1.57756e-11
-2.433e-08
-9.29626e-15
-7.13835e-11
-4.21049e-08
-1.16568e-14
6.79259e-12
-6.22331e-08
-1.17102e-14
1.2115e-10
-8.60777e-08
-1.5241e-14
2.95449e-10
-1.12626e-07
-1.22551e-14
6.47661e-10
-1.36583e-07
-1.46019e-14
1.031e-09
-1.38801e-07
-1.64147e-14
7.354e-10
-9.91275e-08
-1.18645e-14
-3.37985e-08
-5.52038e-15
3.66389e-12
-7.76341e-09
-3.3233e-15
-7.06998e-12
-2.43192e-08
-9.2194e-15
-4.87775e-11
-4.20632e-08
-1.18714e-14
4.79274e-11
-6.23298e-08
-1.18562e-14
1.7292e-10
-8.62027e-08
-1.30856e-14
3.5962e-10
-1.12813e-07
-1.44062e-14
7.2504e-10
-1.36948e-07
-1.56607e-14
1.11665e-09
-1.39193e-07
-1.54406e-14
7.94419e-10
-9.88053e-08
-1.02127e-14
-3.30041e-08
-1.07347e-14
4.69423e-12
-7.76811e-09
-3.49593e-15
6.03957e-12
-2.43206e-08
-8.91059e-15
-2.01087e-11
-4.2037e-08
-1.13499e-14
9.48156e-11
-6.24447e-08
-1.05647e-14
2.30489e-10
-8.63384e-08
-1.31164e-14
4.30756e-10
-1.13013e-07
-1.9695e-14
8.10301e-10
-1.37328e-07
-2.02593e-14
1.21008e-09
-1.39592e-07
-1.91495e-14
8.58534e-10
-9.84538e-08
-1.86025e-14
-3.21456e-08
-1.25347e-14
5.88946e-12
-7.774e-09
-3.54389e-15
2.23536e-11
-2.43371e-08
-8.96165e-15
1.34079e-11
-4.20281e-08
-1.09614e-14
1.46329e-10
-6.25777e-08
-1.20822e-14
2.92815e-10
-8.64849e-08
-1.1228e-14
5.07711e-10
-1.13228e-07
-2.07374e-14
9.02882e-10
-1.37723e-07
-7.98037e-15
1.31144e-09
-1.40001e-07
-5.3025e-15
9.28613e-10
-9.80709e-08
2.75483e-15
-3.1217e-08
7.38653e-15
7.25135e-12
-7.78125e-09
-3.71469e-15
3.9885e-11
-2.43697e-08
-8.56364e-15
4.98342e-11
-4.2038e-08
-1.06026e-14
2.00825e-10
-6.27286e-08
-1.10325e-14
3.59173e-10
-8.66432e-08
-1.27397e-14
5.90205e-10
-1.1346e-07
-2.38477e-14
1.0027e-09
-1.38135e-07
-1.0055e-14
1.42022e-09
-1.40418e-07
-1.18898e-14
1.00408e-09
-9.76547e-08
-7.32944e-15
-3.02128e-08
1.20987e-15
8.77293e-12
-7.79002e-09
-3.86155e-15
5.62515e-11
-2.44172e-08
-8.53183e-15
8.7095e-11
-4.20689e-08
-1.02783e-14
2.56223e-10
-6.28978e-08
-9.69534e-15
4.2753e-10
-8.68145e-08
-1.15847e-14
6.75919e-10
-1.13708e-07
-2.69386e-14
1.10789e-09
-1.38567e-07
-8.6318e-15
1.53545e-09
-1.40846e-07
-8.57892e-15
1.08456e-09
-9.72038e-08
-4.57723e-15
-2.91283e-08
-3.24938e-15
1.04332e-11
-7.80045e-09
-4.02852e-15
6.90823e-11
-2.44758e-08
-8.66315e-15
1.23163e-10
-4.21229e-08
-1.03008e-14
3.10491e-10
-6.30851e-08
-9.67421e-15
4.96122e-10
-8.70001e-08
-1.41285e-14
7.63407e-10
-1.13975e-07
-2.68645e-14
1.21738e-09
-1.39021e-07
-1.16516e-14
1.65649e-09
-1.41285e-07
-1.31414e-14
1.16996e-09
-9.67173e-08
-9.94744e-15
-2.79583e-08
-2.40681e-15
1.22019e-11
-7.81266e-09
-4.208e-15
7.66095e-11
-2.45402e-08
-8.92257e-15
1.56479e-10
-4.22028e-08
-9.89509e-15
3.61754e-10
-6.32904e-08
-1.32146e-14
5.63683e-10
-8.7202e-08
-6.70988e-15
8.52019e-10
-1.14264e-07
-1.53579e-14
1.33075e-09
-1.395e-07
-1.08647e-14
1.78317e-09
-1.41737e-07
-1.27107e-14
1.26048e-09
-9.61946e-08
-5.34975e-15
-2.66978e-08
-5.85396e-15
1.40524e-11
-7.82671e-09
-4.38174e-15
7.8074e-11
-2.46043e-08
-9.85348e-15
1.86489e-10
-4.23112e-08
-9.91587e-15
4.09511e-10
-6.35135e-08
-1.20935e-14
6.29464e-10
-8.74219e-08
-8.56944e-15
9.40456e-10
-1.14575e-07
-1.64312e-14
1.44672e-09
-1.40006e-07
-1.4269e-14
1.91506e-09
-1.42206e-07
-1.40113e-14
1.35607e-09
-9.56356e-08
-9.1932e-15
-2.53418e-08
-2.98035e-15
1.59728e-11
-7.84268e-09
-4.6404e-15
7.39935e-11
-2.46623e-08
-1.04326e-14
2.13221e-10
-4.24505e-08
-9.79343e-15
4.53486e-10
-6.37538e-08
-1.15634e-14
6.9354e-10
-8.76619e-08
-8.64204e-15
1.02957e-09
-1.14911e-07
-1.70342e-14
1.56627e-09
-1.40543e-07
-1.17912e-14
2.053e-09
-1.42693e-07
-1.26911e-14
1.4576e-09
-9.50402e-08
-7.03995e-15
-2.38842e-08
-2.8108e-15
1.7944e-11
-7.86063e-09
-4.8527e-15
6.59877e-11
-2.47103e-08
-1.16874e-14
2.37413e-10
-4.26219e-08
-8.94019e-15
4.94324e-10
-6.40108e-08
-1.10167e-14
7.56101e-10
-8.79236e-08
-8.66746e-15
1.11945e-09
-1.15274e-07
-1.70777e-14
1.68961e-09
-1.41113e-07
-1.25594e-14
2.19767e-09
-1.43201e-07
-1.28862e-14
1.56582e-09
-9.44083e-08
-7.72174e-15
-2.23184e-08
-4.55121e-15
1.99533e-11
-7.88058e-09
-5.08768e-15
5.67884e-11
-2.47471e-08
-1.20899e-14
2.60573e-10
-4.28257e-08
-9.21311e-15
5.33338e-10
-6.42836e-08
-9.89466e-15
8.18062e-10
-8.82083e-08
-8.48283e-15
1.21107e-09
-1.15667e-07
-1.90805e-14
1.81749e-09
-1.41719e-07
-1.34617e-14
2.35005e-09
-1.43733e-07
-1.399e-14
1.68184e-09
-9.37401e-08
-1.01273e-14
-2.06366e-08
-2.46195e-15
2.19742e-11
-7.90255e-09
-5.51373e-15
4.93754e-11
-2.47746e-08
-1.28815e-14
2.83884e-10
-4.30602e-08
-8.14719e-15
5.71287e-10
-6.4571e-08
-9.86628e-15
8.79642e-10
-8.85166e-08
-8.48411e-15
1.30465e-09
-1.16092e-07
-1.87718e-14
1.94992e-09
-1.42365e-07
-1.3616e-14
2.51058e-09
-1.44294e-07
-1.15022e-14
1.80662e-09
-9.30361e-08
-7.63808e-15
-1.88299e-08
5.2845e-16
2.3948e-11
-7.9265e-09
-5.93173e-15
4.66675e-11
-2.47973e-08
-1.37902e-14
3.08671e-10
-4.33222e-08
-6.22142e-15
6.09229e-10
-6.48715e-08
-5.83509e-15
9.40825e-10
-8.88482e-08
-1.39497e-14
1.3994e-09
-1.16551e-07
-1.87689e-14
2.08568e-09
-1.43051e-07
-1.51863e-14
2.67881e-09
-1.44887e-07
-1.2257e-14
1.9411e-09
-9.22984e-08
-6.82235e-15
-1.68888e-08
-1.67735e-15
2.57588e-11
-7.95226e-09
-6.52353e-15
5.07382e-11
-2.48222e-08
-1.3997e-14
3.34833e-10
-4.36063e-08
-5.30636e-15
6.4564e-10
-6.51823e-08
-6.08017e-15
9.98452e-10
-8.92011e-08
-1.41679e-14
1.49143e-09
-1.17044e-07
-2.02636e-14
2.22058e-09
-1.4378e-07
-1.50841e-14
2.85226e-09
-1.45519e-07
-1.07905e-14
2.08586e-09
-9.1532e-08
-5.35251e-15
-1.4803e-08
4.43336e-16
2.71707e-11
-7.97943e-09
-7.08841e-15
6.21994e-11
-2.48573e-08
-1.42681e-14
3.60912e-10
-4.3905e-08
-4.35601e-15
6.777e-10
-6.54991e-08
-7.33706e-15
1.04737e-09
-8.95707e-08
-1.39871e-14
1.5733e-09