/*--------------------------------*- C++ -*----------------------------------*\
| =========                 |                                                 |
| \\      /  F ield         | OpenFOAM: The Open Source CFD Toolbox           |
|  \\    /   O peration     | Version:  v2012                                 |
|   \\  /    A nd           | Website:  www.openfoam.com                      |
|    \\/     M anipulation  |                                                 |
\*---------------------------------------------------------------------------*/
FoamFile
{
    version     2.0;
    format      ascii;
    class       surfaceScalarField;
    location    "0.95";
    object      phi;
}
// * * * * * * * * * * * * * * * * * * * * * * * * * * * * * * * * * * * * * //

dimensions      [0 3 -1 0 0 0 0];
oriented        oriented;


internalField   nonuniform List<scalar> 
8145
(
3.14591e-10
-1.41471e-09
9.55914e-16
2.57974e-10
-1.31512e-09
6.75647e-16
2.03737e-10
-1.20297e-09
-2.29735e-16
1.52786e-10
-1.07451e-09
1.25171e-16
1.06255e-10
-9.25675e-10
-3.20597e-16
6.55838e-11
-7.53854e-10
-1.42983e-16
3.26075e-11
-5.61083e-10
-6.14658e-16
9.64063e-12
-3.5829e-10
-4.85854e-16
-1.49698e-10
-5.86708e-16
4.91594e-10
-1.60087e-09
-1.27667e-16
4.31247e-10
-1.52547e-09
2.2249e-15
3.7152e-10
-1.44464e-09
2.56481e-15
3.12979e-10
-1.35616e-09
1.62857e-15
2.56264e-10
-1.25841e-09
1.60839e-16
2.02092e-10
-1.14881e-09
2.66795e-16
1.51346e-10
-1.02377e-09
-1.94248e-16
1.0512e-10
-8.79457e-10
3.81319e-17
6.48154e-11
-7.13557e-10
-3.43672e-16
3.2205e-11
-5.28483e-10
-3.44285e-16
9.52864e-12
-3.35624e-10
-6.0869e-16
-1.40179e-10
-4.98883e-16
3.27409e-10
-9.41583e-10
2.28077e-15
3.80161e-10
-1.05056e-09
4.54966e-15
4.36193e-10
-1.16189e-09
9.1877e-15
4.9487e-10
-1.27438e-09
6.80505e-15
5.55538e-10
-1.3867e-09
5.67623e-15
6.17417e-10
-1.4975e-09
6.71128e-15
6.79645e-10
-1.60547e-09
5.68466e-15
7.41278e-10
-1.70897e-09
6.48728e-15
8.01356e-10
-1.80687e-09
4.70055e-15
8.58884e-10
-1.89767e-09
6.91246e-15
9.12899e-10
-1.98033e-09
4.7971e-15
9.62466e-10
-2.0538e-09
7.2875e-15
1.00674e-09
-2.11706e-09
4.68058e-15
1.04498e-09
-2.16988e-09
7.89471e-15
1.07653e-09
-2.21147e-09
4.63942e-15
1.10091e-09
-2.24192e-09
7.47988e-15
1.11778e-09
-2.2613e-09
3.79328e-15
1.12695e-09
-2.26986e-09
7.14907e-15
1.12838e-09
-2.26813e-09
3.46179e-15
1.12217e-09
-2.25679e-09
6.55599e-15
1.10856e-09
-2.2367e-09
2.92271e-15
1.08789e-09
-2.20868e-09
6.08476e-15
1.06062e-09
-2.17377e-09
2.59224e-15
1.02723e-09
-2.13287e-09
5.03683e-15
9.88347e-10
-2.08648e-09
1.51892e-15
9.44516e-10
-2.03661e-09
3.36795e-15
8.9641e-10
-1.98269e-09
4.13592e-16
8.44624e-10
-1.92643e-09
2.74142e-15
7.89809e-10
-1.86747e-09
6.38768e-16
7.32569e-10
-1.80611e-09
2.38932e-15
6.73462e-10
-1.74359e-09
5.71769e-16
6.13084e-10
-1.67815e-09
2.07386e-15
5.51961e-10
-1.61055e-09
4.4141e-16
4.9063e-10
-1.53955e-09
1.29035e-15
4.29645e-10
-1.46447e-09
1.42954e-15
3.69508e-10
-1.38449e-09
3.07274e-15
3.10777e-10
-1.29743e-09
8.91334e-16
2.5406e-10
-1.20169e-09
6.76146e-16
2.00053e-10
-1.09481e-09
-1.59497e-16
1.49601e-10
-9.73322e-10
2.11902e-16
1.03769e-10
-8.33632e-10
-2.22537e-16
6.39068e-11
-6.73702e-10
-4.47356e-17
3.17321e-11
-4.96318e-10
-4.8356e-16
9.39392e-12
-3.13296e-10
-3.68235e-16
-1.30793e-10
-5.42555e-16
3.56616e-10
-9.944e-10
7.84137e-15
4.13211e-10
-1.10715e-09
3.90598e-15
4.73077e-10
-1.2217e-09
8.99411e-15
5.35479e-10
-1.33677e-09
4.15727e-15
5.99676e-10
-1.45089e-09
5.38739e-15
6.64785e-10
-1.56259e-09
4.44913e-15
7.29852e-10
-1.67052e-09
7.14288e-15
7.93847e-10
-1.77295e-09
4.81101e-15
8.55733e-10
-1.86874e-09
7.60938e-15
9.1446e-10
-1.95638e-09
5.2687e-15
9.69022e-10
-2.03487e-09
8.60308e-15
1.01847e-09
-2.10323e-09
5.42892e-15
1.06196e-09
-2.16053e-09
9.09382e-15
1.09876e-09
-2.20666e-09
5.57612e-15
1.12829e-09
-2.24097e-09
9.218e-15
1.1501e-09
-2.26371e-09
4.73183e-15
1.16394e-09
-2.27513e-09
8.35561e-15
1.16972e-09
-2.27561e-09
4.01784e-15
1.16747e-09
-2.26587e-09
7.74462e-15
1.15741e-09
-2.2467e-09
3.28226e-15
1.13985e-09
-2.21913e-09
6.87054e-15
1.11523e-09
-2.18406e-09
2.8177e-15
1.08409e-09
-2.14261e-09
6.0547e-15
1.04699e-09
-2.09577e-09
2.00625e-15
1.00459e-09
-2.04408e-09
4.59281e-15
9.57513e-10
-1.98954e-09
8.90553e-16
9.06436e-10
-1.93161e-09
3.2342e-15
8.52e-10
-1.87199e-09
6.64041e-16
7.94847e-10
-1.81032e-09
2.86221e-15
7.35606e-10
-1.74687e-09
6.86109e-16
6.74811e-10
-1.6828e-09
2.35222e-15
6.13066e-10
-1.6164e-09
7.18274e-16
5.50866e-10
-1.54836e-09
1.77218e-15
4.88747e-10
-1.47743e-09
3.46889e-16
4.27224e-10
-1.40294e-09
2.23425e-15
3.6679e-10
-1.32404e-09
1.90727e-15
3.07971e-10
-1.23861e-09
1.36336e-15
2.51358e-10
-1.14509e-09
4.67092e-17
1.97611e-10
-1.04107e-09
2.79722e-16
1.4755e-10
-9.23268e-10
-1.69466e-16
1.02196e-10
-7.88286e-10
9.84349e-17
6.28591e-11
-6.34372e-10
-2.85069e-16
3.11858e-11
-4.64654e-10
-2.43343e-16
9.2386e-12
-2.91359e-10
-5.21172e-16
-1.21563e-10
-4.41971e-16
3.88872e-10
-1.05135e-09
3.16763e-15
4.49612e-10
-1.16789e-09
3.45221e-15
5.13573e-10
-1.28561e-09
9.63279e-15
5.79919e-10
-1.40307e-09
9.83179e-15
6.47789e-10
-1.5187e-09
9.13854e-15
7.16197e-10
-1.63095e-09
1.06047e-14
7.84092e-10
-1.73836e-09
9.22419e-15
8.50355e-10
-1.83917e-09
1.06313e-14
9.13878e-10
-1.93221e-09
8.18306e-15
9.73552e-10
-2.01602e-09
1.06681e-14
1.02835e-09
-2.08962e-09
7.66123e-15
1.07729e-09
-2.15214e-09
1.07081e-14
1.11958e-09
-2.20276e-09
7.15386e-15
1.1545e-09
-2.24154e-09
1.0782e-14
1.18153e-09
-2.26796e-09
6.4899e-15
1.20031e-09
-2.28247e-09
9.84412e-15
1.21068e-09
-2.28547e-09
5.15093e-15
1.21263e-09
-2.27754e-09
8.87871e-15
1.20632e-09
-2.25954e-09
4.26287e-15
1.19206e-09
-2.23242e-09
7.79967e-15
1.17027e-09
-2.19732e-09
3.38191e-15
1.14146e-09
-2.15525e-09
6.85969e-15
1.10627e-09
-2.10741e-09
2.71322e-15
1.06532e-09
-2.05482e-09
5.53387e-15
1.01934e-09
-1.99808e-09
1.63736e-15
9.68958e-10
-1.93917e-09
4.00788e-15
9.14921e-10
-1.87757e-09
8.38826e-16
8.57855e-10
-1.81494e-09
3.23785e-15
7.98433e-10
-1.7509e-09
8.4221e-16
7.3726e-10
-1.6857e-09
2.71917e-15
6.74881e-10
-1.62042e-09
7.6751e-16
6.11866e-10
-1.55339e-09
2.25022e-15
5.48709e-10
-1.48521e-09
5.39079e-16
4.85909e-10
-1.41464e-09
1.46534e-15
4.2397e-10
-1.341e-09
1.07763e-15
3.63347e-10
-1.26341e-09
2.28047e-15
3.04556e-10
-1.17982e-09
4.90286e-16
2.48149e-10
-1.08869e-09
5.30332e-16
1.94766e-10
-9.877e-10
-2.05052e-16
1.45188e-10
-8.73698e-10
2.12398e-16
1.00405e-10
-7.43509e-10
-2.06456e-16
6.16693e-11
-5.95644e-10
-1.43961e-17
3.0568e-11
-4.33562e-10
-4.29945e-16
9.06014e-12
-2.6986e-10
-3.20837e-16
-1.12511e-10
-5.12759e-16
4.24656e-10
-1.11273e-09
6.51508e-15
4.89835e-10
-1.23308e-09
1.95069e-15
5.58131e-10
-1.35386e-09
8.99732e-15
6.28591e-10
-1.47351e-09
5.93738e-15
7.00244e-10
-1.59033e-09
8.30491e-15
7.71982e-10
-1.70266e-09
6.75063e-15
8.42651e-10
-1.809e-09
1.00752e-14
9.11042e-10
-1.90753e-09
7.28813e-15
9.75972e-10
-1.99711e-09
1.07554e-14
1.03629e-09
-2.0763e-09
7.44332e-15
1.09093e-09
-2.14422e-09
1.14268e-14
1.13895e-09
-2.20012e-09
7.45543e-15
1.17954e-09
-2.24332e-09
1.18344e-14
1.21208e-09
-2.27403e-09
7.31903e-15
1.2361e-09
-2.29195e-09
1.15817e-14
1.25134e-09
-2.29769e-09
6.16715e-15
1.25775e-09
-2.29185e-09
1.03267e-14
1.25544e-09
-2.2752e-09
5.01539e-15
1.24467e-09
-2.24875e-09
9.18528e-15
1.22587e-09
-2.21359e-09
3.93562e-15
1.19955e-09
-2.17099e-09
7.90345e-15
1.16634e-09
-2.12203e-09
3.15261e-15
1.12693e-09
-2.06798e-09
6.69031e-15
1.08203e-09
-2.00992e-09
2.17274e-15
1.03238e-09
-1.94843e-09
5.0957e-15
9.78701e-10
-1.88549e-09
1.19112e-15
9.21713e-10
-1.82058e-09
3.81164e-15
8.62084e-10
-1.75531e-09
8.93103e-16
8.0046e-10
-1.68927e-09
3.18947e-15
7.37464e-10
-1.6227e-09
8.22217e-16
6.73602e-10
-1.55657e-09
2.59657e-15
6.09445e-10
-1.48923e-09
7.71618e-16
5.45447e-10
-1.42121e-09
1.86998e-15
4.82099e-10
-1.3513e-09
3.37401e-16
4.1986e-10
-1.27875e-09
1.84019e-15
3.59173e-10
-1.20272e-09
1.09113e-15
3.0052e-10
-1.12117e-09
9.59373e-16
2.44432e-10
-1.03261e-09
-1.29833e-16
1.91514e-10
-9.34791e-10
2.33777e-16
1.42518e-10
-8.2471e-10
-1.88057e-16
9.83905e-11
-6.99388e-10
1.08862e-16
6.03398e-11
-5.576e-10
-2.69514e-16
2.98763e-11
-4.03107e-10
-2.03364e-16
8.86058e-12
-2.48854e-10
-4.93163e-16
-1.03659e-10
-4.23794e-16
4.64294e-10
-1.17895e-09
3.66412e-15
5.3424e-10
-1.30306e-09
1.03355e-15
6.07138e-10
-1.42673e-09
6.74973e-15
6.81913e-10
-1.54826e-09
8.76287e-15
7.57452e-10
-1.66583e-09
8.49861e-15
8.32524e-10
-1.77769e-09
1.08319e-14
9.05867e-10
-1.88229e-09
9.27136e-15
9.76182e-10
-1.9778e-09
1.17673e-14
1.04222e-09
-2.0631e-09
8.88933e-15
1.1028e-09
-2.13683e-09
1.21936e-14
1.15684e-09
-2.19821e-09
8.52014e-15
1.2034e-09
-2.24665e-09
1.25822e-14
1.24176e-09
-2.28162e-09
8.25968e-15
1.27134e-09
-2.30356e-09
1.26943e-14
1.29179e-09
-2.31235e-09
7.51834e-15
1.30295e-09
-2.30882e-09
1.16507e-14
1.3049e-09
-2.29376e-09
6.04905e-15
1.29785e-09
-2.26813e-09
1.03274e-14
1.28222e-09
-2.23309e-09
4.84941e-15
1.25853e-09
-2.18988e-09
8.89893e-15
1.22743e-09
-2.13986e-09
3.75014e-15
1.1896e-09
-2.0842e-09
7.59792e-15
1.14583e-09
-2.0242e-09
2.86375e-15
1.09687e-09
-1.96096e-09
6.04752e-15
1.04355e-09
-1.89509e-09
1.79431e-15
9.86564e-10
-1.8285e-09
4.5383e-15
9.26687e-10
-1.7607e-09
1.11092e-15
8.64558e-10
-1.69319e-09
3.61301e-15
8.00847e-10
-1.62556e-09
9.62839e-16
7.36133e-10
-1.55798e-09
2.9408e-15
6.70926e-10
-1.49136e-09
8.47218e-16
6.05752e-10
-1.42405e-09
2.34956e-15
5.41058e-10
-1.35652e-09
5.3899e-16
4.77287e-10
-1.28753e-09
1.48905e-15
4.14886e-10
-1.21635e-09
6.76459e-16
3.54256e-10
-1.14209e-09
1.5834e-15
2.95864e-10
-1.06278e-09
8.49233e-17
2.40204e-10
-9.76957e-10
3.74037e-16
1.87858e-10
-8.82454e-10
-2.62201e-16
1.39538e-10
-7.76398e-10
2.02587e-16
9.61579e-11
-6.56015e-10
-2.0062e-16
5.88689e-11
-5.20318e-10
7.33214e-18
2.91133e-11
-3.7336e-10
-3.91802e-16
8.63765e-12
-2.28387e-10
-2.89127e-16
-9.50292e-11
-4.94117e-16
5.08402e-10
-1.25035e-09
4.8404e-15
5.83433e-10
-1.37813e-09
-4.26471e-16
6.61173e-10
-1.50446e-09
7.00396e-15
7.40401e-10
-1.62748e-09
4.98902e-15
8.19868e-10
-1.74528e-09
8.5773e-15
8.98213e-10
-1.85601e-09
6.4787e-15
9.74059e-10
-1.95811e-09
1.07091e-14
1.04602e-09
-2.04973e-09
7.33535e-15
1.1128e-09
-2.12984e-09
1.18096e-14
1.17316e-09
-2.19715e-09
7.61815e-15
1.22605e-09
-2.25107e-09
1.26538e-14
1.27059e-09
-2.29114e-09
7.88188e-15
1.30608e-09
-2.31707e-09
1.33164e-14
1.33208e-09
-2.32951e-09
7.84014e-15
1.34834e-09
-2.32856e-09
1.30504e-14
1.35484e-09
-2.31528e-09
6.75169e-15
1.35178e-09
-2.29067e-09
1.17015e-14
1.33954e-09
-2.25585e-09
5.44512e-15
1.31864e-09
-2.21216e-09
1.02362e-14
1.28974e-09
-2.16096e-09
4.21562e-15
1.25357e-09
-2.10367e-09
8.6836e-15
1.21095e-09
-2.04156e-09
3.26223e-15
1.1627e-09
-1.97594e-09
7.19214e-15
1.10965e-09
-1.9079e-09
2.23178e-15
1.05263e-09
-1.83806e-09
5.52635e-15
9.92393e-10
-1.76827e-09
1.36901e-15
9.29689e-10
-1.69799e-09
4.24007e-15
8.6518e-10
-1.62868e-09
1.01403e-15
7.99491e-10
-1.55987e-09
3.41942e-15
7.33209e-10
-1.49169e-09
8.66131e-16
6.66792e-10
-1.42495e-09
2.72339e-15
6.00759e-10
-1.35802e-09
7.43209e-16
5.35506e-10
-1.29127e-09
1.90878e-15
4.71465e-10
-1.2235e-09
3.15652e-16
4.09033e-10
-1.15392e-09
1.54458e-15
3.48597e-10
-1.08166e-09
4.8673e-16
2.90584e-10
-1.00478e-09
6.15473e-16
2.3547e-10
-9.21853e-10
-2.87861e-16
1.83796e-10
-8.30792e-10
1.88612e-16
1.36254e-10
-7.28863e-10
-2.01631e-16
9.37061e-11
-6.13474e-10
1.21133e-16
5.72602e-11
-4.83879e-10
-2.45658e-16
2.82772e-11
-3.44385e-10
-1.59373e-16
8.39371e-12
-2.08512e-10
-4.55648e-16
-8.66431e-11
-3.97461e-16
5.57362e-10
-1.32739e-09
2.7649e-15
6.37835e-10
-1.45864e-09
9.38421e-16
7.2068e-10
-1.58728e-09
6.4853e-15
8.04519e-10
-1.7113e-09
9.77609e-15
8.87943e-10
-1.82866e-09
9.02866e-15
9.69451e-10
-1.93748e-09
1.18016e-14
1.04756e-09
-2.03618e-09
9.37165e-15
1.12081e-09
-2.12294e-09
1.26325e-14
1.18784e-09
-2.19683e-09
8.82367e-15
1.24743e-09
-2.25671e-09
1.30636e-14
1.29855e-09
-2.30214e-09
8.44061e-15
1.34036e-09
-2.33292e-09
1.36249e-14
1.37231e-09
-2.34897e-09
8.34717e-15
1.39403e-09
-2.35119e-09
1.38082e-14
1.40544e-09
-2.33992e-09
7.69514e-15
1.40665e-09
-2.31647e-09
1.28147e-14
1.39804e-09
-2.28202e-09
6.30131e-15
1.38011e-09
-2.2379e-09
1.12985e-14
1.35355e-09
-2.18557e-09
4.97757e-15
1.31912e-09
-2.12651e-09
9.64543e-15
1.27768e-09
-2.06221e-09
3.79723e-15
1.23009e-09
-1.99397e-09
8.08904e-15
1.17729e-09
-1.92311e-09
2.81658e-15
1.12011e-09
-1.85072e-09
6.40326e-15
1.05944e-09
-1.77738e-09
1.81924e-15
9.96007e-10
-1.70484e-09
4.90054e-15
9.30598e-10
-1.63258e-09
1.21953e-15
8.63825e-10
-1.56191e-09
3.85193e-15
7.96321e-10
-1.49237e-09
9.83405e-16
7.28617e-10
-1.42399e-09
3.05401e-15
6.61164e-10
-1.3575e-09
8.22953e-16
5.94424e-10
-1.29128e-09
2.35114e-15
5.28781e-10
-1.22563e-09
4.88598e-16
4.64613e-10
-1.15933e-09
1.50301e-15
4.02303e-10
-1.09161e-09
4.14332e-16
3.42189e-10
-1.02155e-09
1.1185e-15
2.84686e-10
-9.47285e-10
-2.28835e-16
2.30228e-10
-8.67407e-10
2.38327e-16
1.79339e-10
-7.79912e-10
-3.14651e-16
1.32665e-10
-6.82197e-10
1.92801e-16
9.10409e-11
-5.71856e-10
-1.92301e-16
5.55133e-11
-4.48358e-10
3.29607e-17
2.73712e-11
-3.1625e-10
-3.48208e-16
8.12666e-12
-1.89276e-10
-2.48366e-16
-7.85237e-11
-4.64248e-16
6.12045e-10
-1.41039e-09
1.08902e-14
6.98265e-10
-1.54487e-09
3.97172e-15
7.86408e-10
-1.67539e-09
1.1656e-14
8.74906e-10
-1.79978e-09
6.67561e-15
9.62205e-10
-1.91594e-09
1.04236e-14
1.04667e-09
-2.02192e-09
7.09361e-15
1.1267e-09
-2.11618e-09
1.20584e-14
1.20076e-09
-2.19697e-09
7.41691e-15
1.26746e-09
-2.26351e-09
1.28407e-14
1.32561e-09
-2.31482e-09
7.41487e-15
1.37421e-09
-2.35071e-09
1.35762e-14
1.41254e-09
-2.37122e-09
7.66729e-15
1.44014e-09
-2.37653e-09
1.42665e-14
1.45684e-09
-2.36783e-09
7.67744e-15
1.46267e-09
-2.34572e-09
1.39985e-14
1.45797e-09
-2.31172e-09
6.73827e-15
1.44323e-09
-2.26726e-09
1.26236e-14
1.41915e-09
-2.21379e-09
5.41082e-15
1.38654e-09
-2.15293e-09
1.09311e-14
1.3463e-09
-2.08624e-09
4.14166e-15
1.29937e-09
-2.01526e-09
9.1787e-15
1.24672e-09
-1.94131e-09
3.11866e-15
1.1893e-09
-1.86568e-09
7.48895e-15
1.12802e-09
-1.78944e-09
2.1163e-15
1.06376e-09
-1.7131e-09
5.78518e-15
9.9726e-10
-1.63834e-09
1.36586e-15
9.29269e-10
-1.56458e-09
4.47548e-15
8.60408e-10
-1.49305e-09
9.99238e-16
7.91247e-10
-1.42321e-09
3.5247e-15
7.22314e-10
-1.35505e-09
8.11509e-16
6.53992e-10
-1.28919e-09
2.73745e-15
5.86733e-10
-1.22402e-09
6.33466e-16
5.20859e-10
-1.15977e-09
1.8762e-15
4.56734e-10
-1.09521e-09
2.68998e-16
3.94688e-10
-1.02957e-09
1.35637e-15
3.35042e-10
-9.61913e-10
9.76296e-17
2.7817e-10
-8.90425e-10
3.57414e-16
2.24491e-10
-8.13739e-10
-4.23066e-16
1.74486e-10
-7.29919e-10
1.39757e-16
1.28782e-10
-6.365e-10
-2.18312e-16
8.81638e-11
-5.31245e-10
1.26382e-16
5.36332e-11
-4.13833e-10
-2.24481e-16
2.63942e-11
-2.89018e-10
-1.20291e-16
7.83903e-12
-1.70728e-10
-4.166e-16
-7.06918e-11
-3.67741e-16
6.72816e-10
-1.4999e-09
8.46621e-15
7.65146e-10
-1.63721e-09
5.89363e-15
8.58807e-10
-1.769e-09
1.07061e-14
9.52042e-10
-1.89298e-09
1.23253e-14
1.04312e-09
-2.00697e-09
9.92684e-15
1.13025e-09
-2.10902e-09
1.29282e-14
1.21175e-09
-2.19764e-09
9.19623e-15
1.28603e-09
-2.27122e-09
1.33627e-14
1.35171e-09
-2.32915e-09
8.3344e-15
1.40761e-09
-2.37069e-09
1.37661e-14
1.45285e-09
-2.39591e-09
7.9356e-15
1.48682e-09
-2.40516e-09
1.4389e-14
1.50924e-09
-2.3989e-09
7.93544e-15
1.52007e-09
-2.37863e-09
1.45847e-14
1.5196e-09
-2.3452e-09
7.40458e-15
1.50829e-09
-2.30039e-09
1.36258e-14
1.48687e-09
-2.2458e-09
6.13965e-15
1.45617e-09
-2.18306e-09
1.19547e-14
1.41716e-09
-2.11389e-09
4.77931e-15
1.37085e-09
-2.0399e-09
1.01128e-14
1.31829e-09
-1.96268e-09
3.58182e-15
1.26049e-09
-1.8835e-09
8.35294e-15
1.19847e-09
-1.80365e-09
2.58066e-15
1.13314e-09
-1.72411e-09
6.57398e-15
1.06541e-09
-1.64535e-09
1.67906e-15
9.95975e-10
-1.56892e-09
5.06179e-15
9.25594e-10
-1.49419e-09
1.15411e-15
8.54818e-10
-1.42228e-09
3.93586e-15
7.84214e-10
-1.3526e-09
8.95484e-16
7.14236e-10
-1.28507e-09
3.05472e-15
6.45256e-10
-1.22021e-09
7.10145e-16
5.77655e-10
-1.15642e-09
2.26835e-15
5.11741e-10
-1.09385e-09
3.7678e-16
4.47818e-10
-1.0313e-09
1.46198e-15
3.86198e-10
-9.67949e-10
2.30782e-16
3.27157e-10
-9.02882e-10
8.18437e-16
2.71052e-10
-8.34332e-10
-4.63149e-16
2.18262e-10
-7.60962e-10
1.16003e-16
1.69252e-10
-6.80919e-10
-3.70833e-16
1.24607e-10
-5.91863e-10
1.71337e-16
8.50828e-11
-4.91727e-10
-1.94397e-16
5.16208e-11
-3.80377e-10
4.62436e-17
2.535e-11
-2.62754e-10
-3.16151e-16
7.52887e-12
-1.52915e-10
-2.167e-16
-6.31697e-11
-4.37856e-16
7.40908e-10
-1.59627e-09
1.08137e-14
8.39581e-10
-1.7359e-09
4.42905e-15
9.38837e-10
-1.86821e-09
1.36103e-14
1.03671e-09
-1.99083e-09
8.40331e-15
1.13128e-09
-2.10152e-09
1.30402e-14
1.22065e-09
-2.19836e-09
7.61555e-15
1.30302e-09
-2.28e-09
1.34059e-14
1.37678e-09
-2.34496e-09
7.15874e-15
1.44056e-09
-2.39291e-09
1.38237e-14
1.49329e-09
-2.42338e-09
6.94108e-15
1.53419e-09
-2.43679e-09
1.4457e-14
1.56284e-09
-2.43377e-09
7.163e-15
1.57911e-09
-2.41514e-09
1.50764e-14
1.58323e-09
-2.3827e-09
7.20985e-15
1.57565e-09
-2.33758e-09
1.47453e-14
1.55708e-09
-2.28178e-09
6.41211e-15
1.52841e-09
-2.2171e-09
1.33015e-14
1.49066e-09
-2.14528e-09
5.1033e-15
1.44492e-09
-2.06813e-09
1.13928e-14
1.39234e-09
-1.9873e-09
3.83024e-15
1.33402e-09
-1.90435e-09
9.45146e-15
1.27107e-09
-1.82054e-09
2.78827e-15
1.2045e-09
-1.73707e-09
7.60225e-15
1.13525e-09
-1.65485e-09
1.84864e-15
1.06418e-09
-1.57428e-09
5.865e-15
9.92021e-10
-1.49675e-09
1.19802e-15
9.19439e-10
-1.42161e-09
4.52803e-15
8.46985e-10
-1.34983e-09
8.61425e-16
7.75146e-10
-1.28076e-09
3.50788e-15
7.04359e-10
-1.21428e-09
6.7244e-16
6.34919e-10
-1.15078e-09
2.65866e-15
5.67191e-10
-1.08869e-09
4.68707e-16
5.01414e-10
-1.02809e-09
1.77628e-15
4.37877e-10
-9.67767e-10
1.72229e-16
3.76835e-10
-9.06912e-10
1.20544e-15
3.18551e-10
-8.44606e-10
-1.62264e-16
2.63337e-10
-7.79132e-10
1.5755e-16
2.11558e-10
-7.09196e-10
-5.43286e-16
1.63643e-10
-6.33015e-10
8.11318e-17
1.20153e-10
-5.4838e-10
-2.45349e-16
8.18012e-11
-4.53381e-10
1.15896e-16
4.94824e-11
-3.48064e-10
-2.1713e-16
2.42381e-11
-2.37517e-10
-9.88733e-17
7.19884e-12
-1.35883e-10
-3.90496e-16
-5.59777e-11
-3.47404e-16
8.16626e-10
-1.70005e-09
7.43635e-15
9.21987e-10
-1.84127e-09
7.63073e-15
1.02697e-09
-1.97313e-09
1.27266e-14
1.12938e-09
-2.09319e-09
1.78247e-14
1.22714e-09
-2.19919e-09
1.43848e-14
1.31817e-09
-2.28935e-09
1.66681e-14
1.40067e-09
-2.36245e-09
1.04254e-14
1.47301e-09
-2.41726e-09
1.51976e-14
1.5339e-09
-2.45377e-09
8.30902e-15
1.58237e-09
-2.47183e-09
1.4983e-14
1.61784e-09
-2.47222e-09
7.5434e-15
1.64007e-09
-2.45597e-09
1.53372e-14
1.64921e-09
-2.42424e-09
7.43716e-15
1.64567e-09
-2.37913e-09
1.53474e-14
1.6302e-09
-2.32206e-09
6.93967e-15
1.60367e-09
-2.25524e-09
1.42964e-14
1.56723e-09
-2.18062e-09
5.76798e-15
1.52201e-09
-2.10005e-09
1.24304e-14
1.4693e-09
-2.01539e-09
4.3929e-15
1.41029e-09
-1.92827e-09
1.03848e-14
1.34619e-09
-1.84023e-09
3.19685e-15
1.27811e-09
-1.75246e-09
8.44015e-15
1.20711e-09
-1.66606e-09
2.21255e-15
1.13409e-09
-1.58184e-09
6.58318e-15
1.05992e-09
-1.50009e-09
1.40864e-15
9.85238e-10
-1.42208e-09
5.05088e-15
9.1072e-10
-1.34709e-09
9.57762e-16
8.3682e-10
-1.27593e-09
3.88685e-15
7.64009e-10
-1.20795e-09
7.23919e-16
6.92638e-10
-1.14291e-09
2.96212e-15
6.2298e-10
-1.08112e-09
5.39486e-16
5.55325e-10
-1.02103e-09
2.12796e-15
4.89894e-10
-9.62659e-10
2.23888e-16
4.26912e-10
-9.04794e-10
1.36241e-15
3.66621e-10
-8.46625e-10
7.36378e-17
3.09231e-10
-7.87229e-10
6.02656e-16
2.55045e-10
-7.2496e-10
-6.46599e-16
2.04389e-10
-6.58554e-10
-2.34422e-19
1.57674e-10
-5.86311e-10
-4.32592e-16
1.15427e-10
-5.06141e-10
1.35654e-16
7.83293e-11
-4.1629e-10
-2.09592e-16
4.72199e-11
-3.16961e-10
4.2666e-17
2.30629e-11
-2.13366e-10
-3.00918e-16
6.84717e-12
-1.19674e-10
-2.01135e-16
-4.9137e-11
-4.22047e-16
9.01772e-10
-1.81149e-09
1.48576e-14
1.01389e-09
-1.95337e-09
8.67772e-15
1.12445e-09
-2.08361e-09
1.96449e-14
1.23101e-09
-2.1997e-09
1.27819e-14
1.33133e-09
-2.29946e-09
1.83436e-14
1.42324e-09
-2.38122e-09
9.66033e-15
1.50488e-09
-2.44407e-09
1.59795e-14
1.57469e-09
-2.48705e-09
7.38729e-15
1.63147e-09
-2.51053e-09
1.53713e-14
1.67445e-09
-2.51478e-09
6.63758e-15
1.70325e-09
-2.501e-09
1.5648e-14
1.7179e-09
-2.47059e-09
6.67516e-15
1.7188e-09
-2.42511e-09
1.59825e-14
1.70667e-09
-2.36696e-09
6.65811e-15
1.68247e-09
-2.29783e-09
1.54389e-14
1.64736e-09
-2.2201e-09
5.93726e-15
1.60263e-09
-2.13586e-09
1.38347e-14
1.54964e-09
-2.04703e-09
4.6463e-15
1.48972e-09
-1.95545e-09
1.16906e-14
1.42422e-09
-1.86274e-09
3.37883e-15
1.35435e-09
-1.77035e-09
9.55502e-15
1.28128e-09
-1.67937e-09
2.34464e-15
1.20601e-09
-1.59079e-09
7.56835e-15
1.12946e-09
-1.50528e-09
1.48098e-15
1.05242e-09
-1.42305e-09
5.79793e-15
9.75517e-10
-1.34518e-09
9.21802e-16
8.99324e-10
-1.2709e-09
4.44108e-15
8.24277e-10
-1.20089e-09
6.42564e-16
7.50749e-10
-1.13443e-09
3.3956e-15
6.79067e-10
-1.07123e-09
4.80912e-16
6.09419e-10
-1.01148e-09
2.51591e-15
5.42073e-10
-9.53689e-10
2.79539e-16
4.7718e-10
-8.97775e-10
1.63202e-15
4.14949e-10
-8.4257e-10
3.90778e-17
3.55564e-10
-7.87246e-10
1.05659e-15
2.99225e-10
-7.30901e-10
-3.56952e-16
2.4619e-10
-6.71941e-10
-1.11334e-17
1.96775e-10
-6.09152e-10
-6.54071e-16
1.51357e-10
-5.40905e-10
1.25694e-17
1.10442e-10
-4.65234e-10
-2.81963e-16
7.46724e-11
-3.80528e-10
9.05127e-17
4.48413e-11
-2.87135e-10
-2.23195e-16
2.18245e-11
-1.90356e-10
-9.49045e-17
6.47666e-12
-1.04333e-10
-3.77994e-16
-4.26669e-11
-3.37912e-16
9.96371e-10
-1.93115e-09
8.96025e-15
1.1155e-09
-2.07251e-09
1.13909e-14
1.23157e-09
-2.1996e-09
1.62223e-14
1.34192e-09
-2.30999e-09
2.02987e-14
1.44413e-09
-2.40159e-09
1.45571e-14
1.53598e-09
-2.47303e-09
1.78895e-14
1.61562e-09
-2.52367e-09
9.81415e-15
1.68158e-09
-2.55299e-09
1.63087e-14
1.73288e-09
-2.5618e-09
7.69887e-15
1.76894e-09
-2.55083e-09
1.61689e-14
1.78972e-09
-2.52173e-09
7.02719e-15
1.7955e-09
-2.47636e-09
1.6353e-14
1.78705e-09
-2.41661e-09
6.86224e-15
1.76533e-09
-2.34522e-09
1.60848e-14
1.73164e-09
-2.26408e-09
6.36392e-15
1.68732e-09
-2.17576e-09
1.48405e-14
1.6339e-09
-2.0824e-09
5.26195e-15
1.57283e-09
-1.98595e-09
1.27485e-14
1.50563e-09
-1.88822e-09
3.89268e-15
1.43363e-09
-1.79073e-09
1.04938e-14
1.35812e-09
-1.69483e-09
2.71304e-15
1.28021e-09
-1.60147e-09
8.38344e-15
1.20095e-09
-1.51151e-09
1.76942e-15
1.12113e-09
-1.42548e-09
6.46178e-15
1.04155e-09
-1.34346e-09
1.06181e-15
9.62725e-10
-1.26636e-09
4.91249e-15
8.85196e-10
-1.19336e-09
6.8815e-16
8.09291e-10
-1.12499e-09
3.74042e-15
7.35357e-10
-1.06049e-09
5.06451e-16
6.63622e-10
-9.99495e-10
2.80451e-15
5.94253e-10
-9.4212e-10
3.44184e-16
5.27435e-10
-8.86875e-10
1.9544e-15
4.63301e-10
-8.33648e-10
5.53567e-17
4.01998e-10
-7.81276e-10
1.2214e-15
3.43695e-10
-7.28949e-10
-7.73114e-17
2.88546e-10
-6.75765e-10
4.21748e-16
2.36798e-10
-6.20209e-10
-8.01188e-16
1.88732e-10
-5.61101e-10
-1.15391e-16
1.44711e-10
-4.96895e-10
-4.98544e-16
1.05209e-10
-4.25741e-10
8.79422e-17
7.0843e-11
-3.46168e-10
-2.34709e-16
4.23497e-11
-2.58648e-10
2.53485e-17
2.05281e-11
-1.6854e-10
-2.98757e-16
6.08575e-12
-8.98981e-11
-1.98505e-16
-3.65876e-11
-4.14491e-16
1.10312e-09
-2.05906e-09
1.39729e-14
1.22898e-09
-2.19837e-09
6.72015e-15
1.34999e-09
-2.32055e-09
2.10361e-14
1.46325e-09
-2.42321e-09
1.15433e-14
1.56623e-09
-2.50454e-09
1.8589e-14
1.65667e-09
-2.56345e-09
8.00319e-15
1.73281e-09
-2.5998e-09
1.65477e-14
1.79335e-09
-2.61351e-09
6.22559e-15
1.83752e-09
-2.60596e-09
1.63959e-14
1.8651e-09
-2.57838e-09
5.93338e-15
1.87633e-09
-2.53294e-09
1.68123e-14
1.87192e-09
-2.47192e-09
6.07282e-15
1.85292e-09
-2.39759e-09
1.68665e-14
1.82069e-09
-2.31295e-09
6.01156e-15
1.77672e-09
-2.22009e-09
1.60164e-14
1.72268e-09
-2.12168e-09
5.33721e-15
1.66019e-09
-2.0199e-09
1.41913e-14
1.59093e-09
-1.91665e-09
4.08061e-15
1.51638e-09
-1.81366e-09
1.1818e-14
1.43801e-09
-1.71233e-09
2.84049e-15
1.35704e-09
-1.61385e-09
9.50382e-15
1.27461e-09
-1.51903e-09
1.84009e-15
1.19164e-09
-1.42854e-09
7.40814e-15
1.10894e-09
-1.34278e-09
1.0621e-15
1.02716e-09
-1.26168e-09
5.6159e-15
9.46791e-10
-1.186e-09
5.93201e-16
8.68255e-10
-1.11483e-09
4.25644e-15
7.91848e-10
-1.04859e-09
3.86481e-16
7.17803e-10
-9.86454e-10
3.21709e-15
6.46322e-10
-9.28014e-10
2.69976e-16
5.77481e-10
-8.73289e-10
2.3348e-15
5.11443e-10
-8.2084e-10
8.92629e-17
4.48271e-10
-7.70486e-10
1.46271e-15
3.88096e-10
-7.21108e-10
-1.11858e-16
3.31034e-10
-6.71895e-10
8.96625e-16
2.77228e-10
-6.21972e-10
-5.2201e-16
2.26888e-10
-5.69886e-10
-1.67071e-16
1.80284e-10
-5.14512e-10
-7.58938e-16
1.37751e-10
-4.54374e-10
-6.43161e-17
9.97463e-11
-3.87744e-10
-3.24858e-16
6.68489e-11
-3.13277e-10
5.43396e-17
3.97546e-11
-2.3156e-10
-2.37919e-16
1.91747e-11
-1.47967e-10
-1.02886e-16
5.67744e-12
-7.64076e-11
-3.73769e-16
-3.09166e-11
-3.34869e-16
1.22135e-09
-2.19574e-09
6.39546e-15
1.35401e-09
-2.33107e-09
1.08318e-14
1.47959e-09
-2.44605e-09
1.62941e-14
1.59496e-09
-2.53855e-09
1.98681e-14
1.69752e-09
-2.60705e-09
1.14593e-14
1.78507e-09
-2.65099e-09
1.7545e-14
1.85601e-09
-2.67072e-09
8.10017e-15
1.90931e-09
-2.6668e-09
1.72146e-14
1.94455e-09
-2.64118e-09
6.88546e-15
1.96188e-09
-2.5957e-09
1.74914e-14
1.96199e-09
-2.53302e-09
6.5383e-15
1.94595e-09
-2.45587e-09
1.74354e-14
1.91527e-09
-2.36686e-09
6.27535e-15
1.87156e-09
-2.26922e-09
1.67358e-14
1.81669e-09
-2.16517e-09
5.70424e-15
1.75244e-09
-2.05743e-09
1.51906e-14
1.6807e-09
-1.94813e-09
4.64545e-15
1.60315e-09
-1.83909e-09
1.28648e-14
1.52141e-09
-1.73189e-09
3.31051e-15
1.43686e-09
-1.62777e-09
1.04256e-14
1.35076e-09
-1.52774e-09
2.17198e-15
1.26413e-09
-1.43241e-09
8.18726e-15
1.17788e-09
-1.34229e-09
1.2918e-15
1.09268e-09
-1.25758e-09
6.22694e-15
1.00915e-09
-1.17813e-09
6.83333e-16
9.27615e-10
-1.10448e-09
4.67957e-15
8.48481e-10
-1.03569e-09
3.92069e-16
7.7191e-10
-9.7203e-10
3.52596e-15
6.98105e-10
-9.12651e-10
2.76379e-16
6.27165e-10
-8.57078e-10
2.60563e-15
5.5914e-10
-8.05271e-10
1.49957e-16
4.94113e-10
-7.55819e-10
1.76383e-15
4.32131e-10
-7.08512e-10
-1.11247e-16
3.73264e-10
-6.62252e-10
1.05278e-15
3.17618e-10
-6.16255e-10
-2.29248e-16
2.65293e-10
-5.69663e-10
2.48866e-16
2.16492e-10
-5.21102e-10
-9.40818e-16
1.71452e-10
-4.69488e-10
-2.32571e-16
1.30501e-10
-4.13435e-10
-5.66445e-16
9.40663e-11
-3.51319e-10
3.17151e-17
6.27051e-11
-2.81923e-10
-2.64942e-16
3.70614e-11
-2.05922e-10
-2.78494e-19
1.77703e-11
-1.28682e-10
-3.03217e-16
5.25054e-12
-6.38948e-11
-2.02567e-16
-2.56722e-11
-4.09751e-16
1.35529e-09
-2.34051e-09
2.77428e-14
1.49378e-09
-2.46953e-09
1.24331e-14
1.62259e-09
-2.57476e-09
2.87328e-14
1.73839e-09
-2.65434e-09
9.04289e-15
1.83861e-09
-2.70728e-09
1.67528e-14
1.92119e-09
-2.73357e-09
4.57687e-15
1.98475e-09
-2.7343e-09
1.63951e-14
2.02863e-09
-2.71068e-09
4.44047e-15
2.05284e-09
-2.66539e-09
1.72315e-14
2.05802e-09
-2.60085e-09
4.98649e-15
2.04529e-09
-2.52029e-09
1.78572e-14
2.01623e-09
-2.4268e-09
5.35524e-15
1.9727e-09
-2.32331e-09
1.75986e-14
1.91671e-09
-2.2132e-09
5.2718e-15
1.85033e-09
-2.09877e-09
1.63718e-14
1.77562e-09
-1.98269e-09
4.62532e-15
1.6945e-09
-1.867e-09
1.42983e-14
1.60879e-09
-1.75335e-09
3.42518e-15
1.52005e-09
-1.64314e-09
1.17313e-14
1.42969e-09
-1.5374e-09
2.24387e-15
1.33885e-09
-1.4369e-09
9.2832e-15
1.24852e-09
-1.34207e-09
1.30657e-15
1.15945e-09
-1.25322e-09
7.12282e-15
1.07225e-09
-1.17039e-09
6.26117e-16
9.87393e-10
-1.09327e-09
5.33618e-15
9.05172e-10
-1.02227e-09
2.52006e-16
8.2583e-10
-9.56356e-10
3.99992e-15
7.49498e-10
-8.95704e-10
1.25959e-16
6.76262e-10
-8.39422e-10
2.99343e-15
6.06192e-10
-7.87009e-10
6.47818e-17
5.39247e-10
-7.38338e-10
2.13257e-15
4.75492e-10
-6.92068e-10
-8.63843e-17
4.14907e-10
-6.47937e-10
1.27981e-15
3.57549e-10
-6.04903e-10
-2.68594e-16
3.03476e-10
-5.62192e-10
7.19841e-16
2.52782e-10
-5.18983e-10
-6.76176e-16
2.05635e-10
-4.73973e-10
-3.2153e-16
1.62268e-10
-4.26137e-10
-8.59851e-16
1.22981e-10
-3.74161e-10
-1.47388e-16
8.81915e-11
-3.16538e-10
-3.7013e-16
5.8423e-11
-2.52162e-10
1.23154e-17
3.42816e-11
-1.81786e-10
-2.55453e-16
1.63175e-11
-1.10724e-10
-1.16075e-16
4.80844e-12
-5.23923e-11
-3.71204e-16
-2.087e-11
-3.32527e-16
1.50256e-09
-2.49384e-09
1.91867e-14
1.64664e-09
-2.61361e-09
1.85688e-14
1.77781e-09
-2.7058e-09
2.18226e-14
1.89263e-09
-2.76914e-09
2.17608e-14
1.98863e-09
-2.80326e-09
9.26968e-15
2.06401e-09
-2.80897e-09
1.76316e-14
2.11785e-09
-2.78812e-09
6.03029e-15
2.14993e-09
-2.74278e-09
1.76986e-14
2.16088e-09
-2.67632e-09
5.43826e-15
2.15185e-09
-2.59182e-09
1.82088e-14
2.12458e-09
-2.49299e-09
5.57617e-15
2.08108e-09
-2.3833e-09
1.80706e-14
2.02369e-09
-2.26587e-09
5.48475e-15
1.95467e-09
-2.14417e-09
1.70522e-14
1.87642e-09
-2.02048e-09
4.9267e-15
1.79107e-09
-1.89733e-09
1.52272e-14
1.7007e-09
-1.7766e-09
3.93258e-15
1.60705e-09
-1.65971e-09
1.27096e-14
1.51174e-09
-1.54781e-09
2.66713e-15
1.41603e-09
-1.44168e-09
1.01452e-14
1.32101e-09
-1.34187e-09
1.60011e-15
1.22749e-09
-1.24857e-09
7.83832e-15
1.13618e-09
-1.1619e-09
8.05963e-16
1.0475e-09
-1.08173e-09
5.88158e-15
9.61868e-10
-1.00763e-09
3.03149e-16
8.79408e-10
-9.39821e-10
4.36854e-15
8.00323e-10
-8.7727e-10
1.00168e-16
7.2461e-10
-8.20003e-10
3.26108e-15
6.52322e-10
-7.67137e-10
5.72884e-17
5.83425e-10
-7.18118e-10
2.38097e-15
5.17861e-10
-6.72781e-10
-2.60402e-17
4.55614e-10
-6.29829e-10
1.56607e-15
3.96655e-10
-5.88987e-10
-2.65031e-16
3.40986e-10
-5.49246e-10
8.64003e-16
2.88658e-10
-5.09871e-10
-3.85483e-16
2.39727e-10
-4.70069e-10
6.96446e-17
1.94358e-10
-4.28622e-10
-1.07362e-15
1.52758e-10
-3.84553e-10
-3.53452e-16
1.15221e-10
-3.36636e-10
-6.33856e-16
8.21403e-11
-2.83466e-10
-2.91924e-17
5.40218e-11
-2.2405e-10
-2.95196e-16
3.14238e-11
-1.59194e-10
-2.83432e-17
1.48241e-11
-9.41306e-11
-3.07514e-16
4.3507e-12
-4.19256e-11
-2.06759e-16
-1.65253e-11
-4.02093e-16
1.67002e-09
-2.65408e-09
2.94972e-14
1.81749e-09
-2.76108e-09
9.55059e-15
1.94839e-09
-2.8366e-09
3.06709e-14
2.0593e-09
-2.88007e-09
6.65782e-15
2.148e-09
-2.892e-09
1.69899e-14
2.21311e-09
-2.87409e-09
1.81468e-15
2.25416e-09
-2.82923e-09
1.64822e-14
2.27167e-09
-2.76029e-09
2.22943e-15
2.2668e-09
-2.67148e-09
1.7442e-14
2.24146e-09
-2.56647e-09
3.39072e-15