/*--------------------------------*- C++ -*----------------------------------*\
| =========                 |                                                 |
| \\      /  F ield         | OpenFOAM: The Open Source CFD Toolbox           |
|  \\    /   O peration     | Version:  v2012                                 |
|   \\  /    A nd           | Website:  www.openfoam.com                      |
|    \\/     M anipulation  |                                                 |
\*---------------------------------------------------------------------------*/
FoamFile
{
    version     2.0;
    format      ascii;
    class       volVectorField;
    location    "0.65";
    object      U;
}
// * * * * * * * * * * * * * * * * * * * * * * * * * * * * * * * * * * * * * //

dimensions      [0 1 -1 0 0 0 0];


internalField   nonuniform List<vector> 
2660
(
(0.317304 -24.8373 -0.00269582)
(-0.220673 -23.5424 0.00198385)
(-1.01444 -11.8976 0.00889347)
(-1.96194 -0.275276 0.017234)
(0.660143 6.4756 -0.00570345)
(-0.0117143 -25.1686 0.00012904)
(0.275284 -24.5906 -0.00236727)
(-0.0193961 -12.6909 0.000183641)
(-1.05356 0.668004 0.00926045)
(0.602262 6.66537 -0.00520439)
(-0.0415965 -25.3013 0.000425841)
(0.504108 -25.1298 -0.00437051)
(0.0654542 -12.7812 -0.000560141)
(0.063077 -0.926276 -0.000522623)
(0.163487 5.75841 -0.00136953)
(0.244743 -26.0009 -0.00205787)
(0.408168 -25.1656 -0.00354139)
(-0.120392 -12.7835 0.00106117)
(0.308444 -1.21249 -0.00267245)
(-0.0919806 4.78113 0.000862199)
(0.348824 -27.7834 -0.00297984)
(0.695244 -25.7847 -0.00605336)
(1.09894 -15.5583 -0.0095869)
(3.14558 -7.18901 -0.0274193)
(-0.289217 0.541579 0.00261672)
(0.329068 -29.4231 -0.00285665)
(0.236513 -27.3314 -0.00205995)
(0.818881 -20.4498 -0.00714965)
(3.6023 -10.9232 -0.0314393)
(3.33614 -9.90506 -0.0290798)
(0.286527 -30.5916 -0.0024767)
(0.354417 -28.0264 -0.00308564)
(0.466297 -23.2275 -0.00407739)
(1.68376 -14.6348 -0.0146977)
(1.83267 -10.3919 -0.0160055)
(0.226006 -31.4118 -0.0019525)
(-0.385467 -28.6129 0.00337042)
(0.991494 -24.4115 -0.00865981)
(1.22775 -14.4364 -0.0107233)
(0.704466 -5.5658 -0.00616614)
(0.40154 -32.4208 -0.00349189)
(0.0538152 -29.7242 -0.000467088)
(1.16451 -26.0486 -0.0101704)
(0.771466 -14.7947 -0.00673952)
(0.633391 -5.56739 -0.00552986)
(0.0470055 -33.3066 -0.000417512)
(0.091888 -30.8418 -0.000804538)
(1.35785 -27.178 -0.0118582)
(0.504938 -14.8819 -0.00440954)
(0.956493 -4.4434 -0.00835612)
(0.159561 -34.1726 -0.00139012)
(0.500078 -32.2328 -0.00435969)
(1.2017 -27.8687 -0.0104921)
(0.0186599 -15.5906 -0.000155396)
(0.998636 -3.15136 -0.00872191)
(0.417206 -35.2658 -0.00361644)
(0.26656 -33.5024 -0.0023093)
(0.932426 -28.0031 -0.00813675)
(-0.0789652 -14.8319 0.000699236)
(0.294939 -2.92557 -0.0025663)
(0.192491 -36.7774 -0.00163312)
(0.561264 -34.3617 -0.00487582)
(0.359047 -28.1537 -0.0031305)
(0.609624 -14.6031 -0.00530531)
(0.0787474 -2.77551 -0.000672311)
(-0.163233 -37.7887 0.00145794)
(0.771931 -35.027 -0.00672416)
(-0.102244 -28.5594 0.000903794)
(1.3275 -15.125 -0.0115654)
(0.385053 -1.92527 -0.00335413)
(-0.16105 -38.1321 0.00145723)
(0.439867 -35.7334 -0.00382307)
(0.489517 -29.4034 -0.00425144)
(1.3917 -16.5067 -0.0121214)
(0.931265 -0.171432 -0.00813325)
(0.150737 -38.3181 -0.00126632)
(-0.283875 -36.9167 0.00249125)
(1.63654 -31.1248 -0.0142606)
(0.716885 -17.2731 -0.00623638)
(1.40896 1.52553 -0.0123035)
(0.0699525 -38.432 -0.000578046)
(0.244323 -38.6356 -0.00213238)
(2.05351 -33.0894 -0.0179038)
(-0.318713 -17.0912 0.00279635)
(1.53567 2.8557 -0.0134013)
(-0.74032 -38.7916 0.00647531)
(-0.389209 -39.7797 0.00338849)
(1.99234 -33.788 -0.01737)
(-1.64726 -15.9671 0.0143857)
(0.701494 3.27431 -0.00610007)
(-2.22413 -39.9814 0.0194369)
(-3.46687 -39.8579 0.0302581)
(0.378329 -33.3047 -0.00327972)
(-2.0588 -15.5361 0.0179823)
(0.166659 1.81153 -0.00143714)
(-1.58531 -41.1268 0.0138862)
(-3.03427 -39.6077 0.0264928)
(-0.338793 -32.91 0.00298465)
(-1.64468 -16.4231 0.0143761)
(0.253224 0.954594 -0.00220454)
(-0.929577 -41.8024 0.00816126)
(-2.90031 -37.8695 0.0253267)
(-0.489858 -31.4474 0.00430587)
(-0.692584 -17.455 0.00606417)
(0.68238 0.988653 -0.00595205)
(0.789536 -42.0493 -0.00686219)
(-1.58025 -38.2742 0.0138026)
(-5.61424 -32.084 0.0490264)
(-2.69758 -19.2103 0.0235773)
(1.59495 0.526998 -0.0139109)
(0.441532 -42.3016 -0.00383434)
(0.0706564 -40.5996 -0.000598286)
(-3.04327 -36.4245 0.0265827)
(-3.80776 -23.097 0.0332534)
(1.24696 -1.09007 -0.0108663)
(0.388419 -42.9797 -0.00338182)
(1.38339 -40.9896 -0.0120538)
(0.284951 -38.5136 -0.00246652)
(0.714336 -26.1004 -0.00623303)
(2.27847 -5.11197 -0.0198792)
(0.66649 -43.0465 -0.00582272)
(1.30123 -41.287 -0.011336)
(0.407341 -38.4184 -0.00353421)
(0.674516 -28.2642 -0.00589121)
(0.967733 -10.8822 -0.00844327)
(0.00800325 -42.8058 -5.35168e-05)
(-0.286622 -41.7757 0.00253303)
(0.659459 -38.7233 -0.00573581)
(1.21794 -28.9981 -0.0106332)
(0.570795 -10.0694 -0.00498902)
(-0.370741 -43.1748 0.00327836)
(-0.231267 -42.3779 0.00204809)
(0.58528 -39.5272 -0.00509694)
(1.49263 -30.3439 -0.0130289)
(-0.253361 -9.74038 0.00219683)
(-0.103483 -43.6149 0.000938881)
(-0.204947 -42.9951 0.00181556)
(0.624486 -40.1609 -0.00544581)
(1.09833 -31.0839 -0.00958641)
(-0.558189 -9.74932 0.00484765)
(0.447061 -43.6846 -0.00389064)
(-0.151935 -43.3847 0.00135121)
(0.685455 -40.7388 -0.00598247)
(0.452157 -30.5572 -0.00394461)
(-0.536729 -9.13639 0.00467789)
(0.278247 -43.3704 -0.00240368)
(-0.398447 -43.5589 0.00350755)
(0.694006 -41.4572 -0.00605858)
(0.0881891 -29.9094 -0.00076547)
(-0.219591 -8.23336 0.00193224)
(0.115495 -43.2487 -0.000968911)
(-0.285634 -43.7636 0.00252197)
(0.495381 -42.1137 -0.00432551)
(0.0208589 -29.7709 -0.000175179)
(0.131291 -7.51503 -0.00111667)
(0.0744765 -43.3506 -0.000602969)
(-0.0257827 -44.0557 0.000251144)
(0.241063 -42.6399 -0.00210414)
(0.11517 -30.2001 -0.000995484)
(0.303584 -6.93026 -0.00263131)
(0.235974 -43.859 -0.00201937)
(-0.0157112 -44.5192 0.00015961)
(0.337988 -43.2146 -0.00294794)
(0.180426 -30.8885 -0.00156398)
(0.309188 -6.73962 -0.00269359)
(0.335799 -44.9042 -0.002899)
(-0.105779 -44.9799 0.000943505)
(0.419773 -43.9736 -0.00365979)
(0.186815 -31.5917 -0.00161911)
(0.31671 -6.88428 -0.00275602)
(-0.0472217 -0.000506908 0.00041219)
(-0.0408674 -0.000408993 0.000356736)
(-0.035405 -0.000332441 0.000309058)
(-0.0306899 -0.000272682 0.000267904)
(-0.0266087 -0.000226631 0.000232275)
(-0.0230582 -0.000184196 0.000201281)
(-0.0199604 -0.000155018 0.000174245)
(-0.0172574 -0.000130059 0.000150645)
(-0.0148905 -0.000109002 0.000129993)
(-0.0128165 -9.19894e-05 0.00011188)
(-0.0109983 -7.76886e-05 9.60161e-05)
(-0.00940396 -6.56838e-05 8.20934e-05)
(-0.00800647 -5.54262e-05 6.98979e-05)
(-0.00678255 -4.67636e-05 5.92182e-05)
(-0.00571169 -3.9453e-05 4.98637e-05)
(-0.00477609 -3.31553e-05 4.1706e-05)
(-0.00396012 -2.76983e-05 3.45726e-05)
(-0.00324988 -2.32905e-05 2.83669e-05)
(-0.00263319 -1.97691e-05 2.29904e-05)
(-0.00209921 -1.67574e-05 1.83275e-05)
(-0.00163877 -1.4237e-05 1.43122e-05)
(-0.0012439 -1.18018e-05 1.08602e-05)
(-0.000908228 -9.92503e-06 7.9297e-06)
(-0.000627201 -8.16774e-06 5.47785e-06)
(-0.000397732 -6.63244e-06 3.47469e-06)
(-0.000218081 -4.81215e-06 1.90687e-06)
(-9.0336e-05 -2.9538e-06 7.90012e-07)
(-1.272e-05 -1.06101e-06 1.11189e-07)
(9.23316e-06 1.45352e-06 -7.60642e-08)
(-0.119313 -0.00567276 0.00104155)
(-0.104339 -0.00474816 0.000910848)
(-0.0912549 -0.00399594 0.000796637)
(-0.0797923 -0.00338 0.000696579)
(-0.0697268 -0.00287402 0.000608708)
(-0.0608652 -0.00244641 0.000531346)
(-0.0530496 -0.0020958 0.000463124)
(-0.0461512 -0.00179853 0.000402899)
(-0.0400548 -0.00154619 0.000349692)
(-0.0346652 -0.00133164 0.000302631)
(-0.0299005 -0.00114761 0.000261046)
(-0.0256901 -0.000989271 0.000224283)
(-0.0219725 -0.000852368 0.000191835)
(-0.0186944 -0.000734023 0.000163226)
(-0.0158079 -0.000631578 0.00013802)
(-0.0132707 -0.000542691 0.000115885)
(-0.0110456 -0.000465558 9.64385e-05)
(-0.00909883 -0.000398937 7.94296e-05)
(-0.00740011 -0.000341433 6.46124e-05)
(-0.00592263 -0.000291476 5.1714e-05)
(-0.0046433 -0.000247922 4.05529e-05)
(-0.00354231 -0.000209297 3.09301e-05)
(-0.00260365 -0.000175057 2.2736e-05)
(-0.00181532 -0.000143715 1.58565e-05)
(-0.00116991 -0.000113883 1.02224e-05)
(-0.00066319 -8.48617e-05 5.79975e-06)
(-0.000299212 -5.58252e-05 2.61782e-06)
(-7.35011e-05 -2.74957e-05 6.4546e-07)
(9.82786e-06 -1.89469e-06 -6.81465e-08)
(-0.172261 -0.0136637 0.00150375)
(-0.1519 -0.0116094 0.00132603)
(-0.133869 -0.00990611 0.00116865)
(-0.117878 -0.00848558 0.00102906)
(-0.103674 -0.00729474 0.000905062)
(-0.0910398 -0.00628664 0.000794768)
(-0.0797914 -0.00543393 0.00069658)
(-0.0697733 -0.00470496 0.000609123)
(-0.0608486 -0.0040791 0.000531226)
(-0.0528989 -0.00353945 0.000461816)
(-0.0458214 -0.00307185 0.000400043)
(-0.0395264 -0.0026654 0.000345083)
(-0.0339341 -0.00231107 0.00029627)
(-0.0289747 -0.00200202 0.000252984)
(-0.0245841 -0.00173217 0.000214649)
(-0.0207053 -0.0014965 0.000180804)
(-0.0172873 -0.00129082 0.000150936)
(-0.0142833 -0.00111125 0.000124693)
(-0.0116512 -0.00095452 0.000101729)
(-0.0093532 -0.00081751 8.16695e-05)
(-0.00735636 -0.000697103 6.42458e-05)
(-0.00563247 -0.000590496 4.91816e-05)
(-0.0041588 -0.000494612 3.63172e-05)
(-0.0029178 -0.000406579 2.54864e-05)
(-0.00189955 -0.000322587 1.65976e-05)
(-0.00109806 -0.000241628 9.60178e-06)
(-0.000517876 -0.000161107 4.53028e-06)
(-0.000151876 -8.41749e-05 1.33281e-06)
(1.36482e-06 -1.56317e-05 2.01469e-08)
(-0.208679 -0.0229045 0.00182165)
(-0.18539 -0.0196997 0.00161838)
(-0.164515 -0.0170001 0.00143617)
(-0.145792 -0.0147148 0.00127273)
(-0.128987 -0.0127707 0.00112603)
(-0.113894 -0.0111063 0.000994279)
(-0.100337 -0.00967713 0.000875937)
(-0.0881605 -0.00844192 0.000769641)
(-0.0772292 -0.00736981 0.000674229)
(-0.0674218 -0.00643554 0.000588604)
(-0.0586317 -0.00561834 0.000511881)
(-0.0507641 -0.00490166 0.000443193)
(-0.0437334 -0.00427186 0.000381825)
(-0.0374639 -0.00371823 0.000327103)
(-0.0318845 -0.00323129 0.000278391)
(-0.0269312 -0.00280315 0.000235166)
(-0.0225464 -0.0024271 0.000196853)
(-0.018676 -0.00209687 0.000163043)
(-0.0152711 -0.00180698 0.000133335)
(-0.0122875 -0.00155209 0.000107291)
(-0.00968636 -0.00132689 8.45924e-05)
(-0.00743417 -0.00112642 6.49142e-05)
(-0.00550406 -0.000945158 4.80652e-05)
(-0.00387517 -0.000777875 3.38484e-05)
(-0.00253625 -0.000618685 2.21604e-05)
(-0.00148052 -0.000464355 1.29449e-05)
(-0.000712817 -0.000311885 6.23497e-06)
(-0.000223683 -0.000167607 1.96222e-06)
(-6.69483e-06 -4.06494e-05 1.03093e-07)
(-0.232725 -0.0323879 0.00203154)
(-0.208153 -0.0281526 0.00181708)
(-0.185889 -0.024536 0.00162274)
(-0.165713 -0.0214341 0.00144663)
(-0.147428 -0.0187618 0.00128701)
(-0.130858 -0.0164478 0.00114237)
(-0.115848 -0.0144368 0.00101135)
(-0.10226 -0.0126802 0.000892726)
(-0.0899703 -0.01114 0.000785458)
(-0.0788674 -0.00978482 0.000688524)
(-0.0688509 -0.00858889 0.000601096)
(-0.0598302 -0.00753133 0.000522344)
(-0.0517223 -0.00659483 0.000451572)
(-0.0444524 -0.00576553 0.000388118)
(-0.0379491 -0.00503114 0.000331341)
(-0.0321472 -0.00438135 0.000280708)
(-0.0269872 -0.00380712 0.000235625)
(-0.0224127 -0.00330004 0.000195666)
(-0.018372 -0.00285246 0.000160408)
(-0.0148178 -0.0024568 0.000129384)
(-0.0117084 -0.00210544 0.000102249)
(-0.00900773 -0.00179101 7.86543e-05)
(-0.00668685 -0.00150538 5.83941e-05)
(-0.00472336 -0.00124059 4.12565e-05)
(-0.00310573 -0.000988358 2.71354e-05)
(-0.00182706 -0.000743131 1.59736e-05)
(-0.000892633 -0.000501965 7.80711e-06)
(-0.00029121 -0.000274538 2.55389e-06)
(-1.36897e-05 -7.56487e-05 1.75687e-07)
(-0.247911 -0.0415783 0.0021641)
(-0.223098 -0.0364843 0.00194753)
(-0.200392 -0.0320814 0.00174933)
(-0.179623 -0.0282605 0.00156805)
(-0.160635 -0.0249308 0.00140229)
(-0.143284 -0.0220165 0.00125083)
(-0.127442 -0.0194561 0.00111255)
(-0.112993 -0.0171972 0.000986419)
(-0.099833 -0.0151977 0.000871556)
(-0.0878648 -0.0134224 0.00076707)
(-0.0769994 -0.0118424 0.000672233)
(-0.0671557 -0.0104342 0.000586297)
(-0.0582577 -0.00917792 0.00050863)
(-0.0502363 -0.00805768 0.000438615)
(-0.0430236 -0.00705918 0.000375647)
(-0.0365573 -0.00617028 0.000319211)
(-0.0307794 -0.0053802 0.000268733)
(-0.0256342 -0.00467868 0.000223791)
(-0.0210703 -0.00405615 0.000183966)
(-0.01704 -0.00350299 0.000148787)
(-0.0135009 -0.0030093 0.0001179)
(-0.0104166 -0.00256528 9.09558e-05)
(-0.00775748 -0.00216007 6.77432e-05)
(-0.00550113 -0.00178288 4.80491e-05)
(-0.00363647 -0.00142281 3.17716e-05)
(-0.00215712 -0.00107211 1.88577e-05)
(-0.00106894 -0.000728047 9.34831e-06)
(-0.000359777 -0.000404139 3.15444e-06)
(-2.06189e-05 -0.000120403 2.47916e-07)
(-0.256687 -0.0501787 0.00224069)
(-0.232273 -0.0444103 0.00202761)
(-0.209734 -0.0393693 0.00183088)
(-0.188944 -0.034947 0.0016494)
(-0.169782 -0.0310523 0.00148214)
(-0.152138 -0.0276086 0.00132812)
(-0.135912 -0.0245526 0.00118649)
(-0.12101 -0.0218309 0.00105641)
(-0.107349 -0.0193999 0.000937164)
(-0.0948463 -0.0172228 0.000828017)
(-0.0834282 -0.0152696 0.000728355)
(-0.0730246 -0.0135155 0.000637533)
(-0.0635691 -0.0119396 0.000554999)
(-0.0550003 -0.0105248 0.000480207)
(-0.0472567 -0.00925597 0.000412604)
(-0.0402807 -0.00811972 0.000351718)
(-0.0340182 -0.00710407 0.000297009)
(-0.0284166 -0.00619747 0.000248083)
(-0.0234266 -0.00538877 0.000204538)
(-0.019002 -0.00466654 0.000165917)
(-0.0151016 -0.00401882 0.000131876)
(-0.0116898 -0.00343343 0.000102073)
(-0.00873791 -0.00289681 7.63044e-05)
(-0.00622438 -0.00239532 5.43653e-05)
(-0.00413927 -0.00191537 3.61634e-05)
(-0.00247721 -0.00144717 2.16543e-05)
(-0.00124505 -0.000988249 1.08875e-05)
(-0.000430598 -0.000556437 3.77456e-06)
(-2.77787e-05 -0.000175286 3.22691e-07)
(-0.26073 -0.0580465 0.00227597)
(-0.237105 -0.0517802 0.00206978)
(-0.215118 -0.0462471 0.00187787)
(-0.194681 -0.0413435 0.00169948)
(-0.175707 -0.0369818 0.00153386)
(-0.158115 -0.0330876 0.00138029)
(-0.141828 -0.0295993 0.00123813)
(-0.126776 -0.0264644 0.00110673)
(-0.112892 -0.0236401 0.000985554)
(-0.100113 -0.0210901 0.000873989)
(-0.0883765 -0.0187847 0.000771551)
(-0.0776257 -0.0166993 0.000677699)
(-0.0678039 -0.014813 0.000591969)
(-0.0588587 -0.0131088 0.000513892)
(-0.0507357 -0.0115711 0.000442977)
(-0.0433835 -0.0101863 0.000378805)
(-0.0367532 -0.00894183 0.000320885)
(-0.0307963 -0.0078252 0.000268858)
(-0.025467 -0.00682413 0.000222352)
(-0.0207221 -0.00592573 0.000180935)
(-0.0165226 -0.00511616 0.000144283)
(-0.0128349 -0.00438106 0.000112072)
(-0.00963229 -0.00370425 8.41138e-05)
(-0.00689462 -0.00306931 6.02182e-05)
(-0.00461373 -0.00246001 4.03072e-05)
(-0.0027857 -0.00186461 2.43492e-05)
(-0.00141891 -0.00128104 1.24067e-05)
(-0.000502144 -0.00073124 4.40092e-06)
(-3.49556e-05 -0.000240579 3.97823e-07)
(-0.261242 -0.0651288 0.00228043)
(-0.238635 -0.0585251 0.00208312)
(-0.217439 -0.0526355 0.00189812)
(-0.197599 -0.0473647 0.00172494)
(-0.179055 -0.0426312 0.00156308)
(-0.161753 -0.0383657 0.00141204)
(-0.145637 -0.0345101 0.00127137)
(-0.130656 -0.0310152 0.00114061)
(-0.116762 -0.0278406 0.00101934)
(-0.103905 -0.0249521 0.000907091)
(-0.092036 -0.0223213 0.000803497)
(-0.0811096 -0.0199252 0.000708112)
(-0.0710791 -0.0177438 0.000620561)
(-0.0619007 -0.0157611 0.000540447)
(-0.0535275 -0.0139619 0.000467349)
(-0.0459147 -0.0123327 0.000400901)
(-0.039019 -0.0108611 0.000340665)
(-0.032797 -0.00953402 0.000286324)
(-0.027207 -0.00833858 0.000237542)
(-0.0222094 -0.00726065 0.00019392)
(-0.0177684 -0.00628482 0.00015516)
(-0.0138532 -0.0053947 0.000120962)
(-0.0104393 -0.0045717 9.11602e-05)
(-0.00750899 -0.00379669 6.55829e-05)
(-0.00505611 -0.0030509 4.41707e-05)
(-0.00307865 -0.00232077 2.69081e-05)
(-0.00158707 -0.00160461 1.38761e-05)
(-0.000572282 -0.000928026 5.01487e-06)
(-4.18187e-05 -0.000316204 4.69959e-07)
(-0.259118 -0.0714244 0.00226187)
(-0.237654 -0.0646257 0.00207455)
(-0.21739 -0.0585017 0.00189768)
(-0.198298 -0.0529677 0.00173103)
(-0.180344 -0.0479509 0.00157432)
(-0.163493 -0.043389 0.00142723)
(-0.147712 -0.0392292 0.00128948)
(-0.132965 -0.0354272 0.00116075)
(-0.119218 -0.0319462 0.00104077)
(-0.106435 -0.0287553 0.000929173)
(-0.0945787 -0.0258288 0.00082569)
(-0.0836138 -0.0231459 0.000729972)
(-0.0735028 -0.0206885 0.000641718)
(-0.0642101 -0.018442 0.000560606)
(-0.0556957 -0.0163924 0.000486276)
(-0.0479215 -0.014527 0.000418418)
(-0.0408499 -0.0128335 0.000356648)
(-0.0344425 -0.0112993 0.000300689)
(-0.0286622 -0.00991087 0.000250245)
(-0.0234733 -0.00865319 0.000204954)
(-0.0188437 -0.00750957 0.000164548)
(-0.0147459 -0.00646182 0.000128756)
(-0.011158 -0.00548908 9.74351e-05)
(-0.00806495 -0.00456967 7.04375e-05)
(-0.00546309 -0.0036824 4.77248e-05)
(-0.00335257 -0.00281192 2.93006e-05)
(-0.0017466 -0.0019569 1.527e-05)
(-0.000639257 -0.00114588 5.60108e-06)
(-4.81106e-05 -0.000401771 5.36491e-07)
(-0.255034 -0.076961 0.00222621)
(-0.234772 -0.0700923 0.00204938)
(-0.215515 -0.0638418 0.0018813)
(-0.19726 -0.0581377 0.00172197)
(-0.179995 -0.0529177 0.00157127)
(-0.163705 -0.0481279 0.00142907)
(-0.14837 -0.0437227 0.00129522)
(-0.133971 -0.0396636 0.00116953)
(-0.120487 -0.0359188 0.00105184)
(-0.107892 -0.0324614 0.000941895)
(-0.0961611 -0.0292696 0.000839501)
(-0.0852659 -0.0263251 0.000744392)
(-0.0751777 -0.0236126 0.000656337)
(-0.065868 -0.0211193 0.000575078)
(-0.0573036 -0.018833 0.000500311)
(-0.0494522 -0.016742 0.000431779)
(-0.0422816 -0.0148351 0.000369146)
(-0.0357585 -0.0130996 0.000312177)
(-0.0298503 -0.0115222 0.000260617)
(-0.0245254 -0.0100871 0.000214138)
(-0.0197554 -0.00877656 0.000172507)
(-0.0155161 -0.00757084 0.000135481)
(-0.0117889 -0.006447 0.000102944)
(-0.00856136 -0.00538091 7.4772e-05)
(-0.00583251 -0.00434906 5.09507e-05)
(-0.00360501 -0.00333438 3.15054e-05)
(-0.00189537 -0.00233564 1.65698e-05)
(-0.000701861 -0.00138356 6.149e-06)
(-5.36859e-05 -0.000496682 5.95909e-07)
(-0.249504 -0.0817814 0.00217793)
(-0.230457 -0.0749516 0.0020117)
(-0.21224 -0.0686693 0.0018527)
(-0.194869 -0.0628773 0.00170109)
(-0.178352 -0.0575253 0.00155692)
(-0.162689 -0.0525694 0.00142019)
(-0.147876 -0.0479722 0.0012909)
(-0.133905 -0.0437022 0.00116895)
(-0.120767 -0.0397334 0.00105428)
(-0.108445 -0.0360441 0.000946719)
(-0.0969239 -0.0326163 0.000846158)
(-0.0861826 -0.0294355 0.000752391)
(-0.0761992 -0.0264893 0.000665252)
(-0.0669515 -0.0237675 0.000584534)
(-0.0584122 -0.0212595 0.000509986)
(-0.0505542 -0.0189555 0.000441397)
(-0.0433504 -0.0168451 0.000378474)
(-0.0367719 -0.0149164 0.000321024)
(-0.0307906 -0.0131559 0.000268825)
(-0.0253787 -0.0115478 0.000221587)
(-0.0205116 -0.0100733 0.000179108)
(-0.0161686 -0.00871122 0.000141177)
(-0.0123339 -0.00743675 0.000107702)
(-0.00899824 -0.0062235 7.85865e-05)
(-0.00616326 -0.00504568 5.38389e-05)
(-0.00383442 -0.00388446 3.35089e-05)
(-0.00203199 -0.00273847 1.77633e-05)
(-0.000759325 -0.00163964 6.65192e-06)
(-5.8483e-05 -0.000600202 6.47535e-07)
(-0.242915 -0.0859364 0.00212041)
(-0.225071 -0.0792395 0.00196468)
(-0.207897 -0.0730077 0.00181478)
(-0.191428 -0.0671997 0.00167105)
(-0.175688 -0.0617786 0.00153366)
(-0.160692 -0.0567113 0.00140276)
(-0.146448 -0.0519701 0.00127843)
(-0.132959 -0.0475309 0.00116069)
(-0.120225 -0.0433748 0.00104955)
(-0.108239 -0.0394854 0.000944915)
(-0.0969913 -0.0358496 0.000846742)
(-0.0864685 -0.032457 0.000754884)
(-0.0766544 -0.0292984 0.000669222)
(-0.0675321 -0.0263664 0.000589599)
(-0.0590792 -0.0236527 0.000515807)
(-0.0512733 -0.021149 0.000447673)
(-0.0440917 -0.0188464 0.000384944)
(-0.0375095 -0.0167337 0.000327462)
(-0.0315027 -0.0147978 0.000275041)
(-0.0260471 -0.0130226 0.000227421)
(-0.0211216 -0.0113886 0.000184433)
(-0.0167088 -0.00987339 0.000145893)
(-0.0127959 -0.00845039 0.000111736)
(-0.00937653 -0.00709102 8.18894e-05)
(-0.00645509 -0.00576732 5.63871e-05)
(-0.00403996 -0.00445859 3.53039e-05)
(-0.00215561 -0.00316294 1.88433e-05)
(-0.000811204 -0.00191252 7.10596e-06)
(-6.24929e-05 -0.000711507 6.91216e-07)
(-0.235567 -0.0894794 0.00205625)
(-0.218893 -0.0829962 0.00191074)
(-0.202746 -0.0768861 0.00176981)
(-0.187178 -0.0711247 0.00163393)
(-0.172225 -0.0656893 0.00150342)
(-0.157915 -0.060559 0.00137851)
(-0.144267 -0.055716 0.00125939)
(-0.131295 -0.0511452 0.00114616)
(-0.119005 -0.0468347 0.00103889)
(-0.107399 -0.0427745 0.000937575)
(-0.0964717 -0.0389568 0.000842203)
(-0.0862165 -0.0353753 0.000752681)
(-0.0766218 -0.0320247 0.000668935)
(-0.0676751 -0.0289005 0.000590845)
(-0.0593583 -0.0259969 0.000518241)
(-0.0516529 -0.0233076 0.000450984)
(-0.0445398 -0.0208247 0.000388854)
(-0.0379978 -0.0185383 0.000331724)
(-0.0320064 -0.0164356 0.000279438)
(-0.0265449 -0.0145004 0.000231766)
(-0.0215952 -0.0127126 0.000188567)
(-0.0171431 -0.0110488 0.000149684)
(-0.0131786 -0.00948063 0.000115076)
(-0.00969796 -0.00797753 8.46957e-05)
(-0.00670844 -0.00650932 5.85993e-05)
(-0.00422142 -0.0050533 3.68886e-05)
(-0.00226585 -0.0036066 1.98065e-05)
(-0.000857315 -0.00220054 7.50952e-06)
(-6.57411e-05 -0.000829738 7.2716e-07)
(-0.227688 -0.0924647 0.00198747)
(-0.21214 -0.0862638 0.00185178)
(-0.196991 -0.0803363 0.00171957)
(-0.182308 -0.0746754 0.00159142)
(-0.168139 -0.0692733 0.00146774)
(-0.154521 -0.0641219 0.00134888)
(-0.141484 -0.0592145 0.00123509)
(-0.129048 -0.0545451 0.00112654)
(-0.117229 -0.0501098 0.00102338)
(-0.106032 -0.0459053 0.000925641)
(-0.0954598 -0.0419294 0.000833365)
(-0.0855088 -0.0381805 0.0007465)
(-0.0761718 -0.0346572 0.000665004)
(-0.0674402 -0.0313583 0.000588791)
(-0.0592991 -0.0282804 0.000517722)
(-0.0517335 -0.0254191 0.000451685)
(-0.0447273 -0.0227684 0.000390489)
(-0.0382625 -0.020319 0.000334034)
(-0.0323216 -0.0180587 0.000282188)
(-0.0268867 -0.0159714 0.00023475)
(-0.0219429 -0.0140367 0.000191601)
(-0.0174785 -0.0122297 0.000152612)
(-0.0134863 -0.0105209 0.000117763)
(-0.00996499 -0.00887758 8.7027e-05)
(-0.00692446 -0.00726732 6.04855e-05)
(-0.00437918 -0.00566525 3.82661e-05)
(-0.00236278 -0.00406701 2.06532e-05)
(-0.000897694 -0.00250201 7.86292e-06)
(-6.82771e-05 -0.00095402 7.5582e-07)
(-0.219456 -0.0949456 0.00191561)
(-0.204982 -0.0890843 0.0017893)
(-0.190796 -0.0833909 0.00166549)
(-0.176974 -0.0778765 0.00154485)
(-0.163574 -0.0725486 0.00142789)
(-0.150644 -0.0674126 0.00131503)
(-0.138221 -0.0624732 0.0012066)
(-0.126332 -0.0577342 0.00110282)
(-0.114999 -0.0532004 0.00100391)
(-0.104232 -0.0488753 0.000909923)
(-0.0940382 -0.0447627 0.000820951)
(-0.0844181 -0.0408662 0.000736975)
(-0.0753678 -0.0371883 0.000657982)
(-0.0668816 -0.033731 0.000583911)
(-0.0589476 -0.0304938 0.00051465)
(-0.0515533 -0.0274743 0.00045011)
(-0.0446854 -0.0246679 0.000390123)
(-0.0383285 -0.0220664 0.00033461)
(-0.0324676 -0.0196584 0.000283462)
(-0.0270875 -0.0174276 0.000236501)
(-0.0221756 -0.0153531 0.000193631)
(-0.0177227 -0.0134094 0.000154744)
(-0.0137241 -0.0115654 0.000119839)
(-0.0101807 -0.00978618 8.89103e-05)
(-0.00710489 -0.00803726 6.20608e-05)
(-0.00451411 -0.00629127 3.94444e-05)
(-0.00244682 -0.0045418 2.13875e-05)
(-0.000932574 -0.00281527 8.1682e-06)
(-7.0169e-05 -0.00108355 7.77846e-07)
(-0.211013 -0.0969742 0.0018419)
(-0.197557 -0.0914994 0.00172447)
(-0.18429 -0.0860829 0.00160869)
(-0.171299 -0.0807534 0.0014953)
(-0.158649 -0.0755344 0.00138489)
(-0.146395 -0.0704448 0.00127794)
(-0.134582 -0.0655014 0.00117483)
(-0.123242 -0.0607183 0.00107585)
(-0.112403 -0.0561089 0.000981246)
(-0.102078 -0.0516844 0.000891119)
(-0.092279 -0.0474547 0.000805591)
(-0.0830088 -0.0434285 0.000724669)
(-0.0742664 -0.0396126 0.000648363)
(-0.0660487 -0.0360125 0.000576636)
(-0.058346 -0.0326303 0.000509395)
(-0.0511481 -0.0294657 0.00044657)
(-0.0444438 -0.0265158 0.000388012)
(-0.0382199 -0.0237733 0.000333662)
(-0.0324636 -0.0212274 0.000283426)
(-0.0271618 -0.0188619 0.000237149)
(-0.0223043 -0.0166556 0.000194754)
(-0.0178838 -0.0145821 0.00015615)
(-0.0138976 -0.0126087 0.000121353)
(-0.0103488 -0.0106988 9.03778e-05)
(-0.00725202 -0.00881542 6.33452e-05)
(-0.00462758 -0.0069284 4.04352e-05)
(-0.00251875 -0.0050287 2.20159e-05)
(-0.000962364 -0.00313871 8.42893e-06)
(-7.15141e-05 -0.00121754 7.94168e-07)
(-0.202468 -0.0986 0.0017673)
(-0.18997 -0.093549 0.00165824)
(-0.177577 -0.0884439 0.00155009)
(-0.165383 -0.0833312 0.00144366)
(-0.153458 -0.0782499 0.00133958)
(-0.141865 -0.0732331 0.00123839)
(-0.130654 -0.0683096 0.00114053)
(-0.119861 -0.0635043 0.00104633)
(-0.109516 -0.0588396 0.000956047)
(-0.0996406 -0.0543344 0.000869836)
(-0.0902454 -0.0500051 0.000787836)
(-0.0813377 -0.0458656 0.000710078)
(-0.0729183 -0.0419271 0.000636591)
(-0.0649859 -0.0381987 0.000567355)
(-0.057533 -0.034685 0.000502295)
(-0.0505509 -0.031388 0.000441353)
(-0.0440303 -0.0283062 0.0003844)
(-0.0379597 -0.0254335 0.00033139)
(-0.0323282 -0.0227596 0.000282243)
(-0.0271245 -0.0202684 0.000236823)
(-0.0223402 -0.0179385 0.000195067)
(-0.01797 -0.0157425 0.000156902)
(-0.0140127 -0.0136464 0.000122358)
(-0.0104734 -0.0116115 9.14652e-05)
(-0.00736854 -0.0095984 6.43625e-05)
(-0.00472132 -0.00757388 4.12535e-05)
(-0.00257961 -0.00552561 2.25475e-05)
(-0.000987598 -0.00347086 8.64981e-06)
(-7.24098e-05 -0.00135527 8.05752e-07)
(-0.193909 -0.09987 0.00169258)
(-0.182308 -0.0952712 0.00159136)
(-0.170743 -0.0905047 0.00149042)
(-0.159308 -0.0856341 0.00139063)
(-0.148083 -0.0807141 0.00129265)
(-0.137132 -0.0757919 0.00119707)
(-0.126509 -0.0709086 0.00110435)
(-0.116255 -0.0660999 0.00101485)
(-0.106405 -0.0613976 0.000928878)
(-0.0969789 -0.0568282 0.000846597)
(-0.0879929 -0.0524149 0.000768168)
(-0.0794553 -0.0481771 0.000693642)
(-0.0713688 -0.0441302 0.000623062)
(-0.0637337 -0.0402868 0.000556421)
(-0.0565439 -0.0366544 0.000493658)
(-0.0497923 -0.033237 0.000434728)
(-0.0434708 -0.0300347 0.000379515)
(-0.0375696 -0.0270423 0.000327983)
(-0.0320791 -0.0242502 0.000280068)
(-0.0269898 -0.0216425 0.000235645)
(-0.0222946 -0.0191972 0.000194667)
(-0.0179898 -0.0168863 0.000157074)
(-0.0140757 -0.0146743 0.000122907)
(-0.0105589 -0.0125207 9.2211e-05)
(-0.00745749 -0.0103831 6.51388e-05)
(-0.00479731 -0.00822518 4.1917e-05)
(-0.00263064 -0.00603057 2.29933e-05)
(-0.00100893 -0.00381035 8.83649e-06)
(-7.29677e-05 -0.00149612 8.13711e-07)
(-0.185404 -0.100828 0.00161834)
(-0.174643 -0.0967022 0.00152444)
(-0.163856 -0.0922944 0.0014303)
(-0.153145 -0.0876854 0.00133682)
(-0.142589 -0.0829454 0.00124469)
(-0.132259 -0.0781355 0.00115452)
(-0.122209 -0.0733093 0.00106681)
(-0.112486 -0.0685132 0.000981941)
(-0.103123 -0.0637884 0.000900228)
(-0.0941456 -0.0591696 0.000821861)
(-0.0855699 -0.0546864 0.000747014)
(-0.0774062 -0.0503637 0.000675752)
(-0.0696587 -0.0462214 0.00060813)
(-0.0623286 -0.0422756 0.000544152)
(-0.0554112 -0.0385365 0.000483767)
(-0.0489005 -0.0350101 0.00042694)
(-0.0427897 -0.0316981 0.000373568)
(-0.03707 -0.0285963 0.000323622)
(-0.0317333 -0.0256956 0.000277049)
(-0.0267713 -0.0229802 0.000233737)
(-0.0221782 -0.020428 0.00019365)
(-0.0179515 -0.0180098 0.00015674)
(-0.0140928 -0.0156891 0.000123056)
(-0.0106097 -0.0134231 9.26549e-05)
(-0.00752208 -0.0111668 6.57025e-05)
(-0.00485778 -0.00888003 4.24447e-05)
(-0.00267326 -0.00654184 2.33655e-05)
(-0.00102708 -0.004156 8.99539e-06)
(-7.33096e-05 -0.00163961 8.19256e-07)
(-0.17701 -0.101517 0.00154507)
(-0.167028 -0.0978757 0.00145797)
(-0.156974 -0.0938403 0.00137022)
(-0.146948 -0.0895071 0.00128272)
(-0.137033 -0.0849613 0.00119619)
(-0.127301 -0.0802777 0.00111124)
(-0.117808 -0.0755222 0.0010284)
(-0.108603 -0.0707522 0.000948043)
(-0.0997203 -0.0660182 0.000870521)
(-0.0911866 -0.0613628 0.000796028)
(-0.0830195 -0.0568223 0.000724747)
(-0.0752303 -0.052427 0.000656755)
(-0.0678242 -0.0482013 0.000592113)
(-0.0608034 -0.0441647 0.000530834)
(-0.0541641 -0.0403301 0.000472878)
(-0.0479014 -0.0367056 0.000418216)
(-0.0420093 -0.0332942 0.000366754)
(-0.0364802 -0.0300929 0.000318472)
(-0.0313069 -0.0270929 0.000273326)
(-0.0264823 -0.0242787 0.000231213)
(-0.0220017 -0.0216276 0.000192108)
(-0.0178635 -0.01911 0.00015597)
(-0.0140702 -0.0166877 0.000122859)
(-0.0106307 -0.014316 9.28372e-05)
(-0.00756563 -0.0119471 6.60824e-05)
(-0.00490503 -0.00953638 4.28571e-05)
(-0.00270897 -0.00705784 2.36774e-05)
(-0.00104285 -0.00450681 9.1334e-06)
(-7.35658e-05 -0.00178533 8.23685e-07)
(-0.168771 -0.101973 0.00147315)
(-0.159512 -0.098823 0.00139236)
(-0.150143 -0.0951679 0.0013106)
(-0.140765 -0.0911196 0.00122875)
(-0.131462 -0.086778 0.00114756)
(-0.122305 -0.0822313 0.00106763)
(-0.113352 -0.0775575 0.000989493)
(-0.104651 -0.0728248 0.000913546)
(-0.0962391 -0.0680929 0.00084013)
(-0.0881425 -0.0634123 0.000769452)
(-0.0803798 -0.0588258 0.000701701)
(-0.072963 -0.0543692 0.000636959)
(-0.065898 -0.0500711 0.000575295)
(-0.0591878 -0.0459546 0.000516727)
(-0.0528294 -0.0420351 0.000461223)
(-0.0468186 -0.0383227 0.000408761)
(-0.0411504 -0.0348219 0.000359255)
(-0.0358179 -0.0315304 0.000312689)
(-0.0308149 -0.0284401 0.000269029)
(-0.0261352 -0.0255355 0.000228182)
(-0.0217749 -0.0227938 0.000190127)
(-0.0177335 -0.0201843 0.000154835)
(-0.0140141 -0.0176678 0.000122368)
(-0.0106262 -0.0151972 9.27978e-05)
(-0.00759148 -0.0127217 6.63078e-05)
(-0.00494144 -0.0101924 4.31747e-05)
(-0.00273932 -0.00757722 2.39425e-05)
(-0.00105707 -0.00486194 9.25787e-06)
(-7.38745e-05 -0.00193303 8.28378e-07)
(-0.16072 -0.102231 0.00140287)
(-0.152131 -0.0995728 0.00132793)
(-0.143404 -0.0963006 0.00125177)
(-0.134639 -0.0925419 0.00117527)
(-0.125918 -0.0884107 0.00109915)
(-0.117312 -0.0840085 0.00102405)
(-0.108881 -0.079425 0.000950457)
(-0.10067 -0.0747387 0.000878789)
(-0.0927172 -0.0700186 0.000809383)
(-0.0850492 -0.0653227 0.000742446)
(-0.0776846 -0.0607005 0.00067817)
(-0.0706359 -0.0561929 0.000616642)
(-0.0639095 -0.0518327 0.000557933)
(-0.0575087 -0.0476464 0.000502067)
(-0.0514313 -0.043652 0.000449016)
(-0.0456738 -0.0398614 0.000398764)
(-0.0402319 -0.0362804 0.000351235)
(-0.0350994 -0.0329078 0.000306417)
(-0.0302711 -0.0297359 0.000264281)
(-0.0257414 -0.0267492 0.000224744)
(-0.0215074 -0.0239246 0.000187791)
(-0.0175691 -0.0212309 0.000153399)