/*--------------------------------*- C++ -*----------------------------------*\
| =========                 |                                                 |
| \\      /  F ield         | OpenFOAM: The Open Source CFD Toolbox           |
|  \\    /   O peration     | Version:  v2012                                 |
|   \\  /    A nd           | Website:  www.openfoam.com                      |
|    \\/     M anipulation  |                                                 |
\*---------------------------------------------------------------------------*/
FoamFile
{
    version     2.0;
    format      ascii;
    class       volVectorField;
    location    "0.4";
    object      U;
}
// * * * * * * * * * * * * * * * * * * * * * * * * * * * * * * * * * * * * * //

dimensions      [0 1 -1 0 0 0 0];


internalField   nonuniform List<vector> 
20000
(
(2.45672e-07 -0.00021617 -2.14636e-09)
(1.89436e-06 -0.000939455 -1.65392e-08)
(4.7014e-06 -0.00190887 -4.10418e-08)
(8.22507e-06 -0.00296619 -7.17987e-08)
(1.22441e-05 -0.00405754 -1.06874e-07)
(1.6856e-05 -0.00515717 -1.47137e-07)
(2.21351e-05 -0.00625089 -1.93203e-07)
(2.79972e-05 -0.00733037 -2.44367e-07)
(3.46526e-05 -0.00839057 -3.0244e-07)
(4.19777e-05 -0.00942812 -3.66361e-07)
(5.01713e-05 -0.010441 -4.37876e-07)
(5.9211e-05 -0.0114275 -5.16766e-07)
(6.91213e-05 -0.0123868 -6.03247e-07)
(7.99869e-05 -0.0133178 -6.98072e-07)
(9.17834e-05 -0.0142201 -8.01017e-07)
(0.000104564 -0.0150929 -9.12559e-07)
(0.000118351 -0.0159356 -1.03287e-06)
(0.000133143 -0.0167478 -1.16197e-06)
(0.000148946 -0.0175286 -1.29987e-06)
(0.00016571 -0.0182775 -1.44617e-06)
(0.000183436 -0.0189937 -1.60087e-06)
(0.000202127 -0.0196765 -1.76399e-06)
(0.000221778 -0.0203248 -1.93549e-06)
(0.000242328 -0.0209378 -2.11483e-06)
(0.000263719 -0.0215141 -2.30152e-06)
(0.000285868 -0.0220527 -2.49483e-06)
(0.000308685 -0.0225523 -2.69397e-06)
(0.000332047 -0.0230113 -2.89786e-06)
(0.000355812 -0.0234283 -3.10528e-06)
(0.000379809 -0.0238016 -3.31473e-06)
(0.000403839 -0.0241294 -3.52447e-06)
(0.000427673 -0.0244097 -3.73249e-06)
(0.00045105 -0.0246406 -3.93655e-06)
(0.000473679 -0.02482 -4.13407e-06)
(0.000495236 -0.0249454 -4.32226e-06)
(0.000515371 -0.0250147 -4.49804e-06)
(0.000533706 -0.0250252 -4.65812e-06)
(0.000549844 -0.0249743 -4.79902e-06)
(0.000563367 -0.0248592 -4.91714e-06)
(0.000573852 -0.0246771 -5.00941e-06)
(0.000580875 -0.0244248 -5.07082e-06)
(0.000584025 -0.0240992 -5.09841e-06)
(0.000582915 -0.0236968 -5.08882e-06)
(0.0005772 -0.0232141 -5.03902e-06)
(0.000566591 -0.0226473 -4.94652e-06)
(0.000550878 -0.0219921 -4.80945e-06)
(0.000529939 -0.0212441 -4.62677e-06)
(0.000503785 -0.0203983 -4.39855e-06)
(0.000472557 -0.019449 -4.12602e-06)
(0.000436568 -0.0183897 -3.81191e-06)
(0.000396319 -0.0172123 -3.4606e-06)
(0.000352528 -0.015907 -3.07835e-06)
(0.000306151 -0.0144623 -2.67349e-06)
(0.00025837 -0.0128636 -2.25634e-06)
(0.000210588 -0.0110952 -1.83914e-06)
(0.000164351 -0.00914271 -1.4354e-06)
(0.000121441 -0.00700011 -1.06062e-06)
(8.31901e-05 -0.00468786 -7.2655e-07)
(5.14168e-05 -0.00231217 -4.49058e-07)
(1.43435e-05 -0.00024873 -1.27989e-07)
(7.60128e-08 -0.000222328 -6.5869e-10)
(1.49402e-06 -0.0009524 -1.30347e-08)
(4.38628e-06 -0.00192629 -3.8268e-08)
(7.89736e-06 -0.00298667 -6.8908e-08)
(1.22846e-05 -0.00408047 -1.07219e-07)
(1.72597e-05 -0.00518208 -1.50642e-07)
(2.30116e-05 -0.00627769 -2.00846e-07)
(2.94479e-05 -0.00735889 -2.57013e-07)
(3.65259e-05 -0.00842079 -3.18795e-07)
(4.43129e-05 -0.00945995 -3.86756e-07)
(5.27867e-05 -0.0104744 -4.60707e-07)
(6.20916e-05 -0.0114624 -5.4192e-07)
(7.21535e-05 -0.0124231 -6.29732e-07)
(8.31195e-05 -0.0133555 -7.2543e-07)
(9.49108e-05 -0.014259 -8.28337e-07)
(0.000107654 -0.015133 -9.39544e-07)
(0.000121335 -0.0159768 -1.05894e-06)
(0.000136051 -0.01679 -1.18737e-06)
(0.000151778 -0.0175717 -1.32461e-06)
(0.000168441 -0.0183214 -1.47002e-06)
(0.000186046 -0.0190384 -1.62368e-06)
(0.00020466 -0.0197217 -1.78614e-06)
(0.000224264 -0.0203704 -1.95723e-06)
(0.000244785 -0.0209836 -2.13631e-06)
(0.000266155 -0.0215601 -2.32281e-06)
(0.000288299 -0.0220987 -2.51607e-06)
(0.000311121 -0.0225981 -2.71524e-06)
(0.000334502 -0.0230568 -2.91929e-06)
(0.000358295 -0.0234733 -3.12695e-06)
(0.000382329 -0.0238459 -3.33672e-06)
(0.000406401 -0.0241728 -3.54681e-06)
(0.000430278 -0.0244521 -3.7552e-06)
(0.000453697 -0.0246818 -3.9596e-06)
(0.000476363 -0.0248597 -4.15743e-06)
(0.000497948 -0.0249836 -4.34584e-06)
(0.0005181 -0.0250511 -4.52174e-06)
(0.000536439 -0.0250597 -4.68183e-06)
(0.000552564 -0.0250067 -4.8226e-06)
(0.000566055 -0.0248894 -4.94041e-06)
(0.000576483 -0.0247049 -5.03216e-06)
(0.000583427 -0.0244501 -5.09286e-06)
(0.000586476 -0.024122 -5.11954e-06)
(0.000585243 -0.023717 -5.10885e-06)
(0.000579379 -0.0232318 -5.05775e-06)
(0.000568598 -0.0226624 -4.96373e-06)
(0.000552688 -0.0220048 -4.82494e-06)
(0.000531534 -0.0212545 -4.64037e-06)
(0.000505142 -0.0204067 -4.41009e-06)
(0.00047366 -0.0194555 -4.13535e-06)
(0.000437402 -0.0183947 -3.81894e-06)
(0.000396877 -0.0172161 -3.46526e-06)
(0.000352807 -0.0159101 -3.08062e-06)
(0.000306157 -0.0144651 -2.67343e-06)
(0.000258117 -0.0128667 -2.25408e-06)
(0.000210101 -0.0110991 -1.83492e-06)
(0.00016366 -0.00914783 -1.42946e-06)
(0.000120599 -0.00700686 -1.05346e-06)
(8.22217e-05 -0.00469618 -7.1834e-07)
(5.05967e-05 -0.00231962 -4.4218e-07)
(1.31624e-05 -0.000249967 -1.22771e-07)
(-2.34725e-08 -0.000220639 2.1124e-10)
(9.03487e-07 -0.000950858 -7.87403e-09)
(3.11185e-06 -0.00192599 -2.71356e-08)
(6.01591e-06 -0.0029878 -5.24812e-08)
(9.88391e-06 -0.00408303 -8.62497e-08)
(1.43418e-05 -0.00518593 -1.25168e-07)
(1.96829e-05 -0.00628274 -1.71781e-07)
(2.57651e-05 -0.0073651 -2.24857e-07)
(3.2695e-05 -0.00842816 -2.85344e-07)
(4.0375e-05 -0.00946848 -3.52368e-07)
(4.88929e-05 -0.0104841 -4.26702e-07)
(5.83146e-05 -0.0114733 -5.08941e-07)
(6.85517e-05 -0.0124352 -5.98283e-07)
(7.9766e-05 -0.0133689 -6.96151e-07)
(9.18627e-05 -0.0142737 -8.01724e-07)
(0.000104953 -0.015149 -9.15962e-07)
(0.000119005 -0.0159942 -1.0386e-06)
(0.000134111 -0.0168086 -1.17043e-06)
(0.00015022 -0.0175917 -1.311e-06)
(0.000167273 -0.0183428 -1.45983e-06)
(0.000185317 -0.019061 -1.61731e-06)
(0.000204357 -0.0197455 -1.78347e-06)
(0.000224382 -0.0203953 -1.95824e-06)
(0.000245316 -0.0210095 -2.14094e-06)
(0.000267106 -0.0215868 -2.33111e-06)
(0.000289666 -0.0221262 -2.528e-06)
(0.000312906 -0.0226261 -2.73082e-06)
(0.000336698 -0.0230852 -2.93846e-06)
(0.0003609 -0.0235019 -3.14969e-06)
(0.000385333 -0.0238745 -3.36294e-06)
(0.000409793 -0.0242012 -3.57643e-06)
(0.000434042 -0.02448 -3.78806e-06)
(0.000457812 -0.024709 -3.99552e-06)
(0.000480799 -0.024886 -4.19616e-06)
(0.000502673 -0.0250086 -4.38709e-06)
(0.000523075 -0.0250746 -4.56517e-06)
(0.000541621 -0.0250815 -4.72705e-06)
(0.000557902 -0.0250265 -4.86918e-06)
(0.000571492 -0.0249069 -4.98785e-06)
(0.000581958 -0.0247199 -5.07993e-06)
(0.000588874 -0.0244625 -5.14038e-06)
(0.000591831 -0.0241315 -5.16625e-06)
(0.000590439 -0.0237236 -5.15417e-06)
(0.000584349 -0.0232352 -5.10107e-06)
(0.000573274 -0.0226627 -5.00447e-06)
(0.000557007 -0.022002 -4.86255e-06)
(0.000535434 -0.0212487 -4.67433e-06)
(0.00050857 -0.0203978 -4.43991e-06)
(0.000476566 -0.0194439 -4.16062e-06)
(0.000439752 -0.0183805 -3.83933e-06)
(0.000398643 -0.0171998 -3.48056e-06)
(0.000353979 -0.015892 -3.09073e-06)
(0.000306736 -0.0144457 -2.67838e-06)
(0.000258123 -0.0128466 -2.25404e-06)
(0.000209569 -0.0110788 -1.83019e-06)
(0.000162624 -0.00912804 -1.42038e-06)
(0.00011908 -0.00698812 -1.0402e-06)
(8.0105e-05 -0.00467908 -6.99979e-07)
(4.77429e-05 -0.00230363 -4.17933e-07)
(1.09248e-05 -0.000236756 -1.07257e-07)
(6.66618e-09 -0.000224607 -5.20181e-11)
(1.02139e-06 -0.000959903 -8.89929e-09)
(3.24085e-06 -0.0019388 -2.82666e-08)
(6.15866e-06 -0.00300332 -5.37224e-08)
(1.02212e-05 -0.00410084 -8.91869e-08)
(1.47892e-05 -0.00520564 -1.29064e-07)
(2.0208e-05 -0.00630412 -1.76355e-07)
(2.64348e-05 -0.0073879 -2.30701e-07)
(3.33896e-05 -0.00845226 -2.91403e-07)
(4.11755e-05 -0.00949373 -3.59347e-07)
(4.97324e-05 -0.0105104 -4.34031e-07)
(5.92103e-05 -0.0115006 -5.16753e-07)
(6.9435e-05 -0.0124634 -6.05989e-07)
(8.06446e-05 -0.0133978 -7.0382e-07)
(9.26913e-05 -0.0143034 -8.08953e-07)
(0.000105774 -0.0151794 -9.2312e-07)
(0.000119811 -0.0160252 -1.04563e-06)
(0.000134933 -0.0168402 -1.17761e-06)
(0.000151089 -0.0176238 -1.31858e-06)
(0.000168281 -0.0183753 -1.46862e-06)
(0.000186529 -0.0190939 -1.62789e-06)
(0.000205817 -0.0197787 -1.79622e-06)
(0.000226125 -0.0204288 -1.97345e-06)
(0.000247391 -0.0210432 -2.15904e-06)
(0.00026955 -0.0216207 -2.35243e-06)
(0.000292519 -0.0221601 -2.55288e-06)
(0.000316197 -0.0226599 -2.75953e-06)
(0.000340455 -0.0231188 -2.97124e-06)
(0.000365141 -0.0235352 -3.18669e-06)
(0.000390071 -0.0239073 -3.40428e-06)
(0.00041503 -0.0242333 -3.62212e-06)
(0.000439773 -0.0245114 -3.83807e-06)
(0.000464021 -0.0247394 -4.04971e-06)
(0.000487462 -0.0249152 -4.25431e-06)
(0.000509754 -0.0250365 -4.44889e-06)
(0.000530529 -0.0251009 -4.63023e-06)
(0.000549392 -0.025106 -4.7949e-06)
(0.000565926 -0.025049 -4.93924e-06)
(0.000579694 -0.0249273 -5.05946e-06)
(0.000590251 -0.024738 -5.15236e-06)
(0.000597168 -0.024478 -5.21282e-06)
(0.000600031 -0.0241444 -5.23787e-06)
(0.000598445 -0.0237337 -5.2241e-06)
(0.000592057 -0.0232424 -5.16841e-06)
(0.000580583 -0.0226671 -5.06833e-06)
(0.000563816 -0.0220034 -4.92205e-06)
(0.000541652 -0.0212473 -4.72866e-06)
(0.000514107 -0.0203937 -4.4883e-06)
(0.000481346 -0.0194373 -4.20239e-06)
(0.000443714 -0.0183717 -3.87396e-06)
(0.000401746 -0.0171889 -3.50767e-06)
(0.000356198 -0.0158796 -3.11013e-06)
(0.000308072 -0.0144322 -2.69005e-06)
(0.000258596 -0.0128324 -2.25817e-06)
(0.000209224 -0.0110646 -1.82718e-06)
(0.000161509 -0.00911427 -1.41063e-06)
(0.000117225 -0.00697535 -1.024e-06)
(7.7433e-05 -0.0046677 -6.76616e-07)
(4.4151e-05 -0.00229304 -3.86495e-07)
(9.23399e-06 -0.000228165 -9.10502e-08)
(-6.67569e-08 -0.000223294 5.73808e-10)
(4.42215e-07 -0.000958922 -3.85568e-09)
(2.19953e-06 -0.0019392 -1.91617e-08)
(4.52726e-06 -0.00300558 -3.94973e-08)
(7.88987e-06 -0.00410487 -6.88336e-08)
(1.19776e-05 -0.00521159 -1.04518e-07)
(1.69926e-05 -0.00631179 -1.48288e-07)
(2.28453e-05 -0.00739734 -1.99375e-07)
(2.95719e-05 -0.00846336 -2.58079e-07)
(3.72372e-05 -0.00950651 -3.24968e-07)
(4.57841e-05 -0.0105248 -3.99565e-07)
(5.53652e-05 -0.0115166 -4.83185e-07)
(6.58025e-05 -0.012481 -5.74272e-07)
(7.7305e-05 -0.0134171 -6.74661e-07)
(8.97183e-05 -0.0143242 -7.82992e-07)
(0.000103235 -0.0152017 -9.00948e-07)
(0.000117745 -0.016049 -1.02758e-06)
(0.000133367 -0.0168654 -1.16392e-06)
(0.000150051 -0.0176503 -1.30953e-06)
(0.000167808 -0.018403 -1.4645e-06)
(0.000186652 -0.0191227 -1.62896e-06)
(0.000206541 -0.0198086 -1.80253e-06)
(0.000227474 -0.0204596 -1.98522e-06)
(0.000249381 -0.0210748 -2.17641e-06)
(0.000272208 -0.0216529 -2.37563e-06)
(0.000295859 -0.0221927 -2.58204e-06)
(0.000320239 -0.0226929 -2.79481e-06)
(0.000345208 -0.0231519 -3.01273e-06)
(0.000370614 -0.0235682 -3.23445e-06)
(0.000396261 -0.0239401 -3.4583e-06)
(0.00042193 -0.0242656 -3.68234e-06)
(0.000447365 -0.024543 -3.90433e-06)
(0.000472278 -0.0247701 -4.12176e-06)
(0.000496343 -0.0249448 -4.33181e-06)
(0.000519209 -0.0250648 -4.5314e-06)
(0.000540494 -0.0251277 -4.7172e-06)
(0.000559794 -0.025131 -4.88568e-06)
(0.000576678 -0.025072 -5.03307e-06)
(0.000590695 -0.0249481 -5.15547e-06)
(0.000601391 -0.0247564 -5.2496e-06)
(0.000608326 -0.024494 -5.31022e-06)
(0.000611082 -0.0241577 -5.33434e-06)
(0.000609256 -0.0237442 -5.31848e-06)
(0.000602494 -0.0232502 -5.25953e-06)
(0.000590507 -0.022672 -5.15498e-06)
(0.000573098 -0.0220055 -5.00309e-06)
(0.000550163 -0.0212466 -4.80299e-06)
(0.000521733 -0.0203905 -4.5549e-06)
(0.000487984 -0.0194317 -4.26038e-06)
(0.000449283 -0.0183639 -3.92261e-06)
(0.000406186 -0.0171793 -3.54648e-06)
(0.000359476 -0.0158686 -3.13879e-06)
(0.000310185 -0.0144202 -2.70855e-06)
(0.000259572 -0.01282 -2.26674e-06)
(0.00020912 -0.0110521 -1.82632e-06)
(0.000160404 -0.0091024 -1.40103e-06)
(0.000115191 -0.00696447 -1.00627e-06)
(7.45216e-05 -0.00465817 -6.51213e-07)
(4.04715e-05 -0.00228441 -3.54241e-07)
(7.82879e-06 -0.000221276 -7.71112e-08)
(-8.31609e-08 -0.00022586 7.34733e-10)
(4.90502e-07 -0.000965065 -4.29869e-09)
(2.27098e-06 -0.00194826 -1.98025e-08)
(4.65152e-06 -0.00301698 -4.05607e-08)
(8.22055e-06 -0.00411831 -7.17379e-08)
(1.21852e-05 -0.00522677 -1.06321e-07)
(1.73042e-05 -0.00632864 -1.51001e-07)
(2.30176e-05 -0.0074157 -2.00875e-07)
(2.96401e-05 -0.0084831 -2.58666e-07)
(3.7211e-05 -0.00952755 -3.24737e-07)
(4.56456e-05 -0.0105471 -3.98356e-07)
(5.51466e-05 -0.01154 -4.81273e-07)
(6.55163e-05 -0.0125055 -5.71769e-07)
(7.70098e-05 -0.0134425 -6.72077e-07)
(8.94278e-05 -0.0143506 -7.8045e-07)
(0.000103041 -0.0152291 -8.9925e-07)
(0.000117681 -0.0160772 -1.02702e-06)
(0.000133523 -0.0168945 -1.16528e-06)
(0.000150499 -0.0176803 -1.31343e-06)
(0.000168634 -0.0184338 -1.4717e-06)
(0.000187918 -0.0191543 -1.64e-06)
(0.000208331 -0.0198408 -1.81815e-06)
(0.000229856 -0.0204924 -2.006e-06)
(0.000252426 -0.0211081 -2.20297e-06)
(0.000275969 -0.0216866 -2.40844e-06)
(0.000300389 -0.0222267 -2.62156e-06)
(0.000325576 -0.0227271 -2.84137e-06)
(0.000351385 -0.0231861 -3.06662e-06)
(0.000377649 -0.0236023 -3.29584e-06)
(0.000404166 -0.0239738 -3.52728e-06)
(0.000430702 -0.0242988 -3.75889e-06)
(0.000456989 -0.0245755 -3.98831e-06)
(0.000482722 -0.0248017 -4.21291e-06)
(0.000507564 -0.0249752 -4.42975e-06)
(0.000531146 -0.0250938 -4.63558e-06)
(0.000553073 -0.025155 -4.82698e-06)
(0.000572923 -0.0251565 -5.00026e-06)
(0.00059025 -0.0250954 -5.15153e-06)
(0.000604588 -0.0249693 -5.27673e-06)
(0.000615468 -0.0247751 -5.37248e-06)
(0.00062244 -0.0245101 -5.43342e-06)
(0.000625074 -0.024171 -5.45649e-06)
(0.000622964 -0.0237547 -5.43815e-06)
(0.000615747 -0.0232577 -5.37523e-06)
(0.000603138 -0.0226766 -5.26525e-06)
(0.00058494 -0.0220073 -5.10648e-06)
(0.000561059 -0.0212456 -4.89811e-06)
(0.000531537 -0.0203868 -4.6405e-06)
(0.00049657 -0.0194255 -4.33534e-06)
(0.000456546 -0.0183555 -3.98604e-06)
(0.000412052 -0.0171691 -3.59771e-06)
(0.000363903 -0.015857 -3.17746e-06)
(0.000313167 -0.0144076 -2.7346e-06)
(0.000261142 -0.012807 -2.28047e-06)
(0.000209353 -0.0110393 -1.82838e-06)
(0.000159414 -0.00909017 -1.39241e-06)
(0.000113112 -0.00695337 -9.88149e-07)
(7.15536e-05 -0.00464855 -6.25293e-07)
(3.69215e-05 -0.00227617 -3.23209e-07)
(6.41765e-06 -0.000215477 -6.36126e-08)
(-1.28522e-07 -0.000225225 1.13197e-09)
(1.1606e-07 -0.000965019 -1.02818e-09)
(1.53553e-06 -0.00194965 -1.33731e-08)
(3.56525e-06 -0.0030202 -3.10742e-08)
(6.60481e-06 -0.00412327 -5.76404e-08)
(1.0134e-05 -0.00523388 -8.84224e-08)
(1.48215e-05 -0.00633743 -1.29329e-07)
(2.02752e-05 -0.00742662 -1.7693e-07)
(2.67312e-05 -0.00849578 -2.33273e-07)
(3.41942e-05 -0.0095421 -2.98408e-07)
(4.26533e-05 -0.0105634 -3.72237e-07)
(5.22543e-05 -0.0115581 -4.56025e-07)
(6.2826e-05 -0.0125253 -5.48281e-07)
(7.45901e-05 -0.013464 -6.5095e-07)
(8.73633e-05 -0.0143738 -7.62423e-07)
(0.000101407 -0.0152538 -8.84985e-07)
(0.000116533 -0.0161034 -1.017e-06)
(0.000132921 -0.0169221 -1.16002e-06)
(0.000150491 -0.0177092 -1.31336e-06)
(0.000169284 -0.0184639 -1.47737e-06)
(0.000189297 -0.0191855 -1.65202e-06)
(0.00021047 -0.019873 -1.83681e-06)
(0.000232806 -0.0205255 -2.03174e-06)
(0.00025623 -0.0211419 -2.23616e-06)
(0.000280677 -0.021721 -2.44952e-06)
(0.000306039 -0.0222616 -2.67086e-06)
(0.000332208 -0.0227622 -2.89925e-06)
(0.000359026 -0.0232213 -3.1333e-06)
(0.00038632 -0.0236373 -3.37152e-06)
(0.000413873 -0.0240085 -3.612e-06)
(0.000441442 -0.024333 -3.85262e-06)
(0.000468741 -0.0246089 -4.09088e-06)
(0.000495452 -0.0248341 -4.32401e-06)
(0.000521219 -0.0250064 -4.54891e-06)
(0.000545655 -0.0251236 -4.76221e-06)
(0.000568347 -0.0251831 -4.96028e-06)
(0.000588855 -0.0251826 -5.13931e-06)
(0.000606716 -0.0251195 -5.29523e-06)
(0.000621442 -0.024991 -5.42383e-06)
(0.00063255 -0.0247943 -5.52159e-06)
(0.000639573 -0.0245265 -5.58299e-06)
(0.000642074 -0.0241846 -5.60489e-06)
(0.000639635 -0.0237653 -5.58368e-06)
(0.000631888 -0.0232653 -5.51613e-06)
(0.000618546 -0.0226811 -5.39976e-06)
(0.000599417 -0.0220088 -5.23287e-06)
(0.000574416 -0.0212442 -5.01474e-06)
(0.000543601 -0.0203826 -4.74584e-06)
(0.000507188 -0.0194188 -4.42806e-06)
(0.000465593 -0.0183466 -4.06504e-06)
(0.000419438 -0.0171583 -3.66221e-06)
(0.000369575 -0.0158447 -3.227e-06)
(0.000317118 -0.0143944 -2.76912e-06)
(0.000263414 -0.0127933 -2.30034e-06)
(0.00021004 -0.0110257 -1.8344e-06)
(0.000158668 -0.00907727 -1.38591e-06)
(0.000111134 -0.00694162 -9.70899e-07)
(6.86866e-05 -0.00463838 -6.00281e-07)
(3.36422e-05 -0.00226774 -2.94505e-07)
(5.15889e-06 -0.000209999 -5.18017e-08)
(-1.14591e-09 -0.000226844 1.68512e-11)
(5.55712e-07 -0.000969175 -4.8387e-09)
(1.78378e-06 -0.00195605 -1.55523e-08)
(3.85934e-06 -0.00302867 -3.36611e-08)
(6.87918e-06 -0.00413357 -6.00095e-08)
(1.02151e-05 -0.00524593 -8.91325e-08)
(1.51701e-05 -0.0063511 -1.32401e-07)
(2.01019e-05 -0.0074419 -1.75413e-07)
(2.6809e-05 -0.0085126 -2.33952e-07)
(3.39617e-05 -0.00956055 -2.96385e-07)
(4.23533e-05 -0.0105833 -3.69613e-07)
(5.18397e-05 -0.0115795 -4.52403e-07)
(6.23775e-05 -0.012548 -5.44364e-07)
(7.41939e-05 -0.0134882 -6.47486e-07)
(8.70727e-05 -0.0143992 -7.59879e-07)
(0.000101337 -0.0152805 -8.84368e-07)
(0.000116748 -0.0161314 -1.01887e-06)
(0.000133534 -0.0169514 -1.16537e-06)
(0.000151604 -0.0177396 -1.32306e-06)
(0.000170987 -0.0184954 -1.49222e-06)
(0.000191661 -0.019218 -1.67265e-06)
(0.000213605 -0.0199065 -1.86416e-06)
(0.000236794 -0.0205598 -2.06654e-06)
(0.000261157 -0.0211769 -2.27916e-06)
(0.000286611 -0.0217566 -2.5013e-06)
(0.000313041 -0.0222976 -2.73196e-06)
(0.000340325 -0.0227984 -2.97008e-06)
(0.000368298 -0.0232577 -3.21422e-06)
(0.000396771 -0.0236736 -3.46272e-06)
(0.000425515 -0.0240444 -3.7136e-06)
(0.00045427 -0.0243684 -3.96457e-06)
(0.000482734 -0.0246435 -4.213e-06)
(0.00051057 -0.0248677 -4.45595e-06)
(0.000537402 -0.0250387 -4.69015e-06)
(0.000562823 -0.0251544 -4.91204e-06)
(0.000586398 -0.0252122 -5.11782e-06)
(0.000607668 -0.0252097 -5.30349e-06)
(0.000626145 -0.0251443 -5.46481e-06)
(0.000641323 -0.0250133 -5.59735e-06)
(0.000652697 -0.0248139 -5.69746e-06)
(0.000659785 -0.0245433 -5.75943e-06)
(0.000662136 -0.0241984 -5.78002e-06)
(0.000659321 -0.023776 -5.75553e-06)
(0.000650966 -0.0232729 -5.68269e-06)
(0.000636783 -0.0226856 -5.55897e-06)
(0.000616582 -0.0220101 -5.38273e-06)
(0.000590292 -0.0212425 -5.15334e-06)
(0.000557984 -0.0203781 -4.87141e-06)
(0.000519901 -0.0194117 -4.53906e-06)
(0.000476491 -0.0183372 -4.1602e-06)
(0.000428413 -0.017147 -3.74059e-06)
(0.000376568 -0.0158319 -3.28808e-06)
(0.00032212 -0.0143806 -2.81282e-06)
(0.000266475 -0.0127791 -2.32708e-06)
(0.000211273 -0.0110116 -1.84519e-06)
(0.000158266 -0.00906395 -1.38243e-06)
(0.000109369 -0.00692954 -9.5551e-07)
(6.60255e-05 -0.00462801 -5.77051e-07)
(3.06967e-05 -0.00225949 -2.68782e-07)
(4.09708e-06 -0.000205145 -4.16986e-08)
(-8.59305e-08 -0.000226533 7.57349e-10)
(1.17345e-07 -0.000969551 -1.01353e-09)
(1.15246e-06 -0.00195794 -1.00351e-08)
(3.04068e-06 -0.0030321 -2.65026e-08)
(5.82743e-06 -0.00413907 -5.08242e-08)
(8.84752e-06 -0.00525334 -7.71875e-08)
(1.3503e-05 -0.00636043 -1.1786e-07)
(1.81494e-05 -0.00745359 -1.58383e-07)
(2.4688e-05 -0.00852574 -2.1544e-07)
(3.17859e-05 -0.00957604 -2.77382e-07)
(4.03746e-05 -0.0106004 -3.52342e-07)
(4.99433e-05 -0.0115986 -4.35847e-07)
(6.07922e-05 -0.0125689 -5.30524e-07)
(7.28968e-05 -0.0135109 -6.36158e-07)
(8.61819e-05 -0.0144237 -7.52098e-07)
(0.000100902 -0.0153066 -8.8056e-07)
(0.000116853 -0.0161592 -1.01977e-06)
(0.000134259 -0.0169806 -1.17168e-06)
(0.000153016 -0.0177703 -1.33538e-06)
(0.000173172 -0.0185274 -1.51129e-06)
(0.000194722 -0.0192512 -1.69936e-06)
(0.000217602 -0.0199408 -1.89903e-06)
(0.000241806 -0.0205951 -2.11027e-06)
(0.000267249 -0.0212131 -2.33231e-06)
(0.000293854 -0.0217934 -2.56451e-06)
(0.000321493 -0.0223349 -2.80572e-06)
(0.000350042 -0.0228361 -3.05487e-06)
(0.000379317 -0.0232954 -3.31038e-06)
(0.000409121 -0.0237112 -3.5705e-06)
(0.000439208 -0.0240818 -3.83309e-06)
(0.0004693 -0.0244052 -4.09574e-06)
(0.000499077 -0.0246795 -4.35562e-06)
(0.00052818 -0.0249026 -4.60964e-06)
(0.000556212 -0.0250723 -4.85431e-06)
(0.000582742 -0.0251863 -5.08588e-06)
(0.000607313 -0.0252422 -5.30036e-06)
(0.00062944 -0.0252376 -5.49352e-06)
(0.000648613 -0.0251699 -5.6609e-06)
(0.000664299 -0.0250363 -5.79789e-06)
(0.000675974 -0.0248342 -5.90065e-06)
(0.000683134 -0.0245606 -5.96325e-06)
(0.000685315 -0.0242126 -5.98237e-06)
(0.000682075 -0.023787 -5.95417e-06)
(0.000673033 -0.0232806 -5.87533e-06)
(0.000657897 -0.0226899 -5.7433e-06)
(0.000636485 -0.0220113 -5.55649e-06)
(0.000608732 -0.0212405 -5.31434e-06)
(0.000574735 -0.0203732 -5.01767e-06)
(0.00053476 -0.0194041 -4.66881e-06)
(0.000489293 -0.0183272 -4.27199e-06)
(0.000439037 -0.0171351 -3.83336e-06)
(0.000384944 -0.0158185 -3.36123e-06)
(0.000328239 -0.0143662 -2.86627e-06)
(0.000270396 -0.0127642 -2.36135e-06)
(0.000213131 -0.010997 -1.86144e-06)
(0.000158296 -0.00905014 -1.38273e-06)
(0.000107907 -0.0069171 -9.42773e-07)
(6.36452e-05 -0.00461747 -5.5628e-07)
(2.81088e-05 -0.00225141 -2.46131e-07)
(3.20842e-06 -0.000200779 -3.33178e-08)
(1.18882e-08 -0.000227649 -9.6843e-11)
(2.39865e-07 -0.000972551 -2.08383e-09)
(1.10945e-06 -0.00196272 -9.64533e-09)
(3.09895e-06 -0.00303869 -2.69944e-08)
(5.59333e-06 -0.00414732 -4.87934e-08)
(9.15449e-06 -0.00526346 -7.98846e-08)
(1.33512e-05 -0.00637224 -1.16441e-07)
(1.8367e-05 -0.00746714 -1.603e-07)
(2.51336e-05 -0.00854105 -2.19386e-07)
(3.16557e-05 -0.00959312 -2.7624e-07)
(4.06656e-05 -0.0106191 -3.5487e-07)
(4.9869e-05 -0.0116192 -4.35205e-07)
(6.08844e-05 -0.0125912 -5.31323e-07)
(7.30578e-05 -0.0135349 -6.37559e-07)
(8.65924e-05 -0.0144493 -7.55676e-07)
(0.000101652 -0.0153339 -8.87099e-07)
(0.000118055 -0.016188 -1.03025e-06)
(0.00013605 -0.017011 -1.18731e-06)
(0.000155501 -0.0178021 -1.35706e-06)
(0.000176443 -0.0185607 -1.53982e-06)
(0.000198861 -0.0192857 -1.73546e-06)
(0.000222735 -0.0199765 -1.94382e-06)
(0.000248034 -0.0206318 -2.16461e-06)
(0.00027467 -0.0212506 -2.39707e-06)
(0.000302547 -0.0218317 -2.64036e-06)
(0.000331532 -0.0223738 -2.89333e-06)
(0.000361483 -0.0228753 -3.15472e-06)
(0.000392208 -0.0233347 -3.42287e-06)
(0.00042349 -0.0237505 -3.69589e-06)
(0.000455068 -0.0241207 -3.97151e-06)
(0.000486645 -0.0244435 -4.24711e-06)
(0.000517879 -0.024717 -4.51971e-06)
(0.000548389 -0.0249389 -4.786e-06)
(0.000577752 -0.0251072 -5.04229e-06)
(0.000605512 -0.0252196 -5.2846e-06)
(0.000631185 -0.0252735 -5.5087e-06)
(0.000654261 -0.0252667 -5.71014e-06)
(0.000674202 -0.0251965 -5.88423e-06)
(0.000690449 -0.0250602 -6.02611e-06)
(0.000702451 -0.0248551 -6.13178e-06)
(0.000709688 -0.0245784 -6.19505e-06)
(0.000711674 -0.0242271 -6.21246e-06)
(0.000707956 -0.0237982 -6.1801e-06)
(0.000698142 -0.0232883 -6.09453e-06)
(0.000681941 -0.0226943 -5.95321e-06)
(0.000659173 -0.0220122 -5.75457e-06)
(0.000629788 -0.0212382 -5.49817e-06)
(0.000593902 -0.0203678 -5.18502e-06)
(0.000551815 -0.019396 -4.81772e-06)
(0.000504049 -0.0183167 -4.40085e-06)
(0.00045136 -0.0171225 -3.94098e-06)
(0.000394757 -0.0158044 -3.44694e-06)
(0.000335533 -0.0143511 -2.92998e-06)
(0.00027524 -0.0127488 -2.40367e-06)
(0.000215683 -0.0109818 -1.88376e-06)
(0.00015883 -0.00903583 -1.38742e-06)
(0.000106818 -0.00690428 -9.33293e-07)
(6.15915e-05 -0.00460675 -5.38363e-07)
(2.58745e-05 -0.00224349 -2.26603e-07)
(2.46089e-06 -0.000196861 -2.61715e-08)
(5.92523e-09 -0.000227569 -4.5378e-11)
(1.12397e-07 -0.000973359 -9.72313e-10)
(7.78842e-07 -0.00196495 -6.76422e-09)
(2.54182e-06 -0.00304244 -2.21323e-08)
(4.81559e-06 -0.00415315 -4.19842e-08)
(8.10747e-06 -0.00527069 -7.07143e-08)
(1.23144e-05 -0.0063819 -1.07397e-07)
(1.70922e-05 -0.00747836 -1.49171e-07)
(2.37465e-05 -0.00855467 -2.07294e-07)
(3.03702e-05 -0.00960878 -2.6505e-07)
(3.95737e-05 -0.0106368 -3.45342e-07)
(4.89144e-05 -0.011639 -4.26855e-07)
(6.04276e-05 -0.0126129 -5.27331e-07)
(7.2921e-05 -0.0135586 -6.36357e-07)
(8.6984e-05 -0.014475 -7.59088e-07)
(0.000102588 -0.0153615 -8.95261e-07)
(0.000119649 -0.0162174 -1.04416e-06)
(0.000138381 -0.0170421 -1.20764e-06)
(0.000158657 -0.0178348 -1.38459e-06)
(0.000180533 -0.0185949 -1.57551e-06)
(0.000204017 -0.0193214 -1.78045e-06)
(0.000229036 -0.0200135 -1.9988e-06)
(0.000255573 -0.02067 -2.2304e-06)
(0.00028353 -0.0212898 -2.47439e-06)
(0.000312816 -0.0218717 -2.72998e-06)
(0.000343281 -0.0224143 -2.99585e-06)
(0.000374777 -0.0229162 -3.27073e-06)
(0.000407094 -0.0233758 -3.55278e-06)
(0.000440002 -0.0237915 -3.83999e-06)
(0.000473218 -0.0241614 -4.12989e-06)
(0.000506425 -0.0244836 -4.41972e-06)
(0.000539257 -0.0247561 -4.70627e-06)
(0.000571308 -0.0249769 -4.98602e-06)
(0.000602128 -0.0251437 -5.25503e-06)
(0.000631234 -0.0252543 -5.50909e-06)
(0.000658113 -0.0253062 -5.74371e-06)
(0.000682223 -0.025297 -5.95419e-06)
(0.000703 -0.0252241 -6.13557e-06)
(0.000719853 -0.025085 -6.28275e-06)
(0.000732208 -0.0248768 -6.39152e-06)
(0.000739517 -0.0245968 -6.45544e-06)
(0.000741279 -0.0242421 -6.47091e-06)
(0.000737025 -0.0238096 -6.43387e-06)
(0.000726353 -0.0232961 -6.34081e-06)
(0.00070897 -0.0226985 -6.18918e-06)
(0.000684701 -0.0220129 -5.97743e-06)
(0.000653509 -0.0212355 -5.70527e-06)
(0.000615536 -0.020362 -5.3739e-06)
(0.000571113 -0.0193872 -4.98622e-06)
(0.00052081 -0.0183054 -4.5472e-06)
(0.000465433 -0.0171092 -4.06387e-06)
(0.000406059 -0.0157895 -3.54564e-06)
(0.000344055 -0.0143352 -3.00443e-06)
(0.000281064 -0.0127326 -2.45455e-06)
(0.000218987 -0.0109659 -1.91264e-06)
(0.000159926 -0.00902094 -1.39702e-06)
(0.000106157 -0.00689106 -9.27543e-07)
(5.9894e-05 -0.00459586 -5.2355e-07)
(2.39771e-05 -0.0022357 -2.10011e-07)
(1.83352e-06 -0.00019331 -2.02233e-08)
(2.25854e-08 -0.000228351 -1.9177e-10)
(1.05683e-07 -0.000975654 -9.13608e-10)
(8.33964e-07 -0.00196886 -7.24737e-09)
(2.4222e-06 -0.00304798 -2.10897e-08)
(4.68933e-06 -0.00416044 -4.08759e-08)
(8.47726e-06 -0.00527975 -7.39566e-08)
(1.2215e-05 -0.00639283 -1.06609e-07)
(1.76214e-05 -0.00749118 -1.53799e-07)
(2.38767e-05 -0.00856945 -2.08227e-07)
(3.08094e-05 -0.00962546 -2.68884e-07)
(4.03461e-05 -0.0106555 -3.52165e-07)
(4.94354e-05 -0.0116596 -4.31399e-07)
(6.13877e-05 -0.0126356 -5.35704e-07)
(7.40302e-05 -0.0135833 -6.46039e-07)
(8.84969e-05 -0.0145016 -7.72285e-07)
(0.000104603 -0.01539 -9.12846e-07)
(0.000122292 -0.0162478 -1.06721e-06)
(0.000141771 -0.0170744 -1.23722e-06)
(0.000162934 -0.0178689 -1.42191e-06)
(0.000185807 -0.0186306 -1.62152e-06)
(0.000210392 -0.0193586 -1.83609e-06)
(0.000236641 -0.0200521 -2.06516e-06)
(0.000264521 -0.0207098 -2.30847e-06)
(0.000293929 -0.0213307 -2.56512e-06)
(0.000324756 -0.0219134 -2.83416e-06)
(0.000356845 -0.0224567 -3.11422e-06)
(0.000390031 -0.0229591 -3.40385e-06)
(0.00042409 -0.0234189 -3.7011e-06)
(0.000458771 -0.0238345 -4.00378e-06)
(0.000493773 -0.024204 -4.30928e-06)
(0.000528755 -0.0245255 -4.6146e-06)
(0.000563326 -0.0247971 -4.91632e-06)
(0.000597052 -0.0250167 -5.21069e-06)
(0.000629454 -0.0251819 -5.49351e-06)
(0.000660019 -0.0252906 -5.7603e-06)
(0.0006882 -0.0253403 -6.00631e-06)
(0.000713428 -0.0253286 -6.22653e-06)
(0.000735102 -0.025253 -6.41575e-06)
(0.000752604 -0.0251108 -6.5686e-06)
(0.000765328 -0.0248993 -6.68064e-06)
(0.000772703 -0.0246159 -6.74513e-06)
(0.000774206 -0.0242575 -6.75834e-06)
(0.000769352 -0.0238213 -6.71607e-06)
(0.00075773 -0.0233041 -6.61473e-06)
(0.000739044 -0.0227026 -6.45172e-06)
(0.000713123 -0.0220134 -6.22558e-06)
(0.000679949 -0.0212325 -5.93611e-06)
(0.000639686 -0.0203556 -5.58476e-06)
(0.000592706 -0.0193779 -5.17475e-06)
(0.000539622 -0.0182934 -4.71147e-06)
(0.000481304 -0.017095 -4.20247e-06)
(0.000418898 -0.0157737 -3.65777e-06)
(0.000353857 -0.0143185 -3.09004e-06)
(0.000287917 -0.0127155 -2.51443e-06)
(0.000223094 -0.0109493 -1.94854e-06)
(0.000161634 -0.00900545 -1.41196e-06)
(0.000105962 -0.00687741 -9.25871e-07)
(5.85696e-05 -0.00458476 -5.12006e-07)
(2.23949e-05 -0.00222802 -1.96172e-07)
(1.30727e-06 -0.000190068 -1.5213e-08)
(-1.36919e-08 -0.000228409 1.23324e-10)
(1.76324e-08 -0.00097661 -1.47143e-10)
(8.624e-07 -0.00197114 -7.49772e-09)
(2.20807e-06 -0.00305203 -1.923e-08)
(4.28915e-06 -0.00416598 -3.73794e-08)
(7.89641e-06 -0.00528742 -6.88741e-08)
(1.1658e-05 -0.00640244 -1.01743e-07)
(1.70095e-05 -0.0075028 -1.48429e-07)
(2.32886e-05 -0.00858348 -2.03098e-07)
(3.0442e-05 -0.00964143 -2.65709e-07)
(4.01754e-05 -0.0106739 -3.50675e-07)
(4.9544e-05 -0.0116802 -4.32332e-07)
(6.20492e-05 -0.0126585 -5.41471e-07)
(7.51335e-05 -0.0136084 -6.55658e-07)
(9.02483e-05 -0.0145289 -7.87564e-07)
(0.000107047 -0.0154195 -9.34162e-07)
(0.000125555 -0.0162793 -1.09568e-06)
(0.000145937 -0.0171079 -1.27357e-06)
(0.000168127 -0.0179043 -1.46722e-06)
(0.000192135 -0.0186678 -1.67674e-06)
(0.000218002 -0.0193975 -1.90249e-06)
(0.000245624 -0.0200924 -2.14355e-06)
(0.000274992 -0.0207515 -2.39985e-06)
(0.000305986 -0.0213735 -2.67034e-06)
(0.000338497 -0.0219572 -2.95408e-06)
(0.000372351 -0.0225013 -3.24953e-06)
(0.000407373 -0.0230041 -3.55519e-06)
(0.00044332 -0.0234641 -3.86892e-06)
(0.000479925 -0.0238796 -4.18839e-06)
(0.00051686 -0.0242488 -4.51075e-06)
(0.000553761 -0.0245696 -4.83283e-06)
(0.00059021 -0.0248402 -5.15094e-06)
(0.000625743 -0.0250584 -5.46109e-06)
(0.000659849 -0.025222 -5.75878e-06)
(0.000691982 -0.0253287 -6.03926e-06)
(0.000721562 -0.0253761 -6.29747e-06)
(0.000747984 -0.0253617 -6.52813e-06)
(0.000770614 -0.0252831 -6.7257e-06)
(0.0007888 -0.0251377 -6.88452e-06)
(0.000801906 -0.0249228 -6.99994e-06)
(0.000809333 -0.0246356 -7.06489e-06)
(0.000810537 -0.0242735 -7.07549e-06)
(0.000805014 -0.0238333 -7.02739e-06)
(0.000792345 -0.0233121 -6.91691e-06)
(0.000772228 -0.0227067 -6.74143e-06)
(0.000744503 -0.0220136 -6.49953e-06)
(0.000709164 -0.0212289 -6.19118e-06)
(0.000666408 -0.0203486 -5.81806e-06)