/*--------------------------------*- C++ -*----------------------------------*\
| =========                 |                                                 |
| \\      /  F ield         | OpenFOAM: The Open Source CFD Toolbox           |
|  \\    /   O peration     | Version:  v2012                                 |
|   \\  /    A nd           | Website:  www.openfoam.com                      |
|    \\/     M anipulation  |                                                 |
\*---------------------------------------------------------------------------*/
FoamFile
{
    version     2.0;
    format      ascii;
    class       volScalarField;
    location    "0.2";
    object      alpha.water;
}
// * * * * * * * * * * * * * * * * * * * * * * * * * * * * * * * * * * * * * //

dimensions      [0 0 0 0 0 0 0];


internalField   nonuniform List<scalar> 
3338
(
-1.61732e-124
-9.18579e-125
-3.97635e-125
-1.21913e-125
-2.6784e-126
-4.17985e-127
-4.51243e-128
-3.2481e-129
-1.48657e-130
-4.08199e-132
-6.27712e-134
-5.00641e-136
-1.92643e-138
-3.42544e-141
-2.85854e-144
-1.19834e-147
-2.72026e-151
-3.52266e-155
-2.64258e-159
-1.08193e-163
-1.73706e-168
-2.83602e-123
-1.55682e-123
-6.52127e-124
-1.94272e-124
-4.1618e-125
-6.35443e-126
-6.73599e-127
-4.78029e-128
-2.16701e-129
-5.92586e-131
-9.13226e-133
-7.35095e-135
-2.87445e-137
-5.21546e-140
-4.43254e-143
-1.87834e-146
-4.27257e-150
-5.50414e-154
-4.0883e-158
-1.65447e-162
-2.64611e-167
-4.93135e-122
-2.61705e-122
-1.06104e-122
-3.07192e-123
-6.41829e-124
-9.59003e-125
-9.98435e-126
-6.98731e-127
-3.13823e-128
-8.54887e-130
-1.32077e-131
-1.07344e-133
-4.2679e-136
-7.90778e-139
-6.84936e-142
-2.9329e-145
-6.66607e-149
-8.48535e-153
-6.15936e-157
-2.40714e-161
-3.69822e-166
-8.50159e-121
-4.36287e-121
-1.71245e-121
-4.8194e-122
-9.82276e-123
-1.4366e-123
-1.4693e-124
-1.01425e-125
-4.51447e-127
-1.22546e-128
-1.89872e-130
-1.5588e-132
-6.30555e-135
-1.19414e-137
-1.05528e-140
-4.56827e-144
-1.03605e-147
-1.29734e-151
-9.12226e-156
-3.38781e-160
-4.79242e-165
-1.45291e-119
-7.21194e-120
-2.74116e-120
-7.50063e-121
-1.49165e-121
-2.13584e-122
-2.14646e-123
-1.46189e-124
-6.45029e-126
-1.74531e-127
-2.71294e-129
-2.25085e-131
-9.26922e-134
-1.79591e-136
-1.62135e-139
-7.10254e-143
-1.60618e-146
-1.97163e-150
-1.33332e-154
-4.64969e-159
-5.88882e-164
-2.461e-118
-1.18189e-118
-4.35121e-119
-1.15788e-119
-2.24728e-120
-3.15111e-121
-3.11244e-122
-2.09199e-123
-9.15274e-125
-2.46935e-126
-3.85228e-128
-3.23149e-130
-1.35566e-132
-2.69001e-135
-2.4849e-138
-1.10321e-141
-2.48812e-145
-2.98684e-149
-1.93114e-153
-6.26168e-158
-7.10862e-163
-4.13085e-117
-1.9199e-117
-6.84824e-118
-1.77265e-118
-3.3585e-119
-4.61272e-120
-4.47906e-121
-2.97186e-122
-1.28965e-123
-3.47044e-125
-5.43562e-127
-4.61235e-129
-1.9725e-131
-4.01295e-134
-3.79974e-137
-1.7133e-140
-3.85848e-144
-4.52542e-148
-2.78641e-152
-8.34e-157
-8.4135e-162
-6.86981e-116
-3.09081e-116
-1.06849e-116
-2.691e-117
-4.97814e-118
-6.69871e-119
-6.39623e-120
-4.19049e-121
-1.80422e-122
-4.84422e-124
-7.62054e-126
-6.54417e-128
-2.85492e-130
-5.96183e-133
-5.79748e-136
-2.66165e-139
-5.99799e-143
-6.87431e-147
-4.01997e-151
-1.10398e-155
-9.80089e-161
-1.13174e-114
-4.93043e-115
-1.65238e-115
-4.05008e-116
-7.31738e-117
-9.64943e-118
-9.06257e-119
-5.86424e-120
-2.50579e-121
-6.71502e-123
-1.06139e-124
-9.22887e-127
-4.10989e-129
-8.81971e-132
-8.82587e-135
-4.13777e-138
-9.35726e-142
-1.04939e-145
-5.81922e-150
-1.45863e-154
-1.12702e-159
-1.84656e-113
-7.79168e-114
-2.53233e-114
-6.0423e-115
-1.06646e-115
-1.37855e-116
-1.27381e-117
-8.14346e-119
-3.45449e-120
-9.24272e-122
-1.46845e-123
-1.29345e-125
-5.88393e-128
-1.29904e-130
-1.34049e-133
-6.43815e-137
-1.46643e-140
-1.61336e-144
-8.4823e-149
-1.93233e-153
-1.28614e-158
-2.98336e-112
-1.21962e-112
-3.84525e-113
-8.93416e-114
-1.54084e-114
-1.95294e-115
-1.77592e-116
-1.122e-117
-4.72656e-119
-1.26305e-120
-2.01783e-122
-1.80133e-124
-8.37601e-127
-1.90463e-129
-2.03084e-132
-1.00262e-135
-2.3101e-139
-2.50284e-143
-1.24907e-147
-2.57692e-152
-1.45996e-157
-4.77189e-111
-1.89053e-111
-5.78414e-112
-1.30901e-112
-2.20662e-113
-2.74301e-114
-2.45548e-115
-1.53357e-116
-6.41751e-118
-1.71338e-119
-2.75351e-121
-2.4924e-123
-1.1854e-125
-2.77919e-128
-3.06821e-131
-1.56251e-134
-3.65951e-138
-3.92389e-142
-1.86391e-146
-3.47285e-151
-1.64977e-156
-7.55482e-110
-2.90142e-110
-8.61743e-111
-1.90014e-111
-3.13166e-112
-3.81913e-113
-3.36647e-114
-2.07906e-115
-8.64533e-117
-2.3069e-118
-3.73078e-120
-3.42572e-122
-1.66752e-124
-4.03503e-127
-4.62114e-130
-2.43602e-133
-5.83004e-137
-6.22442e-141
-2.82666e-145
-4.74798e-150
-1.85435e-155
-1.18363e-108
-4.40775e-109
-1.27132e-109
-2.73212e-110
-4.40372e-111
-5.27018e-112
-4.57577e-113
-2.79522e-114
-1.15537e-115
-3.08233e-117
-5.01828e-119
-4.6765e-121
-2.33113e-123
-5.82744e-126
-6.93595e-129
-3.79762e-132
-9.33849e-136
-9.99786e-140
-4.3678e-144
-6.61122e-149
-2.06589e-154
-1.83472e-107
-6.62682e-108
-1.85684e-108
-3.89046e-109
-6.13451e-110
-7.20662e-111
-6.16496e-112
-3.72631e-113
-1.5315e-114
-4.08637e-116
-6.70008e-118
-6.33938e-120
-3.23786e-122
-8.3693e-125
-1.03699e-127
-5.91652e-131
-1.5032e-134
-1.62652e-138
-6.89201e-143
-9.41443e-148
-2.26329e-153
-2.81311e-106
-9.85777e-107
-2.68438e-107
-5.48525e-108
-8.46387e-109
-9.76336e-110
-8.23178e-111
-4.92467e-112
-2.01323e-113
-5.37435e-115
-8.87765e-117
-8.53191e-119
-4.46734e-121
-1.19495e-123
-1.54368e-126
-9.20568e-130
-2.42972e-133
-2.67944e-137
-1.11236e-141
-1.3771e-146
-2.45779e-152
-4.26547e-105
-1.45056e-105
-3.84029e-106
-7.65582e-107
-1.15637e-107
-1.31022e-108
-1.08911e-109
-6.45106e-111
-2.62405e-112
-7.01081e-114
-1.16716e-115
-1.13981e-117
-6.12115e-120
-1.69557e-122
-2.2869e-125
-1.42942e-128
-3.93974e-132
-4.46615e-136
-1.83813e-140
-2.07904e-145
-2.63488e-151
-6.39448e-104
-2.11092e-104
-5.43542e-105
-1.05752e-105
-1.56413e-106
-1.7413e-107
-1.42751e-108
-8.37448e-110
-3.39055e-111
-9.06947e-113
-1.52226e-114
-1.51115e-116
-8.32727e-119
-2.39028e-121
-3.36999e-124
-2.21326e-127
-6.401e-131
-7.52289e-135
-3.11009e-139
-3.25566e-144
-3.09937e-150
-9.47529e-103
-3.03726e-103
-7.60928e-104
-1.4454e-104
-2.09409e-105
-2.29138e-106
-1.8532e-107
-1.07713e-108
-4.34212e-110
-1.16327e-111
-1.96918e-113
-1.98784e-115
-1.12446e-117
-3.34656e-120
-4.93722e-123
-3.4145e-126
-1.04075e-129
-1.27844e-133
-5.38328e-138
-5.3133e-143
-4.02291e-149
-1.38744e-101
-4.3197e-102
-1.05338e-102
-1.95425e-103
-2.77437e-104
-2.98481e-105
-2.38238e-106
-1.37238e-107
-5.51033e-109
-1.47902e-110
-2.52596e-112
-2.59388e-114
-1.50673e-116
-4.6517e-119
-7.18762e-122
-5.24423e-125
-1.69114e-128
-2.18759e-132
-9.51431e-137
-9.07135e-142
-6.2582e-148
-2.00703e-100
-6.07116e-101
-1.4416e-101
-2.61309e-102
-3.63641e-103
-3.84794e-104
-3.03211e-105
-1.73172e-106
-6.92792e-108
-1.86367e-109
-3.21229e-111
-3.35664e-113
-2.0029e-115
-6.41701e-118
-1.03924e-120
-8.01205e-124
-2.74259e-127
-3.761e-131
-1.71221e-135
-1.62281e-140
-1.08944e-146
-2.86737e-99
-8.42982e-100
-1.94984e-100
-3.45457e-101
-4.71422e-102
-4.90825e-103
-3.81963e-104
-2.16361e-105
-8.62738e-107
-2.32682e-108
-4.04898e-110
-4.3066e-112
-2.64047e-114
-8.78216e-117
-1.49158e-119
-1.21665e-122
-4.43308e-126
-6.48208e-130
-3.12673e-134
-3.03745e-139
-2.04331e-145
-4.04457e-98
-1.15603e-98
-2.60572e-99
-4.51418e-100
-6.04308e-101
-6.19296e-102
-4.76136e-103
-2.6759e-104
-1.0639e-105
-2.87774e-107
-5.05721e-109
-5.47676e-111
-3.45123e-113
-1.19194e-115
-2.12403e-118
-1.83487e-121
-7.13267e-125
-1.11744e-128
-5.77171e-133
-5.91912e-138
-4.12144e-144
-5.63092e-97
-1.56527e-97
-3.43952e-98
-5.82884e-99
-7.65768e-100
-7.72729e-101
-5.87167e-102
-3.27524e-103
-1.29885e-104
-3.52473e-106
-6.25743e-108
-6.90159e-110
-4.47092e-112
-1.60373e-114
-2.99944e-117
-2.74627e-120
-1.14094e-123
-1.92262e-127
-1.07269e-131
-1.1917e-136
-8.81368e-143
-7.73492e-96
-2.09193e-96
-4.48306e-97
-7.43481e-98
-9.58952e-99
-9.53212e-100
-7.16132e-101
-3.96625e-102
-1.56943e-103
-4.27434e-105
-7.66801e-107
-8.61557e-109
-5.73867e-111
-2.13826e-113
-4.19823e-116
-4.07625e-119
-1.81234e-122
-3.29493e-126
-1.99954e-130
-2.45606e-135
-1.97299e-141
-1.04796e-94
-2.75863e-95
-5.76784e-96
-9.3649e-97
-1.18638e-97
-1.16213e-98
-8.63575e-100
-4.75072e-101
-1.87638e-102
-5.13049e-104
-9.30344e-106
-1.06511e-107
-7.29572e-110
-2.82405e-112
-5.82135e-115
-5.99598e-118
-2.85568e-121
-5.61402e-125
-3.72492e-129
-5.1339e-134
-4.55982e-140
-1.39982e-93
-3.58818e-94
-7.32259e-95
-1.16449e-95
-1.44957e-96
-1.39988e-97
-1.02932e-98
-5.62667e-100
-2.21909e-101
-6.0935e-103
-1.11724e-104
-1.3036e-106
-9.18368e-109
-3.69312e-111
-7.99286e-114
-8.7348e-117
-4.459e-120
-9.49397e-124
-6.91269e-128
-1.07932e-132
-1.07855e-138
-1.84274e-92
-4.60175e-93
-9.17e-94
-1.42894e-94
-1.7486e-95
-1.66552e-96
-1.21229e-97
-6.58751e-99
-2.59518e-100
-7.15912e-102
-1.32757e-103
-1.579e-105
-1.14419e-107
-4.78021e-110
-1.08615e-112
-1.2594e-115
-6.89325e-119
-1.59116e-122
-1.27442e-126
-2.26631e-131
-2.56903e-137
-2.38959e-91
-5.81654e-92
-1.1323e-92
-1.72972e-93
-2.08173e-94
-1.95653e-95
-1.41034e-96
-7.62124e-98
-3.00025e-99
-8.31751e-101
-1.56037e-102
-1.89218e-104
-1.41044e-106
-6.12145e-109
-1.46007e-111
-1.79607e-114
-1.05413e-117
-2.63933e-121
-2.32852e-125
-4.72662e-130
-6.12319e-136
-3.05104e-90
-7.24285e-91
-1.37804e-91
-2.06467e-92
-2.445e-93
-2.26849e-94
-1.62012e-95
-8.70992e-97
-3.42765e-98
-9.55256e-100
-1.81343e-101
-2.24244e-103
-1.71954e-105
-7.75227e-108
-1.94063e-110
-2.53206e-113
-1.59332e-116
-4.32777e-120
-4.20794e-124
-9.75006e-129
-1.50468e-134
-3.83376e-89
-8.88086e-90
-1.65227e-90
-2.42918e-91
-2.83189e-92
-2.59501e-93
-1.83702e-94
-9.82943e-96
-3.86835e-97
-1.08413e-98
-2.08317e-100
-2.62722e-102
-2.07252e-104
-9.70471e-107
-2.54911e-109
-3.52667e-112
-2.37861e-115
-7.00758e-119
-7.50838e-123
-1.98294e-127
-3.7206e-133
-4.73834e-88
-1.07173e-88
-1.95086e-89
-2.81587e-90
-3.23325e-91
-2.92762e-92
-2.05519e-93
-1.09497e-94
-4.31102e-96
-1.21537e-97
-2.36441e-99
-3.04167e-101
-2.46848e-103
-1.20038e-105
-3.30746e-108
-4.85009e-111
-3.5047e-114
-1.11941e-117
-1.32096e-121
-3.96675e-126
-9.08245e-132
-5.75728e-87
-1.27224e-87
-2.26715e-88
-3.21448e-89
-3.63725e-90
-3.25596e-91
-2.26769e-92
-1.20352e-93
-4.74225e-95
-1.34534e-96
-2.65047e-98
-3.47846e-100
-2.90414e-102
-1.46637e-104
-4.23687e-107
-6.58239e-110
-5.09323e-113
-1.76259e-116
-2.28858e-120
-7.79143e-125
-2.1763e-130
-6.87307e-86
-1.4848e-86
-2.59193e-87
-3.61194e-88
-4.02971e-89
-3.56808e-90
-2.4667e-91
-1.30467e-92
-5.14701e-94
-1.46981e-95
-2.93317e-97
-3.92763e-99
-3.37338e-101
-1.76825e-103
-5.35575e-106
-8.81098e-109
-7.29578e-112
-2.73345e-115
-3.90059e-119
-1.50066e-123
-5.06951e-129
-8.05694e-85
-1.70263e-85
-2.91352e-86
-3.99283e-87
-4.3947e-88
-3.85102e-89
-2.64393e-90
-1.39426e-91
-5.50929e-93
-1.58419e-94
-3.20308e-96
-4.37665e-98
-3.86694e-100
-2.10383e-102
-6.67722e-105
-1.1626e-107
-1.02947e-110
-4.17204e-114
-6.53408e-118
-2.83135e-122
-1.15622e-127
-9.26847e-84
-1.91718e-84
-3.21821e-85
-4.34004e-86
-4.71532e-87
-4.09149e-88
-2.79106e-89
-1.46817e-90
-5.81299e-92
-1.68368e-93
-3.44992e-95
-4.81073e-97
-4.37228e-99
-2.46843e-101
-8.20617e-104
-1.51132e-106
-1.43006e-109
-6.26271e-113
-1.07493e-116
-5.22878e-121
-2.60654e-126
-1.04564e-82
-2.11842e-83
-3.49098e-84
-4.63585e-85
-4.97485e-86
-4.27682e-87
-2.90034e-88
-1.52256e-89
-6.04297e-91
-1.76361e-92
-3.66304e-94
-5.21337e-96
-4.87376e-98
-2.8546e-100
-9.93618e-103
-1.93444e-105
-1.95446e-108
-9.23985e-112
-1.7354e-115
-9.44547e-120
-5.69943e-125
-1.15609e-81
-2.29551e-82
-3.71658e-83
-4.86322e-84
-5.158e-85
-4.39589e-86
-2.96518e-87
-1.5542e-88
-6.18607e-90
-1.81974e-91
-3.83211e-93
-5.56714e-95
-5.35304e-97
-3.25197e-99
-1.18464e-101
-2.43656e-104
-2.62646e-107
-1.33898e-110
-2.74758e-114
-1.66809e-118
-1.2008e-123
-1.25178e-80
-2.43753e-81
-3.88067e-82
-5.00722e-83
-5.25226e-84
-4.44018e-85
-2.98072e-86
-1.5607e-87
-6.23233e-89
-1.84855e-90
-3.94779e-92
-5.85475e-94
-5.78991e-96
-3.64733e-98
-1.38993e-100
-3.0183e-103
-3.46832e-106
-1.90467e-109
-4.26337e-113
-2.87853e-117
-2.44565e-122
-1.32633e-79
-2.53452e-80
-3.97128e-81
-5.05652e-82
-5.24914e-83
-4.40458e-84
-2.94435e-85
-1.54084e-86
-6.17584e-88
-1.84764e-89
-4.00252e-91
-6.06025e-93
-6.16338e-95
-4.02504e-97
-1.60387e-99
-3.67489e-102
-4.4978e-105
-2.6578e-108
-6.47942e-112
-4.85148e-116
-4.83239e-121
-1.37414e-78
-2.57847e-79
-3.98004e-80
-5.00467e-81
-5.14524e-82
-4.2881e-83
-2.8561e-84
-1.49463e-85
-6.0156e-87
-1.8159e-88
-3.99122e-90
-6.17032e-92
-6.45315e-94
-4.36778e-96
-1.81907e-98
-4.3949e-101
-5.72452e-104
-3.63584e-107
-9.63902e-111
-7.98229e-115
-9.22636e-120
-1.39101e-77
-2.56435e-78
-3.90326e-79
-4.85102e-80
-4.94284e-81
-4.09422e-82
-2.71874e-83
-1.4235e-84
-5.75581e-86
-1.75376e-87
-3.91189e-89
-6.17554e-91
-6.64118e-93
-4.65759e-95
-2.0265e-97
-5.15932e-100
-7.1458e-103
-4.87291e-106
-1.40274e-109
-1.28153e-113
-1.7042e-118
-1.37485e-76
-2.49094e-77
-3.74269e-78
-4.6012e-79
-4.65007e-80
-3.83082e-81
-2.53776e-82
-1.33019e-83
-5.40593e-85
-1.6632e-86
-3.76592e-88
-6.07144e-90
-6.71335e-92
-4.87724e-94
-2.21596e-96
-5.94125e-99
-8.7426e-102
-6.39413e-105
-1.99568e-108
-2.00662e-112
-3.0478e-117
-1.32252e-75
-2.36133e-76
-3.50565e-77
-4.2669e-78
-4.28046e-79
-3.50975e-80
-2.32102e-81
-1.21861e-82
-4.98014e-84
-1.54772e-85
-3.55828e-87
-5.85922e-89
-6.66097e-91
-5.01169e-93
-2.37675e-95
-6.70649e-98
-1.04762e-100
-8.20892e-104
-2.77393e-107
-3.06277e-111
-5.28009e-116
-1.2403e-74
-2.18305e-75
-3.20464e-76
-3.86506e-77
-3.85197e-78
-3.14592e-79
-2.07821e-80
-1.09359e-81
-4.49647e-83
-1.41211e-84
-3.29726e-86
-5.54603e-88
-6.48198e-90
-5.04965e-92
-2.49853e-94
-7.41518e-97
-1.22863e-99
-1.03036e-102
-3.76442e-106
-4.55448e-110
-8.86348e-115
-1.13275e-73
-1.96686e-74
-2.85622e-75
-3.41646e-76
-3.38553e-77
-2.75618e-78
-1.8201e-79
-9.60526e-81
-3.97548e-82
-1.26215e-83
-2.99399e-85
-5.14474e-87
-6.18153e-89
-4.98491e-91
-2.57229e-93
-8.02449e-96
-1.40915e-98
-1.26349e-101
-4.98417e-105
-6.59453e-109
-1.44178e-113
-1.72471e-73
-2.47942e-74
-2.94387e-75
-2.90322e-76
-2.35794e-77
-1.55769e-78
-8.24938e-80
-3.43874e-81
-1.10415e-82
-2.66165e-84
-4.67312e-86
-5.77206e-88
-4.81729e-90
-2.59136e-92
-8.49229e-95
-1.57929e-97
-1.51247e-100
-6.43365e-104
-9.29125e-108
-2.27241e-112
-1.47079e-72
-2.09389e-73
-2.46999e-74
-2.42648e-75
-1.96773e-76
-1.30138e-77
-6.92089e-79
-2.90726e-80
-9.44521e-82
-2.31446e-83
-4.15252e-85
-5.27251e-87
-4.55313e-89
-2.55227e-91
-8.78148e-94
-1.7281e-96
-1.76595e-99
-8.0901e-103
-1.27296e-106
-3.46947e-111
-1.71699e-72
-2.01552e-73
-1.97432e-74
-1.60002e-75
-1.06023e-76
-5.66596e-78
-2.39989e-79
-7.89259e-81
-1.96658e-82
-3.60623e-84
-4.70693e-86
-4.20502e-88
-2.45532e-90
-8.86439e-93
-1.84454e-95
-2.00942e-98
-9.90197e-102
-1.69467e-105
-5.1295e-110
-1.36595e-71
-1.59753e-72
-1.56195e-73
-1.26617e-74
-8.41315e-76
-4.52133e-77
-1.93217e-78
-6.43553e-80
-1.6311e-81
-3.0576e-83
-4.1025e-85
-3.79088e-87
-2.30487e-89
-8.72668e-92
-1.91871e-94
-2.22621e-97
-1.17864e-100
-2.19051e-104
-7.34026e-109
-1.0529e-70
-1.22827e-71
-1.19993e-72
-9.73897e-74
-6.49453e-75
-3.5125e-76
-1.51543e-77
-5.11455e-79
-1.31907e-80
-2.52822e-82
-3.48721e-84
-3.33245e-86
-2.10906e-88
-8.36996e-91
-1.94311e-93
-2.39904e-96
-1.3631e-99
-2.74676e-103
-1.01607e-107
-7.85187e-70
-9.14709e-71
-8.93853e-72
-7.27104e-73
-4.8707e-74
-2.65318e-75
-1.15643e-76
-3.95691e-78
-1.03884e-79
-2.03631e-81
-2.88752e-83
-2.8533e-85
-1.87911e-87
-7.81267e-90
-1.91377e-92
-2.51211e-95
-1.53013e-98
-3.33822e-102
-1.35959e-106
-5.6556e-69
-6.58779e-70
-6.44687e-71
-5.2615e-72
-3.54386e-73
-1.94589e-74
-8.5745e-76
-2.9762e-77
-7.95734e-79
-1.5956e-80
-2.32625e-82
-2.37667e-84
-1.62826e-86
-7.08888e-89
-1.83105e-91
-2.55325e-94
-1.66542e-97
-3.92823e-101
-1.75723e-105
-3.92779e-68
-4.58076e-69
-4.49473e-70
-3.68447e-71
-2.49772e-72
-1.38367e-73
-6.16859e-75
-2.17328e-76
-5.92014e-78
-1.2147e-79
-1.82096e-81
-1.9234e-83
-1.37044e-85
-6.24487e-88
-1.69983e-90
-2.5159e-93
-1.75561e-96
-4.47101e-100
-2.19177e-104
-2.62527e-67
-3.06976e-68
-3.02404e-69
-2.49273e-70
-1.70254e-71
-9.52415e-73
-4.29914e-74
-1.53839e-75
-4.27174e-77
-8.97142e-79
-1.3831e-80
-1.51027e-82
-1.11886e-84
-5.33418e-87
-1.52915e-89
-2.40048e-92
-1.79024e-95
-4.91635e-99
-2.63562e-103
-1.6854e-66
-1.97895e-67
-1.95986e-68
-1.62649e-69
-1.12045e-70
-6.33543e-72
-2.89793e-73
-1.05395e-74
-2.98472e-76
-6.4185e-78
-1.01779e-79
-1.14892e-81
-8.84818e-84
-4.41168e-86
-1.3312e-88
-2.21476e-91
-1.76366e-94
-5.21642e-98
-3.05224e-102
-1.03718e-65
-1.22492e-66
-1.22132e-67
-1.02173e-68
-7.10673e-70
-4.06557e-71
-1.88604e-72
-6.97641e-74
-2.01606e-75
-4.44092e-77
-7.24471e-79
-8.45453e-81
-6.76746e-83
-3.52762e-85
-1.11981e-87
-1.97316e-90
-1.67625e-93
-5.33355e-97
-3.40001e-101
-6.10647e-65
-7.26714e-66
-7.30579e-67
-6.16863e-68
-4.33678e-69
-2.51238e-70
-1.183e-71
-4.45371e-73
-1.3141e-74
-2.96632e-76
-4.97961e-78
-6.00796e-80
-4.99779e-82
-2.72272e-84
-9.08823e-87
-1.69488e-89
-1.53473e-92
-5.24749e-96
-3.63821e-100
-3.43429e-64
-4.12741e-65
-4.19023e-66
-3.57475e-67
-2.54234e-68
-1.49259e-69
-7.13854e-71
-2.73703e-72
-8.25008e-74
-1.90922e-75
-3.29898e-77
-4.11544e-79
-3.55749e-81
-2.02498e-83
-7.10413e-86
-1.40133e-88
-1.35145e-91
-4.96027e-95
-3.73434e-99
-1.84443e-63
-2.24481e-64
-2.30495e-65
-1.98812e-66
-1.43073e-67
-8.51432e-69
-4.13742e-70
-1.61627e-71
-4.97917e-73
-1.18176e-74
-2.10244e-76
-2.71217e-78
-2.43612e-80
-1.44852e-82
-5.33891e-85
-1.11327e-87
-1.14259e-90
-4.49728e-94
-3.67089e-98
-9.48646e-63
-1.17394e-63
-1.22078e-64
-1.06413e-65
-7.73995e-67
-4.6639e-68
-2.30123e-69
-9.15733e-71
-2.88349e-72
-7.02049e-74
-1.28625e-75
-1.71605e-77
-1.60161e-79
-9.94599e-82
-3.84993e-84
-8.4817e-87
-9.25751e-90
-3.90385e-93
-3.44994e-97
-4.72131e-62
-5.9793e-63
-6.30248e-64
-5.53547e-65
-4.0513e-66
-2.46165e-67
-1.22959e-68
-4.97539e-70
-1.60003e-71
-3.99525e-73
-7.53819e-75
-1.04018e-76
-1.00871e-78
-6.54111e-81
-2.65823e-83
-6.18429e-86
-7.17344e-89
-3.23803e-92
-3.09394e-96
-2.33368e-61
-3.05771e-62
-3.26608e-63
-2.86811e-64
-2.08901e-65
-1.26624e-66
-6.34925e-68
-2.59803e-69
-8.5064e-71
-2.17508e-72
-4.22377e-74
-6.02673e-76
-6.07184e-78
-4.11081e-80
-1.75337e-82
-4.30568e-85
-5.30437e-88
-2.5608e-91
-2.64224e-95
-1.20509e-60
-1.65933e-61
-1.79376e-62
-1.5542e-63
-1.10382e-64
-6.52806e-66
-3.2234e-67
-1.31545e-68
-4.34767e-70
-1.13316e-71
-2.25973e-73
-3.33088e-75
-3.48493e-77
-2.46265e-79
-1.1021e-81
-2.85546e-84
-3.73396e-87
-1.92644e-90
-2.1439e-94
-6.93952e-60
-1.01852e-60
-1.11388e-61
-9.41358e-63
-6.37084e-64
-3.56017e-65
-1.67277e-66
-6.61307e-68
-2.16213e-69
-5.67574e-71
-1.1551e-72
-1.75377e-74
-1.903e-76
-1.40274e-78
-6.58399e-81
-1.79903e-83
-2.49571e-86
-1.37501e-89
-1.64863e-93
-4.59539e-59
-7.21286e-60
-8.00894e-61
-6.62359e-62
-4.2516e-63
-2.1993e-64
-9.47242e-66
-3.46883e-67
-1.07857e-68
-2.77519e-70
-5.67472e-72
-8.80505e-74
-9.8732e-76
-7.5793e-78
-3.72808e-80
-1.07372e-82
-1.57929e-85
-9.28521e-89
-1.19818e-92
-3.36368e-58
-5.62524e-59
-6.38402e-60
-5.25295e-61
-3.26546e-62
-1.5863e-63
-6.22321e-65
-2.03985e-66
-5.72671e-68
-1.37479e-69
-2.72914e-71
-4.24484e-73
-4.87247e-75
-3.8789e-77
-1.99567e-79
-6.05253e-82
-9.43253e-85
-5.9138e-88
-8.20497e-92
-2.53157e-57
-4.52276e-58
-5.2796e-59
-4.39113e-60
-2.71376e-61
-1.28155e-62
-4.73549e-64
-1.40768e-65
-3.48227e-67
-7.38155e-69
-1.34204e-70
-2.00748e-72
-2.30536e-74
-1.88255e-76
-1.00825e-78
-3.21319e-81
-5.2999e-84
-3.54041e-87
-5.27608e-91
-1.85184e-56
-3.59096e-57
-4.3291e-58
-3.66968e-59
-2.29166e-60
-1.08116e-61
-3.91597e-63
-1.106e-64
-2.48915e-66
-4.60976e-68
-7.26603e-70
-9.78465e-72
-1.07122e-73
-8.7394e-76
-4.81315e-78
-1.60335e-80
-2.79247e-83
-1.98506e-86
-3.17395e-90
-1.28956e-55
-2.77994e-56
-3.45967e-57
-2.98888e-58
-1.89596e-59
-9.05227e-61
-3.29257e-62
-9.19207e-64
-1.98539e-65
-3.36839e-67
-4.623e-69
-5.31964e-71
-5.16288e-73
-3.98443e-75
-2.19087e-77
-7.52707e-80
-1.37644e-82
-1.0386e-85
-1.77903e-89
-8.5967e-55
-2.12569e-55
-2.71261e-56
-2.36486e-57
-1.51665e-58
-7.33997e-60
-2.70549e-61
-7.61725e-63
-1.63801e-64
-2.69245e-66
-3.41331e-68
-3.41964e-70
-2.8042e-72
-1.89286e-74
-9.78108e-77
-3.35553e-79
-6.35071e-82
-5.05606e-85
-9.25256e-89
-4.6979e-54
-1.64226e-54
-2.14447e-55
-1.84642e-56
-1.17763e-57
-5.7282e-59
-2.13646e-60
-6.10126e-62
-1.32753e-63
-2.18533e-65
-2.70652e-67
-2.52536e-69
-1.80614e-71
-1.02111e-73
-4.56204e-76
-1.46313e-78
-2.76796e-81
-2.29014e-84
-4.44891e-88
-2.20618e-78
-1.27469e-53
-1.77201e-54
-1.47051e-55
-9.05301e-57
-4.33524e-58
-1.61779e-59
-4.66775e-61
-1.03077e-62
-1.7213e-64
-2.14525e-66
-1.96944e-68
-1.32189e-70
-6.53466e-73
-2.42826e-75
-6.66793e-78
-1.17478e-80
-9.73542e-84
-1.97599e-87
-2.2344e-75
-8.77557e-53
-1.53853e-53
-1.23841e-54
-7.1281e-56
-3.25007e-57
-1.18568e-58
-3.41057e-60
-7.5988e-62
-1.28834e-63
-1.63218e-65
-1.51387e-67
-1.00584e-69
-4.69837e-72
-1.53078e-74
-3.47609e-77
-5.20083e-80
-4.00437e-83
-8.1692e-87
0
-1.48749e-52
-1.29548e-52
-1.10245e-53
-5.93218e-55
-2.4925e-56
-8.58988e-58
-2.40346e-59
-5.3227e-61
-9.09358e-63
-1.16998e-64
-1.10501e-66
-7.44278e-69
-3.45942e-71
-1.07142e-73
-2.13851e-76
-2.63258e-79
-1.70964e-82
-3.23837e-86
-3.52935e-58
-1.11218e-74
-8.27726e-52
-9.63649e-53
-5.17814e-54
-2.00553e-55
-6.33238e-57
-1.66605e-58
-3.57504e-60
-6.05538e-62
-7.84191e-64
-7.52376e-66
-5.16848e-68
-2.44269e-70
-7.5623e-73
-1.44226e-75
-1.56359e-78
-8.3142e-82
-1.32067e-85
4.49376e-52
-2.0656e-59
-2.78046e-75
-6.96033e-52
-4.39866e-53
-1.66731e-54
-4.83791e-56
-1.164e-57
-2.3411e-59
-3.82979e-61
-4.90676e-63
-4.73499e-65
-3.30582e-67
-1.59607e-69
-5.03852e-72
-9.64472e-75
-1.00348e-77
-4.70367e-81
-6.08223e-85
5.4491e-50
-3.24775e-57
-2.3884e-65
-2.17117e-51
-3.11081e-52
-1.32252e-53
-3.74042e-55
-8.27304e-57
-1.51979e-58
-2.32444e-60
-2.86984e-62
-2.73671e-64
-1.92184e-66
-9.44003e-69
-3.05023e-71
-5.97068e-74
-6.25823e-77
-2.82486e-80
-3.21609e-84
3.93839e-48
1.4153e-50
-7.54462e-58
-4.78097e-58
-1.12688e-51
-8.49525e-53
-2.67698e-54
-5.76273e-56
-9.722e-58
-1.35666e-59
-1.56483e-61
-1.43815e-63
-9.99018e-66
-4.94419e-68
-1.62892e-70
-3.27232e-73
-3.51838e-76
-1.60523e-79
-1.76242e-83
2.86447e-46
1.09893e-48
3.62774e-51
-2.3902e-58
-1.02394e-81
-2.58278e-52
-1.46612e-53
-3.49918e-55
-5.72483e-57
-7.33452e-59
-7.73807e-61
-6.67295e-63
-4.49081e-65
-2.21027e-67
-7.37371e-70
-1.51725e-72
-1.68109e-75
-7.89607e-79
-8.78024e-83
2.09732e-44
8.59644e-47
3.05112e-49
9.36018e-52
0
-3.97912e-59
-2.5154e-53
-1.34448e-54
-2.51103e-56
-3.17235e-58
-3.11359e-60
-2.49111e-62
-1.59837e-64
-7.74494e-67
-2.60692e-69
-5.49676e-72
-6.29627e-75
-3.06835e-78
-3.52491e-82
-1.09504e-53
1.17574e-41
5.74061e-44
3.04176e-49
9.36018e-52
-3.59871e-60
-4.76222e-68
-5.0115e-62
-2.1335e-56
-6.23097e-58
-6.94757e-60
-5.47406e-62
-3.40703e-64
-1.65127e-66
-5.73808e-69
-1.27106e-71
-1.53833e-74
-7.91597e-78
-9.5463e-82
-4.431e-46
2.49222e-40
4.4663e-42
-2.62609e-56
-6.81234e-59
-2.77908e-58
-2.89324e-62
-1.13888e-71
-2.54202e-63
-1.32583e-81
-5.45979e-40
-2.22271e-41
-5.33887e-43
-9.6691e-45
-1.45541e-46
-1.93065e-48
-2.33108e-50
-1.00762e-124
-5.74562e-125
-2.49641e-125
-7.68037e-126
-1.69294e-126
-2.65039e-127
-2.87009e-128
-2.07211e-129
-9.51094e-131
-2.61889e-132
-4.03783e-134
-3.22818e-136
-1.24478e-138
-2.21706e-141
-1.85247e-144
-7.77296e-148
-1.76573e-151
-2.28784e-155
-1.71702e-159
-7.03243e-164
-1.12943e-168
-1.76421e-123
-9.7237e-124
-4.08855e-124
-1.22231e-124
-2.62736e-125
-4.02465e-126
-4.27978e-127
-3.04652e-128
-1.38516e-129
-3.79867e-131
-5.86996e-133
-4.73674e-135
-1.85623e-137
-3.37389e-140
-2.87122e-143
-1.21791e-146
-2.77241e-150
-3.57368e-154
-2.65568e-158
-1.07513e-162
-1.72011e-167
-3.06288e-122
-1.63214e-122
-6.64282e-123
-1.93019e-123
-4.04676e-124
-6.06673e-125
-6.33659e-126
-4.44845e-127
-2.00404e-128
-5.47528e-130
-8.48271e-132
-6.91195e-134
-2.75433e-136
-5.11273e-139
-4.43463e-142
-1.9009e-145
-4.32396e-149
-5.50754e-153
-3.99986e-157
-1.56384e-161
-2.40346e-166
-5.27185e-121
-2.71675e-121
-1.07054e-121
-3.02398e-122
-6.18517e-123
-9.07682e-124
-9.31414e-125
-6.45023e-126
-2.88e-127
-7.8414e-129
-1.21844e-130
-1.00297e-132
-4.06661e-135
-7.7161e-138
-6.82893e-141
-2.95954e-144
-6.71776e-148
-8.41771e-152
-5.92215e-156
-2.20035e-160
-3.11382e-165
-8.99455e-120
-4.48372e-120
-1.71104e-120
-4.69958e-121
-9.37979e-122
-1.34775e-122
-1.35903e-123
-9.28648e-125
-4.11062e-126
-1.1157e-127
-1.73939e-129
-1.44708e-131
-5.97367e-134
-1.15972e-136
-1.04864e-139
-4.59919e-143
-1.04102e-146
-1.27881e-150
-8.65308e-155
-3.01905e-159
-3.82516e-164
-1.52091e-118
-7.33587e-119
-2.71179e-119
-7.24397e-120
-1.41114e-120
-1.98574e-121
-1.96816e-122
-1.32735e-123
-5.82644e-125
-1.57695e-126
-2.46757e-128
-2.07578e-130
-8.73012e-133
-1.73594e-135
-1.60622e-138
-7.14011e-142
-1.61192e-145
-1.93653e-149
-1.25285e-153
-4.06446e-158
-4.61624e-163
-2.54837e-117
-1.18964e-117
-4.26109e-118
-1.10731e-118
-2.10583e-119
-2.90278e-120
-2.82865e-121
-1.8833e-122
-8.20024e-124
-2.21389e-125
-3.47838e-127
-2.96015e-129
-1.26922e-131
-2.58782e-134
-2.4546e-137
-1.10827e-140
-2.49853e-144
-2.93285e-148
-1.80705e-152
-5.4117e-157
-5.46194e-162
-4.23033e-116
-1.91183e-116
-6.63717e-117
-1.67828e-117
-3.11663e-118
-4.20943e-119
-4.03391e-120
-2.65217e-121
-1.14584e-122
-3.08683e-124
-4.87155e-126
-4.19602e-128
-1.83546e-130
-3.84168e-133
-3.74264e-136
-1.72072e-139
-3.88198e-143
-4.45313e-147
-2.60601e-151
-7.16105e-156
-6.36064e-161
-6.95596e-115
-3.04423e-115
-1.02464e-115
-2.52172e-116
-4.57394e-117
-6.0546e-118
-5.70743e-119
-3.70656e-120
-1.58942e-121
-4.27396e-123
-6.77779e-125
-5.91155e-127
-2.63992e-129
-5.67867e-132
-5.6936e-135
-2.67335e-138
-6.05283e-142
-6.79461e-146
-3.7708e-150
-9.45795e-155
-7.31164e-160
-1.13273e-113
-4.80193e-114
-1.56749e-114
-3.75571e-115
-6.65535e-116
-8.63645e-117
-8.01047e-118
-5.14004e-119
-2.18833e-120
-5.87564e-122
-9.36664e-124
-8.27655e-126
-3.77586e-128
-8.3569e-131
-8.641e-134
-4.15682e-137
-9.48017e-141
-1.04409e-144
-5.49396e-149
-1.25244e-153
-8.34106e-159
-1.82642e-112
-7.50199e-113
-2.37578e-113
-5.5434e-114
-9.59961e-115
-1.22153e-115
-1.1151e-116
-7.07174e-118
-2.99009e-119
-8.01909e-121
-1.28557e-122
-1.15138e-124
-5.3697e-127
-1.22416e-129
-1.30805e-132
-6.46884e-136
-1.4925e-139
-1.61882e-143
-8.08627e-148
-1.66952e-152
-9.46465e-158
-2.91532e-111
-1.16057e-111
-3.56691e-112
-8.10719e-113
-1.37235e-113
-1.71285e-114
-1.53936e-115
-9.65127e-117
-4.05407e-118
-1.08638e-119
-1.75209e-121
-1.59127e-123
-7.59135e-126
-1.78455e-128
-1.97452e-131
-1.00735e-134
-2.36273e-138
-2.53644e-142
-1.20603e-146
-2.24894e-151
-1.0691e-156
-4.60568e-110
-1.77752e-110
-5.30366e-111
-1.17461e-111
-1.94414e-112
-2.38072e-113
-2.10701e-114
-1.30639e-115
-5.4534e-117
-1.46067e-118
-2.37087e-120
-2.18451e-122
-1.0667e-124
-2.5883e-127
-2.97116e-130
-1.56922e-133
-3.76138e-137
-4.02096e-141
-1.82796e-145
-3.07321e-150
-1.20115e-155
-7.19995e-109
-2.69466e-109
-7.80852e-110
-1.68563e-110
-2.72874e-111
-3.2794e-112
-2.85902e-113
-1.75356e-114
-7.27685e-116
-1.94885e-117
-3.18474e-119
-2.97834e-121
-1.48945e-123
-3.73405e-126
-4.45514e-129
-2.44419e-132
-6.02027e-136
-6.45418e-140
-2.82291e-144
-4.27702e-149
-1.33763e-154
-1.11352e-107
-4.0425e-108
-1.13809e-108
-2.39545e-109
-3.79388e-110
-4.47608e-111
-3.84519e-112
-2.33374e-113
-9.63046e-115
-2.57977e-116
-4.24603e-118
-4.03203e-120
-2.06626e-122
-5.35672e-125
-6.65396e-128
-3.8044e-131
-9.68266e-135
-1.04924e-138
-4.45145e-143
-6.08719e-148
-1.46475e-153
-1.70333e-106
-5.99998e-107
-1.64176e-107
-3.37037e-108
-5.22403e-109
-6.05251e-110
-5.12492e-111
-3.07889e-112
-1.26387e-113
-3.38757e-115
-5.61769e-117
-5.419e-119
-2.84716e-121
-7.63902e-124
-9.89437e-127
-5.91351e-130
-1.56368e-133
-1.72709e-137
-7.17962e-142
-8.89892e-147
-1.59003e-152
-2.57651e-105
-8.80853e-106
-2.34347e-106
-4.69397e-107
-7.12259e-108
-8.10625e-109
-6.76772e-110
-4.0259e-111
-1.6445e-112
-4.41185e-114
-7.37425e-116
-7.2289e-118
-3.89588e-120
-1.08257e-122
-1.46411e-125
-9.17256e-129
-2.53307e-132
-2.87631e-136
-1.18552e-140
-1.34266e-145
-1.70395e-151
-3.85292e-104
-1.27881e-104
-3.30925e-105
-6.46957e-106
-9.61361e-107
-1.07513e-107
-8.85314e-109
-5.21645e-110
-2.12107e-111
-5.69764e-113
-9.60231e-115
-9.5695e-117
-5.29244e-119
-1.5241e-121
-2.15489e-124
-1.41866e-127
-4.11137e-131
-4.84052e-135
-2.00428e-139
-2.10114e-144
-2.00362e-150
-5.6946e-103
-1.83547e-103
-4.62178e-104
-8.82226e-105
-1.28426e-105
-1.41178e-106
-1.14699e-107
-6.69642e-109
-2.71131e-110
-7.295e-112
-1.24006e-113
-1.25682e-115
-7.13587e-118
-2.13088e-120
-3.15295e-123
-2.18604e-126
-6.67751e-130
-8.21796e-134
-3.46623e-138
-3.42668e-143
-2.5995e-149
-8.31645e-102
-2.60386e-102
-6.38247e-103
-1.19e-103
-1.6976e-104
-1.835e-105
-1.47142e-106
-8.51477e-108
-3.43414e-109
-9.25806e-111
-1.5879e-112
-1.63726e-114
-9.54685e-117
-2.95757e-119
-4.58383e-122
-3.35326e-125
-1.0838e-128
-1.40474e-132
-6.12044e-137
-5.84583e-142
-4.04138e-148
-1.19976e-100
-3.65008e-101
-8.7127e-102
-1.58732e-102
-2.21985e-103
-2.3603e-104
-1.86864e-105
-1.07219e-106
-4.30898e-108
-1.16435e-109
-2.01567e-111
-2.11505e-113
-1.26698e-115
-4.07368e-118
-6.61812e-121
-5.11627e-124
-1.7555e-127
-2.41241e-131
-1.10034e-135
-1.0449e-140
-7.0303e-147
-1.70925e-99
-5.0545e-100
-1.17538e-100
-2.09321e-101
-2.87084e-102
-3.00366e-103
-2.34869e-104
-1.33669e-105
-5.35488e-107
-1.45082e-108
-2.53587e-110
-2.70873e-112
-1.66744e-114
-5.56616e-117
-9.48446e-120
-7.75829e-123
-2.8339e-126
-4.15284e-130
-2.00721e-134
-1.95395e-139
-1.31749e-145
-2.40402e-98
-6.9123e-99
-1.56655e-99
-2.72819e-100
-3.67091e-101
-3.78074e-102
-2.92097e-103
-1.6495e-104
-6.58928e-106
-1.79064e-107
-3.16107e-109
-3.43825e-111
-2.17554e-113
-7.54184e-116
-1.34847e-118
-1.16833e-121
-4.55341e-125
-7.15001e-129
-3.70089e-133
-3.80382e-138
-2.65516e-144
-3.33698e-97
-9.3326e-98
-2.06213e-98
-3.51334e-99
-4.63973e-100
-4.7057e-101
-3.59348e-102
-2.01428e-103
-8.02656e-105
-2.18853e-106
-3.90327e-108
-4.32426e-110
-2.81307e-112
-1.01295e-114
-1.90107e-117
-1.74594e-120
-7.27314e-124
-1.22856e-127