/*--------------------------------*- C++ -*----------------------------------*\
| =========                 |                                                 |
| \\      /  F ield         | OpenFOAM: The Open Source CFD Toolbox           |
|  \\    /   O peration     | Version:  v2012                                 |
|   \\  /    A nd           | Website:  www.openfoam.com                      |
|    \\/     M anipulation  |                                                 |
\*---------------------------------------------------------------------------*/
FoamFile
{
    version     2.0;
    format      ascii;
    class       surfaceScalarField;
    location    "0.5";
    object      phi;
}
// * * * * * * * * * * * * * * * * * * * * * * * * * * * * * * * * * * * * * //

dimensions      [0 3 -1 0 0 0 0];
oriented        oriented;


internalField   nonuniform List<scalar> 
8135
(
3.10911e-11
-2.09423e-09
-1.96833e-17
3.26346e-11
-2.23883e-09
-1.79701e-17
3.4005e-11
-2.38445e-09
-1.80779e-17
3.51555e-11
-2.53074e-09
-1.82015e-17
3.60383e-11
-2.67469e-09
-1.79545e-17
3.66051e-11
-2.81364e-09
-1.65415e-17
3.68093e-11
-2.94632e-09
-1.23703e-17
3.6609e-11
-3.0663e-09
-6.66503e-18
3.5968e-11
-3.17072e-09
3.7015e-19
3.48604e-11
-3.25266e-09
1.41512e-18
3.32725e-11
-3.30554e-09
2.69555e-18
3.12041e-11
-3.32186e-09
3.88296e-18
2.86716e-11
-3.29032e-09
3.24362e-18
2.5705e-11
-3.20078e-09
3.90287e-18
2.23456e-11
-3.04164e-09
2.82597e-18
1.86458e-11
-2.80046e-09
2.50926e-18
1.46835e-11
-2.46648e-09
8.09031e-19
1.06158e-11
-2.03119e-09
1.544e-19
6.83687e-12
-1.48485e-09
-6.76855e-19
3.45361e-12
-8.19338e-10
-4.56234e-19
-9.81238e-11
-1.3583e-22
3.12334e-11
-2.0959e-09
-2.23176e-17
3.27772e-11
-2.24037e-09
-2.13801e-17
3.41463e-11
-2.38582e-09
-2.3169e-17
3.52937e-11
-2.53189e-09
-2.46176e-17
3.61715e-11
-2.67557e-09
-2.47375e-17
3.67313e-11
-2.8142e-09
-2.17437e-17
3.69261e-11
-2.94651e-09
-1.28141e-17
3.67142e-11
-3.06609e-09
-3.0254e-20
3.6059e-11
-3.17006e-09
-5.90187e-18
3.49349e-11
-3.25153e-09
-8.26509e-18
3.33286e-11
-3.30393e-09
-9.86513e-18
3.124e-11
-3.31977e-09
-1.11321e-17
2.86865e-11
-3.28777e-09
-1.25235e-17
2.56987e-11
-3.19779e-09
-1.27529e-17
2.23189e-11
-3.03825e-09
-1.4037e-17
1.86005e-11
-2.79674e-09
-1.41944e-17
1.46204e-11
-2.4625e-09
-1.53574e-17
1.05321e-11
-2.0271e-09
-1.53077e-17
6.72816e-12
-1.48104e-09
-1.62655e-17
3.37349e-12
-8.15974e-10
-1.65366e-17
-9.47451e-11
-1.65467e-17
3.15214e-11
-2.09759e-09
-9.4971e-18
3.30726e-11
-2.24193e-09
-1.33623e-17
3.44455e-11
-2.38719e-09
-1.85239e-17
3.55928e-11
-2.53304e-09
-2.33586e-17
3.64658e-11
-2.67644e-09
-2.49363e-17
3.70158e-11
-2.81475e-09
-2.15692e-17
3.71955e-11
-2.9467e-09
-7.53524e-18
3.6963e-11
-3.06586e-09
2.326e-18
3.62813e-11
-3.16938e-09
-1.52213e-17
3.5125e-11
-3.25038e-09
-2.20558e-17
3.34811e-11
-3.30229e-09
-2.19811e-17
3.13502e-11
-3.31764e-09
-2.24372e-17
2.87506e-11
-3.28517e-09
-2.32125e-17
2.57149e-11
-3.19475e-09
-2.30788e-17
2.22879e-11
-3.03483e-09
-2.53061e-17
1.85258e-11
-2.79298e-09
-2.57273e-17
1.45079e-11
-2.45848e-09
-2.85721e-17
1.03814e-11
-2.02297e-09
-2.91712e-17
6.50419e-12
-1.47716e-09
-3.28918e-17
3.07026e-12
-8.12541e-10
-3.46445e-17
-9.16746e-11
-3.51936e-17
3.1956e-11
-2.09929e-09
5.83385e-18
3.35209e-11
-2.24349e-09
-1.50586e-18
3.49024e-11
-2.38857e-09
-1.03146e-17
3.60524e-11
-2.53419e-09
-1.79258e-17
3.69214e-11
-2.67731e-09
-2.16286e-17
3.746e-11
-2.81529e-09
-1.82249e-17
3.76204e-11
-2.94686e-09
-2.33777e-18
3.736e-11
-3.0656e-09
8.45498e-18
3.66416e-11
-3.16867e-09
-2.99803e-17
3.54398e-11
-3.24918e-09
-4.03768e-17
3.3742e-11
-3.3006e-09
-4.29417e-17
3.15495e-11
-3.31545e-09
-4.57674e-17
2.88821e-11
-3.2825e-09
-4.79548e-17
2.57749e-11
-3.19165e-09
-4.84101e-17
2.22761e-11
-3.03133e-09
-5.06682e-17
1.84472e-11
-2.78915e-09
-5.04375e-17
1.43719e-11
-2.45441e-09
-5.29067e-17
1.01935e-11
-2.0188e-09
-5.26917e-17
6.2347e-12
-1.47321e-09
-5.70448e-17
2.75971e-12
-8.09074e-10
-5.86682e-17
-8.89236e-11
-6.04186e-17
3.25353e-11
-2.10102e-09
1.28525e-17
3.41201e-11
-2.24508e-09
3.6891e-18
3.5515e-11
-2.38997e-09
-7.35767e-18
3.66706e-11
-2.53535e-09
-1.73047e-17
3.75366e-11
-2.67818e-09
-2.21738e-17
3.80624e-11
-2.81582e-09
-1.89528e-17
3.81996e-11
-2.94699e-09
-4.17693e-19
3.79047e-11
-3.0653e-09
5.85764e-18
3.71402e-11
-3.1679e-09
-3.91e-17
3.58806e-11
-3.24792e-09
-5.18583e-17
3.41137e-11
-3.29883e-09
-5.28862e-17
3.18418e-11
-3.31318e-09
-5.51103e-17
2.90866e-11
-3.27975e-09
-5.7268e-17
2.58861e-11
-3.18845e-09
-5.75092e-17
2.22931e-11
-3.02774e-09
-6.07596e-17
1.83757e-11
-2.78524e-09
-6.06438e-17
1.42248e-11
-2.45026e-09
-6.46752e-17
9.98553e-12
-2.01456e-09
-6.47411e-17
5.95771e-12
-1.46918e-09
-7.11503e-17
2.49117e-12
-8.05608e-10
-7.32544e-17
-8.64333e-11
-7.50984e-17
3.32602e-11
-2.10278e-09
1.07414e-17
3.4871e-11
-2.24669e-09
1.45847e-18
3.62839e-11
-2.39138e-09
-1.16041e-17
3.74482e-11
-2.53651e-09
-2.28559e-17
3.83123e-11
-2.67904e-09
-2.87645e-17
3.88243e-11
-2.81633e-09
-2.53261e-17
3.89346e-11
-2.94711e-09
-5.63469e-18
3.85991e-11
-3.06497e-09
4.21604e-18
3.77796e-11
-3.16708e-09
-4.87259e-17
3.64507e-11
-3.24659e-09
-6.25234e-17
3.46005e-11
-3.29698e-09
-6.5681e-17
3.22325e-11
-3.31082e-09
-7.01196e-17
2.93706e-11
-3.27689e-09
-7.36333e-17
2.60563e-11
-3.18514e-09
-7.47061e-17
2.2348e-11
-3.02403e-09
-7.82394e-17
1.83219e-11
-2.78121e-09
-7.79261e-17
1.40785e-11
-2.44602e-09
-8.18871e-17
9.77035e-12
-2.01025e-09
-8.13775e-17
5.68814e-12
-1.4651e-09
-8.80749e-17
2.24929e-12
-8.02172e-10
-8.96114e-17
-8.41868e-11
-9.26154e-17
3.41318e-11
-2.10458e-09
5.30226e-18
3.57745e-11
-2.24833e-09
-4.56706e-18
3.72101e-11
-2.39282e-09
-1.93442e-17
3.83862e-11
-2.53769e-09
-3.20636e-17
3.92494e-11
-2.67991e-09
-3.87063e-17
3.97466e-11
-2.81683e-09
-3.56876e-17
3.98268e-11
-2.94719e-09
-1.44489e-17
3.9445e-11
-3.06459e-09
-6.3573e-18
3.85622e-11
-3.1662e-09
-5.63545e-17
3.71529e-11
-3.24518e-09
-7.05465e-17
3.52058e-11
-3.29503e-09
-7.21546e-17
3.27259e-11
-3.30834e-09
-7.55498e-17
2.97395e-11
-3.2739e-09
-7.86662e-17
2.62923e-11
-3.18169e-09
-7.9128e-17
2.24493e-11
-3.02019e-09
-8.33882e-17
1.82958e-11
-2.77706e-09
-8.30842e-17
1.39442e-11
-2.44167e-09
-8.85436e-17
9.55962e-12
-2.00587e-09
-8.82848e-17
5.43433e-12
-1.46098e-09
-9.66409e-17
2.03502e-12
-7.98774e-10
-9.82548e-17
-8.21534e-11
-1.01142e-16
3.51513e-11
-2.10643e-09
-5.36012e-20
3.6832e-11
-2.25001e-09
-1.05029e-17
3.82948e-11
-2.39428e-09
-2.74213e-17
3.94855e-11
-2.53888e-09
-4.13814e-17
4.0349e-11
-2.68077e-09
-4.91521e-17
4.08305e-11
-2.81731e-09
-4.68465e-17
4.08774e-11
-2.94723e-09
-2.60362e-17
4.04437e-11
-3.06415e-09
-1.3806e-17
3.94896e-11
-3.16525e-09
-6.49787e-17
3.79895e-11
-3.24368e-09
-7.9077e-17
3.59327e-11
-3.29298e-09
-8.21971e-17
3.33258e-11
-3.30573e-09
-8.69756e-17
3.01981e-11
-3.27078e-09
-9.04416e-17
2.66e-11
-3.17809e-09
-9.1168e-17
2.26039e-11
-3.0162e-09
-9.52029e-17
1.83056e-11
-2.77276e-09
-9.47173e-17
1.38315e-11
-2.4372e-09
-1.00153e-16
9.36251e-12
-2.0014e-09
-9.97208e-17
5.20069e-12
-1.45682e-09
-1.08341e-16
1.84982e-12
-7.95426e-10
-1.09418e-16
-8.03059e-11
-1.13024e-16
3.63208e-11
-2.10833e-09
-4.19663e-18
3.80449e-11
-2.25174e-09
-1.54711e-17
3.95393e-11
-2.39577e-09
-3.41874e-17
4.07475e-11
-2.54009e-09
-4.9398e-17
4.16124e-11
-2.68163e-09
-5.81866e-17
4.20772e-11
-2.81777e-09
-5.71802e-17
4.20878e-11
-2.94725e-09
-3.70304e-17
4.15967e-11
-3.06366e-09
-2.72025e-17
4.05636e-11
-3.16422e-09
-7.26802e-17
3.89625e-11
-3.24208e-09
-8.6398e-17
3.67837e-11
-3.2908e-09
-8.79229e-17
3.40354e-11
-3.30299e-09
-9.10317e-17
3.07505e-11
-3.26749e-09
-9.35606e-17
2.69846e-11
-3.17433e-09
-9.30306e-17
2.28182e-11
-3.01203e-09
-9.73404e-17
1.8359e-11
-2.76831e-09
-9.66329e-17
1.37487e-11
-2.43259e-09
-1.03611e-16
9.187e-12
-1.99684e-09
-1.03737e-16
4.99068e-12
-1.45262e-09
-1.14139e-16
1.69012e-12
-7.92128e-10
-1.15291e-16
-7.86183e-11
-1.18311e-16
3.76427e-11
-2.11029e-09
-8.16348e-18
3.94158e-11
-2.25351e-09
-1.9729e-17
4.09458e-11
-2.3973e-09
-4.00275e-17
4.21742e-11
-2.54132e-09
-5.60632e-17
4.30414e-11
-2.6825e-09
-6.57487e-17
4.34885e-11
-2.81822e-09
-6.61092e-17
4.34596e-11
-2.94722e-09
-4.81295e-17
4.29059e-11
-3.06311e-09
-3.62233e-17
4.17861e-11
-3.1631e-09
-8.13562e-17
4.00743e-11
-3.24037e-09
-9.45027e-17
3.77615e-11
-3.28849e-09
-9.68964e-17
3.48579e-11
-3.30008e-09
-1.00743e-16
3.14003e-11
-3.26404e-09
-1.0279e-16
2.74504e-11
-3.17038e-09
-1.02072e-16
2.30974e-11
-3.00768e-09
-1.05648e-16
1.84619e-11
-2.76367e-09
-1.04813e-16
1.37024e-11
-2.42783e-09
-1.11854e-16
9.03899e-12
-1.99218e-09
-1.12421e-16
4.80627e-12
-1.44839e-09
-1.23304e-16
1.55338e-12
-7.88877e-10
-1.24194e-16
-7.70672e-11
-1.27378e-16
3.91197e-11
-2.11232e-09
-1.27647e-17
4.09471e-11
-2.25534e-09
-2.43441e-17
4.2517e-11
-2.39887e-09
-4.57176e-17
4.37681e-11
-2.54257e-09
-6.21183e-17
4.46384e-11
-2.68337e-09
-7.24028e-17
4.50668e-11
-2.81865e-09
-7.39819e-17
4.49953e-11
-2.94715e-09
-5.80489e-17
4.43737e-11
-3.06249e-09
-4.97921e-17
4.31597e-11
-3.16188e-09
-8.90078e-17
4.13273e-11
-3.23854e-09
-1.01084e-16
3.88687e-11
-3.28603e-09
-1.01745e-16
3.57964e-11
-3.29701e-09
-1.03415e-16
3.21512e-11
-3.26039e-09
-1.04233e-16
2.80016e-11
-3.16623e-09
-1.01743e-16
2.34464e-11
-3.00313e-09
-1.05288e-16
1.86197e-11
-2.75885e-09
-1.03989e-16
1.36981e-11
-2.42291e-09
-1.12675e-16
8.92302e-12
-1.98741e-09
-1.14085e-16
4.64868e-12
-1.44412e-09
-1.26912e-16
1.43696e-12
-7.85668e-10
-1.27895e-16
-7.56328e-11
-1.30182e-16
4.07553e-11
-2.11442e-09
-1.88264e-17
4.26423e-11
-2.25723e-09
-3.00427e-17
4.4256e-11
-2.40049e-09
-5.19762e-17
4.55322e-11
-2.54385e-09
-6.83779e-17
4.64063e-11
-2.68425e-09
-7.86957e-17
4.68148e-11
-2.81906e-09
-8.13372e-17
4.66975e-11
-2.94703e-09
-6.79697e-17
4.60026e-11
-3.06179e-09
-5.9087e-17
4.46869e-11
-3.16057e-09
-9.73255e-17
4.27245e-11
-3.23658e-09
-1.08346e-16
4.01085e-11
-3.28342e-09
-1.09153e-16
3.68541e-11
-3.29376e-09
-1.11118e-16
3.30069e-11
-3.25655e-09
-1.10835e-16
2.86422e-11
-3.16187e-09
-1.0796e-16
2.38693e-11
-2.99836e-09
-1.10241e-16
1.88369e-11
-2.75382e-09
-1.08846e-16
1.37401e-11
-2.41781e-09
-1.17546e-16
8.84258e-12
-1.98251e-09
-1.19827e-16
4.51865e-12
-1.4398e-09
-1.33087e-16
1.33891e-12
-7.82491e-10
-1.33907e-16
-7.42964e-11
-1.36048e-16
4.25532e-11
-2.1166e-09
-2.69099e-17
4.45049e-11
-2.25918e-09
-3.72405e-17
4.61661e-11
-2.40215e-09
-5.93522e-17
4.74698e-11
-2.54515e-09
-7.50236e-17
4.83484e-11
-2.68513e-09
-8.52039e-17
4.87357e-11
-2.81945e-09
-8.82307e-17
4.85692e-11
-2.94687e-09
-7.70574e-17
4.77956e-11
-3.06102e-09
-7.19833e-17
4.63708e-11
-3.15915e-09
-1.04373e-16
4.42687e-11
-3.23448e-09
-1.13691e-16
4.14839e-11
-3.28063e-09
-1.12684e-16
3.80344e-11
-3.29031e-09
-1.12075e-16
3.39707e-11
-3.25248e-09
-1.10468e-16
2.93759e-11
-3.15728e-09
-1.05359e-16
2.43702e-11
-2.99335e-09
-1.0741e-16
1.91174e-11
-2.74856e-09
-1.05195e-16
1.38321e-11
-2.41253e-09
-1.15481e-16
8.80019e-12
-1.97748e-09
-1.18541e-16
4.41643e-12
-1.43542e-09
-1.33553e-16
1.25747e-12
-7.79334e-10
-1.3418e-16
-7.30414e-11
-1.35295e-16
4.45172e-11
-2.11886e-09
-3.71658e-17
4.65387e-11
-2.2612e-09
-4.62451e-17
4.82513e-11
-2.40386e-09
-6.76677e-17
4.95846e-11
-2.54649e-09
-8.246e-17
5.04681e-11
-2.68601e-09
-9.16323e-17
5.08328e-11
-2.81981e-09
-9.50163e-17
5.06139e-11
-2.94665e-09
-8.58096e-17
4.97561e-11
-3.06016e-09
-8.05655e-17
4.82145e-11
-3.15761e-09
-1.1149e-16
4.59632e-11
-3.23223e-09
-1.19589e-16
4.29981e-11
-3.27767e-09
-1.18187e-16
3.93404e-11
-3.28666e-09
-1.17693e-16
3.5046e-11
-3.24819e-09
-1.14573e-16
3.0206e-11
-3.15244e-09
-1.08955e-16
2.49523e-11
-2.9881e-09
-1.09354e-16
1.94644e-11
-2.74308e-09
-1.07023e-16
1.39767e-11
-2.40705e-09
-1.17059e-16
8.79762e-12
-1.97231e-09
-1.21095e-16
4.34201e-12
-1.43096e-09
-1.36094e-16
1.19111e-12
-7.76186e-10
-1.36359e-16
-7.18527e-11
-1.3706e-16
4.66518e-11
-2.12121e-09
-4.96935e-17
4.87481e-11
-2.2633e-09
-5.65925e-17
5.05156e-11
-2.40563e-09
-7.71238e-17
5.18806e-11
-2.54785e-09
-9.00178e-17
5.27694e-11
-2.6869e-09
-9.83012e-17
5.311e-11
-2.82016e-09
-1.01003e-16
5.2835e-11
-2.94637e-09
-9.35376e-17
5.18874e-11
-3.05922e-09
-9.15467e-17
5.02214e-11
-3.15594e-09
-1.16966e-16
4.78111e-11
-3.22982e-09
-1.23107e-16
4.46543e-11
-3.27451e-09
-1.20118e-16
4.07753e-11
-3.28278e-09
-1.16864e-16
3.62358e-11
-3.24365e-09
-1.12599e-16
3.11357e-11
-3.14734e-09
-1.04546e-16
2.56188e-11
-2.98259e-09
-1.04556e-16
1.98807e-11
-2.73734e-09
-1.01017e-16
1.41762e-11
-2.40134e-09
-1.12499e-16
8.83608e-12
-1.96697e-09
-1.16975e-16
4.29507e-12
-1.42642e-09
-1.33304e-16
1.1385e-12
-7.73032e-10
-1.32828e-16
-7.07165e-11
-1.32311e-16
4.89617e-11
-2.12367e-09
-6.37049e-17
5.11377e-11
-2.26548e-09
-6.8333e-17
5.29637e-11
-2.40746e-09
-8.68229e-17
5.43623e-11
-2.54925e-09
-9.80086e-17
5.52564e-11
-2.6878e-09
-1.04235e-16
5.55712e-11
-2.82047e-09
-1.06579e-16
5.52363e-11
-2.94604e-09
-1.00094e-16
5.41932e-11
-3.05817e-09
-9.79644e-17
5.23949e-11
-3.15415e-09
-1.21729e-16
4.98159e-11
-3.22725e-09
-1.26978e-16
4.64557e-11
-3.27115e-09
-1.23389e-16
4.23422e-11
-3.27867e-09
-1.20436e-16
3.75433e-11
-3.23886e-09
-1.1451e-16
3.21678e-11
-3.14197e-09
-1.06162e-16
2.63721e-11
-2.97679e-09
-1.04224e-16
2.03686e-11
-2.73134e-09
-1.00644e-16
1.44322e-11
-2.39541e-09
-1.11555e-16
8.91627e-12
-1.96145e-09
-1.16989e-16
4.27516e-12
-1.42179e-09
-1.3272e-16
1.09846e-12
-7.69858e-10
-1.31542e-16
-6.96203e-11
-1.30192e-16
5.14519e-11
-2.12622e-09
-7.91953e-17
5.37124e-11
-2.26774e-09
-8.03906e-17
5.56002e-11
-2.40935e-09
-9.70182e-17
5.70341e-11
-2.55069e-09
-1.05204e-16
5.79337e-11
-2.6887e-09
-1.09921e-16
5.82206e-11
-2.82076e-09
-1.1055e-16
5.7822e-11
-2.94564e-09
-1.05247e-16
5.66773e-11
-3.05703e-09
-1.05602e-16
5.47386e-11
-3.15221e-09
-1.24554e-16
5.19809e-11
-3.22449e-09
-1.2794e-16
4.84055e-11
-3.26758e-09
-1.23343e-16
4.40441e-11
-3.27431e-09
-1.17686e-16
3.89713e-11
-3.23378e-09
-1.11103e-16
3.3305e-11
-3.1363e-09
-1.00282e-16
2.72148e-11
-2.9707e-09
-9.81059e-17
2.09299e-11
-2.72506e-09
-9.30361e-17
1.4746e-11
-2.38923e-09
-1.05345e-16
9.03856e-12
-1.95575e-09
-1.1085e-16
4.2817e-12
-1.41703e-09
-1.27557e-16
1.06997e-12
-7.66648e-10
-1.25036e-16
-6.85524e-11
-1.22148e-16
5.41277e-11
-2.12889e-09
-9.48582e-17
5.64774e-11
-2.27009e-09
-9.29449e-17
5.84301e-11
-2.4113e-09
-1.06312e-16
5.99011e-11
-2.55216e-09
-1.1218e-16
6.08057e-11
-2.68961e-09
-1.13919e-16
6.10626e-11
-2.82102e-09
-1.13691e-16
6.0596e-11
-2.94518e-09
-1.08367e-16
5.93435e-11
-3.05578e-09
-1.08565e-16
5.72562e-11
-3.15012e-09
-1.25919e-16
5.43095e-11
-3.22155e-09
-1.29125e-16
5.05068e-11
-3.26378e-09
-1.24003e-16
4.5884e-11
-3.26969e-09
-1.19182e-16
4.05223e-11
-3.22842e-09
-1.11038e-16
3.45496e-11
-3.13033e-09
-1.00433e-16
2.81487e-11
-2.9643e-09
-9.62033e-17
2.1566e-11
-2.71847e-09
-9.13558e-17
1.51183e-11
-2.38278e-09
-1.02842e-16
9.20302e-12
-1.94984e-09
-1.09378e-16
4.31401e-12
-1.41214e-09
-1.25007e-16
1.05211e-12
-7.63388e-10
-1.21506e-16
-6.75022e-11
-1.17238e-16
5.69948e-11
-2.13167e-09
-1.10741e-16
5.94382e-11
-2.27253e-09
-1.04402e-16
6.1459e-11
-2.41332e-09
-1.15263e-16
6.29682e-11
-2.55367e-09
-1.1726e-16
6.38775e-11
-2.69052e-09
-1.17151e-16
6.41019e-11
-2.82124e-09
-1.14396e-16
6.35629e-11
-2.94464e-09
-1.09889e-16
6.21959e-11
-3.05441e-09
-1.11847e-16
5.99514e-11
-3.14788e-09
-1.25305e-16
5.68051e-11
-3.2184e-09
-1.26931e-16
5.27628e-11
-3.25974e-09
-1.21645e-16
4.78647e-11
-3.26479e-09
-1.14346e-16
4.2199e-11
-3.22276e-09
-1.06297e-16
3.59038e-11
-3.12404e-09
-9.33528e-17
2.91755e-11
-2.95758e-09
-8.92803e-17
2.22783e-11
-2.71158e-09
-8.27892e-17
1.55497e-11
-2.37605e-09
-9.58013e-17
9.40954e-12
-1.9437e-09
-1.02141e-16
4.37141e-12
-1.40711e-09
-1.18632e-16
1.04408e-12
-7.60063e-10
-1.13281e-16
-6.64598e-11
-1.07126e-16
6.0059e-11
-2.13457e-09
-1.25002e-16
6.26006e-11
-2.27508e-09
-1.15283e-16
6.46924e-11
-2.41542e-09
-1.22032e-16
6.6241e-11
-2.55522e-09
-1.21487e-16
6.71541e-11
-2.69143e-09
-1.17741e-16
6.73433e-11
-2.82143e-09
-1.14017e-16
6.6727e-11
-2.94403e-09
-1.08698e-16
6.52387e-11
-3.05293e-09
-1.1065e-16
6.2828e-11
-3.14547e-09
-1.22658e-16
5.94712e-11
-3.21505e-09
-1.2505e-16
5.51766e-11
-3.25545e-09
-1.19484e-16
4.99888e-11
-3.2596e-09
-1.13827e-16
4.40036e-11
-3.21678e-09
-1.04469e-16
3.73695e-11
-3.1174e-09
-9.24857e-17
3.02969e-11
-2.95051e-09
-8.63866e-17
2.30677e-11
-2.70435e-09
-8.05474e-17
1.60406e-11
-2.36903e-09
-9.2572e-17
9.65784e-12
-1.93732e-09
-1.00165e-16
4.45318e-12
-1.40191e-09
-1.15277e-16
1.04517e-12
-7.56657e-10
-1.08838e-16
-6.54162e-11
-1.00769e-16
6.33267e-11
-2.1376e-09
-1.38233e-16
6.59708e-11
-2.27772e-09
-1.23634e-16
6.81362e-11
-2.41758e-09
-1.27696e-16
6.9725e-11
-2.55681e-09
-1.22735e-16
7.0641e-11
-2.69235e-09
-1.17209e-16
7.07918e-11
-2.82158e-09
-1.1048e-16
7.0093e-11
-2.94333e-09
-1.06004e-16
6.84761e-11
-3.05131e-09
-1.09179e-16
6.58898e-11
-3.14289e-09
-1.18294e-16
6.23112e-11
-3.21147e-09
-1.19461e-16
5.77511e-11
-3.25089e-09
-1.14758e-16
5.22591e-11
-3.25411e-09
-1.06931e-16
4.59385e-11
-3.21046e-09
-9.85914e-17
3.89485e-11
-3.11041e-09
-8.44763e-17
3.1514e-11
-2.94307e-09
-7.90981e-17
2.39349e-11
-2.69677e-09
-7.15337e-17
1.65911e-11
-2.36168e-09
-8.53555e-17
9.94753e-12
-1.93067e-09
-9.25821e-17
4.55861e-12
-1.39652e-09
-1.08681e-16
1.05477e-12
-7.53155e-10
-1.00047e-16
-6.43628e-11
-8.98524e-17
6.68045e-11
-2.14076e-09
-1.48324e-16
6.95552e-11
-2.28048e-09
-1.3055e-16
7.17966e-11
-2.41983e-09
-1.29971e-16
7.34263e-11
-2.55844e-09
-1.22674e-16
7.43435e-11
-2.69327e-09
-1.13179e-16
7.44526e-11
-2.82169e-09
-1.05853e-16
7.36656e-11
-2.94255e-09
-1.00112e-16
7.19123e-11
-3.04956e-09
-1.03728e-16
6.91406e-11
-3.14012e-09
-1.11514e-16
6.53285e-11
-3.20766e-09
-1.14562e-16
6.04894e-11
-3.24605e-09
-1.09905e-16
5.4678e-11
-3.2483e-09
-1.04725e-16
4.80056e-11
-3.20379e-09
-9.53863e-17
4.06425e-11
-3.10305e-09
-8.31188e-17
3.2828e-11
-2.93526e-09
-7.57781e-17
2.48804e-11
-2.68883e-09
-6.9399e-17
1.72013e-11
-2.35401e-09
-8.2091e-17
1.02782e-11
-1.92375e-09
-9.08982e-17
4.68702e-12
-1.39093e-09
-1.05449e-16
1.07231e-12
-7.49541e-10
-9.58074e-17
-6.32917e-11
-8.33155e-17
7.04993e-11
-2.14406e-09
-1.5625e-16
7.33605e-11
-2.28334e-09
-1.33552e-16
7.56801e-11
-2.42215e-09
-1.30568e-16
7.73508e-11
-2.56012e-09
-1.18658e-16
7.82676e-11
-2.69419e-09
-1.07924e-16
7.83309e-11
-2.82176e-09
-9.74906e-17
7.74497e-11
-2.94167e-09
-9.31074e-17
7.55518e-11
-3.04766e-09
-9.76702e-17
7.25844e-11
-3.13715e-09
-1.03569e-16
6.85264e-11
-3.2036e-09
-1.05752e-16
6.33943e-11
-3.24092e-09
-1.03124e-16
5.7248e-11
-3.24216e-09
-9.60911e-17
5.02069e-11
-3.19675e-09
-8.88029e-17
4.24527e-11
-3.0953e-09
-7.45966e-17
3.42397e-11
-2.92705e-09
-6.86342e-17
2.59048e-11
-2.68049e-09
-6.04344e-17
1.7871e-11
-2.34597e-09
-7.52627e-17
1.06493e-11
-1.91653e-09
-8.3548e-17
4.83776e-12
-1.38512e-09
-9.93668e-17
1.09733e-12
-7.45802e-10
-8.73459e-17
-6.21955e-11
-7.27145e-17
7.44182e-11
-2.1475e-09
-1.59216e-16
7.73937e-11
-2.28632e-09
-1.34337e-16
7.97934e-11
-2.42455e-09
-1.2666e-16
8.15049e-11
-2.56183e-09
-1.13147e-16
8.24191e-11
-2.6951e-09
-9.8476e-17
8.24322e-11
-2.82177e-09
-8.83318e-17
8.14502e-11
-2.94069e-09
-8.25943e-17
7.9399e-11
-3.04561e-09
-8.84082e-17
7.6225e-11
-3.13398e-09
-9.29761e-17
7.19084e-11
-3.19929e-09
-9.82978e-17
6.64687e-11
-3.23548e-09
-9.60703e-17
5.99713e-11
-3.23566e-09
-9.28392e-17
5.25442e-11
-3.18932e-09
-8.48472e-17
4.43806e-11
-3.08714e-09
-7.34551e-17
3.575e-11
-2.91842e-09
-6.55543e-17
2.70081e-11
-2.67175e-09
-5.91068e-17
1.86001e-11
-2.33757e-09
-7.2592e-17
1.10603e-11
-1.90899e-09
-8.28091e-17
5.01019e-12
-1.37907e-09
-9.69397e-17
1.12939e-12
-7.41923e-10
-8.41835e-17
-6.1067e-11
-6.71136e-17
7.85689e-11
-2.1511e-09
-1.58928e-16
8.16621e-11
-2.28941e-09
-1.29933e-16
8.41433e-11
-2.42703e-09
-1.2081e-16
8.58953e-11
-2.56358e-09
-1.02905e-16
8.68041e-11
-2.69601e-09
-8.80499e-17
8.67621e-11
-2.82173e-09
-7.50398e-17
8.56721e-11
-2.9396e-09
-7.16778e-17
8.34583e-11
-3.0434e-09
-7.84113e-17
8.00663e-11
-3.13059e-09
-8.20273e-17
7.54777e-11
-3.1947e-09
-8.68095e-17
6.97153e-11
-3.22972e-09
-8.7891e-17
6.28502e-11
-3.2288e-09
-8.30837e-17
5.50191e-11
-3.18149e-09
-7.82366e-17
4.64272e-11
-3.07854e-09
-6.50243e-17
3.73594e-11
-2.90935e-09
-5.91922e-17
2.81906e-11
-2.66258e-09
-5.07377e-17
1.93882e-11
-2.32876e-09
-6.66908e-17
1.15106e-11
-1.90112e-09
-7.6144e-17
5.20374e-12
-1.37276e-09
-9.18833e-17
1.16813e-12
-7.37889e-10
-7.67149e-17
-5.98996e-11
-5.7799e-17
8.29592e-11
-2.15484e-09
-1.52312e-16
8.61732e-11
-2.29263e-09
-1.23009e-16
8.87372e-11
-2.42959e-09
-1.09642e-16
9.05286e-11
-2.56538e-09
-9.14037e-17
9.14288e-11
-2.69691e-09
-7.29826e-17
9.13263e-11
-2.82163e-09
-6.16125e-17
9.01206e-11
-2.93839e-09
-5.71166e-17
8.77342e-11
-3.04101e-09
-6.62402e-17
8.41122e-11
-3.12697e-09
-6.8303e-17
7.92376e-11
-3.18983e-09
-7.75955e-17
7.31368e-11
-3.22362e-09
-7.94162e-17
6.58868e-11
-3.22155e-09
-7.96918e-17
5.76332e-11
-3.17324e-09
-7.43707e-17
4.85936e-11
-3.06951e-09
-6.4978e-17
3.90685e-11
-2.89983e-09
-5.71277e-17
2.94523e-11
-2.65297e-09
-5.09703e-17
2.02351e-11
-2.31955e-09
-6.52174e-17
1.19998e-11
-1.89288e-09
-7.68761e-17
5.41785e-12
-1.36618e-09
-9.07116e-17
1.21322e-12
-7.33685e-10
-7.52788e-17
-5.86871e-11
-5.41046e-17
8.75972e-11
-2.15874e-09
-1.42147e-16
9.0935e-11
-2.29597e-09
-1.1013e-16
9.35824e-11
-2.43224e-09
-9.68244e-17
9.54118e-11
-2.56721e-09
-7.47256e-17
9.62997e-11
-2.6978e-09
-5.76361e-17
9.61306e-11
-2.82146e-09
-4.38721e-17
9.48008e-11
-2.93706e-09
-4.31838e-17
9.22312e-11
-3.03844e-09
-5.3364e-17
8.83665e-11
-3.1231e-09
-5.525e-17
8.31913e-11
-3.18465e-09
-6.42453e-17
7.67357e-11
-3.21716e-09
-7.07465e-17
6.90828e-11
-3.2139e-09
-6.96387e-17
6.03878e-11
-3.16454e-09
-6.86026e-17
5.08806e-11
-3.06e-09
-5.73832e-17
4.08777e-11
-2.88982e-09
-5.22958e-17
3.07932e-11
-2.64288e-09
-4.37941e-17
2.11403e-11
-2.3099e-09
-6.07569e-17
1.25273e-11
-1.88427e-09
-7.12139e-17
5.65199e-12
-1.35931e-09
-8.69726e-17
1.26436e-12
-7.29299e-10
-6.92585e-17
-5.74233e-11
-4.69131e-17
9.24915e-11
-2.16281e-09
-1.25051e-16
9.59554e-11
-2.29943e-09
-9.51939e-17
9.86867e-11
-2.43498e-09
-7.83579e-17
1.00552e-10
-2.56907e-09
-5.75816e-17
1.01423e-10
-2.69867e-09
-3.74991e-17
1.01181e-10
-2.82122e-09
-2.70777e-17
9.97179e-11
-2.9356e-09
-2.56235e-17
9.69538e-11
-3.03568e-09
-3.95643e-17
9.2833e-11
-3.11898e-09
-3.93566e-17
8.73418e-11
-3.17916e-09
-5.43085e-17
8.05144e-11
-3.21034e-09
-6.18221e-17
7.24403e-11
-3.20583e-09
-6.71753e-17
6.32842e-11
-3.15539e-09
-6.57948e-17
5.32888e-11
-3.05001e-09
-5.94179e-17
4.27871e-11
-2.87932e-09
-5.20897e-17
3.22132e-11
-2.63231e-09
-4.63472e-17
2.21035e-11
-2.29979e-09
-6.10048e-17
1.30925e-11
-1.87526e-09
-7.3776e-17
5.90569e-12
-1.35212e-09
-8.72618e-17
1.3213e-12
-7.24715e-10
-6.99704e-17
-5.61026e-11
-4.59326e-17
9.76507e-11
-2.16704e-09
-1.05334e-16
1.01243e-10
-2.30303e-09
-7.42798e-17
1.04058e-10
-2.43779e-09
-5.92612e-17
1.05956e-10
-2.57097e-09
-3.52127e-17
1.06806e-10
-2.69952e-09
-1.82922e-17
1.06483e-10
-2.8209e-09
-6.00088e-18
1.04877e-10
-2.934e-09
-1.00568e-17
1.01906e-10
-3.03271e-09
-2.51904e-17
9.75153e-11
-3.11459e-09
-2.53498e-17
9.16921e-11
-3.17334e-09
-4.00818e-17
8.44752e-11
-3.20312e-09
-5.37124e-17
7.59608e-11
-3.19731e-09
-5.77501e-17
6.63235e-11
-3.14575e-09
-6.18315e-17
5.5819e-11
-3.0395e-09
-5.34759e-17
4.4797e-11
-2.8683e-09
-4.95786e-17
3.37119e-11
-2.62123e-09
-4.09448e-17
2.31242e-11
-2.2892e-09
-5.84083e-17
1.36949e-11
-1.86583e-09
-6.92598e-17
6.17847e-12
-1.34461e-09
-8.48837e-17
1.3838e-12
-7.19922e-10
-6.56311e-17
-5.47193e-11
-4.15382e-17
1.03084e-10
-2.17145e-09
-7.93504e-17
1.06806e-10
-2.30675e-09
-5.27548e-17
1.09704e-10
-2.44069e-09
-3.47198e-17
1.11633e-10
-2.5729e-09
-1.37732e-17
1.12455e-10
-2.70034e-09
5.58234e-18
1.12043e-10
-2.82048e-09
1.26436e-17
1.10284e-10
-2.93224e-09
9.032e-18
1.07093e-10
-3.02952e-09
-1.12897e-17
1.02417e-10
-3.10992e-09
-8.42917e-18
9.62451e-11
-3.16717e-09
-3.05767e-17
8.86203e-11
-3.1955e-09
-4.53735e-17
7.96457e-11
-3.18834e-09
-5.73373e-17
6.95064e-11
-3.13561e-09
-6.10774e-17
5.84714e-11
-3.02847e-09
-5.85889e-17
4.69072e-11
-2.85674e-09
-5.20385e-17
3.52891e-11
-2.60961e-09
-4.65024e-17
2.42019e-11
-2.27811e-09
-6.07424e-17
1.43338e-11
-1.85596e-09
-7.37659e-17
6.46989e-12
-1.33675e-09
-8.65405e-17
1.45165e-12
-7.14905e-10
-6.86508e-17
-5.32682e-11
-4.38701e-17
1.08801e-10
-2.17603e-09
-5.28352e-17
1.12654e-10
-2.3106e-09
-2.58577e-17
1.15633e-10
-2.44367e-09
-1.1235e-17
1.17588e-10
-2.57486e-09
1.26303e-17
1.18377e-10
-2.70113e-09
2.68577e-17
1.17867e-10
-2.81997e-09
3.54288e-17
1.15942e-10
-2.93032e-09
2.4515e-17
1.12519e-10
-3.0261e-09
3.06902e-18
1.07542e-10
-3.10494e-09
5.25409e-18
1.01003e-10
-3.16063e-09
-1.65123e-17
9.29516e-11
-3.18744e-09
-3.88957e-17
8.34965e-11
-3.17889e-09
-4.94613e-17
7.28339e-11
-3.12495e-09
-5.98727e-17
6.12463e-11
-3.01688e-09
-5.50848e-17
4.91177e-11
-2.84461e-09
-5.25863e-17
3.69444e-11
-2.59744e-09
-4.33521e-17
2.5336e-11
-2.26651e-09
-6.0265e-17
1.50088e-11
-1.84564e-09
-7.02876e-17
6.77952e-12
-1.32852e-09
-8.52891e-17
1.52465e-12
-7.09651e-10
-6.59787e-17
-5.17442e-11
-4.27368e-17
1.14811e-10
-2.18078e-09
-2.12241e-17
1.18795e-10
-2.31459e-09
-4.10784e-19
1.21854e-10
-2.44673e-09
1.71889e-17
1.23831e-10
-2.57684e-09
3.62434e-17
1.24578e-10
-2.70188e-09
5.25603e-17
1.2396e-10
-2.81935e-09
5.40056e-17
1.21859e-10
-2.92822e-09
4.34995e-17
1.18188e-10
-3.02242e-09
1.55578e-17
1.12893e-10
-3.09965e-09
2.20248e-17
1.0597e-10
-3.15371e-09
-8.58606e-18
9.74708e-11
-3.17895e-09
-3.21219e-17
8.75143e-11
-3.16893e-09
-5.21515e-17
7.63063e-11
-3.11374e-09
-6.20778e-17
6.41438e-11
-3.00472e-09
-6.41648e-17
5.14281e-11
-2.8319e-09
-5.83715e-17
3.86772e-11
-2.58469e-09
-5.24013e-17
2.65258e-11
-2.25436e-09
-6.47945e-17
1.57193e-11
-1.83483e-09
-7.65517e-17
7.10694e-12
-1.31991e-09
-8.78944e-17
1.60263e-12
-7.04148e-10
-7.11872e-17
-5.01423e-11
-4.87109e-17
1.21123e-10
-2.18572e-09
8.2795e-18
1.2524e-10
-2.31871e-09
2.95855e-17
1.28375e-10
-2.44986e-09
4.24296e-17
1.30368e-10
-2.57883e-09
6.44702e-17
1.31066e-10
-2.70258e-09
7.3709e-17
1.3033e-10
-2.81862e-09
7.66969e-17
1.28038e-10
-2.92592e-09
5.72015e-17
1.24103e-10
-3.01849e-09
2.85853e-17
1.18473e-10
-3.09402e-09
3.41343e-17
1.11146e-10
-3.14638e-09
4.35984e-18
1.0218e-10
-3.16998e-09
-2.82444e-17
9.16997e-11
-3.15845e-09
-4.66166e-17
7.99241e-11
-3.10197e-09
-6.44629e-17
6.71638e-11
-2.99196e-09
-6.37268e-17
5.38381e-11
-2.81857e-09
-6.25362e-17
4.04869e-11
-2.57134e-09
-5.17548e-17
2.77707e-11
-2.24164e-09
-6.64396e-17
1.64645e-11
-1.82353e-09
-7.37273e-17
7.45175e-12
-1.3109e-09
-8.72695e-17
1.6854e-12
-6.98382e-10
-6.99354e-17
-4.84578e-11
-5.10516e-17
1.27749e-10
-2.19084e-09
4.15071e-17
1.31997e-10
-2.32296e-09
5.5744e-17
1.35205e-10
-2.45307e-09
7.21009e-17
1.37208e-10
-2.58083e-09
8.77877e-17
1.37847e-10
-2.70322e-09
9.92096e-17
1.36981e-10
-2.81775e-09
9.33509e-17
1.34484e-10
-2.92343e-09
7.47348e-17
1.3027e-10
-3.01428e-09
3.85448e-17
1.24286e-10
-3.08803e-09
4.97231e-17
1.16535e-10
-3.13863e-09
9.71822e-18
1.07079e-10
-3.16052e-09
-2.38141e-17
9.60536e-11
-3.14743e-09
-5.32581e-17
8.36873e-11
-3.0896e-09
-7.02941e-17
7.03059e-11
-2.97858e-09
-7.73982e-17
5.6347e-11
-2.80461e-09
-7.19989e-17
4.23727e-11
-2.55736e-09
-6.44473e-17
2.90699e-11
-2.22834e-09
-7.29276e-17
1.7244e-11
-1.8117e-09
-8.12261e-17
7.8135e-12
-1.30147e-09
-9.01335e-17
1.77283e-12
-6.92343e-10
-7.69697e-17
-4.6686e-11
-6.06847e-17
1.34699e-10
-2.19614e-09
6.99666e-17
1.39076e-10
-2.32733e-09
8.58712e-17
1.42353e-10
-2.45635e-09
9.63486e-17
1.44358e-10
-2.58284e-09
1.15623e-16
1.44929e-10
-2.70379e-09
1.18204e-16
1.43919e-10
-2.81674e-09
1.14528e-16
1.41202e-10
-2.92071e-09
8.54902e-17
1.36691e-10
-3.00976e-09
4.9541e-17
1.30334e-10
-3.08168e-09
5.92347e-17
1.22137e-10
-3.13043e-09
2.0819e-17
1.12171e-10
-3.15056e-09
-2.32637e-17
1.00576e-10
-3.13583e-09
-5.05794e-17
8.75957e-11
-3.07662e-09
-7.68107e-17
7.35695e-11
-2.96455e-09
-8.03255e-17
5.89539e-11
-2.79e-09
-7.99858e-17
4.43338e-11
-2.54274e-09
-6.6196e-17
3.04226e-11
-2.21443e-09
-7.6375e-17
1.80569e-11
-1.79934e-09
-7.84096e-17
8.1918e-12
-1.2916e-09
-8.94693e-17
1.86472e-12
-6.86017e-10
-7.67322e-17
-4.48225e-11
-6.64344e-17
1.41983e-10
-2.20162e-09
1.01601e-16
1.46487e-10
-2.33184e-09
1.10034e-16
1.49828e-10
-2.45969e-09
1.25001e-16
1.51827e-10
-2.58484e-09
1.36522e-16
1.52318e-10
-2.70428e-09
1.42014e-16
1.51151e-10
-2.81557e-09
1.28065e-16
1.48197e-10
-2.91776e-09
1.01024e-16
1.4337e-10
-3.00494e-09
5.66431e-17
1.3662e-10
-3.07493e-09
7.2976e-17
1.27956e-10
-3.12177e-09
2.29279e-17
1.17454e-10
-3.14006e-09
-2.16063e-17
1.05268e-10
-3.12365e-09
-6.16359e-17
9.16488e-11
-3.06301e-09
-8.65008e-17
7.69538e-11
-2.94986e-09
-9.87338e-17
6.16579e-11
-2.77471e-09
-9.29687e-17
4.6369e-11
-2.52746e-09
-8.21988e-17
3.18277e-11
-2.19989e-09
-8.41877e-17
1.89026e-11
-1.78641e-09
-8.63607e-17
8.58617e-12
-1.28129e-09
-9.17681e-17
1.96095e-12
-6.79394e-10
-8.50971e-17
-4.2863e-11
-7.94219e-17
1.49612e-10
-2.20729e-09
1.26762e-16
1.5424e-10
-2.33646e-09
1.38451e-16
1.57638e-10
-2.46308e-09
1.46341e-16
1.59621e-10
-2.58682e-09
1.62508e-16
1.6002e-10
-2.70467e-09
1.57655e-16
1.58681e-10
-2.81423e-09
1.47247e-16
1.55473e-10
-2.91455e-09
1.0864e-16
1.5031e-10
-2.99977e-09
6.5828e-17
1.43144e-10
-3.06776e-09
7.92603e-17
1.3399e-10
-3.11262e-09
3.18117e-17
1.22931e-10
-3.129e-09
-2.47217e-17
1.10128e-10
-3.11085e-09
-6.18818e-17
9.58459e-11
-3.04873e-09
-9.7184e-17
8.04578e-11
-2.93447e-09
-1.04767e-16
6.44578e-11
-2.75871e-09
-1.0443e-16
4.84771e-11
-2.51148e-09
-8.57429e-17
3.32844e-11
-2.1847e-09
-8.87903e-17
1.97802e-11
-1.77291e-09
-8.27695e-17
8.99617e-12
-1.27051e-09
-9.04304e-17
2.06132e-12
-6.72461e-10
-8.54418e-17
-4.08034e-11
-8.82458e-17
1.57598e-10
-2.21314e-09
1.55825e-16
1.62345e-10
-2.34121e-09
1.59468e-16
1.65792e-10
-2.46653e-09
1.7299e-16
1.6775e-10
-2.58878e-09
1.79946e-16
1.68043e-10
-2.70497e-09
1.79372e-16
1.66514e-10
-2.8127e-09
1.57506e-16
1.63033e-10
-2.91107e-09
1.22698e-16
1.57514e-10
-2.99425e-09
7.06405e-17
1.49911e-10
-3.06016e-09
9.09124e-17
1.40243e-10
-3.10295e-09