/*--------------------------------*- C++ -*----------------------------------*\
| =========                 |                                                 |
| \\      /  F ield         | OpenFOAM: The Open Source CFD Toolbox           |
|  \\    /   O peration     | Version:  v2012                                 |
|   \\  /    A nd           | Website:  www.openfoam.com                      |
|    \\/     M anipulation  |                                                 |
\*---------------------------------------------------------------------------*/
FoamFile
{
    version     2.0;
    format      ascii;
    class       surfaceScalarField;
    location    "0.35";
    object      alphaPhi0.water;
}
// * * * * * * * * * * * * * * * * * * * * * * * * * * * * * * * * * * * * * //

dimensions      [0 3 -1 0 0 0 0];
oriented        oriented;


internalField   nonuniform List<scalar> 
8135
(
-3.22025e-43
-1.31831e-52
-1.43683e-50
-4.98573e-126
-7.20185e-52
-1.03352e-49
-5.27778e-142
2.712e-122
-1.2972e-123
-5.82815e-211
1.20968e-140
-1.07059e-142
-3.41897e-259
8.18611e-209
-8.29365e-213
-6.17732e-257
7.84117e-257
-1.16567e-266
-1.63197e-254
1.97925e-254
-1.61212e-264
-5.78877e-252
6.80175e-252
-2.49272e-262
-2.62548e-249
3.02067e-249
-4.6323e-260
-1.47502e-246
1.67837e-246
-2.71878e-257
-1.00476e-243
1.14113e-243
-1.05366e-254
-8.18781e-241
9.3553e-241
-6.6407e-252
-7.92223e-238
9.16622e-238
-5.12264e-249
-9.08753e-235
1.0703e-234
-1.67696e-245
-1.24134e-231
1.49409e-231
-2.47075e-242
-2.04173e-228
2.51748e-228
-4.4673e-239
-4.12572e-225
5.21138e-225
-9.24183e-236
-1.05904e-221
1.36469e-221
-2.01116e-232
-3.62535e-218
4.72732e-218
-9.88797e-229
-1.6847e-214
2.29474e-214
-5.09077e-225
1.40466e-210
-6.2894e-221
-1.14693e-52
-2.86632e-69
-3.23305e-55
-5.21469e-95
-5.00825e-69
-4.84984e-54
-4.63383e-142
4.2776e-94
-1.08812e-107
-1.85573e-208
1.28959e-140
-1.56888e-144
-4.86277e-244
9.28089e-207
-1.5655e-210
-3.00919e-242
3.77596e-242
-2.51545e-251
-2.68151e-240
3.22619e-240
-1.19163e-249
-3.1878e-238
3.727e-238
-6.23822e-248
-4.82906e-236
5.54149e-236
-7.45874e-246
-9.0442e-234
1.0279e-233
-1.51069e-243
-2.05247e-231
2.32916e-231
-2.81598e-241
-5.57439e-229
6.3603e-229
-7.47364e-239
-1.79975e-226
2.07658e-226
-2.40879e-236
-6.90092e-224
8.08941e-224
-1.3855e-233
-3.1573e-221
3.77382e-221
-6.83842e-231
-1.74235e-218
2.12903e-218
-4.1275e-228
-1.18167e-215
1.47801e-215
-2.97706e-225
-1.0142e-212
1.29822e-212
-2.54632e-222
-1.14518e-209
1.50333e-209
-3.72515e-219
-1.70078e-206
2.41175e-206
-7.28671e-216
4.83123e-203
-3.35705e-212
-2.02028e-72
-2.36707e-69
-2.52866e-72
-1.34092e-94
-5.00847e-69
-2.4597e-74
-7.4938e-142
1.24222e-93
-3.84784e-108
-1.41372e-206
1.3173e-140
-4.75231e-144
-5.45545e-238
4.44018e-205
-8.18656e-209
-2.08233e-236
2.58159e-236
-2.74096e-245
-1.12895e-234
1.34662e-234
-8.15341e-244
-8.10958e-233
9.42868e-233
-2.9515e-242
-7.39389e-231
8.45776e-231
-2.54294e-240
-8.31674e-229
9.43529e-229
-3.02091e-238
-1.13271e-226
1.28348e-226
-3.43277e-236
-1.84698e-224
2.1028e-224
-5.29022e-234
-3.58451e-222
4.12088e-222
-9.82045e-232
-8.27631e-220
9.64734e-220
-3.09297e-229
-2.28448e-217
2.7093e-217
-8.89283e-227
-7.61709e-215
9.21791e-215
-3.16395e-224
-3.12075e-212
3.86444e-212
-1.36564e-221
-1.6108e-209
2.0493e-209
-7.1149e-219
-1.07791e-206
1.42675e-206
-6.29709e-216
-9.16492e-204
1.35976e-203
-7.46404e-213
1.58988e-200
-2.01827e-209
-2.0109e-69
-3.41708e-72
-1.38054e-72
-4.40666e-93
-1.25565e-71
-1.14045e-71
-9.58422e-142
2.23598e-92
-6.77536e-102
-5.63604e-205
1.28735e-140
-3.64228e-144
-1.51843e-233
1.31305e-203
-2.46638e-207
-4.25578e-232
5.21543e-232
-7.47067e-241
-1.67285e-230
1.97878e-230
-1.65917e-239
-8.65218e-229
1.00025e-228
-4.55443e-238
-5.65737e-227
6.44767e-227
-2.97786e-236
-4.55364e-225
5.15324e-225
-2.48133e-234
-4.43391e-223
5.01339e-223
-2.0077e-232
-5.16881e-221
5.87011e-221
-2.16645e-230
-7.17597e-219
8.22203e-219
-2.79362e-228
-1.18635e-216
1.3766e-216
-6.11269e-226
-2.34686e-214
2.76733e-214
-1.23005e-223
-5.61055e-212
6.74539e-212
-3.09089e-221
-1.64665e-209
2.02665e-209
-9.51081e-219
-6.06499e-207
7.69473e-207
-3.55558e-216
-2.86737e-204
3.82167e-204
-2.29134e-213
-1.68645e-201
2.57689e-201
-1.94756e-210
2.10446e-198
-3.67855e-207
-2.90263e-72
-3.32051e-75
-5.761e-75
-1.13911e-95
-8.3485e-75
-6.12586e-74
-1.14365e-141
2.23484e-92
-3.35599e-104
-1.48939e-203
1.25666e-140
-5.99296e-144
-6.51988e-230
2.78397e-202
-5.22967e-206
-1.45885e-228
1.76846e-228
-3.16056e-237
-4.52657e-227
5.31253e-227
-5.65947e-236
-1.83577e-225
2.11085e-225
-1.26658e-234
-9.37479e-224
1.06462e-223
-6.32073e-233
-5.87989e-222
6.63772e-222
-4.00892e-231
-4.45629e-220
5.02856e-220
-2.43952e-229
-4.04211e-218
4.58091e-218
-1.96866e-227
-4.36717e-216
4.99096e-216
-1.88162e-225
-5.62089e-214
6.50132e-214
-3.22917e-223
-8.65975e-212
1.01721e-211
-4.92478e-221
-1.61218e-209
1.93036e-209
-9.49456e-219
-3.68059e-207
4.51463e-207
-2.25816e-216
-1.05113e-204
1.33272e-204
-6.51172e-214
-3.82532e-202
5.13058e-202
-3.39942e-211
-1.70724e-199
2.66508e-199
-2.24509e-208
1.66062e-196
-3.21238e-205
-2.23926e-75
-5.63466e-77
-3.20603e-83
-4.58354e-92
-1.21201e-76
-2.5315e-82
-1.29795e-141
1.70957e-91
-1.08246e-100
-2.91559e-202
1.19687e-140
-6.18026e-144
-8.84715e-227
4.57322e-201
-8.54329e-205
-1.65856e-225
1.99034e-225
-4.24076e-234
-4.26941e-224
4.97482e-224
-6.41272e-233
-1.42757e-222
1.63344e-222
-1.19641e-231
-5.98747e-221
6.7776e-221
-4.78063e-230
-3.07715e-219
3.46633e-219
-2.42245e-228
-1.90854e-217
2.15019e-217
-1.15818e-226
-1.41592e-215
1.60226e-215
-7.25756e-225
-1.25107e-213
1.42735e-213
-5.26294e-223
-1.31694e-211
1.52013e-211
-7.52075e-221
-1.65942e-209
1.9447e-209
-8.93703e-219
-2.52591e-207
3.01746e-207
-1.36332e-216
-4.70966e-205
5.76786e-205
-2.58846e-214
-1.09557e-202
1.38999e-202
-5.90291e-212
-3.22981e-200
4.3571e-200
-2.71498e-209
-1.15564e-197
1.83414e-197
-1.45986e-206
9.19282e-195
-1.67797e-203
-3.76972e-77
-9.83832e-79
-6.49742e-85
-9.97802e-92
-1.83205e-78
-4.53953e-84
-1.25673e-141
4.43385e-91
-9.44203e-100
-4.50588e-201
1.38471e-140
-3.73702e-145
-5.44275e-224
6.1032e-200
-1.12862e-203
-8.81719e-223
1.04827e-222
-2.57767e-231
-1.94475e-221
2.25134e-221
-3.38747e-230
-5.54036e-220
6.31165e-220
-5.48066e-229
-1.97261e-218
2.2267e-218
-1.79543e-227
-8.58638e-217
9.6556e-217
-7.52726e-226
-4.50449e-215
5.06904e-215
-2.89589e-224
-2.82463e-213
3.19345e-213
-1.43182e-222
-2.10883e-211
2.40375e-211
-7.82727e-221
-1.87544e-209
2.16254e-209
-9.75139e-219
-1.99619e-207
2.3367e-207
-9.00926e-217
-2.56553e-205
3.06177e-205
-1.08539e-214
-4.03467e-203
4.93983e-203
-1.639e-212
-7.89884e-201
1.00367e-200
-2.86866e-210
-1.95147e-198
2.64682e-198
-1.31075e-207
-5.80655e-196
9.33826e-196
-5.88969e-205
3.89974e-193
-5.61761e-202
-6.55102e-79
-1.69995e-80
-1.15801e-86
-2.51e-91
-2.75258e-80
-7.24837e-86
-4.66989e-126
1.02726e-90
-1.94474e-99
-5.72796e-200
3.43147e-125
-6.22298e-129
-1.87104e-221
6.83312e-199
-1.24443e-202
-2.67553e-220
3.15343e-220
-8.72403e-229
-5.17105e-219
5.95086e-219
-1.01841e-227
-1.28438e-217
1.4575e-217
-1.45091e-226
-3.9734e-216
4.47454e-216
-4.06266e-225
-1.49949e-214
1.68393e-214
-1.45378e-223
-6.8108e-213
7.65882e-213
-4.67134e-222
-3.69479e-211
4.17551e-211
-1.87745e-220
-2.38536e-209
2.71814e-209
-7.77687e-219
-1.83392e-207
2.11406e-207
-8.59683e-217
-1.68702e-205
1.97431e-205
-6.03212e-215
-1.87293e-203
2.23517e-203
-5.46524e-213
-2.54191e-201
3.11415e-201
-6.0579e-211
-4.28671e-199
5.45839e-199
-6.43609e-209
-9.09257e-197
1.2395e-196
-4.0537e-206
-2.30924e-194
3.75421e-194
-1.52354e-203
1.33961e-191
-1.2312e-200
-1.12934e-80
-2.77269e-82
-2.07188e-88
-6.10867e-91
-3.90894e-82
-1.16814e-87
-2.88274e-128
2.24525e-90
-4.59179e-99
-6.16392e-199
3.61952e-125
-1.31371e-128
-4.10505e-219
6.5696e-198
-1.17272e-201
-5.26187e-218
6.15145e-218
-1.87601e-226
-9.0585e-217
1.0368e-216
-1.97414e-225
-1.99511e-215
2.25615e-215
-2.53786e-224
-5.45609e-214
6.13167e-214
-6.22696e-223
-1.81635e-212
2.03765e-212
-1.95594e-221
-7.26795e-211
8.1697e-211
-5.41503e-220
-3.47053e-209
3.92204e-209
-1.83019e-218
-1.97117e-207
2.24661e-207
-5.91822e-217
-1.33279e-205
1.53684e-205
-5.83736e-215
-1.07783e-203
1.26193e-203
-3.06045e-213
-1.05144e-201
1.25568e-201
-1.88275e-211
-1.25275e-199
1.53677e-199
-1.06787e-209
-1.85185e-197
2.3639e-197
1.01144e-207
-3.43395e-195
4.70362e-195
-7.48427e-205
-7.59015e-193
1.24522e-192
-2.14373e-202
3.86897e-190
-1.41213e-199
-1.83883e-82
-4.46273e-84
-3.38768e-90
-1.3964e-90
-5.43864e-84
-1.73296e-89
-2.3365e-106
4.64139e-90
-1.07482e-98
-5.73569e-198
4.55723e-106
-9.91673e-114
-6.29088e-217
5.52145e-197
-9.62602e-201
-7.3127e-216
8.48313e-216
-2.80628e-224
-1.13536e-214
1.29292e-214
-2.69392e-223
-2.24624e-213
2.53211e-213
-3.14685e-222
-5.50241e-212
6.17273e-212
-6.96186e-221
-1.6376e-210
1.83566e-210
-1.96213e-219
-5.85043e-209
6.57549e-209
-4.8407e-218
-2.49212e-207
2.8172e-207
-1.43997e-216
-1.26198e-205
1.43914e-205
-3.94825e-215
-7.60426e-204
8.77516e-204
-3.4394e-213
-5.47827e-202
6.42008e-202
-1.42942e-211
-4.75822e-200
5.68956e-200
-5.7829e-210
-5.04366e-198
6.19816e-198
4.76843e-209
-6.62427e-196
8.47941e-196
1.31943e-205
-1.08906e-193
1.49854e-193
-5.80902e-204
-2.12673e-191
3.51636e-191
2.6882e-202
9.65399e-189
7.28414e-199
-2.94433e-84
-1.02498e-85
-4.57964e-92
-3.05531e-90
-1.06995e-85
-2.14741e-91
-1.34595e-108
9.16314e-90
-2.24084e-98
-4.69189e-197
4.54377e-106
-1.68039e-115
-7.18155e-215
4.1144e-196
-6.98779e-200
-7.63966e-214
8.79668e-214
-3.11634e-222
-1.08018e-212
1.2242e-212
-2.751e-221
-1.93927e-211
2.17966e-211
-2.95811e-220
-4.29976e-210
4.81595e-210
-5.97281e-219
-1.15617e-208
1.29522e-208
-1.53478e-217
-3.72724e-207
4.18948e-207
-3.4414e-216
-1.43148e-205
1.61908e-205
-9.29022e-215
-6.53168e-204
7.455e-204
-2.31445e-213
-3.54481e-202
4.09512e-202
-1.78947e-211
-2.29909e-200
2.69792e-200
-6.55478e-210
-1.79684e-198
2.15207e-198
-2.15898e-208
-1.71255e-196
2.10905e-196
6.80744e-207
-2.02014e-194
2.59356e-194
5.48791e-204
-2.97774e-192
4.11533e-192
8.23044e-203
-5.19918e-190
8.65541e-190
9.70151e-200
2.12446e-187
7.61384e-197
-6.76719e-86
-1.27793e-86
-4.9863e-94
-6.0089e-90
-4.82404e-87
-1.74646e-93
-1.26932e-106
1.68343e-89
-4.73656e-98
-4.46035e-168
6.40508e-106
-7.56764e-114
-6.40551e-213
3.58767e-167
-3.00691e-169
-6.28161e-212
7.18069e-212
-2.69631e-220
-8.15162e-211
9.19606e-211
-2.20439e-219
-1.33895e-209
1.50075e-209
-2.18782e-218
-2.70979e-208
3.03071e-208
-4.08312e-217
-6.63983e-207
7.43478e-207
-9.65499e-216
-1.94828e-205
2.19036e-205
-1.99673e-214
-6.80484e-204
7.70206e-204
-4.99485e-213
-2.82207e-202
3.22443e-202
-1.1818e-211
-1.39137e-200
1.60954e-200
-8.22254e-210
-8.19447e-199
9.63152e-199
-2.90119e-208
-5.81259e-197
6.97519e-197
-1.02054e-206
-5.02468e-195
6.20283e-195
4.1155e-207
-5.3707e-193
6.91654e-193
1.40379e-202
-7.16298e-191
9.94135e-191
4.87031e-202
-1.12911e-188
1.89125e-188
2.28589e-198
4.18989e-186
1.77467e-195
-3.63697e-87
-6.05612e-87
-1.23111e-94
-1.33608e-89
-2.94019e-88
-1.16431e-97
-1.62304e-106
3.15253e-89
-9.50011e-98
-6.98394e-154
8.45241e-106
-9.2846e-114
-4.62963e-211
6.56601e-151
-5.3155e-153
-4.21053e-210
4.77893e-210
-1.88601e-218
-5.04715e-209
5.66829e-209
-1.43506e-217
-7.63585e-208
8.53563e-208
-1.3239e-216
-1.42039e-206
1.58643e-206
-2.28822e-215
-3.19403e-205
3.57498e-205
-5.01386e-214
-8.59136e-204
9.66177e-204
-9.60038e-213
-2.74859e-202
3.11354e-202
-2.23896e-211
-1.04348e-200
1.19369e-200
-5.06121e-210
-4.70733e-199
5.45373e-199
-3.23593e-208
-2.53558e-197
2.98565e-197
-1.12172e-206
-1.64415e-195
1.97722e-195
-4.28764e-205
-1.29844e-193
1.60701e-193
-1.03117e-203
-1.26684e-191
1.63666e-191
2.49026e-201
-1.54041e-189
2.14667e-189
-1.3269e-199
-2.20979e-187
3.72203e-187
2.11806e-197
7.50185e-185
2.45067e-194
-6.40929e-88
-4.88919e-87
-1.17748e-94
-3.03695e-89
-1.80463e-88
-1.04022e-95
-2.60303e-106
3.75456e-89
-1.83741e-97
-2.32727e-123
1.12977e-105
-1.42647e-113
-2.78998e-209
1.71797e-124
-9.42882e-137
-2.36516e-208
2.66547e-208
-1.09792e-216
-2.6329e-207
2.9438e-207
-7.81073e-216
-3.68957e-206
4.11345e-206
-6.70325e-215
-6.3449e-205
7.07711e-205
-1.07959e-213
-1.31716e-203
1.47371e-203
-2.20277e-212
-3.26733e-202
3.67568e-202
-3.91397e-211
-9.63254e-201
1.09212e-200
-8.53051e-210
-3.36792e-199
3.85776e-199
-1.83754e-208
-1.3986e-197
1.62303e-197
-1.09677e-206
-6.93186e-196
8.17822e-196
-3.72853e-205
-4.1339e-194
4.98272e-194
-1.49521e-203
-3.00084e-192
3.72394e-192
-5.5657e-202
-2.68915e-190
3.48537e-190
2.52952e-200
-3.00025e-188
4.19772e-188
-7.0554e-198
-3.94328e-186
6.67608e-186
-4.29395e-196
1.23236e-183
1.02511e-193
-4.93756e-88
-4.18721e-87
-1.08768e-94
-3.89502e-89
-1.15266e-88
-5.2443e-96
-1.49717e-108
3.98224e-89
-1.85232e-97
-3.96845e-125
1.12827e-105
-3.65758e-117
-1.43434e-207
1.277e-124
-9.65072e-137
-1.1383e-206
1.27375e-206
-5.44473e-215
-1.18215e-205
1.31588e-205
-3.63332e-214
-1.54176e-204
1.71434e-204
-2.91227e-213
-2.46322e-203
2.74379e-203
-4.3723e-212
-4.74447e-202
5.30637e-202
-8.34519e-211
-1.09092e-200
1.22769e-200
-1.37433e-209
-2.979e-199
3.38061e-199
-2.793e-208
-9.6423e-198
1.10596e-197
-5.66625e-207
-3.7051e-196
4.30698e-196
-3.20383e-205
-1.69846e-194
2.00793e-194
-1.05216e-203
-9.36417e-193
1.13137e-192
-4.23506e-202
-6.28097e-191
7.81594e-191
-1.79755e-200
-5.19736e-189
6.758e-189
-5.06378e-200
-5.34962e-187
7.51382e-187
-2.11628e-196
-6.47868e-185
1.10214e-184
-2.24935e-194
1.87392e-182
-3.87753e-192
-3.67416e-88
-3.87832e-87
-1.09049e-94
-4.14307e-89
-7.73584e-89
-4.36975e-96
-7.90494e-105
3.86169e-89
-1.67437e-97
-2.08009e-125
7.526e-105
-3.6137e-112
-6.40908e-206
1.24348e-124
-9.93346e-137
-4.77947e-205
5.31005e-205
-2.34447e-213
-4.64888e-204
5.15157e-204
-1.47201e-212
-5.66597e-203
6.28327e-203
-1.10224e-211
-8.44572e-202
9.39471e-202
-1.55126e-210
-1.51591e-200
1.69475e-200
-2.77903e-209
-3.24515e-199
3.65324e-199
-4.24656e-208
-8.24468e-198
9.36466e-198
-8.03957e-207
-2.48146e-196
2.85008e-196
-1.5236e-205
-8.86246e-195
1.03201e-194
-8.2376e-204
-3.77447e-193
4.47151e-193
-2.5857e-202
-1.93255e-191
2.34054e-191
-1.01934e-200
-1.20319e-189
1.5014e-189
-4.49187e-199
-9.23575e-188
1.20477e-187
-9.45035e-198
-8.81169e-186
1.24232e-185
-4.87324e-195
-9.88132e-184
1.68862e-183
-5.79936e-193
2.6575e-181
-1.37296e-190
-2.90024e-88
-3.87995e-87
-1.2076e-94
-4.08611e-89
-5.35514e-89
-3.91561e-96
-4.53725e-107
3.4824e-89
-1.35478e-97
-2.70931e-125
7.48063e-105
-3.12847e-114
-2.52782e-204
1.19897e-124
-5.02623e-138
-1.77721e-203
1.96026e-203
-8.90512e-212
-1.62463e-202
1.79209e-202
-5.27264e-211
-1.85701e-201
2.05364e-201
-3.69796e-210
-2.59211e-200
2.87918e-200
-4.88885e-209
-4.35191e-199
4.86305e-199
-8.24967e-208
-8.7069e-198
9.80459e-198
-1.17102e-206
-2.06605e-196
2.34875e-196
-2.06242e-205
-5.80481e-195
6.67608e-195
-3.61758e-204
-1.93445e-193
2.25654e-193
-1.886e-202
-7.68437e-192
9.12252e-192
-5.59309e-201
-3.6682e-190
4.45341e-190
-2.11511e-199
-2.12826e-188
2.66315e-188
-9.19061e-198
-1.52158e-186
1.99117e-186
-2.50098e-196
-1.35119e-184
1.91196e-184
-9.14162e-194
-1.40901e-182
2.41823e-182
-1.10328e-191
3.53765e-180
-2.71634e-189
-2.34151e-88
-4.16306e-87
-1.37925e-94
-3.74472e-89
-3.78593e-89
-3.76662e-96
-2.70319e-105
2.9262e-89
-1.06258e-97
-2.29079e-127
9.06704e-105
-1.19952e-112
-8.9154e-203
1.19668e-124
-5.91477e-140
-5.92671e-202
6.48925e-202
-3.02352e-210
-5.10733e-201
5.60747e-201
-1.69192e-209
-5.49231e-200
6.0565e-200
-1.11159e-208
-7.20244e-199
7.98776e-199
-1.38941e-207
-1.13484e-197
1.26743e-197
-2.21699e-206
-2.12913e-196
2.39807e-196
-2.93106e-205
-4.73473e-195
5.38699e-195
-4.80731e-204
-1.24607e-193
1.43497e-193
-7.77516e-203
-3.88806e-192
4.54318e-192
-3.92633e-201
-1.44555e-190
1.71964e-190
-1.09338e-199
-6.4559e-189
7.85675e-189
-3.92149e-198
-3.50285e-187
4.39529e-187
-1.63925e-196
-2.3408e-185
3.0728e-185
-4.68391e-195
-1.94174e-183
2.75739e-183
-1.48902e-192
-1.88996e-181
3.25697e-181
-1.7529e-190
4.44565e-179
-4.27701e-188
-1.92385e-88
-4.7177e-87
-1.65253e-94
-3.19482e-89
-2.74456e-89
-3.8164e-96
-3.1492e-105
2.28705e-89
-8.83166e-98
-4.07092e-125
1.05917e-104
-1.31257e-112
-2.843e-201
1.25334e-124
-2.89697e-138
-1.79172e-200
1.94714e-200
-9.27959e-209
-1.45947e-199
1.5947e-199
-4.91625e-208
-1.48072e-198
1.62795e-198
-3.03163e-207
-1.82949e-197
2.02561e-197
-3.59601e-206
-2.71326e-196
3.02828e-196
-5.45224e-205
-4.78783e-195
5.39325e-195
-6.72911e-204
-1.00083e-193
1.13954e-193
-1.02923e-202
-2.47474e-192
2.85342e-192
-1.53047e-201
-7.25213e-191
8.48812e-191
-7.51391e-200
-2.53135e-189
3.01741e-189
-1.95364e-198
-1.06096e-187
1.29423e-187
-6.57756e-197
-5.40019e-186
6.79433e-186
-2.59493e-195
-3.38372e-184
4.45543e-184
-7.02634e-194
-2.6304e-182
3.74821e-182
-2.14325e-191
-2.39763e-180
4.14802e-180
-2.41639e-189
5.30037e-178
-5.64873e-187
-1.59722e-88
-5.40807e-87
-1.9892e-94
-2.53088e-89
-1.97654e-89
-4.06414e-96
-4.07938e-105
1.6616e-89
-7.37489e-98
-3.42053e-127
1.22167e-104
-1.58058e-112
-8.27528e-200
1.24993e-124
-6.93039e-138
-4.95596e-199
5.34487e-199
-2.59927e-207
-3.82524e-198
4.159e-198
-1.30604e-206
-3.67066e-197
4.02306e-197
-7.55915e-206
-4.28405e-196
4.73483e-196
-8.56497e-205
-5.996e-195
6.68699e-195
-1.23906e-203
-9.97812e-194
1.124e-193
-1.43277e-202
-1.96593e-192
2.23984e-192
-2.05094e-201
-4.57977e-191
5.28663e-191
-2.81124e-200
-1.26391e-189
1.48166e-189
-1.34303e-198
-4.15323e-188
4.96039e-188
-3.2588e-197
-1.63817e-186
2.00294e-186
-1.02594e-195
-7.84386e-185
9.8948e-185
-3.78417e-194
-4.62154e-183
6.10334e-183
-9.20485e-193
-3.37647e-181
4.82734e-181
-2.81694e-190
-2.89067e-179
5.01972e-179
-3.00674e-188
6.02244e-177
-6.67567e-186
-1.28437e-88
-5.80456e-87
-2.29841e-94
-1.87351e-89
-1.10879e-89
-6.1693e-96
-2.36439e-107
1.12282e-89
-8.04881e-98
-7.36716e-125
1.2193e-104
-1.36803e-114
-2.21695e-198
2.68781e-124
-3.40786e-139
-1.26442e-197
1.35303e-197
-6.70032e-206
-9.2681e-197
1.00253e-196
-3.19778e-205
-8.43087e-196
9.21e-196
-1.73966e-204
-9.31635e-195
1.02767e-194
-1.89e-203
-1.23347e-193
1.37437e-193
-2.61982e-202
-1.94044e-192
2.1856e-192
-2.84745e-201
-3.61223e-191
4.1177e-191
-3.82725e-200
-7.94736e-190
9.18358e-190
-4.84756e-199
-2.07065e-188
2.43098e-188
-2.25558e-197
-6.42151e-187
7.68378e-187
-5.10712e-196
-2.38959e-185
2.92812e-185
-1.49901e-194
-1.07907e-183
1.36467e-183
-5.13188e-193
-5.99357e-182
7.9379e-182
-1.06523e-191
-4.12606e-180
5.91787e-180
-3.41929e-189
-3.32656e-178
5.79726e-178
-3.42862e-187
6.54782e-176
-7.11327e-185
-9.97709e-89
-5.22554e-87
-2.43604e-94
-1.24174e-89
-9.88532e-90
-2.12463e-95
-5.00091e-105
7.13758e-90
-9.72863e-98
-6.16003e-127
1.34728e-104
-1.83043e-112
-1.39138e-173
2.68165e-124
-1.42948e-137
-2.99672e-196
8.03803e-173
-1.84731e-174
-2.09025e-195
2.24906e-195
-7.26971e-204
-1.80624e-194
1.96637e-194
-3.71597e-203
-1.89379e-193
2.08464e-193
-3.89388e-202
-2.37698e-192
2.6457e-192
-5.18916e-201
-3.54266e-191
3.98925e-191
-5.31988e-200
-6.24484e-190
7.12151e-190
-6.742e-199
-1.30049e-188
1.50417e-188
-7.93844e-198
-3.20609e-187
3.76916e-187
-3.59585e-196
-9.4048e-186
1.12732e-185
-7.62816e-195
-3.30931e-184
4.06361e-184
-2.09252e-193
-1.41259e-182
1.79077e-182
-6.65274e-192
-7.4137e-181
9.84556e-181
-1.15545e-190
-4.82035e-179
6.93476e-179
-3.88463e-188
-3.66861e-177
6.41504e-177
-3.67849e-186
6.83751e-175
-7.08613e-184
-4.10015e-88
-4.63458e-87
-2.16446e-94
-6.61242e-90
-2.84921e-88
-1.09863e-95
-5.46736e-105
6.29429e-90
-1.14557e-97
-1.45132e-124
1.44764e-104
-1.92566e-112
-2.61214e-157
5.76509e-124
-6.73802e-137
-6.63965e-195
1.43094e-156
-3.27915e-158
-4.41529e-194
4.72473e-194
-1.54429e-202
-3.6313e-193
3.93888e-193
-7.42849e-202
-3.61945e-192
3.9752e-192
-7.52841e-201
-4.31522e-191
4.7972e-191
-9.67741e-200
-6.10533e-190
6.8722e-190
-9.38118e-199
-1.02116e-188
1.16481e-188
-1.12424e-197
-2.01698e-187
2.33472e-187
-1.23456e-196
-4.71464e-186
5.54949e-186
-5.44897e-195
-1.31088e-184
1.57385e-184
-1.08611e-193
-4.37075e-183
5.37754e-183
-2.79109e-192
-1.76724e-181
2.2455e-181
-8.25847e-191
-8.78253e-180
1.16936e-179
-1.19642e-189
-5.4049e-178
7.79822e-178
-4.16987e-187
-3.89155e-176
6.82669e-176
-3.75161e-185
6.88155e-174
-6.61488e-183
-3.45539e-87
-8.87079e-88
-1.58007e-94
-5.78519e-90
-3.87627e-89
-1.61757e-94
-1.10126e-104
6.86931e-90
-1.26925e-97
-1.55497e-121
1.84563e-104
-3.52264e-112
-2.82467e-157
3.87876e-122
-7.07008e-135
-1.38314e-193
1.46935e-156
-7.65931e-160
-8.78411e-193
9.34635e-193
-3.08404e-201
-6.88797e-192
7.44285e-192
-1.3966e-200
-6.53843e-191
7.16352e-191
-1.37423e-199
-7.41808e-190
8.23511e-190
-1.70694e-198
-9.98152e-189
1.12289e-188
-1.56982e-197
-1.58702e-187
1.81043e-187
-1.78476e-196
-2.97871e-186
3.45014e-186
-1.83721e-195
-6.61412e-185
7.79378e-185
-7.90241e-194
-1.74643e-183
2.09988e-183
-1.48749e-192
-5.5282e-182
6.81397e-182
-3.60067e-191
-2.12141e-180
2.70126e-180
-9.98789e-190
-1.00023e-178
1.33501e-178
-1.27717e-188
-5.83782e-177
8.44572e-177
-4.49561e-186
-3.98443e-175
7.01067e-175
-3.7104e-184
6.6971e-173
-5.95316e-182
-6.2534e-88
-1.51941e-88
-2.49103e-95
-6.22485e-90
-4.95387e-90
-3.36306e-95
-6.74595e-105
6.99559e-90
-1.40092e-97
-1.28801e-123
1.5679e-104
-1.45194e-112
-2.95016e-157
3.74996e-122
-9.27168e-135
-2.72319e-192
1.45927e-156
-1.15748e-160
-1.65434e-191
1.74986e-191
-5.82015e-200
-1.23886e-190
1.33327e-190
-2.48689e-199
-1.12184e-189
1.22584e-189
-2.37964e-198
-1.21321e-188
1.3447e-188
-2.88225e-197
-1.55519e-187
1.74822e-187
-2.5003e-196
-2.3546e-186
2.68586e-186
-2.70151e-195
-4.20685e-185
4.87491e-185
-2.60915e-194
-8.88911e-184
1.04842e-183
-1.09636e-192
-2.23291e-182
2.68833e-182
-1.95362e-191
-6.72221e-181
8.29937e-181
-4.46998e-190
-2.45263e-179
3.12914e-179
-1.16864e-188
-1.09912e-177
1.47029e-177
-1.34087e-187
-6.09498e-176
8.84003e-176
-4.92174e-185
-3.9507e-174
6.9708e-174
-3.56979e-183
6.32222e-172
-5.15634e-181
-9.89523e-89
-5.36128e-89
-3.21831e-96
-7.62286e-90
-5.14683e-91
-4.24441e-96
-6.4643e-105
3.90409e-90
-1.09935e-97
-1.14947e-122
1.30353e-104
-2.03145e-112
-3.08752e-157
8.35892e-123
-8.93718e-135
-5.09175e-191
1.45403e-156
-4.49672e-160
-2.96339e-190
3.11534e-190
-1.043e-198
-2.12255e-189
2.27461e-189
-4.20496e-198
-1.83641e-188
2.00093e-188
-3.92919e-197
-1.89606e-187
2.0978e-187
-4.58014e-196
-2.31916e-186
2.60454e-186
-3.81078e-195
-3.34898e-185
3.81907e-185
-3.9209e-194
-5.70491e-184
6.61267e-184
-3.56322e-193
-1.14899e-182
1.35616e-182
-1.46449e-191
-2.75029e-181
3.31494e-181
-2.47877e-190
-7.88767e-180
9.75249e-180
-5.38454e-189
-2.74079e-178
3.50294e-178
-1.33572e-187
-1.16939e-176
1.56749e-176
-1.43558e-186
-6.17169e-175
8.97196e-175
-5.28775e-184
-3.80579e-173
6.73235e-173
-3.37806e-182
5.80721e-171
-4.38972e-180
-3.72757e-89
-2.09637e-89
-4.8916e-97
-4.57744e-90
1.65418e-91
-5.2571e-97
-6.15096e-105
1.81724e-90
-6.10386e-98
-2.55324e-123
1.28457e-104
-5.59592e-114
-4.5471e-157
8.03134e-123
-7.78507e-135
-9.08231e-190
2.04116e-156
-1.2557e-158
-5.07122e-189
5.29741e-189
-1.78239e-197
-3.47924e-188
3.71182e-188
-6.78794e-197
-2.88029e-187
3.12866e-187
-6.20637e-196
-2.8434e-186
3.13962e-186
-7.03074e-195
-3.32354e-185
3.72817e-185
-5.57303e-194
-4.58443e-184
5.2254e-184
-5.46412e-193
-7.4573e-183
8.64447e-183
-4.66669e-192
-1.43379e-181
1.69319e-181
-1.87866e-190
-3.27541e-180
3.95147e-180
-3.02957e-189
-8.96279e-179
1.10956e-178
-6.25863e-188
-2.9707e-177
3.80266e-177
-1.47742e-186
-1.20866e-175
1.62307e-175
-1.49921e-185
-6.08086e-174
8.8582e-174
-5.4035e-183
-3.57315e-172
6.33542e-172
-3.13033e-181
5.20594e-170
-3.64304e-179
-1.56626e-89
-7.45516e-90
-1.97695e-97
-2.20367e-90
2.26083e-91
-1.17493e-97
-6.32959e-105
7.54737e-91
-3.0258e-98
-2.16947e-125
1.26324e-104
-1.34506e-112
-4.66926e-157
8.00964e-123
-6.18791e-135
-1.55212e-188
2.00002e-156
-3.50394e-160
-8.32577e-188
8.63979e-188
-2.91744e-196
-5.47892e-187
5.81762e-187
-1.04803e-195
-4.34603e-186
4.70514e-186
-9.42222e-195
-4.10793e-185
4.52573e-185
-1.03871e-193
-4.59502e-184
5.14726e-184
-7.86025e-193
-6.06313e-183
6.90591e-183
-7.35629e-192
-9.43144e-182
1.09311e-181
-5.9145e-191
-1.73359e-180
2.04783e-180
-2.34537e-189
-3.78517e-179
4.56953e-179
-3.59457e-188
-9.89716e-178
1.22647e-177
-7.07755e-187
-3.13374e-176
4.01657e-176
-1.59353e-185
-1.21765e-174
1.6377e-174
-1.5361e-184
-5.84872e-173
8.53538e-173
-5.4229e-182
-3.27991e-171
5.82729e-171
-2.85189e-180
4.56861e-169
-2.98405e-178
-5.99081e-90
-2.36839e-90
-9.33845e-98
-9.31142e-91
1.21769e-91
-5.35126e-98
-5.87452e-105
2.783e-91
-1.40304e-98
-3.29459e-122
1.26783e-104
-7.94948e-113
-4.73797e-157
1.78405e-123
-1.20076e-135
-2.55179e-187
1.93846e-156
-3.08858e-160
-1.3167e-186
1.357e-186
-4.59207e-195
-8.32198e-186
8.79249e-186
-1.55714e-194
-6.33354e-185
6.8324e-185
-1.37956e-193
-5.73969e-184
6.30769e-184
-1.48268e-192
-6.15232e-183
6.8804e-183
-1.07206e-191
-7.77618e-182
8.84854e-182
-9.58061e-191
-1.15832e-180
1.34195e-180
-7.23612e-190
-2.03829e-179
2.40786e-179
-2.83163e-188
-4.25956e-178
5.1444e-178
-4.13306e-187
-1.06574e-176
1.32166e-176
-7.75729e-186
-3.22818e-175
4.14186e-175
-1.66427e-184
-1.19965e-173
1.61555e-173
-1.47643e-183
-5.50937e-172
8.05223e-172
-5.27974e-181
-2.95295e-170
5.2554e-170
-2.53744e-179
3.93692e-168
-2.38032e-177
-2.0329e-90
-6.81525e-91
-4.23968e-98
-3.48141e-91
4.96121e-92
-2.44196e-98
-7.05708e-105
9.07922e-92
-6.35636e-99
-2.67383e-124
1.33134e-104
-2.59453e-116
-4.75866e-157
1.51667e-123
-1.64836e-137
-4.05228e-186
1.86136e-156
-3.01472e-160
-2.01382e-185
2.06069e-185
-6.97987e-194
-1.22399e-184
1.28641e-184
-2.23044e-193
-8.94892e-184
9.61672e-184
-1.95689e-192
-7.78542e-183
8.53226e-183
-2.05388e-191
-8.00724e-182
8.93772e-182
-1.42135e-190
-9.7072e-181
1.10322e-180
-1.21503e-189
-1.38647e-179
1.60517e-179
-8.63693e-189
-2.33878e-178
2.76219e-178
-3.33649e-187
-4.68417e-177
5.658e-177
-4.64439e-186
-1.12296e-175
1.39326e-175
-8.31535e-185
-3.2585e-174
4.1838e-174
-1.69814e-183
-1.15972e-172
1.56328e-172
-1.36119e-182
-5.09933e-171
7.46172e-171
-5.01065e-180
-2.61599e-169
4.66209e-169
-2.21192e-178
3.3418e-167
-1.86172e-176
-6.23523e-91
-1.78618e-91
-1.86746e-98
-1.15014e-91
1.68411e-92
-1.17359e-98
-7.55825e-105
2.60826e-92
-2.74039e-99
-4.35406e-126
1.34359e-104
-3.66671e-116
-4.73011e-157
1.51232e-123
-3.22197e-136
-6.24039e-185
1.77041e-156
-2.79869e-160
-2.9904e-184
3.03735e-184
-1.02832e-192
-1.74995e-183
1.82904e-183
-3.09879e-192
-1.23063e-182
1.31701e-182
-2.69824e-191
-1.02908e-181
1.12436e-181
-2.77079e-190
-1.01681e-180
1.13247e-180
-1.8365e-189
-1.18381e-179
1.34335e-179
-1.5023e-188
-1.62332e-178
1.87753e-178
-1.00307e-187
-2.62834e-177
3.1025e-177
-3.83896e-186
-5.0516e-176
6.10078e-176
-5.09622e-185
-1.16191e-174
1.44178e-174
-8.7005e-184
-3.23404e-173
4.15403e-173
-1.68681e-182
-1.10381e-171
1.48884e-171
-1.17006e-181
-4.65323e-170
6.81454e-170
-4.63165e-179
-2.28791e-168
4.08147e-168
-1.88156e-177
2.80323e-166
-1.40631e-175
-1.73697e-91
-4.28587e-92
-7.27889e-99
-3.36274e-92
4.92623e-93
-7.03888e-99
-7.75237e-105
6.69451e-93
-9.86281e-100
-6.57976e-124
1.30595e-104
-1.6483e-115
-4.64961e-157
1.71454e-123
-5.1488e-136
-9.35616e-184
1.66659e-156
-2.42931e-160
-4.3282e-183
4.36233e-183
-1.47435e-191
-2.44149e-182
2.53696e-182
-4.18028e-191
-1.65341e-181
1.76163e-181
-3.63169e-190
-1.33054e-180
1.44887e-180
-3.65506e-189
-1.26456e-179
1.40487e-179
-2.32482e-188
-1.41561e-178
1.60344e-178
-1.82367e-187
-1.86595e-177
2.15537e-177
-1.14693e-186
-2.90346e-176
3.4243e-176
-4.34532e-185
-5.3618e-175
6.47213e-175
-5.50904e-184
-1.18472e-173
1.46978e-173
-8.9721e-183
-3.16707e-172
4.06819e-172
-1.64837e-181
-1.03797e-170
1.40038e-170
-9.61106e-181
-4.20058e-169
6.15431e-169
-4.1939e-178
-1.98212e-167
3.53806e-167
-1.56961e-176
2.33144e-165
-1.02922e-174
-4.40263e-92
-9.32403e-93
-1.8762e-99
-8.89362e-93
1.26049e-93
-2.00073e-99
-7.59331e-105
1.59857e-93
-2.68436e-100
-1.32032e-122
1.18967e-104
-2.98021e-116
-4.5208e-157
2.58461e-122
-5.60881e-136
-1.37111e-182
1.55298e-156
-2.26346e-160
-6.12996e-182
6.12884e-182
-2.06455e-190
-3.33696e-181
3.44615e-181
-5.50929e-190
-2.17872e-180
2.31031e-180
-4.78828e-189
-1.68921e-179
1.83267e-179
-4.73152e-188
-1.54605e-178
1.71272e-178
-2.89033e-187
-1.66609e-177
1.88307e-177
-2.17555e-186
-2.11356e-176
2.43738e-176
-1.28716e-185
-3.16438e-175
3.72751e-175
-4.84193e-184
-5.62156e-174
6.77984e-174
-5.86459e-183
-1.19469e-172
1.48129e-172
-9.10961e-182
-3.07118e-171
3.94366e-171
-1.58156e-180
-9.67718e-170
1.30542e-169
-7.12901e-180
-3.76436e-168
5.51533e-168
-3.72717e-177
-1.70689e-166
3.04728e-166
-1.2821e-175
1.92906e-164
-7.16451e-174
-1.00944e-92
-1.78557e-93
-3.31164e-100
-2.1883e-93
2.8064e-94
-3.46661e-100
-6.85219e-105
3.62372e-94
-4.97301e-101
-1.05288e-124
9.78723e-105
-3.40518e-115
-4.34472e-157
2.57408e-122
-9.16838e-136
-1.97185e-181
1.43141e-156
-2.04337e-160
-8.52908e-181
8.45654e-181
-2.83497e-189
-4.48561e-180
4.60242e-180
-7.09779e-189
-2.82673e-179
2.98223e-179
-6.20978e-188
-2.11395e-178
2.28428e-178
-6.0355e-187
-1.86535e-177
2.05987e-177
-3.54889e-186
-1.93737e-176
2.18415e-176
-2.56929e-185
-2.36804e-175
2.72539e-175
-1.43598e-184
-3.41532e-174
4.01675e-174
-5.35149e-183
-5.84369e-173
7.03897e-173
-6.20303e-182
-1.1959e-171
1.48135e-171
-9.19696e-181
-2.95991e-170
3.79794e-170
-1.50708e-179
-8.97779e-169
1.21039e-168
-4.42805e-179
-3.36096e-167
4.92227e-167
-3.28089e-176
-1.46627e-165
2.61696e-165
-1.03208e-174
1.59349e-163
-4.71517e-173
-2.05082e-93
-2.89832e-94
-6.03391e-101
-4.98884e-94
5.28371e-95
-5.79405e-101
-5.53293e-105
7.44326e-95
-6.26543e-102
-5.04429e-122
7.11356e-105
-8.50594e-115
-4.12185e-157
1.01785e-121
-3.27393e-133
-2.7942e-180
1.30328e-156
-1.65321e-160
-1.17054e-179
1.15054e-179
-3.83117e-188
-5.95385e-179
6.0673e-179
-8.99595e-188
-3.62535e-178
3.80403e-178
-7.95227e-187
-2.618e-177
2.81659e-177
-7.61543e-186
-2.22969e-176
2.45349e-176
-4.3141e-185
-2.2344e-175
2.51174e-175
-3.00631e-184
-2.63446e-174
3.02481e-174
-1.58641e-183
-3.66436e-173
4.30117e-173
-5.87074e-182
-6.0456e-172
7.27025e-172
-6.51671e-181
-1.19278e-170
1.47546e-170
-9.22533e-180
-2.84567e-169
3.64711e-169
-1.42371e-178
-8.31835e-168
1.12037e-167
-1.40679e-178
-3.00055e-166
4.39067e-166