/*--------------------------------*- C++ -*----------------------------------*\
| =========                 |                                                 |
| \\      /  F ield         | OpenFOAM: The Open Source CFD Toolbox           |
|  \\    /   O peration     | Version:  v2012                                 |
|   \\  /    A nd           | Website:  www.openfoam.com                      |
|    \\/     M anipulation  |                                                 |
\*---------------------------------------------------------------------------*/
FoamFile
{
    version     2.0;
    format      ascii;
    class       volScalarField;
    location    "0.35";
    object      p;
}
// * * * * * * * * * * * * * * * * * * * * * * * * * * * * * * * * * * * * * //

dimensions      [1 -1 -2 0 0 0 0];


internalField   nonuniform List<scalar> 
3338
(
3.49957e+06
3.49906e+06
3.49902e+06
3.4998e+06
3.49986e+06
3.49988e+06
3.49989e+06
3.49989e+06
3.49989e+06
3.49989e+06
3.49989e+06
3.49989e+06
3.49989e+06
3.49989e+06
3.49989e+06
3.49989e+06
3.49988e+06
3.49988e+06
3.49988e+06
3.49988e+06
3.49988e+06
3.49936e+06
3.49892e+06
3.49906e+06
3.49956e+06
3.49961e+06
3.49964e+06
3.49966e+06
3.49966e+06
3.49967e+06
3.49967e+06
3.49967e+06
3.49967e+06
3.49967e+06
3.49967e+06
3.49967e+06
3.49966e+06
3.49966e+06
3.49965e+06
3.49965e+06
3.49964e+06
3.49964e+06
3.4992e+06
3.49895e+06
3.49902e+06
3.49931e+06
3.49936e+06
3.49941e+06
3.49942e+06
3.49943e+06
3.49944e+06
3.49944e+06
3.49945e+06
3.49945e+06
3.49945e+06
3.49945e+06
3.49944e+06
3.49944e+06
3.49943e+06
3.49943e+06
3.49942e+06
3.49941e+06
3.4994e+06
3.499e+06
3.49884e+06
3.49888e+06
3.49908e+06
3.49912e+06
3.49917e+06
3.49919e+06
3.49921e+06
3.49921e+06
3.49922e+06
3.49923e+06
3.49923e+06
3.49923e+06
3.49923e+06
3.49922e+06
3.49922e+06
3.49921e+06
3.4992e+06
3.49919e+06
3.49918e+06
3.49917e+06
3.4988e+06
3.49869e+06
3.49871e+06
3.49885e+06
3.49889e+06
3.49894e+06
3.49896e+06
3.49898e+06
3.49899e+06
3.499e+06
3.499e+06
3.49901e+06
3.49901e+06
3.49901e+06
3.499e+06
3.499e+06
3.49899e+06
3.49898e+06
3.49896e+06
3.49895e+06
3.49893e+06
3.4986e+06
3.49852e+06
3.49854e+06
3.49863e+06
3.49867e+06
3.49871e+06
3.49874e+06
3.49875e+06
3.49877e+06
3.49878e+06
3.49878e+06
3.49879e+06
3.49879e+06
3.49879e+06
3.49878e+06
3.49877e+06
3.49876e+06
3.49875e+06
3.49873e+06
3.49872e+06
3.49869e+06
3.49839e+06
3.49834e+06
3.49835e+06
3.49841e+06
3.49845e+06
3.49849e+06
3.49851e+06
3.49853e+06
3.49854e+06
3.49855e+06
3.49856e+06
3.49857e+06
3.49857e+06
3.49857e+06
3.49856e+06
3.49855e+06
3.49854e+06
3.49853e+06
3.49851e+06
3.49849e+06
3.49846e+06
3.49818e+06
3.49814e+06
3.49815e+06
3.4982e+06
3.49823e+06
3.49826e+06
3.49829e+06
3.49831e+06
3.49832e+06
3.49833e+06
3.49834e+06
3.49835e+06
3.49835e+06
3.49835e+06
3.49834e+06
3.49833e+06
3.49832e+06
3.4983e+06
3.49828e+06
3.49826e+06
3.49822e+06
3.49797e+06
3.49794e+06
3.49795e+06
3.49798e+06
3.49801e+06
3.49804e+06
3.49806e+06
3.49808e+06
3.4981e+06
3.49811e+06
3.49812e+06
3.49813e+06
3.49813e+06
3.49813e+06
3.49812e+06
3.49811e+06
3.49809e+06
3.49808e+06
3.49805e+06
3.49802e+06
3.49799e+06
3.49776e+06
3.49773e+06
3.49774e+06
3.49776e+06
3.49779e+06
3.49782e+06
3.49784e+06
3.49786e+06
3.49788e+06
3.49789e+06
3.4979e+06
3.49791e+06
3.49791e+06
3.49791e+06
3.4979e+06
3.49789e+06
3.49787e+06
3.49785e+06
3.49782e+06
3.49779e+06
3.49775e+06
3.49754e+06
3.49752e+06
3.49752e+06
3.49755e+06
3.49757e+06
3.4976e+06
3.49762e+06
3.49764e+06
3.49766e+06
3.49767e+06
3.49768e+06
3.49769e+06
3.49769e+06
3.49769e+06
3.49768e+06
3.49767e+06
3.49765e+06
3.49763e+06
3.4976e+06
3.49757e+06
3.49752e+06
3.49732e+06
3.4973e+06
3.49731e+06
3.49733e+06
3.49735e+06
3.49738e+06
3.4974e+06
3.49742e+06
3.49744e+06
3.49745e+06
3.49746e+06
3.49747e+06
3.49747e+06
3.49747e+06
3.49746e+06
3.49745e+06
3.49743e+06
3.49741e+06
3.49737e+06
3.49734e+06
3.49728e+06
3.49709e+06
3.49709e+06
3.49709e+06
3.49711e+06
3.49713e+06
3.49716e+06
3.49718e+06
3.4972e+06
3.49722e+06
3.49724e+06
3.49725e+06
3.49725e+06
3.49726e+06
3.49725e+06
3.49724e+06
3.49723e+06
3.49721e+06
3.49718e+06
3.49715e+06
3.49711e+06
3.49705e+06
3.49687e+06
3.49686e+06
3.49687e+06
3.49689e+06
3.49691e+06
3.49694e+06
3.49696e+06
3.49698e+06
3.497e+06
3.49702e+06
3.49703e+06
3.49704e+06
3.49704e+06
3.49704e+06
3.49703e+06
3.49701e+06
3.49699e+06
3.49696e+06
3.49692e+06
3.49688e+06
3.49682e+06
3.49664e+06
3.49664e+06
3.49665e+06
3.49667e+06
3.49669e+06
3.49672e+06
3.49674e+06
3.49676e+06
3.49678e+06
3.4968e+06
3.49681e+06
3.49682e+06
3.49682e+06
3.49682e+06
3.49681e+06
3.49679e+06
3.49677e+06
3.49674e+06
3.4967e+06
3.49665e+06
3.49659e+06
3.49641e+06
3.49642e+06
3.49643e+06
3.49645e+06
3.49647e+06
3.4965e+06
3.49652e+06
3.49654e+06
3.49657e+06
3.49658e+06
3.4966e+06
3.49661e+06
3.49661e+06
3.49661e+06
3.4966e+06
3.49658e+06
3.49655e+06
3.49652e+06
3.49647e+06
3.49643e+06
3.49635e+06
3.49618e+06
3.49619e+06
3.4962e+06
3.49623e+06
3.49625e+06
3.49628e+06
3.4963e+06
3.49633e+06
3.49635e+06
3.49637e+06
3.49638e+06
3.49639e+06
3.49639e+06
3.49639e+06
3.49638e+06
3.49636e+06
3.49633e+06
3.4963e+06
3.49625e+06
3.4962e+06
3.49612e+06
3.49595e+06
3.49596e+06
3.49598e+06
3.496e+06
3.49603e+06
3.49606e+06
3.49608e+06
3.49611e+06
3.49613e+06
3.49615e+06
3.49617e+06
3.49618e+06
3.49618e+06
3.49618e+06
3.49617e+06
3.49615e+06
3.49612e+06
3.49608e+06
3.49603e+06
3.49598e+06
3.49589e+06
3.49572e+06
3.49574e+06
3.49576e+06
3.49578e+06
3.49581e+06
3.49584e+06
3.49587e+06
3.49589e+06
3.49592e+06
3.49594e+06
3.49595e+06
3.49596e+06
3.49597e+06
3.49596e+06
3.49595e+06
3.49593e+06
3.4959e+06
3.49586e+06
3.49581e+06
3.49575e+06
3.49567e+06
3.49549e+06
3.49551e+06
3.49553e+06
3.49556e+06
3.49559e+06
3.49562e+06
3.49565e+06
3.49568e+06
3.4957e+06
3.49573e+06
3.49574e+06
3.49575e+06
3.49576e+06
3.49575e+06
3.49574e+06
3.49572e+06
3.49569e+06
3.49565e+06
3.49559e+06
3.49553e+06
3.49544e+06
3.49525e+06
3.49528e+06
3.4953e+06
3.49533e+06
3.49537e+06
3.4954e+06
3.49543e+06
3.49546e+06
3.49549e+06
3.49551e+06
3.49553e+06
3.49554e+06
3.49555e+06
3.49554e+06
3.49553e+06
3.49551e+06
3.49547e+06
3.49543e+06
3.49537e+06
3.49531e+06
3.49521e+06
3.49502e+06
3.49505e+06
3.49508e+06
3.49511e+06
3.49515e+06
3.49518e+06
3.49522e+06
3.49525e+06
3.49528e+06
3.4953e+06
3.49532e+06
3.49533e+06
3.49534e+06
3.49533e+06
3.49532e+06
3.49529e+06
3.49526e+06
3.49521e+06
3.49515e+06
3.49509e+06
3.49499e+06
3.49478e+06
3.49482e+06
3.49485e+06
3.49489e+06
3.49493e+06
3.49496e+06
3.495e+06
3.49503e+06
3.49507e+06
3.49509e+06
3.49511e+06
3.49512e+06
3.49513e+06
3.49512e+06
3.49511e+06
3.49508e+06
3.49505e+06
3.495e+06
3.49494e+06
3.49487e+06
3.49476e+06
3.49455e+06
3.49458e+06
3.49462e+06
3.49466e+06
3.49471e+06
3.49475e+06
3.49479e+06
3.49482e+06
3.49485e+06
3.49488e+06
3.4949e+06
3.49491e+06
3.49492e+06
3.49491e+06
3.4949e+06
3.49487e+06
3.49484e+06
3.49479e+06
3.49472e+06
3.49465e+06
3.49454e+06
3.49431e+06
3.49435e+06
3.4944e+06
3.49444e+06
3.49449e+06
3.49453e+06
3.49457e+06
3.49461e+06
3.49464e+06
3.49467e+06
3.49469e+06
3.49471e+06
3.49471e+06
3.49471e+06
3.49469e+06
3.49467e+06
3.49463e+06
3.49458e+06
3.49451e+06
3.49443e+06
3.49431e+06
3.49408e+06
3.49412e+06
3.49417e+06
3.49422e+06
3.49427e+06
3.49431e+06
3.49436e+06
3.4944e+06
3.49443e+06
3.49446e+06
3.49449e+06
3.4945e+06
3.49451e+06
3.4945e+06
3.49449e+06
3.49446e+06
3.49442e+06
3.49437e+06
3.49429e+06
3.49421e+06
3.49409e+06
3.49384e+06
3.49389e+06
3.49394e+06
3.494e+06
3.49405e+06
3.4941e+06
3.49415e+06
3.49419e+06
3.49423e+06
3.49426e+06
3.49428e+06
3.4943e+06
3.4943e+06
3.4943e+06
3.49428e+06
3.49425e+06
3.49421e+06
3.49416e+06
3.49408e+06
3.494e+06
3.49387e+06
3.4936e+06
3.49366e+06
3.49372e+06
3.49377e+06
3.49383e+06
3.49388e+06
3.49393e+06
3.49398e+06
3.49402e+06
3.49405e+06
3.49408e+06
3.49409e+06
3.4941e+06
3.49409e+06
3.49408e+06
3.49405e+06
3.49401e+06
3.49395e+06
3.49387e+06
3.49378e+06
3.49366e+06
3.49337e+06
3.49343e+06
3.49349e+06
3.49355e+06
3.49361e+06
3.49367e+06
3.49372e+06
3.49377e+06
3.49381e+06
3.49385e+06
3.49387e+06
3.49389e+06
3.4939e+06
3.49389e+06
3.49388e+06
3.49385e+06
3.4938e+06
3.49374e+06
3.49366e+06
3.49357e+06
3.49344e+06
3.49313e+06
3.4932e+06
3.49327e+06
3.49333e+06
3.4934e+06
3.49346e+06
3.49351e+06
3.49356e+06
3.49361e+06
3.49364e+06
3.49367e+06
3.49369e+06
3.4937e+06
3.49369e+06
3.49368e+06
3.49364e+06
3.4936e+06
3.49354e+06
3.49345e+06
3.49336e+06
3.49322e+06
3.4929e+06
3.49297e+06
3.49304e+06
3.49311e+06
3.49318e+06
3.49325e+06
3.4933e+06
3.49336e+06
3.4934e+06
3.49344e+06
3.49347e+06
3.49349e+06
3.4935e+06
3.49349e+06
3.49348e+06
3.49344e+06
3.4934e+06
3.49333e+06
3.49325e+06
3.49315e+06
3.49301e+06
3.49266e+06
3.49274e+06
3.49282e+06
3.49289e+06
3.49297e+06
3.49303e+06
3.4931e+06
3.49315e+06
3.4932e+06
3.49324e+06
3.49327e+06
3.49329e+06
3.4933e+06
3.4933e+06
3.49328e+06
3.49325e+06
3.4932e+06
3.49313e+06
3.49304e+06
3.49295e+06
3.4928e+06
3.49243e+06
3.49251e+06
3.4926e+06
3.49268e+06
3.49275e+06
3.49283e+06
3.49289e+06
3.49295e+06
3.493e+06
3.49304e+06
3.49307e+06
3.4931e+06
3.4931e+06
3.4931e+06
3.49308e+06
3.49305e+06
3.493e+06
3.49293e+06
3.49284e+06
3.49274e+06
3.49259e+06
3.49219e+06
3.49229e+06
3.49238e+06
3.49246e+06
3.49254e+06
3.49262e+06
3.49269e+06
3.49275e+06
3.4928e+06
3.49284e+06
3.49288e+06
3.4929e+06
3.49291e+06
3.49291e+06
3.49289e+06
3.49285e+06
3.4928e+06
3.49273e+06
3.49264e+06
3.49254e+06
3.49238e+06
3.49196e+06
3.49206e+06
3.49216e+06
3.49225e+06
3.49233e+06
3.49241e+06
3.49248e+06
3.49255e+06
3.4926e+06
3.49265e+06
3.49268e+06
3.49271e+06
3.49272e+06
3.49271e+06
3.49269e+06
3.49266e+06
3.49261e+06
3.49254e+06
3.49244e+06
3.49233e+06
3.49217e+06
3.49173e+06
3.49184e+06
3.49194e+06
3.49203e+06
3.49212e+06
3.49221e+06
3.49228e+06
3.49235e+06
3.49241e+06
3.49245e+06
3.49249e+06
3.49251e+06
3.49253e+06
3.49252e+06
3.4925e+06
3.49247e+06
3.49241e+06
3.49234e+06
3.49224e+06
3.49213e+06
3.49197e+06
3.4915e+06
3.49162e+06
3.49172e+06
3.49182e+06
3.49192e+06
3.492e+06
3.49208e+06
3.49215e+06
3.49221e+06
3.49226e+06
3.4923e+06
3.49232e+06
3.49234e+06
3.49233e+06
3.49231e+06
3.49228e+06
3.49222e+06
3.49215e+06
3.49205e+06
3.49194e+06
3.49177e+06
3.49128e+06
3.4914e+06
3.49151e+06
3.49161e+06
3.49171e+06
3.4918e+06
3.49188e+06
3.49196e+06
3.49202e+06
3.49207e+06
3.49211e+06
3.49214e+06
3.49215e+06
3.49215e+06
3.49213e+06
3.49209e+06
3.49203e+06
3.49196e+06
3.49185e+06
3.49174e+06
3.49157e+06
3.49105e+06
3.49118e+06
3.4913e+06
3.49141e+06
3.49151e+06
3.4916e+06
3.49169e+06
3.49176e+06
3.49183e+06
3.49188e+06
3.49192e+06
3.49195e+06
3.49196e+06
3.49196e+06
3.49194e+06
3.4919e+06
3.49184e+06
3.49177e+06
3.49166e+06
3.49155e+06
3.49137e+06
3.49083e+06
3.49096e+06
3.49109e+06
3.4912e+06
3.49131e+06
3.49141e+06
3.49149e+06
3.49157e+06
3.49164e+06
3.49169e+06
3.49174e+06
3.49176e+06
3.49178e+06
3.49178e+06
3.49176e+06
3.49172e+06
3.49166e+06
3.49158e+06
3.49147e+06
3.49135e+06
3.49117e+06
3.49061e+06
3.49075e+06
3.49088e+06
3.491e+06
3.49111e+06
3.49121e+06
3.4913e+06
3.49138e+06
3.49145e+06
3.49151e+06
3.49155e+06
3.49158e+06
3.4916e+06
3.49159e+06
3.49157e+06
3.49154e+06
3.49148e+06
3.4914e+06
3.49129e+06
3.49116e+06
3.49098e+06
3.4904e+06
3.49054e+06
3.49067e+06
3.4908e+06
3.49091e+06
3.49102e+06
3.49111e+06
3.49119e+06
3.49127e+06
3.49132e+06
3.49137e+06
3.4914e+06
3.49142e+06
3.49141e+06
3.49139e+06
3.49136e+06
3.49129e+06
3.49121e+06
3.4911e+06
3.49098e+06
3.49079e+06
3.49018e+06
3.49033e+06
3.49047e+06
3.4906e+06
3.49072e+06
3.49082e+06
3.49092e+06
3.49101e+06
3.49108e+06
3.49114e+06
3.49119e+06
3.49122e+06
3.49124e+06
3.49124e+06
3.49122e+06
3.49118e+06
3.49111e+06
3.49103e+06
3.49092e+06
3.49079e+06
3.4906e+06
3.48997e+06
3.49013e+06
3.49027e+06
3.4904e+06
3.49052e+06
3.49064e+06
3.49074e+06
3.49082e+06
3.4909e+06
3.49096e+06
3.49101e+06
3.49104e+06
3.49106e+06
3.49106e+06
3.49104e+06
3.491e+06
3.49094e+06
3.49085e+06
3.49074e+06
3.49061e+06
3.49041e+06
3.48977e+06
3.48992e+06
3.49007e+06
3.49021e+06
3.49033e+06
3.49045e+06
3.49055e+06
3.49064e+06
3.49072e+06
3.49079e+06
3.49084e+06
3.49087e+06
3.49089e+06
3.49089e+06
3.49087e+06
3.49083e+06
3.49076e+06
3.49068e+06
3.49056e+06
3.49043e+06
3.49023e+06
3.48956e+06
3.48973e+06
3.48988e+06
3.49002e+06
3.49015e+06
3.49026e+06
3.49037e+06
3.49046e+06
3.49054e+06
3.49061e+06
3.49066e+06
3.4907e+06
3.49072e+06
3.49072e+06
3.4907e+06
3.49066e+06
3.49059e+06
3.4905e+06
3.49038e+06
3.49025e+06
3.49004e+06
3.48953e+06
3.48969e+06
3.48983e+06
3.48996e+06
3.49008e+06
3.49019e+06
3.49029e+06
3.49037e+06
3.49044e+06
3.49049e+06
3.49053e+06
3.49055e+06
3.49055e+06
3.49053e+06
3.49049e+06
3.49042e+06
3.49033e+06
3.49021e+06
3.49007e+06
3.48986e+06
3.48934e+06
3.4895e+06
3.48964e+06
3.48978e+06
3.4899e+06
3.49001e+06
3.49011e+06
3.4902e+06
3.49027e+06
3.49032e+06
3.49036e+06
3.49038e+06
3.49038e+06
3.49036e+06
3.49032e+06
3.49025e+06
3.49016e+06
3.49004e+06
3.4899e+06
3.48969e+06
3.48931e+06
3.48946e+06
3.4896e+06
3.48973e+06
3.48984e+06
3.48994e+06
3.49003e+06
3.4901e+06
3.49015e+06
3.49019e+06
3.49021e+06
3.49021e+06
3.49019e+06
3.49015e+06
3.49009e+06
3.49e+06
3.48987e+06
3.48973e+06
3.48951e+06
3.48913e+06
3.48928e+06
3.48942e+06
3.48955e+06
3.48967e+06
3.48977e+06
3.48986e+06
3.48993e+06
3.48999e+06
3.49003e+06
3.49005e+06
3.49005e+06
3.49003e+06
3.48999e+06
3.48992e+06
3.48983e+06
3.4897e+06
3.48956e+06
3.48934e+06
3.48895e+06
3.4891e+06
3.48925e+06
3.48938e+06
3.4895e+06
3.4896e+06
3.48969e+06
3.48977e+06
3.48983e+06
3.48987e+06
3.48989e+06
3.48989e+06
3.48987e+06
3.48983e+06
3.48976e+06
3.48967e+06
3.48954e+06
3.4894e+06
3.48917e+06
3.48877e+06
3.48893e+06
3.48908e+06
3.48921e+06
3.48933e+06
3.48944e+06
3.48953e+06
3.4896e+06
3.48966e+06
3.48971e+06
3.48973e+06
3.48973e+06
3.48971e+06
3.48967e+06
3.4896e+06
3.48951e+06
3.48938e+06
3.48923e+06
3.48901e+06
3.4886e+06
3.48876e+06
3.48891e+06
3.48904e+06
3.48917e+06
3.48927e+06
3.48937e+06
3.48945e+06
3.48951e+06
3.48955e+06
3.48957e+06
3.48958e+06
3.48956e+06
3.48952e+06
3.48945e+06
3.48935e+06
3.48922e+06
3.48907e+06
3.48884e+06
3.48843e+06
3.48859e+06
3.48874e+06
3.48888e+06
3.489e+06
3.48911e+06
3.48921e+06
3.48929e+06
3.48935e+06
3.4894e+06
3.48942e+06
3.48943e+06
3.48941e+06
3.48936e+06
3.48929e+06
3.4892e+06
3.48907e+06
3.48892e+06
3.48869e+06
3.48826e+06
3.48843e+06
3.48858e+06
3.48872e+06
3.48884e+06
3.48896e+06
3.48905e+06
3.48913e+06
3.4892e+06
3.48924e+06
3.48927e+06
3.48928e+06
3.48926e+06
3.48921e+06
3.48914e+06
3.48905e+06
3.48891e+06
3.48876e+06
3.48853e+06
3.4881e+06
3.48826e+06
3.48842e+06
3.48856e+06
3.48869e+06
3.4888e+06
3.4889e+06
3.48898e+06
3.48905e+06
3.48909e+06
3.48912e+06
3.48913e+06
3.48911e+06
3.48907e+06
3.489e+06
3.4889e+06
3.48876e+06
3.48861e+06
3.48837e+06
3.48794e+06
3.4881e+06
3.48826e+06
3.4884e+06
3.48853e+06
3.48865e+06
3.48875e+06
3.48883e+06
3.4889e+06
3.48895e+06
3.48898e+06
3.48898e+06
3.48896e+06
3.48892e+06
3.48885e+06
3.48875e+06
3.48862e+06
3.48846e+06
3.48822e+06
3.48778e+06
3.48795e+06
3.4881e+06
3.48825e+06
3.48838e+06
3.4885e+06
3.4886e+06
3.48869e+06
3.48875e+06
3.4888e+06
3.48883e+06
3.48884e+06
3.48882e+06
3.48878e+06
3.48871e+06
3.48861e+06
3.48847e+06
3.48832e+06
3.48808e+06
3.48762e+06
3.48779e+06
3.48795e+06
3.4881e+06
3.48823e+06
3.48835e+06
3.48845e+06
3.48854e+06
3.48861e+06
3.48866e+06
3.48869e+06
3.4887e+06
3.48868e+06
3.48864e+06
3.48857e+06
3.48847e+06
3.48833e+06
3.48817e+06
3.48793e+06
3.48747e+06
3.48764e+06
3.4878e+06
3.48795e+06
3.48808e+06
3.4882e+06
3.48831e+06
3.4884e+06
3.48847e+06
3.48852e+06
3.48855e+06
3.48856e+06
3.48855e+06
3.4885e+06
3.48843e+06
3.48834e+06
3.48819e+06
3.48804e+06
3.48779e+06
3.48732e+06
3.48749e+06
3.48765e+06
3.4878e+06
3.48794e+06
3.48806e+06
3.48817e+06
3.48826e+06
3.48833e+06
3.48839e+06
3.48842e+06
3.48843e+06
3.48841e+06
3.48837e+06
3.4883e+06
3.4882e+06
3.48806e+06
3.4879e+06
3.48765e+06
3.48717e+06
3.48734e+06
3.4875e+06
3.48766e+06
3.4878e+06
3.48792e+06
3.48803e+06
3.48812e+06
3.4882e+06
3.48825e+06
3.48828e+06
3.48829e+06
3.48828e+06
3.48824e+06
3.48817e+06
3.48807e+06
3.48793e+06
3.48777e+06
3.48752e+06
3.48702e+06
3.4872e+06
3.48736e+06
3.48751e+06
3.48766e+06
3.48778e+06
3.48789e+06
3.48799e+06
3.48806e+06
3.48812e+06
3.48815e+06
3.48817e+06
3.48815e+06
3.48811e+06
3.48804e+06
3.48794e+06
3.4878e+06
3.48764e+06
3.48739e+06
3.48688e+06
3.48705e+06
3.48722e+06
3.48738e+06
3.48752e+06
3.48765e+06
3.48776e+06
3.48786e+06
3.48793e+06
3.48799e+06
3.48803e+06
3.48804e+06
3.48803e+06
3.48799e+06
3.48792e+06
3.48782e+06
3.48767e+06
3.48751e+06
3.48726e+06
3.48673e+06
3.48691e+06
3.48708e+06
3.48724e+06
3.48738e+06
3.48751e+06
3.48763e+06
3.48773e+06
3.48781e+06
3.48786e+06
3.4879e+06
3.48792e+06
3.4879e+06
3.48786e+06
3.48779e+06
3.48769e+06
3.48755e+06
3.48739e+06
3.48713e+06
3.48659e+06
3.48677e+06
3.48694e+06
3.4871e+06
3.48725e+06
3.48738e+06
3.4875e+06
3.4876e+06
3.48768e+06
3.48774e+06
3.48778e+06
3.48779e+06
3.48778e+06
3.48774e+06
3.48767e+06
3.48758e+06
3.48743e+06
3.48727e+06
3.48701e+06
3.48646e+06
3.48664e+06
3.48681e+06
3.48697e+06
3.48712e+06
3.48726e+06
3.48737e+06
3.48748e+06
3.48756e+06
3.48762e+06
3.48766e+06
3.48768e+06
3.48767e+06
3.48763e+06
3.48756e+06
3.48746e+06
3.48731e+06
3.48715e+06
3.4869e+06
3.48632e+06
3.4865e+06
3.48668e+06
3.48684e+06
3.48699e+06
3.48713e+06
3.48725e+06
3.48735e+06
3.48744e+06
3.4875e+06
3.48754e+06
3.48756e+06
3.48755e+06
3.48751e+06
3.48744e+06
3.48735e+06
3.4872e+06
3.48704e+06
3.48678e+06
3.48618e+06
3.48637e+06
3.48655e+06
3.48671e+06
3.48687e+06
3.48701e+06
3.48713e+06
3.48724e+06
3.48732e+06
3.48739e+06
3.48743e+06
3.48745e+06
3.48744e+06
3.4874e+06
3.48733e+06
3.48724e+06
3.48709e+06
3.48693e+06
3.48667e+06
3.48605e+06
3.48624e+06
3.48642e+06
3.48659e+06
3.48675e+06
3.48689e+06
3.48701e+06
3.48712e+06
3.48721e+06
3.48727e+06
3.48732e+06
3.48734e+06
3.48733e+06
3.4873e+06
3.48723e+06
3.48713e+06
3.48699e+06
3.48682e+06
3.48656e+06
3.48592e+06
3.48611e+06
3.48629e+06
3.48647e+06
3.48663e+06
3.48677e+06
3.4869e+06
3.48701e+06
3.4871e+06
3.48717e+06
3.48721e+06
3.48723e+06
3.48723e+06
3.48719e+06
3.48712e+06
3.48703e+06
3.48688e+06
3.48672e+06
3.48646e+06
3.48579e+06
3.48598e+06
3.48617e+06
3.48635e+06
3.48651e+06
3.48665e+06
3.48678e+06
3.4869e+06
3.48699e+06
3.48706e+06
3.48711e+06
3.48713e+06
3.48712e+06
3.48709e+06
3.48702e+06
3.48693e+06
3.48678e+06
3.48662e+06
3.48636e+06
3.48566e+06
3.48586e+06
3.48605e+06
3.48623e+06
3.48639e+06
3.48654e+06
3.48667e+06
3.48679e+06
3.48688e+06
3.48695e+06
3.487e+06
3.48703e+06
3.48702e+06
3.48699e+06
3.48693e+06
3.48683e+06
3.48669e+06
3.48652e+06
3.48627e+06
3.48553e+06
3.48574e+06
3.48593e+06
3.48611e+06
3.48628e+06
3.48643e+06
3.48657e+06
3.48668e+06
3.48678e+06
3.48685e+06
3.4869e+06
3.48693e+06
3.48693e+06
3.4869e+06
3.48683e+06
3.48674e+06
3.48659e+06
3.48643e+06
3.48617e+06
3.48541e+06
3.48561e+06
3.48581e+06
3.486e+06
3.48617e+06
3.48632e+06
3.48646e+06
3.48658e+06
3.48668e+06
3.48675e+06
3.48681e+06
3.48683e+06
3.48683e+06
3.4868e+06
3.48674e+06
3.48665e+06
3.48651e+06
3.48634e+06
3.48609e+06
3.48528e+06
3.4855e+06
3.4857e+06
3.48589e+06
3.48606e+06
3.48622e+06
3.48636e+06
3.48648e+06
3.48658e+06
3.48666e+06
3.48671e+06
3.48674e+06
3.48674e+06
3.48672e+06
3.48665e+06
3.48656e+06
3.48642e+06
3.48626e+06
3.486e+06
3.48516e+06
3.48538e+06
3.48558e+06
3.48578e+06
3.48595e+06
3.48612e+06
3.48626e+06
3.48638e+06
3.48649e+06
3.48657e+06
3.48662e+06
3.48665e+06
3.48666e+06
3.48663e+06
3.48657e+06
3.48648e+06
3.48634e+06
3.48618e+06
3.48592e+06
3.48504e+06
3.48526e+06
3.48547e+06
3.48567e+06
3.48585e+06
3.48602e+06
3.48616e+06
3.48629e+06
3.48639e+06
3.48648e+06
3.48654e+06
3.48657e+06
3.48657e+06
3.48655e+06
3.48649e+06
3.4864e+06
3.48626e+06
3.4861e+06
3.48584e+06
3.48492e+06
3.48515e+06
3.48537e+06
3.48557e+06
3.48575e+06
3.48592e+06
3.48607e+06
3.4862e+06
3.48631e+06
3.48639e+06
3.48645e+06
3.48649e+06
3.48649e+06
3.48647e+06
3.48641e+06
3.48632e+06
3.48618e+06
3.48602e+06
3.48577e+06
3.4848e+06
3.48504e+06
3.48526e+06
3.48546e+06
3.48565e+06
3.48582e+06
3.48598e+06
3.48611e+06
3.48622e+06
3.48631e+06
3.48637e+06
3.48641e+06
3.48641e+06
3.48639e+06
3.48633e+06
3.48625e+06
3.48611e+06
3.48595e+06
3.4857e+06
3.48469e+06
3.48493e+06
3.48516e+06
3.48537e+06
3.48556e+06
3.48573e+06
3.48589e+06
3.48602e+06
3.48614e+06
3.48623e+06
3.48629e+06
3.48633e+06
3.48634e+06
3.48632e+06
3.48626e+06
3.48618e+06
3.48604e+06
3.48588e+06
3.48563e+06
3.48458e+06
3.48482e+06
3.48505e+06
3.48527e+06
3.48547e+06
3.48564e+06
3.4858e+06
3.48594e+06
3.48606e+06
3.48615e+06
3.48621e+06
3.48626e+06
3.48627e+06
3.48625e+06
3.48619e+06
3.48611e+06
3.48598e+06
3.48582e+06
3.48557e+06
3.48447e+06
3.48472e+06
3.48496e+06
3.48517e+06
3.48538e+06
3.48556e+06
3.48572e+06
3.48586e+06
3.48598e+06
3.48607e+06
3.48436e+06
3.48462e+06
3.48486e+06
3.48508e+06
3.48529e+06
3.48547e+06
3.48564e+06
3.49957e+06
3.49906e+06
3.49902e+06
3.4998e+06
3.49986e+06
3.49988e+06
3.49989e+06
3.49989e+06
3.49989e+06
3.49989e+06
3.49989e+06
3.49989e+06
3.49989e+06
3.49989e+06
3.49989e+06
3.49989e+06
3.49988e+06
3.49988e+06
3.49988e+06
3.49988e+06
3.49988e+06
3.49936e+06
3.49892e+06
3.49906e+06
3.49956e+06
3.49961e+06
3.49964e+06
3.49966e+06
3.49966e+06
3.49967e+06
3.49967e+06
3.49967e+06
3.49967e+06
3.49967e+06
3.49967e+06
3.49967e+06
3.49966e+06
3.49966e+06
3.49965e+06
3.49965e+06
3.49964e+06
3.49964e+06
3.4992e+06
3.49895e+06
3.49902e+06
3.49931e+06
3.49936e+06
3.49941e+06
3.49942e+06
3.49943e+06
3.49944e+06
3.49944e+06
3.49945e+06
3.49945e+06
3.49945e+06
3.49945e+06
3.49944e+06
3.49944e+06
3.49943e+06
3.49943e+06
3.49942e+06
3.49941e+06
3.4994e+06
3.499e+06
3.49884e+06
3.49888e+06
3.49908e+06
3.49912e+06
3.49917e+06
3.49919e+06
3.49921e+06
3.49921e+06
3.49922e+06
3.49923e+06
3.49923e+06
3.49923e+06
3.49923e+06
3.49922e+06
3.49922e+06
3.49921e+06
3.4992e+06
3.49919e+06
3.49918e+06
3.49917e+06
3.4988e+06
3.49869e+06
3.49871e+06
3.49885e+06
3.49889e+06
3.49894e+06
3.49896e+06
3.49898e+06
3.49899e+06
3.499e+06
3.499e+06
3.49901e+06
3.49901e+06
3.49901e+06
3.499e+06
3.499e+06
3.49899e+06
3.49898e+06
3.49896e+06
3.49895e+06
3.49893e+06
3.4986e+06
3.49852e+06
3.49854e+06
3.49863e+06
3.49867e+06
3.49871e+06
3.49874e+06
3.49875e+06
3.49877e+06
3.49878e+06
3.49878e+06
3.49879e+06
3.49879e+06
3.49879e+06
3.49878e+06
3.49877e+06
3.49876e+06
3.49875e+06
3.49873e+06
3.49872e+06
3.49869e+06
3.49839e+06
3.49834e+06
3.49835e+06
3.49841e+06
3.49845e+06
3.49849e+06
3.49851e+06
3.49853e+06
3.49854e+06
3.49855e+06
3.49856e+06
3.49857e+06
3.49857e+06
3.49857e+06
3.49856e+06
3.49855e+06
3.49854e+06
3.49853e+06
3.49851e+06
3.49849e+06
3.49846e+06
3.49818e+06
3.49814e+06
3.49815e+06
3.4982e+06
3.49823e+06
3.49826e+06
3.49829e+06
3.49831e+06
3.49832e+06
3.49833e+06
3.49834e+06
3.49835e+06
3.49835e+06
3.49835e+06
3.49834e+06
3.49833e+06
3.49832e+06
3.4983e+06
3.49828e+06
3.49826e+06
3.49822e+06
3.49797e+06
3.49794e+06
3.49795e+06
3.49798e+06
3.49801e+06
3.49804e+06
3.49806e+06
3.49808e+06
3.4981e+06
3.49811e+06
3.49812e+06
3.49813e+06
3.49813e+06
3.49813e+06
3.49812e+06
3.49811e+06
3.49809e+06
3.49808e+06
3.49805e+06
3.49802e+06
3.49799e+06
3.49776e+06
3.49773e+06
3.49774e+06
3.49776e+06
3.49779e+06
3.49782e+06
3.49784e+06
3.49786e+06
3.49788e+06
3.49789e+06
3.4979e+06
3.49791e+06
3.49791e+06
3.49791e+06
3.4979e+06
3.49789e+06
3.49787e+06
3.49785e+06
3.49782e+06
3.49779e+06
3.49775e+06
3.49754e+06
3.49752e+06
3.49752e+06
3.49755e+06
3.49757e+06
3.4976e+06
3.49762e+06
3.49764e+06
3.49766e+06
3.49767e+06
3.49768e+06
3.49769e+06
3.49769e+06
3.49769e+06
3.49768e+06
3.49767e+06
3.49765e+06
3.49763e+06
3.4976e+06
3.49757e+06
3.49752e+06
3.49732e+06
3.4973e+06
3.49731e+06
3.49733e+06
3.49735e+06
3.49738e+06
3.4974e+06
3.49742e+06
3.49744e+06
3.49745e+06
3.49746e+06
3.49747e+06
3.49747e+06
3.49747e+06
3.49746e+06
3.49745e+06
3.49743e+06
3.49741e+06
3.49737e+06
3.49734e+06
3.49728e+06
3.49709e+06
3.49709e+06
3.49709e+06
3.49711e+06
3.49713e+06
3.49716e+06
3.49718e+06
3.4972e+06
3.49722e+06
3.49724e+06
3.49725e+06
3.49725e+06
3.49726e+06
3.49725e+06
3.49724e+06
3.49723e+06
3.49721e+06
3.49718e+06
3.49715e+06
3.49711e+06
3.49705e+06
3.49687e+06
3.49686e+06
3.49687e+06
3.49689e+06
3.49691e+06
3.49694e+06
3.49696e+06
3.49698e+06
3.497e+06
3.49702e+06
3.49703e+06
3.49704e+06
3.49704e+06
3.49704e+06
3.49703e+06
3.49701e+06
3.49699e+06
3.49696e+06
3.49692e+06
3.49688e+06
3.49682e+06
3.49664e+06
3.49664e+06
3.49665e+06
3.49667e+06
3.49669e+06
3.49672e+06
3.49674e+06
3.49676e+06
3.49678e+06
3.4968e+06
3.49681e+06
3.49682e+06
3.49682e+06
3.49682e+06
3.49681e+06
3.49679e+06
3.49677e+06
3.49674e+06
3.4967e+06
3.49665e+06
3.49659e+06
3.49641e+06
3.49642e+06
3.49643e+06
3.49645e+06
3.49647e+06
3.4965e+06
3.49652e+06
3.49654e+06
3.49657e+06
3.49658e+06
3.4966e+06
3.49661e+06
3.49661e+06
3.49661e+06
3.4966e+06
3.49658e+06
3.49655e+06
3.49652e+06
3.49647e+06
3.49643e+06
3.49635e+06
3.49618e+06
3.49619e+06
3.4962e+06
3.49623e+06
3.49625e+06
3.49628e+06
3.4963e+06
3.49633e+06
3.49635e+06
3.49637e+06
3.49638e+06
3.49639e+06
3.49639e+06
3.49639e+06
3.49638e+06
3.49636e+06
3.49633e+06
3.4963e+06
3.49625e+06
3.4962e+06
3.49612e+06
3.49595e+06
3.49596e+06
3.49598e+06
3.496e+06
3.49603e+06
3.49606e+06
3.49608e+06
3.49611e+06
3.49613e+06
3.49615e+06
3.49617e+06
3.49618e+06
3.49618e+06
3.49618e+06
3.49617e+06
3.49615e+06
3.49612e+06
3.49608e+06
3.49603e+06
3.49598e+06
3.49589e+06
3.49572e+06
3.49574e+06
3.49576e+06
3.49578e+06
3.49581e+06
3.49584e+06
3.49587e+06
3.49589e+06
3.49592e+06
3.49594e+06
3.49595e+06
3.49596e+06
3.49597e+06
3.49596e+06
3.49595e+06
3.49593e+06
3.4959e+06
3.49586e+06
3.49581e+06
3.49575e+06
3.49567e+06
3.49549e+06
3.49551e+06
3.49553e+06
3.49556e+06
3.49559e+06
3.49562e+06
3.49565e+06
3.49568e+06
3.4957e+06
3.49573e+06
3.49574e+06
3.49575e+06
3.49576e+06
3.49575e+06
3.49574e+06
3.49572e+06
3.49569e+06
3.49565e+06
3.49559e+06
3.49553e+06
3.49544e+06
3.49525e+06
3.49528e+06
3.4953e+06
3.49533e+06
3.49537e+06
3.4954e+06
3.49543e+06
3.49546e+06
3.49549e+06
3.49551e+06
3.49553e+06
3.49554e+06
3.49555e+06
3.49554e+06
3.49553e+06
3.49551e+06
3.49547e+06
3.49543e+06
3.49537e+06
3.49531e+06
3.49521e+06
3.49502e+06
3.49505e+06
3.49508e+06
3.49511e+06
3.49515e+06
3.49518e+06
3.49522e+06
3.49525e+06
3.49528e+06
3.4953e+06
3.49532e+06
3.49533e+06
3.49534e+06
3.49533e+06
3.49532e+06
3.49529e+06
3.49526e+06
3.49521e+06
3.49515e+06
3.49509e+06
3.49499e+06
3.49478e+06
3.49482e+06
3.49485e+06
3.49489e+06
3.49493e+06
3.49496e+06
3.495e+06
3.49503e+06
3.49507e+06
3.49509e+06
3.49511e+06
3.49512e+06
3.49513e+06
3.49512e+06
3.49511e+06
3.49508e+06
3.49505e+06
3.495e+06
3.49494e+06
3.49487e+06
3.49476e+06
3.49455e+06
3.49458e+06
3.49462e+06
3.49466e+06
3.49471e+06
3.49475e+06
3.49479e+06
3.49482e+06
3.49485e+06
3.49488e+06
3.4949e+06
3.49491e+06
3.49492e+06
3.49491e+06
3.4949e+06
3.49487e+06
3.49484e+06
3.49479e+06
3.49472e+06
3.49465e+06
3.49454e+06
3.49431e+06
3.49435e+06
3.4944e+06
3.49444e+06
3.49449e+06
3.49453e+06
3.49457e+06
3.49461e+06
3.49464e+06
3.49467e+06
3.49469e+06
3.49471e+06
3.49471e+06
3.49471e+06
3.49469e+06
3.49467e+06
3.49463e+06
3.49458e+06
3.49451e+06
3.49443e+06
3.49431e+06
3.49408e+06
3.49412e+06
3.49417e+06
3.49422e+06
3.49427e+06
3.49431e+06
3.49436e+06
3.4944e+06
3.49443e+06
3.49446e+06
3.49449e+06
3.4945e+06
3.49451e+06
3.4945e+06
3.49449e+06
3.49446e+06
3.49442e+06
3.49437e+06
3.49429e+06
3.49421e+06
3.49409e+06
3.49384e+06
3.49389e+06
3.49394e+06
3.494e+06
3.49405e+06
3.4941e+06
3.49415e+06
3.49419e+06
3.49423e+06
3.49426e+06
3.49428e+06
3.4943e+06
3.4943e+06
3.4943e+06
3.49428e+06
3.49425e+06
3.49421e+06
3.49416e+06
3.49408e+06
3.494e+06
3.49387e+06
3.4936e+06
3.49366e+06
3.49372e+06
3.49377e+06
3.49383e+06
3.49388e+06
3.49393e+06
3.49398e+06
3.49402e+06
3.49405e+06
3.49408e+06
3.49409e+06
3.4941e+06
3.49409e+06
3.49408e+06
3.49405e+06
3.49401e+06
3.49395e+06
3.49387e+06
3.49378e+06
3.49366e+06
3.49337e+06
3.49343e+06
3.49349e+06
3.49355e+06
3.49361e+06
3.49367e+06
3.49372e+06
3.49377e+06
3.49381e+06
3.49385e+06
3.49387e+06
3.49389e+06
3.4939e+06
3.49389e+06
3.49388e+06
3.49385e+06
3.4938e+06
3.49374e+06
3.49366e+06
3.49357e+06
3.49344e+06
3.49313e+06
3.4932e+06
3.49327e+06
3.49333e+06
3.4934e+06
3.49346e+06
3.49351e+06
3.49356e+06
3.49361e+06
3.49364e+06
3.49367e+06
3.49369e+06
3.4937e+06
3.49369e+06
3.49368e+06
3.49364e+06
3.4936e+06
3.49354e+06
3.49345e+06
3.49336e+06
3.49322e+06
3.4929e+06
3.49297e+06
3.49304e+06
3.49311e+06
3.49318e+06
3.49325e+06
3.4933e+06
3.49336e+06
3.4934e+06
3.49344e+06
3.49347e+06
3.49349e+06
3.4935e+06
3.49349e+06
3.49348e+06
3.49344e+06
3.4934e+06
3.49333e+06
3.49325e+06
3.49315e+06
3.49301e+06
3.49266e+06
3.49274e+06
3.49282e+06
3.49289e+06
3.49297e+06
3.49303e+06
3.4931e+06
3.49315e+06
3.4932e+06
3.49324e+06
3.49327e+06
3.49329e+06
3.4933e+06
3.4933e+06
3.49328e+06
3.49325e+06
3.4932e+06
3.49313e+06
3.49304e+06
3.49295e+06
3.4928e+06
3.49243e+06
3.49251e+06
3.4926e+06
3.49268e+06
3.49275e+06
3.49283e+06
3.49289e+06
3.49295e+06
3.493e+06
3.49304e+06
3.49307e+06
3.4931e+06
3.4931e+06
3.4931e+06
3.49308e+06
3.49305e+06
3.493e+06
3.49293e+06
3.49284e+06
3.49274e+06
3.49259e+06
3.49219e+06
3.49229e+06
3.49238e+06
3.49246e+06
3.49254e+06
3.49262e+06
3.49269e+06
3.49275e+06
3.4928e+06
3.49284e+06
3.49288e+06
3.4929e+06
3.49291e+06
3.49291e+06
3.49289e+06
3.49285e+06
3.4928e+06
3.49273e+06
3.49264e+06
3.49254e+06
3.49238e+06
3.49196e+06
3.49206e+06
3.49216e+06
3.49225e+06
3.49233e+06
3.49241e+06
3.49248e+06
3.49255e+06
3.4926e+06
3.49265e+06
3.49268e+06
3.49271e+06
3.49272e+06
3.49271e+06
3.49269e+06
3.49266e+06
3.49261e+06
3.49254e+06
3.49244e+06
3.49233e+06
3.49217e+06
3.49173e+06
3.49184e+06
3.49194e+06
3.49203e+06
3.49212e+06
3.49221e+06
3.49228e+06
3.49235e+06
3.49241e+06
3.49245e+06
3.49249e+06
3.49251e+06
3.49253e+06
3.49252e+06
3.4925e+06
3.49247e+06
3.49241e+06
3.49234e+06
3.49224e+06
3.49213e+06
3.49197e+06
3.4915e+06
3.49162e+06
3.49172e+06
3.49182e+06
3.49192e+06
3.492e+06
3.49208e+06
3.49215e+06
3.49221e+06
3.49226e+06
3.4923e+06
3.49232e+06
3.49234e+06
3.49233e+06
3.49231e+06
3.49228e+06
3.49222e+06
3.49215e+06
3.49205e+06
3.49194e+06
3.49177e+06
3.49128e+06
3.4914e+06
3.49151e+06
3.49161e+06
3.49171e+06
3.4918e+06
3.49188e+06