/*--------------------------------*- C++ -*----------------------------------*\
| =========                 |                                                 |
| \\      /  F ield         | OpenFOAM: The Open Source CFD Toolbox           |
|  \\    /   O peration     | Version:  v2012                                 |
|   \\  /    A nd           | Website:  www.openfoam.com                      |
|    \\/     M anipulation  |                                                 |
\*---------------------------------------------------------------------------*/
FoamFile
{
    version     2.0;
    format      ascii;
    class       volScalarField;
    location    "0.9";
    object      p_rgh;
}
// * * * * * * * * * * * * * * * * * * * * * * * * * * * * * * * * * * * * * //

dimensions      [1 -1 -2 0 0 0 0];


internalField   nonuniform List<scalar> 
3326
(
3.48582e+06
3.48587e+06
3.48588e+06
3.48587e+06
3.48582e+06
3.48574e+06
3.48561e+06
3.48545e+06
3.4852e+06
3.48543e+06
3.48556e+06
3.48567e+06
3.48575e+06
3.4858e+06
3.48582e+06
3.48581e+06
3.48576e+06
3.48568e+06
3.48555e+06
3.48539e+06
3.48514e+06
3.43802e+06
3.44404e+06
3.44996e+06
3.45449e+06
3.45854e+06
3.46187e+06
3.46477e+06
3.46722e+06
3.46935e+06
3.47117e+06
3.47276e+06
3.47414e+06
3.47535e+06
3.47641e+06
3.47736e+06
3.4782e+06
3.47896e+06
3.47964e+06
3.48026e+06
3.48083e+06
3.48134e+06
3.48182e+06
3.48226e+06
3.48267e+06
3.48305e+06
3.4834e+06
3.48373e+06
3.48403e+06
3.48431e+06
3.48457e+06
3.4848e+06
3.48501e+06
3.4852e+06
3.48536e+06
3.48549e+06
3.4856e+06
3.48568e+06
3.48574e+06
3.48576e+06
3.48575e+06
3.4857e+06
3.48562e+06
3.48549e+06
3.48534e+06
3.48509e+06
3.43788e+06
3.44388e+06
3.44979e+06
3.4543e+06
3.45834e+06
3.46167e+06
3.46456e+06
3.46702e+06
3.46915e+06
3.47098e+06
3.47258e+06
3.47396e+06
3.47518e+06
3.47626e+06
3.47721e+06
3.47806e+06
3.47882e+06
3.47951e+06
3.48014e+06
3.48071e+06
3.48123e+06
3.48172e+06
3.48216e+06
3.48258e+06
3.48296e+06
3.48331e+06
3.48365e+06
3.48395e+06
3.48423e+06
3.48449e+06
3.48473e+06
3.48494e+06
3.48513e+06
3.48529e+06
3.48543e+06
3.48554e+06
3.48562e+06
3.48568e+06
3.4857e+06
3.48569e+06
3.48564e+06
3.48557e+06
3.48544e+06
3.48529e+06
3.48505e+06
3.43778e+06
3.44378e+06
3.44968e+06
3.45418e+06
3.45821e+06
3.46153e+06
3.46442e+06
3.46687e+06
3.469e+06
3.47083e+06
3.47243e+06
3.47382e+06
3.47504e+06
3.47612e+06
3.47708e+06
3.47794e+06
3.4787e+06
3.4794e+06
3.48003e+06
3.4806e+06
3.48113e+06
3.48162e+06
3.48207e+06
3.48248e+06
3.48287e+06
3.48323e+06
3.48356e+06
3.48387e+06
3.48416e+06
3.48442e+06
3.48466e+06
3.48487e+06
3.48506e+06
3.48523e+06
3.48537e+06
3.48548e+06
3.48556e+06
3.48562e+06
3.48564e+06
3.48564e+06
3.48559e+06
3.48552e+06
3.48539e+06
3.48524e+06
3.485e+06
3.43772e+06
3.44374e+06
3.44963e+06
3.45413e+06
3.45814e+06
3.46145e+06
3.46432e+06
3.46677e+06
3.46889e+06
3.47072e+06
3.47231e+06
3.4737e+06
3.47493e+06
3.47601e+06
3.47697e+06
3.47782e+06
3.47859e+06
3.47929e+06
3.47992e+06
3.4805e+06
3.48103e+06
3.48152e+06
3.48198e+06
3.4824e+06
3.48279e+06
3.48315e+06
3.48348e+06
3.4838e+06
3.48408e+06
3.48435e+06
3.48459e+06
3.48481e+06
3.485e+06
3.48517e+06
3.48531e+06
3.48542e+06
3.48551e+06
3.48557e+06
3.48559e+06
3.48559e+06
3.48555e+06
3.48547e+06
3.48535e+06
3.4852e+06
3.48496e+06
3.43772e+06
3.44378e+06
3.44965e+06
3.45415e+06
3.45814e+06
3.46143e+06
3.46429e+06
3.46672e+06
3.46882e+06
3.47064e+06
3.47223e+06
3.47361e+06
3.47483e+06
3.47591e+06
3.47687e+06
3.47773e+06
3.4785e+06
3.47919e+06
3.47983e+06
3.48041e+06
3.48094e+06
3.48143e+06
3.48189e+06
3.48231e+06
3.4827e+06
3.48307e+06
3.48341e+06
3.48372e+06
3.48401e+06
3.48428e+06
3.48452e+06
3.48474e+06
3.48494e+06
3.48511e+06
3.48525e+06
3.48537e+06
3.48546e+06
3.48552e+06
3.48554e+06
3.48554e+06
3.4855e+06
3.48543e+06
3.48531e+06
3.48516e+06
3.48493e+06
3.43778e+06
3.44388e+06
3.44974e+06
3.45423e+06
3.45819e+06
3.46146e+06
3.4643e+06
3.46671e+06
3.4688e+06
3.4706e+06
3.47217e+06
3.47355e+06
3.47476e+06
3.47583e+06
3.47679e+06
3.47764e+06
3.47841e+06
3.47911e+06
3.47974e+06
3.48032e+06
3.48086e+06
3.48135e+06
3.48181e+06
3.48223e+06
3.48263e+06
3.483e+06
3.48334e+06
3.48365e+06
3.48395e+06
3.48422e+06
3.48446e+06
3.48468e+06
3.48488e+06
3.48505e+06
3.4852e+06
3.48532e+06
3.48541e+06
3.48547e+06
3.4855e+06
3.4855e+06
3.48546e+06
3.48539e+06
3.48527e+06
3.48513e+06
3.4849e+06
3.43793e+06
3.44408e+06
3.44991e+06
3.45438e+06
3.45832e+06
3.46156e+06
3.46436e+06
3.46675e+06
3.46881e+06
3.4706e+06
3.47215e+06
3.47351e+06
3.47471e+06
3.47578e+06
3.47672e+06
3.47757e+06
3.47834e+06
3.47903e+06
3.47966e+06
3.48024e+06
3.48078e+06
3.48127e+06
3.48173e+06
3.48216e+06
3.48255e+06
3.48292e+06
3.48327e+06
3.48359e+06
3.48388e+06
3.48416e+06
3.48441e+06
3.48463e+06
3.48483e+06
3.485e+06
3.48515e+06
3.48527e+06
3.48536e+06
3.48543e+06
3.48546e+06
3.48546e+06
3.48542e+06
3.48535e+06
3.48524e+06
3.4851e+06
3.48487e+06
3.43819e+06
3.44438e+06
3.45017e+06
3.45462e+06
3.45851e+06
3.46172e+06
3.46448e+06
3.46684e+06
3.46887e+06
3.47063e+06
3.47216e+06
3.4735e+06
3.47469e+06
3.47574e+06
3.47667e+06
3.47751e+06
3.47827e+06
3.47896e+06
3.47959e+06
3.48017e+06
3.4807e+06
3.4812e+06
3.48166e+06
3.48209e+06
3.48249e+06
3.48286e+06
3.4832e+06
3.48353e+06
3.48383e+06
3.4841e+06
3.48435e+06
3.48458e+06
3.48478e+06
3.48496e+06
3.48511e+06
3.48523e+06
3.48532e+06
3.48539e+06
3.48542e+06
3.48542e+06
3.48539e+06
3.48532e+06
3.48521e+06
3.48507e+06
3.48485e+06
3.43859e+06
3.44481e+06
3.45052e+06
3.45494e+06
3.45878e+06
3.46194e+06
3.46466e+06
3.46697e+06
3.46896e+06
3.47069e+06
3.4722e+06
3.47351e+06
3.47468e+06
3.47571e+06
3.47664e+06
3.47747e+06
3.47822e+06
3.4789e+06
3.47953e+06
3.4801e+06
3.48064e+06
3.48113e+06
3.48159e+06
3.48202e+06
3.48242e+06
3.48279e+06
3.48314e+06
3.48347e+06
3.48377e+06
3.48405e+06
3.4843e+06
3.48453e+06
3.48473e+06
3.48491e+06
3.48506e+06
3.48519e+06
3.48528e+06
3.48535e+06
3.48538e+06
3.48539e+06
3.48535e+06
3.48529e+06
3.48518e+06
3.48505e+06
3.48483e+06
3.43915e+06
3.44538e+06
3.45099e+06
3.45535e+06
3.45912e+06
3.46223e+06
3.46489e+06
3.46715e+06
3.4691e+06
3.47079e+06
3.47226e+06
3.47355e+06
3.47469e+06
3.4757e+06
3.47661e+06
3.47743e+06
3.47817e+06
3.47885e+06
3.47947e+06
3.48004e+06
3.48057e+06
3.48107e+06
3.48153e+06
3.48196e+06
3.48236e+06
3.48274e+06
3.48309e+06
3.48341e+06
3.48372e+06
3.484e+06
3.48425e+06
3.48448e+06
3.48469e+06
3.48487e+06
3.48502e+06
3.48515e+06
3.48525e+06
3.48532e+06
3.48535e+06
3.48536e+06
3.48533e+06
3.48526e+06
3.48516e+06
3.48502e+06
3.48481e+06
3.43989e+06
3.4461e+06
3.45158e+06
3.45587e+06
3.45955e+06
3.46258e+06
3.46518e+06
3.46738e+06
3.46927e+06
3.47092e+06
3.47235e+06
3.47361e+06
3.47472e+06
3.47571e+06
3.4766e+06
3.47741e+06
3.47814e+06
3.47881e+06
3.47942e+06
3.47999e+06
3.48052e+06
3.48101e+06
3.48147e+06
3.4819e+06
3.4823e+06
3.48268e+06
3.48303e+06
3.48336e+06
3.48367e+06
3.48395e+06
3.48421e+06
3.48444e+06
3.48465e+06
3.48483e+06
3.48499e+06
3.48512e+06
3.48522e+06
3.48529e+06
3.48532e+06
3.48533e+06
3.4853e+06
3.48524e+06
3.48514e+06
3.48501e+06
3.4848e+06
3.44083e+06
3.44699e+06
3.45231e+06
3.4565e+06
3.46007e+06
3.46301e+06
3.46552e+06
3.46765e+06
3.46949e+06
3.47108e+06
3.47246e+06
3.47368e+06
3.47477e+06
3.47573e+06
3.4766e+06
3.47739e+06
3.47811e+06
3.47877e+06
3.47937e+06
3.47994e+06
3.48046e+06
3.48095e+06
3.48141e+06
3.48184e+06
3.48225e+06
3.48263e+06
3.48298e+06
3.48331e+06
3.48362e+06
3.48391e+06
3.48417e+06
3.4844e+06
3.48461e+06
3.4848e+06
3.48496e+06
3.48509e+06
3.48519e+06
3.48526e+06
3.4853e+06
3.48531e+06
3.48528e+06
3.48522e+06
3.48512e+06
3.48499e+06
3.48479e+06
3.442e+06
3.44805e+06
3.45318e+06
3.45724e+06
3.46068e+06
3.46351e+06
3.46592e+06
3.46797e+06
3.46974e+06
3.47127e+06
3.4726e+06
3.47378e+06
3.47483e+06
3.47577e+06
3.47661e+06
3.47738e+06
3.47809e+06
3.47874e+06
3.47933e+06
3.47989e+06
3.48041e+06
3.4809e+06
3.48136e+06
3.48179e+06
3.4822e+06
3.48258e+06
3.48293e+06
3.48327e+06
3.48358e+06
3.48387e+06
3.48413e+06
3.48437e+06
3.48458e+06
3.48477e+06
3.48493e+06
3.48506e+06
3.48516e+06
3.48523e+06
3.48528e+06
3.48528e+06
3.48526e+06
3.4852e+06
3.4851e+06
3.48498e+06
3.48478e+06
3.44342e+06
3.44931e+06
3.4542e+06
3.45811e+06
3.46138e+06
3.46408e+06
3.46638e+06
3.46834e+06
3.47002e+06
3.47148e+06
3.47276e+06
3.4739e+06
3.47491e+06
3.47581e+06
3.47663e+06
3.47738e+06
3.47807e+06
3.47871e+06
3.4793e+06
3.47985e+06
3.48037e+06
3.48085e+06
3.48131e+06
3.48174e+06
3.48215e+06
3.48253e+06
3.48289e+06
3.48323e+06
3.48354e+06
3.48383e+06
3.48409e+06
3.48434e+06
3.48455e+06
3.48474e+06
3.4849e+06
3.48504e+06
3.48514e+06
3.48521e+06
3.48526e+06
3.48527e+06
3.48524e+06
3.48519e+06
3.48509e+06
3.48498e+06
3.48478e+06
3.44513e+06
3.45077e+06
3.45539e+06
3.45909e+06
3.46217e+06
3.46473e+06
3.4669e+06
3.46874e+06
3.47034e+06
3.47172e+06
3.47294e+06
3.47403e+06
3.47499e+06
3.47587e+06
3.47666e+06
3.47739e+06
3.47806e+06
3.47869e+06
3.47927e+06
3.47981e+06
3.48032e+06
3.48081e+06
3.48126e+06
3.48169e+06
3.4821e+06
3.48249e+06
3.48285e+06
3.48319e+06
3.4835e+06
3.4838e+06
3.48406e+06
3.48431e+06
3.48453e+06
3.48472e+06
3.48488e+06
3.48502e+06
3.48512e+06
3.4852e+06
3.48524e+06
3.48525e+06
3.48523e+06
3.48518e+06
3.48509e+06
3.48497e+06
3.48478e+06
3.44713e+06
3.45244e+06
3.45673e+06
3.46019e+06
3.46306e+06
3.46544e+06
3.46746e+06
3.46919e+06
3.47068e+06
3.47199e+06
3.47314e+06
3.47417e+06
3.47509e+06
3.47593e+06
3.4767e+06
3.4774e+06
3.47806e+06
3.47867e+06
3.47924e+06
3.47978e+06
3.48028e+06
3.48076e+06
3.48122e+06
3.48165e+06
3.48206e+06
3.48245e+06
3.48281e+06
3.48315e+06
3.48347e+06
3.48377e+06
3.48404e+06
3.48428e+06
3.4845e+06
3.4847e+06
3.48486e+06
3.485e+06
3.48511e+06
3.48518e+06
3.48523e+06
3.48524e+06
3.48522e+06
3.48517e+06
3.48508e+06
3.48497e+06
3.48479e+06
3.44943e+06
3.45431e+06
3.45823e+06
3.4614e+06
3.46402e+06
3.46621e+06
3.46807e+06
3.46967e+06
3.47106e+06
3.47227e+06
3.47335e+06
3.47432e+06
3.4752e+06
3.476e+06
3.47673e+06
3.47742e+06
3.47805e+06
3.47865e+06
3.47921e+06
3.47974e+06
3.48025e+06
3.48072e+06
3.48118e+06
3.48161e+06
3.48202e+06
3.48241e+06
3.48277e+06
3.48312e+06
3.48344e+06
3.48374e+06
3.48401e+06
3.48426e+06
3.48449e+06
3.48468e+06
3.48485e+06
3.48499e+06
3.4851e+06
3.48517e+06
3.48522e+06
3.48523e+06
3.48521e+06
3.48517e+06
3.48508e+06
3.48497e+06
3.4848e+06
3.45201e+06
3.45637e+06
3.45987e+06
3.46271e+06
3.46506e+06
3.46704e+06
3.46872e+06
3.47018e+06
3.47145e+06
3.47257e+06
3.47357e+06
3.47448e+06
3.47531e+06
3.47607e+06
3.47677e+06
3.47743e+06
3.47805e+06
3.47863e+06
3.47919e+06
3.47971e+06
3.48021e+06
3.48069e+06
3.48114e+06
3.48157e+06
3.48198e+06
3.48237e+06
3.48274e+06
3.48309e+06
3.48341e+06
3.48371e+06
3.48399e+06
3.48424e+06
3.48447e+06
3.48467e+06
3.48484e+06
3.48498e+06
3.48509e+06
3.48517e+06
3.48521e+06
3.48523e+06
3.48521e+06
3.48516e+06
3.48508e+06
3.48498e+06
3.48481e+06
3.45483e+06
3.4586e+06
3.46163e+06
3.4641e+06
3.46616e+06
3.46791e+06
3.4694e+06
3.4707e+06
3.47185e+06
3.47288e+06
3.4738e+06
3.47464e+06
3.47542e+06
3.47614e+06
3.47682e+06
3.47745e+06
3.47805e+06
3.47862e+06
3.47916e+06
3.47968e+06
3.48018e+06
3.48065e+06
3.4811e+06
3.48154e+06
3.48195e+06
3.48234e+06
3.48271e+06
3.48306e+06
3.48339e+06
3.48369e+06
3.48398e+06
3.48423e+06
3.48446e+06
3.48466e+06
3.48483e+06
3.48497e+06
3.48508e+06
3.48516e+06
3.48521e+06
3.48523e+06
3.48521e+06
3.48516e+06
3.48508e+06
3.48498e+06
3.48482e+06
3.45783e+06
3.46096e+06
3.46347e+06
3.46556e+06
3.46731e+06
3.4688e+06
3.4701e+06
3.47124e+06
3.47226e+06
3.47319e+06
3.47403e+06
3.47481e+06
3.47553e+06
3.47621e+06
3.47686e+06
3.47747e+06
3.47805e+06
3.4786e+06
3.47914e+06
3.47965e+06
3.48014e+06
3.48061e+06
3.48107e+06
3.4815e+06
3.48192e+06
3.48231e+06
3.48269e+06
3.48304e+06
3.48337e+06
3.48368e+06
3.48396e+06
3.48422e+06
3.48445e+06
3.48465e+06
3.48483e+06
3.48497e+06
3.48508e+06
3.48516e+06
3.48521e+06
3.48523e+06
3.48521e+06
3.48517e+06
3.48509e+06
3.48499e+06
3.48484e+06
3.46094e+06
3.46339e+06
3.46538e+06
3.46705e+06
3.46847e+06
3.46971e+06
3.4708e+06
3.47178e+06
3.47267e+06
3.47349e+06
3.47425e+06
3.47497e+06
3.47564e+06
3.47628e+06
3.47689e+06
3.47748e+06
3.47804e+06
3.47859e+06
3.47911e+06
3.47962e+06
3.48011e+06
3.48058e+06
3.48103e+06
3.48147e+06
3.48189e+06
3.48228e+06
3.48266e+06
3.48302e+06
3.48335e+06
3.48367e+06
3.48395e+06
3.48421e+06
3.48445e+06
3.48465e+06
3.48483e+06
3.48497e+06
3.48509e+06
3.48517e+06
3.48522e+06
3.48523e+06
3.48522e+06
3.48517e+06
3.4851e+06
3.485e+06
3.48486e+06
3.46409e+06
3.46586e+06
3.4673e+06
3.46855e+06
3.46964e+06
3.47062e+06
3.4715e+06
3.47232e+06
3.47308e+06
3.47379e+06
3.47447e+06
3.47512e+06
3.47574e+06
3.47634e+06
3.47693e+06
3.47749e+06
3.47804e+06
3.47857e+06
3.47909e+06
3.47959e+06
3.48007e+06
3.48055e+06
3.481e+06
3.48144e+06
3.48186e+06
3.48226e+06
3.48264e+06
3.483e+06
3.48334e+06
3.48366e+06
3.48395e+06
3.48421e+06
3.48445e+06
3.48465e+06
3.48483e+06
3.48498e+06
3.48509e+06
3.48517e+06
3.48522e+06
3.48524e+06
3.48522e+06
3.48518e+06
3.48511e+06
3.48502e+06
3.48488e+06
3.46722e+06
3.46832e+06
3.4692e+06
3.47004e+06
3.47079e+06
3.47151e+06
3.47218e+06
3.47283e+06
3.47346e+06
3.47408e+06
3.47467e+06
3.47526e+06
3.47583e+06
3.4764e+06
3.47695e+06
3.47749e+06
3.47803e+06
3.47855e+06
3.47906e+06
3.47956e+06
3.48004e+06
3.48051e+06
3.48097e+06
3.48141e+06
3.48183e+06
3.48224e+06
3.48262e+06
3.48299e+06
3.48333e+06
3.48365e+06
3.48394e+06
3.48421e+06
3.48445e+06
3.48466e+06
3.48484e+06
3.48499e+06
3.4851e+06
3.48518e+06
3.48523e+06
3.48525e+06
3.48523e+06
3.48519e+06
3.48512e+06
3.48503e+06
3.48491e+06
3.47027e+06
3.47071e+06
3.47105e+06
3.47148e+06
3.4719e+06
3.47236e+06
3.47283e+06
3.47332e+06
3.47383e+06
3.47434e+06
3.47486e+06
3.47539e+06
3.47591e+06
3.47644e+06
3.47697e+06
3.47749e+06
3.47801e+06
3.47852e+06
3.47903e+06
3.47952e+06
3.48001e+06
3.48048e+06
3.48094e+06
3.48138e+06
3.48181e+06
3.48222e+06
3.48261e+06
3.48298e+06
3.48332e+06
3.48365e+06
3.48394e+06
3.48422e+06
3.48446e+06
3.48467e+06
3.48485e+06
3.485e+06
3.48512e+06
3.4852e+06
3.48525e+06
3.48526e+06
3.48525e+06
3.4852e+06
3.48513e+06
3.48505e+06
3.48493e+06
3.47321e+06
3.473e+06
3.47282e+06
3.47285e+06
3.47296e+06
3.47316e+06
3.47344e+06
3.47378e+06
3.47416e+06
3.47458e+06
3.47502e+06
3.47549e+06
3.47598e+06
3.47647e+06
3.47698e+06
3.47748e+06
3.47799e+06
3.47849e+06
3.47899e+06
3.47949e+06
3.47997e+06
3.48045e+06
3.48091e+06
3.48136e+06
3.48179e+06
3.4822e+06
3.4826e+06
3.48297e+06
3.48332e+06
3.48365e+06
3.48395e+06
3.48422e+06
3.48447e+06
3.48469e+06
3.48487e+06
3.48502e+06
3.48513e+06
3.48522e+06
3.48526e+06
3.48528e+06
3.48526e+06
3.48522e+06
3.48515e+06
3.48507e+06
3.48496e+06
3.47885e+06
3.47754e+06
3.47599e+06
3.47516e+06
3.47449e+06
3.47413e+06
3.47393e+06
3.4739e+06
3.47399e+06
3.47418e+06
3.47445e+06
3.47478e+06
3.47516e+06
3.47558e+06
3.47602e+06
3.47649e+06
3.47697e+06
3.47746e+06
3.47796e+06
3.47846e+06
3.47896e+06
3.47945e+06
3.47994e+06
3.48041e+06
3.48088e+06
3.48133e+06
3.48177e+06
3.48219e+06
3.48259e+06
3.48297e+06
3.48332e+06
3.48365e+06
3.48396e+06
3.48424e+06
3.48449e+06
3.4847e+06
3.48489e+06
3.48504e+06
3.48516e+06
3.48524e+06
3.48528e+06
3.4853e+06
3.48528e+06
3.48523e+06
3.48516e+06
3.48509e+06
3.48498e+06
3.48325e+06
3.48094e+06
3.4786e+06
3.47716e+06
3.47602e+06
3.47529e+06
3.47481e+06
3.47456e+06
3.47448e+06
3.47454e+06
3.4747e+06
3.47495e+06
3.47527e+06
3.47564e+06
3.47605e+06
3.47649e+06
3.47696e+06
3.47744e+06
3.47793e+06
3.47842e+06
3.47892e+06
3.47941e+06
3.4799e+06
3.48038e+06
3.48085e+06
3.48131e+06
3.48175e+06
3.48217e+06
3.48258e+06
3.48297e+06
3.48333e+06
3.48366e+06
3.48397e+06
3.48425e+06
3.48451e+06
3.48473e+06
3.48491e+06
3.48506e+06
3.48518e+06
3.48526e+06
3.48531e+06
3.48532e+06
3.4853e+06
3.48525e+06
3.48518e+06
3.48511e+06
3.48501e+06
3.48753e+06
3.48408e+06
3.48099e+06
3.47897e+06
3.47739e+06
3.47632e+06
3.47559e+06
3.47513e+06
3.4749e+06
3.47483e+06
3.4749e+06
3.47508e+06
3.47535e+06
3.47568e+06
3.47606e+06
3.47648e+06
3.47693e+06
3.4774e+06
3.47789e+06
3.47838e+06
3.47888e+06
3.47937e+06
3.47986e+06
3.48035e+06
3.48083e+06
3.48129e+06
3.48174e+06
3.48217e+06
3.48258e+06
3.48297e+06
3.48334e+06
3.48368e+06
3.48399e+06
3.48428e+06
3.48453e+06
3.48475e+06
3.48494e+06
3.48509e+06
3.48521e+06
3.48529e+06
3.48534e+06
3.48535e+06
3.48532e+06
3.48527e+06
3.4852e+06
3.48513e+06
3.48504e+06
3.49159e+06
3.48695e+06
3.48317e+06
3.48057e+06
3.4786e+06
3.47721e+06
3.47624e+06
3.47561e+06
3.47523e+06
3.47506e+06
3.47505e+06
3.47517e+06
3.47539e+06
3.47569e+06
3.47604e+06
3.47645e+06
3.47689e+06
3.47735e+06
3.47784e+06
3.47833e+06
3.47883e+06
3.47933e+06
3.47983e+06
3.48032e+06
3.4808e+06
3.48127e+06
3.48172e+06
3.48216e+06
3.48258e+06
3.48298e+06
3.48335e+06
3.48369e+06
3.48401e+06
3.4843e+06
3.48456e+06
3.48479e+06
3.48497e+06
3.48513e+06
3.48525e+06
3.48532e+06
3.48537e+06
3.48537e+06
3.48535e+06
3.4853e+06
3.48522e+06
3.48515e+06
3.48506e+06
3.49508e+06
3.48929e+06
3.48497e+06
3.48187e+06
3.47957e+06
3.47793e+06
3.47676e+06
3.47597e+06
3.47548e+06
3.47522e+06
3.47515e+06
3.47522e+06
3.4754e+06
3.47567e+06
3.47601e+06
3.4764e+06
3.47683e+06
3.4773e+06
3.47778e+06
3.47828e+06
3.47878e+06
3.47929e+06
3.47979e+06
3.48029e+06
3.48078e+06
3.48125e+06
3.48171e+06
3.48216e+06
3.48258e+06
3.48299e+06
3.48336e+06
3.48372e+06
3.48404e+06
3.48433e+06
3.48459e+06
3.48482e+06
3.48501e+06
3.48517e+06
3.48528e+06
3.48536e+06
3.4854e+06
3.48541e+06
3.48538e+06
3.48532e+06
3.48524e+06
3.48517e+06
3.48509e+06
3.4981e+06
3.49122e+06
3.4865e+06
3.48294e+06
3.48038e+06
3.47849e+06
3.47716e+06
3.47624e+06
3.47565e+06
3.47532e+06
3.47519e+06
3.47522e+06
3.47537e+06
3.47562e+06
3.47595e+06
3.47634e+06
3.47677e+06
3.47723e+06
3.47772e+06
3.47822e+06
3.47873e+06
3.47924e+06
3.47975e+06
3.48026e+06
3.48075e+06
3.48124e+06
3.48171e+06
3.48216e+06
3.48259e+06
3.483e+06
3.48339e+06
3.48374e+06
3.48407e+06
3.48437e+06
3.48463e+06
3.48486e+06
3.48506e+06
3.48521e+06
3.48533e+06
3.4854e+06
3.48544e+06
3.48544e+06
3.48541e+06
3.48534e+06
3.48526e+06
3.48518e+06
3.48511e+06
3.49993e+06
3.49231e+06
3.48748e+06
3.48362e+06
3.4809e+06
3.47885e+06
3.4774e+06
3.47639e+06
3.47573e+06
3.47534e+06
3.47517e+06
3.47517e+06
3.47531e+06
3.47555e+06
3.47587e+06
3.47626e+06
3.47669e+06
3.47716e+06
3.47765e+06
3.47815e+06
3.47867e+06
3.47919e+06
3.47971e+06
3.48023e+06
3.48073e+06
3.48123e+06
3.48171e+06
3.48217e+06
3.4826e+06
3.48302e+06
3.48341e+06
3.48378e+06
3.48411e+06
3.48441e+06
3.48468e+06
3.48491e+06
3.4851e+06
3.48526e+06
3.48537e+06
3.48545e+06
3.48548e+06
3.48548e+06
3.48544e+06
3.48537e+06
3.48528e+06
3.4852e+06
3.48513e+06
3.50174e+06
3.4935e+06
3.48842e+06
3.48423e+06
3.48132e+06
3.4791e+06
3.47754e+06
3.47644e+06
3.47573e+06
3.4753e+06
3.4751e+06
3.47509e+06
3.47521e+06
3.47545e+06
3.47577e+06
3.47616e+06
3.4766e+06
3.47707e+06
3.47757e+06
3.47809e+06
3.47861e+06
3.47915e+06
3.47968e+06
3.4802e+06
3.48072e+06
3.48122e+06
3.48171e+06
3.48217e+06
3.48262e+06
3.48304e+06
3.48344e+06
3.48381e+06
3.48415e+06
3.48446e+06
3.48473e+06
3.48496e+06
3.48516e+06
3.48531e+06
3.48542e+06
3.4855e+06
3.48553e+06
3.48552e+06
3.48547e+06
3.4854e+06
3.4853e+06
3.48521e+06
3.48514e+06
3.50218e+06
3.49382e+06
3.4887e+06
3.4844e+06
3.48143e+06
3.47912e+06
3.47751e+06
3.47637e+06
3.47562e+06
3.47518e+06
3.47497e+06
3.47495e+06
3.47508e+06
3.47532e+06
3.47565e+06
3.47605e+06
3.47649e+06
3.47698e+06
3.47749e+06
3.47802e+06
3.47856e+06
3.4791e+06
3.47964e+06
3.48017e+06
3.4807e+06
3.48121e+06
3.48171e+06
3.48219e+06
3.48264e+06
3.48307e+06
3.48348e+06
3.48385e+06
3.4842e+06
3.48451e+06
3.48478e+06
3.48502e+06
3.48521e+06
3.48537e+06
3.48548e+06
3.48555e+06
3.48558e+06
3.48556e+06
3.48551e+06
3.48543e+06
3.48533e+06
3.48523e+06
3.48515e+06
3.50454e+06
3.49517e+06
3.48933e+06
3.48465e+06
3.48147e+06
3.47904e+06
3.47737e+06
3.47619e+06
3.47543e+06
3.47498e+06
3.47478e+06
3.47476e+06
3.4749e+06
3.47516e+06
3.4755e+06
3.47591e+06
3.47637e+06
3.47687e+06
3.4774e+06
3.47794e+06
3.47849e+06
3.47905e+06
3.4796e+06
3.48015e+06
3.48069e+06
3.48121e+06
3.48172e+06
3.48221e+06
3.48267e+06
3.48311e+06
3.48352e+06
3.4839e+06
3.48425e+06
3.48457e+06
3.48485e+06
3.48508e+06
3.48528e+06
3.48544e+06
3.48555e+06
3.48561e+06
3.48564e+06
3.48562e+06
3.48556e+06
3.48546e+06
3.48535e+06
3.48524e+06
3.48515e+06
3.50375e+06
3.49459e+06
3.48882e+06
3.4841e+06
3.48093e+06
3.47854e+06
3.47691e+06
3.47577e+06
3.47505e+06
3.47463e+06
3.47447e+06
3.47449e+06
3.47466e+06
3.47494e+06
3.47531e+06
3.47575e+06
3.47623e+06
3.47675e+06
3.4773e+06
3.47786e+06
3.47843e+06
3.479e+06
3.47956e+06
3.48013e+06
3.48068e+06
3.48121e+06
3.48173e+06
3.48223e+06
3.4827e+06
3.48315e+06
3.48357e+06
3.48395e+06
3.48431e+06
3.48463e+06
3.48491e+06
3.48515e+06
3.48535e+06
3.4855e+06
3.48561e+06
3.48567e+06
3.48569e+06
3.48566e+06
3.4856e+06
3.48549e+06
3.48537e+06
3.48525e+06
3.48515e+06
3.48582e+06
3.48587e+06
3.48588e+06
3.48587e+06
3.48582e+06
3.48574e+06
3.48561e+06
3.48545e+06
3.4852e+06
3.48543e+06
3.48556e+06
3.48567e+06
3.48575e+06
3.4858e+06
3.48582e+06
3.48581e+06
3.48576e+06
3.48568e+06
3.48555e+06
3.48539e+06
3.48514e+06
3.43802e+06
3.44404e+06
3.44996e+06
3.45449e+06
3.45854e+06
3.46187e+06
3.46477e+06
3.46722e+06
3.46935e+06
3.47117e+06
3.47276e+06
3.47414e+06
3.47535e+06
3.47641e+06
3.47736e+06
3.4782e+06
3.47896e+06
3.47964e+06
3.48026e+06
3.48083e+06
3.48134e+06
3.48182e+06
3.48226e+06
3.48267e+06
3.48305e+06
3.4834e+06
3.48373e+06
3.48403e+06
3.48431e+06
3.48457e+06
3.4848e+06
3.48501e+06
3.4852e+06
3.48536e+06
3.48549e+06
3.4856e+06
3.48568e+06
3.48574e+06
3.48576e+06
3.48575e+06
3.4857e+06
3.48562e+06
3.48549e+06
3.48534e+06
3.48509e+06
3.43788e+06
3.44388e+06
3.44979e+06
3.4543e+06
3.45834e+06
3.46167e+06
3.46456e+06
3.46702e+06
3.46915e+06
3.47098e+06
3.47258e+06
3.47396e+06
3.47518e+06
3.47626e+06
3.47721e+06
3.47806e+06
3.47882e+06
3.47951e+06
3.48014e+06
3.48071e+06
3.48123e+06
3.48172e+06
3.48216e+06
3.48258e+06
3.48296e+06
3.48331e+06
3.48365e+06
3.48395e+06
3.48423e+06
3.48449e+06
3.48473e+06
3.48494e+06
3.48513e+06
3.48529e+06
3.48543e+06
3.48554e+06
3.48562e+06
3.48568e+06
3.4857e+06
3.48569e+06
3.48564e+06
3.48557e+06
3.48544e+06
3.48529e+06
3.48505e+06
3.43778e+06
3.44378e+06
3.44968e+06
3.45418e+06
3.45821e+06
3.46153e+06
3.46442e+06
3.46687e+06
3.469e+06
3.47083e+06
3.47243e+06
3.47382e+06
3.47504e+06
3.47612e+06
3.47708e+06
3.47794e+06
3.4787e+06
3.4794e+06
3.48003e+06
3.4806e+06
3.48113e+06
3.48162e+06
3.48207e+06
3.48248e+06
3.48287e+06
3.48323e+06
3.48356e+06
3.48387e+06
3.48416e+06
3.48442e+06
3.48466e+06
3.48487e+06
3.48506e+06
3.48523e+06
3.48537e+06
3.48548e+06
3.48556e+06
3.48562e+06
3.48564e+06
3.48564e+06
3.48559e+06
3.48552e+06
3.48539e+06
3.48524e+06
3.485e+06
3.43772e+06
3.44374e+06
3.44963e+06
3.45413e+06
3.45814e+06
3.46145e+06
3.46432e+06
3.46677e+06
3.46889e+06
3.47072e+06
3.47231e+06
3.4737e+06
3.47493e+06
3.47601e+06
3.47697e+06
3.47782e+06
3.47859e+06
3.47929e+06
3.47992e+06
3.4805e+06
3.48103e+06
3.48152e+06
3.48198e+06
3.4824e+06
3.48279e+06
3.48315e+06
3.48348e+06
3.4838e+06
3.48408e+06
3.48435e+06
3.48459e+06
3.48481e+06
3.485e+06
3.48517e+06
3.48531e+06
3.48542e+06
3.48551e+06
3.48557e+06
3.48559e+06
3.48559e+06
3.48555e+06
3.48547e+06
3.48535e+06
3.4852e+06
3.48496e+06
3.43772e+06
3.44378e+06
3.44965e+06
3.45415e+06
3.45814e+06
3.46143e+06
3.46429e+06
3.46672e+06
3.46882e+06
3.47064e+06
3.47223e+06
3.47361e+06
3.47483e+06
3.47591e+06
3.47687e+06
3.47773e+06
3.4785e+06
3.47919e+06
3.47983e+06
3.48041e+06
3.48094e+06
3.48143e+06
3.48189e+06
3.48231e+06
3.4827e+06
3.48307e+06
3.48341e+06
3.48372e+06
3.48401e+06
3.48428e+06
3.48452e+06
3.48474e+06
3.48494e+06
3.48511e+06
3.48525e+06
3.48537e+06
3.48546e+06
3.48552e+06
3.48554e+06
3.48554e+06
3.4855e+06
3.48543e+06
3.48531e+06
3.48516e+06
3.48493e+06
3.43778e+06
3.44388e+06
3.44974e+06
3.45423e+06
3.45819e+06
3.46146e+06
3.4643e+06
3.46671e+06
3.4688e+06
3.4706e+06
3.47217e+06
3.47355e+06
3.47476e+06
3.47583e+06
3.47679e+06
3.47764e+06
3.47841e+06
3.47911e+06
3.47974e+06
3.48032e+06
3.48086e+06
3.48135e+06
3.48181e+06
3.48223e+06
3.48263e+06
3.483e+06
3.48334e+06
3.48365e+06
3.48395e+06
3.48422e+06
3.48446e+06
3.48468e+06
3.48488e+06
3.48505e+06
3.4852e+06
3.48532e+06
3.48541e+06
3.48547e+06
3.4855e+06
3.4855e+06
3.48546e+06
3.48539e+06
3.48527e+06
3.48513e+06
3.4849e+06
3.43793e+06
3.44408e+06
3.44991e+06
3.45438e+06
3.45832e+06
3.46156e+06
3.46436e+06
3.46675e+06
3.46881e+06
3.4706e+06
3.47215e+06
3.47351e+06
3.47471e+06
3.47578e+06
3.47672e+06
3.47757e+06
3.47834e+06
3.47903e+06
3.47966e+06
3.48024e+06
3.48078e+06
3.48127e+06
3.48173e+06
3.48216e+06
3.48255e+06
3.48292e+06
3.48327e+06
3.48359e+06
3.48388e+06
3.48416e+06
3.48441e+06
3.48463e+06
3.48483e+06
3.485e+06
3.48515e+06
3.48527e+06
3.48536e+06
3.48543e+06
3.48546e+06
3.48546e+06
3.48542e+06
3.48535e+06
3.48524e+06
3.4851e+06
3.48487e+06
3.43819e+06
3.44438e+06
3.45017e+06
3.45462e+06
3.45851e+06
3.46172e+06
3.46448e+06
3.46684e+06
3.46887e+06
3.47063e+06
3.47216e+06
3.4735e+06
3.47469e+06
3.47574e+06
3.47667e+06
3.47751e+06
3.47827e+06
3.47896e+06
3.47959e+06
3.48017e+06
3.4807e+06
3.4812e+06
3.48166e+06
3.48209e+06
3.48249e+06
3.48286e+06
3.4832e+06
3.48353e+06
3.48383e+06
3.4841e+06
3.48435e+06
3.48458e+06
3.48478e+06
3.48496e+06
3.48511e+06
3.48523e+06
3.48532e+06
3.48539e+06
3.48542e+06
3.48542e+06
3.48539e+06
3.48532e+06
3.48521e+06
3.48507e+06
3.48485e+06
3.43859e+06
3.44481e+06
3.45052e+06
3.45494e+06
3.45878e+06
3.46194e+06
3.46466e+06
3.46697e+06
3.46896e+06
3.47069e+06
3.4722e+06
3.47351e+06
3.47468e+06
3.47571e+06
3.47664e+06
3.47747e+06
3.47822e+06
3.4789e+06
3.47953e+06
3.4801e+06
3.48064e+06
3.48113e+06
3.48159e+06
3.48202e+06
3.48242e+06
3.48279e+06
3.48314e+06
3.48347e+06
3.48377e+06
3.48405e+06
3.4843e+06
3.48453e+06
3.48473e+06
3.48491e+06
3.48506e+06
3.48519e+06
3.48528e+06
3.48535e+06
3.48538e+06
3.48539e+06
3.48535e+06
3.48529e+06
3.48518e+06
3.48505e+06
3.48483e+06
3.43915e+06
3.44538e+06
3.45099e+06
3.45535e+06
3.45912e+06
3.46223e+06
3.46489e+06
3.46715e+06
3.4691e+06
3.47079e+06
3.47226e+06
3.47355e+06
3.47469e+06
3.4757e+06
3.47661e+06
3.47743e+06
3.47817e+06
3.47885e+06
3.47947e+06
3.48004e+06
3.48057e+06
3.48107e+06
3.48153e+06
3.48196e+06
3.48236e+06
3.48274e+06
3.48309e+06
3.48341e+06
3.48372e+06
3.484e+06
3.48425e+06
3.48448e+06
3.48469e+06
3.48487e+06
3.48502e+06
3.48515e+06
3.48525e+06
3.48532e+06
3.48535e+06
3.48536e+06
3.48533e+06
3.48526e+06
3.48516e+06
3.48502e+06
3.48481e+06
3.43989e+06
3.4461e+06
3.45158e+06
3.45587e+06
3.45955e+06
3.46258e+06
3.46518e+06
3.46738e+06
3.46927e+06
3.47092e+06
3.47235e+06
3.47361e+06
3.47472e+06
3.47571e+06
3.4766e+06
3.47741e+06
3.47814e+06
3.47881e+06
3.47942e+06
3.47999e+06
3.48052e+06
3.48101e+06
3.48147e+06
3.4819e+06
3.4823e+06
3.48268e+06
3.48303e+06
3.48336e+06
3.48367e+06
3.48395e+06
3.48421e+06
3.48444e+06
3.48465e+06
3.48483e+06
3.48499e+06
3.48512e+06
3.48522e+06
3.48529e+06
3.48532e+06
3.48533e+06
3.4853e+06
3.48524e+06
3.48514e+06
3.48501e+06
3.4848e+06
3.44083e+06
3.44699e+06
3.45231e+06
3.4565e+06
3.46007e+06
3.46301e+06
3.46552e+06
3.46765e+06
3.46949e+06
3.47108e+06
3.47246e+06
3.47368e+06
3.47477e+06
3.47573e+06
3.4766e+06
3.47739e+06
3.47811e+06
3.47877e+06
3.47937e+06
3.47994e+06
3.48046e+06
3.48095e+06
3.48141e+06
3.48184e+06
3.48225e+06
3.48263e+06
3.48298e+06
3.48331e+06
3.48362e+06
3.48391e+06
3.48417e+06
3.4844e+06
3.48461e+06
3.4848e+06
3.48496e+06
3.48509e+06
3.48519e+06
3.48526e+06
3.4853e+06
3.48531e+06
3.48528e+06
3.48522e+06
3.48512e+06
3.48499e+06
3.48479e+06
3.442e+06
3.44805e+06
3.45318e+06
3.45724e+06
3.46068e+06
3.46351e+06
3.46592e+06
3.46797e+06
3.46974e+06
3.47127e+06
3.4726e+06
3.47378e+06
3.47483e+06
3.47577e+06
3.47661e+06
3.47738e+06
3.47809e+06
3.47874e+06
3.47933e+06
3.47989e+06
3.48041e+06
3.4809e+06
3.48136e+06
3.48179e+06
3.4822e+06
3.48258e+06
3.48293e+06
3.48327e+06
3.48358e+06
3.48387e+06
3.48413e+06
3.48437e+06
3.48458e+06
3.48477e+06
3.48493e+06
3.48506e+06
3.48516e+06
3.48523e+06
3.48528e+06
3.48528e+06
3.48526e+06
3.4852e+06
3.4851e+06
3.48498e+06
3.48478e+06
3.44342e+06
3.44931e+06
3.4542e+06
3.45811e+06
3.46138e+06
3.46408e+06
3.46638e+06
3.46834e+06
3.47002e+06
3.47148e+06
3.47276e+06
3.4739e+06
3.47491e+06
3.47581e+06
3.47663e+06
3.47738e+06
3.47807e+06
3.47871e+06
3.4793e+06
3.47985e+06
3.48037e+06
3.48085e+06
3.48131e+06
3.48174e+06
3.48215e+06
3.48253e+06
3.48289e+06
3.48323e+06
3.48354e+06
3.48383e+06
3.48409e+06
3.48434e+06
3.48455e+06
3.48474e+06
3.4849e+06
3.48504e+06
3.48514e+06
3.48521e+06
3.48526e+06
3.48527e+06
3.48524e+06
3.48519e+06
3.48509e+06
3.48498e+06
3.48478e+06
3.44513e+06
3.45077e+06
3.45539e+06
3.45909e+06
3.46217e+06
3.46473e+06
3.4669e+06
3.46874e+06
3.47034e+06
3.47172e+06
3.47294e+06
3.47403e+06
3.47499e+06
3.47587e+06
3.47666e+06
3.47739e+06
3.47806e+06
3.47869e+06
3.47927e+06
3.47981e+06
3.48032e+06
3.48081e+06
3.48126e+06
3.48169e+06
3.4821e+06
3.48249e+06
3.48285e+06
3.48319e+06
3.4835e+06
3.4838e+06
3.48406e+06
3.48431e+06
3.48453e+06
3.48472e+06
3.48488e+06
3.48502e+06
3.48512e+06
3.4852e+06
3.48524e+06
3.48525e+06
3.48523e+06
3.48518e+06
3.48509e+06
3.48497e+06
3.48478e+06
3.44713e+06
3.45244e+06
3.45673e+06
3.46019e+06
3.46306e+06
3.46544e+06
3.46746e+06
3.46919e+06
3.47068e+06
3.47199e+06
3.47314e+06
3.47417e+06
3.47509e+06
3.47593e+06
3.4767e+06
3.4774e+06
3.47806e+06
3.47867e+06
3.47924e+06
3.47978e+06
3.48028e+06
3.48076e+06
3.48122e+06
3.48165e+06
3.48206e+06
3.48245e+06
3.48281e+06
3.48315e+06
3.48347e+06
3.48377e+06
3.48404e+06
3.48428e+06
3.4845e+06
3.4847e+06
3.48486e+06
3.485e+06
3.48511e+06
3.48518e+06
3.48523e+06
3.48524e+06
3.48522e+06
3.48517e+06
3.48508e+06
3.48497e+06
3.48479e+06
3.44943e+06
3.45431e+06
3.45823e+06
3.4614e+06
3.46402e+06
3.46621e+06
3.46807e+06
3.46967e+06
3.47106e+06
3.47227e+06
3.47335e+06
3.47432e+06
3.4752e+06
3.476e+06
3.47673e+06
3.47742e+06
3.47805e+06
3.47865e+06
3.47921e+06
3.47974e+06
3.48025e+06
3.48072e+06
3.48118e+06
3.48161e+06
3.48202e+06
3.48241e+06
3.48277e+06
3.48312e+06
3.48344e+06
3.48374e+06
3.48401e+06
3.48426e+06
3.48449e+06
3.48468e+06
3.48485e+06
3.48499e+06
3.4851e+06
3.48517e+06
3.48522e+06
3.48523e+06
3.48521e+06
3.48517e+06
3.48508e+06
3.48497e+06
3.4848e+06
3.45201e+06