/*--------------------------------*- C++ -*----------------------------------*\
| =========                 |                                                 |
| \\      /  F ield         | OpenFOAM: The Open Source CFD Toolbox           |
|  \\    /   O peration     | Version:  v2012                                 |
|   \\  /    A nd           | Website:  www.openfoam.com                      |
|    \\/     M anipulation  |                                                 |
\*---------------------------------------------------------------------------*/
FoamFile
{
    version     2.0;
    format      ascii;
    class       surfaceScalarField;
    location    "0.9";
    object      phi;
}
// * * * * * * * * * * * * * * * * * * * * * * * * * * * * * * * * * * * * * //

dimensions      [0 3 -1 0 0 0 0];
oriented        oriented;


internalField   nonuniform List<scalar> 
8145
(
-2.36915e-08
8.41267e-08
-6.1359e-17
-2.01244e-08
8.84954e-08
-3.97756e-16
-1.64239e-08
9.07741e-08
-2.35683e-16
-1.26916e-08
9.03402e-08
-1.29884e-16
-9.06155e-09
8.64754e-08
-1.42462e-17
-5.70839e-09
7.83548e-08
1.77578e-16
-2.86204e-09
6.49607e-08
-6.26833e-17
-8.24988e-10
4.51469e-08
-1.50295e-17
1.74771e-08
-1.41866e-17
-3.26928e-08
6.07014e-08
-5.85823e-16
-2.99257e-08
6.8277e-08
-4.069e-16
-2.68552e-08
7.51016e-08
-2.83226e-16
-2.35216e-08
8.0793e-08
-6.25399e-17
-1.99801e-08
8.4954e-08
-3.93277e-16
-1.63063e-08
8.71003e-08
-2.30614e-16
-1.26012e-08
8.66352e-08
-1.24712e-16
-8.99778e-09
8.28719e-08
-9.31827e-18
-5.66913e-09
7.50261e-08
1.80745e-16
-2.84321e-09
6.21348e-08
-6.14725e-17
-8.20052e-10
4.31238e-08
-1.27628e-17
1.6657e-08
-1.23439e-17
-4.58518e-09
-2.80484e-08
-4.974e-15
-6.19305e-09
-3.04644e-08
-5.10799e-15
-7.84141e-09
-3.24588e-08
-5.27092e-15
-9.51351e-09
-3.4104e-08
-4.81188e-15
-1.12071e-08
-3.5488e-08
-4.46382e-15
-1.29269e-08
-3.66837e-08
-4.07255e-15
-1.46791e-08
-3.77376e-08
-3.83116e-15
-1.64672e-08
-3.86589e-08
-3.59959e-15
-1.82912e-08
-3.94453e-08
-3.38889e-15
-2.01469e-08
-4.00697e-08
-3.16302e-15
-2.20267e-08
-4.05028e-08
-2.95602e-15
-2.39199e-08
-4.07081e-08
-2.77194e-15
-2.58137e-08
-4.06439e-08
-2.62244e-15
-2.76934e-08
-4.02805e-08
-2.49671e-15
-2.95425e-08
-3.95741e-08
-2.30303e-15
-3.13435e-08
-3.8495e-08
-2.35987e-15
-3.3078e-08
-3.70109e-08
-2.18547e-15
-3.47264e-08
-3.50909e-08
-2.03883e-15
-3.62684e-08
-3.27091e-08
-1.89189e-15
-3.7683e-08
-2.98416e-08
-1.75645e-15
-3.89484e-08
-2.64697e-08
-1.62342e-15
-4.00425e-08
-2.25767e-08
-1.50242e-15
-4.09434e-08
-1.81539e-08
-1.38252e-15
-4.16283e-08
-1.31971e-08
-1.27527e-15
-4.20757e-08
-7.70969e-09
-1.15751e-15
-4.22634e-08
-1.70986e-09
-1.04269e-15
-4.21713e-08
4.7809e-09
-9.11149e-16
-4.17798e-08
1.17243e-08
-7.7225e-16
-4.10723e-08
1.90638e-08
-6.26078e-16
-4.00345e-08
2.6721e-08
-4.78884e-16
-3.86544e-08
3.46201e-08
-3.22991e-16
-3.6927e-08
4.26127e-08
-9.29199e-17
-3.48507e-08
5.05685e-08
-3.20316e-16
-3.24325e-08
5.82832e-08
-5.9033e-16
-2.96877e-08
6.55322e-08
-4.0838e-16
-2.66415e-08
7.20554e-08
-2.82011e-16
-2.3334e-08
7.74854e-08
-6.20723e-17
-1.98204e-08
8.14404e-08
-3.88413e-16
-1.61757e-08
8.34556e-08
-2.25705e-16
-1.25004e-08
8.29599e-08
-1.19787e-16
-8.92631e-09
7.92978e-08
-4.7584e-18
-5.62489e-09
7.17247e-08
1.83225e-16
-2.82182e-09
5.93317e-08
-6.1285e-17
-8.14372e-10
4.11163e-08
-1.03852e-17
1.58427e-08
-1.04888e-17
-4.67792e-09
-2.65642e-08
-5.2542e-15
-6.24462e-09
-2.88977e-08
-5.1417e-15
-7.85885e-09
-3.08446e-08
-5.26317e-15
-9.50232e-09
-3.24605e-08
-4.82303e-15
-1.11703e-08
-3.382e-08
-4.52399e-15
-1.28652e-08
-3.49888e-08
-4.18249e-15
-1.45918e-08
-3.6011e-08
-3.9347e-15
-1.63531e-08
-3.68976e-08
-3.68813e-15
-1.8149e-08
-3.76494e-08
-3.45746e-15
-1.99759e-08
-3.82428e-08
-3.21936e-15
-2.18268e-08
-3.8652e-08
-3.00196e-15
-2.36916e-08
-3.88432e-08
-2.81621e-15
-2.55581e-08
-3.87775e-08
-2.67101e-15
-2.74121e-08
-3.84265e-08
-2.56337e-15
-2.92376e-08
-3.77486e-08
-2.443e-15
-3.10172e-08
-3.67152e-08
-2.45923e-15
-3.27329e-08
-3.52951e-08
-2.2498e-15
-3.43652e-08
-3.34587e-08
-2.07513e-15
-3.58937e-08
-3.11806e-08
-1.90974e-15
-3.72977e-08
-2.84378e-08
-1.76215e-15
-3.85551e-08
-2.52122e-08
-1.62247e-15
-3.9644e-08
-2.14877e-08
-1.49699e-15
-4.05422e-08
-1.72557e-08
-1.37518e-15
-4.1227e-08
-1.25121e-08
-1.26488e-15
-4.16766e-08
-7.26028e-09
-1.14671e-15
-4.18688e-08
-1.51748e-09
-1.02953e-15
-4.17835e-08
4.69545e-09
-8.99315e-16
-4.14008e-08
1.13418e-08
-7.63173e-16
-4.07042e-08
1.83671e-08
-6.19923e-16
-3.96793e-08
2.5696e-08
-4.75023e-16
-3.83142e-08
3.32552e-08
-3.2145e-16
-3.66039e-08
4.09022e-08
-9.43415e-17
-3.45466e-08
4.85114e-08
-3.22254e-16
-3.21497e-08
5.58863e-08
-5.91657e-16
-2.94284e-08
6.28108e-08
-4.04158e-16
-2.64079e-08
6.9035e-08
-2.76179e-16
-2.31283e-08
7.42058e-08
-5.9808e-17
-1.96447e-08
7.79568e-08
-3.83575e-16
-1.60316e-08
7.98426e-08
-2.21336e-16
-1.23889e-08
7.93171e-08
-1.1551e-16
-8.84689e-09
7.57558e-08
-9.96886e-19
-5.57548e-09
6.84533e-08
1.84757e-16
-2.79777e-09
5.6554e-08
-6.13963e-17
-8.07912e-10
3.91265e-08
-7.95984e-18
1.50348e-08
-7.53654e-18
-4.77808e-09
-2.5127e-08
-5.25012e-15
-6.30282e-09
-2.7373e-08
-5.1295e-15
-7.88151e-09
-2.92659e-08
-5.29837e-15
-9.49477e-09
-3.08472e-08
-4.90227e-15
-1.11357e-08
-3.2179e-08
-4.55677e-15
-1.28049e-08
-3.33197e-08
-4.18267e-15
-1.45053e-08
-3.43105e-08
-3.90799e-15
-1.62395e-08
-3.51634e-08
-3.64979e-15
-1.80074e-08
-3.58815e-08
-3.4209e-15
-1.98054e-08
-3.64448e-08
-3.19579e-15
-2.16272e-08
-3.68302e-08
-2.99079e-15
-2.34633e-08
-3.7007e-08
-2.82101e-15
-2.53021e-08
-3.69388e-08
-2.69548e-15
-2.71296e-08
-3.6599e-08
-2.62255e-15
-2.89305e-08
-3.59478e-08
-2.59144e-15
-3.06876e-08
-3.4958e-08
-2.58388e-15
-3.2383e-08
-3.35997e-08
-2.32259e-15
-3.39975e-08
-3.18441e-08
-2.11164e-15
-3.5511e-08
-2.96671e-08
-1.92503e-15
-3.69025e-08
-2.70464e-08
-1.76565e-15
-3.81502e-08
-2.39644e-08
-1.61954e-15
-3.92319e-08
-2.04058e-08
-1.49083e-15
-4.01257e-08
-1.63619e-08
-1.36749e-15
-4.08085e-08
-1.18291e-08
-1.2558e-15
-4.12588e-08
-6.81029e-09
-1.1374e-15
-4.1454e-08
-1.32208e-09
-1.01944e-15
-4.13741e-08
4.61542e-09
-8.90116e-16
-4.09992e-08
1.09671e-08
-7.56162e-16
-4.03126e-08
1.76806e-08
-6.15088e-16
-3.93001e-08
2.46833e-08
-4.72241e-16
-3.79498e-08
3.19051e-08
-3.20635e-16
-3.62565e-08
3.92088e-08
-9.55174e-17
-3.42188e-08
4.64738e-08
-3.2183e-16
-3.18439e-08
5.35114e-08
-5.89971e-16
-2.91473e-08
6.01141e-08
-3.97581e-16
-2.6154e-08
6.60418e-08
-2.67578e-16
-2.29043e-08
7.0956e-08
-5.73379e-17
-1.94528e-08
7.45053e-08
-3.78481e-16
-1.58738e-08
7.62636e-08
-2.16874e-16
-1.22662e-08
7.57095e-08
-1.11245e-16
-8.75924e-09
7.22489e-08
2.63682e-18
-5.5207e-09
6.52147e-08
1.86004e-16
-2.77094e-09
5.38042e-08
-6.07056e-17
-8.00632e-10
3.71562e-08
-5.445e-18
1.42341e-08
-4.64948e-18
-4.88843e-09
-2.37368e-08
-5.12529e-15
-6.37024e-09
-2.58912e-08
-5.04405e-15
-7.91173e-09
-2.77244e-08
-5.23977e-15
-9.49285e-09
-2.92661e-08
-4.84069e-15
-1.1105e-08
-3.05668e-08
-4.58034e-15
-1.27469e-08
-3.16778e-08
-4.24818e-15
-1.44203e-08
-3.26371e-08
-3.97714e-15
-1.61267e-08
-3.3457e-08
-3.70975e-15
-1.7866e-08
-3.41422e-08
-3.46709e-15
-1.96349e-08
-3.46759e-08
-3.23471e-15
-2.14273e-08
-3.50378e-08
-3.02276e-15
-2.32343e-08
-3.51999e-08
-2.85341e-15
-2.50446e-08
-3.51285e-08
-2.73534e-15
-2.6845e-08
-3.47986e-08
-2.68673e-15
-2.86202e-08
-3.41726e-08
-2.70171e-15
-3.03536e-08
-3.32245e-08
-2.74872e-15
-3.20275e-08
-3.19257e-08
-2.404e-15
-3.36228e-08
-3.02488e-08
-2.14821e-15
-3.51195e-08
-2.81704e-08
-1.93815e-15
-3.64968e-08
-2.56692e-08
-1.76659e-15
-3.77329e-08
-2.27283e-08
-1.61423e-15
-3.88057e-08
-1.93328e-08
-1.48281e-15
-3.96932e-08
-1.54745e-08
-1.35806e-15
-4.03724e-08
-1.11497e-08
-1.24565e-15
-4.08216e-08
-6.36135e-09
-1.12713e-15
-4.10183e-08
-1.12515e-09
-1.00944e-15
-4.09425e-08
4.53951e-09
-8.81185e-16
-4.05743e-08
1.05991e-08
-7.49598e-16
-3.9897e-08
1.70032e-08
-6.10662e-16
-3.88963e-08
2.36824e-08
-4.70114e-16
-3.75604e-08
3.05694e-08
-3.20759e-16
-3.58843e-08
3.75326e-08
-9.83075e-17
-3.38666e-08
4.44562e-08
-3.21158e-16
-3.15145e-08
5.11595e-08
-5.84152e-16
-2.88437e-08
5.74432e-08
-3.90521e-16
-2.58793e-08
6.30774e-08
-2.60369e-16
-2.26612e-08
6.77378e-08
-5.43979e-17
-1.92441e-08
7.10883e-08
-3.73068e-16
-1.57017e-08
7.27213e-08
-2.12274e-16
-1.21321e-08
7.21399e-08
-1.07075e-16
-8.66308e-09
6.87799e-08
5.9487e-18
-5.46033e-09
6.2012e-08
1.86764e-16
-2.7412e-09
5.10851e-08
-5.92633e-17
-7.92488e-10
3.52075e-08
-3.15889e-18
1.34416e-08
-2.31074e-18
-5.01088e-09
-2.23935e-08
-5.09828e-15
-6.44877e-09
-2.44533e-08
-4.96065e-15
-7.95125e-09
-2.6222e-08
-5.12644e-15
-9.49806e-09
-2.77192e-08
-4.78931e-15
-1.10793e-08
-2.89855e-08
-4.54879e-15
-1.26922e-08
-3.0065e-08
-4.21222e-15
-1.4337e-08
-3.09922e-08
-3.94663e-15
-1.60147e-08
-3.17793e-08
-3.68732e-15
-1.77247e-08
-3.24322e-08
-3.44718e-15
-1.94638e-08
-3.29367e-08
-3.22524e-15
-2.12263e-08
-3.32753e-08
-3.01726e-15
-2.30036e-08
-3.34225e-08
-2.85508e-15
-2.47849e-08
-3.33473e-08
-2.74818e-15
-2.65573e-08
-3.30262e-08
-2.72162e-15
-2.83059e-08
-3.2424e-08
-2.77559e-15
-3.00145e-08
-3.15159e-08
-2.90187e-15
-3.16654e-08
-3.02747e-08
-2.46833e-15
-3.32401e-08
-2.86742e-08
-2.17414e-15
-3.47184e-08
-2.66921e-08
-1.94423e-15
-3.60798e-08
-2.43079e-08
-1.76272e-15
-3.73026e-08
-2.15055e-08
-1.60556e-15
-3.83647e-08
-1.82705e-08
-1.47217e-15
-3.92441e-08
-1.45951e-08
-1.3465e-15
-3.99179e-08
-1.04757e-08
-1.23365e-15
-4.03644e-08
-5.9151e-09
-1.11512e-15
-4.05611e-08
-9.28177e-10
-9.97931e-16
-4.04881e-08
4.46638e-09
-8.70959e-16
-4.01255e-08
1.02366e-08
-7.41858e-16
-3.94566e-08
1.63343e-08
-6.05229e-16
-3.84672e-08
2.26929e-08
-4.67303e-16
-3.71455e-08
2.9248e-08
-3.20877e-16
-3.54867e-08
3.58736e-08
-1.02377e-16
-3.34895e-08
4.2459e-08
-3.20692e-16
-3.11611e-08
4.88311e-08
-5.76979e-16
-2.85173e-08
5.47993e-08
-3.84447e-16
-2.55831e-08
6.01434e-08
-2.53767e-16
-2.23986e-08
6.45533e-08
-5.24973e-17
-1.90182e-08
6.77078e-08
-3.68031e-16
-1.5515e-08
6.92181e-08
-2.08149e-16
-1.19861e-08
6.86111e-08
-1.03406e-16
-8.55809e-09
6.53518e-08
8.73853e-18
-5.39416e-09
5.88481e-08
1.87042e-16
-2.70843e-09
4.83994e-08
-5.71785e-17
-7.83435e-10
3.32825e-08
-9.07341e-19
1.26582e-08
9.56717e-20
-5.14635e-09
-2.10971e-08
-4.92023e-15
-6.53934e-09
-2.30603e-08
-4.82733e-15
-8.00095e-09
-2.47603e-08
-4.99663e-15
-9.51114e-09
-2.6209e-08
-4.72557e-15
-1.10592e-08
-2.74375e-08
-4.5216e-15
-1.26409e-08
-2.84834e-08
-4.19864e-15
-1.42556e-08
-2.93775e-08
-3.93927e-15
-1.59033e-08
-3.01316e-08
-3.6839e-15
-1.75831e-08
-3.07525e-08
-3.44607e-15
-1.92917e-08
-3.12281e-08
-3.22246e-15
-2.10236e-08
-3.15434e-08
-3.01237e-15
-2.27705e-08
-3.16756e-08
-2.85201e-15
-2.4522e-08
-3.15958e-08
-2.75051e-15
-2.62655e-08
-3.12827e-08
-2.7364e-15
-2.79866e-08
-3.0703e-08
-2.81287e-15
-2.96691e-08
-2.98333e-08
-2.97713e-15
-3.12959e-08
-2.86478e-08
-2.50361e-15
-3.28484e-08
-2.71217e-08
-2.18499e-15
-3.43068e-08
-2.52337e-08
-1.94159e-15
-3.56506e-08
-2.29642e-08
-1.75319e-15
-3.68583e-08
-2.02978e-08
-1.59303e-15
-3.79078e-08
-1.72208e-08
-1.45874e-15
-3.87774e-08
-1.37256e-08
-1.33281e-15
-3.94441e-08
-9.80884e-09
-1.21994e-15
-3.98863e-08
-5.47315e-09
-1.10173e-15
-4.00816e-08
-7.32649e-10
-9.85354e-16
-4.00101e-08
4.39476e-09
-8.59882e-16
-3.9652e-08
9.87865e-09
-7.33315e-16
-3.89906e-08
1.56729e-08
-5.9915e-16
-3.8012e-08
2.17141e-08
-4.64143e-16
-3.67043e-08
2.79406e-08
-3.21222e-16
-3.50629e-08
3.42321e-08
-1.08331e-16
-3.30866e-08
4.04828e-08
-3.20685e-16
-3.07827e-08
4.65273e-08
-5.69864e-16
-2.81671e-08
5.21836e-08
-3.79561e-16
-2.52649e-08
5.72413e-08
-2.49086e-16
-2.2116e-08
6.14043e-08
-5.06124e-17
-1.87745e-08
6.43663e-08
-3.62824e-16
-1.53131e-08
6.57567e-08
-2.04019e-16
-1.1828e-08
6.51259e-08
-9.99464e-17
-8.44394e-09
6.19678e-08
1.11028e-17
-5.32193e-09
5.5726e-08
1.86774e-16
-2.67248e-09
4.57499e-08
-5.49417e-17
-7.7342e-10
3.13834e-08
1.00513e-18
1.18848e-08
2.02187e-18
-5.29448e-09
-1.98474e-08
-4.87247e-15
-6.64164e-09
-2.17131e-08
-4.71591e-15
-8.06062e-09
-2.33414e-08
-4.84032e-15
-9.53195e-09
-2.47377e-08
-4.59363e-15
-1.10445e-08
-2.59249e-08
-4.4138e-15
-1.2593e-08
-2.69349e-08
-4.10329e-15
-1.41757e-08
-2.77947e-08
-3.86258e-15
-1.5792e-08
-2.85153e-08
-3.62853e-15
-1.74405e-08
-2.9104e-08
-3.40408e-15
-1.91177e-08
-2.95509e-08
-3.1897e-15
-2.08182e-08
-2.98429e-08
-2.98334e-15
-2.2534e-08
-2.99597e-08
-2.82675e-15
-2.42549e-08
-2.9875e-08
-2.72948e-15
-2.59687e-08
-2.95689e-08
-2.7217e-15
-2.76612e-08
-2.90105e-08
-2.80828e-15
-2.93165e-08
-2.81778e-08
-2.98853e-15
-3.09178e-08
-2.70464e-08
-2.50412e-15
-3.24466e-08
-2.55929e-08
-2.1765e-15
-3.38835e-08
-2.37968e-08
-1.92786e-15
-3.5208e-08
-2.16398e-08
-1.73688e-15
-3.63989e-08
-1.91069e-08
-1.57611e-15
-3.74342e-08
-1.61853e-08
-1.44218e-15
-3.82921e-08
-1.28677e-08
-1.31682e-15
-3.895e-08
-9.15078e-09
-1.20444e-15
-3.93863e-08
-5.03712e-09
-1.08699e-15
-3.95787e-08
-5.40032e-10
-9.71826e-16
-3.95074e-08
4.32333e-09
-8.48078e-16
-3.91527e-08
9.52412e-09
-7.24081e-16
-3.84981e-08
1.50183e-08
-5.92492e-16
-3.75297e-08
2.07455e-08
-4.60646e-16
-3.62359e-08
2.6647e-08
-3.21669e-16
-3.46121e-08
3.26082e-08
-1.14919e-16
-3.26572e-08
3.8528e-08
-3.21568e-16
-3.03788e-08
4.4249e-08
-5.62857e-16
-2.77927e-08
4.95974e-08
-3.7547e-16
-2.49241e-08
5.43728e-08
-2.448e-16
-2.18127e-08
5.8293e-08
-4.95708e-17
-1.85126e-08
6.10661e-08
-3.57785e-16
-1.50956e-08
6.23398e-08
-2.00145e-16
-1.16572e-08
6.16875e-08
-9.68024e-17
-8.32031e-09
5.86309e-08
1.31091e-17
-5.2434e-09
5.26491e-08
1.86126e-16
-2.6332e-09
4.31397e-08
-5.25184e-17
-7.62389e-10
2.95126e-08
2.84273e-18
1.11224e-08
3.89815e-18
-5.45361e-09
-1.86445e-08
-4.56187e-15
-6.75415e-09
-2.04125e-08
-4.50253e-15
-8.1289e-09
-2.19666e-08
-4.62972e-15
-9.55933e-09
-2.33072e-08
-4.46583e-15
-1.10342e-08
-2.44501e-08
-4.307e-15
-1.25474e-08
-2.54217e-08
-4.00539e-15
-1.40966e-08
-2.62455e-08
-3.77487e-15
-1.568e-08
-2.69318e-08
-3.55533e-15
-1.7296e-08
-2.7488e-08
-3.34107e-15
-1.89409e-08
-2.79059e-08
-3.13844e-15
-2.06093e-08
-2.81746e-08
-2.93397e-15
-2.22931e-08
-2.82758e-08
-2.78169e-15
-2.39826e-08
-2.81855e-08
-2.68771e-15
-2.56657e-08
-2.78859e-08
-2.68173e-15
-2.73285e-08
-2.73478e-08
-2.76855e-15
-2.89554e-08
-2.65508e-08
-2.94233e-15
-3.05299e-08
-2.54719e-08
-2.47346e-15
-3.20336e-08
-2.40891e-08
-2.14963e-15
-3.34474e-08
-2.2383e-08
-1.90325e-15
-3.4751e-08
-2.03362e-08
-1.71376e-15
-3.59233e-08
-1.79346e-08
-1.55458e-15
-3.69426e-08
-1.51659e-08
-1.42232e-15
-3.77871e-08
-1.20231e-08
-1.2983e-15
-3.84345e-08
-8.50324e-09
-1.18692e-15
-3.88633e-08
-4.60861e-09
-1.07082e-15
-3.90513e-08
-3.51782e-10
-9.57259e-16
-3.89789e-08
4.25085e-09
-8.35453e-16
-3.86267e-08
9.17198e-09
-7.14075e-16
-3.79781e-08
1.43697e-08
-5.85188e-16
-3.70195e-08
1.97867e-08
-4.56669e-16
-3.57394e-08
2.53672e-08
-3.21727e-16
-3.41333e-08
3.1002e-08
-1.20918e-16
-3.22005e-08
3.65953e-08
-3.22551e-16
-2.99484e-08
4.1997e-08
-5.56437e-16
-2.73931e-08
4.70421e-08
-3.71786e-16
-2.45598e-08
5.15395e-08
-2.41621e-16
-2.14882e-08
5.52213e-08
-4.8507e-17
-1.82317e-08
5.78097e-08
-3.52522e-16
-1.4862e-08
5.89702e-08
-1.96218e-16
-1.14733e-08
5.82987e-08
-9.37927e-17
-8.18683e-09
5.53445e-08
1.47789e-17
-5.15831e-09
4.96206e-08
1.85007e-16
-2.59042e-09
4.05718e-08
-5.0202e-17
-7.50283e-10
2.76725e-08
4.42058e-18
1.03721e-08
5.4066e-18
-5.62096e-09
-1.74884e-08
-4.51076e-15
-6.87422e-09
-1.91593e-08
-4.39729e-15
-8.20343e-09
-2.06374e-08
-4.45409e-15
-9.59127e-09
-2.19194e-08
-4.3169e-15
-1.10266e-08
-2.30148e-08
-4.19224e-15
-1.25028e-08
-2.39454e-08
-3.91349e-15
-1.40168e-08
-2.47316e-08
-3.69657e-15
-1.55662e-08
-2.53824e-08
-3.48894e-15
-1.71486e-08
-2.59056e-08
-3.28164e-15
-1.87603e-08
-2.62943e-08
-3.08329e-15
-2.03956e-08
-2.65393e-08
-2.88047e-15
-2.20467e-08
-2.66246e-08
-2.72844e-15
-2.37038e-08
-2.65284e-08
-2.63292e-15
-2.53553e-08
-2.62345e-08
-2.6215e-15
-2.69873e-08
-2.57157e-08
-2.69803e-15
-2.85847e-08
-2.49533e-08
-2.85099e-15
-3.01309e-08
-2.39256e-08
-2.41419e-15
-3.16081e-08
-2.26119e-08
-2.1056e-15
-3.29972e-08
-2.0994e-08
-1.86823e-15
-3.42782e-08
-1.90553e-08
-1.68397e-15
-3.54302e-08
-1.67826e-08
-1.52859e-15
-3.64316e-08
-1.41643e-08
-1.39906e-15
-3.72611e-08
-1.11937e-08
-1.27711e-15
-3.78962e-08
-7.8679e-09
-1.16741e-15
-3.83159e-08
-4.1892e-09
-1.05312e-15
-3.84981e-08
-1.69339e-10
-9.41528e-16
-3.84235e-08
4.17605e-09
-8.21871e-16
-3.80726e-08
8.82121e-09
-7.03198e-16
-3.74292e-08
1.37264e-08
-5.77129e-16
-3.648e-08
1.88372e-08
-4.52052e-16
-3.52135e-08
2.41009e-08
-3.21116e-16
-3.36255e-08
2.94139e-08
-1.25662e-16
-3.17153e-08
3.46852e-08
-3.23266e-16
-2.94907e-08
3.97724e-08
-5.51003e-16
-2.69676e-08
4.45189e-08
-3.68244e-16
-2.41714e-08
4.87434e-08
-2.38349e-16
-2.11416e-08
5.21914e-08
-4.79319e-17
-1.79314e-08
5.45995e-08
-3.47259e-16
-1.46118e-08
5.56506e-08
-1.92408e-16
-1.12759e-08
5.49628e-08
-9.09856e-17
-8.04313e-09
5.21118e-08
1.61917e-17
-5.06638e-09
4.66438e-08
1.83571e-16
-2.54399e-09
3.80494e-08
-4.78155e-17
-7.3704e-10
2.58656e-08
5.94212e-18
9.63506e-09
6.8892e-18
-5.79293e-09
-1.63793e-08
-4.29743e-15
-6.99837e-09
-1.79538e-08
-4.23004e-15
-8.28109e-09
-1.93547e-08
-4.24553e-15
-9.62506e-09
-2.05754e-08
-4.13865e-15
-1.10194e-08
-2.16204e-08
-4.02396e-15
-1.24573e-08
-2.25076e-08
-3.76071e-15
-1.39347e-08
-2.32541e-08
-3.55881e-15
-1.54489e-08
-2.38682e-08
-3.36962e-15
-1.69969e-08
-2.43576e-08
-3.1767e-15
-1.85745e-08
-2.47167e-08
-2.99186e-15
-2.01759e-08
-2.49378e-08
-2.79645e-15
-2.17935e-08
-2.5007e-08
-2.64984e-15
-2.34174e-08
-2.49045e-08
-2.55594e-15
-2.50362e-08
-2.46157e-08
-2.53901e-15
-2.66364e-08
-2.41156e-08
-2.5997e-15
-2.82029e-08
-2.33867e-08
-2.71355e-15
-2.97196e-08
-2.24089e-08
-2.33188e-15
-3.11687e-08
-2.11627e-08
-2.04815e-15
-3.25315e-08
-1.96312e-08
-1.82469e-15
-3.37882e-08
-1.77987e-08
-1.64837e-15
-3.4918e-08
-1.56527e-08
-1.49837e-15
-3.58999e-08
-1.31823e-08
-1.37243e-15
-3.67124e-08
-1.03811e-08
-1.2532e-15
-3.73337e-08
-7.24647e-09
-1.14568e-15
-3.77427e-08
-3.78047e-09
-1.0336e-15
-3.79177e-08
5.87594e-12
-9.24351e-16
-3.78395e-08
4.09773e-09
-8.07152e-16
-3.7489e-08
8.47086e-09
-6.91313e-16
-3.68503e-08
1.30877e-08
-5.68199e-16
-3.59099e-08
1.78968e-08
-4.46632e-16
-3.46571e-08
2.28483e-08
-3.19594e-16
-3.30875e-08
2.78442e-08
-1.29055e-16
-3.12007e-08
3.27985e-08
-3.23455e-16
-2.90046e-08
3.75764e-08
-5.45945e-16
-2.65153e-08
4.20296e-08
-3.64514e-16
-2.37581e-08
4.59863e-08
-2.35462e-16
-2.07723e-08
4.92056e-08
-4.73173e-17
-1.7611e-08
5.14382e-08
-3.41769e-16
-1.43444e-08
5.2384e-08
-1.88569e-16
-1.10645e-08
5.16828e-08
-8.83225e-17
-7.88885e-09
4.89362e-08
1.72778e-17
-4.96733e-09
4.37223e-08
1.81653e-16
-2.49373e-09
3.55758e-08
-4.55997e-17
-7.22593e-10
2.40944e-08
7.18117e-18
8.91247e-09
8.00124e-18
-5.96542e-09
-1.53176e-08
-4.14862e-15
-7.12266e-09
-1.67966e-08
-4.06821e-15
-8.35827e-09
-1.81191e-08
-4.05042e-15
-9.65756e-09
-1.92761e-08
-3.99442e-15
-1.101e-08
-2.0268e-08
-3.89657e-15
-1.24085e-08
-2.11091e-08
-3.6541e-15
-1.38485e-08
-2.1814e-08
-3.46893e-15
-1.53266e-08
-2.23901e-08
-3.29217e-15
-1.68393e-08
-2.28449e-08
-3.10551e-15
-1.83821e-08
-2.31739e-08
-2.92085e-15
-1.9949e-08
-2.3371e-08
-2.72656e-15
-2.15321e-08
-2.34238e-08
-2.57708e-15
-2.3122e-08
-2.33147e-08
-2.47748e-15
-2.47071e-08
-2.30305e-08
-2.44847e-15
-2.62743e-08
-2.25484e-08
-2.48752e-15
-2.78087e-08
-2.18522e-08
-2.55695e-15
-2.92943e-08
-2.09232e-08
-2.23633e-15
-3.07139e-08
-1.97432e-08
-1.98145e-15
-3.20486e-08
-1.82965e-08
-1.77463e-15
-3.32792e-08
-1.65682e-08
-1.60785e-15
-3.43852e-08
-1.45467e-08
-1.46425e-15
-3.53456e-08
-1.22217e-08
-1.34257e-15
-3.61396e-08
-9.58723e-09
-1.2266e-15
-3.67452e-08
-6.64063e-09
-1.12166e-15
-3.71419e-08
-3.384e-09
-1.01211e-15
-3.73083e-08
1.72463e-10
-9.05579e-16
-3.72254e-08
4.01469e-09
-7.91115e-16
-3.68744e-08
8.11999e-09
-6.78283e-16
-3.62396e-08
1.24529e-08
-5.58261e-16
-3.5308e-08
1.6965e-08
-4.40254e-16
-3.40688e-08
2.16093e-08
-3.17022e-16
-3.2518e-08
2.62933e-08
-1.31335e-16
-3.06555e-08
3.0936e-08
-3.22644e-16
-2.84891e-08
3.54101e-08
-5.40749e-16
-2.60352e-08
3.95756e-08
-3.60467e-16
-2.33189e-08
4.32701e-08
-2.32311e-16
-2.03796e-08
4.62663e-08
-4.68781e-17
-1.72699e-08
4.83284e-08
-3.36131e-16
-1.40593e-08
4.91735e-08
-1.84735e-16
-1.08386e-08
4.84622e-08
-8.57705e-17
-7.72361e-09
4.58212e-08
1.81703e-17
-4.86088e-09
4.08596e-08
1.79436e-16
-2.43944e-09
3.31544e-08
-4.33459e-17
-7.0687e-10
2.23619e-08
8.34724e-18
8.2056e-09
9.07654e-18
-6.13418e-09
-1.4304e-08
-3.90928e-15
-7.24297e-09
-1.56878e-08
-3.80581e-15
-8.43124e-09
-1.69308e-08
-3.75035e-15
-9.68551e-09
-1.80218e-08
-3.7658e-15
-1.09956e-08
-1.89579e-08
-3.68005e-15
-1.23541e-08
-1.97505e-08
-3.45476e-15
-1.37562e-08
-2.04119e-08
-3.29206e-15
-1.51976e-08
-2.09487e-08
-3.13791e-15
-1.66744e-08
-2.13681e-08
-2.96965e-15
-1.81816e-08
-2.16666e-08
-2.79939e-15
-1.97132e-08
-2.18394e-08
-2.61771e-15
-2.12612e-08
-2.18757e-08
-2.47532e-15
-2.2816e-08
-2.17599e-08
-2.37677e-15
-2.43665e-08
-2.14801e-08
-2.34137e-15
-2.58995e-08
-2.10155e-08
-2.36391e-15
-2.74004e-08
-2.03512e-08
-2.40934e-15
-2.88535e-08
-1.947e-08
-2.13699e-15
-3.02418e-08
-1.8355e-08
-1.91041e-15
-3.15468e-08
-1.69914e-08
-1.72038e-15
-3.27496e-08
-1.53656e-08
-1.56354e-15
-3.38298e-08
-1.34664e-08
-1.42681e-15
-3.4767e-08
-1.12843e-08
-1.30964e-15
-3.55405e-08
-8.81374e-09
-1.19737e-15
-3.61289e-08
-6.05208e-09
-1.0953e-15
-3.65118e-08
-3.00134e-09
-9.88688e-16
-3.66682e-08
3.2905e-10
-8.85088e-16
-3.65794e-08
3.9258e-09
-7.73625e-16
-3.6227e-08
7.76773e-09
-6.63983e-16
-3.55956e-08
1.18215e-08
-5.47219e-16
-3.46725e-08
1.60416e-08
-4.32825e-16
-3.3447e-08
2.03841e-08
-3.1331e-16
-3.19157e-08
2.47619e-08
-1.32256e-16
-3.00783e-08
2.90987e-08
-3.21122e-16
-2.7943e-08
3.32749e-08
-5.34509e-16
-2.55262e-08
3.71587e-08
-3.55861e-16
-2.28531e-08
4.05971e-08
-2.2907e-16
-1.99627e-08
4.33758e-08
-4.6461e-17
-1.69073e-08
4.5273e-08
-3.30275e-16
-1.37558e-08
4.6022e-08
-1.80895e-16
-1.05978e-08
4.53042e-08
-8.33764e-17
-7.54701e-09
4.27703e-08
1.87314e-17
-4.74673e-09
3.80593e-08
1.76721e-16
-2.38096e-09
3.07886e-08
-4.13103e-17
-6.89798e-10
2.06707e-08
9.21177e-18
7.5158e-09
9.76009e-18
-6.29493e-09
-1.33388e-08
-3.6886e-15
-7.35529e-09
-1.46274e-08
-3.59464e-15
-8.49638e-09
-1.57897e-08
-3.54864e-15
-9.70576e-09
-1.68124e-08
-3.66322e-15
-1.09734e-08
-1.76902e-08
-3.59367e-15
-1.22919e-08
-1.84321e-08
-3.3641e-15
-1.36556e-08
-1.90482e-08
-3.20262e-15
-1.50599e-08
-1.95444e-08
-3.04723e-15
-1.65003e-08
-1.99277e-08
-2.88158e-15
-1.79715e-08
-2.01954e-08
-2.71244e-15
-1.94671e-08
-2.03438e-08
-2.53169e-15
-2.09791e-08
-2.03636e-08
-2.38678e-15
-2.2498e-08
-2.0241e-08
-2.28256e-15
-2.40127e-08
-1.99655e-08
-2.23635e-15
-2.55102e-08
-1.9518e-08
-2.24483e-15
-2.69762e-08
-1.88851e-08
-2.28428e-15
-2.83953e-08
-1.80508e-08
-2.0451e-15
-2.97506e-08
-1.69997e-08
-1.83941e-15
-3.10242e-08
-1.57179e-08
-1.66397e-15
-3.21972e-08
-1.41926e-08
-1.51656e-15
-3.32499e-08
-1.24137e-08
-1.3866e-15
-3.4162e-08
-1.03721e-08
-1.27405e-15
-3.49132e-08
-8.06249e-09
-1.16561e-15
-3.54826e-08
-5.48253e-09
-1.06663e-15
-3.58502e-08
-2.63403e-09
-9.63242e-16
-3.59952e-08
4.74296e-10
-8.62813e-16
-3.58995e-08
3.82997e-09
-7.54608e-16
-3.55449e-08
7.41329e-09
-6.48333e-16
-3.49164e-08
1.1193e-08
-5.34984e-16
-3.40016e-08
1.51266e-08
-4.24274e-16
-3.27903e-08
1.9173e-08
-3.08431e-16
-3.1279e-08
2.32505e-08
-1.32194e-16
-2.94678e-08
2.72876e-08
-3.18305e-16
-2.73652e-08
3.11723e-08
-5.27634e-16
-2.49873e-08
3.47808e-08
-3.50789e-16
-2.23596e-08
3.79694e-08
-2.25601e-16
-1.95207e-08
4.0537e-08
-4.59604e-17
-1.65227e-08
4.2275e-08
-3.24109e-16
-1.34335e-08
4.2933e-08
-1.76928e-16
-1.03417e-08
4.22123e-08
-8.0989e-17
-7.35868e-09
3.97873e-08
1.91807e-17
-4.62459e-09
3.53252e-08
1.73748e-16
-2.31809e-09
2.84821e-08
-3.92293e-17
-6.71297e-10
1.90239e-08
1.00002e-17
6.8445e-09
1.04055e-17
-6.44361e-09
-1.24225e-08
-3.54169e-15
-7.4559e-09
-1.36151e-08
-3.42065e-15
-8.55042e-09
-1.46952e-08
-3.32993e-15
-9.71545e-09
-1.56474e-08
-3.41344e-15
-1.09411e-08
-1.64646e-08
-3.33495e-15
-1.22196e-08
-1.71536e-08
-3.12477e-15
-1.3545e-08
-1.77228e-08
-2.99447e-15
-1.4912e-08
-1.81774e-08
-2.86599e-15
-1.63156e-08
-1.85241e-08
-2.72552e-15
-1.77502e-08
-1.87608e-08
-2.57646e-15
-1.92091e-08
-1.88849e-08
-2.41001e-15
-2.06843e-08
-1.88884e-08
-2.27314e-15
-2.21662e-08
-1.87591e-08
-2.17079e-15
-2.36439e-08
-1.84878e-08
-2.12001e-15
-2.51047e-08
-1.80573e-08
-2.11703e-15
-2.65343e-08
-1.74554e-08
-2.18719e-15
-2.79177e-08
-1.66674e-08
-1.96236e-15
-2.92383e-08
-1.56791e-08
-1.7699e-15
-3.04785e-08
-1.44777e-08
-1.60656e-15
-3.16198e-08
-1.30514e-08
-1.46765e-15
-3.2643e-08
-1.13906e-08
-1.34409e-15
-3.35281e-08
-9.48685e-09
-1.236e-15
-3.42553e-08
-7.3353e-09
-1.13147e-15
-3.4804e-08
-4.93366e-09
-1.03574e-15
-3.51546e-08
-2.2836e-09
-9.35785e-16
-3.52871e-08
6.06904e-10
-8.38744e-16
-3.51834e-08
3.72616e-09
-7.34019e-16
-3.48259e-08
7.05593e-09
-6.31269e-16
-3.41999e-08
1.05671e-08
-5.21514e-16
-3.32935e-08
1.422e-08
-4.14582e-16
-3.20966e-08
1.79763e-08
-3.02427e-16
-3.06062e-08
2.17599e-08
-1.30793e-16
-2.88225e-08
2.55041e-08
-3.14913e-16
-2.67541e-08
2.9104e-08
-5.19517e-16
-2.44174e-08
3.24439e-08
-3.45027e-16
-2.18374e-08
3.53895e-08
-2.21707e-16
-1.90529e-08
3.77524e-08
-4.55668e-17
-1.61152e-08
3.93373e-08
-3.17719e-16
-1.30918e-08
3.99096e-08
-1.72961e-16
-1.00696e-08
3.91902e-08
-7.87587e-17
-7.15824e-09
3.68759e-08
1.93049e-17
-4.49418e-09
3.26611e-08
1.70285e-16
-2.25063e-09
2.62385e-08
-3.73653e-17
-6.51288e-10
1.74246e-08
1.04899e-17
6.19322e-09
1.06557e-17
-6.57637e-09
-1.15547e-08
-3.42629e-15
-7.54147e-09
-1.265e-08
-3.29151e-15
-8.59046e-09
-1.36462e-08
-3.16461e-15
-9.71208e-09
-1.45257e-08
-3.35294e-15
-1.08964e-08
-1.52803e-08
-3.29877e-15
-1.21353e-08
-1.59146e-08
-3.0747e-15
-1.34225e-08
-1.64356e-08
-2.92991e-15
-1.47521e-08
-1.68479e-08
-2.78053e-15
-1.61186e-08
-1.71575e-08
-2.63375e-15
-1.7516e-08
-1.73634e-08
-2.48315e-15
-1.89376e-08
-1.74633e-08
-2.3164e-15
-2.0375e-08
-1.74509e-08
-2.17765e-15
-2.18189e-08
-1.73152e-08
-2.07075e-15
-2.32584e-08
-1.70484e-08
-2.01059e-15
-2.46809e-08
-1.66349e-08
-1.9886e-15
-2.60724e-08
-1.60637e-08
-2.10772e-15
-2.74183e-08
-1.53215e-08
-1.88562e-15
-2.87024e-08
-1.43951e-08
-1.70218e-15
-2.99072e-08
-1.32728e-08
-1.54879e-15
-3.10149e-08
-1.19437e-08
-1.41727e-15
-3.20066e-08
-1.03989e-08
-1.2996e-15
-3.28627e-08
-8.63056e-09
-1.19573e-15
-3.3564e-08
-6.63403e-09
-1.0951e-15
-3.40903e-08
-4.40717e-09
-1.00274e-15
-3.44226e-08
-1.95154e-09
-9.06355e-16
-3.45411e-08
7.25629e-10
-8.129e-16
-3.44285e-08
3.61342e-09
-7.11832e-16
-3.40675e-08
6.69505e-09
-6.12788e-16
-3.34439e-08
9.94343e-09
-5.06773e-16
-3.25459e-08
1.33218e-08
-4.03728e-16
-3.13641e-08
1.67947e-08
-2.95311e-16
-2.98955e-08
2.02913e-08
-1.28678e-16
-2.81408e-08
2.37494e-08
-3.10149e-16
-2.61085e-08
2.70717e-08
-5.10794e-16
-2.38151e-08
3.01504e-08
-3.38751e-16
-2.12856e-08
3.286e-08
-2.17695e-16
-1.85583e-08
3.50251e-08
-4.48714e-17
-1.56843e-08
3.64632e-08
-3.10846e-16
-1.27301e-08
3.69554e-08
-1.68723e-16
-9.78132e-09
3.62414e-08
-7.64165e-17
-6.94535e-09
3.404e-08
1.94058e-17
-4.35522e-09
3.0071e-08
1.66614e-16
-2.17841e-09
2.40617e-08
-3.54247e-17
-6.29687e-10
1.58759e-08
1.09047e-17
5.56353e-09
1.08722e-17
-6.68974e-09
-1.0734e-08
-3.24126e-15
-7.60912e-09
-1.17306e-08
-3.1405e-15
-8.61411e-09
-1.26412e-08
-2.88613e-15
-9.69358e-09
-1.34462e-08
-3.08304e-15
-1.08374e-08
-1.41365e-08
-3.00811e-15
-1.20374e-08
-1.47146e-08
-2.79247e-15
-1.32865e-08
-1.51865e-08
-2.68547e-15
-1.45786e-08
-1.55558e-08
-2.57277e-15
-1.59077e-08
-1.58284e-08
-2.46081e-15
-1.72674e-08
-1.60036e-08
-2.33917e-15
-1.86508e-08
-1.608e-08
-2.18835e-15
-2.00495e-08
-1.60521e-08
-2.06003e-15
-2.14542e-08
-1.59106e-08
-1.95651e-15
-2.28539e-08
-1.56486e-08
-1.89217e-15
-2.42365e-08
-1.52523e-08
-1.85186e-15
-2.55883e-08
-1.47118e-08
-2.0307e-15
-2.68948e-08
-1.40149e-08
-1.80644e-15
-2.81402e-08
-1.31497e-08
-1.63372e-15
-2.93077e-08
-1.21053e-08
-1.49013e-15
-3.03797e-08
-1.08718e-08
-1.36556e-15
-3.13377e-08
-9.44089e-09
-1.25335e-15
-3.21629e-08
-7.80522e-09
-1.15352e-15
-3.28364e-08
-5.96053e-09
-1.05667e-15
-3.33387e-08
-3.90475e-09
-9.67756e-16
-3.36511e-08
-1.6393e-09
-8.75051e-16
-3.37546e-08
8.29295e-10
-7.85316e-16
-3.36322e-08
3.4909e-09
-6.88083e-16
-3.32672e-08
6.33015e-09
-5.92915e-16
-3.26457e-08
9.32199e-09
-4.90774e-16
-3.17565e-08
1.24325e-08
-3.91735e-16
-3.05906e-08
1.5629e-08
-2.87169e-16
-2.91451e-08
1.88457e-08
-1.25358e-16
-2.7421e-08
2.20254e-08
-3.0499e-16
-2.54268e-08
2.50777e-08
-5.00722e-16
-2.31791e-08
2.79026e-08
-3.31716e-16
-2.07029e-08
3.03839e-08
-2.12991e-16
-1.80361e-08
3.23583e-08
-4.43591e-17
-1.52292e-08
3.36563e-08
-3.03709e-16
-1.23478e-08
3.4074e-08
-1.64464e-16
-9.47626e-09
3.33699e-08
-7.42125e-17
-6.71966e-09
3.12834e-08
1.9208e-17
-4.20746e-09
2.75588e-08
1.62465e-16
-2.10123e-09
2.19554e-08
-3.36763e-17
-6.06411e-10
1.43811e-08
1.10459e-17
4.95712e-09
1.07106e-17
-6.78061e-09
-9.95845e-09
-3.04756e-15
-7.65642e-09
-1.08548e-08
-2.99852e-15
-8.61934e-09
-1.16783e-08
-2.69934e-15
-9.65819e-09
-1.24074e-08
-2.99417e-15
-1.07627e-08
-1.3032e-08
-2.94297e-15
-1.19243e-08
-1.3553e-08
-2.70954e-15
-1.31356e-08
-1.39752e-08
-2.5868e-15
-1.439e-08
-1.43014e-08
-2.45704e-15
-1.56812e-08
-1.45372e-08
-2.34258e-15
-1.70026e-08
-1.46822e-08
-2.2236e-15
-1.83468e-08
-1.47357e-08
-2.08017e-15
-1.97057e-08
-1.46932e-08
-1.95611e-15
-2.10697e-08
-1.45466e-08
-1.85186e-15
-2.24282e-08
-1.42901e-08
-1.7788e-15
-2.37692e-08
-1.39114e-08
-1.71695e-15
-2.50792e-08
-1.34016e-08
-1.93524e-15
-2.63442e-08
-1.27498e-08
-1.72044e-15
-2.75489e-08
-1.19451e-08
-1.56321e-15
-2.86767e-08
-1.09775e-08
-1.43023e-15
-2.97107e-08
-9.8379e-09
-1.31244e-15
-3.0633e-08
-8.5186e-09
-1.20539e-15
-3.14252e-08
-7.01286e-09
-1.10944e-15
-3.20691e-08
-5.31666e-09
-1.01633e-15
-3.25456e-08
-3.42805e-09
-9.30964e-16
-3.28369e-08
-1.34827e-09
-8.41971e-16
-3.29242e-08
9.16814e-10
-7.56061e-16
-3.27913e-08
3.35786e-09
-6.62831e-16
-3.24219e-08
5.96087e-09