/*--------------------------------*- C++ -*----------------------------------*\
| =========                 |                                                 |
| \\      /  F ield         | OpenFOAM: The Open Source CFD Toolbox           |
|  \\    /   O peration     | Version:  v2012                                 |
|   \\  /    A nd           | Website:  www.openfoam.com                      |
|    \\/     M anipulation  |                                                 |
\*---------------------------------------------------------------------------*/
FoamFile
{
    version     2.0;
    format      ascii;
    class       volVectorField;
    location    "0.9";
    object      U;
}
// * * * * * * * * * * * * * * * * * * * * * * * * * * * * * * * * * * * * * //

dimensions      [0 1 -1 0 0 0 0];


internalField   nonuniform List<vector> 
3326
(
(-0.324318 0.379756 0.0028317)
(-0.268744 0.37137 0.0023466)
(-0.215042 0.3542 0.00187784)
(-0.164176 0.327891 0.00143382)
(-0.117307 0.292062 0.00102465)
(-0.0756933 0.246302 0.000661335)
(-0.041047 0.190145 0.000358794)
(-0.0149791 0.123065 0.000131203)
(-0.000656538 0.0444066 8.09149e-06)
(-0.490684 0.341978 0.00428377)
(-0.434627 0.357262 0.00379448)
(-0.378177 0.365016 0.00330178)
(-0.321991 0.364945 0.00281132)
(-0.266816 0.356746 0.00232972)
(-0.213501 0.340097 0.00186435)
(-0.163003 0.314664 0.00142354)
(-0.116476 0.280095 0.00101737)
(-0.0751665 0.236018 0.000656718)
(-0.0407712 0.182019 0.000356375)
(-0.0148864 0.117652 0.000130388)
(-0.000655502 0.0423643 8.06878e-06)
(-0.329149 -2.79647 0.00286968)
(-0.427754 -2.70953 0.0037325)
(-0.516227 -2.58432 0.00450488)
(-0.591957 -2.43862 0.00516594)
(-0.658032 -2.28598 0.00574273)
(-0.715215 -2.1346 0.00624189)
(-0.765537 -1.98846 0.00668116)
(-0.809953 -1.84877 0.00706888)
(-0.849376 -1.71534 0.00741302)
(-0.884228 -1.58737 0.00771725)
(-0.914778 -1.46398 0.00798393)
(-0.941113 -1.34444 0.00821384)
(-0.963251 -1.22823 0.00840711)
(-0.981162 -1.11504 0.00856348)
(-0.9948 -1.00474 0.00868259)
(-1.00412 -0.89731 0.00876401)
(-1.00909 -0.792848 0.00880744)
(-1.00969 -0.6915 0.00881272)
(-1.00592 -0.593457 0.00877983)
(-0.997779 -0.498929 0.00870887)
(-0.985315 -0.408141 0.00860015)
(-0.968578 -0.321319 0.00845412)
(-0.94764 -0.238695 0.00827144)
(-0.922599 -0.160497 0.00805294)
(-0.893575 -0.086958 0.00779968)
(-0.860711 -0.0182966 0.00751291)
(-0.824174 0.0452676 0.00719418)
(-0.784163 0.103509 0.00684502)
(-0.740909 0.156209 0.00646755)
(-0.694685 0.203136 0.00606415)
(-0.645787 0.244072 0.00563741)
(-0.594561 0.278785 0.00519035)
(-0.541408 0.307031 0.00472644)
(-0.486773 0.328564 0.00424953)
(-0.43117 0.343125 0.00376423)
(-0.375169 0.350447 0.00327546)
(-0.319426 0.350246 0.00278891)
(-0.264685 0.342232 0.0023111)
(-0.211792 0.326101 0.00184941)
(-0.161697 0.301538 0.00141213)
(-0.115546 0.26822 0.00100924)
(-0.0745742 0.225812 0.000651539)
(-0.040459 0.173955 0.000353644)
(-0.0147803 0.112278 0.000129457)
(-0.000653896 0.0403352 8.03906e-06)
(-0.338877 -2.65007 0.00295469)
(-0.433191 -2.57192 0.00377998)
(-0.518542 -2.45759 0.00452511)
(-0.592036 -2.32287 0.00516665)
(-0.656437 -2.1802 0.00572882)
(-0.712265 -2.0375 0.00621615)
(-0.761393 -1.89887 0.006645)
(-0.804707 -1.76581 0.0070231)
(-0.843101 -1.6384 0.00735826)
(-0.877008 -1.51606 0.00765425)
(-0.906714 -1.39807 0.00791357)
(-0.932322 -1.28378 0.00813712)
(-0.953859 -1.1727 0.00832514)
(-0.971298 -1.06453 0.0084774)
(-0.984593 -0.959142 0.00859351)
(-0.993696 -0.856517 0.00867301)
(-0.998562 -0.756726 0.00871552)
(-0.999161 -0.659906 0.00872081)
(-0.995478 -0.566233 0.00868873)
(-0.987517 -0.475905 0.0086193)
(-0.975299 -0.389136 0.00851272)
(-0.958866 -0.306143 0.00836936)
(-0.938282 -0.227148 0.00818977)
(-0.913634 -0.152371 0.00797469)
(-0.885033 -0.0820402 0.00772513)
(-0.852616 -0.0163658 0.00744224)
(-0.816542 0.0444373 0.00712746)
(-0.777007 0.100151 0.00678245)
(-0.734235 0.150561 0.00640919)
(-0.688496 0.195443 0.00601003)
(-0.640086 0.234586 0.00558755)
(-0.589348 0.267761 0.00514475)
(-0.53668 0.294734 0.00468509)
(-0.482529 0.315265 0.00421247)
(-0.427409 0.329105 0.00373138)
(-0.371887 0.335996 0.00324679)
(-0.316618 0.335666 0.00276439)
(-0.262345 0.327837 0.00229067)
(-0.209909 0.312221 0.00183296)
(-0.160254 0.288523 0.00139952)
(-0.114515 0.256447 0.00100024)
(-0.0739141 0.215695 0.00064577)
(-0.0401089 0.16596 0.000350582)
(-0.01466 0.106948 0.000128403)
(-0.000651668 0.0383211 8.00172e-06)
(-0.349256 -2.50825 0.0030454)
(-0.439197 -2.43791 0.00383243)
(-0.521292 -2.33357 0.00454913)
(-0.592413 -2.20917 0.00516996)
(-0.655022 -2.07607 0.00571648)
(-0.709414 -1.94184 0.00619129)
(-0.757303 -1.8106 0.00660932)
(-0.799493 -1.6841 0.00697761)
(-0.836853 -1.56264 0.00730373)
(-0.869812 -1.44587 0.00759145)
(-0.898669 -1.33319 0.00784335)
(-0.923539 -1.22403 0.00806046)
(-0.944457 -1.11797 0.00824309)
(-0.961402 -1.01472 0.00839103)
(-0.974327 -0.914148 0.00850391)
(-0.983177 -0.816224 0.00858121)
(-0.987903 -0.721014 0.00862249)
(-0.988465 -0.628639 0.00862745)
(-0.984838 -0.539262 0.00859585)
(-0.977014 -0.45307 0.00852763)
(-0.965006 -0.370264 0.00842289)
(-0.948846 -0.291053 0.0082819)
(-0.928587 -0.215646 0.00810514)
(-0.904306 -0.144258 0.00789327)
(-0.876108 -0.0771069 0.00764722)
(-0.844121 -0.0143967 0.0073681)
(-0.808501 0.0436641 0.00705726)
(-0.769436 0.0968648 0.00671635)
(-0.727146 0.144998 0.0063473)
(-0.681899 0.187846 0.00595243)
(-0.633987 0.225202 0.00553429)
(-0.583751 0.256846 0.00509588)
(-0.53159 0.282551 0.00464064)
(-0.477947 0.302086 0.00417246)
(-0.423336 0.315209 0.00369582)
(-0.368323 0.321672 0.00321567)
(-0.313562 0.321214 0.00273771)
(-0.259791 0.31357 0.00226837)
(-0.207848 0.298466 0.00181497)
(-0.15867 0.275628 0.00138569)
(-0.113379 0.244785 0.000990312)
(-0.0731836 0.205675 0.000639387)
(-0.0397192 0.158041 0.000347175)
(-0.0145248 0.101668 0.000127218)
(-0.000648757 0.0363241 7.95609e-06)
(-0.360523 -2.371 0.00314388)
(-0.445986 -2.30759 0.00389173)
(-0.524658 -2.21237 0.00457854)
(-0.593233 -2.09763 0.00517714)
(-0.653897 -1.97368 0.00570668)
(-0.706739 -1.84767 0.00616796)
(-0.75331 -1.7237 0.00657448)
(-0.794331 -1.60366 0.00693257)
(-0.830627 -1.48809 0.00724941)
(-0.862621 -1.3768 0.0075287)
(-0.890615 -1.26934 0.00777307)
(-0.914732 -1.16523 0.00798361)
(-0.935015 -1.06408 0.00816068)
(-0.951443 -0.965642 0.00830411)
(-0.96397 -0.869777 0.00841351)
(-0.972538 -0.776459 0.00848834)
(-0.97709 -0.685739 0.00852811)
(-0.97758 -0.597728 0.00853244)
(-0.973972 -0.512574 0.00850102)
(-0.966252 -0.430453 0.0084337)
(-0.954421 -0.351554 0.00833049)
(-0.938501 -0.276074 0.0081916)
(-0.918539 -0.204214 0.00801743)
(-0.894601 -0.136178 0.00780856)
(-0.866787 -0.0721762 0.00756586)
(-0.835217 -0.0124045 0.00729037)
(-0.80004 0.0429357 0.0069834)
(-0.76144 0.0936417 0.00664656)
(-0.719634 0.139513 0.00628172)
(-0.674885 0.180338 0.0058912)
(-0.627481 0.215918 0.0054775)
(-0.577764 0.246041 0.00504361)
(-0.526128 0.270487 0.00459296)
(-0.473018 0.289031 0.00412943)
(-0.418943 0.301443 0.00365747)
(-0.364471 0.307482 0.00318204)
(-0.31025 0.306898 0.00270879)
(-0.257018 0.299439 0.00224415)
(-0.205604 0.284846 0.00179538)
(-0.15694 0.262864 0.00137058)
(-0.112134 0.233244 0.000979441)
(-0.0723801 0.19576 0.000632367)
(-0.0392883 0.150206 0.000343409)
(-0.0143739 0.096443 0.000125897)
(-0.000645097 0.0343461 7.90143e-06)
(-0.372839 -2.2383 0.00325152)
(-0.453713 -2.18102 0.00395921)
(-0.528774 -2.09413 0.0046145)
(-0.594609 -1.98841 0.00518917)
(-0.653146 -1.87317 0.00570015)
(-0.704297 -1.75511 0.00614665)
(-0.749447 -1.63822 0.00654078)
(-0.78923 -1.52454 0.00688806)
(-0.824419 -1.41476 0.00719523)
(-0.855419 -1.30887 0.00746585)
(-0.882528 -1.20653 0.0077025)
(-0.905873 -1.10737 0.00790629)
(-0.925498 -1.01104 0.00807762)
(-0.941386 -0.917306 0.00821634)
(-0.95349 -0.826053 0.00832204)
(-0.961746 -0.737247 0.00839415)
(-0.966094 -0.65093 0.00843214)
(-0.966478 -0.567201 0.00843555)
(-0.962858 -0.486197 0.00840401)
(-0.955208 -0.408082 0.0083373)
(-0.943521 -0.333031 0.00823536)
(-0.927813 -0.261231 0.00809832)
(-0.908121 -0.192874 0.0079265)
(-0.884504 -0.128152 0.00772043)
(-0.857055 -0.067266 0.00748091)
(-0.825887 -0.0104044 0.00720893)
(-0.791144 0.0422397 0.00690576)
(-0.753007 0.0904718 0.00657294)
(-0.711686 0.134099 0.00621234)
(-0.66744 0.172917 0.00582621)
(-0.620558 0.206735 0.00541706)
(-0.571375 0.235347 0.00498783)
(-0.520286 0.258542 0.00454196)
(-0.467733 0.276105 0.00408329)
(-0.414223 0.287811 0.00361627)
(-0.360322 0.293432 0.00314582)
(-0.306677 0.292727 0.00267759)
(-0.254018 0.285455 0.00221796)
(-0.203172 0.271372 0.00177414)
(-0.15506 0.250239 0.00135416)
(-0.110778 0.221833 0.000967589)
(-0.0715007 0.18596 0.000624684)
(-0.0388143 0.142463 0.000339266)
(-0.0142067 0.0912781 0.000124432)
(-0.000640612 0.0323895 7.83693e-06)
(-0.386277 -2.11015 0.00336897)
(-0.462451 -2.05831 0.00403551)
(-0.533707 -1.97899 0.00465758)
(-0.596597 -1.88167 0.00520655)
(-0.652813 -1.77468 0.00569726)
(-0.702114 -1.66425 0.00612762)
(-0.745725 -1.55426 0.00650831)
(-0.784187 -1.4468 0.00684405)
(-0.818213 -1.3427 0.00714108)
(-0.848181 -1.2421 0.00740268)
(-0.874378 -1.1448 0.00763137)
(-0.896927 -1.05048 0.00782822)
(-0.915873 -0.958859 0.00799362)
(-0.931198 -0.869739 0.00812742)
(-0.942852 -0.783001 0.0082292)
(-0.95077 -0.698613 0.00829835)
(-0.954883 -0.616613 0.00833429)
(-0.955131 -0.537086 0.00833652)
(-0.951466 -0.46016 0.00830458)
(-0.943855 -0.385984 0.00823821)
(-0.932284 -0.314722 0.00813728)
(-0.91676 -0.246551 0.00800184)
(-0.897312 -0.181649 0.00783216)
(-0.873995 -0.1202 0.0076287)
(-0.846893 -0.0623942 0.00739222)
(-0.816115 -0.00841151 0.00712364)
(-0.781799 0.0415637 0.00682418)
(-0.74412 0.0873455 0.00649537)
(-0.703286 0.128748 0.00613902)
(-0.659552 0.165577 0.00575736)
(-0.613203 0.197648 0.00535286)
(-0.564572 0.224764 0.00492845)
(-0.514051 0.246721 0.00448753)
(-0.462081 0.263312 0.00403395)
(-0.409166 0.274321 0.00357212)
(-0.355869 0.27953 0.00310694)
(-0.302833 0.278708 0.00264403)
(-0.250786 0.271626 0.00218974)
(-0.200546 0.258052 0.0017512)
(-0.153024 0.237765 0.00133638)
(-0.109305 0.210562 0.000954723)
(-0.0705426 0.176284 0.000616313)
(-0.0382954 0.13482 0.000334729)
(-0.0140221 0.0861793 0.000122815)
(-0.000635215 0.0304565 7.76167e-06)
(-0.400801 -1.98655 0.00349591)
(-0.472175 -1.93952 0.00412043)
(-0.539436 -1.8671 0.00470762)
(-0.599185 -1.77756 0.00522917)
(-0.652887 -1.67834 0.00569793)
(-0.70018 -1.57522 0.00611075)
(-0.742127 -1.47189 0.00647692)
(-0.77918 -1.37049 0.00680037)
(-0.811982 -1.27195 0.0070867)
(-0.840876 -1.17653 0.00733893)
(-0.866129 -1.08415 0.00755938)
(-0.887858 -0.994577 0.00774907)
(-0.906102 -0.907574 0.00790835)
(-0.920841 -0.822965 0.00803703)
(-0.932022 -0.740645 0.00813468)
(-0.939573 -0.660586 0.00820063)
(-0.943424 -0.582816 0.00823428)
(-0.943508 -0.507413 0.00823506)
(-0.939768 -0.43449 0.00820248)
(-0.932167 -0.364187 0.00813619)
(-0.920683 -0.296654 0.00803602)
(-0.905316 -0.232056 0.00790195)
(-0.88609 -0.170561 0.0077342)
(-0.863052 -0.112342 0.00753318)
(-0.836281 -0.0575785 0.00729959)
(-0.805881 -0.00644068 0.0070343)
(-0.771984 0.0408957 0.00673851)
(-0.734763 0.0842536 0.00641369)
(-0.694419 0.123456 0.00606162)
(-0.651205 0.158316 0.00568449)
(-0.605402 0.188658 0.00528476)
(-0.557342 0.214293 0.00486533)
(-0.507412 0.235025 0.00442958)
(-0.456051 0.250656 0.00398131)
(-0.403761 0.260979 0.00352493)
(-0.351102 0.265785 0.00306532)
(-0.298712 0.264852 0.00260805)
(-0.247314 0.257962 0.00215943)
(-0.197719 0.244897 0.00172652)
(-0.150829 0.225451 0.00131721)
(-0.107711 0.199443 0.000940805)
(-0.0695025 0.166742 0.000607226)
(-0.0377294 0.127284 0.000329783)
(-0.0138193 0.0811526 0.000121039)
(-0.000628809 0.0285496 7.67464e-06)
(-0.416264 -1.86749 0.00363105)
(-0.482759 -1.82475 0.00421286)
(-0.545855 -1.75858 0.00476368)
(-0.602291 -1.67624 0.00525631)
(-0.653304 -1.58432 0.00570159)
(-0.69844 -1.48814 0.00609559)
(-0.738608 -1.39122 0.00644622)
(-0.774167 -1.29568 0.00675663)
(-0.805684 -1.20255 0.00703175)
(-0.833462 -1.1122 0.00727423)
(-0.857741 -1.02463 0.00748618)
(-0.878625 -0.939695 0.00766849)
(-0.896145 -0.857204 0.00782145)
(-0.910275 -0.777008 0.00794482)
(-0.920958 -0.699013 0.00803812)
(-0.92812 -0.623192 0.00810067)
(-0.931682 -0.549567 0.00813179)
(-0.931572 -0.478208 0.00813089)
(-0.92773 -0.409216 0.00809741)
(-0.92011 -0.342718 0.00803096)
(-0.908686 -0.278853 0.00793131)
(-0.893452 -0.217773 0.0077984)
(-0.874425 -0.159634 0.00763239)
(-0.851648 -0.104599 0.00743364)
(-0.825193 -0.0528363 0.00720281)
(-0.79516 -0.00450676 0.00694073)
(-0.761678 0.0402236 0.00664855)
(-0.724913 0.081187 0.00632772)
(-0.685064 0.118215 0.00597996)
(-0.642381 0.15113 0.00560746)
(-0.597139 0.179764 0.00521263)
(-0.549669 0.203935 0.00479835)
(-0.500355 0.223459 0.00436797)
(-0.449631 0.238143 0.00392526)
(-0.397998 0.247792 0.00347462)
(-0.346011 0.252203 0.00302087)
(-0.294304 0.251166 0.00256957)
(-0.243595 0.244473 0.00212695)
(-0.194685 0.231917 0.00170003)
(-0.148468 0.213308 0.00129659)
(-0.105993 0.188484 0.000925799)
(-0.0683772 0.157344 0.000597395)
(-0.0371143 0.119866 0.000324407)
(-0.0135973 0.0762045 0.000119094)
(-0.000621284 0.0266714 7.57469e-06)
(-0.432426 -1.75296 0.0037723)
(-0.493984 -1.71406 0.00431088)
(-0.552782 -1.65355 0.00482418)
(-0.605766 -1.57785 0.00528667)
(-0.653945 -1.49273 0.00570721)
(-0.696803 -1.40312 0.00608133)
(-0.735092 -1.31232 0.00641556)
(-0.769084 -1.22243 0.00671227)
(-0.799263 -1.13455 0.00697572)
(-0.825888 -1.04913 0.00720814)
(-0.849165 -0.966265 0.00741134)
(-0.869181 -0.885858 0.00758608)
(-0.885956 -0.807776 0.00773253)
(-0.899457 -0.731894 0.00785041)
(-0.909621 -0.65813 0.00793917)
(-0.916368 -0.586458 0.0079981)
(-0.919615 -0.516894 0.00802648)
(-0.919286 -0.4495 0.00802366)
(-0.915315 -0.384365 0.00798905)
(-0.907651 -0.321604 0.00792221)
(-0.896261 -0.261344 0.00782286)
(-0.881136 -0.203724 0.0076909)
(-0.862288 -0.14889 0.00752645)
(-0.839754 -0.0969904 0.00732982)
(-0.813602 -0.0481853 0.00710163)
(-0.783928 -0.00262446 0.00684269)
(-0.750856 0.0395357 0.00655409)
(-0.714548 0.0781367 0.00623725)
(-0.675201 0.113019 0.00589387)
(-0.633059 0.144015 0.00552609)
(-0.588395 0.170963 0.00513631)
(-0.541536 0.193692 0.00472736)
(-0.492863 0.212025 0.00430257)
(-0.442807 0.225779 0.00386569)
(-0.391864 0.234766 0.00342107)
(-0.340586 0.238794 0.00297351)
(-0.289601 0.237661 0.00252851)
(-0.23962 0.231169 0.00209225)
(-0.191439 0.219124 0.00167168)
(-0.145936 0.201348 0.00127448)
(-0.104146 0.177698 0.000909665)
(-0.0671634 0.1481 0.000586791)
(-0.0364479 0.112573 0.000318582)
(-0.0133549 0.0713413 0.000116971)
(-0.000612519 0.0248246 7.46056e-06)
(-0.448981 -1.64299 0.00391698)
(-0.505568 -1.60748 0.00441203)
(-0.559972 -1.55211 0.00488698)
(-0.609413 -1.48247 0.00531853)
(-0.654654 -1.40369 0.00571344)
(-0.695147 -1.32024 0.00606689)
(-0.731482 -1.23527 0.00638407)
(-0.763851 -1.15081 0.00666662)
(-0.792652 -1.068 0.00691804)
(-0.818094 -0.987372 0.00714013)
(-0.840348 -0.909078 0.00733439)
(-0.859476 -0.833091 0.00750138)
(-0.875488 -0.759316 0.00764117)
(-0.88834 -0.68765 0.00775339)
(-0.897964 -0.618024 0.00783743)
(-0.904273 -0.550411 0.00789255)
(-0.907182 -0.484826 0.00791797)
(-0.906609 -0.421318 0.00791302)
(-0.902483 -0.359967 0.00787705)
(-0.894748 -0.300874 0.0078096)
(-0.88337 -0.244155 0.00771034)
(-0.868332 -0.189936 0.00757914)
(-0.849642 -0.13835 0.00741608)
(-0.827336 -0.0895367 0.00722144)
(-0.801476 -0.0436428 0.00699578)
(-0.772153 -0.000808266 0.00673991)
(-0.739489 0.0388202 0.00645487)
(-0.703642 0.075094 0.00614204)
(-0.664804 0.107863 0.00580311)
(-0.623216 0.136968 0.00544018)
(-0.579149 0.162257 0.0050556)
(-0.532925 0.183566 0.00465219)
(-0.484921 0.200728 0.00423324)
(-0.435564 0.21357 0.00380246)
(-0.385347 0.22191 0.00336417)
(-0.334815 0.225565 0.00292313)
(-0.284593 0.224345 0.00248478)
(-0.235383 0.21806 0.00205526)
(-0.187972 0.206527 0.00164141)
(-0.143227 0.189581 0.00125082)
(-0.102165 0.167095 0.000892364)
(-0.0658576 0.13902 0.000575383)
(-0.0357278 0.105415 0.000312288)
(-0.0130911 0.0665701 0.00011466)
(-0.000602374 0.0230121 7.33084e-06)
(-0.465582 -1.53759 0.00406206)
(-0.517185 -1.50507 0.00451348)
(-0.56715 -1.45431 0.00494967)
(-0.613003 -1.3902 0.0053499)
(-0.655252 -1.31725 0.00571868)
(-0.693327 -1.23959 0.00605104)
(-0.727666 -1.16012 0.00635078)
(-0.758378 -1.08086 0.00661887)
(-0.785775 -1.00294 0.00685803)
(-0.810015 -0.926947 0.00706963)
(-0.831228 -0.853101 0.00725481)
(-0.849455 -0.781421 0.00741393)
(-0.864688 -0.711848 0.00754691)
(-0.876874 -0.644302 0.00765332)
(-0.885938 -0.578722 0.00773248)
(-0.891789 -0.515082 0.00778359)
(-0.894337 -0.453392 0.00780585)
(-0.893495 -0.393692 0.00779855)
(-0.889189 -0.33605 0.00776102)
(-0.88136 -0.280555 0.00769275)
(-0.869969 -0.227311 0.00759338)
(-0.854998 -0.176432 0.00746276)
(-0.83645 -0.128038 0.00730093)
(-0.814356 -0.0822578 0.00710815)
(-0.788778 -0.0392259 0.00688495)
(-0.759801 0.000927509 0.00663209)
(-0.727545 0.0380661 0.00635061)
(-0.692163 0.0720508 0.00604185)
(-0.653846 0.102741 0.00570746)
(-0.612828 0.129986 0.0053495)
(-0.569379 0.153644 0.00497031)
(-0.523815 0.17356 0.00457266)
(-0.47651 0.189573 0.00415981)
(-0.427887 0.201521 0.00373544)
(-0.378432 0.20923 0.00330381)
(-0.328687 0.212527 0.00286963)
(-0.279269 0.21123 0.0024383)
(-0.230874 0.205158 0.00201589)
(-0.184278 0.194139 0.00160916)
(-0.140335 0.178019 0.00122557)
(-0.100046 0.156687 0.000873855)
(-0.0644563 0.130116 0.000563141)
(-0.0349517 0.0984012 0.000305504)
(-0.0128046 0.061898 0.000112152)
(-0.000590698 0.021237 7.18395e-06)
(-0.481868 -1.43683 0.00420439)
(-0.528498 -1.40686 0.00461227)
(-0.574029 -1.36018 0.00500974)
(-0.616298 -1.30107 0.00537869)
(-0.655547 -1.23348 0.00572128)
(-0.691196 -1.16119 0.00603246)
(-0.723524 -1.08692 0.00631465)
(-0.752567 -1.01261 0.00656817)
(-0.778551 -0.939388 0.00679499)
(-0.801579 -0.867884 0.00699601)
(-0.821743 -0.798358 0.00717203)
(-0.839058 -0.730874 0.00732319)
(-0.853499 -0.665401 0.00744927)
(-0.865004 -0.601878 0.00754972)
(-0.873491 -0.540253 0.00762385)
(-0.878863 -0.4805 0.00767078)
(-0.881027 -0.422622 0.00768969)
(-0.879893 -0.366651 0.00767984)
(-0.875384 -0.312644 0.00764053)
(-0.867438 -0.260677 0.00757123)
(-0.856013 -0.210841 0.00747157)
(-0.841089 -0.163238 0.00734136)
(-0.822666 -0.117977 0.00718062)
(-0.800773 -0.0751739 0.00698959)
(-0.775468 -0.034952 0.00676878)
(-0.746835 0.0025688 0.00651892)
(-0.714988 0.0372623 0.00624101)
(-0.68008 0.0689992 0.00593638)
(-0.642295 0.097648 0.00560663)
(-0.601867 0.123068 0.00525382)
(-0.559058 0.145126 0.00488022)
(-0.514183 0.163675 0.00448858)
(-0.467609 0.178565 0.00408212)
(-0.419756 0.189639 0.00366446)
(-0.371104 0.196737 0.00323983)
(-0.322188 0.19969 0.00281289)
(-0.273619 0.198326 0.00238898)
(-0.226084 0.192474 0.00197407)
(-0.180349 0.181971 0.00157485)
(-0.137256 0.166674 0.00119868)
(-0.0977838 0.146485 0.000854099)
(-0.062956 0.121399 0.000550033)
(-0.0341171 0.0915421 0.000298209)
(-0.0124943 0.0573324 0.000109434)
(-0.000577319 0.0195026 7.01817e-06)
(-0.497474 -1.34076 0.00434079)
(-0.539174 -1.31285 0.00470551)
(-0.58033 -1.26973 0.00506478)
(-0.619069 -1.21508 0.00540291)
(-0.655356 -1.15238 0.00571965)
(-0.688604 -1.08507 0.00600986)
(-0.718938 -1.0157 0.00627465)
(-0.746323 -0.946086 0.00651369)
(-0.770897 -0.877377 0.0067282)
(-0.792715 -0.810208 0.00691866)
(-0.811827 -0.744876 0.00708549)
(-0.828223 -0.681475 0.00722863)
(-0.841863 -0.620001 0.00734771)
(-0.852673 -0.560408 0.00744211)
(-0.860565 -0.502648 0.00751104)
(-0.865439 -0.446697 0.00755362)
(-0.867198 -0.392549 0.00756899)
(-0.865748 -0.340228 0.00755639)
(-0.861013 -0.28978 0.0075151)
(-0.852928 -0.241269 0.00744459)
(-0.841449 -0.194773 0.00734445)
(-0.826553 -0.150381 0.00721449)
(-0.808241 -0.10819 0.00705471)
(-0.786539 -0.0683049 0.00686535)
(-0.761501 -0.0308379 0.00664687)
(-0.733211 0.00410184 0.0064)
(-0.701779 0.0363982 0.00612571)
(-0.667354 0.0659318 0.0058253)
(-0.630118 0.0925804 0.00550034)
(-0.5903 0.116213 0.00515285)
(-0.548159 0.136704 0.00478508)
(-0.504003 0.153917 0.00439972)
(-0.458198 0.167709 0.00399996)
(-0.411154 0.177934 0.00358937)
(-0.363347 0.184438 0.00317212)
(-0.315305 0.187062 0.00275281)
(-0.267632 0.185644 0.0023367)
(-0.221005 0.180019 0.00192972)
(-0.176179 0.170035 0.00153844)
(-0.133982 0.155557 0.00117009)
(-0.0953743 0.136501 0.000833054)
(-0.0613531 0.112879 0.00053603)
(-0.0332215 0.0848476 0.000290382)
(-0.0121589 0.052881 0.000106496)
(-0.000562048 0.0178123 6.83158e-06)
(-0.512047 -1.24942 0.00446816)
(-0.548901 -1.22303 0.00479046)
(-0.5858 -1.18293 0.00511256)
(-0.621108 -1.13222 0.00542074)
(-0.654514 -1.07395 0.00571233)
(-0.685419 -1.01124 0.00598209)
(-0.713799 -0.946444 0.00622981)
(-0.739551 -0.881305 0.0064546)
(-0.762732 -0.816921 0.00665696)
(-0.783349 -0.753939 0.00683692)
(-0.801411 -0.692676 0.0069946)
(-0.816885 -0.633251 0.00712969)
(-0.829715 -0.575678 0.0072417)
(-0.839819 -0.519921 0.00732992)
(-0.8471 -0.465939 0.00739352)
(-0.851456 -0.413704 0.00743157)
(-0.852787 -0.363205 0.00744322)
(-0.851 -0.314456 0.00742767)
(-0.846015 -0.26749 0.00738421)
(-0.837769 -0.222361 0.00731228)
(-0.826217 -0.179134 0.0072115)
(-0.811334 -0.137885 0.00708165)
(-0.79312 -0.0986998 0.00692273)
(-0.7716 -0.0616712 0.00673495)
(-0.746827 -0.0269005 0.00651879)
(-0.718881 0.00551323 0.00627492)
(-0.687872 0.0354641 0.00600432)
(-0.653944 0.0628421 0.00570825)
(-0.617277 0.0875346 0.00538825)
(-0.578094 0.10942 0.0050463)
(-0.53665 0.128381 0.00468462)
(-0.49325 0.14429 0.00430585)
(-0.448251 0.157013 0.00391313)
(-0.40206 0.166413 0.00350998)
(-0.355144 0.172344 0.0031005)
(-0.308024 0.174657 0.00268924)
(-0.261296 0.173196 0.00228139)
(-0.215627 0.167807 0.00188276)
(-0.17176 0.158344 0.00149985)
(-0.130508 0.144682 0.00113976)
(-0.0928128 0.126748 0.000810682)
(-0.0596441 0.104569 0.0005211)
(-0.0322627 0.078328 0.000282002)
(-0.011797 0.048552 0.000103326)
(-0.000544675 0.0161698 6.62211e-06)
(-0.525244 -1.16283 0.00458352)
(-0.557393 -1.13735 0.00486463)
(-0.590217 -1.09971 0.00515115)
(-0.622232 -1.05242 0.00543058)
(-0.652875 -0.998136 0.00569805)
(-0.68152 -0.939666 0.00594808)
(-0.708005 -0.879167 0.00617926)
(-0.732164 -0.818272 0.00639014)
(-0.753978 -0.758036 0.00658056)
(-0.773407 -0.699098 0.00675017)
(-0.790425 -0.641784 0.00689872)
(-0.804976 -0.586229 0.00702576)
(-0.816989 -0.532461 0.00713064)
(-0.826372 -0.480451 0.00721257)
(-0.833026 -0.430161 0.00727069)
(-0.836844 -0.381559 0.00730404)
(-0.837726 -0.334627 0.00731177)
(-0.835579 -0.289369 0.00729307)
(-0.830323 -0.245809 0.00724725)
(-0.821895 -0.203986 0.00717373)
(-0.810251 -0.163954 0.00707215)
(-0.795366 -0.125777 0.00694228)
(-0.77724 -0.0895299 0.00678413)
(-0.755897 -0.0552927 0.00659789)
(-0.731389 -0.0231564 0.00638403)
(-0.703793 0.00679006 0.00614323)
(-0.673218 0.0344504 0.00587641)
(-0.639805 0.0597243 0.00558483)
(-0.603729 0.082508 0.00526999)
(-0.56521 0.102689 0.00493384)
(-0.524499 0.12016 0.00457854)
(-0.481892 0.1348 0.00420671)
(-0.437744 0.146485 0.0038214)
(-0.392451 0.155086 0.0034261)
(-0.346476 0.160466 0.00302483)
(-0.30033 0.162485 0.00262207)
(-0.254599 0.160994 0.00222292)
(-0.20994 0.155849 0.00183311)
(-0.167084 0.14691 0.00145902)
(-0.126829 0.134062 0.00110763)
(-0.090095 0.117238 0.000786945)
(-0.0578259 0.09648 0.000505216)
(-0.0312382 0.0719941 0.000273047)
(-0.0114073 0.0443537 9.99133e-05)
(-0.000524972 0.0145788 6.38746e-06)
(-0.536747 -1.0809 0.00468407)
(-0.564404 -1.05571 0.00492586)
(-0.593393 -1.01999 0.00517891)
(-0.622293 -0.975616 0.00543114)
(-0.650317 -0.924902 0.00567574)
(-0.676803 -0.870328 0.00590693)
(-0.701466 -0.813854 0.0061222)
(-0.72408 -0.756991 0.0063196)
(-0.744557 -0.700735 0.00649835)
(-0.762816 -0.645704 0.00665774)
(-0.778797 -0.592225 0.00679725)
(-0.792424 -0.540441 0.00691621)
(-0.803611 -0.490384 0.00701388)
(-0.81226 -0.442034 0.00708941)
(-0.818268 -0.395351 0.00714189)
(-0.821527 -0.350299 0.00717036)
(-0.821937 -0.306852 0.00717397)
(-0.819407 -0.265006 0.00715193)
(-0.813858 -0.224772 0.00710355)
(-0.805229 -0.186178 0.00702828)
(-0.793476 -0.149265 0.00692574)
(-0.778577 -0.114086 0.00679575)
(-0.760532 -0.0807045 0.00663829)
(-0.739363 -0.0491895 0.00645358)
(-0.715122 -0.0196217 0.00624206)
(-0.687887 0.00792002 0.00600439)
(-0.657762 0.0333487 0.0057415)
(-0.624885 0.0565734 0.0054546)
(-0.589429 0.0774992 0.00514517)
(-0.551608 0.096023 0.00481511)
(-0.511667 0.112044 0.00446654)
(-0.469898 0.125453 0.00410201)
(-0.426647 0.136133 0.00372454)
(-0.382305 0.143964 0.00333753)
(-0.337323 0.148817 0.00294493)
(-0.292206 0.15056 0.00255114)
(-0.247528 0.149053 0.00216118)
(-0.203935 0.14416 0.00178068)
(-0.162144 0.135748 0.00141589)
(-0.122939 0.123709 0.00107366)
(-0.0872169 0.107984 0.000761808)
(-0.0558954 0.0886249 0.000488351)
(-0.0301457 0.0658569 0.0002635)
(-0.0109885 0.0402946 9.62455e-05)
(-0.000502688 0.0130435 6.12517e-06)
(-0.546257 -1.00347 0.00476722)
(-0.569719 -0.977956 0.0049723)
(-0.595171 -0.943606 0.00519446)
(-0.621163 -0.901704 0.00542131)
(-0.646735 -0.85418 0.00564451)
(-0.671176 -0.803191 0.00585784)
(-0.694098 -0.750494 0.00605791)
(-0.715219 -0.697466 0.00624228)
(-0.734393 -0.645034 0.00640965)
(-0.751499 -0.593783 0.00655898)
(-0.766449 -0.544031 0.00668949)
(-0.779149 -0.495919 0.00680035)
(-0.7895 -0.449486 0.00689073)
(-0.7974 -0.404711 0.00695971)
(-0.802741 -0.361551 0.00700638)
(-0.805419 -0.319966 0.00702978)
(-0.805334 -0.279924 0.00702906)
(-0.802397 -0.241407 0.00700347)
(-0.796534 -0.204417 0.00695234)
(-0.787685 -0.168971 0.00687515)
(-0.775809 -0.135098 0.00677154)
(-0.760886 -0.102839 0.00664133)
(-0.742916 -0.0722473 0.00648454)
(-0.721922 -0.0433816 0.00630135)
(-0.697958 -0.016312 0.00609224)
(-0.671097 0.00889157 0.00585784)
(-0.641442 0.0321515 0.00559905)
(-0.609129 0.0533857 0.00531707)
(-0.574325 0.0725079 0.00501333)
(-0.537241 0.0894239 0.0046897)
(-0.498115 0.104042 0.00434824)
(-0.457233 0.116259 0.00399145)
(-0.414932 0.125969 0.00362227)
(-0.371595 0.133058 0.00324404)
(-0.327666 0.137409 0.00286062)
(-0.283636 0.138895 0.00247633)
(-0.240071 0.137387 0.00209608)
(-0.197602 0.132754 0.00172539)
(-0.156934 0.124872 0.0013704)
(-0.118833 0.113638 0.0010378)
(-0.0841749 0.0989995 0.000735239)
(-0.0538498 0.0810159 0.000470481)
(-0.0289834 0.0599274 0.000253341)
(-0.0105393 0.0363836 9.23116e-05)
(-0.000477553 0.0115682 5.83261e-06)
(-0.553514 -0.930288 0.00483068)
(-0.573167 -0.903873 0.00500244)
(-0.595418 -0.87041 0.00519664)
(-0.618737 -0.830572 0.00540016)
(-0.642036 -0.785899 0.00560352)
(-0.664554 -0.738218 0.00580006)
(-0.685818 -0.689075 0.00598567)
(-0.705501 -0.639705 0.00615748)
(-0.723403 -0.590953 0.00631375)
(-0.739373 -0.543363 0.00645316)
(-0.753296 -0.497235 0.0065747)
(-0.765062 -0.452706 0.00667741)
(-0.774564 -0.40981 0.00676038)
(-0.781695 -0.368526 0.00682265)
(-0.786348 -0.328808 0.00686331)
(-0.78842 -0.290608 0.00688142)
(-0.787815 -0.253886 0.00687617)
(-0.784449 -0.218615 0.00684682)
(-0.77825 -0.184785 0.00679276)
(-0.769164 -0.152402 0.0067135)
(-0.757153 -0.121485 0.00660871)
(-0.742198 -0.0920648 0.00647823)
(-0.724303 -0.0641825 0.00632209)
(-0.703492 -0.0378882 0.00614049)
(-0.679816 -0.0132423 0.00593389)
(-0.653349 0.0096942 0.00570292)
(-0.624191 0.0308525 0.00544847)
(-0.592474 0.0501588 0.00517169)
(-0.558362 0.0675354 0.00487399)
(-0.522059 0.0828967 0.00455718)
(-0.483798 0.0961582 0.00422327)
(-0.443857 0.107227 0.00387469)
(-0.402565 0.116003 0.00351431)
(-0.360296 0.122384 0.00314539)
(-0.317481 0.126257 0.00277171)
(-0.274603 0.127507 0.00239747)
(-0.232214 0.126011 0.00202748)
(-0.190932 0.121647 0.00166715)
(-0.151447 0.114296 0.00132249)
(-0.114507 0.103862 0.00100002)
(-0.0809659 0.0902973 0.000707213)
(-0.051687 0.0736654 0.000451587)
(-0.0277494 0.0542171 0.000242556)
(-0.0100585 0.0326297 8.81014e-05)
(-0.000449278 0.0101572 5.50698e-06)
(-0.558291 -0.860996 0.00487248)
(-0.574602 -0.833198 0.00501499)
(-0.594014 -0.80021 0.00518441)
(-0.614915 -0.762098 0.00536683)
(-0.636128 -0.719987 0.00555197)
(-0.656849 -0.675375 0.00573283)
(-0.676541 -0.629591 0.00590471)
(-0.694838 -0.583719 0.00606443)
(-0.711499 -0.538517 0.00620986)
(-0.726346 -0.49448 0.00633947)
(-0.739241 -0.451882 0.00645204)
(-0.750063 -0.410848 0.00654651)
(-0.758698 -0.371407 0.00662191)
(-0.765038 -0.333533 0.00667727)
(-0.768976 -0.297174 0.00671169)
(-0.770416 -0.262276 0.00672428)
(-0.769265 -0.228788 0.00671426)
(-0.765446 -0.196676 0.00668097)
(-0.758892 -0.165918 0.0066238)
(-0.749554 -0.13651 0.00654234)
(-0.737399 -0.108461 0.00643629)
(-0.722411 -0.0817916 0.00630552)
(-0.704596 -0.0565337 0.00615007)
(-0.683978 -0.0327283 0.00597017)
(-0.66061 -0.0104265 0.00576625)
(-0.634562 0.0103187 0.00553894)
(-0.605934 0.0294467 0.00528912)
(-0.574853 0.046892 0.00501788)
(-0.541479 0.0625847 0.00472662)
(-0.506009 0.0764476 0.00441708)
(-0.468669 0.0884038 0.0040912)
(-0.42973 0.0983684 0.00375137)
(-0.389512 0.106251 0.00340037)
(-0.348377 0.111954 0.00304134)
(-0.306746 0.115378 0.00267799)
(-0.265089 0.116412 0.00231441)
(-0.223944 0.114943 0.00195528)
(-0.183916 0.110855 0.00160589)
(-0.145676 0.104037 0.0012721)
(-0.109956 0.0943974 0.000960287)
(-0.0775878 0.0818916 0.000677709)
(-0.0494054 0.0665861 0.000431655)
(-0.0264425 0.0487372 0.000231134)
(-0.00954513 0.0290423 8.36058e-05)
(-0.000417561 0.00881518 5.14537e-06)
(-0.560423 -0.795183 0.00489116)
(-0.573905 -0.765636 0.00500894)
(-0.590847 -0.732807 0.00515679)
(-0.609597 -0.696157 0.00532043)
(-0.628912 -0.656375 0.00548901)
(-0.647965 -0.614634 0.0056553)
(-0.666169 -0.572041 0.0058142)
(-0.683132 -0.529529 0.00596227)
(-0.698578 -0.487761 0.0060971)
(-0.712309 -0.447177 0.00621696)
(-0.72417 -0.408021 0.00632051)
(-0.734032 -0.370401 0.0064066)
(-0.741776 -0.334336 0.00647423)
(-0.747297 -0.299791 0.00652244)
(-0.750492 -0.266709 0.00655037)
(-0.75127 -0.235026 0.00655719)
(-0.749548 -0.204685 0.00654218)
(-0.745253 -0.17564 0.00650473)
(-0.738327 -0.147861 0.00644431)