/*--------------------------------*- C++ -*----------------------------------*\
| =========                 |                                                 |
| \\      /  F ield         | OpenFOAM: The Open Source CFD Toolbox           |
|  \\    /   O peration     | Version:  v2012                                 |
|   \\  /    A nd           | Website:  www.openfoam.com                      |
|    \\/     M anipulation  |                                                 |
\*---------------------------------------------------------------------------*/
FoamFile
{
    version     2.0;
    format      ascii;
    class       volScalarField;
    location    "0.45";
    object      p;
}
// * * * * * * * * * * * * * * * * * * * * * * * * * * * * * * * * * * * * * //

dimensions      [1 -1 -2 0 0 0 0];


internalField   nonuniform List<scalar> 
3332
(
3.70987e+06
3.71347e+06
3.70905e+06
3.71205e+06
3.71045e+06
3.71659e+06
3.72585e+06
3.74181e+06
3.68548e+06
3.68513e+06
3.68476e+06
3.68513e+06
3.68509e+06
3.69124e+06
3.70261e+06
3.71752e+06
3.72706e+06
3.73695e+06
3.73005e+06
3.71796e+06
3.66643e+06
3.58034e+06
3.55667e+06
3.6554e+06
3.65115e+06
3.65472e+06
3.65229e+06
3.65495e+06
3.65912e+06
3.67049e+06
3.68102e+06
3.6886e+06
3.69325e+06
3.69127e+06
3.67748e+06
3.64927e+06
3.56927e+06
3.54281e+06
3.62358e+06
3.61658e+06
3.62262e+06
3.61785e+06
3.62266e+06
3.62375e+06
3.63172e+06
3.63517e+06
3.63786e+06
3.63591e+06
3.6389e+06
3.62774e+06
3.61504e+06
3.55421e+06
3.52469e+06
3.59192e+06
3.5853e+06
3.59045e+06
3.58644e+06
3.5897e+06
3.58906e+06
3.59024e+06
3.58625e+06
3.58299e+06
3.57578e+06
3.58138e+06
3.57718e+06
3.57214e+06
3.53325e+06
3.50566e+06
3.56241e+06
3.5594e+06
3.56076e+06
3.56043e+06
3.55954e+06
3.55739e+06
3.55177e+06
3.54218e+06
3.53445e+06
3.52499e+06
3.53079e+06
3.53304e+06
3.53173e+06
3.50908e+06
3.48891e+06
3.53817e+06
3.53885e+06
3.53628e+06
3.53946e+06
3.53468e+06
3.53077e+06
3.52099e+06
3.50892e+06
3.49965e+06
3.49088e+06
3.49572e+06
3.50108e+06
3.50154e+06
3.48863e+06
3.47636e+06
3.51959e+06
3.5216e+06
3.51743e+06
3.52201e+06
3.51539e+06
3.51012e+06
3.49959e+06
3.48804e+06
3.47989e+06
3.47369e+06
3.47718e+06
3.48234e+06
3.48275e+06
3.4755e+06
3.46776e+06
3.50607e+06
3.50623e+06
3.50389e+06
3.50677e+06
3.50104e+06
3.49498e+06
3.48624e+06
3.47699e+06
3.47134e+06
3.46815e+06
3.47016e+06
3.47326e+06
3.47273e+06
3.4685e+06
3.46192e+06
3.49531e+06
3.49209e+06
3.49387e+06
3.49323e+06
3.49019e+06
3.48395e+06
3.47805e+06
3.47147e+06
3.4683e+06
3.46738e+06
3.46806e+06
3.46896e+06
3.46774e+06
3.46469e+06
3.45771e+06
3.48716e+06
3.47983e+06
3.48569e+06
3.48156e+06
3.4815e+06
3.47547e+06
3.47221e+06
3.46773e+06
3.46624e+06
3.46641e+06
3.46624e+06
3.46588e+06
3.46457e+06
3.46171e+06
3.45425e+06
3.47999e+06
3.46968e+06
3.47844e+06
3.47185e+06
3.47406e+06
3.46843e+06
3.46701e+06
3.46378e+06
3.46309e+06
3.46337e+06
3.46298e+06
3.46241e+06
3.46145e+06
3.45853e+06
3.4511e+06
3.47332e+06
3.46147e+06
3.47173e+06
3.46397e+06
3.46743e+06
3.46233e+06
3.46186e+06
3.45926e+06
3.45876e+06
3.45873e+06
3.45854e+06
3.45836e+06
3.45788e+06
3.455e+06
3.44813e+06
3.46707e+06
3.45543e+06
3.4657e+06
3.45786e+06
3.46155e+06
3.45709e+06
3.45689e+06
3.45464e+06
3.45406e+06
3.45375e+06
3.45385e+06
3.45417e+06
3.45407e+06
3.4514e+06
3.4454e+06
3.46146e+06
3.45112e+06
3.46024e+06
3.45327e+06
3.45643e+06
3.45271e+06
3.45241e+06
3.45047e+06
3.44979e+06
3.44939e+06
3.44967e+06
3.45034e+06
3.45042e+06
3.44808e+06
3.44299e+06
3.45629e+06
3.44833e+06
3.45541e+06
3.4499e+06
3.45207e+06
3.44917e+06
3.44861e+06
3.44703e+06
3.44632e+06
3.44601e+06
3.44632e+06
3.44712e+06
3.44721e+06
3.4452e+06
3.44097e+06
3.4516e+06
3.44649e+06
3.45111e+06
3.44734e+06
3.4484e+06
3.44633e+06
3.44552e+06
3.44431e+06
3.44363e+06
3.4435e+06
3.44373e+06
3.44452e+06
3.44452e+06
3.44281e+06
3.43932e+06
3.44748e+06
3.44514e+06
3.44735e+06
3.44524e+06
3.4453e+06
3.44398e+06
3.44301e+06
3.44214e+06
3.44153e+06
3.44154e+06
3.44167e+06
3.44239e+06
3.44231e+06
3.44079e+06
3.43798e+06
3.44371e+06
3.4438e+06
3.44401e+06
3.44336e+06
3.44266e+06
3.44195e+06
3.44092e+06
3.44031e+06
3.43979e+06
3.43988e+06
3.43993e+06
3.44057e+06
3.44044e+06
3.43906e+06
3.43692e+06
3.44043e+06
3.44233e+06
3.44113e+06
3.44156e+06
3.44041e+06
3.44013e+06
3.43913e+06
3.4387e+06
3.43827e+06
3.43837e+06
3.43837e+06
3.43895e+06
3.43882e+06
3.43752e+06
3.43611e+06
3.43769e+06
3.44072e+06
3.4387e+06
3.4398e+06
3.43847e+06
3.43847e+06
3.43757e+06
3.43723e+06
3.4369e+06
3.43697e+06
3.43695e+06
3.43747e+06
3.43736e+06
3.43614e+06
3.43555e+06
3.43541e+06
3.43916e+06
3.43676e+06
3.43812e+06
3.43681e+06
3.43695e+06
3.4362e+06
3.4359e+06
3.43565e+06
3.43567e+06
3.43566e+06
3.43611e+06
3.43604e+06
3.43491e+06
3.43521e+06
3.43373e+06
3.43747e+06
3.43515e+06
3.43655e+06
3.43542e+06
3.43556e+06
3.43498e+06
3.43468e+06
3.43451e+06
3.43447e+06
3.43449e+06
3.43488e+06
3.43485e+06
3.43384e+06
3.4351e+06
3.43253e+06
3.4359e+06
3.43392e+06
3.43513e+06
3.43425e+06
3.43431e+06
3.4339e+06
3.43358e+06
3.43349e+06
3.43339e+06
3.43346e+06
3.43376e+06
3.43378e+06
3.43293e+06
3.43521e+06
3.4318e+06
3.43446e+06
3.433e+06
3.43387e+06
3.43327e+06
3.43321e+06
3.43295e+06
3.4326e+06
3.43256e+06
3.43241e+06
3.43252e+06
3.43278e+06
3.43282e+06
3.43225e+06
3.43552e+06
3.43175e+06
3.43327e+06
3.43236e+06
3.4328e+06
3.43247e+06
3.43226e+06
3.43212e+06
3.43172e+06
3.43173e+06
3.43153e+06
3.43166e+06
3.4319e+06
3.432e+06
3.43183e+06
3.43599e+06
3.43158e+06
3.43222e+06
3.43189e+06
3.4319e+06
3.4318e+06
3.43145e+06
3.43139e+06
3.43095e+06
3.43098e+06
3.43075e+06
3.4309e+06
3.43114e+06
3.43131e+06
3.4315e+06
3.43139e+06
3.43153e+06
3.43118e+06
3.43126e+06
3.43079e+06
3.43079e+06
3.43029e+06
3.43035e+06
3.43009e+06
3.43025e+06
3.43053e+06
3.4308e+06
3.43145e+06
3.43074e+06
3.43123e+06
3.43063e+06
3.43082e+06
3.43027e+06
3.43031e+06
3.42976e+06
3.42986e+06
3.42956e+06
3.42973e+06
3.43007e+06
3.4305e+06
3.43106e+06
3.43022e+06
3.43099e+06
3.43024e+06
3.43048e+06
3.42991e+06
3.42996e+06
3.42937e+06
3.42954e+06
3.42916e+06
3.42939e+06
3.4298e+06
3.43046e+06
3.43096e+06
3.42995e+06
3.43076e+06
3.43e+06
3.43023e+06
3.4297e+06
3.42973e+06
3.42912e+06
3.42943e+06
3.4289e+06
3.42926e+06
3.4297e+06
3.43062e+06
3.43081e+06
3.42982e+06
3.43056e+06
3.42989e+06
3.43003e+06
3.42962e+06
3.42958e+06
3.42903e+06
3.42951e+06
3.42878e+06
3.42944e+06
3.42986e+06
3.43101e+06
3.43067e+06
3.42981e+06
3.43038e+06
3.42983e+06
3.42985e+06
3.42962e+06
3.42942e+06
3.42906e+06
3.42967e+06
3.42867e+06
3.42971e+06
3.43012e+06
3.43122e+06
3.43037e+06
3.42979e+06
3.43019e+06
3.42979e+06
3.42969e+06
3.42966e+06
3.42921e+06
3.42927e+06
3.42975e+06
3.42869e+06
3.43022e+06
3.43069e+06
3.43155e+06
3.43024e+06
3.42989e+06
3.43007e+06
3.42976e+06
3.42953e+06
3.42957e+06
3.42882e+06
3.42939e+06
3.42901e+06
3.42826e+06
3.42933e+06
3.43066e+06
3.43077e+06
3.43014e+06
3.43002e+06
3.42997e+06
3.42971e+06
3.42935e+06
3.42921e+06
3.4282e+06
3.42889e+06
3.42702e+06
3.42827e+06
3.42844e+06
3.43116e+06
3.43124e+06
3.43025e+06
3.43043e+06
3.43014e+06
3.42996e+06
3.42952e+06
3.42918e+06
3.42813e+06
3.42792e+06
3.42464e+06
3.428e+06
3.4195e+06
3.42956e+06
3.4321e+06
3.43071e+06
3.43123e+06
3.43074e+06
3.43078e+06
3.43042e+06
3.43028e+06
3.42982e+06
3.42974e+06
3.42911e+06
3.4305e+06
3.43128e+06
3.4321e+06
3.43142e+06
3.43164e+06
3.43129e+06
3.4313e+06
3.43103e+06
3.43109e+06
3.43098e+06
3.43131e+06
3.43192e+06
3.433e+06
3.43223e+06
3.43263e+06
3.43227e+06
3.43242e+06
3.43227e+06
3.43245e+06
3.43245e+06
3.43262e+06
3.43271e+06
3.43391e+06
3.43302e+06
3.4335e+06
3.43314e+06
3.43336e+06
3.43326e+06
3.43349e+06
3.43349e+06
3.43358e+06
3.43352e+06
3.43472e+06
3.43377e+06
3.4343e+06
3.43394e+06
3.43421e+06
3.43413e+06
3.43439e+06
3.4344e+06
3.43448e+06
3.43428e+06
3.43538e+06
3.43441e+06
3.43494e+06
3.43457e+06
3.43488e+06
3.43483e+06
3.43512e+06
3.43513e+06
3.43522e+06
3.43469e+06
3.43572e+06
3.43489e+06
3.43541e+06
3.43506e+06
3.43539e+06
3.43537e+06
3.4357e+06
3.43572e+06
3.4358e+06
3.43514e+06
3.43597e+06
3.4352e+06
3.4357e+06
3.43536e+06
3.43573e+06
3.43572e+06
3.43609e+06
3.43612e+06
3.43621e+06
3.4353e+06
3.43596e+06
3.43526e+06
3.43578e+06
3.43546e+06
3.43588e+06
3.43588e+06
3.43629e+06
3.43634e+06
3.43643e+06
3.4352e+06
3.43579e+06
3.4351e+06
3.43564e+06
3.43533e+06
3.43581e+06
3.43582e+06
3.43629e+06
3.43636e+06
3.43645e+06
3.4347e+06
3.43534e+06
3.43466e+06
3.43527e+06
3.43495e+06
3.43551e+06
3.43555e+06
3.43606e+06
3.43616e+06
3.43625e+06
3.43389e+06
3.43469e+06
3.43392e+06
3.43464e+06
3.4343e+06
3.43494e+06
3.43502e+06
3.43559e+06
3.43572e+06
3.43581e+06
3.43272e+06
3.43375e+06
3.43284e+06
3.43372e+06
3.43337e+06
3.4341e+06
3.43423e+06
3.43486e+06
3.43503e+06
3.43512e+06
3.4312e+06
3.43252e+06
3.43147e+06
3.43249e+06
3.43215e+06
3.43296e+06
3.43316e+06
3.43384e+06
3.43406e+06
3.43414e+06
3.42933e+06
3.43091e+06
3.42979e+06
3.43094e+06
3.43061e+06
3.43148e+06
3.43178e+06
3.43251e+06
3.43277e+06
3.43286e+06
3.42725e+06
3.42898e+06
3.42782e+06
3.429e+06
3.42876e+06
3.42964e+06
3.43005e+06
3.43081e+06
3.43113e+06
3.43122e+06
3.42494e+06
3.42661e+06
3.42553e+06
3.42667e+06
3.42656e+06
3.42741e+06
3.42794e+06
3.42873e+06
3.42911e+06
3.4292e+06
3.42244e+06
3.4238e+06
3.42296e+06
3.4239e+06
3.424e+06
3.42476e+06
3.42542e+06
3.42622e+06
3.42666e+06
3.42675e+06
3.41965e+06
3.42045e+06
3.42004e+06
3.42066e+06
3.42102e+06
3.42165e+06
3.42244e+06
3.42325e+06
3.42373e+06
3.42384e+06
3.4166e+06
3.41658e+06
3.41672e+06
3.41691e+06
3.41755e+06
3.41802e+06
3.41895e+06
3.41977e+06
3.42029e+06
3.42041e+06
3.41312e+06
3.41211e+06
3.41289e+06
3.4126e+06
3.41354e+06
3.41384e+06
3.41489e+06
3.41572e+06
3.41628e+06
3.41642e+06
3.40902e+06
3.407e+06
3.40846e+06
3.40768e+06
3.40889e+06
3.40904e+06
3.41018e+06
3.41105e+06
3.41163e+06
3.41179e+06
3.40399e+06
3.40112e+06
3.40326e+06
3.40209e+06
3.40352e+06
3.40356e+06
3.40477e+06
3.40569e+06
3.40629e+06
3.40647e+06
3.3982e+06
3.39468e+06
3.39726e+06
3.39581e+06
3.39738e+06
3.39736e+06
3.39859e+06
3.39956e+06
3.40017e+06
3.40039e+06
3.39134e+06
3.38751e+06
3.39036e+06
3.3888e+06
3.39041e+06
3.39036e+06
3.39158e+06
3.39259e+06
3.3932e+06
3.39345e+06
3.3835e+06
3.3798e+06
3.38259e+06
3.38105e+06
3.38258e+06
3.38252e+06
3.38367e+06
3.38468e+06
3.38527e+06
3.38556e+06
3.37463e+06
3.37149e+06
3.37397e+06
3.37261e+06
3.37392e+06
3.37382e+06
3.37483e+06
3.37573e+06
3.37629e+06
3.37662e+06
3.36512e+06
3.36285e+06
3.36473e+06
3.36359e+06
3.36454e+06
3.36428e+06
3.36503e+06
3.36564e+06
3.36613e+06
3.36651e+06
3.35531e+06
3.35412e+06
3.35516e+06
3.35423e+06
3.35465e+06
3.35398e+06
3.35432e+06
3.35431e+06
3.35464e+06
3.35508e+06
3.34596e+06
3.34587e+06
3.3459e+06
3.34498e+06
3.34464e+06
3.34319e+06
3.34278e+06
3.34164e+06
3.34172e+06
3.34221e+06
3.33789e+06
3.33884e+06
3.33787e+06
3.33665e+06
3.33519e+06
3.33236e+06
3.33068e+06
3.32752e+06
3.3271e+06
3.3276e+06
3.33338e+06
3.33495e+06
3.33265e+06
3.33058e+06
3.32744e+06
3.32242e+06
3.31855e+06
3.31208e+06
3.31085e+06
3.3113e+06
3.3346e+06
3.33633e+06
3.33252e+06
3.32899e+06
3.32338e+06
3.31513e+06
3.3075e+06
3.29545e+06
3.29257e+06
3.29271e+06
3.34528e+06
3.34663e+06
3.34105e+06
3.33522e+06
3.32596e+06
3.3133e+06
3.29945e+06
3.27857e+06
3.27273e+06
3.27227e+06
3.37004e+06
3.3705e+06
3.36293e+06
3.35378e+06
3.33948e+06
3.3206e+06
3.29692e+06
3.26389e+06
3.25135e+06
3.24958e+06
3.4152e+06
3.41439e+06
3.40458e+06
3.39127e+06
3.37098e+06
3.34399e+06
3.3075e+06
3.25913e+06
3.23191e+06
3.22833e+06
3.48782e+06
3.48569e+06
3.47385e+06
3.45656e+06
3.43049e+06
3.39509e+06
3.3455e+06
3.27658e+06
3.21807e+06
3.21149e+06
3.59237e+06
3.58924e+06
3.57614e+06
3.55558e+06
3.52419e+06
3.48084e+06
3.41742e+06
3.32139e+06
3.21425e+06
3.20408e+06
3.7289e+06
3.72498e+06
3.71094e+06
3.68748e+06
3.65187e+06
3.59958e+06
3.51824e+06
3.40022e+06
3.2589e+06
3.21586e+06
3.88876e+06
3.88618e+06
3.87702e+06
3.86063e+06
3.83528e+06
3.79166e+06
3.72165e+06
3.60794e+06
3.34719e+06
2.9804e+06
4.06919e+06
4.0689e+06
4.06756e+06
4.06559e+06
4.06399e+06
4.06043e+06
4.06294e+06
4.05938e+06
3.97613e+06
3.92394e+06
4.22859e+06
4.36241e+06
4.42717e+06
4.45774e+06
4.47473e+06
4.48433e+06
4.49021e+06
4.18527e+06
4.1856e+06
4.18625e+06
4.18745e+06
4.18957e+06
4.19262e+06
4.20053e+06
4.21155e+06
4.22439e+06
4.28224e+06
4.37336e+06
4.41388e+06
4.44642e+06
4.46539e+06
4.47797e+06
4.48582e+06
4.49092e+06
4.29253e+06
4.29316e+06
4.29486e+06
4.2979e+06
4.3024e+06
4.30847e+06
4.31795e+06
4.32843e+06
4.33891e+06
4.36623e+06
4.4069e+06
4.43562e+06
4.45704e+06
4.47122e+06
4.4809e+06
4.48734e+06
4.49168e+06
4.35387e+06
4.35458e+06
4.35646e+06
4.35979e+06
4.36454e+06
4.37102e+06
4.37972e+06
4.39067e+06
4.40443e+06
4.42234e+06
4.44076e+06
4.45574e+06
4.46812e+06
4.47736e+06
4.48422e+06
4.48914e+06
4.49265e+06
4.40246e+06
4.40307e+06
4.4044e+06
4.40684e+06
4.41022e+06
4.41478e+06
4.42063e+06
4.4276e+06
4.43588e+06
4.4462e+06
4.45722e+06
4.46701e+06
4.4753e+06
4.48186e+06
4.48693e+06
4.49073e+06
4.49355e+06
4.43097e+06
4.43147e+06
4.43256e+06
4.43458e+06
4.4373e+06
4.44091e+06
4.44535e+06
4.45062e+06
4.45662e+06
4.46316e+06
4.46971e+06
4.47578e+06
4.48114e+06
4.48564e+06
4.4893e+06
4.49218e+06
4.49441e+06
4.45198e+06
4.45234e+06
4.45304e+06
4.4544e+06
4.4562e+06
4.45859e+06
4.4615e+06
4.46493e+06
4.4688e+06
4.47304e+06
4.47737e+06
4.48149e+06
4.48523e+06
4.48847e+06
4.49119e+06
4.4934e+06
4.49516e+06
4.46507e+06
4.46533e+06
4.46585e+06
4.46688e+06
4.46821e+06
4.46998e+06
4.47208e+06
4.47452e+06
4.47721e+06
4.48008e+06
4.48298e+06
4.48578e+06
4.48839e+06
4.49072e+06
4.49274e+06
4.49443e+06
4.49583e+06
4.47446e+06
4.47471e+06
4.47505e+06
4.47576e+06
4.47666e+06
4.47786e+06
4.4793e+06
4.48096e+06
4.48281e+06
4.4848e+06
4.48683e+06
4.48883e+06
4.49071e+06
4.49244e+06
4.49397e+06
4.49529e+06
4.49639e+06
4.48076e+06
4.48095e+06
4.4812e+06
4.48172e+06
4.48238e+06
4.48326e+06
4.4843e+06
4.4855e+06
4.48682e+06
4.48824e+06
4.48969e+06
4.49113e+06
4.49251e+06
4.4938e+06
4.49497e+06
4.496e+06
4.49688e+06
4.48538e+06
4.48552e+06
4.48569e+06
4.48606e+06
4.48652e+06
4.48715e+06
4.48789e+06
4.48875e+06
4.4897e+06
4.49072e+06
4.49178e+06
4.49285e+06
4.49389e+06
4.49487e+06
4.49577e+06
4.49658e+06
4.49729e+06
4.49789e+06
4.4984e+06
4.48862e+06
4.48874e+06
4.48886e+06
4.48914e+06
4.48948e+06
4.48994e+06
4.49049e+06
4.49112e+06
4.49183e+06
4.49259e+06
4.49338e+06
4.49418e+06
4.49496e+06
4.49572e+06
4.49642e+06
4.49707e+06
4.49764e+06
4.49813e+06
4.49855e+06
4.49106e+06
4.49114e+06
4.49123e+06
4.49143e+06
4.49168e+06
4.49203e+06
4.49243e+06
4.4929e+06
4.49343e+06
4.494e+06
4.49459e+06
4.4952e+06
4.49581e+06
4.4964e+06
4.49696e+06
4.49747e+06
4.49793e+06
4.49834e+06
4.49869e+06
4.49285e+06
4.49292e+06
4.49298e+06
4.49314e+06
4.49333e+06
4.49359e+06
4.49389e+06
4.49425e+06
4.49465e+06
4.49508e+06
4.49554e+06
4.49601e+06
4.49649e+06
4.49695e+06
4.49739e+06
4.4978e+06
4.49818e+06
4.49851e+06
4.49881e+06
4.49423e+06
4.49428e+06
4.49433e+06
4.49445e+06
4.49459e+06
4.49479e+06
4.49502e+06
4.49529e+06
4.4956e+06
4.49593e+06
4.49629e+06
4.49666e+06
4.49703e+06
4.4974e+06
4.49775e+06
4.49808e+06
4.49839e+06
4.49867e+06
4.49891e+06
4.49527e+06
4.49532e+06
4.49535e+06
4.49545e+06
4.49556e+06
4.49571e+06
4.49589e+06
4.4961e+06
4.49634e+06
4.4966e+06
4.49688e+06
4.49717e+06
4.49747e+06
4.49776e+06
4.49805e+06
4.49832e+06
4.49857e+06
4.4988e+06
4.499e+06
4.4961e+06
4.49613e+06
4.49616e+06
4.49623e+06
4.49632e+06
4.49644e+06
4.49658e+06
4.49674e+06
4.49693e+06
4.49714e+06
4.49736e+06
4.49759e+06
4.49783e+06
4.49806e+06
4.49829e+06
4.49852e+06
4.49872e+06
4.49891e+06
4.49908e+06
4.49674e+06
4.49677e+06
4.49679e+06
4.49685e+06
4.49692e+06
4.49701e+06
4.49712e+06
4.49725e+06
4.4974e+06
4.49757e+06
4.49774e+06
4.49793e+06
4.49812e+06
4.49831e+06
4.4985e+06
4.49868e+06
4.49885e+06
4.49901e+06
4.49916e+06
4.49726e+06
4.49728e+06
4.4973e+06
4.49734e+06
4.4974e+06
4.49747e+06
4.49756e+06
4.49766e+06
4.49778e+06
4.49792e+06
4.49806e+06
4.49821e+06
4.49836e+06
4.49852e+06
4.49867e+06
4.49882e+06
4.49896e+06
4.4991e+06
4.49922e+06
4.49767e+06
4.49769e+06
4.4977e+06
4.49774e+06
4.49778e+06
4.49784e+06
4.49791e+06
4.498e+06
4.49809e+06
4.4982e+06
4.49831e+06
4.49844e+06
4.49856e+06
4.49869e+06
4.49882e+06
4.49894e+06
4.49906e+06
4.49917e+06
4.49927e+06
4.498e+06
4.49802e+06
4.49803e+06
4.49806e+06
4.49809e+06
4.49814e+06
4.4982e+06
4.49827e+06
4.49835e+06
4.49843e+06
4.49853e+06
4.49862e+06
4.49873e+06
4.49883e+06
4.49894e+06
4.49904e+06
4.49914e+06
4.49923e+06
4.49932e+06
4.49828e+06
4.49829e+06
4.4983e+06
4.49832e+06
4.49835e+06
4.49839e+06
4.49843e+06
4.49849e+06
4.49855e+06
4.49862e+06
4.4987e+06
4.49878e+06
4.49887e+06
4.49895e+06
4.49904e+06
4.49912e+06
4.49921e+06
4.49928e+06
4.49936e+06
4.4985e+06
4.49851e+06
4.49852e+06
4.49854e+06
4.49856e+06
4.49859e+06
4.49863e+06
4.49867e+06
4.49872e+06
4.49878e+06
4.49884e+06
4.49891e+06
4.49898e+06
4.49905e+06
4.49913e+06
4.4992e+06
4.49926e+06
4.49933e+06
4.49939e+06
4.49868e+06
4.49869e+06
4.4987e+06
4.49871e+06
4.49873e+06
4.49876e+06
4.49879e+06
4.49882e+06
4.49887e+06
4.49891e+06
4.49897e+06
4.49902e+06
4.49908e+06
4.49914e+06
4.4992e+06
4.49926e+06
4.49931e+06
4.49937e+06
4.49942e+06
4.49883e+06
4.49884e+06
4.49884e+06
4.49886e+06
4.49887e+06
4.49889e+06
4.49892e+06
4.49895e+06
4.49898e+06
4.49902e+06
4.49907e+06
4.49911e+06
4.49916e+06
4.49921e+06
4.49926e+06
4.49931e+06
4.49936e+06
4.4994e+06
4.49945e+06
4.49896e+06
4.49897e+06
4.49897e+06
4.49898e+06
4.49899e+06
4.49901e+06
4.49903e+06
4.49905e+06
4.49908e+06
4.49912e+06
4.49915e+06
4.49919e+06
4.49923e+06
4.49927e+06
4.49931e+06
4.49935e+06
4.49939e+06
4.49943e+06
4.49947e+06
4.49906e+06
4.49907e+06
4.49907e+06
4.49908e+06
4.49909e+06
4.4991e+06
4.49912e+06
4.49914e+06
4.49916e+06
4.49919e+06
4.49922e+06
4.49925e+06
4.49929e+06
4.49932e+06
4.49935e+06
4.49939e+06
4.49942e+06
4.49946e+06
4.49949e+06
4.49915e+06
4.49915e+06
4.49916e+06
4.49916e+06
4.49917e+06
4.49918e+06
4.4992e+06
4.49921e+06
4.49923e+06
4.49926e+06
4.49928e+06
4.49931e+06
4.49933e+06
4.49936e+06
4.49939e+06
4.49942e+06
4.49945e+06
4.49948e+06
4.4995e+06
4.49922e+06
4.49922e+06
4.49923e+06
4.49923e+06
4.49924e+06
4.49925e+06
4.49926e+06
4.49928e+06
4.49929e+06
4.49931e+06
4.49933e+06
4.49935e+06
4.49938e+06
4.4994e+06
4.49942e+06
4.49945e+06
4.49947e+06
4.4995e+06
4.49952e+06
4.49928e+06
4.49929e+06
4.49929e+06
4.49929e+06
4.4993e+06
4.49931e+06
4.49932e+06
4.49933e+06
4.49934e+06
4.49936e+06
4.49937e+06
4.49939e+06
4.49941e+06
4.49943e+06
4.49945e+06
4.49947e+06
4.49949e+06
4.49951e+06
4.49953e+06
4.49933e+06
4.49934e+06
4.49934e+06
4.49934e+06
4.49935e+06
4.49935e+06
4.49936e+06
4.49937e+06
4.49938e+06
4.49939e+06
4.49941e+06
4.49942e+06
4.49944e+06
4.49946e+06
4.49947e+06
4.49949e+06
4.49951e+06
4.49952e+06
4.49954e+06
4.49938e+06
4.49938e+06
4.49938e+06
4.49938e+06
4.49939e+06
4.49939e+06
4.4994e+06
4.49941e+06
4.49942e+06
4.49943e+06
4.49944e+06
4.49945e+06
4.49946e+06
4.49948e+06
4.49949e+06
4.49951e+06
4.49952e+06
4.49953e+06
4.49955e+06
4.49941e+06
4.49941e+06
4.49942e+06
4.49942e+06
4.49942e+06
4.49943e+06
4.49943e+06
4.49944e+06
4.49945e+06
4.49946e+06
4.49946e+06
4.49947e+06
4.49949e+06
4.4995e+06
4.49951e+06
4.49952e+06
4.49953e+06
4.49954e+06
4.49955e+06
4.49945e+06
4.49945e+06
4.49945e+06
4.49945e+06
4.49945e+06
4.49946e+06
4.49946e+06
4.49947e+06
4.49947e+06
4.49948e+06
4.49949e+06
4.4995e+06
4.4995e+06
4.49951e+06
4.49952e+06
4.49953e+06
4.49954e+06
4.49955e+06
4.49956e+06
4.49947e+06
4.49947e+06
4.49947e+06
4.49948e+06
4.49948e+06
4.49948e+06
4.49948e+06
4.49949e+06
4.49949e+06
4.4995e+06
4.49951e+06
4.49951e+06
4.49952e+06
4.49953e+06
4.49953e+06
4.49954e+06
4.49955e+06
4.49956e+06
4.49956e+06
4.4995e+06
4.4995e+06
4.4995e+06
4.4995e+06
4.4995e+06
4.4995e+06
4.49951e+06
4.49951e+06
4.49951e+06
4.49952e+06
4.49952e+06
4.49953e+06
4.49953e+06
4.49954e+06
4.49955e+06
4.49955e+06
4.49956e+06
4.49956e+06
4.49957e+06
4.49952e+06
4.49952e+06
4.49952e+06
4.49952e+06
4.49952e+06
4.49952e+06
4.49953e+06
4.49953e+06
4.49953e+06
4.49953e+06
4.49954e+06
4.49954e+06
4.49955e+06
4.49955e+06
4.49955e+06
4.49956e+06
4.49956e+06
4.49957e+06
4.49957e+06
4.49954e+06
4.49954e+06
4.49954e+06
4.49954e+06
4.49954e+06
4.49954e+06
4.49954e+06
4.49955e+06
4.49955e+06
4.49955e+06
4.49955e+06
4.49955e+06
4.49956e+06
4.49956e+06
4.49956e+06
4.49957e+06
4.49957e+06
4.49957e+06
4.49958e+06
4.49955e+06
4.49955e+06
4.49955e+06
4.49955e+06
4.49956e+06
4.49956e+06
4.49956e+06
4.49956e+06
4.49956e+06
4.49956e+06
4.49956e+06
4.49957e+06
4.49957e+06
4.49957e+06
4.49957e+06
4.49957e+06
4.49957e+06
4.49958e+06
4.49958e+06
4.49958e+06
4.49958e+06
4.49958e+06
4.49958e+06
4.49958e+06
4.49958e+06
4.49958e+06
4.49958e+06
4.49958e+06
4.49958e+06
4.49958e+06
4.49958e+06
4.49958e+06
4.49958e+06
4.49958e+06
4.49958e+06
4.49958e+06
4.49958e+06
4.49958e+06
3.70987e+06
3.71347e+06
3.70905e+06
3.71205e+06
3.71045e+06
3.71659e+06
3.72585e+06
3.74181e+06
3.68548e+06
3.68513e+06
3.68476e+06
3.68513e+06
3.68509e+06
3.69124e+06
3.70261e+06
3.71752e+06
3.72706e+06
3.73695e+06
3.73005e+06
3.71796e+06
3.66643e+06
3.58034e+06
3.55667e+06
3.6554e+06
3.65115e+06
3.65472e+06
3.65229e+06
3.65495e+06
3.65912e+06
3.67049e+06
3.68102e+06
3.6886e+06
3.69325e+06
3.69127e+06
3.67748e+06
3.64927e+06
3.56927e+06
3.54281e+06
3.62358e+06
3.61658e+06
3.62262e+06
3.61785e+06
3.62266e+06
3.62375e+06
3.63172e+06
3.63517e+06
3.63786e+06
3.63591e+06
3.6389e+06
3.62774e+06
3.61504e+06
3.55421e+06
3.52469e+06
3.59192e+06
3.5853e+06
3.59045e+06
3.58644e+06
3.5897e+06
3.58906e+06
3.59024e+06
3.58625e+06
3.58299e+06
3.57578e+06
3.58138e+06
3.57718e+06
3.57214e+06
3.53325e+06
3.50566e+06
3.56241e+06
3.5594e+06
3.56076e+06
3.56043e+06
3.55954e+06
3.55739e+06
3.55177e+06
3.54218e+06
3.53445e+06
3.52499e+06
3.53079e+06
3.53304e+06
3.53173e+06
3.50908e+06
3.48891e+06
3.53817e+06
3.53885e+06
3.53628e+06
3.53946e+06
3.53468e+06
3.53077e+06
3.52099e+06
3.50892e+06
3.49965e+06
3.49088e+06
3.49572e+06
3.50108e+06
3.50154e+06
3.48863e+06
3.47636e+06
3.51959e+06
3.5216e+06
3.51743e+06
3.52201e+06
3.51539e+06
3.51012e+06
3.49959e+06
3.48804e+06
3.47989e+06
3.47369e+06
3.47718e+06
3.48234e+06
3.48275e+06
3.4755e+06
3.46776e+06
3.50607e+06
3.50623e+06
3.50389e+06
3.50677e+06
3.50104e+06
3.49498e+06
3.48624e+06
3.47699e+06
3.47134e+06
3.46815e+06
3.47016e+06
3.47326e+06
3.47273e+06
3.4685e+06
3.46192e+06
3.49531e+06
3.49209e+06
3.49387e+06
3.49323e+06
3.49019e+06
3.48395e+06
3.47805e+06
3.47147e+06
3.4683e+06
3.46738e+06
3.46806e+06
3.46896e+06
3.46774e+06
3.46469e+06
3.45771e+06
3.48716e+06
3.47983e+06
3.48569e+06
3.48156e+06
3.4815e+06
3.47547e+06
3.47221e+06
3.46773e+06
3.46624e+06
3.46641e+06
3.46624e+06
3.46588e+06
3.46457e+06
3.46171e+06
3.45425e+06
3.47999e+06
3.46968e+06
3.47844e+06
3.47185e+06
3.47406e+06
3.46843e+06
3.46701e+06
3.46378e+06
3.46309e+06
3.46337e+06
3.46298e+06
3.46241e+06
3.46145e+06
3.45853e+06
3.4511e+06
3.47332e+06
3.46147e+06
3.47173e+06
3.46397e+06
3.46743e+06
3.46233e+06
3.46186e+06
3.45926e+06
3.45876e+06
3.45873e+06
3.45854e+06
3.45836e+06
3.45788e+06
3.455e+06
3.44813e+06
3.46707e+06
3.45543e+06
3.4657e+06
3.45786e+06
3.46155e+06
3.45709e+06
3.45689e+06
3.45464e+06
3.45406e+06
3.45375e+06
3.45385e+06
3.45417e+06
3.45407e+06
3.4514e+06
3.4454e+06
3.46146e+06
3.45112e+06
3.46024e+06
3.45327e+06
3.45643e+06
3.45271e+06
3.45241e+06
3.45047e+06
3.44979e+06
3.44939e+06
3.44967e+06
3.45034e+06
3.45042e+06
3.44808e+06
3.44299e+06
3.45629e+06
3.44833e+06
3.45541e+06
3.4499e+06
3.45207e+06
3.44917e+06
3.44861e+06
3.44703e+06
3.44632e+06
3.44601e+06
3.44632e+06
3.44712e+06
3.44721e+06
3.4452e+06
3.44097e+06
3.4516e+06
3.44649e+06
3.45111e+06
3.44734e+06
3.4484e+06
3.44633e+06
3.44552e+06
3.44431e+06
3.44363e+06
3.4435e+06
3.44373e+06
3.44452e+06
3.44452e+06
3.44281e+06
3.43932e+06
3.44748e+06
3.44514e+06
3.44735e+06
3.44524e+06
3.4453e+06
3.44398e+06
3.44301e+06
3.44214e+06
3.44153e+06
3.44154e+06
3.44167e+06
3.44239e+06
3.44231e+06
3.44079e+06
3.43798e+06
3.44371e+06
3.4438e+06
3.44401e+06
3.44336e+06
3.44266e+06
3.44195e+06
3.44092e+06
3.44031e+06
3.43979e+06
3.43988e+06
3.43993e+06
3.44057e+06
3.44044e+06
3.43906e+06
3.43692e+06
3.44043e+06
3.44233e+06
3.44113e+06
3.44156e+06
3.44041e+06
3.44013e+06
3.43913e+06
3.4387e+06
3.43827e+06
3.43837e+06
3.43837e+06
3.43895e+06
3.43882e+06
3.43752e+06
3.43611e+06
3.43769e+06
3.44072e+06
3.4387e+06
3.4398e+06
3.43847e+06
3.43847e+06
3.43757e+06
3.43723e+06
3.4369e+06
3.43697e+06
3.43695e+06
3.43747e+06
3.43736e+06
3.43614e+06
3.43555e+06
3.43541e+06
3.43916e+06
3.43676e+06
3.43812e+06
3.43681e+06
3.43695e+06
3.4362e+06
3.4359e+06
3.43565e+06
3.43567e+06
3.43566e+06
3.43611e+06
3.43604e+06
3.43491e+06
3.43521e+06
3.43373e+06
3.43747e+06
3.43515e+06
3.43655e+06
3.43542e+06
3.43556e+06
3.43498e+06
3.43468e+06
3.43451e+06
3.43447e+06
3.43449e+06
3.43488e+06
3.43485e+06
3.43384e+06
3.4351e+06
3.43253e+06
3.4359e+06
3.43392e+06
3.43513e+06
3.43425e+06
3.43431e+06
3.4339e+06
3.43358e+06
3.43349e+06
3.43339e+06
3.43346e+06
3.43376e+06
3.43378e+06
3.43293e+06
3.43521e+06
3.4318e+06
3.43446e+06
3.433e+06
3.43387e+06
3.43327e+06
3.43321e+06
3.43295e+06
3.4326e+06
3.43256e+06
3.43241e+06
3.43252e+06
3.43278e+06
3.43282e+06
3.43225e+06
3.43552e+06
3.43175e+06
3.43327e+06
3.43236e+06
3.4328e+06
3.43247e+06
3.43226e+06
3.43212e+06
3.43172e+06
3.43173e+06
3.43153e+06
3.43166e+06
3.4319e+06
3.432e+06
3.43183e+06
3.43599e+06
3.43158e+06
3.43222e+06
3.43189e+06
3.4319e+06
3.4318e+06
3.43145e+06
3.43139e+06
3.43095e+06
3.43098e+06
3.43075e+06
3.4309e+06
3.43114e+06
3.43131e+06
3.4315e+06
3.43139e+06
3.43153e+06
3.43118e+06
3.43126e+06
3.43079e+06
3.43079e+06
3.43029e+06
3.43035e+06
3.43009e+06
3.43025e+06
3.43053e+06
3.4308e+06
3.43145e+06
3.43074e+06
3.43123e+06
3.43063e+06
3.43082e+06
3.43027e+06
3.43031e+06
3.42976e+06
3.42986e+06
3.42956e+06
3.42973e+06
3.43007e+06
3.4305e+06
3.43106e+06
3.43022e+06
3.43099e+06
3.43024e+06
3.43048e+06
3.42991e+06
3.42996e+06
3.42937e+06
3.42954e+06
3.42916e+06
3.42939e+06
3.4298e+06
3.43046e+06
3.43096e+06
3.42995e+06
3.43076e+06
3.43e+06
3.43023e+06
3.4297e+06
3.42973e+06
3.42912e+06
3.42943e+06
3.4289e+06
3.42926e+06
3.4297e+06
3.43062e+06
3.43081e+06
3.42982e+06
3.43056e+06
3.42989e+06
3.43003e+06
3.42962e+06
3.42958e+06
3.42903e+06
3.42951e+06
3.42878e+06
3.42944e+06
3.42986e+06
3.43101e+06
3.43067e+06
3.42981e+06
3.43038e+06
3.42983e+06
3.42985e+06
3.42962e+06
3.42942e+06
3.42906e+06
3.42967e+06
3.42867e+06
3.42971e+06
3.43012e+06
3.43122e+06
3.43037e+06
3.42979e+06
3.43019e+06
3.42979e+06
3.42969e+06
3.42966e+06
3.42921e+06
3.42927e+06
3.42975e+06
3.42869e+06
3.43022e+06
3.43069e+06
3.43155e+06
3.43024e+06
3.42989e+06
3.43007e+06
3.42976e+06
3.42953e+06
3.42957e+06
3.42882e+06
3.42939e+06
3.42901e+06
3.42826e+06
3.42933e+06
3.43066e+06
3.43077e+06
3.43014e+06
3.43002e+06
3.42997e+06
3.42971e+06
3.42935e+06
3.42921e+06
3.4282e+06
3.42889e+06
3.42702e+06
3.42827e+06
3.42844e+06
3.43116e+06
3.43124e+06
3.43025e+06
3.43043e+06
3.43014e+06
3.42996e+06
3.42952e+06
3.42918e+06
3.42813e+06
3.42792e+06
3.42464e+06
3.428e+06
3.4195e+06
3.42956e+06
3.4321e+06
3.43071e+06
3.43123e+06
3.43074e+06
3.43078e+06
3.43042e+06
3.43028e+06
3.42982e+06
3.42974e+06
3.42911e+06
3.4305e+06
3.43128e+06
3.4321e+06
3.43142e+06
3.43164e+06
3.43129e+06
3.4313e+06
3.43103e+06
3.43109e+06
3.43098e+06
3.43131e+06
3.43192e+06
3.433e+06
3.43223e+06
3.43263e+06
3.43227e+06
3.43242e+06
3.43227e+06
3.43245e+06
3.43245e+06
3.43262e+06
3.43271e+06
3.43391e+06
3.43302e+06
3.4335e+06
3.43314e+06
3.43336e+06
3.43326e+06
3.43349e+06
3.43349e+06
3.43358e+06
3.43352e+06
3.43472e+06
3.43377e+06
3.4343e+06
3.43394e+06
3.43421e+06
3.43413e+06
3.43439e+06
3.4344e+06
3.43448e+06
3.43428e+06
3.43538e+06
3.43441e+06
3.43494e+06
3.43457e+06
3.43488e+06
3.43483e+06
3.43512e+06
3.43513e+06
3.43522e+06
3.43469e+06
3.43572e+06
3.43489e+06
3.43541e+06
3.43506e+06
3.43539e+06
3.43537e+06
3.4357e+06
3.43572e+06
3.4358e+06
3.43514e+06
3.43597e+06
3.4352e+06
3.4357e+06
3.43536e+06
3.43573e+06
3.43572e+06
3.43609e+06
3.43612e+06
3.43621e+06
3.4353e+06
3.43596e+06
3.43526e+06
3.43578e+06
3.43546e+06
3.43588e+06
3.43588e+06
3.43629e+06
3.43634e+06
3.43643e+06
3.4352e+06
3.43579e+06
3.4351e+06
3.43564e+06
3.43533e+06
3.43581e+06
3.43582e+06
3.43629e+06
3.43636e+06
3.43645e+06
3.4347e+06
3.43534e+06
3.43466e+06
3.43527e+06
3.43495e+06
3.43551e+06
3.43555e+06
3.43606e+06
3.43616e+06
3.43625e+06
3.43389e+06
3.43469e+06
3.43392e+06
3.43464e+06
3.4343e+06
3.43494e+06
3.43502e+06
3.43559e+06
3.43572e+06
3.43581e+06
3.43272e+06
3.43375e+06
3.43284e+06
3.43372e+06
3.43337e+06
3.4341e+06
3.43423e+06
3.43486e+06
3.43503e+06
3.43512e+06
3.4312e+06
3.43252e+06
3.43147e+06
3.43249e+06
3.43215e+06
3.43296e+06
3.43316e+06
3.43384e+06
3.43406e+06
3.43414e+06
3.42933e+06
3.43091e+06
3.42979e+06
3.43094e+06
3.43061e+06
3.43148e+06
3.43178e+06
3.43251e+06
3.43277e+06
3.43286e+06
3.42725e+06
3.42898e+06
3.42782e+06
3.429e+06
3.42876e+06
3.42964e+06
3.43005e+06
3.43081e+06
3.43113e+06
3.43122e+06
3.42494e+06
3.42661e+06
3.42553e+06
3.42667e+06
3.42656e+06
3.42741e+06
3.42794e+06
3.42873e+06
3.42911e+06
3.4292e+06
3.42244e+06
3.4238e+06
3.42296e+06
3.4239e+06
3.424e+06
3.42476e+06
3.42542e+06
3.42622e+06
3.42666e+06
3.42675e+06
3.41965e+06
3.42045e+06
3.42004e+06
3.42066e+06
3.42102e+06
3.42165e+06
3.42244e+06
3.42325e+06
3.42373e+06
3.42384e+06
3.4166e+06
3.41658e+06
3.41672e+06
3.41691e+06
3.41755e+06
3.41802e+06
3.41895e+06
3.41977e+06
3.42029e+06
3.42041e+06
3.41312e+06
3.41211e+06
3.41289e+06
3.4126e+06
3.41354e+06
3.41384e+06
3.41489e+06
3.41572e+06
3.41628e+06
3.41642e+06
3.40902e+06
3.407e+06
3.40846e+06
3.40768e+06
3.40889e+06
3.40904e+06
3.41018e+06
3.41105e+06
3.41163e+06
3.41179e+06
3.40399e+06
3.40112e+06
3.40326e+06
3.40209e+06
3.40352e+06
3.40356e+06
3.40477e+06
3.40569e+06
3.40629e+06
3.40647e+06
3.3982e+06
3.39468e+06
3.39726e+06
3.39581e+06
3.39738e+06
3.39736e+06
3.39859e+06
3.39956e+06
3.40017e+06
3.40039e+06
3.39134e+06
3.38751e+06
3.39036e+06
3.3888e+06
3.39041e+06
3.39036e+06
3.39158e+06
3.39259e+06
3.3932e+06
3.39345e+06
3.3835e+06
3.3798e+06
3.38259e+06
3.38105e+06
3.38258e+06
3.38252e+06
3.38367e+06
3.38468e+06
3.38527e+06