/*--------------------------------*- C++ -*----------------------------------*\
| =========                 |                                                 |
| \\      /  F ield         | OpenFOAM: The Open Source CFD Toolbox           |
|  \\    /   O peration     | Version:  v2012                                 |
|   \\  /    A nd           | Website:  www.openfoam.com                      |
|    \\/     M anipulation  |                                                 |
\*---------------------------------------------------------------------------*/
FoamFile
{
    version     2.0;
    format      ascii;
    class       surfaceScalarField;
    location    "0.9";
    object      phi;
}
// * * * * * * * * * * * * * * * * * * * * * * * * * * * * * * * * * * * * * //

dimensions      [0 3 -1 0 0 0 0];
oriented        oriented;


internalField   nonuniform List<scalar> 
6434
(
4.70796e-12
-1.27267e-09
5.48496e-15
9.65462e-11
-2.34131e-09
8.19317e-15
2.51073e-10
-2.42213e-09
7.79734e-15
4.02131e-10
-1.90009e-09
5.16204e-15
-7.49575e-10
2.25582e-15
-1.94317e-11
-1.25324e-09
4.148e-15
-5.22977e-11
-2.30844e-09
6.68729e-15
-6.22251e-11
-2.4122e-09
7.10031e-15
-6.24321e-11
-1.89988e-09
6.90742e-15
-8.11993e-10
1.05242e-14
-1.452e-11
-1.23871e-09
4.74672e-15
-2.11009e-11
-2.30184e-09
8.95506e-15
-7.69254e-12
-2.42558e-09
8.18754e-15
2.64084e-11
-1.93393e-09
8.93114e-15
-7.8551e-10
9.44668e-15
-1.92558e-11
-1.21946e-09
4.12595e-15
-4.49746e-11
-2.27613e-09
6.76815e-15
-4.82288e-11
-2.42233e-09
6.40721e-15
-3.00854e-11
-1.95207e-09
4.58455e-15
-8.15573e-10
3.49336e-15
-1.92271e-11
-1.20023e-09
5.50438e-15
-4.07817e-11
-2.25456e-09
9.6823e-15
-3.87229e-11
-2.42436e-09
1.02623e-14
-1.31476e-11
-1.97762e-09
6.77492e-15
-8.28697e-10
3.96458e-15
-2.18738e-11
-1.17835e-09
5.51176e-15
-4.81886e-11
-2.22825e-09
8.72082e-15
-4.90666e-11
-2.42348e-09
8.80862e-15
-2.57612e-11
-2.00094e-09
3.38541e-15
-8.54474e-10
-5.66287e-16
-2.33654e-11
-1.15499e-09
6.12319e-15
-4.87268e-11
-2.20288e-09
1.12982e-14
-4.65214e-11
-2.42568e-09
9.74999e-15
-1.96852e-11
-2.02776e-09
7.87145e-15
-8.74135e-10
4.35156e-15
-2.56981e-11
-1.12929e-09
6.41264e-15
-5.29007e-11
-2.17568e-09
1.15046e-14
-5.17198e-11
-2.42687e-09
9.46909e-15
-2.56237e-11
-2.05386e-09
5.93132e-15
-8.99766e-10
9.64547e-16
-2.70709e-11
-1.10222e-09
7.55354e-15
-5.28983e-11
-2.14985e-09
1.42337e-14
-4.90331e-11
-2.43074e-09
1.28219e-14
-2.09524e-11
-2.08194e-09
7.73017e-15
-9.20723e-10
1.54212e-15
-2.87351e-11
-1.07349e-09
8.12321e-15
-5.46199e-11
-2.12398e-09
1.56076e-14
-5.13277e-11
-2.43404e-09
1.35615e-14
-2.44126e-11
-2.10887e-09
6.88445e-15
-9.45165e-10
-9.35903e-16
-2.94346e-11
-1.04406e-09
9.80739e-15
-5.19917e-11
-2.10143e-09
1.83342e-14
-4.60427e-11
-2.43999e-09
1.72283e-14
-1.86323e-11
-2.13629e-09
1.09143e-14
-9.63794e-10
3.18563e-15
-3.05701e-11
-1.01349e-09
1.08095e-14
-5.01547e-11
-2.08185e-09
2.16494e-14
-4.49808e-11
-2.44519e-09
1.87977e-14
-1.95359e-11
-2.16174e-09
1.12233e-14
-9.83348e-10
1.3854e-15
-3.07011e-11
-9.8279e-10
1.34948e-14
-4.19297e-11
-2.07062e-09
2.76292e-14
-3.35846e-11
-2.45354e-09
2.41423e-14
-9.10998e-12
-2.18623e-09
1.41032e-14
-9.92471e-10
2.48709e-15
-3.29126e-11
-9.49882e-10
1.61391e-14
-3.51058e-11
-2.06843e-09
3.41926e-14
-2.98564e-11
-2.4588e-09
2.77412e-14
-4.83726e-12
-2.21126e-09
1.52492e-14
-9.97334e-10
1.72782e-15
-3.1782e-11
-9.18099e-10
2.24634e-14
-1.86071e-11
-2.08162e-09
4.26793e-14
-2.62368e-12
-2.47479e-09
3.38432e-14
2.1507e-11
-2.23541e-09
1.73692e-14
-9.75837e-10
3.64302e-15
-6.36845e-11
-8.54421e-10
3.24759e-14
-4.29179e-11
-2.10239e-09
5.62097e-14
-3.06894e-11
-2.48703e-09
3.6222e-14
2.38943e-11
-2.29e-09
1.8466e-14
-9.51969e-10
2.72141e-15
-5.43998e-11
-8.00021e-10
5.58389e-14
-6.87622e-11
-2.08804e-09
7.0868e-14
1.39798e-11
-2.56977e-09
4.11021e-14
7.68561e-11
-2.35291e-09
2.51116e-14
-8.75166e-10
1.79689e-14
-1.01607e-09
-9.39878e-10
1.7714e-13
-8.45381e-10
-2.30825e-09
8.36921e-14
-4.38599e-10
-2.97655e-09
4.11827e-14
-1.21845e-10
-2.66984e-09
6.74374e-15
-9.97386e-10
-2.375e-14
-1.6183e-09
-1.31533e-09
5.31486e-14
-1.79121e-09
-2.88988e-09
-2.36693e-15
-1.04611e-09
-3.73305e-09
3.0361e-14
-4.05923e-10
-3.30959e-09
6.43219e-14
-1.40288e-09
1.52933e-14
-1.65999e-09
-1.63878e-09
-6.79601e-14
-1.47818e-09
-3.35642e-09
-1.84185e-12
-9.85895e-10
-4.39498e-09
2.13354e-13
-4.76061e-10
-3.8586e-09
-5.78369e-14
-1.87883e-09
-2.45604e-14
-2.39177e-10
-1.63252e-09
1.8525e-12
-2.10038e-10
-3.44645e-09
-7.99184e-13
-1.80516e-10
-4.49435e-09
-1.3259e-12
-8.48483e-11
-4.04715e-09
-1.16557e-13
-1.97063e-09
1.13722e-15
-1.07434e-10
-1.52512e-09
3.87578e-14
-1.31244e-10
-3.42263e-09
4.72159e-14
-1.82156e-10
-4.44345e-09
3.35368e-14
-7.43105e-11
-4.15619e-09
2.21374e-14
-2.04771e-09
3.27913e-15
-3.31818e-11
-1.49195e-09
1.94443e-14
-4.72876e-11
-3.40851e-09
5.03547e-14
-4.92045e-11
-4.44152e-09
4.22428e-14
-8.79172e-12
-4.19659e-09
2.76366e-14
-2.05648e-09
9.83923e-15
-3.49577e-11
-1.45702e-09
2.48443e-14
-5.66313e-11
-3.38683e-09
5.74683e-14
-5.96746e-11
-4.43848e-09
4.49341e-14
-2.31897e-11
-4.23307e-09
2.68008e-14
-2.07966e-09
7.69176e-15
-2.99402e-11
-1.42709e-09
2.95145e-14
-4.64316e-11
-3.37032e-09
6.7378e-14
-3.79457e-11
-4.44696e-09
5.07871e-14
-1.24821e-11
-4.25853e-09
2.79687e-14
-2.09215e-09
7.66046e-15
-2.95598e-11
-1.39755e-09
3.50057e-14
-4.16596e-11
-3.35822e-09
7.8629e-14
-3.14107e-11
-4.45722e-09
5.37988e-14
-1.00069e-11
-4.27995e-09
2.64128e-14
-2.10217e-09
5.19752e-15
-2.96638e-11
-1.36791e-09
4.35074e-14
-3.88337e-11
-3.34904e-09
9.43286e-14
-2.78417e-11
-4.46821e-09
5.82356e-14
-8.70404e-12
-4.29909e-09
2.76449e-14
-2.11087e-09
7.44659e-15
-2.68367e-11
-1.34109e-09
5.65207e-14
-2.40042e-11
-3.35187e-09
1.14406e-13
-6.6959e-12
-4.48552e-09
5.9478e-14
8.7468e-12
-4.31454e-09
2.42061e-14
-2.10214e-09
4.63508e-15
-3.12412e-11
-1.30985e-09
8.54039e-14
-3.03368e-11
-3.35277e-09
1.40011e-13
-1.85387e-11
-4.49732e-09
6.26272e-14
1.24193e-12
-4.33431e-09
2.20132e-14
-2.1009e-09
5.01039e-15
-2.13419e-11
-1.28851e-09
1.52122e-13
1.92053e-12
-3.37605e-09
1.68207e-13
3.71591e-11
-4.53256e-09
5.61106e-14
5.26182e-11
-4.34979e-09
1.46055e-14
-2.0483e-09
1.10668e-15
-8.15643e-11
-1.20695e-09
3.21033e-13
-1.03307e-10
-3.3543e-09
1.92671e-13
-9.01806e-11
-4.54569e-09
4.42574e-14
-2.39941e-11
-4.41597e-09
1.01477e-14
-2.07229e-09
2.73144e-15
1.62131e-11
-1.23194e-09
5.94821e-13
9.8925e-13
-3.33911e-09
1.756e-13
1.18247e-10
-4.66295e-09
2.80558e-14
1.54233e-10
-4.45199e-09
1.71427e-15
-1.91806e-09
-4.98601e-18
-1.39175e-09
-1.41025e-09
-8.17522e-12
-1.38167e-09
-3.58454e-09
-4.91525e-13
-9.48593e-10
-5.09604e-09
5.46742e-15
-4.66828e-10
-4.93374e-09
-3.35167e-15
-2.38487e-09
-1.17761e-14
-5.28693e-11
-1.39028e-14
-6.3131e-10
3.10628e-14
-3.79531e-10
9.93427e-15
-4.03821e-11
9.69191e-15
2.11517e-14
-6.59214e-11
-5.91469e-12
4.9553e-17
-6.05986e-11
-5.32331e-12
6.40005e-17
-5.57738e-11
-4.82493e-12
8.29634e-17
-5.13697e-11
-4.40415e-12
9.49148e-17
-4.73207e-11
-4.04885e-12
9.47293e-17
-4.35714e-11
-3.74896e-12
9.52055e-17
-4.00748e-11
-3.49646e-12
9.07658e-17
-3.67899e-11
-3.28456e-12
9.00375e-17
-3.36831e-11
-3.10683e-12
8.5432e-17
-3.07229e-11
-2.95987e-12
8.19757e-17
-2.78857e-11
-2.83717e-12
7.81565e-17
-2.51495e-11
-2.73588e-12
7.85505e-17
-2.24989e-11
-2.65052e-12
6.87832e-17
-1.99222e-11
-2.57668e-12
8.47464e-17
-1.74107e-11
-2.51122e-12
6.02276e-17
-1.49638e-11
-2.44693e-12
5.4658e-17
-1.25838e-11
-2.3798e-12
4.65113e-17
-1.0281e-11
-2.30275e-12
4.13452e-17
-8.07189e-12
-2.20913e-12
3.60166e-17
-5.98037e-12
-2.09149e-12
3.09579e-17
-4.04085e-12
-1.93957e-12
2.28904e-17
-2.29743e-12
-1.74347e-12
2.11463e-17
-8.06801e-13
-1.4907e-12
1.67301e-17
3.62463e-13
-1.16936e-12
1.319e-17
1.12941e-12
-7.67057e-13
5.27869e-18
1.42037e-12
-2.91112e-13
8.67038e-18
1.19005e-12
2.30155e-13
1.01754e-18
5.70084e-13
6.19775e-13
-1.59608e-19
5.69897e-13
-7.157e-18
-1.90206e-10
-2.22912e-11
2.24954e-16
-1.75389e-10
-2.01414e-11
2.36529e-16
-1.61894e-10
-1.83202e-11
2.52125e-16
-1.49522e-10
-1.67761e-11
2.57655e-16
-1.38103e-10
-1.54679e-11
2.39496e-16
-1.2749e-10
-1.43609e-11
2.45875e-16
-1.1756e-10
-1.34273e-11
2.21454e-16
-1.08201e-10
-1.26431e-11
2.27957e-16
-9.93227e-11
-1.19852e-11
2.19632e-16
-9.08402e-11
-1.14418e-11
2.11769e-16
-8.2689e-11
-1.09886e-11
2.00135e-16
-7.4809e-11
-1.06155e-11
1.95075e-16
-6.71577e-11
-1.03017e-11
1.74272e-16
-5.97041e-11
-1.00306e-11
1.70715e-16
-5.24246e-11
-9.79035e-12
1.59177e-16
-4.53185e-11
-9.5531e-12
1.46297e-16
-3.83946e-11
-9.30356e-12
1.30619e-16
-3.16829e-11
-9.01436e-12
1.18274e-16
-2.52322e-11
-8.65991e-12
1.06256e-16
-1.9112e-11
-8.21167e-12
9.35412e-17
-1.34211e-11
-7.63049e-12
8.14305e-17
-8.28562e-12
-6.87905e-12
7.13495e-17
-3.86397e-12
-5.91242e-12
6.05275e-17
-3.47536e-13
-4.6859e-12
5.03585e-17
2.0495e-12
-3.16419e-12
2.95588e-17
3.13093e-12
-1.3727e-12
3.99127e-17
2.80649e-12
5.5444e-13
1.89502e-17
1.39805e-12
2.02801e-12
1.11535e-17
1.96776e-12
-3.95769e-18
-3.05367e-10
-4.74456e-11
4.06559e-16
-2.82462e-10
-4.30474e-11
4.0804e-16
-2.61482e-10
-3.93e-11
4.18344e-16
-2.42152e-10
-3.61075e-11
4.19288e-16
-2.24227e-10
-3.33923e-11
4.06537e-16
-2.07499e-10
-3.10876e-11
3.95418e-16
-1.91787e-10
-2.91399e-11
3.6488e-16
-1.76928e-10
-2.75015e-11
3.64309e-16
-1.62788e-10
-2.61262e-11
3.51591e-16
-1.49237e-10
-2.49913e-11
3.3726e-16
-1.36181e-10
-2.40455e-11
3.2054e-16
-1.23527e-10
-2.32687e-11
3.05557e-16
-1.11212e-10
-2.26166e-11
2.86882e-16
-9.91894e-11
-2.20536e-11
2.72044e-16
-8.74239e-11
-2.15552e-11
2.59834e-16
-7.59171e-11
-2.10601e-11
2.41565e-16
-6.4685e-11
-2.05355e-11
2.14478e-16
-5.37775e-11
-1.99217e-11
1.95789e-16
-4.32746e-11
-1.9163e-11
1.76424e-16
-3.32887e-11
-1.81975e-11
1.52442e-16
-2.39787e-11
-1.69406e-11
1.40143e-16
-1.55455e-11
-1.53123e-11
1.21361e-16
-8.23924e-12
-1.32188e-11
1.04877e-16
-2.3582e-12
-1.0567e-11
9.35638e-17
1.7682e-12
-7.29093e-12
3.67278e-17
3.84618e-12
-3.45088e-12
9.07865e-17
3.75365e-12
6.46812e-13
3.79149e-17
1.94458e-12
3.83686e-12
3.16751e-17
3.91214e-12
2.01003e-19
-4.1036e-10
-7.95483e-11
5.84944e-16
-3.80903e-10
-7.25053e-11
5.82509e-16
-3.53738e-10
-6.64653e-11
5.84753e-16
-3.28555e-10
-6.12915e-11
5.78331e-16
-3.05075e-10
-5.68718e-11
5.60778e-16
-2.83054e-10
-5.31073e-11
5.43143e-16
-2.62277e-10
-4.99178e-11
5.21306e-16
-2.42546e-10
-4.72307e-11
5.05103e-16
-2.23701e-10
-4.49734e-11
4.81926e-16
-2.05579e-10
-4.3112e-11
4.61701e-16
-1.88063e-10
-4.15625e-11
4.39402e-16
-1.71038e-10
-4.02931e-11
4.18269e-16
-1.54424e-10
-3.92299e-11
3.94878e-16
-1.38166e-10
-3.8313e-11
3.78874e-16
-1.22218e-10
-3.75017e-11
3.77314e-16
-1.06588e-10
-3.66905e-11
3.55733e-16
-9.12997e-11
-3.58237e-11
2.97911e-16
-7.64228e-11
-3.47984e-11
2.76054e-16
-6.20671e-11
-3.35189e-11
2.46019e-16
-4.83853e-11
-3.18791e-11
2.20443e-16
-3.55918e-11
-2.97342e-11
1.97236e-16
-2.39556e-11
-2.69486e-11
1.71285e-16
-1.38083e-11
-2.33661e-11
1.4875e-16
-5.54267e-12
-1.88329e-11
1.50766e-16
4.14054e-13
-1.32478e-11
9.16867e-17
3.68528e-12
-6.72226e-12
8.96919e-17
4.11715e-12
2.14799e-13
5.56901e-17
2.24608e-12
5.70764e-12
6.93728e-17
6.15803e-12
5.19045e-18
-5.04601e-10
-1.16749e-10
7.60323e-16
-4.70161e-10
-1.06946e-10
7.51015e-16
-4.38148e-10
-9.84787e-11
7.46699e-16
-4.0826e-10
-9.11816e-11
7.3555e-16
-3.80214e-10
-8.49172e-11
7.1156e-16
-3.53759e-10
-7.95608e-11
6.8811e-16
-3.28668e-10
-7.50098e-11
6.62041e-16
-3.04728e-10
-7.11692e-11
6.53179e-16
-2.81763e-10
-6.79401e-11
6.1051e-16
-2.59593e-10
-6.52803e-11
5.84212e-16
-2.38088e-10
-6.30692e-11
5.55962e-16
-2.17116e-10
-6.12638e-11
5.29804e-16
-1.9659e-10
-5.97558e-11
5.00505e-16
-1.76447e-10
-5.84574e-11
4.78261e-16
-1.56638e-10
-5.73092e-11
4.70803e-16
-1.37177e-10
-5.61524e-11
4.4369e-16
-1.18097e-10
-5.49037e-11
3.80218e-16
-9.94871e-11
-5.34077e-11
3.45847e-16
-8.14864e-11
-5.152e-11
3.14196e-16
-6.42845e-11
-4.90808e-11
2.83666e-16
-4.81465e-11
-4.58723e-11
2.5308e-16
-3.34027e-11
-4.16925e-11
2.18879e-16
-2.04573e-11
-3.63114e-11
1.90613e-16
-9.78567e-12
-2.95048e-11
1.36066e-16
-1.89982e-12
-2.11337e-11
1.28911e-16
2.74848e-12
-1.13707e-11
1.05582e-16
3.96993e-12
-1.00679e-12
7.23152e-17
2.33834e-12
7.33899e-12
5.5046e-17
8.49617e-12
1.08731e-17
-5.87909e-10
-1.57287e-10
9.32815e-16
-5.50003e-10
-1.44853e-10
9.15805e-16
-5.14452e-10
-1.3403e-10
9.06083e-16
-4.80993e-10
-1.24642e-10
8.86014e-16
-4.49371e-10
-1.1654e-10
8.59231e-16
-4.19347e-10
-1.09583e-10
8.30119e-16
-3.90703e-10
-1.03654e-10
7.95543e-16
-3.63228e-10
-9.8643e-11
7.69817e-16
-3.36743e-10
-9.44266e-11
7.35644e-16
-3.11063e-10
-9.09588e-11
7.04327e-16
-2.86052e-10
-8.80814e-11
6.67244e-16
-2.61573e-10
-8.57421e-11
6.38543e-16
-2.37534e-10
-8.37953e-11
6.03856e-16
-2.13869e-10
-8.21229e-11
5.70592e-16
-1.90532e-10
-8.06455e-11
5.38808e-16
-1.67542e-10
-7.91432e-11
5.04767e-16
-1.44943e-10
-7.75015e-11
4.60479e-16
-1.22846e-10
-7.55046e-11
4.18043e-16
-1.01415e-10
-7.29519e-11
3.81448e-16
-8.08731e-11
-6.9622e-11
3.44591e-16
-6.15328e-11
-6.52128e-11
3.07436e-16
-4.37785e-11
-5.94469e-11
2.6806e-16
-2.80786e-11
-5.20112e-11
2.33151e-16
-1.49811e-11
-4.26025e-11
1.90102e-16
-5.07304e-12
-3.10418e-11
1.5939e-16
1.12418e-12
-1.7568e-11
1.28254e-16
3.37639e-12
-3.25915e-12
8.87478e-17
2.25222e-12
8.46294e-12
6.06343e-17
1.07482e-11
1.19851e-17
-6.60435e-10
-1.99561e-10
1.10031e-15
-6.20467e-10
-1.84823e-10
1.08039e-15
-5.8261e-10
-1.71888e-10
1.06168e-15
-5.46664e-10
-1.6059e-10
1.03577e-15
-5.12418e-10
-1.50785e-10
1.00307e-15
-4.79669e-10
-1.4233e-10
9.68671e-16
-4.48222e-10
-1.35103e-10
9.31044e-16
-4.17879e-10
-1.28984e-10
8.93203e-16
-3.88475e-10
-1.23834e-10
8.57991e-16
-3.59824e-10
-1.19608e-10
8.21596e-16
-3.31796e-10
-1.16111e-10
7.82414e-16
-3.04253e-10
-1.13284e-10
7.45309e-16
-2.77105e-10
-1.10943e-10
7.04701e-16
-2.50291e-10
-1.08939e-10
6.65005e-16
-2.23763e-10
-1.07172e-10
6.24533e-16
-1.97553e-10
-1.05354e-10
5.84296e-16
-1.71717e-10
-1.03337e-10
5.35473e-16
-1.46382e-10
-1.00839e-10
4.89427e-16
-1.21739e-10
-9.75957e-11
4.4853e-16
-9.80424e-11
-9.33183e-11
4.03918e-16
-7.56447e-11
-8.76108e-11
3.58612e-16
-5.49791e-11
-8.01126e-11
3.13566e-16
-3.65703e-11
-7.04199e-11
2.74577e-16
-2.103e-11
-5.81429e-11
2.31476e-16
-9.01299e-12
-4.30589e-11
1.81479e-16
-1.1077e-12
-2.54735e-11
1.51197e-16
2.39344e-12
-6.76043e-12
1.05584e-16
2.01437e-12
8.84179e-12
7.2374e-17
1.27624e-11
1.4874e-17
-7.22596e-10
-2.42181e-10
1.26036e-15
-6.81814e-10
-2.25606e-10
1.23424e-15
-6.42768e-10
-2.10934e-10
1.21244e-15
-6.05334e-10
-1.98027e-10
1.18342e-15
-5.69359e-10
-1.8676e-10
1.14042e-15
-5.34685e-10
-1.77001e-10
1.10297e-15
-5.01153e-10
-1.68636e-10
1.06022e-15
-4.6859e-10
-1.61545e-10
1.02006e-15
-4.3685e-10
-1.55577e-10
9.76909e-16
-4.05759e-10
-1.50697e-10
9.35357e-16
-3.75198e-10
-1.46673e-10
8.91492e-16
-3.45034e-10
-1.43447e-10
8.52351e-16
-3.15183e-10
-1.40794e-10
8.02792e-16
-2.8559e-10
-1.38534e-10
7.57403e-16
-2.56214e-10
-1.36546e-10
7.12109e-16
-2.27096e-10
-1.34472e-10
6.65373e-16
-1.98305e-10
-1.32128e-10
6.10332e-16
-1.69987e-10
-1.29157e-10
5.6012e-16
-1.42353e-10
-1.2523e-10
5.09732e-16
-1.15689e-10
-1.19983e-10
4.61609e-16
-9.03808e-11
-1.12919e-10
4.12881e-16
-6.69053e-11
-1.03588e-10
3.59977e-16
-4.5836e-11
-9.14892e-11
3.14814e-16
-2.78404e-11
-7.61386e-11
2.65758e-16
-1.36354e-11
-5.72642e-11
1.86021e-16
-3.87617e-12
-3.52328e-11
1.73688e-16
1.07107e-12
-1.17078e-11
1.22727e-16
1.64769e-12
8.26499e-12
7.57705e-17
1.44099e-11
1.89061e-17
-7.74998e-10
-2.83985e-10
1.41651e-15
-7.34473e-10
-2.66132e-10
1.38376e-15
-6.9522e-10
-2.50188e-10
1.35781e-15
-6.57192e-10
-2.36058e-10
1.32372e-15
-6.20302e-10
-2.2365e-10
1.27788e-15
-5.84445e-10
-2.12856e-10
1.23278e-15
-5.49501e-10
-2.0358e-10
1.18369e-15
-5.15333e-10
-1.95711e-10
1.1401e-15
-4.81818e-10
-1.89095e-10
1.09143e-15
-4.48801e-10
-1.83712e-10
1.04543e-15
-4.16177e-10
-1.79299e-10
9.964e-16
-3.83825e-10
-1.75798e-10
9.49137e-16
-3.51671e-10
-1.72949e-10
8.97326e-16
-3.19667e-10
-1.70539e-10
8.46994e-16
-2.87782e-10
-1.6843e-10
8.03337e-16
-2.56068e-10
-1.66187e-10
7.44229e-16
-2.24605e-10
-1.6359e-10
6.83002e-16
-1.93557e-10
-1.60204e-10
6.25183e-16
-1.63157e-10
-1.5563e-10
5.68586e-16
-1.33713e-10
-1.49427e-10
5.17266e-16
-1.05644e-10
-1.40988e-10
4.63744e-16
-7.94628e-11
-1.2977e-10
4.07834e-16
-5.57847e-11
-1.15167e-10
3.53631e-16
-3.53268e-11
-9.65965e-11
2.98796e-16
-1.88635e-11
-7.37276e-11
2.39551e-16
-7.11897e-12
-4.69775e-11
1.97191e-16
-5.47002e-13
-1.82799e-11
1.3862e-16
1.17127e-12
6.54653e-12
8.54526e-17
1.5581e-11
2.48954e-17
-8.18374e-10
-3.24043e-10
1.56875e-15
-7.78992e-10
-3.05515e-10
1.5293e-15
-7.40366e-10
-2.88815e-10
1.4973e-15
-7.02524e-10
-2.73902e-10
1.4582e-15
-6.65444e-10
-2.6073e-10
1.40806e-15
-6.29073e-10
-2.49224e-10
1.35721e-15
-5.93338e-10
-2.39316e-10
1.29056e-15
-5.58135e-10
-2.30912e-10
1.25481e-15
-5.23373e-10
-2.23861e-10
1.19879e-15
-4.88917e-10
-2.18165e-10
1.15086e-15
-4.54683e-10
-2.13534e-10
1.09734e-15
-4.20563e-10
-2.09917e-10
1.04817e-15
-3.86494e-10
-2.07018e-10
9.88906e-16
-3.52441e-10
-2.04593e-10
9.33217e-16
-3.1838e-10
-2.02489e-10
9.00025e-16
-2.84378e-10
-2.00191e-10
8.19767e-16
-2.50525e-10
-1.97442e-10
7.52748e-16
-2.17e-10
-1.93728e-10
6.89214e-16
-1.84056e-10
-1.88575e-10
6.29456e-16
-1.52021e-10
-1.81462e-10
5.70912e-16
-1.21342e-10
-1.71667e-10
5.12289e-16
-9.25615e-11
-1.5855e-10
4.56747e-16
-6.63305e-11
-1.41398e-10
3.90937e-16
-4.34098e-11
-1.19517e-10
3.24098e-16
-2.46272e-11
-9.25103e-11
2.80973e-16
-1.07794e-11
-6.08255e-11
2.21105e-16
-2.42292e-12
-2.66365e-11
1.53311e-16
6.00102e-13
3.52332e-12
1.01431e-16
1.61809e-11
2.59869e-17
-8.53528e-10
-3.61645e-10
1.712e-15
-8.15995e-10
-3.43049e-10
1.66681e-15
-7.78684e-10
-3.26128e-10
1.63043e-15
-7.41689e-10
-3.109e-10
1.58676e-15
-7.05046e-10
-2.97373e-10
1.53433e-15
-6.68755e-10
-2.85513e-10
1.47675e-15
-6.32785e-10
-2.75286e-10
1.41872e-15
-5.97071e-10
-2.66624e-10
1.36551e-15
-5.61551e-10
-2.59385e-10
1.30754e-15
-5.26115e-10
-2.53598e-10
1.25205e-15
-4.907e-10
-2.48952e-10
1.19374e-15
-4.5521e-10
-2.45405e-10
1.13666e-15
-4.19601e-10
-2.42627e-10
1.07953e-15
-3.83848e-10
-2.40348e-10
1.01499e-15
-3.47937e-10
-2.38398e-10
9.56695e-16
-3.11947e-10
-2.36182e-10
8.89456e-16
-2.7598e-10
-2.33408e-10
8.19427e-16
-2.40229e-10
-2.29478e-10
7.50551e-16
-2.04962e-10
-2.23843e-10
6.86268e-16
-1.70525e-10
-2.15898e-10
6.21867e-16
-1.37388e-10
-2.04805e-10
5.58956e-16
-1.06116e-10
-1.89822e-10
4.92449e-16
-7.73928e-11
-1.70121e-10
4.26113e-16
-5.20153e-11
-1.44895e-10
3.30704e-16
-3.08627e-11
-1.13663e-10
3.29265e-16
-1.48071e-11
-7.68813e-11
2.53121e-16
-4.52372e-12
-3.692e-11
1.69427e-16
-6.09939e-14
-9.39566e-13
1.03227e-16
1.61198e-11
2.92226e-17
-8.81291e-10
-3.96275e-10
1.84841e-15
-8.46146e-10
-3.78194e-10
1.79804e-15
-8.10696e-10
-3.61578e-10
1.75673e-15
-7.75092e-10
-3.46507e-10
1.71065e-15
-7.39418e-10
-3.33047e-10
1.64665e-15
-7.03721e-10
-3.21207e-10
1.58986e-15
-6.68011e-10
-3.10997e-10
1.52783e-15
-6.32255e-10
-3.02377e-10
1.4718e-15
-5.96425e-10
-2.9522e-10
1.40891e-15
-5.60431e-10
-2.89589e-10
1.34827e-15
-5.24233e-10
-2.85152e-10
1.28558e-15
-4.87754e-10
-2.81883e-10
1.22316e-15
-4.5096e-10
-2.79421e-10
1.15874e-15
-4.13842e-10
-2.77469e-10
1.09334e-15
-3.76394e-10
-2.75844e-10
1.02661e-15
-3.38709e-10
-2.73869e-10
9.59816e-16
-3.00897e-10
-2.71219e-10
8.78652e-16
-2.63165e-10
-2.6721e-10
8.09138e-16
-2.25793e-10
-2.61216e-10
7.40022e-16
-1.89141e-10
-2.52549e-10
6.71051e-16
-1.53697e-10
-2.4025e-10
6.05616e-16
-1.20046e-10
-2.23472e-10
5.31915e-16
-8.88953e-11
-2.01272e-10
4.60945e-16
-6.10746e-11
-1.72716e-10
3.84639e-16
-3.75116e-11
-1.37226e-10
3.3478e-16
-1.91573e-11
-9.52359e-11
3.06361e-16
-6.82026e-12
-4.92573e-11
1.84543e-16
-7.72242e-13
-6.98773e-12
1.09327e-16
1.53474e-11
3.08295e-17
-9.02487e-10
-4.27592e-10
1.97374e-15
-8.70119e-10
-4.10563e-10
1.92083e-15
-8.36949e-10
-3.94749e-10
1.87565e-15
-8.03168e-10
-3.80291e-10
1.82249e-15
-7.68902e-10
-3.67313e-10
1.76091e-15
-7.34235e-10
-3.55872e-10
1.69676e-15
-6.99212e-10
-3.46021e-10
1.61929e-15
-6.63832e-10
-3.37755e-10
1.58482e-15
-6.28091e-10
-3.30965e-10
1.50405e-15
-5.91926e-10
-3.2575e-10
1.43937e-15
-5.55316e-10
-3.21765e-10
1.3725e-15
-5.18198e-10
-3.18999e-10
1.30488e-15
-4.80555e-10
-3.17064e-10
1.23653e-15
-4.4239e-10
-3.15637e-10
1.16784e-15
-4.03706e-10
-3.14525e-10
1.09255e-15
-3.64605e-10
-3.12971e-10
1.02463e-15
-3.2521e-10
-3.10613e-10
9.17908e-16
-2.85735e-10
-3.06684e-10
8.65296e-16
-2.46471e-10
-3.00481e-10
7.91153e-16
-2.0779e-10
-2.9123e-10
7.17074e-16
-1.70191e-10
-2.7785e-10
6.47007e-16
-1.34275e-10
-2.59388e-10
5.66431e-16
-1.00766e-10
-2.34781e-10
4.93673e-16
-7.05239e-11
-2.02958e-10
4.20161e-16
-4.45209e-11
-1.63229e-10
3.53764e-16
-2.37905e-11
-1.15967e-10
3.26654e-16
-9.28871e-12
-6.37592e-11
1.98503e-16
-1.54967e-12
-1.47269e-11
1.17616e-16
1.37976e-11
3.34696e-17
-9.17907e-10
-4.55396e-10
2.0924e-15
-8.88576e-10
-4.39896e-10
2.03597e-15
-8.57989e-10
-4.25337e-10
1.98734e-15
-8.26365e-10
-4.11919e-10
1.93099e-15
-7.93858e-10
-3.99819e-10
1.87731e-15
-7.60581e-10
-3.89145e-10
1.79843e-15
-7.2661e-10
-3.79994e-10
1.74291e-15
-6.91966e-10
-3.72396e-10
1.66484e-15
-6.56672e-10
-3.66264e-10
1.59336e-15
-6.20683e-10
-3.61736e-10
1.52527e-15
-5.83997e-10
-3.58454e-10
1.45457e-15
-5.46566e-10
-3.56428e-10
1.38389e-15
-5.08387e-10
-3.55243e-10
1.30997e-15
-4.69473e-10
-3.54554e-10
1.21438e-15
-4.29836e-10
-3.54159e-10
1.13778e-15
-3.89589e-10
-3.53219e-10
1.08597e-15
-3.48861e-10
-3.51341e-10
9.9628e-16
-3.07874e-10
-3.47671e-10
9.19347e-16
-2.66927e-10
-3.41429e-10
8.39355e-16
-2.26397e-10
-3.31759e-10
7.58593e-16
-1.86795e-10
-3.17453e-10
6.82667e-16
-1.48729e-10
-2.97454e-10
5.98887e-16
-1.12938e-10
-2.70572e-10
5.24322e-16
-8.03035e-11
-2.35593e-10
4.47893e-16
-5.18418e-11
-1.91691e-10
3.82456e-16
-2.86713e-11
-1.39137e-10
3.21546e-16
-1.19083e-11
-8.05224e-11
2.10872e-16
-2.37967e-12
-2.42556e-11
1.25517e-16
1.14177e-11
3.62328e-17
-9.28295e-10
-4.79604e-10
2.20263e-15
-9.02151e-10
-4.66041e-10
2.14262e-15
-8.74351e-10
-4.53138e-10
2.09012e-15
-8.45126e-10
-4.41147e-10
2.03117e-15
-8.14651e-10
-4.30295e-10
1.96272e-15
-7.83057e-10
-4.20736e-10
1.89197e-15
-7.50439e-10
-4.12612e-10
1.82171e-15
-7.16842e-10
-4.05991e-10
1.74883e-15
-6.82305e-10
-4.00806e-10
1.67724e-15
-6.46801e-10
-3.97237e-10
1.60577e-15
-6.10342e-10
-3.94915e-10
1.53135e-15
-5.72895e-10
-3.93873e-10
1.45687e-15
-5.34468e-10
-3.93671e-10
1.37972e-15
-4.95083e-10
-3.93942e-10
1.29851e-15
-4.54761e-10
-3.94478e-10
1.21935e-15
-4.13622e-10
-3.9436e-10
1.14433e-15
-3.718e-10
-3.93162e-10
1.05395e-15
-3.29522e-10
-3.89948e-10
9.70422e-16
-2.87093e-10
-3.83859e-10
8.84201e-16
-2.44894e-10
-3.73958e-10
7.98921e-16
-2.03438e-10
-3.5891e-10
7.14421e-16
-1.63341e-10
-3.37552e-10
6.2689e-16
-1.25347e-10
-3.08565e-10
5.52866e-16
-9.03581e-11
-2.70582e-10
4.73428e-16
-5.94302e-11
-2.22619e-10
4.28332e-16
-3.37686e-11
-1.64799e-10
3.61835e-16
-1.46613e-11
-9.96299e-11
2.23287e-16
-3.25604e-12
-3.5661e-11
1.32741e-16
8.16155e-12
3.88027e-17
-9.34334e-10
-5.00224e-10
2.30364e-15
-9.1144e-10
-4.88937e-10
2.24097e-15
-8.86545e-10
-4.78034e-10
2.18598e-15
-8.59887e-10
-4.67809e-10
2.12197e-15
-8.31644e-10
-4.58537e-10
2.05194e-15
-8.01961e-10
-4.50417e-10
1.97938e-15
-7.70944e-10
-4.4363e-10
1.90449e-15
-7.38653e-10
-4.3828e-10
1.81766e-15
-7.05139e-10
-4.34324e-10
1.75523e-15
-6.7039e-10
-4.31983e-10
1.68076e-15
-6.3443e-10
-4.30879e-10
1.60289e-15
-5.97235e-10
-4.31066e-10
1.52356e-15
-5.58823e-10
-4.32083e-10
1.44447e-15
-5.19224e-10
-4.33544e-10
1.36228e-15
-4.78465e-10
-4.35234e-10
1.28035e-15
-4.36672e-10
-4.36155e-10
1.20097e-15
-3.93982e-10
-4.35852e-10
1.10442e-15
-3.50626e-10
-4.33303e-10
1.03397e-15
-3.06909e-10
-4.27577e-10
9.26611e-16
-2.63214e-10
-4.17652e-10
8.39582e-16
-2.20054e-10
-4.02071e-10
7.53572e-16
-1.78044e-10
-3.79562e-10
6.62597e-16
-1.37933e-10
-3.48675e-10
5.79486e-16
-1.00636e-10
-3.0788e-10
4.96181e-16
-6.72456e-11
-2.5601e-10
4.21736e-16
-3.90551e-11
-1.9299e-10
3.75595e-16
-1.75334e-11
-1.21152e-10
2.34234e-16
-4.17437e-12
-4.90201e-11
1.39408e-16
3.98703e-12
4.13439e-17
-9.36645e-10
-5.17336e-10
2.39283e-15
-9.16991e-10
-5.08593e-10
2.33025e-15
-8.95054e-10
-4.99972e-10
2.27404e-15
-8.71062e-10
-4.91805e-10
2.20978e-15
-8.45192e-10
-4.84407e-10
2.13547e-15
-8.1759e-10
-4.78015e-10
2.06015e-15
-7.88371e-10
-4.7285e-10
1.98348e-15
-7.57597e-10
-4.6905e-10
1.92132e-15
-7.25333e-10
-4.66594e-10
1.82848e-15
-6.91572e-10
-4.65741e-10
1.75004e-15
-6.56347e-10
-4.66106e-10
1.66922e-15
-6.19643e-10
-4.67768e-10
1.5878e-15
-5.81484e-10
-4.70243e-10
1.50423e-15
-5.41906e-10
-4.73125e-10
1.42189e-15
-5.0094e-10
-4.76197e-10
1.33401e-15
-4.58715e-10
-4.78382e-10
1.26715e-15
-4.1537e-10
-4.79196e-10
1.15047e-15
-3.71136e-10
-4.77536e-10
1.0585e-15
-3.26319e-10
-4.72396e-10
9.65011e-16
-2.81296e-10
-4.62675e-10
8.75609e-16
-2.36578e-10
-4.46789e-10
7.86849e-16
-1.92777e-10
-4.23363e-10
6.91296e-16
-1.50639e-10
-3.90812e-10
6.04451e-16
-1.11088e-10
-3.47431e-10
5.17384e-16
-7.52508e-11
-2.91847e-10
4.29429e-16
-4.45067e-11
-2.23734e-10
3.56002e-16
-2.05126e-11
-1.45146e-10
2.41984e-16
-5.13172e-12
-6.4401e-11
1.4403e-16
-1.14483e-12
4.36514e-17
-9.35783e-10
-5.31066e-10
2.47826e-15
-9.19308e-10
-5.25069e-10
2.41279e-15
-9.00324e-10
-5.18956e-10
2.35476e-15
-8.79044e-10
-5.13089e-10
2.2885e-15
-8.55634e-10
-5.07817e-10
2.21214e-15
-8.30236e-10
-5.0341e-10
2.13458e-15
-8.02962e-10
-5.00126e-10
2.05523e-15
-7.73877e-10
-4.98132e-10
1.97819e-15
-7.43048e-10
-4.97428e-10
1.89498e-15
-7.10473e-10
-4.98312e-10
1.81369e-15
-6.7619e-10
-5.00392e-10
1.73033e-15
-6.40187e-10
-5.03768e-10
1.64763e-15
-6.02494e-10
-5.07936e-10
1.55968e-15
-5.63149e-10
-5.12473e-10
1.49088e-15
-5.22186e-10
-5.17157e-10
1.38369e-15
-4.79734e-10
-5.20836e-10
1.29423e-15
-4.35932e-10
-5.22997e-10
1.19307e-15
-3.9101e-10
-5.22457e-10
1.09629e-15
-3.4527e-10
-5.18138e-10
1.00087e-15
-2.99082e-10
-5.08861e-10
9.08363e-16
-2.52951e-10
-4.92921e-10
8.16245e-16
-2.07481e-10
-4.68834e-10
7.15278e-16
-1.63411e-10
-4.34881e-10
6.26827e-16
-1.2167e-10
-3.89172e-10
5.36887e-16
-8.34119e-11
-3.30105e-10
4.36659e-16
-5.01021e-11
-2.57044e-10
3.59247e-16
-2.35896e-11
-1.71659e-10
2.45347e-16
-6.12641e-12
-8.18644e-11
1.43954e-16
-7.27137e-12
4.59006e-17
-9.32239e-10
-5.41578e-10
2.55469e-15
-9.18841e-10
-5.38468e-10
2.48781e-15
-9.02765e-10
-5.35034e-10
2.42815e-15
-8.84198e-10
-5.31659e-10
2.36035e-15
-8.63292e-10
-5.28723e-10
2.28211e-15
-8.40176e-10
-5.26523e-10
2.20257e-15
-8.14956e-10
-5.25348e-10
2.12099e-15
-7.87692e-10
-5.25393e-10
2.04009e-15
-7.58448e-10
-5.26677e-10
1.95597e-15
-7.27223e-10
-5.29533e-10
1.8726e-15
-6.94057e-10
-5.33562e-10
1.78623e-15
-6.58939e-10
-5.38884e-10
1.69959e-15
-6.21899e-10
-5.44977e-10
1.60967e-15
-5.82977e-10
-5.51398e-10
1.52172e-15
-5.42206e-10
-5.57925e-10
1.43485e-15
-4.99716e-10
-5.63328e-10
1.33482e-15
-4.55642e-10
-5.67071e-10
1.2357e-15
-4.10209e-10
-5.67889e-10
1.13176e-15
-3.63713e-10
-5.64635e-10
1.03448e-15
-3.16517e-10
-5.56056e-10
9.38289e-16
-2.69115e-10
-5.40323e-10
8.43626e-16
-2.22099e-10
-5.15851e-10
7.41493e-16
-1.76198e-10
-4.80782e-10
6.41789e-16
-1.32337e-10
-4.33033e-10
5.54201e-16
-9.16974e-11
-3.70746e-10
4.26328e-16
-5.5823e-11
-2.92919e-10
3.76754e-16
-2.67574e-11
-2.00725e-10
2.606e-16
-7.15804e-12
-1.01464e-10
1.56231e-16
-1.44295e-11
4.81575e-17
-9.26446e-10
-5.49054e-10
2.62472e-15
-9.15998e-10
-5.48918e-10
2.55605e-15
-9.0275e-10
-5.48283e-10
2.49488e-15
-8.86864e-10
-5.47549e-10
2.42626e-15
-8.68469e-10
-5.47117e-10
2.34567e-15
-8.47678e-10
-5.47311e-10
2.26427e-15
-8.24583e-10
-5.48444e-10
2.18083e-15
-7.99236e-10
-5.50737e-10
2.09782e-15
-7.71695e-10
-5.54224e-10
2.01152e-15
-7.41955e-10
-5.5927e-10
1.92576e-15
-7.10052e-10
-5.65468e-10
1.83706e-15
-6.75975e-10
-5.72959e-10
1.74771e-15
-6.39751e-10
-5.81201e-10
1.65523e-15
-6.0142e-10
-5.89733e-10
1.562e-15
-5.61012e-10
-5.9833e-10
1.48852e-15
-5.18654e-10
-6.05689e-10
1.37272e-15
-4.74475e-10
-6.11248e-10
1.26256e-15
-4.28697e-10
-6.13666e-10
1.16095e-15
-3.81605e-10
-6.11729e-10
1.06936e-15
-3.33551e-10
-6.04109e-10
9.65621e-16
-2.85016e-10
-5.88859e-10
8.68258e-16
-2.36577e-10
-5.6429e-10
7.62195e-16
-1.88949e-10
-5.2841e-10
6.38787e-16
-1.4305e-10
-4.78931e-10
5.704e-16
-1.00078e-10
-4.13718e-10
4.50393e-16
-6.16533e-11
-3.31344e-10
4.11457e-16
-3.00111e-11
-2.32367e-10
2.71303e-16
-8.2274e-12
-1.23247e-10
1.63859e-16
-2.26571e-11
5.03446e-17
-9.18783e-10
-5.53688e-10
2.68565e-15
-9.11137e-10
-5.56566e-10
2.61685e-15
-9.00616e-10
-5.58804e-10
2.55547e-15
-8.87352e-10
-5.60817e-10
2.484e-15
-8.71448e-10
-5.63022e-10
2.40291e-15
-8.52993e-10
-5.65762e-10
2.31998e-15
-8.32065e-10
-5.69373e-10
2.23369e-15
-8.08702e-10
-5.74098e-10
2.14992e-15
-7.82952e-10
-5.79981e-10
2.0617e-15
-7.54801e-10
-5.87417e-10
1.97402e-15
-7.2428e-10
-5.95992e-10
1.8826e-15
-6.91374e-10
-6.05863e-10
1.79138e-15
-6.56107e-10
-6.16469e-10
1.69667e-15
-6.18512e-10
-6.27331e-10
1.60148e-15
-5.78618e-10
-6.38221e-10
1.50392e-15
-5.36544e-10
-6.47765e-10
1.40565e-15
-4.92415e-10
-6.55376e-10
1.27403e-15
-4.46442e-10
-6.59638e-10
1.18671e-15
-3.98903e-10
-6.5927e-10
1.09128e-15
-3.50134e-10
-6.52877e-10
9.8978e-16
-3.00602e-10
-6.38392e-10
8.89963e-16
-2.50864e-10
-6.14029e-10
7.76617e-16
-2.01617e-10
-5.77656e-10
6.78476e-16
-1.53769e-10
-5.26779e-10
5.85897e-16
-1.08527e-10
-4.5896e-10
4.50401e-16
-6.75788e-11
-3.72292e-10
3.99238e-16
-3.33477e-11
-2.66598e-10
2.80319e-16
-9.33649e-12
-1.47259e-10
1.69665e-16
-3.19937e-11
5.22897e-17
-9.09577e-10
-5.55676e-10
2.742e-15
-9.04579e-10
-5.61566e-10
2.67171e-15
-8.9667e-10
-5.66714e-10
2.6083e-15
-8.85948e-10
-5.71542e-10
2.53627e-15
-8.72489e-10
-5.76481e-10
2.45421e-15
-8.56359e-10
-5.81889e-10
2.36959e-15
-8.37613e-10
-5.88121e-10
2.27029e-15
-8.16274e-10
-5.95435e-10
2.19637e-15
-7.92374e-10
-6.03886e-10
2.10683e-15
-7.65891e-10
-6.13896e-10
2.01717e-15
-7.36847e-10
-6.25039e-10
1.92421e-15
-7.05219e-10
-6.37489e-10
1.83115e-15
-6.71024e-10
-6.50665e-10
1.734e-15
-6.34291e-10
-6.64068e-10
1.64262e-15
-5.95041e-10
-6.77468e-10