/*--------------------------------*- C++ -*----------------------------------*\
| =========                 |                                                 |
| \\      /  F ield         | OpenFOAM: The Open Source CFD Toolbox           |
|  \\    /   O peration     | Version:  v2012                                 |
|   \\  /    A nd           | Website:  www.openfoam.com                      |
|    \\/     M anipulation  |                                                 |
\*---------------------------------------------------------------------------*/
FoamFile
{
    version     2.0;
    format      ascii;
    class       volVectorField;
    location    "0.9";
    object      U;
}
// * * * * * * * * * * * * * * * * * * * * * * * * * * * * * * * * * * * * * //

dimensions      [0 1 -1 0 0 0 0];


internalField   nonuniform List<vector> 
2660
(
(-0.0274239 -8.17362 0.00023946)
(0.0695769 -4.8375 -0.000607012)
(0.0940792 -2.85957 -0.000820929)
(0.191353 -1.5632 -0.00167)
(0.127475 -0.422059 -0.00111529)
(-0.0231954 -7.96431 0.000202554)
(-0.0503135 -4.63343 0.000439307)
(-0.0355785 -2.74287 0.000310693)
(-0.0330409 -1.43122 0.000288483)
(-0.0158879 -0.457684 0.000139017)
(-0.0267922 -7.92683 0.000233954)
(-0.0211532 -4.70152 0.000184836)
(-0.0135636 -2.83015 0.000118558)
(0.00701676 -1.54842 -6.11247e-05)
(0.0143998 -0.478063 -0.00012582)
(-0.0275595 -7.78045 0.000240659)
(-0.0418974 -4.60907 0.000365899)
(-0.03248 -2.77951 0.000283686)
(-0.0195404 -1.49671 0.000170687)
(-0.00383629 -0.444177 3.36108e-05)
(-0.0293823 -7.68245 0.000256577)
(-0.038596 -4.59566 0.000337113)
(-0.0287611 -2.81774 0.000251249)
(-0.0124426 -1.56695 0.000108749)
(0.00258866 -0.497189 -2.24731e-05)
(-0.0326019 -7.5368 0.000284691)
(-0.0453445 -4.52341 0.000396045)
(-0.0342742 -2.78843 0.000299402)
(-0.0183718 -1.54537 0.000160525)
(-0.00151917 -0.473405 1.33738e-05)
(-0.0358124 -7.4049 0.000312727)
(-0.0467261 -4.48791 0.000408143)
(-0.0335825 -2.81203 0.000293401)
(-0.0161226 -1.59625 0.000140912)
(0.00113773 -0.514927 -9.7705e-06)
(-0.0397779 -7.24068 0.000347356)
(-0.0507196 -4.42199 0.000443046)
(-0.0364656 -2.79677 0.000318612)
(-0.0189475 -1.59401 0.000165601)
(-0.000778003 -0.507147 6.92053e-06)
(-0.0429298 -7.07892 0.000374889)
(-0.0516513 -4.37684 0.000451235)
(-0.0353094 -2.81184 0.000308573)
(-0.0170874 -1.63141 0.000149394)
(0.00112788 -0.534884 -9.66888e-06)
(-0.0463725 -6.89755 0.000404965)
(-0.0534391 -4.31852 0.000466909)
(-0.0363303 -2.80845 0.000317549)
(-0.0186146 -1.64362 0.000162766)
(-0.000130335 -0.540744 1.28003e-06)
(-0.0490971 -6.71447 0.000428781)
(-0.0519788 -4.27121 0.000454251)
(-0.0332115 -2.81681 0.000290404)
(-0.0159521 -1.66844 0.000139567)
(0.00182975 -0.55438 -1.57891e-05)
(-0.0530975 -6.52445 0.000463744)
(-0.0503383 -4.2283 0.000440047)
(-0.031825 -2.82493 0.000278396)
(-0.016254 -1.69206 0.000142256)
(0.0013625 -0.571438 -1.17587e-05)
(-0.0572931 -6.32675 0.000500424)
(-0.0436957 -4.19101 0.000382221)
(-0.0246265 -2.82593 0.000215671)
(-0.0110847 -1.70284 9.71851e-05)
(0.00450282 -0.567632 -3.91481e-05)
(-0.0674472 -6.13533 0.000589142)
(-0.0363675 -4.18403 0.000318472)
(-0.0210854 -2.84746 0.000184884)
(-0.0104858 -1.73662 9.20189e-05)
(0.00730015 -0.592406 -6.36711e-05)
(-0.0715118 -5.90923 0.00062478)
(-0.0242051 -4.18085 0.000212606)
(-0.00501197 -2.83422 4.47227e-05)
(0.00292928 -1.73547 -2.50349e-05)
(0.0150116 -0.561616 -0.000131047)
(-0.140249 -5.73284 0.00122501)
(-0.0527098 -4.23889 0.00046184)
(-0.0168939 -2.88948 0.000148562)
(-0.014607 -1.78194 0.000128087)
(0.0354016 -0.580694 -0.000309274)
(-0.0860308 -5.10077 0.000752484)
(-0.106354 -4.26385 0.000930428)
(0.00457487 -2.85568 -3.86614e-05)
(0.0106921 -1.81381 -9.27226e-05)
(0.0542264 -0.518672 -0.000473844)
(-2.0963 -5.04406 0.0182984)
(-1.09761 -4.17938 0.00958544)
(-0.235248 -3.08895 0.00205549)
(-0.236437 -1.88706 0.00206455)
(0.154671 -0.508026 -0.00135053)
(-3.12973 -6.8734 0.0273165)
(-2.11366 -5.1581 0.0184551)
(-0.741318 -3.78649 0.00647389)
(-0.378829 -2.30722 0.00330798)
(0.0751573 -0.643812 -0.000654557)
(-3.41615 -9.80698 0.0298127)
(-1.8004 -6.52967 0.0157212)
(-0.558514 -4.85111 0.00487778)
(-0.504271 -2.89815 0.00440277)
(0.146148 -0.999175 -0.00127448)
(-0.498088 -10.9713 0.00434298)
(-0.248142 -7.04379 0.00216746)
(-0.0904834 -5.30048 0.0007913)
(-0.105596 -3.16221 0.000922469)
(0.043497 -1.17452 -0.000379246)
(-0.223126 -9.73 0.0019485)
(-0.112879 -6.89624 0.000986703)
(-0.108697 -5.09321 0.000949787)
(-0.0868739 -3.20363 0.000758999)
(0.0315983 -1.12758 -0.000275585)
(-0.0632454 -9.60879 0.000552565)
(-0.0447635 -6.94547 0.000392116)
(-0.0337542 -5.17608 0.000295837)
(-0.0185039 -3.32565 0.000162231)
(0.0127085 -1.24848 -0.000110768)
(-0.0631156 -9.30957 0.000551616)
(-0.0533352 -6.84018 0.000467159)
(-0.0405102 -5.09201 0.000354926)
(-0.0232631 -3.27169 0.000203812)
(0.00584665 -1.14618 -5.07846e-05)
(-0.0527121 -9.16573 0.000460942)
(-0.0480453 -6.85774 0.000421244)
(-0.0277065 -5.16869 0.000243308)
(-0.0126248 -3.38306 0.000110977)
(0.0032807 -1.27538 -2.84449e-05)
(-0.0536287 -8.92999 0.000469122)
(-0.044693 -6.77243 0.000392333)
(-0.0228899 -5.10894 0.00020139)
(-0.0105388 -3.30628 9.27673e-05)
(0.0031419 -1.15151 -2.71357e-05)
(-0.0553727 -8.79147 0.000484588)
(-0.0421699 -6.81096 0.000370767)
(-0.020709 -5.1983 0.000182467)
(-0.00874535 -3.42833 7.71043e-05)
(0.00216831 -1.30673 -1.88392e-05)
(-0.0544237 -8.55356 0.000476706)
(-0.030657 -6.73172 0.000270887)
(-0.00714464 -5.1246 6.41361e-05)
(0.000451447 -3.31748 -3.25272e-06)
(0.00694553 -1.12963 -6.03717e-05)
(-0.0639909 -8.45225 0.00056102)
(-0.0345789 -6.82783 0.000305891)
(-0.0142879 -5.25289 0.000126476)
(-0.00480026 -3.48032 4.25163e-05)
(0.00604357 -1.34341 -5.29094e-05)
(-0.0495074 -8.15613 0.000436619)
(-0.0137837 -6.72739 0.000125252)
(0.0207126 -5.13083 -0.000179165)
(0.0198165 -3.31004 -0.00017254)
(0.0230645 -1.06316 -0.000201293)
(-0.151988 -8.18418 0.00133604)
(-0.114951 -6.93387 0.00100895)
(-0.0531927 -5.36479 0.000465608)
(-0.0422434 -3.55631 0.000369078)
(0.0248101 -1.3692 -0.000216991)
(0.0714656 -7.11696 -0.000603566)
(-0.0539048 -6.62272 0.000475591)
(0.0728524 -5.11734 -0.000634963)
(0.0516757 -3.34774 -0.000450924)
(0.0771777 -0.978785 -0.000674338)
(-2.79299 -8.50908 0.0244091)
(-1.63068 -6.89138 0.0142393)
(-0.589013 -5.69484 0.00514278)
(-0.424198 -3.69211 0.00370321)
(0.0656302 -1.32774 -0.000571822)
(0.216189 -9.36802 -0.00188744)
(-0.627514 -7.59731 0.0054773)
(-0.394059 -6.04819 0.00344065)
(-0.00499296 -4.01753 4.41473e-05)
(-0.0223742 -1.36414 0.000196257)
(-0.00214417 -1.3074e-05 1.87186e-05)
(-0.00187267 -1.09108e-05 1.63484e-05)
(-0.00163932 -9.1816e-06 1.43114e-05)
(-0.00143758 -7.78849e-06 1.25502e-05)
(-0.00126214 -6.65829e-06 1.10186e-05)
(-0.00110872 -5.73605e-06 9.67934e-06)
(-0.000973823 -4.97883e-06 8.50177e-06)
(-0.000854596 -4.35393e-06 7.46096e-06)
(-0.000748689 -3.8353e-06 6.53643e-06)
(-0.000654149 -3.40195e-06 5.71112e-06)
(-0.000569371 -3.03747e-06 4.97104e-06)
(-0.000493033 -2.72786e-06 4.30463e-06)
(-0.000424049 -2.46196e-06 3.70241e-06)
(-0.000361545 -2.23041e-06 3.15677e-06)
(-0.000304802 -2.02477e-06 2.66141e-06)
(-0.000253265 -1.83871e-06 2.2115e-06)
(-0.000206517 -1.66622e-06 1.8034e-06)
(-0.000164258 -1.50231e-06 1.43446e-06)
(-0.0001263 -1.34248e-06 1.10307e-06)
(-9.25513e-05 -1.18277e-06 8.08419e-07)
(-6.30228e-05 -1.01924e-06 5.50601e-07)
(-3.78184e-05 -8.48706e-07 3.30519e-07)
(-1.71385e-05 -6.66078e-07 1.49922e-07)
(-1.25251e-06 -4.70891e-07 1.11618e-08)
(9.46245e-06 -2.55517e-07 -8.24701e-08)
(1.47171e-05 -3.32292e-08 -1.2844e-07)
(1.43079e-05 1.98845e-07 -1.24945e-07)
(9.01984e-06 3.44188e-07 -7.88854e-08)
(1.97403e-06 3.61932e-07 -1.87552e-08)
(-0.00617742 -0.000245335 5.39305e-05)
(-0.0054124 -0.000203439 4.72518e-05)
(-0.00475211 -0.000170027 4.14875e-05)
(-0.00417903 -0.000143217 3.64845e-05)
(-0.00367892 -0.000121582 3.21185e-05)
(-0.00324018 -0.000104027 2.82883e-05)
(-0.00285326 -8.97072e-05 2.49105e-05)
(-0.00251033 -7.79627e-05 2.19168e-05)
(-0.00220492 -6.82762e-05 1.92506e-05)
(-0.00193163 -6.02339e-05 1.68647e-05)
(-0.00168599 -5.35061e-05 1.47203e-05)
(-0.00146432 -4.78246e-05 1.27851e-05)
(-0.00126358 -4.29707e-05 1.10327e-05)
(-0.00108135 -3.87652e-05 9.44184e-06)
(-0.000915598 -3.50558e-05 7.99483e-06)
(-0.000764775 -3.17194e-05 6.67815e-06)
(-0.000627717 -2.86499e-05 5.48161e-06)
(-0.000503586 -2.57581e-05 4.39791e-06)
(-0.000391865 -2.29677e-05 3.42253e-06)
(-0.000292305 -2.02126e-05 2.55331e-06)
(-0.000204947 -1.74342e-05 1.79057e-06)
(-0.000130084 -1.45822e-05 1.1369e-06)
(-6.82641e-05 -1.16094e-05 5.97044e-07)
(-2.02131e-05 -8.49078e-06 1.77359e-07)
(1.31134e-05 -5.21974e-06 -1.13823e-07)
(3.10266e-05 -1.90581e-06 -2.70474e-07)
(3.32221e-05 1.2126e-06 -2.89912e-07)
(2.19378e-05 3.21992e-06 -1.9181e-07)
(4.71036e-06 2.79139e-06 -4.53726e-08)
(-0.00990275 -0.000688265 8.64536e-05)
(-0.00870465 -0.000572646 7.59941e-05)
(-0.00766558 -0.000479982 6.6923e-05)
(-0.00675984 -0.000405318 5.90159e-05)
(-0.00596637 -0.00034485 5.20889e-05)
(-0.00526782 -0.000295638 4.59906e-05)
(-0.00464983 -0.00025539 4.05956e-05)
(-0.00410049 -0.000222307 3.57998e-05)
(-0.00360994 -0.000194967 3.15174e-05)
(-0.00316988 -0.000172228 2.76756e-05)
(-0.00277343 -0.000153175 2.42147e-05)
(-0.0024149 -0.00013706 2.10848e-05)
(-0.00208958 -0.000123273 1.82447e-05)
(-0.00179368 -0.000111309 1.56615e-05)
(-0.00152404 -0.000100744 1.33076e-05)
(-0.00127826 -9.12283e-05 1.11619e-05)
(-0.00105452 -8.24636e-05 9.2087e-06)
(-0.000851532 -7.41986e-05 7.43651e-06)
(-0.000668491 -6.62193e-05 5.83849e-06)
(-0.000505027 -5.83409e-05 4.41133e-06)
(-0.000361218 -5.04024e-05 3.15574e-06)
(-0.00023754 -4.22677e-05 2.07582e-06)
(-0.000134837 -3.38184e-05 1.17897e-06)
(-5.42234e-05 -2.49928e-05 4.749e-07)
(2.89857e-06 -1.58112e-05 -2.41536e-08)
(3.55732e-05 -6.57641e-06 -3.0983e-07)
(4.35483e-05 1.99083e-06 -3.79895e-07)
(3.0339e-05 7.66269e-06 -2.65227e-07)
(6.55232e-06 7.03307e-06 -6.34542e-08)
(-0.0132855 -0.00129783 0.000115985)
(-0.0117205 -0.00108482 0.000102323)
(-0.0103557 -0.000913044 9.0408e-05)
(-0.00915992 -0.00077388 7.99693e-05)
(-0.00810769 -0.000660635 7.07834e-05)
(-0.00717756 -0.00056808 6.26634e-05)
(-0.00635167 -0.000492101 5.54534e-05)
(-0.00561505 -0.000429439 4.90228e-05)
(-0.00495526 -0.000377501 4.32628e-05)
(-0.0043617 -0.000334187 3.80811e-05)
(-0.00382558 -0.000297802 3.34009e-05)
(-0.00333957 -0.000266955 2.9158e-05)
(-0.00289758 -0.000240503 2.52995e-05)
(-0.0024947 -0.000217497 2.17824e-05)
(-0.00212686 -0.000197137 1.85711e-05)
(-0.0017909 -0.000178756 1.56383e-05)
(-0.0014845 -0.00016179 1.29634e-05)
(-0.00120597 -0.00014576 1.05317e-05)
(-0.000954298 -0.000130259 8.3345e-06)
(-0.000729025 -0.000114934 6.36772e-06)
(-0.00053028 -9.94845e-05 4.63249e-06)
(-0.000358709 -8.36558e-05 3.13441e-06)
(-0.000215422 -6.72388e-05 1.88318e-06)
(-0.000101861 -5.01319e-05 8.91382e-07)
(-1.97827e-05 -3.2409e-05 1.74334e-07)
(2.96738e-05 -1.46636e-05 -2.57986e-07)
(4.63453e-05 1.70186e-06 -4.04124e-07)
(3.47997e-05 1.27769e-05 -3.04173e-07)
(7.7211e-06 1.23748e-05 -7.48564e-08)
(-0.016307 -0.00203272 0.000142364)
(-0.0144432 -0.00170749 0.000126093)
(-0.0128073 -0.00144348 0.000111811)
(-0.011366 -0.00122834 9.92293e-05)
(-0.0100913 -0.00105238 8.81007e-05)
(-0.00895927 -0.000907907 7.82183e-05)
(-0.00794996 -0.000788829 6.94071e-05)
(-0.00704637 -0.000690269 6.15188e-05)
(-0.00623422 -0.000608311 5.44289e-05)
(-0.00550131 -0.000539759 4.80307e-05)
(-0.00483741 -0.000482016 4.22349e-05)
(-0.00423394 -0.000432937 3.69667e-05)
(-0.00368377 -0.000390744 3.21638e-05)
(-0.00318111 -0.000353959 2.77756e-05)
(-0.00272114 -0.000321326 2.37602e-05)
(-0.00230017 -0.000291795 2.00851e-05)
(-0.00191542 -0.000264475 1.67262e-05)
(-0.00156493 -0.000238606 1.36663e-05)
(-0.00124753 -0.000213543 1.08952e-05)
(-0.000962704 -0.000188731 8.40857e-06)
(-0.000710659 -0.000163695 6.20799e-06)
(-0.000492203 -0.000138041 4.30055e-06)
(-0.000308684 -0.000111457 2.69801e-06)
(-0.000161826 -8.38026e-05 1.41544e-06)
(-5.36784e-05 -5.52362e-05 4.70712e-07)
(1.44751e-05 -2.67175e-05 -1.24954e-07)
(4.25262e-05 -4.83158e-07 -3.7057e-07)
(3.58408e-05 1.76396e-05 -3.13196e-07)
(8.37176e-06 1.8188e-05 -8.10154e-08)
(-0.0189626 -0.00285528 0.000165546)
(-0.0168662 -0.00241113 0.000147245)
(-0.0150134 -0.00204801 0.000131071)
(-0.0133709 -0.00175026 0.000116732)
(-0.0119101 -0.00150535 0.000103979)
(-0.0106063 -0.00130328 9.25974e-05)
(-0.00943857 -0.00113599 8.24032e-05)
(-0.00838881 -0.00099697 7.3239e-05)
(-0.00744175 -0.000880959 6.49712e-05)
(-0.00658413 -0.000783611 5.74844e-05)
(-0.00580481 -0.000701365 5.0681e-05)
(-0.00509436 -0.000631264 4.44789e-05)
(-0.00444488 -0.000570835 3.88091e-05)
(-0.00384999 -0.000518013 3.36158e-05)
(-0.00330432 -0.000471033 2.88521e-05)
(-0.00280375 -0.000428409 2.44822e-05)
(-0.00234522 -0.00038888 2.04792e-05)
(-0.00192656 -0.000351366 1.68241e-05)
(-0.0015465 -0.000314949 1.35061e-05)
(-0.00120453 -0.000278841 1.05205e-05)
(-0.000900936 -0.000242372 7.86985e-06)
(-0.000636686 -0.000204992 5.56258e-06)
(-0.000413349 -0.000166276 3.61237e-06)
(-0.000232899 -0.000126054 2.03647e-06)
(-9.7644e-05 -8.45961e-05 8.54997e-07)
(-9.00098e-06 -4.32813e-05 8.03524e-08)
(3.28921e-05 -5.29439e-06 -2.86223e-07)
(3.3928e-05 2.14808e-05 -2.96367e-07)
(8.61689e-06 2.3986e-05 -8.30376e-08)
(-0.0212589 -0.00372992 0.000185593)
(-0.0189919 -0.00316732 0.000165802)
(-0.0169736 -0.00270392 0.000148183)
(-0.0151726 -0.00232137 0.000132461)
(-0.0135612 -0.00200484 0.000118393)
(-0.0121153 -0.00174227 0.000105771)
(-0.0108138 -0.00152386 9.44097e-05)
(-0.00963874 -0.00134158 8.41512e-05)
(-0.00857428 -0.00118889 7.48587e-05)
(-0.00760678 -0.0010603 6.64127e-05)
(-0.00672461 -0.000951312 5.87115e-05)
(-0.00591787 -0.000858131 5.16687e-05)
(-0.00517821 -0.000777573 4.52117e-05)
(-0.00449887 -0.000706954 3.92811e-05)
(-0.00387412 -0.000643969 3.38271e-05)
(-0.00329959 -0.000586668 2.88115e-05)
(-0.00277202 -0.000533387 2.42058e-05)
(-0.00228913 -0.000482699 1.99901e-05)
(-0.00184964 -0.000433391 1.61532e-05)
(-0.00145304 -0.000384419 1.26907e-05)
(-0.00109974 -0.000334901 9.60612e-06)
(-0.000790871 -0.000284121 6.90927e-06)
(-0.000528202 -0.00023154 4.61565e-06)
(-0.000313937 -0.000176963 2.74448e-06)
(-0.000150625 -0.000120794 1.31799e-06)
(-3.98352e-05 -6.48669e-05 3.49911e-07)
(1.81512e-05 -1.33868e-05 -1.57264e-07)
(2.94726e-05 2.36319e-05 -2.57283e-07)
(8.5443e-06 2.93659e-05 -8.17919e-08)
(-0.0232116 -0.00462519 0.000202639)
(-0.02083 -0.00395039 0.000181849)
(-0.0186935 -0.00339023 0.000163197)
(-0.0167737 -0.00292457 0.000146438)
(-0.0150452 -0.00253683 0.000131349)
(-0.0134855 -0.00221338 0.000117733)
(-0.0120744 -0.00194297 0.000105415)
(-0.0107942 -0.00171627 9.42392e-05)
(-0.00962965 -0.00152557 8.40725e-05)
(-0.00856697 -0.00136438 7.47956e-05)
(-0.0075945 -0.00122728 6.63061e-05)
(-0.00670221 -0.00110968 5.85166e-05)
(-0.00588157 -0.00100769 5.13526e-05)
(-0.00512566 -0.000918006 4.47536e-05)
(-0.00442858 -0.000837779 3.86681e-05)
(-0.00378583 -0.000764578 3.3057e-05)
(-0.00319409 -0.000696321 2.78912e-05)
(-0.00265104 -0.000631219 2.31503e-05)
(-0.00215544 -0.000567743 1.88235e-05)
(-0.00170684 -0.000504584 1.4907e-05)
(-0.00130577 -0.00044064 1.14053e-05)
(-0.000953526 -0.000375021 8.32986e-06)
(-0.000652088 -0.000307076 5.69775e-06)
(-0.000403866 -0.000236586 3.53009e-06)
(-0.00021165 -0.000164106 1.8512e-06)
(-7.71991e-05 -9.19446e-05 6.76489e-07)
(-1.07154e-06 -2.53535e-05 1.08488e-08)
(2.28329e-05 2.34986e-05 -1.9908e-07)
(8.22384e-06 3.39835e-05 -7.79673e-08)
(-0.0248426 -0.00551432 0.000216877)
(-0.0223954 -0.00473794 0.000195514)
(-0.0201827 -0.00408828 0.000176198)
(-0.0181804 -0.00354431 0.000158718)
(-0.0163659 -0.00308841 0.000142879)
(-0.0147189 -0.00270586 0.0001285)
(-0.0132208 -0.00238434 0.000115422)
(-0.011855 -0.00211351 0.0001035)
(-0.010607 -0.0018847 9.26047e-05)
(-0.00946342 -0.00169053 8.26219e-05)
(-0.00841297 -0.00152476 7.34517e-05)
(-0.00744573 -0.00138208 6.5008e-05)
(-0.00655326 -0.00125793 5.72169e-05)
(-0.00572865 -0.0011484 5.00182e-05)
(-0.00496602 -0.0010501 4.33605e-05)
(-0.00426086 -0.000960135 3.72046e-05)
(-0.00360988 -0.000875993 3.15216e-05)
(-0.00301082 -0.000795516 2.62917e-05)
(-0.0024625 -0.00071686 2.15048e-05)
(-0.00196459 -0.00063844 1.71578e-05)
(-0.00151775 -0.000558931 1.32566e-05)
(-0.00112347 -0.00047727 9.81408e-06)
(-0.000783908 -0.000392691 6.84909e-06)
(-0.000501679 -0.000304959 4.3845e-06)
(-0.000279824 -0.000214781 2.44682e-06)
(-0.000120347 -0.000124941 1.05357e-06)
(-2.42253e-05 -4.1732e-05 2.13304e-07)
(1.43179e-05 2.05537e-05 -1.24463e-07)
(7.71116e-06 3.7545e-05 -7.21138e-08)
(-0.0261779 -0.00637544 0.000228534)
(-0.0237067 -0.00551111 0.000206961)
(-0.0214545 -0.00478196 0.000187301)
(-0.0194017 -0.0041669 0.00016938)
(-0.0175291 -0.00364796 0.000153033)
(-0.0158191 -0.00320987 0.000138105)
(-0.0142551 -0.00283966 0.000124452)
(-0.0128221 -0.00252626 0.000111942)
(-0.0115064 -0.0022603 0.000100457)
(-0.0102957 -0.00203366 8.98881e-05)
(-0.00917922 -0.00183943 8.01413e-05)
(-0.00814738 -0.00167163 7.11337e-05)
(-0.00719205 -0.00152511 6.27939e-05)
(-0.00630653 -0.0013954 5.50635e-05)
(-0.00548506 -0.00127861 4.78923e-05)
(-0.00472328 -0.00117135 4.12421e-05)
(-0.00401802 -0.00107072 3.50852e-05)
(-0.00336711 -0.000974186 2.94027e-05)
(-0.00276951 -0.000879595 2.41855e-05)
(-0.00222504 -0.000785086 1.94321e-05)
(-0.00173451 -0.000689111 1.51495e-05)
(-0.00129959 -0.000590435 1.13521e-05)
(-0.000922621 -0.00048818 8.06057e-06)
(-0.000606431 -0.000382096 5.29949e-06)
(-0.000354325 -0.000273036 3.09768e-06)
(-0.000168605 -0.00016424 1.47529e-06)
(-5.08264e-05 -6.3006e-05 4.45875e-07)
(4.19202e-06 1.43357e-05 -3.57471e-08)
(7.04974e-06 3.97959e-05 -6.46638e-08)
(-0.0272456 -0.00719149 0.000237853)
(-0.0247847 -0.00625464 0.000216371)
(-0.0225241 -0.00545779 0.000196638)
(-0.0204486 -0.00478057 0.000178519)
(-0.0185427 -0.00420529 0.000161882)
(-0.0167916 -0.00371663 0.000146595)
(-0.0151809 -0.00330135 0.000132535)
(-0.0136975 -0.00294803 0.000119585)
(-0.0123291 -0.00264677 0.000107639)
(-0.0110643 -0.00238896 9.65977e-05)
(-0.00989309 -0.00216713 8.63736e-05)
(-0.00880661 -0.00197476 7.6889e-05)
(-0.00779712 -0.00180616 6.80764e-05)
(-0.00685827 -0.00165637 5.98806e-05)
(-0.00598459 -0.001521 5.22535e-05)
(-0.00517191 -0.00139626 4.5159e-05)
(-0.00441727 -0.00127883 3.8571e-05)
(-0.00371867 -0.00116584 3.24723e-05)
(-0.00307526 -0.00105481 2.68552e-05)
(-0.00248701 -0.000943621 2.17195e-05)
(-0.00195491 -0.000830509 1.7074e-05)
(-0.00148081 -0.000714071 1.29347e-05)
(-0.00106724 -0.000593321 9.3236e-06)
(-0.000717239 -0.000467987 6.26732e-06)
(-0.000434393 -0.000339056 3.79713e-06)
(-0.000221371 -0.000210184 1.93635e-06)
(-8.04494e-05 -8.96075e-05 7.04846e-07)
(-7.32191e-06 4.44797e-06 6.51192e-08)
(6.26919e-06 4.05094e-05 -5.59248e-08)
(-0.0280743 -0.00794976 0.000245087)
(-0.0256513 -0.0069566 0.000223936)
(-0.023408 -0.00610486 0.000204354)
(-0.0213335 -0.00537551 0.000186244)
(-0.0194157 -0.00475166 0.000169502)
(-0.0176427 -0.00421842 0.000154025)
(-0.0160028 -0.00376268 0.000139709)
(-0.0144844 -0.0033729 0.000126454)
(-0.0130769 -0.00303898 0.000114167)
(-0.0117701 -0.00275196 0.00010276)
(-0.010555 -0.00250398 9.21519e-05)
(-0.00942332 -0.00228808 8.2273e-05)
(-0.00836802 -0.00209813 7.30606e-05)
(-0.0073832 -0.00192873 6.44634e-05)
(-0.00646372 -0.00177508 5.64366e-05)
(-0.00560574 -0.00163297 4.89467e-05)
(-0.00480655 -0.00149871 4.19699e-05)
(-0.0040644 -0.0013691 3.54908e-05)
(-0.00337862 -0.00124137 2.95039e-05)
(-0.00274938 -0.00111315 2.40105e-05)
(-0.00217788 -0.000982454 1.9021e-05)
(-0.00166612 -0.000847727 1.45529e-05)
(-0.00121684 -0.000707875 1.063e-05)
(-0.000833274 -0.000562597 7.28078e-06)
(-0.000519329 -0.000412991 4.53908e-06)
(-0.000278097 -0.000263074 2.432e-06)
(-0.00011272 -0.000121922 9.8694e-07)
(-2.00396e-05 -9.48264e-06 1.76524e-07)
(5.38556e-06 3.9513e-05 -4.60794e-08)
(-0.0286921 -0.00864142 0.00025048)
(-0.0263285 -0.00760816 0.000229847)
(-0.0241233 -0.00671468 0.000210597)
(-0.0220692 -0.00594376 0.000192666)
(-0.0201578 -0.00527979 0.000175981)
(-0.0183799 -0.00470866 0.00016046)
(-0.0167259 -0.00421773 0.000146022)
(-0.0151864 -0.00379563 0.000132583)
(-0.0137523 -0.00343228 0.000120064)
(-0.0124148 -0.00311856 0.000108388)
(-0.0111657 -0.00284636 9.74838e-05)
(-0.00999783 -0.00260841 8.72886e-05)
(-0.00890466 -0.00239823 7.77455e-05)
(-0.00788087 -0.00221006 6.88083e-05)
(-0.0069218 -0.00203872 6.04358e-05)
(-0.00602395 -0.00187963 5.25979e-05)
(-0.00518493 -0.00172878 4.52734e-05)
(-0.00440327 -0.00158264 3.84495e-05)
(-0.00367854 -0.00143818 3.21226e-05)
(-0.00301112 -0.00129278 2.62958e-05)
(-0.00240239 -0.00114427 2.09813e-05)
(-0.00185455 -0.000990938 1.61983e-05)
(-0.00137052 -0.000831583 1.19722e-05)
(-0.000953761 -0.000665865 8.33307e-06)
(-0.000608489 -0.000494959 5.31789e-06)
(-0.000338293 -0.000323167 2.95795e-06)
(-0.000147316 -0.000160288 1.28936e-06)
(-3.38025e-05 -2.77901e-05 2.97079e-07)
(4.42205e-06 3.66639e-05 -3.53569e-08)
(-0.0291259 -0.00926094 0.000254266)
(-0.0268377 -0.00820318 0.000234291)
(-0.0246867 -0.00728092 0.000215515)
(-0.0226691 -0.00647913 0.000197903)
(-0.0207793 -0.00578376 0.000181406)
(-0.0190108 -0.00518183 0.000165968)
(-0.0173561 -0.00466142 0.000151523)
(-0.0158078 -0.00421162 0.000138008)
(-0.0143584 -0.00382252 0.000125355)
(-0.0130003 -0.00348504 0.000113499)
(-0.0117266 -0.00319095 0.00010238)
(-0.0105308 -0.00293281 9.19412e-05)
(-0.00940719 -0.00270386 8.21327e-05)
(-0.00835111 -0.00249806 7.29135e-05)
(-0.00735835 -0.00230989 6.42471e-05)
(-0.00642586 -0.00213448 5.61068e-05)
(-0.0055516 -0.00196751 4.84747e-05)
(-0.00473439 -0.00180516 4.13405e-05)
(-0.00397408 -0.00164415 3.47029e-05)
(-0.00327125 -0.00148165 2.8567e-05)
(-0.00262749 -0.00131529 2.29468e-05)
(-0.0020452 -0.00114323 1.7863e-05)
(-0.00152747 -0.000964168 1.33427e-05)
(-0.00107797 -0.0007777 9.41786e-06)
(-0.000701278 -0.000585039 6.12839e-06)
(-0.000401519 -0.000390683 3.51035e-06)
(-0.000183959 -0.000205004 1.60965e-06)
(-4.84824e-05 -5.07467e-05 4.2566e-07)
(3.39382e-06 3.18172e-05 -2.39085e-08)
(-0.0294005 -0.00980552 0.000256663)
(-0.0271992 -0.00873781 0.000237447)
(-0.0251148 -0.00779917 0.000219252)
(-0.0231462 -0.00697695 0.000202068)
(-0.0212905 -0.00625891 0.000185868)
(-0.0195434 -0.00563342 0.000170617)
(-0.0178996 -0.0050895 0.000156267)
(-0.0163533 -0.00461688 0.000142769)
(-0.0148985 -0.00420604 0.00013007)
(-0.0135291 -0.00384806 0.000118116)
(-0.0122391 -0.00353476 0.000106855)
(-0.0110231 -0.00325858 9.62391e-05)
(-0.00987605 -0.0030126 8.62258e-05)
(-0.00879394 -0.00279057 7.67794e-05)
(-0.00777312 -0.0025867 6.7868e-05)
(-0.00681098 -0.00239585 5.9469e-05)
(-0.00590588 -0.00221344 5.15677e-05)
(-0.00505696 -0.0020354 4.41566e-05)
(-0.00426433 -0.00185823 3.7237e-05)
(-0.00352884 -0.00167888 3.08161e-05)
(-0.00285226 -0.00149485 2.49094e-05)
(-0.00223719 -0.00130413 1.95395e-05)
(-0.00168687 -0.00110533 1.47347e-05)
(-0.00120522 -0.000897983 1.05292e-05)
(-0.000797149 -0.000683275 6.96577e-06)
(-0.000467379 -0.000465797 4.08574e-06)
(-0.000222408 -0.000256326 1.94571e-06)
(-6.39773e-05 -7.8597e-05 5.61373e-07)
(2.30819e-06 2.4849e-05 -1.18165e-08)
(-0.0295387 -0.0102745 0.000257868)
(-0.0274319 -0.00921009 0.000239478)
(-0.025423 -0.00826662 0.000221942)
(-0.0235132 -0.00743392 0.000205271)
(-0.0217015 -0.0067017 0.000189456)
(-0.0199858 -0.00605983 0.000174479)
(-0.0183625 -0.00549844 0.000160309)
(-0.0168275 -0.00500806 0.000146909)
(-0.0153763 -0.00457969 0.00013424)
(-0.0140038 -0.00420471 0.000122259)
(-0.0127052 -0.00387508 0.000110923)
(-0.0114759 -0.00358325 0.000100192)
(-0.0103119 -0.00332223 9.00303e-05)
(-0.00920956 -0.00308558 8.04078e-05)
(-0.00816596 -0.00286735 7.12975e-05)
(-0.00717891 -0.00266215 6.2681e-05)
(-0.00624718 -0.00246518 5.45473e-05)
(-0.00537024 -0.00227217 4.68917e-05)
(-0.00454851 -0.0020794 3.97181e-05)
(-0.00378306 -0.00188366 3.30356e-05)
(-0.00307586 -0.00168227 2.68617e-05)
(-0.0024297 -0.00147314 2.12204e-05)
(-0.001848 -0.00125476 1.61417e-05)
(-0.00133487 -0.00102656 1.16614e-05)
(-0.000895593 -0.000789672 7.82561e-06)
(-0.000535516 -0.000548647 4.68102e-06)
(-0.000262456 -0.000314472 2.29575e-06)
(-8.02087e-05 -0.000111559 7.03532e-07)
(1.16754e-06 1.56507e-05 8.84997e-10)
(-0.0295608 -0.0106689 0.000258061)
(-0.0275532 -0.00961958 0.000240537)
(-0.025626 -0.00868183 0.000223713)
(-0.023782 -0.00784792 0.000207617)
(-0.0220222 -0.00710959 0.000192255)
(-0.0203459 -0.00645831 0.000177622)
(-0.0187513 -0.00588543 0.000163702)
(-0.0172355 -0.00538237 0.00015047)
(-0.0157954 -0.00494077 0.000137899)
(-0.0144271 -0.00455243 0.000125954)
(-0.0131267 -0.00420954 0.000114603)
(-0.0118906 -0.00390464 0.000103812)
(-0.0107154 -0.00363073 9.35532e-05)
(-0.00959834 -0.00338128 8.38017e-05)
(-0.00853688 -0.00315019 7.45356e-05)
(-0.00752939 -0.00293191 6.57407e-05)
(-0.00657502 -0.00272144 5.74094e-05)
(-0.00567361 -0.00251433 4.95402e-05)
(-0.00482587 -0.00230669 4.21395e-05)
(-0.00403309 -0.00209515 3.52186e-05)
(-0.00329747 -0.00187691 2.87966e-05)
(-0.00262195 -0.00164978 2.28991e-05)
(-0.00201013 -0.00141212 1.75574e-05)
(-0.00146631 -0.00116326 1.28092e-05)
(-0.00099614 -0.0009042 8.7038e-06)
(-0.000605612 -0.000639328 5.29339e-06)
(-0.000303929 -0.000379627 2.65823e-06)
(-9.71194e-05 -0.000149826 8.51636e-07)
(-2.98206e-08 4.12289e-06 1.42029e-08)
(-0.0294851 -0.0109909 0.0002574)
(-0.0275788 -0.00996705 0.000240759)
(-0.025737 -0.00904443 0.000224682)
(-0.0239639 -0.0082178 0.000209204)
(-0.0222618 -0.00748091 0.000194346)
(-0.0206313 -0.00682686 0.000180113)
(-0.019072 -0.00624827 0.000166501)
(-0.0175821 -0.00573755 0.000153496)
(-0.0161597 -0.00528705 0.000141079)
(-0.0148019 -0.00488905 0.000129226)
(-0.0135059 -0.00453606 0.000117912)
(-0.0122687 -0.00422079 0.000107112)
(-0.0110877 -0.00393628 9.68027e-05)
(-0.00996077 -0.00367599 8.69656e-05)
(-0.00888602 -0.0034337 7.75835e-05)
(-0.00786224 -0.00320375 6.86465e-05)
(-0.00688901 -0.00298098 6.01506e-05)
(-0.00596651 -0.00276079 5.20973e-05)
(-0.00509572 -0.00253915 4.44955e-05)
(-0.0042782 -0.00231256 3.73586e-05)
(-0.00351633 -0.00207813 3.07074e-05)
(-0.00281321 -0.00183353 2.45689e-05)
(-0.00217259 -0.00157705 1.89759e-05)
(-0.00159897 -0.00130788 1.39677e-05)
(-0.00109835 -0.00102679 9.5965e-06)
(-0.000677379 -0.000737896 5.92035e-06)
(-0.000346683 -0.000451937 3.03189e-06)
(-0.000114672 -0.000193569 1.00536e-06)
(-1.28956e-06 -9.82865e-06 2.81834e-08)
(-0.0293275 -0.0112438 0.000256024)
(-0.0275226 -0.0102541 0.000240269)
(-0.0257682 -0.00935492 0.000224954)
(-0.0240693 -0.00854321 0.000210124)
(-0.0224292 -0.0078147 0.000195807)
(-0.0208495 -0.0071641 0.000182017)
(-0.0193307 -0.00658534 0.000168759)
(-0.0178723 -0.00607183 0.000156028)
(-0.0164731 -0.00561667 0.000143814)
(-0.0151313 -0.00521273 0.000132101)
(-0.0138448 -0.00485285 0.000120871)
(-0.0126116 -0.00452999 0.000110106)
(-0.0114296 -0.00423729 9.97879e-05)
(-0.0102974 -0.00396821 8.99045e-05)
(-0.0092136 -0.00371651 8.04431e-05)
(-0.00817741 -0.00347641 7.13978e-05)
(-0.00718885 -0.00324267 6.27681e-05)
(-0.00624844 -0.00301055 5.45585e-05)
(-0.00535746 -0.00277591 4.67805e-05)
(-0.00451769 -0.00253515 3.94494e-05)
(-0.0037317 -0.00228528 3.25877e-05)
(-0.00300275 -0.0020239 2.62238e-05)
(-0.00233472 -0.00174919 2.03917e-05)
(-0.00173231 -0.00146016 1.51321e-05)
(-0.00120182 -0.00115733 1.05001e-05)
(-0.00075056 -0.00084437 6.55964e-06)
(-0.000390598 -0.00053152 3.41569e-06)
(-0.00013285 -0.000242938 1.16455e-06)
(-2.6215e-06 -2.62954e-05 4.29136e-08)
(-0.0291019 -0.011431 0.000254053)
(-0.0273972 -0.0104831 0.000239173)
(-0.0257307 -0.00961446 0.000224626)
(-0.0241078 -0.00882444 0.00021046)
(-0.0225325 -0.00811061 0.000196709)
(-0.0210072 -0.00746922 0.000183394)
(-0.0195331 -0.00689549 0.000170526)
(-0.0181106 -0.00638385 0.000158108)
(-0.0167393 -0.0059282 0.000146138)
(-0.0154182 -0.00552197 0.000134605)
(-0.0141459 -0.00515842 0.000123499)
(-0.0129211 -0.00483078 0.000112808)
(-0.0117425 -0.00453233 0.000102519)
(-0.010609 -0.00425661 9.26245e-05)
(-0.00951993 -0.00399735 8.31172e-05)
(-0.0084749 -0.00374875 7.39946e-05)
(-0.00747429 -0.00350546 6.52599e-05)
(-0.00651898 -0.00326266 5.69203e-05)
(-0.00561052 -0.00301612 4.89896e-05)
(-0.00475091 -0.00276217 4.14854e-05)
(-0.0039429 -0.00249774 3.44316e-05)
(-0.0031899 -0.00222037 2.78578e-05)
(-0.00249592 -0.00192813 2.17991e-05)
(-0.0018658 -0.00161984 1.62978e-05)
(-0.00130615 -0.00129568 1.14114e-05)
(-0.00082492 -0.000958726 7.20922e-06)
(-0.00043558 -0.000618458 3.80881e-06)
(-0.000151652 -0.00029807 1.3292e-06)
(-4.03964e-06 -4.53691e-05 5.85212e-08)
(-0.0288202 -0.0115568 0.000251595)
(-0.0272136 -0.0106566 0.00023757)
(-0.0256343 -0.00982467 0.000223785)
(-0.0240882 -0.00906227 0.000210288)
(-0.0225795 -0.00836875 0.000197118)
(-0.021111 -0.00774185 0.0001843)
(-0.0196848 -0.00717801 0.00017185)
(-0.0183017 -0.00667267 0.000159776)
(-0.0169621 -0.00622051 0.000148082)
(-0.0156655 -0.00581555 0.000136764)
(-0.0144114 -0.00545151 0.000125816)
(-0.0131989 -0.00512191 0.000115232)
(-0.0120273 -0.0048202 0.000105005)
(-0.0108963 -0.00454002 9.51322e-05)
(-0.0098054 -0.00427514 8.56091e-05)
(-0.00875477 -0.00401972 7.64377e-05)
(-0.00774516 -0.00376839 6.76244e-05)
(-0.00677775 -0.00351624 5.91792e-05)
(-0.00585437 -0.003259 5.11184e-05)
(-0.00497724 -0.00299293 4.34613e-05)
(-0.00414927 -0.00271492 3.62333e-05)
(-0.00337401 -0.00242245 2.94652e-05)
(-0.00265557 -0.00211348 2.31931e-05)
(-0.00199894 -0.00178661 1.74604e-05)
(-0.00141099 -0.00144165 1.23269e-05)
(-0.000900245 -0.0010809 7.86721e-06)
(-0.000481555 -0.000712802 4.21059e-06)
(-0.000171097 -0.000359086 1.49948e-06)
(-5.5625e-06 -6.71452e-05 7.51782e-08)
(-0.028493 -0.0116251 0.000248738)
(-0.0269814 -0.0107776 0.000235543)
(-0.025488 -0.0099875 0.000222507)
(-0.0240184 -0.00925786 0.000209678)
(-0.022577 -0.00858966 0.000197097)
(-0.0211672 -0.00798202 0.000184789)
(-0.019791 -0.00743256 0.000172777)