/*--------------------------------*- C++ -*----------------------------------*\
| =========                 |                                                 |
| \\      /  F ield         | OpenFOAM: The Open Source CFD Toolbox           |
|  \\    /   O peration     | Version:  v2012                                 |
|   \\  /    A nd           | Website:  www.openfoam.com                      |
|    \\/     M anipulation  |                                                 |
\*---------------------------------------------------------------------------*/
FoamFile
{
    version     2.0;
    format      ascii;
    class       volVectorField;
    location    "0.25";
    object      U;
}
// * * * * * * * * * * * * * * * * * * * * * * * * * * * * * * * * * * * * * //

dimensions      [0 1 -1 0 0 0 0];


internalField   nonuniform List<vector> 
3332
(
(-1.7644e-06 -0.000228633 1.5456e-08)
(1.92467e-05 -0.00135042 -1.68261e-07)
(0.000111649 -0.00343316 -9.74677e-07)
(0.000303917 -0.00629292 -2.65247e-06)
(0.000642589 -0.00982859 -5.60779e-06)
(0.0011584 -0.0139203 -1.01093e-05)
(0.00186877 -0.0184794 -1.6308e-05)
(0.00280307 -0.0234231 -2.44616e-05)
(2.06721e-07 -0.000250728 -1.68074e-09)
(2.08934e-05 -0.00148592 -1.82297e-07)
(0.000126047 -0.00378611 -1.10058e-06)
(0.00035082 -0.00694839 -3.06194e-06)
(0.000743064 -0.0108472 -6.4853e-06)
(0.0013465 -0.01536 -1.17506e-05)
(0.00216134 -0.0203741 -1.88615e-05)
(0.00322829 -0.025785 -2.81731e-05)
(0.00458094 -0.0314721 -3.99772e-05)
(0.00621799 -0.0373386 -5.42639e-05)
(0.0081304 -0.0432616 -7.09533e-05)
(0.0103206 -0.0491419 -9.00668e-05)
(0.0127703 -0.0548566 -0.000111446)
(0.0154437 -0.0603173 -0.000134778)
(0.0183101 -0.0654215 -0.000159794)
(-1.42108e-07 -0.000279379 1.32906e-09)
(2.46733e-05 -0.00165297 -2.15154e-07)
(0.00014347 -0.00420208 -1.25214e-06)
(0.000400243 -0.00770843 -3.4929e-06)
(0.000853037 -0.0120215 -7.44453e-06)
(0.00154622 -0.0170102 -1.34941e-05)
(0.00248941 -0.0225435 -2.17252e-05)
(0.00371931 -0.0284842 -3.24581e-05)
(0.00526808 -0.0347088 -4.59738e-05)
(0.00713032 -0.0410895 -6.22259e-05)
(0.00929433 -0.0474967 -8.11111e-05)
(0.011758 -0.053809 -0.000102611)
(0.0145003 -0.0599005 -0.000126544)
(0.0174705 -0.0656675 -0.000152465)
(0.0206388 -0.0710044 -0.000180117)
(-4.22981e-07 -0.000309157 3.77593e-09)
(2.82415e-05 -0.0018376 -2.46287e-07)
(0.000168448 -0.00467967 -1.47014e-06)
(0.000471337 -0.00858469 -4.11338e-06)
(0.000995548 -0.0133807 -8.68838e-06)
(0.00179413 -0.0189114 -1.56576e-05)
(0.00288901 -0.0250285 -2.52125e-05)
(0.00431049 -0.0315681 -3.76174e-05)
(0.00607743 -0.0383888 -5.3037e-05)
(0.00819574 -0.0453408 -7.15239e-05)
(0.010648 -0.0522809 -9.2924e-05)
(0.0134279 -0.0590639 -0.000117185)
(0.0165001 -0.0655587 -0.000143996)
(0.0198057 -0.0716438 -0.000172846)
(0.023309 -0.0772084 -0.00020342)
(-8.31101e-07 -0.000348511 7.28479e-09)
(3.26239e-05 -0.00206413 -2.84437e-07)
(0.000194475 -0.00524603 -1.69696e-06)
(0.000547571 -0.00961385 -4.77841e-06)
(0.00115981 -0.0149684 -1.01216e-05)
(0.00208559 -0.0211244 -1.82008e-05)
(0.00335656 -0.0279013 -2.92925e-05)
(0.00500382 -0.0351236 -4.3668e-05)
(0.00703569 -0.0426112 -6.14e-05)
(0.0094539 -0.050197 -8.25037e-05)
(0.0122395 -0.057714 -0.000106813)
(0.0153771 -0.0650028 -0.000134195)
(0.0188209 -0.0719175 -0.000164251)
(0.0225033 -0.0783236 -0.000196388)
(0.0263745 -0.084105 -0.000230174)
(-1.99863e-06 -0.00038895 1.75815e-08)
(3.8207e-05 -0.00231714 -3.33282e-07)
(0.000234626 -0.00589964 -2.04761e-06)
(0.000650778 -0.0108117 -5.67898e-06)
(0.00136959 -0.0168172 -1.19523e-05)
(0.00245681 -0.0236965 -2.14403e-05)
(0.00393401 -0.0312336 -3.43315e-05)
(0.00583767 -0.0392258 -5.09449e-05)
(0.00817703 -0.0474635 -7.13602e-05)
(0.0109427 -0.0557502 -9.54964e-05)
(0.0141113 -0.0638966 -0.000123149)
(0.0176556 -0.0717239 -0.000154081)
(0.0215193 -0.0790715 -0.0001878)
(0.0256196 -0.0857952 -0.000223586)
(0.0298943 -0.0917735 -0.000260892)
(-2.65999e-06 -0.000444612 2.33388e-08)
(4.49625e-05 -0.00263232 -3.92147e-07)
(0.00027474 -0.00668609 -2.39742e-06)
(0.000766578 -0.0122362 -6.68921e-06)
(0.00161586 -0.0189985 -1.41011e-05)
(0.00289232 -0.0267135 -2.52405e-05)
(0.00461978 -0.0351262 -4.03159e-05)
(0.00683171 -0.0439914 -5.96194e-05)
(0.00953428 -0.0530693 -8.32051e-05)
(0.0127092 -0.0621278 -0.000110913)
(0.0163206 -0.0709529 -0.00014243)
(0.0203303 -0.0793472 -0.000177422)
(0.0246641 -0.0871348 -0.000215246)
(0.0292271 -0.0941627 -0.000255068)
(0.0339425 -0.100303 -0.000296224)
(-3.45387e-06 -0.000500951 3.02086e-08)
(5.56821e-05 -0.00298851 -4.85734e-07)
(0.000330115 -0.00760689 -2.88047e-06)
(0.000920689 -0.0139146 -8.03424e-06)
(0.00193464 -0.0215697 -1.68829e-05)
(0.00344233 -0.0302592 -3.00402e-05)
(0.00546756 -0.0396778 -4.77139e-05)
(0.00804303 -0.0495336 -7.01906e-05)
(0.0111712 -0.0595473 -9.74904e-05)
(0.0148233 -0.0694527 -0.000129362)
(0.0189431 -0.079007 -0.000165316)
(0.0234767 -0.0879949 -0.000204882)
(0.028337 -0.0962245 -0.000247299)
(0.0334107 -0.103532 -0.000291581)
(0.0386051 -0.109788 -0.000336914)
(-4.46695e-06 -0.000581935 3.89619e-08)
(6.61792e-05 -0.00344364 -5.77403e-07)
(0.000394292 -0.00873404 -3.4403e-06)
(0.00110455 -0.0159345 -9.6384e-06)
(0.00231507 -0.0246376 -2.02026e-05)
(0.00410267 -0.0344617 -3.58025e-05)
(0.00649212 -0.0450351 -5.66552e-05)
(0.00950714 -0.0560125 -8.29672e-05)
(0.0131389 -0.0670687 -0.000114662)
(0.0173458 -0.0779007 -0.000151376)
(0.022048 -0.0882326 -0.000192414)
(0.0271754 -0.097828 -0.000237161)
(0.0326239 -0.106483 -0.000284714)
(0.0382609 -0.11403 -0.000333909)
(0.0439715 -0.120335 -0.000383752)
(-4.70374e-06 -0.000662726 4.12899e-08)
(8.60092e-05 -0.00396025 -7.50144e-07)
(0.000485318 -0.0100678 -4.23448e-06)
(0.00134729 -0.0183474 -1.17566e-05)
(0.00280323 -0.0282946 -2.44623e-05)
(0.00494095 -0.0394425 -4.3118e-05)
(0.00777366 -0.0513442 -6.78386e-05)
(0.0113089 -0.0635909 -9.86915e-05)
(0.0155289 -0.0758053 -0.000135519)
(0.0203787 -0.0876417 -0.000177845)
(0.0257526 -0.0987942 -0.000224743)
(0.0315492 -0.109003 -0.000275334)
(0.0376465 -0.118056 -0.000328546)
(0.043894 -0.125779 -0.000383074)
(0.0501563 -0.132048 -0.000437727)
(-6.36041e-06 -0.000784659 5.55968e-08)
(0.000102287 -0.00464182 -8.92338e-07)
(0.000591394 -0.0117364 -5.15991e-06)
(0.00164854 -0.0213051 -1.43851e-05)
(0.00341031 -0.0327177 -2.97599e-05)
(0.00597079 -0.0454066 -5.21046e-05)
(0.00933696 -0.058834 -8.14816e-05)
(0.0134971 -0.0725146 -0.000117787)
(0.018414 -0.0860078 -0.000160698)
(0.0240099 -0.0989227 -0.000209534)
(0.0301465 -0.110925 -0.000263091)
(0.0366981 -0.121734 -0.000320267)
(0.0435157 -0.131127 -0.000379772)
(0.0504261 -0.138937 -0.000440079)
(0.0572698 -0.145051 -0.000499815)
(-8.38014e-06 -0.000904964 7.31785e-08)
(0.000132161 -0.00542123 -1.15297e-06)
(0.000744574 -0.0137361 -6.4963e-06)
(0.00205301 -0.0248784 -1.7915e-05)
(0.00421082 -0.0380507 -3.67455e-05)
(0.00729509 -0.0525488 -6.36616e-05)
(0.0113056 -0.0677261 -9.86611e-05)
(0.0162087 -0.083012 -0.000141452)
(0.021944 -0.097904 -0.000191504)
(0.0283995 -0.111964 -0.000247844)
(0.0354044 -0.124829 -0.000308975)
(0.0427986 -0.136201 -0.000373512)
(0.0504036 -0.145856 -0.000439881)
(0.058018 -0.153637 -0.000506343)
(0.0654635 -0.159451 -0.00057132)
(-1.13151e-05 -0.00109832 9.86905e-08)
(0.000160739 -0.00649074 -1.40213e-06)
(0.000927795 -0.0163099 -8.09468e-06)
(0.00255633 -0.0293385 -2.23066e-05)
(0.00520191 -0.0445999 -4.53943e-05)
(0.00893464 -0.0612107 -7.79686e-05)
(0.0137318 -0.0783865 -0.000119835)
(0.0195226 -0.0954651 -0.000170371)
(0.0262136 -0.111873 -0.000228767)
(0.0336581 -0.127124 -0.000293734)
(0.0416437 -0.140834 -0.000363431)
(0.0499767 -0.152693 -0.000436153)
(0.0584374 -0.162487 -0.000510002)
(0.0667995 -0.170075 -0.000582977)
(0.0748613 -0.175392 -0.000653351)
(-1.81214e-05 -0.00128939 1.58648e-07)
(0.00020872 -0.00773351 -1.8214e-06)
(0.00122488 -0.0194433 -1.06891e-05)
(0.0032667 -0.0348161 -2.8506e-05)
(0.00652278 -0.0525817 -5.69209e-05)
(0.0110739 -0.0716521 -9.66388e-05)
(0.0168261 -0.0910959 -0.000146837)
(0.0236648 -0.11015 -0.000206521)
(0.031471 -0.128174 -0.000274646)
(0.0400442 -0.14464 -0.000349471)
(0.0491259 -0.159151 -0.000428726)
(0.0584833 -0.171392 -0.0005104)
(0.0678585 -0.181171 -0.000592216)
(0.0769935 -0.188367 -0.000671958)
(0.0856642 -0.192959 -0.000747623)
(-2.43885e-05 -0.00161295 2.13192e-07)
(0.000266964 -0.00948503 -2.32932e-06)
(0.00156458 -0.0235548 -1.3653e-05)
(0.00414894 -0.041779 -3.62042e-05)
(0.00819311 -0.062506 -7.14977e-05)
(0.0137361 -0.0844278 -0.000119871)
(0.0206343 -0.106439 -0.000180073)
(0.0287144 -0.127659 -0.000250587)
(0.0378073 -0.147383 -0.000329947)
(0.047661 -0.16505 -0.000415939)
(0.0579631 -0.180256 -0.000505859)
(0.0684379 -0.192704 -0.000597269)
(0.078786 -0.202231 -0.0006876)
(0.0887254 -0.208759 -0.000774335)
(0.0979911 -0.212319 -0.000855229)
(-3.29364e-05 -0.00193947 2.87703e-07)
(0.000376611 -0.0115881 -3.28606e-06)
(0.00208097 -0.0286884 -1.81591e-05)
(0.00539297 -0.0504421 -4.7062e-05)
(0.0104588 -0.0747086 -9.12705e-05)
(0.0172217 -0.0999041 -0.00015029)
(0.0254989 -0.124756 -0.000222524)
(0.035035 -0.148285 -0.000305751)
(0.0456106 -0.169745 -0.000398043)
(0.0569048 -0.188546 -0.000496621)
(0.0685494 -0.204306 -0.000598239)
(0.0802196 -0.216746 -0.000700109)
(0.0915757 -0.225752 -0.000799206)
(0.102301 -0.231301 -0.000892846)
(0.112109 -0.233502 -0.000978421)
(-4.74472e-05 -0.00252176 4.1407e-07)
(0.000502061 -0.0146633 -4.3807e-06)
(0.00274299 -0.0355962 -2.39363e-05)
(0.00699408 -0.0616141 -6.10335e-05)
(0.0133154 -0.0900422 -0.0001162)
(0.0215553 -0.118996 -0.000188107)
(0.0314526 -0.147007 -0.000274485)
(0.0426689 -0.172999 -0.000372369)
(0.0549229 -0.19619 -0.000479323)
(0.0678212 -0.215991 -0.000591881)
(0.0809245 -0.232053 -0.000706259)
(0.0938754 -0.244152 -0.000819271)
(0.106276 -0.252231 -0.000927533)
(0.11778 -0.256359 -0.00102791)
(0.128069 -0.256731 -0.00111776)
(-5.98178e-05 -0.00313093 5.21773e-07)
(0.000754868 -0.0184585 -6.58679e-06)
(0.00376785 -0.0443417 -3.28793e-05)
(0.00925226 -0.0756213 -8.07404e-05)
(0.0171427 -0.108911 -0.000149599)
(0.0271749 -0.14203 -0.000237152)
(0.0390115 -0.173401 -0.000340447)
(0.0521881 -0.201881 -0.000455452)
(0.0663525 -0.226712 -0.00057906)
(0.0810312 -0.247312 -0.000707189)
(0.0957163 -0.263402 -0.000835332)
(0.110003 -0.274798 -0.000960058)
(0.123446 -0.281551 -0.00107735)
(0.135651 -0.283803 -0.00118393)
(0.146295 -0.281881 -0.00127678)
(-9.40384e-05 -0.00426172 8.20046e-07)
(0.00104579 -0.0241816 -9.1256e-06)
(0.00508422 -0.0563104 -4.43668e-05)
(0.012121 -0.0938809 -0.000105774)
(0.0219137 -0.132776 -0.000191235)
(0.0340283 -0.170581 -0.000296958)
(0.0480532 -0.205593 -0.000419362)
(0.063424 -0.236625 -0.000553499)
(0.0796972 -0.262944 -0.000695543)
(0.0963193 -0.284005 -0.000840588)
(0.112705 -0.299636 -0.000983635)
(0.128404 -0.30973 -0.00112061)
(0.142899 -0.314492 -0.00124719)
(0.155769 -0.314179 -0.00135945)
(0.166655 -0.309277 -0.00145457)
(-0.000138872 -0.00551977 1.2121e-06)
(0.00157718 -0.031401 -1.37624e-05)
(0.00704526 -0.0715163 -6.14797e-05)
(0.0160309 -0.116594 -0.000139896)
(0.0281703 -0.161811 -0.000245836)
(0.042767 -0.204563 -0.000373224)
(0.0593876 -0.243246 -0.000518269)
(0.0773152 -0.276649 -0.00067475)
(0.0960149 -0.304196 -0.000837925)
(0.114803 -0.325344 -0.00100195)
(0.133028 -0.340081 -0.00116096)
(0.150165 -0.348345 -0.00131061)
(0.165627 -0.350542 -0.00144548)
(0.178972 -0.347035 -0.00156207)
(0.18983 -0.338524 -0.00165674)
(-0.000202262 -0.00788973 1.76582e-06)
(0.00223585 -0.0423918 -1.95109e-05)
(0.00946681 -0.0923565 -8.2611e-05)
(0.0207262 -0.146099 -0.000180873)
(0.0355183 -0.198456 -0.000309962)
(0.0529072 -0.246758 -0.000461713)
(0.072388 -0.289392 -0.000631743)
(0.0931245 -0.325145 -0.000812692)
(0.114452 -0.353554 -0.00099888)
(0.135603 -0.37415 -0.00118341)
(0.155811 -0.387118 -0.00135989)
(0.174484 -0.392548 -0.00152275)
(0.190928 -0.391103 -0.00166643)
(0.204692 -0.383324 -0.00178642)
(0.215357 -0.370173 -0.0018797)
(-0.000283206 -0.0106694 2.47644e-06)
(0.0032753 -0.0561508 -2.85845e-05)
(0.0128782 -0.118227 -0.000112402)
(0.0268347 -0.181901 -0.000234181)
(0.0447223 -0.241983 -0.000390287)
(0.0654697 -0.295774 -0.000571361)
(0.0884725 -0.342166 -0.000772088)
(0.11263 -0.379821 -0.000982983)
(0.137133 -0.408659 -0.00119675)
(0.16101 -0.42811 -0.00140527)
(0.183384 -0.4387 -0.00160041)
(0.203543 -0.440553 -0.00177655)
(0.220738 -0.43469 -0.00192644)
(0.234521 -0.421805 -0.00204698)
(0.244473 -0.403224 -0.00213363)
(-0.000338508 -0.0156455 2.95862e-06)
(0.00440197 -0.0762031 -3.84204e-05)
(0.0164023 -0.152494 -0.000143147)
(0.0332958 -0.227623 -0.000290573)
(0.0546948 -0.296621 -0.000477319)
(0.0791739 -0.356988 -0.000690937)
(0.105995 -0.407615 -0.000925071)
(0.133899 -0.447141 -0.00116851)
(0.161824 -0.475721 -0.00141239)
(0.188708 -0.492862 -0.00164684)
(0.213433 -0.499555 -0.00186289)
(0.235243 -0.4961 -0.00205298)
(0.253205 -0.484039 -0.00221008)
(0.266917 -0.46433 -0.00232947)
(0.275914 -0.438763 -0.00240835)
(-0.000343284 -0.0212713 2.99729e-06)
(0.00583546 -0.0997068 -5.09248e-05)
(0.0204587 -0.192903 -0.00017856)
(0.040924 -0.280819 -0.000357138)
(0.0667999 -0.359465 -0.000582952)
(0.0961172 -0.425985 -0.000838858)
(0.128092 -0.480476 -0.00111782)
(0.160857 -0.521028 -0.00140396)
(0.193216 -0.548693 -0.00168614)
(0.223659 -0.56264 -0.00195218)
(0.250942 -0.564594 -0.00218994)
(0.27417 -0.554827 -0.00239311)
(0.292323 -0.535607 -0.00255113)
(0.305104 -0.50803 -0.00266317)
(0.312126 -0.474551 -0.00272405)
(-0.000388978 -0.0301511 3.39265e-06)
(0.0066061 -0.131152 -5.76608e-05)
(0.0241024 -0.244113 -0.000210327)
(0.0484944 -0.348062 -0.000423204)
(0.079381 -0.439027 -0.000692786)
(0.114042 -0.514266 -0.00099518)
(0.1514 -0.573602 -0.00132145)
(0.189406 -0.615167 -0.00165284)
(0.226315 -0.640519 -0.00197541)
(0.260615 -0.649034 -0.00227428)
(0.290582 -0.643438 -0.00253643)
(0.315361 -0.624233 -0.00275211)
(0.333664 -0.594831 -0.00291252)
(0.345389 -0.556539 -0.00301427)
(0.350081 -0.512746 -0.00305586)
(-0.000469523 -0.0377057 4.10085e-06)
(0.00786462 -0.163961 -6.86132e-05)
(0.0287311 -0.301746 -0.000250734)
(0.0582033 -0.423679 -0.00050794)
(0.0958561 -0.527944 -0.000836453)
(0.137918 -0.610279 -0.00120381)
(0.183238 -0.673538 -0.00159895)
(0.228361 -0.714346 -0.00199335)
(0.27156 -0.736399 -0.0023697)
(0.310344 -0.738162 -0.00270901)
(0.343062 -0.724049 -0.00299375)
(0.36856 -0.694192 -0.00321719)
(0.385596 -0.653586 -0.00336506)
(0.394439 -0.603483 -0.00344311)
(0.394735 -0.548523 -0.00344498)
(-0.000399483 -0.0492677 3.47912e-06)
(0.00941063 -0.207647 -8.21235e-05)
(0.0346902 -0.374958 -0.000302712)
(0.0695245 -0.521597 -0.000606647)
(0.114355 -0.644381 -0.000998172)
(0.163913 -0.73924 -0.00143022)
(0.216521 -0.808103 -0.00189012)
(0.268596 -0.847949 -0.0023437)
(0.317381 -0.863776 -0.00277059)
(0.36062 -0.854309 -0.00314681)
(0.395849 -0.826444 -0.00345552)
(0.422126 -0.780136 -0.00368371)
(0.437747 -0.723091 -0.00382124)
(-0.000458189 -0.0615004 3.98262e-06)
(0.0112181 -0.255923 -9.78825e-05)
(0.0407859 -0.457928 -0.000355844)
(0.0838407 -0.628985 -0.000731854)
(0.139875 -0.770356 -0.00122037)
(0.20123 -0.872457 -0.00175678)
(0.266414 -0.944385 -0.0023245)
(0.328695 -0.979457 -0.00286953)
(0.386256 -0.98752 -0.00337033)
(0.434483 -0.965052 -0.00379291)
(0.471879 -0.922781 -0.0041177)
(0.496814 -0.858914 -0.00433694)
(0.507731 -0.785058 -0.00443083)
(-0.000237397 -0.0777458 2.0819e-06)
(0.0112452 -0.316183 -9.81205e-05)
(0.0506326 -0.563095 -0.00044195)
(0.103506 -0.775709 -0.000902976)
(0.171384 -0.946106 -0.00149639)
(0.243163 -1.0665 -0.00212142)
(0.317403 -1.14398 -0.00277119)
(0.387701 -1.17308 -0.00338266)
(0.450865 -1.16738 -0.00393611)
(0.502902 -1.12257 -0.00438814)
(0.541552 -1.05661 -0.0047276)
(0.565184 -0.963591 -0.00493198)
(0.571273 -0.863806 -0.00498699)
(-0.00071265 -0.0913177 6.21463e-06)
(0.0177718 -0.385659 -0.000155079)
(0.0665656 -0.694237 -0.00058072)
(0.131947 -0.938347 -0.00115216)
(0.21613 -1.13018 -0.00188537)
(0.305028 -1.25179 -0.00266333)
(0.399007 -1.32755 -0.00348102)
(0.483515 -1.34268 -0.00422127)
(0.559273 -1.32156 -0.00487973)
(0.615273 -1.25298 -0.00537124)
(0.654663 -1.16444 -0.00571262)
(0.673033 -1.04219 -0.00587538)
(0.666684 -0.918909 -0.00581803)
(0.00128457 -0.122452 -1.12398e-05)
(0.0257334 -0.491478 -0.000224067)
(0.0994504 -0.859777 -0.00086819)
(0.180624 -1.16438 -0.00157533)
(0.277709 -1.39711 -0.00242485)
(0.374581 -1.54501 -0.00326749)
(0.47642 -1.62633 -0.0041594)
(0.567565 -1.62579 -0.00495161)
(0.646624 -1.57908 -0.005645)
(0.703496 -1.46704 -0.00613851)
(0.74241 -1.34312 -0.00648122)
(0.75559 -1.16477 -0.00659391)
(0.736907 -1.00239 -0.00643324)
(0.000686813 -0.16784 -5.65037e-06)
(0.0273425 -0.64337 -0.000236704)
(0.101065 -1.10734 -0.000879606)
(0.193732 -1.42429 -0.00169149)
(0.319268 -1.66111 -0.00278415)
(0.446579 -1.79296 -0.00389898)
(0.590425 -1.8594 -0.00515064)
(0.709828 -1.82945 -0.00619636)
(0.814747 -1.75609 -0.00710924)
(0.870571 -1.60638 -0.00760063)
(0.91329 -1.44997 -0.00797095)
(0.918825 -1.21934 -0.00802211)
(0.86616 -1.02985 -0.00756023)
(0.00509822 -0.201642 -4.44083e-05)
(0.0193787 -0.754323 -0.000167623)
(0.157649 -1.29709 -0.00137385)
(0.31267 -1.72629 -0.0027223)
(0.439007 -2.05324 -0.00383361)
(0.554141 -2.23505 -0.00483303)
(0.703028 -2.30927 -0.00613602)
(0.819616 -2.27238 -0.0071507)
(0.919482 -2.14027 -0.00802874)
(0.967995 -1.89283 -0.00845167)
(1.01693 -1.71885 -0.00888198)
(1.00648 -1.34468 -0.00878805)
(0.920912 -1.1045 -0.0080424)
(0.00196032 -0.246741 -1.69703e-05)
(0.0163192 -1.0131 -0.000146582)
(0.027413 -1.84621 -0.000233494)
(0.161537 -2.22582 -0.00139273)
(0.358049 -2.35688 -0.00312582)
(0.572696 -2.49305 -0.00500613)
(0.797237 -2.53358 -0.00695848)
(1.0125 -2.45734 -0.00883314)
(1.23551 -2.31139 -0.0107899)
(1.19705 -2.05124 -0.010466)
(1.28269 -1.79831 -0.011211)
(1.29693 -1.32738 -0.0113324)
(1.08158 -1.06482 -0.009448)
(-0.00870989 -0.253989 7.60411e-05)
(0.0882213 -0.840439 -0.00076989)
(0.480513 -1.59632 -0.00419792)
(0.937801 -2.44217 -0.00817074)
(0.980068 -3.07239 -0.00855406)
(0.763265 -3.41465 -0.00666917)
(0.950797 -3.53882 -0.00828899)
(1.0918 -3.41203 -0.00952329)
(1.24593 -2.85797 -0.0108959)
(1.27402 -2.28553 -0.0111401)
(1.43482 -2.32329 -0.0125568)
(1.34301 -1.33918 -0.0117489)
(1.04122 -1.05398 -0.00910504)
(0.0103797 -0.250384 -9.05501e-05)
(0.0797745 -0.766341 -0.000695933)
(0.230563 -1.29478 -0.0020134)
(0.457474 -1.91301 -0.0039964)
(0.705902 -2.48602 -0.00615481)
(0.949636 -2.93802 -0.00828694)
(1.2369 -3.19775 -0.01079)
(1.76364 -3.27471 -0.0154192)
(2.19927 -3.04139 -0.0192416)
(1.26301 -2.68315 -0.0110514)
(1.64696 -2.16431 -0.0143752)
(1.99747 -1.16434 -0.0174614)
(1.07258 -0.844494 -0.00938944)
(0.00927164 -0.291868 -8.09471e-05)
(0.0670732 -0.828523 -0.000585379)
(0.17566 -1.23151 -0.00153323)
(0.323529 -1.58461 -0.00282397)
(0.490881 -1.88671 -0.00428204)
(0.652718 -2.08928 -0.00569427)
(0.804035 -2.15111 -0.0070171)
(0.955678 -2.05012 -0.00833711)
(1.08274 -1.80414 -0.00943611)
(1.17711 -1.44374 -0.0102463)
(1.48728 -0.794016 -0.0129803)
(1.50612 -0.249991 -0.0131671)
(0.648074 -0.120429 -0.00566297)
(0.00528596 -0.319778 -4.61589e-05)
(0.0435481 -0.892465 -0.000380019)
(0.114937 -1.25219 -0.00100307)
(0.205542 -1.47254 -0.00179399)
(0.300386 -1.60453 -0.00262195)
(0.382676 -1.6465 -0.00333999)
(0.434289 -1.57584 -0.0037892)
(0.442702 -1.3699 -0.00386266)
(0.374503 -0.998527 -0.00326523)
(0.197549 -0.426713 -0.00172059)
(0.00153447 -0.323628 -1.33886e-05)
(0.0224076 -0.933591 -0.000195563)
(0.0642985 -1.28625 -0.000561156)
(0.116224 -1.44376 -0.00101428)
(0.166633 -1.48076 -0.0014543)
(0.203909 -1.42428 -0.00177933)
(0.217455 -1.27507 -0.00189743)
(0.197473 -1.02808 -0.00172269)
(0.134691 -0.68196 -0.00117468)
(0.032909 -0.257933 -0.000289146)
(-0.000597418 -0.335889 5.26022e-06)
(0.00847212 -0.976147 -7.39934e-05)
(0.0291818 -1.3368 -0.000254613)
(0.0554497 -1.47434 -0.000483943)
(0.0801593 -1.46486 -0.000699506)
(0.0957422 -1.36133 -0.000835544)
(0.0968214 -1.17446 -0.00084477)
(0.0795666 -0.916648 -0.000694204)
(0.0413634 -0.589672 -0.000360646)
(0.00319717 -0.206194 -2.87655e-05)
(-0.00299353 -0.330427 2.61471e-05)
(0.000432095 -0.995694 -3.83214e-06)
(0.0066312 -1.37258 -5.78155e-05)
(0.0177996 -1.51543 -0.000155327)
(0.0296604 -1.49405 -0.000258865)
(0.032295 -1.37198 -0.000281817)
(0.0298352 -1.16762 -0.000260388)
(0.018832 -0.899871 -0.000164269)
(0.00819087 -0.574062 -7.14921e-05)
(-0.000342215 -0.198414 2.913e-06)
(-0.00673032 -0.335897 5.87295e-05)
(-0.00521457 -1.00105 4.5528e-05)
(-0.00635382 -1.389 5.54611e-05)
(-0.00527666 -1.53118 4.60829e-05)
(0.00644285 -1.51178 -5.61755e-05)
(0.00836162 -1.38127 -7.30036e-05)
(0.010395 -1.16914 -9.06927e-05)
(0.0065167 -0.893783 -5.69234e-05)
(0.00255679 -0.566192 -2.23035e-05)
(-0.000724059 -0.196249 6.29944e-06)
(-0.00655877 -0.330064 5.71994e-05)
(-0.0120941 -0.997585 0.000105869)
(-0.0156071 -1.3945 0.000136112)
(-0.00501868 -1.53456 4.39738e-05)
(-0.00337649 -1.51967 2.94226e-05)
(0.00253134 -1.38318 -2.19971e-05)
(0.00490679 -1.16966 -4.28826e-05)
(0.0037718 -0.890725 -3.28664e-05)
(0.00283716 -0.564099 -2.48041e-05)
(-0.000134908 -0.195298 1.1584e-06)
(-0.0069579 -0.33199 6.07614e-05)
(-0.0170142 -0.991195 0.000148575)
(-0.024135 -1.38963 0.0002109)
(-0.0186608 -1.53939 0.000162835)
(-0.0119424 -1.5278 0.000104421)
(0.000152574 -1.39188 -1.41953e-06)
(0.00434629 -1.17577 -3.77953e-05)
(0.00768505 -0.891974 -6.71496e-05)
(0.00521944 -0.562455 -4.55148e-05)
(0.00102029 -0.193255 -9.0757e-06)
(-0.00347415 -0.308268 3.03782e-05)
(-0.0148401 -0.959529 0.000129539)
(-0.0363424 -1.3737 0.000317217)
(-0.0290606 -1.54489 0.000253781)
(-0.0230218 -1.53965 0.000200803)
(-0.0102219 -1.40734 8.9476e-05)
(-0.00401125 -1.18446 3.48627e-05)
(0.00181526 -0.893677 -1.56831e-05)
(0.00233102 -0.556474 -2.04243e-05)
(0.000981351 -0.185926 -8.60971e-06)
(-0.00281927 -0.283504 2.46026e-05)
(-0.0291843 -0.90596 0.000254642)
(-0.055759 -1.33627 0.000486615)
(-0.0540036 -1.53295 0.000471153)
(-0.0503412 -1.54035 0.000439732)
(-0.0432053 -1.41498 0.000376829)
(-0.0386077 -1.19243 0.000337268)
(-0.030045 -0.902292 0.000262091)
(-0.0184528 -0.563073 0.000161226)
(-0.00501166 -0.190051 4.42297e-05)
(0.0292855 -0.213464 -0.000255549)
(0.0494808 -0.798476 -0.000432047)
(0.0155774 -1.2736 -0.000135915)
(-0.0357267 -1.50087 0.000312197)
(-0.0962471 -1.51732 0.000839208)
(-0.148525 -1.39785 0.00129548)
(-0.181413 -1.1845 0.00158064)
(-0.187311 -0.908857 0.00163108)
(-0.15035 -0.585046 0.00130639)
(-0.0838513 -0.216164 0.000723842)
(0.572875 -0.552757 -0.00495384)
(0.866719 -0.96959 -0.00718892)
(0.569224 -1.22551 -0.00437048)
(0.151198 -1.37634 -0.000970677)
(-0.18763 -1.38645 0.0013898)
(-0.413323 -1.29428 0.00265075)
(-0.553325 -1.11848 0.00318514)
(-0.629385 -0.888259 0.00324076)
(-0.608727 -0.607234 0.0025024)
(-0.607432 -0.33809 0.00185206)
(-0.0642396 -5.25068 0.000561211)
(-0.0731259 -2.7616 0.000638697)
(0.0161157 -0.820033 -0.000140963)
(0.00588352 -0.26429 -5.17871e-05)
(0.00775814 -0.279648 -6.74298e-05)
(-0.0279069 -0.378232 0.000243285)
(-0.010176 -0.438131 8.81784e-05)
(-0.0195552 -0.467775 0.000169349)
(0.0419675 -0.619415 -0.000369372)
(0.075262 -1.92242 -0.00066182)
(-0.534082 -0.0424948 0.0046619)
(-0.789282 -0.95084 0.00688928)
(-0.507231 -1.36706 0.00442796)
(-0.150485 -1.40949 0.00131418)
(0.166527 -1.40291 -0.00145271)
(0.344419 -1.31501 -0.00300572)
(0.508224 -1.15837 -0.00443545)
(0.52111 -0.957422 -0.00454816)
(0.637611 -0.680366 -0.00556531)
(0.33167 -0.289578 -0.00292366)
(0.0322575 -0.573771 -0.000281413)
(0.034211 -1.0417 -0.000298429)
(-0.0041924 -1.21834 3.66476e-05)
(0.0261084 -1.26183 -0.000227958)
(0.0610323 -1.23867 -0.000532606)
(0.0822545 -1.16485 -0.00071811)
(0.100244 -1.01874 -0.000875202)
(0.0807696 -0.884306 -0.00070535)
(0.0630957 -0.643707 -0.000551327)
(0.0128163 -0.449583 -0.000112686)
(-0.0280879 -0.285161 0.000245498)
(-0.0524091 -0.949958 0.000457781)
(-0.0338866 -1.35957 0.000295855)
(0.0304649 -1.53559 -0.000265929)
(0.0905093 -1.52653 -0.000789872)
(0.127799 -1.40347 -0.00111544)
(0.157943 -1.1853 -0.00137753)
(0.13528 -0.926166 -0.0011804)
(0.121543 -0.597639 -0.00106058)
(0.0369789 -0.230562 -0.000326808)
(0.00215687 -0.293188 -1.85075e-05)
(0.00632547 -0.913709 -5.49803e-05)
(0.00791468 -1.32647 -6.90779e-05)
(0.0283298 -1.50356 -0.000247387)
(0.0334753 -1.48986 -0.000292181)
(0.0364321 -1.35494 -0.000318153)
(0.0361163 -1.1375 -0.000314544)
(0.0194865 -0.883562 -0.00017006)
(0.0202252 -0.57188 -0.000176504)
(-0.00723005 -0.228846 6.29101e-05)
(-0.00245657 -0.30908 2.17135e-05)
(0.00501633 -0.970716 -4.35428e-05)
(0.0139431 -1.41163 -0.0001216)
(0.0359766 -1.59391 -0.00031409)
(0.043373 -1.56867 -0.000378706)
(0.0449021 -1.4114 -0.000392081)
(0.0477517 -1.17228 -0.000416112)
(0.0299983 -0.88719 -0.000261888)
(0.0303869 -0.560738 -0.000265338)
(-0.00329564 -0.201014 2.9181e-05)
(-0.00271967 -0.292643 2.39266e-05)
(0.00447561 -0.954815 -3.88842e-05)
(0.00706421 -1.40597 -6.16877e-05)
(0.0198964 -1.58552 -0.000173883)
(0.0158652 -1.55532 -0.000138711)
(0.0120012 -1.39034 -0.000104915)
(0.0115613 -1.15525 -0.000100174)
(-0.000118976 -0.869385 1.03645e-06)
(0.0104756 -0.553985 -9.14938e-05)
(-0.00981903 -0.200311 8.59845e-05)
(-0.00279527 -0.307228 2.4687e-05)
(0.00962777 -0.99624 -8.38904e-05)
(0.011947 -1.44966 -0.000104367)
(0.0201057 -1.61986 -0.000175676)
(0.0194561 -1.57797 -0.00016922)
(0.0135465 -1.40336 -0.000118177)
(0.0183272 -1.16218 -0.000160047)
(0.00209298 -0.870453 -1.82213e-05)
(0.0114499 -0.551542 -9.99046e-05)
(-0.00490143 -0.193804 4.27929e-05)
(-0.00142142 -0.304147 1.2583e-05)
(0.00666674 -0.995225 -5.81507e-05)
(0.00515741 -1.45061 -4.51805e-05)
(0.00979279 -1.61392 -8.5736e-05)
(0.00492916 -1.56557 -4.26118e-05)
(-0.000537882 -1.39058 4.53152e-06)
(0.00443257 -1.15151 -3.87983e-05)
(-0.0076579 -0.865595 6.68956e-05)
(0.00617774 -0.547387 -5.39478e-05)
(-0.00646002 -0.194358 5.65465e-05)
(-0.00169134 -0.318604 1.49756e-05)
(0.00603796 -1.01501 -5.27051e-05)
(0.00424482 -1.46861 -3.72665e-05)
(0.00695348 -1.62323 -6.09896e-05)
(0.00178387 -1.56792 -1.5169e-05)
(-0.0048268 -1.39248 4.19765e-05)
(0.00239701 -1.15569 -2.10688e-05)
(-0.00758025 -0.869454 6.61764e-05)
(0.0048328 -0.550971 -4.2197e-05)
(-0.00476174 -0.194755 4.16928e-05)
(-0.00306815 -0.313714 2.69149e-05)
(0.00344123 -1.01305 -2.99533e-05)
(-9.52843e-05 -1.46557 5.92786e-07)
(-0.000328259 -1.61023 2.53567e-06)
(-0.00594593 -1.5568 5.22873e-05)
(-0.0103397 -1.38411 9.00752e-05)
(-0.000860276 -1.15313 7.32676e-06)
(-0.00874998 -0.869113 7.63551e-05)
(0.00394134 -0.550256 -3.44423e-05)
(-0.00461975 -0.194977 4.04297e-05)
(-0.000710456 -0.316608 6.20772e-06)
(0.0025353 -1.02113 -2.2136e-05)
(0.000815153 -1.46802 -7.52278e-06)
(-0.00443186 -1.60445 3.83857e-05)
(-0.0102482 -1.55249 8.98498e-05)
(-0.00839743 -1.3868 7.30988e-05)
(-0.000700977 -1.15935 5.96381e-06)
(-0.00463616 -0.874596 4.0472e-05)
(0.00418662 -0.554491 -3.65802e-05)
(-0.00341781 -0.196741 2.99278e-05)
(-0.000991618 -0.314413 8.58246e-06)
(0.00206706 -1.01478 -1.80836e-05)
(-0.00268819 -1.45729 2.30935e-05)
(-0.00966966 -1.58857 8.41524e-05)
(-0.012248 -1.54679 0.000107347)
(-0.00590596 -1.38795 5.13756e-05)
(0.00445403 -1.16389 -3.90483e-05)
(7.3323e-05 -0.873639 -6.63192e-07)
(0.00577263 -0.552039 -5.04604e-05)
(-0.00279221 -0.194052 2.43862e-05)
(-0.000726764 -0.316241 6.50753e-06)
(0.00184768 -1.0163 -1.61051e-05)
(-0.00336844 -1.44725 2.93036e-05)
(-0.00967826 -1.57953 8.43527e-05)
(-0.00575477 -1.55228 5.0048e-05)
(0.00408542 -1.40139 -3.57979e-05)
(0.0117047 -1.17256 -0.000102264)
(0.00960962 -0.875405 -8.39738e-05)
(0.00634907 -0.549583 -5.54919e-05)
(-0.000831854 -0.192449 7.17385e-06)
(-0.000742897 -0.315927 6.5857e-06)
(0.00047297 -1.01176 -4.15795e-06)
(-0.00765945 -1.42898 6.66731e-05)
(-0.00957388 -1.576 8.33458e-05)
(0.00229003 -1.56538 -2.0119e-05)
(0.0160641 -1.42108 -0.000140283)
(0.0234238 -1.17778 -0.000204552)
(0.0167984 -0.871877 -0.000146741)
(0.00930782 -0.539916 -8.13438e-05)
(-0.000290183 -0.187836 2.33777e-06)
(-5.90839e-05 -0.314886 5.55368e-07)
(-0.000973863 -1.00288 8.42204e-06)
(-0.0090249 -1.41686 7.85708e-05)
(-0.00438562 -1.58737 3.81132e-05)
(0.0164597 -1.59661 -0.00014372)
(0.0323598 -1.4445 -0.000282489)
(0.0336156 -1.18292 -0.000293487)
(0.0235966 -0.862945 -0.000206059)
(0.0106929 -0.526966 -9.34251e-05)
(0.000584541 -0.180587 -5.27327e-06)
(-0.000117488 -0.312886 1.05042e-06)
(-0.00205003 -0.990244 1.78053e-05)
(-0.00862385 -1.41227 7.50993e-05)
(0.00784355 -1.61771 -6.85812e-05)
(0.0341442 -1.63704 -0.000298074)
(0.0459807 -1.4668 -0.000401415)
(0.0402577 -1.18062 -0.000351502)
(0.0255402 -0.848505 -0.00022306)
(0.0106549 -0.510724 -9.31172e-05)
(0.000612637 -0.172375 -5.53546e-06)
(1.41708e-05 -0.3098 -1.15696e-07)
(-0.00233496 -0.981105 2.02966e-05)
(-0.00350751 -1.42507 3.04939e-05)
(0.0261602 -1.66814 -0.000228376)
(0.051489 -1.68246 -0.00044944)
(0.0544763 -1.48103 -0.000475594)
(0.0403683 -1.17171 -0.000352484)
(0.0231519 -0.831352 -0.000202201)
(0.00832397 -0.495933 -7.2751e-05)
(0.000458659 -0.167033 -4.21642e-06)
(3.51331e-05 -0.308859 -3.4851e-07)
(-0.00258072 -0.979874 2.25481e-05)
(0.00622122 -1.46273 -5.43064e-05)
(0.0467621 -1.73467 -0.00040817)
(0.0631498 -1.72145 -0.000551244)
(0.0546357 -1.48301 -0.000477025)
(0.0337065 -1.15376 -0.000294369)
(0.016939 -0.812328 -0.00014794)
(0.00521525 -0.481698 -4.55905e-05)
(0.000439124 -0.160167 -4.01719e-06)
(0.00144453 -0.305632 -1.25427e-05)
(1.5314e-05 -0.991364 6.87334e-09)
(0.0234964 -1.52621 -0.000205003)
(0.0659156 -1.8061 -0.000575323)
(0.0654304 -1.74244 -0.000571251)
(0.0487314 -1.46872 -0.000425525)
(0.0245521 -1.13057 -0.000214432)
(0.00848065 -0.794917 -7.40764e-05)
(0.0022368 -0.471477 -1.95164e-05)
(0.000555452 -0.156253 -4.80576e-06)
(0.0014382 -0.312753 -1.24834e-05)
(0.00292944 -1.02759 -2.54519e-05)
(0.0422605 -1.6146 -0.000368779)
(0.0757014 -1.86985 -0.000660766)
(0.0583478 -1.7422 -0.000509505)
(0.0328756 -1.44384 -0.000287198)