/*--------------------------------*- C++ -*----------------------------------*\
| =========                 |                                                 |
| \\      /  F ield         | OpenFOAM: The Open Source CFD Toolbox           |
|  \\    /   O peration     | Version:  v2012                                 |
|   \\  /    A nd           | Website:  www.openfoam.com                      |
|    \\/     M anipulation  |                                                 |
\*---------------------------------------------------------------------------*/
FoamFile
{
    version     2.0;
    format      ascii;
    class       volScalarField;
    location    "0.85";
    object      alpha.water;
}
// * * * * * * * * * * * * * * * * * * * * * * * * * * * * * * * * * * * * * //

dimensions      [0 0 0 0 0 0 0];


internalField   nonuniform List<scalar> 
2664
(
2.66688e-17
2.20079e-17
1.79716e-17
1.44008e-17
1.12596e-17
8.64327e-18
6.60437e-18
5.03479e-18
3.74085e-18
2.828e-18
2.39742e-18
1.9241e-18
1.06211e-18
-1.25349e-55
2.24298e-31
2.2327e-30
2.12322e-30
4.91233e-29
1.16021e-32
2.69219e-43
2.69475e-43
5.19906e-42
8.1311e-53
9.11812e-53
4.91733e-52
-9.64705e-74
2.99254e-59
2.87304e-63
-3.93598e-101
2.10806e-71
5.91821e-319
-2.59394e-75
-3.18521e-77
-2.88538e-79
-1.49226e-81
-2.37203e-84
-7.29965e-88
3.13982e-17
2.54831e-17
2.05311e-17
1.63495e-17
1.27305e-17
9.67544e-18
7.27096e-18
5.46883e-18
4.03655e-18
2.97477e-18
2.46836e-18
2.03105e-18
1.264e-18
1.44694e-19
1.60463e-31
1.90597e-30
1.77666e-30
2.56619e-28
8.80223e-32
2.69224e-43
2.6923e-43
5.8361e-42
8.1311e-53
8.93647e-53
3.13119e-51
-6.91893e-83
1.87015e-58
1.81661e-62
-6.19363e-159
2.02804e-70
1.4127e-74
-6.00662e-151
3.6431e-84
-2.38884e-83
-3.43979e-85
-1.24192e-87
-6.46414e-91
3.68454e-17
2.96966e-17
2.35199e-17
1.84887e-17
1.43099e-17
1.08e-17
7.99922e-18
5.92128e-18
4.33305e-18
3.13338e-18
2.5326e-18
2.1162e-18
1.42805e-18
3.00341e-19
1.60478e-31
1.66312e-30
2.43041e-30
4.01401e-28
3.23821e-31
2.6923e-43
4.71313e-37
1.48321e-40
8.1311e-53
8.14185e-53
1.55123e-50
2.16533e-56
1.78114e-58
6.41237e-69
1.43695e-65
6.9922e-70
8.16732e-78
8.1676e-78
2.13361e-82
-1.33403e-101
-9.03592e-89
-7.92078e-91
-5.69807e-94
4.25942e-17
3.44737e-17
2.70534e-17
2.09038e-17
1.59985e-17
1.1992e-17
8.77952e-18
6.39243e-18
4.62621e-18
3.29509e-18
2.59267e-18
2.18497e-18
1.55929e-18
4.68463e-19
1.60496e-31
1.06974e-30
2.32267e-30
3.09893e-30
2.3801e-30
2.69235e-43
1.52513e-36
5.88022e-40
8.1311e-53
8.1311e-53
5.87792e-50
3.64204e-57
3.64248e-57
6.41237e-69
6.41237e-69
6.41261e-69
1.49721e-73
1.95122e-81
1.95122e-81
1.46375e-86
-1.0036e-106
-5.45529e-94
-5.00747e-97
4.88976e-17
3.94988e-17
3.10143e-17
2.36661e-17
1.78284e-17
1.32348e-17
9.59338e-18
6.87718e-18
4.91241e-18
3.45105e-18
2.64866e-18
2.24011e-18
1.66331e-18
6.37789e-19
1.60512e-31
6.30963e-31
2.29584e-30
2.61621e-30
8.52685e-30
2.45783e-33
2.05253e-40
2.05206e-40
2.8026e-43
8.1311e-53
1.894e-49
9.16421e-54
2.50326e-64
2.51297e-64
2.47364e-64
2.22894e-76
2.22894e-76
2.22779e-76
3.00022e-81
8.554e-91
8.55398e-91
2.14653e-96
-3.025e-100
5.73671e-17
4.49443e-17
3.51617e-17
2.6711e-17
1.98294e-17
1.45259e-17
1.04209e-17
7.36442e-18
5.18657e-18
3.59367e-18
2.69777e-18
2.28262e-18
1.74498e-18
7.98457e-19
1.60529e-31
4.4119e-31
2.27992e-30
2.45324e-30
2.10654e-29
1.1376e-32
2.05324e-40
3.1363e-39
2.04653e-42
8.1311e-53
4.86185e-49
3.19936e-53
2.50326e-64
2.50326e-64
8.51804e-64
1.33201e-67
2.22894e-76
6.31958e-76
1.70975e-80
8.55401e-91
1.89435e-90
5.96358e-96
3.87623e-102
6.92829e-17
5.18079e-17
3.95337e-17
2.98704e-17
2.19668e-17
1.58658e-17
1.12462e-17
7.83858e-18
5.44087e-18
3.71772e-18
2.73174e-18
2.31266e-18
1.8085e-18
9.21816e-19
2.56843e-20
3.98229e-31
2.21711e-30
2.33103e-30
4.2488e-29
2.72977e-32
2.05383e-40
9.1933e-39
4.93199e-42
8.1311e-53
1.08378e-48
1.21705e-52
2.50326e-64
1.96683e-60
2.43929e-63
2.93447e-71
2.93447e-71
8.22722e-76
4.55511e-85
4.5551e-85
3.29049e-90
9.61677e-96
6.66326e-102
8.18879e-17
6.09162e-17
4.46291e-17
3.30854e-17
2.41393e-17
1.72299e-17
1.20523e-17
8.28281e-18
5.66698e-18
3.81543e-18
2.74223e-18
2.32982e-18
1.8573e-18
1.01019e-18
7.03866e-20
3.9824e-31
2.18852e-30
2.22615e-30
7.28144e-29
5.32886e-32
2.05448e-40
2.02556e-38
1.01636e-41
8.1311e-53
2.13035e-48
3.61582e-52
2.50326e-64
2.39536e-59
7.95127e-63
2.93447e-71
5.81085e-71
2.18644e-75
4.55511e-85
6.66746e-85
4.49884e-90
1.20749e-95
8.45634e-102
9.15807e-17
7.07723e-17
5.09055e-17
3.6525e-17
2.62638e-17
1.85543e-17
1.2814e-17
8.68665e-18
5.85345e-18
3.86801e-18
2.73743e-18
2.33533e-18
1.89415e-18
1.08306e-18
1.1337e-19
3.98251e-31
1.95169e-30
2.12376e-30
1.09404e-28
8.92111e-32
2.0551e-40
3.69906e-38
1.83981e-41
8.1311e-53
3.77272e-48
8.9985e-52
2.50326e-64
8.51875e-59
1.64011e-62
2.93447e-71
8.15203e-71
2.86947e-75
6.21278e-80
7.73214e-85
4.80083e-90
1.16284e-95
8.71021e-102
1.00967e-16
7.89302e-17
5.76984e-17
4.03711e-17
2.8327e-17
1.9771e-17
1.35122e-17
9.03699e-18
5.9685e-18
3.87618e-18
2.73029e-18
2.33575e-18
1.9195e-18
1.14085e-18
1.53947e-19
3.98263e-31
1.81954e-30
2.03539e-30
1.48015e-28
1.31584e-31
2.05573e-40
5.81564e-38
2.97971e-41
8.1311e-53
6.16416e-48
1.94281e-51
2.50326e-64
1.69516e-58
2.30837e-62
2.93448e-71
9.26209e-71
3.05757e-75
6.19048e-80
7.14219e-85
4.01912e-90
8.5819e-96
6.61516e-102
1.20898e-16
8.65369e-17
6.37101e-17
4.4319e-17
3.03662e-17
2.08865e-17
1.4114e-17
9.25903e-18
5.99662e-18
3.86869e-18
2.73662e-18
2.33705e-18
1.93183e-18
1.1788e-18
1.88147e-19
3.98274e-31
1.7876e-30
1.98126e-30
1.83033e-28
1.74139e-31
2.05635e-40
8.07201e-38
4.32749e-41
8.1311e-53
9.46608e-48
3.82515e-51
2.50326e-64
2.14415e-58
2.51575e-62
2.93448e-71
8.66689e-71
2.67828e-75
5.03079e-80
5.26583e-85
2.6108e-90
4.74799e-96
3.39794e-102
1.53695e-16
9.80174e-17
6.87387e-17
4.78795e-17
3.24643e-17
2.18692e-17
1.44573e-17
9.30875e-18
5.98582e-18
3.88191e-18
2.71913e-18
2.33138e-18
1.93493e-18
1.19524e-18
2.09844e-19
3.98286e-31
1.72328e-30
1.96517e-30
2.0559e-28
2.05406e-31
2.05698e-40
9.99245e-38
5.7585e-41
8.1311e-53
1.43318e-47
6.84278e-51
2.50326e-64
2.28836e-58
2.2575e-62
2.93448e-71
6.76536e-71
1.92939e-75
3.29543e-80
3.06076e-85
1.30371e-90
1.93012e-96
1.38668e-102
1.77689e-16
1.14358e-16
7.44845e-17
5.14115e-17
3.42684e-17
2.2355e-17
1.45094e-17
9.27432e-18
5.98549e-18
3.8673e-18
2.68522e-18
2.31546e-18
1.93588e-18
1.19969e-18
2.19654e-19
3.98297e-31
1.67312e-30
2.37682e-30
2.12513e-28
2.16759e-31
2.05761e-40
1.11815e-37
7.10383e-41
8.1311e-53
2.18665e-47
7.44289e-51
2.50326e-64
1.88161e-58
1.71193e-62
1.06539e-66
4.39534e-71
1.14335e-75
1.74352e-80
1.39845e-85
4.91752e-91
5.52028e-97
4.81369e-103
1.76161e-16
1.28211e-16
8.43826e-17
5.4663e-17
3.48561e-17
2.2375e-17
1.44128e-17
9.25301e-18
6.05017e-18
3.78633e-18
2.62382e-18
2.29401e-18
1.92311e-18
1.19307e-18
2.23878e-19
3.98308e-31
1.67204e-30
2.02286e-30
2.0628e-28
2.08893e-31
2.05824e-40
1.15908e-37
8.31327e-41
8.1311e-53
2.24486e-47
6.07301e-51
2.50326e-64
1.28978e-58
1.09122e-62
6.28389e-67
2.36966e-71
5.53301e-76
7.35141e-81
4.92783e-86
1.35095e-91
1.04612e-97
1.51739e-103
1.57214e-16
1.36891e-16
9.23061e-17
5.57797e-17
3.46524e-17
2.2141e-17
1.43372e-17
9.51033e-18
5.91701e-18
3.60238e-18
2.55802e-18
2.26858e-18
1.90278e-18
1.16399e-18
2.12168e-19
3.9832e-31
1.66905e-30
2.09685e-30
1.77083e-28
1.79691e-31
2.05887e-40
1.13061e-37
9.38398e-41
8.1311e-53
1.71379e-47
4.06936e-51
2.50326e-64
7.38123e-59
5.78547e-63
3.05382e-67
1.04111e-71
2.14087e-76
2.40678e-81
1.28781e-86
2.52341e-92
1.26675e-98
4.23409e-104
1.44982e-16
1.43177e-16
9.38552e-17
5.56304e-17
3.43918e-17
2.20015e-17
1.48417e-17
9.21585e-18
5.58611e-18
3.41069e-18
2.49361e-18
2.23836e-18
1.87186e-18
1.11382e-18
1.88233e-19
3.98331e-31
1.67302e-30
2.17689e-30
1.35134e-28
1.38863e-31
2.0595e-40
1.06758e-37
9.01948e-41
8.1311e-53
1.06482e-47
2.20957e-51
2.68377e-55
3.45765e-59
2.49317e-63
1.19399e-67
3.61142e-72
6.36521e-77
5.83209e-82
2.30975e-87
2.90375e-93
1.22089e-99
9.64774e-105
2.3038e-16
1.15645e-16
8.66235e-17
5.62056e-17
3.4418e-17
2.29257e-17
1.43542e-17
8.72267e-18
5.25602e-18
3.18667e-18
2.43173e-18
2.20341e-18
1.82828e-18
1.03924e-18
1.5389e-19
3.98343e-31
1.68042e-30
2.24379e-30
8.93127e-29
9.66362e-32
2.06013e-40
9.02665e-38
5.16476e-41
8.1311e-53
5.03739e-48
9.68456e-52
1.33509e-55
1.29356e-59
8.47858e-64
3.62132e-68
9.49464e-73
1.38308e-77
9.70431e-83
2.55168e-88
2.06147e-94
1.64785e-100
1.51649e-105
3.27131e-16
8.66639e-17
8.66667e-17
5.80526e-17
3.60188e-17
2.22416e-17
1.34944e-17
8.17555e-18
4.8285e-18
2.95051e-18
2.38026e-18
2.16355e-18
1.76798e-18
9.37214e-19
1.13281e-19
3.98354e-31
1.72341e-30
1.72341e-30
5.01346e-29
5.93975e-32
2.06076e-40
4.34882e-38
2.27428e-41
8.1311e-53
1.88881e-48
3.36958e-52
4.26823e-56
3.76382e-60
2.20758e-64
8.22368e-69
1.80507e-73
2.06659e-78
1.0026e-83
1.58586e-89
1.37102e-95
2.53923e-101
8.26798e-107
2.62289e-16
1.41777e-16
8.12191e-17
5.82984e-17
3.61038e-17
2.06252e-17
1.25415e-17
7.49352e-18
4.338e-18
2.73323e-18
2.33653e-18
2.11786e-18
1.68497e-18
8.06179e-19
7.22481e-20
3.98366e-31
3.98377e-31
4.35245e-27
2.34021e-29
2.33806e-36
2.73468e-35
1.83758e-38
5.86831e-46
2.42584e-45
5.52841e-49
9.06629e-53
1.04292e-56
8.24254e-61
4.23307e-65
1.335e-69
2.34178e-74
1.93281e-79
5.67857e-85
6.81517e-91
1.33625e-96
3.56745e-102
-1.22293e-238
2.38407e-16
1.84591e-16
8.99719e-17
5.61501e-17
3.19709e-17
1.90277e-17
1.14758e-17
6.68659e-18
3.82276e-18
2.55804e-18
2.29425e-18
2.06394e-18
1.57111e-18
6.48849e-19
3.73341e-20
3.98377e-31
1.82417e-30
5.17892e-27
1.19085e-29
2.33805e-36
9.66414e-36
5.23272e-39
5.86831e-46
5.8716e-46
1.22804e-49
1.82361e-53
1.87746e-57
1.30073e-61
5.68678e-66
1.45173e-70
1.89491e-75
9.90327e-81
1.84125e-86
3.46565e-92
1.29037e-97
3.80421e-103
-8.79451e-107
3.0568e-16
1.59588e-16
9.06073e-17
4.84362e-17
2.88439e-17
1.73901e-17
1.0187e-17
5.80238e-18
3.33113e-18
2.43592e-18
2.24714e-18
1.99578e-18
1.41595e-18
4.75114e-19
1.34858e-20
3.98388e-31
3.984e-31
2.67572e-27
3.65392e-30
2.33804e-36
2.3382e-36
1.10179e-39
4.05812e-43
1.06047e-46
2.0084e-50
2.65502e-54
2.39407e-58
1.41467e-62
5.05633e-67
9.8172e-72
8.47465e-77
2.56159e-82
5.0863e-88
2.06933e-93
9.55882e-99
-4.18935e-148
-3.96509e-107
1.80938e-16
1.29899e-16
7.79447e-17
4.49463e-17
2.62918e-17
1.52312e-17
8.76801e-18
4.90161e-18
2.91282e-18
2.35894e-18
2.19236e-18
1.90212e-18
1.20921e-18
3.04018e-19
1.77059e-21
3.984e-31
2.59003e-26
5.06637e-28
9.8328e-35
6.75746e-34
4.11159e-37
1.80274e-40
5.89236e-44
1.38676e-47
2.32235e-51
2.6797e-55
2.05839e-59
9.99499e-64
2.75159e-68
3.64573e-73
1.79131e-78
4.35599e-84
1.8156e-89
1.0374e-94
4.61505e-100
1.03276e-106
-7.82666e-108
1.14604e-16
1.14604e-16
7.5721e-17
4.08894e-17
2.24325e-17
1.29649e-17
7.32722e-18
4.04118e-18
2.60902e-18
2.30405e-18
2.1283e-18
1.76553e-18
9.48396e-19
1.59547e-19
5.39854e-31
5.39863e-31
4.12564e-26
9.95772e-29
9.8328e-35
9.83864e-35
5.25117e-38
2.0732e-41
6.05492e-45
1.25226e-48
1.81517e-52
1.77672e-56
1.12047e-60
4.21475e-65
8.10236e-70
6.16063e-75
1.9419e-80
8.56876e-86
5.52733e-91
3.77023e-96
1.78949e-101
3.74973e-108
-4.43823e-109
2.45818e-16
1.01684e-16
5.93215e-17
3.35718e-17
1.89195e-17
1.07442e-17
5.89036e-18
3.30579e-18
2.42761e-18
2.24865e-18
2.04686e-18
1.56224e-18
6.51897e-19
6.48327e-20
5.39854e-31
5.39854e-31
1.01105e-26
1.66676e-29
8.71252e-33
9.79515e-36
4.69609e-39
1.6395e-42
4.17207e-46
7.37098e-50
8.99087e-54
7.1794e-58
3.50373e-62
9.28225e-67
1.03466e-71
4.03758e-77
1.89914e-82
1.54697e-87
1.21726e-92
9.39683e-98
4.70842e-103
8.53166e-110
-7.4622e-111
2.49196e-16
8.64487e-17
4.66731e-17
2.76455e-17
1.54809e-17
8.49934e-18
4.5678e-18
2.77735e-18
2.3307e-18
2.18322e-18
1.92568e-18
1.26929e-18
3.67925e-19
1.88359e-20
5.39854e-31
1.37796e-25
1.10665e-27
1.43127e-30
1.1622e-33
6.65989e-37
2.78016e-40
8.34486e-44
1.78379e-47
2.6173e-51
2.57238e-55
1.57203e-59
5.3398e-64
7.93537e-69
3.17055e-74
1.58277e-79
2.1573e-84
1.83741e-89
1.75268e-94
1.47394e-99
9.16306e-105
1.09036e-110
-5.74163e-113
1.30045e-16
9.04048e-17
4.12125e-17
2.13873e-17
1.19349e-17
6.39941e-18
3.50241e-18
2.47441e-18
2.26338e-18
2.10188e-18
1.72578e-18
8.90322e-19
1.55504e-19
3.76845e-21
2.92729e-25
5.7487e-26
9.58753e-29
8.76599e-32
5.84759e-35
2.86446e-38
1.00532e-41
2.48103e-45
4.31726e-49
4.9933e-53
3.65548e-57
1.48827e-61
2.51092e-66
1.85748e-72
1.20079e-81
1.20068e-81
1.04416e-86
1.31043e-91
1.45188e-96
1.32914e-101
9.07588e-107
4.10349e-112
-2.71687e-115
1.23579e-16
7.77063e-17
2.92915e-17
1.61053e-17
8.77824e-18
4.61131e-18
2.79782e-18
2.32995e-18
2.19252e-18
1.97845e-18
1.39776e-18
4.88688e-19
4.40489e-20
5.83489e-22
2.33331e-24
3.86449e-27
4.06544e-30
3.12987e-33
1.73803e-36
6.92295e-40
1.93845e-43
3.77238e-47
4.96765e-51
4.02709e-55
1.72981e-59
1.97754e-64
-5.02793e-94
-6.02535e-93
1.15605e-79
-2.92025e-213
2.17956e-89
4.03392e-94
5.30265e-99
5.66504e-104
4.56768e-109
1.58745e-114
-6.65422e-118
1.14219e-16
3.91345e-17
2.15803e-17
1.16884e-17
6.02607e-18
3.32819e-18
2.44039e-18
2.24668e-18
2.10329e-18
1.74608e-18
9.26597e-19
1.81831e-19
7.32987e-21
4.82538e-23
9.33281e-26
1.11963e-28
9.50962e-32
5.82189e-35
2.48742e-38
7.52964e-42
1.56105e-45
2.07556e-49
1.55461e-53
3.03483e-58
-4.72049e-87
-3.39153e-143
-4.21601e-98
-6.27843e-90
1.08136e-105
-2.21206e-101
-5.7325e-127
-5.69681e-111
-1.77284e-130
4.48789e-107
8.24259e-112
4.3698e-117
-3.15411e-121
5.56384e-17
3.1206e-17
1.50023e-17
7.59387e-18
3.99944e-18
2.62073e-18
2.28684e-18
2.16574e-18
1.94379e-18
1.31387e-18
4.24867e-19
3.60664e-20
4.86853e-22
1.24903e-24
1.61144e-27
1.42384e-30
8.60006e-34
3.61355e-37
9.92963e-41
1.59839e-44
6.04145e-49
-3.49871e-136
-8.51735e-104
-4.43515e-85
-3.04884e-128
-1.37215e-132
-2.50169e-90
-4.16387e-111
-1.88584e-126
-1.37418e-148
-1.21972e-187
-2.69309e-112
-1.38283e-173
-1.82406e-128
-1.05666e-181
1.44507e-120
-3.05792e-125
4.4054e-17
1.81658e-17
9.15371e-18
4.67682e-18
2.82828e-18
2.32493e-18
2.19651e-18
2.0455e-18
1.58114e-18
6.92333e-19
9.79875e-20
2.44057e-21
8.07675e-24
8.53483e-27
5.57483e-30
1.78164e-33
-3.16447e-100
-1.10703e-65
-2.18301e-68
-2.69611e-103
-5.05779e-76
0
-6.70128e-78
-4.28764e-82
-1.20987e-135
-2.0136e-113
-9.01358e-124
-8.04234e-121
0
-6.87154e-124
-6.05049e-145
0
-9.80139e-122
-1.89902e-127
-4.04629e-131
-3.00597e-137
-3.79726e-130
2.09074e-17
1.03762e-17
5.1337e-18
2.96874e-18
2.3485e-18
2.2067e-18
2.09332e-18
1.72798e-18
8.90421e-19
1.70666e-19
6.17797e-21
1.70757e-23
-4.17045e-82
-6.82492e-98
-5.2037e-57
-2.98393e-87
-5.98335e-88
1.14816e-171
-3.69881e-115
-1.77748e-138
-3.763e-79
-1.85581e-103
-2.85992e-81
-5.78209e-91
1.39055e-130
-4.84472e-90
0
1.90302e-234
-1.38535e-160
0
-1.04265e-136
-9.00234e-188
-6.7414e-125
0
-4.68227e-135
-4.83759e-142
-3.28034e-129
1.06309e-17
5.10102e-18
2.92795e-18
2.32734e-18
2.19731e-18
2.10447e-18
1.7683e-18
9.54396e-19
1.99867e-19
7.461e-21
-6.45305e-49
-1.29269e-51
-6.36193e-53
-4.62007e-110
-1.28684e-81
-1.05706e-98
-4.27799e-61
-3.26403e-120
0
-1.96836e-77
-1.90127e-104
-4.82187e-86
-1.20773e-127
-8.42795e-89
-4.7907e-102
-6.55504e-92
-5.0454e-320
-2.61958e-121
-9.64554e-108
-5.09095e-155
-1.7478e-143
-7.33683e-138
-1.06765e-148
1.65924e-189
0
-9.59789e-129
-6.1849e-132
4.35807e-18
2.63571e-18
2.24589e-18
2.17156e-18
2.07716e-18
1.67662e-18
8.27048e-19
1.40541e-19
2.58752e-21
-7.84915e-48
-5.55243e-51
-5.92111e-81
-1.50505e-77
-1.39712e-53
-3.6033e-79
-8.28392e-61
-2.01647e-64
-3.31378e-111
-9.42432e-77
-4.89677e-111
-6.64701e-85
-4.24865e-89
-1.42704e-93
-1.02054e-111
5.26036e-118
-3.60625e-95
-1.69088e-99
-1.26158e-130
-5.82089e-114
2.37072e-104
5.74489e-109
6.10561e-114
-1.45443e-143
4.23319e-169
7.67976e-320
-1.25311e-130
-4.66234e-135
2.23864e-18
2.16212e-18
2.12873e-18
1.94288e-18
1.33733e-18
4.32235e-19
2.93901e-20
-1.74461e-46
-5.54253e-48
-1.14976e-46
-4.00526e-53
-4.88636e-70
-1.62834e-46
-6.00927e-51
-1.12463e-88
-3.18527e-87
-1.44841e-103
-3.85763e-95
-2.15607e-105
-1.11208e-104
0
0
9.45367e-96
2.08389e-95
-7.02649e-197
-4.44579e-123
-1.59487e-106
1.15297e-203
-1.76768e-138
-3.30504e-119
9.56531e-319
7.99582e-230
3.41681e-182
3.60239e-156
1.0776e-135
-7.853e-134
-1.50993e-138
2.09952e-18
1.99069e-18
1.33469e-18
3.88299e-19
2.06909e-20
-1.59936e-41
-5.33685e-47
-3.66828e-115
-1.43974e-74
0
1.17063e-51
2.36977e-51
1.13387e-51
7.77031e-55
9.36029e-53
2.14749e-56
3.66943e-60
4.70703e-64
4.44771e-68
3.22539e-72
1.91031e-76
7.54812e-81
2.15321e-85
4.6427e-90
8.63487e-95
1.48522e-99
-1.36068e-149
-1.50784e-187
7.16356e-319
-2.16097e-178
-2.59989e-160
5.43994e-140
1.28387e-139
2.17583e-141
1.01525e-136
-1.42084e-137
-1.92985e-142
3.29865e-19
4.70952e-20
2.97121e-22
4.22018e-39
4.22016e-39
4.22069e-39
8.85635e-39
1.74518e-38
1.74517e-38
1.70373e-41
9.87569e-45
4.86766e-48
2.32235e-51
7.04134e-55
2.36119e-58
4.83945e-62
7.36311e-66
8.60813e-70
7.44858e-74
4.87531e-78
2.31575e-82
8.1426e-87
2.13695e-91
4.74415e-96
1.01338e-100
2.6728e-105
7.22288e-110
3.1221e-114
9.9536e-119
1.9405e-123
3.66665e-128
3.77114e-133
2.50126e-138
4.35135e-141
2.18534e-173
-5.63816e-142
-5.40225e-147
2.66688e-17
2.20079e-17
1.79716e-17
1.44008e-17
1.12596e-17
8.64327e-18
6.60436e-18
5.03479e-18
3.74086e-18
2.82798e-18
2.39742e-18
1.92417e-18
1.06238e-18
-1.2497e-31
1.60432e-31
2.14602e-30
2.11581e-30
4.92483e-29
1.16301e-32
2.69213e-43
2.69458e-43
5.21352e-42
1.25421e-52
9.11842e-53
4.92604e-52
-8.23883e-81
2.99754e-59
2.87751e-63
-1.91736e-139
2.00459e-71
-2.48573e-89
-1.19189e-75
-1.57165e-77
-1.46292e-79
-7.64046e-82
-1.22328e-84
-3.78686e-88
3.13982e-17
2.54831e-17
2.05311e-17
1.63495e-17
1.27305e-17
9.67545e-18
7.27095e-18
5.46883e-18
4.03656e-18
2.97475e-18
2.46835e-18
2.03111e-18
1.26417e-18
1.44865e-19
1.60444e-31
1.77893e-30
1.77666e-30
2.56793e-28
8.81393e-32
2.69219e-43
2.69224e-43
5.70873e-42
8.1311e-53
8.93608e-53
3.13656e-51
2.0574e-82
1.87261e-58
1.81977e-62
-3.97516e-113
1.99346e-70
1.42569e-74
-1.71969e-97
1.20853e-83
-1.21398e-83
-1.77794e-85
-6.45783e-88
-3.37489e-91
3.68453e-17
2.96966e-17
2.35199e-17
1.84887e-17
1.43099e-17
1.08e-17
7.99921e-18
5.92128e-18
4.33306e-18
3.13337e-18
2.53258e-18
2.11624e-18
1.42819e-18
3.00526e-19
1.60463e-31
1.62201e-30
2.44019e-30
4.01401e-28
3.24283e-31
2.69224e-43
4.72095e-37
1.49482e-40
8.1311e-53
8.14056e-53
1.55356e-50
2.17367e-56
1.76502e-58
6.41237e-69
1.43851e-65
1.56231e-69
8.16732e-78
8.18512e-78
4.70683e-82
-1.89055e-132
-4.49653e-89
-4.13855e-91
-2.98861e-94
4.2594e-17
3.44737e-17
2.70535e-17
2.09038e-17
1.59985e-17
1.1992e-17
8.7795e-18
6.39243e-18
4.62621e-18
3.29509e-18
2.59265e-18
2.185e-18
1.55942e-18
4.68677e-19
1.60478e-31
8.43139e-31
2.30104e-30
3.09289e-30
2.38538e-30
2.6923e-43
1.52711e-36
5.88857e-40
8.1311e-53
8.1311e-53
5.88746e-50
3.64204e-57
3.64654e-57
4.01821e-61
6.41237e-69
6.42769e-69
3.22268e-73
1.95123e-81
1.95746e-81
2.01526e-86
-6.84841e-106
-2.62639e-94
-2.62715e-97
4.88976e-17
3.94987e-17
3.10143e-17
2.36661e-17
1.78284e-17
1.32348e-17
9.59337e-18
6.87719e-18
4.91242e-18
3.45105e-18
2.64863e-18
2.24013e-18
1.66342e-18
6.3802e-19
1.60496e-31
5.28054e-31
2.27421e-30
2.61571e-30
8.54016e-30
2.4688e-33
2.05324e-40
2.09097e-40
6.18377e-43
8.1311e-53
1.89687e-49
9.16622e-54
2.50326e-64
2.51286e-64
2.47674e-64
2.22894e-76
2.22902e-76
2.23201e-76
3.63799e-81
8.55401e-91
8.56677e-91
2.35031e-96
-1.11083e-100
5.73673e-17
4.49443e-17
3.51616e-17
2.6711e-17
1.98294e-17
1.4526e-17
1.04209e-17
7.36443e-18
5.18657e-18
3.59367e-18
2.69774e-18
2.28263e-18
1.74506e-18
7.98695e-19
1.60512e-31
3.98207e-31
2.27569e-30
2.45302e-30
2.10908e-29
1.13911e-32
2.05383e-40
3.14154e-39
2.04123e-42
8.1311e-53
4.86976e-49
3.24319e-53
2.50326e-64
2.50326e-64
8.52313e-64
1.33255e-67
2.22894e-76
6.32686e-76
1.71265e-80
8.55403e-91
1.8973e-90
5.97054e-96
4.02342e-102
6.92832e-17
5.1808e-17
3.95336e-17
2.98704e-17
2.19668e-17
1.58658e-17
1.12462e-17
7.83859e-18
5.44088e-18
3.71772e-18
2.73172e-18
2.31267e-18
1.80857e-18
9.21979e-19
2.57609e-20
3.98216e-31
2.18046e-30
2.32974e-30
4.25383e-29
2.73349e-32
2.05448e-40
9.20792e-39
4.93772e-42
8.1311e-53
1.08536e-48
1.2186e-52
2.50326e-64
1.97278e-60
2.44252e-63
2.93447e-71
2.93866e-71
8.85983e-76
4.55511e-85
4.56205e-85
3.29565e-90
9.63169e-96
6.68363e-102
8.18878e-17
6.09164e-17
4.46291e-17
3.30853e-17
2.41393e-17
1.72299e-17
1.20523e-17
8.28281e-18
5.66698e-18
3.81543e-18
2.74222e-18
2.32983e-18
1.85737e-18
1.01033e-18
7.04671e-20
3.98229e-31
2.18739e-30
2.22565e-30
7.28843e-29
5.33571e-32
2.0551e-40
2.02851e-38
1.01848e-41
8.1311e-53
2.13386e-48
3.62299e-52
2.50326e-64
2.40052e-59
7.96257e-63
2.93447e-71
5.81916e-71
2.18984e-75
4.55512e-85
6.67744e-85
4.50577e-90
1.20944e-95
8.48025e-102
9.15804e-17
7.07724e-17
5.09056e-17
3.65249e-17
2.62638e-17
1.85543e-17
1.2814e-17
8.68666e-18
5.85345e-18
3.86802e-18
2.73742e-18
2.33533e-18
1.89419e-18
1.08319e-18
1.13453e-19
3.9824e-31
1.85535e-30
2.11671e-30
1.09506e-28
8.93181e-32
2.05573e-40
3.70395e-38
1.84195e-41
8.1311e-53
3.77764e-48
9.0106e-52
2.50326e-64
8.53017e-59
1.64226e-62
2.93448e-71
8.1705e-71
2.87343e-75
6.22162e-80
7.7433e-85
4.808e-90
1.16467e-95
8.72282e-102
1.00967e-16
7.89301e-17
5.76985e-17
4.03711e-17
2.8327e-17
1.9771e-17
1.35121e-17
9.03699e-18
5.9685e-18
3.87618e-18
2.73028e-18
2.33575e-18
1.91953e-18
1.14095e-18
1.54026e-19
3.98251e-31
1.7963e-30
2.03368e-30
1.48124e-28
1.3173e-31
2.05635e-40
5.82243e-38
2.98281e-41
8.1311e-53
6.17131e-48
1.94514e-51
2.50326e-64
1.69719e-58
2.31115e-62
2.93448e-71
9.26665e-71
3.06157e-75
6.19879e-80
7.15194e-85
4.02481e-90
8.59479e-96
6.62416e-102
1.20899e-16
8.6537e-17
6.37101e-17
4.4319e-17
3.03662e-17
2.08865e-17
1.4114e-17
9.25904e-18
5.99663e-18
3.86869e-18
2.73661e-18
2.33705e-18
1.93185e-18
1.17887e-18
1.88212e-19
3.98263e-31
1.78129e-30
1.98064e-30
1.83147e-28
1.74259e-31
2.05698e-40
8.07924e-38
4.33171e-41
8.1311e-53
9.4758e-48
3.82917e-51
2.50326e-64
2.14653e-58
2.51848e-62
2.93448e-71
8.67696e-71
2.68148e-75
5.03696e-80
5.27245e-85
2.61421e-90
4.75461e-96
3.40213e-102
1.53694e-16
9.80176e-17
6.87388e-17
4.78795e-17
3.24643e-17
2.18693e-17
1.44573e-17
9.30876e-18
5.98582e-18
3.88191e-18
2.71913e-18
2.33138e-18
1.93495e-18
1.19529e-18
2.09891e-19
3.98274e-31
1.69618e-30
1.96349e-30
2.05671e-28
2.05348e-31
2.05761e-40
9.99488e-38
5.76228e-41
8.1311e-53
1.43432e-47
6.84831e-51
2.50326e-64
2.29017e-58
2.2596e-62
2.93448e-71
6.77223e-71
1.9314e-75
3.29899e-80
3.06415e-85
1.30522e-90
1.93253e-96
1.38852e-102
1.77688e-16
1.14358e-16
7.44846e-17
5.14115e-17
3.42684e-17
2.2355e-17
1.45094e-17
9.27433e-18
5.9855e-18
3.8673e-18
2.68522e-18
2.31546e-18
1.93589e-18
1.19974e-18
2.19691e-19
3.98286e-31
1.66607e-30
2.3793e-30
2.12513e-28
2.16875e-31
2.05824e-40
1.11875e-37
7.10792e-41
8.1311e-53
2.18794e-47
7.44769e-51
2.50326e-64
1.88315e-58
1.71321e-62
1.06622e-66
4.39898e-71
1.14433e-75
1.74507e-80
1.39974e-85
4.92229e-91
5.52618e-97
4.82464e-103
1.7616e-16
1.2821e-16
8.43827e-17
5.46631e-17
3.48561e-17
2.23751e-17
1.44128e-17
9.25302e-18
6.05017e-18
3.78632e-18
2.62382e-18
2.29401e-18
1.92311e-18
1.19309e-18
2.23901e-19
3.98297e-31
1.6722e-30
2.0227e-30
2.064e-28
2.08902e-31
2.05887e-40
1.15908e-37
8.31607e-41
8.1311e-53
2.24486e-47
6.07575e-51
2.50326e-64
1.29047e-58
1.09182e-62
6.28754e-67
2.37114e-71
5.53661e-76
7.35643e-81
4.93133e-86
1.35197e-91
1.04701e-97
1.52484e-103
1.57211e-16
1.36891e-16
9.23061e-17
5.57797e-17
3.46524e-17
2.2141e-17
1.43371e-17
9.51034e-18
5.91702e-18
3.60237e-18
2.55802e-18
2.26859e-18
1.90279e-18
1.164e-18
2.12177e-19
3.98308e-31
1.66905e-30
2.09683e-30
1.77101e-28
1.79726e-31
2.0595e-40
1.13115e-37
9.38615e-41
8.1311e-53
1.7151e-47
4.07051e-51
2.50326e-64
7.38378e-59
5.78754e-63
3.05498e-67
1.04155e-71
2.1418e-76
2.40788e-81
1.28842e-86
2.52469e-92
1.26744e-98
4.27091e-104
1.44985e-16
1.43176e-16
9.38548e-17
5.56304e-17
3.43918e-17
2.20015e-17
1.48417e-17
9.21586e-18
5.58612e-18
3.41069e-18
2.49361e-18
2.23836e-18
1.87186e-18
1.11382e-18
1.88233e-19
3.9832e-31
1.67302e-30
2.17689e-30
1.3514e-28
1.38872e-31
2.06013e-40
1.06766e-37
9.02037e-41
8.1311e-53
1.06493e-47
2.20988e-51
2.68424e-55
3.45828e-59
2.49364e-63
1.19423e-67
3.61223e-72
6.36672e-77
5.83353e-82
2.31035e-87
2.90451e-93
1.22102e-99
9.86306e-105
2.30381e-16
1.15646e-16
8.66232e-17
5.62055e-17
3.44181e-17
2.29257e-17
1.43542e-17
8.72268e-18
5.25602e-18
3.18667e-18
2.43173e-18
2.20341e-18
1.82827e-18
1.03923e-18
1.53886e-19
3.98331e-31
1.68042e-30
2.24379e-30
8.93104e-29
9.66347e-32
2.06076e-40
9.02663e-38
5.1648e-41
8.1311e-53
5.0374e-48
9.68481e-52
1.33516e-55
1.29364e-59
8.47904e-64
3.62153e-68
9.49534e-73
1.38319e-77
9.70518e-83
2.55191e-88
2.06157e-94
1.64706e-100
1.79845e-105
3.2713e-16
8.66639e-17
8.66667e-17
5.80521e-17
3.60188e-17
2.22417e-17
1.34943e-17
8.17556e-18
4.8285e-18
2.95051e-18
2.38026e-18
2.16356e-18
1.76797e-18
9.37202e-19
1.13275e-19
3.98343e-31
1.72341e-30
1.72341e-30
5.0131e-29
5.93931e-32
2.06139e-40
4.34855e-38
2.27416e-41
8.1311e-53
1.88868e-48
3.36941e-52
4.26809e-56
3.76371e-60
2.20749e-64
8.22334e-69
1.80501e-73
2.06652e-78
1.00257e-83
1.58579e-89
1.37063e-95
2.74572e-101
2.55662e-106
2.62284e-16
1.41778e-16
8.12192e-17
5.82983e-17
3.61038e-17
2.06252e-17
1.25414e-17
7.49353e-18
4.338e-18
2.73323e-18
2.33653e-18
2.11786e-18
1.68497e-18
8.06167e-19
7.22437e-20
3.98354e-31
3.98366e-31
4.35257e-27
2.33999e-29
2.33805e-36
2.73468e-35
1.83679e-38
5.86831e-46
2.42584e-45
5.52781e-49
9.06543e-53
1.04284e-56
8.24187e-61
4.23266e-65
1.33486e-69
2.34156e-74
1.93261e-79
5.67802e-85
6.81397e-91
1.33549e-96
3.93246e-102
2.57553e-107
2.38407e-16
1.84591e-16
8.9972e-17
5.615e-17
3.1971e-17
1.90277e-17
1.14757e-17
6.68659e-18
3.82276e-18
2.55804e-18
2.29426e-18
2.06394e-18
1.5711e-18
6.48841e-19
3.73316e-20
3.98366e-31
1.82417e-30
5.17892e-27
1.19076e-29
2.33804e-36
9.66086e-36
5.23218e-39
5.86831e-46
5.86867e-46
1.22789e-49
1.82341e-53
1.87728e-57
1.3006e-61
5.68611e-66
1.45155e-70
1.8947e-75
9.90222e-81
1.84102e-86
3.46413e-92
1.28946e-97
4.30584e-103
6.0567e-109
3.05678e-16
1.59588e-16
9.06074e-17
4.8436e-17
2.8844e-17
1.73901e-17
1.01869e-17
5.80239e-18
3.33113e-18
2.43592e-18
2.24715e-18
1.99579e-18
1.41595e-18
4.7511e-19
1.34848e-20
3.98377e-31
3.98388e-31
2.67526e-27
3.65374e-30
2.33804e-36
2.33803e-36
1.10158e-39
4.05782e-43
1.06038e-46
2.00818e-50
2.65476e-54
2.39387e-58
1.41455e-62
5.05581e-67
9.81614e-72
8.47382e-77
2.56137e-82
5.08521e-88
2.06793e-93
9.84843e-99
3.48597e-104
5.60584e-110
1.80937e-16
1.299e-16
7.79447e-17
4.49462e-17
2.62918e-17
1.52312e-17
8.76798e-18
4.90162e-18
2.91282e-18
2.35894e-18
2.19237e-18
1.90212e-18
1.20921e-18
3.04017e-19
1.77041e-21
3.98388e-31
2.59038e-26
5.06619e-28
9.8328e-35
6.75746e-34
4.11142e-37
1.80266e-40
5.89209e-44
1.38667e-47
2.32217e-51
2.67952e-55
2.05828e-59
9.99447e-64
2.75142e-68
3.64551e-73
1.79129e-78
4.35591e-84
1.81484e-89
1.03654e-94
5.49583e-100
2.02983e-105
3.34325e-111
1.14604e-16
1.14604e-16
7.57209e-17
4.08893e-17
2.24326e-17
1.29649e-17
7.3272e-18
4.04119e-18
2.60902e-18
2.30405e-18
2.1283e-18
1.76554e-18
9.48401e-19
1.59549e-19
5.39854e-31
5.39854e-31
4.12564e-26
9.95773e-29
9.8328e-35
9.83596e-35
5.25114e-38
2.07319e-41
6.05488e-45
1.25223e-48
1.8151e-52
1.77668e-56
1.12046e-60
4.21475e-65
8.10232e-70
6.16093e-75
1.94207e-80
8.56727e-86
5.52382e-91
3.76662e-96
2.15107e-101
8.26845e-107
1.45271e-112
2.45818e-16
1.01685e-16
5.93214e-17
3.35718e-17
1.89196e-17
1.07442e-17
5.89035e-18
3.3058e-18
2.42761e-18
2.24865e-18
2.04686e-18
1.56225e-18
6.51905e-19
6.48345e-20
5.39854e-31
5.39854e-31
1.0111e-26
1.66681e-29
8.71278e-33
9.79546e-36
4.69623e-39
1.63956e-42
4.17222e-46
7.37115e-50
8.99094e-54
7.1796e-58
3.50392e-62
9.28291e-67
1.03476e-71
4.03818e-77
1.89921e-82
1.54629e-87
1.21628e-92
9.38697e-98
5.66087e-103
2.27382e-108
4.24939e-114
2.49195e-16
8.64487e-17
4.66731e-17
2.76455e-17
1.54809e-17
8.49934e-18
4.56779e-18
2.77735e-18
2.3307e-18
2.18323e-18
1.92569e-18
1.2693e-18
3.67933e-19
1.88368e-20
5.39854e-31
1.37796e-25
1.10672e-27
1.43136e-30
1.16227e-33
6.66032e-37
2.78034e-40
8.34544e-44
1.78392e-47
2.61748e-51
2.57252e-55
1.57216e-59
5.34045e-64
7.93674e-69
3.1717e-74
1.58349e-79
2.15704e-84
1.83628e-89
1.75101e-94
1.47227e-99
9.42059e-105
4.02148e-110
8.10717e-116
1.30045e-16
9.04045e-17
4.12126e-17
2.13873e-17
1.19349e-17
6.39941e-18
3.50241e-18
2.47441e-18
2.26338e-18
2.10188e-18
1.72578e-18
8.90335e-19
1.5551e-19
3.76872e-21
2.93165e-25
5.74842e-26
9.58829e-29
8.76671e-32
5.84809e-35
2.86471e-38
1.00541e-41
2.48128e-45
4.31773e-49
4.99383e-53
3.65583e-57
1.48847e-61
2.5115e-66
1.86289e-72
1.20051e-81
1.20032e-81
1.04333e-86
1.30906e-91
1.45018e-96
1.32744e-101
9.23317e-107
4.33424e-112
9.70415e-118
1.23578e-16
7.7706e-17
2.92915e-17
1.61053e-17
8.77824e-18
4.61131e-18
2.79782e-18
2.32995e-18
2.19252e-18
1.97845e-18
1.39777e-18
4.88699e-19
4.40509e-20
5.83534e-22
2.3335e-24
3.86483e-27
4.06581e-30
3.13016e-33
1.7382e-36
6.92365e-40
1.93866e-43
3.77282e-47
4.96829e-51
4.02762e-55
1.73001e-59
1.97802e-64
-5.46206e-133
-3.54476e-210
1.15543e-79
-2.47134e-127
2.17531e-89
4.02762e-94
5.29465e-99
5.65643e-104
4.64781e-109
2.61347e-114
6.93707e-120
1.14219e-16
3.91344e-17
2.15804e-17
1.16884e-17
6.02607e-18
3.32819e-18
2.44039e-18
2.24668e-18
2.10329e-18
1.74608e-18
9.26607e-19
1.81836e-19
7.33027e-21
4.82575e-23
9.33359e-26
1.11973e-28
9.51047e-32
5.82243e-35
2.48766e-38
7.53041e-42
1.56122e-45
2.07581e-49
1.55482e-53
3.03531e-58
-1.69762e-133
-1.75873e-92
-1.39022e-134
-3.31425e-90
-1.51084e-95
2.13527e-157
-3.45632e-177
-5.38452e-173
-6.12327e-174
4.47637e-107
8.33344e-112
7.55792e-117
2.75926e-122
5.56382e-17
3.1206e-17
1.50023e-17
7.59387e-18
3.99944e-18
2.62073e-18
2.28684e-18
2.16574e-18
1.94379e-18
1.31388e-18
4.24874e-19
3.60676e-20
4.86881e-22
1.24912e-24
1.61155e-27
1.42394e-30
8.60066e-34
3.6138e-37
9.93025e-41
1.59846e-44
6.04034e-49
-1.39709e-99
-7.57629e-105
-1.97515e-130
-4.61411e-90
-4.73202e-88
5.91949e-102
-2.80861e-110
-1.63329e-99
-2.03899e-103
-2.08982e-107
5.34488e-139
-3.23973e-134
-1.57698e-193
-8.75495e-144
4.77117e-120
5.24163e-125
4.40539e-17
1.81658e-17
9.15372e-18
4.67682e-18
2.82828e-18
2.32493e-18
2.19651e-18
2.0455e-18
1.58114e-18
6.92337e-19
9.7989e-20
2.44065e-21
8.07706e-24
8.53502e-27
5.57476e-30