/*--------------------------------*- C++ -*----------------------------------*\
| =========                 |                                                 |
| \\      /  F ield         | OpenFOAM: The Open Source CFD Toolbox           |
|  \\    /   O peration     | Version:  v2012                                 |
|   \\  /    A nd           | Website:  www.openfoam.com                      |
|    \\/     M anipulation  |                                                 |
\*---------------------------------------------------------------------------*/
FoamFile
{
    version     2.0;
    format      ascii;
    class       volVectorField;
    location    "0.85";
    object      U;
}
// * * * * * * * * * * * * * * * * * * * * * * * * * * * * * * * * * * * * * //

dimensions      [0 1 -1 0 0 0 0];


internalField   nonuniform List<vector> 
2664
(
(0.00363583 -0.0074763 -3.17343e-05)
(0.00355688 -0.00692025 -3.10454e-05)
(0.00345675 -0.00637665 -3.01717e-05)
(0.00333736 -0.00584887 -2.91299e-05)
(0.00320092 -0.00534002 -2.79393e-05)
(0.00304988 -0.00485283 -2.66213e-05)
(0.00288688 -0.00438956 -2.51988e-05)
(0.00271465 -0.00395205 -2.36957e-05)
(0.0025359 -0.0035416 -2.21357e-05)
(0.00235327 -0.00315904 -2.05417e-05)
(0.00216924 -0.00280474 -1.89356e-05)
(0.00198615 -0.00247862 -1.73376e-05)
(0.00180615 -0.00218021 -1.57665e-05)
(0.00163119 -0.0019087 -1.42395e-05)
(0.00146297 -0.00166299 -1.27712e-05)
(0.00130283 -0.00144176 -1.13733e-05)
(0.00115177 -0.00124351 -1.00548e-05)
(0.00101046 -0.00106657 -8.82124e-06)
(0.000879295 -0.000909247 -7.67633e-06)
(0.000758541 -0.000769835 -6.62225e-06)
(0.000648332 -0.000646658 -5.66023e-06)
(0.000548699 -0.00053812 -4.7905e-06)
(0.000459378 -0.000442672 -4.01077e-06)
(0.000379907 -0.000358936 -3.31702e-06)
(0.00030997 -0.000285701 -2.70651e-06)
(0.000249132 -0.000221907 -2.17541e-06)
(0.000196756 -0.00016653 -1.71813e-06)
(0.000152215 -0.000118651 -1.32922e-06)
(0.000114812 -7.75468e-05 -1.00264e-06)
(8.39032e-05 -4.27369e-05 -7.32766e-07)
(5.8904e-05 -1.3941e-05 -5.14488e-07)
(3.92201e-05 8.91893e-06 -3.42608e-07)
(2.42541e-05 2.5681e-05 -2.11912e-07)
(1.3405e-05 3.58652e-05 -1.17157e-07)
(6.11953e-06 3.86023e-05 -5.35139e-08)
(1.78832e-06 3.24514e-05 -1.56755e-08)
(-1.20574e-08 1.53252e-05 -1.41132e-10)
(0.00382166 -0.00760968 -3.33563e-05)
(0.00372681 -0.00702087 -3.25287e-05)
(0.00361 -0.00644766 -3.15095e-05)
(0.00347352 -0.00589358 -3.03186e-05)
(0.00331993 -0.0053618 -2.89783e-05)
(0.00315203 -0.00485499 -2.7513e-05)
(0.00297274 -0.00437536 -2.59484e-05)
(0.00278508 -0.00392459 -2.43106e-05)
(0.00259197 -0.00350379 -2.26252e-05)
(0.00239622 -0.00311357 -2.09168e-05)
(0.00220044 -0.00275399 -1.9208e-05)
(0.00200701 -0.00242465 -1.75197e-05)
(0.0018181 -0.00212477 -1.58709e-05)
(0.00163563 -0.0018532 -1.42783e-05)
(0.00146121 -0.00160859 -1.27559e-05)
(0.00129612 -0.00138939 -1.13149e-05)
(0.00114126 -0.00119392 -9.96314e-06)
(0.000997181 -0.00102037 -8.70543e-06)
(0.000864172 -0.000866846 -7.54437e-06)
(0.000742359 -0.000731425 -6.48104e-06)
(0.000631755 -0.000612249 -5.51555e-06)
(0.00053226 -0.000507592 -4.64702e-06)
(0.000443497 -0.000415847 -3.87214e-06)
(0.000364899 -0.000335554 -3.18601e-06)
(0.000296034 -0.0002654 -2.58485e-06)
(0.000236409 -0.000204448 -2.06434e-06)
(0.000185375 -0.000151697 -1.61877e-06)
(0.000142257 -0.000106272 -1.24229e-06)
(0.000106305 -6.74424e-05 -9.28368e-07)
(7.68293e-05 -3.46704e-05 -6.71003e-07)
(5.32113e-05 -7.649e-06 -4.64779e-07)
(3.48342e-05 1.3686e-05 -3.04306e-07)
(2.10775e-05 2.91478e-05 -1.84167e-07)
(1.13145e-05 3.82381e-05 -9.88941e-08)
(4.95322e-06 4.00755e-05 -4.33203e-08)
(1.34153e-06 3.32078e-05 -1.17627e-08)
(-3.87457e-08 1.55313e-05 1.64112e-10)
(0.00401538 -0.00773895 -3.50473e-05)
(0.00390255 -0.00711563 -3.40628e-05)
(0.00376709 -0.00651153 -3.28808e-05)
(0.0036117 -0.00593028 -3.15248e-05)
(0.00343935 -0.00537507 -3.00207e-05)
(0.00325318 -0.00484853 -2.83961e-05)
(0.00305645 -0.00435269 -2.66793e-05)
(0.00285243 -0.00388904 -2.48986e-05)
(0.00264426 -0.00345846 -2.30818e-05)
(0.00243491 -0.00306123 -2.12546e-05)
(0.00222709 -0.00269712 -1.94408e-05)
(0.00202323 -0.00236536 -1.76615e-05)
(0.00182549 -0.00206479 -1.59355e-05)
(0.00163569 -0.00179393 -1.42789e-05)
(0.00145535 -0.00155114 -1.27048e-05)
(0.00128561 -0.00133462 -1.12231e-05)
(0.00112726 -0.00114252 -9.84092e-06)
(0.000980734 -0.000972816 -8.56192e-06)
(0.000846227 -0.000823445 -7.38778e-06)
(0.00072373 -0.000692303 -6.31846e-06)
(0.000613101 -0.000577363 -5.35275e-06)
(0.000514091 -0.000476792 -4.48843e-06)
(0.000426199 -0.000388934 -3.72115e-06)
(0.000348771 -0.00031226 -3.04521e-06)
(0.000281234 -0.000245371 -2.45563e-06)
(0.000223016 -0.000187355 -1.94739e-06)
(0.000173463 -0.000137265 -1.51477e-06)
(0.00013187 -9.42972e-05 -1.15161e-06)
(9.74622e-05 -5.77324e-05 -8.51168e-07)
(6.95089e-05 -2.6985e-05 -6.07089e-07)
(4.73485e-05 -1.72231e-06 -4.13586e-07)
(3.03355e-05 1.81089e-05 -2.65019e-07)
(1.78288e-05 3.22997e-05 -1.55791e-07)
(9.18031e-06 4.03352e-05 -8.02492e-08)
(3.76336e-06 4.13245e-05 -3.29208e-08)
(8.85309e-07 3.38086e-05 -7.76735e-09)
(-6.63622e-08 1.56742e-05 4.78992e-10)
(0.00421683 -0.00786259 -3.68057e-05)
(0.00408369 -0.00720301 -3.5644e-05)
(0.00392742 -0.00656679 -3.42804e-05)
(0.00375118 -0.00595762 -3.27424e-05)
(0.00355836 -0.00537867 -3.10597e-05)
(0.00335249 -0.00483242 -2.92631e-05)
(0.00313716 -0.00432071 -2.73839e-05)
(0.00291587 -0.00384475 -2.54526e-05)
(0.002692 -0.00340509 -2.34986e-05)
(0.00246863 -0.00300168 -2.15491e-05)
(0.00224858 -0.00263389 -1.96285e-05)
(0.00203429 -0.00230059 -1.77582e-05)
(0.00182786 -0.0020002 -1.59564e-05)
(0.00163101 -0.00173091 -1.42381e-05)
(0.00144507 -0.00149073 -1.26151e-05)
(0.00127105 -0.00127761 -1.10961e-05)
(0.0011096 -0.00108945 -9.68686e-06)
(0.00096104 -0.000924049 -8.39006e-06)
(0.000825439 -0.000779169 -7.20637e-06)
(0.000702656 -0.000652555 -6.13455e-06)
(0.000592386 -0.000542051 -5.17195e-06)
(0.000494208 -0.000445744 -4.31488e-06)
(0.000407499 -0.000361934 -3.55791e-06)
(0.000331529 -0.000289036 -2.89469e-06)
(0.000265578 -0.00022558 -2.31893e-06)
(0.000208975 -0.00017063 -1.82479e-06)
(0.000161055 -0.000123276 -1.40643e-06)
(0.000121096 -8.27831e-05 -1.05754e-06)
(8.83217e-05 -4.84623e-05 -7.71371e-07)
(6.19731e-05 -1.97099e-05 -5.41295e-07)
(4.13393e-05 3.82097e-06 -3.61114e-07)
(2.5742e-05 2.21755e-05 -2.24903e-07)
(1.45209e-05 3.51281e-05 -1.26899e-07)
(7.01132e-06 4.21506e-05 -6.13002e-08)
(2.55515e-06 4.23455e-05 -2.23611e-08)
(4.21753e-07 3.42512e-05 -3.70775e-09)
(-9.45918e-08 1.57524e-05 8.01184e-10)
(0.00442566 -0.00797883 -3.86286e-05)
(0.00426966 -0.00728131 -3.72674e-05)
(0.00409024 -0.00661186 -3.57017e-05)
(0.00389107 -0.00597418 -3.39636e-05)
(0.003676 -0.00537134 -3.20867e-05)
(0.00344897 -0.00480561 -3.01054e-05)
(0.00321388 -0.00427856 -2.80537e-05)
(0.00297448 -0.00379103 -2.59644e-05)
(0.00273432 -0.00334319 -2.38682e-05)
(0.00249662 -0.00293457 -2.17936e-05)
(0.00226424 -0.0025641 -1.97654e-05)
(0.00203962 -0.00223024 -1.78048e-05)
(0.00182474 -0.001931 -1.59292e-05)
(0.00162117 -0.00166418 -1.41524e-05)
(0.00143008 -0.00142746 -1.24843e-05)
(0.00125224 -0.00121847 -1.0932e-05)
(0.00108817 -0.00103487 -9.49988e-06)
(0.000938048 -0.000874234 -8.18942e-06)
(0.000801808 -0.000734178 -7.00015e-06)
(0.000679167 -0.000612329 -5.92956e-06)
(0.000569647 -0.000506448 -4.97349e-06)
(0.000472648 -0.000414561 -4.12669e-06)
(0.000387429 -0.00033493 -3.38272e-06)
(0.000313192 -0.000265935 -2.73461e-06)
(0.000249078 -0.000206057 -2.17488e-06)
(0.000194305 -0.0001543 -1.69669e-06)
(0.000148183 -0.000109768 -1.29403e-06)
(0.000109977 -7.17724e-05 -9.60462e-07)
(7.89276e-05 -3.96688e-05 -6.89358e-07)
(5.42582e-05 -1.2871e-05 -4.73939e-07)
(3.52109e-05 8.96396e-06 -3.07602e-07)
(2.10733e-05 2.58747e-05 -1.84132e-07)
(1.11683e-05 3.76258e-05 -9.76164e-08)
(4.81736e-06 4.36801e-05 -4.21329e-08)
(1.33428e-06 4.31359e-05 -1.16906e-08)
(-4.68983e-08 3.4534e-05 3.96456e-10)
(-1.23322e-07 1.57653e-05 1.12906e-09)
(0.00464132 -0.00808564 -4.05112e-05)
(0.00445967 -0.0073486 -3.89261e-05)
(0.00425458 -0.00664496 -3.71364e-05)
(0.00403028 -0.00597838 -3.51789e-05)
(0.00379113 -0.00535173 -3.30918e-05)
(0.00354146 -0.004767 -3.09129e-05)
(0.0032855 -0.00422536 -2.86791e-05)
(0.00302722 -0.00372724 -2.64249e-05)
(0.00277032 -0.00327231 -2.41826e-05)
(0.00251809 -0.00285961 -2.19811e-05)
(0.0022734 -0.0024876 -1.98454e-05)
(0.00203863 -0.00215427 -1.77963e-05)
(0.00181565 -0.00185722 -1.585e-05)
(0.00160582 -0.00159385 -1.40184e-05)
(0.00141007 -0.00136146 -1.23098e-05)
(0.00122899 -0.00115736 -1.07291e-05)
(0.00106287 -0.000978933 -9.27902e-06)
(0.000911724 -0.000823545 -7.95968e-06)
(0.000775353 -0.000688659 -6.76926e-06)
(0.000653309 -0.000571821 -5.70387e-06)
(0.00054494 -0.000470744 -4.75783e-06)
(0.000449468 -0.000383418 -3.92436e-06)
(0.00036604 -0.000308071 -3.19602e-06)
(0.0002938 -0.000243067 -2.56533e-06)
(0.000231762 -0.000186876 -2.02369e-06)
(0.000179033 -0.000138414 -1.56334e-06)
(0.000134882 -9.67765e-05 -1.17789e-06)
(9.85586e-05 -6.12969e-05 -8.60769e-07)
(6.93275e-05 -3.13802e-05 -6.05545e-07)
(4.64045e-05 -6.49039e-06 -4.0537e-07)
(2.89933e-05 1.36913e-05 -2.53311e-07)
(1.63516e-05 2.91968e-05 -1.42897e-07)
(7.78682e-06 3.97869e-05 -6.80814e-08)
(2.60909e-06 4.492e-05 -2.28405e-08)
(1.06903e-07 4.36938e-05 -9.63164e-10)
(-5.18217e-07 3.46562e-05 4.52403e-09)
(-1.52459e-07 1.57128e-05 1.46112e-09)
(0.00486305 -0.00818071 -4.24468e-05)
(0.00465269 -0.00740273 -4.06111e-05)
(0.00441923 -0.00666418 -3.85738e-05)
(0.00416751 -0.00596856 -3.6377e-05)
(0.0039024 -0.00531845 -3.40634e-05)
(0.00362865 -0.00471545 -3.16742e-05)
(0.00335077 -0.00416026 -2.92491e-05)
(0.00307296 -0.00365274 -2.68243e-05)
(0.00279897 -0.00319202 -2.44329e-05)
(0.00253216 -0.00277656 -2.21041e-05)
(0.00227533 -0.00240429 -1.98624e-05)
(0.00203076 -0.0020727 -1.77277e-05)
(0.00180013 -0.00177895 -1.57146e-05)
(0.00158458 -0.00152004 -1.38331e-05)
(0.0013848 -0.00129288 -1.20893e-05)
(0.00120111 -0.00109445 -1.04858e-05)
(0.00103359 -0.000921827 -9.02352e-06)
(0.00088205 -0.000772173 -7.70069e-06)
(0.000746105 -0.000642816 -6.51397e-06)
(0.000625141 -0.000531248 -5.45801e-06)
(0.000518334 -0.000435161 -4.52559e-06)
(0.000424744 -0.000352526 -3.70855e-06)
(0.000343409 -0.000281542 -2.99847e-06)
(0.000273414 -0.000220581 -2.38738e-06)
(0.000213676 -0.000168138 -1.8658e-06)
(0.000163198 -0.000123031 -1.42508e-06)
(0.000121194 -8.43349e-05 -1.05837e-06)
(8.68905e-05 -5.13794e-05 -7.58892e-07)
(5.95715e-05 -2.36172e-05 -5.20366e-07)
(3.84546e-05 -5.86501e-07 -3.35958e-07)
(2.27192e-05 1.79892e-05 -1.98526e-07)
(1.16007e-05 3.21332e-05 -1.01408e-07)
(4.39356e-06 4.16067e-05 -3.84434e-08)
(3.98005e-07 4.58683e-05 -3.52344e-09)
(-1.12035e-06 4.40183e-05 9.76324e-09)
(-9.89567e-07 3.46172e-05 8.6519e-09)
(-1.81856e-07 1.55945e-05 1.7955e-09)
(0.00508974 -0.00826143 -4.44257e-05)
(0.00484737 -0.00744131 -4.23106e-05)
(0.00458271 -0.00666741 -4.00009e-05)
(0.00430121 -0.00594293 -3.75443e-05)
(0.00400827 -0.00527005 -3.49877e-05)
(0.00370905 -0.00464983 -3.23762e-05)
(0.00340832 -0.0040824 -2.97516e-05)
(0.00311044 -0.00356696 -2.71517e-05)
(0.00281921 -0.00310198 -2.46098e-05)
(0.00253793 -0.00268527 -2.21547e-05)
(0.0022693 -0.00231417 -1.981e-05)
(0.00201541 -0.00198563 -1.75939e-05)
(0.00177773 -0.00169637 -1.55192e-05)
(0.00155714 -0.00144296 -1.35937e-05)
(0.00135404 -0.00122194 -1.18208e-05)
(0.00116848 -0.00102994 -1.02011e-05)
(0.00100029 -0.000863746 -8.73283e-06)
(0.000849024 -0.00072032 -7.41243e-06)
(0.000714106 -0.000596867 -6.23467e-06)
(0.000594734 -0.000490839 -5.19259e-06)
(0.000489918 -0.00039993 -4.27755e-06)
(0.000398573 -0.000322105 -3.48009e-06)
(0.000319634 -0.000255542 -2.79093e-06)
(0.000252123 -0.00019864 -2.20152e-06)
(0.000194891 -0.000149955 -1.70182e-06)
(0.00014686 -0.000108218 -1.28244e-06)
(0.000107172 -7.24759e-05 -9.35942e-07)
(7.50258e-05 -4.2037e-05 -6.55298e-07)
(4.97111e-05 -1.63944e-05 -4.34273e-07)
(3.0453e-05 4.82597e-06 -2.66092e-07)
(1.64232e-05 2.1846e-05 -1.43549e-07)
(6.84633e-06 3.46767e-05 -5.98875e-08)
(1.00695e-06 4.3082e-05 -8.86355e-09)
(-1.8036e-06 4.65241e-05 1.57108e-08)
(-2.34041e-06 4.41097e-05 2.04268e-08)
(-1.45812e-06 3.44176e-05 1.27553e-08)
(-2.11319e-07 1.54105e-05 2.13003e-09)
(0.00531996 -0.00832484 -4.64354e-05)
(0.00504204 -0.00746173 -4.40101e-05)
(0.0047432 -0.0066524 -4.14021e-05)
(0.00442953 -0.00589963 -3.86646e-05)
(0.00410694 -0.00520504 -3.58493e-05)
(0.00378097 -0.00456903 -3.30043e-05)
(0.00345662 -0.00399099 -3.01734e-05)
(0.00313833 -0.00346938 -2.73954e-05)
(0.0028299 -0.0030019 -2.47032e-05)
(0.00253447 -0.00258564 -2.21247e-05)
(0.00225457 -0.00221729 -1.96815e-05)
(0.00199203 -0.00189324 -1.73899e-05)
(0.00174804 -0.00160971 -1.52602e-05)
(0.0015232 -0.00136287 -1.32975e-05)
(0.0013176 -0.00114889 -1.15028e-05)
(0.001131 -0.000964062 -9.87392e-06)
(0.00096292 -0.000804914 -8.40669e-06)
(0.000812668 -0.000668205 -7.09508e-06)
(0.000679417 -0.000551033 -5.93186e-06)
(0.000562175 -0.000450821 -4.90836e-06)
(0.000459794 -0.000365277 -4.01458e-06)
(0.000371067 -0.00029237 -3.23998e-06)
(0.00029483 -0.000230269 -2.57441e-06)
(0.000230037 -0.000177415 -2.00873e-06)
(0.000175504 -0.000132449 -1.53258e-06)
(0.000130097 -9.40457e-05 -1.1361e-06)
(9.28827e-05 -6.12319e-05 -8.11183e-07)
(6.30234e-05 -3.32821e-05 -5.505e-07)
(3.97996e-05 -9.7218e-06 -3.47728e-07)
(2.2445e-05 9.73592e-06 -1.96167e-07)
(1.01417e-05 2.52522e-05 -8.86972e-08)
(2.11599e-06 3.6822e-05 -1.85774e-08)
(-2.35327e-06 4.42114e-05 2.04855e-08)
(-3.9826e-06 4.68883e-05 3.47475e-08)
(-3.54577e-06 4.39696e-05 3.0962e-08)
(-1.92088e-06 3.40587e-05 1.68081e-08)
(-2.40636e-07 1.51612e-05 2.46239e-09)
(0.00555178 -0.0083677 -4.84592e-05)
(0.0052346 -0.00746112 -4.56911e-05)
(0.00489853 -0.00661675 -4.27582e-05)
(0.00455032 -0.00583674 -3.97192e-05)
(0.00419637 -0.00512195 -3.66302e-05)
(0.00384254 -0.00447197 -3.3542e-05)
(0.003494 -0.00388533 -3.05e-05)
(0.00315521 -0.0033596 -2.75429e-05)
(0.00282984 -0.00289162 -2.47029e-05)
(0.00252083 -0.00247771 -2.20058e-05)
(0.00223041 -0.00211383 -1.94707e-05)
(0.00196008 -0.00179579 -1.71111e-05)
(0.0017107 -0.00151929 -1.49343e-05)
(0.00148254 -0.0012801 -1.29427e-05)
(0.00127537 -0.00107404 -1.11342e-05)
(0.00108862 -0.000897109 -9.50402e-06)
(0.000921503 -0.000745587 -8.04518e-06)
(0.000773031 -0.000616061 -6.74909e-06)
(0.000642118 -0.000505537 -5.60626e-06)
(0.000527565 -0.000411412 -4.60624e-06)
(0.000428082 -0.00033141 -3.73775e-06)
(0.000342357 -0.000263516 -2.98935e-06)
(0.000269134 -0.000205904 -2.35009e-06)
(0.000207289 -0.000157065 -1.81015e-06)
(0.000155633 -0.000115738 -1.35912e-06)
(0.000113006 -8.05886e-05 -9.86904e-07)
(7.8404e-05 -5.06362e-05 -6.84783e-07)
(5.09475e-05 -2.5126e-05 -4.45063e-07)
(2.9891e-05 -3.60585e-06 -2.61205e-07)
(1.44766e-05 1.41356e-05 -1.26585e-07)
(3.91232e-06 2.82012e-05 -3.42993e-08)
(-2.5612e-06 3.85658e-05 2.22687e-08)
(-5.66604e-06 4.49952e-05 4.94202e-08)
(-6.12508e-06 4.69634e-05 5.34652e-08)
(-4.7285e-06 4.36013e-05 4.12994e-08)
(-2.37468e-06 3.35432e-05 2.07824e-08)
(-2.69584e-07 1.48475e-05 2.79014e-09)
(0.00578285 -0.00838637 -5.04764e-05)
(0.00542249 -0.00743642 -4.73316e-05)
(0.00504611 -0.00655795 -4.40468e-05)
(0.00466109 -0.00575229 -4.06865e-05)
(0.00427426 -0.00501934 -3.73103e-05)
(0.0038917 -0.00435768 -3.39714e-05)
(0.00351868 -0.00376481 -3.07157e-05)
(0.00315957 -0.00323733 -2.75812e-05)
(0.00281782 -0.00277111 -2.45982e-05)
(0.00249605 -0.00236162 -2.17896e-05)
(0.00219609 -0.00200407 -1.91714e-05)
(0.00191906 -0.00169362 -1.67532e-05)
(0.0016654 -0.0014255 -1.45389e-05)
(0.00143499 -0.00119505 -1.25277e-05)
(0.00122728 -0.000997772 -1.07145e-05)
(0.00104136 -0.000829415 -9.09149e-06)
(0.000876096 -0.000686055 -7.64884e-06)
(0.000730203 -0.000564141 -6.37523e-06)
(0.000602316 -0.000460602 -5.25881e-06)
(0.000491032 -0.000372813 -4.2873e-06)
(0.000394921 -0.000298513 -3.44825e-06)
(0.000312588 -0.000235709 -2.72947e-06)
(0.000242692 -0.000182597 -2.11925e-06)
(0.000184027 -0.000137727 -1.60707e-06)
(0.000135417 -9.99303e-05 -1.18265e-06)
(9.57049e-05 -6.79168e-05 -8.35884e-07)
(6.38288e-05 -4.0723e-05 -5.57546e-07)
(3.88691e-05 -1.75804e-05 -3.39604e-07)
(2.00413e-05 1.94826e-06 -1.75195e-07)
(6.59447e-06 1.80203e-05 -5.77527e-08)
(-2.22619e-06 3.06894e-05 1.93063e-08)
(-7.15475e-06 3.99076e-05 6.23847e-08)
(-8.90918e-06 4.54357e-05 7.77467e-08)
(-8.21637e-06 4.67537e-05 7.17355e-08)
(-5.88029e-06 4.30095e-05 5.13664e-08)
(-2.81622e-06 3.28746e-05 2.46494e-08)
(-2.97935e-07 1.44709e-05 3.11073e-09)
(0.00601007 -0.00837694 -5.24601e-05)
(0.00560258 -0.00738436 -4.89039e-05)
(0.0051829 -0.00647343 -4.52411e-05)
(0.00475899 -0.00564435 -4.15414e-05)
(0.00433802 -0.00489585 -3.78672e-05)
(0.00392621 -0.0042253 -3.42729e-05)
(0.00352876 -0.00362901 -3.0804e-05)
(0.00314985 -0.00310245 -2.74966e-05)
(0.0027926 -0.00264048 -2.43783e-05)
(0.00245919 -0.00223765 -2.1468e-05)
(0.00215097 -0.00188839 -1.87776e-05)
(0.00186854 -0.00158721 -1.63123e-05)
(0.00161188 -0.00132883 -1.40719e-05)
(0.00138047 -0.00110819 -1.20518e-05)
(0.00117336 -0.000920525 -1.02439e-05)
(0.000989293 -0.000761365 -8.63706e-06)
(0.000826817 -0.000626644 -7.21869e-06)
(0.000684317 -0.000512716 -5.97468e-06)
(0.000560158 -0.000416452 -4.89078e-06)
(0.000452728 -0.000335209 -3.95291e-06)
(0.000360472 -0.000266739 -3.14751e-06)
(0.000281924 -0.000209077 -2.46177e-06)
(0.000215667 -0.000160462 -1.88331e-06)
(0.000160412 -0.000119502 -1.40091e-06)
(0.00011501 -8.51109e-05 -1.0045e-06)
(7.83258e-05 -5.60921e-05 -6.84183e-07)
(4.92614e-05 -3.15269e-05 -4.3038e-07)
(2.68651e-05 -1.06597e-05 -2.34796e-07)
(1.03086e-05 6.93532e-06 -9.02053e-08)
(-1.15394e-06 2.13876e-05 9.91264e-09)
(-8.23402e-06 3.27166e-05 7.17717e-08)
(-1.1633e-05 4.08495e-05 1.01494e-07)
(-1.20595e-05 4.55375e-05 1.05263e-07)
(-1.02411e-05 4.62651e-05 8.94247e-08)
(-6.99243e-06 4.22002e-05 6.10869e-08)
(-3.24202e-06 3.20577e-05 2.83785e-08)
(-3.25445e-07 1.40333e-05 3.42146e-09)
(0.00622983 -0.00833511 -5.43788e-05)
(0.00577122 -0.00730154 -5.03763e-05)
(0.0053054 -0.00636059 -4.63108e-05)
(0.00484081 -0.00551108 -4.22559e-05)
(0.00438482 -0.0047503 -3.82761e-05)
(0.00394364 -0.00407418 -3.44253e-05)
(0.00352226 -0.00347768 -3.07474e-05)
(0.00312449 -0.00295504 -2.72755e-05)
(0.00275299 -0.00250004 -2.40327e-05)
(0.00240939 -0.00210625 -2.10335e-05)
(0.00209444 -0.00176733 -1.82843e-05)
(0.00180817 -0.00147712 -1.57854e-05)
(0.00155 -0.00122984 -1.35318e-05)
(0.00131896 -0.00102007 -1.1515e-05)
(0.0011137 -0.000842793 -9.72313e-06)
(0.000932591 -0.000693396 -8.14212e-06)
(0.000773854 -0.000567723 -6.75637e-06)
(0.000635566 -0.000462081 -5.54912e-06)
(0.000515832 -0.000373316 -4.50383e-06)
(0.000412841 -0.000298772 -3.6047e-06)
(0.000324923 -0.000236213 -2.83716e-06)
(0.000250546 -0.000183713 -2.18783e-06)
(0.000188229 -0.000139572 -1.64377e-06)
(0.000136614 -0.000102455 -1.19314e-06)
(9.45732e-05 -7.13388e-05 -8.2609e-07)
(6.101e-05 -4.5163e-05 -5.33028e-07)
(3.48152e-05 -2.30809e-05 -3.04271e-07)
(1.50187e-05 -4.38137e-06 -1.31365e-07)
(7.54243e-07 1.13491e-05 -6.77311e-09)
(-8.71948e-06 2.42376e-05 7.59814e-08)
(-1.40703e-05 3.42859e-05 1.2274e-07)
(-1.59634e-05 4.1397e-05 1.39313e-07)
(-1.50931e-05 4.53077e-05 1.31759e-07)
(-1.21834e-05 4.55056e-05 1.06394e-07)
(-8.05586e-06 4.1181e-05 7.03817e-08)
(-3.64843e-06 3.10984e-05 3.19379e-08)
(-3.51855e-07 1.35372e-05 3.71941e-09)
(0.00643743 -0.00825649 -5.61913e-05)
(0.00592396 -0.00718452 -5.171e-05)
(0.00540954 -0.00621693 -4.72202e-05)
(0.00490294 -0.0053508 -4.27987e-05)
(0.00441158 -0.00458169 -3.851e-05)
(0.00394145 -0.00390388 -3.44066e-05)
(0.00349714 -0.00331083 -3.05285e-05)
(0.00308193 -0.00279543 -2.69042e-05)
(0.00269786 -0.0023503 -2.35517e-05)
(0.00234588 -0.00196806 -2.04792e-05)
(0.00202604 -0.00164156 -1.76873e-05)
(0.0017377 -0.00136402 -1.51704e-05)
(0.00147972 -0.00112918 -1.29184e-05)
(0.00125057 -0.00093129 -1.0918e-05)
(0.00104849 -0.000765128 -9.15397e-06)
(0.000871494 -0.000625988 -7.60882e-06)
(0.000717467 -0.000509693 -6.26416e-06)
(0.000584208 -0.000412555 -5.10079e-06)
(0.000469582 -0.000331429 -4.10008e-06)
(0.000371602 -0.000263665 -3.24469e-06)
(0.000288489 -0.000207042 -2.51908e-06)
(0.000218654 -0.000159681 -1.9094e-06)
(0.000160565 -0.000119964 -1.40224e-06)
(0.000112807 -8.66104e-05 -9.85282e-07)
(7.4271e-05 -5.8644e-05 -6.48844e-07)
(4.39028e-05 -3.51624e-05 -3.83686e-07)
(2.06085e-05 -1.54146e-05 -1.80247e-07)
(3.41816e-06 1.23503e-06 -3.00808e-08)
(-8.55674e-06 1.51822e-05 7.45321e-08)
(-1.60508e-05 2.6572e-05 1.40004e-07)
(-1.96931e-05 3.54038e-05 1.71844e-07)
(-2.01126e-05 4.15585e-05 1.7555e-07)
(-1.79853e-05 4.47557e-05 1.57022e-07)
(-1.40269e-05 4.44849e-05 1.225e-07)
(-9.06122e-06 3.99611e-05 7.91689e-08)
(-4.03165e-06 3.00036e-05 3.52941e-08)
(-3.76875e-07 1.29856e-05 4.00138e-09)
(0.00662767 -0.00813634 -5.78524e-05)
(0.00605582 -0.00702985 -5.28615e-05)
(0.0054908 -0.0060401 -4.793e-05)
(0.00494146 -0.00516209 -4.31354e-05)
(0.00441503 -0.00438936 -3.85405e-05)
(0.00391701 -0.00371433 -3.41935e-05)
(0.00345138 -0.00312879 -3.01293e-05)
(0.00302069 -0.00262421 -2.63699e-05)
(0.00262618 -0.00219202 -2.29262e-05)
(0.002268 -0.00182389 -1.97996e-05)
(0.00194542 -0.00151191 -1.69837e-05)
(0.00165705 -0.00124871 -1.44664e-05)
(0.0014011 -0.00102759 -1.22321e-05)
(0.0011755 -0.000842517 -1.02628e-05)
(0.000978029 -0.000688119 -8.53891e-06)
(0.000806334 -0.000559657 -7.04003e-06)
(0.000657998 -0.000452985 -5.74504e-06)
(0.000530569 -0.000364478 -4.63255e-06)
(0.000421711 -0.000291039 -3.68218e-06)
(0.000329287 -0.00023005 -2.87527e-06)
(0.00025142 -0.000179319 -2.19547e-06)
(0.00018647 -0.000137027 -1.62842e-06)
(0.000132868 -0.00010165 -1.16043e-06)
(8.91676e-05 -7.19667e-05 -7.78891e-07)
(5.42664e-05 -4.70311e-05 -4.74185e-07)
(2.71488e-05 -2.61067e-05 -2.37412e-07)
(6.76132e-06 -8.55211e-06 -5.93527e-08)
(-7.8441e-06 6.16977e-06 6.82513e-08)
(-1.75549e-05 1.84276e-05 1.53104e-07)
(-2.30939e-05 2.83948e-05 2.01509e-07)
(-2.5059e-05 3.60802e-05 2.18705e-07)
(-2.40469e-05 4.13458e-05 2.09911e-07)
(-2.07115e-05 4.38934e-05 1.80834e-07)
(-1.5755e-05 4.32148e-05 1.37597e-07)
(-9.99886e-06 3.85511e-05 8.73644e-08)
(-4.38769e-06 2.87817e-05 3.84122e-08)
(-4.0018e-07 1.23822e-05 4.2638e-09)
(0.00679383 -0.00797016 -5.93034e-05)
(0.00616087 -0.00683434 -5.3779e-05)
(0.00554407 -0.0058281 -4.83955e-05)
(0.00495211 -0.00494392 -4.32288e-05)
(0.00439172 -0.00417304 -3.83374e-05)
(0.00386767 -0.00350581 -3.37632e-05)
(0.00338304 -0.00293222 -2.95331e-05)
(0.00293943 -0.00244228 -2.56608e-05)
(0.00253712 -0.00202622 -2.21489e-05)
(0.00217531 -0.00167479 -1.89907e-05)
(0.00185242 -0.00137937 -1.6172e-05)
(0.00156626 -0.0011321 -1.3674e-05)
(0.00131436 -0.00092588 -1.1475e-05)
(0.00109408 -0.000754464 -9.55201e-06)
(0.000902705 -0.00061239 -7.88138e-06)
(0.000737533 -0.000494936 -6.43944e-06)
(0.000595867 -0.000398044 -5.20267e-06)
(0.000475048 -0.0003182 -4.14787e-06)
(0.000372583 -0.000252402 -3.2533e-06)
(0.00028622 -0.000198095 -2.4993e-06)
(0.000214002 -0.000153139 -1.8688e-06)
(0.000154242 -0.000115791 -1.34705e-06)
(0.00010535 -8.46323e-05 -9.20177e-07)
(6.58781e-05 -5.8504e-05 -5.75548e-07)
(3.47185e-05 -3.64872e-05 -3.03504e-07)
(1.08875e-05 -1.79985e-05 -9.54274e-08)
(-6.608e-06 -2.50945e-06 5.73792e-08)
(-1.86731e-05 1.04063e-05 1.62802e-07)
(-2.61666e-05 2.108e-05 2.28298e-07)
(-2.97916e-05 2.97129e-05 2.59995e-07)
(-3.01235e-05 3.6328e-05 2.62933e-07)
(-2.7732e-05 4.07736e-05 2.42096e-07)
(-2.32466e-05 4.27356e-05 2.02978e-07)
(-1.73508e-05 4.17089e-05 1.5154e-07)
(-1.0859e-05 3.69635e-05 9.48822e-08)
(-4.71241e-06 2.74421e-05 4.12561e-08)
(-4.214e-07 1.17311e-05 4.50269e-09)
(0.00692888 -0.00775332 -6.04829e-05)
(0.00623276 -0.00659508 -5.44071e-05)
(0.00556391 -0.00557936 -4.85692e-05)
(0.00493045 -0.00469579 -4.30401e-05)
(0.0043382 -0.00393299 -3.78706e-05)
(0.00379086 -0.0032791 -3.30931e-05)
(0.00329033 -0.00272224 -2.87241e-05)
(0.00283702 -0.00225091 -2.47671e-05)
(0.00243005 -0.0018542 -2.12145e-05)
(0.0020676 -0.00152201 -1.80505e-05)
(0.00174712 -0.00124512 -1.52529e-05)
(0.00146562 -0.00101521 -1.27955e-05)
(0.00121992 -0.000824932 -1.06506e-05)
(0.00100677 -0.000667885 -8.78992e-06)
(0.000823026 -0.00053858 -7.18584e-06)
(0.000665608 -0.000432365 -5.81156e-06)
(0.000531577 -0.000345316 -4.64145e-06)
(0.000418115 -0.000274077 -3.65086e-06)
(0.000322622 -0.000215781 -2.81716e-06)
(0.000242774 -0.000167976 -2.12003e-06)
(0.000176556 -0.000128605 -1.54189e-06)
(0.000122239 -9.60199e-05 -1.06765e-06)
(7.82361e-05 -6.89141e-05 -6.83454e-07)
(4.31236e-05 -4.61999e-05 -3.76875e-07)
(1.57824e-05 -2.69906e-05 -1.38158e-07)
(-4.74734e-06 -1.08296e-05 4.11e-08)
(-1.93843e-05 2.70654e-06 1.68943e-07)
(-2.89722e-05 1.39345e-05 2.5273e-07)
(-3.43143e-05 2.31385e-05 2.99439e-07)
(-3.60838e-05 3.05361e-05 3.14939e-07)
(-3.4841e-05 3.61635e-05 3.04131e-07)
(-3.11338e-05 3.98596e-05 2.71808e-07)
(-2.55658e-05 4.12991e-05 2.23237e-07)
(-1.87975e-05 3.99833e-05 1.6418e-07)
(-1.16316e-05 3.52122e-05 1.01635e-07)
(-5.00153e-06 2.59954e-05 4.37881e-08)
(-4.40118e-07 1.10371e-05 4.71362e-09)
(0.00702378 -0.00748199 -6.1312e-05)
(0.00626404 -0.0063099 -5.46808e-05)
(0.00554438 -0.00529308 -4.83993e-05)
(0.00487188 -0.00441787 -4.25293e-05)
(0.00425107 -0.0036701 -3.71104e-05)
(0.00368421 -0.00303553 -3.21624e-05)
(0.00317174 -0.0025004 -2.76891e-05)
(0.00271262 -0.00205173 -2.36814e-05)
(0.00230468 -0.00167757 -2.01203e-05)
(0.00194493 -0.00136705 -1.69799e-05)
(0.00162985 -0.00111045 -1.42293e-05)
(0.00135562 -0.000899172 -1.18354e-05)
(0.00111834 -0.000725695 -9.76396e-06)
(0.000914217 -0.000583563 -7.98196e-06)
(0.000739624 -0.000467332 -6.45777e-06)
(0.000591171 -0.000372474 -5.16175e-06)
(0.000465709 -0.000295236 -4.06642e-06)
(0.000360305 -0.000232454 -3.1462e-06)
(0.000272311 -0.000181436 -2.37795e-06)
(0.00019937 -0.000139874 -1.74111e-06)
(0.000139436 -0.000105831 -1.21783e-06)
(9.07575e-05 -7.77737e-05 -7.9281e-07)
(5.17685e-05 -5.45118e-05 -4.52374e-07)
(2.10962e-05 -3.50405e-05 -1.8455e-07)
(-2.38852e-06 -1.85202e-05 2.05126e-08)
(-1.96271e-05 -4.58515e-06 1.71044e-07)
(-3.14562e-05 7.09939e-06 2.74365e-07)
(-3.86449e-05 1.67539e-05 3.3719e-07)
(-4.19179e-05 2.46087e-05 3.65828e-07)
(-4.19082e-05 3.08787e-05 3.65796e-07)
(-3.91647e-05 3.56059e-05 3.4189e-07)
(-3.42179e-05 3.8624e-05 2.98746e-07)
(-2.76445e-05 3.96035e-05 2.41396e-07)
(-2.00785e-05 3.80556e-05 1.75372e-07)
(-1.23067e-05 3.33128e-05 1.07537e-07)
(-5.25062e-06 2.44535e-05 4.59697e-08)
(-4.55865e-07 1.03056e-05 4.8917e-09)
(0.00706981 -0.00715264 -6.17144e-05)
(0.00624732 -0.00597733 -5.45355e-05)
(0.00547956 -0.00496925 -4.78341e-05)
(0.00477195 -0.0041112 -4.16575e-05)
(0.0041272 -0.00338601 -3.60296e-05)
(0.00354572 -0.00277707 -3.09538e-05)
(0.00302616 -0.00226877 -2.64185e-05)
(0.00256582 -0.00184678 -2.24e-05)
(0.00216109 -0.0014982 -1.88669e-05)
(0.00180776 -0.00121157 -1.57825e-05)
(0.00150128 -0.000976831 -1.31071e-05)
(0.00123704 -0.000785212 -1.08002e-05)
(0.00101046 -0.000629166 -8.82218e-06)
(0.000817207 -0.000502298 -7.1351e-06)
(0.000653259 -0.000399285 -5.70381e-06)
(0.000514932 -0.000315773 -4.49619e-06)
(0.000398916 -0.000248211 -3.48332e-06)
(0.000302216 -0.000193652 -2.63908e-06)
(0.000222179 -0.000149613 -1.9403e-06)
(0.000156465 -0.000113968 -1.36655e-06)
(0.000103029 -8.49392e-05 -8.9999e-07)
(6.01166e-05 -6.11255e-05 -5.25301e-07)
(2.62053e-05 -4.1458e-05 -2.29191e-07)
(-3.76645e-09 -2.50269e-05 -3.24399e-10)
(-1.96401e-05 -1.10609e-05 1.71157e-07)
(-3.36262e-05 7.53345e-07 2.93303e-07)
(-4.27155e-05 1.06833e-05 3.72696e-07)
(-4.75948e-05 1.88758e-05 4.15342e-07)
(-4.88957e-05 2.55046e-05 4.26754e-07)
(-4.7201e-05 3.07598e-05 4.12012e-07)
(-4.30477e-05 3.46772e-05 3.75801e-07)
(-3.69505e-05 3.70897e-05 3.22614e-07)
(-2.94586e-05 3.76705e-05 2.57244e-07)
(-2.11773e-05 3.5946e-05 1.84974e-07)
(-1.28745e-05 3.12828e-05 1.12499e-07)
(-5.45521e-06 2.28298e-05 4.77615e-08)
(-4.6812e-07 9.54259e-06 5.03154e-09)
(0.0070557 -0.00676353 -6.1592e-05)
(0.00617414 -0.00559736 -5.38973e-05)
(0.00536332 -0.00460915 -4.68199e-05)
(0.00462644 -0.00377785 -4.03877e-05)
(0.00396391 -0.00308325 -3.46045e-05)
(0.0033739 -0.00250639 -2.94543e-05)
(0.00285301 -0.00202996 -2.49072e-05)
(0.00239671 -0.00163848 -2.0924e-05)
(0.00199984 -0.00131828 -1.74594e-05)
(0.00165692 -0.00105747 -1.44658e-05)
(0.00136242 -0.000845837 -1.18949e-05)
(0.00111093 -0.000674614 -9.69938e-06)
(0.000897298 -0.000536372 -7.83436e-06)
(0.000716722 -0.00042489 -6.25789e-06)
(0.000564825 -0.000335056 -4.93179e-06)
(0.000437701 -0.000262734 -3.82195e-06)
(0.000331928 -0.000204605 -2.8985e-06)
(0.000244496 -0.000157953 -2.13518e-06)
(0.0001728 -0.000120529 -1.50921e-06)
(0.00011455 -9.04236e-05 -1.00063e-06)
(6.77447e-05 -6.60482e-05 -5.91945e-07)
(3.06535e-05 -4.61562e-05 -2.68071e-07)
(1.81926e-06 -2.97996e-05 -1.62843e-08)
(-1.99661e-05 -1.61765e-05 1.73968e-07)
(-3.58134e-05 -4.60607e-06 3.12386e-07)
(-4.66188e-05 5.20609e-06 4.06773e-07)
(-5.30555e-05 1.34828e-05 4.63002e-07)
(-5.5727e-05 2.03243e-05 4.86357e-07)
(-5.51662e-05 2.58498e-05 4.81505e-07)
(-5.18983e-05 3.02037e-05 4.53029e-07)
(-4.6443e-05 3.3403e-05 4.05453e-07)
(-3.92979e-05 3.52819e-05 3.43118e-07)
(-3.09844e-05 3.55242e-05 2.70574e-07)
(-2.20779e-05 3.36762e-05 1.92844e-07)
(-1.3325e-05 2.91411e-05 1.16438e-07)
(-5.61078e-06 2.11386e-05 4.91241e-08)
(-4.76317e-07 8.75473e-06 5.12737e-09)
(0.00697201 -0.00631375 -6.08623e-05)
(0.00603707 -0.00517126 -5.27015e-05)
(0.00519033 -0.00421534 -4.53104e-05)
(0.00443189 -0.00342107 -3.869e-05)
(0.00375929 -0.00276527 -3.28186e-05)
(0.00316805 -0.00222688 -2.76575e-05)
(0.00265245 -0.00178714 -2.31567e-05)
(0.00220604 -0.00142964 -1.92597e-05)
(0.00182204 -0.0011402 -1.59074e-05)
(0.00149373 -0.000906765 -1.30413e-05)
(0.00121464 -0.000719125 -1.06049e-05)
(0.000978673 -0.000568706 -8.54486e-06)
(0.000780159 -0.000448347 -6.81177e-06)
(0.000613931 -0.000352128 -5.36053e-06)