/*--------------------------------*- C++ -*----------------------------------*\
| =========                 |                                                 |
| \\      /  F ield         | OpenFOAM: The Open Source CFD Toolbox           |
|  \\    /   O peration     | Version:  v2012                                 |
|   \\  /    A nd           | Website:  www.openfoam.com                      |
|    \\/     M anipulation  |                                                 |
\*---------------------------------------------------------------------------*/
FoamFile
{
    version     2.0;
    format      ascii;
    class       volVectorField;
    location    "0.9";
    object      U;
}
// * * * * * * * * * * * * * * * * * * * * * * * * * * * * * * * * * * * * * //

dimensions      [0 1 -1 0 0 0 0];


internalField   nonuniform List<vector> 
3352
(
(-0.0264046 -43.73 0.000230432)
(0.0687475 -42.727 -0.000600069)
(-0.089482 -40.222 0.000780637)
(0.0610842 -38.694 -0.000533267)
(-0.0264927 -37.3134 0.00023101)
(0.252563 -36.2989 -0.00220398)
(0.315655 -27.5012 -0.00275173)
(0.303044 -22.4916 -0.00263391)
(0.280194 -21.5717 -0.00244275)
(0.264407 -20.3683 -0.00230654)
(0.24897 -18.6731 -0.00217247)
(0.233638 -16.7036 -0.00203879)
(0.218937 -14.8311 -0.00191058)
(0.20498 -13.3169 -0.00178903)
(0.19061 -12.1696 -0.00166377)
(0.17561 -11.2806 -0.00153289)
(0.16034 -10.5466 -0.00139962)
(0.145084 -9.89703 -0.00126648)
(0.129955 -9.29065 -0.00113443)
(0.115048 -8.7066 -0.00100432)
(0.100419 -8.13631 -0.000876647)
(0.0861223 -7.57763 -0.000751861)
(0.0721958 -7.03127 -0.000630308)
(0.0586757 -6.49877 -0.000512301)
(0.0455942 -5.98166 -0.000398121)
(0.0329859 -5.4811 -0.00028807)
(0.02089 -4.99779 -0.000182491)
(0.00935496 -4.5321 -8.18041e-05)
(-0.00156053 -4.08411 1.34765e-05)
(-0.0117844 -3.65378 0.000102723)
(-0.02123 -3.24099 0.00018518)
(-0.0297949 -2.84557 0.000259952)
(-0.0373591 -2.46741 0.000325993)
(-0.0437822 -2.1064 0.000382079)
(-0.0488999 -1.76253 0.000426776)
(-0.0525133 -1.4358 0.00045835)
(-0.0543836 -1.12631 0.000474718)
(-0.0541628 -0.834214 0.000472856)
(-0.0514887 -0.559725 0.00044958)
(-0.0314746 -43.7903 0.000274689)
(0.0932611 -42.6981 -0.000814004)
(-0.125357 -40.1322 0.00109373)
(0.116138 -38.8085 -0.00101383)
(-0.0597087 -37.6004 0.000520764)
(0.330973 -36.8722 -0.00288817)
(0.35979 -27.7 -0.00313641)
(0.327607 -22.5412 -0.00284551)
(0.307497 -21.6213 -0.00268038)
(0.296074 -20.4114 -0.00258253)
(0.278673 -18.7044 -0.0024315)
(0.259384 -16.7251 -0.00226332)
(0.241361 -14.8464 -0.00210615)
(0.225669 -13.3262 -0.00196956)
(0.209132 -12.1726 -0.00182543)
(0.191325 -11.2787 -0.00167006)
(0.17293 -10.5412 -0.00150952)
(0.154733 -9.88922 -0.00135069)
(0.137045 -9.28115 -0.00119631)
(0.120058 -8.69591 -0.00104805)
(0.103803 -8.12483 -0.000906176)
(0.0882738 -7.56565 -0.000770634)
(0.0734288 -7.01901 -0.000641065)
(0.0592301 -6.48643 -0.000517135)
(0.0456461 -5.96941 -0.000398572)
(0.0326623 -5.46907 -0.000285246)
(0.0202813 -4.98609 -0.00017718)
(0.0085254 -4.52086 -7.45701e-05)
(-0.00256492 -4.07344 2.2232e-05)
(-0.0129304 -3.64378 0.000112709)
(-0.0224936 -3.23175 0.000196186)
(-0.0311592 -2.83721 0.000271829)
(-0.0388135 -2.46001 0.000338648)
(-0.0453227 -2.10008 0.000395476)
(-0.0505317 -1.75739 0.000440958)
(-0.0542546 -1.43197 0.000473473)
(-0.0562789 -1.12392 0.000491165)
(-0.0563014 -0.833455 0.000491395)
(-0.0540979 -0.560894 0.00047218)
(-0.0270264 -43.8379 0.000235869)
(0.0811666 -42.6749 -0.000708448)
(-0.0969081 -40.1834 0.000845548)
(0.204895 -38.8765 -0.00178854)
(-0.0489242 -37.7232 0.000426612)
(0.367777 -37.1776 -0.00320933)
(0.354254 -27.7668 -0.00308762)
(0.357064 -22.566 -0.00310113)
(0.339411 -21.6516 -0.00295874)
(0.324338 -20.4297 -0.00282925)
(0.298903 -18.7101 -0.0026083)
(0.27313 -16.7272 -0.0023836)
(0.252119 -14.85 -0.0022003)
(0.236648 -13.3295 -0.00206548)
(0.220799 -12.1728 -0.00192728)
(0.203192 -11.2758 -0.00177365)
(0.184102 -10.5362 -0.00160704)
(0.164614 -9.88296 -0.00143696)
(0.145342 -9.27421 -0.00126876)
(0.126746 -8.68858 -0.00110645)
(0.108995 -8.11726 -0.000951518)
(0.0921513 -7.55792 -0.000804496)
(0.0761848 -7.01115 -0.000665133)
(0.0610454 -6.47849 -0.000532991)
(0.0466768 -5.96141 -0.000407575)
(0.0330373 -5.46106 -0.000288523)
(0.0201042 -4.97815 -0.000175635)
(0.00787837 -4.51303 -6.89208e-05)
(-0.00361687 -4.06582 3.14178e-05)
(-0.014336 -3.63645 0.000124984)
(-0.0242125 -3.22482 0.000211197)
(-0.0331608 -2.83076 0.00028931)
(-0.0410766 -2.45416 0.000358412)
(-0.0478369 -2.09494 0.000417431)
(-0.0533016 -1.75307 0.000465146)
(-0.0573079 -1.4286 0.000500133)
(-0.0596848 -1.12165 0.000520901)
(-0.0602043 -0.83242 0.000525464)
(-0.0587952 -0.561258 0.000513184)
(-0.0181979 -43.8897 0.000158826)
(0.0688223 -42.6636 -0.000600723)
(-0.0702644 -40.3228 0.000613114)
(0.267062 -38.9748 -0.0023312)
(-0.0540791 -37.9221 0.000471597)
(0.417509 -37.6019 -0.00364328)
(0.366299 -27.8966 -0.00319252)
(0.366568 -22.6362 -0.00318255)
(0.352477 -21.7086 -0.00307245)
(0.339176 -20.4629 -0.00295862)
(0.312821 -18.7254 -0.00272977)
(0.285946 -16.7372 -0.0024955)
(0.264463 -14.8616 -0.00230807)
(0.249565 -13.3399 -0.00217823)
(0.234236 -12.1777 -0.00204456)
(0.216619 -11.2746 -0.00189084)
(0.196683 -10.5306 -0.00171686)
(0.175747 -9.87463 -0.00153414)
(0.154696 -9.26434 -0.00135041)
(0.134269 -8.67798 -0.00117212)
(0.114795 -8.10642 -0.00100215)
(0.0964224 -7.54709 -0.000841789)
(0.079143 -7.00049 -0.000690967)
(0.0628949 -6.46806 -0.000549147)
(0.0475939 -5.95126 -0.000415593)
(0.0331673 -5.45123 -0.00028967)
(0.0195632 -4.96866 -0.000170926)
(0.00675803 -4.50395 -5.91545e-05)
(-0.00524463 -4.05718 4.56134e-05)
(-0.0164148 -3.62832 0.000143116)
(-0.0266984 -3.21726 0.000232884)
(-0.0360207 -2.82384 0.000314262)
(-0.0442884 -2.44795 0.000386437)
(-0.0513914 -2.08952 0.000448449)
(-0.0572073 -1.74852 0.000499228)
(-0.0615999 -1.42499 0.000537589)
(-0.0644426 -1.11905 0.000562422)
(-0.0655847 -0.830883 0.000572418)
(-0.065068 -0.560783 0.000567931)
(0.00321636 -43.9527 -2.80686e-05)
(0.0348255 -42.65 -0.000304027)
(-0.0128236 -40.5725 0.00011193)
(0.315197 -39.0262 -0.00275139)
(-0.047228 -38.0936 0.000411848)
(0.450227 -37.9847 -0.00392876)
(0.379112 -27.9793 -0.00330445)
(0.380497 -22.6818 -0.00330377)
(0.363598 -21.755 -0.00316952)
(0.349427 -20.4889 -0.00304809)
(0.322085 -18.7344 -0.00281066)
(0.294784 -16.7423 -0.00257269)
(0.272953 -14.8702 -0.00238224)
(0.258178 -13.3489 -0.00225343)
(0.243259 -12.1823 -0.00212332)
(0.226075 -11.2739 -0.00197337)
(0.206121 -10.5254 -0.00179924)
(0.184652 -9.86641 -0.00161187)
(0.162632 -9.25441 -0.0014197)
(0.140983 -8.66725 -0.00123074)
(0.120186 -8.09541 -0.00104922)
(0.100506 -7.5361 -0.000877447)
(0.082003 -6.98965 -0.000715942)
(0.0646461 -6.45744 -0.000564442)
(0.0483577 -5.9409 -0.000422268)
(0.0330583 -5.44115 -0.000288726)
(0.0186826 -4.95891 -0.000163247)
(0.00519247 -4.49456 -4.54961e-05)
(-0.0074229 -4.04821 6.462e-05)
(-0.019146 -3.61983 0.000166949)
(-0.0299339 -3.20933 0.000261119)
(-0.0397226 -2.81654 0.000346567)
(-0.0484298 -2.44136 0.000422578)
(-0.0559589 -2.0837 0.000488308)
(-0.062206 -1.74355 0.000542852)
(-0.0670621 -1.42094 0.000585255)
(-0.0704404 -1.11595 0.000614762)
(-0.0722561 -0.828755 0.000630634)
(-0.0726171 -0.55955 0.000633806)
(0.0317363 -44.019 -0.000276977)
(-0.0142317 -42.6507 0.000124104)
(0.0679928 -40.9403 -0.000593289)
(0.32447 -39.041 -0.00283245)
(-0.0328306 -38.2959 0.000286254)
(0.464607 -38.3868 -0.00405423)
(0.391376 -28.0735 -0.00341151)
(0.38471 -22.7399 -0.00334)
(0.368004 -21.8101 -0.00320791)
(0.354738 -20.522 -0.0030944)
(0.328715 -18.7497 -0.00286855)
(0.302658 -16.7526 -0.00264146)
(0.281248 -14.8826 -0.00245468)
(0.266424 -13.3608 -0.00232542)
(0.251383 -12.1893 -0.00219423)
(0.234111 -11.2745 -0.00204352)
(0.213878 -10.5207 -0.00186695)
(0.191857 -9.85796 -0.00167477)
(0.169014 -9.24371 -0.00147541)
(0.146356 -8.65542 -0.00127765)
(0.124455 -8.08317 -0.00108649)
(0.103657 -7.52387 -0.000904964)
(0.0840732 -6.97765 -0.000734023)
(0.0657024 -6.44577 -0.000573674)
(0.048479 -5.9296 -0.000423339)
(0.0323242 -5.43024 -0.00028233)
(0.0171674 -4.94842 -0.000150032)
(0.00296275 -4.48451 -2.60444e-05)
(-0.0103085 -4.03865 8.9797e-05)
(-0.0226366 -3.61081 0.000197408)
(-0.0339862 -3.20089 0.00029648)
(-0.0443008 -2.80877 0.000386519)
(-0.0535072 -2.43431 0.000466887)
(-0.0615206 -2.07744 0.000536844)
(-0.0682532 -1.73813 0.000595625)
(-0.0736194 -1.41641 0.000642481)
(-0.0775643 -1.11233 0.000676932)
(-0.0800508 -0.826018 0.000698656)
(-0.0812144 -0.557602 0.000708832)
(0.0683607 -44.0901 -0.000596619)
(-0.0761596 -42.6643 0.000664567)
(0.167569 -41.3935 -0.00146227)
(0.285612 -38.9794 -0.00249348)
(-0.00879422 -38.5159 7.65723e-05)
(0.454113 -38.7778 -0.00396267)
(0.409697 -28.1612 -0.00357152)
(0.391434 -22.7851 -0.0033985)
(0.372967 -21.86 -0.00325127)
(0.358879 -20.5534 -0.00313057)
(0.333465 -18.7647 -0.00291002)
(0.308213 -16.7627 -0.00268999)
(0.28702 -14.8943 -0.00250509)
(0.271847 -13.372 -0.00237277)
(0.25645 -12.1959 -0.00223846)
(0.238988 -11.2752 -0.00208609)
(0.218595 -10.516 -0.00190812)
(0.19631 -9.84945 -0.00171364)
(0.173028 -9.23278 -0.00151045)
(0.149758 -8.64319 -0.00130735)
(0.127112 -8.0704 -0.00110969)
(0.105487 -7.51103 -0.000920939)
(0.0850405 -6.965 -0.000742476)
(0.0658089 -6.43342 -0.000574613)
(0.0477483 -5.91762 -0.000416971)
(0.0307925 -5.41867 -0.00026897)
(0.0148765 -4.93728 -0.000130045)
(-4.43333e-05 -4.47384 1.93104e-07)
(-0.0139897 -4.02849 0.000121918)
(-0.026952 -3.60121 0.000235065)
(-0.038899 -3.19191 0.000339352)
(-0.0497786 -2.80046 0.000434322)
(-0.0595236 -2.42674 0.000519392)
(-0.0680582 -2.07067 0.000593898)
(-0.0753072 -1.73221 0.000657185)
(-0.0812032 -1.41136 0.000708665)
(-0.0857133 -1.10816 0.000748049)
(-0.0888309 -0.822681 0.00077528)
(-0.0906916 -0.554999 0.00079154)
(0.107117 -44.1635 -0.000934866)
(-0.141551 -42.7032 0.00123525)
(0.273384 -41.8959 -0.00238576)
(0.198271 -38.8403 -0.00173138)
(0.0236846 -38.775 -0.000206755)
(0.418478 -39.1699 -0.00365173)
(0.428294 -28.267 -0.00373382)
(0.394399 -22.8312 -0.00342405)
(0.376162 -21.9113 -0.00327918)
(0.361302 -20.5875 -0.00315175)
(0.33667 -18.7829 -0.00293803)
(0.312123 -16.7754 -0.00272415)
(0.291126 -14.9076 -0.00254097)
(0.275437 -13.3839 -0.00240413)
(0.25948 -12.2029 -0.00226492)
(0.241599 -11.2761 -0.00210888)
(0.220926 -10.5115 -0.00192847)
(0.198383 -9.84091 -0.00173174)
(0.17479 -9.2216 -0.00152584)
(0.151114 -8.63052 -0.00131919)
(0.12796 -8.05706 -0.0011171)
(0.105742 -7.49753 -0.000923177)
(0.0846423 -6.95162 -0.000739009)
(0.0647193 -6.42034 -0.000565112)
(0.0459495 -5.90491 -0.000401279)
(0.0282821 -5.40638 -0.000247068)
(0.0116631 -4.92544 -0.000102008)
(-0.00394417 -4.46249 3.42225e-05)
(-0.0185541 -4.01767 0.000161748)
(-0.0321554 -3.59098 0.000280473)
(-0.044714 -3.18233 0.000390098)
(-0.0561777 -2.79158 0.000490166)
(-0.0664815 -2.41862 0.000580113)
(-0.0755547 -2.06336 0.000659321)
(-0.0833305 -1.72574 0.000727206)
(-0.0897538 -1.40576 0.000783287)
(-0.0948043 -1.10342 0.000827387)
(-0.0984907 -0.818765 0.000859583)
(-0.100933 -0.551809 0.000880922)
(0.142887 -44.2383 -0.00124706)
(-0.199656 -42.7689 0.00174236)
(0.366871 -42.386 -0.0032017)
(0.073231 -38.6205 -0.000640225)
(0.0599434 -39.0715 -0.000523028)
(0.361788 -39.5577 -0.00315702)
(0.447686 -28.3943 -0.00390299)
(0.397602 -22.8719 -0.00345176)
(0.379707 -21.9594 -0.0033102)
(0.363102 -20.6203 -0.00316752)
(0.338513 -18.801 -0.00295416)
(0.313923 -16.788 -0.0027399)
(0.29272 -14.9201 -0.00255492)
(0.276266 -13.3949 -0.00241139)
(0.259658 -12.2091 -0.00226649)
(0.241335 -11.2766 -0.00210658)
(0.220459 -10.5068 -0.0019244)
(0.197811 -9.83218 -0.00172675)
(0.174126 -9.21021 -0.00152004)
(0.150291 -8.61756 -0.00131201)
(0.126884 -8.04332 -0.00110772)
(0.104312 -7.48354 -0.000910698)
(0.0827652 -6.93769 -0.000722631)
(0.0623208 -6.40664 -0.000544184)
(0.0429744 -5.89154 -0.00037532)
(0.0246931 -5.39341 -0.000215751)
(0.00743873 -4.91291 -6.51452e-05)
(-0.00881212 -4.45045 7.67021e-05)
(-0.0240627 -4.00618 0.00020982)
(-0.0382931 -3.58009 0.000334035)
(-0.0514623 -3.1721 0.00044899)
(-0.063514 -2.78207 0.00055419)
(-0.0743813 -2.40989 0.000649055)
(-0.0839945 -2.05546 0.000732977)
(-0.0922907 -1.71871 0.000805404)
(-0.0992212 -1.3996 0.000865913)
(-0.104771 -1.09813 0.000914367)
(-0.108952 -0.8143 0.000950884)
(-0.111862 -0.548092 0.000976307)
(0.168296 -44.3146 -0.00146882)
(-0.238267 -42.8644 0.00207933)
(0.430855 -42.8073 -0.00376022)
(-0.0677026 -38.3423 0.000589707)
(0.0938426 -39.4042 -0.000818676)
(0.292985 -39.9457 -0.00255659)
(0.462101 -28.5531 -0.00402864)
(0.397993 -22.9135 -0.00345495)
(0.381676 -22.0068 -0.00332744)
(0.363281 -20.6528 -0.00316915)
(0.338511 -18.8195 -0.00295419)
(0.313494 -16.8008 -0.00273621)
(0.291885 -14.9322 -0.00254767)
(0.274556 -13.4052 -0.00239649)
(0.257285 -12.2148 -0.00224578)
(0.238527 -11.2767 -0.00208209)
(0.217506 -10.5018 -0.00189864)
(0.194853 -9.82331 -0.00170094)
(0.171221 -9.19865 -0.00149469)
(0.147405 -8.60437 -0.00128683)
(0.123939 -8.02926 -0.00108201)
(0.101201 -7.46912 -0.000883553)
(0.0793828 -6.92324 -0.000693114)
(0.0585679 -6.39235 -0.000511434)
(0.038768 -5.87754 -0.000338612)
(0.019968 -5.37976 -0.000174517)
(0.00214807 -4.89969 -1.89754e-05)
(-0.0146979 -4.43772 0.000128066)
(-0.0305577 -3.99399 0.0002665)
(-0.0453978 -3.56851 0.000396037)
(-0.0591663 -3.1612 0.000516223)
(-0.0717984 -2.77192 0.000626489)
(-0.0832216 -2.40054 0.000726207)
(-0.0933634 -2.04696 0.000814742)
(-0.10216 -1.71109 0.000891541)
(-0.109565 -1.39289 0.000956189)
(-0.115561 -1.0923 0.00100854)
(-0.120159 -0.809321 0.00104869)
(-0.123429 -0.543901 0.00107726)
(0.178613 -44.3924 -0.00155886)
(-0.249057 -42.9843 0.0021735)
(0.450463 -43.1078 -0.00393148)
(-0.20098 -38.035 0.00175289)
(0.117278 -39.7594 -0.00102301)
(0.22349 -40.3338 -0.00195009)
(0.468685 -28.7435 -0.00408591)
(0.396195 -22.9559 -0.00343917)
(0.381671 -22.0522 -0.00332749)
(0.361354 -20.6834 -0.00315242)
(0.33603 -18.8368 -0.00293261)
(0.310237 -16.8124 -0.00270784)
(0.288059 -14.943 -0.00251432)
(0.269856 -13.414 -0.00235549)
(0.252032 -12.2193 -0.00219995)
(0.232989 -11.276 -0.00203376)
(0.212 -10.4964 -0.00185058)
(0.189529 -9.81419 -0.00165447)
(0.166146 -9.18692 -0.0014504)
(0.142543 -8.59098 -0.00124439)
(0.119204 -8.01493 -0.00104068)
(0.0964733 -7.45434 -0.000842289)
(0.0745353 -6.90834 -0.000650808)
(0.0534791 -6.37753 -0.000467023)
(0.033331 -5.86293 -0.000291163)
(0.0140949 -5.36546 -0.000123262)
(-0.00422849 -4.88577 3.66729e-05)
(-0.0216244 -4.42427 0.000188514)
(-0.0380614 -3.98108 0.000331986)
(-0.0534887 -3.55622 0.000466648)
(-0.0678396 -3.1496 0.000591917)
(-0.0810371 -2.76109 0.000707118)
(-0.0929999 -2.39054 0.000811545)
(-0.103649 -2.03784 0.00090451)
(-0.112917 -1.70289 0.000985421)
(-0.120754 -1.38561 0.00105384)
(-0.127138 -1.08595 0.00110958)
(-0.132072 -0.803858 0.00115266)
(-0.135602 -0.539283 0.0011835)
(0.170582 -44.4725 -0.00148876)
(-0.22762 -43.12 0.00198643)
(0.418913 -43.2538 -0.00365631)
(-0.305737 -37.7341 0.00266724)
(0.124112 -40.124 -0.00108248)
(0.164677 -40.723 -0.00143683)
(0.463546 -28.9628 -0.0040409)
(0.390478 -23.0026 -0.0033893)
(0.377938 -22.0967 -0.00329502)
(0.356089 -20.7122 -0.00310657)
(0.330167 -18.8526 -0.00288151)
(0.303629 -16.8227 -0.00265021)
(0.280982 -14.9523 -0.00245259)
(0.262126 -13.4215 -0.00228804)
(0.243996 -12.2229 -0.00212982)
(0.224909 -11.2748 -0.00196324)
(0.204172 -10.4907 -0.00178226)
(0.182083 -9.8049 -0.00158948)
(0.159132 -9.17507 -0.00138917)
(0.135909 -8.57744 -0.00118648)
(0.112848 -8.00038 -0.000985206)
(0.0902595 -7.43925 -0.000788055)
(0.0683191 -6.89301 -0.000596555)
(0.0471202 -6.36219 -0.000411526)
(0.026704 -5.84772 -0.000233326)
(0.00709444 -5.35049 -6.21671e-05)
(-0.0116843 -4.87115 0.000101742)
(-0.0295943 -4.41008 0.000258069)
(-0.0465814 -3.96743 0.000406342)
(-0.0625745 -3.54319 0.000545942)
(-0.0774888 -3.13729 0.000676128)
(-0.0912326 -2.74956 0.000796098)
(-0.103713 -2.37988 0.000905041)
(-0.114841 -2.02809 0.00100219)
(-0.124544 -1.69409 0.00108689)
(-0.132764 -1.37778 0.00115866)
(-0.139473 -1.07909 0.00121724)
(-0.144664 -0.797943 0.00126257)
(-0.148362 -0.534277 0.00129487)
(0.145044 -44.5557 -0.00126589)
(-0.176282 -43.2562 0.0015384)
(0.337954 -43.2325 -0.00294992)
(-0.367411 -37.4726 0.00320566)
(0.112537 -40.4828 -0.000981365)
(0.124149 -41.1109 -0.00108315)
(0.445442 -29.2013 -0.00388282)
(0.380609 -23.0542 -0.00330347)
(0.369559 -22.1399 -0.00322203)
(0.346658 -20.7383 -0.00302438)
(0.320168 -18.8662 -0.00279432)
(0.293137 -16.831 -0.00255869)
(0.270302 -14.9599 -0.0023594)
(0.251191 -13.4275 -0.00219262)
(0.233138 -12.2254 -0.00203506)
(0.214362 -11.2729 -0.00187119)
(0.194172 -10.4847 -0.00169498)
(0.172711 -9.79547 -0.00150768)
(0.150392 -9.16313 -0.00131289)
(0.127712 -8.56379 -0.00111494)
(0.105061 -7.98564 -0.000917246)
(0.082722 -7.42385 -0.000722267)
(0.0608643 -6.87728 -0.00053149)
(0.0395892 -6.34633 -0.000345797)
(0.0189561 -5.8319 -0.000165706)
(-0.000987932 -5.33485 8.37144e-06)
(-0.0201929 -4.85581 0.000175999)
(-0.0385945 -4.39515 0.000336616)
(-0.0561134 -3.95302 0.000489531)
(-0.0726554 -3.52941 0.000633922)
(-0.0881155 -3.12423 0.000768872)
(-0.102385 -2.73733 0.000893429)
(-0.115356 -2.36854 0.00100666)
(-0.126931 -2.01771 0.00110771)
(-0.137026 -1.68471 0.00119584)
(-0.145578 -1.36942 0.00127049)
(-0.152547 -1.07175 0.00133135)
(-0.157918 -0.791604 0.00137825)
(-0.161698 -0.528918 0.00141127)
(0.106612 -44.6426 -0.000930461)
(-0.105032 -43.377 0.000916584)
(0.226906 -43.0547 -0.00198091)
(-0.378898 -37.2781 0.00330611)
(0.0844988 -40.8234 -0.000736644)
(0.104186 -41.4924 -0.000908932)
(0.415307 -29.4478 -0.00361989)
(0.365698 -23.1118 -0.00317401)
(0.355597 -22.1815 -0.00310036)
(0.332291 -20.7617 -0.00289914)
(0.305489 -18.8776 -0.00266627)
(0.278489 -16.8375 -0.00243088)
(0.255963 -14.966 -0.00223428)
(0.237177 -13.4323 -0.00207032)
(0.219694 -12.2271 -0.00191773)
(0.201651 -11.2707 -0.00176025)
(0.182333 -10.4785 -0.00159165)
(0.161748 -9.78602 -0.00141199)
(0.140241 -9.15119 -0.00122429)
(0.118236 -8.55007 -0.00103223)
(0.0960885 -7.97071 -0.000838928)
(0.0740628 -7.40815 -0.000646687)
(0.0523314 -6.86111 -0.000457015)
(0.0310088 -6.32993 -0.000270908)
(0.0101767 -5.81545 -8.90823e-05)
(-0.0100909 -5.3185 8.78178e-05)
(-0.029715 -4.8397 0.000259103)
(-0.0486024 -4.37943 0.00042396)
(-0.0666463 -3.93781 0.000581456)
(-0.0837273 -3.51484 0.000730552)
(-0.0997187 -3.11041 0.000870139)
(-0.114493 -2.72436 0.000999105)
(-0.127928 -2.35651 0.00111639)
(-0.139914 -2.00669 0.00122101)
(-0.150356 -1.67474 0.00131217)
(-0.159182 -1.36053 0.00138923)
(-0.166347 -1.06394 0.00145179)
(-0.171823 -0.784869 0.00149961)
(-0.175604 -0.523236 0.00153264)
(0.0640274 -44.7333 -0.0005588)
(-0.0297309 -43.474 0.00025941)
(0.11465 -42.765 -0.00100133)
(-0.350308 -37.15 0.00305678)
(0.0485102 -41.1379 -0.000422608)
(0.100449 -41.8595 -0.000876312)
(0.377249 -29.691 -0.00328798)
(0.345769 -23.1733 -0.0030012)
(0.33591 -22.2212 -0.0029288)
(0.312751 -20.782 -0.00272877)
(0.286003 -18.8864 -0.00249627)
(0.259701 -16.8424 -0.00226693)
(0.238125 -14.9708 -0.00207861)
(0.220349 -13.4363 -0.00192345)
(0.203998 -12.2284 -0.00178072)
(0.187149 -11.2682 -0.00163367)
(0.169035 -10.4724 -0.00147558)
(0.149564 -9.77664 -0.00130564)
(0.129024 -9.13927 -0.00112638)
(0.107788 -8.53628 -0.000941031)
(0.0861939 -7.95559 -0.000752564)
(0.0645014 -7.39212 -0.000563233)
(0.0428961 -6.84448 -0.000374663)
(0.0215139 -6.31294 -0.000188039)
(0.000465073 -5.79831 -4.3221e-06)
(-0.0201452 -5.3014 0.000175567)
(-0.0402054 -4.82279 0.000350658)
(-0.059591 -4.36287 0.000519862)
(-0.0781658 -3.92177 0.000681992)
(-0.0957843 -3.49945 0.000835779)
(-0.112297 -3.0958 0.000979915)
(-0.127557 -2.71065 0.00111312)
(-0.141428 -2.34379 0.0012342)
(-0.153785 -1.99503 0.00134208)
(-0.164526 -1.6642 0.00143585)
(-0.173571 -1.35113 0.00151481)
(-0.180864 -1.05569 0.00157849)
(-0.186371 -0.777762 0.00162659)
(-0.190076 -0.517258 0.00165896)
(0.0250226 -44.8266 -0.000218383)
(0.0364012 -43.5501 -0.000317745)
(0.0231391 -42.4171 -0.000202772)
(-0.300095 -37.0737 0.0026187)
(0.012786 -41.4248 -0.000110913)
(0.105403 -42.2031 -0.000919535)
(0.336404 -29.9224 -0.00293193)
(0.321524 -23.2356 -0.00279117)
(0.310803 -22.258 -0.00271009)
(0.288276 -20.7989 -0.00251533)
(0.262029 -18.8929 -0.0022871)
(0.237205 -16.846 -0.00207061)
(0.217309 -14.975 -0.00189693)
(0.201274 -13.44 -0.00175696)
(0.186626 -12.2297 -0.00162909)
(0.171414 -11.266 -0.00149632)
(0.1548 -10.4664 -0.00135132)
(0.13663 -9.76745 -0.00119274)
(0.117153 -9.12744 -0.00102276)
(0.0967195 -8.52243 -0.000844422)
(0.0756695 -7.94024 -0.000660703)
(0.0542739 -7.37569 -0.000473966)
(0.0327433 -6.82731 -0.000286049)
(0.0112444 -6.29529 -9.84082e-05)
(-0.0100775 -5.78041 8.76899e-05)
(-0.031081 -5.28346 0.000271011)
(-0.0516193 -4.80502 0.000450273)
(-0.0715341 -4.34544 0.000624096)
(-0.090659 -3.90485 0.000791027)
(-0.108822 -3.48321 0.000949565)
(-0.12585 -3.08038 0.0010982)
(-0.141579 -2.69618 0.0012355)
(-0.155855 -2.33036 0.00136012)
(-0.168544 -1.98273 0.00147089)
(-0.179535 -1.65308 0.00156684)
(-0.188738 -1.34123 0.00164719)
(-0.196093 -1.04701 0.00171142)
(-0.20156 -0.770309 0.00175915)
(-0.205114 -0.511012 0.00179021)
(-0.00597607 -44.9211 5.21587e-05)
(0.0866954 -43.6137 -0.000756684)
(-0.0384807 -42.0531 0.000334954)
(-0.247758 -37.0269 0.00216207)
(-0.0204008 -41.6866 0.000178645)
(0.110491 -42.5181 -0.000963919)
(0.298004 -30.1375 -0.00259738)
(0.294365 -23.2942 -0.00255623)
(0.281337 -22.2902 -0.00245341)
(0.259687 -20.8121 -0.002266)
(0.234397 -18.8973 -0.00204599)
(0.211834 -16.8488 -0.00184918)
(0.194338 -14.9791 -0.00169644)
(0.180739 -13.4439 -0.00157772)
(0.168311 -12.2314 -0.00146923)
(0.155111 -11.2642 -0.00135402)
(0.140217 -10.4609 -0.00122403)
(0.123457 -9.75851 -0.00107776)
(0.105064 -9.11568 -0.000917238)
(0.0853957 -8.50845 -0.000745581)
(0.0648119 -7.92457 -0.000565934)
(0.043615 -7.35877 -0.000380934)
(0.022053 -6.80948 -0.000192746)
(0.000333456 -6.27687 -3.18027e-06)
(-0.0213568 -5.76166 0.000186132)
(-0.0428358 -5.26461 0.000373601)
(-0.0639184 -4.78629 0.000557614)
(-0.0844117 -4.32706 0.000736485)
(-0.104118 -3.887 0.000908494)
(-0.12284 -3.46607 0.00107191)
(-0.140382 -3.06412 0.00122503)
(-0.156563 -2.68092 0.00136627)
(-0.171215 -2.31623 0.00149418)
(-0.184195 -1.9698 0.00160749)
(-0.195382 -1.64141 0.00170515)
(-0.204683 -1.33085 0.00178636)
(-0.212033 -1.03794 0.00185054)
(-0.217386 -0.762532 0.00189729)
(-0.220718 -0.50452 0.00192641)
(-0.0277523 -45.0151 0.00024221)
(0.119642 -43.6744 -0.00104423)
(-0.0690376 -41.6998 0.000601615)
(-0.210729 -36.9815 0.00183901)
(-0.0520363 -41.9282 0.000454689)
(0.107651 -42.8054 -0.000939097)
(0.265847 -30.3372 -0.00231743)
(0.26555 -23.3433 -0.00230723)
(0.249136 -22.3159 -0.00217291)
(0.228285 -20.8215 -0.00199218)
(0.20445 -18.8999 -0.00178466)
(0.184804 -16.8516 -0.00161326)
(0.17037 -14.9838 -0.00148724)
(0.159776 -13.4487 -0.00139474)
(0.149971 -12.2339 -0.00130914)
(0.139029 -11.2631 -0.00121364)
(0.125959 -10.4559 -0.00109957)
(0.110608 -9.74986 -0.000965603)
(0.0932184 -9.10395 -0.00081384)
(0.074186 -8.49425 -0.000647738)
(0.0539119 -7.90846 -0.000470797)
(0.0327473 -7.34121 -0.000286081)
(0.0109903 -6.79087 -9.61927e-05)
(-0.0111018 -6.25754 9.66225e-05)
(-0.0332944 -5.74192 0.000290317)
(-0.0553611 -5.24473 0.000482916)
(-0.077077 -4.76653 0.000672456)
(-0.0982139 -4.30765 0.000856944)
(-0.118545 -3.86816 0.0010344)
(-0.137846 -3.448 0.00120287)
(-0.155903 -3.04699 0.00136049)
(-0.172519 -2.66487 0.00150553)
(-0.187516 -2.30138 0.00163645)
(-0.200741 -1.95623 0.00175191)
(-0.21207 -1.62918 0.00185081)
(-0.221407 -1.32 0.00193233)
(-0.228682 -1.02848 0.00199585)
(-0.23385 -0.754456 0.00204099)
(-0.236886 -0.497808 0.00206753)
(-0.0409837 -45.1072 0.000357684)
(0.137338 -43.7423 -0.00119867)
(-0.0735115 -41.3614 0.000640669)
(-0.205473 -36.9067 0.0017932)
(-0.0852717 -42.1564 0.00074473)
(0.0904272 -43.0707 -0.000788732)
(0.240761 -30.5277 -0.00209919)
(0.236741 -23.3774 -0.00205854)
(0.216193 -22.3341 -0.00188603)
(0.195859 -20.827 -0.00170943)
(0.173883 -18.9012 -0.00151791)
(0.157599 -16.8548 -0.0013758)
(0.146767 -14.9896 -0.00128122)
(0.139551 -13.4548 -0.0012182)
(0.132602 -12.2376 -0.00115753)
(0.124 -11.2629 -0.00108245)
(0.112711 -10.4514 -0.000983927)
(0.0986366 -9.74142 -0.000861105)
(0.0820572 -9.09211 -0.000716418)
(0.0634346 -8.47966 -0.000553896)
(0.043231 -7.89171 -0.000377574)
(0.0218631 -7.32282 -0.000191086)
(-0.000309632 -6.77128 2.4287e-06)
(-0.0229718 -6.23714 0.000200218)
(-0.0458362 -5.72105 0.000399776)
(-0.0686299 -5.2237 0.000598719)
(-0.0910872 -4.74563 0.000794729)
(-0.112946 -4.28713 0.000985516)
(-0.13395 -3.84827 0.00116885)
(-0.153855 -3.42895 0.0013426)
(-0.172429 -3.02896 0.00150473)
(-0.189462 -2.64801 0.00165341)
(-0.20477 -2.2858 0.00178704)
(-0.218193 -1.94203 0.00190422)
(-0.229606 -1.61642 0.00200386)
(-0.238911 -1.3087 0.0020851)
(-0.24604 -1.01866 0.00214736)
(-0.25095 -0.746103 0.00219024)
(-0.253618 -0.490899 0.00221357)
(-0.0482825 -45.1958 0.000421381)
(0.144717 -43.8262 -0.00126307)
(-0.0605265 -41.0184 0.000527377)
(-0.241325 -36.7716 0.00210614)
(-0.124386 -42.3814 0.00108611)
(0.0561272 -43.3234 -0.000489323)
(0.222019 -30.7192 -0.00193624)
(0.210172 -23.3944 -0.00182953)
(0.184633 -22.3436 -0.0016112)
(0.164567 -20.8284 -0.00143654)
(0.144682 -18.9017 -0.00126307)
(0.132021 -16.8592 -0.00115255)
(0.125056 -14.9972 -0.0010917)
(0.12134 -13.4625 -0.00105923)
(0.117255 -12.2427 -0.00102355)
(0.110867 -11.2637 -0.000967807)
(0.101144 -10.4475 -0.000882961)
(0.0880662 -9.73306 -0.000768838)
(0.071981 -9.07997 -0.000628469)
(0.0534394 -8.46445 -0.000466658)
(0.0329832 -7.87409 -0.000288133)
(0.0111087 -7.30337 -9.72265e-05)
(-0.0117539 -6.7505 0.000102307)
(-0.0352248 -6.21547 0.000307154)
(-0.0589613 -5.69887 0.000514323)
(-0.0826426 -5.20137 0.000721013)
(-0.105964 -4.72346 0.000924562)
(-0.12863 -4.26542 0.0011224)
(-0.150362 -3.82726 0.00131208)
(-0.170894 -3.40887 0.00149131)
(-0.189984 -3.00999 0.00165795)
(-0.207413 -2.63031 0.00181009)
(-0.222992 -2.2695 0.00194608)
(-0.236561 -1.92721 0.00206454)
(-0.247995 -1.60313 0.00216436)
(-0.257199 -1.29698 0.00224472)
(-0.264108 -1.0085 0.00230506)
(-0.268685 -0.737498 0.00234504)
(-0.270911 -0.483818 0.00236452)
(-0.0527012 -45.2799 0.000459939)
(0.148018 -43.9328 -0.00129187)
(-0.0422597 -40.6342 0.000367993)
(-0.317208 -36.5519 0.00276841)
(-0.171277 -42.6119 0.00149541)
(0.00852785 -43.5766 -7.38386e-05)
(0.20648 -30.9229 -0.00180107)
(0.187291 -23.3942 -0.00163265)
(0.15649 -22.344 -0.00136613)
(0.136491 -20.8263 -0.0011917)
(0.11886 -18.9019 -0.00103771)
(0.109851 -16.8652 -0.000959015)
(0.106733 -15.0069 -0.000931747)
(0.10637 -13.4722 -0.000928541)
(0.104907 -12.2492 -0.000915763)
(0.100398 -11.2653 -0.000876416)
(0.0918472 -10.4439 -0.000801808)
(0.0793367 -9.72452 -0.000692643)
(0.0633086 -9.06723 -0.000552775)
(0.0444212 -8.4483 -0.00038795)
(0.0233117 -7.85529 -0.000203726)
(0.000566657 -7.28256 -5.22398e-06)
(-0.0233056 -6.72827 0.000203121)
(-0.0478573 -6.1923 0.0004174)
(-0.072689 -5.6752 0.000634127)
(-0.0974332 -5.17759 0.000850094)
(-0.121748 -4.69991 0.00106232)
(-0.145311 -4.24241 0.00126798)
(-0.167822 -3.80506 0.00146447)
(-0.189003 -3.38771 0.00164936)
(-0.208602 -2.99007 0.00182044)
(-0.226398 -2.61178 0.00197578)
(-0.242202 -2.25247 0.00211375)
(-0.255858 -1.91177 0.00223297)
(-0.267245 -1.58934 0.00233238)
(-0.276274 -1.28484 0.00241122)
(-0.282887 -0.998029 0.00246897)
(-0.287053 -0.728666 0.00250536)
(-0.288762 -0.476589 0.00252033)
(-0.0587557 -45.3583 0.000512778)
(0.154479 -44.0641 -0.00134825)
(-0.0309894 -40.1664 0.000269641)
(-0.419399 -36.2366 0.00366028)
(-0.224096 -42.8558 0.00195648)
(-0.0427273 -43.8416 0.000373542)
(0.190362 -31.1462 -0.00166065)
(0.168955 -23.3811 -0.00147513)
(0.133487 -22.336 -0.00116579)
(0.113482 -20.8213 -0.000991067)
(0.0981938 -18.9024 -0.000857346)
(0.0926455 -16.8733 -0.000808821)
(0.0931218 -15.019 -0.000812919)
(0.0957062 -13.4839 -0.000835444)
(0.0963945 -12.257 -0.000841447)
(0.0932227 -11.2676 -0.00081378)
(0.0852808 -10.4402 -0.00074449)
(0.0727688 -9.71542 -0.000635317)
(0.0562486 -9.05351 -0.00049116)
(0.0365007 -8.43085 -0.000318828)
(0.0142701 -7.83495 -0.000124822)
(-0.00975877 -7.26009 8.48843e-05)
(-0.0349954 -6.7043 0.000305137)
(-0.0609227 -6.16739 0.000531421)
(-0.0870855 -5.64983 0.000759767)
(-0.113073 -5.15219 0.000986588)
(-0.138512 -4.67485 0.00120862)
(-0.163056 -4.218 0.00142285)
(-0.18639 -3.7816 0.00162653)
(-0.208231 -3.36543 0.00181717)
(-0.228324 -2.96916 0.00199257)
(-0.246449 -2.59239 0.00215079)
(-0.262424 -2.23472 0.00229025)
(-0.276101 -1.89573 0.00240964)
(-0.287365 -1.57505 0.00250799)
(-0.296139 -1.27233 0.00258461)
(-0.302375 -0.987268 0.00263907)
(-0.30605 -0.719632 0.00267118)
(-0.307166 -0.469238 0.00268097)
(-0.0683204 -45.4309 0.000596252)
(0.168119 -44.2171 -0.00146728)
(-0.0374831 -39.5814 0.000326302)
(-0.526335 -35.8333 0.00459357)
(-0.276549 -43.1191 0.00241437)
(-0.0840303 -44.1254 0.000734037)
(0.172444 -31.389 -0.00150436)
(0.155796 -23.3619 -0.0013623)
(0.116791 -22.3215 -0.00102032)
(0.0969547 -20.8146 -0.00084693)
(0.0840561 -18.9041 -0.000733945)
(0.0816446 -16.8839 -0.000712772)
(0.0852389 -15.0336 -0.000744088)
(0.0901526 -13.4974 -0.000786949)
(0.092316 -12.2658 -0.000805835)
(0.0897654 -11.2701 -0.000783597)
(0.0817214 -10.4361 -0.000713423)
(0.0685205 -9.7053 -0.000598243)
(0.0508664 -9.03833 -0.000444193)
(0.0296736 -8.41164 -0.000259254)
(0.005804 -7.81267 -5.09445e-05)
(-0.0199557 -7.23558 0.000173867)
(-0.0469313 -6.67828 0.000409297)
(-0.0745379 -6.14048 0.000650239)
(-0.102269 -5.62255 0.000892272)
(-0.129675 -5.125 0.00113148)
(-0.156357 -4.64814 0.00136436)
(-0.181954 -4.19212 0.00158778)
(-0.206144 -3.75682 0.00179893)
(-0.228642 -3.34199 0.00199531)
(-0.249198 -2.94725 0.00217475)
(-0.267603 -2.57215 0.00233542)
(-0.283683 -2.21626 0.0024758)
(-0.297303 -1.87911 0.0025947)