/*--------------------------------*- C++ -*----------------------------------*\
| =========                 |                                                 |
| \\      /  F ield         | OpenFOAM: The Open Source CFD Toolbox           |
|  \\    /   O peration     | Version:  v2012                                 |
|   \\  /    A nd           | Website:  www.openfoam.com                      |
|    \\/     M anipulation  |                                                 |
\*---------------------------------------------------------------------------*/
FoamFile
{
    version     2.0;
    format      ascii;
    class       volVectorField;
    location    "0.5";
    object      U;
}
// * * * * * * * * * * * * * * * * * * * * * * * * * * * * * * * * * * * * * //

dimensions      [0 1 -1 0 0 0 0];


internalField   nonuniform List<vector> 
2660
(
(-0.153272 -29.5105 0.00136625)
(-0.66119 -21.2967 0.00575279)
(0.491467 -11.2289 -0.00433812)
(0.0247294 -1.60789 -0.000200817)
(0.274268 4.63238 -0.00234867)
(0.0618407 -29.1958 -0.000542475)
(0.15211 -21.7065 -0.00136551)
(0.836564 -12.2117 -0.00737336)
(0.427905 -0.320617 -0.00376034)
(-0.142539 4.3282 0.00126707)
(0.0591278 -29.7949 -0.0005145)
(0.599728 -22.7551 -0.00528067)
(1.00058 -12.885 -0.00881393)
(1.19105 -1.56641 -0.0104526)
(0.00482658 4.49109 -4.14211e-05)
(0.216684 -29.9592 -0.00188946)
(0.190302 -22.9725 -0.00172045)
(-0.42597 -11.9063 0.00363069)
(0.788026 -0.920056 -0.00698125)
(0.00349284 5.04882 -4.34462e-05)
(-0.367113 -30.7769 0.00322289)
(-0.980123 -23.5649 0.00848668)
(-1.59697 -11.8026 0.0138518)
(-0.866416 1.60885 0.0075083)
(-0.0592221 5.29511 0.00050161)
(-0.0574776 -31.6206 0.000489072)
(-0.250698 -24.7348 0.00210957)
(0.163585 -14.0076 -0.00151306)
(-0.529646 2.32334 0.0045634)
(0.159165 5.83295 -0.00141667)
(0.0675005 -31.9987 -0.000603673)
(0.27205 -25.1596 -0.00245333)
(1.35379 -16.3079 -0.0118795)
(2.15853 -1.70887 -0.0188924)
(1.13029 6.47208 -0.00992108)
(0.335362 -32.4328 -0.00294995)
(0.410624 -25.3696 -0.00366293)
(0.819652 -16.9291 -0.00720386)
(1.79089 -4.25896 -0.0156944)
(0.908014 7.35259 -0.0079695)
(0.17615 -33.2372 -0.00155214)
(0.321144 -26.5748 -0.00287467)
(1.01248 -18.3161 -0.00888156)
(0.366439 -4.2074 -0.00322449)
(0.487139 4.79199 -0.00425089)
(0.316067 -34.1176 -0.0027894)
(0.905442 -28.4515 -0.00797614)
(1.03176 -23.4915 -0.00905702)
(-2.18289 -10.2754 0.0190195)
(-1.98905 -2.24852 0.0173878)
(0.100953 -35.1931 -0.000900141)
(-1.01956 -30.9478 0.00883038)
(-3.07298 -27.5353 0.0267807)
(-0.837997 -14.7159 0.00731032)
(0.565506 -4.43077 -0.00495539)
(0.256562 -36.3085 -0.00224852)
(-0.12265 -32.0646 0.00101612)
(0.791223 -27.1239 -0.0069325)
(0.0206303 -13.8052 -0.000205516)
(-0.0642381 -3.20192 0.000545236)
(0.200988 -37.111 -0.00173558)
(0.17091 -31.8971 -0.0015292)
(0.494064 -26.4131 -0.00433148)
(0.12729 -13.549 -0.00113108)
(0.268976 -3.50448 -0.00235193)
(0.0275212 -37.6843 -0.000248452)
(0.293062 -32.9822 -0.00259392)
(0.432172 -27.7452 -0.00379758)
(1.44975 -14.2127 -0.0126722)
(0.651847 -2.57566 -0.00571163)
(-0.0875956 -38.1407 0.000759614)
(0.262591 -33.4157 -0.00232006)
(0.147773 -29.7228 -0.00131352)
(1.49636 -15.0707 -0.0130799)
(0.645631 -0.825703 -0.00567048)
(0.397176 -38.3184 -0.00349223)
(-0.167994 -33.0573 0.00144069)
(0.322112 -30.506 -0.00283788)
(1.26448 -15.3019 -0.0110666)
(0.217262 1.08749 -0.00191339)
(0.105624 -38.697 -0.000958465)
(-4.35022 -35.1867 0.0379363)
(-3.72365 -32.1014 0.032473)
(-0.455402 -17.0719 0.00396234)
(0.495619 0.22629 -0.00434576)
(-0.900082 -39.8282 0.00780415)
(-3.41136 -38.6812 0.0297263)
(-2.03465 -34.5451 0.0177401)
(-0.290047 -18.1907 0.00253262)
(1.06471 1.46252 -0.00931574)
(-0.280302 -40.2579 0.00240609)
(1.25698 -39.1762 -0.0110039)
(2.00623 -36.2445 -0.0175276)
(-0.10858 -22.5539 0.000946578)
(-3.49964 0.960865 0.0306017)
(-0.928349 -40.3926 0.00808668)
(1.426 -39.5623 -0.0124716)
(0.797882 -38.4838 -0.00696808)
(1.58946 -28.0113 -0.0138713)
(1.42155 -5.89757 -0.0123932)
(-0.605308 -41.0391 0.00525611)
(0.783718 -40.593 -0.00686314)
(0.107709 -38.8465 -0.000940581)
(0.291638 -26.9364 -0.00253211)
(1.09882 -8.98122 -0.00959518)
(-0.33753 -41.0911 0.00288582)
(-0.542849 -41.3669 0.00471054)
(0.331459 -39.1519 -0.00288346)
(-1.14255 -27.6799 0.00999673)
(1.04859 -8.49605 -0.0091476)
(0.103747 -41.1946 -0.000974351)
(-0.13515 -42.1996 0.00115785)
(-0.925415 -41.3145 0.00809671)
(-1.64818 -28.9576 0.0144154)
(0.926705 -9.13988 -0.0080763)
(0.374856 -41.1802 -0.0033462)
(-0.226389 -42.8867 0.00196431)
(0.303032 -42.3386 -0.00262199)
(-0.293571 -30.7581 0.00258502)
(-0.179359 -9.78016 0.00157363)
(0.230082 -41.066 -0.00206909)
(0.121908 -42.8448 -0.00106365)
(0.0384918 -42.1177 -0.000308643)
(0.246062 -32.7319 -0.00212596)
(0.419738 -11.2036 -0.00367168)
(0.179088 -41.3354 -0.0016041)
(0.175977 -43.0433 -0.0015191)
(-0.22325 -42.2979 0.00198013)
(0.0221115 -32.7657 -0.000170903)
(0.114769 -11.1848 -0.00100083)
(0.201809 -42.2376 -0.00177076)
(0.194953 -43.5177 -0.00167548)
(-0.0824872 -42.6941 0.000748254)
(0.156705 -32.7014 -0.00134728)
(0.0195583 -9.90528 -0.000154412)
(0.143972 -43.708 -0.00124776)
(0.0658541 -44.1801 -0.00054497)
(0.371889 -43.1741 -0.00322034)
(0.426896 -33.2177 -0.0037074)
(0.0549593 -9.57899 -0.000460368)
(0.264855 -44.2739 -0.00232809)
(0.144264 -44.5605 -0.00123311)
(0.386655 -43.4183 -0.00335622)
(0.510696 -33.6424 -0.00444283)
(0.0524237 -9.83812 -0.000456378)
(-0.104908 -44.2025 0.000922164)
(-0.0637264 -44.8828 0.000586102)
(0.0508445 -43.5322 -0.000423513)
(0.604621 -33.7767 -0.00526406)
(-0.109988 -9.88933 0.000955978)
(-0.192533 -43.9938 0.00171912)
(-0.325681 -45.222 0.0028706)
(-0.0389958 -43.493 0.000358802)
(0.789499 -33.9819 -0.00687753)
(-0.411887 -9.15433 0.00359984)
(-0.0556546 -44.1251 0.000550562)
(-0.510569 -45.471 0.00448439)
(-0.318612 -43.5606 0.00279895)
(0.864425 -34.5464 -0.00753139)
(-0.697225 -8.16803 0.00611029)
(0.283366 -44.4775 -0.00241515)
(-0.358492 -45.8825 0.00315248)
(-0.538176 -43.9773 0.00471309)
(0.92158 -35.3343 -0.00803203)
(-0.825003 -7.6587 0.00722943)
(0.437915 -44.8068 -0.00376971)
(-0.261579 -46.3688 0.00230689)
(-0.30595 -44.6038 0.0026818)
(0.94256 -36.003 -0.00821795)
(-0.679958 -7.50477 0.00595123)
(-0.0592847 -0.000747741 0.000517467)
(-0.0514934 -0.000609426 0.000449475)
(-0.044773 -0.000500415 0.000390818)
(-0.038954 -0.000413234 0.000340032)
(-0.0338967 -0.000342931 0.000295883)
(-0.0294891 -0.000286082 0.000257405)
(-0.0256371 -0.000239884 0.000223789)
(-0.0222628 -0.000202139 0.000194331)
(-0.0193023 -0.000171222 0.0001685)
(-0.0167006 -0.000144905 0.00014578)
(-0.0144127 -0.000123519 0.000125818)
(-0.0123997 -0.000104261 0.000108239)
(-0.0106282 -8.92322e-05 9.27811e-05)
(-0.00907195 -7.63338e-05 7.92019e-05)
(-0.00770487 -6.53166e-05 6.72629e-05)
(-0.00650511 -5.57086e-05 5.67986e-05)
(-0.0054535 -4.75808e-05 4.7607e-05)
(-0.00453326 -4.06713e-05 3.95672e-05)
(-0.00372943 -3.46927e-05 3.25591e-05)
(-0.00302848 -2.94499e-05 2.64378e-05)
(-0.00241877 -2.47536e-05 2.1121e-05)
(-0.00189006 -2.09047e-05 1.64998e-05)
(-0.00143456 -1.85778e-05 1.25231e-05)
(-0.00104533 -1.58322e-05 9.12707e-06)
(-0.000717958 -1.39717e-05 6.26951e-06)
(-0.000449012 -1.18407e-05 3.92244e-06)
(-0.00023949 -9.36483e-06 2.09124e-06)
(-8.73212e-05 -7.14799e-06 7.61342e-07)
(-7.98367e-06 -3.42276e-06 7.65568e-08)
(-0.139275 -0.0066738 0.00121578)
(-0.122191 -0.0056035 0.00106667)
(-0.107213 -0.0047309 0.000935933)
(-0.0940484 -0.00401327 0.000821017)
(-0.0824459 -0.00341886 0.000719727)
(-0.0722008 -0.00292349 0.000630288)
(-0.0631394 -0.00250817 0.000551195)
(-0.0551149 -0.00215778 0.00048114)
(-0.0480038 -0.00186058 0.000419079)
(-0.0416988 -0.00160585 0.000364025)
(-0.036109 -0.00138803 0.000315241)
(-0.0311552 -0.00119851 0.000271989)
(-0.0267683 -0.00103636 0.0002337)
(-0.0228896 -0.000895614 0.000199849)
(-0.0194641 -0.000773454 0.000169941)
(-0.0164437 -0.000667068 0.00014359)
(-0.0137857 -0.000574851 0.000120358)
(-0.0114514 -0.00049491 9.99628e-05)
(-0.00940638 -0.00042549 8.21258e-05)
(-0.00761924 -0.000365079 6.65237e-05)
(-0.00606288 -0.000312298 5.29469e-05)
(-0.00471372 -0.000266112 4.11546e-05)
(-0.00355206 -0.000226298 3.10137e-05)
(-0.00256245 -0.000189583 2.23777e-05)
(-0.00173514 -0.000156141 1.51559e-05)
(-0.00106266 -0.000123514 9.28658e-06)
(-0.00054837 -9.06551e-05 4.79127e-06)
(-0.000188583 -5.70089e-05 1.64837e-06)
(-9.74953e-06 -2.09908e-05 1.11467e-07)
(-0.197365 -0.0155132 0.00172287)
(-0.174582 -0.0132264 0.00152402)
(-0.154337 -0.0113253 0.00134731)
(-0.13632 -0.0097343 0.00119004)
(-0.120258 -0.00839478 0.00104982)
(-0.105925 -0.00726036 0.000924697)
(-0.0931241 -0.00629405 0.000812961)
(-0.0816862 -0.00546627 0.000713108)
(-0.0714662 -0.00475347 0.00062391)
(-0.0623363 -0.00413619 0.000544195)
(-0.0541851 -0.00360003 0.000473053)
(-0.0469151 -0.00313188 0.000409581)
(-0.0404389 -0.00272354 0.000353055)
(-0.0346807 -0.00236626 0.000302798)
(-0.0295691 -0.0020535 0.000258172)
(-0.0250407 -0.00177959 0.000218658)
(-0.0210382 -0.00154017 0.00018368)
(-0.017509 -0.00133102 0.000152847)
(-0.0144057 -0.00114838 0.000125775)
(-0.0116851 -0.000988768 0.000102025)
(-0.00930892 -0.000848926 8.12937e-05)
(-0.00724434 -0.000725328 6.32511e-05)
(-0.00546373 -0.000615093 4.7707e-05)
(-0.00394542 -0.000514899 3.44562e-05)
(-0.00267584 -0.00042132 2.33736e-05)
(-0.00164513 -0.000331229 1.4377e-05)
(-0.000857561 -0.000241828 7.49329e-06)
(-0.000307477 -0.00015037 2.68886e-06)
(-2.29538e-05 -5.5636e-05 2.47405e-07)
(-0.236683 -0.0255741 0.00206609)
(-0.210887 -0.0220745 0.00184094)
(-0.187689 -0.0191188 0.00163845)
(-0.166811 -0.0166086 0.0014562)
(-0.148005 -0.0144652 0.00129204)
(-0.13106 -0.012625 0.00114412)
(-0.115791 -0.0110368 0.00101084)
(-0.102035 -0.00965923 0.000890753)
(-0.0896489 -0.00845882 0.000782645)
(-0.0785046 -0.00740828 0.000685347)
(-0.0684891 -0.00648606 0.000597931)
(-0.0595011 -0.0056741 0.000519463)
(-0.0514486 -0.00495876 0.000449177)
(-0.0442502 -0.00432793 0.00038635)
(-0.0378281 -0.00377159 0.000330283)
(-0.0321121 -0.00328124 0.000280403)
(-0.027038 -0.00284976 0.000236064)
(-0.0225459 -0.00247053 0.000196821)
(-0.0185815 -0.00213744 0.000162233)
(-0.0150942 -0.00184472 0.000131793)
(-0.0120396 -0.00158678 0.000105139)
(-0.00937904 -0.00135779 8.18905e-05)
(-0.00707998 -0.00115227 6.18205e-05)
(-0.00511712 -0.000964453 4.46893e-05)
(-0.00347477 -0.000788308 3.03526e-05)
(-0.00214198 -0.000618584 1.87189e-05)
(-0.00112339 -0.000450545 9.81627e-06)
(-0.000412005 -0.000280383 3.60353e-06)
(-3.5032e-05 -0.000106839 3.70606e-07)
(-0.262321 -0.0358039 0.00228988)
(-0.23526 -0.0312353 0.00205369)
(-0.210661 -0.0273242 0.00183898)
(-0.188298 -0.0239591 0.00164377)
(-0.167964 -0.0210492 0.00146627)
(-0.14948 -0.0185203 0.00130492)
(-0.132686 -0.0163119 0.00115832)
(-0.117437 -0.0143746 0.00102521)
(-0.103607 -0.0126684 0.000904501)
(-0.0910795 -0.0111605 0.000795126)
(-0.0797484 -0.00982423 0.000696227)
(-0.0695189 -0.00863783 0.000606922)
(-0.0603025 -0.00758383 0.000526477)
(-0.0520197 -0.00664742 0.000454185)
(-0.0445932 -0.00581589 0.000389351)
(-0.0379523 -0.00507836 0.000331394)
(-0.032031 -0.00442542 0.000279656)
(-0.0267673 -0.00384825 0.000233675)
(-0.0221041 -0.00333856 0.000192987)
(-0.0179877 -0.00288827 0.000157057)
(-0.0143706 -0.00248938 0.000125493)
(-0.0112113 -0.00213359 9.78891e-05)
(-0.00847493 -0.00181262 7.40017e-05)
(-0.00613449 -0.00151782 5.35745e-05)
(-0.0041735 -0.00124037 3.64564e-05)
(-0.00258082 -0.000972538 2.25535e-05)
(-0.00136147 -0.00070769 1.18968e-05)
(-0.000507479 -0.000442257 4.43907e-06)
(-4.5758e-05 -0.000172378 4.80632e-07)
(-0.278224 -0.0456651 0.00242869)
(-0.250981 -0.040217 0.00219092)
(-0.22598 -0.0354965 0.0019727)
(-0.203046 -0.0313868 0.00177251)
(-0.182015 -0.027792 0.00158892)
(-0.162743 -0.0246327 0.00142069)
(-0.145098 -0.0218438 0.00126668)
(-0.128963 -0.0193717 0.00112582)
(-0.114229 -0.0171729 0.000997221)
(-0.100796 -0.0152116 0.000879949)
(-0.0885724 -0.0134583 0.00077326)
(-0.0774736 -0.0118891 0.000676369)
(-0.0674195 -0.0104842 0.000588612)
(-0.0583369 -0.00922728 0.000509338)
(-0.0501529 -0.00810381 0.000437892)
(-0.0428003 -0.00710128 0.000373721)
(-0.0362154 -0.00620861 0.000316188)
(-0.0303371 -0.00541519 0.000264841)
(-0.0251087 -0.00471089 0.000219221)
(-0.0204764 -0.00408552 0.000178788)
(-0.0163921 -0.00352874 0.000143145)
(-0.0128138 -0.00302977 0.000111882)
(-0.00970593 -0.00257742 8.47512e-05)
(-0.00704136 -0.00216008 6.14946e-05)
(-0.00480393 -0.00176596 4.19632e-05)
(-0.00298295 -0.00138481 2.60671e-05)
(-0.00158408 -0.00100831 1.38423e-05)
(-0.000598941 -0.000633222 5.23961e-06)
(-5.59665e-05 -0.000251595 5.85819e-07)
(-0.28708 -0.0548675 0.00250599)
(-0.260318 -0.0487369 0.00227242)
(-0.235551 -0.043366 0.00205623)
(-0.212646 -0.038639 0.00185631)
(-0.191482 -0.0344597 0.00167156)
(-0.171946 -0.0307483 0.00150102)
(-0.153936 -0.0274386 0.00134382)
(-0.137358 -0.0244764 0.00119911)
(-0.122125 -0.0218172 0.00106615)
(-0.108154 -0.0194242 0.000944183)
(-0.0953684 -0.0172675 0.000832589)
(-0.0836961 -0.0153224 0.000730693)
(-0.0730674 -0.0135685 0.00063792)
(-0.0634177 -0.0119887 0.000553696)
(-0.0546811 -0.0105678 0.000477427)
(-0.0467959 -0.0092924 0.000408605)
(-0.0397029 -0.00815049 0.000346635)
(-0.0333443 -0.00713021 0.000291095)
(-0.0276661 -0.00621995 0.000241548)
(-0.022616 -0.00540774 0.000197469)
(-0.0181475 -0.00468112 0.000158472)
(-0.0142195 -0.00402689 0.000124156)
(-0.0107975 -0.00343103 9.42831e-05)
(-0.00785513 -0.00287893 6.86016e-05)
(-0.00537744 -0.00235584 4.69729e-05)
(-0.00335479 -0.001849 2.9316e-05)
(-0.00179388 -0.00134862 1.56759e-05)
(-0.000686719 -0.00085167 6.00805e-06)
(-6.56415e-05 -0.000343983 6.85953e-07)
(-0.290782 -0.0632797 0.00253829)
(-0.264898 -0.0566512 0.00231239)
(-0.24076 -0.0507833 0.0021017)
(-0.218276 -0.0455654 0.00190545)
(-0.197356 -0.0409054 0.00172284)
(-0.17792 -0.0367261 0.00155317)
(-0.15989 -0.0329635 0.00139579)
(-0.143193 -0.0295648 0.00125005)
(-0.127764 -0.0264872 0.00111538)
(-0.113536 -0.0236949 0.000991165)
(-0.100446 -0.0211586 0.000876918)
(-0.0884359 -0.0188545 0.00077207)
(-0.0774456 -0.0167627 0.000676143)
(-0.0674205 -0.0148666 0.000588642)
(-0.0583025 -0.013151 0.000509043)
(-0.0500364 -0.0116026 0.000436895)
(-0.0425689 -0.0102089 0.000371655)
(-0.0358467 -0.00895732 0.000312943)
(-0.0298198 -0.00783529 0.000260351)
(-0.0244391 -0.00682936 0.000213386)
(-0.0196605 -0.00592522 0.000171682)
(-0.0154452 -0.00510745 0.000134859)
(-0.0117608 -0.00435932 0.000102695)
(-0.00858253 -0.00366328 7.49543e-05)
(-0.0058973 -0.0030017 5.15139e-05)
(-0.00369703 -0.00235939 3.23062e-05)
(-0.00199 -0.00172521 1.73899e-05)
(-0.000769588 -0.00109598 6.73363e-06)
(-7.44778e-05 -0.000448851 7.77993e-07)
(-0.290706 -0.0708592 0.00253763)
(-0.26593 -0.0638992 0.00232139)
(-0.242661 -0.0576747 0.00211829)
(-0.220844 -0.0520842 0.00192786)
(-0.200418 -0.0470425 0.00174955)
(-0.181327 -0.0424779 0.00158291)
(-0.163518 -0.0383308 0.00142747)
(-0.146938 -0.0345522 0.00128273)
(-0.131537 -0.031102 0.00114831)
(-0.117263 -0.0279472 0.0010237)
(-0.104069 -0.0250607 0.000908542)
(-0.091906 -0.0224205 0.000802363)
(-0.0807255 -0.0200081 0.000704775)
(-0.0704817 -0.0178082 0.000615366)
(-0.0611244 -0.0158067 0.000533678)
(-0.0526055 -0.0139906 0.000459323)
(-0.0448777 -0.0123477 0.000391812)
(-0.0378933 -0.0108653 0.000330809)
(-0.0316064 -0.00953008 0.000275949)
(-0.0259721 -0.00832759 0.000226771)
(-0.0209498 -0.00724191 0.000182939)
(-0.0165036 -0.00625561 0.000144101)
(-0.0126037 -0.00534943 0.000110056)
(-0.00922782 -0.00450301 8.05899e-05)
(-0.00636506 -0.00369593 5.55996e-05)
(-0.00400938 -0.00291069 3.50351e-05)
(-0.00217123 -0.00213479 1.89739e-05)
(-0.000846453 -0.00136436 7.40674e-06)
(-8.22689e-05 -0.000565374 8.59833e-07)
(-0.287866 -0.0776141 0.00251283)
(-0.264316 -0.0704693 0.00230729)
(-0.242055 -0.0640136 0.00211299)
(-0.221055 -0.0581573 0.00192969)
(-0.201282 -0.0528248 0.00175709)
(-0.182702 -0.047952 0.00159491)
(-0.16528 -0.0434858 0.00144284)
(-0.148982 -0.0393822 0.00130057)
(-0.133771 -0.0356056 0.00116781)
(-0.119611 -0.0321266 0.0010442)
(-0.106464 -0.0289214 0.000929451)
(-0.0942933 -0.0259708 0.000823203)
(-0.0830588 -0.0232585 0.000725144)
(-0.0727232 -0.0207713 0.000634933)
(-0.0632438 -0.0184963 0.000552181)
(-0.0545793 -0.0164219 0.000476553)
(-0.0466884 -0.0145363 0.000407618)
(-0.0395287 -0.0128272 0.000345087)
(-0.0330593 -0.0112809 0.000288634)
(-0.0272396 -0.00988233 0.000237836)
(-0.0220326 -0.00861414 0.000192393)
(-0.0174062 -0.00745713 0.000151981)
(-0.0133334 -0.00638973 0.000116427)
(-0.00979478 -0.00538889 8.55413e-05)
(-0.00678209 -0.00443156 5.92423e-05)
(-0.00429167 -0.00349795 3.75014e-05)
(-0.00233674 -0.00257419 2.04205e-05)
(-0.000916618 -0.00165492 8.02127e-06)
(-8.89342e-05 -0.000692558 9.30586e-07)
(-0.283002 -0.083579 0.00247036)
(-0.260732 -0.0763776 0.002276)
(-0.23955 -0.069801 0.00209112)
(-0.219453 -0.0637739 0.0019157)
(-0.20043 -0.0582323 0.00174965)
(-0.182467 -0.0531216 0.00159285)
(-0.165545 -0.0483964 0.00144515)
(-0.149643 -0.0440193 0.00130634)
(-0.134741 -0.0399603 0.00117628)
(-0.120811 -0.0361946 0.00105467)
(-0.107827 -0.0327026 0.000941344)
(-0.0957599 -0.0294683 0.000836004)
(-0.0845787 -0.0264785 0.000738411)
(-0.0742533 -0.0237224 0.000648289)
(-0.0647477 -0.021189 0.000565308)
(-0.0560266 -0.018868 0.000489185)
(-0.0480544 -0.016749 0.000419542)
(-0.040794 -0.01482 0.000356133)
(-0.0342093 -0.0130676 0.000298673)
(-0.0282638 -0.0114759 0.000246778)
(-0.0229247 -0.0100267 0.000200182)
(-0.0181635 -0.00869923 0.000158594)
(-0.0139564 -0.00746966 0.000121867)
(-0.0102869 -0.0063125 8.98394e-05)
(-0.00714977 -0.00520212 6.24538e-05)
(-0.00454393 -0.00411653 3.97053e-05)
(-0.00248598 -0.00304028 2.17251e-05)
(-0.000979678 -0.00196567 8.57364e-06)
(-9.44696e-05 -0.000829333 9.90123e-07)
(-0.276658 -0.0888015 0.00241497)
(-0.255679 -0.0816552 0.00223188)
(-0.235604 -0.0750544 0.00205667)
(-0.216455 -0.0689401 0.00188952)
(-0.198238 -0.0632618 0.00173051)
(-0.180957 -0.0579759 0.00157966)
(-0.164608 -0.0530461 0.00143697)
(-0.149183 -0.0484427 0.00130232)
(-0.134672 -0.0441423 0.00117567)
(-0.121057 -0.0401255 0.00105682)
(-0.108322 -0.0363772 0.000945662)
(-0.0964445 -0.0328858 0.000841978)
(-0.0854009 -0.0296411 0.000745586)
(-0.075167 -0.0266353 0.000656263)
(-0.065713 -0.0238597 0.000573733)
(-0.057009 -0.0213058 0.000497759)
(-0.0490243 -0.0189645 0.000428008)
(-0.0417267 -0.0168245 0.000364276)
(-0.0350845 -0.0148727 0.000306314)
(-0.0290656 -0.013093 0.000253778)
(-0.0236409 -0.0114663 0.000206434)
(-0.0187854 -0.00997048 0.000164024)
(-0.0144788 -0.00857971 0.000126429)
(-0.0107076 -0.00726615 9.35135e-05)
(-0.00746951 -0.00600168 6.52466e-05)
(-0.00476638 -0.00476207 4.16487e-05)
(-0.00261869 -0.00353004 2.28851e-05)
(-0.00103544 -0.00229457 9.06213e-06)
(-9.89119e-05 -0.000974596 1.03873e-06)
(-0.269239 -0.0933358 0.00235021)
(-0.249534 -0.086341 0.00217823)
(-0.230568 -0.0797999 0.0020127)
(-0.212381 -0.0736716 0.00185396)
(-0.194998 -0.0679204 0.00170222)
(-0.178437 -0.0625148 0.00155766)
(-0.162707 -0.0574291 0.00142037)
(-0.147811 -0.052642 0.00129034)
(-0.133749 -0.0481374 0.0011676)
(-0.120512 -0.0439022 0.00105205)
(-0.108089 -0.0399266 0.000943624)
(-0.0964663 -0.0362033 0.000842166)
(-0.0856255 -0.0327259 0.000747544)
(-0.0755479 -0.0294898 0.000659586)
(-0.0662084 -0.0264888 0.000578056)
(-0.0575819 -0.0237164 0.000502758)
(-0.0496422 -0.0211648 0.000433401)
(-0.0423612 -0.018824 0.000369814)
(-0.0357113 -0.0166812 0.000311785)
(-0.0296643 -0.0147201 0.000259005)
(-0.0241949 -0.0129211 0.00021127)
(-0.0192813 -0.0112607 0.000168354)
(-0.0149066 -0.0097113 0.000130165)
(-0.0110603 -0.0082428 9.65935e-05)
(-0.00774293 -0.0068247 6.76347e-05)
(-0.00495954 -0.00543042 4.33362e-05)
(-0.00273487 -0.00404048 2.39007e-05)
(-0.00108388 -0.00263957 9.4866e-06)
(-0.000102323 -0.00112724 1.07695e-06)
(-0.261049 -0.0972378 0.0022787)
(-0.242582 -0.0904771 0.00211755)
(-0.224708 -0.0840683 0.00196153)
(-0.20748 -0.0779898 0.00181117)
(-0.19094 -0.0722213 0.00166679)
(-0.175117 -0.066745 0.00152868)
(-0.160033 -0.0615462 0.00139702)
(-0.1457 -0.0566133 0.00127191)
(-0.132125 -0.0519382 0.00115343)
(-0.119309 -0.0475145 0.00104155)
(-0.107246 -0.0433383 0.000936264)
(-0.0959276 -0.0394069 0.00083746)
(-0.0853402 -0.0357181 0.00074505)
(-0.0754697 -0.0322706 0.0006589)
(-0.0662952 -0.0290608 0.000578811)
(-0.0577956 -0.0260846 0.00050462)
(-0.0499484 -0.0233356 0.000436073)
(-0.0427293 -0.0208049 0.000373028)
(-0.0361143 -0.0184804 0.000315303)
(-0.0300786 -0.0163458 0.000262621)
(-0.0246002 -0.0143808 0.000214808)
(-0.0196607 -0.0125608 0.000171666)
(-0.015246 -0.0108567 0.000133129)
(-0.0113487 -0.00923607 9.91114e-05)
(-0.00797196 -0.00766608 6.9635e-05)
(-0.00512425 -0.00611765 4.47751e-05)
(-0.00283484 -0.00456871 2.47746e-05)
(-0.00112518 -0.00299861 9.84845e-06)
(-0.00010478 -0.00128617 1.1055e-06)
(-0.252317 -0.100563 0.00220248)
(-0.235045 -0.0941068 0.00205174)
(-0.218232 -0.0878927 0.001905)
(-0.201948 -0.0819186 0.00176287)
(-0.186246 -0.0761813 0.00162581)
(-0.171166 -0.0706769 0.00149419)
(-0.156741 -0.0654029 0.00136828)
(-0.14299 -0.0603578 0.00124825)
(-0.12993 -0.0555421 0.00113426)
(-0.117564 -0.050957 0.00102631)
(-0.105895 -0.0466044 0.000924463)
(-0.0949169 -0.042487 0.000828634)
(-0.0846214 -0.0386068 0.000738773)
(-0.0749978 -0.034966 0.000654776)
(-0.0660285 -0.0315638 0.000576479)
(-0.0576957 -0.0283983 0.000503745)
(-0.0499803 -0.025465 0.000436349)
(-0.0428609 -0.0227559 0.000374176)
(-0.0363167 -0.0202597 0.000317069)
(-0.0303261 -0.01796 0.000264781)
(-0.0248699 -0.0158363 0.000217162)
(-0.0199328 -0.0138629 0.000174042)
(-0.0155033 -0.012009 0.000135375)
(-0.0115766 -0.0102401 0.000101102)
(-0.00815892 -0.00852109 7.12679e-05)
(-0.00526176 -0.00682007 4.59764e-05)
(-0.00291921 -0.00511193 2.55122e-05)
(-0.00115964 -0.00336968 1.01505e-05)
(-0.000106377 -0.00145034 1.12527e-06)
(-0.243223 -0.103367 0.00212309)
(-0.227091 -0.0972734 0.00198231)
(-0.211303 -0.0913062 0.00184452)
(-0.195939 -0.0854835 0.00171041)
(-0.181061 -0.0798189 0.00158055)
(-0.166721 -0.0743234 0.00145538)
(-0.152958 -0.0690071 0.00133525)
(-0.1398 -0.0638793 0.0012204)
(-0.127268 -0.0589499 0.00111102)
(-0.115374 -0.0542275 0.00100719)
(-0.104121 -0.0497207 0.000908979)
(-0.0935109 -0.0454375 0.000816357)
(-0.0835364 -0.0413845 0.000729297)
(-0.0741902 -0.0375675 0.000647723)
(-0.0654577 -0.0339886 0.000571492)
(-0.0573239 -0.0306481 0.000500496)
(-0.0497722 -0.0275434 0.000434531)
(-0.0427838 -0.0246676 0.000373502)
(-0.0363408 -0.0220099 0.000317278)
(-0.030424 -0.0195544 0.000265635)
(-0.025017 -0.0172799 0.000218445)
(-0.0201069 -0.0151599 0.000175562)
(-0.0156849 -0.013162 0.000136961)
(-0.0117485 -0.0112498 0.000102603)
(-0.00830651 -0.00938541 7.25569e-05)
(-0.00537365 -0.00753423 4.69537e-05)
(-0.00298889 -0.00566751 2.61214e-05)
(-0.00118773 -0.00375087 1.03968e-05)
(-0.000107218 -0.00161877 1.13727e-06)
(-0.233904 -0.105702 0.00204174)
(-0.218857 -0.100018 0.00191043)
(-0.204052 -0.0943419 0.00178121)
(-0.189576 -0.0887099 0.00165487)
(-0.175504 -0.0831534 0.00153203)
(-0.161892 -0.0776986 0.00141322)
(-0.148788 -0.0723686 0.00129884)
(-0.136225 -0.067184 0.00118919)
(-0.124231 -0.0621642 0.0010845)
(-0.112819 -0.0573261 0.000984887)
(-0.102 -0.0526851 0.00089046)
(-0.0917763 -0.0482547 0.000801211)
(-0.0821441 -0.0440462 0.000717139)
(-0.0730986 -0.040069 0.00063819)
(-0.0646276 -0.0363284 0.000564241)
(-0.0567182 -0.0328268 0.000495205)
(-0.0493558 -0.0295633 0.000430895)
(-0.0425242 -0.0265323 0.000371235)
(-0.0362075 -0.0237238 0.000316114)
(-0.0303888 -0.0211218 0.000265327)
(-0.0250541 -0.0187049 0.000218768)
(-0.0201925 -0.0164457 0.000176309)
(-0.0157976 -0.0143103 0.000137945)
(-0.0118689 -0.0122602 0.000103654)
(-0.00841772 -0.0102551 7.3528e-05)
(-0.00546181 -0.00825694 4.77237e-05)
(-0.00304497 -0.00623294 2.66117e-05)
(-0.00121004 -0.00414039 1.05924e-05)
(-0.000107419 -0.00179057 1.14263e-06)
(-0.22447 -0.107618 0.00195939)
(-0.210449 -0.102382 0.00183703)
(-0.196581 -0.0970319 0.00171599)
(-0.182961 -0.091623 0.00159712)
(-0.16967 -0.0862042 0.00148111)
(-0.156772 -0.0808169 0.00136852)
(-0.144318 -0.0754977 0.00125982)
(-0.132348 -0.0702787 0.00115534)
(-0.120893 -0.0651893 0.00105536)
(-0.109972 -0.0602548 0.000960025)
(-0.099596 -0.0554975 0.000869467)
(-0.0897714 -0.0509369 0.000783705)
(-0.0804968 -0.0465887 0.000702755)
(-0.0717693 -0.0424664 0.000626581)
(-0.0635784 -0.0385781 0.000555078)
(-0.055913 -0.0349287 0.000488173)
(-0.0487606 -0.0315188 0.000425696)
(-0.0421064 -0.0283441 0.000367587)
(-0.0359366 -0.0253952 0.000313748)
(-0.0302363 -0.0226563 0.000263994)
(-0.0249933 -0.0201057 0.000218236)
(-0.0201988 -0.0177151 0.000176363)
(-0.015848 -0.0154491 0.000138385)
(-0.0119426 -0.0132673 0.000104297)
(-0.00849578 -0.0111265 7.42096e-05)
(-0.00552834 -0.00898525 4.83047e-05)
(-0.00308878 -0.00680594 2.69948e-05)
(-0.00122722 -0.00453657 1.07432e-05)
(-0.000107102 -0.00196493 1.14255e-06)
(-0.215007 -0.109162 0.00187678)
(-0.201952 -0.104404 0.00176285)
(-0.188974 -0.0994066 0.00164958)
(-0.176175 -0.0942469 0.00153788)
(-0.163639 -0.08899 0.00142846)
(-0.151435 -0.0836928 0.00132193)
(-0.13962 -0.0784052 0.00121881)
(-0.128237 -0.0731712 0.00111945)
(-0.11732 -0.0680303 0.00102417)
(-0.106891 -0.0630165 0.000933129)
(-0.0969641 -0.0581591 0.000846488)
(-0.087547 -0.0534836 0.000764284)
(-0.0786406 -0.0490105 0.000686548)
(-0.0702433 -0.0447571 0.000613256)
(-0.0623463 -0.0407345 0.000544319)
(-0.05494 -0.0369498 0.000479675)
(-0.0480133 -0.0334055 0.000419171)
(-0.0415531 -0.0300982 0.000362756)
(-0.0355469 -0.0270192 0.000310344)
(-0.0299816 -0.024153 0.00026177)
(-0.0248467 -0.0214775 0.000216955)
(-0.0201349 -0.0189635 0.000175805)
(-0.015843 -0.0165743 0.000138341)
(-0.0119744 -0.0142673 0.000104574)
(-0.0085441 -0.0119964 7.46313e-05)
(-0.00557556 -0.00971648 4.8717e-05)
(-0.00312176 -0.00738439 2.72831e-05)
(-0.00124004 -0.00493794 1.08557e-05)
(-0.000106393 -0.00214118 1.1383e-06)
(-0.205582 -0.110379 0.0017945)
(-0.193434 -0.106118 0.00168849)
(-0.1813 -0.101495 0.00158259)
(-0.169285 -0.0966049 0.00147773)
(-0.157477 -0.0915293 0.00137466)
(-0.145947 -0.0863403 0.00127403)
(-0.134757 -0.0811017 0.00117635)
(-0.123952 -0.0758693 0.00108204)
(-0.113568 -0.0706928 0.000991411)
(-0.10363 -0.0656147 0.000904657)
(-0.0941536 -0.0606719 0.000821949)
(-0.0851483 -0.0558955 0.000743341)
(-0.0766165 -0.0513111 0.000668874)
(-0.0685576 -0.0469397 0.000598537)
(-0.0609643 -0.0427953 0.00053225)
(-0.053828 -0.0388874 0.000469964)
(-0.0471389 -0.03522 0.000411537)
(-0.0408852 -0.0317909 0.000356925)
(-0.0350559 -0.0285921 0.000306057)
(-0.029639 -0.025608 0.000258778)
(-0.0246255 -0.0228164 0.000215023)
(-0.0200095 -0.0201872 0.00017471)
(-0.0157892 -0.0176823 0.000137871)
(-0.0119692 -0.0152568 0.000104529)
(-0.00856617 -0.012862 7.48237e-05)
(-0.00560586 -0.0104482 4.89815e-05)
(-0.00314545 -0.0079664 2.74903e-05)
(-0.00124928 -0.00534318 1.09368e-05)
(-0.000105423 -0.00231874 1.13117e-06)
(-0.19625 -0.111309 0.00171304)
(-0.184952 -0.107559 0.00161445)
(-0.173615 -0.103325 0.00151551)
(-0.162348 -0.0987188 0.00141717)
(-0.151238 -0.0938391 0.0013202)
(-0.140362 -0.088773 0.00122527)
(-0.12978 -0.0835977 0.00113291)
(-0.119542 -0.0783808 0.00104354)
(-0.109684 -0.0731823 0.000957508)
(-0.100234 -0.0680535 0.000875008)
(-0.0912071 -0.0630383 0.000796225)
(-0.0826151 -0.058174 0.000721223)
(-0.074461 -0.0534909 0.000650054)
(-0.0667454 -0.0490136 0.000582713)
(-0.0594619 -0.0447594 0.000519132)
(-0.0526032 -0.0407397 0.000459269)
(-0.0461603 -0.0369602 0.000402991)
(-0.0401225 -0.0334197 0.000350266)
(-0.03448 -0.0301109 0.000301028)
(-0.029222 -0.0270183 0.000255136)
(-0.0243408 -0.0241192 0.000212535)
(-0.0198314 -0.0213829 0.000173155)
(-0.0156932 -0.01877 0.000137033)
(-0.0119319 -0.0162331 0.000104203)
(-0.00856553 -0.0137207 7.48178e-05)
(-0.00562175 -0.0111783 4.91199e-05)
(-0.00316146 -0.00855029 2.76303e-05)
(-0.00125579 -0.00575119 1.09941e-05)
(-0.000104328 -0.00249718 1.12253e-06)
(-0.187055 -0.111991 0.00163278)
(-0.176551 -0.108759 0.00154111)
(-0.165966 -0.104922 0.00144874)
(-0.15541 -0.100609 0.00135661)
(-0.144971 -0.0959357 0.00126549)
(-0.134726 -0.0910037 0.00117606)
(-0.124736 -0.0859031 0.00108888)
(-0.115052 -0.0807135 0.00100435)
(-0.105712 -0.0755049 0.000922832)
(-0.0967433 -0.0703372 0.000844535)
(-0.088163 -0.0652616 0.000769648)
(-0.0799827 -0.0603212 0.000698241)
(-0.0722068 -0.0555509 0.000630372)
(-0.0648365 -0.0509794 0.000566045)
(-0.0578662 -0.0466265 0.000505199)
(-0.0512895 -0.0425058 0.000447797)
(-0.0450983 -0.0386246 0.000393719)
(-0.0392829 -0.0349828 0.000342936)
(-0.0338345 -0.0315735 0.000295392)
(-0.0287434 -0.0283813 0.000250957)
(-0.0240027 -0.0253834 0.000209582)
(-0.0196087 -0.0225482 0.000171209)
(-0.0155614 -0.0198348 0.000135881)
(-0.0118674 -0.0171937 0.000103639)
(-0.00854569 -0.0145702 7.46441e-05)
(-0.0056257 -0.0119047 4.91541e-05)
(-0.00317145 -0.0091346 2.77177e-05)
(-0.00126044 -0.00616104 1.10351e-05)
(-0.000103248 -0.00267618 1.11377e-06)
(-0.178031 -0.112459 0.00155401)
(-0.168268 -0.109745 0.00146881)
(-0.158393 -0.106308 0.00138263)
(-0.148512 -0.102294 0.00129639)
(-0.138716 -0.0978343 0.00121088)
(-0.129079 -0.0930442 0.00112677)
(-0.119665 -0.0880274 0.0010446)
(-0.110522 -0.0828747 0.000964796)
(-0.101689 -0.0776662 0.000887709)
(-0.0931943 -0.0724703 0.000813551)
(-0.085055 -0.0673451 0.000742513)
(-0.0772832 -0.0623394 0.000674672)
(-0.0698836 -0.057493 0.000610088)
(-0.062858 -0.0528379 0.00054877)
(-0.0562017 -0.0483968 0.000490665)
(-0.0499089 -0.0441855 0.000435741)
(-0.0439724 -0.0402127 0.000383889)
(-0.0383833 -0.0364791 0.000335082)
(-0.0331338 -0.0329785 0.000289273)
(-0.0282151 -0.0296956 0.000246343)
(-0.0236212 -0.0266072 0.00020625)
(-0.0193491 -0.023681 0.000168942)
(-0.0153997 -0.0208746 0.000134468)
(-0.0117801 -0.0181366 0.000102877)
(-0.00851007 -0.0154085 7.43326e-05)