/*--------------------------------*- C++ -*----------------------------------*\
| =========                 |                                                 |
| \\      /  F ield         | OpenFOAM: The Open Source CFD Toolbox           |
|  \\    /   O peration     | Version:  v2012                                 |
|   \\  /    A nd           | Website:  www.openfoam.com                      |
|    \\/     M anipulation  |                                                 |
\*---------------------------------------------------------------------------*/
FoamFile
{
    version     2.0;
    format      ascii;
    class       volScalarField;
    location    "0.2";
    object      alpha.water;
}
// * * * * * * * * * * * * * * * * * * * * * * * * * * * * * * * * * * * * * //

dimensions      [0 0 0 0 0 0 0];


internalField   nonuniform List<scalar> 
2664
(
3.9705e-19
2.4024e-20
2.65318e-22
4.47675e-25
5.91897e-29
2.63694e-36
3.33334e-40
3.93913e-44
4.32711e-48
-3.17398e-55
-8.71083e-59
-1.47845e-62
-2.72814e-66
1.86669e-76
-4.8242e-74
-2.78159e-84
-1.66428e-82
-6.13202e-87
-4.95026e-91
-2.97985e-79
-3.55766e-80
-2.54281e-81
-1.27858e-82
-4.7589e-84
-1.33886e-85
-2.86929e-87
-4.68201e-89
-5.77952e-91
-5.33641e-93
-3.623e-95
-1.76523e-97
-5.96731e-100
-1.33387e-102
-1.98575e-105
-1.5592e-108
-4.76552e-112
-3.87532e-116
7.16342e-18
1.31268e-18
6.45523e-20
5.29562e-22
9.24281e-25
5.68012e-28
6.28118e-35
2.03373e-38
4.77599e-42
1.27014e-45
2.74778e-49
4.50639e-53
8.50866e-57
1.67293e-60
1.52192e-64
1.42383e-68
1.3729e-72
1.37817e-76
9.88869e-81
-2.52984e-96
-9.85778e-80
-9.52732e-81
-5.45262e-82
-2.18935e-83
-6.48756e-85
-1.44635e-86
-2.43773e-88
-3.09399e-90
-2.92779e-92
-2.03196e-94
-1.00986e-96
-3.47547e-99
-7.89343e-102
-1.10011e-104
-8.36331e-108
-2.7827e-111
-2.35352e-115
3.43936e-17
1.37173e-17
2.21209e-18
7.98243e-20
4.58227e-22
7.60831e-25
7.23271e-28
2.63134e-31
2.10802e-38
6.30754e-42
1.56952e-45
2.74823e-49
5.75186e-53
1.25526e-56
1.44823e-60
1.51708e-64
1.42397e-68
1.59843e-72
1.4926e-76
5.98802e-81
-2.59961e-92
-2.51031e-80
-2.00484e-81
-9.22202e-83
-2.94559e-84
-6.89907e-86
-1.20622e-87
-1.57691e-89
-1.53014e-91
-1.08547e-93
-5.50002e-96
-1.92551e-98
-4.43949e-101
-6.26876e-104
-4.81901e-107
-1.61822e-110
-1.37808e-114
7.38296e-17
4.68621e-17
1.73873e-17
2.19243e-18
5.17101e-20
2.04903e-22
3.25044e-25
3.63585e-28
2.96209e-31
1.59887e-34
3.12571e-38
1.66554e-45
3.91997e-49
9.57015e-53
1.40605e-56
1.44823e-60
1.51708e-64
1.90992e-68
2.04329e-72
1.05928e-76
3.67215e-81
-7.06613e-93
-4.83461e-81
-3.28462e-82
-1.21738e-83
-3.0769e-85
-5.64038e-87
-7.62819e-89
-7.60232e-91
-5.51421e-93
-2.84758e-95
-1.01335e-97
-2.36924e-100
-3.3848e-103
-2.62666e-106
-8.88318e-110
-7.59733e-114
1.04739e-16
8.38655e-17
5.10167e-17
1.58184e-17
1.34754e-18
1.85954e-20
5.25906e-23
8.08302e-26
9.6651e-29
9.37893e-32
7.37031e-35
4.56254e-38
2.10755e-41
6.39676e-45
7.81813e-49
1.79487e-56
1.65983e-60
2.35499e-64
2.83896e-68
1.94737e-72
7.65838e-77
3.56289e-81
-2.07079e-107
-6.8003e-82
-4.12049e-83
-1.23785e-84
-2.45756e-86
-3.48013e-88
-3.57842e-90
-2.65774e-92
-1.39889e-94
-5.05694e-97
-1.19764e-99
-1.72857e-102
-1.35161e-105
-4.59314e-109
-3.93387e-113
1.23634e-16
1.09076e-16
8.52255e-17
4.60046e-17
1.03592e-17
5.06951e-19
3.81605e-21
8.37998e-24
1.24978e-26
1.51454e-29
1.52253e-32
1.26629e-35
8.65886e-39
4.8227e-42
2.16759e-45
7.77522e-49
2.16739e-52
4.5827e-56
6.66142e-60
5.47356e-64
8.47674e-69
7.63106e-77
3.56289e-81
-1.5156e-92
-3.50353e-84
-3.82709e-84
-9.5333e-86
-1.47235e-87
-1.58406e-89
-1.21058e-91
-6.50302e-94
-2.38753e-96
-5.72189e-99
-8.33067e-102
-6.55041e-105
-2.23118e-108
-1.90763e-112
1.36207e-16
1.23509e-16
1.07647e-16
7.83463e-17
3.35277e-17
4.60728e-18
1.10808e-19
4.6603e-22
8.71372e-25
1.24883e-27
1.47564e-30
1.44514e-33
1.1712e-36
7.82856e-40
4.31125e-43
1.95198e-46
7.2341e-50
2.22008e-53
5.51634e-57
1.11716e-60
1.80521e-64
2.29734e-68
2.30352e-72
1.73613e-76
9.61262e-81
2.84628e-85
-2.65898e-85
-5.46898e-87
-6.46823e-89
-5.16783e-91
-2.84781e-93
-1.06306e-95
-2.57659e-98
-3.77854e-101
-2.98139e-104
-1.01509e-107
-8.63313e-112
1.47814e-16
1.32849e-16
1.2005e-16
1.00904e-16
6.31622e-17
1.82224e-17
1.25487e-18
1.34107e-20
3.61186e-23
6.07852e-26
8.23368e-29
9.1856e-32
8.44947e-35
6.39723e-38
3.98917e-41
2.0485e-44
8.6215e-48
3.02539e-51
8.68699e-55
2.06337e-58
3.99259e-62
6.26149e-66
8.03473e-70
8.17647e-74
6.64913e-78
4.20472e-82
1.02426e-86
-1.49041e-86
-2.31705e-88
-2.02864e-90
-1.16465e-92
-4.44146e-95
-1.08943e-97
-1.60738e-100
-1.26995e-103
-4.30925e-107
-3.63126e-111
1.61902e-16
1.41396e-16
1.27448e-16
1.13734e-16
8.75561e-17
4.11479e-17
6.47653e-18
1.84998e-19
9.09788e-22
1.86981e-24
2.87648e-27
3.60316e-30
3.69799e-33
3.10718e-36
2.14057e-39
1.21002e-42
5.58944e-46
2.14453e-49
6.73119e-53
1.74832e-56
3.70424e-60
6.37609e-64
9.00918e-68
1.01442e-71
9.18341e-76
6.54874e-80
3.5988e-84
-2.37888e-86
-6.87955e-88
-7.12189e-90
-4.38566e-92
-1.72743e-94
-4.30176e-97
-6.38417e-100
-5.04065e-103
-1.69921e-106
-1.41239e-110
1.79894e-16
1.51797e-16
1.33398e-16
1.20889e-16
1.03249e-16
6.55427e-17
1.88032e-17
1.2698e-18
1.3514e-20
3.77217e-23
6.60545e-26
9.20515e-29
1.0432e-31
9.6187e-35
7.23015e-38
4.43702e-41
2.2155e-44
9.1377e-48
3.07486e-51
8.54024e-55
1.93078e-58
3.53975e-62
5.31823e-66
6.35992e-70
6.10873e-74
4.61925e-78
2.72512e-82
1.08765e-86
-1.57445e-87
-2.19936e-89
-1.50369e-91
-6.2002e-94
-1.57558e-96
-2.35383e-99
-1.85414e-102
-6.18855e-106
-5.04833e-110
2.0175e-16
1.65098e-16
1.40072e-16
1.25579e-16
1.1234e-16
8.50374e-17
3.69225e-17
4.94746e-18
1.15672e-19
5.06692e-22
1.03183e-24
1.58817e-27
1.9696e-30
1.97492e-33
1.60491e-36
1.0591e-39
5.65969e-43
2.48534e-46
8.86546e-50
2.6022e-53
6.19913e-57
1.19418e-60
1.87997e-64
2.34971e-68
2.35282e-72
1.85037e-76
1.13333e-80
5.30591e-85
-2.6017e-87
-6.02027e-89
-4.6742e-91
-2.03968e-93
-5.31503e-96
-8.00146e-99
-6.27839e-102
-2.06733e-105
-1.64553e-109
2.2718e-16
1.81054e-16
1.48616e-16
1.29689e-16
1.17697e-16
9.82952e-17
5.62538e-17
1.26787e-17
5.96833e-19
4.55519e-21
1.13041e-23
1.91161e-26
2.56921e-29
2.77527e-32
2.41624e-35
1.69943e-38
9.63397e-42
4.46832e-45
1.67504e-48
5.1498e-52
1.28096e-55
2.56864e-59
4.19662e-63
5.42795e-67
5.60815e-71
4.53809e-75
2.85185e-79
1.37748e-83
3.3118e-88
-1.37212e-88
-1.30737e-90
-6.11239e-93
-1.6394e-95
-2.48835e-98
-1.94133e-101
-6.28054e-105
-4.84518e-109
2.56178e-16
1.98992e-16
1.59153e-16
1.3432e-16
1.21281e-16
1.06693e-16
7.30807e-17
2.42048e-17
2.03792e-18
2.77927e-20
8.96291e-23
1.66472e-25
2.39988e-28
2.76384e-31
2.5524e-34
1.89503e-37
1.12904e-40
5.48116e-44
2.14078e-47
6.83548e-51
1.76034e-54
3.64352e-58
6.12578e-62
8.12995e-66
8.59376e-70
7.094e-74
4.53429e-78
2.22311e-82
7.71384e-87
-2.88595e-88
-3.31225e-90
-1.66365e-92
-4.59455e-95
-7.02174e-98
-5.43015e-101
-1.71729e-104
-1.2737e-108
2.88946e-16
2.18383e-16
1.71094e-16
1.39995e-16
1.24174e-16
1.12006e-16
8.609e-17
3.77959e-17
5.08914e-18
1.19895e-19
5.3354e-22
1.09599e-24
1.67795e-27
2.03802e-30
1.97548e-33
1.53248e-36
9.50032e-40
4.78064e-43
1.92725e-46
6.33249e-50
1.67327e-53
3.54317e-57
6.07681e-61
8.20409e-65
8.79655e-69
7.34465e-73
4.73429e-77
2.33391e-81
8.43415e-86
-5.11854e-88
-7.65709e-90
-4.1036e-92
-1.16181e-94
-1.78083e-97
-1.35863e-100
-4.17287e-104
-2.94595e-108
3.25578e-16
2.38964e-16
1.83638e-16
1.46629e-16
1.2691e-16
1.15532e-16
9.55602e-17
5.15512e-17
1.01177e-17
3.88725e-19
2.48416e-21
5.73297e-24
9.24818e-27
1.17281e-29
1.18132e-32
9.48064e-36
6.05554e-39
3.12785e-42
1.28937e-45
4.31848e-49
1.15991e-52
2.48962e-56
4.31603e-60
5.87386e-64
6.33113e-68
5.29902e-72
3.41391e-76
1.67684e-80
6.05922e-85
-4.27418e-88
-1.59875e-89
-9.14271e-92
-2.63063e-94
-4.01445e-97
-2.99951e-100
-8.8686e-104
-5.88388e-108
3.65579e-16
2.60553e-16
1.96084e-16
1.53636e-16
1.29645e-16
1.18015e-16
1.0229e-16
6.41839e-17
1.70655e-17
1.00755e-18
9.4177e-21
2.50265e-23
4.23836e-26
5.56939e-29
5.78281e-32
4.76212e-35
3.10798e-38
1.63404e-41
6.8316e-45
2.31256e-48
6.25984e-52
1.35026e-55
2.34576e-59
3.19036e-63
3.42676e-67
2.84994e-71
1.81887e-75
8.82065e-80
3.14232e-84
3.56586e-89
-2.9279e-89
-1.80376e-91
-5.23794e-94
-7.89623e-97
-5.72965e-100
-1.61354e-103
-9.89936e-108
4.07459e-16
2.82653e-16
2.07807e-16
1.60149e-16
1.32204e-16
1.19804e-16
1.07034e-16
7.50434e-17
2.54999e-17
2.19136e-18
3.00196e-20
9.48204e-23
1.68989e-25
2.29251e-28
2.44277e-31
2.05407e-34
1.36269e-37
7.25259e-41
3.05791e-44
1.04011e-47
2.82017e-51
6.0747e-55
1.05071e-58
1.41855e-62
1.50798e-66
1.2374e-70
7.76598e-75
3.68995e-79
1.28387e-83
2.40693e-88
-4.72432e-89
-3.06955e-91
-8.92783e-94
-1.31887e-96
-9.20936e-100
-2.43966e-103
-1.35831e-107
4.48586e-16
3.03974e-16
2.18039e-16
1.65223e-16
1.3417e-16
1.21027e-16
1.10338e-16
8.38499e-17
3.46595e-17
4.11879e-18
8.16815e-20
3.17094e-22
6.0008e-25
8.41198e-28
9.19748e-31
7.89328e-34
5.31845e-37
2.86221e-40
1.21534e-43
4.14676e-47
1.12402e-50
2.41241e-54
4.14401e-58
5.53885e-62
5.81023e-66
4.68891e-70
2.88367e-74
1.33714e-78
4.52028e-83
9.75811e-88
-6.38724e-89
-4.3367e-91
-1.25576e-93
-1.80404e-96
-1.20003e-99
-2.94598e-103
-1.45991e-107
4.8537e-16
3.22226e-16
2.2572e-16
1.68161e-16
1.35164e-16
1.2173e-16
1.12524e-16
9.04475e-17
4.34362e-17
6.75256e-18
1.87572e-19
9.14029e-22
1.85904e-24
2.70305e-27
3.04244e-30
2.67376e-33
1.83609e-36
1.00262e-39
4.30218e-43
1.47734e-46
4.01609e-50
8.61525e-54
1.47433e-57
1.95685e-61
2.03174e-65
1.61732e-69
9.77426e-74
4.43444e-78
1.45932e-82
3.27675e-87
-6.49805e-89
-4.71555e-91
-1.36455e-93
-1.90236e-96
-1.19633e-99
-2.68549e-103
-1.167e-107
5.13745e-16
3.34754e-16
2.29943e-16
1.69083e-16
1.35343e-16
1.21989e-16
1.13739e-16
9.46449e-17
5.03501e-17
9.54826e-18
3.46947e-19
2.08543e-21
4.57182e-24
6.9012e-27
8.01297e-30
7.23641e-33
5.08832e-36
2.83518e-39
1.23719e-42
4.30478e-46
1.18221e-49
2.55461e-53
4.39128e-57
5.83878e-61
6.05575e-65
4.80086e-69
2.87962e-73
1.29126e-77
4.17853e-82
9.43137e-87
-4.05691e-89
-3.53576e-91
-1.04021e-93
-1.41437e-96
-8.38031e-100
-1.70306e-103
-6.59908e-108
5.30503e-16
3.40413e-16
2.31108e-16
1.6888e-16
1.35049e-16
1.21982e-16
1.14137e-16
9.63891e-17
5.39346e-17
1.13936e-17
4.83377e-19
3.32014e-21
7.67822e-24
1.19157e-26
1.41769e-29
1.31013e-32
9.41502e-36
5.35375e-39
2.3806e-42
8.4235e-46
2.34905e-49
5.14694e-53
8.95795e-57
1.20421e-60
1.26056e-64
1.00654e-68
6.06462e-73
2.72178e-77
8.77155e-82
1.97348e-86
-3.78332e-90
-1.51294e-91
-4.77342e-94
-6.44869e-97
-3.62625e-100
-6.69959e-104
-2.41279e-108
5.36056e-16
3.41353e-16
2.29899e-16
1.66721e-16
1.33896e-16
1.21699e-16
1.141e-16
9.65213e-17
5.44526e-17
1.17528e-17
5.15156e-19
3.64277e-21
8.52463e-24
1.32987e-26
1.58882e-29
1.47431e-32
1.06413e-35
6.0793e-39
2.71668e-42
9.66175e-46
2.70918e-49
5.97149e-53
1.04595e-56
1.41554e-60
1.4916e-64
1.19814e-68
7.25089e-73
3.25916e-77
1.04705e-81
2.33497e-86
2.69984e-91
-3.00931e-92
-1.07449e-94
-1.46519e-97
-7.86683e-101
-1.36455e-104
-4.86464e-109
5.3584e-16
3.37695e-16
2.24344e-16
1.61778e-16
1.31705e-16
1.21061e-16
1.13583e-16
9.52944e-17
5.25842e-17
1.08832e-17
4.48209e-19
2.98653e-21
6.79039e-24
1.03916e-26
1.21765e-29
1.1079e-32
7.84303e-36
4.3968e-39
1.9295e-42
6.74747e-46
1.86237e-49
4.04576e-53
6.99244e-57
9.34685e-61
9.73184e-65
7.72159e-69
4.60908e-73
2.03724e-77
6.40198e-82
1.38491e-86
1.92324e-91
-1.16266e-93
-5.30938e-96
-7.79584e-99
-4.27038e-102
-7.50674e-106
-2.831e-110
5.23517e-16
3.25109e-16
2.13443e-16
1.54388e-16
1.28883e-16
1.20082e-16
1.12339e-16
9.20272e-17
4.76005e-17
8.71161e-18
3.02142e-19
1.74014e-21
3.73081e-24
5.51547e-27
6.24716e-30
5.4914e-33
3.7552e-36
2.03367e-39
8.62451e-43
2.91808e-46
7.7971e-50
1.64078e-53
2.74821e-57
3.56044e-61
3.59093e-65
2.75611e-69
1.58733e-73
6.74084e-78
2.02144e-82
4.12882e-87
5.40755e-92
3.5706e-97
-8.61361e-99
-1.97038e-101
-1.62078e-104
-3.96082e-108
-1.60758e-112
4.92516e-16
3.01975e-16
1.97521e-16
1.45687e-16
1.25964e-16
1.18763e-16
1.10114e-16
8.62372e-17
3.96545e-17
5.84056e-18
1.51783e-19
7.01517e-22
1.38621e-24
1.94938e-27
2.10352e-30
1.76175e-33
1.14827e-36
5.92946e-40
2.39946e-43
7.7568e-47
1.98043e-50
3.98201e-54
6.37007e-58
7.87455e-62
7.56481e-66
5.51609e-70
3.0069e-74
1.20202e-78
3.36606e-83
6.34185e-88
7.51051e-93
4.9557e-98
2.35191e-104
-1.03046e-104
-2.25686e-107
-8.81819e-111
-3.50482e-115
4.44068e-16
2.70003e-16
1.78295e-16
1.37086e-16
1.23269e-16
1.17045e-16
1.06471e-16
7.72816e-17
2.94446e-17
3.11856e-18
5.38986e-20
1.90612e-22
3.41723e-25
4.49195e-28
4.54042e-31
3.56605e-34
2.18226e-37
1.05923e-40
4.03835e-44
1.23077e-47
2.96357e-51
5.61967e-55
8.47272e-59
9.85821e-63
8.89487e-67
6.07418e-71
3.08917e-75
1.14613e-79
2.95727e-84
5.0794e-89
5.37785e-94
3.07511e-99
7.56985e-105
-2.71459e-108
-1.99296e-110
-1.21204e-113
-4.42487e-118
3.82798e-16
2.32419e-16
1.58524e-16
1.29812e-16
1.20812e-16
1.14689e-16
1.0059e-16
6.44652e-17
1.84733e-17
1.22982e-18
1.27072e-20
3.41101e-23
5.48454e-26
6.61009e-29
6.14241e-32
4.4446e-35
2.51103e-38
1.12739e-41
3.98872e-45
1.12917e-48
2.52716e-52
4.45467e-56
6.24004e-60
6.73872e-64
5.63522e-68
3.56142e-72
1.67373e-76
5.7309e-81
1.36327e-85
2.15542e-90
2.09747e-95
1.10612e-100
3.04594e-106
5.31548e-113
-1.26814e-113
-1.15947e-116
-3.72616e-121
3.13606e-16
1.93501e-16
1.41448e-16
1.24459e-16
1.18391e-16
1.11111e-16
9.10033e-17
4.75872e-17
8.96427e-18
3.21144e-19
1.86593e-21
3.91745e-24
5.59112e-27
6.06367e-30
5.08825e-33
3.33535e-36
1.71192e-39
7.00311e-43
2.26623e-46
5.87364e-50
1.20431e-53
1.94536e-57
2.49754e-61
2.47303e-65
1.89853e-69
1.10466e-73
4.80505e-78
1.53685e-82
3.46661e-87
5.30726e-92
5.19347e-97
3.09725e-102
1.17481e-107
3.20638e-113
-3.18041e-117
-8.04165e-120
-2.22148e-124
2.43495e-16
1.59504e-16
1.29499e-16
1.20695e-16
1.15557e-16
1.04947e-16
7.54682e-17
2.82281e-17
2.88621e-18
4.69825e-20
1.56502e-22
2.66946e-25
3.33073e-28
3.18623e-31
2.36999e-34
1.38313e-37
6.34424e-41
2.33198e-44
6.79429e-48
1.58814e-51
2.94167e-55
4.30151e-59
5.01463e-63
4.53176e-67
3.20213e-71
1.73797e-75
7.19663e-80
2.25626e-84
5.1741e-89
8.47844e-94
9.53064e-99
7.42454e-104
4.01314e-109
1.56838e-114
2.90362e-120
-3.84649e-123
-9.35745e-128
1.8242e-16
1.36026e-16
1.22571e-16
1.17575e-16
1.11204e-16
9.32582e-17
5.22067e-17
1.12676e-17
4.82245e-19
3.17397e-21
6.80266e-24
9.60349e-27
1.02606e-29
8.47459e-33
5.47779e-36
2.79332e-39
1.12531e-42
3.65612e-46
9.44369e-50
1.96387e-53
3.25167e-57
4.27915e-61
4.53891e-65
3.79368e-69
2.53595e-73
1.34363e-77
5.65031e-82
1.87967e-86
4.80661e-91
9.21159e-96
1.3102e-100
1.32672e-105
9.7657e-111
4.75492e-116
1.26447e-121
-1.5084e-127
-2.25596e-131
1.42321e-16
1.2399e-16
1.18452e-16
1.13788e-16
1.02301e-16
7.09593e-17
2.44816e-17
2.15794e-18
2.86492e-20
8.23898e-23
1.29282e-25
1.49758e-28
1.33573e-31
9.29979e-35
5.10826e-38
2.22909e-41
7.75755e-45
2.18957e-48
4.94594e-52
9.0735e-56
1.3433e-59
1.61243e-63
1.60249e-67
1.29998e-71
8.81513e-76
4.97031e-80
2.33714e-84
9.12522e-89
2.84566e-93
6.88952e-98
1.24543e-102
1.60139e-107
1.41319e-112
7.35823e-118
1.89362e-123
1.9448e-129
-5.11162e-137
1.24079e-16
1.18435e-16
1.14515e-16
1.05979e-16
8.11811e-17
3.58948e-17
4.84882e-18
1.04458e-19
3.87666e-22
6.50126e-25
7.82678e-28
7.23184e-31
5.22176e-34
2.9778e-37
1.35351e-40
4.94901e-44
1.45942e-47
3.52744e-51
6.93717e-55
1.13526e-58
1.54859e-62
1.78404e-66
1.7866e-70
1.5405e-74
1.16861e-78
7.68708e-83
4.29086e-87
1.97575e-91
7.08402e-96
1.91467e-100
3.72176e-105
5.13113e-110
4.69448e-115
2.58747e-120
7.19084e-126
8.80578e-132
2.13203e-138
1.17503e-16
1.13942e-16
1.0604e-16
8.30574e-17
3.91578e-17
5.81223e-18
1.35003e-19
5.05524e-22
8.25613e-25
9.66122e-28
8.70041e-31
6.1375e-34
3.43547e-37
1.54081e-40
5.61254e-44
1.67859e-47
4.13862e-51
8.64698e-55
1.53586e-58
2.39345e-62
3.29681e-66
4.06151e-70
4.55381e-74
4.50626e-78
3.91421e-82
2.87444e-86
1.72541e-90
8.2567e-95
3.03487e-99
8.42674e-104
1.74562e-108
2.60033e-113
2.55253e-118
1.46289e-123
3.71449e-129
3.3339e-135
1.13469e-141
1.11692e-16
1.01543e-16
7.44827e-17
2.86973e-17
2.71821e-18
3.38423e-20
8.36726e-23
1.13906e-25
1.15325e-28
9.04621e-32
5.60037e-35
2.78173e-38
1.12992e-41
3.84057e-45
1.11882e-48
2.86776e-52
6.53465e-56
1.37964e-59
2.67797e-63
4.75714e-67
7.47934e-71
1.02103e-74
1.21321e-78
1.21783e-82
1.03931e-86
7.42583e-91
4.3651e-95
2.08211e-99
7.76749e-104
2.20557e-108
4.6328e-113
6.65808e-118
6.02715e-123
2.80503e-128
5.12288e-134
3.30274e-140
1.09865e-145
8.49358e-17
4.01631e-17
5.18144e-18
8.64111e-20
2.23371e-22
2.19907e-25
1.20901e-28
4.36209e-32
1.2147e-35
3.4321e-39
1.20063e-42
4.51615e-46
1.53872e-49
4.52535e-53
1.15869e-56
2.65238e-60
2.23505e-64
2.9739e-68
4.85093e-72
7.53294e-76
1.05193e-79
1.32165e-83
1.4746e-87
1.43477e-91
1.20539e-95
8.63072e-100
5.11833e-104
9.40055e-109
4.14558e-113
1.39435e-117
3.62535e-122
5.56874e-127
7.09914e-132
5.24447e-137
1.78312e-142
1.00436e-145
5.54136e-149
8.20477e-19
1.7482e-20
9.11587e-23
4.02131e-26
2.04042e-30
8.37049e-34
4.66247e-37
7.43998e-40
8.56849e-43
5.21125e-46
2.47616e-49
9.8701e-53
3.31357e-56
9.54776e-60
2.28767e-63
5.11913e-67
7.86774e-71
9.32847e-75
1.0109e-78
9.95788e-83
4.15931e-86
9.23286e-90
1.0675e-93
9.77361e-98
7.36713e-102
4.19015e-106
1.82914e-110
7.09392e-115
2.47389e-119
7.80396e-124
2.68489e-128
4.04281e-133
1.64559e-138
9.7886e-143
1.01973e-145
2.98818e-149
4.69906e-153
3.97407e-19
2.40615e-20
2.65964e-22
4.49117e-25
5.95356e-29
2.64839e-36
3.34782e-40
3.95622e-44
4.34589e-48
-2.05712e-55
-5.66097e-59
-9.65504e-63
-1.7918e-66
0
-3.22012e-74
-2.78159e-84
-1.13199e-82
-3.58742e-87
-3.44169e-91
-7.72047e-101
-9.83987e-85
-1.10862e-85
-6.87308e-87
-2.93522e-88
-9.21232e-90
-2.16552e-91
-3.84227e-93
-5.12862e-95
-5.10804e-97
-3.73376e-99
-1.95574e-101
-7.10275e-104
-2.98525e-106
-9.63538e-107
-1.14876e-109
-1.50434e-113
-5.24803e-118
7.16691e-18
1.31393e-18
6.466e-20
5.30885e-22
9.27032e-25
5.70125e-28
6.30178e-35
2.0407e-38
4.79212e-42
1.27438e-45
2.75769e-49
4.52264e-53
8.53758e-57
1.67873e-60
1.5276e-64
1.42886e-68
1.37774e-72
1.38299e-76
9.92694e-81
3.53638e-85
-1.39262e-96
-2.80936e-85
-2.58315e-86
-1.29286e-87
-4.41766e-89
-1.09804e-90
-2.03136e-92
-2.80535e-94
-2.87665e-96
-2.15744e-98
-1.15628e-100
-4.28359e-103
-1.04534e-105
-1.56283e-108
-1.27246e-111
-4.52585e-115
-4.08472e-119
3.44014e-17
1.37242e-17
2.21439e-18
7.99702e-20
4.59416e-22
7.63038e-25
7.25532e-28
2.64155e-31
2.11512e-38
6.32855e-42
1.57531e-45
2.75814e-49
5.7714e-53
1.25961e-56
1.45363e-60
1.52244e-64
1.429e-68
1.60404e-72
1.49835e-76
6.0127e-81
1.84323e-85
-3.95237e-97
-6.14371e-86
-4.78256e-87
-1.93164e-88
-5.22886e-90
-1.02024e-91
-1.46434e-93
-1.54839e-95
-1.19177e-97
-6.53283e-100
-2.46849e-102
-6.12951e-105
-9.30332e-108
-7.67248e-111
-2.75903e-114
-2.51153e-118
7.38361e-17
4.6873e-17
1.73972e-17
2.19505e-18
5.18156e-20
2.05454e-22
3.2597e-25
3.64662e-28
2.97137e-31
1.60428e-34
3.13995e-38
1.67155e-45
3.93328e-49
9.60331e-53
1.41129e-56
1.45363e-60
1.52244e-64
1.91661e-68
2.05067e-72
1.0636e-76
3.68704e-81
1.50874e-85
-3.86023e-101
-9.32812e-87
-6.86861e-88
-2.24992e-89
-4.79337e-91
-7.24249e-93
-7.93497e-95
-6.27758e-97
-3.51987e-99
-1.35578e-101
-3.42216e-104
-5.2663e-107
-4.39265e-110
-1.59367e-113
-1.45939e-117
1.04742e-16
8.38733e-17
5.10307e-17
1.58294e-17
1.34946e-18
1.86378e-20
5.27342e-23
8.106e-26
9.69361e-29
9.40726e-32
7.39311e-35
4.57707e-38
2.11454e-41
6.41956e-45
7.85256e-49
1.89286e-56
1.66569e-60
2.36324e-64
2.84922e-68
1.95531e-72
7.68896e-77
3.57652e-81
1.50874e-85
-6.28272e-97
-5.99834e-101
-7.32344e-89
-2.00554e-90
-3.33364e-92
-3.84173e-94
-3.14036e-96
-1.80373e-98
-7.08148e-101
-1.81541e-103
-2.82872e-106
-2.38217e-109
-8.70045e-113
-7.99297e-117
1.23635e-16
1.0908e-16
8.52357e-17
4.60215e-17
1.03686e-17
5.07824e-19
3.82557e-21
8.4032e-24
1.25338e-26
1.519e-29
1.52709e-32
1.27016e-35
8.68578e-39
4.83798e-42
2.1746e-45
7.80093e-49
2.17475e-52
4.59882e-56
6.68614e-60
5.49633e-64
8.52554e-69
7.65902e-77
3.57652e-81
1.80236e-85
-3.86023e-101
-7.79967e-101
-5.75957e-90
-1.33581e-91
-1.71858e-93
-1.47869e-95
-8.75116e-98
-3.50679e-100
-9.12669e-103
-1.4381e-105
-1.22048e-108
-4.47665e-112
-4.11327e-116
1.36208e-16
1.23511e-16
1.07652e-16
7.83603e-17
3.35454e-17
4.61278e-18
1.11036e-19
4.67262e-22
8.73833e-25
1.25244e-27
1.47999e-30
1.44948e-33
1.17478e-36
7.85285e-40
4.32484e-43
1.95823e-46
7.25763e-50
2.22741e-53
5.53483e-57
1.12097e-60
1.81146e-64
2.30545e-68
2.31182e-72
1.74251e-76
9.71886e-81
3.76527e-85
9.12921e-90
-3.30965e-91
-6.52517e-93
-6.37865e-95
-3.97858e-97
-1.63799e-99
-4.33302e-102
-6.89867e-105
-5.8893e-108
-2.16385e-111
-1.9817e-115
1.47814e-16
1.3285e-16
1.20053e-16
1.00912e-16
6.31805e-17
1.82366e-17
1.25682e-18
1.34424e-20
3.62175e-23
6.09574e-26
8.25751e-29
9.21271e-32
8.47486e-35
6.41679e-38
4.00157e-41
2.05496e-44
8.64913e-48
3.03522e-51
8.71559e-55
2.07025e-58
4.00608e-62
6.28292e-66
8.06256e-70
8.20503e-74
6.67269e-78
4.2417e-82
2.0845e-86
7.62861e-91
-1.47595e-92
-2.31227e-94
-1.64818e-96
-7.13707e-99
-1.93137e-101
-3.10926e-104
-2.66605e-107
-9.78604e-111
-8.8994e-115
1.61902e-16
1.41397e-16
1.27449e-16
1.13738e-16
8.75693e-17
4.11676e-17
6.48376e-18
1.85359e-19
9.12133e-22
1.87496e-24
2.88461e-27
3.61358e-30
3.7089e-33
3.11652e-36
2.14712e-39
1.21379e-42
5.60709e-46
2.1514e-49
6.75305e-53
1.75407e-56
3.71659e-60
6.3976e-64
9.03993e-68
1.01791e-71
9.21515e-76
6.57205e-80
3.65994e-84
1.5752e-88
4.29231e-93
-6.10109e-94
-5.94661e-96
-2.84477e-98
-8.00294e-101
-1.30843e-103
-1.12651e-106
-4.12043e-110
-3.70542e-114
1.79894e-16
1.51797e-16
1.33398e-16
1.20891e-16
1.03256e-16
6.55614e-17
1.88176e-17
1.27173e-18
1.35452e-20
3.78216e-23
6.62359e-26
9.23107e-29
1.0462e-31
9.64699e-35
7.25183e-38
4.45056e-41
2.22238e-44
9.16651e-48
3.0847e-51
8.56794e-55
1.93712e-58
3.55154e-62
5.33615e-66
6.38151e-70
6.12958e-74
4.63526e-78
2.73623e-82
1.24923e-86
4.24353e-91
-9.45173e-94
-1.84469e-95
-1.02195e-97
-3.04808e-100
-5.09868e-103
-4.41288e-106
-1.60494e-109
-1.4208e-113
2.0175e-16
1.65098e-16
1.40073e-16
1.25579e-16
1.12345e-16
8.50514e-17
3.69415e-17
4.95314e-18
1.15898e-19
5.07954e-22
1.03456e-24
1.59249e-27
1.9751e-30
1.98057e-33
1.6096e-36
1.06226e-39
5.67688e-43
2.49302e-46
8.89328e-50
2.61049e-53
6.21916e-57
1.19809e-60
1.88621e-64
2.35757e-68
2.36074e-72
1.8567e-76
1.1373e-80
5.37625e-85
1.90062e-89
4.21032e-94
-4.61003e-95
-3.27363e-97
-1.05839e-99
-1.82466e-102
-1.58999e-105
-5.73806e-109
-4.97576e-113
2.27179e-16
1.81054e-16
1.48617e-16
1.29689e-16
1.17699e-16
9.83045e-17
5.62727e-17
1.26894e-17
5.97782e-19
4.5655e-21
1.13326e-23
1.9166e-26
2.57612e-29
2.78293e-32
2.42306e-35
1.70434e-38
9.66239e-42
4.48176e-45
1.68017e-48
5.16583e-52
1.28501e-55
2.57689e-59
4.21029e-63
5.44581e-67
5.62674e-71
4.55338e-75
2.86163e-79
1.38396e-83
4.99363e-88
1.2973e-92
-1.01649e-94
-9.47186e-97
-3.33939e-99
-5.95398e-102
-5.22409e-105
-1.86547e-108
-1.57524e-112
2.56178e-16
1.98991e-16
1.59153e-16
1.34321e-16
1.21282e-16
1.06699e-16
7.30964e-17
2.42194e-17
2.04046e-18
2.78472e-20
8.98379e-23
1.6688e-25
2.40597e-28
2.77106e-31
2.55926e-34
1.90026e-37
1.13223e-40
5.497e-44
2.1471e-47
6.85604e-51
1.76573e-54
3.65488e-58
6.1452e-62
8.15602e-66
8.62157e-70
7.11739e-74
4.54953e-78
2.23106e-82
8.13734e-87
2.16242e-91
-5.58727e-95
-2.43379e-96
-9.53772e-99
-1.75799e-101
-1.54978e-104
-5.45314e-108
-4.45144e-112
2.88946e-16
2.18383e-16
1.71094e-16
1.39995e-16
1.24175e-16
1.1201e-16
8.61015e-17
3.78115e-17
5.09391e-18
1.20088e-19
5.34644e-22
1.09843e-24
1.68184e-27
2.04292e-30
1.98039e-33
1.53641e-36
9.5254e-40
4.7936e-43
1.9326e-46
6.35049e-50
1.67813e-53
3.55368e-57
6.09521e-61
8.22929e-65
8.8239e-69
7.36798e-73
4.74966e-77
2.3417e-81
8.55812e-86
2.27652e-90
3.00457e-95
-5.52005e-96
-2.45391e-98
-4.66211e-101
-4.10601e-104
-1.41414e-107
-1.10524e-111
3.25578e-16
2.38964e-16
1.83639e-16
1.46629e-16
1.2691e-16
1.15534e-16
9.55679e-17
5.15651e-17
1.01244e-17
3.89205e-19
2.48844e-21
5.74396e-24
9.26683e-27
1.17528e-29
1.18391e-32
9.5022e-36
6.0698e-39
3.13546e-42
1.29261e-45
4.32962e-49
1.16298e-52
2.49639e-56
4.32807e-60
5.89057e-64
6.34942e-68
5.31473e-72
3.42431e-76
1.68207e-80
6.10348e-85
1.60636e-89
2.70015e-94
-1.16468e-95
-5.64661e-98
-1.09529e-100
-9.56245e-104
-3.19507e-107
-2.36144e-111
3.6558e-16
2.60553e-16
1.96084e-16
1.53637e-16
1.29645e-16
1.18016e-16
1.02295e-16
6.41943e-17
1.70729e-17
1.00842e-18
9.42994e-21
2.50643e-23
4.24519e-26
5.57883e-29
5.79312e-32
4.771e-35
3.11403e-38
1.63736e-41
6.846e-45
2.31761e-48
6.274e-52
1.35341e-55
2.35143e-59
3.19825e-63
3.43543e-67
2.85739e-71
1.82378e-75
8.84519e-80
3.1569e-84
8.13726e-89
1.40196e-93
-2.22079e-95
-1.14637e-97
-2.23651e-100
-1.91436e-103
-6.13446e-107
-4.22007e-111
4.07459e-16
2.82653e-16
2.07807e-16
1.6015e-16
1.32205e-16
1.19805e-16
1.07037e-16
7.505e-17
2.55062e-17
2.19251e-18
3.00449e-20
9.49182e-23
1.69177e-25
2.29524e-28
2.44586e-31
2.05682e-34
1.36462e-37
7.26339e-41
3.0627e-44
1.04182e-47
2.82501e-51
6.08558e-55
1.05267e-58
1.42129e-62
1.51097e-66
1.23996e-70
7.78283e-75
3.69827e-79
1.28775e-83
3.22208e-88
5.48843e-93
-3.56892e-95
-1.97313e-97
-3.82947e-100
-3.17975e-103
-9.64753e-107
-6.06595e-111
4.48587e-16
3.03975e-16
2.18039e-16
1.65224e-16
1.3417e-16
1.21028e-16
1.10339e-16
8.38533e-17
3.46634e-17
4.1198e-18
8.17154e-20
3.17264e-22
6.00435e-25
8.41736e-28
9.20382e-31
7.89914e-34
5.3227e-37
2.86466e-40
1.21645e-43
4.15081e-47
1.12518e-50
2.41506e-54
4.14884e-58
5.5456e-62
5.81758e-66
4.69523e-70
2.88782e-74
1.33916e-78
4.52872e-83
1.09406e-87
1.80679e-92
-4.22306e-95
-2.69493e-97
-5.19292e-100
-4.14951e-103
-1.17635e-106
-6.64302e-111
4.85371e-16
3.22227e-16
2.2572e-16
1.68162e-16
1.35165e-16
1.21731e-16
1.12525e-16
9.04488e-17
4.34375e-17
6.75295e-18
1.87589e-19
9.14139e-22
1.85929e-24
2.70345e-27
3.04296e-30
2.67427e-33
1.83649e-36
1.00287e-39
4.30337e-43
1.4778e-46
4.01747e-50
8.61853e-54
1.47495e-57
1.95773e-61
2.0327e-65
1.61818e-69
9.78008e-74
4.43732e-78
1.46047e-82
3.41147e-87
5.4296e-92
-2.16749e-95
-2.64542e-97
-5.11852e-100
-3.91137e-103
-1.02347e-106
-5.12278e-111
5.13745e-16
3.34755e-16
2.29943e-16
1.69084e-16
1.35344e-16
1.2199e-16
1.1374e-16
9.46453e-17
5.03498e-17
9.54793e-18
3.4692e-19
2.08517e-21
4.57119e-24
6.90017e-27
8.01171e-30
7.23524e-33
5.08748e-36
2.83471e-39
1.23699e-42
4.30408e-46
1.18202e-49
2.55421e-53
4.39064e-57
5.83789e-61
6.05477e-65
4.8002e-69
2.8793e-73
1.29114e-77
4.17828e-82
9.52985e-87
1.47076e-91
8.60076e-97
-1.482e-97
-3.0766e-100
-2.2779e-103
-5.49542e-107
-2.4872e-111
5.30503e-16
3.40413e-16
2.31109e-16
1.68881e-16
1.3505e-16
1.21983e-16
1.14138e-16
9.63892e-17
5.39338e-17
1.1393e-17
4.8332e-19
3.31954e-21
7.67659e-24
1.1913e-26
1.41733e-29
1.30978e-32
9.41235e-36
5.35213e-39
2.37985e-42
8.4207e-46
2.34823e-49
5.14508e-53
8.95458e-57
1.20373e-60
1.26e-64
1.0061e-68
6.06195e-73
2.72055e-77
8.76741e-82
1.9771e-86
2.98703e-91
2.62359e-96
-3.67888e-98
-8.59112e-101
-6.33449e-104
-1.43317e-107
-6.13994e-112
5.36057e-16
3.41354e-16
2.299e-16
1.66722e-16
1.33897e-16
1.217e-16
1.14101e-16
9.65214e-17
5.44518e-17
1.17522e-17
5.151e-19
3.64217e-21
8.523e-24
1.3296e-26
1.58846e-29
1.47396e-32
1.06386e-35
6.07763e-39
2.71589e-42
9.65878e-46
2.7083e-49
5.96946e-53
1.04558e-56
1.41499e-60
1.49096e-64
1.19762e-68
7.24771e-73
3.25766e-77
1.04654e-81
2.33492e-86
3.44909e-91
3.10108e-96
-1.53569e-99
-6.31437e-102
-4.93425e-105
-1.11526e-108
-4.88433e-113
5.3584e-16
3.37696e-16
2.24345e-16
1.61779e-16
1.31706e-16
1.21061e-16
1.13583e-16
9.52945e-17
5.25837e-17
1.08828e-17
4.48175e-19
2.98618e-21
6.78946e-24
1.039e-26
1.21745e-29
1.10771e-32
7.84158e-36
4.39594e-39
1.9291e-42
6.746e-46
1.86195e-49
4.0448e-53
6.99069e-57
9.34429e-61
9.72888e-65
7.71926e-69
4.60771e-73
2.03661e-77
6.39987e-82
1.38448e-86
1.95488e-91
1.65676e-96
2.69324e-101
3.88269e-104
1.68155e-107
-4.29807e-112
-1.1691e-115
5.23517e-16
3.25109e-16
2.13444e-16
1.54389e-16
1.28883e-16
1.20082e-16
1.1234e-16
9.20274e-17
4.76004e-17
8.71151e-18
3.02133e-19
1.74005e-21
3.7306e-24
5.5151e-27
6.24669e-30
5.49094e-33
3.75486e-36
2.03347e-39
8.62363e-43
2.91777e-46
7.79623e-50
1.64059e-53
2.74788e-57
3.55996e-61
3.59037e-65
2.75572e-69
1.58712e-73
6.73998e-78
2.02117e-82
4.12829e-87
5.40743e-92
4.10988e-97
1.52659e-102
9.01877e-108
1.62282e-110
-1.25865e-114
-2.79378e-118
4.92517e-16
3.01976e-16
1.97522e-16
1.45687e-16
1.25965e-16
1.18764e-16
1.10114e-16
8.62376e-17
3.96549e-17
5.84066e-18
1.51787e-19
7.01537e-22
1.38625e-24
1.94942e-27
2.10355e-30
1.76177e-33
1.14829e-36
5.9295e-40
2.39947e-43
7.75685e-47
1.98044e-50
3.98205e-54
6.37015e-58
7.87457e-62
7.56474e-66
5.51616e-70
3.007e-74
1.20207e-78
3.36623e-83
6.34229e-88
7.51141e-93
4.96243e-98
1.48518e-103
1.3893e-109
1.3146e-116
-5.21018e-117
-4.9356e-121
4.44069e-16
2.70003e-16
1.78295e-16
1.37087e-16
1.23269e-16
1.17045e-16
1.06472e-16
7.72822e-17
2.94453e-17
3.11871e-18
5.39028e-20
1.90629e-22
3.41755e-25
4.49237e-28
4.54085e-31
3.56638e-34
2.18247e-37
1.05934e-40
4.03876e-44
1.2309e-47
2.96389e-51
5.62033e-55
8.47377e-59
9.85939e-63
8.8959e-67
6.07504e-71
3.08969e-75
1.14634e-79
2.95786e-84
5.0806e-89
5.37952e-94
3.07629e-99
7.65936e-105
8.11879e-111
9.44102e-118
-8.48729e-120
-5.80219e-124
3.82799e-16
2.32419e-16
1.58524e-16
1.29812e-16
1.20812e-16
1.14689e-16
1.00591e-16
6.44661e-17
1.84739e-17
1.22991e-18
1.27086e-20
3.41144e-23
5.48526e-26
6.61098e-29
6.14326e-32
4.44523e-35
2.5114e-38
1.12756e-41
3.98935e-45
1.12935e-48
2.52761e-52
4.4555e-56
6.24126e-60
6.74004e-64
5.63633e-68
3.56224e-72
1.67416e-76
5.73252e-81
1.36369e-85
2.15619e-90
2.09845e-95
1.1068e-100
3.0452e-106
4.90754e-112
5.61392e-118
-2.47912e-125
-4.07369e-127
3.13607e-16
1.93502e-16
1.41448e-16
1.24459e-16
1.18392e-16
1.11111e-16
9.10038e-17
4.75881e-17
8.96472e-18
3.21174e-19
1.86617e-21
3.918e-24
5.59195e-27
6.06459e-30
5.08904e-33
3.33589e-36
1.71221e-39
7.00435e-43
2.26665e-46
5.87478e-50
1.20456e-53
1.94578e-57
2.49811e-61
2.4736e-65
1.89898e-69
1.10496e-73
4.80651e-78
1.53737e-82
3.46791e-87
5.30961e-92
5.19639e-97
3.09963e-102
1.17588e-107
3.20082e-113
6.01855e-119
5.38446e-125
-1.3939e-132
2.43496e-16
1.59504e-16
1.29499e-16
1.20696e-16
1.15557e-16
1.04948e-16
7.54688e-17
2.82288e-17
2.88638e-18
4.69872e-20
1.56522e-22
2.66982e-25
3.3312e-28
3.18669e-31