/*--------------------------------*- C++ -*----------------------------------*\
| =========                 |                                                 |
| \\      /  F ield         | OpenFOAM: The Open Source CFD Toolbox           |
|  \\    /   O peration     | Version:  v2012                                 |
|   \\  /    A nd           | Website:  www.openfoam.com                      |
|    \\/     M anipulation  |                                                 |
\*---------------------------------------------------------------------------*/
FoamFile
{
    version     2.0;
    format      ascii;
    class       surfaceScalarField;
    location    "0.2";
    object      phi;
}
// * * * * * * * * * * * * * * * * * * * * * * * * * * * * * * * * * * * * * //

dimensions      [0 3 -1 0 0 0 0];
oriented        oriented;


internalField   nonuniform List<scalar> 
6514
(
1.07264e-10
-2.23818e-10
7.80512e-19
1.13027e-10
-2.3159e-10
1.64521e-17
1.1817e-10
-2.38199e-10
7.47153e-18
1.22607e-10
-2.4358e-10
1.52327e-17
1.26269e-10
-2.47668e-10
3.62134e-18
1.291e-10
-2.50493e-10
5.50916e-18
1.31062e-10
-2.52021e-10
-5.27175e-18
1.32135e-10
-2.52316e-10
-5.84183e-18
1.32317e-10
-2.51433e-10
-1.56568e-17
1.31622e-10
-2.49443e-10
-2.06183e-17
1.3008e-10
-2.46443e-10
-2.72995e-17
1.27734e-10
-2.42535e-10
-3.14124e-17
1.24638e-10
-2.37838e-10
-3.4778e-17
1.20855e-10
-2.32455e-10
-3.61712e-17
1.16457e-10
-2.26507e-10
-3.59037e-17
1.11515e-10
-2.20095e-10
-3.44185e-17
1.0611e-10
-2.13269e-10
-3.16966e-17
1.00312e-10
-2.06232e-10
-2.80437e-17
9.42002e-11
-1.98918e-10
-2.36715e-17
8.78437e-11
-1.91492e-10
-1.89822e-17
8.13128e-11
-1.83907e-10
-1.43699e-17
7.4673e-11
-1.76182e-10
-9.51529e-18
6.79798e-11
-1.68426e-10
-5.07777e-18
6.12933e-11
-1.60463e-10
-1.04388e-18
5.4663e-11
-1.5236e-10
6.00631e-18
4.8139e-11
-1.43999e-10
1.06273e-17
4.17683e-11
-1.35326e-10
1.34801e-17
3.55943e-11
-1.26278e-10
1.58226e-17
2.9665e-11
-1.16688e-10
1.7618e-17
2.40284e-11
-1.06469e-10
1.92634e-17
1.87385e-11
-9.54842e-11
1.96399e-17
1.38612e-11
-8.35223e-11
1.88357e-17
9.48145e-12
-7.03043e-11
1.77484e-17
5.71518e-12
-5.54695e-11
1.48846e-17
2.72585e-12
-3.87022e-11
1.17685e-17
7.3269e-13
-2.05423e-11
6.52673e-18
-3.9375e-12
6.96626e-19
1.13758e-10
-2.30163e-10
8.72196e-18
1.195e-10
-2.37332e-10
4.5586e-18
1.24543e-10
-2.43242e-10
1.41746e-17
1.28805e-10
-2.47842e-10
4.75172e-18
1.32221e-10
-2.51083e-10
7.81382e-18
1.34743e-10
-2.53015e-10
-1.55204e-18
1.36343e-10
-2.5362e-10
-3.46686e-18
1.37009e-10
-2.52982e-10
-9.42525e-18
1.36751e-10
-2.51176e-10
-1.4744e-17
1.35595e-10
-2.48287e-10
-2.14208e-17
1.33582e-10
-2.4443e-10
-2.64162e-17
1.30765e-10
-2.39718e-10
-3.03104e-17
1.27208e-10
-2.34281e-10
-3.35316e-17
1.22983e-10
-2.2823e-10
-3.42259e-17
1.18167e-10
-2.21691e-10
-3.45113e-17
1.12839e-10
-2.14767e-10
-3.24993e-17
1.07082e-10
-2.07511e-10
-3.05152e-17
1.00971e-10
-2.00121e-10
-2.67266e-17
9.45842e-11
-1.92531e-10
-2.3161e-17
8.79922e-11
-1.84901e-10
-1.86906e-17
8.12645e-11
-1.77179e-10
-1.48254e-17
7.44649e-11
-1.69382e-10
-1.03817e-17
6.76472e-11
-1.61608e-10
-6.57663e-18
6.0869e-11
-1.53684e-10
-2.88406e-18
5.41773e-11
-1.45668e-10
3.35268e-18
4.76195e-11
-1.37441e-10
7.86039e-18
4.12396e-11
-1.28946e-10
1.06094e-17
3.50783e-11
-1.20117e-10
1.30913e-17
2.91808e-11
-1.1079e-10
1.50893e-17
2.35924e-11
-1.0088e-10
1.71617e-17
1.83638e-11
-9.02554e-11
1.79423e-17
1.35574e-11
-7.87158e-11
1.76761e-17
9.25423e-12
-6.60009e-11
1.69841e-17
5.56493e-12
-5.17801e-11
1.45951e-17
2.64625e-12
-3.57834e-11
1.17467e-17
7.07949e-13
-1.86039e-11
6.85629e-18
-3.2295e-12
1.6276e-18
1.20618e-10
-2.36527e-10
-7.73487e-19
1.26293e-10
-2.43007e-10
6.94862e-18
1.31186e-10
-2.48135e-10
4.50105e-18
1.35218e-10
-2.51875e-10
6.07293e-18
1.38331e-10
-2.54197e-10
3.25152e-19
1.40488e-10
-2.55172e-10
-1.92656e-18
1.4167e-10
-2.54802e-10
-8.25386e-18
1.41877e-10
-2.5319e-10
-1.06537e-17
1.41133e-10
-2.50432e-10
-1.66793e-17
1.39475e-10
-2.46629e-10
-2.26093e-17
1.36955e-10
-2.4191e-10
-2.63441e-17
1.33639e-10
-2.36401e-10
-3.07818e-17
1.29599e-10
-2.30241e-10
-3.2263e-17
1.24916e-10
-2.23548e-10
-3.39229e-17
1.19673e-10
-2.16449e-10
-3.27204e-17
1.13955e-10
-2.09049e-10
-3.16197e-17
1.07848e-10
-2.01403e-10
-2.86641e-17
1.01427e-10
-1.93701e-10
-2.56642e-17
9.47745e-11
-1.85878e-10
-2.16826e-17
8.79578e-11
-1.78084e-10
-1.79134e-17
8.10457e-11
-1.70267e-10
-1.40405e-17
7.41004e-11
-1.62436e-10
-1.02517e-17
6.71728e-11
-1.54681e-10
-6.69073e-18
6.03179e-11
-1.46829e-10
-3.45746e-18
5.35795e-11
-1.38929e-10
2.22871e-18
4.70021e-11
-1.30863e-10
6.4359e-18
4.06267e-11
-1.2257e-10
9.04553e-18
3.44911e-11
-1.13981e-10
1.15174e-17
2.86376e-11
-1.04936e-10
1.36584e-17
2.31084e-11
-9.53508e-11
1.60576e-17
1.79513e-11
-8.50981e-11
1.7235e-17
1.32253e-11
-7.39895e-11
1.7526e-17
9.00699e-12
-6.17824e-11
1.73329e-17
5.40202e-12
-4.81749e-11
1.55295e-17
2.56014e-12
-3.29414e-11
1.31848e-17
6.81214e-13
-1.67249e-11
8.8139e-18
-2.54822e-12
4.28889e-18
1.27851e-10
-2.42863e-10
-1.23552e-18
1.33406e-10
-2.48562e-10
2.06827e-18
1.38089e-10
-2.52818e-10
3.92164e-18
1.41829e-10
-2.55615e-10
1.19733e-18
1.44578e-10
-2.56946e-10
-1.42901e-18
1.46308e-10
-2.56901e-10
-5.2537e-18
1.47013e-10
-2.55506e-10
-1.11077e-17
1.46708e-10
-2.52886e-10
-1.19038e-17
1.45429e-10
-2.49153e-10
-1.91847e-17
1.43226e-10
-2.44427e-10
-2.2173e-17
1.40166e-10
-2.3885e-10
-2.79083e-17
1.36324e-10
-2.32558e-10
-2.92011e-17
1.31782e-10
-2.25699e-10
-3.2699e-17
1.26628e-10
-2.18394e-10
-3.18204e-17
1.20952e-10
-2.10773e-10
-3.22271e-17
1.14843e-10
-2.02941e-10
-2.94214e-17
1.08389e-10
-1.94948e-10
-2.76034e-17
1.01668e-10
-1.8698e-10
-2.36824e-17
9.47592e-11
-1.78969e-10
-2.05259e-17
8.77311e-11
-1.71056e-10
-1.64368e-17
8.06497e-11
-1.63185e-10
-1.31776e-17
7.35743e-11
-1.5536e-10
-9.44832e-18
6.6553e-11
-1.4766e-10
-6.40536e-18
5.96375e-11
-1.39913e-10
-3.48761e-18
5.28682e-11
-1.3216e-10
1.81916e-18
4.62863e-11
-1.24281e-10
5.80574e-18
3.99297e-11
-1.16213e-10
8.27364e-18
3.38331e-11
-1.07884e-10
1.07438e-17
2.80358e-11
-9.91381e-11
1.29461e-17
2.25772e-11
-8.98919e-11
1.55078e-17
1.75019e-11
-8.00226e-11
1.68974e-17
1.28653e-11
-6.93528e-11
1.74593e-17
8.74016e-12
-5.76571e-11
1.75136e-17
5.22672e-12
-4.46613e-11
1.59767e-17
2.46764e-12
-3.01822e-11
1.38186e-17
6.52522e-13
-1.49097e-11
9.70685e-18
-1.89561e-12
5.09469e-18
1.35461e-10
-2.49116e-10
-2.21735e-18
1.40833e-10
-2.53934e-10
-2.4873e-18
1.4524e-10
-2.57225e-10
1.67408e-18
1.48619e-10
-2.58995e-10
-3.47546e-18
1.50934e-10
-2.5926e-10
-2.84692e-18
1.52171e-10
-2.58137e-10
-1.02095e-17
1.52337e-10
-2.55672e-10
-1.13647e-17
1.51463e-10
-2.52013e-10
-1.62749e-17
1.496e-10
-2.4729e-10
-1.79082e-17
1.46813e-10
-2.4164e-10
-2.53272e-17
1.43179e-10
-2.35216e-10
-2.57426e-17
1.38786e-10
-2.28165e-10
-3.08335e-17
1.33724e-10
-2.20638e-10
-3.01752e-17
1.2809e-10
-2.12761e-10
-3.21444e-17
1.21979e-10
-2.04662e-10
-2.97396e-17
1.15482e-10
-1.96443e-10
-2.88487e-17
1.08689e-10
-1.88154e-10
-2.5357e-17
1.01678e-10
-1.79969e-10
-2.26645e-17
9.45275e-11
-1.71819e-10
-1.86927e-17
8.73038e-11
-1.63833e-10
-1.54046e-17
8.007e-11
-1.55951e-10
-1.18625e-17
7.28823e-11
-1.48172e-10
-8.69901e-18
6.5785e-11
-1.40563e-10
-5.68144e-18
5.88262e-11
-1.32953e-10
-3.12289e-18
5.20427e-11
-1.25376e-10
1.9256e-18
4.54721e-11
-1.17711e-10
5.65832e-18
3.91491e-11
-1.09889e-10
8.03318e-18
3.31051e-11
-1.0184e-10
1.0461e-17
2.73765e-11
-9.34091e-11
1.27315e-17
2.19996e-11
-8.45149e-11
1.54478e-17
1.70162e-11
-7.5039e-11
1.7052e-17
1.24783e-11
-6.48146e-11
1.79111e-17
8.45432e-12
-5.36329e-11
1.82439e-17
5.03941e-12
-4.12462e-11
1.70245e-17
2.36897e-12
-2.75116e-11
1.51588e-17
6.21926e-13
-1.31625e-11
1.13904e-17
-1.27357e-12
7.07451e-18
1.43447e-10
-2.55219e-10
-8.41262e-18
1.48563e-10
-2.5905e-10
4.60619e-19
1.52618e-10
-2.61279e-10
-5.16295e-18
1.5556e-10
-2.61937e-10
-9.82419e-19
1.57366e-10
-2.61066e-10
-9.98234e-18
1.58037e-10
-2.58808e-10
-7.54135e-18
1.576e-10
-2.55235e-10
-1.82342e-17
1.561e-10
-2.50514e-10
-1.30834e-17
1.53604e-10
-2.44794e-10
-2.30809e-17
1.50192e-10
-2.38227e-10
-2.19161e-17
1.45954e-10
-2.30978e-10
-2.89337e-17
1.40989e-10
-2.23199e-10
-2.73936e-17
1.35395e-10
-2.15045e-10
-3.14883e-17
1.29276e-10
-2.06642e-10
-2.89257e-17
1.2273e-10
-1.98116e-10
-2.96544e-17
1.15851e-10
-1.89565e-10
-2.6006e-17
1.0873e-10
-1.81033e-10
-2.44356e-17
1.01444e-10
-1.72683e-10
-2.02854e-17
9.4069e-11
-1.64444e-10
-1.74845e-17
8.66682e-11
-1.56432e-10
-1.35742e-17
7.93014e-11
-1.48584e-10
-1.07551e-17
7.20208e-11
-1.4089e-10
-7.44417e-18
6.48667e-11
-1.33409e-10
-4.9228e-18
5.78831e-11
-1.25969e-10
-2.50833e-18
5.1103e-11
-1.18596e-10
2.21022e-18
4.45601e-11
-1.11168e-10
5.80558e-18
3.82858e-11
-1.03614e-10
8.03922e-18
3.23083e-11
-9.58622e-11
1.04683e-17
2.66608e-11
-8.77614e-11
1.27677e-17
2.13771e-11
-7.92308e-11
1.55923e-17
1.64956e-11
-7.01573e-11
1.73595e-17
1.20651e-11
-6.03839e-11
1.84157e-17
8.15016e-12
-4.97177e-11
1.8938e-17
4.84055e-12
-3.79364e-11
1.79164e-17
2.26436e-12
-2.49352e-11
1.62067e-17
5.895e-13
-1.14875e-11
1.26467e-17
-6.8393e-13
8.45468e-18
1.51801e-10
-2.61094e-10
-2.94234e-18
1.56579e-10
-2.63828e-10
-9.63457e-18
1.60195e-10
-2.64895e-10
5.50783e-19
1.62614e-10
-2.64357e-10
-1.18847e-17
1.6383e-10
-2.62282e-10
-4.27244e-18
1.63862e-10
-2.5884e-10
-1.77622e-17
1.62754e-10
-2.54126e-10
-1.28966e-17
1.6057e-10
-2.4833e-10
-2.119e-17
1.57393e-10
-2.41618e-10
-1.78376e-17
1.53319e-10
-2.34153e-10
-2.74612e-17
1.4845e-10
-2.26109e-10
-2.41951e-17
1.42894e-10
-2.17643e-10
-3.03564e-17
1.36761e-10
-2.08911e-10
-2.73539e-17
1.30155e-10
-2.00037e-10
-2.98527e-17
1.2318e-10
-1.91141e-10
-2.617e-17
1.15931e-10
-1.82316e-10
-2.56154e-17
1.08497e-10
-1.73599e-10
-2.15824e-17
1.00954e-10
-1.6514e-10
-1.92434e-17
9.33743e-11
-1.56864e-10
-1.52565e-17
8.58177e-11
-1.48875e-10
-1.24042e-17
7.83394e-11
-1.41106e-10
-9.1234e-18
7.09873e-11
-1.33538e-10
-6.46707e-18
6.37971e-11
-1.26219e-10
-3.88019e-18
5.68083e-11
-1.1898e-10
-1.8465e-18
5.00498e-11
-1.11838e-10
2.68924e-18
4.35517e-11
-1.04669e-10
6.01191e-18
3.73414e-11
-9.74037e-11
8.1576e-18
3.14443e-11
-8.99649e-11
1.04885e-17
2.58906e-11
-8.22073e-11
1.28031e-17
2.0711e-11
-7.4051e-11
1.56909e-17
1.59413e-11
-6.53874e-11
1.75773e-17
1.1627e-11
-5.60693e-11
1.88009e-17
7.82854e-12
-4.59191e-11
1.94813e-17
4.63068e-12
-3.47383e-11
1.86342e-17
2.15408e-12
-2.24584e-11
1.70775e-17
5.55327e-13
-9.88858e-12
1.37101e-17
-1.28445e-13
9.61403e-18
1.60509e-10
-2.66651e-10
-1.25326e-17
1.64852e-10
-2.68171e-10
5.00386e-19
1.67935e-10
-2.67978e-10
-1.2782e-17
1.69738e-10
-2.66161e-10
-1.48287e-18
1.70277e-10
-2.6282e-10
-1.79212e-17
1.6959e-10
-2.58152e-10
-8.23829e-18
1.67742e-10
-2.52278e-10
-2.48697e-17
1.64816e-10
-2.45405e-10
-1.28323e-17
1.60914e-10
-2.37715e-10
-2.64397e-17
1.56143e-10
-2.29383e-10
-2.06161e-17
1.50621e-10
-2.20586e-10
-2.94807e-17
1.44463e-10
-2.11485e-10
-2.48206e-17
1.37786e-10
-2.02233e-10
-2.98124e-17
1.30698e-10
-1.9295e-10
-2.54285e-17
1.23306e-10
-1.83749e-10
-2.66495e-17
1.15701e-10
-1.74712e-10
-2.21289e-17
1.07975e-10
-1.65871e-10
-2.09171e-17
1.00196e-10
-1.57361e-10
-1.65418e-17
9.24355e-11
-1.49103e-10
-1.41386e-17
8.47469e-11
-1.41187e-10
-1.03873e-17
7.71809e-11
-1.33539e-10
-7.98622e-18
6.97804e-11
-1.26137e-10
-5.0326e-18
6.25759e-11
-1.19014e-10
-2.97316e-18
5.56026e-11
-1.12006e-10
-9.88615e-19
4.88848e-11
-1.0512e-10
3.23358e-18
4.24487e-11
-9.82332e-11
6.4572e-18
3.63182e-11
-9.12728e-11
8.45347e-18
3.05156e-11
-8.41621e-11
1.0769e-17
2.5068e-11
-7.67594e-11
1.30707e-17
2.00035e-11
-6.89862e-11
1.60074e-17
1.53551e-11
-6.07387e-11
1.7987e-17
1.11652e-11
-5.18792e-11
1.93346e-17
7.49041e-12
-4.22441e-11
2.01275e-17
4.41044e-12
-3.16581e-11
1.93989e-17
2.03847e-12
-2.00863e-11
1.79301e-17
5.19506e-13
-8.36943e-12
1.4702e-17
3.91238e-13
1.06927e-17
1.69543e-10
-2.71783e-10
-2.63273e-18
1.73344e-10
-2.71973e-10
-1.5512e-17
1.75787e-10
-2.70421e-10
1.15031e-18
1.76875e-10
-2.67249e-10
-1.97672e-17
1.76644e-10
-2.62589e-10
-3.97523e-18
1.75158e-10
-2.56666e-10
-2.4958e-17
1.72502e-10
-2.49622e-10
-1.29653e-17
1.68779e-10
-2.41684e-10
-2.56305e-17
1.64108e-10
-2.33045e-10
-1.66007e-17
1.58613e-10
-2.23887e-10
-2.91865e-17
1.52419e-10
-2.14392e-10
-2.18727e-17
1.45654e-10
-2.04719e-10
-2.95521e-17
1.38435e-10
-1.95015e-10
-2.40304e-17
1.30877e-10
-1.85392e-10
-2.72988e-17
1.23083e-10
-1.75954e-10
-2.22908e-17
1.15145e-10
-1.66775e-10
-2.22122e-17
1.07149e-10
-1.57874e-10
-1.76438e-17
9.91607e-11
-1.49374e-10
-1.57225e-17
9.12457e-11
-1.41187e-10
-1.17138e-17
8.34518e-11
-1.33393e-10
-9.28436e-18
7.58241e-11
-1.25911e-10
-6.2184e-18
6.83998e-11
-1.18712e-10
-3.99476e-18
6.12043e-11
-1.11819e-10
-1.75724e-18
5.42678e-11
-1.05069e-10
-1.47686e-19
4.76103e-11
-9.8462e-11
3.97842e-18
4.12538e-11
-9.18766e-11
6.94283e-18
3.52189e-11
-8.52376e-11
8.87329e-18
2.95246e-11
-7.84676e-11
1.10792e-17
2.41954e-11
-7.14298e-11
1.33713e-17
1.92567e-11
-6.40472e-11
1.63142e-17
1.47388e-11
-5.62206e-11
1.83627e-17
1.06812e-11
-4.78213e-11
1.98058e-17
7.1369e-12
-3.86996e-11
2.06925e-17
4.18054e-12
-2.87016e-11
2.00744e-17
1.91789e-12
-1.78234e-11
1.87014e-17
4.82146e-13
-6.93349e-12
1.56086e-17
8.7358e-13
1.16445e-17
1.78864e-10
-2.76369e-10
-1.6787e-17
1.82004e-10
-2.75113e-10
1.99379e-18
1.83691e-10
-2.72108e-10
-2.04568e-17
1.83956e-10
-2.67514e-10
-7.59974e-20
1.8286e-10
-2.61493e-10
-2.58024e-17
1.80492e-10
-2.54297e-10
-7.27446e-18
1.76961e-10
-2.4609e-10
-3.13025e-17
1.7239e-10
-2.37113e-10
-1.12488e-17
1.66914e-10
-2.27569e-10
-2.94508e-17
1.60671e-10
-2.17644e-10
-1.84364e-17
1.53797e-10
-2.07518e-10
-2.97513e-17
1.46424e-10
-1.97345e-10
-2.17385e-17
1.38675e-10
-1.87265e-10
-2.79612e-17
1.30662e-10
-1.7738e-10
-2.16762e-17
1.22489e-10
-1.67781e-10
-2.35661e-17
1.14244e-10
-1.5853e-10
-1.81683e-17
1.06007e-10
-1.49637e-10
-1.74076e-17
9.78398e-11
-1.41206e-10
-1.28032e-17
8.98002e-11
-1.33147e-10
-1.08133e-17
8.193e-11
-1.25523e-10
-7.1814e-18
7.42685e-11
-1.1825e-10
-5.152e-18
6.68466e-11
-1.11289e-10
-2.48056e-18
5.96843e-11
-1.04657e-10
-7.93704e-19
5.28068e-11
-9.81913e-11
8.67414e-19
4.62295e-11
-9.18846e-11
4.70674e-18
3.99705e-11
-8.56175e-11
7.62824e-18
3.40469e-11
-7.93136e-11
9.42223e-18
2.84747e-11
-7.28953e-11
1.16154e-17
2.32758e-11
-6.62306e-11
1.38756e-17
1.84731e-11
-5.92443e-11
1.68378e-17
1.40945e-11
-5.18418e-11
1.89408e-17
1.01767e-11
-4.39033e-11
2.04602e-17
6.76922e-12
-3.52919e-11
2.14161e-17
3.94176e-12
-2.58739e-11
2.08781e-17
1.79275e-12
-1.56742e-11
1.95674e-17
4.43366e-13
-5.58389e-12
1.65763e-17
1.31716e-12
1.268e-17
1.88419e-10
-2.80273e-10
-5.50626e-19
1.90763e-10
-2.77457e-10
-2.29339e-17
1.9157e-10
-2.72915e-10
3.80333e-18
1.90899e-10
-2.66843e-10
-2.83967e-17
1.88841e-10
-2.59435e-10
-1.8128e-18
1.85511e-10
-2.50966e-10
-3.22868e-17
1.81041e-10
-2.4162e-10
-1.16038e-17
1.75575e-10
-2.31648e-10
-2.98464e-17
1.69265e-10
-2.21259e-10
-1.43245e-17
1.6226e-10
-2.10639e-10
-3.06695e-17
1.54703e-10
-1.99962e-10
-1.89668e-17
1.46732e-10
-1.89374e-10
-2.86229e-17
1.38469e-10
-1.79003e-10
-2.04715e-17
1.30027e-10
-1.68938e-10
-2.47543e-17
1.21504e-10
-1.59258e-10
-1.84032e-17
1.12984e-10
-1.5001e-10
-1.89206e-17
1.0454e-10
-1.41193e-10
-1.3829e-17
9.62269e-11
-1.32893e-10
-1.2359e-17
8.80956e-11
-1.25016e-10
-8.30829e-18
8.01809e-11
-1.17609e-10
-6.26719e-18
7.25152e-11
-1.10584e-10
-3.35818e-18
6.51232e-11
-1.03897e-10
-1.49178e-18
5.80193e-11
-9.75532e-11
4.89422e-19
5.12233e-11
-9.13949e-11
1.78229e-18
4.47464e-11
-8.54075e-11
5.6148e-18
3.86027e-11
-7.94736e-11
8.30259e-18
3.2806e-11
-7.35164e-11
1.00675e-17
2.73695e-11
-6.74586e-11
1.21557e-17
2.23124e-11
-6.11732e-11
1.44013e-17
1.76556e-11
-5.45872e-11
1.73442e-17
1.34246e-11
-4.76106e-11
1.94837e-17
9.65357e-12
-4.0132e-11
2.10628e-17
6.3887e-12
-3.20268e-11
2.20756e-17
3.69497e-12
-2.31799e-11
2.16122e-17
1.66347e-12
-1.36424e-11
2.03703e-17
4.03298e-13
-4.32348e-12
1.74867e-17
1.72069e-12
1.36117e-17
1.98133e-10
-2.83342e-10
-2.60965e-17
1.99536e-10
-2.78861e-10
5.84153e-18
1.9933e-10
-2.72709e-10
-3.04804e-17
1.97607e-10
-2.6512e-10
3.49927e-18
1.94489e-10
-2.56316e-10
-3.45019e-17
1.90119e-10
-2.46596e-10
-4.60273e-18
1.84653e-10
-2.36154e-10
-3.78505e-17
1.78255e-10
-2.25251e-10
-8.43704e-18
1.7109e-10
-2.14094e-10
-3.22817e-17
1.63318e-10
-2.02866e-10
-1.55442e-17
1.55087e-10
-1.91731e-10
-2.99122e-17
1.46536e-10
-1.80822e-10
-1.83821e-17
1.37787e-10
-1.70253e-10
-2.61615e-17
1.28947e-10
-1.60099e-10
-1.79509e-17
1.2011e-10
-1.50422e-10
-2.06722e-17
1.11353e-10
-1.41253e-10
-1.44087e-17
1.0274e-10
-1.32579e-10
-1.41659e-17
9.43182e-11
-1.24472e-10
-9.32478e-18
8.61312e-11
-1.16828e-10
-7.7353e-18
7.82058e-11
-1.09683e-10
-4.17584e-18
7.05671e-11
-1.02945e-10
-2.45913e-18
6.32336e-11
-9.65626e-11
1.33961e-20
5.62138e-11
-9.05335e-11
1.41791e-18
4.95223e-11
-8.47029e-11
2.86256e-18
4.3166e-11
-7.9051e-11
6.43183e-18
3.71553e-11
-7.34628e-11
9.12937e-18
3.15007e-11
-6.78614e-11
1.07821e-17
2.62129e-11
-6.21706e-11
1.28749e-17
2.13088e-11
-5.62688e-11
1.50877e-17
1.68072e-11
-5.00853e-11
1.80318e-17
1.27316e-11
-4.35348e-11
2.02003e-17
9.11378e-12
-3.65139e-11
2.18261e-17
5.99678e-12
-2.89096e-11
2.28784e-17
3.44107e-12
-2.06239e-11
2.24726e-17
1.53053e-12
-1.17316e-11
2.12755e-17
3.62078e-13
-3.15478e-12
1.84759e-17
2.08302e-12
1.46573e-17
2.07912e-10
-2.85403e-10
3.52317e-18
2.08217e-10
-2.79165e-10
-3.63131e-17
2.06859e-10
-2.71351e-10
8.91366e-18
2.03966e-10
-2.62228e-10
-3.92463e-17
1.99694e-10
-2.52044e-10
2.39696e-18
1.94213e-10
-2.41114e-10
-4.02124e-17
1.87704e-10
-2.29644e-10
-8.82947e-18
1.80346e-10
-2.17894e-10
-3.40375e-17
1.72317e-10
-2.06066e-10
-1.11622e-17
1.63784e-10
-1.94332e-10
-3.20583e-17
1.54898e-10
-1.82845e-10
-1.56935e-17
1.45796e-10
-1.7172e-10
-2.7757e-17
1.36596e-10
-1.61054e-10
-1.69372e-17
1.274e-10
-1.50903e-10
-2.24476e-17
1.18292e-10
-1.41314e-10
-1.47746e-17
1.0934e-10
-1.32301e-10
-1.59777e-17
1.00601e-10
-1.2384e-10
-1.03774e-17
9.21124e-11
-1.15983e-10
-9.36602e-18
8.39082e-11
-1.08623e-10
-5.24318e-18
7.60078e-11
-1.01783e-10
-3.5436e-18
6.84288e-11
-9.53657e-11
-7.31164e-19
6.11831e-11
-8.93163e-11
8.65078e-19
5.42734e-11
-8.3624e-11
2.68033e-18
4.77095e-11
-7.81386e-11
3.76098e-18
4.14939e-11
-7.28352e-11
7.40251e-18
3.56335e-11
-6.76022e-11
9.89431e-18
3.01359e-11
-6.23635e-11
1.15562e-17
2.50095e-11
-5.7044e-11
1.35593e-17
2.0269e-11
-5.1528e-11
1.57609e-17
1.59313e-11
-4.57474e-11
1.86693e-17
1.20183e-11
-3.96215e-11
2.08571e-17
8.55941e-12
-3.30548e-11
2.25166e-17
5.59496e-12
-2.59448e-11
2.3603e-17
3.18103e-12
-1.82097e-11
2.3245e-17
1.39442e-12
-9.94476e-12
2.2102e-17
3.19849e-13
-2.07994e-12
1.9396e-17
2.40314e-12
1.55868e-17
2.17634e-10
-2.86273e-10
-4.4301e-17
2.16675e-10
-2.78206e-10
1.39594e-17
2.14024e-10
-2.687e-10
-4.42401e-17
2.09846e-10
-2.5805e-10
1.00479e-17
2.04332e-10
-2.4653e-10
-4.44254e-17
1.97679e-10
-2.34461e-10
-3.56256e-20
1.9009e-10
-2.22054e-10
-4.46372e-17
1.81758e-10
-2.09562e-10
-4.52002e-18
1.7287e-10
-1.97179e-10
-3.50535e-17
1.63596e-10
-1.85058e-10
-1.21514e-17
1.54087e-10
-1.73336e-10
-3.01176e-17
1.44475e-10
-1.62107e-10
-1.49997e-17
1.34871e-10
-1.51449e-10
-2.4611e-17
1.25367e-10
-1.41399e-10
-1.45092e-17
1.16038e-10
-1.31984e-10
-1.81758e-17
1.06941e-10
-1.23204e-10
-1.10826e-17
9.81229e-11
-1.15021e-10
-1.13859e-17
8.96108e-11
-1.07471e-10
-6.30252e-18
8.14305e-11
-1.00443e-10
-5.078e-18
7.35924e-11
-9.39448e-11
-1.5389e-18
6.61066e-11
-8.78797e-11
-7.09404e-20
5.89785e-11
-8.21876e-11
2.28284e-18
5.22052e-11
-7.68508e-11
3.49627e-18
4.57917e-11
-7.17245e-11
4.82109e-18
3.97365e-11
-6.67799e-11
8.21997e-18
3.40433e-11
-6.19089e-11
1.07707e-17
2.87171e-11
-5.70368e-11
1.23456e-17
2.3764e-11
-5.20907e-11
1.4371e-17
1.9197e-11
-4.69607e-11
1.65462e-17
1.50314e-11
-4.15815e-11
1.94436e-17
1.12874e-11
-3.58773e-11
2.16458e-17
7.99267e-12
-2.97598e-11
2.33266e-17
5.18482e-12
-2.31367e-11
2.44346e-17
2.91584e-12
-1.59405e-11
2.41164e-17
1.25563e-12
-8.28427e-12
2.30022e-17
2.76759e-13
-1.10078e-12
2.03742e-17
2.68018e-12
1.66132e-17
2.27149e-10
-2.85753e-10
1.64634e-17
2.24755e-10
-2.75812e-10
-5.44825e-17
2.20669e-10
-2.64614e-10
1.91731e-17
2.15098e-10
-2.5248e-10
-5.19589e-17
2.08266e-10
-2.39697e-10
9.41694e-18
2.00395e-10
-2.26589e-10
-4.86246e-17
1.91705e-10
-2.13364e-10
-4.5823e-18
1.82402e-10
-2.0026e-10
-3.82619e-17
1.72676e-10
-1.87453e-10
-7.31824e-18
1.62698e-10
-1.75079e-10
-3.3468e-17
1.52611e-10
-1.63249e-10
-1.23064e-17
1.42541e-10
-1.52037e-10
-2.7115e-17
1.32588e-10
-1.41496e-10
-1.36746e-17
1.22833e-10
-1.31645e-10
-2.05568e-17
1.13339e-10
-1.2249e-10
-1.16246e-17
1.04152e-10
-1.14017e-10
-1.35548e-17
9.53061e-11
-1.06175e-10
-7.46853e-18
8.68182e-11
-9.89836e-11
-6.88877e-18
7.87045e-11
-9.23284e-11
-2.6681e-18
7.09671e-11
-8.62074e-11
-1.24142e-18
6.36087e-11
-8.0521e-11
1.53071e-18
5.6628e-11
-7.52064e-11
2.94254e-18
5.00172e-11
-7.02401e-11
4.67354e-18
4.37765e-11
-6.54834e-11
5.63761e-18
3.7901e-11
-6.09042e-11
9.17483e-18
3.23913e-11
-5.6399e-11
1.15417e-17
2.72499e-11
-5.18952e-11
1.31615e-17
2.24814e-11
-4.7322e-11
1.51134e-17
1.80971e-11
-4.25761e-11
1.72863e-17
1.4111e-11
-3.75951e-11
2.01405e-17
1.05419e-11
-3.23079e-11
2.23479e-17
7.41581e-12
-2.66334e-11
2.40421e-17
4.76797e-12
-2.04886e-11
2.51652e-17
2.64652e-12
-1.38187e-11
2.48822e-17
1.1147e-12
-6.75215e-12
2.38072e-17
2.32959e-13
-2.1874e-13
2.1261e-17
2.91344e-12
1.75082e-17
2.36269e-10
-2.83635e-10
-6.95621e-17
2.32269e-10
-2.71811e-10
2.98636e-17
2.26615e-10
-2.5896e-10
-6.07634e-17
2.19556e-10
-2.45422e-10
2.06177e-17
2.11346e-10
-2.31486e-10
-5.52312e-17
2.02229e-10
-2.17472e-10
6.5477e-18
1.92439e-10
-2.03573e-10
-5.15622e-17
1.82187e-10
-1.90009e-10
2.77709e-19
1.71663e-10
-1.7693e-10
-3.78289e-17
1.61032e-10
-1.64448e-10
-8.53171e-18
1.50428e-10
-1.52646e-10
-3.04891e-17
1.39966e-10
-1.41574e-10
-1.18462e-17
1.29731e-10
-1.31261e-10
-2.34533e-17
1.19791e-10
-1.21705e-10
-1.15621e-17
1.10195e-10
-1.12895e-10
-1.62251e-17
1.00976e-10
-1.04798e-10
-8.35616e-18
9.21567e-11
-9.73548e-11
-9.18839e-18
8.37422e-11
-9.05694e-11
-3.85836e-18
7.57393e-11
-8.43251e-11
-2.94104e-18
6.81417e-11
-7.86098e-11
6.26646e-19
6.09447e-11
-7.33239e-11
1.92044e-18
5.41412e-11
-6.84024e-11
4.23254e-18
4.77184e-11
-6.38174e-11
5.33838e-18
4.16723e-11
-5.94368e-11
6.62968e-18
3.59949e-11
-5.52266e-11
9.93104e-18
3.06841e-11
-5.1088e-11
1.23989e-17
2.57406e-11
-4.69512e-11
1.395e-17
2.11671e-11
-4.27483e-11
1.59459e-17
1.6974e-11
-3.83826e-11
1.80925e-17
1.31739e-11
-3.37947e-11
2.09323e-17
9.78477e-12
-2.89185e-11
2.31396e-17
6.83114e-12
-2.36795e-11
2.48432e-17
4.34607e-12
-1.80032e-11
2.5971e-17
2.37414e-12
-1.18465e-11
2.57127e-17
9.72141e-13
-5.34985e-12
2.46605e-17
1.88601e-13
5.65115e-13
2.21784e-17
3.10236e-12
1.84768e-17
2.44776e-10
-2.79709e-10
3.77821e-17
2.39003e-10
-2.66039e-10
-7.83013e-17
2.31663e-10
-2.5162e-10
3.4292e-17
2.23039e-10
-2.36798e-10
-6.65428e-17
2.13414e-10
-2.2186e-10
1.9002e-17
2.03047e-10
-2.07105e-10
-5.74189e-17
1.92181e-10
-1.92706e-10
8.78465e-19
1.81025e-10
-1.78854e-10
-4.25281e-17
1.69764e-10
-1.65669e-10
-3.1093e-18
1.5855e-10
-1.53234e-10
-3.49652e-17
1.47506e-10
-1.41601e-10
-9.07555e-18
1.36729e-10
-1.30796e-10
-2.6797e-17
1.26288e-10
-1.20821e-10
-1.08964e-17
1.16237e-10
-1.11654e-10
-1.91922e-17
1.06608e-10
-1.03266e-10
-9.10983e-18
9.742e-11
-9.56105e-11
-1.17413e-17
8.8684e-11
-8.86181e-11
-5.20809e-18
8.03939e-11
-8.22795e-11
-4.99734e-18
7.25466e-11
-7.64773e-11
-6.51364e-19
6.51278e-11
-7.11911e-11
5.77749e-19
5.81262e-11
-6.6322e-11
3.36719e-18
5.15289e-11
-6.18046e-11
4.67934e-18
4.53188e-11
-5.76074e-11
6.39625e-18
3.94882e-11
-5.36058e-11
7.32938e-18
3.40263e-11
-4.97646e-11
1.08179e-17
2.8929e-11
-4.59905e-11
1.31159e-17
2.41951e-11
-4.2217e-11
1.4745e-17
1.98264e-11
-3.83794e-11
1.66786e-17
1.5832e-11
-3.43878e-11
1.88343e-17
1.22239e-11
-3.01863e-11
2.16202e-17
9.01909e-12
-2.57135e-11
2.3825e-17
6.24101e-12
-2.09011e-11
2.55249e-17
3.9208e-12
-1.56827e-11
2.66529e-17
2.09975e-12
-1.00252e-11
2.64209e-17
8.28497e-13
-4.07828e-12
2.53983e-17
1.43838e-13
1.2501e-12
2.29982e-17
3.24653e-12
1.93113e-17
2.52402e-10
-2.73774e-10
-1.00686e-16
2.4471e-10
-2.58347e-10
5.26271e-17
2.35588e-10
-2.42497e-10
-7.95826e-17
2.25352e-10
-2.26563e-10
3.46934e-17
2.14304e-10
-2.10812e-10
-6.65003e-17
2.02715e-10
-1.95515e-10
1.47992e-17
1.90824e-10
-1.80815e-10
-5.83513e-17
1.78835e-10
-1.66866e-10
5.58565e-18
1.6692e-10
-1.53754e-10
-4.05703e-17
1.55213e-10
-1.41527e-10
-4.98153e-18
1.4382e-10
-1.30208e-10
-3.10645e-17
1.32817e-10
-1.19792e-10
-9.13918e-18
1.22257e-10
-1.10261e-10
-2.27491e-17
1.12174e-10
-1.01571e-10
-9.25623e-18
1.02586e-10
-9.36771e-11
-1.48717e-17
9.34955e-11
-8.65205e-11
-6.31778e-18
8.49016e-11
-8.00235e-11
-7.61304e-18
7.67872e-11
-7.41655e-11
-2.03847e-18
6.91403e-11
-6.883e-11
-1.34889e-18
6.1939e-11
-6.39898e-11
2.28966e-18
5.51658e-11
-5.95486e-11
3.49143e-18
4.88027e-11
-5.54411e-11
5.82267e-18
4.2829e-11
-5.16337e-11
6.90027e-18
3.72336e-11
-4.80101e-11
8.2273e-18
3.20037e-11
-4.45345e-11
1.14798e-17
2.71333e-11
-4.11199e-11
1.39104e-17
2.262e-11
-3.77033e-11
1.54854e-17
1.84647e-11
-3.42239e-11
1.74737e-17
1.46758e-11
-3.05985e-11
1.96059e-17
1.12647e-11
-2.6775e-11
2.23698e-17
8.2479e-12
-2.26964e-11
2.45641e-17
5.64775e-12
-1.83007e-11
2.62598e-17
3.49384e-12
-1.35285e-11
2.73796e-17
1.82444e-12
-8.35546e-12
2.71597e-17
6.84322e-13
-2.93783e-12
2.61574e-17
9.8831e-14
1.83594e-12
2.38181e-17
3.34571e-12
2.01934e-17
2.58853e-10
-2.65639e-10
7.11983e-17
2.49119e-10
-2.48613e-10
-1.03004e-16
2.38151e-10
-2.31529e-10
5.48858e-17
2.2629e-10
-2.14703e-10
-8.12168e-17
2.1385e-10
-1.98371e-10
3.10424e-17
2.01099e-10
-1.82764e-10
-6.58165e-17
1.88268e-10
-1.67984e-10
7.30307e-18
1.75545e-10
-1.54144e-10
-4.65961e-17
1.63082e-10
-1.41291e-10
1.13507e-18
1.50991e-10
-1.29436e-10
-3.64858e-17
1.39355e-10
-1.18571e-10
-6.23484e-18
1.28229e-10
-1.08666e-10
-2.67975e-17
1.17644e-10
-9.96762e-11
-8.73773e-18
1.07615e-10
-9.15428e-11
-1.8354e-17
9.81438e-11
-8.42057e-11
-7.29224e-18
8.92191e-11
-7.7596e-11
-1.05361e-17
8.08266e-11
-7.16303e-11
-3.61401e-18
7.29395e-11
-6.62786e-11
-3.68059e-18
6.5537e-11
-6.14271e-11
8.0573e-19
5.85907e-11
-5.70434e-11
1.92811e-18
5.20775e-11
-5.30351e-11
4.78309e-18
4.59752e-11
-4.93384e-11
6.07455e-18
4.026e-11
-4.59185e-11
7.83427e-18
3.49183e-11
-4.2668e-11
8.80515e-18
2.99356e-11
-3.95516e-11
1.22799e-17
2.53044e-11
-3.64885e-11
1.45473e-17
2.10216e-11
-3.34201e-11
1.62182e-17
1.70875e-11
-3.02896e-11
1.81535e-17
1.35099e-11
-2.70207e-11
2.02952e-17
1.03002e-11
-2.3565e-11
2.29992e-17
7.47425e-12
-1.98701e-11
2.51775e-17
5.05377e-12
-1.58799e-11
2.68555e-17
3.06694e-12
-1.15414e-11
2.7965e-17
1.54934e-12
-6.83753e-12
2.77631e-17
5.40195e-13
-1.92835e-12
2.67905e-17
5.37506e-14
2.32274e-12
2.4532e-17
3.39982e-12
2.0939e-17
2.63778e-10
-2.55158e-10
-1.33153e-16
2.51925e-10
-2.3676e-10
8.11086e-17
2.39097e-10
-2.187e-10
-9.85935e-17
2.25647e-10
-2.01253e-10
5.14585e-17
2.11888e-10
-1.84611e-10
-7.7167e-17
1.98077e-10
-1.68952e-10
2.41829e-17
1.84426e-10
-1.54332e-10
-6.4442e-17
1.71097e-10
-1.40816e-10
1.09624e-17
1.58216e-10
-1.2841e-10
-4.30749e-17
1.45869e-10
-1.17088e-10
-1.76988e-18
1.3411e-10
-1.06813e-10
-3.17464e-17
1.22971e-10
-9.75265e-11
-7.01215e-18
1.12462e-10
-8.9167e-11
-2.24332e-17
1.02578e-10
-8.16587e-11
-7.63214e-18
9.33027e-11
-7.49304e-11
-1.40591e-17
8.4612e-11
-6.89056e-11
-4.95369e-18
7.648e-11
-6.34976e-11
-6.60087e-18
6.88704e-11
-5.86692e-11
-8.07041e-19
6.17549e-11
-5.43112e-11
-2.45023e-19
5.50993e-11
-5.03879e-11
3.49435e-18
4.8876e-11
-4.68116e-11
4.68143e-18
4.30595e-11
-4.35214e-11
7.08528e-18
3.76234e-11
-4.04824e-11
8.19975e-18
3.25523e-11
-3.75965e-11
9.60839e-18
2.78304e-11
-3.48295e-11
1.284e-17
2.34496e-11
-3.21075e-11
1.52543e-17
1.9406e-11
-2.93762e-11
1.68795e-17
1.57e-11
-2.65833e-11
1.88757e-17
1.2339e-11
-2.36594e-11
2.09912e-17
9.33414e-12
-2.05599e-11
2.36589e-17
6.70124e-12
-1.72369e-11
2.58135e-17
4.46148e-12
-1.36399e-11
2.74705e-17
2.6419e-12
-9.72149e-12
2.85619e-17
1.27562e-12
-5.47092e-12
2.83687e-17
3.96746e-13
-1.04913e-12
2.74162e-17
8.78915e-15
2.71107e-12
2.52313e-17
3.40898e-12
2.17183e-17
2.66816e-10
-2.42224e-10
1.04954e-16
2.5282e-10
-2.22764e-10
-1.30656e-16
2.38172e-10
-2.04051e-10
7.67435e-17
2.23223e-10
-1.86305e-10
-9.57339e-17
2.0827e-10
-1.69658e-10
4.39166e-17
1.93545e-10
-1.54226e-10
-7.3306e-17
1.79229e-10
-1.40016e-10
1.4028e-17
1.65452e-10
-1.27041e-10
-5.01507e-17
1.52306e-10
-1.15264e-10
5.053e-18
1.39846e-10
-1.04628e-10
-3.78164e-17
1.28097e-10
-9.50639e-11
-3.93129e-18
1.17065e-10
-8.64941e-11
-2.69685e-17
1.06737e-10
-7.88387e-11
-7.21967e-18
9.70887e-11
-7.20108e-11
-1.79197e-17
8.8089e-11
-6.59305e-11
-6.13113e-18
7.97002e-11
-6.0517e-11
-9.82564e-18
7.18858e-11
-5.56826e-11
-2.61024e-18
6.46019e-11
-5.13856e-11
-2.83414e-18
5.78137e-11
-4.75226e-11
1.78695e-18
5.14824e-11
-4.40566e-11
2.89487e-18
4.55768e-11
-4.09058e-11
5.84157e-18
4.00688e-11
-3.80129e-11
7.185e-18
3.49306e-11
-3.53442e-11
9.02937e-18
3.01453e-11
-3.28109e-11
1.00867e-17
2.56967e-11
-3.03807e-11
1.35506e-17
2.15762e-11
-2.79867e-11
1.58063e-17
1.77797e-11
-2.55794e-11
1.75331e-17
1.43076e-11
-2.31109e-11
1.94782e-17
1.11674e-11
-2.05189e-11
2.1597e-17
8.37033e-12
-1.77625e-11
2.41909e-17
5.93204e-12
-1.47984e-11
2.63141e-17
3.87345e-12
-1.15809e-11
2.79398e-17
2.22063e-12
-8.06835e-12
2.90091e-17
1.0046e-12
-4.25455e-12
2.883e-17
2.54684e-13
-2.98854e-13
2.79096e-17
-3.5833e-14
3.00197e-12
2.58152e-17
3.37353e-12
2.23638e-17
2.67553e-10
-2.26823e-10
-1.66348e-16
2.51475e-10
-2.06686e-10
1.11167e-16
2.35125e-10
-1.87701e-10
-1.16212e-16
2.18834e-10
-1.70015e-10
6.91718e-17
2.02869e-10
-1.53691e-10
-8.60536e-17
1.87421e-10
-1.38778e-10
3.3841e-17
1.72633e-10
-1.25227e-10
-6.90684e-17
1.58594e-10
-1.13002e-10
1.59198e-17
1.45357e-10
-1.02027e-10
-4.49599e-17
1.32941e-10
-9.2212e-11
9.20573e-19
1.21343e-10
-8.34659e-11
-3.22767e-17
1.10542e-10
-7.56921e-11
-5.47784e-18
1.00502e-10
-6.87986e-11
-2.23044e-17
9.11811e-11
-6.26907e-11