/*--------------------------------*- C++ -*----------------------------------*\
| =========                 |                                                 |
| \\      /  F ield         | OpenFOAM: The Open Source CFD Toolbox           |
|  \\    /   O peration     | Version:  v2012                                 |
|   \\  /    A nd           | Website:  www.openfoam.com                      |
|    \\/     M anipulation  |                                                 |
\*---------------------------------------------------------------------------*/
FoamFile
{
    version     2.0;
    format      ascii;
    class       volVectorField;
    location    "0.2";
    object      U;
}
// * * * * * * * * * * * * * * * * * * * * * * * * * * * * * * * * * * * * * //

dimensions      [0 1 -1 0 0 0 0];


internalField   nonuniform List<vector> 
2664
(
(0.00509051 -0.00938035 -4.44298e-05)
(0.00506976 -0.00885681 -4.4249e-05)
(0.00501701 -0.00832575 -4.3789e-05)
(0.00493368 -0.00779264 -4.30621e-05)
(0.00482175 -0.00726268 -4.20855e-05)
(0.00468362 -0.0067407 -4.08803e-05)
(0.0045221 -0.00623108 -3.94709e-05)
(0.00434024 -0.00573769 -3.7884e-05)
(0.00414133 -0.00526379 -3.61481e-05)
(0.00392872 -0.00481203 -3.42927e-05)
(0.00370575 -0.00438445 -3.23469e-05)
(0.0034757 -0.00398245 -3.03392e-05)
(0.00324167 -0.00360688 -2.82966e-05)
(0.00300651 -0.00325803 -2.62442e-05)
(0.00277283 -0.00293572 -2.42047e-05)
(0.00254292 -0.00263935 -2.21981e-05)
(0.00231879 -0.00236804 -2.02418e-05)
(0.00210207 -0.00212055 -1.83502e-05)
(0.0018941 -0.00189549 -1.65349e-05)
(0.00169593 -0.0016913 -1.48051e-05)
(0.00150831 -0.00150637 -1.31675e-05)
(0.00133181 -0.00133906 -1.16269e-05)
(0.00116671 -0.00118769 -1.01857e-05)
(0.00101315 -0.00105064 -8.84525e-06)
(0.000871127 -0.000926369 -7.60551e-06)
(0.000740516 -0.000813422 -6.46535e-06)
(0.000621117 -0.000710448 -5.42304e-06)
(0.00051265 -0.000616198 -4.47616e-06)
(0.000414825 -0.000529563 -3.62217e-06)
(0.000327356 -0.00044955 -2.85856e-06)
(0.000249976 -0.000375224 -2.183e-06)
(0.000182471 -0.000305645 -1.59365e-06)
(0.000124805 -0.000239767 -1.09016e-06)
(7.70429e-05 -0.000176464 -6.73128e-07)
(3.97771e-05 -0.000115097 -3.47689e-07)
(1.35472e-05 -5.73862e-05 -1.18656e-07)
(3.30503e-07 -1.06695e-05 -4.89827e-09)
(0.00540671 -0.00964921 -4.71898e-05)
(0.00536824 -0.00907997 -4.68544e-05)
(0.00529574 -0.00850611 -4.6222e-05)
(0.00519118 -0.00793348 -4.53098e-05)
(0.00505698 -0.00736759 -4.41389e-05)
(0.00489606 -0.00681347 -4.27348e-05)
(0.00471168 -0.00627558 -4.11259e-05)
(0.00450735 -0.00575779 -3.93428e-05)
(0.00428671 -0.00526324 -3.74173e-05)
(0.00405345 -0.00479441 -3.53816e-05)
(0.00381117 -0.00435309 -3.32672e-05)
(0.00356334 -0.00394041 -3.11043e-05)
(0.00331318 -0.00355688 -2.8921e-05)
(0.00306361 -0.00320246 -2.67428e-05)
(0.00281726 -0.00287664 -2.45927e-05)
(0.00257638 -0.00257851 -2.24902e-05)
(0.0023429 -0.00230686 -2.04523e-05)
(0.00211835 -0.00206019 -1.84924e-05)
(0.00190395 -0.00183684 -1.6621e-05)
(0.00170061 -0.00163505 -1.48461e-05)
(0.00150895 -0.00145301 -1.31732e-05)
(0.0013294 -0.00128892 -1.16059e-05)
(0.00116209 -0.00114097 -1.01454e-05)
(0.00100705 -0.00100744 -8.79202e-06)
(0.000864143 -0.000886714 -7.54456e-06)
(0.000733146 -0.000777274 -6.40102e-06)
(0.000613762 -0.000677729 -5.35885e-06)
(0.000505628 -0.000586803 -4.41486e-06)
(0.000408382 -0.000503374 -3.56592e-06)
(0.000321671 -0.000426448 -2.80892e-06)
(0.000245172 -0.0003551 -2.14105e-06)
(0.000178617 -0.000288417 -1.56e-06)
(0.000121918 -0.000225396 -1.06495e-06)
(7.50878e-05 -0.000164984 -6.56049e-07)
(3.8658e-05 -0.000106631 -3.37908e-07)
(1.31069e-05 -5.21425e-05 -1.148e-07)
(3.01902e-07 -8.87996e-06 -4.57527e-09)
(0.00574173 -0.00991978 -5.01141e-05)
(0.00568245 -0.00930151 -4.95971e-05)
(0.00558722 -0.00868211 -4.87664e-05)
(0.00545852 -0.00806783 -4.76434e-05)
(0.00529936 -0.00746445 -4.62547e-05)
(0.00511318 -0.00687715 -4.46301e-05)
(0.00490375 -0.00631043 -4.28027e-05)
(0.00467505 -0.00576805 -4.08069e-05)
(0.00443111 -0.00525301 -3.86779e-05)
(0.00417593 -0.00476752 -3.6451e-05)
(0.00391337 -0.00431307 -3.41595e-05)
(0.00364706 -0.00389043 -3.18352e-05)
(0.00338031 -0.00349975 -2.95071e-05)
(0.00311609 -0.00314062 -2.72011e-05)
(0.00285699 -0.00281214 -2.49396e-05)
(0.00260521 -0.00251305 -2.2742e-05)
(0.00236256 -0.00224183 -2.0624e-05)
(0.00213044 -0.00199666 -1.8598e-05)
(0.00190993 -0.00177565 -1.66733e-05)
(0.00170178 -0.0015768 -1.48563e-05)
(0.00150644 -0.00139811 -1.31513e-05)
(0.0013242 -0.00123763 -1.15605e-05)
(0.00115504 -0.00109343 -1.00839e-05)
(0.00099884 -0.000963695 -8.72039e-06)
(0.000855364 -0.000846736 -7.46794e-06)
(0.000724265 -0.000740978 -6.3235e-06)
(0.000605152 -0.000644998 -5.28369e-06)
(0.000497579 -0.0005575 -4.3446e-06)
(0.000401112 -0.000477353 -3.50245e-06)
(0.000315335 -0.000403567 -2.7536e-06)
(0.000239868 -0.00033523 -2.09474e-06)
(0.000174394 -0.000271458 -1.52311e-06)
(0.000118771 -0.000211294 -1.03747e-06)
(7.29657e-05 -0.000153753 -6.37511e-07)
(3.74467e-05 -9.83752e-05 -3.27322e-07)
(1.26311e-05 -4.70512e-05 -1.10633e-07)
(2.71035e-07 -7.15449e-06 -4.22625e-09)
(0.0060961 -0.0101903 -5.32073e-05)
(0.00601257 -0.00951951 -5.24787e-05)
(0.00589124 -0.00885182 -5.14201e-05)
(0.00573522 -0.00819382 -5.00588e-05)
(0.00554815 -0.00755151 -4.84265e-05)
(0.00533409 -0.00693015 -4.65585e-05)
(0.00509732 -0.0063342 -4.44925e-05)
(0.00484231 -0.00576727 -4.22671e-05)
(0.00457349 -0.00523209 -3.9921e-05)
(0.00429516 -0.00473055 -3.74919e-05)
(0.0040114 -0.00426376 -3.50154e-05)
(0.00372598 -0.00383207 -3.25243e-05)
(0.00344228 -0.0034352 -3.00483e-05)
(0.00316326 -0.00307231 -2.7613e-05)
(0.00289145 -0.00274211 -2.52405e-05)
(0.00262892 -0.00244296 -2.29491e-05)
(0.00237737 -0.00217297 -2.07535e-05)
(0.00213803 -0.00193004 -1.86643e-05)
(0.00191179 -0.001712 -1.66896e-05)
(0.00169923 -0.00151665 -1.48342e-05)
(0.00150063 -0.00134178 -1.31006e-05)
(0.0013161 -0.00118531 -1.14898e-05)
(0.00114547 -0.00104519 -1.00004e-05)
(0.000988482 -0.000919511 -8.62999e-06)
(0.000844762 -0.000806526 -7.37541e-06)
(0.000713859 -0.000704615 -6.23267e-06)
(0.000595283 -0.000612325 -5.19753e-06)
(0.000488505 -0.00052835 -4.26539e-06)
(0.000393021 -0.000451554 -3.43182e-06)
(0.000308355 -0.000380953 -2.69266e-06)
(0.000234072 -0.000315654 -2.04414e-06)
(0.000169807 -0.000254801 -1.48306e-06)
(0.000115371 -0.000197485 -1.00777e-06)
(7.06804e-05 -0.000142793 -6.17547e-07)
(3.61453e-05 -9.03485e-05 -3.15949e-07)
(1.21206e-05 -4.2124e-05 -1.06163e-07)
(2.37867e-07 -5.49761e-06 -3.85139e-09)
(0.00647024 -0.0104585 -5.64732e-05)
(0.00635855 -0.00973173 -5.54988e-05)
(0.00620738 -0.00901303 -5.41798e-05)
(0.00602056 -0.00830934 -5.25496e-05)
(0.00580243 -0.00762682 -5.06462e-05)
(0.00555768 -0.00697073 -4.85105e-05)
(0.0052912 -0.0063454 -4.61851e-05)
(0.00500792 -0.00575418 -4.37129e-05)
(0.00471265 -0.00519946 -4.11359e-05)
(0.00440999 -0.00468271 -3.84944e-05)
(0.0041042 -0.00420456 -3.58257e-05)
(0.00379916 -0.0037649 -3.31633e-05)
(0.00349826 -0.00336294 -3.05371e-05)
(0.00320441 -0.00299739 -2.79723e-05)
(0.00292002 -0.0026665 -2.54901e-05)
(0.00264703 -0.00236823 -2.31073e-05)
(0.00238694 -0.00210034 -2.08371e-05)
(0.0021408 -0.00186042 -1.86886e-05)
(0.00190929 -0.00164602 -1.66678e-05)
(0.00169279 -0.00145472 -1.4778e-05)
(0.0014914 -0.00128415 -1.302e-05)
(0.00130502 -0.00113208 -1.13931e-05)
(0.00113334 -0.000996356 -9.89449e-06)
(0.000975938 -0.000874991 -8.52051e-06)
(0.000832323 -0.00076618 -7.26683e-06)
(0.000701924 -0.000668269 -6.12849e-06)
(0.000584159 -0.000579787 -5.10043e-06)
(0.000478415 -0.000499418 -4.1773e-06)
(0.000384121 -0.000426032 -3.35412e-06)
(0.000300743 -0.000358653 -2.6262e-06)
(0.000227795 -0.00029641 -1.98933e-06)
(0.000164867 -0.000238479 -1.43992e-06)
(0.000111724 -0.000183999 -9.75919e-07)
(6.82368e-05 -0.000132125 -5.962e-07)
(3.47566e-05 -8.25675e-05 -3.03812e-07)
(1.15763e-05 -3.73727e-05 -1.01396e-07)
(2.02395e-07 -3.91442e-06 -3.45103e-09)
(0.00686433 -0.0107219 -5.99131e-05)
(0.00672009 -0.00993557 -5.86546e-05)
(0.00653494 -0.00916322 -5.70391e-05)
(0.00631352 -0.00841203 -5.51071e-05)
(0.00606096 -0.00768825 -5.29031e-05)
(0.00578262 -0.00699703 -5.04741e-05)
(0.00548398 -0.00634244 -4.78681e-05)
(0.00517045 -0.00572749 -4.51318e-05)
(0.00484723 -0.00515409 -4.23108e-05)
(0.00451915 -0.0046232 -3.94475e-05)
(0.00419063 -0.00413491 -3.65803e-05)
(0.00386558 -0.00368854 -3.37433e-05)
(0.00354737 -0.00328276 -3.09659e-05)
(0.00323878 -0.00291574 -2.82725e-05)
(0.00294209 -0.00258529 -2.56829e-05)
(0.00265902 -0.00228893 -2.32121e-05)
(0.00239087 -0.00202405 -2.08715e-05)
(0.00213844 -0.00178792 -1.86681e-05)
(0.0019022 -0.00157784 -1.6606e-05)
(0.0016823 -0.00139117 -1.46865e-05)
(0.00147862 -0.00122537 -1.29085e-05)
(0.00129088 -0.00107809 -1.12697e-05)
(0.00111859 -0.000947063 -9.7658e-06)
(0.000961189 -0.000830252 -8.39177e-06)
(0.000818041 -0.000725801 -7.14216e-06)
(0.000688468 -0.000632031 -6.01102e-06)
(0.000571792 -0.000547459 -4.99247e-06)
(0.000467325 -0.00047077 -4.08049e-06)
(0.00037443 -0.00040084 -3.2695e-06)
(0.000292515 -0.000336712 -2.55437e-06)
(0.000221052 -0.000277536 -1.93045e-06)
(0.000159586 -0.000222523 -1.3938e-06)
(0.000107839 -0.00017086 -9.4199e-07)
(6.56408e-05 -0.000121771 -5.73521e-07)
(3.3284e-05 -7.50486e-05 -2.90941e-07)
(1.09996e-05 -3.28084e-05 -9.63455e-08)
(1.64706e-07 -2.40933e-06 -3.0258e-09)
(0.00727827 -0.0109774 -6.35264e-05)
(0.00709656 -0.010128 -6.1941e-05)
(0.00687288 -0.00929952 -5.99892e-05)
(0.00661279 -0.00849929 -5.77195e-05)
(0.00632221 -0.00773349 -5.51838e-05)
(0.00600725 -0.00700706 -5.24352e-05)
(0.00567398 -0.00632368 -4.95269e-05)
(0.0053283 -0.00568588 -4.65099e-05)
(0.0049757 -0.00509497 -4.34325e-05)
(0.00462125 -0.0045513 -4.0339e-05)
(0.00426944 -0.0040543 -3.72684e-05)
(0.00392416 -0.00360267 -3.42549e-05)
(0.00358868 -0.00319448 -3.13267e-05)
(0.00326562 -0.00282733 -2.8507e-05)
(0.00295704 -0.00249853 -2.58135e-05)
(0.00266441 -0.00220516 -2.32593e-05)
(0.00238878 -0.00194423 -2.08533e-05)
(0.00213068 -0.00171271 -1.86004e-05)
(0.00189032 -0.00150764 -1.65024e-05)
(0.00166761 -0.00132616 -1.45583e-05)
(0.0014622 -0.0011656 -1.27653e-05)
(0.00127363 -0.00102348 -1.11192e-05)
(0.00110121 -0.000897446 -9.61406e-06)
(0.000944227 -0.000785415 -8.24371e-06)
(0.000801922 -0.000685495 -7.00146e-06)
(0.000673505 -0.000595992 -5.8804e-06)
(0.000558204 -0.00051542 -4.87385e-06)
(0.000455259 -0.000442471 -3.97514e-06)
(0.000363968 -0.000376037 -3.17817e-06)
(0.000283693 -0.000315177 -2.47734e-06)
(0.000213859 -0.000259071 -1.86765e-06)
(0.000153977 -0.000206965 -1.34482e-06)
(0.000103728 -0.000158094 -9.06078e-07)
(6.28997e-05 -0.000111751 -5.49575e-07)
(3.17314e-05 -6.78074e-05 -2.77372e-07)
(1.03919e-05 -2.84419e-05 -9.10239e-08)
(1.24898e-07 -9.86962e-07 -2.57704e-09)
(0.00771156 -0.0112214 -6.73086e-05)
(0.00748694 -0.0103056 -6.53486e-05)
(0.00721978 -0.00941875 -6.30174e-05)
(0.00691661 -0.00856823 -6.03718e-05)
(0.00658429 -0.00776005 -5.74717e-05)
(0.00622962 -0.00699872 -5.43765e-05)
(0.0058593 -0.00628743 -5.11447e-05)
(0.00547961 -0.00562801 -4.7831e-05)
(0.00509637 -0.00502111 -4.44862e-05)
(0.00471476 -0.00446629 -4.11555e-05)
(0.00433929 -0.00396228 -3.78784e-05)
(0.00397376 -0.00350705 -3.4688e-05)
(0.00362124 -0.00309801 -3.16111e-05)
(0.00328415 -0.00273217 -2.86688e-05)
(0.00296424 -0.00240631 -2.58765e-05)
(0.00266272 -0.00211707 -2.32446e-05)
(0.0023803 -0.00186109 -2.07795e-05)
(0.00211724 -0.001635 -1.84832e-05)
(0.00187346 -0.00143562 -1.63552e-05)
(0.00164859 -0.00125991 -1.43923e-05)
(0.00144208 -0.00110503 -1.25896e-05)
(0.00125322 -0.000968414 -1.09411e-05)
(0.00108117 -0.000847653 -9.43919e-06)
(0.000925059 -0.000740609 -8.07639e-06)
(0.000783987 -0.000645373 -6.84489e-06)
(0.000657061 -0.000560247 -5.73685e-06)
(0.000543424 -0.00048375 -4.74482e-06)
(0.000442244 -0.000414589 -3.86152e-06)
(0.000352765 -0.000351675 -3.08035e-06)
(0.000274301 -0.000294094 -2.39533e-06)
(0.00020624 -0.000241053 -1.80111e-06)
(0.000148058 -0.000191835 -1.29313e-06)
(9.94013e-05 -0.000145726 -8.68293e-07)
(6.00219e-05 -0.000102085 -5.24433e-07)
(3.01034e-05 -6.08589e-05 -2.63144e-07)
(9.75503e-06 -2.42832e-05 -8.54466e-08)
(8.3084e-08 3.48521e-07 -2.10584e-09)
(0.00816324 -0.0114498 -7.12514e-05)
(0.00788971 -0.0104644 -6.88646e-05)
(0.00757369 -0.00951733 -6.61069e-05)
(0.00722284 -0.00861575 -6.30452e-05)
(0.00684489 -0.00776527 -5.97468e-05)
(0.00644744 -0.00696987 -5.62782e-05)
(0.00603768 -0.00623197 -5.27022e-05)
(0.00562234 -0.00555262 -4.90772e-05)
(0.00520737 -0.00493158 -4.54553e-05)
(0.00479804 -0.00436758 -4.18827e-05)
(0.00439877 -0.0038585 -3.83978e-05)
(0.00401317 -0.00340152 -3.50323e-05)
(0.00364408 -0.00299334 -3.18107e-05)
(0.00329358 -0.00263037 -2.87513e-05)
(0.0029631 -0.00230882 -2.58666e-05)
(0.00265348 -0.00202489 -2.31641e-05)
(0.00236511 -0.00177484 -2.06469e-05)
(0.00209789 -0.00155503 -1.83144e-05)
(0.00185146 -0.00136202 -1.61632e-05)
(0.00162516 -0.00119261 -1.41878e-05)
(0.00141819 -0.00104385 -1.23812e-05)
(0.00122965 -0.000913079 -1.07353e-05)
(0.0010585 -0.00079784 -9.24126e-06)
(0.00090371 -0.000695969 -7.89003e-06)
(0.000764268 -0.000605552 -6.67275e-06)
(0.000639174 -0.000524893 -5.5807e-06)
(0.00052749 -0.00045253 -4.60571e-06)
(0.000428319 -0.00038719 -3.73994e-06)
(0.000340853 -0.000327811 -2.97635e-06)
(0.000264368 -0.000273506 -2.3086e-06)
(0.000198217 -0.000223516 -1.73106e-06)
(0.000141848 -0.000177162 -1.2389e-06)
(9.48748e-05 -0.000133779 -8.28758e-07)
(5.70165e-05 -9.27904e-05 -4.98178e-07)
(2.84054e-05 -5.42171e-05 -2.48303e-07)
(9.09093e-06 -2.0342e-05 -7.96308e-08)
(3.93632e-08 1.59315e-06 -1.61347e-09)
(0.00863175 -0.0116578 -7.53411e-05)
(0.0083027 -0.0106001 -7.24698e-05)
(0.00793213 -0.00959136 -6.9236e-05)
(0.00752875 -0.00863847 -6.57157e-05)
(0.00710128 -0.0077464 -6.19852e-05)
(0.006658 -0.00691827 -5.81165e-05)
(0.00620664 -0.0061556 -5.41773e-05)
(0.00575415 -0.00545845 -5.02281e-05)
(0.00530666 -0.00482555 -4.63223e-05)
(0.00486932 -0.00425466 -4.25052e-05)
(0.00444639 -0.0037427 -3.88137e-05)
(0.00404119 -0.00328602 -3.52771e-05)
(0.00365622 -0.00288058 -3.19168e-05)
(0.00329315 -0.00252211 -2.87477e-05)
(0.00295302 -0.00220631 -2.57788e-05)
(0.00263627 -0.0019289 -2.30139e-05)
(0.00234288 -0.0016858 -2.0453e-05)
(0.00207243 -0.00147308 -1.80921e-05)
(0.00182419 -0.0012871 -1.59252e-05)
(0.00159725 -0.00112452 -1.39442e-05)
(0.00139053 -0.000982284 -1.21397e-05)
(0.00120292 -0.000857662 -1.0502e-05)
(0.00103321 -0.000748171 -9.02051e-06)
(0.00088022 -0.000651636 -7.68497e-06)
(0.000742812 -0.000566147 -6.48545e-06)
(0.000619893 -0.000490029 -5.41238e-06)
(0.00051045 -0.00042184 -4.45694e-06)
(0.000413526 -0.00036034 -3.61079e-06)
(0.000328272 -0.000304497 -2.86651e-06)
(0.000253928 -0.000253457 -2.21744e-06)
(0.000189819 -0.000206495 -1.65773e-06)
(0.000135368 -0.000162973 -1.18231e-06)
(9.01637e-05 -0.000122274 -7.8761e-07)
(5.38941e-05 -8.38851e-05 -4.709e-07)
(2.6643e-05 -4.78949e-05 -2.329e-07)
(8.40177e-06 -1.6627e-05 -7.35955e-08)
(-6.14907e-09 2.74323e-06 -1.10125e-09)
(0.00911476 -0.0118398 -7.95575e-05)
(0.00872313 -0.0107076 -7.614e-05)
(0.00829191 -0.00963657 -7.23768e-05)
(0.00783108 -0.00863286 -6.83551e-05)
(0.00735019 -0.00770054 -6.41583e-05)
(0.00685824 -0.00684171 -5.98648e-05)
(0.0063633 -0.00605671 -5.55452e-05)
(0.00587254 -0.00534439 -5.12619e-05)
(0.00539202 -0.00470233 -4.70678e-05)
(0.00492673 -0.00412715 -4.30066e-05)
(0.0044806 -0.00361478 -3.91127e-05)
(0.00405658 -0.00316064 -3.54116e-05)
(0.00365667 -0.00275992 -3.19209e-05)
(0.00328212 -0.00240769 -2.86515e-05)
(0.00293346 -0.0020991 -2.56082e-05)
(0.00261069 -0.00182943 -2.27907e-05)
(0.00231338 -0.00159428 -2.01955e-05)
(0.00204069 -0.00138946 -1.78151e-05)
(0.00179158 -0.00121116 -1.56406e-05)
(0.00156482 -0.0010559 -1.36611e-05)
(0.00135909 -0.00092056 -1.18653e-05)
(0.00117307 -0.000802363 -1.02414e-05)
(0.00100536 -0.000698817 -8.77738e-06)
(0.000854646 -0.000607753 -7.46172e-06)
(0.000719679 -0.00052728 -6.2835e-06)
(0.000599277 -0.000455752 -5.23239e-06)
(0.000492358 -0.000391761 -4.29899e-06)
(0.000397917 -0.000334105 -3.47452e-06)
(0.000315067 -0.000281786 -2.75121e-06)
(0.000243018 -0.000233988 -2.12218e-06)
(0.000181076 -0.000190024 -1.58138e-06)
(0.000128643 -0.000149294 -1.12358e-06)
(8.52851e-05 -0.000111232 -7.44999e-07)
(5.06658e-05 -7.53843e-05 -4.42697e-07)
(2.48224e-05 -4.1904e-05 -2.16988e-07)
(7.68987e-06 -1.31462e-05 -6.7361e-08)
(-5.33343e-08 3.79542e-06 -5.70601e-10)
(0.00960902 -0.0119897 -8.38723e-05)
(0.00914719 -0.0107816 -7.9842e-05)
(0.00864912 -0.0096484 -7.54953e-05)
(0.00812583 -0.00859517 -7.09285e-05)
(0.00758785 -0.00762481 -6.62332e-05)
(0.00704461 -0.00673803 -6.1492e-05)
(0.00650453 -0.00593377 -5.67784e-05)
(0.00597474 -0.00520947 -5.21543e-05)
(0.00546113 -0.00456137 -4.76713e-05)
(0.00496834 -0.00398486 -4.33701e-05)
(0.00449985 -0.00347478 -3.9281e-05)
(0.00405808 -0.00302561 -3.54249e-05)
(0.00364451 -0.00263171 -3.18149e-05)
(0.00325978 -0.0022875 -2.84567e-05)
(0.00290393 -0.0019876 -2.53505e-05)
(0.00257642 -0.00172691 -2.24917e-05)
(0.00227638 -0.00150069 -1.98726e-05)
(0.00200256 -0.00130455 -1.74824e-05)
(0.00175357 -0.00113452 -1.53089e-05)
(0.00152788 -0.00098704 -1.33387e-05)
(0.00132392 -0.000858926 -1.15583e-05)
(0.00114015 -0.000747393 -9.95406e-06)
(0.000975015 -0.000649955 -8.51249e-06)
(0.000827063 -0.000564466 -7.22092e-06)
(0.000694943 -0.00048907 -6.06755e-06)
(0.000577395 -0.00042216 -5.04136e-06)
(0.000473279 -0.000362373 -4.13243e-06)
(0.000381548 -0.000308547 -3.3316e-06)
(0.000301285 -0.000259729 -2.63088e-06)
(0.000231679 -0.00021514 -2.02318e-06)
(0.00017202 -0.000174133 -1.5023e-06)
(0.000121697 -0.000136149 -1.06292e-06)
(8.02575e-05 -0.000100671 -7.01086e-07)
(4.73438e-05 -6.73021e-05 -4.13674e-07)
(2.29503e-05 -3.62549e-05 -2.00626e-07)
(6.95772e-06 -9.90673e-06 -6.09492e-08)
(-1.02066e-07 4.74667e-06 -2.30365e-11)
(0.0101102 -0.0121006 -8.82478e-05)
(0.0095703 -0.0108163 -8.35358e-05)
(0.00899893 -0.00962201 -7.85493e-05)
(0.00840841 -0.00852162 -7.33956e-05)
(0.00780986 -0.00751634 -6.81716e-05)
(0.00721321 -0.00660521 -6.29642e-05)
(0.00662684 -0.00578546 -5.78465e-05)
(0.00605779 -0.00505293 -5.28797e-05)
(0.00551151 -0.00440235 -4.81115e-05)
(0.00499215 -0.00382781 -4.35783e-05)
(0.00450256 -0.00332295 -3.93049e-05)
(0.00404453 -0.00288129 -3.53068e-05)
(0.00361883 -0.00249639 -3.1591e-05)
(0.00322552 -0.00216204 -2.81578e-05)
(0.00286399 -0.00187234 -2.5002e-05)
(0.00253319 -0.00162182 -2.21144e-05)
(0.00223174 -0.00140548 -1.9483e-05)
(0.001958 -0.00121874 -1.70934e-05)
(0.00171018 -0.00105754 -1.49301e-05)
(0.00148649 -0.000918235 -1.29774e-05)
(0.00128509 -0.000797638 -1.12193e-05)
(0.00110425 -0.000692966 -9.64071e-06)
(0.000942269 -0.000601763 -8.22663e-06)
(0.000797562 -0.000521923 -6.96339e-06)
(0.000668691 -0.000451638 -5.83837e-06)
(0.000554328 -0.000389352 -4.83998e-06)
(0.000453285 -0.000333752 -3.95787e-06)
(0.000364482 -0.000283728 -3.1826e-06)
(0.000286981 -0.000238372 -2.50598e-06)
(0.000219956 -0.000196948 -1.92082e-06)
(0.000162688 -0.00015885 -1.42081e-06)
(0.000114557 -0.00012356 -1.00057e-06)
(7.51002e-05 -9.06072e-05 -6.56041e-07)
(4.39406e-05 -5.96509e-05 -3.83942e-07)
(2.10337e-05 -3.0957e-05 -1.83874e-07)
(6.20791e-06 -6.91486e-06 -5.43827e-08)
(-1.5222e-07 5.59429e-06 5.39937e-10)
(0.0106127 -0.012165 -9.26344e-05)
(0.00998645 -0.0108052 -8.71688e-05)
(0.00933561 -0.00955244 -8.14887e-05)
(0.00867329 -0.00840842 -7.57083e-05)
(0.00801131 -0.00737243 -6.99306e-05)
(0.00735961 -0.00644143 -6.42426e-05)
(0.00672653 -0.00561071 -5.87171e-05)
(0.00611857 -0.00487427 -5.34106e-05)
(0.00554065 -0.00422523 -4.83662e-05)
(0.00499616 -0.00365623 -4.36136e-05)
(0.00448721 -0.00315973 -3.91711e-05)
(0.00401476 -0.00272827 -3.50471e-05)
(0.00357884 -0.0023546 -3.12421e-05)
(0.00317877 -0.00203192 -2.77499e-05)
(0.00281331 -0.00175389 -2.45597e-05)
(0.00248081 -0.00151469 -2.16572e-05)
(0.0021794 -0.00130912 -1.90261e-05)
(0.00190699 -0.00113247 -1.66482e-05)
(0.00166147 -0.000980579 -1.45049e-05)
(0.00144072 -0.000849806 -1.25779e-05)
(0.00124271 -0.000736964 -1.08493e-05)
(0.0010655 -0.000639305 -9.30235e-06)
(0.000907236 -0.000554424 -7.9208e-06)
(0.000766253 -0.000480272 -6.69006e-06)
(0.000641024 -0.000415103 -5.59683e-06)
(0.000530166 -0.000357421 -4.62904e-06)
(0.000432455 -0.000305975 -3.776e-06)
(0.000346787 -0.000259708 -3.0281e-06)
(0.000272211 -0.000217762 -2.37702e-06)
(0.000207895 -0.000179449 -1.8155e-06)
(0.000153117 -0.000144201 -1.33723e-06)
(0.000107253 -0.000111546 -9.36781e-07)
(6.98337e-05 -8.10553e-05 -6.10041e-07)
(4.04695e-05 -5.24413e-05 -3.53618e-07)
(1.90797e-05 -2.60178e-05 -1.66797e-07)
(5.44311e-06 -4.17588e-06 -4.76849e-08)
(-2.03672e-07 6.33597e-06 1.1168e-09)
(0.0111093 -0.0121746 -9.697e-05)
(0.0103887 -0.010742 -9.06803e-05)
(0.0096523 -0.00943463 -8.42537e-05)
(0.00891432 -0.00825193 -7.78128e-05)
(0.00818661 -0.00719059 -7.14614e-05)
(0.00747911 -0.00624521 -6.52863e-05)
(0.00679956 -0.0054088 -5.93551e-05)
(0.00615385 -0.00467336 -5.3719e-05)
(0.00554597 -0.00403025 -4.8413e-05)
(0.00497843 -0.00347066 -4.34591e-05)
(0.00445234 -0.00298581 -3.88669e-05)
(0.00396776 -0.00256728 -3.46371e-05)
(0.00352384 -0.0022071 -3.07621e-05)
(0.00311912 -0.0018979 -2.72293e-05)
(0.00275165 -0.00163294 -2.40215e-05)
(0.00241918 -0.00140616 -2.11193e-05)
(0.00211934 -0.00121217 -1.85019e-05)
(0.00184961 -0.00104619 -1.61473e-05)
(0.00160754 -0.00090404 -1.40341e-05)
(0.00139072 -0.000782083 -1.21415e-05)
(0.00119691 -0.000677176 -1.04496e-05)
(0.00102401 -0.000586632 -8.94022e-06)
(0.000870051 -0.000508118 -7.59617e-06)
(0.000733259 -0.000439658 -6.40202e-06)
(0.000612052 -0.00037958 -5.3439e-06)
(0.000505007 -0.00032646 -4.40938e-06)
(0.000410872 -0.000279112 -3.58757e-06)
(0.000328534 -0.00023654 -2.86874e-06)
(0.000257035 -0.000197942 -2.24452e-06)
(0.000195545 -0.000162673 -1.70766e-06)
(0.000143344 -0.000130211 -1.25189e-06)
(9.98129e-05 -0.000100124 -8.71805e-07)
(6.44787e-05 -7.20275e-05 -5.63269e-07)
(3.6944e-05 -4.56823e-05 -3.22818e-07)
(1.70959e-05 -2.1444e-05 -1.49458e-07)
(4.66604e-06 -1.69415e-06 -4.08799e-08)
(-2.56306e-07 6.96974e-06 1.7061e-09)
(0.0115911 -0.0121208 -0.000101176)
(0.0107681 -0.0106198 -9.39932e-05)
(0.00994111 -0.00926372 -8.67754e-05)
(0.00912431 -0.00804879 -7.96465e-05)
(0.00832972 -0.0069688 -7.27112e-05)
(0.00756654 -0.00601551 -6.605e-05)
(0.00684183 -0.00517945 -5.97246e-05)
(0.00616034 -0.00445045 -5.3776e-05)
(0.005525 -0.00381806 -4.82302e-05)
(0.00493709 -0.00327192 -4.30984e-05)
(0.00439664 -0.00280212 -3.8381e-05)
(0.00390263 -0.0023993 -3.40688e-05)
(0.00345328 -0.00205482 -3.01463e-05)
(0.00304625 -0.00176082 -2.65933e-05)
(0.00267889 -0.00151027 -2.33864e-05)
(0.00234832 -0.00129689 -2.05008e-05)
(0.00205167 -0.00111521 -1.79112e-05)
(0.00178601 -0.000960407 -1.55921e-05)
(0.00154856 -0.000828332 -1.35193e-05)
(0.00133667 -0.000715403 -1.16696e-05)
(0.00114788 -0.00061855 -1.00216e-05)
(0.000979976 -0.000535172 -8.55579e-06)
(0.000830866 -0.000463024 -7.25409e-06)
(0.000698717 -0.000400224 -6.10046e-06)
(0.000581896 -0.000345182 -5.08063e-06)
(0.000478954 -0.000296556 -4.18193e-06)
(0.000388627 -0.000253231 -3.39336e-06)
(0.000309798 -0.000214278 -2.70515e-06)
(0.000241515 -0.000178949 -2.10901e-06)
(0.000182955 -0.000146649 -1.59773e-06)
(0.000133409 -0.000116901 -1.16514e-06)
(9.22669e-05 -8.93095e-05 -8.05905e-07)
(5.90568e-05 -6.35342e-05 -5.15912e-07)
(3.33781e-05 -3.93808e-05 -2.91665e-07)
(1.50897e-05 -1.72403e-05 -1.31924e-07)
(3.8795e-06 5.27e-07 -3.39919e-08)
(-3.1001e-07 7.49404e-06 2.30641e-09)
(0.0120472 -0.0119945 -0.000105158)
(0.0111149 -0.0104321 -9.70214e-05)
(0.0101929 -0.00903513 -8.89741e-05)
(0.00929555 -0.0077962 -8.11419e-05)
(0.00843398 -0.00670556 -7.3622e-05)
(0.00761662 -0.00575187 -6.64877e-05)
(0.00684907 -0.00492293 -5.97882e-05)
(0.00613483 -0.00420632 -5.35537e-05)
(0.0054753 -0.00358967 -4.77967e-05)
(0.00487046 -0.00306121 -4.25171e-05)
(0.00431897 -0.00260987 -3.77032e-05)
(0.00381869 -0.00222548 -3.33362e-05)
(0.00336677 -0.00189882 -2.93913e-05)
(0.00296003 -0.00162166 -2.58407e-05)
(0.00259504 -0.00138671 -2.26546e-05)
(0.00226834 -0.0011876 -1.98027e-05)
(0.00197656 -0.00101884 -1.72556e-05)
(0.0017164 -0.000875621 -1.49845e-05)
(0.00148475 -0.000753873 -1.29623e-05)
(0.00127877 -0.000650107 -1.11642e-05)
(0.00109583 -0.000561361 -9.56712e-06)
(0.000933573 -0.000485142 -8.15069e-06)
(0.000789852 -0.000419317 -6.89603e-06)
(0.000662776 -0.000362106 -5.78668e-06)
(0.000550686 -0.000312016 -4.80814e-06)
(0.000452119 -0.000267792 -3.94764e-06)
(0.000365812 -0.000228397 -3.19416e-06)
(0.000290657 -0.000192969 -2.53803e-06)
(0.000225714 -0.00016082 -1.97104e-06)
(0.000170178 -0.000131405 -1.48616e-06)
(0.000123353 -0.000104287 -1.07733e-06)
(8.46453e-05 -7.91142e-05 -7.39343e-07)
(5.35894e-05 -5.55833e-05 -4.68158e-07)
(2.97858e-05 -3.35421e-05 -2.60281e-07)
(1.30689e-05 -1.34101e-05 -1.14262e-07)
(3.08629e-06 2.48523e-06 -2.70456e-08)
(-3.64677e-07 7.90766e-06 2.91635e-09)
(0.0124644 -0.011787 -0.000108801)
(0.0114171 -0.0101727 -9.96596e-05)
(0.0103976 -0.00874504 -9.07616e-05)
(0.00941935 -0.00749207 -8.22233e-05)
(0.00849255 -0.00640018 -7.41338e-05)
(0.00762379 -0.00545456 -6.65508e-05)
(0.00681716 -0.00464018 -5.95101e-05)
(0.00607422 -0.00394224 -5.3025e-05)
(0.00539477 -0.00334659 -4.70941e-05)
(0.00477708 -0.00284005 -4.17023e-05)
(0.00421847 -0.00241055 -3.6826e-05)
(0.00371545 -0.00204721 -3.24351e-05)
(0.00326415 -0.00174035 -2.84956e-05)
(0.00286047 -0.00148148 -2.49717e-05)
(0.00250026 -0.00126318 -2.18273e-05)
(0.00217948 -0.00107908 -1.9027e-05)
(0.0018943 -0.000923697 -1.65375e-05)
(0.00164105 -0.000792355 -1.43268e-05)
(0.0014164 -0.000681084 -1.23657e-05)
(0.0012173 -0.000586534 -1.06275e-05)
(0.00104098 -0.000505879 -9.08831e-06)
(0.000885014 -0.000436757 -7.72677e-06)
(0.00074719 -0.000377164 -6.52359e-06)
(0.000625593 -0.000325436 -5.46207e-06)
(0.000518553 -0.000280184 -4.52761e-06)
(0.000424612 -0.000240246 -3.70749e-06)
(0.00034252 -0.000204667 -2.9908e-06)
(0.000271187 -0.000172657 -2.36803e-06)
(0.000209695 -0.000143587 -1.83117e-06)
(0.000157262 -0.000116961 -1.37338e-06)
(0.000113216 -9.23863e-05 -9.88798e-07)
(7.69783e-05 -6.9548e-05 -6.72386e-07)
(4.80985e-05 -4.81808e-05 -4.20198e-07)
(2.61813e-05 -2.81694e-05 -2.28791e-07)
(1.10414e-05 -9.95536e-06 -9.65417e-08)
(2.28934e-06 4.17924e-06 -2.00667e-08)
(-4.20196e-07 8.20979e-06 3.53448e-09)
(0.0128278 -0.0114897 -0.000111974)
(0.0116616 -0.00983631 -0.000101796)
(0.0105439 -0.00839047 -9.20399e-05)
(0.00948682 -0.00713536 -8.2813e-05)
(0.00849819 -0.00605291 -7.41837e-05)
(0.00758273 -0.00512474 -6.6193e-05)
(0.00674208 -0.00433284 -5.88552e-05)
(0.00597579 -0.00366015 -5.21662e-05)
(0.00528153 -0.0030908 -4.61059e-05)
(0.00465589 -0.00261036 -4.06445e-05)
(0.00409453 -0.00220592 -3.57443e-05)
(0.00359273 -0.00186604 -3.13639e-05)
(0.00314547 -0.00158076 -2.74597e-05)
(0.0027478 -0.00134144 -2.39882e-05)
(0.00239487 -0.00114066 -2.09073e-05)
(0.0020821 -0.000972103 -1.81769e-05)
(0.00180524 -0.00083044 -1.576e-05)
(0.00156034 -0.000711133 -1.36221e-05)
(0.00134384 -0.000610385 -1.17322e-05)
(0.00115254 -0.000525016 -1.00622e-05)
(0.000983603 -0.000452364 -8.58741e-06)
(0.000834525 -0.000390221 -7.286e-06)
(0.000703075 -0.000336725 -6.13845e-06)
(0.000587332 -0.000290336 -5.12803e-06)
(0.000485637 -0.000249778 -4.24023e-06)
(0.00039655 -0.000213989 -3.46248e-06)
(0.000318846 -0.000182095 -2.7841e-06)
(0.000251466 -0.000153381 -2.19585e-06)
(0.000193522 -0.000127277 -1.68996e-06)
(0.000144261 -0.000103337 -1.25985e-06)
(0.000103036 -8.12104e-05 -8.99907e-07)
(6.92967e-05 -6.06183e-05 -6.053e-07)
(4.26062e-05 -4.13302e-05 -3.72227e-07)
(2.25795e-05 -2.32641e-05 -1.97325e-07)
(9.01539e-06 -6.8764e-06 -7.88352e-08)
(1.49176e-06 5.6088e-06 -1.30824e-08)
(-4.76438e-07 8.40003e-06 4.1592e-09)
(0.0131193 -0.0110955 -0.00011452)
(0.0118334 -0.00941888 -0.000103296)
(0.0106201 -0.00797001 -9.27056e-05)
(0.00948842 -0.00672636 -8.28278e-05)
(0.00844396 -0.00566527 -7.3711e-05)
(0.00748823 -0.00476457 -6.53686e-05)
(0.00662034 -0.00400344 -5.7793e-05)
(0.00583716 -0.00336264 -5.09565e-05)
(0.00513425 -0.00282478 -4.48205e-05)
(0.00450615 -0.00237442 -3.93376e-05)
(0.00394698 -0.00199799 -3.44565e-05)
(0.00345062 -0.00168373 -3.01236e-05)
(0.00301106 -0.00142153 -2.62864e-05)
(0.00262245 -0.00120277 -2.2894e-05)
(0.00227934 -0.00102014 -1.98988e-05)
(0.00197666 -0.0008675 -1.72565e-05)
(0.00170984 -0.000739718 -1.49272e-05)
(0.00147466 -0.000632472 -1.28742e-05)
(0.00126743 -0.000542183 -1.10651e-05)
(0.00108483 -0.000465872 -9.47112e-06)
(0.000923975 -0.000401066 -8.06686e-06)
(0.000782343 -0.000345727 -6.83044e-06)
(0.000657705 -0.000298146 -5.74236e-06)
(0.000548159 -0.00025692 -4.78604e-06)
(0.000452074 -0.000220886 -3.94721e-06)
(0.000368045 -0.000189085 -3.21361e-06)
(0.000294885 -0.00016073 -2.5749e-06)
(0.000231573 -0.000135176 -2.02215e-06)
(0.000177258 -0.000111915 -1.54795e-06)
(0.000131223 -9.05496e-05 -1.14601e-06)
(9.28556e-05 -7.07694e-05 -8.11005e-07)
(6.16315e-05 -5.233e-05 -5.38359e-07)
(3.71355e-05 -3.50331e-05 -3.24444e-07)
(1.89957e-05 -1.88256e-05 -1.66016e-07)
(6.99986e-06 -4.172e-06 -6.12201e-08)
(6.97012e-07 6.77478e-06 -6.12294e-09)
(-5.33232e-07 8.47842e-06 4.78844e-09)
(0.0133201 -0.0105984 -0.000116274)
(0.0119174 -0.00891824 -0.00010403)
(0.0106137 -0.00748391 -9.26508e-05)
(0.00941517 -0.00626703 -8.21891e-05)
(0.0083231 -0.00524011 -7.26567e-05)
(0.00733583 -0.0043774 -6.40387e-05)
(0.00644896 -0.00365537 -5.62973e-05)
(0.00565672 -0.00305295 -4.93816e-05)
(0.00495209 -0.0025515 -4.32306e-05)
(0.00432772 -0.00213484 -3.77802e-05)
(0.00377601 -0.00178902 -3.29641e-05)
(0.00328962 -0.00150217 -2.87181e-05)
(0.00286148 -0.00126422 -2.49807e-05)
(0.00248505 -0.00106673 -2.16946e-05)
(0.00215429 -0.000902645 -1.88072e-05)
(0.00186377 -0.000766077 -1.62711e-05)
(0.00160863 -0.000652169 -1.40437e-05)
(0.0013845 -0.000556876 -1.20872e-05)