/*--------------------------------*- C++ -*----------------------------------*\
| =========                 |                                                 |
| \\      /  F ield         | OpenFOAM: The Open Source CFD Toolbox           |
|  \\    /   O peration     | Version:  v2012                                 |
|   \\  /    A nd           | Website:  www.openfoam.com                      |
|    \\/     M anipulation  |                                                 |
\*---------------------------------------------------------------------------*/
FoamFile
{
    version     2.0;
    format      ascii;
    class       surfaceScalarField;
    location    "0.65";
    object      phi;
}
// * * * * * * * * * * * * * * * * * * * * * * * * * * * * * * * * * * * * * //

dimensions      [0 3 -1 0 0 0 0];
oriented        oriented;


internalField   nonuniform List<scalar> 
8134
(
-3.46301e-08
-7.85025e-09
-2.02379e-15
-2.79121e-08
-6.71795e-09
-2.01437e-15
-2.21258e-08
-5.78632e-09
-2.08167e-15
-1.71322e-08
-4.99361e-09
-2.18588e-15
-1.28263e-08
-4.30594e-09
-2.15818e-15
-9.12665e-09
-3.69963e-09
-1.96241e-15
-5.96529e-09
-3.16136e-09
-1.70666e-15
-3.28354e-09
-2.68175e-09
-1.45003e-15
-1.02839e-09
-2.25515e-09
-9.79589e-16
8.50295e-10
-1.87868e-09
-7.14968e-16
2.3965e-09
-1.5462e-09
-5.50119e-16
3.65171e-09
-1.25521e-09
-5.5868e-16
4.65342e-09
-1.0017e-09
-4.70244e-16
5.43596e-09
-7.82557e-10
-3.00304e-16
6.03007e-09
-5.94117e-10
-2.75243e-16
6.46289e-09
-4.32829e-10
-4.36314e-16
6.75828e-09
-2.95385e-10
-6.03516e-16
6.93702e-09
-1.78729e-10
-5.66525e-16
7.01724e-09
-8.02234e-11
-5.49186e-16
7.01353e-09
3.67253e-12
-4.3971e-16
6.94023e-09
7.33087e-11
-3.65171e-16
6.80773e-09
1.32472e-10
-2.57458e-16
6.62524e-09
1.82538e-10
-1.83659e-16
6.39971e-09
2.25492e-10
-1.23895e-16
6.13674e-09
2.6299e-10
-7.93259e-17
5.83991e-09
2.96817e-10
-5.50274e-17
5.51156e-09
3.28359e-10
-1.29586e-17
5.15275e-09
3.58832e-10
-6.93317e-17
4.7634e-09
3.89319e-10
-9.08145e-17
4.3437e-09
4.19717e-10
-1.56071e-16
3.8941e-09
4.49597e-10
-1.88372e-16
3.41711e-09
4.76977e-10
-2.13559e-16
2.91838e-09
4.98741e-10
-2.66547e-16
2.40771e-09
5.10663e-10
-2.82559e-16
1.90012e-09
5.07586e-10
-3.13797e-16
1.41469e-09
4.85436e-10
-1.83726e-16
9.72269e-10
4.4241e-10
1.6411e-16
5.91874e-10
3.80391e-10
3.76362e-16
2.86977e-10
3.04896e-10
-1.87762e-16
6.38023e-11
2.23174e-10
-6.58078e-16
-6.98387e-11
1.33641e-10
-7.21762e-16
-9.54856e-11
2.56472e-11
-3.73797e-16
-9.54871e-11
2.01877e-16
-4.39952e-08
-1.51765e-08
-4.88477e-15
-3.72389e-08
-1.34741e-08
-4.81158e-15
-3.09841e-08
-1.20411e-08
-4.71989e-15
-2.51793e-08
-1.07984e-08
-4.73235e-15
-1.97875e-08
-9.69772e-09
-4.63534e-15
-1.47865e-08
-8.70066e-09
-4.33459e-15
-1.01631e-08
-7.78472e-09
-4.00279e-15
-5.91206e-09
-6.93282e-09
-3.58258e-15
-2.03159e-09
-6.13562e-09
-2.91958e-15
1.47902e-09
-5.38929e-09
-2.49644e-15
4.61992e-09
-4.68709e-09
-2.17146e-15
7.39468e-09
-4.02995e-09
-2.03414e-15
9.80879e-09
-3.41579e-09
-1.72934e-15
1.18722e-08
-2.84598e-09
-8.71918e-16
1.35987e-08
-2.32072e-09
-7.44323e-16
1.50059e-08
-1.83994e-09
-9.2866e-16
1.61137e-08
-1.40327e-09
-1.20859e-15
1.69448e-08
-1.00973e-09
-1.21053e-15
1.75223e-08
-6.57709e-10
-1.15113e-15
1.78706e-08
-3.44711e-10
-1.02371e-15
1.8012e-08
-6.80798e-11
-9.07994e-16
1.79692e-08
1.75132e-10
-7.78606e-16
1.77623e-08
3.89602e-10
-6.7722e-16
1.74078e-08
5.79843e-10
-5.88757e-16
1.69205e-08
7.50404e-10
-5.20377e-16
1.63106e-08
9.06641e-10
-4.75433e-16
1.55858e-08
1.0532e-09
-4.09476e-16
1.47502e-08
1.19447e-09
-4.45869e-16
1.38048e-08
1.33468e-09
-4.17682e-16
1.27503e-08
1.47422e-09
-5.30269e-16
1.15875e-08
1.61234e-09
-4.73458e-16
1.03219e-08
1.74261e-09
-4.02551e-16
8.96656e-09
1.85407e-09
-4.88022e-16
7.54637e-09
1.93083e-09
-4.77412e-16
6.10165e-09
1.95231e-09
-5.36812e-16
4.6866e-09
1.9005e-09
-2.8353e-16
3.36416e-09
1.76483e-09
1.38989e-16
2.19621e-09
1.54834e-09
4.78107e-16
1.23144e-09
1.26966e-09
-2.63709e-16
4.99852e-10
9.54765e-10
-7.72272e-16
2.61059e-11
6.07387e-10
-7.94715e-16
-1.41138e-10
1.92892e-10
-5.23882e-16
-2.36627e-10
2.46219e-17
-4.24192e-08
-2.11238e-08
-5.93409e-15
-3.67033e-08
-1.919e-08
-5.96077e-15
-3.12209e-08
-1.75235e-08
-5.97701e-15
-2.59629e-08
-1.60566e-08
-5.9956e-15
-2.09185e-08
-1.4742e-08
-5.84621e-15
-1.60813e-08
-1.35379e-08
-5.53267e-15
-1.14487e-08
-1.24173e-08
-5.21682e-15
-7.02455e-09
-1.1357e-08
-4.79415e-15
-2.8173e-09
-1.03429e-08
-4.14748e-15
1.15998e-09
-9.36656e-09
-3.71743e-15
4.89109e-09
-8.41819e-09
-3.35635e-15
8.3589e-09
-7.49775e-09
-3.14726e-15
1.15449e-08
-6.60177e-09
-2.70223e-15
1.44325e-08
-5.73359e-09
-1.50574e-15
1.70078e-08
-4.89614e-09
-1.28706e-15
1.9261e-08
-4.09314e-09
-1.47583e-15
2.11867e-08
-3.32892e-09
-1.81606e-15
2.27846e-08
-2.60752e-09
-1.84383e-15
2.40592e-08
-1.93238e-09
-1.77119e-15
2.50199e-08
-1.30554e-09
-1.61999e-15
2.568e-08
-7.28104e-10
-1.48297e-15
2.60543e-08
-1.99263e-10
-1.33381e-15
2.61603e-08
2.83703e-10
-1.20729e-15
2.60148e-08
7.2526e-10
-1.09239e-15
2.56338e-08
1.13144e-09
-1.00003e-15
2.503e-08
1.51041e-09
-9.36399e-16
2.4213e-08
1.87021e-09
-8.61101e-16
2.31885e-08
2.21904e-09
-8.71226e-16
2.19575e-08
2.56558e-09
-7.92743e-16
2.05202e-08
2.91158e-09
-9.90352e-16
1.88759e-08
3.25662e-09
-8.53453e-16
1.70298e-08
3.5887e-09
-6.95932e-16
1.49983e-08
3.88558e-09
-8.12918e-16
1.28159e-08
4.11321e-09
-7.55234e-16
1.05431e-08
4.22512e-09
-8.4509e-16
8.26621e-09
4.17737e-09
-5.12229e-16
6.09122e-09
3.93981e-09
-2.14974e-16
4.1284e-09
3.51115e-09
-9.14591e-17
2.47098e-09
2.92708e-09
-6.20039e-16
1.18221e-09
2.24354e-09
-8.51117e-16
3.07078e-10
1.48252e-09
-4.52119e-16
-8.67327e-11
5.86702e-10
-5.65238e-16
-3.2336e-10
-2.71012e-16
-3.88197e-08
-2.58033e-08
-6.42328e-15
-3.41182e-08
-2.38915e-08
-6.19526e-15
-2.94568e-08
-2.21848e-08
-6.09355e-15
-2.48692e-08
-2.06442e-08
-6.07137e-15
-2.03735e-08
-1.92377e-08
-6.04463e-15
-1.59801e-08
-1.79312e-08
-5.89571e-15
-1.16953e-08
-1.67021e-08
-5.7079e-15
-7.52495e-09
-1.55273e-08
-5.36781e-15
-3.47619e-09
-1.43916e-08
-4.78824e-15
4.40755e-10
-1.32835e-08
-4.37583e-15
4.21473e-09
-1.21922e-08
-4.01941e-15
7.82963e-09
-1.11126e-08
-3.78919e-15
1.12674e-08
-1.00395e-08
-3.24309e-15
1.45073e-08
-8.97364e-09
-2.00298e-15
1.75278e-08
-7.9166e-09
-1.78523e-15
2.03063e-08
-6.87161e-09
-2.00123e-15
2.28212e-08
-5.84384e-09
-2.34764e-15
2.5053e-08
-4.83927e-09
-2.39796e-15
2.69851e-08
-3.86447e-09
-2.32493e-15
2.86048e-08
-2.92541e-09
-2.16993e-15
2.99043e-08
-2.02755e-09
-2.02483e-15
3.08794e-08
-1.17447e-09
-1.86315e-15
3.15305e-08
-3.67266e-10
-1.71816e-15
3.18603e-08
3.95284e-10
-1.58191e-15
3.18745e-08
1.11735e-09
-1.4684e-15
3.1578e-08
1.80681e-09
-1.3866e-15
3.09748e-08
2.47342e-09
-1.30005e-15
3.00658e-08
3.12823e-09
-1.2859e-15
2.88471e-08
3.78409e-09
-1.15278e-15
2.7314e-08
4.44473e-09
-1.42055e-15
2.546e-08
5.11061e-09
-1.22273e-15
2.32847e-08
5.76395e-09
-9.86017e-16
2.08013e-08
6.36904e-09
-1.12735e-15
1.80464e-08
6.86806e-09
-1.01551e-15
1.50934e-08
7.17812e-09
-1.13795e-15
1.20557e-08
7.21503e-09
-7.61156e-16
9.08192e-09
6.91359e-09
-5.12287e-16
6.33608e-09
6.25698e-09
-4.43486e-16
3.96615e-09
5.29701e-09
-7.86659e-16
2.07899e-09
4.1307e-09
-8.52354e-16
7.44778e-10
2.81673e-09
-5.30557e-16
4.59084e-11
1.28557e-09
-1.26388e-16
-2.77453e-10
-1.10232e-16
-3.48353e-08
-2.93898e-08
-5.46706e-15
-3.10555e-08
-2.76712e-08
-5.98588e-15
-2.71701e-08
-2.60701e-08
-6.23674e-15
-2.32395e-08
-2.45749e-08
-6.16442e-15
-1.93051e-08
-2.31721e-08
-6.08416e-15
-1.53956e-08
-2.18408e-08
-5.92635e-15
-1.153e-08
-2.05677e-08
-5.76149e-15
-7.72226e-09
-1.93351e-08
-5.4728e-15
-3.98263e-09
-1.81313e-08
-4.98014e-15
-3.21176e-10
-1.69449e-08
-4.63717e-15
3.25587e-09
-1.57692e-08
-4.32367e-15
6.73713e-09
-1.45939e-08
-4.08927e-15
1.01125e-08
-1.34148e-08
-3.46839e-15
1.33685e-08
-1.22297e-08
-2.34218e-15
1.64893e-08
-1.10375e-08
-2.19073e-15
1.94564e-08
-9.83867e-09
-2.4584e-15
2.22485e-08
-8.6359e-09
-2.79133e-15
2.48424e-08
-7.43313e-09
-2.85828e-15
2.72137e-08
-6.23583e-09
-2.79488e-15
2.93379e-08
-5.04967e-09
-2.65151e-15
3.11914e-08
-3.88102e-09
-2.50905e-15
3.2752e-08
-2.73526e-09
-2.34495e-15
3.40008e-08
-1.61588e-09
-2.19001e-15
3.49208e-08
-5.24889e-10
-2.04035e-15
3.54977e-08
5.40638e-10
-1.91177e-15
3.57185e-08
1.58583e-09
-1.81503e-15
3.5572e-08
2.61992e-09
-1.71659e-15
3.50452e-08
3.65522e-09
-1.68361e-15
3.41213e-08
4.70774e-09
-1.50024e-15
3.27828e-08
5.78338e-09
-1.81835e-15
3.10094e-08
6.88393e-09
-1.58e-15
2.87869e-08
7.98642e-09
-1.2773e-15
2.61153e-08
9.04071e-09
-1.43832e-15
2.30224e-08
9.96087e-09
-1.26874e-15
1.95832e-08
1.06174e-08
-1.42093e-15
1.59289e-08
1.08693e-08
-9.82811e-16
1.22465e-08
1.05959e-08
-8.27715e-16
8.75722e-09
9.74626e-09
-6.62657e-16
5.67366e-09
8.38057e-09
-9.06155e-16
3.15848e-09
6.64589e-09
-7.79181e-16
1.31508e-09
4.66014e-09
-8.75799e-16
2.39765e-10
2.36088e-09
-1.82924e-18
-3.76893e-11
-3.58463e-17
-3.07875e-08
-3.20443e-08
-5.9509e-15
-2.78304e-08
-3.06283e-08
-6.1311e-15
-2.46644e-08
-2.92361e-08
-6.04437e-15
-2.13616e-08
-2.78777e-08
-6.00804e-15
-1.79769e-08
-2.65568e-08
-5.98235e-15
-1.4552e-08
-2.52657e-08
-5.91895e-15
-1.11176e-08
-2.40021e-08
-5.82783e-15
-7.69656e-09
-2.27561e-08
-5.6014e-15
-4.30596e-09
-2.15218e-08
-5.13437e-15
-9.58567e-10
-2.02923e-08
-4.79694e-15
2.33531e-09
-1.90631e-08
-4.47765e-15
5.56872e-09
-1.78273e-08
-4.21827e-15
8.73474e-09
-1.65808e-08
-3.53987e-15
1.18264e-08
-1.53214e-08
-2.59103e-15
1.48358e-08
-1.40469e-08
-2.52337e-15
1.7753e-08
-1.27558e-08
-2.83818e-15
2.05652e-08
-1.14481e-08
-3.14766e-15
2.32567e-08
-1.01245e-08
-3.22096e-15
2.58078e-08
-8.78698e-09
-3.1695e-15
2.81957e-08
-7.43767e-09
-3.04451e-15
3.03946e-08
-6.07996e-09
-2.91171e-15
3.2376e-08
-4.71679e-09
-2.75269e-15
3.41101e-08
-3.34977e-09
-2.59611e-15
3.55663e-08
-1.98122e-09
-2.44219e-15
3.67135e-08
-6.06503e-10
-2.30698e-15
3.75193e-08
7.799e-10
-2.20171e-15
3.79516e-08
2.18765e-09
-2.09497e-15
3.79773e-08
3.62976e-09
-2.04901e-15
3.75595e-08
5.12528e-09
-1.8269e-15
3.66594e-08
6.68357e-09
-2.17502e-15
3.52342e-08
8.30902e-09
-1.91363e-15
3.3245e-08
9.97559e-09
-1.56175e-15
3.06661e-08
1.16197e-08
-1.73775e-15
2.75015e-08
1.31253e-08
-1.51282e-15
2.38114e-08
1.43076e-08
-1.69148e-15
1.97295e-08
1.49512e-08
-1.18851e-15
1.54712e-08
1.48542e-08
-1.11143e-15
1.1313e-08
1.39044e-08
-8.93321e-16
7.54017e-09
1.21534e-08
-9.91729e-16
4.38422e-09
9.80184e-09
-9.43752e-16
1.9934e-09
7.05096e-09
-9.19701e-16
4.85114e-10
3.86916e-09
-3.19493e-17
4.47424e-10
3.68549e-17
-2.69166e-08
-3.39596e-08
-5.50782e-15
-2.46496e-08
-3.28951e-08
-5.86614e-15
-2.21148e-08
-3.17709e-08
-5.93877e-15
-1.93829e-08
-3.06096e-08
-5.96056e-15
-1.65122e-08
-2.94275e-08
-5.98153e-15
-1.35503e-08
-2.82276e-08
-5.89301e-15
-1.05347e-08
-2.70177e-08
-5.78326e-15
-7.49519e-09
-2.57955e-08
-5.58421e-15
-4.45479e-09
-2.45622e-08
-5.15886e-15
-1.43102e-09
-2.33161e-08
-4.85482e-15
1.56183e-09
-2.20559e-08
-4.55878e-15
4.51517e-09
-2.07806e-08
-4.29433e-15
7.42206e-09
-1.94877e-08
-3.5928e-15
1.02776e-08
-1.8177e-08
-2.82656e-15
1.30783e-08
-1.68476e-08
-2.82163e-15
1.58203e-08
-1.54979e-08
-3.15227e-15
1.8499e-08
-1.41268e-08
-3.42394e-15
2.11076e-08
-1.27331e-08
-3.49092e-15
2.36364e-08
-1.13158e-08
-3.44697e-15
2.60716e-08
-9.87295e-09
-3.3394e-15
2.83951e-08
-8.40346e-09
-3.21814e-15
3.05834e-08
-6.90523e-09
-3.06872e-15
3.26084e-08
-5.3745e-09
-2.91752e-15
3.4437e-08
-3.81001e-09
-2.76818e-15
3.60322e-08
-2.20159e-09
-2.63502e-15
3.73517e-08
-5.39785e-10
-2.52864e-15
3.83478e-08
1.19157e-09
-2.41964e-15
3.89682e-08
3.00955e-09
-2.36696e-15
3.91552e-08
4.9381e-09
-2.12227e-15
3.8845e-08
6.99392e-09
-2.48226e-15
3.79662e-08
9.18764e-09
-2.21298e-15
3.64465e-08
1.14952e-08
-1.83061e-15
3.42219e-08
1.38445e-08
-2.01718e-15
3.1256e-08
1.60911e-08
-1.74524e-15
2.75734e-08
1.79902e-08
-1.94709e-15
2.32888e-08
1.92358e-08
-1.38623e-15
1.86276e-08
1.95154e-08
-1.35405e-15
1.39127e-08
1.86193e-08
-1.11594e-15
9.50463e-09
1.65614e-08
-1.08628e-15
5.71619e-09
1.35903e-08
-1.0638e-15
2.75479e-09
1.00124e-08
-5.96717e-16
7.70355e-10
5.85358e-09
-2.23082e-16
1.21778e-09
1.21339e-16
-2.33254e-08
-3.52988e-08
-5.86472e-15
-2.16225e-08
-3.4598e-08
-6.16672e-15
-1.96249e-08
-3.37685e-08
-5.95599e-15
-1.73957e-08
-3.28389e-08
-5.92717e-15
-1.49904e-08
-3.18328e-08
-5.92335e-15
-1.2457e-08
-3.0761e-08
-5.86383e-15
-9.83578e-09
-2.9639e-08
-5.79443e-15
-7.15999e-09
-2.84713e-08
-5.65006e-15
-4.45663e-09
-2.72656e-08
-5.24405e-15
-1.74716e-09
-2.60255e-08
-4.94003e-15
9.50798e-10
-2.47539e-08
-4.63814e-15
3.62523e-09
-2.3455e-08
-4.35701e-15
6.26728e-09
-2.21297e-08
-3.6469e-15
8.87122e-09
-2.07809e-08
-3.04263e-15
1.1434e-08
-1.94104e-08
-3.07544e-15
1.39543e-08
-1.80181e-08
-3.39701e-15
1.64317e-08
-1.66041e-08
-3.62391e-15
1.88656e-08
-1.51669e-08
-3.6759e-15
2.12543e-08
-1.37045e-08
-3.63365e-15
2.35936e-08
-1.22124e-08
-3.53911e-15
2.58761e-08
-1.06859e-08
-3.42843e-15
2.80886e-08
-9.11789e-09
-3.29079e-15
3.02127e-08
-7.49833e-09
-3.14991e-15
3.22229e-08
-5.82038e-09
-3.01149e-15
3.40866e-08
-4.06525e-09
-2.88715e-15
3.57636e-08
-2.21688e-09
-2.78599e-15
3.7204e-08
-2.48797e-10
-2.68078e-15
3.83459e-08
1.86779e-09
-2.62714e-15
3.91177e-08
4.16607e-09
-2.37713e-15
3.94355e-08
6.67631e-09
-2.73609e-15
3.92009e-08
9.42213e-09
-2.47083e-15
3.83054e-08
1.23906e-08
-2.07476e-15
3.66392e-08
1.55108e-08
-2.2674e-15
3.41117e-08
1.86185e-08
-1.96085e-15
3.06905e-08
2.14115e-08
-2.18235e-15
2.64449e-08
2.34814e-08
-1.57726e-15
2.15843e-08
2.43759e-08
-1.57114e-15
1.64594e-08
2.37442e-08
-1.31522e-15
1.15011e-08
2.15197e-08
-1.19631e-15
7.11198e-09
1.79795e-08
-1.19512e-15
3.57417e-09
1.35502e-08
-6.25687e-16
1.08491e-09
8.34283e-09
-8.34275e-16
2.30268e-09
1.65343e-16
-2.00806e-08
-3.62063e-08
-5.77419e-15
-1.88236e-08
-3.58549e-08
-6.04819e-15
-1.72695e-08
-3.53226e-08
-5.93579e-15
-1.54701e-08
-3.46382e-08
-5.97357e-15
-1.34744e-08
-3.38285e-08
-5.89282e-15
-1.13273e-08
-3.29081e-08
-5.82991e-15
-9.06799e-09
-3.18983e-08
-5.7243e-15
-6.73066e-09
-3.08087e-08
-5.59556e-15
-4.34404e-09
-2.96522e-08
-5.22589e-15
-1.93186e-09
-2.84377e-08
-4.95735e-15
4.85905e-10
-2.71717e-08
-4.68451e-15
2.89446e-09
-2.58636e-08
-4.41319e-15
5.2825e-09
-2.45178e-08
-3.71936e-15
7.64235e-09
-2.31408e-08
-3.24793e-15
9.96965e-09
-2.17378e-08
-3.29349e-15
1.22627e-08
-2.03112e-08
-3.58265e-15
1.45219e-08
-1.88634e-08
-3.75914e-15
1.67495e-08
-1.73944e-08
-3.78953e-15
1.8948e-08
-1.5903e-08
-3.74422e-15
2.11197e-08
-1.43842e-08
-3.65824e-15
2.32655e-08
-1.28316e-08
-3.55651e-15
2.53825e-08
-1.1235e-08
-3.43123e-15
2.74636e-08
-9.57927e-09
-3.30304e-15
2.94955e-08
-7.8524e-09
-3.17854e-15
3.14569e-08
-6.02656e-09
-3.06635e-15
3.33175e-08
-4.07756e-09
-2.97444e-15
3.50358e-08
-1.9671e-09
-2.87741e-15
3.65558e-08
3.47944e-10
-2.82672e-15
3.78035e-08
2.91821e-09
-2.5866e-15
3.86864e-08
5.79353e-09
-2.93471e-15
3.90891e-08
9.01933e-09
-2.6818e-15
3.88736e-08
1.2606e-08
-2.28655e-15
3.78859e-08
1.64986e-08
-2.48259e-15
3.59744e-08
2.05299e-08
-2.15656e-15
3.30337e-08
2.43523e-08
-2.3938e-15
2.90612e-08
2.74539e-08
-1.76272e-15
2.42188e-08
2.92183e-08
-1.77148e-15
1.88567e-08
2.91062e-08
-1.49596e-15
1.34616e-08
2.69149e-08
-1.31528e-15
8.52771e-09
2.29133e-08
-1.33536e-15
4.42623e-09
1.76517e-08
-7.63718e-16
1.4187e-09
1.13503e-08
-1.18204e-15
3.72139e-09
1.17307e-16
-1.71955e-08
-5.87156e-15
-1.62851e-08
-6.21819e-15
-1.50901e-08
-3.65175e-08
-6.0507e-15
-1.36512e-08
-3.60772e-08
-5.84888e-15
-1.20089e-08
-3.54707e-08
-5.71465e-15
-1.02028e-08
-3.47142e-08
-5.67848e-15
-8.2693e-09
-3.38318e-08
-5.63997e-15
-6.24119e-09
-3.28368e-08
-5.5871e-15
-4.14717e-09
-3.17463e-08
-5.26877e-15
-2.0117e-09
-3.05732e-08
-5.01804e-15
1.43909e-10
-2.93273e-08
-4.75008e-15
2.30363e-09
-2.80233e-08
-4.4721e-15
4.45363e-09
-2.66678e-08
-3.79864e-15
6.58456e-09
-2.52718e-08
-3.42921e-15
8.69016e-09
-2.38434e-08
-3.46809e-15
1.07672e-08
-2.23882e-08
-3.71331e-15
1.28154e-08
-2.09116e-08
-3.84092e-15
1.48367e-08
-1.94157e-08
-3.84913e-15
1.68352e-08
-1.79015e-08
-3.79843e-15
1.88158e-08
-1.6365e-08
-3.71821e-15
2.07844e-08
-1.48001e-08
-3.62361e-15
2.2745e-08
-1.31958e-08
-3.51024e-15
2.46998e-08
-1.15339e-08
-3.3948e-15
2.66467e-08
-9.79946e-09
-3.28429e-15
2.85775e-08
-7.95718e-09
-3.18437e-15
3.04754e-08
-5.97558e-09
-3.10275e-15
3.23131e-08
-3.80479e-09
-3.01616e-15
3.40486e-08
-1.38743e-09
-2.96987e-15
3.56202e-08
1.34646e-09
-2.75026e-15
3.69401e-08
4.4737e-09
-3.08093e-15
3.78907e-08
8.06861e-09
-2.84476e-15
3.83191e-08
1.21775e-08
-2.46165e-15
3.80378e-08
1.678e-08
-2.65868e-15
3.68394e-08
2.17282e-08
-2.32777e-15
3.45386e-08
2.66532e-08
-2.57617e-15
3.10408e-08
3.09517e-08
-1.93831e-15
2.64279e-08
3.38311e-08
-1.955e-15
2.10151e-08
3.45191e-08
-1.66102e-15
1.5319e-08
3.26109e-08
-1.43387e-15
9.9191e-09
2.83133e-08
-1.43623e-15
5.2856e-09
2.22852e-08
-8.50607e-16
1.76181e-09
1.48741e-08
-1.15595e-15
5.48319e-09
-1.85196e-17
-1.31088e-08
-3.74267e-08
-5.87006e-15
-1.19668e-08
-3.72192e-08
-5.83561e-15
-1.06243e-08
-3.68133e-08
-5.76475e-15
-9.11449e-09
-3.6224e-08
-5.64271e-15
-7.46947e-09
-3.54769e-08
-5.54811e-15
-5.71952e-09
-3.45867e-08
-5.49618e-15
-3.89196e-09
-3.35738e-08
-5.21904e-15
-2.01081e-09
-3.24543e-08
-5.00868e-15
-9.80106e-11
-3.12401e-08
-4.77563e-15
1.83148e-09
-2.99528e-08
-4.51835e-15
3.76079e-09
-2.85971e-08
-3.89128e-15
5.67974e-09
-2.71907e-08
-3.6055e-15
7.58039e-09
-2.5744e-08
-3.61661e-15
9.45792e-09
-2.42658e-08
-3.80808e-15
1.13104e-08
-2.27641e-08
-3.88761e-15
1.31388e-08
-2.12441e-08
-3.87535e-15
1.49464e-08
-1.97091e-08
-3.81808e-15
1.67388e-08
-1.81573e-08
-3.74083e-15
1.85231e-08
-1.65845e-08
-3.65173e-15
2.03073e-08
-1.49801e-08
-3.54881e-15
2.2099e-08
-1.33254e-08
-3.44463e-15
2.39042e-08
-1.16048e-08
-3.346e-15
2.57254e-08
-9.77826e-09
-3.25663e-15
2.75591e-08
-7.80938e-09
-3.18393e-15
2.93931e-08
-5.63881e-09
-3.10717e-15
3.12027e-08
-3.19691e-09
-3.0652e-15
3.29453e-08
-3.96289e-10
-2.8714e-15
3.45505e-08
2.86863e-09
-3.17899e-15
3.59127e-08
6.70628e-09
-2.96059e-15
3.68815e-08
1.12087e-08
-2.59892e-15
3.72546e-08
1.6407e-08
-2.7958e-15
3.67835e-08
2.21991e-08
-2.47374e-15
3.52091e-08
2.82276e-08
-2.72942e-15
3.23354e-08
3.38254e-08
-2.10058e-15
2.81377e-08
3.80288e-08
-2.12256e-15
2.28586e-08
3.97981e-08
-1.8133e-15
1.70113e-08
3.84582e-08
-1.55027e-15
1.12431e-08
3.40815e-08
-1.5266e-15
6.12717e-09
2.74012e-08
-9.01744e-16
2.1043e-09
1.8897e-08
-8.41972e-16
7.58749e-09
-2.23255e-16
-1.13311e-08
-3.81115e-08
-6.16297e-15
-1.04306e-08
-3.81196e-08
-5.81822e-15
-9.33909e-09
-3.79048e-08
-5.6378e-15
-8.0833e-09
-3.74798e-08
-5.54192e-15
-6.69053e-09
-3.68696e-08
-5.49637e-15
-5.18767e-09
-3.60896e-08
-5.48826e-15
-3.59981e-09
-3.51617e-08
-5.25713e-15
-1.94975e-09
-3.41044e-08
-5.06323e-15
-2.57823e-10
-3.2932e-08
-4.83664e-15
1.4585e-09
-3.16691e-08
-4.58254e-15
3.1845e-09
-3.03231e-08
-3.99929e-15
4.90827e-09
-2.89145e-08
-3.77583e-15
6.62074e-09
-2.74565e-08
-3.74149e-15
8.31568e-09
-2.59607e-08
-3.87465e-15
9.98969e-09
-2.44381e-08
-3.91178e-15
1.16422e-08
-2.28965e-08
-3.8829e-15
1.32751e-08
-2.1342e-08
-3.81921e-15
1.48929e-08
-1.97753e-08
-3.74392e-15
1.65028e-08
-1.81943e-08
-3.65859e-15
1.81133e-08
-1.65907e-08
-3.56421e-15
1.97347e-08
-1.49467e-08
-3.46884e-15
2.13774e-08
-1.32477e-08
-3.37928e-15
2.30511e-08
-1.14518e-08
-3.29785e-15
2.47622e-08
-9.52062e-09
-3.23185e-15
2.65119e-08
-7.38842e-09
-3.16271e-15
2.82915e-08
-4.97641e-09
-3.12345e-15
3.00788e-08
-2.18381e-09
-2.95598e-15
3.1827e-08
1.12056e-09
-3.2366e-15
3.3453e-08
5.08017e-09
-3.0342e-15
3.48243e-08
9.83735e-09
-2.69968e-15
3.57439e-08
1.54876e-08
-2.89424e-15
3.59442e-08
2.19987e-08
-2.59176e-15
3.51096e-08
2.90623e-08
-2.85154e-15
3.29465e-08
3.59885e-08
-2.24685e-15
2.93081e-08
4.16671e-08
-2.27322e-15
2.43308e-08
4.47754e-08
-1.9535e-15
1.84851e-08
4.43039e-08
-1.66383e-15
1.246e-08
4.01065e-08
-1.62066e-15
6.92689e-09
3.29343e-08
-9.9279e-16
2.43642e-09
2.33874e-08
-7.85715e-16
1.00239e-08
-3.2351e-16
-9.75267e-09
-3.86225e-08
-5.8043e-15
-9.04654e-09
-3.88258e-08
-5.5982e-15
-8.16286e-09
-3.87884e-08
-5.55893e-15
-7.12255e-09
-3.85201e-08
-5.494e-15
-5.94804e-09
-3.80441e-08
-5.39724e-15
-4.66241e-09
-3.73752e-08
-5.39524e-15
-3.28809e-09
-3.6536e-08
-5.20055e-15
-1.84604e-09
-3.55464e-08
-5.04184e-15
-3.55287e-10
-3.44227e-08
-4.8477e-15
1.16711e-09
-3.31915e-08
-4.62217e-15
2.70692e-09
-3.18629e-08
-4.10761e-15
4.25181e-09
-3.04594e-08
-3.93448e-15
5.79207e-09
-2.89968e-08
-3.84958e-15
7.32049e-09
-2.74891e-08
-3.92566e-15
8.83243e-09
-2.595e-08
-3.92587e-15
1.03259e-08
-2.43899e-08
-3.88274e-15
1.18013e-08
-2.28175e-08
-3.8127e-15
1.32618e-08
-2.12358e-08
-3.73872e-15
1.47132e-08
-1.96457e-08
-3.65586e-15
1.61635e-08
-1.8041e-08
-3.56804e-15
1.76229e-08
-1.6406e-08
-3.47908e-15
1.9104e-08
-1.47289e-08
-3.39598e-15
2.06197e-08
-1.29675e-08
-3.32002e-15
2.2183e-08
-1.1084e-08
-3.25817e-15
2.38043e-08
-9.00973e-09
-3.19423e-15
2.54884e-08
-6.66043e-09
-3.15552e-15
2.72308e-08
-3.92631e-09
-3.01239e-15
2.90077e-08
-6.56258e-10
-3.26334e-15
3.07639e-08
3.3239e-09
-3.07339e-15
3.23948e-08
8.20635e-09
-2.76833e-15
3.37257e-08
1.41568e-08
-2.9581e-15
3.4493e-08
2.12314e-08
-2.68306e-15
3.43492e-08
2.92061e-08
-2.94359e-15
3.29201e-08
3.74177e-08
-2.37689e-15
2.99346e-08
4.46525e-08
-2.4075e-15
2.53976e-08
4.93123e-08
-2.08282e-15
1.96988e-08
5.00027e-08
-1.7739e-15
1.3535e-08
4.62703e-08
-1.71831e-15
7.66254e-09
3.88069e-08
-1.10834e-15
2.7488e-09
2.83011e-08
-9.54889e-16
1.27727e-08
-3.82494e-16
-8.36281e-09
-3.9e-08
-6.03394e-15
-7.8115e-09
-3.93771e-08
-5.87545e-15
-7.09849e-09
-3.95014e-08
-5.75962e-15
-6.23942e-09
-3.93792e-08
-5.6296e-15
-5.25212e-09
-3.90314e-08
-5.48454e-15
-4.15586e-09
-3.84715e-08
-5.46936e-15
-2.97015e-09
-3.77217e-08
-5.26891e-15
-1.71381e-09
-3.68027e-08
-5.10438e-15
-4.04352e-10
-3.57322e-08
-4.9065e-15
9.42279e-10
-3.45382e-08
-4.68199e-15
2.31245e-09
-3.3233e-08
-4.21209e-15
3.69402e-09
-3.1841e-08
-4.06958e-15
5.0771e-09
-3.03799e-08
-3.93788e-15
6.45385e-09
-2.88659e-08
-3.96526e-15
7.81877e-09
-2.73149e-08
-3.93577e-15
9.16872e-09
-2.57399e-08
-3.88085e-15
1.05029e-08
-2.41516e-08
-3.80502e-15
1.18228e-08
-2.25558e-08
-3.73174e-15
1.31328e-08
-2.09557e-08
-3.65029e-15
1.44395e-08
-1.93477e-08
-3.56728e-15
1.57522e-08
-1.77187e-08
-3.48287e-15
1.7083e-08
-1.60598e-08
-3.40408e-15
1.84463e-08
-1.43306e-08
-3.33149e-15
1.98578e-08
-1.24956e-08
-3.27158e-15
2.13338e-08
-1.04857e-08
-3.21061e-15
2.28882e-08
-8.21479e-09
-3.17043e-15
2.45301e-08
-5.56838e-09
-3.04762e-15
2.62556e-08
-2.38163e-09
-3.26813e-15
2.80361e-08
1.54331e-09
-3.08688e-15
2.97993e-08
6.44308e-09
-2.81037e-15
3.14037e-08
1.25525e-08
-2.9914e-15
3.26091e-08
2.00259e-08
-2.74732e-15
3.3063e-08
2.87523e-08
-3.00428e-15
3.2336e-08
3.81447e-08
-2.48725e-15
3.00442e-08
4.69442e-08
-2.52329e-15
2.6049e-08
5.33076e-08
-2.20009e-15
2.06251e-08
5.54267e-08
-1.87859e-15
1.44404e-08
5.24551e-08
-1.81538e-15
8.3147e-09
4.49325e-08
-1.24283e-15
3.03283e-09
3.3583e-08
-1.06242e-15
1.58056e-08
-4.34695e-16
-7.14711e-09
-3.92762e-08
-5.78404e-15
-6.71818e-09
-3.9806e-08
-5.74571e-15
-6.14422e-09
-4.00754e-08
-5.68275e-15
-5.43647e-09
-4.0087e-08
-5.58856e-15
-4.60863e-09
-3.98593e-08
-5.45634e-15
-3.67632e-09
-3.94038e-08
-5.43864e-15
-2.65606e-09
-3.8742e-08
-5.24868e-15
-1.5644e-09
-3.78944e-08
-5.0972e-15
-4.17143e-10
-3.68795e-08
-4.91415e-15
7.71095e-10
-3.57264e-08
-4.70572e-15
1.98751e-09
-3.44494e-08
-4.28017e-15
3.22055e-09
-3.30741e-08
-4.1658e-15
4.46049e-09
-3.16198e-08
-4.00539e-15
5.69927e-09
-3.01046e-08
-3.99765e-15
6.93084e-09
-2.85465e-08
-3.94561e-15
8.15123e-09
-2.69602e-08
-3.88074e-15
9.35857e-09
-2.5359e-08
-3.79954e-15
1.05531e-08
-2.37504e-08
-3.72635e-15
1.17377e-08
-2.21402e-08
-3.64554e-15
1.29174e-08
-2.05275e-08
-3.56591e-15
1.40999e-08
-1.89011e-08
-3.4845e-15
1.52963e-08
-1.72563e-08
-3.40836e-15
1.65201e-08
-1.55544e-08
-3.33748e-15
1.7788e-08
-1.37635e-08
-3.27781e-15
1.91186e-08
-1.18163e-08
-3.21787e-15
2.05315e-08
-9.62756e-09
-3.1746e-15
2.20448e-08
-7.08185e-09
-3.06747e-15
2.36695e-08
-4.00621e-09
-3.25382e-15
2.53995e-08
-1.86746e-10
-3.07902e-15
2.71936e-08
4.64892e-09
-2.8306e-15
2.89479e-08
1.07983e-08
-3.00001e-15
3.04592e-08
1.85145e-08
-2.78808e-15
3.13932e-08
2.78182e-08
-3.03788e-15
3.12947e-08
3.82432e-08
-2.57576e-15
2.96896e-08
4.85492e-08
-2.62014e-15
2.62966e-08
5.67006e-08
-2.30541e-15
2.12514e-08
6.04718e-08
-1.97713e-15
1.51563e-08
5.85502e-08
-1.9088e-15
8.86758e-09
5.12213e-08
-1.37669e-15
3.28099e-09
3.91695e-08
-1.14512e-15
1.90865e-08
-4.78798e-16
-6.08948e-09
-3.94762e-08
-6.05808e-15
-5.75658e-09
-4.01389e-08
-6.05211e-15
-5.2952e-09
-4.05367e-08
-5.92497e-15
-4.71302e-09
-4.06691e-08
-5.73525e-15
-4.02019e-09
-4.05521e-08
-5.55516e-15
-3.229e-09
-4.0195e-08
-5.50404e-15
-2.35306e-09
-3.96179e-08
-5.29914e-15
-1.40659e-09
-3.88409e-08
-5.14069e-15
-4.03628e-10
-3.78824e-08
-4.9518e-15
6.42639e-10
-3.67727e-08
-4.74022e-15
1.72038e-09
-3.55272e-08
-4.33248e-15
2.81887e-09
-3.41726e-08
-4.23398e-15
3.9288e-09
-3.27297e-08
-4.0575e-15
5.04223e-09
-3.12181e-08
-4.0254e-15
6.15285e-09
-2.96571e-08
-3.95658e-15
7.25615e-09
-2.80635e-08
-3.88342e-15
8.34946e-09
-2.64523e-08
-3.79749e-15
9.43206e-09
-2.48331e-08
-3.72384e-15
1.05054e-08
-2.32136e-08
-3.64309e-15
1.15731e-08
-2.15952e-08
-3.56566e-15
1.26414e-08
-1.99693e-08
-3.48612e-15
1.37194e-08
-1.83343e-08
-3.41147e-15
1.48194e-08
-1.66543e-08
-3.34106e-15
1.59572e-08
-1.49013e-08
-3.28039e-15
1.71519e-08
-1.3011e-08
-3.22008e-15
1.84253e-08
-1.09008e-08
-3.1725e-15
1.98009e-08
-8.45757e-09
-3.07655e-15
2.12995e-08
-5.50476e-09
-3.22863e-15
2.29322e-08
-1.81947e-09
-3.05676e-15
2.46841e-08
2.89688e-09
-2.83254e-15
2.64882e-08
8.99429e-09
-2.98633e-15
2.81844e-08
1.68182e-08
-2.80535e-15
2.94743e-08
2.65284e-08
-3.04708e-15
2.99048e-08
3.78128e-08
-2.64197e-15
2.89405e-08
4.95135e-08
-2.69692e-15
2.61708e-08
5.94702e-08
-2.39744e-15
2.15798e-08
6.50628e-08
-2.06814e-15
1.5672e-08
6.4458e-08
-1.99672e-15
9.3096e-09
5.75838e-08
-1.49113e-15
3.48718e-09
4.49919e-08
-1.21842e-15
2.25737e-08
-5.16528e-16
-5.17347e-09
-3.96196e-08
-6.00644e-15
-4.91542e-09
-4.0397e-08
-6.00694e-15
-4.54468e-09
-4.09075e-08
-5.90036e-15
-4.06614e-09
-4.11477e-08
-5.72455e-15
-3.48703e-09
-4.11312e-08
-5.55501e-15
-2.81671e-09
-4.08653e-08
-5.49069e-15
-2.06608e-09
-4.03685e-08
-5.28225e-15
-1.24704e-09
-3.96599e-08
-5.12776e-15
-3.71833e-10
-3.87576e-08
-4.94469e-15
5.4779e-10
-3.76923e-08
-4.7416e-15
1.50104e-09
-3.64804e-08
-4.35418e-15
2.47809e-09
-3.51496e-08
-4.2733e-15
3.47028e-09
-3.37219e-08
-4.09516e-15
4.47001e-09
-3.22178e-08
-4.0488e-15
5.47097e-09
-3.06581e-08
-3.96845e-15
6.46835e-09
-2.90609e-08
-3.88874e-15
7.45896e-09
-2.74429e-08
-3.79879e-15
8.44129e-09
-2.58154e-08
-3.72432e-15
9.41576e-09
-2.41881e-08
-3.64331e-15
1.03847e-08
-2.25642e-08
-3.56718e-15
1.13527e-08
-2.09373e-08
-3.48862e-15
1.23274e-08
-1.9309e-08
-3.41457e-15
1.33191e-08
-1.76461e-08
-3.34384e-15
1.43422e-08
-1.59244e-08
-3.28128e-15
1.54145e-08
-1.40834e-08
-3.21968e-15
1.65582e-08
-1.20444e-08
-3.16692e-15
1.77989e-08
-9.69838e-09
-3.07812e-15
1.91632e-08
-6.86907e-09
-3.19399e-15
2.06738e-08
-3.33006e-09
-3.02292e-15
2.23362e-08
1.23439e-09
-2.81621e-15
2.41155e-08
7.21504e-09
-2.94896e-15
2.58953e-08
1.50383e-08
-2.79881e-15
2.74235e-08
2.50002e-08
-3.03513e-15
2.8272e-08
3.69643e-08
-2.68938e-15
2.7875e-08
4.99104e-08
-2.75629e-15
2.57155e-08
6.16297e-08
-2.47689e-15
2.16249e-08
6.91534e-08
-2.15147e-15
1.59851e-08
7.00978e-08
-2.07814e-15
9.63377e-09
6.39352e-08
-1.59697e-15
3.64701e-09
5.09786e-08
-1.28608e-15
2.62207e-08
-5.5047e-16
-4.38305e-09
-3.97212e-08
-6.06531e-15
-4.18302e-09
-4.0597e-08
-6.09114e-15
-3.88489e-09
-4.12056e-08
-5.99211e-15
-3.49149e-09
-4.15411e-08
-5.75647e-15
-3.00773e-09
-4.16149e-08
-5.53897e-15
-2.44048e-09
-4.14325e-08
-5.48589e-15
-1.79821e-09
-4.10108e-08
-5.26875e-15
-1.0906e-09
-4.03675e-08
-5.12608e-15
-3.28077e-10
-3.95202e-08
-4.94946e-15
4.79024e-10
-3.84994e-08
-4.75222e-15
1.32096e-09
-3.73223e-08
-4.38087e-15
2.18884e-09
-3.60175e-08
-4.30738e-15
3.07471e-09
-3.46078e-08
-4.12807e-15
3.9715e-09
-3.31146e-08
-4.07035e-15
4.87311e-09
-3.15597e-08
-3.98105e-15
5.77466e-09
-2.99624e-08
-3.89602e-15
6.67261e-09
-2.83409e-08
-3.80275e-15
7.56492e-09
-2.67078e-08
-3.72731e-15
8.45119e-09
-2.50743e-08
-3.64589e-15
9.3327e-09
-2.34457e-08
-3.5704e-15
1.02128e-08
-2.18173e-08
-3.49222e-15
1.10973e-08
-2.01937e-08
-3.41817e-15
1.1995e-08
-1.85437e-08
-3.34648e-15
1.29181e-08
-1.68476e-08
-3.28152e-15
1.38829e-08
-1.50481e-08
-3.21778e-15
1.491e-08
-1.30714e-08
-3.15949e-15
1.60253e-08
-1.08138e-08
-3.07424e-15
1.7258e-08
-8.10165e-09
-3.155e-15
1.86373e-08
-4.70942e-09
-2.9781e-15
2.01834e-08
-3.11809e-10
-2.77525e-15
2.18872e-08
5.51129e-09
-2.87086e-15
2.36721e-08
1.32534e-08
-2.75884e-15
2.53358e-08
2.33366e-08
-3.00023e-15
2.6492e-08
3.58081e-08
-2.7185e-15
2.6573e-08
4.98294e-08
-2.79834e-15
2.49833e-08
6.32194e-08
-2.54283e-15
2.14114e-08
7.27252e-08
-2.22627e-15
1.61014e-08
7.54079e-08
-2.1525e-15
9.83775e-09
7.01988e-08
-1.69592e-15
3.75787e-09
5.70585e-08
-1.34888e-15
2.99786e-08
-5.82879e-16
-3.70319e-09
-3.97925e-08
-5.83541e-15
-3.54787e-09
-4.07524e-08
-6.01557e-15
-3.30766e-09
-4.14458e-08
-5.9413e-15
-2.9839e-09
-4.18649e-08
-5.71848e-15
-2.57974e-09
-4.20191e-08
-5.52763e-15
-2.10003e-09
-4.19122e-08
-5.45436e-15
-1.55112e-09
-4.15597e-08
-5.24431e-15
-9.40633e-10
-4.0978e-08
-5.1027e-15
-2.77218e-10
-4.01836e-08
-4.9337e-15
4.30221e-10
-3.92068e-08
-4.74726e-15
1.17298e-09
-3.80651e-08
-4.40151e-15
1.94304e-09
-3.67876e-08
-4.33489e-15
2.73321e-09
-3.5398e-08
-4.1555e-15
3.537e-09
-3.39184e-08
-4.08863e-15
4.3487e-09
-3.23714e-08
-3.99288e-15
5.16354e-09
-3.07772e-08
-3.90408e-15
5.97783e-09
-2.91552e-08
-3.80841e-15
6.78914e-09
-2.75191e-08
-3.73202e-15
7.59651e-09
-2.58817e-08
-3.65023e-15
8.40038e-09
-2.42496e-08
-3.57492e-15
9.20298e-09
-2.26198e-08
-3.49675e-15
1.00088e-08
-2.09996e-08
-3.42226e-15
1.08249e-08
-1.93598e-08
-3.34927e-15
1.16615e-08
-1.76842e-08