/*--------------------------------*- C++ -*----------------------------------*\
| =========                 |                                                 |
| \\      /  F ield         | OpenFOAM: The Open Source CFD Toolbox           |
|  \\    /   O peration     | Version:  v2012                                 |
|   \\  /    A nd           | Website:  www.openfoam.com                      |
|    \\/     M anipulation  |                                                 |
\*---------------------------------------------------------------------------*/
FoamFile
{
    version     2.0;
    format      ascii;
    class       volScalarField;
    location    "0.45";
    object      alpha.water;
}
// * * * * * * * * * * * * * * * * * * * * * * * * * * * * * * * * * * * * * //

dimensions      [0 0 0 0 0 0 0];


internalField   nonuniform List<scalar> 
3352
(
1.00002
1.00001
1.00001
0.999998
0.999988
0.999877
0.996342
0.951583
0.841916
0.837306
0.907296
0.964249
0.923592
0.588539
0.132636
0.00542472
2.33446e-05
7.11314e-09
4.62872e-13
9.54158e-16
1.66299e-18
2.39657e-21
2.76501e-24
2.43402e-27
1.51166e-30
5.69805e-34
8.50309e-38
-6.34055e-55
-4.96625e-62
9.98863e-97
4.31609e-85
1.06347e-81
1.58215e-78
1.80946e-75
1.88715e-72
1.86113e-69
1.8046e-66
9.14282e-64
3.43297e-51
1.00002
1.00001
1.00001
0.999998
0.999988
0.999879
0.996639
0.953309
0.832595
0.822037
0.895452
0.961401
0.899837
0.539256
0.109759
0.00384945
1.03365e-05
1.37894e-09
3.50451e-13
7.48592e-16
1.34e-18
1.96779e-21
2.29517e-24
2.02359e-27
1.24207e-30
4.50991e-34
5.88643e-38
-1.22618e-54
2.49218e-62
6.67852e-85
7.90012e-89
2.98238e-93
1.10277e-94
1.37109e-91
1.45846e-88
-8.20622e-87
4.8524e-70
1.79474e-63
7.55365e-62
1.00002
1.00001
1.00001
0.999999
0.999989
0.999884
0.99679
0.953378
0.827543
0.813312
0.889441
0.948783
0.882514
0.506921
0.0963709
0.00305666
6.01266e-06
7.78782e-10
2.80116e-13
6.11277e-16
1.11337e-18
1.65556e-21
1.94289e-24
1.70773e-27
1.02893e-30
3.54511e-34
3.76013e-38
-5.48568e-54
6.84787e-63
6.69049e-85
7.90538e-89
5.71545e-93
4.88454e-96
6.47543e-95
1.2199e-88
1.25851e-86
1.363e-86
4.31798e-85
5.39044e-79
1.00002
1.00001
1.00001
1
0.99999
0.99989
0.996948
0.952366
0.821082
0.802733
0.882675
0.94175
0.859582
0.467147
0.0813866
0.00226231
2.75088e-06
2.88572e-10
2.22699e-13
4.96003e-16
9.1461e-19
1.36532e-21
1.59227e-24
1.37086e-27
7.89063e-31
2.44731e-34
1.61031e-38
-4.50693e-57
-5.8723e-74
6.73831e-85
7.76465e-89
6.03202e-93
2.43242e-98
1.13691e-97
1.51382e-94
1.32968e-91
1.26657e-86
2.91329e-81
1.1156e-79
1.00002
1.00001
1.00001
1
0.99999
0.999894
0.997077
0.951586
0.814406
0.792077
0.876156
0.932196
0.833024
0.425549
0.0674165
0.00162178
1.09956e-06
6.32367e-11
1.63775e-13
3.67271e-16
6.80371e-19
1.01269e-21
1.16284e-24
9.6568e-28
5.15586e-31
1.33246e-34
1.07644e-39
-1.82798e-48
2.35837e-76
6.76833e-85
7.59561e-89
6.07143e-93
2.41382e-98
8.59531e-104
5.46443e-109
3.22094e-106
3.19218e-89
6.16211e-86
2.26995e-84
1.00002
1.00001
1.00001
1
0.999991
0.999901
0.997172
0.950423
0.807192
0.780881
0.869493
0.921466
0.801974
0.381892
0.0545187
0.00111641
4.25059e-07
4.74877e-11
-5.65563e-13
-2.66248e-15
-6.31379e-18
-1.10567e-20
-1.50232e-23
-1.55963e-26
-1.16953e-29
-5.61529e-33
-1.23474e-36
-7.81318e-44
3.38294e-81
6.80055e-85
7.42738e-89
6.07495e-93
2.62697e-98
1.70963e-103
2.57713e-109
5.53519e-106
3.76701e-104
3.80178e-104
2.93682e-100
1.00002
1.00001
1.00001
1
0.999991
0.999909
0.997253
0.949196
0.799642
0.769242
0.862568
0.908929
0.766414
0.33745
0.0430842
0.000740303
2.28412e-07
3.48652e-11
-4.86775e-13
-1.94134e-15
-4.54813e-18
-7.96083e-21
-1.07554e-23
-1.09383e-26
-7.80246e-30
-3.32972e-33
-4.82823e-37
-1.70452e-46
3.46331e-81
6.83178e-85
7.25944e-89
6.01216e-93
2.99089e-98
2.32965e-103
8.17723e-111
1.12029e-108
1.11226e-103
4.00386e-102
5.50111e-101
1.00002
1.00001
1.00001
1
0.999992
0.999916
0.997317
0.947801
0.791681
0.757128
0.855243
0.894513
0.726423
0.293451
0.0333323
0.000475183
1.42897e-07
2.46408e-11
-3.87565e-13
-1.44535e-15
-3.34654e-18
-5.7876e-21
-7.62558e-24
-7.39058e-27
-4.81099e-30
-1.67697e-33
-6.86473e-38
-5.37438e-51
3.46061e-81
6.86177e-85
7.10464e-89
5.84152e-93
3.14349e-98
2.5337e-103
8.0176e-111
4.09336e-110
7.54473e-108
1.54839e-104
3.94852e-103
1.00002
1.00001
1.00001
1
0.999993
0.999921
0.997375
0.946283
0.783328
0.744547
0.847368
0.878065
0.68233
0.251115
0.0253133
0.000297501
8.65991e-08
1.66124e-11
-2.84531e-13
-1.00933e-15
-2.30489e-18
-3.9096e-21
-4.95839e-24
-4.47671e-27
-2.5428e-30
-6.28138e-34
-2.40729e-41
5.82483e-75
3.52747e-81
6.89088e-85
6.97154e-89
5.58836e-93
3.21802e-98
2.6159e-103
7.87616e-111
8.42207e-110
1.01012e-108
3.98962e-108
5.90299e-106
1.00002
1.00001
1.00001
1
0.999994
0.999926
0.997407
0.944606
0.774515
0.731503
0.838796
0.859517
0.63474
0.211587
0.0189543
0.0001839
5.1269e-08
5.71742e-12
-1.95632e-13
-6.68995e-16
-1.49689e-18
-2.46122e-21
-2.95483e-24
-2.41596e-27
-1.12321e-30
-1.37674e-34
-3.83175e-44
5.93036e-78
3.5602e-81
6.91928e-85
6.86901e-89
5.28462e-93
3.23207e-98
2.62784e-103
7.68667e-111
5.75127e-110
8.82237e-109
4.38317e-108
5.35255e-107
1.00002
1.00001
1
1
0.999995
0.99993
0.997441
0.942762
0.765204
0.718011
0.829332
0.838894
0.584487
0.175769
0.0140731
0.000114105
3.00993e-08
-3.17318e-12
-1.54612e-13
-5.03402e-16
-1.0541e-18
-1.61307e-21
-1.7616e-24
-1.23839e-27
-4.17745e-31
-6.3837e-38
-4.6228e-50
5.88728e-78
3.59708e-81
6.94778e-85
6.80374e-89
4.95492e-93
3.21688e-98
2.59081e-103
7.58266e-111
4.24324e-110
6.95682e-109
3.14796e-108
1.29403e-107
1.00002
1.00001
1
1
0.999996
0.999933
0.99745
0.94073
0.755344
0.704085
0.81873
0.816188
0.532712
0.144261
0.0104313
7.25005e-05
1.78856e-08
-4.47742e-12
-9.81836e-14
-2.96972e-16
-5.91568e-19
-8.43425e-22
-8.21568e-25
-4.67705e-28
-8.62527e-32
-2.57935e-39
2.27006e-74
5.85662e-78
3.63077e-81
6.97752e-85
6.77553e-89
4.62079e-93
3.1334e-98
2.43581e-103
7.44173e-111
2.88303e-110
5.36608e-109
2.48024e-108
5.90503e-108
1.00002
1.00001
1
1
0.999997
0.999935
0.997453
0.938496
0.744907
0.689743
0.806955
0.790955
0.480957
0.117308
0.00777337
4.81139e-05
1.09848e-08
-4.10624e-12
-6.09887e-14
-1.70162e-16
-3.14062e-19
-4.03423e-22
-3.32834e-25
-1.35741e-28
-1.75569e-34
-6.06775e-43
8.75015e-75
5.85276e-78
3.66343e-81
7.01009e-85
6.77087e-89
4.30202e-93
2.97862e-98
2.18053e-103
7.16904e-111
1.90157e-110
3.8394e-109
1.87758e-108
3.79883e-108
1.00002
1.00001
1
1
0.999997
0.999937
0.99743
0.936044
0.733884
0.675002
0.79415
0.762849
0.430461
0.0948214
0.00586119
3.38386e-05
7.09868e-09
-3.48908e-12
-3.77986e-14
-9.55562e-17
-1.59171e-19
-1.7718e-22
-1.14878e-25
-2.50597e-29
-1.59177e-36
-4.52108e-51
7.97906e-75
5.88172e-78
3.69505e-81
7.04753e-85
6.86666e-89
4.01684e-93
2.77492e-98
1.88099e-103
6.66973e-111
1.22719e-110
2.61686e-109
1.35519e-108
2.65819e-108
1.00002
1.00001
1
1
0.999998
0.999938
0.997398
0.933368
0.72229
0.659873
0.780044
0.732139
0.382282
0.0764588
0.00449308
2.5365e-05
4.8707e-09
-2.90867e-12
-2.3412e-14
-5.26848e-17
-7.68186e-20
-7.03342e-23
-3.14096e-26
-2.17957e-32
-3.45632e-39
5.55405e-72
8.34735e-75
5.94154e-78
3.72647e-81
7.09238e-85
7.06354e-89
3.78177e-93
2.54441e-98
1.581e-103
6.06662e-111
7.88263e-111
1.70473e-109
9.33455e-109
1.89791e-108
1.00002
1.00001
1
0.999999
0.999998
0.999938
0.997346
0.930469
0.710172
0.644364
0.764432
0.699112
0.33731
0.0617225
0.0035106
2.02106e-05
3.54549e-09
-2.65736e-12
-1.50534e-14
-2.94283e-17
-3.585e-20
-2.4798e-23
-5.41171e-27
-3.52049e-34
-3.3267e-49
5.48054e-72
8.21929e-75
6.01465e-78
3.75864e-81
7.14772e-85
7.30623e-89
3.61056e-93
2.30671e-98
1.31068e-103
5.47085e-111
5.13908e-111
1.07086e-109
6.22445e-109
1.34537e-108
1.00002
1.00001
1
0.999999
0.999998
0.999938
0.99728
0.92737
0.697614
0.628482
0.747114
0.664145
0.296157
0.0500442
0.00279657
1.6993e-05
2.71727e-09
-2.09274e-12
-9.22476e-15
-1.52582e-17
-1.48511e-20
-6.7004e-24
-2.41029e-30
-8.25721e-36
3.28134e-69
5.41253e-72
8.14757e-75
6.11866e-78
3.7928e-81
7.2172e-85
7.63458e-89
3.5105e-93
2.07959e-98
1.09043e-103
4.91944e-111
3.46474e-111
6.51268e-110
3.9176e-109
9.49619e-109
1.00002
1.00001
1
0.999999
0.999998
0.999938
0.997208
0.924127
0.684745
0.612236
0.727902
0.627713
0.259159
0.040858
0.0022682
1.4951e-05
2.1718e-09
-1.56312e-12
-5.55469e-15
-7.52581e-18
-5.37491e-21
-1.03007e-24
-2.04691e-31
-1.44839e-48
3.3059e-69
5.39955e-72
8.08167e-75
6.25165e-78
3.8305e-81
7.30507e-85
8.059e-89
3.47392e-93
1.87895e-98
9.32209e-104
4.51304e-111
2.37107e-111
3.94893e-110
2.30359e-109
6.44607e-109
1.00002
1.00001
1
1
0.999998
0.999937
0.997119
0.920816
0.671733
0.595635
0.70667
0.590334
0.226403
0.0336492
0.00186888
1.36576e-05
1.78931e-09
-1.13904e-12
-3.28312e-15
-3.47456e-18
-1.54594e-21
-2.78911e-28
-5.1952e-33
2.91289e-59
3.34459e-69
5.39806e-72
8.03264e-75
6.41488e-78
3.87358e-81
7.41634e-85
8.57517e-89
3.47305e-93
1.71845e-98
8.38765e-104
4.24216e-111
1.62033e-111
2.45513e-110
1.27234e-109
4.03904e-109
1.00002
1.00001
1
1
0.999997
0.999937
0.99707
0.917591
0.658772
0.578694
0.683364
0.552535
0.197768
0.0279799
0.00156051
1.2861e-05
1.64036e-09
-8.15079e-13
-1.90254e-15
-1.46216e-18
-2.48623e-22
-3.05644e-29
-2.39414e-35
3.10519e-59
3.39236e-69
5.45256e-72
8.00299e-75
6.61198e-78
3.92421e-81
7.5568e-85
9.18806e-89
3.67892e-93
1.60826e-98
8.0033e-104
4.11329e-111
1.06103e-111
1.58153e-110
6.90525e-110
2.19541e-109
1.00001
1.00001
1
1
0.999997
0.999937
0.996993
0.914479
0.646072
0.561432
0.658035
0.514812
0.172983
0.0234946
0.00131758
1.2401e-05
2.52414e-09
-6.00731e-13
-1.0933e-15
-5.29906e-19
-3.29232e-25
-3.06985e-30
2.02635e-52
3.23167e-59
3.45836e-69
5.53903e-72
7.99184e-75
6.84531e-78
3.98496e-81
7.73324e-85
9.89979e-89
4.23259e-93
1.55099e-98
7.92242e-104
4.08537e-111
6.29637e-112
1.02713e-110
3.99788e-110
9.84357e-110
1.00001
1.00001
1
1
0.999997
0.999939
0.996976
0.911888
0.633821
0.543879
0.630838
0.477602
0.151682
0.0199143
0.00112273
1.2167e-05
3.59237e-09
-4.36175e-13
-6.06733e-16
-1.27552e-19
-9.16161e-26
-1.41021e-31
2.12088e-52
3.39853e-59
3.54353e-69
5.64827e-72
8.01158e-75
7.11831e-78
4.05883e-81
7.95366e-85
1.07103e-88
5.01785e-93
1.53411e-98
8.71299e-104
4.46924e-111
3.25367e-112
6.2714e-111
2.52529e-110
4.71675e-110
1.00001
1
1
1
0.999997
0.999952
0.99697
0.909301
0.622214
0.526071
0.602031
0.441263
0.133446
0.0170244
0.000963964
1.20717e-05
4.15486e-09
-3.11464e-13
-3.14847e-16
-2.02157e-22
-1.92621e-26
-3.85563e-33
2.17611e-52
3.58415e-59
3.64764e-69
5.80128e-72
8.06831e-75
7.43503e-78
4.14937e-81
8.2275e-85
1.16198e-88
6.03418e-93
1.55782e-98
1.373e-103
5.59688e-111
1.51449e-112
3.36349e-111
1.56969e-110
2.76822e-110
1.00001
1
1
1
0.999998
0.99997
0.997013
0.908174
0.611361
0.508066
0.57195
0.40608
0.117837
0.0146618
0.000832695
1.20422e-05
4.39466e-09
-2.19855e-13
-1.42113e-16
-6.53559e-23
-3.02309e-27
6.22037e-46
2.24691e-52
3.79687e-59
3.77352e-69
5.99796e-72
8.16292e-75
7.80034e-78
4.26077e-81
8.56607e-85
1.26287e-88
7.3526e-93
1.84384e-98
2.50687e-103
7.2009e-111
6.99563e-113
1.60563e-111
8.50664e-111
1.87346e-110
1.00001
1
1
1
0.999999
0.999981
0.997199
0.906378
0.601546
0.489919
0.540996
0.372258
0.104422
0.0127025
0.000722648
1.20197e-05
4.4527e-09
-1.5339e-13
-4.34884e-17
-1.7133e-23
-3.21756e-28
6.51807e-46
2.32193e-52
4.03708e-59
3.92339e-69
6.24206e-72
8.30386e-75
8.22022e-78
4.39805e-81
8.983e-85
1.37387e-88
8.99532e-93
2.53004e-98
4.10797e-103
9.35672e-111
3.28767e-113
7.84061e-112
4.12294e-111
1.08127e-110
1
1
0.999998
1
1
0.99999
0.997664
0.906014
0.59266
0.47176
0.509629
0.339917
0.0927919
0.011052
0.000629105
1.19616e-05
4.40746e-09
-1.00598e-13
5.12713e-20
-3.50878e-24
-1.46302e-29
7.11859e-46
2.4049e-52
4.30757e-59
4.09989e-69
6.54142e-72
8.49934e-75
8.70201e-78
4.56725e-81
9.49489e-85
1.49545e-88
1.09347e-92
3.54785e-98
5.87763e-103
1.19991e-110
1.34283e-113
3.88084e-112
2.04435e-111
4.63956e-111
1
1
0.999998
1
1
0.999997
0.998185
0.905942
0.58485
0.453556
0.478302
0.309139
0.0825741
0.00963854
0.000548467
1.18329e-05
4.16645e-09
-6.02094e-14
6.66939e-20
-5.30702e-25
-1.17711e-31
7.49714e-46
2.4955e-52
4.611e-59
4.30612e-69
6.90318e-72
8.75915e-75
9.25474e-78
4.7758e-81
1.01221e-84
1.62848e-88
1.31277e-92
4.88285e-98
7.51388e-103
1.48888e-110
4.16167e-114
1.63406e-112
1.01489e-111
2.32294e-111
1
1
0.999997
1
1
0.999998
0.998737
0.908783
0.578149
0.435379
0.447434
0.279999
0.0734476
0.0084074
0.000477985
1.15735e-05
3.73463e-09
-3.37916e-14
7.33337e-20
-5.3921e-26
7.30595e-38
7.97394e-46
2.59463e-52
4.95056e-59
4.54609e-69
7.33647e-72
9.09541e-75
9.88964e-78
5.03287e-81
1.089e-84
1.77452e-88
1.55234e-92
6.54873e-98
8.72869e-103
1.77894e-110
1.0906e-114
5.77072e-113
4.46702e-112
1.13643e-111
1
1
0.999997
1
1
0.999998
0.999227
0.912528
0.57275
0.417347
0.417269
0.252613
0.0651552
0.007318
0.000415598
1.11314e-05
3.0822e-09
-1.66439e-14
8.12639e-20
-2.8343e-27
7.86547e-38
8.48339e-46
2.70309e-52
5.32998e-59
4.82438e-69
7.85259e-72
9.52315e-75
1.06206e-77
5.34993e-81
1.183e-84
1.93603e-88
1.80617e-92
8.49399e-98
9.35368e-103
2.05074e-110
2.77875e-115
1.69247e-113
1.66612e-112
5.26994e-112
0.999999
1
0.999997
1
1
0.999999
0.999593
0.917763
0.568865
0.399581
0.388056
0.227036
0.0575141
0.00634143
0.000359831
1.04856e-05
2.26475e-09
3.00008e-14
8.93824e-20
1.66728e-28
8.16568e-38
9.0487e-46
2.82201e-52
5.75376e-59
5.14669e-69
8.46521e-72
1.00613e-74
1.14651e-77
5.74153e-81
1.29821e-84
2.11671e-88
2.06821e-92
1.0602e-97
9.50827e-103
2.29484e-110
9.54986e-116
4.56603e-114
4.93687e-113
1.99155e-112
0.999997
0.999999
0.999997
0.999999
1
1
0.999796
0.924127
0.56637
0.382181
0.360121
0.20328
0.0504174
0.00545864
0.000309703
9.65791e-06
1.42356e-09
9.86533e-14
9.71204e-20
2.41997e-28
8.53747e-38
9.67071e-46
2.95288e-52
6.22736e-59
5.52003e-69
9.19123e-72
1.07338e-74
1.24448e-77
6.22622e-81
1.43965e-84
2.32195e-88
2.33346e-92
1.2736e-97
9.46161e-103
2.51573e-110
4.19375e-116
1.37996e-114
1.26612e-113
5.30241e-113
0.999996
0.999998
0.999997
0.999998
1
1
0.999766
0.929979
0.565038
0.36535
0.333581
0.181312
0.0438204
0.00465871
0.000264639
8.70647e-06
7.43101e-10
9.40411e-14
1.04535e-19
2.48064e-28
8.91766e-38
1.03581e-45
3.09768e-52
6.75759e-59
5.95305e-69
1.00516e-71
1.15714e-74
1.35873e-77
6.82794e-81
1.61379e-84
2.55949e-88
2.5988e-92
1.47684e-97
9.09275e-103
2.73368e-110
1.76388e-116
4.52068e-115
3.50318e-114
1.28025e-113
0.999996
0.999998
0.999997
0.999998
1
1
0.99984
0.9365
0.5645
0.349099
0.30838
0.161031
0.0377129
0.00393656
0.000224358
7.70827e-06
4.42825e-10
8.94526e-14
1.11557e-19
2.56119e-28
9.32898e-38
1.11203e-45
3.25903e-52
7.35299e-59
6.45663e-69
1.10724e-71
1.26138e-74
1.49275e-77
7.57786e-81
1.82893e-84
2.84034e-88
2.86381e-92
1.65971e-97
8.43698e-103
2.99057e-110
7.34899e-117
1.37286e-115
9.79599e-115
3.26924e-114
0.999994
0.999997
0.999997
0.999998
1
1
0.999914
0.938122
0.564092
0.333416
0.284489
0.142225
0.0321005
0.00329101
0.000188763
6.73399e-06
3.30463e-10
8.49132e-14
1.18109e-19
2.64894e-28
9.77391e-38
1.19701e-45
3.44038e-52
8.02439e-59
7.04444e-69
1.22864e-71
1.39125e-74
1.651e-77
8.5168e-81
2.09585e-84
3.18016e-88
3.13164e-92
1.81598e-97
7.70579e-103
3.37002e-110
3.84331e-117
3.84227e-116
2.60587e-115
8.11266e-115
0.999994
0.999997
0.999997
0.999997
1
1
0.999986
0.941822
0.562243
0.318011
0.261602
0.124683
0.0269966
0.00272271
0.000157797
5.83024e-06
4.75551e-10
8.04251e-14
1.24187e-19
2.7402e-28
1.02626e-37
1.29243e-45
3.64626e-52
8.78561e-59
7.73384e-69
1.3735e-71
1.55352e-74
1.83923e-77
9.69872e-81
2.42862e-84
3.60135e-88
3.41024e-92
1.94467e-97
7.10673e-103
4.0472e-110
2.98078e-117
9.77118e-117
6.6892e-116
1.91059e-115
0.999991
0.999996
0.999996
0.999998
1
1
1
0.941974
0.556955
0.302033
0.239557
0.108271
0.0224242
0.00223231
0.000131337
5.02099e-06
6.54219e-10
7.60591e-14
1.29838e-19
2.84126e-28
1.08075e-37
1.40049e-45
3.88256e-52
9.65427e-59
8.54697e-69
1.5471e-71
1.75708e-74
2.06491e-77
1.11953e-80
2.84579e-84
4.13618e-88
3.71418e-92
2.0506e-97
6.76979e-103
5.37916e-110
2.96712e-117
2.17929e-117
1.67599e-116
4.37026e-116
0.999992
0.999996
0.999996
0.999997
1
1
1
0.938375
0.54582
0.284775
0.218407
0.0929966
0.0184095
0.00181866
0.000109131
4.31994e-06
7.06312e-10
7.18858e-14
1.35154e-19
2.95435e-28
1.14244e-37
1.52405e-45
4.1569e-52
1.0653e-58
9.51222e-69
1.75618e-71
2.01371e-74
2.33781e-77
1.31026e-80
3.37198e-84
4.83163e-88
4.06807e-92
2.14459e-97
6.66585e-103
8.01565e-110
5.72329e-117
5.33724e-118
3.9234e-117
9.84312e-117
0.999991
0.999996
0.999996
0.999998
1
1
1
0.934235
0.527699
0.266114
0.198049
0.0789135
0.0149722
0.00147794
9.0869e-05
3.70761e-06
7.66747e-10
6.79741e-14
1.4028e-19
3.0843e-28
1.21343e-37
1.66677e-45
4.47909e-52
1.18105e-58
1.06664e-68
2.00942e-71
2.33913e-74
2.67088e-77
1.55498e-80
4.04011e-84
5.75667e-88
4.51314e-92
2.24475e-97
7.08898e-103
1.29448e-109
1.21734e-116
1.2145e-118
8.83095e-118
2.18783e-117
0.999992
0.999996
0.999995
0.999999
1
1
1
0.92675
0.502821
0.246342
0.178525
0.0661605
0.0121146
0.00120331
7.61109e-05
3.16519e-06
8.35698e-10
6.43879e-14
1.454e-19
3.23651e-28
1.29632e-37
1.83336e-45
4.86177e-52
1.31636e-58
1.20565e-68
2.31803e-71
2.75435e-74
3.0814e-77
1.87119e-80
4.89466e-84
7.01327e-88
5.11988e-92
2.3835e-97
1.28779e-102
2.13671e-109
1.91941e-116
2.6506e-119
1.90978e-118
4.76999e-118
0.999993
0.999996
0.999995
1
1
1
1
0.91678
0.471864
0.226092
0.159983
0.0549052
0.00980824
0.000987443
6.39547e-05
2.70547e-06
9.14258e-10
6.11833e-14
1.50735e-19
3.41777e-28
1.39437e-37
2.02982e-45
5.32119e-52
1.47592e-58
1.37442e-68
2.69661e-71
3.28765e-74
3.59269e-77
2.28273e-80
5.99617e-84
8.75286e-88
6.01245e-92
2.62966e-97
3.53916e-102
3.44135e-109
2.58199e-116
5.85678e-120
3.98353e-119
1.03708e-118
0.999992
0.999996
0.999995
1
1
1
1
0.90383
0.436621
0.20619
0.142609
0.0452918
0.00799631
0.000818062
5.38443e-05
2.32413e-06
1.00452e-09
5.84031e-14
1.56528e-19
3.63624e-28
1.51166e-37
2.26374e-45
5.87831e-52
1.66571e-58
1.58098e-68
3.16422e-71
3.97722e-74
4.23658e-77
2.82222e-80
7.42788e-84
1.12007e-87
7.41432e-92
3.14617e-97
8.66825e-102
5.29054e-109
3.10187e-116
1.53643e-120
7.70531e-120
2.30001e-119
0.999993
0.999996
0.999994
1
1
1
1
0.888228
0.399359
0.187349
0.126579
0.0373625
0.00660934
0.000683013
4.57039e-05
2.01196e-06
1.10915e-09
5.60697e-14
1.63041e-19
3.90178e-28
1.65325e-37
2.54476e-45
6.5603e-52
1.89334e-58
1.83582e-68
3.74584e-71
4.87481e-74
5.05697e-77
3.53453e-80
9.30531e-84
1.4691e-87
9.72939e-92
4.32603e-97
1.73133e-101
7.73929e-109
3.50324e-116
6.0894e-121
1.25494e-120
4.71074e-120
0.999993
0.999997
0.999995
1
1
1
1
0.870468
0.362494
0.170025
0.111999
0.031116
0.00553166
0.000575965
3.9242e-05
1.75988e-06
1.23141e-09
5.41952e-14
1.70538e-19
0.999993
0.999997
0.999995
1
1
1
1
0.851437
0.328184
0.154419
0.0989678
0.0263313
0.00468369
0.000492484
3.41534e-05
1.55879e-06
1.37521e-09
0.0876089
0.0226793
1.00001
1.00001
1
0.999998
0.999989
0.999877
0.996343
0.951584
0.841916
0.837307
0.907297
0.964249
0.923593
0.588539
0.132636
0.00542473
2.33447e-05
7.11313e-09
4.62873e-13
9.54159e-16
1.66299e-18
2.39657e-21
2.76502e-24
2.43402e-27
1.51166e-30
5.69806e-34
8.5031e-38
1.10707e-55
-5.45194e-61
2.31712e-86
2.02573e-82
5.66844e-79
7.43205e-76
8.49985e-73
8.86479e-70
8.74076e-67
8.41385e-64
4.28806e-61
5.99464e-51
1.00001
1.00001
1
0.999999
0.999989
0.999879
0.99664
0.953311
0.832595
0.822038
0.895452
0.96141
0.899838
0.539256
0.109759
0.00384945
1.03365e-05
1.37894e-09
3.50451e-13
7.48592e-16
1.34e-18
1.96779e-21
2.29518e-24
2.02359e-27
1.24207e-30
4.50992e-34
5.88644e-38
1.15036e-53
-1.67806e-61
6.70313e-85
2.13186e-87
5.60705e-93
-1.25882e-93
1.17266e-88
-2.89611e-87
-2.541e-84
-2.99873e-81
7.18642e-77
1.9647e-58
1.00001
1
1
0.999999
0.99999
0.999884
0.996791
0.953379
0.827543
0.813312
0.889441
0.948783
0.882514
0.506921
0.0963708
0.00305666
6.01266e-06
7.78782e-10
2.80116e-13
6.11277e-16
1.11337e-18
1.65556e-21
1.94289e-24
1.70773e-27
1.02893e-30
3.54511e-34
3.76013e-38
-5.1375e-54
7.45504e-63
6.97375e-85
7.90056e-89
5.74339e-93
1.19373e-94
3.16785e-93
3.34654e-90
3.36856e-87
8.09296e-85
3.24736e-82
2.46815e-75
1.00001
1
1
1
0.99999
0.99989
0.996949
0.952367
0.821083
0.802733
0.882675
0.941751
0.859582
0.467147
0.0813865
0.00226231
2.75088e-06
2.88572e-10
2.22699e-13
4.96003e-16
9.14609e-19
1.36532e-21
1.59227e-24
1.37086e-27
7.89063e-31
2.4473e-34
1.61031e-38
-6.17406e-55
-8.65716e-67
6.7172e-85
7.75996e-89
6.02686e-93
1.181e-97
8.77563e-95
7.47761e-92
6.02395e-89
4.70771e-86
1.95373e-83
3.91865e-77
1.00001
1
1
1
0.999991
0.999894
0.997078
0.951588
0.814406
0.792078
0.876156
0.932197
0.833025
0.425549
0.0674164
0.00162178
1.09956e-06
6.32367e-11
1.63774e-13
3.67271e-16
6.8037e-19
1.01269e-21
1.16284e-24
9.6568e-28
5.15586e-31
1.33246e-34
1.07649e-39
-1.71576e-48
3.34105e-81
6.77018e-85
7.59103e-89
6.06691e-93
2.41391e-98
1.67467e-103
1.83922e-109
6.47628e-102
1.43787e-98
-1.78135e-93
1.71522e-80
1.00001
1
1
1
0.999991
0.999901
0.997173
0.950424
0.807193
0.780881
0.869494
0.921466
0.801974
0.381891
0.0545186
0.00111641
4.25059e-07
4.74876e-11
-5.65562e-13
-2.66248e-15
-6.31378e-18
-1.10567e-20
-1.50232e-23
-1.55963e-26
-1.16953e-29
-5.61528e-33
-1.23474e-36
-7.81325e-44
3.4017e-81
6.79837e-85
7.42291e-89
6.07055e-93
2.6292e-98
1.70924e-103
1.05518e-108
6.72406e-108
2.68609e-105
-3.40569e-101
1.61734e-100
1.00001
1
1
1
0.999992
0.999909
0.997255
0.949197
0.799642
0.769242
0.862568
0.908929
0.766414
0.337449
0.0430841
0.000740303
2.28412e-07
3.48652e-11
-4.86774e-13
-1.94134e-15
-4.54812e-18
-7.96082e-21
-1.07554e-23
-1.09383e-26
-7.80245e-30
-3.32972e-33
-4.82823e-37
-1.70454e-46
3.44541e-81
6.83041e-85
7.25506e-89
6.00829e-93
2.99327e-98
2.32918e-103
3.27435e-110
1.53403e-107
8.79825e-105
-3.84005e-102
5.32512e-96
1.00001
1.00001
1
1
0.999992
0.999916
0.997319
0.947802
0.791681
0.757129
0.855243
0.894514
0.726422
0.29345
0.0333322
0.000475183
1.42897e-07
2.46408e-11
-3.87564e-13
-1.44535e-15
-3.34654e-18
-5.7876e-21
-7.62558e-24
-7.39057e-27
-4.81098e-30
-1.67696e-33
-6.86473e-38
-5.37445e-51
3.48272e-81
6.8603e-85
7.10035e-89
5.83828e-93
3.14615e-98
2.5334e-103
8.28231e-111
4.53807e-110
1.20575e-108
-1.83804e-106
2.14228e-99
1.00001
1
1
1
0.999993
0.999921
0.997377
0.946284
0.783328
0.744548
0.847368
0.878065
0.682329
0.251114
0.0253133
0.000297502
8.65992e-08
1.66124e-11
-2.84531e-13
-1.00933e-15
-2.30489e-18
-3.9096e-21
-4.95838e-24
-4.47671e-27
-2.5428e-30
-6.28138e-34
-2.40731e-41
5.98638e-78
3.52237e-81
6.88936e-85
6.9673e-89
5.58568e-93
3.22083e-98
2.6157e-103
9.84416e-111
2.10871e-109
1.19736e-108
1.4478e-108
2.76252e-106
1.00001
1.00001
1
1
0.999994
0.999926
0.997409
0.944607
0.774515
0.731504
0.838796
0.859517
0.634738
0.211586
0.0189542
0.000183901
5.12691e-08
5.71745e-12
-1.95632e-13
-6.68995e-16
-1.49689e-18
-2.46122e-21
-2.95483e-24
-2.41597e-27
-1.12321e-30
-1.37675e-34
-3.83183e-44
5.93124e-78
3.5594e-81
6.91775e-85
6.8648e-89
5.28241e-93
3.23492e-98
2.62767e-103
8.57806e-111
1.53053e-109
9.95194e-109
1.96465e-108
5.43892e-108
1.00001
1
1
1
0.999995
0.99993
0.997443
0.942763
0.765204
0.718011
0.829332
0.838893
0.584485
0.175768
0.014073
0.000114106
3.00994e-08
-3.17315e-12
-1.54612e-13
-5.03403e-16
-1.0541e-18
-1.61307e-21
-1.7616e-24
-1.23839e-27
-4.17745e-31
-6.38375e-38
-4.62289e-50
5.88791e-78
3.59513e-81
6.94623e-85
6.79954e-89
4.95311e-93
3.21974e-98
2.59076e-103
7.77141e-111
1.1369e-109
8.04354e-109
1.37862e-108
1.1039e-108
1.00001
1
1
1
0.999996
0.999933
0.997452
0.940731
0.755343
0.704085
0.81873
0.816187
0.53271
0.14426
0.0104313
7.25009e-05
1.78858e-08
-4.47742e-12
-9.81838e-14
-2.96973e-16
-5.91569e-19
-8.43427e-22
-8.2157e-25
-4.67707e-28
-8.6253e-32
-2.57936e-39
8.65768e-75
5.85653e-78
3.62913e-81
6.97595e-85
6.77132e-89
4.61928e-93
3.13622e-98
2.43591e-103
7.13129e-111
7.76452e-110
6.24982e-109
1.15361e-108
8.34462e-109
1.00001
1
1
1
0.999996
0.999935
0.997456
0.938496
0.744906
0.689744
0.806955
0.790953
0.480954
0.117307
0.00777337
4.81143e-05
1.09849e-08
-4.10624e-12
-6.09889e-14
-1.70163e-16
-3.14064e-19
-4.03425e-22
-3.32835e-25
-1.35741e-28
-1.75572e-34
-6.06778e-43
8.6701e-75
5.85272e-78
3.66175e-81
7.00849e-85
6.76664e-89
4.30074e-93
2.98128e-98
2.18076e-103
6.6211e-111
5.13845e-110
4.77075e-109
9.20232e-109
7.34968e-109
1.00001
1
1
1
0.999997
0.999936
0.997433
0.936044
0.733883
0.675003
0.79415
0.762847
0.430458
0.094821
0.0058612
3.38389e-05
7.09875e-09
-3.48908e-12
-3.77988e-14
-9.55567e-17
-1.59172e-19
-1.77181e-22
-1.14879e-25
-2.50598e-29
-1.59178e-36
-4.52123e-51
8.09745e-75
5.88196e-78
3.69343e-81
7.0459e-85
6.86227e-89
4.01569e-93
2.77735e-98
1.88128e-103
6.1306e-111
3.16232e-110
3.55537e-109
7.40213e-109
6.4417e-109
1.00001
1
1
1
0.999997
0.999938
0.997401
0.933367
0.722289
0.659874
0.780044
0.732137
0.382279
0.0764585
0.00449309
2.53652e-05
4.87076e-09
-2.90868e-12
-2.34122e-14
-5.26851e-17
-7.68191e-20
-7.03346e-23
-3.14098e-26
-2.17962e-32
-3.45635e-39
5.55574e-72
8.35011e-75
5.94175e-78
3.72489e-81
7.09073e-85
7.05903e-89
3.78065e-93
2.54657e-98
1.58132e-103
5.6144e-111
1.79126e-110
2.55309e-109
5.90989e-109
5.65622e-109
1.00001
1
1
0.999999
0.999997
0.999938
0.997349
0.930468
0.71017
0.644365
0.764433
0.69911
0.337308
0.0617223
0.00351061
2.02108e-05
3.54553e-09
-2.65737e-12
-1.50535e-14
-2.94285e-17
-3.58502e-20
-2.47982e-23
-5.41174e-27
-3.52053e-34
-3.32666e-49
5.48219e-72
8.22126e-75
6.01497e-78
3.75709e-81
7.14604e-85
7.30157e-89
3.60938e-93
2.30857e-98
1.311e-103
5.07194e-111
9.11615e-111
1.73939e-109
4.69251e-109
4.89053e-109
1.00001
1
1
0.999999
0.999997
0.999938
0.997283
0.927369
0.697613
0.628483
0.747114
0.664142
0.296154
0.0500441
0.00279658
1.69932e-05
2.71729e-09
-2.09275e-12
-9.22482e-15
-1.52583e-17
-1.48512e-20
-6.70045e-24
-2.4103e-30
-8.25727e-36
3.28354e-69
5.41412e-72
8.14976e-75
6.11908e-78
3.7913e-81
7.21548e-85
7.62971e-89
3.5092e-93
2.08116e-98
1.09073e-103
4.55119e-111
4.11155e-111
1.10117e-109
3.65689e-109
4.16547e-109
1.00001
1
1
0.999999
0.999997
0.999937
0.997211
0.924127
0.684744
0.612237
0.727903
0.62771
0.259157
0.040858
0.00226821
1.49511e-05
2.17182e-09
-1.56312e-12
-5.55472e-15
-7.52586e-18
-5.37495e-21
-1.03008e-24
-2.04692e-31
-1.44841e-48
3.30372e-69
5.40111e-72
8.08377e-75
6.25217e-78
3.82905e-81
7.30331e-85
8.0539e-89
3.47249e-93
1.88024e-98
9.32473e-104
4.13562e-111
1.64461e-111
6.43025e-110
2.73244e-109
3.51034e-109
1.00001
1
1
0.999999
0.999997
0.999936
0.997122
0.920815
0.671732
0.595636
0.70667
0.590331
0.226401
0.0336492
0.00186888
1.36577e-05
1.78933e-09
-1.13904e-12
-3.28314e-15
-3.47459e-18
-1.54595e-21
-2.78913e-28
-5.19524e-33
2.93192e-59
3.34485e-69
5.39959e-72
8.03474e-75
6.41551e-78
3.87216e-81
7.41453e-85
8.5698e-89
3.47147e-93
1.7195e-98
8.38993e-104
3.94569e-111
5.26335e-112
3.35461e-110
1.92539e-109
2.88606e-109
1.00001
1
1
1
0.999997
0.999936
0.997072
0.917591
0.658771
0.578695
0.683365
0.552532
0.197766
0.0279799
0.00156052
1.28611e-05
1.64038e-09
-8.15083e-13
-1.90255e-15
-1.46217e-18
-2.48625e-22
-3.05647e-29
-2.39415e-35
3.02997e-59
3.39214e-69
5.45401e-72
8.00507e-75
6.61272e-78
3.92284e-81
7.55493e-85
9.18238e-89
3.67626e-93
1.60912e-98
8.0053e-104
3.88721e-111
1.21682e-112
1.49076e-110
1.24286e-109
2.26869e-109
1.00001
1
1
1
0.999997
0.999936
0.996995
0.914479
0.646071
0.561434
0.658036
0.514809
0.172982
0.0234946
0.00131758
1.24011e-05
2.52418e-09
-6.00734e-13
-1.09331e-15
-5.2991e-19
-3.29234e-25
-3.06988e-30
2.02352e-52
3.2468e-59
3.45851e-69
5.54047e-72
7.99392e-75
6.84617e-78
3.98363e-81
7.73131e-85
9.89378e-89
4.22877e-93
1.55171e-98
7.92432e-104
3.92423e-111
1.68411e-113
5.18898e-111
6.99868e-110
1.66923e-109
1.00001
1
1
1
0.999997
0.999938
0.996978
0.911888
0.633821
0.54388
0.630839
0.477599
0.151682
0.0199143
0.00112274
1.21671e-05
3.59242e-09
-4.36177e-13
-6.06738e-16
-1.27553e-19
-9.16166e-26
-1.41023e-31
2.14612e-52
3.39425e-59
3.54353e-69
5.64968e-72
8.01366e-75
7.11929e-78
4.05755e-81
7.95164e-85
1.07039e-88
5.01297e-93
1.53477e-98
8.71371e-104
4.46953e-111
2.46578e-114
1.2128e-111
3.11035e-110
1.12838e-109
1.00001
1
1
1
0.999998
0.999951
0.996972
0.909301
0.622213
0.526073
0.602032
0.441261
0.133446
0.0170245
0.00096397
1.20718e-05
4.15491e-09
-3.11466e-13
-3.1485e-16
-2.02157e-22
-1.92622e-26
-3.85567e-33
2.13738e-52
3.58526e-59
3.64765e-69
5.80265e-72
8.07041e-75
7.43615e-78
4.14813e-81
8.22539e-85
1.1613e-88
6.02801e-93
1.55833e-98
1.37274e-103
5.57672e-111
1.17897e-114
1.56438e-112
9.3452e-111
6.44251e-110
1
1
1
1
0.999998
0.999969
0.997013
0.908175
0.611361
0.508067
0.571952
0.406078
0.117837
0.0146619
0.000832702
1.20423e-05
4.39472e-09
-2.19857e-13
-1.42114e-16
-6.5356e-23
-3.02311e-27
6.18772e-46
2.25312e-52
3.79659e-59
3.77356e-69
5.9993e-72
8.16505e-75
7.8016e-78
4.25956e-81
8.56384e-85
1.26215e-88
7.34498e-93
1.84403e-98
2.50615e-103
7.17847e-111
1.02965e-114
1.69314e-113
1.46057e-111
2.27945e-110
1
1
1
1
0.999999
0.999981
0.997199
0.906379
0.601546
0.489921
0.540997
0.372256
0.104422
0.0127025
0.000722654
1.20198e-05
4.45276e-09
-1.53391e-13
-4.34888e-17
-1.71331e-23
-3.21758e-28
6.74555e-46
2.32004e-52
4.03716e-59
3.92346e-69
6.24337e-72
8.30603e-75
8.22163e-78
4.39686e-81
8.98063e-85
1.37311e-88
8.98628e-93
2.53051e-98
4.10679e-103
9.34933e-111
9.68787e-115
1.00079e-113
1.48539e-112
2.10692e-111
1
1
0.999999
1
1
0.99999
0.997663
0.906014
0.59266
0.471762
0.509631
0.339916
0.0927918
0.0110521
0.000629111
1.19617e-05
4.40752e-09
-1.00599e-13
5.1271e-20
-3.50879e-24
-1.46303e-29
7.04374e-46
2.40535e-52
4.30757e-59
4.0999e-69
6.54271e-72
8.50155e-75
8.70358e-78
4.5661e-81
9.49235e-85
1.49463e-88
1.09244e-92
3.54919e-98
5.87609e-103
1.19915e-110
7.8738e-115
7.28597e-114
4.2829e-113
2.68722e-112
1
1
0.999999
1
1
0.999997
0.998184
0.905943
0.584849
0.453557
0.478304
0.309138
0.0825741
0.00963862
0.000548472
1.1833e-05
4.1665e-09
-6.02099e-14
6.66935e-20
-5.30704e-25
-1.17713e-31
7.2741e-46
2.49534e-52
4.61102e-59
4.30627e-69
6.90444e-72
8.76143e-75
9.25649e-78
4.77467e-81
1.01194e-84
1.6276e-88
1.31165e-92
4.8854e-98
7.51231e-103
1.48785e-110
3.93876e-115
4.23448e-114
1.64402e-113
5.95076e-113
1
1
0.999998
1
1
0.999998
0.998736
0.908784
0.578149
0.43538
0.447436
0.279998
0.0734476
0.00840748
0.00047799
1.15736e-05
3.73468e-09
-3.37919e-14
7.33333e-20
-5.39212e-26
7.3064e-38