/*--------------------------------*- C++ -*----------------------------------*\
| =========                 |                                                 |
| \\      /  F ield         | OpenFOAM: The Open Source CFD Toolbox           |
|  \\    /   O peration     | Version:  v2012                                 |
|   \\  /    A nd           | Website:  www.openfoam.com                      |
|    \\/     M anipulation  |                                                 |
\*---------------------------------------------------------------------------*/
FoamFile
{
    version     2.0;
    format      ascii;
    class       volVectorField;
    location    "0.65";
    object      U;
}
// * * * * * * * * * * * * * * * * * * * * * * * * * * * * * * * * * * * * * //

dimensions      [0 1 -1 0 0 0 0];


internalField   nonuniform List<vector> 
2625
(
(5.93149e-06 -0.00398803 -5.19455e-08)
(1.59418e-05 -0.00409466 -1.39214e-07)
(2.56506e-05 -0.00417054 -2.24521e-07)
(3.82915e-05 -0.00423769 -3.35322e-07)
(4.95412e-05 -0.00428454 -4.33386e-07)
(6.41871e-05 -0.00432415 -5.59766e-07)
(7.74882e-05 -0.00436092 -6.77781e-07)
(9.24871e-05 -0.00438304 -8.10904e-07)
(0.000110516 -0.0044102 -9.65279e-07)
(0.000127099 -0.00442329 -1.108e-06)
(0.000142827 -0.00443716 -1.24706e-06)
(0.000158802 -0.00444296 -1.38636e-06)
(0.000175882 -0.00444736 -1.53502e-06)
(0.000194426 -0.004445 -1.69709e-06)
(0.000213524 -0.00444014 -1.86364e-06)
(0.000233584 -0.00442978 -2.03861e-06)
(0.000253989 -0.00441569 -2.2168e-06)
(0.000274902 -0.00439653 -2.3993e-06)
(0.000295947 -0.00437286 -2.58306e-06)
(0.000317134 -0.00434416 -2.768e-06)
(0.000338251 -0.00431056 -2.95235e-06)
(0.00035919 -0.00427177 -3.13513e-06)
(0.000379778 -0.00422775 -3.31485e-06)
(0.000399878 -0.00417831 -3.49029e-06)
(0.00041933 -0.00412336 -3.66008e-06)
(0.000437984 -0.00406279 -3.8229e-06)
(0.000455678 -0.00399651 -3.97735e-06)
(0.000472249 -0.00392446 -4.12198e-06)
(0.000487528 -0.00384661 -4.25534e-06)
(0.000501346 -0.00376297 -4.37596e-06)
(0.00051353 -0.00367359 -4.48231e-06)
(0.000523914 -0.00357856 -4.57294e-06)
(0.000532332 -0.00347803 -4.64644e-06)
(0.000538638 -0.00337219 -4.70149e-06)
(0.000542688 -0.00326127 -4.73686e-06)
(0.000544344 -0.00314555 -4.75134e-06)
(5.83415e-06 -0.00405959 -5.12722e-08)
(2.38943e-05 -0.00416996 -2.09327e-07)
(2.80176e-05 -0.00424689 -2.43064e-07)
(5.10592e-05 -0.00431564 -4.45541e-07)
(5.51886e-05 -0.00436311 -4.84356e-07)
(7.92853e-05 -0.00440261 -6.92215e-07)
(8.67254e-05 -0.00444091 -7.56276e-07)
(0.000108629 -0.00446287 -9.49562e-07)
(0.000120755 -0.00448792 -1.05491e-06)
(0.000141789 -0.00449951 -1.23812e-06)
(0.000157373 -0.00451424 -1.37374e-06)
(0.000175243 -0.00451955 -1.53021e-06)
(0.000192407 -0.00452237 -1.67987e-06)
(0.000211295 -0.00451934 -1.84424e-06)
(0.000229579 -0.0045134 -2.00381e-06)
(0.000249243 -0.00450198 -2.17535e-06)
(0.000268593 -0.00448652 -2.3442e-06)
(0.000288681 -0.00446576 -2.51962e-06)
(0.000308694 -0.00444034 -2.69433e-06)
(0.000328996 -0.00440962 -2.87159e-06)
(0.000349166 -0.00437382 -3.04765e-06)
(0.000369303 -0.00433264 -3.22344e-06)
(0.00038914 -0.00428608 -3.39659e-06)
(0.000408588 -0.00423398 -3.56634e-06)
(0.000427448 -0.00417624 -3.73095e-06)
(0.000445572 -0.00411278 -3.88913e-06)
(0.000462784 -0.00404353 -4.03935e-06)
(0.000478914 -0.00396845 -4.18012e-06)
(0.000493785 -0.00388751 -4.30991e-06)
(0.000507221 -0.00380074 -4.42718e-06)
(0.000519046 -0.00370821 -4.53038e-06)
(0.000529084 -0.00361003 -4.61798e-06)
(0.000537169 -0.00350635 -4.68855e-06)
(0.000543153 -0.0033974 -4.74078e-06)
(0.000546896 -0.00328341 -4.77346e-06)
(0.000548252 -0.0031647 -4.78531e-06)
(5.02383e-06 -0.00408079 -4.41197e-08)
(2.52105e-05 -0.00418756 -2.20473e-07)
(2.43006e-05 -0.00426581 -2.14576e-07)
(5.41957e-05 -0.00433208 -4.76381e-07)
(5.13564e-05 -0.00437893 -4.44277e-07)
(8.0687e-05 -0.00442086 -7.05336e-07)
(8.39847e-05 -0.0044579 -7.34678e-07)
(0.00010772 -0.00448383 -9.38462e-07)
(0.000117211 -0.00450911 -1.02417e-06)
(0.000137932 -0.00452412 -1.2048e-06)
(0.000153298 -0.00453968 -1.33895e-06)
(0.000174946 -0.00454675 -1.5274e-06)
(0.000193135 -0.00455006 -1.6861e-06)
(0.000211921 -0.00454811 -1.84999e-06)
(0.000231152 -0.00454273 -2.01743e-06)
(0.000251857 -0.00453217 -2.19809e-06)
(0.000272267 -0.00451733 -2.37629e-06)
(0.000293266 -0.00449729 -2.55959e-06)
(0.000314066 -0.00447238 -2.74126e-06)
(0.000335033 -0.00444215 -2.92432e-06)
(0.000355736 -0.00440662 -3.10507e-06)
(0.000376287 -0.00436556 -3.28447e-06)
(0.00039644 -0.00431892 -3.46039e-06)
(0.000416125 -0.00426654 -3.63221e-06)
(0.000435154 -0.00420833 -3.79829e-06)
(0.000453391 -0.0041442 -3.95746e-06)
(0.000470664 -0.00407408 -4.1082e-06)
(0.000486809 -0.00399794 -4.2491e-06)
(0.000501649 -0.00391577 -4.37862e-06)
(0.000515013 -0.0038276 -4.49526e-06)
(0.000526723 -0.00373351 -4.59745e-06)
(0.000536605 -0.00363362 -4.68368e-06)
(0.000544492 -0.00352811 -4.75252e-06)
(0.000550241 -0.00341721 -4.8027e-06)
(0.000553718 -0.0033012 -4.83305e-06)
(0.000554777 -0.0031804 -4.84231e-06)
(6.52957e-06 -0.00415104 -5.71965e-08)
(2.8227e-05 -0.00425802 -2.46617e-07)
(2.97498e-05 -0.00434111 -2.61081e-07)
(6.03081e-05 -0.00440411 -5.28896e-07)
(5.91767e-05 -0.00445418 -5.13755e-07)
(9.04686e-05 -0.00449634 -7.92216e-07)
(9.39309e-05 -0.00452747 -8.21779e-07)
(0.000121276 -0.00455348 -1.05779e-06)
(0.000131538 -0.00457444 -1.14845e-06)
(0.000154395 -0.00458906 -1.34815e-06)
(0.000169057 -0.00460147 -1.47595e-06)
(0.000191373 -0.00460796 -1.67114e-06)
(0.000209222 -0.00461045 -1.82653e-06)
(0.000227675 -0.00460755 -1.98744e-06)
(0.000246178 -0.00460064 -2.14864e-06)
(0.000266498 -0.00458848 -2.32593e-06)
(0.000286253 -0.00457193 -2.4983e-06)
(0.00030686 -0.00455007 -2.67829e-06)
(0.000327162 -0.00452335 -2.85556e-06)
(0.000347809 -0.00449123 -3.03588e-06)
(0.000368169 -0.00445383 -3.21364e-06)
(0.000388481 -0.00441086 -3.39097e-06)
(0.000408413 -0.00436229 -3.56495e-06)
(0.000427931 -0.00430795 -3.7353e-06)
(0.000446816 -0.00424775 -3.90012e-06)
(0.000464924 -0.00418158 -4.05815e-06)
(0.00048207 -0.00410939 -4.20778e-06)
(0.000498079 -0.00403113 -4.34748e-06)
(0.000512767 -0.00394681 -4.47566e-06)
(0.000525955 -0.00385645 -4.59076e-06)
(0.00053746 -0.00376014 -4.69116e-06)
(0.000547101 -0.003658 -4.77529e-06)
(0.000554709 -0.00355023 -4.84169e-06)
(0.000560136 -0.00343704 -4.88906e-06)
(0.000563251 -0.00331875 -4.91626e-06)
(0.00056391 -0.0031957 -4.92202e-06)
(7.18224e-06 -0.00418685 -6.29884e-08)
(2.67526e-05 -0.00429159 -2.33963e-07)
(2.91984e-05 -0.00437444 -2.56018e-07)
(5.9031e-05 -0.00443325 -5.17198e-07)
(5.66885e-05 -0.00448598 -4.92377e-07)
(8.91069e-05 -0.00452713 -7.79579e-07)
(9.19731e-05 -0.004561 -8.0413e-07)
(0.000119154 -0.00459195 -1.04124e-06)
(0.000130091 -0.00461301 -1.13495e-06)
(0.000153207 -0.00463111 -1.33638e-06)
(0.00016911 -0.00464309 -1.47742e-06)
(0.000192681 -0.00465064 -1.68173e-06)
(0.00021247 -0.0046527 -1.85525e-06)
(0.000232017 -0.0046506 -2.02525e-06)
(0.000252139 -0.00464353 -2.20079e-06)
(0.000273681 -0.00463174 -2.38858e-06)
(0.000294672 -0.0046151 -2.57188e-06)
(0.000316368 -0.00459323 -2.76129e-06)
(0.000337581 -0.00456622 -2.94659e-06)
(0.000359029 -0.00453373 -3.13387e-06)
(0.00038003 -0.00449572 -3.31725e-06)
(0.000400874 -0.004452 -3.49922e-06)
(0.000421218 -0.00440246 -3.67679e-06)
(0.000441064 -0.00434698 -3.85e-06)
(0.00046019 -0.00428546 -4.01692e-06)
(0.000478472 -0.00421781 -4.17646e-06)
(0.00049572 -0.00414398 -4.32697e-06)
(0.000511767 -0.00406394 -4.467e-06)
(0.000526427 -0.00397771 -4.59492e-06)
(0.000539522 -0.00388533 -4.7092e-06)
(0.000550869 -0.00378691 -4.80821e-06)
(0.000560287 -0.00368259 -4.89039e-06)
(0.000567605 -0.00357257 -4.95426e-06)
(0.000572676 -0.0034571 -4.99852e-06)
(0.000575368 -0.0033365 -5.02203e-06)
(0.000575547 -0.00321113 -5.0236e-06)
(7.93414e-06 -0.00425437 -6.95831e-08)
(2.87299e-05 -0.00435754 -2.51188e-07)
(3.43963e-05 -0.00444691 -3.01731e-07)
(6.84803e-05 -0.00450067 -5.99767e-07)
(6.96936e-05 -0.00455533 -6.01782e-07)
(0.000105249 -0.00459884 -9.16416e-07)
(0.000110986 -0.0046228 -9.66572e-07)
(0.000137641 -0.00465686 -1.20091e-06)
(0.00015004 -0.0046708 -1.31212e-06)
(0.000171198 -0.00469096 -1.49117e-06)
(0.000187224 -0.00470094 -1.63427e-06)
(0.000209197 -0.00470912 -1.82702e-06)
(0.000228777 -0.00470945 -1.99668e-06)
(0.000247269 -0.0047069 -2.15892e-06)
(0.000267364 -0.00469837 -2.33348e-06)
(0.000288433 -0.00468534 -2.5175e-06)
(0.000309427 -0.00466724 -2.70064e-06)
(0.000331089 -0.00464391 -2.88986e-06)
(0.000352386 -0.00461542 -3.07583e-06)
(0.000373994 -0.00458143 -3.26455e-06)
(0.000395196 -0.0045419 -3.44966e-06)
(0.000416264 -0.00449659 -3.63359e-06)
(0.000436832 -0.00444543 -3.81311e-06)
(0.00045689 -0.00438825 -3.98818e-06)
(0.000476208 -0.00432496 -4.15675e-06)
(0.000494638 -0.00425546 -4.31758e-06)
(0.000511989 -0.0041797 -4.46899e-06)
(0.000528079 -0.00409764 -4.60938e-06)
(0.000542719 -0.00400932 -4.73714e-06)
(0.000555724 -0.00391477 -4.85062e-06)
(0.000566907 -0.00381412 -4.9482e-06)
(0.000576083 -0.00370751 -5.02827e-06)
(0.000583081 -0.00359515 -5.08934e-06)
(0.00058775 -0.00347732 -5.13009e-06)
(0.000589958 -0.00335434 -5.14937e-06)
(0.000589577 -0.00322661 -5.14607e-06)
(1.25593e-05 -0.00430041 -1.09864e-07)
(2.20344e-05 -0.00440461 -1.9259e-07)
(4.20472e-05 -0.00450033 -3.66673e-07)
(5.34025e-05 -0.00455449 -4.66155e-07)
(6.84588e-05 -0.00461128 -6.00896e-07)
(8.87673e-05 -0.0046568 -7.76912e-07)
(9.81872e-05 -0.00467793 -8.67455e-07)
(0.000129698 -0.00471381 -1.13532e-06)
(0.000144198 -0.00472342 -1.25077e-06)
(0.000166148 -0.00474444 -1.45335e-06)
(0.000187179 -0.00475201 -1.63385e-06)
(0.00021103 -0.00476074 -1.84102e-06)
(0.000234528 -0.00476011 -2.04841e-06)
(0.000254164 -0.00475781 -2.21834e-06)
(0.000276788 -0.00474876 -2.4161e-06)
(0.000299115 -0.00473558 -2.61064e-06)
(0.00032158 -0.00471689 -2.80683e-06)
(0.000344445 -0.004693 -3.00644e-06)
(0.000366738 -0.00466367 -3.20115e-06)
(0.000389282 -0.00462875 -3.398e-06)
(0.000411259 -0.00458809 -3.58989e-06)
(0.000433007 -0.00454154 -3.77973e-06)
(0.000454127 -0.00448895 -3.96408e-06)
(0.000474658 -0.00443021 -4.14327e-06)
(0.000494348 -0.00436522 -4.31509e-06)
(0.000513073 -0.00429389 -4.47849e-06)
(0.000530626 -0.00421617 -4.63166e-06)
(0.000546836 -0.00413205 -4.7731e-06)
(0.000561502 -0.00404156 -4.90108e-06)
(0.000574444 -0.00394476 -5.01401e-06)
(0.000585468 -0.00384179 -5.11021e-06)
(0.000594391 -0.0037328 -5.18807e-06)
(0.000601039 -0.00361802 -5.24608e-06)
(0.000605259 -0.00349774 -5.28292e-06)
(0.000606921 -0.00337231 -5.29744e-06)
(0.000605905 -0.00324214 -5.28859e-06)
(1.55822e-05 -0.00437051 -1.364e-07)
(2.10232e-05 -0.00447051 -1.84123e-07)
(4.99816e-05 -0.00455792 -4.36254e-07)
(5.92919e-05 -0.00460202 -5.18154e-07)
(8.58385e-05 -0.00466354 -7.48679e-07)
(0.000102077 -0.00469878 -8.87718e-07)
(0.000120064 -0.00473179 -1.05588e-06)
(0.000144698 -0.00476689 -1.26627e-06)
(0.000164245 -0.00478295 -1.42952e-06)
(0.000181092 -0.00480522 -1.58177e-06)
(0.000204987 -0.00481252 -1.78845e-06)
(0.000226351 -0.00482107 -1.97599e-06)
(0.000251001 -0.00481981 -2.19102e-06)
(0.000269452 -0.00481647 -2.35226e-06)
(0.000292861 -0.00480615 -2.55613e-06)
(0.000314928 -0.00479171 -2.74877e-06)
(0.000338013 -0.00477154 -2.95023e-06)
(0.000361201 -0.00474625 -3.15273e-06)
(0.000384098 -0.00471543 -3.35266e-06)
(0.000407173 -0.00467901 -3.55414e-06)
(0.000429738 -0.00463679 -3.75114e-06)
(0.000452032 -0.0045886 -3.94576e-06)
(0.000473692 -0.00453431 -4.1348e-06)
(0.000494688 -0.00447376 -4.31805e-06)
(0.000514791 -0.00440686 -4.49349e-06)
(0.000533842 -0.00433353 -4.65974e-06)
(0.000551645 -0.0042537 -4.81509e-06)
(0.000568003 -0.00416738 -4.95783e-06)
(0.000582724 -0.0040746 -5.08629e-06)
(0.000595612 -0.00397544 -5.19876e-06)
(0.000606476 -0.00387002 -5.29357e-06)
(0.000615128 -0.00375854 -5.36906e-06)
(0.000621393 -0.00364124 -5.42373e-06)
(0.000625117 -0.00351841 -5.45624e-06)
(0.000626172 -0.00339043 -5.46546e-06)
(0.000624443 -0.00325773 -5.4504e-06)
(1.81322e-05 -0.0044247 -1.59002e-07)
(1.73718e-05 -0.0045291 -1.54048e-07)
(5.32452e-05 -0.00463269 -4.64298e-07)
(5.72353e-05 -0.0046834 -4.97277e-07)
(8.28847e-05 -0.00474286 -7.24218e-07)
(9.99497e-05 -0.0047831 -8.72043e-07)
(0.000120001 -0.00480522 -1.05285e-06)
(0.000142261 -0.00483808 -1.24606e-06)
(0.000166566 -0.00484685 -1.44892e-06)
(0.000181948 -0.00486745 -1.58826e-06)
(0.000210824 -0.00487142 -1.83998e-06)
(0.000232232 -0.00487963 -2.02609e-06)
(0.000260624 -0.00487741 -2.27526e-06)
(0.000280202 -0.0048737 -2.44563e-06)
(0.000305844 -0.00486269 -2.66949e-06)
(0.000329178 -0.00484765 -2.87309e-06)
(0.000353759 -0.00482658 -3.08769e-06)
(0.000378138 -0.00480036 -3.30055e-06)
(0.000402128 -0.00476837 -3.51001e-06)
(0.000426218 -0.00473068 -3.72031e-06)
(0.00044969 -0.004687 -3.92522e-06)
(0.000472813 -0.00463722 -4.12705e-06)
(0.000495167 -0.00458118 -4.32216e-06)
(0.000516783 -0.00451877 -4.51083e-06)
(0.000537391 -0.00444988 -4.69068e-06)
(0.000556859 -0.00437443 -4.86057e-06)
(0.000574963 -0.00429238 -5.01856e-06)
(0.00059152 -0.00420373 -5.16305e-06)
(0.000606317 -0.00410853 -5.29218e-06)
(0.000619165 -0.00400687 -5.40431e-06)
(0.000629863 -0.00389889 -5.49767e-06)
(0.000638224 -0.0037848 -5.57063e-06)
(0.000644069 -0.00366484 -5.62165e-06)
(0.000647247 -0.00353936 -5.64939e-06)
(0.00064763 -0.00340873 -5.65275e-06)
(0.000645112 -0.00327339 -5.6308e-06)
(2.58303e-05 -0.0044994 -2.25336e-07)
(8.5567e-06 -0.00459202 -7.37944e-08)
(6.77602e-05 -0.00469009 -6.00245e-07)
(4.79317e-05 -0.00472175 -4.20945e-07)
(0.000106403 -0.00479007 -9.23264e-07)
(9.77467e-05 -0.00482715 -8.54358e-07)
(0.000141715 -0.00485365 -1.24552e-06)
(0.000150184 -0.00489295 -1.31232e-06)
(0.000187327 -0.00490637 -1.63014e-06)
(0.000196219 -0.00492916 -1.71212e-06)
(0.00022972 -0.00493484 -2.00395e-06)
(0.000247952 -0.00494255 -2.16301e-06)
(0.000278084 -0.00494117 -2.42698e-06)
(0.000296665 -0.00493635 -2.58933e-06)
(0.000323392 -0.00492437 -2.82249e-06)
(0.000346816 -0.00490797 -3.02704e-06)
(0.000372402 -0.0048855 -3.2504e-06)
(0.000397439 -0.00485781 -3.46898e-06)
(0.000422407 -0.00482427 -3.68694e-06)
(0.000447335 -0.00478497 -3.90455e-06)
(0.000471707 -0.00473957 -4.11728e-06)
(0.000495615 -0.00468798 -4.32596e-06)
(0.000518733 -0.00463001 -4.52773e-06)
(0.000540996 -0.00456555 -4.72205e-06)
(0.000562178 -0.0044945 -4.90692e-06)
(0.0005821 -0.00441678 -5.08079e-06)
(0.000600556 -0.00433235 -5.24186e-06)
(0.000617335 -0.00424122 -5.3883e-06)
(0.000632233 -0.00414346 -5.51832e-06)
(0.000645043 -0.00403915 -5.63013e-06)
(0.000655567 -0.00392846 -5.72199e-06)
(0.000663613 -0.00381162 -5.7922e-06)
(0.000669002 -0.00368889 -5.83924e-06)
(0.00067158 -0.00356062 -5.86177e-06)
(0.000671227 -0.00342721 -5.8587e-06)
(0.000667839 -0.00328914 -5.82917e-06)
(2.99133e-05 -0.00456068 -2.60946e-07)
(-2.11648e-07 -0.00466736 2.41487e-09)
(8.95095e-05 -0.00476815 -7.69627e-07)
(3.29053e-05 -0.00481197 -2.74259e-07)
(0.000117473 -0.00488857 -1.0521e-06)
(8.94869e-05 -0.00491836 -7.78157e-07)
(0.000148712 -0.00494633 -1.29689e-06)
(0.000147403 -0.00497357 -1.29643e-06)
(0.000193063 -0.00498389 -1.67736e-06)
(0.000198749 -0.00499893 -1.73541e-06)
(0.000237341 -0.00500228 -2.07052e-06)
(0.000255091 -0.00500704 -2.22559e-06)
(0.000288285 -0.00500513 -2.51604e-06)
(0.000310105 -0.0049993 -2.70641e-06)
(0.000339006 -0.00498688 -2.9588e-06)
(0.000364156 -0.00496962 -3.17836e-06)
(0.000391313 -0.0049462 -3.41542e-06)
(0.000417674 -0.00491729 -3.64556e-06)
(0.000443858 -0.00488235 -3.8741e-06)
(0.00046996 -0.00484147 -4.10191e-06)
(0.00049541 -0.00479431 -4.32404e-06)
(0.000520299 -0.00474084 -4.54126e-06)
(0.000544262 -0.00468083 -4.75041e-06)
(0.000567287 -0.0046142 -4.95138e-06)
(0.000589098 -0.00454084 -5.14175e-06)
(0.000609544 -0.0044607 -5.32021e-06)
(0.000628384 -0.00437373 -5.48466e-06)
(0.000645422 -0.00427997 -5.63337e-06)
(0.00066043 -0.00417947 -5.76436e-06)
(0.000673206 -0.00407236 -5.87589e-06)
(0.000683542 -0.00395881 -5.96611e-06)
(0.000691245 -0.00383906 -6.03335e-06)
(0.000696133 -0.00371341 -6.07603e-06)
(0.000698058 -0.00358221 -6.09285e-06)
(0.000696897 -0.0034459 -6.08276e-06)
(0.000692558 -0.00330497 -6.04493e-06)
(3.16143e-05 -0.00463841 -2.75691e-07)
(-1.40469e-07 -0.00474253 1.06928e-09)
(9.23253e-05 -0.00482341 -7.97785e-07)
(3.83472e-05 -0.00487305 -3.24785e-07)
(0.000129846 -0.00493063 -1.15448e-06)
(9.96925e-05 -0.00495559 -8.60996e-07)
(0.000166763 -0.0050041 -1.45416e-06)
(0.000159176 -0.00502656 -1.39885e-06)
(0.000210607 -0.00505516 -1.8329e-06)
(0.000211651 -0.00506912 -1.84716e-06)
(0.000252987 -0.00507777 -2.20899e-06)
(0.000269322 -0.0050802 -2.34896e-06)
(0.000304283 -0.00507734 -2.65619e-06)
(0.000326942 -0.00506924 -2.85321e-06)
(0.00035737 -0.00505532 -3.11909e-06)
(0.000383657 -0.0050362 -3.3485e-06)
(0.000412222 -0.00501112 -3.59792e-06)
(0.00043976 -0.00498046 -3.83825e-06)
(0.000467234 -0.00494369 -4.07804e-06)
(0.000494458 -0.00490089 -4.31561e-06)
(0.000521021 -0.00485174 -4.54743e-06)
(0.000546899 -0.00479615 -4.77328e-06)
(0.000571815 -0.00473391 -4.99075e-06)
(0.00059564 -0.00466492 -5.1987e-06)
(0.000618156 -0.00458908 -5.39524e-06)
(0.000639159 -0.00450633 -5.57857e-06)
(0.000658431 -0.00441665 -5.74681e-06)
(0.000675744 -0.00432007 -5.89793e-06)
(0.000690877 -0.00421666 -6.03004e-06)
(0.000703613 -0.00410658 -6.14124e-06)
(0.000713745 -0.00399 -6.22969e-06)
(0.000721072 -0.00386718 -6.29366e-06)
(0.000725416 -0.00373844 -6.3316e-06)
(0.000726625 -0.00360416 -6.34219e-06)
(0.000724586 -0.00346481 -6.32443e-06)
(0.000719212 -0.00332089 -6.27756e-06)
(3.08526e-05 -0.00471032 -2.68699e-07)
(1.82212e-06 -0.00482316 -1.53439e-08)
(9.5856e-05 -0.00491253 -8.29281e-07)
(4.04035e-05 -0.00497797 -3.44247e-07)
(0.000136655 -0.00503952 -1.21571e-06)
(0.000102036 -0.0050669 -8.84322e-07)
(0.000174321 -0.00510806 -1.52348e-06)
(0.000165816 -0.00511476 -1.45162e-06)
(0.00021901 -0.005136 -1.90955e-06)
(0.00022646 -0.00514205 -1.98029e-06)
(0.000266859 -0.00514941 -2.3257e-06)
(0.000286472 -0.0051503 -2.50211e-06)
(0.000320918 -0.00514814 -2.79963e-06)
(0.000345852 -0.00513907 -3.01898e-06)
(0.000377083 -0.00512497 -3.29078e-06)
(0.000404899 -0.00510459 -3.53401e-06)
(0.000434726 -0.00507843 -3.79421e-06)
(0.000463609 -0.00504619 -4.04638e-06)
(0.000492342 -0.00500775 -4.29707e-06)
(0.000520794 -0.00496306 -4.54536e-06)
(0.000548522 -0.00491183 -4.78732e-06)
(0.000575494 -0.004854 -5.02271e-06)
(0.000601385 -0.00478936 -5.24869e-06)
(0.000626091 -0.00471785 -5.46434e-06)
(0.000649345 -0.00463934 -5.66733e-06)
(0.000670962 -0.0045538 -5.85604e-06)
(0.000690687 -0.00446121 -6.02823e-06)
(0.000708299 -0.00436163 -6.18199e-06)
(0.000723558 -0.00425513 -6.31521e-06)
(0.000736247 -0.00414187 -6.42601e-06)
(0.00074615 -0.00402208 -6.51248e-06)
(0.000753065 -0.00389601 -6.57286e-06)
(0.000756811 -0.00376401 -6.60559e-06)
(0.000757241 -0.0036265 -6.60939e-06)
(0.000754245 -0.00348395 -6.58329e-06)
(0.000747746 -0.0033369 -6.52662e-06)
(3.4214e-05 -0.00479415 -2.98045e-07)
(1.48973e-06 -0.00490899 -1.21721e-08)
(9.91156e-05 -0.00497453 -8.5591e-07)
(3.11214e-05 -0.00504552 -2.64043e-07)
(0.000127073 -0.00509225 -1.1456e-06)
(8.61482e-05 -0.00510852 -7.60202e-07)
(0.000162233 -0.00517934 -1.43207e-06)
(0.00015839 -0.00517372 -1.39252e-06)
(0.000221183 -0.00522766 -1.91166e-06)
(0.000227156 -0.00522237 -1.99489e-06)
(0.000274243 -0.00523525 -2.39575e-06)
(0.000296563 -0.00523007 -2.58432e-06)
(0.000334767 -0.00522825 -2.92456e-06)
(0.000363135 -0.00521568 -3.16778e-06)
(0.000396508 -0.00520032 -3.46115e-06)
(0.000426733 -0.00517767 -3.72421e-06)
(0.000458163 -0.00514987 -3.99887e-06)
(0.000488783 -0.00511565 -4.26597e-06)
(0.000518974 -0.00507526 -4.52946e-06)
(0.00054883 -0.00502842 -4.78995e-06)
(0.000577872 -0.00497489 -5.04337e-06)
(0.000606007 -0.00491463 -5.2889e-06)
(0.000632985 -0.00484741 -5.52437e-06)
(0.000658617 -0.00477316 -5.74809e-06)
(0.00068268 -0.00469179 -5.95816e-06)
(0.000704938 -0.00460325 -6.15247e-06)
(0.000725153 -0.00450755 -6.32895e-06)
(0.000743073 -0.00440475 -6.48541e-06)
(0.000758462 -0.00429495 -6.61978e-06)
(0.000771089 -0.00417833 -6.73005e-06)
(0.000780735 -0.00405511 -6.8143e-06)
(0.000787194 -0.0039256 -6.87071e-06)
(0.000790286 -0.00379016 -6.89774e-06)
(0.000789866 -0.00364924 -6.89413e-06)
(0.000785832 -0.00350332 -6.85898e-06)
(0.000778114 -0.00335299 -6.79168e-06)
(2.41459e-05 -0.00487718 -2.10289e-07)
(2.17406e-05 -0.00499392 -1.90124e-07)
(8.25018e-05 -0.00505152 -7.21462e-07)
(7.42175e-05 -0.0051243 -6.45149e-07)
(0.000153365 -0.00517054 -1.32927e-06)
(0.00013432 -0.00518465 -1.16461e-06)
(0.00022258 -0.00525977 -1.90335e-06)
(0.000187323 -0.00525043 -1.62672e-06)
(0.000243933 -0.00530942 -2.15948e-06)
(0.000268987 -0.00530191 -2.3345e-06)
(0.000296378 -0.00531727 -2.58694e-06)
(0.00032529 -0.00531045 -2.84435e-06)
(0.000356467 -0.00530896 -3.10766e-06)
(0.000387944 -0.00529483 -3.38735e-06)
(0.000419948 -0.00527854 -3.66446e-06)
(0.000451839 -0.0052542 -3.94377e-06)
(0.000484006 -0.00522481 -4.2242e-06)
(0.000516151 -0.00518864 -4.50486e-06)
(0.00054763 -0.00514618 -4.77948e-06)
(0.000578895 -0.00509706 -5.05228e-06)
(0.000609233 -0.0050411 -5.31699e-06)
(0.00063859 -0.00497821 -5.57318e-06)
(0.00066667 -0.0049082 -5.81826e-06)
(0.000693292 -0.00483102 -6.05064e-06)
(0.000718189 -0.00474657 -6.26798e-06)
(0.000741133 -0.00465482 -6.46829e-06)
(0.000761848 -0.00455578 -6.64915e-06)
(0.000780089 -0.00444954 -6.80842e-06)
(0.000795597 -0.00433622 -6.94383e-06)
(0.000808141 -0.004216 -7.0534e-06)
(0.000817493 -0.00408915 -7.13509e-06)
(0.000823447 -0.00395599 -7.1871e-06)
(0.000825819 -0.00381691 -7.20786e-06)
(0.000824473 -0.00367238 -7.19618e-06)
(0.000819311 -0.00352294 -7.15119e-06)
(0.000810275 -0.00336916 -7.07239e-06)
(2.28814e-05 -0.00496769 -1.99133e-07)
(2.68173e-05 -0.00508979 -2.33495e-07)
(7.92624e-05 -0.00516576 -6.91176e-07)
(7.20226e-05 -0.00525807 -6.25631e-07)
(0.000135456 -0.0052971 -1.18566e-06)
(0.000123623 -0.00533497 -1.08717e-06)
(0.00020539 -0.00537415 -1.76623e-06)
(0.000184984 -0.0053721 -1.61005e-06)
(0.000244651 -0.00539872 -2.14826e-06)
(0.0002736 -0.00539442 -2.38302e-06)
(0.000304276 -0.00540435 -2.66082e-06)
(0.000338248 -0.00539778 -2.9513e-06)
(0.00037206 -0.00539408 -3.24792e-06)
(0.000408104 -0.005379 -3.56119e-06)
(0.00044196 -0.0053611 -3.85746e-06)
(0.000476795 -0.00533516 -4.16123e-06)
(0.000510601 -0.00530385 -4.45646e-06)
(0.000544776 -0.00526563 -4.75461e-06)
(0.000577847 -0.00522089 -5.0432e-06)
(0.000610715 -0.00516928 -5.32994e-06)
(0.000642519 -0.00511066 -5.60746e-06)
(0.000673192 -0.00504494 -5.87512e-06)
(0.000702472 -0.00497194 -6.13067e-06)
(0.000730125 -0.0048916 -6.37204e-06)
(0.000755913 -0.00480383 -6.59717e-06)
(0.000779561 -0.00470862 -6.80362e-06)
(0.000800802 -0.00460601 -6.98908e-06)
(0.000819359 -0.00449609 -7.15111e-06)
(0.000834976 -0.004379 -7.28749e-06)
(0.000847408 -0.00425495 -7.39608e-06)
(0.000856424 -0.00412424 -7.47485e-06)
(0.000861813 -0.00398721 -7.52194e-06)
(0.000863395 -0.00384428 -7.53582e-06)
(0.000861037 -0.00369595 -7.51531e-06)
(0.000854651 -0.00354278 -7.45965e-06)
(0.000844191 -0.0033854 -7.36843e-06)
(1.83359e-05 -0.00506358 -1.58981e-07)
(3.70137e-05 -0.00517928 -3.19607e-07)
(7.76336e-05 -0.00522767 -6.77009e-07)
(8.28217e-05 -0.00530677 -7.25528e-07)
(0.000148307 -0.00534384 -1.29864e-06)
(0.000134773 -0.005377 -1.18143e-06)
(0.000216788 -0.00543288 -1.87223e-06)
(0.000202874 -0.00544055 -1.76196e-06)
(0.000256835 -0.0054824 -2.25757e-06)
(0.000298525 -0.00548165 -2.60376e-06)
(0.000323 -0.00549673 -2.81997e-06)
(0.000364004 -0.00548915 -3.17952e-06)
(0.000394869 -0.00548493 -3.44517e-06)
(0.00043435 -0.00546823 -3.79114e-06)
(0.00046801 -0.00544857 -4.08444e-06)
(0.000504917 -0.00542077 -4.40685e-06)
(0.000539821 -0.00538733 -4.7114e-06)
(0.000575744 -0.00534685 -5.02493e-06)
(0.000610329 -0.00529961 -5.32666e-06)
(0.00064475 -0.00524532 -5.62699e-06)
(0.000677963 -0.00518384 -5.91678e-06)
(0.000709984 -0.00511505 -6.19621e-06)
(0.000740481 -0.00503882 -6.46237e-06)
(0.00076922 -0.00495506 -6.71322e-06)
(0.000795918 -0.00486373 -6.94628e-06)
(0.000820299 -0.00476481 -7.15913e-06)
(0.000842063 -0.00465836 -7.34916e-06)
(0.000860932 -0.0045445 -7.51392e-06)
(0.000876631 -0.00442338 -7.65102e-06)
(0.000888913 -0.00429526 -7.75832e-06)
(0.000897539 -0.00416043 -7.83368e-06)
(0.000902297 -0.00401929 -7.87527e-06)
(0.000903007 -0.00387228 -7.88155e-06)
(0.000899544 -0.00371994 -7.85141e-06)
(0.00089183 -0.00356285 -7.78416e-06)
(0.000879832 -0.00340169 -7.67952e-06)
(9.98721e-06 -0.00516095 -8.70536e-08)
(5.47596e-05 -0.00529542 -4.79251e-07)
(6.71049e-05 -0.00535294 -5.72818e-07)
(0.000109761 -0.00546728 -9.53379e-07)
(0.000135093 -0.00548741 -1.19079e-06)
(0.000162076 -0.00553031 -1.41688e-06)
(0.000215757 -0.00557264 -1.85788e-06)
(0.000223482 -0.00556946 -1.94635e-06)
(0.000263325 -0.00559646 -2.31556e-06)
(0.000316029 -0.00558921 -2.75566e-06)
(0.000335745 -0.00559755 -2.93322e-06)
(0.000383504 -0.00558773 -3.34889e-06)
(0.000414517 -0.00558021 -3.6172e-06)
(0.000458432 -0.00556212 -4.00122e-06)
(0.000493633 -0.00554039 -4.30822e-06)
(0.000533355 -0.0055108 -4.65499e-06)
(0.000570135 -0.00547519 -4.97606e-06)
(0.000608173 -0.00543236 -5.30794e-06)
(0.000644561 -0.0053825 -5.62547e-06)
(0.000680705 -0.00532533 -5.94079e-06)
(0.000715532 -0.00526078 -6.2447e-06)
(0.000748988 -0.00518871 -6.53664e-06)
(0.000780784 -0.00510899 -6.81413e-06)
(0.000810636 -0.00502157 -7.07469e-06)
(0.000838279 -0.0049264 -7.31599e-06)
(0.000863397 -0.0048235 -7.53527e-06)
(0.000885688 -0.00471294 -7.72989e-06)
(0.000904848 -0.00459485 -7.89719e-06)
(0.0009206 -0.00446944 -8.03476e-06)
(0.000932684 -0.00433696 -8.14033e-06)
(0.000940857 -0.00419776 -8.21175e-06)
(0.000944905 -0.00405225 -8.24715e-06)
(0.000944654 -0.00390093 -8.24505e-06)
(0.000939982 -0.00374435 -8.20437e-06)
(0.000930826 -0.00358314 -8.12454e-06)
(0.000917167 -0.003418 -8.00541e-06)
(3.94922e-06 -0.00527185 -3.43927e-08)
(7.46013e-05 -0.00538818 -6.5176e-07)
(3.79914e-05 -0.00543904 -3.48497e-07)
(0.000141988 -0.00553525 -1.25748e-06)
(0.00012415 -0.00554011 -1.04576e-06)
(0.000192174 -0.00559487 -1.68118e-06)
(0.000216073 -0.00563352 -1.87505e-06)
(0.000251537 -0.00565041 -2.18086e-06)
(0.000276037 -0.00568218 -2.42891e-06)
(0.000341203 -0.00568657 -2.97503e-06)
(0.000356154 -0.00569767 -3.11067e-06)
(0.000409853 -0.00569053 -3.5786e-06)
(0.000439987 -0.00568174 -3.84e-06)
(0.000486687 -0.00566259 -4.24765e-06)
(0.000522702 -0.00563846 -4.56206e-06)
(0.000564633 -0.00560667 -4.9281e-06)
(0.000602968 -0.00556838 -5.26261e-06)
(0.000643018 -0.00552284 -5.61215e-06)
(0.00068119 -0.00547002 -5.9452e-06)
(0.000719068 -0.00540973 -6.27568e-06)
(0.000755432 -0.00534183 -6.59295e-06)
(0.000790368 -0.00526616 -6.89782e-06)
(0.000823474 -0.00518268 -7.18674e-06)
(0.000854487 -0.0050913 -7.45743e-06)
(0.000883086 -0.004992 -7.70706e-06)
(0.00090895 -0.00488482 -7.93286e-06)
(0.000931751 -0.00476985 -8.13193e-06)
(0.000951177 -0.00464725 -8.30155e-06)
(0.000966936 -0.00451723 -8.43918e-06)
(0.000978763 -0.00438011 -8.54251e-06)
(0.000986408 -0.00423626 -8.60933e-06)
(0.000989658 -0.00408612 -8.63776e-06)
(0.000988341 -0.00393022 -8.62637e-06)
(0.000982348 -0.00376917 -8.57415e-06)
(0.000971625 -0.00360362 -8.48066e-06)
(0.000956174 -0.00343432 -8.34589e-06)
(3.13212e-06 -0.00538408 -2.74724e-08)
(8.11946e-05 -0.00550382 -7.08397e-07)
(4.32391e-05 -0.00558597 -3.8952e-07)
(0.000149336 -0.00567601 -1.31739e-06)
(0.000124188 -0.00570875 -1.05447e-06)
(0.000199883 -0.00577387 -1.75792e-06)
(0.00021665 -0.00577634 -1.88141e-06)
(0.000264441 -0.00580335 -2.2941e-06)
(0.000285451 -0.00580294 -2.50799e-06)
(0.000361627 -0.00580818 -3.15408e-06)
(0.000374765 -0.0058071 -3.271e-06)
(0.000434507 -0.00579988 -3.79506e-06)
(0.000465453 -0.005787 -4.06124e-06)
(0.000515135 -0.00576691 -4.49655e-06)
(0.000553029 -0.00574051 -4.82676e-06)
(0.000597213 -0.0057068 -5.21256e-06)
(0.00063769 -0.00566601 -5.56577e-06)
(0.000679768 -0.00561778 -5.93294e-06)
(0.000719929 -0.00556199 -6.28337e-06)
(0.000759626 -0.00549843 -6.6297e-06)
(0.000797777 -0.005427 -6.9626e-06)
(0.000834249 -0.00534753 -7.28086e-06)
(0.000868714 -0.00526001 -7.58163e-06)
(0.000900889 -0.00516439 -7.86245e-06)
(0.000930451 -0.00506066 -8.12049e-06)
(0.000957049 -0.00494889 -8.35267e-06)
(0.000980338 -0.00482919 -8.556e-06)
(0.000999989 -0.00470175 -8.72759e-06)
(0.0010157 -0.00456683 -8.8648e-06)
(0.0010272 -0.00442476 -8.96526e-06)
(0.00103423 -0.00427595 -9.02671e-06)
(0.00103658 -0.0041209 -9.0473e-06)
(0.00103408 -0.00396016 -9.02561e-06)
(0.00102664 -0.00379438 -8.96075e-06)
(0.00101421 -0.00362427 -8.85241e-06)
(0.000996828 -0.0034506 -8.70076e-06)
(4.62811e-06 -0.00550644 -4.09598e-08)
(8.58883e-05 -0.00561672 -7.50176e-07)
(4.44824e-05 -0.00568422 -3.99684e-07)
(0.000159717 -0.00575263 -1.40615e-06)
(0.000131084 -0.00577342 -1.11073e-06)
(0.000217271 -0.00583635 -1.90542e-06)
(0.000231057 -0.00584811 -2.00062e-06)
(0.000286629 -0.00589698 -2.49194e-06)
(0.000307305 -0.00590813 -2.69455e-06)
(0.000380118 -0.00592402 -3.31085e-06)
(0.000397324 -0.00592437 -3.47363e-06)
(0.00045745 -0.00591735 -3.9907e-06)
(0.000492524 -0.00590141 -4.30025e-06)
(0.000544241 -0.00587953 -4.74965e-06)
(0.000584956 -0.00584999 -5.10596e-06)
(0.000631712 -0.00581367 -5.51361e-06)
(0.000674457 -0.0057697 -5.88676e-06)
(0.000718794 -0.00571839 -6.27357e-06)
(0.000761019 -0.00565915 -6.64203e-06)
(0.0008027 -0.00559197 -7.00569e-06)
(0.000842591 -0.00551665 -7.35377e-06)
(0.000880695 -0.00543306 -7.68628e-06)
(0.000916558 -0.00534121 -7.99924e-06)
(0.000949946 -0.00524101 -8.29066e-06)
(0.000980478 -0.00513252 -8.55715e-06)
(0.0010078 -0.00501582 -8.79565e-06)
(0.00103154 -0.00489105 -9.00294e-06)
(0.00105137 -0.00475844 -9.17605e-06)
(0.00106696 -0.00461828 -9.31225e-06)
(0.00107805 -0.00447093 -9.40909e-06)
(0.00108436 -0.00431686 -9.4643e-06)
(0.0010857 -0.00415659 -9.47602e-06)
(0.00108189 -0.00399073 -9.44292e-06)
(0.00107286 -0.00381997 -9.36421e-06)