/*--------------------------------*- C++ -*----------------------------------*\
| =========                 |                                                 |
| \\      /  F ield         | OpenFOAM: The Open Source CFD Toolbox           |
|  \\    /   O peration     | Version:  v2012                                 |
|   \\  /    A nd           | Website:  www.openfoam.com                      |
|    \\/     M anipulation  |                                                 |
\*---------------------------------------------------------------------------*/
FoamFile
{
    version     2.0;
    format      ascii;
    class       surfaceScalarField;
    location    "0.75";
    object      phi;
}
// * * * * * * * * * * * * * * * * * * * * * * * * * * * * * * * * * * * * * //

dimensions      [0 3 -1 0 0 0 0];
oriented        oriented;


internalField   nonuniform List<scalar> 
8134
(
-2.21005e-10
-5.17812e-11
9.4673e-15
-1.81676e-10
-3.93432e-11
-9.72443e-16
-1.51205e-10
-3.04823e-11
-1.25286e-15
-1.27143e-10
-2.40615e-11
2.60877e-18
-1.07852e-10
-1.92667e-11
2.57516e-15
-9.21482e-11
-1.56659e-11
4.25168e-15
-7.92142e-11
-1.28817e-11
5.97181e-15
-6.84484e-11
-1.07139e-11
6.08793e-15
-5.94019e-11
-8.99172e-12
6.38307e-15
-5.1741e-11
-7.61254e-12
5.70408e-15
-4.52023e-11
-6.49253e-12
5.40959e-15
-3.95868e-11
-5.5767e-12
4.58999e-15
-3.47327e-11
-4.81973e-12
4.01187e-15
-3.05151e-11
-4.18959e-12
3.27386e-15
-2.68305e-11
-3.66075e-12
2.74431e-15
-2.35982e-11
-3.2134e-12
2.19234e-15
-2.07501e-11
-2.83212e-12
1.8183e-15
-1.82326e-11
-2.50464e-12
1.46373e-15
-1.60003e-11
-2.22133e-12
1.22655e-15
-1.40167e-11
-1.97436e-12
1.00961e-15
-1.22512e-11
-1.75763e-12
8.5937e-16
-1.06782e-11
-1.56624e-12
7.19214e-16
-9.27636e-12
-1.39601e-12
6.16109e-16
-8.02661e-12
-1.2447e-12
5.17693e-16
-6.91324e-12
-1.10904e-12
4.4051e-16
-5.92168e-12
-9.87848e-13
3.65489e-16
-5.03932e-12
-8.79228e-13
3.02768e-16
-4.25467e-12
-7.82129e-13
2.411e-16
-3.55653e-12
-6.96072e-13
1.88267e-16
-2.9354e-12
-6.1963e-13
1.3708e-16
-2.38194e-12
-5.52408e-13
9.21019e-17
-1.88811e-12
-4.93312e-13
4.59944e-17
-1.44685e-12
-4.4126e-13
4.77691e-18
-1.0525e-12
-3.94824e-13
-3.24945e-17
-7.01725e-13
-3.51698e-13
-6.30711e-17
-3.93829e-13
-3.09185e-13
-8.6514e-17
-1.31988e-13
-2.63424e-13
-1.02347e-16
7.61492e-14
-2.09928e-13
-1.1092e-16
2.17281e-13
-1.43065e-13
-1.13923e-16
2.75893e-13
-6.06042e-14
-1.11378e-16
2.37178e-13
3.6681e-14
-1.07534e-16
1.18224e-13
1.16915e-13
-1.02178e-16
1.16243e-13
-9.88348e-17
-5.71514e-10
-1.63383e-10
1.10961e-14
-4.81771e-10
-1.29092e-10
-4.11193e-17
-4.08734e-10
-1.03531e-10
-1.12372e-15
-3.49022e-10
-8.37785e-11
-5.30933e-16
-2.99702e-10
-6.85691e-11
1.87813e-15
-2.58687e-10
-5.66499e-11
3.71196e-15
-2.24283e-10
-4.72374e-11
5.69456e-15
-1.95229e-10
-3.97179e-11
6.04855e-15
-1.70513e-10
-3.36529e-11
6.54085e-15
-1.49359e-10
-2.8717e-11
5.94044e-15
-1.31142e-10
-2.46622e-11
5.7188e-15
-1.15369e-10
-2.13095e-11
4.89098e-15
-1.0164e-10
-1.85128e-11
4.28646e-15
-8.9634e-11
-1.61653e-11
3.5493e-15
-7.90887e-11
-1.41807e-11
2.98357e-15
-6.97909e-11
-1.2491e-11
2.3931e-15
-6.15632e-11
-1.10427e-11
1.99711e-15
-5.42617e-11
-9.79251e-12
1.61479e-15
-4.77648e-11
-8.7063e-12
1.35946e-15
-4.19731e-11
-7.7559e-12
1.12337e-15
-3.68029e-11
-6.91923e-12
9.59371e-16
-3.21833e-11
-6.17832e-12
8.05868e-16
-2.80554e-11
-5.51777e-12
6.93137e-16
-2.43651e-11
-4.92935e-12
5.8404e-16
-2.10687e-11
-4.40075e-12
4.98421e-16
-1.81248e-11
-3.92764e-12
4.14902e-16
-1.54978e-11
-3.50277e-12
3.44634e-16
-1.3155e-11
-3.12214e-12
2.75029e-16
-1.10647e-11
-2.78405e-12
2.14581e-16
-9.19991e-12
-2.48283e-12
1.55417e-16
-7.53402e-12
-2.21713e-12
1.03379e-16
-6.04417e-12
-1.98259e-12
5.00785e-17
-4.71029e-12
-1.77515e-12
2.82892e-18
-3.5163e-12
-1.58933e-12
-3.98439e-17
-2.45263e-12
-1.41638e-12
-7.4774e-17
-1.51714e-12
-1.24609e-12
-1.01766e-16
-7.17969e-13
-1.06433e-12
-1.19778e-16
-7.56701e-14
-8.54188e-13
-1.29331e-16
3.75842e-13
-5.96689e-13
-1.32994e-16
5.95987e-13
-2.82921e-13
-1.30119e-16
5.52729e-13
7.77245e-14
-1.25877e-16
2.8683e-13
3.80595e-13
-1.19655e-16
4.00942e-13
-1.15163e-16
-7.98174e-10
-2.8601e-10
1.56239e-14
-6.92223e-10
-2.35022e-10
2.97545e-15
-6.01061e-10
-1.94676e-10
1.98584e-15
-5.22976e-10
-1.61845e-10
1.96042e-15
-4.56046e-10
-1.35466e-10
3.43195e-15
-3.98658e-10
-1.13997e-10
4.57086e-15
-3.49316e-10
-9.65271e-11
5.97887e-15
-3.06785e-10
-8.21977e-11
6.10411e-15
-2.69988e-10
-7.03943e-11
6.45925e-15
-2.38044e-10
-6.06122e-11
5.82222e-15
-2.10204e-10
-5.24551e-11
5.58629e-15
-1.85852e-10
-4.56233e-11
4.77181e-15
-1.64468e-10
-3.98613e-11
4.16343e-15
-1.45626e-10
-3.49783e-11
3.4839e-15
-1.28965e-10
-3.08159e-11
2.9271e-15
-1.14191e-10
-2.72461e-11
2.35429e-15
-1.0105e-10
-2.41665e-11
1.97191e-15
-8.93357e-11
-2.14934e-11
1.60048e-15
-7.88708e-11
-1.91595e-11
1.35187e-15
-6.95079e-11
-1.71086e-11
1.12208e-15
-6.11222e-11
-1.52964e-11
9.59988e-16
-5.36065e-11
-1.36865e-11
8.09467e-16
-4.68712e-11
-1.2247e-11
6.98639e-16
-4.08333e-11
-1.09615e-11
5.89091e-16
-3.54253e-11
-9.80406e-12
5.02957e-16
-3.05828e-11
-8.76598e-12
4.19044e-16
-2.62503e-11
-7.83186e-12
3.48218e-16
-2.23765e-11
-6.99325e-12
2.78113e-16
-1.89113e-11
-6.24688e-12
2.17324e-16
-1.58122e-11
-5.5803e-12
1.57834e-16
-1.30373e-11
-4.99081e-12
1.0508e-16
-1.05504e-11
-4.46893e-12
5.12174e-17
-8.31967e-12
-4.00592e-12
3.36224e-18
-6.31952e-12
-3.59001e-12
-3.96145e-17
-4.53463e-12
-3.2023e-12
-7.47821e-17
-2.96119e-12
-2.82097e-12
-1.02147e-16
-1.61108e-12
-2.41619e-12
-1.20282e-16
-5.15156e-13
-1.95209e-12
-1.29952e-16
2.76492e-13
-1.39047e-12
-1.33449e-16
7.04092e-13
-7.12714e-13
-1.30416e-16
7.23837e-13
5.57468e-14
-1.26034e-16
3.92316e-13
7.09879e-13
-1.19518e-16
7.91117e-13
-1.14605e-16
-9.32451e-10
-4.00557e-10
2.13638e-14
-8.27741e-10
-3.39697e-10
4.89785e-15
-7.33465e-10
-2.8895e-10
8.27728e-16
-6.49436e-10
-2.45883e-10
-6.49781e-16
-5.74957e-10
-2.09942e-10
5.68949e-16
-5.09208e-10
-1.7973e-10
2.21798e-15
-4.51251e-10
-1.5445e-10
4.13763e-15
-4.00203e-10
-1.33206e-10
4.85791e-15
-3.55212e-10
-1.1534e-10
5.59845e-15
-3.15518e-10
-1.00262e-10
5.25861e-15
-2.80441e-10
-8.74896e-11
5.17626e-15
-2.49384e-10
-7.66445e-11
4.48206e-15
-2.21826e-10
-6.73866e-11
3.94466e-15
-1.97319e-10
-5.94574e-11
3.33724e-15
-1.75476e-10
-5.26347e-11
2.80947e-15
-1.55968e-10
-4.67347e-11
2.26997e-15
-1.38511e-10
-4.16075e-11
1.91018e-15
-1.22863e-10
-3.71281e-11
1.55757e-15
-1.08817e-10
-3.31947e-11
1.32116e-15
-9.61945e-11
-2.97207e-11
1.10288e-15
-8.48451e-11
-2.66375e-11
9.45193e-16
-7.46365e-11
-2.38875e-11
8.00677e-16
-6.54574e-11
-2.14203e-11
6.94516e-16
-5.72027e-11
-1.92104e-11
5.86169e-16
-4.9787e-11
-1.72152e-11
5.00621e-16
-4.31274e-11
-1.54214e-11
4.17546e-16
-3.71523e-11
-1.38035e-11
3.47168e-16
-3.17952e-11
-1.23478e-11
2.77276e-16
-2.69903e-11
-1.10494e-11
2.17084e-16
-2.2682e-11
-9.88702e-12
1.57909e-16
-1.8815e-11
-8.85663e-12
1.04664e-16
-1.53414e-11
-7.94195e-12
5.08416e-17
-1.22191e-11
-7.12826e-12
3.02225e-18
-9.41402e-12
-6.39558e-12
-4.00381e-17
-6.90565e-12
-5.71171e-12
-7.51383e-17
-4.68832e-12
-5.03974e-12
-1.02482e-16
-2.77661e-12
-4.32964e-12
-1.20642e-16
-1.2094e-12
-3.52128e-12
-1.30434e-16
-4.94803e-14
-2.55251e-12
-1.33861e-16
6.28562e-13
-1.39294e-12
-1.30498e-16
7.7143e-13
-8.93491e-14
-1.26065e-16
4.44621e-13
1.03446e-12
-1.1942e-16
1.2336e-12
-1.14296e-16
-9.79494e-10
-4.89347e-10
1.78005e-14
-8.91801e-10
-4.27316e-10
9.17752e-15
-8.07841e-10
-3.72852e-10
6.8353e-15
-7.29055e-10
-3.24631e-10
4.54607e-15
-6.56186e-10
-2.82772e-10
4.08386e-15
-5.89502e-10
-2.46374e-10
4.41438e-15
-5.28917e-10
-2.14989e-10
5.16541e-15
-4.74161e-10
-1.87916e-10
5.29086e-15
-4.24831e-10
-1.64621e-10
5.63508e-15
-3.80481e-10
-1.44567e-10
5.14723e-15
-3.40648e-10
-1.27282e-10
4.95279e-15
-3.04878e-10
-1.1238e-10
4.25425e-15
-2.72747e-10
-9.9486e-11
3.72964e-15
-2.43866e-10
-8.83115e-11
3.17001e-15
-2.17883e-10
-7.8595e-11
2.66811e-15
-1.94485e-10
-7.01138e-11
2.16472e-15
-1.73395e-10
-6.2682e-11
1.83063e-15
-1.5437e-10
-5.61411e-11
1.4991e-15
-1.37194e-10
-5.03595e-11
1.2795e-15
-1.21681e-10
-4.52235e-11
1.07612e-15
-1.07669e-10
-4.06417e-11
9.23707e-16
-9.50126e-11
-3.65364e-11
7.8723e-16
-8.35891e-11
-3.28382e-11
6.8683e-16
-7.32794e-11
-2.95143e-11
5.79844e-16
-6.39867e-11
-2.65035e-11
4.95347e-16
-5.56147e-11
-2.37891e-11
4.13609e-16
-4.80804e-11
-2.13345e-11
3.43939e-16
-4.13052e-11
-1.91204e-11
2.74651e-16
-3.52111e-11
-1.71411e-11
2.15181e-16
-2.97318e-11
-1.53648e-11
1.56749e-16
-2.48009e-11
-1.37864e-11
1.03611e-16
-2.03606e-11
-1.23816e-11
5.00498e-17
-1.63602e-11
-1.11288e-11
2.59547e-18
-1.27581e-11
-9.9982e-12
-4.00753e-17
-9.52913e-12
-8.94172e-12
-7.50779e-17
-6.66576e-12
-7.90454e-12
-1.02294e-16
-4.18439e-12
-6.81274e-12
-1.20351e-16
-2.13008e-12
-5.57756e-12
-1.29915e-16
-5.75561e-13
-4.10915e-12
-1.33397e-16
3.9269e-13
-2.36337e-12
-1.3006e-16
7.12776e-13
-4.11648e-13
-1.25738e-16
4.52624e-13
1.29239e-12
-1.18986e-16
1.68411e-12
-1.13778e-16
-9.80885e-10
-5.54756e-10
1.75547e-14
-9.1155e-10
-4.96609e-10
6.01115e-15
-8.41372e-10
-4.43019e-10
2.20805e-15
-7.7235e-10
-3.9366e-10
-1.30906e-16
-7.05914e-10
-3.49211e-10
-7.58546e-17
-6.4297e-10
-3.09311e-10
1.18597e-15
-5.84031e-10
-2.73906e-10
2.69012e-15
-5.29339e-10
-2.4258e-10
3.57036e-15
-4.78916e-10
-2.15008e-10
4.4081e-15
-4.32657e-10
-1.9079e-10
4.32007e-15
-3.90367e-10
-1.69536e-10
4.33594e-15
-3.51797e-10
-1.50919e-10
3.81549e-15
-3.16676e-10
-1.34579e-10
3.4025e-15
-2.84727e-10
-1.20236e-10
2.93609e-15
-2.55679e-10
-1.07622e-10
2.4888e-15
-2.29278e-10
-9.64978e-11
2.03687e-15
-2.05284e-10
-8.66608e-11
1.73599e-15
-1.83482e-10
-7.79316e-11
1.43175e-15
-1.63672e-10
-7.0159e-11
1.23049e-15
-1.45677e-10
-6.32089e-11
1.04364e-15
-1.29338e-10
-5.69726e-11
8.9813e-16
-1.14511e-10
-5.1356e-11
7.7098e-16
-1.01071e-10
-4.6273e-11
6.76725e-16
-8.8893e-11
-4.1686e-11
5.71953e-16
-7.78761e-11
-3.75161e-11
4.88436e-16
-6.79163e-11
-3.37447e-11
4.08416e-16
-5.89232e-11
-3.03242e-11
3.39721e-16
-5.08106e-11
-2.72305e-11
2.7098e-16
-4.34911e-11
-2.44581e-11
2.12426e-16
-3.68907e-11
-2.19637e-11
1.55029e-16
-3.09342e-11
-1.97417e-11
1.02004e-16
-2.55561e-11
-1.77591e-11
4.89708e-17
-2.06982e-11
-1.59867e-11
1.89776e-18
-1.63129e-11
-1.4384e-11
-4.02524e-17
-1.2371e-11
-1.28847e-11
-7.46854e-17
-8.86303e-12
-1.14139e-11
-1.0168e-16
-5.80661e-12
-9.87086e-12
-1.19635e-16
-3.25147e-12
-8.13464e-12
-1.29007e-16
-1.27822e-12
-6.08449e-12
-1.32425e-16
1.63809e-14
-3.66013e-12
-1.29081e-16
5.62739e-13
-9.60198e-13
-1.24867e-16
4.23607e-13
1.42933e-12
-1.18055e-16
2.10562e-12
-1.12984e-16
-9.42204e-10
-5.95087e-10
2.4408e-14
-8.93902e-10
-5.44812e-10
1.24829e-14
-8.40764e-10
-4.96101e-10
6.972e-15
-7.85053e-10
-4.49342e-10
3.47459e-15
-7.28636e-10
-4.05605e-10
2.349e-15
-6.729e-10
-3.65023e-10
2.73178e-15
-6.1885e-10
-3.27924e-10
3.41744e-15
-5.67175e-10
-2.94222e-10
3.84077e-15
-5.18295e-10
-2.63851e-10
4.32373e-15
-4.72442e-10
-2.36606e-10
4.10144e-15
-4.29704e-10
-2.12241e-10
4.01515e-15
-3.90057e-10
-1.90537e-10
3.5066e-15
-3.53414e-10
-1.71197e-10
3.14514e-15
-3.19638e-10
-1.53988e-10
2.70749e-15
-2.88572e-10
-1.38668e-10
2.3018e-15
-2.60046e-10
-1.25007e-10
1.89866e-15
-2.33886e-10
-1.12807e-10
1.63142e-15
-2.09924e-10
-1.01883e-10
1.35773e-15
-1.87995e-10
-9.20779e-11
1.17528e-15
-1.67947e-10
-8.32468e-11
9.97413e-16
-1.49641e-10
-7.52716e-11
8.68965e-16
-1.32942e-10
-6.80475e-11
7.52251e-16
-1.17734e-10
-6.14759e-11
6.56323e-16
-1.03895e-10
-5.55195e-11
5.62083e-16
-9.13242e-11
-5.00824e-11
4.80414e-16
-7.99168e-11
-4.51478e-11
4.02209e-16
-6.95799e-11
-4.06578e-11
3.34799e-16
-6.02233e-11
-3.65848e-11
2.66972e-16
-5.17538e-11
-3.29251e-11
2.0951e-16
-4.40924e-11
-2.96236e-11
1.52913e-16
-3.71577e-11
-2.66752e-11
1.00108e-16
-3.08782e-11
-2.4038e-11
4.78808e-17
-2.51903e-11
-2.16747e-11
1.47754e-18
-2.00411e-11
-1.95336e-11
-4.00613e-17
-1.53983e-11
-1.75285e-11
-7.42961e-17
-1.12508e-11
-1.55628e-11
-1.00659e-16
-7.61677e-12
-1.35066e-11
-1.18459e-16
-4.54944e-12
-1.12039e-11
-1.27713e-16
-2.13579e-12
-8.50021e-12
-1.31114e-16
-4.80931e-13
-5.31711e-12
-1.27608e-16
3.34437e-13
-1.77773e-12
-1.2382e-16
3.63745e-13
1.39786e-12
-1.16869e-16
2.46729e-12
-1.11852e-16
-8.89268e-10
-6.17239e-10
1.27313e-14
-8.57933e-10
-5.76114e-10
4.71702e-15
-8.19883e-10
-5.34144e-10
1.52571e-15
-7.77107e-10
-4.9213e-10
-6.65516e-16
-7.314e-10
-4.51322e-10
-1.06556e-15
-6.84229e-10
-4.12197e-10
-1.56794e-17
-6.3678e-10
-3.75364e-10
1.20476e-15
-5.89972e-10
-3.41013e-10
2.18761e-15
-5.44483e-10
-3.09315e-10
3.05365e-15
-5.00791e-10
-2.80271e-10
3.18594e-15
-4.59217e-10
-2.53788e-10
3.308e-15
-4.19943e-10
-2.29787e-10
2.99221e-15
-3.83058e-10
-2.0806e-10
2.76602e-15
-3.48576e-10
-1.8845e-10
2.4216e-15
-3.16461e-10
-1.70764e-10
2.08522e-15
-2.86645e-10
-1.54809e-10
1.74398e-15
-2.59031e-10
-1.40408e-10
1.5165e-15
-2.33515e-10
-1.27388e-10
1.27689e-15
-2.09983e-10
-1.15601e-10
1.1153e-15
-1.8832e-10
-1.04901e-10
9.48179e-16
-1.68414e-10
-9.51697e-11
8.3718e-16
-1.50154e-10
-8.63e-11
7.30866e-16
-1.3344e-10
-7.81858e-11
6.3134e-16
-1.18158e-10
-7.07955e-11
5.44521e-16
-1.04217e-10
-6.40194e-11
4.71231e-16
-9.15146e-11
-5.7846e-11
3.95197e-16
-7.99602e-11
-5.22089e-11
3.29156e-16
-6.94636e-11
-4.70792e-11
2.62435e-16
-5.99291e-11
-4.24571e-11
2.05809e-16
-5.12757e-11
-3.82756e-11
1.50714e-16
-4.34177e-11
-3.4532e-11
9.80955e-17
-3.62802e-11
-3.11749e-11
4.66746e-17
-2.97955e-11
-2.81596e-11
8.51712e-19
-2.3907e-11
-2.54226e-11
-3.999e-17
-1.85797e-11
-2.28568e-11
-7.3624e-17
-1.38012e-11
-2.03428e-11
-9.95166e-17
-9.58975e-12
-1.77197e-11
-1.17054e-16
-6.00145e-12
-1.47941e-11
-1.26127e-16
-3.12847e-12
-1.13752e-11
-1.29252e-16
-1.08414e-12
-7.36354e-12
-1.25975e-16
3.9308e-14
-2.90332e-12
-1.22101e-16
2.78263e-13
1.15677e-12
-1.15437e-16
2.74351e-12
-1.10566e-16
-8.23119e-10
-6.23224e-10
1.89807e-14
-8.0725e-10
-5.91919e-10
8.31038e-15
-7.83441e-10
-5.57921e-10
4.27084e-15
-7.53358e-10
-5.22196e-10
2.18929e-15
-7.18635e-10
-4.8603e-10
1.44858e-15
-6.80708e-10
-4.50106e-10
1.91596e-15
-6.40831e-10
-4.15218e-10
2.40478e-15
-6.00045e-10
-3.81773e-10
2.8108e-15
-5.59191e-10
-3.50142e-10
3.18054e-15
-5.18923e-10
-3.2051e-10
3.06395e-15
-4.79741e-10
-2.92946e-10
3.01907e-15
-4.41997e-10
-2.6751e-10
2.68088e-15
-4.05936e-10
-2.441e-10
2.4679e-15
-3.71711e-10
-2.22656e-10
2.1653e-15
-3.39407e-10
-2.03051e-10
1.88157e-15
-3.09058e-10
-1.85145e-10
1.5886e-15
-2.80654e-10
-1.688e-10
1.39766e-15
-2.54162e-10
-1.53871e-10
1.19039e-15
-2.29524e-10
-1.40229e-10
1.05187e-15
-2.06674e-10
-1.27742e-10
8.98744e-16
-1.85537e-10
-1.163e-10
8.03134e-16
-1.6603e-10
-1.058e-10
7.00473e-16
-1.48076e-10
-9.61356e-11
6.06901e-16
-1.31578e-10
-8.72875e-11
5.26327e-16
-1.16458e-10
-7.91356e-11
4.60956e-16
-1.02622e-10
-7.1678e-11
3.86329e-16
-8.99846e-11
-6.48427e-11
3.22866e-16
-7.84602e-11
-5.86014e-11
2.57501e-16
-6.79536e-11
-5.29612e-11
2.01875e-16
-5.83841e-11
-4.78438e-11
1.47763e-16
-4.96647e-11
-4.32502e-11
9.58667e-17
-4.17185e-11
-3.91205e-11
4.53539e-17
-3.44756e-11
-3.54027e-11
4.75114e-19
-2.78767e-11
-3.2022e-11
-3.96059e-17
-2.18852e-11
-2.88493e-11
-7.27579e-17
-1.64874e-11
-2.5742e-11
-9.81206e-17
-1.17018e-11
-2.25069e-11
-1.153e-16
-7.58648e-12
-1.89113e-11
-1.24324e-16
-4.23814e-12
-1.47256e-11
-1.27247e-16
-1.77827e-12
-9.82547e-12
-1.24244e-16
-3.1267e-13
-4.37102e-12
-1.20409e-16
1.71499e-13
6.70498e-13
-1.13912e-16
2.913e-12
-1.09066e-16
-7.56772e-10
9.62541e-15
-7.52233e-10
3.36417e-15
-7.39692e-10
-5.70457e-10
9.40802e-16
-7.20362e-10
-5.41533e-10
-4.02332e-16
-6.95534e-10
-5.10866e-10
-8.44706e-16
-6.66432e-10
-4.79212e-10
-1.52154e-16
-6.34201e-10
-4.47446e-10
5.9433e-16
-5.9986e-10
-4.16104e-10
1.335e-15
-5.64291e-10
-3.85695e-10
1.96964e-15
-5.28232e-10
-3.56551e-10
2.15101e-15
-4.9229e-10
-3.2887e-10
2.29198e-15
-4.56936e-10
-3.02848e-10
2.14279e-15
-4.22536e-10
-2.78484e-10
2.05456e-15
-3.89359e-10
-2.55817e-10
1.85042e-15
-3.57597e-10
-2.34799e-10
1.65323e-15
-3.2738e-10
-2.15351e-10
1.42267e-15
-2.98783e-10
-1.97386e-10
1.27364e-15
-2.71845e-10
-1.808e-10
1.10089e-15
-2.4657e-10
-1.65495e-10
9.86191e-16
-2.22942e-10
-1.51361e-10
8.49069e-16
-2.0093e-10
-1.38305e-10
7.6765e-16
-1.80485e-10
-1.26238e-10
6.68804e-16
-1.61557e-10
-1.15059e-10
5.83492e-16
-1.44072e-10
-1.04767e-10
5.0845e-16
-1.27968e-10
-9.52359e-11
4.48718e-16
-1.13164e-10
-8.64781e-11
3.76501e-16
-9.95849e-11
-7.84188e-11
3.16085e-16
-8.71508e-11
-7.10335e-11
2.51945e-16
-7.57707e-11
-6.43388e-11
1.9762e-16
-6.53669e-11
-5.82462e-11
1.4508e-16
-5.58532e-11
-5.27628e-11
9.34017e-17
-4.71526e-11
-4.78205e-11
4.39757e-17
-3.91946e-11
-4.3361e-11
-1.74983e-19
-3.19184e-11
-3.92986e-11
-3.93689e-17
-2.52865e-11
-3.54822e-11
-7.17815e-17
-1.92844e-11
-3.17454e-11
-9.66009e-17
-1.39307e-11
-2.78622e-11
-1.13456e-16
-9.28504e-12
-2.35588e-11
-1.2218e-16
-5.44827e-12
-1.85643e-11
-1.2523e-16
-2.55032e-12
-1.27255e-11
-1.22111e-16
-7.12835e-13
-6.21058e-12
-1.18343e-16
4.67234e-14
-9.11208e-14
-1.12023e-16
2.95775e-12
-1.07206e-16
-6.90981e-10
-5.73421e-10
2.63802e-15
-6.81042e-10
-5.51463e-10
1.22436e-15
-6.65132e-10
-5.26768e-10
7.00533e-16
-6.44256e-10
-5.00077e-10
1.06299e-15
-6.19416e-10
-4.72272e-10
1.38417e-15
-5.91555e-10
-4.43949e-10
1.71764e-15
-5.61532e-10
-4.15701e-10
1.97735e-15
-5.30106e-10
-3.87958e-10
1.97731e-15
-4.97937e-10
-3.61023e-10
1.98105e-15
-4.65568e-10
-3.35202e-10
1.82368e-15
-4.33449e-10
-3.10589e-10
1.74718e-15
-4.01937e-10
-2.87313e-10
1.58655e-15
-3.71314e-10
-2.65409e-10
1.44435e-15
-3.41792e-10
-2.44862e-10
1.26417e-15
-3.13522e-10
-2.25646e-10
1.15149e-15
-2.86612e-10
-2.07702e-10
1.01171e-15
-2.61127e-10
-1.90972e-10
9.19327e-16
-2.37104e-10
-1.75376e-10
7.99693e-16
-2.14554e-10
-1.60848e-10
7.31082e-16
-1.93468e-10
-1.47318e-10
6.38017e-16
-1.73826e-10
-1.34697e-10
5.60894e-16
-1.55579e-10
-1.23008e-10
4.91104e-16
-1.38686e-10
-1.12125e-10
4.3475e-16
-1.23082e-10
-1.02078e-10
3.6645e-16
-1.08704e-10
-9.27938e-11
3.08608e-16
-9.54817e-11
-8.42536e-11
2.4626e-16
-8.33308e-11
-7.64871e-11
1.93006e-16
-7.21788e-11
-6.9397e-11
1.41738e-16
-6.19421e-11
-6.29984e-11
9.0836e-17
-5.25454e-11
-5.72165e-11
4.24456e-17
-4.39191e-11
-5.19875e-11
-6.21155e-19
-3.60021e-11
-4.72159e-11
-3.89071e-17
-2.8757e-11
-4.27284e-11
-7.05481e-17
-2.21685e-11
-3.83352e-11
-9.47888e-17
-1.62555e-11
-3.37767e-11
-1.11331e-16
-1.10791e-11
-2.87371e-11
-1.1975e-16
-6.74384e-12
-2.29015e-11
-1.22735e-16
-3.38874e-12
-1.60825e-11
-1.19555e-16
-1.15368e-12
-8.44767e-12
-1.16194e-16
-9.21681e-14
-1.15465e-12
-1.09932e-16
2.86365e-12
-1.05338e-16
-6.41553e-10
-5.69282e-10
8.78117e-16
-6.39063e-10
-5.53959e-10
-2.39888e-16
-6.30606e-10
-5.35232e-10
-8.52839e-16
-6.1693e-10
-5.1376e-10
-5.417e-16
-5.98833e-10
-4.90371e-10
-1.00352e-16
-5.77118e-10
-4.6566e-10
4.34189e-16
-5.52563e-10
-4.40249e-10
8.97588e-16
-5.25889e-10
-4.14622e-10
1.14694e-15
-4.97755e-10
-3.89148e-10
1.31111e-15
-4.68732e-10
-3.64215e-10
1.32312e-15
-4.39318e-10
-3.39993e-10
1.35819e-15
-4.09928e-10
-3.16691e-10
1.29082e-15
-3.80909e-10
-2.94417e-10
1.22231e-15
-3.52538e-10
-2.73224e-10
1.10264e-15
-3.25034e-10
-2.53142e-10
1.02925e-15
-2.98564e-10
-2.34165e-10
9.22816e-16
-2.73249e-10
-2.16279e-10
8.52469e-16
-2.49176e-10
-1.99441e-10
7.50909e-16
-2.26403e-10
-1.83615e-10
6.93923e-16
-2.04955e-10
-1.68759e-10
6.08228e-16
-1.84847e-10
-1.54801e-10
5.38915e-16
-1.66057e-10
-1.41793e-10
4.73947e-16
-1.48567e-10
-1.29612e-10
4.20639e-16
-1.32328e-10
-1.18313e-10
3.561e-16
-1.17295e-10
-1.07824e-10
3.00655e-16
-1.03408e-10
-9.81385e-11
2.39997e-16
-9.05916e-11
-8.9301e-11
1.88166e-16
-7.87801e-11
-8.12074e-11
1.38417e-16
-6.78945e-11
-7.38829e-11
8.7919e-17
-5.78633e-11
-6.72471e-11
4.09215e-17
-4.86186e-11
-6.12325e-11
-1.36708e-18
-4.01004e-11
-5.57344e-11
-3.86133e-17
-3.22717e-11
-5.0558e-11
-6.93239e-17
-2.51176e-11
-4.54905e-11
-9.29664e-17
-1.86569e-11
-4.0239e-11
-1.09054e-16
-1.29519e-11
-3.44439e-11
-1.17128e-16
-8.11121e-12
-2.7744e-11
-1.20197e-16
-4.28331e-12
-1.99124e-11
-1.17041e-16
-1.62879e-12
-1.11042e-11
-1.13786e-16
-2.42859e-13
-2.54256e-12
-1.0759e-16
2.6189e-12
-1.03089e-16
-5.92297e-10
-5.59497e-10
1.07316e-15
-5.95889e-10
-5.5036e-10
7.94624e-16
-5.93707e-10
-5.37407e-10
5.13134e-16
-5.86275e-10
-5.21186e-10
6.31834e-16
-5.74206e-10
-5.02432e-10
7.35828e-16
-5.58159e-10
-4.81699e-10
8.95056e-16
-5.38804e-10
-4.59594e-10
1.00753e-15
-5.16795e-10
-4.3662e-10
1.05855e-15
-4.92757e-10
-4.13177e-10
1.08448e-15
-4.67254e-10
-3.89709e-10
1.06678e-15
-4.40801e-10
-3.66437e-10
1.10663e-15
-4.13843e-10
-3.43638e-10
1.06077e-15
-3.8677e-10
-3.21481e-10
1.03003e-15
-3.59908e-10
-3.00078e-10
9.55775e-16
-3.33525e-10
-2.79516e-10
9.13697e-16
-3.07842e-10
-2.59842e-10
8.37184e-16
-2.83027e-10
-2.41087e-10
7.86656e-16
-2.59213e-10
-2.23247e-10
7.03016e-16
-2.36499e-10
-2.06324e-10
6.56502e-16
-2.14949e-10
-1.90303e-10
5.78946e-16
-1.94608e-10
-1.75138e-10
5.17116e-16
-1.75483e-10
-1.60913e-10
4.56926e-16
-1.5758e-10
-1.47513e-10
4.06382e-16
-1.4087e-10
-1.35019e-10
3.45409e-16
-1.25323e-10
-1.23368e-10
2.9218e-16
-1.10894e-10
-1.12565e-10
2.33387e-16
-9.75176e-11
-1.02675e-10
1.82927e-16
-8.51367e-11
-9.35872e-11
1.34463e-16
-7.36785e-11
-8.534e-11
8.48688e-17
-6.30761e-11
-7.78489e-11
3.91216e-17
-5.32652e-11
-7.10437e-11
-1.79364e-18
-4.41877e-11
-6.48123e-11
-3.81206e-17
-3.58078e-11
-5.89389e-11
-6.80834e-17
-2.81112e-11
-5.31885e-11
-9.09337e-17
-2.11168e-11
-4.72348e-11
-1.06523e-16
-1.48882e-11
-4.06741e-11
-1.14435e-16
-9.53807e-12
-3.3096e-11
-1.17331e-16
-5.22501e-12
-2.42273e-11
-1.14315e-16
-2.1327e-12
-1.41984e-11
-1.1131e-16
-4.03674e-13
-4.2735e-12
-1.0514e-16
2.21338e-12
-1.00728e-16
-5.45162e-10
-5.45755e-10
-1.75276e-16
-5.53348e-10
-5.42178e-10
-4.03562e-16
-5.56164e-10
-5.34598e-10
-7.36254e-16
-5.53926e-10
-5.23431e-10
-6.5046e-16
-5.4706e-10
-5.09302e-10
-4.42149e-16
-5.36069e-10
-4.92692e-10
-1.38168e-16
-5.21499e-10
-4.74164e-10
1.32065e-16
-5.03913e-10
-4.54203e-10
3.67157e-16
-4.83874e-10
-4.33213e-10
5.43082e-16
-4.61916e-10
-4.11663e-10
6.54719e-16
-4.3854e-10
-3.89808e-10
7.76975e-16
-4.142e-10
-3.6797e-10
8.05132e-16
-3.89306e-10
-3.46367e-10
8.32355e-16
-3.64216e-10
-3.25161e-10
8.10208e-16
-3.39234e-10
-3.04491e-10
8.01228e-16
-3.1462e-10
-2.84451e-10
7.54112e-16
-2.90583e-10
-2.65117e-10
7.22371e-16
-2.67296e-10
-2.46527e-10
6.56079e-16
-2.44894e-10
-2.2872e-10
6.1921e-16
-2.23475e-10
-2.11716e-10
5.50459e-16
-2.03116e-10
-1.95492e-10
4.95485e-16
-1.83851e-10
-1.80173e-10
4.39842e-16
-1.6571e-10
-1.65651e-10
3.91953e-16
-1.48685e-10
-1.5204e-10
3.34261e-16
-1.32762e-10
-1.39288e-10
2.83256e-16
-1.17912e-10
-1.27414e-10
2.26301e-16
-1.0408e-10
-1.16504e-10
1.77328e-16
-9.12201e-11
-1.06446e-10
1.30774e-16
-7.92661e-11
-9.72929e-11
8.15887e-17
-6.81575e-11
-8.89568e-11
3.72342e-17
-5.78342e-11
-8.13673e-11
-2.50053e-18
-4.8241e-11
-7.44059e-11
-3.77362e-17
-3.93442e-11
-6.78367e-11
-6.68635e-17
-3.11302e-11
-6.14037e-11
-8.86739e-17
-2.36186e-11
-5.47478e-11
-1.03844e-16
-1.68742e-11
-4.74202e-11
-1.11582e-16
-1.10134e-11
-3.89586e-11
-1.14257e-16
-6.20595e-12
-2.90366e-11
-1.11321e-16
-2.66079e-12
-1.77455e-11
-1.08314e-16
-5.72856e-13
-6.36331e-12
-1.02592e-16
1.63873e-12
-9.83548e-17
-5.00309e-10
-5.29071e-10
6.66333e-16
-5.12044e-10
-5.30441e-10
3.70589e-16
-5.18861e-10
-5.2778e-10
2.97567e-18
-5.20917e-10
-5.21374e-10
-6.07731e-17
-5.18485e-10
-5.11733e-10
-3.33086e-17
-5.11926e-10
-4.99249e-10
6.29431e-17
-5.01667e-10
-4.84421e-10
1.33209e-16
-4.88172e-10
-4.67693e-10
2.49477e-16
-4.71934e-10
-4.49449e-10
3.47092e-16
-4.53432e-10
-4.30162e-10
4.43655e-16
-4.3314e-10
-4.10096e-10
5.59366e-16
-4.11501e-10
-3.89603e-10
6.13401e-16
-3.88926e-10
-3.68934e-10
6.68787e-16
-3.65789e-10
-3.48293e-10
6.82257e-16
-3.42415e-10
-3.27859e-10
6.98062e-16
-3.19093e-10
-3.07768e-10
6.75903e-16
-2.96062e-10
-2.88142e-10
6.60338e-16
-2.73528e-10
-2.69055e-10
6.10381e-16
-2.51657e-10
-2.50586e-10
5.82011e-16
-2.30577e-10
-2.3279e-10
5.22161e-16
-2.10396e-10
-2.1567e-10
4.7394e-16
-1.91171e-10
-1.99393e-10
4.22478e-16
-1.72956e-10
-1.83863e-10
3.7734e-16
-1.55763e-10
-1.6923e-10
3.22753e-16
-1.39597e-10
-1.55451e-10
2.73705e-16
-1.24442e-10
-1.42567e-10
2.18964e-16
-1.10258e-10
-1.30686e-10
1.71403e-16
-9.70073e-11
-1.19696e-10
1.26233e-16
-8.46342e-11
-1.09665e-10
7.82218e-17
-7.30846e-11
-1.00506e-10
3.51173e-17
-6.23035e-11
-9.21486e-11
-2.78865e-18
-5.22396e-11
-8.44702e-11
-3.71958e-17
-4.28616e-11
-7.72156e-11
-6.50735e-17
-3.41575e-11
-7.01091e-11
-8.65532e-17
-2.61472e-11
-6.27594e-11
-1.01106e-16
-1.8897e-11
-5.4672e-11
-1.08393e-16
-1.25273e-11
-4.53301e-11
-1.11016e-16
-7.21929e-12
-3.43464e-11
-1.08328e-16
-3.20923e-12
-2.17573e-11
-1.05242e-16
-7.49121e-13
-8.82523e-12
-9.98564e-17
8.87866e-13
-9.55284e-17
-4.58524e-10
-5.10524e-10
-6.05783e-16
-4.72783e-10
-5.1619e-10
-7.93018e-16
-4.82646e-10
-5.17927e-10
-1.07986e-15
-4.88132e-10
-5.15898e-10
-1.06769e-15
-4.89379e-10
-5.10495e-10
-9.31848e-16
-4.86617e-10
-5.02017e-10
-7.08478e-16
-4.80159e-10
-4.90884e-10
-5.18585e-16
-4.7037e-10
-4.77484e-10
-2.75546e-16
-4.57659e-10
-4.62162e-10
-7.73619e-17
-4.42447e-10
-4.45374e-10
1.16612e-16
-4.25163e-10
-4.27378e-10
2.92859e-16
-4.06224e-10
-4.08537e-10
4.08421e-16
-3.8603e-10
-3.89123e-10
5.06067e-16
-3.64953e-10
-3.69365e-10
5.59041e-16
-3.43331e-10
-3.49476e-10
6.00158e-16
-3.21467e-10
-3.29628e-10
6.01451e-16
-2.99623e-10
-3.0998e-10
6.01016e-16
-2.78028e-10
-2.90643e-10
5.66067e-16
-2.56875e-10
-2.71735e-10
5.45637e-16
-2.36317e-10
-2.53342e-10
4.94504e-16
-2.16487e-10
-2.35498e-10
4.52205e-16
-1.97465e-10
-2.1841e-10
4.04858e-16
-1.79327e-10
-2.01999e-10
3.62359e-16
-1.62104e-10
-1.86448e-10
3.10832e-16
-1.45819e-10
-1.71733e-10
2.63685e-16
-1.30472e-10
-1.57912e-10
2.11111e-16
-1.16034e-10
-1.45122e-10
1.65112e-16
-1.02481e-10
-1.33248e-10
1.21977e-16
-8.97639e-11
-1.22381e-10
7.45221e-17
-7.78379e-11
-1.12431e-10
3.30672e-17
-6.6654e-11
-1.03333e-10
-3.44049e-18
-5.61649e-11
-9.49595e-11
-3.65666e-17
-4.63428e-11
-8.70386e-11
-6.34942e-17
-3.71771e-11
-7.9276e-11
-8.41356e-17
-2.86889e-11
-7.1249e-11
-9.81088e-17
-2.09453e-11
-6.24172e-11
-1.05187e-16
-1.40709e-11
-5.22062e-11
-1.07594e-16
-8.25912e-12
-4.01599e-11
-1.05045e-16
-3.77488e-12
-2.62434e-11
-1.02191e-16
-9.31532e-13
-1.16703e-11
-9.67945e-17
-4.53562e-14
-9.29016e-17
-4.19655e-10
-4.90755e-10
-1.35606e-16
-4.3572e-10
-5.00127e-10
-1.97628e-16
-4.47892e-10
-5.05756e-10
-4.58339e-16
-4.56095e-10
-5.07699e-10
-5.44864e-16
-4.60358e-10
-5.06236e-10
-5.50281e-16
-4.60806e-10
-5.01572e-10
-4.87852e-16
-4.57649e-10
-4.94044e-10
-4.5279e-16
-4.51159e-10
-4.83974e-10
-3.13623e-16
-4.41666e-10
-4.71657e-10
-1.9295e-16
-4.29525e-10
-4.57516e-10
-2.58448e-17
-4.15114e-10
-4.41789e-10
1.3457e-16
-3.98811e-10
-4.24835e-10
2.65254e-16
-3.80996e-10
-4.06934e-10
3.77741e-16
-3.62029e-10
-3.88328e-10
4.54649e-16
-3.42246e-10
-3.69255e-10
5.12899e-16
-3.21957e-10
-3.49914e-10
5.32921e-16
-3.01436e-10
-3.30495e-10
5.44883e-16
-2.80929e-10
-3.11144e-10
5.23296e-16
-2.60648e-10
-2.92011e-10
5.09741e-16
-2.40768e-10
-2.73216e-10
4.67062e-16
-2.2144e-10
-2.54823e-10
4.30382e-16
-2.02767e-10
-2.37078e-10
3.8715e-16
-1.84843e-10
-2.1992e-10
3.47236e-16
-1.67718e-10
-2.0357e-10
2.98501e-16
-1.51432e-10
-1.88017e-10
2.53389e-16
-1.35998e-10
-1.73345e-10
2.02997e-16
-1.214e-10
-1.59717e-10
1.58736e-16
-1.07627e-10
-1.47021e-10
1.17205e-16
-9.46402e-11
-1.35367e-10
7.10303e-17
-8.24015e-11
-1.24669e-10
3.12601e-17
-7.08692e-11
-1.14866e-10
-3.76729e-18
-6.00009e-11
-1.05828e-10
-3.578e-17
-4.97723e-11
-9.72681e-11
-6.18485e-17
-4.0175e-11
-8.88744e-11
-8.16164e-17
-3.1231e-11
-8.01942e-11
-9.51125e-17
-2.30087e-11
-7.0641e-11
-1.01792e-16
-1.56366e-11
-5.95799e-11
-1.04211e-16
-9.32045e-12
-4.64778e-11
-1.01678e-16
-4.35528e-12
-3.12103e-11
-9.9018e-17
-1.11945e-12
-1.49079e-11
-9.37559e-17
-1.16644e-12
-8.98547e-17
-3.83918e-10
-4.70409e-10
-1.05918e-15
-4.01132e-10
-4.82922e-10
-9.91026e-16
-4.14954e-10
-4.91943e-10
-1.15057e-15
-4.25232e-10
-4.97432e-10
-1.17143e-15
-4.31908e-10
-4.9957e-10
-1.10763e-15
-4.35017e-10
-4.98471e-10
-9.74106e-16
-4.3468e-10
-4.94389e-10
-8.72387e-16
-4.31083e-10
-4.87575e-10
-6.60093e-16
-4.2448e-10
-4.78265e-10
-4.84658e-16
-4.15158e-10
-4.6684e-10
-2.58716e-16
-4.03441e-10
-4.53507e-10
-6.1449e-17
-3.89665e-10
-4.38609e-10
1.12275e-16
-3.74178e-10
-4.22418e-10
2.51533e-16
-3.5732e-10
-4.05183e-10
3.5574e-16
-3.39417e-10
-3.87155e-10
4.31493e-16
-3.20775e-10
-3.68552e-10
4.68967e-16
-3.01675e-10
-3.49591e-10
4.91977e-16
-2.8237e-10
-3.30443e-10
4.824e-16
-2.63086e-10
-3.11291e-10
4.74951e-16
-2.44013e-10
-2.92285e-10
4.40121e-16
-2.25318e-10
-2.73515e-10
4.08479e-16
-2.07121e-10
-2.5527e-10
3.69148e-16
-1.89534e-10
-2.37505e-10
3.31589e-16
-1.72623e-10
-2.20477e-10
2.85754e-16
-1.56442e-10
-2.04196e-10
2.42588e-16
-1.41019e-10
-1.88766e-10
1.94494e-16
-1.26352e-10
-1.74382e-10
1.52276e-16
-1.12439e-10
-1.60933e-10
1.1258e-16
-9.92523e-11
-1.48552e-10
6.71506e-17
-8.67627e-11
-1.37158e-10
2.91271e-17
-7.49354e-11
-1.26693e-10
-4.27076e-18
-6.37333e-11
-1.1703e-10
-3.4935e-17
-5.31364e-11
-1.07866e-10
-5.9936e-17
-4.31384e-11
-9.88735e-11
-7.89374e-17
-3.37624e-11
-8.95714e-11
-9.17542e-17
-2.50781e-11
-7.93268e-11
-9.82505e-17
-1.72176e-11
-6.74419e-11
-1.00634e-16
-1.03991e-11
-5.3298e-11
-9.80946e-17
-4.94855e-12
-3.66624e-11
-9.5515e-17
-1.31255e-12
-1.85455e-11
-9.0573e-17
-2.48057e-12
-8.68602e-17
-3.51061e-10
-4.49864e-10
-6.15132e-16
-3.68964e-10
-4.65025e-10
-6.82624e-16
-3.83934e-10
-4.76979e-10
-8.85918e-16
-3.95767e-10
-4.85607e-10
-9.6109e-16
-4.04343e-10
-4.91001e-10
-9.52291e-16
-4.09628e-10
-4.93193e-10
-8.8802e-16
-4.11667e-10
-4.92357e-10
-8.55699e-16
-4.10575e-10
-4.88672e-10
-6.9563e-16
-4.06532e-10
-4.82313e-10
-5.64278e-16
-3.99764e-10
-4.73611e-10
-3.56031e-16
-3.9054e-10
-4.62734e-10
-1.7199e-16
-3.79148e-10
-4.49998e-10
9.80058e-18
-3.65902e-10
-4.35662e-10
1.55504e-16
-3.51113e-10
-4.19969e-10
2.74119e-16
-3.35091e-10
-4.03173e-10
3.60538e-16
-3.18133e-10
-3.85507e-10
4.10904e-16
-3.00516e-10
-3.67204e-10