/*--------------------------------*- C++ -*----------------------------------*\
| =========                 |                                                 |
| \\      /  F ield         | OpenFOAM: The Open Source CFD Toolbox           |
|  \\    /   O peration     | Version:  v2012                                 |
|   \\  /    A nd           | Website:  www.openfoam.com                      |
|    \\/     M anipulation  |                                                 |
\*---------------------------------------------------------------------------*/
FoamFile
{
    version     2.0;
    format      ascii;
    class       volVectorField;
    location    "0.75";
    object      U;
}
// * * * * * * * * * * * * * * * * * * * * * * * * * * * * * * * * * * * * * //

dimensions      [0 1 -1 0 0 0 0];


internalField   nonuniform List<vector> 
3320
(
(-0.0175342 -0.000429591 0.000153066)
(-0.0134638 -0.00028017 0.000117531)
(-0.0103257 -0.00017967 9.01406e-05)
(-0.0081086 -0.000127117 7.07855e-05)
(-0.00640572 -8.90509e-05 5.59208e-05)
(-0.00512604 -6.58897e-05 4.47493e-05)
(-0.00413004 -4.87739e-05 3.60546e-05)
(-0.00335437 -3.71005e-05 2.92831e-05)
(-0.00274032 -2.84177e-05 2.39226e-05)
(-0.00225114 -2.21091e-05 1.96521e-05)
(-0.00185764 -1.73546e-05 1.6217e-05)
(-0.00153896 -1.37723e-05 1.34349e-05)
(-0.00127906 -1.10246e-05 1.11661e-05)
(-0.00106584 -8.89911e-06 9.30475e-06)
(-0.000889963 -7.23549e-06 7.76935e-06)
(-0.000744167 -5.92054e-06 6.49658e-06)
(-0.000622791 -4.87108e-06 5.43699e-06)
(-0.000521362 -4.02561e-06 4.55152e-06)
(-0.000436335 -3.3388e-06 3.80925e-06)
(-0.000364872 -2.77654e-06 3.18538e-06)
(-0.000304694 -2.31299e-06 2.66004e-06)
(-0.00025395 -1.92883e-06 2.21704e-06)
(-0.000211132 -1.60888e-06 1.84325e-06)
(-0.000174988 -1.34169e-06 1.52771e-06)
(-0.000144484 -1.11801e-06 1.26141e-06)
(-0.000118753 -9.30704e-07 1.03677e-06)
(-9.70643e-05 -7.73999e-07 8.47433e-07)
(-7.88021e-05 -6.43299e-07 6.88005e-07)
(-6.34344e-05 -5.34557e-07 5.5384e-07)
(-5.05103e-05 -4.44587e-07 4.41016e-07)
(-3.96448e-05 -3.70365e-07 3.46156e-07)
(-3.051e-05 -3.09434e-07 2.66406e-07)
(-2.28313e-05 -2.59259e-07 1.99372e-07)
(-1.63822e-05 -2.17491e-07 1.43067e-07)
(-1.09861e-05 -1.81724e-07 9.59571e-08)
(-6.51529e-06 -1.49671e-07 5.69214e-08)
(-2.89504e-06 -1.18529e-07 2.53093e-08)
(-1.01215e-07 -8.63488e-08 9.09986e-10)
(1.82819e-06 -4.95014e-08 -1.59468e-08)
(2.83011e-06 -9.23182e-09 -2.47091e-08)
(2.80972e-06 3.73134e-08 -2.45442e-08)
(1.84101e-06 7.04565e-08 -1.61082e-08)
(4.33651e-07 8.40334e-08 -4.10286e-09)
(-0.0449819 -0.00776889 0.000392711)
(-0.0352924 -0.00532811 0.000308113)
(-0.0277461 -0.00374314 0.000242234)
(-0.0221127 -0.00267493 0.00019305)
(-0.0177214 -0.00194614 0.000154714)
(-0.0143289 -0.00143832 0.000125096)
(-0.0116536 -0.00107782 0.00010174)
(-0.00953762 -0.000817938 8.32663e-05)
(-0.00784485 -0.000627539 6.84879e-05)
(-0.0064825 -0.000486301 5.65942e-05)
(-0.00537761 -0.000380209 4.69482e-05)
(-0.00447608 -0.000299696 3.90776e-05)
(-0.00373608 -0.000237983 3.26173e-05)
(-0.00312546 -0.000190259 2.72864e-05)
(-0.00261916 -0.000153037 2.28662e-05)
(-0.00219752 -0.000123774 1.91852e-05)
(-0.00184504 -0.000100594 1.61079e-05)
(-0.00154938 -8.20993e-05 1.35268e-05)
(-0.00130069 -6.72428e-05 1.13557e-05)
(-0.00109102 -5.52333e-05 9.52516e-06)
(-0.000913934 -4.54691e-05 7.9792e-06)
(-0.000764192 -3.74906e-05 6.6719e-06)
(-0.000637492 -3.0944e-05 5.56578e-06)
(-0.00053025 -2.5554e-05 4.62951e-06)
(-0.000439492 -2.11058e-05 3.83716e-06)
(-0.000362721 -1.74302e-05 3.16692e-06)
(-0.000297825 -1.43926e-05 2.60035e-06)
(-0.00024302 -1.18849e-05 2.12187e-06)
(-0.00019676 -9.8178e-06 1.71799e-06)
(-0.000157737 -8.11811e-06 1.37731e-06)
(-0.00012483 -6.72327e-06 1.09e-06)
(-9.7082e-05 -5.57954e-06 8.47745e-07)
(-7.3692e-05 -4.63896e-06 6.43536e-07)
(-5.39954e-05 -3.85785e-06 4.71569e-07)
(-3.74721e-05 -3.19532e-06 3.27308e-07)
(-2.37413e-05 -2.61252e-06 2.0742e-07)
(-1.25693e-05 -2.07111e-06 1.09868e-07)
(-3.86422e-06 -1.53733e-06 3.3849e-08)
(2.30488e-06 -9.80158e-07 -2.00395e-08)
(5.80155e-06 -3.95818e-07 -5.0604e-08)
(6.4335e-06 1.93096e-07 -5.61631e-08)
(4.43515e-06 6.13787e-07 -3.87921e-08)
(1.02726e-06 5.79269e-07 -9.84095e-09)
(-0.0620529 -0.0174954 0.000541731)
(-0.0501253 -0.012624 0.000437599)
(-0.0404561 -0.00924241 0.00035319)
(-0.0328859 -0.00682669 0.0002871)
(-0.0268073 -0.00510113 0.000234034)
(-0.0219702 -0.00384888 0.000191805)
(-0.0180743 -0.00293277 0.000157793)
(-0.0149335 -0.00225491 0.000130373)
(-0.0123831 -0.00174855 0.000108108)
(-0.0103038 -0.00136668 8.99552e-05)
(-0.00859927 -0.00107611 7.50741e-05)
(-0.00719553 -0.000853182 6.28192e-05)
(-0.00603412 -0.000680768 5.26799e-05)
(-0.00506914 -0.000546419 4.42554e-05)
(-0.00426417 -0.000440963 3.72278e-05)
(-0.00359025 -0.000357611 3.13443e-05)
(-0.00302423 -0.000291285 2.64028e-05)
(-0.00254746 -0.000238169 2.22405e-05)
(-0.00214493 -0.00019537 1.87263e-05)
(-0.00180439 -0.000160686 1.57533e-05)
(-0.00151588 -0.000132432 1.32346e-05)
(-0.00127119 -0.000109308 1.10984e-05)
(-0.00106358 -9.03096e-05 9.28581e-06)
(-0.000887367 -7.46518e-05 7.74744e-06)
(-0.000737849 -6.17187e-05 6.44209e-06)
(-0.000611039 -5.10233e-05 5.33498e-06)
(-0.000503561 -4.21769e-05 4.39665e-06)
(-0.000412552 -3.48669e-05 3.6021e-06)
(-0.00033553 -2.88345e-05 2.92965e-06)
(-0.000270382 -2.38672e-05 2.36088e-06)
(-0.0002153 -1.97842e-05 1.87998e-06)
(-0.000168737 -1.64294e-05 1.47344e-06)
(-0.000129389 -1.36649e-05 1.12991e-06)
(-9.61771e-05 -1.13651e-05 8.39945e-07)
(-6.82491e-05 -9.41347e-06 5.96112e-07)
(-4.4976e-05 -7.69999e-06 3.92909e-07)
(-2.5958e-05 -6.11871e-06 2.26849e-07)
(-1.10179e-05 -4.57557e-06 9.63841e-08)
(-2.19792e-07 -2.99204e-06 2.06682e-09)
(6.27051e-06 -1.35504e-06 -5.46533e-08)
(8.22362e-06 2.58052e-07 -7.1772e-08)
(6.033e-06 1.43355e-06 -5.27627e-08)
(1.40708e-06 1.43026e-06 -1.35536e-08)
(-0.0717587 -0.0270205 0.000626441)
(-0.059357 -0.0202435 0.000518177)
(-0.048979 -0.0152892 0.000427584)
(-0.0405466 -0.0115983 0.000353971)
(-0.0335939 -0.00886301 0.000293276)
(-0.0279138 -0.00681505 0.000243689)
(-0.0232421 -0.00527686 0.000202906)
(-0.0194031 -0.00411265 0.000169392)
(-0.0162352 -0.00322629 0.000141736)
(-0.0136156 -0.00254679 0.000118866)
(-0.0114416 -0.00202252 9.98877e-05)
(-0.00963211 -0.00161538 8.40906e-05)
(-0.00812099 -0.0012972 7.08985e-05)
(-0.0068552 -0.001047 5.98479e-05)
(-0.00579172 -0.00084904 5.05635e-05)
(-0.00489575 -0.000691481 4.27415e-05)
(-0.00413901 -0.000565341 3.61351e-05)
(-0.00349844 -0.00046378 3.05429e-05)
(-0.0029552 -0.000381561 2.58002e-05)
(-0.00249377 -0.000314658 2.17719e-05)
(-0.0021014 -0.000259958 1.83465e-05)
(-0.0017675 -0.000215048 1.54314e-05)
(-0.00148329 -0.000178047 1.29502e-05)
(-0.00124135 -0.000147473 1.08379e-05)
(-0.00103545 -0.000122162 9.04042e-06)
(-0.000860337 -0.000101184 7.51157e-06)
(-0.000711503 -8.37977e-05 6.21219e-06)
(-0.000585127 -6.94015e-05 5.10887e-06)
(-0.00047788 -5.74971e-05 4.17254e-06)
(-0.000386921 -4.76734e-05 3.37843e-06)
(-0.000309811 -3.95803e-05 2.70521e-06)
(-0.000244456 -3.29151e-05 2.13461e-06)
(-0.00018909 -2.74097e-05 1.65123e-06)
(-0.000142242 -2.28202e-05 1.24222e-06)
(-0.000102747 -1.89211e-05 8.97395e-07)
(-6.97355e-05 -1.54997e-05 6.09164e-07)
(-4.2639e-05 -1.23535e-05 3.72568e-07)
(-2.1182e-05 -9.3028e-06 1.85198e-07)
(-5.39729e-06 -6.20427e-06 4.73321e-08)
(4.55215e-06 -3.03149e-06 -3.96049e-08)
(8.43327e-06 5.90156e-08 -7.35776e-08)
(6.78343e-06 2.34778e-06 -5.93202e-08)
(1.63249e-06 2.49302e-06 -1.57462e-08)
(-0.0745122 -0.0350973 0.000650461)
(-0.0632767 -0.0271205 0.000552384)
(-0.0534703 -0.0210367 0.000466782)
(-0.0451614 -0.016344 0.00039425)
(-0.0380842 -0.0127502 0.00033247)
(-0.0321265 -0.00998259 0.000280462)
(-0.0271046 -0.00785109 0.000236622)
(-0.0228871 -0.00620231 0.000199804)
(-0.0193421 -0.00492299 0.000168857)
(-0.0163629 -0.00392591 0.000142849)
(-0.013856 -0.0031455 0.000120964)
(-0.0117439 -0.0025318 0.000102526)
(-0.00996119 -0.0020469 8.69632e-05)
(-0.00845395 -0.00166191 7.38049e-05)
(-0.00717719 -0.00135473 6.26586e-05)
(-0.00609372 -0.0011084 5.31999e-05)
(-0.00517271 -0.000909883 4.51595e-05)
(-0.00438864 -0.00074912 3.83144e-05)
(-0.00372026 -0.000618304 3.24795e-05)
(-0.00314994 -0.000511373 2.75004e-05)
(-0.00266293 -0.000423596 2.32488e-05)
(-0.0022469 -0.000351272 1.96167e-05)
(-0.00189151 -0.000291495 1.65142e-05)
(-0.00158797 -0.000241962 1.38641e-05)
(-0.00132882 -0.000200847 1.16017e-05)
(-0.00110774 -0.000166692 9.67162e-06)
(-0.000919287 -0.000138319 8.02632e-06)
(-0.0007588 -0.000114776 6.6252e-06)
(-0.000622214 -9.52654e-05 5.43273e-06)
(-0.000506045 -7.91298e-05 4.41853e-06)
(-0.00040729 -6.58073e-05 3.55634e-06)
(-0.000323363 -5.48101e-05 2.8236e-06)
(-0.000252076 -4.57063e-05 2.20122e-06)
(-0.000191598 -3.81023e-05 1.67321e-06)
(-0.000140472 -3.16345e-05 1.22684e-06)
(-9.75991e-05 -2.5961e-05 8.52511e-07)
(-6.22446e-05 -2.07581e-05 5.43814e-07)
(-3.40265e-05 -1.57394e-05 2.97409e-07)
(-1.2928e-05 -1.06824e-05 1.1314e-07)
(9.12946e-07 -5.54309e-06 -7.78554e-09)
(7.27478e-06 -5.73225e-07 -6.34343e-08)
(6.81365e-06 3.16415e-06 -5.95759e-08)
(1.74385e-06 3.62784e-06 -1.67872e-08)
(-0.0739294 -0.0409891 0.000645355)
(-0.0641062 -0.0325853 0.000559611)
(-0.0552544 -0.0259127 0.000482346)
(-0.0474989 -0.0205908 0.000414647)
(-0.0407083 -0.016385 0.000355371)
(-0.0348383 -0.0130565 0.00030413)
(-0.0297756 -0.0104291 0.000259936)
(-0.0254335 -0.00835231 0.000222031)
(-0.0217157 -0.00670969 0.000189577)
(-0.0185392 -0.00540765 0.000161847)
(-0.0158269 -0.00437322 0.000138169)
(-0.0135119 -0.00354897 0.000117959)
(-0.0115354 -0.00289008 0.000100705)
(-0.00984716 -0.00236152 8.59672e-05)
(-0.00840414 -0.00193589 7.33696e-05)
(-0.0071697 -0.0015918 6.25931e-05)
(-0.00611287 -0.0013125 5.33669e-05)
(-0.0052074 -0.00108485 4.54622e-05)
(-0.00443112 -0.000898562 3.86853e-05)
(-0.00376531 -0.000745515 3.28727e-05)
(-0.0031941 -0.00061932 2.7886e-05)
(-0.00270406 -0.000514927 2.36079e-05)
(-0.00228379 -0.000428342 1.99389e-05)
(-0.00192352 -0.000356366 1.67936e-05)
(-0.00161488 -0.000296453 1.40991e-05)
(-0.0013507 -0.000246552 1.17928e-05)
(-0.00112479 -0.000204998 9.82049e-06)
(-0.000931812 -0.000170437 8.13574e-06)
(-0.000767079 -0.000141733 6.69755e-06)
(-0.000626557 -0.000117942 5.47073e-06)
(-0.000506753 -9.82545e-05 4.42478e-06)
(-0.000404649 -8.19673e-05 3.53335e-06)
(-0.000317681 -6.84553e-05 2.77407e-06)
(-0.000243694 -5.71485e-05 2.12811e-06)
(-0.000180962 -4.75203e-05 1.58042e-06)
(-0.000128174 -3.90762e-05 1.11952e-06)
(-8.44337e-05 -3.13506e-05 7.37612e-07)
(-4.92492e-05 -2.39321e-05 4.3038e-07)
(-2.25422e-05 -1.65061e-05 1.97138e-07)
(-4.41297e-06 -9.00541e-06 3.8762e-08)
(4.9313e-06 -1.78752e-06 -4.294e-08)
(6.23317e-06 3.72447e-06 -5.44866e-08)
(1.76833e-06 4.73108e-06 -1.69436e-08)
(-0.0703341 -0.0451097 0.000613958)
(-0.0623014 -0.0367042 0.000543845)
(-0.0547749 -0.0298138 0.000478151)
(-0.0479291 -0.0241646 0.000418395)
(-0.0417461 -0.0195777 0.000364425)
(-0.0362467 -0.0158587 0.00031642)
(-0.0313857 -0.0128561 0.000273987)
(-0.0271233 -0.010434 0.00023678)
(-0.0234023 -0.00848249 0.000204298)
(-0.0201675 -0.0069097 0.000176059)
(-0.0173626 -0.00564134 0.000151574)
(-0.0149355 -0.00461705 0.000130387)
(-0.012838 -0.00378834 0.000112076)
(-0.0110268 -0.00311635 9.6265e-05)
(-0.00946364 -0.00256999 8.26186e-05)
(-0.00811481 -0.00212446 7.08435e-05)
(-0.00695107 -0.00176002 6.06842e-05)
(-0.00594708 -0.00146093 5.19195e-05)
(-0.00508097 -0.00121466 4.43585e-05)
(-0.00433393 -0.00101122 3.78368e-05)
(-0.00368976 -0.000842652 3.22132e-05)
(-0.00313455 -0.000702596 2.73661e-05)
(-0.00265636 -0.000585979 2.31915e-05)
(-0.00224479 -0.000488701 1.95984e-05)
(-0.0018909 -0.000407473 1.65089e-05)
(-0.00158692 -0.000339624 1.38551e-05)
(-0.00132609 -0.000282977 1.1578e-05)
(-0.00110256 -0.000235747 9.62648e-06)
(-0.000911139 -0.000196429 7.9553e-06)
(-0.000747345 -0.000163765 6.52533e-06)
(-0.000607278 -0.000136675 5.30248e-06)
(-0.000487549 -0.000114213 4.25717e-06)
(-0.00038527 -9.5539e-05 3.36422e-06)
(-0.000298 -7.98843e-05 2.6023e-06)
(-0.000223773 -6.65386e-05 1.95425e-06)
(-0.000161082 -5.48355e-05 1.4069e-06)
(-0.00010888 -4.4149e-05 9.51111e-07)
(-6.65639e-05 -3.39274e-05 5.81615e-07)
(-3.39896e-05 -2.37525e-05 2.97141e-07)
(-1.12137e-05 -1.35268e-05 9.81892e-08)
(1.56482e-06 -3.71485e-06 -1.35085e-08)
(5.13757e-06 3.89424e-06 -4.48887e-08)
(1.72635e-06 5.7202e-06 -1.64184e-08)
(-0.0658719 -0.0473802 0.000574994)
(-0.0593463 -0.0393931 0.000518039)
(-0.0530433 -0.0326391 0.000463026)
(-0.0471329 -0.0269498 0.000411437)
(-0.0416516 -0.0222083 0.000363593)
(-0.0366515 -0.018273 0.000319948)
(-0.0321305 -0.0150256 0.000280485)
(-0.0280824 -0.0123538 0.000245149)
(-0.024481 -0.0101619 0.000213711)
(-0.0212957 -0.00836603 0.000185906)
(-0.0184906 -0.00689603 0.000161419)
(-0.0160291 -0.00569276 0.000139932)
(-0.0138749 -0.00470727 0.000121127)
(-0.0119937 -0.00389926 0.000104705)
(-0.0103534 -0.00323571 9.03857e-05)
(-0.00892513 -0.00268973 7.79171e-05)
(-0.00768268 -0.00223948 6.70709e-05)
(-0.00660286 -0.00186726 5.76443e-05)
(-0.00566513 -0.00155876 4.9458e-05)
(-0.00485142 -0.00130241 4.23544e-05)
(-0.00414593 -0.00108888 3.61955e-05)
(-0.00353483 -0.000910634 3.08606e-05)
(-0.00300609 -0.000761591 2.62447e-05)
(-0.00254908 -0.000636795 2.2255e-05)
(-0.00215455 -0.000532235 1.88107e-05)
(-0.0018144 -0.00044463 1.58411e-05)
(-0.00152148 -0.000371282 1.32839e-05)
(-0.00126959 -0.000309966 1.10848e-05)
(-0.00105317 -0.000258797 9.19534e-06)
(-0.000867383 -0.000216185 7.57336e-06)
(-0.000708004 -0.000180763 6.18192e-06)
(-0.000571344 -0.000151327 4.9888e-06)
(-0.000454242 -0.000126803 3.96644e-06)
(-0.000354011 -0.000106206 3.09137e-06)
(-0.000268478 -8.86274e-05 2.34462e-06)
(-0.000195961 -7.32119e-05 1.71149e-06)
(-0.000135271 -5.91588e-05 1.18159e-06)
(-8.57012e-05 -4.57623e-05 7.4876e-07)
(-4.70385e-05 -3.24894e-05 4.11128e-07)
(-1.92975e-05 -1.92045e-05 1.6882e-07)
(-2.68132e-06 -6.47203e-06 2.3608e-08)
(3.60906e-06 3.55619e-06 -3.15014e-08)
(1.63375e-06 6.52619e-06 -1.53683e-08)
(-0.0605029 -0.0484535 0.000528121)
(-0.0554297 -0.041015 0.000483844)
(-0.0503414 -0.0345666 0.000439433)
(-0.0454018 -0.029011 0.00039632)
(-0.0406846 -0.0242761 0.000355147)
(-0.0362649 -0.0202637 0.000316569)
(-0.0321736 -0.0168866 0.000280857)
(-0.028431 -0.0140565 0.000248188)
(-0.0250367 -0.0116945 0.00021856)
(-0.0219819 -0.00972845 0.000191895)
(-0.0192492 -0.00809548 0.00016804)
(-0.0168167 -0.0067408 0.000146806)
(-0.0146604 -0.00561763 0.000127983)
(-0.0127553 -0.00468638 0.000111352)
(-0.0110767 -0.00391379 9.66988e-05)
(-0.00960105 -0.00327217 8.38173e-05)
(-0.00830641 -0.00273859 7.25155e-05)
(-0.00717249 -0.00229411 6.26168e-05)
(-0.00618086 -0.00192317 5.39601e-05)
(-0.00531492 -0.00161303 4.64005e-05)
(-0.0045598 -0.00135325 3.98084e-05)
(-0.00390224 -0.00113531 3.40681e-05)
(-0.00333054 -0.000952262 2.90772e-05)
(-0.00283418 -0.000798374 2.47439e-05)
(-0.00240389 -0.000668972 2.09874e-05)
(-0.00203142 -0.000560198 1.77357e-05)
(-0.00170948 -0.000468854 1.49251e-05)
(-0.00143163 -0.000392284 1.24995e-05)
(-0.00119208 -0.000328217 1.04081e-05)
(-0.000985736 -0.000274735 8.60666e-06)
(-0.000808139 -0.00023017 7.05618e-06)
(-0.000655364 -0.000193051 5.72238e-06)
(-0.00052403 -0.00016206 4.57578e-06)
(-0.000411251 -0.000135986 3.59116e-06)
(-0.000314674 -0.000113705 2.748e-06)
(-0.000232467 -9.41635e-05 2.03026e-06)
(-0.000163313 -7.63732e-05 1.42647e-06)
(-0.000106408 -5.94631e-05 9.29607e-07)
(-6.14753e-05 -4.27749e-05 5.37232e-07)
(-2.84911e-05 -2.61239e-05 2.49144e-07)
(-7.68112e-06 -1.01635e-05 6.7309e-08)
(1.71805e-06 2.60848e-06 -1.49409e-08)
(1.50283e-06 7.09124e-06 -1.39154e-08)
(-0.0552784 -0.0483862 0.000482509)
(-0.0513321 -0.0416469 0.000448069)
(-0.0472483 -0.0356596 0.000412427)
(-0.0431655 -0.0303856 0.000376793)
(-0.0391644 -0.0257928 0.000341871)
(-0.0353237 -0.0218224 0.000308348)
(-0.0316894 -0.0184168 0.000276626)
(-0.0282964 -0.0155122 0.00024701)
(-0.0251615 -0.0130475 0.000219646)
(-0.0222915 -0.0109644 0.000194594)
(-0.0196837 -0.00920929 0.000171831)
(-0.0173292 -0.00773399 0.000151278)
(-0.0152147 -0.00649584 0.000132821)
(-0.0133244 -0.00545769 0.00011632)
(-0.0116409 -0.00458751 0.000101623)
(-0.0101465 -0.00385802 8.85782e-05)
(-0.00882376 -0.0032461 7.70315e-05)
(-0.00765594 -0.00273236 6.68369e-05)
(-0.00662722 -0.00230057 5.78565e-05)
(-0.00572292 -0.00193722 4.99622e-05)
(-0.00492959 -0.00163109 4.30366e-05)
(-0.00423493 -0.00137292 3.69723e-05)
(-0.0036279 -0.00115505 3.16731e-05)
(-0.00309838 -0.000971119 2.70503e-05)
(-0.00263731 -0.000815861 2.30252e-05)
(-0.00223656 -0.000684901 1.95266e-05)
(-0.00188881 -0.000574581 1.64907e-05)
(-0.00158756 -0.000481835 1.38608e-05)
(-0.00132689 -0.000404026 1.1585e-05)
(-0.00110156 -0.000338904 9.61789e-06)
(-0.00090696 -0.000284509 7.91896e-06)
(-0.000738991 -0.000239098 6.45251e-06)
(-0.000594109 -0.000201102 5.18764e-06)
(-0.00046927 -0.000169075 4.09774e-06)
(-0.000361978 -0.000141674 3.16103e-06)
(-0.000270272 -0.000117635 2.36037e-06)
(-0.000192726 -9.57745e-05 1.68333e-06)
(-0.000128448 -7.50465e-05 1.12209e-06)
(-7.71032e-05 -5.46569e-05 6.73734e-07)
(-3.86388e-05 -3.43594e-05 3.378e-07)
(-1.3324e-05 -1.48806e-05 1.16629e-07)
(-4.75721e-07 9.63876e-07 4.27025e-09)
(1.34288e-06 7.36692e-06 -1.21531e-08)
(-0.0438864 -0.0361238 0.000383076)
(-0.0405879 -0.0311984 0.000354288)
(-0.0372603 -0.0268278 0.000325245)
(-0.0339825 -0.0229815 0.000296637)
(-0.0308095 -0.0196248 0.000268943)
(-0.0277854 -0.0167145 0.000242547)
(-0.0249386 -0.0142063 0.000217698)
(-0.0222875 -0.0120551 0.000194558)
(-0.0198408 -0.0102175 0.000173201)
(-0.0176001 -0.00865288 0.000153642)
(-0.0155614 -0.00732392 0.000135846)
(-0.0137171 -0.00619718 0.000119746)
(-0.0120566 -0.00524298 0.000105252)
(-0.010568 -0.00443542 9.22576e-05)
(-0.00923856 -0.00375209 8.06519e-05)
(-0.0080551 -0.0031738 7.0321e-05)
(-0.00700477 -0.0026842 6.11521e-05)
(-0.00607517 -0.00226945 5.3037e-05)
(-0.00525453 -0.00191792 4.58731e-05)
(-0.00453184 -0.00161984 3.95641e-05)
(-0.00389696 -0.00136707 3.40218e-05)
(-0.00334043 -0.00115272 2.91633e-05)
(-0.00285363 -0.000971062 2.49136e-05)
(-0.00242868 -0.000817284 2.12038e-05)
(-0.00205843 -0.000687315 1.79715e-05)
(-0.00173643 -0.000577723 1.51604e-05)
(-0.00145675 -0.000485523 1.27188e-05)
(-0.00121412 -0.000408155 1.06006e-05)
(-0.00100382 -0.000343369 8.76458e-06)
(-0.00082166 -0.000289155 7.17428e-06)
(-0.000663991 -0.000243696 5.79777e-06)
(-0.000527649 -0.000205307 4.60746e-06)
(-0.00041003 -0.00017242 3.5806e-06)
(-0.000309069 -0.000143558 2.69915e-06)
(-0.000223249 -0.000117334 1.94987e-06)
(-0.000151601 -9.25191e-05 1.32428e-06)
(-9.37412e-05 -6.81736e-05 8.19056e-07)
(-4.96003e-05 -4.3975e-05 4.33563e-07)
(-1.95132e-05 -2.07025e-05 1.70721e-07)
(-2.92207e-06 -1.45295e-06 2.56924e-08)
(1.1606e-06 7.31372e-06 -1.01507e-08)
(-0.0405436 -0.0360485 0.000353893)
(-0.0379002 -0.0315244 0.000330823)
(-0.03516 -0.0274363 0.000306908)
(-0.0323942 -0.0237765 0.000282769)
(-0.0296577 -0.0205294 0.000258885)
(-0.026997 -0.0176698 0.000235661)
(-0.0244462 -0.0151683 0.000213397)
(-0.0220306 -0.0129924 0.000192313)
(-0.0197667 -0.0111088 0.000172552)
(-0.0176639 -0.00948478 0.000154197)
(-0.0157258 -0.00808908 0.00013728)
(-0.0139515 -0.0068927 0.000121792)
(-0.0123365 -0.00586911 0.000107695)
(-0.0108743 -0.00499457 9.49303e-05)
(-0.00955635 -0.00424805 8.34256e-05)
(-0.00837334 -0.00361116 7.30987e-05)
(-0.00731538 -0.00306794 6.38633e-05)
(-0.00637245 -0.00260465 5.56319e-05)
(-0.0055347 -0.00220956 4.83187e-05)
(-0.00479258 -0.00187266 4.18402e-05)
(-0.00413707 -0.00158552 3.61178e-05)
(-0.00355953 -0.00134091 3.1076e-05)
(-0.00305196 -0.00113276 2.6645e-05)
(-0.00260691 -0.000955889 2.27597e-05)
(-0.00221749 -0.000805899 1.93601e-05)
(-0.00187746 -0.00067903 1.63916e-05)
(-0.00158096 -0.000571988 1.38031e-05)
(-0.00132276 -0.000481922 1.1549e-05)
(-0.00109814 -0.000406313 9.58803e-06)
(-0.000902866 -0.000342891 7.88325e-06)
(-0.000733232 -0.000289594 6.4023e-06)
(-0.000586002 -0.0002445 5.11694e-06)
(-0.000458495 -0.000205818 4.00377e-06)
(-0.00034857 -0.000171853 3.04406e-06)
(-0.000254637 -0.000141013 2.22395e-06)
(-0.000175661 -0.000111878 1.53441e-06)
(-0.000111224 -8.33533e-05 9.71755e-07)
(-6.12503e-05 -5.50243e-05 5.35337e-07)
(-2.61646e-05 -2.76971e-05 2.28851e-07)
(-5.57894e-06 -4.70701e-06 4.89578e-08)
(9.61264e-07 6.89979e-06 -7.96247e-09)
(-0.0372538 -0.0355913 0.000325174)
(-0.0351774 -0.0314755 0.000307053)
(-0.032956 -0.0276957 0.000287667)
(-0.0306534 -0.0242586 0.000267571)
(-0.0283223 -0.0211624 0.000247225)
(-0.0260088 -0.0183954 0.000227033)
(-0.0237498 -0.0159406 0.000207316)
(-0.0215743 -0.0137764 0.000188328)
(-0.0195041 -0.0118788 0.000170258)
(-0.017554 -0.0102227 0.000153236)
(-0.0157332 -0.00878307 0.000137344)
(-0.0140465 -0.00753562 0.00012262)
(-0.0124945 -0.00645751 0.000109072)
(-0.0110751 -0.00552766 9.66824e-05)
(-0.00978397 -0.00472695 8.5412e-05)
(-0.00861524 -0.00403826 7.52098e-05)
(-0.00756193 -0.00344646 6.60152e-05)
(-0.00661646 -0.00293826 5.77618e-05)
(-0.00577094 -0.00250215 5.03808e-05)
(-0.0050174 -0.00212816 4.38027e-05)
(-0.00434808 -0.00180775 3.79597e-05)
(-0.0037553 -0.00153352 3.27849e-05)
(-0.00323178 -0.00129917 2.82147e-05)
(-0.00277064 -0.00109928 2.4189e-05)
(-0.00236538 -0.000929178 2.06511e-05)
(-0.00201002 -0.000784834 1.75489e-05)
(-0.00169892 -0.000662689 1.48329e-05)
(-0.00142693 -0.000559632 1.24585e-05)
(-0.00118942 -0.000472894 1.03849e-05)
(-0.000982157 -0.000399959 8.5755e-06)
(-0.000801431 -0.000338531 6.99772e-06)
(-0.000643976 -0.00028646 5.6231e-06)
(-0.000507066 -0.00024173 4.42785e-06)
(-0.00038851 -0.000202431 3.3928e-06)
(-0.000286662 -0.000166761 2.5036e-06)
(-0.000200441 -0.000133109 1.75081e-06)
(-0.000129402 -0.000100214 1.13051e-06)
(-7.34767e-05 -6.755e-05 6.42146e-07)
(-3.32054e-05 -3.59219e-05 2.90384e-07)
(-8.41152e-06 -8.85288e-06 7.37617e-08)
(7.48949e-07 6.09827e-06 -5.63005e-09)
(-0.0341452 -0.0348257 0.000298037)
(-0.0325304 -0.0311204 0.000283946)
(-0.0307467 -0.0276637 0.000268379)
(-0.0288476 -0.0244727 0.000251805)
(-0.0268804 -0.021556 0.000234636)
(-0.0248879 -0.0189126 0.000217246)
(-0.0229064 -0.0165357 0.000199952)
(-0.0209663 -0.0144129 0.000183018)
(-0.0190918 -0.0125284 0.000166657)
(-0.0173014 -0.0108643 0.00015103)
(-0.0156082 -0.00940145 0.000136251)
(-0.014021 -0.00812042 0.000122397)
(-0.0125447 -0.00700222 0.00010951)
(-0.011181 -0.00602876 9.7606e-05)
(-0.00992906 -0.00518316 8.66779e-05)
(-0.00878618 -0.00444996 7.67015e-05)
(-0.00774811 -0.00381516 6.764e-05)
(-0.0068096 -0.00326628 5.94474e-05)
(-0.00596471 -0.00279227 5.2072e-05)
(-0.0052071 -0.00238342 4.54585e-05)
(-0.00453031 -0.0020313 3.95504e-05)
(-0.00392772 -0.0017285 3.429e-05)
(-0.00339287 -0.00146862 2.96209e-05)
(-0.00291952 -0.00124608 2.54886e-05)
(-0.00250165 -0.00105603 2.18407e-05)
(-0.00213367 -0.000894226 1.86282e-05)
(-0.00181016 -0.000756897 1.5804e-05)
(-0.00152619 -0.000640705 1.3325e-05)
(-0.00127723 -0.000542653 1.11516e-05)
(-0.00105914 -0.000460004 9.24759e-06)
(-0.000868232 -0.000390237 7.58093e-06)
(-0.00070125 -0.000330982 6.12315e-06)
(-0.00055546 -0.000280007 4.85037e-06)
(-0.000428642 -0.00023519 3.7432e-06)
(-0.000319116 -0.000194521 2.78698e-06)
(-0.000225767 -0.000156191 1.97197e-06)
(-0.000148137 -0.000118764 1.29414e-06)
(-8.61805e-05 -8.15854e-05 7.53123e-07)
(-4.05733e-05 -4.54243e-05 3.54775e-07)
(-1.13916e-05 -1.39362e-05 9.98566e-08)
(5.26366e-07 4.88641e-06 -3.18249e-09)
(-0.031212 -0.0338552 0.000272432)
(-0.0299851 -0.030541 0.000261726)
(-0.0285753 -0.027404 0.000249423)
(-0.027028 -0.0244672 0.000235919)
(-0.0253847 -0.0217457 0.000221578)
(-0.0236844 -0.0192464 0.000206739)
(-0.0219617 -0.0169699 0.000191704)
(-0.0202464 -0.0149115 0.000176733)
(-0.0185638 -0.0130623 0.000162047)
(-0.0169342 -0.0114106 0.000147823)
(-0.0153734 -0.00994285 0.0001342)
(-0.0138931 -0.00864417 0.000121279)
(-0.0125013 -0.00749943 0.00010913)
(-0.0112028 -0.00649366 9.77956e-05)
(-0.00999973 -0.00561242 8.72941e-05)
(-0.0088921 -0.00484215 7.76257e-05)
(-0.00787816 -0.00417025 6.87748e-05)
(-0.00695481 -0.00358528 6.07146e-05)
(-0.00611797 -0.00307687 5.34096e-05)
(-0.0053629 -0.00263581 4.68183e-05)
(-0.00468446 -0.00225393 4.08959e-05)
(-0.00407711 -0.00192395 3.55939e-05)
(-0.00353528 -0.00163951 3.08639e-05)
(-0.00305341 -0.00139496 2.66574e-05)
(-0.00262607 -0.00118535 2.29268e-05)
(-0.00224808 -0.00100632 1.9627e-05)
(-0.00191434 -0.000853892 1.67135e-05)
(-0.00162018 -0.000724562 1.41455e-05)
(-0.00136124 -0.000615133 1.18849e-05)
(-0.00113348 -0.000522664 9.89661e-06)
(-0.000933322 -0.000444431 8.14919e-06)
(-0.000757541 -0.000377854 6.6146e-06)
(-0.00060342 -0.000320494 5.26911e-06)
(-0.000468741 -0.000270023 4.09332e-06)
(-0.000351806 -0.000224225 3.07243e-06)
(-0.000251482 -0.000181091 2.19652e-06)
(-0.000167306 -0.000139003 1.46156e-06)
(-9.92741e-05 -9.7154e-05 8.67504e-07)
(-4.82154e-05 -5.62432e-05 4.21561e-07)
(-1.44968e-05 -1.99955e-05 1.27047e-07)
(2.95098e-07 3.24523e-06 -6.3709e-10)
(-0.0285039 -0.0327311 0.000248792)
(-0.0275881 -0.0297886 0.000240801)
(-0.0264878 -0.0269632 0.0002312)
(-0.0252397 -0.0242816 0.000220309)
(-0.0238791 -0.0217634 0.000208434)
(-0.0224399 -0.0194209 0.000195874)
(-0.0209536 -0.0172608 0.000182902)
(-0.0194485 -0.015284 0.000169766)
(-0.0179495 -0.0134876 0.000156683)
(-0.0164776 -0.0118653 0.000143836)
(-0.0150498 -0.0104083 0.000131374)
(-0.0136799 -0.00910603 0.000119416)
(-0.0123779 -0.00794711 0.000108052)
(-0.0111512 -0.00691961 9.73444e-05)
(-0.0100042 -0.00601165 8.73326e-05)
(-0.00893927 -0.00521167 7.80368e-05)
(-0.00795672 -0.00450867 6.94601e-05)
(-0.00705545 -0.00389238 6.15927e-05)
(-0.0062331 -0.00335336 5.44143e-05)
(-0.00548641 -0.00288301 4.78962e-05)
(-0.00481155 -0.00247361 4.20051e-05)
(-0.00420407 -0.00211813 3.67021e-05)
(-0.00365929 -0.00181034 3.19464e-05)
(-0.0031724 -0.00154467 2.7696e-05)
(-0.00273857 -0.00131612 2.39088e-05)
(-0.00235308 -0.00112025 2.05435e-05)
(-0.00201123 -0.000952977 1.75593e-05)
(-0.00170863 -0.000810639 1.49177e-05)
(-0.00144114 -0.00068988 1.25825e-05)
(-0.0012049 -0.000587581 1.05201e-05)
(-0.000996433 -0.000500832 8.70016e-06)
(-0.000812595 -0.00042686 7.09525e-06)
(-0.000650718 -0.00036303 5.68206e-06)
(-0.000508603 -0.000306815 4.44136e-06)
(-0.000384557 -0.000255799 3.3584e-06)
(-0.00027744 -0.00020777 2.4232e-06)
(-0.0001868 -0.000160921 1.63181e-06)
(-0.000112681 -0.00011427 9.84622e-07)
(-5.60874e-05 -6.84087e-05 4.90356e-07)
(-1.77102e-05 -2.70629e-05 1.55185e-07)
(5.58005e-08 1.15856e-06 1.99734e-09)
(-0.0260007 -0.0315173 0.000226941)
(-0.0253412 -0.0289178 0.000221188)
(-0.0245001 -0.0263875 0.000213849)
(-0.0235072 -0.0239542 0.000205184)
(-0.022392 -0.0216399 0.000195452)
(-0.021184 -0.0194605 0.00018491)
(-0.0199113 -0.0174264 0.000173802)
(-0.0185999 -0.0155435 0.000162358)
(-0.0172736 -0.0138132 0.000150782)
(-0.015953 -0.0122337 0.000139256)
(-0.0146558 -0.0108005 0.000127934)
(-0.0133967 -0.00950682 0.000116944)
(-0.0121873 -0.0083447 0.000106387)
(-0.0110365 -0.00730517 9.63423e-05)
(-0.00995069 -0.00637885 8.68647e-05)
(-0.00893401 -0.00555624 7.79903e-05)
(-0.00798865 -0.00482803 6.97383e-05)
(-0.00711515 -0.00418528 6.21135e-05)
(-0.00631273 -0.00361956 5.51091e-05)
(-0.00557952 -0.00312304 4.87087e-05)
(-0.00491289 -0.00268855 4.28895e-05)
(-0.00430944 -0.00230947 3.76217e-05)
(-0.00376541 -0.00197978 3.28726e-05)
(-0.00327674 -0.00169406 2.86068e-05)
(-0.00283921 -0.00144736 2.47873e-05)
(-0.00244862 -0.00123521 2.13776e-05)
(-0.0021007 -0.00105348 1.83403e-05)
(-0.00179136 -0.000898387 1.56398e-05)
(-0.00151674 -0.00076645 1.32424e-05)
(-0.00127317 -0.000654399 1.11161e-05)
(-0.00105734 -0.000559159 9.23185e-06)
(-0.000866194 -0.000477781 7.56319e-06)
(-0.000697149 -0.000407449 6.08743e-06)
(-0.000548046 -0.000345445 4.78574e-06)
(-0.000417211 -0.000289159 3.64351e-06)
(-0.000303512 -0.00023618 2.65087e-06)
(-0.000206519 -0.000184498 1.80403e-06)
(-0.000126335 -0.00013294 1.1039e-06)
(-6.41533e-05 -8.19439e-05 5.60844e-07)
(-2.10196e-05 -3.51652e-05 1.84163e-07)
(-1.91723e-07 -1.38802e-06 4.72097e-09)
(-0.0237148 -0.0302459 0.000206989)
(-0.023259 -0.0279634 0.000203012)
(-0.0226299 -0.0257106 0.000197523)
(-0.0218509 -0.0235157 0.000190725)
(-0.0209461 -0.0214017 0.00018283)
(-0.0199404 -0.0193868 0.000174053)
(-0.0188582 -0.0174842 0.000164609)
(-0.017723 -0.0157031 0.000154702)
(-0.0165568 -0.0140486 0.000144523)
(-0.0153792 -0.0125224 0.000134246)
(-0.0142079 -0.0111234 0.000124022)
(-0.0130577 -0.0098486 0.000113983)
(-0.0119412 -0.00869282 0.000104238)
(-0.0108684 -0.00764992 9.48743e-05)
(-0.00984703 -0.00671291 8.59591e-05)
(-0.00888263 -0.00587434 7.75412e-05)
(-0.00797887 -0.0051266 6.96524e-05)
(-0.00713771 -0.00446215 6.231e-05)
(-0.00635974 -0.00387367 5.55191e-05)
(-0.00564433 -0.0033542 4.92742e-05)
(-0.00498998 -0.00289722 4.35622e-05)
(-0.00439428 -0.00249657 3.83621e-05)
(-0.00385435 -0.0021466 3.36488e-05)
(-0.00336686 -0.00184208 2.93933e-05)
(-0.00292822 -0.00157816 2.55642e-05)
(-0.00253479 -0.00135045 2.21297e-05)
(-0.00218271 -0.00115476 1.90562e-05)
(-0.00186827 -0.00098728 1.63112e-05)
(-0.00158788 -0.000844413 1.38634e-05)
(-0.00133812 -0.00072277 1.16831e-05)
(-0.00111585 -0.000619134 9.74263e-06)
(-0.00091815 -0.0005304 8.01677e-06)
(-0.000742533 -0.000453583 6.48366e-06)
(-0.000586904 -0.000385788 5.12501e-06)
(-0.000449624 -0.000324218 3.92652e-06)
(-0.000329582 -0.000266263 2.87851e-06)
(-0.000226376 -0.000209709 1.97745e-06)
(-0.00014018 -0.000153161 1.22483e-06)
(-7.2384e-05 -9.68644e-05 6.32771e-07)
(-2.44174e-05 -4.43249e-05 2.13914e-07)
(-4.48542e-07 -4.40761e-06 7.54251e-09)
(-0.0216239 -0.0289545 0.000188737)
(-0.0213333 -0.0269598 0.000186202)
(-0.0208791 -0.0249638 0.00018224)
(-0.0202797 -0.0229938 0.00017701)
(-0.0195548 -0.0210728 0.000170685)
(-0.0187252 -0.0192201 0.000163445)
(-0.0178118 -0.0174507 0.000155473)
(-0.0168354 -0.0157759 0.000146952)
(-0.0158159 -0.0142036 0.000138055)