/*--------------------------------*- C++ -*----------------------------------*\
| =========                 |                                                 |
| \\      /  F ield         | OpenFOAM: The Open Source CFD Toolbox           |
|  \\    /   O peration     | Version:  v2012                                 |
|   \\  /    A nd           | Website:  www.openfoam.com                      |
|    \\/     M anipulation  |                                                 |
\*---------------------------------------------------------------------------*/
FoamFile
{
    version     2.0;
    format      ascii;
    class       surfaceScalarField;
    location    "0.6";
    object      phi;
}
// * * * * * * * * * * * * * * * * * * * * * * * * * * * * * * * * * * * * * //

dimensions      [0 3 -1 0 0 0 0];
oriented        oriented;


internalField   nonuniform List<scalar> 
8162
(
3.06018e-11
-3.75346e-10
1.66133e-16
3.5942e-11
-4.26077e-10
3.0229e-16
4.1872e-11
-4.81292e-10
3.03578e-16
4.8408e-11
-5.41098e-10
2.95723e-16
5.55597e-11
-6.05726e-10
2.73026e-16
6.33268e-11
-6.75249e-10
1.98655e-16
7.17001e-11
-7.49814e-10
1.96121e-16
8.06574e-11
-8.29494e-10
1.96669e-16
9.0163e-11
-9.14236e-10
1.76907e-16
1.00167e-10
-1.00419e-09
1.42717e-16
1.106e-10
-1.09911e-09
8.07041e-17
1.21377e-10
-1.19898e-09
2.12872e-17
1.32396e-10
-1.30361e-09
-5.40233e-17
1.43532e-10
-1.4127e-09
-1.26137e-16
1.54644e-10
-1.52593e-09
-2.09287e-16
1.6557e-10
-1.64288e-09
-2.97575e-16
1.76128e-10
-1.7631e-09
-3.89098e-16
1.86123e-10
-1.88593e-09
-4.9797e-16
1.95346e-10
-2.01074e-09
-5.96203e-16
-2.13669e-09
-7.20639e-16
2.30391e-11
-2.90424e-10
7.954e-17
2.75371e-11
-3.33372e-10
1.3272e-16
3.26049e-11
-3.80412e-10
1.94136e-16
3.82704e-11
-4.3174e-10
2.53114e-16
4.4556e-11
-4.87576e-10
2.76274e-16
5.14776e-11
-5.48018e-10
2.74187e-16
5.90438e-11
-6.1329e-10
2.72871e-16
6.72528e-11
-6.83457e-10
2.0488e-16
7.60932e-11
-7.58653e-10
2.25298e-16
8.55397e-11
-8.38938e-10
2.29887e-16
9.55525e-11
-9.24246e-10
2.2873e-16
1.06077e-10
-1.01471e-09
1.9485e-16
1.17038e-10
-1.11007e-09
1.41737e-16
1.28345e-10
-1.21029e-09
7.86085e-17
1.39888e-10
-1.31515e-09
3.55719e-18
1.51534e-10
-1.42434e-09
-6.95835e-17
1.63133e-10
-1.53753e-09
-1.5713e-16
1.74515e-10
-1.65427e-09
-2.38288e-16
1.85489e-10
-1.77408e-09
-3.36471e-16
1.95849e-10
-1.89629e-09
-4.27018e-16
2.05378e-10
-2.02027e-09
-5.35308e-16
-2.14517e-09
-6.31046e-16
2.03366e-15
-1.66764e-13
1.73437e-18
2.0831e-14
-1.47275e-12
-2.49365e-17
7.74358e-14
-4.24622e-12
-1.3442e-17
1.9399e-13
-8.52163e-12
6.5065e-17
3.9321e-13
-1.43655e-11
1.02971e-16
7.04773e-13
-2.18667e-11
7.7276e-16
1.1506e-12
-3.11374e-11
1.06537e-15
1.7635e-12
-4.23048e-11
5.49275e-16
2.57369e-12
-5.55071e-11
5.24584e-16
-7.09053e-11
3.72022e-16
8.45201e-12
-1.31942e-10
-7.09438e-17
1.07673e-11
-1.57848e-10
3.90846e-17
1.34995e-11
-1.86875e-10
1.398e-16
1.66853e-11
-2.19206e-10
1.15552e-16
2.03666e-11
-2.55055e-10
3.45288e-16
2.45784e-11
-2.94634e-10
2.57877e-16
2.93586e-11
-3.38149e-10
3.7285e-16
3.47392e-11
-3.8579e-10
3.80532e-16
4.07491e-11
-4.37746e-10
4.41972e-16
4.74108e-11
-4.94234e-10
4.49458e-16
5.47398e-11
-5.55343e-10
4.69524e-16
6.27436e-11
-6.2129e-10
4.50661e-16
7.14183e-11
-6.92128e-10
3.83983e-16
8.07499e-11
-7.67981e-10
3.72292e-16
9.07098e-11
-8.48895e-10
3.60539e-16
1.01254e-10
-9.34787e-10
3.32991e-16
1.12322e-10
-1.02578e-09
2.87521e-16
1.23835e-10
-1.12158e-09
2.18667e-16
1.35693e-10
-1.22214e-09
1.44486e-16
1.47778e-10
-1.32724e-09
6.10349e-17
1.59951e-10
-1.43652e-09
-2.41734e-17
1.72051e-10
-1.54963e-09
-1.11977e-16
1.83899e-10
-1.66611e-09
-2.07077e-16
1.95295e-10
-1.78548e-09
-2.96293e-16
2.06023e-10
-1.90703e-09
-4.0389e-16
2.15857e-10
-2.03011e-09
-4.94386e-16
-2.15387e-09
-6.07806e-16
2.18327e-15
-1.68931e-13
2.58814e-18
2.25997e-14
-1.49316e-12
-3.3864e-19
8.38104e-14
-4.30729e-12
1.51375e-17
2.0916e-13
-8.64736e-12
-3.68463e-17
4.23297e-13
-1.45814e-11
-2.05681e-16
7.57152e-13
-2.22e-11
6.27169e-17
1.2359e-12
-3.16164e-11
-2.68415e-17
1.89315e-12
-4.29614e-11
2.76092e-17
2.76045e-12
-5.63727e-11
3.23568e-16
3.87213e-12
-7.20155e-11
1.74931e-16
5.26451e-12
-9.00465e-11
3.52836e-16
6.97671e-12
-1.10643e-10
2.43034e-16
9.04662e-12
-1.34011e-10
2.35705e-16
1.15168e-11
-1.60315e-10
2.3037e-16
1.44294e-11
-1.89784e-10
4.5672e-16
1.78228e-11
-2.22597e-10
2.35721e-16
2.17409e-11
-2.5897e-10
4.54638e-16
2.62205e-11
-2.9911e-10
3.78212e-16
3.13001e-11
-3.43225e-10
4.21231e-16
3.7013e-11
-3.91499e-10
4.73139e-16
4.33882e-11
-4.44117e-10
4.90724e-16
5.0448e-11
-5.0129e-10
4.73836e-16
5.82074e-11
-5.63098e-10
4.55455e-16
6.66727e-11
-6.29752e-10
4.37911e-16
7.58379e-11
-7.0129e-10
3.63593e-16
8.56861e-11
-7.77826e-10
3.67958e-16
9.61848e-11
-8.59391e-10
3.54954e-16
1.07285e-10
-9.45885e-10
3.4586e-16
1.18922e-10
-1.03741e-09
3.03832e-16
1.31009e-10
-1.13366e-09
2.46455e-16
1.43439e-10
-1.23457e-09
1.73293e-16
1.56086e-10
-1.33988e-09
9.02117e-17
1.68802e-10
-1.44923e-09
7.35775e-18
1.81417e-10
-1.56225e-09
-8.80634e-17
1.93741e-10
-1.67844e-09
-1.74703e-16
2.05565e-10
-1.7973e-09
-2.77515e-16
2.16663e-10
-1.91813e-09
-3.68713e-16
2.268e-10
-2.04025e-09
-4.79569e-16
-2.1628e-09
-5.66818e-16
2.36635e-15
-1.71279e-13
2.53024e-18
2.44539e-14
-1.51526e-12
-2.35536e-19
9.05475e-14
-4.37319e-12
2.05409e-17
2.25409e-13
-8.7828e-12
-7.90644e-17
4.56414e-13
-1.48133e-11
-1.2062e-16
8.1475e-13
-2.25575e-11
9.2838e-17
1.32831e-12
-3.21305e-11
-7.45647e-17
2.03257e-12
-4.36646e-11
1.56366e-16
2.96121e-12
-5.73e-11
1.44322e-16
4.1503e-12
-7.32037e-11
1.86322e-16
5.63983e-12
-9.15341e-11
2.07968e-16
7.46934e-12
-1.12471e-10
2.29688e-16
9.68107e-12
-1.36219e-10
3.88881e-16
1.23175e-11
-1.62948e-10
4.61428e-16
1.54229e-11
-1.92885e-10
5.6895e-16
1.90386e-11
-2.26209e-10
4.65339e-16
2.32091e-11
-2.63135e-10
5.67343e-16
2.79733e-11
-3.03871e-10
4.45133e-16
3.33704e-11
-3.48619e-10
3.72689e-16
3.94356e-11
-3.9756e-10
4.26732e-16
4.61976e-11
-4.50875e-10
4.76406e-16
5.36789e-11
-5.08767e-10
4.66408e-16
6.18933e-11
-5.71309e-10
4.76338e-16
7.08456e-11
-6.387e-10
4.58466e-16
8.05275e-11
-7.10969e-10
4.08789e-16
9.09188e-11
-7.88214e-10
3.98973e-16
1.01983e-10
-8.70452e-10
3.87382e-16
1.13666e-10
-9.57565e-10
3.64408e-16
1.25897e-10
-1.04964e-09
3.24209e-16
1.38581e-10
-1.14635e-09
2.61497e-16
1.51604e-10
-1.24759e-09
1.87926e-16
1.64833e-10
-1.35311e-09
1.05769e-16
1.78108e-10
-1.46251e-09
1.84518e-17
1.9125e-10
-1.57539e-09
-6.80308e-17
2.0406e-10
-1.69125e-09
-1.63913e-16
2.16317e-10
-1.80956e-09
-2.48318e-16
2.27786e-10
-1.9296e-09
-3.55214e-16
2.3822e-10
-2.05069e-09
-4.37501e-16
2.47362e-10
-2.17195e-09
-5.37315e-16
-2.29194e-09
-6.18836e-16
2.56614e-15
-1.7383e-13
1.90267e-18
2.65113e-14
-1.53916e-12
4.70621e-18
9.79676e-14
-4.4443e-12
3.79462e-17
2.43246e-13
-8.92869e-12
-7.86883e-17
4.92074e-13
-1.50629e-11
-9.70544e-17
8.76778e-13
-2.2942e-11
2.36026e-17
1.42765e-12
-3.26824e-11
-1.40119e-16
2.1836e-12
-4.44191e-11
1.51375e-16
3.17881e-12
-5.82935e-11
2.20721e-16
4.45188e-12
-7.44761e-11
1.33368e-16
6.04515e-12
-9.31255e-11
2.35437e-16
8.00042e-12
-1.14424e-10
1.84178e-16
1.0362e-11
-1.38578e-10
2.70491e-16
1.31752e-11
-1.65759e-10
3.29661e-16
1.64859e-11
-1.96192e-10
3.93031e-16
2.03377e-11
-2.30058e-10
2.93522e-16
2.4777e-11
-2.67572e-10
3.81459e-16
2.98436e-11
-3.08936e-10
2.30686e-16
3.55789e-11
-3.54352e-10
2.69534e-16
4.20181e-11
-4.03996e-10
3.93409e-16
4.91902e-11
-4.58043e-10
4.2004e-16
5.71174e-11
-5.16691e-10
4.33159e-16
6.58126e-11
-5.8e-10
4.26633e-16
7.52785e-11
-6.48163e-10
4.20947e-16
8.55045e-11
-7.21192e-10
3.61124e-16
9.64665e-11
-7.99173e-10
3.62127e-16
1.08123e-10
-8.82106e-10
3.42201e-16
1.20416e-10
-9.69854e-10
3.32804e-16
1.33266e-10
-1.06249e-09
2.92818e-16
1.46572e-10
-1.15965e-09
2.41321e-16
1.60211e-10
-1.26123e-09
1.72516e-16
1.7404e-10
-1.36694e-09
9.41485e-17
1.87891e-10
-1.47636e-09
1.74263e-17
2.01573e-10
-1.58907e-09
-7.24177e-17
2.14876e-10
-1.70455e-09
-1.49112e-16
2.2757e-10
-1.82226e-09
-2.43518e-16
2.39408e-10
-1.94144e-09
-3.21904e-16
2.50135e-10
-2.06142e-09
-4.2347e-16
2.59483e-10
-2.1813e-09
-4.85029e-16
-2.29965e-09
-5.49524e-16
2.78393e-15
-1.76597e-13
1.91538e-18
2.87424e-14
-1.56501e-12
1.13603e-17
1.05671e-13
-4.52113e-12
8.82328e-18
2.62353e-13
-9.08592e-12
-7.13256e-17
5.30066e-13
-1.53315e-11
-1.15746e-16
9.43404e-13
-2.3355e-11
3.84456e-17
1.53505e-12
-3.32746e-11
-6.75703e-17
2.34553e-12
-4.52278e-11
2.10476e-16
3.4113e-12
-5.9358e-11
1.62004e-16
4.77431e-12
-7.5838e-11
1.90503e-16
6.47911e-12
-9.48277e-11
2.93021e-16
8.56864e-12
-1.16512e-10
1.42189e-16
1.10911e-11
-1.41098e-10
3.24395e-16
1.40932e-11
-1.68758e-10
3.69944e-16
1.7623e-11
-1.99718e-10
4.46564e-16
2.17266e-11
-2.34159e-10
3.75134e-16
2.64525e-11
-2.72292e-10
6.25985e-16
3.18414e-11
-3.14321e-10
4.60229e-16
3.79355e-11
-3.60443e-10
4.25677e-16
4.47716e-11
-4.10828e-10
5.07378e-16
5.23781e-11
-4.65646e-10
4.68427e-16
6.07772e-11
-5.25086e-10
4.43885e-16
6.99803e-11
-5.892e-10
4.37575e-16
7.99883e-11
-6.58167e-10
4.15563e-16
9.07871e-11
-7.31987e-10
3.70035e-16
1.02349e-10
-8.10732e-10
3.51216e-16
1.14627e-10
-8.94382e-10
3.32112e-16
1.27557e-10
-9.82781e-10
3.07489e-16
1.41053e-10
-1.07598e-09
2.70108e-16
1.55006e-10
-1.1736e-09
2.14765e-16
1.69283e-10
-1.27551e-09
1.4848e-16
1.83731e-10
-1.38139e-09
7.6168e-17
1.98173e-10
-1.4908e-09
-1.83103e-18
2.12406e-10
-1.60331e-09
-7.49227e-17
2.2621e-10
-1.71836e-09
-1.587e-16
2.39343e-10
-1.83539e-09
-2.24525e-16
2.51547e-10
-1.95365e-09
-3.17757e-16
2.62559e-10
-2.07243e-09
-3.82103e-16
2.721e-10
-2.19085e-09
-4.70232e-16
2.799e-10
-2.30745e-09
-4.77391e-16
-2.4225e-09
-5.46411e-16
3.02203e-15
-1.79601e-13
2.18561e-18
3.11135e-14
-1.59298e-12
1.43017e-17
1.14211e-13
-4.60402e-12
2.21105e-17
2.83207e-13
-9.25527e-12
-4.83264e-17
5.71498e-13
-1.56205e-11
-9.78703e-17
1.01558e-12
-2.3799e-11
1.26848e-18
1.65094e-12
-3.39108e-11
-1.02115e-16
2.52021e-12
-4.60957e-11
1.59292e-16
3.66212e-12
-6.04991e-11
1.04974e-16
5.1218e-12
-7.72963e-11
2.11826e-16
6.94561e-12
-9.66488e-11
3.13322e-16
9.17921e-12
-1.18744e-10
1.63168e-16
1.18734e-11
-1.4379e-10
2.85772e-16
1.5077e-11
-1.71959e-10
2.77346e-16
1.88409e-11
-2.03479e-10
3.20843e-16
2.32127e-11
-2.38529e-10
2.22535e-16
2.82435e-11
-2.77319e-10
4.59833e-16
3.39753e-11
-3.20051e-10
2.9308e-16
4.04508e-11
-3.66917e-10
1.7744e-16
4.7708e-11
-4.18083e-10
3.07355e-16
5.57752e-11
-4.73711e-10
2.8557e-16
6.46738e-11
-5.33982e-10
3.239e-16
7.44138e-11
-5.98937e-10
3.2736e-16
8.49933e-11
-6.68744e-10
3.37977e-16
9.63952e-11
-7.43387e-10
2.9201e-16
1.08587e-10
-8.22921e-10
2.91755e-16
1.21517e-10
-9.0731e-10
2.65276e-16
1.35113e-10
-9.96375e-10
2.54099e-16
1.49282e-10
-1.09015e-09
2.14498e-16
1.63906e-10
-1.18822e-09
1.68625e-16
1.78843e-10
-1.29045e-09
1.08138e-16
1.93931e-10
-1.39647e-09
3.91165e-17
2.08978e-10
-1.50585e-09
-2.34691e-17
2.23773e-10
-1.6181e-09
-1.00629e-16
2.38084e-10
-1.73267e-09
-1.58019e-16
2.51655e-10
-1.84897e-09
-2.35718e-16
2.64222e-10
-1.96622e-09
-2.91455e-16
2.75508e-10
-2.08372e-09
-3.79229e-16
2.85227e-10
-2.20057e-09
-4.26502e-16
2.93102e-10
-2.31533e-09
-4.7284e-16
-2.42825e-09
-4.68701e-16
3.28207e-15
-1.82864e-13
2.13557e-18
3.35983e-14
-1.62326e-12
4.10287e-18
1.23348e-13
-4.69356e-12
2.07904e-17
3.05468e-13
-9.4379e-12
-6.87234e-17
6.15923e-13
-1.59317e-11
-1.00374e-16
1.09323e-12
-2.42763e-11
-4.93976e-18
1.77578e-12
-3.45939e-11
-7.81249e-17
2.70799e-12
-4.70265e-11
1.52425e-16
3.93178e-12
-6.17221e-11
1.0474e-16
5.49508e-12
-7.88581e-11
2.37292e-16
7.44628e-12
-9.85976e-11
2.79635e-16
9.83424e-12
-1.21131e-10
1.40499e-16
1.27124e-11
-1.46665e-10
3.45561e-16
1.61317e-11
-1.75376e-10
2.81315e-16
2.01455e-11
-2.0749e-10
3.22747e-16
2.48037e-11
-2.43185e-10
1.69494e-16
3.01591e-11
-2.82671e-10
3.96596e-16
3.62555e-11
-3.26145e-10
2.31219e-16
4.31367e-11
-3.73797e-10
1.79118e-16
5.08411e-11
-4.25784e-10
3.10712e-16
5.93965e-11
-4.82264e-10
2.82562e-16
6.88239e-11
-5.43407e-10
3.10285e-16
7.9131e-11
-6.09241e-10
3.24166e-16
9.03134e-11
-6.79923e-10
3.17836e-16
1.0235e-10
-7.55421e-10
2.83334e-16
1.15203e-10
-8.35772e-10
2.61137e-16
1.28815e-10
-9.2092e-10
2.35419e-16
1.43107e-10
-1.01066e-09
2.08296e-16
1.57977e-10
-1.10501e-09
1.71403e-16
1.73298e-10
-1.20354e-09
1.22499e-16
1.88919e-10
-1.30607e-09
6.44946e-17
2.04663e-10
-1.41222e-09
4.62617e-18
2.20331e-10
-1.52151e-09
-6.07595e-17
2.35698e-10
-1.63347e-09
-1.16441e-16
2.50518e-10
-1.74749e-09
-1.84977e-16
2.64528e-10
-1.86298e-09
-2.27806e-16
2.7745e-10
-1.97914e-09
-3.04713e-16
2.88998e-10
-2.09527e-09
-3.47956e-16
2.98878e-10
-2.21045e-09
-4.34562e-16
3.06804e-10
-2.32325e-09
-4.3653e-16
-2.43395e-09
-4.81252e-16
3.56173e-15
-1.86404e-13
2.58786e-18
3.63527e-14
-1.65601e-12
3.4611e-18
1.33259e-13
-4.79019e-12
2.98184e-17
3.29767e-13
-9.6346e-12
-3.0727e-17
6.64157e-13
-1.62666e-11
-6.98523e-17
1.17737e-12
-2.47894e-11
4.13265e-18
1.91067e-12
-3.53277e-11
-6.23393e-17
2.91046e-12
-4.80255e-11
8.91308e-17
4.22218e-12
-6.30334e-11
6.0347e-17
5.89618e-12
-8.05311e-11
1.7127e-16
7.98386e-12
-1.00683e-10
2.19806e-16
1.05372e-11
-1.23683e-10
1.16324e-16
1.36123e-11
-1.49738e-10
2.85825e-16
1.72623e-11
-1.79025e-10
2.06091e-16
2.15434e-11
-2.11769e-10
2.29883e-16
2.65073e-11
-2.48149e-10
5.29927e-17
3.2209e-11
-2.88371e-10
2.40205e-16
3.86938e-11
-3.3263e-10
7.26397e-17
4.60061e-11
-3.8111e-10
-9.16157e-17
5.41852e-11
-4.33963e-10
6.55878e-17
6.32584e-11
-4.91336e-10
5.05992e-17
7.32454e-11
-5.53393e-10
1.38904e-16
8.41518e-11
-6.20146e-10
1.63919e-16
9.59699e-11
-6.9174e-10
2.00414e-16
1.08674e-10
-7.68124e-10
1.72437e-16
1.22222e-10
-8.49318e-10
1.79052e-16
1.36548e-10
-9.35246e-10
1.49726e-16
1.51567e-10
-1.02568e-09
1.40144e-16
1.67167e-10
-1.12061e-09
1.02398e-16
1.83211e-10
-1.21958e-09
6.35149e-17
1.99536e-10
-1.32239e-09
1.35867e-17
2.15955e-10
-1.42864e-09
-4.48924e-17
2.32257e-10
-1.53782e-09
-9.15575e-17
2.48203e-10
-1.64942e-09
-1.56461e-16
2.63537e-10
-1.76282e-09
-1.94512e-16
2.77982e-10
-1.87742e-09
-2.57261e-16
2.9125e-10
-1.99241e-09
-2.91164e-16
3.03044e-10
-2.10707e-09
-3.68086e-16
3.13064e-10
-2.22048e-09
-4.07418e-16
3.21016e-10
-2.33121e-09
-4.63942e-16
-2.43955e-09
-4.56484e-16
3.87235e-15
-1.90252e-13
2.62516e-18
3.94181e-14
-1.69148e-12
9.22307e-18
1.43969e-13
-4.89461e-12
1.07557e-17
3.55748e-13
-9.8469e-12
-6.79249e-17
7.16066e-13
-1.66273e-11
-5.28047e-17
1.26805e-12
-2.53413e-11
5.86772e-18
2.0562e-12
-3.6116e-11
-3.44713e-17
3.12881e-12
-4.90975e-11
5.64212e-17
4.53583e-12
-6.44398e-11
8.84259e-17
6.32952e-12
-8.23239e-11
1.88168e-16
8.56335e-12
-1.02916e-10
1.07295e-16
1.12936e-11
-1.26412e-10
2.10928e-17
1.45795e-11
-1.53021e-10
4.19569e-16
1.84763e-11
-1.82919e-10
3.28991e-16
2.30428e-11
-2.16333e-10
4.07508e-16
2.83331e-11
-2.53438e-10
1.89606e-16
3.44037e-11
-2.94439e-10
3.83605e-16
4.13021e-11
-3.39526e-10
2.27485e-16
4.90732e-11
-3.8888e-10
1.3048e-16
5.77564e-11
-4.42644e-10
2.58207e-16
6.73786e-11
-5.00956e-10
2.13294e-16
7.79579e-11
-5.6397e-10
2.4903e-16
8.94973e-11
-6.31683e-10
2.46266e-16
1.01986e-10
-7.04226e-10
2.3305e-16
1.15393e-10
-7.81529e-10
1.94072e-16
1.29669e-10
-8.63592e-10
1.62325e-16
1.44743e-10
-9.50319e-10
1.24464e-16
1.60519e-10
-1.04146e-09
9.25346e-17
1.76878e-10
-1.13697e-09
5.42193e-17
1.93671e-10
-1.23638e-09
1.20786e-17
2.10723e-10
-1.33944e-09
-3.74702e-17
2.27835e-10
-1.44575e-09
-8.41338e-17
2.44783e-10
-1.55476e-09
-1.38706e-16
2.61316e-10
-1.66595e-09
-1.78719e-16
2.77164e-10
-1.77867e-09
-2.36896e-16
2.92038e-10
-1.8923e-09
-2.60194e-16
3.0564e-10
-2.00602e-09
-3.2681e-16
3.17663e-10
-2.11909e-09
-3.52697e-16
3.27799e-10
-2.23062e-09
-4.4337e-16
3.35747e-10
-2.33916e-09
-4.45874e-16
-2.44502e-09
-5.02687e-16
4.20182e-15
-1.94426e-13
3.09689e-18
4.26483e-14
-1.72987e-12
5.41532e-18
1.55515e-13
-5.00735e-12
1.01568e-17
3.84149e-13
-1.00757e-11
-2.20629e-17
7.72221e-13
-1.70156e-11
-3.30206e-17
1.36616e-12
-2.59348e-11
4.33923e-17
2.21323e-12
-3.69631e-11
-2.75462e-17
3.36447e-12
-5.02486e-11
3.04292e-17
4.87283e-12
-6.59476e-11
8.00909e-17
6.79335e-12
-8.4244e-11
6.69916e-17
9.18505e-12
-1.05306e-10
2.47219e-16
1.21061e-11
-1.29331e-10
1.51186e-16
1.56173e-11
-1.5653e-10
2.65712e-16
1.97783e-11
-1.87078e-10
2.33286e-16
2.46505e-11
-2.21202e-10
2.81605e-16
3.02895e-11
-2.59076e-10
7.49053e-17
3.67542e-11
-3.00902e-10
2.20255e-16
4.40933e-11
-3.46865e-10
6.05474e-17
5.23524e-11
-3.9714e-10
-1.46927e-16
6.15712e-11
-4.51863e-10
-5.60211e-18
7.17756e-11
-5.11161e-10
-5.45765e-17
8.2982e-11
-5.75176e-10
3.44754e-17
9.51903e-11
-6.43891e-10
4.09763e-17
1.08385e-10
-7.1742e-10
7.80263e-17
1.22531e-10
-7.95674e-10
4.76452e-17
1.37572e-10
-8.78633e-10
5.31209e-17
1.53428e-10
-9.66175e-10
1.59101e-17
1.69995e-10
-1.05802e-09
7.65878e-18
1.87142e-10
-1.15412e-09
-2.70736e-17
2.04709e-10
-1.25394e-09
-5.65785e-17
2.2251e-10
-1.35725e-09
-9.31857e-17
2.40332e-10
-1.46357e-09
-1.40734e-16
2.57937e-10
-1.57237e-09
-1.72722e-16
2.75061e-10
-1.68308e-09
-2.29855e-16
2.91421e-10
-1.79503e-09
-2.53495e-16
3.06718e-10
-1.9076e-09
-3.08299e-16
3.20638e-10
-2.01994e-09
-3.25935e-16
3.3287e-10
-2.13133e-09
-3.98642e-16
3.43094e-10
-2.24085e-09
-4.32182e-16
3.51007e-10
-2.34707e-09
-4.99832e-16
-2.45034e-09
-4.89393e-16
4.56216e-15
-1.9897e-13
1.49236e-18
4.62207e-14
-1.77145e-12
9.78056e-18
1.68166e-13
-5.12924e-12
2.74166e-18
4.14954e-13
-1.03226e-11
-2.1702e-17
8.32967e-13
-1.74341e-11
-6.16621e-17
1.47207e-12
-2.65736e-11
2.2145e-17
2.38248e-12
-3.78732e-11
4.78393e-17
3.61872e-12
-5.14843e-11
5.26594e-17
5.23792e-12
-6.75653e-11
1.71732e-16
7.2968e-12
-8.63027e-11
3.22393e-17
9.8583e-12
-1.07866e-10
1.36707e-16
1.29821e-11
-1.32455e-10
8.52884e-17
1.67352e-11
-1.60281e-10
2.43069e-16
2.11785e-11
-1.9152e-10
1.78375e-16
2.63771e-11
-2.26398e-10
2.83834e-16
3.23884e-11
-2.65087e-10
2.15059e-17
3.92733e-11
-3.07785e-10
1.74875e-16
4.70818e-11
-3.54674e-10
-4.61454e-18
5.58604e-11
-4.05919e-10
-1.03163e-16
6.56483e-11
-4.6165e-10
4.16286e-17
7.64702e-11
-5.21982e-10
9.25349e-18
8.83405e-11
-5.87045e-10
7.39315e-17
1.01256e-10
-6.56805e-10
8.59674e-17
1.15196e-10
-7.31359e-10
8.52042e-17
1.30118e-10
-8.10596e-10
5.1121e-17
1.45961e-10
-8.94475e-10
1.97446e-17
1.62635e-10
-9.82849e-10
-2.11098e-17
1.80025e-10
-1.07541e-09
-4.91074e-17
1.97991e-10
-1.17208e-09
-8.23577e-17
2.16359e-10
-1.27231e-09
-1.11265e-16
2.34929e-10
-1.37582e-09
-1.49007e-16
2.53476e-10
-1.48212e-09
-1.80297e-16
2.71748e-10
-1.59064e-09
-2.27434e-16
2.89466e-10
-1.7008e-09
-2.55051e-16
3.06335e-10
-1.8119e-09
-3.10287e-16
3.22042e-10
-1.92331e-09
-3.19171e-16
3.36264e-10
-2.03417e-09
-3.83139e-16
3.48679e-10
-2.14374e-09
-3.95513e-16
3.58961e-10
-2.25113e-09
-4.93247e-16
3.66802e-10
-2.35492e-09
-4.91798e-16
-2.45544e-09
-5.55477e-16
4.94916e-15
-2.03899e-13
2.05453e-18
5.00361e-14
-1.81647e-12
8.82083e-18
1.81734e-13
-5.26094e-12
-3.25123e-18
4.48123e-13
-1.05889e-11
1.27013e-18
8.9846e-13
-1.78848e-11
-6.00631e-17
1.58644e-12
-2.7261e-11
6.84113e-17
2.56545e-12
-3.88518e-11
5.2427e-17
3.8931e-12
-5.28119e-11
3.08829e-17
5.63e-12
-6.93007e-11
1.56154e-16
7.83617e-12
-8.85091e-11
-6.86276e-17
1.05797e-11
-1.10608e-10
1.2829e-16
1.39227e-11
-1.35798e-10
-4.59739e-18
1.79356e-11
-1.64292e-10
1.18996e-16
2.26822e-11
-1.96266e-10
6.80407e-17
2.82305e-11
-2.31945e-10
1.14096e-16
3.46403e-11
-2.71498e-10
-1.14992e-16
4.19742e-11
-3.15119e-10
-3.72467e-18
5.02836e-11
-3.62985e-10
-1.79027e-16
5.96151e-11
-4.15254e-10
-3.82583e-16
7.00079e-11
-4.72045e-10
-2.28406e-16
8.1485e-11
-5.33461e-10
-2.78601e-16
9.40581e-11
-5.9962e-10
-1.58803e-16
1.0772e-10
-6.70467e-10
-1.36486e-16
1.22445e-10
-7.46085e-10
-8.05424e-17
1.38184e-10
-8.26336e-10
-1.10654e-16
1.54868e-10
-9.11159e-10
-1.02032e-16
1.72396e-10
-1.00038e-09
-1.42165e-16
1.90644e-10
-1.09366e-09
-1.43459e-16
2.09458e-10
-1.1909e-09
-1.69613e-16
2.28652e-10
-1.29151e-09
-1.85285e-16
2.48012e-10
-1.39518e-09
-2.05043e-16
2.67299e-10
-1.50141e-09
-2.41928e-16
2.86245e-10
-1.60959e-09
-2.61773e-16
3.04558e-10
-1.71911e-09
-3.16653e-16
3.21929e-10
-1.82927e-09
-3.30754e-16
3.38032e-10
-1.93941e-09
-3.84173e-16
3.52535e-10
-2.04868e-09
-3.89479e-16
3.65105e-10
-2.15632e-09
-4.63001e-16
3.7541e-10
-2.26144e-09
-4.89911e-16
3.8314e-10
-2.36265e-09
-5.65494e-16
-2.46031e-09
-5.44004e-16
5.40576e-15
-2.09272e-13
2.53824e-18
5.42144e-14
-1.86529e-12
-4.63155e-18
1.96742e-13
-5.40339e-12
2.92223e-18
4.84413e-13
-1.08762e-11
3.67186e-17
9.70161e-13
-1.8371e-11
-5.47492e-17
1.711e-12
-2.80011e-11
6.74286e-17
2.76436e-12
-3.99044e-11
1.05436e-16
4.19094e-12
-5.42381e-11
3.96841e-17
6.05572e-12
-7.11639e-11
1.94883e-16
8.42193e-12
-9.0876e-11
-1.06323e-16
1.13608e-11
-1.13547e-10
-9.50162e-18
1.49388e-11
-1.39377e-10
-2.13219e-16
1.923e-11
-1.68583e-10
1.40151e-16
2.43014e-11
-2.01337e-10
6.58724e-17
3.02237e-11
-2.37866e-10
1.88512e-16
3.70593e-11
-2.78333e-10
-5.34856e-17
4.48726e-11
-3.22931e-10
1.22406e-16
5.3716e-11
-3.71829e-10
-3.85918e-17
6.36364e-11
-4.25176e-10
-1.63159e-16
7.46722e-11
-4.8308e-10
-4.10745e-17
8.68443e-11
-5.45634e-10
-1.03412e-16
1.00162e-10
-6.12937e-10
-3.61116e-17
1.14612e-10
-6.84917e-10
-1.8553e-17
1.30164e-10
-7.61637e-10
-2.11479e-17
1.46762e-10
-8.42935e-10
-6.96031e-17
1.64326e-10
-9.28723e-10
-1.13657e-16
1.82747e-10
-1.0188e-09
-1.6488e-16
2.01887e-10
-1.1128e-09
-1.91575e-16
2.21579e-10
-1.21059e-09
-2.20451e-16
2.41625e-10
-1.31155e-09
-2.34538e-16
2.61795e-10
-1.41535e-09
-2.61617e-16
2.81835e-10
-1.52145e-09
-2.7816e-16
3.01461e-10
-1.62922e-09
-3.23746e-16
3.20366e-10
-1.73802e-09
-3.42277e-16
3.38229e-10
-1.84714e-09
-4.00962e-16
3.54711e-10
-1.9559e-09
-3.97873e-16
3.69468e-10
-2.06344e-09
-4.63939e-16
3.82161e-10
-2.16901e-09
-4.63602e-16
3.92451e-10
-2.27174e-09
-5.69309e-16
4.00025e-10
-2.37022e-09
-5.58281e-16
-2.46487e-09
-6.24105e-16
5.86423e-15
-2.15124e-13
5.47871e-18
5.88239e-14
-1.91842e-12
-2.65309e-17
2.13031e-13
-5.55748e-12
1.66382e-17
5.23436e-13
-1.11867e-11
-1.14775e-17
1.04708e-12
-1.88952e-11
-7.91899e-17
1.84477e-12
-2.87982e-11
4.55461e-17
2.97828e-12
-4.10369e-11
1.19232e-16
4.51097e-12
-5.5771e-11
3.61157e-18
6.51298e-12
-7.31648e-11
9.85579e-17
9.05007e-12
-9.34154e-11
-2.83278e-16
1.22011e-11
-1.16696e-10
3.16015e-16
1.6034e-11
-1.43209e-10
2.05502e-16
2.0623e-11
-1.73173e-10
-1.44709e-16
2.6043e-11
-2.06757e-10
-8.21697e-17
3.23666e-11
-2.44189e-10
-9.36333e-19
3.96582e-11
-2.85627e-10
-2.15476e-16
4.79839e-11
-3.31258e-10
-7.891e-17
5.73973e-11
-3.81244e-10
-2.2144e-16
6.79451e-11
-4.35727e-10
-4.44315e-16
7.96645e-11
-4.94802e-10
-3.05786e-16
9.25742e-11
-5.58546e-10
-3.90372e-16
1.0668e-10
-6.27045e-10
-2.63101e-16
1.21963e-10
-7.00203e-10
-2.43289e-16
1.38387e-10
-7.78062e-10
-1.87135e-16
1.55887e-10
-8.60436e-10
-2.37012e-16
1.74373e-10
-9.4721e-10
-2.39246e-16
1.93725e-10
-1.03815e-09
-2.90717e-16
2.13792e-10
-1.13287e-09
-2.89598e-16
2.34394e-10
-1.23119e-09
-3.07425e-16
2.55316e-10
-1.33248e-09
-3.10371e-16
2.76314e-10
-1.43635e-09
-3.14629e-16
2.97117e-10
-1.54226e-09
-3.44868e-16
3.17426e-10
-1.64953e-09
-3.56719e-16
3.36919e-10
-1.75751e-09
-4.14755e-16
3.55261e-10
-1.86548e-09
-4.21455e-16
3.721e-10
-1.97274e-09
-4.76972e-16
3.87083e-10
-2.07843e-09
-4.69757e-16
3.99862e-10
-2.18179e-09
-5.46489e-16
4.10093e-10
-2.28198e-09
-5.64347e-16
4.17462e-10
-2.37759e-09
-6.45984e-16
-2.46908e-09
-6.07749e-16
6.4128e-15
-2.21457e-13
-6.71538e-18
6.53315e-14
-1.97562e-12
2.53789e-16
2.30402e-13
-5.7243e-12
-2.35408e-16
5.65029e-13
-1.15213e-11
-5.11039e-17
1.13146e-12
-1.94616e-11
1.15675e-17
1.99086e-12
-2.96556e-11
2.52412e-16
3.21199e-12
-4.22569e-11
1.53397e-16
4.85916e-12
-5.74186e-11
-6.60181e-17
7.01071e-12
-7.53137e-11
3.60706e-16
9.7341e-12
-9.61395e-11
-1.22718e-16
1.31112e-11
-1.20072e-10
1.25513e-16
1.72161e-11
-1.47314e-10
-3.48955e-17
2.21267e-11
-1.78085e-10
-1.47628e-16
2.79209e-11
-2.12553e-10
-1.35228e-16
3.46743e-11
-2.50942e-10
4.94904e-19
4.24539e-11
-2.93408e-10
-2.60341e-16
5.1327e-11
-3.40132e-10
-1.42207e-16
6.13486e-11
-3.91268e-10
-2.81684e-16
7.25647e-11
-4.46946e-10
-3.87693e-16
8.50112e-11
-5.0725e-10
-2.50151e-16
9.87038e-11
-5.72241e-10
-2.96296e-16
1.13644e-10
-6.41986e-10
-2.0591e-16
1.29808e-10
-7.16368e-10
-1.74521e-16
1.4715e-10
-7.95406e-10
-1.70007e-16
1.65597e-10
-8.78885e-10
-2.19106e-16
1.85048e-10
-9.66663e-10
-2.64826e-16
2.0537e-10
-1.05848e-09
-3.1837e-16
2.264e-10
-1.1539e-09
-3.36866e-16
2.47942e-10
-1.25274e-09
-3.56691e-16
2.69764e-10
-1.3543e-09
-3.52885e-16
2.91606e-10
-1.4582e-09
-3.7265e-16
3.13181e-10
-1.56384e-09
-3.76565e-16
3.34174e-10
-1.67052e-09
-4.27299e-16
3.54247e-10
-1.77759e-09
-4.38281e-16
3.7305e-10
-1.88429e-09
-5.03877e-16
3.90221e-10
-1.98992e-09
-4.8731e-16
4.05395e-10
-2.0936e-09
-5.56797e-16
4.18218e-10
-2.19462e-09
-5.41938e-16
4.28343e-10
-2.29211e-09
-6.56378e-16
4.35454e-10
-2.38471e-09
-6.32202e-16
-2.47289e-09
-6.99171e-16
6.97713e-15
-2.28384e-13
8.07114e-18
7.08693e-14
-2.03792e-12
2.34604e-16
2.50121e-13
-5.90606e-12
-3.65718e-16
6.12192e-13
-1.18865e-11
-4.14661e-16
1.22282e-12
-2.00732e-11
-6.2433e-17
2.14897e-12
-3.05802e-11
1.25842e-16
3.46401e-12
-4.35708e-11
1.87355e-16
5.23473e-12
-5.91902e-11
-1.55265e-16
7.54683e-12
-7.76234e-11
3.29958e-16
1.04701e-11
-9.90646e-11
-2.15086e-16
1.4092e-11
-1.23693e-10
2.04335e-17
1.84905e-11
-1.51713e-10
-7.84401e-17
2.37475e-11
-1.83344e-10
-2.94638e-16
2.99441e-11
-2.18752e-10
-2.77543e-16
3.71593e-11
-2.58159e-10
-1.82274e-16
4.54619e-11
-3.01714e-10
-4.17099e-16
5.49209e-11
-3.49594e-10
-3.57909e-16
6.55921e-11
-4.01942e-10
-4.29475e-16
7.75206e-11
-4.5888e-10
-6.67427e-16
9.07405e-11
-5.20474e-10
-4.98192e-16
1.05264e-10
-5.86769e-10
-5.63545e-16
1.21088e-10
-6.57813e-10
-4.06945e-16
1.38181e-10
-7.33464e-10
-3.89512e-16
1.56491e-10
-8.13717e-10
-3.2706e-16
1.75932e-10
-8.98329e-10
-3.82072e-16
1.96393e-10
-9.87127e-10
-3.83864e-16
2.17726e-10
-1.07982e-09
-4.37726e-16
2.39755e-10
-1.17593e-09
-4.29433e-16
2.62265e-10
-1.27525e-09
-4.34141e-16
2.85011e-10
-1.37705e-09
-4.25759e-16
3.07712e-10
-1.48091e-09
-4.17989e-16
3.30065e-10
-1.58619e-09
-4.48469e-16
3.51739e-10
-1.6922e-09
-4.56306e-16
3.72379e-10
-1.79824e-09
-5.2156e-16
3.91622e-10
-1.90353e-09
-5.19298e-16
4.09094e-10
-2.00739e-09
-5.77485e-16
4.2442e-10
-2.10894e-09
-5.54298e-16
4.37241e-10
-2.20745e-09
-6.35437e-16
4.47207e-10
-2.30208e-09
-6.41979e-16
4.54002e-10
-2.3915e-09
-7.30805e-16
-2.47623e-09
-6.73539e-16
7.57535e-15
-2.35908e-13
-1.92471e-17
7.52686e-14
-2.10554e-12
1.7079e-17
2.70557e-13
-6.10026e-12
2.1822e-16
6.73776e-13
-1.22759e-11
1.65185e-15
1.32114e-12
-2.07307e-11
-1.31646e-15
2.32177e-12
-3.15795e-11
2.54613e-16
3.73746e-12
-4.49834e-11
2.92753e-16
5.64456e-12
-6.10988e-11
-1.15124e-16
8.12983e-12
-8.01063e-11
2.60082e-16
1.12693e-11
-1.02207e-10
-3.19356e-16
1.51556e-11
-1.2758e-10
-3.57669e-17
1.98699e-11
-1.5643e-10
-2.74132e-16
2.55002e-11
-1.88975e-10
-8.5296e-17
3.21291e-11
-2.25381e-10
-1.39468e-16
3.98394e-11
-2.65869e-10
2.00144e-17
4.87025e-11
-3.10579e-10
-2.35465e-16
5.8788e-11
-3.59681e-10
-1.9534e-16
7.01531e-11
-4.13309e-10
-2.50458e-16
8.28412e-11
-4.71572e-10
-4.09431e-16
9.6884e-11
-5.34519e-10
-2.79134e-16
1.1229e-10
-6.02177e-10
-3.23288e-16
1.29049e-10
-6.74574e-10
-2.42229e-16
1.47124e-10
-7.5154e-10
-2.41929e-16
1.66452e-10
-8.33047e-10
-2.58754e-16
1.86936e-10
-9.18816e-10
-3.21842e-16
2.08453e-10
-1.00865e-09
-3.77133e-16
2.30839e-10
-1.10221e-09
-4.39373e-16
2.53901e-10
-1.199e-09
-4.53523e-16
2.7741e-10
-1.29876e-09
-4.69611e-16
3.011e-10
-1.40074e-09
-4.52607e-16
3.24673e-10
-1.50448e-09
-4.75801e-16
3.47808e-10
-1.60933e-09
-4.72464e-16
3.70155e-10
-1.71455e-09
-5.35821e-16
3.91346e-10
-1.81943e-09
-5.38729e-16
4.11003e-10
-1.92319e-09
-6.1201e-16
4.28739e-10
-2.02513e-09
-5.77619e-16
4.44173e-10
-2.12438e-09
-6.50289e-16
4.5694e-10
-2.22022e-09
-6.18306e-16
4.66688e-10
-2.31183e-09
-7.43541e-16
4.73103e-10
-2.39792e-09
-7.05296e-16
-2.47903e-09
-7.75916e-16
8.25398e-15
-2.44119e-13
-6.23726e-18
8.18266e-14
-2.17897e-12
2.8063e-17
2.93883e-13
-6.31198e-12
8.52391e-17
7.29664e-13
-1.27008e-11
1.30761e-15
1.4296e-12
-2.14417e-11
-1.38639e-15
2.5088e-12
-3.26586e-11
5.84449e-17
4.03461e-12
-4.65067e-11
2.63208e-16
6.087e-12
-6.31532e-11
-2.46109e-16
8.75984e-12
-8.27774e-11
1.91539e-16
1.21326e-11
-1.05583e-10
-4.41581e-16
1.63054e-11
-1.31751e-10
1.97198e-16
2.13622e-11
-1.61486e-10
6.84106e-17
2.7393e-11
-1.95008e-10
-3.30361e-16
3.4487e-11
-2.32478e-10
-2.96045e-16
4.27297e-11
-2.74113e-10
-1.89449e-16
5.21941e-11
-3.20047e-10
-4.07645e-16
6.2951e-11
-3.70441e-10
-4.31595e-16
7.50577e-11
-4.2542e-10
-4.15898e-16
8.85561e-11
-4.85075e-10
-6.66681e-16
1.03475e-10
-5.49441e-10
-4.84363e-16
1.19818e-10
-6.18523e-10
-5.64525e-16
1.37568e-10
-6.92328e-10
-4.14693e-16
1.56679e-10
-7.70655e-10
-4.41363e-16
1.77078e-10
-8.53449e-10
-4.01727e-16
1.98657e-10
-9.40398e-10
-4.77443e-16
2.21276e-10
-1.03127e-09
-4.88857e-16
2.44757e-10
-1.12569e-09
-5.48169e-16
2.68889e-10
-1.22313e-09
-5.3796e-16
2.93424e-10
-1.3233e-09
-5.33445e-16
3.18077e-10
-1.4254e-09
-5.22781e-16
3.42532e-10
-1.52894e-09
-5.11695e-16
3.66448e-10
-1.63325e-09
-5.51293e-16
3.89458e-10
-1.73756e-09
-5.5749e-16
4.11179e-10
-1.84115e-09
-6.32118e-16
4.31218e-10
-1.94324e-09
-6.16014e-16
4.49177e-10
-2.0431e-09
-6.7609e-16
4.64669e-10
-2.13988e-09
-6.32346e-16
4.77323e-10
-2.23288e-09
-7.19797e-16
4.86788e-10
-2.32131e-09
-7.13997e-16
4.92755e-10
-2.40389e-09
-8.14056e-16
-2.48123e-09
-7.38064e-16
8.9959e-15
-2.53095e-13
-1.23754e-17
8.88842e-14
-2.25885e-12
9.38677e-18
3.18975e-13
-6.54182e-12
7.73232e-17
7.88693e-13
-1.316e-11
1.25352e-15
1.54799e-12
-2.22106e-11
-1.23943e-15
2.71213e-12
-3.38213e-11
2.31749e-16
4.35747e-12
-4.81499e-11
1.98825e-16
6.56833e-12
-6.5366e-11
-2.39815e-16
9.44467e-12
-8.56522e-11
2.05979e-16
1.30726e-11
-1.09213e-10
-1.82209e-16
1.75537e-11
-1.36232e-10
1.7772e-17
2.29789e-11
-1.66913e-10
-1.80854e-16
2.94429e-11
-2.01475e-10
-3.34819e-16
3.70374e-11
-2.40076e-10
-3.90733e-16
4.58519e-11
-2.82928e-10
-1.85844e-16
5.59614e-11
-3.3016e-10
-4.55844e-16
6.7437e-11
-3.81921e-10
-4.8548e-16
8.03366e-11
-4.38323e-10
-4.7122e-16