/*--------------------------------*- C++ -*----------------------------------*\
| =========                 |                                                 |
| \\      /  F ield         | OpenFOAM: The Open Source CFD Toolbox           |
|  \\    /   O peration     | Version:  v2012                                 |
|   \\  /    A nd           | Website:  www.openfoam.com                      |
|    \\/     M anipulation  |                                                 |
\*---------------------------------------------------------------------------*/
FoamFile
{
    version     2.0;
    format      ascii;
    class       volScalarField;
    location    "0.75";
    object      p_rgh;
}
// * * * * * * * * * * * * * * * * * * * * * * * * * * * * * * * * * * * * * //

dimensions      [1 -1 -2 0 0 0 0];


internalField   nonuniform List<scalar> 
3326
(
3.48647e+06
3.48651e+06
3.48651e+06
3.48649e+06
3.48643e+06
3.48634e+06
3.4862e+06
3.48604e+06
3.48578e+06
3.48617e+06
3.48628e+06
3.48636e+06
3.48643e+06
3.48646e+06
3.48647e+06
3.48644e+06
3.48638e+06
3.48629e+06
3.48615e+06
3.48599e+06
3.48574e+06
3.45314e+06
3.45788e+06
3.46154e+06
3.46466e+06
3.46722e+06
3.46941e+06
3.47127e+06
3.47287e+06
3.47426e+06
3.47547e+06
3.47654e+06
3.47748e+06
3.47832e+06
3.47907e+06
3.47975e+06
3.48037e+06
3.48093e+06
3.48145e+06
3.48193e+06
3.48237e+06
3.48278e+06
3.48317e+06
3.48353e+06
3.48387e+06
3.48418e+06
3.48448e+06
3.48475e+06
3.48501e+06
3.48524e+06
3.48546e+06
3.48566e+06
3.48583e+06
3.48599e+06
3.48612e+06
3.48623e+06
3.48632e+06
3.48638e+06
3.48641e+06
3.48642e+06
3.48639e+06
3.48634e+06
3.48625e+06
3.48611e+06
3.48595e+06
3.4857e+06
3.45583e+06
3.46018e+06
3.46348e+06
3.46631e+06
3.46862e+06
3.4706e+06
3.47228e+06
3.47373e+06
3.47499e+06
3.47609e+06
3.47706e+06
3.47792e+06
3.47868e+06
3.47938e+06
3.48e+06
3.48057e+06
3.4811e+06
3.48158e+06
3.48203e+06
3.48245e+06
3.48284e+06
3.48321e+06
3.48355e+06
3.48388e+06
3.48418e+06
3.48447e+06
3.48474e+06
3.48498e+06
3.48522e+06
3.48543e+06
3.48562e+06
3.4858e+06
3.48595e+06
3.48608e+06
3.48619e+06
3.48628e+06
3.48634e+06
3.48637e+06
3.48638e+06
3.48635e+06
3.48629e+06
3.48621e+06
3.48607e+06
3.48591e+06
3.48566e+06
3.45868e+06
3.46263e+06
3.46552e+06
3.46805e+06
3.4701e+06
3.47185e+06
3.47334e+06
3.47463e+06
3.47575e+06
3.47673e+06
3.4776e+06
3.47837e+06
3.47907e+06
3.47969e+06
3.48027e+06
3.48079e+06
3.48127e+06
3.48172e+06
3.48214e+06
3.48254e+06
3.4829e+06
3.48325e+06
3.48358e+06
3.48389e+06
3.48419e+06
3.48446e+06
3.48472e+06
3.48497e+06
3.48519e+06
3.4854e+06
3.48559e+06
3.48576e+06
3.48591e+06
3.48604e+06
3.48615e+06
3.48624e+06
3.4863e+06
3.48633e+06
3.48634e+06
3.48631e+06
3.48626e+06
3.48617e+06
3.48603e+06
3.48588e+06
3.48563e+06
3.46168e+06
3.46521e+06
3.46767e+06
3.46988e+06
3.47164e+06
3.47317e+06
3.47445e+06
3.47557e+06
3.47655e+06
3.4774e+06
3.47816e+06
3.47885e+06
3.47946e+06
3.48002e+06
3.48054e+06
3.48101e+06
3.48145e+06
3.48187e+06
3.48226e+06
3.48262e+06
3.48297e+06
3.4833e+06
3.48361e+06
3.48391e+06
3.48419e+06
3.48446e+06
3.48471e+06
3.48495e+06
3.48517e+06
3.48538e+06
3.48556e+06
3.48573e+06
3.48588e+06
3.48601e+06
3.48612e+06
3.4862e+06
3.48626e+06
3.4863e+06
3.4863e+06
3.48628e+06
3.48622e+06
3.48613e+06
3.486e+06
3.48585e+06
3.4856e+06
3.46483e+06
3.46791e+06
3.46992e+06
3.47179e+06
3.47325e+06
3.47453e+06
3.47561e+06
3.47655e+06
3.47737e+06
3.4781e+06
3.47875e+06
3.47934e+06
3.47987e+06
3.48036e+06
3.48082e+06
3.48124e+06
3.48164e+06
3.48202e+06
3.48237e+06
3.48272e+06
3.48304e+06
3.48335e+06
3.48365e+06
3.48393e+06
3.4842e+06
3.48446e+06
3.48471e+06
3.48494e+06
3.48515e+06
3.48535e+06
3.48554e+06
3.4857e+06
3.48585e+06
3.48598e+06
3.48609e+06
3.48617e+06
3.48623e+06
3.48626e+06
3.48627e+06
3.48624e+06
3.48619e+06
3.4861e+06
3.48597e+06
3.48582e+06
3.48558e+06
3.46813e+06
3.47072e+06
3.47227e+06
3.47378e+06
3.47493e+06
3.47595e+06
3.4768e+06
3.47756e+06
3.47822e+06
3.47881e+06
3.47935e+06
3.47984e+06
3.48029e+06
3.48071e+06
3.4811e+06
3.48148e+06
3.48183e+06
3.48217e+06
3.4825e+06
3.48281e+06
3.48311e+06
3.4834e+06
3.48368e+06
3.48396e+06
3.48422e+06
3.48446e+06
3.4847e+06
3.48493e+06
3.48514e+06
3.48533e+06
3.48551e+06
3.48568e+06
3.48582e+06
3.48595e+06
3.48606e+06
3.48614e+06
3.4862e+06
3.48623e+06
3.48624e+06
3.48622e+06
3.48616e+06
3.48608e+06
3.48595e+06
3.4858e+06
3.48556e+06
3.47158e+06
3.47363e+06
3.47471e+06
3.47584e+06
3.47666e+06
3.47741e+06
3.47804e+06
3.47859e+06
3.47909e+06
3.47954e+06
3.47996e+06
3.48035e+06
3.48071e+06
3.48106e+06
3.48139e+06
3.48171e+06
3.48202e+06
3.48233e+06
3.48262e+06
3.48291e+06
3.48319e+06
3.48346e+06
3.48372e+06
3.48398e+06
3.48423e+06
3.48447e+06
3.4847e+06
3.48492e+06
3.48512e+06
3.48532e+06
3.48549e+06
3.48566e+06
3.4858e+06
3.48592e+06
3.48603e+06
3.48611e+06
3.48617e+06
3.4862e+06
3.48621e+06
3.48619e+06
3.48613e+06
3.48605e+06
3.48593e+06
3.48578e+06
3.48555e+06
3.4752e+06
3.47663e+06
3.47724e+06
3.47796e+06
3.47845e+06
3.47891e+06
3.4793e+06
3.47965e+06
3.47998e+06
3.48029e+06
3.48058e+06
3.48086e+06
3.48114e+06
3.48141e+06
3.48168e+06
3.48195e+06
3.48222e+06
3.48248e+06
3.48274e+06
3.483e+06
3.48326e+06
3.48351e+06
3.48376e+06
3.48401e+06
3.48424e+06
3.48448e+06
3.4847e+06
3.48491e+06
3.48511e+06
3.4853e+06
3.48548e+06
3.48564e+06
3.48578e+06
3.4859e+06
3.48601e+06
3.48609e+06
3.48615e+06
3.48618e+06
3.48619e+06
3.48616e+06
3.48611e+06
3.48603e+06
3.48591e+06
3.48576e+06
3.48553e+06
3.47899e+06
3.47973e+06
3.47987e+06
3.48015e+06
3.48029e+06
3.48045e+06
3.48059e+06
3.48073e+06
3.48088e+06
3.48104e+06
3.48121e+06
3.48139e+06
3.48157e+06
3.48177e+06
3.48198e+06
3.48219e+06
3.48241e+06
3.48264e+06
3.48287e+06
3.4831e+06
3.48334e+06
3.48357e+06
3.4838e+06
3.48403e+06
3.48426e+06
3.48448e+06
3.4847e+06
3.48491e+06
3.4851e+06
3.48529e+06
3.48546e+06
3.48562e+06
3.48576e+06
3.48588e+06
3.48598e+06
3.48607e+06
3.48612e+06
3.48616e+06
3.48616e+06
3.48614e+06
3.48609e+06
3.48601e+06
3.48589e+06
3.48575e+06
3.48552e+06
3.48295e+06
3.48291e+06
3.48258e+06
3.48239e+06
3.48217e+06
3.48202e+06
3.4819e+06
3.48183e+06
3.48179e+06
3.4818e+06
3.48184e+06
3.48191e+06
3.482e+06
3.48213e+06
3.48227e+06
3.48243e+06
3.4826e+06
3.48279e+06
3.48299e+06
3.4832e+06
3.48341e+06
3.48363e+06
3.48384e+06
3.48406e+06
3.48428e+06
3.48449e+06
3.4847e+06
3.4849e+06
3.4851e+06
3.48528e+06
3.48545e+06
3.4856e+06
3.48574e+06
3.48586e+06
3.48597e+06
3.48605e+06
3.48611e+06
3.48614e+06
3.48615e+06
3.48613e+06
3.48608e+06
3.486e+06
3.48588e+06
3.48574e+06
3.48552e+06
3.48705e+06
3.4862e+06
3.48537e+06
3.48469e+06
3.48409e+06
3.48361e+06
3.48322e+06
3.48292e+06
3.4827e+06
3.48255e+06
3.48246e+06
3.48242e+06
3.48243e+06
3.48248e+06
3.48256e+06
3.48266e+06
3.48279e+06
3.48295e+06
3.48311e+06
3.48329e+06
3.48348e+06
3.48368e+06
3.48389e+06
3.48409e+06
3.4843e+06
3.4845e+06
3.48471e+06
3.4849e+06
3.48509e+06
3.48527e+06
3.48544e+06
3.48559e+06
3.48573e+06
3.48585e+06
3.48595e+06
3.48603e+06
3.48609e+06
3.48612e+06
3.48613e+06
3.48611e+06
3.48606e+06
3.48598e+06
3.48587e+06
3.48573e+06
3.48552e+06
3.4913e+06
3.4896e+06
3.48824e+06
3.48704e+06
3.48604e+06
3.48522e+06
3.48455e+06
3.48402e+06
3.48361e+06
3.4833e+06
3.48308e+06
3.48293e+06
3.48285e+06
3.48282e+06
3.48284e+06
3.48289e+06
3.48298e+06
3.48309e+06
3.48323e+06
3.48339e+06
3.48356e+06
3.48374e+06
3.48393e+06
3.48412e+06
3.48432e+06
3.48452e+06
3.48471e+06
3.4849e+06
3.48509e+06
3.48526e+06
3.48543e+06
3.48558e+06
3.48572e+06
3.48584e+06
3.48594e+06
3.48602e+06
3.48608e+06
3.48611e+06
3.48612e+06
3.4861e+06
3.48605e+06
3.48598e+06
3.48586e+06
3.48573e+06
3.48552e+06
3.49574e+06
3.49315e+06
3.49119e+06
3.48943e+06
3.48801e+06
3.48683e+06
3.48587e+06
3.4851e+06
3.4845e+06
3.48403e+06
3.48368e+06
3.48343e+06
3.48326e+06
3.48315e+06
3.48311e+06
3.48311e+06
3.48316e+06
3.48324e+06
3.48335e+06
3.48348e+06
3.48363e+06
3.48379e+06
3.48397e+06
3.48415e+06
3.48434e+06
3.48453e+06
3.48472e+06
3.48491e+06
3.48509e+06
3.48526e+06
3.48542e+06
3.48557e+06
3.48571e+06
3.48583e+06
3.48593e+06
3.48601e+06
3.48607e+06
3.4861e+06
3.48611e+06
3.48609e+06
3.48604e+06
3.48597e+06
3.48586e+06
3.48573e+06
3.48552e+06
3.50042e+06
3.49686e+06
3.49419e+06
3.49185e+06
3.48997e+06
3.48842e+06
3.48717e+06
3.48617e+06
3.48537e+06
3.48475e+06
3.48427e+06
3.48391e+06
3.48365e+06
3.48348e+06
3.48337e+06
3.48333e+06
3.48333e+06
3.48338e+06
3.48346e+06
3.48356e+06
3.48369e+06
3.48384e+06
3.48401e+06
3.48418e+06
3.48436e+06
3.48454e+06
3.48473e+06
3.48491e+06
3.48509e+06
3.48526e+06
3.48542e+06
3.48557e+06
3.4857e+06
3.48582e+06
3.48592e+06
3.486e+06
3.48606e+06
3.48609e+06
3.4861e+06
3.48608e+06
3.48604e+06
3.48596e+06
3.48586e+06
3.48573e+06
3.48553e+06
3.50529e+06
3.50069e+06
3.49723e+06
3.49426e+06
3.49191e+06
3.48998e+06
3.48844e+06
3.48719e+06
3.48621e+06
3.48543e+06
3.48483e+06
3.48437e+06
3.48402e+06
3.48378e+06
3.48362e+06
3.48353e+06
3.48349e+06
3.48351e+06
3.48356e+06
3.48365e+06
3.48376e+06
3.48389e+06
3.48404e+06
3.48421e+06
3.48438e+06
3.48456e+06
3.48474e+06
3.48491e+06
3.48509e+06
3.48526e+06
3.48542e+06
3.48557e+06
3.4857e+06
3.48582e+06
3.48592e+06
3.486e+06
3.48606e+06
3.48609e+06
3.4861e+06
3.48608e+06
3.48603e+06
3.48596e+06
3.48586e+06
3.48573e+06
3.48554e+06
3.51029e+06
3.50457e+06
3.50021e+06
3.49662e+06
3.49378e+06
3.49148e+06
3.48964e+06
3.48817e+06
3.487e+06
3.48608e+06
3.48536e+06
3.4848e+06
3.48438e+06
3.48407e+06
3.48385e+06
3.48372e+06
3.48365e+06
3.48363e+06
3.48366e+06
3.48372e+06
3.48382e+06
3.48394e+06
3.48408e+06
3.48423e+06
3.4844e+06
3.48457e+06
3.48474e+06
3.48492e+06
3.48509e+06
3.48526e+06
3.48542e+06
3.48557e+06
3.4857e+06
3.48582e+06
3.48592e+06
3.486e+06
3.48605e+06
3.48609e+06
3.4861e+06
3.48608e+06
3.48603e+06
3.48596e+06
3.48586e+06
3.48574e+06
3.48556e+06
3.51514e+06
3.50834e+06
3.50305e+06
3.49886e+06
3.49553e+06
3.49288e+06
3.49077e+06
3.48908e+06
3.48774e+06
3.48668e+06
3.48585e+06
3.4852e+06
3.4847e+06
3.48433e+06
3.48407e+06
3.48389e+06
3.48379e+06
3.48374e+06
3.48375e+06
3.48379e+06
3.48387e+06
3.48398e+06
3.48411e+06
3.48426e+06
3.48441e+06
3.48458e+06
3.48475e+06
3.48493e+06
3.4851e+06
3.48526e+06
3.48542e+06
3.48557e+06
3.4857e+06
3.48582e+06
3.48592e+06
3.486e+06
3.48605e+06
3.48609e+06
3.4861e+06
3.48608e+06
3.48604e+06
3.48597e+06
3.48587e+06
3.48575e+06
3.48558e+06
3.51938e+06
3.51174e+06
3.5056e+06
3.50089e+06
3.49712e+06
3.49416e+06
3.49179e+06
3.48991e+06
3.48841e+06
3.48723e+06
3.48629e+06
3.48556e+06
3.485e+06
3.48458e+06
3.48427e+06
3.48405e+06
3.48392e+06
3.48385e+06
3.48383e+06
3.48386e+06
3.48392e+06
3.48402e+06
3.48414e+06
3.48428e+06
3.48443e+06
3.4846e+06
3.48476e+06
3.48493e+06
3.4851e+06
3.48527e+06
3.48543e+06
3.48557e+06
3.48571e+06
3.48582e+06
3.48592e+06
3.486e+06
3.48606e+06
3.48609e+06
3.4861e+06
3.48608e+06
3.48604e+06
3.48597e+06
3.48588e+06
3.48576e+06
3.4856e+06
3.52276e+06
3.51458e+06
3.50776e+06
3.50263e+06
3.4985e+06
3.49527e+06
3.49269e+06
3.49064e+06
3.489e+06
3.48771e+06
3.48669e+06
3.48589e+06
3.48526e+06
3.48479e+06
3.48444e+06
3.48419e+06
3.48403e+06
3.48394e+06
3.4839e+06
3.48391e+06
3.48397e+06
3.48405e+06
3.48417e+06
3.4843e+06
3.48445e+06
3.48461e+06
3.48477e+06
3.48494e+06
3.48511e+06
3.48528e+06
3.48543e+06
3.48558e+06
3.48571e+06
3.48583e+06
3.48593e+06
3.48601e+06
3.48607e+06
3.4861e+06
3.48611e+06
3.48609e+06
3.48605e+06
3.48598e+06
3.48589e+06
3.48578e+06
3.48562e+06
3.52531e+06
3.51678e+06
3.50948e+06
3.50404e+06
3.49964e+06
3.4962e+06
3.49344e+06
3.49126e+06
3.48951e+06
3.48813e+06
3.48703e+06
3.48617e+06
3.4855e+06
3.48498e+06
3.4846e+06
3.48432e+06
3.48413e+06
3.48402e+06
3.48396e+06
3.48396e+06
3.48401e+06
3.48408e+06
3.48419e+06
3.48432e+06
3.48446e+06
3.48462e+06
3.48478e+06
3.48495e+06
3.48512e+06
3.48528e+06
3.48544e+06
3.48559e+06
3.48572e+06
3.48584e+06
3.48594e+06
3.48602e+06
3.48608e+06
3.48611e+06
3.48612e+06
3.4861e+06
3.48606e+06
3.48599e+06
3.4859e+06
3.4858e+06
3.48564e+06
3.52714e+06
3.51834e+06
3.51076e+06
3.50511e+06
3.50052e+06
3.49693e+06
3.49405e+06
3.49176e+06
3.48993e+06
3.48847e+06
3.48732e+06
3.4864e+06
3.48569e+06
3.48514e+06
3.48473e+06
3.48442e+06
3.48421e+06
3.48408e+06
3.48402e+06
3.48401e+06
3.48404e+06
3.48411e+06
3.48421e+06
3.48433e+06
3.48448e+06
3.48463e+06
3.4848e+06
3.48496e+06
3.48513e+06
3.4853e+06
3.48545e+06
3.4856e+06
3.48573e+06
3.48585e+06
3.48595e+06
3.48603e+06
3.48609e+06
3.48612e+06
3.48613e+06
3.48611e+06
3.48607e+06
3.486e+06
3.48591e+06
3.48581e+06
3.48567e+06
3.5283e+06
3.51928e+06
3.5116e+06
3.50584e+06
3.50114e+06
3.49746e+06
3.4945e+06
3.49214e+06
3.49025e+06
3.48875e+06
3.48755e+06
3.48659e+06
3.48585e+06
3.48527e+06
3.48483e+06
3.48451e+06
3.48428e+06
3.48414e+06
3.48406e+06
3.48404e+06
3.48407e+06
3.48413e+06
3.48423e+06
3.48435e+06
3.48449e+06
3.48464e+06
3.48481e+06
3.48497e+06
3.48514e+06
3.48531e+06
3.48547e+06
3.48561e+06
3.48575e+06
3.48587e+06
3.48597e+06
3.48605e+06
3.4861e+06
3.48614e+06
3.48614e+06
3.48613e+06
3.48608e+06
3.48602e+06
3.48593e+06
3.48583e+06
3.4857e+06
3.52885e+06
3.51966e+06
3.51204e+06
3.50622e+06
3.50151e+06
3.49779e+06
3.4948e+06
3.4924e+06
3.49048e+06
3.48895e+06
3.48772e+06
3.48674e+06
3.48597e+06
3.48537e+06
3.48491e+06
3.48458e+06
3.48434e+06
3.48418e+06
3.48409e+06
3.48407e+06
3.48409e+06
3.48415e+06
3.48424e+06
3.48436e+06
3.4845e+06
3.48465e+06
3.48482e+06
3.48498e+06
3.48515e+06
3.48532e+06
3.48548e+06
3.48563e+06
3.48577e+06
3.48589e+06
3.48599e+06
3.48607e+06
3.48612e+06
3.48615e+06
3.48616e+06
3.48614e+06
3.4861e+06
3.48603e+06
3.48595e+06
3.48585e+06
3.48573e+06
3.52882e+06
3.51953e+06
3.51208e+06
3.50629e+06
3.50163e+06
3.49793e+06
3.49494e+06
3.49255e+06
3.49062e+06
3.48907e+06
3.48783e+06
3.48684e+06
3.48605e+06
3.48544e+06
3.48497e+06
3.48462e+06
3.48437e+06
3.48421e+06
3.48412e+06
3.48408e+06
3.4841e+06
3.48416e+06
3.48425e+06
3.48437e+06
3.48451e+06
3.48466e+06
3.48483e+06
3.485e+06
3.48517e+06
3.48534e+06
3.4855e+06
3.48565e+06
3.48579e+06
3.48591e+06
3.48601e+06
3.48609e+06
3.48614e+06
3.48617e+06
3.48618e+06
3.48616e+06
3.48612e+06
3.48605e+06
3.48597e+06
3.48588e+06
3.48576e+06
3.52813e+06
3.5189e+06
3.51174e+06
3.50606e+06
3.50152e+06
3.49789e+06
3.49496e+06
3.49259e+06
3.49068e+06
3.48913e+06
3.48789e+06
3.48689e+06
3.4861e+06
3.48548e+06
3.48501e+06
3.48465e+06
3.48439e+06
3.48423e+06
3.48413e+06
3.48409e+06
3.48411e+06
3.48416e+06
3.48426e+06
3.48437e+06
3.48451e+06
3.48467e+06
3.48484e+06
3.48501e+06
3.48518e+06
3.48535e+06
3.48552e+06
3.48567e+06
3.48581e+06
3.48593e+06
3.48603e+06
3.48611e+06
3.48617e+06
3.4862e+06
3.4862e+06
3.48618e+06
3.48614e+06
3.48607e+06
3.48599e+06
3.4859e+06
3.48579e+06
3.55393e+06
3.53742e+06
3.52673e+06
3.51778e+06
3.51102e+06
3.50555e+06
3.5012e+06
3.49769e+06
3.49484e+06
3.49253e+06
3.49066e+06
3.48913e+06
3.4879e+06
3.48691e+06
3.48612e+06
3.4855e+06
3.48502e+06
3.48466e+06
3.4844e+06
3.48423e+06
3.48413e+06
3.48409e+06
3.48411e+06
3.48416e+06
3.48426e+06
3.48438e+06
3.48452e+06
3.48468e+06
3.48485e+06
3.48502e+06
3.4852e+06
3.48537e+06
3.48554e+06
3.48569e+06
3.48583e+06
3.48596e+06
3.48606e+06
3.48614e+06
3.4862e+06
3.48623e+06
3.48623e+06
3.48621e+06
3.48616e+06
3.48609e+06
3.48601e+06
3.48592e+06
3.48582e+06
3.54949e+06
3.53444e+06
3.52458e+06
3.51626e+06
3.50997e+06
3.50482e+06
3.50071e+06
3.49735e+06
3.49462e+06
3.49239e+06
3.49057e+06
3.48908e+06
3.48787e+06
3.48689e+06
3.48611e+06
3.48549e+06
3.48501e+06
3.48465e+06
3.48439e+06
3.48422e+06
3.48412e+06
3.48408e+06
3.4841e+06
3.48416e+06
3.48425e+06
3.48438e+06
3.48452e+06
3.48469e+06
3.48486e+06
3.48504e+06
3.48522e+06
3.48539e+06
3.48556e+06
3.48572e+06
3.48586e+06
3.48599e+06
3.48609e+06
3.48617e+06
3.48623e+06
3.48626e+06
3.48626e+06
3.48623e+06
3.48618e+06
3.48611e+06
3.48603e+06
3.48594e+06
3.48585e+06
3.54363e+06
3.53092e+06
3.52185e+06
3.51443e+06
3.50865e+06
3.50391e+06
3.50007e+06
3.49691e+06
3.49432e+06
3.49219e+06
3.49043e+06
3.48898e+06
3.4878e+06
3.48684e+06
3.48606e+06
3.48545e+06
3.48498e+06
3.48462e+06
3.48436e+06
3.4842e+06
3.4841e+06
3.48407e+06
3.48409e+06
3.48415e+06
3.48425e+06
3.48438e+06
3.48453e+06
3.48469e+06
3.48487e+06
3.48505e+06
3.48524e+06
3.48542e+06
3.48559e+06
3.48575e+06
3.48589e+06
3.48602e+06
3.48612e+06
3.48621e+06
3.48626e+06
3.48629e+06
3.48629e+06
3.48626e+06
3.48621e+06
3.48614e+06
3.48605e+06
3.48597e+06
3.48588e+06
3.53768e+06
3.52702e+06
3.51893e+06
3.51245e+06
3.50723e+06
3.50291e+06
3.49937e+06
3.49641e+06
3.49397e+06
3.49193e+06
3.49024e+06
3.48884e+06
3.48769e+06
3.48675e+06
3.48599e+06
3.48539e+06
3.48493e+06
3.48458e+06
3.48432e+06
3.48416e+06
3.48407e+06
3.48404e+06
3.48406e+06
3.48413e+06
3.48424e+06
3.48437e+06
3.48453e+06
3.4847e+06
3.48488e+06
3.48507e+06
3.48526e+06
3.48544e+06
3.48562e+06
3.48578e+06
3.48593e+06
3.48606e+06
3.48616e+06
3.48624e+06
3.4863e+06
3.48632e+06
3.48632e+06
3.48629e+06
3.48624e+06
3.48616e+06
3.48607e+06
3.48599e+06
3.48591e+06
3.53213e+06
3.52286e+06
3.51597e+06
3.51039e+06
3.50575e+06
3.50186e+06
3.49861e+06
3.49587e+06
3.49357e+06
3.49164e+06
3.49002e+06
3.48867e+06
3.48755e+06
3.48664e+06
3.4859e+06
3.48531e+06
3.48485e+06
3.48451e+06
3.48427e+06
3.48411e+06
3.48403e+06
3.484e+06
3.48403e+06
3.48411e+06
3.48422e+06
3.48436e+06
3.48452e+06
3.4847e+06
3.48489e+06
3.48508e+06
3.48528e+06
3.48547e+06
3.48565e+06
3.48581e+06
3.48597e+06
3.4861e+06
3.4862e+06
3.48628e+06
3.48634e+06
3.48636e+06
3.48636e+06
3.48633e+06
3.48627e+06
3.48619e+06
3.48609e+06
3.48601e+06
3.48593e+06
3.52765e+06
3.51928e+06
3.51347e+06
3.50857e+06
3.50444e+06
3.5009e+06
3.4979e+06
3.49535e+06
3.49317e+06
3.49133e+06
3.48978e+06
3.48847e+06
3.48739e+06
3.4865e+06
3.48578e+06
3.4852e+06
3.48476e+06
3.48443e+06
3.48419e+06
3.48405e+06
3.48397e+06
3.48396e+06
3.484e+06
3.48408e+06
3.4842e+06
3.48435e+06
3.48452e+06
3.48471e+06
3.4849e+06
3.4851e+06
3.4853e+06
3.4855e+06
3.48568e+06
3.48585e+06
3.48601e+06
3.48614e+06
3.48625e+06
3.48633e+06
3.48638e+06
3.48641e+06
3.4864e+06
3.48636e+06
3.4863e+06
3.48621e+06
3.48612e+06
3.48603e+06
3.48595e+06
3.52374e+06
3.51606e+06
3.51114e+06
3.50685e+06
3.50317e+06
3.49997e+06
3.4972e+06
3.49481e+06
3.49276e+06
3.491e+06
3.48951e+06
3.48825e+06
3.4872e+06
3.48633e+06
3.48563e+06
3.48507e+06
3.48464e+06
3.48432e+06
3.4841e+06
3.48397e+06
3.4839e+06
3.4839e+06
3.48395e+06
3.48405e+06
3.48418e+06
3.48433e+06
3.48451e+06
3.48471e+06
3.48491e+06
3.48512e+06
3.48533e+06
3.48553e+06
3.48572e+06
3.48589e+06
3.48605e+06
3.48619e+06
3.4863e+06
3.48638e+06
3.48643e+06
3.48645e+06
3.48644e+06
3.4864e+06
3.48633e+06
3.48624e+06
3.48614e+06
3.48605e+06
3.48597e+06
3.52172e+06
3.51438e+06
3.50974e+06
3.50572e+06
3.50227e+06
3.49924e+06
3.49661e+06
3.49432e+06
3.49235e+06
3.49065e+06
3.48921e+06
3.48799e+06
3.48697e+06
3.48613e+06
3.48545e+06
3.48491e+06
3.4845e+06
3.4842e+06
3.48399e+06
3.48387e+06
3.48382e+06
3.48383e+06
3.4839e+06
3.484e+06
3.48415e+06
3.48431e+06
3.48451e+06
3.48471e+06
3.48492e+06
3.48514e+06
3.48535e+06
3.48556e+06
3.48576e+06
3.48594e+06
3.4861e+06
3.48624e+06
3.48635e+06
3.48643e+06
3.48648e+06
3.4865e+06
3.48649e+06
3.48644e+06
3.48637e+06
3.48627e+06
3.48616e+06
3.48606e+06
3.48599e+06
3.51895e+06
3.51231e+06
3.50798e+06
3.50437e+06
3.50121e+06
3.4984e+06
3.49593e+06
3.49376e+06
3.49188e+06
3.49025e+06
3.48886e+06
3.48768e+06
3.48669e+06
3.48588e+06
3.48523e+06
3.48472e+06
3.48433e+06
3.48405e+06
3.48386e+06
3.48376e+06
3.48372e+06
3.48375e+06
3.48383e+06
3.48395e+06
3.48411e+06
3.48429e+06
3.48449e+06
3.48471e+06
3.48493e+06
3.48516e+06
3.48538e+06
3.4856e+06
3.4858e+06
3.48598e+06
3.48615e+06
3.48629e+06
3.4864e+06
3.48649e+06
3.48654e+06
3.48655e+06
3.48654e+06
3.48649e+06
3.4864e+06
3.4863e+06
3.48618e+06
3.48607e+06
3.486e+06
3.51829e+06
3.51205e+06
3.50737e+06
3.50369e+06
3.50052e+06
3.49775e+06
3.49533e+06
3.49322e+06
3.49139e+06
3.4898e+06
3.48845e+06
3.48731e+06
3.48636e+06
3.48558e+06
3.48496e+06
3.48447e+06
3.48411e+06
3.48386e+06
3.48369e+06
3.48361e+06
3.4836e+06
3.48365e+06
3.48375e+06
3.48389e+06
3.48406e+06
3.48426e+06
3.48448e+06
3.48471e+06
3.48494e+06
3.48518e+06
3.48541e+06
3.48564e+06
3.48585e+06
3.48604e+06
3.48621e+06
3.48635e+06
3.48647e+06
3.48655e+06
3.4866e+06
3.48662e+06
3.48659e+06
3.48654e+06
3.48645e+06
3.48633e+06
3.4862e+06
3.48608e+06
3.486e+06
3.51141e+06
3.50767e+06
3.5046e+06
3.50174e+06
3.49903e+06
3.49656e+06
3.49435e+06
3.49238e+06
3.49066e+06
3.48916e+06
3.48789e+06
3.48681e+06
3.48592e+06
3.48519e+06
3.48462e+06
3.48417e+06
3.48385e+06
3.48363e+06
3.4835e+06
3.48345e+06
3.48347e+06
3.48354e+06
3.48366e+06
3.48382e+06
3.48401e+06
3.48423e+06
3.48446e+06
3.48471e+06
3.48495e+06
3.4852e+06
3.48544e+06
3.48567e+06
3.48589e+06
3.48609e+06
3.48626e+06
3.48641e+06
3.48653e+06
3.48661e+06
3.48666e+06
3.48667e+06
3.48665e+06
3.48658e+06
3.48648e+06
3.48636e+06
3.48622e+06
3.48609e+06
3.48599e+06
3.48647e+06
3.48651e+06
3.48651e+06
3.48649e+06
3.48643e+06
3.48634e+06
3.4862e+06
3.48604e+06
3.48578e+06
3.48617e+06
3.48628e+06
3.48636e+06
3.48643e+06
3.48646e+06
3.48647e+06
3.48644e+06
3.48638e+06
3.48629e+06
3.48615e+06
3.48599e+06
3.48574e+06
3.45314e+06
3.45788e+06
3.46154e+06
3.46466e+06
3.46722e+06
3.46941e+06
3.47127e+06
3.47287e+06
3.47426e+06
3.47547e+06
3.47654e+06
3.47748e+06
3.47832e+06
3.47907e+06
3.47975e+06
3.48037e+06
3.48093e+06
3.48145e+06
3.48193e+06
3.48237e+06
3.48278e+06
3.48317e+06
3.48353e+06
3.48387e+06
3.48418e+06
3.48448e+06
3.48475e+06
3.48501e+06
3.48524e+06
3.48546e+06
3.48566e+06
3.48583e+06
3.48599e+06
3.48612e+06
3.48623e+06
3.48632e+06
3.48638e+06
3.48641e+06
3.48642e+06
3.48639e+06
3.48634e+06
3.48625e+06
3.48611e+06
3.48595e+06
3.4857e+06
3.45583e+06
3.46018e+06
3.46348e+06
3.46631e+06
3.46862e+06
3.4706e+06
3.47228e+06
3.47373e+06
3.47499e+06
3.47609e+06
3.47706e+06
3.47792e+06
3.47868e+06
3.47938e+06
3.48e+06
3.48057e+06
3.4811e+06
3.48158e+06
3.48203e+06
3.48245e+06
3.48284e+06
3.48321e+06
3.48355e+06
3.48388e+06
3.48418e+06
3.48447e+06
3.48474e+06
3.48498e+06
3.48522e+06
3.48543e+06
3.48562e+06
3.4858e+06
3.48595e+06
3.48608e+06
3.48619e+06
3.48628e+06
3.48634e+06
3.48637e+06
3.48638e+06
3.48635e+06
3.48629e+06
3.48621e+06
3.48607e+06
3.48591e+06
3.48566e+06
3.45868e+06
3.46263e+06
3.46552e+06
3.46805e+06
3.4701e+06
3.47185e+06
3.47334e+06
3.47463e+06
3.47575e+06
3.47673e+06
3.4776e+06
3.47837e+06
3.47907e+06
3.47969e+06
3.48027e+06
3.48079e+06
3.48127e+06
3.48172e+06
3.48214e+06
3.48254e+06
3.4829e+06
3.48325e+06
3.48358e+06
3.48389e+06
3.48419e+06
3.48446e+06
3.48472e+06
3.48497e+06
3.48519e+06
3.4854e+06
3.48559e+06
3.48576e+06
3.48591e+06
3.48604e+06
3.48615e+06
3.48624e+06
3.4863e+06
3.48633e+06
3.48634e+06
3.48631e+06
3.48626e+06
3.48617e+06
3.48603e+06
3.48588e+06
3.48563e+06
3.46168e+06
3.46521e+06
3.46767e+06
3.46988e+06
3.47164e+06
3.47317e+06
3.47445e+06
3.47557e+06
3.47655e+06
3.4774e+06
3.47816e+06
3.47885e+06
3.47946e+06
3.48002e+06
3.48054e+06
3.48101e+06
3.48145e+06
3.48187e+06
3.48226e+06
3.48262e+06
3.48297e+06
3.4833e+06
3.48361e+06
3.48391e+06
3.48419e+06
3.48446e+06
3.48471e+06
3.48495e+06
3.48517e+06
3.48538e+06
3.48556e+06
3.48573e+06
3.48588e+06
3.48601e+06
3.48612e+06
3.4862e+06
3.48626e+06
3.4863e+06
3.4863e+06
3.48628e+06
3.48622e+06
3.48613e+06
3.486e+06
3.48585e+06
3.4856e+06
3.46483e+06
3.46791e+06
3.46992e+06
3.47179e+06
3.47325e+06
3.47453e+06
3.47561e+06
3.47655e+06
3.47737e+06
3.4781e+06
3.47875e+06
3.47934e+06
3.47987e+06
3.48036e+06
3.48082e+06
3.48124e+06
3.48164e+06
3.48202e+06
3.48237e+06
3.48272e+06
3.48304e+06
3.48335e+06
3.48365e+06
3.48393e+06
3.4842e+06
3.48446e+06
3.48471e+06
3.48494e+06
3.48515e+06
3.48535e+06
3.48554e+06
3.4857e+06
3.48585e+06
3.48598e+06
3.48609e+06
3.48617e+06
3.48623e+06
3.48626e+06
3.48627e+06
3.48624e+06
3.48619e+06
3.4861e+06
3.48597e+06
3.48582e+06
3.48558e+06
3.46813e+06
3.47072e+06
3.47227e+06
3.47378e+06
3.47493e+06
3.47595e+06
3.4768e+06
3.47756e+06
3.47822e+06
3.47881e+06
3.47935e+06
3.47984e+06
3.48029e+06
3.48071e+06
3.4811e+06
3.48148e+06
3.48183e+06
3.48217e+06
3.4825e+06
3.48281e+06
3.48311e+06
3.4834e+06
3.48368e+06
3.48396e+06
3.48422e+06
3.48446e+06
3.4847e+06
3.48493e+06
3.48514e+06
3.48533e+06
3.48551e+06
3.48568e+06
3.48582e+06
3.48595e+06
3.48606e+06
3.48614e+06
3.4862e+06
3.48623e+06
3.48624e+06
3.48622e+06
3.48616e+06
3.48608e+06
3.48595e+06
3.4858e+06
3.48556e+06
3.47158e+06
3.47363e+06
3.47471e+06
3.47584e+06
3.47666e+06
3.47741e+06
3.47804e+06
3.47859e+06
3.47909e+06
3.47954e+06
3.47996e+06
3.48035e+06
3.48071e+06
3.48106e+06
3.48139e+06
3.48171e+06
3.48202e+06
3.48233e+06
3.48262e+06
3.48291e+06
3.48319e+06
3.48346e+06
3.48372e+06
3.48398e+06
3.48423e+06
3.48447e+06
3.4847e+06
3.48492e+06
3.48512e+06
3.48532e+06
3.48549e+06
3.48566e+06
3.4858e+06
3.48592e+06
3.48603e+06
3.48611e+06
3.48617e+06
3.4862e+06
3.48621e+06
3.48619e+06
3.48613e+06
3.48605e+06
3.48593e+06
3.48578e+06
3.48555e+06
3.4752e+06
3.47663e+06
3.47724e+06
3.47796e+06
3.47845e+06
3.47891e+06
3.4793e+06
3.47965e+06
3.47998e+06
3.48029e+06
3.48058e+06
3.48086e+06
3.48114e+06
3.48141e+06
3.48168e+06
3.48195e+06
3.48222e+06
3.48248e+06
3.48274e+06
3.483e+06
3.48326e+06
3.48351e+06
3.48376e+06
3.48401e+06
3.48424e+06
3.48448e+06
3.4847e+06
3.48491e+06
3.48511e+06
3.4853e+06
3.48548e+06
3.48564e+06
3.48578e+06
3.4859e+06
3.48601e+06
3.48609e+06
3.48615e+06
3.48618e+06
3.48619e+06
3.48616e+06
3.48611e+06
3.48603e+06
3.48591e+06
3.48576e+06
3.48553e+06
3.47899e+06
3.47973e+06
3.47987e+06
3.48015e+06
3.48029e+06
3.48045e+06
3.48059e+06
3.48073e+06
3.48088e+06
3.48104e+06
3.48121e+06
3.48139e+06
3.48157e+06
3.48177e+06
3.48198e+06
3.48219e+06
3.48241e+06
3.48264e+06
3.48287e+06
3.4831e+06
3.48334e+06
3.48357e+06
3.4838e+06
3.48403e+06
3.48426e+06
3.48448e+06
3.4847e+06
3.48491e+06
3.4851e+06
3.48529e+06
3.48546e+06
3.48562e+06
3.48576e+06
3.48588e+06
3.48598e+06
3.48607e+06
3.48612e+06
3.48616e+06
3.48616e+06
3.48614e+06
3.48609e+06
3.48601e+06
3.48589e+06
3.48575e+06
3.48552e+06
3.48295e+06
3.48291e+06
3.48258e+06
3.48239e+06
3.48217e+06
3.48202e+06
3.4819e+06
3.48183e+06
3.48179e+06
3.4818e+06
3.48184e+06
3.48191e+06
3.482e+06
3.48213e+06
3.48227e+06
3.48243e+06
3.4826e+06
3.48279e+06
3.48299e+06
3.4832e+06
3.48341e+06
3.48363e+06
3.48384e+06
3.48406e+06
3.48428e+06
3.48449e+06
3.4847e+06
3.4849e+06
3.4851e+06
3.48528e+06
3.48545e+06
3.4856e+06
3.48574e+06
3.48586e+06
3.48597e+06
3.48605e+06
3.48611e+06
3.48614e+06
3.48615e+06
3.48613e+06
3.48608e+06
3.486e+06
3.48588e+06
3.48574e+06
3.48552e+06
3.48705e+06
3.4862e+06
3.48537e+06
3.48469e+06
3.48409e+06
3.48361e+06
3.48322e+06
3.48292e+06
3.4827e+06
3.48255e+06
3.48246e+06
3.48242e+06
3.48243e+06
3.48248e+06
3.48256e+06
3.48266e+06
3.48279e+06
3.48295e+06
3.48311e+06
3.48329e+06
3.48348e+06
3.48368e+06
3.48389e+06
3.48409e+06
3.4843e+06
3.4845e+06
3.48471e+06
3.4849e+06
3.48509e+06
3.48527e+06
3.48544e+06
3.48559e+06
3.48573e+06
3.48585e+06
3.48595e+06
3.48603e+06
3.48609e+06
3.48612e+06
3.48613e+06
3.48611e+06
3.48606e+06
3.48598e+06
3.48587e+06
3.48573e+06
3.48552e+06
3.4913e+06
3.4896e+06
3.48824e+06
3.48704e+06
3.48604e+06
3.48522e+06
3.48455e+06
3.48402e+06
3.48361e+06
3.4833e+06
3.48308e+06
3.48293e+06
3.48285e+06
3.48282e+06
3.48284e+06
3.48289e+06
3.48298e+06
3.48309e+06
3.48323e+06
3.48339e+06
3.48356e+06
3.48374e+06
3.48393e+06
3.48412e+06
3.48432e+06
3.48452e+06
3.48471e+06
3.4849e+06
3.48509e+06
3.48526e+06
3.48543e+06
3.48558e+06
3.48572e+06
3.48584e+06
3.48594e+06
3.48602e+06
3.48608e+06
3.48611e+06
3.48612e+06
3.4861e+06
3.48605e+06
3.48598e+06
3.48586e+06
3.48573e+06
3.48552e+06
3.49574e+06
3.49315e+06
3.49119e+06
3.48943e+06
3.48801e+06
3.48683e+06
3.48587e+06
3.4851e+06
3.4845e+06
3.48403e+06
3.48368e+06
3.48343e+06
3.48326e+06
3.48315e+06
3.48311e+06
3.48311e+06
3.48316e+06
3.48324e+06
3.48335e+06
3.48348e+06
3.48363e+06
3.48379e+06
3.48397e+06
3.48415e+06
3.48434e+06
3.48453e+06
3.48472e+06
3.48491e+06
3.48509e+06
3.48526e+06
3.48542e+06
3.48557e+06
3.48571e+06
3.48583e+06
3.48593e+06
3.48601e+06
3.48607e+06
3.4861e+06
3.48611e+06
3.48609e+06
3.48604e+06
3.48597e+06
3.48586e+06
3.48573e+06
3.48552e+06
3.50042e+06
3.49686e+06
3.49419e+06
3.49185e+06
3.48997e+06
3.48842e+06
3.48717e+06
3.48617e+06
3.48537e+06
3.48475e+06
3.48427e+06
3.48391e+06
3.48365e+06
3.48348e+06
3.48337e+06
3.48333e+06
3.48333e+06
3.48338e+06
3.48346e+06
3.48356e+06
3.48369e+06
3.48384e+06
3.48401e+06
3.48418e+06
3.48436e+06
3.48454e+06
3.48473e+06
3.48491e+06
3.48509e+06
3.48526e+06
3.48542e+06
3.48557e+06
3.4857e+06
3.48582e+06
3.48592e+06
3.486e+06
3.48606e+06
3.48609e+06
3.4861e+06
3.48608e+06
3.48604e+06
3.48596e+06
3.48586e+06
3.48573e+06
3.48553e+06
3.50529e+06
3.50069e+06
3.49723e+06
3.49426e+06
3.49191e+06
3.48998e+06
3.48844e+06
3.48719e+06
3.48621e+06
3.48543e+06
3.48483e+06
3.48437e+06
3.48402e+06
3.48378e+06
3.48362e+06
3.48353e+06
3.48349e+06
3.48351e+06
3.48356e+06
3.48365e+06
3.48376e+06
3.48389e+06
3.48404e+06
3.48421e+06
3.48438e+06
3.48456e+06
3.48474e+06
3.48491e+06
3.48509e+06
3.48526e+06
3.48542e+06
3.48557e+06
3.4857e+06
3.48582e+06
3.48592e+06
3.486e+06
3.48606e+06
3.48609e+06
3.4861e+06
3.48608e+06
3.48603e+06
3.48596e+06
3.48586e+06
3.48573e+06
3.48554e+06
3.51029e+06
3.50457e+06
3.50021e+06
3.49662e+06
3.49378e+06
3.49148e+06
3.48964e+06
3.48817e+06
3.487e+06
3.48608e+06
3.48536e+06
3.4848e+06
3.48438e+06
3.48407e+06
3.48385e+06
3.48372e+06
3.48365e+06
3.48363e+06
3.48366e+06
3.48372e+06
3.48382e+06
3.48394e+06
3.48408e+06
3.48423e+06
3.4844e+06
3.48457e+06
3.48474e+06
3.48492e+06
3.48509e+06
3.48526e+06
3.48542e+06
3.48557e+06
3.4857e+06
3.48582e+06
3.48592e+06
3.486e+06
3.48605e+06
3.48609e+06
3.4861e+06
3.48608e+06
3.48603e+06
3.48596e+06
3.48586e+06
3.48574e+06
3.48556e+06
3.51514e+06
3.50834e+06
3.50305e+06
3.49886e+06
3.49553e+06
3.49288e+06
3.49077e+06
3.48908e+06
3.48774e+06
3.48668e+06
3.48585e+06
3.4852e+06
3.4847e+06
3.48433e+06
3.48407e+06
3.48389e+06
3.48379e+06
3.48374e+06
3.48375e+06
3.48379e+06
3.48387e+06
3.48398e+06
3.48411e+06
3.48426e+06
3.48441e+06
3.48458e+06
3.48475e+06
3.48493e+06
3.4851e+06
3.48526e+06
3.48542e+06
3.48557e+06
3.4857e+06
3.48582e+06
3.48592e+06
3.486e+06
3.48605e+06
3.48609e+06
3.4861e+06
3.48608e+06
3.48604e+06
3.48597e+06
3.48587e+06
3.48575e+06
3.48558e+06
3.51938e+06
3.51174e+06
3.5056e+06
3.50089e+06