/*--------------------------------*- C++ -*----------------------------------*\
| =========                 |                                                 |
| \\      /  F ield         | OpenFOAM: The Open Source CFD Toolbox           |
|  \\    /   O peration     | Version:  v2012                                 |
|   \\  /    A nd           | Website:  www.openfoam.com                      |
|    \\/     M anipulation  |                                                 |
\*---------------------------------------------------------------------------*/
FoamFile
{
    version     2.0;
    format      ascii;
    class       surfaceScalarField;
    location    "0.8";
    object      phi;
}
// * * * * * * * * * * * * * * * * * * * * * * * * * * * * * * * * * * * * * //

dimensions      [0 3 -1 0 0 0 0];
oriented        oriented;


internalField   nonuniform List<scalar> 
8135
(
3.67413e-11
-2.1391e-09
-4.14819e-18
3.84024e-11
-2.28929e-09
-6.47349e-18
3.98632e-11
-2.4417e-09
6.86401e-18
4.10744e-11
-2.59632e-09
1.54489e-18
4.19849e-11
-2.75048e-09
1.09908e-17
4.25433e-11
-2.90202e-09
2.61572e-18
4.26987e-11
-3.05037e-09
1.11169e-17
4.24045e-11
-3.18989e-09
3.74779e-18
4.1618e-11
-3.31888e-09
3.38024e-17
4.03054e-11
-3.43182e-09
4.05716e-17
3.84429e-11
-3.52397e-09
5.49678e-17
3.60175e-11
-3.59009e-09
4.51187e-17
3.30317e-11
-3.62136e-09
5.2611e-17
2.95004e-11
-3.61043e-09
3.91959e-17
2.54538e-11
-3.54819e-09
4.10914e-17
2.09498e-11
-3.42306e-09
2.60974e-17
1.61027e-11
-3.22092e-09
2.60074e-17
1.11322e-11
-2.92048e-09
1.21193e-17
6.43136e-12
-2.48045e-09
8.92504e-18
2.47077e-12
-1.82496e-09
-7.85523e-18
-8.19014e-10
-2.19106e-17
3.6985e-11
-2.14093e-09
-1.79755e-17
3.865e-11
-2.29096e-09
4.21503e-18
4.01131e-11
-2.44317e-09
2.12651e-17
4.13244e-11
-2.59754e-09
3.1817e-17
4.22327e-11
-2.7514e-09
3.48927e-17
4.27861e-11
-2.90259e-09
3.74683e-17
4.29335e-11
-3.05054e-09
3.63429e-17
4.2628e-11
-3.1896e-09
4.20738e-17
4.18271e-11
-3.3181e-09
8.92019e-17
4.04967e-11
-3.43052e-09
1.24793e-16
3.86134e-11
-3.52212e-09
1.35881e-16
3.61643e-11
-3.58768e-09
1.3627e-16
3.31525e-11
-3.61838e-09
1.27298e-16
2.95933e-11
-3.60691e-09
1.15553e-16
2.55173e-11
-3.54416e-09
9.63147e-17
2.09822e-11
-3.41857e-09
7.58857e-17
1.61015e-11
-3.21609e-09
4.97672e-17
1.1094e-11
-2.91552e-09
2.16261e-17
6.35103e-12
-2.47576e-09
-1.40881e-17
2.34143e-12
-1.821e-09
-5.78507e-17
-8.16672e-10
-1.05066e-16
3.73989e-11
-2.14277e-09
-5.02771e-17
3.90769e-11
-2.29263e-09
-9.09928e-18
4.05493e-11
-2.44463e-09
2.77227e-17
4.17655e-11
-2.59875e-09
4.47872e-17
4.26737e-11
-2.7523e-09
5.68812e-17
4.32213e-11
-2.90312e-09
5.81026e-17
4.33568e-11
-3.05066e-09
6.24289e-17
4.30327e-11
-3.18927e-09
6.93476e-17
4.22062e-11
-3.31726e-09
1.25989e-16
4.08433e-11
-3.42914e-09
1.64621e-16
3.89205e-11
-3.52018e-09
1.84042e-16
3.64255e-11
-3.58517e-09
1.79166e-16
3.33621e-11
-3.6153e-09
1.70209e-16
2.97472e-11
-3.60328e-09
1.46979e-16
2.56135e-11
-3.54001e-09
1.2358e-16
2.10209e-11
-3.41397e-09
8.50795e-17
1.60856e-11
-3.21115e-09
4.54772e-17
1.10283e-11
-2.91046e-09
-1.20465e-17
6.23674e-12
-2.47097e-09
-7.65788e-17
2.22895e-12
-1.81701e-09
-1.65965e-16
-8.14467e-10
-2.4105e-16
3.79859e-11
-2.14463e-09
-6.99179e-17
3.96835e-11
-2.29433e-09
-1.03596e-17
4.11703e-11
-2.44612e-09
3.4308e-17
4.23945e-11
-2.59997e-09
6.29779e-17
4.33035e-11
-2.7532e-09
7.35192e-17
4.38437e-11
-2.90366e-09
8.13366e-17
4.39627e-11
-3.05078e-09
8.25922e-17
4.36125e-11
-3.18891e-09
9.54182e-17
4.27496e-11
-3.31639e-09
1.42543e-16
4.13399e-11
-3.42772e-09
1.80811e-16
3.936e-11
-3.51818e-09
1.95544e-16
3.67983e-11
-3.58259e-09
1.98619e-16
3.36599e-11
-3.61214e-09
1.82845e-16
2.9964e-11
-3.59956e-09
1.62387e-16
2.5747e-11
-3.53576e-09
1.26013e-16
2.10733e-11
-3.40926e-09
8.30054e-17
1.60644e-11
-3.2061e-09
2.34045e-17
1.09464e-11
-2.9053e-09
-4.87355e-17
6.10958e-12
-2.46608e-09
-1.42799e-16
2.12147e-12
-1.81296e-09
-2.57015e-16
-8.12281e-10
-3.4974e-16
3.87453e-11
-2.14652e-09
-5.63486e-17
4.04693e-11
-2.29605e-09
6.26668e-18
4.19757e-11
-2.44762e-09
6.34402e-17
4.32115e-11
-2.60121e-09
9.11722e-17
4.41226e-11
-2.75411e-09
1.07351e-16
4.46545e-11
-2.90419e-09
1.08956e-16
4.47534e-11
-3.05087e-09
1.15006e-16
4.43707e-11
-3.18852e-09
1.19328e-16
4.34621e-11
-3.31548e-09
1.48958e-16
4.19932e-11
-3.42625e-09
1.68939e-16
3.99409e-11
-3.51613e-09
1.86735e-16
3.72942e-11
-3.57994e-09
1.83365e-16
3.40603e-11
-3.60891e-09
1.73528e-16
3.02613e-11
-3.59576e-09
1.45389e-16
2.59384e-11
-3.53144e-09
1.12205e-16
2.11629e-11
-3.40448e-09
5.79548e-17
1.60636e-11
-3.201e-09
-4.25706e-18
1.08752e-11
-2.90011e-09
-9.30566e-17
5.9955e-12
-2.4612e-09
-1.94939e-16
2.0322e-12
-1.809e-09
-3.23256e-16
-8.10256e-10
-4.08453e-16
3.96724e-11
-2.14845e-09
-2.48909e-17
4.14292e-11
-2.29781e-09
4.68629e-17
4.29601e-11
-2.44915e-09
1.05995e-16
4.42106e-11
-2.60246e-09
1.40888e-16
4.5125e-11
-2.75503e-09
1.51157e-16
4.56474e-11
-2.90471e-09
1.55458e-16
4.57227e-11
-3.05095e-09
1.53294e-16
4.53011e-11
-3.1881e-09
1.53256e-16
4.43378e-11
-3.31451e-09
1.58309e-16
4.27978e-11
-3.42471e-09
1.74831e-16
4.06584e-11
-3.51399e-09
1.86288e-16
3.79096e-11
-3.57719e-09
1.91081e-16
3.45607e-11
-3.60555e-09
1.76226e-16
3.06379e-11
-3.59183e-09
1.54851e-16
2.61882e-11
-3.52699e-09
1.14404e-16
2.1291e-11
-3.39958e-09
6.30054e-17
1.60851e-11
-3.19579e-09
-9.73825e-18
1.08159e-11
-2.89484e-09
-9.9594e-17
5.89254e-12
-2.45628e-09
-2.09183e-16
1.95189e-12
-1.80507e-09
-3.2906e-16
-8.08311e-10
-4.02977e-16
4.0765e-11
-2.15043e-09
1.70099e-17
4.25608e-11
-2.29961e-09
9.0396e-17
4.41208e-11
-2.45071e-09
1.6151e-16
4.5389e-11
-2.60372e-09
1.9392e-16
4.63078e-11
-2.75594e-09
2.09122e-16
4.68195e-11
-2.90522e-09
2.05143e-16
4.68677e-11
-3.05099e-09
2.05495e-16
4.64014e-11
-3.18763e-09
1.94045e-16
4.53746e-11
-3.31349e-09
1.95507e-16
4.37523e-11
-3.42308e-09
2.03882e-16
4.1512e-11
-3.51174e-09
2.21558e-16
3.8645e-11
-3.57432e-09
2.19931e-16
3.5163e-11
-3.60207e-09
2.12533e-16
3.10969e-11
-3.58776e-09
1.8514e-16
2.65007e-11
-3.52239e-09
1.51456e-16
2.14636e-11
-3.39455e-09
9.31231e-17
1.61357e-11
-3.19046e-09
2.483e-17
1.07749e-11
-2.88948e-09
-7.12396e-17
5.80422e-12
-2.45131e-09
-1.71222e-16
1.88129e-12
-1.80115e-09
-2.81726e-16
-8.06434e-10
-3.35797e-16
4.2022e-11
-2.15246e-09
5.23218e-17
4.38625e-11
-2.30145e-09
1.38089e-16
4.54562e-11
-2.4523e-09
2.12249e-16
4.67448e-11
-2.60501e-09
2.53569e-16
4.7669e-11
-2.75687e-09
2.63493e-16
4.8169e-11
-2.90572e-09
2.63474e-16
4.81868e-11
-3.05101e-09
2.5545e-16
4.76699e-11
-3.18711e-09
2.45198e-16
4.65715e-11
-3.31239e-09
2.45568e-16
4.48562e-11
-3.42137e-09
2.64827e-16
4.25018e-11
-3.50938e-09
2.79533e-16
3.95011e-11
-3.57132e-09
2.87826e-16
3.58691e-11
-3.59843e-09
2.76137e-16
3.16414e-11
-3.58353e-09
2.58061e-16
2.68804e-11
-3.51763e-09
2.19447e-16
2.16858e-11
-3.38935e-09
1.68404e-16
1.6221e-11
-3.185e-09
9.47325e-17
1.07576e-11
-2.88402e-09
6.4326e-18
5.73334e-12
-2.44629e-09
-8.96826e-17
1.82117e-12
-1.79724e-09
-1.78373e-16
-8.04614e-10
-2.20175e-16
4.34431e-11
-2.15455e-09
8.9997e-17
4.53339e-11
-2.30333e-09
1.78898e-16
4.69655e-11
-2.45393e-09
2.66918e-16
4.82773e-11
-2.60632e-09
3.06505e-16
4.92077e-11
-2.75779e-09
3.23411e-16
4.9695e-11
-2.9062e-09
3.15714e-16
4.9679e-11
-3.05099e-09
3.12327e-16
4.91059e-11
-3.18654e-09
2.95982e-16
4.7928e-11
-3.3112e-09
3.11354e-16
4.61093e-11
-3.41954e-09
3.29536e-16
4.36284e-11
-3.5069e-09
3.53863e-16
4.04795e-11
-3.56816e-09
3.56926e-16
3.66811e-11
-3.59463e-09
3.55485e-16
3.22747e-11
-3.57912e-09
3.33577e-16
2.73312e-11
-3.51268e-09
3.05561e-16
2.19625e-11
-3.38398e-09
2.51271e-16
1.6346e-11
-3.17937e-09
1.87739e-16
1.07684e-11
-2.87844e-09
9.97217e-17
5.68233e-12
-2.4412e-09
2.10425e-17
1.77185e-12
-1.79333e-09
-5.36891e-17
-8.02841e-10
-8.12378e-17
4.50289e-11
-2.15671e-09
1.23197e-16
4.69754e-11
-2.30528e-09
2.25556e-16
4.86491e-11
-2.4556e-09
3.16318e-16
4.99866e-11
-2.60765e-09
3.66006e-16
5.0924e-11
-2.75873e-09
3.77546e-16
5.13973e-11
-2.90667e-09
3.74837e-16
5.13443e-11
-3.05093e-09
3.62789e-16
5.07096e-11
-3.1859e-09
3.51447e-16
4.94444e-11
-3.30994e-09
3.70976e-16
4.75124e-11
-3.41761e-09
3.99919e-16
4.48927e-11
-3.50427e-09
4.19398e-16
4.15817e-11
-3.56485e-09
4.33268e-16
3.76014e-11
-3.59065e-09
4.28121e-16
3.29998e-11
-3.57451e-09
4.18421e-16
2.78569e-11
-3.50753e-09
3.87863e-16
2.22977e-11
-3.37841e-09
3.45393e-16
1.65148e-11
-3.17359e-09
2.80792e-16
1.08108e-11
-2.87273e-09
2.06575e-16
5.6529e-12
-2.43604e-09
1.35536e-16
1.73365e-12
-1.7894e-09
8.26053e-17
-8.01103e-10
6.03541e-17
4.67805e-11
-2.15895e-09
1.64614e-16
4.87881e-11
-2.30729e-09
2.69365e-16
5.05077e-11
-2.45732e-09
3.74557e-16
5.18733e-11
-2.60902e-09
4.21694e-16
5.28185e-11
-2.75967e-09
4.40797e-16
5.32765e-11
-2.90712e-09
4.28803e-16
5.31833e-11
-3.05084e-09
4.21022e-16
5.24816e-11
-3.18519e-09
4.01261e-16
5.11216e-11
-3.30857e-09
4.3231e-16
4.90665e-11
-3.41555e-09
4.51851e-16
4.62963e-11
-3.5015e-09
4.77628e-16
4.28096e-11
-3.56135e-09
4.83945e-16
3.86325e-11
-3.58646e-09
4.89792e-16
3.38196e-11
-3.56969e-09
4.76448e-16
2.8461e-11
-3.50216e-09
4.58939e-16
2.26951e-11
-3.37264e-09
4.15262e-16
1.67309e-11
-3.16762e-09
3.6478e-16
1.08873e-11
-2.86688e-09
2.93865e-16
5.64616e-12
-2.43079e-09
2.41968e-16
1.70657e-12
-1.78546e-09
1.99259e-16
-7.99389e-10
1.85917e-16
4.87e-11
-2.16126e-09
2.04259e-16
5.07737e-11
-2.30936e-09
3.23297e-16
5.25431e-11
-2.45908e-09
4.30203e-16
5.39391e-11
-2.61041e-09
4.87995e-16
5.48925e-11
-2.76062e-09
5.00251e-16
5.53341e-11
-2.90756e-09
4.92659e-16
5.51974e-11
-3.0507e-09
4.72796e-16
5.44233e-11
-3.18441e-09
4.55389e-16
5.29609e-11
-3.3071e-09
4.80412e-16
5.07732e-11
-3.41335e-09
5.01361e-16
4.7841e-11
-3.49856e-09
5.14695e-16
4.41652e-11
-3.55767e-09
5.28906e-16
3.97767e-11
-3.58207e-09
5.27917e-16
3.47369e-11
-3.56465e-09
5.26455e-16
2.91466e-11
-3.49657e-09
5.05428e-16
2.31581e-11
-3.36664e-09
4.75119e-16
1.69973e-11
-3.16145e-09
4.24431e-16
1.1e-11
-2.86087e-09
3.6931e-16
5.66283e-12
-2.42545e-09
3.23471e-16
1.69027e-12
-1.78148e-09
2.98122e-16
-7.97691e-10
2.8582e-16
5.07899e-11
-2.16366e-09
2.54461e-16
5.29347e-11
-2.3115e-09
3.74928e-16
5.47574e-11
-2.4609e-09
4.96672e-16
5.6186e-11
-2.61183e-09
5.50477e-16
5.71481e-11
-2.76157e-09
5.70496e-16
5.75719e-11
-2.90798e-09
5.50921e-16
5.73883e-11
-3.05051e-09
5.33537e-16
5.65364e-11
-3.18356e-09
5.01856e-16
5.49642e-11
-3.30553e-09
5.30611e-16
5.26344e-11
-3.41102e-09
5.31682e-16
4.95288e-11
-3.49545e-09
5.45813e-16
4.5651e-11
-3.55379e-09
5.46974e-16
4.10365e-11
-3.57745e-09
5.54564e-16
3.57546e-11
-3.55936e-09
5.45892e-16
2.99166e-11
-3.49072e-09
5.36872e-16
2.36895e-11
-3.36041e-09
5.03445e-16
1.73165e-11
-3.15506e-09
4.67007e-16
1.11506e-11
-2.8547e-09
4.13618e-16
5.7033e-12
-2.41999e-09
3.84319e-16
1.68439e-12
-1.77745e-09
3.62878e-16
-7.95997e-10
3.57261e-16
5.3053e-11
-2.16614e-09
3.02882e-16
5.52738e-11
-2.31372e-09
4.37565e-16
5.71535e-11
-2.46278e-09
5.5889e-16
5.86166e-11
-2.61329e-09
6.23427e-16
5.95878e-11
-2.76254e-09
6.3454e-16
5.99923e-11
-2.90837e-09
6.18838e-16
5.97583e-11
-3.05027e-09
5.85555e-16
5.88232e-11
-3.18261e-09
5.53856e-16
5.71336e-11
-3.30383e-09
5.68619e-16
5.46522e-11
-3.40853e-09
5.65358e-16
5.13619e-11
-3.49215e-09
5.6009e-16
4.72691e-11
-3.54969e-09
5.65589e-16
4.24146e-11
-3.57258e-09
5.61247e-16
3.68752e-11
-3.55381e-09
5.62007e-16
3.07737e-11
-3.48461e-09
5.45618e-16
2.42918e-11
-3.35392e-09
5.24203e-16
1.76904e-11
-3.14845e-09
4.84857e-16
1.13404e-11
-2.84834e-09
4.4566e-16
5.76779e-12
-2.41441e-09
4.17544e-16
1.68846e-12
-1.77336e-09
4.08063e-16
-7.94299e-10
4.0077e-16
5.5493e-11
-2.16873e-09
3.63476e-16
5.77946e-11
-2.31601e-09
4.96325e-16
5.97345e-11
-2.46471e-09
6.31459e-16
6.12341e-11
-2.61478e-09
6.89256e-16
6.22146e-11
-2.76351e-09
7.08027e-16
6.2598e-11
-2.90875e-09
6.77566e-16
6.23101e-11
-3.04997e-09
6.45937e-16
6.12862e-11
-3.18158e-09
5.95795e-16
5.94718e-11
-3.30201e-09
6.12352e-16
5.68292e-11
-3.40588e-09
5.84139e-16
5.3343e-11
-3.48866e-09
5.77235e-16
4.90223e-11
-3.54536e-09
5.64898e-16
4.39134e-11
-3.56747e-09
5.6687e-16
3.81013e-11
-3.54799e-09
5.55982e-16
3.17203e-11
-3.47822e-09
5.49596e-16
2.49673e-11
-3.34715e-09
5.21354e-16
1.81208e-11
-3.1416e-09
4.94492e-16
1.15701e-11
-2.84178e-09
4.53016e-16
5.85637e-12
-2.40869e-09
4.37314e-16
1.7021e-12
-1.76919e-09
4.2534e-16
-7.92587e-10
4.2307e-16
5.81136e-11
-2.17142e-09
4.21722e-16
6.05006e-11
-2.31839e-09
5.66408e-16
6.25042e-11
-2.46671e-09
6.96887e-16
6.4042e-11
-2.61631e-09
7.64366e-16
6.50317e-11
-2.76449e-09
7.71259e-16
6.53924e-11
-2.9091e-09
7.4456e-16
6.50468e-11
-3.04962e-09
6.94025e-16
6.39284e-11
-3.18046e-09
6.4413e-16
6.19814e-11
-3.30005e-09
6.43859e-16
5.91682e-11
-3.40306e-09
6.1148e-16
5.54745e-11
-3.48496e-09
5.81565e-16
5.09129e-11
-3.54079e-09
5.72314e-16
4.55353e-11
-3.56208e-09
5.58288e-16
3.94353e-11
-3.54188e-09
5.55311e-16
3.27586e-11
-3.47154e-09
5.37783e-16
2.57177e-11
-3.3401e-09
5.20167e-16
1.86093e-11
-3.13448e-09
4.86935e-16
1.18407e-11
-2.835e-09
4.57408e-16
5.96903e-12
-2.4028e-09
4.37706e-16
1.72493e-12
-1.76494e-09
4.3336e-16
-7.90852e-10
4.26586e-16
6.09192e-11
-2.17422e-09
4.93239e-16
6.33963e-11
-2.32087e-09
6.3043e-16
6.54667e-11
-2.46877e-09
7.72207e-16
6.70442e-11
-2.61788e-09
8.28727e-16
6.80431e-11
-2.76548e-09
8.42762e-16
6.83789e-11
-2.90943e-09
7.98433e-16
6.79717e-11
-3.0492e-09
7.50022e-16
6.67529e-11
-3.17923e-09
6.79299e-16
6.46655e-11
-3.29796e-09
6.83141e-16
6.16718e-11
-3.40006e-09
6.24801e-16
5.77592e-11
-3.48104e-09
5.94306e-16
5.29436e-11
-3.53597e-09
5.64458e-16
4.72829e-11
-3.55641e-09
5.56449e-16
4.08793e-11
-3.53547e-09
5.38596e-16
3.38906e-11
-3.46454e-09
5.30395e-16
2.65448e-11
-3.33275e-09
5.02854e-16
1.91568e-11
-3.12709e-09
4.81029e-16
1.21526e-11
-2.82799e-09
4.45505e-16
6.1057e-12
-2.39675e-09
4.35194e-16
1.75663e-12
-1.76058e-09
4.23467e-16
-7.89085e-10
4.20064e-16
6.39145e-11
-2.17713e-09
5.60377e-16
6.6486e-11
-2.32343e-09
7.05688e-16
6.86262e-11
-2.4709e-09
8.37172e-16
7.02449e-11
-2.61949e-09
9.01729e-16
7.12526e-11
-2.76648e-09
9.00213e-16
7.15614e-11
-2.90973e-09
8.60037e-16
7.10886e-11
-3.04872e-09
7.90331e-16
6.97632e-11
-3.1779e-09
7.2191e-16
6.75273e-11
-3.29571e-09
7.08076e-16
6.43431e-11
-3.39687e-09
6.48943e-16
6.01998e-11
-3.47689e-09
5.9403e-16
5.5117e-11
-3.53088e-09
5.68297e-16
4.91585e-11
-3.55045e-09
5.417e-16
4.24355e-11
-3.52874e-09
5.32027e-16
3.51181e-11
-3.45721e-09
5.1008e-16
2.745e-11
-3.32507e-09
4.9314e-16
1.97643e-11
-3.11939e-09
4.62344e-16
1.25063e-11
-2.82072e-09
4.37761e-16
6.26627e-12
-2.3905e-09
4.19717e-16
1.79688e-12
-1.7561e-09
4.13351e-16
-7.87278e-10
4.02819e-16
6.71044e-11
-2.18016e-09
6.40186e-16
6.97748e-11
-2.32609e-09
7.71461e-16
7.19877e-11
-2.4731e-09
9.11505e-16
7.36488e-11
-2.62114e-09
9.60311e-16
7.46647e-11
-2.76748e-09
9.65619e-16
7.49441e-11
-2.91e-09
9.05012e-16
7.44011e-11
-3.04817e-09
8.39019e-16
7.29629e-11
-3.17645e-09
7.48086e-16
7.05701e-11
-3.29331e-09
7.42128e-16
6.71853e-11
-3.39348e-09
6.57353e-16
6.27993e-11
-3.47249e-09
6.04827e-16
5.74356e-11
-3.52551e-09
5.56903e-16
5.11643e-11
-3.54417e-09
5.37597e-16
4.41059e-11
-3.52167e-09
5.10838e-16
3.64428e-11
-3.44954e-09
4.9897e-16
2.84345e-11
-3.31706e-09
4.6992e-16
2.04327e-11
-3.11138e-09
4.50767e-16
1.29019e-11
-2.81318e-09
4.17608e-16
6.45058e-12
-2.38404e-09
4.07834e-16
1.84545e-12
-1.75149e-09
3.91028e-16
-7.85423e-10
3.82823e-16
7.04943e-11
-2.18332e-09
7.11184e-16
7.32678e-11
-2.32886e-09
8.47393e-16
7.55561e-11
-2.47538e-09
9.71457e-16
7.72606e-11
-2.62284e-09
1.0272e-15
7.8284e-11
-2.7685e-09
1.01327e-15
7.85313e-11
-2.91023e-09
9.58094e-16
7.79135e-11
-3.04754e-09
8.68866e-16
7.63557e-11
-3.17488e-09
7.83386e-16
7.37974e-11
-3.29075e-09
7.58924e-16
7.02013e-11
-3.38987e-09
6.77906e-16
6.55604e-11
-3.46784e-09
6.00257e-16
5.99019e-11
-3.51984e-09
5.58766e-16
5.33027e-11
-3.53756e-09
5.18905e-16
4.58924e-11
-3.51426e-09
5.01741e-16
3.78662e-11
-3.44151e-09
4.74113e-16
2.94994e-11
-3.30868e-09
4.5664e-16
2.11624e-11
-3.10303e-09
4.26599e-16
1.33396e-11
-2.80535e-09
4.04646e-16
6.65848e-12
-2.37735e-09
3.84818e-16
1.90206e-12
-1.74672e-09
3.72945e-16
-7.83511e-10
3.55649e-16
7.409e-11
-2.18661e-09
7.92588e-16
7.69706e-11
-2.33173e-09
9.0896e-16
7.93368e-11
-2.47774e-09
1.03993e-15
8.10856e-11
-2.62457e-09
1.07553e-15
8.21153e-11
-2.76952e-09
1.06909e-15
8.23275e-11
-2.91043e-09
9.911e-16
8.16299e-11
-3.04684e-09
9.08332e-16
7.99455e-11
-3.17319e-09
7.98911e-16
7.72127e-11
-3.288e-09
7.86544e-16
7.33945e-11
-3.38604e-09
6.80218e-16
6.8486e-11
-3.46293e-09
6.0882e-16
6.25185e-11
-3.51387e-09
5.43808e-16
5.55756e-11
-3.53061e-09
5.13326e-16
4.77967e-11
-3.50647e-09
4.77078e-16
3.93894e-11
-3.43309e-09
4.60963e-16
3.06455e-11
-3.29993e-09
4.29393e-16
2.1954e-11
-3.09434e-09
4.11987e-16
1.38196e-11
-2.79721e-09
3.79526e-16
6.88977e-12
-2.37041e-09
3.68249e-16
1.96654e-12
-1.74179e-09
3.44083e-16
-7.81536e-10
3.28896e-16
7.78974e-11
-2.19003e-09
8.5899e-16
8.08892e-11
-2.33471e-09
9.78883e-16
8.33356e-11
-2.48017e-09
1.08907e-15
8.5129e-11
-2.62635e-09
1.13196e-15
8.61638e-11
-2.77054e-09
1.10318e-15
8.63375e-11
-2.9106e-09
1.03321e-15
8.55547e-11
-3.04604e-09
9.25732e-16
8.37363e-11
-3.17136e-09
8.25934e-16
8.08196e-11
-3.28508e-09
7.93784e-16
7.6768e-11
-3.38198e-09
6.96325e-16
7.15789e-11
-3.45773e-09
5.99085e-16
6.52877e-11
-3.50757e-09
5.43583e-16
5.79852e-11
-3.5233e-09
4.90613e-16
4.98203e-11
-3.4983e-09
4.65931e-16
4.10139e-11
-3.42428e-09
4.31927e-16
3.18737e-11
-3.29078e-09
4.13248e-16
2.28079e-11
-3.08526e-09
3.83026e-16
1.43417e-11
-2.78873e-09
3.62706e-16
7.14428e-12
-2.3632e-09
3.39766e-16
2.03867e-12
-1.73667e-09
3.21197e-16
-7.79488e-10
2.95554e-16
8.19229e-11
-2.1936e-09
9.32483e-16
8.50296e-11
-2.33781e-09
1.02832e-15
8.75582e-11
-2.48269e-09
1.14571e-15
8.93967e-11
-2.62818e-09
1.16511e-15
9.04347e-11
-2.77156e-09
1.1461e-15
9.05662e-11
-2.91072e-09
1.05159e-15
8.96924e-11
-3.04516e-09
9.54619e-16
8.77322e-11
-3.16939e-09
8.29633e-16
8.46218e-11
-3.28196e-09
8.14178e-16
8.03251e-11
-3.37768e-09
6.9142e-16
7.48418e-11
-3.45224e-09
6.04907e-16
6.82119e-11
-3.50093e-09
5.24504e-16
6.05333e-11
-3.51561e-09
4.83561e-16
5.19649e-11
-3.48972e-09
4.37611e-16
4.27405e-11
-3.41505e-09
4.16812e-16
3.31845e-11
-3.28122e-09
3.81694e-16
2.37242e-11
-3.07579e-09
3.65327e-16
1.49061e-11
-2.77991e-09
3.32631e-16
7.4218e-12
-2.35571e-09
3.19288e-16
2.11833e-12
-1.73136e-09
2.87064e-16
-7.77362e-10
2.63929e-16
8.61732e-11
-2.19731e-09
9.83239e-16
8.93983e-11
-2.34102e-09
1.08394e-15
9.20111e-11
-2.48529e-09
1.17729e-15
9.38943e-11
-2.63005e-09
1.20645e-15
9.49336e-11
-2.77259e-09
1.16294e-15
9.50187e-11
-2.91079e-09
1.08067e-15
9.40477e-11
-3.04418e-09
9.57956e-16
9.19373e-11
-3.16727e-09
8.47882e-16
8.86229e-11
-3.27863e-09
8.1083e-16
8.40689e-11
-3.37312e-09
7.02539e-16
7.82776e-11
-3.44644e-09
5.89261e-16
7.12934e-11
-3.49394e-09
5.22186e-16
6.32218e-11
-3.50754e-09
4.56742e-16
5.42317e-11
-3.48072e-09
4.24807e-16
4.45703e-11
-3.40538e-09
3.83628e-16
3.45784e-11
-3.27122e-09
3.62795e-16
2.47031e-11
-3.06591e-09
3.31302e-16
1.55125e-11
-2.77071e-09
3.11974e-16
7.72214e-12
-2.34791e-09
2.85559e-16
2.20532e-12
-1.72584e-09
2.60174e-16
-7.75149e-10
2.2553e-16
9.06554e-11
-2.20118e-09
1.03745e-15
9.40023e-11
-2.34436e-09
1.1122e-15
9.67006e-11
-2.48797e-09
1.21564e-15
9.86282e-11
-2.63197e-09
1.2194e-15
9.96661e-11
-2.77362e-09
1.18989e-15
9.97003e-11
-2.91081e-09
1.08209e-15
9.86253e-11
-3.04309e-09
9.75331e-16
9.6356e-11
-3.16499e-09
8.38923e-16
9.28267e-11
-3.27509e-09
8.2355e-16
8.80026e-11
-3.36828e-09
6.8952e-16
8.18888e-11
-3.44031e-09
5.92097e-16
7.45344e-11
-3.48658e-09
4.98697e-16
6.60523e-11
-3.49905e-09
4.48636e-16
5.6622e-11
-3.47129e-09
3.93067e-16
4.6504e-11
-3.39526e-09
3.67057e-16
3.6056e-11
-3.26076e-09
3.26973e-16
2.57447e-11
-3.05559e-09
3.10646e-16
1.61609e-11
-2.76112e-09
2.769e-16
8.04509e-12
-2.33979e-09
2.61609e-16
2.29955e-12
-1.72008e-09
2.21361e-16
-7.72842e-10
1.90025e-16
9.53768e-11
-2.2052e-09
1.06095e-15
9.88485e-11
-2.34782e-09
1.14508e-15
1.01633e-10
-2.49075e-09
1.22293e-15
1.03605e-10
-2.63393e-09
1.24137e-15
1.04638e-10
-2.77464e-09
1.18621e-15
1.04616e-10
-2.91077e-09
1.09663e-15
1.0343e-10
-3.0419e-09
9.63391e-16
1.00992e-10
-3.16254e-09
8.48297e-16
9.72368e-11
-3.27133e-09
8.08803e-16
9.21294e-11
-3.36317e-09
6.95331e-16
8.5678e-11
-3.43385e-09
5.69981e-16
7.79368e-11
-3.47883e-09
4.94637e-16
6.90264e-11
-3.49013e-09
4.18102e-16
5.91368e-11
-3.46139e-09
3.79669e-16
4.85423e-11
-3.38465e-09
3.30494e-16
3.76174e-11
-3.24983e-09
3.0625e-16
2.68491e-11
-3.04482e-09
2.72073e-16
1.68511e-11
-2.75111e-09
2.53164e-16
8.39047e-12
-2.33132e-09
2.23441e-16
2.40086e-12
-1.71409e-09
1.91724e-16
-7.70434e-10
1.48001e-16
1.00345e-10
-2.20939e-09
1.08569e-15
1.03944e-10
-2.35141e-09
1.14396e-15
1.06817e-10
-2.4936e-09
1.23736e-15
1.0883e-10
-2.63593e-09
1.22975e-15
1.09856e-10
-2.77565e-09
1.19493e-15
1.09772e-10
-2.91068e-09
1.07937e-15
1.08467e-10
-3.04058e-09
9.68892e-16
1.05851e-10
-3.15991e-09
8.26195e-16
1.01857e-10
-3.26732e-09
8.13651e-16
9.64523e-11
-3.35775e-09
6.73398e-16
8.96478e-11
-3.42704e-09
5.698e-16
8.15027e-11
-3.47068e-09
4.66748e-16
7.21456e-11
-3.48076e-09
4.09911e-16
6.17773e-11
-3.45101e-09
3.45443e-16
5.06858e-11
-3.37356e-09
3.13872e-16
3.92629e-11
-3.2384e-09
2.67183e-16
2.80161e-11
-3.03356e-09
2.49666e-16
1.75829e-11
-2.74067e-09
2.14127e-16
8.75806e-12
-2.32249e-09
1.97534e-16
2.50919e-12
-1.70783e-09
1.49876e-16
-7.67919e-10
1.10634e-16
1.05568e-10
-2.21374e-09
1.07282e-15
1.09297e-10
-2.35513e-09
1.14763e-15
1.12258e-10
-2.49655e-09
1.21507e-15
1.14311e-10
-2.63797e-09
1.22931e-15
1.15325e-10
-2.77665e-09
1.16842e-15
1.15173e-10
-2.91051e-09
1.07872e-15
1.1374e-10
-3.03914e-09
9.41028e-16
1.10935e-10
-3.1571e-09
8.27047e-16
1.06691e-10
-3.26307e-09
7.86892e-16
1.00974e-10
-3.35203e-09
6.73782e-16
9.38005e-11
-3.41986e-09
5.40849e-16
8.52339e-11
-3.4621e-09
4.61699e-16
7.54113e-11
-3.47093e-09
3.7658e-16
6.45442e-11
-3.44014e-09
3.33266e-16
5.29349e-11
-3.36194e-09
2.75567e-16
4.09927e-11
-3.22645e-09
2.46609e-16
2.92458e-11
-3.02181e-09
2.08152e-16
1.83562e-11
-2.72977e-09
1.89253e-16
9.1477e-12
-2.31327e-09
1.56928e-16
2.62439e-12
-1.7013e-09
1.2003e-16
-7.65289e-10
6.77223e-17
1.11054e-10
-2.21826e-09
1.0617e-15
1.14916e-10
-2.35898e-09
1.11169e-15
1.17964e-10
-2.49959e-09
1.20216e-15
1.20055e-10
-2.64005e-09
1.1904e-15
1.21053e-10
-2.77763e-09
1.15799e-15
1.20826e-10
-2.91027e-09
1.042e-15
1.19256e-10
-3.03756e-09
9.35055e-16
1.16251e-10
-3.15408e-09
7.91741e-16
1.11742e-10
-3.25855e-09
7.84003e-16
1.05698e-10
-3.34598e-09
6.42335e-16
9.81384e-11
-3.41229e-09
5.37997e-16
8.9132e-11
-3.45309e-09
4.29853e-16
7.88244e-11
-3.46062e-09
3.69924e-16
6.74383e-11
-3.42875e-09
2.98227e-16
5.52901e-11
-3.34979e-09
2.61218e-16
4.28068e-11
-3.21396e-09
2.06304e-16
3.0538e-11
-3.00953e-09
1.86282e-16
1.91706e-11
-2.7184e-09
1.48382e-16
9.55915e-12
-2.30365e-09
1.31727e-16
2.74642e-12
-1.69448e-09
7.80241e-17
-7.62537e-10
3.18273e-17
1.16812e-10
-2.22296e-09
1.00833e-15
1.20807e-10
-2.36296e-09
1.08354e-15
1.23942e-10
-2.50271e-09
1.14778e-15
1.26069e-10
-2.64216e-09
1.16672e-15
1.27045e-10
-2.7786e-09
1.1079e-15
1.26735e-10
-2.90995e-09
1.0267e-15
1.25019e-10
-3.03583e-09
8.91347e-16
1.21801e-10
-3.15086e-09
7.84943e-16
1.17013e-10
-3.25375e-09
7.44942e-16
1.10627e-10
-3.33958e-09
6.37585e-16
1.02664e-10
-3.40432e-09
5.02305e-16
9.31987e-11
-3.44362e-09
4.25214e-16
8.23861e-11
-3.4498e-09
3.35403e-16
7.04601e-11
-3.41682e-09
2.89914e-16
5.77514e-11
-3.33707e-09
2.23661e-16
4.47051e-11
-3.20091e-09
1.88794e-16
3.18924e-11
-2.99671e-09
1.44359e-16
2.0026e-11
-2.70653e-09
1.25255e-16
9.99227e-12
-2.29361e-09
9.16011e-17
2.87514e-12
-1.68736e-09
5.15191e-17
-7.59657e-10
-8.15031e-18
1.22851e-10
-2.22784e-09
9.61518e-16
1.26981e-10
-2.36708e-09
1.01198e-15
1.30201e-10
-2.50592e-09
1.10769e-15
1.3236e-10
-2.64431e-09
1.10026e-15
1.33307e-10
-2.77953e-09
1.07932e-15
1.32907e-10
-2.90954e-09
9.70928e-16
1.31033e-10
-3.03395e-09
8.75169e-16
1.2759e-10
-3.1474e-09
7.36821e-16
1.22509e-10
-3.24866e-09
7.34967e-16
1.15764e-10
-3.33283e-09
5.96529e-16
1.07378e-10
-3.39593e-09
4.97869e-16
9.74353e-11
-3.43367e-09
3.90611e-16
8.60973e-11
-3.43846e-09
3.32782e-16
7.361e-11
-3.40432e-09
2.56584e-16
6.0319e-11
-3.32377e-09
2.14807e-16
4.66875e-11
-3.18727e-09
1.50112e-16
3.33088e-11
-2.98333e-09
1.26145e-16
2.09221e-11
-2.69413e-09
8.54199e-17
1.04468e-11
-2.28313e-09
7.04724e-17
3.01054e-12
-1.67992e-09
1.29534e-17
-7.56642e-10
-3.84329e-17
1.29179e-10
-2.2329e-09
8.709e-16
1.33444e-10
-2.37133e-09
9.54741e-16
1.36749e-10
-2.50921e-09
1.02257e-15
1.38935e-10
-2.64648e-09
1.05545e-15
1.39848e-10
-2.78043e-09
1.00682e-15
1.39347e-10
-2.90903e-09
9.42907e-16
1.37304e-10
-3.03189e-09
8.16444e-16
1.33622e-10
-3.14371e-09
7.23744e-16
1.28232e-10
-3.24326e-09
6.83779e-16
1.2111e-10
-3.3257e-09
5.87695e-16
1.12284e-10
-3.38709e-09
4.56384e-16
1.01843e-10
-3.42322e-09
3.88766e-16
8.99585e-11
-3.42657e-09
2.99565e-16
7.68883e-11
-3.39125e-09
2.55657e-16
6.29928e-11
-3.30987e-09
1.81239e-16
4.87537e-11
-3.17303e-09
1.39303e-16
3.47868e-11
-2.96936e-09
8.69225e-17
2.18585e-11
-2.6812e-09
6.74159e-17
1.09226e-11
-2.27219e-09
3.40978e-17
3.15247e-12
-1.67214e-09
-6.30901e-18
-7.53485e-10
-7.12842e-17
1.35807e-10
-2.23814e-09
7.96054e-16
1.40207e-10
-2.37572e-09
8.52129e-16
1.43594e-10
-2.51258e-09
9.5976e-16
1.45801e-10
-2.64868e-09
9.64263e-16
1.46672e-10
-2.78129e-09
9.63376e-16
1.46061e-10
-2.9084e-09
8.69769e-16
1.43836e-10
-3.02966e-09
7.92194e-16
1.39901e-10
-3.13977e-09
6.63576e-16
1.34185e-10
-3.23754e-09
6.68033e-16
1.26668e-10
-3.31817e-09
5.37764e-16
1.17382e-10
-3.3778e-09
4.52566e-16
1.06423e-10
-3.41226e-09
3.53614e-16
9.39702e-11
-3.41411e-09
3.04472e-16
8.02951e-11
-3.37756e-09
2.27337e-16
6.57726e-11
-3.29535e-09
1.81804e-16
5.09034e-11
-3.15816e-09
1.05619e-16
3.63261e-11
-2.95477e-09
7.58838e-17
2.28349e-11
-2.6677e-09
3.17091e-17
1.14194e-11
-2.26077e-09
2.049e-17
3.30095e-12
-1.66402e-09
-3.78492e-17
-7.50181e-10
-9.18212e-17
1.42744e-10
-2.24356e-09
6.78205e-16
1.47279e-10
-2.38025e-09
7.74209e-16
1.50744e-10
-2.51604e-09
8.49734e-16
1.52967e-10
-2.65089e-09
9.0402e-16
1.53787e-10
-2.7821e-09
8.71952e-16
1.53054e-10
-2.90766e-09
8.32477e-16
1.50635e-10
-3.02723e-09
7.19983e-16
1.4643e-10
-3.13555e-09
6.4603e-16
1.40372e-10
-3.23147e-09
6.0545e-16
1.32441e-10
-3.31024e-09
5.26916e-16
1.22675e-10
-3.36803e-09
4.07311e-16
1.11175e-10
-3.40075e-09
3.58015e-16
9.81327e-11
-3.40106e-09
2.75823e-16
8.38301e-11
-3.36326e-09
2.37929e-16
6.8658e-11
-3.28017e-09
1.558e-16
5.3136e-11
-3.14263e-09
1.05359e-16
3.79261e-11
-2.93956e-09
4.2474e-17
2.38509e-11
-2.65362e-09
2.20791e-17
1.19371e-11
-2.24885e-09
-9.18095e-18
3.45582e-12
-1.65553e-09
-4.63922e-17
-7.46721e-10
-1.13854e-16
1.5e-10
-2.24918e-09
5.89954e-16
1.54668e-10
-2.38491e-09
6.5097e-16
1.58207e-10
-2.51957e-09
7.73793e-16
1.6044e-10
-2.65311e-09
7.94623e-16
1.61199e-10
-2.78286e-09
8.19573e-16
1.60333e-10
-2.90678e-09
7.45079e-16
1.57704e-10
-3.0246e-09
6.90667e-16
1.53214e-10
-3.13105e-09
5.74893e-16
1.46795e-10
-3.22505e-09
5.85998e-16
1.3843e-10
-3.30186e-09
4.69835e-16
1.28162e-10
-3.35775e-09
4.07498e-16
1.161e-10
-3.38868e-09
3.25381e-16
1.02446e-10
-3.3874e-09
2.92375e-16
8.74931e-11
-3.3483e-09
2.18157e-16
7.16484e-11
-3.26432e-09
1.69754e-16
5.5451e-11
-3.12643e-09
7.98714e-17
3.95862e-11
-2.92369e-09
4.18551e-17
2.49062e-11
-2.63894e-09
-6.87004e-18
1.24753e-11
-2.23641e-09
-1.24253e-17
3.61709e-12
-1.64667e-09
-6.81084e-17
-7.431e-10
-1.21388e-16
1.57585e-10
-2.25498e-09
4.61983e-16
1.62385e-10
-2.3897e-09
5.67325e-16
1.65993e-10
-2.52317e-09
6.49982e-16
1.68227e-10
-2.65534e-09
7.28789e-16
1.68915e-10
-2.78354e-09
7.15321e-16
1.67902e-10
-2.90576e-09
7.03687e-16
1.65049e-10
-3.02174e-09
6.07281e-16
1.60256e-10
-3.12625e-09
5.55171e-16
1.53456e-10
-3.21824e-09
5.13396e-16
1.44636e-10
-3.29304e-09
4.60125e-16
1.33845e-10
-3.34695e-09
3.61371e-16
1.21199e-10
-3.37603e-09
3.40087e-16
1.0691e-10
-3.3731e-09
2.71622e-16
9.12833e-11
-3.33266e-09
2.44136e-16
7.47431e-11
-3.24777e-09
1.54282e-16
5.78474e-11
-3.10952e-09
9.32883e-17
4.13058e-11
-2.90714e-09
1.65488e-17
2.6e-11
-2.62363e-09
-5.73594e-18
1.30338e-11
-2.22344e-09
-3.34676e-17
3.78461e-12
-1.63742e-09
-6.3639e-17
-7.39311e-10
-1.30291e-16
1.65511e-10
-2.26097e-09
3.81721e-16
1.70438e-10
-2.39463e-09
4.40366e-16
1.74109e-10
-2.52683e-09
5.76136e-16
1.76335e-10
-2.65756e-09
6.11745e-16
1.76942e-10
-2.78413e-09
6.62895e-16
1.75768e-10
-2.90458e-09
6.06809e-16
1.72673e-10
-3.01864e-09
5.7702e-16
1.67558e-10
-3.12113e-09
4.74625e-16
1.60357e-10
-3.21103e-09
4.93216e-16
1.51062e-10
-3.28374e-09
3.98504e-16
1.39725e-10
-3.33561e-09
3.69659e-16
1.26472e-10
-3.36277e-09
3.13083e-16
1.11523e-10
-3.35815e-09
3.03518e-16
9.52e-11
-3.31634e-09
2.35509e-16
7.7941e-11
-3.23051e-09
1.84455e-16
6.03245e-11
-3.0919e-09
7.7903e-17
4.3084e-11
-2.8899e-09
2.83792e-17
2.71321e-11
-2.60767e-09
-2.65321e-17
1.36123e-11
-2.20992e-09
-2.47973e-17
3.9584e-12
-1.62776e-09
-7.42403e-17
-7.35348e-10
-1.23253e-16
1.73786e-10
-2.26714e-09
2.65631e-16
1.78838e-10
-2.39967e-09
3.72163e-16
1.82565e-10
-2.53055e-09
4.54682e-16
1.84773e-10
-2.65976e-09
5.54197e-16
1.85284e-10
-2.78464e-09
5.5459e-16
1.83934e-10
-2.90322e-09
5.6853e-16
1.8058e-10
-3.01528e-09
4.85927e-16
1.75124e-10
-3.11567e-09
4.55931e-16
1.67501e-10
-3.20341e-09
4.12879e-16
1.57707e-10
-3.27394e-09
3.93939e-16
1.45801e-10
-3.3237e-09
3.25648e-16
1.31916e-10
-3.34888e-09
3.41609e-16
1.16285e-10
-3.34251e-09
2.9265e-16
9.92419e-11
-3.29928e-09
2.79028e-16
8.1241e-11
-3.2125e-09
1.80478e-16
6.28809e-11
-3.07354e-09
1.06202e-16
4.492e-11
-2.87193e-09
1.16876e-17
2.83016e-11
-2.59105e-09
-1.38463e-17
1.42105e-11
-2.19582e-09
-3.69114e-17
4.13827e-12
-1.61768e-09
-5.62744e-17
-7.31205e-10
-1.18798e-16
1.82423e-10
-2.27351e-09
2.17533e-16
1.87593e-10
-2.40484e-09
2.62705e-16
1.91368e-10
-2.53432e-09
4.02076e-16
1.93548e-10
-2.66194e-09
4.42948e-16
1.9395e-10
-2.78503e-09
5.13585e-16
1.92406e-10
-2.90167e-09
4.68841e-16
1.88774e-10
-3.01164e-09