/*--------------------------------*- C++ -*----------------------------------*\
| =========                 |                                                 |
| \\      /  F ield         | OpenFOAM: The Open Source CFD Toolbox           |
|  \\    /   O peration     | Version:  v2012                                 |
|   \\  /    A nd           | Website:  www.openfoam.com                      |
|    \\/     M anipulation  |                                                 |
\*---------------------------------------------------------------------------*/
FoamFile
{
    version     2.0;
    format      ascii;
    class       volVectorField;
    location    "0.7";
    object      U;
}
// * * * * * * * * * * * * * * * * * * * * * * * * * * * * * * * * * * * * * //

dimensions      [0 1 -1 0 0 0 0];


internalField   nonuniform List<vector> 
3326
(
(-0.330633 0.379569 0.00288684)
(-0.273819 0.371613 0.00239092)
(-0.218982 0.354592 0.00191225)
(-0.167082 0.328094 0.0014592)
(-0.11929 0.291713 0.00104198)
(-0.0768856 0.245086 0.000671755)
(-0.0416184 0.187962 0.000363791)
(-0.0151343 0.120327 0.000132565)
(-0.000642684 0.0425146 7.98925e-06)
(-0.501066 0.338824 0.00437441)
(-0.44342 0.355146 0.00387126)
(-0.385533 0.363781 0.00336601)
(-0.328039 0.364403 0.00286413)
(-0.271667 0.356665 0.00237208)
(-0.217254 0.340193 0.00189712)
(-0.165757 0.314601 0.00144759)
(-0.11834 0.279513 0.00103365)
(-0.0762719 0.234612 0.000666378)
(-0.0412878 0.179699 0.000360893)
(-0.015017 0.114838 0.000131534)
(-0.000639051 0.0404555 7.93945e-06)
(-0.868036 -2.7133 0.00757598)
(-0.901993 -2.63227 0.00787235)
(-0.933686 -2.53888 0.00814899)
(-0.965619 -2.43271 0.0084277)
(-0.994587 -2.3159 0.00868056)
(-1.02107 -2.19166 0.0089117)
(-1.04426 -2.06296 0.00911416)
(-1.06433 -1.93229 0.00928936)
(-1.08119 -1.8015 0.00943656)
(-1.09496 -1.6719 0.00955681)
(-1.1057 -1.54432 0.00965059)
(-1.11347 -1.41929 0.00971842)
(-1.11829 -1.29713 0.00976047)
(-1.12014 -1.17803 0.00977666)
(-1.11898 -1.0621 0.00976665)
(-1.11477 -0.949448 0.00972989)
(-1.10742 -0.840188 0.00966578)
(-1.09687 -0.734441 0.00957373)
(-1.08304 -0.632352 0.00945309)
(-1.06588 -0.534089 0.00930337)
(-1.04534 -0.439835 0.00912417)
(-1.0214 -0.349786 0.00891527)
(-0.994055 -0.264149 0.00867664)
(-0.963323 -0.183135 0.00840846)
(-0.929256 -0.106967 0.00811118)
(-0.891931 -0.0358552 0.00778547)
(-0.851452 0.0299888 0.00743233)
(-0.807962 0.0903447 0.0070528)
(-0.761637 0.145001 0.00664851)
(-0.712701 0.19373 0.00622144)
(-0.661406 0.236323 0.00577377)
(-0.608055 0.272551 0.00530816)
(-0.553012 0.302174 0.00482776)
(-0.496688 0.324943 0.0043361)
(-0.439567 0.340592 0.00383754)
(-0.382189 0.348835 0.00333675)
(-0.32519 0.349361 0.00283924)
(-0.269296 0.341837 0.00235137)
(-0.215346 0.32591 0.00188045)
(-0.16429 0.301218 0.00143477)
(-0.117284 0.267416 0.00102443)
(-0.0755887 0.224227 0.000660405)
(-0.0409186 0.171507 0.000357664)
(-0.0148853 0.109395 0.00013038)
(-0.000634822 0.0384131 7.88231e-06)
(-0.862818 -2.59971 0.00753047)
(-0.893641 -2.52094 0.00779948)
(-0.922719 -2.43202 0.00805329)
(-0.952586 -2.33142 0.00831397)
(-0.979918 -2.22082 0.00855254)
(-1.00517 -2.10298 0.00877295)
(-1.02746 -1.98063 0.00896756)
(-1.04692 -1.85611 0.00913741)
(-1.0634 -1.7312 0.00928129)
(-1.07699 -1.60718 0.00939994)
(-1.08771 -1.48492 0.00949351)
(-1.09559 -1.36496 0.00956234)
(-1.10063 -1.24766 0.00960639)
(-1.10281 -1.13322 0.00962542)
(-1.10206 -1.02179 0.00961899)
(-1.09833 -0.913494 0.00958644)
(-1.09153 -0.808447 0.00952707)
(-1.08157 -0.706776 0.00944019)
(-1.06837 -0.608626 0.00932509)
(-1.05188 -0.514159 0.00918117)
(-1.03203 -0.423551 0.00900797)
(-1.00879 -0.336992 0.00880521)
(-0.982156 -0.25468 0.00857278)
(-0.952135 -0.176816 0.00831081)
(-0.918777 -0.103616 0.00801971)
(-0.882151 -0.0352796 0.00770009)
(-0.842359 0.0279878 0.00735285)
(-0.799542 0.0859761 0.00697919)
(-0.753872 0.13848 0.00658063)
(-0.705575 0.185283 0.00615914)
(-0.6549 0.226182 0.00571689)
(-0.602154 0.260955 0.00525655)
(-0.547697 0.289375 0.00478128)
(-0.491945 0.311199 0.00429467)
(-0.43538 0.326174 0.00380098)
(-0.378547 0.334024 0.00330494)
(-0.322078 0.334452 0.00281207)
(-0.266703 0.327141 0.00232872)
(-0.213253 0.311755 0.00186217)
(-0.162677 0.287955 0.00142068)
(-0.116121 0.255429 0.00101427)
(-0.0748337 0.213938 0.000653807)
(-0.0405093 0.163393 0.000354085)
(-0.0147387 0.104004 0.000129095)
(-0.000629946 0.0363896 7.81722e-06)
(-0.855739 -2.49065 0.00746871)
(-0.883414 -2.41353 0.00771024)
(-0.910025 -2.32854 0.00794251)
(-0.937897 -2.23302 0.00818578)
(-0.9637 -2.12819 0.00841101)
(-0.98781 -2.01635 0.00862145)
(-1.0093 -1.90002 0.00880905)
(-1.02824 -1.78135 0.00897434)
(-1.04443 -1.66208 0.00911571)
(-1.05792 -1.54345 0.00923352)
(-1.0687 -1.42633 0.00932764)
(-1.07678 -1.31129 0.00939815)
(-1.08212 -1.19871 0.0094448)
(-1.08468 -1.08882 0.00946723)
(-1.08441 -0.9818 0.00946485)
(-1.0812 -0.877775 0.0094369)
(-1.07497 -0.776869 0.00938259)
(-1.06563 -0.679213 0.00930113)
(-1.0531 -0.584949 0.00919175)
(-1.03728 -0.494235 0.00905378)
(-1.01814 -0.407238 0.0088867)
(-0.995611 -0.32414 0.00869015)
(-0.969693 -0.245129 0.008464)
(-0.940393 -0.170398 0.00820831)
(-0.90775 -0.100151 0.00792346)
(-0.871832 -0.0345805 0.00761002)
(-0.832739 0.0261178 0.00726887)
(-0.790608 0.0817433 0.00690119)
(-0.74561 0.132099 0.0065085)
(-0.69797 0.176977 0.00609274)
(-0.647938 0.216182 0.0056561)
(-0.59582 0.249503 0.00520124)
(-0.541979 0.276719 0.00473134)
(-0.486828 0.2976 0.00425)
(-0.430854 0.3119 0.00376146)
(-0.3746 0.319357 0.00327048)
(-0.3187 0.319686 0.00278257)
(-0.26388 0.312584 0.00230407)
(-0.21097 0.297736 0.00184224)
(-0.160914 0.274824 0.00140528)
(-0.114847 0.243563 0.00100314)
(-0.0740042 0.203756 0.00064656)
(-0.0400582 0.155364 0.000350142)
(-0.0145764 0.0986708 0.000127673)
(-0.000624364 0.0343869 7.7435e-06)
(-0.846567 -2.38617 0.00738869)
(-0.871114 -2.31006 0.00760291)
(-0.895453 -2.22847 0.00781535)
(-0.921423 -2.13751 0.00804201)
(-0.945828 -2.038 0.00825503)
(-0.968901 -1.93177 0.00845643)
(-0.989701 -1.82111 0.00863799)
(-1.00822 -1.70802 0.00879964)
(-1.02423 -1.59413 0.0089394)
(-1.03773 -1.48068 0.00905724)
(-1.04866 -1.36852 0.00915271)
(-1.05701 -1.25825 0.00922564)
(-1.06273 -1.15027 0.00927558)
(-1.06575 -1.04483 0.00930199)
(-1.06599 -0.942122 0.00930416)
(-1.06336 -0.842288 0.00928122)
(-1.05775 -0.745455 0.00923229)
(-1.04907 -0.651756 0.00915651)
(-1.03721 -0.561329 0.00905305)
(-1.02209 -0.474325 0.00892118)
(-1.00366 -0.390905 0.00876033)
(-0.981855 -0.31124 0.00857008)
(-0.956664 -0.235507 0.00835027)
(-0.92809 -0.16389 0.00810093)
(-0.896171 -0.0965818 0.00782239)
(-0.86097 -0.033765 0.0075152)
(-0.822586 0.0243732 0.00718023)
(-0.781153 0.0776427 0.00681865)
(-0.736843 0.125855 0.00643196)
(-0.689879 0.168812 0.0060221)
(-0.640512 0.206327 0.00559126)
(-0.589047 0.238197 0.00514211)
(-0.535848 0.264212 0.00467782)
(-0.481331 0.28415 0.00420201)
(-0.42598 0.297777 0.00371891)
(-0.370341 0.304841 0.0032333)
(-0.315047 0.305071 0.00275067)
(-0.260822 0.298178 0.00227737)
(-0.208493 0.283864 0.0018206)
(-0.158996 0.261833 0.00138854)
(-0.113458 0.231829 0.000991005)
(-0.0730975 0.19369 0.000638639)
(-0.0395636 0.147429 0.000345818)
(-0.0143977 0.0933998 0.000126108)
(-0.000618009 0.0324072 7.66041e-06)
(-0.835039 -2.28627 0.0072881)
(-0.856533 -2.21055 0.00747567)
(-0.87883 -2.13179 0.00767028)
(-0.903021 -2.04491 0.0078814)
(-0.926182 -1.95026 0.00808357)
(-0.948346 -1.84924 0.00827702)
(-0.968583 -1.7439 0.00845368)
(-0.986806 -1.63607 0.00861275)
(-1.00275 -1.52732 0.00875193)
(-1.01636 -1.41883 0.00887076)
(-1.02756 -1.31147 0.00896849)
(-1.03628 -1.20583 0.00904465)
(-1.04245 -1.10232 0.0090986)
(-1.046 -1.00123 0.00912961)
(-1.04683 -0.902746 0.00913685)
(-1.04482 -0.807028 0.00911935)
(-1.03987 -0.714205 0.00907615)
(-1.03186 -0.624408 0.00900633)
(-1.0207 -0.537772 0.00890899)
(-1.0063 -0.45444 0.00878336)
(-0.988593 -0.374563 0.00862883)
(-0.967521 -0.298302 0.00844496)
(-0.943063 -0.225824 0.00823154)
(-0.915221 -0.157301 0.00798859)
(-0.884031 -0.0929163 0.00771642)
(-0.849555 -0.0328407 0.00741556)
(-0.811889 0.022748 0.00708686)
(-0.771168 0.0736699 0.00673149)
(-0.727561 0.119747 0.00635094)
(-0.681292 0.160788 0.00594714)
(-0.632611 0.196617 0.00552229)
(-0.581824 0.227041 0.00507906)
(-0.529296 0.251858 0.00462063)
(-0.475444 0.270857 0.00415061)
(-0.420751 0.283813 0.00367326)
(-0.365763 0.290486 0.00319333)
(-0.311113 0.290618 0.00271633)
(-0.257522 0.283933 0.00224856)
(-0.205815 0.27015 0.00179722)
(-0.156919 0.248995 0.0013704)
(-0.11195 0.220237 0.000977834)
(-0.0721108 0.18375 0.000630018)
(-0.0390236 0.139595 0.000341099)
(-0.0142017 0.0881976 0.000124391)
(-0.000610802 0.030453 7.56712e-06)
(-0.820921 -2.1909 0.0071649)
(-0.839486 -2.115 0.00732691)
(-0.859979 -2.03851 0.00750576)
(-0.882538 -1.95519 0.00770265)
(-0.904633 -1.86495 0.0078955)
(-0.926037 -1.76872 0.00808232)
(-0.945866 -1.66834 0.0082554)
(-0.963934 -1.56548 0.00841312)
(-0.979947 -1.46162 0.00855291)
(-0.993797 -1.35789 0.00867382)
(-1.00536 -1.25514 0.00877479)
(-1.01456 -1.15399 0.00885507)
(-1.02128 -1.05484 0.00891379)
(-1.02543 -0.957999 0.00895006)
(-1.0269 -0.86366 0.00896292)
(-1.02557 -0.771989 0.0089513)
(-1.02131 -0.683118 0.00891417)
(-1.01401 -0.597174 0.00885055)
(-1.00358 -0.514285 0.00875951)
(-0.989909 -0.434587 0.00864026)
(-0.972934 -0.358222 0.00849214)
(-0.9526 -0.285338 0.00831472)
(-0.92888 -0.216091 0.00810775)
(-0.901776 -0.150643 0.00787123)
(-0.871322 -0.0891647 0.00760548)
(-0.837577 -0.0318159 0.00731101)
(-0.800639 0.0212356 0.00698866)
(-0.760641 0.0698205 0.0066396)
(-0.717752 0.11377 0.00626531)
(-0.672196 0.152904 0.00586774)
(-0.624223 0.187054 0.00544907)
(-0.574141 0.216038 0.00501199)
(-0.522313 0.239662 0.00455966)
(-0.469156 0.257726 0.00409572)
(-0.415156 0.270015 0.00362442)
(-0.360857 0.276301 0.00315049)
(-0.30689 0.276335 0.00267946)
(-0.253974 0.269859 0.00221759)
(-0.20293 0.256605 0.00177203)
(-0.154677 0.23632 0.00135082)
(-0.110319 0.208797 0.000963589)
(-0.0710409 0.173946 0.00062067)
(-0.0384363 0.131872 0.000335965)
(-0.0139876 0.08307 0.000122516)
(-0.000602654 0.0285265 7.46269e-06)
(-0.80398 -2.10003 0.00701705)
(-0.819783 -2.0234 0.00715496)
(-0.838694 -1.94859 0.00731999)
(-0.859806 -1.86833 0.00750425)
(-0.881033 -1.78202 0.00768952)
(-0.901861 -1.69017 0.00787131)
(-0.92146 -1.5944 0.00804239)
(-0.939541 -1.4962 0.00820022)
(-0.955777 -1.39697 0.00834195)
(-0.970006 -1.29779 0.00846616)
(-0.982069 -1.1995 0.00857147)
(-0.991845 -1.1027 0.00865682)
(-0.999209 -1.00781 0.00872113)
(-1.00404 -0.915121 0.00876334)
(-1.00621 -0.824853 0.00878236)
(-1.0056 -0.737168 0.00877705)
(-1.00208 -0.652195 0.00874632)
(-0.995524 -0.570057 0.00868915)
(-0.98583 -0.490876 0.00860459)
(-0.972905 -0.414778 0.00849183)
(-0.956673 -0.341894 0.00835021)
(-0.937082 -0.27236 0.00817927)
(-0.914106 -0.206322 0.00797878)
(-0.887743 -0.143928 0.00774874)
(-0.858028 -0.0853373 0.00748944)
(-0.825022 -0.0306994 0.00720141)
(-0.78882 0.0198292 0.00688549)
(-0.749557 0.0660896 0.00654285)
(-0.707402 0.107923 0.00617496)
(-0.662578 0.145159 0.00578378)
(-0.615336 0.17764 0.00537149)
(-0.565984 0.20519 0.00494078)
(-0.514886 0.227629 0.00449482)
(-0.462458 0.244764 0.00403724)
(-0.409186 0.256391 0.00357229)
(-0.355613 0.262293 0.00310471)
(-0.302369 0.262234 0.00263999)
(-0.250171 0.255966 0.00218438)
(-0.199833 0.24324 0.00174498)
(-0.152266 0.223819 0.00132977)
(-0.108561 0.197521 0.000948234)
(-0.0698846 0.164287 0.000610569)
(-0.0377996 0.124268 0.0003304)
(-0.0137543 0.0780235 0.000120473)
(-0.000593465 0.0266304 7.34607e-06)
(-0.783977 -2.01374 0.00684249)
(-0.797209 -1.93578 0.00695795)
(-0.814741 -1.86202 0.00711094)
(-0.834627 -1.7843 0.00728449)
(-0.855217 -1.70142 0.0074642)
(-0.875692 -1.61353 0.00764291)
(-0.895276 -1.522 0.00781385)
(-0.913567 -1.42816 0.00797351)
(-0.930205 -1.33331 0.00811875)
(-0.94497 -1.23849 0.00824764)
(-0.957666 -1.1445 0.00835848)
(-0.968139 -1.05192 0.00844991)
(-0.976241 -0.961183 0.00852065)
(-0.981832 -0.872576 0.00856948)
(-0.984774 -0.786314 0.00859522)
(-0.984933 -0.702558 0.00859663)
(-0.982177 -0.621436 0.00857261)
(-0.976387 -0.543064 0.00852211)
(-0.967453 -0.467556 0.00844418)
(-0.955281 -0.395025 0.008338)
(-0.9398 -0.325592 0.00820292)
(-0.920956 -0.259383 0.00803851)
(-0.898724 -0.196529 0.00784452)
(-0.873106 -0.137168 0.00762097)
(-0.844135 -0.0814452 0.00736816)
(-0.811873 -0.0295003 0.00708663)
(-0.776416 0.0185214 0.00677721)
(-0.737899 0.0624719 0.00644109)
(-0.696494 0.102202 0.00607974)
(-0.652421 0.137553 0.00569512)
(-0.605934 0.168374 0.00528941)
(-0.557339 0.194502 0.00486531)
(-0.507001 0.215764 0.00442599)
(-0.455336 0.231978 0.00397507)
(-0.402829 0.24295 0.0035168)
(-0.350022 0.248473 0.0030559)
(-0.297543 0.248323 0.00259785)
(-0.246105 0.242266 0.00214888)
(-0.196516 0.230065 0.00171602)
(-0.14968 0.211503 0.00130718)
(-0.106672 0.18642 0.00093173)
(-0.0686386 0.154785 0.000599684)
(-0.0371113 0.116793 0.000324384)
(-0.0135009 0.0730648 0.000118253)
(-0.00058312 0.0247675 7.21606e-06)
(-0.760588 -1.93216 0.00663837)
(-0.771459 -1.85219 0.00673322)
(-0.78782 -1.77879 0.00687599)
(-0.806763 -1.70304 0.0070413)
(-0.826997 -1.62307 0.00721789)
(-0.847398 -1.5387 0.00739596)
(-0.867225 -1.45104 0.00756902)
(-0.885959 -1.36127 0.00773254)
(-0.903204 -1.27057 0.00788308)
(-0.918681 -1.17992 0.00801818)
(-0.932159 -1.09008 0.00813584)
(-0.943451 -1.00162 0.00823442)
(-0.952388 -0.914944 0.00831245)
(-0.958815 -0.830346 0.00836858)
(-0.962586 -0.748032 0.00840154)
(-0.96356 -0.668159 0.00841008)
(-0.961604 -0.590847 0.00839304)
(-0.956599 -0.516205 0.0083494)
(-0.948437 -0.444335 0.0082782)
(-0.937028 -0.375342 0.00817867)
(-0.9223 -0.309333 0.00805017)
(-0.904205 -0.246421 0.00789229)
(-0.882719 -0.186728 0.00770481)
(-0.857845 -0.130376 0.00748776)
(-0.829621 -0.0775004 0.00724147)
(-0.798108 -0.0282287 0.00696648)
(-0.763406 0.0173046 0.00666365)
(-0.725648 0.0589622 0.00633415)
(-0.685008 0.0966052 0.00597948)
(-0.641707 0.130085 0.00560159)
(-0.595999 0.15926 0.00520269)
(-0.548189 0.183977 0.00478544)
(-0.498644 0.204072 0.00435304)
(-0.447777 0.219374 0.00390908)
(-0.396073 0.229699 0.00345782)
(-0.344074 0.23485 0.00300397)
(-0.292402 0.234614 0.00255297)
(-0.241768 0.228769 0.00211101)
(-0.192973 0.217093 0.00168509)
(-0.146912 0.199385 0.00128301)
(-0.104646 0.175504 0.000914037)
(-0.0672996 0.145451 0.000587985)
(-0.0363691 0.109455 0.000317897)
(-0.0132262 0.0682007 0.000115847)
(-0.000571492 0.0229405 7.07135e-06)
(-0.733342 -1.85554 0.00640058)
(-0.742107 -1.7727 0.00647705)
(-0.757558 -1.69886 0.00661186)
(-0.775935 -1.62442 0.00677224)
(-0.79617 -1.54682 0.00694884)
(-0.816851 -1.46553 0.00712934)
(-0.837234 -1.38139 0.00730724)
(-0.856685 -1.29541 0.00747702)
(-0.874768 -1.20865 0.00763487)
(-0.891149 -1.122 0.00777787)
(-0.905565 -1.03619 0.00790371)
(-0.9178 -0.951744 0.00801053)
(-0.92767 -0.869059 0.0080967)
(-0.935008 -0.788412 0.00816078)
(-0.939661 -0.71 0.00820144)
(-0.941488 -0.63397 0.00821743)
(-0.940359 -0.560433 0.00820759)
(-0.936155 -0.489489 0.00817095)
(-0.928774 -0.421228 0.00810657)
(-0.918129 -0.355744 0.00801371)
(-0.904155 -0.293132 0.00789179)
(-0.886807 -0.233493 0.00774043)
(-0.866066 -0.176933 0.00755945)
(-0.841938 -0.123567 0.00734891)
(-0.814462 -0.0735153 0.00710916)
(-0.783705 -0.0268949 0.00684076)
(-0.749765 0.0161708 0.00654458)
(-0.71278 0.0555549 0.00622182)
(-0.672923 0.0911288 0.00587399)
(-0.630415 0.122754 0.00550303)
(-0.585511 0.150299 0.00511114)
(-0.538517 0.173618 0.00470101)
(-0.489798 0.192559 0.00427582)
(-0.439767 0.206961 0.00383916)
(-0.388906 0.216648 0.00339525)
(-0.337756 0.221434 0.00294881)
(-0.286936 0.221117 0.00250524)
(-0.237151 0.215487 0.0020707)
(-0.189197 0.204336 0.00165212)
(-0.143959 0.187476 0.00125722)
(-0.102479 0.164788 0.000895115)
(-0.0658639 0.136295 0.000575443)
(-0.0355707 0.102265 0.000310918)
(-0.0129291 0.0634384 0.000113245)
(-0.000558439 0.0211524 6.91048e-06)
(-0.701334 -1.78415 0.00612123)
(-0.708483 -1.69733 0.00618359)
(-0.723456 -1.62209 0.00631422)
(-0.741818 -1.54826 0.00647446)
(-0.762533 -1.47246 0.00665524)
(-0.783941 -1.39383 0.00684209)
(-0.805254 -1.31288 0.00702811)
(-0.825738 -1.23043 0.00720691)
(-0.844916 -1.14742 0.00737431)
(-0.862406 -1.06464 0.00752698)
(-0.877919 -0.982753 0.0076624)
(-0.891221 -0.902251 0.00777853)
(-0.902116 -0.823501 0.00787364)
(-0.910431 -0.746761 0.00794625)
(-0.916014 -0.672214 0.00799503)
(-0.918725 -0.599996 0.00801873)
(-0.91844 -0.530207 0.00801627)
(-0.915046 -0.462933 0.0079867)
(-0.908448 -0.398255 0.00792916)
(-0.898568 -0.336252 0.00784296)
(-0.885344 -0.27701 0.0077276)
(-0.868739 -0.220615 0.00758272)
(-0.84874 -0.167164 0.00740821)
(-0.825356 -0.116756 0.00720417)
(-0.798631 -0.0695034 0.00697097)
(-0.768634 -0.0255097 0.00670921)
(-0.735467 0.0151117 0.00641978)
(-0.699269 0.0522445 0.00610388)
(-0.660213 0.0857701 0.00576304)
(-0.618522 0.11556 0.0053992)
(-0.57445 0.141492 0.00501458)
(-0.528303 0.16343 0.00461185)
(-0.480445 0.181232 0.00419417)
(-0.431289 0.194745 0.00376515)
(-0.381314 0.203805 0.00332897)
(-0.331057 0.208235 0.00289033)
(-0.281134 0.207843 0.0024546)
(-0.232247 0.202432 0.00202788)
(-0.185182 0.191805 0.00161705)
(-0.140813 0.175789 0.00122975)
(-0.100168 0.154281 0.000874924)
(-0.0643281 0.127329 0.000562026)
(-0.0347137 0.0952324 0.000303428)
(-0.0126084 0.0587854 0.000110436)
(-0.000543802 0.0194066 6.73183e-06)
(-0.663112 -1.71803 0.00578764)
(-0.669652 -1.62585 0.00584467)
(-0.684923 -1.54815 0.0059779)
(-0.704081 -1.4742 0.00614508)
(-0.725918 -1.39966 0.00633565)
(-0.748609 -1.32332 0.0065337)
(-0.77129 -1.24527 0.00673166)
(-0.79316 -1.16617 0.00692255)
(-0.813703 -1.08676 0.00710187)
(-0.832511 -1.00774 0.00726604)
(-0.849278 -0.92971 0.00741241)
(-0.863762 -0.8531 0.00753885)
(-0.875762 -0.778247 0.00764362)
(-0.88511 -0.705385 0.00772524)
(-0.891658 -0.634679 0.00778244)
(-0.895274 -0.566249 0.00781404)
(-0.895842 -0.500184 0.00781903)
(-0.893261 -0.436556 0.00779654)
(-0.887443 -0.375435 0.00774581)
(-0.878319 -0.316888 0.00766622)
(-0.865839 -0.260988 0.00755734)
(-0.849971 -0.20781 0.0074189)
(-0.830708 -0.157438 0.00725082)
(-0.808067 -0.109962 0.00705326)
(-0.782095 -0.0654788 0.00682663)
(-0.752865 -0.0240845 0.00657156)
(-0.720481 0.014119 0.00628896)
(-0.685084 0.0490255 0.00598006)
(-0.646849 0.0805263 0.00564639)
(-0.606 0.108503 0.0052899)
(-0.562791 0.132842 0.0049128)
(-0.517526 0.153418 0.00451777)
(-0.470567 0.170097 0.00410794)
(-0.422327 0.182736 0.00368691)
(-0.373281 0.19118 0.00325885)
(-0.323964 0.195264 0.00282841)
(-0.274988 0.194805 0.00240093)
(-0.227046 0.189616 0.00198247)
(-0.180919 0.179513 0.00157983)
(-0.137469 0.164335 0.00120055)
(-0.097706 0.143997 0.000853425)
(-0.0626887 0.118564 0.000547704)
(-0.0337957 0.0883677 0.000295405)
(-0.0122629 0.0542496 0.00010741)
(-0.000527405 0.0177064 6.53363e-06)
(-0.616533 -1.65641 0.00538108)
(-0.624515 -1.5575 0.0054507)
(-0.641405 -1.47637 0.00559806)
(-0.662498 -1.40167 0.00578213)
(-0.686272 -1.32798 0.0059896)
(-0.7109 -1.25362 0.00620455)
(-0.735432 -1.1783 0.00641866)
(-0.759055 -1.10241 0.00662486)
(-0.781236 -1.02652 0.00681847)
(-0.80156 -0.951215 0.00699588)
(-0.819723 -0.876997 0.00715443)
(-0.835486 -0.804256 0.00729204)
(-0.848657 -0.733283 0.00740702)
(-0.859077 -0.664284 0.00749801)
(-0.866611 -0.597404 0.00756381)
(-0.871139 -0.532747 0.00760337)
(-0.872559 -0.470387 0.00761579)
(-0.870781 -0.410385 0.00760033)
(-0.865733 -0.352796 0.00755631)
(-0.857354 -0.297679 0.00748323)
(-0.845606 -0.245092 0.00738074)
(-0.830466 -0.1951 0.00724864)
(-0.811933 -0.147777 0.00708694)
(-0.790032 -0.1032 0.00689584)
(-0.764815 -0.0614561 0.0066758)
(-0.736359 -0.0226307 0.00642748)
(-0.70477 0.0131843 0.00615182)
(-0.670193 0.0458927 0.00585008)
(-0.632802 0.0753953 0.00552377)
(-0.592822 0.101583 0.00517487)
(-0.550507 0.124353 0.00480558)
(-0.506161 0.143587 0.00441856)
(-0.460143 0.159161 0.00401694)
(-0.412862 0.170942 0.00360429)
(-0.364793 0.178785 0.00318475)
(-0.316465 0.182532 0.00276294)
(-0.268485 0.182014 0.00234416)
(-0.221541 0.177052 0.0019344)
(-0.176402 0.167473 0.00154039)
(-0.133921 0.153129 0.00116957)
(-0.0950903 0.133948 0.000830579)
(-0.0609424 0.110014 0.000532448)
(-0.0328144 0.0816817 0.000286828)
(-0.0118913 0.0498389 0.000104156)
(-0.000509056 0.0160554 6.31395e-06)
(-0.559581 -1.59669 0.00488397)
(-0.572289 -1.49052 0.00499483)
(-0.592658 -1.40555 0.00517255)
(-0.61711 -1.32983 0.00538594)
(-0.643755 -1.2568 0.00561848)
(-0.671012 -1.18434 0.00585638)
(-0.69788 -1.11167 0.00609089)
(-0.723609 -1.03896 0.00631546)
(-0.747672 -0.966567 0.0065255)
(-0.769683 -0.894969 0.00671764)
(-0.789355 -0.824569 0.00688936)
(-0.806468 -0.755698 0.00703876)
(-0.820851 -0.688606 0.00716432)
(-0.832362 -0.62347 0.00726482)
(-0.840884 -0.560411 0.00733926)
(-0.846317 -0.499517 0.00738672)
(-0.848575 -0.440847 0.00740645)
(-0.847585 -0.384449 0.00739785)
(-0.843287 -0.33037 0.00736039)
(-0.835637 -0.278653 0.00729367)
(-0.824606 -0.229349 0.00719744)
(-0.810181 -0.182511 0.00707159)
(-0.792372 -0.138202 0.0069162)
(-0.771209 -0.0964895 0.00673154)
(-0.74675 -0.0574506 0.00651811)
(-0.719075 -0.0211602 0.00627662)
(-0.688297 0.0122993 0.00600803)
(-0.654558 0.042841 0.0057136)
(-0.618037 0.0703751 0.00539488)
(-0.578957 0.0948022 0.00505383)
(-0.537571 0.116027 0.00469266)
(-0.494183 0.133942 0.004314)
(-0.449149 0.148432 0.00392097)
(-0.402876 0.159373 0.00351711)
(-0.355834 0.166629 0.00310653)
(-0.308546 0.170052 0.0026938)
(-0.261615 0.169483 0.00228418)
(-0.215721 0.164753 0.00188359)
(-0.171625 0.155698 0.00149868)
(-0.130165 0.142184 0.00113677)
(-0.0923162 0.124147 0.000806351)
(-0.059086 0.101689 0.00051623)
(-0.0317674 0.0751851 0.000277678)
(-0.0114924 0.0455618 0.000100662)
(-0.000488545 0.0144573 6.07069e-06)
(-0.493198 -1.535 0.00430452)
(-0.513797 -1.42249 0.00448424)
(-0.539387 -1.33421 0.00470756)
(-0.568509 -1.2577 0.00496171)
(-0.598866 -1.18551 0.00522666)
(-0.62936 -1.11504 0.00549281)
(-0.658974 -1.04511 0.00575129)
(-0.687092 -0.975631 0.00599671)
(-0.713225 -0.906797 0.00622483)
(-0.737044 -0.838946 0.00643275)
(-0.758296 -0.772399 0.00661825)
(-0.776796 -0.707425 0.00677975)
(-0.792399 -0.644233 0.00691598)
(-0.804995 -0.582969 0.00702594)
(-0.814488 -0.523733 0.00710885)
(-0.820801 -0.466595 0.007164)
(-0.823869 -0.411601 0.00719081)
(-0.823639 -0.358789 0.00718884)
(-0.820067 -0.308192 0.00715771)
(-0.813122 -0.259846 0.00709715)
(-0.80279 -0.21379 0.00700702)
(-0.789068 -0.17007 0.0068873)
(-0.771975 -0.128737 0.00673816)
(-0.751548 -0.0898507 0.00655993)
(-0.727851 -0.0534779 0.00635315)
(-0.700969 -0.0196846 0.00611857)
(-0.671016 0.011456 0.00585719)
(-0.638139 0.0398661 0.00557028)
(-0.602515 0.0654647 0.0052594)
(-0.564369 0.0881617 0.0049265)
(-0.523952 0.10787 0.00457377)
(-0.481566 0.124492 0.00420386)
(-0.437564 0.13792 0.00381983)
(-0.392349 0.14804 0.00342521)
(-0.346386 0.154725 0.00302405)
(-0.300194 0.157837 0.00262089)
(-0.254368 0.157225 0.00222091)
(-0.20958 0.152732 0.00182997)
(-0.16658 0.144203 0.00145463)
(-0.126196 0.131512 0.0011021)
(-0.0893802 0.114608 0.000780707)
(-0.0571167 0.0936023 0.000499026)
(-0.0306529 0.0688891 0.000267936)
(-0.0110649 0.0414268 9.6918e-05)
(-0.000465645 0.0129161 5.80161e-06)
(-0.421018 -1.46879 0.00367444)
(-0.451239 -1.35163 0.00393815)
(-0.483185 -1.26125 0.00421697)
(-0.517797 -1.18454 0.00451905)
(-0.552431 -1.11362 0.00482132)
(-0.586552 -1.0454 0.00511914)
(-0.619175 -0.978407 0.00540389)
(-0.649852 -0.91231 0.00567165)
(-0.678157 -0.847141 0.00591872)
(-0.703833 -0.783122 0.00614286)
(-0.726679 -0.720492 0.00634229)
(-0.746555 -0.659462 0.0065158)
(-0.763354 -0.600201 0.00666245)
(-0.776997 -0.542826 0.00678157)
(-0.78742 -0.487418 0.0068726)
(-0.794572 -0.43403 0.00693506)
(-0.79841 -0.382698 0.00696859)
(-0.798902 -0.333447 0.00697293)
(-0.796023 -0.286303 0.00694784)
(-0.789757 -0.241294 0.00689321)
(-0.780103 -0.198448 0.00680899)
(-0.76707 -0.157805 0.00669529)
(-0.750685 -0.119407 0.00655233)
(-0.730994 -0.0833031 0.00638051)
(-0.708065 -0.0495536 0.00618044)
(-0.681988 -0.0182154 0.00595289)
(-0.652881 0.0106469 0.00569889)
(-0.620891 0.0369641 0.00541972)
(-0.586197 0.0606637 0.00511696)
(-0.549023 0.0816644 0.00479254)
(-0.509617 0.0998878 0.00444864)
(-0.46828 0.115244 0.00408788)
(-0.425362 0.127635 0.00371331)
(-0.381259 0.136955 0.0033284)
(-0.336433 0.143087 0.00293716)
(-0.291395 0.145901 0.00254407)
(-0.246732 0.145256 0.00215424)
(-0.203108 0.141005 0.00177347)
(-0.161263 0.133001 0.0014082)
(-0.122008 0.121129 0.00106553)
(-0.0862789 0.105343 0.000753622)
(-0.0550319 0.0857667 0.000480813)
(-0.0294687 0.062805 0.000257587)
(-0.0106076 0.0374429 9.29136e-05)
(-0.000440114 0.0114361 5.50434e-06)
(-0.347063 -1.39717 0.00302887)
(-0.387011 -1.27723 0.00337749)
(-0.425917 -1.18617 0.00371707)
(-0.466267 -1.10999 0.00406923)
(-0.505415 -1.04087 0.00441093)
(-0.543297 -0.975261 0.00474157)
(-0.579009 -0.911473 0.00505329)
(-0.612274 -0.848954 0.00534365)
(-0.642745 -0.7876 0.00560962)
(-0.670247 -0.727523 0.0058497)
(-0.694637 -0.668891 0.0060626)
(-0.715828 -0.611863 0.00624759)
(-0.733756 -0.55657 0.00640411)
(-0.74838 -0.503104 0.00653179)
(-0.759669 -0.451528 0.00663037)
(-0.767599 -0.401883 0.00669963)
(-0.772154 -0.354193 0.00673941)
(-0.773321 -0.308476 0.00674965)
(-0.771096 -0.264752 0.00673027)
(-0.765479 -0.223038 0.00668129)
(-0.75648 -0.18336 0.0066028)
(-0.744121 -0.145747 0.00649498)
(-0.728438 -0.110235 0.00635815)
(-0.709484 -0.0768671 0.00619276)
(-0.687332 -0.0456934 0.00599947)
(-0.662078 -0.0167637 0.0057791)
(-0.63384 0.00986513 0.00553268)
(-0.602767 0.0341321 0.00526153)
(-0.56904 0.0559728 0.00496719)
(-0.532879 0.0753144 0.00465162)
(-0.494533 0.0920864 0.00431696)
(-0.454297 0.106207 0.00396581)
(-0.412517 0.117588 0.00360119)
(-0.369586 0.126131 0.00322649)
(-0.325957 0.131727 0.0028457)
(-0.282135 0.134258 0.00246322)
(-0.238698 0.133591 0.0020841)
(-0.196299 0.129586 0.00171402)
(-0.155667 0.122108 0.00135934)
(-0.117599 0.111047 0.00102703)
(-0.0830101 0.0963669 0.000725073)
(-0.0528299 0.0781947 0.000461577)
(-0.0282135 0.0569442 0.000246617)
(-0.0101196 0.0336189 8.86395e-05)
(-0.000411695 0.0100214 5.1764e-06)
(-0.274558 -1.31977 0.00239594)
(-0.323392 -1.19926 0.00282215)
(-0.36936 -1.10882 0.00322338)
(-0.415216 -1.03399 0.00362361)
(-0.458805 -0.967239 0.00400408)
(-0.500319 -0.904634 0.00436643)
(-0.539013 -0.844342 0.00470417)
(-0.574747 -0.785619 0.00501608)
(-0.607264 -0.728243 0.00529992)
(-0.636471 -0.67223 0.00555488)
(-0.662286 -0.617684 0.00578023)
(-0.684679 -0.564716 0.00597571)
(-0.70363 -0.513427 0.00614115)
(-0.719137 -0.463886 0.00627654)
(-0.731203 -0.416142 0.00638191)
(-0.739835 -0.370224 0.00645729)
(-0.745041 -0.326151 0.00650276)
(-0.74683 -0.283935 0.00651842)
(-0.745215 -0.243588 0.00650437)
(-0.740213 -0.205125 0.00646076)
(-0.731847 -0.168563 0.00638779)
(-0.72015 -0.133929 0.00628574)
(-0.705165 -0.10125 0.00615501)
(-0.686952 -0.0705633 0.00599609)
(-0.665591 -0.0419125 0.0058097)
(-0.641179 -0.01534 0.00559667)
(-0.613837 0.00910479 0.00535808)
(-0.583717 0.0313684 0.00509524)
(-0.550997 0.051394 0.0048097)
(-0.515897 0.0691169 0.00450338)
(-0.478662 0.0844742 0.00417842)
(-0.439584 0.0973926 0.00383738)
(-0.399004 0.107791 0.00348322)
(-0.357308 0.115581 0.00311931)
(-0.314941 0.120663 0.00274953)
(-0.2724 0.122925 0.00237824)
(-0.230255 0.122245 0.00201038)
(-0.189146 0.118492 0.00165156)
(-0.149789 0.111539 0.00130801)
(-0.112966 0.101283 0.000986578)
(-0.0795722 0.0876931 0.000695047)
(-0.0505096 0.0708994 0.000441306)
(-0.0268863 0.0513182 0.000235017)
(-0.0095998 0.0299642 8.40879e-05)
(-0.000380124 0.00867664 4.81524e-06)
(-0.206202 -1.23713 0.00179923)
(-0.262625 -1.11822 0.00229172)
(-0.315088 -1.02951 0.00274964)
(-0.365849 -0.956803 0.00319269)
(-0.413496 -0.892921 0.00360858)
(-0.458286 -0.833691 0.00399952)
(-0.499674 -0.777174 0.00436079)
(-0.537616 -0.722457 0.00469198)
(-0.571951 -0.669216 0.00499169)
(-0.602656 -0.617383 0.00525972)
(-0.629713 -0.567002 0.00549591)
(-0.653142 -0.518145 0.00570044)
(-0.672971 -0.470885 0.00587355)
(-0.689235 -0.425275 0.00601554)
(-0.701972 -0.381352 0.00612676)
(-0.711214 -0.339138 0.00620748)
(-0.716996 -0.298647 0.00625798)
(-0.719348 -0.259887 0.00627854)
(-0.718298 -0.222867 0.00626942)
(-0.713878 -0.187599 0.00623089)
(-0.706123 -0.154098 0.00616326)
(-0.695076 -0.122382 0.00606688)
(-0.680788 -0.0924764 0.00594223)
(-0.663325 -0.0644119 0.00578986)
(-0.642771 -0.0382255 0.00561051)
(-0.619226 -0.0139537 0.00540506)
(-0.592815 0.00836098 0.00517458)
(-0.563687 0.0286723 0.0049204)
(-0.532021 0.0469305 0.00464405)
(-0.498034 0.0630786 0.00434745)
(-0.461968 0.077061 0.00403269)
(-0.424109 0.0888122 0.0037023)
(-0.384795 0.0982595 0.00335918)
(-0.344401 0.105322 0.00300664)
(-0.303367 0.109909 0.00264849)
(-0.262179 0.111919 0.002289)
(-0.221394 0.111236 0.00193302)
(-0.181643 0.10774 0.00158605)
(-0.143625 0.10131 0.00125419)
(-0.108108 0.0918516 0.000944155)
(-0.0759649 0.0793357 0.000663541)
(-0.0480707 0.0638935 0.000420001)
(-0.0254865 0.0459386 0.000222784)
(-0.00904769 0.0264879 7.9253e-05)
(-0.000345131 0.00740646 4.41832e-06)
(-0.143421 -1.15074 0.00125121)
(-0.20615 -1.03502 0.00179875)
(-0.264184 -0.948851 0.0023053)
(-0.319075 -0.878889 0.00278441)
(-0.370184 -0.818288 0.00323051)
(-0.417728 -0.762749 0.00364551)
(-0.461378 -0.71024 0.00402652)
(-0.501152 -0.659708 0.0043737)
(-0.536979 -0.610735 0.00468644)
(-0.568901 -0.563174 0.00496509)
(-0.596957 -0.517019 0.00521)
(-0.621215 -0.472305 0.00542177)
(-0.641744 -0.429084 0.00560099)
(-0.658617 -0.387394 0.0057483)
(-0.6719 -0.347265 0.00586428)
(-0.681652 -0.308717 0.00594945)
(-0.68793 -0.27176 0.00600427)
(-0.69078 -0.236401 0.0060292)
(-0.690249 -0.202648 0.0060246)
(-0.686379 -0.170512 0.00599087)
(-0.679216 -0.140003 0.00592841)
(-0.668812 -0.111139 0.00583764)
(-0.655225 -0.0839406 0.0057191)
(-0.638525 -0.0584323 0.00557339)