/*--------------------------------*- C++ -*----------------------------------*\
| =========                 |                                                 |
| \\      /  F ield         | OpenFOAM: The Open Source CFD Toolbox           |
|  \\    /   O peration     | Version:  v2012                                 |
|   \\  /    A nd           | Website:  www.openfoam.com                      |
|    \\/     M anipulation  |                                                 |
\*---------------------------------------------------------------------------*/
FoamFile
{
    version     2.0;
    format      ascii;
    class       volScalarField;
    location    "0.55";
    object      p;
}
// * * * * * * * * * * * * * * * * * * * * * * * * * * * * * * * * * * * * * //

dimensions      [1 -1 -2 0 0 0 0];


internalField   nonuniform List<scalar> 
3326
(
3.4877e+06
3.48771e+06
3.48769e+06
3.48765e+06
3.48758e+06
3.48748e+06
3.48734e+06
3.48718e+06
3.48693e+06
3.48749e+06
3.48756e+06
3.48761e+06
3.48765e+06
3.48766e+06
3.48764e+06
3.4876e+06
3.48754e+06
3.48744e+06
3.4873e+06
3.48714e+06
3.48689e+06
3.51986e+06
3.51286e+06
3.50749e+06
3.50297e+06
3.49936e+06
3.4964e+06
3.49403e+06
3.49211e+06
3.49057e+06
3.48934e+06
3.48838e+06
3.48762e+06
3.48704e+06
3.48661e+06
3.48629e+06
3.48606e+06
3.48592e+06
3.48584e+06
3.48582e+06
3.48584e+06
3.48589e+06
3.48597e+06
3.48607e+06
3.48619e+06
3.48632e+06
3.48646e+06
3.4866e+06
3.48674e+06
3.48687e+06
3.48701e+06
3.48713e+06
3.48724e+06
3.48735e+06
3.48744e+06
3.48751e+06
3.48756e+06
3.4876e+06
3.48761e+06
3.4876e+06
3.48756e+06
3.48749e+06
3.4874e+06
3.48726e+06
3.4871e+06
3.48686e+06
3.52519e+06
3.51701e+06
3.51051e+06
3.50526e+06
3.50106e+06
3.49768e+06
3.49498e+06
3.49281e+06
3.49109e+06
3.48973e+06
3.48866e+06
3.48782e+06
3.48718e+06
3.4867e+06
3.48634e+06
3.48609e+06
3.48593e+06
3.48584e+06
3.4858e+06
3.48581e+06
3.48586e+06
3.48593e+06
3.48603e+06
3.48614e+06
3.48627e+06
3.4864e+06
3.48654e+06
3.48668e+06
3.48682e+06
3.48695e+06
3.48708e+06
3.48719e+06
3.4873e+06
3.48739e+06
3.48746e+06
3.48752e+06
3.48755e+06
3.48757e+06
3.48755e+06
3.48752e+06
3.48745e+06
3.48736e+06
3.48722e+06
3.48707e+06
3.48683e+06
3.53026e+06
3.52097e+06
3.51332e+06
3.50737e+06
3.5026e+06
3.49882e+06
3.49581e+06
3.49342e+06
3.49153e+06
3.49005e+06
3.48888e+06
3.48797e+06
3.48728e+06
3.48676e+06
3.48637e+06
3.4861e+06
3.48592e+06
3.48581e+06
3.48577e+06
3.48577e+06
3.48581e+06
3.48588e+06
3.48598e+06
3.48609e+06
3.48622e+06
3.48635e+06
3.48649e+06
3.48663e+06
3.48677e+06
3.4869e+06
3.48703e+06
3.48715e+06
3.48725e+06
3.48734e+06
3.48742e+06
3.48747e+06
3.48751e+06
3.48752e+06
3.48751e+06
3.48748e+06
3.48741e+06
3.48732e+06
3.48719e+06
3.48704e+06
3.4868e+06
3.53483e+06
3.52446e+06
3.51579e+06
3.50918e+06
3.5039e+06
3.49976e+06
3.49649e+06
3.4939e+06
3.49187e+06
3.49028e+06
3.48904e+06
3.48807e+06
3.48734e+06
3.48678e+06
3.48638e+06
3.48609e+06
3.4859e+06
3.48578e+06
3.48573e+06
3.48573e+06
3.48576e+06
3.48583e+06
3.48593e+06
3.48604e+06
3.48617e+06
3.4863e+06
3.48644e+06
3.48658e+06
3.48672e+06
3.48685e+06
3.48698e+06
3.4871e+06
3.48721e+06
3.4873e+06
3.48737e+06
3.48743e+06
3.48747e+06
3.48748e+06
3.48748e+06
3.48744e+06
3.48738e+06
3.48729e+06
3.48716e+06
3.48701e+06
3.48678e+06
3.53887e+06
3.52729e+06
3.51781e+06
3.51061e+06
3.5049e+06
3.50046e+06
3.49697e+06
3.49423e+06
3.49209e+06
3.49042e+06
3.48912e+06
3.48812e+06
3.48735e+06
3.48678e+06
3.48635e+06
3.48605e+06
3.48585e+06
3.48573e+06
3.48568e+06
3.48567e+06
3.48571e+06
3.48578e+06
3.48587e+06
3.48599e+06
3.48611e+06
3.48625e+06
3.48639e+06
3.48653e+06
3.48667e+06
3.48681e+06
3.48694e+06
3.48706e+06
3.48716e+06
3.48726e+06
3.48733e+06
3.48739e+06
3.48743e+06
3.48745e+06
3.48744e+06
3.48741e+06
3.48735e+06
3.48726e+06
3.48713e+06
3.48698e+06
3.48675e+06
3.5423e+06
3.52929e+06
3.51926e+06
3.51155e+06
3.50554e+06
3.50087e+06
3.49723e+06
3.49439e+06
3.49217e+06
3.49045e+06
3.48912e+06
3.48809e+06
3.48731e+06
3.48673e+06
3.4863e+06
3.48599e+06
3.48579e+06
3.48567e+06
3.48562e+06
3.48561e+06
3.48565e+06
3.48572e+06
3.48582e+06
3.48593e+06
3.48606e+06
3.4862e+06
3.48634e+06
3.48648e+06
3.48662e+06
3.48676e+06
3.48689e+06
3.48701e+06
3.48712e+06
3.48722e+06
3.4873e+06
3.48736e+06
3.4874e+06
3.48742e+06
3.48741e+06
3.48738e+06
3.48732e+06
3.48723e+06
3.48711e+06
3.48696e+06
3.48674e+06
3.54451e+06
3.5303e+06
3.51999e+06
3.51191e+06
3.50574e+06
3.50094e+06
3.49723e+06
3.49434e+06
3.4921e+06
3.49037e+06
3.48903e+06
3.488e+06
3.48722e+06
3.48664e+06
3.48621e+06
3.48591e+06
3.48571e+06
3.48559e+06
3.48554e+06
3.48554e+06
3.48558e+06
3.48566e+06
3.48575e+06
3.48587e+06
3.486e+06
3.48614e+06
3.48629e+06
3.48643e+06
3.48658e+06
3.48672e+06
3.48685e+06
3.48697e+06
3.48708e+06
3.48718e+06
3.48726e+06
3.48732e+06
3.48736e+06
3.48738e+06
3.48738e+06
3.48735e+06
3.48729e+06
3.48721e+06
3.48709e+06
3.48694e+06
3.48672e+06
3.54497e+06
3.53026e+06
3.51983e+06
3.51163e+06
3.50544e+06
3.50065e+06
3.49695e+06
3.49409e+06
3.49187e+06
3.49016e+06
3.48884e+06
3.48784e+06
3.48707e+06
3.4865e+06
3.48609e+06
3.4858e+06
3.48561e+06
3.4855e+06
3.48546e+06
3.48546e+06
3.48551e+06
3.48559e+06
3.48569e+06
3.48581e+06
3.48595e+06
3.48609e+06
3.48624e+06
3.48639e+06
3.48653e+06
3.48668e+06
3.48681e+06
3.48694e+06
3.48705e+06
3.48715e+06
3.48723e+06
3.48729e+06
3.48733e+06
3.48736e+06
3.48735e+06
3.48733e+06
3.48727e+06
3.48719e+06
3.48707e+06
3.48693e+06
3.48671e+06
3.54341e+06
3.52903e+06
3.51867e+06
3.51065e+06
3.50462e+06
3.49996e+06
3.49638e+06
3.49362e+06
3.49148e+06
3.48983e+06
3.48857e+06
3.4876e+06
3.48687e+06
3.48633e+06
3.48594e+06
3.48566e+06
3.48549e+06
3.48539e+06
3.48536e+06
3.48537e+06
3.48543e+06
3.48551e+06
3.48562e+06
3.48575e+06
3.48589e+06
3.48603e+06
3.48619e+06
3.48634e+06
3.48649e+06
3.48663e+06
3.48677e+06
3.4869e+06
3.48701e+06
3.48711e+06
3.4872e+06
3.48726e+06
3.48731e+06
3.48733e+06
3.48733e+06
3.4873e+06
3.48725e+06
3.48717e+06
3.48705e+06
3.48692e+06
3.4867e+06
3.53964e+06
3.52638e+06
3.51643e+06
3.50893e+06
3.50324e+06
3.49887e+06
3.49552e+06
3.49293e+06
3.49092e+06
3.48938e+06
3.48819e+06
3.48729e+06
3.48661e+06
3.48611e+06
3.48575e+06
3.4855e+06
3.48535e+06
3.48527e+06
3.48525e+06
3.48528e+06
3.48534e+06
3.48543e+06
3.48555e+06
3.48568e+06
3.48583e+06
3.48598e+06
3.48614e+06
3.48629e+06
3.48645e+06
3.48659e+06
3.48674e+06
3.48687e+06
3.48698e+06
3.48708e+06
3.48717e+06
3.48724e+06
3.48728e+06
3.48731e+06
3.48731e+06
3.48728e+06
3.48723e+06
3.48715e+06
3.48704e+06
3.48691e+06
3.4867e+06
3.53379e+06
3.52217e+06
3.51315e+06
3.50647e+06
3.50134e+06
3.49741e+06
3.49438e+06
3.49203e+06
3.49021e+06
3.48881e+06
3.48773e+06
3.48691e+06
3.4863e+06
3.48585e+06
3.48553e+06
3.48532e+06
3.48519e+06
3.48513e+06
3.48513e+06
3.48517e+06
3.48525e+06
3.48535e+06
3.48548e+06
3.48562e+06
3.48577e+06
3.48593e+06
3.48609e+06
3.48625e+06
3.48641e+06
3.48656e+06
3.4867e+06
3.48683e+06
3.48695e+06
3.48706e+06
3.48715e+06
3.48721e+06
3.48726e+06
3.48729e+06
3.48729e+06
3.48727e+06
3.48722e+06
3.48714e+06
3.48703e+06
3.4869e+06
3.4867e+06
3.52611e+06
3.51651e+06
3.50897e+06
3.50335e+06
3.49898e+06
3.49562e+06
3.49299e+06
3.49095e+06
3.48937e+06
3.48814e+06
3.48719e+06
3.48648e+06
3.48594e+06
3.48556e+06
3.48529e+06
3.48511e+06
3.48502e+06
3.48498e+06
3.485e+06
3.48506e+06
3.48515e+06
3.48527e+06
3.4854e+06
3.48555e+06
3.48571e+06
3.48587e+06
3.48604e+06
3.4862e+06
3.48637e+06
3.48652e+06
3.48667e+06
3.4868e+06
3.48693e+06
3.48703e+06
3.48712e+06
3.48719e+06
3.48724e+06
3.48727e+06
3.48727e+06
3.48725e+06
3.4872e+06
3.48713e+06
3.48702e+06
3.4869e+06
3.4867e+06
3.51703e+06
3.50978e+06
3.5041e+06
3.49972e+06
3.49626e+06
3.49355e+06
3.49141e+06
3.48972e+06
3.4884e+06
3.48737e+06
3.48658e+06
3.48599e+06
3.48554e+06
3.48523e+06
3.48501e+06
3.48489e+06
3.48483e+06
3.48482e+06
3.48486e+06
3.48494e+06
3.48505e+06
3.48517e+06
3.48532e+06
3.48548e+06
3.48565e+06
3.48582e+06
3.48599e+06
3.48616e+06
3.48633e+06
3.48649e+06
3.48664e+06
3.48678e+06
3.4869e+06
3.48701e+06
3.4871e+06
3.48718e+06
3.48723e+06
3.48726e+06
3.48726e+06
3.48724e+06
3.48719e+06
3.48712e+06
3.48702e+06
3.4869e+06
3.48671e+06
3.50725e+06
3.50254e+06
3.49884e+06
3.49578e+06
3.49331e+06
3.49129e+06
3.48967e+06
3.48837e+06
3.48734e+06
3.48654e+06
3.48592e+06
3.48545e+06
3.48511e+06
3.48487e+06
3.48472e+06
3.48464e+06
3.48462e+06
3.48465e+06
3.48471e+06
3.48481e+06
3.48494e+06
3.48508e+06
3.48524e+06
3.48541e+06
3.48558e+06
3.48576e+06
3.48594e+06
3.48612e+06
3.48629e+06
3.48645e+06
3.48661e+06
3.48675e+06
3.48688e+06
3.48699e+06
3.48709e+06
3.48716e+06
3.48721e+06
3.48724e+06
3.48725e+06
3.48723e+06
3.48719e+06
3.48712e+06
3.48701e+06
3.4869e+06
3.48671e+06
3.49754e+06
3.49534e+06
3.49351e+06
3.49175e+06
3.49025e+06
3.48894e+06
3.48785e+06
3.48695e+06
3.48622e+06
3.48565e+06
3.4852e+06
3.48487e+06
3.48464e+06
3.48449e+06
3.4844e+06
3.48438e+06
3.4844e+06
3.48446e+06
3.48456e+06
3.48468e+06
3.48482e+06
3.48498e+06
3.48516e+06
3.48534e+06
3.48552e+06
3.48571e+06
3.48589e+06
3.48608e+06
3.48625e+06
3.48642e+06
3.48658e+06
3.48673e+06
3.48686e+06
3.48697e+06
3.48707e+06
3.48715e+06
3.4872e+06
3.48723e+06
3.48724e+06
3.48722e+06
3.48718e+06
3.48711e+06
3.48701e+06
3.4869e+06
3.48672e+06
3.48858e+06
3.48859e+06
3.48838e+06
3.48782e+06
3.48721e+06
3.48658e+06
3.486e+06
3.48549e+06
3.48507e+06
3.48472e+06
3.48446e+06
3.48427e+06
3.48415e+06
3.48409e+06
3.48407e+06
3.4841e+06
3.48417e+06
3.48427e+06
3.4844e+06
3.48454e+06
3.48471e+06
3.48488e+06
3.48507e+06
3.48526e+06
3.48546e+06
3.48565e+06
3.48585e+06
3.48604e+06
3.48622e+06
3.4864e+06
3.48656e+06
3.48671e+06
3.48684e+06
3.48696e+06
3.48706e+06
3.48714e+06
3.48719e+06
3.48723e+06
3.48723e+06
3.48722e+06
3.48718e+06
3.48711e+06
3.48702e+06
3.48691e+06
3.48674e+06
3.48081e+06
3.48257e+06
3.48365e+06
3.48411e+06
3.48429e+06
3.48427e+06
3.48417e+06
3.48404e+06
3.4839e+06
3.48379e+06
3.4837e+06
3.48366e+06
3.48365e+06
3.48367e+06
3.48373e+06
3.48382e+06
3.48394e+06
3.48407e+06
3.48423e+06
3.4844e+06
3.48459e+06
3.48478e+06
3.48498e+06
3.48519e+06
3.4854e+06
3.4856e+06
3.4858e+06
3.486e+06
3.48619e+06
3.48637e+06
3.48654e+06
3.48669e+06
3.48683e+06
3.48695e+06
3.48705e+06
3.48713e+06
3.48719e+06
3.48722e+06
3.48723e+06
3.48722e+06
3.48718e+06
3.48711e+06
3.48702e+06
3.48692e+06
3.48675e+06
3.47432e+06
3.47736e+06
3.47942e+06
3.48071e+06
3.48155e+06
3.48207e+06
3.4824e+06
3.48261e+06
3.48274e+06
3.48285e+06
3.48294e+06
3.48303e+06
3.48313e+06
3.48325e+06
3.48338e+06
3.48353e+06
3.4837e+06
3.48387e+06
3.48406e+06
3.48426e+06
3.48447e+06
3.48468e+06
3.4849e+06
3.48512e+06
3.48533e+06
3.48555e+06
3.48576e+06
3.48596e+06
3.48616e+06
3.48634e+06
3.48652e+06
3.48668e+06
3.48682e+06
3.48694e+06
3.48704e+06
3.48713e+06
3.48718e+06
3.48722e+06
3.48723e+06
3.48722e+06
3.48718e+06
3.48712e+06
3.48703e+06
3.48693e+06
3.48677e+06
3.46899e+06
3.47292e+06
3.47569e+06
3.47765e+06
3.47903e+06
3.48001e+06
3.48072e+06
3.48123e+06
3.48162e+06
3.48193e+06
3.48218e+06
3.48241e+06
3.48262e+06
3.48283e+06
3.48303e+06
3.48324e+06
3.48345e+06
3.48367e+06
3.48389e+06
3.48412e+06
3.48435e+06
3.48458e+06
3.48481e+06
3.48504e+06
3.48527e+06
3.4855e+06
3.48572e+06
3.48593e+06
3.48613e+06
3.48632e+06
3.4865e+06
3.48666e+06
3.48681e+06
3.48693e+06
3.48704e+06
3.48712e+06
3.48719e+06
3.48722e+06
3.48723e+06
3.48722e+06
3.48718e+06
3.48712e+06
3.48704e+06
3.48694e+06
3.48679e+06
3.46461e+06
3.46914e+06
3.47245e+06
3.47491e+06
3.47674e+06
3.4781e+06
3.47913e+06
3.47992e+06
3.48053e+06
3.48103e+06
3.48144e+06
3.4818e+06
3.48211e+06
3.4824e+06
3.48268e+06
3.48294e+06
3.4832e+06
3.48346e+06
3.48371e+06
3.48397e+06
3.48422e+06
3.48447e+06
3.48472e+06
3.48497e+06
3.48521e+06
3.48545e+06
3.48568e+06
3.4859e+06
3.48611e+06
3.4863e+06
3.48649e+06
3.48665e+06
3.4868e+06
3.48693e+06
3.48704e+06
3.48713e+06
3.48719e+06
3.48723e+06
3.48724e+06
3.48723e+06
3.48719e+06
3.48713e+06
3.48705e+06
3.48695e+06
3.48681e+06
3.46096e+06
3.46592e+06
3.46963e+06
3.47249e+06
3.47467e+06
3.47636e+06
3.47766e+06
3.47869e+06
3.4795e+06
3.48017e+06
3.48072e+06
3.4812e+06
3.48161e+06
3.48198e+06
3.48233e+06
3.48265e+06
3.48296e+06
3.48325e+06
3.48354e+06
3.48382e+06
3.4841e+06
3.48437e+06
3.48464e+06
3.4849e+06
3.48515e+06
3.4854e+06
3.48564e+06
3.48587e+06
3.48608e+06
3.48629e+06
3.48647e+06
3.48665e+06
3.4868e+06
3.48693e+06
3.48704e+06
3.48713e+06
3.48719e+06
3.48723e+06
3.48725e+06
3.48723e+06
3.4872e+06
3.48714e+06
3.48706e+06
3.48697e+06
3.48684e+06
3.45788e+06
3.46315e+06
3.46717e+06
3.47034e+06
3.47281e+06
3.47476e+06
3.4763e+06
3.47753e+06
3.47853e+06
3.47935e+06
3.48003e+06
3.48061e+06
3.48112e+06
3.48157e+06
3.48198e+06
3.48236e+06
3.48271e+06
3.48305e+06
3.48337e+06
3.48368e+06
3.48398e+06
3.48427e+06
3.48455e+06
3.48483e+06
3.4851e+06
3.48535e+06
3.4856e+06
3.48584e+06
3.48606e+06
3.48627e+06
3.48647e+06
3.48664e+06
3.4868e+06
3.48693e+06
3.48705e+06
3.48714e+06
3.4872e+06
3.48724e+06
3.48726e+06
3.48724e+06
3.48721e+06
3.48715e+06
3.48707e+06
3.48699e+06
3.48686e+06
3.45525e+06
3.46076e+06
3.46503e+06
3.46845e+06
3.47116e+06
3.47332e+06
3.47506e+06
3.47647e+06
3.47762e+06
3.47857e+06
3.47937e+06
3.48006e+06
3.48065e+06
3.48117e+06
3.48164e+06
3.48207e+06
3.48247e+06
3.48284e+06
3.4832e+06
3.48353e+06
3.48386e+06
3.48417e+06
3.48447e+06
3.48476e+06
3.48504e+06
3.48531e+06
3.48557e+06
3.48581e+06
3.48604e+06
3.48626e+06
3.48646e+06
3.48664e+06
3.4868e+06
3.48694e+06
3.48706e+06
3.48715e+06
3.48721e+06
3.48725e+06
3.48727e+06
3.48726e+06
3.48722e+06
3.48717e+06
3.48709e+06
3.487e+06
3.48689e+06
3.45302e+06
3.45871e+06
3.46317e+06
3.46679e+06
3.46968e+06
3.47203e+06
3.47393e+06
3.47549e+06
3.47677e+06
3.47784e+06
3.47875e+06
3.47952e+06
3.4802e+06
3.48079e+06
3.48132e+06
3.48179e+06
3.48223e+06
3.48264e+06
3.48303e+06
3.48339e+06
3.48374e+06
3.48407e+06
3.48439e+06
3.48469e+06
3.48499e+06
3.48527e+06
3.48553e+06
3.48579e+06
3.48603e+06
3.48625e+06
3.48646e+06
3.48664e+06
3.48681e+06
3.48695e+06
3.48707e+06
3.48716e+06
3.48723e+06
3.48727e+06
3.48728e+06
3.48727e+06
3.48724e+06
3.48718e+06
3.4871e+06
3.48702e+06
3.48692e+06
3.45113e+06
3.45695e+06
3.46157e+06
3.46534e+06
3.46838e+06
3.47087e+06
3.4729e+06
3.47459e+06
3.47599e+06
3.47717e+06
3.47816e+06
3.47902e+06
3.47976e+06
3.48042e+06
3.481e+06
3.48152e+06
3.482e+06
3.48245e+06
3.48286e+06
3.48325e+06
3.48362e+06
3.48397e+06
3.48431e+06
3.48463e+06
3.48493e+06
3.48523e+06
3.48551e+06
3.48577e+06
3.48602e+06
3.48625e+06
3.48646e+06
3.48665e+06
3.48682e+06
3.48696e+06
3.48708e+06
3.48718e+06
3.48725e+06
3.48729e+06
3.4873e+06
3.48729e+06
3.48725e+06
3.4872e+06
3.48712e+06
3.48704e+06
3.48694e+06
3.44065e+06
3.44323e+06
3.44956e+06
3.45547e+06
3.4602e+06
3.46407e+06
3.46723e+06
3.46983e+06
3.47198e+06
3.47377e+06
3.47527e+06
3.47653e+06
3.47761e+06
3.47854e+06
3.47935e+06
3.48006e+06
3.48069e+06
3.48126e+06
3.48178e+06
3.48226e+06
3.4827e+06
3.48312e+06
3.48351e+06
3.48388e+06
3.48423e+06
3.48457e+06
3.48489e+06
3.48519e+06
3.48548e+06
3.48575e+06
3.48601e+06
3.48624e+06
3.48646e+06
3.48666e+06
3.48683e+06
3.48698e+06
3.4871e+06
3.4872e+06
3.48727e+06
3.48731e+06
3.48732e+06
3.48731e+06
3.48727e+06
3.48721e+06
3.48714e+06
3.48706e+06
3.48697e+06
3.43844e+06
3.44173e+06
3.44827e+06
3.45422e+06
3.45904e+06
3.46298e+06
3.46622e+06
3.46891e+06
3.47114e+06
3.47302e+06
3.4746e+06
3.47595e+06
3.4771e+06
3.47809e+06
3.47896e+06
3.47972e+06
3.4804e+06
3.48101e+06
3.48156e+06
3.48207e+06
3.48254e+06
3.48298e+06
3.4834e+06
3.48379e+06
3.48415e+06
3.48451e+06
3.48484e+06
3.48515e+06
3.48545e+06
3.48574e+06
3.486e+06
3.48624e+06
3.48647e+06
3.48667e+06
3.48685e+06
3.487e+06
3.48712e+06
3.48722e+06
3.48729e+06
3.48733e+06
3.48735e+06
3.48733e+06
3.48729e+06
3.48723e+06
3.48716e+06
3.48708e+06
3.487e+06
3.43655e+06
3.44054e+06
3.44724e+06
3.45319e+06
3.45805e+06
3.46203e+06
3.46533e+06
3.46808e+06
3.47039e+06
3.47234e+06
3.47399e+06
3.4754e+06
3.47661e+06
3.47767e+06
3.47859e+06
3.4794e+06
3.48012e+06
3.48077e+06
3.48136e+06
3.48189e+06
3.48239e+06
3.48285e+06
3.48329e+06
3.4837e+06
3.48408e+06
3.48445e+06
3.48479e+06
3.48512e+06
3.48543e+06
3.48572e+06
3.486e+06
3.48625e+06
3.48648e+06
3.48668e+06
3.48687e+06
3.48702e+06
3.48715e+06
3.48725e+06
3.48732e+06
3.48736e+06
3.48737e+06
3.48735e+06
3.48731e+06
3.48725e+06
3.48717e+06
3.4871e+06
3.48702e+06
3.43499e+06
3.43964e+06
3.44643e+06
3.45235e+06
3.45721e+06
3.46121e+06
3.46455e+06
3.46734e+06
3.46971e+06
3.47171e+06
3.47342e+06
3.47489e+06
3.47616e+06
3.47727e+06
3.47823e+06
3.47909e+06
3.47985e+06
3.48053e+06
3.48115e+06
3.48172e+06
3.48224e+06
3.48273e+06
3.48318e+06
3.48361e+06
3.48401e+06
3.48439e+06
3.48475e+06
3.48509e+06
3.48541e+06
3.48572e+06
3.486e+06
3.48625e+06
3.48649e+06
3.4867e+06
3.48689e+06
3.48705e+06
3.48718e+06
3.48728e+06
3.48735e+06
3.48739e+06
3.4874e+06
3.48738e+06
3.48734e+06
3.48727e+06
3.48719e+06
3.48712e+06
3.48705e+06
3.43366e+06
3.43892e+06
3.44575e+06
3.45161e+06
3.45646e+06
3.46047e+06
3.46383e+06
3.46667e+06
3.46907e+06
3.47113e+06
3.47289e+06
3.47442e+06
3.47574e+06
3.47689e+06
3.4779e+06
3.4788e+06
3.47959e+06
3.48031e+06
3.48096e+06
3.48156e+06
3.4821e+06
3.48261e+06
3.48308e+06
3.48353e+06
3.48395e+06
3.48434e+06
3.48472e+06
3.48507e+06
3.4854e+06
3.48571e+06
3.486e+06
3.48627e+06
3.48651e+06
3.48673e+06
3.48692e+06
3.48708e+06
3.48721e+06
3.48732e+06
3.48739e+06
3.48743e+06
3.48743e+06
3.48741e+06
3.48736e+06
3.48729e+06
3.48721e+06
3.48714e+06
3.48707e+06
3.4326e+06
3.43836e+06
3.44519e+06
3.45097e+06
3.45579e+06
3.45979e+06
3.46317e+06
3.46604e+06
3.46849e+06
3.47059e+06
3.4724e+06
3.47397e+06
3.47534e+06
3.47653e+06
3.47759e+06
3.47852e+06
3.47935e+06
3.4801e+06
3.48078e+06
3.4814e+06
3.48197e+06
3.4825e+06
3.48299e+06
3.48345e+06
3.48389e+06
3.4843e+06
3.48468e+06
3.48505e+06
3.48539e+06
3.48571e+06
3.48601e+06
3.48628e+06
3.48653e+06
3.48675e+06
3.48695e+06
3.48711e+06
3.48725e+06
3.48735e+06
3.48742e+06
3.48746e+06
3.48747e+06
3.48744e+06
3.48739e+06
3.48732e+06
3.48723e+06
3.48716e+06
3.48709e+06
3.43153e+06
3.43769e+06
3.44457e+06
3.45029e+06
3.45511e+06
3.45912e+06
3.46253e+06
3.46543e+06
3.46793e+06
3.47008e+06
3.47194e+06
3.47355e+06
3.47496e+06
3.4762e+06
3.47729e+06
3.47826e+06
3.47912e+06
3.4799e+06
3.4806e+06
3.48125e+06
3.48184e+06
3.48239e+06
3.4829e+06
3.48338e+06
3.48383e+06
3.48425e+06
3.48465e+06
3.48503e+06
3.48538e+06
3.48571e+06
3.48602e+06
3.4863e+06
3.48656e+06
3.48678e+06
3.48698e+06
3.48715e+06
3.48729e+06
3.4874e+06
3.48747e+06
3.4875e+06
3.48751e+06
3.48748e+06
3.48742e+06
3.48734e+06
3.48725e+06
3.48717e+06
3.48711e+06
3.4307e+06
3.43706e+06
3.44395e+06
3.44963e+06
3.45444e+06
3.45847e+06
3.46191e+06
3.46486e+06
3.4674e+06
3.4696e+06
3.47151e+06
3.47317e+06
3.47462e+06
3.4759e+06
3.47702e+06
3.47802e+06
3.47891e+06
3.47971e+06
3.48044e+06
3.48111e+06
3.48172e+06
3.48229e+06
3.48281e+06
3.48331e+06
3.48377e+06
3.48421e+06
3.48463e+06
3.48501e+06
3.48538e+06
3.48572e+06
3.48603e+06
3.48632e+06
3.48659e+06
3.48682e+06
3.48702e+06
3.4872e+06
3.48734e+06
3.48744e+06
3.48751e+06
3.48755e+06
3.48755e+06
3.48751e+06
3.48745e+06
3.48737e+06
3.48727e+06
3.48718e+06
3.48712e+06
3.4297e+06
3.43625e+06
3.44323e+06
3.4489e+06
3.45373e+06
3.4578e+06
3.46131e+06
3.46431e+06
3.46691e+06
3.46917e+06
3.47112e+06
3.47282e+06
3.47431e+06
3.47562e+06
3.47677e+06
3.4778e+06
3.47872e+06
3.47954e+06
3.48029e+06
3.48097e+06
3.4816e+06
3.48219e+06
3.48273e+06
3.48325e+06
3.48373e+06
3.48418e+06
3.4846e+06
3.485e+06
3.48538e+06
3.48573e+06
3.48605e+06
3.48635e+06
3.48662e+06
3.48686e+06
3.48707e+06
3.48725e+06
3.48739e+06
3.48749e+06
3.48756e+06
3.4876e+06
3.48759e+06
3.48755e+06
3.48748e+06
3.48739e+06
3.48729e+06
3.48719e+06
3.48713e+06
3.42954e+06
3.43602e+06
3.44274e+06
3.44832e+06
3.45315e+06
3.45726e+06
3.46081e+06
3.46387e+06
3.46652e+06
3.46882e+06
3.47081e+06
3.47254e+06
3.47406e+06
3.47539e+06
3.47656e+06
3.47761e+06
3.47854e+06
3.47938e+06
3.48015e+06
3.48085e+06
3.4815e+06
3.4821e+06
3.48266e+06
3.48319e+06
3.48368e+06
3.48415e+06
3.48458e+06
3.485e+06
3.48538e+06
3.48574e+06
3.48608e+06
3.48639e+06
3.48666e+06
3.48691e+06
3.48712e+06
3.4873e+06
3.48745e+06
3.48755e+06
3.48762e+06
3.48765e+06
3.48764e+06
3.4876e+06
3.48752e+06
3.48742e+06
3.4873e+06
3.4872e+06
3.48713e+06
3.43121e+06
3.43686e+06
3.44273e+06
3.44793e+06
3.45268e+06
3.45681e+06
3.46041e+06
3.46352e+06
3.46621e+06
3.46854e+06
3.47056e+06
3.47232e+06
3.47385e+06
3.4752e+06
3.47638e+06
3.47744e+06
3.47839e+06
3.47925e+06
3.48003e+06
3.48074e+06
3.4814e+06
3.48202e+06
3.48259e+06
3.48313e+06
3.48364e+06
3.48412e+06
3.48457e+06
3.485e+06
3.48539e+06
3.48576e+06
3.48611e+06
3.48642e+06
3.4867e+06
3.48696e+06
3.48717e+06
3.48736e+06
3.4875e+06
3.48761e+06
3.48768e+06
3.48771e+06
3.48769e+06
3.48764e+06
3.48756e+06
3.48744e+06
3.48732e+06
3.4872e+06
3.48712e+06
3.4877e+06
3.48771e+06
3.48769e+06
3.48765e+06
3.48758e+06
3.48748e+06
3.48734e+06
3.48718e+06
3.48693e+06
3.48749e+06
3.48756e+06
3.48761e+06
3.48765e+06
3.48766e+06
3.48764e+06
3.4876e+06
3.48754e+06
3.48744e+06
3.4873e+06
3.48714e+06
3.48689e+06
3.51986e+06
3.51286e+06
3.50749e+06
3.50297e+06
3.49936e+06
3.4964e+06
3.49403e+06
3.49211e+06
3.49057e+06
3.48934e+06
3.48838e+06
3.48762e+06
3.48704e+06
3.48661e+06
3.48629e+06
3.48606e+06
3.48592e+06
3.48584e+06
3.48582e+06
3.48584e+06
3.48589e+06
3.48597e+06
3.48607e+06
3.48619e+06
3.48632e+06
3.48646e+06
3.4866e+06
3.48674e+06
3.48687e+06
3.48701e+06
3.48713e+06
3.48724e+06
3.48735e+06
3.48744e+06
3.48751e+06
3.48756e+06
3.4876e+06
3.48761e+06
3.4876e+06
3.48756e+06
3.48749e+06
3.4874e+06
3.48726e+06
3.4871e+06
3.48686e+06
3.52519e+06
3.51701e+06
3.51051e+06
3.50526e+06
3.50106e+06
3.49768e+06
3.49498e+06
3.49281e+06
3.49109e+06
3.48973e+06
3.48866e+06
3.48782e+06
3.48718e+06
3.4867e+06
3.48634e+06
3.48609e+06
3.48593e+06
3.48584e+06
3.4858e+06
3.48581e+06
3.48586e+06
3.48593e+06
3.48603e+06
3.48614e+06
3.48627e+06
3.4864e+06
3.48654e+06
3.48668e+06
3.48682e+06
3.48695e+06
3.48708e+06
3.48719e+06
3.4873e+06
3.48739e+06
3.48746e+06
3.48752e+06
3.48755e+06
3.48757e+06
3.48755e+06
3.48752e+06
3.48745e+06
3.48736e+06
3.48722e+06
3.48707e+06
3.48683e+06
3.53026e+06
3.52097e+06
3.51332e+06
3.50737e+06
3.5026e+06
3.49882e+06
3.49581e+06
3.49342e+06
3.49153e+06
3.49005e+06
3.48888e+06
3.48797e+06
3.48728e+06
3.48676e+06
3.48637e+06
3.4861e+06
3.48592e+06
3.48581e+06
3.48577e+06
3.48577e+06
3.48581e+06
3.48588e+06
3.48598e+06
3.48609e+06
3.48622e+06
3.48635e+06
3.48649e+06
3.48663e+06
3.48677e+06
3.4869e+06
3.48703e+06
3.48715e+06
3.48725e+06
3.48734e+06
3.48742e+06
3.48747e+06
3.48751e+06
3.48752e+06
3.48751e+06
3.48748e+06
3.48741e+06
3.48732e+06
3.48719e+06
3.48704e+06
3.4868e+06
3.53483e+06
3.52446e+06
3.51579e+06
3.50918e+06
3.5039e+06
3.49976e+06
3.49649e+06
3.4939e+06
3.49187e+06
3.49028e+06
3.48904e+06
3.48807e+06
3.48734e+06
3.48678e+06
3.48638e+06
3.48609e+06
3.4859e+06
3.48578e+06
3.48573e+06
3.48573e+06
3.48576e+06
3.48583e+06
3.48593e+06
3.48604e+06
3.48617e+06
3.4863e+06
3.48644e+06
3.48658e+06
3.48672e+06
3.48685e+06
3.48698e+06
3.4871e+06
3.48721e+06
3.4873e+06
3.48737e+06
3.48743e+06
3.48747e+06
3.48748e+06
3.48748e+06
3.48744e+06
3.48738e+06
3.48729e+06
3.48716e+06
3.48701e+06
3.48678e+06
3.53887e+06
3.52729e+06
3.51781e+06
3.51061e+06
3.5049e+06
3.50046e+06
3.49697e+06
3.49423e+06
3.49209e+06
3.49042e+06
3.48912e+06
3.48812e+06
3.48735e+06
3.48678e+06
3.48635e+06
3.48605e+06
3.48585e+06
3.48573e+06
3.48568e+06
3.48567e+06
3.48571e+06
3.48578e+06
3.48587e+06
3.48599e+06
3.48611e+06
3.48625e+06
3.48639e+06
3.48653e+06
3.48667e+06
3.48681e+06
3.48694e+06
3.48706e+06
3.48716e+06
3.48726e+06
3.48733e+06
3.48739e+06
3.48743e+06
3.48745e+06
3.48744e+06
3.48741e+06
3.48735e+06
3.48726e+06
3.48713e+06
3.48698e+06
3.48675e+06
3.5423e+06
3.52929e+06
3.51926e+06
3.51155e+06
3.50554e+06
3.50087e+06
3.49723e+06
3.49439e+06
3.49217e+06
3.49045e+06
3.48912e+06
3.48809e+06
3.48731e+06
3.48673e+06
3.4863e+06
3.48599e+06
3.48579e+06
3.48567e+06
3.48562e+06
3.48561e+06
3.48565e+06
3.48572e+06
3.48582e+06
3.48593e+06
3.48606e+06
3.4862e+06
3.48634e+06
3.48648e+06
3.48662e+06
3.48676e+06
3.48689e+06
3.48701e+06
3.48712e+06
3.48722e+06
3.4873e+06
3.48736e+06
3.4874e+06
3.48742e+06
3.48741e+06
3.48738e+06
3.48732e+06
3.48723e+06
3.48711e+06
3.48696e+06
3.48674e+06
3.54451e+06
3.5303e+06
3.51999e+06
3.51191e+06
3.50574e+06
3.50094e+06
3.49723e+06
3.49434e+06
3.4921e+06
3.49037e+06
3.48903e+06
3.488e+06
3.48722e+06
3.48664e+06
3.48621e+06
3.48591e+06
3.48571e+06
3.48559e+06
3.48554e+06
3.48554e+06
3.48558e+06
3.48566e+06
3.48575e+06
3.48587e+06
3.486e+06
3.48614e+06
3.48629e+06
3.48643e+06
3.48658e+06
3.48672e+06
3.48685e+06
3.48697e+06
3.48708e+06
3.48718e+06
3.48726e+06
3.48732e+06
3.48736e+06
3.48738e+06
3.48738e+06
3.48735e+06
3.48729e+06
3.48721e+06
3.48709e+06
3.48694e+06
3.48672e+06
3.54497e+06
3.53026e+06
3.51983e+06
3.51163e+06
3.50544e+06
3.50065e+06
3.49695e+06
3.49409e+06
3.49187e+06
3.49016e+06
3.48884e+06
3.48784e+06
3.48707e+06
3.4865e+06
3.48609e+06
3.4858e+06
3.48561e+06
3.4855e+06
3.48546e+06
3.48546e+06
3.48551e+06
3.48559e+06
3.48569e+06
3.48581e+06
3.48595e+06
3.48609e+06
3.48624e+06
3.48639e+06
3.48653e+06
3.48668e+06
3.48681e+06
3.48694e+06
3.48705e+06
3.48715e+06
3.48723e+06
3.48729e+06
3.48733e+06
3.48736e+06
3.48735e+06
3.48733e+06
3.48727e+06
3.48719e+06
3.48707e+06
3.48693e+06
3.48671e+06
3.54341e+06
3.52903e+06
3.51867e+06
3.51065e+06
3.50462e+06
3.49996e+06
3.49638e+06
3.49362e+06
3.49148e+06
3.48983e+06
3.48857e+06
3.4876e+06
3.48687e+06
3.48633e+06
3.48594e+06
3.48566e+06
3.48549e+06
3.48539e+06
3.48536e+06
3.48537e+06
3.48543e+06
3.48551e+06
3.48562e+06
3.48575e+06
3.48589e+06
3.48603e+06
3.48619e+06
3.48634e+06
3.48649e+06
3.48663e+06
3.48677e+06
3.4869e+06
3.48701e+06
3.48711e+06
3.4872e+06
3.48726e+06
3.48731e+06
3.48733e+06
3.48733e+06
3.4873e+06
3.48725e+06
3.48717e+06
3.48705e+06
3.48692e+06
3.4867e+06
3.53964e+06
3.52638e+06
3.51643e+06
3.50893e+06
3.50324e+06
3.49887e+06
3.49552e+06
3.49293e+06
3.49092e+06
3.48938e+06
3.48819e+06
3.48729e+06
3.48661e+06
3.48611e+06
3.48575e+06
3.4855e+06
3.48535e+06
3.48527e+06
3.48525e+06
3.48528e+06
3.48534e+06
3.48543e+06
3.48555e+06
3.48568e+06
3.48583e+06
3.48598e+06
3.48614e+06
3.48629e+06
3.48645e+06
3.48659e+06
3.48674e+06
3.48687e+06
3.48698e+06
3.48708e+06
3.48717e+06
3.48724e+06
3.48728e+06
3.48731e+06
3.48731e+06
3.48728e+06
3.48723e+06
3.48715e+06
3.48704e+06
3.48691e+06
3.4867e+06
3.53379e+06
3.52217e+06
3.51315e+06
3.50647e+06
3.50134e+06
3.49741e+06
3.49438e+06
3.49203e+06
3.49021e+06
3.48881e+06
3.48773e+06
3.48691e+06
3.4863e+06
3.48585e+06
3.48553e+06
3.48532e+06
3.48519e+06
3.48513e+06
3.48513e+06
3.48517e+06
3.48525e+06
3.48535e+06
3.48548e+06
3.48562e+06
3.48577e+06
3.48593e+06
3.48609e+06
3.48625e+06
3.48641e+06
3.48656e+06
3.4867e+06
3.48683e+06
3.48695e+06
3.48706e+06
3.48715e+06
3.48721e+06
3.48726e+06
3.48729e+06
3.48729e+06
3.48727e+06
3.48722e+06
3.48714e+06
3.48703e+06
3.4869e+06
3.4867e+06
3.52611e+06
3.51651e+06
3.50897e+06
3.50335e+06
3.49898e+06
3.49562e+06
3.49299e+06
3.49095e+06
3.48937e+06
3.48814e+06
3.48719e+06
3.48648e+06
3.48594e+06
3.48556e+06
3.48529e+06
3.48511e+06
3.48502e+06
3.48498e+06
3.485e+06
3.48506e+06
3.48515e+06
3.48527e+06
3.4854e+06
3.48555e+06
3.48571e+06
3.48587e+06
3.48604e+06
3.4862e+06
3.48637e+06
3.48652e+06
3.48667e+06
3.4868e+06
3.48693e+06
3.48703e+06
3.48712e+06
3.48719e+06
3.48724e+06
3.48727e+06
3.48727e+06
3.48725e+06
3.4872e+06
3.48713e+06
3.48702e+06
3.4869e+06
3.4867e+06
3.51703e+06
3.50978e+06
3.5041e+06
3.49972e+06
3.49626e+06
3.49355e+06
3.49141e+06
3.48972e+06
3.4884e+06
3.48737e+06
3.48658e+06
3.48599e+06
3.48554e+06
3.48523e+06
3.48501e+06
3.48489e+06
3.48483e+06
3.48482e+06
3.48486e+06
3.48494e+06
3.48505e+06
3.48517e+06
3.48532e+06
3.48548e+06
3.48565e+06
3.48582e+06
3.48599e+06
3.48616e+06
3.48633e+06
3.48649e+06
3.48664e+06
3.48678e+06
3.4869e+06
3.48701e+06
3.4871e+06
3.48718e+06
3.48723e+06
3.48726e+06
3.48726e+06
3.48724e+06
3.48719e+06
3.48712e+06
3.48702e+06
3.4869e+06
3.48671e+06
3.50725e+06
3.50254e+06
3.49884e+06
3.49578e+06
3.49331e+06
3.49129e+06
3.48967e+06
3.48837e+06
3.48734e+06
3.48654e+06
3.48592e+06
3.48545e+06
3.48511e+06
3.48487e+06
3.48472e+06
3.48464e+06
3.48462e+06
3.48465e+06
3.48471e+06
3.48481e+06
3.48494e+06
3.48508e+06
3.48524e+06
3.48541e+06
3.48558e+06
3.48576e+06
3.48594e+06
3.48612e+06
3.48629e+06
3.48645e+06
3.48661e+06
3.48675e+06
3.48688e+06
3.48699e+06
3.48709e+06
3.48716e+06
3.48721e+06
3.48724e+06
3.48725e+06
3.48723e+06
3.48719e+06
3.48712e+06
3.48701e+06
3.4869e+06
3.48671e+06
3.49754e+06
3.49534e+06
3.49351e+06
3.49175e+06
3.49025e+06
3.48894e+06
3.48785e+06
3.48695e+06
3.48622e+06
3.48565e+06
3.4852e+06
3.48487e+06
3.48464e+06
3.48449e+06
3.4844e+06
3.48438e+06
3.4844e+06
3.48446e+06
3.48456e+06
3.48468e+06
3.48482e+06
3.48498e+06
3.48516e+06
3.48534e+06
3.48552e+06
3.48571e+06
3.48589e+06
3.48608e+06
3.48625e+06
3.48642e+06
3.48658e+06
3.48673e+06
3.48686e+06
3.48697e+06
3.48707e+06
3.48715e+06
3.4872e+06
3.48723e+06
3.48724e+06
3.48722e+06
3.48718e+06
3.48711e+06
3.48701e+06
3.4869e+06
3.48672e+06
3.48858e+06
3.48859e+06
3.48838e+06
3.48782e+06
3.48721e+06
3.48658e+06
3.486e+06
3.48549e+06
3.48507e+06
3.48472e+06
3.48446e+06
3.48427e+06
3.48415e+06
3.48409e+06
3.48407e+06
3.4841e+06
3.48417e+06
3.48427e+06
3.4844e+06
3.48454e+06
3.48471e+06
3.48488e+06
3.48507e+06
3.48526e+06
3.48546e+06
3.48565e+06
3.48585e+06
3.48604e+06
3.48622e+06
3.4864e+06
3.48656e+06
3.48671e+06
3.48684e+06
3.48696e+06
3.48706e+06
3.48714e+06
3.48719e+06
3.48723e+06
3.48723e+06
3.48722e+06
3.48718e+06
3.48711e+06
3.48702e+06
3.48691e+06
3.48674e+06
3.48081e+06
3.48257e+06
3.48365e+06
3.48411e+06
3.48429e+06
3.48427e+06
3.48417e+06
3.48404e+06
3.4839e+06
3.48379e+06
3.4837e+06
3.48366e+06
3.48365e+06
3.48367e+06
3.48373e+06
3.48382e+06
3.48394e+06
3.48407e+06
3.48423e+06
3.4844e+06
3.48459e+06
3.48478e+06
3.48498e+06
3.48519e+06
3.4854e+06
3.4856e+06
3.4858e+06
3.486e+06
3.48619e+06
3.48637e+06
3.48654e+06
3.48669e+06
3.48683e+06
3.48695e+06
3.48705e+06
3.48713e+06
3.48719e+06
3.48722e+06
3.48723e+06
3.48722e+06
3.48718e+06
3.48711e+06
3.48702e+06
3.48692e+06
3.48675e+06
3.47432e+06
3.47736e+06