/*--------------------------------*- C++ -*----------------------------------*\
| =========                 |                                                 |
| \\      /  F ield         | OpenFOAM: The Open Source CFD Toolbox           |
|  \\    /   O peration     | Version:  v2012                                 |
|   \\  /    A nd           | Website:  www.openfoam.com                      |
|    \\/     M anipulation  |                                                 |
\*---------------------------------------------------------------------------*/
FoamFile
{
    version     2.0;
    format      ascii;
    class       surfaceScalarField;
    location    "0.65";
    object      phi;
}
// * * * * * * * * * * * * * * * * * * * * * * * * * * * * * * * * * * * * * //

dimensions      [0 3 -1 0 0 0 0];
oriented        oriented;


internalField   nonuniform List<scalar> 
39020
(
5.59005e-15
-6.3466e-13
1.06534e-17
2.41613e-14
-2.04344e-12
2.56033e-17
5.73233e-14
-3.64151e-12
8.46315e-17
1.07597e-13
-5.44225e-12
2.34737e-17
1.77083e-13
-7.43417e-12
2.58763e-16
2.71142e-13
-9.63751e-12
-5.42981e-17
3.81164e-13
-1.20753e-11
8.05896e-16
5.3654e-13
-1.47193e-11
2.46393e-15
7.1575e-13
-1.76437e-11
1.61265e-15
9.24424e-13
-2.07967e-11
3.58823e-15
1.14924e-12
-2.42529e-11
-3.65517e-16
1.41897e-12
-2.7973e-11
-3.33667e-16
1.73058e-12
-3.20137e-11
1.53355e-16
2.09157e-12
-3.635e-11
4.22508e-16
2.49936e-12
-4.10291e-11
2.11479e-16
2.9609e-12
-4.60346e-11
4.72034e-16
3.47425e-12
-5.13948e-11
2.66746e-16
4.04353e-12
-5.7106e-11
3.58383e-16
4.66845e-12
-6.31838e-11
3.26729e-16
5.35007e-12
-6.96249e-11
1.82513e-16
6.08925e-12
-7.64346e-11
1.77231e-16
6.88522e-12
-8.3615e-11
1.62788e-16
7.73696e-12
-9.11504e-11
1.415e-16
8.64266e-12
-9.90431e-11
1.18876e-16
9.59985e-12
-1.07269e-10
8.80596e-17
1.06049e-11
-1.15815e-10
5.29716e-17
1.16535e-11
-1.24655e-10
2.24617e-17
1.27397e-11
-1.33745e-10
-1.49427e-17
1.38567e-11
-1.43069e-10
-3.99847e-17
1.49963e-11
-1.52557e-10
-7.46756e-17
1.61488e-11
-1.62168e-10
-9.7133e-17
1.73034e-11
-1.71842e-10
-1.24347e-16
1.8448e-11
-1.81504e-10
-1.22236e-16
1.95691e-11
-1.9108e-10
-9.30656e-17
2.0652e-11
-2.00485e-10
-4.93053e-17
2.16804e-11
-2.09634e-10
-3.40306e-17
2.26372e-11
-2.18423e-10
-2.34906e-17
2.35051e-11
-2.26757e-10
-1.55834e-17
2.42655e-11
-2.34527e-10
-1.24472e-17
2.49003e-11
-2.41572e-10
-1.25161e-17
2.53911e-11
-2.47916e-10
-1.10835e-17
2.57205e-11
-2.53291e-10
-1.18156e-17
2.58715e-11
-2.57726e-10
-1.12129e-17
2.5829e-11
-2.61006e-10
-1.20043e-17
2.55797e-11
-2.63023e-10
-1.12144e-17
2.51118e-11
-2.63847e-10
-1.22305e-17
2.44179e-11
-2.63148e-10
-1.20499e-17
2.34921e-11
-2.61e-10
-3.62131e-18
2.23333e-11
-2.57215e-10
-1.62139e-18
2.09444e-11
-2.51733e-10
-1.18064e-19
1.9332e-11
-2.44507e-10
1.87869e-18
1.75093e-11
-2.35288e-10
3.354e-18
1.54948e-11
-2.2397e-10
4.55835e-18
1.33138e-11
-2.10323e-10
5.37709e-18
1.10006e-11
-1.93939e-10
5.62821e-18
8.60085e-12
-1.74252e-10
5.94467e-18
6.17301e-12
-1.50414e-10
5.71383e-18
3.80486e-12
-1.20982e-10
5.86471e-18
1.60243e-12
-8.3786e-11
5.48777e-18
-3.43193e-11
4.60631e-18
7.35469e-15
-6.41976e-13
-2.315e-17
3.01639e-14
-2.06643e-12
-2.19426e-17
7.10999e-14
-3.68221e-12
-3.84074e-18
1.29795e-13
-5.50087e-12
4.86763e-17
2.09516e-13
-7.51338e-12
1.10178e-16
3.1757e-13
-9.74089e-12
1.61835e-16
4.41721e-13
-1.22044e-11
-6.91588e-16
6.03589e-13
-1.4884e-11
-1.86521e-17
7.90108e-13
-1.78339e-11
-3.28774e-16
1.02512e-12
-2.1022e-11
1.00728e-15
1.26668e-12
-2.45174e-11
-2.84795e-15
1.56029e-12
-2.82781e-11
-1.01097e-15
1.8866e-12
-3.23481e-11
-1.40544e-15
2.2608e-12
-3.67267e-11
-1.67472e-16
2.67654e-12
-4.14482e-11
-3.85673e-16
3.14545e-12
-4.65016e-11
1.65704e-16
3.66096e-12
-5.19109e-11
1.89016e-17
4.23219e-12
-5.76749e-11
2.12039e-16
4.85614e-12
-6.38073e-11
1.22449e-16
5.53636e-12
-7.03034e-11
1.47314e-16
6.2732e-12
-7.71693e-11
2.57175e-16
7.06705e-12
-8.44064e-11
2.66991e-16
7.91664e-12
-9.19977e-11
2.5521e-16
8.82049e-12
-9.9945e-11
2.05901e-16
9.77599e-12
-1.08223e-10
1.59763e-16
1.07796e-11
-1.16817e-10
9.49371e-17
1.18266e-11
-1.25702e-10
3.71293e-17
1.29114e-11
-1.3483e-10
-2.55212e-17
1.40269e-11
-1.44185e-10
-7.66641e-17
1.51648e-11
-1.53696e-10
-1.34167e-16
1.63153e-11
-1.6332e-10
-1.82742e-16
1.74675e-11
-1.72996e-10
-2.28277e-16
1.86092e-11
-1.82647e-10
-2.24997e-16
1.97271e-11
-1.92199e-10
-1.53778e-16
2.08063e-11
-2.01565e-10
-6.01766e-17
2.18304e-11
-2.10659e-10
-3.29453e-17
2.27822e-11
-2.19375e-10
-1.89166e-17
2.36444e-11
-2.27619e-10
-7.58679e-18
2.43983e-11
-2.35281e-10
-4.44459e-18
2.5026e-11
-2.42199e-10
-5.96456e-18
2.55089e-11
-2.48399e-10
-4.4206e-18
2.58297e-11
-2.53612e-10
-7.00901e-18
2.59716e-11
-2.57868e-10
-6.82086e-18
2.59196e-11
-2.60953e-10
-9.4866e-18
2.56604e-11
-2.62763e-10
-8.74202e-18
2.51824e-11
-2.63369e-10
-1.26443e-17
2.44781e-11
-2.62443e-10
-1.32817e-17
2.3542e-11
-2.60064e-10
-4.63627e-18
2.23729e-11
-2.56046e-10
-5.13047e-18
2.09737e-11
-2.50334e-10
-6.86734e-18
1.93513e-11
-2.42885e-10
-6.24872e-18
1.75188e-11
-2.33455e-10
-5.542e-18
1.54946e-11
-2.21945e-10
-4.87578e-18
1.33042e-11
-2.08132e-10
-4.03064e-18
1.09816e-11
-1.91617e-10
-3.68368e-18
8.57211e-12
-1.71842e-10
-2.6647e-18
6.13402e-12
-1.47976e-10
-2.48882e-18
3.75444e-12
-1.18603e-10
-1.60999e-18
1.54144e-12
-8.15732e-11
-1.704e-18
-3.27781e-11
-2.49357e-18
7.35879e-15
-6.49187e-13
-7.41686e-17
2.92859e-14
-2.08824e-12
-6.83546e-17
7.05563e-14
-3.72352e-12
-4.05372e-18
1.26768e-13
-5.5587e-12
2.90731e-17
2.07661e-13
-7.59351e-12
5.11177e-17
3.13302e-13
-9.84767e-12
-2.88727e-16
4.36096e-13
-1.23272e-11
1.00442e-16
5.9108e-13
-1.50416e-11
-3.96122e-16
7.68805e-13
-1.80148e-11
-1.05598e-16
9.94308e-13
-2.12412e-11
5.37249e-16
1.24853e-12
-2.47631e-11
1.17424e-15
1.56996e-12
-2.85654e-11
3.71961e-15
1.88934e-12
-3.26835e-11
-1.58525e-15
2.27156e-12
-3.71106e-11
-3.81906e-16
2.69903e-12
-4.18789e-11
-3.93743e-16
3.18388e-12
-4.69823e-11
5.11568e-16
3.71477e-12
-5.24426e-11
-1.37949e-16
4.30257e-12
-5.82597e-11
3.67929e-16
4.94333e-12
-6.44464e-11
1.32065e-16
5.63912e-12
-7.09994e-11
5.52265e-18
6.39147e-12
-7.79216e-11
-1.86063e-17
7.20015e-12
-8.52145e-11
5.57282e-17
8.06393e-12
-9.28609e-11
5.01384e-17
8.98139e-12
-1.00862e-10
5.2335e-17
9.94993e-12
-1.09191e-10
3.32625e-17
1.0966e-11
-1.17833e-10
2.12074e-18
1.20249e-11
-1.26761e-10
-3.39931e-17
1.31207e-11
-1.35926e-10
-7.86136e-17
1.42464e-11
-1.45312e-10
-1.15949e-16
1.53935e-11
-1.54844e-10
-1.66142e-16
1.6552e-11
-1.6448e-10
-2.12334e-16
1.77108e-11
-1.74157e-10
-2.63832e-16
1.88576e-11
-1.83796e-10
-2.61039e-16
1.99789e-11
-1.93322e-10
-1.74743e-16
2.106e-11
-2.02646e-10
-5.31139e-17
2.20841e-11
-2.11683e-10
-1.94259e-17
2.30339e-11
-2.20325e-10
-2.00411e-18
2.38919e-11
-2.28477e-10
6.48462e-18
2.46396e-11
-2.36028e-10
8.18599e-18
2.52588e-11
-2.42818e-10
3.52455e-18
2.57312e-11
-2.48871e-10
5.07769e-18
2.60397e-11
-2.5392e-10
-3.26451e-19
2.61674e-11
-2.57995e-10
-8.67965e-19
2.60996e-11
-2.60886e-10
-6.14094e-18
2.58233e-11
-2.62487e-10
-5.70897e-18
2.5327e-11
-2.62873e-10
-1.33898e-17
2.46036e-11
-2.6172e-10
-1.88025e-17
2.36477e-11
-2.59108e-10
-7.33198e-18
2.24585e-11
-2.54857e-10
-1.08141e-17
2.10391e-11
-2.48915e-10
-1.45786e-17
1.93965e-11
-2.41242e-10
-1.39622e-17
1.75441e-11
-2.31603e-10
-1.31277e-17
1.55002e-11
-2.19902e-10
-1.27078e-17
1.32902e-11
-2.05922e-10
-1.18537e-17
1.09482e-11
-1.89275e-10
-1.19871e-17
8.51943e-12
-1.69414e-10
-1.08614e-17
6.06213e-12
-1.45519e-10
-1.12208e-17
3.66562e-12
-1.16207e-10
-1.02388e-17
1.45852e-12
-7.93665e-11
-1.05157e-17
-3.132e-11
-1.06009e-17
8.56707e-15
-6.5755e-13
-1.02464e-16
3.42367e-14
-2.11391e-12
4.4706e-18
8.10076e-14
-3.77023e-12
-6.38039e-17
1.43577e-13
-5.62232e-12
-8.51621e-18
2.35095e-13
-7.68444e-12
3.3298e-16
3.5123e-13
-9.96339e-12
-1.92658e-16
4.8891e-13
-1.24661e-11
-2.85183e-16
6.64351e-13
-1.52162e-11
1.8215e-16
8.63782e-13
-1.82128e-11
-7.98133e-17
1.10297e-12
-2.14807e-11
7.52474e-17
1.37092e-12
-2.50324e-11
-1.42336e-16
1.70915e-12
-2.88773e-11
3.26462e-15
2.03833e-12
-3.30334e-11
-2.59908e-15
2.42956e-12
-3.75077e-11
-7.32536e-16
2.86493e-12
-4.232e-11
-7.02784e-16
3.35832e-12
-4.74732e-11
2.48894e-16
3.89612e-12
-5.29836e-11
-3.2162e-16
4.49192e-12
-5.8854e-11
1.26815e-16
5.14044e-12
-6.50951e-11
1.38236e-17
5.84528e-12
-7.17034e-11
4.6577e-17
6.60689e-12
-7.86822e-11
8.4662e-17
7.42547e-12
-8.60324e-11
4.39214e-17
8.30007e-12
-9.37351e-11
1.7634e-17
9.22913e-12
-1.01791e-10
-1.2433e-18
1.02098e-11
-1.10172e-10
-2.0856e-17
1.12384e-11
-1.18862e-10
-4.54057e-17
1.23098e-11
-1.27832e-10
-7.86448e-17
1.3418e-11
-1.37035e-10
-1.07994e-16
1.45557e-11
-1.46451e-10
-1.35589e-16
1.5714e-11
-1.56003e-10
-1.6606e-16
1.68827e-11
-1.65651e-10
-2.01963e-16
1.80503e-11
-1.75326e-10
-2.4347e-16
1.92043e-11
-1.84952e-10
-2.48243e-16
2.03307e-11
-1.9445e-10
-1.73481e-16
2.14149e-11
-2.0373e-10
-5.50386e-17
2.24396e-11
-2.12707e-10
-7.10402e-18
2.33875e-11
-2.21272e-10
1.67365e-17
2.42407e-11
-2.29329e-10
2.33005e-17
2.49806e-11
-2.36768e-10
2.19837e-17
2.55891e-11
-2.43426e-10
1.43512e-17
2.60479e-11
-2.4933e-10
1.54265e-17
2.63399e-11
-2.54212e-10
7.3752e-18
2.64485e-11
-2.58104e-10
5.78669e-18
2.63592e-11
-2.60796e-10
-2.14824e-18
2.60593e-11
-2.62187e-10
-2.38941e-18
2.55377e-11
-2.62352e-10
-1.42197e-17
2.47874e-11
-2.60969e-10
-2.12513e-17
2.38038e-11
-2.58125e-10
-9.78099e-18
2.25861e-11
-2.5364e-10
-1.71945e-17
2.11378e-11
-2.47467e-10
-2.56273e-17
1.94664e-11
-2.39571e-10
-2.7305e-17
1.75852e-11
-2.29722e-10
-2.80067e-17
1.55131e-11
-2.1783e-10
-2.87365e-17
1.32753e-11
-2.03685e-10
-2.80836e-17
1.09062e-11
-1.86906e-10
-2.84622e-17
8.45112e-12
-1.66959e-10
-2.67015e-17
5.96985e-12
-1.43038e-10
-2.69782e-17
3.55719e-12
-1.13795e-10
-2.52825e-17
1.37238e-12
-7.71825e-11
-2.5178e-17
-2.99483e-11
-2.50822e-17
8.47644e-15
-6.65702e-13
-1.60733e-16
3.30506e-14
-2.13855e-12
2.27843e-17
7.91873e-14
-3.81619e-12
-6.51784e-17
1.39439e-13
-5.68415e-12
1.21856e-16
2.28246e-13
-7.77255e-12
3.22416e-16
3.45337e-13
-1.00781e-11
-5.11815e-16
4.80062e-13
-1.25999e-11
6.22459e-16
6.54348e-13
-1.53937e-11
-1.00458e-16
8.56503e-13
-1.84102e-11
1.37048e-16
1.0983e-12
-2.17265e-11
-5.5198e-16
1.37523e-12
-2.53121e-11
7.99517e-17
1.72911e-12
-2.92045e-11
2.8582e-15
2.07331e-12
-3.33992e-11
-2.39953e-15
2.48259e-12
-3.79232e-11
-9.34721e-16
2.9379e-12
-4.27813e-11
-7.0997e-16
3.4533e-12
-4.79861e-11
2.66074e-16
4.01361e-12
-5.35475e-11
-4.19875e-16
4.63292e-12
-5.94717e-11
1.51847e-16
5.30538e-12
-6.57674e-11
-9.79697e-18
6.03372e-12
-7.24326e-11
-1.11685e-16
6.81874e-12
-7.9468e-11
-1.20382e-16
7.66032e-12
-8.68748e-11
-1.26143e-16
8.55758e-12
-9.4633e-11
-1.10859e-16
9.5089e-12
-1.02742e-10
-9.80212e-17
1.05114e-11
-1.11175e-10
-8.35746e-17
1.15613e-11
-1.19912e-10
-9.34646e-17
1.26533e-11
-1.28925e-10
-1.06202e-16
1.37812e-11
-1.38163e-10
-1.27728e-16
1.49374e-11
-1.47608e-10
-1.39576e-16
1.61128e-11
-1.5718e-10
-1.59326e-16
1.72969e-11
-1.66836e-10
-1.79927e-16
1.84778e-11
-1.76509e-10
-2.13929e-16
1.96427e-11
-1.86119e-10
-2.2265e-16
2.07772e-11
-1.95586e-10
-1.70921e-16
2.18664e-11
-2.0482e-10
-6.44945e-17
2.2893e-11
-2.13734e-10
2.08546e-18
2.38394e-11
-2.22218e-10
3.65807e-17
2.46872e-11
-2.30177e-10
4.06681e-17
2.54179e-11
-2.37498e-10
3.62641e-17
2.60133e-11
-2.44021e-10
2.47688e-17
2.64552e-11
-2.49771e-10
2.55934e-17
2.67266e-11
-2.54483e-10
1.47175e-17
2.68113e-11
-2.58188e-10
1.22395e-17
2.66948e-11
-2.60679e-10
1.66312e-18
2.6365e-11
-2.61856e-10
7.96231e-19
2.5811e-11
-2.61798e-10
-1.47978e-17
2.50266e-11
-2.60185e-10
-2.6578e-17
2.40074e-11
-2.57105e-10
-1.18665e-17
2.27533e-11
-2.52386e-10
-2.26624e-17
2.12682e-11
-2.45982e-10
-3.36422e-17
1.95599e-11
-2.37863e-10
-3.62102e-17
1.76422e-11
-2.27805e-10
-3.77051e-17
1.55343e-11
-2.15723e-10
-3.95757e-17
1.32617e-11
-2.01413e-10
-3.96914e-17
1.08591e-11
-1.84505e-10
-4.11962e-17
8.37283e-12
-1.64474e-10
-3.98543e-17
5.86556e-12
-1.40532e-10
-4.1071e-17
3.4402e-12
-1.1137e-10
-3.95864e-17
1.28722e-12
-7.50306e-11
-3.98898e-17
-2.86621e-11
-3.8653e-17
9.16602e-15
-6.74655e-13
-1.04887e-16
3.71808e-14
-2.1665e-12
-4.64656e-17
9.19367e-14
-3.87047e-12
-2.55709e-16
1.67588e-13
-5.76084e-12
4.2148e-16
2.73616e-13
-7.87778e-12
2.59236e-16
4.12723e-13
-1.02167e-11
-5.4672e-16
5.64299e-13
-1.27519e-11
1.0489e-15
7.54919e-13
-1.55848e-11
-6.95461e-16
9.70692e-13
-1.86214e-11
7.0681e-16
1.22312e-12
-2.1984e-11
-3.11101e-16
1.50835e-12
-2.55992e-11
-3.73156e-16
1.86858e-12
-2.95386e-11
3.20287e-15
2.22142e-12
-3.37729e-11
-2.55374e-15
2.6392e-12
-3.8349e-11
-1.02038e-15
3.10539e-12
-4.32544e-11
-8.69219e-16
3.63306e-12
-4.85125e-11
1.49816e-16
4.20724e-12
-5.41265e-11
-5.76827e-16
4.84231e-12
-6.01065e-11
5.15402e-18
5.53208e-12
-6.64585e-11
-1.7572e-16
6.27992e-12
-7.3181e-11
-1.04693e-16
7.0857e-12
-8.02743e-11
-1.12977e-16
7.94935e-12
-8.77392e-11
-1.2295e-16
8.86973e-12
-9.55542e-11
-1.43561e-16
9.84498e-12
-1.03718e-10
-1.28205e-16
1.0872e-11
-1.12202e-10
-1.23009e-16
1.19463e-11
-1.20987e-10
-1.18912e-16
1.30626e-11
-1.30042e-10
-1.31989e-16
1.42141e-11
-1.39316e-10
-1.39542e-16
1.53929e-11
-1.48787e-10
-1.46916e-16
1.65894e-11
-1.58377e-10
-1.51015e-16
1.77926e-11
-1.68041e-10
-1.62396e-16
1.89904e-11
-1.77708e-10
-1.82946e-16
2.01691e-11
-1.87299e-10
-1.95086e-16
2.13143e-11
-1.96732e-10
-1.59326e-16
2.24104e-11
-2.05916e-10
-6.66341e-17
2.34401e-11
-2.14763e-10
1.82661e-17
2.43852e-11
-2.23163e-10
6.00229e-17
2.52272e-11
-2.31018e-10
5.97902e-17
2.59473e-11
-2.38218e-10
5.05197e-17
2.65275e-11
-2.446e-10
3.52447e-17
2.69494e-11
-2.50193e-10
3.53703e-17
2.71964e-11
-2.54729e-10
2.19532e-17
2.72523e-11
-2.58244e-10
1.85267e-17
2.71033e-11
-2.6053e-10
5.50876e-18
2.67375e-11
-2.6149e-10
3.96647e-18
2.61447e-11
-2.61205e-10
-1.55089e-17
2.53191e-11
-2.5936e-10
-2.82897e-17
2.42572e-11
-2.56044e-10
-1.37479e-17
2.29591e-11
-2.51088e-10
-2.81283e-17
2.14297e-11
-2.44453e-10
-4.38574e-17
1.9677e-11
-2.36111e-10
-4.92189e-17
1.77156e-11
-2.25844e-10
-5.28266e-17
1.5565e-11
-2.13573e-10
-5.64862e-17
1.32514e-11
-1.99101e-10
-5.74474e-17
1.08101e-11
-1.82064e-10
-5.97775e-17
8.28911e-12
-1.61954e-10
-5.83302e-17
5.7553e-12
-1.37999e-10
-5.98785e-17
3.32139e-12
-1.08938e-10
-5.80333e-17
1.20576e-12
-7.29164e-11
-5.82129e-17
-2.74577e-11
-5.66759e-17
9.36035e-15
-6.8381e-13
-1.01605e-16
3.71533e-14
-2.1944e-12
7.27545e-17
8.55743e-14
-3.9186e-12
-1.35575e-16
1.49473e-13
-5.82575e-12
7.25856e-17
2.44883e-13
-7.97312e-12
2.14542e-16
3.59043e-13
-1.03316e-11
-1.08757e-16
5.16114e-13
-1.29094e-11
-6.8975e-16
7.10117e-13
-1.57792e-11
-2.3274e-16
9.38226e-13
-1.88508e-11
-4.34168e-16
1.21023e-12
-2.22567e-11
4.68806e-17
1.51631e-12
-2.59089e-11
2.68714e-16
1.89937e-12
-2.98966e-11
2.38781e-15
2.28006e-12
-3.41747e-11
-2.24337e-15
2.72345e-12
-3.88e-11
-1.14158e-15
3.2172e-12
-4.37545e-11
-7.08813e-16
3.77219e-12
-4.90661e-11
8.46475e-17
4.37445e-12
-5.47335e-11
-5.08457e-16
5.03861e-12
-6.07701e-11
-6.99814e-19
5.75784e-12
-6.7179e-11
-1.48347e-16
6.53585e-12
-7.39603e-11
-1.95919e-16
7.37217e-12
-8.1112e-11
-1.91016e-16
8.26661e-12
-8.8635e-11
-2.00988e-16
9.2178e-12
-9.65066e-11
-1.73526e-16
1.02239e-11
-1.04725e-10
-1.4826e-16
1.12817e-11
-1.1326e-10
-1.09641e-16
1.23864e-11
-1.22093e-10
-1.02271e-16
1.35325e-11
-1.31189e-10
-9.92886e-17
1.47126e-11
-1.40497e-10
-1.104e-16
1.59186e-11
-1.49994e-10
-1.11479e-16
1.71405e-11
-1.596e-10
-1.17945e-16
1.83668e-11
-1.69268e-10
-1.23694e-16
1.95847e-11
-1.78927e-10
-1.43921e-16
2.07804e-11
-1.88496e-10
-1.56935e-16
2.19385e-11
-1.97891e-10
-1.34034e-16
2.30432e-11
-2.07021e-10
-4.979e-17
2.40769e-11
-2.15796e-10
4.52511e-17
2.5021e-11
-2.24106e-10
8.97105e-17
2.58567e-11
-2.31853e-10
8.02904e-17
2.65649e-11
-2.38925e-10
6.56552e-17
2.71276e-11
-2.45162e-10
4.56348e-17
2.75266e-11
-2.50592e-10
4.52339e-17
2.77454e-11
-2.54947e-10
2.90078e-17
2.77683e-11
-2.58266e-10
2.47925e-17
2.75816e-11
-2.60343e-10
9.37713e-18
2.71742e-11
-2.61083e-10
7.32593e-18
2.65363e-11
-2.60568e-10
-1.5457e-17
2.5663e-11
-2.58486e-10
-3.26657e-17
2.45513e-11
-2.54932e-10
-1.48768e-17
2.32024e-11
-2.49739e-10
-3.21216e-17
2.16215e-11
-2.42872e-10
-4.99603e-17
1.98177e-11
-2.34308e-10
-5.63119e-17
1.7806e-11
-2.23833e-10
-6.09572e-17
1.56066e-11
-2.11374e-10
-6.61213e-17
1.32464e-11
-1.96742e-10
-6.82674e-17
1.07621e-11
-1.79581e-10
-7.21532e-17
8.20396e-12
-1.59397e-10
-7.15582e-17
5.64395e-12
-1.35441e-10
-7.43999e-17
3.20544e-12
-1.06501e-10
-7.30999e-17
1.13011e-12
-7.08427e-11
-7.39252e-17
-2.63292e-11
-7.13737e-17
1.02123e-14
-6.9362e-13
-1.9918e-16
4.08869e-14
-2.22507e-12
2.31567e-17
9.76405e-14
-3.97565e-12
9.61746e-17
1.7874e-13
-5.90714e-12
1.41723e-16
2.92047e-13
-8.0853e-12
-2.66526e-16
4.27693e-13
-1.04697e-11
2.39191e-16
5.9793e-13
-1.30821e-11
2.81536e-16
8.03246e-13
-1.59815e-11
-1.33069e-15
1.0412e-12
-1.90913e-11
-1.26214e-16
1.32505e-12
-2.25368e-11
1.03494e-15
1.64347e-12
-2.62251e-11
4.34334e-16
2.03462e-12
-3.02599e-11
3.00627e-15
2.42885e-12
-3.45859e-11
-1.91507e-15
2.88458e-12
-3.9263e-11
-9.61953e-16
3.3954e-12
-4.42703e-11
-6.71074e-16
3.96834e-12
-4.96382e-11
1.33933e-16
4.59245e-12
-5.53619e-11
-5.52951e-16
5.28039e-12
-6.14577e-11
2.25862e-17
6.02623e-12
-6.7926e-11
-1.79371e-16
6.83294e-12
-7.4768e-11
-1.32884e-16
7.69981e-12
-8.198e-11
-1.8032e-16
8.62629e-12
-8.95628e-11
-1.83663e-16
9.61082e-12
-9.74925e-11
-2.0271e-16
1.06511e-11
-1.05767e-10
-1.56561e-16
1.17433e-11
-1.14354e-10
-1.33379e-16
1.28825e-11
-1.23232e-10
-9.90265e-17
1.40624e-11
-1.32369e-10
-9.71271e-17
1.52755e-11
-1.4171e-10
-8.80017e-17
1.65129e-11
-1.51232e-10
-8.74866e-17
1.7764e-11
-1.60851e-10
-8.02563e-17
1.90169e-11
-1.70521e-10
-8.3295e-17
2.02582e-11
-1.80169e-10
-9.49388e-17
2.14734e-11
-1.89711e-10
-1.09326e-16
2.26466e-11
-1.99065e-10
-9.01696e-17
2.37615e-11
-2.08136e-10
-1.43586e-17
2.48001e-11
-2.16834e-10
8.46459e-17
2.57433e-11
-2.25048e-10
1.24109e-16
2.65719e-11
-2.3268e-10
1.02634e-16
2.72669e-11
-2.3962e-10
8.11018e-17
2.781e-11
-2.45705e-10
5.65703e-17
2.81833e-11
-2.50964e-10
5.51528e-17
2.83703e-11
-2.55134e-10
3.62772e-17
2.83557e-11
-2.58251e-10
3.11248e-17
2.81264e-11
-2.60114e-10
1.34321e-17
2.76719e-11
-2.60628e-10
1.08184e-17
2.69831e-11
-2.59879e-10
-1.5334e-17
2.60558e-11
-2.57559e-10
-3.2791e-17
2.48881e-11
-2.53764e-10
-1.61413e-17
2.34817e-11
-2.48333e-10
-3.6395e-17
2.18429e-11
-2.41234e-10
-5.86111e-17
1.99815e-11
-2.32447e-10
-6.78062e-17
1.79135e-11
-2.21766e-10
-7.46354e-17
1.56598e-11
-2.09122e-10
-8.17137e-17
1.32485e-11
-1.94332e-10
-8.48498e-17
1.07178e-11
-1.77052e-10
-8.97363e-17
8.12071e-12
-1.56801e-10
-8.92509e-17
5.53528e-12
-1.32857e-10
-9.25836e-17
3.09548e-12
-1.04063e-10
-9.10845e-17
1.06143e-12
-6.88107e-11
-9.19048e-17
-2.52698e-11
-8.91983e-17
1.05245e-14
-7.03791e-13
-1.79708e-16
4.02525e-14
-2.2555e-12
3.54681e-16
9.85858e-14
-4.03267e-12
-6.67692e-16
1.73384e-13
-5.98277e-12
5.95998e-16
2.8232e-13
-8.19439e-12
-5.65639e-17
4.25217e-13
-1.06125e-11
-3.44363e-16
5.91295e-13
-1.32499e-11
5.15963e-16
8.03661e-13
-1.61948e-11
-1.09256e-15
1.04964e-12
-1.93407e-11
-4.65764e-16
1.34805e-12
-2.28322e-11
8.73367e-16
1.6875e-12
-2.65631e-11
5.05994e-16
2.10054e-12
-3.0646e-11
2.8843e-15
2.52373e-12
-3.50244e-11
-1.65542e-15
3.00653e-12
-3.97542e-11
-1.18348e-15
3.54739e-12
-4.48163e-11
-5.60897e-16
4.1506e-12
-5.0241e-11
-3.04343e-17
4.80716e-12
-5.60225e-11
-4.33773e-16
5.52812e-12
-6.21785e-11
-5.17044e-17
6.30845e-12
-6.87076e-11
-1.34753e-16
7.1515e-12
-7.56112e-11
-6.96851e-17
8.0556e-12
-8.28844e-11
-6.2283e-17
9.02014e-12
-9.05279e-11
-1.07625e-16
1.00433e-11
-9.85161e-11
-9.32226e-17
1.11227e-11
-1.06846e-10
-7.49481e-17
1.22542e-11
-1.15485e-10
-2.69741e-17
1.34326e-11
-1.2441e-10
-1.21299e-17
1.46508e-11
-1.33587e-10
1.93213e-18
1.59011e-11
-1.4296e-10
-5.2439e-18
1.71738e-11
-1.52504e-10
-1.96709e-18
1.84579e-11
-1.62135e-10
-6.03369e-18
1.97407e-11
-1.71804e-10
-8.61338e-18
2.10084e-11
-1.81437e-10
-2.77851e-17
2.22455e-11
-1.90949e-10
-4.39707e-17
2.34359e-11
-2.00255e-10
-3.21709e-17
2.45623e-11
-2.09262e-10
3.76841e-17
2.56064e-11
-2.17877e-10
1.32882e-16
2.65488e-11
-2.25988e-10
1.63321e-16
2.73696e-11
-2.335e-10
1.25833e-16
2.80498e-11
-2.40299e-10
9.74692e-17
2.85711e-11
-2.46225e-10
6.77231e-17
2.89157e-11
-2.51308e-10
6.55362e-17
2.90674e-11
-2.55285e-10
4.37168e-17
2.90112e-11
-2.58195e-10
3.77348e-17
2.87346e-11
-2.59837e-10
1.77287e-17
2.82278e-11
-2.6012e-10
1.46964e-17
2.74825e-11
-2.59134e-10
-1.418e-17
2.64953e-11
-2.56572e-10
-3.57968e-17
2.52654e-11
-2.52534e-10
-1.67983e-17
2.37955e-11
-2.46864e-10
-3.95078e-17
2.20927e-11
-2.39532e-10
-6.33038e-17
2.0168e-11
-2.30524e-10
-7.34675e-17
1.80382e-11
-2.19638e-10
-8.13517e-17
1.57255e-11
-2.0681e-10
-8.99786e-17
1.3259e-11
-1.91867e-10
-9.43345e-17
1.06791e-11
-1.74474e-10
-1.00812e-16
8.04198e-12
-1.54166e-10
-1.01235e-16
5.43207e-12
-1.30249e-10
-1.05857e-16
2.99347e-12
-1.01626e-10
-1.04902e-16
1.00009e-12
-6.68196e-11
-1.06342e-16
-2.42719e-11
-1.02722e-16
1.1158e-14
-7.14494e-13
-2.27734e-16
4.42432e-14
-2.28933e-12
3.66838e-16
1.02548e-13
-4.09257e-12
8.31308e-16
1.90605e-13
-6.06825e-12
-1.34575e-15
3.14631e-13
-8.32e-12
6.83988e-16
4.64468e-13
-1.07604e-11
-1.50123e-16
6.54349e-13
-1.34424e-11
-5.02979e-16
8.82987e-13
-1.64161e-11
1.04646e-16
1.15385e-12
-1.96066e-11
7.30674e-16
1.46269e-12
-2.3132e-11
1.39623e-15
1.81857e-12
-2.69104e-11
1.64979e-15
2.24206e-12
-3.10348e-11
3.54746e-15
2.68191e-12
-3.54754e-11
-8.94653e-16
3.1817e-12
-4.02589e-11
-7.4176e-16
3.74421e-12
-4.53817e-11
-3.7483e-16
4.37101e-12
-5.08663e-11
1.87776e-16
5.05662e-12
-5.67106e-11
-3.34574e-16
5.80849e-12
-6.29299e-11
3.46438e-17
6.62376e-12
-6.9523e-11
-5.19782e-17
7.50377e-12
-7.6491e-11
6.78563e-18
8.44702e-12
-8.38279e-11
-5.54065e-17
9.45229e-12
-9.15339e-11
-9.26245e-17
1.05176e-11
-9.95821e-11
-1.11218e-16
1.16398e-11
-1.07969e-10
-6.96454e-17
1.28146e-11
-1.1666e-10
-3.35127e-17
1.4036e-11
-1.25632e-10
1.06702e-17
1.52967e-11
-1.34848e-10
2.7178e-17
1.6588e-11
-1.44251e-10
4.38641e-17
1.78998e-11
-1.53815e-10
5.13108e-17
1.92204e-11
-1.63455e-10
6.27102e-17
2.05363e-11
-1.73119e-10
6.18634e-17
2.18331e-11
-1.82733e-10
4.83095e-17
2.30945e-11
-1.9221e-10
2.7991e-17
2.43037e-11
-2.01464e-10
3.72973e-17
2.54428e-11
-2.104e-10
9.92635e-17
2.6493e-11
-2.18925e-10
1.88938e-16
2.74343e-11
-2.26928e-10
2.05216e-16
2.82464e-11
-2.3431e-10
1.50126e-16
2.89103e-11
-2.40962e-10
1.13838e-16
2.94077e-11
-2.46721e-10
7.9394e-17
2.97207e-11
-2.5162e-10
7.60817e-17
2.98334e-11
-2.55397e-10
5.15502e-17
2.97315e-11
-2.58092e-10
4.46029e-17
2.9403e-11
-2.59508e-10
2.23806e-17
2.88389e-11
-2.59556e-10
1.88275e-17
2.80316e-11
-2.58327e-10
-1.28703e-17
2.6979e-11
-2.5552e-10
-3.39623e-17
2.56812e-11
-2.51237e-10
-1.78859e-17
2.4142e-11
-2.45325e-10
-4.32194e-17
2.23698e-11
-2.3776e-10
-7.11092e-17
2.03764e-11
-2.28531e-10
-8.42364e-17
1.818e-11
-2.17442e-10
-9.4343e-17
1.58039e-11
-2.04436e-10
-1.04859e-16
1.3279e-11
-1.89343e-10
-1.10111e-16
1.06476e-11
-1.71844e-10
-1.17469e-16
7.96977e-12
-1.5149e-10
-1.17885e-16
5.33627e-12
-1.27618e-10
-1.22813e-16
2.90052e-12
-9.91929e-11
-1.21489e-16
9.46e-13
-6.48677e-11
-1.22751e-16
-2.33283e-11
-1.18971e-16
1.07576e-14
-7.2547e-13
1.04451e-16
4.87876e-14
-2.32663e-12
-3.15768e-16
1.0932e-13
-4.14878e-12
-2.22812e-15
1.95242e-13
-6.1605e-12
2.36988e-15
3.13509e-13
-8.43994e-12
2.07759e-15
4.5979e-13
-1.09025e-11
-3.15309e-15
6.62604e-13
-1.36483e-11
2.13584e-15
8.93915e-13
-1.66407e-11
-1.13743e-15
1.17594e-12
-1.99049e-11
-2.00073e-15
1.49815e-12
-2.34619e-11
-2.16536e-16
1.87613e-12
-2.73017e-11
-1.41447e-15
2.31066e-12
-3.14706e-11
-4.61366e-16
2.79454e-12
-3.59636e-11
-4.56864e-16
3.33064e-12
-4.08002e-11
-6.86943e-16
3.92896e-12
-4.59834e-11
-3.80677e-16
4.59078e-12
-5.15286e-11
-1.08467e-16
5.31415e-12
-5.74364e-11
-2.83318e-16
6.10383e-12
-6.37203e-11
-1.17942e-16
6.95939e-12
-7.03789e-11
-4.27827e-17
7.88212e-12
-7.74124e-11
1.20493e-16
8.86957e-12
-8.48142e-11
1.07707e-16
9.92029e-12
-9.25838e-11
6.09385e-17
1.1032e-11
-1.00693e-10
7.46727e-17
1.22014e-11
-1.09137e-10
8.86869e-17
1.34235e-11
-1.1788e-10
1.41416e-16
1.46921e-11
-1.26898e-10
1.57971e-16
1.59991e-11
-1.36153e-10
1.77707e-16
1.73353e-11
-1.45585e-10
1.70598e-16
1.86898e-11
-1.55168e-10
1.75071e-16
2.00502e-11
-1.64814e-10
1.70858e-16
2.14023e-11
-1.7447e-10
1.65974e-16
2.27306e-11
-1.8406e-10
1.38978e-16
2.40184e-11
-1.93496e-10
1.12084e-16
2.52479e-11
-2.02692e-10
1.12612e-16
2.64006e-11
-2.11551e-10
1.6802e-16
2.74572e-11
-2.19979e-10
2.47491e-16
2.8397e-11
-2.27865e-10
2.48617e-16
2.91995e-11
-2.35111e-10
1.73788e-16
2.98454e-11
-2.41606e-10
1.30407e-16
3.03164e-11
-2.47191e-10
9.09733e-17
3.05948e-11
-2.51898e-10
8.69895e-17
3.06652e-11
-2.55466e-10
5.96002e-17
3.05135e-11
-2.5794e-10
5.1855e-17
3.01285e-11
-2.59122e-10
2.73962e-17
2.95021e-11
-2.58929e-10
2.34505e-17
2.86278e-11
-2.57452e-10
-1.03614e-17
2.75045e-11
-2.54396e-10
-3.54127e-17
2.61334e-11
-2.49866e-10
-1.85482e-17
2.45196e-11
-2.43712e-10
-4.61298e-17
2.26727e-11
-2.35914e-10
-7.52086e-17
2.06058e-11
-2.26466e-10
-8.94285e-17
1.83385e-11
-2.15176e-10
-1.00683e-16
1.58953e-11
-2.01994e-10
-1.12749e-16
1.3309e-11
-1.86759e-10
-1.19111e-16
1.06245e-11
-1.69162e-10
-1.27871e-16
7.90551e-12
-1.48774e-10
-1.28984e-16
5.24918e-12
-1.24964e-10
-1.34887e-16
2.81711e-12
-9.67635e-11
-1.33812e-16
8.98826e-13
-6.29522e-11
-1.35396e-16
-2.24322e-11
-1.30595e-16
1.13893e-14
-7.37271e-13
2.03419e-16
5.03294e-14
-2.36517e-12
-1.56491e-16
1.16317e-13
-4.21176e-12
-1.46456e-15
2.17878e-13
-6.26724e-12
1.67807e-15
3.48124e-13
-8.56987e-12
1.11825e-15
5.14923e-13
-1.10655e-11
-2.8547e-15
7.26893e-13
-1.38691e-11
2.50626e-15
9.73844e-13
-1.68717e-11
-2.52763e-16
1.26772e-12
-2.02059e-11
-9.74126e-16
1.59633e-12
-2.37954e-11
3.70362e-16
1.9893e-12
-2.77011e-11
-9.70204e-16
2.43913e-12
-3.19162e-11
2.86215e-16
2.94784e-12
-3.64738e-11
-5.19412e-18
3.5114e-12
-4.13652e-11
-2.4807e-16
4.14116e-12
-4.66145e-11
-1.40734e-16
4.83595e-12
-5.22222e-11
1.04659e-16
5.59711e-12
-5.81981e-11
-7.47518e-17
6.42568e-12
-6.45493e-11
-6.72885e-17
7.32401e-12
-7.12765e-11
7.30876e-17
8.29135e-12
-7.83784e-11
1.5405e-16
9.32556e-12
-8.58475e-11
1.07871e-16
1.0425e-11
-9.36826e-11
8.07426e-17
1.15869e-11
-1.01854e-10
6.48831e-17
1.28072e-11
-1.10357e-10
1.10945e-16
1.40807e-11
-1.19153e-10
1.41969e-16
1.54003e-11
-1.28217e-10
1.96965e-16
1.67575e-11
-1.37508e-10
2.13086e-16
1.81422e-11
-1.46968e-10
2.35427e-16
1.95429e-11
-1.56567e-10
2.43059e-16
2.09462e-11
-1.66215e-10
2.57639e-16
2.23371e-11
-1.75858e-10
2.52781e-16
2.36994e-11
-1.8542e-10
2.29736e-16
2.50153e-11
-1.9481e-10
1.96568e-16
2.62664e-11
-2.03942e-10
1.94254e-16
2.74336e-11
-2.12715e-10
2.3906e-16
2.84966e-11
-2.21039e-10
3.07428e-16
2.94344e-11
-2.288e-10
2.90298e-16
3.0226e-11
-2.35901e-10
1.96553e-16
3.0852e-11
-2.42231e-10
1.45982e-16
3.12942e-11
-2.47632e-10
1.02592e-16
3.1535e-11
-2.52138e-10
9.78409e-17
3.15594e-11
-2.5549e-10
6.80059e-17
3.13538e-11
-2.57734e-10
5.94275e-17
3.09079e-11
-2.58676e-10
3.28634e-17
3.02146e-11
-2.58235e-10
2.84032e-17
2.92683e-11
-2.56506e-10
-7.69827e-18
2.80691e-11
-2.53197e-10
-3.15203e-17
2.66196e-11
-2.48416e-10
-1.99389e-17
2.49263e-11
-2.42019e-10
-4.99177e-17
2.3e-11
-2.33989e-10
-8.29447e-17
2.08552e-11
-2.24322e-10
-1.00393e-16
1.8513e-11
-2.12835e-10
-1.13984e-16
1.59996e-11
-1.99482e-10
-1.27894e-16
1.33496e-11
-1.84111e-10
-1.34952e-16
1.06105e-11
-1.66425e-10
-1.44289e-16
7.85015e-12
-1.46016e-10
-1.45048e-16
5.17152e-12
-1.22288e-10
-1.50806e-16
2.7433e-12
-9.43381e-11
-1.48933e-16
8.58079e-13
-6.107e-11
-1.49921e-16
-2.1577e-11
-1.4481e-16
1.15683e-14
-7.4955e-13
3.54852e-16
5.3345e-14
-2.40636e-12
-2.65966e-16
1.2191e-13
-4.27705e-12
-1.64348e-15
2.27787e-13
-6.37718e-12
1.43072e-15
3.63656e-13
-8.70621e-12
1.29084e-15
5.3233e-13
-1.1231e-11
-2.16812e-15
7.61613e-13
-1.41022e-11
9.73228e-16
1.00961e-12
-1.71076e-11
-2.29462e-16
1.33982e-12
-2.0545e-11
5.30728e-17
1.69305e-12
-2.4152e-11
-1.01503e-15
2.10948e-12
-2.81252e-11
-6.43084e-17
2.58078e-12
-3.23827e-11
-1.86802e-16
3.11536e-12
-3.70103e-11
1.46205e-16
3.70831e-12
-4.19587e-11
-2.03177e-16
4.37132e-12
-4.72786e-11
-7.34945e-17
5.10088e-12
-5.29513e-11
4.60081e-17
5.90231e-12
-5.89989e-11
4.8678e-17
6.77218e-12
-6.542e-11
-7.58147e-17
7.71582e-12
-7.2219e-11
1.1842e-16
8.73107e-12
-7.93916e-11
2.54992e-16
9.81547e-12
-8.69301e-11
2.06594e-16
1.09671e-11
-9.48324e-11
2.17173e-16
1.21826e-11
-1.03068e-10
2.3801e-16
1.34577e-11
-1.11629e-10
2.74234e-16
1.47863e-11
-1.20478e-10
3.2967e-16
1.61608e-11
-1.29588e-10
3.59475e-16
1.75717e-11
-1.38916e-10
3.79775e-16
1.90085e-11
-1.48401e-10
3.75026e-16
2.04585e-11
-1.58013e-10
3.80132e-16
2.19076e-11
-1.6766e-10
3.77369e-16
2.33399e-11
-1.77287e-10
3.67581e-16
2.47382e-11
-1.86816e-10
3.29194e-16
2.6084e-11
-1.96154e-10
2.88932e-16
2.73578e-11
-2.05213e-10
2.76791e-16
2.85398e-11
-2.13894e-10
3.11693e-16
2.9609e-11
-2.22105e-10
3.6488e-16
3.0544e-11
-2.29732e-10
3.30157e-16
3.13233e-11
-2.36678e-10
2.17097e-16
3.19274e-11
-2.42834e-10
1.60852e-16
3.23381e-11
-2.48041e-10
1.1365e-16
3.25382e-11
-2.52337e-10
1.08805e-16
3.25129e-11
-2.55463e-10
7.65878e-17
3.22494e-11
-2.5747e-10
6.74354e-17
3.17383e-11
-2.58164e-10
3.87992e-17
3.09733e-11
-2.57469e-10
3.39162e-17
2.99501e-11
-2.55483e-10
-3.71681e-18
2.86702e-11
-2.51918e-10
-3.1423e-17
2.71375e-11
-2.46884e-10
-2.11482e-17
2.536e-11
-2.40242e-10
-5.3339e-17
2.33499e-11
-2.3198e-10
-8.7286e-17
2.11234e-11
-2.22097e-10
-1.06063e-16
1.87029e-11
-2.10417e-10
-1.20934e-16
1.61165e-11
-1.96898e-10
-1.36333e-16
1.34008e-11
-1.81397e-10
-1.44268e-16
1.06061e-11
-1.63633e-10
-1.54617e-16
7.80423e-12
-1.43217e-10
-1.55624e-16
5.10364e-12
-1.19591e-10
-1.61773e-16
2.67884e-12
-9.19164e-11
-1.59602e-16
8.23205e-13
-5.92176e-11
-1.60415e-16
-2.07569e-11
-1.54071e-16
1.27441e-14
-7.62708e-13
2.02997e-16
5.49599e-14
-2.44846e-12
7.12851e-18
1.17284e-13
-4.33719e-12
-1.10366e-15
2.04279e-13
-6.47026e-12
1.93746e-15
3.23193e-13
-8.82786e-12
1.91907e-15
4.78368e-13
-1.13775e-11
-3.17686e-15