/*--------------------------------*- C++ -*----------------------------------*\
| =========                 |                                                 |
| \\      /  F ield         | OpenFOAM: The Open Source CFD Toolbox           |
|  \\    /   O peration     | Version:  v2012                                 |
|   \\  /    A nd           | Website:  www.openfoam.com                      |
|    \\/     M anipulation  |                                                 |
\*---------------------------------------------------------------------------*/
FoamFile
{
    version     2.0;
    format      ascii;
    class       volVectorField;
    location    "0.65";
    object      U;
}
// * * * * * * * * * * * * * * * * * * * * * * * * * * * * * * * * * * * * * //

dimensions      [0 1 -1 0 0 0 0];


internalField   nonuniform List<vector> 
15860
(
(5.93149e-06 -0.00398803 -5.19455e-08)
(1.59418e-05 -0.00409466 -1.39214e-07)
(2.56506e-05 -0.00417054 -2.24521e-07)
(3.82915e-05 -0.00423769 -3.35322e-07)
(4.95412e-05 -0.00428454 -4.33386e-07)
(6.41871e-05 -0.00432415 -5.59766e-07)
(7.74882e-05 -0.00436092 -6.77781e-07)
(9.24871e-05 -0.00438304 -8.10904e-07)
(0.000110516 -0.0044102 -9.65279e-07)
(0.000127099 -0.00442329 -1.108e-06)
(0.000142827 -0.00443716 -1.24706e-06)
(0.000158802 -0.00444296 -1.38636e-06)
(0.000175882 -0.00444736 -1.53502e-06)
(0.000194426 -0.004445 -1.69709e-06)
(0.000213524 -0.00444014 -1.86364e-06)
(0.000233584 -0.00442978 -2.03861e-06)
(0.000253989 -0.00441569 -2.2168e-06)
(0.000274902 -0.00439653 -2.3993e-06)
(0.000295947 -0.00437286 -2.58306e-06)
(0.000317134 -0.00434416 -2.768e-06)
(0.000338251 -0.00431056 -2.95235e-06)
(0.00035919 -0.00427177 -3.13513e-06)
(0.000379778 -0.00422775 -3.31485e-06)
(0.000399878 -0.00417831 -3.49029e-06)
(0.00041933 -0.00412336 -3.66008e-06)
(0.000437984 -0.00406279 -3.8229e-06)
(0.000455678 -0.00399651 -3.97735e-06)
(0.000472249 -0.00392446 -4.12198e-06)
(0.000487528 -0.00384661 -4.25534e-06)
(0.000501346 -0.00376297 -4.37596e-06)
(0.00051353 -0.00367359 -4.48231e-06)
(0.000523914 -0.00357856 -4.57294e-06)
(0.000532332 -0.00347803 -4.64644e-06)
(0.000538638 -0.00337219 -4.70149e-06)
(0.000542688 -0.00326127 -4.73686e-06)
(0.000544344 -0.00314555 -4.75134e-06)
(0.000543484 -0.0030254 -4.74382e-06)
(0.000540014 -0.00290121 -4.71357e-06)
(0.000533864 -0.00277345 -4.65993e-06)
(0.00052499 -0.00264264 -4.58252e-06)
(0.00051338 -0.00250933 -4.48122e-06)
(0.000499051 -0.00237408 -4.3562e-06)
(0.000482058 -0.00223752 -4.20792e-06)
(0.000462489 -0.00210026 -4.03716e-06)
(0.000440474 -0.00196296 -3.84505e-06)
(0.000416172 -0.0018262 -3.63297e-06)
(0.000389781 -0.00169058 -3.40265e-06)
(0.000361536 -0.00155668 -3.15614e-06)
(0.0003317 -0.00142497 -2.89574e-06)
(0.00030057 -0.00129589 -2.62403e-06)
(0.000268466 -0.00116973 -2.34381e-06)
(0.000235735 -0.00104669 -2.05813e-06)
(0.000202757 -0.000926776 -1.77026e-06)
(0.00016993 -0.000809733 -1.48372e-06)
(0.000137688 -0.00069499 -1.20226e-06)
(0.000106505 -0.000581526 -9.30046e-07)
(7.69237e-05 -0.000467679 -6.71792e-07)
(4.95168e-05 -0.000350829 -4.32506e-07)
(2.52985e-05 -0.000227033 -2.21125e-07)
(4.66399e-06 -8.7599e-05 -4.38199e-08)
(5.83415e-06 -0.00405959 -5.12722e-08)
(2.38943e-05 -0.00416996 -2.09327e-07)
(2.80176e-05 -0.00424689 -2.43064e-07)
(5.10592e-05 -0.00431564 -4.45541e-07)
(5.51886e-05 -0.00436311 -4.84356e-07)
(7.92853e-05 -0.00440261 -6.92215e-07)
(8.67254e-05 -0.00444091 -7.56276e-07)
(0.000108629 -0.00446287 -9.49562e-07)
(0.000120755 -0.00448792 -1.05491e-06)
(0.000141789 -0.00449951 -1.23812e-06)
(0.000157373 -0.00451424 -1.37374e-06)
(0.000175243 -0.00451955 -1.53021e-06)
(0.000192407 -0.00452237 -1.67987e-06)
(0.000211295 -0.00451934 -1.84424e-06)
(0.000229579 -0.0045134 -2.00381e-06)
(0.000249243 -0.00450198 -2.17535e-06)
(0.000268593 -0.00448652 -2.3442e-06)
(0.000288681 -0.00446576 -2.51962e-06)
(0.000308694 -0.00444034 -2.69433e-06)
(0.000328996 -0.00440962 -2.87159e-06)
(0.000349166 -0.00437382 -3.04765e-06)
(0.000369303 -0.00433264 -3.22344e-06)
(0.00038914 -0.00428608 -3.39659e-06)
(0.000408588 -0.00423398 -3.56634e-06)
(0.000427448 -0.00417624 -3.73095e-06)
(0.000445572 -0.00411278 -3.88913e-06)
(0.000462784 -0.00404353 -4.03935e-06)
(0.000478914 -0.00396845 -4.18012e-06)
(0.000493785 -0.00388751 -4.30991e-06)
(0.000507221 -0.00380074 -4.42718e-06)
(0.000519046 -0.00370821 -4.53038e-06)
(0.000529084 -0.00361003 -4.61798e-06)
(0.000537169 -0.00350635 -4.68855e-06)
(0.000543153 -0.0033974 -4.74078e-06)
(0.000546896 -0.00328341 -4.77346e-06)
(0.000548252 -0.0031647 -4.78531e-06)
(0.000547096 -0.00304163 -4.7752e-06)
(0.000543337 -0.00291464 -4.74241e-06)
(0.000536901 -0.00278419 -4.68627e-06)
(0.000527746 -0.00265083 -4.6064e-06)
(0.00051586 -0.00251511 -4.5027e-06)
(0.000501263 -0.00237763 -4.37534e-06)
(0.00048401 -0.002239 -4.2248e-06)
(0.000464192 -0.00209986 -4.05187e-06)
(0.000441938 -0.00196086 -3.85768e-06)
(0.000417411 -0.0018226 -3.64364e-06)
(0.000390806 -0.00168568 -3.41147e-06)
(0.000362363 -0.00155068 -3.16325e-06)
(0.000332344 -0.00141806 -2.90125e-06)
(0.000301045 -0.00128827 -2.6281e-06)
(0.000268786 -0.0011616 -2.34655e-06)
(0.000235916 -0.00103822 -2.05966e-06)
(0.000202811 -0.000918142 -1.77072e-06)
(0.00016987 -0.000801114 -1.48319e-06)
(0.000137523 -0.000686556 -1.20085e-06)
(0.000106242 -0.000573447 -9.27804e-07)
(7.65683e-05 -0.000460132 -6.68767e-07)
(4.90596e-05 -0.000344025 -4.28627e-07)
(2.47504e-05 -0.000221186 -2.16561e-07)
(4.10689e-06 -8.37836e-05 -4.04906e-08)
(5.02383e-06 -0.00408079 -4.41197e-08)
(2.52105e-05 -0.00418756 -2.20473e-07)
(2.43006e-05 -0.00426581 -2.14576e-07)
(5.41957e-05 -0.00433208 -4.76381e-07)
(5.13564e-05 -0.00437893 -4.44277e-07)
(8.0687e-05 -0.00442086 -7.05336e-07)
(8.39847e-05 -0.0044579 -7.34678e-07)
(0.00010772 -0.00448383 -9.38462e-07)
(0.000117211 -0.00450911 -1.02417e-06)
(0.000137932 -0.00452412 -1.2048e-06)
(0.000153298 -0.00453968 -1.33895e-06)
(0.000174946 -0.00454675 -1.5274e-06)
(0.000193135 -0.00455006 -1.6861e-06)
(0.000211921 -0.00454811 -1.84999e-06)
(0.000231152 -0.00454273 -2.01743e-06)
(0.000251857 -0.00453217 -2.19809e-06)
(0.000272267 -0.00451733 -2.37629e-06)
(0.000293266 -0.00449729 -2.55959e-06)
(0.000314066 -0.00447238 -2.74126e-06)
(0.000335033 -0.00444215 -2.92432e-06)
(0.000355736 -0.00440662 -3.10507e-06)
(0.000376287 -0.00436556 -3.28447e-06)
(0.00039644 -0.00431892 -3.46039e-06)
(0.000416125 -0.00426654 -3.63221e-06)
(0.000435154 -0.00420833 -3.79829e-06)
(0.000453391 -0.0041442 -3.95746e-06)
(0.000470664 -0.00407408 -4.1082e-06)
(0.000486809 -0.00399794 -4.2491e-06)
(0.000501649 -0.00391577 -4.37862e-06)
(0.000515013 -0.0038276 -4.49526e-06)
(0.000526723 -0.00373351 -4.59745e-06)
(0.000536605 -0.00363362 -4.68368e-06)
(0.000544492 -0.00352811 -4.75252e-06)
(0.000550241 -0.00341721 -4.8027e-06)
(0.000553718 -0.0033012 -4.83305e-06)
(0.000554777 -0.0031804 -4.84231e-06)
(0.000553294 -0.00305521 -4.82933e-06)
(0.000549178 -0.00292607 -4.79343e-06)
(0.00054236 -0.00279349 -4.73396e-06)
(0.000532804 -0.00265802 -4.65058e-06)
(0.000520502 -0.00252025 -4.54324e-06)
(0.000505479 -0.00238079 -4.41215e-06)
(0.000487795 -0.00224027 -4.25785e-06)
(0.000467546 -0.00209936 -4.08115e-06)
(0.000444869 -0.00195872 -3.88326e-06)
(0.000419927 -0.00181897 -3.6656e-06)
(0.000392924 -0.00168072 -3.42995e-06)
(0.0003641 -0.00154454 -3.17839e-06)
(0.000333721 -0.00141094 -2.91327e-06)
(0.000302087 -0.00128034 -2.63718e-06)
(0.000269517 -0.00115303 -2.35292e-06)
(0.000236361 -0.00102921 -2.06353e-06)
(0.000202994 -0.000908878 -1.77231e-06)
(0.000169814 -0.000791776 -1.4827e-06)
(0.00013725 -0.00067733 -1.19846e-06)
(0.000105768 -0.000564527 -9.23673e-07)
(7.59086e-05 -0.000451717 -6.63025e-07)
(4.823e-05 -0.000336366 -4.21409e-07)
(2.38058e-05 -0.000214564 -2.08372e-07)
(3.56382e-06 -7.95479e-05 -3.59749e-08)
(6.52957e-06 -0.00415104 -5.71965e-08)
(2.8227e-05 -0.00425802 -2.46617e-07)
(2.97498e-05 -0.00434111 -2.61081e-07)
(6.03081e-05 -0.00440411 -5.28896e-07)
(5.91767e-05 -0.00445418 -5.13755e-07)
(9.04686e-05 -0.00449634 -7.92216e-07)
(9.39309e-05 -0.00452747 -8.21779e-07)
(0.000121276 -0.00455348 -1.05779e-06)
(0.000131538 -0.00457444 -1.14845e-06)
(0.000154395 -0.00458906 -1.34815e-06)
(0.000169057 -0.00460147 -1.47595e-06)
(0.000191373 -0.00460796 -1.67114e-06)
(0.000209222 -0.00461045 -1.82653e-06)
(0.000227675 -0.00460755 -1.98744e-06)
(0.000246178 -0.00460064 -2.14864e-06)
(0.000266498 -0.00458848 -2.32593e-06)
(0.000286253 -0.00457193 -2.4983e-06)
(0.00030686 -0.00455007 -2.67829e-06)
(0.000327162 -0.00452335 -2.85556e-06)
(0.000347809 -0.00449123 -3.03588e-06)
(0.000368169 -0.00445383 -3.21364e-06)
(0.000388481 -0.00441086 -3.39097e-06)
(0.000408413 -0.00436229 -3.56495e-06)
(0.000427931 -0.00430795 -3.7353e-06)
(0.000446816 -0.00424775 -3.90012e-06)
(0.000464924 -0.00418158 -4.05815e-06)
(0.00048207 -0.00410939 -4.20778e-06)
(0.000498079 -0.00403113 -4.34748e-06)
(0.000512767 -0.00394681 -4.47566e-06)
(0.000525955 -0.00385645 -4.59076e-06)
(0.00053746 -0.00376014 -4.69116e-06)
(0.000547101 -0.003658 -4.77529e-06)
(0.000554709 -0.00355023 -4.84169e-06)
(0.000560136 -0.00343704 -4.88906e-06)
(0.000563251 -0.00331875 -4.91626e-06)
(0.00056391 -0.0031957 -4.92202e-06)
(0.000561988 -0.00306827 -4.90523e-06)
(0.000557396 -0.00293694 -4.86517e-06)
(0.000550067 -0.00280223 -4.80123e-06)
(0.000539969 -0.00266469 -4.71313e-06)
(0.000527101 -0.00252494 -4.60086e-06)
(0.000511496 -0.00238359 -4.46469e-06)
(0.00049322 -0.0022413 -4.30522e-06)
(0.000472376 -0.00209874 -4.12333e-06)
(0.000449107 -0.00195659 -3.92027e-06)
(0.000423585 -0.00181547 -3.69755e-06)
(0.000396019 -0.00167601 -3.45698e-06)
(0.000366654 -0.00153878 -3.20071e-06)
(0.000335764 -0.00140429 -2.93111e-06)
(0.000303648 -0.00127297 -2.65081e-06)
(0.00027063 -0.00114511 -2.36264e-06)
(0.000237061 -0.00102091 -2.06966e-06)
(0.000203317 -0.000900353 -1.77514e-06)
(0.000169794 -0.000783199 -1.48253e-06)
(0.000136918 -0.000668869 -1.19558e-06)
(0.000105157 -0.000556355 -9.18339e-07)
(7.50506e-05 -0.000444017 -6.55536e-07)
(4.7183e-05 -0.000329376 -4.12265e-07)
(2.26931e-05 -0.000208608 -1.98641e-07)
(3.10813e-06 -7.59663e-05 -3.16238e-08)
(7.18224e-06 -0.00418685 -6.29884e-08)
(2.67526e-05 -0.00429159 -2.33963e-07)
(2.91984e-05 -0.00437444 -2.56018e-07)
(5.9031e-05 -0.00443325 -5.17198e-07)
(5.66885e-05 -0.00448598 -4.92377e-07)
(8.91069e-05 -0.00452713 -7.79579e-07)
(9.19731e-05 -0.004561 -8.0413e-07)
(0.000119154 -0.00459195 -1.04124e-06)
(0.000130091 -0.00461301 -1.13495e-06)
(0.000153207 -0.00463111 -1.33638e-06)
(0.00016911 -0.00464309 -1.47742e-06)
(0.000192681 -0.00465064 -1.68173e-06)
(0.00021247 -0.0046527 -1.85525e-06)
(0.000232017 -0.0046506 -2.02525e-06)
(0.000252139 -0.00464353 -2.20079e-06)
(0.000273681 -0.00463174 -2.38858e-06)
(0.000294672 -0.0046151 -2.57188e-06)
(0.000316368 -0.00459323 -2.76129e-06)
(0.000337581 -0.00456622 -2.94659e-06)
(0.000359029 -0.00453373 -3.13387e-06)
(0.00038003 -0.00449572 -3.31725e-06)
(0.000400874 -0.004452 -3.49922e-06)
(0.000421218 -0.00440246 -3.67679e-06)
(0.000441064 -0.00434698 -3.85e-06)
(0.00046019 -0.00428546 -4.01692e-06)
(0.000478472 -0.00421781 -4.17646e-06)
(0.00049572 -0.00414398 -4.32697e-06)
(0.000511767 -0.00406394 -4.467e-06)
(0.000526427 -0.00397771 -4.59492e-06)
(0.000539522 -0.00388533 -4.7092e-06)
(0.000550869 -0.00378691 -4.80821e-06)
(0.000560287 -0.00368259 -4.89039e-06)
(0.000567605 -0.00357257 -4.95426e-06)
(0.000572676 -0.0034571 -4.99852e-06)
(0.000575368 -0.0033365 -5.02203e-06)
(0.000575547 -0.00321113 -5.0236e-06)
(0.00057309 -0.00308142 -5.00213e-06)
(0.000567909 -0.00294784 -4.95693e-06)
(0.000559941 -0.00281093 -4.88742e-06)
(0.000549164 -0.00267127 -4.79339e-06)
(0.000535584 -0.00252949 -4.67491e-06)
(0.000519242 -0.00238623 -4.53231e-06)
(0.000500215 -0.00224214 -4.36628e-06)
(0.000478613 -0.00209792 -4.17778e-06)
(0.00045459 -0.00195426 -3.96814e-06)
(0.000428327 -0.00181178 -3.73895e-06)
(0.00040004 -0.00167112 -3.49209e-06)
(0.000369983 -0.00153287 -3.22978e-06)
(0.000338435 -0.00139751 -2.95444e-06)
(0.000305702 -0.0012655 -2.66875e-06)
(0.00027211 -0.00113712 -2.37557e-06)
(0.000238012 -0.00101256 -2.07797e-06)
(0.000203786 -0.000891818 -1.77923e-06)
(0.000169826 -0.000774637 -1.48282e-06)
(0.000136561 -0.000660444 -1.19246e-06)
(0.000104458 -0.000548238 -9.12239e-07)
(7.40662e-05 -0.000436391 -6.46947e-07)
(4.60175e-05 -0.000322488 -4.0209e-07)
(2.15341e-05 -0.000202858 -1.88504e-07)
(2.69837e-06 -7.26895e-05 -2.76776e-08)
(7.93414e-06 -0.00425437 -6.95831e-08)
(2.87299e-05 -0.00435754 -2.51188e-07)
(3.43963e-05 -0.00444691 -3.01731e-07)
(6.84803e-05 -0.00450067 -5.99767e-07)
(6.96936e-05 -0.00455533 -6.01782e-07)
(0.000105249 -0.00459884 -9.16416e-07)
(0.000110986 -0.0046228 -9.66572e-07)
(0.000137641 -0.00465686 -1.20091e-06)
(0.00015004 -0.0046708 -1.31212e-06)
(0.000171198 -0.00469096 -1.49117e-06)
(0.000187224 -0.00470094 -1.63427e-06)
(0.000209197 -0.00470912 -1.82702e-06)
(0.000228777 -0.00470945 -1.99668e-06)
(0.000247269 -0.0047069 -2.15892e-06)
(0.000267364 -0.00469837 -2.33348e-06)
(0.000288433 -0.00468534 -2.5175e-06)
(0.000309427 -0.00466724 -2.70064e-06)
(0.000331089 -0.00464391 -2.88986e-06)
(0.000352386 -0.00461542 -3.07583e-06)
(0.000373994 -0.00458143 -3.26455e-06)
(0.000395196 -0.0045419 -3.44966e-06)
(0.000416264 -0.00449659 -3.63359e-06)
(0.000436832 -0.00444543 -3.81311e-06)
(0.00045689 -0.00438825 -3.98818e-06)
(0.000476208 -0.00432496 -4.15675e-06)
(0.000494638 -0.00425546 -4.31758e-06)
(0.000511989 -0.0041797 -4.46899e-06)
(0.000528079 -0.00409764 -4.60938e-06)
(0.000542719 -0.00400932 -4.73714e-06)
(0.000555724 -0.00391477 -4.85062e-06)
(0.000566907 -0.00381412 -4.9482e-06)
(0.000576083 -0.00370751 -5.02827e-06)
(0.000583081 -0.00359515 -5.08934e-06)
(0.00058775 -0.00347732 -5.13009e-06)
(0.000589958 -0.00335434 -5.14937e-06)
(0.000589577 -0.00322661 -5.14607e-06)
(0.000586493 -0.00309456 -5.11912e-06)
(0.000580615 -0.00295868 -5.06785e-06)
(0.00057189 -0.00281953 -4.99172e-06)
(0.000560303 -0.00267772 -4.89063e-06)
(0.000545871 -0.00253388 -4.76471e-06)
(0.000528646 -0.00238866 -4.61441e-06)
(0.000508715 -0.00224276 -4.44049e-06)
(0.000486201 -0.00209686 -4.24403e-06)
(0.00046127 -0.00195167 -4.02646e-06)
(0.000434112 -0.00180783 -3.78945e-06)
(0.000404953 -0.00166597 -3.53499e-06)
(0.00037406 -0.00152669 -3.26537e-06)
(0.000341717 -0.00139048 -2.9831e-06)
(0.000308237 -0.00125779 -2.69089e-06)
(0.000273951 -0.0011289 -2.39165e-06)
(0.000239216 -0.001004 -2.08848e-06)
(0.00020441 -0.000883081 -1.78469e-06)
(0.000169931 -0.000765891 -1.48374e-06)
(0.000136206 -0.000651855 -1.18937e-06)
(0.000103712 -0.000539978 -9.05735e-07)
(7.30116e-05 -0.000428654 -6.37746e-07)
(4.48014e-05 -0.000315546 -3.91474e-07)
(2.03934e-05 -0.000197184 -1.78527e-07)
(2.33031e-06 -6.9612e-05 -2.416e-08)
(1.25593e-05 -0.00430041 -1.09864e-07)
(2.20344e-05 -0.00440461 -1.9259e-07)
(4.20472e-05 -0.00450033 -3.66673e-07)
(5.34025e-05 -0.00455449 -4.66155e-07)
(6.84588e-05 -0.00461128 -6.00896e-07)
(8.87673e-05 -0.0046568 -7.76912e-07)
(9.81872e-05 -0.00467793 -8.67455e-07)
(0.000129698 -0.00471381 -1.13532e-06)
(0.000144198 -0.00472342 -1.25077e-06)
(0.000166148 -0.00474444 -1.45335e-06)
(0.000187179 -0.00475201 -1.63385e-06)
(0.00021103 -0.00476074 -1.84102e-06)
(0.000234528 -0.00476011 -2.04841e-06)
(0.000254164 -0.00475781 -2.21834e-06)
(0.000276788 -0.00474876 -2.4161e-06)
(0.000299115 -0.00473558 -2.61064e-06)
(0.00032158 -0.00471689 -2.80683e-06)
(0.000344445 -0.004693 -3.00644e-06)
(0.000366738 -0.00466367 -3.20115e-06)
(0.000389282 -0.00462875 -3.398e-06)
(0.000411259 -0.00458809 -3.58989e-06)
(0.000433007 -0.00454154 -3.77973e-06)
(0.000454127 -0.00448895 -3.96408e-06)
(0.000474658 -0.00443021 -4.14327e-06)
(0.000494348 -0.00436522 -4.31509e-06)
(0.000513073 -0.00429389 -4.47849e-06)
(0.000530626 -0.00421617 -4.63166e-06)
(0.000546836 -0.00413205 -4.7731e-06)
(0.000561502 -0.00404156 -4.90108e-06)
(0.000574444 -0.00394476 -5.01401e-06)
(0.000585468 -0.00384179 -5.11021e-06)
(0.000594391 -0.0037328 -5.18807e-06)
(0.000601039 -0.00361802 -5.24608e-06)
(0.000605259 -0.00349774 -5.28292e-06)
(0.000606921 -0.00337231 -5.29744e-06)
(0.000605905 -0.00324214 -5.28859e-06)
(0.000602101 -0.00310767 -5.25536e-06)
(0.000595423 -0.00296943 -5.1971e-06)
(0.000585824 -0.00282799 -5.11335e-06)
(0.0005733 -0.00268398 -5.00409e-06)
(0.000557883 -0.00253804 -4.86956e-06)
(0.000539634 -0.00239085 -4.71033e-06)
(0.000518655 -0.00224311 -4.52726e-06)
(0.000495082 -0.00209552 -4.32156e-06)
(0.000469094 -0.0019488 -4.09477e-06)
(0.000440895 -0.00180359 -3.84868e-06)
(0.000410723 -0.00166054 -3.58537e-06)
(0.000378856 -0.00152023 -3.30725e-06)
(0.000345589 -0.00138318 -3.01691e-06)
(0.00031124 -0.00124982 -2.71712e-06)
(0.000276149 -0.00112044 -2.41085e-06)
(0.000240675 -0.000995213 -2.10123e-06)
(0.000205201 -0.00087414 -1.79161e-06)
(0.000170127 -0.000756961 -1.48546e-06)
(0.000135883 -0.000643102 -1.18656e-06)
(0.000102958 -0.000531581 -8.99158e-07)
(7.19348e-05 -0.000420818 -6.2835e-07)
(4.35863e-05 -0.000308568 -3.80867e-07)
(1.93105e-05 -0.0001916 -1.69056e-07)
(2.00809e-06 -6.67199e-05 -2.10691e-08)
(1.55822e-05 -0.00437051 -1.364e-07)
(2.10232e-05 -0.00447051 -1.84123e-07)
(4.99816e-05 -0.00455792 -4.36254e-07)
(5.92919e-05 -0.00460202 -5.18154e-07)
(8.58385e-05 -0.00466354 -7.48679e-07)
(0.000102077 -0.00469878 -8.87718e-07)
(0.000120064 -0.00473179 -1.05588e-06)
(0.000144698 -0.00476689 -1.26627e-06)
(0.000164245 -0.00478295 -1.42952e-06)
(0.000181092 -0.00480522 -1.58177e-06)
(0.000204987 -0.00481252 -1.78845e-06)
(0.000226351 -0.00482107 -1.97599e-06)
(0.000251001 -0.00481981 -2.19102e-06)
(0.000269452 -0.00481647 -2.35226e-06)
(0.000292861 -0.00480615 -2.55613e-06)
(0.000314928 -0.00479171 -2.74877e-06)
(0.000338013 -0.00477154 -2.95023e-06)
(0.000361201 -0.00474625 -3.15273e-06)
(0.000384098 -0.00471543 -3.35266e-06)
(0.000407173 -0.00467901 -3.55414e-06)
(0.000429738 -0.00463679 -3.75114e-06)
(0.000452032 -0.0045886 -3.94576e-06)
(0.000473692 -0.00453431 -4.1348e-06)
(0.000494688 -0.00447376 -4.31805e-06)
(0.000514791 -0.00440686 -4.49349e-06)
(0.000533842 -0.00433353 -4.65974e-06)
(0.000551645 -0.0042537 -4.81509e-06)
(0.000568003 -0.00416738 -4.95783e-06)
(0.000582724 -0.0040746 -5.08629e-06)
(0.000595612 -0.00397544 -5.19876e-06)
(0.000606476 -0.00387002 -5.29357e-06)
(0.000615128 -0.00375854 -5.36906e-06)
(0.000621393 -0.00364124 -5.42373e-06)
(0.000625117 -0.00351841 -5.45624e-06)
(0.000626172 -0.00339043 -5.46546e-06)
(0.000624443 -0.00325773 -5.4504e-06)
(0.000619829 -0.00312077 -5.41009e-06)
(0.000612247 -0.0029801 -5.34395e-06)
(0.00060166 -0.0028363 -5.25158e-06)
(0.000588078 -0.00269004 -5.13308e-06)
(0.000571544 -0.00254196 -4.98881e-06)
(0.000552136 -0.00239276 -4.81946e-06)
(0.000529969 -0.00224315 -4.62603e-06)
(0.000505196 -0.00209385 -4.40985e-06)
(0.00047801 -0.00194559 -4.17261e-06)
(0.000448631 -0.00179902 -3.91622e-06)
(0.000417311 -0.00165477 -3.64289e-06)
(0.000384341 -0.00151346 -3.35514e-06)
(0.000350026 -0.00137558 -3.05566e-06)
(0.000314696 -0.00124157 -2.7473e-06)
(0.000278695 -0.00111172 -2.43308e-06)
(0.00024239 -0.000986194 -2.11621e-06)
(0.000206167 -0.000864989 -1.80005e-06)
(0.00017043 -0.000747844 -1.48812e-06)
(0.000135616 -0.00063419 -1.18424e-06)
(0.000102228 -0.000523058 -8.9279e-07)
(7.08747e-05 -0.000412902 -6.191e-07)
(4.24105e-05 -0.000301583 -3.70602e-07)
(1.83087e-05 -0.000186126 -1.60293e-07)
(1.7311e-06 -6.40072e-05 -1.84014e-08)
(1.81322e-05 -0.0044247 -1.59002e-07)
(1.73718e-05 -0.0045291 -1.54048e-07)
(5.32452e-05 -0.00463269 -4.64298e-07)
(5.72353e-05 -0.0046834 -4.97277e-07)
(8.28847e-05 -0.00474286 -7.24218e-07)
(9.99497e-05 -0.0047831 -8.72043e-07)
(0.000120001 -0.00480522 -1.05285e-06)
(0.000142261 -0.00483808 -1.24606e-06)
(0.000166566 -0.00484685 -1.44892e-06)
(0.000181948 -0.00486745 -1.58826e-06)
(0.000210824 -0.00487142 -1.83998e-06)
(0.000232232 -0.00487963 -2.02609e-06)
(0.000260624 -0.00487741 -2.27526e-06)
(0.000280202 -0.0048737 -2.44563e-06)
(0.000305844 -0.00486269 -2.66949e-06)
(0.000329178 -0.00484765 -2.87309e-06)
(0.000353759 -0.00482658 -3.08769e-06)
(0.000378138 -0.00480036 -3.30055e-06)
(0.000402128 -0.00476837 -3.51001e-06)
(0.000426218 -0.00473068 -3.72031e-06)
(0.00044969 -0.004687 -3.92522e-06)
(0.000472813 -0.00463722 -4.12705e-06)
(0.000495167 -0.00458118 -4.32216e-06)
(0.000516783 -0.00451877 -4.51083e-06)
(0.000537391 -0.00444988 -4.69068e-06)
(0.000556859 -0.00437443 -4.86057e-06)
(0.000574963 -0.00429238 -5.01856e-06)
(0.00059152 -0.00420373 -5.16305e-06)
(0.000606317 -0.00410853 -5.29218e-06)
(0.000619165 -0.00400687 -5.40431e-06)
(0.000629863 -0.00389889 -5.49767e-06)
(0.000638224 -0.0037848 -5.57063e-06)
(0.000644069 -0.00366484 -5.62165e-06)
(0.000647247 -0.00353936 -5.64939e-06)
(0.00064763 -0.00340873 -5.65275e-06)
(0.000645112 -0.00327339 -5.6308e-06)
(0.000639596 -0.00313385 -5.58263e-06)
(0.000631008 -0.00299066 -5.50771e-06)
(0.00061932 -0.00284445 -5.40574e-06)
(0.000604559 -0.00269586 -5.27695e-06)
(0.000586782 -0.0025456 -5.12183e-06)
(0.000566083 -0.00239435 -4.94121e-06)
(0.000542593 -0.00224285 -4.73624e-06)
(0.000516483 -0.00209183 -4.50839e-06)
(0.000487965 -0.00194201 -4.25952e-06)
(0.000457274 -0.00179407 -3.99167e-06)
(0.000424677 -0.00164864 -3.7072e-06)
(0.000390481 -0.00150634 -3.40876e-06)
(0.000355004 -0.00136765 -3.09912e-06)
(0.000318585 -0.00123301 -2.78126e-06)
(0.000281578 -0.00110271 -2.45826e-06)
(0.000244356 -0.000976914 -2.13339e-06)
(0.000207311 -0.000855605 -1.81004e-06)
(0.000170852 -0.000738526 -1.49181e-06)
(0.000135424 -0.000625111 -1.18257e-06)
(0.000101547 -0.000514406 -8.86858e-07)
(6.98615e-05 -0.000404912 -6.10259e-07)
(4.13008e-05 -0.000294599 -3.60913e-07)
(1.73997e-05 -0.000180764 -1.52342e-07)
(1.4957e-06 -6.14576e-05 -1.61234e-08)
(2.58303e-05 -0.0044994 -2.25336e-07)
(8.5567e-06 -0.00459202 -7.37944e-08)
(6.77602e-05 -0.00469009 -6.00245e-07)
(4.79317e-05 -0.00472175 -4.20945e-07)
(0.000106403 -0.00479007 -9.23264e-07)
(9.77467e-05 -0.00482715 -8.54358e-07)
(0.000141715 -0.00485365 -1.24552e-06)
(0.000150184 -0.00489295 -1.31232e-06)
(0.000187327 -0.00490637 -1.63014e-06)
(0.000196219 -0.00492916 -1.71212e-06)
(0.00022972 -0.00493484 -2.00395e-06)
(0.000247952 -0.00494255 -2.16301e-06)
(0.000278084 -0.00494117 -2.42698e-06)
(0.000296665 -0.00493635 -2.58933e-06)
(0.000323392 -0.00492437 -2.82249e-06)
(0.000346816 -0.00490797 -3.02704e-06)
(0.000372402 -0.0048855 -3.2504e-06)
(0.000397439 -0.00485781 -3.46898e-06)
(0.000422407 -0.00482427 -3.68694e-06)
(0.000447335 -0.00478497 -3.90455e-06)
(0.000471707 -0.00473957 -4.11728e-06)
(0.000495615 -0.00468798 -4.32596e-06)
(0.000518733 -0.00463001 -4.52773e-06)
(0.000540996 -0.00456555 -4.72205e-06)
(0.000562178 -0.0044945 -4.90692e-06)
(0.0005821 -0.00441678 -5.08079e-06)
(0.000600556 -0.00433235 -5.24186e-06)
(0.000617335 -0.00424122 -5.3883e-06)
(0.000632233 -0.00414346 -5.51832e-06)
(0.000645043 -0.00403915 -5.63013e-06)
(0.000655567 -0.00392846 -5.72199e-06)
(0.000663613 -0.00381162 -5.7922e-06)
(0.000669002 -0.00368889 -5.83924e-06)
(0.00067158 -0.00356062 -5.86177e-06)
(0.000671227 -0.00342721 -5.8587e-06)
(0.000667839 -0.00328914 -5.82917e-06)
(0.00066133 -0.00314691 -5.77233e-06)
(0.000651632 -0.00300113 -5.68773e-06)
(0.000638733 -0.00285241 -5.57519e-06)
(0.000622673 -0.00270144 -5.43507e-06)
(0.000603528 -0.00254893 -5.26802e-06)
(0.000581409 -0.00239559 -5.07501e-06)
(0.000556466 -0.00224217 -4.85735e-06)
(0.000528888 -0.0020894 -4.61668e-06)
(0.000498906 -0.00193802 -4.35504e-06)
(0.000466776 -0.00178871 -4.07463e-06)
(0.000432781 -0.00164211 -3.77795e-06)
(0.000397243 -0.00149882 -3.4678e-06)
(0.000360495 -0.00135935 -3.14707e-06)
(0.000322889 -0.00122411 -2.81884e-06)
(0.000284786 -0.00109339 -2.48628e-06)
(0.000246569 -0.00096735 -2.15272e-06)
(0.000208635 -0.00084597 -1.82161e-06)
(0.000171401 -0.000728991 -1.49661e-06)
(0.000135321 -0.000615852 -1.18168e-06)
(0.000100937 -0.000505621 -8.81539e-07)
(6.89176e-05 -0.000396849 -6.02023e-07)
(4.02745e-05 -0.000287624 -3.51953e-07)
(1.65876e-05 -0.00017551 -1.45237e-07)
(1.29727e-06 -5.9052e-05 -1.41964e-08)
(2.99133e-05 -0.00456068 -2.60946e-07)
(-2.11648e-07 -0.00466736 2.41487e-09)
(8.95095e-05 -0.00476815 -7.69627e-07)
(3.29053e-05 -0.00481197 -2.74259e-07)
(0.000117473 -0.00488857 -1.0521e-06)
(8.94869e-05 -0.00491836 -7.78157e-07)
(0.000148712 -0.00494633 -1.29689e-06)
(0.000147403 -0.00497357 -1.29643e-06)
(0.000193063 -0.00498389 -1.67736e-06)
(0.000198749 -0.00499893 -1.73541e-06)
(0.000237341 -0.00500228 -2.07052e-06)
(0.000255091 -0.00500704 -2.22559e-06)
(0.000288285 -0.00500513 -2.51604e-06)
(0.000310105 -0.0049993 -2.70641e-06)
(0.000339006 -0.00498688 -2.9588e-06)
(0.000364156 -0.00496962 -3.17836e-06)
(0.000391313 -0.0049462 -3.41542e-06)
(0.000417674 -0.00491729 -3.64556e-06)
(0.000443858 -0.00488235 -3.8741e-06)
(0.00046996 -0.00484147 -4.10191e-06)
(0.00049541 -0.00479431 -4.32404e-06)
(0.000520299 -0.00474084 -4.54126e-06)
(0.000544262 -0.00468083 -4.75041e-06)
(0.000567287 -0.0046142 -4.95138e-06)
(0.000589098 -0.00454084 -5.14175e-06)
(0.000609544 -0.0044607 -5.32021e-06)
(0.000628384 -0.00437373 -5.48466e-06)
(0.000645422 -0.00427997 -5.63337e-06)
(0.00066043 -0.00417947 -5.76436e-06)
(0.000673206 -0.00407236 -5.87589e-06)
(0.000683542 -0.00395881 -5.96611e-06)
(0.000691245 -0.00383906 -6.03335e-06)
(0.000696133 -0.00371341 -6.07603e-06)
(0.000698058 -0.00358221 -6.09285e-06)
(0.000696897 -0.0034459 -6.08276e-06)
(0.000692558 -0.00330497 -6.04493e-06)
(0.000684963 -0.00315995 -5.97861e-06)
(0.000674052 -0.00301147 -5.88343e-06)
(0.00065983 -0.00286016 -5.75934e-06)
(0.000642354 -0.00270674 -5.60686e-06)
(0.000621717 -0.00255193 -5.42679e-06)
(0.000598051 -0.00239645 -5.22028e-06)
(0.000571526 -0.00224107 -4.98882e-06)
(0.000542352 -0.00208653 -4.73423e-06)
(0.000510782 -0.00193359 -4.45872e-06)
(0.00047709 -0.00178291 -4.16469e-06)
(0.00044158 -0.00163515 -3.85478e-06)
(0.000404591 -0.00149089 -3.53196e-06)
(0.000366471 -0.00135065 -3.19926e-06)
(0.000327584 -0.00121484 -2.85985e-06)
(0.000288304 -0.00108373 -2.517e-06)
(0.000249019 -0.000957481 -2.17412e-06)
(0.000210137 -0.000836067 -1.83474e-06)
(0.000172083 -0.000719227 -1.50257e-06)
(0.00013532 -0.000606408 -1.18168e-06)
(0.000100412 -0.000496702 -8.76964e-07)
(6.80588e-05 -0.000388715 -5.9453e-07)
(3.93422e-05 -0.000280659 -3.43813e-07)
(1.5871e-05 -0.000170356 -1.38968e-07)
(1.13119e-06 -5.67725e-05 -1.25785e-08)
(3.16143e-05 -0.00463841 -2.75691e-07)
(-1.40469e-07 -0.00474253 1.06928e-09)
(9.23253e-05 -0.00482341 -7.97785e-07)
(3.83472e-05 -0.00487305 -3.24785e-07)
(0.000129846 -0.00493063 -1.15448e-06)
(9.96925e-05 -0.00495559 -8.60996e-07)
(0.000166763 -0.0050041 -1.45416e-06)
(0.000159176 -0.00502656 -1.39885e-06)
(0.000210607 -0.00505516 -1.8329e-06)
(0.000211651 -0.00506912 -1.84716e-06)
(0.000252987 -0.00507777 -2.20899e-06)
(0.000269322 -0.0050802 -2.34896e-06)
(0.000304283 -0.00507734 -2.65619e-06)
(0.000326942 -0.00506924 -2.85321e-06)
(0.00035737 -0.00505532 -3.11909e-06)
(0.000383657 -0.0050362 -3.3485e-06)
(0.000412222 -0.00501112 -3.59792e-06)
(0.00043976 -0.00498046 -3.83825e-06)
(0.000467234 -0.00494369 -4.07804e-06)
(0.000494458 -0.00490089 -4.31561e-06)
(0.000521021 -0.00485174 -4.54743e-06)
(0.000546899 -0.00479615 -4.77328e-06)
(0.000571815 -0.00473391 -4.99075e-06)
(0.00059564 -0.00466492 -5.1987e-06)
(0.000618156 -0.00458908 -5.39524e-06)
(0.000639159 -0.00450633 -5.57857e-06)
(0.000658431 -0.00441665 -5.74681e-06)
(0.000675744 -0.00432007 -5.89793e-06)
(0.000690877 -0.00421666 -6.03004e-06)
(0.000703613 -0.00410658 -6.14124e-06)
(0.000713745 -0.00399 -6.22969e-06)
(0.000721072 -0.00386718 -6.29366e-06)
(0.000725416 -0.00373844 -6.3316e-06)
(0.000726625 -0.00360416 -6.34219e-06)
(0.000724586 -0.00346481 -6.32443e-06)
(0.000719212 -0.00332089 -6.27756e-06)
(0.000710433 -0.00317297 -6.20093e-06)
(0.000698205 -0.00302167 -6.09425e-06)
(0.000682546 -0.00286769 -5.95763e-06)
(0.000663535 -0.00271174 -5.79176e-06)
(0.000641284 -0.00255456 -5.5976e-06)
(0.000615946 -0.00239689 -5.3765e-06)
(0.000587714 -0.00223952 -5.13014e-06)
(0.00055682 -0.0020832 -4.86053e-06)
(0.00052354 -0.00192867 -4.5701e-06)
(0.000488169 -0.00177663 -4.26142e-06)
(0.000451033 -0.00162771 -3.93732e-06)
(0.000412489 -0.00148251 -3.60092e-06)
(0.000372902 -0.00134153 -3.25541e-06)
(0.000332648 -0.00120517 -2.90407e-06)
(0.000292114 -0.00107371 -2.55028e-06)
(0.000251698 -0.00094729 -2.19752e-06)
(0.000211815 -0.000825882 -1.8494e-06)
(0.000172899 -0.000709224 -1.50971e-06)
(0.000135426 -0.000596772 -1.18262e-06)
(9.99829e-05 -0.000487647 -8.73221e-07)
(6.72954e-05 -0.000380513 -5.87868e-07)
(3.85089e-05 -0.000273705 -3.36536e-07)
(1.52458e-05 -0.000165297 -1.33498e-07)
(9.93077e-07 -5.46023e-05 -1.12285e-08)
(3.08526e-05 -0.00471032 -2.68699e-07)
(1.82212e-06 -0.00482316 -1.53439e-08)
(9.5856e-05 -0.00491253 -8.29281e-07)
(4.04035e-05 -0.00497797 -3.44247e-07)
(0.000136655 -0.00503952 -1.21571e-06)
(0.000102036 -0.0050669 -8.84322e-07)
(0.000174321 -0.00510806 -1.52348e-06)
(0.000165816 -0.00511476 -1.45162e-06)
(0.00021901 -0.005136 -1.90955e-06)
(0.00022646 -0.00514205 -1.98029e-06)
(0.000266859 -0.00514941 -2.3257e-06)
(0.000286472 -0.0051503 -2.50211e-06)
(0.000320918 -0.00514814 -2.79963e-06)
(0.000345852 -0.00513907 -3.01898e-06)
(0.000377083 -0.00512497 -3.29078e-06)
(0.000404899 -0.00510459 -3.53401e-06)
(0.000434726 -0.00507843 -3.79421e-06)
(0.000463609 -0.00504619 -4.04638e-06)
(0.000492342 -0.00500775 -4.29707e-06)
(0.000520794 -0.00496306 -4.54536e-06)
(0.000548522 -0.00491183 -4.78732e-06)
(0.000575494 -0.004854 -5.02271e-06)
(0.000601385 -0.00478936 -5.24869e-06)
(0.000626091 -0.00471785 -5.46434e-06)
(0.000649345 -0.00463934 -5.66733e-06)
(0.000670962 -0.0045538 -5.85604e-06)
(0.000690687 -0.00446121 -6.02823e-06)
(0.000708299 -0.00436163 -6.18199e-06)
(0.000723558 -0.00425513 -6.31521e-06)
(0.000736247 -0.00414187 -6.42601e-06)
(0.00074615 -0.00402208 -6.51248e-06)