/*--------------------------------*- C++ -*----------------------------------*\
| =========                 |                                                 |
| \\      /  F ield         | OpenFOAM: The Open Source CFD Toolbox           |
|  \\    /   O peration     | Version:  v2012                                 |
|   \\  /    A nd           | Website:  www.openfoam.com                      |
|    \\/     M anipulation  |                                                 |
\*---------------------------------------------------------------------------*/
FoamFile
{
    version     2.0;
    format      ascii;
    class       surfaceScalarField;
    location    "0.1";
    object      phi;
}
// * * * * * * * * * * * * * * * * * * * * * * * * * * * * * * * * * * * * * //

dimensions      [0 3 -1 0 0 0 0];
oriented        oriented;


internalField   nonuniform List<scalar> 
8134
(
-4.01147e-08
-7.36287e-09
-1.30227e-14
-3.38754e-08
-6.23925e-09
-1.03743e-14
-2.85529e-08
-5.32244e-09
-1.08571e-14
-2.40008e-08
-4.55212e-09
-9.88289e-15
-2.01064e-08
-3.89434e-09
-8.9776e-15
-1.6781e-08
-3.3254e-09
-8.40575e-15
-1.39498e-08
-2.83115e-09
-7.11532e-15
-1.15488e-08
-2.40106e-09
-5.50233e-15
-9.52094e-09
-2.0278e-09
-4.26829e-15
-7.81572e-09
-1.70519e-09
-3.04178e-15
-6.38802e-09
-1.4277e-09
-2.25885e-15
-5.19742e-09
-1.1906e-09
-1.68684e-15
-4.20852e-09
-9.88911e-10
-1.38751e-15
-3.39019e-09
-8.18309e-10
-1.25373e-15
-2.71556e-09
-6.74616e-10
-5.59615e-16
-2.16154e-09
-5.54025e-10
1.55726e-17
-1.70837e-09
-4.53169e-10
1.79557e-16
-1.3393e-09
-3.69077e-10
-1.42847e-16
-1.04012e-09
-2.99182e-10
-1.85589e-16
-7.98875e-10
-2.41248e-10
-8.91242e-17
-6.05477e-10
-1.93404e-10
5.06102e-16
-4.51441e-10
-1.54038e-10
4.29975e-16
-3.29691e-10
-1.21755e-10
4.79437e-16
-2.34236e-10
-9.54553e-11
5.47356e-16
-1.60137e-10
-7.41e-11
7.03851e-16
-1.03256e-10
-5.68795e-11
6.88241e-16
-6.02072e-11
-4.30473e-11
5.76197e-16
-2.80669e-11
-3.21385e-11
4.92838e-16
-4.6612e-12
-2.34036e-11
4.6521e-16
1.19769e-11
-1.66365e-11
3.8658e-16
2.3302e-11
-1.13236e-11
3.08487e-16
3.05388e-11
-7.2362e-12
1.38533e-16
3.46235e-11
-4.0848e-12
2.62888e-17
3.62589e-11
-1.63686e-12
1.79782e-18
3.59659e-11
2.91184e-13
-4.61465e-17
3.40881e-11
1.87558e-12
-1.51283e-16
3.08048e-11
3.28088e-12
-2.04437e-16
2.61905e-11
4.6121e-12
-1.79933e-16
2.03172e-11
5.87148e-12
-1.51753e-16
1.33798e-11
6.93599e-12
-1.16406e-16
6.1573e-12
7.22146e-12
-9.18707e-17
5.6241e-13
5.59421e-12
-6.88054e-17
5.61926e-13
-4.82794e-17
-5.22403e-08
-1.37696e-08
-2.71996e-15
-4.64354e-08
-1.20441e-08
-2.05545e-15
-4.11582e-08
-1.05996e-08
-2.06923e-15
-3.63501e-08
-9.36032e-09
-2.70802e-15
-3.19649e-08
-8.27938e-09
-2.96861e-15
-2.79697e-08
-7.32066e-09
-3.09657e-15
-2.43384e-08
-6.46247e-09
-3.18164e-15
-2.10511e-08
-5.68837e-09
-3.065e-15
-1.80905e-08
-4.98839e-09
-2.52675e-15
-1.54403e-08
-4.3553e-09
-2.46804e-15
-1.30844e-08
-3.78361e-09
-2.27928e-15
-1.1005e-08
-3.26999e-09
-1.75842e-15
-9.18377e-09
-2.8102e-09
-1.47179e-15
-7.60078e-09
-2.40126e-09
-1.42161e-15
-6.2357e-09
-2.03968e-09
-6.45104e-16
-5.06783e-09
-1.7219e-09
-8.47742e-17
-4.07659e-09
-1.44441e-09
1.11818e-16
-3.24205e-09
-1.20363e-09
-1.81657e-16
-2.54516e-09
-9.96069e-10
-1.60446e-16
-1.96817e-09
-8.18232e-10
-3.38333e-17
-1.4947e-09
-6.66887e-10
6.33737e-16
-1.10981e-09
-5.3893e-10
4.27849e-16
-8.00169e-10
-4.31401e-10
1.65953e-16
-5.53749e-10
-3.41874e-10
1.38953e-16
-3.60153e-10
-2.67697e-10
4.02704e-17
-2.10206e-10
-2.06824e-10
1.76315e-17
-9.60675e-11
-1.57183e-10
4.87822e-17
-1.10352e-11
-1.17168e-10
1.47175e-17
5.07136e-11
-8.51499e-11
3.48431e-17
9.37487e-11
-5.96691e-11
-6.10868e-17
1.2208e-10
-3.96526e-11
-8.88586e-17
1.38879e-10
-2.40341e-11
-2.50526e-16
1.46685e-10
-1.18903e-11
-2.83577e-16
1.47456e-10
-2.40965e-12
-1.93842e-16
1.42609e-10
5.13711e-12
-1.58185e-16
1.33098e-10
1.13839e-11
-1.87522e-16
1.19476e-10
1.68997e-11
-1.96677e-16
1.02006e-10
2.20807e-11
-1.57685e-16
8.09126e-11
2.69624e-11
-1.15016e-16
5.68334e-11
3.10137e-11
-6.84867e-17
3.17166e-11
3.23372e-11
-3.74544e-17
1.00662e-11
2.72437e-11
-2.867e-17
1.06276e-11
-2.02229e-17
-5.1002e-08
-1.86604e-08
-4.36984e-16
-4.63971e-08
-1.66489e-08
-6.26867e-16
-4.20759e-08
-1.49208e-08
-4.38556e-16
-3.80241e-08
-1.34122e-08
-1.00345e-15
-3.42253e-08
-1.20781e-08
-1.27412e-15
-3.06659e-08
-1.08801e-08
-1.09346e-15
-2.7335e-08
-9.79337e-09
-1.09845e-15
-2.42258e-08
-8.79753e-09
-1.03514e-15
-2.13344e-08
-7.87983e-09
-1.03999e-15
-1.86586e-08
-7.031e-09
-1.55279e-15
-1.61978e-08
-6.24452e-09
-1.6584e-15
-1.395e-08
-5.51777e-09
-1.25502e-15
-1.1913e-08
-4.8472e-09
-1.30451e-15
-1.00824e-08
-4.23183e-09
-1.38947e-15
-8.45182e-09
-3.67022e-09
-6.93489e-16
-7.01285e-09
-3.16088e-09
-2.74754e-16
-5.75496e-09
-2.7023e-09
-1.62119e-16
-4.66608e-09
-2.29254e-09
-2.9563e-16
-3.73279e-09
-1.92937e-09
-1.81042e-16
-2.94098e-09
-1.61003e-09
-1.17596e-16
-2.27626e-09
-1.33162e-09
1.48179e-17
-1.72425e-09
-1.09094e-09
-5.74972e-17
-1.27118e-09
-8.84483e-10
-7.6188e-17
-9.03679e-10
-7.09369e-10
-3.92174e-17
-6.09627e-10
-5.61751e-10
3.04227e-20
-3.77726e-10
-4.38723e-10
-4.70435e-17
-1.97933e-10
-3.36973e-10
-1.68533e-16
-6.13858e-11
-2.53713e-10
-3.65655e-16
3.98816e-11
-1.86414e-10
-4.43581e-16
1.12409e-10
-1.32193e-10
-4.62558e-16
1.61923e-10
-8.91648e-11
-4.00105e-16
1.93118e-10
-5.52275e-11
-4.30702e-16
2.09802e-10
-2.85734e-11
-4.1188e-16
2.14959e-10
-7.56846e-12
-3.27264e-16
2.10809e-10
9.28595e-12
-2.5847e-16
1.98872e-10
2.33188e-11
-2.10062e-16
1.80068e-10
3.57001e-11
-1.8598e-16
1.54902e-10
4.72445e-11
-1.54202e-16
1.23827e-10
5.80353e-11
-1.13736e-16
8.79513e-11
6.68882e-11
-7.33408e-17
5.02214e-11
7.00661e-11
-3.02476e-17
1.71179e-11
6.03461e-11
2.0298e-17
2.7745e-11
2.09699e-18
-4.69708e-08
-2.22939e-08
-1.96299e-15
-4.33841e-08
-2.02355e-08
-1.936e-15
-3.9902e-08
-1.8403e-08
-2.06529e-15
-3.65531e-08
-1.67611e-08
-2.09741e-15
-3.33505e-08
-1.52807e-08
-1.61004e-15
-3.02991e-08
-1.39315e-08
-1.3086e-15
-2.73989e-08
-1.26935e-08
-1.51245e-15
-2.46494e-08
-1.1547e-08
-1.10935e-15
-2.20501e-08
-1.04792e-08
-9.94619e-16
-1.96014e-08
-9.47962e-09
-1.3322e-15
-1.73054e-08
-8.54061e-09
-1.47601e-15
-1.51639e-08
-7.6592e-09
-1.3956e-15
-1.31799e-08
-6.83128e-09
-1.94818e-15
-1.13551e-08
-6.05655e-09
-2.36307e-15
-9.69074e-09
-5.33459e-09
-1.47047e-15
-8.18624e-09
-4.66538e-09
-1.16122e-15
-6.83925e-09
-4.04929e-09
-8.999e-16
-5.64549e-09
-3.48633e-09
-9.71394e-16
-4.59858e-09
-2.97627e-09
-7.44866e-16
-3.6905e-09
-2.51809e-09
-7.14459e-16
-2.91177e-09
-2.11036e-09
-4.46031e-16
-2.25174e-09
-1.75095e-09
-4.15089e-16
-1.69929e-09
-1.43695e-09
-3.89126e-16
-1.24261e-09
-1.16604e-09
-3.04473e-16
-8.70397e-10
-9.33972e-10
-2.24424e-16
-5.71411e-10
-7.37705e-10
-1.78415e-16
-3.35233e-10
-5.73149e-10
-1.46939e-16
-1.5222e-10
-4.36725e-10
-1.51639e-16
-1.35934e-11
-3.25038e-10
-1.85673e-16
8.85079e-11
-2.34292e-10
-2.53619e-16
1.60679e-10
-1.61334e-10
-2.64643e-16
2.08683e-10
-1.03231e-10
-3.56339e-16
2.37253e-10
-5.71423e-11
-3.7419e-16
2.50158e-10
-2.0475e-11
-3.43703e-16
2.50261e-10
9.18178e-12
-3.09058e-16
2.39562e-10
3.40152e-11
-2.51537e-16
2.19324e-10
5.5935e-11
-2.03212e-16
1.903e-10
7.62668e-11
-1.81879e-16
1.53195e-10
9.51385e-11
-1.34415e-16
1.09557e-10
1.10525e-10
-9.39521e-17
6.31687e-11
1.16453e-10
-6.177e-17
2.20094e-11
1.01504e-10
-3.46843e-17
4.97539e-11
-1.34633e-17
-4.23631e-08
-2.49043e-08
-8.0417e-17
-3.96326e-08
-2.29658e-08
-6.41203e-16
-3.68667e-08
-2.1169e-08
-1.25619e-15
-3.41216e-08
-1.95063e-08
-1.75808e-15
-3.14342e-08
-1.7968e-08
-2.08247e-15
-2.88281e-08
-1.65376e-08
-2.11437e-15
-2.63171e-08
-1.52046e-08
-2.54419e-15
-2.39094e-08
-1.39547e-08
-1.91612e-15
-2.16097e-08
-1.27788e-08
-1.32452e-15
-1.94212e-08
-1.16681e-08
-1.5046e-15
-1.73467e-08
-1.06152e-08
-1.31524e-15
-1.53885e-08
-9.61742e-09
-1.18266e-15
-1.35497e-08
-8.67011e-09
-1.70535e-15
-1.18332e-08
-7.773e-09
-1.73822e-15
-1.0242e-08
-6.92579e-09
-1.45893e-15
-8.77845e-09
-6.12892e-09
-1.73302e-15
-7.44405e-09
-5.38368e-09
-1.88464e-15
-6.23902e-09
-4.69138e-09
-1.72985e-15
-5.16192e-09
-4.05338e-09
-1.47772e-15
-4.20968e-09
-3.47031e-09
-1.39798e-15
-3.37753e-09
-2.94251e-09
-1.05183e-15
-2.65907e-09
-2.46941e-09
-8.88745e-16
-2.04673e-09
-2.0493e-09
-7.48074e-16
-1.53153e-09
-1.68123e-09
-5.77553e-16
-1.10427e-09
-1.36124e-09
-4.40307e-16
-7.55131e-10
-1.08684e-09
-3.49257e-16
-4.7452e-10
-8.53758e-10
-2.78258e-16
-2.53134e-10
-6.58111e-10
-2.67061e-16
-8.20926e-11
-4.96076e-10
-2.65332e-16
4.66117e-11
-3.62995e-10
-3.03244e-16
1.40168e-10
-2.54889e-10
-3.03486e-16
2.04863e-10
-1.67925e-10
-3.74855e-16
2.45987e-10
-9.82665e-11
-3.87674e-16
2.67849e-10
-4.23381e-11
-3.70572e-16
2.73769e-10
3.26022e-12
-3.36972e-16
2.66125e-10
4.16574e-11
-2.7094e-16
2.46459e-10
7.55971e-11
-2.19948e-16
2.1575e-10
1.06974e-10
-2.01487e-16
1.74941e-10
1.35946e-10
-1.56714e-16
1.25953e-10
1.59511e-10
-1.08811e-16
7.32346e-11
1.69171e-10
-8.00999e-17
2.58852e-11
1.48853e-10
-5.63289e-17
7.56386e-11
-2.50689e-17
-3.7677e-08
-2.66684e-08
-8.94403e-16
-3.56823e-08
-2.49604e-08
-1.325e-15
-3.35486e-08
-2.33027e-08
-1.25993e-15
-3.13447e-08
-2.17102e-08
-1.10523e-15
-2.91219e-08
-2.01907e-08
-1.10064e-15
-2.69174e-08
-1.87421e-08
-1.36759e-15
-2.47569e-08
-1.7365e-08
-1.78407e-15
-2.26584e-08
-1.60533e-08
-2.05233e-15
-2.06335e-08
-1.48037e-08
-2.13794e-15
-1.86899e-08
-1.36115e-08
-2.28028e-15
-1.68333e-08
-1.24718e-08
-1.82084e-15
-1.50671e-08
-1.13837e-08
-1.39104e-15
-1.33945e-08
-1.03427e-08
-1.63787e-15
-1.18183e-08
-9.34914e-09
-1.37672e-15
-1.03415e-08
-8.40261e-09
-1.1209e-15
-8.96677e-09
-7.50363e-09
-1.21304e-15
-7.69666e-09
-6.65379e-09
-1.71579e-15
-6.53313e-09
-5.85494e-09
-2.05254e-15
-5.47718e-09
-5.10932e-09
-1.96755e-15
-4.52878e-09
-4.41869e-09
-1.78975e-15
-3.6865e-09
-3.7848e-09
-1.62974e-15
-2.94733e-09
-3.20856e-09
-1.31598e-15
-2.30702e-09
-2.68962e-09
-1.06614e-15
-1.75951e-09
-2.22873e-09
-8.40237e-16
-1.29813e-09
-1.82262e-09
-6.55966e-16
-9.15051e-10
-1.46992e-09
-5.23871e-16
-6.022e-10
-1.16661e-09
-4.15889e-16
-3.513e-10
-9.09011e-10
-3.82977e-16
-1.54069e-10
-6.93304e-10
-3.52579e-16
-2.88271e-12
-5.14179e-10
-3.45677e-16
1.09654e-10
-3.67424e-10
-3.45811e-16
1.89755e-10
-2.48026e-10
-3.95133e-16
2.43021e-10
-1.51533e-10
-4.0575e-16
2.74055e-10
-7.33738e-11
-3.93193e-16
2.8646e-10
-9.14633e-12
-3.5659e-16
2.82869e-10
4.52469e-11
-2.82861e-16
2.65033e-10
9.34302e-11
-2.28521e-16
2.34109e-10
1.37895e-10
-1.96723e-16
1.9124e-10
1.78813e-10
-1.49257e-16
1.3865e-10
2.121e-10
-1.00834e-16
8.12877e-11
2.26533e-10
-6.44527e-17
2.90871e-11
2.01053e-10
-3.95417e-17
1.04725e-10
-1.88601e-17
-3.31936e-08
-2.778e-08
-6.62224e-17
-3.17992e-08
-2.63547e-08
-6.87189e-16
-3.02041e-08
-2.48979e-08
-8.69019e-16
-2.84765e-08
-2.34378e-08
-8.89381e-16
-2.66715e-08
-2.19957e-08
-9.32387e-16
-2.48327e-08
-2.05809e-08
-1.14596e-15
-2.29933e-08
-1.92044e-08
-1.42369e-15
-2.11781e-08
-1.78685e-08
-1.43332e-15
-1.94051e-08
-1.65766e-08
-1.60788e-15
-1.76872e-08
-1.53294e-08
-1.82572e-15
-1.60334e-08
-1.41256e-08
-2.19556e-15
-1.44495e-08
-1.29675e-08
-1.97434e-15
-1.29401e-08
-1.18522e-08
-1.96759e-15
-1.15082e-08
-1.0781e-08
-1.40998e-15
-1.01568e-08
-9.75406e-09
-1.06143e-15
-8.88829e-09
-8.77213e-09
-8.6476e-16
-7.70519e-09
-7.83689e-09
-1.17754e-15
-6.60978e-09
-6.95037e-09
-1.74306e-15
-5.60389e-09
-6.11521e-09
-2.06607e-15
-4.68886e-09
-5.3337e-09
-1.98463e-15
-3.86515e-09
-4.60852e-09
-1.85336e-15
-3.13205e-09
-3.94165e-09
-1.6933e-15
-2.48778e-09
-3.33391e-09
-1.31846e-15
-1.92879e-09
-2.78771e-09
-1.08982e-15
-1.45077e-09
-2.30065e-09
-8.70092e-16
-1.04798e-09
-1.87271e-09
-6.96998e-16
-7.14091e-10
-1.50049e-09
-5.57922e-16
-4.42224e-10
-1.18088e-09
-5.02082e-16
-2.25091e-10
-9.10432e-10
-4.47585e-16
-5.57134e-11
-6.83556e-10
-4.16857e-16
7.27417e-11
-4.95878e-10
-3.87144e-16
1.66462e-10
-3.41747e-10
-4.20795e-16
2.30975e-10
-2.16044e-10
-4.25294e-16
2.7095e-10
-1.13351e-10
-4.13194e-16
2.90106e-10
-2.83042e-11
-3.75127e-16
2.91212e-10
4.41397e-11
-3.01707e-16
2.76146e-10
1.08493e-10
-2.39432e-16
2.46193e-10
1.67846e-10
-2.00866e-16
2.02646e-10
2.22358e-10
-1.52971e-16
1.47952e-10
2.66793e-10
-1.02951e-16
8.74253e-11
2.87059e-10
-6.64138e-17
3.16126e-11
2.56864e-10
-4.0127e-17
1.36337e-10
-1.81734e-17
-2.9028e-08
-2.83992e-08
2.09436e-18
-2.81099e-08
-2.72728e-08
-5.36859e-16
-2.6961e-08
-2.60468e-08
-6.52715e-16
-2.56423e-08
-2.47565e-08
-5.71648e-16
-2.42065e-08
-2.34316e-08
-5.78001e-16
-2.26979e-08
-2.20895e-08
-7.94529e-16
-2.11525e-08
-2.07498e-08
-1.09497e-15
-1.95991e-08
-1.94219e-08
-1.17291e-15
-1.80598e-08
-1.81159e-08
-1.36897e-15
-1.65512e-08
-1.68379e-08
-1.52505e-15
-1.5086e-08
-1.55909e-08
-1.69548e-15
-1.36726e-08
-1.43809e-08
-1.68918e-15
-1.23174e-08
-1.32074e-08
-2.20097e-15
-1.10245e-08
-1.20738e-08
-1.85622e-15
-9.79727e-09
-1.09813e-08
-1.27164e-15
-8.63825e-09
-9.93116e-09
-8.98964e-16
-7.54972e-09
-8.92543e-09
-8.99404e-16
-6.53385e-09
-7.96626e-09
-1.34413e-15
-5.59256e-09
-7.05649e-09
-1.60341e-15
-4.7276e-09
-6.19864e-09
-2.0142e-15
-3.94027e-09
-5.39585e-09
-2.00407e-15
-3.23113e-09
-4.65077e-09
-1.9025e-15
-2.60004e-09
-3.96501e-09
-1.63815e-15
-2.0453e-09
-3.34243e-09
-1.28394e-15
-1.56454e-09
-2.78141e-09
-1.07866e-15
-1.15389e-09
-2.28335e-09
-8.7396e-16
-8.08747e-10
-1.84563e-09
-6.9967e-16
-5.23694e-10
-1.46593e-09
-6.20169e-16
-2.92645e-10
-1.14148e-09
-5.44489e-16
-1.09538e-10
-8.66663e-10
-4.90717e-16
3.17744e-11
-6.37189e-10
-4.44024e-16
1.37076e-10
-4.47048e-10
-4.59599e-16
2.11642e-10
-2.90611e-10
-4.52801e-16
2.60031e-10
-1.61741e-10
-4.34432e-16
2.85925e-10
-5.42001e-11
-3.90703e-16
2.92116e-10
3.79467e-11
-3.15388e-16
2.80534e-10
1.20072e-10
-2.48558e-16
2.52528e-10
1.9585e-10
-2.04589e-16
2.09492e-10
2.65393e-10
-1.56023e-16
1.5402e-10
3.22264e-10
-1.04563e-16
9.16745e-11
3.49403e-10
-6.79583e-17
3.34389e-11
3.15099e-10
-4.16737e-17
1.69776e-10
-1.89626e-17
-2.52519e-08
-2.86661e-08
-1.58676e-16
-2.46959e-08
-2.78287e-08
-3.29717e-16
-2.39032e-08
-2.68395e-08
-3.28213e-16
-2.29242e-08
-2.57355e-08
-4.27853e-16
-2.18054e-08
-2.45504e-08
-5.73669e-16
-2.05881e-08
-2.33068e-08
-7.50556e-16
-1.93077e-08
-2.20302e-08
-9.39731e-16
-1.79938e-08
-2.07358e-08
-9.61998e-16
-1.66705e-08
-1.94393e-08
-1.09901e-15
-1.53567e-08
-1.81517e-08
-1.25364e-15
-1.40673e-08
-1.68803e-08
-1.43351e-15
-1.28133e-08
-1.5635e-08
-1.38875e-15
-1.16026e-08
-1.44181e-08
-1.68942e-15
-1.0441e-08
-1.32353e-08
-1.8131e-15
-9.33262e-09
-1.20897e-08
-1.49628e-15
-8.28036e-09
-1.09834e-08
-1.25095e-15
-7.2866e-09
-9.9192e-09
-9.53619e-16
-6.35342e-09
-8.89946e-09
-1.15687e-15
-5.48266e-09
-7.92725e-09
-1.2417e-15
-4.67608e-09
-7.00519e-09
-1.57598e-15
-3.93525e-09
-6.13668e-09
-1.78148e-15
-3.26129e-09
-5.32472e-09
-1.89535e-15
-2.65497e-09
-4.57135e-09
-1.78567e-15
-2.11582e-09
-3.88157e-09
-1.49632e-15
-1.64292e-09
-3.25433e-09
-1.24292e-15
-1.23391e-09
-2.69235e-09
-1.05237e-15
-8.85703e-10
-2.19384e-09
-8.48701e-16
-5.94286e-10
-1.75735e-09
-7.33458e-16
-3.54796e-10
-1.38096e-09
-6.40481e-16
-1.62202e-10
-1.05926e-09
-5.66927e-16
-1.11805e-11
-7.88209e-10
-5.04909e-16
1.0357e-10
-5.61799e-10
-5.05668e-16
1.86794e-10
-3.73834e-10
-4.83597e-16
2.4283e-10
-2.1778e-10
-4.56025e-16
2.75208e-10
-8.65786e-11
-4.05018e-16
2.8664e-10
2.65128e-11
-3.26898e-16
2.79031e-10
1.27679e-10
-2.56605e-16
2.53741e-10
2.21138e-10
-2.0742e-16
2.12207e-10
3.06924e-10
-1.57815e-16
1.57106e-10
3.77364e-10
-1.05462e-16
9.41443e-11
4.12364e-10
-6.85948e-17
3.45905e-11
3.74652e-10
-4.31903e-17
2.04366e-10
-2.19008e-17
-2.18791e-08
-6.32428e-17
-2.15915e-08
-1.81038e-16
-2.10758e-08
-2.73552e-08
-9.13672e-17
-2.03719e-08
-2.64394e-08
-7.44629e-17
-1.95187e-08
-2.54036e-08
-1.55322e-16
-1.85526e-08
-2.42729e-08
-3.57146e-16
-1.75063e-08
-2.30765e-08
-5.85082e-16
-1.64081e-08
-2.18339e-08
-7.04949e-16
-1.52822e-08
-2.05651e-08
-8.72111e-16
-1.41484e-08
-1.92855e-08
-1.06595e-15
-1.30227e-08
-1.8006e-08
-1.26386e-15
-1.19174e-08
-1.67403e-08
-1.24379e-15
-1.08422e-08
-1.54934e-08
-1.49827e-15
-9.80384e-09
-1.42736e-08
-1.54744e-15
-8.8076e-09
-1.30859e-08
-1.29832e-15
-7.8571e-09
-1.19339e-08
-1.40998e-15
-6.95499e-09
-1.08213e-08
-1.26077e-15
-6.10344e-09
-9.75103e-09
-1.18115e-15
-5.30426e-09
-8.72643e-09
-1.14755e-15
-4.55918e-09
-7.75025e-09
-1.35604e-15
-3.86977e-09
-6.82609e-09
-1.42214e-15
-3.23735e-09
-5.95712e-09
-1.6002e-15
-2.66311e-09
-5.14561e-09
-2.00323e-15
-2.14731e-09
-4.39736e-09
-1.58461e-15
-1.68997e-09
-3.71167e-09
-1.38236e-15
-1.28991e-09
-3.0924e-09
-1.19104e-15
-9.45276e-10
-2.53847e-09
-1.0254e-15
-6.53266e-10
-2.04936e-09
-8.40716e-16
-4.10168e-10
-1.62406e-09
-7.34124e-16
-2.11973e-10
-1.25745e-09
-6.42e-16
-5.41708e-11
-9.4601e-10
-5.70549e-16
6.77413e-11
-6.83711e-10
-5.51497e-16
1.58095e-10
-4.64189e-10
-5.1492e-16
2.20841e-10
-2.80527e-10
-4.76031e-16
2.59248e-10
-1.24986e-10
-4.16392e-16
2.7587e-10
9.8888e-12
-3.3505e-16
2.7252e-10
1.31026e-10
-2.61308e-16
2.50515e-10
2.43142e-10
-2.07473e-16
2.11286e-10
3.46152e-10
-1.56826e-16
1.57527e-10
4.31123e-10
-1.04336e-16
9.49999e-11
4.74891e-10
-6.77343e-17
3.51239e-11
4.34527e-10
-4.35668e-17
2.3949e-10
-2.47439e-17
-1.85011e-08
-2.76614e-08
9.8013e-17
-1.80145e-08
-2.69261e-08
-2.45024e-17
-1.73788e-08
-2.60393e-08
-1.64948e-16
-1.66248e-08
-2.50269e-08
-3.78821e-16
-1.57811e-08
-2.39202e-08
-5.42042e-16
-1.48738e-08
-2.27412e-08
-6.0119e-16
-1.39257e-08
-2.15133e-08
-6.81638e-16
-1.29561e-08
-2.0255e-08
-8.49913e-16
-1.19813e-08
-1.89808e-08
-1.05285e-15
-1.10143e-08
-1.77073e-08
-1.07517e-15
-1.00654e-08
-1.64422e-08
-1.33176e-15
-9.14257e-09
-1.51964e-08
-1.39651e-15
-8.25168e-09
-1.39768e-08
-1.10024e-15
-7.39717e-09
-1.27884e-08
-1.10879e-15
-6.58219e-09
-1.16363e-08
-1.31701e-15
-5.80918e-09
-1.05241e-08
-1.25887e-15
-5.08002e-09
-9.45559e-09
-1.17596e-15
-4.39645e-09
-8.4338e-09
-1.31953e-15
-3.76004e-09
-7.46249e-09
-1.30392e-15
-3.17216e-09
-6.54499e-09
-1.44152e-15
-2.63413e-09
-5.68366e-09
-1.53612e-15
-2.14658e-09
-4.8849e-09
-2.03326e-15
-1.71012e-09
-4.14813e-09
-1.38391e-15
-1.3244e-09
-3.47812e-09
-1.29696e-15
-9.8848e-10
-2.87439e-09
-1.1571e-15
-7.00582e-10
-2.33726e-09
-9.65146e-16
-4.57994e-10
-1.86664e-09
-8.20244e-16
-2.57657e-10
-1.45779e-09
-7.16408e-16
-9.58989e-11
-1.10777e-09
-6.33047e-16
3.10672e-11
-8.10677e-10
-5.99133e-16
1.26989e-10
-5.6011e-10
-5.43224e-16
1.95399e-10
-3.4894e-10
-4.94521e-16
2.39237e-10
-1.68825e-10
-4.26685e-16
2.60833e-10
-1.17092e-11
-3.42299e-16
2.61854e-10
1.30002e-10
-2.65233e-16
2.43526e-10
2.61468e-10
-2.07002e-16
2.07226e-10
3.82451e-10
-1.54969e-16
1.55614e-10
4.82734e-10
-1.02484e-16
9.44274e-11
5.36077e-10
-6.63332e-17
3.51089e-11
4.93845e-10
-4.31446e-17
2.74598e-10
-2.59548e-17
-1.61833e-08
-2.78133e-08
-3.94219e-16
-1.58647e-08
-2.72446e-08
-2.02098e-16
-1.54037e-08
-2.65003e-08
-1.05391e-16
-1.48253e-08
-2.56053e-08
-1.32641e-16
-1.4154e-08
-2.45915e-08
-2.83933e-16
-1.34128e-08
-2.34824e-08
-4.13573e-16
-1.26223e-08
-2.23037e-08
-5.14133e-16
-1.18007e-08
-2.10766e-08
-6.99704e-16
-1.09637e-08
-1.98178e-08
-9.03405e-16
-1.01241e-08
-1.8547e-08
-9.49827e-16
-9.29242e-09
-1.72739e-08
-1.19344e-15
-8.47714e-09
-1.60117e-08
-1.28174e-15
-7.68479e-09
-1.47691e-08
-9.61781e-16
-6.92033e-09
-1.35529e-08
-9.31154e-16
-6.18745e-09
-1.23692e-08
-1.03561e-15
-5.48894e-09
-1.12226e-08
-1.20678e-15
-4.82689e-09
-1.01176e-08
-1.15871e-15
-4.2031e-09
-9.05756e-09
-1.27133e-15
-3.61921e-09
-8.04639e-09
-1.27865e-15
-3.07658e-09
-7.08761e-09
-1.38103e-15
-2.5766e-09
-6.18365e-09
-1.34844e-15
-2.12006e-09
-5.34141e-09
-1.71842e-15
-1.70789e-09
-4.56031e-09
-1.86936e-15
-1.34023e-09
-3.84577e-09
-1.3118e-15
-1.01684e-09
-3.19777e-09
-1.24784e-15
-7.36736e-10
-2.61737e-09
-1.08924e-15
-4.98045e-10
-2.10532e-09
-9.01144e-16
-2.98536e-10
-1.6573e-09
-7.85409e-16
-1.35329e-10
-1.27097e-09
-6.93751e-16
-5.38653e-12
-9.4062e-10
-6.51861e-16
9.46577e-11
-6.60155e-10
-5.60889e-16
1.67647e-10
-4.21931e-10
-5.10028e-16
2.16225e-10
-2.17404e-10
-4.34113e-16
2.42455e-10
-3.79409e-11
-3.46256e-16
2.47816e-10
1.24638e-10
-2.66834e-16
2.33404e-10
2.75879e-10
-2.04719e-16
2.00505e-10
4.15349e-10
-1.5149e-16
1.51694e-10
5.31544e-10
-9.95549e-17
9.26156e-11
5.95155e-10
-6.42879e-17
3.46182e-11
5.51841e-10
-4.19149e-17
3.09216e-10
-2.61098e-17
-1.41153e-08
-2.78545e-08
-1.07853e-16
-1.3924e-08
-2.74359e-08
-2.73739e-17
-1.36007e-08
-2.68235e-08
-6.60973e-17
-1.31655e-08
-2.60405e-08
-8.71263e-17
-1.26387e-08
-2.51184e-08
-1.84052e-16
-1.20398e-08
-2.40813e-08
-3.12559e-16
-1.13871e-08
-2.29564e-08
-3.82961e-16
-1.06971e-08
-2.17666e-08
-5.40565e-16
-9.98422e-09
-2.05307e-08
-7.31488e-16
-9.26074e-09
-1.92705e-08
-8.00011e-16
-8.53701e-09
-1.79976e-08
-1.04495e-15
-7.82139e-09
-1.67273e-08
-1.1703e-15
-7.12074e-09
-1.54697e-08
-8.44815e-16
-6.44039e-09
-1.42333e-08
-7.99312e-16
-5.78441e-09
-1.30251e-08
-8.58902e-16
-5.15599e-09
-1.1851e-08
-1.01772e-15
-4.55747e-09
-1.07161e-08
-1.09206e-15
-3.99083e-09
-9.62419e-09
-1.17297e-15
-3.45774e-09
-8.57948e-09
-1.25729e-15
-2.95965e-09
-7.58569e-09
-1.35514e-15
-2.49798e-09
-6.64534e-09
-1.2765e-15
-2.07362e-09
-5.76577e-09
-1.28373e-15
-1.6876e-09
-4.94633e-09
-1.91081e-15
-1.34038e-09
-4.19298e-09
-1.46735e-15
-1.03219e-09
-3.50596e-09
-1.28343e-15
-7.62637e-10
-2.88693e-09
-1.16439e-15
-5.30515e-10
-2.33744e-09
-1.00092e-15
-3.34295e-10
-1.85352e-09
-8.48579e-16
-1.71786e-10
-1.43348e-09
-7.502e-16
-4.05348e-11
-1.07187e-09
-6.81009e-16
6.20507e-11
-7.62742e-10
-5.94337e-16
1.38533e-10
-4.98415e-10
-5.23816e-16
1.91112e-10
-2.69984e-10
-4.40058e-16
2.21551e-10
-6.83816e-11
-3.49078e-16
2.31111e-10
1.15076e-10
-2.68151e-16
2.20729e-10
2.8626e-10
-2.02387e-16
1.91567e-10
4.44509e-10
-1.4779e-16
1.46077e-10
5.77033e-10
-9.64948e-17
8.97481e-11
6.51484e-10
-6.20344e-17
3.37232e-11
6.07865e-10
-3.98248e-17
3.42939e-10
-2.54083e-17
-1.22828e-08
-2.78189e-08
-2.87201e-16
-1.21858e-08
-2.7533e-08
-2.34754e-16
-1.19694e-08
-2.70399e-08
-2.1891e-16
-1.16493e-08
-2.63606e-08
-1.98819e-16
-1.12418e-08
-2.55259e-08
-2.00706e-16
-1.07633e-08
-2.45598e-08
-2.86348e-16
-1.02296e-08
-2.34901e-08
-3.4825e-16
-9.65515e-09
-2.2341e-08
-4.86195e-16
-9.05301e-09
-2.11328e-08
-6.43689e-16
-8.43441e-09
-1.98891e-08
-7.05173e-16
-7.80909e-09
-1.8623e-08
-9.23883e-16
-7.18514e-09
-1.73512e-08
-1.07397e-15
-6.56933e-09
-1.60855e-08
-7.48793e-16
-5.96712e-09
-1.48355e-08
-6.93148e-16
-5.38286e-09
-1.36094e-08
-7.33397e-16
-4.81999e-09
-1.24139e-08
-8.57165e-16
-4.28116e-09
-1.1255e-08
-9.80118e-16
-3.76852e-09
-1.01368e-08
-1.07717e-15
-3.28387e-09
-9.06413e-09
-1.15374e-15
-2.82873e-09
-8.04082e-09
-1.315e-15
-2.40459e-09
-7.0695e-09
-1.37593e-15
-2.01239e-09
-6.15795e-09
-1.17257e-15
-1.65326e-09
-5.30547e-09
-1.38548e-15
-1.3278e-09
-4.51844e-09
-1.80279e-15
-1.03652e-09
-3.79724e-09
-1.2247e-15
-7.79448e-10
-3.144e-09
-1.21886e-15
-5.5591e-10
-2.56097e-09
-1.08436e-15
-3.64937e-10
-2.04449e-09
-9.1009e-16
-2.04931e-10
-1.59349e-09
-8.02551e-16
-7.4009e-11
-1.20279e-09
-7.14419e-16
2.98725e-11
-8.66624e-10
-6.17565e-16
1.08821e-10
-5.77365e-10
-5.34006e-16
1.64655e-10
-3.25819e-10
-4.41769e-16
1.98828e-10
-1.02556e-10
-3.48508e-16
2.12365e-10
1.01537e-10
-2.65769e-16
2.06025e-10
2.92599e-10
-1.98179e-16
1.80823e-10
4.6971e-10
-1.42788e-16
1.39054e-10
6.18801e-10
-9.27244e-17
8.59983e-11
7.04539e-10
-5.9255e-17
3.24914e-11
6.61372e-10
-3.66232e-17
3.7543e-10
-2.3182e-17
-1.06677e-08
-2.77322e-08
-8.87659e-17
-1.06389e-08
-2.75618e-08
-4.84816e-17
-1.05041e-08
-2.71746e-08
-7.86902e-17
-1.02752e-08
-2.65895e-08
-1.26896e-16
-9.96517e-09
-2.5836e-08
-1.67859e-16
-9.58746e-09
-2.49375e-08
-2.34548e-16
-9.15537e-09
-2.39222e-08
-2.6305e-16
-8.68133e-09
-2.2815e-08
-3.97609e-16
-8.17687e-09
-2.16373e-08
-5.33535e-16
-7.65202e-09
-2.0414e-08
-5.92613e-16
-7.11566e-09
-1.91593e-08
-7.90396e-16
-6.57532e-09
-1.78915e-08
-9.68381e-16
-6.03748e-09
-1.66234e-08
-6.65604e-16
-5.50751e-09
-1.53654e-08
-6.07924e-16
-4.9898e-09
-1.41271e-08
-6.35831e-16
-4.48797e-09
-1.29158e-08
-7.41183e-16
-4.00489e-09
-1.1738e-08
-8.52873e-16
-3.5429e-09
-1.05988e-08
-9.81496e-16
-3.10397e-09
-9.50307e-09
-1.0573e-15
-2.68969e-09
-8.45508e-09
-1.22727e-15
-2.30164e-09
-7.45756e-09
-1.36567e-15
-1.94085e-09
-6.51873e-09
-1.22338e-15
-1.6085e-09
-5.63783e-09
-1.13657e-15
-1.30527e-09
-4.82166e-09
-1.72163e-15
-1.03183e-09
-4.07068e-09
-1.55376e-15
-7.88479e-10
-3.38735e-09
-1.21107e-15
-5.74949e-10
-2.7745e-09
-1.12921e-15
-3.90713e-10
-2.22873e-09
-9.82779e-16
-2.34658e-10
-1.74954e-09
-8.46722e-16
-1.05412e-10
-1.33204e-09
-7.45209e-16
-1.39157e-12
-9.70645e-10
-6.36409e-16
7.91042e-11
-6.57862e-10
-5.41709e-16
1.37473e-10
-3.84188e-10
-4.42196e-16
1.74882e-10
-1.39967e-10
-3.46894e-16
1.92121e-10
8.42968e-11
-2.62009e-16
1.89757e-10
2.94961e-10
-1.94152e-16
1.68642e-10
4.90824e-10
-1.37876e-16
1.3089e-10
6.56553e-10
-8.90393e-17
8.15265e-11
7.53903e-10
-5.64315e-17
3.09845e-11
7.11913e-10
-3.31441e-17
4.06414e-10
-1.93895e-17
-9.2499e-09
-2.76135e-08
-3.17877e-16
-9.26918e-09
-2.75425e-08
-3.56056e-16
-9.19566e-09
-2.72481e-08
-3.62173e-16
-9.0382e-09
-2.6747e-08
-3.30485e-16
-8.80691e-09
-2.60672e-08
-3.09448e-16
-8.51271e-09
-2.52317e-08
-3.48138e-16
-8.16654e-09
-2.42683e-08
-2.94495e-16
-7.77896e-09
-2.32026e-08
-3.85454e-16
-7.35987e-09
-2.20564e-08
-4.89931e-16
-6.91806e-09
-2.08558e-08
-5.29354e-16
-6.46143e-09
-1.9616e-08
-6.87313e-16
-5.99678e-09
-1.83561e-08
-8.79836e-16
-5.5301e-09
-1.709e-08
-6.00316e-16
-5.06649e-09
-1.58291e-08
-5.41691e-16
-4.61023e-09
-1.45834e-08
-5.60221e-16
-4.16499e-09
-1.3361e-08
-6.50337e-16
-3.73375e-09
-1.21693e-08
-7.48386e-16
-3.31903e-09
-1.10135e-08
-8.8214e-16
-2.92292e-09
-9.89917e-09
-9.70583e-16
-2.54717e-09
-8.83082e-09
-1.08524e-15
-2.1934e-09
-7.81135e-09
-1.2347e-15
-1.86276e-09
-6.84936e-09
-1.40733e-15
-1.55648e-09
-5.94411e-09
-1.09891e-15
-1.27533e-09
-5.10281e-09
-1.24822e-15
-1.02004e-09
-4.32597e-09
-1.68786e-15
-7.91088e-10
-3.6163e-09
-1.17531e-15
-5.88485e-10
-2.9771e-09
-1.15009e-15
-4.12047e-10
-2.40517e-09
-1.0232e-15
-2.61054e-10
-1.90053e-09
-8.89502e-16
-1.34548e-10
-1.45855e-09
-7.70831e-16
-3.13522e-11
-1.07384e-09
-6.53942e-16
4.98268e-11
-7.39042e-10
-5.45132e-16
1.10054e-10
-4.44417e-10
-4.39965e-16
1.50209e-10
-1.80122e-10
-3.42465e-16
1.70841e-10
6.36632e-11
-2.56588e-16
1.72329e-10
2.93472e-10
-1.88112e-16
1.55352e-10
5.07799e-10
-1.31795e-16
1.21824e-10
6.9008e-10
-8.47312e-17
7.64765e-11
7.99251e-10
-5.32675e-17
2.92577e-11
7.59131e-10
-2.99504e-17
4.35672e-10
-1.55542e-17
-8.00918e-09
-2.74768e-08
-3.49377e-16
-8.06118e-09
-2.74906e-08
-3.35148e-16
-8.03283e-09
-2.72764e-08
-2.77558e-16
-7.93063e-09
-2.68492e-08
-2.50861e-16
-7.76241e-09
-2.62355e-08
-2.4179e-16
-7.5368e-09
-2.54573e-08
-3.23933e-16
-7.26275e-09
-2.45424e-08
-2.61758e-16
-6.94899e-09
-2.35163e-08
-3.21185e-16
-6.60392e-09
-2.24015e-08
-4.13952e-16
-6.23507e-09
-2.12247e-08
-4.48726e-16
-5.84932e-09
-2.00018e-08
-5.83161e-16
-5.45267e-09
-1.87527e-08
-7.97648e-16
-5.0505e-09
-1.74922e-08
-5.43351e-16
-4.64748e-09
-1.62321e-08
-4.89147e-16
-4.24768e-09
-1.49832e-08
-5.02278e-16
-3.85466e-09
-1.3754e-08
-5.79582e-16
-3.47144e-09
-1.25525e-08
-6.65551e-16
-3.10062e-09
-1.13843e-08
-7.9241e-16
-2.74444e-09
-1.02553e-08
-8.93847e-16
-2.40474e-09
-9.17051e-09
-1.01107e-15
-2.08325e-09
-8.13285e-09
-1.13497e-15
-1.78121e-09
-7.15139e-09
-1.29227e-15
-1.49993e-09
-6.2254e-09
-1.17896e-15
-1.24025e-09
-5.36249e-09
-1.08811e-15
-1.00295e-09
-4.56327e-09
-1.57656e-15
-7.88615e-10
-3.83065e-09
-1.45144e-15
-5.97433e-10
-3.16828e-09
-1.09874e-15
-4.29482e-10
-2.57312e-09
-1.03731e-15
-2.8435e-10
-2.04567e-09
-9.26887e-16
-1.61417e-10
-1.58148e-09
-7.91226e-16
-5.9829e-11
-1.17543e-09
-6.63883e-16
2.12933e-11
-8.20165e-10
-5.50251e-16
8.27722e-11
-5.05897e-10
-4.37442e-16
1.25201e-10
-2.22552e-10
-3.37547e-16
1.48908e-10
3.99551e-11
-2.50959e-16
1.54084e-10
2.88294e-10
-1.82352e-16
1.41236e-10
5.20647e-10
-1.26257e-16
1.12064e-10
7.19252e-10
-8.07391e-17
7.09749e-11
8.4034e-10
-5.02696e-17
2.73591e-11
8.02746e-10
-2.71033e-17
4.63031e-10
-1.24842e-17
-6.92592e-09
-2.73317e-08
-5.50248e-16
-6.99917e-09
-2.74173e-08
-5.13178e-16
-7.00346e-09
-2.72721e-08
-4.35953e-16
-6.94354e-09
-2.69091e-08
-3.71425e-16
-6.82535e-09
-2.63536e-08
-3.10767e-16
-6.65568e-09
-2.56269e-08
-3.61731e-16
-6.4417e-09
-2.47564e-08
-2.8026e-16
-6.19054e-09
-2.37674e-08
-3.09794e-16
-5.9092e-09
-2.26829e-08
-3.74527e-16
-5.60401e-09
-2.15298e-08
-4.08258e-16
-5.28083e-09
-2.0325e-08
-5.13836e-16
-4.94484e-09
-1.90887e-08
-7.39528e-16
-4.60075e-09
-1.78363e-08
-5.00262e-16
-4.25273e-09
-1.65801e-08
-4.50365e-16
-3.90453e-09
-1.53314e-08
-4.59128e-16
-3.55949e-09
-1.40991e-08
-5.25543e-16
-3.22056e-09
-1.28914e-08
-6.00543e-16
-2.89038e-09
-1.17144e-08
-7.16671e-16
-2.57126e-09
-1.05745e-08
-8.21854e-16
-2.26515e-09
-9.47661e-09
-9.40406e-16
-1.97386e-09
-8.42416e-09
-1.02762e-15
-1.69872e-09
-7.42652e-09
-1.15115e-15
-1.44112e-09
-6.483e-09
-1.35233e-15
-1.202e-09
-5.6016e-09
-1.07164e-15
-9.82195e-10
-4.78307e-09
-1.16336e-15
-7.82329e-10
-4.03052e-09
-1.51262e-15
-6.02722e-10
-3.34788e-09
-1.11764e-15
-4.43629e-10
-2.73222e-09
-1.03135e-15
-3.04883e-10
-2.18441e-09
-9.40846e-16
-1.86129e-10
-1.70023e-09
-8.10362e-16
-8.68152e-11
-1.27475e-09
-6.70224e-16
-6.33058e-12
-9.00651e-10
-5.516e-16
5.58928e-11
-5.68121e-10
-4.32614e-16
1.00166e-10
-2.66826e-10
-3.30187e-16
1.26632e-10
1.34879e-11
-2.42894e-16
1.35309e-10
2.79616e-10
-1.75982e-16
1.26534e-10
5.29421e-10
-1.19949e-16
1.01789e-10
7.43997e-10
-7.62017e-17
6.51303e-11
8.76998e-10
-4.70615e-17
2.53293e-11
8.42547e-10
-2.44602e-17
4.8836e-10
-9.90868e-18
-5.98173e-09
-2.71853e-08
-4.97324e-16
-6.06782e-09
-2.73313e-08
-4.88507e-16
-6.09519e-09
-2.72447e-08
-4.15428e-16
-6.06721e-09
-2.69371e-08
-3.73535e-16
-5.98839e-09
-2.64325e-08
-3.16103e-16
-5.86403e-09
-2.57513e-08
-3.49859e-16
-5.69978e-09
-2.49206e-08
-2.74241e-16
-5.5014e-09
-2.39658e-08
-2.85143e-16
-5.27459e-09
-2.29097e-08
-3.21881e-16
-5.02459e-09
-2.17799e-08
-3.53267e-16
-4.75629e-09
-2.05933e-08