/*--------------------------------*- C++ -*----------------------------------*\
| =========                 |                                                 |
| \\      /  F ield         | OpenFOAM: The Open Source CFD Toolbox           |
|  \\    /   O peration     | Version:  v2006                                 |
|   \\  /    A nd           | Website:  www.openfoam.com                      |
|    \\/     M anipulation  |                                                 |
\*---------------------------------------------------------------------------*/
FoamFile
{
    version     2.0;
    format      ascii;
    class       volScalarField;
    location    "0.03";
    object      p;
}
// * * * * * * * * * * * * * * * * * * * * * * * * * * * * * * * * * * * * * //

dimensions      [1 -1 -2 0 0 0 0];


internalField   nonuniform List<scalar> 
3591
(
102274
99494.3
99175.7
99436.8
77932.6
114526
101123
101683
100497
131316
101425
102465
110892
116250
101387
111555
100319
65530.4
114046
72611.6
78819.6
74162.6
99514
99507.9
99600.5
99495.6
97509.2
37284.7
91376.7
101132
101210
99061.6
101163
99695.7
99676.2
99521.1
99584.3
100519
100567
110452
100496
101356
112700
85918.4
98962.1
112471
98964.4
100473
110659
110416
99100
99470.7
101115
100687
99917.3
32005.6
99551.3
97218.9
98968
98941.9
91419.7
104514
50213.1
100496
101062
104803
99470.2
99512.3
100325
135745
114074
99186
99484.5
100646
101350
103801
101866
101146
134121
103865
99473.7
116792
114102
98157.9
97928.6
99899
99219.3
96980.5
97993.7
98189.5
98241.7
101210
74862.9
99532
98863.6
99522.9
98642.4
98457.3
79732.3
101259
101222
74918.2
84759.8
99843.1
136234
99246.4
101195
99213.5
102673
99335.6
99799.9
99820.5
100947
99881.4
99748.2
100813
101611
99985.8
101226
101165
101135
99644.9
99374
100610
92967.8
94425.3
97399.9
117371
99989.2
112455
101213
97512.4
115973
99227.1
37528.8
105061
105149
67253.9
86151.7
43760.1
97387.9
67141.3
99014.3
99083.6
71779.7
99042.8
61260.7
99744.8
100263
99808.9
40896.6
99596.2
50180.8
52722.1
99603.3
99299.5
99764.8
100538
137932
35737.2
100393
100457
99669.5
101196
99576.6
100649
99585.7
98940.2
101173
101172
99558.9
99948.1
99614
101064
101113
101327
99762.6
99661
99373.3
100801
99532.6
101146
101120
100682
99596.8
100971
99553.3
53583.3
104567
100737
99418.8
70069.9
144703
99516.9
51680.2
116195
100054
100334
101445
99985.2
100163
99507
99854
99649.9
115232
105026
110101
107968
94356.3
127039
106996
70690.9
69528.9
96406.7
108730
98825.3
99221.6
99080.6
91963.3
99518.2
99688.3
99636.7
100544
100664
100601
101084
99308.4
50884.6
99065.9
99063.3
54635.1
60861.8
100467
63196.1
98471
102622
100138
99851.6
99376
99910.2
71030.9
99986
99744.2
99760.4
100346
98989.4
99491.7
99574.9
32605.2
100411
33805.9
33812.9
99609.9
99615.7
99539.3
100432
36068.9
98843.5
98681.9
101351
98662.6
100749
66241.7
101725
113004
101378
101444
101336
101274
99739.2
99440.3
100174
99754.1
97876.2
98995.3
99203.8
99831.7
103492
99582.4
95130
102350
99511.1
100259
65436
100794
99108.1
101992
121067
121753
100785
101198
101495
121874
120506
70616.9
122262
99109.5
99171.1
127322
137264
97753.6
100350
100363
100162
97399.7
99383
98942.9
101161
101191
101144
100398
98032.1
99398.5
99350.1
99425.2
101150
101264
99402.8
101123
99740.3
98926.5
111537
98998.7
63514.5
50410.3
56869.3
98971.1
37131.9
96052.5
64622.5
99041.2
100085
99029.3
99419.3
99033.8
100398
101083
100611
100184
100198
100371
101446
101015
101111
117680
118997
115152
115012
118820
122803
101610
99391.5
99342.8
99126.3
100749
99164.2
99149.4
99149
99346.9
64752.6
31829.3
99117.8
82682.7
101411
66343.5
101395
99480.7
99697.5
99516.8
99989.8
99612.5
99527
69904.3
99338.6
100668
45968.5
31876.3
99331.9
62836
99111.7
99667.8
99570.2
100677
99594.3
100688
99431.4
99552.8
101108
99310.6
100588
100565
100591
100328
98377.7
99527.3
98900.9
100381
100245
101066
75808.5
56168.5
99522.4
59431.1
99949.4
99514.6
99469.7
99447.9
100024
101517
99529.6
101526
99300.6
100703
36960.2
99573
47925
101193
98523.9
98922
101252
101185
99706.3
99513.7
99697.2
40521.3
99330.2
99241.6
100994
27812.4
93310
99856.8
101177
101169
100716
106673
99004.7
101173
111536
122348
99132.9
101007
99648.2
108451
122996
98987.9
101157
99052.8
98948.5
99022.9
99527
100439
101319
101223
101388
101223
100539
100971
100995
101174
99368.5
89436.6
99391.7
100216
99388.1
99368.8
99340
99375.6
99367.6
99286.2
51171.8
99359.7
99306.8
99320.3
101067
99065.6
102597
99288.7
99607.8
99519.4
99046.4
99519.8
99447.8
99311.1
99023.5
145619
99026.8
91035.8
99236.8
99297.3
100944
99301.9
100617
101367
99070.9
99018.9
99692.2
99449.5
99339.5
99240.9
99488.2
99349.2
98972.7
99576.5
117135
107353
98977.4
138344
98117.1
72661.6
34083.9
32097
38539.6
78319.6
98945.3
99406.3
98935.3
98996.9
98867.3
98834.7
100267
99927.6
100051
100136
94301.6
98257.1
99964.4
103020
99508.4
99473.1
99352.5
99896.5
102771
100566
114295
100407
99428.2
99386.7
99310.8
99335.2
99335.8
100174
100417
86582.4
88929.9
98028.9
100912
100955
101011
100358
100992
103338
103760
100867
102393
103237
101469
99136.9
101453
101435
101454
94369.9
112075
101455
55790.9
99849.1
41673.1
102496
61335.2
99301.2
95295.5
100104
99597.7
99775.2
99262.3
99326
99359.1
55021.4
99272.9
99994.6
100066
99632.2
106432
100114
100885
100037
100896
98890.7
98975.4
99088.2
98250.6
100885
100813
97754.4
100491
99516.2
86817.7
121401
101135
99592.2
101128
99130.8
100261
99026.1
99080.8
102040
106826
99040.7
110658
101556
100571
100029
103008
102087
101488
100542
99419.7
99553.4
99593
99541.9
100690
100772
100647
100699
99198.2
101630
99520.4
98997.3
104806
99399.1
60194.4
99537.1
100726
40074.4
123248
100500
101133
100497
100454
99115.1
99143.9
99131.2
99222.2
101080
99649.9
101112
101052
101043
101159
101124
101471
101485
101663
91090.9
27768.4
101113
101087
99699.9
111532
99708.2
99688.8
101975
99167.9
101374
101355
78459.6
100335
101445
99292.1
99149
101430
98928.6
55413.2
91691
106481
99714.5
97213.2
98727.4
99650.1
99630.5
137990
113586
114849
115762
99863.8
116967
100792
101076
99639.3
137934
100753
103801
99970.7
99657.1
100596
99000.1
99089.7
99732.6
100240
99123.5
99447.4
100139
99716.7
95702.9
99269.8
99175.9
99078.5
99711.6
100680
101185
42268.6
87578.7
73176
99114
107927
87219.7
72166
107955
109599
101411
101393
101345
98967.2
34942.1
101475
99509.8
99461.1
100187
99594.1
88040.7
120957
100072
99470.2
99731.3
99873
98787.8
98993.1
98935.4
99326.7
100059
100108
100685
100092
100253
100937
101072
111675
99379.9
98915.6
77180.8
114131
100383
101368
100833
100832
101013
100945
101123
101379
101418
101411
99500.8
99348.9
101335
99472.9
101041
75461
97612.2
73680.2
82636.2
99238.2
99178.6
66910.8
30386.3
99211.2
98947.3
98980.9
99101.9
99285.1
98876.6
99224.7
99677.8
98976.4
99238.7
99986.5
99391.7
103739
102122
99092
93659.9
72772.4
99501.5
99371.6
99486.3
99422.5
99405.5
99487.3
99387.5
99471.5
99500.7
101350
90802.8
101165
101081
99236.4
99094.6
99293.4
99268.8
101199
111650
99733.3
101219
99407.4
91337.3
99105.1
99143.8
109823
99533.9
99638.7
97752.5
59087.9
100327
100336
100325
100286
101077
101299
101142
101130
101121
99362.1
99365.4
112333
100933
99296
100134
99654.7
99292
101057
100073
99736.4
89585.9
111333
112602
101045
100930
101060
106949
110866
137143
59247.3
98876.6
93776.5
101049
96795.9
101230
101022
98966.2
98078.9
99028.3
99765.2
98551.8
99054.1
99081
98907.8
99510.7
99966.8
76289.6
68554.6
99342.7
101003
100953
101044
100960
107577
96157.9
119613
117560
146462
126355
99283.2
99263.9
100823
100836
100842
100756
99919.2
87153.3
113484
105777
109285
71896
115887
99130.5
99198.7
99361.5
99407.9
99402.4
101021
99888.5
101097
101185
102746
98817.9
99801.6
96898.6
102274
97636.7
100375
135050
101180
102292
117917
98855.4
71111
99357.8
99767.6
83043.5
136987
125554
98898
117406
98860.4
116855
116252
100075
116010
119042
100120
100246
100290
79294.8
84135
96756.7
77912.6
61161.8
99045
97370.4
99250
99971.8
100838
59214.4
100966
48128.7
100871
100800
100822
65140.7
45128.3
98895.4
99046.3
100454
100723
100944
99667.1
99252
68405.7
71026.5
70521.8
93943.4
100721
70244.8
62592.3
89155.8
91694.1
101322
103544
100780
100826
99644.6
100820
100834
99754.5
100569
93477
137894
138692
103627
68559.3
107049
100609
99014.4
100677
100561
100919
102117
100744
99073.3
102438
88800.3
54593.2
65759.5
45318.2
68519.1
100666
100438
100437
99145.8
99585.6
99606.8
99591.8
99557.7
99663.1
127092
99888.5
100579
100438
99325.6
99442.3
99113.5
99573.7
99539.1
99775.6
97274.1
90816.7
101951
105518
100154
75103.3
99522.1
99557.2
99545.7
99577.8
101011
66822.9
99527.7
99602.3
100665
73912.6
100583
97607.4
98736.1
28879.3
99366.7
99484.5
100094
99868.9
100966
58564.6
99720.8
99993.7
99388.7
99418.2
99539.5
99512.5
100605
95618.4
104401
102014
102071
101173
116582
104857
99567.1
104106
101635
99970.2
100798
99800.8
114928
114359
118893
62513.6
41033.2
99237.3
99256.2
100808
99500
96209.5
99682.5
99750.9
99511.5
100333
43264.8
100257
99353
100227
59135.8
99378.6
99238.1
99243
116367
99109.7
99231.4
99558.8
101093
100948
100626
65344.1
100799
73774.6
102355
99473.7
99521.4
100473
100117
100339
100379
101097
101163
100364
94135
34100.4
101541
101215
101230
99190.8
101209
99684
100762
100875
100952
101047
101295
65250.2
46655.1
49437.6
52504.8
101500
114517
99969.9
118904
120352
101332
98878
101409
99271.1
101318
96445.1
100683
98839.5
104171
99467.6
99385.9
98972.5
97329.5
100005
99219.5
99178
99703.2
100443
100628
100286
99687.3
99601
100892
99621.6
99211.8
99189.2
99253.2
46013.3
99280.7
110413
99063.3
120909
99086.3
99229
99251.1
99766.1
99209
99893.1
99593.3
99623.6
99627.9
100669
99230.9
71539.6
101205
100556
79450.8
98700.2
101240
98916.8
101043
99247.2
99495
99355.1
100457
101287
118192
101095
101275
101074
62003.6
99295.8
99126.3
99594.4
99256.5
99461.3
100094
112087
100227
115944
99397.6
99385.1
99505.2
101106
100548
100991
100899
100710
101089
101124
101160
100613
101019
99306.5
99179.6
99232.8
100535
99571.7
100059
98220.6
99242.4
100815
101622
96105.8
101114
100301
100665
84651
91316.9
92351.8
27578
95337.3
37904.3
145629
79913.1
100337
35742.9
98933.7
98918.3
98960.1
99002.7
98837.9
97941
99477.1
80098.3
100366
100286
100323
99833
115426
99012.4
99855.3
100037
95357.2
96929.7
95569.7
99367.8
96074.3
141456
100719
99864.8
81326.2
100990
99220.6
99201.2
99500.8
87502.8
108036
88705.5
105170
109525
108351
101409
99472.6
99454.6
99449.3
99536.8
93026.7
85565
101360
95965.8
99396.4
99485.7
40064.1
93311.8
77917.6
99331.2
100386
101109
99060.1
99022.7
99476.2
99331.5
99512.4
99506.1
99507.5
99520.5
99503.4
100101
101348
101239
99349.8
101268
99454.3
99339.9
102123
71490.8
99836.8
71904.6
77057.7
78905.3
94887.9
136067
138013
72212.8
98567.7
98812.9
97570
59588.8
98789.2
98707.8
98858.4
98812.4
100132
100051
99349.9
100141
88380.6
101259
89133.3
99258.2
99559.3
100140
81661.2
100139
98984.3
99014.7
98615.4
99702.4
99250.6
99375.1
100403
101456
101183
101219
103869
101886
102045
93916.3
95818.4
124228
97028.4
92805.2
99539.1
98982
119435
102132
99528.9
99888.7
99654.4
99322.6
97800.3
82091.1
98913.9
98961.1
99224.6
98166
99673.8
100511
100946
100511
99547
103768
103558
99586.9
97177.8
101150
101234
99716.3
99383.2
99542.3
97644.8
99250.5
99437.6
101378
100165
102320
97488.5
121857
105702
102577
121467
99684
101225
99382.3
99879.3
95507.7
75602.7
98125.3
60468.5
75635.6
98954.6
98978.8
27066.3
29798
48493.7
98924.9
98774
98717
98653.3
99456.5
99447
100081
100168
92433.6
100231
100986
98985.7
101110
101073
100962
99790.8
100230
112084
109340
89657.7
100322
109548
71046.5
98793.9
98771.7
99787.2
98814.7
99270
100041
100023
101419
100075
101289
101090
101011
128841
75848.1
101214
100664
83319.8
100094
100318
99311
98799.6
97160.9
95702.8
101430
97578.2
98367.4
99262.6
110894
99225.7
101882
99236.3
88384.7
99249.5
99237.6
99523
99944
99890.9
99895
100451
100059
99453
99521.4
100612
116929
99132.1
100980
93217.5
92578.2
96191
91428.7
99149.5
99669.2
100741
100658
101129
121704
99823
100910
101030
99144.4
70982.3
99098.7
99025
100526
100563
100538
100558
99339.5
100536
99433.6
99440.9
99518
99518.4
101363
101113
101380
99004.9
98578.2
82835.3
73765.3
99783
84958.9
41130.2
97103.9
99388.1
99389.4
97830.4
64383.4
101092
58697.1
86912.4
101441
101459
101431
101263
100680
101431
100644
100248
99625.1
117989
99072.6
112366
113501
113888
85235.7
88527.8
99057.1
60742.6
45888.3
88274.4
98827.6
98963.8
98974.8
119908
108996
123019
99534.9
99503.9
132979
133252
100390
100164
129514
101032
101091
100605
101288
98368.7
98605.7
98500.8
98737.5
100019
99928.7
99974.2
100000
48774.8
44019.8
88956.5
91700.8
101290
101337
99583.3
99185.6
92631
100087
99445.1
99602.5
86330.5
26995.1
34773.3
41487.5
40821
101475
98976.4
98990.7
99003.6
98991
99008.2
98994.3
99666.2
99452.2
99719.6
100233
101181
100290
91390.3
101149
101198
100337
104418
99378
107786
99559.1
99176.9
99186
99138.6
99063.4
99045
99073.1
99199.4
99116.6
99223.3
99079.8
99111.1
100787
100812
100862
97919.1
100293
101183
99236.5
99043.7
99429.6
99482.3
99491.8
99517.5
99313.5
99366.9
99283.5
100598
99377.2
100959
121062
111025
108246
100749
100928
100970
42452.6
32093
99433.6
100741
98942.1
99447.4
39102
99646.4
100315
100252
100754
102756
102510
99849
101203
93716.9
101044
100748
35571.9
37668.7
44810
42686.4
74894
70473.6
72372.7
49264.6
68002.4
138467
68948.5
80273.5
68413.4
72334.9
33073
30469.2
70360.1
74320.9
99694.5
99711.4
99602.4
99686.4
98928.4
99707.3
96667.5
99009.9
99660.1
100268
100477
101267
99545.8
99438.2
102100
99502.6
101940
98640.5
98889.9
98972.1
99344
99432.5
100092
99933.6
101200
101291
101125
96892.9
102384
99312.3
99289.8
99288.3
101024
99419
99301.6
99423.8
99538.5
99633.8
99950.8
99565.7
99560.7
99975.8
99322.2
99435.2
114927
114876
98769.1
98899.8
61323.2
98819.7
99269.3
99208
99077
101243
103222
98880.3
99244.1
98780.2
98318.6
98862.6
98307.5
98905.7
99400.1
99406.3
121266
102132
99349.7
101451
99521.8
99507.1
99491.9
83388.3
61973.5
99037.2
101186
101121
74968.5
99028.6
99069.3
29343.2
45203.5
49730.1
99337.9
60785.9
54335.5
110414
99303.2
101161
99550.4
99950.3
99968
99572.3
99785.8
99913.2
99925.7
99506.4
99602.8
101171
100415
99479.5
99466.6
100670
100357
98999.2
99365
100880
99313.7
99568.9
99906.6
97209.3
99062.3
98471
94130
99010.5
98557.1
98924.3
99569.8
99343.2
99195.9
99530.3
101068
116188
100376
100839
100754
101194
100711
100784
100747
101208
94059.6
46473.6
99085
99095.8
99632.7
100302
112768
97088.6
97080.6
94454.1
97157.1
99621.6
99825.6
99694.9
101160
99240.1
101227
61899.7
65019.2
63902.6
98808.9
100880
57654.7
107019
90402.9
73401.1
98783.6
88511.8
73322.5
95184.8
99385.4
99778.1
99694.6
99529.7
100998
100488
100867
101146
101147
99799.5
101212
99859.3
101269
56057.8
97842.2
98304.8
100050
100158
100055
99920.2
100137
100017
99503.3
99492.8
99656.2
99501.1
99393.2
92255.5
101195
101663
105321
100175
100770
100880
100917
100945
90672.3
102070
102164
99597.8
96707.7
101682
105263
111202
99461.1
99474.2
99330
99183.1
98418.3
101464
89774.5
92168
101454
98850.9
101478
99026.4
99364.8
99649.8
99536.2
99509.9
42258.5
100263
101435
101193
40322.5
27444.9
29880.7
99653.7
99399.7
100016
99714.2
101388
101176
101221
101247
101050
101120
99639.2
109936
63998.6
96563.2
82587.7
100952
101031
100148
107575
106331
105152
114673
100561
112148
99713.1
99709.2
99721.2
99642.4
99683.5
99720
57624.4
60919.6
95269.5
101243
99953
100237
100195
101701
87050.8
120976
103386
100088
54689.2
74410
99167.1
100113
99855.6
100100
100742
100931
100920
98214.7
99267.1
99127.8
99733.8
99158.1
111255
117768
116269
26955.6
99146.4
99165.9
79798.1
101416
53511.1
102905
50860.1
56473
56635.6
55754.4
101342
101364
99182.5
99165.3
100777
99064.1
99988.8
101376
97944.1
99178.3
76292.4
32660.4
99092.1
101143
110944
121800
121123
118287
96149.9
123619
100482
56507.3
116951
99810.9
98955.1
46892.3
99865.8
99770.1
99487.9
99801.1
99521.8
99514
95586.1
101306
98341.3
101298
100664
95056.2
97590.3
61597.2
99156.8
99068.7
99170.2
101179
100207
99816.1
100366
100686
101209
101064
101208
103673
101202
101147
105427
99875.1
99904.2
99470.6
99458.8
99434.4
28340.9
99524.9
35219.7
81718.7
44059.5
39344.6
37256.5
38848.8
38260.9
31792.3
29721.6
57644.7
101111
31746.5
33778.5
100332
100029
99471.4
100019
78767.6
68688.1
27399.7
99097.4
101179
99599.9
103078
99614.7
99100.4
99667.6
97296.6
99122.8
99040.1
100267
99262.7
103160
99653.4
99464
44574.4
100614
99908.1
101322
39056.8
41903.7
36524.7
101173
101194
50006.5
42882.4
100168
100149
100109
100194
100161
101336
99484.3
111006
103085
113038
112732
110650
99636.9
62185.4
99049
96889
99318
99467
99422.3
100324
101207
101383
99953.8
99033.3
100185
99833.7
99976.2
99810.2
101391
100491
99986.3
100416
100032
86184.2
101434
85430.7
99676.6
99384.7
99611.6
99457.5
99504.7
99575.3
99775.9
88688.7
99588.6
56993.8
99399.5
98702.4
99440.6
99430.7
99497
100395
100591
100221
99734
101138
99959.9
99783.4
99736.9
108448
100647
102349
98979.5
98977.7
99295.8
99003.1
99037.9
101171
101176
100469
100495
100433
84131.1
99116.6
117486
99738.8
109793
101183
99711
101218
99846.8
97718.3
98545.3
98875.8
99399.5
99273.1
112655
99623.4
99354.5
99788.5
99912.8
101348
79710.5
53344
100969
35767.9
90493.2
63372.3
94919.1
95896.5
99430.8
99537.9
99401
99511.5
99577.7
93576.8
93583.1
95486.8
99634.4
99540.8
97678.6
95169.1
99700.8
99773.4
99670.6
99656.3
99409.4
99631.1
99698.4
99733.5
101172
100049
106029
102403
100104
99375.4
98386.9
100892
58479.2
96607.4
67076.6
100106
100176
71312.8
99047.2
98493.5
88720.9
95297.9
90165.1
148289
100781
99857.5
99334.5
99200.5
99391.7
118719
99219.6
99214.6
99050.1
101345
100921
101378
101349
100921
101325
100673
102772
99566.6
100937
100826
99844.3
99771.1
100106
99048.4
106866
32861.6
84119.2
62465.8
30317.5
96380.6
97760
98415.9
99769
99871.3
100149
100268
84125.6
92983.8
90225
99459.4
99475.9
99489
99502.7
99337.9
58730.9
69272.8
76596.7
79667.1
70235.3
115614
100290
99325.2
100899
100849
99013
98954.6
117459
99060.8
102339
122929
103040
100474
106253
100416
100437
116145
99385.7
117711
117567
99859.7
99568.8
100360
119991
119531
100083
99947.5
94182.7
122285
115871
65019.5
104591
104887
107215
107823
109757
100660
116621
101092
101466
101464
101076
101063
96320.4
50633.1
121325
98764.6
98641.3
68797.3
123453
99596.3
95684.9
108571
123778
101459
100949
100717
100768
33339.5
99596.5
43274.1
99579
99558.1
99566
100476
100516
140823
99247.8
99402.8
99222.1
99624.2
99198.8
99225.2
99198.4
99161.3
99182.1
116143
99156.8
99218.6
62705.7
99129.9
99071.8
105988
142201
99283.6
141832
99193.6
101241
101426
101361
102255
58581.7
98867.7
99583.4
80443.9
98630.6
98350
99633.4
92132.4
99866.8
100011
100565
100661
100387
100324
102068
92887.2
99508.2
99395.5
99269.8
105370
99531.3
99479.7
102559
98717.8
99646.3
101327
101411
101406
112383
99540.5
99401.4
100251
119479
101418
101300
101247
101396
101361
101399
100484
100539
100570
100423
100806
99472.7
99814.3
100663
101174
101168
99605.1
99369.4
98927.7
100625
99349.3
99421.1
99740.8
99740.1
100120
100939
100767
99548.7
101081
99572.4
99554
96007
99334.9
28970.1
33154.9
100778
99361.1
98530.4
64113.1
98270.6
99273.8
99607.5
38445.7
49905.1
31138.3
99479.7
101079
63058.2
97429
68128.5
51864.8
53177.3
78170.3
89517.4
99045.2
99063.9
98940.3
99113.8
98932.7
99141.7
99102.3
99211.5
99162.8
100764
99498.2
99282.8
99378.3
99981.7
100342
96378.6
100315
100759
121745
101125
100949
100731
102580
78900
101483
101769
101123
101081
100705
100700
101219
125050
135616
139106
117427
97314.1
96223.1
97884.5
99159
99274.1
99155.7
99153.4
93971.1
104368
99778.3
99795.6
92778.6
99766.7
99787
100545
99497.6
99479.9
99443
99464.8
99488.3
99480.3
99435.3
99523.8
86634.1
61337.1
61970.9
96778.9
97890.3
99053.7
99823.9
99890.4
84106.5
100983
101013
100972
102374
99278.6
99421.5
100443
101775
99290.8
101079
101219
101091
98639.4
99813.3
99731.9
102257
99593
99593.1
99538.9
99465.5
110933
67571.3
99286.9
99414.9
103927
101762
99876.7
101886
101046
101426
100864
99653.4
100676
53888
32269.7
42036.4
98209.9
71791.8
103934
79494.3
100005
99492.9
91306.7
101323
111963
99488.5
99698.1
100009
99881.9
99647.5
99585.1
99767.3
100928
100862
99642.7
100216
99978.7
94974.8
34678.2
38948.2
49220.7
99280.9
44109.5
49888.2
101391
54730.7
99094.3
109173
99441.5
99456.2
99424.7
99518.8
99506.6
101054
101034
99528.9
99511.9
99499.8
65330
100362
100222
100266
100205
120337
39996.7
103696
101260
101302
104403
100434
99596.1
99584.1
99675.6
99722.2
99429.3
99309.4
57807
58485.6
57912.1
72587.1
101431
57938.5
99266.2
100002
100900
100821
101191
101220
99309.8
99453.7
99974.3
100113
100718
99801.9
99064.1
99318.1
60729.1
63210.9
115418
50333
101206
107573
101203
117715
116744
110549
113828
119573
120180
100514
100245
99357.4
99938.5
100050
100188
100279
99837
101057
99541.6
109318
98859.7
99529
99502.2
107377
99381.7
99519.8
43333.6
41999.5
46083.6
41206.3
89712
48606.8
44904.4
98861
98755.9
91150.4
51987.3
92241.6
84418.9
99544.6
116109
100570
97443.8
95048.8
99220.6
125006
99215.8
99767.3
79590
100527
100829
68622.7
98871.6
99420.6
100317
100124
99312.7
99412.5
99407.4
99424.8
99533.7
101048
99336
99599.9
99339.5
99521.1
99475.6
98777.2
99355.6
100513
99123.5
102232
86207.7
102024
99214.3
93793.2
98906.5
98645.1
99277.3
99360.6
100818
131131
44617.3
99033.5
99455.7
99422.4
100270
101151
80017
83347.4
98039.3
99344.9
99323.2
99945.5
99882.3
99911
101122
100944
135342
125813
99550.4
96905.4
99265.1
99271.6
99340.6
99539.1
99562.4
99568.9
99532.4
101227
95255.4
76058.3
87480.4
134624
91423
54916.5
98876.5
99276.2
99357.8
99287
100297
100075
100082
99926.7
99271.6
99292.7
100984
99798.6
99756.8
100896
100865
100805
100848
99488.1
99513.3
99469.4
99497.1
99555.9
58995.9
101233
96939.9
103763
96940.8
92349.8
94166.9
110614
101117
101656
99330.5
99411.6
105260
98304.7
98272.1
79886.8
69524.7
73831.6
62293.4
114129
113216
100023
98582.4
97886.2
98947.5
99277.3
99180.1
96932.1
99309.9
99238.9
96834.2
99817.5
99183
99977.2
99977.7
99814.3
100726
101033
100587
100849
99132.8
99285.7
99137.9
100010
99984.2
100780
100010
99954.1
99952.8
121518
118883
77369.4
72646.3
82666.5
98966.2
98977.9
77497.3
104389
83837.7
99502.2
100633
100349
100380
101171
95554.3
99817.2
59152.9
50803
52904.8
99056.8
99288.8
99053.4
100445
100511
100526
100637
101123
101270
101595
100690
103420
105783
53244.4
102294
32930
119286
125689
103662
133863
103906
81146.2
83107.2
47609.6
99069.5
98862.9
98878.7
98856.1
99440.7
99444
99424.8
100206
88349.7
99478.5
99514.1
100174
100142
131709
112785
116744
101073
90429.1
101024
98952.6
98836.9
99275.2
99373.2
100885
105897
27897.2
92726.7
88615.6
90253.8
93468.7
102003
117725
102496
101914
99732.9
99781.9
99717
99712.7
88562.4
115766
122440
116230
119235
96520.9
117411
98345
101621
101837
99444.2
100013
118719
120682
100090
111310
50057.3
121096
122232
100972
95073
130376
125177
113797
118135
118468
82905.1
98932.7
111120
98798.5
99235.8
99196.1
99832.7
100741
100908
100848
52496.4
47457.7
45933.7
98562.3
99618.9
90714.3
99040.4
98986.6
99475.4
100198
100237
100228
96612.2
99451.3
98921.8
99136.1
37461.8
99856.7
39755.7
36355.2
100875
46050.7
41092.4
101044
101007
101539
101479
99408.2
99474.6
114870
114877
115955
115740
101432
96855
99396.3
98319.4
99397
99587.7
98098.7
99449
99359.1
99056
89936.2
98518.3
98696.2
99638.8
99286.3
100988
100838
99890.9
99610.9
101035
100964
81280.4
76019.4
103665
77427.3
112458
36170.9
84561.4
118705
123961
119694
74093.2
100643
100726
98995
101185
100774
101324
99442.9
99422.9
98938
99028.8
98993
39370.1
99032.5
99206.3
99161.8
98891
99338
100400
99554.3
99642.4
99608.4
100417
100939
100293
67719.4
106370
100569
100894
100469
101216
100767
98969.2
101348
75654.9
99389.9
95356
100158
94020
93421.2
94055
99491.1
99465.6
102382
99461.3
97110.6
100994
100818
97397.2
67159.2
78312.5
63044
99162.3
99329.5
99190.5
99909.2
100978
127908
99663.7
99673.3
99668.7
100708
99294.3
100699
100996
101037
100983
100945
100912
100780
99286.5
98805.6
101343
88448.3
97027.8
115495
117783
101034
73817.6
98422.4
67584.2
99764.3
99718.7
101089
70943
99082.5
99099.9
99186.5
101024
101489
101202
101487
83505.7
88821.2
86187.6
100606
102560
53515
100318
100525
101540
57151.3
101428
100536
82560.9
100549
47424.4
99239.3
99166.8
99808
99612.5
99589.8
100937
99402.1
100719
100509
99349.8
99341.3
100074
100883
100641
100775
100679
117276
99287.9
99964
43980.7
99334.5
66391.8
97651.8
98915.7
98948.8
57617.5
55702.6
101261
49942.2
100170
100713
104173
101163
101064
101609
99380.1
98056.6
99299.5
99409.5
94352.2
110858
97313.7
96614.3
100122
87449.7
65831.1
64181.6
99274.2
99294.1
99317.7
44389.6
99383.9
59993.1
99650.7
46261.7
99563
99626.8
99386.8
46264.8
100905
100840
100971
99424.9
101045
100827
101004
100937
100029
83021.3
99313.2
118477
101324
101301
101277
99474.2
95547.5
97234.3
101192
101383
101269
100976
99756.6
101305
101340
101315
101225
119430
99536.2
99520
99425.3
118499
118717
99134.4
101445
99850.3
98966.3
99182.8
99260.6
101146
101097
77751.5
99487.4
99702.8
72584.6
100294
100288
99724.4
102192
104492
102367
42886.9
101398
99178.4
98970.3
99199.8
51821.5
98946.4
34524.3
28021.1
99479.1
99008.6
99547.2
99418.7
99407.9
99525.9
99425
99471.5
100113
100125
100171
100051
101069
101013
100993
99313.5
99289.9
99330.6
100513
94789.4
120463
100856
99569.7
130532
99350.7
99245
99288
101021
100750
101112
100568
101233
121565
99424.3
96174.1
100702
100843
100642
100816
99655.9
99684.9
101395
99462
99398.8
49996.9
62913.4
137681
92727.5
107378
121976
111850
137614
99635.5
101516
101278
101376
61681.8
60628.7
56440.9
36662.4
99503.3
99517.4
99648.3
99397.9
99506.4
99531.8
99462.6
100950
101026
101051
100981
101006
68778.1
80293
72204.4
72670.4
71255.4
99555.7
99258.3
99499
101906
99260.4
99608.3
99500.6
99479.4
99510
99075.9
101131
99506.2
99429.7
101114
101087
99401.1
101090
100352
99450.1
99579.7
100436
99632.8
111741
99506.9
99874.5
99447
100148
99122.4
99124.1
99214.7
101217
101384
99711.9
99610.9
138201
127767
139922
133932
99049.2
98942.6
100428
100091
99498.3
100195
100211
132772
112471
56770
29886.3
99164.7
99186.9
99272.3
99253.4
27695.6
29000.6
28653.9
100916
100797
98235
100893
102010
92807.7
99704.1
99771.7
99990.6
99814.6
99806.8
99827.9
96492.7
98945.7
88964.9
91962
99411.6
84829.7
99696
80621.8
99667.9
101227
100184
99791.1
99499.8
101155
101119
101052
97310.1
99563.8
99496.8
100520
98043
99265.2
99234.1
99250.3
107436
98930.8
100902
100961
104985
134345
100097
72644.4
100033
100132
97985.6
97889.6
99962.1
99869.4
99940.3
115868
104048
89986.4
62018.9
94970.8
99880
99908.3
94296
95961
89560.7
98997.2
98128.6
99349.9
131872
134728
135443
101555
101847
102338
100754
101515
101586
139269
102760
101486
101148
101456
99134
99306.5
113376
66251.9
99189.4
100255
99402.6
100530
99459.9
100577
99148.5
98871
99265.8
104526
73326.9
118714
104099
99167.5
99119.1
122057
119754
118397
100920
101055
100896
100881
100622
100625
109650
100583
98886.1
98905.1
99086.2
99592.5
99278.1
98929.5
98973.8
98527.5
76592.4
83230.7
30710.5
99666
99424.3
99658.8
99605.3
101120
101142
99559.1
99657.6
99626.9
99451.2
99636.4
100155
100889
100761
100921
101252
101276
101336
101310
100083
99027
99895.4
99533.4
99530.7
99502.4
99584.8
78501.8
79991.8
26654.5
60031.1
95449.3
90368.1
100358
101382
102165
75824.5
68846.4
66510.6
70863.9
74150.4
61335
60512.7
116207
70277.1
36468.1
73578.3
39458.9
110888
97860.2
99814.2
99613
99842.1
100596
100829
99813.8
99825.6
99752.2
109489
99371.9
99586.6
100058
99506.1
99493.6
99746.4
122188
99174.6
99233.5
68795.7
105582
98856.3
99012.5
101463
101430
101452
101433
99455.6
99688.2
99533.7
99467.9
68879.1
82549.2
62404.7
98974.6
98965.9
100876
99902.8
99478.8
98967.7
98934.2
99425.8
99007.3
98989.4
99072.4
100594
99513
99554.8
98916.6
99068.9
99589
98788.6
99763.3
101211
101184
100671
99443.8
101207
101206
99440.2
102320
82549.9
99543
99570.4
99575.3
123280
99762.8
100818
99747.9
96834.7
86345.8
)
;

boundaryField
{
    Inlet
    {
        type            calculated;
        value           nonuniform List<scalar> 0();
    }
    Outlet
    {
        type            calculated;
        value           nonuniform List<scalar> 0();
    }
    Symmetric
    {
        type            symmetry;
    }
    Wall
    {
        type            calculated;
        value           nonuniform List<scalar> 
251
(
138344
141456
117428
78900.2
68622.9
85235.9
96320.7
97429.2
98235.2
98736.4
98942.9
99066.1
99163.1
99274.4
99366.9
99475.6
99572.5
99697.4
99824.1
99977.4
100139
100317
100496
100665
100813
100952
101066
101172
137681
139922
120463
83347.4
66241.7
89774.6
96406.7
97329.5
98189.5
98662.6
98948.6
99052.9
99167.5
99227.1
99344.9
99429.6
99575.3
99646.3
99801.5
99945.5
100124
100268
100454
100633
100819
100944
101072
101165
138201
146463
145628
144704
135049
94369.6
94888.1
80444.4
73912.3
70070.1
79886.3
82666.2
74918.4
71896.5
95486.5
92778.8
94302.1
96931.8
96898.8
97213.6
97890
97884.7
98029.4
98567.4
98530.6
98682.5
98859.4
98861.2
98877.6
98996.6
99013.2
99049.8
99101.9
99114
99113
99210.9
99220.8
99242.1
99308.1
99325.4
99336.5
99407.6
99422.6
99437.4
99506.1
99521.6
99515.7
99621.3
99634.6
99660.7
99744.5
99764.5
99783.5
99890.1
99891.1
99881.7
100051
100059
100094
100231
100228
100269
100417
100404
100439
100596
100584
100617
100756
100742
100764
100899
100885
100921
101024
101011
101033
101135
101123
101149
101230
101219
101241
75602.4
127909
138013
102356
136067
65330.5
98630.6
80292.4
73578.3
85919
77369.4
96668
93576.8
97679.1
97080.6
98304.3
97753.6
98813.5
98457.3
98939.8
98843.6
99061.1
98988
99152.9
99119.2
99283.7
99193.5
99342.2
99278.6
99492.2
99389.4
99552.8
99509.8
99717.2
99605.3
99814
99711.5
100011
99888.4
100135
100011
100350
100198
100526
100358
100700
100545
100835
100731
100970
100875
101086
101013
101184
101115
101210
114129
79494
91700.4
96378.3
97569.7
98270.3
98755.6
98935.1
99053.4
99155.4
99262
99357.5
99455.4
99560.3
99683.7
99813.9
99970.3
100141
100325
100510
100679
100828
100965
101081
101183
71489.8
77496.3
122347
135341
138343
137680
63209.9
86633.2
90492.3
104388
83042.5
118882
134623
137893
137262
65018.5
41129.2
89154.8
79797.1
98875.7
110866
134344
131130
131315
70862.7
122284
74149.4
127092