/*--------------------------------*- C++ -*----------------------------------*\
| =========                 |                                                 |
| \\      /  F ield         | OpenFOAM: The Open Source CFD Toolbox           |
|  \\    /   O peration     | Version:  v2006                                 |
|   \\  /    A nd           | Website:  www.openfoam.com                      |
|    \\/     M anipulation  |                                                 |
\*---------------------------------------------------------------------------*/
FoamFile
{
    version     2.0;
    format      ascii;
    class       volScalarField;
    location    "0.03";
    object      p_rgh;
}
// * * * * * * * * * * * * * * * * * * * * * * * * * * * * * * * * * * * * * //

dimensions      [1 -1 -2 0 0 0 0];


internalField   nonuniform List<scalar> 
3591
(
100470
98432.5
97868.9
98401.4
86534.5
114350
99895.8
100032
98686.3
115267
99906.1
100613
108350
112932
99889.5
113296
97961.8
79525.1
114354
85136.2
88815.4
85956.9
98399.4
98401.4
98415.7
98403.1
97782.9
51891.7
95506.1
99353
99408.7
98312.5
99387.6
98392.9
98425.1
98407.2
98406.8
98784.8
98813.5
108366
98748.7
99663.1
110571
93013.4
98230.8
110440
98280
98728.2
108506
108343
98313.1
98407.2
99336.6
98873.8
98448.1
46209.2
98412.1
97117.8
98300.2
98293.3
92133.5
101663
63184.8
98792.3
100051
102271
98388.1
98454.1
98636.7
116572
115191
98524.6
98514.8
98835.3
99707.1
101466
100533
99373.2
115760
101997
98402.5
117038
114759
98172.6
98158.9
98468.7
98474.7
97633
98123.4
98178.8
98194.4
99411.9
87424.8
98395.4
98326.4
98400.3
98252.4
98228.7
88371.1
99475.1
99417.5
86805.3
91963.3
98440
119552
98360.7
99402.3
98360
108626
98382.8
98403.1
98402.1
99172
98407.4
98411.7
99029.6
99399.7
98478.9
99472.4
99376.8
98805.9
98605.1
98371.9
98840.9
94125.2
95351.7
97685.4
114175
98462.6
109843
99417.1
97775.1
111448
98334.4
52683.8
103723
103776
79358.9
91427.5
57949.1
97765.4
80531.6
98289.2
98336.1
83907.1
98300.9
73237.2
98399.6
98585.9
98429.3
56487.5
98409.3
63528.8
66262.2
98406.5
98386.1
98429.9
98212.4
117987
50715.5
98450.4
98710.9
98734.8
99409.4
98404.1
98879.8
98409.2
98307.3
99385.7
99379.7
98404.2
98187.5
98571.3
99290.4
99336.9
99658.2
98726.4
98534.1
98399.1
99019.1
98484.5
99366.6
99341.5
98902.7
97550.7
99195.3
98361.1
66158.5
106320
98805.8
98478
84073.4
120895
98397.2
64252.3
113799
98507.3
98612.5
99867.1
98094.4
97721.2
98173.8
98492.7
98184.1
115249
107698
107943
106260
99016.6
123304
105499
80911.9
79759.2
96763.9
106988
98173.7
98400.5
98318.5
97489.8
98418.1
98381.1
98358.2
98728.1
98813.4
98784
98792.3
98356.8
66996.8
98344.3
102282
66947.5
72403.5
98707.3
76574.1
97988.7
100834
97725.4
98444.7
98391.5
98459.5
82506.6
98425
98396.7
98420.5
98065.1
98226.2
98410.1
98411.2
47033.7
98584.5
48091.5
47903.7
98400.7
98418.6
98408.8
98703.1
50918.3
98303.5
98334.4
99043.3
98245
98971.4
82322.8
98749.9
113800
99522.1
100033
99066.3
98864.9
98400.1
98622.9
99165.6
98723.6
97972.7
98288.6
98368.9
98429.8
101246
98345.1
95687.6
100501
98449.2
98276.5
75808.5
98915.9
97754
100290
119184
118873
98987.3
99429.6
99887.5
119128
118324
84922.5
119596
98332.7
98356.6
125202
116936
97908.1
98673.1
98646.6
98244.3
97687.3
98386.9
98209.3
99373.5
99400.4
99363.3
98672.4
98189.2
97730.7
97820.6
98113.2
99364
98666.8
98486.3
99343.4
98428.9
98203.8
115630
98263
77418.2
63258.3
70724.2
98242
52853.6
96905.5
78795.5
98385.3
98496.3
98295.2
98434.5
98304.9
98663.8
99300.8
98500.2
98182.6
98317.4
98634
99855.4
99199.5
99331.1
116475
117604
113436
113660
116825
117853
99905.6
98377
98356.5
98325.8
98027.9
98343.5
98336.1
98340.5
98377.3
78413.1
47108.1
98330.9
90975.2
99784.7
79750.9
99805.6
98442.3
98531.7
98504.6
98129.7
98588.3
98500.8
82220.6
98346.5
98901.5
58799.1
46572.8
97861.3
74434.4
98336
98185.3
97786.1
98924
98292.6
98916.5
98005.2
98408.5
99173.8
98231
98769.1
98765.4
98800.3
98568.1
98441.7
98427.4
98240.9
97711.1
98468.1
99299.7
87644
70969.4
98467.3
73631
99520.9
98423.9
98423.5
98426.5
98475.5
100072
98420.8
99840
98395.7
98925.2
50340
98399.6
64003.1
99398.4
98249.8
98247.9
99464.1
99409.2
97688.3
98509.8
98436
53863
98196.5
98374
99081.2
43239.9
94609.3
98846.7
99392.8
99389.5
98058.3
108839
98287.2
99386.3
111315
111701
102040
99227.4
97785.5
109384
112419
98312.1
99378
98328.5
98331.1
98324.5
98400.3
98734.1
99853.4
99420.9
100476
99422
99655.7
99181.1
99213
99380.5
98386
91465.6
98400.7
98947.1
98394
98384.5
98402.6
98437.7
98425.8
98435.7
67355.1
98405
98394.6
98394.4
99591.3
98470.7
105800
98235.6
98596.8
98496.9
98311.8
98520.2
98349.8
98174
98296.4
121629
98310.3
98373.9
98340.6
98371
99013.1
98356.9
98871.2
99736.6
98332.2
98298.8
98272.3
98181.3
98098.8
97998
98440
98438.5
98317.6
98146.8
114623
107622
98477.3
117787
98213
85299.9
49707.2
47812.1
54337
89688.1
98266.8
98390.5
98267.7
98294.8
98277.7
98281.5
98605.7
98440
98466.9
98501.9
96078.3
98211
98439.7
101925
98227.2
98448.6
98473.7
98394.5
101186
98499.9
110505
97679.5
98443.9
98428.9
98408.5
98421.4
98277
98559.8
98696.7
93213.8
94692.8
98166.9
98148.9
99135
99237.1
98642.6
99209.5
102015
102441
99354.8
101340
102008
99902.8
98185.7
99869.2
99846.3
99814.4
99682.2
110504
99832
68413.6
98952.3
56253.1
100608
74764.8
98383.2
97813.7
98115
97768.2
98360.4
98351.5
98377.7
98399.4
69610.2
98365.5
98333.5
98289.5
98408.3
106901
98295.7
99135.1
98320.7
99134.5
98268.9
98184.5
98228
98182.8
99118.3
99056.3
97963.5
98740.1
98376
92565.6
118569
99345.5
98393.7
99346.7
98337
97615.4
98289.7
98326.6
105651
108878
98298
111738
99731.5
98952.2
103943
106126
100483
99827.8
97882.1
99008.1
98391.6
98405.5
98402.1
98933.2
99009.8
98886.4
98938.9
98350
99438.3
98351.3
98522.3
102218
98502
74527.4
98614.4
98979.6
54945.5
118365
98515.5
98547.9
98738
97749.7
98325.1
98367.9
98331.9
98354
99289.7
98524.8
99338.7
99251.6
99245.9
99372.3
99338.1
99791.8
99830.3
99955.7
98026.2
43515.3
99332.4
99289
98403.9
106985
98621.7
98601.8
100097
97955.7
99266.6
99748.1
87593.3
98637.9
99276.8
97823.1
98342.3
99872.2
98155.2
68925.8
95340.3
104716
98402.3
97415.5
98174.8
98405.4
98405.9
117016
111045
112196
112999
98434.7
114095
98538.1
99309.3
98408.6
117236
98989.7
104087
98454.7
98406
98836.7
98272.7
98349.9
98975.3
99108.3
98350.5
98457.8
99252.7
98429.8
97044.9
98412.7
98374.9
98374.3
98391.2
98907.2
99383.4
58142.6
93299.2
83669.9
98334.9
106000
92935.1
81820.3
108594
109374
100045
100008
100273
98216
50956.1
100210
98397.9
98486.3
98542.3
98540.2
94295.5
118462
97629.2
98399.3
98420.5
98407.2
98282.7
98300.1
98284.2
98386.2
98528.4
98499
97927.9
97928.5
98507.1
99095.7
99307.4
110077
98416.8
98329.7
87264.8
118286
99818
99740.4
98601.8
98149.8
98422.8
98165.8
99296.8
99776.8
99995.1
99862.2
97647
97832.3
99633.4
97778.3
98104.5
87568
98161
83905
93824.6
98346.4
98340.1
80635.4
44704.5
98339.6
98162.5
98209.6
98373.7
98378.4
98310.7
97921
98394
98231.1
98258.2
98394.7
98412
101689
100431
98319.4
94760.2
82506.8
98546.6
98450
98467.5
98477.2
98475.6
98501
98338.9
98445.4
98481.7
99749.9
95812.2
98875.3
98527.6
98489.7
98403.6
98482.5
98482.2
98793.4
112487
98410.8
98614.2
98410.7
95468
98326.4
98389.1
107668
98360.5
98405.7
98081.8
73463.1
98655.4
98651.7
98632.5
98598.6
99233.9
99617.3
99361.7
99163.8
99322.5
97673.7
98459.8
112993
97944.9
97741.8
98361.9
98071.6
98419.1
99271.3
98401.8
98689.1
95533.2
111392
112796
99264
98087.9
99280.5
106055
106220
117008
70888.1
102366
95772.3
99273.3
97133.6
99421
99238.9
98368.6
98700.7
98432.3
98442.9
98208
98307.8
98318.3
98358.5
98394.9
98292.9
88542
83233.5
98343.6
99228.9
99191.2
99272.1
99187.5
107827
101724
113478
112752
121866
116641
98375
98345.5
99041.1
99057.3
99083.1
98976.1
98464.7
89653.2
111071
104177
110702
85802.3
111040
98318
98354.7
98373.7
98370
98389
99261
98464.1
99318.5
99351.8
100786
98303.1
98430.2
97060
100557
97845.9
99687.4
119280
99716.9
100629
113853
98299.5
84439.3
98218.4
98691.3
92303.2
119685
116156
98300.5
116846
98275.6
116137
115562
98519.1
115289
117932
98555.8
98597.3
98635.9
88963.6
93553.5
102810
86965.5
75288.8
98236.5
98196.3
98362.3
98477.2
99063.1
72100.2
99202.9
61046.8
99099.9
99027.9
99054
80160.8
60209.8
98300.8
98301.2
98712
98958.3
99170.1
98705.7
98349.3
81541.6
81133.5
82907.4
98541
98949.9
81988.5
77408.2
93124
92279.1
98925.1
100152
98842.9
98908.5
98573.6
98818.9
98867.7
99070.8
98797.2
94951.3
117515
117933
102126
81935.3
104803
97849.7
98394.1
98926.2
98813.5
99154.4
99938.9
97869.2
98335.6
101341
96402.1
69232.2
78334.2
60836.5
82150.6
98627
98580.8
98545
98363.7
98415.9
98413.5
98412.9
98410.3
98413.6
113394
98451.4
98588.8
98690.7
98387.9
98403.9
98321.7
98387.6
98425.3
98384.3
97650.3
91432.1
100978
104007
99265.1
85144.2
98394
98413.4
98420.4
98411.9
99254.5
77729.3
98418.9
98388.4
98928.2
86110.3
98860.7
98554.7
98326.5
44794
98395.4
98388.8
98521.4
98424.1
99191
73970
98392.6
98450.4
98432.9
98419.7
98424.5
98442.9
97947.7
95136.8
100940
99274.5
99430.7
99408.4
112161
104056
98390.9
100875
100729
99077.4
98144.5
98212.3
112502
111782
115977
73187.8
56801.6
98365.1
98381
99014.2
106081
103845
98409.2
98408.8
98367.7
98588.8
59028.7
98613.9
98374.7
97866.2
71932
98105.6
98090.2
98165
113540
98347.9
98064.8
98416.9
98271.9
98079.9
98769.1
79764.6
97955.9
84994.6
105817
98405
98413.4
98763.3
98490.6
98633.9
98693.6
99319.5
99373.8
97873
95194.6
48866.9
100645
98686
98547.7
98357.9
98448.3
98392.2
98985.7
99096.6
99200.5
99277.6
99893.7
80629.6
60168.5
62953.5
65579.9
98922.6
114827
97772.4
119359
119541
99496.8
98284.9
99854.9
98377
99686.3
97301.4
100511
98280.7
102875
98509.2
98484.4
98261.6
97552
98420.3
98417.4
98392.8
98688
98462
98837.4
98504
98663
98604.4
98946.2
98656
98423.5
98417.1
98421.5
58747
98431.9
111987
98309.6
119176
98322.1
98365.4
98373
97543
97698.1
98234
98378.7
98399
98386.4
98733
98362.4
83869.9
99419.4
97888.9
87691.5
98279.4
99509.7
98322
99255.4
98545
98620
98398.1
98656.8
99613.1
113937
99320.4
99430.4
99297.8
73093.2
98681.2
98404.2
98979.6
98766.9
98408
98542.2
113990
104221
115528
98272.8
98446.7
98448
99204.3
98399.3
98892.3
99065
98744.8
99308.7
99342.6
99388.5
98656.5
99253.1
98210.6
97744.9
97997.8
98579.9
98408.9
98514.7
98515.3
98437
98221.6
98668.9
100973
100228
99476.4
99912.2
91740.8
97130.2
98054
42777.5
100434
53685.3
120810
89375.9
104299
49896.5
98272.4
98252.2
98274.8
98302.7
98261.9
98058.1
98408.4
88161.5
98286.1
97909.9
98293.4
98414.9
112802
98326.4
98414.4
99603.3
95908
97119.4
97689
98395.4
95802.2
119525
98899.6
98417
90391
99333
98370.2
98343.9
98369.1
96781.1
107442
98438.2
106455
107551
106616
99744.8
98403
98422
98422.9
98505
98468.6
92266.8
104394
100965
98510
98506.2
53217.2
95900.2
88230.2
98383.3
98198.9
99284.1
98346.5
98332.7
98530.6
98383.5
98448.5
98480.8
98488.5
98488.3
98464.6
97668.2
99648.9
99489.8
98391.4
99557.4
98435.9
98380.9
101140
80192.3
98855.5
84765.9
85701.6
87383.5
100760
118291
117015
82465.1
98237
98335.7
97815.9
73593.4
98304.7
98262.3
98339.3
98297.7
98543
98482.1
98384.2
98523.7
90376
100410
90808.5
98156.2
98461.3
98547.1
89500.5
98562.2
98307.9
98318.6
98279.3
98427.3
98498.2
98453.7
98720.9
99908.4
99393.4
99427.9
101632
100147
100386
95061.9
96074.5
119121
97498.2
94202.5
98428.4
98065.5
117953
99976.4
98331.9
98343.3
97778.1
97814.9
98001.9
90701
98278.9
98300.6
98125
98079.9
98426.7
98790.4
99174.1
98779.6
98402.2
103888
105424
98392.8
98430.7
99364.1
99430.2
97814.8
98231.8
98357.9
97515.9
98388
98399.7
100327
99094
100449
102068
118852
107153
100716
119374
98530.5
98139
98319.7
98260.7
95437.5
87059.6
97427.6
75054
88504.8
98285.2
98286.3
42683.9
44657.8
63621.8
98285.1
98273.8
98322.3
98294.2
98385.9
98388.5
98517.2
98545.3
97978.9
98572.7
99220.6
98206.4
99329.4
99297.3
99200
98312.6
98576.1
106747
106310
96142.9
98886.3
106067
85807.7
98291.5
98280.2
98266
98279.4
98144.5
98503.4
98471.5
99788
98980.8
99599.9
99279.1
99208.6
114265
85565
99215.1
98873.1
91684.4
98452.8
98130.4
98453.7
98622.2
97719.7
97351.4
99981.4
97954.4
98392.1
98367.7
108325
98357.6
100175
98359.5
90292.9
98364.1
98394.2
98432
98471.7
98450.9
98471.2
98359.8
98448.8
98403.5
98414.4
98431.3
114058
98339.7
99040.9
96638.9
94486.4
97268
96230.3
98343.9
98401.4
98992.2
98886
99345.5
110959
98441.7
99147.6
99266.9
98321.9
79980.9
98317.3
98351.9
98768
98802.2
98795.4
98827.7
98459.8
98800.1
98594.6
98523.7
98428.8
98506.6
99698.6
99340.5
99649
98296.6
98258.8
90840.9
85431.1
98443.9
92840
64022.7
96467.1
98391.2
98371.9
98112.5
75420.5
99313.4
73589.1
93333.9
100515
99902.1
102326
100328
99788.5
100078
99767.1
99133.4
98622.2
115105
98266.1
110263
113805
114194
92248.8
94090.1
98312
74923.8
61875.8
93809
98266.6
98244.9
98254.5
117648
106977
113746
98410.4
98409.4
115297
115876
98674.1
98534.1
115184
99252.4
99312.4
98854.6
99380.2
98189.9
98332
98248.4
98255
98477.9
98449.4
98476.1
98472.4
61863
57503.4
93810.6
95181.3
99331.6
98454.3
98420.3
98098.3
94018.5
99134.9
98317.6
98589.1
95081
42788.8
49936
55705.9
55573.5
99802.2
98270.8
98273.1
98274.6
98263.7
98282.3
98263.4
98564.5
98401.6
98644.6
98433.4
98473.4
98447.2
92040.3
99377.6
99449.9
98290.4
101977
98403.9
113959
98475.1
98346
98347
98349.7
98323.5
98305.2
98316.8
98351.8
98337.6
98357.1
98325.9
98324.1
99007.9
99034.6
99089.7
97707.6
98006.8
99390.3
97961.2
97879.4
98366.5
98394.7
98342.3
98469.1
98168.4
98272.7
98042.6
98859.4
98339.7
99184.1
119063
111447
106388
98985.5
99160.1
99190.7
56823
47058
98219.7
98967.4
98232.9
98406.7
54358.6
98395.5
98495.4
98375.2
98224.6
99787.9
99703.4
97978.1
99452.9
94333.1
99232.8
98945.5
50979.6
53305.8
60316.7
58728.9
86616.3
81119.1
83179.3
62327.2
79312.1
119164
80589.8
89529.7
80894.2
83953.6
46976.6
44989.6
82435.9
85448.3
98420.5
98411.5
98403.2
98409.5
98277.6
98413.4
96718.1
98275.8
98427
98626.8
98736
99548.4
98534.5
98556.4
100144
98546.2
100078
98122.7
98055
98110.7
98409.7
98430.7
98386.7
98215.1
100273
100096
99340.5
96160.6
100362
98384.5
98369
98367.2
99244.9
98403
98367.5
98389.9
98402.4
98321.2
98398.3
98395.8
98375.4
98353.5
98495.5
98366.9
118617
113650
98318.4
98323.6
72665.5
98278.5
97882.8
97796.3
98224.6
100395
102158
98256.2
98741.5
98281.2
98235.5
98320.6
98242.2
98286.9
98464
98457.5
116024
99977.3
98256
99935.8
98420.2
98408.3
98408.1
91305.7
75979.8
98298.8
99431.2
99261.2
86493.7
98292.8
98314.1
44144
60835.8
65644.4
98995.7
76711
70473.2
108611
98483.1
99377.6
98415.6
98463.4
98449.1
98415.4
98412.3
98413.6
98436.1
98372.7
98409.9
99390.8
98607.5
97775.7
97857.5
97761.2
98542.7
98428.3
98976
100075
98742.5
99194.8
99395
97170.2
98583
97974.8
95194.6
98269.1
97983.2
98251.6
98515.8
98291.9
98312.7
98432.5
99289.3
114759
98593.5
99041.8
98880.9
99402.9
98872.7
98976.4
98891.6
99409.7
99253.9
60419.8
98314.7
98332.3
98412.5
98622.6
113526
97090.1
96882.2
95895.2
97389.6
98383.9
98441.1
98420.8
99385.6
107308
99425.6
75492.1
78400.7
77681
97990.4
98367
69557.4
106592
95306.6
86083.5
98278
93430.8
85431.1
96976.7
98379.2
98417.4
98418.1
98403.3
99224.4
98435.3
99091.7
99363
99363.1
98421
99411.5
98420.7
100116
68236.6
97877.3
98175.2
98484.6
98552.2
98487.6
98311.8
98534.7
98494
98456.2
98392
98593.4
98434
98308
93853
99397.6
108847
112496
99411.4
98930
99082.5
99125.5
99151.4
91542
100271
99726.8
98424.2
97163.3
98926.1
107606
108769
97882.8
98017.7
97884.2
97769.8
106453
99859.5
94356.1
94875.5
99808.9
98138.7
99843
98314.2
98383.4
98421.6
98404.9
98105
55733.2
98568
99816
99400.2
53920
43210
45550.6
98415
98390.9
98465.8
98417.2
99723.9
99377.6
98300.4
98906.9
98159.2
99329.6
98032.3
111262
75449.3
97472.5
89893.2
98439.5
98481.5
98072.8
108466
107893
107239
112234
98033.4
110212
98426.4
98416.3
98400.6
98421.5
98415.8
98065.9
69756.1
73130.3
95681.3
98722.8
98429.9
98581.6
98552.9
99900.8
89693.9
119284
102264
99479.4
66966.7
84317.2
98345.5
98497.2
98338.1
98504.7
98976.7
99161.9
99105
97888.6
98270.5
98339.2
97973.4
98363.8
113150
117903
115875
42721
98348.2
98353.2
88109.9
99901.2
66567.2
100883
64016.2
68886.5
69892.6
68551.5
99717.3
99730.8
98358.7
98347.9
98320.2
98582.7
99502.2
100556
98108.8
98350.9
86446.5
48307.1
98337.2
99371.9
108709
118747
118115
115560
97519.9
120691
98079.2
68353.5
115217
98240.6
98187.2
59829.5
98284.4
98029.6
98421.4
98143.2
98411.4
98410.6
97494.3
99661
101970
99791.9
98338.4
97253.1
97878.3
76713.7
98350.9
98313.7
98705.1
99388.3
98501.3
97973.5
98619.3
98885.1
99416.8
99287.9
99447.4
102317
99425.7
99366.2
103995
98956.5
99120.5
98413.9
98417.6
98370.8
43216.7
98435.1
49465.5
90552.4
57575.1
53359.5
51528.8
53078
54110.4
47855.8
45669.5
70483.6
99337.7
47594.7
49755.4
97725.6
97966.8
98447.6
98199.3
87110.1
84201.9
42602.8
98438.3
99390.1
98673.2
105961
98715.3
98327.2
98747.9
97860.1
98433.4
98317.6
99351.3
98581.6
101552
98401.9
98402.6
59351.4
98846.3
98434.2
99685.8
54699.5
57270
52316
99394.3
99412.1
62891.1
58381.7
98345.9
98500
98473.2
98448.9
98448.4
99291.9
97654.3
109013
102798
113035
112645
110996
98333.6
74667
98325.2
98147.2
98403.8
98448.6
97574.2
97829.4
99434.1
99843.9
97701.7
98307.1
97603
97900.2
97838.7
97845.2
99832.8
97833.3
97609.3
98068.6
97666.1
92199.8
99917.3
91863.1
98736.5
98320.7
98410.6
98393.9
98429.9
98095.5
98420.3
93477.1
98410.8
71687
98751.8
98268.5
98419.6
98450.2
98473.3
98625.2
98755.1
97824.5
97855.2
98431.2
97977.3
97730.2
98729.8
106465
100024
101247
98237.5
98259.5
98458.9
98290.4
98318.7
99400.3
99407.4
98693.7
98700.5
98661.2
91885.1
98442.4
117415
99968.3
108675
99385.4
98392.1
99420.3
98438.6
98157.9
98000.8
98206.5
98420.2
98482.1
110224
98411.4
98435.7
98411.4
98105.8
99736.1
87602.8
65820.2
99195.4
50002.3
94987.5
77992.5
96313.5
97144.6
98418.6
98427.5
98425.8
98478.1
98415
95954
94922
96426.3
98426.2
98397.8
97890.3
96964.7
98415.3
98416.8
98407.4
98381.4
98362
98383.3
98237.8
98267.6
99383
98352.8
105515
101838
99428.3
98135.3
98068.5
99012.1
72861.5
97336.8
77628.5
98524.3
98503.1
81167.1
98307.9
103771
96611.4
97406.6
98324.8
122224
98429.7
97646.6
97770
98337.1
98498.3
117310
98360.3
98336.3
98304.9
99671.8
99171
99781.3
99690.8
99152.4
99632.5
99579.3
100960
98488.3
99184.8
99067.7
97630.1
97540.5
97793
98305.1
109035
46795.5
92221.4
77716.9
45375.2
96500.4
98219
98461.4
98403.4
98416.9
98546.1
98587.2
91069.5
95997.1
94354.6
98456.6
98472.3
98497.9
98498.6
98362.9
73092.6
81391.3
87396.9
90951.8
80993.6
111922
98607.8
98393.8
99122.3
99079.4
98339
98327.1
113473
98349.7
100673
118222
101009
98742
112142
98715.6
98701.9
113870
98392.3
115370
114969
98315.3
98412.3
98657.6
117189
116659
97931.9
97851
94301.9
112351
116740
80443
103094
103398
105426
105955
107667
98197.6
113319
98195.2
98595.8
98566.7
98190.7
98333.2
96778
63238.6
118434
98311.5
98255.8
82989.4
111146
98564.4
99544.3
110174
118766
99786.3
99149.9
98921.6
98730.5
48556.7
98406.4
56858.5
98409.8
98419.9
98416.3
98631.8
98648.8
119029
98370.5
98397.9
98362.7
98243.6
98379.4
98380.6
98370.1
98360.2
98365.2
113287
98496.1
98514.2
74843.4
98334
98316.1
104370
119781
98508.7
120168
98342.6
99442.4
99764.3
99723
107561
75865.5
98173
98590.5
92521.4
102177
98202.1
97579.3
92297
98168.8
98470.8
98710.9
98470.4
98510.3
98432.2
100302
94157.8
98466.5
98258.8
98440.2
103944
98602.5
98373
99399
98097.7
98380.2
102970
99924.7
99873.6
111250
98013.3
98356.7
97640.4
116800
99774.5
99651
99518.2
99728.5
99516.2
100066
98567.3
98619.4
98677.3
97938.9
97878.4
97626.1
97924.3
98759.3
98327.4
98530.1
97587.7
98506.2
98240
98736.8
98418.2
98395.8
98979.1
98442.1
97866.4
99172.9
98989.2
98802.2
99233
98742
98752
96398
98440.9
43673.4
49018.5
100074
98510.6
98301.1
79762.7
98169.9
98377
98398.1
52355.5
64442.2
47065.6
98412.9
99298.5
75903.5
97704.7
79908.3
65693.9
67411.1
88578.6
94675.4
98313
98330.6
98283.7
98348.8
98286.2
98312.7
98313.1
98355.2
98355.3
98990.1
98453.3
98165.6
98075
99429
98379
96597.1
98395.4
98999.1
116671
99345.5
98083.2
98971.7
100233
90467
100464
101149
99353.3
99299.5
98942.1
98951.9
99464.3
114573
118265
118533
112369
98046.7
95774.6
98089.5
98339.8
98383.5
98324.2
98318.4
96122.2
108984
98434.7
98427.7
95590
98441.2
98443.5
98782.3
98426.6
98419.6
98428.4
98440.1
98427
98434.8
98990.9
99078
91466.2
76107.3
75343.9
96650.1
98013.6
98307.1
98457.2
98427.7
92027.9
99210
99253.1
99207.7
100518
98345
98386.6
98722.1
100239
98151.2
99301.8
99418.2
99313.5
97759.2
98213.8
98097
100481
100199
98551.7
98478
98296.8
108691
79145.6
98084.5
98319.2
101561
99621.9
98928.6
99668.8
99909
100130
99993
98718.5
99554.1
70252.5
48109.3
57530.6
98190.6
84791.5
105205
90351.9
99071.2
102279
95352.4
99622
109457
98403.7
98394
98443.5
98104.9
98239.6
98398.3
98413
99094.3
99058.3
97977.7
98522.6
98277.7
99312.9
49542.2
53413.9
65126.4
98156.7
61121
66182.6
99703.3
70071.6
98331.9
107808
98398.4
98400.7
98396.7
98447.1
98452.8
99278.8
99260
98447.7
98468
98447
82364.4
98667.6
98549.3
98165.5
98080.8
117469
53324.9
106759
99533.3
99568.2
103210
99588.7
98611.1
98031.3
97913.8
98331.7
98019.8
97901.1
70741.3
72482.8
72073.6
85268.6
99857.7
71629
98390.3
98384.3
99120.1
99051.4
99427.2
99474.8
98543.7
98524.9
97534.8
97667.8
98361.1
97617.7
98364.7
98388.4
75938.7
75478.3
115455
65253.6
99414.5
105930
99310.5
114690
113823
111241
111313
116585
117233
97721.8
98574.6
98163.3
98363.5
98105.2
98169.9
98226.3
97617.2
99232.8
98335.5
107453
98275.8
98252.1
98275.2
108844
98220.8
98335.9
56665.1
55845.1
59401.3
55582.9
94369.8
63787.1
58219.2
98329.7
98268
91827.6
64520
95977.5
91823.5
98302.3
112773
99274.3
97767.6
97637.8
98370.8
125020
98363.6
98355.7
89390.2
99821.4
99021.1
82920.2
98311.5
98396.2
98664.4
98537.7
98079.9
98219.8
98505.2
98284.6
98520.2
99238.3
98386.6
98411.9
98047.4
98502.1
98413
98607
98021.4
100097
98546.3
101258
93112.5
101952
100459
96949.2
98384.3
98866.9
98712.7
99224.6
99207.7
114748
57242.4
98302.7
98371.8
98407.8
98604.5
99371.4
91959.1
92712.2
98125.7
98370.2
98362
98459.1
98408.3
98462.3
99318.5
99180.3
116261
113326
98414.1
97467.3
98028.5
98043
98126.2
98393.8
98346.9
98278.9
98359
99427.2
96836.7
87602.3
93396.3
116425
95205.2
69289.8
98311
98404
98363.7
98394.5
98603.5
98513.2
98502.8
98479.7
98382.6
98405.6
99217.2
98355.3
98374.5
99074.5
99045
98963
99016.4
98509.5
98564.8
98521.5
98519.5
98562.9
71314.5
98608.6
96431.4
100270
98093.9
94395.7
95442.8
108315
98861.3
98807.3
98461.2
98572.9
103840
98223.5
98179.8
88989.8
81947.1
85865
79122.5
110528
110639
98506.7
98261.1
98075.7
98278.4
98378.3
98355.8
97284.1
98442.7
98378.5
97062.5
98418.4
98350.4
98499.4
98487
98462.3
98947.2
99256.3
98818.5
99082.5
98336.9
98348.5
98423.5
98514.2
98458.4
99014.6
98508.2
98458
98453.7
109477
108863
88392.9
83587.1
91075.5
98326.5
98287.7
88783.3
103158
90546.1
98389.8
98864.1
98671.4
98659.6
99384.5
95393.8
98302.6
74177
65884.2
68328.1
98325.8
98355.2
98634.3
98722.7
98768.3
98797.4
98859.8
99345.2
98716.8
98937.9
97996.6
102103
103957
65758.7
101486
47577.5
113091
115095
102540
115918
102775
91030
91303
63710.1
98317.4
98278.4
98289.2
98272.6
98403.2
98394.9
98391.3
98565.7
93827.9
97993.4
98166.5
98553
98530.1
128866
113550
114399
99297.7
94971.6
99251.2
98380.7
98297.9
98375.2
98404.5
98995.5
104436
43170.5
95836.6
93780.3
94455.4
96276.6
100320
113576
99584.5
100107
98329
98335.8
98334.9
98355.5
90245.2
116426
120838
114517
114900
97246.4
114039
98096.9
99819.7
99972.5
98440.9
98356.4
114888
118254
98475.8
111525
62484.9
118440
119061
99198.9
95515.8
126746
122281
113369
115505
111831
92950.1
98420.4
108933
98342.4
98365.6
98354.4
98440.7
98961.8
99132.8
99084.2
66195.5
60790.7
60090.1
98281.6
97596.8
91324.6
98611
98334.7
98415.1
98561.9
98602.2
98610.7
97388.1
98465.1
98384
98348.1
51430.5
98381.4
53598
50479.6
99108.1
58904.5
53943.7
99269.4
99232.3
99960.1
99962.6
98321.3
98425
114426
114442
115331
115261
99874.6
96918.7
98336
98789.7
98270.5
98188.9
97910.3
98413.7
98408.7
98342.9
94447.2
98111.9
98310.8
98395.9
98376.2
99157.8
98972
98471.8
98341.1
99032
98910.6
89313.1
84839.7
103085
87396.5
109430
49909.2
91998.9
111895
112814
112983
82515.3
98876.4
98949.8
98310.4
99063.8
97879.9
99571.2
98408.8
98458.8
98151.9
98319
98298.7
54099.7
98326.5
98621.7
98413.6
98885.3
98478.4
98692.9
98411.7
98291.5
98303.1
98702
98965
98597.7
77343.5
106332
102090
98000
97963.8
98287.3
100067
98427.1
99226.9
84806.6
98505.7
97410.1
105842
99150.5
97369.9
96165
98466.4
98501.7
101274
98454.1
97796.5
98975.3
98728.3
97668.2
79127.2
87108.3
75173.5
98376
98422.9
98391.7
98380.4
99175.3
116825
98380.7
98352.3
98359.5
98827.5
98375.8
98584.3
99197.7
99262.6
99179.9
99156.1
98673
98704.5
97902.4
97598
99821.2
90360.8
99747.4
112800
114763
99268.2
82612.1
98390.7
80671
98449.9
98409.2
99310.4
81473
98318.3
98328.4
98334.6
99246.4
99785.8
99508.3
99807
90448.5
94931.8
92748.6
98838.4
100700
68270.9
97849.4
98776.4
99285.4
70185.1
100040
98769.3
89725.6
98790
62919.8
98400.1
98392.9
98431
98370
98363.2
99029.1
98381.7
98705
98308.2
98375.2
98387
98229.5
99107.2
98895.8
99007.5
98210.7
113144
97624.8
98698.8
56825.6
98391.6
76445.4
98041.1
98294.6
98280.3
68984.4
67390.2
100354
62176.8
99275.6
99997.8
102741
99156
98306.4
100659
98535.3
98807.6
98492.2
98581.6
95990.2
108859
97657.3
97964.8
99221.9
94082.8
77308.5
75559.2
98375.3
98425.8
98440.7
57860
98490.6
72039.4
98409.7
61669.1
98415.4
98409.8
98280.1
60693.3
99038.6
98944.7
99128
98034.6
99091.9
98785.2
98593.3
98818.4
106418
90300.3
98420.2
117800
99717.7
99573.8
99543.1
98506.4
95861.2
97173.9
99595.5
100022
98814.8
98743
98771
99358.4
99564.8
99238.1
99076.7
118179
98531.9
98588.6
98492.1
117207
117374
98433.9
99755.3
98455.2
98380.8
98470.2
98373.8
99105.8
99165.4
86524.8
98207
98208.2
82527.8
98531
98559.3
98369.8
100430
102032
100962
56885.2
99741.3
98430.7
98232.8
98428.3
63976.7
98192.9
48414
43969
98537
98222.9
98516.6
98410.7
98403
98443.3
98408.2
98207.6
98413.1
98452.2
98471
98415.6
99294.3
99239.6
99219.6
98383.3
98391.4
98386.6
104419
100278
113393
99006
97665
117588
97732.8
97829.8
98376.2
99229.1
98281.2
99340.7
98244.9
99474.2
119940
98517.5
100935
98948
99064.3
98875.5
99041.8
98666.2
98402.4
98874.8
98510.4
98321.3
64706.9
74137.3
117061
95880.9
109378
119320
109455
117018
98137.9
99817.1
99554
99746.5
73382.7
72351.8
68688.8
50074.8
98434.8
98419.3
98414.6
98369.5
98419.3
98417.6
98478.2
99058
99147.3
99215.6
99122.1
99152.7
82104.9
89193.8
84959.8
85834.4
84522.6
98614.4
98591.3
98420.1
100984
97937.4
98389.7
98400.4
98397.5
98415.2
98446.9
99351
98472.5
98348.3
99333.6
99304.2
98379.6
99321.9
99473.7
98403.4
98412.4
98293.5
98416.4
114061
98506.3
98851.3
98474.6
99220.7
98364.9
98377.2
98387.9
100249
99783.6
98722.1
98599.3
117486
114396
118555
115809
98353.4
98329.2
98715.3
98515.7
98347.7
98546.1
98570.5
117534
109749
70366.7
45263.3
98344.2
98357.1
98363.9
98392.7
43111.4
44725.9
44491
99147.9
99030.9
98227.2
99128.7
104827
99441.1
98307.7
98433.2
98471.6
98404.7
98403.6
98438.8
100953
98232.2
97036.4
99536.5
98441.4
93745.5
98374.2
91494.5
98309.9
99491.6
98385.2
98401.8
98511.9
99382.1
99342.9
99263.5
97758.7
98558.7
98495.2
101608
98099.1
98455.2
98444.8
98371.6
105707
98286.6
98527.7
98447.5
107564
115412
98181.7
82859.4
98093.1
98105.3
97988.8
97997.9
97962
98451.2
98463.4
112827
102599
92288.1
77163.2
96425.1
98428.3
98445.1
96373.8
97648.3
95410.7
98582.3
98147.6
98319.9
116075
116371
116151
100225
100909
101076
99626.7
99806.8
99878.3
117467
100008
99780.4
99378.2
99955.6
98352.7
98082.4
110271
80554.6
97965.7
98553.3
98536.8
98741.8
98429.6
98803.3
97932.3
98322.7
97966.6
103207
82756.6
116736
102855
98358.5
98353.8
119499
118479
115242
99129.6
99279.3
99108.1
99089.6
98868.9
98877.9
107860
98823.2
98194.6
98184.7
98575.7
97733.6
97624.4
98263.9
98290.4
98637.1
85985.7
90521.7
45677.1
98255.5
97934.3
98420.2
98393.7
99343.5
99367
98210.5
98402.5
98405.1
98293.5
98383.6
98515
99115.5
98943.7
99141.9
99021
98894.1
99460.5
99143
99409.8
98666.8
99349.4
98414.4
99066.7
98411.9
98412.1
87592.5
89581.7
42241.8
73133.7
97784
95077.7
99647.4
100459
101168
86191.3
81792.5
80673.6
81330
89088.7
76080.1
74687.4
116439
83677.4
50244
86522.4
52847.6
108901
97953.2
98412
98395.6
98366.5
98848.4
99052.7
98391.7
98380.8
98385.6
109186
98516.5
98580.6
99123.2
98480.5
98466.9
98789.2
118914
98345.1
98412.6
82979.4
103954
98576.2
98491.3
100014
99924.6
99958
99935.3
98394
98641.9
98499.8
98415.7
79627.1
90519.6
72754
98302
98264.5
98840.9
97873.4
98337.4
98361.1
98291.5
97795.1
98315.8
98275.6
98390
98067
98499.3
98516.8
98326.5
98218.4
98565.7
98215.9
98773.5
99461.4
99428
97829
97650.9
99462.2
99444.7
98471.7
100529
90089.7
98420.4
97959
98413
118539
98149.3
99063.4
98203.3
97021.8
92566.7
)
;

boundaryField
{
    Inlet
    {
        type            prghTotalPressure;
        p0              nonuniform List<scalar> 0();
        value           nonuniform List<scalar> 0();
    }
    Outlet
    {
        type            fixedValue;
        value           nonuniform List<scalar> 0();
    }
    Symmetric
    {
        type            symmetry;
    }
    Wall
    {
        type            fixedFluxPressure;
        gradient        uniform 0;
        value           nonuniform List<scalar> 
251
(
117787
119525
112369
90467
82920.2
92248.8
96778
97704.7
98227.2
98326.5
98329.2
98344.3
98355.3
98383.5
98395.4
98415.1
98415.4
98436
98457.2
98499.4
98562.2
98664.4
98792.3
98928.2
99056.3
99200.5
99299.7
99390.8
117061
118555
113393
92712.2
82322.8
94356.1
96763.9
97552
98178.8
98245
98331.1
98328.5
98358.5
98334.4
98370.2
98366.5
98413
98380.2
98430.2
98459.1
98537.7
98587.2
98712
98864.1
99063.4
99180.3
99307.4
99376.8
117486
121866
120810
120895
119280
99682.2
100760
92521.4
86110.3
84073.4
88989.8
91075.5
86805.3
85802.3
96426.3
95590
96078.3
97284.1
97060
97415.5
98013.6
98089.5
98166.9
98237
98301.1
98334.4
98275.8
98329.7
98284.9
98294.8
98339
98353.4
98313.1
98348.8
98321.7
98339.6
98370.2
98374
98356.8
98393.8
98386.6
98370
98407.8
98401.4
98372.7
98413.4
98376
98383.9
98426.2
98427
98399.6
98449.9
98443.9
98427.7
98471.8
98408.3
98482.1
98528.4
98542.2
98572.7
98610.7
98626.8
98696.7
98720.9
98734.1
98836.7
98860.7
98871.2
98976.1
98992.2
98990.1
99122.3
99135.1
99171
99244.9
99254.5
99256.3
99345.5
99353.3
99377.6
99421
99427.9