/*--------------------------------*- C++ -*----------------------------------*\
| =========                 |                                                 |
| \\      /  F ield         | OpenFOAM: The Open Source CFD Toolbox           |
|  \\    /   O peration     | Version:  v2006                                 |
|   \\  /    A nd           | Website:  www.openfoam.com                      |
|    \\/     M anipulation  |                                                 |
\*---------------------------------------------------------------------------*/
FoamFile
{
    version     2.0;
    format      ascii;
    class       volVectorField;
    location    "0.03";
    object      U;
}
// * * * * * * * * * * * * * * * * * * * * * * * * * * * * * * * * * * * * * //

dimensions      [0 1 -1 0 0 0 0];


internalField   nonuniform List<vector> 
3591
(
(-0.735418 -0.2319 18.6512)
(-0.144508 -0.0125142 0.695315)
(-0.262636 -0.010362 -1.04237)
(-0.0141194 0.0135326 0.0959272)
(-5.56419 -0.184775 5.16426)
(-1.20289 -0.0799663 4.48282)
(-0.161386 -0.0420615 -1.25882)
(-0.428115 0.0348118 -9.04598)
(0.146764 0.00762797 0.829588)
(-0.524896 0.223148 0.0407487)
(-0.203422 -0.00940217 0.0406223)
(-0.372556 -0.0943262 14.2017)
(-0.404036 0.191155 -32.0036)
(-1.45049 0.110404 -34.7081)
(-0.596829 -0.0368662 -8.1109)
(-0.623785 -0.189342 8.88694)
(-0.251868 -0.087787 -4.62757)
(-3.11614 0.03417 -9.71235)
(-0.495905 -0.0126229 3.82918)
(-2.27166 -0.402528 -9.62491)
(-0.963275 -0.553589 -5.68186)
(-2.73241 -0.378812 -9.08886)
(0.00657552 -0.000858365 0.421178)
(-0.0353386 0.000897013 0.699207)
(-0.0332668 0.0101291 0.613081)
(-0.0316181 -0.00591733 0.673917)
(-1.78076 -0.236812 -2.43791)
(3.46978 0.350753 -2.57873)
(-4.18687 -0.147661 -4.30297)
(0.00934227 0.00450178 0.150867)
(0.000137633 0.00217995 0.0761953)
(0.0170454 -0.0176395 0.129245)
(0.006226 -0.00752372 0.210946)
(-0.00540349 0.00519285 0.192518)
(-0.0658761 -0.00540835 0.792536)
(-0.0502873 -0.00787119 0.746407)
(0.0074265 -0.00431691 0.151555)
(0.00755229 -0.0105443 0.343906)
(0.0306818 0.00567255 0.661264)
(-1.08972 -0.0508534 -5.84374)
(0.0217098 -0.0366278 0.597523)
(-0.170992 -0.0406009 0.353498)
(-1.25741 -0.0488137 -4.57422)
(-0.19264 -0.686119 -2.57689)
(0.187697 -0.00275805 0.748393)
(-0.584971 0.0809088 -2.76269)
(0.125222 0.000876565 0.723956)
(-0.00204266 -0.0307433 0.404535)
(-0.915621 -0.00951502 -6.10594)
(-1.20509 -0.0591695 -5.54586)
(0.00664462 0.0150636 0.261073)
(-0.0589828 -0.00126741 0.751141)
(-8.33994e-05 0.00192691 0.101378)
(0.19009 0.0143261 0.710531)
(-0.00207112 0.0058677 0.284969)
(0.29492 0.0343959 3.09738)
(-0.0875226 -0.00524627 0.779924)
(0.366312 -0.191973 10.955)
(0.0636305 0.00949167 0.607463)
(0.0552652 0.00407074 0.583918)
(-2.06078 -0.0354928 -50.4656)
(-0.6995 -0.233897 15.1566)
(8.83953 0.535672 0.991234)
(-0.0299944 0.0145218 0.199639)
(-0.564253 0.00207644 -9.22539)
(-0.724929 -0.239397 14.7445)
(-0.0238493 -0.0103121 0.649354)
(-0.279402 0.014354 0.320521)
(0.00240508 0.00188116 0.734731)
(-0.495147 0.0462125 0.00874862)
(0.0294311 -0.0580671 24.6898)
(-2.59955 -0.226337 -0.466074)
(-0.154139 -0.00493766 0.411413)
(0.169279 0.0171633 0.728711)
(0.910506 0.0590912 -1.74536)
(-0.190877 0.101605 -10.1533)
(-0.406391 0.145372 -9.38691)
(0.240335 0.0111075 0.308187)
(-0.59137 -0.0773688 -0.253017)
(-0.147358 0.10363 -9.6876)
(-0.188595 -0.0318265 -3.90098)
(-0.241588 -0.0597805 22.6848)
(-0.885113 0.0258311 23.6281)
(0.224294 0.0328782 0.955574)
(-1.00084 -0.259295 -0.493446)
(0.00329677 0.0361219 0.354626)
(-0.0458064 0.000597296 0.322557)
(-0.461955 -0.330492 -0.654203)
(0.0590656 -0.00583021 0.777941)
(0.0395663 -0.00811087 0.332931)
(0.134096 0.0284128 0.764988)
(0.0309386 -0.00257306 0.280626)
(-0.101043 0.585669 -8.67487)
(0.00473339 -0.0165499 0.439611)
(0.227698 0.0227028 0.686742)
(-0.00371167 -0.00763204 0.521046)
(0.218338 -0.0108563 0.771392)
(-5.25029e-05 0.0115396 0.250582)
(11.6593 1.11957 -0.961584)
(1.09417 0.0612991 -0.0397933)
(0.0222856 -0.0076006 0.258913)
(-0.486935 -0.619924 -4.32508)
(-6.08571 -0.350508 -5.28438)
(-0.0306294 0.00110574 0.711299)
(1.85833 0.0378256 -3.87476)
(0.00977191 -0.0130904 0.448045)
(0.0411282 -4.29635e-07 0.323054)
(0.00832155 0.00182525 0.699953)
(-1.52417 -0.303975 -24.8397)
(-0.00598924 0.0111112 0.53722)
(-0.00469476 -0.032986 0.558218)
(-0.0842026 -0.00713931 0.873951)
(0.0877451 0.00325138 0.509216)
(-0.0822751 -0.00617314 0.887975)
(-0.0750577 0.000135061 0.842844)
(0.103049 0.00937939 0.605162)
(0.0218 0.000616446 -2.82757)
(-0.00103555 -0.0200517 0.275832)
(0.861909 0.0392449 0.0743534)
(0.00303707 -0.000162784 0.0766457)
(-0.46744 -0.0033435 -9.38171)
(-0.130375 0.0297927 -1.54459)
(0.00242849 0.00648939 0.202788)
(-0.00269867 0.0087868 0.230649)
(-0.153565 -0.0647976 20.3477)
(0.266034 -0.178939 13.0456)
(0.446063 -0.150127 14.5259)
(-1.56807 0.11058 -38.1282)
(-0.0535206 -0.0085522 0.876489)
(-0.434831 0.191349 -35.1404)
(0.0785279 0.0061646 0.32873)
(0.107724 0.034456 0.848933)
(-0.520107 0.188649 -37.2432)
(0.011029 0.010562 0.0919438)
(-5.36724 -0.0824792 -0.846469)
(-0.910183 -0.0766746 -6.88686)
(-0.819282 -0.0427807 -6.91569)
(2.62262 -0.0584743 -7.51985)
(-4.24999 0.0349833 -6.61981)
(-6.09693 -0.224341 1.25036)
(0.235131 0.0702783 1.04309)
(1.89428 -0.0566378 -8.46996)
(0.114233 0.00357823 0.713068)
(0.016196 -0.00802684 0.427925)
(1.55691 0.0268178 -9.3966)
(0.0991366 0.00765655 0.666695)
(3.47772 0.147462 -6.11913)
(0.0163095 0.022127 0.137672)
(0.0111518 0.00793027 0.845323)
(-0.00816074 0.000948411 0.325762)
(-1.81541 0.0354333 -6.43153)
(-0.0487409 0.00847127 0.738338)
(3.40591 0.0809719 -5.88793)
(-7.77224 -0.14049 0.759743)
(-0.136975 -0.00929505 0.795272)
(-0.0241788 -0.00312875 0.714708)
(-0.0582161 0.0131314 0.783857)
(0.50525 0.0607231 0.95423)
(-0.975426 -0.640698 1.30308)
(1.48814 0.36767 -3.58695)
(0.229047 0.00834168 0.972298)
(0.0535692 0.00429295 0.792181)
(-0.436191 -0.12783 18.7021)
(0.128157 0.0077764 0.312423)
(-0.0150948 0.00197485 0.573049)
(0.000942121 -0.0236316 0.373691)
(-0.0156693 -0.0137394 0.48704)
(0.0215851 0.0136624 0.215321)
(0.0826635 0.00230286 0.353302)
(0.709089 0.0260447 0.223886)
(-0.0240476 -0.00410696 0.614544)
(-0.0477489 -0.0107696 0.998251)
(-0.239487 0.00318037 -4.888)
(0.116341 0.0118486 0.429413)
(0.135231 0.00079711 0.382485)
(0.723327 0.00620693 -1.94432)
(-0.324083 0.0163546 -4.99823)
(-0.452764 -0.0204563 -8.78901)
(-0.0435587 -0.00348142 0.726416)
(0.116074 0.00811965 0.620616)
(-0.340534 -0.0201686 -5.2515)
(0.155342 0.00646081 0.344057)
(0.102003 0.0102893 0.388509)
(0.100677 0.00438894 0.701889)
(-0.0427248 0.0212825 -0.296724)
(0.020173 -0.0179431 0.150344)
(0.0139932 -0.0149245 0.115422)
(4.07772 0.20838 -5.32088)
(3.91075 -0.000178445 -6.81159)
(0.387205 0.00940299 0.731914)
(-0.117437 0.00107902 0.522783)
(-0.0816319 -0.785141 -5.83841)
(0.283724 -0.0792882 -1.40782)
(0.00619665 0.00842808 0.150902)
(5.3277 0.0884076 -3.06099)
(-0.446876 0.181468 -29.1682)
(-0.0230332 0.00538525 0.685315)
(0.0455767 0.00392161 0.849592)
(-0.106254 -0.00534331 -0.239289)
(-0.222072 0.0254742 -4.23154)
(0.22394 0.0171414 -1.92992)
(-0.307803 0.00391881 0.605677)
(-0.412088 0.154625 -7.54322)
(-0.265087 0.0224776 -4.4174)
(0.0635291 -0.040098 24.2927)
(-1.69375 -0.0398759 5.49747)
(-2.7786 -0.058839 -2.71575)
(-1.57393 -0.108045 -4.49257)
(5.1619 -0.461193 -6.09963)
(-1.39402 0.105778 -30.8558)
(-0.495695 0.105035 -3.95068)
(5.91144 0.0435588 -4.47059)
(4.82686 -0.0188598 -5.01631)
(-0.3024 -0.106649 -0.271095)
(5.45514 0.360101 -6.47644)
(-0.351719 -0.0279682 0.255871)
(-0.00813994 0.0021299 0.635843)
(0.0691557 0.00530671 0.70082)
(-1.35453 -0.0415996 6.78315)
(-0.251928 -0.0125387 0.566313)
(-0.139836 -0.0097394 0.841982)
(-0.196254 -0.0191298 0.812766)
(0.165794 0.0158293 0.803574)
(0.22384 0.00389031 0.729717)
(0.158351 0.0208044 0.753444)
(1.23921 0.0502773 0.362468)
(0.0136844 0.0170611 0.105705)
(-0.265847 0.143394 -8.89097)
(-0.0149548 0.0102598 0.119603)
(4.59016 -0.355621 -6.2691)
(5.17148 0.136084 -4.0021)
(4.87883 0.0232612 -5.10805)
(0.0812048 0.00586125 0.800948)
(12.1235 0.562938 0.389532)
(-2.22483 0.13808 -0.712942)
(-0.0925587 0.0985769 -6.6283)
(0.187813 -0.0185141 -2.32898)
(-0.0525543 0.00976346 0.829428)
(-0.0262364 0.0120906 0.640057)
(-0.0570161 -0.010148 0.844792)
(14.008 -0.00393391 0.101945)
(-0.0559641 -0.00247192 0.901958)
(-0.107625 -0.00108951 0.857958)
(-0.0663185 0.00349513 0.823322)
(0.349313 0.0352936 0.963302)
(0.208694 0.01576 0.701667)
(-0.0159137 0.0151381 0.11403)
(-0.0637887 -0.00875512 0.771536)
(2.98242 0.441792 -0.166275)
(0.149021 0.00321678 0.890192)
(4.33261 0.331462 0.734236)
(3.75175 -0.103844 1.35396)
(-0.046441 0.0179927 0.727)
(-0.0633572 -0.00594327 0.772085)
(-0.0644921 -0.00225214 0.770328)
(0.0367297 0.00481845 0.78868)
(2.23551 0.323016 -3.25773)
(0.0101186 -0.0020026 0.151763)
(-0.0221625 0.0323625 0.251773)
(1.22699 0.0785561 -1.32307)
(0.0304095 0.0216697 0.18994)
(0.0158221 0.0108066 0.355075)
(-0.00902692 0.142439 -5.54594)
(-0.474605 0.157203 -8.9262)
(-0.274561 -0.0515587 4.26633)
(1.23588 0.081704 -1.04712)
(0.500396 0.0334914 -1.64304)
(1.36723 0.04364 -0.935485)
(0.435524 -0.00272213 -2.71577)
(-0.0135533 -0.0414847 0.553211)
(-0.116038 -0.0421969 -0.896256)
(-0.518622 -0.0238613 -8.20519)
(-0.210665 0.0264683 -3.5275)
(-0.131914 -0.0646974 1.02086)
(0.104082 -0.00190399 0.7088)
(0.0102574 0.000109658 0.690687)
(-0.0592052 0.011287 0.832606)
(-0.215185 0.102939 -10.2826)
(-0.256031 -0.00394867 0.743509)
(-0.162797 -0.0708459 16.9348)
(-0.537532 -0.00530398 -10.2633)
(-0.174995 -0.00844751 0.673203)
(0.170328 0.00549564 1.05833)
(-4.7907 -0.241738 5.82468)
(0.339152 0.0250629 0.656975)
(-0.413074 -0.0351056 -5.05576)
(-0.312904 -0.0811391 13.5439)
(-0.946588 0.0733899 1.60158)
(-0.764754 0.0185494 -0.0297079)
(0.150742 0.000268219 0.634525)
(0.259699 0.00647385 0.245312)
(-0.0409178 0.00416641 -0.181112)
(-0.453761 -0.00250518 0.579131)
(-1.7849 -0.0248531 1.20059)
(0.617535 -0.00194479 -10.1141)
(-1.32891 -0.0169688 0.762567)
(0.0149828 0.00952997 0.161493)
(0.0153623 0.028948 0.260596)
(-0.307553 0.174521 -26.8706)
(-0.296427 0.31702 0.0676875)
(0.0525924 0.0527634 0.44976)
(-0.0170814 -0.0361237 0.651051)
(0.0350802 0.00650978 0.823657)
(0.0958284 2.5933e-05 1.04014)
(-4.60589 -0.0881717 -0.66694)
(-0.0115137 0.00563227 0.550106)
(0.122992 0.0235148 0.585895)
(0.0341747 -0.000369457 0.306473)
(0.107535 -0.000530334 0.327062)
(0.128936 0.0011475 0.356324)
(0.0373601 0.0115276 0.800945)
(-0.00695522 -0.0836041 0.902205)
(-0.0386858 0.0109232 -1.78566)
(-0.0751509 0.0339752 -1.83587)
(-0.19355 -0.000854305 -3.51255)
(0.0949603 0.00485849 0.363745)
(0.371883 0.0187892 -2.81107)
(-0.0898098 0.000835009 0.533607)
(0.158102 0.0132736 0.36217)
(-0.0629908 -0.000619291 0.812899)
(-0.417855 -0.0291914 0.224547)
(-1.03847 -0.270459 -25.7003)
(0.148869 0.00630891 0.683108)
(-8.28145 -0.130545 -3.51324)
(8.64755 0.57102 0.683133)
(-8.39525 -0.621392 -2.43176)
(0.163316 0.00757782 0.669543)
(-2.1534 0.030644 -5.18546)
(-4.3113 -0.292533 -1.25616)
(-1.17318 0.0567283 -10.3148)
(0.00495827 0.00315453 0.447535)
(-0.0284409 -0.000492387 0.879479)
(0.110338 0.00850727 0.674547)
(-0.090438 -0.00065856 0.692789)
(0.0694979 0.00469202 0.674115)
(0.0581366 0.00847747 0.82303)
(0.239792 0.00301351 0.370163)
(0.466103 0.0322181 0.931286)
(0.121622 -0.00425323 1.04403)
(0.0995448 -0.000392045 1.01604)
(0.0510892 0.00574763 0.835911)
(-0.245201 -0.00329832 -0.0800795)
(0.406862 0.0101809 0.43617)
(0.0400974 -0.00230922 0.348043)
(-2.12243 -0.119181 3.18)
(-2.01895 -0.0696507 2.92437)
(-4.26805 -0.284536 1.22035)
(-4.09189 -0.169266 1.92634)
(-2.76243 -0.190136 2.08144)
(-1.63175 0.108551 -41.7409)
(-0.447478 0.0324276 -9.10274)
(-0.0143938 0.0058907 0.526876)
(0.00862879 -0.0227853 0.420513)
(0.0267723 -0.0119232 0.618301)
(0.275308 0.0288754 -2.79306)
(0.0171742 -0.00791266 0.641575)
(0.0239046 -0.00595183 0.66308)
(0.029074 0.000867954 0.692562)
(0.0120267 -0.0109235 0.450834)
(-5.17285 -0.0687537 -7.67158)
(-3.6025 -0.352118 1.1327)
(0.0467438 0.00190755 0.700338)
(-6.96991 -0.196152 -5.13841)
(0.255414 -0.000482104 -0.252854)
(-5.78462 -0.369755 -7.39187)
(0.374538 0.0140823 -0.289145)
(-0.138264 -0.015875 -0.972883)
(-0.576642 -0.0823872 -9.19112)
(-0.162662 -0.00572535 -0.268505)
(-0.0157156 -0.00154046 0.987144)
(-0.157384 0.0190989 -0.533093)
(-0.14307 -0.0075991 -0.752234)
(-5.53582 -0.181209 -7.68636)
(0.00371428 0.0109114 0.251815)
(0.0234897 -0.0236391 0.539599)
(-1.7075 0.118976 4.88721)
(-1.70179 -0.0218723 2.59978)
(-0.200951 -0.0114889 -3.71395)
(-7.23799 -0.0831187 3.29705)
(0.054672 0.00483488 0.677239)
(-0.298784 -0.00845805 -4.32127)
(-0.273223 -0.0208662 -4.55747)
(0.0292315 0.00239649 0.611816)
(-0.239827 0.00081165 0.787557)
(0.0643437 0.00472823 0.663063)
(-0.350583 0.0982035 0.0418248)
(-0.229697 -0.00606447 0.701642)
(0.957912 0.0853763 0.365279)
(-0.29597 -0.0147416 -0.710979)
(0.171539 0.0217062 0.778565)
(0.142161 0.00902306 0.77859)
(0.120249 0.00731146 0.755544)
(0.0881506 0.00809064 0.883526)
(-3.08123 -0.28311 -1.87252)
(-0.147268 -0.0032689 0.733813)
(-0.122652 0.00638145 0.364166)
(0.353193 -0.00151111 -1.51426)
(0.0703093 0.0061378 0.91945)
(-0.0133726 0.0105414 0.117477)
(-4.4796 -0.0604055 -8.90988)
(-7.0868 -0.501751 -4.8509)
(-0.282099 0.0541561 0.191755)
(-6.98168 -0.345342 -6.12137)
(0.575949 -0.178854 10.4313)
(-0.11261 -0.00524204 0.746938)
(-0.0927498 -0.00724217 0.732359)
(-0.0886625 -0.00741625 0.721724)
(-0.0371695 0.00582425 0.738563)
(-0.0761603 -0.0205225 -0.197803)
(-0.115043 -0.0083232 0.755041)
(-0.482527 0.0254534 -9.22656)
(-0.0343956 -0.00132611 0.6988)
(0.0906463 0.00756082 0.673115)
(3.50751 -0.166763 3.20956)
(-0.220232 -0.0046429 0.742968)
(-3.86726 0.0314003 -7.21863)
(0.0548695 0.00115866 0.342488)
(0.0952725 0.00591696 0.615545)
(-0.0444718 0.00367179 0.387514)
(0.865351 0.0651034 -0.0227025)
(0.199111 0.0132488 0.286967)
(-0.0605976 0.0305853 0.208145)
(-0.276628 -0.0100201 -4.19642)
(-0.0230398 0.00930311 0.126591)
(5.94316 0.40651 1.83953)
(-0.244999 -0.0113027 -3.88286)
(-0.0141833 0.0140606 0.0975903)
(0.598678 0.00423872 0.502414)
(-1.30121 -0.313713 1.27245)
(-0.246423 -0.0636811 22.3761)
(-0.355965 0.0127673 -5.11339)
(0.130227 0.00904439 0.32997)
(0.153869 0.00723448 0.330315)
(0.807073 0.110655 0.431711)
(-1.21438 -0.0531499 5.28997)
(0.117708 0.000909876 0.719933)
(0.101616 -0.00102063 0.343405)
(-4.30241 -0.0907657 2.21886)
(2.85096 0.521219 -0.701805)
(7.18783 0.383786 -4.56018)
(0.153607 0.00282878 0.459006)
(-0.127492 0.0206957 0.247569)
(-3.97688 -0.343253 3.33455)
(3.57217 0.633684 -1.05634)
(-0.00111026 0.00146673 0.11854)
(0.176722 0.00177155 0.322469)
(0.00163213 -0.00168221 0.10468)
(-0.013543 -0.0117244 0.131057)
(0.010786 -0.0161128 0.234779)
(-0.0297158 0.0013662 0.679665)
(-0.0243146 0.0305516 0.208163)
(-0.177529 -0.041852 0.0396807)
(0.0690286 0.00633241 0.322744)
(-0.71675 -0.023473 -5.70077)
(0.0536611 0.00224581 0.32405)
(-0.579818 -0.0311705 -7.93168)
(0.188749 0.0148323 0.484356)
(0.206384 0.0123212 0.462428)
(0.0290585 -0.0027161 0.279545)
(-0.00728832 0.00151418 0.510436)
(-1.87488 -0.0371527 -42.5453)
(-0.047415 -0.00364418 0.73232)
(-0.435286 0.141007 -6.90216)
(-0.0373573 -0.000323543 0.721444)
(-0.0245067 0.000925855 0.680418)
(-0.0462475 -0.00100288 0.711036)
(-0.0778305 -0.00142959 0.66232)
(-0.0709079 -0.00130963 0.680818)
(-0.0520607 -0.00332258 0.586528)
(0.408619 0.195486 -8.51769)
(-0.0486705 -0.0027314 0.715439)
(-0.031374 -0.00243066 0.709067)
(-0.0379499 -0.00161267 0.711073)
(-0.576221 -0.0375878 -8.3993)
(-0.152974 -0.000762195 -0.040338)
(-0.993191 -0.066876 5.7747)
(-0.45437 -0.0256311 -5.45191)
(-0.213681 -0.0307284 -4.12534)
(-0.206877 -0.00238792 -3.75281)
(0.0585586 0.00196709 0.635811)
(-0.0972298 0.00372848 -0.471037)
(-0.326762 -0.0201533 -5.13189)
(-0.174755 0.000123808 -3.42422)
(0.103683 0.00516561 0.710356)
(1.12705 -0.817467 -1.0383)
(0.0611655 0.00389882 0.648758)
(0.429015 -0.543413 -7.44754)
(-0.00934818 -0.0247331 0.244898)
(0.00646237 -0.0132111 0.450007)
(0.585505 0.0122518 0.573205)
(0.00454467 -0.0317673 0.419535)
(-0.0215322 0.0267932 0.181141)
(1.04726 0.0488264 -0.617279)
(0.0699714 0.00141094 0.629568)
(0.0914342 0.00623282 0.699357)
(-0.185563 -0.0170049 0.886497)
(-0.199882 0.00407567 -4.49094)
(-0.162003 -0.0318995 -3.72554)
(-0.168356 -0.000299074 -3.35581)
(-0.136539 -0.0117124 0.695773)
(-0.0755074 -0.00121484 0.621307)
(0.0222349 -0.0105685 0.469043)
(-0.273308 -0.00474551 0.722491)
(-0.0928938 -0.041754 24.1551)
(0.143029 -0.166995 16.6369)
(-0.293797 -0.0226657 -0.112604)
(-0.16104 0.0718429 0.21617)
(0.0731384 0.00987501 0.874485)
(1.89822 -0.0762235 -9.07239)
(-0.759762 -0.145076 -4.29282)
(0.0687035 -0.0107564 -3.57625)
(-3.96842 -0.207704 -4.7155)
(1.23111 0.138408 -9.3279)
(0.152053 0.00819007 0.733685)
(-1.84486 0.191907 -0.6199)
(0.163618 0.010464 0.739306)
(0.0200276 0.0154261 0.132716)
(0.172335 0.00335044 0.748136)
(0.0997463 0.00606859 0.627153)
(-0.00891772 0.00954774 0.765478)
(-0.0388587 -0.00562426 0.676128)
(-0.0311373 -0.000610181 0.890378)
(0.0234792 -0.0211789 0.192471)
(-0.228949 -0.155422 -0.982399)
(0.0770664 0.030262 0.559519)
(-0.0570808 -0.00361357 0.883459)
(-1.34138 -0.0833865 -3.69784)
(-0.298893 -0.0152242 0.638167)
(-0.126684 -0.0124183 0.682346)
(-0.0821816 -0.00392825 0.428738)
(-0.0858306 -0.000532411 0.89899)
(-0.0955569 0.0969998 -6.16704)
(0.429678 0.0267884 0.956993)
(-0.497791 0.18915 -36.5201)
(0.445062 -0.00312968 -0.575437)
(-0.100717 -0.00427765 0.675082)
(-0.0737438 -0.00233012 0.689707)
(-0.0466494 0.000253835 0.675504)
(-0.0558807 -0.000820824 0.675249)
(-0.199848 -0.0152853 -1.018)
(-0.0200727 0.00739312 0.765569)
(0.0217318 0.0285175 0.204967)
(-4.93067 -0.318975 -5.50034)
(-5.26062 -0.202521 -5.3451)
(-0.0504637 0.0669644 0.495637)
(0.11733 0.00818299 -3.1401)
(0.300707 0.0229276 0.494594)
(0.110691 0.0117198 0.466983)
(0.0231933 0.0215044 0.187802)
(0.172792 0.00385121 0.468884)
(-2.48527 -0.0297779 -1.96058)
(-2.29672 -0.0643402 -2.41608)
(-0.578541 -0.0356768 -8.65664)
(-1.59173 -0.0809509 -2.73898)
(-1.85974 -0.0321944 -2.7306)
(-0.0696103 -0.00654315 -0.296192)
(-0.597448 -0.0284312 0.0570472)
(0.143755 0.00893227 -0.307727)
(0.207962 0.00334816 -0.299581)
(0.0546806 0.0093354 -0.181165)
(-0.285232 -0.761954 -6.40483)
(1.56097 0.209777 -6.6446)
(0.0653136 0.000347428 -0.22969)
(-6.73406 -0.217076 3.2067)
(-0.365094 0.0140933 -3.68824)
(-6.20168 -0.272538 0.392712)
(-0.58774 -0.0273354 -10.0552)
(-8.49801 -0.381721 -2.65317)
(0.00696764 -0.025999 0.245573)
(-7.20282 -0.230787 0.783467)
(-0.446007 0.160595 -8.44883)
(-0.141342 -0.0106081 -3.6083)
(-0.619812 -0.0843654 -9.56404)
(0.0125703 0.0157928 0.10703)
(0.00418625 -0.00786175 0.206182)
(0.00608813 -0.0126051 0.254541)
(-7.67125 -0.129538 -3.62118)
(0.00249139 -0.0113162 0.198631)
(-0.0458629 -0.00464109 0.956424)
(0.00349736 0.00530944 0.993433)
(-0.0288657 0.00166133 0.604836)
(-0.0515175 -0.0516023 23.8826)
(0.0382899 0.00865394 0.999)
(-0.0200919 0.0136239 0.167571)
(-0.0130379 0.00537324 0.980074)
(0.011525 0.00654671 0.227012)
(0.165472 0.00225191 0.746382)
(0.145755 0.00793393 0.73048)
(-0.160282 -0.00275358 0.358123)
(0.198547 0.01724 0.908148)
(0.0137233 -0.00191286 0.337529)
(-0.0201137 0.0163213 0.166708)
(0.0858685 -0.0782288 0.918227)
(0.0507458 0.00903914 0.765689)
(0.014084 -0.0147516 0.120559)
(-7.21611 -0.280502 -2.36658)
(-1.14255 -0.0365092 -0.569388)
(0.0154075 0.0110795 0.102805)
(-0.0237145 -0.0141731 0.530314)
(0.0695203 0.00141125 0.384687)
(0.0416294 0.000745116 0.697993)
(0.341086 -0.00659777 -0.706499)
(0.111495 0.000935499 0.690945)
(0.0120486 0.00588506 0.237068)
(-2.13603 -0.0875274 5.53074)
(-2.07569 -0.169073 4.74586)
(0.100436 0.00349431 0.686091)
(-0.730301 -0.0011692 5.31929)
(-0.111462 0.0955157 -8.09486)
(-0.596493 -0.0408575 -9.12866)
(-0.690419 -0.0858576 6.2729)
(-0.307805 -0.0808868 5.65117)
(-0.670102 0.0382093 -12.8476)
(-0.0969938 -0.00820326 -0.0937024)
(0.366227 0.0467736 -1.81189)
(-1.49487 -0.0135056 -0.84569)
(-0.0400675 0.0117924 0.70551)
(-0.0619004 -0.00871891 0.769931)
(-0.0369174 0.00694811 0.71758)
(0.00799738 -0.00846606 0.311385)
(0.0238299 -0.00338249 0.489756)
(0.0256819 -0.0109113 0.572198)
(0.0464201 0.00505586 0.616748)
(0.0127803 -0.00109912 0.605574)
(-0.68711 -0.221398 16.6271)
(-0.28943 -0.0226942 0.57816)
(-0.447846 -0.0506943 -0.182226)
(-0.694275 -0.239127 13.9796)
(-0.051005 0.0011442 -0.532824)
(11.2543 -0.279334 -0.710687)
(-0.0409849 -0.0431214 -0.842777)
(0.00381123 -0.0103586 0.374215)
(1.33996 0.109225 -5.3096)
(-1.66254 0.109617 -43.217)
(0.304042 0.0134233 0.938066)
(0.594943 0.0511585 -2.50673)
(0.0732481 0.00790182 0.778375)
(0.485082 0.0108846 -0.145782)
(0.0373263 -0.00111804 0.666388)
(0.0250592 0.00121607 0.625415)
(0.0266173 -0.00591076 0.652843)
(0.00578222 -0.0125148 0.191259)
(0.350777 0.0039245 0.351442)
(-0.298213 0.0198246 -4.71541)
(0.323211 0.00309255 0.333562)
(0.339782 0.000251345 0.380427)
(0.369139 0.00502042 0.404886)
(0.0731951 0.00211315 0.364139)
(0.355111 0.0297376 0.299588)
(-0.100938 -0.00514528 -0.061964)
(-0.0885093 -0.00356335 -0.0896174)
(-0.420944 0.0338741 -9.07363)
(4.25086 -0.464576 -6.78423)
(-0.435226 -0.242251 -2.6364)
(0.395617 0.0194946 0.317225)
(0.4311 0.0230238 0.340305)
(-0.100265 -0.00580068 0.839611)
(7.45331 0.457597 -2.05731)
(-0.476615 -0.0226861 -8.61533)
(-0.584739 -0.0857408 -8.96766)
(-0.0777668 0.096885 -7.74859)
(-0.174013 -0.00569904 -1.7788)
(1.21531 0.0225698 -1.48546)
(-0.169319 -0.0421059 0.223825)
(-9.00119 -0.234117 -0.433346)
(0.0152907 0.00671852 0.817059)
(0.316957 0.0258155 -2.65134)
(-0.145553 0.000990649 -3.30288)
(0.0313146 0.000953596 0.698018)
(0.19735 0.000111355 -0.470716)
(-1.25682 0.0293371 -0.121207)
(-7.93973 -0.426987 0.25364)
(-7.03855 -0.167742 -0.79632)
(-2.88226 -0.209581 -2.27875)
(-0.100852 -0.00777407 0.847284)
(-0.0600156 -0.00893378 0.661571)
(-2.28202 -0.0320182 -0.386121)
(-0.117015 -0.00180268 0.819467)
(-0.118136 -0.00369439 0.810906)
(-0.337536 0.0533816 -0.182135)
(-2.94197 -0.196028 -2.30911)
(-3.2105 -0.0416774 -1.73359)
(-2.66711 -0.194439 -2.58108)
(-0.027887 -0.000938856 0.681689)
(-2.7035 -0.0629077 -2.05369)
(0.784501 0.0419733 0.876937)
(0.0172593 0.0230805 0.254433)
(-0.104861 -0.00785422 0.816024)
(-0.101162 0.212456 -0.0464566)
(0.0110343 0.0105816 0.241839)
(0.312817 -0.124582 17.7764)
(0.0175995 0.0218613 0.168492)
(-0.0999108 -0.00676979 0.82281)
(0.0243019 0.0277786 0.193837)
(0.15031 0.00912348 0.669666)
(0.0542135 0.00480238 0.609954)
(-0.49218 -0.0149511 -2.73745)
(-0.124165 -0.0378538 22.4376)
(0.0173113 0.0298504 0.277055)
(-0.128349 -0.000631382 0.636917)
(-0.505163 -0.0106218 -4.39118)
(-0.0196661 0.0210507 0.140817)
(-5.60791 -0.179264 -1.42604)
(-0.0349111 -0.0015538 0.642735)
(0.0135173 0.000653322 0.647798)
(0.0159108 0.000924533 0.513066)
(0.0148682 0.0132597 0.134258)
(0.0224758 0.0235937 0.1839)
(0.0129907 -0.00667062 0.0859719)
(-3.829 -0.0592643 -5.83457)
(-8.13598 -0.364801 -1.16964)
(-8.87896 -0.558614 -2.79317)
(0.0557789 0.00157256 0.688457)
(-3.38735 -0.0177552 -1.95421)
(-8.02719 -0.466661 1.40361)
(-7.64726 -0.389478 3.30494)
(-5.18836 -0.346511 2.78563)
(-4.87126 -0.273738 1.75411)
(0.67532 0.0102447 -0.987168)
(0.562645 0.0293696 -0.836113)
(0.357726 0.0461659 -0.781631)
(0.151745 0.0234686 0.618321)
(-2.48453 0.0152084 -4.4655)
(0.349264 0.0274428 -0.654814)
(0.000185679 -0.000784361 0.0957198)
(-0.107443 0.00228119 -1.89779)
(-0.00173089 0.00027778 0.869356)
(-0.12421 0.0163043 -3.33675)
(-6.29234 -0.338565 -3.41926)
(-2.00567 -0.0676624 0.702673)
(0.239168 0.0351071 -1.13674)
(-0.270523 0.00547834 0.296836)
(-0.0119224 -0.0204012 0.604525)
(-0.00422843 0.0161427 0.33735)
(0.180727 0.011606 0.658636)
(0.071679 0.00263739 0.661779)
(0.0207173 0.0261275 0.154058)
(-0.0111521 0.00371916 0.503304)
(-0.0271046 0.0111973 0.162906)
(0.00958297 -0.0224342 0.602175)
(0.495982 0.0468594 -1.68744)
(0.116122 -0.0068831 0.885976)
(0.0575294 0.00370741 0.903032)
(0.412358 0.0138328 0.531232)
(-0.0115955 -0.0100331 0.113379)
(-5.00923 -0.0774674 0.838049)
(-0.066261 -0.00384383 0.70487)
(-3.50285 -0.130724 -0.544023)
(-8.06598 -0.234345 -4.57324)
(-1.72196 -0.153981 -35.605)
(-1.25268 -0.0373509 -2.23224)
(0.835036 0.0245542 -0.504506)
(0.853445 0.0213436 0.80756)
(0.995389 0.0381391 0.33383)
(1.11709 0.092469 0.241367)
(0.987329 0.0764494 0.0167895)
(-0.22893 -0.0449681 -3.33005)
(0.548753 -0.00053171 -0.441948)
(0.869067 0.0347234 -1.41597)
(0.410402 0.0228111 -0.483358)
(-0.00712815 -0.0126293 -1.43292)
(-0.286468 0.0272019 -0.0133508)
(0.299813 0.0167322 0.0430412)
(-0.154934 0.0218695 -0.216522)
(0.759206 0.00446781 -1.34249)
(-1.39695 -0.0574317 -6.62527)
(-0.232778 -0.128795 0.348374)
(-8.97781 -0.350859 0.0607234)
(1.45384 -0.191471 -8.96424)
(-0.00281989 0.0120249 0.515766)
(0.00414696 0.00328666 0.206641)
(-2.55851 -0.0277186 -9.90478)
(0.726769 -0.223433 2.09329)
(0.0143104 0.0145698 0.111169)
(0.103453 0.0213984 0.599847)
(0.0204797 0.0191797 0.510237)
(0.0337646 0.00188324 0.561598)
(-0.0143965 -0.00358739 0.70667)
(-3.23722 -0.176245 -0.466731)
(-0.152832 0.000765978 -1.68433)
(-0.135034 -0.0117814 0.834291)
(0.177343 0.007258 0.67114)
(-1.17005 0.0441771 0.0926047)
(-0.0596023 -0.00144257 0.917235)
(-0.06088 -0.000373463 0.719436)
(-0.162817 0.101698 -9.87994)
(-0.391266 -0.0943991 14.5639)
(0.0372475 0.000382337 0.616258)
(0.181388 -0.176931 14.7408)
(-6.78249 -0.194408 4.12612)
(-0.126721 -0.00976967 0.261155)
(-0.083511 -0.00151188 0.621512)
(-0.175504 -0.011757 0.581569)
(-0.11238 -0.00723931 0.564376)
(-0.106364 -3.24549e-05 0.531883)
(-0.13815 0.00304689 0.543528)
(-0.264607 -0.021542 -0.316144)
(-0.190369 -0.00676519 -0.58957)
(-0.167033 -0.00361014 -0.473906)
(0.900006 0.0509431 -0.370052)
(-3.40044 0.543219 -6.61253)
(1.28329 0.0940885 0.10785)
(1.24261 0.0960464 0.00953295)
(-0.0590061 -0.0103204 -0.0382267)
(-0.0180887 0.00266004 0.456077)
(-0.0629698 -0.00174627 0.34873)
(-0.0491921 -0.000369182 0.391309)
(1.31567 0.00971564 -0.189681)
(-0.92599 -0.0518197 4.94715)
(-0.0465401 0.0228775 0.772822)
(1.25265 0.0287989 -0.334005)
(-0.0624982 0.000157608 0.72699)
(-5.60042 -0.0480084 -3.67524)
(0.0587465 0.00416925 0.69648)
(0.0119914 0.00135911 0.571424)
(-3.06953 -0.0452213 -2.36869)
(0.0060471 -0.0268777 0.450997)
(-0.000102705 -0.0136504 0.229271)
(-5.18082 -0.258876 -0.489392)
(0.942162 0.0745172 -8.7944)
(-0.00801257 0.0073716 0.275933)
(0.00240917 -0.00931954 0.362142)
(0.0193183 0.0295009 0.20109)
(-0.0146192 -0.0339239 0.426408)
(0.633254 0.0406871 0.379952)
(0.472795 0.034563 -0.0278211)
(0.0097524 -0.00584783 0.176317)
(0.893363 0.0701076 0.260522)
(0.55738 0.0385143 0.312559)
(-0.168957 -0.0347467 -0.672847)
(-0.0821835 -0.00633729 0.583515)
(-0.65658 -0.0731782 5.12119)
(0.785894 0.00896915 -0.539481)
(-0.196747 -0.0120621 -0.974047)
(0.0360147 0.00193247 0.977296)
(-0.194251 -0.00232503 0.783812)
(-0.0406609 -0.00238871 0.651373)
(0.229266 0.000383458 0.393373)
(-0.0122465 0.00235654 0.934629)
(-0.199809 0.0286323 -3.41468)
(-6.74579 -0.00141031 3.27294)
(-3.17598 -0.297975 3.22184)
(-1.90506 -0.0308259 4.41401)
(0.243156 0.000808332 0.410559)
(0.934161 -0.00185653 -0.39689)
(0.179127 0.0152195 0.410714)
(5.45133 0.495817 -0.495439)
(5.3984 0.311195 -0.784113)
(0.0915274 -0.5454 0.17638)
(9.95176 0.734776 0.90211)
(5.09475 0.666258 -0.287211)
(-0.593493 -0.124686 -1.33291)
(0.196256 0.0143073 0.420295)
(-0.119808 0.0652569 1.06221)
(0.0127311 0.0101866 0.0836577)
(0.210334 0.0162844 0.438195)
(-0.0945201 -0.0699013 0.242127)
(-1.83446 -0.0685178 -2.10495)
(-0.0837638 -0.0231758 0.257487)
(-0.00491104 0.00420059 0.191113)
(-0.805197 -0.027124 -0.0893441)
(0.0902463 0.00253815 0.680738)
(0.0654296 0.00436629 0.702467)
(-0.612848 -0.0135982 0.0926812)
(0.00126304 0.015404 0.266502)
(-0.07034 -0.000845112 0.964796)
(0.0400814 -0.671632 -8.37105)
(-0.397134 0.693884 -9.57363)
(0.0137388 -0.00899272 0.0975795)
(0.0606771 0.00807241 0.447303)
(0.00832134 -0.00232935 0.294304)
(0.0152317 0.000507526 0.224928)
(0.055027 0.00650207 0.457115)
(0.875314 0.369498 -6.39722)
(0.998821 0.789547 -7.67061)
(1.48989 0.548682 -5.25861)
(2.56451 0.440723 -6.20872)
(0.40925 -0.797786 -0.113479)
(2.89427 0.447902 -5.27782)
(-0.0140429 0.0178331 0.107814)
(-0.0042477 0.00482067 0.144431)
(0.0127024 0.0123789 0.326081)
(0.0195853 -0.0163993 0.149561)
(0.0164075 -0.00665706 0.202167)
(0.0219111 0.0257155 0.179725)
(-0.0320321 0.00215381 0.696612)
(-1.9826 -0.0397622 -44.5071)
(-3.95143 -0.310315 -1.13923)
(-0.0874847 -0.0384748 23.8134)
(-1.46954 -0.0484089 4.79906)
(-0.119402 -0.388503 -4.23172)
(6.86076 0.317249 -2.84329)
(0.0161308 0.00311767 0.520321)
(0.0136665 -0.0133484 0.44113)
(0.0184033 -0.00336659 0.138012)
(0.0139534 0.0158847 0.11062)
(-0.0299922 -0.00364991 0.701603)
(0.0167101 0.0184062 0.284754)
(-0.0150702 -0.0123053 0.123829)
(0.0141963 0.00254108 0.196949)
(0.820884 0.0536091 0.202962)
(0.0319729 -0.0263106 17.0668)
(0.0555472 -0.00342296 0.607694)
(0.00142555 -0.00181177 0.124249)
(-0.178813 0.0627102 0.74484)
(-0.66811 -0.0367308 -10.0639)
(0.0310097 0.0269524 0.68436)
(0.532751 -0.174634 10.8784)
(0.287144 -0.216672 -3.36866)
(-0.196295 -0.054186 -0.754109)
(-0.669728 -0.0390877 -10.0459)
(-0.589883 0.19385 -41.4158)
(0.0386775 0.0075226 0.379861)
(-0.0884464 1.09703 -9.61076)
(-0.317466 -0.0209707 -4.99672)
(-0.364232 -0.00209171 -5.02257)
(6.47653 -0.490687 -0.273141)
(1.00049 0.0130825 -3.1021)
(0.878861 0.241149 -4.0592)
(0.0266121 0.00765072 0.300855)
(-0.709964 -0.0829174 2.9939)
(0.0342696 0.0131361 0.372842)
(-0.817349 -0.0468965 3.54348)
(-1.15102 -0.0458647 4.36078)
(-0.00267123 -0.0101293 0.316507)
(-1.56112 -0.0415518 3.93066)
(-0.167448 -0.196142 5.1408)
(-0.0121802 -0.00853283 0.400621)
(0.00195621 -0.0177138 0.333807)
(-0.00725511 -0.0345436 0.423428)
(3.43546 -0.273204 -7.43062)