/*--------------------------------*- C++ -*----------------------------------*\
| =========                 |                                                 |
| \\      /  F ield         | OpenFOAM: The Open Source CFD Toolbox           |
|  \\    /   O peration     | Version:  v2012                                 |
|   \\  /    A nd           | Website:  www.openfoam.com                      |
|    \\/     M anipulation  |                                                 |
\*---------------------------------------------------------------------------*/
FoamFile
{
    version     2.0;
    format      ascii;
    class       volVectorField;
    location    "0.9";
    object      U;
}
// * * * * * * * * * * * * * * * * * * * * * * * * * * * * * * * * * * * * * //

dimensions      [0 1 -1 0 0 0 0];


internalField   nonuniform List<vector> 
3320
(
(-0.017969 -0.000451501 0.00015686)
(-0.013776 -0.000291889 0.000120255)
(-0.0105365 -0.000185214 9.19808e-05)
(-0.00824968 -0.000129511 7.20172e-05)
(-0.00649695 -8.98589e-05 5.67172e-05)
(-0.0051831 -6.60514e-05 4.52475e-05)
(-0.00416288 -4.86641e-05 3.63413e-05)
(-0.00337021 -3.69225e-05 2.94215e-05)
(-0.00274388 -2.82356e-05 2.39537e-05)
(-0.00224582 -2.19606e-05 1.96058e-05)
(-0.00184587 -1.72471e-05 1.61143e-05)
(-0.00152251 -1.37057e-05 1.32915e-05)
(-0.00125925 -1.09915e-05 1.09932e-05)
(-0.00104368 -8.89203e-06 9.11138e-06)
(-0.000866243 -7.2464e-06 7.56233e-06)
(-0.000719533 -5.94271e-06 6.28158e-06)
(-0.00059777 -4.89874e-06 5.2186e-06)
(-0.00049639 -4.05431e-06 4.33357e-06)
(-0.000411772 -3.36541e-06 3.59487e-06)
(-0.000341011 -2.79884e-06 2.97713e-06)
(-0.000281773 -2.32927e-06 2.45997e-06)
(-0.000232154 -1.93871e-06 2.02681e-06)
(-0.000190606 -1.61191e-06 1.66408e-06)
(-0.000155838 -1.33831e-06 1.36056e-06)
(-0.000126782 -1.10847e-06 1.10689e-06)
(-0.000102544 -9.15698e-07 8.95296e-07)
(-8.23697e-05 -7.54186e-07 7.19163e-07)
(-6.5621e-05 -6.19496e-07 5.72939e-07)
(-5.17499e-05 -5.07557e-07 4.51846e-07)
(-4.02907e-05 -4.15073e-07 3.51798e-07)
(-3.08472e-05 -3.38884e-07 2.69355e-07)
(-2.30799e-05 -2.76903e-07 2.01541e-07)
(-1.67025e-05 -2.26455e-07 1.4586e-07)
(-1.14794e-05 -1.85128e-07 1.00261e-07)
(-7.2238e-06 -1.50598e-07 6.31043e-08)
(-3.79562e-06 -1.2069e-07 3.31708e-08)
(-1.10464e-06 -9.28288e-08 9.67226e-09)
(8.92233e-07 -6.51451e-08 -7.76949e-09)
(2.184e-06 -3.46048e-08 -1.90576e-08)
(2.73518e-06 -1.97676e-09 -2.38821e-08)
(2.48968e-06 3.43356e-08 -2.17486e-08)
(1.52892e-06 5.85822e-08 -1.33759e-08)
(3.27447e-07 6.18476e-08 -3.12064e-09)
(-0.0461163 -0.00802592 0.000402615)
(-0.0361528 -0.00550244 0.000315624)
(-0.0283816 -0.00386365 0.000247783)
(-0.0225793 -0.00275983 0.000197125)
(-0.0180586 -0.00200724 0.000157658)
(-0.0145689 -0.00148315 0.000127191)
(-0.0118194 -0.00111126 0.000103187)
(-0.00964697 -0.000843211 8.42214e-05)
(-0.00791084 -0.000646835 6.90644e-05)
(-0.00651519 -0.000501151 5.68799e-05)
(-0.00538466 -0.000391701 4.70101e-05)
(-0.00446351 -0.000308614 3.89681e-05)
(-0.00370857 -0.000244902 3.23773e-05)
(-0.00308675 -0.000195609 2.69486e-05)
(-0.00257223 -0.000157145 2.24567e-05)
(-0.00214481 -0.00012689 1.87253e-05)
(-0.00178855 -0.000102913 1.56149e-05)
(-0.00149074 -8.37758e-05 1.3015e-05)
(-0.00124124 -6.83999e-05 1.08368e-05)
(-0.00103185 -5.59699e-05 9.00875e-06)
(-0.000855945 -4.5865e-05 7.47304e-06)
(-0.000708099 -3.7613e-05 6.18229e-06)
(-0.000583868 -3.08472e-05 5.09769e-06)
(-0.000479541 -2.52845e-05 4.18688e-06)
(-0.000392038 -2.07014e-05 3.42293e-06)
(-0.000318769 -1.69229e-05 2.78325e-06)
(-0.000257544 -1.38089e-05 2.24871e-06)
(-0.000206509 -1.12471e-05 1.80314e-06)
(-0.000164064 -9.14456e-06 1.43257e-06)
(-0.00012885 -7.42523e-06 1.12512e-06)
(-9.9704e-05 -6.0241e-06 8.70649e-07)
(-7.56299e-05 -4.88618e-06 6.60456e-07)
(-5.57872e-05 -3.96231e-06 4.87206e-07)
(-3.94772e-05 -3.20852e-06 3.44803e-07)
(-2.61423e-05 -2.58425e-06 2.2837e-07)
(-1.53592e-05 -2.05166e-06 1.34215e-07)
(-6.84317e-06 -1.57431e-06 5.98511e-08)
(-4.4178e-07 -1.12039e-06 3.9441e-09)
(3.85538e-06 -6.61781e-07 -3.35981e-08)
(5.99257e-06 -1.93822e-07 -5.22879e-08)
(5.8784e-06 2.62507e-07 -5.13241e-08)
(3.76819e-06 5.62591e-07 -3.29611e-08)
(7.96987e-07 4.69722e-07 -7.69109e-09)
(-0.0635236 -0.0180362 0.00055457)
(-0.0512808 -0.0130181 0.000447687)
(-0.041342 -0.00953273 0.000360924)
(-0.0335584 -0.00704245 0.000292971)
(-0.027309 -0.00526338 0.000238414)
(-0.0223379 -0.00397209 0.000195016)
(-0.018336 -0.00302722 0.000160078)
(-0.015112 -0.00232785 0.000131932)
(-0.0124959 -0.00180523 0.000109093)
(-0.0103649 -0.00141092 9.04887e-05)
(-0.00861972 -0.00111076 7.5253e-05)
(-0.00718428 -0.000880345 6.27213e-05)
(-0.0059983 -0.000702044 5.23675e-05)
(-0.00501457 -0.000563024 4.37793e-05)
(-0.00419558 -0.000453837 3.66292e-05)
(-0.00351153 -0.000367484 3.06573e-05)
(-0.00293859 -0.000298734 2.56554e-05)
(-0.00245758 -0.00024365 2.1456e-05)
(-0.00205299 -0.000199253 1.79239e-05)
(-0.00171221 -0.000163269 1.49488e-05)
(-0.00142495 -0.000133958 1.24409e-05)
(-0.00118273 -0.00010998 1.03263e-05)
(-0.000978567 -9.02959e-05 8.54378e-06)
(-0.000806588 -7.40922e-05 7.04233e-06)
(-0.000661903 -6.07297e-05 5.77915e-06)
(-0.000540383 -4.97031e-05 4.71821e-06)
(-0.000438521 -4.06075e-05 3.8289e-06)
(-0.000353344 -3.31174e-05 3.08524e-06)
(-0.000282274 -2.69631e-05 2.46474e-06)
(-0.000223114 -2.1923e-05 1.94822e-06)
(-0.000173983 -1.78094e-05 1.51927e-06)
(-0.000133266 -1.44615e-05 1.16376e-06)
(-9.95948e-05 -1.17377e-05 8.69775e-07)
(-7.18283e-05 -9.51099e-06 6.27343e-07)
(-4.90504e-05 -7.6652e-06 4.28462e-07)
(-3.05596e-05 -6.0926e-06 2.67006e-07)
(-1.58712e-05 -4.69161e-06 1.38745e-07)
(-4.70884e-06 -3.37312e-06 4.12605e-08)
(2.98906e-06 -2.06436e-06 -2.59855e-08)
(7.18315e-06 -7.49901e-07 -6.265e-08)
(7.79297e-06 5.03127e-07 -6.80278e-08)
(5.24181e-06 1.3486e-06 -4.58484e-08)
(1.11629e-06 1.18347e-06 -1.08284e-08)
(-0.0733186 -0.0278167 0.000640059)
(-0.0606207 -0.0208509 0.000529209)
(-0.0499778 -0.0157553 0.000436304)
(-0.0413248 -0.0119573 0.000360766)
(-0.0341883 -0.00914147 0.000298466)
(-0.0283585 -0.00703211 0.000247572)
(-0.0235645 -0.00544698 0.000205721)
(-0.0196267 -0.0042465 0.000171344)
(-0.0163789 -0.00333197 0.000142991)
(-0.013695 -0.00263041 0.00011956)
(-0.0114696 -0.00208878 0.000100132)
(-0.00961923 -0.00166786 8.39785e-05)
(-0.00807596 -0.00133868 7.05058e-05)
(-0.00678525 -0.00107965 5.92377e-05)
(-0.00570286 -0.000874556 4.97881e-05)
(-0.00479299 -0.000711209 4.18448e-05)
(-0.00402654 -0.000580354 3.51535e-05)
(-0.00337977 -0.000474941 2.95071e-05)
(-0.00283325 -0.000389571 2.47359e-05)
(-0.002371 -0.000320091 2.07003e-05)
(-0.00197983 -0.000263285 1.72853e-05)
(-0.0016488 -0.000216662 1.43953e-05)
(-0.00136882 -0.000178277 1.1951e-05)
(-0.00113221 -0.000146595 9.88528e-06)
(-0.000932513 -0.000120405 8.14183e-06)
(-0.000764261 -9.87454e-05 6.67291e-06)
(-0.000622784 -8.08402e-05 5.43773e-06)
(-0.000504105 -6.60641e-05 4.40158e-06)
(-0.000404762 -5.38973e-05 3.53424e-06)
(-0.000321798 -4.39112e-05 2.8099e-06)
(-0.000252672 -3.57419e-05 2.20637e-06)
(-0.000195192 -2.90767e-05 1.70452e-06)
(-0.000147503 -2.36405e-05 1.28813e-06)
(-0.000108045 -1.91859e-05 9.43625e-07)
(-7.5562e-05 -1.54877e-05 6.60007e-07)
(-4.90829e-05 -1.23369e-05 4.28802e-07)
(-2.7923e-05 -9.53848e-06 2.44033e-07)
(-1.16719e-05 -6.92146e-06 1.02112e-07)
(-1.96108e-07 -4.35116e-06 1.87143e-09)
(6.50715e-06 -1.79602e-06 -5.67144e-08)
(8.39236e-06 6.11787e-07 -7.32445e-08)
(6.03365e-06 2.27192e-06 -5.27711e-08)
(1.31866e-06 2.09711e-06 -1.28095e-08)
(-0.076006 -0.0360929 0.000663501)
(-0.0645203 -0.0279096 0.00056324)
(-0.0544794 -0.021663 0.000475592)
(-0.0459657 -0.0168411 0.000401273)
(-0.038711 -0.0131459 0.000337943)
(-0.0326033 -0.0102981 0.000284625)
(-0.0274551 -0.0081032 0.000239683)
(-0.0231325 -0.00640408 0.000201948)
(-0.0195005 -0.00508466 0.000170241)
(-0.01645 -0.00405551 0.00014361)
(-0.0138848 -0.00324935 0.000121217)
(-0.0117256 -0.00261488 0.000102367)
(-0.00990536 -0.00211317 8.64763e-05)
(-0.00836855 -0.0017145 7.30598e-05)
(-0.00706902 -0.00139614 6.17148e-05)
(-0.00596855 -0.00114066 5.21076e-05)
(-0.00503547 -0.000934627 4.39617e-05)
(-0.00424347 -0.000767675 3.70475e-05)
(-0.0035707 -0.000631762 3.11741e-05)
(-0.00299894 -0.000520634 2.61825e-05)
(-0.002513 -0.000429408 2.19401e-05)
(-0.0021001 -0.000354262 1.83354e-05)
(-0.00174957 -0.000292192 1.52752e-05)
(-0.00145227 -0.000240811 1.26797e-05)
(-0.0012005 -0.000198224 1.04815e-05)
(-0.000987654 -0.000162914 8.62333e-06)
(-0.000808093 -0.000133658 7.05567e-06)
(-0.000656973 -0.000109459 5.73629e-06)
(-0.000530058 -8.94892e-05 4.62824e-06)
(-0.000423717 -7.30611e-05 3.69981e-06)
(-0.000334816 -5.95908e-05 2.92363e-06)
(-0.000260646 -4.8574e-05 2.27605e-06)
(-0.0001989 -3.95668e-05 1.73694e-06)
(-0.000147635 -3.21699e-05 1.28935e-06)
(-0.000105276 -2.60192e-05 9.19508e-07)
(-7.05967e-05 -2.07781e-05 6.16702e-07)
(-4.27146e-05 -1.61336e-05 3.73238e-07)
(-2.10808e-05 -1.18122e-05 1.84316e-07)
(-5.47619e-06 -7.60237e-06 4.80175e-08)
(4.16092e-06 -3.45103e-06 -3.61948e-08)
(7.82929e-06 4.3365e-07 -6.83079e-08)
(6.22955e-06 3.16701e-06 -5.44787e-08)
(1.43049e-06 3.09607e-06 -1.38732e-08)
(-0.0752892 -0.0421297 0.000657226)
(-0.0652617 -0.0335175 0.000569697)
(-0.0562114 -0.0266735 0.0004907)
(-0.0482754 -0.0212104 0.000421426)
(-0.0413229 -0.0168894 0.000360737)
(-0.0353117 -0.0134669 0.000308264)
(-0.0301267 -0.010763 0.000263001)
(-0.0256803 -0.00862385 0.000224186)
(-0.0218741 -0.00693038 0.00019096)
(-0.0186236 -0.0055868 0.000162584)
(-0.0158497 -0.0045184 0.000138369)
(-0.0134841 -0.00366629 0.000117718)
(-0.0114666 -0.00298449 0.000100105)
(-0.00974561 -0.00243706 8.50813e-05)
(-0.00827704 -0.00199584 7.22606e-05)
(-0.00702328 -0.00163885 6.13153e-05)
(-0.00595249 -0.00134885 5.19673e-05)
(-0.00503769 -0.00111233 4.39811e-05)
(-0.00425606 -0.00091868 3.71574e-05)
(-0.00358826 -0.000759531 3.13275e-05)
(-0.00301795 -0.000628291 2.63485e-05)
(-0.00253123 -0.000519747 2.20993e-05)
(-0.00211631 -0.000429766 1.8477e-05)
(-0.00176304 -0.000355038 1.53928e-05)
(-0.00146276 -0.000292919 1.27712e-05)
(-0.00120801 -0.000241276 1.05472e-05)
(-0.000992348 -0.000198378 8.66437e-06)
(-0.000810226 -0.000162812 7.07434e-06)
(-0.000656754 -0.000133393 5.73444e-06)
(-0.000527724 -0.000109136 4.60792e-06)
(-0.000419486 -8.91995e-05 3.66292e-06)
(-0.000328871 -7.2856e-05 2.87177e-06)
(-0.000253174 -5.9463e-05 2.21086e-06)
(-0.000190102 -4.84409e-05 1.66018e-06)
(-0.000137788 -3.92621e-05 1.20342e-06)
(-9.47637e-05 -3.14386e-05 8.2776e-07)
(-5.99602e-05 -2.45187e-05 5.23864e-07)
(-3.26882e-05 -1.81078e-05 2.85711e-07)
(-1.26355e-05 -1.19045e-05 1.1057e-07)
(3.27519e-07 -5.82759e-06 -2.68854e-09)
(6.24317e-06 -1.65703e-07 -5.44346e-08)
(5.9092e-06 3.89741e-06 -5.16681e-08)
(1.47081e-06 4.0938e-06 -1.42074e-08)
(-0.0715216 -0.0463556 0.000624324)
(-0.0633291 -0.0377473 0.000552816)
(-0.055641 -0.0306846 0.000485711)
(-0.0486422 -0.0248888 0.000424621)
(-0.0423175 -0.0201788 0.000369413)
(-0.0366906 -0.0163566 0.000320296)
(-0.0317162 -0.0132678 0.000276873)
(-0.0273547 -0.0107738 0.000238801)
(-0.023548 -0.00876232 0.00020557)
(-0.0202398 -0.00713961 0.000176691)
(-0.0173728 -0.00582967 0.000151664)
(-0.0148939 -0.00477073 0.000130024)
(-0.0127537 -0.00391313 0.000111341)
(-0.0109081 -0.00321701 9.52288e-05)
(-0.00931759 -0.00265049 8.13441e-05)
(-0.00794786 -0.0021881 6.93866e-05)
(-0.00676883 -0.00180955 5.90938e-05)
(-0.00575446 -0.00149866 5.02384e-05)
(-0.00488224 -0.00124251 4.26239e-05)
(-0.00413276 -0.00103084 3.6081e-05)
(-0.00348934 -0.000855421 3.04639e-05)
(-0.00293759 -0.000709694 2.5647e-05)
(-0.00246514 -0.00058841 2.15224e-05)
(-0.00206121 -0.000487327 1.7996e-05)
(-0.00171653 -0.000403029 1.49868e-05)
(-0.00142301 -0.000332743 1.24243e-05)
(-0.00117362 -0.0002742 1.0247e-05)
(-0.00096226 -0.00022554 8.40174e-06)
(-0.000783525 -0.000185191 6.84128e-06)
(-0.000632728 -0.000151842 5.52473e-06)
(-0.000505786 -0.00012437 4.41643e-06)
(-0.000399138 -0.000101795 3.4853e-06)
(-0.000309728 -8.32526e-05 2.70468e-06)
(-0.000234957 -6.79615e-05 2.05186e-06)
(-0.000172693 -5.52086e-05 1.50823e-06)
(-0.000121249 -4.4335e-05 1.05905e-06)
(-7.93775e-05 -3.47319e-05 6.93448e-07)
(-4.62531e-05 -2.58681e-05 4.04196e-07)
(-2.14682e-05 -1.73399e-05 1.87735e-07)
(-4.82303e-06 -9.02958e-06 4.23204e-08)
(3.76073e-06 -1.3059e-06 -3.27304e-08)
(5.14477e-06 4.34569e-06 -4.49705e-08)
(1.45461e-06 5.01981e-06 -1.39611e-08)
(-0.0668856 -0.0486978 0.000583843)
(-0.0602343 -0.0405189 0.00052579)
(-0.0538007 -0.033597 0.000469638)
(-0.0477628 -0.0277611 0.000416936)
(-0.0421601 -0.0228932 0.000368033)
(-0.0370479 -0.0188492 0.000323409)
(-0.0324249 -0.0155091 0.000283056)
(-0.0282855 -0.0127582 0.000246923)
(-0.0246035 -0.0104991 0.000214782)
(-0.021348 -0.0086462 0.000186364)
(-0.0184825 -0.00712791 0.00016135)
(-0.0159698 -0.00588376 0.000139415)
(-0.0137728 -0.0048637 0.000120236)
(-0.0118565 -0.00402645 0.000103507)
(-0.0101881 -0.00333819 8.89434e-05)
(-0.00873809 -0.00277132 7.62849e-05)
(-0.00747955 -0.00230343 6.52981e-05)
(-0.00638866 -0.00191632 5.57748e-05)
(-0.0054443 -0.00159528 4.75306e-05)
(-0.00462785 -0.00132839 4.04031e-05)
(-0.00392302 -0.00110604 3.42499e-05)
(-0.0033155 -0.00092044 2.89462e-05)
(-0.00279283 -0.000765315 2.43832e-05)
(-0.002344 -0.000635529 2.04649e-05)
(-0.0019594 -0.000526921 1.71072e-05)
(-0.0016306 -0.000436079 1.42367e-05)
(-0.00135017 -0.000360197 1.17884e-05)
(-0.00111162 -0.000296952 9.70573e-06)
(-0.000909149 -0.000244377 7.93809e-06)
(-0.000737711 -0.000200816 6.44134e-06)
(-0.000592872 -0.000164844 5.1768e-06)
(-0.000470748 -0.000135214 4.11055e-06)
(-0.000367987 -0.000110821 3.21337e-06)
(-0.000281726 -9.06643e-05 2.46023e-06)
(-0.0002096 -7.3828e-05 1.8305e-06)
(-0.000149726 -5.94664e-05 1.30773e-06)
(-0.000100692 -4.67985e-05 8.79592e-07)
(-6.15435e-05 -3.51426e-05 5.37745e-07)
(-3.178e-05 -2.39813e-05 2.77814e-07)
(-1.11337e-05 -1.31511e-05 9.74608e-08)
(4.96388e-07 -3.09437e-06 -4.19521e-09)
(4.00048e-06 4.4081e-06 -3.49477e-08)
(1.39405e-06 5.81403e-06 -1.32554e-08)
(-0.0613458 -0.0498237 0.000535478)
(-0.0561754 -0.0422045 0.000490353)
(-0.050983 -0.0355944 0.000445035)
(-0.0459388 -0.0298947 0.000401008)
(-0.0411194 -0.0250329 0.000358943)
(-0.036603 -0.0209093 0.000319521)
(-0.0324216 -0.0174352 0.000283023)
(-0.0285968 -0.014521 0.000249637)
(-0.0251286 -0.0120861 0.000219363)
(-0.0220082 -0.0100573 0.000192125)
(-0.0192181 -0.00837026 0.00016777)
(-0.0167364 -0.00696916 0.000146106)
(-0.0145383 -0.00580619 0.000126918)
(-0.0125985 -0.00484087 0.000109984)
(-0.0108918 -0.00403916 9.50857e-05)
(-0.00939422 -0.00337267 8.20123e-05)
(-0.00808316 -0.00281789 7.05672e-05)
(-0.00693784 -0.00235537 6.05688e-05)
(-0.00593931 -0.00196912 5.18519e-05)
(-0.00507047 -0.00164602 4.4267e-05)
(-0.00431597 -0.00137532 3.76803e-05)
(-0.00366214 -0.00114823 3.19723e-05)
(-0.00309682 -0.000957559 2.70371e-05)
(-0.0026091 -0.000797384 2.27793e-05)
(-0.00218936 -0.000662851 1.91148e-05)
(-0.00182902 -0.000549949 1.5969e-05)
(-0.00152047 -0.000455351 1.32752e-05)
(-0.00125699 -0.000376283 1.09749e-05)
(-0.00103252 -0.000310379 9.01519e-06)
(-0.000841739 -0.000255635 7.3496e-06)
(-0.000679961 -0.000210315 5.93718e-06)
(-0.000543046 -0.000172897 4.74181e-06)
(-0.000427406 -0.000142022 3.73218e-06)
(-0.000329954 -0.000116456 2.88135e-06)
(-0.00024813 -9.5069e-05 2.16695e-06)
(-0.000179878 -7.68159e-05 1.57104e-06)
(-0.000123639 -6.0731e-05 1.07999e-06)
(-7.83385e-05 -4.59704e-05 6.84429e-07)
(-4.33886e-05 -3.18923e-05 3.79214e-07)
(-1.84604e-05 -1.82761e-05 1.61474e-07)
(-3.44719e-06 -5.62717e-06 3.02746e-08)
(2.53258e-06 3.99319e-06 -2.20923e-08)
(1.2989e-06 6.4254e-06 -1.2187e-08)
(-0.0559647 -0.0497938 0.0004885)
(-0.0519419 -0.0428851 0.000453391)
(-0.0477752 -0.0367432 0.000417026)
(-0.043607 -0.0313293 0.000380647)
(-0.0395206 -0.0266111 0.000344981)
(-0.0355974 -0.0225289 0.000310738)
(-0.0318848 -0.0190241 0.000278333)
(-0.028419 -0.0160318 0.000248081)
(-0.0252174 -0.0134902 0.000220135)
(-0.0222873 -0.0113396 0.000194559)
(-0.0196262 -0.00952563 0.00017133)
(-0.0172252 -0.00799907 0.000150371)
(-0.0150708 -0.00671642 0.000131566)
(-0.013147 -0.00563974 0.000114772)
(-0.0114361 -0.00473625 9.98367e-05)
(-0.00992009 -0.00397804 8.66025e-05)
(-0.00858106 -0.00334142 7.49133e-05)
(-0.00740183 -0.00280649 6.46191e-05)
(-0.00636617 -0.00235657 5.55781e-05)
(-0.00545896 -0.00197776 4.76584e-05)
(-0.00466632 -0.00165853 4.07387e-05)
(-0.00397555 -0.00138931 3.47083e-05)
(-0.00337518 -0.00116219 2.94671e-05)
(-0.00285471 -0.000970577 2.49234e-05)
(-0.00240474 -0.000809015 2.09951e-05)
(-0.00201679 -0.000672954 1.76082e-05)
(-0.00168322 -0.000558584 1.46961e-05)
(-0.00139724 -0.000462709 1.21994e-05)
(-0.00115265 -0.000382573 1.0064e-05)
(-0.000943967 -0.000315832 8.24212e-06)
(-0.000766334 -0.000260441 6.69129e-06)
(-0.000615426 -0.000214596 5.37375e-06)
(-0.000487473 -0.000176681 4.25664e-06)
(-0.000379213 -0.000145221 3.31145e-06)
(-0.000287925 -0.000118862 2.51443e-06)
(-0.000211405 -9.6352e-05 1.84634e-06)
(-0.000147968 -7.65299e-05 1.29244e-06)
(-9.6429e-05 -5.83804e-05 8.42422e-07)
(-5.61236e-05 -4.11264e-05 4.9045e-07)
(-2.66711e-05 -2.44784e-05 2.33208e-07)
(-7.97833e-06 -8.98945e-06 6.9878e-08)
(7.89919e-07 3.02158e-06 -6.8314e-09)
(1.17695e-06 6.81043e-06 -1.08336e-08)
(-0.0443036 -0.0372529 0.000386718)
(-0.040936 -0.0321926 0.000357327)
(-0.0375376 -0.0276991 0.000327667)
(-0.0341901 -0.0237415 0.000298449)
(-0.0309496 -0.0202846 0.000270166)
(-0.0278616 -0.0172846 0.000243212)
(-0.0249554 -0.0146964 0.000217846)
(-0.0222501 -0.0124741 0.000194231)
(-0.0197545 -0.0105737 0.000172448)
(-0.0174706 -0.00895363 0.000152512)
(-0.0153945 -0.007576 0.00013439)
(-0.0135185 -0.00640664 0.000118013)
(-0.0118318 -0.00541523 0.00010329)
(-0.0103223 -0.00457528 9.01134e-05)
(-0.00897701 -0.00386386 7.83694e-05)
(-0.00778242 -0.00326126 6.79412e-05)
(-0.00672534 -0.00275071 5.87133e-05)
(-0.00579296 -0.00231799 5.05739e-05)
(-0.00497316 -0.00195113 4.34173e-05)
(-0.00425455 -0.00164003 3.71439e-05)
(-0.00362661 -0.0013763 3.16621e-05)
(-0.00307951 -0.0011528 2.68859e-05)
(-0.00260428 -0.000963587 2.27371e-05)
(-0.00219271 -0.000803661 1.9144e-05)
(-0.00183733 -0.000668782 1.60415e-05)
(-0.00153139 -0.000555365 1.33705e-05)
(-0.00126867 -0.000460298 1.10769e-05)
(-0.00104364 -0.000380905 9.11234e-06)
(-0.000851341 -0.000314846 7.43346e-06)
(-0.000687329 -0.000260036 6.00153e-06)
(-0.000547713 -0.000214601 4.7826e-06)
(-0.0004291 -0.000176824 3.74703e-06)
(-0.000328643 -0.000145123 2.86997e-06)
(-0.000244022 -0.00011803 2.13114e-06)
(-0.000173438 -9.41846e-05 1.51487e-06)
(-0.000115618 -7.23911e-05 1.01e-06)
(-6.98268e-05 -5.17276e-05 6.10139e-07)
(-3.56455e-05 -3.18217e-05 3.11612e-07)
(-1.30154e-05 -1.32557e-05 1.13902e-07)
(-1.1856e-06 1.42674e-06 1.04681e-08)
(1.03387e-06 6.93021e-06 -9.25359e-09)
(-0.0408593 -0.0372159 0.000356649)
(-0.0381594 -0.0325618 0.000333087)
(-0.0353606 -0.0283539 0.00030866)
(-0.032536 -0.0245841 0.000284007)
(-0.0297417 -0.0212367 0.000259619)
(-0.0270255 -0.018286 0.000235911)
(-0.0244223 -0.0157024 0.00021319)
(-0.0219583 -0.0134526 0.000191682)
(-0.0196502 -0.0115029 0.000171536)
(-0.0175079 -0.00981988 0.000152836)
(-0.0155352 -0.00837184 0.000135617)
(-0.0137312 -0.00712915 0.00011987)
(-0.0120917 -0.00606475 0.000105557)
(-0.0106096 -0.00515436 9.26204e-05)
(-0.00927658 -0.00437649 8.09839e-05)
(-0.00808296 -0.00371227 7.05643e-05)
(-0.00701859 -0.00314532 6.1273e-05)
(-0.00607316 -0.00266154 5.30197e-05)
(-0.00523648 -0.00224884 4.57158e-05)
(-0.00449868 -0.00189692 3.9275e-05)
(-0.00385038 -0.00159706 3.36155e-05)
(-0.00328262 -0.00134177 2.86589e-05)
(-0.00278704 -0.00112476 2.43325e-05)
(-0.00235587 -0.000940631 2.05684e-05)
(-0.00198192 -0.000784808 1.73037e-05)
(-0.00165862 -0.000653366 1.44813e-05)
(-0.00137986 -0.000542865 1.20476e-05)
(-0.00114011 -0.000450329 9.95455e-06)
(-0.000934404 -0.000373131 8.15865e-06)
(-0.000758252 -0.00030892 6.62074e-06)
(-0.000607691 -0.000255567 5.30626e-06)
(-0.000479242 -0.000211114 4.18482e-06)
(-0.000369968 -0.000173751 3.23079e-06)
(-0.000277458 -0.000141792 2.4231e-06)
(-0.000199826 -0.000113673 1.7453e-06)
(-0.000135721 -8.80111e-05 1.18556e-06)
(-8.43519e-05 -6.37303e-05 7.37004e-07)
(-4.52745e-05 -4.03603e-05 3.95732e-07)
(-1.84856e-05 -1.84908e-05 1.6171e-07)
(-3.35892e-06 -8.53532e-07 2.94995e-08)
(8.72727e-07 6.75666e-06 -7.48145e-09)
(-0.0374768 -0.0367917 0.000327121)
(-0.0353544 -0.0325506 0.000308598)
(-0.0330843 -0.0286541 0.000288787)
(-0.030732 -0.0251088 0.000268257)
(-0.0283515 -0.0219126 0.000247481)
(-0.02599 -0.019054 0.00022687)
(-0.0236851 -0.0165155 0.000206752)
(-0.0214667 -0.0142752 0.000187389)
(-0.0193569 -0.0123088 0.000168973)
(-0.017371 -0.0105908 0.00015164)
(-0.0155186 -0.00909553 0.000135471)
(-0.0138046 -0.00779846 0.000120509)
(-0.0122297 -0.00667621 0.000106762)
(-0.0107918 -0.00570728 9.42105e-05)
(-0.00948662 -0.00487211 8.28169e-05)
(-0.00830798 -0.00415317 7.25282e-05)
(-0.00724878 -0.00353493 6.3282e-05)
(-0.00630118 -0.00300375 5.501e-05)
(-0.00545704 -0.00254778 4.7641e-05)
(-0.0047081 -0.00215674 4.1103e-05)
(-0.00404628 -0.00182181 3.53255e-05)
(-0.00346359 -0.00153533 3.02387e-05)
(-0.00295243 -0.00129076 2.57763e-05)
(-0.00250561 -0.00108245 2.18756e-05)
(-0.00211632 -0.000905534 1.84771e-05)
(-0.0017783 -0.000755818 1.55261e-05)
(-0.0014856 -0.000629575 1.29707e-05)
(-0.00123281 -0.000523558 1.07638e-05)
(-0.00101502 -0.00043488 8.86245e-06)
(-0.000827747 -0.000360932 7.22747e-06)
(-0.000667012 -0.000299345 5.82418e-06)
(-0.000529295 -0.000247924 4.62184e-06)
(-0.000411604 -0.000204633 3.59433e-06)
(-0.000311463 -0.00016757 2.72002e-06)
(-0.000226922 -0.000134963 1.9819e-06)
(-0.000156566 -0.000105239 1.3676e-06)
(-9.95642e-05 -7.7159e-05 8.69869e-07)
(-5.54596e-05 -5.01388e-05 4.84708e-07)
(-2.43263e-05 -2.47503e-05 2.12754e-07)
(-5.69932e-06 -3.87337e-06 4.99937e-08)
(6.9828e-07 6.26683e-06 -5.56406e-09)
(-0.0342854 -0.0360562 0.000299261)
(-0.0326323 -0.0322298 0.000284836)
(-0.0308077 -0.0286593 0.000268912)
(-0.0288666 -0.0253617 0.000251972)
(-0.0268572 -0.0223457 0.000234434)
(-0.0248232 -0.0196104 0.000216682)
(-0.0228017 -0.0171487 0.000199039)
(-0.0208237 -0.014948 0.000181775)
(-0.018914 -0.0129925 0.000165106)
(-0.0170915 -0.0112638 0.000149198)
(-0.0153697 -0.00974254 0.00013417)
(-0.0137577 -0.0084089 0.000120099)
(-0.0122604 -0.00724354 0.000107029)
(-0.0108797 -0.00622798 9.49769e-05)
(-0.00961482 -0.00534499 8.39354e-05)
(-0.00846287 -0.00457874 7.38798e-05)
(-0.00741954 -0.00391487 6.47722e-05)
(-0.00647937 -0.00334056 5.65652e-05)
(-0.00563624 -0.00284444 4.92051e-05)
(-0.00488354 -0.00241652 4.26343e-05)
(-0.00421454 -0.00204806 3.67942e-05)
(-0.00362234 -0.00173141 3.16244e-05)
(-0.00310018 -0.00145989 2.70661e-05)
(-0.00264153 -0.00122773 2.3062e-05)
(-0.00224008 -0.00102985 1.95574e-05)
(-0.00188993 -0.000861832 1.65006e-05)
(-0.0015854 -0.000719724 1.3842e-05)
(-0.00132128 -0.000600044 1.15362e-05)
(-0.00109275 -0.000499666 9.54109e-06)
(-0.000895419 -0.000415749 7.81828e-06)
(-0.000725325 -0.000345693 6.33329e-06)
(-0.00057895 -0.000287077 5.05537e-06)
(-0.00045328 -0.000237646 3.95821e-06)
(-0.000345806 -0.000195283 3.01989e-06)
(-0.000254531 -0.000158012 2.22298e-06)
(-0.000177996 -0.000124064 1.55474e-06)
(-0.000115341 -9.20292e-05 1.00766e-06)
(-6.61122e-05 -6.11926e-05 5.77768e-07)
(-3.04823e-05 -3.20806e-05 2.66554e-07)
(-8.18175e-06 -7.67426e-06 7.17309e-08)
(5.13306e-07 5.43682e-06 -3.5294e-09)
(-0.0312787 -0.0351142 0.000273015)
(-0.0300196 -0.0316824 0.000262027)
(-0.0285751 -0.028434 0.000249422)
(-0.0269919 -0.0253921 0.000235605)
(-0.0253124 -0.0225721 0.000220948)
(-0.0235763 -0.0199806 0.000205796)
(-0.0218186 -0.0176185 0.000190455)
(-0.0200701 -0.0154808 0.000175194)
(-0.0183563 -0.0135587 0.000160236)
(-0.0166981 -0.0118402 0.000145763)
(-0.0151116 -0.0103115 0.000131916)
(-0.0136089 -0.0089575 0.000118799)
(-0.0121981 -0.00776281 0.000106484)
(-0.0108842 -0.00671214 9.5015e-05)
(-0.00966936 -0.00579075 8.44108e-05)
(-0.00855361 -0.00498475 7.46714e-05)
(-0.00753511 -0.00428125 6.57807e-05)
(-0.00661065 -0.00366846 5.77108e-05)
(-0.00577599 -0.00313574 5.04247e-05)
(-0.00502617 -0.00267358 4.38792e-05)
(-0.00435581 -0.00227355 3.80272e-05)
(-0.00375913 -0.00192809 3.28184e-05)
(-0.00323028 -0.00163058 2.82017e-05)
(-0.00276345 -0.00137517 2.41263e-05)
(-0.0023529 -0.00115668 2.05422e-05)
(-0.00199317 -0.000970542 1.74018e-05)
(-0.00167891 -0.00081262 1.46583e-05)
(-0.00140514 -0.000679235 1.22683e-05)
(-0.00116725 -0.000567059 1.01914e-05)
(-0.000960932 -0.000473038 8.39023e-06)
(-0.00078232 -0.000394359 6.83088e-06)
(-0.000627927 -0.000328387 5.48297e-06)
(-0.000494751 -0.000272657 4.32029e-06)
(-0.000380273 -0.000224845 3.32083e-06)
(-0.000282473 -0.00018277 2.46697e-06)
(-0.000199863 -0.000144467 1.7457e-06)
(-0.000131569 -0.000108347 1.14939e-06)
(-7.71536e-05 -7.35485e-05 6.74222e-07)
(-3.69061e-05 -4.05205e-05 3.22693e-07)
(-1.0786e-05 -1.22932e-05 9.45351e-08)
(3.19325e-07 4.24783e-06 -1.39448e-09)
(-0.0285062 -0.0340184 0.000248813)
(-0.0275626 -0.0309609 0.000240579)
(-0.0264325 -0.0280261 0.000230718)
(-0.0251534 -0.0252406 0.000219556)
(-0.0237614 -0.0226243 0.000207407)
(-0.022291 -0.0201896 0.000194575)
(-0.0207743 -0.0179431 0.000181337)
(-0.01924 -0.0158858 0.000167947)
(-0.0177135 -0.0140149 0.000154623)
(-0.0162161 -0.0123237 0.000141554)
(-0.0147655 -0.0108034 0.000128893)
(-0.0133755 -0.00944342 0.00011676)
(-0.0120565 -0.00823198 0.000105247)
(-0.010816 -0.00715697 9.44191e-05)
(-0.00965854 -0.00620626 8.43157e-05)
(-0.00858647 -0.00536801 7.49576e-05)
(-0.00760014 -0.00463094 6.63479e-05)
(-0.00669834 -0.00398453 5.8476e-05)
(-0.00587862 -0.00341904 5.13203e-05)
(-0.00513754 -0.00292559 4.48511e-05)
(-0.00447106 -0.00249622 3.90331e-05)
(-0.00387451 -0.00212362 3.38255e-05)
(-0.00334298 -0.00180133 2.91854e-05)
(-0.0028714 -0.00152352 2.50686e-05)
(-0.00245467 -0.001285 2.14306e-05)
(-0.00208781 -0.00108111 1.8228e-05)
(-0.00176585 -0.000907583 1.54173e-05)
(-0.00148412 -0.000760591 1.29577e-05)
(-0.00123821 -0.000636631 1.08109e-05)
(-0.001024 -0.000532464 8.94084e-06)
(-0.000837728 -0.000445086 7.31461e-06)
(-0.000675979 -0.000371662 5.90249e-06)
(-0.000535794 -0.000309528 4.67863e-06)
(-0.000414671 -0.00025616 3.62117e-06)
(-0.000310585 -0.000209176 2.71243e-06)
(-0.000222035 -0.000166418 1.93932e-06)
(-0.000148147 -0.000126111 1.29418e-06)
(-8.85139e-05 -8.72246e-05 7.7346e-07)
(-4.35572e-05 -5.01011e-05 3.80818e-07)
(-1.34963e-05 -1.77618e-05 1.18267e-07)
(1.17066e-07 2.68402e-06 8.31344e-10)
(-0.0259469 -0.0328331 0.000226473)
(-0.0252629 -0.0301206 0.000220505)
(-0.0243956 -0.0274822 0.000212937)
(-0.0233755 -0.0249459 0.000204035)
(-0.0222329 -0.0225338 0.000194064)
(-0.0209977 -0.0202619 0.000183284)
(-0.0196983 -0.0181408 0.000171944)
(-0.0183612 -0.0161763 0.000160275)
(-0.0170107 -0.0143699 0.000148487)
(-0.0156676 -0.0127197 0.000136765)
(-0.0143502 -0.0112212 0.000125266)
(-0.0130732 -0.00986749 0.00011412)
(-0.0118486 -0.00865047 0.000103432)
(-0.0106856 -0.00756098 9.32801e-05)
(-0.0095906 -0.00658945 8.3722e-05)
(-0.00856782 -0.00572615 7.47943e-05)
(-0.00761947 -0.00496153 6.65162e-05)
(-0.00674607 -0.00428641 5.88922e-05)
(-0.00594675 -0.00369211 5.19147e-05)
(-0.00521951 -0.00317053 4.55664e-05)
(-0.00456155 -0.00271427 3.98228e-05)
(-0.00396929 -0.00231643 3.46527e-05)
(-0.00343874 -0.00197078 3.00212e-05)
(-0.00296562 -0.00167164 2.5891e-05)
(-0.00254545 -0.00141385 2.2223e-05)
(-0.00217378 -0.00119274 1.89784e-05)
(-0.00184609 -0.00100396 1.61177e-05)
(-0.00155801 -0.000843585 1.36028e-05)
(-0.00130542 -0.000707962 1.13977e-05)
(-0.0010844 -0.000593698 9.46809e-06)
(-0.000891323 -0.000497619 7.7825e-06)
(-0.000722891 -0.000416707 6.31205e-06)
(-0.000576212 -0.000348113 5.03151e-06)
(-0.000448823 -0.000289124 3.91936e-06)
(-0.000338716 -0.000237165 2.95806e-06)
(-0.000244391 -0.000189883 2.13454e-06)
(-0.000164985 -0.000145309 1.44123e-06)
(-0.000100132 -0.000102231 8.74946e-07)
(-5.04017e-05 -6.08465e-05 4.40633e-07)
(-1.63007e-05 -2.41069e-05 1.42824e-07)
(-9.34302e-08 7.31445e-07 3.14622e-09)
(-0.0236131 -0.0315911 0.000206101)
(-0.0231347 -0.0291967 0.000201928)
(-0.022482 -0.0268368 0.000196232)
(-0.0216788 -0.0245393 0.000189224)
(-0.0207497 -0.0223276 0.000181116)
(-0.0197199 -0.0202198 0.000172129)
(-0.0186142 -0.0182295 0.00016248)
(-0.0174564 -0.0163657 0.000152375)
(-0.0162688 -0.0146336 0.00014201)
(-0.0150714 -0.013035 0.00013156)
(-0.0138821 -0.0115688 0.00012118)
(-0.0127162 -0.0102318 0.000111003)
(-0.0115864 -0.00901891 0.000101141)
(-0.0105028 -0.00792375 9.16838e-05)
(-0.00947349 -0.0069392 8.2699e-05)
(-0.008504 -0.00605764 7.42366e-05)
(-0.00759805 -0.00527124 6.63287e-05)
(-0.00675762 -0.00457225 5.89925e-05)
(-0.00598322 -0.00395313 5.22328e-05)
(-0.00527415 -0.00340667 4.60431e-05)
(-0.00462875 -0.00292614 4.04092e-05)
(-0.00404447 -0.00250512 3.53088e-05)
(-0.00351822 -0.00213771 3.07149e-05)
(-0.00304647 -0.00181847 2.65967e-05)
(-0.00262541 -0.00154234 2.2921e-05)
(-0.00225114 -0.00130468 1.96536e-05)
(-0.00191956 -0.00110114 1.6759e-05)
(-0.0016267 -0.000927712 1.42024e-05)
(-0.00136873 -0.000780644 1.19503e-05)
(-0.00114194 -0.000656415 9.97042e-06)
(-0.000942916 -0.000551701 8.23291e-06)
(-0.000768478 -0.000463324 6.71004e-06)
(-0.000615832 -0.000388265 5.37741e-06)
(-0.000482574 -0.000323631 4.21403e-06)
(-0.000366731 -0.000266664 3.20267e-06)
(-0.00026682 -0.000214816 2.3304e-06)
(-0.000181999 -0.000165925 1.58982e-06)
(-0.000111953 -0.000118572 9.78212e-07)
(-5.7412e-05 -7.27747e-05 5.01895e-07)
(-1.91913e-05 -3.13508e-05 1.68134e-07)
(-3.12779e-07 -1.62293e-06 5.55458e-09)
(-0.021481 -0.0303304 0.000187491)
(-0.0211693 -0.0282244 0.000184771)
(-0.0206933 -0.0261215 0.000180619)
(-0.020072 -0.0240489 0.000175198)
(-0.0193252 -0.02203 0.000168681)
(-0.0184741 -0.0200839 0.000161254)
(-0.0175398 -0.0182258 0.0001531)
(-0.0165433 -0.0164672 0.000144404)