/*--------------------------------*- C++ -*----------------------------------*\
| =========                 |                                                 |
| \\      /  F ield         | OpenFOAM: The Open Source CFD Toolbox           |
|  \\    /   O peration     | Version:  v2012                                 |
|   \\  /    A nd           | Website:  www.openfoam.com                      |
|    \\/     M anipulation  |                                                 |
\*---------------------------------------------------------------------------*/
FoamFile
{
    version     2.0;
    format      ascii;
    class       volScalarField;
    location    "0.55";
    object      alpha.water;
}
// * * * * * * * * * * * * * * * * * * * * * * * * * * * * * * * * * * * * * //

dimensions      [0 0 0 0 0 0 0];


internalField   nonuniform List<scalar> 
3326
(
2.44023e-35
2.14077e-34
8.73952e-37
3.82038e-46
5.74425e-50
1.22765e-52
1.82185e-58
5.22631e-61
9.27212e-61
2.81556e-23
2.45289e-24
9.85606e-33
5.95473e-36
1.03738e-37
8.5776e-43
5.00225e-45
8.45028e-49
1.36894e-52
9.04053e-59
6.23964e-62
1.12502e-61
7.97896e-16
1.54615e-14
2.29007e-14
3.17137e-15
1.12682e-16
1.34895e-16
2.16032e-16
1.62472e-16
1.23787e-15
3.40251e-15
8.50668e-16
5.1046e-16
1.10085e-15
4.61014e-15
1.00805e-14
8.98437e-15
4.68501e-15
7.05725e-15
6.86505e-15
2.24694e-15
2.98439e-15
3.30559e-15
3.00028e-15
1.87188e-15
1.92886e-15
1.94295e-15
3.96014e-16
9.07682e-23
2.88428e-24
2.34023e-27
2.86455e-28
1.05417e-20
3.08714e-21
3.2925e-29
2.57021e-32
1.92535e-35
1.13605e-38
2.61643e-41
1.55335e-44
3.77703e-49
5.50796e-53
4.47693e-57
1.70518e-61
5.53175e-63
1.04789e-62
3.75767e-14
5.44018e-14
3.63603e-14
2.63562e-16
1.17519e-16
1.22075e-16
1.7059e-16
1.49295e-15
1.32888e-14
2.51272e-14
2.00303e-14
1.1607e-15
1.13891e-15
3.71566e-15
1.16714e-14
1.16932e-14
4.79294e-15
2.31635e-15
3.26998e-15
3.72035e-15
3.28372e-15
3.30302e-15
2.62582e-15
1.87188e-15
2.05801e-15
1.99724e-15
3.52626e-16
1.72036e-21
2.46696e-21
4.85211e-20
2.54666e-19
4.01805e-20
1.97973e-21
1.93869e-29
1.71824e-32
1.28788e-35
2.96532e-38
4.90673e-41
2.17166e-44
3.10785e-48
8.57046e-53
2.82689e-57
1.00227e-61
3.00472e-64
5.78568e-64
5.4451e-14
5.4451e-14
3.14808e-14
1.50348e-16
1.19854e-16
1.57074e-16
4.7891e-16
2.264e-15
1.43707e-14
2.63557e-14
2.61982e-14
1.5146e-14
1.16816e-15
1.29943e-15
5.10355e-15
8.67841e-15
3.97354e-15
9.60175e-16
1.14774e-15
2.16437e-15
3.30572e-15
3.30576e-15
3.23688e-15
1.91901e-15
1.82424e-15
1.91417e-15
2.34726e-16
4.30146e-21
2.87215e-21
3.15707e-18
1.89303e-18
7.51705e-22
4.94592e-29
5.65578e-32
5.29823e-35
2.84757e-37
2.23035e-41
9.7353e-45
3.09289e-48
6.80952e-52
1.23378e-54
2.10276e-54
3.04206e-64
1.02857e-65
2.04066e-65
5.4451e-14
4.35521e-14
2.35436e-15
5.99593e-17
2.88736e-16
5.09814e-16
6.23668e-16
6.04352e-16
1.10838e-15
1.31919e-14
2.58059e-14
1.64291e-14
1.20081e-15
1.28598e-15
1.50244e-15
1.62481e-15
1.32923e-15
9.47704e-16
1.20641e-15
9.05596e-16
2.62732e-15
3.30578e-15
3.3058e-15
2.80966e-15
1.04798e-15
1.14631e-15
6.01285e-16
1.08559e-17
7.72781e-19
3.63143e-18
1.84393e-18
5.86115e-23
4.66744e-29
5.53073e-32
1.13407e-34
3.1603e-37
2.11362e-41
9.09333e-45
2.8428e-48
6.12456e-52
8.39791e-56
6.40164e-60
2.13607e-64
1.56053e-67
1.54438e-67
4.50101e-14
3.29061e-15
3.94484e-17
5.98204e-17
3.52314e-16
5.22414e-16
2.7799e-16
3.02107e-16
5.11856e-16
1.61121e-15
5.83708e-15
3.67162e-15
1.19565e-15
1.33769e-15
1.37734e-15
1.34604e-15
1.34575e-15
2.95215e-15
1.87139e-15
3.17646e-16
3.88702e-16
3.27998e-15
3.30578e-15
2.88812e-15
1.05751e-15
1.05478e-15
1.57127e-15
1.54402e-15
3.87739e-16
1.44466e-23
2.81427e-26
4.68276e-29
2.08467e-31
7.15923e-35
6.54842e-38
2.33416e-40
2.6112e-44
1.1026e-47
3.37479e-51
7.12349e-55
1.20248e-57
1.96117e-57
4.02762e-67
1.36153e-67
1.54436e-67
2.3381e-15
3.69957e-17
3.9183e-17
3.99371e-17
1.34882e-16
1.44481e-16
1.53883e-16
2.88177e-16
4.28751e-16
1.13043e-15
9.21685e-16
2.6219e-15
1.27861e-15
1.32923e-15
1.29823e-15
1.30161e-15
1.06706e-14
8.74367e-15
6.27445e-16
-5.055e-17
-1.94708e-17
1.9676e-15
2.41802e-15
1.36177e-15
1.02432e-15
1.33546e-15
1.71531e-15
1.79583e-15
5.80517e-16
2.98143e-23
4.34047e-26
7.11878e-29
9.59805e-32
1.06574e-34
9.63579e-38
4.33078e-40
3.718e-44
1.5386e-47
4.60903e-51
9.46481e-55
1.23354e-58
8.83283e-63
3.90298e-67
1.16578e-67
1.45145e-67
3.74627e-17
3.75777e-17
5.27836e-17
8.27482e-17
9.03937e-17
1.03661e-15
1.63144e-15
3.78746e-16
4.93764e-16
8.42797e-16
6.50993e-16
4.0722e-15
1.35462e-14
1.28389e-15
9.79568e-16
5.21798e-15
1.5011e-14
5.36462e-15
-2.14821e-16
-1.16391e-15
-3.9252e-16
9.06579e-16
9.70975e-16
9.72951e-16
1.04961e-15
1.84638e-15
1.74833e-15
1.08739e-15
8.34496e-19
1.22572e-25
2.36753e-28
3.89366e-31
2.54254e-33
5.69838e-37
5.07648e-40
2.41804e-42
1.8933e-46
7.68137e-50
2.2523e-53
4.51508e-57
5.75265e-61
4.03127e-65
1.16578e-67
1.15259e-67
1.11083e-67
5.51042e-17
6.80159e-17
1.42002e-16
1.71244e-16
1.36002e-16
1.88576e-15
3.53305e-15
2.17001e-16
5.85331e-16
5.39342e-16
5.27735e-16
1.84638e-15
2.01897e-14
2.84345e-14
1.96557e-14
1.84877e-14
4.68061e-15
-2.59616e-15
-6.15139e-15
-4.8091e-15
-1.92334e-15
-8.51141e-17
8.33619e-16
1.57517e-15
2.62399e-15
2.02975e-15
1.73455e-15
6.37035e-16
3.1452e-23
6.87337e-26
1.32452e-28
2.18186e-31
2.92706e-33
9.37731e-37
1.35335e-39
2.22374e-42
9.76317e-47
3.86308e-50
1.10139e-53
2.13756e-57
2.61369e-61
1.98136e-65
1.35279e-66
2.68766e-66
2.93659e-68
1.04863e-16
1.13241e-16
3.9993e-17
4.32209e-17
5.97226e-17
6.68877e-16
1.86473e-15
1.9135e-16
2.55021e-16
4.50704e-16
5.22623e-16
5.18958e-16
5.61062e-15
5.08821e-14
5.06998e-14
2.10111e-14
-2.43399e-15
-1.56455e-14
-1.84928e-14
-1.34441e-14
-6.27019e-15
-1.37699e-15
1.69043e-15
3.1786e-15
2.93579e-15
1.47899e-15
1.45083e-15
9.63677e-16
1.06882e-18
1.08555e-25
2.03005e-28
3.22809e-31
1.483e-33
4.38479e-37
3.72559e-40
4.49926e-43
1.25725e-46
4.81044e-50
1.3247e-53
2.47631e-57
2.90852e-61
1.85424e-65
1.15788e-68
1.57498e-68
9.36221e-69
6.02258e-17
3.98102e-17
3.86575e-17
3.79355e-17
3.73146e-17
3.73146e-17
3.73146e-17
5.23615e-17
1.64967e-16
3.85732e-16
5.15251e-16
5.15735e-16
5.49454e-16
5.09932e-14
5.07754e-14
0
-2.34168e-14
-4.05166e-14
-4.2643e-14
-3.13509e-14
-1.61301e-14
-4.99238e-15
1.57281e-15
3.17876e-15
2.88284e-15
1.45535e-15
1.43068e-15
1.24994e-15
2.44073e-17
9.53794e-25
1.74901e-27
2.69729e-30
3.39199e-33
3.47269e-36
2.85809e-39
1.82893e-42
9.03521e-46
3.33845e-49
8.89526e-53
1.60244e-56
1.80489e-60
1.09615e-64
3.57693e-69
5.94765e-70
1.74546e-69
2.85548e-17
1.25687e-14
2.46837e-13
1.72126e-13
2.53582e-15
3.73146e-17
7.706e-16
5.64613e-14
4.44479e-14
4.42508e-16
4.85615e-16
5.17983e-16
5.06021e-14
6.42271e-14
2.86795e-15
-1.87625e-14
-5.47231e-14
-8.19508e-14
-8.461e-14
-6.41937e-14
-3.58144e-14
-1.36547e-14
-2.51864e-15
2.61408e-15
2.18214e-15
1.4558e-15
1.60117e-15
1.25138e-15
2.11336e-18
1.28597e-25
2.3357e-28
3.5605e-31
4.41096e-34
4.43653e-37
3.57817e-40
2.2363e-43
1.07956e-46
3.88968e-50
1.00024e-53
1.73365e-57
1.87147e-61
1.08318e-65
5.94765e-70
2.9808e-70
4.8557e-70
2.76379e-17
1.18045e-13
5.62987e-13
5.63218e-13
2.88172e-13
3.80023e-17
1.61095e-14
2.03191e-13
2.33908e-13
1.07427e-13
4.09201e-15
6.53422e-14
9.30573e-14
1.27409e-14
-8.8773e-15
-5.27732e-14
-1.08161e-13
-1.49712e-13
-1.53966e-13
-1.20442e-13
-7.15465e-14
-3.14309e-14
-9.25182e-15
-7.78198e-16
2.0185e-15
1.7237e-15
1.67807e-15
4.26736e-16
2.30065e-23
4.38174e-26
7.73123e-29
1.14272e-31
1.37105e-34
1.33315e-37
1.03759e-40
6.24709e-44
2.88947e-47
9.94647e-51
2.4365e-54
4.02838e-58
4.13188e-62
2.25589e-66
2.84491e-70
2.29231e-70
2.36187e-70
2.85548e-17
1.1329e-13
5.42548e-13
5.70196e-13
5.68224e-13
2.61423e-13
1.67424e-14
1.85447e-13
2.40541e-13
2.40701e-13
1.88772e-13
1.82244e-13
3.28113e-14
-2.38144e-32
-3.61308e-14
-1.03092e-13
-1.88386e-13
-2.54467e-13
-2.63538e-13
-2.11589e-13
-1.31599e-13
-6.26351e-14
-2.19901e-14
-4.93708e-15
3.18851e-16
1.72359e-15
1.69668e-15
3.40416e-16
1.49669e-23
3.23417e-26
3.81761e-28
8.15046e-32
3.9959e-34
9.00945e-38
6.77389e-41
3.92857e-44
1.74474e-47
5.75131e-51
1.34258e-54
2.09569e-58
2.01606e-62
1.02421e-66
2.42722e-70
2.189e-70
2.22274e-70
4.36492e-17
3.86847e-16
8.51384e-14
5.41042e-13
5.69756e-13
5.54567e-13
1.48984e-13
2.87669e-14
2.15367e-13
2.45733e-13
2.44126e-13
2.19657e-13
5.21411e-15
-1.13323e-14
-6.88909e-14
-1.75526e-13
-3.09671e-13
-4.143e-13
-4.31698e-13
-3.53096e-13
-2.26659e-13
-1.13479e-13
-4.35165e-14
-1.19138e-14
-1.33409e-15
1.5449e-15
1.69658e-15
9.22434e-16
2.47476e-19
8.6431e-26
1.43653e-28
1.99081e-31
2.23072e-34
2.02511e-37
1.46502e-40
8.15144e-44
3.46142e-47
1.08778e-50
2.40856e-54
3.55591e-58
3.22793e-62
1.53085e-66
2.42577e-70
2.08052e-70
2.15525e-70
1.30343e-14
3.44372e-16
1.60635e-15
7.68135e-14
5.38347e-13
5.65054e-13
5.3888e-13
7.5035e-14
4.44533e-14
1.05089e-13
7.24825e-14
6.42957e-14
2.05154e-14
-1.86291e-14
-1.15386e-13
-2.84435e-13
-4.92272e-13
-6.5377e-13
-6.82972e-13
-5.6503e-13
-3.70168e-13
-1.91169e-13
-7.67951e-14
-2.2913e-14
-4.04093e-15
9.96638e-16
1.69632e-15
1.12545e-15
1.04393e-18
9.90864e-26
1.59562e-28
2.13678e-31
2.3085e-34
2.00351e-37
1.38131e-40
7.31683e-44
2.95606e-47
8.85363e-51
1.85899e-54
2.58299e-58
2.18133e-62
9.52903e-67
2.14889e-70
1.95049e-70
2.08768e-70
1.97505e-12
6.72879e-13
1.3161e-14
2.50591e-15
6.86328e-14
5.45899e-13
5.72093e-13
5.22484e-13
3.02956e-14
1.58597e-15
1.55293e-15
1.41734e-14
4.02192e-14
-2.55177e-14
-1.87272e-13
-4.50852e-13
-7.65722e-13
-1.00696e-12
-1.04977e-12
-8.72699e-13
-5.78253e-13
-3.04042e-13
-1.25426e-13
-3.92727e-14
-8.20955e-15
-1.57839e-16
1.66594e-15
7.34256e-16
4.12285e-23
5.67271e-26
8.82858e-29
1.14057e-31
1.18576e-34
9.90223e-38
6.57803e-41
3.34261e-44
1.28804e-47
3.6531e-51
7.22097e-55
9.38729e-59
7.35393e-63
2.94095e-67
1.93208e-70
1.88765e-70
1.88765e-70
3.45943e-12
3.28712e-12
6.04295e-13
2.90041e-15
3.23679e-15
1.19761e-13
5.67841e-13
5.76747e-13
4.5953e-13
1.24245e-14
2.38077e-16
6.56481e-17
3.39028e-14
-6.20438e-14
-3.11545e-13
-7.09397e-13
-1.17326e-12
-1.52048e-12
-1.57405e-12
-1.30715e-12
-8.69647e-13
-4.61366e-13
-1.93216e-13
-6.22744e-14
-1.41887e-14
-1.26267e-15
1.39008e-15
3.00187e-16
1.29763e-23
2.09161e-26
3.12436e-29
3.86523e-32
3.83911e-35
3.05371e-38
1.91964e-41
9.21782e-45
3.36128e-48
8.972e-52
1.65955e-55
2.00369e-59
1.44144e-63
5.23337e-68
1.89454e-70
1.88764e-70
1.88764e-70
3.45943e-12
3.45763e-12
8.44398e-13
3.23679e-15
3.23679e-15
1.47766e-14
2.61276e-13
5.77739e-13
5.77739e-13
3.41045e-13
1.07824e-15
2.51917e-14
5.10171e-14
-1.37068e-13
-5.25384e-13
-1.11305e-12
-1.77746e-12
-2.25766e-12
-2.30936e-12
-1.90536e-12
-1.2649e-12
-6.72289e-13
-2.83443e-13
-9.28897e-14
-2.22607e-14
-2.70188e-15
7.47489e-16
2.19193e-16
9.37959e-24
1.35168e-26
1.92908e-29
2.27531e-32
2.14974e-35
1.6225e-38
9.65081e-42
4.37934e-45
1.50168e-48
3.74607e-52
6.43656e-56
7.17559e-60
4.75353e-64
1.64006e-68
8.5004e-70
1.50847e-69
3.69557e-70
3.10564e-12
1.78357e-12
4.54969e-14
5.12209e-15
3.23679e-15
1.292e-14
2.78495e-14
3.46799e-13
5.77739e-13
5.65651e-13
2.08655e-13
2.47472e-13
7.99431e-14
-2.83e-13
-8.87303e-13
-1.73987e-12
-2.66672e-12
-3.30329e-12
-3.32273e-12
-2.70963e-12
-1.78458e-12
-9.44043e-13
-3.97635e-13
-1.31064e-13
-3.22602e-14
-4.61066e-15
2.97731e-16
1.65088e-16
4.29073e-20
6.68835e-27
1.01215e-29
3.61148e-31
5.10442e-34
1.59088e-37
4.61365e-41
6.26887e-45
6.5263e-49
1.50997e-52
2.39257e-56
4.6672e-59
8.8058e-59
3.27208e-61
1.64006e-68
4.20321e-68
3.02809e-69
2.18711e-13
1.73838e-13
1.30641e-12
2.31561e-12
4.29105e-13
1.33156e-14
2.09093e-14
2.91054e-14
4.93209e-13
5.05756e-13
4.70635e-13
2.74491e-13
-1.28126e-14
-5.85704e-13
-1.48604e-12
-2.69965e-12
-3.96249e-12
-4.76893e-12
-4.69623e-12
-3.76611e-12
-2.44672e-12
-1.28003e-12
-5.34713e-13
-1.75635e-13
-4.36608e-14
-6.78727e-15
-7.49223e-17
1.37652e-16
3.40391e-18
6.81897e-26
8.77493e-29
9.25319e-32
7.76425e-35
5.17289e-38
2.7006e-41
1.07338e-44
3.16602e-48
-2.74751e-58
-1.70309e-62
-8.58961e-66
4.43619e-58
9.46257e-60
1.36923e-67
9.186e-67
4.22149e-69
1.01918e-16
3.92065e-15
4.45182e-12
5.82619e-12
4.91756e-12
4.37712e-13
2.12435e-14
2.32743e-14
7.54853e-14
9.71997e-14
2.67281e-13
3.83755e-14
-3.30571e-13
-1.14816e-12
-2.44575e-12
-4.14573e-12
-5.83008e-12
-6.79914e-12
-6.52741e-12
-5.12144e-12
-3.26298e-12
-1.67725e-12
-6.898e-13
-2.23804e-13
-5.54034e-14
-8.95335e-15
-3.26013e-16
1.2647e-16
6.30237e-18
1.11784e-25
1.34429e-28
1.33324e-31
1.0597e-34
-8.32797e-44
-8.00694e-47
-3.5203e-49
-6.30912e-54
-6.33822e-62
-1.0835e-56
-4.84542e-53
-4.10434e-56
1.25634e-59
8.71389e-63
7.44027e-80
1.62901e-68
8.81339e-17
8.71921e-14
4.27259e-12
5.83727e-12
5.83727e-12
3.33824e-12
4.56984e-14
2.34447e-14
2.34447e-14
7.35577e-14
1.46538e-13
-6.43741e-14
-7.57543e-13
-2.0235e-12
-3.92537e-12
-6.29657e-12
-8.49829e-12
-9.58051e-12
-8.92797e-12
-6.81636e-12
-4.23262e-12
-2.123e-12
-8.53065e-13
-2.70954e-13
-6.59426e-14
-1.07621e-14
-5.11793e-16
1.26987e-16
7.89113e-18
1.32418e-25
-1.2798e-36
-4.03912e-38
-7.60314e-40
-3.84991e-43
-5.03372e-42
-1.08239e-38
-5.12528e-41
-1.08725e-43
-1.36206e-46
-1.03263e-49
-4.61363e-53
-1.13492e-56
-1.35129e-60
-6.03406e-65
6.43569e-68
8.11234e-17
1.83277e-16
1.45182e-13
4.48028e-12
5.83727e-12
3.71924e-12
8.21931e-14
2.34447e-14
2.29396e-13
5.39244e-13
1.50647e-13
-4.29942e-13
-1.56422e-12
-3.47024e-12
-6.22752e-12
-9.49524e-12
-1.22938e-11
-1.33532e-11
-1.20185e-11
-8.87473e-12
-5.33418e-12
-2.5912e-12
-1.00891e-12
-3.10731e-13
-7.34121e-14
-1.193e-14
-9.35384e-16
1.16761e-17
4.13508e-18
-1.13109e-28
-1.69103e-42
-2.34273e-27
-2.39949e-28
-1.53442e-30
-5.48862e-33
-1.34889e-35
-2.47262e-38
-3.40542e-41
-3.35655e-44
-2.21039e-47
-9.01483e-51
-2.06831e-54
-2.3096e-58
-9.55079e-63
1.91821e-67
7.42885e-17
2.21689e-16
3.68177e-16
2.24052e-13
4.16911e-12
2.96133e-12
3.33837e-13
1.57413e-12
1.14777e-12
4.63084e-13
-5.5298e-23
-1.00064e-12
-2.87673e-12
-5.81133e-12
-9.8209e-12
-1.42679e-11
-1.76807e-11
-1.84176e-11
-1.59133e-11
-1.12852e-11
-6.51481e-12
-3.03931e-12
-1.13627e-12
-3.35876e-13
-7.60994e-14
-1.23798e-14
-1.33138e-15
-8.88279e-17
-3.53734e-18
-8.349e-20
-1.19105e-21
-1.06651e-23
-6.27172e-26
-2.54145e-28
-7.46661e-31
-1.66574e-33
-2.87772e-36
-3.74957e-39
-3.47601e-42
-2.14178e-45
-8.11559e-49
-1.71275e-52
-1.73451e-56
-6.43027e-61
-3.35934e-66
6.54142e-17
7.41004e-16
3.8366e-16
6.14435e-15
1.11496e-12
4.46478e-12
5.19601e-12
4.30843e-12
3.64868e-13
-1.64526e-21
-5.58856e-13
-2.22953e-12
-5.22541e-12
-9.70601e-12
-1.54932e-11
-2.14154e-11
-2.52934e-11
-2.51166e-11
-2.06814e-11
-1.39705e-11
-7.67767e-12
-3.40728e-12
-1.21065e-12
-3.39593e-13
-7.30803e-14
-1.15132e-14
-1.2647e-15
-9.3646e-17
-4.60803e-18
-1.50694e-19
-3.29868e-21
-4.88327e-23
-4.93059e-25
-3.41451e-27
-1.62359e-29
-5.27782e-32
-1.16105e-34
-1.70433e-37
-1.63614e-40
-9.90695e-44
-3.56681e-47
-6.99062e-51
-6.43202e-55
-2.20243e-59
-1.28196e-64
2.07353e-17
6.54105e-17
1.06512e-11
1.22195e-12
9.77594e-13
4.04449e-12
5.76875e-12
6.04954e-12
5.73062e-12
1.41363e-12
-5.17102e-32
-4.04189e-13
-1.77518e-12
-4.65838e-12
-9.42667e-12
-1.62498e-11
-2.451e-11
-3.21185e-11
-3.59431e-11
-3.37696e-11
-2.62702e-11
-1.6743e-11
-8.67022e-12
-3.6207e-12
-1.20849e-12
-3.17622e-13
-6.40189e-14
-9.54552e-15
-1.01904e-15
-7.62449e-17
-3.96206e-18
-1.42802e-19
-3.5746e-21
-6.22891e-23
-7.55752e-25
-6.37069e-27
-3.71087e-29
-1.47835e-31
-3.98293e-34
-7.14311e-37
-8.29023e-40
-5.95963e-43
-2.50066e-46
-5.5819e-50
-5.65325e-54
-2.13954e-58
-1.43099e-63
4.47372e-10
5.10311e-10
1.28338e-10
5.07679e-11
5.52788e-11
2.09325e-11
3.22819e-12
5.60883e-12
1.15981e-12
-2.61493e-36
-3.83198e-13
-1.58412e-12
-4.2843e-12
-9.22965e-12
-1.69401e-11
-2.73517e-11
-3.89198e-11
-4.80771e-11
-5.05754e-11
-4.45365e-11
-3.23901e-11
-1.92579e-11
-9.28517e-12
-3.60302e-12
-1.11461e-12
-2.70698e-13
-5.04043e-14
-6.99416e-15
-7.06222e-16
-5.1089e-17
-2.62857e-18
-9.59465e-20
-2.48144e-21
-4.54441e-23
-5.87657e-25
-5.34118e-27
-3.38217e-29
-1.4794e-31
-4.42111e-34
-8.84461e-37
-1.1474e-39
-9.24147e-43
-4.33638e-46
-1.0767e-49
-1.22613e-53
-5.07468e-58
-4.21817e-63
2.48234e-09
1.71172e-09
1.1888e-10
8.25985e-11
9.40805e-11
2.78228e-11
9.88107e-14
1.23511e-13
-2.47702e-36
-2.98888e-13
-1.38475e-12
-3.97099e-12
-9.11543e-12
-1.78109e-11
-3.05089e-11
-4.63449e-11
-6.19522e-11
-7.1561e-11
-7.00397e-11
-5.71306e-11
-3.83493e-11
-2.09838e-11
-9.28719e-12
-3.2993e-12
-9.31219e-13
-2.05523e-13
-3.47103e-14
-4.38327e-15
-4.06488e-16
-2.73589e-17
-1.32859e-18
-4.64425e-20
-1.16591e-21
-2.09793e-23
-2.69553e-25
-2.45838e-27
-1.58165e-29
-7.13506e-32
-2.22296e-34
-4.6655e-37
-6.36342e-40
-5.38872e-43
-2.64327e-46
-6.74079e-50
-8.07309e-54
-3.45917e-58
-3.24741e-63
2.09866e-09
1.28831e-09
6.66563e-11
9.48837e-11
9.80748e-11
3.58334e-11
3.36778e-15
-3.13736e-31
-1.73232e-13
-1.17292e-12
-3.73584e-12
-9.18737e-12
-1.91039e-11
-3.46326e-11
-5.55993e-11
-7.91271e-11
-9.85055e-11
-1.05168e-10
-9.44722e-11
-7.0319e-11
-4.28791e-11
-2.12376e-11
-8.48134e-12
-2.70932e-12
-6.84699e-13
-1.34763e-13
-2.02729e-14
-2.28828e-15
-1.91141e-16
-1.17109e-17
-5.23611e-19
-1.70312e-20
-4.01895e-22
-6.8606e-24
-8.44047e-26
-7.46425e-28
-4.72088e-30
-2.10882e-32
-6.51862e-35
-1.35279e-37
-1.81824e-40
-1.50305e-43
-7.12044e-47
-1.76122e-50
-2.02549e-54
-8.56561e-59
-8.2465e-64
2.15207e-11
7.3211e-11
6.60979e-11
7.58226e-11
9.4539e-11
4.80124e-11
6.01326e-14
-6.64663e-35
-8.51043e-13
-3.53784e-12
-9.56066e-12
-2.12326e-11
-4.07077e-11
-6.87199e-11
-1.02901e-10
-1.35797e-10
-1.55248e-10
-1.50678e-10
-1.21971e-10
-8.12475e-11
-4.41062e-11
-1.9368e-11
-6.83136e-12
-1.91887e-12
-4.24186e-13
-7.26865e-14
-9.50478e-15
-9.35321e-16
-6.85623e-17
-3.71779e-18
-1.48543e-19
-4.36373e-21
-9.39456e-23
-1.47983e-24
-1.70366e-26
-1.42537e-28
-8.56789e-31
-3.63494e-33
-1.06193e-35
-2.0725e-38
-2.60237e-41
-2.00202e-44
-8.73901e-48
-2.01372e-51
-2.12387e-55
-8.72199e-60
-8.35124e-65
4.00738e-11
6.00441e-11
6.06769e-11
5.10179e-11
7.9326e-11
3.80512e-11
-9.40148e-29
-4.28007e-37
-3.10659e-12
-1.03097e-11
-2.49184e-11
-5.06467e-11
-8.965e-11
-1.40064e-10
-1.93168e-10
-2.32242e-10
-2.3869e-10
-2.05665e-10
-1.4629e-10
-8.49734e-11
-3.99972e-11
-1.51581e-11
-4.59153e-12
-1.10138e-12
-2.06697e-13
-2.9937e-14
-3.3047e-15
-2.75196e-16
-1.71778e-17
-8.00397e-19
-2.77393e-20
-7.14651e-22
-1.36641e-23
-1.93509e-25
-2.01669e-27
-1.53004e-29
-8.33119e-32
-3.19095e-34
-8.38658e-37
-1.47246e-39
-1.66419e-42
-1.13994e-45
-4.46507e-49
-9.10513e-53
-8.55094e-57
-3.21004e-61
-3.26615e-66
4.33874e-11
4.33874e-11
5.37147e-11
3.48885e-10
1.70146e-10
2.14035e-14
-6.50797e-31
-2.30671e-12
-1.15858e-11
-3.18036e-11
-6.89051e-11
-1.27499e-10
-2.0619e-10
-2.93203e-10
-3.63905e-10
-3.87355e-10
-3.4648e-10
-2.56013e-10
-1.54414e-10
-7.54627e-11
-2.97157e-11
-9.37003e-12
-2.34607e-12
-4.61458e-13
-7.04627e-14
-8.26401e-15
-7.37582e-16
-4.97975e-17
-2.53402e-18
-9.69712e-20
-2.78766e-21
-6.01411e-23
-9.69659e-25
-1.16141e-26
-1.02469e-28
-6.58151e-31
-3.03164e-33
-9.8275e-36
-2.19125e-38
-3.27029e-41
-3.11213e-44
-1.8044e-47
-5.94943e-51
-1.01123e-54
-8.27315e-59
-2.69046e-63
-2.75162e-68
4.33874e-11
2.81343e-10
2.18197e-09
1.13387e-09
5.25074e-12
-4.63039e-18
-2.10492e-36
-1.26469e-11
-4.58774e-11
-1.08443e-10
-2.08501e-10
-3.44805e-10
-4.96875e-10
-6.22213e-10
-6.66745e-10
-5.98735e-10
-4.42452e-10
-2.65889e-10
-1.29081e-10
-5.04122e-11
-1.57523e-11
-3.90498e-12
-7.59962e-13
-1.1485e-13
-1.33515e-14
-1.18567e-15
-8.01094e-17
-4.10635e-18
-1.59494e-19
-4.68473e-21
-1.03889e-22
-1.7352e-24
-2.17168e-26
-2.02394e-28
-1.39296e-30
-6.99978e-33
-2.52899e-35
-6.45099e-38
-1.13182e-40
-1.32491e-43
-1.00086e-46
-4.62386e-50
-1.21486e-53
-1.71906e-57
-1.20692e-61
-3.70214e-66
-3.8806e-71
4.33874e-11
1.57242e-08
8.59656e-09
1.45205e-10
1.05384e-13
-6.48067e-21
-9.37471e-12
-7.37621e-11
-2.11877e-10
-4.25532e-10
-7.03258e-10
-1.00034e-09
-1.22242e-09
-1.26173e-09
-1.07729e-09
-7.47835e-10
-4.18201e-10
-1.87798e-10
-6.75059e-11
-1.92829e-11
-4.32966e-12
-7.55587e-13
-1.01507e-13
-1.04314e-14
-8.17006e-16
-4.8688e-17
-2.2078e-18
-7.61585e-20
-1.99854e-21
-3.98713e-23
-6.04282e-25
-6.93986e-27
-6.01087e-29
-3.90469e-31
-1.89092e-33
-6.76234e-36
-1.76787e-38
-3.34519e-41
-4.55324e-44
-4.37015e-47
-2.86485e-50
-1.2141e-53
-3.10457e-57
-4.55803e-61
-3.37149e-65
-1.17913e-69
-1.26118e-74
5.83277e-11
2.64623e-08
4.90746e-09
2.609e-13
-8.98532e-21
-3.19392e-13
-1.47147e-10
-5.91639e-10
-1.3335e-09
-2.10494e-09
-2.69124e-09
-2.93532e-09
-2.65771e-09
-1.92071e-09
-1.09212e-09
-4.89218e-10
-1.72525e-10
-4.7475e-11
-1.00722e-11
-1.63334e-12
-2.01807e-13
-1.9033e-14
-1.3777e-15
-7.71417e-17
-3.37137e-18
-1.15983e-19
-3.16279e-21
-6.8579e-23
-1.1829e-24
-1.61883e-26
-1.74881e-28
-1.48304e-30
-9.81233e-33
-5.03729e-35
-1.99711e-37
-6.08082e-40
-1.41523e-42
-2.4839e-45
-3.22836e-48
-3.04806e-51
-1.99979e-54
-8.63618e-58
-2.35366e-61
-3.63406e-65
-3.05235e-69
-1.18469e-73
-1.13522e-78
2.07239e-10
1.42935e-08
1.53507e-09
6.28135e-15
-3.56956e-20
-2.88926e-10
-2.06792e-09
-6.85354e-09
-1.19443e-08
-1.17885e-08
-7.20885e-09
-2.95489e-09
-8.61485e-10
-1.87686e-10
-3.27553e-11
-5.18225e-12
-8.44955e-13
-1.39304e-13
-2.03662e-14
-2.39862e-15
-2.18962e-16
-1.53363e-17
-8.25342e-19
-3.43294e-20
-1.11234e-21
-2.83083e-23
-5.70282e-25
-9.14209e-27
-1.17002e-28
-1.19625e-30
-9.75891e-33
-6.34754e-35
-3.28918e-37
-1.35746e-39
-4.47039e-42
-1.17406e-44
-2.45062e-47
-4.01507e-50
-5.04369e-53
-4.72988e-56
-3.16144e-59
-1.45454e-62
-4.20593e-66
-7.03282e-70
-6.52888e-74
-2.57809e-78
-1.82634e-83
2.47778e-35
3.68812e-35
4.58959e-37
2.00657e-46
2.98388e-50
2.51258e-54
9.50732e-59
5.65817e-61
1.00156e-60
3.56947e-23
2.1001e-31
1.71044e-34
8.65635e-36
4.06053e-41
1.38051e-44
1.87321e-46
4.18844e-50
5.45596e-54
1.57103e-60
6.89715e-62
1.28048e-61
3.14452e-16
1.36716e-15
5.58442e-16
1.09692e-16
1.12459e-16
1.28056e-16
1.28158e-16
1.32366e-16
1.94702e-14
2.63675e-14
2.48209e-14
1.58301e-14
1.09816e-14
1.1619e-14
1.12499e-14
6.29081e-15
6.39344e-15
7.09493e-15
3.61105e-15
1.98137e-15
3.26653e-15
3.30559e-15
3.1981e-15
2.01102e-15
2.00783e-15
1.98683e-15
3.73016e-16
5.03879e-22
1.32356e-22
3.20172e-27
9.76161e-29
1.91269e-20
1.82355e-21
1.59677e-29
1.38735e-32
1.04677e-35
1.59469e-38
1.76288e-40
4.6335e-44
1.1603e-47
2.2209e-51
2.56283e-55
1.03432e-61
5.22479e-63
1.10339e-62
4.55853e-16
4.23359e-16
1.09692e-16
1.09692e-16
1.21828e-16
1.21751e-16
5.33229e-16
1.32194e-14
2.63675e-14
2.63675e-14
2.54136e-14
2.16831e-14
5.76724e-15
1.08351e-14
1.17466e-14
8.97307e-15
1.32167e-15
2.1755e-15
1.37308e-15
1.21086e-15
2.82377e-15
3.30571e-15
3.30349e-15
2.94742e-15
2.19298e-15
1.88558e-15
1.36473e-16
2.2644e-21
3.39494e-21
3.55698e-19
5.18855e-19
6.06908e-20
7.78474e-28
8.0354e-31
7.90816e-34
1.94013e-35
4.28334e-39
6.31635e-42
2.34373e-45
5.89306e-49
9.67344e-53
1.96603e-56
5.22448e-63
2.98828e-64
5.94803e-64
4.23215e-16
4.88729e-17
1.15201e-16
2.0281e-16
5.13121e-16
3.74332e-16
1.02829e-15
2.45497e-14
2.63675e-14
2.63675e-14
2.55858e-14
6.83958e-15
1.19547e-15
1.97718e-15
1.14711e-14
9.81522e-15
1.20272e-15
1.02014e-15
1.04201e-15
1.05475e-15
2.60931e-15
3.30582e-15
3.30582e-15
2.99554e-15
2.10537e-15
1.32252e-15
1.4362e-18
3.95656e-21
3.4042e-21
4.95304e-18
1.61469e-18
3.57679e-26
4.21155e-29
4.81612e-32
4.51162e-35
2.4157e-37
1.89942e-41
8.29671e-45
7.73865e-48
5.59881e-48
4.04431e-54
7.78829e-54
1.15532e-59
1.57339e-66
2.70044e-66
3.68807e-17
4.89016e-17
5.4322e-17
4.93402e-16
5.80639e-16
5.74523e-16
6.94026e-16
3.66381e-15
2.56004e-14
2.63675e-14
2.55691e-14
6.7697e-15
1.21133e-15
1.24293e-15
3.16748e-15
3.04289e-15
1.29345e-15
9.34117e-16
9.22307e-16
9.1481e-16
1.92187e-15
3.30455e-15
3.30582e-15
1.61882e-15
1.02491e-15
1.24103e-15
8.88181e-16
5.10755e-17
3.95656e-21
5.0629e-18
1.46766e-18
1.22894e-26
2.04161e-29
2.79186e-32
1.42008e-34
2.90341e-37
1.6741e-41
7.20944e-45
2.25975e-48
4.86673e-52
6.62904e-56
5.06739e-60
1.69871e-64
2.92345e-67
1.06914e-66
3.68807e-17
3.93267e-17
3.93764e-17
4.71834e-16
5.80639e-16
5.43546e-16
2.84587e-16
2.52094e-16
5.24332e-15
2.57518e-14
2.60861e-14
1.97491e-14
1.3002e-15
1.37868e-15
1.48557e-15
1.39705e-15
1.29268e-15
3.09185e-15
3.58963e-15
2.48413e-15
2.40696e-16
2.23995e-15
2.66747e-15
1.27099e-15
1.02432e-15
1.37081e-15
1.72893e-15
1.63512e-15
1.72282e-16
6.30521e-24
1.22894e-26
2.05099e-29
1.21721e-31
3.1387e-35
2.8776e-38
1.35744e-40
1.1487e-44
4.85242e-48
1.48549e-51
3.16522e-55
2.0347e-57
3.80364e-57
2.78156e-63
1.39964e-67
1.44887e-67
3.68807e-17
3.68807e-17
6.3848e-17
1.50864e-16
5.1683e-16
4.27638e-16
1.71143e-16
2.1146e-16
2.89508e-16
6.06935e-15
2.42458e-14
1.85201e-14
1.30967e-15
1.47596e-15
1.48095e-15
1.30712e-15
5.21718e-15
1.59596e-14
1.47087e-14
4.73976e-15
-8.84006e-36
1.09338e-15
1.13851e-15
1.02297e-15
1.02324e-15
1.58437e-15
1.81189e-15
1.79667e-15
4.15629e-16
1.91509e-23
3.10894e-26
5.09905e-29
6.87513e-32
7.60653e-35
6.82103e-38
4.82063e-41
2.65014e-44
1.09841e-47
3.29351e-51
6.76881e-55
8.83531e-59
6.32712e-63
3.2574e-67
1.26452e-67
1.42039e-67
3.68807e-17
1.06724e-16
1.51842e-16
1.40378e-16
7.07751e-17
4.98005e-16
1.05751e-14
2.42046e-15
2.9155e-16
5.71002e-16
2.32117e-15
1.52197e-15
1.19081e-15
1.16508e-15
9.76362e-16
9.79568e-16
1.50175e-14
1.63892e-14
1.50379e-14
1.36688e-15
1.23194e-36
9.6942e-16
9.88228e-16
9.76464e-16
1.42568e-15
2.03186e-15
1.84339e-15
9.72325e-16
1.5966e-19
1.12386e-25
2.16429e-28
3.53849e-31
1.28735e-33
5.16826e-37
4.58479e-40
1.23376e-42
1.70708e-46
6.91495e-50
2.02443e-53
4.05271e-57
5.13694e-61
3.60245e-65
1.26452e-67
1.3271e-67
1.11334e-67
9.79674e-16
2.75385e-16
1.2865e-16
9.70534e-17
4.36266e-17
9.94778e-17
4.75826e-14
7.24889e-14
1.24302e-14
5.28505e-16
5.2706e-16
6.12819e-16
1.21592e-15
6.05354e-16
6.08164e-16
8.50549e-15
1.63418e-14
1.43232e-14
2.05943e-15
-3.0773e-36
1.13491e-16
6.14384e-16
8.87148e-16
1.71717e-15
2.92453e-15
2.14046e-15
1.55145e-15
6.90965e-16
4.4301e-23
6.11631e-26
1.23675e-28
2.69921e-30
8.18315e-33
6.43075e-36
6.80954e-39
6.624e-42
1.52662e-45
1.00331e-48
2.86094e-52
2.53241e-56
2.79053e-61
2.10485e-65
1.33442e-66
2.65378e-66
2.94637e-68
4.83537e-15
3.98102e-17
4.10744e-17
4.75227e-17
4.3112e-17
3.73146e-17
4.10671e-14
8.68545e-14
9.22053e-14
9.49257e-15
5.22685e-16
5.71958e-16
5.80387e-16
5.81331e-16
7.64279e-15
2.84816e-14
1.74709e-14
3.99598e-16
-7.45299e-34
3.01827e-17
2.65127e-16
2.42542e-17
1.02661e-15
3.17749e-15
2.99868e-15
1.4839e-15
1.48265e-15
1.22795e-15
6.9187e-18
3.19682e-25
5.93952e-28
9.30854e-31
1.19265e-33
1.24621e-36
1.04959e-39
6.88875e-43
3.49939e-46
1.33132e-49
3.64661e-53
6.78485e-57
7.93495e-61
5.03851e-65
8.98285e-69
1.09142e-68
9.39661e-69
1.50002e-15
3.86058e-17
3.86383e-17
3.8514e-17
3.7395e-17
3.73146e-17
3.73146e-17
3.90852e-14
1.11827e-13
8.89302e-14
1.76114e-15
5.17983e-16
5.34531e-16
6.45502e-15
5.83163e-14
5.2688e-14
6.00799e-15
7.76234e-34
1.76433e-17
3.88658e-15
4.66348e-15
3.69734e-15
3.28615e-15
3.17887e-15
1.73262e-15
1.45121e-15
1.48823e-15
1.2725e-15
1.29664e-17
5.3309e-25
9.77189e-28
1.50647e-30
1.8943e-33
1.93835e-36
1.59475e-39
1.02015e-42
5.04353e-46
1.87011e-49
4.97076e-53
8.9372e-57
1.00512e-60
6.09836e-65
2.48635e-69
7.26232e-70
1.74821e-69
1.08071e-16
3.35039e-17
3.74557e-17
3.74299e-17
3.73751e-17
3.73146e-17
1.08831e-14
1.61991e-13
1.57693e-13
1.17213e-13
1.36406e-15
5.34531e-16
1.55802e-15
6.72219e-14
6.56804e-14
5.24469e-14
2.53935e-15
-1.50314e-37
4.04095e-15
4.94322e-15
4.94322e-15
4.88692e-15
3.73874e-15
2.64512e-15
1.48632e-15
1.48622e-15
1.51166e-15
1.20423e-15
2.5213e-18
1.39229e-25
2.52383e-28
3.83955e-31
4.74941e-34
4.76798e-37
3.83918e-40
2.39591e-43
1.15142e-46
4.13823e-50
1.06377e-53
1.84307e-57
1.98879e-61
1.1506e-65
6.53528e-70
3.38407e-70
5.4769e-70
2.85548e-17
1.90301e-15
3.76454e-17
3.74323e-17
3.73494e-17
3.73146e-17
5.00325e-14
2.38005e-13
2.39837e-13
1.81027e-13
2.41113e-14
3.5815e-14
1.06472e-13
8.63727e-14
5.07616e-14
1.84471e-15
2.94459e-33
4.09494e-15
4.61747e-15
3.89678e-15
1.33923e-15
-1.52996e-17
3.45825e-15
2.85864e-15
1.49233e-15
1.64904e-15
1.682e-15
5.97607e-16
3.50912e-23
6.18042e-26
1.0893e-28
1.60836e-31
1.92821e-34
1.8749e-37
1.46013e-40
8.79196e-44
4.06525e-47
1.39852e-50
3.42287e-54
5.64365e-58
5.78476e-62
3.15565e-66
3.03309e-70
2.28899e-70
2.35578e-70
6.38633e-16
4.60928e-15
1.68564e-15
3.76454e-17
3.74323e-17
2.58864e-16
2.65035e-14
2.12165e-13
2.40148e-13
2.25157e-13
2.19103e-13
2.02456e-13
1.56346e-13
2.20123e-14
4.50689e-35
-1.46048e-33
4.84242e-15
5.24083e-15
2.55017e-15
-1.91628e-15
-3.77729e-15
-2.54199e-15
-8.81891e-17
2.82568e-15
1.85342e-15
1.68268e-15
1.69326e-15
5.30067e-16
2.81009e-23
5.20593e-26
8.97834e-29
1.29317e-31
1.50813e-34
1.41816e-37
1.06217e-40
6.14355e-44
2.7241e-47
8.97657e-51
2.09445e-54
3.26805e-58
3.16321e-62
1.6165e-66
2.54156e-70
2.18619e-70
2.22219e-70
1.14891e-15
7.25875e-16
7.17414e-15
3.82377e-16
8.27786e-16
8.86702e-16
9.40533e-16
1.22214e-14
1.87197e-13
2.45733e-13
2.44051e-13
2.18922e-13
3.10022e-14
1.53839e-35
-2.69249e-35
4.60314e-16
7.56763e-15
4.09028e-15
-5.23407e-15
-1.32035e-14
-1.40635e-14
-9.06702e-15
-3.24503e-15
5.41597e-16
1.85149e-15
1.73314e-15
1.66171e-15
6.39118e-16
3.46684e-23
5.95957e-26
9.92077e-29
1.37691e-31
1.54472e-34
1.39926e-37
1.01079e-40
5.61966e-44
2.3858e-47
7.49997e-51
1.66151e-54
2.44941e-58
2.22525e-62
1.05736e-66
2.33597e-70
2.09752e-70
2.15017e-70
8.25525e-17
3.32009e-16
2.73748e-15
2.13593e-15
4.36022e-15
8.87009e-16
1.0228e-15
1.02659e-15
3.00892e-14
2.41969e-13
2.44005e-13
4.51372e-14
1.31751e-19
-2.32522e-35
-7.53416e-38
7.47019e-15
7.56763e-15
-3.67373e-15
-2.21222e-14
-3.45976e-14
-3.32859e-14
-2.19249e-14
-9.74395e-15
-2.28913e-15
1.36166e-15
1.69929e-15
1.65181e-15
9.07479e-16
2.26818e-19
7.87782e-26
1.27292e-28
1.70961e-31
1.85122e-34
1.61243e-37
1.11526e-40
5.9208e-44
2.39125e-47
7.12275e-51
1.49427e-54
2.07833e-58
1.7564e-62
7.67674e-67
2.13561e-70
1.97578e-70
2.06835e-70
6.1022e-16
3.44372e-16
3.78046e-16
7.04332e-16
9.91853e-16
8.94227e-16
9.65055e-16
3.5956e-14
2.49159e-13
2.71496e-13
8.4265e-14
3.68365e-18
-1.18461e-36
-1.82598e-36
-3.54862e-40
8.35783e-15
2.3505e-15
-2.15999e-14
-5.32953e-14
-7.18299e-14
-6.61877e-14
-4.39809e-14
-2.09899e-14