/*--------------------------------*- C++ -*----------------------------------*\
| =========                 |                                                 |
| \\      /  F ield         | OpenFOAM: The Open Source CFD Toolbox           |
|  \\    /   O peration     | Version:  v2012                                 |
|   \\  /    A nd           | Website:  www.openfoam.com                      |
|    \\/     M anipulation  |                                                 |
\*---------------------------------------------------------------------------*/
FoamFile
{
    version     2.0;
    format      ascii;
    class       volVectorField;
    location    "0.55";
    object      U;
}
// * * * * * * * * * * * * * * * * * * * * * * * * * * * * * * * * * * * * * //

dimensions      [0 1 -1 0 0 0 0];


internalField   nonuniform List<vector> 
3326
(
(0.00438756 -0.00646869 -3.83119e-05)
(0.00350822 -0.00560691 -3.06352e-05)
(0.00271485 -0.00478941 -2.3709e-05)
(0.00200926 -0.00400706 -1.75489e-05)
(0.00139473 -0.00324867 -1.21835e-05)
(0.000875576 -0.00249914 -7.65045e-06)
(0.000461811 -0.00174225 -4.03698e-06)
(0.000163491 -0.000984104 -1.432e-06)
(7.55896e-06 -0.000306425 -9.04814e-08)
(0.00753641 -0.00908328 -6.58003e-05)
(0.00639602 -0.00805516 -5.5845e-05)
(0.00534064 -0.00710107 -4.66319e-05)
(0.00437173 -0.0062105 -3.8173e-05)
(0.00349023 -0.00537373 -3.04776e-05)
(0.00269707 -0.00458171 -2.35532e-05)
(0.00199332 -0.00382535 -1.74093e-05)
(0.00138186 -0.00309383 -1.20708e-05)
(0.000866358 -0.00237269 -7.56975e-06)
(0.000456352 -0.00164677 -3.98918e-06)
(0.000161314 -0.000923263 -1.41289e-06)
(7.47211e-06 -0.000284113 -8.93195e-08)
(0.0241671 -0.0815875 -0.000210918)
(0.0262782 -0.0821138 -0.000229347)
(0.0282966 -0.0821317 -0.000246962)
(0.0301867 -0.081657 -0.000263463)
(0.0319165 -0.080714 -0.000278559)
(0.0334632 -0.0793299 -0.000292063)
(0.0348002 -0.0775369 -0.000303733)
(0.0359076 -0.0753717 -0.000313403)
(0.0367679 -0.0728749 -0.000320913)
(0.0373702 -0.0700909 -0.000326174)
(0.0377068 -0.067066 -0.000329114)
(0.0377776 -0.0638488 -0.000329736)
(0.0375852 -0.0604874 -0.000328059)
(0.0371402 -0.0570302 -0.000324179)
(0.0364549 -0.0535227 -0.000318201)
(0.0355487 -0.0500089 -0.000310294)
(0.0344417 -0.0465277 -0.000300633)
(0.0331589 -0.0431151 -0.000289439)
(0.031725 -0.039801 -0.000276926)
(0.0301679 -0.0366113 -0.000263336)
(0.0285131 -0.0335657 -0.000248895)
(0.0267881 -0.0306797 -0.000233839)
(0.0250166 -0.0279631 -0.000218378)
(0.0232231 -0.025422 -0.000202723)
(0.0214279 -0.0230579 -0.000187055)
(0.0196506 -0.0208694 -0.000171542)
(0.0179068 -0.0188515 -0.000156323)
(0.0162109 -0.0169975 -0.000141521)
(0.0145739 -0.0152984 -0.000127232)
(0.0130057 -0.0137444 -0.000113543)
(0.0115127 -0.0123241 -0.000100511)
(0.0101008 -0.011026 -8.81859e-05)
(0.00877348 -0.009838 -7.65992e-05)
(0.00753349 -0.00874817 -6.57737e-05)
(0.00638208 -0.00774471 -5.57225e-05)
(0.00532003 -0.00681598 -4.64513e-05)
(0.00434773 -0.00595105 -3.79633e-05)
(0.00346569 -0.0051402 -3.02633e-05)
(0.00267405 -0.00437429 -2.33522e-05)
(0.00197347 -0.00364439 -1.72359e-05)
(0.00136615 -0.00294001 -1.19336e-05)
(0.000855324 -0.00224737 -7.47332e-06)
(0.000449863 -0.00155234 -3.93244e-06)
(0.000158753 -0.000863233 -1.39046e-06)
(7.35898e-06 -0.000262144 -8.78656e-08)
(0.0264616 -0.0864579 -0.000230948)
(0.0287064 -0.0868079 -0.000250538)
(0.0308343 -0.0866094 -0.000269114)
(0.0328097 -0.0858836 -0.000286354)
(0.0345978 -0.0846589 -0.000301965)
(0.0361741 -0.0829685 -0.000315723)
(0.0375126 -0.0808512 -0.00032741)
(0.0385919 -0.0783497 -0.000336832)
(0.0393973 -0.0755116 -0.000343866)
(0.0399176 -0.0723868 -0.000348409)
(0.0401498 -0.0690285 -0.000350441)
(0.0400943 -0.0654894 -0.000349958)
(0.0397599 -0.0618234 -0.000347044)
(0.0391581 -0.0580817 -0.000341794)
(0.0383082 -0.054314 -0.00033438)
(0.0372305 -0.0505649 -0.000324976)
(0.0359517 -0.046876 -0.000313816)
(0.0344977 -0.0432822 -0.000301128)
(0.0328988 -0.0398143 -0.000287174)
(0.031183 -0.036496 -0.000272199)
(0.0293804 -0.0333463 -0.000256467)
(0.0275176 -0.030378 -0.000240208)
(0.0256216 -0.0275994 -0.000223661)
(0.0237154 -0.0250135 -0.000207023)
(0.0218215 -0.0226203 -0.000190492)
(0.0199574 -0.0204152 -0.000174221)
(0.0181397 -0.0183917 -0.000158355)
(0.0163809 -0.0165406 -0.000143003)
(0.0146921 -0.0148516 -0.000128262)
(0.0130814 -0.0133129 -0.000114202)
(0.0115549 -0.011912 -0.000100878)
(0.0101168 -0.0106361 -8.83246e-05)
(0.00877025 -0.00947245 -7.65701e-05)
(0.00751645 -0.00840818 -6.56248e-05)
(0.00635625 -0.00743105 -5.54969e-05)
(0.00528926 -0.00652895 -4.61826e-05)
(0.00431546 -0.00569081 -3.76816e-05)
(0.00343438 -0.00490669 -2.99899e-05)
(0.00264578 -0.00416752 -2.31054e-05)
(0.0019496 -0.00346448 -1.70275e-05)
(0.00134762 -0.00278748 -1.17717e-05)
(0.000842419 -0.00212339 -7.36057e-06)
(0.000442357 -0.00145914 -3.86683e-06)
(0.000155791 -0.000804124 -1.3645e-06)
(7.22336e-06 -0.000240554 -8.61594e-08)
(0.0290071 -0.0917233 -0.000253161)
(0.0313902 -0.0918601 -0.000273965)
(0.0336296 -0.0914057 -0.000293509)
(0.0356888 -0.0903876 -0.000311486)
(0.0375289 -0.0888386 -0.000327546)
(0.0391252 -0.0868003 -0.000341485)
(0.0404505 -0.0843176 -0.000353052)
(0.0414859 -0.0814415 -0.000362094)
(0.0422159 -0.0782257 -0.000368468)
(0.0426343 -0.0747283 -0.000372125)
(0.0427385 -0.0710072 -0.000373037)
(0.0425355 -0.0671225 -0.000371269)
(0.0420351 -0.0631313 -0.000366905)
(0.0412565 -0.05909 -0.000360113)
(0.0402201 -0.0550496 -0.000351071)
(0.0389539 -0.0510582 -0.000340022)
(0.0374855 -0.0471563 -0.000327206)
(0.0358474 -0.0433804 -0.000312912)
(0.0340703 -0.0397589 -0.000297401)
(0.0321873 -0.0363152 -0.000280968)
(0.0302282 -0.0330651 -0.000263869)
(0.0282232 -0.03002 -0.000246369)
(0.026198 -0.0271847 -0.000228693)
(0.024178 -0.0245603 -0.000211062)
(0.0221835 -0.0221434 -0.000193653)
(0.0202335 -0.0199277 -0.000176633)
(0.0183423 -0.0179038 -0.000160124)
(0.0165227 -0.0160607 -0.000144242)
(0.0147837 -0.0143859 -0.000129062)
(0.0131331 -0.0128665 -0.000114654)
(0.0115753 -0.0114883 -0.000101056)
(0.0101138 -0.0102376 -8.8298e-05)
(0.00875007 -0.00910059 -7.63939e-05)
(0.00748499 -0.00806393 -6.53504e-05)
(0.00631799 -0.0071147 -5.5163e-05)
(0.00524825 -0.00624058 -4.58246e-05)
(0.00427464 -0.00543021 -3.73253e-05)
(0.00339629 -0.00467364 -2.96574e-05)
(0.00261214 -0.00396176 -2.28117e-05)
(0.00192175 -0.00328598 -1.67843e-05)
(0.00132621 -0.00263652 -1.15847e-05)
(0.000827667 -0.00200101 -7.2317e-06)
(0.000433803 -0.00136736 -3.79207e-06)
(0.000152438 -0.000746073 -1.33513e-06)
(7.05933e-06 -0.000219397 -8.41399e-08)
(0.0318449 -0.0974123 -0.000277934)
(0.0343694 -0.0972944 -0.000299965)
(0.0367177 -0.0965387 -0.000320466)
(0.0388536 -0.0951804 -0.000339107)
(0.0407363 -0.0932601 -0.000355545)
(0.0423376 -0.0908268 -0.000369522)
(0.0436331 -0.0879342 -0.000380835)
(0.0446027 -0.0846406 -0.000389299)
(0.0452357 -0.081009 -0.00039483)
(0.0455262 -0.0771034 -0.000397368)
(0.0454785 -0.0729905 -0.000396957)
(0.0451008 -0.0687342 -0.000393663)
(0.0444113 -0.0643984 -0.000387649)
(0.0434305 -0.0600414 -0.000379091)
(0.0421874 -0.0557183 -0.000368246)
(0.0407114 -0.0514769 -0.000355365)
(0.0390376 -0.0473597 -0.000340758)
(0.0371993 -0.0434008 -0.000324715)
(0.0352334 -0.0396286 -0.000307557)
(0.0331725 -0.0360629 -0.00028957)
(0.0310509 -0.0327183 -0.000271053)
(0.0288976 -0.0296021 -0.000252259)
(0.0267412 -0.0267171 -0.000233437)
(0.0246048 -0.0240605 -0.000214789)
(0.0225105 -0.0216269 -0.000196509)
(0.0204747 -0.0194065 -0.000178739)
(0.0185122 -0.017388 -0.000161609)
(0.0166334 -0.015558 -0.000145209)
(0.0148472 -0.0139022 -0.000129617)
(0.0131591 -0.0124059 -0.000114881)
(0.011573 -0.0110539 -0.000101036)
(0.0100904 -0.0098311 -8.80946e-05)
(0.00871256 -0.00872319 -7.60667e-05)
(0.00743846 -0.007716 -6.49444e-05)
(0.00626717 -0.00679631 -5.47195e-05)
(0.00519662 -0.00595138 -4.5374e-05)
(0.00422526 -0.0051698 -3.68943e-05)
(0.00335125 -0.00444148 -2.92642e-05)
(0.00257316 -0.00375743 -2.24713e-05)
(0.00188983 -0.0031092 -1.65055e-05)
(0.00130195 -0.00248745 -1.13728e-05)
(0.000811032 -0.00188046 -7.08638e-06)
(0.000424224 -0.0012772 -3.70836e-06)
(0.000148678 -0.000689212 -1.3022e-06)
(6.87243e-06 -0.000198727 -8.18622e-08)
(0.0349985 -0.10356 -0.000305454)
(0.037669 -0.103138 -0.000328768)
(0.0401255 -0.102028 -0.000350207)
(0.0423317 -0.100276 -0.000369468)
(0.0442434 -0.0979303 -0.000386154)
(0.0458339 -0.0950497 -0.000400043)
(0.0470772 -0.0916965 -0.000410896)
(0.047958 -0.0879396 -0.00041859)
(0.0484657 -0.0838494 -0.000423023)
(0.0486015 -0.0794997 -0.000424215)
(0.0483712 -0.0749625 -0.000422208)
(0.0477919 -0.0703099 -0.000417156)
(0.0468837 -0.0656086 -0.000409233)
(0.0456768 -0.0609221 -0.000398703)
(0.0442018 -0.0563058 -0.000385832)
(0.0424969 -0.05181 -0.000370954)
(0.0405983 -0.0474751 -0.000354383)
(0.0385466 -0.0433354 -0.000336477)
(0.0363783 -0.0394155 -0.000317553)
(0.0341319 -0.0357341 -0.000297947)
(0.03184 -0.0323012 -0.000277943)
(0.0295354 -0.0291217 -0.000257828)
(0.0272443 -0.0261942 -0.00023783)
(0.0249919 -0.0235134 -0.00021817)
(0.0227974 -0.0210699 -0.000199015)
(0.0206781 -0.0188518 -0.000180516)
(0.0186459 -0.0168446 -0.000162777)
(0.0167113 -0.0150331 -0.00014589)
(0.0148803 -0.0134009 -0.000129906)
(0.0131582 -0.0119319 -0.000114874)
(0.0115465 -0.0106093 -0.000100805)
(0.0100464 -0.00941746 -8.77104e-05)
(0.00865689 -0.00834093 -7.5581e-05)
(0.0073767 -0.00736519 -6.44054e-05)
(0.00620336 -0.00647648 -5.41626e-05)
(0.0051344 -0.00566198 -4.48309e-05)
(0.00416712 -0.00491007 -3.63868e-05)
(0.00329933 -0.00421069 -2.88109e-05)
(0.00252875 -0.00355491 -2.20836e-05)
(0.0018539 -0.00293452 -1.61918e-05)
(0.00127481 -0.00234055 -1.11358e-05)
(0.000792559 -0.00176201 -6.92501e-06)
(0.000413602 -0.00118886 -3.61552e-06)
(0.000144528 -0.000633682 -1.26585e-06)
(6.65663e-06 -0.000178602 -7.92667e-08)
(0.038522 -0.110199 -0.000336212)
(0.0413365 -0.109415 -0.000360775)
(0.0438951 -0.107893 -0.000383113)
(0.046158 -0.105685 -0.000402863)
(0.0480823 -0.102854 -0.000419666)
(0.0496381 -0.0994663 -0.000433246)
(0.0508043 -0.0955979 -0.000443432)
(0.051565 -0.0913261 -0.000450074)
(0.0519173 -0.086733 -0.000453156)
(0.0518638 -0.0818992 -0.000452691)
(0.0514199 -0.0769065 -0.000448822)
(0.0506049 -0.0718307 -0.000441712)
(0.0494498 -0.0667454 -0.000431635)
(0.0479867 -0.061715 -0.000418868)
(0.0462567 -0.0567983 -0.000403773)
(0.0442993 -0.0520436 -0.00038669)
(0.0421594 -0.0474922 -0.000368013)
(0.0398776 -0.0431743 -0.000348098)
(0.0374972 -0.0391133 -0.000327323)
(0.0350552 -0.0353227 -0.000306009)
(0.0325888 -0.0318103 -0.000284482)
(0.0301281 -0.0285757 -0.000263004)
(0.0277022 -0.0256148 -0.000241829)
(0.0253328 -0.0229177 -0.000221147)
(0.0230406 -0.0204725 -0.000201139)
(0.0208393 -0.0182635 -0.000181924)
(0.0187411 -0.0162742 -0.000163609)
(0.0167532 -0.0144867 -0.000146257)
(0.0148816 -0.012883 -0.000129919)
(0.0131286 -0.0114452 -0.000114617)
(0.0114953 -0.0101557 -0.000100359)
(0.00998053 -0.0089975 -8.71359e-05)
(0.00858284 -0.00795472 -7.49348e-05)
(0.00729915 -0.00701218 -6.37286e-05)
(0.00612657 -0.00615596 -5.34923e-05)
(0.00506131 -0.00537295 -4.41929e-05)
(0.00410032 -0.00465157 -3.58036e-05)
(0.00324041 -0.00398171 -2.82965e-05)
(0.00247902 -0.00335461 -2.16494e-05)
(0.00181395 -0.00276225 -1.58429e-05)
(0.00124486 -0.00219612 -1.08743e-05)
(0.000772232 -0.00164588 -6.74743e-06)
(0.000401973 -0.00110253 -3.51388e-06)
(0.000139976 -0.000579614 -1.22598e-06)
(6.41841e-06 -0.000159079 -7.64123e-08)
(0.042445 -0.117377 -0.000370449)
(0.0454045 -0.116162 -0.000396286)
(0.0480576 -0.114154 -0.000419442)
(0.0503644 -0.11142 -0.000439583)
(0.0522788 -0.108032 -0.000456294)
(0.053775 -0.104073 -0.00046936)
(0.054831 -0.0996272 -0.000478579)
(0.0554389 -0.0947863 -0.000483893)
(0.055597 -0.0896408 -0.000485276)
(0.0553187 -0.0842833 -0.000482853)
(0.0546217 -0.0788006 -0.000476773)
(0.0535377 -0.0732773 -0.000467317)
(0.0521001 -0.0677884 -0.000454773)
(0.0503531 -0.0624032 -0.000439529)
(0.0483395 -0.0571789 -0.000421957)
(0.0461092 -0.0521652 -0.000402492)
(0.0437074 -0.0473989 -0.00038153)
(0.041183 -0.0429093 -0.000359497)
(0.0385777 -0.0387141 -0.000336758)
(0.0359342 -0.0348242 -0.000313684)
(0.0332869 -0.0312413 -0.000290578)
(0.0306694 -0.0279622 -0.000267731)
(0.0281069 -0.0249771 -0.000245364)
(0.0256231 -0.0222733 -0.000223683)
(0.0232345 -0.0198345 -0.000202833)
(0.0209553 -0.0176424 -0.000182938)
(0.018794 -0.0156775 -0.000164072)
(0.0167577 -0.0139199 -0.000146297)
(0.0148489 -0.0123495 -0.000129634)
(0.0130696 -0.0109472 -0.000114102)
(0.0114181 -0.00969401 -9.96851e-05)
(0.00989262 -0.00857229 -8.63687e-05)
(0.00848973 -0.00756538 -7.41221e-05)
(0.00720582 -0.00665786 -6.2914e-05)
(0.00603646 -0.00583542 -5.27057e-05)
(0.00497749 -0.00508496 -4.34612e-05)
(0.00402472 -0.00439483 -3.51436e-05)
(0.00317466 -0.00375504 -2.77225e-05)
(0.00242394 -0.00315693 -2.11684e-05)
(0.00177008 -0.00259278 -1.54599e-05)
(0.00121211 -0.00205445 -1.05882e-05)
(0.000750121 -0.00153234 -6.55427e-06)
(0.000389329 -0.0010184 -3.40338e-06)
(0.000135043 -0.000527144 -1.18278e-06)
(6.15121e-06 -0.00014021 -7.32401e-08)
(0.0468407 -0.125122 -0.00040882)
(0.049935 -0.123398 -0.000435827)
(0.0526676 -0.120826 -0.000459685)
(0.0549936 -0.117485 -0.000479987)
(0.0568705 -0.113465 -0.000496377)
(0.0582705 -0.108859 -0.000508599)
(0.0591797 -0.10377 -0.000516543)
(0.0595909 -0.0982991 -0.000520136)
(0.0595142 -0.0925515 -0.000519473)
(0.0589654 -0.0866265 -0.000514687)
(0.0579762 -0.0806219 -0.000506059)
(0.056581 -0.0746249 -0.000493886)
(0.0548275 -0.0687171 -0.000478584)
(0.052762 -0.0629662 -0.000460559)
(0.0504396 -0.0574319 -0.000440293)
(0.0479111 -0.0521594 -0.000418225)
(0.0452314 -0.0471846 -0.000394836)
(0.042448 -0.0425304 -0.000370543)
(0.0396098 -0.0382118 -0.00034577)
(0.0367564 -0.0342328 -0.000320865)
(0.0339265 -0.0305916 -0.000296164)
(0.0311495 -0.0272786 -0.000271924)
(0.0284529 -0.0242807 -0.000248386)
(0.0258558 -0.0215797 -0.000225716)
(0.0233754 -0.0191566 -0.000204064)
(0.0210215 -0.0169892 -0.000183517)
(0.0188026 -0.0150558 -0.000164148)
(0.0167218 -0.0133338 -0.000145984)
(0.0147812 -0.0118018 -0.000129043)
(0.0129794 -0.0104389 -0.000113315)
(0.0113144 -0.00922548 -9.87802e-05)
(0.00978174 -0.00814281 -8.54011e-05)
(0.00837753 -0.00717396 -7.31429e-05)
(0.00709629 -0.00630303 -6.1958e-05)
(0.0059332 -0.00551567 -5.18044e-05)
(0.00488278 -0.00479865 -4.26344e-05)
(0.00394054 -0.00414044 -3.44087e-05)
(0.00310205 -0.00353114 -2.70885e-05)
(0.00236369 -0.00296229 -2.06423e-05)
(0.00172231 -0.00242641 -1.50427e-05)
(0.00117666 -0.00191583 -1.02786e-05)
(0.000726233 -0.00142161 -6.34557e-06)
(0.000375721 -0.000936663 -3.28445e-06)
(0.000129723 -0.000476397 -1.13618e-06)
(5.86169e-06 -0.00012205 -6.98112e-08)
(0.0517381 -0.133498 -0.000451562)
(0.0549642 -0.131167 -0.000479729)
(0.0577595 -0.127931 -0.000504127)
(0.0600812 -0.12389 -0.0005244)
(0.0618848 -0.119146 -0.000540145)
(0.0631506 -0.113813 -0.000551201)
(0.0638651 -0.108005 -0.000557442)
(0.0640341 -0.101841 -0.000558925)
(0.0636702 -0.0954362 -0.000555754)
(0.0628051 -0.0889021 -0.000548209)
(0.0614739 -0.0823411 -0.000536595)
(0.0597275 -0.0758488 -0.000521355)
(0.0576161 -0.069506 -0.000502931)
(0.0552011 -0.0633841 -0.000481855)
(0.0525387 -0.057538 -0.000458621)
(0.0496915 -0.0520124 -0.00043377)
(0.0467135 -0.0468363 -0.000407778)
(0.0436606 -0.0420295 -0.000381131)
(0.0405785 -0.037599 -0.00035423)
(0.0375122 -0.0335449 -0.000327465)
(0.0344959 -0.0298579 -0.000301137)
(0.0315616 -0.0265243 -0.000275524)
(0.0287318 -0.0235247 -0.000250822)
(0.0260264 -0.0208378 -0.000227207)
(0.0234576 -0.0184395 -0.000204784)
(0.0210353 -0.0163054 -0.000183639)
(0.0187633 -0.0144102 -0.000163806)
(0.0166442 -0.01273 -0.000145307)
(0.0146763 -0.0112411 -0.000128128)
(0.0128576 -0.00992191 -0.000112253)
(0.0111831 -0.00875129 -9.76348e-05)
(0.0096479 -0.00771032 -8.42329e-05)
(0.00824574 -0.00678144 -7.19926e-05)
(0.00697078 -0.00594866 -6.08624e-05)
(0.00581662 -0.00519744 -5.07867e-05)
(0.00477747 -0.00451471 -4.17151e-05)
(0.00384776 -0.00388897 -3.35987e-05)
(0.00302282 -0.00331052 -2.63968e-05)
(0.0022983 -0.00277109 -2.00714e-05)
(0.00167083 -0.00226352 -1.45931e-05)
(0.00113856 -0.00178055 -9.94578e-06)
(0.000700662 -0.00131392 -6.12219e-06)
(0.000361155 -0.000857498 -3.15714e-06)
(0.000124043 -0.000427501 -1.08644e-06)
(5.54335e-06 -0.000104652 -6.60692e-08)
(0.0572464 -0.142518 -0.000499647)
(0.0605784 -0.139475 -0.00052873)
(0.0634057 -0.135472 -0.000553416)
(0.0656802 -0.130625 -0.000573271)
(0.0673658 -0.125061 -0.000587993)
(0.0684419 -0.11891 -0.000597391)
(0.068909 -0.112306 -0.000601475)
(0.0687749 -0.10538 -0.00060031)
(0.0680699 -0.0982636 -0.000594164)
(0.0668296 -0.0910752 -0.000583343)
(0.065108 -0.083928 -0.000568322)
(0.0629596 -0.0769177 -0.000549575)
(0.0604523 -0.0701305 -0.000527693)
(0.0576492 -0.0636328 -0.00050323)
(0.054621 -0.0574797 -0.000476801)
(0.0514294 -0.051708 -0.000448946)
(0.0481389 -0.0463435 -0.000420224)
(0.0448022 -0.041397 -0.000391101)
(0.0414716 -0.0368707 -0.000362029)
(0.038187 -0.032756 -0.000333359)
(0.0349861 -0.0290388 -0.000305418)
(0.031895 -0.025698 -0.000278437)
(0.0289375 -0.0227101 -0.00025262)
(0.0261277 -0.0200481 -0.000228093)
(0.0234778 -0.017685 -0.000204961)
(0.0209922 -0.0155923 -0.000183264)
(0.0186743 -0.0137429 -0.00016303)
(0.0165222 -0.0121102 -0.000144243)
(0.0145335 -0.0106695 -0.000126883)
(0.0127028 -0.00939756 -0.000110901)
(0.0110243 -0.00827298 -9.62483e-05)
(0.00949043 -0.007276 -8.28585e-05)
(0.00809461 -0.00638897 -7.06734e-05)
(0.00682906 -0.00559564 -5.96253e-05)
(0.00568705 -0.00488161 -4.96556e-05)
(0.00466153 -0.00423381 -4.07029e-05)
(0.00374671 -0.003641 -3.27164e-05)
(0.00293705 -0.00309364 -2.56479e-05)
(0.00222803 -0.00258374 -1.94578e-05)
(0.00161569 -0.00210442 -1.41116e-05)
(0.00109795 -0.00164888 -9.5911e-06)
(0.000673443 -0.00120951 -5.88439e-06)
(0.000345696 -0.000781081 -3.02203e-06)
(0.000118 -0.000380576 -1.03351e-06)
(5.20326e-06 -8.8066e-05 -6.20793e-08)
(0.0633817 -0.152261 -0.000553196)
(0.0668085 -0.148371 -0.000583116)
(0.0696365 -0.143468 -0.000607803)
(0.0718251 -0.137695 -0.000626914)
(0.0733374 -0.131196 -0.00064012)
(0.0741679 -0.124128 -0.000647377)
(0.0743198 -0.116638 -0.00064871)
(0.0738207 -0.10888 -0.000644361)
(0.0727057 -0.100993 -0.000634636)
(0.0710323 -0.0931095 -0.000620034)
(0.0688593 -0.0853446 -0.000601074)
(0.0662621 -0.077801 -0.000578408)
(0.0633114 -0.0705603 -0.000552657)
(0.0600876 -0.0636899 -0.00052452)
(0.0566612 -0.057236 -0.000494617)
(0.0531067 -0.0512322 -0.000463591)
(0.0494853 -0.0456937 -0.000431983)
(0.0458579 -0.0406258 -0.00040032)
(0.0422713 -0.0360207 -0.000369014)
(0.0387697 -0.0318638 -0.000338448)
(0.0353841 -0.0281323 -0.000308895)
(0.0321423 -0.0248002 -0.000280598)
(0.0290613 -0.0218372 -0.000253703)
(0.0261553 -0.0192125 -0.000228335)
(0.0234302 -0.0168946 -0.000204547)
(0.0208899 -0.0148523 -0.000182371)
(0.0185323 -0.0130556 -0.000161791)
(0.016355 -0.0114764 -0.000142784)
(0.0143512 -0.0100884 -0.000125291)
(0.0125148 -0.00886773 -0.000109261)
(0.010837 -0.00779195 -9.46137e-05)
(0.00930963 -0.00684126 -8.12804e-05)
(0.00792386 -0.00599765 -6.91829e-05)
(0.00667156 -0.00524502 -5.82503e-05)
(0.00554449 -0.00456896 -4.84111e-05)
(0.0045354 -0.00395668 -3.96017e-05)
(0.00363748 -0.00339711 -3.17628e-05)
(0.00284507 -0.00288101 -2.48448e-05)
(0.00215298 -0.00240063 -1.88025e-05)
(0.00155713 -0.00194946 -1.36002e-05)
(0.0010549 -0.00152108 -9.21516e-06)
(0.000644694 -0.00110858 -5.63324e-06)
(0.000329364 -0.000707577 -2.87928e-06)
(0.000111628 -0.000335738 -9.77711e-07)
(4.83516e-06 -7.23402e-05 -5.77885e-08)
(0.0703081 -0.162718 -0.000613661)
(0.0737766 -0.157841 -0.000643938)
(0.0765489 -0.151902 -0.000668145)
(0.0785809 -0.145069 -0.000685887)
(0.079851 -0.137518 -0.000696982)
(0.0803543 -0.129422 -0.000701384)
(0.0801164 -0.120959 -0.000699314)
(0.0791695 -0.112292 -0.000691058)
(0.0775742 -0.10358 -0.000677139)
(0.0753936 -0.0949582 -0.000658113)
(0.0727114 -0.0865524 -0.000634704)
(0.0696066 -0.0784608 -0.000607611)
(0.0661712 -0.0707669 -0.000577626)
(0.062486 -0.0635286 -0.000545464)
(0.0586371 -0.0567887 -0.00051187)
(0.054696 -0.0505686 -0.000477472)
(0.0507339 -0.0448773 -0.000442885)
(0.0468056 -0.0397079 -0.000408598)
(0.0429634 -0.0350457 -0.000375058)
(0.0392439 -0.0308657 -0.000342592)
(0.0356803 -0.027139 -0.000311483)
(0.0322924 -0.0238314 -0.000281911)
(0.0290974 -0.0209083 -0.00025402)
(0.0261021 -0.0183331 -0.000227873)
(0.0233119 -0.0160711 -0.000203515)
(0.0207242 -0.0140876 -0.000180926)
(0.0183362 -0.012351 -0.00016008)
(0.0161403 -0.0108309 -0.000140911)
(0.0141291 -0.00950029 -0.000123353)
(0.0122927 -0.00833415 -0.000107322)
(0.0106216 -0.00730995 -9.27339e-05)
(0.00910516 -0.00640743 -7.94955e-05)
(0.00773401 -0.00560875 -6.75256e-05)
(0.00649826 -0.00489777 -5.67376e-05)
(0.00538947 -0.00426038 -4.70578e-05)
(0.0043992 -0.003684 -3.84126e-05)
(0.00352053 -0.00315789 -3.07417e-05)
(0.00274705 -0.00267308 -2.3989e-05)
(0.00207349 -0.00222216 -1.81084e-05)
(0.00149527 -0.00179892 -1.306e-05)
(0.00100962 -0.00139742 -8.81968e-06)
(0.000614471 -0.00101134 -5.3692e-06)
(0.000312235 -0.000637145 -2.72958e-06)
(0.000104929 -0.000293094 -9.1904e-07)
(4.44637e-06 -5.75214e-05 -5.32646e-08)
(0.0780053 -0.173996 -0.000680847)
(0.0814926 -0.167944 -0.000711296)
(0.0841579 -0.160791 -0.000734567)
(0.0859731 -0.15274 -0.00075042)
(0.0869187 -0.143992 -0.000758683)
(0.087015 -0.134752 -0.00075953)
(0.0862938 -0.125214 -0.000753246)
(0.0848171 -0.115564 -0.000740362)
(0.0826533 -0.105967 -0.000721484)
(0.0798947 -0.0965737 -0.000697409)
(0.076631 -0.0875039 -0.000668929)
(0.0729667 -0.0788603 -0.000636946)
(0.0689954 -0.0707159 -0.000602289)
(0.0648171 -0.063125 -0.000565818)
(0.0605154 -0.0561165 -0.000528274)
(0.0561738 -0.0497044 -0.000490375)
(0.0518572 -0.0438833 -0.000452698)
(0.0476273 -0.0386383 -0.000415774)
(0.0435276 -0.0339418 -0.000379989)
(0.0395975 -0.0297616 -0.000345681)
(0.0358609 -0.026059 -0.000313063)
(0.0323379 -0.0227942 -0.00028231)
(0.0290371 -0.0199256 -0.000253495)
(0.0259643 -0.017413 -0.000226672)
(0.0231177 -0.0152172 -0.000201822)
(0.0204936 -0.0133016 -0.000178914)
(0.0180832 -0.0116317 -0.000157872)
(0.0158779 -0.0101764 -0.000138621)
(0.013866 -0.00890718 -0.000121057)
(0.0120369 -0.00779895 -0.000105089)
(0.0103778 -0.0068286 -9.06053e-05)
(0.00887765 -0.00597607 -7.75096e-05)
(0.00752506 -0.00522345 -6.57016e-05)
(0.00630985 -0.00455497 -5.50927e-05)
(0.00522217 -0.00395671 -4.55972e-05)
(0.00425351 -0.0034165 -3.71407e-05)
(0.00339607 -0.00292391 -2.96551e-05)
(0.00264342 -0.00247035 -2.30841e-05)
(0.00198973 -0.0020487 -1.7377e-05)
(0.00143039 -0.00165314 -1.24934e-05)
(0.000962207 -0.00127812 -8.40554e-06)
(0.000582916 -0.000917974 -5.09354e-06)
(0.00029434 -0.000569929 -2.57318e-06)
(9.79404e-05 -0.000252748 -8.5783e-07)
(4.03085e-06 -4.36527e-05 -4.84571e-08)
(0.0867325 -0.186028 -0.000757032)
(0.0901406 -0.178616 -0.000786787)
(0.0926012 -0.170076 -0.000808274)
(0.0940854 -0.160641 -0.00082124)
(0.0946002 -0.150554 -0.00082574)
(0.0941707 -0.140044 -0.000822005)
(0.0928626 -0.129335 -0.000810591)
(0.0907465 -0.118625 -0.000792133)
(0.0879251 -0.108096 -0.000767509)
(0.0844987 -0.097896 -0.000737611)
(0.0805873 -0.0881522 -0.000703471)
(0.0762991 -0.0789557 -0.000666047)
(0.0717506 -0.070376 -0.000626345)
(0.0670402 -0.0624513 -0.000585234)
(0.0622663 -0.055202 -0.000543563)
(0.0575061 -0.048625 -0.000502014)
(0.0528326 -0.042705 -0.000461215)
(0.0482977 -0.0374117 -0.000421632)
(0.0439483 -0.0327087 -0.000383664)
(0.0398131 -0.0285517 -0.000347567)
(0.0359163 -0.0248952 -0.000313549)
(0.0322678 -0.0216911 -0.000281701)
(0.0288752 -0.0188931 -0.000252083)
(0.0257355 -0.0164556 -0.000224676)
(0.0228456 -0.014337 -0.000199447)
(0.0201947 -0.0124973 -0.000176306)
(0.0177728 -0.010901 -0.000155163)
(0.0155663 -0.00951542 -0.000135901)
(0.0135623 -0.00831172 -0.000118406)
(0.0117467 -0.00726414 -0.000102556)
(0.0101062 -0.00634982 -8.82346e-05)
(0.00862712 -0.00554863 -7.53226e-05)
(0.00729784 -0.00484309 -6.3718e-05)
(0.00610654 -0.00421763 -5.33178e-05)
(0.00504331 -0.00365884 -4.40357e-05)
(0.0040986 -0.00315487 -3.57882e-05)
(0.00326466 -0.00269576 -2.85077e-05)
(0.00253442 -0.00227324 -2.21324e-05)
(0.00190209 -0.00188061 -1.66117e-05)
(0.00136266 -0.00151237 -1.19019e-05)
(0.00091288 -0.00116343 -7.97472e-06)
(0.000550105 -0.000828666 -4.80689e-06)
(0.000275769 -0.000506067 -2.41087e-06)
(9.06671e-05 -0.000214792 -7.9413e-07)
(3.5959e-06 -3.07754e-05 -4.34344e-08)
(0.0963889 -0.198969 -0.000841326)
(0.0996757 -0.189936 -0.000870025)
(0.101851 -0.179768 -0.000889024)
(0.102914 -0.168749 -0.00089831)
(0.10288 -0.157147 -0.000898026)
(0.101813 -0.145233 -0.000888724)
(0.0997936 -0.133245 -0.000871109)
(0.0969326 -0.121403 -0.000846137)
(0.0933449 -0.109891 -0.000814835)
(0.0891679 -0.0988655 -0.000778375)
(0.0845282 -0.088441 -0.000737886)
(0.0795623 -0.0787058 -0.000694538)
(0.0743865 -0.0697108 -0.000649367)
(0.0691177 -0.0614842 -0.000603373)
(0.0638477 -0.0540258 -0.000557377)
(0.0586638 -0.0473207 -0.000512123)
(0.0536281 -0.0413347 -0.000468167)
(0.0487965 -0.0360268 -0.000425989)
(0.0442036 -0.0313458 -0.000385898)
(0.0398783 -0.0272391 -0.000348138)
(0.0358327 -0.0236507 -0.000312823)
(0.0320755 -0.0205269 -0.000280023)
(0.0286037 -0.0178149 -0.000249716)
(0.0254129 -0.0154659 -0.000221861)
(0.0224913 -0.0134343 -0.000196356)
(0.0198268 -0.011679 -0.000173095)
(0.0174033 -0.0101623 -0.000151938)
(0.0152059 -0.00885129 -0.000132755)
(0.0132175 -0.00771638 -0.000115397)
(0.0114233 -0.00673206 -9.97329e-05)
(0.0098069 -0.0058754 -8.56221e-05)
(0.00835458 -0.00512676 -7.29434e-05)
(0.00705262 -0.0044689 -6.15773e-05)
(0.00588922 -0.00388687 -5.14206e-05)
(0.00485323 -0.0033676 -4.23762e-05)
(0.00393518 -0.00289982 -3.43615e-05)
(0.00312662 -0.00247396 -2.73024e-05)
(0.00242055 -0.00208222 -2.11382e-05)
(0.00181079 -0.00171824 -1.58145e-05)
(0.0012924 -0.00137691 -1.12883e-05)
(0.000861776 -0.00105353 -7.52835e-06)
(0.000516195 -0.000743576 -4.51065e-06)
(0.000256559 -0.00044568 -2.24297e-06)
(8.31488e-05 -0.000179311 -7.28287e-07)
(3.13555e-06 -1.89268e-05 -3.81469e-08)
(0.107392 -0.212643 -0.000937377)
(0.110384 -0.201753 -0.000963509)
(0.112107 -0.189742 -0.000978559)
(0.112569 -0.176938 -0.000982605)
(0.111825 -0.163661 -0.000976115)
(0.109954 -0.150206 -0.000959801)
(0.107082 -0.136844 -0.000934732)
(0.103335 -0.123802 -0.000902045)
(0.098873 -0.111275 -0.000863096)
(0.0938419 -0.0994089 -0.000819193)
(0.0884032 -0.088316 -0.000771717)
(0.0826947 -0.0780629 -0.000721897)
(0.0768559 -0.0686889 -0.000670927)
(0.070997 -0.0601977 -0.000619791)
(0.0652222 -0.0525743 -0.000569379)
(0.0596068 -0.045781 -0.000520365)
(0.0542176 -0.0397703 -0.000473317)
(0.0490963 -0.0344827 -0.000428613)
(0.0442774 -0.029857 -0.000386544)
(0.0397757 -0.0258274 -0.000347247)
(0.0356014 -0.0223313 -0.000310806)
(0.031751 -0.0193068 -0.000277193)
(0.028219 -0.016697 -0.000246359)
(0.0249912 -0.0144487 -0.000218182)
(0.022054 -0.0125144 -0.000192539)
(0.0193878 -0.0108507 -0.000169264)
(0.0169752 -0.0094195 -0.000148201)
(0.0147961 -0.00818707 -0.000129178)
(0.0128327 -0.00712409 -0.000112037)
(0.0110665 -0.00620495 -9.6619e-05)
(0.00948115 -0.00540735 -8.27785e-05)
(0.00806037 -0.00471197 -7.0375e-05)
(0.00679051 -0.00410226 -5.92891e-05)
(0.00565833 -0.00356369 -4.94048e-05)
(0.0046528 -0.00308388 -4.06264e-05)
(0.00376365 -0.00265201 -3.28639e-05)
(0.00298258 -0.00225908 -2.60448e-05)
(0.00230213 -0.00189769 -2.01041e-05)
(0.00171628 -0.00156191 -1.49892e-05)
(0.0012198 -0.00124698 -1.06543e-05)
(0.000809136 -0.000948636 -7.06859e-06)
(0.000481274 -0.000662844 -4.20557e-06)
(0.000236804 -0.000388878 -2.07032e-06)
(7.53937e-05 -0.000146382 -6.60368e-07)
(2.65681e-06 -8.14198e-06 -3.26605e-08)
(0.119468 -0.22729 -0.00104281)
(0.122102 -0.214179 -0.0010658)
(0.123255 -0.200005 -0.00107588)
(0.122984 -0.185164 -0.00107352)
(0.121366 -0.170004 -0.00105943)
(0.118541 -0.154865 -0.00103476)
(0.114656 -0.140023 -0.00100087)
(0.109894 -0.125726 -0.000959307)
(0.104431 -0.112155 -0.000911633)
(0.0984554 -0.0994557 -0.00085947)
(0.0921349 -0.0877146 -0.000804311)
(0.0856358 -0.0769848 -0.000747575)
(0.0790922 -0.0672756 -0.000690464)
(0.0726295 -0.0585727 -0.000634045)
(0.0663389 -0.0508331 -0.00057914)
(0.0603011 -0.0440022 -0.000526428)
(0.0545663 -0.0380098 -0.000476369)
(0.049176 -0.0327837 -0.000429311)
(0.0441478 -0.0282465 -0.000385418)
(0.039494 -0.0243241 -0.00034479)
(0.03521 -0.0209435 -0.000307393)
(0.0312894 -0.0180383 -0.000273165)
(0.0277147 -0.0155457 -0.000241959)
(0.0244694 -0.0134105 -0.000213627)
(0.0215309 -0.0115823 -0.000187974)
(0.0188783 -0.0100173 -0.000164816)
(0.0164876 -0.00867651 -0.000143946)
(0.0143382 -0.00752638 -0.000125181)
(0.0124079 -0.00653759 -0.000108329)
(0.0106781 -0.0056853 -9.32276e-05)
(0.0091294 -0.00494758 -7.97077e-05)
(0.00774585 -0.00430595 -6.76292e-05)
(0.00651203 -0.00374439 -5.68579e-05)
(0.00541492 -0.00324918 -4.72798e-05)
(0.00444252 -0.00280847 -3.87905e-05)
(0.0035848 -0.00241212 -3.13023e-05)
(0.00283293 -0.00205161 -2.47382e-05)
(0.00217971 -0.00172006 -1.90352e-05)
(0.00161881 -0.00141192 -1.41381e-05)
(0.0011452 -0.00112284 -1.00029e-05)
(0.000755108 -0.000848901 -6.59669e-06)
(0.000445508 -0.000586601 -3.8931e-06)
(0.000216549 -0.000335754 -1.89329e-06)
(6.74413e-05 -0.000116073 -5.90724e-07)
(2.15362e-06 1.54799e-06 -2.6925e-08)
(0.133318 -0.242516 -0.00116371)
(0.13529 -0.226893 -0.00118094)
(0.135594 -0.210306 -0.0011836)
(0.13431 -0.193201 -0.00117241)
(0.13158 -0.175992 -0.00114858)
(0.127567 -0.159037 -0.00111358)
(0.122484 -0.142643 -0.00106921)
(0.116535 -0.127047 -0.0010173)
(0.109946 -0.112435 -0.000959777)
(0.102916 -0.0989216 -0.000898432)
(0.0956475 -0.0865794 -0.000834977)
(0.0883022 -0.0754246 -0.000770871)
(0.081033 -0.0654444 -0.000707409)
(0.0739509 -0.0565897 -0.000645595)
(0.0671536 -0.0487962 -0.000586254)