/*--------------------------------*- C++ -*----------------------------------*\
| =========                 |                                                 |
| \\      /  F ield         | OpenFOAM: The Open Source CFD Toolbox           |
|  \\    /   O peration     | Version:  v2012                                 |
|   \\  /    A nd           | Website:  www.openfoam.com                      |
|    \\/     M anipulation  |                                                 |
\*---------------------------------------------------------------------------*/
FoamFile
{
    version     2.0;
    format      ascii;
    class       surfaceScalarField;
    location    "0.6";
    object      phi;
}
// * * * * * * * * * * * * * * * * * * * * * * * * * * * * * * * * * * * * * //

dimensions      [0 3 -1 0 0 0 0];
oriented        oriented;


internalField   nonuniform List<scalar> 
6431
(
2.28696e-11
-2.20623e-10
-1.35014e-17
2.37533e-11
-2.29336e-10
-1.04833e-17
2.4529e-11
-2.37512e-10
-9.39246e-18
2.51783e-11
-2.44989e-10
-8.58703e-18
2.56822e-11
-2.51794e-10
-8.21931e-18
2.60231e-11
-2.57655e-10
-7.44908e-18
2.61833e-11
-2.62604e-10
-6.63304e-18
2.61475e-11
-2.66423e-10
-5.66215e-18
2.5902e-11
-2.69005e-10
-4.74661e-18
2.54348e-11
-2.70423e-10
-3.89938e-18
2.47377e-11
-2.70339e-10
-3.7219e-18
2.38051e-11
-2.68829e-10
-6.09282e-18
2.26354e-11
-2.65698e-10
-5.45332e-18
2.12315e-11
-2.60877e-10
-5.02706e-18
1.96001e-11
-2.54305e-10
-4.75309e-18
1.77544e-11
-2.4571e-10
-4.59994e-18
1.57131e-11
-2.34955e-10
-4.14712e-18
1.3502e-11
-2.21769e-10
-3.90202e-18
1.11557e-11
-2.05686e-10
-3.80537e-18
8.72039e-12
-1.86058e-10
-3.72897e-18
6.25566e-12
-1.61916e-10
-3.85158e-18
3.8513e-12
-1.3158e-10
-3.62859e-18
1.61737e-12
-9.23914e-11
-3.80677e-18
-3.86969e-11
-3.58788e-18
2.30166e-11
-2.21591e-10
-1.75477e-17
2.38946e-11
-2.30214e-10
-1.38493e-17
2.46639e-11
-2.38281e-10
-1.21777e-17
2.53061e-11
-2.45631e-10
-1.23324e-17
2.58022e-11
-2.5229e-10
-1.25378e-17
2.61346e-11
-2.57987e-10
-1.21745e-17
2.62859e-11
-2.62755e-10
-1.11673e-17
2.62406e-11
-2.66378e-10
-9.84018e-18
2.59852e-11
-2.6875e-10
-8.31732e-18
2.55078e-11
-2.69946e-10
-6.97143e-18
2.48004e-11
-2.69632e-10
-6.7883e-18
2.38573e-11
-2.67886e-10
-7.98907e-18
2.26772e-11
-2.64518e-10
-7.00371e-18
2.12629e-11
-2.59462e-10
-5.99146e-18
1.96213e-11
-2.52664e-10
-5.12352e-18
1.77656e-11
-2.43854e-10
-4.49274e-18
1.57145e-11
-2.32904e-10
-3.75928e-18
1.34936e-11
-2.19548e-10
-3.42597e-18
1.11375e-11
-2.0333e-10
-3.2748e-18
8.69219e-12
-1.83612e-10
-3.1699e-18
6.21682e-12
-1.5944e-10
-3.28287e-18
3.80061e-12
-1.29163e-10
-3.11639e-18
1.556e-12
-9.01469e-11
-3.36031e-18
-3.7141e-11
-3.114e-18
2.32723e-11
-2.22557e-10
-2.18928e-17
2.41463e-11
-2.31088e-10
-1.67038e-17
2.49096e-11
-2.39045e-10
-1.57339e-17
2.55436e-11
-2.46265e-10
-1.62877e-17
2.60294e-11
-2.52776e-10
-1.77942e-17
2.63496e-11
-2.58308e-10
-1.76708e-17
2.64868e-11
-2.62893e-10
-1.67671e-17
2.6426e-11
-2.66317e-10
-1.49215e-17
2.61535e-11
-2.68477e-10
-1.29589e-17
2.56578e-11
-2.69451e-10
-1.10333e-17
2.49313e-11
-2.68905e-10
-9.49491e-18
2.39683e-11
-2.66924e-10
-1.07099e-17
2.27679e-11
-2.63318e-10
-9.1745e-18
2.13331e-11
-2.58028e-10
-7.87186e-18
1.9671e-11
-2.51002e-10
-6.87863e-18
1.77948e-11
-2.41978e-10
-6.09586e-18
1.57234e-11
-2.30832e-10
-5.28275e-18
1.34824e-11
-2.17307e-10
-4.88565e-18
1.11063e-11
-2.00954e-10
-4.76009e-18
8.64086e-12
-1.81147e-10
-4.65286e-18
6.14558e-12
-1.56945e-10
-4.85653e-18
3.71189e-12
-1.2673e-10
-4.67973e-18
1.47351e-12
-8.79087e-11
-4.95392e-18
-3.56676e-11
-5.02302e-18
2.36318e-11
-2.23522e-10
-2.58557e-17
2.45013e-11
-2.31957e-10
-2.05222e-17
2.52572e-11
-2.39801e-10
-1.9124e-17
2.58808e-11
-2.46889e-10
-2.07151e-17
2.63533e-11
-2.53249e-10
-2.28725e-17
2.66574e-11
-2.58612e-10
-2.32158e-17
2.67758e-11
-2.63011e-10
-2.20831e-17
2.66936e-11
-2.66235e-10
-1.98203e-17
2.63977e-11
-2.68182e-10
-1.71411e-17
2.58767e-11
-2.6893e-10
-1.45849e-17
2.51233e-11
-2.68152e-10
-1.31826e-17
2.41323e-11
-2.65933e-10
-1.35437e-17
2.29031e-11
-2.62089e-10
-1.12736e-17
2.14391e-11
-2.56564e-10
-9.08838e-18
1.97475e-11
-2.4931e-10
-7.34054e-18
1.78421e-11
-2.40073e-10
-6.03004e-18
1.57416e-11
-2.28732e-10
-4.86688e-18
1.34719e-11
-2.15037e-10
-4.2081e-18
1.10676e-11
-1.9855e-10
-4.02381e-18
8.57482e-12
-1.78654e-10
-3.90296e-18
6.05457e-12
-1.54425e-10
-4.25891e-18
3.60393e-12
-1.24279e-10
-4.22267e-18
1.38744e-12
-8.56923e-11
-4.72584e-18
-3.42803e-11
-4.60277e-18
2.40913e-11
-2.24485e-10
-3.07476e-17
2.49559e-11
-2.32822e-10
-2.37939e-17
2.5703e-11
-2.40548e-10
-2.29698e-17
2.6314e-11
-2.475e-10
-2.47773e-17
2.677e-11
-2.53705e-10
-2.7951e-17
2.70539e-11
-2.58896e-10
-2.83612e-17
2.71486e-11
-2.63106e-10
-2.71658e-17
2.70395e-11
-2.66127e-10
-2.43066e-17
2.67139e-11
-2.67856e-10
-2.11078e-17
2.61606e-11
-2.68377e-10
-1.80145e-17
2.5373e-11
-2.67364e-10
-1.54165e-17
2.43463e-11
-2.64906e-10
-1.6141e-17
2.30803e-11
-2.60823e-10
-1.31715e-17
2.15789e-11
-2.55062e-10
-1.05601e-17
1.98498e-11
-2.47581e-10
-8.49084e-18
1.79069e-11
-2.3813e-10
-6.84942e-18
1.57696e-11
-2.26595e-10
-5.4123e-18
1.34638e-11
-2.12732e-10
-4.49268e-18
1.10248e-11
-1.96111e-10
-4.15618e-18
8.49955e-12
-1.76129e-10
-3.86941e-18
5.95207e-12
-1.51877e-10
-4.19025e-18
3.48774e-12
-1.21815e-10
-4.06519e-18
1.30233e-12
-8.3507e-11
-4.52876e-18
-3.2978e-11
-4.89099e-18
2.46461e-11
-2.25448e-10
-3.49588e-17
2.55055e-11
-2.33682e-10
-2.78932e-17
2.62426e-11
-2.41285e-10
-2.66028e-17
2.68389e-11
-2.48096e-10
-2.91694e-17
2.72755e-11
-2.54142e-10
-3.274e-17
2.75354e-11
-2.59156e-10
-3.34339e-17
2.76018e-11
-2.63173e-10
-3.19044e-17
2.74605e-11
-2.65985e-10
-2.85992e-17
2.70991e-11
-2.67495e-10
-2.46808e-17
2.65071e-11
-2.67785e-10
-2.10068e-17
2.56782e-11
-2.66535e-10
-1.8678e-17
2.46084e-11
-2.63837e-10
-1.86358e-17
2.3298e-11
-2.59513e-10
-1.503e-17
2.17516e-11
-2.53516e-10
-1.1539e-17
1.99773e-11
-2.45807e-10
-8.68003e-18
1.79898e-11
-2.36142e-10
-6.41697e-18
1.58085e-11
-2.24413e-10
-4.51693e-18
1.34603e-11
-2.10384e-10
-3.20919e-18
1.09811e-11
-1.93631e-10
-2.66073e-18
8.41954e-12
-1.73568e-10
-2.19717e-18
5.84407e-12
-1.49302e-10
-2.50749e-18
3.37001e-12
-1.19341e-10
-2.39605e-18
1.22122e-12
-8.13582e-11
-3.01836e-18
-3.17569e-11
-3.21142e-18
2.52922e-11
-2.2641e-10
-4.00644e-17
2.61459e-11
-2.34535e-10
-3.16402e-17
2.68719e-11
-2.42012e-10
-3.07219e-17
2.74515e-11
-2.48676e-10
-3.324e-17
2.78658e-11
-2.54557e-10
-3.74952e-17
2.80981e-11
-2.59388e-10
-3.80702e-17
2.81318e-11
-2.63207e-10
-3.63479e-17
2.79532e-11
-2.65807e-10
-3.24306e-17
2.75503e-11
-2.67092e-10
-2.79931e-17
2.69133e-11
-2.67149e-10
-2.38497e-17
2.60366e-11
-2.65659e-10
-2.04553e-17
2.49167e-11
-2.62717e-10
-2.10465e-17
2.3555e-11
-2.58151e-10
-1.68857e-17
2.19564e-11
-2.51917e-10
-1.30964e-17
2.013e-11
-2.43981e-10
-9.95913e-18
1.80909e-11
-2.34103e-10
-7.391e-18
1.58595e-11
-2.22182e-10
-5.19444e-18
1.34632e-11
-2.07987e-10
-3.58781e-18
1.09392e-11
-1.91107e-10
-2.81803e-18
8.33876e-12
-1.70967e-10
-2.09934e-18
5.73543e-12
-1.46699e-10
-2.27463e-18
3.25541e-12
-1.16861e-10
-1.97864e-18
1.14602e-12
-7.92489e-11
-2.49037e-18
-3.06109e-11
-3.08889e-18
2.60259e-11
-2.27372e-10
-4.47993e-17
2.68735e-11
-2.35383e-10
-3.60502e-17
2.75871e-11
-2.42726e-10
-3.45251e-17
2.81478e-11
-2.49237e-10
-3.74303e-17
2.85371e-11
-2.54947e-10
-4.1789e-17
2.87382e-11
-2.59589e-10
-4.24112e-17
2.87349e-11
-2.63205e-10
-4.02533e-17
2.85141e-11
-2.65586e-10
-3.58791e-17
2.80643e-11
-2.66642e-10
-3.07681e-17
2.73764e-11
-2.66461e-10
-2.61358e-17
2.64456e-11
-2.64728e-10
-2.31318e-17
2.52692e-11
-2.61541e-10
-2.29978e-17
2.38494e-11
-2.56732e-10
-1.84123e-17
2.21922e-11
-2.5026e-10
-1.3915e-17
2.03071e-11
-2.42096e-10
-1.0134e-17
1.82104e-11
-2.32007e-10
-7.05883e-18
1.59232e-11
-2.19895e-10
-4.48219e-18
1.3474e-11
-2.05538e-10
-2.5322e-18
1.09017e-11
-1.88535e-10
-1.56117e-18
8.26042e-12
-1.68326e-10
-6.5012e-19
5.62987e-12
-1.44068e-10
-7.70963e-19
3.14703e-12
-1.14378e-10
-4.36587e-19
1.07788e-12
-7.71798e-11
-1.06228e-18
-2.9533e-11
-1.4155e-18
2.68438e-11
-2.28335e-10
-5.03968e-17
2.76847e-11
-2.36224e-10
-4.00294e-17
2.83845e-11
-2.43426e-10
-3.85527e-17
2.89244e-11
-2.49777e-10
-4.11528e-17
2.92857e-11
-2.55309e-10
-4.58235e-17
2.94521e-11
-2.59756e-10
-4.61412e-17
2.94078e-11
-2.63161e-10
-4.36566e-17
2.91399e-11
-2.65319e-10
-3.87023e-17
2.8638e-11
-2.66141e-10
-3.31284e-17
2.78935e-11
-2.65717e-10
-2.8159e-17
2.69027e-11
-2.63737e-10
-2.42067e-17
2.56637e-11
-2.60302e-10
-2.47946e-17
2.41797e-11
-2.55248e-10
-1.98315e-17
2.24576e-11
-2.48538e-10
-1.52655e-17
2.0508e-11
-2.40147e-10
-1.13763e-17
1.83481e-11
-2.29847e-10
-8.15979e-18
1.60002e-11
-2.17547e-10
-5.41642e-18
1.3494e-11
-2.03032e-10
-3.2714e-18
1.08705e-11
-1.85912e-10
-2.15485e-18
8.18709e-12
-1.65643e-10
-1.03527e-18
5.5301e-12
-1.41411e-10
-1.04617e-18
3.04681e-12
-1.11895e-10
-5.36557e-19
1.01714e-12
-7.51502e-11
-1.0548e-18
-2.85159e-11
-1.72419e-18
2.77428e-11
-2.29298e-10
-5.54058e-17
2.85762e-11
-2.37058e-10
-4.42098e-17
2.92608e-11
-2.44111e-10
-4.20439e-17
2.97777e-11
-2.50294e-10
-4.47027e-17
3.01083e-11
-2.5564e-10
-4.91988e-17
3.02364e-11
-2.59885e-10
-4.93317e-17
3.01469e-11
-2.63072e-10
-4.63253e-17
2.98274e-11
-2.65e-10
-4.0937e-17
2.92683e-11
-2.65582e-10
-3.47839e-17
2.84619e-11
-2.64911e-10
-2.94789e-17
2.74054e-11
-2.62681e-10
-2.60599e-17
2.6098e-11
-2.58995e-10
-2.59084e-17
2.45439e-11
-2.53694e-10
-2.07317e-17
2.27514e-11
-2.46746e-10
-1.56912e-17
2.07319e-11
-2.38127e-10
-1.13814e-17
1.85038e-11
-2.27619e-10
-7.86206e-18
1.60908e-11
-2.15134e-10
-4.90412e-18
1.35241e-11
-2.00466e-10
-2.54825e-18
1.0847e-11
-1.83235e-10
-1.32917e-18
8.1207e-12
-1.62916e-10
-7.55267e-20
5.43806e-12
-1.38729e-10
-8.0438e-20
2.95583e-12
-1.09413e-10
4.38713e-19
9.63715e-13
-7.31581e-11
-2.17586e-19
-2.75522e-11
-6.01617e-19
2.87201e-11
-2.3026e-10
-6.04645e-17
2.95452e-11
-2.37884e-10
-4.75967e-17
3.02129e-11
-2.44779e-10
-4.53367e-17
3.07045e-11
-2.50786e-10
-4.75683e-17
3.10014e-11
-2.55938e-10
-5.20378e-17
3.10878e-11
-2.59971e-10
-5.17128e-17
3.0949e-11
-2.62933e-10
-4.82708e-17
3.05734e-11
-2.64625e-10
-4.23798e-17
2.99522e-11
-2.64961e-10
-3.58593e-17
2.90786e-11
-2.64038e-10
-3.03999e-17
2.7951e-11
-2.61554e-10
-2.61779e-17
2.65698e-11
-2.57614e-10
-2.67592e-17
2.49403e-11
-2.52065e-10
-2.13998e-17
2.3072e-11
-2.44877e-10
-1.65415e-17
2.09777e-11
-2.36033e-10
-1.23367e-17
1.8677e-11
-2.25318e-10
-8.89205e-18
1.6195e-11
-2.12652e-10
-5.93768e-18
1.35648e-11
-1.97836e-10
-3.53041e-18
1.08323e-11
-1.80502e-10
-2.27479e-18
8.06262e-12
-1.60147e-10
-8.93111e-19
5.35499e-12
-1.36021e-10
-8.49376e-19
2.87456e-12
-1.06932e-10
-2.07956e-19
9.17262e-13
-7.12008e-11
-8.06757e-19
-2.6635e-11
-1.48802e-18
2.97733e-11
-2.31222e-10
-6.43099e-17
3.05889e-11
-2.38699e-10
-5.05619e-17
3.1238e-11
-2.45429e-10
-4.77944e-17
3.17019e-11
-2.5125e-10
-4.99126e-17
3.1962e-11
-2.56198e-10
-5.40047e-17
3.20031e-11
-2.60013e-10
-5.33187e-17
3.1811e-11
-2.62742e-10
-4.93092e-17
3.13748e-11
-2.64189e-10
-4.30621e-17
3.06866e-11
-2.64273e-10
-3.61043e-17
2.97408e-11
-2.63093e-10
-3.05061e-17
2.85369e-11
-2.6035e-10
-2.69875e-17
2.70767e-11
-2.56155e-10
-2.68069e-17
2.53667e-11
-2.50355e-10
-2.14648e-17
2.34178e-11
-2.42929e-10
-1.64032e-17
2.12442e-11
-2.3386e-10
-1.20354e-17
1.8867e-11
-2.22941e-10
-8.51954e-18
1.63127e-11
-2.10098e-10
-5.54251e-18
1.36166e-11
-1.9514e-10
-3.06154e-18
1.08272e-11
-1.77713e-10
-1.79387e-18
8.01378e-12
-1.57333e-10
-3.34683e-19
5.2816e-12
-1.33289e-10
-3.21643e-19
2.80304e-12
-1.04454e-10
2.9004e-19
8.77292e-13
-6.92751e-11
-4.93207e-19
-2.57577e-11
-9.01659e-19
3.09001e-11
-2.32183e-10
-6.71629e-17
3.17047e-11
-2.39505e-10
-5.2307e-17
3.23332e-11
-2.46058e-10
-4.95867e-17
3.27668e-11
-2.51683e-10
-5.13322e-17
3.2987e-11
-2.56419e-10
-5.51543e-17
3.29792e-11
-2.60005e-10
-5.39399e-17
3.27295e-11
-2.62493e-10
-4.94418e-17
3.22283e-11
-2.63688e-10
-4.28266e-17
3.14685e-11
-2.63513e-10
-3.56504e-17
3.04456e-11
-2.6207e-10
-3.01211e-17
2.91605e-11
-2.59065e-10
-2.5987e-17
2.76163e-11
-2.54611e-10
-2.65516e-17
2.58211e-11
-2.4856e-10
-2.12621e-17
2.37872e-11
-2.40895e-10
-1.66714e-17
2.15302e-11
-2.31603e-10
-1.26594e-17
1.90729e-11
-2.20484e-10
-9.44474e-18
1.64435e-11
-2.07469e-10
-6.64689e-18
1.36794e-11
-1.92376e-10
-4.24422e-18
1.0832e-11
-1.74865e-10
-3.01316e-18
7.97465e-12
-1.54476e-10
-1.46475e-18
5.21819e-12
-1.30532e-10
-1.42844e-18
2.74102e-12
-1.01976e-10
-7.31961e-19
8.43247e-13
-6.73774e-11
-1.51071e-18
-2.49145e-11
-2.23503e-18
3.20982e-11
-2.33141e-10
-6.81391e-17
3.28904e-11
-2.40297e-10
-5.30544e-17
3.34961e-11
-2.46664e-10
-5.02851e-17
3.38964e-11
-2.52084e-10
-5.19123e-17
3.40735e-11
-2.56597e-10
-5.52462e-17
3.40129e-11
-2.59945e-10
-5.35775e-17
3.37016e-11
-2.62182e-10
-4.8542e-17
3.31308e-11
-2.63118e-10
-4.17066e-17
3.22947e-11
-2.62677e-10
-3.4293e-17
3.11899e-11
-2.60966e-10
-2.88754e-17
2.98189e-11
-2.57694e-10
-2.56484e-17
2.81861e-11
-2.52978e-10
-2.54697e-17
2.63013e-11
-2.46676e-10
-2.04782e-17
2.41782e-11
-2.38772e-10
-1.60122e-17
2.18342e-11
-2.29259e-10
-1.21327e-17
1.92937e-11
-2.17943e-10
-9.0996e-18
1.65868e-11
-2.04762e-10
-6.45439e-18
1.37531e-11
-1.89542e-10
-4.08299e-18
1.08469e-11
-1.71959e-10
-2.8764e-18
7.94541e-12
-1.51575e-10
-1.24577e-18
5.16471e-12
-1.27752e-10
-1.22183e-18
2.68802e-12
-9.94997e-11
-5.66159e-19
8.14547e-13
-6.55039e-11
-1.56236e-18
-2.41e-11
-2.04161e-18
3.33659e-11
-2.34096e-10
-6.75507e-17
3.41437e-11
-2.41075e-10
-5.24208e-17
3.4724e-11
-2.47245e-10
-4.99975e-17
3.50882e-11
-2.52448e-10
-5.14047e-17
3.52185e-11
-2.56728e-10
-5.42905e-17
3.51012e-11
-2.59828e-10
-5.21053e-17
3.4724e-11
-2.61805e-10
-4.66055e-17
3.40792e-11
-2.62473e-10
-3.9609e-17
3.31622e-11
-2.6176e-10
-3.21857e-17
3.19709e-11
-2.59775e-10
-2.71148e-17
3.05093e-11
-2.56233e-10
-2.35085e-17
2.87836e-11
-2.51253e-10
-2.41301e-17
2.6805e-11
-2.44698e-10
-1.95048e-17
2.4589e-11
-2.36556e-10
-1.58535e-17
2.21547e-11
-2.26825e-10
-1.26179e-17
1.95282e-11
-2.15317e-10
-1.01255e-17
1.67418e-11
-2.01975e-10
-7.81592e-18
1.38371e-11
-1.86637e-10
-5.5967e-18
1.08715e-11
-1.68994e-10
-4.42996e-18
7.9259e-12
-1.48629e-10
-2.67777e-18
5.12088e-12
-1.24947e-10
-2.59031e-18
2.64346e-12
-9.70224e-11
-1.84203e-18
7.90615e-13
-6.36512e-11
-2.86311e-18
-2.33094e-11
-3.67612e-18
3.47014e-11
-2.35045e-10
-6.52913e-17
3.54624e-11
-2.41837e-10
-5.06628e-17
3.60146e-11
-2.47798e-10
-4.85753e-17
3.63393e-11
-2.52773e-10
-4.98497e-17
3.64192e-11
-2.56809e-10
-5.21659e-17
3.62411e-11
-2.5965e-10
-4.95099e-17
3.57938e-11
-2.61359e-10
-4.35795e-17
3.50704e-11
-2.6175e-10
-3.65748e-17
3.40678e-11
-2.60758e-10
-2.91817e-17
3.27854e-11
-2.58493e-10
-2.45216e-17
3.12289e-11
-2.54676e-10
-2.20749e-17
2.94059e-11
-2.4943e-10
-2.2041e-17
2.73297e-11
-2.42622e-10
-1.80746e-17
2.50174e-11
-2.34244e-10
-1.49356e-17
2.24899e-11
-2.24298e-10
-1.21655e-17
1.97752e-11
-2.12602e-10
-1.01064e-17
1.69075e-11
-1.99108e-10
-8.0915e-18
1.39309e-11
-1.83661e-10
-5.95164e-18
1.09055e-11
-1.65968e-10
-4.76006e-18
7.91575e-12
-1.45639e-10
-2.83856e-18
5.0862e-12
-1.22117e-10
-2.67115e-18
2.60667e-12
-9.45429e-11
-1.92415e-18
7.70902e-13
-6.18155e-11
-3.16253e-18
-2.25386e-11
-3.75207e-18
3.61029e-11
-2.35987e-10
-6.17179e-17
3.68447e-11
-2.42579e-10
-4.77774e-17
3.73656e-11
-2.48319e-10
-4.60775e-17
3.76473e-11
-2.53055e-10
-4.71728e-17
3.76728e-11
-2.56835e-10
-4.88543e-17
3.74297e-11
-2.59407e-10
-4.57525e-17
3.69076e-11
-2.60837e-10
-3.94667e-17
3.61011e-11
-2.60944e-10
-3.25804e-17
3.50084e-11
-2.59665e-10
-2.54683e-17
3.36304e-11
-2.57116e-10
-2.1483e-17
3.19746e-11
-2.5302e-10
-1.89561e-17
3.00505e-11
-2.47506e-10
-1.98274e-17
2.7873e-11
-2.40444e-10
-1.66195e-17
2.54613e-11
-2.31832e-10
-1.46971e-17
2.28379e-11
-2.21675e-10
-1.28898e-17
2.0033e-11
-2.09797e-10
-1.15992e-17
1.70827e-11
-1.96158e-10
-1.00253e-17
1.40335e-11
-1.80612e-10
-8.04478e-18
1.09482e-11
-1.62883e-10
-6.80452e-18
7.91439e-12
-1.42606e-10
-4.63746e-18
5.06005e-12
-1.19263e-10
-4.28746e-18
2.57694e-12
-9.20599e-11
-3.38746e-18
7.54888e-13
-5.99936e-11
-4.64169e-18
-2.17838e-11
-5.56852e-18
3.75688e-11
-2.36919e-10
-5.73376e-17
3.82886e-11
-2.43299e-10
-4.40179e-17
3.87748e-11
-2.48806e-10
-4.26181e-17
3.90096e-11
-2.5329e-10
-4.33691e-17
3.89764e-11
-2.56802e-10
-4.43565e-17
3.86638e-11
-2.59095e-10
-4.08113e-17
3.80624e-11
-2.60236e-10
-3.42937e-17
3.71681e-11
-2.6005e-10
-2.76933e-17
3.59806e-11
-2.58477e-10
-2.09597e-17
3.45027e-11
-2.55638e-10
-1.77365e-17
3.27435e-11
-2.51261e-10
-1.6668e-17
3.07143e-11
-2.45477e-10
-1.70291e-17
2.84323e-11
-2.38162e-10
-1.49093e-17
2.59182e-11
-2.29318e-10
-1.39303e-17
2.31968e-11
-2.18954e-10
-1.29365e-17
2.03e-11
-2.06901e-10
-1.22978e-17
1.72662e-11
-1.93124e-10
-1.11012e-17
1.41439e-11
-1.7749e-10
-9.15771e-18
1.09987e-11
-1.59738e-10
-7.751e-18
7.92107e-12
-1.39528e-10
-5.25038e-18
5.04169e-12
-1.16384e-10
-4.65735e-18
2.55353e-12
-8.95718e-11
-3.67054e-18
7.42092e-13
-5.81823e-11
-5.11091e-18
-2.10419e-11
-5.80951e-18
3.90978e-11
-2.37839e-10
-5.27805e-17
3.97921e-11
-2.43993e-10
-3.98109e-17
4.02399e-11
-2.49254e-10
-3.82143e-17
4.04236e-11
-2.53474e-10
-3.85238e-17
4.03273e-11
-2.56706e-10
-3.86225e-17
3.99405e-11
-2.58708e-10
-3.47428e-17
3.92549e-11
-2.59551e-10
-2.80767e-17
3.82681e-11
-2.59063e-10
-2.19555e-17
3.69813e-11
-2.57191e-10
-1.58762e-17
3.53989e-11
-2.54056e-10
-1.37066e-17
3.35323e-11
-2.49395e-10
-1.29032e-17
3.13945e-11
-2.4334e-10
-1.43082e-17
2.90048e-11
-2.35773e-10
-1.33898e-17
2.63859e-11
-2.26699e-10
-1.4048e-17
2.35645e-11
-2.16132e-10
-1.43297e-17
2.05745e-11
-2.03911e-10
-1.46371e-17
1.74564e-11
-1.90006e-10
-1.39132e-17
1.4261e-11
-1.74295e-10
-1.20489e-17
1.10561e-11
-1.56533e-10
-1.04163e-17
7.93493e-12
-1.36407e-10
-7.47652e-18
5.03029e-12
-1.13479e-10
-6.5098e-18
2.5357e-12
-8.70773e-11
-5.26565e-18
7.32071e-13
-5.63788e-11
-6.67985e-18
-2.031e-11
-7.69529e-18
4.06884e-11
-2.38744e-10
-4.89401e-17
4.13535e-11
-2.44659e-10
-3.52679e-17
4.17587e-11
-2.4966e-10
-3.31538e-17
4.18868e-11
-2.53602e-10
-3.25542e-17
4.17225e-11
-2.56543e-10
-3.17621e-17
4.12566e-11
-2.58242e-10
-2.75116e-17
4.0482e-11
-2.58777e-10
-2.09284e-17
3.93977e-11
-2.57979e-10
-1.5462e-17
3.80069e-11
-2.558e-10
-1.01994e-17
3.63158e-11
-2.52365e-10
-9.1801e-18
3.43378e-11
-2.47416e-10
-1.01608e-17
3.20881e-11
-2.4109e-10
-1.12236e-17
2.95877e-11
-2.33273e-10
-1.18373e-17
2.68618e-11
-2.23973e-10
-1.38522e-17
2.39387e-11
-2.1321e-10
-1.52488e-17
2.08546e-11
-2.00827e-10
-1.63539e-17
1.76519e-11
-1.86804e-10
-1.60008e-17
1.43834e-11
-1.71027e-10
-1.40565e-17
1.11194e-11
-1.53269e-10
-1.20472e-17
7.95502e-12
-1.33243e-10
-8.55559e-18
5.025e-12
-1.10549e-10
-7.1421e-18
2.52272e-12
-8.45751e-11
-5.68689e-18
7.2442e-13
-5.45807e-11
-7.22053e-18
-1.95857e-11
-7.98778e-18
4.2339e-11
-2.39629e-10
-4.55255e-17
4.29709e-11
-2.45291e-10
-3.06961e-17
4.33289e-11
-2.50018e-10
-2.71942e-17
4.33965e-11
-2.53669e-10
-2.56304e-17
4.31592e-11
-2.56306e-10
-2.36768e-17
4.26089e-11
-2.57692e-10
-1.92702e-17
4.17401e-11
-2.57908e-10
-1.28749e-17
4.05534e-11
-2.56792e-10
-8.32264e-18
3.9054e-11
-2.543e-10
-4.17317e-18
3.725e-11
-2.50561e-10
-4.59815e-18
3.51567e-11
-2.45323e-10
-6.20904e-18
3.27917e-11
-2.38725e-10
-8.43694e-18
3.01782e-11
-2.30659e-10
-1.06667e-17
2.73432e-11
-2.21138e-10
-1.46787e-17
2.43172e-11
-2.10184e-10
-1.75894e-17
2.11383e-11
-1.97648e-10
-1.97236e-17
1.78508e-11
-1.83516e-10
-1.97952e-17
1.45098e-11
-1.67686e-10
-1.77797e-17
1.11872e-11
-1.49947e-10
-1.53186e-17
7.98028e-12
-1.30036e-10
-1.11616e-17
5.02489e-12
-1.07594e-10
-9.16608e-18
2.51388e-12
-8.20643e-11
-7.32147e-18
7.18765e-13
-5.27857e-11
-8.74878e-18
-1.88671e-11
-9.80032e-18
4.40483e-11
-2.40491e-10
-4.25263e-17
4.46424e-11
-2.45885e-10
-2.55063e-17
4.49482e-11
-2.50324e-10
-2.06007e-17
4.495e-11
-2.53671e-10
-1.75247e-17
4.46343e-11
-2.5599e-10
-1.45839e-17
4.39942e-11
-2.57052e-10
-9.98227e-18
4.30259e-11
-2.5694e-10
-4.11547e-18
4.17318e-11
-2.55498e-10
-6.53235e-19
4.0119e-11
-2.52687e-10
2.18053e-18
3.81977e-11
-2.4864e-10
2.24736e-19
3.59856e-11
-2.43111e-10
-3.46026e-18
3.35023e-11
-2.36242e-10
-5.50796e-18
3.07732e-11
-2.2793e-10
-9.62148e-18
2.78274e-11
-2.18193e-10
-1.52893e-17
2.46974e-11
-2.07054e-10
-1.95001e-17
2.14234e-11
-1.94374e-10
-2.24625e-17
1.80515e-11
-1.80145e-10
-2.28197e-17
1.46385e-11
-1.64273e-10
-2.05653e-17
1.12583e-11
-1.46567e-10
-1.751e-17
8.00961e-12
-1.26788e-10
-1.25897e-17
5.02906e-12
-1.04614e-10
-9.94768e-18
2.5085e-12
-7.95439e-11
-7.75039e-18
7.14768e-13
-5.09922e-11
-9.20967e-18
-1.81526e-11
-9.99339e-18
4.58149e-11
-2.41325e-10
-3.84786e-17
4.6366e-11
-2.46436e-10
-1.97924e-17
4.66142e-11
-2.50573e-10
-1.28091e-17
4.65445e-11
-2.53601e-10
-8.5042e-18
4.61446e-11
-2.55591e-10
-4.34288e-18
4.54091e-11
-2.56316e-10
8.75738e-20
4.43358e-11
-2.55867e-10
5.31233e-18
4.29291e-11
-2.54091e-10
7.37578e-18
4.11982e-11
-2.50956e-10
8.62947e-18
3.91555e-11
-2.46597e-10
4.87114e-18
3.6821e-11
-2.40776e-10
2.45891e-19
3.42165e-11
-2.33638e-10
-3.04061e-18
3.13696e-11
-2.25083e-10
-9.04082e-18
2.83116e-11
-2.15135e-10
-1.68961e-17
2.5077e-11
-2.0382e-10
-2.27086e-17
2.17078e-11
-1.91006e-10
-2.66776e-17
1.8252e-11
-1.76689e-10
-2.73474e-17
1.4768e-11
-1.6079e-10
-2.48567e-17
1.13313e-11
-1.43131e-10
-2.11593e-17
8.04188e-12
-1.23499e-10
-1.53913e-17
5.03657e-12
-1.01609e-10
-1.1987e-17
2.5059e-12
-7.70134e-11
-9.25887e-18
7.12116e-13
-4.91986e-11
-1.05142e-17
-1.74406e-11
-1.15432e-17
4.76372e-11
-2.42126e-10
-3.28981e-17
4.81397e-11
-2.46939e-10
-1.24019e-17
4.83243e-11
-2.50758e-10
-4.13042e-18
4.81771e-11
-2.53453e-10
1.77072e-18
4.76869e-11
-2.55101e-10
6.68309e-18
4.685e-11
-2.55479e-10
1.09599e-17
4.5666e-11
-2.54682e-10
1.51248e-17
4.41414e-11
-2.52566e-10
1.56538e-17
4.22877e-11
-2.49102e-10
1.5136e-17
4.01195e-11
-2.44429e-10
9.54552e-18
3.76591e-11
-2.38316e-10
2.66411e-18
3.49308e-11
-2.30909e-10
-5.72293e-19
3.19642e-11
-2.22117e-10
-8.60338e-18
2.87929e-11
-2.11963e-10
-1.82014e-17
2.54533e-11
-2.00481e-10
-2.53169e-17
2.19892e-11
-1.87542e-10
-3.00231e-17
1.84503e-11
-1.73151e-10
-3.0857e-17
1.48967e-11
-1.57236e-10
-2.7989e-17
1.14049e-11
-1.39639e-10
-2.35623e-17
8.0759e-12
-1.2017e-10
-1.69017e-17
5.04648e-12
-9.85794e-11
-1.27156e-17
2.50544e-12
-7.44725e-11
-9.51136e-18
7.10525e-13
-4.74039e-11
-1.06933e-17
-1.67303e-11
-1.14294e-17
4.95135e-11
-2.42888e-10
-2.37007e-17
4.99613e-11
-2.47387e-10
-3.46142e-18
5.00761e-11
-2.50873e-10
6.22527e-18
4.98448e-11
-2.53222e-10
1.28476e-17
4.92579e-11
-2.54514e-10
1.86459e-17
4.83133e-11
-2.54534e-10
2.22323e-17
4.70128e-11
-2.53382e-10
2.52896e-17
4.53649e-11
-2.50918e-10
2.39716e-17
4.33836e-11
-2.4712e-10
2.15185e-17
4.10858e-11
-2.42131e-10
1.38801e-17
3.84963e-11
-2.35726e-10
5.89697e-18
3.56416e-11
-2.28055e-10
1.38449e-18
3.25538e-11
-2.19029e-10
-8.55527e-18
2.92683e-11
-2.08678e-10
-2.02835e-17
2.58236e-11
-1.97037e-10
-2.88992e-17
2.22652e-11
-1.83984e-10
-3.44808e-17
1.86445e-11
-1.69531e-10
-3.55057e-17
1.50227e-11
-1.53615e-10
-3.23057e-17
1.14775e-11
-1.36095e-10
-2.71542e-17
8.11049e-12
-1.16803e-10
-1.95674e-17
5.05787e-12
-9.5527e-11
-1.4524e-17
2.50651e-12
-7.19214e-11
-1.06703e-17
7.09732e-13
-4.56074e-11
-1.15451e-17
-1.60208e-11
-1.24968e-17
5.14421e-11
-2.43605e-10
-1.15315e-17
5.18286e-11
-2.47773e-10
8.04664e-18
5.18665e-11
-2.50911e-10
1.76201e-17
5.15443e-11
-2.52899e-10
2.50893e-17
5.08538e-11
-2.53823e-10
3.10111e-17
4.97951e-11
-2.53475e-10
3.39268e-17
4.83719e-11
-2.51958e-10
3.54688e-17
4.65954e-11
-2.49141e-10
3.22539e-17
4.44817e-11
-2.45006e-10
2.77631e-17
4.20503e-11
-2.397e-10
1.81422e-17
3.93286e-11
-2.33004e-10
7.90919e-18
3.63454e-11
-2.25071e-10
3.31927e-18
3.31349e-11
-2.15819e-10
-8.52161e-18
2.97348e-11
-2.05278e-10
-2.18085e-17
2.61852e-11
-1.93487e-10
-3.15286e-17
2.25336e-11
-1.80333e-10
-3.76717e-17
1.88324e-11
-1.6583e-10
-3.8754e-17
1.51443e-11
-1.49928e-10
-3.51341e-17
1.15478e-11
-1.32499e-10
-2.92661e-17
8.14444e-12
-1.134e-10
-2.07958e-17
5.06982e-12
-9.24526e-11
-1.49363e-17
2.50852e-12
-6.93603e-11
-1.0507e-17
7.09497e-13
-4.38086e-11
-1.12099e-17
-1.53116e-11
-1.18767e-17
5.3421e-11
-2.44271e-10
3.6502e-18
5.3739e-11
-2.48091e-10
2.08713e-17
5.36927e-11
-2.50864e-10
3.06915e-17
5.32721e-11
-2.52478e-10
3.77584e-17
5.24709e-11
-2.53022e-10
4.39658e-17
5.12914e-11
-2.52295e-10
4.55548e-17
4.97394e-11
-2.50406e-10
4.56755e-17
4.78285e-11
-2.4723e-10
4.02985e-17
4.55779e-11
-2.42754e-10
3.37654e-17
4.3009e-11
-2.37131e-10
2.20298e-17
4.01522e-11
-2.30147e-10
1.07181e-17
3.70384e-11
-2.21958e-10
4.81319e-18
3.37041e-11
-2.12485e-10
-8.68135e-18
3.01892e-11
-2.01763e-10
-2.37725e-17
2.65354e-11
-1.89834e-10
-3.47133e-17
2.27917e-11
-1.76589e-10
-4.15347e-17
1.9012e-11
-1.62051e-10
-4.27344e-17
1.52598e-11
-1.46176e-10
-3.8798e-17
1.16142e-11
-1.28853e-10
-3.22877e-17
8.17655e-12
-1.09963e-10
-2.29603e-17
5.08145e-12
-8.93578e-11
-1.62428e-17
2.51091e-12
-6.67899e-11
-1.10896e-17
7.09596e-13
-4.20075e-11
-1.13902e-17
-1.46022e-11
-1.22613e-17
5.54483e-11
-2.44877e-10
1.98271e-17
5.56898e-11
-2.48332e-10
3.55359e-17
5.55513e-11
-2.50726e-10
4.43547e-17
5.50246e-11
-2.5195e-10
5.12921e-17
5.41052e-11
-2.52102e-10
5.68859e-17
5.27977e-11
-2.50986e-10
5.72362e-17
5.11106e-11
-2.48718e-10
5.55903e-17
4.90599e-11
-2.45178e-10
4.81197e-17
4.66675e-11
-2.40361e-10
3.95401e-17
4.39575e-11
-2.34421e-10
2.58561e-17
4.09628e-11
-2.27152e-10
1.24877e-17
3.77167e-11
-2.18711e-10
6.3525e-18
3.42579e-11
-2.09026e-10
-8.65913e-18
3.06283e-11
-1.98134e-10
-2.48843e-17
2.68712e-11
-1.86078e-10
-3.65789e-17
2.30371e-11
-1.72756e-10
-4.37421e-17
1.91811e-11
-1.58196e-10
-4.49464e-17
1.53674e-11
-1.42363e-10
-4.06763e-17
1.16752e-11
-1.25162e-10
-3.36158e-17
8.20564e-12
-1.06494e-10
-2.35538e-17
5.09186e-12
-8.62443e-11
-1.60825e-17
2.51313e-12
-6.42114e-11
-1.03067e-17
7.09824e-13
-4.02044e-11
-1.03503e-17
-1.38925e-11
-1.09533e-17
5.69831e-11
-2.41327e-10
-7.3179e-18
5.75214e-11
-2.45415e-10
3.93351e-17
5.7678e-11
-2.48488e-10
5.117e-17
5.74389e-11
-2.50486e-10
5.95988e-17
5.67978e-11
-2.51308e-10
6.49251e-17
5.57524e-11
-2.51056e-10
7.01632e-17
5.43098e-11
-2.49543e-10
6.85347e-17
5.2481e-11
-2.46889e-10
6.53443e-17
5.02849e-11
-2.42982e-10
5.55525e-17
4.77461e-11
-2.37822e-10
4.50551e-17
4.48914e-11
-2.31566e-10
2.93567e-17
4.17563e-11
-2.24016e-10
1.50798e-17
3.83764e-11
-2.15332e-10
7.57728e-18
3.47927e-11
-2.05443e-10
-8.63357e-18
3.10488e-11
-1.9439e-10
-2.61456e-17
2.71898e-11
-1.82219e-10
-3.86677e-17
2.32674e-11
-1.68834e-10
-4.62959e-17
1.93376e-11
-1.54267e-10
-4.76044e-17
1.54651e-11
-1.38491e-10
-4.3142e-17
1.17293e-11
-1.21426e-10
-3.56544e-17
8.23052e-12
-1.02996e-10
-2.49177e-17
5.10021e-12
-8.31143e-11
-1.66815e-17
2.51467e-12
-6.1626e-11
-1.01417e-17
7.0999e-13
-3.83999e-11
-9.71002e-18
-1.31827e-11
-1.05161e-17
5.8333e-11
-2.37484e-10
-4.90017e-17
5.9176e-11
-2.4217e-10
3.76889e-17
5.96377e-11
-2.45876e-10
6.44007e-17
5.97004e-11
-2.4855e-10
6.98322e-17
5.93517e-11
-2.50137e-10
7.55169e-17
5.85875e-11
-2.50543e-10
7.94747e-17
5.74079e-11
-2.49876e-10
8.32448e-17
5.58227e-11
-2.47957e-10
7.97789e-17
5.38456e-11
-2.44911e-10
7.46636e-17
5.14986e-11
-2.40634e-10
6.26981e-17
4.8809e-11
-2.35131e-10
5.03105e-17
4.58062e-11
-2.28563e-10
3.28451e-17
4.25284e-11
-2.20738e-10
1.68028e-17
3.90136e-11
-2.11817e-10
8.91172e-18
3.53049e-11
-2.01734e-10
-8.29707e-18
3.14476e-11
-1.90533e-10
-2.63895e-17
2.74883e-11
-1.7826e-10
-3.92419e-17
2.348e-11
-1.64826e-10
-4.70008e-17
1.94793e-11
-1.50267e-10
-4.8311e-17
1.55512e-11
-1.34564e-10
-4.3686e-17
1.1775e-11
-1.17651e-10
-3.59018e-17
8.25004e-12
-9.94709e-11
-2.46656e-17
5.10567e-12
-7.99701e-11
-1.57918e-17
2.51505e-12
-5.90355e-11
-8.62712e-18
7.09917e-13
-3.65949e-11
-7.86672e-18
-1.24729e-11
-8.44392e-18
6.0643e-11
-2.38636e-10
5.49387e-17
6.14189e-11
-2.42945e-10
9.30063e-17
6.17943e-11
-2.46251e-10
9.52515e-17
6.17533e-11
-2.48508e-10
9.01088e-17
6.12855e-11
-2.49669e-10
9.34886e-17
6.03891e-11
-2.49645e-10
9.42734e-17
5.90669e-11
-2.48553e-10
9.67833e-17
5.73315e-11
-2.4622e-10
9.06148e-17
5.51995e-11
-2.42779e-10
8.37796e-17
5.26959e-11
-2.3813e-10
6.94084e-17
4.9851e-11
-2.32285e-10
5.52841e-17
4.6697e-11
-2.25409e-10
3.60181e-17
4.32746e-11
-2.17315e-10
1.92875e-17
3.96241e-11
-2.08166e-10
1.00022e-17
3.57907e-11
-1.97901e-10
-7.88655e-18
3.18213e-11
-1.86564e-10
-2.66802e-17
2.77639e-11
-1.74204e-10
-3.99534e-17
2.36723e-11
-1.60735e-10
-4.79778e-17
1.9604e-11
-1.46199e-10
-4.94065e-17
1.5624e-11
-1.30584e-10
-4.4768e-17
1.18109e-11
-1.13838e-10
-3.67992e-17
8.26307e-12
-9.59235e-11
-2.51258e-17
5.10744e-12
-7.68148e-11
-1.5599e-17
2.5138e-12
-5.6442e-11
-7.67855e-18
7.0944e-13
-3.47907e-11
-6.38638e-18
-1.17636e-11
-7.16284e-18
6.30104e-11
-2.39732e-10
1.37758e-16
6.37089e-11
-2.43642e-10
1.42694e-16
6.39878e-11
-2.46529e-10
1.24684e-16
6.38328e-11
-2.48352e-10
1.12811e-16
6.32358e-11
-2.49071e-10
1.12339e-16
6.21978e-11
-2.48605e-10
1.10376e-16
6.07241e-11
-2.47079e-10
1.10222e-16
5.88307e-11
-2.44325e-10
1.01499e-16
5.65372e-11
-2.40484e-10
9.24037e-17
5.38716e-11
-2.35463e-10
7.57961e-17
5.08673e-11
-2.2928e-10
5.98994e-17
4.75591e-11
-2.22101e-10
3.91178e-17
4.39905e-11
-2.13746e-10
2.09217e-17
4.02039e-11
-2.0438e-10
1.11608e-17
3.62463e-11
-1.93944e-10
-7.20109e-18
3.21665e-11
-1.82484e-10
-2.60295e-17
2.80135e-11
-1.70051e-10
-3.92317e-17
2.3842e-11
-1.56564e-10
-4.71944e-17
1.97097e-11
-1.42067e-10
-4.86225e-17
1.56816e-11
-1.26557e-10
-4.39975e-17
1.18356e-11
-1.09993e-10
-3.59638e-17
8.2685e-12
-9.23567e-11
-2.4026e-17
5.10475e-12
-7.36512e-11
-1.39882e-17
2.51047e-12
-5.38478e-11
-5.46836e-18
7.08408e-13
-3.29886e-11
-3.79109e-18
-1.10552e-11
-4.36019e-18
6.54329e-11
-2.4076e-10
1.88834e-16
6.60432e-11
-2.44251e-10
1.7559e-16
6.62144e-11
-2.46699e-10
1.52816e-16
6.59344e-11
-2.48071e-10
1.361e-16
6.51977e-11
-2.48333e-10
1.33497e-16
6.40081e-11
-2.47414e-10
1.26893e-16
6.23741e-11
-2.45444e-10
1.24231e-16
6.03148e-11
-2.42265e-10
1.11989e-16
5.78531e-11
-2.38022e-10
1.00746e-16
5.50202e-11
-2.3263e-10
8.16295e-17
5.18525e-11
-2.26111e-10
6.40813e-17