/*--------------------------------*- C++ -*----------------------------------*\
| =========                 |                                                 |
| \\      /  F ield         | OpenFOAM: The Open Source CFD Toolbox           |
|  \\    /   O peration     | Version:  v2012                                 |
|   \\  /    A nd           | Website:  www.openfoam.com                      |
|    \\/     M anipulation  |                                                 |
\*---------------------------------------------------------------------------*/
FoamFile
{
    version     2.0;
    format      ascii;
    class       volVectorField;
    location    "0.6";
    object      U;
}
// * * * * * * * * * * * * * * * * * * * * * * * * * * * * * * * * * * * * * //

dimensions      [0 1 -1 0 0 0 0];


internalField   nonuniform List<vector> 
2642
(
(0.000548986 -0.0030558 -4.79177e-06)
(0.000545638 -0.00293415 -4.76258e-06)
(0.000539584 -0.0028087 -4.70978e-06)
(0.000530775 -0.00267998 -4.63293e-06)
(0.000519192 -0.00254854 -4.53188e-06)
(0.000504851 -0.00241495 -4.40675e-06)
(0.000487803 -0.00227984 -4.25799e-06)
(0.000468133 -0.00214383 -4.08635e-06)
(0.00044597 -0.00200757 -3.89295e-06)
(0.000421475 -0.00187168 -3.67918e-06)
(0.000394845 -0.00173674 -3.44678e-06)
(0.000366316 -0.00160331 -3.1978e-06)
(0.000336157 -0.00147189 -2.93458e-06)
(0.000304667 -0.00134287 -2.65974e-06)
(0.000272171 -0.0012165 -2.37611e-06)
(0.000239023 -0.00109293 -2.08679e-06)
(0.000205607 -0.000972086 -1.79512e-06)
(0.000172331 -0.000853633 -1.50466e-06)
(0.000139635 -0.000736896 -1.21925e-06)
(0.000108 -0.000620717 -9.43087e-07)
(7.79776e-05 -0.000503213 -6.8099e-07)
(5.01544e-05 -0.000381315 -4.38075e-07)
(2.55724e-05 -0.00025009 -2.23519e-07)
(4.66898e-06 -9.85426e-05 -4.3981e-08)
(0.000552647 -0.00307232 -4.82357e-06)
(0.000549007 -0.00294782 -4.79183e-06)
(0.000542666 -0.00281966 -4.73652e-06)
(0.000533575 -0.00268836 -4.65721e-06)
(0.000521717 -0.00255447 -4.55375e-06)
(0.000507108 -0.00241861 -4.42628e-06)
(0.000489799 -0.00228139 -4.27525e-06)
(0.000469879 -0.00214346 -4.10142e-06)
(0.000447476 -0.00200548 -3.90594e-06)
(0.000422753 -0.00186805 -3.6902e-06)
(0.000395908 -0.00173177 -3.45593e-06)
(0.000367179 -0.00159722 -3.20522e-06)
(0.000336833 -0.00146486 -2.94039e-06)
(0.000305172 -0.0013351 -2.66406e-06)
(0.000272518 -0.0012082 -2.37908e-06)
(0.000239227 -0.00108427 -2.08853e-06)
(0.000205681 -0.000963244 -1.79575e-06)
(0.000172287 -0.000844793 -1.50427e-06)
(0.000139482 -0.00072823 -1.21794e-06)
(0.000107745 -0.0006124 -9.40912e-07)
(7.76256e-05 -0.000495426 -6.77997e-07)
(4.96964e-05 -0.000374278 -4.34186e-07)
(2.50191e-05 -0.000244033 -2.18919e-07)
(4.11232e-06 -9.45816e-05 -4.06407e-08)
(0.000558942 -0.00308612 -4.87856e-06)
(0.000554945 -0.00295947 -4.8437e-06)
(0.000548222 -0.00282915 -4.78505e-06)
(0.00053873 -0.00269572 -4.70223e-06)
(0.000526456 -0.00255976 -4.59513e-06)
(0.00051142 -0.00242189 -4.46393e-06)
(0.00049368 -0.00228277 -4.30913e-06)
(0.000473328 -0.00214304 -4.13153e-06)
(0.000450499 -0.00200339 -3.93233e-06)
(0.00042536 -0.00186444 -3.71294e-06)
(0.000398112 -0.00172681 -3.47516e-06)
(0.000368997 -0.00159107 -3.22108e-06)
(0.000338286 -0.0014577 -2.95306e-06)
(0.000306282 -0.00132712 -2.67375e-06)
(0.00027331 -0.00119957 -2.38599e-06)
(0.000239725 -0.00107519 -2.09287e-06)
(0.00020591 -0.000953904 -1.79773e-06)
(0.000172268 -0.000835377 -1.5041e-06)
(0.000139236 -0.000718928 -1.21579e-06)
(0.000107289 -0.000603407 -9.36945e-07)
(7.69762e-05 -0.000486947 -6.72344e-07)
(4.88699e-05 -0.000366568 -4.27e-07)
(2.40725e-05 -0.000237384 -2.10704e-07)
(3.58086e-06 -9.03664e-05 -3.6149e-08)
(0.00056778 -0.00309941 -4.95569e-06)
(0.000563306 -0.00297055 -4.91667e-06)
(0.000556072 -0.00283808 -4.85357e-06)
(0.000546039 -0.00270256 -4.76603e-06)
(0.0005332 -0.00256459 -4.65401e-06)
(0.000517582 -0.00242481 -4.51773e-06)
(0.000499248 -0.00228388 -4.35775e-06)
(0.000478299 -0.00214247 -4.17494e-06)
(0.000454876 -0.00200128 -3.97055e-06)
(0.000429152 -0.00186095 -3.74606e-06)
(0.000401336 -0.00172208 -3.50331e-06)
(0.000371674 -0.00158526 -3.24446e-06)
(0.000340442 -0.00145099 -2.97189e-06)
(0.000307947 -0.00131966 -2.68829e-06)
(0.000274517 -0.00119155 -2.39653e-06)
(0.000240508 -0.00106677 -2.09971e-06)
(0.000206303 -0.000945258 -1.80117e-06)
(0.000172304 -0.000826672 -1.50443e-06)
(0.000138948 -0.000710336 -1.21328e-06)
(0.000106708 -0.000595104 -9.31874e-07)
(7.61361e-05 -0.00047912 -6.65013e-07)
(4.78309e-05 -0.000359461 -4.17925e-07)
(2.29608e-05 -0.000231333 -2.00986e-07)
(3.12554e-06 -8.67354e-05 -3.18047e-08)
(0.000579063 -0.0031128 -5.05418e-06)
(0.000574001 -0.00298167 -5.01003e-06)
(0.000566131 -0.00284697 -4.94137e-06)
(0.00055542 -0.00270931 -4.84792e-06)
(0.00054187 -0.00256929 -4.72969e-06)
(0.000525515 -0.00242757 -4.58698e-06)
(0.000506428 -0.00228481 -4.42043e-06)
(0.000484719 -0.00214172 -4.23099e-06)
(0.000460538 -0.00199899 -4.01998e-06)
(0.000434067 -0.00185726 -3.78897e-06)
(0.000405523 -0.00171717 -3.53988e-06)
(0.00037516 -0.0015793 -3.2749e-06)
(0.00034326 -0.00144415 -2.9965e-06)
(0.000310136 -0.00131212 -2.70741e-06)
(0.000276118 -0.00118347 -2.41051e-06)
(0.000241565 -0.00105832 -2.10895e-06)
(0.000206862 -0.000936606 -1.80606e-06)
(0.00017241 -0.000817988 -1.50536e-06)
(0.000138647 -0.000701786 -1.21066e-06)
(0.000106049 -0.000586863 -9.26123e-07)
(7.51762e-05 -0.000471374 -6.56638e-07)
(4.66774e-05 -0.000352464 -4.07856e-07)
(2.18054e-05 -0.000225499 -1.9088e-07)
(2.71268e-06 -8.34223e-05 -2.78476e-08)
(0.000592681 -0.00312618 -5.17304e-06)
(0.000586926 -0.00299273 -5.12284e-06)
(0.000578301 -0.00285578 -5.0476e-06)
(0.000566784 -0.00271594 -4.94711e-06)
(0.000552383 -0.00257383 -4.82146e-06)
(0.000535144 -0.00243013 -4.67104e-06)
(0.000515153 -0.00228553 -4.49659e-06)
(0.000492528 -0.00214072 -4.29916e-06)
(0.000467434 -0.00199644 -4.08017e-06)
(0.00044006 -0.00185332 -3.8413e-06)
(0.000410637 -0.001712 -3.58452e-06)
(0.000379426 -0.00157308 -3.31215e-06)
(0.000346718 -0.00143705 -3.02669e-06)
(0.000312832 -0.00130432 -2.73095e-06)
(0.000278104 -0.00117514 -2.42786e-06)
(0.000242896 -0.00104964 -2.12058e-06)
(0.000207594 -0.000927744 -1.81246e-06)
(0.000172604 -0.000809111 -1.50706e-06)
(0.000138361 -0.000693063 -1.20817e-06)
(0.000105351 -0.00057847 -9.20044e-07)
(7.41521e-05 -0.000463509 -6.47705e-07)
(4.54769e-05 -0.000345408 -3.97378e-07)
(2.06702e-05 -0.000219737 -1.8095e-07)
(2.34594e-06 -8.03062e-05 -2.43461e-08)
(0.000608532 -0.00313956 -5.3114e-06)
(0.000601982 -0.00300373 -5.25426e-06)
(0.000592489 -0.00286446 -5.17144e-06)
(0.00058004 -0.00272239 -5.06282e-06)
(0.000564655 -0.00257815 -4.92858e-06)
(0.000546393 -0.00243245 -4.76923e-06)
(0.000525351 -0.00228597 -4.58562e-06)
(0.000501663 -0.00213945 -4.37891e-06)
(0.000475506 -0.0019936 -4.15064e-06)
(0.000447083 -0.00184908 -3.90261e-06)
(0.000416636 -0.00170654 -3.6369e-06)
(0.000384439 -0.00156658 -3.35592e-06)
(0.000350792 -0.00142968 -3.06226e-06)
(0.000316021 -0.00129626 -2.75879e-06)
(0.000280468 -0.00116657 -2.44851e-06)
(0.000244502 -0.00104073 -2.1346e-06)
(0.00020851 -0.000918671 -1.82046e-06)
(0.000172901 -0.000800041 -1.50966e-06)
(0.000138117 -0.000684167 -1.20605e-06)
(0.000104654 -0.000569931 -9.13963e-07)
(7.31113e-05 -0.000455537 -6.38625e-07)
(4.4281e-05 -0.000338308 -3.86938e-07)
(1.95944e-05 -0.000214059 -1.71547e-07)
(2.02494e-06 -7.73709e-05 -2.12637e-08)
(0.000626528 -0.00315293 -5.46848e-06)
(0.000619082 -0.00301465 -5.40352e-06)
(0.000608609 -0.002873 -5.31215e-06)
(0.000595106 -0.00272864 -5.19434e-06)
(0.000578608 -0.00258224 -5.05038e-06)
(0.000559187 -0.00243449 -4.88091e-06)
(0.000536955 -0.00228612 -4.68691e-06)
(0.000512061 -0.00213785 -4.46968e-06)
(0.000484699 -0.00199043 -4.2309e-06)
(0.000455087 -0.00184452 -3.97248e-06)
(0.00042348 -0.00170076 -3.69665e-06)
(0.000390165 -0.00155976 -3.40591e-06)
(0.000355453 -0.00142201 -3.10296e-06)
(0.000319681 -0.00128792 -2.79076e-06)
(0.000283199 -0.00115774 -2.47236e-06)
(0.000246378 -0.00103159 -2.15099e-06)
(0.000209614 -0.000909381 -1.83011e-06)
(0.000173317 -0.000790779 -1.51331e-06)
(0.000137937 -0.000675107 -1.20449e-06)
(0.000103987 -0.00056126 -9.08151e-07)
(7.20922e-05 -0.000447481 -6.29735e-07)
(4.31275e-05 -0.000331196 -3.76871e-07)
(1.86012e-05 -0.000208488 -1.62856e-07)
(1.74943e-06 -7.46134e-05 -1.8619e-08)
(0.000646588 -0.0031663 -5.64357e-06)
(0.000638147 -0.00302548 -5.56993e-06)
(0.000626583 -0.00288139 -5.46903e-06)
(0.000611907 -0.00273468 -5.34099e-06)
(0.000594169 -0.00258605 -5.18621e-06)
(0.000573456 -0.00243622 -5.00547e-06)
(0.000549898 -0.00228593 -4.7999e-06)
(0.000523662 -0.0021359 -4.57095e-06)
(0.000494958 -0.00198689 -4.32046e-06)
(0.000464022 -0.00183958 -4.05049e-06)
(0.000431125 -0.00169461 -3.76339e-06)
(0.000396568 -0.00155258 -3.46181e-06)
(0.000360675 -0.001414 -3.14856e-06)
(0.000323794 -0.00127926 -2.82668e-06)
(0.000286283 -0.00114861 -2.49929e-06)
(0.000248521 -0.00102217 -2.16971e-06)
(0.000210907 -0.000899852 -1.84141e-06)
(0.000173862 -0.000781307 -1.51807e-06)
(0.00013784 -0.00066587 -1.20366e-06)
(0.000103376 -0.000552454 -9.02827e-07)
(7.11244e-05 -0.000439343 -6.21292e-07)
(4.20428e-05 -0.000324082 -3.67401e-07)
(1.77022e-05 -0.000203025 -1.54997e-07)
(1.51534e-06 -7.20174e-05 -1.63477e-08)
(0.000668639 -0.00317968 -5.83604e-06)
(0.000659101 -0.00303623 -5.75283e-06)
(0.000646336 -0.0028896 -5.64146e-06)
(0.000630369 -0.00274048 -5.50214e-06)
(0.000611266 -0.00258957 -5.33545e-06)
(0.000589132 -0.00243762 -5.14231e-06)
(0.000564117 -0.00228536 -4.92402e-06)
(0.000536406 -0.00213355 -4.6822e-06)
(0.000506229 -0.00198294 -4.41886e-06)
(0.000473841 -0.00183423 -4.13621e-06)
(0.000439529 -0.00168805 -3.83677e-06)
(0.000403612 -0.00154502 -3.52332e-06)
(0.000366429 -0.00140562 -3.19879e-06)
(0.000328337 -0.00127025 -2.86634e-06)
(0.000289706 -0.00113917 -2.52918e-06)
(0.000250921 -0.00101247 -2.19067e-06)
(0.000212391 -0.000890063 -1.85438e-06)
(0.000174542 -0.000771611 -1.52402e-06)
(0.000137841 -0.000656447 -1.20367e-06)
(0.000102841 -0.000543506 -8.98162e-07)
(7.02297e-05 -0.000431126 -6.13487e-07)
(4.10441e-05 -0.00031697 -3.58684e-07)
(1.69012e-05 -0.000197666 -1.47987e-07)
(1.31823e-06 -6.95629e-05 -1.44413e-08)
(0.000692615 -0.00319306 -6.04531e-06)
(0.000681879 -0.00304688 -5.95165e-06)
(0.000667802 -0.00289763 -5.82883e-06)
(0.000650426 -0.00274602 -5.67722e-06)
(0.000629834 -0.00259277 -5.49753e-06)
(0.000606152 -0.00243863 -5.29088e-06)
(0.00057955 -0.00228438 -5.05874e-06)
(0.000550235 -0.00213076 -4.80292e-06)
(0.000518457 -0.00197855 -4.52561e-06)
(0.000484493 -0.00182843 -4.22921e-06)
(0.000448649 -0.00168106 -3.91639e-06)
(0.000411261 -0.00153703 -3.5901e-06)
(0.000372683 -0.00139683 -3.2534e-06)
(0.000333286 -0.00126087 -2.90956e-06)
(0.00029345 -0.00112938 -2.56188e-06)
(0.000253571 -0.00100245 -2.21382e-06)
(0.000214063 -0.000879998 -1.86899e-06)
(0.000175363 -0.000761676 -1.5312e-06)
(0.000137948 -0.000646829 -1.20461e-06)
(0.000102395 -0.000534416 -8.94281e-07)
(6.94234e-05 -0.00042283 -6.06454e-07)
(4.01415e-05 -0.000309862 -3.50805e-07)
(1.61968e-05 -0.000192403 -1.41828e-07)
(1.15349e-06 -6.72322e-05 -1.28336e-08)
(0.000718458 -0.00320643 -6.27087e-06)
(0.000706419 -0.00305741 -6.16585e-06)
(0.000690918 -0.00290544 -6.03059e-06)
(0.000672013 -0.00275126 -5.86565e-06)
(0.000649809 -0.00259561 -5.6719e-06)
(0.000624453 -0.00243924 -5.45064e-06)
(0.000596137 -0.00228296 -5.20354e-06)
(0.000565091 -0.00212751 -4.93261e-06)
(0.00053159 -0.00197368 -4.64026e-06)
(0.000495931 -0.00182216 -4.32906e-06)
(0.000458441 -0.00167359 -4.00189e-06)
(0.000419477 -0.00152858 -3.66183e-06)
(0.000379406 -0.00138762 -3.31211e-06)
(0.000338617 -0.00125109 -2.95611e-06)
(0.000297499 -0.00111922 -2.59723e-06)
(0.000256458 -0.000992101 -2.23903e-06)
(0.000215918 -0.000869642 -1.88519e-06)
(0.000176325 -0.000751494 -1.5396e-06)
(0.000138168 -0.000637012 -1.20655e-06)
(0.000102049 -0.000525181 -8.91267e-07)
(6.87153e-05 -0.000414459 -6.00278e-07)
(3.93398e-05 -0.000302759 -3.43807e-07)
(1.55848e-05 -0.00018723 -1.36473e-07)
(1.01681e-06 -6.50084e-05 -1.15021e-08)
(0.000746113 -0.0032198 -6.51226e-06)
(0.000732664 -0.00306782 -6.39493e-06)
(0.000715623 -0.00291303 -6.24624e-06)
(0.00069507 -0.00275619 -6.06691e-06)
(0.00067113 -0.00259806 -5.85801e-06)
(0.000643974 -0.00243941 -5.62104e-06)
(0.000613818 -0.00228105 -5.35789e-06)
(0.000580918 -0.00212375 -5.07078e-06)
(0.000545574 -0.00196829 -4.76234e-06)
(0.000508105 -0.00181536 -4.43535e-06)
(0.000468862 -0.00166562 -4.09286e-06)
(0.00042822 -0.00151966 -3.73817e-06)
(0.000386566 -0.00137795 -3.37462e-06)
(0.000344302 -0.00124088 -3.00575e-06)
(0.00030183 -0.00110867 -2.63507e-06)
(0.000259568 -0.000981405 -2.2662e-06)
(0.000217948 -0.000858983 -1.90293e-06)
(0.000177426 -0.000741056 -1.54923e-06)
(0.000138504 -0.000626989 -1.20949e-06)
(0.000101808 -0.000515801 -8.89168e-07)
(6.81106e-05 -0.000406012 -5.95004e-07)
(3.86397e-05 -0.000295662 -3.37695e-07)
(1.50591e-05 -0.000182136 -1.31876e-07)
(9.04186e-07 -6.28763e-05 -1.0398e-08)
(0.000775532 -0.00323313 -6.76905e-06)
(0.000760561 -0.00307807 -6.63843e-06)
(0.000741863 -0.00292036 -6.47528e-06)
(0.000719539 -0.00276077 -6.28049e-06)
(0.000693737 -0.00260008 -6.05535e-06)
(0.000664656 -0.0024391 -5.80158e-06)
(0.000632536 -0.00227863 -5.52129e-06)
(0.000597661 -0.00211945 -5.21694e-06)
(0.000560356 -0.00196235 -4.89138e-06)
(0.000520966 -0.00180802 -4.54763e-06)
(0.000479866 -0.00165711 -4.18893e-06)
(0.000437451 -0.00151021 -3.81876e-06)
(0.000394128 -0.00136779 -3.44065e-06)
(0.000350314 -0.00123022 -3.05825e-06)
(0.000306424 -0.00109772 -2.67518e-06)
(0.000262886 -0.000970348 -2.29518e-06)
(0.000220144 -0.000848009 -1.92211e-06)
(0.000178662 -0.000730354 -1.56003e-06)
(0.000138956 -0.00061676 -1.21345e-06)
(0.000101673 -0.000506276 -8.88002e-07)
(6.76106e-05 -0.000397491 -5.90644e-07)
(3.80391e-05 -0.000288567 -3.32453e-07)
(1.46127e-05 -0.000177111 -1.27969e-07)
(8.12054e-07 -6.08217e-05 -9.49489e-09)
(0.000806672 -0.00324643 -7.04085e-06)
(0.000790062 -0.00308815 -6.89593e-06)
(0.000769584 -0.0029274 -6.71726e-06)
(0.000745364 -0.00276497 -6.50592e-06)
(0.000717574 -0.00260166 -6.26343e-06)
(0.00068644 -0.00243828 -5.99174e-06)
(0.000652232 -0.00227565 -5.69323e-06)
(0.000615261 -0.00211457 -5.37059e-06)
(0.000575881 -0.00195582 -5.02692e-06)
(0.000534464 -0.00180009 -4.66546e-06)
(0.000491407 -0.00164804 -4.28969e-06)
(0.000447129 -0.00150023 -3.90327e-06)
(0.000402057 -0.00135713 -3.50988e-06)
(0.000356622 -0.0012191 -3.11334e-06)
(0.000311256 -0.00108634 -2.71737e-06)
(0.000266395 -0.000958917 -2.32582e-06)
(0.000222493 -0.000836712 -1.94263e-06)
(0.000180025 -0.000719383 -1.57195e-06)
(0.000139521 -0.000606319 -1.21839e-06)
(0.000101644 -0.000496604 -8.87755e-07)
(6.72136e-05 -0.000388896 -5.87183e-07)
(3.75335e-05 -0.000281473 -3.28039e-07)
(1.4238e-05 -0.000172147 -1.24692e-07)
(7.37253e-07 -5.88321e-05 -8.75871e-09)
(0.000839493 -0.00325966 -7.32733e-06)
(0.000821122 -0.00309804 -7.16704e-06)
(0.000798738 -0.00293413 -6.97173e-06)
(0.000772491 -0.00276876 -6.74271e-06)
(0.000742585 -0.00260274 -6.48174e-06)
(0.00070927 -0.00243691 -6.19103e-06)
(0.00067285 -0.00227209 -5.87321e-06)
(0.000633664 -0.00210908 -5.53124e-06)
(0.000592097 -0.00194867 -5.16848e-06)
(0.000548547 -0.00179156 -4.78841e-06)
(0.000503438 -0.00163837 -4.39473e-06)
(0.000457213 -0.00148968 -3.9913e-06)
(0.000410315 -0.00134594 -3.58199e-06)
(0.000363197 -0.00120749 -3.17074e-06)
(0.0003163 -0.00107453 -2.76142e-06)
(0.000270074 -0.000947099 -2.35795e-06)
(0.000224981 -0.000825084 -1.96436e-06)
(0.000181507 -0.000708138 -1.5849e-06)
(0.000140192 -0.000595667 -1.22426e-06)
(0.000101716 -0.000486787 -8.88394e-07)
(6.69154e-05 -0.000380225 -5.84585e-07)
(3.7117e-05 -0.000274374 -3.24404e-07)
(1.39277e-05 -0.000167232 -1.21978e-07)
(6.77048e-07 -5.68965e-05 -8.16568e-09)
(0.000873958 -0.00327281 -7.62815e-06)
(0.000853697 -0.00310769 -7.45138e-06)
(0.000829274 -0.0029405 -7.23828e-06)
(0.000800869 -0.00277209 -6.99042e-06)
(0.000768712 -0.00260329 -6.70982e-06)
(0.000733089 -0.00243494 -6.39895e-06)
(0.000694332 -0.00226789 -6.06073e-06)
(0.000652812 -0.00210294 -5.6984e-06)
(0.000608947 -0.00194087 -5.31559e-06)
(0.000563164 -0.00178237 -4.91602e-06)
(0.000515911 -0.00162807 -4.50363e-06)
(0.000467657 -0.00147854 -4.08249e-06)
(0.000418866 -0.0013342 -3.65665e-06)
(0.000370005 -0.00119538 -3.23019e-06)
(0.00032153 -0.00106227 -2.8071e-06)
(0.000273902 -0.000934886 -2.39139e-06)
(0.000227592 -0.000813119 -1.98717e-06)
(0.000183096 -0.000696617 -1.59878e-06)
(0.000140961 -0.000584801 -1.23098e-06)
(0.000101884 -0.000476823 -8.89864e-07)
(6.67101e-05 -0.000371478 -5.82797e-07)
(3.67828e-05 -0.000267268 -3.21487e-07)
(1.36745e-05 -0.000162359 -1.19762e-07)
(6.29068e-07 -5.5005e-05 -7.692e-09)
(0.000910032 -0.00328584 -7.94303e-06)
(0.000887746 -0.00311708 -7.74858e-06)
(0.000861147 -0.00294649 -7.51649e-06)
(0.000830445 -0.00277494 -7.24859e-06)
(0.000795903 -0.00260327 -6.94717e-06)
(0.000757838 -0.00243235 -6.615e-06)
(0.000716619 -0.00226303 -6.25529e-06)
(0.000672649 -0.0020961 -5.87157e-06)
(0.000626377 -0.00193237 -5.46775e-06)
(0.000578261 -0.00177251 -5.04783e-06)
(0.000528777 -0.00161713 -4.61597e-06)
(0.000478418 -0.00146678 -4.17645e-06)
(0.000427668 -0.00132189 -3.73351e-06)
(0.000377012 -0.00118275 -3.29137e-06)
(0.000326917 -0.00104954 -2.85414e-06)
(0.000277856 -0.00092227 -2.42592e-06)
(0.000230309 -0.000800811 -2.0109e-06)
(0.000184777 -0.000684817 -1.61347e-06)
(0.000141818 -0.000573723 -1.23848e-06)
(0.000102138 -0.000466715 -8.92094e-07)
(6.659e-05 -0.000362655 -5.81753e-07)
(3.6523e-05 -0.000260149 -3.19221e-07)
(1.34714e-05 -0.000157518 -1.17986e-07)
(5.91295e-07 -5.3149e-05 -7.31878e-09)
(0.000947684 -0.00329872 -8.27167e-06)
(0.000923229 -0.00312617 -8.0583e-06)
(0.00089431 -0.00295204 -7.80596e-06)
(0.000861168 -0.00277724 -7.51677e-06)
(0.000824101 -0.00260263 -7.19331e-06)
(0.000783461 -0.00242908 -6.83867e-06)
(0.000739652 -0.00225745 -6.45637e-06)
(0.000693114 -0.00208855 -6.05023e-06)
(0.000644329 -0.00192316 -5.62448e-06)
(0.000593785 -0.00176194 -5.18336e-06)
(0.000541986 -0.00160551 -4.73129e-06)
(0.00048945 -0.00145439 -4.27277e-06)
(0.000436682 -0.00130899 -3.81221e-06)
(0.000384182 -0.00116959 -3.35398e-06)
(0.000332432 -0.00103634 -2.9023e-06)
(0.000281912 -0.000909245 -2.46135e-06)
(0.000233111 -0.000788158 -2.03538e-06)
(0.000186537 -0.000672737 -1.62884e-06)
(0.000142752 -0.000562431 -1.24664e-06)
(0.00010247 -0.000456461 -8.94997e-07)
(6.65464e-05 -0.000353755 -5.81377e-07)
(3.63298e-05 -0.000253013 -3.17535e-07)
(1.3312e-05 -0.000152701 -1.16592e-07)
(5.61996e-07 -5.13211e-05 -7.02904e-09)
(0.000986883 -0.00331141 -8.61382e-06)
(0.000960108 -0.00313491 -8.3802e-06)
(0.000928717 -0.00295712 -8.10629e-06)
(0.000892986 -0.00277896 -7.79451e-06)
(0.00085325 -0.00260133 -7.44776e-06)
(0.000809899 -0.00242509 -7.06946e-06)
(0.000763373 -0.00225113 -6.66344e-06)
(0.00071415 -0.00208023 -6.23387e-06)
(0.000662745 -0.00191318 -5.78525e-06)
(0.00060968 -0.00175064 -5.32212e-06)
(0.000555486 -0.00159319 -4.84915e-06)
(0.000500706 -0.00144135 -4.37104e-06)
(0.000445864 -0.00129549 -3.89238e-06)
(0.000391478 -0.00115589 -3.4177e-06)
(0.000338041 -0.00102266 -2.95128e-06)
(0.000286043 -0.000895804 -2.49742e-06)
(0.000235977 -0.000775158 -2.06042e-06)
(0.000188357 -0.000660378 -1.64475e-06)
(0.000143748 -0.000550929 -1.25534e-06)
(0.000102868 -0.000446064 -8.98479e-07)
(6.65698e-05 -0.000344776 -5.81585e-07)
(3.61948e-05 -0.000245858 -3.16358e-07)
(1.31901e-05 -0.000147902 -1.15525e-07)
(5.39705e-07 -4.95149e-05 -6.80861e-09)
(0.0010276 -0.00332385 -8.96922e-06)
(0.000998343 -0.00314324 -8.71395e-06)
(0.000964321 -0.00296166 -8.41708e-06)
(0.000925846 -0.00278005 -8.08135e-06)
(0.000883293 -0.00259931 -7.71002e-06)
(0.000837091 -0.00242034 -7.30683e-06)
(0.00078772 -0.002244 -6.87598e-06)
(0.000735693 -0.0020711 -6.42194e-06)
(0.000681566 -0.00190241 -5.94956e-06)
(0.000625888 -0.00173856 -5.46363e-06)
(0.000569223 -0.00158014 -4.96908e-06)
(0.000512135 -0.00142762 -4.47084e-06)
(0.000455171 -0.00128137 -3.97365e-06)
(0.000398862 -0.00114163 -3.48217e-06)
(0.000343714 -0.0010085 -3.00082e-06)
(0.000290222 -0.000881945 -2.53392e-06)
(0.000238885 -0.000761809 -2.08582e-06)
(0.00019022 -0.00064774 -1.66102e-06)
(0.000144792 -0.000539217 -1.26447e-06)
(0.00010332 -0.000435526 -9.02434e-07)
(6.66498e-05 -0.00033572 -5.82288e-07)
(3.61097e-05 -0.000238678 -3.15616e-07)
(1.30999e-05 -0.000143114 -1.14736e-07)
(5.23163e-07 -4.77252e-05 -6.64516e-09)
(0.0010698 -0.00333601 -9.3376e-06)
(0.0010379 -0.00315113 -9.0592e-06)
(0.00100108 -0.00296562 -8.73791e-06)
(0.000959696 -0.00278044 -8.37683e-06)
(0.000914172 -0.00259653 -7.97957e-06)
(0.000864976 -0.00241477 -7.55026e-06)
(0.000812628 -0.00223604 -7.09342e-06)
(0.000757682 -0.00206113 -6.6139e-06)
(0.000700729 -0.00189081 -6.11686e-06)
(0.000642351 -0.0017257 -5.60736e-06)
(0.000583141 -0.00156634 -5.0906e-06)
(0.000523689 -0.00141321 -4.57171e-06)
(0.000464557 -0.00126662 -4.0556e-06)
(0.000406295 -0.00112681 -3.54707e-06)
(0.000349414 -0.000993839 -3.0506e-06)
(0.00029442 -0.000867666 -2.57058e-06)
(0.000241811 -0.000748112 -2.11137e-06)
(0.000192107 -0.000634826 -1.6775e-06)
(0.000145869 -0.000527298 -1.27388e-06)
(0.000103814 -0.000424848 -9.06748e-07)
(6.6776e-05 -0.000326585 -5.83394e-07)
(3.60661e-05 -0.000231473 -3.15237e-07)
(1.30363e-05 -0.000138332 -1.1418e-07)
(5.1131e-07 -4.59472e-05 -6.52823e-09)
(0.00111347 -0.00334781 -9.71871e-06)
(0.00107873 -0.00315849 -9.4156e-06)
(0.00103893 -0.00296892 -9.06835e-06)
(0.000994478 -0.00278008 -8.68045e-06)
(0.000945825 -0.00259292 -8.25589e-06)
(0.000893489 -0.00240833 -7.79917e-06)
(0.000838033 -0.00222718 -7.31521e-06)
(0.000780051 -0.00205027 -6.80918e-06)
(0.000720171 -0.00187835 -6.28659e-06)
(0.000659009 -0.001712 -5.75279e-06)
(0.000597185 -0.00155177 -5.21322e-06)
(0.000535314 -0.00139807 -4.67321e-06)
(0.000473976 -0.00125123 -4.13785e-06)
(0.000413734 -0.00111141 -3.61203e-06)
(0.000355108 -0.000978683 -3.10032e-06)
(0.000298606 -0.000852965 -2.60714e-06)
(0.00024473 -0.000734068 -2.13687e-06)
(0.000193996 -0.000621639 -1.69401e-06)
(0.000146961 -0.000515176 -1.28342e-06)
(0.000104335 -0.000414033 -9.11305e-07)
(6.69374e-05 -0.000317374 -5.84806e-07)
(3.60559e-05 -0.000224239 -3.1515e-07)
(1.29941e-05 -0.000133551 -1.13811e-07)
(5.03227e-07 -4.41774e-05 -6.44877e-09)
(0.00115855 -0.00335919 -1.01123e-05)
(0.00112079 -0.00316527 -9.78277e-06)
(0.00107784 -0.00297151 -9.40796e-06)
(0.00103013 -0.00277891 -8.99171e-06)
(0.00097819 -0.00258842 -8.53841e-06)
(0.000922565 -0.00240096 -8.05299e-06)
(0.000863867 -0.00221739 -7.54073e-06)
(0.000802732 -0.00203849 -7.00719e-06)
(0.000739826 -0.00186499 -6.45818e-06)
(0.000675798 -0.00169745 -5.89937e-06)
(0.000611296 -0.0015364 -5.33642e-06)
(0.000546957 -0.00138221 -4.77487e-06)
(0.00048338 -0.00123517 -4.21996e-06)
(0.000421137 -0.00109544 -3.67668e-06)
(0.000360757 -0.000963028 -3.14966e-06)
(0.00030275 -0.000837844 -2.64333e-06)
(0.000247617 -0.000719681 -2.16208e-06)
(0.000195867 -0.000608182 -1.71035e-06)
(0.000148052 -0.000502857 -1.29295e-06)
(0.00010487 -0.000403085 -9.15981e-07)
(6.71228e-05 -0.000308087 -5.86429e-07)
(3.6071e-05 -0.000216975 -3.15283e-07)
(1.2969e-05 -0.000128769 -1.13591e-07)
(4.98142e-07 -4.24127e-05 -6.39905e-09)
(0.00120503 -0.00337007 -1.0518e-05)
(0.00116404 -0.00317139 -1.01603e-05)
(0.00111774 -0.0029733 -9.75626e-06)
(0.0010666 -0.00277685 -9.31006e-06)
(0.0010112 -0.00258298 -8.82657e-06)
(0.000952133 -0.00239262 -8.31111e-06)
(0.000890059 -0.00220662 -7.76938e-06)
(0.000825655 -0.00202574 -7.20731e-06)
(0.000759626 -0.00185069 -6.63104e-06)
(0.000692653 -0.00168202 -6.04653e-06)
(0.000625413 -0.00152021 -5.45967e-06)
(0.000558563 -0.00136561 -4.87621e-06)
(0.000492719 -0.00121846 -4.3015e-06)
(0.000428462 -0.00107888 -3.74064e-06)
(0.000366326 -0.000946872 -3.19828e-06)
(0.00030682 -0.000822304 -2.67888e-06)
(0.000250443 -0.000704955 -2.18677e-06)
(0.000197697 -0.000594462 -1.72634e-06)
(0.000149123 -0.000490344 -1.30231e-06)
(0.000105404 -0.000392009 -9.20651e-07)
(6.73212e-05 -0.000298727 -5.88165e-07)
(3.61036e-05 -0.000209682 -3.1557e-07)
(1.29565e-05 -0.000123982 -1.13483e-07)
(4.95378e-07 -4.06508e-05 -6.37231e-09)
(0.00125287 -0.00338038 -1.09355e-05)
(0.00120844 -0.00317676 -1.05479e-05)
(0.00115858 -0.00297423 -1.01128e-05)
(0.00110382 -0.00277383 -9.63495e-06)
(0.00104478 -0.00257653 -9.11974e-06)
(0.00098212 -0.00238323 -8.57289e-06)
(0.000916534 -0.0021948 -8.00051e-06)
(0.000848746 -0.00201197 -7.4089e-06)
(0.000779499 -0.00183543 -6.80455e-06)
(0.000709508 -0.00166568 -6.19368e-06)
(0.000639474 -0.00150318 -5.58244e-06)
(0.000570075 -0.00134824 -4.97673e-06)
(0.000501942 -0.00120107 -4.38203e-06)
(0.000435663 -0.00106174 -3.80352e-06)
(0.000371774 -0.000930216 -3.24586e-06)
(0.000310783 -0.000806348 -2.71349e-06)
(0.000253183 -0.000689895 -2.2107e-06)
(0.000199465 -0.000580484 -1.74178e-06)
(0.000150156 -0.000477644 -1.31134e-06)
(0.000105923 -0.00038081 -9.2519e-07)
(6.75215e-05 -0.000289298 -5.89917e-07)
(3.61461e-05 -0.00020236 -3.15942e-07)
(1.29528e-05 -0.00011919 -1.1345e-07)
(4.94365e-07 -3.889e-05 -6.36278e-09)
(0.00130202 -0.00339001 -1.13646e-05)
(0.00125393 -0.0031813 -1.09449e-05)
(0.00120029 -0.0029742 -1.04769e-05)
(0.00114172 -0.00276977 -9.96576e-06)
(0.00107887 -0.00256898 -9.41728e-06)
(0.00101245 -0.00237275 -8.83766e-06)
(0.000943215 -0.00218189 -8.23344e-06)
(0.000871929 -0.00199714 -7.6113e-06)
(0.000799374 -0.00181915 -6.97806e-06)
(0.000726293 -0.00164841 -6.34023e-06)
(0.000653415 -0.0014853 -5.70416e-06)
(0.000581436 -0.00133011 -5.07592e-06)
(0.000510997 -0.00118299 -4.4611e-06)
(0.000442694 -0.00104401 -3.86492e-06)
(0.000377063 -0.000913061 -3.29205e-06)
(0.000314606 -0.000789983 -2.74688e-06)
(0.000255808 -0.000674508 -2.23362e-06)
(0.000201147 -0.000566257 -1.75647e-06)
(0.000151133 -0.000464766 -1.31988e-06)
(0.000106413 -0.000369493 -9.29469e-07)
(6.77127e-05 -0.000279803 -5.91588e-07)
(3.6191e-05 -0.000195009 -3.16335e-07)
(1.29541e-05 -0.000114391 -1.13462e-07)
(4.946e-07 -3.71293e-05 -6.36536e-09)
(0.00135245 -0.00339887 -1.18047e-05)
(0.00130045 -0.00318491 -1.1351e-05)
(0.00124281 -0.00297313 -1.08481e-05)
(0.00118022 -0.00276459 -1.03018e-05)
(0.00111337 -0.00256028 -9.71849e-06)
(0.00104304 -0.00236109 -9.1047e-06)
(0.000970021 -0.00216783 -8.46745e-06)
(0.000895125 -0.00198121 -7.8138e-06)
(0.000819172 -0.00180184 -7.15092e-06)
(0.000742936 -0.00163017 -6.48554e-06)
(0.000667169 -0.00146653 -5.82425e-06)
(0.000592584 -0.00131119 -5.17326e-06)
(0.000519831 -0.00116424 -4.53824e-06)
(0.00044951 -0.00102569 -3.92444e-06)
(0.000382152 -0.000895412 -3.33649e-06)
(0.000318255 -0.000773213 -2.77875e-06)
(0.00025829 -0.000658802 -2.2553e-06)
(0.00020272 -0.00055179 -1.77021e-06)
(0.000152035 -0.000451718 -1.32776e-06)
(0.000106858 -0.000358067 -9.33361e-07)
(6.78839e-05 -0.000270247 -5.93086e-07)
(3.62313e-05 -0.000187634 -3.16688e-07)
(1.2957e-05 -0.000109587 -1.13487e-07)
(4.9566e-07 -3.5368e-05 -6.37568e-09)
(0.00145391 -0.00362786 -1.26903e-05)
(0.00140409 -0.00340685 -1.22556e-05)
(0.00134793 -0.00318749 -1.17655e-05)
(0.00128607 -0.00297091 -1.12257e-05)
(0.00121924 -0.00275821 -1.06425e-05)
(0.00114821 -0.00255034 -1.00226e-05)
(0.0010738 -0.0023482 -9.37326e-06)
(0.000996864 -0.00215258 -8.7018e-06)
(0.000918249 -0.00196413 -8.01569e-06)
(0.000838815 -0.00178346 -7.32241e-06)
(0.000759364 -0.00161094 -6.62897e-06)
(0.000680669 -0.00144688 -5.94213e-06)
(0.000603459 -0.00129148 -5.26822e-06)
(0.00052839 -0.00114479 -4.61298e-06)
(0.000456062 -0.00100678 -3.98166e-06)
(0.000387002 -0.000877274 -3.37885e-06)
(0.000321696 -0.000756048 -2.8088e-06)
(0.0002606 -0.000642787 -2.27548e-06)
(0.00020416 -0.000537092 -1.7828e-06)
(0.000152844 -0.000438509 -1.33483e-06)
(0.000107245 -0.00034654 -9.3674e-07)
(6.80245e-05 -0.000260637 -5.94316e-07)
(3.62601e-05 -0.000180237 -3.1694e-07)
(1.29582e-05 -0.000104777 -1.13497e-07)
(4.97166e-07 -3.3606e-05 -6.38986e-09)
(0.0015581 -0.0038693 -1.35996e-05)
(0.00151103 -0.00364102 -1.31888e-05)
(0.0014569 -0.00341382 -1.27165e-05)
(0.00139632 -0.00318892 -1.21879e-05)
(0.00132999 -0.00296745 -1.16091e-05)
(0.0012587 -0.00275052 -1.0987e-05)
(0.0011833 -0.00253908 -1.03289e-05)
(0.00110465 -0.002334 -9.64255e-06)
(0.00102366 -0.00213606 -8.9357e-06)
(0.000941215 -0.00194586 -8.21619e-06)
(0.00085822 -0.00176396 -7.49183e-06)
(0.000775499 -0.0015907 -6.76985e-06)
(0.000693846 -0.00142632 -6.05717e-06)
(0.000613999 -0.00127097 -5.36025e-06)
(0.000536619 -0.00112465 -4.68483e-06)
(0.000462303 -0.000987282 -4.03616e-06)
(0.00039157 -0.000858654 -3.41874e-06)
(0.000324893 -0.000738496 -2.83673e-06)
(0.00026271 -0.000626474 -2.29392e-06)
(0.000205446 -0.000522175 -1.79403e-06)
(0.00015354 -0.00042515 -1.34091e-06)
(0.000107558 -0.000334921 -9.3948e-07)
(6.81241e-05 -0.00025098 -5.95188e-07)
(3.62709e-05 -0.000172822 -3.17035e-07)
(1.29547e-05 -9.99652e-05 -1.13467e-07)
(4.98801e-07 -3.18438e-05 -6.40456e-09)
(0.00162105 -0.00388856 -1.41491e-05)
(0.00156954 -0.00365324 -1.36996e-05)
(0.00151081 -0.00341967 -1.31871e-05)
(0.00144552 -0.00318908 -1.26174e-05)
(0.00137447 -0.00296264 -1.19974e-05)
(0.00129851 -0.00274143 -1.13345e-05)
(0.00121853 -0.00252641 -1.06365e-05)
(0.00113548 -0.00231844 -9.91171e-06)
(0.0010503 -0.00211822 -9.16831e-06)
(0.000963931 -0.00192636 -8.41451e-06)
(0.0008773 -0.00174333 -7.65842e-06)
(0.000791263 -0.00156942 -6.90748e-06)
(0.000706626 -0.00140484 -6.16876e-06)
(0.000624138 -0.00124965 -5.44878e-06)
(0.00054446 -0.00110382 -4.75331e-06)
(0.000468184 -0.000967209 -4.08752e-06)
(0.000395817 -0.000839561 -3.45583e-06)
(0.000327813 -0.00072057 -2.86223e-06)
(0.000264592 -0.000609876 -2.31036e-06)
(0.000206552 -0.000507053 -1.8037e-06)
(0.000154106 -0.000411654 -1.34586e-06)
(0.000107784 -0.00032322 -9.41458e-07)
(6.81728e-05 -0.000241283 -5.95614e-07)
(3.62573e-05 -0.000165396 -3.16916e-07)