/*--------------------------------*- C++ -*----------------------------------*\
| =========                 |                                                 |
| \\      /  F ield         | OpenFOAM: The Open Source CFD Toolbox           |
|  \\    /   O peration     | Version:  v2006                                 |
|   \\  /    A nd           | Website:  www.openfoam.com                      |
|    \\/     M anipulation  |                                                 |
\*---------------------------------------------------------------------------*/
FoamFile
{
    version     2.0;
    format      ascii;
    class       volScalarField;
    location    "0.01";
    object      p;
}
// * * * * * * * * * * * * * * * * * * * * * * * * * * * * * * * * * * * * * //

dimensions      [1 -1 -2 0 0 0 0];


internalField   nonuniform List<scalar> 
3585
(
100609
92378
84554.8
104043
102182
104111
102111
104107
104104
104097
69579.2
104102
104104
104102
104379
104388
104370
104412
101667
104143
99132.9
101254
101233
103830
119034
100828
99334.2
119117
101112
100542
100461
93334.5
94451
93832.6
98648.6
93460
93582.3
101280
104900
99788.1
104670
151939
104105
98271.8
104635
105000
104679
111069
98952
93268.5
98197.3
93058.8
95801.1
104648
71992
1556.95
104149
104140
104161
100392
104155
104685
104561
104653
104141
104205
104199
104192
104641
100431
104675
100544
100193
97663.5
104270
100354
104264
104261
103283
102975
104260
100432
99332.6
100012
96805.3
103619
90607.4
104120
103467
100733
103724
100025
99659.9
104097
102960
104138
102961
101669
104039
103464
97420.8
104085
91258.7
104384
104126
104257
81334.6
104238
100478
104134
104175
104627
101233
100658
104113
104345
104723
100089
104115
95373
98494.3
104100
104223
104094
104217
104233
104269
104122
104225
104240
104219
104162
101774
100975
101131
104166
100758
101066
96059.2
100688
104160
99492.2
103797
95750.3
104398
100399
100403
104177
104553
104240
100369
103535
103536
101492
92953.5
100808
103579
103984
100576
104157
104080
97948.1
104103
104089
104120
104470
104206
102902
101701
101847
97149
102167
104159
104094
100053
104108
104216
104138
103613
104147
104102
46982.6
104084
104359
104214
104187
104190
104191
101026
104170
104413
104375
98929.4
104158
104165
104156
104505
102186
88193.6
104154
99809.3
99258.3
98859.4
99592.5
99262.2
99481
104152
104794
104242
104524
104583
100838
100875
104324
100980
100950
100900
100909
91440.8
96781.2
103787
71998.3
103551
104089
93745.5
103704
99353.2
99028.8
103726
98809
103413
104107
98983.9
104132
104538
104598
104100
104138
98951.7
104187
99254.1
104250
104220
104197
104312
100869
104306
103954
104144
103794
104686
99963.7
100123
104347
104086
142526
100273
104110
104189
104187
104154
104235
103746
104759
97809.6
98751.9
104329
84347.3
104177
104111
103341
100320
104103
92545.1
104042
104435
104095
104286
104296
104289
104242
96852.7
97061.1
97372.6
104363
97717.2
104153
96361.5
95981.1
93405.9
91530.7
93995.9
104304
104172
104183
104153
104157
104153
104264
104136
104659
99479.7
100480
104123
100456
104114
104124
104107
100447
100379
104174
100364
104241
104250
104071
104780
104013
100312
104651
104643
104134
100624
104705
104093
100685
100685
101054
99203.6
104019
104693
104096
104277
104103
104258
104068
102964
103687
104310
104309
104321
104314
100164
103945
104609
104231
104149
98442.1
104512
103660
104609
100212
104127
104122
104093
104099
104164
104168
104278
104122
93545
104197
104125
104143
96262.2
100793
104159
104217
103726
104141
103990
104162
104160
104254
96720.1
104100
97845.2
96384.1
97974.5
95004.7
104134
104094
104166
100531
104131
99287.3
99651.5
104096
104166
100842
96676.5
103681
104132
104659
104167
72630
104083
104081
104064
104370
104161
104193
104192
104189
104184
104191
104159
104076
104262
104096
104200
104196
104088
104345
104341
104160
102326
104310
103143
104099
103597
103414
91902.5
103227
104751
104381
103982
104054
104149
104033
97610.8
104149
99090.3
104276
104035
104250
104095
104241
104242
104092
104214
91368.9
104620
104283
104616
100116
103929
103934
103902
98229.9
104141
104095
103956
98461.8
103241
104151
104076
115959
103417
97697.2
104321
104340
104343
98686.8
98598.5
119596
132511
104089
104096
71114.8
124078
103880
104649
104077
104352
104177
104237
104659
105688
104093
104112
104647
104607
104568
98435.2
99817.3
101100
104095
104105
102528
102405
104013
102426
102069
102315
104119
100926
104117
104113
104127
101946
104588
104079
104181
104110
104566
104433
103830
102556
101157
104464
104645
104546
104110
103016
104486
102933
99258.8
103256
103165
103152
93957.1
93350.7
95039.4
157423
102734
100661
94626
104217
103559
104457
143477
102324
102867
104439
104289
97502.7
82186.9
104279
104116
97543.2
103585
96988.2
104113
97720.7
73008.7
95109.6
97211.6
104576
96279.3
84906.6
104115
104107
104118
104158
80380.9
104117
104153
105101
100398
104567
104157
104171
104205
104081
104516
104563
104451
104479
104153
99843.5
104154
104021
104157
104136
104188
103230
90855
94051.4
91088.4
94036.9
88909.5
93347.9
104289
104129
104130
104109
93926.8
104584
99763.3
104118
104482
99868.5
100662
104252
104649
104676
103640
103527
103180
103225
104293
104111
100723
124342
103727
104005
104401
104131
104113
104126
104105
104107
104094
104163
104270
104549
104041
101099
104625
104554
104569
104189
103668
100124
104573
103365
121968
104160
104164
103825
98329.7
104128
104123
104126
98890.3
104204
104217
104507
95113
104545
104436
104455
103348
94477.5
104616
104094
104441
104329
104375
97196.5
104671
104512
94949.7
87373.4
103917
99899.4
99554.7
99932.1
100701
98015.1
97779.8
104086
104123
104119
104421
104116
104145
104155
104433
104365
104150
98871.8
102743
104173
104645
104108
104544
99590.9
104444
104214
104218
104102
104243
104708
104152
99426.4
98890.4
104105
104420
104295
96114.4
104106
94809.1
104136
95718.8
104123
104099
104020
104084
104110
104224
104230
104200
104212
104256
104171
104247
100598
100826
100780
104130
104087
103897
103820
103840
96675.8
100362
103523
101298
103871
103875
104101
104123
104122
103735
104089
99913.7
104000
104120
103952
100095
100130
99985.6
100021
104117
104112
104104
103533
103594
103765
103895
99479.9
104104
104103
104098
104421
104110
104406
102846
83294.8
103889
104109
104118
104120
104163
104093
99349.6
104135
104151
98900.9
104210
104145
104202
104222
104201
104177
104155
86223.9
104604
104250
104004
104116
83841.7
94254.8
91038
104182
104176
104180
104171
104120
104205
90740.3
93616.8
92595
103892
92990.1
104241
98502.3
104134
104098
104150
104219
100625
104129
104127
104241
104231
104345
144908
100056
104318
97921.7
102967
100549
104517
100135
101787
101584
95803.2
93611
98556.6
97424.3
99453.5
95964.4
99438.7
104066
98817.1
99563.6
104132
105191
104173
104120
104228
103253
102655
104110
101671
96445.6
103872
102860
104748
104710
105563
104115
103416
100024
97574
104234
104221
104063
104140
118797
91549.5
103797
96890.9
104114
104103
123473
104083
103462
104132
104067
104110
104006
104176
100658
100635
104115
104350
103774
104267
104211
104318
104134
103492
102166
104144
104165
104171
104161
95105.3
92999
82365.3
104333
104281
104099
104204
104099
104181
104064
104060
104114
97581.9
104159
104316
104315
104102
104320
104312
104330
104312
104200
104243
104289
104201
104204
104227
104527
104313
104198
104543
100315
104068
104310
104010
103985
99201.6
104746
104173
98786
98834.2
104069
91935.5
83453.4
82107.6
104619
98821.3
104580
99565.9
104121
104145
104138
104141
103781
104592
104639
90296.7
104498
104268
100349
100468
99551.8
104065
98476
104136
104356
103683
104425
104116
103163
104116
104119
104119
102093
103847
104121
102113
102586
102111
104515
101613
101059
104528
104204
97400.8
104101
100229
104526
99750.8
99740
104103
99710.5
104118
100321
99562.9
99630.2
100635
98243.9
104057
94696.6
101132
103566
100204
104295
104293
104253
104257
98765.2
98664.7
98881.6
103535
98783.1
85915.6
96084.9
102977
93064.9
97488.1
102183
95603.1
104117
104112
104113
104118
96800.4
104113
104171
104344
96474
101522
104198
104500
104392
104487
104464
104408
104483
104614
102777
116792
99426.5
101868
100499
101250
99636
98242.9
102204
99918.7
85312.3
101551
102224
99615.6
99650.4
99813.5
90861.6
102270
98861.3
103553
94247.5
92774.1
91071.7
91579.3
100648
100814
97703.7
102852
102567
102271
100071
101067
104027
100064
101504
99247.4
103610
102942
104082
103900
103819
104228
100246
103804
103620
104055
98312.6
104035
104210
104153
104056
104042
104057
104020
103998
104000
100785
100859
104111
100796
98238.1
104237
104223
96896.3
99446.5
103165
104575
104104
104108
104098
104101
104102
104148
104095
100455
100532
100477
100686
100504
104595
100556
103967
104128
104101
104099
104094
104183
104188
104307
98708.5
104325
104337
145118
97967.5
104177
98141.2
98502.4
104096
104150
104150
104118
104152
104158
104307
104251
104380
98975.6
98079
103941
93366.7
80839.7
104047
92612.6
92965.1
99821.7
94194.8
104019
104041
103325
104178
104139
104103
104006
105201
104270
104614
97657.7
100607
98302.3
96764.6
98546.8
100252
100271
103501
104045
104039
104046
104029
104138
104117
104151
104132
99389.4
104248
104571
104568
99191.4
91760.3
104123
104121
104114
104118
126920
104101
104175
104305
104314
104127
104341
104121
104200
104207
104816
91514.6
104831
100780
102189
99247.6
104116
104119
99437.5
99784.4
99466
104100
104146
104166
104248
104140
103414
104212
104790
103453
104452
102145
99020.3
97617.6
103956
99007.8
97922.8
82386.9
97844.8
101840
100791
104115
103979
104122
104134
104047
104120
104168
97853.3
104121
104140
104277
104262
104276
97340
99910.3
97407.6
100443
104280
104256
104134
104135
96798.5
104141
104181
92620.4
104239
104148
104684
88212.2
103902
101214
103847
100563
102901
103515
103961
104091
104087
104177
104180
104152
94565.3
104154
104121
101390
104104
96514.2
104258
100323
104102
103831
104072
104219
104117
104119
96719.5
104163
103926
104004
104093
104326
104309
100852
101807
104087
99869.1
104097
104194
104097
99887.7
99616
98549.3
104095
101908
104715
93701.7
102764
95081.9
104004
104151
104088
104214
104173
104082
104552
104211
95240.4
104334
104297
104106
104079
104522
84555.8
95836.8
103925
104009
96711.7
100856
104056
95865.9
91006.1
99446.9
104144
104128
104025
95736.4
81038.5
104129
104102
100925
124470
104110
104093
104179
104326
100650
99294
103438
99128.2
99893.2
94232
104111
103367
103681
96287.7
104085
85407.6
101775
104081
104100
104162
104155
104144
104158
104244
104302
104318
93481.1
100217
103428
103755
104050
98484.5
96290.4
103886
104094
104122
104518
104387
103637
104008
100337
100517
100405
100633
104127
104126
103393
104123
104120
98260.4
100672
104197
104184
104097
104171
104186
104257
104343
98677.3
104110
104110
104308
104647
104224
104605
98930.3
104203
95115.1
104207
104233
104212
104678
103270
95570.3
100890
104092
104135
104132
104276
104658
104277
104049
104170
104098
104117
104649
103671
100157
97083.9
104166
104149
104197
104273
104269
104311
98784.1
103762
104135
104570
98754.7
98402.5
100414
100588
100561
104265
104255
100535
98834.2
98740.6
104676
98286.9
97905.1
98144.3
104353
92743.1
104647
104635
91877
66458.1
93639.2
104344
104062
104114
125512
103269
104160
98454.9
104153
100735
100684
104522
104609
104120
99670.8
101812
100272
94822.5
98604.9
136347
104162
99054.9
100712
104098
104129
104129
104117
104666
104145
104169
104149
104098
104257
104324
104657
104391
103708
104130
99251.1
99359.3
98441.7
104179
104230
104473
103966
104123
104193
104092
102350
98199.7
104301
104277
104400
104357
104089
103965
96982.8
98272.3
98625.4
101579
107244
104834
100264
100629
103699
104027
98399.7
93614.7
103766
104359
103865
97623
99798.3
99797.6
99725.4
99755.7
99799.2
104230
104124
104162
104173
97513.8
104167
104125
104369
104106
95290
95769.4
104164
104152
104125
95643.7
103883
103922
104297
80883.8
100565
99931.4
95582.1
104100
94029.4
104195
104200
104208
104168
104315
88819.5
104101
93689.3
104100
99078.7
104112
98974.1
103939
103915
104103
104374
104364
104375
103555
99332.9
99573.5
99053.3
98779.1
98869.1
98992.3
104144
104227
96962
72623.2
108675
95826.6
78794.4
78689.4
101569
102100
98938.6
105321
105771
125271
96716.5
97934.4
103971
104047
87926.1
104143
104465
102820
104214
104204
104458
104470
99715.4
100258
100206
101305
100748
99805.1
99804.4
95939.8
81485.3
101352
92486.5
104272
99807.6
100674
104157
104145
104263
93854.2
104237
104431
104593
104364
104672
98460.6
97944.9
98658.5
97179.4
104138
104393
104437
104426
104441
104255
99817.9
104244
104250
98420.3
98163.3
96699.9
96603
97997.9
103720
104942
108336
104092
119682
103622
103988
103951
104274
104358
90854.9
103957
101687
92467.3
100678
104237
104549
96779.2
104209
104109
103851
104301
103954
103948
104082
104148
104152
104141
104162
104272
94859.1
104264
104263
104218
104653
104663
104620
94890.7
99980.3
99440.6
98116.6
92952.5
103177
94336
104103
104112
104120
104160
104107
103740
103726
103666
104121
104119
104117
96081.2
95604.1
104490
104500
104512
99950.1
99741.4
104055
100101
99993
104081
103932
103495
97853.4
103673
103657
104132
98229.4
104138
104204
104211
104295
98399.2
93470.5
103836
104446
104371
104131
99213.2
100175
85455.8
97651
96965.5
99738.7
98692.9
98809.6
100662
104144
100654
99387.7
99059.4
104148
104284
104247
104181
104352
97530.5
87497.1
86500.4
103927
103941
103683
103805
104122
104010
104046
104175
104101
104105
104239
104169
104176
98820
104571
104573
104653
96557.5
100626
94169.6
89999.3
103743
104164
98258.1
98652.7
98338
98343.4
103970
104170
93096.4
99656.2
95905.2
100570
104126
104129
104394
103375
100665
100111
104152
104129
104137
104215
104213
104216
97395.3
104218
102015
104206
104151
104225
104228
104228
104287
88091.2
86831.6
96402.3
88665.6
96401.7
100763
98819
104106
103929
99107.5
100632
104137
100925
104117
104133
100907
104110
104122
104098
100951
101022
104187
104243
104166
104196
98469.7
104096
104105
104108
104098
100521
104401
100610
104033
99539.4
98491.7
98625.8
99136
97861.2
104105
104282
104298
104287
104130
104122
104122
104255
104114
104228
104262
104188
104208
104254
104298
104281
104232
104203
90519
92904.9
92078
104101
104083
104314
104129
104115
104114
104113
93774.3
104092
118313
104149
104151
104495
104475
104380
100562
104371
104400
104104
100269
104124
104136
94911.8
104365
94824.1
100148
104074
104105
104061
104068
104033
104066
104120
104117
104696
104456
103203
85020
100569
99190.7
104127
120114
104191
104182
103835
104186
103881
100657
100238
100496
97706.6
97604.4
104102
104103
104188
104181
104264
104191
104368
104553
104680
99778.3
104171
102964
104330
104302
104099
104611
104253
104253
104222
104099
98474.8
98808.3
99109.8
98836.3
91687.3
98555
97891.6
98617.6
97755.5
100822
104048
101258
102759
120300
98567.2
97532
99058.9
104092
104079
104072
104103
104100
104114
104208
104352
104180
104177
104513
104186
104181
104660
104359
103626
103479
98777.3
102473
103683
98902.6
88366.5
101119
101144
100839
103896
103909
103842
104213
104204
100723
94217.9
97643.9
97543.7
104305
104329
104287
104356
98581.9
98296.3
108611
93136
104171
104206
104085
98136
96235.8
97103.5
98117.8
95242.1
96238.4
98663.5
101224
98458.7
104073
103765
104140
103852
104032
103882
103866
103901
103873
104172
104020
104000
104162
104197
103943
99219.1
99371.1
98845.7
99141.7
98837.3
103988
100196
99905.6
132991
104068
104150
104306
104188
101351
104160
104391
104166
100769
104514
102696
101244
104603
98128.7
98118
93213.5
97407.6
98391
101005
100745
104186
104188
104202
104181
104419
119747
96826.1
104012
104063
99829
104061
104086
103902
104143
104292
104238
104249
104628
104593
104311
104645
98809
104782
98625.6
95378.3
95770.4
104218
97071
104252
95741.5
94536.2
104252
104134
104156
104270
93496.9
104184
104155
100179
101053
101411
85837.7
89327.8
86399.4
100774
100717
100516
100305
100438
100612
104108
104173
104141
99954.5
104732
99576.9
104146
99641.1
104406
104293
104271
104337
104238
104647
99510.5
99627.2
98342.6
96663.6
98332.1
104193
104253
104244
104508
104275
104287
104393
104355
104508
104121
104465
104371
104114
104306
100940
87831.9
99181.9
96765.3
104337
104708
104436
104409
104506
104108
104499
103861
104133
104111
104148
95914.4
104292
104143
104049
98248.4
92572.7
104053
104060
96950.8
104624
104284
104290
104692
104275
101104
80956.8
89999.9
104279
81662.8
104130
103964
104210
95371.6
104744
104070
104512
104096
104102
104167
104182
104198
104472
103947
90739.1
104108
103146
101921
88353.5
104227
84745.9
96289.2
84736.5
104200
104138
101449
104180
104195
104168
102414
104449
104360
104177
104238
104214
104200
102189
100155
100001
104230
127146
103781
104621
104177
104231
104228
103570
103848
104005
104091
104085
103846
104057
104242
104249
104246
100998
104616
101816
98691.3
132092
120343
104132
104129
100051
94893.4
101774
104126
104116
104107
104184
104092
104100
104091
104182
103903
104772
104112
104108
104501
101349
101604
99230.2
99860.6
104455
103962
104496
104116
100902
104476
103851
94883.4
104460
99685.9
99161.4
99308.4
104173
104189
104125
104128
104094
104193
104124
99111.7
104122
104120
99678.9
98623.4
93480.3
104135
104516
104561
100069
100030
99941.4
104142
104145
97831
104093
104108
97148.1
104096
104111
104107
104346
104320
104597
104320
104359
104335
104326
104290
104302
98514.6
98588.6
98427.1
98270.9
103557
99199.5
104252
104645
100632
98386.4
97934.6
102662
104419
104460
104518
104535
104178
97891.1
104176
104179
103149
102892
104167
104171
100398
93715
100291
100811
95078.5
97736.7
102387
98511
99755
100847
104161
104138
104164
104240
93323.3
104160
104163
92903.5
104167
104579
104589
104623
104499
104424
104202
104275
104189
93036.7
102237
102403
91596.3
90111
104104
104097
104101
104104
104101
103514
104101
100247
104514
87467.8
104220
104225
104111
104119
104233
104150
97664.5
104231
104119
119597
99265.7
103352
104092
104090
104396
104397
95531.5
129894
104166
104169
104160
104163
104406
104421
104330
100224
104305
104313
104447
104474
102794
104367
104451
104189
104159
103934
93926
103987
99042.3
103720
93872.9
103961
100214
99400.5
83537.1
82720.3
85102.2
103017
95406.3
104280
104262
104226
99488.5
104560
104539
104075
100039
103151
103375
88743.7
104539
103126
100823
104094
104090
104130
103999
103162
104679
104122
104007
104623
104481
123103
95594.8
93384.4
104117
102143
104141
118672
122544
103497
104560
104837
104645
104633
104618
92145.2
100467
104134
94370.7
94677.8
99522.2
93463.2
104331
99126.8
100560
100375
100155
101641
100336
104348
104367
104368
104388
104385
104342
100355
104341
98409.7
100672
97908.1
100344
100688
100607
104167
100604
104145
104146
104157
104356
99600.8
103209
104116
104125
104125
87745.6
100444
100382
104211
98849.6
104085
98606.8
98853.3
104149
101141
104474
100122
104113
104113
104203
104270
100128
104427
104495
104474
104277
102635
104268
103041
101022
102659
104273
104390
101800
99509.2
104125
104122
102978
120393
103934
103992
103862
104062
104144
104183
104234
104284
104118
104298
104138
104125
104111
99716.4
102463
101582
102676
104119
104175
104233
104129
104391
104386
104286
104370
104398
104146
97380.3
104183
100011
104106
104184
105158
104192
104591
136495
101128
103675
104087
104106
98829
104106
98464.4
104112
104105
104065
102405
77908.9
130709
103985
100280
95951.3
104343
104462
104358
91591
104221
104203
104222
100739
104113
104111
104051
104630
104007
104011
103942
103896
104021
93914.6
104168
104628
104183
104072
104100
104650
104127
104133
104333
104485
104395
104658
103951
100380
100516
97786.2
86920.4
98665.8
104698
104111
104086
104147
104141
104154
104150
104283
84686.9
104273
104263
104276
104656
104660
97861.7
97530.4
104177
104143
104069
104136
104094
104123
94965.7
93819.1
104111
103995
98361.5
98490.7
86419.4
104025
102270
103109
104091
93803.6
104265
93701.3
95103
104419
104226
104122
103977
103645
103646
104120
100564
101760
103683
103667
103922
93780.3
100731
101621
94919.3
100915
100587
100326
100329
103923
103042
104096
103814
103723
103844
104408
104610
104149
104149
104255
104242
104114
103351
103896
103871
92792.2
103340
103550
104138
97501.5
104080
103556
104139
97842.9
96892.2
104773
104800
104177
104035
104160
104165
104341
104058
103961
100703
100542
104136
104137
104138
104136
104154
104134
104289
104109
104306
104109
104199
104165
104140
103921
102130
117249
104430
104401
101541
95826.7
100250
97597
104149
98091.6
120724
104158
123526
104077
104077
104165
104169
98808.5
99177.2
98607.2
96762.8
97469.2
91168.1
96796
104038
104061
104064
104095
104053
104094
97461.2
104050
104147
104150
104386
104264
104481
104462
98736.2
104270
102477
104113
100242
104093
104127
104135
104238
104602
104644
98776.8
104152
101208
99926
99908.4
100084
101223
85526.5
100771
100673
100761
104159
86790.2
85408.2
83345.6
90788.1
104321
88171.2
104224
104133
104261
104581
104616
98365.8
98190.2
100412
81799.6
101215
104637
102957
104193
122147
103541
103861
103580
82736.3
104168
104079
104044
87345.5
97782.4
97951.5
104301
104117
100166
104125
100021
99967.5
104118
104114
104439
104441
104410
89930.9
91668.6
88704
104128
104173
104222
91957.5
104587
87796.1
99462.1
104048
99050.9
104107
104103
104111
104112
104113
104210
104241
104194
104523
104474
104432
100125
102671
99858.6
99518.9
99267.4
99626.1
101152
99681.9
95275.3
93171.6
93262.3
105192
103294
103554
103995
103508
103313
84033.6
94427.5
104069
104074
104040
103917
104312
104331
104040
93727.8
98531.1
97066.6
104242
99489.1
133067
104231
104138
104156
104158
104172
104160
104241
104340
131408
104345
104359
104179
98397.3
104244
104238
98525.5
98608.6
101038
100908
101653
104190
97784.3
97500.7
104067
100833
100837
100973
100870
95343.7
89037.2
104141
104145
104279
95482
104117
104277
104132
104118
104640
104673
104311
104199
104227
104659
104644
104436
104587
104559
98353.6
104341
97738.2
101145
119800
110010
127161
128850
99649.1
103639
103544
104116
104111
94229.9
105387
98358.7
125034
100582
100223
104212
104223
104095
104132
104137
104117
104217
104162
104575
104148
104141
100655
99547.4
100658
103900
119293
104029
104125
104120
104200
104196
104143
104147
104424
104148
104525
104627
101647
101932
104319
104127
99884.2
99366.9
104204
104196
104198
100589
104118
100816
104130
104043
104101
104211
104192
104097
104095
85913.8
99201.8
100143
104144
104237
104097
104106
103705
104161
103815
104121
101293
104142
101510
101570
104143
101275
101116
104114
104113
104161
104136
104268
104285
104230
104609
104607
104116
104115
104627
98713.4
98869.2
104124
94380.2
94806.5
104109
104120
104131
104094
104134
104174
104224
104326
104564
98410.8
90608.9
100706
104122
104170
92694.4
101664
104206
104224
104483
104503
104474
104470
104479
104166
85822.5
104035
104446
103062
104125
104104
104108
104214
87431.8
104127
104080
104093
103982
103973
103356
104080
104104
104059
103835
104450
103872
104147
104190
101711
93988.8
88057.6
121198
104123
103815
104118
103929
104096
104097
100985
101172
100132
101074
104097
104442
104095
103949
91717.5
104101
104117
90336.9
87714
96446.4
104308
104350
104123
103920
103730
103746
104257
104336
104318
103462
104165
104136
104126
104570
100082
100511
100120
99248.9
102467
102164
104278
98547.5
104130
98386.5
104198
104427
99324.1
104415
104360
104403
104442
98611.9
100587
101031
98539.3
132307
123963
163507
101690
101772
104225
96030.2
101614
101700
104207
104159
104193
105797
104049
104049
103900
166589
103982
103920
142840
104158
104152
100080
100614
104185
95854.5
104173
92629.8
104105
104157
100668
100344
95816
104105
104143
104130
104121
104130
104526
104512
104502
100493
100130
126131
104187
104102
101495
104096
104153
104186
104191
119896
104343
84988.1
96325.1
104108
104100
104101
104114
104198
104362
104054
104251
104082
104368
104161
104119
104365
104288
104232
102450
92498.8
93439.9
98833.9
104070
104297
91628.5
92148.3
104051
97797
91844
103980
95342.5
103950
103666
104092
99838.5
100279
104148
104124
104045
104098
104097
104185
104183
104316
104298
97307.9
104297
104196
104187
88948.4
87488.1
101206
93742.6
96540.8
101237
103541
89989.1
102486
102489
102060
104058
99961.6
100592
100583
99631.7
103983
100425
104112
104098
104096
100675
99506.7
104116
103983
104017
104203
102312
104002
103070
102902
104055
104018
104239
99726
104109
103924
104069
104038
97624.5
103970
103881
97163.7
88898.7
91343.9
89494
88294.8
99959
93068.8
104356
104349
104137
104134
104138
104372
104250
104294
104100
104121
104105
104346
99925.1
100751
99581.1
98744.7
100331
99433.2
86644.7
104136
104131
104130
104127
102632
104125
104131
104135
104142
104138
104330
98718.9
104258
104249
104267
104266
104257
104128
104265
104216
87847.5
95111.6
92198.3
104259
104104
103983
104086
98367
94251.2
104080
104174
104172
104053
101495
101882
104170
104168
104144
104157
104147
104150
104147
104496
104199
103816
104212
103688
97950.5
103764
98260.7
103764
82536.4
81703.4
103561
104094
94137.6
104684
95296.8
96791.8
100320
104117
104144
104142
104125
104106
104100
104097
104347
104099
104300
99519
98662.4
98385.7
98810
104093
104119
104481
104539
104551
104207
104533
104247
104235
104208
100062
101184
102126
99670.3
99399.5
99972.5
99963
100091
99917.4
99019.1
98996.8
100101
100617
100583
100638
100645
100603
104185
104191
104191
104140
104144
104425
104024
104139
120692
100675
104342
104145
104275
103913
104632
104663
104098
90295.8
90033.9
103392
103899
103985
104107
104423
103430
96664.1
104095
104377
104405
103800
104380
104068
104396
104029
96903.4
91954.6
104387
97135.7
93016.4
89958.5
104116
104220
104081
103894
103921
103986
103949
104259
99062.2
99156.3
104207
104105
104105
104096
104105
104107
83954.1
95995.4
96476.4
86054.4
93115.8
83125.9
104219
102266
103781
103799
104096
104221
96372.2
102486
101517
101733
101399
101291
103790
104123
104110
104123
104122
104133
104193
104205
104193
104201
104026
104004
103981
104024
104016
104393
103940
102754
102944
102457
104031
104222
104167
104102
104177
104191
104181
104190
104105
104108
104127
104227
104108
104106
104172
104404
91611.1
103969
103744
104297
103993
104068
104227
104426
104581
104319
104366
100188
102028
104420
118979
99603.5
110339
100564
99053.4
104232
100610
99344.2
99166.6
104224
71606.7
92579.4
84857.8
90388.7
101339
101295
94127.3
120045
126715
96291
97735
100807
95005.5
94951.8
104230
126063
104101
104154
104293
99894.5
104184
94090
94004.3
104126
104478
104067
104119
104085
104110
95220.1
100661
100664
99629.8
100726
92133.6
147107
97605.1
104216
104244
100653
104130
104130
103535
104134
104135
102974