/*--------------------------------*- C++ -*----------------------------------*\
| =========                 |                                                 |
| \\      /  F ield         | OpenFOAM: The Open Source CFD Toolbox           |
|  \\    /   O peration     | Version:  v2006                                 |
|   \\  /    A nd           | Website:  www.openfoam.com                      |
|    \\/     M anipulation  |                                                 |
\*---------------------------------------------------------------------------*/
FoamFile
{
    version     2.0;
    format      ascii;
    class       volScalarField;
    location    "0.01";
    object      p_rgh;
}
// * * * * * * * * * * * * * * * * * * * * * * * * * * * * * * * * * * * * * //

dimensions      [1 -1 -2 0 0 0 0];


internalField   nonuniform List<scalar> 
3585
(
99959
106040
106099
105477
105257
105941
103409
106017
106022
106032
72309.4
106042
106034
106028
105383
105365
105378
105348
105292
105632
101294
100581
100934
105188
120856
103916
101122
117181
100750
99766.3
99682.7
92282.4
94933
94399.2
105136
93377.3
93999.4
103964
108615
103561
108468
153337
105874
101583
105070
108408
105007
111363
105902
98028.2
104067
96614.2
95158.6
105052
74583.2
963.065
105801
105526
105745
103755
105772
104944
104792
104953
105648
105627
105656
105663
104821
100150
105100
100071
100299
103248
105496
100169
105517
105455
104403
104367
105473
100124
101170
99402.6
98506.4
104670
105072
105310
104852
99719.6
105347
100495
100844
106068
104506
105847
104515
104729
105383
105241
100454
106064
105247
105347
105921
105532
105012
104657
97463.2
105818
105718
104935
104597
99949.9
105906
105301
104932
100376
105962
104079
102145
106036
105602
106097
105608
105571
105523
105913
105591
105574
105602
105758
104183
104141
103929
105730
99937
99651.2
103026
99896.6
105760
100583
105988
98433.3
105342
100112
99320.6
105592
104771
105510
100175
105746
105858
101117
90009.2
100124
104640
105089
89333.3
105734
105927
103297
104847
104675
104885
105102
104930
105073
100507
100452
103264
105162
105796
105992
100468
105977
105613
105859
105336
105803
106055
61391.1
106002
105395
105625
105647
105686
105684
103908
105715
105343
105359
101456
105775
105415
105783
105201
104628
105565
105785
100675
101188
101579
100063
100960
100858
105775
104847
105562
104748
105110
99518.2
99237.5
105448
99234.6
98695.3
99041.9
99268.4
91531.4
98563.2
104628
74588.7
105033
106038
94306.5
105736
101079
101347
105116
101366
107011
105995
101275
105717
105224
105152
106065
105865
101221
105677
101020
105546
105612
105659
105440
88886.7
105342
104559
105776
104514
104820
100538
100410
105376
105404
146536
100377
106002
105647
105659
105745
105444
104587
104921
101543
101243
105350
87402.9
105709
105762
105660
102707
105748
106689
106158
105270
106094
105490
105489
105487
105570
103011
102889
102759
105416
102411
105783
101250
101043
98672.6
97183
95311.7
105483
105699
105457
105774
105772
105780
105514
105775
105072
100999
99438.8
105917
99640.4
105970
105898
105986
99794.1
99787.9
105724
99878.2
105437
105447
106059
104921
105489
100260
105102
105070
105461
99594.7
105028
105443
99577.2
99723.8
94080.4
100378
106383
105037
105862
105512
105771
105505
106026
104328
104854
105461
105462
105456
105455
100374
105351
105138
105585
105786
105249
104864
104988
104879
103711
105342
105332
105401
105433
105686
105674
105406
105817
93336.5
105040
104917
105218
102549
103842
105308
105480
105129
105427
105372
105687
105697
105407
96887.1
106073
90598.5
97649.7
98788.7
98310
105864
106054
105733
103819
105847
104135
100824
106087
105481
89810.4
91641.7
104982
105889
104983
105751
76011
105938
105965
105997
105403
105776
105648
105656
105659
105674
105666
105654
105511
105416
106066
105650
105450
106012
105415
105434
105427
104192
105349
104718
105416
105429
105349
105451
104948
105422
105377
105387
105425
105800
105440
104983
105670
101446
105515
104801
105536
106062
105481
105500
105452
105464
93795.7
104768
105507
104991
103893
105247
105233
105212
100071
105834
106095
105270
103271
104384
105789
106005
116262
104791
96403.3
105458
105436
105435
101953
102817
123134
136320
105523
106080
80286.9
124186
104839
104930
106026
105426
105671
105542
104921
108851
106094
105994
104901
104854
105199
103577
92880.6
95339
105972
105982
104879
104939
105340
104961
104579
104719
105665
104305
105939
105964
105894
104347
104846
106051
105661
105971
105206
105326
105057
104341
99854.4
105308
104969
105202
105976
104562
105286
104668
101312
104913
104920
104900
102867
96272.6
102850
160644
106527
106468
100458
105617
104613
105312
141967
104191
104312
105331
104681
102149
104405
105476
105529
105123
105331
100475
105982
102374
72968.7
94924.5
94054.1
107793
100111
84551.9
105554
105739
105563
105741
83176.5
105682
105766
107644
105791
105179
105727
105727
105629
105439
105221
105147
105275
105262
105764
100682
105752
105367
105753
105801
105495
106376
98137.3
90533.3
90351.6
92308.4
91201.5
94586.6
105439
105713
105869
106001
103324
105169
100725
105437
105238
100512
99912.8
105557
105064
104989
105287
105340
105097
105192
105492
105992
99854.7
125999
105330
105365
105363
105882
105938
105887
105948
105987
106000
105725
105372
105205
105368
100266
105112
105194
105172
105675
105059
99757.6
105184
105391
121526
105711
105701
105299
102206
105901
105912
105881
103066
105645
105617
105264
101071
105221
105338
105307
105201
103183
105098
105913
105317
105244
105352
105226
104867
105230
100330
87659.4
105354
100485
100914
100554
99490.5
101835
102213
105870
105634
105607
105327
105715
105749
105716
105333
105401
105723
101511
105320
105718
104733
105889
105197
97941
105322
105612
105579
105770
105119
104982
105627
101038
89857.2
105999
105311
105438
90555.8
106006
89779.1
105799
89200.4
105901
105487
105443
105480
105928
105519
105534
105545
105544
105491
105650
105489
98215.5
94469.3
96599.9
105581
105524
105239
105126
105135
96202.8
97242.9
105576
98905.6
105203
105192
106015
105419
105397
105039
106051
100354
105367
105689
105335
99926
100056
100207
100115
105601
105551
105778
105190
105236
105347
105324
100951
106036
106027
106050
105342
105953
105359
104312
105088
104552
105967
105925
105912
105486
106033
101062
105491
105503
101654
105615
105485
105566
105559
105617
105640
105490
103262
105131
105338
105164
105923
103781
101138
102328
105669
105660
105697
105680
105909
105578
102586
91038.8
90668.6
107234
91576.7
105557
102343
105851
106082
105531
105548
100031
105807
105766
105532
105518
105396
143305
103779
105410
98152.7
104691
99905.6
105223
103678
104797
104606
105774
105540
101385
102035
101007
102275
105326
105208
100915
100873
105876
108488
105706
105919
105600
105250
105293
105986
105212
102330
105397
104806
108958
107957
110302
105860
105082
101116
97692.9
105551
105582
106077
105419
115160
98267.7
105234
102202
105604
105997
122628
105893
104956
105647
106053
105921
104537
105698
99871
99933.3
105257
105388
105394
105442
105620
105365
105620
105259
104729
105808
105624
105639
105618
101545
103172
105089
105426
105485
106062
105432
106058
105705
106090
106106
105879
102689
105636
105466
105456
105859
105464
105476
105452
104671
105643
105547
105420
105654
105637
105599
104807
105481
105657
105391
100211
105477
105404
105339
105304
103586
105426
105650
101691
101737
106086
107130
105444
105397
105110
104414
105169
100880
105907
105820
105869
105831
104511
105160
105065
106906
105178
105269
100220
100091
100916
106108
102271
105622
105413
104911
105348
105953
104992
105932
105933
105925
102121
105226
105922
104208
104704
104158
105252
104868
104203
105237
105203
100435
105450
100301
105235
100796
100665
106047
100846
105578
103817
100791
100882
100019
102681
106103
90877
99665.6
104564
100171
105491
105492
105538
105538
103083
102934
103285
105398
103103
103960
101736
95313.8
95683.8
99044.7
100539
95751.4
105950
105940
105959
105963
97288.4
105977
105735
105433
96361
96125.5
105659
105253
105385
105274
105301
105356
105266
105119
104285
119341
103892
104135
100136
103989
100776
102537
104155
100522
106019
100961
104987
99446.8
100807
100626
98678
104295
103818
104683
99722.1
99913.1
99833
103988
100069
104192
100558
104395
104725
104465
104299
104221
105027
100252
104429
104338
104569
104534
105297
105079
105068
105595
100231
104998
104765
106234
100481
105381
106340
106323
105404
105382
105390
106247
106289
106241
99104.7
98865
105974
98817.5
102649
105572
105602
101871
98622.3
104370
104761
105562
105572
105550
105562
105559
105424
106037
93194.6
100095
100051
99842.8
99845.8
105141
99805.4
106042
105154
105998
106012
106073
105700
105691
105456
101824
105394
105417
149164
102099
105428
102128
101610
106043
105808
105800
105902
105789
105775
105449
105543
105334
101517
102807
105273
95805.6
104520
105364
87764.5
87757.7
92832.9
91643.7
105348
105357
105159
105687
105835
106058
106288
106459
105519
105123
101820
99687.9
102027
94491.6
102130
98437.4
97704.5
105099
106145
106152
106128
106157
105856
105965
105791
105880
103352
105562
105183
105183
101183
95988.8
105675
105709
105681
105752
125364
106048
105671
105417
105419
105908
105388
105671
105637
105615
104945
91477.4
104894
99551.5
104850
101242
105623
105634
100931
100257
100719
105976
105797
105673
105431
105786
105204
105606
104966
104455
104738
104191
103646
100799
105409
103153
97103.6
104615
103128
104113
97873.1
105725
104606
105741
105410
105363
105445
105384
102624
105941
105769
105369
105396
105390
100911
95709.6
102496
100022
105375
105391
105856
105712
103074
105835
105705
96363.7
105490
105650
104878
106302
104549
91038.7
105371
100084
104908
105341
105293
106060
106076
105711
105681
105755
103876
105668
105812
104034
105996
103877
105540
104196
106014
105276
105378
105571
105893
105646
99412.5
105739
105348
105387
105536
105416
105428
103996
104749
105968
104609
105909
104676
105909
100607
100754
101236
105935
104958
104913
104564
105162
101908
105459
105792
105946
105623
105568
105969
104810
105598
101320
105436
105467
105396
105451
105204
105009
102126
105269
105368
101454
104214
106059
89219.6
91562.4
103375
105732
105692
106192
106113
104718
105897
105828
91436
118079
105993
106087
105433
105442
99897.6
103421
105277
101147
103231
97802.5
105586
104572
105688
97950.7
105744
95656.5
102040
106064
106027
105750
105694
105760
105707
105437
105393
105389
96126.8
100371
105343
104987
105459
100975
100698
105342
106063
105903
105255
105372
105274
105258
100216
100040
100252
99901.9
105631
105642
95708.1
105616
105626
100370
99243
105439
105439
106043
105724
105689
105526
105407
101750
105992
105987
105474
105046
105588
105140
101472
105509
94916.6
105502
105591
105631
105003
104393
103156
99596.8
106021
105691
105737
105434
105016
105429
105398
105463
106062
105934
104998
105372
103735
96793.6
105737
105583
105658
105519
105529
105471
105674
104509
105856
104816
101815
102407
100179
100038
100074
105534
105547
100180
102998
103028
104912
103154
103734
102933
104707
91428.4
105075
105089
96399.5
71052
94141.2
104693
105480
105502
120234
104400
105756
102806
105796
99692.2
99864
104826
104883
105851
99707.9
94244.9
100139
101977
102524
139943
105468
99713.8
99558.4
106028
105882
105877
105868
106100
105809
105744
105811
105418
105529
105391
105065
105357
104880
105677
103424
103398
102666
105535
105206
105251
105286
105837
105638
106099
105211
98592.3
105471
105521
105344
105393
104610
105456
103393
102621
102694
101197
111390
107363
100312
100311
105804
105120
102381
96462.5
105246
105387
105204
100585
100622
100656
100731
100691
100629
105548
105689
105654
105714
105327
105725
105705
105407
105969
99573.8
99494.8
105441
105709
106205
99568.3
105316
105297
105400
104757
90912.3
94548.9
102723
106052
97285.3
105669
105651
105634
105746
105448
102819
105954
97749
106054
101442
105982
101477
106605
106566
106034
105395
105402
105389
105858
101176
100938
101417
101573
101624
101518
105808
105560
94893
76003.6
111173
92595.5
79674.1
82375.8
105632
104638
102640
107712
108071
120478
102924
103826
105092
105448
92500.9
105831
104695
104382
105617
105635
105289
105288
103855
100065
103922
104111
104037
100727
100683
98282.7
104265
100068
104274
105396
100752
99915.8
105752
105823
105518
94639.1
105473
105337
105140
105376
104950
102769
102394
102198
102615
105581
105351
105333
105338
105306
105544
99893.9
105549
105551
103470
103339
102095
103633
103614
105252
107444
111590
105971
123228
104629
105364
106781
105113
105077
94993.1
107289
102957
91987.1
98769.9
105440
105160
99165
105541
105304
107189
105485
105008
106488
106071
105780
105778
105736
105734
105512
103442
105452
105507
105524
105096
105032
105102
102642
100371
100507
101871
107316
105123
103602
105530
105582
105620
105743
105522
105045
104979
105060
105930
105959
105952
103426
103549
105264
105246
105244
100545
100744
105704
100330
100480
105956
105530
105282
100838
104885
105042
105867
101316
105847
105643
105632
105479
103025
101946
105374
105290
105366
105441
101168
100351
105013
103248
98751.8
100428
103101
101070
99846.6
105824
99886.5
103542
101394
105790
105450
105541
105243
105141
101200
103116
103539
105407
105454
105109
104959
105503
105488
106132
105704
106026
106006
105557
105732
105683
93221.7
105163
104841
104953
100498
100072
100426
103827
104497
105738
101995
101427
101833
101707
105626
105502
97445.3
103956
102504
104329
105912
105897
105368
105184
99852.8
100330
105735
105884
105859
105605
105604
105594
99335.4
105595
104107
105555
105396
105573
105576
105300
105423
104664
103669
95021.5
104314
94114.7
99174.7
94863
105479
105296
94939.1
99352
105782
97120.5
105489
105501
96058.1
105458
105482
106062
97509.4
96464.8
105667
105541
105743
105554
102069
106069
106043
105917
106077
100111
107388
100030
105478
93767.1
101889
104887
100683
103495
106025
105487
105473
105474
105851
105840
105879
105539
105928
105392
105412
105554
105530
105421
105312
105326
105414
105405
105313
101359
102318
105439
105412
105374
105875
105952
105967
105961
95767.4
105406
114250
105395
105619
105215
105264
105345
99352.7
105292
105375
105828
99532.3
105573
105638
104918
105180
102545
103838
106031
105808
106022
105992
106128
106022
105945
105741
104858
105294
104394
104091
100075
101086
105347
115027
105673
105696
105220
105687
105247
99968.6
100306
99919.1
100130
99993.6
106012
106069
105689
105699
105480
105620
105404
105218
104988
100707
105729
105137
105416
105445
106070
104851
105528
105550
105598
106037
103020
103353
103322
103322
87821.4
100498
101664
101660
100755
100055
106219
99704.2
100065
118833
101774
101733
100891
105530
105519
105518
105561
106078
105907
105641
105407
105717
105709
105099
105670
105704
104993
104693
104493
104442
101534
104769
104497
104739
105448
97015.1
98257.2
98582
105357
105152
105174
105589
105605
99796.4
105123
100360
104994
105472
105445
105492
105403
102366
102552
111119
93357.3
105726
105591
105390
95135.3
102716
102430
102259
103014
103271
102040
103964
97408.5
105432
105243
105353
105080
105482
105125
105138
105183
105125
105454
106294
106290
105763
105662
106570
100865
100982
103469
101299
100416
105897
103353
101602
136855
105361
105360
105463
105637
94867.2
105767
105378
105643
100086
105221
95089.8
105016
105152
91945.9
102570
97169.7
95741.8
90579.9
97609.2
99569
105617
105600
106471
105650
105351
119272
99061.7
106377
106059
100632
105947
106030
104954
105838
105464
105570
105474
104794
104735
105163
105050
101884
104969
100194
105315
102393
105535
99023.7
105506
97763.1
107159
105514
105781
105613
105485
107188
105568
105571
96039.7
95208.7
104000
105118
107207
105276
97465
98181.5
98902.4
99332.5
98527.4
97894.1
105985
105663
105813
100438
104990
100212
105812
100580
105359
105415
105507
105394
105551
104917
100845
100746
99866.6
102598
100605
105431
105418
105423
104788
105417
105393
105319
105378
105199
105878
105248
105316
105594
105285
92253.6
106863
97499
101634
105345
105018
105309
105328
105258
105376
105252
105326
105534
105995
105593
104831
105500
105417
105432
101725
101859
105449
105391
103772
105092
105468
105456
105060
105470
90004.1
104931
104147
105462
105102
105675
105296
105580
100423
104998
106060
105047
105945
105938
105659
105626
105569
105256
105411
104780
104606
105230
104250
104040
105464
104431
104174
104300
105650
105574
100812
105619
105510
105583
105124
104750
105413
105718
105573
105627
105653
104270
103657
100464
105387
121320
105275
104876
105705
105589
104641
104466
104526
105349
105404
105385
104541
106079
105550
105556
105555
103884
104933
104075
101714
123671
118712
105809
105786
103724
92774.7
102037
105899
105942
105924
105700
105967
106058
105874
105692
104548
104826
105964
105982
105267
93277.5
101970
101240
100623
105314
105431
105275
105450
104533
105293
105447
89550.6
105311
100710
101270
101147
105726
105681
105892
105888
106045
105485
105913
101231
105930
105919
100604
101936
95320.4
105434
105245
105202
100508
100530
100471
105475
105465
99719.6
105744
105750
98955.2
106091
105972
106025
105418
105437
105157
105468
105415
105445
105454
105431
105421
101979
101901
102136
102262
104600
104832
105085
104997
99745.9
100737
101068
104265
105332
105284
105244
105216
105689
99858.5
105688
105678
105120
105127
105703
105694
100133
96196.5
100342
99756.2
103953
102508
104397
103837
103655
103807
105754
105415
105745
104626
96213
105762
105755
89095.9
105746
104826
104860
104895
104781
104740
105637
105511
105679
102820
104173
104209
103065
103261
106013
106056
106034
106023
106042
104863
106030
99798
105375
90008.1
105500
105508
105902
105875
105497
105728
100380
105500
105421
119384
101112
104504
106058
106075
105234
105208
99203.3
130017
105703
105692
105723
105712
105253
105271
105409
100370
105438
105427
105227
105297
105204
105063
105319
105532
105524
105237
94623.5
105311
102972
105363
97888.5
105334
100299
101109
105170
104272
104013
104898
103268
105419
105438
105577
101066
105193
105223
105929
103622
105052
104963
105350
105188
105109
99981.2
106068
106019
105823
106335
106925
107527
105639
105434
104900
104771
127050
99759.6
96699.4
105942
105898
105819
118951
122547
104622
105205
106122
105026
105094
105138
102545
100265
105653
102273
102391
100940
102567
105435
101335
100037
100201
105132
105101
100153
105329
105352
105334
105302
105317
105357
99996.7
105356
102768
99935.4
102005
100258
99671.3
100027
105739
100143
105791
105760
105021
105419
100748
104517
105607
105569
105610
88103.4
99991.5
100201
105110
101730
106077
101812
101511
105766
103918
105300
100407
105957
105949
105639
105464
100301
105346
105271
105299
105446
104263
105532
104349
97209.4
104274
105456
105112
98595.4
100879
105104
105995
105025
120293
105381
105348
105348
106923
105296
104790
104859
105502
105548
105482
105599
105528
105524
104655
105134
104671
104974
105534
105717
105583
105874
105384
105375
105500
105395
105365
105546
103134
105523
100485
106023
105686
106980
105671
105143
140681
105780
104857
105886
105774
103140
105758
102742
105738
105751
105376
104409
80721.9
130289
105229
100354
99305.9
105310
105151
105320
96824.5
105327
105489
105472
98872.8
105664
105857
106144
105075
105459
105424
105371
105432
105419
90804
105718
105091
105686
105481
106088
105076
105864
105547
105424
105288
105367
105009
104553
100093
99624.5
104514
103149
104434
105014
105414
106046
105830
105820
105808
105817
105498
103926
105519
105523
105506
105017
105004
102991
102883
105465
105841
106108
105840
106081
105920
105247
105678
105606
105259
102306
102606
105701
105288
105243
105240
106046
92640.6
105382
92248.5
105345
105305
105426
105406
105439
104714
105181
105929
99751.1
102598
105060
105043
105346
103745
100026
101897
103822
103937
103894
100242
100231
105399
104488
106079
106882
104477
106926
105348
105145
105740
105745
105454
105460
105448
104538
105330
105631
100546
105294
105327
105762
100533
105920
104455
105836
97182.6
99613.6
104953
104932
105577
105405
105575
105525
105493
105491
105444
99940.1
99832.7
105852
105451
105848
105869
105468
105430
105501
105957
105479
105976
105628
105753
105424
104566
104137
117573
105313
105333
104066
104440
103712
104215
105453
101212
121285
105451
121318
106090
106086
105725
105710
103473
103499
103208
101924
102968
106518
101992
105468
105500
105492
106056
105494
106099
104300
105488
105817
105806
105389
105526
105267
105299
101674
104662
104209
105852
100331
105840
105893
105874
105579
105132
105071
103211
105680
98300.7
100486
100664
100493
98795
85745.7
99394.5
99793.2
100030
105688
104793
104848
104771
104958
105428
104894
105609
105877
105527
105164
105100
102466
102441
100200
104097
100444
105021
99922.5
105420
126330
104901
105257
104778
104003
105419
106034
106086
87637.9
99707.8
99701.3
105387
105917
100364
105906
100485
98478.2
105941
105950
105297
105289
105311
104670
104222
104494
105900
105486
105599
104557
105162
104289
103455
104547
103256
106008
106003
105974
105975
105970
105631
105563
105667
105218
105285
105334
101364
102321
100615
100963
101201
100817
99190
101863
96221.9
91591.2
87784.3
108471
105798
105331
106794
106382
107331
83494.9
90227.2
105382
105385
105361
106558
105462
105445
106111
93576
102272
96948.6
105569
104487
131643
105579
105820
105768
105775
105726
105749
105367
105426
130591
105414
104698
104610
102347
105567
105574
102458
102055
98986
98651.7
97254.9
105362
99452.3
100778
105496
99692.4
99790.7
99804.2
99695.8
99102.7
93951.8
105836
105824
105503
102103
105936
105495
105871
105942
105047
104989
105461
105521
105576
105029
105082
105303
105158
105194
102897
105436
102764
94461
119766
111389
127057
128825
105179
105278
105237
105661
105643
91484.1
108998
100738
124119
99186
100341
105453
105453
106058
105865
105848
105889
105559
105743
105179
105425
105746
99834.9
92808.9
99883
105245
118881
106165
105880
105910
105637
105645
105721
105709
105323
105689
105232
104917
98327.1
98174.6
104705
104619
100609
100982
105591
105608
105597
104118
105930
104324
105861
105479
105486
105567
105576
105495
105520
104616
103772
103709
105684
105525
105864
105846
105232
105542
105030
105614
93680.5
105837
99926.8
99926.4
105823
98018.4
96009.2
105822
105822
105563
105843
105515
105507
105525
105145
105116
105778
105761
105107
103225
103032
105843
102120
96765.2
105942
105936
105838
105842
105864
105626
105586
105329
105177
105353
103931
103885
105892
105733
104896
92583.7
105627
105570
105250
105242
105268
105273
105181
105449
104451
105454
105234
104339
105494
105944
105933
105628
104190
105844
105480
105523
105369
105324
106900
106006
105960
105433
105335
105306
105353
105423
105427
104573
98931.3
105038
120878
105863
105307
105697
106660
106081
106103
93095.3
89030.5
89827.6
89351.7
106096
105325
106087
105429
93425.3
105917
105697
90848.9
88905.9
97129
105356
105427
105862
105467
105375
105229
105372
105446
105438
106475
105412
105403
105882
105167
100505
99976.8
100339
102845
104859
104260
105377
102018
105861
102128
105614
105288
101019
105290
105350
105326
105289
102015
104108
105385
101879
136194
128164
165658
101225
101231
105416
101909
101032
101313
105429
105671
105423
108651
105490
105482
105467
168296
105478
105507
146976
105768
105778
100430
100036
105485
98999.1
105521
96592.9
105960
105764
100081
100242
98922.3
105983
105850
105901
105929
105889
105229
105243
105260
100138
100411
121453
105628
105975
104780
106008
105591
105639
105586
117456
105364
105322
99973.5
105992
106043
106054
105404
105470
105410
105396
105417
105937
105392
105760
105786
105399
104644
105565
104301
97553.2
95342.1
101574
106008
104660
103806
103626
105403
103931
101999
105369
98818.2
105350
105364
105454
100457
99996
105456
105778
106073
105976
105993
105554
105596
105372
105379
101034
105393
105418
105416
102729
106416
104507
104780
94615.7
93070
105032
106537
104799
104816
104629
105487
98930.7
95234.1
100051
99433.4
105401
98977.4
105787
106087
106070
99824.6
101003
105832
105309
105337
105626
104980
105364
104981
104932
105423
105345
105396
100756
105893
105313
105435
105396
100548
105581
105260
102264
103623
103526
103871
103789
103638
104414
105362
105369
105841
105849
105813
105380
105466
105405
105999
105916
106016
105407
92428.6
98679.6
92414.5
96611.8
92449.2
101031
87416.5
105767
105800
105875
105831
102106
105829
105848
105832
105820
105837
105379
99322.3
105481
105522
105494
105535
105519
105590
105424
105443
103326
102431
103378
105545
105403
105306
106004
100279
88253.2
106023
105602
105602
106024
97395.6
98472
105615
105612
105811
105784
105782
105799
105804
104743
105420
104984
105422
105215
99893.6
105179
105379
105196
104368
84607.9
105173
105890
105648
104876
101136
105082
105101
105558
105774
105674
105754
106039
106100
106089
105426
106026
105474
103452
101787
102424
101708
106074
105951
105277
105216
105208
105647
105230
105561
105583
105628
104023
103963
104139
103648
100868
100544
100523
100410
100578
101588
101381
104168
99973.7
99987.4
100008
99991.6
100004
105693
105674
105660
105801
105790
104694
104567
105825
124766
99996.7
104665
105801
105498
105154
105108
105032
106023
102791
103011
105031
105055
105323
105425
105266
104782
98908
105940
105363
105363
105304
105389
105453
105362
105428
104807
99333.6
105365
105283
103023
103412
105568
105386
105500
105171
105239
105312
105267
105388
101286
101370
105392
106010
106013
106014
105999
106002
103679
101299
102857
103367
103273
103792
105608
105405
104764
105073
106046
104667
104670
104437
104891
102249
101325
100100
106142
105930
105963
105902
105893
105863
105590
105609
105625
105578
105450
105436
105438
105424
105426
105287
105354
105014
104930
105177
105408
105603
105716
106018
105709
105665
105607
105546
105540
106014
105889
105486
105962
106005
105408
105372
102343
105423
105860
105488
105469
105514
105590
105336
105127
105384
105385
100220
104621
105346
123815
100887
115763
100074
101406
105562
99804.1
101121
105436
105534
71620.4
91137.1
85483.8
90714.8
98611.3
98865.5
99591.6
115196
121179
101838
105127
106624
100357
98454.7
105691
124811
105408
105774
105476
95890.5
104650
90193.8
94779.1
105544
104767
105512
105590
105531
105574
98645.1
99085.4
99571.7
100593
99572.8
96738.4
149071
101495
105510
105513
99588.1
105830
105744
104977
105826
105747
105188
105807
105707
104550
105209
106053
105991
106144
106081
106123
105466
105295
107858
105605
95074.1
91070.8
96850.8
91043.5
96117.8
90742
105498
105536
105226
105565
105589
)
;

boundaryField
{
    Inlet
    {
        type            prghTotalPressure;
        p0              nonuniform List<scalar> 0();
        value           nonuniform List<scalar> 0();
    }
    Outlet
    {
        type            fixedValue;
        value           uniform 100000;
    }
    Symmetric
    {
        type            symmetry;
    }
    Wall
    {
        type            fixedFluxPressure;
        gradient        uniform 0;
        value           nonuniform List<scalar> 
217
(
106074
106012
105949
105888
105823
105762
105705
105645
105589
105534
105479
105419
105351
105271
105164
105021
104826
104566
104209
103755
103140
102466
101812
101231
100754
100505
100133
100069
100143
100081
106069
106006
105945
105881
105819
105756
105699
105643
105585
105526
105472
105413
105342
105275
105169
105026
104841
104552
104209
103712
103153
102524
101884
101312
100846
100493
100265
106088
106087
106025
106043
106026
105965
105982
105962
105901
105919
105893
105837
105856
105834
105775
105792
105768
105718
105732
105714
105657
105673
105658
105602
105617
105599
105547
105561
105538
105492
105507
105491
105436
105452
105435
105375
105389
105363
105300
105314
105293
105206
105224
105193
105075
105098
105065
104900
104933
104883
104657
104705
104641
104339
104403
104312
103918
104000
103884
103352
103455
103285
102694
102806
102621
102040
102136
101979
101446
101511
101381
100938
100982
100879
100485
100615
100486
100216
100342
100211
106056
106100
105986
106039
105932
105974
105864
105913
105801
105851
105743
105786
105686
105727
105628
105671
105572
105613
105512
105555
105456
105502
105395
105445
105331
105375
105245
105312
105132
105223
104989
105107
104771
104935
104497
104707
104107
104400
103622
103964
102998
103452
102306
102817
101674
102198
101112
101588
100665
101066
100330
100664
100040
100377
106058
105995
105930
105869
105806
105746
105689
105632
105573
105519
105466
105407
105338
105255
105145
104993
104788
104509
104137
103657
103032
102366
101730
101176
100752
100339
)
;
    }
    procBoundary2to3
    {
        type            processor;
        value           nonuniform List<scalar> 
34
(
106110
106100
108751
106178
106131
106113
106182
108272
106315
106272
106108
106080
106086
106167
106093
107275
106090
106234
106114
106094
106094
106105
106486
106779
106103
106085
114923
106169
106129
106740
107209
106112
106604
106111
)
;
    }
}


// ************************************************************************* //
