/*--------------------------------*- C++ -*----------------------------------*\
| =========                 |                                                 |
| \\      /  F ield         | OpenFOAM: The Open Source CFD Toolbox           |
|  \\    /   O peration     | Version:  v2006                                 |
|   \\  /    A nd           | Website:  www.openfoam.com                      |
|    \\/     M anipulation  |                                                 |
\*---------------------------------------------------------------------------*/
FoamFile
{
    version     2.0;
    format      ascii;
    class       volVectorField;
    location    "0.03";
    object      U;
}
// * * * * * * * * * * * * * * * * * * * * * * * * * * * * * * * * * * * * * //

dimensions      [0 1 -1 0 0 0 0];


internalField   nonuniform List<vector> 
14347
(
(-0.0641892 0.00210369 -1.52308)
(0.411784 0.0416471 -0.276346)
(0.527947 -0.00673941 -0.473285)
(0.000843339 7.214e-05 -0.121658)
(-8.13945e-05 -1.07516e-05 -0.122666)
(-0.0245045 -0.000753887 0.139353)
(-3.03086 -0.425119 -59.7834)
(0.185027 0.0188672 0.0960928)
(6.06969e-05 1.0317e-05 -0.121274)
(0.00204612 0.000141334 -0.123162)
(0.160042 0.0120343 -0.418823)
(-0.0318587 0.00171278 0.141243)
(0.0415809 0.00232414 -0.103363)
(0.000280325 -0.00707316 -0.114097)
(-0.0257302 0.00325309 0.143086)
(1.378 0.0150008 6.77633)
(0.00215258 -0.013065 -0.0544854)
(-0.00425795 -0.0129202 -0.0568161)
(-0.190525 -0.00593947 -0.644118)
(0.0608629 0.00523636 0.266471)
(0.000528582 0.00260674 -0.018842)
(-0.00368831 0.00523685 -0.0321597)
(-0.00437233 0.00171707 -0.126063)
(0.0542142 -0.000727827 0.259233)
(-0.0687601 -0.00473648 -0.379464)
(0.0683032 0.00701576 0.255615)
(0.0182897 0.000503327 -0.0684659)
(-0.00420377 -0.00251433 -0.0211412)
(-0.00642518 0.000747389 -0.0224267)
(-0.335336 0.00784496 -0.0370794)
(0.00769506 0.00527137 -0.0841483)
(0.0231818 -0.00304037 -0.0715521)
(-0.0601798 0.000847686 -0.00667575)
(0.0239739 -0.00175667 0.0284442)
(-0.0543402 -0.00155313 -0.00476829)
(-0.198845 0.0429717 -3.34931)
(-0.0628245 -0.00210392 -0.0102391)
(-0.0582347 -0.00161047 -0.012377)
(-0.391339 -0.0109394 -0.160509)
(-0.926436 -0.21626 7.10893)
(0.0158869 0.00180506 -0.0779089)
(0.0108977 -0.0014743 -0.0754458)
(-0.0108044 -0.00102991 0.129778)
(-0.367847 -0.0151279 -0.0926165)
(0.00648466 0.00537157 -0.0798896)
(-0.0371929 -0.000621024 0.140721)
(0.00179634 -0.00282127 -0.0225678)
(0.0138026 -0.00371073 -0.0334123)
(-0.000127452 0.00320668 -0.0102649)
(-0.0269186 0.000464616 -0.0324765)
(0.0455569 -0.00291244 -0.228073)
(0.0433104 -0.00598691 -0.235441)
(0.0669795 0.00156744 -0.234432)
(-0.579253 -0.0819207 0.436221)
(0.0336025 -0.0028559 -0.243301)
(0.161608 0.00350746 -0.382547)
(0.632735 0.00346071 -66.2496)
(0.000389729 -0.000136084 -0.0298024)
(-0.00535981 -0.00054448 -0.120869)
(-0.00431112 9.13538e-05 -0.124918)
(0.0774678 4.19876e-05 -0.12549)
(-0.00253456 -0.00103831 -0.12477)
(0.157232 0.0411757 -1.61474)
(-0.00593226 -0.0114198 -0.0748141)
(-0.00206601 -0.000633273 -0.129168)
(0.0503452 0.00521486 -0.741648)
(-0.00637209 0.000168074 -0.0473646)
(0.224032 0.0373035 1.52937)
(0.00010314 0.0123398 0.0914053)
(1.27213 0.216268 3.78433)
(-0.000106726 -6.54772e-06 -0.121489)
(0.00333337 -0.00012319 -0.125036)
(-0.00649365 0.00370529 -0.0613742)
(-0.255565 0.00222116 1.26499)
(-0.406279 0.0156734 -11.8835)
(-0.376042 -0.0186979 -0.0125633)
(0.0555448 -0.017378 3.42257)
(-0.229085 0.0220195 0.00902102)
(-0.409461 -0.0141187 -0.0279965)
(0.0330878 0.00525425 -0.758755)
(-0.107976 0.0597315 -11.6279)
(1.27133 0.00199762 4.34234)
(0.617892 0.236078 -39.3666)
(0.920084 0.369122 -38.1742)
(-0.00245472 -0.000968723 -0.12141)
(1.63673 -0.164876 -61.718)
(-0.604331 -0.224654 1.08261)
(-0.0208026 -0.000542708 -0.123846)
(-0.440912 -0.442471 0.151979)
(-1.00677 -0.0915144 2.17499)
(-0.471872 -0.118309 1.9081)
(-0.307018 0.0634716 2.54498)
(0.375084 0.0280396 0.0663679)
(-0.458665 -0.0458698 0.920581)
(-0.611132 -0.053087 2.39086)
(0.00128619 -0.00230662 -0.0264213)
(0.574215 0.0228497 -2.15643)
(-0.181478 0.314443 -57.4037)
(-0.264272 0.0277313 -13.0902)
(0.00223955 0.000562675 0.0129968)
(1.11107 0.304982 0.14191)
(-0.21865 -0.0147787 0.118903)
(-0.0994724 0.0365301 -11.5718)
(-0.478782 -0.0187797 -2.32873)
(-0.28992 -0.024392 -0.830857)
(-0.276927 0.00324574 2.558)
(0.16798 -0.00290075 -0.233761)
(0.0166979 -0.0128181 0.210253)
(-0.00165616 0.00346686 -0.10869)
(-0.0211224 0.0520536 -0.432003)
(0.299755 0.039213 -0.894064)
(-0.187575 0.00684937 -1.3479)
(0.0899469 0.00381526 0.287576)
(-0.191104 0.01032 -1.85088)
(0.515841 0.0395288 -0.329106)
(0.0183536 -0.00102058 0.196824)
(-0.013531 -0.0241231 -0.551462)
(-0.00350579 -0.0017526 0.00176053)
(-0.16463 0.0265049 -0.155071)
(-0.191875 0.0265119 -0.399183)
(-0.15867 0.0891233 -1.97811)
(0.00451005 0.00943478 -0.0601631)
(-0.285804 -0.0182537 0.0486739)
(0.00526565 0.0442669 -11.4816)
(-0.22207 0.0331566 -11.8693)
(0.0735171 0.035586 -2.81913)
(-1.55038 0.0209011 -10.4446)
(0.0163038 -0.00587722 -0.172488)
(-0.0393675 -0.00118068 -0.0531629)
(0.00246367 0.000271339 -0.121915)
(0.109761 0.0101382 -0.735099)
(0.0739598 0.00567517 -0.348524)
(-0.0585547 0.0511051 -7.977)
(0.027642 -0.00338572 0.310485)
(4.32594 0.96301 -10.1604)
(-0.152741 -0.060457 -3.95136)
(-0.197813 -0.00357465 0.0656508)
(0.274664 0.0968858 -0.0193355)
(0.0434187 -0.00218091 -0.364607)
(-0.00933707 0.0015368 0.0506182)
(-0.548672 0.417868 -1.51598)
(-0.301702 -0.0142057 0.282623)
(-0.327305 -0.0535642 -11.3405)
(-0.00985551 -0.000658488 -0.160342)
(-0.356733 -0.0168415 0.0908721)
(-0.00589235 -0.00339946 0.0457438)
(-0.0566003 -0.00364746 -0.256185)
(-0.0196013 -0.000237602 -0.0830032)
(-0.278256 -0.098673 -0.0905038)
(-0.0123109 -0.0383653 0.258768)
(0.00341171 0.00358347 0.022991)
(-0.00614763 -0.00195898 0.0511429)
(-0.153903 0.0270032 -3.16372)
(-0.78059 -0.108471 2.00082)
(-0.00564337 0.00171063 0.152346)
(0.153292 0.00333872 -0.498969)
(7.49259 0.79094 9.00813)
(0.868092 0.0944987 7.75367)
(-0.0086275 0.00138669 0.16899)
(0.0385852 -0.0362915 -0.396686)
(-0.47628 0.0884843 9.68487)
(-0.839062 0.0967492 -9.70358)
(-0.184706 -0.0117183 -0.0999727)
(-0.00890656 -0.00227469 0.175092)
(-0.0125588 0.00210567 0.1708)
(-0.00538891 -0.00239212 0.0673334)
(-0.00717408 -0.00049461 -0.142314)
(-0.0314066 -0.00319942 0.0352493)
(-0.0103959 0.00137991 0.074459)
(-0.00234555 -0.00106178 0.107614)
(-0.00654751 0.0106078 -0.0986112)
(0.303166 -0.0399109 -3.78979)
(0.00464984 0.0112248 0.0986378)
(-0.100498 -0.00649658 -0.295977)
(-0.0162394 0.0144128 0.0716864)
(0.00389641 -0.0163399 0.0699694)
(0.00441973 0.00729953 0.0883149)
(-3.4537 -0.0675072 -5.20912)
(-0.0115976 0.0420378 -3.19653)
(0.0768901 0.0509782 -3.12815)
(0.00564146 0.0129603 0.142728)
(-0.0351083 -0.0002275 0.224941)
(0.183791 -0.00151817 -0.109433)
(-0.0265761 -0.00102344 0.180741)
(-0.00436251 -0.000773245 0.159268)
(2.09009 -0.216653 -60.5188)
(0.0192326 -0.00687843 0.149316)
(-0.00382266 -0.0212764 0.150799)
(-0.458563 -0.0171266 -2.89595)
(0.461946 -0.018569 -3.81448)
(0.0108712 -0.00412595 0.192159)
(-0.088663 -0.0046857 -0.326911)
(-1.05162 -0.0327036 -3.83406)
(0.00988929 -0.00908381 0.192755)
(-0.538184 0.0156982 -0.54573)
(-0.0213895 -0.0668605 0.205317)
(-0.686661 0.0537319 -3.44664)
(-0.00546952 -0.00843721 0.107998)
(-0.00593556 0.00785435 0.0217612)
(0.00212374 0.0170492 0.0695782)
(-0.0043121 -0.00538941 0.111205)
(-0.00530344 0.00446898 0.123276)
(-0.0179272 0.000526355 0.119466)
(-0.00420949 0.00235205 0.1336)
(-0.0474032 -0.00769462 0.150934)
(-0.0466573 -0.00430599 0.122329)
(-0.0128947 0.000675347 0.126043)
(0.0563606 -0.00733554 0.0949674)
(-0.00341698 0.000549884 0.125288)
(0.03584 0.00657701 0.0772922)
(-0.632083 0.0174435 -6.1046)
(-0.130456 0.248808 2.69543)
(-0.0116327 -0.00014792 0.132627)
(-0.0110191 0.00541082 0.259606)
(0.00232513 0.00326903 0.0665211)
(0.0658831 0.00492437 0.0683128)
(0.00170906 -0.0279658 0.162982)
(0.0534183 -0.000950549 0.0959615)
(-0.9447 0.00477727 -5.7984)
(0.0239789 -0.0130147 0.268494)
(0.0255516 0.00297143 0.278914)
(0.00491963 0.0384643 0.130424)
(0.00930543 -0.000363806 0.241608)
(-1.00498 0.0176703 -3.67159)
(-0.00160256 0.00608045 0.103233)
(-0.015367 0.00247449 0.151312)
(-0.0308603 -0.000796926 -0.176088)
(0.00767649 0.000813507 -0.124365)
(-0.0183404 -0.0547896 -0.422292)
(0.0204678 0.000464894 0.290562)
(0.0589311 0.00368981 -0.0334599)
(0.00335825 -0.00454704 -0.128918)
(0.215968 0.0544964 -1.35186)
(-0.0301299 -0.00119689 -0.172511)
(0.0855431 -0.00158621 -0.0734479)
(-0.00843968 0.0146077 0.0987378)
(0.254436 0.0226242 -0.157215)
(0.000730191 0.00488237 0.00989968)
(0.191934 0.015073 -0.166937)
(0.0419763 0.000624325 0.168557)
(-0.0237976 -0.00095031 0.142605)
(0.0115663 0.000681617 -0.128173)
(0.036874 -0.000722482 -0.377663)
(0.0235575 -6.31531e-05 -0.391307)
(0.00442617 -0.0115507 0.152396)
(-1.14601 -0.0458604 -2.05409)
(0.0168385 0.00781642 -0.362428)
(0.0666561 0.0018961 -0.125129)
(0.362001 -0.0111461 -0.158194)
(-0.0375708 0.0239991 -0.476517)
(0.00505535 0.00537404 -0.151344)
(-0.0374351 -0.00200654 -0.175802)
(0.00512214 -0.00185326 -0.145434)
(-0.0249006 0.00124172 -0.00171429)
(0.499681 0.0187899 -0.223818)
(0.000947603 0.0126768 -0.142911)
(0.0334796 -0.000752588 -0.396212)
(-0.0355918 -0.00477133 0.0378433)
(-0.0207856 -0.00589671 -0.735483)
(-0.0713139 0.00321639 0.374808)
(0.0897116 -0.00105737 -0.346138)
(0.00720146 0.0042463 -0.664962)
(0.00703493 0.0106526 0.110796)
(0.125762 0.00801082 0.326109)
(-0.0542645 0.00331901 -0.821543)
(0.0766142 -0.00337169 -0.580698)
(0.0495078 0.0045178 -0.189546)
(-0.0827357 0.00262727 -0.778292)
(0.193564 0.0098077 -0.22769)
(0.00389362 0.00592839 -0.031138)
(0.017244 0.000997385 -0.184268)
(0.108664 0.01515 -0.213645)
(0.198724 0.00796312 0.0499208)
(-0.0190195 -0.048192 -0.348454)
(0.16774 0.0121824 -0.261425)
(-0.000828772 -3.50907e-05 -0.0217385)
(0.0707817 0.00189916 -0.45011)
(0.24472 0.003552 -0.21185)
(0.101822 -0.00200505 -0.196742)
(-0.064147 -0.00760568 -0.67565)
(0.012202 0.0201035 -0.754832)
(0.46937 0.0142049 -1.35446)
(0.341979 -0.0879045 -2.51885)
(-0.153525 0.00775576 2.31671)
(-0.0119399 0.000612004 -0.0390471)
(0.249851 0.00554014 -0.399288)
(-0.0829102 -0.00544463 -0.33999)
(-0.36564 0.0238136 -13.3554)
(-0.978782 0.0565321 0.05238)
(-1.57716 -0.077355 -0.0826564)
(-2.21514 0.220755 0.626232)
(-0.0419881 -0.00264532 -0.186092)
(-0.168533 0.033927 -11.715)
(-0.0801385 -0.0032965 0.0134449)
(7.98659 1.38645 -21.0781)
(0.215286 0.0113041 -0.370361)
(0.237033 -0.00120835 3.51984)
(0.237354 -0.0745388 -3.7805)
(-0.304043 0.0593468 -0.694595)
(-0.382061 -0.0113065 -1.26256)
(-0.00276207 -0.0110224 -0.0580234)
(0.268623 -0.0310294 -2.29735)
(0.000604103 3.77036e-05 -0.119749)
(-0.00322112 0.00152605 -0.0567622)
(-1.89795 -0.0557687 -0.257999)
(0.0943222 0.00939314 -0.389671)
(0.000869908 5.85057e-05 -0.119578)
(0.000376863 -2.00496e-05 -0.119281)
(0.99518 0.335979 -60.7502)
(-0.491975 -0.020429 -0.417012)
(-0.174663 0.0349787 -11.4264)
(0.00087706 1.30623e-05 -0.119158)
(-0.0215074 -0.00410537 0.155285)
(-0.000751659 0.0049118 -0.112442)
(-0.0743763 -0.00134449 -0.0727286)
(0.216083 -0.0503395 -5.61093)
(-0.00279179 0.000527827 -0.112503)
(-0.0040595 -0.000452514 -0.121977)
(-0.00903262 -0.00225944 -0.108248)
(-0.00644926 0.00459192 0.102707)
(-0.575666 -0.0237833 0.0856682)
(0.0010709 6.15424e-05 -0.121531)
(0.00185749 1.7975e-05 -0.120814)
(-0.000176081 -2.56744e-06 -0.121356)
(-0.000345338 -0.000219585 -0.127068)
(0.0352606 0.0015891 0.144682)
(-0.00944256 0.00742135 -0.046987)
(-0.0603209 0.000301893 0.156159)
(-0.0407008 -0.000751098 -0.0839177)
(-0.00687567 0.00336817 -0.106518)
(0.020992 0.000743118 -0.103986)
(0.0673917 0.00506108 -0.0790359)
(0.0129268 0.00112464 -0.128582)
(-0.00708267 0.00452413 -0.107698)
(-0.00463146 0.00333623 0.0947557)
(-0.00295772 -0.00812378 -0.116413)
(-0.00136304 -0.000256233 -0.127058)
(-0.00164666 0.00375996 -0.115332)
(0.0037117 0.000656034 -0.0781889)
(-0.192551 0.0241872 -12.9834)
(0.0010556 -0.0115531 -0.0741739)
(0.0019831 -0.000772734 -0.127841)
(0.0317807 -0.0449104 -0.135006)
(0.00701151 0.00049007 -0.123804)
(0.00105975 0.00120706 -0.129366)
(-0.00145031 -0.0135693 -0.78652)
(0.00105561 -0.000652972 -0.12649)
(0.642376 0.342063 -63.6039)
(0.155926 0.334525 -58.8182)
(0.161711 0.238239 -55.9299)
(0.00335582 0.138395 -39.0751)
(1.92018 -0.120597 -2.58772)
(0.0298927 0.0835923 -47.9008)
(0.193913 0.0458442 -0.722697)
(-0.0184961 -0.0010478 -0.0248702)
(-0.0139781 -0.00194098 -0.072945)
(-0.0030859 -0.00102542 -0.128517)
(-0.0163044 -2.22647e-05 -0.0178546)
(0.0693327 -0.00259162 0.0893983)
(-0.700269 -0.0257406 -0.292697)
(-0.00411161 0.00639762 -0.0348957)
(-0.189361 -0.0191683 -0.0200507)
(-0.587646 -0.0448269 -0.268989)
(0.00368401 -0.00343911 -0.0370973)
(0.0727264 0.00802659 0.0406853)
(-0.433656 0.000156645 -0.0106813)
(-0.0570309 -0.00363407 0.0303455)
(-0.447841 -0.0246081 -0.045188)
(-0.00187566 0.00897367 0.129024)
(-0.378104 0.0229973 0.00996773)
(1.26249 0.0205846 -4.80099)
(0.105901 0.0473835 -1.30518)
(-0.0148725 -0.000284998 0.168916)
(-0.579681 -0.0372016 -0.362509)
(0.001381 0.00253578 -0.0861315)
(-0.691141 -0.0174229 -0.413136)
(1.87369 -0.0375842 -61.0312)
(-0.631593 -0.029661 -0.42735)
(-0.0582289 0.0105216 0.130652)
(0.00792406 0.0171432 -0.763811)
(-0.0322985 0.000413094 -0.0526939)
(-0.00679331 -0.00254846 0.195571)
(-0.176257 -0.011453 0.0486906)
(0.0069984 -0.00386783 -0.0554892)
(-0.036243 -0.00227907 -0.0477075)
(-0.0200655 -0.00126905 -0.0511913)
(-0.0385821 -0.000620363 -0.0897995)
(-0.0150467 -0.000582289 -0.0475296)
(0.0382419 -0.0248891 -0.0236623)
(-0.0204902 -0.000222411 -0.0219475)
(-0.668814 -0.0102561 -0.31101)
(-0.00606853 0.000459261 -0.00163318)
(-0.00124103 -0.000853427 -0.121809)
(-0.158196 -0.00956348 -0.128705)
(0.348725 0.0142542 3.20694)
(0.0242055 -0.000708682 -0.104392)
(0.258345 -0.00313772 3.71528)
(0.165409 -0.101265 -63.9716)
(-0.00413787 -0.000495854 0.000859133)
(0.40522 0.0144759 0.142605)
(-0.153739 0.00455129 1.25195)
(0.369286 0.0224762 -0.497827)
(-0.203834 -0.00765889 1.2455)
(-0.257737 0.0180086 1.15053)
(-0.562628 -0.0256754 -0.320968)
(0.268751 0.023225 -1.04383)
(0.248679 -0.0190074 -0.915323)
(-3.20219 -0.0249228 -1.49556)
(-0.0100684 -0.00140367 0.118023)
(0.0598067 0.00153792 -0.121926)
(0.326042 -0.032485 -1.31822)
(0.327905 -0.00541454 -0.0846245)
(-0.772997 -0.00901688 -3.40199)
(-0.493146 -0.0138167 -1.4376)
(-0.105395 -0.010118 0.12375)
(-0.037615 0.00611894 0.0905355)
(-3.31475 -0.00620225 -3.22955)
(0.0381072 0.00493292 0.1763)
(0.815815 0.0531287 -63.592)
(0.755082 0.116827 -0.471676)
(-0.274588 -0.021468 -3.00064)
(0.123337 0.00584345 -0.0814124)
(0.0572865 -0.0607975 -1.8625)
(0.2485 0.0213174 -0.396266)
(0.0480495 0.00682854 0.101499)
(-0.17054 -0.00896084 0.0882797)
(0.0100938 0.00559359 0.0906566)
(-0.0585764 0.00539407 0.190294)
(-0.0046843 -0.000123676 0.00206886)
(-0.0989535 -0.026497 -1.7505)
(-0.278769 -0.0537575 -0.182435)
(-6.95857 0.205844 1.54673)
(0.0294786 -0.00227099 0.1273)
(-0.572424 -0.00821903 -3.14279)
(1.88186 0.115518 -4.71641)
(-3.73358 -0.33086 -2.77187)
(-2.60677 0.42382 -1.80804)
(-0.00207443 -2.76374e-05 0.077004)
(-0.0154619 -0.0398012 0.239666)
(0.0111222 0.0288551 0.348787)
(0.0139026 0.0161795 0.148599)
(-1.89333 -0.0074501 -0.886379)
(-0.0161087 -0.00139366 -0.104963)
(-0.00342479 -0.000809038 -0.128234)
(0.0894338 0.00217217 -0.261413)
(0.00587171 0.000114267 -0.088252)
(-0.00176307 -0.000165251 -0.128521)
(-0.10837 -0.00506076 0.0196758)
(0.0239589 -0.00280566 -0.177985)
(0.358842 -0.00185751 -0.448867)
(-0.0371011 -0.00163402 -0.127094)
(-0.0239854 -0.0432936 -0.350212)
(-0.0130718 0.00152616 0.085361)
(3.43026e-05 -3.38144e-05 0.152054)
(-0.0108871 -0.000415388 0.171825)
(-0.977781 0.0160041 0.166299)
(-0.00117471 -0.00526155 0.0651298)
(0.577371 0.033905 -0.846666)
(0.0220926 -0.000493656 0.036415)
(0.0332114 0.00173473 -0.114597)
(0.0265014 0.0137047 0.280522)
(-0.00206523 -0.0029012 0.0550357)
(0.00502415 -0.00824131 0.0361137)
(-0.00394864 -0.0120986 -0.0628074)
(-8.22934e-05 -0.0031613 0.0582109)
(0.0104586 -0.000627058 -0.133677)
(0.00126485 -0.00138857 0.112666)
(-0.00288885 2.80507e-05 0.0185141)
(-0.0053124 0.00176089 0.160896)
(0.00040552 6.32192e-05 -0.121858)
(-0.0190344 0.00250635 0.109282)
(-0.00561559 0.00284417 0.167592)
(-0.0111579 0.00608747 0.0889531)
(-0.00516567 0.00631066 0.0475268)
(-0.0140071 0.0194172 -0.342263)
(-0.0370142 -0.00515417 0.00454528)
(0.139393 0.016861 0.048968)
(-3.34816 -0.201922 -2.25293)
(0.32726 0.026091 -0.0332498)
(-0.00447469 -0.00846608 0.10748)
(-0.0020321 0.00436998 0.0140405)
(-0.0195906 -0.00313795 0.0725384)
(-0.0960989 -0.00215391 -0.0422573)
(-0.00507524 0.00210263 0.194689)
(0.00499614 0.049922 1.52857)
(-0.00211277 -0.0029205 0.00988539)
(-0.0026361 -0.00579485 0.13982)
(0.00658145 0.00558591 0.12646)
(-0.0102291 0.000560765 0.132522)
(0.665568 -0.153727 -9.37433)
(0.318741 0.00322713 0.18221)
(-0.0541926 0.00321288 0.238441)
(-0.00935 0.0013138 0.145536)
(-0.174669 -0.0173732 -1.18386)
(-0.00731598 0.00255808 0.18897)
(-0.0333649 -0.00291931 0.188499)
(0.0214728 -0.000639341 0.154121)
(-0.0215219 -0.00403418 0.193007)
(-0.0230178 0.00322474 0.174662)
(-0.0169237 -0.000879627 -0.00425611)
(-0.00083232 -0.000408201 -0.121749)
(0.0305517 0.00100011 0.153686)
(-0.00471514 -0.0132382 0.0809931)
(-0.0220424 -0.0141511 0.237527)
(0.0436677 -0.000520024 -0.115326)
(0.0511927 0.0026559 -0.0586645)
(0.00767875 0.00213048 0.116089)
(-0.0231499 0.0235808 0.0941707)
(-0.00250231 -0.0155078 0.114919)
(0.00152282 0.00171392 0.12909)
(-0.0151505 0.0075386 0.184444)
(0.176833 0.00504743 -0.316234)
(-0.00816968 0.01104 0.150304)
(-0.0184846 0.00725002 0.164387)
(-0.0287034 -0.00644122 0.243373)
(-0.0401956 0.00452783 0.233666)
(-0.0281478 -0.00270495 0.317885)
(0.0265854 -0.00241853 0.065852)
(2.58851 0.013449 -3.1736)
(0.0230854 0.00186232 0.0659021)
(0.221998 -0.0302011 -2.76938)
(0.0158724 0.0242689 0.219354)
(-34.0581 -1.94353 -44.6573)
(2.30702 0.0412482 -56.9776)
(0.867024 0.0910308 -62.8733)
(-0.00430377 -0.000116033 -0.120625)
(-0.036559 0.00422659 0.303914)
(-0.00489328 0.00345929 -0.0572863)
(-0.0146257 -0.00196149 -0.122275)
(0.108221 0.00673155 0.0553555)
(-0.0484311 -0.0053962 0.304449)
(-0.0450371 -0.000157371 -0.0208955)
(0.0405387 0.00690798 0.0558736)
(0.0431597 -0.00469854 -0.382161)
(-0.0538139 0.00372434 -0.826655)
(0.00502813 -0.00452674 -0.0926735)
(0.00914113 -0.000347836 0.00204643)
(0.169671 0.0143319 -0.510091)
(0.0425632 0.00399165 -0.681155)
(0.13583 0.00477884 0.17697)
(0.00424189 0.00815246 0.000839683)
(0.0147369 0.00978072 -0.00528821)
(0.0396036 0.00410412 0.0547052)
(0.0316229 -0.00041542 0.0339387)
(-0.00260574 -0.000366139 -0.119875)
(0.00206283 -0.00537507 -0.0674455)
(-0.00283368 0.0109815 -0.140019)
(1.59296 -0.0410144 -61.8724)
(0.0128857 0.00122925 -0.0599083)
(0.0293039 0.000285688 -0.0643249)
(0.00131448 0.00592775 -0.153513)
(0.0168619 0.00503247 -0.162427)
(0.00810387 -0.000660478 -0.179669)
(-0.412518 -0.0435972 -0.829742)
(0.00780036 -0.0060703 -0.0659636)
(0.0144059 -0.00698548 -0.156912)
(0.031066 -0.00547067 -0.163464)
(0.00359246 0.0032766 -0.155996)
(-0.0239881 -0.00102903 -0.0209466)
(-0.00500407 -0.0151426 0.140695)
(0.0213302 0.0024168 -0.115256)
(0.0826843 -0.010161 -0.477238)
(0.107682 0.0014069 -0.466431)
(0.0284007 -0.00962322 -0.526964)
(-0.00250902 0.00157781 -0.121212)
(0.112024 -0.000915153 0.0681788)
(-1.78868 -0.347751 -6.49995)
(0.0217159 0.00319431 -0.116623)
(-0.360293 -0.0349646 0.517351)
(-0.23344 -0.00477879 1.77226)
(0.147587 0.000652013 -0.612045)
(9.06509 0.572705 -49.1884)
(0.0132012 -0.00841966 0.0594544)
(-0.294046 -0.0619346 0.163631)
(0.0293433 0.00167485 -0.1195)
(0.129785 0.00812688 -0.835701)
(1.33629 -0.0274177 -0.0862052)
(-0.969798 0.00388918 0.00565012)
(1.07924 0.0249336 -62.9345)
(-0.343982 -0.0408965 -1.45638)
(0.0793657 0.00824581 -0.262769)
(-0.122514 0.00849385 -0.721168)
(0.292508 0.0595915 -1.46001)
(-0.272405 -0.0145704 -0.747768)
(2.13311 0.140129 -3.29493)
(0.0936857 0.00761534 -0.118821)
(0.0858364 0.0147384 -0.416353)
(-0.00441699 -0.000842651 -0.121732)
(0.0834903 -0.000155755 -0.17854)
(-0.272766 0.0161341 -0.159191)
(-0.0461375 -0.0206097 -0.759558)
(-0.0057588 -0.000567948 -0.121675)
(-0.939498 -0.0276268 1.38417)
(-1.55768 0.022302 0.472916)
(0.109971 -0.0191117 -2.73013)
(-0.11748 -0.00372391 -0.0183259)
(0.00426574 -0.00910244 0.109097)
(-0.192327 0.0265054 -1.90789)
(-0.0106059 -0.00059832 -0.00515035)
(-0.118154 -0.00583413 -0.0608091)
(0.155651 -0.0193408 -2.93241)
(-0.00762174 -0.000602094 -0.123276)
(0.00272601 8.72827e-05 -0.12956)
(-0.0659659 -0.00751762 -0.0268571)
(0.0092744 0.0107559 0.16066)
(-0.192336 0.0824876 -2.46345)
(0.00074377 -6.36293e-05 -0.124766)
(-0.476376 0.0190992 -5.4801)
(-0.0218043 0.00172818 -0.0333509)
(-0.0105147 -0.00203962 0.114503)
(-0.00212673 -0.0322149 -6.27179)
(-3.86001 -0.364363 -2.64182)
(-0.0746582 0.00280476 0.308967)
(0.0100082 -0.0703105 -6.64796)
(-0.00280504 -0.000725402 -0.125016)
(-0.284911 0.0241199 -12.2131)
(-0.00612591 0.0101809 -0.0505945)
(-0.0030664 0.00159066 -0.0850332)
(-0.00698849 -0.00114975 -0.114676)
(-0.0134499 -0.000390648 -0.114929)
(0.00195819 -0.00220398 0.209572)
(-0.196192 0.0181877 -11.8204)
(-0.0453831 -0.00431142 -0.544351)
(0.275237 0.106935 2.26561)
(-0.27511 -0.0137421 1.82368)
(0.00689659 0.00430022 0.260124)
(0.217894 0.36725 -67.6177)
(0.0133002 -0.136364 1.96503)
(-0.0957072 -0.00699215 -0.0303418)
(-0.152147 -0.0108933 -0.56657)
(-0.0755024 -0.0095506 -0.624142)
(-0.293608 -0.0231579 -0.911821)
(-0.0944774 -0.00210796 -0.662001)
(-0.110296 -0.000744889 -0.0146482)
(-0.0386013 -0.0445733 3.49388)
(-0.109374 -0.0020524 -0.0218142)
(-0.717529 0.00828077 1.49009)
(0.00507594 0.00234628 0.122881)
(0.00214816 0.00583739 0.102033)
(0.1021 0.00206029 -0.0996376)
(1.32018 0.210123 -0.0556436)
(0.0366714 -8.52627e-05 -0.11794)
(-0.110639 -0.00936589 -0.0318629)
(-0.114421 -0.00554298 -0.0252352)
(0.588758 0.0174877 -0.0159188)
(-0.00814966 0.00149225 -0.118429)
(-0.00155262 0.00214927 -0.115174)
(0.00161588 0.00734325 0.0473067)
(-0.00301786 0.00172574 -0.118011)
(0.00411787 -0.00640245 -0.0701973)
(0.00423089 -0.00652988 -0.0466481)
(0.169487 -0.0245018 -3.70486)
(0.358563 -0.0789289 -1.15191)
(-0.403686 -0.0592482 -13.4003)
(0.0264667 0.0938462 -1.54749)
(-0.121318 -0.00341171 -0.0297575)
(-0.278538 0.0272738 -12.3691)
(0.542504 0.0542842 -2.96871)
(-0.224136 -0.0801617 0.753904)
(-0.02036 0.00107304 -0.0371071)
(0.0959738 -0.0574706 1.2225)
(-0.0594935 0.029559 -11.7643)
(0.141 -0.0225163 0.970183)
(-41.6327 -0.25616 -17.0623)
(-0.000130447 0.0148748 0.0684938)
(-0.0335954 -0.000599858 0.0436755)
(-0.97318 -0.0257832 1.46682)
(-1.02765 0.00801214 -5.22903)
(-0.608654 -0.00418388 -5.16648)
(-0.844916 -0.0304582 -0.574792)
(-0.0330728 -0.00161523 -0.122128)
(-0.724485 -0.00493127 1.23144)
(-11.9786 -0.527528 -15.4042)
(-0.136728 -0.0175238 -1.23348)
(0.000757054 -0.000104304 -0.119192)
(-0.322326 -0.000727221 -1.40585)
(-0.460868 -0.0132033 -1.30841)
(-0.00731487 0.00184248 -0.0968781)
(-0.0980187 -0.00539579 0.0220068)
(-0.100063 -0.00490039 0.037885)
(-0.143864 0.0112343 -0.0867832)
(-0.0105893 -0.000554799 -0.139767)
(0.154095 0.00728763 -0.41236)
(-0.00465638 -0.000122871 -0.134022)
(-0.00839283 -4.73664e-05 -0.131904)
(-0.00389865 -0.000283559 -0.142175)
(1.0925 -0.0426524 3.32553)
(-0.275437 -0.0087037 -1.18304)
(2.23197 -0.0529884 5.31553)
(-0.0098056 0.000813457 0.0280926)
(-0.00729236 0.00257281 -0.0990704)
(0.0993849 0.0102838 -0.580361)
(-0.0122588 0.0021352 0.0597431)
(0.162328 0.00589992 -0.423291)
(-0.0432782 -0.00123603 0.0329457)
(-0.00398526 -0.0155295 0.0526365)
(0.014516 0.000865347 -0.107127)
(-0.0069467 4.93586e-05 0.0292235)
(-0.0125041 0.000659563 0.137679)
(0.0632382 0.00256757 -0.145839)
(0.0137886 0.00569306 0.0917918)
(-0.00921569 -0.00195227 0.102965)
(-0.0130245 -0.000459916 -0.123932)
(-0.00500456 -0.00104231 0.0306042)
(-0.0108004 0.0324264 0.207692)
(-0.0260184 -0.00626284 0.13144)
(-0.0158216 -0.00241164 0.0288358)
(-0.0487701 0.0216226 -0.919202)
(0.00664196 0.0205984 0.1228)
(-0.00439377 0.00137881 0.211352)
(0.000142513 0.00110143 0.157114)
(-0.0180129 -0.000501541 0.0465392)
(-0.0125289 0.000715646 0.16652)
(-0.0195174 0.00018127 0.0327072)
(-0.0580262 -0.00127552 0.0321963)
(-0.0390903 -0.00561787 0.159191)
(0.269557 -0.00257508 0.842644)
(0.000352107 2.04366e-05 -0.120926)
(-0.0165791 -0.000754391 0.138115)
(-0.0177245 -0.000951991 0.188568)
(-0.0399065 -0.00155529 -0.778471)
(0.155494 0.0227956 0.228792)
(0.000355491 -0.00025519 0.00245602)
(-0.0482512 0.000426114 -0.00174131)
(-0.0250492 -0.00234094 0.0387515)
(0.0555577 -0.000384424 0.217275)
(-0.130319 0.110676 -0.926436)
(0.0237942 0.00402132 -0.0815892)
(-0.141145 -0.0157381 0.131643)
(0.00425663 -0.000865883 0.192527)
(-0.00909612 -0.000625145 -0.113783)
(-0.00355155 -0.0117464 -0.124767)
(0.0108868 0.000451786 -0.102345)
(-0.00664299 -0.000830691 0.110735)
(-0.248092 0.0846342 -3.4166)
(0.0215981 0.00604575 0.118953)
(-0.0119031 -0.00174157 0.173585)
(0.000228095 -0.00916628 0.158339)
(-0.00311869 -0.000139325 0.16708)
(0.00879641 0.00388436 0.0613863)
(0.0184389 0.000785543 0.125107)
(0.114622 -0.00351332 0.0821508)
(0.245452 0.0186779 -0.400726)
(-0.00154033 -0.0244242 0.10495)
(-0.00930162 -0.00352778 0.17242)
(-0.0470774 -0.00286045 0.261675)
(-0.111189 0.0189992 -0.490128)
(-0.0188452 0.00184933 0.132957)
(-0.0237759 0.0013022 0.134062)
(0.0242581 0.00591218 0.140411)
(0.0304228 -0.00115462 0.13108)
(-0.497201 0.0100848 -0.2479)
(-0.00162983 -0.00696283 0.292622)
(0.81218 0.0195983 -1.33048)
(-0.0582042 0.00100594 0.232711)
(-0.0593225 -0.00312735 0.24962)
(-0.0517473 0.00169311 0.24567)
(-0.0827097 0.0416529 -0.613978)
(-0.298191 -0.0457448 0.26252)
(-0.289219 0.013077 -2.07715)
(0.0159763 -0.00301469 -0.11145)
(-0.0260263 0.000753648 0.13963)
(0.00279959 0.0432447 0.326323)
(0.0292903 0.00673909 0.155367)
(-0.0560198 0.000468041 0.22696)
(-0.0274555 -0.00579959 0.256436)
(0.0931207 0.00210798 0.247308)
(0.3762 0.0270062 -0.643396)
(0.0593136 0.000904425 -0.0859522)
(-0.0184628 0.0330937 -0.749448)
(0.0316735 0.00161893 0.126036)
(0.972529 0.0795687 -0.646384)
(-0.00153309 -0.00528293 -0.0251046)
(0.0213773 0.00506915 -0.0521395)
(-0.0180024 0.00057148 -0.0283406)
(0.0234072 0.00258486 0.13302)
(0.0314908 -0.00613317 -0.0689873)
(-1.25289 -0.0145496 -0.72536)
(-1.41981 0.0779332 -13.8618)
(0.069781 0.00867934 -0.189673)
(-0.0121878 -0.00230027 -0.0264273)
(0.0519665 -0.00163053 -0.227182)
(0.00440136 0.0138361 -0.148587)
(-0.0325876 -0.00162183 -0.40557)
(0.0686003 0.0024016 0.090133)
(-0.00389022 -0.000719364 -0.11046)
(0.0535227 0.00384253 -0.12615)
(-0.00590262 -0.00104553 -0.10972)
(0.0197231 -0.00114607 0.173341)
(0.0167433 -0.00385247 -0.138675)
(0.0105464 0.00388436 -0.143724)
(-0.0264014 -0.000997474 -0.121462)
(0.0123185 0.0376007 -0.539979)
(0.0373616 0.00369836 -0.127839)
(-0.117362 -0.00992483 -0.0437232)
(0.0512978 0.00724867 -0.241549)
(-0.15933 -0.0318028 0.534281)
(0.0910368 9.08042e-05 -0.256011)
(0.00586364 0.0323131 0.242681)
(-0.0263364 -0.0856391 -0.770019)
(-0.115808 -0.00138776 -0.0532482)
(-0.0878306 0.00892861 0.153677)
(0.893764 0.186708 -77.6483)
(0.0192954 0.000256269 -0.111798)
(0.225772 0.0216908 -0.370587)
(0.0193912 -0.000484718 -0.109387)
(0.136887 0.0110734 -0.326577)
(0.139458 -0.00426541 -0.437753)
(0.413864 0.00728293 -0.3792)
(0.00249124 -0.00631835 -0.117185)
(-0.00431523 -0.00321469 -0.79305)
(0.0537594 0.00534176 -0.748769)
(0.0425725 -0.00185717 -0.715892)
(-0.00616981 -0.000287932 -0.126084)
(0.248058 0.000139078 -0.959439)
(0.00780321 -0.020273 0.112441)
(0.114173 0.005045 -0.768676)
(0.0861968 -0.000256372 -0.777817)
(-0.0152087 -0.00293529 -0.0236447)
(0.115015 0.00376147 0.212362)
(-0.00161696 -0.00487885 -0.0963071)
(0.0164737 0.0170353 0.298739)
(0.0110365 -0.00285346 -0.11273)
(-0.0990124 -0.00517925 -0.194562)
(-0.00179341 -0.000554973 -0.128037)
(-0.138593 -0.00684926 0.030767)
(0.00218758 0.00181644 0.125953)
(0.0591866 -0.00634395 -0.403546)
(0.00123108 -0.000489544 -0.126892)
(-0.0203105 0.000244276 0.0291527)
(-0.00105208 0.00879322 -0.0658088)
(0.0340402 -0.00097811 -0.165425)
(0.0997191 -0.00129321 -0.100965)
(0.0145057 0.00930064 0.310515)
(-0.00787568 -7.91731e-05 0.0182567)
(-0.00554471 -0.00424016 -0.098312)
(-0.0741783 -0.00686074 0.0981064)
(0.0298158 -0.00804908 -0.407473)
(0.0846802 0.00665637 -0.0561241)
(-0.03442 -0.00784897 0.193966)
(0.115089 0.00948505 -0.341084)
(-0.0337282 -0.00428055 -0.0880343)
(-0.562252 -0.0897012 0.530666)
(0.0590146 -0.00101374 0.158065)
(-0.663939 0.0560316 -0.00973321)
(-0.0272225 -0.0130885 0.101932)
(0.00328874 -0.000281972 0.033969)
(0.0300838 -0.000814086 -0.202122)
(-0.0204966 0.0372333 0.116842)
(-0.00330018 0.00475344 0.00144296)
(-0.0271591 -0.00265489 -0.0603936)
(-0.127643 -0.0823877 1.42196)
(-0.0674438 0.00294397 -0.00939809)
(-0.0905582 -0.0922188 1.15403)
(-0.36721 -0.0794633 0.539459)
(-0.334141 -0.0768186 0.817457)
(0.196075 0.211206 -2.80423)
(0.146217 0.036711 2.93913)
(0.0827079 -0.0399049 -0.591166)
(1.05808 0.243602 8.49731)
(-0.0586761 0.0230467 2.36012)
(0.0571271 0.00296677 -0.11923)
(-0.000638516 0.0010708 0.00314088)
(-0.576394 0.015545 -0.573313)
(-0.354118 -0.0182859 1.55538)
(0.247066 -0.0829575 -4.37778)
(1.11006 -0.0166319 -0.0900685)
(0.0694142 -0.00444153 -0.760265)
(-0.211633 0.0526176 -0.913819)
(0.0738311 0.00408607 -0.730811)
(0.173835 0.0448186 -2.58049)
(0.0916511 0.00327754 -0.0987115)
(0.0481484 -0.00138127 2.07163)
(0.0114994 0.00592728 0.124742)
(-0.0276479 -0.00095274 0.026638)
(0.0773915 0.00677902 -0.0879476)
(0.0885167 0.00270451 -0.732227)
(0.296909 0.0311047 -0.0378674)
(0.203303 -0.00506667 -0.217164)
(-0.0784014 0.0241408 -11.8232)
(0.318884 0.0258742 -1.41484)