/*--------------------------------*- C++ -*----------------------------------*\
| =========                 |                                                 |
| \\      /  F ield         | OpenFOAM: The Open Source CFD Toolbox           |
|  \\    /   O peration     | Version:  v2012                                 |
|   \\  /    A nd           | Website:  www.openfoam.com                      |
|    \\/     M anipulation  |                                                 |
\*---------------------------------------------------------------------------*/
FoamFile
{
    version     2.0;
    format      ascii;
    class       volScalarField;
    location    "0.7";
    object      p_rgh;
}
// * * * * * * * * * * * * * * * * * * * * * * * * * * * * * * * * * * * * * //

dimensions      [1 -1 -2 0 0 0 0];


internalField   nonuniform List<scalar> 
20000
(
3.4974e+06
3.4979e+06
3.49738e+06
3.49861e+06
3.49733e+06
3.49914e+06
3.4998e+06
3.49999e+06
3.50035e+06
3.50007e+06
3.49797e+06
3.49641e+06
3.49715e+06
3.49807e+06
3.49882e+06
3.49944e+06
3.49995e+06
3.50035e+06
3.50067e+06
3.50089e+06
3.50105e+06
3.50115e+06
3.50119e+06
3.5012e+06
3.50118e+06
3.50114e+06
3.50108e+06
3.50101e+06
3.50092e+06
3.50083e+06
3.50074e+06
3.50064e+06
3.50053e+06
3.50042e+06
3.50031e+06
3.50019e+06
3.50006e+06
3.49992e+06
3.49976e+06
3.49957e+06
3.49908e+06
3.49904e+06
3.49978e+06
3.49985e+06
3.49987e+06
3.49987e+06
3.49988e+06
3.49988e+06
3.49988e+06
3.49988e+06
3.49988e+06
3.49989e+06
3.49989e+06
3.49989e+06
3.49989e+06
3.49989e+06
3.49989e+06
3.49989e+06
3.49989e+06
3.49988e+06
3.50119e+06
3.50443e+06
3.50207e+06
3.50313e+06
3.50302e+06
3.50242e+06
3.5018e+06
3.50238e+06
3.50216e+06
3.5019e+06
3.49927e+06
3.49687e+06
3.49761e+06
3.49843e+06
3.49888e+06
3.49915e+06
3.49932e+06
3.49945e+06
3.49957e+06
3.49967e+06
3.49976e+06
3.49985e+06
3.49993e+06
3.5e+06
3.50006e+06
3.5001e+06
3.50013e+06
3.50015e+06
3.50016e+06
3.50015e+06
3.50013e+06
3.5001e+06
3.50006e+06
3.50001e+06
3.49994e+06
3.49986e+06
3.49976e+06
3.49965e+06
3.4995e+06
3.49934e+06
3.49892e+06
3.49905e+06
3.49953e+06
3.49958e+06
3.49961e+06
3.49963e+06
3.49964e+06
3.49964e+06
3.49965e+06
3.49965e+06
3.49966e+06
3.49966e+06
3.49966e+06
3.49966e+06
3.49966e+06
3.49966e+06
3.49966e+06
3.49966e+06
3.49966e+06
3.49965e+06
3.49786e+06
3.50295e+06
3.49902e+06
3.50216e+06
3.50027e+06
3.50167e+06
3.50123e+06
3.50186e+06
3.50182e+06
3.5014e+06
3.49853e+06
3.4953e+06
3.49586e+06
3.49698e+06
3.49782e+06
3.49846e+06
3.49894e+06
3.4993e+06
3.49955e+06
3.49973e+06
3.49986e+06
3.49994e+06
3.49999e+06
3.50001e+06
3.50001e+06
3.50001e+06
3.49999e+06
3.49997e+06
3.49993e+06
3.4999e+06
3.49985e+06
3.49981e+06
3.49975e+06
3.4997e+06
3.49963e+06
3.49956e+06
3.49948e+06
3.49938e+06
3.49926e+06
3.49916e+06
3.49893e+06
3.49898e+06
3.49927e+06
3.49932e+06
3.49937e+06
3.49939e+06
3.4994e+06
3.49941e+06
3.49942e+06
3.49943e+06
3.49943e+06
3.49944e+06
3.49944e+06
3.49944e+06
3.49944e+06
3.49944e+06
3.49944e+06
3.49943e+06
3.49943e+06
3.49941e+06
3.4985e+06
3.50467e+06
3.49961e+06
3.50324e+06
3.50059e+06
3.50201e+06
3.50114e+06
3.50161e+06
3.5015e+06
3.50108e+06
3.49823e+06
3.49489e+06
3.49545e+06
3.49665e+06
3.49749e+06
3.4981e+06
3.49854e+06
3.49885e+06
3.49908e+06
3.49926e+06
3.49939e+06
3.49948e+06
3.49955e+06
3.4996e+06
3.49963e+06
3.49964e+06
3.49965e+06
3.49964e+06
3.49962e+06
3.49959e+06
3.49955e+06
3.49951e+06
3.49947e+06
3.49941e+06
3.49935e+06
3.49928e+06
3.49921e+06
3.49913e+06
3.49903e+06
3.49895e+06
3.49879e+06
3.49883e+06
3.49902e+06
3.49907e+06
3.49913e+06
3.49915e+06
3.49917e+06
3.49918e+06
3.4992e+06
3.4992e+06
3.49921e+06
3.49922e+06
3.49922e+06
3.49922e+06
3.49922e+06
3.49922e+06
3.49921e+06
3.4992e+06
3.49919e+06
3.49918e+06
3.49687e+06
3.50336e+06
3.4982e+06
3.50214e+06
3.4992e+06
3.50092e+06
3.5e+06
3.50023e+06
3.50029e+06
3.49969e+06
3.49705e+06
3.49368e+06
3.49438e+06
3.49581e+06
3.49683e+06
3.4976e+06
3.49816e+06
3.49856e+06
3.49884e+06
3.49904e+06
3.49917e+06
3.49926e+06
3.49932e+06
3.49936e+06
3.49937e+06
3.49938e+06
3.49937e+06
3.49935e+06
3.49933e+06
3.4993e+06
3.49926e+06
3.49922e+06
3.49918e+06
3.49913e+06
3.49907e+06
3.49901e+06
3.49894e+06
3.49887e+06
3.49879e+06
3.49873e+06
3.49862e+06
3.49865e+06
3.49879e+06
3.49884e+06
3.49889e+06
3.49892e+06
3.49894e+06
3.49896e+06
3.49897e+06
3.49898e+06
3.49899e+06
3.49899e+06
3.499e+06
3.499e+06
3.499e+06
3.49899e+06
3.49899e+06
3.49897e+06
3.49896e+06
3.49894e+06
3.497e+06
3.50233e+06
3.49815e+06
3.50116e+06
3.49865e+06
3.49979e+06
3.4989e+06
3.49869e+06
3.49903e+06
3.49825e+06
3.49602e+06
3.49284e+06
3.49373e+06
3.49534e+06
3.49646e+06
3.49727e+06
3.49784e+06
3.49825e+06
3.49853e+06
3.49873e+06
3.49887e+06
3.49897e+06
3.49903e+06
3.49906e+06
3.49908e+06
3.49908e+06
3.49908e+06
3.49906e+06
3.49904e+06
3.49901e+06
3.49897e+06
3.49893e+06
3.49889e+06
3.49884e+06
3.49879e+06
3.49874e+06
3.49868e+06
3.49862e+06
3.49855e+06
3.4985e+06
3.49844e+06
3.49846e+06
3.49856e+06
3.4986e+06
3.49865e+06
3.49868e+06
3.49871e+06
3.49873e+06
3.49874e+06
3.49876e+06
3.49877e+06
3.49877e+06
3.49878e+06
3.49878e+06
3.49877e+06
3.49877e+06
3.49876e+06
3.49875e+06
3.49873e+06
3.4987e+06
3.49735e+06
3.50049e+06
3.49829e+06
3.49951e+06
3.49836e+06
3.49836e+06
3.49782e+06
3.49715e+06
3.49788e+06
3.49688e+06
3.49511e+06
3.49206e+06
3.49305e+06
3.49484e+06
3.49605e+06
3.49694e+06
3.49755e+06
3.49798e+06
3.49828e+06
3.49849e+06
3.49863e+06
3.49871e+06
3.49877e+06
3.4988e+06
3.49881e+06
3.49881e+06
3.49879e+06
3.49877e+06
3.49875e+06
3.49872e+06
3.49868e+06
3.49865e+06
3.49861e+06
3.49856e+06
3.49852e+06
3.49847e+06
3.49842e+06
3.49837e+06
3.49832e+06
3.49828e+06
3.49824e+06
3.49825e+06
3.49833e+06
3.49837e+06
3.49842e+06
3.49845e+06
3.49848e+06
3.4985e+06
3.49852e+06
3.49853e+06
3.49854e+06
3.49855e+06
3.49856e+06
3.49856e+06
3.49855e+06
3.49855e+06
3.49854e+06
3.49852e+06
3.4985e+06
3.49847e+06
3.49893e+06
3.49906e+06
3.49939e+06
3.49819e+06
3.49903e+06
3.49741e+06
3.4974e+06
3.49639e+06
3.49748e+06
3.49632e+06
3.49496e+06
3.49191e+06
3.49278e+06
3.49463e+06
3.49584e+06
3.49673e+06
3.49734e+06
3.49776e+06
3.49805e+06
3.49825e+06
3.49838e+06
3.49846e+06
3.49851e+06
3.49853e+06
3.49853e+06
3.49853e+06
3.49851e+06
3.49849e+06
3.49846e+06
3.49843e+06
3.4984e+06
3.49836e+06
3.49832e+06
3.49829e+06
3.49825e+06
3.4982e+06
3.49816e+06
3.49812e+06
3.49808e+06
3.49805e+06
3.49802e+06
3.49804e+06
3.4981e+06
3.49814e+06
3.49818e+06
3.49822e+06
3.49825e+06
3.49827e+06
3.49829e+06
3.49831e+06
3.49832e+06
3.49833e+06
3.49833e+06
3.49834e+06
3.49833e+06
3.49832e+06
3.49831e+06
3.49829e+06
3.49827e+06
3.49823e+06
3.50085e+06
3.49811e+06
3.50102e+06
3.49744e+06
3.50036e+06
3.49727e+06
3.49788e+06
3.49678e+06
3.49808e+06
3.49683e+06
3.49568e+06
3.49237e+06
3.49281e+06
3.49461e+06
3.49573e+06
3.4966e+06
3.49717e+06
3.49758e+06
3.49785e+06
3.49803e+06
3.49815e+06
3.49822e+06
3.49826e+06
3.49827e+06
3.49827e+06
3.49825e+06
3.49823e+06
3.49821e+06
3.49818e+06
3.49815e+06
3.49811e+06
3.49808e+06
3.49804e+06
3.49801e+06
3.49797e+06
3.49794e+06
3.4979e+06
3.49787e+06
3.49784e+06
3.49782e+06
3.4978e+06
3.49782e+06
3.49787e+06
3.49791e+06
3.49795e+06
3.49799e+06
3.49802e+06
3.49804e+06
3.49807e+06
3.49809e+06
3.4981e+06
3.49811e+06
3.49811e+06
3.49811e+06
3.49811e+06
3.4981e+06
3.49809e+06
3.49806e+06
3.49804e+06
3.498e+06
3.50282e+06
3.49802e+06
3.50261e+06
3.49758e+06
3.50196e+06
3.49822e+06
3.49933e+06
3.49842e+06
3.49972e+06
3.49847e+06
3.49731e+06
3.4935e+06
3.49322e+06
3.49484e+06
3.49578e+06
3.49657e+06
3.49707e+06
3.49743e+06
3.49767e+06
3.49783e+06
3.49793e+06
3.49798e+06
3.49801e+06
3.49801e+06
3.498e+06
3.49798e+06
3.49796e+06
3.49793e+06
3.4979e+06
3.49786e+06
3.49783e+06
3.4978e+06
3.49776e+06
3.49773e+06
3.4977e+06
3.49767e+06
3.49764e+06
3.49762e+06
3.4976e+06
3.49758e+06
3.49758e+06
3.4976e+06
3.49764e+06
3.49768e+06
3.49772e+06
3.49776e+06
3.49779e+06
3.49782e+06
3.49784e+06
3.49786e+06
3.49788e+06
3.49789e+06
3.49789e+06
3.49789e+06
3.49789e+06
3.49788e+06
3.49786e+06
3.49784e+06
3.49781e+06
3.49776e+06
3.50374e+06
3.49895e+06
3.50334e+06
3.49858e+06
3.50307e+06
3.50017e+06
3.50141e+06
3.50097e+06
3.50199e+06
3.50086e+06
3.49951e+06
3.49504e+06
3.49383e+06
3.49521e+06
3.49591e+06
3.4966e+06
3.497e+06
3.49732e+06
3.49751e+06
3.49765e+06
3.49772e+06
3.49776e+06
3.49777e+06
3.49776e+06
3.49774e+06
3.49772e+06
3.49768e+06
3.49765e+06
3.49761e+06
3.49758e+06
3.49755e+06
3.49751e+06
3.49748e+06
3.49745e+06
3.49743e+06
3.4974e+06
3.49738e+06
3.49737e+06
3.49735e+06
3.49735e+06
3.49735e+06
3.49737e+06
3.49741e+06
3.49745e+06
3.49749e+06
3.49753e+06
3.49756e+06
3.49759e+06
3.49762e+06
3.49764e+06
3.49766e+06
3.49767e+06
3.49768e+06
3.49768e+06
3.49767e+06
3.49766e+06
3.49764e+06
3.49761e+06
3.49758e+06
3.49753e+06
3.50328e+06
3.501e+06
3.50286e+06
3.50061e+06
3.50328e+06
3.50293e+06
3.50355e+06
3.50391e+06
3.5044e+06
3.50354e+06
3.50188e+06
3.49673e+06
3.49453e+06
3.49564e+06
3.4961e+06
3.49667e+06
3.49697e+06
3.49723e+06
3.49738e+06
3.49748e+06
3.49753e+06
3.49754e+06
3.49754e+06
3.49752e+06
3.49749e+06
3.49745e+06
3.49741e+06
3.49737e+06
3.49733e+06
3.4973e+06
3.49726e+06
3.49723e+06
3.4972e+06
3.49718e+06
3.49716e+06
3.49714e+06
3.49712e+06
3.49711e+06
3.49711e+06
3.49711e+06
3.49712e+06
3.49714e+06
3.49718e+06
3.49722e+06
3.49726e+06
3.4973e+06
3.49734e+06
3.49737e+06
3.4974e+06
3.49742e+06
3.49744e+06
3.49745e+06
3.49746e+06
3.49746e+06
3.49745e+06
3.49744e+06
3.49742e+06
3.49739e+06
3.49735e+06
3.4973e+06
3.5019e+06
3.50435e+06
3.50165e+06
3.50377e+06
3.50296e+06
3.50595e+06
3.50548e+06
3.50663e+06
3.50653e+06
3.50599e+06
3.50404e+06
3.4983e+06
3.49516e+06
3.49605e+06
3.49628e+06
3.49675e+06
3.49695e+06
3.49715e+06
3.49725e+06
3.49732e+06
3.49734e+06
3.49733e+06
3.49731e+06
3.49727e+06
3.49723e+06
3.49718e+06
3.49714e+06
3.49709e+06
3.49705e+06
3.49701e+06
3.49698e+06
3.49695e+06
3.49692e+06
3.4969e+06
3.49688e+06
3.49687e+06
3.49686e+06
3.49686e+06
3.49686e+06
3.49687e+06
3.49688e+06
3.49691e+06
3.49695e+06
3.49699e+06
3.49703e+06
3.49707e+06
3.49711e+06
3.49714e+06
3.49717e+06
3.4972e+06
3.49722e+06
3.49723e+06
3.49724e+06
3.49724e+06
3.49723e+06
3.49722e+06
3.49719e+06
3.49716e+06
3.49712e+06
3.49706e+06
3.50037e+06
3.50845e+06
3.50066e+06
3.5075e+06
3.50291e+06
3.50859e+06
3.50695e+06
3.50873e+06
3.50814e+06
3.50788e+06
3.50575e+06
3.4996e+06
3.49563e+06
3.49637e+06
3.49643e+06
3.49682e+06
3.49694e+06
3.49709e+06
3.49714e+06
3.49717e+06
3.49715e+06
3.49713e+06
3.49708e+06
3.49703e+06
3.49697e+06
3.49692e+06
3.49686e+06
3.49681e+06
3.49677e+06
3.49673e+06
3.49669e+06
3.49666e+06
3.49664e+06
3.49662e+06
3.49661e+06
3.4966e+06
3.4966e+06
3.4966e+06
3.49661e+06
3.49662e+06
3.49664e+06
3.49668e+06
3.49671e+06
3.49676e+06
3.4968e+06
3.49684e+06
3.49688e+06
3.49692e+06
3.49695e+06
3.49698e+06
3.497e+06
3.49701e+06
3.49702e+06
3.49702e+06
3.49701e+06
3.497e+06
3.49697e+06
3.49694e+06
3.4969e+06
3.49683e+06
3.49974e+06
3.51239e+06
3.50049e+06
3.5111e+06
3.50351e+06
3.51067e+06
3.50799e+06
3.50988e+06
3.50911e+06
3.50904e+06
3.50688e+06
3.50059e+06
3.49593e+06
3.4966e+06
3.49655e+06
3.49689e+06
3.49694e+06
3.49704e+06
3.49704e+06
3.49702e+06
3.49698e+06
3.49692e+06
3.49686e+06
3.49679e+06
3.49672e+06
3.49665e+06
3.49659e+06
3.49653e+06
3.49648e+06
3.49644e+06
3.4964e+06
3.49638e+06
3.49635e+06
3.49634e+06
3.49633e+06
3.49633e+06
3.49633e+06
3.49634e+06
3.49635e+06
3.49638e+06
3.4964e+06
3.49644e+06
3.49648e+06
3.49653e+06
3.49657e+06
3.49662e+06
3.49666e+06
3.4967e+06
3.49673e+06
3.49676e+06
3.49678e+06
3.4968e+06
3.49681e+06
3.49681e+06
3.4968e+06
3.49678e+06
3.49675e+06
3.49671e+06
3.49667e+06
3.4966e+06
3.50022e+06
3.51577e+06
3.50137e+06
3.51407e+06
3.50471e+06
3.512e+06
3.50867e+06
3.51025e+06
3.50962e+06
3.50962e+06
3.50761e+06
3.50145e+06
3.49617e+06
3.4968e+06
3.49668e+06
3.49698e+06
3.49695e+06
3.497e+06
3.49695e+06
3.49689e+06
3.49681e+06
3.49673e+06
3.49664e+06
3.49655e+06
3.49646e+06
3.49638e+06
3.49631e+06
3.49625e+06
3.49619e+06
3.49615e+06
3.49611e+06
3.49609e+06
3.49607e+06
3.49606e+06
3.49605e+06
3.49606e+06
3.49607e+06
3.49608e+06
3.4961e+06
3.49613e+06
3.49616e+06
3.4962e+06
3.49625e+06
3.49629e+06
3.49634e+06
3.49639e+06
3.49644e+06
3.49648e+06
3.49651e+06
3.49654e+06
3.49657e+06
3.49658e+06
3.49659e+06
3.49659e+06
3.49658e+06
3.49656e+06
3.49653e+06
3.49649e+06
3.49644e+06
3.49637e+06
3.50223e+06
3.5181e+06
3.50349e+06
3.5161e+06
3.5067e+06
3.51271e+06
3.50941e+06
3.51029e+06
3.51009e+06
3.51006e+06
3.50834e+06
3.5025e+06
3.49655e+06
3.49706e+06
3.49688e+06
3.4971e+06
3.497e+06
3.49698e+06
3.49687e+06
3.49677e+06
3.49665e+06
3.49653e+06
3.49642e+06
3.4963e+06
3.4962e+06
3.49611e+06
3.49603e+06
3.49596e+06
3.4959e+06
3.49585e+06
3.49582e+06
3.49579e+06
3.49578e+06
3.49577e+06
3.49577e+06
3.49578e+06
3.4958e+06
3.49582e+06
3.49585e+06
3.49588e+06
3.49592e+06
3.49596e+06
3.49601e+06
3.49606e+06
3.49611e+06
3.49616e+06
3.49621e+06
3.49626e+06
3.49629e+06
3.49632e+06
3.49635e+06
3.49637e+06
3.49637e+06
3.49637e+06
3.49637e+06
3.49634e+06
3.49632e+06
3.49627e+06
3.49622e+06
3.49614e+06
3.50579e+06
3.51934e+06
3.50696e+06
3.5172e+06
3.50961e+06
3.51314e+06
3.51072e+06
3.51073e+06
3.51114e+06
3.51098e+06
3.50968e+06
3.50411e+06
3.49733e+06
3.49751e+06
3.4972e+06
3.4973e+06
3.4971e+06
3.497e+06
3.49682e+06
3.49666e+06
3.4965e+06
3.49634e+06
3.49619e+06
3.49606e+06
3.49594e+06
3.49583e+06
3.49574e+06
3.49567e+06
3.4956e+06
3.49556e+06
3.49552e+06
3.4955e+06
3.49549e+06
3.49548e+06
3.49549e+06
3.49551e+06
3.49553e+06
3.49556e+06
3.49559e+06
3.49563e+06
3.49567e+06
3.49572e+06
3.49578e+06
3.49583e+06
3.49589e+06
3.49594e+06
3.49599e+06
3.49603e+06
3.49607e+06
3.49611e+06
3.49613e+06
3.49615e+06
3.49616e+06
3.49616e+06
3.49615e+06
3.49613e+06
3.4961e+06
3.49605e+06
3.496e+06
3.49591e+06
3.51091e+06
3.51968e+06
3.51169e+06
3.51779e+06
3.51332e+06
3.51387e+06
3.51295e+06
3.5122e+06
3.51323e+06
3.51285e+06
3.51201e+06
3.50648e+06
3.49865e+06
3.4982e+06
3.49769e+06
3.49759e+06
3.49726e+06
3.49705e+06
3.49679e+06
3.49657e+06
3.49635e+06
3.49615e+06
3.49597e+06
3.49581e+06
3.49567e+06
3.49555e+06
3.49545e+06
3.49537e+06
3.4953e+06
3.49525e+06
3.49522e+06
3.4952e+06
3.49519e+06
3.49519e+06
3.49521e+06
3.49523e+06
3.49526e+06
3.49529e+06
3.49533e+06
3.49538e+06
3.49543e+06
3.49548e+06
3.49554e+06
3.4956e+06
3.49566e+06
3.49571e+06
3.49577e+06
3.49581e+06
3.49586e+06
3.49589e+06
3.49592e+06
3.49594e+06
3.49595e+06
3.49595e+06
3.49594e+06
3.49591e+06
3.49588e+06
3.49583e+06
3.49577e+06
3.49569e+06
3.51678e+06
3.5197e+06
3.5169e+06
3.5185e+06
3.5173e+06
3.51532e+06
3.51607e+06
3.51483e+06
3.51628e+06
3.5157e+06
3.51522e+06
3.50951e+06
3.5005e+06
3.49909e+06
3.49833e+06
3.49795e+06
3.49746e+06
3.49713e+06
3.49677e+06
3.49648e+06
3.4962e+06
3.49596e+06
3.49574e+06
3.49555e+06
3.49539e+06
3.49526e+06
3.49515e+06
3.49506e+06
3.49499e+06
3.49494e+06
3.49491e+06
3.4949e+06
3.49489e+06
3.4949e+06
3.49492e+06
3.49495e+06
3.49498e+06
3.49502e+06
3.49507e+06
3.49513e+06
3.49518e+06
3.49524e+06
3.49531e+06
3.49537e+06
3.49543e+06
3.49549e+06
3.49555e+06
3.4956e+06
3.49564e+06
3.49568e+06
3.49571e+06
3.49573e+06
3.49574e+06
3.49574e+06
3.49573e+06
3.4957e+06
3.49567e+06
3.49561e+06
3.49555e+06
3.49546e+06
3.52329e+06
3.5201e+06
3.52169e+06
3.51976e+06
3.52091e+06
3.51758e+06
3.51948e+06
3.51813e+06
3.51967e+06
3.51904e+06
3.51867e+06
3.51279e+06
3.50261e+06
3.50008e+06
3.49905e+06
3.49836e+06
3.49771e+06
3.49722e+06
3.49676e+06
3.49638e+06
3.49604e+06
3.49576e+06
3.4955e+06
3.49529e+06
3.49511e+06
3.49496e+06
3.49484e+06
3.49475e+06
3.49468e+06
3.49463e+06
3.4946e+06
3.49459e+06
3.49459e+06
3.4946e+06
3.49463e+06
3.49466e+06
3.49471e+06
3.49476e+06
3.49481e+06
3.49487e+06
3.49494e+06
3.495e+06
3.49507e+06
3.49514e+06
3.4952e+06
3.49527e+06
3.49532e+06
3.49538e+06
3.49542e+06
3.49546e+06
3.49549e+06
3.49552e+06
3.49553e+06
3.49553e+06
3.49551e+06
3.49549e+06
3.49545e+06
3.4954e+06
3.49533e+06
3.49524e+06
3.52751e+06
3.52098e+06
3.52515e+06
3.52137e+06
3.52356e+06
3.52021e+06
3.52245e+06
3.52123e+06
3.52259e+06
3.52207e+06
3.52162e+06
3.51583e+06
3.50469e+06
3.50103e+06
3.49979e+06
3.49877e+06
3.49795e+06
3.49731e+06
3.49675e+06
3.49629e+06
3.49588e+06
3.49554e+06
3.49525e+06
3.49501e+06
3.49481e+06
3.49465e+06
3.49452e+06
3.49442e+06
3.49435e+06
3.4943e+06
3.49428e+06
3.49427e+06
3.49428e+06
3.4943e+06
3.49433e+06
3.49438e+06
3.49443e+06
3.49449e+06
3.49455e+06
3.49462e+06
3.49469e+06
3.49476e+06
3.49483e+06
3.49491e+06
3.49498e+06
3.49504e+06
3.4951e+06
3.49516e+06
3.49521e+06
3.49525e+06
3.49528e+06
3.49531e+06
3.49532e+06
3.49532e+06
3.4953e+06
3.49528e+06
3.49524e+06
3.49518e+06
3.49511e+06
3.49501e+06
3.53016e+06
3.52136e+06
3.5269e+06
3.52267e+06
3.52522e+06
3.5225e+06
3.52456e+06
3.5235e+06
3.52451e+06
3.52423e+06
3.52362e+06
3.51828e+06
3.50655e+06
3.50186e+06
3.50047e+06
3.49915e+06
3.49819e+06
3.49739e+06
3.49672e+06
3.49617e+06
3.4957e+06
3.49531e+06
3.49498e+06
3.49471e+06
3.4945e+06
3.49432e+06
3.49419e+06
3.49409e+06
3.49402e+06
3.49397e+06
3.49395e+06
3.49395e+06
3.49397e+06
3.494e+06
3.49404e+06
3.49409e+06
3.49415e+06
3.49422e+06
3.49429e+06
3.49436e+06
3.49444e+06
3.49452e+06
3.4946e+06
3.49467e+06
3.49475e+06
3.49482e+06
3.49489e+06
3.49495e+06
3.495e+06
3.49504e+06
3.49507e+06
3.4951e+06
3.49511e+06
3.49511e+06
3.4951e+06
3.49507e+06
3.49503e+06
3.49497e+06
3.4949e+06
3.49479e+06
3.53094e+06
3.52117e+06
3.52742e+06
3.52301e+06
3.52633e+06
3.52395e+06
3.52582e+06
3.52478e+06
3.52541e+06
3.5255e+06
3.52475e+06
3.52013e+06
3.50825e+06
3.50257e+06
3.50109e+06
3.49949e+06
3.49839e+06
3.49744e+06
3.49666e+06
3.49602e+06
3.49549e+06
3.49505e+06
3.49469e+06
3.4944e+06
3.49416e+06
3.49398e+06
3.49384e+06
3.49374e+06
3.49367e+06
3.49363e+06
3.49361e+06
3.49362e+06
3.49365e+06
3.49368e+06
3.49374e+06
3.4938e+06
3.49387e+06
3.49394e+06
3.49402e+06
3.49411e+06
3.49419e+06
3.49428e+06
3.49436e+06
3.49444e+06
3.49452e+06
3.4946e+06
3.49467e+06
3.49473e+06
3.49478e+06
3.49483e+06
3.49487e+06
3.49489e+06
3.4949e+06
3.4949e+06
3.49489e+06
3.49486e+06
3.49482e+06
3.49475e+06
3.49468e+06
3.49457e+06
3.53179e+06
3.51953e+06
3.52737e+06
3.52216e+06
3.52732e+06
3.52475e+06
3.52669e+06
3.52556e+06
3.52586e+06
3.52644e+06
3.52559e+06
3.5218e+06
3.51007e+06
3.50329e+06
3.5017e+06
3.4998e+06
3.49856e+06
3.49744e+06
3.49657e+06
3.49584e+06
3.49524e+06
3.49476e+06
3.49436e+06
3.49405e+06
3.4938e+06
3.49361e+06
3.49347e+06
3.49337e+06
3.49331e+06
3.49328e+06
3.49327e+06
3.49329e+06
3.49332e+06
3.49337e+06
3.49343e+06
3.4935e+06
3.49358e+06
3.49367e+06
3.49376e+06
3.49385e+06
3.49394e+06
3.49403e+06
3.49412e+06
3.49421e+06
3.4943e+06
3.49438e+06
3.49445e+06
3.49452e+06
3.49457e+06
3.49462e+06
3.49466e+06
3.49468e+06
3.4947e+06
3.4947e+06
3.49468e+06
3.49465e+06
3.49461e+06
3.49454e+06
3.49447e+06
3.49435e+06
3.53277e+06
3.51785e+06
3.52812e+06
3.52111e+06
3.52868e+06
3.52545e+06
3.52774e+06
3.5266e+06
3.52665e+06
3.52785e+06
3.52687e+06
3.52384e+06
3.51229e+06
3.50413e+06
3.50234e+06
3.50007e+06
3.49868e+06
3.49739e+06
3.49641e+06
3.4956e+06
3.49495e+06
3.49442e+06
3.494e+06
3.49367e+06
3.49341e+06
3.49322e+06
3.49308e+06
3.49299e+06
3.49293e+06
3.49291e+06
3.49292e+06
3.49294e+06
3.49299e+06
3.49305e+06
3.49312e+06
3.49321e+06
3.4933e+06
3.49339e+06
3.49349e+06
3.49359e+06
3.49369e+06
3.49379e+06
3.49389e+06
3.49398e+06
3.49407e+06
3.49416e+06
3.49423e+06
3.4943e+06
3.49436e+06
3.49441e+06
3.49445e+06
3.49448e+06
3.49449e+06
3.49449e+06
3.49448e+06
3.49445e+06
3.4944e+06
3.49433e+06
3.49425e+06
3.49413e+06
3.53488e+06
3.51686e+06
3.53e+06
3.52105e+06
3.53051e+06
3.52662e+06
3.52931e+06
3.52831e+06
3.52837e+06
3.53004e+06
3.52886e+06
3.52645e+06
3.51491e+06
3.5051e+06
3.50295e+06
3.50028e+06
3.49872e+06
3.49725e+06
3.49618e+06
3.49529e+06
3.49459e+06
3.49403e+06
3.49359e+06
3.49325e+06
3.49299e+06
3.4928e+06
3.49267e+06
3.49259e+06
3.49254e+06
3.49253e+06
3.49255e+06
3.49259e+06
3.49265e+06
3.49272e+06
3.49281e+06
3.49291e+06
3.49301e+06
3.49311e+06
3.49322e+06
3.49333e+06
3.49344e+06
3.49355e+06
3.49365e+06
3.49375e+06
3.49385e+06
3.49394e+06
3.49402e+06
3.49409e+06
3.49415e+06
3.49421e+06
3.49425e+06
3.49428e+06
3.49429e+06
3.49429e+06
3.49427e+06
3.49424e+06
3.49419e+06
3.49412e+06
3.49404e+06
3.49392e+06
3.5374e+06
3.51747e+06
3.53286e+06
3.52247e+06
3.5326e+06
3.52835e+06
3.5312e+06
3.53051e+06
3.5308e+06
3.53255e+06
3.53124e+06
3.52926e+06
3.51753e+06
3.50601e+06
3.50342e+06
3.50035e+06
3.49862e+06
3.497e+06
3.49585e+06
3.49489e+06
3.49416e+06
3.49358e+06
3.49313e+06
3.49279e+06
3.49254e+06
3.49236e+06
3.49224e+06
3.49217e+06
3.49214e+06
3.49214e+06
3.49218e+06
3.49223e+06
3.49231e+06
3.49239e+06
3.49249e+06
3.4926e+06
3.49272e+06
3.49283e+06
3.49295e+06
3.49307e+06
3.49319e+06
3.49331e+06
3.49342e+06
3.49353e+06
3.49363e+06
3.49372e+06
3.49381e+06
3.49388e+06
3.49395e+06
3.494e+06
3.49404e+06
3.49407e+06
3.49409e+06
3.49409e+06
3.49407e+06
3.49404e+06
3.49399e+06
3.49392e+06
3.49383e+06
3.4937e+06
3.54064e+06
3.51939e+06
3.53594e+06
3.52503e+06
3.53419e+06
3.53042e+06
3.53277e+06
3.53252e+06
3.53302e+06
3.53453e+06
3.53328e+06
3.53152e+06
3.51963e+06
3.50656e+06
3.50357e+06
3.50017e+06
3.49832e+06
3.49658e+06
3.49538e+06
3.49439e+06
3.49364e+06
3.49306e+06
3.49261e+06
3.49228e+06
3.49204e+06
3.49188e+06
3.49177e+06
3.49172e+06
3.49171e+06
3.49174e+06
3.49179e+06
3.49186e+06
3.49195e+06
3.49206e+06
3.49218e+06
3.4923e+06
3.49242e+06
3.49255e+06
3.49269e+06
3.49282e+06
3.49294e+06
3.49307e+06
3.49319e+06
3.4933e+06
3.49341e+06
3.4935e+06
3.49359e+06
3.49367e+06
3.49374e+06
3.4938e+06
3.49384e+06
3.49387e+06
3.49389e+06
3.49389e+06
3.49387e+06
3.49384e+06
3.49379e+06
3.49371e+06
3.49362e+06
3.49349e+06
3.54206e+06
3.52257e+06
3.53848e+06
3.52791e+06
3.53495e+06
3.53196e+06
3.53342e+06
3.53357e+06
3.5341e+06
3.53528e+06
3.53427e+06
3.53257e+06
3.52078e+06
3.50647e+06
3.50321e+06
3.49964e+06
3.49775e+06
3.49595e+06
3.49475e+06
3.49375e+06
3.49302e+06
3.49245e+06
3.49203e+06
3.49172e+06
3.4915e+06
3.49136e+06
3.49128e+06
3.49126e+06
3.49127e+06
3.49132e+06
3.49139e+06
3.49149e+06
3.4916e+06
3.49172e+06
3.49185e+06
3.49199e+06
3.49213e+06
3.49227e+06
3.49242e+06
3.49256e+06
3.49269e+06
3.49283e+06
3.49295e+06
3.49307e+06
3.49319e+06
3.49329e+06
3.49338e+06
3.49347e+06
3.49354e+06
3.4936e+06
3.49364e+06
3.49368e+06
3.49369e+06
3.49369e+06
3.49368e+06
3.49364e+06
3.49359e+06
3.49351e+06
3.49342e+06
3.49328e+06
3.54183e+06
3.52533e+06
3.53949e+06
3.52999e+06
3.53457e+06
3.53234e+06
3.53295e+06
3.53331e+06
3.5338e+06
3.53447e+06
3.53383e+06
3.53204e+06
3.52075e+06
3.50555e+06
3.50226e+06
3.49869e+06
3.49686e+06
3.49509e+06
3.49394e+06
3.49297e+06
3.49228e+06
3.49175e+06
3.49137e+06
3.4911e+06
3.49092e+06
3.49081e+06
3.49077e+06
3.49077e+06
3.49081e+06
3.49089e+06
3.49098e+06
3.4911e+06
3.49123e+06
3.49138e+06
3.49153e+06
3.49168e+06
3.49184e+06
3.49199e+06
3.49215e+06
3.4923e+06
3.49245e+06
3.49259e+06
3.49272e+06
3.49285e+06
3.49297e+06
3.49308e+06
3.49317e+06
3.49326e+06
3.49334e+06
3.4934e+06
3.49345e+06
3.49348e+06
3.4935e+06
3.4935e+06
3.49348e+06
3.49344e+06
3.49339e+06
3.49331e+06
3.49321e+06
3.49307e+06
3.53914e+06
3.52744e+06
3.53874e+06
3.5306e+06
3.53305e+06
3.53134e+06
3.5314e+06
3.53171e+06
3.53209e+06
3.53224e+06
3.53199e+06
3.53005e+06
3.51951e+06
3.5038e+06
3.50069e+06
3.49729e+06
3.49564e+06
3.49397e+06
3.49293e+06
3.49204e+06
3.49143e+06
3.49096e+06
3.49064e+06
3.49042e+06
3.49029e+06
3.49022e+06
3.49022e+06
3.49026e+06
3.49033e+06
3.49044e+06
3.49057e+06
3.49071e+06
3.49086e+06
3.49103e+06
3.4912e+06
3.49137e+06
3.49154e+06
3.49171e+06
3.49188e+06
3.49204e+06
3.4922e+06
3.49235e+06
3.49249e+06
3.49262e+06
3.49275e+06
3.49286e+06
3.49297e+06
3.49306e+06
3.49314e+06
3.4932e+06
3.49325e+06
3.49328e+06
3.4933e+06
3.4933e+06
3.49328e+06
3.49325e+06
3.49319e+06
3.49311e+06
3.49301e+06
3.49286e+06
3.53519e+06
3.52777e+06
3.53598e+06
3.52937e+06
3.5306e+06
3.52903e+06
3.52896e+06
3.52897e+06
3.52925e+06
3.5289e+06
3.52899e+06
3.52691e+06
3.51718e+06
3.5013e+06
3.49851e+06
3.49545e+06
3.49408e+06
3.4926e+06
3.49172e+06
3.49096e+06
3.49045e+06
3.49008e+06
3.48983e+06
3.48968e+06
3.48961e+06
3.4896e+06
3.48964e+06
3.48973e+06
3.48984e+06
3.48998e+06
3.49014e+06
3.49031e+06
3.49049e+06
3.49068e+06
3.49086e+06
3.49105e+06
3.49124e+06
3.49143e+06
3.49161e+06
3.49178e+06
3.49195e+06
3.49211e+06
3.49226e+06
3.4924e+06
3.49253e+06
3.49265e+06
3.49276e+06
3.49286e+06
3.49294e+06
3.493e+06
3.49305e+06
3.49309e+06
3.49311e+06
3.49311e+06
3.49309e+06
3.49305e+06
3.49299e+06
3.49291e+06
3.49281e+06
3.49265e+06
3.52969e+06
3.52665e+06
3.53184e+06
3.52654e+06
3.52759e+06
3.52573e+06
3.52582e+06
3.52536e+06
3.52558e+06
3.52479e+06
3.52513e+06
3.523e+06
3.51395e+06
3.4982e+06
3.49579e+06
3.49322e+06
3.4922e+06
3.49098e+06
3.49032e+06
3.48973e+06
3.48936e+06
3.4891e+06
3.48895e+06
3.48888e+06
3.48889e+06
3.48894e+06
3.48904e+06
3.48917e+06
3.48933e+06
3.48951e+06
3.4897e+06
3.4899e+06
3.49011e+06
3.49032e+06
3.49053e+06
3.49074e+06
3.49095e+06
3.49115e+06
3.49134e+06
3.49153e+06
3.49171e+06
3.49188e+06
3.49203e+06
3.49218e+06
3.49232e+06
3.49244e+06
3.49256e+06
3.49265e+06
3.49274e+06
3.49281e+06
3.49286e+06
3.4929e+06
3.49292e+06
3.49292e+06
3.4929e+06
3.49286e+06
3.4928e+06
3.49271e+06
3.49261e+06
3.49245e+06
3.52387e+06
3.52413e+06
3.52677e+06
3.52293e+06
3.524e+06
3.52183e+06
3.52209e+06
3.52119e+06
3.52131e+06
3.5202e+06
3.52062e+06
3.51855e+06
3.51e+06
3.4946e+06
3.4926e+06
3.49065e+06
3.49003e+06
3.48915e+06
3.48874e+06
3.48835e+06
3.48816e+06
3.48803e+06
3.488e+06
3.48803e+06
3.48812e+06
3.48825e+06
3.48841e+06
3.4886e+06
3.4888e+06
3.48902e+06
3.48925e+06
3.48949e+06
3.48973e+06
3.48996e+06
3.4902e+06
3.49043e+06
3.49065e+06
3.49087e+06
3.49107e+06
3.49127e+06
3.49146e+06
3.49164e+06
3.49181e+06
3.49196e+06
3.49211e+06
3.49224e+06
3.49235e+06
3.49246e+06
3.49254e+06
3.49262e+06
3.49267e+06
3.49271e+06
3.49273e+06
3.49273e+06
3.49271e+06
3.49267e+06
3.49261e+06
3.49252e+06
3.49241e+06
3.49225e+06
3.51817e+06
3.52123e+06
3.52163e+06
3.51929e+06
3.51995e+06
3.51771e+06
3.51796e+06
3.51667e+06
3.51658e+06
3.51523e+06
3.51559e+06
3.51372e+06
3.50549e+06
3.49059e+06
3.489e+06
3.48778e+06
3.4876e+06
3.48711e+06
3.487e+06
3.48686e+06
3.48685e+06
3.48689e+06
3.48699e+06
3.48714e+06
3.48732e+06
3.48753e+06
3.48776e+06
3.48801e+06
3.48826e+06
3.48853e+06
3.4888e+06
3.48907e+06
3.48934e+06
3.4896e+06
3.48986e+06
3.49011e+06
3.49035e+06
3.49059e+06
3.49081e+06
3.49102e+06
3.49122e+06
3.49141e+06
3.49158e+06
3.49175e+06
3.4919e+06
3.49203e+06
3.49215e+06
3.49226e+06
3.49235e+06
3.49243e+06
3.49248e+06
3.49252e+06
3.49254e+06
3.49255e+06
3.49253e+06
3.49248e+06
3.49242e+06
3.49233e+06
3.49222e+06
3.49205e+06
3.51383e+06
3.51786e+06
3.5172e+06
3.5156e+06
3.51602e+06
3.51368e+06
3.51376e+06
3.512e+06
3.51153e+06
3.50996e+06
3.51015e+06
3.5086e+06
3.50057e+06
3.48624e+06
3.48507e+06
3.48467e+06
3.48497e+06
3.48492e+06
3.48513e+06
3.48525e+06
3.48546e+06
3.48568e+06
3.48593e+06
3.48619e+06
3.48648e+06
3.48678e+06
3.48709e+06
3.4874e+06
3.48772e+06
3.48803e+06
3.48834e+06
3.48865e+06
3.48895e+06
3.48924e+06
3.48952e+06
3.4898e+06
3.49006e+06
3.49031e+06
3.49054e+06
3.49077e+06
3.49098e+06
3.49118e+06
3.49136e+06
3.49153e+06
3.49169e+06
3.49183e+06
3.49196e+06
3.49207e+06
3.49216e+06
3.49224e+06
3.4923e+06
3.49234e+06
3.49236e+06
3.49236e+06
3.49234e+06
3.4923e+06
3.49223e+06
3.49214e+06
3.49203e+06
3.49185e+06
3.5112e+06
3.51451e+06
3.51422e+06
3.51217e+06
3.51281e+06
3.5101e+06
3.50993e+06
3.5074e+06
3.50637e+06
3.5045e+06
3.50451e+06
3.50332e+06
3.49542e+06
3.48168e+06
3.48092e+06
3.48139e+06
3.48218e+06
3.48261e+06
3.48315e+06
3.48356e+06
3.484e+06
3.48441e+06
3.48482e+06
3.48522e+06
3.48562e+06
3.48601e+06
3.4864e+06
3.48678e+06
3.48716e+06
3.48752e+06
3.48788e+06
3.48823e+06
3.48856e+06
3.48888e+06
3.48919e+06
3.48948e+06
3.48976e+06
3.49003e+06
3.49028e+06
3.49052e+06
3.49074e+06
3.49095e+06
3.49114e+06
3.49132e+06
3.49148e+06
3.49163e+06
3.49176e+06
3.49187e+06
3.49197e+06
3.49205e+06
3.49211e+06
3.49216e+06
3.49218e+06
3.49218e+06
3.49216e+06
3.49211e+06
3.49205e+06
3.49195e+06
3.49184e+06
3.49166e+06
3.51053e+06
3.5116e+06
3.51285e+06
3.50947e+06
3.51072e+06
3.5074e+06
3.50687e+06
3.50312e+06
3.50135e+06
3.49906e+06
3.49898e+06
3.49811e+06
3.49032e+06
3.47707e+06
3.47666e+06
3.47803e+06
3.47929e+06
3.48021e+06
3.4811e+06
3.48182e+06
3.4825e+06
3.4831e+06
3.48368e+06
3.48422e+06
3.48474e+06
3.48523e+06
3.4857e+06
3.48616e+06
3.4866e+06
3.48702e+06
3.48742e+06
3.4878e+06
3.48817e+06
3.48852e+06
3.48886e+06
3.48917e+06
3.48947e+06
3.48976e+06
3.49002e+06
3.49027e+06
3.49051e+06
3.49073e+06
3.49093e+06
3.49111e+06
3.49128e+06
3.49143e+06
3.49157e+06
3.49169e+06
3.49179e+06
3.49187e+06
3.49193e+06
3.49197e+06
3.492e+06
3.492e+06
3.49198e+06
3.49193e+06
3.49187e+06
3.49176e+06
3.49165e+06
3.49147e+06
3.51128e+06
3.50989e+06
3.51274e+06
3.50795e+06
3.50994e+06
3.50589e+06
3.50477e+06
3.49944e+06
3.49677e+06
3.49396e+06
3.49391e+06
3.4932e+06
3.48554e+06
3.47258e+06
3.47245e+06
3.47466e+06
3.47638e+06
3.47779e+06
3.47902e+06
3.48004e+06
3.48096e+06
3.48177e+06
3.48252e+06
3.4832e+06
3.48384e+06
3.48444e+06
3.485e+06
3.48553e+06
3.48603e+06
3.4865e+06
3.48695e+06
3.48738e+06
3.48778e+06
3.48816e+06
3.48852e+06
3.48886e+06
3.48918e+06
3.48948e+06
3.48977e+06
3.49003e+06
3.49028e+06
3.4905e+06
3.49071e+06
3.49091e+06
3.49108e+06
3.49124e+06
3.49138e+06
3.4915e+06
3.4916e+06
3.49169e+06
3.49175e+06
3.4918e+06
3.49182e+06
3.49182e+06
3.4918e+06
3.49175e+06
3.49169e+06
3.49158e+06
3.49146e+06
3.49128e+06
3.51223e+06
3.51021e+06
3.51288e+06
3.50798e+06
3.5102e+06
3.50569e+06
3.50353e+06
3.49655e+06
3.49286e+06
3.4895e+06
3.48962e+06
3.4888e+06
3.48134e+06
3.46837e+06
3.46842e+06
3.47136e+06
3.47351e+06
3.47538e+06
3.47693e+06
3.47826e+06
3.47942e+06
3.48044e+06
3.48135e+06
3.48218e+06
3.48294e+06
3.48364e+06
3.48429e+06
3.4849e+06
3.48547e+06
3.486e+06
3.48649e+06
3.48696e+06
3.4874e+06
3.48781e+06
3.4882e+06
3.48856e+06
3.4889e+06
3.48922e+06
3.48951e+06
3.48979e+06
3.49005e+06
3.49028e+06
3.4905e+06
3.4907e+06
3.49088e+06
3.49104e+06
3.49119e+06
3.49131e+06
3.49142e+06
3.49151e+06
3.49157e+06
3.49162e+06
3.49164e+06
3.49165e+06
3.49163e+06