/*--------------------------------*- C++ -*----------------------------------*\
| =========                 |                                                 |
| \\      /  F ield         | OpenFOAM: The Open Source CFD Toolbox           |
|  \\    /   O peration     | Version:  v2012                                 |
|   \\  /    A nd           | Website:  www.openfoam.com                      |
|    \\/     M anipulation  |                                                 |
\*---------------------------------------------------------------------------*/
FoamFile
{
    version     2.0;
    format      ascii;
    class       volScalarField;
    location    "0.25";
    object      alpha.water;
}
// * * * * * * * * * * * * * * * * * * * * * * * * * * * * * * * * * * * * * //

dimensions      [0 0 0 0 0 0 0];


internalField   nonuniform List<scalar> 
15860
(
-9.69755e-127
-9.55655e-121
-3.50165e-117
-3.24666e-115
-1.62062e-114
-1.78067e-114
-8.78308e-115
-3.17759e-115
-4.91084e-116
-4.86717e-117
-3.61084e-118
-2.36049e-119
-1.26949e-120
-5.48047e-122
-2.0788e-123
-7.10326e-125
-4.81448e-125
-2.09914e-120
-9.82525e-116
-6.84158e-111
-7.8291e-106
-1.27001e-99
-2.58209e-95
-2.32074e-85
-1.08135e-85
-2.38294e-86
-3.29924e-87
-3.2173e-88
-2.34867e-89
-1.3326e-90
-6.02469e-92
-2.20845e-93
-6.6477e-95
-1.65872e-96
-3.45524e-98
-6.04087e-100
-8.85604e-102
-1.10276e-103
-1.16311e-105
-1.04071e-107
-7.90201e-110
-5.09285e-112
-2.78349e-114
-1.2885e-116
-5.042e-119
-1.66205e-121
-4.59912e-124
-1.06272e-126
-2.03787e-129
-3.21728e-132
-4.13922e-135
-4.2863e-138
-3.51573e-141
-2.23695e-144
-1.07417e-147
-3.74885e-151
-9.00226e-155
-1.36514e-158
-1.1205e-162
-3.38766e-167
-3.51926e-124
-1.95227e-118
-4.54119e-115
-3.16553e-113
-1.30522e-112
-1.22955e-112
-5.58595e-113
-1.76794e-113
-2.64679e-114
-2.44892e-115
-1.75364e-116
-1.09619e-117
-5.62514e-119
-2.36866e-120
-8.74625e-122
-2.92359e-123
-4.67699e-124
-1.88082e-119
-8.53138e-115
-5.77775e-110
-6.53781e-105
-3.42778e-98
-2.24941e-94
-7.67002e-84
-3.59798e-84
-7.98966e-85
-1.1156e-85
-1.09797e-86
-8.0949e-88
-4.64128e-89
-2.12148e-90
-7.86584e-92
-2.3957e-93
-6.05002e-95
-1.27575e-96
-2.25806e-98
-3.35167e-100
-4.22511e-102
-4.51086e-104
-4.08477e-106
-3.13809e-108
-2.04566e-110
-1.13042e-112
-5.28825e-115
-2.09018e-117
-6.95551e-120
-1.94174e-122
-4.52342e-125
-8.73825e-128
-1.38862e-130
-1.79666e-133
-1.86919e-136
-1.53859e-139
-9.81175e-143
-4.71511e-146
-1.64371e-149
-3.93268e-153
-5.91875e-157
-4.78434e-161
-1.38985e-165
-1.15482e-121
-3.68936e-116
-5.54817e-113
-2.94052e-111
-1.00523e-110
-8.14232e-111
-3.38055e-111
-9.51013e-112
-1.37259e-112
-1.20602e-113
-8.13578e-115
-4.90246e-116
-2.41289e-117
-9.85502e-119
-3.5383e-120
-1.15591e-121
-5.80279e-123
-1.33029e-118
-5.84125e-114
-3.84631e-109
-4.32313e-104
-9.38521e-97
-1.57575e-93
-2.4547e-82
-1.16035e-82
-2.59888e-83
-3.66314e-84
-3.64209e-85
-2.71447e-86
-1.5743e-87
-7.2827e-89
-2.73402e-90
-8.4344e-92
-2.15811e-93
-4.61178e-95
-8.27336e-97
-1.24481e-98
-1.59048e-100
-1.72092e-102
-1.57907e-104
-1.22894e-106
-8.11318e-109
-4.53857e-111
-2.14842e-113
-8.58797e-116
-2.88855e-118
-8.14519e-121
-1.91523e-123
-3.7314e-126
-5.97496e-129
-7.78195e-132
-8.14055e-135
-6.72871e-138
-4.3021e-141
-2.06871e-144
-7.19742e-148
-1.71215e-151
-2.54612e-155
-2.00834e-159
-5.52295e-164
-3.13265e-119
-6.53484e-114
-6.44364e-111
-2.59567e-109
-7.31102e-109
-5.18198e-109
-1.97631e-109
-4.9283e-110
-6.8762e-111
-5.71818e-112
-3.68049e-113
-2.10816e-114
-9.99492e-116
-3.9557e-117
-1.38532e-118
-4.42842e-120
-1.37618e-121
-7.0005e-118
-2.97013e-113
-1.89897e-108
-2.15238e-103
-2.52053e-95
-8.66685e-93
-7.60236e-81
-3.6247e-81
-8.19593e-82
-1.16723e-82
-1.17348e-83
-8.84979e-85
-5.19663e-86
-2.43528e-87
-9.26581e-89
-2.89822e-90
-7.52112e-92
-1.63047e-93
-2.96774e-95
-4.53112e-97
-5.87436e-99
-6.44885e-101
-6.00277e-103
-4.73812e-105
-3.1715e-107
-1.79815e-109
-8.6231e-112
-3.49014e-114
-1.18791e-116
-3.38735e-119
-8.04843e-122
-1.58316e-124
-2.55705e-127
-3.35566e-130
-3.53256e-133
-2.93412e-136
-1.88173e-139
-9.05551e-143
-3.14317e-146
-7.42509e-150
-1.08813e-153
-8.33403e-158
-2.15898e-162
-7.35898e-117
-1.08388e-111
-7.05416e-109
-2.1828e-107
-5.05037e-107
-3.17245e-107
-1.10124e-107
-2.45637e-108
-3.31816e-109
-2.61556e-110
-1.60568e-111
-8.78297e-113
-4.01619e-114
-1.5397e-115
-5.26007e-117
-1.64317e-118
-4.61018e-120
-2.5067e-117
-1.02269e-112
-6.30154e-108
-7.78606e-103
-6.54666e-94
-4.48386e-92
-2.27672e-79
-1.09587e-79
-2.50384e-80
-3.60624e-81
-3.66936e-82
-2.80261e-83
-1.66777e-84
-7.92476e-86
-3.05878e-87
-9.70957e-89
-2.55799e-90
-5.631e-92
-1.04095e-93
-1.61439e-95
-2.12586e-97
-2.3703e-99
-2.24058e-101
-1.7956e-103
-1.21994e-105
-7.01798e-108
-3.41323e-110
-1.40034e-112
-4.82838e-115
-1.39383e-117
-3.35009e-120
-6.66016e-123
-1.08614e-125
-1.43753e-128
-1.52423e-131
-1.27313e-134
-8.19469e-138
-3.94788e-141
-1.36701e-144
-3.20482e-148
-4.62165e-152
-3.42872e-156
-8.34842e-161
-1.66463e-114
-1.67968e-109
-7.31962e-107
-1.74711e-105
-3.32973e-105
-1.86254e-105
-5.88601e-106
-1.17983e-106
-1.53569e-107
-1.15031e-108
-6.76326e-110
-3.52846e-111
-1.5529e-112
-5.79448e-114
-1.93093e-115
-5.88769e-117
-1.60152e-118
-5.65291e-117
-2.1785e-112
-1.23045e-107
-2.66436e-102
-1.63645e-92
-5.81976e-91
-6.58791e-78
-3.20414e-78
-7.40406e-79
-1.07941e-79
-1.11255e-80
-8.61367e-82
-5.19907e-83
-2.50714e-84
-9.82547e-86
-3.16808e-87
-8.48075e-89
-1.89747e-90
-3.56578e-92
-5.62266e-94
-7.52765e-96
-8.53295e-98
-8.19929e-100
-6.67826e-102
-4.61008e-104
-2.69366e-106
-1.33005e-108
-5.53708e-111
-1.93611e-113
-5.66397e-116
-1.37851e-118
-2.77264e-121
-4.56989e-124
-6.10578e-127
-6.5264e-130
-5.48621e-133
-3.54654e-136
-1.7113e-139
-5.91278e-143
-1.37552e-146
-1.9509e-150
-1.40089e-154
-3.20468e-159
-3.82157e-112
-2.42904e-107
-7.13976e-105
-1.32405e-103
-2.08949e-103
-1.04551e-103
-2.98071e-104
-5.42674e-105
-6.81049e-106
-4.85947e-107
-2.74011e-108
-1.36365e-109
-5.7451e-111
-2.09934e-112
-6.8173e-114
-2.02522e-115
-5.39927e-117
-1.6438e-116
-5.88378e-112
-2.55615e-107
-2.03191e-101
-3.93042e-91
-1.80454e-89
-1.84031e-76
-9.05208e-77
-2.11735e-77
-3.12717e-78
-3.26779e-79
-2.56678e-80
-1.57275e-81
-7.70341e-83
-3.06788e-84
-1.00564e-85
-2.73775e-87
-6.23111e-89
-1.1914e-90
-1.91181e-92
-2.60462e-94
-3.00439e-96
-2.93738e-98
-2.43386e-100
-1.70874e-102
-1.01507e-104
-5.09356e-107
-2.15383e-109
-7.64498e-112
-2.26873e-114
-5.59687e-117
-1.14001e-119
-1.90086e-122
-2.56621e-125
-2.76767e-128
-2.34343e-131
-1.5226e-134
-7.36338e-138
-2.53991e-141
-5.86516e-145
-8.18305e-149
-5.69041e-153
-1.22485e-157
-7.64519e-110
-3.31949e-105
-6.61854e-103
-9.54801e-102
-1.2563e-101
-5.65526e-102
-1.46043e-102
-2.40905e-103
-2.86887e-104
-1.9737e-105
-1.06542e-106
-5.06271e-108
-2.05878e-109
-7.36849e-111
-2.33243e-112
-6.73969e-114
-1.75516e-115
-1.58669e-115
-5.6291e-111
-2.37569e-106
-2.03282e-100
-9.06226e-90
-6.12054e-88
-4.95793e-75
-2.46855e-75
-5.84996e-76
-8.76046e-77
-9.28893e-78
-7.40844e-79
-4.612e-80
-2.29636e-81
-9.30106e-83
-3.10209e-84
-8.59554e-86
-1.99175e-87
-3.87796e-89
-6.33798e-91
-8.79437e-93
-1.03315e-94
-1.02867e-96
-8.67862e-99
-6.20243e-101
-3.74945e-103
-1.9138e-105
-8.22759e-108
-2.96732e-110
-8.94128e-113
-2.23793e-115
-4.62062e-118
-7.80153e-121
-1.0652e-123
-1.1602e-126
-9.9036e-130
-6.47274e-133
-3.13971e-136
-1.08199e-139
-2.48186e-143
-3.40914e-147
-2.29923e-151
-4.6707e-156
-1.35721e-107
-4.245e-103
-5.78113e-101
-6.541e-100
-7.20153e-100
-2.92845e-100
-6.81928e-101
-1.03316e-101
-1.16052e-102
-7.66779e-104
-3.99009e-105
-1.80418e-106
-7.12226e-108
-2.48399e-109
-7.67371e-111
-2.16027e-112
-5.49358e-114
-1.60412e-114
-5.42595e-110
-2.26648e-105
-7.16658e-100
-2.00487e-88
-2.03088e-86
-1.28683e-73
-6.49144e-74
-1.55991e-74
-2.37062e-75
-2.5527e-76
-2.06893e-77
-1.30963e-78
-6.63402e-80
-2.73495e-81
-9.28818e-83
-2.62156e-84
-6.18945e-86
-1.22812e-87
-2.04596e-89
-2.8937e-91
-3.46509e-93
-3.5164e-95
-3.02327e-97
-2.20136e-99
-1.35538e-101
-7.04332e-104
-3.08124e-106
-1.13015e-108
-3.46092e-111
-8.79669e-114
-1.84273e-116
-3.15337e-119
-4.35843e-122
-4.79855e-125
-4.13313e-128
-2.71973e-131
-1.32442e-134
-4.56406e-138
-1.04099e-141
-1.40969e-145
-9.24148e-150
-1.77897e-154
-2.15654e-105
-5.06461e-101
-4.70856e-99
-4.23953e-98
-3.91938e-98
-1.45338e-98
-3.00792e-99
-4.25026e-100
-4.49374e-101
-2.84194e-102
-1.4293e-103
-6.16943e-105
-2.3773e-106
-8.04429e-108
-2.42744e-109
-6.66866e-111
-1.6531e-112
-1.7202e-113
-4.9935e-109
-2.09352e-104
3.77789e-98
-4.25548e-87
-6.55897e-85
-3.21405e-72
-1.64418e-72
-4.00999e-73
-6.18967e-74
-6.7744e-75
-5.58415e-76
-3.5971e-77
-1.85523e-78
-7.7909e-80
-2.69626e-81
-7.75771e-83
-1.8676e-84
-3.77937e-86
-6.42266e-88
-9.26632e-90
-1.1319e-91
-1.17166e-93
-1.02738e-95
-7.62781e-98
-4.7873e-100
-2.53487e-102
-1.12939e-104
-4.21639e-107
-1.31339e-109
-3.39297e-112
-7.21759e-115
-1.25293e-117
-1.75459e-120
-1.95445e-123
-1.70021e-126
-1.12749e-129
-5.51748e-133
-1.90338e-136
-4.32226e-140
-5.78028e-144
-3.69364e-148
-6.77026e-153
-3.91583e-103
-5.56084e-99
-3.56587e-97
-2.57864e-96
-2.02068e-96
-6.85657e-97
-1.27372e-97
-1.67546e-98
-1.6655e-99
-1.00593e-100
-4.90815e-102
-2.02104e-103
-7.62809e-105
-2.49529e-106
-7.36039e-108
-1.97575e-109
-4.77309e-111
-2.20137e-112
-4.33273e-108
-1.8408e-103
1.49506e-96
-8.6708e-86
-2.05839e-83
-7.71541e-71
-4.00627e-71
-9.92576e-72
-1.55752e-72
-1.73409e-73
-1.45497e-74
-9.5453e-76
-5.01637e-77
-2.14748e-78
-7.57919e-80
-2.22463e-81
-5.46497e-83
-1.12872e-84
-1.9581e-86
-2.8839e-88
-3.59615e-90
-3.79987e-92
-3.40077e-94
-2.57651e-96
-1.64961e-98
-8.9071e-101
-4.0449e-103
-1.53832e-105
-4.87813e-108
-1.28192e-110
-2.77146e-113
-4.88468e-116
-6.93681e-119
-7.82471e-122
-6.88117e-125
-4.60315e-128
-2.26606e-131
-7.83497e-135
-1.774e-138
-2.3476e-142
-1.46685e-146
-2.57383e-151
-7.20579e-101
-5.72641e-97
-2.54827e-95
-1.47639e-94
-9.89448e-95
-3.06508e-95
-5.10428e-96
-6.29041e-97
-5.88868e-98
-3.38598e-99
-1.59031e-100
-6.40559e-102
-2.34697e-103
-7.44526e-105
-2.14037e-106
-5.60902e-108
-1.3199e-109
-3.74761e-111
-3.5198e-107
-1.51973e-102
3.9121e-95
-1.69856e-84
-6.2739e-82
-1.77781e-69
-9.37917e-70
-2.36275e-70
-3.77242e-71
-4.27626e-72
-3.65516e-73
-2.44415e-74
-1.30985e-75
-5.72058e-77
-2.06051e-78
-6.1743e-80
-1.54884e-81
-3.26717e-83
-5.79004e-85
-8.71128e-87
-1.1097e-88
-1.19779e-90
-1.09491e-92
-8.47103e-95
-5.53683e-97
-3.05092e-99
-1.41324e-101
-5.47936e-104
-1.77022e-106
-4.73586e-109
-1.04145e-111
-1.86517e-114
-2.68836e-117
-3.07354e-120
-2.73496e-123
-1.84741e-126
-9.159e-130
-3.178e-133
-7.18622e-137
-9.43109e-141
-5.78173e-145
-9.76661e-150
-1.27455e-98
-5.50982e-95
-1.70823e-93
-7.98881e-93
-4.63692e-93
-1.28096e-93
-1.96009e-94
-2.27025e-95
-1.98288e-96
-1.09382e-97
-4.92735e-99
-1.93964e-100
-6.90945e-102
-2.129e-103
-5.9636e-105
-1.52415e-106
-3.48675e-108
-7.95406e-110
-2.65779e-106
-1.16153e-101
8.74478e-94
-3.20805e-83
-1.85881e-80
-3.92673e-68
-2.10684e-68
-5.40166e-69
-8.78328e-70
-1.01458e-70
-8.84207e-72
-6.03135e-73
-3.29869e-74
-1.47085e-75
-5.41079e-77
-1.6564e-78
-4.24595e-80
-9.15393e-82
-1.65833e-83
-2.55048e-85
-3.32127e-87
-3.66453e-89
-3.42378e-91
-2.70685e-93
-1.80746e-95
-1.01709e-97
-4.80915e-100
-1.90226e-102
-6.26586e-105
-1.70783e-107
-3.82306e-110
-6.96293e-113
-1.01945e-115
-1.18233e-118
-1.06554e-121
-7.27505e-125
-3.63649e-128
-1.26798e-131
-2.86833e-135
-3.74193e-139
-2.25868e-143
-3.6944e-148
-2.06023e-96
-4.92466e-93
-1.06704e-91
-4.03126e-91
-2.07013e-91
-5.07358e-92
-7.17552e-93
-7.77273e-94
-6.34572e-95
-3.37265e-96
-1.4583e-97
-5.59481e-99
-1.93339e-100
-5.813e-102
-1.58307e-103
-3.94229e-105
-8.76485e-107
-1.82391e-108
-1.85065e-105
-8.13204e-101
1.79564e-92
-5.86777e-82
-5.36798e-79
-8.3019e-67
-4.53458e-67
-1.18439e-67
-1.96315e-68
-2.31291e-69
-2.05693e-70
-1.43243e-71
-8.0016e-73
-3.64535e-74
-1.3706e-75
-4.28957e-77
-1.12439e-78
-2.47918e-80
-4.59423e-82
-7.22768e-84
-9.62777e-86
-1.08659e-87
-1.03831e-89
-8.39404e-92
-5.72983e-94
-3.29491e-96
-1.59137e-98
-6.42628e-101
-2.15967e-103
-6.00146e-106
-1.36858e-108
-2.53678e-111
-3.77578e-114
-4.44597e-117
-4.06173e-120
-2.80588e-123
-1.41571e-126
-4.96736e-130
-1.12609e-133
-1.46381e-137
-8.73074e-142
-1.39074e-146
-3.03977e-94
-4.05719e-91
-6.21647e-90
-1.91687e-89
-8.65511e-90
-1.91156e-90
-2.46765e-91
-2.51122e-92
-1.93455e-93
-9.88727e-95
-4.10927e-96
-1.53174e-97
-5.1178e-99
-1.50169e-100
-3.98652e-102
-9.60726e-104
-2.08681e-105
-4.13133e-107
-1.17738e-104
-5.17632e-100
3.50138e-91
-1.04547e-80
-1.51831e-77
-1.6775e-65
-9.33751e-66
-2.48704e-66
-4.20618e-67
-5.05897e-68
-4.59511e-69
-3.2697e-70
-1.86695e-71
-8.69692e-73
-3.34454e-74
-1.07089e-75
-2.87237e-77
-6.48153e-79
-1.22944e-80
-1.97973e-82
-2.69932e-84
-3.11813e-86
-3.04932e-88
-2.52237e-90
-1.76125e-92
-1.03564e-94
-5.11247e-97
-2.10907e-99
-7.23642e-102
-2.0516e-104
-4.76933e-107
-9.00367e-110
-1.36341e-112
-1.63128e-115
-1.51206e-118
-1.05791e-121
-5.39395e-125
-1.90712e-128
-4.34032e-132
-5.63535e-136
-3.33288e-140
-5.19946e-145
-4.13231e-92
-3.1012e-89
-3.46052e-88
-8.73486e-88
-3.4196e-88
-6.87792e-89
-8.16574e-90
-7.75399e-91
-5.60367e-92
-2.70849e-93
-1.0921e-94
-3.96035e-96
-1.28534e-97
-3.68539e-99
-9.49741e-101
-2.22082e-102
-4.70209e-104
-8.93571e-106
-6.7735e-104
-2.97505e-99
6.60091e-90
-1.82609e-79
-4.23489e-76
-3.23444e-64
-1.8367e-64
-4.99378e-65
-8.62595e-66
-1.06013e-66
-9.8436e-68
-7.16297e-69
-4.18402e-70
-1.9945e-71
-7.85103e-73
-2.57369e-74
-7.06868e-76
-1.63346e-77
-3.17351e-79
-5.23394e-81
-7.30921e-83
-8.64727e-85
-8.65965e-87
-7.33384e-89
-5.24137e-91
-3.1534e-93
-1.59207e-95
-6.71363e-98
-2.35325e-100
-6.8111e-103
-1.61518e-105
-3.10766e-108
-4.79118e-111
-5.8294e-114
-5.48702e-117
-3.89182e-120
-2.00748e-123
-7.16202e-127
-1.6392e-130
-2.13079e-134
-1.25386e-138
-1.92605e-143
-5.11398e-90
-2.19631e-87
-1.80657e-86
-3.735e-86
-1.29648e-86
-2.33842e-87
-2.58165e-88
-2.27179e-89
-1.5416e-90
-7.07262e-92
-2.75888e-93
-9.71064e-95
-3.05674e-96
-8.51443e-98
-2.12627e-99
-4.83067e-101
-9.91492e-103
-1.81685e-104
-3.48766e-103
-1.5315e-98
1.21301e-88
-3.14198e-78
-1.17379e-74
-5.9409e-63
-3.44541e-63
-9.57269e-64
-1.69054e-64
-2.12508e-65
-2.01898e-66
-1.50376e-67
-8.99325e-69
-4.39045e-70
-1.77033e-71
-5.94587e-73
-1.67334e-74
-3.96252e-76
-7.89013e-78
-1.33363e-79
-1.90871e-81
-2.3141e-83
-2.37451e-85
-2.06007e-87
-1.50782e-89
-9.28709e-92
-4.79811e-94
-2.06945e-96
-7.41482e-99
-2.19226e-101
-5.3065e-104
-1.04125e-106
-1.63556e-109
-2.02514e-112
-1.93729e-115
-1.39429e-118
-7.28391e-122
-2.62564e-125
-6.05368e-129
-7.89638e-133
-4.63825e-137
-7.05103e-142
-5.7599e-88
-1.43337e-85
-8.75979e-85
-1.46797e-84
-4.65292e-85
-7.49723e-86
-7.73632e-87
-6.28256e-88
-4.00708e-89
-1.75385e-90
-6.58207e-92
-2.24459e-93
-6.82838e-95
-1.84064e-96
-4.4519e-98
-9.79217e-100
-1.94179e-101
-3.43066e-103
-1.59229e-102
-6.99402e-98
2.17305e-87
-5.33023e-77
-3.25341e-73
-1.03763e-61
-6.15292e-62
-1.74886e-62
-3.16096e-63
-4.06821e-64
-3.95855e-65
-3.02053e-66
-1.85111e-67
-9.26255e-69
-3.82879e-70
-1.31849e-71
-3.80485e-73
-9.23903e-75
-1.88668e-76
-3.27029e-78
-4.79978e-80
-5.967e-82
-6.27729e-84
-5.58217e-86
-4.1866e-88
-2.64135e-90
-1.39721e-92
-6.16701e-95
-2.25994e-97
-6.82934e-100
-1.68836e-102
-3.38076e-105
-5.41395e-108
-6.82677e-111
-6.64236e-114
-4.85521e-117
-2.5715e-120
-9.37773e-124
-2.1816e-127
-2.86171e-131
-1.68304e-135
-2.54398e-140
-5.89711e-86
-8.5303e-84
-3.89601e-83
-5.32199e-83
-1.55959e-83
-2.24798e-84
-2.17287e-85
-1.6496e-86
-9.88081e-88
-4.11404e-89
-1.48292e-90
-4.90326e-92
-1.42646e-93
-3.71977e-95
-8.67048e-97
-1.8357e-98
-3.50315e-100
-5.93867e-102
-6.4052e-102
-2.80053e-97
3.77029e-86
-8.87253e-76
-9.03685e-72
-1.72009e-60
-1.04413e-60
-3.03958e-61
-5.62895e-62
-7.42507e-63
-7.40695e-64
-5.79555e-65
-3.64283e-66
-1.86986e-67
-7.93001e-69
-2.80202e-70
-8.29711e-72
-2.06732e-73
-4.33233e-75
-7.70588e-77
-1.16053e-78
-1.48028e-80
-1.59746e-82
-1.45687e-84
-1.12022e-86
-7.24318e-89
-3.92497e-91
-1.77378e-93
-6.65161e-96
-2.05558e-98
-5.19312e-101
-1.06178e-103
-1.73456e-106
-2.22892e-109
-2.20745e-112
-1.6401e-115
-8.81545e-119
-3.25628e-122
-7.65528e-126
-1.0119e-129
-5.97553e-134
-9.01949e-139
-5.42177e-84
-4.70436e-82
-1.61491e-81
-1.79433e-81
-4.86557e-82
-6.31734e-83
-5.73484e-84
-4.07639e-85
-2.27637e-86
-9.05045e-88
-3.13026e-89
-9.88726e-91
-2.7753e-92
-6.96338e-94
-1.55669e-95
-3.14921e-97
-5.7361e-99
-9.27628e-101
-2.29274e-101
-9.68532e-97
6.26699e-85
-1.4341e-74
-2.50592e-70
-2.7008e-59
-1.68038e-59
-5.01616e-60
-9.52882e-61
-1.28967e-61
-1.3203e-62
-1.06038e-63
-6.84235e-65
-3.60599e-66
-1.57029e-67
-5.69764e-69
-1.73245e-70
-4.43227e-72
-9.53828e-74
-1.74207e-75
-2.69384e-77
-3.5275e-79
-3.90723e-81
-3.6564e-83
-2.88392e-85
-1.91199e-87
-1.06189e-89
-4.91597e-92
-1.88736e-94
-5.96768e-97
-1.54147e-99
-3.21982e-102
-5.36902e-105
-7.03519e-108
-7.09678e-111
-5.36386e-114
-2.92855e-117
-1.09696e-120
-2.60984e-124
-3.48289e-128
-2.07049e-132
-3.1329e-137
-4.50134e-82
-2.40791e-80
-6.30578e-80
-5.65773e-80
-1.41999e-80
-1.66644e-81
-1.41601e-82
-9.39736e-84
-4.92927e-85
-1.85999e-86
-6.19222e-88
-1.8556e-89
-5.00273e-91
-1.20023e-92
-2.54807e-94
-4.88885e-96
-8.40581e-98
-1.27969e-99
-7.89969e-101
-2.83203e-96
9.85242e-84
-2.219e-73
-6.87328e-69
-4.00805e-58
-2.55935e-58
-7.84427e-59
-1.53038e-59
-2.12768e-60
-2.23785e-61
-1.84671e-62
-1.2245e-63
-6.63166e-65
-2.96783e-66
-1.10668e-67
-3.45796e-69
-9.0901e-71
-2.0102e-72
-3.77244e-74
-5.99345e-76
-8.06193e-78
-9.17054e-80
-8.81045e-82
-7.13165e-84
-4.85043e-86
-2.76224e-88
-1.31058e-90
-5.15385e-93
-1.66814e-95
-4.40766e-98
-9.41058e-101
-1.60258e-103
-2.14254e-106
-2.20285e-109
-1.69495e-112
-9.40824e-116
-3.57735e-119
-8.62483e-123
-1.16406e-126
-6.98275e-131
-1.06283e-135
-3.35184e-80
-1.11837e-78
-2.27828e-78
-1.67251e-78
-3.78208e-79
-4.11436e-80
-3.21687e-81
-2.00718e-82
-9.91767e-84
-3.53712e-85
-1.12522e-86
-3.22323e-88
-8.28473e-90
-1.87542e-91
-3.75165e-93
-6.73334e-95
-1.07481e-96
-1.50366e-98
-3.2351e-100
-6.74422e-96
1.4458e-82
-3.23523e-72
-1.84189e-67
-5.60878e-57
-3.68083e-57
-1.15988e-57
-2.32701e-58
-3.32735e-59
-3.59959e-60
-3.05542e-61
-2.08395e-62
-1.16094e-63
-5.34409e-65
-2.04969e-66
-6.58642e-68
-1.78028e-69
-4.04852e-71
-7.81217e-73
-1.27602e-74
-1.76418e-76
-2.06201e-78
-2.03485e-80
-1.69121e-82
-1.18053e-84
-6.89674e-87
-3.35512e-89
-1.35205e-91
-4.48165e-94
-1.21188e-96
-2.64596e-99
-4.60408e-102
-6.28369e-105
-6.58868e-108
-5.16442e-111
-2.91672e-114
-1.1269e-117
-2.75654e-121
-3.76854e-125
-2.28587e-129
-3.51053e-134
-2.22043e-78
-4.64126e-77
-7.52481e-77
-4.57123e-77
-9.19704e-78
-9.40812e-79
-6.79903e-80
-3.95001e-81
-1.8393e-82
-6.20848e-84
-1.88907e-85
-5.12878e-87
-1.24536e-88
-2.65511e-90
-4.87577e-92
-8.06643e-94
-1.14784e-95
-1.40116e-97
-1.64484e-99
-1.16857e-95
1.95517e-81
-4.37385e-71
-4.76235e-66
-7.38293e-56
-4.98682e-56
-1.61789e-56
-3.34246e-57
-4.92179e-58
-5.48322e-59
-4.79288e-60
-3.36616e-61
-1.93085e-62
-9.151e-64
-3.61321e-65
-1.19498e-66
-3.32357e-68
-7.77827e-70
-1.54443e-71
-2.5952e-73
-3.69011e-75
-4.43416e-77
-4.49686e-79
-3.8393e-81
-2.7518e-83
-1.64992e-85
-8.23332e-88
-3.40143e-90
-1.15514e-92
-3.19803e-95
-7.14354e-98
-1.27066e-100
-1.77124e-103
-1.89508e-106
-1.51415e-109
-8.70721e-113
-3.42126e-116
-8.50019e-120
-1.17877e-123
-7.24341e-128
-1.12537e-132
-1.32536e-76
-1.81283e-75
-2.29938e-75
-1.18008e-75
-2.14617e-76
-2.02439e-77
-1.3579e-78
-7.12549e-80
-3.12206e-81
-9.97082e-83
-2.87695e-84
-7.36156e-86
-1.67601e-87
-3.28239e-89
-5.38646e-91
-7.65026e-93
-9.27712e-95
-8.52702e-97
-5.44449e-99
-3.48798e-97
2.40567e-80
-5.39642e-70
-1.17523e-64
-9.1171e-55
-6.34811e-55
-2.12368e-55
-4.52446e-56
-6.87032e-57
-7.89241e-58
-7.11281e-59
-5.14984e-60
-3.0448e-61
-1.48717e-62
-6.05055e-64
-2.0612e-65
-5.90336e-67
-1.42301e-68
-2.90965e-70
-5.03328e-72
-7.3647e-74
-9.10292e-76
-9.49183e-78
-8.32861e-80
-6.13221e-82
-3.77507e-84
-1.93316e-86
-8.19089e-89
-2.85105e-91
-8.08457e-94
-1.84829e-96
-3.36222e-99
-4.78901e-102
-5.23087e-105
-4.26263e-108
-2.4975e-111
-9.98782e-115
-2.5229e-118
-3.55331e-122
-2.21556e-126
-3.4902e-131
-6.96397e-75
-6.43658e-74
-6.60083e-74
-2.86094e-74
-4.6634e-75
-3.99259e-76
-2.48962e-77
-1.20721e-78
-4.89196e-80
-1.48089e-81
-4.02007e-83
-9.50587e-85
-1.99385e-86
-3.51382e-88
-4.80662e-90
-4.86481e-92
-4.22114e-94
0
-1.51196e-106
0
2.65773e-79
-5.97677e-69
-2.74561e-63
-1.05319e-53
-7.57198e-54
-2.61625e-54
-5.75696e-55
-9.0281e-56
-1.0709e-56
-9.96351e-58
-7.44563e-59
-4.54259e-60
-2.28898e-61
-9.60517e-63
-3.37327e-64
-9.95653e-66
-2.47431e-67
-5.21413e-69
-9.29156e-71
-1.39983e-72
-1.78067e-74
-1.91002e-76
-1.72323e-78
-1.30395e-80
-8.24553e-83
-4.33479e-85
-1.88442e-87
-6.72538e-90
-1.95405e-92
-4.57398e-95
-8.5125e-98
-1.23944e-100
-1.38269e-103
-1.14975e-106
-6.86754e-110
-2.7972e-113
-7.18968e-117
-1.02954e-120
-6.52279e-125
-1.04387e-129
-3.21559e-73
-2.09305e-72
-1.725e-72
-6.43283e-73
-9.28483e-74
-7.26197e-75
-4.16494e-76
-1.87554e-77
-6.98283e-79
-1.97225e-80
-4.94718e-82
-1.07609e-83
-2.01216e-85
-3.01437e-87
-2.88152e-89
-1.57133e-92
1.40741e-97
6.57095e-96
5.09988e-98
2.30415e-94
2.59742e-78
-5.83373e-68
-6.04289e-62
-1.13455e-52
-8.43749e-53
-3.01624e-53
-6.86666e-54
-1.11386e-54
-1.36631e-55
-1.31415e-56
-1.01492e-57
-6.39719e-59
-3.32923e-60
-1.44238e-61
-5.22664e-63
-1.59117e-64
-4.08102e-66
-8.87047e-68
-1.62939e-69
-2.52895e-71
-3.31251e-73
-3.65691e-75
-3.39401e-77
-2.64059e-79
-1.7159e-81
-9.26454e-84
-4.13375e-86
-1.51324e-88
-4.50655e-91
-1.08044e-93
-2.05789e-96
-3.06405e-99
-3.49249e-102
-2.9647e-105
-1.80619e-108
-7.49727e-112
-1.9623e-115
-2.85953e-119
-1.84306e-123
-3.00115e-128
-1.31244e-71
-6.03724e-71
-4.0283e-71
-1.34342e-71
-1.68294e-72
-1.21321e-73
-6.30655e-75
-2.6054e-76
-8.87003e-78
-2.32302e-79
-5.30272e-81
-1.05041e-82
-1.60586e-84
-1.67153e-86
3.15325e-106
1.07413e-92
6.42448e-92
4.482e-92
2.30466e-94
1.99749e-87
2.20623e-77
-4.90729e-67
-1.2517e-60
-1.13586e-51
-8.75465e-52
-3.24412e-52
-7.65478e-53
-1.28661e-53
-1.63466e-54
-1.62781e-55
-1.30102e-56
-8.48308e-58
-4.56495e-59
-2.04418e-60
-7.64953e-62
-2.40409e-63
-6.37204e-65
-1.42967e-66
-2.70857e-68
-4.33333e-70
-5.84772e-72
-6.64778e-74
-6.35018e-76
-5.08216e-78
-3.39518e-80
-1.88343e-82
-8.62864e-85
-3.24102e-87
-9.89645e-90
-2.43092e-92
-4.7401e-95
-7.21952e-98
-8.41076e-101
-7.29135e-104
-4.53277e-107
-1.9184e-110
-5.11615e-114
-7.59286e-118
-4.98338e-122
-8.2674e-127
-4.7526e-70
-1.59331e-69
-8.58085e-70
-2.49672e-70
-2.77474e-71
-1.86075e-72
-8.74508e-74
-3.24506e-75
-9.89242e-77
-2.36398e-78
-4.77818e-80
-7.96176e-82
-8.29813e-84
1.60782e-107
7.65624e-89
1.65961e-88
1.49177e-88
6.77489e-89
1.01519e-90
3.57733e-83
1.59496e-76
-3.45359e-66
-2.44917e-59
-1.05287e-50
-8.42796e-51
-3.24404e-51
-7.94953e-52
-1.38707e-52
-1.82852e-53
-1.88825e-54
-1.56416e-55
-1.05647e-56
-5.88595e-58
-2.72742e-59
-1.05491e-60
-3.42607e-62
-9.39961e-64
-2.17807e-65
-4.25818e-67
-7.02633e-69
-9.77468e-71
-1.14492e-72
-1.12623e-74
-9.2763e-77
-6.37386e-79
-3.63427e-81
-1.71018e-83
-6.59328e-86
-2.06488e-88
-5.19812e-91
-1.03796e-93
-1.6176e-96
-1.92669e-99
-1.70627e-102
-1.08276e-105
-4.67436e-109
-1.27083e-112
-1.922e-116
-1.28553e-120
-2.17505e-125
-1.54438e-68
-3.82026e-68
-1.66241e-68
-4.27719e-69
-4.18174e-70
-2.52447e-71
-1.06666e-72
-3.54486e-74
-9.60288e-76
-2.03587e-77
-3.40836e-79
-3.89084e-81
-6.97686e-105
2.22979e-84
6.76515e-84
1.3043e-83
1.11125e-83
4.49397e-85
8.8312e-86
1.03885e-81
9.62733e-76
-1.94706e-65
-4.56808e-58
-8.99831e-50
-7.49789e-50
-3.00467e-50
-7.66344e-51
-1.39097e-51
-1.90622e-52
-2.04494e-53
-1.75853e-54
-1.23218e-55
-7.11708e-57
-3.41688e-58
-1.36714e-59
-4.60515e-61
-1.30741e-62
-3.1284e-64
-6.31496e-66
-1.07549e-67
-1.54343e-69
-1.86387e-71
-1.8891e-73
-1.60215e-75
-1.13276e-77
-6.64133e-80
-3.21117e-82
-1.27111e-84
-4.08409e-87
-1.05396e-89
-2.15569e-92
-3.43832e-95
-4.188e-98
-3.78982e-101
-2.45556e-104
-1.08169e-107
-2.99917e-111
-4.62463e-115
-3.15413e-119
-5.44679e-124
-4.51309e-67
-8.31488e-67
-2.89594e-67
-6.57701e-68
-5.62937e-69
-3.01768e-70
-1.13671e-71
-3.33038e-73
-7.94741e-75
-1.37552e-76
-1.5853e-78
4.22128e-82
2.68836e-80
1.03368e-79
2.83226e-79
4.95104e-79
4.53824e-79
3.02565e-80
7.47795e-82
1.16371e-79
4.77639e-75
-8.16389e-65
-8.2283e-57
-7.05744e-49
-6.13698e-49
-2.56689e-49
-6.83069e-50
-1.29268e-50
-1.84551e-51
-2.06071e-52
-1.84289e-53
-1.34177e-54
-8.04656e-56
-4.00786e-57
-1.66399e-58
-5.80903e-60
-1.70611e-61
-4.22223e-63
-8.81029e-65
-1.55009e-66
-2.29657e-68
-2.86123e-70
-2.9897e-72
-2.61216e-74
-1.90124e-76
-1.14663e-78
-5.6986e-81
-2.31673e-83
-7.63885e-86
-2.02133e-88
-4.23564e-91
-6.91575e-94
-8.61598e-97
-7.96852e-100
-5.27294e-103
-2.37067e-106
-6.70546e-110
-1.05456e-113
-7.33723e-118
-1.29391e-122
-1.20054e-65
-1.59973e-65
-4.4426e-66
-8.77464e-67
-6.81646e-68
-3.33035e-69
-1.07805e-70
-2.53753e-72
-4.83108e-74
-5.72163e-76
-2.1669e-95
7.53795e-79
4.69386e-78
1.72042e-77
4.39744e-77
7.16395e-77
7.00361e-77
1.06093e-75
5.86118e-77
4.17866e-75
1.06683e-74
-2.11784e-64
-1.44916e-55
-5.05276e-48
-4.59821e-48
-2.01312e-48
-5.60466e-49
-1.10873e-49
-1.65291e-50
-1.92519e-51
-1.79398e-52
-1.35961e-53
-8.47909e-55
-4.38791e-56
-1.89133e-57
-6.84838e-59
-2.08454e-60
-5.34222e-62
-1.15347e-63
-2.09834e-65
-3.21193e-67
-4.13113e-69
-4.45279e-71
-4.01006e-73
-3.00596e-75
-1.86558e-77
-9.53324e-80
-3.98168e-82
-1.34762e-84
-3.65721e-87
-7.853e-90
-1.31277e-92
-1.67311e-95
-1.58169e-98
-1.06906e-101
-4.90636e-105
-1.41599e-108
-2.27177e-112
-1.61289e-116
-2.90563e-121
-2.87705e-64
-2.78283e-64
-6.20503e-65
-1.07261e-65
-7.44156e-67
-3.07455e-68
-8.24985e-70
-1.30821e-71
-1.91615e-73
-1.0333e-101
1.0581e-98
1.55266e-78
1.00565e-77
3.84751e-77
1.03339e-76
1.73595e-76
2.04252e-76
1.49182e-73
1.56608e-72
6.35836e-73
8.27448e-71
6.32623e-65
-2.50866e-54
-3.28219e-47
-3.13579e-47
-1.44164e-47
-4.21227e-48
-8.73591e-49
-1.3636e-49
-1.66067e-50
-1.61596e-51
-1.27731e-52
-8.2984e-54
-4.46886e-55
-2.00262e-56
-7.53096e-58
-2.37848e-59
-6.31895e-61
-1.41313e-62
-2.66025e-64
-4.21028e-66
-5.59421e-68
-6.22378e-70
-5.78027e-72
-4.46455e-74
-2.85248e-76
-1.49927e-78
-6.43499e-81
-2.23615e-83
-6.22511e-86
-1.36995e-88
-2.34502e-91
-3.05774e-94
-2.95504e-97
-2.04029e-100
-9.55919e-104
-2.81516e-107
-4.60809e-111
-3.33885e-115
-6.14552e-120
-6.52182e-63
-4.3272e-63
-7.82017e-64
-1.12193e-64
-7.36919e-66
-2.29093e-67
-4.84325e-69
-9.02487e-72
1.00308e-74
3.8116e-73
5.06631e-72
4.22385e-71
2.14459e-70
7.25715e-70
1.98036e-69
3.34391e-69
4.17271e-69
5.1889e-73
2.21747e-70
9.36285e-73
1.77636e-68
1.58823e-62
-4.25623e-53
-1.92077e-46
-1.93346e-46
-9.36882e-47
-2.88331e-47
-6.29011e-48
-1.03114e-48
-1.31666e-49
-1.34117e-50
-1.10805e-51
-7.51392e-53
-4.21811e-54
-1.9683e-55
-7.69808e-57
-2.52583e-58
-6.96431e-60
-1.61476e-61
-3.1486e-63
-5.15655e-65
-7.08312e-67
-8.1389e-69
-7.79966e-71
-6.21024e-73
-4.08646e-75
-2.20995e-77
-9.75027e-80
-3.47955e-82
-9.93824e-85
-2.24182e-87
-3.92986e-90
-5.24297e-93
-5.17995e-96
-3.65349e-99
-1.7475e-102
-5.2515e-106
-8.77027e-110
-6.48517e-114
-1.21956e-118
-5.84718e-62
-5.42985e-62
-8.32379e-63
-1.06352e-63
-5.15996e-65
-1.20415e-66
-1.42419e-68
4.7309e-89
7.48284e-70
1.27685e-68
1.61884e-67
1.38366e-66
7.57476e-66
2.68529e-65
6.85679e-65
1.12487e-64
1.67146e-64
1.02201e-65
9.51009e-70
1.12721e-69
3.71251e-66
8.54046e-60
-7.07046e-52
-1.00421e-45
-1.06939e-45
-5.48536e-46
-1.78566e-46
-4.11388e-47
-7.1077e-48
-9.54577e-49
-1.02068e-49
-8.8357e-51
-6.26754e-52
-3.67479e-53
-1.78865e-54
-7.28651e-56
-2.4872e-57
-7.12598e-59
-1.71493e-60
-3.46696e-62
-5.88056e-64
-8.35709e-66
-9.92462e-68
-9.81955e-70
-8.0639e-72
-5.46712e-74
-3.04317e-76
-1.38054e-78
-5.06063e-81
-1.48322e-83
-3.42989e-86
-6.15772e-89
-8.40586e-92
-8.49008e-95
-6.11694e-98
-2.98674e-101
-9.15823e-105
-1.56029e-108
-1.1773e-112
-2.26159e-117
-8.63878e-61
-6.40487e-61
-7.93168e-62
-7.97995e-63
-3.12497e-64
-4.37388e-66
2.38131e-83
7.30261e-68
2.76471e-66
4.9804e-65
6.22798e-64
5.3879e-63
2.92537e-62
1.0159e-61
2.57047e-61
4.19004e-61
6.26265e-61
4.56659e-61
1.90904e-62
4.10068e-66
6.66315e-62
6.32527e-58
-1.16966e-50
-4.64302e-45
-5.25564e-45
-2.86843e-45
-9.92745e-46
-2.42672e-46
-4.43753e-47
-6.29136e-48
-7.08407e-49
-6.44351e-50
-4.79281e-51
-2.94133e-52
-1.49616e-53
-6.3593e-55
-2.26163e-56
-6.74212e-58
-1.6861e-59
-3.53786e-61
-6.22077e-63
-9.1539e-65
-1.12433e-66
-1.14923e-68
-9.73884e-71
-6.80591e-73
-3.90068e-75
-1.82002e-77
-6.85449e-80
-2.06185e-82
-4.88829e-85
-8.98835e-88
-1.25545e-90
-1.29626e-93
-9.53924e-97
-4.75415e-100
-1.48718e-103
-2.58423e-107
-1.98918e-111
-3.90214e-116
-1.09069e-59
-6.4641e-60
-6.56408e-61
-4.91512e-62
-1.31535e-63
9.46712e-85
5.06141e-66
2.70279e-64
1.0893e-62
1.88407e-61
2.31802e-60
1.98743e-59
1.07399e-58
3.70622e-58
9.33054e-58
1.5135e-57
2.25747e-57
1.66454e-57
7.67223e-58
1.44829e-62
5.81619e-58
6.95248e-58
-2.00584e-49
-1.87466e-44
-2.26824e-44
-1.32544e-44
-4.90764e-45
-1.28026e-45
-2.49045e-46
-3.7438e-47
-4.456e-48
-4.27246e-49
-3.34172e-50
-2.15177e-51
-1.1463e-52
-5.09301e-54
-1.89028e-55
-5.87189e-57
-1.52797e-58
-3.33137e-60
-6.07851e-62
-9.26974e-64
-1.17845e-65
-1.24521e-67
-1.08952e-69
-7.85195e-72
-4.63532e-74
-2.22512e-76
-8.6117e-79
-2.65897e-81
-6.46358e-84
-1.21727e-86
-1.73959e-89
-1.83593e-92
-1.3798e-95
-7.0176e-99
-2.23896e-102
-3.96693e-106
-3.11385e-110
-6.23487e-115
-1.14465e-58
-5.58635e-59
-4.49607e-60
-2.3182e-61
-1.15531e-63
4.17802e-65
1.8322e-62
1.02526e-60
4.03905e-59
7.04694e-58
8.51005e-57
7.08559e-56
3.80258e-55
1.29788e-54
3.25841e-54
5.2612e-54
7.86436e-54
5.83976e-54
2.69862e-54
4.95987e-59
1.07361e-52
1.44964e-52
-3.69512e-48
-6.50259e-44
-8.46807e-44
-5.339e-44
-2.13177e-44
-5.97865e-45
-1.24511e-45
-1.99533e-46
-2.52179e-47
-2.55852e-48
-2.11111e-49
-1.43026e-50
-7.99875e-52
-3.72271e-53
-1.4446e-54
-4.68361e-56
-1.26995e-57
-2.88062e-59
-5.46017e-61
-8.63768e-63
-1.13751e-64
-1.2434e-66
-1.12394e-68
-8.35719e-71
-5.08368e-73
-2.51141e-75
-9.99043e-78
-3.16672e-80
-7.89324e-83
-1.52249e-85
-2.226e-88
-2.40102e-91
-1.8425e-94
-9.56039e-98