/*--------------------------------*- C++ -*----------------------------------*\
| =========                 |                                                 |
| \\      /  F ield         | OpenFOAM: The Open Source CFD Toolbox           |
|  \\    /   O peration     | Version:  v2012                                 |
|   \\  /    A nd           | Website:  www.openfoam.com                      |
|    \\/     M anipulation  |                                                 |
\*---------------------------------------------------------------------------*/
FoamFile
{
    version     2.0;
    format      ascii;
    class       surfaceScalarField;
    location    "0.25";
    object      phi;
}
// * * * * * * * * * * * * * * * * * * * * * * * * * * * * * * * * * * * * * //

dimensions      [0 3 -1 0 0 0 0];
oriented        oriented;


internalField   nonuniform List<scalar> 
39020
(
5.33599e-15
-8.42205e-14
-4.24276e-17
2.50402e-14
-4.78659e-13
3.02128e-17
5.40896e-14
-1.1292e-12
-7.26604e-18
7.56631e-14
-1.97343e-12
-3.9077e-16
1.48802e-13
-3.10783e-12
-1.73914e-16
2.26759e-13
-4.38818e-12
-3.68253e-17
3.27294e-13
-5.92869e-12
-2.16187e-16
4.48673e-13
-7.68131e-12
4.23663e-17
5.892e-13
-9.71264e-12
-4.7015e-16
7.77214e-13
-1.19759e-11
4.07945e-16
9.93096e-13
-1.45625e-11
-2.27143e-17
1.26952e-12
-1.73974e-11
8.90908e-16
1.58282e-12
-2.06049e-11
-6.94006e-16
1.93993e-12
-2.4097e-11
8.94093e-16
2.33868e-12
-2.79647e-11
-2.00526e-16
2.7861e-12
-3.2188e-11
4.5354e-17
3.28554e-12
-3.68078e-11
-1.44795e-16
3.83835e-12
-4.18236e-11
-1.33002e-16
4.44738e-12
-4.72661e-11
7.16339e-17
5.11508e-12
-5.31418e-11
-3.80482e-17
5.84267e-12
-5.9464e-11
-3.49015e-17
6.62943e-12
-6.62483e-11
-2.75165e-17
7.47583e-12
-7.34928e-11
-3.00812e-17
8.38102e-12
-8.1211e-11
2.51422e-17
9.34362e-12
-8.93947e-11
6.67872e-18
1.0361e-11
-9.80447e-11
3.02479e-17
1.14296e-11
-1.07151e-10
1.61758e-17
1.25443e-11
-1.16687e-10
1.19213e-17
1.3699e-11
-1.26652e-10
6.24221e-18
1.48856e-11
-1.36993e-10
5.5889e-19
1.6095e-11
-1.47687e-10
3.52485e-18
1.73163e-11
-1.58689e-10
3.7521e-18
1.85373e-11
-1.6994e-10
1.09429e-17
1.97443e-11
-1.81381e-10
1.59993e-17
2.0922e-11
-1.92938e-10
2.2948e-17
2.20533e-11
-2.04536e-10
2.69363e-17
2.31198e-11
-2.16079e-10
2.85271e-17
2.41027e-11
-2.27477e-10
2.84379e-17
2.49818e-11
-2.38621e-10
2.66266e-17
2.5737e-11
-2.49342e-10
2.36221e-17
2.63472e-11
-2.59657e-10
1.96456e-17
2.67922e-11
-2.69275e-10
1.58919e-17
2.70521e-11
-2.78206e-10
1.19951e-17
2.71083e-11
-2.86193e-10
8.70661e-18
2.6944e-11
-2.93079e-10
5.78029e-18
2.6544e-11
-2.98895e-10
3.11327e-18
2.58972e-11
-3.03206e-10
6.74779e-19
2.49948e-11
-3.06015e-10
-4.8075e-18
2.38327e-11
-3.07001e-10
-5.82618e-18
2.24119e-11
-3.05968e-10
-6.40378e-18
2.07376e-11
-3.02705e-10
-6.30473e-18
1.88229e-11
-2.96724e-10
-6.14706e-18
1.66872e-11
-2.87673e-10
-5.41214e-18
1.43585e-11
-2.7502e-10
-4.87873e-18
1.1875e-11
-2.57985e-10
-4.4099e-18
9.28809e-12
-2.35573e-10
-4.05897e-18
6.66424e-12
-2.06435e-10
-3.87003e-18
4.10252e-12
-1.68408e-10
-3.40369e-18
1.72406e-12
-1.18186e-10
-3.03384e-18
-4.90511e-11
-2.47507e-18
5.85472e-15
-8.99546e-14
-4.87903e-17
2.39501e-14
-4.96969e-13
-2.23552e-17
6.81565e-14
-1.17262e-12
3.96532e-16
1.42983e-13
-2.05001e-12
-3.84799e-16
2.37077e-13
-3.198e-12
3.03801e-16
3.06776e-13
-4.45862e-12
8.09425e-17
4.14579e-13
-6.0399e-12
-4.66169e-16
5.55236e-13
-7.82227e-12
-1.4385e-17
7.1945e-13
-9.88627e-12
-1.2965e-15
9.38612e-13
-1.21942e-11
1.16274e-16
1.1704e-12
-1.47967e-11
-3.04251e-16
1.45663e-12
-1.7681e-11
2.43205e-16
1.76899e-12
-2.09218e-11
-3.29956e-16
2.12095e-12
-2.44472e-11
3.4661e-17
2.51562e-12
-2.83611e-11
-5.82809e-17
2.96151e-12
-3.26342e-11
-1.03891e-16
3.459e-12
-3.73061e-11
-2.31468e-17
4.01132e-12
-4.23777e-11
-2.17795e-16
4.61889e-12
-4.78767e-11
-2.59938e-16
5.28508e-12
-5.38091e-11
-1.24981e-16
6.01007e-12
-6.01902e-11
-5.52204e-17
6.79534e-12
-6.70348e-11
-9.24061e-17
7.64091e-12
-7.43392e-11
-1.26076e-17
8.54601e-12
-8.21165e-11
-3.51847e-18
9.50864e-12
-9.03577e-11
2.36902e-17
1.05263e-11
-9.90625e-11
1.31189e-17
1.15951e-11
-1.0822e-10
1.16637e-17
1.27101e-11
-1.17802e-10
-9.57148e-18
1.38649e-11
-1.27807e-10
-1.52182e-17
1.50516e-11
-1.3818e-10
-2.42115e-17
1.62607e-11
-1.48897e-10
-2.11308e-17
1.74816e-11
-1.5991e-10
-1.78686e-17
1.87016e-11
-1.71161e-10
-6.05187e-18
1.99067e-11
-1.82586e-10
1.30714e-17
2.10815e-11
-1.94113e-10
3.33227e-17
2.22093e-11
-2.05664e-10
4.03564e-17
2.32718e-11
-2.17142e-10
4.22083e-17
2.42499e-11
-2.28455e-10
4.20792e-17
2.51235e-11
-2.39494e-10
3.93005e-17
2.58723e-11
-2.5009e-10
3.47924e-17
2.64754e-11
-2.6026e-10
2.87377e-17
2.69126e-11
-2.69712e-10
2.34126e-17
2.71638e-11
-2.78457e-10
1.78502e-17
2.72108e-11
-2.8624e-10
1.34705e-17
2.70366e-11
-2.92905e-10
9.57152e-18
2.66263e-11
-2.98485e-10
6.51713e-18
2.59688e-11
-3.02548e-10
2.00618e-18
2.50554e-11
-3.05101e-10
-2.57009e-18
2.38823e-11
-3.05828e-10
-3.49986e-18
2.24502e-11
-3.04536e-10
-3.03861e-18
2.07647e-11
-3.0102e-10
-2.18855e-18
1.88388e-11
-2.94798e-10
-1.8085e-18
1.66921e-11
-2.85526e-10
-1.11814e-18
1.43522e-11
-2.7268e-10
-1.17539e-18
1.18575e-11
-2.55491e-10
-1.20841e-18
9.25924e-12
-2.32975e-10
-1.4672e-18
6.62346e-12
-2.038e-10
-1.6931e-18
4.04866e-12
-1.65833e-10
-1.65196e-18
1.65816e-12
-1.15796e-10
-1.61722e-18
-4.73929e-11
-9.21206e-19
5.58859e-15
-9.56283e-14
4.88199e-17
2.55285e-14
-5.16857e-13
-7.1356e-17
4.60973e-14
-1.192e-12
-3.71124e-16
7.64327e-14
-2.08145e-12
2.37886e-16
1.26138e-13
-3.24787e-12
7.03857e-16
2.38892e-13
-4.57762e-12
-1.48143e-15
3.6878e-13
-6.16013e-12
1.30656e-15
5.00767e-13
-7.96563e-12
-1.45967e-15
6.8377e-13
-1.00701e-11
6.51617e-17
8.90352e-13
-1.24055e-11
-6.26189e-16
1.12061e-12
-1.50332e-11
-7.0369e-16
1.39067e-12
-1.79528e-11
-2.52379e-16
1.70734e-12
-2.12415e-11
-4.85301e-16
2.08583e-12
-2.48217e-11
6.87868e-16
2.5037e-12
-2.87801e-11
-2.32422e-16
2.97105e-12
-3.31012e-11
1.28659e-16
3.48793e-12
-3.78229e-11
-3.94546e-17
4.05761e-12
-4.29488e-11
-8.30527e-17
4.68198e-12
-4.85026e-11
-1.84087e-16
5.36546e-12
-5.44932e-11
-4.20723e-17
6.10836e-12
-6.09334e-11
-8.14443e-17
6.9103e-12
-6.78369e-11
-8.26652e-19
7.77153e-12
-7.52003e-11
1.97716e-19
8.69153e-12
-8.30364e-11
4.21729e-17
9.6686e-12
-9.13348e-11
7.22418e-18
1.07002e-11
-1.00094e-10
1.57477e-17
1.17823e-11
-1.09303e-10
-1.0142e-17
1.291e-11
-1.1893e-10
-1.56863e-17
1.40768e-11
-1.28974e-10
-2.76425e-17
1.52745e-11
-1.39378e-10
-2.7382e-17
1.64938e-11
-1.50117e-10
-2.59136e-17
1.77236e-11
-1.6114e-10
-2.03169e-17
1.89513e-11
-1.72388e-10
-7.79899e-18
2.01624e-11
-1.83797e-10
2.10864e-17
2.13413e-11
-1.95291e-10
5.08703e-17
2.24715e-11
-2.06794e-10
5.90558e-17
2.35343e-11
-2.18204e-10
6.04425e-17
2.45105e-11
-2.29431e-10
5.91408e-17
2.538e-11
-2.40364e-10
5.4578e-17
2.61225e-11
-2.50832e-10
4.81351e-17
2.67169e-11
-2.60854e-10
3.95538e-17
2.71433e-11
-2.70138e-10
3.23302e-17
2.73815e-11
-2.78695e-10
2.47544e-17
2.74136e-11
-2.86272e-10
1.90314e-17
2.72228e-11
-2.92714e-10
1.40493e-17
2.67942e-11
-2.98056e-10
1.00662e-17
2.61171e-11
-3.01871e-10
6.36003e-18
2.51831e-11
-3.04167e-10
4.77816e-19
2.39884e-11
-3.04634e-10
9.28374e-19
2.25343e-11
-3.03081e-10
1.12705e-18
2.08263e-11
-2.99311e-10
2.44336e-18
1.88778e-11
-2.92849e-10
2.74281e-18
1.67082e-11
-2.83356e-10
3.51661e-18
1.43454e-11
-2.70317e-10
3.06541e-18
1.18279e-11
-2.52973e-10
2.77335e-18
9.20677e-12
-2.30353e-10
2.08973e-18
6.54859e-12
-2.01141e-10
1.67577e-18
3.95436e-12
-1.63239e-10
1.5073e-18
1.5694e-12
-1.13411e-10
1.50148e-18
-4.58234e-11
1.79674e-18
6.12845e-15
-1.01822e-13
3.42362e-17
2.60309e-14
-5.3664e-13
-2.47342e-17
6.89507e-14
-1.23376e-12
-2.65213e-16
1.42681e-13
-2.16e-12
-2.44742e-16
2.03324e-13
-3.30604e-12
7.97151e-16
3.03075e-13
-4.67765e-12
-5.38093e-16
4.33365e-13
-6.28158e-12
1.30227e-15
5.55286e-13
-8.09962e-12
-1.3035e-15
7.59666e-13
-1.0273e-11
1.17424e-16
9.72205e-13
-1.26181e-11
1.41453e-16
1.2317e-12
-1.52912e-11
-5.5117e-19
1.52792e-12
-1.825e-11
-2.30813e-16
1.85281e-12
-2.15694e-11
-2.7258e-16
2.23123e-12
-2.51939e-11
6.98528e-16
2.65022e-12
-2.91985e-11
1.22692e-16
3.11917e-12
-3.35703e-11
-9.78706e-17
3.64049e-12
-3.83438e-11
1.12909e-16
4.21659e-12
-4.3526e-11
-1.53781e-16
4.84969e-12
-4.91365e-11
-3.77547e-17
5.54188e-12
-5.51862e-11
-1.23008e-16
6.29422e-12
-6.16868e-11
-7.29235e-17
7.10799e-12
-6.86511e-11
-6.03229e-17
7.98255e-12
-7.60748e-11
4.15595e-17
8.91677e-12
-8.39703e-11
5.0174e-17
9.90841e-12
-9.23263e-11
6.04189e-17
1.09548e-11
-1.0114e-10
4.06733e-17
1.20518e-11
-1.104e-10
2.86367e-17
1.31943e-11
-1.20073e-10
1.18613e-17
1.43755e-11
-1.30155e-10
7.90822e-18
1.55872e-11
-1.4059e-10
7.31068e-18
1.68195e-11
-1.51349e-10
1.35805e-17
1.80612e-11
-1.62382e-10
1.78069e-17
1.92993e-11
-1.73626e-10
2.75576e-17
2.0519e-11
-1.85017e-10
4.89685e-17
2.17045e-11
-1.96476e-10
7.317e-17
2.28387e-11
-2.07927e-10
8.07955e-17
2.3903e-11
-2.19268e-10
8.18001e-17
2.48778e-11
-2.30405e-10
7.81704e-17
2.57428e-11
-2.41228e-10
7.13569e-17
2.64776e-11
-2.51566e-10
6.29545e-17
2.70611e-11
-2.61437e-10
5.2032e-17
2.74733e-11
-2.7055e-10
4.32235e-17
2.76944e-11
-2.78916e-10
3.39953e-17
2.77062e-11
-2.86283e-10
2.7291e-17
2.74925e-11
-2.925e-10
2.14203e-17
2.70387e-11
-2.97602e-10
1.70621e-17
2.63343e-11
-3.01166e-10
1.23612e-17
2.53711e-11
-3.03204e-10
1.1218e-17
2.4146e-11
-3.03408e-10
1.28072e-17
2.26604e-11
-3.01595e-10
1.45548e-17
2.09203e-11
-2.97571e-10
1.69389e-17
1.89392e-11
-2.90867e-10
1.74223e-17
1.67369e-11
-2.81153e-10
1.79217e-17
1.43416e-11
-2.67922e-10
1.65849e-17
1.17918e-11
-2.50423e-10
1.52729e-17
9.13952e-12
-2.27701e-10
1.33893e-17
6.45306e-12
-1.98455e-10
1.19197e-17
3.83969e-12
-1.60625e-10
1.07457e-17
1.4776e-12
-1.11048e-10
9.99202e-18
-4.43456e-11
1.00535e-17
5.74943e-15
-1.0767e-13
3.75336e-17
2.58544e-14
-5.56697e-13
-4.68601e-17
6.48489e-14
-1.27179e-12
-2.72907e-16
1.39378e-13
-2.23371e-12
4.22731e-16
1.87051e-13
-3.36012e-12
-2.98001e-16
2.78669e-13
-4.75894e-12
4.96849e-16
3.9232e-13
-6.37984e-12
1.98498e-15
3.99774e-13
-8.11626e-12
-1.90958e-15
7.12302e-13
-1.05872e-11
5.24614e-16
9.4905e-13
-1.28522e-11
1.50556e-16
1.22448e-12
-1.55714e-11
-4.02443e-16
1.52647e-12
-1.85529e-11
-3.25592e-16
1.87028e-12
-2.19155e-11
-1.69022e-16
2.26095e-12
-2.55785e-11
8.45286e-16
2.69855e-12
-2.96349e-11
3.28064e-17
3.18599e-12
-3.40584e-11
2.24681e-17
3.72959e-12
-3.8886e-11
7.75182e-17
4.32709e-12
-4.41245e-11
-2.66276e-17
4.9829e-12
-4.97932e-11
-9.92565e-17
5.69928e-12
-5.5902e-11
1.00739e-16
6.4762e-12
-6.24629e-11
6.86569e-17
7.31394e-12
-6.9488e-11
1.27221e-16
8.21261e-12
-7.69722e-11
1.51464e-16
9.17079e-12
-8.49272e-11
1.75303e-16
1.01864e-11
-9.33407e-11
1.46682e-16
1.12563e-11
-1.0221e-10
1.24002e-16
1.23764e-11
-1.11519e-10
9.10318e-17
1.35413e-11
-1.21237e-10
7.17546e-17
1.4744e-11
-1.31358e-10
5.94637e-17
1.59761e-11
-1.41821e-10
5.95076e-17
1.72273e-11
-1.526e-10
6.2554e-17
1.84862e-11
-1.6364e-10
6.50252e-17
1.97392e-11
-1.74879e-10
6.80867e-17
2.09715e-11
-1.86249e-10
8.00819e-17
2.21667e-11
-1.97671e-10
9.57778e-17
2.33073e-11
-2.09067e-10
1.03021e-16
2.43744e-11
-2.20334e-10
1.0356e-16
2.53483e-11
-2.31379e-10
9.74137e-17
2.62084e-11
-2.42088e-10
8.79089e-17
2.6934e-11
-2.52291e-10
7.72554e-17
2.75041e-11
-2.62007e-10
6.39688e-17
2.78988e-11
-2.70944e-10
5.35667e-17
2.80982e-11
-2.79115e-10
4.27994e-17
2.80846e-11
-2.8627e-10
3.51118e-17
2.7842e-11
-2.92257e-10
2.85431e-17
2.7356e-11
-2.97116e-10
2.3305e-17
2.66167e-11
-3.00426e-10
1.96522e-17
2.56164e-11
-3.02203e-10
1.83389e-17
2.43524e-11
-3.02144e-10
2.12583e-17
2.28267e-11
-3.00069e-10
2.28657e-17
2.10455e-11
-2.95789e-10
2.55576e-17
1.90229e-11
-2.88844e-10
2.57141e-17
1.67791e-11
-2.78909e-10
2.58206e-17
1.43428e-11
-2.65485e-10
2.36377e-17
1.17532e-11
-2.47833e-10
2.15342e-17
9.06356e-12
-2.25011e-10
1.8735e-17
6.34588e-12
-1.95737e-10
1.65639e-17
3.71651e-12
-1.57996e-10
1.46848e-17
1.38711e-12
-1.08719e-10
1.34706e-17
-4.29582e-11
1.31586e-17
6.26975e-15
-1.14009e-13
3.99407e-17
2.53774e-14
-5.76233e-13
-6.2127e-17
5.28516e-14
-1.29757e-12
-1.96062e-16
1.06729e-13
-2.28319e-12
1.00148e-15
1.81145e-13
-3.44817e-12
-5.03973e-16
3.64034e-13
-4.94401e-12
-5.51271e-16
6.59191e-13
-6.67454e-12
2.16763e-17
9.11274e-13
-8.37746e-12
-3.31329e-15
1.16048e-12
-1.08453e-11
-1.30273e-15
1.21183e-12
-1.29044e-11
3.28051e-16
1.40618e-12
-1.57667e-11
-3.5768e-16
1.67258e-12
-1.88127e-11
7.61825e-16
2.00759e-12
-2.22438e-11
6.35863e-16
2.39352e-12
-2.59615e-11
5.08812e-16
2.83529e-12
-3.0076e-11
4.72516e-17
3.33251e-12
-3.45551e-11
9.59703e-18
3.88811e-12
-3.94395e-11
2.75737e-16
4.50041e-12
-4.47368e-11
-1.43562e-17
5.17397e-12
-5.04656e-11
1.71847e-16
5.90978e-12
-5.66365e-11
1.40377e-16
6.70798e-12
-6.32597e-11
1.82001e-16
7.56903e-12
-7.03476e-11
1.73931e-16
8.49238e-12
-7.78939e-11
2.18048e-16
9.47648e-12
-8.59097e-11
2.10746e-16
1.05187e-11
-9.43816e-11
1.92083e-16
1.16158e-11
-1.03306e-10
1.59484e-16
1.27631e-11
-1.12665e-10
1.35263e-16
1.39549e-11
-1.22428e-10
1.16913e-16
1.51838e-11
-1.32586e-10
1.10836e-16
1.64409e-11
-1.43078e-10
1.11941e-16
1.77156e-11
-1.53874e-10
1.16234e-16
1.89958e-11
-1.6492e-10
1.16117e-16
2.02678e-11
-1.7615e-10
1.13865e-16
2.1516e-11
-1.87496e-10
1.15593e-16
2.27238e-11
-1.98878e-10
1.21542e-16
2.38729e-11
-2.10215e-10
1.27031e-16
2.49442e-11
-2.21405e-10
1.25867e-16
2.59177e-11
-2.32351e-10
1.16489e-16
2.67724e-11
-2.42942e-10
1.03825e-16
2.74875e-11
-2.53005e-10
9.08788e-17
2.8042e-11
-2.62561e-10
7.52171e-17
2.84158e-11
-2.71317e-10
6.33767e-17
2.85895e-11
-2.79289e-10
5.1243e-17
2.85455e-11
-2.86225e-10
4.27814e-17
2.82681e-11
-2.91979e-10
3.55697e-17
2.77435e-11
-2.96591e-10
2.99421e-17
2.69622e-11
-2.99644e-10
2.46155e-17
2.59172e-11
-3.01158e-10
2.66043e-17
2.46063e-11
-3.00833e-10
3.04206e-17
2.30321e-11
-2.98494e-10
3.35668e-17
2.12015e-11
-2.93958e-10
3.74052e-17
1.91291e-11
-2.86771e-10
3.78912e-17
1.68359e-11
-2.76615e-10
3.78715e-17
1.43511e-11
-2.63e-10
3.49927e-17
1.17153e-11
-2.45196e-10
3.20621e-17
8.98372e-12
-2.22279e-10
2.82548e-17
6.2335e-12
-1.92986e-10
2.51884e-17
3.59196e-12
-1.55353e-10
2.24034e-17
1.30074e-12
-1.06427e-10
2.05013e-17
-4.1657e-11
2.01053e-17
6.47202e-15
-1.20462e-13
1.1277e-17
2.95147e-14
-5.99182e-13
-4.32988e-17
8.17471e-14
-1.34976e-12
-3.21089e-17
1.46429e-13
-2.35416e-12
-9.75896e-16
2.33741e-13
-3.52037e-12
1.1893e-15
2.62662e-13
-4.97534e-12
-1.37833e-15
2.33323e-13
-6.64532e-12
-1.65825e-15
3.38055e-13
-8.44795e-12
1.04642e-14
4.37367e-13
-1.09806e-11
-2.7665e-15
8.79928e-13
-1.33234e-11
-2.2679e-15
1.22824e-12
-1.61188e-11
1.60539e-15
1.60286e-12
-1.91847e-11
-2.24601e-16
1.99179e-12
-2.26294e-11
6.70567e-16
2.43039e-12
-2.63924e-11
9.2395e-16
2.90403e-12
-3.05504e-11
-8.27613e-17
3.43468e-12
-3.5083e-11
3.49249e-16
4.01956e-12
-4.00224e-11
1.9502e-16
4.66035e-12
-4.53786e-11
-5.04589e-17
5.36248e-12
-5.11679e-11
-2.57859e-18
6.12852e-12
-5.74001e-11
2.8698e-16
6.9577e-12
-6.40862e-11
3.20505e-16
7.85009e-12
-7.12376e-11
2.93628e-16
8.80535e-12
-7.88467e-11
3.06752e-16
9.82189e-12
-8.69239e-11
2.97906e-16
1.0897e-11
-9.54546e-11
2.80159e-16
1.20272e-11
-1.04434e-10
2.46231e-16
1.32073e-11
-1.13844e-10
2.20911e-16
1.44314e-11
-1.2365e-10
1.97165e-16
1.56917e-11
-1.33844e-10
1.86741e-16
1.69788e-11
-1.44363e-10
1.81337e-16
1.82815e-11
-1.55175e-10
1.79545e-16
1.95874e-11
-1.66224e-10
1.72583e-16
2.0882e-11
-1.77443e-10
1.62665e-16
2.21494e-11
-1.88762e-10
1.54475e-16
2.33723e-11
-2.00099e-10
1.51009e-16
2.45319e-11
-2.11374e-10
1.52664e-16
2.56087e-11
-2.22481e-10
1.48243e-16
2.65821e-11
-2.33324e-10
1.34779e-16
2.74309e-11
-2.4379e-10
1.18864e-16
2.81342e-11
-2.53708e-10
1.036e-16
2.86708e-11
-2.63097e-10
8.57348e-17
2.90208e-11
-2.71666e-10
7.25612e-17
2.91647e-11
-2.79432e-10
5.92801e-17
2.90855e-11
-2.86145e-10
5.01472e-17
2.87678e-11
-2.9166e-10
4.26024e-17
2.81984e-11
-2.96022e-10
3.62697e-17
2.73684e-11
-2.98814e-10
3.21299e-17
2.62714e-11
-3.0006e-10
3.40969e-17
2.49062e-11
-2.99467e-10
3.90893e-17
2.32758e-11
-2.96863e-10
4.20666e-17
2.13881e-11
-2.9207e-10
4.62021e-17
1.92584e-11
-2.84641e-10
4.64464e-17
1.69085e-11
-2.74264e-10
4.60969e-17
1.43688e-11
-2.60459e-10
4.25547e-17
1.16813e-11
-2.42508e-10
3.90367e-17
8.90432e-12
-2.19501e-10
3.45592e-17
6.12117e-12
-1.90202e-10
3.10144e-17
3.47106e-12
-1.52703e-10
2.76773e-17
1.22075e-12
-1.04176e-10
2.54218e-17
-4.04356e-11
2.45241e-17
6.35599e-15
-1.26854e-13
6.2821e-18
3.1324e-14
-6.2399e-13
1.47989e-17
6.85829e-14
-1.3857e-12
1.00256e-16
1.15989e-13
-2.40545e-12
-5.77072e-16
2.24211e-13
-3.62108e-12
9.63666e-16
3.46267e-13
-5.10768e-12
-1.90505e-15
4.95372e-13
-6.81696e-12
-4.41588e-15
8.35548e-13
-8.7674e-12
7.48461e-15
8.70473e-13
-1.10638e-11
-5.23107e-15
1.12909e-12
-1.35566e-11
-1.45652e-15
1.401e-12
-1.63848e-11
2.26398e-15
1.73795e-12
-1.95228e-11
-3.15847e-16
2.11688e-12
-2.30049e-11
4.12613e-16
2.55924e-12
-2.68311e-11
5.67621e-16
3.04371e-12
-3.1038e-11
-3.86749e-16
3.59271e-12
-3.56285e-11
3.89144e-16
4.19758e-12
-4.06248e-11
2.67764e-16
4.86206e-12
-4.60431e-11
3.55069e-17
5.59063e-12
-5.1895e-11
1.58334e-16
6.3846e-12
-5.81924e-11
2.2512e-16
7.24438e-12
-6.49437e-11
2.76872e-16
8.16961e-12
-7.21604e-11
3.27916e-16
9.15946e-12
-7.98339e-11
3.33931e-16
1.02118e-11
-8.79738e-11
3.3973e-16
1.13238e-11
-9.65642e-11
3.07488e-16
1.24913e-11
-1.05599e-10
2.90256e-16
1.37089e-11
-1.1506e-10
2.6521e-16
1.497e-11
-1.24909e-10
2.56139e-16
1.62664e-11
-1.35139e-10
2.46825e-16
1.7588e-11
-1.45683e-10
2.44797e-16
1.89231e-11
-1.56508e-10
2.38338e-16
2.02586e-11
-1.67558e-10
2.27212e-16
2.15794e-11
-1.78762e-10
2.0993e-16
2.28689e-11
-1.9005e-10
1.9401e-16
2.41094e-11
-2.01338e-10
1.81769e-16
2.52812e-11
-2.12544e-10
1.78384e-16
2.63643e-11
-2.23562e-10
1.69278e-16
2.73379e-11
-2.34296e-10
1.51687e-16
2.81803e-11
-2.44631e-10
1.3256e-16
2.88705e-11
-2.54397e-10
1.15359e-16
2.93869e-11
-2.63613e-10
9.54299e-17
2.97099e-11
-2.71988e-10
8.1162e-17
2.98203e-11
-2.79542e-10
6.6937e-17
2.97013e-11
-2.86026e-10
5.73352e-17
2.9338e-11
-2.91296e-10
4.95017e-17
2.87179e-11
-2.95401e-10
4.29503e-17
2.78328e-11
-2.97928e-10
3.73207e-17
2.66772e-11
-2.98904e-10
4.26724e-17
2.52505e-11
-2.98039e-10
4.81987e-17
2.35569e-11
-2.95168e-10
5.23445e-17
2.16049e-11
-2.90117e-10
5.73177e-17
1.9411e-11
-2.82446e-10
5.7716e-17
1.6998e-11
-2.7185e-10
5.71478e-17
1.43975e-11
-2.57858e-10
5.29879e-17
1.16539e-11
-2.39763e-10
4.87936e-17
8.82895e-12
-2.16675e-10
4.3519e-17
6.01298e-12
-1.87385e-10
3.92862e-17
3.35721e-12
-1.50046e-10
3.52221e-17
1.14839e-12
-1.01966e-10
3.23977e-17
-3.92865e-11
3.15578e-17
5.78382e-15
-1.32921e-13
7.42737e-17
2.27237e-14
-6.40501e-13
-1.70199e-16
6.36345e-14
-1.42515e-12
2.57667e-16
1.85462e-13
-2.52512e-12
2.99868e-16
2.36491e-13
-3.67202e-12
-2.42706e-16
3.39412e-13
-5.22731e-12
-2.6056e-15
4.84318e-13
-6.96481e-12
-2.32513e-15
7.08044e-13
-8.97554e-12
5.83473e-15
8.74612e-13
-1.12636e-11
-2.70084e-15
1.15227e-12
-1.38269e-11
-3.78553e-15
1.45115e-12
-1.6687e-11
1.44063e-15
1.80856e-12
-1.98845e-11
-8.80865e-16
2.19988e-12
-2.3395e-11
2.82195e-16
2.65854e-12
-2.72885e-11
2.08183e-16
3.16495e-12
-3.15479e-11
-3.35102e-16
3.74053e-12
-3.62003e-11
3.60388e-16
4.37402e-12
-4.1256e-11
3.11073e-16
5.07028e-12
-4.67389e-11
3.91194e-17
5.83184e-12
-5.26555e-11
1.74637e-16
6.66098e-12
-5.90194e-11
2.31933e-16
7.55761e-12
-6.58375e-11
3.74674e-16
8.52132e-12
-7.3121e-11
3.6935e-16
9.55083e-12
-8.08602e-11
4.1527e-16
1.0644e-11
-8.90638e-11
3.86868e-16
1.17976e-11
-9.77148e-11
3.8199e-16
1.30073e-11
-1.06806e-10
3.47813e-16
1.42671e-11
-1.16317e-10
3.37512e-16
1.55699e-11
-1.2621e-10
3.19113e-16
1.69068e-11
-1.36473e-10
3.14764e-16
1.82673e-11
-1.47041e-10
3.04592e-16
1.96388e-11
-1.57877e-10
2.95336e-16
2.10076e-11
-1.68925e-10
2.7591e-16
2.23578e-11
-1.80111e-10
2.53132e-16
2.36723e-11
-1.91363e-10
2.2971e-16
2.49323e-11
-2.02597e-10
2.10827e-16
2.61179e-11
-2.13729e-10
2.01463e-16
2.72083e-11
-2.24651e-10
1.87785e-16
2.81822e-11
-2.35268e-10
1.66343e-16
2.90174e-11
-2.45465e-10
1.44757e-16
2.96929e-11
-2.55071e-10
1.25975e-16
3.01869e-11
-2.64106e-10
1.04371e-16
3.048e-11
-2.72281e-10
8.92074e-17
3.0553e-11
-2.79614e-10
7.43178e-17
3.03896e-11
-2.85862e-10
6.43798e-17
2.99757e-11
-2.90882e-10
5.65902e-17
2.92993e-11
-2.94724e-10
4.95221e-17
2.83531e-11
-2.96981e-10
4.52892e-17
2.71324e-11
-2.97683e-10
5.09491e-17
2.56376e-11
-2.96544e-10
5.7297e-17
2.38741e-11
-2.93404e-10
6.08762e-17
2.18514e-11
-2.88093e-10
6.57182e-17
1.95869e-11
-2.8018e-10
6.55542e-17
1.7105e-11
-2.69367e-10
6.44049e-17
1.44389e-11
-2.55191e-10
5.95279e-17
1.16354e-11
-2.36959e-10
5.47973e-17
8.76047e-12
-2.13799e-10
4.9021e-17
5.91194e-12
-1.84536e-10
4.45119e-17
3.25254e-12
-1.47386e-10
4.01057e-17
1.08408e-12
-9.9797e-11
3.71541e-17
-3.82016e-11
3.59432e-17
7.63803e-15
-1.40836e-13
1.42424e-16
3.48667e-14
-6.68245e-13
5.17181e-18
5.89442e-14
-1.44796e-12
-7.05413e-16
6.46064e-14
-2.52908e-12
5.32092e-16
1.06079e-13
-3.71314e-12
5.45676e-16
2.97229e-13
-5.41146e-12
-1.97737e-16
4.98605e-13
-7.13776e-12
1.485e-15
7.25917e-13
-9.18412e-12
6.7206e-15
9.20646e-13
-1.1474e-11
-9.23498e-16
1.19474e-12
-1.40931e-11
-3.73001e-15
1.49912e-12
-1.69928e-11
1.64966e-15
1.86921e-12
-2.02584e-11
-9.4302e-16
2.28783e-12
-2.38104e-11
4.13904e-16
2.77555e-12
-2.77742e-11
3.33149e-16
3.31269e-12
-3.20844e-11
-7.45321e-17
3.91441e-12
-3.68008e-11
2.57454e-16
4.57793e-12
-4.19173e-11
1.42567e-16
5.30642e-12
-4.74668e-11
1.89526e-16
6.10261e-12
-5.34503e-11
1.16601e-16
6.96842e-12
-5.9883e-11
3.17926e-16
7.90444e-12
-6.67702e-11
3.65907e-16
8.90937e-12
-7.41226e-11
4.48568e-16
9.98197e-12
-8.19296e-11
3.96457e-16
1.11197e-11
-9.01986e-11
4.07175e-16
1.23191e-11
-9.89112e-11
3.65398e-16
1.35751e-11
-1.08059e-10
3.65068e-16
1.48815e-11
-1.1762e-10
3.48697e-16
1.62303e-11
-1.27556e-10
3.54347e-16
1.76122e-11
-1.37852e-10
3.487e-16
1.90156e-11
-1.48441e-10
3.47537e-16
2.04274e-11
-1.59287e-10
3.33306e-16
2.18329e-11
-1.70328e-10
3.13273e-16
2.32156e-11
-1.81491e-10
2.84949e-16
2.45575e-11
-1.92703e-10
2.58479e-16
2.58391e-11
-2.03876e-10
2.34032e-16
2.70397e-11
-2.14927e-10
2.20142e-16
2.8138e-11
-2.25748e-10
2.02138e-16
2.91119e-11
-2.36241e-10
1.78376e-16
2.99392e-11
-2.46292e-10
1.55015e-16
3.05984e-11
-2.55729e-10
1.35435e-16
3.10676e-11
-2.64575e-10
1.12472e-16
3.13276e-11
-2.72539e-10
9.67536e-17
3.13595e-11
-2.79645e-10
8.14715e-17
3.11475e-11
-2.85649e-10
7.14367e-17
3.0678e-11
-2.90411e-10
6.37726e-17
2.99398e-11
-2.93986e-10
5.66957e-17
2.89266e-11
-2.95967e-10
5.13163e-17
2.76348e-11
-2.9639e-10
6.06769e-17
2.60659e-11
-2.94974e-10
6.71612e-17
2.42262e-11
-2.91563e-10
7.13363e-17
2.21267e-11
-2.85993e-10
7.64277e-17
1.9786e-11
-2.77838e-10
7.59854e-17
1.723e-11
-2.6681e-10
7.42941e-17
1.44939e-11
-2.52453e-10
6.87015e-17
1.16274e-11
-2.34091e-10
6.33005e-17
8.70106e-12
-2.10872e-10
5.68303e-17
5.8202e-12
-1.81654e-10
5.17761e-17
3.15826e-12
-1.44723e-10
4.67943e-17
1.02774e-12
-9.76655e-11
4.34653e-17
-3.71729e-11
4.24829e-17
6.77577e-15
-1.47428e-13
-9.58354e-17
2.63318e-14
-6.87773e-13
2.18072e-16
1.05826e-13
-1.52986e-12
1.05194e-15
2.25289e-13
-2.65201e-12
-1.4961e-15
3.73546e-13
-3.86485e-12
-2.52324e-15
4.34539e-13
-5.47006e-12
1.69758e-15
5.76295e-13
-7.28418e-12
-2.64057e-15
7.94412e-13
-9.39399e-12
5.04095e-15
9.70825e-13
-1.16985e-11
-4.26543e-15
1.28011e-12
-1.43709e-11
-9.01255e-16
1.61677e-12
-1.73217e-11
2.61452e-15
2.01754e-12
-2.06433e-11
1.89202e-15
2.45059e-12
-2.42457e-11
-1.42116e-16
2.94073e-12
-2.82628e-11
9.86002e-17
3.49261e-12
-3.26369e-11
2.40631e-17
4.11454e-12
-3.74219e-11
-2.26422e-17
4.80527e-12
-4.26074e-11
1.93204e-16
5.56627e-12
-4.82268e-11
2.58646e-17
6.39864e-12
-5.42816e-11
2.16585e-16
7.30401e-12
-6.07867e-11
1.64129e-16
8.28222e-12
-6.7746e-11
3.76482e-16
9.33245e-12
-7.51699e-11
3.47122e-16
1.04523e-11
-8.30464e-11
4.18852e-16
1.1639e-11
-9.13822e-11
3.82029e-16
1.28884e-11
-1.00158e-10
4.01319e-16
1.41953e-11
-1.09363e-10
3.73667e-16
1.55525e-11
-1.18974e-10
3.83737e-16
1.69516e-11
-1.28951e-10
3.73993e-16
1.83824e-11
-1.39279e-10
3.79894e-16
1.98326e-11
-1.49888e-10
3.70402e-16
2.12882e-11
-1.60739e-10
3.59135e-16
2.27336e-11
-1.71771e-10
3.33454e-16
2.41516e-11
-1.82907e-10
3.05146e-16
2.55231e-11
-1.94072e-10
2.75935e-16
2.68279e-11
-2.05179e-10
2.49868e-16
2.80446e-11
-2.16142e-10
2.32079e-16
2.9151e-11
-2.26853e-10
2.11809e-16
3.01247e-11
-2.37213e-10
1.87121e-16
3.0943e-11
-2.47109e-10
1.63326e-16
3.15841e-11
-2.56368e-10
1.43557e-16
3.20261e-11
-2.65016e-10
1.1977e-16
3.22498e-11
-2.72762e-10
1.03791e-16
3.22368e-11
-2.79632e-10
8.8446e-17
3.19718e-11
-2.85383e-10
7.8498e-17
3.14419e-11
-2.8988e-10
7.13197e-17
3.06367e-11
-2.9318e-10
6.39886e-17
2.95511e-11
-2.94881e-10
6.02999e-17
2.81824e-11
-2.9502e-10
7.04466e-17
2.65335e-11
-2.93324e-10
7.74056e-17
2.46119e-11
-2.8964e-10
8.05063e-17
2.243e-11
-2.8381e-10
8.48501e-17
2.00079e-11
-2.75415e-10
8.33367e-17
1.73732e-11
-2.64174e-10
8.06385e-17
1.45634e-11
-2.49642e-10
7.41233e-17
1.16314e-11
-2.31158e-10
6.80997e-17
8.65233e-12
-2.07892e-10
6.1141e-17
5.73919e-12
-1.78739e-10
5.58769e-17
3.07493e-12
-1.42057e-10
5.06452e-17
9.79012e-13
-9.55685e-11
4.7338e-17
-3.61928e-11
4.61717e-17
7.82016e-15
-1.55175e-13
-3.44481e-17
3.61734e-14
-7.16369e-13
1.27081e-16
7.09502e-14
-1.5666e-12
7.69288e-16
9.32353e-14
-2.66885e-12
-4.07503e-16
2.50521e-13
-4.01577e-12
-7.27957e-16
3.7728e-13
-5.61366e-12
-9.9303e-16
5.71722e-13
-7.46933e-12
-1.45538e-15
8.69863e-13
-9.66027e-12
7.37852e-15
1.02553e-12
-1.18867e-11
-2.56932e-15
1.32699e-12
-1.46668e-11
-3.95262e-15
1.65575e-12
-1.76694e-11
-2.38923e-16
2.0726e-12
-2.10394e-11
2.25825e-15
2.53187e-12
-2.47041e-11
3.91484e-17
3.05666e-12
-2.87908e-11
-2.1292e-16
3.64697e-12
-3.32299e-11
-4.51906e-16
4.30885e-12
-3.80827e-11
2.84934e-16
5.04025e-12
-4.33376e-11
3.17086e-17
5.84194e-12
-4.90275e-11
2.35472e-16
6.7173e-12
-5.51558e-11
6.54451e-17
7.66716e-12
-6.1735e-11
2.69717e-16
8.69273e-12
-6.87684e-11
3.25178e-16
9.79202e-12
-7.62659e-11
4.53447e-16
1.09632e-11
-8.42142e-11
3.91701e-16
1.22027e-11
-9.26187e-11
4.0692e-16
1.35063e-11
-1.01458e-10
3.59225e-16
1.4868e-11
-1.10721e-10
3.72788e-16
1.62803e-11
-1.20384e-10
3.60816e-16
1.77337e-11
-1.30402e-10
3.7544e-16
1.92173e-11
-1.4076e-10
3.72867e-16
2.0718e-11
-1.51386e-10
3.74504e-16
2.22207e-11
-1.62239e-10
3.58799e-16
2.37091e-11
-1.73256e-10
3.37405e-16
2.51647e-11
-1.8436e-10
3.08169e-16
2.65678e-11
-1.95473e-10
2.82185e-16
2.78972e-11
-2.06507e-10
2.55728e-16
2.91307e-11
-2.17374e-10
2.37052e-16
3.02454e-11
-2.27966e-10
2.15856e-16
3.12183e-11
-2.38185e-10
1.92664e-16
3.20263e-11
-2.47915e-10
1.694e-16
3.26473e-11
-2.56988e-10
1.50352e-16
3.30595e-11
-2.65427e-10
1.26168e-16
3.32437e-11
-2.72945e-10
1.10323e-16
3.3182e-11
-2.79569e-10
9.52649e-17
3.28596e-11
-2.85059e-10
8.56757e-17
3.22646e-11
-2.89284e-10
7.91166e-17
3.13873e-11
-2.92302e-10
7.20686e-17
3.02238e-11
-2.93716e-10
6.77115e-17
2.87729e-11
-2.93568e-10
8.19032e-17
2.70384e-11
-2.91588e-10
8.86368e-17
2.50297e-11
-2.8763e-10
9.16986e-17
2.27602e-11
-2.81539e-10
9.55914e-17
2.02521e-11
-2.72905e-10
9.32743e-17
1.75347e-11
-2.61455e-10
8.96429e-17
1.4648e-11
-2.46754e-10
8.22218e-17
1.16481e-11
-2.28157e-10
7.54226e-17
8.61535e-12
-2.04858e-10
6.77282e-17
5.66974e-12
-1.75792e-10
6.18905e-17
3.00263e-12
-1.39389e-10
5.60707e-17
9.37395e-13
-9.35022e-11
5.24563e-17
-3.52543e-11
5.16956e-17
7.87279e-15
-1.62916e-13
-3.81529e-17
3.28285e-14
-7.41722e-13
6.72543e-17
7.45194e-14
-1.60949e-12
9.05445e-16
9.87927e-14
-2.69345e-12
-1.00138e-15
2.68526e-13
-4.17768e-12
-6.05031e-16
4.20162e-13
-5.79571e-12
-2.17665e-15
6.57212e-13
-7.70886e-12
-2.31243e-15
1.25011e-12
-1.02327e-11
8.79596e-15
1.12489e-12
-1.18038e-11
-6.01805e-15
1.40821e-12
-1.494e-11
-2.90204e-15
1.73545e-12
-1.79959e-11
1.61631e-15
2.17661e-12
-2.14714e-11
9.16144e-16
2.65951e-12
-2.5186e-11
1.38476e-16
3.22256e-12
-2.93568e-11
-4.97801e-16
3.84477e-12
-3.38548e-11
-1.57705e-16
4.54227e-12
-3.87775e-11
1.50404e-16
5.30847e-12
-4.4103e-11
1.9805e-16
6.14869e-12
-4.98681e-11
-1.3121e-16
7.06655e-12
-5.60726e-11
2.05476e-16
8.06269e-12
-6.27299e-11
9.19396e-17
9.13751e-12
-6.98411e-11
3.4107e-16
1.02896e-11
-7.74152e-11
3.22706e-16
1.15156e-11
-8.54375e-11
3.84471e-16
1.2812e-11
-9.39125e-11
3.27025e-16
1.41738e-11
-1.02817e-10
3.47273e-16
1.55945e-11
-1.12139e-10
3.27083e-16
1.70657e-11
-1.21852e-10
3.4658e-16
1.85774e-11
-1.31911e-10
3.44252e-16
2.01175e-11
-1.42297e-10
3.56591e-16
2.16721e-11
-1.52937e-10
3.51688e-16
2.3225e-11
-1.6379e-10
3.43657e-16
2.47589e-11
-1.74788e-10
3.21143e-16
2.62545e-11
-1.85853e-10
2.97933e-16
2.76908e-11
-1.96907e-10
2.74982e-16
2.90459e-11
-2.0786e-10
2.52518e-16
3.02966e-11
-2.18623e-10
2.34138e-16
3.14194e-11
-2.29087e-10
2.14815e-16
3.23907e-11
-2.39154e-10
1.94887e-16
3.31868e-11
-2.4871e-10
1.73443e-16
3.37856e-11
-2.57585e-10
1.55723e-16
3.41651e-11
-2.65806e-10
1.31668e-16
3.43065e-11
-2.73085e-10
1.16329e-16
3.41922e-11
-2.79454e-10
1.01925e-16
3.38081e-11
-2.84674e-10
9.29405e-17
3.31432e-11
-2.88618e-10
8.73744e-17
3.21889e-11
-2.91346e-10
8.04317e-17
3.09424e-11
-2.92468e-10
7.81074e-17
2.94039e-11
-2.92029e-10
9.35052e-17
2.75789e-11
-2.89762e-10
1.00373e-16
2.54779e-11
-2.85527e-10
1.0183e-16
2.31163e-11
-2.79176e-10
1.04307e-16
2.05179e-11
-2.70305e-10
1.00399e-16
1.77142e-11
-2.5865e-10
9.53455e-17
1.47477e-11
-2.43786e-10
8.67847e-17
1.16782e-11
-2.25086e-10
7.92297e-17
8.59075e-12
-2.01769e-10
7.09587e-17
5.61225e-12
-1.72813e-10
6.48445e-17
2.94114e-12
-1.36717e-10
5.8711e-17
9.02307e-13
-9.14621e-11
5.51493e-17
-3.43509e-11
5.43837e-17
8.62234e-15
-1.71409e-13
-6.33055e-17
4.1774e-14
-7.75127e-13
1.61756e-16
1.26784e-13
-1.69697e-12
7.09659e-16
2.37275e-13
-2.79817e-12
-1.00451e-15
3.54918e-13
-4.27679e-12
-7.98524e-16
2.96887e-13
-5.73789e-12
2.44205e-16
7.72976e-14
-7.47121e-12
5.19025e-17
5.99654e-14
-1.02353e-11
8.05778e-15
1.28939e-13
-1.19377e-11
-5.13728e-15
9.90152e-13
-1.57502e-11
-1.19566e-16
1.59114e-12
-1.85857e-11
3.51627e-15
2.17028e-12
-2.20521e-11
-2.28052e-16
2.73291e-12
-2.57604e-11
-1.16642e-15