/*--------------------------------*- C++ -*----------------------------------*\
| =========                 |                                                 |
| \\      /  F ield         | OpenFOAM: The Open Source CFD Toolbox           |
|  \\    /   O peration     | Version:  v2012                                 |
|   \\  /    A nd           | Website:  www.openfoam.com                      |
|    \\/     M anipulation  |                                                 |
\*---------------------------------------------------------------------------*/
FoamFile
{
    version     2.0;
    format      ascii;
    class       surfaceScalarField;
    location    "0.75";
    object      alphaPhi0.water;
}
// * * * * * * * * * * * * * * * * * * * * * * * * * * * * * * * * * * * * * //

dimensions      [0 3 -1 0 0 0 0];
oriented        oriented;


internalField   nonuniform List<scalar> 
8212
(
4.18559e-12
-6.90508e-09
-1.05637e-15
3.60158e-11
-2.10761e-08
-1.85003e-15
1.55679e-10
-3.60813e-08
-3.89158e-15
9.8775e-11
-5.02475e-08
-1.42536e-14
4.35181e-10
-7.16233e-08
-4.77017e-15
9.93635e-10
-9.2227e-08
-3.46268e-15
1.50227e-09
-9.58228e-08
1.87275e-15
1.80452e-09
-7.78169e-08
5.5469e-15
1.71626e-09
-7.28654e-08
2.05335e-15
1.10387e-09
-6.48685e-08
-1.86305e-15
2.0793e-10
-2.59168e-08
-5.99448e-16
7.27113e-12
-2.71256e-09
-6.18837e-17
1.33147e-13
-7.80185e-11
-1.48204e-18
1.27685e-14
-2.66006e-12
-6.198e-20
2.87914e-15
-4.13651e-13
-1.01785e-20
2.52975e-16
-5.78612e-14
-1.28322e-21
3.45038e-18
-2.25716e-15
-4.5535e-23
1.13666e-20
-1.23134e-17
-2.34892e-25
5.50665e-23
-4.09501e-20
-6.71806e-28
2.37727e-25
-1.63979e-22
-2.48943e-30
7.69219e-28
-5.55374e-25
-8.10631e-33
1.92681e-30
-1.5283e-27
-2.16515e-35
3.74134e-33
-3.39927e-30
-4.75269e-38
5.51605e-36
-6.00654e-33
-8.34006e-41
5.92008e-39
-8.18043e-36
-1.12035e-43
4.28739e-42
-8.18066e-39
-1.11075e-46
1.8013e-45
-5.52894e-42
-7.51841e-50
2.85908e-49
-2.13498e-45
-2.95414e-53
-6.69606e-105
-2.7568e-49
-4.19471e-57
-1.63305e-108
-1.01485e-101
-1.08452e-109
-2.95806e-112
-5.65635e-106
-7.27323e-114
-1.0632e-117
-5.78136e-110
-6.50907e-118
-5.99511e-117
-1.19159e-115
-1.64446e-123
-1.82252e-113
-8.2626e-122
-3.55191e-121
-1.91146e-110
-1.59698e-124
-3.83632e-118
-1.80996e-107
-2.32812e-122
-3.80349e-115
-1.59305e-104
-1.60414e-120
-3.5888e-112
-1.32799e-101
-4.38014e-119
-4.63267e-109
-9.6678e-116
-5.75554e-106
6.14039e-12
-6.91123e-09
1.41753e-16
3.92552e-11
-2.11093e-08
-2.6234e-15
1.87362e-10
-3.62295e-08
-4.83815e-15
3.59703e-11
-5.00961e-08
-1.46138e-14
4.75169e-10
-7.20625e-08
-6.31486e-15
1.19286e-09
-9.29446e-08
-8.58879e-15
1.73394e-09
-9.63639e-08
-4.55548e-15
2.02829e-09
-7.81112e-08
-6.17748e-15
1.83925e-09
-7.28266e-08
-1.74035e-15
1.18994e-09
-6.5534e-08
-1.99436e-15
2.31614e-10
-2.66422e-08
-7.11053e-16
8.238e-12
-2.83324e-09
-6.43465e-17
1.325e-13
-8.11046e-11
-1.76209e-18
8.7704e-15
-2.35758e-12
-4.26537e-20
1.73077e-15
-3.18794e-13
-5.92409e-21
1.63345e-16
-4.3947e-14
-7.02578e-22
2.30426e-18
-1.73215e-15
-2.78769e-23
8.80336e-21
-9.4007e-18
-1.36245e-25
4.7253e-23
-3.25409e-20
-4.67322e-28
2.17935e-25
-1.42626e-22
-2.11927e-30
7.28882e-28
-5.19415e-25
-7.57903e-33
1.86026e-30
-1.49538e-27
-2.09489e-35
3.65259e-33
-3.42902e-30
-4.66787e-38
5.41997e-36
-6.18013e-33
-8.1522e-41
5.83298e-39
-8.49684e-36
-1.09118e-43
4.21621e-42
-8.47129e-39
-1.07231e-46
1.7503e-45
-5.6017e-42
-7.06324e-50
2.64112e-49
-2.03583e-45
-2.61221e-53
-1.11993e-104
-2.05117e-49
-3.02534e-57
-1.81066e-108
-1.24183e-101
-1.33795e-109
-3.28441e-112
-5.64445e-106
-6.93459e-114
-9.82814e-118
-5.782e-110
-6.83675e-118
-9.08513e-124
-1.12203e-115
-1.36332e-123
-1.73532e-126
-7.05256e-122
-8.6812e-130
-1.54615e-124
-8.04553e-129
-5.76245e-130
-2.17139e-122
-7.3819e-138
-5.51663e-127
-1.56434e-120
-8.02705e-142
-5.02727e-124
-4.39565e-119
-7.6384e-139
-4.49046e-121
-1.34861e-137
-8.05446e-118
6.49599e-12
-6.91773e-09
1.84811e-16
3.09189e-11
-2.11337e-08
-5.31423e-15
1.28974e-10
-3.63275e-08
-1.03811e-14
3.11211e-11
-4.99983e-08
-9.01123e-15
4.96398e-10
-7.25278e-08
-3.94506e-15
1.21019e-09
-9.36584e-08
-6.85728e-15
1.67344e-09
-9.68271e-08
-7.87403e-15
2.0743e-09
-7.85121e-08
-9.77962e-15
1.98088e-09
-7.28767e-08
-1.56037e-15
1.29993e-09
-6.61767e-08
-1.6966e-15
2.55353e-10
-2.73445e-08
-6.78048e-16
9.0814e-12
-2.95203e-09
-6.44242e-17
1.37545e-13
-8.42393e-11
-1.7883e-18
7.41271e-15
-2.12122e-12
-4.20524e-20
1.34306e-15
-2.4434e-13
-5.06152e-21
1.30571e-16
-3.29913e-14
-5.73978e-22
1.88122e-18
-1.31386e-15
-2.38905e-23
6.87288e-21
-7.13708e-18
-1.12734e-25
3.99428e-23
-2.60256e-20
-4.12511e-28
1.95497e-25
-1.24512e-22
-1.81595e-30
6.77519e-28
-4.80103e-25
-6.65326e-33
1.77125e-30
-1.4267e-27
-1.90093e-35
3.53225e-33
-3.33437e-30
-4.40848e-38
5.27887e-36
-6.06598e-33
-7.9081e-41
5.66378e-39
-8.33294e-36
-1.07515e-43
4.02276e-42
-8.18867e-39
-1.05173e-46
1.59829e-45
-5.21473e-42
-6.77452e-50
2.12962e-49
-1.7252e-45
-2.34443e-53
-1.82177e-104
-1.02362e-49
-2.03338e-57
-2.03542e-108
-1.57549e-101
-1.95686e-109
-3.57389e-112
-5.62629e-106
-7.04384e-114
-9.80538e-118
-5.75372e-110
-6.88912e-118
-8.44213e-124
-1.01968e-115
-1.27911e-123
-1.25397e-130
-6.38139e-122
-7.55703e-130
-1.60008e-139
-7.37452e-129
-9.31572e-137
-1.44062e-144
-7.11604e-138
-9.38784e-146
-7.59576e-142
-4.434e-143
-8.37015e-148
-7.38197e-139
-2.64597e-140
-7.02156e-145
-1.14396e-137
-5.29064e-145
8.54112e-12
-6.92628e-09
-2.95151e-16
3.93075e-11
-2.11645e-08
-1.28433e-15
1.04878e-10
-3.63931e-08
-5.92807e-15
2.95162e-11
-4.99229e-08
-1.27049e-14
5.79217e-10
-7.30775e-08
-2.98774e-15
1.34508e-09
-9.44243e-08
-9.31698e-15
1.72595e-09
-9.72079e-08
-9.83869e-15
2.14688e-09
-7.89331e-08
-8.15494e-15
2.06426e-09
-7.29297e-08
-2.81952e-15
1.38407e-09
-6.68316e-08
-1.4654e-15
2.78418e-10
-2.80618e-08
-5.92458e-16
1.00114e-11
-3.07378e-09
-6.17704e-17
1.44231e-13
-8.7527e-11
-1.65037e-18
6.19014e-15
-1.9484e-12
-3.699e-20
1.00158e-15
-1.88661e-13
-3.70966e-21
1.00249e-16
-2.47783e-14
-4.26076e-22
1.48488e-18
-9.96181e-16
-1.86526e-23
5.51018e-21
-5.48076e-18
-8.5912e-26
3.48859e-23
-2.08487e-20
-3.39958e-28
1.7949e-25
-1.0782e-22
-1.68073e-30
6.384e-28
-4.33591e-25
-6.42881e-33
1.69347e-30
-1.31526e-27
-1.85829e-35
3.39691e-33
-3.10556e-30
-4.32252e-38
5.06129e-36
-5.65694e-33
-7.71905e-41
5.35245e-39
-7.69642e-36
-1.03765e-43
3.67798e-42
-7.36786e-39
-9.90048e-47
1.35614e-45
-4.43105e-42
-6.06951e-50
1.42122e-49
-1.27058e-45
-1.87397e-53
-3.07665e-104
8.31187e-63
-8.49953e-58
-2.34927e-108
-1.74115e-101
-2.06981e-109
-3.93087e-112
-5.58018e-106
-6.96961e-114
-9.66432e-118
-5.58353e-110
-6.85789e-118
-8.54974e-124
-9.12738e-116
-1.16027e-123
-1.26677e-130
-6.14095e-122
-7.06309e-130
-1.66804e-139
-6.50806e-129
-8.56203e-137
-5.87336e-145
-7.1081e-138
-9.01795e-146
-4.4927e-143
-1.05404e-148
-2.25604e-149
-2.90995e-140
-6.51043e-147
-8.84025e-147
-1.80535e-145
-1.11208e-143
9.24152e-12
-6.93553e-09
1.00014e-15
3.83978e-11
-2.11936e-08
-7.66783e-15
5.18292e-11
-3.64065e-08
-1.04992e-14
2.13918e-11
-4.98925e-08
-1.14596e-14
6.62871e-10
-7.3719e-08
-1.92993e-15
1.42328e-09
-9.51847e-08
-9.30611e-15
1.68676e-09
-9.74714e-08
-1.0046e-14
2.17542e-09
-7.94218e-08
-5.5908e-15
2.13e-09
-7.3012e-08
-1.10665e-15
1.45329e-09
-6.75009e-08
-1.15242e-15
2.98909e-10
-2.8809e-08
-5.07612e-16
1.08623e-11
-3.20218e-09
-5.81161e-17
1.50602e-13
-9.10889e-11
-1.60411e-18
5.23955e-15
-1.82913e-12
-3.31557e-20
7.4935e-16
-1.46626e-13
-2.84997e-21
7.66128e-17
-1.85786e-14
-3.35398e-22
1.17305e-18
-7.54397e-16
-1.49433e-23
4.43515e-21
-4.26634e-18
-6.95128e-26
3.10658e-23
-1.6711e-20
-2.8793e-28
1.68739e-25
-9.15881e-23
-1.50932e-30
6.1425e-28
-3.76077e-25
-5.95353e-33
1.64549e-30
-1.14675e-27
-1.73303e-35
3.30138e-33
-2.70366e-30
-4.01814e-38
4.86933e-36
-4.88107e-33
-7.1111e-41
5.02271e-39
-6.50576e-36
-9.3923e-44
3.27723e-42
-5.97805e-39
-8.66702e-47
1.07147e-45
-3.3062e-42
-4.97543e-50
1.93146e-67
-7.57312e-46
-1.30498e-53
-4.6363e-104
-1.45437e-97
9.46617e-71
-2.73411e-108
-2.11427e-101
-3.40942e-109
-4.23521e-112
-5.50605e-106
-6.87433e-114
-9.57835e-118
-5.21361e-110
-6.59493e-118
-9.21244e-124
-8.05702e-116
-1.0447e-123
-1.19837e-130
-6.12638e-122
-6.94305e-130
-1.85647e-139
-5.63298e-129
-7.44518e-137
-3.32273e-150
-7.6422e-138
-9.22976e-146
-1.77392e-149
-9.56025e-149
-3.53542e-155
-6.05355e-147
-2.67618e-162
-1.52298e-152
-2.90866e-162
-1.62584e-149
1.0368e-11
-6.9459e-09
-2.94198e-17
4.08811e-11
-2.12241e-08
-3.16812e-15
9.98244e-12
-3.63756e-08
-1.10638e-14
3.1272e-11
-4.99137e-08
-8.7715e-15
7.72214e-10
-7.44599e-08
-1.97248e-15
1.47546e-09
-9.58879e-08
-9.17458e-15
1.60955e-09
-9.76055e-08
-6.55194e-15
2.17319e-09
-7.99855e-08
-5.85577e-15
2.15986e-09
-7.31184e-08
-1.94096e-15
1.50255e-09
-6.82001e-08
-1.19805e-15
3.16973e-10
-2.96098e-08
-4.87312e-16
1.16758e-11
-3.34233e-09
-5.71037e-17
1.573e-13
-9.5116e-11
-1.64408e-18
4.49181e-15
-1.76085e-12
-3.05249e-20
5.56807e-16
-1.15058e-13
-2.26224e-21
5.76824e-17
-1.39321e-14
-2.5983e-22
9.19944e-19
-5.72304e-16
-1.18859e-23
3.59523e-21
-3.37878e-18
-5.77417e-26
2.83089e-23
-1.33723e-20
-2.42598e-28
1.56985e-25
-7.52869e-23
-1.27164e-30
5.66546e-28
-3.10756e-25
-5.01286e-33
1.49818e-30
-9.47805e-28
-1.46806e-35
2.95513e-33
-2.22389e-30
-3.40508e-38
4.2494e-36
-3.96099e-33
-5.97648e-41
4.20398e-39
-5.13231e-36
-7.70401e-44
2.54081e-42
-4.46232e-39
-6.77671e-47
6.94326e-46
-2.19599e-42
-3.53226e-50
-8.05372e-101
-3.43278e-46
-7.13985e-54
-6.93739e-104
-1.46498e-97
-1.3014e-105
-3.19077e-108
-2.36888e-101
-3.5095e-109
-4.45129e-112
-5.41341e-106
-6.76935e-114
-9.45866e-118
-4.72613e-110
-6.14372e-118
-1.03145e-123
-7.05084e-116
-9.28845e-124
-1.15359e-130
-6.40071e-122
-7.02132e-130
-2.44111e-139
-4.89051e-129
-6.51537e-137
-3.56931e-150
-1.00759e-137
-1.08788e-145
-1.3625e-163
-1.03828e-148
-1.31974e-156
-2.18216e-163
-2.55142e-162
-2.7102e-169
-6.24779e-165
-2.28698e-168
1.11723e-11
-6.95708e-09
7.93251e-16
4.04858e-11
-2.12534e-08
-7.05552e-15
-3.54257e-11
-3.62997e-08
-1.37911e-14
3.32667e-11
-4.99824e-08
-4.72281e-15
8.5141e-10
-7.5278e-08
1.13994e-15
1.43966e-09
-9.64762e-08
-8.40899e-15
1.47304e-09
-9.76389e-08
2.29281e-15
2.14581e-09
-8.06583e-08
-3.57424e-15
2.17582e-09
-7.32598e-08
-2.0232e-15
1.54065e-09
-6.89302e-08
-1.3241e-15
3.33319e-10
-3.04795e-08
-5.26342e-16
1.24476e-11
-3.49925e-09
-6.25134e-17
1.6394e-13
-9.98366e-11
-1.83774e-18
3.9049e-15
-1.72531e-12
-3.16676e-20
4.11396e-16
-9.13464e-14
-1.92096e-21
4.27658e-17
-1.04595e-14
-2.04536e-22
7.17245e-19
-4.36087e-16
-9.51266e-24
2.90105e-21
-2.72178e-18
-4.8271e-26
2.3621e-23
-1.068e-20
-2.01347e-28
1.32483e-25
-6.09212e-23
-1.1023e-30
4.79108e-28
-2.50568e-25
-4.36612e-33
1.26082e-30
-7.57003e-28
-1.26386e-35
2.45286e-33
-1.74855e-30
-2.87244e-38
3.432e-36
-3.03368e-33
-4.91605e-41
3.22678e-39
-3.75851e-36
-6.09401e-44
1.76116e-42
-3.01334e-39
-5.0206e-47
3.64782e-46
-1.24603e-42
-2.29388e-50
-1.92672e-100
-7.72812e-47
-2.99907e-54
-9.91429e-104
-1.46941e-97
-1.35387e-105
-3.71737e-108
-2.62456e-101
-4.01729e-109
-4.58302e-112
-5.30916e-106
-6.64392e-114
-9.34877e-118
-4.18905e-110
-5.58763e-118
-1.3464e-123
-6.16359e-116
-8.22312e-124
-1.12772e-130
-8.49126e-122
-7.92568e-130
-3.66174e-139
-4.35049e-129
-5.77808e-137
-4.58135e-150
-1.3477e-137
-1.45586e-145
-1.44694e-163
-1.1843e-148
-1.54847e-156
-5.24895e-166
-2.68775e-162
-1.12646e-169
-6.85079e-169
-9.50751e-169
1.19963e-11
-6.96909e-09
1.94323e-16
4.25409e-11
-2.1284e-08
-1.55512e-15
-6.95717e-11
-3.61876e-08
-1.59889e-14
3.15727e-11
-5.00836e-08
-6.88774e-15
8.77959e-10
-7.61244e-08
1.46963e-16
1.31445e-09
-9.69127e-08
-8.73178e-15
1.30837e-09
-9.76328e-08
4.95356e-15
2.09948e-09
-8.14494e-08
-3.03871e-15
2.17168e-09
-7.34344e-08
-2.26876e-15
1.56654e-09
-6.96963e-08
-1.53087e-15
3.48285e-10
-3.1435e-08
-6.04841e-16
1.32118e-11
-3.67833e-09
-7.3178e-17
1.70845e-13
-1.05459e-10
-2.08859e-18
3.44715e-15
-1.72735e-12
-3.42447e-20
3.03746e-16
-7.35192e-14
-1.67027e-21
3.1288e-17
-7.87179e-15
-1.62944e-22
5.5781e-19
-3.34686e-16
-7.78082e-24
2.35107e-21
-2.22228e-18
-4.17742e-26
1.9566e-23
-8.4905e-21
-1.70166e-28
1.10108e-25
-4.82831e-23
-9.25052e-31
3.95246e-28
-1.95458e-25
-3.61196e-33
1.02433e-30
-5.77226e-28
-1.02956e-35
1.9419e-33
-1.29352e-30
-2.28504e-38
2.60292e-36
-2.14897e-33
-3.78103e-41
2.27046e-39
-2.48889e-36
-4.43674e-44
1.0635e-42
-1.7734e-39
-3.32992e-47
9.28286e-47
-5.5829e-43
-1.25168e-50
-3.20518e-100
-9.95735e-75
-6.0046e-55
-1.37683e-103
-1.4695e-97
-1.39155e-105
-4.31308e-108
-2.85561e-101
-4.49069e-109
-4.6289e-112
-5.19943e-106
-6.512e-114
-9.29837e-118
-3.64135e-110
-4.98317e-118
-2.23961e-123
-5.43962e-116
-7.30964e-124
-1.14283e-130
-1.33955e-121
-1.13655e-129
-5.14711e-139
-4.04071e-129
-5.3172e-137
-5.60664e-150
-1.60105e-137
-1.83817e-145
-1.69845e-163
-1.24705e-148
-1.73197e-156
-6.43682e-170
-2.84945e-162
-4.35102e-170
-9.01877e-174
-7.19453e-173
1.26529e-11
-6.98174e-09
2.75649e-16
4.49916e-11
-2.13163e-08
-5.54811e-15
-9.94005e-11
-3.60433e-08
-1.84362e-14
6.35222e-12
-5.01893e-08
-1.76562e-15
8.15165e-10
-7.69332e-08
1.87353e-15
1.10893e-09
-9.72064e-08
-5.59598e-15
1.1511e-09
-9.7675e-08
4.80394e-15
2.05431e-09
-8.23527e-08
-3.29714e-15
2.15852e-09
-7.36316e-08
-4.20696e-15
1.58399e-09
-7.04942e-08
-2.10176e-15
3.62294e-10
-3.24886e-08
-8.20111e-16
1.39808e-11
-3.88519e-09
-9.36984e-17
1.78129e-13
-1.12205e-10
-2.65304e-18
3.10049e-15
-1.75441e-12
-4.0905e-20
2.23966e-16
-6.01377e-14
-1.55429e-21
2.26091e-17
-5.94842e-15
-1.37907e-22
4.33378e-19
-2.59327e-16
-6.57728e-24
1.90997e-21
-1.82893e-18
-3.71331e-26
1.59588e-23
-6.69856e-21
-1.44322e-28
8.88128e-26
-3.73549e-23
-7.6949e-31
3.12242e-28
-1.46824e-25
-2.91381e-33
7.85867e-31
-4.17543e-28
-8.02115e-36
1.4287e-33
-8.924e-31
-1.7071e-38
1.79645e-36
-1.39025e-33
-2.67644e-41
1.40527e-39
-1.46172e-36
-2.90227e-44
5.19819e-43
-8.77169e-40
-1.90915e-47
-4.64657e-78
-1.70082e-43
-5.31054e-51
-4.63627e-100
-5.66286e-92
-7.26603e-83
-1.84567e-103
-1.45018e-97
-1.43686e-105
-4.97846e-108
-3.05556e-101
-4.91845e-109
-4.58529e-112
-5.09071e-106
-6.37919e-114
-9.397e-118
-3.10965e-110
-4.36429e-118
-3.88517e-123
-4.91002e-116
-6.60151e-124
-1.21052e-130
-2.0024e-121
-1.76994e-129
-6.45865e-139
-3.93069e-129
-5.12496e-137
-6.41124e-150
-1.70862e-137
-2.08423e-145
-2.00388e-163
-1.2436e-148
-1.81072e-156
-9.45304e-175
-3.04134e-162
-4.70316e-170
-9.93256e-174
-1.83777e-181
1.32507e-11
-6.995e-09
4.90069e-16
4.83902e-11
-2.13515e-08
-6.94528e-16
-1.2644e-10
-3.58684e-08
-1.8534e-14
-5.00839e-11
-5.02657e-08
-5.92652e-16
6.62133e-10
-7.76454e-08
-1.94829e-15
8.7253e-10
-9.74168e-08
-1.22631e-14
1.04302e-09
-9.78454e-08
6.31979e-15
2.02147e-09
-8.33312e-08
-5.78352e-15
2.13502e-09
-7.3828e-08
-1.52212e-15
1.59161e-09
-7.13178e-08
-2.60016e-15
3.7523e-10
-3.36532e-08
-1.10516e-15
1.47686e-11
-4.12638e-09
-1.21552e-16
1.85689e-13
-1.20375e-10
-3.45529e-18
2.83097e-15
-1.80351e-12
-4.98019e-20
1.65844e-16
-5.02094e-14
-1.48175e-21
1.61746e-17
-4.52225e-15
-1.20459e-22
3.36942e-19
-2.03124e-16
-5.68982e-24
1.55774e-21
-1.50752e-18
-3.38418e-26
1.28698e-23
-5.22171e-21
-1.22537e-28
6.96258e-26
-2.80264e-23
-6.27075e-31
2.35741e-28
-1.05287e-25
-2.27095e-33
5.66214e-31
-2.83543e-28
-5.95183e-36
9.67133e-34
-5.66868e-31
-1.19293e-38
1.10914e-36
-8.07675e-34
-1.73378e-41
7.40065e-40
-7.41855e-37
-1.68442e-44
1.83737e-43
-3.44287e-40
-9.17368e-48
-1.39441e-94
-1.59385e-44
-1.49929e-51
-6.32459e-100
-1.95354e-94
-8.37107e-91
-2.39538e-103
-1.43475e-97
-1.47373e-105
-5.71727e-108
-3.21195e-101
-5.28352e-109
-4.45615e-112
-4.98979e-106
-6.26098e-114
-9.75347e-118
-2.61441e-110
-3.76079e-118
-6.09399e-123
-4.5859e-116
-6.13323e-124
-1.32729e-130
-2.6464e-121
-2.54321e-129
-7.4596e-139
-3.91928e-129
-5.1179e-137
-7.09203e-150
-1.7177e-137
-2.18773e-145
-2.37507e-163
-1.22129e-148
-1.83454e-156
-1.15784e-174
-3.27011e-162
-5.11886e-170
-1.10576e-173
-2.07542e-181
1.37191e-11
-7.00872e-09
-1.74228e-16
5.05401e-11
-2.13883e-08
-2.77629e-15
-1.58829e-10
-3.56591e-08
-2.02912e-14
-1.49156e-10
-5.02753e-08
1.13777e-15
4.40519e-10
-7.82351e-08
-2.07897e-15
6.61256e-10
-9.76376e-08
-8.62076e-15
1.00339e-09
-9.81876e-08
5.58064e-15
2.00167e-09
-8.43295e-08
-4.96288e-15
2.10434e-09
-7.4003e-08
-2.57189e-15
1.58932e-09
-7.21562e-08
-3.32064e-15
3.86893e-10
-3.49401e-08
-1.44709e-15
1.55795e-11
-4.4097e-09
-1.64441e-16
1.937e-13
-1.30412e-10
-4.51155e-18
2.63039e-15
-1.88832e-12
-6.15536e-20
1.23658e-16
-4.30763e-14
-1.43568e-21
1.14602e-17
-3.46642e-15
-1.04979e-22
2.61865e-19
-1.60818e-16
-4.92596e-24
1.2675e-21
-1.23756e-18
-3.04844e-26
1.01972e-23
-4.00557e-21
-1.01738e-28
5.22992e-26
-2.02553e-23
-4.91278e-31
1.67039e-28
-7.17586e-26
-1.67861e-33
3.75082e-31
-1.80223e-28
-4.11717e-36
5.87281e-34
-3.3032e-31
-7.6243e-39
5.92375e-37
-4.18046e-34
-1.00131e-41
3.12441e-40
-3.18353e-37
-8.38171e-45
1.78124e-44
-9.7183e-41
-3.45411e-48
-1.06037e-97
-7.03996e-78
-1.28415e-52
-8.15662e-100
-1.99778e-94
-8.40524e-103
-3.00977e-103
-1.41454e-97
-1.5272e-105
-6.53758e-108
-3.30958e-101
-5.55053e-109
-4.256e-112
-4.90338e-106
-6.16485e-114
-1.04622e-117
-2.1711e-110
-3.19587e-118
-8.47932e-123
-4.44424e-116
-5.90499e-124
-1.50005e-130
-3.11526e-121
-3.26294e-129
-8.28492e-139
-4.20507e-129
-5.31247e-137
-7.51277e-150
-1.69996e-137
-2.2196e-145
-2.82833e-163
-1.12728e-148
-1.78407e-156
-1.42894e-174
-3.54411e-162
-5.61203e-170
-1.24524e-173
-2.36811e-181
1.41116e-11
-7.02284e-09
5.26647e-16
5.09727e-11
-2.14252e-08
-6.1429e-16
-2.01606e-10
-3.54065e-08
-1.63157e-14
-2.87334e-10
-5.01896e-08
-6.7196e-16
2.00844e-10
-7.87233e-08
-4.65467e-15
5.22883e-10
-9.79596e-08
-5.51939e-15
1.02251e-09
-9.86872e-08
-2.13624e-15
1.97588e-09
-8.5283e-08
-1.26772e-14
2.06291e-09
-7.4152e-08
-1.16245e-15
1.57469e-09
-7.29993e-08
-4.31115e-15
3.96716e-10
-3.63624e-08
-1.91872e-15
1.64149e-11
-4.74499e-09
-2.19254e-16
2.02543e-13
-1.42947e-10
-6.07138e-18
2.49779e-15
-2.02156e-12
-7.70721e-20
9.33225e-17
-3.83642e-14
-1.44771e-21
8.03591e-18
-2.68404e-15
-9.24242e-23
2.02919e-19
-1.28502e-16
-4.30059e-24
1.02208e-21
-1.00783e-18
-2.73222e-26
7.71484e-24
-3.01296e-21
-8.31165e-29
3.71674e-26
-1.41379e-23
-3.69587e-31
1.10578e-28
-4.64983e-26
-1.17405e-33
2.27884e-31
-1.06864e-28
-2.65859e-36
3.18211e-34
-1.75126e-31
-4.46456e-39
2.68897e-37
-1.89386e-34
-5.15131e-42
9.77523e-41
-1.10151e-37
-3.52218e-45
-5.96895e-81
-1.34916e-41
-9.25796e-49
-1.52417e-96
-2.53578e-90
-5.08638e-86
-1.0189e-99
-3.34553e-94
-5.38172e-102
-3.6632e-103
-1.39289e-97
-1.57626e-105
-7.45243e-108
-3.342e-101
-5.71196e-109
-4.01013e-112
-4.83793e-106
-6.11989e-114
-1.15404e-117
-1.79086e-110
-2.69009e-118
-1.06463e-122
-4.42471e-116
-5.86611e-124
-2.0002e-130
-3.34569e-121
-3.7835e-129
-8.93632e-139
-5.62516e-129
-6.65518e-137
-7.55572e-150
-1.61002e-137
-2.18745e-145
-3.38543e-163
-1.01664e-148
-1.65079e-156
-1.77822e-174
-3.874e-162
-6.20086e-170
-1.41951e-173
-2.73209e-181
1.43668e-11
-7.03721e-09
-6.74145e-16
4.90898e-11
-2.14599e-08
-2.42047e-15
-2.59776e-10
-3.50976e-08
-1.59989e-14
-4.47293e-10
-5.0002e-08
-1.39452e-15
5.85121e-12
-7.91764e-08
-5.15628e-15
4.79994e-10
-9.84337e-08
-3.86738e-15
1.06749e-09
-9.92747e-08
1.33159e-15
1.91658e-09
-8.61321e-08
-9.3287e-15
2.00738e-09
-7.42948e-08
9.70497e-16
1.54605e-09
-7.38387e-08
-5.04916e-15
4.04099e-10
-3.79342e-08
-2.38821e-15
1.72735e-11
-5.1446e-09
-2.8498e-16
2.12589e-13
-1.58843e-10
-7.85756e-18
2.43099e-15
-2.21819e-12
-9.62528e-20
7.17755e-17
-3.60879e-14
-1.48579e-21
5.5615e-18
-2.10166e-15
-8.01445e-23
1.56123e-19
-1.0339e-16
-3.72893e-24
8.10853e-22
-8.12051e-19
-2.38451e-26
5.64511e-24
-2.21673e-21
-6.55434e-29
2.51237e-26
-9.50765e-24
-2.68997e-31
6.83173e-29
-2.85468e-26
-7.84853e-34
1.26106e-31
-5.87804e-29
-1.60615e-36
1.51351e-34
-8.35629e-32
-2.38073e-39
9.93937e-38
-7.31848e-35
-2.31573e-42
1.48457e-41
-2.78818e-38
-1.18637e-45
-1.20133e-93
1.12755e-47
-1.20209e-49
-1.79846e-96
-3.31367e-90
-7.55558e-99
-1.23904e-99
-3.3945e-94
-5.39239e-102
-4.3374e-103
-1.37028e-97
-1.6275e-105
-8.47862e-108
-3.33032e-101
-5.79802e-109
-3.75457e-112
-4.79748e-106
-6.13046e-114
-1.29275e-117
-1.48147e-110
-2.25946e-118
-1.23935e-122
-4.51962e-116
-5.93561e-124
-3.13127e-130
-3.38939e-121
-4.05908e-129
-9.14344e-139
-8.05266e-129
-9.75837e-137
-7.63849e-150
-1.46192e-137
-2.04757e-145
-4.07552e-163
-9.51174e-149
-1.53936e-156
-2.23325e-174
-4.27341e-162
-6.9084e-170
-1.63912e-173
-3.18907e-181
1.45071e-11
-7.05172e-09
-1.3515e-16
4.57845e-11
-2.14912e-08
-1.04324e-15
-3.31279e-10
-3.47206e-08
-1.25011e-14
-5.87581e-10
-4.97457e-08
-7.92749e-16
-7.49853e-11
-7.9689e-08
-6.23935e-15
5.37526e-10
-9.90462e-08
-2.31045e-15
1.10095e-09
-9.98382e-08
1.97935e-15
1.80145e-09
-8.68325e-08
-5.6671e-15
1.93363e-09
-7.44692e-08
-7.72277e-15
1.50208e-09
-7.46697e-08
-6.41581e-15
4.08454e-10
-3.96707e-08
-2.83646e-15
1.8156e-11
-5.62388e-09
-3.57048e-16
2.24287e-13
-1.79264e-10
-1.01115e-17
2.42517e-15
-2.49618e-12
-1.21495e-19
5.66334e-17
-3.5527e-14
-1.59553e-21
3.79862e-18
-1.6657e-15
-7.00186e-23
1.18779e-19
-8.35839e-17
-3.24581e-24
6.29041e-22
-6.46476e-19
-2.06069e-26
3.97439e-24
-1.59318e-21
-5.06836e-29
1.60698e-26
-6.15593e-24
-1.86025e-31
3.91377e-29
-1.65781e-26
-4.88985e-34
6.2877e-32
-2.98569e-29
-8.88052e-37
6.17016e-35
-3.54255e-32
-1.13017e-39
2.75487e-38
-2.31151e-35
-8.79114e-43
6.05982e-51
-3.71723e-39
-2.87608e-46
-1.19685e-92
-5.23524e-85
1.75113e-55
-2.41306e-96
-3.36446e-90
-4.96488e-98
-1.4759e-99
-3.4552e-94
-5.61659e-102
-5.04401e-103
-1.34762e-97
-1.67893e-105
-9.62809e-108
-3.30804e-101
-5.83742e-109
-3.53572e-112
-4.7772e-106
-6.16144e-114
-1.57821e-117
-1.24794e-110
-1.91678e-118
-1.38306e-122
-5.35062e-116
-6.55948e-124
-4.77616e-130
-3.36782e-121
-4.15497e-129
-9.16608e-139
-1.0677e-128
-1.37706e-136
-8.03856e-150
-1.33618e-137
-1.88209e-145
-4.9378e-163
-9.39944e-149
-1.49742e-156
-2.83306e-174
-4.75999e-162
-7.76452e-170
-1.91857e-173
-3.76867e-181
1.4502e-11
-7.06623e-09
-9.14912e-16
4.27055e-11
-2.15194e-08
-6.0866e-16
-4.02878e-10
-3.4275e-08
-1.0721e-14
-6.42477e-10
-4.95061e-08
9.51062e-16
2.28787e-11
-8.03544e-08
-6.83654e-15
6.88764e-10
-9.97121e-08
-1.76823e-15
1.08994e-09
-1.00239e-07
2.98272e-15
1.62373e-09
-8.73663e-08
-5.47441e-15
1.84129e-09
-7.47175e-08
-6.20902e-15
1.44356e-09
-7.54894e-08
-6.77659e-15
4.09511e-10
-4.1586e-08
-3.34582e-15
1.90705e-11
-6.20125e-09
-4.38853e-16
2.38191e-13
-2.05777e-10
-1.27607e-17
2.46556e-15
-2.88159e-12
-1.50956e-19
4.55996e-17
-3.59733e-14
-1.71412e-21
2.59739e-18
-1.33995e-15
-5.99357e-23
8.90607e-20
-6.77928e-17
-2.76284e-24
4.75026e-22
-5.08292e-19
-1.71493e-26
2.68823e-24
-1.11879e-21
-3.76525e-29
9.70997e-27
-3.83815e-24
-1.24364e-31
2.07058e-29
-9.09758e-27
-2.91212e-34
2.79293e-32
-1.39301e-29
-4.57847e-37
2.07785e-35
-1.30777e-32
-4.79938e-40
4.03982e-39
-5.42751e-36
-2.72902e-43
-1.03156e-87
3.01893e-45
-3.63188e-47
-1.77344e-92
-5.2387e-85
-8.2842e-93
-3.08859e-96
-3.41709e-90
-5.93028e-98
-1.7293e-99
-3.52471e-94
-5.79096e-102
-5.7609e-103
-1.32588e-97
-1.73213e-105
-1.09207e-107
-3.24497e-101
-5.79281e-109
-3.40775e-112
-4.80482e-106
-6.21325e-114
-2.24771e-117
-1.09187e-110
-1.67078e-118
-1.51386e-122
-7.15414e-116
-8.52228e-124
-6.62918e-130
-3.28073e-121
-4.1767e-129
-9.37762e-139
-1.28505e-128
-1.75569e-136
-8.73193e-150
-1.26893e-137
-1.76902e-145
-6.0253e-163
-9.65762e-149
-1.50701e-156
-3.6336e-174
-5.35681e-162
-8.80834e-170
-2.27795e-173
-4.5119e-181
1.44147e-11
-7.08064e-09
-4.02817e-16
4.25334e-11
-2.15475e-08
-2.65498e-15
-4.47544e-10
-3.3785e-08
-6.56065e-15
-5.33e-10
-4.94206e-08
2.95778e-15
3.37953e-10
-8.12253e-08
-9.83898e-15
9.09047e-10
-1.00283e-07
-4.97858e-15
1.00384e-09
-1.00334e-07
5.39753e-15
1.39295e-09
-8.77553e-08
-1.83625e-15
1.73424e-09
-7.50709e-08
-4.12802e-15
1.37368e-09
-7.62977e-08
-6.80475e-15
4.07516e-10
-4.36905e-08
-3.93762e-15
2.00425e-11
-6.89804e-09
-5.44169e-16
2.55167e-13
-2.40457e-10
-1.63554e-17
2.55783e-15
-3.41412e-12
-1.96785e-19
3.78323e-17
-3.80648e-14
-1.95315e-21
1.7831e-18
-1.10071e-15
-5.40826e-23
6.56017e-20
-5.50981e-17
-2.36562e-24
3.48689e-22
-3.94489e-19
-1.41172e-26
1.74601e-24
-7.68676e-22
-2.72248e-29
5.52802e-27
-2.30848e-24
-7.88787e-32
1.00546e-29
-4.72774e-27
-1.61129e-34
1.08511e-32
-5.94746e-30
-2.13089e-37
5.34454e-36
-4.06824e-33
-1.74295e-40
1.4068e-48
-6.74544e-37
-6.14657e-44
-1.84925e-87
-2.62573e-80
5.06707e-53
-2.40149e-92
-5.26934e-85
-1.08894e-92
-3.86333e-96
-3.47317e-90
-6.07726e-98
-2.00015e-99
-3.60368e-94
-5.97275e-102
-6.43844e-103
-1.30608e-97
-1.78413e-105
-1.2541e-107
-3.14039e-101
-5.65593e-109
-3.42308e-112
-4.9024e-106
-6.37889e-114
-3.36501e-117
-1.00906e-110
-1.52224e-118
-1.59038e-122
-9.56931e-116
-1.17167e-123
-8.38763e-130
-3.04339e-121
-4.06792e-129
-9.94249e-139
-1.41709e-128
-2.03276e-136
-1.11756e-149
-1.25746e-137
-1.72854e-145
-7.41038e-163
-1.3573e-148
-1.79083e-156
-4.7161e-174
-6.09424e-162
-1.00917e-169
-2.74553e-173
-5.47637e-181
1.42968e-11
-7.09494e-09
-1.92064e-16
4.70135e-11
-2.15802e-08
-2.45539e-16
-4.37927e-10
-3.33e-08
-4.99833e-15
-2.0528e-10
-4.96533e-08
5.85504e-15
8.49602e-10
-8.22802e-08
-1.11152e-14
1.13606e-09
-1.0057e-07
-6.05204e-15
8.1308e-10
-1.00011e-07
5.32699e-16
1.13329e-09
-8.80754e-08
-2.37655e-15
1.62401e-09
-7.55649e-08
-5.22432e-15
1.29862e-09
-7.70868e-08
-7.53192e-15
4.03524e-10
-4.5987e-08
-4.38671e-15
2.11299e-11
-7.73763e-09
-6.4332e-16
2.76585e-13
-2.85989e-10
-2.03602e-17
2.72006e-15
-4.15055e-12
-2.47609e-19
3.30266e-17
-4.27491e-14
-2.23103e-21
1.23685e-18
-9.30665e-16
-4.69004e-23
4.72945e-20
-4.48382e-17
-1.98352e-24
2.4867e-22
-3.01983e-19
-1.11981e-26
1.08466e-24
-5.18143e-22
-1.91002e-29
2.96846e-27
-1.3487e-24
-4.81752e-32
4.47212e-30
-2.33714e-27
-8.44399e-35
3.59623e-33
-2.30605e-30
-9.0899e-38
7.29921e-37
-9.81577e-34
-5.32588e-41
-3.9027e-83
1.66897e-43
-7.24533e-45
-2.75976e-87
-2.64867e-80
-9.22714e-88
-3.10591e-92
-5.31648e-85
-1.09834e-92
-4.73732e-96
-3.53202e-90
-6.24858e-98
-2.2906e-99
-3.69212e-94
-6.16504e-102
-7.05736e-103
-1.28926e-97
-1.8383e-105
-1.4464e-107
-3.00503e-101
-5.45184e-109
-3.61018e-112
-5.0464e-106
-6.67027e-114
-4.87942e-117
-9.82625e-111
-1.45915e-118
-1.58894e-122
-1.22819e-115
-1.56274e-123
-9.81755e-130
-2.70111e-121
-3.77995e-129
-1.0807e-138
-1.45891e-128
-2.17782e-136
-1.95144e-149
-1.29361e-137
-1.73632e-145
-9.19251e-163
-2.27173e-148
-2.90833e-156
-6.2e-174
-7.01266e-162
-1.16834e-169
-3.36155e-173
-6.74397e-181
1.41657e-11
-7.10911e-09
-1.63013e-15
5.46792e-11
-2.16207e-08
-2.28718e-15
-3.70673e-10
-3.28747e-08
-4.34298e-15
3.06406e-10
-5.03304e-08
5.10247e-15
1.44856e-09
-8.34223e-08
-1.11079e-14
1.26469e-09
-1.00386e-07
-5.92922e-15
5.06865e-10
-9.92534e-08
-7.61169e-15
8.81939e-10
-8.84504e-08
-3.35605e-15
1.52046e-09
-7.62035e-08
-6.15695e-15
1.22727e-09
-7.78432e-08
-8.03519e-15
3.99732e-10
-4.84665e-08
-4.77382e-15
2.24541e-11
-8.74398e-09
-7.47685e-16
3.04764e-13
-3.45753e-10
-2.51714e-17
2.97501e-15
-5.16792e-12
-3.13516e-19
3.08212e-17
-5.07006e-14
-2.65649e-21
8.79779e-19
-8.34813e-16
-4.16734e-23
3.32621e-20
-3.65233e-17
-1.65416e-24
1.72533e-22
-2.27737e-19
-8.66008e-27
6.50112e-25
-3.44164e-22
-1.29889e-29
1.51138e-27
-7.71504e-25
-2.84231e-32
1.8143e-30
-1.10563e-27
-4.18336e-35
9.57151e-34
-7.98615e-31
-3.48105e-38
8.69929e-47
-1.32265e-34
-1.2327e-41
-1.85425e-82
-7.45987e-66
3.03124e-51
-3.73645e-87
-2.63942e-80
-8.54122e-88
-3.88327e-92
-5.35028e-85
-1.11337e-92
-5.72542e-96
-3.59373e-90
-6.38889e-98
-2.60414e-99
-3.7903e-94
-6.34965e-102
-7.60731e-103
-1.27644e-97
-1.89093e-105
-1.67675e-107
-2.8477e-101
-5.19017e-109
-3.94073e-112
-5.26048e-106
-7.10977e-114
-6.75311e-117
-9.80571e-111
-1.44865e-118
-1.52632e-122
-1.51019e-115
-1.98927e-123
-1.08891e-129
-2.32393e-121
-3.37899e-129
-1.36591e-138
-1.44779e-128
-2.22212e-136
-3.31109e-149
-1.74812e-137
-2.00056e-145
-1.15098e-162
-3.25687e-148
-4.59837e-156
-8.26343e-174
-8.16625e-162
-1.36764e-169
-4.18416e-173
-8.43293e-181
1.39937e-11
-7.12311e-09
-3.46695e-16
6.24571e-11
-2.16692e-08
3.73997e-16
-2.73356e-10
-3.25389e-08
-3.15567e-15
8.55113e-10
-5.14588e-08
2.07885e-15
1.95121e-09
-8.45184e-08
-1.01088e-14
1.18192e-09
-9.96165e-08
-9.50617e-15
1.22371e-10
-9.81938e-08
-1.26454e-14
6.85044e-10
-8.90129e-08
-9.03434e-15
1.4402e-09
-7.69586e-08
-9.80549e-15
1.17109e-09
-7.85481e-08
-8.21943e-15
3.99702e-10
-5.11056e-08
-5.05097e-15
2.42454e-11
-9.93912e-09
-8.56246e-16
3.43786e-13
-4.23858e-10
-3.10988e-17
3.35906e-15
-6.56751e-12
-4.01148e-19
3.1001e-17
-6.28457e-14
-3.27982e-21
6.56441e-19
-7.84545e-16
-3.88854e-23
2.27178e-20
-2.97901e-17
-1.36742e-24
1.16928e-22
-1.68954e-19
-6.5324e-27
3.7882e-25
-2.26636e-22
-8.69624e-30
7.34512e-28
-4.36948e-25
-1.63779e-32
6.6565e-31
-5.0438e-28
-1.98335e-35
1.4441e-34
-2.35847e-31
-1.19008e-38
-1.48399e-68
8.26977e-42
-1.57254e-42
-1.37695e-82
-7.24252e-66
-1.36656e-73
-4.78246e-87
-2.63475e-80
-9.32744e-88
-4.74164e-92
-5.39006e-85
-1.12512e-92
-6.84083e-96
-3.65861e-90
-6.54296e-98
-2.94504e-99
-3.89851e-94
-6.55227e-102
-8.08052e-103
-1.26843e-97
-1.94689e-105
-1.96231e-107
-2.67566e-101
-4.89275e-109
-4.49471e-112
-5.55414e-106
-7.67691e-114
-8.94765e-117
-1.08383e-110
-1.51144e-118
-1.4279e-122
-1.78527e-115
-2.42496e-123
-1.17974e-129
-1.96389e-121
-2.94303e-129
-2.27143e-138
-1.42323e-128
-2.22364e-136
-4.7137e-149
-2.81007e-137
-3.0863e-145
-1.45555e-162
-3.92969e-148
-6.111e-156
-1.11759e-173
-9.62848e-162
-1.61965e-169
-5.2986e-173
-1.07162e-180
1.36546e-11
-7.13676e-09
-1.51599e-15
6.81476e-11
-2.17237e-08
-1.29579e-15
-1.79988e-10
-3.22908e-08
-3.45309e-15
1.30159e-09
-5.29404e-08
-3.13321e-15
2.19367e-09
-8.54105e-08
-1.16721e-14
8.55656e-10
-9.82784e-08
-1.58298e-14
-2.31825e-10
-9.71064e-08
-9.40555e-15
5.92481e-10
-8.98372e-08
-1.53156e-14
1.40525e-09
-7.77714e-08
-1.34175e-14
1.14245e-09
-7.91769e-08
-7.72872e-15
4.08382e-10
-5.38651e-08
-5.20388e-15
2.69066e-11
-1.13403e-08
-9.67748e-16
4.0101e-13
-5.25088e-10
-3.78382e-17
3.94023e-15
-8.479e-12
-5.08173e-19
3.34339e-17
-8.05677e-14
-4.09667e-21
5.12256e-19
-7.85333e-16
-3.68718e-23