/*--------------------------------*- C++ -*----------------------------------*\
| =========                 |                                                 |
| \\      /  F ield         | OpenFOAM: The Open Source CFD Toolbox           |
|  \\    /   O peration     | Version:  v2012                                 |
|   \\  /    A nd           | Website:  www.openfoam.com                      |
|    \\/     M anipulation  |                                                 |
\*---------------------------------------------------------------------------*/
FoamFile
{
    version     2.0;
    format      ascii;
    class       volScalarField;
    location    "0.75";
    object      alpha.water;
}
// * * * * * * * * * * * * * * * * * * * * * * * * * * * * * * * * * * * * * //

dimensions      [0 0 0 0 0 0 0];


internalField   nonuniform List<scalar> 
3352
(
0.999993
0.999998
0.999998
0.999996
0.999999
1
0.999997
1
0.986686
0.769484
0.271674
0.025153
0.000608153
2.55065e-05
4.862e-06
6.62592e-07
2.34872e-08
7.79474e-11
1.26464e-14
4.05548e-18
1.01837e-20
2.1184e-23
3.56806e-26
4.70994e-29
4.63947e-32
3.14558e-35
1.25249e-38
1.81765e-42
-3.56862e-59
6.14304e-95
3.95714e-99
4.09066e-103
9.11857e-109
6.7091e-115
4.29554e-114
2.34279e-111
1.42458e-108
6.3669e-112
3.78914e-91
0.999993
0.999999
0.999998
0.999996
0.999999
1
0.999998
1
0.988916
0.782812
0.283859
0.0269266
0.00063478
1.87978e-05
2.98653e-06
4.03056e-07
1.45847e-08
4.32053e-11
6.93361e-15
3.0958e-18
8.00316e-21
1.69943e-23
2.89808e-26
3.83952e-29
3.75534e-32
2.48813e-35
9.37378e-39
1.12211e-42
1.70878e-58
7.71818e-95
3.98796e-99
4.27167e-103
9.08685e-109
6.54742e-115
9.51585e-118
1.47078e-115
1.99126e-113
6.60785e-112
-1.94517e-129
0.999995
1
0.999999
0.999996
0.999999
1
0.999998
1
0.990011
0.789948
0.290678
0.0279348
0.000651174
1.63867e-05
2.35416e-06
3.14456e-07
1.14819e-08
3.31266e-11
5.46941e-15
2.64792e-18
6.99567e-21
1.51118e-23
2.60653e-26
3.46657e-29
3.36725e-32
2.17609e-35
7.67754e-39
6.91106e-43
1.699e-58
9.57262e-95
3.98841e-99
4.27844e-103
8.44965e-109
5.70577e-115
7.04548e-122
7.79728e-131
2.37817e-136
1.2223e-135
2.88581e-130
0.999998
1
0.999998
0.999997
0.999999
1
0.999997
1
0.991217
0.797957
0.298381
0.0290947
0.000670796
1.41448e-05
1.77488e-06
2.33375e-07
8.60842e-09
2.41437e-11
4.07549e-15
2.24858e-18
6.07265e-21
1.33205e-23
2.31488e-26
3.0708e-29
2.9315e-32
1.81384e-35
5.74213e-39
2.72462e-43
-4.44089e-59
1.18465e-94
3.97573e-99
4.22877e-103
7.60894e-109
5.33056e-115
6.59707e-122
7.53176e-131
1.22925e-141
2.1739e-133
1.75344e-130
0.999999
1
0.999999
0.999996
0.999999
1
0.999997
1
0.992318
0.805792
0.306106
0.0302778
0.000693017
1.25407e-05
1.359e-06
1.75189e-07
6.52785e-09
1.84572e-11
3.17148e-15
1.8058e-18
4.92854e-21
1.0916e-23
1.90308e-26
2.50375e-29
2.32542e-32
1.34848e-35
3.59297e-39
-1.98359e-44
-5.55958e-56
1.35495e-94
3.94147e-99
4.03147e-103
6.79402e-109
5.22435e-115
5.69846e-122
7.65357e-131
1.1973e-141
5.00291e-140
1.91387e-138
1
1
0.999999
0.999996
0.999999
1
0.999997
1
0.993377
0.813836
0.314292
0.0315649
0.000719565
1.14099e-05
1.04141e-06
1.30947e-07
4.93927e-09
1.46312e-11
2.55085e-15
-5.42829e-18
-2.84636e-20
-7.81454e-23
-1.58612e-25
-2.47404e-28
-2.90398e-31
-2.41839e-34
-1.26313e-37
-2.91524e-41
9.74942e-91
1.54544e-94
3.89177e-99
3.71517e-103
5.98777e-109
5.25104e-115
4.9684e-122
9.14457e-131
1.19557e-141
4.17813e-155
6.24026e-155
1
1
1
0.999996
0.999999
1
0.999997
1
0.994385
0.822161
0.323109
0.0329962
0.000752219
1.06498e-05
8.03162e-07
9.79709e-08
3.75443e-09
1.21125e-11
2.14689e-15
-4.50751e-18
-2.29719e-20
-6.36198e-23
-1.30641e-25
-2.04813e-28
-2.38151e-31
-1.91162e-34
-9.05349e-38
-1.45489e-41
9.84693e-91
1.72046e-94
3.83203e-99
3.33942e-103
5.25453e-109
6.1327e-115
4.37698e-122
1.24193e-130
1.38865e-141
3.99808e-155
1.34594e-157
1
1
1
0.999996
0.999999
1
0.999997
1
0.995339
0.83082
0.332735
0.0346245
0.000792929
1.02389e-05
6.23522e-07
7.33749e-08
2.87251e-09
1.03548e-11
1.86221e-15
-3.65582e-18
-1.83344e-20
-5.08733e-23
-1.0445e-25
-1.62135e-28
-1.83294e-31
-1.38085e-34
-5.60907e-38
-3.68915e-42
9.94354e-91
1.8963e-94
3.76665e-99
2.94144e-103
4.63023e-109
9.15794e-115
3.9894e-122
1.57483e-130
1.53337e-141
4.23032e-155
1.48361e-161
1
1
1
0.999995
0.999999
1
0.999998
1
0.996233
0.839854
0.343339
0.0365041
0.000843557
1.01216e-05
4.88311e-07
5.50984e-08
2.21857e-09
9.01234e-12
1.63533e-15
-2.87301e-18
-1.40851e-20
-3.87208e-23
-7.84813e-26
-1.18744e-28
-1.27684e-31
-8.69548e-35
-2.73122e-38
7.52441e-68
9.82195e-91
2.05034e-94
3.70005e-99
2.54409e-103
4.14625e-109
1.42464e-114
3.80048e-122
1.78161e-130
1.58322e-141
4.50779e-155
1.96542e-166
1
1
1
0.999995
0.999999
1
0.999998
1
0.997052
0.84924
0.355058
0.0386956
0.000906484
1.01944e-05
3.872e-07
4.15499e-08
1.73283e-09
7.86957e-12
1.42604e-15
-2.19364e-18
-1.04551e-20
-2.80553e-23
-5.52509e-26
-7.99951e-29
-7.9693e-32
-4.66275e-35
-9.16578e-39
4.31185e-85
9.81617e-91
2.18046e-94
3.63706e-99
2.16465e-103
3.81983e-109
2.0024e-114
3.74995e-122
1.85789e-130
1.58569e-141
4.83925e-155
2.18026e-166
1
1
1
0.999995
0.999999
0.999999
0.999998
1.00001
0.997787
0.858945
0.368039
0.0412711
0.000985226
1.05551e-05
3.13076e-07
3.15247e-08
1.36931e-09
6.82037e-12
1.21691e-15
-2.26147e-18
-9.2718e-21
-2.2678e-23
-4.12667e-26
-5.46617e-29
-4.7931e-32
-2.19697e-35
-1.05195e-39
4.59195e-90
9.69519e-91
2.27632e-94
3.58264e-99
1.81666e-103
3.64688e-109
2.49949e-114
3.81106e-122
1.86846e-130
1.52387e-141
5.2368e-155
2.44699e-166
1
1
1
0.999995
1
0.999999
0.999998
1.00001
0.998431
0.86891
0.382422
0.044319
0.00108496
1.12955e-05
2.61225e-07
2.41047e-08
1.09352e-09
5.83073e-12
1.00755e-15
-1.63292e-18
-6.44459e-21
-1.49492e-23
-2.53386e-26
-3.02696e-29
-2.23263e-32
-6.79989e-36
4.67087e-71
2.81138e-87
9.58962e-91
2.3307e-94
3.54154e-99
1.51041e-103
3.59141e-109
2.82146e-114
4.59794e-122
1.82953e-130
1.39416e-141
5.71575e-155
2.78039e-166
1
1
1
0.999995
1
0.999999
0.999998
1.00001
0.998985
0.87908
0.398371
0.0479504
0.00121278
1.2536e-05
2.30417e-07
1.85934e-08
8.80511e-10
4.90478e-12
8.05776e-16
-1.12561e-18
-4.23378e-21
-9.12194e-24
-1.39983e-26
-1.44508e-29
-8.22425e-33
-1.01085e-36
2.64128e-84
2.2473e-87
9.47133e-91
2.3485e-94
3.51727e-99
1.25341e-103
3.5939e-109
2.96156e-114
6.54464e-122
1.70319e-130
1.28678e-141
6.29575e-155
3.20044e-166
1
1
1
0.999995
1
0.999999
0.999999
1.00001
0.999448
0.889402
0.416059
0.0523029
0.00137817
1.44139e-05
2.14642e-07
1.4477e-08
7.1302e-10
4.05617e-12
6.21814e-16
-7.39973e-19
-2.61589e-21
-5.12466e-24
-6.89641e-27
-5.81605e-30
-2.17851e-33
-7.50207e-41
2.21054e-83
2.31818e-87
9.35177e-91
2.34954e-94
3.50877e-99
1.05097e-103
3.93968e-109
2.99093e-114
9.09029e-122
1.55852e-130
1.2404e-141
7.00226e-155
3.73445e-166
1
1
1
0.999994
1
0.999998
0.999999
1
0.999799
0.899822
0.435667
0.057544
0.00159369
1.7104e-05
2.09914e-07
1.13944e-08
5.7955e-10
3.29773e-12
4.63087e-16
-4.65214e-19
-1.51933e-21
-2.63798e-24
-2.99256e-27
-1.89547e-30
-3.00125e-34
3.49357e-78
2.27893e-83
2.3658e-87
9.23622e-91
2.32965e-94
3.51643e-99
9.06075e-104
5.07229e-109
2.97401e-114
1.15142e-121
1.46033e-130
1.23481e-141
7.86848e-155
4.42027e-166
1
1
1
0.999994
1
0.999998
0.999999
1
0.999955
0.910298
0.457351
0.0638706
0.00187594
2.08722e-05
2.15003e-07
9.09901e-09
4.72004e-10
2.63599e-12
3.33319e-16
-3.1251e-19
-8.7095e-22
-1.27954e-24
-1.15096e-27
-4.64849e-31
-2.02606e-38
3.50589e-78
2.31894e-83
2.42728e-87
9.13195e-91
2.27913e-94
3.59066e-99
8.18027e-104
6.88487e-109
2.84515e-114
1.33285e-121
1.42228e-130
1.45362e-141
8.93821e-155
5.31093e-166
1
1
1
0.999993
0.999999
0.999998
1
1
1
0.92075
0.481209
0.0715044
0.00224634
2.61121e-05
2.37893e-07
7.4143e-09
3.84579e-10
2.06939e-12
2.321e-16
-1.83627e-19
-4.53463e-22
-5.52163e-25
-3.64426e-28
-5.88793e-32
1.47345e-73
3.56394e-78
2.3682e-83
2.49436e-87
9.0464e-91
2.20343e-94
3.70086e-99
7.78653e-104
9.07541e-109
2.59599e-114
1.43097e-121
1.41987e-130
2.35299e-141
1.02696e-154
6.48178e-166
1
1
1
0.999993
0.999999
0.999998
1
1
1
0.931029
0.507241
0.0806819
0.00273195
3.33581e-05
2.82807e-07
6.28593e-09
3.13092e-10
1.59228e-12
1.56345e-16
-1.03981e-19
-2.2299e-22
-2.14589e-25
-8.84949e-29
-1.13559e-36
3.67327e-73
3.60409e-78
2.41849e-83
2.56974e-87
8.9872e-91
2.10901e-94
3.8528e-99
7.6886e-104
1.14525e-108
2.28412e-114
1.45986e-121
1.6544e-130
3.70294e-141
1.19409e-154
8.04134e-166
1
1
1
0.999993
0.999999
0.999998
1
1
1
0.940942
0.535308
0.0916357
0.00336591
4.33017e-05
3.54552e-07
5.55042e-09
2.54494e-10
1.19657e-12
1.01581e-16
-5.7211e-20
-1.04193e-22
-7.39318e-26
-1.18814e-29
5.09759e-59
1.78878e-73
3.64151e-78
2.47231e-83
2.65318e-87
8.95772e-91
2.00108e-94
4.06764e-99
7.91882e-104
1.38774e-108
1.96272e-114
1.45973e-121
2.55504e-130
4.89438e-141
1.40577e-154
1.01482e-165
1
1
1
0.999992
0.999999
0.999998
1
1
1
0.950317
0.565117
0.104569
0.00418744
5.68053e-05
4.60062e-07
5.12968e-09
2.06456e-10
8.7434e-13
6.29485e-17
-3.09744e-20
-4.66303e-23
-2.1509e-26
-5.73066e-35
4.87775e-59
1.79223e-73
3.68592e-78
2.52946e-83
2.74537e-87
8.9506e-91
1.8843e-94
4.34836e-99
1.0213e-103
1.61952e-108
1.67119e-114
1.4204e-121
3.98262e-130
5.6194e-141
1.67649e-154
1.30373e-165
1
1
1
0.999992
0.999999
0.999997
1
0.999996
1
0.958972
0.596216
0.119628
0.00524114
7.49089e-05
6.08634e-07
4.98723e-09
1.67071e-10
6.14292e-13
3.57384e-17
-1.75516e-20
-2.0412e-23
-4.44268e-27
1.95494e-52
4.75021e-59
1.7918e-73
3.73267e-78
2.59049e-83
2.84696e-87
9.02625e-91
1.76309e-94
4.70364e-99
1.66501e-103
1.82303e-108
1.43846e-114
1.33642e-121
5.45905e-130
5.90325e-141
2.02627e-154
1.7063e-165
1
1
1
0.999992
0.999999
0.999996
1
0.999994
1
0.966752
0.628042
0.136879
0.00657585
9.88256e-05
8.11217e-07
5.15749e-09
1.34584e-10
4.04416e-13
1.57194e-17
-9.61487e-21
-8.46667e-24
-6.48877e-31
1.90196e-52
4.61676e-59
1.78199e-73
3.78496e-78
2.65608e-83
2.95884e-87
9.1582e-91
1.64183e-94
5.14285e-99
2.75994e-103
1.97923e-108
1.28239e-114
1.24255e-121
6.61087e-130
5.94985e-141
2.48313e-154
2.27672e-165
1
1
1
0.999992
1
0.999996
1
0.999991
1
0.973553
0.659984
0.156299
0.00824313
0.000129949
1.07909e-06
5.65918e-09
1.07865e-10
2.32554e-13
3.97819e-19
-5.30595e-21
-3.23924e-24
7.75654e-46
1.87963e-52
4.48718e-59
1.87877e-73
3.84341e-78
2.72709e-83
3.08221e-87
9.3692e-91
1.52492e-94
5.67384e-99
4.22538e-103
2.0714e-108
1.20465e-114
1.17055e-121
7.25084e-130
5.93278e-141
3.08676e-154
3.09937e-165
1
1
1
0.999992
1
0.999995
1
0.999989
1
0.979347
0.691477
0.177791
0.0102963
0.000169896
1.42269e-06
6.45379e-09
8.55358e-11
1.01023e-13
2.45125e-19
-2.99501e-21
-1.04833e-24
7.48232e-46
1.85971e-52
4.36483e-59
1.77168e-73
3.90987e-78
2.80473e-83
3.21862e-87
9.67874e-91
1.41699e-94
6.30484e-99
5.95112e-103
2.10186e-108
1.18305e-114
1.13427e-121
7.43976e-130
5.95242e-141
3.89408e-154
4.30792e-165
1
1
1
0.999993
1
0.999995
1
0.999986
1
0.984177
0.722069
0.201213
0.0127905
0.000220616
1.85028e-06
7.47566e-09
6.40856e-11
1.90099e-14
1.70764e-19
-1.81249e-21
-1.52876e-25
7.18199e-46
1.84609e-52
4.25198e-59
1.768e-73
3.98629e-78
2.89051e-83
3.37007e-87
1.01066e-90
1.32307e-94
7.04356e-99
7.81471e-103
2.10234e-108
1.21867e-114
1.12488e-121
7.4299e-130
7.10387e-141
4.98793e-154
6.11792e-165
1
1
1
0.999995
0.999998
0.999996
0.999999
0.999983
1
0.988142
0.751474
0.226429
0.0157849
0.000284554
2.36592e-06
8.58141e-09
4.08504e-11
2.3043e-16
1.40696e-19
-1.29543e-21
4.39559e-38
6.88301e-46
1.83854e-52
4.15083e-59
1.85896e-73
4.07514e-78
2.98638e-83
3.53919e-87
1.0679e-90
1.24856e-94
7.89778e-99
9.68322e-103
2.06961e-108
1.73637e-114
1.20928e-121
7.20852e-130
1.20601e-140
6.49049e-154
8.88353e-165
1.00001
1
1
0.999995
0.999998
0.999996
0.999999
0.999979
1
0.991369
0.779569
0.253345
0.0193458
0.000364846
2.96584e-06
9.50168e-09
1.81483e-11
2.61177e-16
1.22915e-19
-1.03459e-21
4.14639e-38
6.6704e-46
1.83585e-52
4.06405e-59
1.76628e-73
4.17946e-78
3.09479e-83
3.72932e-87
1.14272e-90
1.19855e-94
8.87573e-99
1.14275e-102
1.9993e-108
3.40373e-114
1.75777e-121
6.9459e-130
2.20778e-140
8.58478e-154
1.31979e-164
1.00001
1
1
0.999996
0.999997
0.999996
0.999999
0.999977
1
0.993977
0.806352
0.281929
0.0235499
0.000465486
3.63175e-06
9.76925e-09
6.7921e-12
3.00153e-16
-9.5014e-20
-8.46387e-22
4.11083e-38
6.46801e-46
1.84167e-52
3.99465e-59
1.78648e-73
4.30299e-78
3.21886e-83
3.94477e-87
1.23897e-90
1.17402e-94
9.98702e-99
1.29328e-102
1.9102e-108
6.36652e-114
2.98037e-121
6.83611e-130
3.46715e-140
1.15489e-153
2.00739e-164
1.00001
1
1
0.999996
0.999997
0.999996
0.999998
0.999976
1
0.996047
0.831837
0.312182
0.0284842
0.000591459
4.32173e-06
9.39147e-09
4.32085e-12
3.17574e-16
-1.9885e-18
-4.87722e-22
4.00092e-38
6.29654e-46
1.86369e-52
3.94617e-59
1.80384e-73
4.45031e-78
3.36248e-83
4.19101e-87
1.36138e-90
1.16703e-94
1.12439e-98
1.40835e-102
1.82381e-108
1.02788e-113
4.81612e-121
6.92224e-130
4.59252e-140
1.58121e-153
3.12766e-164
1
1
1
0.999996
0.999997
0.999996
0.999997
0.999976
1
0.997625
0.855949
0.344088
0.034245
0.00074898
4.96366e-06
7.63928e-09
9.75474e-13
2.68028e-16
-3.36239e-18
-3.45784e-27
3.89897e-38
6.15605e-46
1.89132e-52
3.91917e-59
1.83409e-73
4.6271e-78
3.53053e-83
4.4751e-87
1.51578e-90
1.20253e-94
1.26628e-98
1.47633e-102
1.75918e-108
1.46341e-113
7.13267e-121
9.34515e-130
5.36753e-140
2.20461e-153
4.99452e-164
1.00001
1
1
0.999997
0.999997
0.999995
0.999997
0.999975
1
0.998753
0.878503
0.377585
0.0409398
0.00094615
5.4714e-06
4.74522e-09
2.82525e-13
-4.15396e-15
-3.26122e-18
7.64212e-29
3.85243e-38
6.0513e-46
1.93342e-52
3.90968e-59
1.87415e-73
4.84043e-78
3.72918e-83
4.80602e-87
1.70941e-90
1.39575e-94
1.42672e-98
1.49824e-102
1.72683e-108
1.88897e-113
9.68249e-121
1.81147e-129
5.83443e-140
3.13195e-153
8.17808e-164
1
1
1
0.999997
0.999997
0.999995
0.999997
0.999974
0.999998
0.999493
0.899273
0.412614
0.0487016
0.00119438
5.76376e-06
2.4218e-09
2.07477e-13
-5.08306e-15
-1.21562e-18
7.45723e-29
3.82546e-38
5.98651e-46
1.9914e-52
3.93987e-59
1.92879e-73
5.09915e-78
3.96624e-83
5.19537e-87
1.95125e-90
1.76442e-94
1.60899e-98
1.49755e-102
1.71846e-108
2.25435e-113
1.21405e-120
3.46063e-129
6.20039e-140
4.53565e-153
1.37357e-163
1
1
1
0.999996
0.999996
0.999996
0.999997
0.999973
0.999992
0.999859
0.918132
0.449231
0.0577215
0.00151094
5.85596e-06
2.8769e-10
-1.74446e-12
-3.8156e-15
3.3897e-21
7.41536e-29
3.81677e-38
5.95988e-46
2.06784e-52
4.02918e-59
2.00051e-73
5.4144e-78
4.25166e-83
5.65808e-87
2.25255e-90
2.34951e-94
1.81783e-98
1.47051e-102
1.84307e-108
2.52295e-113
1.42529e-120
5.71003e-129
6.92978e-140
6.69856e-153
2.36705e-163
1
1
1
0.999996
0.999996
0.999997
0.999994
0.999972
0.999985
0.999978
0.935098
0.487727
0.0682998
0.00192316
5.85409e-06
7.81392e-11
-2.54048e-12
-9.62289e-16
3.17509e-21
7.40451e-29
3.85828e-38
5.96162e-46
2.16752e-52
4.14823e-59
2.09301e-73
5.8004e-78
4.59824e-83
6.21357e-87
2.6275e-90
3.28266e-94
2.05999e-98
1.41488e-102
2.40935e-108
2.67795e-113
1.59295e-120
8.1527e-129
1.00612e-139
1.00922e-152
4.186e-163
1
1
1
0.999995
0.999996
0.999997
0.999993
0.999969
0.999978
0.999984
0.95028
0.528658
0.0809083
0.00247479
6.07553e-06
2.84596e-11
-1.40291e-12
2.12109e-14
2.89044e-21
7.54034e-29
3.96137e-38
6.08709e-46
2.29547e-52
4.33472e-59
2.21169e-73
6.27537e-78
5.02254e-83
6.88726e-87
3.09406e-90
4.71926e-94
2.34518e-98
1.34085e-102
3.63751e-108
2.731e-113
1.72554e-120
1.03657e-128
2.13053e-139
1.55166e-152
7.59712e-163
1
1
1
0.999995
0.999996
0.999998
0.999992
0.999967
0.999971
0.999983
0.963673
0.572688
0.0962437
0.00323622
7.7574e-06
3.10661e-11
3.90341e-11
2.43474e-14
2.68375e-21
7.79079e-29
4.09441e-38
6.25827e-46
2.45868e-52
4.59369e-59
2.33826e-73
6.86294e-78
5.54624e-83
7.71267e-87
3.67526e-90
6.81664e-94
2.68747e-98
1.26086e-102
6.01167e-108
2.73197e-113
1.84807e-120
1.21615e-128
4.60519e-139
2.4353e-152
1.41491e-162
1
1
1
0.999994
0.999997
0.999998
0.999992
0.999964
0.999962
0.999982
0.975139
0.620247
0.115258
0.00431909
1.3508e-05
1.06606e-10
4.24995e-11
2.73275e-14
2.52146e-21
8.1217e-29
4.2973e-38
6.51793e-46
2.66615e-52
4.94653e-59
2.42616e-73
7.59398e-78
6.19796e-83
8.73442e-87
4.40075e-90
9.75217e-94
3.10746e-98
1.18913e-102
1.02045e-107
2.69696e-113
2.01172e-120
1.36629e-128
8.11695e-139
3.90287e-152
2.70375e-162
1
1.00001
1
0.999994
0.999997
0.999998
0.999992
0.999961
0.999951
0.99998
0.984356
0.67108
0.139155
0.0059094
2.65831e-05
2.97306e-09
4.71144e-11
3.11278e-14
2.40484e-21
8.61874e-29
4.58012e-38
6.89753e-46
2.9297e-52
5.41967e-59
3.13798e-73
8.5092e-78
7.01584e-83
1.00124e-86
5.3091e-90
1.37172e-93
3.63572e-98
1.13958e-102
1.67958e-107
2.6613e-113
2.3528e-120
1.53531e-128
1.17462e-138
6.38831e-152
5.29941e-162
0.999999
1.00001
1
0.999994
0.999998
0.999997
0.999992
0.99996
0.999939
0.999975
0.991103
0.724064
0.169397
0.00828629
4.84193e-05
3.55865e-09
5.29815e-11
3.58642e-14
2.33365e-21
9.30865e-29
4.9601e-38
7.41258e-46
3.265e-52
6.04865e-59
2.95417e-73
9.66273e-78
8.05115e-83
1.16278e-86
6.45084e-90
1.89027e-93
4.3184e-98
1.11836e-102
2.62075e-107
2.64723e-113
3.28688e-120
1.87094e-128
1.49668e-138
1.06795e-151
1.06497e-161
0.999995
1.00001
1
0.999995
0.999998
0.999998
0.999992
0.999958
0.999926
0.999934
0.995512
0.7771
0.207864
0.0117807
8.28687e-05
4.48201e-09
6.1119e-11
4.18915e-14
2.29821e-21
1.02376e-28
5.4678e-38
8.10744e-46
3.69284e-52
6.88296e-59
3.58211e-73
1.11271e-77
9.3735e-83
1.36916e-86
7.89265e-90
2.55001e-93
5.22632e-98
1.1162e-102
3.85894e-107
2.83028e-113
5.9113e-120
2.94069e-128
1.82835e-138
1.82272e-151
2.19311e-161
0.999994
1.00001
1
0.999996
0.999998
0.999997
0.999994
0.999958
0.999912
0.9999
0.998042
0.82817
0.256255
0.016807
0.000141342
5.87596e-09
7.21853e-11
4.96515e-14
2.28827e-21
1.14843e-28
6.13923e-38
9.03093e-46
4.24104e-52
7.99096e-59
4.06692e-73
1.30004e-77
1.10781e-82
1.63573e-86
9.72326e-90
3.3705e-93
6.46988e-98
1.31889e-102
5.37863e-107
4.04387e-113
1.23603e-119
6.49979e-128
2.45288e-138
3.17349e-151
4.62498e-161
0.999992
1.00001
1
0.999995
0.999998
0.999997
0.999994
0.999957
0.999897
0.999879
0.999278
0.875204
0.315575
0.0239753
0.000240463
8.03113e-09
8.72775e-11
5.97535e-14
2.35487e-21
1.31458e-28
7.02523e-38
1.02534e-45
4.94694e-52
9.46811e-59
4.78707e-73
1.54157e-77
1.32964e-82
1.98383e-86
1.20615e-89
4.37209e-93
8.22355e-98
2.36654e-102
7.14078e-107
8.54642e-113
2.54144e-119
1.57776e-127
4.84207e-138
5.62961e-151
9.98018e-161
0.999992
1.00001
0.999999
0.999995
0.999998
0.999996
0.999994
0.999957
0.999882
0.999857
0.99977
0.916694
0.385038
0.0342602
0.000406889
1.14831e-08
1.07973e-10
7.30178e-14
2.48763e-21
0.999991
1.00001
0.999999
0.999995
0.999998
0.999998
0.999994
0.999955
0.999866
0.99983
0.999904
0.949934
0.464002
0.0488529
0.000683062
1.71707e-08
1.36514e-10
0.999925
0.973495
0.999996
0.999999
0.999999
0.999998
1
1
0.999998
1
0.986686
0.769482
0.271672
0.0251527
0.000608148
2.55068e-05
4.86213e-06
6.62613e-07
2.3488e-08
7.79497e-11
1.26468e-14
4.0556e-18
1.0184e-20
2.11847e-23
3.56816e-26
4.71007e-29
4.6396e-32
3.14567e-35
1.25252e-38
1.8177e-42
3.22361e-58
7.34279e-95
4.60426e-99
4.42608e-103
9.67834e-109
6.59316e-115
8.51005e-115
1.12072e-111
1.92285e-108
4.78995e-106
6.61432e-91
0.999997
0.999999
0.999999
0.999998
1
1
0.999998
1
0.988916
0.782811
0.283857
0.0269263
0.000634775
1.87981e-05
2.98661e-06
4.03069e-07
1.45851e-08
4.32063e-11
6.93378e-15
3.09589e-18
8.00338e-21
1.69948e-23
2.89817e-26
3.83962e-29
3.75544e-32
2.4882e-35
9.37404e-39
1.12214e-42
5.97517e-60
8.58362e-95
4.60497e-99
4.60918e-103
9.64296e-109
6.49831e-115
7.45534e-122
9.33286e-125
9.34839e-122
2.38976e-123
1.90499e-103
0.999998
1
0.999999
0.999998
0.999999
1
0.999998
1
0.990011
0.789946
0.290676
0.0279346
0.000651169
1.63869e-05
2.35422e-06
3.14466e-07
1.14822e-08
3.31272e-11
5.46951e-15
2.64799e-18
6.99584e-21
1.51121e-23
2.60659e-26
3.46665e-29
3.36734e-32
2.17614e-35
7.67773e-39
6.91123e-43
2.35657e-60
1.29649e-94
4.54942e-99
4.61494e-103
8.98615e-109
5.61699e-115
7.41818e-122
8.06492e-131
5.40815e-136
1.5433e-133
7.15184e-127
0.999999
1
0.999999
0.999998
0.999999
1
0.999998
1
0.991216
0.797955
0.29838
0.0290945
0.000670792
1.41449e-05
1.77492e-06
2.33382e-07
8.60868e-09
2.4144e-11
4.07554e-15
2.24863e-18
6.07278e-21
1.33207e-23
2.31494e-26
3.07086e-29
2.93156e-32
1.81388e-35
5.74225e-39
2.72468e-43
3.70306e-59
1.20003e-94
4.46262e-99
4.55415e-103
8.08124e-109
5.21191e-115
6.75527e-122
7.67608e-131
3.72411e-140
1.55253e-137
1.04862e-128
0.999999
1
1
0.999998
0.999999
1
0.999998
1
0.992318
0.80579
0.306105
0.0302776
0.000693013
1.25409e-05
1.35904e-06
1.75195e-07
6.52804e-09
1.84574e-11
3.17149e-15
1.80584e-18
4.92863e-21
1.09162e-23
1.90311e-26
2.5038e-29
2.32547e-32
1.34851e-35
3.59304e-39
-1.98371e-44
-5.27844e-56
1.9706e-94
4.35249e-99
4.33355e-103
7.20649e-109
5.0789e-115
5.81705e-122
7.76138e-131
1.19601e-141
2.62165e-145
1.34367e-134
1
1
1
0.999998
0.999999
1
0.999998
1
0.993377
0.813834
0.31429
0.0315647
0.000719561
1.141e-05
1.04144e-06
1.30951e-07
4.93941e-09
1.46312e-11
2.55084e-15
-5.42838e-18
-2.84641e-20
-7.81469e-23
-1.58615e-25
-2.47409e-28
-2.90405e-31
-2.41844e-34
-1.26316e-37
-2.9153e-41
4.50835e-91
1.96271e-94
4.22749e-99
3.98977e-103
6.33975e-109
5.07064e-115
5.03958e-122
9.06011e-131
1.1965e-141
2.71766e-154
2.59741e-153
1
1
1
0.999998
0.999999
1
0.999998
1
0.994385
0.822159
0.323107
0.032996
0.000752215
1.06499e-05
8.03182e-07
9.79738e-08
3.75453e-09
1.21124e-11
2.14686e-15
-4.50758e-18
-2.29722e-20
-6.36207e-23
-1.30644e-25
-2.04817e-28
-2.38155e-31
-1.91166e-34
-9.05364e-38
-1.45491e-41
7.30193e-91
2.21765e-94
4.09361e-99
3.58529e-103
5.55089e-109
5.64863e-115
4.42281e-122
1.20171e-130
1.38817e-141
1.11162e-154
1.05553e-153
1
1
1
0.999998
1
1
0.999998
1
0.995339
0.830818
0.332733
0.0346243
0.000792925
1.02389e-05
6.23537e-07
7.33771e-08
2.87258e-09
1.03547e-11
1.86219e-15
-3.65586e-18
-1.83346e-20
-5.08739e-23
-1.04451e-25
-1.62137e-28
-1.83297e-31
-1.38087e-34
-5.60914e-38
-3.6892e-42
7.36922e-91
2.43832e-94
3.9576e-99
3.15841e-103
4.87872e-109
8.0395e-115
4.02795e-122
1.50099e-130
1.53356e-141
4.22827e-155
7.8214e-158
1
1
1
0.999997
1
0.999999
0.999998
1
0.996232
0.839852
0.343337
0.0365039
0.000843554
1.01217e-05
4.88322e-07
5.51e-08
2.21862e-09
9.01227e-12
1.63531e-15
-2.87305e-18
-1.40852e-20
-3.87211e-23
-7.8482e-26
-1.18745e-28
-1.27685e-31
-8.69556e-35
-2.73124e-38
8.89777e-74
7.481e-91
2.62937e-94
3.82642e-99
2.73304e-103
4.357e-109
1.24269e-114
3.84271e-122
1.68248e-130
1.58297e-141
4.50404e-155
1.95972e-166
1
1
1
0.999997
1
0.999999
0.999999
1
0.997052
0.849238
0.355057
0.0386954
0.000906482
1.01944e-05
3.87209e-07
4.15511e-08
1.73287e-09
7.86952e-12
1.42602e-15
-2.19367e-18
-1.04552e-20
-2.80554e-23
-5.52512e-26
-7.99957e-29
-7.96936e-32
-4.66279e-35
-9.16585e-39
4.13879e-76
7.53618e-91
2.78066e-94
3.70715e-99
2.32738e-103
4.00433e-109
1.76935e-114
3.79587e-122
1.74631e-130
1.58569e-141
4.8343e-155
2.17414e-166
1
1
1
0.999997
1
0.999999
0.999999
1
0.997786
0.858943
0.368037
0.0412709
0.000985224
1.05551e-05
3.13082e-07
3.15256e-08
1.36934e-09
6.82034e-12
1.2169e-15
-2.26149e-18
-9.27186e-21
-2.26781e-23
-4.12669e-26
-5.46621e-29
-4.79313e-32
-2.19698e-35
-1.05196e-39
4.66658e-88
7.69267e-91
2.87891e-94
3.60671e-99
1.95578e-103
3.81656e-109
2.24791e-114
3.88812e-122
1.75383e-130
1.52409e-141
5.23049e-155
2.44035e-166
1
1
1
0.999997
1
0.999999
0.999999
1
0.998431
0.868909
0.382421
0.0443189
0.00108496
1.12955e-05
2.6123e-07
2.41053e-08
1.09354e-09
5.83072e-12
1.00754e-15
-1.63294e-18
-6.44464e-21
-1.49493e-23
-2.53387e-26
-3.02698e-29
-2.23264e-32
-6.79994e-36
-1.22357e-80
2.5727e-87
7.82391e-91
2.92228e-94
3.53132e-99
1.62913e-103
3.75558e-109
2.58111e-114
4.82896e-122
1.71131e-130
1.39424e-141
5.70789e-155
2.77311e-166
1
1
1
0.999997
1
0.999999
0.999999
1
0.998985
0.879079
0.398369
0.0479503
0.00121278
1.2536e-05
2.3042e-07
1.85939e-08
8.80527e-10
4.90479e-12
8.05773e-16
-1.12563e-18
-4.23381e-21
-9.12201e-24
-1.39984e-26
-1.44509e-29
-8.22431e-33
-1.01085e-36
3.94102e-84
2.53883e-87
7.97341e-91
2.93096e-94
3.48531e-99
1.35544e-103
3.75626e-109
2.74342e-114
7.03696e-122
1.5861e-130
1.28694e-141
6.28611e-155
3.19235e-166
1
1
1
0.999997
1
0.999999
0.999999
1
0.999447
0.8894
0.416058
0.0523028
0.00137817
1.4414e-05
2.14645e-07
1.44774e-08
7.13032e-10
4.05619e-12
6.21815e-16
-7.39985e-19
-2.61591e-21
-5.1247e-24
-6.89647e-27
-5.8161e-30
-2.17853e-33
-7.50232e-41
2.52975e-83
2.61507e-87
8.13557e-91
2.92114e-94
3.46692e-99
1.14038e-103
4.11286e-109
2.7852e-114
9.86055e-122
1.44496e-130
1.24007e-141
6.9905e-155
3.72536e-166
1
1
1
0.999997
1
0.999999
0.999999
1
0.999799
0.89982
0.435666
0.0575439
0.00159369
1.71041e-05
2.09916e-07
1.13946e-08
5.7956e-10
3.29775e-12
4.63089e-16
-4.65222e-19
-1.51935e-21
-2.63801e-24
-2.99259e-27
-1.89549e-30
-3.00128e-34
4.47581e-78
2.60934e-83
2.66645e-87
8.31249e-91
2.87257e-94
3.46497e-99
9.8714e-104
5.31735e-109
2.78175e-114
1.24827e-121
1.3477e-130
1.23471e-141
7.85418e-155
4.40992e-166
1
1
1
0.999997
1
0.999999
0.999999
1
0.999954
0.910296
0.45735
0.0638705
0.00187594
2.08723e-05
2.15005e-07
9.0992e-09
4.72012e-10
2.63602e-12
3.33322e-16
-3.12516e-19
-8.70962e-22
-1.27955e-24
-1.15097e-27
-4.64855e-31
-2.0261e-38
4.56082e-78
2.65519e-83
2.73165e-87
8.50477e-91
2.78528e-94
3.54384e-99
8.9481e-104
7.27863e-109
2.69269e-114
1.43556e-121
1.30789e-130
1.45379e-141
8.9208e-155
5.29897e-166
1
1
1
0.999996
1
0.999999
1
1
1
0.920749
0.481208
0.0715044
0.00224634
2.61121e-05
2.37894e-07
7.41444e-09
3.84586e-10
2.06941e-12
2.32103e-16
-1.8363e-19
-4.53469e-22
-5.52171e-25
-3.64431e-28
-5.88801e-32
3.65155e-73
4.55767e-78
2.71151e-83
2.80247e-87
8.71374e-91
2.66898e-94
3.72559e-99
8.54197e-104
9.66736e-109
2.48827e-114
1.52861e-121
1.30253e-130
2.35282e-141
1.02484e-154
6.46778e-166
1
1
1
0.999996
1
0.999999
1
1
1
0.931028
0.50724
0.0806819
0.00273195
3.33582e-05
2.82808e-07
6.28603e-09
3.13097e-10
1.5923e-12
1.56347e-16
-1.03983e-19
-2.22993e-22
-2.14592e-25
-8.84963e-29
-1.13562e-36
3.6734e-73
4.62012e-78
2.77026e-83
2.88167e-87
8.94104e-91
2.53158e-94
3.96018e-99
8.44305e-104
1.22645e-108
2.21418e-114
1.55186e-121
1.48928e-130
3.7029e-141
1.19147e-154
8.02471e-166
1
1
1
0.999996
1
0.999999
1
0.999999
1
0.940941
0.535308
0.0916357
0.00336592
4.33017e-05
3.54552e-07
5.5505e-09
2.54499e-10
1.19659e-12
1.01582e-16
-5.72123e-20
-1.04194e-22
-7.39331e-26
-1.18816e-29
5.36341e-59
3.67859e-73
4.65683e-78
2.83255e-83
2.96911e-87
9.18889e-91
2.37964e-94
4.26968e-99
8.73524e-104
1.49125e-108
1.92131e-114
1.54727e-121
2.29418e-130
4.89469e-141
1.40253e-154
1.01281e-165
1
1
1
0.999996
1
0.999998
1
0.999997
1
0.950316
0.565117
0.104569
0.00418745
5.68054e-05
4.60062e-07
5.12974e-09
2.0646e-10
8.74355e-13
6.29497e-17
-3.09751e-20
-4.66312e-23
-2.15094e-26
-5.73098e-35
4.45744e-59
3.68387e-73
4.70389e-78
2.89916e-83
3.0656e-87
9.46017e-91
2.21906e-94
4.67984e-99
1.13444e-103
1.74407e-108
1.64852e-114
1.49293e-121
3.64633e-130
5.61845e-141
1.67243e-154
1.30128e-165
1
1
1
0.999996
1
0.999998
1
0.999996
1
0.958971
0.596217
0.119628
0.00524115
7.4909e-05
6.08634e-07
4.98728e-09
1.67073e-10
6.14303e-13
3.57392e-17
-1.7552e-20
-2.04124e-23
-4.44276e-27
1.95067e-52
4.80303e-59
3.68726e-73
4.754e-78
2.97032e-83
3.17195e-87
9.75869e-91
2.05543e-94
5.19485e-99
1.83542e-103
1.96548e-108
1.42507e-114
1.39056e-121
5.09608e-130
5.90332e-141
2.02113e-154
1.70324e-165
1
1
1
0.999995
1
0.999998
1
0.999995
1
0.966751
0.628042
0.136879
0.00657586
9.88256e-05
8.11217e-07
5.15752e-09
1.34586e-10
4.04424e-13
1.572e-17
-9.61508e-21
-8.46684e-24
-6.48892e-31
1.91984e-52
4.61075e-59
3.69031e-73
4.81121e-78
3.04691e-83
3.28927e-87
1.00894e-90
1.89409e-94
5.81843e-99
2.99745e-103
2.13407e-108
1.27028e-114
1.27981e-121
6.27163e-130
5.95003e-141
2.47651e-154
2.27284e-165
1
1
1
0.999995
1
0.999997
1
0.999993
1
0.973552
0.659984
0.156299
0.00824314
0.000129949
1.07909e-06
5.6592e-09
1.07866e-10
2.32559e-13
3.97826e-19
-5.30607e-21
-3.2393e-24
6.78702e-46
1.87758e-52
4.48806e-59
3.6936e-73
4.87659e-78
3.1299e-83
3.41901e-87
1.04585e-90
1.7403e-94
6.55629e-99
4.52983e-103
2.23157e-108
1.18914e-114
1.19454e-121
6.9702e-130
5.93211e-141
3.0781e-154
3.09437e-165
1
1
1
0.999996
1
0.999997
0.999999
0.999992
1
0.979346
0.691477
0.177791
0.0102963
0.000169896
1.42269e-06
6.45379e-09
8.55371e-11
1.01026e-13
2.45128e-19
-2.99507e-21
-1.04835e-24
1.53637e-45
1.8599e-52
4.36456e-59
3.69857e-73
4.95251e-78
3.22066e-83
3.56304e-87
1.08742e-90
1.59957e-94
7.41018e-99
6.32014e-103
2.26233e-108
1.16497e-114
1.15014e-121
7.21118e-130
5.95359e-141
3.88256e-154
4.30135e-165
1
1
1
0.999997
1
0.999997
0.999999
0.999991
1
0.984175
0.72207
0.201214
0.0127905
0.000220616
1.85027e-06
7.47565e-09
6.40866e-11
1.9011e-14
1.70766e-19
-1.81252e-21
-1.52878e-25
7.0823e-46
1.84608e-52
4.25198e-59
3.70207e-73
5.04159e-78
3.32091e-83
3.72375e-87
1.13466e-90
1.47797e-94
8.37871e-99
8.24557e-103
2.2618e-108
1.18348e-114
1.1379e-121
7.22505e-130
7.10278e-141
4.97231e-154
6.10914e-165
1
1
1
0.999997
0.999999
0.999997
0.999998
0.999989
1
0.98814
0.751474
0.226429
0.0157849
0.000284554
2.36591e-06
8.5814e-09
4.08511e-11
2.30431e-16
1.40697e-19
-1.29544e-21
2.50922e-39
6.90908e-46
1.83852e-52
4.15076e-59
3.70343e-73
5.1471e-78
3.43287e-83
3.90424e-87
1.18888e-90
1.38208e-94
9.45895e-99
1.01716e-102
2.22368e-108
1.58981e-114
1.203e-121
7.05529e-130
1.20599e-140
6.46894e-154
8.87158e-165
1
1
1
0.999998
0.999999
0.999998
0.999998
0.999986
1
0.991366
0.779569
0.253345
0.0193459
0.000364845
2.96584e-06
9.50166e-09
1.81487e-11
2.61177e-16
1.22915e-19
-1.0346e-21
4.26588e-38
6.66515e-46
1.83583e-52
4.064e-59
3.88045e-73
5.27301e-78
3.55936e-83
4.10842e-87
1.25172e-90
1.31798e-94
1.0647e-98
1.19669e-102
2.14449e-108
3.01761e-114
1.73604e-121
6.81722e-130
2.20766e-140
8.55449e-154
1.31813e-164
1
1
1
0.999998
0.999998
0.999997
0.999998
0.999985
1
0.993973
0.806352
0.281929
0.0235499
0.000465486
3.63174e-06
9.76923e-09
6.79211e-12
3.00152e-16
-9.49542e-20
-8.46387e-22
4.07031e-38
6.46896e-46
1.84165e-52
3.99459e-59
3.73912e-73
5.42417e-78
3.70391e-83
4.34132e-87
1.32527e-90
1.28658e-94
1.19395e-98
1.35164e-102
2.04498e-108
5.66127e-114
3.03316e-121
6.71186e-130
3.46701e-140
1.15056e-153
2.00504e-164
1
1
1
0.999998
0.999998
0.999997
0.999997
0.999984
1
0.996043
0.831836
0.312182