/*--------------------------------*- C++ -*----------------------------------*\
| =========                 |                                                 |
| \\      /  F ield         | OpenFOAM: The Open Source CFD Toolbox           |
|  \\    /   O peration     | Version:  v2012                                 |
|   \\  /    A nd           | Website:  www.openfoam.com                      |
|    \\/     M anipulation  |                                                 |
\*---------------------------------------------------------------------------*/
FoamFile
{
    version     2.0;
    format      ascii;
    class       volScalarField;
    location    "0.75";
    object      p_rgh;
}
// * * * * * * * * * * * * * * * * * * * * * * * * * * * * * * * * * * * * * //

dimensions      [1 -1 -2 0 0 0 0];


internalField   nonuniform List<scalar> 
3352
(
3.49905e+06
3.49665e+06
3.49824e+06
3.49867e+06
3.49808e+06
3.49879e+06
3.4989e+06
3.50047e+06
3.4999e+06
3.49891e+06
3.49648e+06
3.49655e+06
3.49743e+06
3.49826e+06
3.49895e+06
3.49955e+06
3.50005e+06
3.50044e+06
3.50074e+06
3.50096e+06
3.50111e+06
3.5012e+06
3.50124e+06
3.50124e+06
3.50121e+06
3.50116e+06
3.5011e+06
3.50102e+06
3.50093e+06
3.50084e+06
3.50074e+06
3.50064e+06
3.50053e+06
3.50042e+06
3.50031e+06
3.50019e+06
3.50006e+06
3.49992e+06
3.49975e+06
3.50211e+06
3.50287e+06
3.50217e+06
3.50263e+06
3.50194e+06
3.50342e+06
3.50172e+06
3.50307e+06
3.50159e+06
3.50105e+06
3.49799e+06
3.49816e+06
3.4988e+06
3.49921e+06
3.49937e+06
3.49947e+06
3.49953e+06
3.49959e+06
3.49965e+06
3.49972e+06
3.4998e+06
3.49988e+06
3.49995e+06
3.50001e+06
3.50007e+06
3.50011e+06
3.50014e+06
3.50015e+06
3.50016e+06
3.50015e+06
3.50013e+06
3.5001e+06
3.50006e+06
3.50001e+06
3.49994e+06
3.49986e+06
3.49976e+06
3.49965e+06
3.4995e+06
3.49823e+06
3.50202e+06
3.49891e+06
3.5019e+06
3.49955e+06
3.50213e+06
3.50047e+06
3.50239e+06
3.50087e+06
3.50025e+06
3.49653e+06
3.49629e+06
3.49709e+06
3.4979e+06
3.49846e+06
3.49892e+06
3.49926e+06
3.49952e+06
3.4997e+06
3.49983e+06
3.49992e+06
3.49998e+06
3.50001e+06
3.50002e+06
3.50002e+06
3.50001e+06
3.49999e+06
3.49997e+06
3.49993e+06
3.4999e+06
3.49986e+06
3.49981e+06
3.49976e+06
3.4997e+06
3.49963e+06
3.49956e+06
3.49948e+06
3.49938e+06
3.49926e+06
3.498e+06
3.50455e+06
3.49907e+06
3.5032e+06
3.49985e+06
3.5027e+06
3.50068e+06
3.50246e+06
3.50095e+06
3.50039e+06
3.49674e+06
3.49649e+06
3.49725e+06
3.49797e+06
3.49839e+06
3.49873e+06
3.49895e+06
3.49913e+06
3.49926e+06
3.49937e+06
3.49945e+06
3.49952e+06
3.49957e+06
3.49961e+06
3.49963e+06
3.49964e+06
3.49964e+06
3.49963e+06
3.49961e+06
3.49959e+06
3.49955e+06
3.49951e+06
3.49947e+06
3.49941e+06
3.49935e+06
3.49929e+06
3.49921e+06
3.49913e+06
3.49903e+06
3.49565e+06
3.50443e+06
3.49758e+06
3.50262e+06
3.49889e+06
3.50184e+06
3.49991e+06
3.50151e+06
3.50013e+06
3.49944e+06
3.4958e+06
3.49549e+06
3.49639e+06
3.49725e+06
3.49783e+06
3.4983e+06
3.49862e+06
3.49886e+06
3.49903e+06
3.49916e+06
3.49924e+06
3.4993e+06
3.49934e+06
3.49936e+06
3.49937e+06
3.49937e+06
3.49936e+06
3.49935e+06
3.49932e+06
3.4993e+06
3.49926e+06
3.49922e+06
3.49918e+06
3.49913e+06
3.49907e+06
3.49901e+06
3.49895e+06
3.49887e+06
3.49879e+06
3.4954e+06
3.50449e+06
3.49744e+06
3.50238e+06
3.49883e+06
3.50121e+06
3.49948e+06
3.50076e+06
3.49958e+06
3.49883e+06
3.49543e+06
3.49511e+06
3.49612e+06
3.49699e+06
3.49757e+06
3.49802e+06
3.49832e+06
3.49856e+06
3.49872e+06
3.49884e+06
3.49893e+06
3.49899e+06
3.49903e+06
3.49906e+06
3.49907e+06
3.49907e+06
3.49906e+06
3.49905e+06
3.49903e+06
3.499e+06
3.49897e+06
3.49893e+06
3.49889e+06
3.49885e+06
3.4988e+06
3.49874e+06
3.49868e+06
3.49862e+06
3.49855e+06
3.49538e+06
3.50353e+06
3.49739e+06
3.50149e+06
3.49877e+06
3.50031e+06
3.49891e+06
3.49991e+06
3.4989e+06
3.49806e+06
3.49478e+06
3.49437e+06
3.49552e+06
3.49646e+06
3.49712e+06
3.49763e+06
3.49799e+06
3.49825e+06
3.49843e+06
3.49857e+06
3.49866e+06
3.49872e+06
3.49875e+06
3.49878e+06
3.49879e+06
3.49879e+06
3.49878e+06
3.49876e+06
3.49874e+06
3.49871e+06
3.49868e+06
3.49865e+06
3.49861e+06
3.49857e+06
3.49852e+06
3.49848e+06
3.49842e+06
3.49837e+06
3.49832e+06
3.49652e+06
3.50244e+06
3.49797e+06
3.50078e+06
3.4991e+06
3.4997e+06
3.49857e+06
3.49937e+06
3.49847e+06
3.49762e+06
3.49441e+06
3.49388e+06
3.49514e+06
3.49609e+06
3.49679e+06
3.49731e+06
3.49768e+06
3.49795e+06
3.49814e+06
3.49828e+06
3.49837e+06
3.49843e+06
3.49847e+06
3.49849e+06
3.4985e+06
3.4985e+06
3.49849e+06
3.49847e+06
3.49845e+06
3.49843e+06
3.4984e+06
3.49836e+06
3.49833e+06
3.49829e+06
3.49825e+06
3.49821e+06
3.49817e+06
3.49812e+06
3.49808e+06
3.49769e+06
3.50141e+06
3.49873e+06
3.50031e+06
3.4994e+06
3.49929e+06
3.49834e+06
3.49906e+06
3.49815e+06
3.49733e+06
3.49403e+06
3.49332e+06
3.49465e+06
3.49562e+06
3.49639e+06
3.49694e+06
3.49735e+06
3.49764e+06
3.49784e+06
3.49799e+06
3.49809e+06
3.49815e+06
3.49819e+06
3.49821e+06
3.49822e+06
3.49822e+06
3.49821e+06
3.49819e+06
3.49817e+06
3.49814e+06
3.49811e+06
3.49808e+06
3.49805e+06
3.49802e+06
3.49798e+06
3.49794e+06
3.49791e+06
3.49787e+06
3.49784e+06
3.49898e+06
3.50067e+06
3.49945e+06
3.50019e+06
3.49962e+06
3.49915e+06
3.49824e+06
3.49896e+06
3.49796e+06
3.49722e+06
3.49373e+06
3.49284e+06
3.49422e+06
3.49522e+06
3.49603e+06
3.4966e+06
3.49703e+06
3.49733e+06
3.49755e+06
3.4977e+06
3.49781e+06
3.49787e+06
3.49791e+06
3.49793e+06
3.49794e+06
3.49794e+06
3.49792e+06
3.49791e+06
3.49788e+06
3.49786e+06
3.49783e+06
3.4978e+06
3.49777e+06
3.49774e+06
3.49771e+06
3.49768e+06
3.49765e+06
3.49762e+06
3.4976e+06
3.49976e+06
3.50026e+06
3.49985e+06
3.50017e+06
3.4996e+06
3.49907e+06
3.4981e+06
3.49887e+06
3.49772e+06
3.49707e+06
3.49334e+06
3.49228e+06
3.49373e+06
3.49477e+06
3.49564e+06
3.49624e+06
3.4967e+06
3.49703e+06
3.49726e+06
3.49742e+06
3.49753e+06
3.4976e+06
3.49764e+06
3.49766e+06
3.49766e+06
3.49766e+06
3.49764e+06
3.49762e+06
3.4976e+06
3.49758e+06
3.49755e+06
3.49752e+06
3.49749e+06
3.49747e+06
3.49744e+06
3.49741e+06
3.49739e+06
3.49737e+06
3.49735e+06
3.49996e+06
3.49985e+06
3.49982e+06
3.49994e+06
3.49928e+06
3.49889e+06
3.4978e+06
3.49864e+06
3.49734e+06
3.49679e+06
3.49286e+06
3.49167e+06
3.49321e+06
3.49433e+06
3.49526e+06
3.4959e+06
3.49639e+06
3.49673e+06
3.49698e+06
3.49715e+06
3.49726e+06
3.49733e+06
3.49737e+06
3.49739e+06
3.49739e+06
3.49738e+06
3.49736e+06
3.49734e+06
3.49732e+06
3.49729e+06
3.49727e+06
3.49724e+06
3.49722e+06
3.49719e+06
3.49717e+06
3.49715e+06
3.49713e+06
3.49712e+06
3.49711e+06
3.49938e+06
3.4991e+06
3.49926e+06
3.49919e+06
3.49857e+06
3.49848e+06
3.49728e+06
3.4982e+06
3.49677e+06
3.49631e+06
3.49229e+06
3.49099e+06
3.49267e+06
3.49388e+06
3.49489e+06
3.49557e+06
3.49609e+06
3.49645e+06
3.49671e+06
3.49688e+06
3.49699e+06
3.49706e+06
3.4971e+06
3.49712e+06
3.49711e+06
3.4971e+06
3.49709e+06
3.49706e+06
3.49704e+06
3.49701e+06
3.49699e+06
3.49696e+06
3.49694e+06
3.49692e+06
3.4969e+06
3.49688e+06
3.49687e+06
3.49686e+06
3.49686e+06
3.49808e+06
3.49792e+06
3.49805e+06
3.4978e+06
3.49744e+06
3.49786e+06
3.49657e+06
3.49761e+06
3.49613e+06
3.49575e+06
3.49174e+06
3.49033e+06
3.49216e+06
3.49348e+06
3.49456e+06
3.49528e+06
3.49582e+06
3.49619e+06
3.49645e+06
3.49663e+06
3.49674e+06
3.4968e+06
3.49684e+06
3.49685e+06
3.49684e+06
3.49683e+06
3.49681e+06
3.49678e+06
3.49676e+06
3.49673e+06
3.49671e+06
3.49668e+06
3.49666e+06
3.49664e+06
3.49663e+06
3.49662e+06
3.49661e+06
3.49661e+06
3.49661e+06
3.49596e+06
3.49643e+06
3.49605e+06
3.49594e+06
3.49583e+06
3.49724e+06
3.49584e+06
3.49707e+06
3.49566e+06
3.49533e+06
3.49142e+06
3.48981e+06
3.49177e+06
3.49317e+06
3.4943e+06
3.49504e+06
3.49559e+06
3.49596e+06
3.49622e+06
3.49639e+06
3.4965e+06
3.49656e+06
3.49658e+06
3.49659e+06
3.49658e+06
3.49656e+06
3.49653e+06
3.4965e+06
3.49648e+06
3.49645e+06
3.49642e+06
3.4964e+06
3.49638e+06
3.49637e+06
3.49636e+06
3.49635e+06
3.49635e+06
3.49635e+06
3.49636e+06
3.49335e+06
3.49536e+06
3.49356e+06
3.4943e+06
3.49409e+06
3.49698e+06
3.49538e+06
3.49688e+06
3.49565e+06
3.49534e+06
3.49156e+06
3.48959e+06
3.49158e+06
3.49301e+06
3.49415e+06
3.49488e+06
3.49542e+06
3.49578e+06
3.49603e+06
3.49618e+06
3.49627e+06
3.49632e+06
3.49634e+06
3.49633e+06
3.49631e+06
3.49629e+06
3.49626e+06
3.49622e+06
3.49619e+06
3.49617e+06
3.49614e+06
3.49612e+06
3.4961e+06
3.49609e+06
3.49609e+06
3.49608e+06
3.49609e+06
3.4961e+06
3.49611e+06
3.49098e+06
3.49583e+06
3.49143e+06
3.49415e+06
3.49281e+06
3.49755e+06
3.49563e+06
3.49739e+06
3.49644e+06
3.4961e+06
3.4924e+06
3.48984e+06
3.49169e+06
3.49305e+06
3.49414e+06
3.49482e+06
3.49533e+06
3.49565e+06
3.49586e+06
3.49599e+06
3.49607e+06
3.4961e+06
3.4961e+06
3.49608e+06
3.49605e+06
3.49602e+06
3.49598e+06
3.49594e+06
3.49591e+06
3.49588e+06
3.49586e+06
3.49584e+06
3.49582e+06
3.49581e+06
3.49581e+06
3.49582e+06
3.49582e+06
3.49584e+06
3.49586e+06
3.49029e+06
3.49867e+06
3.49099e+06
3.49654e+06
3.49323e+06
3.49923e+06
3.49703e+06
3.49892e+06
3.49829e+06
3.49787e+06
3.49417e+06
3.49068e+06
3.49217e+06
3.49334e+06
3.4943e+06
3.49487e+06
3.49531e+06
3.49557e+06
3.49574e+06
3.49583e+06
3.49588e+06
3.49588e+06
3.49587e+06
3.49583e+06
3.49579e+06
3.49575e+06
3.49571e+06
3.49566e+06
3.49563e+06
3.49559e+06
3.49557e+06
3.49555e+06
3.49554e+06
3.49553e+06
3.49554e+06
3.49554e+06
3.49556e+06
3.49558e+06
3.4956e+06
3.49218e+06
3.50347e+06
3.49315e+06
3.50103e+06
3.49613e+06
3.502e+06
3.49975e+06
3.50158e+06
3.50127e+06
3.50073e+06
3.4969e+06
3.49217e+06
3.49303e+06
3.49388e+06
3.49462e+06
3.49504e+06
3.49536e+06
3.49554e+06
3.49566e+06
3.4957e+06
3.49571e+06
3.49568e+06
3.49564e+06
3.49559e+06
3.49554e+06
3.49548e+06
3.49543e+06
3.49538e+06
3.49534e+06
3.49531e+06
3.49528e+06
3.49526e+06
3.49525e+06
3.49525e+06
3.49526e+06
3.49527e+06
3.49529e+06
3.49532e+06
3.49535e+06
3.49639e+06
3.50895e+06
3.49737e+06
3.50658e+06
3.50075e+06
3.50562e+06
3.50365e+06
3.50512e+06
3.50516e+06
3.50445e+06
3.50043e+06
3.49421e+06
3.4942e+06
3.49463e+06
3.49508e+06
3.4953e+06
3.49549e+06
3.49557e+06
3.4956e+06
3.49559e+06
3.49555e+06
3.49549e+06
3.49543e+06
3.49535e+06
3.49528e+06
3.49521e+06
3.49515e+06
3.4951e+06
3.49505e+06
3.49502e+06
3.49499e+06
3.49497e+06
3.49497e+06
3.49497e+06
3.49498e+06
3.495e+06
3.49502e+06
3.49505e+06
3.49509e+06
3.50204e+06
3.51462e+06
3.5026e+06
3.51252e+06
3.50588e+06
3.50966e+06
3.50813e+06
3.50918e+06
3.50949e+06
3.50859e+06
3.50439e+06
3.4966e+06
3.49555e+06
3.49553e+06
3.49563e+06
3.49563e+06
3.49566e+06
3.49562e+06
3.49558e+06
3.4955e+06
3.49541e+06
3.49531e+06
3.49521e+06
3.49511e+06
3.49502e+06
3.49494e+06
3.49487e+06
3.49481e+06
3.49476e+06
3.49472e+06
3.49469e+06
3.49468e+06
3.49468e+06
3.49468e+06
3.4947e+06
3.49472e+06
3.49475e+06
3.49479e+06
3.49483e+06
3.50763e+06
3.51971e+06
3.50791e+06
3.51805e+06
3.51071e+06
3.51373e+06
3.51254e+06
3.51311e+06
3.5137e+06
3.51257e+06
3.50831e+06
3.49906e+06
3.49692e+06
3.49646e+06
3.49622e+06
3.496e+06
3.49587e+06
3.4957e+06
3.49556e+06
3.49541e+06
3.49527e+06
3.49513e+06
3.49499e+06
3.49487e+06
3.49476e+06
3.49466e+06
3.49458e+06
3.49451e+06
3.49446e+06
3.49442e+06
3.4944e+06
3.49438e+06
3.49438e+06
3.49439e+06
3.49442e+06
3.49444e+06
3.49448e+06
3.49452e+06
3.49457e+06
3.51276e+06
3.52346e+06
3.51259e+06
3.52234e+06
3.51471e+06
3.5171e+06
3.51633e+06
3.51636e+06
3.51726e+06
3.51586e+06
3.51175e+06
3.50131e+06
3.49815e+06
3.49734e+06
3.49678e+06
3.49636e+06
3.49607e+06
3.49579e+06
3.49556e+06
3.49533e+06
3.49513e+06
3.49494e+06
3.49477e+06
3.49462e+06
3.49449e+06
3.49438e+06
3.49429e+06
3.49421e+06
3.49415e+06
3.49412e+06
3.49409e+06
3.49408e+06
3.49409e+06
3.4941e+06
3.49413e+06
3.49416e+06
3.49421e+06
3.49426e+06
3.49431e+06
3.517e+06
3.52541e+06
3.5165e+06
3.52465e+06
3.51774e+06
3.51939e+06
3.5191e+06
3.5185e+06
3.51982e+06
3.51809e+06
3.51438e+06
3.50314e+06
3.49913e+06
3.49808e+06
3.49727e+06
3.49669e+06
3.49625e+06
3.49586e+06
3.49554e+06
3.49525e+06
3.49499e+06
3.49475e+06
3.49455e+06
3.49437e+06
3.49422e+06
3.49409e+06
3.49398e+06
3.4939e+06
3.49384e+06
3.4938e+06
3.49378e+06
3.49378e+06
3.49379e+06
3.49381e+06
3.49384e+06
3.49388e+06
3.49393e+06
3.49399e+06
3.49405e+06
3.52072e+06
3.52453e+06
3.51944e+06
3.52441e+06
3.51991e+06
3.52023e+06
3.52083e+06
3.51937e+06
3.52128e+06
3.51917e+06
3.51606e+06
3.50452e+06
3.49983e+06
3.49867e+06
3.49768e+06
3.49698e+06
3.49641e+06
3.49592e+06
3.49551e+06
3.49514e+06
3.49483e+06
3.49455e+06
3.49431e+06
3.4941e+06
3.49393e+06
3.49379e+06
3.49367e+06
3.49359e+06
3.49353e+06
3.49349e+06
3.49347e+06
3.49347e+06
3.49348e+06
3.49351e+06
3.49355e+06
3.4936e+06
3.49366e+06
3.49372e+06
3.49379e+06
3.52339e+06
3.52115e+06
3.52146e+06
3.52164e+06
3.52151e+06
3.51966e+06
3.5217e+06
3.51919e+06
3.5218e+06
3.51936e+06
3.51698e+06
3.50558e+06
3.50032e+06
3.49914e+06
3.498e+06
3.49721e+06
3.49653e+06
3.49595e+06
3.49546e+06
3.49502e+06
3.49465e+06
3.49433e+06
3.49405e+06
3.49382e+06
3.49363e+06
3.49347e+06
3.49335e+06
3.49326e+06
3.4932e+06
3.49316e+06
3.49314e+06
3.49315e+06
3.49317e+06
3.4932e+06
3.49325e+06
3.49331e+06
3.49338e+06
3.49345e+06
3.49353e+06
3.52547e+06
3.51549e+06
3.52267e+06
3.51707e+06
3.52285e+06
3.51823e+06
3.5221e+06
3.51863e+06
3.52195e+06
3.51929e+06
3.51763e+06
3.50667e+06
3.50073e+06
3.49957e+06
3.49828e+06
3.4974e+06
3.49661e+06
3.49595e+06
3.49537e+06
3.49487e+06
3.49445e+06
3.49408e+06
3.49377e+06
3.49352e+06
3.49331e+06
3.49314e+06
3.49301e+06
3.49292e+06
3.49286e+06
3.49282e+06
3.49281e+06
3.49282e+06
3.49285e+06
3.4929e+06
3.49295e+06
3.49302e+06
3.4931e+06
3.49318e+06
3.49326e+06
3.52786e+06
3.50948e+06
3.52408e+06
3.51243e+06
3.52424e+06
3.51713e+06
3.52273e+06
3.51856e+06
3.52247e+06
3.51972e+06
3.51864e+06
3.50812e+06
3.50125e+06
3.50002e+06
3.49853e+06
3.49757e+06
3.49665e+06
3.4959e+06
3.49525e+06
3.49469e+06
3.49421e+06
3.49381e+06
3.49347e+06
3.49319e+06
3.49297e+06
3.49279e+06
3.49266e+06
3.49257e+06
3.49251e+06
3.49248e+06
3.49248e+06
3.4925e+06
3.49253e+06
3.49259e+06
3.49265e+06
3.49273e+06
3.49281e+06
3.4929e+06
3.493e+06
3.53047e+06
3.50554e+06
3.52577e+06
3.51004e+06
3.5256e+06
3.51721e+06
3.52384e+06
3.51967e+06
3.52393e+06
3.5212e+06
3.52047e+06
3.51008e+06
3.50194e+06
3.50051e+06
3.49876e+06
3.49769e+06
3.49664e+06
3.49581e+06
3.49508e+06
3.49446e+06
3.49394e+06
3.4935e+06
3.49314e+06
3.49284e+06
3.4926e+06
3.49242e+06
3.49229e+06
3.4922e+06
3.49215e+06
3.49212e+06
3.49213e+06
3.49216e+06
3.49221e+06
3.49227e+06
3.49235e+06
3.49243e+06
3.49253e+06
3.49263e+06
3.49273e+06
3.53275e+06
3.50499e+06
3.52769e+06
3.51093e+06
3.52704e+06
3.51911e+06
3.52548e+06
3.52204e+06
3.52584e+06
3.52345e+06
3.52275e+06
3.51224e+06
3.50268e+06
3.50095e+06
3.49892e+06
3.49774e+06
3.49656e+06
3.49565e+06
3.49485e+06
3.49418e+06
3.49362e+06
3.49315e+06
3.49277e+06
3.49246e+06
3.49221e+06
3.49203e+06
3.4919e+06
3.49182e+06
3.49177e+06
3.49176e+06
3.49177e+06
3.49181e+06
3.49187e+06
3.49195e+06
3.49204e+06
3.49214e+06
3.49224e+06
3.49235e+06
3.49246e+06
3.53479e+06
3.50753e+06
3.52999e+06
3.51423e+06
3.52835e+06
3.52179e+06
3.52712e+06
3.52466e+06
3.52768e+06
3.52573e+06
3.52487e+06
3.51412e+06
3.50321e+06
3.5012e+06
3.49895e+06
3.49768e+06
3.49639e+06
3.49542e+06
3.49455e+06
3.49384e+06
3.49325e+06
3.49275e+06
3.49235e+06
3.49204e+06
3.49179e+06
3.49161e+06
3.49149e+06
3.49142e+06
3.49138e+06
3.49138e+06
3.49141e+06
3.49146e+06
3.49154e+06
3.49163e+06
3.49173e+06
3.49184e+06
3.49195e+06
3.49207e+06
3.4922e+06
3.53633e+06
3.51201e+06
3.53256e+06
3.51862e+06
3.5294e+06
3.52449e+06
3.52816e+06
3.52652e+06
3.52862e+06
3.52716e+06
3.52605e+06
3.51531e+06
3.50329e+06
3.50114e+06
3.49878e+06
3.49747e+06
3.4961e+06
3.49509e+06
3.49418e+06
3.49343e+06
3.49281e+06
3.4923e+06
3.4919e+06
3.49158e+06
3.49134e+06
3.49117e+06
3.49106e+06
3.491e+06
3.49098e+06
3.49099e+06
3.49104e+06
3.4911e+06
3.49119e+06
3.4913e+06
3.49141e+06
3.49153e+06
3.49166e+06
3.4918e+06
3.49193e+06
3.53744e+06
3.51735e+06
3.53481e+06
3.52298e+06
3.53012e+06
3.52668e+06
3.52844e+06
3.52742e+06
3.52822e+06
3.52729e+06
3.52589e+06
3.5157e+06
3.50287e+06
3.50075e+06
3.4984e+06
3.49711e+06
3.49569e+06
3.49465e+06
3.49371e+06
3.49295e+06
3.49231e+06
3.4918e+06
3.49139e+06
3.49108e+06
3.49086e+06
3.4907e+06
3.4906e+06
3.49056e+06
3.49056e+06
3.49059e+06
3.49065e+06
3.49074e+06
3.49084e+06
3.49096e+06
3.49109e+06
3.49123e+06
3.49137e+06
3.49152e+06
3.49166e+06
3.53748e+06
3.52307e+06
3.53633e+06
3.5269e+06
3.53064e+06
3.52839e+06
3.52831e+06
3.52755e+06
3.52703e+06
3.52663e+06
3.52488e+06
3.51576e+06
3.50223e+06
3.50014e+06
3.49787e+06
3.49661e+06
3.49518e+06
3.49412e+06
3.49315e+06
3.49238e+06
3.49174e+06
3.49124e+06
3.49084e+06
3.49054e+06
3.49033e+06
3.4902e+06
3.49012e+06
3.4901e+06
3.49012e+06
3.49017e+06
3.49026e+06
3.49036e+06
3.49049e+06
3.49063e+06
3.49077e+06
3.49093e+06
3.49108e+06
3.49124e+06
3.4914e+06
3.53698e+06
3.52885e+06
3.53716e+06
3.53064e+06
3.53136e+06
3.53017e+06
3.52856e+06
3.52802e+06
3.52609e+06
3.52649e+06
3.52419e+06
3.51632e+06
3.50187e+06
3.49955e+06
3.49731e+06
3.49604e+06
3.49457e+06
3.49349e+06
3.49251e+06
3.49174e+06
3.4911e+06
3.49061e+06
3.49023e+06
3.48996e+06
3.48978e+06
3.48967e+06
3.48962e+06
3.48962e+06
3.48967e+06
3.48975e+06
3.48986e+06
3.48998e+06
3.49013e+06
3.49028e+06
3.49045e+06
3.49062e+06
3.49079e+06
3.49096e+06
3.49113e+06
3.5363e+06
3.53459e+06
3.53777e+06
3.53446e+06
3.53267e+06
3.53251e+06
3.52986e+06
3.52969e+06
3.52662e+06
3.52827e+06
3.52512e+06
3.51825e+06
3.50229e+06
3.49915e+06
3.4968e+06
3.49541e+06
3.49388e+06
3.49277e+06
3.49177e+06
3.49101e+06
3.49039e+06
3.48992e+06
3.48957e+06
3.48933e+06
3.48918e+06
3.4891e+06
3.48909e+06
3.48913e+06
3.4892e+06
3.48931e+06
3.48944e+06
3.4896e+06
3.48976e+06
3.48994e+06
3.49012e+06
3.49031e+06
3.4905e+06
3.49068e+06
3.49086e+06
3.53699e+06
3.53994e+06
3.53863e+06
3.5382e+06
3.53474e+06
3.53544e+06
3.53238e+06
3.53266e+06
3.52927e+06
3.5319e+06
3.52788e+06
3.52154e+06
3.5035e+06
3.49891e+06
3.49635e+06
3.49472e+06
3.4931e+06
3.49194e+06
3.49094e+06
3.49019e+06
3.48959e+06
3.48916e+06
3.48886e+06
3.48866e+06
3.48855e+06
3.48851e+06
3.48854e+06
3.48861e+06
3.48872e+06
3.48886e+06
3.48902e+06
3.4892e+06
3.48939e+06
3.48959e+06
3.4898e+06
3.49e+06
3.4902e+06
3.4904e+06
3.4906e+06
3.5378e+06
3.5443e+06
3.54023e+06
3.54132e+06
3.53746e+06
3.53844e+06
3.53554e+06
3.53612e+06
3.5332e+06
3.536e+06
3.53156e+06
3.52533e+06
3.50506e+06
3.49855e+06
3.49581e+06
3.49388e+06
3.49221e+06
3.49099e+06
3.49e+06
3.48927e+06
3.48872e+06
3.48834e+06
3.48809e+06
3.48794e+06
3.48788e+06
3.4879e+06
3.48796e+06
3.48808e+06
3.48823e+06
3.4884e+06
3.4886e+06
3.48881e+06
3.48902e+06
3.48924e+06
3.48947e+06
3.48969e+06
3.48991e+06
3.49012e+06
3.49033e+06
3.53987e+06
3.54658e+06
3.54243e+06
3.54338e+06
3.54063e+06
3.54094e+06
3.53859e+06
3.53914e+06
3.53684e+06
3.53913e+06
3.53483e+06
3.52863e+06
3.50652e+06
3.49779e+06
3.49507e+06
3.49282e+06
3.49115e+06
3.4899e+06
3.48894e+06
3.48826e+06
3.48777e+06
3.48745e+06
3.48726e+06
3.48718e+06
3.48718e+06
3.48725e+06
3.48737e+06
3.48753e+06
3.48772e+06
3.48794e+06
3.48816e+06
3.4884e+06
3.48865e+06
3.48889e+06
3.48914e+06
3.48938e+06
3.48962e+06
3.48985e+06
3.49007e+06
3.54232e+06
3.54783e+06
3.54521e+06
3.54468e+06
3.54371e+06
3.54277e+06
3.5411e+06
3.54119e+06
3.5393e+06
3.54075e+06
3.53695e+06
3.53096e+06
3.50784e+06
3.49648e+06
3.49405e+06
3.49149e+06
3.48992e+06
3.48864e+06
3.48776e+06
3.48714e+06
3.48674e+06
3.4865e+06
3.48639e+06
3.48638e+06
3.48645e+06
3.48658e+06
3.48676e+06
3.48697e+06
3.48721e+06
3.48746e+06
3.48773e+06
3.488e+06
3.48827e+06
3.48854e+06
3.48881e+06
3.48907e+06
3.48933e+06
3.48957e+06
3.48981e+06
3.54608e+06
3.5481e+06
3.54789e+06
3.54574e+06
3.54632e+06
3.54408e+06
3.54308e+06
3.54231e+06
3.54066e+06
3.54115e+06
3.53803e+06
3.53247e+06
3.50938e+06
3.49473e+06
3.49278e+06
3.48988e+06
3.48849e+06
3.48722e+06
3.48646e+06
3.48592e+06
3.48562e+06
3.48548e+06
3.48546e+06
3.48554e+06
3.48569e+06
3.48589e+06
3.48613e+06
3.4864e+06
3.48668e+06
3.48698e+06
3.48728e+06
3.48759e+06
3.48789e+06
3.48819e+06
3.48848e+06
3.48877e+06
3.48904e+06
3.4893e+06
3.48955e+06
3.54914e+06
3.54829e+06
3.55071e+06
3.54652e+06
3.54857e+06
3.54502e+06
3.54463e+06
3.54284e+06
3.54142e+06
3.54107e+06
3.53866e+06
3.53372e+06
3.51138e+06
3.49274e+06
3.49128e+06
3.48802e+06
3.48687e+06
3.48563e+06
3.48503e+06
3.4846e+06
3.48443e+06
3.4844e+06
3.48449e+06
3.48467e+06
3.4849e+06
3.48518e+06
3.48549e+06
3.48581e+06
3.48615e+06
3.4865e+06
3.48684e+06
3.48718e+06
3.48751e+06
3.48784e+06
3.48816e+06
3.48846e+06
3.48875e+06
3.48903e+06
3.48929e+06
3.55246e+06
3.54752e+06
3.55325e+06
3.54696e+06
3.55031e+06
3.54559e+06
3.5457e+06
3.54298e+06
3.54186e+06
3.54111e+06
3.53925e+06
3.53531e+06
3.51382e+06
3.4907e+06
3.48947e+06
3.48591e+06
3.48504e+06
3.48387e+06
3.48347e+06
3.55471e+06
3.54735e+06
3.55538e+06
3.54707e+06
3.55123e+06
3.54564e+06
3.546e+06
3.54254e+06
3.5418e+06
3.54096e+06
3.53952e+06
3.53687e+06
3.51625e+06
3.4886e+06
3.48714e+06
3.48354e+06
3.48295e+06
3.53854e+06
3.53672e+06
3.49905e+06
3.49665e+06
3.49824e+06
3.49867e+06
3.49808e+06
3.49879e+06
3.4989e+06
3.50047e+06
3.4999e+06
3.49891e+06
3.49648e+06
3.49655e+06
3.49743e+06
3.49826e+06
3.49895e+06
3.49955e+06
3.50005e+06
3.50044e+06
3.50074e+06
3.50096e+06
3.50111e+06
3.5012e+06
3.50124e+06
3.50124e+06
3.50121e+06
3.50116e+06
3.5011e+06
3.50102e+06
3.50093e+06
3.50084e+06
3.50074e+06
3.50064e+06
3.50053e+06
3.50042e+06
3.50031e+06
3.50019e+06
3.50006e+06
3.49992e+06
3.49975e+06
3.50211e+06
3.50287e+06
3.50217e+06
3.50263e+06
3.50194e+06
3.50342e+06
3.50172e+06
3.50307e+06
3.50159e+06
3.50105e+06
3.49799e+06
3.49816e+06
3.4988e+06
3.49921e+06
3.49937e+06
3.49947e+06
3.49953e+06
3.49959e+06
3.49965e+06
3.49972e+06
3.4998e+06
3.49988e+06
3.49995e+06
3.50001e+06
3.50007e+06
3.50011e+06
3.50014e+06
3.50015e+06
3.50016e+06
3.50015e+06
3.50013e+06
3.5001e+06
3.50006e+06
3.50001e+06
3.49994e+06
3.49986e+06
3.49976e+06
3.49965e+06
3.4995e+06
3.49823e+06
3.50202e+06
3.49891e+06
3.5019e+06
3.49955e+06
3.50213e+06
3.50047e+06
3.50239e+06
3.50087e+06
3.50025e+06
3.49653e+06
3.49629e+06
3.49709e+06
3.4979e+06
3.49846e+06
3.49892e+06
3.49926e+06
3.49952e+06
3.4997e+06
3.49983e+06
3.49992e+06
3.49998e+06
3.50001e+06
3.50002e+06
3.50002e+06
3.50001e+06
3.49999e+06
3.49997e+06
3.49993e+06
3.4999e+06
3.49986e+06
3.49981e+06
3.49976e+06
3.4997e+06
3.49963e+06
3.49956e+06
3.49948e+06
3.49938e+06
3.49926e+06
3.498e+06
3.50455e+06
3.49907e+06
3.5032e+06
3.49985e+06
3.5027e+06
3.50068e+06
3.50246e+06
3.50095e+06
3.50039e+06
3.49674e+06
3.49649e+06
3.49725e+06
3.49797e+06
3.49839e+06
3.49873e+06
3.49895e+06
3.49913e+06
3.49926e+06
3.49937e+06
3.49945e+06
3.49952e+06
3.49957e+06
3.49961e+06
3.49963e+06
3.49964e+06
3.49964e+06
3.49963e+06
3.49961e+06
3.49959e+06
3.49955e+06
3.49951e+06
3.49947e+06
3.49941e+06
3.49935e+06
3.49929e+06
3.49921e+06
3.49913e+06
3.49903e+06
3.49565e+06
3.50443e+06
3.49758e+06
3.50262e+06
3.49889e+06
3.50184e+06
3.49991e+06
3.50151e+06
3.50013e+06
3.49944e+06
3.4958e+06
3.49549e+06
3.49639e+06
3.49725e+06
3.49783e+06
3.4983e+06
3.49862e+06
3.49886e+06
3.49903e+06
3.49916e+06
3.49924e+06
3.4993e+06
3.49934e+06
3.49936e+06
3.49937e+06
3.49937e+06
3.49936e+06
3.49935e+06
3.49932e+06
3.4993e+06
3.49926e+06
3.49922e+06
3.49918e+06
3.49913e+06
3.49907e+06
3.49901e+06
3.49895e+06
3.49887e+06
3.49879e+06
3.4954e+06
3.50449e+06
3.49744e+06
3.50238e+06
3.49883e+06
3.50121e+06
3.49948e+06
3.50076e+06
3.49958e+06
3.49883e+06
3.49543e+06
3.49511e+06
3.49612e+06
3.49699e+06
3.49757e+06
3.49802e+06
3.49832e+06
3.49856e+06
3.49872e+06
3.49884e+06
3.49893e+06
3.49899e+06
3.49903e+06
3.49906e+06
3.49907e+06
3.49907e+06
3.49906e+06
3.49905e+06
3.49903e+06
3.499e+06
3.49897e+06
3.49893e+06
3.49889e+06
3.49885e+06
3.4988e+06
3.49874e+06
3.49868e+06
3.49862e+06
3.49855e+06
3.49538e+06
3.50353e+06
3.49739e+06
3.50149e+06
3.49877e+06
3.50031e+06
3.49891e+06
3.49991e+06
3.4989e+06
3.49806e+06
3.49478e+06
3.49437e+06
3.49552e+06
3.49646e+06
3.49712e+06
3.49763e+06
3.49799e+06
3.49825e+06
3.49843e+06
3.49857e+06
3.49866e+06
3.49872e+06
3.49875e+06
3.49878e+06
3.49879e+06
3.49879e+06
3.49878e+06
3.49876e+06
3.49874e+06
3.49871e+06
3.49868e+06
3.49865e+06
3.49861e+06
3.49857e+06
3.49852e+06
3.49848e+06
3.49842e+06
3.49837e+06
3.49832e+06
3.49652e+06
3.50244e+06
3.49797e+06
3.50078e+06
3.4991e+06
3.4997e+06
3.49857e+06
3.49937e+06
3.49847e+06
3.49762e+06
3.49441e+06
3.49388e+06
3.49514e+06
3.49609e+06
3.49679e+06
3.49731e+06
3.49768e+06
3.49795e+06
3.49814e+06
3.49828e+06
3.49837e+06
3.49843e+06
3.49847e+06
3.49849e+06
3.4985e+06
3.4985e+06
3.49849e+06
3.49847e+06
3.49845e+06
3.49843e+06
3.4984e+06
3.49836e+06
3.49833e+06
3.49829e+06
3.49825e+06
3.49821e+06
3.49817e+06
3.49812e+06
3.49808e+06
3.49769e+06
3.50141e+06
3.49873e+06
3.50031e+06
3.4994e+06
3.49929e+06
3.49834e+06
3.49906e+06
3.49815e+06
3.49733e+06
3.49403e+06
3.49332e+06
3.49465e+06
3.49562e+06
3.49639e+06
3.49694e+06
3.49735e+06
3.49764e+06
3.49784e+06
3.49799e+06
3.49809e+06
3.49815e+06
3.49819e+06
3.49821e+06
3.49822e+06
3.49822e+06
3.49821e+06
3.49819e+06
3.49817e+06
3.49814e+06
3.49811e+06
3.49808e+06
3.49805e+06
3.49802e+06
3.49798e+06
3.49794e+06
3.49791e+06
3.49787e+06
3.49784e+06
3.49898e+06
3.50067e+06
3.49945e+06
3.50019e+06
3.49962e+06
3.49915e+06
3.49824e+06
3.49896e+06
3.49796e+06
3.49722e+06
3.49373e+06
3.49284e+06
3.49422e+06
3.49522e+06
3.49603e+06
3.4966e+06
3.49703e+06
3.49733e+06
3.49755e+06
3.4977e+06
3.49781e+06
3.49787e+06
3.49791e+06
3.49793e+06
3.49794e+06
3.49794e+06
3.49792e+06
3.49791e+06
3.49788e+06
3.49786e+06
3.49783e+06
3.4978e+06
3.49777e+06
3.49774e+06
3.49771e+06
3.49768e+06
3.49765e+06
3.49762e+06
3.4976e+06
3.49976e+06
3.50026e+06
3.49985e+06
3.50017e+06
3.4996e+06
3.49907e+06
3.4981e+06
3.49887e+06
3.49772e+06
3.49707e+06
3.49334e+06
3.49228e+06
3.49373e+06
3.49477e+06
3.49564e+06
3.49624e+06
3.4967e+06
3.49703e+06
3.49726e+06
3.49742e+06
3.49753e+06
3.4976e+06
3.49764e+06
3.49766e+06
3.49766e+06
3.49766e+06
3.49764e+06
3.49762e+06
3.4976e+06
3.49758e+06
3.49755e+06
3.49752e+06
3.49749e+06
3.49747e+06
3.49744e+06
3.49741e+06
3.49739e+06
3.49737e+06
3.49735e+06
3.49996e+06
3.49985e+06
3.49982e+06
3.49994e+06
3.49928e+06
3.49889e+06
3.4978e+06
3.49864e+06
3.49734e+06
3.49679e+06
3.49286e+06
3.49167e+06
3.49321e+06
3.49433e+06
3.49526e+06
3.4959e+06
3.49639e+06
3.49673e+06
3.49698e+06
3.49715e+06
3.49726e+06
3.49733e+06
3.49737e+06
3.49739e+06
3.49739e+06
3.49738e+06
3.49736e+06
3.49734e+06
3.49732e+06
3.49729e+06
3.49727e+06
3.49724e+06
3.49722e+06
3.49719e+06
3.49717e+06
3.49715e+06
3.49713e+06
3.49712e+06
3.49711e+06
3.49938e+06
3.4991e+06
3.49926e+06
3.49919e+06
3.49857e+06
3.49848e+06
3.49728e+06
3.4982e+06
3.49677e+06
3.49631e+06
3.49229e+06
3.49099e+06
3.49267e+06
3.49388e+06
3.49489e+06
3.49557e+06
3.49609e+06
3.49645e+06
3.49671e+06
3.49688e+06
3.49699e+06
3.49706e+06
3.4971e+06
3.49712e+06
3.49711e+06
3.4971e+06
3.49709e+06
3.49706e+06
3.49704e+06
3.49701e+06
3.49699e+06
3.49696e+06
3.49694e+06
3.49692e+06
3.4969e+06
3.49688e+06
3.49687e+06
3.49686e+06
3.49686e+06
3.49808e+06
3.49792e+06
3.49805e+06
3.4978e+06
3.49744e+06
3.49786e+06
3.49657e+06
3.49761e+06
3.49613e+06
3.49575e+06
3.49174e+06
3.49033e+06
3.49216e+06
3.49348e+06
3.49456e+06
3.49528e+06
3.49582e+06
3.49619e+06
3.49645e+06
3.49663e+06
3.49674e+06
3.4968e+06
3.49684e+06
3.49685e+06
3.49684e+06
3.49683e+06
3.49681e+06
3.49678e+06
3.49676e+06
3.49673e+06
3.49671e+06
3.49668e+06
3.49666e+06
3.49664e+06
3.49663e+06
3.49662e+06
3.49661e+06
3.49661e+06
3.49661e+06
3.49596e+06
3.49643e+06
3.49605e+06
3.49594e+06
3.49583e+06
3.49724e+06
3.49584e+06
3.49707e+06
3.49566e+06
3.49533e+06
3.49142e+06
3.48981e+06
3.49177e+06
3.49317e+06
3.4943e+06
3.49504e+06
3.49559e+06
3.49596e+06
3.49622e+06
3.49639e+06
3.4965e+06
3.49656e+06
3.49658e+06
3.49659e+06
3.49658e+06
3.49656e+06
3.49653e+06
3.4965e+06
3.49648e+06
3.49645e+06
3.49642e+06
3.4964e+06
3.49638e+06
3.49637e+06
3.49636e+06
3.49635e+06
3.49635e+06
3.49635e+06
3.49636e+06
3.49335e+06
3.49536e+06
3.49356e+06
3.4943e+06
3.49409e+06
3.49698e+06
3.49538e+06
3.49688e+06
3.49565e+06
3.49534e+06
3.49156e+06
3.48959e+06
3.49158e+06
3.49301e+06
3.49415e+06
3.49488e+06
3.49542e+06
3.49578e+06
3.49603e+06
3.49618e+06
3.49627e+06
3.49632e+06
3.49634e+06
3.49633e+06
3.49631e+06
3.49629e+06
3.49626e+06
3.49622e+06
3.49619e+06
3.49617e+06
3.49614e+06
3.49612e+06
3.4961e+06
3.49609e+06
3.49609e+06
3.49608e+06
3.49609e+06
3.4961e+06
3.49611e+06
3.49098e+06
3.49583e+06
3.49143e+06
3.49415e+06
3.49281e+06
3.49755e+06
3.49563e+06
3.49739e+06
3.49644e+06
3.4961e+06
3.4924e+06
3.48984e+06
3.49169e+06
3.49305e+06
3.49414e+06
3.49482e+06
3.49533e+06
3.49565e+06
3.49586e+06
3.49599e+06
3.49607e+06
3.4961e+06
3.4961e+06
3.49608e+06
3.49605e+06
3.49602e+06
3.49598e+06
3.49594e+06
3.49591e+06
3.49588e+06
3.49586e+06
3.49584e+06
3.49582e+06
3.49581e+06
3.49581e+06
3.49582e+06
3.49582e+06
3.49584e+06
3.49586e+06
3.49029e+06
3.49867e+06
3.49099e+06
3.49654e+06
3.49323e+06
3.49923e+06
3.49703e+06
3.49892e+06
3.49829e+06
3.49787e+06
3.49417e+06
3.49068e+06
3.49217e+06
3.49334e+06
3.4943e+06
3.49487e+06
3.49531e+06
3.49557e+06
3.49574e+06
3.49583e+06
3.49588e+06
3.49588e+06
3.49587e+06
3.49583e+06
3.49579e+06
3.49575e+06
3.49571e+06
3.49566e+06
3.49563e+06
3.49559e+06
3.49557e+06
3.49555e+06
3.49554e+06
3.49553e+06
3.49554e+06
3.49554e+06
3.49556e+06
3.49558e+06
3.4956e+06
3.49218e+06
3.50347e+06
3.49315e+06
3.50103e+06
3.49613e+06
3.502e+06
3.49975e+06
3.50158e+06
3.50127e+06
3.50073e+06
3.4969e+06
3.49217e+06
3.49303e+06
3.49388e+06
3.49462e+06
3.49504e+06
3.49536e+06
3.49554e+06
3.49566e+06
3.4957e+06
3.49571e+06
3.49568e+06
3.49564e+06
3.49559e+06
3.49554e+06
3.49548e+06
3.49543e+06
3.49538e+06
3.49534e+06
3.49531e+06
3.49528e+06
3.49526e+06
3.49525e+06
3.49525e+06
3.49526e+06
3.49527e+06
3.49529e+06
3.49532e+06
3.49535e+06
3.49639e+06
3.50895e+06
3.49737e+06
3.50658e+06
3.50075e+06
3.50562e+06
3.50365e+06
3.50512e+06
3.50516e+06
3.50445e+06
3.50043e+06
3.49421e+06
3.4942e+06
3.49463e+06
3.49508e+06
3.4953e+06
3.49549e+06
3.49557e+06
3.4956e+06
3.49559e+06
3.49555e+06
3.49549e+06
3.49543e+06
3.49535e+06
3.49528e+06
3.49521e+06
3.49515e+06
3.4951e+06
3.49505e+06
3.49502e+06
3.49499e+06
3.49497e+06