/*--------------------------------*- C++ -*----------------------------------*\
| =========                 |                                                 |
| \\      /  F ield         | OpenFOAM: The Open Source CFD Toolbox           |
|  \\    /   O peration     | Version:  v2012                                 |
|   \\  /    A nd           | Website:  www.openfoam.com                      |
|    \\/     M anipulation  |                                                 |
\*---------------------------------------------------------------------------*/
FoamFile
{
    version     2.0;
    format      ascii;
    class       volVectorField;
    location    "0.95";
    object      U;
}
// * * * * * * * * * * * * * * * * * * * * * * * * * * * * * * * * * * * * * //

dimensions      [0 1 -1 0 0 0 0];


internalField   nonuniform List<vector> 
3326
(
(0.00437581 -0.00639093 -3.82041e-05)
(0.003496 -0.00552677 -3.05242e-05)
(0.00270326 -0.00470422 -2.36041e-05)
(0.00199932 -0.00391169 -1.74591e-05)
(0.00138823 -0.00313905 -1.21243e-05)
(0.000874344 -0.00238251 -7.63782e-06)
(0.000466624 -0.0016542 -4.07767e-06)
(0.000171844 -0.000985573 -1.50434e-06)
(1.09331e-05 -0.000383485 -1.225e-07)
(0.00752501 -0.00901028 -6.56924e-05)
(0.00638184 -0.00797981 -5.57141e-05)
(0.00532557 -0.00702417 -4.64942e-05)
(0.00435621 -0.00613228 -3.80323e-05)
(0.00347512 -0.00529361 -3.03413e-05)
(0.00268294 -0.00449685 -2.34262e-05)
(0.0019816 -0.00373083 -1.7304e-05)
(0.00137398 -0.00298557 -1.19996e-05)
(0.000864402 -0.00225788 -7.55078e-06)
(0.000460844 -0.00156025 -4.02706e-06)
(0.000169748 -0.000924745 -1.48594e-06)
(1.09054e-05 -0.000359713 -1.21963e-07)
(0.0259446 -0.0889519 -0.000226393)
(0.0279678 -0.0886991 -0.00024405)
(0.0298909 -0.0879948 -0.000260833)
(0.0316749 -0.0868518 -0.000276403)
(0.0332985 -0.0852973 -0.000290573)
(0.0347321 -0.0833519 -0.000303087)
(0.0359597 -0.0810517 -0.000313802)
(0.0369558 -0.078425 -0.000322499)
(0.0377119 -0.0755165 -0.0003291)
(0.0382109 -0.0723611 -0.000333459)
(0.0384543 -0.0690087 -0.000335586)
(0.0384339 -0.0654983 -0.000335413)
(0.0381617 -0.0618814 -0.00033304)
(0.0376395 -0.0581968 -0.000328488)
(0.0368886 -0.0544932 -0.000321938)
(0.0359191 -0.050806 -0.000313481)
(0.0347593 -0.047177 -0.000303362)
(0.033426 -0.0436346 -0.000291729)
(0.031951 -0.0402113 -0.000278859)
(0.0303543 -0.0369266 -0.000264928)
(0.0286681 -0.0338024 -0.000250213)
(0.0269128 -0.0308489 -0.000234896)
(0.0251178 -0.0280778 -0.000219232)
(0.0233014 -0.0254908 -0.00020338)
(0.0214887 -0.0230909 -0.000187561)
(0.0196944 -0.0208732 -0.000171902)
(0.0179377 -0.0188334 -0.000156573)
(0.0162294 -0.0169622 -0.000141664)
(0.0145834 -0.0152508 -0.000127299)
(0.0130066 -0.0136874 -0.000113537)
(0.0115077 -0.0122608 -0.000100454)
(0.0100902 -0.0109577 -8.80824e-05)
(0.00875934 -0.00976634 -7.64661e-05)
(0.00751609 -0.00867385 -6.56134e-05)
(0.0063632 -0.00766852 -5.55503e-05)
(0.00530047 -0.00673839 -4.62743e-05)
(0.0043287 -0.00587266 -3.77919e-05)
(0.00344741 -0.00506017 -3.00992e-05)
(0.00265758 -0.00428996 -2.32047e-05)
(0.00195981 -0.00355081 -1.71136e-05)
(0.00135703 -0.00283327 -1.18515e-05)
(0.00085255 -0.00213447 -7.44719e-06)
(0.000454106 -0.00146745 -3.96813e-06)
(0.000167231 -0.000864736 -1.46387e-06)
(1.0869e-05 -0.000336238 -1.21289e-07)
(0.0282857 -0.093887 -0.000246821)
(0.0304336 -0.0934312 -0.000265566)
(0.0324534 -0.0924841 -0.000283194)
(0.034316 -0.0910742 -0.000299449)
(0.0359867 -0.0892206 -0.000314032)
(0.0374464 -0.0869617 -0.000326773)
(0.0386659 -0.0843269 -0.000337419)
(0.0396332 -0.0813632 -0.000345863)
(0.0403265 -0.078108 -0.000351918)
(0.0407451 -0.0746151 -0.000355574)
(0.0408776 -0.070927 -0.000356735)
(0.0407343 -0.0671002 -0.000355488)
(0.0403148 -0.0631782 -0.000351832)
(0.0396404 -0.0592154 -0.00034595)
(0.0387204 -0.0552518 -0.000337926)
(0.0375843 -0.0513355 -0.000328015)
(0.0362491 -0.0474993 -0.000316366)
(0.0347493 -0.0437811 -0.000303279)
(0.0331061 -0.0402045 -0.000288942)
(0.0313551 -0.0367957 -0.000273663)
(0.0295184 -0.0335678 -0.000257636)
(0.0276291 -0.0305357 -0.000241148)
(0.0257074 -0.0277029 -0.000224379)
(0.0237817 -0.025074 -0.000207573)
(0.0218685 -0.0226452 -0.000190877)
(0.0199902 -0.0204131 -0.000174485)
(0.0181585 -0.0183679 -0.000158499)
(0.0163897 -0.0165012 -0.000143062)
(0.0146913 -0.0148 -0.000128239)
(0.013074 -0.0132531 -0.000114123)
(0.0115413 -0.0118461 -0.000100746)
(0.0100994 -0.0105661 -8.81608e-05)
(0.00874922 -0.00939922 -7.63767e-05)
(0.0074936 -0.00833289 -6.54168e-05)
(0.00633212 -0.00735408 -5.5279e-05)
(0.00526559 -0.00645108 -4.59696e-05)
(0.00429258 -0.00561236 -3.74765e-05)
(0.00341318 -0.00482701 -2.98004e-05)
(0.00262677 -0.00408384 -2.29357e-05)
(0.00193417 -0.00337205 -1.68897e-05)
(0.00133714 -0.00268238 -1.16777e-05)
(0.000838932 -0.00201256 -7.32821e-06)
(0.000446287 -0.00137598 -3.89979e-06)
(0.000164356 -0.000805707 -1.43869e-06)
(1.07991e-05 -0.000313123 -1.20235e-07)
(0.0308789 -0.0992107 -0.000269449)
(0.0331503 -0.0985093 -0.000289272)
(0.0352746 -0.0972861 -0.000307811)
(0.0372079 -0.0955615 -0.000324685)
(0.0389264 -0.0933738 -0.000339684)
(0.0403954 -0.0907538 -0.000352507)
(0.0416003 -0.0877514 -0.000363025)
(0.0425144 -0.0844061 -0.000371007)
(0.0431337 -0.0807762 -0.000376415)
(0.0434429 -0.0769074 -0.000379119)
(0.0434507 -0.0728624 -0.000379191)
(0.0431538 -0.0686891 -0.000376605)
(0.042573 -0.0644487 -0.00037154)
(0.0417167 -0.0601864 -0.000364072)
(0.0406155 -0.0559571 -0.000354466)
(0.0392866 -0.0517988 -0.000342873)
(0.0377669 -0.0477559 -0.000329613)
(0.0360793 -0.0438561 -0.000314888)
(0.0342627 -0.040131 -0.000299037)
(0.0323413 -0.0365972 -0.000282272)
(0.0303523 -0.0332732 -0.000264914)
(0.0283181 -0.0301646 -0.000247163)
(0.0262709 -0.0272783 -0.000229298)
(0.0242292 -0.0246112 -0.00021148)
(0.0222187 -0.0221614 -0.000193934)
(0.020253 -0.0199189 -0.000176779)
(0.0183505 -0.0178752 -0.000160175)
(0.01652 -0.0160166 -0.0001442)
(0.0147737 -0.0143312 -0.000128958)
(0.0131161 -0.0128037 -0.000114491)
(0.011554 -0.0114203 -0.000100857)
(0.0100884 -0.0101657 -8.80655e-05)
(0.00872281 -0.00902625 -7.6146e-05)
(0.00745605 -0.00798768 -6.50891e-05)
(0.0062891 -0.00703733 -5.49034e-05)
(0.00522003 -0.00616253 -4.5572e-05)
(0.00424824 -0.005352 -3.70895e-05)
(0.00337192 -0.00459442 -2.94401e-05)
(0.00259082 -0.00387895 -2.26218e-05)
(0.00190439 -0.0031948 -1.66297e-05)
(0.0013145 -0.00253325 -1.148e-05)
(0.00082338 -0.00189237 -7.19235e-06)
(0.000437497 -0.00128605 -3.82296e-06)
(0.000161052 -0.000747773 -1.40975e-06)
(1.07219e-05 -0.00029042 -1.19039e-07)
(0.0337568 -0.104943 -0.000294561)
(0.0361616 -0.103961 -0.000315547)
(0.0383818 -0.10241 -0.000334926)
(0.0403864 -0.100332 -0.00035242)
(0.0421348 -0.0977568 -0.000367682)
(0.0436069 -0.0947376 -0.000380531)
(0.0447718 -0.0913162 -0.000390703)
(0.0456213 -0.0875555 -0.00039812)
(0.0461352 -0.0835054 -0.00040261)
(0.04632 -0.0792344 -0.000404227)
(0.046169 -0.074796 -0.000402915)
(0.0457024 -0.0702585 -0.000398847)
(0.0449266 -0.0656734 -0.000392082)
(0.0438738 -0.061103 -0.000382898)
(0.0425608 -0.0565913 -0.000371446)
(0.0410278 -0.0521902 -0.00035807)
(0.0392984 -0.0479323 -0.000342981)
(0.0374158 -0.0438554 -0.000326554)
(0.0354065 -0.03998 -0.000309021)
(0.033312 -0.0363291 -0.000290744)
(0.0311572 -0.0329109 -0.000271942)
(0.0289789 -0.0297351 -0.000252932)
(0.0267978 -0.0267994 -0.000233898)
(0.0246434 -0.0241032 -0.000215096)
(0.0225312 -0.0216369 -0.000196663)
(0.0204827 -0.0193919 -0.000178785)
(0.0185077 -0.0173539 -0.000161548)
(0.0166207 -0.01551 -0.000145078)
(0.0148264 -0.0138438 -0.000129419)
(0.0131335 -0.0123407 -0.000114643)
(0.0115428 -0.0109836 -0.000100759)
(0.0100581 -0.00975784 -8.78007e-05)
(0.00867828 -0.00864769 -7.57574e-05)
(0.00740404 -0.00763924 -6.46352e-05)
(0.00623301 -0.00671862 -5.44139e-05)
(0.00516431 -0.00587349 -4.50855e-05)
(0.00419503 -0.00509193 -3.6625e-05)
(0.003324 -0.00436298 -2.90218e-05)
(0.00254933 -0.0036756 -2.22595e-05)
(0.00187074 -0.00301948 -1.63358e-05)
(0.00128891 -0.00238612 -1.12565e-05)
(0.000806056 -0.00177417 -7.04101e-06)
(0.000427621 -0.00119785 -3.73665e-06)
(0.000157387 -0.000691085 -1.37765e-06)
(1.06048e-05 -0.000268182 -1.17432e-07)
(0.0369541 -0.111132 -0.000322459)
(0.0394879 -0.109812 -0.000344573)
(0.0418099 -0.107889 -0.000364839)
(0.0438713 -0.105395 -0.000382832)
(0.0456463 -0.102387 -0.000398324)
(0.0470961 -0.0989082 -0.000410982)
(0.0482095 -0.0950268 -0.000420701)
(0.0489605 -0.0907966 -0.000427262)
(0.0493524 -0.0862933 -0.000430685)
(0.0493744 -0.0815757 -0.000430885)
(0.0490459 -0.0767208 -0.000428021)
(0.0483709 -0.0717864 -0.000422137)
(0.0473825 -0.0668441 -0.000413516)
(0.0460976 -0.0619443 -0.000402308)
(0.044559 -0.0571473 -0.000388885)
(0.0427918 -0.052492 -0.000373467)
(0.0408434 -0.0480232 -0.000356466)
(0.0387427 -0.0437658 -0.000338137)
(0.0365364 -0.0397485 -0.000318884)
(0.0342524 -0.0359821 -0.000298953)
(0.0319321 -0.0324801 -0.000278705)
(0.0295992 -0.0292413 -0.000258347)
(0.0272875 -0.0262667 -0.000238172)
(0.0250145 -0.0235465 -0.000218336)
(0.0228057 -0.0210731 -0.000199059)
(0.0206721 -0.0188306 -0.000180438)
(0.0186304 -0.0168059 -0.000162619)
(0.0166865 -0.0149808 -0.000145653)
(0.01485 -0.0133396 -0.000129625)
(0.0131226 -0.011864 -0.000114548)
(0.0115085 -0.0105375 -0.00010046)
(0.0100061 -0.00934278 -8.73467e-05)
(0.00861636 -0.00826475 -7.5217e-05)
(0.00733616 -0.00728794 -6.40428e-05)
(0.00616448 -0.00639886 -5.38157e-05)
(0.00509758 -0.00558435 -4.45031e-05)
(0.00413345 -0.00483284 -3.60874e-05)
(0.00326895 -0.00413301 -2.85412e-05)
(0.00250266 -0.00347427 -2.18521e-05)
(0.00183293 -0.00284636 -1.60057e-05)
(0.00126058 -0.00224133 -1.10091e-05)
(0.000786806 -0.00165818 -6.87285e-06)
(0.000416778 -0.00111158 -3.64188e-06)
(0.000153291 -0.000635767 -1.34178e-06)
(1.0477e-05 -0.00024647 -1.15664e-07)
(0.0405154 -0.117799 -0.000353534)
(0.0431854 -0.116092 -0.000376836)
(0.0455944 -0.113729 -0.000397863)
(0.0477087 -0.110769 -0.000416316)
(0.0494826 -0.107259 -0.000431802)
(0.0508978 -0.103272 -0.000444156)
(0.051923 -0.0988668 -0.000453109)
(0.0525571 -0.0941266 -0.000458648)
(0.0527844 -0.0891167 -0.000460638)
(0.0526224 -0.083923 -0.00045923)
(0.0520723 -0.0786113 -0.000454436)
(0.0511682 -0.0732628 -0.00044655)
(0.0499258 -0.0679362 -0.000435715)
(0.0483916 -0.0627012 -0.00042233)
(0.0465917 -0.0576038 -0.000406629)
(0.0445785 -0.0526974 -0.000389062)
(0.0423833 -0.0480122 -0.000369908)
(0.0400585 -0.0435831 -0.000349621)
(0.0376352 -0.0394248 -0.000328476)
(0.0351608 -0.0355546 -0.000306883)
(0.0326619 -0.0319732 -0.000285077)
(0.0301776 -0.0286835 -0.000263396)
(0.027728 -0.0256759 -0.000242018)
(0.0253421 -0.0229426 -0.000221196)
(0.0230334 -0.0204677 -0.000201047)
(0.0208212 -0.0182368 -0.00018174)
(0.0187122 -0.0162303 -0.000163334)
(0.016718 -0.014431 -0.000145929)
(0.0148402 -0.0128185 -0.000129539)
(0.0130843 -0.0113754 -0.000114214)
(0.0114483 -0.0100821 -9.99347e-05)
(0.00993317 -0.00892194 -8.67106e-05)
(0.0085353 -0.00787784 -7.45095e-05)
(0.0072532 -0.00693488 -6.33186e-05)
(0.00608246 -0.00607848 -5.30998e-05)
(0.00502048 -0.00529591 -4.383e-05)
(0.00406289 -0.00457508 -3.54714e-05)
(0.00320725 -0.00390511 -2.80024e-05)
(0.00245048 -0.00327529 -2.13965e-05)
(0.0017913 -0.00267586 -1.56421e-05)
(0.00122933 -0.00209913 -1.07362e-05)
(0.000765812 -0.00154468 -6.68945e-06)
(0.000404861 -0.00102742 -3.53773e-06)
(0.000148838 -0.000581963 -1.30278e-06)
(1.03083e-05 -0.000225336 -1.13478e-07)
(0.0444802 -0.125001 -0.000388129)
(0.0472776 -0.122828 -0.000412546)
(0.0497762 -0.119963 -0.000434353)
(0.0519199 -0.116456 -0.000453066)
(0.0536834 -0.112385 -0.000468459)
(0.0550263 -0.107815 -0.000480185)
(0.055944 -0.102836 -0.000488198)
(0.0564146 -0.0975215 -0.000492313)
(0.0564529 -0.0919673 -0.000492653)
(0.0560567 -0.0862477 -0.000489203)
(0.0552604 -0.0804557 -0.000482259)
(0.0540789 -0.0746589 -0.000471955)
(0.0525614 -0.0689383 -0.000458717)
(0.0507358 -0.0633484 -0.000442791)
(0.0486594 -0.057952 -0.000424675)
(0.0463666 -0.0527864 -0.000404671)
(0.0439161 -0.0478938 -0.000383287)
(0.0413428 -0.0432931 -0.000360832)
(0.0387004 -0.0390066 -0.000337774)
(0.0360196 -0.0350372 -0.00031438)
(0.0333451 -0.0313903 -0.00029104)
(0.0307001 -0.0280563 -0.000267958)
(0.0281185 -0.0250283 -0.000245427)
(0.0256154 -0.0222887 -0.000223583)
(0.0232142 -0.019823 -0.000202626)
(0.0209224 -0.0176094 -0.000182625)
(0.0187537 -0.0156294 -0.000163697)
(0.0167101 -0.0138603 -0.00014586)
(0.0147978 -0.0122826 -0.00012917)
(0.0130152 -0.0108752 -0.000113611)
(0.0113632 -0.00961928 -9.91919e-05)
(0.00983728 -0.00849579 -8.58738e-05)
(0.00843603 -0.00748831 -7.3643e-05)
(0.00715383 -0.00658054 -6.24513e-05)
(0.00598775 -0.00575846 -5.2273e-05)
(0.00493226 -0.00500861 -4.30599e-05)
(0.00398396 -0.00431938 -3.47823e-05)
(0.00313846 -0.00367963 -2.74019e-05)
(0.00239322 -0.00307913 -2.08964e-05)
(0.00174559 -0.00250825 -1.5243e-05)
(0.00119542 -0.00195987 -1.044e-05)
(0.000742934 -0.00143388 -6.48961e-06)
(0.000392 -0.000945582 -3.42534e-06)
(0.00014396 -0.000529794 -1.26005e-06)
(1.01283e-05 -0.000204837 -1.11126e-07)
(0.048914 -0.132752 -0.000426819)
(0.0518414 -0.130048 -0.000452368)
(0.0544024 -0.126592 -0.000474723)
(0.0565632 -0.12247 -0.000493583)
(0.0582735 -0.117752 -0.000508516)
(0.0595222 -0.112538 -0.000519418)
(0.0602804 -0.106909 -0.000526043)
(0.0605595 -0.100972 -0.000528485)
(0.0603521 -0.0948124 -0.000526684)
(0.0596926 -0.0885357 -0.000520934)
(0.0585942 -0.0822203 -0.000511356)
(0.0571094 -0.0759603 -0.000498404)
(0.0552671 -0.0698201 -0.000482333)
(0.0531306 -0.0638742 -0.000463693)
(0.0507374 -0.0581675 -0.000442814)
(0.0481536 -0.0527514 -0.000420268)
(0.0454181 -0.0476501 -0.000396398)
(0.0425924 -0.0428918 -0.00037174)
(0.0397112 -0.038482 -0.000346598)
(0.0368263 -0.0344292 -0.000321422)
(0.0339645 -0.0307242 -0.000296448)
(0.0311652 -0.0273609 -0.000272018)
(0.028446 -0.0243203 -0.000248288)
(0.0258341 -0.021587 -0.000225492)
(0.0233388 -0.0191375 -0.000203715)
(0.0209762 -0.0169511 -0.000183095)
(0.0187485 -0.0150028 -0.000163652)
(0.0166636 -0.0132712 -0.000145454)
(0.0147188 -0.0117322 -0.00012848)
(0.0129163 -0.0103655 -0.000112748)
(0.0112505 -0.00914952 -9.82085e-05)
(0.0097195 -0.00806596 -8.48457e-05)
(0.00831691 -0.00709671 -7.26034e-05)
(0.00703903 -0.00622613 -6.14492e-05)
(0.00587938 -0.00543929 -5.1327e-05)
(0.00483367 -0.0047233 -4.21992e-05)
(0.00389612 -0.00406613 -3.40155e-05)
(0.00306313 -0.00345715 -2.67443e-05)
(0.00233056 -0.00288613 -2.03494e-05)
(0.00169617 -0.00234395 -1.48114e-05)
(0.00115868 -0.00182377 -1.01191e-05)
(0.000718375 -0.00132603 -6.27507e-06)
(0.000378097 -0.000866232 -3.30384e-06)
(0.000138732 -0.0004794 -1.21428e-06)
(9.9067e-06 -0.000185024 -1.08349e-07)
(0.0538578 -0.141125 -0.000469956)
(0.0568969 -0.13778 -0.000496484)
(0.0595173 -0.133651 -0.000519355)
(0.0616579 -0.12881 -0.000538043)
(0.063297 -0.123369 -0.000552352)
(0.064397 -0.117418 -0.000561961)
(0.0649656 -0.111077 -0.000566929)
(0.0649895 -0.104443 -0.000567148)
(0.0645022 -0.0976363 -0.000562901)
(0.0635147 -0.090748 -0.000554293)
(0.0620825 -0.0838877 -0.0005418)
(0.0602357 -0.077131 -0.000525692)
(0.0580438 -0.0705666 -0.000506568)
(0.0555482 -0.0642489 -0.000484795)
(0.0528227 -0.0582398 -0.000461015)
(0.0499117 -0.0525702 -0.000435615)
(0.0468849 -0.0472756 -0.000409202)
(0.0437825 -0.0423645 -0.00038213)
(0.0406639 -0.0378494 -0.000354914)
(0.0375604 -0.0337217 -0.000327832)
(0.0345179 -0.0299762 -0.000301279)
(0.0315571 -0.0265927 -0.000275441)
(0.0287098 -0.0235546 -0.000250591)
(0.0259868 -0.0208357 -0.000226826)
(0.0234076 -0.0184141 -0.000204316)
(0.0209747 -0.0162614 -0.000183082)
(0.0186976 -0.0143536 -0.000163208)
(0.0165733 -0.0126641 -0.000144667)
(0.0146042 -0.0111697 -0.000127481)
(0.0127844 -0.00984686 -0.000111597)
(0.0111115 -0.00867477 -9.69956e-05)
(0.0095778 -0.00763309 -8.3609e-05)
(0.00817914 -0.0067045 -7.14008e-05)
(0.00690761 -0.00587223 -6.03021e-05)
(0.00575832 -0.00512203 -5.02702e-05)
(0.00472405 -0.00444045 -4.12423e-05)
(0.00380009 -0.00381605 -3.31771e-05)
(0.00298091 -0.00323806 -2.60264e-05)
(0.002263 -0.00269676 -1.97595e-05)
(0.00164283 -0.00218322 -1.43457e-05)
(0.00111939 -0.00169117 -9.77606e-06)
(0.000692012 -0.00122135 -6.04478e-06)
(0.000363291 -0.000789573 -3.17444e-06)
(0.000133091 -0.000430899 -1.16488e-06)
(9.67279e-06 -0.000165954 -1.05399e-07)
(0.0594083 -0.150126 -0.000518391)
(0.0625493 -0.146052 -0.000545804)
(0.0651828 -0.14113 -0.000568795)
(0.0672774 -0.135482 -0.000587079)
(0.0687818 -0.129208 -0.000600218)
(0.0696972 -0.122445 -0.000608213)
(0.0700032 -0.1153 -0.000610894)
(0.0697313 -0.107915 -0.000608529)
(0.0688889 -0.100393 -0.000601189)
(0.0675348 -0.0928631 -0.000589377)
(0.0656994 -0.0854144 -0.00057337)
(0.0634594 -0.0781517 -0.000553827)
(0.0608599 -0.0711415 -0.000531149)
(0.0579845 -0.0644585 -0.000506059)
(0.0548828 -0.0581416 -0.000478998)
(0.0516351 -0.052235 -0.000450658)
(0.0482872 -0.0467517 -0.000421443)
(0.044908 -0.0417085 -0.000391954)
(0.0415339 -0.0370977 -0.000362511)
(0.0382186 -0.0329156 -0.000333577)
(0.0349863 -0.0291403 -0.00030537)
(0.0318745 -0.0257544 -0.000278212)
(0.028896 -0.0227286 -0.000252217)
(0.0260735 -0.0200383 -0.000227584)
(0.0234108 -0.0176523 -0.000204345)
(0.020919 -0.0155437 -0.000182596)
(0.0185946 -0.0136821 -0.000162309)
(0.0164408 -0.0120419 -0.000143511)
(0.0144502 -0.010596 -0.000126137)
(0.012621 -0.00932169 -0.000110171)
(0.0109438 -0.00819582 -9.55318e-05)
(0.0094136 -0.00719895 -8.21758e-05)
(0.00802123 -0.00631237 -7.00225e-05)
(0.00676074 -0.00552009 -5.902e-05)
(0.00562371 -0.00480721 -4.90952e-05)
(0.00460429 -0.00416094 -4.01968e-05)
(0.00369541 -0.00356957 -3.22632e-05)
(0.00289243 -0.00302293 -2.52539e-05)
(0.00219029 -0.00251134 -1.91247e-05)
(0.00158599 -0.00202647 -1.38493e-05)
(0.00107742 -0.0015623 -9.40954e-06)
(0.000664064 -0.0011201 -5.80063e-06)
(0.000347493 -0.000715762 -3.03638e-06)
(0.000127117 -0.000384424 -1.11256e-06)
(9.3964e-06 -0.000147678 -1.02018e-07)
(0.0656006 -0.159848 -0.000572422)
(0.0688136 -0.154894 -0.00060047)
(0.0714477 -0.149066 -0.000623462)
(0.0734383 -0.142472 -0.000640846)
(0.0747749 -0.135269 -0.000652516)
(0.0754277 -0.127578 -0.000658225)
(0.0754255 -0.11956 -0.000658214)
(0.074772 -0.111337 -0.000652523)
(0.0735282 -0.103058 -0.000641676)
(0.0717254 -0.0948292 -0.000625955)
(0.0694477 -0.086776 -0.000606083)
(0.0667446 -0.078978 -0.000582503)
(0.0637104 -0.0715262 -0.000556028)
(0.0604016 -0.0644691 -0.000527159)
(0.05691 -0.0578618 -0.000496692)
(0.0532887 -0.0517225 -0.000465094)
(0.0496177 -0.0460739 -0.000433057)
(0.0459394 -0.0409095 -0.000400959)
(0.0423164 -0.0362271 -0.000369341)
(0.0387778 -0.0320032 -0.00033846)
(0.0353673 -0.0282194 -0.000308696)
(0.0321004 -0.0248427 -0.000280185)
(0.0290041 -0.0218462 -0.000253161)
(0.0260825 -0.0191939 -0.000227663)
(0.0233495 -0.0168562 -0.00020381)
(0.020801 -0.0147985 -0.000181568)
(0.018441 -0.0129918 -0.000160969)
(0.016261 -0.0114055 -0.000141941)
(0.0142584 -0.0100138 -0.000124463)
(0.0124231 -0.0087909 -0.000108444)
(0.010749 -0.00771482 -9.38314e-05)
(0.00922508 -0.00676438 -8.05303e-05)
(0.00784461 -0.00592186 -6.84807e-05)
(0.00659738 -0.00517041 -5.7594e-05)
(0.00547669 -0.00449592 -4.78117e-05)
(0.00447382 -0.00388528 -3.90578e-05)
(0.00358287 -0.00332742 -3.12808e-05)
(0.00279737 -0.00281214 -2.44239e-05)
(0.00211297 -0.00233036 -1.84496e-05)
(0.00152546 -0.00187395 -1.33208e-05)
(0.00103309 -0.00143746 -9.02235e-06)
(0.000634425 -0.00102245 -5.54173e-06)
(0.000330849 -0.000644989 -2.89093e-06)
(0.000120746 -0.000340085 -1.05678e-06)
(9.10652e-06 -0.000130248 -9.84559e-08)
(0.0725823 -0.170267 -0.000633347)
(0.0758375 -0.164312 -0.000661759)
(0.0783949 -0.157422 -0.00068409)
(0.0802331 -0.149771 -0.000700138)
(0.0813063 -0.1415 -0.000709518)
(0.0816388 -0.132793 -0.000712428)
(0.0812271 -0.123794 -0.000708849)
(0.0801346 -0.114676 -0.000699323)
(0.0783919 -0.105567 -0.000684128)
(0.0760912 -0.0966154 -0.000664057)
(0.0732869 -0.0879182 -0.000639595)
(0.0700854 -0.0795855 -0.000611661)
(0.0665511 -0.0716786 -0.000580825)
(0.0627896 -0.0642655 -0.000548003)
(0.0588625 -0.0573711 -0.000513738)
(0.054863 -0.0510257 -0.000478835)
(0.0508408 -0.0452242 -0.000443736)
(0.0468695 -0.0399666 -0.000409078)
(0.0429833 -0.0352276 -0.000375165)
(0.0392341 -0.0309874 -0.000342444)
(0.0356402 -0.0272091 -0.00031108)
(0.0322337 -0.0238623 -0.000281349)
(0.0290197 -0.0209063 -0.000253299)
(0.0260145 -0.0183073 -0.00022707)
(0.023214 -0.0160262 -0.000202628)
(0.0206228 -0.01403 -0.000180012)
(0.0182309 -0.0122838 -0.000159135)
(0.0160359 -0.0107584 -0.000139977)
(0.0140252 -0.00942427 -0.000122427)
(0.0121926 -0.00825713 -0.000106432)
(0.0105249 -0.00723278 -9.18751e-05)
(0.00901395 -0.00633127 -7.86873e-05)
(0.00764797 -0.00553378 -6.67643e-05)
(0.00641889 -0.00482447 -5.60358e-05)
(0.00531653 -0.00418877 -4.64136e-05)
(0.00433365 -0.00361434 -3.78341e-05)
(0.00346212 -0.00309003 -3.02266e-05)
(0.00269644 -0.00260626 -2.35428e-05)
(0.00203084 -0.00215412 -1.77325e-05)
(0.0014617 -0.00172604 -1.2764e-05)
(0.000986274 -0.00131689 -8.6135e-06)
(0.00060333 -0.000928639 -5.2701e-06)
(0.000313282 -0.0005774 -2.73741e-06)
(0.000114063 -0.000298006 -9.98248e-07)
(8.77333e-06 -0.000113715 -9.4458e-08)
(0.0803665 -0.181504 -0.000701269)
(0.0836128 -0.174341 -0.000729613)
(0.0860655 -0.166235 -0.000751024)
(0.0876633 -0.157347 -0.000764984)
(0.0884184 -0.147889 -0.000771582)
(0.0883206 -0.138028 -0.000770745)
(0.0874338 -0.127968 -0.000763015)
(0.0857889 -0.117861 -0.000748676)
(0.0834865 -0.107884 -0.000728591)
(0.0805869 -0.0981555 -0.000703298)
(0.0772101 -0.0888093 -0.000673836)
(0.0734302 -0.0799217 -0.000640859)
(0.069369 -0.0715776 -0.000605421)
(0.0650985 -0.0638105 -0.00056816)
(0.0607273 -0.0566592 -0.000530015)
(0.0563146 -0.0501216 -0.000491509)
(0.0519466 -0.0442002 -0.000453389)
(0.0476643 -0.0388674 -0.000416019)
(0.0435288 -0.0341022 -0.000379927)
(0.0395623 -0.0298627 -0.000345311)
(0.0358028 -0.0261147 -0.0003125)
(0.0322567 -0.0228115 -0.000281551)
(0.0289433 -0.0199147 -0.000252632)
(0.0258577 -0.017379 -0.000225702)
(0.0230061 -0.0151674 -0.000200813)
(0.0203765 -0.0132395 -0.000177863)
(0.0179664 -0.0115622 -0.000156827)
(0.015761 -0.0101019 -0.000137578)
(0.0137528 -0.00883067 -0.000120049)
(0.0119268 -0.00772161 -0.000104112)
(0.0102735 -0.00675201 -8.96806e-05)
(0.00877861 -0.0059006 -7.66331e-05)
(0.00743299 -0.00514975 -6.48876e-05)
(0.00622439 -0.00448303 -5.4338e-05)
(0.00514448 -0.00388683 -4.49117e-05)
(0.00418332 -0.00334866 -3.65218e-05)
(0.00333403 -0.0028581 -2.91083e-05)
(0.0025894 -0.00240567 -2.26083e-05)
(0.00194449 -0.00198307 -1.69785e-05)
(0.00139457 -0.00158299 -1.21778e-05)
(0.000937321 -0.00120085 -8.18597e-06)
(0.000570695 -0.00083885 -4.98504e-06)
(0.000294947 -0.000513165 -2.57718e-06)
(0.000107008 -0.000258288 -9.36479e-07)
(8.42526e-06 -9.81272e-05 -9.02704e-08)
(0.0891821 -0.193482 -0.0007782)
(0.092352 -0.18495 -0.000805871)
(0.0945731 -0.175429 -0.000825272)
(0.0958456 -0.165163 -0.000836386)
(0.0961417 -0.154351 -0.000838989)
(0.0955256 -0.143233 -0.000833623)
(0.0940248 -0.131993 -0.000820543)
(0.0917489 -0.120842 -0.00080069)
(0.0887635 -0.109926 -0.000774652)
(0.0852047 -0.0994075 -0.000743602)
(0.0811573 -0.0893834 -0.000708292)
(0.0767622 -0.079958 -0.000669941)
(0.0721043 -0.0711766 -0.0006293)
(0.0673107 -0.0630892 -0.000587469)
(0.0624519 -0.0556967 -0.000545073)
(0.0576298 -0.0490057 -0.00050299)
(0.0528934 -0.042986 -0.000461657)
(0.0483151 -0.0376145 -0.000421701)
(0.0439218 -0.0328438 -0.00038336)
(0.0397586 -0.0286349 -0.000347026)
(0.0358335 -0.0249342 -0.000312769)
(0.0321692 -0.0216972 -0.000280788)
(0.0287603 -0.0188719 -0.000251037)
(0.0256139 -0.0164153 -0.000223575)
(0.0227166 -0.0142815 -0.000198287)
(0.0200651 -0.0124322 -0.000175145)
(0.017642 -0.010829 -0.000153996)
(0.015439 -0.00944003 -0.000134767)
(0.0134378 -0.00823451 -0.0001173)
(0.0116281 -0.00718718 -0.000101505)
(0.00999282 -0.00627374 -8.72311e-05)
(0.00852108 -0.00547435 -7.4385e-05)
(0.00719858 -0.00477066 -6.28414e-05)
(0.00601542 -0.0041474 -5.25138e-05)
(0.00495998 -0.00359074 -4.33011e-05)
(0.00402394 -0.00308909 -3.51304e-05)
(0.00319833 -0.00263208 -2.79236e-05)
(0.00247702 -0.00221091 -2.16271e-05)
(0.00185378 -0.0018175 -1.61865e-05)
(0.00132455 -0.00144514 -1.15665e-05)
(0.000886149 -0.00108955 -7.73908e-06)
(0.000536773 -0.000753287 -4.68872e-06)
(0.000275781 -0.000452417 -2.40969e-06)
(9.96684e-05 -0.000221042 -8.7221e-07)
(8.03322e-06 -8.35312e-05 -8.56451e-08)
(0.0989809 -0.206372 -0.000863703)
(0.101995 -0.196183 -0.000890029)
(0.103933 -0.185036 -0.000906949)
(0.10475 -0.173163 -0.0009141)
(0.104502 -0.16085 -0.000911947)
(0.103215 -0.148314 -0.00090074)
(0.101009 -0.135812 -0.000881497)
(0.0979566 -0.12352 -0.000854875)
(0.094212 -0.111639 -0.000822206)
(0.0898741 -0.10029 -0.000784363)
(0.0851064 -0.0896017 -0.000742761)
(0.0800096 -0.079635 -0.000698291)
(0.0747333 -0.070454 -0.000652248)
(0.0693624 -0.062064 -0.000605382)
(0.0640172 -0.0544762 -0.000558737)
(0.0587574 -0.0476578 -0.000512837)
(0.0536688 -0.0415834 -0.000468426)
(0.048784 -0.0361987 -0.000425797)
(0.0441566 -0.0314589 -0.000385411)
(0.0397966 -0.0273017 -0.00034736)
(0.035731 -0.0236757 -0.000311876)
(0.0319536 -0.0205202 -0.000278908)
(0.0284725 -0.0177857 -0.000248526)
(0.0252719 -0.0154183 -0.000220591)
(0.0223484 -0.0133748 -0.000195074)
(0.0196814 -0.0116103 -0.000171797)
(0.0172609 -0.0100888 -0.000150669)
(0.0150657 -0.00877469 -0.000131509)
(0.0130832 -0.00763928 -0.000114205)
(0.0112941 -0.00665535 -9.85897e-05)
(0.00968539 -0.00580038 -8.45475e-05)
(0.00824002 -0.00505362 -7.19317e-05)
(0.00694661 -0.00439814 -6.06418e-05)
(0.00579127 -0.00381837 -5.05571e-05)
(0.00476442 -0.00330157 -4.15938e-05)
(0.00385517 -0.00283619 -3.3657e-05)
(0.00305598 -0.00241264 -2.66808e-05)
(0.00235914 -0.00202234 -2.05979e-05)
(0.00175935 -0.00165784 -1.5362e-05)
(0.00125157 -0.00131273 -1.09292e-05)
(0.000833131 -0.000983233 -7.27605e-06)
(0.000501508 -0.000672102 -4.38068e-06)
(0.000255949 -0.000395301 -2.23639e-06)
(9.19938e-05 -0.000186358 -8.05013e-07)
(7.62505e-06 -6.99732e-05 -8.08241e-08)
(0.110136 -0.219974 -0.000961049)
(0.112859 -0.207922 -0.000984831)
(0.114307 -0.194901 -0.000997485)
(0.114525 -0.181254 -0.000999401)
(0.113526 -0.167245 -0.000990706)
(0.111438 -0.153186 -0.0009725)
(0.10834 -0.139297 -0.000945489)
(0.104408 -0.125823 -0.000911179)
(0.0997534 -0.11292 -0.000870578)
(0.094568 -0.100749 -0.000825333)
(0.0889716 -0.0893888 -0.000776504)
(0.0831408 -0.0789222 -0.000725622)
(0.0771782 -0.0693615 -0.000673594)
(0.0712272 -0.0607231 -0.000621661)
(0.0653601 -0.0529713 -0.000570464)
(0.0596797 -0.0460783 -0.000520889)
(0.0542258 -0.039981 -0.000473292)
(0.0490619 -0.0346274 -0.000428223)
(0.0442004 -0.0299446 -0.000385796)
(0.0396735 -0.0258727 -0.000346286)
(0.0354739 -0.0223404 -0.000309634)
(0.0316111 -0.0192899 -0.000275919)
(0.0280662 -0.0166585 -0.00024498)
(0.0248349 -0.0143957 -0.000216777)
(0.0218933 -0.0124501 -0.000191102)
(0.0192293 -0.0107798 -0.00016785)
(0.016818 -0.00934406 -0.000146804)
(0.0146447 -0.00811017 -0.000127834)
(0.0126862 -0.00704686 -0.00011074)
(0.0109279 -0.00612911 -9.53925e-05)
(0.00934954 -0.0053333 -8.1616e-05)
(0.00793773 -0.00464042 -6.92928e-05)
(0.00667622 -0.00403315 -5.82816e-05)
(0.00555365 -0.00349725 -4.84827e-05)
(0.00455735 -0.00301998 -3.97862e-05)
(0.00367822 -0.00259077 -3.21122e-05)
(0.00290679 -0.00220023 -2.53783e-05)
(0.00223658 -0.00184048 -1.95278e-05)
(0.00166112 -0.00150437 -1.45043e-05)
(0.00117615 -0.00118606 -1.02706e-05)
(0.000778232 -0.000882088 -6.79662e-06)
(0.000465178 -0.000595474 -4.06332e-06)
(0.000235413 -0.00034193 -2.05693e-06)
(8.40756e-05 -0.000154328 -7.35682e-07)
(7.17318e-06 -5.74937e-05 -7.55737e-08)
(0.122445 -0.234546 -0.00106847)
(0.124761 -0.220231 -0.0010887)
(0.125632 -0.205058 -0.00109632)
(0.125067 -0.189347 -0.00109141)
(0.123193 -0.173473 -0.00107508)
(0.120102 -0.157712 -0.00104813)
(0.115993 -0.142363 -0.00101228)
(0.111001 -0.127624 -0.00096873)
(0.105348 -0.113698 -0.000919412)
(0.0991815 -0.100689 -0.000865608)
(0.0927101 -0.0887018 -0.000809137)
(0.08606 -0.0777577 -0.00075111)
(0.0794024 -0.067881 -0.00069301)
(0.0728269 -0.0590325 -0.00063563)
(0.0664557 -0.0511808 -0.000580028)
(0.0603386 -0.0442526 -0.000526645)
(0.0545508 -0.0381867 -0.000476131)
(0.0491083 -0.0328969 -0.000428632)
(0.0440484 -0.0283124 -0.00038447)
(0.0393629 -0.0243494 -0.000343578)
(0.0350627 -0.0209396 -0.000306045)
(0.0311252 -0.0180095 -0.00027168)
(0.0275448 -0.0155001 -0.000240429)
(0.0242928 -0.0133512 -0.000212046)
(0.0213554 -0.0115148 -0.000186407)
(0.0187028 -0.00994362 -0.000163255)
(0.0163176 -0.00860019 -0.000142436)
(0.0141725 -0.00744883 -0.000123713)
(0.0122501 -0.00646093 -0.000106934)
(0.0105273 -0.00561015 -9.18962e-05)
(0.00898806 -0.00487498 -7.84604e-05)
(0.00761316 -0.00423595 -6.64596e-05)
(0.00638951 -0.00367731 -5.57786e-05)
(0.00530204 -0.00318485 -4.62863e-05)
(0.0043403 -0.002747 -3.78913e-05)
(0.00349287 -0.00235338 -3.04941e-05)
(0.00275183 -0.00199546 -2.40255e-05)
(0.00210929 -0.00166566 -1.84165e-05)
(0.0015598 -0.00135745 -1.36197e-05)
(0.00109829 -0.00106535 -9.5907e-06)
(0.000721872 -0.000786323 -6.30441e-06)
(0.000427771 -0.00052353 -3.73657e-06)
(0.000214358 -0.000292423 -1.87295e-06)
(7.58782e-05 -0.000125027 -6.63911e-07)
(6.70526e-06 -4.61327e-05 -7.01365e-08)
(0.136539 -0.249673 -0.00119147)
(0.13819 -0.232844 -0.00120589)
(0.138154 -0.215219 -0.00120561)
(0.136571 -0.197259 -0.00119181)
(0.133525 -0.179311 -0.00116526)
(0.129243 -0.161753 -0.00112791)
(0.123881 -0.144837 -0.00108113)
(0.1177 -0.128823 -0.00102721)
(0.110876 -0.113848 -0.000967671)
(0.10366 -0.100049 -0.000904696)
(0.0962046 -0.0874599 -0.000839647)
(0.0887175 -0.0761138 -0.000774308)
(0.081309 -0.0659685 -0.00070966)
(0.0741264 -0.056988 -0.000646976)
(0.0672314 -0.0490859 -0.000586805)
(0.060714 -0.0421895 -0.000529924)