/*--------------------------------*- C++ -*----------------------------------*\
| =========                 |                                                 |
| \\      /  F ield         | OpenFOAM: The Open Source CFD Toolbox           |
|  \\    /   O peration     | Version:  v2012                                 |
|   \\  /    A nd           | Website:  www.openfoam.com                      |
|    \\/     M anipulation  |                                                 |
\*---------------------------------------------------------------------------*/
FoamFile
{
    version     2.0;
    format      ascii;
    class       surfaceScalarField;
    location    "0.1";
    object      alphaPhi0.water;
}
// * * * * * * * * * * * * * * * * * * * * * * * * * * * * * * * * * * * * * //

dimensions      [0 3 -1 0 0 0 0];
oriented        oriented;


internalField   nonuniform List<scalar> 
8145
(
-3.65957e-66
4.05258e-66
7.76586e-75
-1.08537e-63
1.20386e-63
-7.87566e-73
-5.2943e-61
5.82391e-61
1.20209e-70
-2.60978e-58
2.93109e-58
2.31696e-67
-1.01752e-55
2.21858e-55
2.72415e-64
-2.27161e-53
6.96888e-53
2.07036e-61
-1.87485e-52
1.26261e-51
1.4218e-60
-4.03169e-71
2.79943e-51
8.43781e-60
7.92497e-70
1.37106e-76
-2.21399e-70
2.65462e-69
-3.47746e-78
-8.91922e-70
7.61866e-70
-3.16591e-80
-1.31693e-67
1.2936e-67
8.08524e-77
-2.83327e-65
3.23482e-65
6.55399e-74
-8.48966e-63
9.68846e-63
-6.46578e-72
-4.48453e-60
5.0616e-60
1.24254e-69
-1.49197e-57
1.78192e-57
1.83273e-66
-9.5064e-55
2.0573e-54
2.77979e-63
-6.08875e-53
1.94622e-52
6.27538e-61
-1.88059e-52
1.83494e-51
2.3722e-60
-2.94734e-71
2.70035e-51
8.30737e-60
4.40118e-70
2.38339e-77
-1.68365e-14
-2.26438e-12
-2.19338e-19
-8.29599e-18
-4.79622e-14
-3.51149e-21
-2.00438e-25
-2.41563e-17
-1.14974e-24
-4.95333e-33
-6.72516e-25
-2.43717e-32
-5.09635e-33
-1.21936e-32
-5.96014e-40
-5.01554e-33
-1.11939e-32
-4.59595e-40
-3.24649e-33
-1.06295e-32
-3.84976e-40
-1.07071e-33
-5.6451e-33
-1.869e-40
-2.64808e-34
-1.6812e-33
-4.74195e-41
-4.8765e-35
-3.92647e-34
-9.10824e-42
-6.98694e-36
-6.88688e-35
-1.43732e-42
-7.92696e-37
-9.42379e-36
-1.78679e-43
-7.2093e-38
-1.0193e-36
-1.86025e-44
-5.29022e-39
-8.85815e-38
-1.56978e-45
-3.20221e-40
-6.20289e-39
-1.00256e-46
-1.62965e-41
-3.57477e-40
-6.3303e-48
-7.07279e-43
-1.72619e-41
-2.68445e-49
-2.64479e-44
-7.07446e-43
-1.01193e-50
-8.77511e-46
-2.48132e-44
-3.25524e-52
-6.09664e-47
-7.63036e-46
-9.48768e-54
-3.66443e-47
-4.05717e-47
-6.8226e-55
-3.41995e-47
-1.47221e-47
-3.73205e-55
-2.58105e-47
-1.18451e-47
-2.95905e-55
-1.81432e-47
-6.95264e-48
-1.64432e-55
-1.42331e-47
-2.8627e-48
-9.80892e-56
-1.22896e-47
-9.12555e-49
-5.89553e-56
-1.11906e-47
1.17681e-49
-3.44112e-56
-7.49209e-48
5.34505e-49
-1.32243e-56
-3.15052e-48
6.65114e-49
3.76977e-57
-6.28309e-49
4.29424e-49
6.39322e-57
-5.00863e-50
1.40252e-49
2.23536e-57
-2.92451e-60
2.20417e-50
3.36058e-58
-1.9927e-68
7.09758e-60
1.36928e-68
-1.41301e-69
6.02637e-68
-7.84825e-77
-4.81962e-69
4.78114e-69
-1.47042e-79
-6.27797e-67
7.55311e-67
4.90159e-76
-1.57469e-64
1.89679e-64
3.91125e-73
-4.79227e-62
5.75685e-62
-3.70388e-71
-2.73471e-59
3.2381e-59
8.95258e-69
-8.50833e-57
1.0271e-56
8.55584e-66
-5.17032e-54
1.20413e-53
1.80546e-62
-1.17256e-52
4.34435e-52
1.52553e-60
-1.72181e-52
2.16763e-51
3.17723e-60
-1.44607e-71
2.22164e-51
7.40553e-60
2.60601e-70
9.61811e-78
-1.72318e-14
-2.04937e-12
-2.166e-19
-9.36179e-18
-4.77527e-14
-3.63959e-21
-5.32059e-25
-2.6201e-17
-1.37303e-24
-4.78378e-33
-2.31692e-24
-7.57167e-32
-4.75673e-33
-1.1587e-32
-6.16313e-40
-4.9769e-33
-1.05291e-32
-4.30678e-40
-4.02217e-33
-1.08281e-32
-3.73905e-40
-1.55532e-33
-7.15991e-33
-2.23574e-40
-4.26749e-34
-2.42611e-33
-6.52059e-41
-8.69309e-35
-6.25825e-34
-1.40823e-41
-1.35906e-35
-1.21002e-34
-2.53978e-42
-1.65404e-36
-1.80481e-35
-3.52157e-43
-1.60553e-37
-2.09382e-36
-4.03341e-44
-1.24185e-38
-1.94212e-37
-3.68485e-45
-7.85651e-40
-1.43344e-38
-2.52396e-46
-4.15105e-41
-8.62913e-40
-1.65076e-47
-1.86616e-42
-4.31922e-41
-7.37305e-49
-7.22797e-44
-1.82929e-42
-2.90124e-50
-2.43402e-45
-6.6261e-44
-9.69691e-52
-8.03779e-47
-2.06784e-45
-2.81716e-53
-1.89603e-47
-6.26605e-47
-8.95609e-55
-1.78319e-47
-7.53061e-48
-2.1249e-55
-1.57915e-47
-5.52369e-48
-1.63791e-55
-1.01042e-47
-3.94296e-48
-1.05967e-55
-6.57557e-48
-1.53499e-48
-5.00845e-56
-4.05606e-48
-4.39749e-49
-2.33491e-56
-2.42217e-48
4.64776e-50
-9.04026e-57
-1.41751e-48
1.6405e-49
-2.03618e-57
-6.54075e-49
1.56157e-49
9.69167e-58
-1.89735e-49
9.95529e-50
1.45749e-57
-2.69135e-50
4.27812e-50
7.14932e-58
-5.12468e-59
9.52572e-51
1.78938e-58
-4.32361e-67
1.19336e-58
2.48927e-67
-1.84158e-68
1.27609e-66
-1.58165e-75
-7.48611e-68
6.46054e-68
3.19604e-78
-1.11424e-65
1.18815e-65
8.51105e-75
-2.81355e-63
3.00359e-63
6.3754e-72
-9.43e-61
9.99182e-61
-5.74407e-70
-4.06442e-58
4.38342e-58
1.74894e-67
-1.50104e-55
2.9826e-55
2.42473e-64
-2.09267e-53
4.94186e-53
8.31242e-62
-2.12161e-52
8.19781e-52
3.14089e-60
-1.16974e-52
2.32957e-51
3.60283e-60
-8.27217e-72
1.13855e-51
4.91942e-60
8.78226e-71
8.60554e-79
-1.74335e-14
-1.85726e-12
-2.20931e-19
-1.01826e-17
-4.73303e-14
-4.99932e-21
-2.10123e-24
-2.76065e-17
-1.71244e-24
-4.63697e-33
-9.30019e-24
-2.93703e-31
-4.32511e-33
-1.11815e-32
-6.7736e-40
-4.77035e-33
-9.72672e-33
-5.28465e-40
-4.55906e-33
-1.04618e-32
-4.90174e-40
-2.17436e-33
-8.51147e-33
-3.37004e-40
-6.70484e-34
-3.38032e-33
-1.08741e-40
-1.52255e-34
-9.73454e-34
-2.48791e-41
-2.6218e-35
-2.09031e-34
-4.83098e-42
-3.46755e-36
-3.42171e-35
-7.21159e-43
-3.62692e-37
-4.31934e-36
-8.95005e-44
-2.9899e-38
-4.31212e-37
-8.81427e-45
-1.99462e-39
-3.39279e-38
-6.48096e-46
-1.0991e-40
-2.15446e-39
-4.42101e-47
-5.12507e-42
-1.12416e-40
-2.08045e-48
-2.05569e-43
-4.92982e-42
-8.53338e-50
-7.16909e-45
-1.84443e-43
-2.95935e-51
-2.22395e-46
-5.93781e-45
-8.86847e-53
-1.34745e-47
-1.67514e-46
-2.41558e-54
-8.06128e-48
-7.58717e-48
-1.47567e-55
-7.81007e-48
-2.22597e-48
-7.95601e-56
-5.71988e-48
-1.68562e-48
-5.94692e-56
-3.39008e-48
-8.83412e-49
-2.82994e-56
-1.97818e-48
-2.12192e-49
-1.16187e-56
-9.96815e-49
2.18218e-50
-4.09651e-57
-4.62629e-49
7.76682e-50
-6.94953e-58
-1.9129e-49
6.02714e-50
3.38559e-58
-6.12188e-50
3.33021e-50
4.33875e-58
-1.09445e-50
1.35995e-50
2.35475e-58
-7.86305e-58
3.08892e-51
7.182e-59
-1.94768e-65
1.76819e-57
3.88678e-66
-6.11814e-66
5.66216e-65
-6.60775e-74
-5.14533e-66
2.19193e-65
3.02009e-75
-1.00184e-64
1.18399e-64
9.68326e-74
-1.99274e-62
2.29177e-62
5.3796e-71
-7.4158e-60
8.40439e-60
-5.04313e-69
-2.27058e-57
2.70447e-57
1.3332e-66
-1.28711e-54
2.5409e-54
2.35388e-63
-5.47336e-53
1.48948e-52
2.74884e-61
-2.72991e-52
1.41873e-51
5.59557e-60
-7.15947e-53
2.97803e-51
4.50416e-60
-1.55721e-72
2.30838e-52
1.76857e-60
2.55908e-71
1.52874e-79
-1.74222e-14
-1.6858e-12
-1.72919e-19
-1.07459e-17
-4.66144e-14
-5.51425e-21
-7.06974e-24
-2.84892e-17
-2.07506e-24
-4.57288e-33
-2.81224e-23
-1.24057e-30
-3.99698e-33
-1.09385e-32
-7.41287e-40
-4.65449e-33
-8.76988e-33
-4.65814e-40
-4.49969e-33
-1.00501e-32
-4.10723e-40
-2.88415e-33
-9.21426e-33
-3.3505e-40
-1.01968e-33
-4.51234e-33
-1.36731e-40
-2.60684e-34
-1.46825e-33
-3.69021e-41
-4.97957e-35
-3.53922e-34
-8.42549e-42
-7.26915e-36
-6.39422e-35
-1.42655e-42
-8.25786e-37
-8.91467e-36
-1.98e-43
-7.35381e-38
-9.63424e-37
-2.1258e-44
-5.23648e-39
-8.18607e-38
-1.69289e-45
-3.03575e-40
-5.5518e-39
-1.21488e-46
-1.47439e-41
-3.04974e-40
-6.04975e-48
-6.13068e-43
-1.39231e-41
-2.59201e-49
-2.2158e-44
-5.38925e-43
-9.33409e-51
-7.02706e-46
-1.79186e-44
-2.89549e-52
-2.113e-47
-5.14688e-46
-7.88857e-54
-3.63336e-48
-1.36287e-47
-2.1454e-55
-3.24161e-48
-1.05237e-48
-3.66491e-56
-2.92959e-48
-5.7624e-49
-2.50066e-56
-1.71838e-48
-4.00934e-49
-1.63345e-56
-9.40924e-49
-1.11434e-49
-5.75975e-57
-4.66031e-49
8.82531e-51
-1.90419e-57
-1.9092e-49
3.51878e-50
-2.95356e-58
-6.78582e-50
2.50699e-50
1.42276e-58
-1.93838e-50
1.16887e-50
1.50087e-58
-3.31262e-51
3.85815e-51
7.29456e-59
-1.36087e-56
7.18359e-52
2.12709e-59
-3.2822e-63
2.96488e-56
6.79536e-65
-2.569e-63
9.27967e-63
-1.07324e-71
-1.73774e-63
7.9922e-63
1.7308e-72
-1.03167e-63
7.21061e-63
6.21546e-72
-9.34489e-62
1.24176e-61
3.03618e-70
-3.93696e-59
4.77358e-59
-2.79561e-68
-1.14698e-56
1.42411e-56
6.14095e-66
-5.88587e-54
1.3124e-53
1.34716e-62
-1.38048e-52
4.48706e-52
8.56749e-61
-5.80962e-52
3.48098e-51
1.29401e-59
-7.8106e-54
7.62534e-51
9.74933e-60
-4.72279e-73
1.14699e-53
2.37501e-61
1.53497e-74
4.38289e-80
-1.73945e-14
-1.53218e-12
-1.85486e-19
-1.10734e-17
-4.49465e-14
-5.66275e-21
-1.75039e-23
-2.89861e-17
-2.02972e-24
-4.55394e-33
-6.15495e-23
-2.58062e-30
-3.56973e-33
-1.09189e-32
-7.13455e-40
-4.51417e-33
-7.59247e-33
-4.74206e-40
-4.41877e-33
-9.57891e-33
-4.61296e-40
-3.57672e-33
-9.15379e-33
-3.78614e-40
-1.4922e-33
-5.76283e-33
-1.86434e-40
-4.3471e-34
-2.14385e-33
-5.68024e-41
-9.29379e-35
-5.8523e-34
-1.47301e-41
-1.51666e-35
-1.17918e-34
-2.79249e-42
-1.88498e-36
-1.83039e-35
-4.3361e-43
-1.83902e-37
-2.15515e-36
-5.08966e-44
-1.41636e-38
-2.00391e-37
-4.43701e-45
-8.74806e-40
-1.46962e-38
-3.39299e-46
-4.46169e-41
-8.60884e-40
-1.80689e-47
-1.93072e-42
-4.1299e-41
-8.15146e-49
-7.23737e-44
-1.66263e-42
-3.06224e-50
-2.38025e-45
-5.72063e-44
-9.85674e-52
-6.89904e-47
-1.69865e-45
-2.7705e-53
-2.43815e-48
-4.36929e-47
-6.77301e-55
-1.04495e-48
-1.25059e-48
-2.36747e-56
-1.07371e-48
-1.49244e-49
-8.96616e-57
-8.79152e-49
-1.11852e-49
-6.96328e-57
-4.22859e-49
-5.13866e-50
-3.04475e-57
-2.03654e-49
3.38497e-51
-8.30659e-58
-7.94673e-50
1.40169e-50
-1.21684e-58
-2.41464e-50
9.89245e-51
5.98437e-59
-5.58483e-51
3.98073e-51
5.15365e-59
-7.60758e-52
1.0377e-51
2.02351e-59
-2.3705e-55
1.45066e-52
4.78285e-60
-4.63e-61
4.68066e-55
1.17414e-63
-5.50501e-61
1.25564e-60
-1.51278e-69
-4.82399e-61
1.82815e-60
5.12468e-70
-2.34235e-61
1.86603e-60
1.80208e-69
-1.4926e-60
1.47984e-60
3.52288e-69
-3.3281e-58
3.79783e-58
-3.03353e-67
-1.36106e-55
2.29567e-55
1.02089e-64
-2.57267e-53
6.8151e-53
7.39382e-62
-5.15259e-52
1.86974e-51
3.55884e-60
-2.56673e-51
1.49469e-50
5.24465e-59
-1.92386e-55
3.6679e-50
4.3926e-59
-7.33548e-76
8.96315e-56
7.81834e-63
7.03194e-77
6.48527e-83
-1.77215e-14
-1.39284e-12
-1.84935e-19
-1.11814e-17
-4.26854e-14
-5.67679e-21
-3.27574e-23
-2.91181e-17
-1.91978e-24
-4.65211e-33
-1.03695e-22
-4.6192e-30
-3.01428e-33
-1.13234e-32
-6.52346e-40
-4.34244e-33
-6.0794e-33
-3.58084e-40
-4.67713e-33
-8.74652e-33
-4.07463e-40
-4.10049e-33
-8.76229e-33
-3.56351e-40
-2.0962e-33
-6.9526e-33
-2.32799e-40
-7.02624e-34
-3.05557e-33
-8.60418e-41
-1.70642e-34
-9.39818e-34
-2.57125e-41
-3.12983e-35
-2.15021e-34
-5.50702e-42
-4.3051e-36
-3.71163e-35
-9.50087e-43
-4.66247e-37
-4.82821e-36
-1.2219e-43
-3.92975e-38
-4.97317e-37
-1.17408e-44
-2.62226e-39
-3.98252e-38
-9.63227e-46
-1.42099e-40
-2.51908e-39
-5.54069e-47
-6.45326e-42
-1.28469e-40
-2.65812e-48
-2.52011e-43
-5.43061e-42
-1.05034e-49
-8.62652e-45
-1.94474e-43
-3.52643e-51
-2.61835e-46
-5.99119e-45
-1.03017e-52
-7.13665e-48
-1.59638e-46
-2.60332e-54
-4.46864e-49
-3.70809e-48
-6.02143e-56
-2.88141e-49
-1.48631e-49
-3.56258e-57
-2.91089e-49
-1.91121e-50
-1.91071e-57
-1.9974e-49
-1.26212e-50
-1.31302e-57
-8.45492e-50
1.37647e-51
-3.93478e-58
-3.29354e-50
5.36536e-51
-4.8418e-59
-9.20224e-51
3.92432e-51
2.50389e-59
-1.76494e-51
1.56892e-51
1.91287e-59
-1.88794e-52
3.73157e-52
6.20367e-60
-1.27188e-54
4.8468e-53
1.17492e-60
-2.6838e-59
1.63182e-54
6.25542e-63
-3.74045e-59
6.97714e-59
-8.95868e-68
-6.36142e-59
1.69513e-58
5.55992e-68
-8.56203e-59
3.13477e-58
3.33002e-67
-7.64954e-59
5.00976e-58
1.19461e-66
-4.20625e-57
5.01748e-57
-2.88978e-66
-1.43971e-54
3.1435e-54
1.56625e-63
-1.53421e-52
4.35397e-52
4.98792e-61
-2.81331e-51
1.03733e-50
2.0306e-59
-1.39183e-50
7.99191e-50
2.87117e-58
-1.29074e-57
1.92585e-49
2.42154e-58
-3.39983e-78
1.38425e-58
5.18449e-65
1.04965e-77
2.83938e-85
-1.65475e-14
-1.26585e-12
-1.54789e-19
-1.10403e-17
-3.85753e-14
-5.08335e-21
-4.91725e-23
-2.86891e-17
-2.22081e-24
-4.96695e-33
-1.43895e-22
-8.62162e-30
-2.32286e-33
-1.24547e-32
-8.00827e-40
-3.73544e-33
-4.47926e-33
-3.04609e-40
-4.20711e-33
-7.61171e-33
-3.69684e-40
-3.8887e-33
-8.12825e-33
-3.34565e-40
-2.80663e-33
-7.22796e-33
-2.61757e-40
-1.09523e-33
-4.24757e-33
-1.23089e-40
-3.07692e-34
-1.46216e-33
-4.26852e-41
-6.35706e-35
-3.86034e-34
-1.05697e-41
-9.87417e-36
-7.42091e-35
-2.03199e-42
-1.20045e-36
-1.09296e-35
-2.91704e-43
-1.11721e-37
-1.2586e-36
-3.12026e-44
-8.15239e-39
-1.10715e-37
-2.76471e-45
-4.75539e-40
-7.63071e-39
-1.73526e-46
-2.29412e-41
-4.18345e-40
-8.96456e-48
-9.41917e-43
-1.87884e-41
-3.77205e-49
-3.37303e-44
-7.0744e-43
-1.33426e-50
-1.07071e-45
-2.27645e-44
-4.08047e-52
-3.04457e-47
-6.31871e-46
-1.076e-53
-7.80804e-49
-1.51176e-47
-2.52598e-55
-8.45016e-50
-3.1403e-49
-5.37795e-57
-6.88459e-50
-1.80538e-50
-5.32268e-58
-6.50896e-50
-1.38554e-51
-3.00323e-58
-3.50543e-50
3.93004e-52
-1.66167e-58
-1.33737e-50
2.00206e-51
-2.0158e-59
-4.02294e-51
1.44031e-51
1.01938e-59
-7.67622e-52
6.75039e-52
8.3562e-60
-8.43318e-53
1.73314e-52
2.67358e-60
-2.51733e-54
2.46439e-53
5.23816e-61
-1.47831e-57
1.62964e-54
7.65824e-63
-1.9253e-57
3.69278e-57
-4.92554e-66
-2.97318e-57
8.71313e-57
3.28376e-66
-5.01158e-57
1.79013e-56
2.11566e-65
-1.09959e-56
6.16949e-56
1.56503e-64
-2.56388e-56
5.26989e-55
-2.83037e-64
-1.5834e-53
4.56996e-53
2.51088e-62
-9.79239e-52
2.82786e-51
3.47263e-60
-1.56216e-50
5.58012e-50
1.17856e-58
-6.87985e-50
3.89935e-49
1.52031e-57
-3.41652e-60
8.80306e-49
1.22061e-57
-7.19076e-79
2.15419e-61
1.35878e-67
5.2765e-78
6.21695e-86
-1.42137e-14
-1.15236e-12
-1.72287e-19
-1.05973e-17
-3.422e-14
-4.45441e-21
-6.25192e-23
-2.75133e-17
-2.14689e-24
-5.6338e-33
-1.73768e-22
-8.51138e-30
-1.63967e-33
-1.46564e-32
-7.04561e-40
-2.99255e-33
-2.98019e-33
-1.90364e-40
-3.89557e-33
-6.22812e-33
-3.29003e-40
-4.13023e-33
-7.26221e-33
-3.49352e-40
-3.43647e-33
-7.05923e-33
-3.04765e-40
-1.63943e-33
-5.42649e-33
-1.85245e-40
-5.39929e-34
-2.22069e-33
-7.16478e-41
-1.27344e-34
-6.74812e-34
-1.99887e-41
-2.29254e-35
-1.47891e-34
-4.25926e-42
-3.15486e-36
-2.53141e-35
-6.95317e-43
-3.2667e-37
-3.27326e-36
-8.32945e-44
-2.63108e-38
-3.17952e-37
-8.02793e-45
-1.67295e-39
-2.40265e-38
-5.55082e-46
-8.6878e-41
-1.43004e-39
-3.12869e-47
-3.80135e-42
-6.89787e-41
-1.42137e-48
-1.43983e-43
-2.76631e-42
-5.36995e-50
-4.81855e-45
-9.40475e-44
-1.74062e-51
-1.44859e-46
-2.74289e-45
-4.83896e-53
-3.96139e-48
-6.88608e-47
-1.19789e-54
-9.89082e-50
-1.46947e-48
-2.5677e-56
-1.27876e-50
-2.62747e-50
-5.30042e-58
-1.14362e-50
-1.33382e-51
-5.66049e-59
-9.79949e-51
3.78669e-53
-2.91666e-59
-4.38452e-51
4.77335e-52
-7.00402e-60
-1.53611e-51
3.74525e-52
3.32306e-60
-3.34923e-52
2.18945e-52
3.23898e-60
-3.85718e-53
7.13599e-53
1.16381e-60
-2.45706e-54
1.41763e-53
2.40754e-61
-6.84475e-56
1.41841e-54
6.87088e-63
-8.92421e-56
1.63793e-55
-2.2555e-64
-1.46676e-55
4.08588e-55
1.73606e-64
-2.78357e-55
9.22594e-55
1.18801e-63
-8.7775e-55
3.73598e-54
1.01882e-62
-7.358e-54
3.37382e-53
-1.76039e-62
-2.14894e-52
7.38006e-52
4.5396e-61
-5.52939e-51
1.78466e-50
2.35689e-59
-6.43988e-50
2.34516e-49
5.45043e-58
-2.57201e-49
1.32846e-48
5.99903e-57
-9.66059e-63
2.70125e-48
4.64707e-57
-3.39578e-79
5.72545e-63
3.59839e-70
2.84643e-78
2.83153e-86
-1.17801e-14
-1.05364e-12
-8.9301e-20
-9.87118e-18
-2.97769e-14
-3.15401e-21
-7.02282e-23
-2.51232e-17
-2.28669e-24
-6.7798e-33
-1.89917e-22
-1.32564e-29
-1.03111e-33
-1.83245e-32
-1.01825e-39
-2.17944e-33
-1.71814e-33
-1.15299e-40
-3.32548e-33
-4.65111e-33
-2.31821e-40
-3.65381e-33
-6.2837e-33
-2.71439e-40
-3.39339e-33
-6.60521e-33
-2.87311e-40
-2.32346e-33
-5.66481e-33
-2.25005e-40
-9.09673e-34
-3.2856e-33
-1.11881e-40
-2.53634e-34
-1.13844e-33
-3.61371e-41
-5.39961e-35
-2.98363e-34
-8.89332e-42
-8.46601e-36
-5.98588e-35
-1.67566e-42
-9.8651e-37
-8.72189e-36
-2.24634e-43
-8.85945e-38
-9.47232e-37
-2.36761e-44
-6.22126e-39
-7.92345e-38
-1.82405e-45
-3.52215e-40
-5.17735e-39
-1.13722e-46
-1.66782e-41
-2.70803e-40
-5.65313e-48
-6.78832e-43
-1.17193e-41
-2.3166e-49
-2.43289e-44
-4.27247e-43
-8.0896e-51
-7.84289e-46
-1.32989e-44
-2.41004e-52
-2.32328e-47
-3.55505e-46
-6.39683e-54
-6.52979e-49
-8.10188e-48
-1.47971e-55
-2.00476e-50
-1.52018e-49
-3.18463e-57
-2.48572e-51
-2.18706e-51
-6.85865e-59
-1.52621e-51
2.01656e-53
-5.56437e-60
-8.91566e-52
1.64111e-52
-1.08866e-60
-3.95136e-52
1.79499e-52
7.10857e-61
-1.24333e-52
1.12262e-52
8.7026e-61
-2.72531e-53
4.56869e-53
4.59163e-61
-4.37504e-54
1.28031e-53
1.83717e-61
-2.56031e-54
5.56491e-54
1.72839e-62
-3.29602e-54
5.85872e-54
-8.32821e-63
-5.67521e-54
1.46889e-53
7.07653e-63
-1.1431e-53
3.469e-53
4.94961e-62
-3.83517e-53
1.3318e-52
3.90416e-61
-2.60392e-52
9.38551e-52
-4.80295e-61
-3.10055e-51
1.04429e-50
7.21696e-60
-3.40488e-50
1.17046e-49
1.66658e-58
-2.00551e-49
8.28221e-49
2.09475e-57
-4.64652e-49
2.7841e-48
1.4479e-56
-5.30731e-64
3.34178e-48
8.58587e-57
-1.68263e-79
5.09042e-63
2.0591e-71
1.24161e-78
1.18481e-86
-9.22722e-15
-9.7234e-13
-9.52298e-20
-8.28533e-18
-2.53871e-14
-2.57001e-21
-7.17554e-23
-2.15293e-17
-1.86716e-24
-8.54656e-33
-1.91929e-22
-1.18492e-29
-5.607e-34
-2.39858e-32
-1.18479e-39
-1.32677e-33
-8.69943e-34
-6.71754e-41
-2.63945e-33
-3.06297e-33
-2.02168e-40
-3.40333e-33
-5.04159e-33
-2.88791e-40
-3.56693e-33
-5.77722e-33
-3.14625e-40
-2.95767e-33
-5.52945e-33
-2.52528e-40
-1.44934e-33
-4.41412e-33
-1.63644e-40
-5.01528e-34
-1.84037e-33
-6.04844e-41
-1.26652e-34
-6.04255e-34
-1.79011e-41
-2.28626e-35
-1.3989e-34
-3.90613e-42
-3.06425e-36
-2.33004e-35
-5.9384e-43
-3.12488e-37
-2.90632e-36
-6.961e-44
-2.46618e-38
-2.74872e-37
-6.15258e-45
-1.54519e-39
-2.00689e-38
-4.33935e-46
-8.04225e-41
-1.15459e-39
-2.40106e-47
-3.5865e-42
-5.46112e-41
-1.08468e-48
-1.41121e-43
-2.17246e-42
-4.16037e-50
-5.02665e-45
-7.39597e-44
-1.36053e-51
-1.67537e-46
-2.17068e-45
-3.98847e-53
-5.52553e-48
-5.51474e-47
-1.03406e-54
-2.06997e-49
-1.20918e-48
-2.58913e-56
-1.3688e-50
-2.22695e-50
-6.52504e-58
-3.08871e-51
1.44558e-52
-2.60167e-59
-1.29664e-51
3.98524e-52
-2.04722e-60
-5.77513e-52
3.18525e-52
9.49114e-61
-2.51667e-52
2.31399e-52
1.3363e-60
-1.22418e-52
1.69233e-52
1.10499e-60
-8.38818e-53
1.4158e-52
1.15188e-60
-7.91197e-53
1.47912e-52
3.93273e-61
-9.66473e-53
1.76492e-52
-2.61456e-61
-1.68505e-52
3.9798e-52
2.15364e-61
-3.3841e-52
9.56899e-52
1.49175e-60
-1.01353e-51
3.14211e-51
9.97389e-60
-5.01682e-51
1.6224e-50
-7.97816e-60
-3.37007e-50
1.09231e-49
8.5847e-59
-2.00993e-49
6.85043e-49
1.06694e-57
-6.42986e-49
2.76148e-48
7.48484e-57
-4.88239e-49
5.17802e-48
2.83518e-56
-6.54754e-64
3.35011e-48
9.20223e-57
-6.08323e-80
3.38356e-63
1.15023e-71
6.83854e-79
7.05488e-87
-7.30325e-15
-9.18331e-13
-9.70681e-20
-6.70101e-18
-2.13432e-14
-2.33854e-21
-6.80537e-23
-1.83322e-17
-1.63338e-24
-1.11088e-32
-1.82598e-22
-1.38901e-29
-2.74648e-34
-3.23977e-32
-1.7766e-39
-6.81414e-34
-4.11232e-34
-3.138e-41
-1.88363e-33
-1.6568e-33
-1.16139e-40
-2.82399e-33
-3.66503e-33
-2.15288e-40
-3.11314e-33
-4.90762e-33
-2.6306e-40
-2.86556e-33
-5.13995e-33
-2.51278e-40
-2.11962e-33
-4.5768e-33
-2.03242e-40
-9.50453e-34
-2.77339e-33
-9.52347e-41
-2.83947e-34
-1.15836e-33
-3.50622e-41
-6.03283e-35
-3.07877e-34
-8.74944e-42
-9.6139e-36
-6.04641e-35
-1.53429e-42
-1.14853e-36
-8.99643e-36
-2.05498e-43
-1.04581e-37
-9.96885e-37
-2.13825e-44
-7.43123e-39
-8.36791e-38
-1.75261e-45
-4.3259e-40
-5.44194e-39
-1.10583e-46
-2.16148e-41
-2.85828e-40
-5.60674e-48
-9.64805e-43
-1.26643e-41
-2.41439e-49
-3.98031e-44
-4.8706e-43
-8.94207e-51
-1.59908e-45
-1.65211e-44
-3.02979e-52
-6.91855e-47
-5.07798e-46
-9.41287e-54
-3.99486e-48
-1.49667e-47
-3.07007e-55
-4.23423e-49
-4.47978e-49
-1.19243e-56
-9.1794e-50
4.19225e-51
-7.8127e-58
-3.0239e-50
1.46149e-50
-6.20848e-59
-1.26254e-50
1.02899e-50
1.99895e-59
-6.37756e-51
7.07831e-51
2.94583e-59
-3.85113e-51
5.34499e-51
2.93962e-59
-2.77547e-51
4.59228e-51
3.63897e-59
-2.39069e-51
4.53631e-51
1.23206e-59
-2.45306e-51
5.01035e-51
-7.73366e-60
-3.91163e-51
8.40664e-51
5.07201e-60
-7.51272e-51
2.00475e-50
3.45164e-59
-1.87716e-50
5.4884e-50
1.87803e-58
-6.59844e-50
2.05268e-49
-9.71226e-59
-2.72883e-49
8.98424e-49
7.91785e-58
-9.38498e-49
3.53243e-48
5.96999e-57
-1.72724e-48
9.30386e-48
2.64847e-56
-7.03909e-49
1.31019e-47
7.03499e-56
-2.08309e-64
2.73565e-48
8.50405e-57
-4.78844e-80
1.79865e-63
7.87715e-72
1.19699e-79
2.9706e-87
-5.57311e-15
-8.85879e-13
-7.25136e-20
-5.31172e-18
-1.77448e-14
-2.10699e-21
-6.04215e-23
-1.54785e-17
-1.51233e-24
-1.47074e-32
-1.51131e-22
-1.24964e-29
-1.3594e-34
-4.47814e-32
-2.87709e-39
-2.75447e-34
-2.39675e-34
-2.05573e-41
-1.11351e-33
-6.95096e-34
-6.9613e-41
-2.1753e-33
-2.32265e-33
-1.6322e-40
-2.91348e-33
-3.81191e-33
-2.22826e-40
-3.09657e-33
-4.50405e-33
-2.2661e-40
-2.68689e-33
-4.35299e-33
-1.94564e-40
-1.60771e-33
-3.68932e-33
-1.26764e-40
-5.81561e-34
-1.92133e-33
-5.90299e-41
-1.50555e-34
-6.1669e-34
-1.74301e-41
-2.9573e-35
-1.48341e-34
-3.6863e-42
-4.30947e-36
-2.72882e-35
-5.72774e-43
-4.6931e-37
-3.70079e-36
-7.49527e-44
-3.92533e-38
-3.71336e-37
-7.43328e-45
-2.62145e-39
-2.84011e-38
-5.54859e-46
-1.50623e-40
-1.70088e-39
-3.23818e-47
-7.89938e-42
-8.61391e-41
-1.60655e-48
-3.99184e-43
-3.8788e-42
-6.9758e-50
-2.08993e-44
-1.61873e-43
-2.88739e-51
-1.29332e-45
-6.58083e-45
-1.16463e-52
-1.14813e-46
-2.84584e-46
-5.46315e-54
-1.64765e-47
-1.32388e-47
-3.34259e-55
-3.72795e-48
1.46937e-49
-3.06546e-56
-1.15518e-48
5.63959e-49
-2.65622e-57
-4.53597e-49
3.72709e-49
6.84899e-58
-2.18406e-49
2.40962e-49
1.01077e-57
-1.26044e-49
1.72354e-49
9.74539e-58
-8.62289e-50
1.40329e-49
1.15529e-57
-6.97314e-50
1.31404e-49
3.69652e-58
-6.50115e-50
1.39572e-49
-2.27527e-58
-7.77724e-50
1.67054e-49
1.09844e-58
-1.32609e-49
3.3772e-49
6.31555e-58
-2.71967e-49
7.79933e-49
2.8788e-57
-6.9585e-49
2.1683e-48
-9.64089e-58
-1.89869e-48
6.65291e-48
6.53229e-57
-4.29358e-48
1.81644e-47
3.29548e-56
-5.72608e-48
3.58189e-47
1.06415e-55
-6.25261e-49
4.33978e-47
2.35411e-55
-1.45011e-64
1.83865e-48
6.72928e-57
-8.98467e-81
2.59181e-64
2.52867e-72
8.85992e-80
9.08568e-88
-4.08482e-15
-8.66146e-13
-1.12811e-19
-4.08774e-18
-1.46383e-14
-2.00592e-21
-4.03733e-23
-1.29741e-17
-1.0343e-24
-1.97252e-32
-9.08724e-23
-5.83831e-30
-8.81574e-35
-6.31697e-32
-3.01009e-39
-1.1496e-34
-1.95662e-34
-1.12898e-41
-5.40952e-34
-2.07911e-34
-2.4762e-41
-1.46661e-33
-1.19518e-33
-9.6498e-41
-2.34414e-33
-2.62321e-33
-1.64298e-40
-2.71904e-33
-3.70983e-33
-1.82546e-40
-2.6307e-33
-3.90428e-33
-1.80796e-40
-2.26263e-33
-3.85294e-33
-1.47244e-40
-1.05018e-33
-2.59512e-33
-8.50491e-41
-3.45683e-34
-1.09931e-33
-3.1484e-41
-8.61015e-35
-3.3703e-34
-8.35795e-42
-1.59046e-35
-7.84559e-35
-1.53782e-42
-2.15809e-36
-1.35279e-35
-2.61429e-43
-2.2155e-37
-1.69286e-36
-3.24587e-44
-1.7672e-38
-1.58348e-37
-2.97325e-45
-1.20513e-39
-1.13101e-38
-2.07079e-46
-7.66003e-41
-6.77222e-40
-1.22067e-47
-4.94647e-42
-3.69317e-41
-6.41681e-49
-3.5135e-43
-1.98302e-42
-3.39531e-50
-3.07428e-44
-1.10665e-43
-1.86404e-51
-3.71373e-45
-6.80815e-45
-1.25766e-52
-6.31869e-46
-4.27169e-46
-1.07146e-53
-1.47547e-46
5.14602e-48
-1.18651e-54
-4.40854e-47
2.11452e-47
-1.09981e-55
-1.62167e-47
1.33572e-47
2.32607e-56
-7.21959e-48
8.02927e-48
3.42136e-56
-3.8625e-48
5.28568e-48
3.0883e-56
-2.47168e-48
3.97763e-48
3.41548e-56
-1.86386e-48
3.46722e-48
1.00707e-56
-1.61506e-48
3.44697e-48
-5.96748e-57
-1.56088e-48
3.73798e-48
2.66026e-57
-2.07865e-48
5.21987e-48
1.06014e-56
-3.3982e-48
9.90758e-48
3.91626e-56
-6.47168e-48
2.07868e-47
-8.65534e-57
-1.29956e-47
4.71709e-47
5.10722e-56
-2.07746e-47
9.64603e-47
1.88067e-55
-1.96582e-47
1.43854e-46
4.51567e-55
-2.62155e-49
1.39117e-46
8.15602e-55
-1.01349e-65
8.55656e-49
4.12844e-57
-5.5087e-81
7.82039e-65
3.5637e-73
3.47042e-80
3.22897e-88
-2.85687e-15
-8.62081e-13
-9.43238e-20
-3.05249e-18
-1.20389e-14
-1.58047e-21
-2.11941e-23
-1.08201e-17
-9.17505e-25
-2.67672e-32
-4.91672e-23
-5.26441e-30
-7.41051e-35
-9.09447e-32
-6.29834e-39
-5.66835e-35
-2.01397e-34
-1.22339e-41
-1.90444e-34
-5.22581e-35
-7.07257e-42
-8.03937e-34
-4.67483e-34
-4.26351e-41
-1.73321e-33
-1.4798e-33
-9.54622e-41
-2.479e-33
-2.737e-33
-1.30066e-40
-2.72999e-33
-3.49677e-33
-1.49038e-40
-2.58066e-33
-3.57693e-33
-1.37767e-40
-1.61482e-33
-2.85797e-33
-9.9497e-41
-7.09878e-34
-1.67992e-33
-4.9817e-41
-2.28517e-34
-6.91519e-34
-1.75061e-41
-5.48142e-35
-2.06136e-34
-4.0753e-42
-9.61666e-36
-4.59378e-35
-8.73391e-43
-1.25716e-36
-7.43818e-36
-1.39225e-43
-1.26453e-37
-8.82358e-37
-1.61305e-44
-1.06391e-38
-7.98559e-38
-1.4064e-45
-8.39906e-40
-5.89654e-39
-1.02167e-46
-6.9926e-41
-3.99877e-40
-6.67009e-48
-6.63814e-42
-2.77179e-41
-4.5747e-49
-7.68795e-43
-2.07532e-42
-3.38271e-50
-1.14825e-43
-1.68618e-43
-3.07269e-51
-2.20507e-44
-1.29817e-44
-3.28263e-52
-5.37462e-45
1.66339e-46
-4.1568e-53
-1.5989e-45
7.32373e-46
-4.15359e-54
-5.68275e-46
4.57394e-46
7.56475e-55
-2.38072e-46
2.63177e-46
1.14267e-54
-1.16671e-46
1.61066e-46
9.75088e-55
-6.68848e-47
1.09668e-46
9.8288e-55
-4.51166e-47
8.52932e-47
2.56744e-55
-3.59745e-47
7.68561e-47
-1.42463e-55
-3.2843e-47
7.91369e-47
6.0647e-56
-3.25482e-47
8.72066e-47
1.89813e-55
-4.11399e-47
1.23241e-46
5.20883e-55
-5.76548e-47
1.97818e-46
-7.52106e-56
-8.15106e-47
3.25624e-46
3.87056e-55
-1.00878e-46
4.90979e-46
1.02973e-54
-6.80837e-47
5.80786e-46
1.9598e-54
-6.65439e-50
3.56309e-46
2.32281e-54
-3.44564e-66
1.38353e-49
1.29508e-57
-1.65709e-81
9.96833e-66
2.02024e-74
4.42678e-81
8.51602e-89
-1.88341e-15
-8.63847e-13
-7.51027e-20
-2.21033e-18
-9.91152e-15
-1.17199e-21
-1.09311e-23
-9.05636e-18
-5.57283e-25
-3.67822e-32
-3.02231e-23
-1.52408e-30
-8.87096e-35
-1.33729e-31
-6.50834e-39
-1.38009e-35
-2.74596e-34
-1.29819e-41
-4.87971e-35
-1.15545e-35
-1.64018e-42
-3.33289e-34
-1.30756e-34
-1.54474e-41
-1.03243e-33
-6.18596e-34
-4.93314e-41
-1.91486e-33
-1.53647e-33
-8.39469e-41
-2.4545e-33
-2.46549e-33
-1.1527e-40
-2.51844e-33
-2.9032e-33
-1.18666e-40
-2.04187e-33
-2.65903e-33
-1.00195e-40
-1.24911e-33
-2.10316e-33
-6.80904e-41
-5.29866e-34
-1.22097e-33
-3.3359e-41
-1.65967e-34
-4.71701e-34
-1.00605e-41
-3.86258e-35
-1.35197e-34
-2.66263e-42
-6.66293e-36
-2.91422e-35
-5.51581e-43
-8.92626e-37
-4.59398e-36
-8.30217e-44
-9.6929e-38
-5.57684e-37
-9.50307e-45
-9.68503e-39
-5.33664e-38
-8.85114e-46
-1.0202e-39
-4.56607e-39
-7.30182e-47
-1.24165e-40
-3.9773e-40
-6.38661e-48
-1.79696e-41
-3.81518e-41
-6.09917e-49
-3.16043e-42
-3.86611e-42
-7.01295e-50
-6.73772e-43
-3.4895e-43
-8.89594e-51
-1.7305e-43
4.77205e-45
-1.2647e-51
-5.22394e-44
2.24479e-44
-1.3662e-52
-1.83313e-44
1.41466e-44
2.25273e-53
-7.41341e-45
7.98083e-45
3.55147e-53
-3.43363e-45
4.67314e-45
2.94565e-53
-1.81483e-45
2.96895e-45
2.79051e-53
-1.09015e-45
2.08947e-45
6.4993e-54
-7.44486e-46
1.64636e-45
-3.26767e-54
-5.89722e-46
1.46734e-45
1.20721e-54
-5.28035e-46
1.47815e-45
3.48354e-54
-5.02736e-46
1.60137e-45
7.22221e-54
-5.26084e-46
1.94297e-45
-6.68535e-55
-5.47441e-46
2.36752e-45
3.06691e-54
-4.1497e-46
2.60352e-45
5.83993e-54
-1.98839e-46
2.08342e-45
7.60839e-54
-6.33196e-51
7.50767e-46
5.50626e-54
-3.4912e-67
3.80431e-51
1.22868e-58
-2.96603e-82
2.87887e-67
2.6531e-76
7.23358e-82
1.45218e-89
-1.13851e-15
-8.62415e-13
-1.06739e-19
-1.5631e-18
-8.18735e-15
-1.05897e-21
-6.72483e-24
-7.83949e-18
-7.0294e-25
-5.12673e-32
-2.48519e-23
-1.88939e-30
-1.25559e-34
-2.01058e-31
-1.39683e-38
-3.42442e-36
-4.11274e-34
-2.37214e-41
-9.38916e-36
-4.52819e-36
-4.3334e-43
-9.92935e-35
-2.38269e-35
-3.96261e-42
-4.44445e-34
-1.86513e-34
-1.83615e-41
-1.10826e-33
-6.49547e-34
-4.16291e-41
-1.80067e-33
-1.39316e-33
-7.39065e-41
-2.13381e-33
-2.0333e-33
-9.00228e-41
-1.99802e-33
-2.12028e-33
-9.67186e-41
-1.76783e-33
-1.99767e-33
-8.00724e-41
-1.01408e-33
-1.70193e-33
-5.61299e-41
-4.16019e-34
-8.68923e-34
-2.09144e-41
-1.30146e-34
-3.25351e-34
-6.95782e-42
-3.07802e-35
-9.49816e-35
-1.88645e-42
-5.70846e-36
-2.0899e-35
-3.806e-43
-8.38513e-37
-3.53166e-36
-5.91235e-44
-1.07957e-37
-4.62459e-37
-7.34311e-45
-1.41161e-38
-5.06038e-38
-7.75069e-46
-2.11206e-39
-5.42635e-39
-8.4631e-47
-3.67643e-40
-6.34783e-40
-9.98536e-48
-7.44492e-41
-7.71291e-41
-1.39456e-48
-1.75243e-41
-7.99776e-42
-2.04637e-49
-4.77935e-42
1.17988e-43
-3.24364e-50
-1.48441e-42
5.90055e-43
-3.78414e-51
-5.22355e-43
3.80671e-43
5.99346e-52
-2.07124e-43
2.14057e-43
9.84472e-52
-9.20903e-44
1.21992e-43
8.05859e-52
-4.57561e-44
7.37238e-44
7.30177e-52
-2.53114e-44
4.82087e-44
1.56394e-52
-1.55331e-44
3.43959e-44
-7.36267e-53
-1.052e-44
2.68505e-44
2.35908e-53
-7.76302e-45
2.2837e-44
5.80662e-53
-6.1335e-45
2.08254e-44
1.00829e-52
-4.89371e-45
1.97154e-44
-5.99484e-54
-3.59456e-45
1.82407e-44
2.58274e-53
-1.9493e-45
1.44422e-44
3.4723e-53
-4.3336e-46
7.35907e-45
2.85982e-53
-1.10412e-52
1.22984e-45
1.06228e-53
-6.40842e-69
1.17026e-53
2.13258e-60
-5.1074e-83
5.66304e-70
3.94082e-77
1.06552e-82
2.43279e-90
-5.83667e-16
-8.82775e-13
-1.1056e-19
-1.08919e-18
-6.97602e-15
-8.34124e-22
-5.0951e-24
-7.21165e-18
-6.2548e-25
-7.26599e-32
-2.32107e-23
-1.044e-30
-1.84762e-34
-3.09443e-31
-1.6599e-38
-1.75123e-36
-6.35224e-34
-3.25996e-41
-2.35308e-36
-3.89171e-36
-2.0872e-43
-2.00919e-35
-2.69084e-36
-6.5559e-43
-1.39372e-34
-4.02281e-35
-4.95746e-42
-4.96971e-34
-2.02267e-34
-1.50974e-41
-1.09947e-33
-6.02661e-34
-3.6944e-41
-1.67236e-33
-1.19241e-33
-5.87221e-41
-1.83236e-33
-1.67721e-33
-7.52547e-41
-1.80374e-33
-1.71156e-33
-7.94816e-41
-1.49021e-33
-1.61892e-33
-7.30464e-41
-8.22396e-34
-1.17073e-33
-3.44181e-41
-3.47272e-34
-6.18738e-34
-1.4835e-41
-1.15304e-34
-2.43051e-34
-5.26988e-42
-3.01519e-35
-7.59216e-35
-1.45398e-42
-6.2174e-36
-1.82819e-35
-3.10604e-43
-1.06317e-36
-3.40829e-36
-5.30024e-44
-1.73705e-37
-4.98586e-37
-7.31365e-45
-3.09589e-38
-6.67291e-38
-9.96657e-46
-6.30478e-39
-9.1157e-39
-1.40247e-46
-1.45447e-39
-1.2843e-39
-2.31079e-47
-3.77525e-40
-1.51527e-40
-3.87098e-48
-1.09994e-40
2.44088e-42
-6.81752e-49
-3.55231e-41
1.2904e-41
-8.5525e-50
-1.26956e-41
8.61662e-42
1.39517e-50
-5.00384e-42
4.89487e-42
2.35174e-50
-2.16619e-42
2.75531e-42
1.92205e-50
-1.02631e-42
1.60879e-42
1.69081e-50
-5.29509e-43
9.9354e-43