/*--------------------------------*- C++ -*----------------------------------*\
| =========                 |                                                 |
| \\      /  F ield         | OpenFOAM: The Open Source CFD Toolbox           |
|  \\    /   O peration     | Version:  v2012                                 |
|   \\  /    A nd           | Website:  www.openfoam.com                      |
|    \\/     M anipulation  |                                                 |
\*---------------------------------------------------------------------------*/
FoamFile
{
    version     2.0;
    format      ascii;
    class       volVectorField;
    location    "0.8";
    object      U;
}
// * * * * * * * * * * * * * * * * * * * * * * * * * * * * * * * * * * * * * //

dimensions      [0 1 -1 0 0 0 0];


internalField   nonuniform List<vector> 
15860
(
(6.46902e-06 -0.00436912 -5.64582e-08)
(1.55092e-05 -0.00441198 -1.35338e-07)
(2.49119e-05 -0.00443397 -2.17404e-07)
(3.51669e-05 -0.00444053 -3.06899e-07)
(4.55968e-05 -0.00443844 -3.97927e-07)
(5.67774e-05 -0.0044291 -4.95501e-07)
(6.84155e-05 -0.00441464 -5.97072e-07)
(8.08053e-05 -0.00439543 -7.052e-07)
(9.38188e-05 -0.00437229 -8.18772e-07)
(0.000107582 -0.00434536 -9.38884e-07)
(0.000122019 -0.00431495 -1.06488e-06)
(0.000137147 -0.00428112 -1.1969e-06)
(0.000152878 -0.00424396 -1.33419e-06)
(0.000169153 -0.00420347 -1.47624e-06)
(0.000185875 -0.00415963 -1.62217e-06)
(0.000202942 -0.00411241 -1.77113e-06)
(0.000220236 -0.00406174 -1.92207e-06)
(0.000237644 -0.00400755 -2.074e-06)
(0.000255044 -0.00394976 -2.22587e-06)
(0.000272319 -0.00388827 -2.37664e-06)
(0.000289348 -0.003823 -2.52527e-06)
(0.000306015 -0.00375388 -2.67075e-06)
(0.000322202 -0.00368083 -2.81203e-06)
(0.00033779 -0.0036038 -2.94809e-06)
(0.00035266 -0.00352274 -3.07789e-06)
(0.000366692 -0.00343763 -3.20036e-06)
(0.000379761 -0.00334847 -3.31445e-06)
(0.000391739 -0.0032553 -3.419e-06)
(0.000402496 -0.00315819 -3.51291e-06)
(0.000411905 -0.00305726 -3.59507e-06)
(0.000419846 -0.00295267 -3.6644e-06)
(0.00042621 -0.00284463 -3.71997e-06)
(0.000430895 -0.00273334 -3.7609e-06)
(0.000433806 -0.00261901 -3.78633e-06)
(0.000434844 -0.00250188 -3.79543e-06)
(0.000433913 -0.00238228 -3.78733e-06)
(0.000430927 -0.00226068 -3.76126e-06)
(0.000425837 -0.00213771 -3.71688e-06)
(0.00041865 -0.00201402 -3.6542e-06)
(0.000409415 -0.00189017 -3.57363e-06)
(0.000398194 -0.0017665 -3.47573e-06)
(0.000385038 -0.00164329 -3.36093e-06)
(0.000369987 -0.00152093 -3.22958e-06)
(0.000353093 -0.00140007 -3.08216e-06)
(0.00033447 -0.00128159 -2.91964e-06)
(0.000314293 -0.0011664 -2.74357e-06)
(0.000292796 -0.00105519 -2.55597e-06)
(0.000270226 -0.000948361 -2.35899e-06)
(0.000246783 -0.000846073 -2.15438e-06)
(0.000222658 -0.000748627 -1.94381e-06)
(0.000198073 -0.000656415 -1.72922e-06)
(0.000173281 -0.000569826 -1.51283e-06)
(0.000148553 -0.000489097 -1.29699e-06)
(0.000124162 -0.000414229 -1.08409e-06)
(0.000100391 -0.000345011 -8.76583e-07)
(7.75377e-05 -0.000280971 -6.77085e-07)
(5.5948e-05 -0.000221248 -4.88603e-07)
(3.59919e-05 -0.000164276 -3.14372e-07)
(1.8374e-05 -0.000107339 -1.60602e-07)
(3.37929e-06 -4.37047e-05 -3.17663e-08)
(8.29987e-06 -0.00444189 -7.24179e-08)
(1.9871e-05 -0.00448354 -1.73416e-07)
(3.18559e-05 -0.00450378 -2.78004e-07)
(4.46048e-05 -0.00450986 -3.89273e-07)
(5.72605e-05 -0.00450717 -4.99723e-07)
(7.04336e-05 -0.00449759 -6.14692e-07)
(8.37106e-05 -0.00448284 -7.30567e-07)
(9.74054e-05 -0.00446341 -8.5009e-07)
(0.000111317 -0.00443998 -9.71504e-07)
(0.000125599 -0.0044127 -1.09615e-06)
(0.000140166 -0.00438183 -1.22329e-06)
(0.000155087 -0.00434738 -1.35351e-06)
(0.000170311 -0.00430945 -1.48638e-06)
(0.000185852 -0.00426798 -1.62201e-06)
(0.000201669 -0.00422298 -1.76005e-06)
(0.00021773 -0.00417438 -1.90023e-06)
(0.000233975 -0.00412215 -2.04201e-06)
(0.000250337 -0.0040662 -2.1848e-06)
(0.000266731 -0.00400647 -2.32788e-06)
(0.000283063 -0.0039429 -2.47043e-06)
(0.000299227 -0.00387542 -2.6115e-06)
(0.000315107 -0.00380396 -2.7501e-06)
(0.000330584 -0.00372847 -2.88518e-06)
(0.000345535 -0.00364891 -3.01567e-06)
(0.000359833 -0.00356526 -3.14047e-06)
(0.000373352 -0.00347751 -3.25847e-06)
(0.000385958 -0.00338568 -3.36849e-06)
(0.00039751 -0.00328981 -3.46934e-06)
(0.000407867 -0.00318999 -3.55974e-06)
(0.000416891 -0.00308634 -3.63852e-06)
(0.000424459 -0.00297905 -3.70459e-06)
(0.000430473 -0.00286832 -3.7571e-06)
(0.00043485 -0.00275438 -3.79533e-06)
(0.000437499 -0.00263747 -3.81847e-06)
(0.000438305 -0.00251785 -3.82552e-06)
(0.000437131 -0.00239588 -3.8153e-06)
(0.000433851 -0.00227203 -3.78666e-06)
(0.00042841 -0.00214691 -3.73921e-06)
(0.00042086 -0.00202112 -3.67336e-06)
(0.00041132 -0.00189522 -3.59015e-06)
(0.0003999 -0.00176962 -3.49051e-06)
(0.000386635 -0.00164468 -3.37475e-06)
(0.000371492 -0.00152083 -3.2426e-06)
(0.00035445 -0.00139872 -3.09387e-06)
(0.000335594 -0.00127919 -2.92933e-06)
(0.00031514 -0.00116304 -2.75086e-06)
(0.000293395 -0.00105096 -2.56111e-06)
(0.000270659 -0.00094335 -2.36271e-06)
(0.000247123 -0.000840441 -2.15729e-06)
(0.000222923 -0.000742562 -1.94607e-06)
(0.000198253 -0.000650083 -1.73076e-06)
(0.000173366 -0.000563359 -1.51355e-06)
(0.000148546 -0.000482601 -1.29692e-06)
(0.000124078 -0.000407809 -1.08336e-06)
(0.00010024 -0.000338772 -8.75293e-07)
(7.73281e-05 -0.000275023 -6.75295e-07)
(5.56812e-05 -0.000215705 -4.86333e-07)
(3.56584e-05 -0.000159281 -3.11542e-07)
(1.79776e-05 -0.000103046 -1.57301e-07)
(2.97763e-06 -4.08944e-05 -2.93679e-08)
(8.10248e-06 -0.00446247 -7.07151e-08)
(1.9109e-05 -0.00450399 -1.66757e-07)
(3.0856e-05 -0.00452376 -2.69282e-07)
(4.32999e-05 -0.00452958 -3.7788e-07)
(5.57294e-05 -0.00452676 -4.86361e-07)
(6.88179e-05 -0.00451726 -6.00588e-07)
(8.20878e-05 -0.00450273 -7.164e-07)
(9.59792e-05 -0.00448367 -8.37635e-07)
(0.000110205 -0.00446072 -9.61791e-07)
(0.000124992 -0.00443403 -1.09084e-06)
(0.00014017 -0.0044038 -1.22331e-06)
(0.00015582 -0.00437007 -1.35989e-06)
(0.000171832 -0.00433287 -1.49964e-06)
(0.000188201 -0.00429215 -1.6425e-06)
(0.000204829 -0.00424786 -1.78762e-06)
(0.000221656 -0.00419992 -1.93448e-06)
(0.000238595 -0.00414826 -2.08232e-06)
(0.000255565 -0.00409278 -2.23043e-06)
(0.000272473 -0.0040334 -2.37801e-06)
(0.000289225 -0.00397004 -2.52422e-06)
(0.000305718 -0.00390261 -2.66817e-06)
(0.000321849 -0.00383104 -2.80896e-06)
(0.000337504 -0.00375528 -2.9456e-06)
(0.000352569 -0.00367529 -3.0771e-06)
(0.000366927 -0.00359104 -3.20242e-06)
(0.000380458 -0.00350254 -3.32052e-06)
(0.000393035 -0.00340981 -3.4303e-06)
(0.00040452 -0.00331291 -3.53055e-06)
(0.000414767 -0.00321192 -3.62001e-06)
(0.000423635 -0.00310697 -3.69743e-06)
(0.000431005 -0.00299827 -3.76177e-06)
(0.000436791 -0.00288602 -3.81229e-06)
(0.000440931 -0.00277048 -3.84844e-06)
(0.000443344 -0.00265191 -3.86953e-06)
(0.000443908 -0.00253062 -3.87447e-06)
(0.000442455 -0.00240699 -3.8618e-06)
(0.000438825 -0.0022815 -3.8301e-06)
(0.000432958 -0.00215472 -3.77893e-06)
(0.00042495 -0.00202725 -3.70909e-06)
(0.000414989 -0.00189963 -3.6222e-06)
(0.000403234 -0.00177235 -3.51964e-06)
(0.000389715 -0.00164585 -3.40165e-06)
(0.000374334 -0.00152062 -3.2674e-06)
(0.000356994 -0.00139733 -3.11607e-06)
(0.000337749 -0.00127676 -2.94813e-06)
(0.000316857 -0.00115966 -2.76583e-06)
(0.000294704 -0.00104667 -2.57254e-06)
(0.000271661 -0.000938238 -2.37145e-06)
(0.000247908 -0.00083466 -2.16414e-06)
(0.000223525 -0.000736282 -1.95131e-06)
(0.000198667 -0.000643464 -1.73436e-06)
(0.000173585 -0.000556531 -1.51545e-06)
(0.000148582 -0.000475681 -1.29724e-06)
(0.000123953 -0.000400909 -1.08227e-06)
(9.99782e-05 -0.00033201 -8.73007e-07)
(7.69432e-05 -0.000268524 -6.71942e-07)
(5.51823e-05 -0.0002096 -4.8199e-07)
(3.50511e-05 -0.000153739 -3.06259e-07)
(1.72951e-05 -9.82626e-05 -1.51385e-07)
(2.58791e-06 -3.78489e-05 -2.61183e-08)
(9.48839e-06 -0.00453218 -8.27936e-08)
(2.23571e-05 -0.00457199 -1.95114e-07)
(3.61144e-05 -0.00459026 -3.15171e-07)
(5.05581e-05 -0.00459492 -4.41231e-07)
(6.48173e-05 -0.0045909 -5.65676e-07)
(7.95826e-05 -0.00458029 -6.94541e-07)
(9.42564e-05 -0.00456455 -8.22606e-07)
(0.000109308 -0.00454427 -9.53969e-07)
(0.000124382 -0.00452 -1.08553e-06)
(0.000139745 -0.00449191 -1.21961e-06)
(0.000155212 -0.00446022 -1.3546e-06)
(0.000170912 -0.00442495 -1.49162e-06)
(0.000186771 -0.00438614 -1.63003e-06)
(0.000202838 -0.00434375 -1.77026e-06)
(0.000219059 -0.00429775 -1.91183e-06)
(0.000235426 -0.00424807 -2.05467e-06)
(0.000251886 -0.00419464 -2.19833e-06)
(0.000268392 -0.00413737 -2.34239e-06)
(0.000284867 -0.00407618 -2.48618e-06)
(0.000301228 -0.004011 -2.62897e-06)
(0.000317375 -0.00394173 -2.7699e-06)
(0.000333201 -0.00386832 -2.90802e-06)
(0.000348586 -0.00379071 -3.0423e-06)
(0.000363406 -0.00370885 -3.17166e-06)
(0.000377533 -0.00362272 -3.29497e-06)
(0.000390842 -0.00353232 -3.41114e-06)
(0.000403199 -0.00343769 -3.519e-06)
(0.000414459 -0.00333888 -3.61729e-06)
(0.000424467 -0.00323598 -3.70465e-06)
(0.00043307 -0.00312912 -3.77977e-06)
(0.000440145 -0.00301848 -3.84154e-06)
(0.000445611 -0.00290429 -3.88926e-06)
(0.000449411 -0.0027868 -3.92246e-06)
(0.000451475 -0.00266631 -3.94049e-06)
(0.00045167 -0.00254317 -3.94221e-06)
(0.00044981 -0.00241777 -3.92599e-06)
(0.00044572 -0.00229059 -3.89028e-06)
(0.000439343 -0.00216215 -3.83467e-06)
(0.000430802 -0.00203299 -3.76018e-06)
(0.000420322 -0.00190367 -3.66877e-06)
(0.000408091 -0.00177473 -3.56204e-06)
(0.000394131 -0.00164671 -3.44021e-06)
(0.000378315 -0.00152021 -3.30216e-06)
(0.000360508 -0.00139588 -3.14674e-06)
(0.000340752 -0.00127442 -2.97435e-06)
(0.000319331 -0.00115648 -2.78744e-06)
(0.000296683 -0.00104266 -2.58984e-06)
(0.000273222 -0.000933463 -2.3851e-06)
(0.000249125 -0.000829257 -2.17477e-06)
(0.000224436 -0.00073043 -1.95928e-06)
(0.000199288 -0.000637322 -1.73978e-06)
(0.000173929 -0.000550222 -1.51846e-06)
(0.000148671 -0.000469302 -1.29801e-06)
(0.000123817 -0.000394558 -1.08108e-06)
(9.96459e-05 -0.000325789 -8.70108e-07)
(7.64391e-05 -0.000262547 -6.67543e-07)
(5.45276e-05 -0.000203986 -4.76275e-07)
(3.42809e-05 -0.00014865 -2.99533e-07)
(1.64901e-05 -9.3927e-05 -1.44346e-07)
(2.25974e-06 -3.52387e-05 -2.29861e-08)
(9.27037e-06 -0.00456819 -8.08999e-08)
(2.18907e-05 -0.00460776 -1.9104e-07)
(3.55399e-05 -0.00462553 -3.10161e-07)
(4.99127e-05 -0.00462979 -4.35597e-07)
(6.42286e-05 -0.00462549 -5.60539e-07)
(7.91705e-05 -0.00461478 -6.90942e-07)
(9.41639e-05 -0.00459906 -8.21797e-07)
(0.000109714 -0.00457893 -9.57513e-07)
(0.000125437 -0.0045549 -1.09473e-06)
(0.000141616 -0.00452712 -1.23593e-06)
(0.000158019 -0.00449577 -1.37909e-06)
(0.000174757 -0.00446084 -1.52518e-06)
(0.000191702 -0.00442234 -1.67306e-06)
(0.000208869 -0.0043802 -1.82289e-06)
(0.000226152 -0.00433436 -1.97373e-06)
(0.000243511 -0.00428472 -2.12524e-06)
(0.000260867 -0.0042312 -2.27671e-06)
(0.000278154 -0.0041737 -2.42759e-06)
(0.000295291 -0.00411211 -2.57716e-06)
(0.000312193 -0.00404637 -2.72468e-06)
(0.000328769 -0.00397639 -2.86935e-06)
(0.000344922 -0.0039021 -3.01034e-06)
(0.000360544 -0.00382345 -3.14668e-06)
(0.000375518 -0.00374041 -3.27739e-06)
(0.000389726 -0.00365296 -3.4014e-06)
(0.000403046 -0.00356113 -3.51767e-06)
(0.000415353 -0.00346495 -3.62509e-06)
(0.000426505 -0.00336449 -3.72243e-06)
(0.00043635 -0.00325988 -3.80837e-06)
(0.000444735 -0.00315123 -3.88159e-06)
(0.000451537 -0.00303876 -3.94098e-06)
(0.000456677 -0.00292267 -3.98585e-06)
(0.000460102 -0.00280324 -4.01578e-06)
(0.000461744 -0.00268083 -4.03012e-06)
(0.000461469 -0.0025558 -4.02774e-06)
(0.000459092 -0.0024286 -4.00702e-06)
(0.000454447 -0.00229969 -3.96646e-06)
(0.000447487 -0.00216953 -3.90576e-06)
(0.000438346 -0.00203864 -3.82603e-06)
(0.000427257 -0.00190757 -3.7293e-06)
(0.000414406 -0.00177693 -3.61717e-06)
(0.000399817 -0.00164739 -3.48984e-06)
(0.000383365 -0.00151963 -3.34624e-06)
(0.000364922 -0.00139428 -3.18527e-06)
(0.00034454 -0.00127196 -3.00742e-06)
(0.000322516 -0.0011532 -2.81525e-06)
(0.0002993 -0.00103857 -2.61269e-06)
(0.00027532 -0.000928589 -2.40342e-06)
(0.000250753 -0.000823762 -2.18899e-06)
(0.000225638 -0.000724505 -1.96977e-06)
(0.000200102 -0.000631136 -1.74689e-06)
(0.000174389 -0.000543897 -1.52248e-06)
(0.000148814 -0.000462933 -1.29927e-06)
(0.000123681 -0.000388236 -1.0799e-06)
(9.92658e-05 -0.000319613 -8.66795e-07)
(7.58504e-05 -0.000256626 -6.62408e-07)
(5.37678e-05 -0.000198441 -4.69646e-07)
(3.34178e-05 -0.000143648 -2.91998e-07)
(1.56494e-05 -8.97513e-05 -1.36991e-07)
(1.96496e-06 -3.2859e-05 -2.01476e-08)
(1.03408e-05 -0.00463558 -9.02376e-08)
(2.44028e-05 -0.00467382 -2.12968e-07)
(3.96288e-05 -0.00469035 -3.45847e-07)
(5.55909e-05 -0.00469341 -4.85156e-07)
(7.14046e-05 -0.00468788 -6.23169e-07)
(8.77515e-05 -0.00467589 -7.65836e-07)
(0.000103975 -0.00465882 -9.07429e-07)
(0.000120591 -0.00463729 -1.05245e-06)
(0.000137176 -0.00461179 -1.19718e-06)
(0.00015404 -0.00458251 -1.34437e-06)
(0.000170942 -0.0045496 -1.49189e-06)
(0.000188033 -0.00451309 -1.64105e-06)
(0.000205206 -0.004473 -1.79093e-06)
(0.000222519 -0.00442927 -1.94203e-06)
(0.000239893 -0.00438185 -2.09366e-06)
(0.000257322 -0.00433065 -2.24577e-06)
(0.000274742 -0.00427557 -2.3978e-06)
(0.000292103 -0.00421653 -2.54933e-06)
(0.000309326 -0.0041534 -2.69965e-06)
(0.000326324 -0.00408612 -2.848e-06)
(0.000343 -0.00401458 -2.99355e-06)
(0.000359249 -0.0039387 -3.13537e-06)
(0.000374952 -0.00385844 -3.27244e-06)
(0.000389985 -0.00377375 -3.40365e-06)
(0.000404217 -0.00368461 -3.52787e-06)
(0.000417518 -0.00359103 -3.64397e-06)
(0.000429753 -0.00349305 -3.75077e-06)
(0.00044078 -0.00339075 -3.84702e-06)
(0.000450444 -0.00328426 -3.93139e-06)
(0.000458595 -0.00317371 -4.00256e-06)
(0.000465107 -0.00305929 -4.05942e-06)
(0.000469895 -0.00294123 -4.10123e-06)
(0.000472899 -0.00281981 -4.12747e-06)
(0.000474042 -0.0026954 -4.13747e-06)
(0.000473199 -0.00256844 -4.13013e-06)
(0.000470202 -0.00243939 -4.104e-06)
(0.000464912 -0.00230869 -4.05781e-06)
(0.000457302 -0.00217677 -3.99144e-06)
(0.000447498 -0.00204411 -3.90593e-06)
(0.000435709 -0.00191128 -3.80308e-06)
(0.0004221 -0.00177895 -3.68433e-06)
(0.000406701 -0.0016479 -3.54993e-06)
(0.000389424 -0.00151887 -3.39913e-06)
(0.000370188 -0.00139251 -3.23125e-06)
(0.000349076 -0.00126932 -3.04703e-06)
(0.000326382 -0.00114974 -2.84901e-06)
(0.000302532 -0.00103428 -2.6409e-06)
(0.000277933 -0.000923522 -2.42624e-06)
(0.000252775 -0.000818077 -2.20665e-06)
(0.000227119 -0.000718398 -1.98271e-06)
(0.000201103 -0.00062478 -1.75563e-06)
(0.000174966 -0.000537418 -1.52752e-06)
(0.000149018 -0.000456426 -1.30106e-06)
(0.000123557 -0.00038179 -1.07882e-06)
(9.88581e-05 -0.000313328 -8.63242e-07)
(7.52062e-05 -0.00025061 -6.56789e-07)
(5.29426e-05 -0.000192822 -4.62447e-07)
(3.251e-05 -0.00013861 -2.84074e-07)
(1.48189e-05 -8.56313e-05 -1.29729e-07)
(1.70036e-06 -3.06205e-05 -1.76149e-08)
(1.03632e-05 -0.0046835 -9.04284e-08)
(2.45287e-05 -0.00472145 -2.1407e-07)
(3.99461e-05 -0.00473745 -3.48617e-07)
(5.6187e-05 -0.00474002 -4.90359e-07)
(7.23711e-05 -0.00473405 -6.31604e-07)
(8.92032e-05 -0.00472172 -7.78505e-07)
(0.00010603 -0.00470438 -9.25361e-07)
(0.000123387 -0.00468265 -1.07684e-06)
(0.000140837 -0.00465699 -1.22914e-06)
(0.000158706 -0.00462756 -1.38509e-06)
(0.000176694 -0.00459449 -1.54208e-06)
(0.000194933 -0.00455778 -1.70126e-06)
(0.000213279 -0.00451743 -1.86138e-06)
(0.000231761 -0.00447335 -2.02269e-06)
(0.000250258 -0.00442547 -2.18412e-06)
(0.000268738 -0.0043737 -2.34541e-06)
(0.000287116 -0.00431792 -2.50581e-06)
(0.000305331 -0.00425804 -2.66478e-06)
(0.000323297 -0.00419395 -2.82159e-06)
(0.000340928 -0.00412557 -2.97547e-06)
(0.000358131 -0.0040528 -3.12562e-06)
(0.000374807 -0.00397559 -3.27117e-06)
(0.000390847 -0.00389387 -3.41117e-06)
(0.000406132 -0.00380762 -3.54458e-06)
(0.000420533 -0.00371682 -3.67028e-06)
(0.000433919 -0.00362149 -3.78712e-06)
(0.000446154 -0.00352169 -3.89392e-06)
(0.000457096 -0.0034175 -3.98943e-06)
(0.000466598 -0.00330907 -4.07239e-06)
(0.00047452 -0.00319655 -4.14155e-06)
(0.000480736 -0.00308011 -4.19583e-06)
(0.000485153 -0.00296 -4.2344e-06)
(0.000487694 -0.00283652 -4.2566e-06)
(0.000488271 -0.00271006 -4.26167e-06)
(0.000486769 -0.00258111 -4.24858e-06)
(0.000483056 -0.00245012 -4.2162e-06)
(0.000477037 -0.00231756 -4.16366e-06)
(0.000468709 -0.00218382 -4.09101e-06)
(0.000458173 -0.00204935 -3.9991e-06)
(0.000445588 -0.00191474 -3.8893e-06)
(0.000431084 -0.00178075 -3.76274e-06)
(0.000414705 -0.00164822 -3.6198e-06)
(0.000396431 -0.00151795 -3.46031e-06)
(0.000376263 -0.00139055 -3.28431e-06)
(0.000354328 -0.00126646 -3.09289e-06)
(0.000330899 -0.00114603 -2.88845e-06)
(0.000306348 -0.00102975 -2.67422e-06)
(0.000281038 -0.000918238 -2.45334e-06)
(0.000255175 -0.000812198 -2.22761e-06)
(0.00022887 -0.000712113 -1.99801e-06)
(0.000202286 -0.000618258 -1.76597e-06)
(0.000175661 -0.000530786 -1.5336e-06)
(0.000149289 -0.00044978 -1.30342e-06)
(0.000123457 -0.000375223 -1.07796e-06)
(9.84416e-05 -0.000306938 -8.59611e-07)
(7.45327e-05 -0.000244509 -6.50915e-07)
(5.20858e-05 -0.000187142 -4.5497e-07)
(3.15942e-05 -0.000133554 -2.7608e-07)
(1.40268e-05 -8.15801e-05 -1.22801e-07)
(1.46871e-06 -2.85163e-05 -1.53917e-08)
(1.12479e-05 -0.00475133 -9.81572e-08)
(2.6622e-05 -0.00478827 -2.3234e-07)
(4.33735e-05 -0.00480325 -3.78532e-07)
(6.09716e-05 -0.00480473 -5.32119e-07)
(7.84664e-05 -0.00479763 -6.84803e-07)
(9.65638e-05 -0.00478409 -8.42747e-07)
(0.000114552 -0.00476548 -9.99739e-07)
(0.000132977 -0.00474242 -1.16054e-06)
(0.000151372 -0.00471536 -1.32109e-06)
(0.000170085 -0.0046845 -1.48441e-06)
(0.000188805 -0.00464997 -1.64779e-06)
(0.000207693 -0.00461178 -1.81263e-06)
(0.000226618 -0.00456993 -1.9778e-06)
(0.000245634 -0.00452435 -2.14376e-06)
(0.000264632 -0.00447497 -2.30957e-06)
(0.000283601 -0.0044217 -2.47512e-06)
(0.000302457 -0.00436442 -2.6397e-06)
(0.000321143 -0.00430303 -2.80279e-06)
(0.00033957 -0.0042374 -2.96361e-06)
(0.00035764 -0.00416745 -3.12133e-06)
(0.000375252 -0.00409308 -3.27504e-06)
(0.000392294 -0.00401421 -3.42379e-06)
(0.00040865 -0.00393078 -3.56655e-06)
(0.00042419 -0.00384275 -3.70219e-06)
(0.00043878 -0.00375011 -3.82954e-06)
(0.000452276 -0.00365288 -3.94735e-06)
(0.000464532 -0.00355112 -4.05432e-06)
(0.000475401 -0.00344492 -4.14921e-06)
(0.000484744 -0.00333443 -4.23077e-06)
(0.000492429 -0.00321982 -4.29788e-06)
(0.000498336 -0.00310127 -4.34945e-06)
(0.000502357 -0.00297902 -4.38456e-06)
(0.000504391 -0.0028534 -4.40234e-06)
(0.000504337 -0.00272483 -4.4019e-06)
(0.000502095 -0.0025938 -4.38236e-06)
(0.000497581 -0.0024608 -4.34299e-06)
(0.000490754 -0.00232628 -4.2834e-06)
(0.000481632 -0.00219064 -4.20382e-06)
(0.000470282 -0.00205432 -4.10479e-06)
(0.000456797 -0.00191796 -3.98713e-06)
(0.000441264 -0.00178234 -3.85159e-06)
(0.000423754 -0.00164837 -3.69878e-06)
(0.000404336 -0.00151685 -3.52933e-06)
(0.000383115 -0.00138837 -3.34414e-06)
(0.000360268 -0.00126332 -3.14477e-06)
(0.000336037 -0.00114202 -2.93331e-06)
(0.000310714 -0.00102493 -2.71233e-06)
(0.000284602 -0.000912703 -2.48444e-06)
(0.000257929 -0.000806107 -2.25165e-06)
(0.000230877 -0.000705641 -2.01554e-06)
(0.000203646 -0.000611563 -1.77786e-06)
(0.000176472 -0.000523994 -1.54069e-06)
(0.00014963 -0.000442993 -1.30641e-06)
(0.000123392 -0.000368536 -1.07739e-06)
(9.80321e-05 -0.00030045 -8.56041e-07)
(7.38521e-05 -0.000238333 -6.44978e-07)
(5.12245e-05 -0.000181419 -4.47456e-07)
(3.06973e-05 -0.000128503 -2.6825e-07)
(1.32895e-05 -7.76135e-05 -1.16353e-07)
(1.26952e-06 -2.65423e-05 -1.34696e-08)
(1.15447e-05 -0.00480913 -1.00762e-07)
(2.73398e-05 -0.0048458 -2.38603e-07)
(4.45837e-05 -0.00486022 -3.89098e-07)
(6.27683e-05 -0.00486113 -5.47801e-07)
(8.09146e-05 -0.00485344 -7.06171e-07)
(9.97673e-05 -0.00483936 -8.70706e-07)
(0.000118596 -0.00482023 -1.03503e-06)
(0.00013797 -0.00479665 -1.20412e-06)
(0.000157398 -0.00476907 -1.37367e-06)
(0.000177229 -0.00473767 -1.54675e-06)
(0.000197123 -0.00470254 -1.72038e-06)
(0.000217224 -0.00466371 -1.89581e-06)
(0.000237371 -0.00462113 -2.07165e-06)
(0.000257593 -0.00457473 -2.24814e-06)
(0.000277754 -0.00452443 -2.42409e-06)
(0.000297822 -0.00447012 -2.59924e-06)
(0.000317699 -0.0044117 -2.77272e-06)
(0.000337318 -0.00434904 -2.94395e-06)
(0.000356584 -0.00428206 -3.1121e-06)
(0.000375397 -0.00421063 -3.27631e-06)
(0.000393654 -0.00413468 -3.43565e-06)
(0.000411245 -0.00405413 -3.58919e-06)
(0.000428055 -0.00396893 -3.73591e-06)
(0.000443957 -0.00387905 -3.87471e-06)
(0.000458815 -0.00378447 -4.0044e-06)
(0.000472478 -0.00368524 -4.12367e-06)
(0.000484794 -0.0035814 -4.23117e-06)
(0.000495613 -0.00347308 -4.32562e-06)
(0.000504805 -0.00336041 -4.40586e-06)
(0.000512249 -0.00324359 -4.47087e-06)
(0.000517828 -0.00312281 -4.51958e-06)
(0.000521421 -0.00299833 -4.55096e-06)
(0.000522902 -0.00287048 -4.56391e-06)
(0.000522157 -0.00273972 -4.55744e-06)
(0.000519105 -0.00260653 -4.53084e-06)
(0.000513715 -0.00247142 -4.48383e-06)
(0.000506003 -0.00233484 -4.41651e-06)
(0.000496001 -0.00219721 -4.32925e-06)
(0.000483736 -0.00205901 -4.22223e-06)
(0.000469235 -0.00192091 -4.09569e-06)
(0.000452546 -0.00178371 -3.95006e-06)
(0.000433776 -0.00164831 -3.78627e-06)
(0.000413096 -0.00151552 -3.60582e-06)
(0.00039072 -0.0013859 -3.41056e-06)
(0.000366874 -0.00125984 -3.20246e-06)
(0.000341762 -0.00113763 -2.9833e-06)
(0.000315588 -0.00101975 -2.75487e-06)
(0.000288584 -0.000906876 -2.5192e-06)
(0.000261008 -0.000799779 -2.27853e-06)
(0.000233124 -0.000698964 -2.03516e-06)
(0.000205175 -0.00060468 -1.79122e-06)
(0.000177398 -0.000517027 -1.54878e-06)
(0.000150044 -0.000436051 -1.31003e-06)
(0.000123367 -0.000361718 -1.07718e-06)
(9.76418e-05 -0.000293858 -8.52639e-07)
(7.3182e-05 -0.000232082 -6.39133e-07)
(5.038e-05 -0.000175658 -4.40087e-07)
(2.98384e-05 -0.000123465 -2.60752e-07)
(1.26154e-05 -7.37344e-05 -1.10457e-07)
(1.10005e-06 -2.46872e-05 -1.18265e-08)
(1.23398e-05 -0.00488033 -1.07686e-07)
(2.92461e-05 -0.004916 -2.55247e-07)
(4.7724e-05 -0.00492951 -4.16506e-07)
(6.71916e-05 -0.00492941 -5.86406e-07)
(8.6589e-05 -0.0049207 -7.55696e-07)
(0.000106691 -0.0049055 -9.31136e-07)
(0.000126703 -0.00488518 -1.10579e-06)
(0.000147224 -0.00486034 -1.28489e-06)
(0.000167723 -0.00483145 -1.46379e-06)
(0.000188576 -0.00479868 -1.64578e-06)
(0.000209426 -0.00476215 -1.82775e-06)
(0.000230441 -0.00472186 -2.01117e-06)
(0.000251457 -0.00467781 -2.19458e-06)
(0.00027252 -0.0046299 -2.37842e-06)
(0.000293497 -0.00457807 -2.56149e-06)
(0.000314364 -0.0045222 -2.74361e-06)
(0.00033502 -0.00446217 -2.92389e-06)
(0.000355394 -0.00439788 -3.10172e-06)
(0.000375382 -0.00432919 -3.27617e-06)
(0.000394874 -0.00425602 -3.4463e-06)
(0.000413753 -0.00417825 -3.61107e-06)
(0.000431899 -0.00409582 -3.76945e-06)
(0.000449186 -0.00400867 -3.92034e-06)
(0.000465482 -0.00391676 -4.06258e-06)
(0.000480641 -0.0038201 -4.1949e-06)
(0.0004945 -0.0037187 -4.31588e-06)
(0.000506898 -0.00361265 -4.42409e-06)
(0.000517681 -0.00350206 -4.51823e-06)
(0.000526725 -0.00338709 -4.59719e-06)
(0.000533918 -0.00326793 -4.66e-06)
(0.000539145 -0.00314479 -4.70565e-06)
(0.00054227 -0.00301796 -4.73294e-06)
(0.000543147 -0.00288779 -4.74062e-06)
(0.000541655 -0.00275474 -4.72763e-06)
(0.000537734 -0.0026193 -4.69345e-06)
(0.000531404 -0.00248197 -4.63824e-06)
(0.000522725 -0.00234323 -4.56249e-06)
(0.000511744 -0.00220353 -4.46666e-06)
(0.000498447 -0.00206342 -4.35063e-06)
(0.000482804 -0.00192359 -4.21413e-06)
(0.000464843 -0.00178484 -4.0574e-06)
(0.000444711 -0.00164803 -3.88173e-06)
(0.00042268 -0.00151393 -3.68949e-06)
(0.000399062 -0.00138309 -3.4834e-06)
(0.000374126 -0.00125593 -3.26579e-06)
(0.000348038 -0.00113279 -3.03809e-06)
(0.000320919 -0.00101417 -2.80141e-06)
(0.000292938 -0.00090072 -2.5572e-06)
(0.000264381 -0.000793189 -2.30797e-06)
(0.000235594 -0.000692065 -2.05673e-06)
(0.000206865 -0.000597593 -1.80599e-06)
(0.000178436 -0.000509872 -1.55785e-06)
(0.00015053 -0.000428942 -1.31428e-06)
(0.000123387 -0.000354761 -1.07737e-06)
(9.728e-05 -0.000287158 -8.49485e-07)
(7.25359e-05 -0.000225757 -6.33497e-07)
(4.95678e-05 -0.000169863 -4.32999e-07)
(2.90296e-05 -0.000118447 -2.53691e-07)
(1.20071e-05 -6.99409e-05 -1.05136e-07)
(9.56997e-07 -2.29379e-05 -1.04335e-08)
(1.2794e-05 -0.00494708 -1.11636e-07)
(3.03731e-05 -0.00498258 -2.65091e-07)
(4.96433e-05 -0.00499554 -4.33255e-07)
(6.99627e-05 -0.00499481 -6.10595e-07)
(9.02763e-05 -0.0049854 -7.87876e-07)
(0.000111381 -0.00496949 -9.72064e-07)
(0.000132448 -0.00494843 -1.15593e-06)
(0.000154094 -0.00492283 -1.34484e-06)
(0.000175775 -0.00489314 -1.53406e-06)
(0.000197864 -0.00485951 -1.72684e-06)
(0.000219988 -0.00482206 -1.91993e-06)
(0.000242294 -0.00478077 -2.11461e-06)
(0.000264599 -0.00473563 -2.30928e-06)
(0.000286931 -0.00468654 -2.50418e-06)
(0.000309136 -0.00463343 -2.69799e-06)
(0.000331178 -0.00457616 -2.89036e-06)
(0.000352943 -0.00451464 -3.08032e-06)
(0.000374349 -0.00444874 -3.26715e-06)
(0.000395285 -0.00437835 -3.44988e-06)
(0.000415635 -0.00430337 -3.62749e-06)
(0.000435278 -0.00422371 -3.79894e-06)
(0.000454089 -0.00413928 -3.96313e-06)
(0.000471941 -0.00405005 -4.11895e-06)
(0.000488697 -0.00395598 -4.2652e-06)
(0.000504204 -0.00385707 -4.40056e-06)
(0.000518295 -0.00375338 -4.52355e-06)
(0.000530798 -0.00364497 -4.6327e-06)
(0.00054156 -0.00353196 -4.72665e-06)
(0.000550458 -0.00341454 -4.80434e-06)
(0.000557387 -0.00329288 -4.86484e-06)
(0.000562229 -0.00316725 -4.90714e-06)
(0.00056484 -0.00303794 -4.92994e-06)
(0.000565059 -0.00290535 -4.93188e-06)
(0.000562766 -0.0027699 -4.9119e-06)
(0.000557924 -0.0026321 -4.86969e-06)
(0.000550592 -0.00249244 -4.80574e-06)
(0.000540864 -0.00235144 -4.72082e-06)
(0.000528788 -0.00220961 -4.61545e-06)
(0.000514327 -0.00206756 -4.48924e-06)
(0.000497415 -0.001926 -4.34166e-06)
(0.000478077 -0.0017857 -4.17292e-06)
(0.000456507 -0.00164747 -3.98471e-06)
(0.00043306 -0.00151199 -3.78013e-06)
(0.000408125 -0.00137985 -3.56254e-06)
(0.000382001 -0.00125153 -3.33455e-06)
(0.000354823 -0.00112746 -3.09733e-06)
(0.000326653 -0.00100814 -2.85146e-06)
(0.000297612 -0.000894205 -2.59799e-06)
(0.000268011 -0.000786314 -2.33965e-06)
(0.000238267 -0.000684924 -2.08007e-06)
(0.000208709 -0.000590287 -1.8221e-06)
(0.00017958 -0.000502517 -1.56786e-06)
(0.000151087 -0.000421656 -1.31915e-06)
(0.000123454 -0.000347658 -1.07796e-06)
(9.69528e-05 -0.000280346 -8.46635e-07)
(7.19237e-05 -0.000219357 -6.28156e-07)
(4.87988e-05 -0.000164038 -4.26289e-07)
(2.82784e-05 -0.000113452 -2.47133e-07)
(1.14639e-05 -6.62299e-05 -1.00384e-07)
(8.3703e-07 -2.1282e-05 -9.26058e-09)
(1.36025e-05 -0.00502347 -1.18729e-07)
(3.23073e-05 -0.00505822 -2.81959e-07)
(5.28046e-05 -0.00507038 -4.60854e-07)
(7.44308e-05 -0.00506874 -6.49586e-07)
(9.6021e-05 -0.00505836 -8.38017e-07)
(0.000118438 -0.00504137 -1.03366e-06)
(0.00014077 -0.00501916 -1.22856e-06)
(0.000163684 -0.00499233 -1.42854e-06)
(0.000186583 -0.00496134 -1.62839e-06)
(0.000209877 -0.00492633 -1.83169e-06)
(0.000233163 -0.00488745 -2.03492e-06)
(0.000256611 -0.00484467 -2.23956e-06)
(0.000280025 -0.00479798 -2.44391e-06)
(0.000303445 -0.00474729 -2.64831e-06)
(0.000326712 -0.0046925 -2.85138e-06)
(0.000349792 -0.00463351 -3.05281e-06)
(0.000372561 -0.0045702 -3.25154e-06)
(0.000394934 -0.00450244 -3.44681e-06)
(0.000416786 -0.00443011 -3.63753e-06)
(0.000437991 -0.00435311 -3.82261e-06)
(0.000458414 -0.00427135 -4.00087e-06)
(0.000477921 -0.00418475 -4.17113e-06)
(0.000496372 -0.00409326 -4.33217e-06)
(0.000513621 -0.00399685 -4.48273e-06)
(0.000529505 -0.00389554 -4.62138e-06)
(0.000543847 -0.00378937 -4.74657e-06)
(0.00055647 -0.00367843 -4.85677e-06)
(0.000567218 -0.00356285 -4.95059e-06)
(0.000575968 -0.00344281 -5.02699e-06)
(0.000582613 -0.00331851 -5.08503e-06)
(0.000587033 -0.00319024 -5.12363e-06)
(0.000589076 -0.00305832 -5.14148e-06)
(0.000588581 -0.00292317 -5.13719e-06)
(0.000585435 -0.00278521 -5.10977e-06)
(0.000579623 -0.00264493 -5.05909e-06)
(0.000571227 -0.00250284 -4.98586e-06)
(0.000560357 -0.00235948 -4.89097e-06)
(0.000547063 -0.00221545 -4.77496e-06)
(0.000531295 -0.00207142 -4.63736e-06)
(0.000512989 -0.00192812 -4.4776e-06)
(0.000492185 -0.00178626 -4.29607e-06)
(0.000469123 -0.00164655 -4.09485e-06)
(0.000444213 -0.00150965 -3.87751e-06)
(0.000417889 -0.00137614 -3.6478e-06)
(0.000390467 -0.00124662 -3.40846e-06)
(0.00036207 -0.0011216 -3.1606e-06)
(0.000332732 -0.00100165 -2.90452e-06)
(0.000302551 -0.000887309 -2.64111e-06)
(0.000271859 -0.00077913 -2.37325e-06)
(0.000241121 -0.000677523 -2.105e-06)
(0.000210693 -0.000582748 -1.83943e-06)
(0.000180826 -0.000494951 -1.57874e-06)
(0.000151713 -0.000414188 -1.32462e-06)
(0.000123569 -0.000340405 -1.07896e-06)
(9.66641e-05 -0.000273422 -8.4412e-07)
(7.13515e-05 -0.000212885 -6.23166e-07)
(4.80798e-05 -0.000158187 -4.20014e-07)
(2.75882e-05 -0.000108483 -2.41107e-07)
(1.09826e-05 -6.25971e-05 -9.61741e-08)
(7.37018e-07 -1.9708e-05 -8.27864e-09)
(1.42389e-05 -0.00509933 -1.24258e-07)
(3.38455e-05 -0.00513388 -2.95397e-07)
(5.53698e-05 -0.00514549 -4.83235e-07)
(7.80879e-05 -0.00514314 -6.8151e-07)
(0.000100819 -0.00513197 -8.7989e-07)
(0.000124437 -0.00511412 -1.08601e-06)
(0.000148014 -0.00509101 -1.29178e-06)
(0.000172228 -0.00506321 -1.50311e-06)
(0.000196464 -0.00503118 -1.71463e-06)
(0.000221125 -0.00499507 -1.92985e-06)
(0.000245799 -0.00495499 -2.1452e-06)
(0.000270643 -0.00491092 -2.36202e-06)
(0.000295444 -0.00486284 -2.57848e-06)
(0.000320228 -0.00481066 -2.79479e-06)
(0.000344822 -0.00475428 -3.00944e-06)
(0.000369177 -0.00469358 -3.222e-06)
(0.000393161 -0.00462845 -3.43133e-06)
(0.000416676 -0.00455876 -3.63657e-06)
(0.000439589 -0.0044844 -3.83655e-06)
(0.000461766 -0.00440526 -4.03011e-06)
(0.000483064 -0.00432126 -4.21601e-06)
(0.000503341 -0.00423232 -4.39299e-06)
(0.000522451 -0.0041384 -4.55979e-06)
(0.000540237 -0.00403948 -4.71503e-06)
(0.000556529 -0.00393559 -4.85724e-06)
(0.000571142 -0.00382677 -4.98481e-06)
(0.000583897 -0.00371312 -5.09615e-06)
(0.000594634 -0.00359479 -5.18988e-06)
(0.000603226 -0.00347196 -5.26491e-06)