/*--------------------------------*- C++ -*----------------------------------*\
| =========                 |                                                 |
| \\      /  F ield         | OpenFOAM: The Open Source CFD Toolbox           |
|  \\    /   O peration     | Version:  v2012                                 |
|   \\  /    A nd           | Website:  www.openfoam.com                      |
|    \\/     M anipulation  |                                                 |
\*---------------------------------------------------------------------------*/
FoamFile
{
    version     2.0;
    format      ascii;
    class       volScalarField;
    location    "0.55";
    object      p;
}
// * * * * * * * * * * * * * * * * * * * * * * * * * * * * * * * * * * * * * //

dimensions      [1 -1 -2 0 0 0 0];


internalField   nonuniform List<scalar> 
3332
(
3.48623e+06
3.48601e+06
3.48598e+06
3.48607e+06
3.48625e+06
3.48649e+06
3.48676e+06
3.48706e+06
3.48738e+06
3.4877e+06
3.48801e+06
3.48833e+06
3.48863e+06
3.48892e+06
3.48921e+06
3.48948e+06
3.48973e+06
3.48998e+06
3.49021e+06
3.49043e+06
3.48564e+06
3.48518e+06
3.48498e+06
3.48498e+06
3.4851e+06
3.48532e+06
3.48561e+06
3.48593e+06
3.48627e+06
3.48662e+06
3.48698e+06
3.48734e+06
3.48768e+06
3.48802e+06
3.48835e+06
3.48866e+06
3.48896e+06
3.48924e+06
3.48951e+06
3.48977e+06
3.49001e+06
3.49023e+06
3.49631e+06
3.48704e+06
3.49423e+06
3.48864e+06
3.49515e+06
3.49216e+06
3.48941e+06
3.49026e+06
3.47617e+06
3.4844e+06
3.49126e+06
3.48729e+06
3.48558e+06
3.48455e+06
3.48396e+06
3.48364e+06
3.48358e+06
3.48368e+06
3.4839e+06
3.48421e+06
3.48456e+06
3.48496e+06
3.48536e+06
3.48577e+06
3.48619e+06
3.48659e+06
3.48698e+06
3.48736e+06
3.48772e+06
3.48807e+06
3.4884e+06
3.48872e+06
3.48901e+06
3.48929e+06
3.48956e+06
3.48981e+06
3.49004e+06
3.47926e+06
3.47807e+06
3.47835e+06
3.47823e+06
3.47864e+06
3.48042e+06
3.47399e+06
3.47514e+06
3.45977e+06
3.47228e+06
3.49522e+06
3.49293e+06
3.4839e+06
3.48184e+06
3.48144e+06
3.48133e+06
3.48144e+06
3.48163e+06
3.48197e+06
3.48237e+06
3.48282e+06
3.48331e+06
3.48381e+06
3.48431e+06
3.4848e+06
3.48529e+06
3.48575e+06
3.4862e+06
3.48663e+06
3.48704e+06
3.48743e+06
3.4878e+06
3.48815e+06
3.48848e+06
3.48879e+06
3.48908e+06
3.48936e+06
3.48961e+06
3.48985e+06
3.46274e+06
3.47048e+06
3.463e+06
3.46933e+06
3.46312e+06
3.46959e+06
3.46106e+06
3.46283e+06
3.4461e+06
3.46141e+06
3.48473e+06
3.48352e+06
3.47745e+06
3.47687e+06
3.47764e+06
3.4783e+06
3.47905e+06
3.47971e+06
3.48042e+06
3.4811e+06
3.48178e+06
3.48244e+06
3.48307e+06
3.48368e+06
3.48426e+06
3.48481e+06
3.48534e+06
3.48583e+06
3.4863e+06
3.48674e+06
3.48715e+06
3.48754e+06
3.48791e+06
3.48825e+06
3.48857e+06
3.48888e+06
3.48916e+06
3.48942e+06
3.48967e+06
3.48989e+06
3.44989e+06
3.46509e+06
3.45119e+06
3.46314e+06
3.45209e+06
3.46067e+06
3.45105e+06
3.45281e+06
3.43495e+06
3.45181e+06
3.47558e+06
3.47542e+06
3.47198e+06
3.47251e+06
3.47429e+06
3.47556e+06
3.47688e+06
3.47793e+06
3.47898e+06
3.47991e+06
3.48079e+06
3.48161e+06
3.48237e+06
3.48308e+06
3.48375e+06
3.48436e+06
3.48494e+06
3.48547e+06
3.48597e+06
3.48644e+06
3.48688e+06
3.48729e+06
3.48767e+06
3.48803e+06
3.48836e+06
3.48868e+06
3.48897e+06
3.48924e+06
3.48949e+06
3.48972e+06
3.4415e+06
3.46069e+06
3.44335e+06
3.45849e+06
3.44525e+06
3.4528e+06
3.44262e+06
3.44337e+06
3.42531e+06
3.44351e+06
3.46778e+06
3.46855e+06
3.46741e+06
3.46878e+06
3.47142e+06
3.47316e+06
3.47497e+06
3.47634e+06
3.47768e+06
3.47883e+06
3.47989e+06
3.48085e+06
3.48172e+06
3.48253e+06
3.48326e+06
3.48394e+06
3.48456e+06
3.48514e+06
3.48567e+06
3.48616e+06
3.48662e+06
3.48705e+06
3.48745e+06
3.48782e+06
3.48816e+06
3.48848e+06
3.48878e+06
3.48906e+06
3.48931e+06
3.48955e+06
3.48977e+06
3.43612e+06
3.4547e+06
3.43801e+06
3.45286e+06
3.44005e+06
3.44443e+06
3.43424e+06
3.43322e+06
3.41633e+06
3.43631e+06
3.46108e+06
3.46271e+06
3.46361e+06
3.46565e+06
3.46901e+06
3.47112e+06
3.47333e+06
3.47497e+06
3.47654e+06
3.47787e+06
3.47908e+06
3.48016e+06
3.48114e+06
3.48202e+06
3.48282e+06
3.48354e+06
3.48421e+06
3.48482e+06
3.48538e+06
3.4859e+06
3.48638e+06
3.48682e+06
3.48723e+06
3.48761e+06
3.48797e+06
3.4883e+06
3.4886e+06
3.48888e+06
3.48915e+06
3.48939e+06
3.48961e+06
3.43177e+06
3.44597e+06
3.43336e+06
3.445e+06
3.43447e+06
3.43504e+06
3.42543e+06
3.42244e+06
3.40792e+06
3.43016e+06
3.4553e+06
3.4578e+06
3.46052e+06
3.46311e+06
3.46706e+06
3.46946e+06
3.47198e+06
3.47382e+06
3.47559e+06
3.47705e+06
3.47839e+06
3.47956e+06
3.48061e+06
3.48156e+06
3.48241e+06
3.48319e+06
3.48389e+06
3.48453e+06
3.48511e+06
3.48565e+06
3.48615e+06
3.48661e+06
3.48703e+06
3.48742e+06
3.48778e+06
3.48812e+06
3.48843e+06
3.48872e+06
3.48898e+06
3.48923e+06
3.48945e+06
3.42808e+06
3.43554e+06
3.42869e+06
3.43543e+06
3.42815e+06
3.4253e+06
3.41677e+06
3.41203e+06
3.40051e+06
3.42514e+06
3.45038e+06
3.45385e+06
3.4581e+06
3.46115e+06
3.46555e+06
3.46817e+06
3.47092e+06
3.47291e+06
3.47481e+06
3.47638e+06
3.4778e+06
3.47905e+06
3.48017e+06
3.48116e+06
3.48206e+06
3.48287e+06
3.4836e+06
3.48426e+06
3.48487e+06
3.48543e+06
3.48594e+06
3.4864e+06
3.48684e+06
3.48724e+06
3.4876e+06
3.48795e+06
3.48826e+06
3.48855e+06
3.48882e+06
3.48907e+06
3.4893e+06
3.42464e+06
3.42497e+06
3.42414e+06
3.42569e+06
3.42185e+06
3.41648e+06
3.40931e+06
3.40326e+06
3.39466e+06
3.42134e+06
3.44648e+06
3.45088e+06
3.45639e+06
3.45977e+06
3.46449e+06
3.46724e+06
3.47015e+06
3.47222e+06
3.47422e+06
3.47585e+06
3.47734e+06
3.47863e+06
3.47979e+06
3.48083e+06
3.48175e+06
3.48259e+06
3.48334e+06
3.48403e+06
3.48465e+06
3.48522e+06
3.48574e+06
3.48622e+06
3.48666e+06
3.48706e+06
3.48744e+06
3.48778e+06
3.4881e+06
3.4884e+06
3.48867e+06
3.48892e+06
3.48916e+06
3.42185e+06
3.41611e+06
3.42043e+06
3.41751e+06
3.41658e+06
3.40976e+06
3.4041e+06
3.39722e+06
3.39077e+06
3.41882e+06
3.4438e+06
3.44893e+06
3.45539e+06
3.45895e+06
3.46385e+06
3.46665e+06
3.46964e+06
3.47176e+06
3.4738e+06
3.47546e+06
3.47699e+06
3.47831e+06
3.4795e+06
3.48055e+06
3.4815e+06
3.48235e+06
3.48312e+06
3.48382e+06
3.48445e+06
3.48503e+06
3.48556e+06
3.48604e+06
3.48649e+06
3.4869e+06
3.48728e+06
3.48763e+06
3.48795e+06
3.48825e+06
3.48853e+06
3.48878e+06
3.48901e+06
3.41969e+06
3.40982e+06
3.41794e+06
3.41188e+06
3.41315e+06
3.40585e+06
3.40171e+06
3.39433e+06
3.38897e+06
3.41764e+06
3.44247e+06
3.44798e+06
3.45511e+06
3.45867e+06
3.46362e+06
3.46639e+06
3.46939e+06
3.4715e+06
3.47355e+06
3.47521e+06
3.47674e+06
3.47807e+06
3.47927e+06
3.48034e+06
3.48129e+06
3.48216e+06
3.48293e+06
3.48364e+06
3.48428e+06
3.48486e+06
3.4854e+06
3.48589e+06
3.48634e+06
3.48675e+06
3.48713e+06
3.48748e+06
3.48781e+06
3.48811e+06
3.48838e+06
3.48864e+06
3.48887e+06
3.41912e+06
3.40683e+06
3.41695e+06
3.40907e+06
3.41186e+06
3.4048e+06
3.40214e+06
3.39435e+06
3.38888e+06
3.41758e+06
3.44237e+06
3.44794e+06
3.45546e+06
3.45886e+06
3.46374e+06
3.46641e+06
3.46936e+06
3.47142e+06
3.47344e+06
3.47508e+06
3.4766e+06
3.47792e+06
3.47912e+06
3.48018e+06
3.48114e+06
3.482e+06
3.48278e+06
3.48349e+06
3.48413e+06
3.48472e+06
3.48525e+06
3.48574e+06
3.48619e+06
3.48661e+06
3.48699e+06
3.48735e+06
3.48767e+06
3.48797e+06
3.48825e+06
3.48851e+06
3.48874e+06
3.41971e+06
3.40643e+06
3.4173e+06
3.40868e+06
3.41252e+06
3.4061e+06
3.40478e+06
3.39662e+06
3.39029e+06
3.41842e+06
3.44334e+06
3.44868e+06
3.45633e+06
3.45943e+06
3.46415e+06
3.46667e+06
3.46952e+06
3.4715e+06
3.47347e+06
3.47507e+06
3.47655e+06
3.47785e+06
3.47903e+06
3.48008e+06
3.48103e+06
3.48189e+06
3.48266e+06
3.48337e+06
3.48401e+06
3.48459e+06
3.48513e+06
3.48562e+06
3.48607e+06
3.48648e+06
3.48686e+06
3.48722e+06
3.48754e+06
3.48784e+06
3.48812e+06
3.48838e+06
3.48861e+06
3.42137e+06
3.40791e+06
3.4189e+06
3.41013e+06
3.41472e+06
3.40911e+06
3.40894e+06
3.4004e+06
3.39277e+06
3.41977e+06
3.445e+06
3.44992e+06
3.45752e+06
3.46027e+06
3.46477e+06
3.46711e+06
3.46983e+06
3.47171e+06
3.4736e+06
3.47514e+06
3.47659e+06
3.47785e+06
3.479e+06
3.48003e+06
3.48096e+06
3.48181e+06
3.48257e+06
3.48327e+06
3.48391e+06
3.48449e+06
3.48502e+06
3.4855e+06
3.48595e+06
3.48636e+06
3.48674e+06
3.4871e+06
3.48742e+06
3.48772e+06
3.488e+06
3.48825e+06
3.48849e+06
3.4211e+06
3.40912e+06
3.42106e+06
3.41271e+06
3.41799e+06
3.41324e+06
3.41406e+06
3.40517e+06
3.39591e+06
3.42134e+06
3.44692e+06
3.45147e+06
3.45888e+06
3.46128e+06
3.46553e+06
3.46768e+06
3.47025e+06
3.47202e+06
3.47383e+06
3.4753e+06
3.47669e+06
3.4779e+06
3.47902e+06
3.48002e+06
3.48094e+06
3.48177e+06
3.48252e+06
3.4832e+06
3.48383e+06
3.4844e+06
3.48492e+06
3.48541e+06
3.48585e+06
3.48626e+06
3.48663e+06
3.48698e+06
3.48731e+06
3.4876e+06
3.48788e+06
3.48813e+06
3.48837e+06
3.42426e+06
3.41247e+06
3.42398e+06
3.4159e+06
3.4217e+06
3.41777e+06
3.41936e+06
3.41019e+06
3.3993e+06
3.42286e+06
3.4486e+06
3.45311e+06
3.4602e+06
3.46235e+06
3.46634e+06
3.46832e+06
3.47075e+06
3.47241e+06
3.47412e+06
3.47552e+06
3.47685e+06
3.47802e+06
3.47909e+06
3.48006e+06
3.48095e+06
3.48176e+06
3.48249e+06
3.48316e+06
3.48377e+06
3.48433e+06
3.48485e+06
3.48532e+06
3.48576e+06
3.48616e+06
3.48653e+06
3.48688e+06
3.4872e+06
3.48749e+06
3.48777e+06
3.48802e+06
3.48825e+06
3.42712e+06
3.41551e+06
3.42684e+06
3.41931e+06
3.42549e+06
3.42231e+06
3.42426e+06
3.41507e+06
3.40271e+06
3.4241e+06
3.45e+06
3.45472e+06
3.4614e+06
3.46341e+06
3.46715e+06
3.469e+06
3.47128e+06
3.47285e+06
3.47446e+06
3.47579e+06
3.47706e+06
3.47817e+06
3.47921e+06
3.48014e+06
3.481e+06
3.48178e+06
3.48249e+06
3.48314e+06
3.48374e+06
3.48429e+06
3.48479e+06
3.48525e+06
3.48568e+06
3.48608e+06
3.48644e+06
3.48678e+06
3.4871e+06
3.48739e+06
3.48766e+06
3.48791e+06
3.48814e+06
3.43058e+06
3.41938e+06
3.43011e+06
3.4229e+06
3.42912e+06
3.42665e+06
3.42853e+06
3.41959e+06
3.4057e+06
3.42499e+06
3.45109e+06
3.45615e+06
3.46242e+06
3.46442e+06
3.46793e+06
3.46968e+06
3.47183e+06
3.47331e+06
3.47484e+06
3.4761e+06
3.47731e+06
3.47837e+06
3.47936e+06
3.48026e+06
3.48108e+06
3.48183e+06
3.48251e+06
3.48314e+06
3.48372e+06
3.48425e+06
3.48474e+06
3.4852e+06
3.48561e+06
3.486e+06
3.48636e+06
3.4867e+06
3.48701e+06
3.48729e+06
3.48756e+06
3.48781e+06
3.48804e+06
3.43308e+06
3.42302e+06
3.43314e+06
3.42658e+06
3.43236e+06
3.43068e+06
3.43209e+06
3.42366e+06
3.40812e+06
3.4256e+06
3.45182e+06
3.45734e+06
3.46326e+06
3.46534e+06
3.46864e+06
3.47035e+06
3.47239e+06
3.4738e+06
3.47525e+06
3.47645e+06
3.47759e+06
3.47861e+06
3.47955e+06
3.4804e+06
3.48118e+06
3.4819e+06
3.48256e+06
3.48317e+06
3.48373e+06
3.48424e+06
3.48471e+06
3.48515e+06
3.48556e+06
3.48594e+06
3.48629e+06
3.48661e+06
3.48692e+06
3.4872e+06
3.48747e+06
3.48771e+06
3.48794e+06
3.4357e+06
3.42725e+06
3.43576e+06
3.43032e+06
3.43509e+06
3.43437e+06
3.43494e+06
3.42726e+06
3.41004e+06
3.42595e+06
3.45214e+06
3.45826e+06
3.4639e+06
3.46615e+06
3.46929e+06
3.47099e+06
3.47294e+06
3.4743e+06
3.47568e+06
3.47682e+06
3.47791e+06
3.47887e+06
3.47976e+06
3.48057e+06
3.48132e+06
3.482e+06
3.48263e+06
3.48321e+06
3.48375e+06
3.48424e+06
3.4847e+06
3.48512e+06
3.48552e+06
3.48588e+06
3.48622e+06
3.48654e+06
3.48684e+06
3.48712e+06
3.48737e+06
3.48762e+06
3.48784e+06
3.43773e+06
3.43173e+06
3.4378e+06
3.43415e+06
3.43738e+06
3.43775e+06
3.43722e+06
3.43047e+06
3.41156e+06
3.42612e+06
3.45215e+06
3.45894e+06
3.46438e+06
3.46687e+06
3.46989e+06
3.47162e+06
3.47349e+06
3.47482e+06
3.47614e+06
3.47723e+06
3.47825e+06
3.47916e+06
3.48001e+06
3.48078e+06
3.48148e+06
3.48213e+06
3.48273e+06
3.48328e+06
3.48379e+06
3.48426e+06
3.4847e+06
3.4851e+06
3.48548e+06
3.48584e+06
3.48617e+06
3.48647e+06
3.48676e+06
3.48704e+06
3.48729e+06
3.48753e+06
3.48775e+06
3.43955e+06
3.43674e+06
3.43971e+06
3.43829e+06
3.43945e+06
3.4409e+06
3.43916e+06
3.43342e+06
3.41285e+06
3.42619e+06
3.45191e+06
3.45941e+06
3.46475e+06
3.46752e+06
3.47046e+06
3.47224e+06
3.47405e+06
3.47535e+06
3.47661e+06
3.47765e+06
3.47863e+06
3.47949e+06
3.48028e+06
3.481e+06
3.48167e+06
3.48228e+06
3.48284e+06
3.48336e+06
3.48384e+06
3.48429e+06
3.48471e+06
3.48509e+06
3.48546e+06
3.4858e+06
3.48612e+06
3.48642e+06
3.4867e+06
3.48696e+06
3.48721e+06
3.48744e+06
3.48766e+06
3.44086e+06
3.44191e+06
3.44176e+06
3.44289e+06
3.44173e+06
3.44397e+06
3.4411e+06
3.43635e+06
3.41426e+06
3.42635e+06
3.45163e+06
3.4598e+06
3.46511e+06
3.46815e+06
3.47103e+06
3.47288e+06
3.47463e+06
3.47591e+06
3.47712e+06
3.47811e+06
3.47903e+06
3.47984e+06
3.48058e+06
3.48126e+06
3.48188e+06
3.48245e+06
3.48297e+06
3.48346e+06
3.48391e+06
3.48434e+06
3.48473e+06
3.4851e+06
3.48544e+06
3.48577e+06
3.48607e+06
3.48636e+06
3.48663e+06
3.48689e+06
3.48713e+06
3.48736e+06
3.48757e+06
3.44376e+06
3.44832e+06
3.44474e+06
3.4482e+06
3.44478e+06
3.44727e+06
3.44353e+06
3.4396e+06
3.41622e+06
3.42684e+06
3.45151e+06
3.4602e+06
3.46553e+06
3.46882e+06
3.47166e+06
3.47355e+06
3.47525e+06
3.47651e+06
3.47766e+06
3.47861e+06
3.47947e+06
3.48023e+06
3.48092e+06
3.48154e+06
3.48211e+06
3.48264e+06
3.48313e+06
3.48358e+06
3.484e+06
3.48439e+06
3.48476e+06
3.48511e+06
3.48544e+06
3.48574e+06
3.48604e+06
3.48631e+06
3.48658e+06
3.48683e+06
3.48706e+06
3.48728e+06
3.48749e+06
3.44815e+06
3.45546e+06
3.44913e+06
3.45438e+06
3.44919e+06
3.45123e+06
3.44715e+06
3.4437e+06
3.41934e+06
3.42802e+06
3.45181e+06
3.46078e+06
3.46613e+06
3.46959e+06
3.47238e+06
3.4743e+06
3.47594e+06
3.47717e+06
3.47826e+06
3.47915e+06
3.47995e+06
3.48065e+06
3.48128e+06
3.48185e+06
3.48237e+06
3.48285e+06
3.4833e+06
3.48371e+06
3.4841e+06
3.48446e+06
3.48481e+06
3.48513e+06
3.48544e+06
3.48573e+06
3.48601e+06
3.48627e+06
3.48652e+06
3.48676e+06
3.48699e+06
3.48721e+06
3.48741e+06
3.45467e+06
3.46364e+06
3.45573e+06
3.46174e+06
3.45547e+06
3.45636e+06
3.45277e+06
3.44927e+06
3.42419e+06
3.43006e+06
3.45274e+06
3.46164e+06
3.46699e+06
3.4705e+06
3.47324e+06
3.47514e+06
3.47672e+06
3.4779e+06
3.47892e+06
3.47974e+06
3.48047e+06
3.48111e+06
3.48168e+06
3.48219e+06
3.48266e+06
3.48309e+06
3.48349e+06
3.48386e+06
3.48421e+06
3.48454e+06
3.48486e+06
3.48516e+06
3.48545e+06
3.48572e+06
3.48598e+06
3.48624e+06
3.48648e+06
3.48671e+06
3.48693e+06
3.48714e+06
3.48734e+06
3.46315e+06
3.47252e+06
3.4644e+06
3.47022e+06
3.46384e+06
3.46318e+06
3.46125e+06
3.45703e+06
3.4312e+06
3.43268e+06
3.45442e+06
3.46279e+06
3.46818e+06
3.4716e+06
3.47427e+06
3.47611e+06
3.4776e+06
3.47871e+06
3.47964e+06
3.4804e+06
3.48105e+06
3.48161e+06
3.48211e+06
3.48256e+06
3.48297e+06
3.48334e+06
3.4837e+06
3.48403e+06
3.48434e+06
3.48464e+06
3.48492e+06
3.4852e+06
3.48546e+06
3.48572e+06
3.48596e+06
3.4862e+06
3.48643e+06
3.48665e+06
3.48687e+06
3.48707e+06
3.48726e+06
3.4734e+06
3.48206e+06
3.47469e+06
3.47958e+06
3.4741e+06
3.47211e+06
3.47241e+06
3.46696e+06
3.44056e+06
3.43611e+06
3.45691e+06
3.46427e+06
3.46973e+06
3.4729e+06
3.4755e+06
3.47721e+06
3.47861e+06
3.47962e+06
3.48046e+06
3.48112e+06
3.48168e+06
3.48216e+06
3.48258e+06
3.48296e+06
3.4833e+06
3.48362e+06
3.48392e+06
3.48421e+06
3.48448e+06
3.48474e+06
3.48499e+06
3.48524e+06
3.48548e+06
3.48572e+06
3.48595e+06
3.48617e+06
3.48639e+06
3.4866e+06
3.48681e+06
3.48701e+06
3.4872e+06
3.48448e+06
3.4915e+06
3.48568e+06
3.48912e+06
3.48566e+06
3.48264e+06
3.48526e+06
3.47833e+06
3.45166e+06
3.44066e+06
3.4601e+06
3.46612e+06
3.47163e+06
3.47444e+06
3.47695e+06
3.47849e+06
3.47976e+06
3.48064e+06
3.48137e+06
3.48192e+06
3.48238e+06
3.48276e+06
3.4831e+06
3.48339e+06
3.48367e+06
3.48392e+06
3.48416e+06
3.4844e+06
3.48463e+06
3.48485e+06
3.48507e+06
3.48529e+06
3.48551e+06
3.48573e+06
3.48594e+06
3.48615e+06
3.48636e+06
3.48656e+06
3.48675e+06
3.48695e+06
3.48713e+06
3.49556e+06
3.49999e+06
3.49666e+06
3.49817e+06
3.49792e+06
3.49351e+06
3.49895e+06
3.49026e+06
3.46361e+06
3.44568e+06
3.46363e+06
3.46825e+06
3.47382e+06
3.47619e+06
3.47861e+06
3.47994e+06
3.48107e+06
3.4818e+06
3.48238e+06
3.4828e+06
3.48315e+06
3.48342e+06
3.48366e+06
3.48386e+06
3.48406e+06
3.48424e+06
3.48442e+06
3.4846e+06
3.48478e+06
3.48497e+06
3.48516e+06
3.48535e+06
3.48554e+06
3.48573e+06
3.48593e+06
3.48613e+06
3.48632e+06
3.48651e+06
3.4867e+06
3.48689e+06
3.48706e+06
3.50613e+06
3.5067e+06
3.50699e+06
3.506e+06
3.50998e+06
3.50367e+06
3.51252e+06
3.50174e+06
3.47564e+06
3.45053e+06
3.46721e+06
3.47057e+06
3.47625e+06
3.4782e+06
3.48051e+06
3.4816e+06
3.48256e+06
3.4831e+06
3.48352e+06
3.48379e+06
3.48399e+06
3.48414e+06
3.48426e+06
3.48437e+06
3.48447e+06
3.48458e+06
3.4847e+06
3.48482e+06
3.48495e+06
3.48509e+06
3.48525e+06
3.48541e+06
3.48557e+06
3.48575e+06
3.48593e+06
3.48611e+06
3.48629e+06
3.48647e+06
3.48665e+06
3.48683e+06
3.487e+06
3.51667e+06
3.51119e+06
3.51691e+06
3.51215e+06
3.52123e+06
3.51188e+06
3.52463e+06
3.51097e+06
3.48654e+06
3.45495e+06
3.47079e+06
3.4731e+06
3.47895e+06
3.48052e+06
3.4827e+06
3.48351e+06
3.48426e+06
3.48457e+06
3.48479e+06
3.48487e+06
3.48491e+06
3.48491e+06
3.48491e+06
3.48491e+06
3.48492e+06
3.48494e+06
3.48498e+06
3.48505e+06
3.48513e+06
3.48523e+06
3.48534e+06
3.48547e+06
3.48561e+06
3.48576e+06
3.48592e+06
3.48609e+06
3.48626e+06
3.48643e+06
3.4866e+06
3.48677e+06
3.48694e+06
3.52861e+06
3.51439e+06
3.52785e+06
3.51736e+06
3.53115e+06
3.51733e+06
3.53384e+06
3.51557e+06
3.49493e+06
3.45891e+06
3.47435e+06
3.47607e+06
3.48204e+06
3.48329e+06
3.48524e+06
3.48573e+06
3.48621e+06
3.48624e+06
3.48622e+06
3.48608e+06
3.48592e+06
3.48576e+06
3.48561e+06
3.48548e+06
3.48538e+06
3.48532e+06
3.48528e+06
3.48528e+06
3.48531e+06
3.48536e+06
3.48544e+06
3.48553e+06
3.48565e+06
3.48578e+06
3.48592e+06
3.48607e+06
3.48623e+06
3.48639e+06
3.48656e+06
3.48672e+06
3.48688e+06
3.54384e+06
3.51955e+06
3.54197e+06
3.52431e+06
3.5401e+06
3.5217e+06
3.53933e+06
3.51535e+06
3.50069e+06
3.46366e+06
3.478e+06
3.48004e+06
3.48575e+06
3.48672e+06
3.48825e+06
3.48836e+06
3.48844e+06
3.48814e+06
3.48781e+06
3.4874e+06
3.48702e+06
3.48666e+06
3.48635e+06
3.48608e+06
3.48587e+06
3.48571e+06
3.48559e+06
3.48552e+06
3.48549e+06
3.4855e+06
3.48553e+06
3.4856e+06
3.48569e+06
3.48579e+06
3.48592e+06
3.48605e+06
3.4862e+06
3.48635e+06
3.48651e+06
3.48667e+06
3.48683e+06
3.56336e+06
3.53179e+06
3.56095e+06
3.53731e+06
3.55099e+06
3.53091e+06
3.54353e+06
3.51762e+06
3.50803e+06
3.47293e+06
3.48272e+06
3.48611e+06
3.49045e+06
3.49116e+06
3.49187e+06
3.49148e+06
3.49101e+06
3.49028e+06
3.48957e+06
3.48886e+06
3.48821e+06
3.48763e+06
3.48713e+06
3.48671e+06
3.48637e+06
3.48611e+06
3.4859e+06
3.48576e+06
3.48567e+06
3.48563e+06
3.48563e+06
3.48566e+06
3.48572e+06
3.48581e+06
3.48591e+06
3.48604e+06
3.48617e+06
3.48632e+06
3.48647e+06
3.48662e+06
3.48677e+06
3.58654e+06
3.55556e+06
3.58422e+06
3.55924e+06
3.56867e+06
3.55129e+06
3.55425e+06
3.5365e+06
3.52659e+06
3.49259e+06
3.49139e+06
3.49574e+06
3.49674e+06
3.49692e+06
3.49623e+06
3.49516e+06
3.49394e+06
3.49269e+06
3.49151e+06
3.49043e+06
3.48948e+06
3.48865e+06
3.48795e+06
3.48737e+06
3.48689e+06
3.48651e+06
3.48622e+06
3.486e+06
3.48585e+06
3.48576e+06
3.48572e+06
3.48572e+06
3.48576e+06
3.48582e+06
3.48591e+06
3.48602e+06
3.48614e+06
3.48628e+06
3.48642e+06
3.48657e+06
3.48672e+06
3.61032e+06
3.59004e+06
3.60931e+06
3.59017e+06
3.5942e+06
3.58347e+06
3.57903e+06
3.57465e+06
3.56266e+06
3.52361e+06
3.5056e+06
3.50928e+06
3.50494e+06
3.50411e+06
3.50138e+06
3.49943e+06
3.49724e+06
3.49536e+06
3.49362e+06
3.49212e+06
3.49082e+06
3.48972e+06
3.48879e+06
3.48803e+06
3.48741e+06
3.48692e+06
3.48653e+06
3.48624e+06
3.48603e+06
3.48589e+06
3.48581e+06
3.48578e+06
3.48579e+06
3.48583e+06
3.4859e+06
3.486e+06
3.48611e+06
3.48624e+06
3.48638e+06
3.48652e+06
3.48667e+06
3.63296e+06
3.62815e+06
3.63397e+06
3.6249e+06
3.62426e+06
3.62177e+06
3.61463e+06
3.62322e+06
3.60846e+06
3.56166e+06
3.52277e+06
3.5251e+06
3.51454e+06
3.51234e+06
3.50721e+06
3.50418e+06
3.50085e+06
3.49824e+06
3.49587e+06
3.4939e+06
3.49221e+06
3.49081e+06
3.48965e+06
3.4887e+06
3.48793e+06
3.48731e+06
3.48683e+06
3.48647e+06
3.4862e+06
3.48601e+06
3.48589e+06
3.48583e+06
3.48581e+06
3.48584e+06
3.48589e+06
3.48598e+06
3.48608e+06
3.4862e+06
3.48633e+06
3.48647e+06
3.48661e+06
3.65478e+06
3.66138e+06
3.65721e+06
3.65642e+06
3.65251e+06
3.65621e+06
3.64709e+06
3.66683e+06
3.64451e+06
3.60076e+06
3.53946e+06
3.54131e+06
3.52488e+06
3.52111e+06
3.51354e+06
3.50926e+06
3.5047e+06
3.50127e+06
3.49821e+06
3.49572e+06
3.49363e+06
3.49191e+06
3.4905e+06
3.48935e+06
3.48843e+06
3.4877e+06
3.48712e+06
3.48668e+06
3.48635e+06
3.48612e+06
3.48596e+06
3.48587e+06
3.48583e+06
3.48584e+06
3.48588e+06
3.48595e+06
3.48605e+06
3.48616e+06
3.48629e+06
3.48642e+06
3.48656e+06
3.65707e+06
3.63054e+06
3.55576e+06
3.55599e+06
3.5359e+06
3.53e+06
3.5203e+06
3.51453e+06
3.50873e+06
3.50438e+06
3.5006e+06
3.49756e+06
3.49504e+06
3.49299e+06
3.49133e+06
3.48998e+06
3.48891e+06
3.48805e+06
3.48739e+06
3.48687e+06
3.48649e+06
3.48621e+06
3.48602e+06
3.4859e+06
3.48584e+06
3.48583e+06
3.48586e+06
3.48592e+06
3.48601e+06
3.48612e+06
3.48624e+06
3.48637e+06
3.48651e+06
3.48623e+06
3.48601e+06
3.48598e+06
3.48607e+06
3.48625e+06
3.48649e+06
3.48676e+06
3.48706e+06
3.48738e+06
3.4877e+06
3.48801e+06
3.48833e+06
3.48863e+06
3.48892e+06
3.48921e+06
3.48948e+06
3.48973e+06
3.48998e+06
3.49021e+06
3.49043e+06
3.48564e+06
3.48518e+06
3.48498e+06
3.48498e+06
3.4851e+06
3.48532e+06
3.48561e+06
3.48593e+06
3.48627e+06
3.48662e+06
3.48698e+06
3.48734e+06
3.48768e+06
3.48802e+06
3.48835e+06
3.48866e+06
3.48896e+06
3.48924e+06
3.48951e+06
3.48977e+06
3.49001e+06
3.49023e+06
3.49631e+06
3.48704e+06
3.49423e+06
3.48864e+06
3.49515e+06
3.49216e+06
3.48941e+06
3.49026e+06
3.47617e+06
3.4844e+06
3.49126e+06
3.48729e+06
3.48558e+06
3.48455e+06
3.48396e+06
3.48364e+06
3.48358e+06
3.48368e+06
3.4839e+06
3.48421e+06
3.48456e+06
3.48496e+06
3.48536e+06
3.48577e+06
3.48619e+06
3.48659e+06
3.48698e+06
3.48736e+06
3.48772e+06
3.48807e+06
3.4884e+06
3.48872e+06
3.48901e+06
3.48929e+06
3.48956e+06
3.48981e+06
3.49004e+06
3.47926e+06
3.47807e+06
3.47835e+06
3.47823e+06
3.47864e+06
3.48042e+06
3.47399e+06
3.47514e+06
3.45977e+06
3.47228e+06
3.49522e+06
3.49293e+06
3.4839e+06
3.48184e+06
3.48144e+06
3.48133e+06
3.48144e+06
3.48163e+06
3.48197e+06
3.48237e+06
3.48282e+06
3.48331e+06
3.48381e+06
3.48431e+06
3.4848e+06
3.48529e+06
3.48575e+06
3.4862e+06
3.48663e+06
3.48704e+06
3.48743e+06
3.4878e+06
3.48815e+06
3.48848e+06
3.48879e+06
3.48908e+06
3.48936e+06
3.48961e+06
3.48985e+06
3.46274e+06
3.47048e+06
3.463e+06
3.46933e+06
3.46312e+06
3.46959e+06
3.46106e+06
3.46283e+06
3.4461e+06
3.46141e+06
3.48473e+06
3.48352e+06
3.47745e+06
3.47687e+06
3.47764e+06
3.4783e+06
3.47905e+06
3.47971e+06
3.48042e+06
3.4811e+06
3.48178e+06
3.48244e+06
3.48307e+06
3.48368e+06
3.48426e+06
3.48481e+06
3.48534e+06
3.48583e+06
3.4863e+06
3.48674e+06
3.48715e+06
3.48754e+06
3.48791e+06
3.48825e+06
3.48857e+06
3.48888e+06
3.48916e+06
3.48942e+06
3.48967e+06
3.48989e+06
3.44989e+06
3.46509e+06
3.45119e+06
3.46314e+06
3.45209e+06
3.46067e+06
3.45105e+06
3.45281e+06
3.43495e+06
3.45181e+06
3.47558e+06
3.47542e+06
3.47198e+06
3.47251e+06
3.47429e+06
3.47556e+06
3.47688e+06
3.47793e+06
3.47898e+06
3.47991e+06
3.48079e+06
3.48161e+06
3.48237e+06
3.48308e+06
3.48375e+06
3.48436e+06
3.48494e+06
3.48547e+06
3.48597e+06
3.48644e+06
3.48688e+06
3.48729e+06
3.48767e+06
3.48803e+06
3.48836e+06
3.48868e+06
3.48897e+06
3.48924e+06
3.48949e+06
3.48972e+06
3.4415e+06
3.46069e+06
3.44335e+06
3.45849e+06
3.44525e+06
3.4528e+06
3.44262e+06
3.44337e+06
3.42531e+06
3.44351e+06
3.46778e+06
3.46855e+06
3.46741e+06
3.46878e+06
3.47142e+06
3.47316e+06
3.47497e+06
3.47634e+06
3.47768e+06
3.47883e+06
3.47989e+06
3.48085e+06
3.48172e+06
3.48253e+06
3.48326e+06
3.48394e+06
3.48456e+06
3.48514e+06
3.48567e+06
3.48616e+06
3.48662e+06
3.48705e+06
3.48745e+06
3.48782e+06
3.48816e+06
3.48848e+06
3.48878e+06
3.48906e+06
3.48931e+06
3.48955e+06
3.48977e+06
3.43612e+06
3.4547e+06
3.43801e+06
3.45286e+06
3.44005e+06
3.44443e+06
3.43424e+06
3.43322e+06
3.41633e+06
3.43631e+06
3.46108e+06
3.46271e+06
3.46361e+06
3.46565e+06
3.46901e+06
3.47112e+06
3.47333e+06
3.47497e+06
3.47654e+06
3.47787e+06
3.47908e+06
3.48016e+06
3.48114e+06
3.48202e+06
3.48282e+06
3.48354e+06
3.48421e+06
3.48482e+06
3.48538e+06
3.4859e+06
3.48638e+06
3.48682e+06
3.48723e+06
3.48761e+06
3.48797e+06
3.4883e+06
3.4886e+06
3.48888e+06
3.48915e+06
3.48939e+06
3.48961e+06
3.43177e+06
3.44597e+06
3.43336e+06
3.445e+06
3.43447e+06
3.43504e+06
3.42543e+06
3.42244e+06
3.40792e+06
3.43016e+06
3.4553e+06
3.4578e+06
3.46052e+06
3.46311e+06
3.46706e+06
3.46946e+06
3.47198e+06
3.47382e+06
3.47559e+06
3.47705e+06
3.47839e+06
3.47956e+06
3.48061e+06
3.48156e+06
3.48241e+06
3.48319e+06
3.48389e+06
3.48453e+06
3.48511e+06
3.48565e+06
3.48615e+06
3.48661e+06
3.48703e+06
3.48742e+06
3.48778e+06
3.48812e+06
3.48843e+06
3.48872e+06
3.48898e+06
3.48923e+06
3.48945e+06
3.42808e+06
3.43554e+06
3.42869e+06
3.43543e+06
3.42815e+06
3.4253e+06
3.41677e+06
3.41203e+06
3.40051e+06
3.42514e+06
3.45038e+06
3.45385e+06
3.4581e+06
3.46115e+06
3.46555e+06
3.46817e+06
3.47092e+06
3.47291e+06
3.47481e+06
3.47638e+06
3.4778e+06
3.47905e+06
3.48017e+06
3.48116e+06
3.48206e+06
3.48287e+06
3.4836e+06
3.48426e+06
3.48487e+06
3.48543e+06
3.48594e+06
3.4864e+06
3.48684e+06
3.48724e+06
3.4876e+06
3.48795e+06
3.48826e+06
3.48855e+06
3.48882e+06
3.48907e+06
3.4893e+06
3.42464e+06
3.42497e+06
3.42414e+06
3.42569e+06
3.42185e+06
3.41648e+06
3.40931e+06
3.40326e+06
3.39466e+06
3.42134e+06
3.44648e+06
3.45088e+06
3.45639e+06
3.45977e+06
3.46449e+06
3.46724e+06
3.47015e+06
3.47222e+06
3.47422e+06
3.47585e+06
3.47734e+06
3.47863e+06
3.47979e+06
3.48083e+06
3.48175e+06
3.48259e+06
3.48334e+06
3.48403e+06
3.48465e+06
3.48522e+06
3.48574e+06
3.48622e+06
3.48666e+06
3.48706e+06
3.48744e+06
3.48778e+06
3.4881e+06
3.4884e+06
3.48867e+06
3.48892e+06
3.48916e+06
3.42186e+06
3.41611e+06
3.42043e+06
3.41751e+06
3.41658e+06
3.40976e+06
3.4041e+06
3.39722e+06
3.39077e+06
3.41882e+06
3.4438e+06
3.44893e+06
3.45539e+06
3.45895e+06
3.46385e+06
3.46665e+06
3.46964e+06
3.47176e+06
3.4738e+06
3.47546e+06
3.47699e+06
3.47831e+06
3.4795e+06
3.48055e+06
3.4815e+06
3.48235e+06
3.48312e+06
3.48382e+06
3.48445e+06
3.48503e+06
3.48556e+06
3.48604e+06
3.48649e+06
3.4869e+06
3.48728e+06
3.48763e+06
3.48795e+06
3.48825e+06
3.48853e+06
3.48878e+06
3.48901e+06
3.41969e+06
3.40982e+06
3.41794e+06
3.41188e+06
3.41315e+06
3.40585e+06
3.40171e+06
3.39433e+06
3.38897e+06
3.41764e+06
3.44247e+06
3.44798e+06
3.45511e+06
3.45867e+06
3.46362e+06
3.46639e+06
3.46939e+06
3.4715e+06
3.47355e+06
3.47521e+06
3.47674e+06
3.47807e+06
3.47927e+06
3.48034e+06
3.48129e+06
3.48216e+06
3.48293e+06
3.48364e+06
3.48428e+06
3.48486e+06
3.4854e+06
3.48589e+06
3.48634e+06
3.48675e+06
3.48713e+06
3.48748e+06
3.48781e+06
3.48811e+06
3.48838e+06
3.48864e+06
3.48887e+06
3.41912e+06
3.40683e+06
3.41695e+06
3.40907e+06
3.41186e+06
3.4048e+06
3.40214e+06
3.39435e+06
3.38888e+06
3.41758e+06
3.44237e+06
3.44794e+06
3.45546e+06
3.45886e+06
3.46374e+06
3.46641e+06
3.46936e+06
3.47142e+06
3.47344e+06
3.47508e+06
3.4766e+06
3.47792e+06
3.47912e+06
3.48018e+06
3.48114e+06
3.482e+06
3.48278e+06
3.48349e+06
3.48413e+06
3.48472e+06
3.48525e+06
3.48574e+06
3.48619e+06
3.48661e+06
3.48699e+06
3.48735e+06
3.48767e+06
3.48797e+06
3.48825e+06
3.48851e+06
3.48874e+06
3.41971e+06
3.40643e+06
3.4173e+06
3.40868e+06
3.41252e+06
3.4061e+06
3.40478e+06
3.39662e+06
3.39029e+06
3.41842e+06
3.44334e+06
3.44868e+06
3.45633e+06
3.45943e+06
3.46415e+06
3.46667e+06
3.46952e+06
3.4715e+06
3.47347e+06
3.47507e+06
3.47655e+06
3.47785e+06
3.47903e+06
3.48008e+06
3.48103e+06
3.48189e+06
3.48266e+06
3.48337e+06
3.48401e+06
3.48459e+06
3.48513e+06
3.48562e+06
3.48607e+06
3.48648e+06
3.48686e+06
3.48722e+06
3.48754e+06
3.48784e+06
3.48812e+06
3.48838e+06
3.48861e+06
3.42137e+06
3.40791e+06
3.4189e+06
3.41013e+06
3.41472e+06
3.40911e+06
3.40894e+06
3.4004e+06
3.39277e+06
3.41977e+06
3.445e+06
3.44992e+06
3.45752e+06
3.46027e+06
3.46477e+06
3.46711e+06
3.46983e+06
3.47171e+06
3.4736e+06
3.47514e+06
3.47659e+06
3.47785e+06
3.479e+06
3.48003e+06
3.48096e+06
3.48181e+06
3.48257e+06
3.48327e+06
3.48391e+06
3.48449e+06
3.48502e+06
3.4855e+06
3.48595e+06
3.48636e+06
3.48674e+06
3.4871e+06
3.48742e+06
3.48772e+06
3.488e+06
3.48825e+06
3.48849e+06
3.4211e+06
3.40912e+06
3.42106e+06
3.41271e+06
3.41799e+06
3.41324e+06
3.41406e+06
3.40517e+06
3.39591e+06
3.42134e+06
3.44692e+06
3.45147e+06
3.45888e+06
3.46128e+06
3.46553e+06
3.46768e+06
3.47025e+06
3.47202e+06
3.47383e+06
3.4753e+06
3.47669e+06
3.4779e+06
3.47902e+06
3.48002e+06
3.48094e+06
3.48177e+06
3.48252e+06
3.4832e+06
3.48383e+06
3.4844e+06
3.48492e+06
3.48541e+06
3.48585e+06
3.48626e+06
3.48663e+06
3.48698e+06
3.48731e+06
3.4876e+06
3.48788e+06
3.48813e+06
3.48837e+06
3.42426e+06
3.41247e+06
3.42398e+06
3.4159e+06
3.4217e+06
3.41777e+06
3.41936e+06
3.41019e+06
3.3993e+06
3.42286e+06
3.4486e+06
3.45311e+06
3.4602e+06
3.46235e+06
3.46634e+06
3.46832e+06
3.47075e+06
3.47241e+06
3.47412e+06
3.47552e+06
3.47685e+06
3.47802e+06
3.47909e+06
3.48006e+06
3.48095e+06
3.48176e+06
3.48249e+06
3.48316e+06
3.48377e+06
3.48433e+06
3.48485e+06
3.48532e+06
3.48576e+06
3.48616e+06
3.48653e+06
3.48688e+06
3.4872e+06
3.48749e+06
3.48777e+06
3.48802e+06
3.48825e+06
3.42712e+06
3.41551e+06
3.42684e+06
3.41931e+06
3.42549e+06
3.42231e+06
3.42426e+06
3.41507e+06
3.40271e+06
3.4241e+06
3.45e+06
3.45472e+06
3.4614e+06
3.46341e+06
3.46715e+06
3.469e+06
3.47128e+06
3.47285e+06
3.47446e+06
3.47579e+06
3.47706e+06
3.47817e+06
3.47921e+06
3.48014e+06
3.481e+06
3.48178e+06
3.48249e+06
3.48314e+06
3.48374e+06
3.48429e+06
3.48479e+06
3.48525e+06
3.48568e+06
3.48608e+06
3.48644e+06
3.48678e+06
3.4871e+06
3.48739e+06
3.48766e+06
3.48791e+06
3.48814e+06
3.43058e+06
3.41938e+06
3.43011e+06
3.4229e+06
3.42912e+06
3.42665e+06
3.42853e+06
3.41959e+06
3.4057e+06
3.42499e+06
3.45109e+06
3.45615e+06
3.46242e+06
3.46442e+06
3.46793e+06
3.46968e+06
3.47183e+06
3.47331e+06
3.47484e+06
3.4761e+06
3.47731e+06
3.47837e+06
3.47936e+06
3.48026e+06
3.48108e+06
3.48183e+06
3.48251e+06
3.48314e+06
3.48372e+06
3.48425e+06
3.48474e+06
3.4852e+06
3.48561e+06
3.486e+06
3.48636e+06
3.4867e+06
3.48701e+06
3.48729e+06
3.48756e+06
3.48781e+06
3.48804e+06
3.43308e+06
3.42302e+06
3.43314e+06
3.42658e+06
3.43236e+06
3.43068e+06
3.43209e+06
3.42366e+06
3.40812e+06
3.4256e+06
3.45182e+06
3.45734e+06
3.46326e+06