/*--------------------------------*- C++ -*----------------------------------*\
| =========                 |                                                 |
| \\      /  F ield         | OpenFOAM: The Open Source CFD Toolbox           |
|  \\    /   O peration     | Version:  v2012                                 |
|   \\  /    A nd           | Website:  www.openfoam.com                      |
|    \\/     M anipulation  |                                                 |
\*---------------------------------------------------------------------------*/
FoamFile
{
    version     2.0;
    format      ascii;
    class       volScalarField;
    location    "0.55";
    object      p_rgh;
}
// * * * * * * * * * * * * * * * * * * * * * * * * * * * * * * * * * * * * * //

dimensions      [1 -1 -2 0 0 0 0];


internalField   nonuniform List<scalar> 
3332
(
3.48625e+06
3.48603e+06
3.48599e+06
3.48608e+06
3.48626e+06
3.4865e+06
3.48678e+06
3.48708e+06
3.48739e+06
3.48771e+06
3.48803e+06
3.48834e+06
3.48864e+06
3.48894e+06
3.48922e+06
3.48949e+06
3.48975e+06
3.48999e+06
3.49022e+06
3.49044e+06
3.48566e+06
3.4852e+06
3.48499e+06
3.48499e+06
3.48512e+06
3.48534e+06
3.48562e+06
3.48594e+06
3.48628e+06
3.48664e+06
3.48699e+06
3.48735e+06
3.4877e+06
3.48803e+06
3.48836e+06
3.48867e+06
3.48897e+06
3.48925e+06
3.48952e+06
3.48978e+06
3.49002e+06
3.49024e+06
3.4964e+06
3.48713e+06
3.49432e+06
3.48873e+06
3.49524e+06
3.49225e+06
3.4895e+06
3.49035e+06
3.47625e+06
3.48447e+06
3.49128e+06
3.4873e+06
3.48559e+06
3.48457e+06
3.48397e+06
3.48365e+06
3.48359e+06
3.48369e+06
3.48391e+06
3.48422e+06
3.48458e+06
3.48497e+06
3.48537e+06
3.48579e+06
3.4862e+06
3.4866e+06
3.48699e+06
3.48737e+06
3.48774e+06
3.48808e+06
3.48841e+06
3.48873e+06
3.48903e+06
3.48931e+06
3.48957e+06
3.48982e+06
3.49005e+06
3.47936e+06
3.47817e+06
3.47844e+06
3.47832e+06
3.47873e+06
3.48051e+06
3.47408e+06
3.47523e+06
3.45984e+06
3.47236e+06
3.4953e+06
3.49297e+06
3.48392e+06
3.48186e+06
3.48145e+06
3.48134e+06
3.48145e+06
3.48165e+06
3.48198e+06
3.48238e+06
3.48284e+06
3.48332e+06
3.48382e+06
3.48432e+06
3.48482e+06
3.4853e+06
3.48577e+06
3.48622e+06
3.48665e+06
3.48706e+06
3.48745e+06
3.48781e+06
3.48816e+06
3.48849e+06
3.4888e+06
3.48909e+06
3.48937e+06
3.48962e+06
3.48986e+06
3.46283e+06
3.47057e+06
3.4631e+06
3.46942e+06
3.46321e+06
3.46968e+06
3.46116e+06
3.46292e+06
3.44617e+06
3.46149e+06
3.48481e+06
3.48357e+06
3.47747e+06
3.47689e+06
3.47766e+06
3.47831e+06
3.47907e+06
3.47972e+06
3.48043e+06
3.48111e+06
3.48179e+06
3.48245e+06
3.48309e+06
3.48369e+06
3.48428e+06
3.48483e+06
3.48535e+06
3.48584e+06
3.48631e+06
3.48675e+06
3.48716e+06
3.48755e+06
3.48792e+06
3.48826e+06
3.48859e+06
3.48889e+06
3.48917e+06
3.48943e+06
3.48968e+06
3.48991e+06
3.44999e+06
3.46518e+06
3.45129e+06
3.46324e+06
3.45219e+06
3.46077e+06
3.45115e+06
3.45291e+06
3.43502e+06
3.45189e+06
3.47566e+06
3.47546e+06
3.472e+06
3.47252e+06
3.47431e+06
3.47557e+06
3.47689e+06
3.47795e+06
3.47899e+06
3.47992e+06
3.48081e+06
3.48162e+06
3.48239e+06
3.4831e+06
3.48376e+06
3.48438e+06
3.48495e+06
3.48549e+06
3.48599e+06
3.48646e+06
3.48689e+06
3.4873e+06
3.48769e+06
3.48804e+06
3.48838e+06
3.48869e+06
3.48898e+06
3.48925e+06
3.4895e+06
3.48973e+06
3.4416e+06
3.46079e+06
3.44345e+06
3.45859e+06
3.44535e+06
3.4529e+06
3.44272e+06
3.44347e+06
3.42538e+06
3.44359e+06
3.46785e+06
3.4686e+06
3.46743e+06
3.46879e+06
3.47143e+06
3.47317e+06
3.47498e+06
3.47636e+06
3.47769e+06
3.47884e+06
3.4799e+06
3.48086e+06
3.48174e+06
3.48254e+06
3.48327e+06
3.48395e+06
3.48457e+06
3.48515e+06
3.48568e+06
3.48618e+06
3.48664e+06
3.48706e+06
3.48746e+06
3.48783e+06
3.48818e+06
3.4885e+06
3.48879e+06
3.48907e+06
3.48933e+06
3.48957e+06
3.48978e+06
3.43622e+06
3.4548e+06
3.43811e+06
3.45297e+06
3.44015e+06
3.44453e+06
3.43434e+06
3.43332e+06
3.4164e+06
3.43639e+06
3.46116e+06
3.46275e+06
3.46363e+06
3.46567e+06
3.46902e+06
3.47114e+06
3.47334e+06
3.47498e+06
3.47656e+06
3.47788e+06
3.4791e+06
3.48017e+06
3.48115e+06
3.48203e+06
3.48283e+06
3.48356e+06
3.48422e+06
3.48483e+06
3.4854e+06
3.48591e+06
3.48639e+06
3.48684e+06
3.48725e+06
3.48763e+06
3.48798e+06
3.48831e+06
3.48861e+06
3.4889e+06
3.48916e+06
3.4894e+06
3.48962e+06
3.43187e+06
3.44607e+06
3.43347e+06
3.4451e+06
3.43457e+06
3.43515e+06
3.42553e+06
3.42254e+06
3.408e+06
3.43024e+06
3.45537e+06
3.45784e+06
3.46054e+06
3.46313e+06
3.46707e+06
3.46948e+06
3.472e+06
3.47384e+06
3.4756e+06
3.47706e+06
3.4784e+06
3.47957e+06
3.48063e+06
3.48157e+06
3.48243e+06
3.4832e+06
3.4839e+06
3.48454e+06
3.48513e+06
3.48567e+06
3.48616e+06
3.48662e+06
3.48704e+06
3.48743e+06
3.4878e+06
3.48813e+06
3.48844e+06
3.48873e+06
3.489e+06
3.48924e+06
3.48947e+06
3.42818e+06
3.43564e+06
3.4288e+06
3.43553e+06
3.42826e+06
3.42541e+06
3.41687e+06
3.41213e+06
3.40059e+06
3.42522e+06
3.45046e+06
3.45389e+06
3.45812e+06
3.46117e+06
3.46557e+06
3.46818e+06
3.47094e+06
3.47292e+06
3.47483e+06
3.47639e+06
3.47782e+06
3.47906e+06
3.48018e+06
3.48118e+06
3.48207e+06
3.48288e+06
3.48361e+06
3.48428e+06
3.48488e+06
3.48544e+06
3.48595e+06
3.48642e+06
3.48685e+06
3.48725e+06
3.48762e+06
3.48796e+06
3.48828e+06
3.48857e+06
3.48884e+06
3.48909e+06
3.48932e+06
3.42475e+06
3.42508e+06
3.42425e+06
3.4258e+06
3.42196e+06
3.41659e+06
3.40942e+06
3.40336e+06
3.39474e+06
3.42142e+06
3.44655e+06
3.45092e+06
3.45641e+06
3.45979e+06
3.4645e+06
3.46725e+06
3.47016e+06
3.47224e+06
3.47423e+06
3.47586e+06
3.47735e+06
3.47865e+06
3.47981e+06
3.48084e+06
3.48177e+06
3.4826e+06
3.48336e+06
3.48404e+06
3.48466e+06
3.48523e+06
3.48575e+06
3.48623e+06
3.48667e+06
3.48708e+06
3.48745e+06
3.4878e+06
3.48812e+06
3.48841e+06
3.48869e+06
3.48894e+06
3.48917e+06
3.42197e+06
3.41622e+06
3.42054e+06
3.41762e+06
3.4167e+06
3.40988e+06
3.40421e+06
3.39732e+06
3.39085e+06
3.4189e+06
3.44387e+06
3.44897e+06
3.45541e+06
3.45897e+06
3.46386e+06
3.46667e+06
3.46966e+06
3.47177e+06
3.47382e+06
3.47548e+06
3.477e+06
3.47832e+06
3.47951e+06
3.48057e+06
3.48151e+06
3.48237e+06
3.48314e+06
3.48383e+06
3.48447e+06
3.48505e+06
3.48557e+06
3.48606e+06
3.48651e+06
3.48692e+06
3.48729e+06
3.48764e+06
3.48797e+06
3.48827e+06
3.48854e+06
3.48879e+06
3.48903e+06
3.41981e+06
3.40994e+06
3.41806e+06
3.41199e+06
3.41326e+06
3.40597e+06
3.40183e+06
3.39443e+06
3.38904e+06
3.41772e+06
3.44254e+06
3.44802e+06
3.45513e+06
3.45869e+06
3.46363e+06
3.4664e+06
3.46941e+06
3.47151e+06
3.47356e+06
3.47523e+06
3.47676e+06
3.47809e+06
3.47929e+06
3.48035e+06
3.48131e+06
3.48217e+06
3.48295e+06
3.48365e+06
3.48429e+06
3.48488e+06
3.48541e+06
3.4859e+06
3.48635e+06
3.48677e+06
3.48715e+06
3.4875e+06
3.48782e+06
3.48812e+06
3.4884e+06
3.48866e+06
3.48889e+06
3.41924e+06
3.40694e+06
3.41707e+06
3.40918e+06
3.41198e+06
3.40491e+06
3.40225e+06
3.39446e+06
3.38896e+06
3.41765e+06
3.44244e+06
3.44798e+06
3.45548e+06
3.45888e+06
3.46375e+06
3.46642e+06
3.46938e+06
3.47143e+06
3.47346e+06
3.4751e+06
3.47662e+06
3.47794e+06
3.47913e+06
3.4802e+06
3.48115e+06
3.48202e+06
3.4828e+06
3.4835e+06
3.48415e+06
3.48473e+06
3.48527e+06
3.48576e+06
3.48621e+06
3.48663e+06
3.48701e+06
3.48736e+06
3.48769e+06
3.48799e+06
3.48827e+06
3.48852e+06
3.48876e+06
3.41983e+06
3.40655e+06
3.41742e+06
3.4088e+06
3.41264e+06
3.40622e+06
3.40489e+06
3.39672e+06
3.39036e+06
3.4185e+06
3.44341e+06
3.44871e+06
3.45635e+06
3.45945e+06
3.46416e+06
3.46668e+06
3.46954e+06
3.47152e+06
3.47348e+06
3.47508e+06
3.47657e+06
3.47787e+06
3.47904e+06
3.48009e+06
3.48104e+06
3.4819e+06
3.48268e+06
3.48338e+06
3.48402e+06
3.48461e+06
3.48514e+06
3.48563e+06
3.48608e+06
3.4865e+06
3.48688e+06
3.48723e+06
3.48756e+06
3.48786e+06
3.48814e+06
3.48839e+06
3.48863e+06
3.42149e+06
3.40803e+06
3.41902e+06
3.41025e+06
3.41484e+06
3.40923e+06
3.40906e+06
3.40051e+06
3.39285e+06
3.41985e+06
3.44507e+06
3.44996e+06
3.45754e+06
3.46029e+06
3.46479e+06
3.46712e+06
3.46985e+06
3.47173e+06
3.47362e+06
3.47516e+06
3.4766e+06
3.47786e+06
3.47901e+06
3.48004e+06
3.48098e+06
3.48182e+06
3.48259e+06
3.48329e+06
3.48392e+06
3.4845e+06
3.48503e+06
3.48552e+06
3.48597e+06
3.48638e+06
3.48676e+06
3.48711e+06
3.48744e+06
3.48774e+06
3.48801e+06
3.48827e+06
3.4885e+06
3.42123e+06
3.40924e+06
3.42118e+06
3.41283e+06
3.41811e+06
3.41337e+06
3.41418e+06
3.40528e+06
3.39598e+06
3.42142e+06
3.44698e+06
3.4515e+06
3.4589e+06
3.4613e+06
3.46555e+06
3.46769e+06
3.47027e+06
3.47204e+06
3.47384e+06
3.47531e+06
3.4767e+06
3.47792e+06
3.47904e+06
3.48004e+06
3.48095e+06
3.48178e+06
3.48253e+06
3.48322e+06
3.48384e+06
3.48442e+06
3.48494e+06
3.48542e+06
3.48587e+06
3.48627e+06
3.48665e+06
3.487e+06
3.48732e+06
3.48762e+06
3.4879e+06
3.48815e+06
3.48839e+06
3.42438e+06
3.41259e+06
3.42411e+06
3.41603e+06
3.42182e+06
3.41789e+06
3.41949e+06
3.4103e+06
3.39938e+06
3.42294e+06
3.44867e+06
3.45315e+06
3.46022e+06
3.46236e+06
3.46636e+06
3.46833e+06
3.47076e+06
3.47243e+06
3.47414e+06
3.47554e+06
3.47686e+06
3.47803e+06
3.47911e+06
3.48008e+06
3.48097e+06
3.48177e+06
3.48251e+06
3.48318e+06
3.48379e+06
3.48435e+06
3.48487e+06
3.48534e+06
3.48578e+06
3.48618e+06
3.48655e+06
3.4869e+06
3.48722e+06
3.48751e+06
3.48778e+06
3.48804e+06
3.48827e+06
3.42724e+06
3.41563e+06
3.42696e+06
3.41944e+06
3.42562e+06
3.42244e+06
3.42439e+06
3.41518e+06
3.40278e+06
3.42418e+06
3.45007e+06
3.45476e+06
3.46142e+06
3.46343e+06
3.46717e+06
3.46901e+06
3.4713e+06
3.47286e+06
3.47448e+06
3.47581e+06
3.47707e+06
3.47819e+06
3.47923e+06
3.48016e+06
3.48101e+06
3.48179e+06
3.48251e+06
3.48316e+06
3.48375e+06
3.4843e+06
3.48481e+06
3.48527e+06
3.4857e+06
3.48609e+06
3.48646e+06
3.4868e+06
3.48712e+06
3.48741e+06
3.48768e+06
3.48793e+06
3.48816e+06
3.43071e+06
3.41951e+06
3.43024e+06
3.42303e+06
3.42924e+06
3.42678e+06
3.42866e+06
3.41971e+06
3.40578e+06
3.42506e+06
3.45116e+06
3.45619e+06
3.46244e+06
3.46444e+06
3.46794e+06
3.4697e+06
3.47185e+06
3.47333e+06
3.47486e+06
3.47612e+06
3.47732e+06
3.47839e+06
3.47938e+06
3.48027e+06
3.48109e+06
3.48184e+06
3.48253e+06
3.48316e+06
3.48374e+06
3.48427e+06
3.48476e+06
3.48521e+06
3.48563e+06
3.48602e+06
3.48638e+06
3.48671e+06
3.48702e+06
3.48731e+06
3.48758e+06
3.48783e+06
3.48806e+06
3.43321e+06
3.42315e+06
3.43327e+06
3.42671e+06
3.43249e+06
3.43082e+06
3.43222e+06
3.42377e+06
3.4082e+06
3.42567e+06
3.45188e+06
3.45738e+06
3.46328e+06
3.46536e+06
3.46866e+06
3.47036e+06
3.4724e+06
3.47382e+06
3.47527e+06
3.47647e+06
3.47761e+06
3.47862e+06
3.47956e+06
3.48042e+06
3.4812e+06
3.48192e+06
3.48258e+06
3.48319e+06
3.48374e+06
3.48426e+06
3.48473e+06
3.48517e+06
3.48558e+06
3.48595e+06
3.48631e+06
3.48663e+06
3.48694e+06
3.48722e+06
3.48748e+06
3.48773e+06
3.48795e+06
3.43583e+06
3.42738e+06
3.43589e+06
3.43045e+06
3.43522e+06
3.4345e+06
3.43507e+06
3.42738e+06
3.41012e+06
3.42601e+06
3.4522e+06
3.45829e+06
3.46392e+06
3.46617e+06
3.46931e+06
3.47101e+06
3.47296e+06
3.47432e+06
3.4757e+06
3.47684e+06
3.47793e+06
3.47889e+06
3.47978e+06
3.48059e+06
3.48134e+06
3.48202e+06
3.48265e+06
3.48323e+06
3.48377e+06
3.48426e+06
3.48472e+06
3.48514e+06
3.48553e+06
3.4859e+06
3.48624e+06
3.48656e+06
3.48686e+06
3.48713e+06
3.48739e+06
3.48763e+06
3.48786e+06
3.43787e+06
3.43187e+06
3.43794e+06
3.43429e+06
3.43752e+06
3.43789e+06
3.43736e+06
3.43059e+06
3.41163e+06
3.42619e+06
3.4522e+06
3.45897e+06
3.4644e+06
3.46689e+06
3.46991e+06
3.47164e+06
3.47351e+06
3.47484e+06
3.47615e+06
3.47724e+06
3.47827e+06
3.47918e+06
3.48003e+06
3.48079e+06
3.4815e+06
3.48215e+06
3.48275e+06
3.4833e+06
3.48381e+06
3.48428e+06
3.48471e+06
3.48512e+06
3.4855e+06
3.48585e+06
3.48618e+06
3.48649e+06
3.48678e+06
3.48705e+06
3.48731e+06
3.48754e+06
3.48776e+06
3.43969e+06
3.43688e+06
3.43984e+06
3.43843e+06
3.43959e+06
3.44103e+06
3.4393e+06
3.43355e+06
3.41292e+06
3.42625e+06
3.45197e+06
3.45944e+06
3.46477e+06
3.46754e+06
3.47048e+06
3.47226e+06
3.47406e+06
3.47537e+06
3.47663e+06
3.47767e+06
3.47864e+06
3.47951e+06
3.4803e+06
3.48102e+06
3.48169e+06
3.4823e+06
3.48286e+06
3.48338e+06
3.48386e+06
3.48431e+06
3.48472e+06
3.48511e+06
3.48548e+06
3.48582e+06
3.48613e+06
3.48643e+06
3.48672e+06
3.48698e+06
3.48723e+06
3.48746e+06
3.48768e+06
3.441e+06
3.44205e+06
3.4419e+06
3.44303e+06
3.44187e+06
3.44411e+06
3.44124e+06
3.43647e+06
3.41434e+06
3.42641e+06
3.45168e+06
3.45983e+06
3.46513e+06
3.46817e+06
3.47105e+06
3.47289e+06
3.47465e+06
3.47593e+06
3.47714e+06
3.47813e+06
3.47905e+06
3.47986e+06
3.4806e+06
3.48128e+06
3.4819e+06
3.48247e+06
3.48299e+06
3.48348e+06
3.48393e+06
3.48435e+06
3.48475e+06
3.48512e+06
3.48546e+06
3.48579e+06
3.48609e+06
3.48638e+06
3.48665e+06
3.48691e+06
3.48715e+06
3.48738e+06
3.48759e+06
3.4439e+06
3.44846e+06
3.44488e+06
3.44834e+06
3.44492e+06
3.44741e+06
3.44368e+06
3.43972e+06
3.41629e+06
3.4269e+06
3.45156e+06
3.46023e+06
3.46555e+06
3.46884e+06
3.47168e+06
3.47357e+06
3.47527e+06
3.47653e+06
3.47768e+06
3.47863e+06
3.47949e+06
3.48025e+06
3.48094e+06
3.48156e+06
3.48213e+06
3.48266e+06
3.48315e+06
3.4836e+06
3.48402e+06
3.48441e+06
3.48478e+06
3.48513e+06
3.48545e+06
3.48576e+06
3.48606e+06
3.48633e+06
3.4866e+06
3.48684e+06
3.48708e+06
3.4873e+06
3.48751e+06
3.4483e+06
3.4556e+06
3.44927e+06
3.45452e+06
3.44934e+06
3.45138e+06
3.44729e+06
3.44383e+06
3.41941e+06
3.42808e+06
3.45186e+06
3.46081e+06
3.46615e+06
3.46961e+06
3.4724e+06
3.47432e+06
3.47596e+06
3.47719e+06
3.47828e+06
3.47917e+06
3.47997e+06
3.48067e+06
3.4813e+06
3.48187e+06
3.48239e+06
3.48287e+06
3.48332e+06
3.48373e+06
3.48412e+06
3.48448e+06
3.48483e+06
3.48515e+06
3.48546e+06
3.48575e+06
3.48603e+06
3.48629e+06
3.48654e+06
3.48678e+06
3.48701e+06
3.48723e+06
3.48743e+06
3.45481e+06
3.46378e+06
3.45588e+06
3.46188e+06
3.45562e+06
3.4565e+06
3.45291e+06
3.4494e+06
3.42427e+06
3.43011e+06
3.45278e+06
3.46167e+06
3.46702e+06
3.47052e+06
3.47326e+06
3.47516e+06
3.47674e+06
3.47792e+06
3.47894e+06
3.47976e+06
3.48049e+06
3.48113e+06
3.4817e+06
3.48221e+06
3.48268e+06
3.48311e+06
3.48351e+06
3.48388e+06
3.48423e+06
3.48456e+06
3.48488e+06
3.48518e+06
3.48547e+06
3.48574e+06
3.486e+06
3.48625e+06
3.4865e+06
3.48673e+06
3.48695e+06
3.48716e+06
3.48736e+06
3.4633e+06
3.47267e+06
3.46455e+06
3.47037e+06
3.46399e+06
3.46333e+06
3.4614e+06
3.45717e+06
3.43128e+06
3.43273e+06
3.45447e+06
3.46282e+06
3.46821e+06
3.47162e+06
3.47429e+06
3.47613e+06
3.47762e+06
3.47873e+06
3.47966e+06
3.48042e+06
3.48107e+06
3.48163e+06
3.48213e+06
3.48258e+06
3.48299e+06
3.48336e+06
3.48372e+06
3.48405e+06
3.48436e+06
3.48466e+06
3.48494e+06
3.48522e+06
3.48548e+06
3.48574e+06
3.48598e+06
3.48622e+06
3.48645e+06
3.48667e+06
3.48689e+06
3.48709e+06
3.48728e+06
3.47355e+06
3.48221e+06
3.47484e+06
3.47973e+06
3.47425e+06
3.47226e+06
3.47256e+06
3.4671e+06
3.44064e+06
3.43615e+06
3.45695e+06
3.46429e+06
3.46975e+06
3.47292e+06
3.47552e+06
3.47723e+06
3.47863e+06
3.47964e+06
3.48048e+06
3.48114e+06
3.4817e+06
3.48218e+06
3.4826e+06
3.48298e+06
3.48332e+06
3.48364e+06
3.48394e+06
3.48423e+06
3.4845e+06
3.48476e+06
3.48501e+06
3.48526e+06
3.4855e+06
3.48574e+06
3.48597e+06
3.48619e+06
3.48641e+06
3.48662e+06
3.48683e+06
3.48703e+06
3.48722e+06
3.48463e+06
3.49165e+06
3.48583e+06
3.48927e+06
3.48581e+06
3.48279e+06
3.48541e+06
3.47847e+06
3.45175e+06
3.44071e+06
3.46014e+06
3.46615e+06
3.47165e+06
3.47446e+06
3.47697e+06
3.47851e+06
3.47978e+06
3.48066e+06
3.48139e+06
3.48194e+06
3.4824e+06
3.48278e+06
3.48312e+06
3.48341e+06
3.48369e+06
3.48394e+06
3.48418e+06
3.48442e+06
3.48465e+06
3.48487e+06
3.48509e+06
3.48531e+06
3.48553e+06
3.48575e+06
3.48596e+06
3.48617e+06
3.48638e+06
3.48658e+06
3.48678e+06
3.48697e+06
3.48715e+06
3.49571e+06
3.50015e+06
3.49681e+06
3.49832e+06
3.49807e+06
3.49367e+06
3.4991e+06
3.49041e+06
3.46369e+06
3.44572e+06
3.46366e+06
3.46828e+06
3.47384e+06
3.47621e+06
3.47863e+06
3.47996e+06
3.48109e+06
3.48182e+06
3.48241e+06
3.48282e+06
3.48317e+06
3.48344e+06
3.48368e+06
3.48388e+06
3.48408e+06
3.48426e+06
3.48444e+06
3.48462e+06
3.48481e+06
3.48499e+06
3.48518e+06
3.48537e+06
3.48556e+06
3.48576e+06
3.48595e+06
3.48615e+06
3.48634e+06
3.48653e+06
3.48672e+06
3.48691e+06
3.48709e+06
3.50629e+06
3.50686e+06
3.50715e+06
3.50615e+06
3.51014e+06
3.50382e+06
3.51267e+06
3.50189e+06
3.47573e+06
3.45058e+06
3.46725e+06
3.4706e+06
3.47627e+06
3.47822e+06
3.48053e+06
3.48162e+06
3.48259e+06
3.48312e+06
3.48354e+06
3.48381e+06
3.48401e+06
3.48416e+06
3.48428e+06
3.48439e+06
3.48449e+06
3.4846e+06
3.48472e+06
3.48484e+06
3.48497e+06
3.48512e+06
3.48527e+06
3.48543e+06
3.4856e+06
3.48577e+06
3.48595e+06
3.48613e+06
3.48631e+06
3.48649e+06
3.48667e+06
3.48685e+06
3.48702e+06
3.51683e+06
3.51135e+06
3.51707e+06
3.51231e+06
3.52139e+06
3.51203e+06
3.52479e+06
3.51112e+06
3.48664e+06
3.45499e+06
3.47083e+06
3.47313e+06
3.47898e+06
3.48054e+06
3.48272e+06
3.48353e+06
3.48428e+06
3.4846e+06
3.48482e+06
3.4849e+06
3.48493e+06
3.48493e+06
3.48493e+06
3.48493e+06
3.48494e+06
3.48496e+06
3.485e+06
3.48507e+06
3.48515e+06
3.48525e+06
3.48536e+06
3.48549e+06
3.48563e+06
3.48578e+06
3.48594e+06
3.48611e+06
3.48628e+06
3.48645e+06
3.48662e+06
3.4868e+06
3.48696e+06
3.52877e+06
3.51455e+06
3.52801e+06
3.51752e+06
3.53131e+06
3.51749e+06
3.534e+06
3.51573e+06
3.49503e+06
3.45895e+06
3.47438e+06
3.4761e+06
3.48207e+06
3.48331e+06
3.48526e+06
3.48576e+06
3.48623e+06
3.48627e+06
3.48624e+06
3.4861e+06
3.48594e+06
3.48578e+06
3.48563e+06
3.4855e+06
3.4854e+06
3.48534e+06
3.4853e+06
3.4853e+06
3.48533e+06
3.48538e+06
3.48546e+06
3.48555e+06
3.48567e+06
3.4858e+06
3.48594e+06
3.48609e+06
3.48625e+06
3.48641e+06
3.48658e+06
3.48674e+06
3.48691e+06
3.544e+06
3.51971e+06
3.54214e+06
3.52447e+06
3.54026e+06
3.52186e+06
3.53949e+06
3.51551e+06
3.5008e+06
3.4637e+06
3.47803e+06
3.48007e+06
3.48577e+06
3.48675e+06
3.48827e+06
3.48838e+06
3.48846e+06
3.48816e+06
3.48783e+06
3.48743e+06
3.48704e+06
3.48668e+06
3.48637e+06
3.4861e+06
3.48589e+06
3.48573e+06
3.48561e+06
3.48554e+06
3.48551e+06
3.48552e+06
3.48555e+06
3.48562e+06
3.48571e+06
3.48582e+06
3.48594e+06
3.48608e+06
3.48622e+06
3.48638e+06
3.48653e+06
3.48669e+06
3.48685e+06
3.56352e+06
3.53195e+06
3.56111e+06
3.53747e+06
3.55115e+06
3.53108e+06
3.54369e+06
3.51778e+06
3.50814e+06
3.47298e+06
3.48275e+06
3.48614e+06
3.49047e+06
3.49118e+06
3.49189e+06
3.4915e+06
3.49103e+06
3.49031e+06
3.48959e+06
3.48888e+06
3.48823e+06
3.48765e+06
3.48715e+06
3.48674e+06
3.4864e+06
3.48613e+06
3.48593e+06
3.48578e+06
3.4857e+06
3.48565e+06
3.48565e+06
3.48568e+06
3.48574e+06
3.48583e+06
3.48594e+06
3.48606e+06
3.48619e+06
3.48634e+06
3.48649e+06
3.48664e+06
3.48679e+06
3.58671e+06
3.55573e+06
3.58438e+06
3.5594e+06
3.56884e+06
3.55145e+06
3.55442e+06
3.53667e+06
3.52671e+06
3.49265e+06
3.49142e+06
3.49576e+06
3.49676e+06
3.49694e+06
3.49625e+06
3.49519e+06
3.49396e+06
3.49272e+06
3.49153e+06
3.49046e+06
3.4895e+06
3.48867e+06
3.48797e+06
3.48739e+06
3.48691e+06
3.48653e+06
3.48624e+06
3.48603e+06
3.48588e+06
3.48579e+06
3.48574e+06
3.48574e+06
3.48578e+06
3.48584e+06
3.48593e+06
3.48604e+06
3.48617e+06
3.4863e+06
3.48644e+06
3.48659e+06
3.48674e+06
3.61049e+06
3.5902e+06
3.60948e+06
3.59034e+06
3.59437e+06
3.58364e+06
3.5792e+06
3.57481e+06
3.5628e+06
3.52366e+06
3.50563e+06
3.50931e+06
3.50497e+06
3.50414e+06
3.50141e+06
3.49946e+06
3.49726e+06
3.49538e+06
3.49364e+06
3.49214e+06
3.49084e+06
3.48974e+06
3.48882e+06
3.48805e+06
3.48743e+06
3.48694e+06
3.48655e+06
3.48626e+06
3.48605e+06
3.48591e+06
3.48583e+06
3.4858e+06
3.48581e+06
3.48585e+06
3.48593e+06
3.48602e+06
3.48614e+06
3.48626e+06
3.4864e+06
3.48654e+06
3.48669e+06
3.63314e+06
3.62832e+06
3.63414e+06
3.62507e+06
3.62443e+06
3.62194e+06
3.61481e+06
3.62339e+06
3.60861e+06
3.56172e+06
3.52281e+06
3.52513e+06
3.51456e+06
3.51237e+06
3.50724e+06
3.50421e+06
3.50087e+06
3.49826e+06
3.49589e+06
3.49392e+06
3.49223e+06
3.49083e+06
3.48967e+06
3.48872e+06
3.48795e+06
3.48734e+06
3.48686e+06
3.48649e+06
3.48622e+06
3.48603e+06
3.48591e+06
3.48585e+06
3.48584e+06
3.48586e+06
3.48592e+06
3.486e+06
3.4861e+06
3.48622e+06
3.48635e+06
3.48649e+06
3.48664e+06
3.65495e+06
3.66155e+06
3.65738e+06
3.6566e+06
3.65268e+06
3.65638e+06
3.64726e+06
3.66701e+06
3.64467e+06
3.60083e+06
3.5395e+06
3.54134e+06
3.52491e+06
3.52113e+06
3.51357e+06
3.50929e+06
3.50473e+06
3.50129e+06
3.49823e+06
3.49575e+06
3.49365e+06
3.49194e+06
3.49052e+06
3.48938e+06
3.48845e+06
3.48772e+06
3.48715e+06
3.4867e+06
3.48638e+06
3.48614e+06
3.48598e+06
3.48589e+06
3.48586e+06
3.48586e+06
3.4859e+06
3.48598e+06
3.48607e+06
3.48618e+06
3.48631e+06
3.48644e+06
3.48658e+06
3.65723e+06
3.63064e+06
3.5558e+06
3.55601e+06
3.53593e+06
3.53003e+06
3.52032e+06
3.51455e+06
3.50876e+06
3.5044e+06
3.50062e+06
3.49758e+06
3.49506e+06
3.49302e+06
3.49135e+06
3.49001e+06
3.48893e+06
3.48808e+06
3.48741e+06
3.4869e+06
3.48651e+06
3.48623e+06
3.48604e+06
3.48592e+06
3.48587e+06
3.48586e+06
3.48589e+06
3.48595e+06
3.48604e+06
3.48614e+06
3.48626e+06
3.48639e+06
3.48653e+06
3.48625e+06
3.48603e+06
3.48599e+06
3.48608e+06
3.48626e+06
3.4865e+06
3.48678e+06
3.48708e+06
3.48739e+06
3.48771e+06
3.48803e+06
3.48834e+06
3.48864e+06
3.48894e+06
3.48922e+06
3.48949e+06
3.48975e+06
3.48999e+06
3.49022e+06
3.49044e+06
3.48566e+06
3.4852e+06
3.48499e+06
3.48499e+06
3.48512e+06
3.48534e+06
3.48562e+06
3.48594e+06
3.48628e+06
3.48664e+06
3.48699e+06
3.48735e+06
3.4877e+06
3.48803e+06
3.48836e+06
3.48867e+06
3.48897e+06
3.48925e+06
3.48952e+06
3.48978e+06
3.49002e+06
3.49024e+06
3.4964e+06
3.48713e+06
3.49432e+06
3.48873e+06
3.49524e+06
3.49225e+06
3.4895e+06
3.49035e+06
3.47625e+06
3.48447e+06
3.49128e+06
3.4873e+06
3.48559e+06
3.48457e+06
3.48397e+06
3.48365e+06
3.48359e+06
3.48369e+06
3.48391e+06
3.48422e+06
3.48458e+06
3.48497e+06
3.48537e+06
3.48579e+06
3.4862e+06
3.4866e+06
3.48699e+06
3.48737e+06
3.48774e+06
3.48808e+06
3.48841e+06
3.48873e+06
3.48903e+06
3.48931e+06
3.48957e+06
3.48982e+06
3.49005e+06
3.47936e+06
3.47817e+06
3.47844e+06
3.47832e+06
3.47873e+06
3.48051e+06
3.47408e+06
3.47523e+06
3.45984e+06
3.47236e+06
3.4953e+06
3.49297e+06
3.48392e+06
3.48186e+06
3.48145e+06
3.48134e+06
3.48145e+06
3.48165e+06
3.48198e+06
3.48238e+06
3.48284e+06
3.48332e+06
3.48382e+06
3.48432e+06
3.48482e+06
3.4853e+06
3.48577e+06
3.48622e+06
3.48665e+06
3.48706e+06
3.48745e+06
3.48781e+06
3.48816e+06
3.48849e+06
3.4888e+06
3.48909e+06
3.48937e+06
3.48962e+06
3.48986e+06
3.46283e+06
3.47057e+06
3.4631e+06
3.46942e+06
3.46321e+06
3.46968e+06
3.46116e+06
3.46292e+06
3.44617e+06
3.46149e+06
3.48481e+06
3.48357e+06
3.47747e+06
3.47689e+06
3.47766e+06
3.47831e+06
3.47907e+06
3.47972e+06
3.48043e+06
3.48111e+06
3.48179e+06
3.48245e+06
3.48309e+06
3.48369e+06
3.48428e+06
3.48483e+06
3.48535e+06
3.48584e+06
3.48631e+06
3.48675e+06
3.48716e+06
3.48755e+06
3.48792e+06
3.48826e+06
3.48859e+06
3.48889e+06
3.48917e+06
3.48943e+06
3.48968e+06
3.48991e+06
3.44999e+06
3.46518e+06
3.45129e+06
3.46324e+06
3.45219e+06
3.46077e+06
3.45115e+06
3.45291e+06
3.43502e+06
3.45189e+06
3.47566e+06
3.47546e+06
3.472e+06
3.47252e+06
3.47431e+06
3.47557e+06
3.47689e+06
3.47795e+06
3.47899e+06
3.47992e+06
3.48081e+06
3.48162e+06
3.48239e+06
3.4831e+06
3.48376e+06
3.48438e+06
3.48495e+06
3.48549e+06
3.48599e+06
3.48646e+06
3.48689e+06
3.4873e+06
3.48769e+06
3.48804e+06
3.48838e+06
3.48869e+06
3.48898e+06
3.48925e+06
3.4895e+06
3.48973e+06
3.4416e+06
3.46079e+06
3.44345e+06
3.45859e+06
3.44535e+06
3.4529e+06
3.44272e+06
3.44347e+06
3.42538e+06
3.44359e+06
3.46785e+06
3.4686e+06
3.46743e+06
3.46879e+06
3.47143e+06
3.47317e+06
3.47498e+06
3.47636e+06
3.47769e+06
3.47884e+06
3.4799e+06
3.48086e+06
3.48174e+06
3.48254e+06
3.48327e+06
3.48395e+06
3.48457e+06
3.48515e+06
3.48568e+06
3.48618e+06
3.48664e+06
3.48706e+06
3.48746e+06
3.48783e+06
3.48818e+06
3.4885e+06
3.48879e+06
3.48907e+06
3.48933e+06
3.48957e+06
3.48978e+06
3.43622e+06
3.4548e+06
3.43811e+06
3.45297e+06
3.44015e+06
3.44453e+06
3.43434e+06
3.43332e+06
3.4164e+06
3.43639e+06
3.46116e+06
3.46275e+06
3.46363e+06
3.46567e+06
3.46902e+06
3.47114e+06
3.47334e+06
3.47498e+06
3.47656e+06
3.47788e+06
3.4791e+06
3.48017e+06
3.48115e+06
3.48203e+06
3.48283e+06
3.48356e+06
3.48422e+06
3.48483e+06
3.4854e+06
3.48591e+06
3.48639e+06
3.48684e+06
3.48725e+06
3.48763e+06
3.48798e+06
3.48831e+06
3.48861e+06
3.4889e+06
3.48916e+06
3.4894e+06
3.48962e+06
3.43187e+06
3.44607e+06
3.43347e+06
3.4451e+06
3.43457e+06
3.43515e+06
3.42553e+06
3.42254e+06
3.408e+06
3.43024e+06
3.45537e+06
3.45784e+06
3.46054e+06
3.46313e+06
3.46707e+06
3.46948e+06
3.472e+06
3.47384e+06
3.4756e+06
3.47706e+06
3.4784e+06
3.47957e+06
3.48063e+06
3.48157e+06
3.48243e+06
3.4832e+06
3.4839e+06
3.48454e+06
3.48513e+06
3.48567e+06
3.48616e+06
3.48662e+06
3.48704e+06
3.48743e+06
3.4878e+06
3.48813e+06
3.48844e+06
3.48873e+06
3.489e+06
3.48924e+06
3.48947e+06
3.42818e+06
3.43564e+06
3.4288e+06
3.43553e+06
3.42826e+06
3.42541e+06
3.41687e+06
3.41213e+06
3.40059e+06
3.42522e+06
3.45046e+06
3.45389e+06
3.45812e+06
3.46117e+06
3.46557e+06
3.46818e+06
3.47094e+06
3.47292e+06
3.47483e+06
3.47639e+06
3.47782e+06
3.47906e+06
3.48018e+06
3.48118e+06
3.48207e+06
3.48288e+06
3.48361e+06
3.48428e+06
3.48488e+06
3.48544e+06
3.48595e+06
3.48642e+06
3.48685e+06
3.48725e+06
3.48762e+06
3.48796e+06
3.48828e+06
3.48857e+06
3.48884e+06
3.48909e+06
3.48932e+06
3.42475e+06
3.42508e+06
3.42425e+06
3.4258e+06
3.42196e+06
3.41659e+06
3.40942e+06
3.40336e+06
3.39474e+06
3.42142e+06
3.44655e+06
3.45092e+06
3.45641e+06
3.45979e+06
3.4645e+06
3.46725e+06
3.47016e+06
3.47224e+06
3.47423e+06
3.47586e+06
3.47735e+06
3.47865e+06
3.47981e+06
3.48084e+06
3.48177e+06
3.4826e+06
3.48336e+06
3.48404e+06
3.48466e+06
3.48523e+06
3.48575e+06
3.48623e+06
3.48667e+06
3.48708e+06
3.48745e+06
3.4878e+06
3.48812e+06
3.48841e+06
3.48869e+06
3.48894e+06
3.48917e+06
3.42197e+06
3.41622e+06
3.42054e+06
3.41762e+06
3.4167e+06
3.40988e+06
3.40421e+06
3.39732e+06
3.39085e+06
3.4189e+06
3.44387e+06
3.44897e+06
3.45541e+06
3.45897e+06
3.46386e+06
3.46667e+06
3.46966e+06
3.47177e+06
3.47382e+06
3.47548e+06
3.477e+06
3.47832e+06
3.47951e+06
3.48057e+06
3.48151e+06
3.48237e+06
3.48314e+06
3.48383e+06
3.48447e+06
3.48505e+06
3.48557e+06
3.48606e+06
3.48651e+06
3.48692e+06
3.48729e+06
3.48764e+06
3.48797e+06
3.48827e+06
3.48854e+06
3.48879e+06
3.48903e+06
3.41981e+06
3.40994e+06
3.41806e+06
3.41199e+06
3.41326e+06
3.40597e+06
3.40183e+06
3.39443e+06
3.38904e+06
3.41772e+06
3.44254e+06
3.44802e+06
3.45513e+06
3.45869e+06
3.46363e+06
3.4664e+06
3.46941e+06
3.47151e+06
3.47356e+06
3.47523e+06
3.47676e+06
3.47809e+06
3.47929e+06
3.48035e+06
3.48131e+06
3.48217e+06
3.48295e+06
3.48365e+06
3.48429e+06
3.48488e+06
3.48541e+06
3.4859e+06
3.48635e+06
3.48677e+06
3.48715e+06
3.4875e+06
3.48782e+06
3.48812e+06
3.4884e+06
3.48866e+06
3.48889e+06
3.41924e+06
3.40694e+06
3.41707e+06
3.40918e+06
3.41198e+06
3.40491e+06
3.40225e+06
3.39446e+06
3.38896e+06
3.41765e+06
3.44244e+06
3.44798e+06
3.45548e+06
3.45888e+06
3.46375e+06
3.46642e+06
3.46938e+06
3.47143e+06
3.47346e+06
3.4751e+06
3.47662e+06
3.47794e+06
3.47913e+06
3.4802e+06
3.48115e+06
3.48202e+06
3.4828e+06
3.4835e+06
3.48415e+06
3.48473e+06
3.48527e+06
3.48576e+06
3.48621e+06
3.48663e+06
3.48701e+06
3.48736e+06
3.48769e+06
3.48799e+06
3.48827e+06
3.48852e+06
3.48876e+06
3.41983e+06
3.40655e+06
3.41742e+06
3.4088e+06
3.41264e+06
3.40622e+06
3.40489e+06
3.39672e+06
3.39036e+06
3.4185e+06
3.44341e+06
3.44871e+06
3.45635e+06
3.45945e+06
3.46416e+06
3.46668e+06
3.46954e+06
3.47152e+06
3.47348e+06
3.47508e+06
3.47657e+06
3.47787e+06
3.47904e+06
3.48009e+06
3.48104e+06
3.4819e+06
3.48268e+06
3.48338e+06
3.48402e+06
3.48461e+06
3.48514e+06
3.48563e+06
3.48608e+06
3.4865e+06
3.48688e+06
3.48723e+06
3.48756e+06
3.48786e+06
3.48814e+06
3.48839e+06
3.48863e+06
3.42149e+06
3.40803e+06
3.41902e+06
3.41025e+06
3.41484e+06
3.40923e+06
3.40906e+06
3.40051e+06
3.39285e+06
3.41985e+06
3.44507e+06
3.44996e+06
3.45754e+06
3.46029e+06
3.46479e+06
3.46712e+06
3.46985e+06
3.47173e+06
3.47362e+06
3.47516e+06
3.4766e+06
3.47786e+06
3.47901e+06
3.48004e+06
3.48098e+06
3.48182e+06
3.48259e+06
3.48329e+06
3.48392e+06
3.4845e+06
3.48503e+06
3.48552e+06
3.48597e+06
3.48638e+06
3.48676e+06
3.48711e+06
3.48744e+06
3.48774e+06
3.48801e+06
3.48827e+06
3.4885e+06
3.42123e+06
3.40924e+06
3.42118e+06
3.41283e+06
3.41811e+06
3.41337e+06
3.41418e+06
3.40528e+06
3.39598e+06
3.42142e+06
3.44698e+06
3.4515e+06
3.4589e+06
3.4613e+06
3.46555e+06
3.46769e+06
3.47027e+06
3.47204e+06
3.47384e+06
3.47531e+06
3.4767e+06
3.47792e+06
3.47904e+06
3.48004e+06
3.48095e+06
3.48178e+06
3.48253e+06
3.48322e+06
3.48384e+06
3.48442e+06
3.48494e+06
3.48542e+06
3.48587e+06
3.48627e+06
3.48665e+06
3.487e+06
3.48732e+06
3.48762e+06
3.4879e+06
3.48815e+06
3.48839e+06
3.42438e+06
3.41259e+06
3.42411e+06
3.41603e+06
3.42182e+06
3.41789e+06
3.41949e+06
3.4103e+06
3.39938e+06
3.42294e+06
3.44867e+06
3.45315e+06
3.46022e+06
3.46236e+06
3.46636e+06
3.46833e+06
3.47076e+06
3.47243e+06
3.47414e+06
3.47554e+06
3.47686e+06
3.47803e+06
3.47911e+06
3.48008e+06
3.48097e+06
3.48177e+06
3.48251e+06
3.48318e+06
3.48379e+06
3.48435e+06
3.48487e+06
3.48534e+06
3.48578e+06
3.48618e+06
3.48655e+06
3.4869e+06
3.48722e+06
3.48751e+06
3.48778e+06
3.48804e+06
3.48827e+06
3.42724e+06
3.41563e+06
3.42696e+06
3.41944e+06
3.42562e+06
3.42244e+06
3.42439e+06
3.41518e+06
3.40278e+06
3.42418e+06
3.45007e+06
3.45476e+06
3.46142e+06
3.46343e+06
3.46717e+06
3.46901e+06
3.4713e+06
3.47286e+06
3.47448e+06
3.47581e+06
3.47707e+06
3.47819e+06
3.47923e+06
3.48016e+06
3.48101e+06
3.48179e+06
3.48251e+06
3.48316e+06
3.48375e+06
3.4843e+06
3.48481e+06
3.48527e+06
3.4857e+06
3.48609e+06
3.48646e+06
3.4868e+06
3.48712e+06
3.48741e+06
3.48768e+06
3.48793e+06
3.48816e+06
3.43071e+06
3.41951e+06
3.43024e+06
3.42303e+06
3.42924e+06
3.42678e+06
3.42866e+06
3.41971e+06
3.40578e+06
3.42506e+06
3.45116e+06
3.45619e+06
3.46244e+06
3.46444e+06
3.46794e+06
3.4697e+06
3.47185e+06
3.47333e+06
3.47486e+06
3.47612e+06
3.47732e+06
3.47839e+06
3.47938e+06
3.48027e+06
3.48109e+06
3.48184e+06
3.48253e+06
3.48316e+06
3.48374e+06
3.48427e+06
3.48476e+06
3.48521e+06
3.48563e+06
3.48602e+06
3.48638e+06
3.48671e+06
3.48702e+06
3.48731e+06
3.48758e+06
3.48783e+06
3.48806e+06
3.43321e+06
3.42315e+06
3.43327e+06
3.42671e+06
3.43249e+06
3.43082e+06
3.43222e+06
3.42377e+06
3.4082e+06
3.42567e+06