/*--------------------------------*- C++ -*----------------------------------*\
| =========                 |                                                 |
| \\      /  F ield         | OpenFOAM: The Open Source CFD Toolbox           |
|  \\    /   O peration     | Version:  v2012                                 |
|   \\  /    A nd           | Website:  www.openfoam.com                      |
|    \\/     M anipulation  |                                                 |
\*---------------------------------------------------------------------------*/
FoamFile
{
    version     2.0;
    format      ascii;
    class       surfaceScalarField;
    location    "0.4";
    object      phi;
}
// * * * * * * * * * * * * * * * * * * * * * * * * * * * * * * * * * * * * * //

dimensions      [0 3 -1 0 0 0 0];
oriented        oriented;


internalField   nonuniform List<scalar> 
49380
(
4.3724e-12
-6.90051e-09
-1.35212e-16
3.1419e-12
-2.11671e-08
-4.34166e-15
-1.58826e-10
-3.57441e-08
-7.33949e-15
-4.58604e-10
-5.05523e-08
-2.13462e-14
-4.78212e-10
-6.00835e-08
-2.24299e-14
-3.54781e-11
-7.27055e-08
-1.85388e-14
2.42652e-10
-7.55325e-08
-5.32429e-15
3.54405e-10
-8.43095e-08
-1.56419e-15
5.46273e-10
-9.59069e-08
7.00826e-16
8.78854e-10
-1.05754e-07
1.58885e-15
1.16515e-09
-1.10583e-07
2.2807e-15
1.29865e-09
-1.04182e-07
3.34649e-15
1.47227e-09
-9.63923e-08
4.39648e-16
1.57008e-09
-9.84668e-08
-2.28644e-16
1.61698e-09
-1.05389e-07
-7.85671e-16
1.61846e-09
-1.13436e-07
-8.86383e-16
1.5928e-09
-1.21204e-07
-9.47778e-16
1.54714e-09
-1.28198e-07
-1.05424e-15
1.48335e-09
-1.34321e-07
-1.09953e-15
1.40085e-09
-1.39575e-07
-1.16848e-15
1.2981e-09
-1.44015e-07
-1.21427e-15
1.17375e-09
-1.47692e-07
-1.24271e-15
1.02663e-09
-1.506e-07
-1.25161e-15
8.5605e-10
-1.52752e-07
-1.26187e-15
6.61859e-10
-1.54096e-07
-1.24334e-15
4.44552e-10
-1.54588e-07
-1.23552e-15
2.05328e-10
-1.54159e-07
-1.22822e-15
-5.3768e-11
-1.52716e-07
-1.21745e-15
-3.29841e-10
-1.50202e-07
-1.2043e-15
-6.18914e-10
-1.465e-07
-1.26328e-15
-9.15855e-10
-1.41538e-07
-1.14119e-15
-1.21418e-09
-1.35225e-07
-1.04619e-15
-1.50576e-09
-1.27473e-07
-1.00116e-15
-1.7805e-09
-1.18205e-07
-9.50877e-16
-2.0258e-09
-1.07347e-07
-8.94245e-16
-2.22573e-09
-9.48399e-08
-8.30687e-16
-2.35936e-09
-8.06314e-08
-7.59117e-16
-2.39871e-09
-6.46949e-08
-6.78137e-16
-2.29885e-09
-4.70215e-08
-5.86387e-16
-2.00744e-09
-2.76658e-08
-4.75959e-16
-1.28541e-09
-6.76561e-09
-3.36722e-16
-6.25156e-10
1.58704e-08
-7.71149e-17
-4.69515e-10
4.01014e-08
-3.38808e-17
-4.03427e-10
6.5474e-08
-2.4106e-17
-3.74603e-10
9.18789e-08
-1.76153e-17
-3.55096e-10
1.192e-07
-1.23847e-17
-3.37384e-10
1.46976e-07
-9.11893e-18
-3.18401e-10
1.74814e-07
-1.16433e-17
-2.96963e-10
2.02068e-07
-8.48581e-18
-2.72573e-10
2.28014e-07
-4.31224e-18
-2.45137e-10
2.51796e-07
-2.88568e-18
-2.14866e-10
2.72165e-07
-1.45368e-18
-1.82232e-10
2.87779e-07
-4.61205e-18
-1.47994e-10
2.96957e-07
-3.64574e-18
-1.1326e-10
2.97553e-07
-3.48612e-18
-7.95293e-11
2.87011e-07
-3.3877e-18
-4.87854e-11
2.62289e-07
-3.08249e-18
-2.3472e-11
2.19548e-07
-4.95032e-18
-6.42957e-12
1.54263e-07
-4.76407e-18
6.06878e-08
-4.38572e-18
8.43406e-12
-6.90895e-09
1.66957e-16
1.88732e-11
-2.11776e-08
-4.00368e-15
-1.90423e-10
-3.55348e-08
-5.70244e-15
-5.48132e-10
-5.01946e-08
-1.932e-14
-4.72373e-10
-6.01593e-08
-2.56908e-14
1.41616e-10
-7.33195e-08
-1.37015e-14
5.5067e-10
-7.59415e-08
-5.02541e-15
8.11755e-10
-8.45706e-08
-1.36783e-15
1.16676e-09
-9.62619e-08
-2.57882e-16
1.61684e-09
-1.06204e-07
4.18073e-16
1.76697e-09
-1.10733e-07
-6.36257e-16
1.63124e-09
-1.04046e-07
-1.67074e-15
1.76151e-09
-9.65226e-08
-1.76915e-15
1.8743e-09
-9.85795e-08
-1.16678e-15
1.90055e-09
-1.05415e-07
-9.25056e-16
1.86365e-09
-1.13399e-07
-1.13332e-15
1.79013e-09
-1.21131e-07
-1.06111e-15
1.70125e-09
-1.28109e-07
-1.16003e-15
1.60113e-09
-1.3422e-07
-1.18473e-15
1.4897e-09
-1.39463e-07
-1.19322e-15
1.36399e-09
-1.43889e-07
-1.19669e-15
1.22122e-09
-1.47549e-07
-1.20218e-15
1.05895e-09
-1.50438e-07
-1.20734e-15
8.75612e-10
-1.52569e-07
-1.22485e-15
6.70405e-10
-1.53891e-07
-1.21671e-15
4.43406e-10
-1.54361e-07
-1.23201e-15
1.95527e-10
-1.53911e-07
-1.23307e-15
-7.14005e-11
-1.52449e-07
-1.228e-15
-3.54647e-10
-1.49918e-07
-1.2153e-15
-6.5038e-10
-1.46204e-07
-1.18521e-15
-9.53613e-10
-1.41234e-07
-1.05822e-15
-1.25802e-09
-1.34921e-07
-1.05586e-15
-1.55567e-09
-1.27176e-07
-1.01317e-15
-1.83678e-09
-1.17924e-07
-9.61359e-16
-2.08922e-09
-1.07094e-07
-9.03034e-16
-2.29793e-09
-9.46312e-08
-8.36924e-16
-2.44384e-09
-8.04855e-08
-7.62633e-16
-2.50307e-09
-6.46357e-08
-6.78756e-16
-2.44291e-09
-4.70817e-08
-5.85758e-16
-2.24194e-09
-2.78668e-08
-4.77089e-16
-1.89083e-09
-7.11669e-09
-3.39216e-16
-1.52934e-09
1.55089e-08
-1.59137e-16
-1.31573e-09
3.98878e-08
-9.66327e-17
-1.19046e-09
6.53487e-08
-7.31555e-17
-1.11892e-09
9.18073e-08
-5.4716e-17
-1.06435e-09
1.19146e-07
-3.8496e-17
-1.01234e-09
1.46924e-07
-2.60254e-17
-9.55829e-10
1.74758e-07
-1.82078e-17
-8.91695e-10
2.02004e-07
-5.81748e-18
-8.18601e-10
2.27941e-07
7.79603e-18
-7.36308e-10
2.51714e-07
1.12328e-17
-6.45487e-10
2.72074e-07
1.38106e-17
-5.47578e-10
2.87682e-07
6.33997e-19
-4.44876e-10
2.96854e-07
5.07795e-19
-3.40697e-10
2.97449e-07
-2.73137e-18
-2.39541e-10
2.8691e-07
-6.25577e-18
-1.47252e-10
2.62197e-07
-8.50022e-18
-7.11245e-11
2.19472e-07
-1.91262e-17
-1.93875e-11
1.54212e-07
-2.04479e-17
6.06684e-08
-1.94176e-17
7.54543e-12
-6.91649e-09
-1.75779e-16
1.56726e-11
-2.11857e-08
-1.11918e-15
-1.44439e-10
-3.53747e-08
-5.9897e-15
-3.52315e-10
-4.99867e-08
-1.49694e-14
-1.9131e-10
-6.03203e-08
-1.91158e-14
3.60655e-10
-7.38714e-08
-9.27405e-15
8.6464e-10
-7.64455e-08
-5.10314e-15
1.30146e-09
-8.50074e-08
-2.02108e-15
1.73916e-09
-9.66996e-08
-8.34652e-16
2.09184e-09
-1.06557e-07
1.27826e-16
1.99293e-09
-1.10635e-07
-1.03919e-15
1.65901e-09
-1.03712e-07
-2.72348e-15
1.76713e-09
-9.66307e-08
-1.95499e-15
1.94017e-09
-9.87526e-08
-9.92006e-16
2.01039e-09
-1.05485e-07
-8.28948e-16
1.99694e-09
-1.13386e-07
-1.03091e-15
1.92639e-09
-1.2106e-07
-9.67111e-16
1.82908e-09
-1.28012e-07
-1.14149e-15
1.71471e-09
-1.34106e-07
-1.14264e-15
1.58721e-09
-1.39336e-07
-1.25063e-15
1.44522e-09
-1.43747e-07
-1.28105e-15
1.28668e-09
-1.4739e-07
-1.28355e-15
1.10929e-09
-1.50261e-07
-1.27026e-15
9.11434e-10
-1.52371e-07
-1.27491e-15
6.92237e-10
-1.53671e-07
-1.2475e-15
4.51687e-10
-1.5412e-07
-1.25003e-15
1.90621e-10
-1.5365e-07
-1.24437e-15
-8.9198e-11
-1.52169e-07
-1.23695e-15
-3.85111e-10
-1.49623e-07
-1.22479e-15
-6.93369e-10
-1.45896e-07
-1.23249e-15
-1.0091e-09
-1.40919e-07
-1.09264e-15
-1.32613e-09
-1.34604e-07
-1.06139e-15
-1.63681e-09
-1.26865e-07
-1.01736e-15
-1.9318e-09
-1.17629e-07
-9.65162e-16
-2.19975e-09
-1.06826e-07
-9.06397e-16
-2.42706e-09
-9.44039e-08
-8.39395e-16
-2.59751e-09
-8.03151e-08
-7.64662e-16
-2.69307e-09
-6.45401e-08
-6.80973e-16
-2.69455e-09
-4.70802e-08
-5.90938e-16
-2.6021e-09
-2.79592e-08
-4.91173e-16
-2.4533e-09
-7.26545e-09
-3.70627e-16
-2.27198e-09
1.53276e-08
-2.29984e-16
-2.09015e-09
3.9706e-08
-1.58473e-16
-1.95118e-09
6.52098e-08
-1.22779e-16
-1.8536e-09
9.17097e-08
-9.35123e-17
-1.77019e-09
1.19062e-07
-6.74256e-17
-1.68637e-09
1.4684e-07
-4.10547e-17
-1.59342e-09
1.74665e-07
-2.09165e-17
-1.48711e-09
2.01898e-07
-6.07053e-18
-1.36556e-09
2.27819e-07
1.30546e-17
-1.22853e-09
2.51577e-07
1.86883e-17
-1.07723e-09
2.71922e-07
2.39335e-17
-9.14105e-10
2.87518e-07
2.58573e-18
-7.43007e-10
2.96683e-07
2.69903e-18
-5.69461e-10
2.97275e-07
-1.74841e-18
-4.0092e-10
2.86741e-07
-6.46755e-18
-2.47015e-10
2.62043e-07
-8.71298e-18
-1.19718e-10
2.19344e-07
-2.51358e-17
-3.26616e-11
1.54125e-07
-2.74335e-17
6.06358e-08
-2.51975e-17
8.39286e-12
-6.92488e-09
6.20869e-16
1.57824e-11
-2.11931e-08
-4.16768e-15
-1.57038e-10
-3.52019e-08
-9.60218e-15
-3.32505e-10
-4.98112e-08
-1.08812e-14
-1.37677e-10
-6.05151e-08
-1.77159e-14
4.54778e-10
-7.44639e-08
-8.73405e-15
9.69121e-10
-7.69598e-08
-4.16763e-15
1.47208e-09
-8.55104e-08
-2.00318e-15
1.97598e-09
-9.72035e-08
-7.65835e-16
2.33081e-09
-1.06911e-07
1.38012e-16
2.18233e-09
-1.10486e-07
-3.95529e-16
1.78468e-09
-1.03315e-07
-3.27273e-16
1.87914e-09
-9.67252e-08
-1.20647e-15
2.07385e-09
-9.89473e-08
-6.87285e-16
2.17071e-09
-1.05582e-07
-8.63298e-16
2.16351e-09
-1.13379e-07
-9.74169e-16
2.08617e-09
-1.20983e-07
-9.63608e-16
1.97283e-09
-1.27899e-07
-1.21383e-15
1.83858e-09
-1.33972e-07
-1.18091e-15
1.69035e-09
-1.39188e-07
-1.18038e-15
1.52828e-09
-1.43585e-07
-1.2136e-15
1.35079e-09
-1.47213e-07
-1.25178e-15
1.15551e-09
-1.50065e-07
-1.26182e-15
9.40619e-10
-1.52156e-07
-1.27756e-15
7.04982e-10
-1.53436e-07
-1.25309e-15
4.48374e-10
-1.53864e-07
-1.26025e-15
1.71463e-10
-1.53373e-07
-1.25589e-15
-1.24115e-10
-1.51873e-07
-1.24972e-15
-4.35816e-10
-1.49311e-07
-1.23905e-15
-7.6e-10
-1.45572e-07
-1.24685e-15
-1.09194e-09
-1.40587e-07
-1.10088e-15
-1.42566e-09
-1.3427e-07
-1.06995e-15
-1.75385e-09
-1.26537e-07
-1.02507e-15
-2.06768e-09
-1.17315e-07
-9.72052e-16
-2.35676e-09
-1.06537e-07
-9.12563e-16
-2.60914e-09
-9.41515e-08
-8.44659e-16
-2.81158e-09
-8.01126e-08
-7.69594e-16
-2.95133e-09
-6.44004e-08
-6.8621e-16
-3.01908e-09
-4.70124e-08
-5.98726e-16
-3.02314e-09
-2.79552e-08
-5.06611e-16
-3.00492e-09
-7.28364e-09
-4.01867e-16
-2.94075e-09
1.52635e-08
-2.85465e-16
-2.81169e-09
3.9577e-08
-2.12232e-16
-2.6847e-09
6.50828e-08
-1.68143e-16
-2.57563e-09
9.16007e-08
-1.30106e-16
-2.47054e-09
1.18957e-07
-9.54928e-17
-2.35826e-09
1.46728e-07
-5.84998e-17
-2.2305e-09
1.74537e-07
-2.92626e-17
-2.08281e-09
2.0175e-07
-1.5774e-17
-1.9132e-09
2.2765e-07
8.9757e-18
-1.72163e-09
2.51386e-07
1.81351e-17
-1.50995e-09
2.71711e-07
2.73492e-17
-1.28166e-09
2.8729e-07
-5.41591e-19
-1.04221e-09
2.96443e-07
1.77787e-18
-7.99324e-10
2.97032e-07
-2.07741e-18
-5.63396e-10
2.86505e-07
-6.14857e-18
-3.47775e-10
2.61827e-07
-6.72718e-18
-1.69041e-10
2.19166e-07
-2.91279e-17
-4.62774e-11
1.54002e-07
-3.03852e-17
6.05895e-08
-2.61929e-17
9.66145e-12
-6.93455e-09
2.44178e-16
2.11845e-11
-2.12046e-08
9.66335e-16
-1.40616e-10
-3.50401e-08
-1.00387e-14
-2.4109e-10
-4.97107e-08
-8.83365e-15
-1.82251e-11
-6.0738e-08
-1.74571e-14
5.9634e-10
-7.50784e-08
-7.57442e-15
1.12997e-09
-7.74935e-08
-4.89278e-15
1.66216e-09
-8.60426e-08
-1.91241e-15
2.1935e-09
-9.77348e-08
-8.5512e-16
2.52972e-09
-1.07248e-07
-1.24265e-17
2.32615e-09
-1.10283e-07
-3.95599e-16
1.91737e-09
-1.02906e-07
-1.51453e-16
2.0014e-09
-9.68092e-08
-1.02013e-15
2.18854e-09
-9.91344e-08
-7.81455e-16
2.28677e-09
-1.0568e-07
-9.74572e-16
2.28079e-09
-1.13373e-07
-9.95669e-16
2.20138e-09
-1.20904e-07
-9.96353e-16
2.08095e-09
-1.27778e-07
-1.21858e-15
1.93576e-09
-1.33827e-07
-1.15773e-15
1.77394e-09
-1.39026e-07
-1.20911e-15
1.59674e-09
-1.43408e-07
-1.24308e-15
1.40322e-09
-1.47019e-07
-1.27929e-15
1.19137e-09
-1.49854e-07
-1.28985e-15
9.59498e-10
-1.51924e-07
-1.30639e-15
7.06526e-10
-1.53183e-07
-1.27901e-15
4.32238e-10
-1.53589e-07
-1.28314e-15
1.37291e-10
-1.53078e-07
-1.27537e-15
-1.76696e-10
-1.51559e-07
-1.26711e-15
-5.07214e-10
-1.4898e-07
-1.25605e-15
-8.50677e-10
-1.45228e-07
-1.26789e-15
-1.20245e-09
-1.40235e-07
-1.11203e-15
-1.55677e-09
-1.33916e-07
-1.07959e-15
-1.90661e-09
-1.26187e-07
-1.03395e-15
-2.24372e-09
-1.16978e-07
-9.80327e-16
-2.55863e-09
-1.06222e-07
-9.20366e-16
-2.84097e-09
-9.38691e-08
-8.51942e-16
-3.0801e-09
-7.98735e-08
-7.76973e-16
-3.26722e-09
-6.42133e-08
-6.9411e-16
-3.3988e-09
-4.68808e-08
-6.08501e-16
-3.48426e-09
-2.78697e-08
-5.21578e-16
-3.55528e-09
-7.21258e-09
-4.27546e-16
-3.57177e-09
1.528e-08
-3.27171e-16
-3.49826e-09
3.95035e-08
-2.54933e-16
-3.39523e-09
6.49798e-08
-2.05185e-16
-3.28507e-09
9.14905e-08
-1.60732e-16
-3.16469e-09
1.18837e-07
-1.20232e-16
-3.02743e-09
1.4659e-07
-7.50183e-17
-2.86669e-09
1.74376e-07
-4.64911e-17
-2.67857e-09
2.01562e-07
-3.86116e-17
-2.46139e-09
2.27432e-07
-9.57656e-18
-2.21552e-09
2.5114e-07
3.98247e-18
-1.94356e-09
2.71439e-07
1.88901e-17
-1.65016e-09
2.86997e-07
-1.34373e-17
-1.34238e-09
2.96136e-07
-6.58866e-18
-1.03017e-09
2.9672e-07
-7.18056e-18
-7.26824e-10
2.86202e-07
-7.85981e-18
-4.49377e-10
2.6155e-07
-4.21665e-18
-2.18969e-10
2.18935e-07
-2.99405e-17
-6.01661e-11
1.53843e-07
-2.96351e-17
6.05293e-08
-2.50343e-17
1.03542e-11
-6.9449e-09
8.03093e-16
1.79924e-11
-2.12123e-08
-1.12863e-15
-1.3986e-10
-3.48822e-08
-7.72064e-15
-1.90926e-10
-4.96597e-08
-9.64756e-15
3.08024e-11
-6.09597e-08
-1.67593e-14
6.72921e-10
-7.57206e-08
-5.33821e-15
1.18902e-09
-7.80096e-08
-3.68332e-15
1.73189e-09
-8.65855e-08
-2.14917e-15
2.28664e-09
-9.82895e-08
-8.8295e-16
2.62646e-09
-1.07588e-07
-9.2593e-17
2.43086e-09
-1.10087e-07
-2.52225e-16
2.05688e-09
-1.02532e-07
-3.97173e-16
2.134e-09
-9.68863e-08
-9.73699e-16
2.31322e-09
-9.93136e-08
-9.23365e-16
2.40652e-09
-1.05774e-07
-1.07415e-15
2.39456e-09
-1.13361e-07
-1.09023e-15
2.30748e-09
-1.20816e-07
-1.09924e-15
2.1761e-09
-1.27647e-07
-1.24503e-15
2.01767e-09
-1.33668e-07
-1.23539e-15
1.841e-09
-1.38849e-07
-1.34774e-15
1.64809e-09
-1.43215e-07
-1.37976e-15
1.43829e-09
-1.4681e-07
-1.39482e-15
1.20969e-09
-1.49625e-07
-1.38021e-15
9.60561e-10
-1.51675e-07
-1.37274e-15
6.89732e-10
-1.52912e-07
-1.327e-15
3.96902e-10
-1.53297e-07
-1.31939e-15
8.26678e-11
-1.52764e-07
-1.30378e-15
-2.51386e-10
-1.51225e-07
-1.29063e-15
-6.02774e-10
-1.48629e-07
-1.27781e-15
-9.67941e-10
-1.44863e-07
-1.2924e-15
-1.34232e-09
-1.39861e-07
-1.12548e-15
-1.72028e-09
-1.33538e-07
-1.09105e-15
-2.09509e-09
-1.25812e-07
-1.04425e-15
-2.45896e-09
-1.16614e-07
-9.89883e-16
-2.80327e-09
-1.05878e-07
-9.29527e-16
-3.11892e-09
-9.35535e-08
-8.60891e-16
-3.39729e-09
-7.95951e-08
-7.86414e-16
-3.6321e-09
-6.39785e-08
-7.04471e-16
-3.82238e-09
-4.66905e-08
-6.20416e-16
-3.97539e-09
-2.77167e-08
-5.3671e-16
-4.11054e-09
-7.07737e-09
-4.49202e-16
-4.18589e-09
1.53553e-08
-3.58431e-16
-4.16338e-09
3.9481e-08
-2.86973e-16
-4.08848e-09
6.49049e-08
-2.33181e-16
-3.98368e-09
9.13857e-08
-1.84282e-16
-3.85293e-09
1.18706e-07
-1.39998e-16
-3.69379e-09
1.46431e-07
-9.12803e-17
-3.50186e-09
1.74185e-07
-6.80826e-17
-3.27428e-09
2.01334e-07
-6.82486e-17
-3.01004e-09
2.27168e-07
-3.53629e-17
-2.71013e-09
2.5084e-07
-1.69999e-17
-2.37802e-09
2.71107e-07
4.36968e-18
-2.01956e-09
2.86638e-07
-3.14038e-17
-1.64346e-09
2.9576e-07
-1.88845e-17
-1.26191e-09
2.96339e-07
-1.47639e-17
-8.91098e-10
2.85831e-07
-1.04225e-17
-5.51708e-10
2.6121e-07
-9.95151e-19
-2.6941e-10
2.18653e-07
-2.86813e-17
-7.4277e-11
1.53648e-07
-2.57653e-17
6.04551e-08
-2.21793e-17
1.1188e-11
-6.95608e-09
6.45702e-16
1.5939e-11
-2.1217e-08
1.56718e-15
-1.19921e-10
-3.47464e-08
-7.20469e-15
-1.18297e-10
-4.96614e-08
-1.18144e-14
9.38407e-11
-6.11719e-08
-1.77217e-14
7.73508e-10
-7.64002e-08
-4.02649e-15
1.27748e-09
-7.85135e-08
-2.78716e-15
1.81783e-09
-8.71258e-08
-1.7484e-15
2.37475e-09
-9.88464e-08
-7.29975e-16
2.70134e-09
-1.07914e-07
-9.29378e-17
2.49557e-09
-1.09881e-07
-2.44783e-16
2.1578e-09
-1.02194e-07
-8.09625e-16
2.23717e-09
-9.69657e-08
-1.25289e-15
2.40677e-09
-9.94832e-08
-1.13493e-15
2.49209e-09
-1.05859e-07
-1.22554e-15
2.47357e-09
-1.13342e-07
-1.33393e-15
2.38018e-09
-1.20723e-07
-1.31773e-15
2.24052e-09
-1.27507e-07
-1.39039e-15
2.07185e-09
-1.335e-07
-1.38703e-15
1.88304e-09
-1.3866e-07
-1.41863e-15
1.67654e-09
-1.43009e-07
-1.4111e-15
1.4519e-09
-1.46585e-07
-1.41909e-15
1.20738e-09
-1.4938e-07
-1.40755e-15
9.41245e-10
-1.51409e-07
-1.40395e-15
6.52319e-10
-1.52623e-07
-1.36014e-15
3.40264e-10
-1.52984e-07
-1.35092e-15
5.65839e-12
-1.52429e-07
-1.33266e-15
-3.49916e-10
-1.5087e-07
-1.31642e-15
-7.23965e-10
-1.48255e-07
-1.30227e-15
-1.11293e-09
-1.44474e-07
-1.32006e-15
-1.51226e-09
-1.39461e-07
-1.14096e-15
-1.91643e-09
-1.33134e-07
-1.10394e-15
-2.3189e-09
-1.2541e-07
-1.0557e-15
-2.71226e-09
-1.16221e-07
-1.00056e-15
-3.08854e-09
-1.05502e-07
-9.39906e-16
-3.4396e-09
-9.32024e-08
-8.71327e-16
-3.75814e-09
-7.92765e-08
-7.97649e-16
-4.03921e-09
-6.36974e-08
-7.16959e-16
-4.28231e-09
-4.64474e-08
-6.344e-16
-4.49135e-09
-2.75077e-08
-5.52717e-16
-4.67531e-09
-6.89336e-09
-4.68835e-16
-4.79578e-09
1.54758e-08
-3.8331e-16
-4.81724e-09
3.95025e-08
-3.11755e-16
-4.77025e-09
6.48579e-08
-2.54673e-16
-4.67406e-09
9.12895e-08
-2.0245e-16
-4.53627e-09
1.18569e-07
-1.5589e-16
-4.35767e-09
1.46253e-07
-1.04917e-16
-4.1361e-09
1.73963e-07
-9.06245e-17
-3.86997e-09
2.01068e-07
-9.90265e-17
-3.55916e-09
2.26857e-07
-6.32319e-17
-3.20545e-09
2.50486e-07
-4.0674e-17
-2.81329e-09
2.70715e-07
-1.30823e-17
-2.3898e-09
2.86215e-07
-5.21888e-17
-1.94538e-09
2.95315e-07
-3.36967e-17
-1.49447e-09
2.95888e-07
-2.42787e-17
-1.05612e-09
2.85393e-07
-1.41842e-17
-6.54668e-10
2.60809e-07
1.83505e-18
-3.20285e-10
2.18319e-07
-2.69994e-17
-8.85716e-11
1.53416e-07
-2.05432e-17
6.03665e-08
-1.68166e-17
1.18465e-11
-6.96793e-09
1.0279e-15
1.02598e-11
-2.12154e-08
-1.03138e-15
-8.39009e-11
-3.46522e-08
-6.93786e-15
-3.85655e-11
-4.97067e-08
-8.96929e-16
1.5261e-10
-6.13631e-08
-1.57718e-14
8.65472e-10
-7.71131e-08
-5.81859e-15
1.33823e-09
-7.89863e-08
-4.72926e-15
1.87606e-09
-8.76637e-08
-1.78609e-15
2.43261e-09
-9.9403e-08
-5.65425e-16
2.74641e-09
-1.08228e-07
-3.66864e-16
2.53944e-09
-1.09674e-07
-5.27109e-16
2.24343e-09
-1.01898e-07
-1.10235e-15
2.32613e-09
-9.70484e-08
-1.32824e-15
2.48573e-09
-9.96428e-08
-1.22803e-15
2.56077e-09
-1.05934e-07
-1.32363e-15
2.53347e-09
-1.13315e-07
-1.47623e-15
2.4319e-09
-1.20622e-07
-1.49629e-15
2.28276e-09
-1.27358e-07
-1.52847e-15
2.10323e-09
-1.3332e-07
-1.5287e-15
1.90209e-09
-1.38459e-07
-1.5567e-15
1.68209e-09
-1.42789e-07
-1.53682e-15
1.4428e-09
-1.46346e-07
-1.53194e-15
1.18251e-09
-1.4912e-07
-1.50493e-15
8.9937e-10
-1.51126e-07
-1.48348e-15
5.92114e-10
-1.52316e-07
-1.42405e-15
2.6031e-10
-1.52653e-07
-1.40033e-15
-9.55107e-11
-1.52073e-07
-1.37206e-15
-4.7377e-10
-1.50491e-07
-1.34858e-15
-8.71949e-10
-1.47857e-07
-1.33114e-15
-1.28644e-09
-1.4406e-07
-1.35056e-15
-1.71269e-09
-1.39035e-07
-1.15884e-15
-2.14516e-09
-1.32701e-07
-1.11852e-15
-2.57744e-09
-1.24978e-07
-1.06839e-15
-3.00237e-09
-1.15796e-07
-1.01229e-15
-3.41239e-09
-1.05092e-07
-9.51342e-16
-3.79998e-09
-9.28148e-08
-8.82998e-16
-4.15856e-09
-7.89179e-08
-8.10322e-16
-4.48359e-09
-6.33724e-08
-7.31113e-16
-4.77386e-09
-4.61571e-08
-6.50105e-16
-5.02983e-09
-2.72517e-08
-5.69942e-16
-5.25278e-09
-6.67034e-09
-4.88161e-16
-5.40912e-09
1.56322e-08
-4.05454e-16
-5.46733e-09
3.95608e-08
-3.33171e-16
-5.44573e-09
6.48364e-08
-2.73089e-16
-5.35907e-09
9.12029e-08
-2.17938e-16
-5.21611e-09
1.18426e-07
-1.694e-16
-5.01974e-09
1.46056e-07
-1.17487e-16
-4.7697e-09
1.73713e-07
-1.10513e-16
-4.46576e-09
2.00764e-07
-1.26125e-16
-4.10879e-09
2.265e-07
-8.73272e-17
-3.70149e-09
2.50079e-07
-6.10179e-17
-3.24936e-09
2.70262e-07
-2.77614e-17
-2.76085e-09
2.85726e-07
-7.07494e-17
-2.2481e-09
2.94802e-07
-4.68874e-17
-1.72777e-09
2.95367e-07
-3.27253e-17
-1.22181e-09
2.84887e-07
-1.73545e-17
-7.58171e-10
2.60345e-07
4.91767e-18
-3.71523e-10
2.17932e-07
-2.51869e-17
-1.03015e-10
1.53148e-07
-1.48091e-17
6.02635e-08
-9.94789e-18
1.25273e-11
-6.98045e-09
1.06063e-15
5.84636e-12
-2.12087e-08
1.07744e-15
-1.30285e-11
-3.46333e-08
-4.647e-15
6.83345e-11
-4.9788e-08
-3.16432e-15
2.3667e-10
-6.15315e-08
-1.56327e-14
9.81007e-10
-7.78574e-08
-4.37442e-15
1.41991e-09
-7.94252e-08
-7.91746e-15
1.95263e-09
-8.81964e-08
-3.45944e-15
2.49986e-09
-9.99502e-08
-1.22902e-15
2.78956e-09
-1.08518e-07
-6.33687e-16
2.57034e-09
-1.09455e-07
-8.72536e-16
2.30651e-09
-1.01634e-07
-1.63276e-15
2.38868e-09
-9.71306e-08
-1.68241e-15
2.53535e-09
-9.97895e-08
-1.48091e-15
2.59831e-09
-1.05997e-07
-1.51913e-15
2.5619e-09
-1.13278e-07
-1.68517e-15
2.45277e-09
-1.20512e-07
-1.66886e-15
2.29546e-09
-1.27201e-07
-1.68533e-15
2.10658e-09
-1.33131e-07
-1.64488e-15
1.89459e-09
-1.38247e-07
-1.65742e-15
1.6623e-09
-1.42556e-07
-1.61752e-15
1.40927e-09
-1.46093e-07
-1.59749e-15
1.13375e-09
-1.48845e-07
-1.56e-15
8.33818e-10
-1.50826e-07
-1.53324e-15
5.08099e-10
-1.5199e-07
-1.47055e-15
1.56089e-10
-1.52301e-07
-1.44207e-15
-2.21711e-10
-1.51695e-07
-1.40936e-15
-6.23706e-10
-1.50089e-07
-1.38133e-15
-1.04732e-09
-1.47433e-07
-1.36148e-15
-1.48886e-09
-1.43618e-07
-1.38048e-15
-1.94368e-09
-1.3858e-07
-1.17815e-15
-2.4062e-09
-1.32239e-07
-1.13421e-15
-2.87001e-09
-1.24514e-07
-1.08188e-15
-3.32805e-09
-1.15338e-07
-1.02473e-15
-3.77296e-09
-1.04647e-07
-9.63536e-16
-4.19751e-09
-9.23903e-08
-8.95577e-16
-4.59534e-09
-7.85201e-08
-8.24009e-16
-4.96171e-09
-6.3006e-08
-7.46388e-16
-5.2941e-09
-4.58247e-08
-6.6698e-16
-5.58993e-09
-2.69559e-08
-5.88193e-16
-5.84516e-09
-6.41504e-09
-5.07922e-16
-6.03074e-09
1.58178e-08
-4.26964e-16
-6.11909e-09
3.96492e-08
-3.53754e-16
-6.1193e-09
6.48366e-08
-2.90879e-16
-6.04153e-09
9.11251e-08
-2.3286e-16
-5.89405e-09
1.18278e-07
-1.8229e-16
-5.68084e-09
1.45843e-07
-1.28185e-16
-5.40313e-09
1.73435e-07
-1.27153e-16
-5.06189e-09
2.00423e-07
-1.48205e-16
-4.65905e-09
2.26098e-07
-1.06658e-16
-4.19828e-09
2.49618e-07
-7.73465e-17
-3.68623e-09
2.6975e-07
-3.92298e-17
-3.13269e-09
2.85173e-07
-8.68301e-17
-2.55155e-09
2.94221e-07
-5.83955e-17
-1.96174e-09
2.94777e-07
-4.03056e-17
-1.3881e-09
2.84313e-07
-2.05104e-17
-8.6214e-10
2.59819e-07
7.29868e-18
-4.23063e-10
2.17493e-07
-2.41198e-17
-1.17578e-10
1.52842e-07
-1.01837e-17
6.01459e-08
-3.75913e-18
1.31492e-11
-6.9936e-09
1.12565e-15
3.52841e-12
-2.11991e-08
-8.66778e-16
9.60654e-11
-3.47258e-08
-5.28921e-15
1.96147e-10
-4.98881e-08
-2.69313e-15
3.40795e-10
-6.16761e-08
-6.99836e-15
1.10924e-09
-7.86258e-08
-4.1996e-16
1.50372e-09
-7.98197e-08
-9.05935e-15
2.02985e-09
-8.87225e-08
-3.86192e-15
2.56437e-09
-1.00485e-07
-1.75134e-15
2.82433e-09
-1.08778e-07
-1.33179e-15
2.58897e-09
-1.0922e-07
-1.58971e-15
2.35164e-09
-1.01397e-07
-2.23555e-15
2.43082e-09
-9.72098e-08
-1.9838e-15
2.56248e-09
-9.99211e-08
-1.77629e-15
2.61136e-09
-1.06046e-07
-1.74925e-15
2.56466e-09
-1.13232e-07
-1.84136e-15
2.4473e-09
-1.20395e-07
-1.77739e-15
2.28176e-09
-1.27035e-07
-1.77955e-15
2.08385e-09
-1.32933e-07
-1.77153e-15
1.86152e-09
-1.38025e-07
-1.77087e-15
1.6175e-09
-1.42312e-07
-1.71405e-15
1.3512e-09
-1.45826e-07
-1.68889e-15
1.06077e-09
-1.48554e-07
-1.6452e-15
7.44112e-10
-1.50509e-07
-1.60778e-15
3.99746e-10
-1.51646e-07
-1.53325e-15
2.70733e-11
-1.51928e-07
-1.49275e-15
-3.73433e-10
-1.51295e-07
-1.45113e-15
-8.0014e-10
-1.49663e-07
-1.41632e-15
-1.25038e-09
-1.46983e-07
-1.39318e-15
-1.72032e-09
-1.43148e-07
-1.41043e-15
-2.20516e-09
-1.38095e-07
-1.19853e-15
-2.6992e-09
-1.31745e-07
-1.15075e-15
-3.1959e-09
-1.24017e-07
-1.09601e-15
-3.68816e-09
-1.14845e-07
-1.03771e-15
-4.16863e-09
-1.04166e-07
-9.76276e-16
-4.63008e-09
-9.19288e-08
-9.08781e-16
-5.066e-09
-7.80842e-08
-8.38336e-16
-5.47106e-09
-6.2601e-08
-7.6228e-16
-5.84122e-09
-4.54545e-08
-6.84423e-16
-6.1714e-09
-2.66257e-08
-6.06931e-16
-6.454e-09
-6.13237e-09
-5.27995e-16
-6.66378e-09
1.60276e-08
-4.48395e-16
-6.77649e-09
3.9762e-08
-3.7437e-16
-6.79459e-09
6.48548e-08
-3.08975e-16
-6.72404e-09
9.10546e-08
-2.48134e-16
-6.57173e-09
1.18126e-07
-1.95118e-16
-6.34195e-09
1.45613e-07
-1.3849e-16
-6.03691e-09
1.7313e-07
-1.40564e-16
-5.65865e-09
2.00045e-07
-1.65679e-16
-5.2101e-09
2.25649e-07
-1.2091e-16
-4.69592e-09
2.49104e-07
-8.87432e-17
-4.12392e-09
2.69178e-07
-4.61536e-17
-3.5053e-09
2.84554e-07
-9.89352e-17
-2.85571e-09
2.93572e-07
-6.66775e-17
-2.19635e-09
2.94118e-07
-4.56251e-17
-1.5549e-09
2.83672e-07
-2.25158e-17
-9.66511e-10
2.59231e-07
9.7801e-18
-4.74853e-10
2.17001e-07
-2.37871e-17
-1.32236e-10
1.525e-07
-6.58266e-18
6.00137e-08
1.71056e-18
1.37045e-11
-7.0073e-09
1.32468e-15
5.93939e-12
-2.11913e-08
-2.53655e-16
2.4148e-10
-3.49613e-08
-2.18657e-15
3.34135e-10
-4.99808e-08
-4.00151e-15
4.63063e-10
-6.1805e-08
-7.01849e-15
1.25415e-09
-7.94168e-08
-3.712e-15
1.60369e-09
-8.01693e-08
-1.42983e-14
2.11743e-09
-8.92363e-08
-5.53281e-15
2.63224e-09
-1.01e-07
-3.15264e-15
2.85328e-09
-1.08999e-07
-2.62103e-15
2.59367e-09
-1.0896e-07
-2.76507e-15
2.37384e-09
-1.01177e-07
-2.90809e-15
2.44649e-09
-9.72824e-08
-2.42339e-15
2.56106e-09
-1.00036e-07
-2.13193e-15
2.59456e-09
-1.06079e-07
-2.01945e-15
2.53729e-09
-1.13174e-07
-2.06983e-15
2.41204e-09
-1.2027e-07
-1.96433e-15
2.23921e-09
-1.26862e-07
-1.95198e-15
2.0334e-09
-1.32727e-07
-1.91536e-15
1.80192e-09
-1.37793e-07
-1.8726e-15
1.54717e-09
-1.42058e-07
-1.79068e-15
1.26835e-09
-1.45548e-07
-1.75279e-15
9.63427e-10
-1.48249e-07
-1.70186e-15
6.3017e-10
-1.50176e-07
-1.65981e-15
2.66964e-10
-1.51282e-07
-1.58163e-15
-1.26858e-10
-1.51534e-07
-1.53623e-15
-5.50816e-10
-1.50871e-07
-1.49017e-15
-1.0032e-09
-1.4921e-07
-1.451e-15
-1.4812e-09
-1.46505e-07
-1.42542e-15
-1.98079e-09
-1.42648e-07
-1.44108e-15
-2.49695e-09
-1.37579e-07
-1.21967e-15
-3.02373e-09
-1.31218e-07
-1.16787e-15
-3.55441e-09
-1.23486e-07
-1.11051e-15
-4.08169e-09
-1.14318e-07
-1.051e-15
-4.59804e-09
-1.0365e-07
-9.89332e-16
-5.09601e-09
-9.14309e-08
-9.22357e-16
-5.56867e-09
-7.76115e-08
-8.52994e-16
-6.00989e-09
-6.21597e-08
-7.78406e-16
-6.41413e-09
-4.50503e-08
-7.01934e-16
-6.77428e-09
-2.62656e-08
-6.25603e-16
-7.08045e-09
-5.82611e-09
-5.47882e-16
-7.31036e-09
1.62575e-08
-4.69469e-16
-7.44244e-09
3.98941e-08
-3.94838e-16
-7.47447e-09
6.48868e-08
-3.27274e-16
-7.40888e-09
9.0989e-08
-2.63742e-16
-7.25073e-09
1.17968e-07
-2.08147e-16
-7.00408e-09
1.45367e-07
-1.4772e-16
-6.67167e-09
1.72798e-07
-1.51896e-16
-6.2564e-09
1.9963e-07
-1.80063e-16
-5.76212e-09
2.25155e-07
-1.32056e-16
-5.19448e-09
2.48536e-07
-9.73016e-17
-4.56246e-09
2.68546e-07
-5.05925e-17
-3.87868e-09
2.83871e-07
-1.08977e-16
-3.16055e-09
2.92854e-07
-7.33471e-17
-2.43153e-09
2.93389e-07
-4.99654e-17
-1.72218e-09
2.82962e-07
-2.4353e-17
-1.07123e-09
2.5858e-07
1.15763e-17
-5.2685e-10
2.16457e-07
-2.46405e-17
-1.46968e-10
1.5212e-07
-4.62949e-18
5.98667e-08
5.48449e-18
1.41225e-11
-7.02142e-09
1.02022e-15
1.35793e-11
-2.11908e-08
-5.29288e-16
4.09122e-10
-3.53569e-08
-1.1086e-15
4.57499e-10
-5.00291e-08
-5.50038e-15
5.86233e-10
-6.19337e-08
-4.4533e-15
1.40087e-09
-8.02314e-08
-5.83733e-15
1.70734e-09
-8.04757e-08
-6.54923e-15
2.20218e-09
-8.97312e-08
-6.15005e-15
2.6906e-09
-1.01488e-07
-4.77495e-15
2.86579e-09
-1.09174e-07
-4.2007e-15
2.57819e-09
-1.08672e-07
-4.18276e-15
2.37041e-09
-1.00969e-07
-3.65227e-15
2.43535e-09
-9.73474e-08
-2.78426e-15
2.53245e-09
-1.00133e-07
-2.48747e-15
2.55032e-09
-1.06097e-07
-2.27816e-15
2.48248e-09
-1.13107e-07
-2.32133e-15
2.34956e-09
-1.20137e-07
-2.16281e-15
2.17e-09
-1.26683e-07
-2.12719e-15
1.95704e-09
-1.32514e-07
-2.07347e-15
1.71719e-09
-1.37554e-07
-2.02318e-15
1.4524e-09
-1.41793e-07
-1.92214e-15
1.16154e-09
-1.45257e-07
-1.86163e-15
8.42368e-10
-1.4793e-07
-1.79022e-15
4.92453e-10
-1.49826e-07
-1.73017e-15
1.10065e-10
-1.509e-07
-1.63879e-15
-3.0551e-10
-1.51119e-07
-1.58245e-15
-7.53751e-10
-1.50423e-07
-1.52878e-15
-1.23283e-09
-1.48731e-07
-1.48416e-15
-1.73973e-09
-1.45998e-07
-1.45595e-15
-2.27016e-09
-1.42118e-07
-1.47375e-15
-2.81882e-09
-1.3703e-07
-1.24026e-15
-3.37943e-09
-1.30657e-07
-1.18489e-15
-3.94497e-09
-1.22921e-07
-1.12509e-15
-4.50781e-09
-1.13755e-07
-1.06444e-15
-5.06011e-09
-1.03098e-07
-1.00258e-15
-5.594e-09
-9.0897e-08
-9.36147e-16
-6.10198e-09
-7.71035e-08
-8.67778e-16
-6.57703e-09
-6.16847e-08
-7.94507e-16
-7.01217e-09
-4.46151e-08
-7.19204e-16
-7.39873e-09
-2.5879e-08
-6.43825e-16
-7.72533e-09
-5.49942e-09
-5.67144e-16
-7.97194e-09
1.65041e-08
-4.89736e-16
-8.11906e-09
4.00413e-08
-4.14654e-16
-8.16123e-09
6.49291e-08
-3.45254e-16
-8.09801e-09
9.09258e-08
-2.79252e-16
-7.93251e-09
1.17803e-07
-2.20948e-16
-7.66819e-09
1.45102e-07
-1.56678e-16
-7.30803e-09
1.72438e-07
-1.61864e-16
-6.85552e-09
1.99177e-07
-1.92778e-16
-6.31535e-09
2.24615e-07
-1.41159e-16
-5.69409e-09
2.47915e-07
-1.03676e-16
-5.00191e-09
2.67854e-07
-5.28074e-17
-4.25283e-09
2.83121e-07
-1.16909e-16
-3.46603e-09
2.92067e-07
-7.80802e-17
-2.66724e-09
2.9259e-07
-5.27821e-17
-1.88988e-09
2.82185e-07
-2.52758e-17
-1.17624e-09
2.57866e-07
1.36368e-17
-5.79017e-10
2.1586e-07
-2.59135e-17
-1.61759e-10
1.51702e-07
-3.4949e-18
5.97049e-08
8.42576e-18
1.43749e-11
-7.03579e-09
1.30782e-15
2.5957e-11
-2.12024e-08
-5.83558e-17
5.7694e-10
-3.59078e-08
-1.00338e-16
5.39515e-10
-4.99917e-08
-9.02442e-15
6.908e-10
-6.2085e-08
-5.2435e-15
1.53429e-09
-8.10749e-08
-1.23018e-14
1.80922e-09
-8.07506e-08
-9.32792e-15
2.27848e-09
-9.02004e-08
-7.10445e-15
2.732e-09
-1.01941e-07
-6.54462e-15
2.85405e-09
-1.09296e-07
-6.26321e-15
2.53613e-09
-1.08355e-07
-5.86402e-15
2.33624e-09
-1.0077e-07
-4.56779e-15
2.39328e-09
-9.74044e-08
-3.39136e-15
2.47369e-09
-1.00213e-07
-2.86379e-15
2.47703e-09
-1.06101e-07
-2.55418e-15
2.3996e-09
-1.13029e-07
-2.55873e-15
2.26001e-09
-1.19997e-07
-2.3638e-15
2.07481e-09
-1.26498e-07
-2.29794e-15
1.85577e-09
-1.32295e-07
-2.23307e-15
1.6085e-09
-1.37306e-07
-2.14182e-15
1.33437e-09
-1.41519e-07
-2.01827e-15
1.0319e-09
-1.44954e-07
-1.94202e-15
6.98564e-10
-1.47597e-07
-1.85709e-15
3.31759e-10
-1.49459e-07
-1.78682e-15
-7.03379e-11
-1.50498e-07
-1.68736e-15
-5.08444e-10
-1.5068e-07
-1.62448e-15
-9.81949e-10
-1.49949e-07
-1.56578e-15
-1.48883e-09
-1.48224e-07
-1.51707e-15
-2.02582e-09
-1.45461e-07
-1.48617e-15
-2.58831e-09
-1.41556e-07
-1.50446e-15
-3.17057e-09
-1.36448e-07
-1.26061e-15
-3.76599e-09
-1.30062e-07
-1.20204e-15
-4.36709e-09
-1.2232e-07
-1.13981e-15
-4.96586e-09
-1.13157e-07
-1.078e-15
-5.55398e-09
-1.0251e-07
-1.01591e-15
-6.12307e-09
-9.03279e-08
-9.50019e-16
-6.66495e-09
-7.65616e-08
-8.82535e-16
-7.17166e-09
-6.1178e-08
-8.10428e-16
-7.63495e-09
-4.41518e-08
-7.36065e-16
-8.04493e-09
-2.5469e-08
-6.61415e-16
-8.38926e-09
-5.155e-09
-5.8555e-16
-8.64957e-09
1.67645e-08
-5.08921e-16
-8.80791e-09
4.01998e-08
-4.33452e-16
-8.85666e-09
6.49778e-08
-3.62478e-16
-8.79304e-09
9.08622e-08
-2.94236e-16
-8.61834e-09
1.17628e-07
-2.33351e-16
-8.33522e-09
1.44819e-07
-1.6476e-16
-7.94659e-09
1.72049e-07
-1.71388e-16
-7.45638e-09
1.98687e-07
-2.04971e-16
-6.86998e-09
2.24028e-07
-1.49839e-16
-6.19486e-09
2.4724e-07
-1.09691e-16
-5.44231e-09
2.67102e-07
-5.47041e-17
-4.62775e-09
2.82307e-07