/*--------------------------------*- C++ -*----------------------------------*\
| =========                 |                                                 |
| \\      /  F ield         | OpenFOAM: The Open Source CFD Toolbox           |
|  \\    /   O peration     | Version:  v2012                                 |
|   \\  /    A nd           | Website:  www.openfoam.com                      |
|    \\/     M anipulation  |                                                 |
\*---------------------------------------------------------------------------*/
FoamFile
{
    version     2.0;
    format      ascii;
    class       volScalarField;
    location    "0.5";
    object      p_rgh;
}
// * * * * * * * * * * * * * * * * * * * * * * * * * * * * * * * * * * * * * //

dimensions      [1 -1 -2 0 0 0 0];


internalField   nonuniform List<scalar> 
2619
(
3.10033e+06
3.10024e+06
3.10014e+06
3.1001e+06
3.10004e+06
3.10004e+06
3.10003e+06
3.10003e+06
3.10003e+06
3.10003e+06
3.10002e+06
3.10002e+06
3.10001e+06
3.10001e+06
3.10001e+06
3.10001e+06
3.10052e+06
3.1003e+06
3.1002e+06
3.10013e+06
3.10008e+06
3.10006e+06
3.10005e+06
3.10004e+06
3.10004e+06
3.10003e+06
3.10003e+06
3.10003e+06
3.10003e+06
3.10002e+06
3.10002e+06
3.10001e+06
3.10001e+06
3.10001e+06
3.10053e+06
3.10027e+06
3.10022e+06
3.10011e+06
3.10009e+06
3.10005e+06
3.10006e+06
3.10004e+06
3.10004e+06
3.10003e+06
3.10003e+06
3.10003e+06
3.10003e+06
3.10002e+06
3.10002e+06
3.10001e+06
3.10001e+06
3.10001e+06
3.10001e+06
3.10052e+06
3.10026e+06
3.1002e+06
3.10011e+06
3.10008e+06
3.10005e+06
3.10005e+06
3.10004e+06
3.10004e+06
3.10003e+06
3.10003e+06
3.10003e+06
3.10003e+06
3.10002e+06
3.10002e+06
3.10001e+06
3.10001e+06
3.10001e+06
3.10001e+06
3.10053e+06
3.10026e+06
3.10021e+06
3.10011e+06
3.10009e+06
3.10005e+06
3.10006e+06
3.10004e+06
3.10004e+06
3.10004e+06
3.10003e+06
3.10003e+06
3.10003e+06
3.10002e+06
3.10002e+06
3.10001e+06
3.10001e+06
3.10001e+06
3.10001e+06
3.10046e+06
3.10025e+06
3.1002e+06
3.10011e+06
3.10013e+06
3.10009e+06
3.10005e+06
3.10003e+06
3.10004e+06
3.10003e+06
3.10003e+06
3.10003e+06
3.10003e+06
3.10002e+06
3.10002e+06
3.10002e+06
3.10001e+06
3.10001e+06
3.10001e+06
3.10036e+06
3.10009e+06
3.10008e+06
3.10002e+06
3.10012e+06
3.10008e+06
3.10006e+06
3.10004e+06
3.10004e+06
3.10004e+06
3.10004e+06
3.10003e+06
3.10003e+06
3.10002e+06
3.10002e+06
3.10002e+06
3.10001e+06
3.10001e+06
3.10001e+06
3.1008e+06
3.10049e+06
3.10034e+06
3.10018e+06
3.10015e+06
3.10009e+06
3.1001e+06
3.10008e+06
3.10005e+06
3.10004e+06
3.10004e+06
3.10003e+06
3.10003e+06
3.10003e+06
3.10002e+06
3.10002e+06
3.10001e+06
3.10001e+06
3.10001e+06
3.10101e+06
3.10171e+06
3.10207e+06
3.10148e+06
3.10031e+06
3.10001e+06
3.10011e+06
3.10009e+06
3.10005e+06
3.10003e+06
3.10004e+06
3.10003e+06
3.10003e+06
3.10002e+06
3.10002e+06
3.10002e+06
3.10001e+06
3.10001e+06
3.10001e+06
3.1027e+06
3.10226e+06
3.10233e+06
3.10164e+06
3.10035e+06
3.10002e+06
3.10011e+06
3.10009e+06
3.10003e+06
3.10002e+06
3.10003e+06
3.10003e+06
3.10002e+06
3.10002e+06
3.10002e+06
3.10002e+06
3.10001e+06
3.10001e+06
3.10001e+06
3.10259e+06
3.10205e+06
3.10219e+06
3.10155e+06
3.10033e+06
3.10002e+06
3.10011e+06
3.10008e+06
3.10003e+06
3.10002e+06
3.10003e+06
3.10002e+06
3.10002e+06
3.10001e+06
3.10001e+06
3.10001e+06
3.10001e+06
3.10001e+06
3.10001e+06
3.10237e+06
3.10195e+06
3.1021e+06
3.10145e+06
3.10021e+06
3.09991e+06
3.10008e+06
3.10006e+06
3.10002e+06
3.10001e+06
3.10001e+06
3.10001e+06
3.10001e+06
3.10001e+06
3.10001e+06
3.10001e+06
3.10001e+06
3.10001e+06
3.10001e+06
3.10001e+06
3.10001e+06
3.10001e+06
3.10001e+06
3.10248e+06
3.10203e+06
3.10214e+06
3.10156e+06
3.10041e+06
3.1001e+06
3.10013e+06
3.10007e+06
3.10003e+06
3.10001e+06
3.10001e+06
3.10001e+06
3.10001e+06
3.10001e+06
3.10001e+06
3.10001e+06
3.10001e+06
3.10001e+06
3.10001e+06
3.10001e+06
3.10001e+06
3.10001e+06
3.10001e+06
3.10201e+06
3.10168e+06
3.10159e+06
3.10155e+06
3.10171e+06
3.10126e+06
3.10019e+06
3.09989e+06
3.10001e+06
3.1e+06
3.10001e+06
3.10001e+06
3.10001e+06
3.10001e+06
3.10001e+06
3.10001e+06
3.10002e+06
3.10002e+06
3.10002e+06
3.10002e+06
3.10001e+06
3.10001e+06
3.10001e+06
3.10213e+06
3.10175e+06
3.10165e+06
3.1017e+06
3.10196e+06
3.10156e+06
3.10049e+06
3.10013e+06
3.10009e+06
3.10003e+06
3.10002e+06
3.10002e+06
3.10002e+06
3.10001e+06
3.10001e+06
3.10001e+06
3.10002e+06
3.10002e+06
3.10002e+06
3.10002e+06
3.10002e+06
3.10001e+06
3.10001e+06
3.10192e+06
3.10165e+06
3.10149e+06
3.10156e+06
3.10157e+06
3.10159e+06
3.10165e+06
3.10122e+06
3.10026e+06
3.09996e+06
3.10002e+06
3.10002e+06
3.10002e+06
3.10001e+06
3.10001e+06
3.10001e+06
3.10002e+06
3.10002e+06
3.10002e+06
3.10002e+06
3.10002e+06
3.10002e+06
3.10001e+06
3.10193e+06
3.10204e+06
3.102e+06
3.10195e+06
3.10168e+06
3.10168e+06
3.1019e+06
3.10144e+06
3.10034e+06
3.09997e+06
3.10004e+06
3.10003e+06
3.10002e+06
3.10002e+06
3.10002e+06
3.10002e+06
3.10002e+06
3.10002e+06
3.10002e+06
3.10002e+06
3.10002e+06
3.10002e+06
3.10002e+06
3.1022e+06
3.1021e+06
3.102e+06
3.10196e+06
3.10163e+06
3.10164e+06
3.1018e+06
3.10136e+06
3.10031e+06
3.09996e+06
3.10003e+06
3.10003e+06
3.10002e+06
3.10002e+06
3.10002e+06
3.10002e+06
3.10002e+06
3.10002e+06
3.10002e+06
3.10002e+06
3.10002e+06
3.10002e+06
3.10002e+06
3.10215e+06
3.10204e+06
3.10195e+06
3.10193e+06
3.10162e+06
3.10164e+06
3.1018e+06
3.10136e+06
3.10031e+06
3.09996e+06
3.10003e+06
3.10003e+06
3.10002e+06
3.10002e+06
3.10002e+06
3.10002e+06
3.10002e+06
3.10002e+06
3.10002e+06
3.10002e+06
3.10002e+06
3.10002e+06
3.10002e+06
3.10206e+06
3.10199e+06
3.10191e+06
3.1019e+06
3.10159e+06
3.10162e+06
3.1018e+06
3.10136e+06
3.10032e+06
3.09996e+06
3.10003e+06
3.10003e+06
3.10003e+06
3.10002e+06
3.10002e+06
3.10002e+06
3.10002e+06
3.10002e+06
3.10002e+06
3.10002e+06
3.10002e+06
3.10002e+06
3.10002e+06
3.10207e+06
3.10204e+06
3.10192e+06
3.10194e+06
3.10164e+06
3.10168e+06
3.10182e+06
3.10137e+06
3.10032e+06
3.09996e+06
3.10004e+06
3.10003e+06
3.10003e+06
3.10002e+06
3.10002e+06
3.10002e+06
3.10002e+06
3.10002e+06
3.10002e+06
3.10002e+06
3.10002e+06
3.10002e+06
3.10002e+06
3.102e+06
3.10194e+06
3.1018e+06
3.10195e+06
3.10199e+06
3.10199e+06
3.10185e+06
3.10134e+06
3.10032e+06
3.09996e+06
3.10004e+06
3.10004e+06
3.10003e+06
3.10003e+06
3.10003e+06
3.10003e+06
3.10003e+06
3.10003e+06
3.10003e+06
3.10002e+06
3.10002e+06
3.10002e+06
3.10002e+06
3.10211e+06
3.10212e+06
3.10189e+06
3.10207e+06
3.10207e+06
3.10209e+06
3.10193e+06
3.1014e+06
3.10034e+06
3.09997e+06
3.10004e+06
3.10004e+06
3.10004e+06
3.10003e+06
3.10003e+06
3.10003e+06
3.10003e+06
3.10003e+06
3.10003e+06
3.10003e+06
3.10002e+06
3.10002e+06
3.10002e+06
3.10177e+06
3.10176e+06
3.10164e+06
3.10192e+06
3.10195e+06
3.1021e+06
3.10223e+06
3.10169e+06
3.10039e+06
3.09996e+06
3.10004e+06
3.10004e+06
3.10004e+06
3.10003e+06
3.10003e+06
3.10003e+06
3.10003e+06
3.10003e+06
3.10003e+06
3.10003e+06
3.10003e+06
3.10002e+06
3.10002e+06
3.10144e+06
3.10087e+06
3.10038e+06
3.10104e+06
3.10184e+06
3.10221e+06
3.1023e+06
3.10175e+06
3.10042e+06
3.09997e+06
3.10005e+06
3.10005e+06
3.10005e+06
3.10004e+06
3.10004e+06
3.10004e+06
3.10004e+06
3.10003e+06
3.10003e+06
3.10003e+06
3.10003e+06
3.10003e+06
3.10002e+06
3.1002e+06
3.10041e+06
3.10018e+06
3.10091e+06
3.10181e+06
3.10219e+06
3.10228e+06
3.10174e+06
3.10042e+06
3.09997e+06
3.10006e+06
3.10005e+06
3.10005e+06
3.10004e+06
3.10004e+06
3.10004e+06
3.10004e+06
3.10004e+06
3.10004e+06
3.10003e+06
3.10003e+06
3.10003e+06
3.10002e+06
3.10024e+06
3.10058e+06
3.10025e+06
3.101e+06
3.10181e+06
3.10221e+06
3.10229e+06
3.10175e+06
3.10043e+06
3.09998e+06
3.10006e+06
3.10006e+06
3.10006e+06
3.10005e+06
3.10005e+06
3.10005e+06
3.10004e+06
3.10004e+06
3.10004e+06
3.10003e+06
3.10003e+06
3.10003e+06
3.10002e+06
3.10045e+06
3.10062e+06
3.10034e+06
3.10103e+06
3.1019e+06
3.10228e+06
3.10231e+06
3.10176e+06
3.10043e+06
3.09998e+06
3.10007e+06
3.10007e+06
3.10006e+06
3.10006e+06
3.10005e+06
3.10005e+06
3.10005e+06
3.10004e+06
3.10004e+06
3.10004e+06
3.10003e+06
3.10003e+06
3.10003e+06
3.10037e+06
3.1006e+06
3.1003e+06
3.10101e+06
3.10176e+06
3.10218e+06
3.10229e+06
3.10178e+06
3.10045e+06
3.1e+06
3.10008e+06
3.10008e+06
3.10007e+06
3.10006e+06
3.10006e+06
3.10006e+06
3.10005e+06
3.10005e+06
3.10004e+06
3.10004e+06
3.10004e+06
3.10003e+06
3.10003e+06
3.10084e+06
3.10084e+06
3.10072e+06
3.10096e+06
3.10083e+06
3.10132e+06
3.10224e+06
3.10191e+06
3.10048e+06
3.10003e+06
3.10009e+06
3.10008e+06
3.10008e+06
3.10007e+06
3.10007e+06
3.10006e+06
3.10006e+06
3.10005e+06
3.10005e+06
3.10004e+06
3.10004e+06
3.10003e+06
3.10003e+06
3.10099e+06
3.10102e+06
3.10087e+06
3.10102e+06
3.10072e+06
3.10116e+06
3.10207e+06
3.10177e+06
3.10046e+06
3.10004e+06
3.10011e+06
3.1001e+06
3.10009e+06
3.10008e+06
3.10007e+06
3.10007e+06
3.10006e+06
3.10006e+06
3.10005e+06
3.10005e+06
3.10004e+06
3.10003e+06
3.10003e+06
3.10062e+06
3.10063e+06
3.10064e+06
3.10087e+06
3.10091e+06
3.1011e+06
3.10121e+06
3.10097e+06
3.10032e+06
3.10009e+06
3.10012e+06
3.10011e+06
3.1001e+06
3.10008e+06
3.10008e+06
3.10007e+06
3.10007e+06
3.10006e+06
3.10005e+06
3.10005e+06
3.10004e+06
3.10003e+06
3.10003e+06
3.10065e+06
3.09878e+06
3.0982e+06
3.09902e+06
3.10074e+06
3.10119e+06
3.10111e+06
3.10086e+06
3.10033e+06
3.10012e+06
3.10015e+06
3.10014e+06
3.10012e+06
3.1001e+06
3.10009e+06
3.10008e+06
3.10008e+06
3.10007e+06
3.10006e+06
3.10005e+06
3.10004e+06
3.10004e+06
3.10003e+06
3.09828e+06
3.09807e+06
3.09783e+06
3.09873e+06
3.10065e+06
3.10116e+06
3.10114e+06
3.10089e+06
3.10033e+06
3.10012e+06
3.10015e+06
3.10014e+06
3.10012e+06
3.1001e+06
3.1001e+06
3.10009e+06
3.10008e+06
3.10007e+06
3.10006e+06
3.10005e+06
3.10004e+06
3.10004e+06
3.10003e+06
3.09869e+06
3.09846e+06
3.09823e+06
3.09899e+06
3.10083e+06
3.10128e+06
3.10125e+06
3.10098e+06
3.10042e+06
3.10019e+06
3.10021e+06
3.10018e+06
3.10015e+06
3.10013e+06
3.10012e+06
3.1001e+06
3.10009e+06
3.10008e+06
3.10006e+06
3.10005e+06
3.10004e+06
3.10004e+06
3.10003e+06
3.09891e+06
3.09853e+06
3.09825e+06
3.09901e+06
3.10091e+06
3.10134e+06
3.10121e+06
3.10094e+06
3.10038e+06
3.10016e+06
3.10019e+06
3.10017e+06
3.10015e+06
3.10012e+06
3.10011e+06
3.1001e+06
3.10009e+06
3.10008e+06
3.10007e+06
3.10005e+06
3.10004e+06
3.10003e+06
3.10003e+06
3.09902e+06
3.09871e+06
3.09845e+06
3.09913e+06
3.10083e+06
3.10128e+06
3.10132e+06
3.10109e+06
3.1005e+06
3.10027e+06
3.10029e+06
3.10024e+06
3.1002e+06
3.10016e+06
3.10014e+06
3.10012e+06
3.1001e+06
3.10008e+06
3.10007e+06
3.10006e+06
3.10004e+06
3.10003e+06
3.10002e+06
3.09941e+06
3.09903e+06
3.099e+06
3.09895e+06
3.09879e+06
3.09944e+06
3.10109e+06
3.10122e+06
3.10046e+06
3.10023e+06
3.10024e+06
3.1002e+06
3.10017e+06
3.10014e+06
3.10013e+06
3.10011e+06
3.1001e+06
3.10008e+06
3.10007e+06
3.10005e+06
3.10004e+06
3.10003e+06
3.10002e+06
3.09985e+06
3.10006e+06
3.0995e+06
3.0995e+06
3.09878e+06
3.09945e+06
3.10097e+06
3.10119e+06
3.10057e+06
3.10039e+06
3.10038e+06
3.10031e+06
3.10026e+06
3.1002e+06
3.10017e+06
3.10014e+06
3.10011e+06
3.10009e+06
3.10007e+06
3.10005e+06
3.10004e+06
3.10003e+06
3.10002e+06
3.09848e+06
3.09874e+06
3.09879e+06
3.09903e+06
3.09893e+06
3.09909e+06
3.09902e+06
3.09938e+06
3.10014e+06
3.10034e+06
3.10029e+06
3.10024e+06
3.1002e+06
3.10015e+06
3.10014e+06
3.10011e+06
3.1001e+06
3.10008e+06
3.10006e+06
3.10004e+06
3.10003e+06
3.10002e+06
3.10001e+06
3.09801e+06
3.09677e+06
3.0945e+06
3.09641e+06
3.09893e+06
3.0999e+06
3.09917e+06
3.09958e+06
3.10043e+06
3.10065e+06
3.10053e+06
3.10042e+06
3.10034e+06
3.10025e+06
3.1002e+06
3.10015e+06
3.10012e+06
3.10009e+06
3.10006e+06
3.10004e+06
3.10003e+06
3.10001e+06
3.1e+06
3.09263e+06
3.09436e+06
3.09325e+06
3.09534e+06
3.09833e+06
3.09936e+06
3.09881e+06
3.09926e+06
3.10012e+06
3.10039e+06
3.10032e+06
3.10025e+06
3.10021e+06
3.10015e+06
3.10014e+06
3.10011e+06
3.10009e+06
3.10006e+06
3.10005e+06
3.10003e+06
3.10001e+06
3.1e+06
3.09999e+06
3.09426e+06
3.09666e+06
3.09499e+06
3.09704e+06
3.09957e+06
3.10053e+06
3.09978e+06
3.1001e+06
3.10081e+06
3.10093e+06
3.10075e+06
3.10056e+06
3.10044e+06
3.1003e+06
3.10024e+06
3.10016e+06
3.10012e+06
3.10007e+06
3.10004e+06
3.10002e+06
3.1e+06
3.09999e+06
3.09998e+06
3.09351e+06
3.09519e+06
3.094e+06
3.09593e+06
3.09883e+06
3.09971e+06
3.09897e+06
3.09932e+06
3.10018e+06
3.10038e+06
3.10034e+06
3.10022e+06
3.1002e+06
3.10012e+06
3.10011e+06
3.10007e+06
3.10005e+06
3.10002e+06
3.10001e+06
3.09999e+06
3.09998e+06
3.09998e+06
3.09997e+06
3.09622e+06
3.09775e+06
3.09675e+06
3.09815e+06
3.10076e+06
3.10122e+06
3.10066e+06
3.10069e+06
3.10137e+06
3.10126e+06
3.10105e+06
3.1007e+06
3.10055e+06
3.10033e+06
3.10025e+06
3.10014e+06
3.10009e+06
3.10003e+06
3.1e+06
3.09998e+06
3.09997e+06
3.09996e+06
3.09996e+06
3.09522e+06
3.09533e+06
3.09596e+06
3.09551e+06
3.09519e+06
3.09579e+06
3.09885e+06
3.09954e+06
3.10023e+06
3.10021e+06
3.10028e+06
3.10007e+06
3.10011e+06
3.09999e+06
3.10002e+06
3.09997e+06
3.09998e+06
3.09995e+06
3.09995e+06
3.09994e+06
3.09994e+06
3.09994e+06
3.09994e+06
3.10059e+06
3.09947e+06
3.10114e+06
3.0994e+06
3.09927e+06
3.09859e+06
3.10155e+06
3.10139e+06
3.1022e+06
3.10162e+06
3.10143e+06
3.10079e+06
3.10064e+06
3.10029e+06
3.10021e+06
3.10006e+06
3.10001e+06
3.09995e+06
3.09994e+06
3.09992e+06
3.09992e+06
3.09991e+06
3.09992e+06
3.09866e+06
3.0954e+06
3.09833e+06
3.09509e+06
3.09661e+06
3.09408e+06
3.09524e+06
3.09507e+06
3.09951e+06
3.09966e+06
3.10002e+06
3.09959e+06
3.09985e+06
3.09969e+06
3.09982e+06
3.09978e+06
3.09983e+06
3.09983e+06
3.09985e+06
3.09986e+06
3.09987e+06
3.09988e+06
3.0999e+06
3.11355e+06
3.11026e+06
3.11682e+06
3.1088e+06
3.10681e+06
3.10009e+06
3.10111e+06
3.09861e+06
3.10307e+06
3.10187e+06
3.10185e+06
3.10062e+06
3.10062e+06
3.10009e+06
3.10008e+06
3.09988e+06
3.09988e+06
3.09983e+06
3.09984e+06
3.09983e+06
3.09985e+06
3.09986e+06
3.09988e+06
3.11261e+06
3.10154e+06
3.11012e+06
3.09883e+06
3.09979e+06
3.09038e+06
3.09548e+06
3.09195e+06
3.09909e+06
3.09789e+06
3.09946e+06
3.09857e+06
3.09938e+06
3.09914e+06
3.09949e+06
3.09947e+06
3.09963e+06
3.09966e+06
3.09973e+06
3.09976e+06
3.0998e+06
3.09983e+06
3.09985e+06
3.14242e+06
3.12561e+06
3.13652e+06
3.11915e+06
3.12058e+06
3.10226e+06
3.10705e+06
3.09812e+06
3.10479e+06
3.10085e+06
3.10197e+06
3.09982e+06
3.10032e+06
3.09958e+06
3.09977e+06
3.09958e+06
3.09967e+06
3.09965e+06
3.09971e+06
3.09974e+06
3.09978e+06
3.0998e+06
3.09983e+06
3.13158e+06
3.1075e+06
3.12495e+06
3.09719e+06
3.10652e+06
3.07655e+06
3.09595e+06
3.0837e+06
3.09812e+06
3.09399e+06
3.09844e+06
3.09682e+06
3.09866e+06
3.09836e+06
3.09907e+06
3.09911e+06
3.09939e+06
3.09948e+06
3.0996e+06
3.09967e+06
3.09973e+06
3.09978e+06
3.09981e+06
3.19777e+06
3.1691e+06
3.18679e+06
3.15037e+06
3.15853e+06
3.0934e+06
3.11226e+06
3.08991e+06
3.1041e+06
3.09656e+06
3.10064e+06
3.09783e+06
3.09941e+06
3.0987e+06
3.09928e+06
3.09919e+06
3.09942e+06
3.09947e+06
3.09959e+06
3.09965e+06
3.09971e+06
3.09976e+06
3.0998e+06
3.19892e+06
3.15547e+06
3.18227e+06
3.10932e+06
3.12486e+06
3.00094e+06
3.09166e+06
3.06531e+06
3.09621e+06
3.08871e+06
3.09724e+06
3.09515e+06
3.09805e+06
3.09779e+06
3.09877e+06
3.09887e+06
3.09924e+06
3.09937e+06
3.09952e+06
3.09961e+06
3.09969e+06
3.09975e+06
3.09979e+06
3.32034e+06
3.30653e+06
3.31638e+06
3.30393e+06
3.31137e+06
3.43793e+06
3.40002e+06
3.43767e+06
3.39641e+06
3.4176e+06
3.45455e+06
3.47797e+06
3.46765e+06
3.47466e+06
3.47779e+06
3.80802e+06
3.80268e+06
3.85045e+06
3.62581e+06
3.72769e+06
4.00096e+06
4.00097e+06
4.00113e+06
4.00145e+06
4.00187e+06
4.00178e+06
4.00182e+06
4.00189e+06
4.00199e+06
4.00212e+06
4.00204e+06
4.00206e+06
4.00209e+06
4.00213e+06
4.00218e+06
4.0022e+06
4.00214e+06
4.00218e+06
4.00216e+06
4.00967e+06
4.00219e+06
4.08515e+06
4.00224e+06
4.05827e+06
4.03337e+06
4.00224e+06
4.05783e+06
4.08776e+06
4.00231e+06
4.05865e+06
4.00227e+06
4.20843e+06
4.00238e+06
4.10468e+06
4.0709e+06
4.00222e+06
4.00235e+06
4.08044e+06
4.31378e+06
4.17579e+06
4.00221e+06
4.3731e+06
4.00222e+06
4.00225e+06
4.00223e+06
3.90296e+06
4.0025e+06
4.00222e+06
4.00225e+06
4.00227e+06
6.12253e+06
5.78668e+06
4.00226e+06
5.16357e+06
8.11687e+06
4.00248e+06
4.58471e+06
4.00218e+06
4.00228e+06
4.00232e+06
4.00237e+06
4.00289e+06
4.00238e+06
4.00844e+06
4.00227e+06
4.00224e+06
4.00223e+06
4.00226e+06
4.00235e+06
4.04968e+06
4.04579e+06
4.00221e+06
4.00233e+06
4.00249e+06
4.00232e+06
4.5608e+06
4.49714e+06
4.27393e+06
4.11727e+06
4.00289e+06
4.16369e+06
4.12048e+06
4.1206e+06
4.11411e+06
4.12962e+06
4.03547e+06
4.08325e+06
4.00325e+06
4.02533e+06
4.01659e+06
4.00315e+06
4.00727e+06
4.00419e+06
4.00375e+06
4.01586e+06
3.1005e+06
3.10033e+06
3.10024e+06
3.10014e+06
3.1001e+06
3.10004e+06
3.10004e+06
3.10003e+06
3.10003e+06
3.10003e+06
3.10003e+06
3.10002e+06
3.10002e+06
3.10001e+06
3.10001e+06
3.10001e+06
3.10001e+06
3.10052e+06
3.1003e+06
3.1002e+06
3.10013e+06
3.10008e+06
3.10006e+06
3.10005e+06
3.10004e+06
3.10004e+06
3.10003e+06
3.10003e+06
3.10003e+06
3.10003e+06
3.10002e+06
3.10002e+06
3.10001e+06
3.10001e+06
3.10001e+06
3.10053e+06
3.10027e+06
3.10022e+06
3.10011e+06
3.10009e+06
3.10005e+06
3.10006e+06
3.10004e+06
3.10004e+06
3.10003e+06
3.10003e+06
3.10003e+06
3.10003e+06
3.10002e+06
3.10002e+06
3.10001e+06
3.10001e+06
3.10001e+06
3.10001e+06
3.10052e+06
3.10026e+06
3.1002e+06
3.10011e+06
3.10008e+06
3.10005e+06
3.10005e+06
3.10004e+06
3.10004e+06
3.10003e+06
3.10003e+06
3.10003e+06
3.10003e+06
3.10002e+06
3.10002e+06
3.10001e+06
3.10001e+06
3.10001e+06
3.10001e+06
3.10053e+06
3.10026e+06
3.10021e+06
3.10011e+06
3.10009e+06
3.10005e+06
3.10006e+06
3.10004e+06
3.10004e+06
3.10004e+06
3.10003e+06
3.10003e+06
3.10003e+06
3.10002e+06
3.10002e+06
3.10001e+06
3.10001e+06
3.10001e+06
3.10001e+06
3.10046e+06
3.10025e+06
3.1002e+06
3.10011e+06
3.10013e+06
3.10009e+06
3.10005e+06
3.10003e+06
3.10004e+06
3.10003e+06
3.10003e+06
3.10003e+06
3.10003e+06
3.10002e+06
3.10002e+06
3.10002e+06
3.10001e+06
3.10001e+06
3.10001e+06
3.10036e+06
3.10009e+06
3.10008e+06
3.10002e+06
3.10012e+06
3.10008e+06
3.10006e+06
3.10004e+06
3.10004e+06
3.10004e+06
3.10004e+06
3.10003e+06
3.10003e+06
3.10002e+06
3.10002e+06
3.10002e+06
3.10001e+06
3.10001e+06
3.10001e+06
3.1008e+06
3.10049e+06
3.10034e+06
3.10018e+06
3.10015e+06
3.10009e+06
3.1001e+06
3.10008e+06
3.10005e+06
3.10004e+06
3.10004e+06
3.10003e+06
3.10003e+06
3.10003e+06
3.10002e+06
3.10002e+06
3.10001e+06
3.10001e+06
3.10001e+06
3.10101e+06
3.10171e+06
3.10207e+06
3.10148e+06
3.10031e+06
3.10001e+06
3.10011e+06
3.10009e+06
3.10005e+06
3.10003e+06
3.10004e+06
3.10003e+06
3.10003e+06
3.10002e+06
3.10002e+06
3.10002e+06
3.10001e+06
3.10001e+06
3.10001e+06
3.1027e+06
3.10226e+06
3.10233e+06
3.10164e+06
3.10035e+06
3.10002e+06
3.10011e+06
3.10009e+06
3.10003e+06
3.10002e+06
3.10003e+06
3.10003e+06
3.10002e+06
3.10002e+06
3.10002e+06
3.10002e+06
3.10001e+06
3.10001e+06
3.10001e+06
3.10259e+06
3.10205e+06
3.10219e+06
3.10155e+06
3.10033e+06
3.10002e+06
3.10011e+06
3.10008e+06
3.10003e+06
3.10002e+06
3.10003e+06
3.10002e+06
3.10002e+06
3.10001e+06
3.10001e+06
3.10001e+06
3.10001e+06
3.10001e+06
3.10001e+06
3.10237e+06
3.10195e+06
3.1021e+06
3.10145e+06
3.10021e+06
3.09991e+06
3.10008e+06
3.10006e+06
3.10002e+06
3.10001e+06
3.10001e+06
3.10001e+06
3.10001e+06
3.10001e+06
3.10001e+06
3.10001e+06
3.10001e+06
3.10001e+06
3.10001e+06
3.10001e+06
3.10001e+06
3.10001e+06
3.10001e+06
3.10248e+06
3.10203e+06
3.10214e+06
3.10156e+06
3.10041e+06
3.1001e+06
3.10013e+06
3.10007e+06
3.10003e+06
3.10001e+06
3.10001e+06
3.10001e+06
3.10001e+06
3.10001e+06
3.10001e+06
3.10001e+06
3.10001e+06
3.10001e+06
3.10001e+06
3.10001e+06
3.10001e+06
3.10001e+06
3.10001e+06
3.10201e+06
3.10168e+06
3.10159e+06
3.10155e+06
3.10171e+06
3.10126e+06
3.10019e+06
3.09989e+06
3.10001e+06
3.1e+06
3.10001e+06
3.10001e+06
3.10001e+06
3.10001e+06
3.10001e+06
3.10001e+06
3.10002e+06
3.10002e+06
3.10002e+06
3.10002e+06
3.10001e+06
3.10001e+06
3.10001e+06
3.10213e+06
3.10175e+06
3.10165e+06
3.1017e+06
3.10196e+06
3.10156e+06
3.10049e+06
3.10013e+06
3.10009e+06
3.10003e+06
3.10002e+06
3.10002e+06
3.10002e+06
3.10001e+06
3.10001e+06
3.10001e+06
3.10002e+06
3.10002e+06
3.10002e+06
3.10002e+06
3.10002e+06
3.10001e+06
3.10001e+06
3.10192e+06
3.10165e+06
3.10149e+06
3.10156e+06
3.10157e+06
3.10159e+06
3.10165e+06
3.10122e+06
3.10026e+06
3.09996e+06
3.10002e+06
3.10002e+06
3.10002e+06
3.10001e+06
3.10001e+06
3.10001e+06
3.10002e+06
3.10002e+06
3.10002e+06
3.10002e+06
3.10002e+06
3.10002e+06
3.10001e+06
3.10193e+06
3.10204e+06
3.102e+06
3.10195e+06
3.10168e+06
3.10168e+06
3.1019e+06
3.10144e+06
3.10034e+06
3.09997e+06
3.10004e+06
3.10003e+06
3.10002e+06
3.10002e+06
3.10002e+06
3.10002e+06
3.10002e+06
3.10002e+06
3.10002e+06
3.10002e+06
3.10002e+06
3.10002e+06
3.10002e+06
3.1022e+06
3.1021e+06
3.102e+06
3.10196e+06
3.10163e+06
3.10164e+06
3.1018e+06
3.10136e+06
3.10031e+06
3.09996e+06
3.10003e+06
3.10003e+06
3.10002e+06
3.10002e+06
3.10002e+06
3.10002e+06
3.10002e+06
3.10002e+06
3.10002e+06
3.10002e+06
3.10002e+06
3.10002e+06
3.10002e+06
3.10215e+06
3.10204e+06
3.10195e+06
3.10193e+06
3.10162e+06
3.10164e+06
3.1018e+06
3.10136e+06
3.10031e+06
3.09996e+06
3.10003e+06
3.10003e+06
3.10002e+06
3.10002e+06
3.10002e+06
3.10002e+06
3.10002e+06
3.10002e+06
3.10002e+06
3.10002e+06
3.10002e+06
3.10002e+06
3.10002e+06
3.10206e+06
3.10199e+06
3.10191e+06
3.1019e+06
3.10159e+06
3.10162e+06
3.1018e+06
3.10136e+06
3.10032e+06
3.09996e+06
3.10003e+06
3.10003e+06
3.10003e+06
3.10002e+06
3.10002e+06
3.10002e+06
3.10002e+06
3.10002e+06
3.10002e+06
3.10002e+06
3.10002e+06
3.10002e+06
3.10002e+06
3.10207e+06
3.10204e+06
3.10192e+06
3.10194e+06
3.10164e+06
3.10168e+06
3.10182e+06
3.10137e+06
3.10032e+06
3.09996e+06
3.10004e+06
3.10003e+06
3.10003e+06
3.10002e+06
3.10002e+06
3.10002e+06
3.10002e+06
3.10002e+06
3.10002e+06
3.10002e+06
3.10002e+06
3.10002e+06
3.10002e+06
3.102e+06
3.10194e+06
3.1018e+06
3.10195e+06
3.10199e+06
3.10199e+06
3.10185e+06
3.10134e+06
3.10032e+06
3.09996e+06
3.10004e+06
3.10004e+06
3.10003e+06
3.10003e+06
3.10003e+06
3.10003e+06
3.10003e+06
3.10003e+06
3.10003e+06
3.10002e+06
3.10002e+06
3.10002e+06
3.10002e+06
3.10211e+06
3.10212e+06
3.10189e+06
3.10207e+06
3.10207e+06
3.10209e+06
3.10193e+06
3.1014e+06
3.10034e+06
3.09997e+06
3.10004e+06
3.10004e+06
3.10004e+06
3.10003e+06
3.10003e+06
3.10003e+06
3.10003e+06
3.10003e+06
3.10003e+06
3.10003e+06
3.10002e+06
3.10002e+06
3.10002e+06
3.10177e+06
3.10176e+06
3.10164e+06
3.10192e+06
3.10195e+06
3.1021e+06
3.10223e+06
3.10169e+06
3.10039e+06
3.09996e+06
3.10004e+06
3.10004e+06
3.10004e+06
3.10003e+06
3.10003e+06
3.10003e+06
3.10003e+06
3.10003e+06
3.10003e+06
3.10003e+06
3.10003e+06
3.10002e+06
3.10002e+06
3.10144e+06
3.10087e+06
3.10038e+06
3.10104e+06
3.10184e+06
3.10221e+06
3.1023e+06
3.10175e+06
3.10042e+06
3.09997e+06
3.10005e+06
3.10005e+06
3.10005e+06
3.10004e+06
3.10004e+06
3.10004e+06
3.10004e+06
3.10003e+06
3.10003e+06
3.10003e+06
3.10003e+06
3.10003e+06
3.10002e+06
3.10021e+06
3.10041e+06
3.10019e+06
3.10091e+06
3.10181e+06
3.10219e+06
3.10228e+06
3.10174e+06
3.10042e+06
3.09997e+06
3.10006e+06
3.10005e+06
3.10005e+06
3.10004e+06
3.10004e+06
3.10004e+06
3.10004e+06
3.10004e+06
3.10004e+06
3.10003e+06
3.10003e+06
3.10003e+06
3.10002e+06
3.10024e+06
3.10058e+06
3.10026e+06
3.10099e+06
3.10181e+06
3.10221e+06
3.10229e+06
3.10175e+06
3.10043e+06
3.09998e+06
3.10006e+06
3.10006e+06
3.10006e+06
3.10005e+06
3.10005e+06
3.10005e+06
3.10004e+06
3.10004e+06
3.10004e+06
3.10003e+06
3.10003e+06
3.10003e+06
3.10002e+06
3.10045e+06
3.10062e+06
3.10034e+06
3.10103e+06
3.1019e+06
3.10228e+06
3.10231e+06
3.10176e+06
3.10043e+06
3.09998e+06
3.10007e+06
3.10007e+06
3.10006e+06
3.10006e+06
3.10005e+06
3.10005e+06
3.10005e+06
3.10004e+06
3.10004e+06
3.10004e+06
3.10003e+06
3.10003e+06
3.10003e+06
3.10037e+06
3.1006e+06
3.1003e+06
3.10101e+06
3.10176e+06
3.10218e+06
3.10229e+06
3.10178e+06
3.10045e+06
3.1e+06
3.10008e+06
3.10008e+06
3.10007e+06
3.10006e+06
3.10006e+06
3.10006e+06
3.10005e+06
3.10005e+06
3.10004e+06
3.10004e+06
3.10004e+06
3.10003e+06
3.10003e+06
3.10084e+06
3.10084e+06
3.10072e+06
3.10096e+06
3.10083e+06
3.10132e+06
3.10224e+06
3.10191e+06
3.10048e+06
3.10003e+06
3.10009e+06
3.10008e+06
3.10008e+06
3.10007e+06
3.10007e+06
3.10006e+06
3.10006e+06
3.10005e+06
3.10005e+06
3.10004e+06
3.10004e+06
3.10003e+06
3.10003e+06
3.10099e+06
3.10102e+06
3.10087e+06
3.10102e+06
3.10072e+06
3.10116e+06
3.10207e+06
3.10177e+06
3.10046e+06
3.10004e+06
3.10011e+06
3.1001e+06
3.10009e+06
3.10008e+06
3.10007e+06
3.10007e+06
3.10006e+06
3.10006e+06
3.10005e+06
3.10005e+06
3.10004e+06
3.10003e+06
3.10003e+06
3.10062e+06
3.10063e+06
3.10064e+06
3.10087e+06
3.10091e+06
3.1011e+06
3.10121e+06
3.10097e+06
3.10032e+06
3.10009e+06
3.10012e+06
3.10012e+06
3.1001e+06
3.10008e+06
3.10008e+06
3.10007e+06
3.10007e+06
3.10006e+06
3.10005e+06
3.10005e+06
3.10004e+06
3.10003e+06
3.10003e+06
3.10065e+06
3.09878e+06
3.0982e+06
3.09902e+06
3.10074e+06
3.10119e+06
3.10111e+06
3.10086e+06
3.10033e+06
3.10012e+06
3.10015e+06
3.10014e+06
3.10012e+06
3.1001e+06
3.10009e+06
3.10008e+06
3.10008e+06
3.10007e+06
3.10006e+06
3.10005e+06
3.10004e+06
3.10004e+06
3.10003e+06
3.09828e+06
3.09807e+06
3.09782e+06
3.09873e+06
3.10065e+06
3.10116e+06
3.10114e+06
3.10089e+06
3.10033e+06
3.10012e+06
3.10015e+06
3.10014e+06
3.10012e+06
3.1001e+06
3.1001e+06
3.10009e+06
3.10008e+06
3.10007e+06
3.10006e+06
3.10005e+06
3.10004e+06
3.10004e+06
3.10003e+06
3.09869e+06
3.09846e+06
3.09823e+06
3.09899e+06
3.10083e+06
3.10128e+06
3.10126e+06
3.10098e+06
3.10042e+06
3.10019e+06
3.10021e+06
3.10018e+06
3.10015e+06
3.10013e+06
3.10012e+06
3.1001e+06
3.10009e+06
3.10008e+06
3.10006e+06
3.10005e+06
3.10004e+06
3.10004e+06
3.10003e+06
3.09891e+06
3.09853e+06
3.09825e+06
3.09901e+06
3.10091e+06
3.10134e+06
3.10121e+06
3.10094e+06
3.10038e+06
3.10016e+06
3.10019e+06
3.10017e+06
3.10015e+06
3.10012e+06
3.10011e+06
3.1001e+06
3.10009e+06
3.10008e+06
3.10007e+06
3.10005e+06
3.10004e+06
3.10003e+06
3.10003e+06
3.09902e+06
3.09871e+06
3.09845e+06
3.09913e+06
3.10083e+06
3.10127e+06
3.10132e+06
3.10109e+06
3.1005e+06
3.10027e+06
3.10029e+06
3.10024e+06
3.1002e+06
3.10016e+06
3.10014e+06
3.10012e+06
3.1001e+06
3.10008e+06
3.10007e+06
3.10006e+06
3.10004e+06
3.10003e+06
3.10002e+06
3.09941e+06
3.09903e+06
3.099e+06
3.09895e+06
3.09879e+06
3.09944e+06
3.10109e+06
3.10122e+06
3.10046e+06
3.10023e+06
3.10024e+06
3.1002e+06
3.10017e+06
3.10014e+06
3.10013e+06
3.10011e+06
3.1001e+06
3.10008e+06
3.10007e+06
3.10005e+06
3.10004e+06
3.10003e+06
3.10002e+06
3.09985e+06
3.10006e+06
3.0995e+06
3.0995e+06
3.09878e+06
3.09945e+06
3.10097e+06
3.10119e+06
3.10057e+06
3.10039e+06
3.10038e+06
3.10031e+06
3.10026e+06
3.1002e+06
3.10017e+06
3.10014e+06
3.10011e+06
3.10009e+06
3.10007e+06
3.10005e+06
3.10004e+06
3.10003e+06
3.10002e+06
3.09849e+06
3.09874e+06
3.09879e+06
3.09903e+06
3.09893e+06
3.09909e+06
3.09902e+06
3.09938e+06
3.10014e+06
3.10034e+06
3.10029e+06
3.10024e+06
3.1002e+06
3.10015e+06
3.10014e+06
3.10011e+06
3.1001e+06
3.10008e+06
3.10006e+06
3.10004e+06
3.10003e+06
3.10002e+06
3.10001e+06
3.09801e+06
3.09677e+06
3.0945e+06
3.09642e+06
3.09893e+06
3.0999e+06
3.09917e+06
3.09958e+06
3.10043e+06
3.10065e+06
3.10053e+06
3.10042e+06
3.10034e+06
3.10025e+06
3.1002e+06
3.10015e+06
3.10012e+06
3.10009e+06
3.10006e+06
3.10004e+06
3.10003e+06
3.10001e+06
3.1e+06
3.09263e+06
3.09436e+06
3.09325e+06
3.09534e+06
3.09833e+06
3.09936e+06
3.09881e+06
3.09926e+06
3.10012e+06
3.10039e+06
3.10032e+06
3.10025e+06
3.10021e+06
3.10015e+06
3.10014e+06
3.10011e+06
3.10009e+06
3.10006e+06
3.10005e+06
3.10003e+06
3.10001e+06
3.1e+06
3.09999e+06
3.09426e+06
3.09666e+06
3.09499e+06
3.09704e+06
3.09957e+06
3.10053e+06
3.09978e+06
3.1001e+06
3.10081e+06
3.10093e+06
3.10075e+06
3.10056e+06
3.10044e+06
3.1003e+06
3.10024e+06
3.10016e+06
3.10012e+06
3.10007e+06
3.10004e+06
3.10002e+06
3.1e+06
3.09999e+06
3.09998e+06
3.09351e+06
3.0952e+06
3.094e+06
3.09593e+06
3.09883e+06
3.09971e+06
3.09897e+06
3.09932e+06
3.10018e+06
3.10038e+06
3.10034e+06
3.10022e+06
3.1002e+06
3.10012e+06
3.10011e+06
3.10007e+06
3.10005e+06
3.10003e+06
3.10001e+06
3.09999e+06
3.09998e+06
3.09998e+06
3.09997e+06
3.09622e+06
3.09775e+06
3.09675e+06
3.09815e+06
3.10077e+06
3.10122e+06
3.10066e+06
3.10069e+06
3.10137e+06
3.10126e+06
3.10105e+06
3.1007e+06
3.10055e+06
3.10033e+06
3.10025e+06
3.10014e+06
3.10009e+06
3.10003e+06
3.1e+06
3.09998e+06
3.09997e+06
3.09996e+06
3.09996e+06
3.09523e+06
3.09533e+06
3.09596e+06
3.09551e+06
3.09519e+06
3.09579e+06
3.09886e+06
3.09954e+06
3.10023e+06
3.10021e+06
3.10028e+06
3.10007e+06
3.10011e+06
3.09999e+06
3.10002e+06
3.09997e+06
3.09998e+06
3.09995e+06
3.09995e+06
3.09994e+06
3.09994e+06
3.09994e+06
3.09994e+06
3.1006e+06
3.09948e+06
3.10114e+06
3.0994e+06
3.09927e+06
3.0986e+06
3.10155e+06
3.10139e+06
3.1022e+06
3.10162e+06
3.10143e+06
3.10079e+06
3.10064e+06
3.10029e+06
3.10021e+06
3.10006e+06
3.10001e+06
3.09995e+06
3.09994e+06
3.09992e+06
3.09992e+06
3.09991e+06
3.09992e+06
3.09866e+06
3.0954e+06
3.09833e+06
3.09509e+06
3.09661e+06
3.09408e+06
3.09524e+06
3.09507e+06
3.09951e+06
3.09966e+06
3.10002e+06
3.09959e+06
3.09985e+06
3.09969e+06
3.09982e+06
3.09978e+06
3.09983e+06
3.09983e+06
3.09985e+06
3.09986e+06
3.09987e+06
3.09988e+06
3.0999e+06
3.11355e+06
3.11026e+06
3.11682e+06
3.1088e+06
3.10681e+06
3.10009e+06
3.10111e+06
3.09861e+06
3.10307e+06
3.10187e+06
3.10185e+06
3.10062e+06
3.10062e+06
3.10009e+06
3.10008e+06
3.09988e+06
3.09988e+06
3.09983e+06
3.09984e+06
3.09983e+06
3.09985e+06
3.09986e+06
3.09988e+06
3.11261e+06
3.10154e+06
3.11012e+06
3.09883e+06
3.09979e+06
3.09038e+06
3.09548e+06
3.09195e+06
3.09909e+06
3.09789e+06
3.09946e+06
3.09857e+06
3.09938e+06
3.09914e+06
3.09949e+06
3.09947e+06
3.09963e+06
3.09966e+06
3.09973e+06
3.09976e+06
3.0998e+06
3.09983e+06
3.09985e+06
3.14242e+06
3.12561e+06
3.13652e+06
3.11915e+06
3.12058e+06
3.10227e+06
3.10705e+06
3.09812e+06
3.10479e+06
3.10085e+06
3.10197e+06
3.09982e+06
3.10032e+06
3.09958e+06
3.09977e+06
3.09958e+06
3.09967e+06
3.09965e+06
3.09971e+06
3.09974e+06
3.09978e+06
3.0998e+06
3.09983e+06
3.13158e+06
3.1075e+06
3.12495e+06
3.09719e+06
3.10652e+06
3.07655e+06
3.09595e+06
3.0837e+06
3.09812e+06
3.09399e+06