/*--------------------------------*- C++ -*----------------------------------*\
| =========                 |                                                 |
| \\      /  F ield         | OpenFOAM: The Open Source CFD Toolbox           |
|  \\    /   O peration     | Version:  v2012                                 |
|   \\  /    A nd           | Website:  www.openfoam.com                      |
|    \\/     M anipulation  |                                                 |
\*---------------------------------------------------------------------------*/
FoamFile
{
    version     2.0;
    format      ascii;
    class       surfaceScalarField;
    location    "0.5";
    object      phi;
}
// * * * * * * * * * * * * * * * * * * * * * * * * * * * * * * * * * * * * * //

dimensions      [0 3 -1 0 0 0 0];
oriented        oriented;


internalField   nonuniform List<scalar> 
6347
(
1.62356e-13
-3.49911e-12
-4.6012e-16
3.88946e-13
-6.276e-12
-2.86126e-15
7.03935e-13
-9.40026e-12
4.34157e-15
1.15486e-12
-1.28755e-11
-3.24095e-15
1.70975e-12
-1.67269e-11
1.39652e-15
2.40761e-12
-2.09362e-11
-3.33435e-16
3.24958e-12
-2.55534e-11
-9.22302e-16
4.22626e-12
-3.05682e-11
8.76848e-16
5.3757e-12
-3.59996e-11
-1.24726e-15
6.68318e-12
-4.18559e-11
4.58886e-16
8.16753e-12
-4.81366e-11
-1.09873e-15
9.83176e-12
-5.48631e-11
1.18209e-16
1.16799e-11
-6.20129e-11
-4.56758e-16
1.37146e-11
-6.96031e-11
-2.28249e-16
1.59311e-11
-7.76008e-11
-3.52729e-17
-8.60022e-11
-4.32509e-16
4.18376e-14
-1.12034e-12
4.27385e-18
1.74396e-13
-3.63215e-12
2.37014e-16
4.0981e-13
-6.51173e-12
2.41374e-16
7.53746e-13
-9.74158e-12
-8.3163e-16
1.22005e-12
-1.33445e-11
5.90157e-16
1.81466e-12
-1.73209e-11
5.16093e-18
2.56018e-12
-2.16802e-11
-6.49754e-17
3.44961e-12
-2.64446e-11
1.94904e-16
4.50355e-12
-3.16218e-11
-1.04302e-15
5.72279e-12
-3.72207e-11
6.34014e-16
7.12267e-12
-4.32548e-11
-9.74664e-16
8.70317e-12
-4.97193e-11
1.43044e-16
1.04748e-11
-5.66349e-11
-7.41707e-16
1.24356e-11
-6.39758e-11
-1.96119e-16
1.45909e-11
-7.17594e-11
-3.11485e-16
1.69394e-11
-7.99493e-11
-3.5128e-16
1.94748e-11
-8.85382e-11
-7.87718e-18
-9.7496e-11
-2.18476e-16
4.49361e-14
-1.16509e-12
-9.79832e-17
1.87127e-13
-3.77385e-12
-2.15088e-16
4.36231e-13
-6.76073e-12
-4.53025e-17
8.04376e-13
-1.01115e-11
1.29155e-15
1.30542e-12
-1.38439e-11
-1.23499e-15
1.94175e-12
-1.79578e-11
1.59667e-16
2.73074e-12
-2.24698e-11
6.72693e-16
3.68099e-12
-2.73934e-11
-1.21078e-15
4.798e-12
-3.27413e-11
9.19911e-16
6.10028e-12
-3.85211e-11
-1.3387e-15
7.58503e-12
-4.47418e-11
6.68704e-16
9.27057e-12
-5.14028e-11
-9.09358e-16
1.11513e-11
-5.85165e-11
3.30862e-16
1.32378e-11
-6.6063e-11
-6.58117e-16
1.55242e-11
-7.40466e-11
-1.14871e-16
1.80133e-11
-8.24383e-11
-1.81663e-16
2.06957e-11
-9.12209e-11
-1.59237e-16
2.35647e-11
-1.00365e-10
-1.29103e-16
-1.09834e-10
-2.23026e-18
4.80593e-14
-1.21303e-12
-7.17984e-17
1.99596e-13
-3.92568e-12
1.66726e-16
4.66542e-13
-7.02754e-12
2.38877e-17
8.64151e-13
-1.05074e-11
-3.42066e-16
1.39508e-12
-1.43768e-11
6.0722e-16
2.0741e-12
-1.86361e-11
-3.93828e-16
2.91873e-12
-2.33139e-11
-7.53462e-17
3.92958e-12
-2.8406e-11
4.93322e-16
5.12664e-12
-3.39366e-11
-9.85467e-16
6.51229e-12
-3.99087e-11
5.37492e-16
8.09884e-12
-4.63276e-11
-9.29622e-16
9.89065e-12
-5.31957e-11
4.31038e-16
1.18946e-11
-6.0519e-11
-6.78241e-16
1.41086e-11
-6.82788e-11
1.30283e-16
1.65361e-11
-7.6474e-11
-4.93339e-16
1.91716e-11
-8.50743e-11
6.89537e-17
2.20095e-11
-9.40587e-11
-3.16173e-16
2.50385e-11
-1.03394e-10
1.01314e-16
-1.13039e-10
-1.79128e-16
5.15832e-14
-1.26434e-12
-1.432e-16
2.15e-13
-4.08837e-12
-3.21157e-16
4.99755e-13
-7.31222e-12
-1.13018e-16
9.24417e-13
-1.09345e-11
1.53492e-15
1.49783e-12
-1.49489e-11
-1.31506e-15
2.22789e-12
-1.9368e-11
1.11317e-16
3.1311e-12
-2.4218e-11
6.38878e-16
4.21423e-12
-2.94868e-11
-1.33753e-15
5.48654e-12
-3.52106e-11
1.14747e-15
6.96547e-12
-4.13856e-11
-1.21555e-15
8.65057e-12
-4.80146e-11
7.40431e-16
1.05591e-11
-5.51025e-11
-8.78054e-16
1.26867e-11
-6.26472e-11
4.74286e-16
1.50401e-11
-7.06319e-11
-6.56624e-16
1.76145e-11
-7.90492e-11
2.68382e-16
2.0409e-11
-8.78679e-11
-4.27377e-16
2.34112e-11
-9.70616e-11
2.00309e-16
2.66123e-11
-1.06594e-10
-2.84885e-16
-1.16418e-10
2.37044e-16
5.50118e-14
-1.31937e-12
-7.33679e-19
2.28953e-13
-4.26239e-12
7.52411e-17
5.35011e-13
-7.61779e-12
-8.53625e-17
9.86388e-13
-1.13858e-11
-4.60425e-16
1.59341e-12
-1.55577e-11
1.03229e-15
2.37867e-12
-2.01472e-11
-5.4266e-16
3.33944e-12
-2.51819e-11
-3.83495e-16
4.49676e-12
-3.0646e-11
1.26126e-15
5.86503e-12
-3.65766e-11
-1.48454e-15
7.44393e-12
-4.29656e-11
7.84516e-16
9.24899e-12
-4.98187e-11
-6.79046e-16
1.12817e-11
-5.71355e-11
4.13141e-16
1.355e-11
-6.49144e-11
-5.31793e-16
1.60499e-11
-7.31335e-11
2.57489e-16
1.87847e-11
-8.1783e-11
-5.09957e-16
2.17446e-11
-9.08284e-11
3.4612e-16
2.49223e-11
-1.00238e-10
-4.06099e-16
2.83013e-11
-1.09973e-10
3.24021e-16
-1.1998e-10
-2.67299e-16
5.91374e-14
-1.37848e-12
-2.50964e-17
2.46149e-13
-4.44918e-12
-5.31505e-17
5.75026e-13
-7.94586e-12
-3.54774e-16
1.05391e-12
-1.18674e-11
8.46393e-16
1.71039e-12
-1.62142e-11
2.78792e-17
2.5549e-12
-2.09866e-11
-8.0063e-16
3.58422e-12
-2.62159e-11
-4.94983e-16
4.82552e-12
-3.18897e-11
1.66591e-16
6.28142e-12
-3.80348e-11
3.47437e-16
7.96836e-12
-4.46509e-11
-8.09334e-16
9.89043e-12
-5.17418e-11
4.76536e-16
1.2057e-11
-5.93006e-11
-4.48824e-16
1.44697e-11
-6.73276e-11
3.59204e-16
1.71293e-11
-7.57929e-11
-5.58255e-16
2.00313e-11
-8.46857e-11
3.97494e-16
2.31716e-11
-9.39674e-11
-4.50564e-16
2.65341e-11
-1.03601e-10
4.13885e-16
3.01059e-11
-1.13543e-10
-3.72682e-16
-1.23736e-10
3.72228e-16
6.36868e-14
-1.44167e-12
-2.5713e-16
2.63041e-13
-4.64775e-12
-3.05334e-16
6.13931e-13
-8.29636e-12
-1.16661e-17
1.13609e-12
-1.23926e-11
1.1709e-15
1.83794e-12
-1.69145e-11
-7.15195e-16
2.7333e-12
-2.18812e-11
-2.74886e-16
3.83109e-12
-2.73158e-11
1.75223e-15
5.16988e-12
-3.3216e-11
-9.48326e-16
6.72683e-12
-3.9596e-11
-9.13922e-16
8.5323e-12
-4.64584e-11
1.04699e-15
1.05895e-11
-5.37978e-11
-9.21526e-16
1.29004e-11
-6.16134e-11
4.39503e-16
1.54738e-11
-6.98996e-11
-5.18127e-16
1.83029e-11
-7.86236e-11
4.28513e-16
2.13868e-11
-8.77685e-11
-5.50565e-16
2.4715e-11
-9.72962e-11
5.36164e-16
2.82754e-11
-1.07161e-10
-4.80495e-16
3.20459e-11
-1.17314e-10
4.45004e-16
-1.27693e-10
-3.55801e-16
6.73993e-14
-1.51006e-12
4.95301e-16
2.84316e-13
-4.86555e-12
5.24129e-16
6.65463e-13
-8.67727e-12
-4.31971e-18
1.21903e-12
-1.29451e-11
-9.56774e-16
1.96604e-12
-1.76622e-11
-2.40493e-16
2.92898e-12
-2.28451e-11
1.18733e-15
4.11309e-12
-2.84989e-11
-8.88664e-16
5.54295e-12
-3.46387e-11
5.61971e-16
7.20593e-12
-4.1264e-11
-1.06512e-15
9.13356e-12
-4.83872e-11
7.22511e-16
1.13298e-11
-5.59932e-11
-4.62593e-16
1.37979e-11
-6.40817e-11
-1.03492e-16
1.65387e-11
-7.26405e-11
4.05921e-16
1.95516e-11
-8.16358e-11
-6.48594e-16
2.28287e-11
-9.10467e-11
6.52343e-16
2.6364e-11
-1.0083e-10
-6.36881e-16
3.0134e-11
-1.10932e-10
6.10393e-16
3.41215e-11
-1.21301e-10
-5.25073e-16
-1.31866e-10
4.95863e-16
7.28462e-14
-1.58338e-12
2.47474e-16
3.04797e-13
-5.09771e-12
2.79011e-16
7.11751e-13
-9.08466e-12
3.8133e-16
1.31598e-12
-1.35483e-11
-7.6777e-16
2.11634e-12
-1.84638e-11
-1.01806e-16
3.14923e-12
-2.38765e-11
3.38936e-16
4.41827e-12
-2.97688e-11
2.60382e-16
5.95098e-12
-3.61644e-11
2.79288e-16
7.73688e-12
-4.30545e-11
-1.65136e-15
9.80132e-12
-5.04536e-11
1.45293e-15
1.21532e-11
-5.83428e-11
-1.25853e-15
1.4787e-11
-6.67174e-11
9.19311e-16
1.77136e-11
-7.55643e-11
-8.07936e-16
2.09209e-11
-8.48447e-11
9.56634e-16
2.44093e-11
-9.4533e-11
-8.81347e-16
2.81555e-11
-1.04578e-10
8.28637e-16
3.2149e-11
-1.14923e-10
-7.14479e-16
3.63579e-11
-1.25511e-10
6.226e-16
-1.36263e-10
-4.87433e-16
7.87003e-14
-1.66246e-12
2.07833e-16
3.28142e-13
-5.34755e-12
2.6804e-16
7.65475e-13
-9.52178e-12
1.17548e-16
1.40973e-12
-1.4193e-11
-1.78993e-16
2.27323e-12
-1.93268e-11
-7.90259e-16
3.37996e-12
-2.49835e-11
1.18031e-15
4.74276e-12
-3.11306e-11
-4.52001e-16
6.3868e-12
-3.78016e-11
-1.07862e-17
8.29766e-12
-4.49719e-11
-6.79947e-16
1.05109e-11
-5.26668e-11
1.70653e-16
1.30239e-11
-6.08569e-11
7.19253e-18
1.58424e-11
-6.95348e-11
-7.53157e-16
1.8962e-11
-7.86852e-11
1.02711e-15
2.23845e-11
-8.82647e-11
-1.04984e-15
2.60927e-11
-9.82431e-11
1.08876e-15
3.00756e-11
-1.08559e-10
-1.02336e-15
3.43045e-11
-1.19154e-10
8.8661e-16
3.87566e-11
-1.29961e-10
-7.32633e-16
-1.40897e-10
6.12826e-16
8.49788e-14
-1.74782e-12
2.03658e-16
3.53793e-13
-5.61701e-12
4.573e-16
8.2698e-13
-9.99496e-12
1.5575e-16
1.52623e-12
-1.48912e-11
-1.04101e-15
2.4498e-12
-2.0252e-11
2.93095e-16
3.62976e-12
-2.61617e-11
4.97241e-17
5.1063e-12
-3.26077e-11
5.31823e-16
6.87181e-12
-3.9559e-11
2.20289e-17
8.92801e-12
-4.70323e-11
-1.47956e-15
1.12973e-11
-5.50389e-11
1.60847e-15
1.39943e-11
-6.35508e-11
-1.75644e-15
1.70044e-11
-7.25478e-11
1.50983e-15
2.03433e-11
-8.20205e-11
-1.44045e-15
2.39855e-11
-9.19097e-11
1.38773e-15
2.79361e-11
-1.02191e-10
-1.29195e-15
3.21605e-11
-1.12785e-10
1.11506e-15
3.66444e-11
-1.23636e-10
-9.64262e-16
4.13441e-11
-1.34663e-10
8.04969e-16
4.62266e-11
-1.45778e-10
-6.15206e-16
5.12377e-11
-1.56879e-10
5.22418e-16
5.63274e-11
-1.6786e-10
-3.28608e-16
6.14307e-11
-1.78622e-10
3.65793e-16
-1.89022e-10
-1.29683e-16
9.18654e-14
-1.83986e-12
9.94344e-17
3.80713e-13
-5.90579e-12
5.00333e-17
8.81649e-13
-1.04957e-11
1.67126e-16
1.63411e-12
-1.56448e-11
2.15789e-16
2.64488e-12
-2.12615e-11
-1.05145e-15
3.9555e-12
-2.7474e-11
2.07063e-15
5.54534e-12
-3.41947e-11
-1.6893e-15
7.41901e-12
-4.14282e-11
8.34889e-16
9.62569e-12
-4.92452e-11
-1.30566e-15
1.2169e-11
-5.75823e-11
6.26482e-16
1.5051e-11
-6.64327e-11
5.20188e-17
1.82733e-11
-7.57684e-11
-9.06282e-16
2.18331e-11
-8.5582e-11
1.2582e-15
2.57237e-11
-9.57978e-11
-1.35937e-15
2.99221e-11
-1.06392e-10
1.24063e-15
3.44139e-11
-1.17275e-10
-1.23636e-15
3.91601e-11
-1.28384e-10
1.01259e-15
4.41297e-11
-1.3963e-10
-8.42208e-16
4.92696e-11
-1.50919e-10
6.83102e-16
5.45316e-11
-1.6214e-10
-5.02961e-16
5.98505e-11
-1.73179e-10
4.49842e-16
6.51629e-11
-1.83933e-10
-2.45621e-16
-1.94254e-10
3.22855e-16
9.96259e-14
-1.93981e-12
1.67752e-16
4.16012e-13
-6.22211e-12
9.24459e-17
9.7514e-13
-1.10548e-11
7.45749e-17
1.78575e-12
-1.64555e-11
2.43231e-16
2.86e-12
-2.23371e-11
1.20951e-16
4.24021e-12
-2.88549e-11
-1.6264e-15
5.90216e-12
-3.58574e-11
2.22779e-15
7.9315e-12
-4.34478e-11
-5.34737e-16
1.03346e-11
-5.16556e-11
-6.0901e-16
1.30741e-11
-6.03248e-11
2.01621e-16
1.61787e-11
-6.95346e-11
-9.7018e-16
1.96363e-11
-7.92288e-11
1.11494e-15
2.34548e-11
-8.93975e-11
-1.30613e-15
2.76063e-11
-9.99517e-11
1.27196e-15
3.20865e-11
-1.10869e-10
-1.2887e-15
3.68555e-11
-1.22047e-10
1.12344e-15
4.18899e-11
-1.33416e-10
-1.0308e-15
4.71361e-11
-1.44878e-10
8.40906e-16
5.25501e-11
-1.56332e-10
-6.84006e-16
5.80662e-11
-1.67657e-10
5.37305e-16
6.36224e-11
-1.78734e-10
-3.92525e-16
6.91419e-11
-1.89454e-10
3.63332e-16
-1.99661e-10
-1.73992e-16
1.08013e-13
-2.04774e-12
-3.10445e-17
4.45869e-13
-6.56079e-12
4.56307e-16
1.03882e-12
-1.16478e-11
1.87774e-16
1.91276e-12
-1.73279e-11
-4.65584e-16
3.08457e-12
-2.35112e-11
6.82889e-16
4.60847e-12
-3.03808e-11
-4.18214e-16
6.46948e-12
-3.77119e-11
-1.06016e-15
8.71456e-12
-4.56886e-11
3.15341e-15
1.12902e-11
-5.42359e-11
-1.92855e-15
1.41857e-11
-6.32227e-11
5.24457e-16
1.74908e-11
-7.28377e-11
-4.80502e-16
2.11822e-11
-8.29202e-11
6.41787e-17
2.52506e-11
-9.34662e-11
5.38506e-16
2.96805e-11
-1.0438e-10
-9.44094e-16
3.4443e-11
-1.15634e-10
1.04215e-15
3.9513e-11
-1.27115e-10
-1.13677e-15
4.48412e-11
-1.38746e-10
9.53679e-16
5.03853e-11
-1.50421e-10
-8.42219e-16
5.60793e-11
-1.62027e-10
6.38677e-16
6.18625e-11
-1.73439e-10
-5.39651e-16
6.76569e-11
-1.84529e-10
4.41253e-16
7.33862e-11
-1.95182e-10
-2.54522e-16
-2.05239e-10
3.04939e-16
1.18424e-13
-2.16498e-12
-6.10769e-16
4.85967e-13
-6.92853e-12
4.58572e-17
1.12605e-12
-1.229e-11
9.91617e-16
2.08268e-12
-1.82847e-11
5.97796e-16
3.3645e-12
-2.47902e-11
-1.80903e-15
4.98136e-12
-3.2001e-11
1.99351e-15
6.93277e-12
-3.96678e-11
9.30972e-16
9.26088e-12
-4.80116e-11
-3.59268e-15
1.2002e-11
-5.69786e-11
5.24208e-17
1.52088e-11
-6.64331e-11
1.50841e-15
1.88012e-11
-7.64271e-11
-1.00758e-15
2.27869e-11
-8.69093e-11
-8.59158e-17
2.71641e-11
-9.7841e-11
-4.43031e-16
3.19089e-11
-1.09126e-10
7.24797e-16
3.69993e-11
-1.20722e-10
-1.07687e-15
4.23904e-11
-1.32508e-10
9.35401e-16
4.80441e-11
-1.44398e-10
-9.5358e-16
5.38964e-11
-1.56274e-10
7.66341e-16
5.98884e-11
-1.68018e-10
-6.81888e-16
6.59416e-11
-1.79494e-10
5.01819e-16
7.19799e-11
-1.90566e-10
-3.80867e-16
7.79135e-11
-2.01116e-10
3.73193e-16
-2.1098e-10
-1.80503e-16
1.26069e-13
-2.29248e-12
6.56173e-16
5.28921e-13
-7.33183e-12
4.27331e-16
1.23902e-12
-1.2999e-11
-3.52553e-17
2.26472e-12
-1.93078e-11
-1.16178e-15
3.64968e-12
-2.61779e-11
1.8485e-15
5.38655e-12
-3.3739e-11
4.16124e-16
7.55924e-12
-4.18394e-11
-8.77042e-16
1.0153e-11
-5.06051e-11
1.25093e-16
1.31109e-11
-5.99323e-11
-2.21176e-15
1.65153e-11
-6.98437e-11
2.98177e-15
2.03601e-11
-8.02677e-11
-1.87553e-15
2.46268e-11
-9.11786e-11
4.29474e-17
2.93081e-11
-1.02521e-10
4.82936e-16
3.43785e-11
-1.14196e-10
-8.43525e-16
3.97996e-11
-1.26145e-10
7.95393e-16
4.55332e-11
-1.3824e-10
-1.02102e-15
5.15191e-11
-1.50386e-10
8.00002e-16
5.76995e-11
-1.62453e-10
-7.84964e-16
6.39947e-11
-1.74315e-10
5.63918e-16
7.03284e-11
-1.85827e-10
-5.51599e-16
7.66083e-11
-1.96847e-10
4.16015e-16
8.27439e-11
-2.07251e-10
-2.59942e-16
-2.16873e-10
2.83619e-16
1.38732e-13
-2.43128e-12
-3.63431e-17
5.76251e-13
-7.76972e-12
1.88938e-16
1.34248e-12
-1.37661e-11
7.91415e-16
2.45763e-12
-2.04222e-11
-2.78738e-16
3.96164e-12
-2.76821e-11
4.78982e-16
5.85916e-12
-3.5638e-11
5.23034e-16
8.19195e-12
-4.41732e-11
2.45663e-16
1.09714e-11
-5.33817e-11
-1.55764e-15
1.41951e-11
-6.31565e-11
-6.83596e-16
1.78789e-11
-7.35313e-11
1.62243e-15
2.20286e-11
-8.44141e-11
-1.3453e-15
2.66203e-11
-9.57737e-11
4.26398e-16
3.16482e-11
-1.07546e-10
-7.03008e-16
3.7072e-11
-1.19621e-10
8.22397e-16
4.28606e-11
-1.31932e-10
-1.06819e-15
4.89552e-11
-1.44337e-10
8.34968e-16
5.53014e-11
-1.5673e-10
-9.24046e-16
6.18197e-11
-1.68973e-10
7.07356e-16
6.84335e-11
-1.80928e-10
-7.03072e-16
7.50479e-11
-1.92442e-10
4.42291e-16
8.15707e-11
-2.03368e-10
-3.91865e-16
8.78973e-11
-2.13578e-10
3.59973e-16
-2.22902e-10
-1.94292e-16
1.51638e-13
-2.58274e-12
-1.66302e-16
6.26492e-13
-8.24537e-12
4.33169e-16
1.45704e-12
-1.45978e-11
9.29869e-16
2.674e-12
-2.16364e-11
-9.587e-16
4.30663e-12
-2.93151e-11
5.89646e-16
6.36591e-12
-3.77002e-11
1.00768e-15
8.89964e-12
-4.67058e-11
-6.68993e-16
1.19059e-11
-5.63864e-11
-5.6721e-16
1.54051e-11
-6.66538e-11
-1.50874e-15
1.93872e-11
-7.75177e-11
2.0937e-15
2.38682e-11
-8.88918e-11
-1.15165e-15
2.88153e-11
-1.00722e-10
-4.60209e-16
3.42148e-11
-1.12945e-10
7.538e-16
4.00275e-11
-1.25433e-10
-1.04854e-15
4.62042e-11
-1.3811e-10
8.35274e-16
5.26912e-11
-1.50822e-10
-1.06558e-15
5.94112e-11
-1.63452e-10
7.58043e-16
6.62887e-11
-1.75848e-10
-7.89854e-16
7.32256e-11
-1.87867e-10
5.19863e-16
8.01276e-11
-1.99343e-10
-5.73217e-16
8.6886e-11
-2.10127e-10
4.12522e-16
9.33948e-11
-2.20086e-10
-2.52763e-16
-2.2905e-10
2.73674e-16
1.65307e-13
-2.74833e-12
6.8032e-17
6.84947e-13
-8.76585e-12
3.83946e-16
1.59351e-12
-1.5507e-11
5.85599e-16
2.9198e-12
-2.29613e-11
-4.93587e-16
4.69833e-12
-3.10941e-11
3.80544e-16
6.94264e-12
-3.99451e-11
2.17527e-17
9.70251e-12
-4.94675e-11
7.58028e-16
1.2973e-11
-5.96525e-11
-2.01076e-15
1.67711e-11
-7.04512e-11
-4.74384e-16
2.10842e-11
-8.18342e-11
1.85921e-15
2.59262e-11
-9.3729e-11
-1.78118e-15
3.12534e-11
-1.06054e-10
6.79244e-16
3.70595e-11
-1.18747e-10
-9.31784e-16
4.32831e-11
-1.31659e-10
9.16239e-16
4.98829e-11
-1.44708e-10
-1.27189e-15
5.67784e-11
-1.5772e-10
8.78302e-16
6.3898e-11
-1.7057e-10
-1.02854e-15
7.11416e-11
-1.83093e-10
6.60122e-16
7.84131e-11
-1.95137e-10
-7.07463e-16
8.55978e-11
-2.06529e-10
4.38063e-16
9.25859e-11
-2.17114e-10
-3.76763e-16
9.92571e-11
-2.26757e-10
3.71148e-16
-2.3529e-10
-2.06704e-16
1.82238e-13
-2.92989e-12
-4.18887e-16
7.50485e-13
-9.33533e-12
6.27515e-16
1.73914e-12
-1.64978e-11
1.24807e-15
3.19156e-12
-2.4409e-11
-2.03455e-15
5.13305e-12
-3.30383e-11
1.56975e-15
7.58655e-12
-4.24017e-11
1.79494e-15
1.05962e-11
-5.24722e-11
-3.02738e-15
1.41402e-11
-6.32001e-11
1.30547e-15
1.82663e-11
-7.45743e-11
-3.02088e-15
2.29423e-11
-8.65159e-11
2.75966e-15
2.81802e-11
-9.89638e-11
-1.5878e-15
3.39353e-11
-1.11811e-10
-4.26402e-16
4.01809e-11
-1.24993e-10
6.59369e-16
4.68622e-11
-1.38339e-10
-1.27628e-15
5.39091e-11
-1.51758e-10
9.49872e-16
6.12495e-11
-1.65058e-10
-1.16549e-15
6.87834e-11
-1.78106e-10
7.39784e-16
7.64137e-11
-1.90722e-10
-8.40053e-16
8.40205e-11
-2.02746e-10
4.95254e-16
9.14885e-11
-2.13997e-10
-6.04197e-16
9.86907e-11
-2.24316e-10
3.98896e-16
1.05505e-10
-2.33571e-10
-2.60679e-16
-2.41594e-10
2.61944e-16
1.9941e-13
-3.12908e-12
-1.76006e-16
8.253e-13
-9.96095e-12
-2.39828e-16
1.92058e-12
-1.75939e-11
5.48535e-16
3.5148e-12
-2.60043e-11
9.37411e-16
5.65191e-12
-3.51714e-11
-1.62974e-15
8.32895e-12
-4.50826e-11
1.49842e-15
1.15923e-11
-5.57402e-11
3.5979e-15
1.54722e-11
-6.7067e-11
-5.93809e-15
1.99603e-11
-7.90685e-11
2.78425e-15
2.50449e-11
-9.16006e-11
-3.80555e-16
3.07197e-11
-1.04637e-10
-5.95993e-16
3.69354e-11
-1.1803e-10
-2.13876e-16
4.36628e-11
-1.31717e-10
-5.70145e-16
5.08239e-11
-1.45502e-10
9.65553e-16
5.83553e-11
-1.59288e-10
-1.40248e-15
6.61558e-11
-1.72861e-10
9.10932e-16
7.41284e-11
-1.86078e-10
-1.03246e-15
8.21484e-11
-1.98744e-10
6.55491e-16
9.00959e-11
-2.10692e-10
-7.11625e-16
9.78336e-11
-2.21736e-10
4.07791e-16
1.05233e-10
-2.31714e-10
-3.72105e-16
1.12159e-10
-2.40497e-10
3.73513e-16
-2.47923e-10
-2.20115e-16
2.21397e-13
-3.3487e-12
-9.45222e-16
9.07673e-13
-1.0649e-11
7.43274e-16
2.1034e-12
-1.87918e-11
1.08084e-15
3.85568e-12
-2.77516e-11
-2.45016e-15
6.1845e-12
-3.75041e-11
2.51868e-15
9.12606e-12
-4.80278e-11
1.66738e-15
1.27169e-11
-5.93304e-11
4.8422e-16
1.69694e-11
-7.13148e-11
-2.04774e-15
2.18731e-11
-8.39671e-11
-2.55458e-15
2.73871e-11
-9.7123e-11
3.95248e-15
3.35414e-11
-1.10785e-10
-2.76799e-15
4.02609e-11
-1.24754e-10
4.16048e-16
4.75077e-11
-1.38962e-10
2.98018e-17
5.51995e-11
-1.53194e-10
-6.26983e-16
6.32437e-11
-1.67334e-10
4.10644e-16
7.15416e-11
-1.81157e-10
-9.56948e-16
7.99649e-11
-1.94503e-10
6.60202e-16
8.83894e-11
-2.07167e-10
-8.09532e-16
9.66695e-11
-2.18974e-10
5.11099e-16
1.04667e-10
-2.29732e-10
-5.87589e-16
1.12235e-10
-2.39283e-10
4.19666e-16
1.19239e-10
-2.475e-10
-2.4457e-16
-2.5423e-10
2.62789e-16
2.42684e-13
-3.59075e-12
-3.30323e-16
1.00047e-12
-1.14077e-11
4.10944e-16
2.31545e-12
-2.01108e-11
1.9693e-15
4.24762e-12
-2.96813e-11
-9.78321e-16
6.83431e-12
-4.00847e-11
-2.19178e-15
1.0077e-11
-5.12746e-11
2.51219e-15
1.4015e-11
-6.32665e-11
-7.31597e-16
1.86399e-11
-7.5941e-11
2.6373e-16
2.39702e-11
-8.93018e-11
2.04534e-15
3.00114e-11
-1.0316e-10
-2.64914e-15
3.66901e-11
-1.17467e-10
1.86492e-15
4.39747e-11
-1.32038e-10
-1.97556e-15
5.17915e-11
-1.46777e-10
4.34108e-16
6.00504e-11
-1.61454e-10
1.63348e-16
6.86493e-11
-1.75932e-10
-8.32229e-16
7.74622e-11
-1.89972e-10
7.25766e-16
8.63572e-11
-2.03397e-10
-9.13814e-16
9.51834e-11
-2.15994e-10
6.14824e-16
1.03792e-10
-2.27581e-10
-6.63036e-16
1.12022e-10
-2.37964e-10
4.05931e-16
1.19727e-10
-2.46986e-10
-3.27479e-16
1.26759e-10
-2.54531e-10
3.95118e-16
-2.60459e-10
-2.14987e-16
2.66982e-13
-3.85924e-12
7.26429e-16
1.10838e-12
-1.22476e-11
-8.5494e-16
2.5825e-12
-2.1575e-11
-4.84364e-15
4.70965e-12
-3.18144e-11
3.55463e-15
7.52977e-12
-4.292e-11
7.63285e-15
1.11146e-11
-5.48434e-11
-8.01783e-15
1.54477e-11
-6.76056e-11
3.82154e-15
2.05445e-11
-8.10414e-11
9.05272e-16
2.63936e-11
-9.51444e-11
-2.42879e-15
3.29679e-11
-1.09739e-10
2.24306e-15
4.0238e-11
-1.24734e-10
-1.4713e-15
4.81277e-11
-1.39931e-10
-1.5813e-16
5.65643e-11
-1.55212e-10
-5.24769e-19
6.54372e-11
-1.70326e-10
-3.60476e-16
7.46214e-11
-1.85118e-10
1.97434e-16
8.39809e-11
-1.99329e-10
-5.30888e-16
9.33544e-11
-2.12772e-10
4.39664e-16
1.02586e-10
-2.25224e-10
-6.24491e-16
1.115e-10
-2.36498e-10
4.42379e-16
1.19936e-10
-2.46399e-10
-5.27491e-16
1.2773e-10
-2.5478e-10
4.31356e-16
1.34736e-10
-2.61536e-10
-2.11534e-16
-2.66542e-10
2.89529e-16
2.96167e-13
-4.15703e-12
8.71105e-16
1.22973e-12
-1.31798e-11
-5.89935e-16
2.85872e-12
-2.31966e-11
-3.55336e-15
5.20578e-12
-3.41674e-11
3.76245e-15
8.33296e-12
-4.60551e-11
4.44483e-15
1.22898e-11
-5.87889e-11
-5.55718e-15
1.7058e-11
-7.23803e-11
3.34348e-15
2.2664e-11
-8.66441e-11
-1.59347e-15
2.9079e-11
-1.0156e-10
1.80229e-15
3.62822e-11
-1.16941e-10
-1.78574e-15
4.41995e-11
-1.32654e-10
1.46385e-15
5.27714e-11
-1.48503e-10
-1.90766e-15
6.18838e-11
-1.64324e-10
4.83877e-16
7.14185e-11
-1.79862e-10
-3.01855e-17
8.12284e-11
-1.94927e-10
-5.94829e-16
9.11535e-11
-2.09255e-10
5.04454e-16
1.01019e-10
-2.22637e-10
-6.41301e-16
1.10643e-10
-2.34849e-10
4.73289e-16
1.19843e-10
-2.45698e-10
-5.38362e-16
1.28439e-10
-2.54997e-10
3.7701e-16
1.36268e-10
-2.62607e-10
-2.69792e-16
1.43174e-10
-2.68442e-10
4.26427e-16
-2.72399e-10
-1.79815e-16
3.31798e-13
-4.48922e-12
2.69623e-16
1.37017e-12
-1.42175e-11
-3.40462e-16
3.17828e-12
-2.49991e-11
-2.70351e-15
5.79509e-12
-3.67875e-11
2.08295e-15
9.26664e-12
-4.95376e-11
5.75354e-15
1.36545e-11
-6.31652e-11
-5.3649e-15
1.8927e-11
-7.76569e-11
2.39656e-15
2.51063e-11
-9.28249e-11
6.1489e-16
3.21656e-11
-1.08614e-10
-1.44844e-15
4.00527e-11
-1.24832e-10
8.94754e-16
4.86988e-11
-1.41299e-10
-7.20961e-16
5.80091e-11
-1.57815e-10
-3.4441e-16
6.78595e-11
-1.74172e-10
-1.18137e-16
7.8102e-11
-1.90105e-10
-4.79401e-17
8.85677e-11
-2.05394e-10
-4.77072e-18
9.90766e-11
-2.19763e-10
-2.80545e-16
1.09427e-10
-2.32989e-10
3.5808e-16
1.19425e-10
-2.44846e-10
-4.83994e-16
1.28867e-10
-2.55141e-10
4.18928e-16
1.37569e-10
-2.63698e-10
-4.45249e-16
1.45356e-10
-2.70393e-10
4.52539e-16
1.52078e-10
-2.75163e-10
-1.73276e-16
-2.77933e-10
3.18384e-16
3.6997e-13
-4.86001e-12
4.83688e-16
1.52937e-12
-1.53765e-11
-1.65125e-16
3.54955e-12
-2.7012e-11
-3.48753e-15
6.46156e-12
-3.97048e-11
3.24761e-15
1.03258e-11
-5.34103e-11
4.51954e-15
1.52029e-11
-6.80291e-11
-6.29461e-15
2.10298e-11
-8.34917e-11
4.81413e-15
2.78652e-11
-9.96575e-11
-1.98526e-15
3.56305e-11
-1.16381e-10
2.42507e-15
4.43021e-11
-1.33501e-10
-2.70874e-15
5.3745e-11
-1.50745e-10
1.92996e-15
6.38779e-11
-1.67947e-10
-2.08714e-15
7.45269e-11
-1.84821e-10
8.42313e-16
8.55325e-11
-2.01111e-10
-1.3103e-16
9.66921e-11
-2.16553e-10
-4.24617e-16
1.07799e-10
-2.30871e-10
5.11615e-16
1.18634e-10
-2.43823e-10
-5.17071e-16
1.28974e-10
-2.55188e-10
4.73338e-16
1.38611e-10
-2.64778e-10
-4.49976e-16
1.47344e-10
-2.72432e-10
3.92336e-16
1.55003e-10
-2.7805e-10
-2.12688e-16
1.61438e-10
-2.81598e-10
4.4508e-16
-2.83034e-10
-1.37516e-16
4.16922e-13
-5.27711e-12
1.94356e-16
1.71889e-12
-1.66788e-11
4.9255e-17
3.98745e-12
-2.92759e-11
-2.27117e-15
7.25654e-12
-4.29793e-11
3.35143e-15
1.15684e-11
-5.77396e-11
8.88741e-15
1.69984e-11
-7.34323e-11
-1.25108e-14
2.35004e-11
-9.00005e-11
3.5652e-15
3.10939e-11
-1.07254e-10
2.16431e-15
3.96974e-11
-1.24971e-10
-4.72014e-15
4.92158e-11
-1.43039e-10
7.76255e-15
5.95621e-11
-1.61082e-10
-4.95162e-15
7.05769e-11
-1.78966e-10
9.68357e-16
8.20882e-11
-1.9633e-10
-1.80518e-16
9.38928e-11
-2.12915e-10
-1.10225e-16
1.05762e-10
-2.28423e-10
2.30856e-16
1.17463e-10
-2.42571e-10
-2.7288e-16
1.28746e-10
-2.55107e-10
4.69892e-16
1.39378e-10
-2.65819e-10
-4.09292e-16
1.49128e-10
-2.7453e-10
4.37341e-16
1.57798e-10
-2.81102e-10
-3.66988e-16
1.65212e-10
-2.85464e-10
4.77688e-16
1.71237e-10
-2.87622e-10
-1.05823e-16
-2.87571e-10
3.49459e-16
4.69291e-13
-5.74563e-12
-2.89766e-16
1.92858e-12
-1.81381e-11
9.66877e-17
4.45113e-12
-3.17986e-11
1.28227e-16
8.12079e-12
-4.66429e-11
-2.73613e-15
1.29784e-11
-6.25808e-11
-8.32901e-15
1.90219e-11
-7.95046e-11
1.54597e-14
2.62828e-11
-9.72639e-11
1.55984e-15
3.47259e-11
-1.15681e-10
-8.81637e-15
4.41952e-11
-1.34463e-10
1.35482e-14
5.47208e-11
-1.53534e-10
-1.5624e-14
6.60408e-11
-1.72424e-10
9.44734e-15
7.80577e-11
-1.90976e-10
-4.14855e-15
9.05128e-11
-2.08784e-10
6.88085e-16
1.03177e-10
-2.25581e-10
7.40989e-16
1.15794e-10
-2.41038e-10
-9.62661e-16
1.28088e-10
-2.54867e-10
9.06521e-16
1.39796e-10
-2.66813e-10
-5.77457e-16
1.50654e-10
-2.76679e-10
5.63378e-16
1.60433e-10
-2.84308e-10
-3.63123e-16
1.68924e-10
-2.89594e-10
4.17155e-16
1.75966e-10
-2.92505e-10
-1.20369e-16
1.81435e-10
-2.93091e-10
4.57989e-16
-2.91396e-10
-5.66688e-17
5.30845e-13
-6.27813e-12
9.30945e-16
2.19163e-12
-1.97991e-11
9.69581e-18
5.07084e-12
-3.46774e-11
1.29536e-16
9.23772e-12
-5.08048e-11
-1.52763e-15
1.47117e-11
-6.80453e-11
-4.63776e-15
2.14928e-11
-8.63153e-11
1.54143e-14
2.95986e-11
-1.05375e-10
2.66502e-15
3.89886e-11
-1.25034e-10
-1.88586e-14
4.95384e-11
-1.45029e-10
9.92935e-15
6.11722e-11
-1.65159e-10
-4.71135e-15
7.36371e-11
-1.84891e-10
-2.11818e-16
8.67127e-11
-2.04064e-10
5.38997e-15
1.00173e-10
-2.22235e-10
-4.29817e-15
1.13713e-10
-2.39125e-10
1.90772e-15
1.27054e-10
-2.54378e-10
-2.10456e-16
1.39895e-10
-2.67707e-10
-2.32188e-16
1.51937e-10
-2.78857e-10
6.20162e-16
1.62916e-10
-2.87656e-10
-3.74705e-16
1.72582e-10
-2.93976e-10
4.67491e-16
1.80742e-10
-2.97753e-10
-2.54561e-16
1.87242e-10
-2.99004e-10
4.63713e-16
1.91985e-10
-2.97833e-10
-1.21749e-17
-2.94337e-10
3.3408e-16
6.02772e-13
-6.88105e-12
1.57738e-16
2.48036e-12
-2.16761e-11
-1.51473e-16
5.72421e-12
-3.79194e-11
-7.21434e-16
1.03928e-11
-5.54738e-11
4.3253e-16
1.65349e-11
-7.41931e-11
2.64877e-15
2.422e-11
-9.39802e-11
-9.3172e-15
3.33791e-11
-1.14519e-10
-6.97593e-15
4.38682e-11
-1.35575e-10
2.62131e-14
5.56424e-11
-1.56795e-10
-1.73491e-15
6.84569e-11
-1.77951e-10
-1.21297e-14
8.20974e-11
-1.98557e-10
1.31518e-14
9.63641e-11
-2.18306e-10
-1.2096e-14
1.1089e-10
-2.36772e-10
6.09026e-15
1.25372e-10
-2.53605e-10
-7.74546e-16
1.39467e-10
-2.68471e-10
-7.97464e-16
1.52826e-10
-2.81067e-10
1.28389e-15
1.65145e-10
-2.91174e-10
-6.65044e-16
1.76128e-10
-2.98641e-10
6.48882e-16
1.85543e-10
-3.0339e-10
-2.3045e-16
1.93199e-10
-3.0541e-10
3.59884e-16
1.98973e-10
-3.04777e-10
1.3975e-17
2.02795e-10
-3.01656e-10
3.93478e-16
-2.96206e-10
3.60109e-17
6.94338e-13
-7.57413e-12
-4.8625e-16
2.84666e-12
-2.38306e-11
8.64562e-16
6.56669e-12
-4.16496e-11
4.95912e-15
1.19382e-11
-6.0835e-11
-4.58625e-15
1.90014e-11
-8.1245e-11
-5.04646e-15
2.76801e-11
-1.02673e-10
7.86844e-15
3.79875e-11
-1.24807e-10
-1.05326e-14
4.97399e-11
-1.47355e-10
1.46035e-14
6.28784e-11
-1.69933e-10
6.51007e-16
7.71144e-11
-1.92169e-10
-1.1174e-14
9.2137e-11
-2.136e-10
9.16604e-15
1.07662e-10
-2.3382e-10
-4.8276e-15
1.23311e-10
-2.52423e-10
1.85822e-15
1.387e-10
-2.68995e-10
3.29463e-16
1.53459e-10
-2.83229e-10
-2.93551e-16
1.67213e-10
-2.94822e-10
4.33094e-16
1.79632e-10
-3.03592e-10
1.81619e-16
1.90426e-10
-3.09434e-10
6.0045e-17
1.99364e-10
-3.12329e-10
2.51441e-16
2.06284e-10
-3.1233e-10
-5.22811e-18
2.11093e-10
-3.09585e-10
3.41375e-16
2.13768e-10
-3.04329e-10
1.41303e-16
-2.96789e-10
2.54014e-16
7.94135e-13
-8.36567e-12
-1.22412e-15
3.2502e-12
-2.62879e-11
5.74275e-16
7.48461e-12
-4.58929e-11
4.14089e-15
1.35756e-11
-6.69186e-11
-3.74367e-15
2.1592e-11
-8.92556e-11
-2.33791e-15
3.1435e-11
-1.12523e-10
4.3691e-15
4.31009e-11
-1.3645e-10
-1.11294e-14
5.63321e-11
-1.60614e-10
1.48983e-14
7.10075e-11
-1.84611e-10
2.56075e-15
8.68047e-11
-2.07942e-10
-1.2356e-14
1.03334e-10
-2.30151e-10
1.12444e-14
1.20242e-10
-2.50716e-10
-6.54492e-15
1.37082e-10
-2.69268e-10
2.55501e-15
1.53411e-10
-2.85325e-10
4.04265e-16
1.68816e-10
-2.98632e-10
-6.23933e-16
1.82879e-10
-3.08886e-10
8.39898e-16
1.95265e-10
-3.15977e-10
-1.13063e-16
2.0568e-10
-3.1985e-10
2.28575e-16
2.13922e-10
-3.20571e-10
1.53902e-16
2.1986e-10
-3.18269e-10
1.04086e-16
2.23455e-10
-3.13178e-10
2.34405e-16
2.24736e-10
-3.0561e-10
2.29969e-16
-2.9586e-10
1.63648e-16
9.24346e-13
-9.28928e-12
-2.75404e-16
3.78844e-12
-2.91538e-11
6.59479e-16
8.72273e-12
-5.08335e-11
3.11074e-15
1.57923e-11
-7.3981e-11
-3.39428e-15
2.50417e-11
-9.84986e-11
-2.94317e-15
3.63394e-11
-1.23828e-10
4.69734e-15
4.96548e-11
-1.49747e-10
-9.25588e-15
6.46419e-11
-1.75626e-10
1.3342e-14
8.11217e-11
-2.01095e-10
3.37198e-15
9.86741e-11
-2.25467e-10
-1.26729e-14
1.16842e-10
-2.48337e-10
1.14962e-14
1.35173e-10
-2.69037e-10
-6.34847e-15
1.53168e-10
-2.87268e-10
2.18266e-15
1.70313e-10
-3.0247e-10
6.73984e-16
1.86164e-10
-3.14482e-10
-7.27159e-16
2.0028e-10
-3.23002e-10
1.05793e-15
2.12329e-10
-3.28025e-10
-3.55199e-16
2.22036e-10
-3.29558e-10
5.4095e-16
2.2924e-10
-3.27775e-10
-1.40033e-16
2.33862e-10
-3.22891e-10
3.30873e-16
2.35925e-10
-3.1524e-10
9.64802e-17
2.35526e-10
-3.05211e-10
3.43361e-16
-2.93172e-10
9.66927e-17
1.06739e-12
-1.0355e-11
-7.63259e-16
4.37039e-12
-3.24573e-11
2.15204e-16
1.00499e-11
-5.65215e-11
4.11054e-15
1.81691e-11
-8.2094e-11
-3.28598e-15
2.878e-11
-1.09103e-10
-2.8198e-15
4.17181e-11
-1.36772e-10
4.52098e-15
5.68391e-11
-1.64848e-10
-1.13738e-14
7.37829e-11
-1.92601e-10
1.60681e-14
9.22702e-11
-2.19583e-10
4.58177e-16
1.11774e-10
-2.4495e-10
-1.02657e-14
1.31747e-10
-2.68331e-10
9.54325e-15
1.51633e-10
-2.88909e-10
-5.56024e-15
1.70843e-10
-3.06481e-10
2.37026e-15
1.88792e-10
-3.20419e-10
5.25735e-16
2.04995e-10
-3.30684e-10
-3.29197e-16
2.18994e-10
-3.37001e-10
3.52826e-16
2.30466e-10
-3.39498e-10
3.97941e-16
2.39179e-10
-3.3827e-10
-3.57077e-16
2.45026e-10
-3.33623e-10
5.61189e-16
2.48006e-10
-3.25872e-10
-3.05465e-16
2.48223e-10
-3.15456e-10
4.85347e-16
2.4586e-10
-3.02848e-10
-3.06719e-17
-2.88482e-10
2.98115e-16
1.26604e-12
-1.16206e-11
-1.39074e-16
5.17981e-12
-3.63719e-11
3.21091e-16
1.19024e-11
-6.3249e-11
2.51761e-15
2.14575e-11
-9.16389e-11
-4.97403e-15
3.38547e-11
-1.21493e-10
-4.00585e-15
4.88254e-11
-1.51763e-10
9.30982e-15
6.62733e-11
-1.82271e-10
-1.05848e-14
8.56626e-11
-2.12012e-10
1.20936e-14
1.06524e-10
-2.40449e-10
5.90271e-15
1.28245e-10
-2.66644e-10
-1.5571e-14
1.50124e-10
-2.90238e-10
1.34663e-14
1.7152e-10
-3.10287e-10
-7.763e-15
1.91752e-10
-3.26718e-10
3.58973e-15
2.10184e-10
-3.38852e-10
-1.80399e-16
2.26322e-10