/*--------------------------------*- C++ -*----------------------------------*\
| =========                 |                                                 |
| \\      /  F ield         | OpenFOAM: The Open Source CFD Toolbox           |
|  \\    /   O peration     | Version:  v2012                                 |
|   \\  /    A nd           | Website:  www.openfoam.com                      |
|    \\/     M anipulation  |                                                 |
\*---------------------------------------------------------------------------*/
FoamFile
{
    version     2.0;
    format      ascii;
    class       volVectorField;
    location    "0.5";
    object      U;
}
// * * * * * * * * * * * * * * * * * * * * * * * * * * * * * * * * * * * * * //

dimensions      [0 1 -1 0 0 0 0];


internalField   nonuniform List<vector> 
2619
(
(9.75923e-05 -0.0069464 -8.51314e-07)
(0.000184329 -0.00712109 -1.60864e-06)
(0.000247436 -0.00726149 -2.15987e-06)
(0.000329008 -0.00735839 -2.8692e-06)
(0.000410315 -0.0074444 -3.57739e-06)
(0.000487481 -0.00749892 -4.25523e-06)
(0.000576276 -0.00754646 -5.03264e-06)
(0.000657129 -0.00757975 -5.73776e-06)
(0.000744681 -0.00759713 -6.50313e-06)
(0.000831071 -0.00760166 -7.25766e-06)
(0.00091891 -0.00759217 -8.0242e-06)
(0.00100718 -0.00756994 -8.79462e-06)
(0.00109466 -0.00753425 -9.55754e-06)
(0.00118344 -0.00748569 -1.03324e-05)
(0.00126906 -0.00742369 -1.10789e-05)
(0.00135383 -0.00734794 -1.18185e-05)
(4.84616e-05 -0.00696593 -4.22834e-07)
(0.000110468 -0.00720537 -9.63707e-07)
(0.000190805 -0.00738669 -1.66614e-06)
(0.000265158 -0.00751325 -2.3117e-06)
(0.000351108 -0.00761967 -3.06052e-06)
(0.000430914 -0.00770169 -3.76204e-06)
(0.000521973 -0.00776123 -4.55627e-06)
(0.000608341 -0.00780716 -5.3113e-06)
(0.000701628 -0.00783669 -6.12688e-06)
(0.000791707 -0.00785078 -6.91382e-06)
(0.000886123 -0.00785208 -7.73856e-06)
(0.000978859 -0.00783784 -8.54749e-06)
(0.00107363 -0.00781126 -9.37441e-06)
(0.00116604 -0.00776907 -1.01806e-05)
(0.001259 -0.00771477 -1.09914e-05)
(0.00135003 -0.00764503 -1.17856e-05)
(0.00143893 -0.00756176 -1.2561e-05)
(0.00152469 -0.00746376 -1.33091e-05)
(4.76908e-05 -0.00724027 -4.16182e-07)
(0.000126006 -0.00748454 -1.09917e-06)
(0.000195937 -0.00766579 -1.71003e-06)
(0.000289829 -0.0077985 -2.52899e-06)
(0.000367857 -0.00790444 -3.20931e-06)
(0.000468791 -0.00798513 -4.09041e-06)
(0.000551084 -0.00804412 -4.81071e-06)
(0.000654064 -0.00808547 -5.71099e-06)
(0.000744236 -0.00811213 -6.49886e-06)
(0.000846235 -0.00812211 -7.39014e-06)
(0.000942452 -0.0081185 -8.23002e-06)
(0.0010436 -0.00809972 -9.11265e-06)
(0.0011427 -0.00806693 -9.97701e-06)
(0.00124173 -0.00801933 -1.08409e-05)
(0.00133961 -0.00795709 -1.16947e-05)
(0.00143627 -0.0078799 -1.2538e-05)
(0.00152951 -0.00778769 -1.33513e-05)
(0.00161991 -0.00768055 -1.41399e-05)
(0.0017058 -0.00755839 -1.48892e-05)
(5.21152e-05 -0.00753338 -4.5508e-07)
(0.000132921 -0.0077784 -1.16093e-06)
(0.000210628 -0.00796261 -1.83846e-06)
(0.00030912 -0.00809453 -2.69782e-06)
(0.000397314 -0.00820135 -3.4653e-06)
(0.000496644 -0.00827826 -4.33435e-06)
(0.000592829 -0.0083373 -5.17398e-06)
(0.000695317 -0.00837718 -6.07083e-06)
(0.000797447 -0.00840161 -6.96289e-06)
(0.000901822 -0.00840866 -7.87458e-06)
(0.00100776 -0.00840096 -8.79994e-06)
(0.00111275 -0.00837725 -9.71568e-06)
(0.0012198 -0.00833855 -1.06495e-05)
(0.00132346 -0.00828398 -1.15537e-05)
(0.00142776 -0.00821409 -1.24637e-05)
(0.00152893 -0.00812823 -1.33462e-05)
(0.00162755 -0.00802673 -1.42066e-05)
(0.00172174 -0.00790931 -1.50284e-05)
(0.00181193 -0.00777624 -1.58152e-05)
(5.43714e-05 -0.00784808 -4.74914e-07)
(0.000145373 -0.00809864 -1.26851e-06)
(0.000224179 -0.00828237 -1.95561e-06)
(0.00033272 -0.00842087 -2.90452e-06)
(0.000422963 -0.00852419 -3.69106e-06)
(0.000536967 -0.00859977 -4.68468e-06)
(0.000633078 -0.00865877 -5.52591e-06)
(0.000748992 -0.00869361 -6.53729e-06)
(0.000851734 -0.00871439 -7.43604e-06)
(0.000966809 -0.00871732 -8.44093e-06)
(0.00107558 -0.00870373 -9.39095e-06)
(0.00118941 -0.00867429 -1.0384e-05)
(0.00130067 -0.00862824 -1.13545e-05)
(0.00141197 -0.00856601 -1.23256e-05)
(0.00152088 -0.00848716 -1.32758e-05)
(0.00162862 -0.00839179 -1.42159e-05)
(0.00173153 -0.00827974 -1.51137e-05)
(0.00183105 -0.00815109 -1.5982e-05)
(0.00192467 -0.00800593 -1.67988e-05)
(5.95082e-05 -0.00818399 -5.19861e-07)
(0.000152562 -0.00843625 -1.33189e-06)
(0.00024139 -0.00862052 -2.10534e-06)
(0.000354363 -0.00876539 -3.09375e-06)
(0.000452797 -0.00886632 -3.95269e-06)
(0.000568584 -0.00893986 -4.96178e-06)
(0.000678983 -0.00899714 -5.92427e-06)
(0.000795704 -0.00902768 -6.9468e-06)
(0.000912792 -0.00904512 -7.96855e-06)
(0.00103105 -0.00904309 -9.00097e-06)
(0.00115178 -0.00902432 -1.00549e-05)
(0.00126981 -0.00898865 -1.10848e-05)
(0.0013906 -0.00893532 -1.21386e-05)
(0.0015066 -0.0088647 -1.31508e-05)
(0.00162321 -0.00877646 -1.41683e-05)
(0.00173545 -0.00867064 -1.51477e-05)
(0.00184455 -0.00854724 -1.60997e-05)
(0.00194788 -0.0084063 -1.70013e-05)
(0.00204617 -0.00824802 -1.78589e-05)
(6.38112e-05 -0.00854598 -5.57273e-07)
(0.000164131 -0.00880313 -1.43333e-06)
(0.000259467 -0.0089901 -2.26331e-06)
(0.00038058 -0.00913216 -3.3208e-06)
(0.00048274 -0.00923363 -4.21634e-06)
(0.000613174 -0.00930688 -5.35166e-06)
(0.000726773 -0.00936158 -6.34136e-06)
(0.000856318 -0.00939001 -7.47453e-06)
(0.000976467 -0.0094025 -8.52511e-06)
(0.00110554 -0.0093947 -9.65028e-06)
(0.00123102 -0.00936932 -1.07456e-05)
(0.00135851 -0.00932578 -1.18579e-05)
(0.00148461 -0.00926371 -1.29583e-05)
(0.00160927 -0.00918333 -1.40461e-05)
(0.00173094 -0.00908424 -1.5108e-05)
(0.00185063 -0.00896676 -1.61525e-05)
(0.00196423 -0.00883057 -1.71438e-05)
(0.00207343 -0.00867608 -1.80968e-05)
(0.00217523 -0.00850329 -1.8985e-05)
(6.9065e-05 -0.00893336 -6.03081e-07)
(0.000176375 -0.00919134 -1.53939e-06)
(0.000275754 -0.0093802 -2.40668e-06)
(0.00040816 -0.00952494 -3.56467e-06)
(0.00052089 -0.00963011 -4.54653e-06)
(0.000656716 -0.00969836 -5.73274e-06)
(0.000779014 -0.00974909 -6.80366e-06)
(0.000913091 -0.00977309 -7.97088e-06)
(0.00104809 -0.00978071 -9.14667e-06)
(0.00118262 -0.0097666 -1.03227e-05)
(0.00131958 -0.00973474 -1.15184e-05)
(0.00145291 -0.00968281 -1.26811e-05)
(0.00158914 -0.00961183 -1.38698e-05)
(0.00171939 -0.00952084 -1.50067e-05)
(0.00184966 -0.00941032 -1.61437e-05)
(0.0019742 -0.00928012 -1.72306e-05)
(0.0020947 -0.00913021 -1.82823e-05)
(0.00220782 -0.00896085 -1.92694e-05)
(0.00231458 -0.00877229 -2.02011e-05)
(7.73845e-05 -0.00934749 -6.75825e-07)
(0.000180508 -0.00960484 -1.57541e-06)
(0.000314497 -0.00979126 -2.74055e-06)
(0.000426756 -0.00994326 -3.71697e-06)
(0.000553559 -0.0100458 -4.83046e-06)
(0.00071135 -0.0101203 -6.21121e-06)
(0.000834506 -0.0101656 -7.28681e-06)
(0.000980508 -0.0101894 -8.56013e-06)
(0.00112173 -0.0101898 -9.79004e-06)
(0.00126793 -0.0101699 -1.10671e-05)
(0.00141073 -0.010128 -1.23136e-05)
(0.0015556 -0.010067 -1.35768e-05)
(0.00169773 -0.00998475 -1.48175e-05)
(0.00183851 -0.00988198 -1.6046e-05)
(0.0019742 -0.00975754 -1.72303e-05)
(0.00210742 -0.00961322 -1.83931e-05)
(0.00223283 -0.00944767 -1.94875e-05)
(0.00235246 -0.00926192 -2.05316e-05)
(0.00246278 -0.0090559 -2.14942e-05)
(8.21175e-05 -0.00980001 -7.16385e-07)
(0.000195679 -0.0100733 -1.70632e-06)
(0.000334365 -0.0102698 -2.91444e-06)
(0.0004596 -0.0104077 -4.00545e-06)
(0.000598776 -0.0105023 -5.22552e-06)
(0.000762744 -0.010568 -6.65941e-06)
(0.000899388 -0.0106108 -7.85356e-06)
(0.00105024 -0.0106277 -9.17005e-06)
(0.00120635 -0.0106231 -1.05284e-05)
(0.00135937 -0.0105956 -1.18658e-05)
(0.00151614 -0.0105458 -1.32335e-05)
(0.0016655 -0.0104741 -1.45362e-05)
(0.00182018 -0.010381 -1.5886e-05)
(0.00196729 -0.0102649 -1.717e-05)
(0.00211311 -0.0101264 -1.84426e-05)
(0.00225087 -0.0099662 -1.96449e-05)
(0.00238415 -0.00978383 -2.08082e-05)
(0.0025076 -0.00957992 -2.18855e-05)
(0.00262314 -0.00935482 -2.28938e-05)
(8.85666e-05 -0.0102778 -7.72787e-07)
(0.000211385 -0.0105446 -1.84485e-06)
(0.000359033 -0.0107316 -3.12988e-06)
(0.000494649 -0.0108884 -4.31065e-06)
(0.000641081 -0.0109774 -5.59651e-06)
(0.000820719 -0.0110545 -7.16557e-06)
(0.000962246 -0.0110911 -8.40329e-06)
(0.00113079 -0.0111057 -9.87167e-06)
(0.00129092 -0.0110916 -1.12679e-05)
(0.00146097 -0.0110554 -1.27524e-05)
(0.0016224 -0.010995 -1.41615e-05)
(0.00178732 -0.0109115 -1.5599e-05)
(0.00194706 -0.0108037 -1.69936e-05)
(0.00210736 -0.0106732 -1.83925e-05)
(0.00225846 -0.0105187 -1.97112e-05)
(0.00240644 -0.0103411 -2.10027e-05)
(0.00254457 -0.0101398 -2.22081e-05)
(0.0026751 -0.00991604 -2.33474e-05)
(0.00279402 -0.00966981 -2.43851e-05)
(9.57813e-05 -0.0108026 -8.36117e-07)
(0.000228356 -0.0110831 -1.99332e-06)
(0.000386169 -0.0112793 -3.36754e-06)
(0.000536227 -0.0114208 -4.67615e-06)
(0.000694029 -0.01151 -6.05797e-06)
(0.000879837 -0.0115764 -7.68186e-06)
(0.00103763 -0.0116058 -9.05998e-06)
(0.00121383 -0.011613 -1.05978e-05)
(0.0013929 -0.0115913 -1.21568e-05)
(0.00156738 -0.0115464 -1.3682e-05)
(0.00174615 -0.0114753 -1.52405e-05)
(0.0019173 -0.0113784 -1.67346e-05)
(0.00209211 -0.0112564 -1.82594e-05)
(0.00225721 -0.011109 -1.97006e-05)
(0.0024206 -0.0109368 -2.11265e-05)
(0.00257371 -0.0107393 -2.24627e-05)
(0.00272058 -0.0105173 -2.37445e-05)
(0.00285495 -0.0102712 -2.49171e-05)
(0.00297923 -0.0100018 -2.60017e-05)
(0.00308886 -0.00971014 -2.69583e-05)
(0.00318463 -0.00939758 -2.77942e-05)
(0.00326374 -0.00906576 -2.84846e-05)
(0.00332611 -0.00871653 -2.90288e-05)
(0.000101927 -0.0113601 -8.8969e-07)
(0.000249747 -0.0116339 -2.17914e-06)
(0.000409716 -0.0118237 -3.57144e-06)
(0.000574034 -0.0119835 -5.00702e-06)
(0.000746058 -0.0120564 -6.51411e-06)
(0.000954664 -0.0121247 -8.33418e-06)
(0.00112883 -0.0121648 -9.85091e-06)
(0.00131738 -0.0121556 -1.15005e-05)
(0.00149846 -0.0121284 -1.3079e-05)
(0.00169291 -0.0120716 -1.47763e-05)
(0.00187546 -0.011988 -1.63705e-05)
(0.00206498 -0.0118759 -1.80225e-05)
(0.00224372 -0.0117383 -1.95835e-05)
(0.0024241 -0.0115726 -2.1157e-05)
(0.00259243 -0.0113807 -2.26264e-05)
(0.00275691 -0.0111617 -2.40617e-05)
(0.00290824 -0.0109167 -2.53824e-05)
(0.00304997 -0.0106463 -2.66193e-05)
(0.00317714 -0.0103513 -2.77291e-05)
(0.00329028 -0.0100332 -2.87165e-05)
(0.00338634 -0.00969343 -2.95548e-05)
(0.0034652 -0.00933395 -3.0243e-05)
(0.00352483 -0.00895694 -3.07634e-05)
(0.000113016 -0.0119699 -9.86466e-07)
(0.00026737 -0.0122522 -2.3333e-06)
(0.000450173 -0.0124412 -3.92619e-06)
(0.000634599 -0.012608 -5.53246e-06)
(0.000834428 -0.012662 -7.27323e-06)
(0.00100284 -0.0127352 -8.75053e-06)
(0.00118906 -0.0127681 -1.03866e-05)
(0.00142451 -0.0127556 -1.24302e-05)
(0.00160498 -0.0127135 -1.40063e-05)
(0.00181571 -0.012641 -1.58498e-05)
(0.00201797 -0.0125414 -1.76138e-05)
(0.00221729 -0.0124123 -1.93529e-05)
(0.00241321 -0.0122556 -2.10621e-05)
(0.00260092 -0.0120689 -2.27009e-05)
(0.00278288 -0.0118545 -2.42885e-05)
(0.00295316 -0.0116112 -2.57748e-05)
(0.00311389 -0.0113404 -2.71774e-05)
(0.00325947 -0.0110428 -2.84479e-05)
(0.00339177 -0.0107195 -2.96026e-05)
(0.0035061 -0.0103722 -3.06003e-05)
(0.00360314 -0.0100026 -3.14472e-05)
(0.00368001 -0.00961291 -3.2118e-05)
(0.00373667 -0.00920568 -3.26124e-05)
(0.000123271 -0.0126272 -1.07592e-06)
(0.000288509 -0.0129121 -2.51928e-06)
(0.000479738 -0.0131115 -4.18433e-06)
(0.000676047 -0.0132545 -5.89587e-06)
(0.000898317 -0.0133273 -7.83028e-06)
(0.00108321 -0.013404 -9.44959e-06)
(0.00130349 -0.0133833 -1.13848e-05)
(0.00156218 -0.0133654 -1.36289e-05)
(0.00175752 -0.0133389 -1.53351e-05)
(0.00198051 -0.0132415 -1.72886e-05)
(0.00218146 -0.0131297 -1.90403e-05)
(0.00239702 -0.0129828 -2.09209e-05)
(0.00259753 -0.0128067 -2.26718e-05)
(0.00280058 -0.012597 -2.44432e-05)
(0.00298766 -0.0123582 -2.60763e-05)
(0.00316959 -0.0120881 -2.76638e-05)
(0.00333477 -0.0117891 -2.91055e-05)
(0.0034875 -0.0114615 -3.04384e-05)
(0.00362204 -0.0111071 -3.16125e-05)
(0.00373892 -0.0107276 -3.26326e-05)
(0.00383493 -0.0103252 -3.34704e-05)
(0.00390988 -0.0099026 -3.41246e-05)
(0.00396185 -0.00946254 -3.4578e-05)
(0.000137643 -0.0133386 -1.20161e-06)
(0.000312448 -0.0136229 -2.72835e-06)
(0.00052481 -0.0138159 -4.57618e-06)
(0.000729852 -0.013985 -6.36351e-06)
(0.000973084 -0.0140336 -8.49474e-06)
(0.00118258 -0.0141142 -1.03184e-05)
(0.00144586 -0.0140796 -1.26128e-05)
(0.00161944 -0.0140519 -1.41385e-05)
(0.00184914 -0.0140101 -1.61419e-05)
(0.00213972 -0.0138965 -1.86741e-05)
(0.00234208 -0.0137651 -2.04424e-05)
(0.00257617 -0.0135978 -2.24859e-05)
(0.00279625 -0.0133977 -2.44062e-05)
(0.0030107 -0.0131626 -2.62779e-05)
(0.00321235 -0.0128955 -2.80373e-05)
(0.00340163 -0.0125956 -2.96894e-05)
(0.00357638 -0.0122646 -3.12144e-05)
(0.00373295 -0.0119038 -3.25808e-05)
(0.00387187 -0.0115148 -3.37933e-05)
(0.00398884 -0.0110999 -3.48141e-05)
(0.00408421 -0.0106616 -3.56465e-05)
(0.00415523 -0.010203 -3.62662e-05)
(0.00420188 -0.00972722 -3.66733e-05)
(0.000150805 -0.0141138 -1.31653e-06)
(0.000325883 -0.0143982 -2.84549e-06)
(0.000589725 -0.0145914 -5.15339e-06)
(0.000789185 -0.0147505 -6.87964e-06)
(0.00105821 -0.0148014 -9.21255e-06)
(0.00127989 -0.0148648 -1.11736e-05)
(0.0015694 -0.0148487 -1.36987e-05)
(0.00177248 -0.0148147 -1.547e-05)
(0.00202671 -0.0147277 -1.76914e-05)
(0.00233023 -0.0146077 -2.0338e-05)
(0.00253747 -0.014451 -2.21473e-05)
(0.00278841 -0.0142595 -2.43383e-05)
(0.00301742 -0.0140319 -2.63371e-05)
(0.00324786 -0.0137676 -2.83478e-05)
(0.00345668 -0.013469 -3.01702e-05)
(0.00365779 -0.0131352 -3.19252e-05)
(0.00383737 -0.0127688 -3.34925e-05)
(0.00400049 -0.0123707 -3.49161e-05)
(0.00414075 -0.0119435 -3.61401e-05)
(0.00425873 -0.0114895 -3.71699e-05)
(0.00435114 -0.0110119 -3.79764e-05)
(0.00441785 -0.0105139 -3.85586e-05)
(0.0044571 -0.00999929 -3.89012e-05)
(0.000166516 -0.0149553 -1.45375e-06)
(0.00035728 -0.0152548 -3.11615e-06)
(0.000639562 -0.0154585 -5.58457e-06)
(0.000855107 -0.0155988 -7.45187e-06)
(0.00114886 -0.0156545 -1.00114e-05)
(0.0013912 -0.0156928 -1.21453e-05)
(0.001703 -0.015661 -1.48637e-05)
(0.00191827 -0.0156067 -1.67447e-05)
(0.00219527 -0.0155041 -1.91628e-05)
(0.00251915 -0.0153666 -2.19878e-05)
(0.00274855 -0.0151866 -2.39901e-05)
(0.00301388 -0.0149683 -2.63066e-05)
(0.00326192 -0.0147109 -2.84713e-05)
(0.00350322 -0.0144141 -3.05767e-05)
(0.00372647 -0.0140801 -3.25252e-05)
(0.00393491 -0.0137088 -3.43441e-05)
(0.00412341 -0.0133028 -3.59893e-05)
(0.00428961 -0.0128635 -3.74396e-05)
(0.00443279 -0.0123939 -3.86893e-05)
(0.00454902 -0.0118968 -3.97037e-05)
(0.00463838 -0.0113759 -4.04837e-05)
(0.00469833 -0.0108349 -4.10069e-05)
(0.00472906 -0.0102782 -4.12751e-05)
(0.000181098 -0.0158739 -1.58053e-06)
(0.000392026 -0.0161692 -3.42044e-06)
(0.000690886 -0.0163636 -6.0338e-06)
(0.000931648 -0.0165008 -8.12356e-06)
(0.0012493 -0.0165495 -1.08907e-05)
(0.00151187 -0.0165818 -1.31977e-05)
(0.00184826 -0.0165406 -1.61349e-05)
(0.00208531 -0.0164719 -1.82027e-05)
(0.00238314 -0.0163486 -2.08039e-05)
(0.00273195 -0.0161877 -2.38462e-05)
(0.00297794 -0.0159803 -2.59921e-05)
(0.00326617 -0.0157315 -2.85092e-05)
(0.00352694 -0.0154401 -3.07842e-05)
(0.00378677 -0.0151064 -3.30521e-05)
(0.00401904 -0.0147326 -3.50786e-05)
(0.00423985 -0.014319 -3.70061e-05)
(0.00443314 -0.0138686 -3.86925e-05)
(0.00460488 -0.0133834 -4.01917e-05)
(0.00474777 -0.0128668 -4.14386e-05)
(0.0048627 -0.0123221 -4.24418e-05)
(0.00494625 -0.0117536 -4.3171e-05)
(0.00499854 -0.0111656 -4.36275e-05)
(0.00501812 -0.010563 -4.37984e-05)
(0.000197192 -0.0168758 -1.72094e-06)
(0.000427843 -0.0171785 -3.73237e-06)
(0.000756272 -0.0173812 -6.60503e-06)
(0.00101807 -0.0175073 -8.87816e-06)
(0.00136336 -0.0175555 -1.18838e-05)
(0.00164904 -0.0175623 -1.43995e-05)
(0.00201426 -0.0175096 -1.75794e-05)
(0.00227344 -0.0174147 -1.9848e-05)
(0.00259998 -0.0172693 -2.26974e-05)
(0.00296763 -0.0170779 -2.59032e-05)
(0.00323989 -0.01684 -2.82801e-05)
(0.00354268 -0.0165545 -3.09217e-05)
(0.00382508 -0.0162247 -3.33879e-05)
(0.00409647 -0.0158483 -3.57546e-05)
(0.00434413 -0.0154296 -3.79168e-05)
(0.00457201 -0.0149682 -3.99048e-05)
(0.00477349 -0.0144681 -4.16636e-05)
(0.00494675 -0.0139315 -4.31754e-05)
(0.00509033 -0.0133626 -4.44288e-05)
(0.00520062 -0.0127654 -4.53912e-05)
(0.00527763 -0.0121446 -4.60636e-05)
(0.00531917 -0.0115053 -4.64261e-05)
(0.00532585 -0.0108529 -4.64845e-05)
(0.000217418 -0.0179737 -1.89714e-06)
(0.000471777 -0.018274 -4.1188e-06)
(0.000824465 -0.0184648 -7.20328e-06)
(0.00111236 -0.0185824 -9.70377e-06)
(0.00149139 -0.0186198 -1.2988e-05)
(0.00180029 -0.0186157 -1.57162e-05)
(0.00219927 -0.0185534 -1.92074e-05)
(0.00248354 -0.0184335 -2.16723e-05)
(0.00283283 -0.0182635 -2.47334e-05)
(0.0032306 -0.0180397 -2.81995e-05)
(0.0035212 -0.0177663 -3.07344e-05)
(0.00385156 -0.0174406 -3.36202e-05)
(0.00414819 -0.0170668 -3.62061e-05)
(0.00444053 -0.0166429 -3.87591e-05)
(0.0046976 -0.0161735 -4.10012e-05)
(0.00493799 -0.0156584 -4.30998e-05)
(0.00514308 -0.0151027 -4.4889e-05)
(0.00532004 -0.0145088 -4.64339e-05)
(0.0054605 -0.0138819 -4.76595e-05)
(0.00556598 -0.0132265 -4.85804e-05)
(0.00563295 -0.0125482 -4.9165e-05)
(0.00566213 -0.0118529 -4.94198e-05)
(0.00565254 -0.0111466 -4.93361e-05)
(0.000236814 -0.0191781 -2.066e-06)
(0.000518085 -0.0194822 -4.52134e-06)
(0.000906929 -0.0196728 -7.90964e-06)
(0.00123101 -0.019784 -1.0723e-05)
(0.00164324 -0.0198115 -1.43521e-05)
(0.00198094 -0.0197797 -1.72801e-05)
(0.0023973 -0.0197008 -2.0908e-05)
(0.00272775 -0.0195512 -2.38216e-05)
(0.00309871 -0.0193501 -2.70459e-05)
(0.00352445 -0.0190879 -3.07666e-05)
(0.00384391 -0.0187731 -3.35524e-05)
(0.00419316 -0.0184001 -3.65997e-05)
(0.00451398 -0.0179755 -3.94014e-05)
(0.0048186 -0.0174965 -4.20569e-05)
(0.00509162 -0.0169691 -4.44413e-05)
(0.00533833 -0.0163932 -4.65933e-05)
(0.00554995 -0.0157746 -4.84408e-05)
(0.00572581 -0.0151165 -4.99752e-05)
(0.00586342 -0.0144249 -5.11766e-05)
(0.00595988 -0.0137051 -5.20183e-05)
(0.00601529 -0.0129637 -5.25023e-05)
(0.0060281 -0.0122071 -5.26142e-05)
(0.00599967 -0.0114424 -5.23662e-05)
(0.000264243 -0.0204992 -2.30406e-06)
(0.000573228 -0.0208032 -5.00907e-06)
(0.000992509 -0.0209966 -8.66293e-06)
(0.00134997 -0.0210874 -1.17606e-05)
(0.00180171 -0.0211062 -1.57268e-05)
(0.00216494 -0.0210504 -1.88894e-05)
(0.00263122 -0.0209381 -2.29412e-05)
(0.00299129 -0.0207567 -2.6116e-05)
(0.00340138 -0.0205292 -2.96969e-05)
(0.00385618 -0.0202198 -3.36536e-05)
(0.00419889 -0.0198602 -3.66528e-05)
(0.0045767 -0.0194336 -3.99485e-05)
(0.00491406 -0.018952 -4.28913e-05)
(0.00524023 -0.018411 -4.57389e-05)
(0.00552272 -0.017818 -4.82025e-05)
(0.00578065 -0.0171736 -5.04548e-05)
(0.00599351 -0.0164846 -5.23116e-05)
(0.00616963 -0.0157548 -5.38492e-05)
(0.00629957 -0.0149913 -5.49831e-05)
(0.00638588 -0.0142005 -5.57367e-05)
(0.00642514 -0.0133896 -5.60795e-05)
(0.00641902 -0.0125663 -5.60264e-05)
(0.00636736 -0.0117383 -5.55757e-05)
(0.000285925 -0.021963 -2.49268e-06)
(0.000634448 -0.0222657 -5.53602e-06)
(0.00109126 -0.0224416 -9.52358e-06)
(0.00148764 -0.0225301 -1.29781e-05)
(0.00198303 -0.0225263 -1.72856e-05)
(0.00239855 -0.0224479 -2.09159e-05)
(0.0029077 -0.0223076 -2.53922e-05)
(0.00328677 -0.0220913 -2.86779e-05)
(0.00372461 -0.0218192 -3.24998e-05)
(0.00423188 -0.0214609 -3.69446e-05)
(0.00459677 -0.021044 -4.01204e-05)
(0.00500199 -0.020556 -4.36605e-05)
(0.0053641 -0.0200069 -4.68208e-05)
(0.00570539 -0.0193946 -4.97968e-05)
(0.00600314 -0.0187263 -5.2397e-05)
(0.00626586 -0.018004 -5.46883e-05)
(0.00648212 -0.0172352 -5.65766e-05)
(0.00665279 -0.0164248 -5.80658e-05)
(0.00677432 -0.0155812 -5.91268e-05)
(0.00684513 -0.0147115 -5.97449e-05)
(0.00686559 -0.0138244 -5.99239e-05)
(0.00683533 -0.0129284 -5.96601e-05)
(0.00675686 -0.0120321 -5.89755e-05)
(0.00031231 -0.0235684 -2.72154e-06)
(0.000701329 -0.0238726 -6.12066e-06)
(0.00120787 -0.0240517 -1.0537e-05)
(0.00166921 -0.0241291 -1.45601e-05)
(0.0021873 -0.0241075 -1.90927e-05)
(0.002638 -0.0239861 -2.30061e-05)
(0.00320782 -0.0238177 -2.79904e-05)
(0.00362101 -0.0235499 -3.16001e-05)
(0.00411094 -0.0232214 -3.58775e-05)
(0.00464899 -0.0228074 -4.05769e-05)
(0.00504636 -0.0223264 -4.40471e-05)
(0.00548086 -0.0217677 -4.78399e-05)
(0.00586374 -0.0211428 -5.11805e-05)
(0.00622563 -0.0204492 -5.43387e-05)
(0.00653263 -0.0196958 -5.70168e-05)
(0.00680328 -0.0188853 -5.93795e-05)
(0.00701677 -0.0180266 -6.12423e-05)
(0.00718185 -0.017126 -6.26835e-05)
(0.00728879 -0.0161931 -6.36168e-05)
(0.0073415 -0.0152364 -6.40774e-05)
(0.00733713 -0.0142658 -6.40395e-05)
(0.00727886 -0.0132907 -6.35313e-05)
(0.00716787 -0.0123207 -6.2563e-05)
(0.000344132 -0.0253679 -2.99752e-06)
(0.000783265 -0.0256618 -6.8283e-06)
(0.0013345 -0.0258199 -1.16401e-05)
(0.00184934 -0.0258739 -1.61339e-05)
(0.00241361 -0.0258238 -2.10641e-05)
(0.00292653 -0.0256845 -2.55222e-05)
(0.00353439 -0.0254706 -3.08434e-05)
(0.00400565 -0.0251563 -3.49573e-05)
(0.00453149 -0.024767 -3.95439e-05)
(0.00511765 -0.0242864 -4.46701e-05)
(0.00554884 -0.0237278 -4.8432e-05)
(0.00601499 -0.0230869 -5.25018e-05)
(0.00642377 -0.022372 -5.60689e-05)
(0.00680206 -0.0215845 -5.93687e-05)
(0.00712178 -0.0207326 -6.21593e-05)
(0.00739428 -0.0198214 -6.4537e-05)
(0.00760545 -0.0188607 -6.63803e-05)
(0.00775818 -0.0178587 -6.77133e-05)
(0.00784825 -0.0168261 -6.84998e-05)
(0.00787595 -0.0157731 -6.87418e-05)
(0.00784257 -0.0147109 -6.8451e-05)
(0.00774953 -0.0136499 -6.76395e-05)
(0.00760113 -0.0126008 -6.63448e-05)
(0.000388996 -0.027344 -3.3876e-06)
(0.000871877 -0.027642 -7.60252e-06)
(0.00148767 -0.0278013 -1.29815e-05)
(0.00205243 -0.0278287 -1.79046e-05)
(0.00269063 -0.0277555 -2.34818e-05)
(0.00324953 -0.0275571 -2.83427e-05)
(0.00392589 -0.0272962 -3.42602e-05)
(0.00444013 -0.0269132 -3.87476e-05)
(0.00502309 -0.0264557 -4.38359e-05)
(0.00564913 -0.0258964 -4.93071e-05)
(0.00612166 -0.0252498 -5.3433e-05)
(0.00661972 -0.0245146 -5.77789e-05)
(0.00705287 -0.0236969 -6.15594e-05)
(0.00744969 -0.0228019 -6.50208e-05)
(0.0077763 -0.0218377 -6.78715e-05)
(0.0080507 -0.0208123 -7.02659e-05)
(0.00825192 -0.0197366 -7.20224e-05)
(0.00838967 -0.0186209 -7.32248e-05)
(0.00845466 -0.0174775 -7.37923e-05)
(0.00845265 -0.0163183 -7.37753e-05)
(0.00838221 -0.0151559 -7.31611e-05)
(0.00824878 -0.014002 -7.19971e-05)
(0.00805566 -0.0128683 -7.03121e-05)
(0.000428624 -0.0295803 -3.73459e-06)
(0.000980401 -0.0298596 -8.55191e-06)
(0.00165293 -0.0299871 -1.44211e-05)
(0.00230046 -0.0299933 -2.00678e-05)
(0.00298781 -0.0298723 -2.60729e-05)
(0.00363138 -0.0296456 -3.16693e-05)
(0.00435427 -0.0293165 -3.80019e-05)
(0.00494091 -0.0288721 -4.31153e-05)
(0.00556885 -0.0283254 -4.85984e-05)
(0.00625165 -0.0276744 -5.45663e-05)
(0.00676413 -0.0269207 -5.90374e-05)
(0.00729759 -0.0260731 -6.36968e-05)
(0.00775751 -0.0251339 -6.77075e-05)
(0.00816939 -0.0241131 -7.13028e-05)
(0.00850434 -0.0230189 -7.42246e-05)
(0.00877365 -0.0218623 -7.65758e-05)
(0.00896328 -0.0206557 -7.82306e-05)
(0.0090774 -0.0194118 -7.92272e-05)
(0.00911274 -0.0181447 -7.9536e-05)
(0.00907187 -0.0168683 -7.91798e-05)
(0.00895812 -0.0155964 -7.81877e-05)
(0.00877559 -0.0143423 -7.65953e-05)
(0.00853121 -0.0131183 -7.44631e-05)
(0.000488236 -0.0320458 -4.2553e-06)
(0.00109588 -0.0323293 -9.55896e-06)
(0.00186562 -0.0324559 -1.6278e-05)
(0.00257499 -0.0324143 -2.24616e-05)
(0.00336083 -0.032259 -2.93381e-05)
(0.00405449 -0.0319574 -3.53655e-05)
(0.0048753 -0.0315515 -4.2536e-05)
(0.0055105 -0.0310213 -4.80962e-05)
(0.00622288 -0.0303738 -5.43004e-05)
(0.00694552 -0.0296155 -6.06202e-05)
(0.00750907 -0.0287361 -6.55384e-05)
(0.00807462 -0.0277605 -7.04755e-05)
(0.00855831 -0.0266808 -7.46986e-05)
(0.00898381 -0.0255167 -7.8408e-05)
(0.00931847 -0.0242737 -8.13315e-05)
(0.0095793 -0.0229685 -8.36061e-05)
(0.00974645 -0.0216142 -8.50663e-05)
(0.00983091 -0.0202269 -8.58034e-05)
(0.00982522 -0.0188227 -8.57545e-05)
(0.00973782 -0.0174174 -8.49923e-05)
(0.00957003 -0.0160266 -8.35287e-05)
(0.00933048 -0.0146649 -8.14388e-05)
(0.00902564 -0.0133452 -7.87789e-05)
(0.000541343 -0.034869 -4.71952e-06)
(0.00124673 -0.0351262 -1.08773e-05)
(0.00207598 -0.0352175 -1.81196e-05)
(0.0028829 -0.0351406 -2.51614e-05)
(0.00374249 -0.0349255 -3.26433e-05)
(0.00457662 -0.0345633 -3.9929e-05)
(0.00544301 -0.0340593 -4.75068e-05)
(0.006164 -0.0334269 -5.37813e-05)
(0.0069349 -0.0326543 -6.0525e-05)
(0.00772784 -0.0317668 -6.7444e-05)
(0.00833763 -0.0307386 -7.27735e-05)
(0.00894162 -0.0296078 -7.80407e-05)
(0.00945375 -0.0283627 -8.25097e-05)
(0.00988779 -0.0270282 -8.63002e-05)
(0.0102231 -0.0256127 -8.9224e-05)
(0.010466 -0.0241354 -9.13459e-05)
(0.0106065 -0.0226127 -9.25723e-05)
(0.0106497 -0.0210637 -9.295e-05)
(0.0105953 -0.0195065 -9.24761e-05)
(0.0104493 -0.0179596 -9.12024e-05)
(0.0102185 -0.0164398 -8.91885e-05)
(0.00991085 -0.0149629 -8.65047e-05)
(0.00953709 -0.0135425 -8.32434e-05)
(0.000612864 -0.0379868 -5.34552e-06)
(0.00140945 -0.0382312 -1.22927e-05)
(0.00236882 -0.0382888 -2.0669e-05)
(0.00327965 -0.0381705 -2.86196e-05)
(0.00425603 -0.0378748 -3.7122e-05)
(0.00517356 -0.0374324 -4.51371e-05)
(0.00614099 -0.036839 -5.35971e-05)
(0.00692747 -0.0360842 -6.04509e-05)
(0.00779441 -0.0351624 -6.80187e-05)
(0.00863722 -0.0341218 -7.5387e-05)
(0.00931605 -0.0329226 -8.13067e-05)
(0.00995027 -0.0316078 -8.68418e-05)
(0.0104832 -0.0301697 -9.14944e-05)
(0.0109215 -0.0286398 -9.5319e-05)
(0.0112414 -0.0270266 -9.81131e-05)
(0.011458 -0.0253545 -0.000100003)
(0.0115551 -0.0236425 -0.000100852)
(0.0115457 -0.021913 -0.00010077)
(0.0114266 -0.0201874 -9.97319e-05)
(0.01121 -0.0184858 -9.78423e-05)
(0.010902 -0.0168272 -9.51551e-05)
(0.0105155 -0.0152281 -9.1783e-05)
(0.0100616 -0.0137028 -8.78222e-05)
(0.000694156 -0.0416213 -6.05558e-06)
(0.00160301 -0.0418437 -1.39875e-05)
(0.00267194 -0.0418684 -2.33179e-05)
(0.00370143 -0.041677 -3.2291e-05)
(0.00478711 -0.0412815 -4.17683e-05)
(0.00581402 -0.0407392 -5.07347e-05)
(0.00689814 -0.0400066 -6.019e-05)
(0.00784155 -0.0390897 -6.84385e-05)
(0.00877325 -0.0379926 -7.65543e-05)
(0.00966962 -0.0367523 -8.43917e-05)
(0.0104044 -0.035343 -9.08095e-05)
(0.0110767 -0.033805 -9.66748e-05)
(0.0116288 -0.0321369 -0.000101494)
(0.0120646 -0.030374 -0.000105296)
(0.0123692 -0.0285288 -0.000107954)
(0.0125462 -0.0266309 -0.000109502)
(0.0125923 -0.0247022 -0.000109904)
(0.0125146 -0.0227698 -0.000109228)
(0.0123188 -0.020857 -0.000107519)
(0.0120159 -0.0189869 -0.000104877)
(0.0116182 -0.0171792 -0.000101406)
(0.0111393 -0.0154515 -9.72281e-05)
(0.0105947 -0.0138176 -9.24759e-05)
(0.000794436 -0.0456315 -6.9323e-06)
(0.00185242 -0.0458253 -1.61636e-05)
(0.00304695 -0.0457967 -2.65906e-05)
(0.00426208 -0.0455308 -3.71886e-05)
(0.00551633 -0.0450356 -4.81225e-05)
(0.00665533 -0.04437 -5.80751e-05)
(0.00785701 -0.0434694 -6.85667e-05)
(0.00891686 -0.0423736 -7.78172e-05)
(0.00993214 -0.0410846 -8.66645e-05)
(0.0109052 -0.0396121 -9.51828e-05)
(0.0117029 -0.037965 -0.000102137)
(0.0124033 -0.0361692 -0.000108252)
(0.0129625 -0.0342404 -0.000113132)
(0.0133827 -0.0322086 -0.000116797)
(0.0136463 -0.0301007 -0.000119102)
(0.0137665 -0.027946 -0.000120151)
(0.0137361 -0.0257757 -0.000119888)
(0.0135709 -0.0236179 -0.000118447)
(0.013276 -0.0215009 -0.000115875)
(0.012869 -0.0194488 -0.000112324)
(0.0123635 -0.0174834 -0.000107913)
(0.0117781 -0.0156217 -0.000102805)
(0.0111299 -0.0138775 -9.71475e-05)
(0.000911334 -0.0504106 -7.95336e-06)
(0.00211743 -0.0505554 -1.84833e-05)
(0.00347603 -0.0504788 -3.03408e-05)
(0.00485254 -0.0500842 -4.2342e-05)
(0.00626579 -0.0494833 -5.46672e-05)
(0.00756431 -0.048618 -6.60073e-05)
(0.0089186 -0.0475173 -7.78267e-05)
(0.0101115 -0.0461808 -8.82415e-05)
(0.0112357 -0.0446263 -9.80452e-05)
(0.0122952 -0.0428585 -0.000107307)
(0.0131505 -0.0409043 -0.000114771)
(0.0138831 -0.0387859 -0.000121165)
(0.0144451 -0.0365323 -0.000126071)
(0.0148398 -0.0341784 -0.000129516)
(0.0150537 -0.0317572 -0.000131384)
(0.0150995 -0.0293057 -0.000131787)
(0.014977 -0.026858 -0.000130719)
(0.0147037 -0.0244484 -0.000128335)
(0.0142912 -0.0221063 -0.000124736)
(0.0137604 -0.0198585 -0.000120104)
(0.0131303 -0.0177265 -0.000114606)
(0.0124227 -0.0157272 -0.000108432)
(0.0116585 -0.0138721 -0.000101762)
(0.00105795 -0.0556675 -9.23508e-06)
(0.00246943 -0.0557625 -2.15567e-05)
(0.00405163 -0.0556058 -3.53602e-05)
(0.00565415 -0.055094 -4.93384e-05)
(0.00727406 -0.0543507 -6.34638e-05)
(0.00876512 -0.0532849 -7.64884e-05)
(0.0102895 -0.0519541 -8.97926e-05)
(0.0116307 -0.0503388 -0.000101502)
(0.0128685 -0.0484782 -0.000112291)
(0.0140103 -0.0463695 -0.000122276)
(0.0149105 -0.0440636 -0.00013013)
(0.0156534 -0.0415733 -0.000136615)
(0.0161899 -0.0389523 -0.0001413)
(0.0165277 -0.0362295 -0.000144248)
(0.0166558 -0.0334574 -0.000145369)
(0.0165926 -0.0306717 -0.000144819)
(0.0163424 -0.027919 -0.000142638)
(0.0159287 -0.0252331 -0.000139028)
(0.0153686 -0.02265 -0.000134142)
(0.0146884 -0.0201951 -0.000128206)
(0.0139118 -0.0178915 -0.000121429)
(0.0130645 -0.0157533 -0.000114034)
(0.0121704 -0.0137905 -0.000106232)
(0.00122154 -0.0621226 -1.0662e-05)
(0.00285158 -0.0621476 -2.48899e-05)
(0.00467122 -0.0619035 -4.07706e-05)
(0.00651119 -0.0611899 -5.68208e-05)
(0.00835926 -0.0602386 -7.29396e-05)
(0.0100764 -0.0588582 -8.79361e-05)
(0.0117931 -0.0572205 -0.000102916)
(0.0132992 -0.0552147 -0.000116067)
(0.0146662 -0.0529558 -0.000127981)
(0.0159041 -0.050396 -0.000138803)
(0.0168519 -0.0476367 -0.000147076)
(0.0176084 -0.0446743 -0.000153678)
(0.0181097 -0.0415928 -0.000158057)
(0.0183797 -0.0384216 -0.000160412)
(0.0184007 -0.0352281 -0.0001606)
(0.0182068 -0.0320541 -0.00015891)
(0.0178017 -0.0289518 -0.000155377)
(0.017222 -0.0259599 -0.000150319)
(0.0164879 -0.0231143 -0.000143913)
(0.0156352 -0.0204417 -0.000136472)
(0.0146913 -0.0179617 -0.000128235)
(0.0136879 -0.0156865 -0.000119478)
(0.0126514 -0.013621 -0.000110431)
(0.00145373 -0.0691808 -1.26885e-05)
(0.00337408 -0.069123 -2.94508e-05)
(0.00554457 -0.0687535 -4.83917e-05)
(0.00769894 -0.0678426 -6.71876e-05)
(0.00985241 -0.0666741 -8.59668e-05)
(0.0118325 -0.064989 -0.000103261)
(0.0137668 -0.0629498 -0.000120148)