/*--------------------------------*- C++ -*----------------------------------*\
| =========                 |                                                 |
| \\      /  F ield         | OpenFOAM: The Open Source CFD Toolbox           |
|  \\    /   O peration     | Version:  v2012                                 |
|   \\  /    A nd           | Website:  www.openfoam.com                      |
|    \\/     M anipulation  |                                                 |
\*---------------------------------------------------------------------------*/
FoamFile
{
    version     2.0;
    format      ascii;
    class       surfaceScalarField;
    location    "0.85";
    object      phi;
}
// * * * * * * * * * * * * * * * * * * * * * * * * * * * * * * * * * * * * * //

dimensions      [0 3 -1 0 0 0 0];
oriented        oriented;


internalField   nonuniform List<scalar> 
6434
(
-3.8957e-12
-1.67327e-09
1.28201e-14
8.40003e-11
-2.67922e-09
1.89923e-14
2.45916e-10
-2.33102e-09
1.67828e-14
3.90993e-10
-1.45309e-09
1.34255e-14
-3.63394e-10
1.11377e-14
-3.0996e-11
-1.64227e-09
1.17351e-14
-8.08829e-11
-2.62932e-09
1.72304e-14
-1.04484e-10
-2.30739e-09
1.44752e-14
-9.45956e-11
-1.46294e-09
1.24643e-14
-4.57929e-10
1.27299e-14
-2.29821e-11
-1.61928e-09
1.30906e-14
-3.50295e-11
-2.61724e-09
1.89408e-14
-1.84433e-11
-2.32394e-09
1.66416e-14
2.20909e-11
-1.50341e-09
1.4716e-14
-4.35746e-10
1.29319e-14
-2.68428e-11
-1.59244e-09
1.22369e-14
-6.04115e-11
-2.58367e-09
1.71583e-14
-6.5859e-11
-2.31849e-09
1.31309e-14
-4.08635e-11
-1.52838e-09
9.11035e-15
-4.76588e-10
4.6355e-15
-2.51115e-11
-1.56732e-09
1.42563e-14
-5.36031e-11
-2.55516e-09
2.00017e-14
-5.20059e-11
-2.32005e-09
1.75559e-14
-1.893e-11
-1.56142e-09
1.17418e-14
-4.9547e-10
7.65603e-15
-2.667e-11
-1.54065e-09
1.36501e-14
-6.16792e-11
-2.52015e-09
1.89107e-14
-6.50118e-11
-2.31671e-09
1.50272e-14
-3.45801e-11
-1.59186e-09
7.0174e-15
-5.30059e-10
1.11626e-15
-2.79361e-11
-1.51271e-09
1.45968e-14
-6.37787e-11
-2.4843e-09
2.09138e-14
-6.4036e-11
-2.31644e-09
1.66133e-14
-2.80775e-11
-1.62779e-09
1.26709e-14
-5.58092e-10
7.68985e-15
-3.11818e-11
-1.48153e-09
1.43416e-14
-7.09328e-11
-2.44455e-09
2.0599e-14
-7.25429e-11
-2.31484e-09
1.50801e-14
-3.65636e-11
-1.66377e-09
9.01155e-15
-5.94661e-10
2.07268e-15
-3.45868e-11
-1.44694e-09
1.5984e-14
-7.50137e-11
-2.40412e-09
2.36821e-14
-7.32672e-11
-2.31658e-09
1.89025e-14
-3.25984e-11
-1.70443e-09
1.08604e-14
-6.27252e-10
3.52378e-15
-3.87592e-11
-1.40819e-09
1.63676e-14
-8.10283e-11
-2.36186e-09
2.44733e-14
-7.94481e-11
-2.31817e-09
1.81875e-14
-3.85083e-11
-1.7454e-09
8.18258e-15
-6.65797e-10
-1.23939e-15
-4.21151e-11
-1.36607e-09
1.81001e-14
-8.31158e-11
-2.32086e-09
2.71427e-14
-7.81628e-11
-2.32313e-09
2.13913e-14
-3.39479e-11
-1.78961e-09
1.38878e-14
-6.99733e-10
4.92501e-15
-4.54912e-11
-1.32059e-09
1.91719e-14
-8.58563e-11
-2.28051e-09
2.93951e-14
-8.15648e-11
-2.32745e-09
2.15143e-14
-3.75911e-11
-1.8336e-09
1.21444e-14
-7.37351e-10
8.39258e-16
-4.76767e-11
-1.27291e-09
2.27798e-14
-8.31498e-11
-2.24504e-09
3.5563e-14
-7.51691e-11
-2.33544e-09
2.75939e-14
-2.96107e-11
-1.87917e-09
1.47986e-14
-7.66977e-10
2.5027e-15
-5.11757e-11
-1.22174e-09
2.5586e-14
-8.12149e-11
-2.21501e-09
4.03423e-14
-7.65663e-11
-2.34011e-09
2.95763e-14
-2.86863e-11
-1.92708e-09
1.42196e-14
-7.9571e-10
-7.46949e-16
-5.11983e-11
-1.17054e-09
3.16298e-14
-7.00431e-11
-2.19618e-09
4.78899e-14
-5.34103e-11
-2.35676e-09
3.40943e-14
-5.78176e-12
-1.97473e-09
1.70535e-14
-8.01525e-10
1.3534e-15
-7.93501e-11
-1.0912e-09
4.02686e-14
-8.54614e-11
-2.19009e-09
5.89465e-14
-7.81909e-11
-2.36405e-09
3.79134e-14
-2.37882e-13
-2.05271e-09
1.80181e-14
-8.0178e-10
3.42466e-15
-6.40531e-11
-1.02715e-09
6.06445e-14
-8.61351e-11
-2.16805e-09
6.908e-14
-1.44876e-11
-2.4357e-09
4.16032e-14
6.54171e-11
-2.13267e-09
2.32736e-14
-7.36355e-10
2.43412e-14
-9.99687e-10
-1.18435e-09
1.70552e-13
-8.13034e-10
-2.40425e-09
8.33983e-14
-4.12327e-10
-2.8364e-09
4.30084e-14
-1.13764e-10
-2.43142e-09
5.33221e-15
-8.50494e-10
-2.37769e-14
-1.57338e-09
-1.60666e-09
4.73937e-14
-1.66134e-09
-3.02512e-09
1.09497e-13
-9.18257e-10
-3.59085e-09
3.65306e-14
-3.48526e-10
-3.00066e-09
7.19989e-14
-1.19869e-09
7.61743e-15
-1.60969e-09
-1.98145e-09
-5.72122e-14
-1.38557e-09
-3.55994e-09
-1.75288e-12
-8.7593e-10
-4.26592e-09
2.88409e-13
-4.2418e-10
-3.49228e-09
-5.33484e-14
-1.62292e-09
-4.14033e-14
-2.14641e-10
-1.99988e-09
1.87868e-12
-1.66726e-10
-3.68864e-09
-1.01692e-12
-1.42469e-10
-4.37096e-09
-1.34479e-12
-6.22004e-11
-3.66541e-09
-1.25701e-13
-1.69198e-09
1.44975e-15
-1.12161e-10
-1.88777e-09
4.24467e-14
-1.4311e-10
-3.65767e-09
5.29239e-14
-1.97462e-10
-4.31663e-09
3.47851e-14
-7.79802e-11
-3.78629e-09
2.25936e-14
-1.7728e-09
7.41439e-15
-4.43716e-11
-1.84342e-09
2.47546e-14
-7.05641e-11
-3.63146e-09
5.77139e-14
-7.18694e-11
-4.31531e-09
4.45885e-14
-1.6165e-11
-3.84197e-09
2.86899e-14
-1.78892e-09
1.19276e-14
-5.16698e-11
-1.79177e-09
3.12227e-14
-9.18582e-11
-3.59127e-09
6.42322e-14
-9.4601e-11
-4.31257e-09
4.68707e-14
-3.87706e-11
-3.89779e-09
2.71744e-14
-1.82768e-09
8.37429e-15
-4.82076e-11
-1.74358e-09
3.70142e-14
-8.3783e-11
-3.55567e-09
7.48219e-14
-7.35858e-11
-4.32276e-09
5.3009e-14
-2.8111e-11
-3.94326e-09
2.85694e-14
-1.85578e-09
9.16949e-15
-4.98544e-11
-1.69375e-09
4.40603e-14
-8.30197e-11
-3.5225e-09
8.53712e-14
-7.11009e-11
-4.33468e-09
5.45007e-14
-2.84471e-11
-3.98593e-09
2.58004e-14
-1.88424e-09
5.20629e-15
-5.09045e-11
-1.64287e-09
5.50608e-14
-8.15126e-11
-3.49189e-09
1.00703e-13
-6.80641e-11
-4.34813e-09
5.79958e-14
-2.7246e-11
-4.02674e-09
2.81195e-14
-1.91147e-09
9.00542e-15
-4.96536e-11
-1.59324e-09
7.14359e-14
-6.97171e-11
-3.47182e-09
1.18742e-13
-4.95984e-11
-4.36827e-09
5.80344e-14
-1.18858e-11
-4.06447e-09
2.34194e-14
-1.92337e-09
5.00467e-15
-5.38582e-11
-1.53938e-09
1.06478e-13
-7.47511e-11
-3.45093e-09
1.41584e-13
-5.96522e-11
-4.38337e-09
6.02605e-14
-1.82377e-11
-4.10588e-09
2.0952e-14
-1.94161e-09
4.46845e-15
-4.5435e-11
-1.49395e-09
1.77021e-13
-4.50166e-11
-3.45136e-09
1.64949e-13
-5.53084e-12
-4.42287e-09
5.28162e-14
3.05485e-11
-4.14199e-09
1.23933e-14
-1.91109e-09
-5.61864e-17
-9.88362e-11
-1.39513e-09
3.38155e-13
-1.33541e-10
-3.41664e-09
1.84859e-13
-1.20671e-10
-4.43573e-09
4.35895e-14
-3.6899e-11
-4.22575e-09
1.19434e-14
-1.94797e-09
5.15965e-15
-3.98453e-12
-1.39991e-09
5.741e-13
-2.97869e-11
-3.3909e-09
1.61049e-13
8.98392e-11
-4.55537e-09
2.51912e-14
1.38974e-10
-4.27495e-09
-1.55585e-15
-1.80906e-09
-6.14294e-15
-1.39178e-09
-1.57839e-09
-8.28128e-12
-1.3778e-09
-3.64031e-09
-4.94472e-13
-9.38381e-10
-4.9948e-09
3.55348e-15
-4.62361e-10
-4.75095e-09
-8.57326e-15
-2.27147e-09
-3.4074e-14
-5.05696e-11
-1.24961e-14
-6.1897e-10
2.93754e-14
-3.65807e-10
1.05304e-14
-3.07214e-11
1.18218e-14
3.55999e-14
-7.12543e-11
-5.82436e-12
1.6137e-16
-6.59802e-11
-5.27395e-12
1.59374e-16
-6.1159e-11
-4.82092e-12
1.61062e-16
-5.6709e-11
-4.44984e-12
1.55177e-16
-5.25604e-11
-4.14828e-12
1.46979e-16
-4.86544e-11
-3.90555e-12
1.41534e-16
-4.49414e-11
-3.71275e-12
1.37849e-16
-4.1379e-11
-3.56194e-12
1.36497e-16
-3.79336e-11
-3.44528e-12
1.32794e-16
-3.45751e-11
-3.358e-12
1.2822e-16
-3.12832e-11
-3.29165e-12
1.22952e-16
-2.8041e-11
-3.24173e-12
1.16924e-16
-2.48401e-11
-3.20054e-12
1.08153e-16
-2.16786e-11
-3.16138e-12
1.18316e-16
-1.85591e-11
-3.11909e-12
9.35458e-17
-1.54957e-11
-3.06315e-12
8.67377e-17
-1.25084e-11
-2.98691e-12
8.25065e-17
-9.62835e-12
-2.87972e-12
7.73536e-17
-6.89649e-12
-2.73154e-12
7.32359e-17
-4.36433e-12
-2.53177e-12
6.94875e-17
-2.09643e-12
-2.2675e-12
6.52896e-17
-1.67657e-13
-1.92834e-12
6.32849e-17
1.33985e-12
-1.50704e-12
6.02654e-17
2.33879e-12
-9.98439e-13
5.72995e-17
2.75062e-12
-4.11307e-13
5.08128e-17
2.53593e-12
2.15237e-13
5.30245e-17
1.74155e-12
7.94964e-13
4.58699e-17
6.67958e-13
1.07421e-12
4.41457e-17
6.68611e-13
3.73126e-17
-2.0561e-10
-2.18863e-11
4.01646e-16
-1.90989e-10
-1.98954e-11
3.93863e-16
-1.77559e-10
-1.82505e-11
3.89595e-16
-1.65109e-10
-1.69e-11
3.75372e-16
-1.53456e-10
-1.58014e-11
3.51595e-16
-1.42443e-10
-1.49176e-11
3.47524e-16
-1.31938e-10
-1.42176e-11
3.27381e-16
-1.21827e-10
-1.3673e-11
3.29439e-16
-1.12017e-10
-1.32553e-11
3.19854e-16
-1.02427e-10
-1.29474e-11
3.091e-16
-9.30009e-11
-1.27175e-11
2.94951e-16
-8.3693e-11
-1.2549e-11
2.81099e-16
-7.44808e-11
-1.24125e-11
2.61403e-16
-6.536e-11
-1.22823e-11
2.48148e-16
-5.63398e-11
-1.21387e-11
2.30217e-16
-4.7462e-11
-1.19408e-11
2.1373e-16
-3.87853e-11
-1.16632e-11
1.99022e-16
-3.03999e-11
-1.12647e-11
1.83052e-16
-2.24244e-11
-1.07068e-11
1.6911e-16
-1.50067e-11
-9.94899e-12
1.55251e-16
-8.33116e-12
-8.94265e-12
1.42852e-16
-2.60894e-12
-7.65008e-12
1.31303e-16
1.92673e-12
-6.04221e-12
1.19994e-16
5.03817e-12
-4.10934e-12
1.08951e-16
6.51754e-12
-1.89009e-12
8.97232e-17
6.26873e-12
4.64652e-13
9.36445e-17
4.44296e-12
2.62139e-12
7.33107e-17
1.80287e-12
3.71495e-12
6.26825e-17
2.47217e-12
4.49147e-17
-3.3026e-10
-4.64657e-11
6.38482e-16
-3.07741e-10
-4.24147e-11
6.2215e-16
-2.86938e-10
-3.90537e-11
6.10862e-16
-2.67552e-10
-3.62862e-11
5.90592e-16
-2.49321e-10
-3.40322e-11
5.68691e-16
-2.32018e-10
-3.22197e-11
5.49038e-16
-2.15448e-10
-3.07878e-11
5.22354e-16
-1.9944e-10
-2.96798e-11
5.17675e-16
-1.83859e-10
-2.88373e-11
5.01502e-16
-1.68579e-10
-2.82261e-11
4.8345e-16
-1.53518e-10
-2.77787e-11
4.62277e-16
-1.38606e-10
-2.74604e-11
4.39186e-16
-1.23811e-10
-2.72077e-11
4.13824e-16
-1.09128e-10
-2.69655e-11
3.8857e-16
-9.45745e-11
-2.66911e-11
3.66415e-16
-8.02201e-11
-2.62953e-11
3.41188e-16
-6.61604e-11
-2.57224e-11
3.12484e-16
-5.25419e-11
-2.48828e-11
2.85992e-16
-3.95559e-11
-2.36926e-11
2.61917e-16
-2.74399e-11
-2.20644e-11
2.37123e-16
-1.64887e-11
-1.98935e-11
2.1814e-16
-7.03793e-12
-1.71004e-11
1.95956e-16
5.44617e-13
-1.36242e-11
1.76932e-16
5.88891e-12
-9.45308e-12
1.61907e-16
8.67761e-12
-4.67837e-12
1.1088e-16
8.77103e-12
3.71796e-13
1.46399e-16
6.40993e-12
4.98316e-12
9.82807e-17
2.69193e-12
7.43359e-12
8.46944e-17
5.16479e-12
5.02134e-17
-4.44173e-10
-7.77046e-11
8.70831e-16
-4.15329e-10
-7.12596e-11
8.48179e-16
-3.88495e-10
-6.58877e-11
8.29194e-16
-3.63331e-10
-6.14511e-11
8.01491e-16
-3.3953e-10
-5.78328e-11
7.73761e-16
-3.16823e-10
-5.49253e-11
7.47209e-16
-2.94975e-10
-5.26359e-11
7.25239e-16
-2.73778e-10
-5.08761e-11
7.05235e-16
-2.53064e-10
-4.95524e-11
6.79816e-16
-2.32678e-10
-4.86113e-11
6.54817e-16
-2.12517e-10
-4.794e-11
6.26419e-16
-1.92495e-10
-4.74818e-11
5.95581e-16
-1.72573e-10
-4.71291e-11
5.62308e-16
-1.52751e-10
-4.67879e-11
5.30206e-16
-1.33055e-10
-4.63858e-11
5.14755e-16
-1.13582e-10
-4.57685e-11
4.82067e-16
-9.44636e-11
-4.48406e-11
4.24201e-16
-7.58985e-11
-4.34473e-11
3.88098e-16
-5.81462e-11
-4.14447e-11
3.53085e-16
-4.15269e-11
-3.86832e-11
3.20598e-16
-2.64361e-11
-3.49839e-11
2.91266e-16
-1.33223e-11
-3.02137e-11
2.59944e-16
-2.67312e-12
-2.42728e-11
2.32805e-16
5.02298e-12
-1.71487e-11
2.24062e-16
9.355e-12
-9.00979e-12
1.70429e-16
1.01429e-11
-4.15529e-13
1.58692e-16
7.69112e-12
7.43566e-12
1.2192e-16
3.32918e-12
1.17961e-11
1.1908e-16
8.49466e-12
5.58501e-17
-5.46795e-10
-1.13734e-10
1.09687e-15
-5.13222e-10
-1.04834e-10
1.06715e-15
-4.8173e-10
-9.73791e-11
1.04122e-15
-4.5198e-10
-9.12035e-11
1.00757e-15
-4.2365e-10
-8.61617e-11
9.72982e-16
-3.96459e-10
-8.21155e-11
9.4022e-16
-3.70151e-10
-7.89438e-11
9.13281e-16
-3.44499e-10
-7.6527e-11
8.96461e-16
-3.19318e-10
-7.4735e-11
8.54066e-16
-2.94433e-10
-7.34952e-11
8.21982e-16
-2.6973e-10
-7.26432e-11
7.86369e-16
-2.45113e-10
-7.2098e-11
7.48376e-16
-2.20542e-10
-7.16997e-11
7.06867e-16
-1.96023e-10
-7.1308e-11
6.66212e-16
-1.71593e-10
-7.08149e-11
6.42051e-16
-1.47375e-10
-6.99869e-11
6.00483e-16
-1.23534e-10
-6.86801e-11
5.33218e-16
-1.00321e-10
-6.66603e-11
4.84596e-16
-7.80557e-11
-6.37098e-11
4.41841e-16
-5.71347e-11
-5.96036e-11
4.00768e-16
-3.80451e-11
-5.40732e-11
3.62372e-16
-2.13366e-11
-4.69217e-11
3.21462e-16
-7.60411e-12
-3.80048e-11
2.86241e-16
2.5595e-12
-2.73119e-11
2.31769e-16
8.65853e-12
-1.51082e-11
2.14317e-16
1.04706e-11
-2.227e-12
1.83993e-16
8.3342e-12
9.57277e-12
1.44252e-16
3.72747e-12
1.64035e-11
1.14323e-16
1.22228e-11
6.12883e-17
-6.37978e-10
-1.52781e-10
1.31565e-15
-6.01213e-10
-1.416e-10
1.27881e-15
-5.66404e-10
-1.32189e-10
1.2469e-15
-5.33239e-10
-1.2437e-10
1.20607e-15
-5.01416e-10
-1.17984e-10
1.16595e-15
-4.70658e-10
-1.12871e-10
1.12725e-15
-4.40714e-10
-1.08888e-10
1.09298e-15
-4.11349e-10
-1.0589e-10
1.06049e-15
-3.82377e-10
-1.0371e-10
1.02226e-15
-3.53611e-10
-1.02259e-10
9.83985e-16
-3.24936e-10
-1.01319e-10
9.4027e-16
-2.96251e-10
-1.00782e-10
8.95849e-16
-2.6752e-10
-1.00431e-10
8.46937e-16
-2.38757e-10
-1.00073e-10
7.95902e-16
-2.10011e-10
-9.95595e-11
7.46668e-16
-1.81432e-10
-9.85665e-11
6.95291e-16
-1.53217e-10
-9.68938e-11
6.37925e-16
-1.25662e-10
-9.42147e-11
5.79286e-16
-9.91454e-11
-9.02266e-11
5.2797e-16
-7.41307e-11
-8.46177e-11
4.78001e-16
-5.11878e-11
-7.70157e-11
4.3099e-16
-3.09571e-11
-6.7152e-11
3.819e-16
-1.41285e-11
-5.48328e-11
3.39096e-16
-1.38847e-12
-4.00513e-11
2.90778e-16
6.6891e-12
-2.31852e-11
2.52468e-16
9.83355e-12
-5.37082e-12
2.13308e-16
8.38676e-12
1.10202e-11
1.65608e-16
3.90382e-12
2.08871e-11
1.22603e-16
1.61273e-11
6.46497e-17
-7.17916e-10
-1.93242e-10
1.52565e-15
-6.79376e-10
-1.80141e-10
1.48395e-15
-6.42502e-10
-1.69063e-10
1.44469e-15
-6.07036e-10
-1.59839e-10
1.39793e-15
-5.72713e-10
-1.52307e-10
1.35161e-15
-5.3928e-10
-1.46301e-10
1.30729e-15
-5.06504e-10
-1.41665e-10
1.26764e-15
-4.74159e-10
-1.38233e-10
1.22639e-15
-4.42064e-10
-1.35808e-10
1.18432e-15
-4.10033e-10
-1.34288e-10
1.13995e-15
-3.77957e-10
-1.33397e-10
1.09072e-15
-3.45733e-10
-1.33004e-10
1.03815e-15
-3.13335e-10
-1.32829e-10
9.81734e-16
-2.80785e-10
-1.32623e-10
9.22439e-16
-2.48148e-10
-1.32195e-10
8.62263e-16
-2.15598e-10
-1.31117e-10
8.01857e-16
-1.83363e-10
-1.29128e-10
7.37321e-16
-1.51779e-10
-1.25798e-10
6.70852e-16
-1.21277e-10
-1.20729e-10
6.11654e-16
-9.23817e-11
-1.13512e-10
5.52398e-16
-6.57359e-11
-1.03661e-10
4.96327e-16
-4.20601e-11
-9.08273e-11
4.39429e-16
-2.21287e-11
-7.47636e-11
3.89961e-16
-6.71157e-12
-5.54679e-11
3.38879e-16
3.54216e-12
-3.34383e-11
2.83613e-16
8.30629e-12
-1.01343e-11
2.42318e-16
7.8954e-12
1.14318e-11
1.87098e-16
3.87663e-12
2.49065e-11
1.34686e-16
2.00046e-11
6.86019e-17
-7.87064e-10
-2.33726e-10
1.72509e-15
-7.48005e-10
-2.19201e-10
1.67762e-15
-7.102e-10
-2.06869e-10
1.63336e-15
-6.73456e-10
-1.96585e-10
1.58198e-15
-6.37559e-10
-1.88205e-10
1.52817e-15
-6.02294e-10
-1.81564e-10
1.47925e-15
-5.67454e-10
-1.76506e-10
1.43372e-15
-5.32833e-10
-1.72852e-10
1.38817e-15
-4.98265e-10
-1.7038e-10
1.33936e-15
-4.63572e-10
-1.68978e-10
1.28901e-15
-4.28654e-10
-1.68316e-10
1.2336e-15
-3.93416e-10
-1.68241e-10
1.17556e-15
-3.57839e-10
-1.68406e-10
1.11059e-15
-3.2196e-10
-1.68503e-10
1.04369e-15
-2.85857e-10
-1.68297e-10
9.75804e-16
-2.49728e-10
-1.67247e-10
9.06882e-16
-2.13828e-10
-1.65027e-10
8.33348e-16
-1.78531e-10
-1.61094e-10
7.5889e-16
-1.44314e-10
-1.54946e-10
6.89856e-16
-1.11755e-10
-1.46071e-10
6.23464e-16
-8.15613e-11
-1.33855e-10
5.60783e-16
-5.45231e-11
-1.17865e-10
4.95271e-16
-3.14891e-11
-9.7797e-11
4.38596e-16
-1.33049e-11
-7.36515e-11
3.8063e-16
-6.91721e-13
-4.60511e-11
2.98813e-16
5.95924e-12
-1.67847e-11
2.70331e-16
6.90496e-12
1.04867e-11
2.0821e-16
3.66446e-12
2.81476e-11
1.44918e-16
2.36698e-11
7.28613e-17
-8.46068e-10
-2.73076e-10
1.91463e-15
-8.07564e-10
-2.57706e-10
1.86127e-15
-7.69819e-10
-2.44615e-10
1.81201e-15
-7.32711e-10
-2.33695e-10
1.75552e-15
-6.96082e-10
-2.24834e-10
1.69717e-15
-6.5976e-10
-2.17884e-10
1.6424e-15
-6.23573e-10
-2.12693e-10
1.59032e-15
-5.87342e-10
-2.09082e-10
1.54075e-15
-5.50921e-10
-2.06805e-10
1.48634e-15
-5.14145e-10
-2.05751e-10
1.43054e-15
-4.76929e-10
-2.05535e-10
1.36892e-15
-4.39186e-10
-2.05982e-10
1.30344e-15
-4.00911e-10
-2.06681e-10
1.23274e-15
-3.62154e-10
-2.07263e-10
1.15878e-15
-3.23004e-10
-2.07444e-10
1.08723e-15
-2.83685e-10
-2.06567e-10
1.00676e-15
-2.44475e-10
-2.04236e-10
9.24604e-16
-2.05782e-10
-1.99786e-10
8.40944e-16
-1.68122e-10
-1.92606e-10
7.63872e-16
-1.32119e-10
-1.82073e-10
6.90924e-16
-9.85364e-11
-1.67437e-10
6.21349e-16
-6.82244e-11
-1.48177e-10
5.49553e-16
-4.20963e-11
-1.23924e-10
4.84781e-16
-2.1066e-11
-9.46813e-11
4.20182e-16
-5.92503e-12
-6.11915e-11
3.53679e-16
2.85891e-12
-2.5568e-11
2.98224e-16
5.45804e-12
7.88826e-12
2.27879e-16
3.28514e-12
3.03211e-11
1.56647e-16
2.69556e-11
7.75975e-17
-8.95697e-10
-3.10369e-10
2.09267e-15
-8.58633e-10
-2.94772e-10
2.03432e-15
-8.2179e-10
-2.81459e-10
1.97978e-15
-7.85112e-10
-2.70376e-10
1.91864e-15
-7.48495e-10
-2.61451e-10
1.85556e-15
-7.11816e-10
-2.5456e-10
1.79567e-15
-6.7494e-10
-2.49571e-10
1.72874e-15
-6.37715e-10
-2.46304e-10
1.68406e-15
-6.00021e-10
-2.44502e-10
1.62376e-15
-5.61712e-10
-2.44058e-10
1.56339e-15
-5.22716e-10
-2.44533e-10
1.4963e-15
-4.8296e-10
-2.45736e-10
1.42595e-15
-4.42452e-10
-2.47189e-10
1.3479e-15
-4.01254e-10
-2.48462e-10
1.26732e-15
-3.59471e-10
-2.49224e-10
1.20267e-15
-3.17345e-10
-2.48695e-10
1.10085e-15
-2.75176e-10
-2.46404e-10
1.01038e-15
-2.33401e-10
-2.41561e-10
9.18916e-16
-1.92569e-10
-2.33439e-10
8.35342e-16
-1.53344e-10
-2.21297e-10
7.54339e-16
-1.16535e-10
-2.04246e-10
6.78123e-16
-8.30432e-11
-1.81668e-10
6.0137e-16
-5.38383e-11
-1.53129e-10
5.28097e-16
-2.98954e-11
-1.18624e-10
4.5252e-16
-1.20753e-11
-7.9011e-11
3.97007e-16
-9.32077e-13
-3.67107e-11
3.25726e-16
3.59479e-12
3.36202e-12
2.46165e-16
2.75543e-12
3.11611e-11
1.69702e-16
2.97117e-11
8.02982e-17
-9.36788e-10
-3.44901e-10
2.25778e-15
-9.01868e-10
-3.29693e-10
2.19464e-15
-8.66617e-10
-3.16711e-10
2.13591e-15
-8.31038e-10
-3.05959e-10
2.07067e-15
-7.95079e-10
-2.97411e-10
2.00395e-15
-7.5866e-10
-2.90977e-10
1.93927e-15
-7.21683e-10
-2.86548e-10
1.87797e-15
-6.84028e-10
-2.83957e-10
1.81871e-15
-6.45599e-10
-2.82936e-10
1.75418e-15
-6.06267e-10
-2.83387e-10
1.68774e-15
-5.65981e-10
-2.84821e-10
1.61515e-15
-5.24679e-10
-2.87036e-10
1.53811e-15
-4.82383e-10
-2.89486e-10
1.45634e-15
-4.39168e-10
-2.9168e-10
1.36787e-15
-3.9515e-10
-2.93239e-10
1.2812e-15
-3.5059e-10
-2.93256e-10
1.18686e-15
-3.05807e-10
-2.91187e-10
1.09025e-15
-2.61259e-10
-2.86107e-10
9.91541e-16
-2.17526e-10
-2.77173e-10
9.01385e-16
-1.753e-10
-2.63522e-10
8.1338e-16
-1.35431e-10
-2.44116e-10
7.31301e-16
-9.88605e-11
-2.18237e-10
6.4625e-16
-6.66054e-11
-1.85383e-10
5.68394e-16
-3.96961e-11
-1.45532e-10
4.67907e-16
-1.90623e-11
-9.96443e-11
4.45881e-16
-5.35208e-12
-5.04204e-11
3.58478e-16
1.3528e-12
-3.34225e-12
2.63995e-16
2.09083e-12
3.04237e-11
1.77919e-16
3.18032e-11
8.38871e-17
-9.70201e-10
-3.76167e-10
2.40987e-15
-9.37959e-10
-3.61937e-10
2.34294e-15
-9.04848e-10
-3.49823e-10
2.27997e-15
-8.70918e-10
-3.39892e-10
2.21179e-15
-8.3616e-10
-3.32168e-10
2.13872e-15
-8.00535e-10
-3.266e-10
2.07197e-15
-7.63978e-10
-3.23106e-10
2.00656e-15
-7.26396e-10
-3.21536e-10
1.94422e-15
-6.8772e-10
-3.21617e-10
1.8745e-15
-6.47838e-10
-3.23265e-10
1.80282e-15
-6.06717e-10
-3.25945e-10
1.72521e-15
-5.64308e-10
-3.29442e-10
1.64249e-15
-5.20645e-10
-3.3315e-10
1.5544e-15
-4.75816e-10
-3.36511e-10
1.46115e-15
-4.29949e-10
-3.39104e-10
1.3656e-15
-3.83316e-10
-3.3989e-10
1.26857e-15
-3.36253e-10
-3.38249e-10
1.16074e-15
-2.89236e-10
-3.33123e-10
1.05876e-15
-2.42867e-10
-3.23543e-10
9.62307e-16
-1.97862e-10
-3.08525e-10
8.68558e-16
-1.55101e-10
-2.86877e-10
7.81371e-16
-1.15558e-10
-2.57779e-10
6.89658e-16
-8.02894e-11
-2.20651e-10
6.06608e-16
-5.0374e-11
-1.75447e-10
5.20458e-16
-2.6809e-11
-1.23209e-10
4.56922e-16
-1.03465e-11
-6.68824e-11
4.06655e-16
-1.23307e-12
-1.24551e-11
2.80546e-16
1.30466e-12
2.78866e-11
1.8651e-16
3.31085e-11
8.55732e-17
-9.96786e-10
-4.03831e-10
2.54782e-15
-9.67605e-10
-3.91118e-10
2.47815e-15
-9.3705e-10
-3.8038e-10
2.41179e-15
-9.05206e-10
-3.7174e-10
2.33909e-15
-8.72098e-10
-3.65277e-10
2.26549e-15
-8.37717e-10
-3.60978e-10
2.19354e-15
-8.02029e-10
-3.58796e-10
2.11538e-15
-7.64966e-10
-3.58597e-10
2.06898e-15
-7.26479e-10
-3.60109e-10
1.98431e-15
-6.86477e-10
-3.63264e-10
1.90834e-15
-6.44939e-10
-3.67485e-10
1.82619e-15
-6.01831e-10
-3.72549e-10
1.73803e-15
-5.57197e-10
-3.77784e-10
1.64506e-15
-5.11136e-10
-3.82575e-10
1.54533e-15
-4.63784e-10
-3.86454e-10
1.44258e-15
-4.15425e-10
-3.8825e-10
1.34229e-15
-3.66405e-10
-3.87268e-10
1.21166e-15
-3.17215e-10
-3.82312e-10
1.12078e-15
-2.6847e-10
-3.72289e-10
1.0183e-15
-2.20906e-10
-3.56088e-10
9.1872e-16
-1.75423e-10
-3.32361e-10
8.26224e-16
-1.33021e-10
-3.00181e-10
7.2804e-16
-9.47845e-11
-2.58887e-10
6.41567e-16
-6.18369e-11
-2.08394e-10
5.56188e-16
-3.52414e-11
-1.49804e-10
4.78139e-16
-1.58612e-11
-8.62621e-11
4.28553e-16
-4.13099e-12
-2.41848e-11
2.95805e-16
4.04478e-13
2.33517e-11
1.95644e-16
3.35136e-11
8.79792e-17
-1.01736e-09
-4.27704e-10
2.67297e-15
-9.91491e-10
-4.16985e-10
2.60075e-15
-9.63791e-10
-4.0808e-10
2.53157e-15
-9.34366e-10
-4.01169e-10
2.45618e-15
-9.03264e-10
-3.96379e-10
2.3886e-15
-8.705e-10
-3.93739e-10
2.30501e-15
-8.36063e-10
-3.93235e-10
2.2433e-15
-7.99904e-10
-3.94753e-10
2.16231e-15
-7.61994e-10
-3.98025e-10
2.08394e-15
-7.22255e-10
-4.03e-10
2.00429e-15
-6.80683e-10
-4.09061e-10
1.91791e-15
-6.3725e-10
-4.15979e-10
1.82588e-15
-5.92013e-10
-4.23022e-10
1.72728e-15
-5.45077e-10
-4.29514e-10
1.60624e-15
-4.96585e-10
-4.34943e-10
1.49887e-15
-4.46829e-10
-4.38007e-10
1.40956e-15
-3.96162e-10
-4.37934e-10
1.29033e-15
-3.45083e-10
-4.3339e-10
1.17744e-15
-2.94218e-10
-4.23155e-10
1.06914e-15
-2.44311e-10
-4.05993e-10
9.63273e-16
-1.96278e-10
-3.80394e-10
8.65358e-16
-1.51134e-10
-3.45325e-10
7.62588e-16
-1.09987e-10
-3.00033e-10
6.73067e-16
-7.39956e-11
-2.44385e-10
5.84518e-16
-4.42883e-11
-1.79511e-10
5.0596e-16
-2.18456e-11
-1.08704e-10
4.29456e-16
-7.31098e-12
-3.87188e-11
3.08891e-16
-5.93011e-13
1.66343e-11
2.03708e-16
3.29211e-11
9.01594e-17
-1.03267e-09
-4.47709e-10
2.78605e-15
-1.01027e-09
-4.39393e-10
2.71084e-15
-9.85624e-10
-4.32725e-10
2.63824e-15
-9.58861e-10
-4.27936e-10
2.56086e-15
-9.30041e-10
-4.252e-10
2.4815e-15
-8.99193e-10
-4.24584e-10
2.4041e-15
-8.66322e-10
-4.26106e-10
2.33035e-15
-8.31396e-10
-4.29677e-10
2.25275e-15
-7.94399e-10
-4.35028e-10
2.17377e-15
-7.55264e-10
-4.42131e-10
2.09062e-15
-7.13998e-10
-4.5033e-10
2.00036e-15
-6.70583e-10
-4.59392e-10
1.9042e-15
-6.25079e-10
-4.68526e-10
1.80174e-15
-5.776e-10
-4.76996e-10
1.69106e-15
-5.28291e-10
-4.84249e-10
1.57995e-15
-4.77449e-10
-4.8885e-10
1.47041e-15
-4.25429e-10
-4.89953e-10
1.34885e-15
-3.72735e-10
-4.86083e-10
1.22999e-15
-3.19995e-10
-4.75896e-10
1.11435e-15
-2.6796e-10
-4.58027e-10
1.00401e-15
-2.17549e-10
-4.30806e-10
9.00518e-16
-1.69786e-10
-3.93087e-10
7.93704e-16
-1.25794e-10
-3.44025e-10
7.01344e-16
-8.67629e-11
-2.83416e-10
6.09807e-16
-5.38811e-11
-2.12392e-10
5.45989e-16
-2.82519e-11
-1.34333e-10
4.6472e-16
-1.0746e-11
-5.62242e-11
3.21285e-16
-1.67435e-12
7.56324e-12
2.1092e-16
3.12474e-11
9.20965e-17
-1.04344e-09
-4.63865e-10
2.88624e-15
-1.02455e-09
-4.58287e-10
2.80887e-15
-1.00308e-09
-4.54201e-10
2.73375e-15
-9.79138e-10
-4.51879e-10
2.65336e-15
-9.52801e-10
-4.51538e-10
2.57165e-15
-9.24102e-10
-4.5328e-10
2.49267e-15
-8.93055e-10
-4.57155e-10
2.41489e-15
-8.59636e-10
-4.63093e-10
2.326e-15
-8.23839e-10
-4.70831e-10
2.25348e-15
-7.85606e-10
-4.8036e-10
2.16738e-15
-7.44949e-10
-4.9099e-10
2.07357e-15
-7.01857e-10
-5.02482e-10
1.97312e-15
-6.56395e-10
-5.13989e-10
1.86778e-15
-6.08677e-10
-5.24717e-10
1.75499e-15
-5.5885e-10
-5.34073e-10
1.64053e-15
-5.07213e-10
-5.40489e-10
1.5267e-15
-4.54119e-10
-5.43047e-10
1.39828e-15
-4.0007e-10
-5.40131e-10
1.29024e-15
-3.45694e-10
-5.30273e-10
1.15479e-15
-2.91738e-10
-5.11982e-10
1.0411e-15
-2.39121e-10
-4.83424e-10
9.34216e-16
-1.88867e-10
-4.4334e-10
8.23962e-16
-1.42107e-10
-3.90784e-10
7.2622e-16
-1.00054e-10
-3.25468e-10
6.31247e-16
-6.39543e-11
-2.48492e-10
5.44339e-16
-3.50355e-11
-1.63252e-10
4.78075e-16
-1.4412e-11
-7.68471e-11
3.31779e-16
-2.83911e-12
-4.00909e-12
2.17106e-16
2.84088e-11
9.36368e-17
-1.0503e-09
-4.76257e-10
2.9734e-15
-1.03491e-09
-4.73684e-10
2.89458e-15
-1.01664e-09
-4.72463e-10
2.81795e-15
-9.95626e-10
-4.72902e-10
2.73604e-15
-9.71911e-10
-4.75254e-10
2.65188e-15
-9.45534e-10
-4.79654e-10
2.57075e-15
-9.16512e-10
-4.86179e-10
2.4911e-15
-8.84824e-10
-4.94778e-10
2.4212e-15
-8.50469e-10
-5.05193e-10
2.32448e-15
-8.13392e-10
-5.17433e-10
2.23459e-15
-7.7361e-10
-5.30775e-10
2.13774e-15
-7.31113e-10
-5.44977e-10
2.03448e-15
-6.85968e-10
-5.59135e-10
1.92525e-15
-6.38289e-10
-5.72399e-10
1.81198e-15
-5.8822e-10
-5.84139e-10
1.69145e-15
-5.36058e-10
-5.92654e-10
1.58817e-15
-4.82149e-10
-5.96954e-10
1.44072e-15
-4.26992e-10
-5.95287e-10
1.31278e-15
-3.71208e-10
-5.86058e-10
1.18939e-15
-3.15535e-10
-5.67654e-10
1.073e-15
-2.60883e-10
-5.38076e-10
9.6303e-16
-2.08272e-10
-4.95951e-10
8.48785e-16
-1.5883e-10
-4.40225e-10
7.48363e-16
-1.13788e-10
-3.7051e-10
6.50241e-16
-7.44449e-11
-2.87834e-10
5.52451e-16
-4.21546e-11
-1.95542e-10
4.64558e-16
-1.82873e-11
-1.00714e-10
3.39796e-16
-4.07941e-12
-1.82164e-11
2.22044e-16
2.433e-11
9.49325e-17
-1.05381e-09
-4.85022e-10
3.05003e-15
-1.04184e-09
-4.85654e-10
2.96925e-15
-1.02679e-09
-4.87522e-10
2.89086e-15
-1.00873e-09
-4.90965e-10
2.80735e-15
-9.87718e-10
-4.96265e-10
2.72169e-15
-9.63784e-10
-5.03585e-10
2.63869e-15
-9.36939e-10
-5.13025e-10
2.55665e-15
-9.0716e-10
-5.24555e-10
2.47485e-15
-8.74445e-10
-5.37914e-10
2.38516e-15
-8.3874e-10
-5.53134e-10
2.29254e-15
-8.00062e-10
-5.69457e-10
2.19325e-15
-7.58399e-10
-5.86637e-10
2.08804e-15
-7.13816e-10
-6.03718e-10
1.97515e-15
-6.66425e-10
-6.19794e-10
1.87348e-15
-6.16365e-10
-6.34196e-10
1.73503e-15
-5.63925e-10
-6.45096e-10
1.61211e-15
-5.09445e-10
-6.51433e-10
1.47684e-15
-4.53413e-10
-6.51318e-10
1.34356e-15
-3.96438e-10
-6.43035e-10
1.21923e-15
-3.39243e-10
-6.24848e-10
1.1001e-15
-2.82727e-10
-5.94593e-10
9.87142e-16
-2.27894e-10
-5.50784e-10
8.69135e-16
-1.75867e-10
-4.92251e-10
7.66684e-16
-1.27884e-10
-4.18492e-10
6.6634e-16
-8.52925e-11
-3.30425e-10
5.58377e-16
-4.95703e-11
-2.31263e-10
4.68097e-16
-2.23526e-11
-1.27931e-10
3.45371e-16
-5.39009e-12
-3.51783e-11
2.24643e-16
1.89404e-11
9.58293e-17
-1.05448e-09
-4.90331e-10
3.11514e-15
-1.04583e-09
-4.94306e-10
3.03326e-15
-1.03392e-09
-4.99434e-10
2.95348e-15
-1.01882e-09
-5.06073e-10
2.86873e-15
-1.00055e-09
-5.14533e-10
2.78164e-15
-9.79137e-10
-5.24997e-10
2.69699e-15
-9.54578e-10
-5.37587e-10
2.6129e-15
-9.26843e-10
-5.52286e-10
2.52775e-15
-8.95928e-10
-5.68837e-10
2.43711e-15
-8.61773e-10
-5.87286e-10
2.34252e-15
-8.24391e-10
-6.06842e-10
2.24041e-15
-7.83768e-10
-6.27258e-10
2.13202e-15
-7.39963e-10
-6.47523e-10
2.01668e-15
-6.93083e-10
-6.66679e-10
1.89779e-15
-6.43256e-10
-6.84019e-10
1.7751e-15
-5.90765e-10
-6.97589e-10
1.64358e-15
-5.35937e-10
-7.06259e-10
1.50836e-15
-4.79247e-10
-7.08007e-10
1.37104e-15
-4.21286e-10
-7.00997e-10
1.24455e-15
-3.62761e-10
-6.83372e-10
1.12289e-15
-3.04548e-10
-6.52806e-10
1.00805e-15
-2.47634e-10
-6.07698e-10
8.88526e-16
-1.93126e-10
-5.46758e-10
7.77444e-16
-1.42266e-10
-4.69351e-10
6.79628e-16
-9.64395e-11
-3.76251e-10
5.47416e-16
-5.72462e-11
-2.70456e-10
4.82262e-16
-2.65913e-11
-1.58586e-10
3.54389e-16
-6.76766e-12
-5.50014e-11
2.30905e-16
1.21733e-11
9.65901e-17
-1.05276e-09
-4.92378e-10
3.16997e-15
-1.04729e-09
-4.99781e-10
3.08722e-15
-1.03844e-09
-5.08286e-10
3.00647e-15
-1.02625e-09
-5.18268e-10
2.92093e-15
-1.01072e-09
-5.30057e-10
2.83235e-15
-9.91864e-10
-5.43852e-10
2.74623e-15
-9.6966e-10
-5.59793e-10
2.66044e-15
-9.44069e-10
-5.77874e-10
2.57337e-15
-9.15075e-10
-5.97838e-10
2.48075e-15
-8.82612e-10
-6.19744e-10
2.38388e-15
-8.46688e-10
-6.4277e-10
2.27958e-15
-8.07279e-10
-6.66664e-10
2.16895e-15
-7.64439e-10
-6.90364e-10
2.0512e-15
-7.18263e-10
-7.12859e-10
1.92753e-15
-6.68871e-10
-7.33406e-10
1.81884e-15
-6.16534e-10
-7.49928e-10
1.67128e-15
-5.61563e-10
-7.61229e-10
1.52838e-15
-5.04414e-10
-7.65154e-10
1.39219e-15
-4.45662e-10
-7.5975e-10
1.26693e-15
-3.85988e-10
-7.43045e-10
1.14159e-15
-3.26244e-10
-7.12551e-10
1.02489e-15
-2.67392e-10
-6.66549e-10
9.02829e-16
-2.10518e-10
-6.03632e-10
7.7017e-16
-1.56858e-10
-5.23011e-10
6.90811e-16
-1.07831e-10
-4.25278e-10
5.69817e-16
-6.51489e-11
-3.13138e-10
5.10462e-16
-3.09894e-11
-1.92745e-10
3.60868e-16
-8.21019e-12
-7.778e-11
2.3514e-16
3.96359e-12
9.70036e-17
-1.04902e-09
-4.91365e-10
3.21509e-15
-1.04657e-09
-5.02234e-10
3.13215e-15
-1.04067e-09
-5.1419e-10
3.05089e-15
-1.03132e-09
-5.2762e-10
2.96376e-15
-1.01852e-09
-5.42866e-10
2.87455e-15
-1.00222e-09
-5.60145e-10
2.78702e-15
-9.82408e-10
-5.79607e-10
2.6986e-15
-9.59025e-10
-6.01255e-10
2.61087e-15
-9.32042e-10
-6.24828e-10
2.51645e-15
-9.01383e-10
-6.50398e-10
2.41783e-15
-8.67045e-10
-6.77112e-10
2.31106e-15
-8.28996e-10
-7.04711e-10
2.19886e-15
-7.87277e-10
-7.32084e-10
2.07917e-15
-7.41974e-10
-7.58166e-10
1.95366e-15
-6.93194e-10
-7.82182e-10
1.82428e-15
-6.41192e-10
-8.01933e-10
1.69201e-15
-5.86262e-10
-8.16158e-10
1.53059e-15
-5.28841e-10
-8.22574e-10
1.4084e-15
-4.69478e-10
-8.19114e-10
1.28167e-15
-4.08829e-10
-8.03693e-10
1.15645e-15
-3.47717e-10
-7.73663e-10
1.03804e-15
-2.87072e-10
-7.27194e-10
9.13038e-16
-2.27954e-10
-6.62749e-10
8.01282e-16
-1.71587e-10
-5.79378e-10
7.00386e-16
-1.19412e-10
-4.77453e-10
5.63429e-16
-7.3247e-11
-3.59303e-10
4.96473e-16
-3.55353e-11
-2.30456e-10
3.65509e-16
-9.71733e-12
-1.03597e-10
2.38291e-16
-5.75328e-12
9.72847e-17
-1.04362e-09
-4.87501e-10
3.25262e-15
-1.04402e-09
-5.01833e-10
3.1691e-15
-1.04094e-09
-5.17273e-10
3.08665e-15
-1.03435e-09
-5.34216e-10
2.99893e-15
-1.0242e-09
-5.53016e-10
2.90899e-15
-1.01044e-09
-5.73897e-10
2.81998e-15
-9.93031e-10
-5.97019e-10
2.71966e-15
-9.71892e-10
-6.22391e-10
2.64064e-15
-9.4698e-10
-6.49747e-10
2.54499e-15
-9.18206e-10
-6.79168e-10
2.44467e-15
-8.85555e-10
-7.09768e-10
2.33653e-15
-8.48981e-10
-7.41283e-10
2.22248e-15
-8.08515e-10
-7.72551e-10
2.10105e-15
-7.64228e-10
-8.02457e-10
1.97714e-15
-7.16212e-10
-8.30194e-10
1.82448e-15
-6.64706e-10
-8.53442e-10
1.70853e-15