/*--------------------------------*- C++ -*----------------------------------*\
| =========                 |                                                 |
| \\      /  F ield         | OpenFOAM: The Open Source CFD Toolbox           |
|  \\    /   O peration     | Version:  v2012                                 |
|   \\  /    A nd           | Website:  www.openfoam.com                      |
|    \\/     M anipulation  |                                                 |
\*---------------------------------------------------------------------------*/
FoamFile
{
    version     2.0;
    format      ascii;
    class       volVectorField;
    location    "0.85";
    object      U;
}
// * * * * * * * * * * * * * * * * * * * * * * * * * * * * * * * * * * * * * //

dimensions      [0 1 -1 0 0 0 0];


internalField   nonuniform List<vector> 
2660
(
(-0.0405274 -10.7603 0.000354028)
(0.0522243 -5.5561 -0.000455286)
(0.092074 -2.78298 -0.000803231)
(0.187406 -1.21749 -0.00163546)
(0.122602 -0.188634 -0.00107263)
(-0.0411246 -10.4574 0.000359253)
(-0.0730983 -5.28174 0.000638448)
(-0.0610373 -2.60952 0.00053308)
(-0.0535894 -1.07532 0.000467946)
(-0.0204236 -0.243518 0.000178792)
(-0.0410815 -10.3668 0.000358896)
(-0.0357967 -5.35073 0.000312926)
(-0.0215578 -2.72064 0.00018852)
(0.00355231 -1.21649 -3.07881e-05)
(0.0145822 -0.278535 -0.000127358)
(-0.0399269 -10.1662 0.000348834)
(-0.0557988 -5.23569 0.000487509)
(-0.0442344 -2.6546 0.000386459)
(-0.0267995 -1.15296 0.000234145)
(-0.00494494 -0.238494 4.33532e-05)
(-0.0384716 -10.0262 0.000336144)
(-0.050246 -5.21271 0.000439067)
(-0.0383941 -2.70215 0.000335502)
(-0.0170029 -1.24383 0.000148646)
(0.00273261 -0.306958 -2.36725e-05)
(-0.0388445 -9.84792 0.000339413)
(-0.0568558 -5.12226 0.000496783)
(-0.0453348 -2.6633 0.00039611)
(-0.0244448 -1.21515 0.000213624)
(-0.00227484 -0.277365 2.00246e-05)
(-0.0407346 -9.68774 0.000355924)
(-0.0594693 -5.06949 0.000519628)
(-0.0460497 -2.68998 0.000402381)
(-0.0224157 -1.28275 0.000195928)
(0.000988399 -0.332315 -8.40129e-06)
(-0.0455294 -9.49383 0.000397791)
(-0.0662725 -4.97868 0.00057905)
(-0.0510458 -2.66662 0.000446029)
(-0.0267155 -1.2795 0.000233488)
(-0.00145608 -0.323193 1.29021e-05)
(-0.0517953 -9.29221 0.000452503)
(-0.0712697 -4.90746 0.000622722)
(-0.052519 -2.68272 0.000458934)
(-0.0258356 -1.3322 0.000225833)
(0.000934571 -0.362903 -7.90586e-06)
(-0.0594558 -9.05539 0.000519397)
(-0.0774276 -4.81635 0.000676539)
(-0.0561824 -2.67394 0.000490968)
(-0.0289051 -1.35 0.000252662)
(-0.000695627 -0.372202 6.28809e-06)
(-0.06662 -8.80064 0.000581965)
(-0.0806457 -4.73539 0.000704711)
(-0.0561165 -2.68324 0.00049046)
(-0.0274359 -1.39028 0.000239872)
(0.00155145 -0.397111 -1.32734e-05)
(-0.0740777 -8.52156 0.000647107)
(-0.0834475 -4.65169 0.000729271)
(-0.0578159 -2.68857 0.000505374)
(-0.029453 -1.42575 0.000257528)
(0.000658484 -0.422253 -5.52534e-06)
(-0.0807299 -8.22374 0.000705232)
(-0.0821166 -4.57103 0.000717791)
(-0.054375 -2.68993 0.000475433)
(-0.0258703 -1.45297 0.0002263)
(0.00349247 -0.429942 -3.02195e-05)
(-0.0916627 -7.91717 0.000800754)
(-0.0794176 -4.50949 0.00069442)
(-0.0542895 -2.71066 0.000474793)
(-0.0273281 -1.50424 0.000239083)
(0.0057132 -0.468441 -4.9702e-05)
(-0.0961915 -7.57459 0.000840443)
(-0.0718671 -4.44819 0.000628764)
(-0.0423715 -2.69643 0.000370888)
(-0.0140676 -1.52083 0.000123378)
(0.0107443 -0.450351 -9.36385e-05)
(-0.161707 -7.26855 0.00141253)
(-0.0882771 -4.43487 0.000772381)
(-0.0528607 -2.7547 0.000462549)
(-0.0291229 -1.58718 0.000254847)
(0.0309809 -0.489907 -0.00027055)
(-0.113703 -6.56744 0.000994122)
(-0.104075 -4.42257 0.000910602)
(-0.0300222 -2.70578 0.000263337)
(0.016333 -1.63525 -0.00014189)
(0.0385191 -0.433845 -0.000336564)
(-2.0745 -6.45744 0.0181079)
(-1.05978 -4.34452 0.00925532)
(-0.220433 -2.92938 0.00192621)
(-0.223061 -1.72003 0.00194782)
(0.146841 -0.432391 -0.00128217)
(-3.07621 -8.55984 0.0268492)
(-1.99745 -5.38088 0.0174408)
(-0.641755 -3.62171 0.00560487)
(-0.342479 -2.09874 0.00299063)
(0.0834869 -0.547408 -0.000727558)
(-3.31595 -11.8147 0.0289386)
(-1.73839 -6.85383 0.01518)
(-0.462887 -4.6873 0.00404322)
(-0.484181 -2.62142 0.00422735)
(0.167795 -0.858831 -0.00146381)
(-0.453764 -13.3086 0.00395688)
(-0.210212 -7.54286 0.00183672)
(-0.056916 -5.16591 0.000498407)
(-0.0989831 -2.86295 0.000864755)
(0.0553089 -1.01656 -0.00048252)
(-0.229355 -12.051 0.00200297)
(-0.123966 -7.3768 0.00108362)
(-0.117487 -4.94275 0.00102657)
(-0.094593 -2.90328 0.000826397)
(0.0369721 -0.962086 -0.000322516)
(-0.0803858 -11.8863 0.000702317)
(-0.0671332 -7.41541 0.000587563)
(-0.0498216 -5.03313 0.000436149)
(-0.026625 -3.04415 0.000233143)
(0.0154241 -1.09345 -0.000134452)
(-0.0887228 -11.4887 0.000775298)
(-0.0867642 -7.27204 0.000759139)
(-0.0652491 -4.94344 0.000570919)
(-0.0358953 -2.9962 0.000314102)
(0.00659694 -0.990638 -5.72758e-05)
(-0.0810595 -11.2313 0.000708574)
(-0.083976 -7.25262 0.000735065)
(-0.053314 -5.02599 0.000466873)
(-0.0251166 -3.13117 0.000220037)
(0.00384312 -1.13713 -3.32858e-05)
(-0.0851964 -10.8776 0.00074491)
(-0.0844868 -7.12726 0.00073987)
(-0.0512246 -4.96473 0.000448743)
(-0.0246707 -3.06302 0.000216141)
(0.00313463 -1.01541 -2.69977e-05)
(-0.088545 -10.5997 0.000774453)
(-0.0835877 -7.12049 0.00073246)
(-0.0495059 -5.05905 0.000433834)
(-0.0229785 -3.20908 0.000201358)
(0.00218833 -1.18865 -1.89299e-05)
(-0.0900725 -10.2319 0.000788295)
(-0.0751307 -7.00001 0.000659208)
(-0.0378272 -4.98651 0.000331941)
(-0.0147814 -3.10911 0.000129727)
(0.00630357 -1.01644 -5.46806e-05)
(-0.0997061 -9.97123 0.00087334)
(-0.0779856 -7.04454 0.000684814)
(-0.0439029 -5.11965 0.000384939)
(-0.0191244 -3.29509 0.000167564)
(0.00534404 -1.24778 -4.67064e-05)
(-0.0882104 -9.54767 0.000775141)
(-0.0589692 -6.90791 0.000519567)
(-0.0112479 -5.001 9.97596e-05)
(0.00618551 -3.13692 -5.3535e-05)
(0.0194843 -0.9745 -0.000169927)
(-0.182694 -9.39766 0.00160456)
(-0.141897 -7.05756 0.00124389)
(-0.0769834 -5.24068 0.000673219)
(-0.0504765 -3.40187 0.000440968)
(0.0227805 -1.29703 -0.000199191)
(0.0286641 -8.2895 -0.000230673)
(-0.0749094 -6.75186 0.000658605)
(0.0426015 -4.98757 -0.000370947)
(0.0520266 -3.20444 -0.000453944)
(0.0642947 -0.907651 -0.000561738)
(-2.78872 -9.4666 0.0243687)
(-1.63737 -6.97095 0.0142975)
(-0.574505 -5.57578 0.00501618)
(-0.428033 -3.55577 0.00373667)
(0.0732213 -1.27079 -0.000638139)
(0.210765 -10.5424 -0.0018401)
(-0.608249 -7.74392 0.00530919)
(-0.39373 -5.93322 0.00343778)
(0.010021 -3.86768 -8.68828e-05)
(-0.0303902 -1.29004 0.000266237)
(-0.00230989 -1.29856e-05 2.01654e-05)
(-0.00203227 -1.08999e-05 1.77418e-05)
(-0.00179193 -9.2464e-06 1.56437e-05)
(-0.00158232 -7.92694e-06 1.3814e-05)
(-0.0013982 -6.86738e-06 1.22067e-05)
(-0.00123533 -6.01133e-06 1.07848e-05)
(-0.00109027 -5.31439e-06 9.51856e-06)
(-0.00096026 -4.7424e-06 8.3836e-06)
(-0.00084305 -4.26813e-06 7.3604e-06)
(-0.000736812 -3.86964e-06 6.43299e-06)
(-0.000640083 -3.52978e-06 5.58858e-06)
(-0.000551696 -3.2341e-06 4.81699e-06)
(-0.000470731 -2.97125e-06 4.11019e-06)
(-0.000396496 -2.7317e-06 3.46214e-06)
(-0.000328458 -2.50723e-06 2.86817e-06)
(-0.00026626 -2.29138e-06 2.32518e-06)
(-0.000209693 -2.0783e-06 1.83133e-06)
(-0.000158673 -1.86311e-06 1.3859e-06)
(-0.000113238 -1.64153e-06 9.89215e-07)
(-7.3526e-05 -1.41016e-06 6.42472e-07)
(-3.9771e-05 -1.16604e-06 3.47723e-07)
(-1.22742e-05 -9.07309e-07 1.07591e-07)
(8.62496e-06 -6.3722e-07 -7.49592e-08)
(2.26136e-05 -3.53605e-07 -1.97194e-07)
(2.94625e-05 -6.34332e-08 -2.57107e-07)
(2.92485e-05 2.11839e-07 -2.55354e-07)
(2.26158e-05 4.45102e-07 -1.97515e-07)
(1.15027e-05 5.28249e-07 -1.00567e-07)
(1.63776e-06 3.28304e-07 -1.60979e-08)
(-0.00665528 -0.000241393 5.81024e-05)
(-0.00587428 -0.000201381 5.12843e-05)
(-0.0051953 -0.000169734 4.53567e-05)
(-0.00460088 -0.000144569 4.01675e-05)
(-0.00407691 -0.000124447 3.55933e-05)
(-0.00361192 -0.000108264 3.1534e-05)
(-0.00319658 -9.51576e-05 2.79082e-05)
(-0.0028233 -8.44564e-05 2.46494e-05)
(-0.00248591 -7.56312e-05 2.17041e-05)
(-0.00217936 -6.82598e-05 1.9028e-05)
(-0.0018996 -6.20073e-05 1.65858e-05)
(-0.0016434 -5.6603e-05 1.43492e-05)
(-0.00140821 -5.1829e-05 1.2296e-05)
(-0.0011921 -4.75084e-05 1.04094e-05)
(-0.000993626 -4.34934e-05 8.67673e-06)
(-0.000811796 -3.96648e-05 7.08934e-06)
(-0.000646059 -3.59219e-05 5.64242e-06)
(-0.000496211 -3.21813e-05 4.33416e-06)
(-0.000362392 -2.83755e-05 3.16581e-06)
(-0.000245011 -2.4452e-05 2.14093e-06)
(-0.00014475 -2.0376e-05 1.26547e-06)
(-6.24624e-05 -1.61357e-05 5.4687e-07)
(9.19609e-07 -1.1755e-05 -6.72984e-09)
(4.45668e-05 -7.28967e-06 -3.88087e-07)
(6.79499e-05 -2.87339e-06 -5.92573e-07)
(7.14453e-05 1.20297e-06 -6.2345e-07)
(5.70478e-05 4.44498e-06 -4.98066e-07)
(3.01585e-05 5.63964e-06 -2.63765e-07)
(4.47488e-06 3.35146e-06 -4.44152e-08)
(-0.0106739 -0.000675233 9.31864e-05)
(-0.00945211 -0.000565207 8.25198e-05)
(-0.00838476 -0.000477781 7.32018e-05)
(-0.00744632 -0.000407994 6.50093e-05)
(-0.00661591 -0.000352015 5.776e-05)
(-0.00587642 -0.000306869 5.13043e-05)
(-0.00521379 -0.000270224 4.55196e-05)
(-0.00461652 -0.000240245 4.03056e-05)
(-0.00407525 -0.00021548 3.55804e-05)
(-0.00358224 -0.000194763 3.12765e-05)
(-0.00313127 -0.000177163 2.73397e-05)
(-0.00271737 -0.000161928 2.37264e-05)
(-0.00233661 -0.000148448 2.04025e-05)
(-0.00198607 -0.000136227 1.73422e-05)
(-0.00166347 -0.000124852 1.4526e-05)
(-0.00136735 -0.000113986 1.19408e-05)
(-0.00109688 -0.000103347 9.57956e-06)
(-0.000851801 -9.27039e-05 7.43989e-06)
(-0.000632382 -8.18688e-05 5.52419e-06)
(-0.000439311 -7.06996e-05 3.83846e-06)
(-0.000273695 -5.91067e-05 2.39235e-06)
(-0.000136901 -4.70692e-05 1.19778e-06)
(-3.03842e-05 -3.46558e-05 2.6745e-07)
(4.45968e-05 -2.20623e-05 -3.87634e-07)
(8.7316e-05 -9.67958e-06 -7.61131e-07)
(9.85138e-05 1.68413e-06 -8.59469e-07)
(8.14516e-05 1.06614e-05 -7.11038e-07)
(4.44746e-05 1.42828e-05 -3.88969e-07)
(6.80912e-06 9.01429e-06 -6.77651e-08)
(-0.0143318 -0.00126984 0.00012512)
(-0.0127372 -0.0010679 0.000111199)
(-0.0113364 -0.000906512 9.89702e-05)
(-0.0100986 -0.00077704 8.81642e-05)
(-0.00899828 -0.000672735 7.8559e-05)
(-0.00801449 -0.000588297 6.99706e-05)
(-0.00712973 -0.000519535 6.22468e-05)
(-0.00632957 -0.000463117 5.52616e-05)
(-0.00560222 -0.000416387 4.8912e-05)
(-0.00493786 -0.000377198 4.31123e-05)
(-0.00432857 -0.000343824 3.77934e-05)
(-0.00376801 -0.000314862 3.28998e-05)
(-0.00325114 -0.000289168 2.83876e-05)
(-0.00277424 -0.000265808 2.42243e-05)
(-0.00233442 -0.000244002 2.03847e-05)
(-0.00192983 -0.000223109 1.68527e-05)
(-0.00155949 -0.000202599 1.36195e-05)
(-0.00122311 -0.000182029 1.06828e-05)
(-0.000921149 -0.00016105 8.04639e-06)
(-0.000654573 -0.000139396 5.71889e-06)
(-0.000424904 -0.000116907 3.71351e-06)
(-0.000233986 -9.35607e-05 2.04632e-06)
(-8.3745e-05 -6.95041e-05 7.34141e-07)
(2.41924e-05 -4.51466e-05 -2.08815e-07)
(8.89591e-05 -2.12686e-05 -7.74969e-07)
(0.000111653 5.90227e-07 -9.73858e-07)
(9.66113e-05 1.78575e-05 -8.43262e-07)
(5.45753e-05 2.53284e-05 -4.77279e-07)
(8.62356e-06 1.66391e-05 -8.58135e-08)
(-0.0176111 -0.00198351 0.000153749)
(-0.0157134 -0.00167644 0.000137182)
(-0.0140356 -0.00142953 0.000122535)
(-0.0125446 -0.00123039 0.000109518)
(-0.0112125 -0.00106922 9.78897e-05)
(-0.010016 -0.000938207 8.74443e-05)
(-0.00893543 -0.000831136 7.80115e-05)
(-0.00795455 -0.000743004 6.94486e-05)
(-0.00705986 -0.000669791 6.16382e-05)
(-0.00624009 -0.000608222 5.44819e-05)
(-0.00548611 -0.000555645 4.78998e-05)
(-0.00479056 -0.000509891 4.18278e-05)
(-0.00414761 -0.000469179 3.6215e-05)
(-0.00355294 -0.000432049 3.10236e-05)
(-0.00300324 -0.00039728 2.62247e-05)
(-0.0024964 -0.000363862 2.18001e-05)
(-0.00203137 -0.000330955 1.77402e-05)
(-0.00160792 -0.000297866 1.40433e-05)
(-0.0012267 -0.000264045 1.0715e-05)
(-0.000888992 -0.000229082 7.76647e-06)
(-0.000596715 -0.000192738 5.21445e-06)
(-0.000352165 -0.000154999 3.07895e-06)
(-0.000157696 -0.000116128 1.38053e-06)
(-1.52617e-05 -7.68144e-05 1.36283e-07)
(7.41448e-05 -3.83451e-05 -6.45135e-07)
(0.000111922 -3.16101e-06 -9.7587e-07)
(0.000103236 2.47187e-05 -9.00932e-07)
(6.06844e-05 3.75497e-05 -5.30647e-07)
(9.94275e-06 2.55443e-05 -9.87611e-08)
(-0.0205085 -0.00277824 0.000179043)
(-0.0183751 -0.00236082 0.000160418)
(-0.0164758 -0.00202297 0.000143838)
(-0.0147775 -0.00174892 0.000129013)
(-0.0132517 -0.00152599 0.000115693)
(-0.0118743 -0.00134397 0.000103668)
(-0.0106247 -0.00119462 9.27596e-05)
(-0.00948569 -0.00107125 8.28162e-05)
(-0.00844286 -0.000968417 7.37126e-05)
(-0.00748408 -0.000881673 6.53427e-05)
(-0.00659945 -0.000807367 5.76202e-05)
(-0.00578099 -0.0007425 5.04753e-05)
(-0.00502237 -0.000684593 4.38527e-05)
(-0.00431888 -0.000631601 3.77114e-05)
(-0.00366696 -0.000581804 3.20202e-05)
(-0.00306439 -0.000533778 2.67598e-05)
(-0.00251012 -0.000486336 2.19208e-05)
(-0.00200405 -0.000438498 1.75026e-05)
(-0.00154706 -0.000389488 1.35129e-05)
(-0.00114077 -0.000338735 9.96547e-06)
(-0.000787467 -0.000285923 6.88067e-06)
(-0.000489893 -0.000231058 4.28219e-06)
(-0.000250796 -0.000174557 2.19407e-06)
(-7.24361e-05 -0.000117447 6.36065e-07)
(4.40579e-05 -6.16238e-05 -3.81964e-07)
(0.000100292 -1.05571e-05 -8.73978e-07)
(0.000101987 3.01121e-05 -8.8981e-07)
(6.30757e-05 4.99044e-05 -5.51473e-07)
(1.08076e-05 3.5147e-05 -1.07031e-07)
(-0.023032 -0.00361831 0.000201072)
(-0.0207259 -0.00309232 0.000180941)
(-0.0186578 -0.00266367 0.000162887)
(-0.0167961 -0.00231383 0.000146635)
(-0.0151135 -0.0020277 0.000131947)
(-0.0135863 -0.00179297 0.000118614)
(-0.012194 -0.00159952 0.00010646)
(-0.0109193 -0.0014391 9.53322e-05)
(-0.0097475 -0.00130491 8.51028e-05)
(-0.00866617 -0.00119132 7.56632e-05)
(-0.0076651 -0.00109368 6.69242e-05)
(-0.006736 -0.00100814 5.88134e-05)
(-0.0058723 -0.0009315 5.12735e-05)
(-0.00506916 -0.000861102 4.42623e-05)
(-0.0043229 -0.000794697 3.77475e-05)
(-0.00363131 -0.000730415 3.17099e-05)
(-0.00299344 -0.000666694 2.61412e-05)
(-0.00240938 -0.000602246 2.10421e-05)
(-0.00188029 -0.000536055 1.64229e-05)
(-0.00140809 -0.000467381 1.23001e-05)
(-0.00099549 -0.00039583 8.6976e-06)
(-0.000645624 -0.000321449 5.64254e-06)
(-0.000361621 -0.000244841 3.16231e-06)
(-0.000146038 -0.000167427 1.27925e-06)
(-1.72754e-07 -9.17856e-05 4.69462e-09)
(7.76736e-05 -2.25128e-05 -6.76116e-07)
(9.34857e-05 3.30126e-05 -8.15329e-07)
(6.20422e-05 6.14547e-05 -5.42321e-07)
(1.12678e-05 4.49228e-05 -1.11123e-07)
(-0.0251985 -0.00447223 0.000219986)
(-0.0227765 -0.00384507 0.000198843)
(-0.0205877 -0.00333033 0.000179735)
(-0.0186036 -0.00290755 0.000162414)
(-0.016799 -0.00255981 0.000146661)
(-0.0151516 -0.00227307 0.00013228)
(-0.0136421 -0.00203569 0.000119102)
(-0.0122535 -0.00183802 0.00010698)
(-0.0109715 -0.00167201 9.57889e-05)
(-0.00978388 -0.00153095 8.54214e-05)
(-0.00868045 -0.00140925 7.57888e-05)
(-0.00765295 -0.00130222 6.68191e-05)
(-0.00669482 -0.00120594 5.84548e-05)
(-0.00580125 -0.00111713 5.06542e-05)
(-0.00496862 -0.00103302 4.33855e-05)
(-0.00419484 -0.000951264 3.66304e-05)
(-0.00347914 -0.000869921 3.03823e-05)
(-0.00282186 -0.000787379 2.4644e-05)
(-0.00222445 -0.000702375 1.94283e-05)
(-0.00168917 -0.000614 1.47548e-05)
(-0.00121912 -0.00052179 1.06507e-05)
(-0.000817814 -0.00042585 7.14653e-06)
(-0.000488759 -0.000326999 4.27293e-06)
(-0.000234804 -0.000227098 2.05481e-06)
(-5.74653e-05 -0.000129463 5.05394e-07)
(4.49223e-05 -3.98802e-05 -3.89768e-07)
(7.8319e-05 3.24691e-05 -6.82617e-07)
(5.7878e-05 7.13323e-05 -5.05765e-07)
(1.13752e-05 5.43909e-05 -1.11552e-07)
(-0.0270314 -0.00531328 0.000235986)
(-0.024543 -0.00459658 0.000214264)
(-0.0222763 -0.00400405 0.000194476)
(-0.0202069 -0.00351421 0.000176411)
(-0.0183123 -0.00310893 0.000159872)
(-0.0165725 -0.002773 0.000144684)
(-0.0149697 -0.00249356 0.000130692)
(-0.0134879 -0.00225983 0.000117757)
(-0.0121139 -0.00206272 0.000105762)
(-0.0108357 -0.00189456 9.46044e-05)
(-0.0096437 -0.00174888 8.41985e-05)
(-0.00852984 -0.00162022 7.44749e-05)
(-0.0074878 -0.00150399 6.53782e-05)
(-0.00651299 -0.0013963 5.68684e-05)
(-0.00560197 -0.00129384 4.89153e-05)
(-0.00475287 -0.00119381 4.15028e-05)
(-0.00396519 -0.00109389 3.46263e-05)
(-0.00323952 -0.000992144 2.8291e-05)
(-0.00257767 -0.000887055 2.25126e-05)
(-0.00198223 -0.00077755 1.7314e-05)
(-0.00145668 -0.000663107 1.27254e-05)
(-0.00100493 -0.000543908 8.78076e-06)
(-0.000630816 -0.000421014 5.51377e-06)
(-0.000337504 -0.00029676 2.95199e-06)
(-0.000126779 -0.000175237 1.11105e-06)
(2.85052e-06 -6.34491e-05 -2.20257e-08)
(5.70402e-05 2.75976e-05 -4.96507e-07)
(5.08671e-05 7.87338e-05 -4.44292e-07)
(1.11789e-05 6.31147e-05 -1.08802e-07)
(-0.0285577 -0.00611974 0.00024931)
(-0.026045 -0.00532798 0.000227375)
(-0.0237377 -0.00466858 0.000207233)
(-0.0216157 -0.00411983 0.000188709)
(-0.01966 -0.00366311 0.000171637)
(-0.0178531 -0.00328247 0.000155864)
(-0.0161791 -0.00296429 0.000141251)
(-0.0146238 -0.00269692 0.000127673)
(-0.0131747 -0.00247046 0.000115024)
(-0.0118211 -0.00227641 0.000103207)
(-0.0105538 -0.00210758 9.21439e-05)
(-0.00936525 -0.0019578 8.17685e-05)
(-0.00824959 -0.00182185 7.20291e-05)
(-0.00720257 -0.00169528 6.28889e-05)
(-0.00622105 -0.00157427 5.43205e-05)
(-0.00530347 -0.00145558 4.63101e-05)
(-0.00444963 -0.00133651 3.88561e-05)
(-0.00366046 -0.0012148 3.19664e-05)
(-0.00293811 -0.0010887 2.566e-05)
(-0.00228552 -0.000956977 1.99625e-05)
(-0.00170654 -0.000819068 1.49074e-05)
(-0.00120544 -0.000675245 1.05319e-05)
(-0.000786414 -0.000526838 6.87277e-06)
(-0.00045293 -0.000376674 3.96026e-06)
(-0.000207111 -0.000229638 1.81289e-06)
(-4.77696e-05 -9.39467e-05 4.20367e-07)
(3.01698e-05 1.75808e-05 -2.61546e-07)
(4.12776e-05 8.29195e-05 -3.60248e-07)
(1.07229e-05 7.07007e-05 -1.03316e-07)
(-0.0298065 -0.00687467 0.000260211)
(-0.0273041 -0.00602402 0.000238367)
(-0.0249878 -0.00531034 0.000218146)
(-0.0228417 -0.00471247 0.000199412)
(-0.0208503 -0.00421185 0.000182029)
(-0.0189991 -0.00379233 0.000165868)
(-0.0172742 -0.00343986 0.00015081)
(-0.0156632 -0.00314227 0.000136747)
(-0.0141552 -0.00288906 0.000123583)
(-0.0127403 -0.00267112 0.000111232)
(-0.0114103 -0.0024806 9.96213e-05)
(-0.0101583 -0.00231078 8.86919e-05)
(-0.00897893 -0.00215584 7.83966e-05)
(-0.00786849 -0.00201085 6.87028e-05)
(-0.0068242 -0.00187149 5.95864e-05)
(-0.00584486 -0.00173413 5.1037e-05)
(-0.00493066 -0.00159569 4.3056e-05)
(-0.00408287 -0.00145361 3.56546e-05)
(-0.00330399 -0.00130591 2.88547e-05)
(-0.00259732 -0.00115122 2.26851e-05)
(-0.00196707 -0.000988945 1.71823e-05)
(-0.00141785 -0.000819462 1.23868e-05)
(-0.000954191 -0.000644387 8.33807e-06)
(-0.000579903 -0.000467054 5.06932e-06)
(-0.000297488 -0.000293139 2.60244e-06)
(-0.000106202 -0.000132041 9.30983e-07)
(-1.80372e-06 1.66762e-06 1.79979e-08)
(2.93582e-05 8.321e-05 -2.5581e-07)
(1.00462e-05 7.67961e-05 -9.54802e-08)
(-0.0308075 -0.00756555 0.000268949)
(-0.0283433 -0.00667287 0.000247438)
(-0.0260439 -0.00591843 0.000227366)
(-0.0238978 -0.00528219 0.000208631)
(-0.0218929 -0.00474622 0.000191129)
(-0.0200173 -0.00429457 0.000174756)
(-0.0182596 -0.00391316 0.000159413)
(-0.0166094 -0.00358957 0.000145007)
(-0.0150571 -0.00331293 0.000131457)
(-0.0135942 -0.00307368 0.000118686)
(-0.0122133 -0.00286352 0.000106632)
(-0.0109085 -0.00267521 9.52414e-05)
(-0.00967496 -0.00250248 8.44732e-05)
(-0.00850956 -0.00233992 7.42996e-05)
(-0.00740998 -0.00218281 6.47006e-05)
(-0.00637547 -0.00202711 5.56696e-05)
(-0.0054066 -0.00186942 4.72114e-05)
(-0.00450501 -0.00170689 3.93404e-05)
(-0.00367357 -0.00153733 3.20817e-05)
(-0.00291594 -0.00135923 2.54671e-05)
(-0.00223664 -0.001172 1.95363e-05)
(-0.00164065 -0.000976131 1.43324e-05)
(-0.00113281 -0.00077354 9.89795e-06)
(-0.000717266 -0.000568066 6.26906e-06)
(-0.000396972 -0.000366157 3.47148e-06)
(-0.000171745 -0.000178337 1.50369e-06)
(-3.84223e-05 -2.08303e-05 3.38122e-07)
(1.53357e-05 7.89853e-05 -1.32964e-07)
(9.18209e-06 8.1083e-05 -8.56308e-08)
(-0.0315896 -0.00818372 0.000275775)
(-0.0291851 -0.00726577 0.000254786)
(-0.0269238 -0.00648434 0.000235046)
(-0.0247976 -0.00582097 0.000216486)
(-0.0227978 -0.00525876 0.000199029)
(-0.0209153 -0.00478237 0.000182596)
(-0.019141 -0.00437798 0.000167107)
(-0.0174661 -0.00403318 0.000152487)
(-0.015883 -0.00373697 0.000138667)
(-0.0143842 -0.00347953 0.000125583)
(-0.0129635 -0.00325221 0.000113181)
(-0.0116158 -0.00304741 0.000101417)
(-0.0103371 -0.00285846 9.02541e-05)
(-0.00912485 -0.00267957 7.96713e-05)
(-0.00797719 -0.00250562 6.96526e-05)
(-0.00689388 -0.00233225 6.01955e-05)
(-0.00587588 -0.00215573 5.13085e-05)
(-0.00492525 -0.00197297 4.30094e-05)
(-0.0040452 -0.00178158 3.53264e-05)
(-0.00323973 -0.00157995 2.82942e-05)
(-0.00251369 -0.00136748 2.19554e-05)
(-0.00187237 -0.0011448 1.63559e-05)
(-0.00132094 -0.00091414 1.15409e-05)
(-0.000863888 -0.000679827 7.54962e-06)
(-0.000504651 -0.000449051 4.41207e-06)
(-0.000243729 -0.000233375 2.13263e-06)
(-7.92584e-05 -5.0541e-05 6.95091e-07)
(-5.8532e-07 6.96865e-05 6.49858e-09)
(8.157e-06 8.32693e-05 -7.40366e-08)
(-0.0321802 -0.00872382 0.00028093)
(-0.0298518 -0.00779671 0.000260605)
(-0.0276449 -0.0070018 0.000241341)
(-0.0255549 -0.00632257 0.000223096)
(-0.0235759 -0.00574346 0.000205821)
(-0.0217013 -0.00525003 0.000189457)
(-0.0199242 -0.00482898 0.000173944)
(-0.0182378 -0.00446818 0.000159223)
(-0.0166358 -0.00415668 0.000145238)
(-0.0151122 -0.00388454 0.000131938)
(-0.0136619 -0.00364294 0.000119278)
(-0.0122807 -0.00342399 0.00010722)
(-0.0109652 -0.00322072 9.57372e-05)
(-0.00971367 -0.00302702 8.48118e-05)
(-0.00852481 -0.00283747 7.44334e-05)
(-0.0073988 -0.00264737 6.46037e-05)
(-0.00633706 -0.00245275 5.53349e-05)
(-0.00534202 -0.00225026 4.66481e-05)
(-0.00441725 -0.00203736 3.85747e-05)
(-0.00356708 -0.00181234 3.11524e-05)
(-0.00279666 -0.00157462 2.44261e-05)
(-0.00211157 -0.001325 1.84446e-05)
(-0.00151729 -0.00106599 1.32555e-05)
(-0.00101866 -0.000802405 8.90134e-06)
(-0.000619646 -0.00054212 5.41651e-06)
(-0.000321515 -0.000297631 2.81225e-06)
(-0.000123913 -8.8031e-05 1.08541e-06)
(-1.82244e-05 5.48039e-05 1.60999e-07)
(6.98725e-06 8.30937e-05 -6.0877e-08)
(-0.0326049 -0.00918322 0.000284637)
(-0.0303641 -0.00826195 0.000265077)
(-0.0282242 -0.00746646 0.000246397)
(-0.0261832 -0.00678232 0.00022858)
(-0.0242377 -0.00619558 0.000211598)
(-0.0223835 -0.00569289 0.000195412)
(-0.0206156 -0.00526171 0.000179979)
(-0.018929 -0.00489035 0.000165256)
(-0.0173188 -0.00456809 0.000151201)
(-0.0157805 -0.00428505 0.000137772)
(-0.0143098 -0.0040323 0.000124934)
(-0.0129035 -0.00380183 0.000112658)
(-0.0115592 -0.00358642 0.000100922)
(-0.0102756 -0.00337972 8.9717e-05)
(-0.00905199 -0.00317604 7.90357e-05)
(-0.00788912 -0.00297043 6.88842e-05)
(-0.00678881 -0.00275866 5.92787e-05)
(-0.00575386 -0.00253721 5.02436e-05)
(-0.0047882 -0.00230337 4.18133e-05)
(-0.00389644 -0.00205538 3.4028e-05)
(-0.00308403 -0.00179268 2.69352e-05)
(-0.00235683 -0.00151623 2.05861e-05)
(-0.00172059 -0.00122886 1.50308e-05)
(-0.00118051 -0.000935813 1.03148e-05)
(-0.000741102 -0.000645604 6.47736e-06)
(-0.000404497 -0.00037152 3.53723e-06)
(-0.000172016 -0.000133808 1.50587e-06)
(-3.74226e-05 3.38636e-05 3.29148e-07)
(5.68491e-06 8.03323e-05 -4.62888e-08)
(-0.0328871 -0.00956143 0.0002871)
(-0.0307416 -0.00865968 0.000268371)
(-0.0286776 -0.00787559 0.000250355)
(-0.0266954 -0.00719698 0.000233052)
(-0.0247937 -0.00661156 0.000216452)
(-0.0229702 -0.00610728 0.000200533)
(-0.0212217 -0.0056725 0.00018527)
(-0.0195446 -0.00529613 0.000170631)
(-0.0179357 -0.0049678 0.000156586)
(-0.0163914 -0.00467781 0.000143105)
(-0.0149087 -0.00441728 0.000130162)
(-0.0134853 -0.00417811 0.000117736)
(-0.0121193 -0.00395296 0.000105812)
(-0.0108103 -0.00373528 9.43847e-05)
(-0.00955806 -0.00351918 8.34536e-05)
(-0.00836385 -0.00329949 7.30286e-05)
(-0.0072299 -0.00307177 6.31295e-05)
(-0.00615939 -0.00283234 5.3784e-05)
(-0.00515656 -0.00257837 4.50292e-05)
(-0.0042263 -0.00230805 3.69079e-05)
(-0.00337434 -0.00202088 2.94699e-05)
(-0.00260676 -0.00171798 2.27683e-05)
(-0.0019296 -0.00140246 1.68559e-05)
(-0.00134839 -0.00108001 1.17808e-05)
(-0.000868197 -0.000759677 7.58743e-06)
(-0.000492099 -0.000455392 4.30254e-06)
(-0.000223232 -0.000188321 1.9535e-06)
(-5.80415e-05 6.44082e-06 5.0973e-07)
(4.2618e-06 7.4779e-05 -3.03961e-08)
(-0.0330475 -0.00985963 0.0002885)
(-0.031002 -0.00898961 0.000270644)
(-0.0290202 -0.00822788 0.000253344)
(-0.0271041 -0.00756447 0.000236619)
(-0.0252541 -0.00698889 0.00022047)
(-0.0234696 -0.00649042 0.000204892)
(-0.0217488 -0.00605844 0.000189871)
(-0.0200897 -0.00568257 0.000175388)
(-0.0184902 -0.00535291 0.000161426)
(-0.0169478 -0.00506004 0.000147962)
(-0.0154606 -0.00479521 0.000134979)
(-0.0140269 -0.00455033 0.000122464)
(-0.0126459 -0.004318 0.000110409)
(-0.0113176 -0.00409154 9.88138e-05)
(-0.0100425 -0.0038649 8.76825e-05)
(-0.00882214 -0.00363274 7.70293e-05)
(-0.00765923 -0.00339047 6.68775e-05)
(-0.00655731 -0.00313425 5.72578e-05)
(-0.00552092 -0.00286117 4.82102e-05)
(-0.00455522 -0.00256939 3.97795e-05)
(-0.00366614 -0.00225846 3.20175e-05)
(-0.00286001 -0.0019297 2.49795e-05)
(-0.0021431 -0.0015865 1.87201e-05)
(-0.00152126 -0.00123492 1.32904e-05)
(-0.00100013 -0.000884454 8.73976e-06)
(-0.000583774 -0.00054953 5.10342e-06)
(-0.000277249 -0.000251959 2.42561e-06)
(-7.99648e-05 -2.78388e-05 7.01728e-07)
(2.72381e-06 6.62375e-05 -1.32668e-08)
(-0.0331049 -0.0100803 0.000289)
(-0.0311614 -0.00925264 0.000272035)
(-0.0292656 -0.00852306 0.000255486)
(-0.0274207 -0.00788373 0.000239382)
(-0.0256285 -0.00732591 0.000223737)
(-0.0238895 -0.00684029 0.000208557)
(-0.0222033 -0.00641728 0.000193838)
(-0.0205692 -0.0060473 0.000179573)
(-0.018986 -0.00572101 0.000165753)
(-0.0174523 -0.00542936 0.000152366)
(-0.0159671 -0.00516378 0.000139401)
(-0.0145297 -0.00491627 0.000126853)
(-0.0131396 -0.00467944 0.000114719)
(-0.0117977 -0.00444653 0.000103005)
(-0.0105049 -0.00421139 9.17189e-05)
(-0.00926322 -0.00396854 8.08798e-05)
(-0.00807578 -0.00371327 7.05138e-05)
(-0.00694642 -0.00344162 6.06546e-05)
(-0.00587995 -0.00315062 5.13445e-05)
(-0.00488178 -0.00283842 4.26304e-05)
(-0.00395804 -0.00250467 3.4566e-05)
(-0.00311525 -0.00215084 2.7208e-05)
(-0.00235989 -0.00178062 2.0613e-05)
(-0.00169812 -0.00140038 1.48349e-05)
(-0.00113615 -0.00101998 9.92765e-06)
(-0.000679006 -0.000654155 5.93535e-06)
(-0.000333789 -0.000325056 2.91975e-06)
(-0.000103099 -6.93116e-05 9.04321e-07)
(1.07047e-06 5.4527e-05 5.08988e-09)
(-0.0330756 -0.0102266 0.000288743)
(-0.0312343 -0.00945058 0.000272671)
(-0.0294264 -0.0087618 0.00025689)
(-0.027656 -0.00815453 0.000241436)
(-0.0259258 -0.00762175 0.000226332)
(-0.0242373 -0.00715552 0.000211593)
(-0.0225913 -0.00674735 0.000197225)
(-0.0209879 -0.00638848 0.000183228)
(-0.0194269 -0.00607017 0.000169602)
(-0.0179078 -0.00578377 0.000156342)
(-0.0164305 -0.005521 0.000143445)
(-0.0149948 -0.00527401 0.000130913)
(-0.0136011 -0.00503542 0.000118747)
(-0.0122507 -0.00479849 0.000106958)
(-0.010945 -0.00455699 9.55603e-05)
(-0.00968648 -0.00430536 8.45745e-05)
(-0.00847863 -0.00403877 7.40305e-05)
(-0.00732557 -0.0037532 6.39645e-05)
(-0.00623238 -0.00344564 5.44212e-05)
(-0.00520465 -0.00311424 4.54491e-05)
(-0.0042487 -0.00275875 3.71036e-05)
(-0.00337121 -0.00238084 2.94427e-05)
(-0.00257883 -0.00198443 2.25247e-05)
(-0.00187802 -0.00157619 1.64057e-05)
(-0.00127549 -0.00116626 1.11446e-05)
(-0.000777306 -0.00076942 6.79406e-06)
(-0.000392598 -0.000407889 3.4337e-06)
(-0.000127372 -0.000118278 1.11689e-06)
(-7.04449e-07 3.94779e-05 2.47208e-08)
(-0.0329737 -0.0103026 0.000287854)
(-0.0312334 -0.00958589 0.000272662)
(-0.0295139 -0.00894539 0.000257652)
(-0.0278198 -0.00837729 0.000242864)
(-0.0261545 -0.00787615 0.000228328)
(-0.0245203 -0.00743537 0.000214063)
(-0.0229187 -0.00704755 0.000200082)
(-0.0213505 -0.00670474 0.000186393)
(-0.0198166 -0.00639884 0.000173004)
(-0.0183172 -0.00612167 0.000159915)
(-0.0168527 -0.00586524 0.00014713)
(-0.0154236 -0.00562188 0.000134656)
(-0.0140311 -0.00538434 0.0001225)
(-0.0126767 -0.00514588 0.000110677)
(-0.0113625 -0.00490024 9.92053e-05)
(-0.0100914 -0.00464181 8.81087e-05)
(-0.00886694 -0.0043657 7.74202e-05)
(-0.00769372 -0.00406784 6.71783e-05)
(-0.006577 -0.00374519 5.74296e-05)
(-0.00552255 -0.00339596 4.82243e-05)
(-0.00453681 -0.00301998 3.96189e-05)
(-0.00362663 -0.00261911 3.16727e-05)
(-0.00279879 -0.00219752 2.44451e-05)
(-0.00205999 -0.00176212 1.79947e-05)
(-0.00141746 -0.00132319 1.23844e-05)
(-0.000878213 -0.000895411 7.67551e-06)
(-0.00045345 -0.000500678 3.9655e-06)
(-0.000152737 -0.000175006 1.33899e-06)
(-2.61292e-06 2.09276e-05 4.5728e-08)
(-0.0328117 -0.0103123 0.000286439)
(-0.0311699 -0.00966143 0.000272107)
(-0.0295381 -0.00907565 0.000257863)
(-0.027921 -0.00855292 0.000243747)
(-0.0263223 -0.00808934 0.000229792)
(-0.0247449 -0.00767955 0.000216023)
(-0.0231909 -0.00731718 0.000202457)
(-0.0216618 -0.00699512 0.000189109)
(-0.0201589 -0.00670588 0.000175991)
(-0.0186832 -0.00644177 0.000163109)
(-0.0172357 -0.00619513 0.000150474)
(-0.0158176 -0.00595852 0.000138095)
(-0.0144304 -0.00572481 0.000125985)
(-0.0130762 -0.00548733 0.000114165)
(-0.0117575 -0.00523983 0.000102653)
(-0.0104774 -0.00497666 9.14784e-05)
(-0.00923997 -0.00469291 8.06763e-05)
(-0.0080499 -0.00438448 7.02874e-05)
(-0.00691268 -0.00404833 6.03598e-05)
(-0.00583423 -0.00368273 5.09452e-05)
(-0.00482112 -0.00328762 4.21009e-05)
(-0.00388029 -0.00286506 3.38873e-05)
(-0.00301866 -0.00241943 2.63648e-05)
(-0.00224312 -0.00195785 1.95938e-05)
(-0.00156134 -0.00149064 1.3641e-05)
(-0.000981286 -0.00103215 8.57587e-06)
(-0.000516147 -0.000603589 4.5134e-06)
(-0.000179167 -0.000239732 1.57042e-06)
(-4.67309e-06 -1.28378e-06 6.82739e-08)
(-0.0326001 -0.0102602 0.000284591)
(-0.0310538 -0.00968037 0.000271093)
(-0.0295081 -0.00915472 0.0002576)
(-0.0279676 -0.00868277 0.000244153)
(-0.0264363 -0.00826198 0.000230787)
(-0.0249173 -0.0078882 0.000217527)
(-0.0234132 -0.00755598 0.000204397)
(-0.0219259 -0.00725903 0.000191414)
(-0.0204572 -0.00699048 0.000178594)