/*--------------------------------*- C++ -*----------------------------------*\
| =========                 |                                                 |
| \\      /  F ield         | OpenFOAM: The Open Source CFD Toolbox           |
|  \\    /   O peration     | Version:  v2012                                 |
|   \\  /    A nd           | Website:  www.openfoam.com                      |
|    \\/     M anipulation  |                                                 |
\*---------------------------------------------------------------------------*/
FoamFile
{
    version     2.0;
    format      ascii;
    class       surfaceScalarField;
    location    "0.15";
    object      phi;
}
// * * * * * * * * * * * * * * * * * * * * * * * * * * * * * * * * * * * * * //

dimensions      [0 3 -1 0 0 0 0];
oriented        oriented;


internalField   nonuniform List<scalar> 
8212
(
4.74187e-11
-2.74418e-09
1.70237e-14
1.95583e-10
-1.61085e-08
1.2519e-14
4.07748e-10
-3.39412e-08
9.97238e-16
4.63475e-10
-5.0156e-08
1.01271e-15
1.03746e-09
-7.39086e-08
1.08163e-17
1.32347e-09
-9.5757e-08
5.73029e-15
1.39393e-09
-1.01352e-07
-6.20396e-15
1.79049e-09
-9.2072e-08
6.30881e-15
2.00906e-09
-7.40838e-08
1.14224e-14
1.97652e-09
-7.90228e-08
2.44245e-15
2.00103e-09
-8.88968e-08
2.60918e-15
2.04977e-09
-9.7798e-08
2.51546e-15
2.10105e-09
-1.05321e-07
2.40113e-15
2.14439e-09
-1.11428e-07
2.16263e-15
2.17125e-09
-1.16613e-07
1.88489e-15
2.17821e-09
-1.21355e-07
1.61118e-15
2.16358e-09
-1.25927e-07
1.36459e-15
2.1261e-09
-1.30423e-07
1.15909e-15
2.06461e-09
-1.3483e-07
9.7246e-16
1.97813e-09
-1.39065e-07
8.24953e-16
1.86595e-09
-1.43018e-07
7.20772e-16
1.72763e-09
-1.46577e-07
6.20162e-16
1.56318e-09
-1.49597e-07
5.29535e-16
1.37294e-09
-1.51983e-07
4.42104e-16
1.15772e-09
-1.53605e-07
3.91967e-16
9.1879e-10
-1.54371e-07
3.38294e-16
6.57952e-10
-1.54183e-07
2.86612e-16
3.77663e-10
-1.52932e-07
2.40412e-16
8.1051e-11
-1.50558e-07
1.95836e-16
-2.27829e-10
-1.46945e-07
6.98172e-17
-5.43914e-10
-1.42026e-07
1.4766e-16
-8.60896e-10
-1.35717e-07
1.77071e-16
-1.17094e-09
-1.27935e-07
1.52994e-16
-1.46434e-09
-1.18609e-07
1.3181e-16
-1.729e-09
-1.07671e-07
1.13402e-16
-1.94961e-09
-9.50666e-08
9.72782e-17
-2.10611e-09
-8.07439e-08
8.28153e-17
-2.1717e-09
-6.46789e-08
6.92101e-17
-4.68643e-08
5.45721e-17
6.91456e-11
-2.81332e-09
2.65304e-14
2.6895e-10
-1.63083e-08
1.43595e-14
5.26803e-10
-3.4199e-08
7.25364e-16
5.17862e-10
-5.01471e-08
5.1723e-16
1.18329e-09
-7.4574e-08
7.54422e-15
1.41375e-09
-9.59875e-08
6.1751e-15
1.53179e-09
-1.0147e-07
-9.05926e-15
1.99843e-09
-9.25386e-08
6.61111e-15
2.19339e-09
-7.42788e-08
7.22356e-15
2.07746e-09
-7.89069e-08
2.49742e-15
2.07179e-09
-8.88911e-08
2.37188e-15
2.1149e-09
-9.78411e-08
2.47485e-15
2.16897e-09
-1.05375e-07
2.33601e-15
2.21672e-09
-1.11476e-07
2.14798e-15
2.24428e-09
-1.16641e-07
1.84874e-15
2.24738e-09
-1.21358e-07
1.61114e-15
2.22527e-09
-1.25904e-07
1.35814e-15
2.178e-09
-1.30375e-07
1.17637e-15
2.10559e-09
-1.34757e-07
1.01865e-15
2.00799e-09
-1.38967e-07
8.17211e-16
1.88508e-09
-1.42895e-07
6.91545e-16
1.73682e-09
-1.46429e-07
5.91144e-16
1.56336e-09
-1.49424e-07
5.06431e-16
1.36508e-09
-1.51784e-07
4.31581e-16
1.14272e-09
-1.53383e-07
3.85752e-16
8.97431e-10
-1.54126e-07
3.22453e-16
6.30861e-10
-1.53916e-07
2.70814e-16
3.45322e-10
-1.52647e-07
2.24587e-16
4.38036e-11
-1.50257e-07
1.82894e-16
-2.69767e-10
-1.46632e-07
1.54852e-16
-5.90448e-10
-1.41705e-07
2.34812e-16
-9.12062e-10
-1.35395e-07
1.67313e-16
-1.22694e-09
-1.2762e-07
1.41287e-16
-1.52562e-09
-1.18311e-07
1.21835e-16
-1.79643e-09
-1.07401e-07
1.04883e-16
-2.02486e-09
-9.48381e-08
9.09182e-17
-2.19254e-09
-8.05762e-08
7.91389e-17
-2.27651e-09
-6.45949e-08
6.9009e-17
-4.68953e-08
5.79283e-17
6.127e-11
-2.8746e-09
2.08174e-14
2.22049e-10
-1.64691e-08
9.36085e-15
4.14781e-10
-3.43917e-08
-2.76651e-16
4.39587e-10
-5.01719e-08
-4.36916e-16
9.48874e-10
-7.50833e-08
2.90228e-15
1.24748e-09
-9.62861e-08
1.4089e-15
1.64102e-09
-1.01863e-07
-3.579e-15
2.09343e-09
-9.2991e-08
1.83157e-14
2.33144e-09
-7.45168e-08
7.73619e-15
2.22939e-09
-7.88049e-08
2.6303e-15
2.19588e-09
-8.88576e-08
2.28938e-15
2.20769e-09
-9.78529e-08
2.33072e-15
2.23881e-09
-1.05406e-07
2.20359e-15
2.27341e-09
-1.11511e-07
1.97725e-15
2.2948e-09
-1.16662e-07
1.71074e-15
2.29515e-09
-1.21359e-07
1.49439e-15
2.27108e-09
-1.2588e-07
1.24607e-15
2.22116e-09
-1.30325e-07
1.10332e-15
2.14472e-09
-1.34681e-07
9.16305e-16
2.04156e-09
-1.38864e-07
7.86636e-16
1.91174e-09
-1.42765e-07
6.80566e-16
1.75549e-09
-1.46273e-07
5.775e-16
1.57331e-09
-1.49242e-07
4.89785e-16
1.36584e-09
-1.51577e-07
4.09432e-16
1.13401e-09
-1.53151e-07
3.65724e-16
8.79091e-10
-1.53871e-07
3.08073e-16
6.02806e-10
-1.5364e-07
2.58298e-16
3.07467e-10
-1.52352e-07
2.13328e-16
-3.96433e-12
-1.49945e-07
1.71491e-16
-3.27618e-10
-1.46308e-07
1.11826e-16
-6.58639e-10
-1.41374e-07
1.9567e-16
-9.90987e-10
-1.35063e-07
1.59618e-16
-1.31722e-09
-1.27294e-07
1.36154e-16
-1.62826e-09
-1.18e-07
1.17968e-16
-1.91314e-09
-1.07116e-07
1.01839e-16
-2.15869e-09
-9.45926e-08
8.89192e-17
-2.34919e-09
-8.03857e-08
7.8221e-17
-2.46715e-09
-6.44769e-08
6.94138e-17
-4.68685e-08
5.89671e-17
7.16864e-11
-2.94628e-09
1.53949e-14
2.53164e-10
-1.66505e-08
1.03265e-14
4.22662e-10
-3.45612e-08
5.97931e-16
4.26206e-10
-5.01755e-08
7.77939e-16
8.85389e-10
-7.55425e-08
1.81414e-15
1.35792e-09
-9.67586e-08
1.87229e-15
1.86488e-09
-1.0237e-07
1.27111e-15
2.22389e-09
-9.335e-08
2.12996e-14
2.4372e-09
-7.47301e-08
6.52218e-15
2.32393e-09
-7.86916e-08
2.69837e-15
2.28532e-09
-8.8819e-08
2.07115e-15
2.2904e-09
-9.7858e-08
2.14686e-15
2.31602e-09
-1.05432e-07
2.14887e-15
2.34701e-09
-1.11542e-07
1.88224e-15
2.36556e-09
-1.16681e-07
1.62689e-15
2.36247e-09
-1.21356e-07
1.41196e-15
2.33355e-09
-1.25851e-07
1.14077e-15
2.27707e-09
-1.30269e-07
1.04887e-15
2.19246e-09
-1.34596e-07
8.64024e-16
2.07978e-09
-1.38751e-07
6.71784e-16
1.93944e-09
-1.42625e-07
5.79961e-16
1.77201e-09
-1.46105e-07
5.03487e-16
1.57821e-09
-1.49048e-07
4.32093e-16
1.35884e-09
-1.51357e-07
3.62878e-16
1.11494e-09
-1.52907e-07
3.27118e-16
8.4779e-10
-1.53604e-07
2.73734e-16
5.59075e-10
-1.53351e-07
2.28673e-16
2.51057e-10
-1.52044e-07
1.87581e-16
-7.33821e-11
-1.49621e-07
1.49012e-16
-4.10466e-10
-1.45971e-07
9.47116e-17
-7.55464e-10
-1.41029e-07
1.82162e-16
-1.10251e-09
-1.34716e-07
1.46989e-16
-1.44445e-09
-1.26952e-07
1.26186e-16
-1.77269e-09
-1.17671e-07
1.10353e-16
-2.0771e-09
-1.06811e-07
9.59895e-17
-2.34603e-09
-9.43236e-08
8.4861e-17
-2.56655e-09
-8.01652e-08
7.58736e-17
-2.72611e-09
-6.43174e-08
6.88888e-17
-4.67792e-08
5.98177e-17
7.05764e-11
-3.01686e-09
1.50607e-14
2.44559e-10
-1.68245e-08
4.68111e-15
3.57593e-10
-3.46742e-08
-1.88388e-15
3.29364e-10
-5.01473e-08
-7.44732e-16
7.63046e-10
-7.59762e-08
3.17009e-15
1.44816e-09
-9.74437e-08
3.85409e-15
1.97373e-09
-1.02896e-07
1.31247e-15
2.22494e-09
-9.36013e-08
2.02129e-14
2.50887e-09
-7.5014e-08
4.11849e-15
2.39561e-09
-7.85783e-08
2.76952e-15
2.35235e-09
-8.87757e-08
1.8989e-15
2.35275e-09
-9.78584e-08
1.92647e-15
2.37427e-09
-1.05453e-07
1.90844e-15
2.4027e-09
-1.1157e-07
1.6461e-15
2.41979e-09
-1.16698e-07
1.39405e-15
2.41538e-09
-1.21351e-07
1.20236e-15
2.38438e-09
-1.2582e-07
9.36784e-16
2.32432e-09
-1.30209e-07
8.69368e-16
2.23422e-09
-1.34506e-07
6.99416e-16
2.11408e-09
-1.38631e-07
5.81008e-16
1.96442e-09
-1.42475e-07
5.12486e-16
1.78606e-09
-1.45927e-07
4.47212e-16
1.58002e-09
-1.48842e-07
3.8321e-16
1.34738e-09
-1.51125e-07
3.18639e-16
1.08936e-09
-1.52649e-07
2.87619e-16
8.07411e-10
-1.53322e-07
2.38086e-16
5.03292e-10
-1.53047e-07
1.96431e-16
1.79295e-10
-1.5172e-07
1.58493e-16
-1.61713e-10
-1.4928e-07
1.22609e-16
-5.16004e-10
-1.45617e-07
6.97561e-17
-8.78946e-10
-1.40666e-07
1.63762e-16
-1.24485e-09
-1.3435e-07
1.31395e-16
-1.60684e-09
-1.2659e-07
1.13316e-16
-1.95682e-09
-1.17321e-07
1.00106e-16
-2.28554e-09
-1.06483e-07
8.78607e-17
-2.58277e-09
-9.40264e-08
7.88142e-17
-2.83805e-09
-7.99099e-08
7.17837e-17
-3.04255e-09
-6.41129e-08
6.68889e-17
-4.66292e-08
5.99044e-17
7.52652e-11
-3.09213e-09
1.32258e-14
2.52976e-10
-1.70022e-08
7.16561e-15
3.22034e-10
-3.47433e-08
-3.45579e-15
2.52662e-10
-5.00779e-08
3.13449e-15
7.47859e-10
-7.64714e-08
2.60139e-15
1.60264e-09
-9.82985e-08
-1.30954e-15
1.95111e-09
-1.03244e-07
-3.8461e-15
2.08364e-09
-9.37338e-08
2.15692e-14
2.52111e-09
-7.54515e-08
5.13597e-15
2.43124e-09
-7.84885e-08
2.34062e-15
2.39041e-09
-8.87349e-08
1.57682e-15
2.39227e-09
-9.78602e-08
1.68766e-15
2.41518e-09
-1.05476e-07
1.66895e-15
2.4453e-09
-1.116e-07
1.42993e-15
2.46354e-09
-1.16716e-07
1.17664e-15
2.45903e-09
-1.21347e-07
1.02213e-15
2.42623e-09
-1.25788e-07
7.8013e-16
2.36245e-09
-1.30145e-07
7.43839e-16
2.26662e-09
-1.3441e-07
5.87158e-16
2.13877e-09
-1.38503e-07
4.49306e-16
1.97955e-09
-1.42316e-07
3.91289e-16
1.78997e-09
-1.45737e-07
3.45109e-16
1.57121e-09
-1.48623e-07
2.97127e-16
1.32454e-09
-1.50878e-07
2.45729e-16
1.05131e-09
-1.52376e-07
2.26159e-16
7.53061e-10
-1.53024e-07
1.85328e-16
4.31641e-10
-1.52726e-07
1.51223e-16
8.9383e-11
-1.51377e-07
1.19456e-16
-2.70828e-10
-1.4892e-07
8.86217e-17
-6.45276e-10
-1.45242e-07
3.96862e-17
-1.02938e-09
-1.40282e-07
1.41872e-16
-1.41759e-09
-1.33962e-07
1.12633e-16
-1.80326e-09
-1.26204e-07
9.77882e-17
-2.17876e-09
-1.16946e-07
8.76234e-17
-2.53557e-09
-1.06126e-07
7.78802e-17
-2.86469e-09
-9.36973e-08
7.11547e-17
-3.15749e-09
-7.9617e-08
6.61982e-17
-3.40758e-09
-6.38628e-08
6.34292e-17
-4.64231e-08
5.87615e-17
7.69458e-11
-3.16906e-09
1.22375e-14
2.52041e-10
-1.71773e-08
5.69772e-15
2.68514e-10
-3.47597e-08
-5.18267e-15
1.54112e-10
-4.99635e-08
4.3011e-15
7.88508e-10
-7.71058e-08
7.88702e-15
1.67178e-09
-9.91818e-08
1.96806e-15
1.66878e-09
-1.03241e-07
-6.50061e-15
1.74192e-09
-9.38069e-08
1.33873e-14
2.47173e-09
-7.61813e-08
3.2665e-15
2.44098e-09
-7.84577e-08
8.60447e-16
2.40515e-09
-8.86991e-08
1.08646e-15
2.40845e-09
-9.78635e-08
1.34367e-15
2.4326e-09
-1.05501e-07
1.31424e-15
2.46468e-09
-1.11632e-07
1.08103e-15
2.48472e-09
-1.16736e-07
8.72629e-16
2.48117e-09
-1.21343e-07
7.48618e-16
2.44799e-09
-1.25755e-07
5.50057e-16
2.3821e-09
-1.30079e-07
5.39983e-16
2.28217e-09
-1.3431e-07
4.08093e-16
2.14809e-09
-1.38369e-07
3.38604e-16
1.98049e-09
-1.42148e-07
3.01134e-16
1.78042e-09
-1.45537e-07
2.65841e-16
1.5492e-09
-1.48392e-07
2.25856e-16
1.28823e-09
-1.50617e-07
1.82369e-16
9.99026e-10
-1.52086e-07
1.69852e-16
6.83259e-10
-1.52708e-07
1.35024e-16
3.42886e-10
-1.52385e-07
1.06143e-16
-1.9662e-11
-1.51015e-07
7.91784e-17
-4.01431e-10
-1.48538e-07
5.24257e-17
-7.9866e-10
-1.44845e-07
6.90604e-18
-1.20677e-09
-1.39874e-07
1.17922e-16
-1.62027e-09
-1.33548e-07
9.16287e-17
-2.03272e-09
-1.25792e-07
8.0057e-17
-2.4368e-09
-1.16542e-07
7.31401e-17
-2.82459e-09
-1.05738e-07
6.61519e-17
-3.18799e-09
-9.33339e-08
6.19429e-17
-3.51961e-09
-7.92854e-08
5.91648e-17
-3.81431e-09
-6.35681e-08
5.85212e-17
-4.61661e-08
5.61936e-17
8.01437e-11
-3.24922e-09
9.88313e-15
2.56387e-10
-1.73536e-08
7.56816e-15
2.18965e-10
-3.47223e-08
-5.21743e-15
7.47194e-11
-4.98193e-08
4.07987e-15
8.93325e-10
-7.79244e-08
-8.30109e-16
1.58981e-09
-9.98783e-08
1.20003e-15
1.13252e-09
-1.02784e-07
-1.13023e-14
1.24708e-09
-9.39215e-08
6.68511e-15
2.36158e-09
-7.72958e-08
1.45003e-15
2.42314e-09
-7.85193e-08
-4.09161e-16
2.39729e-09
-8.86732e-08
4.20527e-16
2.40291e-09
-9.78691e-08
8.80496e-16
2.42852e-09
-1.05526e-07
8.4903e-16
2.46275e-09
-1.11666e-07
6.17021e-16
2.48472e-09
-1.16758e-07
4.99085e-16
2.48227e-09
-1.21341e-07
3.94269e-16
2.44892e-09
-1.25721e-07
2.94971e-16
2.38135e-09
-1.30012e-07
3.20952e-16
2.27794e-09
-1.34207e-07
2.28948e-16
2.1384e-09
-1.3823e-07
1.79166e-16
1.96322e-09
-1.41973e-07
1.61922e-16
1.75336e-09
-1.45327e-07
1.47396e-16
1.51014e-09
-1.48149e-07
1.2597e-16
1.235e-09
-1.50342e-07
9.74043e-17
9.29535e-10
-1.51781e-07
9.78203e-17
5.95519e-10
-1.52374e-07
7.2899e-17
2.35033e-10
-1.52025e-07
5.24758e-17
-1.49364e-10
-1.5063e-07
3.24162e-17
-5.54595e-10
-1.48133e-07
1.14009e-17
-9.76791e-10
-1.44423e-07
-2.95565e-17
-1.4113e-09
-1.39439e-07
9.16355e-17
-1.85262e-09
-1.33107e-07
6.83334e-17
-2.29438e-09
-1.2535e-07
6.03506e-17
-2.72948e-09
-1.16107e-07
5.69014e-17
-3.15037e-09
-1.05317e-07
5.2883e-17
-3.54951e-09
-9.29347e-08
5.13176e-17
-3.9202e-09
-7.89147e-08
5.07978e-17
-4.25769e-09
-6.32306e-08
5.2256e-17
-4.58633e-08
5.22002e-17
8.28425e-11
-3.33206e-09
9.62081e-15
2.60555e-10
-1.75313e-08
7.45376e-15
1.56791e-10
-3.46185e-08
-5.77316e-15
1.2585e-11
-4.96751e-08
7.48862e-15
9.96133e-10
-7.89079e-08
6.35589e-16
1.29081e-09
-1.00173e-07
-1.08076e-15
4.28445e-10
-1.01922e-07
-5.25631e-15
7.10794e-10
-9.42039e-08
9.99506e-15
2.22388e-09
-7.88089e-08
6.10171e-16
2.38809e-09
-7.86835e-08
-1.91314e-15
2.37203e-09
-8.86572e-08
-2.80538e-16
2.37773e-09
-9.78748e-08
4.02351e-16
2.40264e-09
-1.05551e-07
3.93421e-16
2.43749e-09
-1.11701e-07
1.84084e-16
2.46054e-09
-1.16781e-07
1.50952e-16
2.45891e-09
-1.21339e-07
4.09199e-17
2.42564e-09
-1.25688e-07
2.54009e-17
2.35703e-09
-1.29943e-07
7.82307e-17
2.2511e-09
-1.34101e-07
2.78085e-17
2.10717e-09
-1.38086e-07
2.05051e-17
1.92544e-09
-1.41791e-07
2.67994e-17
1.70667e-09
-1.45109e-07
3.33344e-17
1.45206e-09
-1.47894e-07
2.97359e-17
1.16299e-09
-1.50053e-07
1.62275e-17
8.41105e-10
-1.51459e-07
2.85049e-17
4.88274e-10
-1.52021e-07
1.27899e-17
1.06711e-10
-1.51643e-07
-3.82777e-19
-3.0086e-10
-1.50223e-07
-1.42747e-17
-7.31188e-10
-1.47702e-07
-3.03233e-17
-1.18023e-09
-1.43974e-07
-6.72402e-17
-1.64317e-09
-1.38977e-07
6.36831e-17
-2.11442e-09
-1.32635e-07
4.34878e-17
-2.58756e-09
-1.24877e-07
3.92026e-17
-3.05555e-09
-1.15639e-07
3.92662e-17
-3.51103e-09
-1.04862e-07
3.8277e-17
-3.94669e-09
-9.24991e-08
3.9418e-17
-4.35604e-09
-7.85053e-08
4.12062e-17
-4.73414e-09
-6.28525e-08
4.4757e-17
-4.55191e-08
4.6897e-17
8.62871e-11
-3.41835e-09
8.40131e-15
2.68515e-10
-1.77135e-08
1.13797e-14
8.98346e-11
-3.44399e-08
-6.45719e-15
1.47138e-12
-4.95867e-08
6.04822e-15
1.05739e-09
-7.99639e-08
1.46522e-15
8.20165e-10
-9.99357e-08
3.48595e-15
-2.39324e-10
-1.00862e-07
5.33644e-16
2.9631e-10
-9.47395e-08
1.49541e-14
2.10015e-09
-8.06127e-08
-4.29404e-15
2.34308e-09
-7.89264e-08
-1.75299e-15
2.33274e-09
-8.86468e-08
-9.08215e-16
2.33536e-09
-9.78774e-08
-2.58918e-16
2.35703e-09
-1.05573e-07
-2.57023e-16
2.39067e-09
-1.11735e-07
-4.54612e-16
2.41365e-09
-1.16804e-07
-3.17325e-16
2.41219e-09
-1.21338e-07
-4.12074e-16
2.37881e-09
-1.25655e-07
-2.73834e-16
2.30935e-09
-1.29874e-07
-1.88346e-16
2.20137e-09
-1.33993e-07
-1.90147e-16
2.05372e-09
-1.37938e-07
-1.43801e-16
1.86618e-09
-1.41604e-07
-1.08284e-16
1.63917e-09
-1.44882e-07
-8.31411e-17
1.37364e-09
-1.47629e-07
-6.99919e-17
1.07085e-09
-1.4975e-07
-7.00514e-17
7.32421e-10
-1.51121e-07
-4.54381e-17
3.60284e-10
-1.51649e-07
-5.15588e-17
-4.32038e-11
-1.5124e-07
-5.64177e-17
-4.75117e-10
-1.49791e-07
-6.35333e-17
-9.31977e-10
-1.47246e-07
-7.39262e-17
-1.40949e-09
-1.43496e-07
-1.06657e-16
-1.90262e-09
-1.38483e-07
3.31648e-17
-2.40556e-09
-1.32133e-07
1.72152e-17
-2.91174e-09
-1.24371e-07
1.69016e-17
-3.41405e-09
-1.15136e-07
2.04619e-17
-3.90508e-09
-1.04371e-07
2.25291e-17
-4.37752e-09
-9.20266e-08
2.63709e-17
-4.82472e-09
-7.80581e-08
3.04952e-17
-5.24118e-09
-6.2436e-08
3.61327e-17
-4.51375e-08
4.04342e-17
8.99906e-11
-3.50835e-09
6.95934e-15
2.78218e-10
-1.79017e-08
1.16155e-14
2.8449e-11
-3.41901e-08
-4.15304e-15
7.94903e-11
-4.96377e-08
9.01027e-15
1.06667e-09
-8.09511e-08
-5.36476e-15
3.16249e-10
-9.91853e-08
4.81848e-15
-6.39457e-10
-9.99066e-08
6.70877e-15
1.35125e-10
-9.55141e-08
9.54797e-15
2.03134e-09
-8.2509e-08
-6.11694e-15
2.29839e-09
-7.91935e-08
4.52384e-17
2.28373e-09
-8.86322e-08
-1.49501e-15
2.27826e-09
-9.7872e-08
-8.93192e-16
2.29315e-09
-1.05588e-07
-8.24585e-16
2.32315e-09
-1.11765e-07
-9.84127e-16
2.34466e-09
-1.16825e-07
-7.2979e-16
2.34267e-09
-1.21336e-07
-7.98238e-16
2.309e-09
-1.25621e-07
-5.57091e-16
2.2389e-09
-1.29804e-07
-4.40887e-16
2.12931e-09
-1.33884e-07
-3.79937e-16
1.97851e-09
-1.37787e-07
-3.17416e-16
1.78572e-09
-1.41411e-07
-2.59166e-16
1.55092e-09
-1.44647e-07
-2.08132e-16
1.27473e-09
-1.47352e-07
-1.728e-16
9.58219e-10
-1.49434e-07
-1.55294e-16
6.02944e-10
-1.50765e-07
-1.17316e-16
2.10897e-10
-1.51257e-07
-1.13374e-16
-2.15406e-10
-1.50814e-07
-1.1057e-16
-6.7281e-10
-1.49333e-07
-1.11369e-16
-1.15755e-09
-1.46761e-07
-1.16773e-16
-1.66502e-09
-1.42989e-07
-1.45659e-16
-2.18987e-09
-1.37959e-07
2.27832e-18
-2.72599e-09
-1.31596e-07
-9.43817e-18
-3.26656e-09
-1.2383e-07
-6.07143e-18
-3.80423e-09
-1.14599e-07
7.87099e-19
-4.3314e-09
-1.03844e-07
5.8013e-18
-4.84051e-09
-9.15175e-08
1.22796e-17
-5.32451e-09
-7.75741e-08
1.87298e-17
-5.77715e-09
-6.19834e-08
2.64538e-17
-4.47218e-08
3.29244e-17
9.44004e-11
-3.60274e-09
7.85995e-15
2.89256e-10
-1.80966e-08
1.18694e-14
-6.46002e-12
-3.38944e-08
-2.83479e-15
2.75221e-10
-4.99194e-08
9.34638e-15
1.06364e-09
-8.17395e-08
-3.11094e-16
-3.6335e-11
-9.80853e-08
-3.11237e-15
-6.41922e-10
-9.9301e-08
1.47481e-14
2.61525e-10
-9.64175e-08
2.18476e-14
2.03479e-09
-8.42823e-08
-1.1562e-14
2.25943e-09
-7.94181e-08
-1.27519e-15
2.2273e-09
-8.86e-08
-1.92606e-15
2.20839e-09
-9.7853e-08
-1.51975e-15
2.21303e-09
-1.05592e-07
-1.59376e-15
2.23715e-09
-1.11789e-07
-1.62252e-15
2.25597e-09
-1.16844e-07
-1.25735e-15
2.25286e-09
-1.21332e-07
-1.23927e-15
2.21873e-09
-1.25587e-07
-8.77083e-16
2.14806e-09
-1.29733e-07
-7.25663e-16
2.03707e-09
-1.33773e-07
-6.01649e-16
1.88335e-09
-1.37634e-07
-4.67392e-16
1.6855e-09
-1.41213e-07
-3.79411e-16
1.44296e-09
-1.44404e-07
-3.13703e-16
1.15599e-09
-1.47065e-07
-2.64517e-16
8.25411e-10
-1.49103e-07
-2.35597e-16
4.52703e-10
-1.50393e-07
-1.86907e-16
3.9919e-11
-1.50844e-07
-1.74503e-16
-4.1025e-10
-1.50363e-07
-1.64279e-16
-8.94374e-10
-1.48849e-07
-1.59061e-16
-1.40835e-09
-1.46247e-07
-1.59414e-16
-1.9472e-09
-1.4245e-07
-1.84474e-16
-2.50517e-09
-1.37401e-07
-2.83664e-17
-3.07576e-09
-1.31026e-07
-3.62927e-17
-3.6518e-09
-1.23254e-07
-2.95431e-17
-4.22558e-09
-1.14025e-07
-1.96136e-17
-4.78916e-09
-1.0328e-07
-1.17669e-17
-5.33458e-09
-9.09721e-08
-2.7704e-18
-5.85421e-09
-7.70544e-08
5.969e-18
-6.34094e-09
-6.14967e-08
1.57518e-17
-4.4275e-08
2.44162e-17
9.93954e-11
-3.70214e-09
6.52991e-15
2.99268e-10
-1.82965e-08
1.08735e-14
-5.2671e-12
-3.35899e-08
8.13143e-16
5.6701e-10
-5.04916e-08
1.05016e-14
1.09783e-09
-8.22703e-08
-6.42209e-15
-1.00518e-10
-9.68869e-08
-1.57144e-15
-2.54548e-10
-9.9147e-08
2.04461e-14
6.18844e-10
-9.72908e-08
2.57122e-14
2.10614e-09
-8.57696e-08
-4.94713e-15
2.22985e-09
-7.95417e-08
1.52697e-15
2.16554e-09
-8.85357e-08
-2.60917e-15
2.12765e-09
-9.78151e-08
-2.22096e-15
2.11876e-09
-1.05583e-07
-2.20567e-15
2.13504e-09
-1.11805e-07
-2.16327e-15
2.15025e-09
-1.1686e-07
-1.69853e-15
2.14569e-09
-1.21328e-07
-1.59075e-15
2.11107e-09
-1.25552e-07
-1.14631e-15
2.03991e-09
-1.29662e-07
-9.55823e-16
1.92759e-09
-1.3366e-07
-7.71038e-16
1.77091e-09
-1.37477e-07
-6.28369e-16
1.5678e-09
-1.4101e-07
-5.19876e-16
1.31716e-09
-1.44154e-07
-4.29814e-16
1.01881e-09
-1.46767e-07
-3.60113e-16
6.73374e-10
-1.48758e-07
-3.14928e-16
2.82241e-10
-1.50002e-07
-2.54078e-16
-1.52449e-10
-1.50409e-07
-2.32462e-16
-6.27793e-10
-1.49888e-07
-2.15273e-16
-1.14004e-09
-1.48337e-07
-2.04431e-16
-1.6847e-09
-1.45702e-07
-2.00448e-16
-2.25634e-09
-1.41878e-07
-2.22057e-16
-2.84875e-09
-1.36808e-07
-5.79286e-17
-3.45497e-09
-1.3042e-07
-6.28816e-17
-4.06736e-09
-1.22642e-07
-5.32295e-17
-4.67778e-09
-1.13415e-07
-4.05161e-17
-5.27781e-09
-1.0268e-07
-3.00465e-17
-5.85899e-09
-9.03909e-08
-1.86918e-17
-6.41302e-09
-7.65004e-08
-7.7591e-18
-6.93188e-09
-6.09779e-08
4.03124e-18
-4.37995e-08
1.49098e-17
1.04937e-10
-3.80708e-09
7.46817e-15
3.06407e-10
-1.84979e-08
1.19336e-14
2.58769e-11
-3.33094e-08
2.5455e-15
9.003e-10
-5.1366e-08
1.06492e-14
1.20258e-09
-8.25726e-08
-8.1755e-15
1.54517e-10
-9.58389e-08
-2.58729e-16
3.83558e-10
-9.9376e-08
1.58109e-14
1.08146e-09
-9.79887e-08
2.83382e-14
2.216e-09
-8.69043e-08
-1.5485e-14
2.20948e-09
-7.95352e-08
-2.23216e-15
2.09999e-09
-8.84263e-08
-3.24542e-15
2.03827e-09
-9.77534e-08
-2.89501e-15
2.01323e-09
-1.05558e-07
-2.7589e-15
2.02029e-09
-1.11812e-07
-2.65256e-15
2.03141e-09
-1.16871e-07
-2.12646e-15
2.02535e-09
-1.21322e-07
-1.93553e-15
1.99031e-09
-1.25517e-07
-1.41809e-15
1.91863e-09
-1.2959e-07
-1.19717e-15
1.80477e-09
-1.33546e-07
-9.54225e-16
1.6447e-09
-1.37317e-07
-7.62286e-16
1.43565e-09
-1.40801e-07
-6.29236e-16
1.17597e-09
-1.43894e-07
-5.23436e-16
8.65115e-10
-1.46456e-07
-4.40216e-16
5.03482e-10
-1.48396e-07
-3.84633e-16
9.2444e-11
-1.4959e-07
-3.14623e-16
-3.65738e-10
-1.49951e-07
-2.86118e-16
-8.67896e-10
-1.49386e-07
-2.63018e-16
-1.40991e-09
-1.47795e-07
-2.47537e-16
-1.98684e-09
-1.45125e-07
-2.3981e-16
-2.59275e-09
-1.41272e-07
-2.58628e-16
-3.22089e-09
-1.3618e-07
-8.65747e-17
-3.86379e-09
-1.29777e-07
-8.92789e-17
-4.51328e-09
-1.21992e-07
-7.70454e-17
-5.16067e-09
-1.12767e-07
-6.1833e-17
-5.79704e-09
-1.02044e-07
-4.89324e-17
-6.4133e-09
-8.97746e-08
-3.54134e-17
-7.00046e-09
-7.59132e-08
-2.24024e-17
-7.54959e-09
-6.04287e-08
-8.68695e-18
-4.32977e-08
4.41031e-18
1.10448e-10
-3.91753e-09
7.51678e-15
3.08528e-10
-1.8696e-08
1.10135e-14
7.24397e-11
-3.30733e-08
3.92501e-15
1.21206e-09
-5.25056e-08
6.47094e-15
1.38234e-09
-8.27429e-08
-7.24873e-15
6.58398e-10
-9.51149e-08
-4.21516e-15
1.04761e-09
-9.97652e-08
1.24339e-14
1.48037e-09
-9.84213e-08
3.22473e-14
2.30743e-09
-8.77315e-08
-1.50355e-14
2.19494e-09
-7.94226e-08
-3.53156e-16
2.03253e-09
-8.82639e-08
-2.88852e-15
1.94329e-09
-9.76641e-08
-3.33587e-15
1.9003e-09
-1.05515e-07
-3.18361e-15
1.89731e-09
-1.11809e-07
-3.01542e-15
1.90428e-09
-1.16878e-07
-2.44502e-15
1.89686e-09
-1.21314e-07
-2.20442e-15
1.86146e-09
-1.25482e-07
-1.6279e-15
1.78907e-09
-1.29518e-07
-1.38149e-15
1.67313e-09
-1.3343e-07
-1.09891e-15
1.50875e-09
-1.37152e-07
-8.87822e-16
1.29251e-09
-1.40585e-07
-7.35781e-16
1.02225e-09
-1.43624e-07
-6.12543e-16
6.9711e-10
-1.46131e-07
-5.16226e-16
3.1735e-10
-1.48016e-07
-4.4928e-16
-1.1562e-10
-1.49158e-07
-3.7086e-16
-5.99348e-10
-1.49468e-07
-3.35564e-16
-1.13034e-09
-1.48855e-07
-3.07302e-16
-1.70404e-09
-1.47221e-07
-2.87753e-16
-2.31501e-09
-1.44514e-07
-2.77203e-16
-2.95675e-09
-1.40631e-07
-2.94849e-16
-3.62193e-09
-1.35515e-07
-1.14748e-16
-4.3025e-09
-1.29096e-07
-1.15401e-16
-4.9897e-09
-1.21305e-07
-1.00846e-16
-5.67428e-09
-1.12083e-07
-8.34023e-17
-6.34671e-09
-1.01371e-07
-6.83123e-17
-6.99727e-09
-8.91241e-08
-5.28342e-17
-7.61623e-09
-7.52942e-08
-3.78944e-17
-8.19386e-09
-5.98511e-08
-2.23506e-17
-4.27716e-08
-7.04911e-18
1.15029e-10
-4.03256e-09
7.70921e-15
3.04513e-10
-1.88855e-08
1.01277e-14
1.22749e-10
-3.28915e-08
6.73294e-15
1.44843e-09
-5.38313e-08
3.19762e-15
1.60145e-09
-8.2896e-08
-1.20674e-14
1.23561e-09
-9.47491e-08
1.88037e-15
1.48514e-09
-1.00015e-07
1.53936e-14
1.6202e-09
-9.85563e-08
3.33044e-14
2.2954e-09
-8.84069e-08
-2.82984e-14
2.17849e-09
-7.93056e-08
-8.06398e-15
1.96565e-09
-8.8051e-08
-3.04023e-15
1.84707e-09
-9.75455e-08
-3.72178e-15
1.78528e-09
-1.05454e-07
-3.51695e-15
1.77195e-09
-1.11796e-07
-3.36131e-15
1.77492e-09
-1.16881e-07
-2.72635e-15
1.76632e-09
-1.21306e-07
-2.46548e-15
1.73042e-09
-1.25446e-07
-1.81289e-15
1.65673e-09
-1.29444e-07
-1.53041e-15
1.53763e-09
-1.33311e-07
-1.21174e-15
1.36742e-09
-1.36982e-07
-9.94812e-16
1.14206e-09
-1.40359e-07
-8.285e-16
8.58973e-10
-1.43341e-07
-6.88575e-16
5.17089e-10
-1.45789e-07
-5.79496e-16
1.16624e-10
-1.47616e-07
-5.03202e-16
-3.40883e-10
-1.487e-07
-4.17919e-16
-8.52703e-10
-1.48956e-07
-3.77975e-16
-1.41494e-09
-1.48293e-07
-3.46088e-16
-2.02255e-09
-1.46614e-07
-3.24037e-16
-2.66952e-09
-1.43867e-07
-3.11925e-16
-3.34875e-09
-1.39951e-07
-3.28701e-16
-4.05229e-09
-1.34811e-07
-1.42708e-16
-4.77147e-09
-1.28377e-07
-1.41181e-16
-5.4969e-09
-1.2058e-07
-1.24534e-16
-6.21874e-09
-1.11361e-07
-1.05174e-16
-6.92683e-09
-1.00663e-07
-8.81079e-17
-7.61082e-09
-8.84401e-08
-7.08794e-17
-8.26025e-09
-7.46447e-08
-5.41494e-17
-8.86462e-09
-5.92467e-08
-3.68876e-17
-4.22233e-08
-1.94066e-17
1.17402e-10
-4.14995e-09
9.60094e-15
2.94428e-10
-1.90625e-08
1.06736e-14
1.67822e-10
-3.27649e-08
4.53834e-15
1.5748e-09
-5.52383e-08
-2.66591e-15
1.7891e-09
-8.31103e-08
-6.04608e-15
1.64605e-09
-9.4606e-08
5.06078e-15
1.46643e-09
-9.98351e-08
9.45212e-15
1.34102e-09
-9.84309e-08
1.90561e-14
2.10133e-09
-8.91674e-08
-4.40348e-14
2.15114e-09
-7.93553e-08
-1.26757e-14
1.90359e-09
-8.78035e-08
-2.83171e-15
1.75587e-09
-9.73978e-08
-3.86048e-15
1.67522e-09
-1.05373e-07
-3.72147e-15
1.65143e-09
-1.11772e-07
-3.53729e-15
1.6505e-09
-1.1688e-07
-2.90655e-15
1.64058e-09
-1.21296e-07
-2.60465e-15
1.60357e-09
-1.25409e-07
-1.93887e-15
1.5274e-09
-1.29368e-07
-1.62559e-15
1.4034e-09
-1.33187e-07
-1.3083e-15
1.22508e-09
-1.36804e-07
-1.06036e-15
9.87894e-10
-1.40122e-07
-8.82843e-16
6.88982e-10
-1.43042e-07
-7.39208e-16
3.27171e-10
-1.45427e-07
-6.29033e-16
-9.7238e-11
-1.47191e-07
-5.49118e-16
-5.82465e-10
-1.48215e-07
-4.60097e-16
-1.12541e-09
-1.48413e-07
-4.16662e-16
-1.72169e-09
-1.47696e-07
-3.82059e-16
-2.3657e-09
-1.4597e-07
-3.57938e-16
-3.05081e-09
-1.43182e-07
-3.4468e-16
-3.76928e-09
-1.39233e-07
-3.60853e-16
-4.51251e-09
-1.34068e-07
-1.70199e-16
-5.27117e-09
-1.27618e-07
-1.6653e-16
-6.03527e-09
-1.19816e-07
-1.4807e-16
-6.79432e-09
-1.10602e-07
-1.27066e-16
-7.53756e-09
-9.99199e-08
-1.08248e-16
-8.25399e-09
-8.77236e-08
-8.94672e-17
-8.93249e-09
-7.39662e-08
-7.11015e-17
-9.56186e-09
-5.86174e-08
-5.22327e-17
-4.16548e-08
-3.26079e-17
1.16341e-10
-4.2663e-09
7.96873e-15
2.79239e-10
-1.92254e-08
8.74787e-15
1.99715e-10
-3.26854e-08
6.45976e-15
1.5804e-09
-5.6619e-08
-3.9516e-15
1.85795e-09
-8.33879e-08
-9.61796e-15
1.6549e-09
-9.44029e-08
3.56427e-15
8.77745e-10
-9.9058e-08
3.73547e-15
6.36348e-10
-9.81894e-08
5.24272e-16
1.72538e-09
-9.02565e-08
-4.99904e-14
2.11152e-09
-7.97413e-08
1.25168e-15
1.85364e-09
-8.75456e-08
-2.02769e-15
1.67832e-09
-9.72225e-08
-3.90567e-15
1.57895e-09
-1.05274e-07
-3.63601e-15
1.54432e-09
-1.11738e-07
-3.40203e-15
1.5391e-09
-1.16874e-07
-2.90355e-15
1.52706e-09
-1.21284e-07
-2.55037e-15
1.48757e-09
-1.25369e-07
-1.9546e-15
1.40692e-09
-1.29287e-07
-1.61069e-15
1.27538e-09
-1.33056e-07
-1.31644e-15
1.0858e-09
-1.36614e-07
-1.11458e-15
8.33247e-10
-1.3987e-07
-9.3949e-16
5.14707e-10
-1.42723e-07
-7.84715e-16
1.29059e-10
-1.45042e-07
-6.67034e-16
-3.23177e-10
-1.46739e-07
-5.8204e-16
-8.39858e-10
-1.47698e-07
-4.90071e-16
-1.4174e-09
-1.47835e-07
-4.4551e-16
-2.05086e-09
-1.47063e-07
-4.10458e-16
-2.734e-09
-1.45287e-07
-3.8644e-16
-3.45954e-09
-1.42457e-07
-3.73613e-16
-4.21905e-09
-1.38474e-07
-3.90651e-16
-5.00327e-09
-1.33284e-07
-1.9656e-16
-5.80222e-09
-1.26819e-07
-1.91166e-16
-6.60528e-09
-1.19012e-07
-1.71362e-16
-7.40137e-09
-1.09806e-07
-1.49073e-16
-8.17911e-09
-9.91422e-08
-1.28707e-16
-8.9269e-09
-8.69759e-08
-1.08561e-16
-9.633e-09
-7.32601e-08
-8.86929e-17
-1.02856e-08
-5.79648e-08
-6.83251e-17
-4.1068e-08
-4.65954e-17
1.11258e-10
-4.37756e-09
9.39958e-15
2.60704e-10
-1.93749e-08
1.00792e-14
2.10758e-10
-3.26354e-08
2.47672e-15
1.47938e-09
-5.78876e-08
-6.05763e-15
1.73631e-09
-8.36448e-08
-6.28225e-15
1.15618e-09
-9.38228e-08
9.06447e-15
-1.51007e-10
-9.77508e-08
2.03948e-15
-2.60179e-10
-9.80802e-08
-1.90476e-14
1.29437e-09
-9.18112e-08
-5.99536e-14
2.07686e-09
-8.05238e-08
6.63158e-15
1.82679e-09
-8.72955e-08
-4.65744e-16
1.62499e-09
-9.70207e-08
-3.75029e-15
1.50646e-09
-1.05155e-07
-3.5727e-15
1.45984e-09
-1.11691e-07
-3.29732e-15
1.44898e-09
-1.16864e-07
-2.89721e-15
1.43305e-09
-1.21268e-07
-2.47396e-15
1.38872e-09
-1.25325e-07
-1.9444e-15
1.30056e-09
-1.29199e-07
-1.58729e-15
1.15789e-09
-1.32913e-07
-1.33066e-15
9.52967e-10
-1.36409e-07
-1.09879e-15
6.80635e-10
-1.39597e-07
-9.25042e-16
3.3788e-10
-1.4238e-07
-7.84322e-16
-7.62095e-11
-1.44628e-07
-6.81108e-16
-5.60748e-10
-1.46255e-07
-6.03619e-16
-1.1131e-09
-1.47146e-07
-5.15069e-16
-1.72909e-09
-1.47219e-07
-4.72062e-16
-2.40313e-09
-1.46389e-07
-4.37717e-16
-3.1283e-09
-1.44561e-07
-4.1407e-16
-3.89662e-09
-1.41688e-07
-4.01931e-16
-4.69897e-09
-1.37671e-07
-4.19992e-16
-5.52542e-09
-1.32457e-07
-2.21634e-16
-6.36535e-09
-1.25979e-07
-2.15404e-16
-7.20755e-09
-1.1817e-07
-1.94631e-16
-8.04033e-09
-1.08973e-07
-1.71246e-16
-8.85177e-09
-9.83308e-08
-1.49487e-16
-9.62971e-09
-8.61979e-08
-1.28123e-16
-1.03619e-08
-7.25279e-08
-1.06874e-16
-1.10359e-08
-5.72908e-08
-8.51041e-17
-4.04649e-08
-6.12849e-17
1.02391e-10
-4.47996e-09
8.44881e-15
2.39878e-10
-1.95124e-08
7.54823e-15
1.95718e-10
-3.25913e-08
-8.64056e-16
1.30528e-09
-5.89972e-08
-4.46891e-15
1.40581e-09
-8.37454e-08
-1.29826e-15
2.78333e-10
-9.26953e-08
5.46712e-15
-1.2297e-09
-9.62427e-08
-1.65286e-16
-9.59537e-10
-9.83503e-08
-2.91746e-14
1.00801e-09
-9.3779e-08
-6.31642e-14
2.08254e-09
-8.15982e-08
9.85118e-15
1.83567e-09
-8.70487e-08
7.17357e-16
1.60643e-09
-9.67914e-08
-3.27765e-15
1.46732e-09
-1.05016e-07
-3.21499e-15
1.4066e-09
-1.1163e-07
-2.93509e-15
1.38767e-09
-1.16845e-07
-2.65325e-15
1.36498e-09
-1.21245e-07
-2.23524e-15
1.31233e-09
-1.25272e-07
-1.8149e-15
1.21257e-09
-1.29099e-07
-1.48128e-15
1.05415e-09
-1.32755e-07
-1.26392e-15
8.28891e-10
-1.36184e-07
-1.07626e-15
5.31536e-10
-1.393e-07
-9.18891e-16
1.59252e-10
-1.42008e-07
-7.83526e-16
-2.88495e-10
-1.4418e-07
-6.85078e-16
-8.10306e-10
-1.45733e-07
-6.11463e-16
-1.40292e-09
-1.46553e-07
-5.2588e-16
-2.06147e-09
-1.46561e-07
-4.86896e-16
-2.77966e-09
-1.45671e-07
-4.56009e-16
-3.54983e-09
-1.43791e-07
-4.35352e-16
-4.36327e-09
-1.40875e-07
-4.26085e-16
-5.21019e-09
-1.36824e-07
-4.47016e-16
-6.07998e-09
-1.31587e-07
-2.45088e-16
-6.96143e-09
-1.25098e-07
-2.39017e-16
-7.84273e-09
-1.17289e-07
-2.17789e-16
-8.71169e-09
-1.08104e-07
-1.93608e-16
-9.55587e-09
-9.74867e-08
-1.70605e-16
-1.03626e-08
-8.53912e-08
-1.48154e-16
-1.11191e-08
-7.17713e-08
-1.25616e-16
-1.18127e-08
-5.65972e-08
-1.02522e-16
-3.98476e-08
-7.66173e-17
9.0774e-11
-4.57075e-09
6.44201e-15
2.17084e-10
-1.96387e-08
9.05829e-15
1.57574e-10
-3.25317e-08
-1.95553e-15