/*--------------------------------*- C++ -*----------------------------------*\
| =========                 |                                                 |
| \\      /  F ield         | OpenFOAM: The Open Source CFD Toolbox           |
|  \\    /   O peration     | Version:  v2012                                 |
|   \\  /    A nd           | Website:  www.openfoam.com                      |
|    \\/     M anipulation  |                                                 |
\*---------------------------------------------------------------------------*/
FoamFile
{
    version     2.0;
    format      ascii;
    class       volScalarField;
    location    "0.6";
    object      alpha.water;
}
// * * * * * * * * * * * * * * * * * * * * * * * * * * * * * * * * * * * * * //

dimensions      [0 0 0 0 0 0 0];


internalField   nonuniform List<scalar> 
3352
(
-1.60854e-170
-1.04797e-162
-6.28192e-156
-2.51353e-146
-1.28854e-139
-9.35701e-128
-1.35749e-120
-6.64579e-108
-6.45169e-102
-3.01235e-98
-4.54749e-95
-1.05816e-91
-3.19133e-88
-1.39767e-85
-1.79649e-82
-2.26981e-80
-1.19315e-76
-1.41114e-73
-3.66496e-71
-4.74113e-70
-2.00236e-69
-4.48676e-69
-6.35478e-69
-6.18657e-69
-4.3903e-69
-3.50466e-69
-1.24937e-67
-1.34096e-66
-4.90968e-66
-9.52682e-66
-7.82294e-65
-1.68855e-63
-4.43148e-63
-5.17242e-63
-3.48107e-63
-1.51022e-63
-4.4896e-64
-9.50024e-65
-1.46762e-65
-2.01232e-168
-4.3014e-161
-1.30732e-154
-5.94096e-145
-6.99389e-138
-2.65765e-126
-5.13099e-119
-1.78575e-106
-1.68265e-100
-6.90891e-97
-9.46365e-94
-1.96903e-90
-5.38658e-87
-2.12827e-84
-2.50025e-81
-2.92543e-79
-1.32954e-75
-1.491e-72
-3.69816e-70
-4.59684e-69
-1.88028e-68
-4.09743e-68
-5.6623e-68
-5.39425e-68
-3.75043e-68
-2.74786e-68
-8.42381e-67
-8.92991e-66
-3.23513e-65
-6.22394e-65
-5.31471e-64
-1.17733e-62
-3.10368e-62
-3.63905e-62
-2.4634e-62
-1.07673e-62
-3.23052e-63
-6.91107e-64
-1.08121e-64
-2.05348e-166
-1.5165e-159
-2.42434e-153
-1.32787e-143
-3.98419e-136
-7.39844e-125
-1.94553e-117
-4.51741e-105
-4.32915e-99
-1.5631e-95
-1.94146e-92
-3.61092e-89
-8.96053e-86
-3.19387e-83
-3.42872e-80
-3.71469e-78
-1.45998e-74
-1.55226e-71
-3.67663e-69
-4.39146e-68
-1.74001e-67
-3.68826e-67
-4.97395e-67
-4.63783e-67
-3.16066e-67
-2.14586e-67
-5.59204e-66
-5.85354e-65
-2.09876e-64
-4.00431e-64
-3.55772e-63
-8.09486e-62
-2.14434e-61
-2.52644e-61
-1.72074e-61
-7.5799e-62
-2.29588e-62
-4.96697e-63
-7.87173e-64
-1.59374e-164
-4.41838e-158
-3.94358e-152
-3.27814e-142
-2.29082e-134
-2.12268e-123
-7.34022e-116
-1.07295e-103
-1.09863e-97
-3.48784e-94
-3.92536e-91
-6.52427e-88
-1.46862e-84
-4.72218e-82
-4.63161e-79
-4.64567e-77
-1.57943e-73
-1.59187e-70
-3.60025e-68
-4.13246e-67
-1.58639e-66
-3.27153e-66
-4.30645e-66
-3.93096e-66
-2.62701e-66
-1.6675e-66
-3.65423e-65
-3.77576e-64
-1.34011e-63
-2.53638e-63
-2.34597e-62
-5.4871e-61
-1.46115e-60
-1.73046e-60
-1.18621e-60
-5.26756e-61
-1.61117e-61
-3.52595e-62
-5.66222e-63
-8.04765e-163
-9.99954e-157
-5.50549e-151
-1.22068e-140
-1.30996e-132
-6.68532e-122
-2.74662e-114
-2.38555e-102
-2.74941e-96
-7.67405e-93
-7.82008e-90
-1.16118e-86
-2.3711e-83
-6.8771e-81
-6.1614e-78
-5.72089e-76
-1.68295e-72
-1.60771e-69
-3.47164e-67
-3.82963e-66
-1.42462e-65
-2.85887e-65
-3.674e-65
-3.28379e-65
-2.15284e-65
-1.28803e-65
-2.35028e-64
-2.39596e-63
-8.41981e-63
-1.58125e-62
-1.52336e-61
-3.66596e-60
-9.81688e-60
-1.16907e-59
-8.06801e-60
-3.61282e-60
-1.11621e-60
-2.47168e-61
-4.02304e-62
-1.79987e-161
-1.58345e-155
-6.4142e-150
-7.23351e-139
-7.41842e-131
-2.3919e-120
-1.01839e-112
-4.94954e-101
-6.7845e-95
-1.6646e-91
-1.53469e-88
-2.03518e-85
-3.76988e-82
-9.86208e-80
-8.06921e-77
-6.93462e-75
-1.76575e-71
-1.59857e-68
-3.29551e-66
-3.49401e-65
-1.25976e-64
-2.46054e-64
-3.08775e-64
-2.7029e-64
-1.73898e-64
-9.87828e-65
-1.48757e-63
-1.49523e-62
-5.20368e-62
-9.69961e-62
-9.73825e-61
-2.41339e-59
-6.50157e-59
-7.78811e-59
-5.41284e-59
-2.44492e-59
-7.63237e-60
-1.71054e-60
-2.82267e-61
-2.55486e-160
-1.41588e-154
-5.99843e-149
-5.23027e-137
-4.15486e-129
-9.49583e-119
-3.74007e-111
-9.54804e-100
-1.65047e-93
-3.559e-90
-2.96627e-87
-3.51192e-84
-5.90127e-81
-1.39229e-78
-1.0401e-75
-8.27198e-74
-1.82374e-70
-1.56445e-67
-3.07877e-65
-3.13754e-64
-1.09661e-63
-2.08514e-63
-2.55568e-63
-2.19147e-63
-1.38413e-63
-7.51314e-64
-9.26462e-63
-9.17378e-62
-3.16244e-61
-5.85238e-61
-6.1265e-60
-1.56507e-58
-4.24334e-58
-5.11474e-58
-3.58114e-58
-1.63212e-58
-5.14948e-59
-1.16839e-59
-1.95519e-60
-7.33162e-160
-4.1457e-154
-4.2595e-148
-3.97507e-135
-2.30127e-127
-3.98084e-117
-1.3605e-109
-1.70512e-98
-3.95767e-92
-7.49873e-89
-5.64513e-86
-5.96488e-83
-9.0923e-80
-1.93441e-77
-1.31905e-74
-9.70679e-73
-1.85369e-69
-1.50647e-66
-2.82981e-64
-2.77214e-63
-9.39431e-63
-1.73931e-62
-2.08257e-62
-1.74971e-62
-1.08522e-62
-5.66025e-63
-5.67726e-62
-5.53158e-61
-1.88924e-60
-3.47205e-60
-3.79181e-59
-9.99494e-58
-2.72845e-57
-3.31048e-57
-2.33581e-57
-1.07446e-57
-3.42723e-58
-7.87463e-59
-1.33666e-59
-5.62721e-159
-2.87918e-153
-2.08913e-147
-3.05629e-133
-1.26036e-125
-1.69795e-115
-4.90135e-108
-2.80348e-97
-9.35267e-91
-1.55666e-87
-1.05756e-84
-9.96929e-82
-1.37849e-78
-2.6443e-76
-1.64537e-73
-1.12018e-71
-1.85362e-68
-1.4269e-65
-2.55815e-63
-2.40914e-62
-7.91734e-62
-1.42762e-61
-1.67024e-61
-1.37524e-61
-8.37862e-62
-4.21921e-62
-3.42302e-61
-3.27684e-60
-1.10903e-59
-2.0247e-59
-2.30796e-58
-6.28381e-57
-1.72786e-56
-2.11107e-56
-1.50156e-56
-6.97353e-57
-2.24943e-57
-5.23531e-58
-9.01638e-59
-2.04497e-158
-5.60771e-153
-5.91508e-147
-2.35346e-131
-6.82659e-124
-7.24054e-114
-1.74867e-106
-4.21497e-96
-2.17781e-89
-3.18303e-86
-1.94978e-83
-1.63907e-80
-2.05586e-77
-3.55526e-75
-2.01803e-72
-1.27084e-70
-1.82293e-67
-1.32896e-64
-2.27368e-62
-2.05864e-61
-6.56218e-61
-1.15265e-60
-1.31795e-60
-1.06372e-60
-6.36775e-61
-3.10841e-61
-2.03083e-60
-1.90634e-59
-6.39483e-59
-1.16008e-58
-1.381e-57
-3.88793e-56
-1.07732e-55
-1.32594e-55
-9.51055e-56
-4.46077e-56
-1.45554e-56
-3.43236e-57
-5.99915e-58
-1.45582e-165
-8.46866e-156
-4.42317e-146
-1.80497e-129
-3.65692e-122
-3.06729e-112
-6.17669e-105
-5.75047e-95
-4.99572e-88
-6.40948e-85
-3.53667e-82
-2.6502e-79
-3.01519e-76
-4.69998e-74
-2.43282e-71
-1.4169e-69
-1.76253e-66
-1.21663e-63
-1.98616e-61
-1.72908e-60
-5.34706e-60
-9.151e-60
-1.02283e-59
-8.09381e-60
-4.76209e-60
-2.26107e-60
-1.18579e-59
-1.08873e-58
-3.62046e-58
-6.52819e-58
-8.12017e-57
-2.36653e-55
-6.61117e-55
-8.19996e-55
-5.93316e-55
-2.81141e-55
-9.28236e-56
-2.21843e-56
-3.93603e-57
-5.29784e-163
-1.43697e-153
-4.64105e-144
-1.37176e-127
-1.93771e-120
-1.28814e-110
-2.15964e-103
-7.08249e-94
-1.12866e-86
-1.27062e-83
-6.30941e-81
-4.21266e-78
-4.34728e-75
-6.10701e-73
-2.88166e-70
-1.55188e-68
-1.67479e-65
-1.09439e-62
-1.70455e-60
-1.42691e-59
-4.28167e-59
-7.14112e-59
-7.80416e-59
-6.05614e-59
-3.50298e-59
-1.62236e-59
-6.81625e-59
-6.1014e-58
-2.0117e-57
-3.60658e-57
-4.68993e-56
-1.41658e-54
-3.99163e-54
-4.99129e-54
-3.64449e-54
-1.74522e-54
-5.83225e-55
-1.41306e-55
-2.54564e-56
-1.79463e-160
-2.25146e-151
-4.81124e-142
-1.02718e-125
-1.0157e-118
-5.35722e-109
-7.47321e-102
-7.96411e-93
-2.51072e-85
-2.47918e-82
-1.1067e-79
-6.58092e-77
-6.15959e-74
-7.79682e-72
-3.35244e-69
-1.66911e-67
-1.56341e-64
-9.66887e-62
-1.43662e-59
-1.15653e-58
-3.36798e-58
-5.47539e-58
-5.85187e-58
-4.4543e-58
-2.53356e-58
-1.14723e-58
-3.85912e-58
-3.35391e-57
-1.09656e-56
-1.95525e-56
-2.65954e-55
-8.33557e-54
-2.37028e-53
-2.98931e-53
-2.20345e-53
-1.06669e-53
-3.60916e-54
-8.86721e-55
-1.6224e-55
-5.62679e-158
-3.22613e-149
-4.9275e-140
-7.53412e-124
-5.2675e-117
-2.20487e-107
-2.55852e-100
-8.7948e-92
-5.49757e-84
-4.75938e-81
-1.90791e-78
-1.00995e-75
-8.57327e-73
-9.77667e-71
-3.82898e-68
-1.7621e-66
-1.43316e-63
-8.38667e-61
-1.18857e-58
-9.20247e-58
-2.60136e-57
-4.12317e-57
-4.31048e-57
-3.21901e-57
-1.8009e-57
-7.98844e-58
-2.15336e-57
-1.80758e-56
-5.86099e-56
-1.03971e-55
-1.48009e-54
-4.81967e-53
-1.38374e-52
-1.76084e-52
-1.31076e-52
-6.41691e-53
-2.19895e-53
-5.47993e-54
-1.01857e-54
-1.61981e-155
-4.17654e-147
-4.98482e-138
-5.38553e-122
-2.70289e-115
-8.97363e-106
-8.66277e-99
-1.17332e-90
-1.18455e-82
-8.98663e-80
-3.23154e-77
-1.52204e-74
-1.17173e-71
-1.20358e-69
-4.29164e-67
-1.82521e-65
-1.28955e-62
-7.13871e-60
-9.64854e-58
-7.18542e-57
-1.97202e-56
-3.04805e-56
-3.11764e-56
-2.2847e-56
-1.25753e-56
-5.47316e-57
-1.18522e-56
-9.54712e-56
-3.07018e-55
-5.42018e-55
-8.07987e-54
-2.73716e-52
-7.93844e-52
-1.01973e-51
-7.66887e-52
-3.79799e-52
-1.31856e-52
-3.33397e-53
-6.297e-54
-4.23029e-153
-4.81049e-145
-4.98058e-136
-3.74002e-120
-1.37247e-113
-3.60919e-104
-2.89961e-97
-2.29622e-89
-2.51074e-81
-1.66834e-78
-5.37534e-76
-2.2515e-73
-1.57185e-70
-1.45405e-68
-4.71822e-66
-1.85405e-64
-1.13842e-61
-5.96021e-59
-7.68155e-57
-5.50293e-56
-1.46656e-55
-2.21098e-55
-2.21307e-55
-1.59185e-55
-8.62216e-56
-3.68683e-56
-6.44176e-56
-4.93952e-55
-1.57539e-54
-2.76874e-54
-4.3245e-53
-1.52611e-51
-4.47357e-51
-5.80342e-51
-4.4111e-51
-2.21078e-51
-7.77837e-52
-1.9961e-52
-3.83198e-53
-9.82302e-151
-4.83016e-143
-4.91401e-134
-2.52278e-118
-6.89722e-112
-1.43354e-102
-9.59049e-96
-5.82798e-88
-5.23311e-80
-3.04398e-77
-8.77739e-75
-3.26774e-72
-2.06868e-69
-1.72309e-67
-5.08557e-65
-1.84608e-63
-9.85543e-61
-4.87865e-58
-5.9947e-56
-4.13158e-55
-1.06944e-54
-1.57292e-54
-1.54105e-54
-1.08824e-54
-5.80182e-55
-2.44002e-55
-3.46162e-55
-2.5023e-54
-7.91421e-54
-1.38512e-53
-2.26807e-52
-8.34972e-51
-2.47522e-50
-3.24436e-50
-2.49337e-50
-1.2651e-50
-4.51241e-51
-1.1756e-51
-2.29449e-52
-1.96222e-148
-4.11188e-141
-4.78683e-132
-1.65902e-116
-3.43082e-110
-5.61946e-101
-3.13293e-94
-1.58304e-86
-1.07215e-78
-5.45613e-76
-1.40632e-73
-4.65091e-71
-2.66972e-68
-2.00193e-66
-5.37134e-64
-1.80083e-62
-8.36247e-60
-3.91296e-57
-4.58341e-55
-3.03944e-54
-7.64271e-54
-1.09688e-53
-1.05213e-53
-7.29578e-54
-3.82947e-54
-1.58544e-54
-1.84179e-54
-1.24063e-53
-3.89027e-53
-6.78234e-53
-1.165e-51
-4.48064e-50
-1.34403e-49
-1.78082e-49
-1.38438e-49
-7.11374e-50
-2.5732e-50
-6.80799e-51
-1.35128e-51
-3.19361e-146
-2.84983e-139
-4.60285e-130
-1.07179e-114
-1.68932e-108
-2.17262e-99
-1.01028e-92
-4.28974e-85
-2.15829e-77
-9.60322e-75
-2.20982e-72
-6.48816e-70
-3.37683e-67
-2.2792e-65
-5.55614e-63
-1.7201e-61
-6.95093e-59
-3.07355e-56
-3.4314e-54
-2.18972e-53
-5.34987e-53
-7.49401e-53
-7.03909e-53
-4.79413e-53
-2.478e-53
-1.0107e-53
-9.71694e-54
-6.01743e-53
-1.87002e-52
-3.24866e-52
-5.85732e-51
-2.35703e-49
-7.15852e-49
-9.59289e-49
-7.54673e-49
-3.92893e-49
-1.44176e-49
-3.87497e-50
-7.82376e-51
-3.86382e-144
-1.508e-137
-4.36802e-128
-6.87205e-113
-8.23476e-107
-8.27965e-98
-3.21424e-91
-1.14484e-83
-4.26698e-76
-1.65893e-73
-3.40374e-71
-8.8667e-69
-4.18394e-66
-2.54142e-64
-5.62552e-62
-1.60784e-60
-5.65652e-58
-2.36294e-55
-2.51397e-53
-1.54402e-52
-3.66601e-52
-5.01323e-52
-4.61223e-52
-3.08597e-52
-1.57109e-52
-6.31695e-53
-5.09041e-53
-2.85412e-52
-8.785e-52
-1.52122e-51
-2.88078e-50
-1.21482e-48
-3.73796e-48
-5.06878e-48
-4.03722e-48
-2.13035e-48
-7.93364e-49
-2.16678e-49
-4.45151e-50
-2.90943e-142
-5.41698e-136
-4.08999e-126
-4.41372e-111
-3.97402e-105
-3.10814e-96
-1.00834e-89
-3.00482e-82
-8.28084e-75
-2.81123e-72
-5.13626e-70
-1.18634e-67
-5.07513e-65
-2.77387e-63
-5.57171e-61
-1.46987e-59
-4.50393e-57
-1.77695e-54
-1.80132e-52
-1.06494e-51
-2.45775e-51
-3.2818e-51
-2.95797e-51
-1.94471e-51
-9.75397e-52
-3.86812e-52
-2.65095e-52
-1.32336e-51
-4.03074e-51
-6.9591e-51
-1.38512e-49
-6.13102e-48
-1.91253e-47
-2.62577e-47
-2.11842e-47
-1.13348e-47
-4.28551e-48
-1.18976e-48
-2.48784e-49
-8.38612e-141
-9.90995e-135
-3.77777e-124
-2.85209e-109
-1.89862e-103
-1.14863e-94
-3.1172e-88
-7.75347e-81
-1.57668e-73
-4.67069e-71
-7.58888e-69
-1.55311e-66
-6.02328e-64
-2.96177e-62
-5.3948e-60
-1.31336e-58
-3.50664e-56
-1.30625e-53
-1.26148e-51
-7.18005e-51
-1.61102e-50
-2.10099e-50
-1.85562e-50
-1.19902e-50
-5.92602e-51
-2.31895e-51
-1.37333e-51
-5.99659e-51
-1.80503e-50
-3.10808e-50
-6.50639e-49
-3.02811e-47
-9.58294e-47
-1.33283e-46
-1.08973e-46
-5.91492e-47
-2.27128e-47
-6.41197e-48
-1.36508e-48
-8.73045e-150
-2.56299e-144
-3.44126e-122
-1.85042e-107
-8.97904e-102
-4.17609e-93
-9.49009e-87
-1.96612e-79
-2.9436e-72
-7.60375e-70
-1.09719e-67
-1.98821e-65
-6.98983e-63
-3.09175e-61
-5.10309e-59
-1.14623e-57
-2.66781e-55
-9.3802e-53
-8.62851e-51
-4.72905e-50
-1.0318e-49
-1.31451e-49
-1.13793e-49
-7.22809e-50
-3.52094e-50
-1.36008e-50
-7.07782e-51
-2.65512e-50
-7.88385e-50
-1.35424e-49
-2.98382e-48
-1.46272e-46
-4.69954e-46
-6.62543e-46
-5.49255e-46
-3.02571e-46
-1.18048e-46
-3.39e-47
-7.35032e-48
-2.30359e-149
-2.12922e-143
-3.09061e-120
-1.19792e-105
-4.2026e-100
-1.4928e-91
-2.84335e-85
-4.89755e-78
-5.38547e-71
-1.21217e-68
-1.55124e-66
-2.48709e-64
-7.92601e-62
-3.15325e-60
-4.71257e-58
-9.764e-57
-1.98187e-54
-6.57541e-52
-5.7603e-50
-3.0406e-49
-6.45244e-49
-8.03222e-49
-6.8166e-49
-4.25735e-49
-2.04439e-49
-7.79819e-50
-3.62664e-50
-1.1487e-49
-3.35609e-49
-5.75214e-49
-1.33496e-47
-6.90586e-46
-2.2543e-45
-3.22348e-45
-2.71101e-45
-1.5164e-45
-6.0137e-46
-1.75736e-46
-3.88194e-47
-1.65982e-150
-9.86125e-142
-2.73593e-118
-7.68898e-104
-1.94615e-98
-5.24303e-90
-8.37786e-84
-1.19787e-76
-9.64938e-70
-1.89104e-67
-2.14323e-65
-3.03796e-63
-8.77586e-61
-3.1399e-59
-4.24549e-57
-8.11219e-56
-1.43656e-53
-4.49606e-51
-3.75044e-49
-1.90707e-48
-3.93699e-48
-4.78982e-48
-3.98595e-48
-2.44827e-48
-1.15921e-48
-4.36759e-49
-1.84505e-49
-4.85679e-49
-1.39139e-48
-2.37985e-48
-5.82238e-47
-3.18458e-45
-1.05705e-44
-1.53407e-44
-1.30961e-44
-7.44168e-45
-3.00112e-45
-8.92794e-46
-2.00986e-46
-2.03064e-151
-1.27471e-139
-2.38659e-116
-4.87227e-102
-8.91319e-97
-1.80806e-88
-2.42583e-82
-2.87543e-75
-1.69206e-68
-2.8849e-66
-2.89158e-64
-3.62077e-62
-9.48075e-60
-3.05043e-58
-3.72826e-56
-6.56843e-55
-1.01522e-52
-2.99637e-50
-2.37962e-48
-1.1659e-47
-2.342e-47
-2.78539e-47
-2.27341e-47
-1.37357e-47
-6.4138e-48
-2.38759e-48
-9.30171e-49
-2.00772e-48
-5.61382e-48
-9.58275e-48
-2.47356e-46
-1.43338e-44
-4.84199e-44
-7.13684e-44
-6.18796e-44
-3.57394e-44
-1.46637e-44
-4.44259e-45
-1.01961e-45
-5.74766e-150
-1.6578e-137
-2.05095e-114
-3.04173e-100
-4.03551e-95
-6.11796e-87
-6.89688e-81
-6.77054e-74
-2.90181e-67
-4.30062e-65
-3.80668e-63
-4.20727e-61
-9.98548e-59
-2.8891e-57
-3.18889e-55
-5.17898e-54
-6.98919e-52
-1.94471e-49
-1.47014e-47
-6.94216e-47
-1.35719e-46
-1.57828e-46
-1.26373e-46
-7.5121e-47
-3.45997e-47
-1.27286e-47
-4.63583e-48
-8.12069e-48
-2.20256e-47
-3.75205e-47
-1.02276e-45
-6.29252e-44
-2.16521e-43
-3.2436e-43
-2.85812e-43
-1.67875e-43
-7.01095e-44
-2.1641e-44
-5.06543e-45
-3.87285e-150
-2.15873e-135
-1.73583e-112
-1.86883e-98
-1.80519e-93
-2.02977e-85
-1.92377e-79
-1.56287e-72
-4.8633e-66
-6.25979e-64
-4.88588e-62
-4.76219e-60
-1.02447e-57
-2.66545e-56
-2.65431e-54
-3.97293e-53
-4.68317e-51
-1.22809e-48
-8.83611e-47
-4.0225e-46
-7.65532e-46
-8.70665e-46
-6.84061e-46
-4.00153e-46
-1.81829e-46
-6.61177e-47
-2.27794e-47
-3.21743e-47
-8.39714e-47
-1.4272e-46
-4.11226e-45
-2.69226e-43
-9.44536e-43
-1.4392e-42
-1.28963e-42
-7.70774e-43
-3.27815e-43
-1.03141e-43
-2.46308e-44
-2.45752e-148
-2.80085e-133
-1.44653e-110
-1.1291e-96
-7.97314e-92
-6.59769e-84
-5.26042e-78
-3.53485e-71
-7.95908e-65
-8.88933e-63
-6.10871e-61
-5.246e-59
-1.02292e-56
-2.39339e-55
-2.14807e-53
-2.96255e-52
-3.05142e-50
-7.53913e-48
-5.16199e-46
-2.26609e-45
-4.19917e-45
-4.67194e-45
-3.60258e-45
-2.07421e-45
-9.30011e-46
-3.34326e-46
-1.10052e-46
-1.25058e-46
-3.10849e-46
-5.26891e-46
-1.60637e-44
-1.12175e-42
-4.01664e-42
-6.22995e-42
-5.68093e-42
-3.45695e-42
-1.49808e-42
-4.80662e-43
-1.17158e-43
-1.34018e-146
-3.60485e-131
-1.18652e-108
-6.70252e-95
-3.4745e-90
-2.09949e-82
-1.4089e-76
-7.82863e-70
-1.27087e-63
-1.2305e-61
-7.43305e-60
-5.61884e-58
-9.93079e-56
-2.08977e-54
-1.68855e-52
-2.14532e-51
-1.9315e-49
-4.49477e-47
-2.92826e-45
-1.24001e-44
-2.23786e-44
-2.43621e-44
-1.84416e-44
-1.04526e-44
-4.62521e-45
-1.64402e-45
-5.21314e-46
-4.77766e-46
-1.11656e-45
-1.88596e-45
-6.09057e-44
-4.54776e-42
-1.6638e-41
-2.62912e-41
-2.44142e-41
-1.51357e-41
-6.6869e-42
-2.18898e-42
-5.44809e-43
-6.11148e-145
-4.58523e-129
-9.57636e-107
-3.90593e-93
-1.49258e-88
-6.53535e-81
-3.69268e-75
-1.69655e-68
-1.97818e-62
-1.65887e-60
-8.79386e-59
-5.84548e-57
-9.36458e-55
-1.77261e-53
-1.28797e-51
-1.50712e-50
-1.1865e-48
-2.59982e-46
-1.61138e-44
-6.58424e-44
-1.15754e-43
-1.23329e-43
-9.16662e-44
-5.11571e-44
-2.23432e-44
-7.85359e-45
-2.41486e-45
-1.79778e-45
-3.88926e-45
-6.5383e-45
-2.23914e-43
-1.79246e-41
-6.70794e-41
-1.08086e-40
-1.02288e-40
-6.46477e-41
-2.91345e-41
-9.73542e-42
-2.47525e-42
-2.20041e-143
-5.74609e-127
-7.60194e-105
-2.23255e-91
-6.3148e-87
-1.98841e-79
-9.46284e-74
-3.59509e-67
-2.99886e-61
-2.17594e-59
-1.01052e-57
-5.90038e-56
-8.5682e-54
-1.45922e-52
-9.52255e-51
-1.02603e-49
-7.06577e-48
-1.45732e-45
-8.59236e-44
-3.38887e-43
-5.80516e-43
-6.05463e-43
-4.41959e-43
-2.42895e-43
-1.04725e-43
-3.64054e-44
-1.09113e-44
-6.677e-45
-1.31307e-44
-2.19298e-44
-7.97372e-43
-6.86207e-41
-2.63002e-40
-4.3253e-40
-4.17479e-40
-2.69172e-40
-1.23816e-40
-4.22556e-41
-1.09801e-41
-5.5025e-142
-7.07692e-125
-5.93268e-103
-1.25044e-89
-2.62846e-85
-5.90839e-78
-2.36879e-72
-7.44376e-66
-4.42332e-60
-2.77432e-58
-1.12669e-56
-5.7721e-55
-7.59805e-53
-1.16455e-51
-6.81657e-50
-6.76136e-49
-4.07441e-47
-7.90754e-45
-4.43465e-43
-1.68881e-42
-2.81949e-42
-2.87929e-42
-2.06451e-42
-1.11754e-42
-4.75699e-43
-1.63559e-43
-4.79755e-44
-2.45179e-44
-4.2954e-44
-7.10785e-44
-2.74732e-42
-2.54911e-40
-1.00189e-39
-1.68339e-39
-1.65853e-39
-1.09168e-39
-5.1287e-40
-1.7886e-40
-4.75229e-41
-7.03385e-141
-8.5486e-123
-4.54939e-101
-6.85618e-88
-1.07514e-83
-1.71311e-76
-5.78706e-71
-1.50482e-64
-6.34147e-59
-3.43469e-57
-1.21751e-55
-5.46588e-54
-6.52243e-52
-8.99997e-51
-4.71868e-49
-4.30761e-48
-2.27225e-46
-4.14829e-44
-2.21265e-42
-8.13874e-42
-1.32459e-41
-1.32475e-41
-9.3322e-42
-4.97616e-42
-2.09143e-42
-7.11258e-43
-2.04801e-43
-8.90882e-44
-1.36136e-43
-2.22355e-43
-9.14757e-42
-9.17911e-40
-3.70478e-39
-6.36623e-39
-6.40792e-39
-4.30916e-39
-2.06895e-39
-7.37737e-40
-2.00527e-40
-4.49269e-140
-1.01111e-120
-3.42605e-99
-3.67637e-86
-4.31638e-82
-4.84247e-75
-1.37849e-69
-2.96783e-63
-8.82686e-58
-4.12442e-56
-1.27362e-54
-5.00394e-53
-5.41339e-51
-6.72758e-50
-3.15476e-48
-2.64977e-47
-1.22397e-45
-2.10121e-43
-1.06589e-41
-3.78817e-41
-6.01165e-41
-5.88937e-41
-4.07675e-41
-2.14161e-41
-8.88778e-42
-2.98967e-42
-8.46972e-43
-3.2022e-43
-4.18099e-43
-6.70512e-43
-2.93964e-41
-3.2004e-39
-1.32843e-38
-2.33718e-38
-2.40556e-38
-1.654e-38
-8.1215e-39
-2.96271e-39
-8.24259e-40
-1.23917e-137
-1.16929e-118
-2.53232e-97
-1.92587e-84
-1.69866e-80
-1.33321e-73
-3.19842e-68
-5.70555e-62
-1.19152e-56
-4.79826e-55
-1.28817e-53
-4.42293e-52
-4.33818e-50
-4.85818e-49
-2.03434e-47
-1.57163e-46
-6.35931e-45
-1.02623e-42
-4.95063e-41
-1.70062e-40
-2.63218e-40
-2.52639e-40
-1.71872e-40
-8.89588e-41
-3.6455e-41
-1.21288e-41
-3.38612e-42
-1.13661e-42
-1.24497e-42
-1.94638e-42
-9.10475e-41
-1.07915e-38
-4.61397e-38
-8.32094e-38
-8.76598e-38
-6.16763e-38
-3.09937e-38
-1.15744e-38
-3.29768e-39
-3.28048e-135
-1.32046e-116
-1.83596e-95
-9.84597e-83
-6.54415e-79
-3.57133e-72
-7.22106e-67
-1.06824e-60
-1.55795e-55
-5.40167e-54
-1.25807e-52
-3.76915e-51
-3.3521e-49
-3.38471e-48
-1.26353e-46
-8.97495e-46
-3.18227e-44
-4.82563e-42
-2.21377e-40
-7.35315e-40
-1.11027e-39
-1.04423e-39
-6.98266e-40
-3.56114e-40
-1.44101e-40
-4.74152e-41
-1.30592e-41
-3.97162e-42
-3.59765e-42
-5.43116e-42
-2.71378e-40
-3.51457e-38
-1.55051e-37
-2.86982e-37
-3.09763e-37
-2.23216e-37
-1.14884e-37
-4.3948e-38
-1.283e-38
-8.30498e-133
-1.4545e-114
-1.30481e-93
-4.90756e-81
-2.46484e-77
-9.29805e-71
-1.58462e-65
-1.94598e-59
-1.97076e-54
-5.87703e-53
-1.18481e-51
-3.09218e-50
-2.49379e-48
-2.27199e-47
-7.54761e-46
-4.92701e-45
-1.53136e-43
-2.18137e-41
-9.51617e-40
-3.05756e-39
-4.5048e-39
-4.15242e-39
-2.72955e-39
-1.37169e-39
-5.48049e-40
-1.78317e-40
-4.84829e-41
-1.36049e-41
-1.01023e-41
-1.45465e-41
-7.77154e-40
-1.10407e-37
-5.03513e-37
-9.57765e-37
-1.06035e-36
-7.83295e-37
-4.13227e-37
-1.62038e-37
-4.85e-38
-2.00486e-130
-1.56102e-112
-9.08335e-92
-2.38222e-79
-9.06414e-76
-2.35011e-69
-3.37609e-64
-3.44545e-58
-2.40867e-53
-6.17184e-52
-1.07445e-50
-2.43835e-49
-1.78346e-47
-1.46727e-46
-4.32942e-45
-2.59594e-44
-7.07485e-43
-9.46374e-41
-3.92604e-39
-1.22078e-38
-1.75542e-38
-1.58608e-38
-1.02498e-38
-5.07541e-39
-2.00201e-39
-6.4397e-40
-1.72894e-40
-4.54648e-41
-2.76076e-41
-3.73383e-41
-2.13454e-39
-3.34065e-37
-1.57814e-36
-3.08954e-36
-3.51242e-36
-2.66251e-36
-1.44096e-36
-5.79625e-37
-1.77982e-37
-4.60236e-128
-1.63046e-110
-6.18827e-90
-1.12485e-77
-3.24981e-74
-5.75982e-68
-6.97541e-63
-5.92265e-57
-2.84053e-52
-6.2477e-51
-9.36875e-50
-1.8451e-48
-1.22411e-46
-9.1028e-46
-2.38095e-44
-1.31044e-43
-3.13259e-42
-3.93388e-40
-1.55197e-38
-4.67252e-38
-6.55896e-38
-5.80956e-38
-3.69105e-38
-1.80083e-38
-7.01166e-39
-2.22895e-39
-5.90887e-40
-1.47443e-40
-7.35324e-41
-9.17074e-41
-5.61237e-39
-9.72155e-37
-4.76786e-36
-9.62173e-36
-1.12469e-35
-8.75764e-36
-4.8667e-36
-2.00971e-36
-6.33511e-37
-1.00177e-125
-1.65526e-108
-4.12104e-88
-5.15958e-76
-1.13421e-72
-1.36713e-66
-1.39597e-61
-9.87301e-56
-3.22752e-51
-6.08783e-50
-7.84278e-49
-1.33749e-47
-8.04992e-46
-5.41657e-45
-1.25327e-43
-6.32649e-43
-1.32693e-41
-1.564e-39
-5.86797e-38
-1.71142e-37
-2.34567e-37
-2.03692e-37
-1.27231e-37
-6.11543e-38
-2.34969e-38
-7.37857e-39
-1.93058e-39
-4.61528e-40
-1.9105e-40
-2.15181e-40
-1.40974e-38
-2.71651e-36
-1.38656e-35
-2.88932e-35
-3.4772e-35
-2.78445e-35
-1.59034e-35
-6.74753e-36
-2.18502e-36
-2.06084e-123
-1.63078e-106
-2.67864e-86
-2.29521e-74
-3.84634e-71
-3.13815e-65
-2.70249e-60
-1.59397e-54
-3.52774e-50
-5.70145e-49
-6.29299e-48
-9.2707e-47
-5.06263e-45
-3.08623e-44
-6.3032e-43
-2.91532e-42
-5.36672e-41
-5.93581e-39
-2.11815e-37
-5.9857e-37
-8.01179e-37
-6.82099e-37
-4.18843e-37
-1.98292e-37
-7.51543e-38
-2.32985e-38
-6.01187e-39
-1.3864e-39
-4.83896e-40
-4.81444e-40
-3.37462e-38
-7.2746e-36
-3.87479e-35
-8.3528e-35
-1.03643e-34
-8.54513e-35
-5.02115e-35
-2.19067e-35
-7.29265e-36
-3.99134e-121
-1.55603e-104
-1.69605e-84
-9.88108e-73
-1.26456e-69
-6.95341e-64
-5.05282e-59
-2.48826e-53
-3.70217e-49
-5.12307e-48
-4.8317e-47
-6.13263e-46
-3.03865e-44
-1.68062e-43
-3.02323e-42
-1.27955e-41
-2.06816e-40
-2.14561e-38
-7.28291e-37
-7.24112e-119
-1.43396e-102
-1.04339e-82
-4.10554e-71
-4.01896e-68
-1.48306e-62
-9.10295e-58
-3.74581e-52
-3.7203e-48
-4.40567e-47
-3.54288e-46
-3.86321e-45
-1.73595e-43
-8.72532e-43
-1.37955e-41
-5.33486e-41
-7.57475e-40
-2.47467e-45
-2.31101e-44
-1.28889e-170
-8.06884e-163
-4.99541e-156
-1.71808e-146
-1.43991e-139
-4.76287e-128
-8.25653e-121
-6.5721e-108
-6.54522e-102
-2.79543e-98
-2.98328e-95
-5.82192e-92
-1.91118e-88
-7.76066e-86
-1.03786e-82
-1.12289e-80
-1.18251e-76
-1.41149e-73
-3.64449e-71
-4.71188e-70
-1.98957e-69
-4.45733e-69
-6.312e-69
-6.14381e-69
-4.3593e-69
-3.48966e-69
-1.22127e-67
-1.3119e-66
-4.80976e-66
-9.34449e-66
-7.80031e-65
-1.68788e-63
-4.43045e-63
-5.17172e-63
-3.48087e-63
-1.5103e-63
-4.49065e-64
-9.50489e-65
-1.46879e-65
-1.60155e-168
-3.26195e-161
-1.00011e-154
-4.26886e-145
-8.09868e-138
-1.37501e-126
-3.19618e-119
-1.76473e-106
-1.70704e-100
-6.39573e-97
-6.18947e-94
-1.08033e-90
-3.21572e-87
-1.17772e-84
-1.4403e-81
-1.442e-79
-1.31686e-75
-1.49135e-72
-3.67743e-70
-4.56837e-69
-1.86822e-68
-4.07045e-68
-5.62404e-68
-5.35682e-68
-3.7238e-68
-2.73487e-68
-8.23326e-67
-8.73532e-66
-3.1689e-65
-6.10408e-65
-5.29984e-64
-1.17689e-62
-3.10303e-62
-3.63862e-62
-2.46329e-62
-1.0768e-62
-3.2313e-63
-6.91447e-64
-1.08207e-64
-1.61829e-166
-1.12949e-159
-1.76142e-153
-1.10433e-143
-4.66737e-136
-3.90444e-125
-1.23115e-117
-4.46024e-105
-4.39183e-99
-1.44329e-95
-1.26591e-92
-1.97559e-89
-5.33231e-86
-1.76152e-83
-1.96969e-80
-1.82475e-78
-1.44509e-74
-1.55262e-71
-3.65593e-69
-4.36416e-68
-1.72881e-67
-3.66388e-67
-4.94021e-67
-4.60553e-67
-3.13809e-67
-2.13482e-67
-5.46485e-66
-5.72525e-65
-2.05554e-64
-3.92671e-64
-3.5481e-63
-8.09203e-62
-2.14392e-61
-2.52619e-61
-1.72069e-61
-7.58046e-62
-2.29645e-62
-4.96943e-63
-7.87797e-64
-1.2404e-164
-3.22191e-158
-2.67142e-152
-3.68764e-142
-2.69207e-134
-1.14493e-123
-4.69905e-116
-1.05816e-103
-1.11449e-97
-3.2119e-94
-2.55177e-91
-3.55933e-88
-8.7114e-85
-2.59593e-82
-2.65356e-79
-2.27457e-77
-1.5622e-73
-1.59221e-70
-3.5799e-68
-4.10667e-67
-1.57614e-66
-3.24982e-66
-4.27712e-66
-3.90347e-66
-2.60816e-66
-1.65828e-66
-3.57069e-65
-3.69253e-64
-1.31235e-63
-2.48692e-63
-2.33983e-62
-5.48531e-61
-1.46089e-60
-1.73031e-60
-1.18619e-60
-5.26801e-61
-1.61158e-61
-3.52769e-62
-5.66668e-63
-6.18269e-163
-7.11058e-157
-3.38091e-151
-1.81972e-140
-1.54085e-132
-3.67029e-122
-1.77412e-114
-2.34924e-102
-2.78892e-96
-7.04715e-93
-5.06834e-90
-6.3165e-87
-1.40186e-83
-3.7684e-81
-3.52078e-78
-2.7922e-76
-1.66332e-72
-1.60803e-69
-3.45195e-67
-3.80564e-66
-1.41537e-65
-2.83983e-65
-3.64888e-65
-3.26074e-65
-2.13731e-65
-1.28046e-65
-2.2963e-64
-2.34284e-63
-8.24436e-63
-1.55022e-62
-1.51951e-61
-3.66484e-60
-9.81534e-60
-1.16899e-59
-8.06797e-60
-3.61316e-60
-1.1165e-60
-2.4729e-61
-4.02618e-62
-1.37002e-161
-1.08995e-155
-3.41149e-150
-1.15648e-138
-8.73325e-131
-1.32273e-120
-6.62324e-113
-4.8652e-101
-6.88139e-95
-1.52415e-91
-9.91683e-89
-1.10383e-85
-2.22144e-82
-5.3869e-80
-4.59915e-77
-3.37436e-75
-1.74373e-71
-1.59886e-68
-3.27674e-66
-3.47204e-65
-1.25155e-64
-2.44409e-64
-3.06656e-64
-2.68385e-64
-1.72638e-64
-9.81717e-65
-1.45327e-63
-1.46189e-62
-5.0946e-62
-9.50807e-62
-9.71444e-61
-2.4127e-59
-6.50066e-59
-7.78768e-59
-5.41288e-59
-2.44517e-59
-7.63439e-60
-1.71139e-60
-2.82486e-61
-1.85581e-160
-9.19232e-155
-2.54983e-149
-8.11435e-137
-4.89812e-129
-5.23943e-119
-2.4444e-111
-9.36346e-100
-1.67384e-93
-3.24879e-90
-1.91103e-87
-1.89909e-84
-3.46564e-81
-7.58108e-79
-5.91327e-76
-4.0134e-74
-1.79943e-70
-1.56471e-67
-3.06117e-65
-3.11774e-64
-1.08944e-63
-2.07115e-63
-2.53807e-63
-2.17597e-63
-1.37405e-63
-7.46463e-64
-9.05026e-63
-8.96805e-62
-3.09575e-61
-5.73608e-61
-6.11201e-60
-1.56466e-58
-4.24282e-58
-5.11453e-58
-3.58122e-58
-1.6323e-58
-5.15087e-59
-1.16896e-59
-1.95669e-60
-4.31345e-160
-1.86759e-154
-1.23653e-148
-5.92833e-135
-2.71898e-127
-2.18305e-117
-8.91904e-110
-1.66722e-98
-4.01312e-92
-6.82333e-89
-3.62609e-86
-3.21578e-83
-5.32132e-80
-1.05001e-77
-7.48067e-75
-4.6963e-73
-1.82727e-69
-1.50669e-66
-2.81357e-64
-2.75458e-63
-9.33266e-63
-1.72759e-62
-2.06816e-62
-1.73728e-62
-1.07729e-62
-5.62238e-63
-5.54558e-62
-5.40682e-61
-1.84916e-60
-3.40262e-60
-3.78314e-59
-9.99245e-58
-2.72816e-57
-3.31039e-57
-2.33588e-57
-1.07459e-57
-3.42817e-58
-7.8785e-59
-1.33768e-59
-2.12455e-159
-7.19447e-154
-2.8641e-148
-4.4116e-133
-1.4939e-125
-9.25662e-116
-3.21722e-108
-2.73071e-97
-9.48197e-91
-1.41175e-87
-6.77303e-85
-5.35813e-82
-8.03949e-79
-1.43087e-76
-9.30854e-74
-5.40486e-72
-1.8254e-68
-1.42708e-65
-2.54341e-63
-2.39383e-62
-7.86518e-62
-1.41796e-61
-1.65863e-61
-1.36543e-61
-8.31708e-62
-4.19012e-62
-3.34353e-61
-3.20251e-60
-1.08536e-59
-1.98395e-59
-2.30285e-58
-6.28236e-57
-1.7277e-56
-2.11104e-56
-1.50163e-56
-6.97445e-57
-2.25006e-57
-5.23787e-58
-9.02315e-59
-2.75158e-162
-7.97121e-157
-3.2787e-148
-3.30051e-131
-8.1264e-124
-3.93119e-114
-1.14727e-106
-4.08425e-96
-2.20745e-89
-2.87674e-86
-1.24503e-83
-8.78197e-81
-1.19474e-77
-1.91782e-75
-1.13893e-72
-6.1156e-71
-1.79327e-67
-1.32909e-64
-2.26053e-62
-2.04551e-61
-6.51878e-61
-1.14481e-60
-1.30876e-60
-1.05609e-60
-6.32077e-61
-3.08644e-61
-1.98368e-60
-1.86285e-59
-6.25751e-59
-1.13658e-58
-1.37803e-57
-3.88709e-56
-1.07724e-55
-1.32594e-55
-9.51109e-56
-4.4614e-56
-1.45595e-56
-3.43403e-57
-6.0036e-58
-1.06839e-165
-6.22042e-156
-3.44486e-146
-2.46245e-129
-4.37727e-122
-1.66202e-112
-4.0438e-105
-5.52822e-95
-5.06242e-88
-5.77181e-85
-2.25168e-82
-1.41545e-79
-1.74591e-76
-2.52742e-74
-1.36973e-71
-6.80089e-70
-1.73191e-66
-1.21672e-63
-1.97463e-61
-1.71801e-60
-5.31156e-60
-9.08858e-60
-1.01566e-59
-8.03557e-60
-4.72679e-60
-2.24475e-60
-1.15832e-59
-1.06375e-58
-3.54223e-58
-6.3951e-58
-8.1033e-57
-2.36605e-55
-6.61075e-55
-8.20006e-55
-5.93357e-55
-2.81182e-55
-9.28502e-56
-2.2195e-56
-3.93891e-57
-3.8927e-163
-1.05549e-153
-3.58541e-144
-1.82275e-127
-2.33528e-120
-6.97917e-111
-1.40874e-103
-6.71175e-94
-1.1434e-86
-1.13991e-83
-4.00521e-81
-2.24272e-78
-2.50798e-75
-3.27382e-73
-1.61855e-70
-7.43008e-69
-1.64372e-65
-1.09443e-62
-1.69461e-60
-1.41774e-59
-4.25313e-59
-7.09221e-59
-7.74925e-59
-6.01236e-59
-3.4769e-59
-1.61045e-59
-6.65905e-59
-5.96063e-58
-1.96796e-57
-3.53257e-57
-4.68049e-56
-1.41631e-54
-3.99143e-54
-4.99142e-54
-3.64478e-54
-1.74549e-54
-5.83394e-55
-1.41374e-55
-2.54748e-56
-1.32057e-160
-1.65375e-151
-3.68787e-142
-1.33166e-125
-1.23418e-118
-2.90709e-109
-4.85027e-102
-7.31211e-93
-2.54265e-85
-2.21544e-82
-7.00474e-80
-3.49209e-77
-3.54017e-74
-4.16659e-72
-1.87848e-69
-7.97169e-68
-1.53245e-64
-9.66893e-62
-1.42821e-59
-1.14907e-58
-3.34545e-58
-5.43773e-58
-5.81052e-58
-4.42196e-58
-2.51461e-58
-1.13868e-58
-3.77077e-58
-3.2761e-57
-1.07257e-56
-1.91487e-56
-2.65435e-55
-8.33413e-54
-2.37019e-53
-2.98942e-53
-2.20365e-53
-1.06686e-53
-3.61022e-54
-8.87146e-55
-1.62356e-55
-4.14775e-158
-2.36966e-149
-3.74854e-140
-9.54585e-124
-6.4625e-117
-1.19999e-107
-1.65014e-100
-7.48231e-92
-5.56533e-84
-4.23574e-81
-1.20406e-78
-5.34142e-76
-4.90855e-73
-5.20815e-71
-2.14038e-68
-8.39555e-67
-1.40288e-63
-8.38641e-61
-1.18159e-58
-9.1429e-58
-2.58388e-57
-4.0947e-57
-4.27989e-57
-3.19553e-57
-1.78737e-57
-7.92812e-58
-2.10459e-57
-1.76541e-56
-5.73198e-56
-1.01809e-55
-1.47729e-54
-4.8189e-53
-1.38371e-52
-1.76093e-52
-1.3109e-52
-6.41804e-53
-2.1996e-53
-5.48254e-54
-1.01929e-54
-1.19652e-155
-3.06776e-147
-3.76473e-138
-6.6765e-122
-3.35297e-115
-4.90376e-106
-5.5462e-99
-8.65544e-91
-1.19863e-82
-7.96402e-80
-2.03343e-77