/*--------------------------------*- C++ -*----------------------------------*\
| =========                 |                                                 |
| \\      /  F ield         | OpenFOAM: The Open Source CFD Toolbox           |
|  \\    /   O peration     | Version:  v2012                                 |
|   \\  /    A nd           | Website:  www.openfoam.com                      |
|    \\/     M anipulation  |                                                 |
\*---------------------------------------------------------------------------*/
FoamFile
{
    version     2.0;
    format      ascii;
    class       volScalarField;
    location    "1";
    object      alpha.water;
}
// * * * * * * * * * * * * * * * * * * * * * * * * * * * * * * * * * * * * * //

dimensions      [0 0 0 0 0 0 0];


internalField   nonuniform List<scalar> 
3332
(
3.00655e-28
1.42741e-37
2.45184e-45
6.18316e-52
1.79587e-58
1.39471e-80
2.6059e-82
4.59568e-84
6.75267e-87
6.03739e-92
1.53805e-95
1.57939e-99
1.28056e-105
1.24095e-110
2.73941e-116
2.81894e-122
1.25813e-129
6.79778e-142
3.14971e-153
1.53476e-161
1.43328e-14
7.56173e-20
3.2261e-28
1.56306e-37
2.72501e-45
7.06167e-52
2.02739e-58
2.70404e-80
3.16475e-82
5.75762e-84
8.10323e-87
7.73873e-92
2.38867e-95
1.81906e-99
3.41701e-105
1.83526e-110
3.79362e-116
3.53651e-122
2.16717e-129
1.11715e-141
5.76769e-153
3.45808e-161
0.999992
0.999987
0.999996
1
1
0.999996
0.999996
0.874766
0.287378
0.0263192
0.000214481
2.48384e-05
2.00871e-06
1.08118e-07
1.17572e-09
1.40547e-14
7.57155e-20
3.50705e-28
1.73363e-37
3.06206e-45
8.18717e-52
2.31511e-58
1.86921e-80
3.88224e-82
7.27703e-84
9.82668e-87
1.004e-91
3.55502e-95
2.14929e-99
8.751e-105
2.63902e-110
5.07956e-116
4.35515e-122
3.72359e-129
3.80044e-141
1.0747e-152
7.95152e-161
0.999995
0.999986
0.999995
1
1
0.999996
0.999995
0.87312
0.283393
0.0257998
0.00421931
0.00111118
0.000188468
2.19612e-05
1.7937e-06
9.77585e-08
1.24602e-09
1.39621e-14
7.65684e-20
3.86308e-28
1.94785e-37
3.47931e-45
9.63752e-52
2.67546e-58
2.4945e-80
4.82027e-82
9.27017e-84
1.2049e-86
1.31876e-91
5.11145e-95
2.6276e-99
2.05176e-104
3.67511e-110
6.5476e-116
5.39969e-122
6.63692e-129
1.64454e-140
2.03648e-152
1.864e-160
0.999997
0.999986
0.999995
1
1
0.999995
0.999675
0.873451
0.287262
0.0267685
0.00390482
0.00099548
0.000169083
1.98382e-05
1.63594e-06
9.02376e-08
1.3352e-09
1.43002e-14
7.80575e-20
4.3112e-28
2.21683e-37
3.99734e-45
1.15176e-51
3.13035e-58
2.92335e-80
6.01443e-82
1.19039e-83
1.49448e-86
1.75404e-91
7.1485e-95
3.35367e-99
4.3815e-104
4.9488e-110
8.15007e-116
7.06298e-122
1.23015e-128
5.05934e-140
3.9218e-152
4.44989e-160
5.83483e-168
0.999998
0.999986
0.999995
1
1
0.999994
0.999537
0.880588
0.304438
0.0287733
0.00370577
0.000906645
0.000154742
1.82918e-05
1.52279e-06
8.49785e-08
1.4461e-09
1.52401e-14
8.01974e-20
4.87265e-28
2.5547e-37
4.64227e-45
1.39693e-51
3.70926e-58
3.27027e-80
7.60034e-82
1.54817e-83
1.87588e-86
2.36263e-91
9.78006e-95
4.50045e-99
8.61602e-104
6.44091e-110
9.90938e-116
1.06008e-121
2.30306e-128
1.08757e-139
7.6689e-152
1.08057e-159
2.33068e-167
0.999997
0.999986
0.999995
1
1
0.999996
0.999576
0.890809
0.323166
0.0312144
0.00360277
0.000838256
0.000144242
1.71888e-05
1.44487e-06
8.15273e-08
1.58228e-09
1.66243e-14
8.29893e-20
5.57409e-28
2.97952e-37
5.44734e-45
1.71848e-51
4.45219e-58
4.744e-80
9.84495e-82
2.0447e-83
2.38363e-86
3.22272e-91
1.31557e-94
6.36399e-99
1.58408e-103
8.10253e-110
1.20573e-115
2.01227e-121
4.21009e-128
1.85072e-139
1.52126e-151
2.66591e-159
9.4383e-167
1.83986e-269
0.999993
0.999988
0.999996
1
1
0.999999
0.999838
0.905268
0.349537
0.034887
0.00356061
0.000785345
0.000136674
1.64304e-05
1.39468e-06
7.95857e-08
1.74867e-09
1.89631e-14
8.64298e-20
6.44896e-28
3.51442e-37
6.45496e-45
2.14255e-51
5.41405e-58
6.06166e-80
1.25068e-81
2.74242e-83
3.0669e-86
4.4509e-91
1.74833e-94
9.43695e-99
2.76333e-103
9.85448e-110
1.54617e-115
4.76382e-121
7.39261e-128
2.85708e-139
3.05831e-151
6.67475e-159
3.86678e-166
7.9793e-270
0.999989
0.999989
0.999996
1.00001
1
1
0.999959
0.92162
0.381961
0.0399029
0.00356553
0.000744095
0.000131338
1.59431e-05
1.36712e-06
7.86987e-08
1.94834e-09
2.26006e-14
9.05139e-20
7.53928e-28
4.18906e-37
7.71937e-45
2.70473e-51
6.67091e-58
1.97258e-79
1.61817e-81
3.76297e-83
3.99632e-86
6.22207e-91
2.30736e-94
1.45072e-98
4.63277e-103
1.15953e-109
2.35234e-115
1.2079e-120
1.25348e-127
4.7148e-139
6.22599e-151
1.69433e-158
1.5996e-165
3.34976e-270
0.999983
0.999991
0.999997
1.00001
1
1
0.999976
0.938683
0.420975
0.0466605
0.00371427
0.00071224
0.000127676
1.56752e-05
1.35482e-06
7.84961e-08
2.16797e-09
2.82528e-14
9.52337e-20
8.8978e-28
5.04154e-37
9.31016e-45
3.45344e-51
8.32917e-58
2.18837e-81
2.15603e-81
5.25288e-83
5.27405e-86
8.80014e-91
3.04289e-94
2.27762e-98
7.545e-103
1.32202e-109
5.12826e-115
2.87435e-120
2.09688e-127
1.0333e-138
1.28284e-150
4.35714e-158
6.67003e-165
2.07457e-270
0.999983
0.999991
0.999997
1.00001
1
1
0.999979
0.954811
0.466366
0.0556777
0.00400082
0.000689931
0.000125224
1.55613e-05
1.35213e-06
7.96608e-08
2.38713e-09
3.69819e-14
1.00574e-19
1.05908e-27
6.12083e-37
1.13169e-44
4.45466e-51
1.05392e-57
2.45986e-79
3.36539e-81
7.38224e-83
7.04894e-86
1.25849e-90
4.0425e-94
3.59868e-98
1.20441e-102
1.46504e-109
1.60283e-114
6.12128e-120
3.56505e-127
3.03864e-138
2.67515e-150
1.13451e-157
2.79916e-164
2.46174e-189
0.99998
0.999992
0.999998
1.00001
0.999999
1
0.999994
0.968832
0.517581
0.0676092
0.004426
0.000678267
0.000123578
1.55364e-05
1.36617e-06
8.16226e-08
2.60744e-09
5.0389e-14
1.06509e-19
1.27016e-27
7.49001e-37
1.38555e-44
5.79815e-51
1.35152e-57
4.30094e-81
4.36502e-81
1.01859e-82
9.53918e-86
1.81847e-90
5.46996e-94
5.65482e-98
1.8987e-102
1.58679e-109
5.41838e-114
1.17097e-119
6.3244e-127
8.71807e-138
5.64778e-150
2.98961e-157
1.18067e-163
1.81372e-186
0.999981
0.999992
0.999997
1.00001
0.999999
1
0.99999
0.980025
0.573587
0.0833106
0.00504922
0.000674401
0.000122391
1.55987e-05
1.39064e-06
8.39441e-08
2.83062e-09
7.08124e-14
1.12991e-19
1.53351e-27
9.23048e-37
1.70765e-44
7.60603e-51
1.75652e-57
4.96587e-79
6.96577e-81
1.42523e-82
1.30662e-85
2.65271e-90
7.65051e-94
8.76444e-98
2.97491e-102
1.69568e-109
1.61308e-113
2.05936e-119
1.17799e-126
2.06131e-137
1.20782e-149
7.96816e-157
4.99944e-163
3.99696e-184
0.999981
0.999991
0.999997
1.00001
0.999999
1
0.999984
0.988183
0.63286
0.103859
0.00595033
0.000676887
0.000121345
1.57281e-05
1.41775e-06
8.67552e-08
3.05861e-09
1.01561e-13
1.19948e-19
1.86237e-27
1.14476e-36
2.11769e-44
1.00442e-50
2.31356e-57
2.96656e-79
9.03526e-81
1.93168e-82
1.81059e-85
3.90302e-90
1.12639e-93
1.33316e-97
4.6574e-102
1.82051e-109
4.02142e-113
3.42977e-119
2.25116e-126
4.25637e-137
2.61761e-149
2.14603e-156
2.12315e-162
4.70375e-182
0.999982
0.99999
0.999997
1.00001
0.999999
1
0.999974
0.993684
0.693608
0.130574
0.00725097
0.000693271
0.000120364
1.58552e-05
1.4481e-06
8.98428e-08
3.29038e-09
1.47174e-13
1.27277e-19
2.27353e-27
1.42783e-36
2.64164e-44
1.33378e-50
3.08772e-57
3.93114e-79
1.38082e-80
2.64847e-82
2.53645e-85
5.78649e-90
1.77834e-93
1.98498e-97
7.31684e-102
2.07078e-109
8.52888e-113
5.5921e-119
4.24797e-126
9.20615e-137
5.74808e-149
5.83263e-156
9.03542e-162
3.61948e-180
0.999996
0.99999
0.999997
1.00001
0.999999
1
0.999986
0.997059
0.75397
0.16503
0.00914369
0.000728208
0.000119733
1.59679e-05
1.47901e-06
9.30952e-08
3.5244e-09
2.13685e-13
1.34851e-19
2.78836e-27
1.79012e-36
3.31408e-44
1.77923e-50
4.17446e-57
2.07095e-80
2.05994e-80
3.51646e-82
3.58936e-85
8.63566e-90
3.04489e-93
2.89003e-97
1.15705e-101
3.20661e-109
1.58607e-112
9.26552e-119
7.69705e-126
2.75201e-136
1.27761e-148
1.59719e-155
3.85096e-161
2.01908e-178
0.999996
0.999988
0.999996
1.00001
0.999999
1
1
0.998983
0.812022
0.209001
0.0119378
0.000789552
0.000119604
1.60598e-05
1.50885e-06
9.64149e-08
3.75896e-09
3.0888e-13
1.42536e-19
3.43436e-27
2.25511e-36
4.18151e-44
2.38214e-50
5.71429e-57
5.84682e-78
2.96201e-80
4.69323e-82
5.12611e-85
1.29601e-89
5.62844e-93
4.11434e-97
1.84485e-101
1.32642e-108
2.65813e-112
1.62282e-118
1.3347e-125
1.20861e-135
2.86839e-148
4.40072e-155
1.64321e-160
8.67832e-177
1
0.999988
0.999997
1.00001
0.999999
1
1
0.99964
0.865608
0.264245
0.0161331
0.000891167
0.000120332
1.61493e-05
1.5374e-06
9.97452e-08
3.99284e-09
4.42551e-13
1.50216e-19
4.24712e-27
2.85382e-36
5.30722e-44
3.19864e-50
7.91467e-57
2.01416e-78
3.86695e-80
6.26974e-82
7.38082e-85
1.95408e-89
1.09884e-92
5.73044e-97
2.96654e-101
1.18009e-107
4.10036e-112
3.09741e-118
2.26588e-125
5.20361e-135
6.48687e-148
1.2194e-154
7.01909e-160
2.9953e-175
1
0.999987
0.999996
1.00001
0.999999
1
1
0.999872
0.911864
0.332025
0.0225327
0.0010552
0.000122581
1.62822e-05
1.5659e-06
1.03096e-07
4.22627e-09
6.26723e-13
1.5783e-19
5.27322e-27
3.62767e-36
6.77847e-44
4.30481e-50
1.10823e-56
3.14509e-78
5.1842e-80
8.41342e-82
1.07034e-84
2.95743e-89
2.19669e-92
7.81658e-97
4.80488e-101
1.01339e-106
5.91276e-112
6.4609e-118
3.94446e-125
1.70497e-134
1.4736e-147
3.4011e-154
3.00171e-159
8.59188e-174
0.999998
0.999987
0.999996
1.00001
0.999999
1
0.999999
0.999968
0.948091
0.412351
0.0324109
0.00131488
0.000127201
1.65019e-05
1.59696e-06
1.06554e-07
4.4617e-09
8.75894e-13
1.65399e-19
6.57432e-27
4.6323e-36
8.71716e-44
5.80407e-50
1.56703e-56
4.13895e-78
6.97717e-80
1.13738e-81
1.56174e-84
4.48961e-89
4.36943e-92
1.04591e-96
7.82008e-101
6.41673e-106
8.06157e-112
1.42947e-117
7.48624e-125
4.38385e-134
3.35671e-147
9.57233e-154
1.28524e-158
2.11442e-172
0.999995
0.999987
0.999996
1.00001
0.999998
1
0.999996
0.999997
0.97312
0.503202
0.0477405
0.0017217
0.000135362
1.68554e-05
1.63447e-06
1.10278e-07
4.70436e-09
1.20728e-12
1.73043e-19
8.23297e-27
5.94332e-36
1.12959e-43
7.83724e-50
2.23477e-56
5.68053e-78
9.50549e-80
1.55577e-81
2.2908e-84
6.83256e-89
8.47471e-92
1.37651e-96
1.27484e-100
2.91638e-105
1.04814e-111
3.21986e-117
1.61437e-124
1.02551e-133
7.67588e-147
2.72763e-153
5.50891e-158
4.5858e-171
0.999996
0.999988
0.999997
1.00001
0.999998
1
0.999996
0.999995
0.988041
0.600382
0.0714675
0.00237476
0.000149163
1.74056e-05
1.68292e-06
1.14503e-07
4.96264e-09
1.64112e-12
1.81004e-19
1.0361e-26
7.66443e-36
1.47627e-43
1.05969e-49
3.20998e-56
7.82351e-78
1.31286e-79
2.16432e-81
3.37558e-84
1.04209e-88
1.58497e-91
1.78996e-96
2.07459e-100
1.00239e-104
1.30842e-111
7.18571e-117
3.83079e-124
2.67271e-133
1.77271e-146
7.88883e-153
2.36288e-157
8.94652e-170
0.999997
0.999988
0.999997
1
0.999998
1
0.999997
0.999992
0.995674
0.698411
0.107805
0.00348489
0.000172513
1.82417e-05
1.74738e-06
1.19541e-07
5.24855e-09
2.20105e-12
1.89641e-19
1.31121e-26
9.93952e-36
1.94783e-43
1.43474e-49
4.63732e-56
1.09229e-77
1.84355e-79
3.07813e-81
4.9945e-84
1.59279e-88
2.84604e-91
2.31852e-96
3.35923e-100
2.79261e-104
1.57821e-111
1.57801e-116
9.15569e-124
9.14067e-133
4.18931e-146
2.31481e-152
1.01378e-156
1.59567e-168
0.999999
0.999988
0.999997
1
0.999997
1
0.999997
0.999997
0.998942
0.791452
0.162386
0.0054558
0.000212258
1.95317e-05
1.83585e-06
1.25825e-07
5.57876e-09
2.91476e-12
1.99422e-19
1.66998e-26
1.29702e-35
2.59749e-43
1.94545e-49
6.72844e-56
1.54332e-77
2.63709e-79
4.49543e-81
7.41914e-84
2.44042e-88
4.90686e-91
3.03535e-96
5.39809e-100
6.69781e-104
1.85532e-111
3.42978e-116
2.0735e-123
3.65304e-132
1.04646e-145
6.85846e-152
4.35195e-156
2.63637e-167
0.999999
0.999988
0.999998
1
0.999998
1
0.999997
0.999999
0.9998
0.872824
0.241587
0.00906815
0.000279996
2.15811e-05
1.961e-06
1.33978e-07
5.97658e-09
3.81487e-12
2.10889e-19
2.14248e-26
1.70423e-35
3.50474e-43
2.64272e-49
9.79185e-56
2.20667e-77
3.84818e-79
6.7651e-81
1.10673e-83
3.75041e-88
8.14347e-91
4.12175e-96
8.59301e-100
1.44627e-103
2.16335e-111
7.42568e-116
4.48911e-123
1.32681e-131
2.99217e-145
2.03418e-151
1.87218e-155
4.07954e-166
1
0.999988
0.999998
1
0.999997
1
0.999998
0.999999
0.999976
0.934808
0.34992
0.0159983
0.000403615
2.498e-05
2.14346e-06
1.44935e-07
6.47546e-09
4.94061e-12
2.24718e-19
2.77163e-26
2.25658e-35
4.78961e-43
3.59805e-49
1.42757e-55
3.18321e-77
5.73631e-79
1.05394e-80
1.65912e-83
5.78582e-88
1.30612e-90
6.05962e-96
1.35387e-99
2.90199e-103
2.62412e-111
1.59711e-115
1.00309e-122
4.13284e-131
1.79924e-144
5.97928e-151
8.0962e-155
5.96766e-165
1
0.999988
1
1
0.999997
1
0.999999
1
0.999998
0.97318
0.485401
0.0301071
0.000661425
3.09598e-05
2.41689e-06
1.60119e-07
7.12406e-09
6.34038e-12
2.42222e-19
3.61939e-26
3.01348e-35
6.63516e-43
4.91299e-49
2.08289e-55
4.60222e-77
8.76372e-79
1.72699e-80
2.50281e-83
8.96988e-88
2.03481e-90
1.01991e-95
2.11151e-99
5.53476e-103
3.94577e-111
3.36251e-115
2.63057e-122
1.24801e-130
1.27422e-143
1.72921e-150
3.53216e-154
8.31867e-164
1
0.999989
1
1
0.999997
1
1
1
0.999988
0.991457
0.636068
0.0598538
0.00126882
4.21702e-05
2.83917e-06
1.81734e-07
7.99416e-09
8.07596e-12
2.6711e-19
4.77629e-26
4.06192e-35
9.32296e-43
6.73341e-49
3.03888e-55
6.41611e-77
1.39123e-78
2.97592e-80
3.80676e-83
1.39916e-87
3.09865e-90
2.0303e-95
3.26374e-99
1.02047e-102
1.36295e-110
6.78578e-115
8.87258e-122
4.45803e-130
6.26516e-143
4.92807e-150
1.557e-153
1.11261e-162
1.00001
0.99999
1
1
0.999997
1
1
1
0.999999
0.99804
0.78105
0.121813
0.00283826
6.49674e-05
3.52253e-06
2.13329e-07
9.19352e-09
1.02292e-11
3.11073e-19
6.376e-26
5.53065e-35
1.32887e-42
9.27184e-49
4.43077e-55
7.73254e-77
2.38171e-78
5.34416e-80
5.85412e-83
2.19862e-87
4.65077e-90
4.59496e-95
5.01138e-99
1.84281e-102
1.41475e-109
1.28939e-114
3.45985e-121
2.03514e-129
3.21891e-142
1.41048e-149
6.91146e-153
1.43642e-161
1.00001
0.999991
1
0.999999
0.999997
1
0.999999
0.999999
0.999997
0.999747
0.895242
0.239958
0.00716527
0.000121512
4.70372e-06
2.60955e-07
1.08862e-08
1.29117e-11
4.13853e-19
8.61784e-26
7.61176e-35
1.92092e-42
1.28429e-48
6.45368e-55
1.7996e-76
4.31298e-78
9.82698e-80
9.13496e-83
3.48473e-87
6.95846e-90
1.07908e-94
7.6712e-99
3.29197e-102
1.76929e-108
2.2883e-114
1.25687e-120
9.67002e-129
2.47022e-141
4.22731e-149
3.06177e-152
1.79997e-160
1.00001
0.999992
1
0.999998
0.999999
1
1
0.999999
0.999997
0.999998
0.962663
0.425652
0.0199102
0.000293745
6.92106e-06
3.35297e-07
1.3322e-08
1.62777e-11
7.16042e-19
1.18013e-25
1.05943e-34
2.81375e-42
1.79208e-48
9.3898e-55
4.52502e-76
7.34724e-78
1.84473e-79
1.45274e-82
5.57687e-87
1.05442e-89
2.43466e-94
1.17634e-98
5.85562e-102
1.66622e-107
3.80972e-114
3.79732e-120
3.98527e-128
2.23827e-140
1.38948e-148
1.33852e-151
2.20141e-159
1
0.999994
1
0.999999
0.999999
0.999998
0.999999
1
0.999997
1
0.990133
0.642909
0.0592429
0.000906453
1.2005e-05
4.53376e-07
1.68784e-08
2.05406e-11
1.68961e-18
1.63791e-25
1.4916e-34
4.17091e-42
2.52354e-48
1.36494e-54
1.28855e-77
1.26349e-77
3.58499e-79
2.36609e-82
9.01941e-87
1.65276e-89
5.08831e-94
1.81796e-98
1.03986e-101
1.08102e-106
6.0667e-114
9.5317e-120
1.4922e-127
1.50729e-139
5.01274e-148
5.74733e-151
2.64314e-158
1
0.999994
1
0.999999
1
0.999998
0.999999
1
0.999997
1
0.998317
0.821016
0.164829
0.0034308
2.8177e-05
6.35997e-07
2.21307e-08
2.59895e-11
4.70615e-18
2.30377e-25
2.12425e-34
6.24546e-42
3.59348e-48
1.98349e-54
1.70922e-75
2.63775e-77
7.07753e-79
3.96605e-82
1.47486e-86
2.74608e-89
9.7919e-94
2.85103e-98
1.84069e-101
4.98876e-106
9.6491e-114
2.08502e-119
6.1855e-127
8.42132e-139
1.86161e-147
2.46341e-150
3.13259e-157
1
0.999996
1
0.999998
1
0.999997
0.999999
1
0.999998
1
0.999954
0.925827
0.357397
0.0147805
9.88571e-05
9.27832e-07
2.99743e-08
3.30012e-11
1.2994e-17
3.28188e-25
3.059e-34
9.4262e-42
5.18693e-48
2.88436e-54
4.55264e-77
4.43725e-77
1.36997e-78
6.86891e-82
2.43874e-86
4.93069e-89
1.75505e-93
4.56849e-98
3.23128e-101
1.75087e-105
1.68454e-113
4.21303e-119
3.32506e-126
6.47407e-138
6.53002e-147
1.10882e-149
3.67695e-156
1
0.999995
1
0.999997
1
0.999996
0.999999
1
0.999998
0.999999
1
0.974325
0.578473
0.0567502
0.000493226
1.5488e-06
4.15582e-08
4.20345e-11
3.24961e-17
4.73007e-25
4.45114e-34
1.43052e-41
7.60918e-48
4.20436e-54
2.46745e-75
1.00069e-76
2.65776e-78
1.23163e-81
4.07703e-86
9.5672e-89
2.99932e-93
7.52311e-98
5.58661e-101
4.99211e-105
3.96655e-113
8.28087e-119
1.99504e-125
7.90547e-137
2.0174e-146
5.57063e-149
4.27135e-155
1
0.999994
1
0.999995
1
0.999996
0.999999
1
0.999999
0.999999
1
0.992336
0.757875
0.151185
0.00261087
3.87681e-06
5.74196e-08
5.35888e-11
7.1733e-17
6.88648e-25
6.53815e-34
2.17742e-41
1.13751e-47
6.15844e-54
2.00446e-75
2.00011e-76
4.815e-78
2.28427e-81
6.88897e-86
1.95297e-88
5.07475e-93
1.27798e-97
9.45121e-101
1.22061e-104
1.69456e-112
1.64268e-118
1.05258e-124
7.20774e-136
5.21082e-146
3.08755e-148
4.89379e-154
1
0.999994
1
0.999995
1
0.999997
0.999999
1
0.999999
0.999999
1
0.998006
0.871132
0.288865
0.0104742
1.85653e-05
7.73957e-08
6.811e-11
1.40368e-16
1.01086e-24
9.68304e-34
3.31615e-41
1.73684e-47
9.09761e-54
3.29808e-75
4.39475e-76
8.22948e-78
4.36471e-81
1.17645e-85
4.01933e-88
9.02573e-93
2.24554e-97
1.55859e-100
2.67128e-104
1.27546e-111
3.38683e-118
4.95427e-124
4.29127e-135
1.06358e-145
1.69077e-147
5.53936e-153
1
0.999993
1
0.999994
1
0.999999
1
1
0.999999
0.999998
1
0.999644
0.931367
0.434334
0.0290826
9.59253e-05
1.0122e-07
8.58326e-11
2.47175e-16
1.49302e-24
1.44405e-33
5.0425e-41
2.71245e-47
1.36203e-53
4.10183e-75
9.38635e-76
1.29564e-77
8.53787e-81
2.03191e-85
8.02376e-88
1.84118e-92
4.10304e-97
2.50715e-100
5.41996e-104
1.1384e-110
7.74153e-118
2.59307e-123
2.90767e-134
1.70808e-145
7.95566e-147
6.32515e-152
1
0.999991
1
0.999995
1
0.999999
0.999999
1
0.999999
0.999997
1
1
0.96061
0.556862
0.0596545
0.000342364
1.31278e-07
1.06573e-10
3.98311e-16
2.21452e-24
2.16585e-33
7.6427e-41
4.33204e-47
2.0792e-53
1.85746e-75
1.94639e-75
2.04659e-77
1.6975e-80
3.55611e-85
1.51768e-87
4.65907e-92
7.91003e-97
3.96193e-100
1.05112e-103
9.23692e-110
2.34997e-117
1.80995e-122
4.3595e-133
2.6731e-145
2.85433e-146
7.61672e-151
1
0.999991
1
0.999997
1
1
0.999999
1
0.999998
0.999997
1
1
0.974432
0.646725
0.0981335
0.000885279
1.81101e-07
1.29521e-10
5.96218e-16
3.29309e-24
3.26347e-33
1.15341e-40
7.06019e-47
3.25836e-53
7.77041e-74
3.6671e-75
3.24669e-77
3.40885e-80
6.32801e-85
2.69968e-87
1.42071e-91
1.65782e-96
6.25078e-100
2.00071e-103
6.1593e-109
1.32088e-116
1.40543e-121
4.84645e-132
3.95148e-145
7.04454e-146
9.92857e-150
1
0.99999
1
1
1
0.999999
1
1
0.999998
0.999997
0.999997
1
0.981144
0.708753
0.138956
0.00185625
3.07875e-07
1.53155e-10
8.38824e-16
4.90327e-24
4.93594e-33
1.73284e-40
1.16921e-46
5.27419e-53
7.79465e-75
7.6516e-75
5.24245e-77
6.88689e-80
1.15053e-84
4.54385e-87
4.51998e-91
3.94554e-96
1.01434e-99
3.81722e-103
3.26839e-108
1.4654e-115
9.74981e-121
2.39551e-131
4.73247e-145
1.10527e-145
1.31973e-148
0.999998
0.999996
0.999995
1
0.98474
0.751715
0.178338
0.00333423
7.09625e-07
1.75489e-10
1.11819e-15
7.30385e-24
7.48959e-33
2.59356e-40
1.95596e-46
8.8481e-53
1.15864e-72
1.45698e-74
8.76692e-77
1.39869e-79
2.15018e-84
7.38052e-87
1.31982e-90
1.10302e-95
1.77866e-99
7.4037e-103
1.38623e-107
1.90225e-114
6.91866e-120
9.38293e-131
5.18782e-145
1.52376e-145
1.55444e-147
3.00649e-28
1.42738e-37
2.45181e-45
6.1831e-52
1.79589e-58
2.11875e-82
2.10681e-82
4.50111e-84
8.11777e-87
6.15274e-92
1.55233e-95
1.62476e-99
1.23536e-105
1.24985e-110
2.78547e-116
2.84366e-122
1.25025e-129
6.79722e-142
3.15445e-153
1.53476e-161
1.43327e-14
7.5617e-20
3.22604e-28
1.56303e-37
2.72498e-45
7.0616e-52
2.02742e-58
1.73722e-80
2.45493e-82
4.98295e-84
9.73351e-87
7.91577e-92
2.50164e-95
1.86934e-99
3.33773e-105
1.84559e-110
3.85676e-116
3.56635e-122
2.15212e-129
1.11704e-141
5.77603e-153
3.45808e-161
0.999995
0.999992
0.999998
1
1
0.999996
0.999996
0.874763
0.287375
0.0263191
0.000214484
2.48389e-05
2.00876e-06
1.0812e-07
1.17572e-09
1.40547e-14
7.57152e-20
3.50699e-28
1.7336e-37
3.06204e-45
8.18709e-52
2.31514e-58
1.1796e-80
2.50956e-82
5.51781e-84
1.17871e-86
1.03029e-91
3.83484e-95
2.20435e-99
8.64861e-105
2.64833e-110
5.16422e-116
4.38927e-122
3.69515e-129
3.79993e-141
1.0762e-152
7.95154e-161
0.999997
0.999991
0.999997
1
1
0.999995
0.999995
0.873117
0.28339
0.0257997
0.00421933
0.0011112
0.00018847
2.19617e-05
1.79374e-06
9.77609e-08
1.24602e-09
1.39621e-14
7.65681e-20
3.86301e-28
1.94781e-37
3.47928e-45
9.63743e-52
2.6755e-58
1.14023e-80
2.6289e-82
6.42913e-84
1.44221e-86
1.35704e-91
5.64603e-95
2.68655e-99
2.04674e-104
3.67892e-110
6.66034e-116
5.43653e-122
6.58286e-129
1.64439e-140
2.03924e-152
1.86401e-160
0.999997
0.999991
0.999997
1
1
0.999995
0.999675
0.873448
0.287259
0.0267685
0.00390483
0.00099549
0.000169086
1.98386e-05
1.63597e-06
9.02398e-08
1.33521e-09
1.43001e-14
7.80572e-20
4.31112e-28
2.21679e-37
3.9973e-45
1.15175e-51
3.1304e-58
1.12534e-80
3.03425e-82
8.14041e-84
1.78354e-86
1.8092e-91
8.04843e-95
3.41412e-99
4.40139e-104
4.94029e-110
8.30188e-116
7.0986e-122
1.22002e-128
5.05928e-140
3.92698e-152
4.44989e-160
5.83483e-168
0.999998
0.999992
0.999997
1
1
0.999994
0.999537
0.880586
0.304436
0.0287733
0.00370578
0.000906654
0.000154744
1.82921e-05
1.52282e-06
8.49805e-08
1.4461e-09
1.52401e-14
8.01971e-20
4.87256e-28
2.55465e-37
4.64222e-45
1.39691e-51
3.70932e-58
1.15643e-80
4.21976e-82
1.13104e-83
2.22996e-86
2.44173e-91
1.11828e-94
4.55725e-99
8.69946e-104
6.41091e-110
1.01211e-115
1.06214e-121
2.28501e-128
1.0877e-139
7.67884e-152
1.08057e-159
2.33068e-167
0.999998
0.999992
0.999997
1
1
0.999996
0.999576
0.890806
0.323164
0.0312143
0.00360278
0.000838264
0.000144244
1.71891e-05
1.4449e-06
8.15291e-08
1.58228e-09
1.66242e-14
8.2989e-20
5.57399e-28
2.97946e-37
5.44729e-45
1.71846e-51
4.45228e-58
1.34496e-80
6.71645e-82
1.63996e-83
2.81955e-86
3.33604e-91
1.52309e-94
6.40752e-99
1.60539e-103
8.04001e-110
1.2375e-115
2.00785e-121
4.18034e-128
1.85044e-139
1.5232e-151
2.66592e-159
9.43831e-167
4.24467e-273
0.999998
0.999993
0.999998
1
1
0.999999
0.999837
0.905265
0.349535
0.0348871
0.00356062
0.000785352
0.000136676
1.64307e-05
1.39471e-06
7.95875e-08
1.74867e-09
1.8963e-14
8.64294e-20
6.44884e-28
3.51435e-37
6.4549e-45
2.14253e-51
5.41418e-58
7.2854e-80
1.0641e-81
2.35112e-83
3.60596e-86
4.61362e-91
2.04395e-94
9.45157e-99
2.80821e-103
9.74768e-110
1.60119e-115
4.73774e-121
7.34776e-128
2.85719e-139
3.06211e-151
6.67476e-159
3.86679e-166
1.84672e-273
0.999995
0.999993
0.999998
1
1
1
0.999959
0.921617
0.381959
0.039903
0.00356554
0.000744102
0.00013134
1.59434e-05
1.36715e-06
7.87003e-08
1.94834e-09
2.26005e-14
9.05135e-20
7.53914e-28
4.18898e-37
7.71929e-45
2.7047e-51
6.67108e-58
3.62786e-80
1.45581e-81
3.27728e-83
4.66542e-86
6.45686e-91
2.71657e-94
1.44709e-98
4.71758e-103
1.14335e-109
2.4736e-115
1.19953e-120
1.2473e-127
4.71525e-139
6.23352e-151
1.69433e-158
1.59961e-165
1.37712e-273
0.99999
0.999994
0.999998
1
1
1
0.999975
0.938681
0.420973
0.0466605
0.00371427
0.000712246
0.000127678
1.56755e-05
1.35485e-06
7.84977e-08
2.16797e-09
2.82528e-14
9.52332e-20
8.89763e-28
5.04144e-37
9.31007e-45
3.45341e-51
8.32942e-58
9.07262e-80
2.1445e-81
4.56357e-83
6.10725e-86
9.1412e-91
3.59674e-94
2.26637e-98
7.69463e-103
1.29957e-109
5.47137e-115
2.85347e-120
2.08907e-127
1.03315e-138
1.28434e-150
4.35715e-158
6.67003e-165
7.15353e-271
0.999989
0.999995
0.999998
1
1
1
0.999979
0.954808
0.466364
0.0556778
0.00400082
0.000689935
0.000125226
1.55615e-05
1.35215e-06
7.96622e-08
2.38714e-09
3.69818e-14
1.00574e-19
1.05906e-27
6.12071e-37
1.13168e-44
4.45461e-51
1.05395e-57
1.79091e-79
2.9207e-81
6.36576e-83
8.08962e-86
1.30845e-90
4.77843e-94
3.57784e-98
1.2296e-102
1.43601e-109
1.70621e-114
6.07699e-120
3.55602e-127
3.03899e-138
2.67813e-150
1.13451e-157
2.79916e-164
2.46174e-189
0.999987
0.999995
0.999998
1
0.999999
1
0.999993
0.96883
0.517579
0.0676094
0.004426
0.00067827
0.00012358
1.55367e-05
1.3662e-06
8.1624e-08
2.60746e-09
5.03888e-14
1.06508e-19
1.27014e-27
7.48986e-37
1.38554e-44
5.7981e-51
1.35157e-57
4.02582e-81
3.96987e-81
9.0922e-83
1.08432e-85
1.89234e-90
6.43165e-94
5.62458e-98
1.93973e-102
1.55129e-109
5.68817e-114
1.16254e-119
6.31463e-127
8.71874e-138
5.6538e-150
2.98961e-157
1.18067e-163
1.81372e-186
0.999987
0.999995
0.999998
1
0.999999
1
0.999989
0.980024
0.573585
0.0833109
0.00504922
0.000674404
0.000122392
1.55989e-05
1.39066e-06
8.39454e-08
2.83064e-09
7.08121e-14
1.1299e-19
1.53348e-27
9.2303e-37
1.70764e-44
7.60596e-51
1.75659e-57
7.54116e-79
6.30217e-81
1.32674e-82
1.47075e-85
2.76305e-90
8.88395e-94
8.72977e-98
3.04007e-102
1.65393e-109
1.66922e-113
2.04435e-119
1.17681e-126
2.06142e-137
1.20906e-149
7.96817e-157
4.99945e-163
3.99696e-184
0.99999
0.999995
0.999998
1
0.999999
1
0.999983
0.988182
0.632858
0.103859
0.00595033
0.000676889
0.000121346
1.57283e-05
1.41777e-06
8.67565e-08
3.05864e-09
1.01561e-13
1.19947e-19
1.86234e-27
1.14474e-36
2.11767e-44
1.00441e-50
2.31367e-57
3.26102e-79
8.51719e-81
1.92724e-82
2.01857e-85
4.0696e-90
1.28012e-93
1.33058e-97
4.75891e-102
1.77203e-109
4.11495e-113
3.40403e-119
2.24893e-126
4.25655e-137
2.62024e-149
2.14603e-156
2.12315e-162
4.70375e-182
0.999993
0.999994
0.999998
1
0.999999
1
0.999973
0.993683
0.693607
0.130574
0.00725097
0.000693272
0.000120364
1.58554e-05
1.44812e-06
8.98439e-08
3.2904e-09
1.47174e-13
1.27276e-19
2.27348e-27
1.4278e-36
2.64162e-44
1.33377e-50
3.08788e-57
4.99782e-79
1.30464e-80
2.88494e-82
2.80295e-85
6.04066e-90
1.95936e-93
1.98597e-97
7.47235e-102
2.01254e-109
8.65685e-113
5.54858e-119
4.24201e-126
9.20634e-137
5.75385e-149
5.83264e-156
9.03543e-162
3.61948e-180
0.999997
0.999994
0.999998
1
0.999999
1
0.999986
0.997058
0.753968
0.16503
0.00914369
0.000728207
0.000119734
1.5968e-05
1.47903e-06
9.30962e-08
3.52442e-09
2.13684e-13
1.34851e-19
2.78831e-27
1.79008e-36
3.31405e-44
1.77921e-50
4.17469e-57
5.96806e-79
1.98599e-80
4.29561e-82
3.93688e-85
9.02749e-90
3.23162e-93
2.89926e-97
1.18049e-101
3.13031e-109
1.60053e-112
9.19197e-119
7.68131e-126
2.75201e-136
1.27891e-148
1.59719e-155
3.85096e-161
2.01908e-178
0.999998
0.999993
0.999998
1
1
1
0.999999
0.998982
0.812022
0.209002
0.0119378
0.00078955
0.000119604
1.60599e-05
1.50886e-06
9.64159e-08
3.75898e-09
3.08879e-13
1.42535e-19
3.4343e-27
2.25506e-36
4.18147e-44
2.38212e-50
5.71463e-57
3.18088e-80
3.16088e-80
6.37578e-82
5.59135e-85
1.357e-89
5.75634e-93
4.13935e-97
1.87961e-101
1.32132e-108
2.67085e-112
1.61041e-118
1.33097e-125
1.2086e-135
2.87138e-148
4.40073e-155
1.64321e-160
8.67832e-177
1
0.999993
0.999998
1
1
1
1
0.999639
0.865609
0.264245
0.0161331
0.000891165
0.000120333
1.61493e-05
1.53741e-06
9.9746e-08
3.99286e-09
4.42549e-13
1.50215e-19
4.24704e-27
2.85377e-36
5.30717e-44
3.19861e-50
7.91519e-57
9.71984e-78
4.8024e-80
9.3353e-82
8.0264e-85
2.04982e-89
1.09121e-92
5.78293e-97
3.0171e-101
1.19444e-107
4.10625e-112
3.07726e-118
2.2576e-125
5.20356e-135
6.49365e-148
1.2194e-154
7.01909e-160
2.9953e-175
1
0.999992
0.999998
1
0.999999
1
1
0.999872
0.911865
0.332025
0.0225327
0.0010552
0.000122581
1.62823e-05
1.56591e-06
1.03097e-07
4.22629e-09
6.2672e-13
1.5783e-19
5.27312e-27
3.62759e-36
6.77841e-44
4.30477e-50
1.1083e-56
3.60992e-78
6.70245e-80
1.36974e-81
1.16396e-84
3.1089e-89
2.14227e-92
7.91421e-97
4.87677e-101
1.0351e-106
5.90504e-112
6.4326e-118
3.92612e-125
1.70497e-134
1.47506e-147
3.4011e-154
3.00171e-159
8.59188e-174
0.999999
0.999992
0.999998
1
0.999999
1
1
0.999969
0.948092
0.41235
0.0324109
0.00131487
0.000127201
1.65019e-05
1.59697e-06
1.06554e-07
4.46171e-09
8.75889e-13
1.65398e-19
6.5742e-27
4.6322e-36
8.71708e-44
5.80402e-50
1.56714e-56
7.22796e-78
9.58284e-80
2.05898e-81
1.70412e-84
4.73071e-89
4.22958e-92
1.06284e-96
7.91957e-101
6.59096e-106
8.03192e-112
1.42709e-117
7.44262e-125
4.38388e-134
3.35982e-147
9.57235e-154
1.28524e-158
2.11442e-172
0.999997
0.999992
0.999998
1
0.999999
1
0.999998
0.999998
0.97312
0.503201
0.0477405
0.00172169
0.000135362
1.68554e-05
1.63448e-06
1.10279e-07
4.70436e-09
1.20727e-12
1.73042e-19
8.23281e-27
5.9432e-36
1.12958e-43
7.83717e-50
2.23495e-56
1.56976e-77
1.37835e-79
3.1418e-81
2.51724e-84
7.21824e-89
8.2061e-92
1.40461e-96
1.28818e-100
3.00417e-105
1.04203e-111
3.2231e-117
1.603e-124
1.02553e-133
7.68172e-147
2.72763e-153
5.50892e-158
4.5858e-171
0.999997
0.999993
0.999998
1
0.999998
1
0.999998
0.999997
0.988041
0.60038
0.0714675
0.00237475
0.000149163
1.74056e-05
1.68292e-06
1.14503e-07
4.96263e-09
1.64111e-12
1.81003e-19
1.03608e-26
7.66429e-36
1.47625e-43
1.05968e-49
3.21025e-56
2.09149e-79
2.0588e-79
4.84716e-81
3.74904e-84
1.10401e-88
1.54234e-91
1.83551e-96
2.09183e-100
1.03343e-104
1.29811e-111
7.20795e-117
3.80012e-124
2.67278e-133
1.77345e-146
7.88885e-153
2.36288e-157
8.94652e-170
0.999998
0.999992
0.999998
1
0.999998
1
0.999998
0.999992
0.995674
0.698408
0.107805
0.00348487
0.000172512
1.82416e-05
1.74738e-06
1.19541e-07
5.24854e-09
2.20104e-12
1.89639e-19
1.31119e-26
9.9393e-36
1.94781e-43
1.43473e-49
4.63772e-56
1.66248e-77
3.61661e-79
7.42873e-81
5.62614e-84
1.69249e-88
2.78934e-91
2.39171e-96
3.38059e-100
2.87775e-104
1.56265e-111
1.58476e-116
9.07736e-124
9.14102e-133
4.19284e-146
2.31482e-152
1.01378e-156
1.59567e-168
0.999999
0.999993
0.999999
1
0.999998
1
0.999998
0.999998
0.998942
0.791447
0.162386
0.00545579
0.000212257
1.95316e-05
1.83584e-06
1.25825e-07
5.57875e-09
2.91474e-12
1.99421e-19
1.66995e-26
1.29699e-35
2.59747e-43
1.94544e-49
6.72903e-56
2.23409e-77
5.10582e-79
1.1007e-80
8.50291e-84
2.60131e-88
4.84665e-91
3.15393e-96
5.4234e-100
6.89358e-104
1.83348e-111
3.44468e-116
2.05555e-123
3.65319e-132
1.04584e-145
6.85848e-152
4.35196e-156
2.63637e-167
0.999999
0.999993
0.999999
1
0.999999
1
0.999998
0.999999
0.999799
0.872819
0.241587
0.00906813
0.000279994
2.1581e-05
1.96099e-06
1.33978e-07
5.97656e-09
3.81485e-12
2.10888e-19
2.14244e-26
1.7042e-35
3.50471e-43
2.64269e-49
9.79273e-56
3.71155e-77
7.50747e-79
1.67252e-80
1.29371e-83
4.01058e-88
8.10437e-91
4.31871e-96
8.62171e-100
1.48609e-103
2.13408e-111
7.44929e-116
4.45243e-123
1.32686e-131
2.99568e-145
2.03419e-151
1.87218e-155
4.07954e-166
1
0.999993
0.999999
1
0.999998
1
0.999998
0.999999
0.999975
0.934804
0.34992
0.0159982
0.000403613
2.49798e-05
2.14345e-06
1.44934e-07
6.47542e-09
4.94059e-12
2.24717e-19
2.77158e-26
2.25654e-35
4.78956e-43
3.59802e-49
1.4277e-55
1.16297e-76
1.07557e-78
2.566e-80
1.98136e-83
6.20762e-88
1.30882e-90
6.39921e-96
1.35704e-99
2.97615e-103
2.5855e-111
1.59854e-115
9.96384e-123