/*--------------------------------*- C++ -*----------------------------------*\
| =========                 |                                                 |
| \\      /  F ield         | OpenFOAM: The Open Source CFD Toolbox           |
|  \\    /   O peration     | Version:  v2006                                 |
|   \\  /    A nd           | Website:  www.openfoam.com                      |
|    \\/     M anipulation  |                                                 |
\*---------------------------------------------------------------------------*/
FoamFile
{
    version     2.0;
    format      ascii;
    class       volScalarField;
    location    "0.03";
    object      p;
}
// * * * * * * * * * * * * * * * * * * * * * * * * * * * * * * * * * * * * * //

dimensions      [1 -1 -2 0 0 0 0];


internalField   nonuniform List<scalar> 
3575
(
2e+06
2e+06
4471.97
1.99999e+06
2.00001e+06
2.00002e+06
2.00004e+06
2.00004e+06
1.99998e+06
2.00013e+06
2.00012e+06
2e+06
2.00002e+06
2.00012e+06
2.00014e+06
2.00015e+06
2.00015e+06
2.00014e+06
2.00014e+06
2.00003e+06
2.00006e+06
2.00012e+06
2.00013e+06
2.00013e+06
461480
2.00002e+06
2.00003e+06
2.00002e+06
2.00002e+06
2.00003e+06
2.00002e+06
2.00012e+06
1.99999e+06
2.00002e+06
2.0001e+06
2.00005e+06
2.00008e+06
2.00004e+06
354337
386151
2.00006e+06
388623
2.00006e+06
455434
2.00008e+06
2.00008e+06
100017
2.00012e+06
2.00001e+06
115655
97315.8
108192
2.00006e+06
104840
2.00006e+06
2.0001e+06
2.0001e+06
2.00005e+06
2.00005e+06
1.97543e+06
431094
2.00006e+06
115028
2.00006e+06
2.00006e+06
2.00001e+06
2.00006e+06
2.00015e+06
2.00002e+06
2.00013e+06
2.00005e+06
114727
141461
120812
2.00006e+06
82552.8
367221
1.99944e+06
2.00003e+06
2e+06
2.0001e+06
132940
2e+06
2e+06
351005
1.99992e+06
2.00001e+06
2.00007e+06
2.00011e+06
2.00007e+06
2.00005e+06
2.00008e+06
1.99999e+06
2e+06
2e+06
2.00002e+06
2.00008e+06
94755.2
2.00011e+06
2.00008e+06
2e+06
2.00001e+06
2.00008e+06
2.00002e+06
2.00003e+06
2.00004e+06
2.00003e+06
2.00005e+06
2.00002e+06
2.00001e+06
2.00002e+06
2.00002e+06
401817
435724
437407
359246
114311
370740
2.00014e+06
2.00011e+06
2.00002e+06
2.00014e+06
1.99985e+06
2.00011e+06
2.00013e+06
1.99988e+06
2.00004e+06
2.00005e+06
1.99998e+06
1.99987e+06
2.00005e+06
1.99972e+06
338566
1.99977e+06
2.00012e+06
89047.1
2.00013e+06
2.00012e+06
2.0001e+06
2.00012e+06
2.00014e+06
1.99986e+06
2.00015e+06
2e+06
2.0001e+06
353765
1.99988e+06
139082
134353
449411
91299.6
140746
134364
157469
156760
2.00006e+06
2.00002e+06
2.00003e+06
70599.6
2.00007e+06
2e+06
2e+06
1.99331e+06
2.00013e+06
2.00015e+06
2.00005e+06
928487
428644
344658
2.00004e+06
2.0001e+06
2.00007e+06
2.00014e+06
2.00004e+06
371429
1.99968e+06
2.00014e+06
2.00005e+06
119800
453129
155699
459906
1.99993e+06
2.00004e+06
2.00004e+06
2.00014e+06
2.00014e+06
2.00012e+06
2.00003e+06
2.00002e+06
2.00014e+06
2.00003e+06
2.00013e+06
1.99075e+06
2.00003e+06
2.00008e+06
2.00009e+06
2.00007e+06
2.00006e+06
1.99999e+06
424163
2.00014e+06
1.99995e+06
1.99995e+06
1.99977e+06
1.99983e+06
2.00014e+06
2.00014e+06
2.00013e+06
2.00014e+06
2.00006e+06
2.00006e+06
2.00006e+06
2.00006e+06
2.00006e+06
2.00013e+06
2.00013e+06
379361
1.99963e+06
2.00008e+06
1.66528e+06
2.00001e+06
2.00009e+06
72418.4
72889.1
2.00004e+06
2.00004e+06
2.00003e+06
2.00004e+06
2.00009e+06
2.00006e+06
1.99999e+06
2.00015e+06
2.00007e+06
2.00013e+06
2.00013e+06
1.99999e+06
2.00008e+06
2.00008e+06
2.00008e+06
2.00013e+06
2.00013e+06
88175.7
401148
2.00003e+06
2.00014e+06
2.00008e+06
2.00008e+06
2.00001e+06
88669.2
2.00001e+06
2e+06
2e+06
72587.6
2.00011e+06
2.00012e+06
2.00015e+06
2.00005e+06
1.99999e+06
228420
389588
134255
157866
2.00014e+06
2.00001e+06
2e+06
2e+06
2.00001e+06
2.00001e+06
2.00007e+06
2.00001e+06
2.00001e+06
2.00013e+06
2.00002e+06
2.00015e+06
2.00003e+06
2.00011e+06
2.00011e+06
2.00011e+06
2.00011e+06
1.99999e+06
2.00002e+06
2.00001e+06
1.99996e+06
1.99973e+06
92970.7
1.99997e+06
1.99999e+06
459043
67787
434302
71301.9
77180
75749.6
399451
2.00012e+06
384661
2.00012e+06
2.00012e+06
2.0001e+06
2.00002e+06
2.00003e+06
2.00006e+06
1.99826e+06
2.00011e+06
104125
2.00011e+06
2.00008e+06
2.00004e+06
2.00008e+06
2.00006e+06
2.00006e+06
2e+06
2.00001e+06
2.00006e+06
2.00001e+06
2.00003e+06
2.00005e+06
460259
113364
363825
2.0001e+06
2.00015e+06
2.00012e+06
2.00006e+06
2.00006e+06
2.00006e+06
2.00006e+06
2.00009e+06
2.00006e+06
2.00002e+06
2e+06
2564.43
421224
2.00002e+06
2.00008e+06
2.00005e+06
2.00006e+06
2.00004e+06
2.0001e+06
2.0001e+06
2.00013e+06
2.00014e+06
2.00011e+06
2.00006e+06
2.00014e+06
2.00007e+06
2.00008e+06
2.00008e+06
2.00008e+06
2.0001e+06
2.00009e+06
2.00011e+06
2.00003e+06
2.00006e+06
2.00005e+06
2.00004e+06
2.00007e+06
2.00005e+06
49685.3
61472.4
2.00004e+06
2.00004e+06
443461
1.99983e+06
2.00004e+06
1.88499e+06
2.00008e+06
89595.2
74482.9
2.00004e+06
2.00005e+06
2.00007e+06
89569.4
2.00003e+06
2e+06
2.00002e+06
2.00009e+06
2.00011e+06
2.00006e+06
2.00014e+06
2.00008e+06
2.00006e+06
2.00005e+06
2.00007e+06
2.00008e+06
2.00005e+06
2.00005e+06
2.00005e+06
2.00001e+06
2.00014e+06
2.00005e+06
2.00014e+06
2.00005e+06
2.00013e+06
2.00013e+06
2.00013e+06
2.00012e+06
2.00013e+06
2.00002e+06
2.00007e+06
2.00004e+06
357546
1.99999e+06
65718.8
489150
2e+06
2.00002e+06
2.00013e+06
2.00009e+06
2.00012e+06
2.00005e+06
2.00006e+06
68976.1
110531
86899.3
2.00005e+06
110244
2.00007e+06
2.00008e+06
2.00009e+06
2.00002e+06
2.00009e+06
2.00013e+06
2.0001e+06
2.00013e+06
367720
2.00003e+06
55553.7
2.00003e+06
2e+06
49942
2.00005e+06
2.00002e+06
2.00015e+06
2.00012e+06
2.00012e+06
2.00006e+06
2.00002e+06
2.00014e+06
2.00001e+06
2.00013e+06
2.00013e+06
2.00013e+06
2.00003e+06
2.00013e+06
2.00003e+06
2.00004e+06
2.00012e+06
2.00013e+06
2.00015e+06
2e+06
2.00004e+06
2.00002e+06
2e+06
2.00003e+06
2412.44
311273
2e+06
2e+06
2.00005e+06
2.00007e+06
2.00007e+06
2.00006e+06
2.00007e+06
2.00006e+06
2.00007e+06
2.00006e+06
2.00009e+06
2.00006e+06
139327
2.00011e+06
2.00005e+06
1.99999e+06
2.00005e+06
2.00011e+06
2.00005e+06
2.00006e+06
2.00005e+06
2.00007e+06
2.00011e+06
2e+06
2.00001e+06
1.99999e+06
2.00009e+06
2e+06
2.0001e+06
1.99999e+06
2.00014e+06
2.00006e+06
2e+06
2.00005e+06
2.00006e+06
87182.8
2.00006e+06
101423
114124
2.00006e+06
2.00006e+06
2.00007e+06
2.00015e+06
2.00015e+06
1008.61
18801
384689
2.00005e+06
2.00006e+06
2.00005e+06
2.00006e+06
104098
1.99975e+06
2.0001e+06
2.00013e+06
132503
2.00002e+06
2.00004e+06
2.00003e+06
2.00011e+06
2.00003e+06
2.00011e+06
2.00011e+06
2.00011e+06
434520
2.0001e+06
2.00011e+06
2.00006e+06
2e+06
2.00012e+06
2.00005e+06
2.00001e+06
2.00015e+06
63398.7
2.00013e+06
2.00009e+06
2.00011e+06
2.00013e+06
97377.6
2.00014e+06
80632.2
2.00013e+06
84825.5
88045.5
2.00009e+06
123181
2.00013e+06
2.00008e+06
2.00005e+06
2.00002e+06
2.00015e+06
2.00014e+06
109642
2.00013e+06
408019
2e+06
2e+06
2.00013e+06
2.00013e+06
2.00004e+06
2.00002e+06
2.00003e+06
2.00005e+06
142078
2.00005e+06
2.00009e+06
2.00009e+06
2.00001e+06
2.00009e+06
2.00005e+06
105582
2.00006e+06
2.00003e+06
2.00004e+06
2.00006e+06
2.00003e+06
1.99999e+06
2e+06
2e+06
2.00001e+06
2.00005e+06
2.00004e+06
2.00001e+06
2.00005e+06
2.00007e+06
2.00005e+06
2.00008e+06
2.00012e+06
128319
2.00011e+06
119192
360817
444341
112593
376723
101076
115991
378343
398999
393934
115801
2.00006e+06
2.00006e+06
2.00005e+06
2.00002e+06
2.00004e+06
2.00007e+06
2.00005e+06
188179
2.00006e+06
2.00004e+06
2.00005e+06
2.0001e+06
2.0001e+06
2.00011e+06
2.0001e+06
2.0001e+06
2.00012e+06
2.00012e+06
2.00002e+06
2.0001e+06
2.00003e+06
2.00008e+06
2.00005e+06
2.00006e+06
2.00012e+06
2.00001e+06
2.00007e+06
2.00008e+06
2.00009e+06
2.00008e+06
405696
2e+06
2.00001e+06
2.00001e+06
2.00001e+06
209055
2.00006e+06
1.99966e+06
2.00006e+06
2.00007e+06
2.00006e+06
1.99992e+06
1.99999e+06
2.00004e+06
2e+06
119284
2.00003e+06
2.00009e+06
2.00006e+06
296987
2.00004e+06
2.00004e+06
2.00005e+06
1.55638e+06
2.00005e+06
2.00004e+06
182092
1.99935e+06
1.99998e+06
2.00009e+06
1.99996e+06
1.99961e+06
2.00002e+06
451823
2.00007e+06
1.99988e+06
2.00007e+06
257709
2.00002e+06
366228
2.00007e+06
2.00012e+06
2.00012e+06
2.00012e+06
367161
2.00007e+06
2.00007e+06
2.00011e+06
1.99989e+06
2.0001e+06
2.00011e+06
2.00011e+06
2.00012e+06
2.00004e+06
2.00003e+06
2e+06
1.99999e+06
2e+06
108391
414419
2e+06
2.00003e+06
2.00001e+06
2.00002e+06
2e+06
342194
2e+06
355376
2.00006e+06
2.00012e+06
364275
360778
2.00002e+06
2.0001e+06
337759
2.00012e+06
2.00011e+06
2.00011e+06
1.99969e+06
2.00014e+06
2.0001e+06
2.00002e+06
459212
2.00008e+06
2.00007e+06
2.00007e+06
265431
2.00007e+06
2.00007e+06
2.00007e+06
65108.9
65453.4
2.00009e+06
50184.6
161477
2.00001e+06
439602
368179
2.00005e+06
352511
2e+06
449116
353560
338260
2.00004e+06
78654.4
2.00007e+06
2.00007e+06
2.00011e+06
2.00011e+06
2.0001e+06
2.00004e+06
2.00013e+06
2.00011e+06
2.00012e+06
1.99999e+06
399238
2.00003e+06
2.00004e+06
2.00001e+06
2.00005e+06
2.00003e+06
2.00006e+06
2.00004e+06
2.00004e+06
2.00006e+06
2.00005e+06
2.00009e+06
2.00009e+06
2.00003e+06
2.00009e+06
2.00004e+06
2.00004e+06
2.00007e+06
2.00005e+06
2.00005e+06
2.00008e+06
2.00005e+06
2.00013e+06
2.00013e+06
2.00013e+06
2.00015e+06
2.00002e+06
2.00015e+06
98075.1
2.00015e+06
2.00015e+06
2.00009e+06
2.00008e+06
2.00005e+06
2.00012e+06
2.00012e+06
2.00013e+06
2.00003e+06
2.00013e+06
361886
439898
2.00005e+06
443405
2.00005e+06
2.00004e+06
1.99999e+06
2.00004e+06
2.00005e+06
74746.5
2.00005e+06
1.99999e+06
2.00005e+06
50630.7
2.00003e+06
2.00005e+06
368986
1.99998e+06
2.00012e+06
2.00012e+06
2.00002e+06
2.00003e+06
2.00001e+06
2.00002e+06
2.00008e+06
2.00009e+06
2.00005e+06
2.00005e+06
86779.8
2.00003e+06
2.00003e+06
2.00004e+06
2.00004e+06
2.0001e+06
2.0001e+06
2.00005e+06
2.00011e+06
2.00003e+06
2.0001e+06
2.00006e+06
2.00006e+06
157627
357085
277358
392687
82237.7
2.00015e+06
436588
398619
81877.9
2.00011e+06
2.00013e+06
1.99999e+06
2.00008e+06
2.00013e+06
2.00014e+06
2.00015e+06
361704
2.00014e+06
2.00011e+06
406958
2.00005e+06
2.00005e+06
1.99999e+06
2.00004e+06
2.00003e+06
2.00004e+06
2.00007e+06
2.00004e+06
2.00001e+06
1.99999e+06
2.00004e+06
2.00005e+06
440642
2.00007e+06
2.00008e+06
444269
2.0001e+06
2.0001e+06
464085
361200
2.00001e+06
361245
2.00002e+06
2.00002e+06
2e+06
113140
2.00002e+06
2.00004e+06
90105.2
110954
425760
459377
2.00011e+06
-17430
2.00009e+06
416711
342357
2.00012e+06
2.00012e+06
2.0001e+06
457359
2.00012e+06
2.00012e+06
1.99695e+06
1.99999e+06
2.00005e+06
2.00004e+06
1.99999e+06
2e+06
2e+06
430384
2e+06
2e+06
91898
89746.2
162.804
6121.53
517354
346985
2.00002e+06
114519
2.00014e+06
412359
2.00003e+06
2.00005e+06
2.00006e+06
456993
2.00009e+06
2.00001e+06
2.00014e+06
2.00015e+06
2.00012e+06
2.00007e+06
351311
2.00006e+06
2.00002e+06
2.00009e+06
352309
413435
356425
343399
2e+06
2e+06
117561
2.00011e+06
128491
112028
2e+06
2.00005e+06
2.00009e+06
2e+06
2.00003e+06
2.00009e+06
2.00011e+06
2.00009e+06
2.00012e+06
2.00009e+06
2.00012e+06
2.00012e+06
2.00007e+06
2.00007e+06
2.00007e+06
2.00007e+06
2.00003e+06
2.00003e+06
2.00004e+06
2.00002e+06
2.00001e+06
2e+06
2e+06
2e+06
91363.4
2.00004e+06
2.00004e+06
2.00009e+06
96847.8
387759
92797.4
2.00012e+06
2.00006e+06
2.0001e+06
2.0001e+06
2.00012e+06
2.00015e+06
2.00012e+06
2.00004e+06
2.00012e+06
2.00011e+06
2.00004e+06
2.00009e+06
394366
2.00002e+06
2.00013e+06
2e+06
2.00014e+06
2.00002e+06
2.00004e+06
2.00014e+06
2.00014e+06
2.00014e+06
2.00007e+06
2.00007e+06
2.00007e+06
1.99484e+06
2.00007e+06
2.00009e+06
2.00006e+06
2.00005e+06
2.00014e+06
2.00005e+06
449380
2.00004e+06
2.00008e+06
2.00005e+06
396620
2.00008e+06
2.00005e+06
2.00004e+06
1.99999e+06
1.99999e+06
2.00004e+06
376859
340976
358893
1.99999e+06
403182
1.99999e+06
340713
109139
441914
111151
349398
60233.6
275849
1.99663e+06
1.99353e+06
1.99567e+06
2.00012e+06
2.00012e+06
2.00001e+06
2.00006e+06
2.00009e+06
2.00013e+06
2.00012e+06
2.00013e+06
2.00015e+06
2.00004e+06
1.99985e+06
2.00012e+06
2.00005e+06
1.99619e+06
2.00008e+06
100523
98836.9
65733.4
89078.3
84793.8
2.0001e+06
2.00011e+06
2.00011e+06
2.00011e+06
2.00005e+06
2.00005e+06
2.00004e+06
2.00005e+06
2.00013e+06
2.00007e+06
86152.2
413492
2.00015e+06
367201
2.00004e+06
2.00003e+06
2.00004e+06
2.00002e+06
2e+06
2.00009e+06
2.00014e+06
2.00009e+06
2.00006e+06
2.00003e+06
2.00006e+06
322319
2.00011e+06
2.00009e+06
2.00007e+06
2.00007e+06
2e+06
365360
127657
354639
2.00013e+06
403324
412704
2.00014e+06
2.00004e+06
2.00013e+06
2.00007e+06
2.00007e+06
2.00011e+06
2.00004e+06
2e+06
2.00004e+06
2.0001e+06
2.00009e+06
2.00013e+06
2.0001e+06
2.0001e+06
2.00004e+06
2.0001e+06
2.0001e+06
65282.3
2.0001e+06
2.00011e+06
2.00001e+06
48867
2.00002e+06
2.00005e+06
2.00001e+06
116363
2.00006e+06
2.00006e+06
2.00004e+06
2.00005e+06
2.00005e+06
2.00006e+06
2.00005e+06
1.99522e+06
2.00005e+06
2.00001e+06
2.00005e+06
2.00002e+06
2.00011e+06
2.00011e+06
2e+06
2.00005e+06
2.00003e+06
2.00006e+06
2.00011e+06
2.00003e+06
2.00003e+06
2.00003e+06
2.00007e+06
2.00005e+06
2e+06
2e+06
121597
2.00002e+06
2.00002e+06
73939.6
2.00003e+06
2.00003e+06
394559
122776
2.00004e+06
2.00012e+06
2.00012e+06
2.00007e+06
119940
2.00008e+06
2.00008e+06
2.00008e+06
2.00005e+06
2.00006e+06
121811
2.00007e+06
2.00008e+06
2.00008e+06
2.00008e+06
118013
2.00008e+06
2.00007e+06
2.00012e+06
2.00013e+06
2.00006e+06
120301
1.99999e+06
2.00005e+06
2.00001e+06
1.99999e+06
1.99999e+06
117594
485539
384558
2.00004e+06
106992
81248.1
2.00004e+06
2.00004e+06
2.00012e+06
2.00007e+06
2.0001e+06
2.00003e+06
2.00009e+06
2.00003e+06
2.00014e+06
2e+06
2.00008e+06
2.00005e+06
2.00005e+06
400145
2.00003e+06
2.00007e+06
2.00009e+06
2.00002e+06
2.00002e+06
66699.6
2.00007e+06
2.00005e+06
2.00006e+06
2.00006e+06
2.00005e+06
2657.79
227.332
2.00005e+06
2.00008e+06
9560.04
121367
2.00008e+06
2.00007e+06
2.00007e+06
2.00012e+06
2.00013e+06
2.00009e+06
2.00009e+06
126293
2.00003e+06
2.00004e+06
2.00004e+06
2.00003e+06
2.00004e+06
2.00003e+06
2.00009e+06
2.00009e+06
2.00015e+06
2.00013e+06
2.00006e+06
1.14292e+06
2.00005e+06
2.00003e+06
2.00004e+06
2.00007e+06
2.00008e+06
2.00015e+06
452278
2.0001e+06
2.0001e+06
2.0001e+06
2.00005e+06
2.00005e+06
2.00006e+06
2.00002e+06
2.00002e+06
2.00002e+06
1.99999e+06
2e+06
2.00003e+06
2.00001e+06
2.00002e+06
2e+06
2e+06
2.00007e+06
2.00007e+06
2.00005e+06
463511
2.00008e+06
2.00002e+06
1.9999e+06
2.00012e+06
2.00014e+06
2.00015e+06
2.00003e+06
406201
2.00011e+06
2.00009e+06
114811
264096
458738
509717
358949
486933
494011
332626
2.00008e+06
359349
364677
211467
2.00008e+06
2.00009e+06
2.00009e+06
2.00009e+06
2.00009e+06
2.00008e+06
2.00004e+06
2.00004e+06
2.00003e+06
2.00001e+06
2.00003e+06
2.00012e+06
2.00009e+06
366109
450958
149037
116555
2.00001e+06
2.00001e+06
2.00002e+06
367833
184065
76996.7
76731.9
53360.3
70095.5
451273
441476
2.00014e+06
2.00015e+06
2.00001e+06
2.00002e+06
409884
412698
409396
398154
442403
2.00006e+06
2.00002e+06
2.00015e+06
2.00015e+06
2.00008e+06
2.00013e+06
2.00013e+06
2.00014e+06
2.00006e+06
1.52219e+06
2.00014e+06
270348
2.00012e+06
117597
648847
1.99801e+06
399994
438014
373846
393472
393025
372184
370152
422538
406030
429222
449058
429666
354620
402757
88410.5
2.00008e+06
2.0001e+06
179910
107049
395423
113538
61431.5
106042
2.00005e+06
2.00005e+06
2.00005e+06
346359
2.00009e+06
2.00002e+06
2.00009e+06
2.00006e+06
2.00001e+06
2e+06
2.00001e+06
2.00004e+06
2.00009e+06
2.00006e+06
2.00007e+06
2e+06
2e+06
2.00003e+06
2.00003e+06
2.00008e+06
2.00012e+06
2.00012e+06
2.00015e+06
2.00013e+06
2.00014e+06
1.34805e+06
1.998e+06
1.9988e+06
1.99969e+06
2.00004e+06
2e+06
2.00001e+06
2.00006e+06
2e+06
2e+06
1.99999e+06
2.00012e+06
2.00003e+06
2.00014e+06
289997
2.00014e+06
1.24837e+06
2.00006e+06
6970.44
2.00014e+06
1.85532e+06
2.00013e+06
420687
206798
398074
303687
2.00006e+06
2.00014e+06
93416.9
2.00013e+06
1.99999e+06
2.00014e+06
454280
2.00009e+06
429618
2.00009e+06
306068
2.00006e+06
2.00006e+06
2.00015e+06
2.00008e+06
2.00004e+06
237832
2.00005e+06
133209
2.00003e+06
364528
2.00004e+06
2.00001e+06
2.00004e+06
2.00004e+06
355032
330583
94186.7
93683.7
103551
89800.3
415136
415134
2.00001e+06
384554
3249.66
291295
2.00006e+06
2.00006e+06
418958
2.00001e+06
2e+06
1.99999e+06
382047
449387
371096
407753
2.00012e+06
2.00012e+06
2.00012e+06
2.00012e+06
2.00014e+06
375540
1.99988e+06
1.99921e+06
1.99913e+06
1.99924e+06
1.99888e+06
2e+06
2.00001e+06
2e+06
1.99998e+06
2.00006e+06
2.00005e+06
1.99999e+06
2e+06
2e+06
2e+06
2e+06
2.00006e+06
2.00005e+06
2.00005e+06
2.00005e+06
2.00005e+06
2.00004e+06
2.00005e+06
2.00004e+06
2.00014e+06
2.00005e+06
2.00014e+06
426381
2.00009e+06
2.00014e+06
2.00007e+06
2.00014e+06
1.99997e+06
1.99994e+06
1.99969e+06
2.00014e+06
7359.53
2.0001e+06
305.144
4973.45
2.00002e+06
2.00006e+06
2.00006e+06
2406.45
2.00012e+06
2.00013e+06
360018
2.00013e+06
363952
1.99996e+06
357979
361547
383062
389171
400311
2.00007e+06
2.00006e+06
2.00006e+06
2.00007e+06
2.00012e+06
107879
110961
99953.4
2.00004e+06
936.552
386781
2.00012e+06
2.00002e+06
2.0001e+06
2.00009e+06
2.00008e+06
2.00004e+06
2.00015e+06
2e+06
2.00013e+06
2.00015e+06
2.00008e+06
2.0001e+06
2.00007e+06
2.00004e+06
2.00003e+06
2.00005e+06
2.00006e+06
2.00006e+06
2.00001e+06
2.00014e+06
1.99978e+06
2.00012e+06
2.00002e+06
2.00015e+06
2.00001e+06
2.00001e+06
2.00009e+06
2.00009e+06
347524
2.00011e+06
2.00011e+06
345875
1.9998e+06
2.00011e+06
2059.79
2e+06
1.99974e+06
2.00011e+06
1.9055e+06
2.00011e+06
390456
68349.4
328076
2.00013e+06
2.00015e+06
2.00014e+06
2.00011e+06
2.00011e+06
103243
106737
2.00009e+06
2e+06
115241
2.00005e+06
102831
117520
2.00002e+06
102434
2.00003e+06
2.00003e+06
2.00005e+06
2.00013e+06
2.00002e+06
2.00011e+06
2.00013e+06
2.00006e+06
2e+06
2.00009e+06
2.00009e+06
2.00011e+06
2.0001e+06
2.00007e+06
2.00008e+06
2.00004e+06
2.00007e+06
2.00006e+06
2.00005e+06
2.00001e+06
2.00001e+06
2.00004e+06
2.00004e+06
2.00005e+06
2.00006e+06
2.00006e+06
1.99996e+06
2.00006e+06
2.00008e+06
2.00006e+06
2.00006e+06
2.00006e+06
2.00008e+06
2.00006e+06
2.00006e+06
2.00002e+06
2.00003e+06
2e+06
2e+06
2.00003e+06
2.00007e+06
2.00001e+06
2.00007e+06
2.00005e+06
2.00006e+06
2.00006e+06
2.00005e+06
2.00005e+06
2.00001e+06
1.99996e+06
1.99994e+06
2.00001e+06
2.00003e+06
1.99997e+06
424251
2.00006e+06
2.00006e+06
2.00006e+06
2.00011e+06
457556
2.00013e+06
433567
416127
2.00013e+06
2.00011e+06
396848
2.00012e+06
348152
416354
2.00001e+06
2.00005e+06
464060
393439
82588.8
76792.3
89406.4
77256.5
2.00012e+06
2.00011e+06
2.00011e+06
1.99978e+06
2.00009e+06
1.98087e+06
2.00008e+06
2.00009e+06
2.00004e+06
2.00011e+06
2.00006e+06
2.00009e+06
2.00011e+06
2.00009e+06
2.00009e+06
2.0001e+06
2.00011e+06
2e+06
283075
2.00008e+06
2.0001e+06
2.00011e+06
1.99987e+06
2.00005e+06
2.00005e+06
2.00011e+06
2.0001e+06
2.0001e+06
2.0001e+06
2.00004e+06
2.00005e+06
104470
123920
122837
440761
122615
429369
378294
409764
1.7911e+06
1.99789e+06
456215
80468.5
65224.9
1.99375e+06
2.00002e+06
2.00002e+06
2.00001e+06
2.00008e+06
2.00004e+06
2.00005e+06
2.00005e+06
2.00004e+06
2e+06
2.00007e+06
2.00001e+06
2.00005e+06
2.00004e+06
2.00006e+06
2.0001e+06
2.00006e+06
2.00012e+06
2.00012e+06
1.99998e+06
2.00005e+06
1.99983e+06
2.00013e+06
2.00013e+06
2.00013e+06
2.00013e+06
2.00013e+06
2.00004e+06
1.99001e+06
2.00006e+06
1.99839e+06
2.00007e+06
2.00011e+06
2.0001e+06
2.0001e+06
2.0001e+06
2.0001e+06
2.0001e+06
2.00004e+06
2.00001e+06
2.00004e+06
2.00001e+06
2.00005e+06
357274
2.00001e+06
2.00005e+06
2.0001e+06
2.00006e+06
2.00006e+06
2.00006e+06
2.00006e+06
2.00001e+06
2.00001e+06
2.00002e+06
401581
2.00001e+06
2.00006e+06
2.00004e+06
2.00002e+06
2.00001e+06
2e+06
2.00001e+06
2.00001e+06
2.00001e+06
102479
100842
2.00004e+06
2.00015e+06
2.00004e+06
2.00004e+06
2.00011e+06
-75.1195
2.00006e+06
2.00005e+06
2.00003e+06
2.00008e+06
2.00008e+06
2.00005e+06
2.00002e+06
1.99999e+06
2.00003e+06
2.00009e+06
2.00007e+06
167297
113499
118537
1.99393e+06
1.9885e+06
2.00005e+06
2e+06
1.99743e+06
343009
351586
2.00001e+06
441371
449391
88586
91450.8
2.00002e+06
93603.4
86385.3
116520
119055
92976.7
124354
135302
457645
2.00004e+06
457458
174184
2.00002e+06
2.00002e+06
2.00008e+06
432027
2.00008e+06
2.00014e+06
2.00012e+06
384568
353038
1.99988e+06
385431
349238
424712
2.00008e+06
114794
109609
362950
2.00008e+06
2.0001e+06
2.0001e+06
83132.9
346977
2.00002e+06
2e+06
1.99999e+06
2e+06
2.00004e+06
2.00003e+06
2.00004e+06
2.00003e+06
2.00002e+06
2.00012e+06
2.00002e+06
2.00011e+06
2.00007e+06
2.00006e+06
2.00002e+06
2.00007e+06
2.00007e+06
2.00007e+06
2.00002e+06
2.00007e+06
2.00002e+06
453590
2.00001e+06
76939.4
2.00002e+06
63553.8
2.00002e+06
69505
66731.5
71734
2.00002e+06
2.00002e+06
2.00002e+06
2.00002e+06
1.99999e+06
2e+06
2.00004e+06
1.99999e+06
2.00009e+06
2e+06
2e+06
2e+06
2.00006e+06
2.00004e+06
2.00003e+06
2.00003e+06
2.00007e+06
2.00007e+06
2.00009e+06
2.00009e+06
2.0001e+06
2.00015e+06
2.00014e+06
2.00014e+06
2.00009e+06
2.00007e+06
1.99999e+06
2.00014e+06
2.00007e+06
1.99999e+06
2e+06
2.00003e+06
60798.9
2.00006e+06
2e+06
2.00007e+06
1.99974e+06
2.00008e+06
2.00007e+06
2.00007e+06
2.00007e+06
2.00002e+06
2.00004e+06
2.00007e+06
2.00007e+06
2.00006e+06
2.00015e+06
2.00014e+06
2.00015e+06
2.00004e+06
2.00005e+06
62995.7
44621.1
97552.3
70364.3
71996.5
94953.6
2.00014e+06
2.00014e+06
257662
424836
-17163
213026
2.00004e+06
2.00002e+06
2.00002e+06
2.00002e+06
2.00002e+06
1.99998e+06
2.00004e+06
2.00004e+06
2.00008e+06
2.00005e+06
2.00006e+06
2.00004e+06
1.99999e+06
1.99999e+06
2.00004e+06
1.9905e+06
1.99835e+06
1.99883e+06
1.98772e+06
433709
1.99915e+06
396132
1.99995e+06
1.99817e+06
2.00012e+06
2.00007e+06
2.00013e+06
2.0001e+06
2e+06
2.00013e+06
2.00001e+06
1.99997e+06
2.00001e+06
2.00003e+06
2.00009e+06
2.00003e+06
2.00003e+06
2.00006e+06
2.00004e+06
2.0001e+06
2.00003e+06
2.00006e+06
2.00003e+06
2e+06
1.99999e+06
2.00006e+06
2.00011e+06
2.00006e+06
2.00006e+06
2.0001e+06
2.0001e+06
2.0001e+06
2.00006e+06
2.00009e+06
2e+06
2.00006e+06
2.00003e+06
2.00002e+06
2.00006e+06
2.00001e+06
2.00005e+06
2.00001e+06
2.00001e+06
2.00009e+06
2.00003e+06
425764
2.00001e+06
70382.8
2.00004e+06
2.00009e+06
2.00005e+06
2.00003e+06
2.00009e+06
2.00006e+06
2.00008e+06
2.00011e+06
2.00011e+06
2.00007e+06
2.00007e+06
2e+06
2.00008e+06
2.0001e+06
2.00006e+06
2.00005e+06
2.00004e+06
2.00004e+06
2.00006e+06
1.99995e+06
65805.6
2.00005e+06
2.00005e+06
2.00006e+06
2.00002e+06
2.00002e+06
2.00007e+06
2.00007e+06
2.00004e+06
398850
110272
2.00005e+06
2.00008e+06
2.00008e+06
2.00009e+06
2.00009e+06
2.00008e+06
1.99994e+06
2.00002e+06
2.00007e+06
2.00009e+06
72587.8
51163.2
2.0001e+06
2.00012e+06
2.00008e+06
2.00006e+06
2.00006e+06
2.00006e+06
2.00005e+06
2.00008e+06
2.00007e+06
2.00007e+06
2.00008e+06
2.00007e+06
2.00008e+06
2.00006e+06
395755
2.00001e+06
2.00001e+06
2.00001e+06
2e+06
2e+06
2.00003e+06
2.00008e+06
2.00012e+06
2.00012e+06
2.00011e+06
2.00005e+06
2.00012e+06
2.00012e+06
2.00008e+06
2.00008e+06
2.00005e+06
2.00007e+06
2.00009e+06
2.00012e+06
2.00011e+06
2.00005e+06
2.00007e+06
1.99993e+06
2.00009e+06
2.00008e+06
347272
361253
2.00008e+06
2.00006e+06
2.00006e+06
44886.8
2.00005e+06
2.00005e+06
2.00005e+06
2.00003e+06
2.00005e+06
2.00005e+06
2.00003e+06
2.00004e+06
2.00005e+06
2.00005e+06
2.00006e+06
2.00006e+06
2.00009e+06
2.00006e+06
2.00008e+06
2.00004e+06
2.00007e+06
2.0001e+06
2.00011e+06
2.00009e+06
2.00008e+06
2.00008e+06
2.00005e+06
2.00006e+06
2.00006e+06
2.00007e+06
2.00008e+06
2.00007e+06
2.00009e+06
2.00006e+06
2.00003e+06
2.00002e+06
2.00001e+06
2.00003e+06
2.00006e+06
1.99996e+06
2.00006e+06
2.00002e+06
1.99994e+06
2.00005e+06
2.00003e+06
2.00003e+06
2.00009e+06
2.00009e+06
2.00004e+06
2.00004e+06
2.00004e+06
2.00004e+06
2.00005e+06
2.00009e+06
2.0001e+06
2.00008e+06
2.00009e+06
2.00003e+06
2.00003e+06
2.00003e+06
2.00003e+06
2.00009e+06
2.00008e+06
2.00003e+06
2.00003e+06
2.00003e+06
47420.6
2.00005e+06
1.99433e+06
1.99996e+06
1.99997e+06
1.99953e+06
2.00006e+06
1.99975e+06
343722
391180
2.00007e+06
358176
70057.5
2.00003e+06
2.00008e+06
2.00008e+06
2.0001e+06
2.00009e+06
2.00003e+06
2.00002e+06
2e+06
2.00001e+06
1.99999e+06
1.99976e+06
2.00006e+06
2.00011e+06
2.00003e+06
2.00004e+06
2.00005e+06
2.00011e+06
2.00011e+06
2.00012e+06
1.99879e+06
2.00007e+06
2.00008e+06
2.00007e+06
443367
53541.7
2.00009e+06
2.00009e+06
2.0001e+06
2.0001e+06
2.00011e+06
2.0001e+06
2.00011e+06
2.0001e+06
2.00008e+06
1.99999e+06
2e+06
2.00001e+06
163528
94196.4
2.00001e+06
2.00003e+06
2.00009e+06
2.00003e+06
2.00005e+06
2.00004e+06
2.00005e+06
2.00005e+06
2.0001e+06
2.00004e+06
2.00013e+06
2.00014e+06
2.00011e+06
2.00013e+06
2e+06
2.00001e+06
2.00006e+06
2.00006e+06
2.00015e+06
2.00006e+06
2.00002e+06
2.00013e+06
2.00013e+06
2.00002e+06
2.00001e+06
2.00006e+06
2.00002e+06
49533.2
442202
115934
113544
2.00007e+06
2.00005e+06
2.00006e+06
2.00013e+06
2.0001e+06
2.00011e+06
2.00012e+06
2.00013e+06
2.00002e+06
2e+06
2e+06
2.00004e+06
2.00003e+06
2.00005e+06
2.00011e+06
2.00011e+06
2.00011e+06
2.00012e+06
2.00006e+06
2.00003e+06
2.00007e+06
105169
2.00007e+06
2.00006e+06
2.00007e+06
2.00002e+06
1.99999e+06
2.00003e+06
2.00002e+06
2.00002e+06
2.00003e+06
2.00003e+06
2.00008e+06
2.00003e+06
2.00006e+06
2.00007e+06
2.00007e+06
2.00008e+06
73695.5
2.00003e+06
80937.7
78764.1
85800.8
2.00003e+06
56981.2
159078
41026.5
2.00003e+06
2.00007e+06
2.00004e+06
2.00003e+06
2.00003e+06
2e+06
2.00008e+06
446811
497188
1.99998e+06
2.00013e+06
2.00012e+06
363136
431659
431578
2.00007e+06
2.00007e+06
2.00006e+06
23214.3
47647.6
81375.8
371341
448757
2.00003e+06
1.99999e+06
2.00003e+06
2.00003e+06
2e+06
2e+06
2.00001e+06
2.00008e+06
2.00001e+06
2.00014e+06
2.00007e+06
2.00002e+06
2.00002e+06
2.00013e+06
2.00014e+06
2.00014e+06
1.99999e+06
1.99999e+06
2.00001e+06
369262
112446
2.00007e+06
2.00011e+06
2.00009e+06
2.0001e+06
2.00013e+06
2.0001e+06
2.00002e+06
99250.7
78625
117443
2.00007e+06
98165.3
2.00014e+06
2.00002e+06
2.00002e+06
2.00006e+06
2.00002e+06
1.99999e+06
2.00005e+06
1.99974e+06
460452
468029
2.0001e+06
2.00002e+06
2.00005e+06
2.00002e+06
2.00005e+06
487876
2.00002e+06
2.00008e+06
333759
352222
347207
2.00008e+06
2.00008e+06
89610.7
13313
1.99949e+06
1.99972e+06
2.00002e+06
2.00002e+06
2.00008e+06
2.00008e+06
2.00008e+06
2.0001e+06
2.00013e+06
2.00013e+06
2.00009e+06
2.00001e+06
2.0001e+06
364551
2.00002e+06
416213
362590
2.00002e+06
2.00004e+06
2.00001e+06
2.00001e+06
443150
2.00008e+06
2.00008e+06
2.00007e+06
2.00008e+06
2.00006e+06
2.0001e+06
2.00007e+06
2.00007e+06
2.0001e+06
2.00007e+06
2.00007e+06
360293
2.00009e+06
2.00008e+06
2.00005e+06
2.00007e+06
2.00007e+06
2.00007e+06
2.00007e+06
2.00007e+06
2.00011e+06
347868
349453
347863
362036
446048
2.00005e+06
445497
2.00003e+06
1.99999e+06
1.99999e+06
1.99999e+06
401644
1.99999e+06
2.00012e+06
488254
421269
461577
2.00012e+06
2.00005e+06
2.00012e+06
2.0001e+06
2.00009e+06
2.00009e+06
305707
398915
278435
1.99989e+06
353014
2.00012e+06
2.00011e+06
1.9999e+06
371630
2.00014e+06
1.99968e+06
1.99925e+06
2.00014e+06
1.99921e+06
1.99984e+06
2.00014e+06
388742
2.00015e+06
2.00014e+06
1.99969e+06
1.99976e+06
2.00011e+06
363156
2.0001e+06
2.00004e+06
2.0001e+06
2.0001e+06
2.00004e+06
2.00002e+06
2.00001e+06
2.00001e+06
2.00001e+06
2.00004e+06
2.00003e+06
2.00002e+06
108768
2.00001e+06
1.99999e+06
2.00012e+06
115114
119496
115667
2.00012e+06
112126
2.00001e+06
2.00005e+06
2.00008e+06
2.00006e+06
2.00008e+06
2.00003e+06
2.00005e+06
2.00001e+06
2e+06
2.00002e+06
2.00002e+06
2e+06
366040
423287
112973
2.0001e+06
2.00009e+06
2.00008e+06
2.00015e+06
249665
106613
2.00013e+06
2.00014e+06
56430.3
2.00004e+06
412143
2.0001e+06
2.0001e+06
2.00008e+06
2.00011e+06
58637.2
2.0001e+06
2.00008e+06
2.00012e+06
459791
464031
2e+06
365697
2.00002e+06
2.00003e+06
2.00003e+06
363033
2.00003e+06
2.00003e+06
2.00006e+06
2.00006e+06
2.00015e+06
2.00006e+06
2.00006e+06
2.00006e+06
460061
407308
429134
410756
447627
2.00005e+06
2.00003e+06
2.00003e+06
2.0001e+06
2.0001e+06
2.00003e+06
2.0001e+06
2.00011e+06
2.00002e+06
2.00001e+06
2.00002e+06
2.00002e+06
2.00001e+06
2.00014e+06
2.00014e+06
2.00014e+06
2.00014e+06
2.00015e+06
2.00014e+06
2.00009e+06
2.00008e+06
2.00009e+06
438871
2.0001e+06
2.00012e+06
2.00004e+06
387834
444282
446763
2.00011e+06
2.00003e+06
421275
489806
2.00009e+06
466448
353251
399934
1.99991e+06
2.00011e+06
424963
2.00005e+06
2.0001e+06
370307
342920
2.0001e+06
408546
2.00011e+06
412169
78276
2.00005e+06
2.00011e+06
2.00011e+06
2.00011e+06
2.00007e+06
2e+06
2.00013e+06
2.00005e+06
2.00003e+06
2.00002e+06
2e+06
2.00003e+06
2e+06
2.00001e+06
2.00001e+06
1.99999e+06
2.00001e+06
2.00001e+06
216504
2e+06
2e+06
1.99999e+06
2e+06
368202
195244
249116
378808
2.00005e+06
2.00004e+06
2.00004e+06
2.00007e+06
2.00007e+06
2.00005e+06
385080
393762
87691.7
2.00008e+06
2.00006e+06
331904
389607
2.00013e+06
2.0001e+06
2.00012e+06
2.00014e+06
2.00001e+06
2.00001e+06
2.00001e+06
2.00001e+06
55747
64743.2
2.00009e+06
57935.5
2.00007e+06
2.00007e+06
2.00002e+06
2.00013e+06
2.00013e+06
2.00014e+06
2.00008e+06
2.00004e+06
2.00006e+06
2.00003e+06
2.00003e+06
2.0001e+06
2.0001e+06
2.00003e+06
2.00007e+06
1.99496e+06
2.00003e+06
1.99855e+06
1.99939e+06
2.00007e+06
2.00009e+06
2.00005e+06
2.00011e+06
2.00014e+06
2.00002e+06
2.00008e+06
2.00007e+06
2.00003e+06
2.00003e+06
2.00003e+06
2.00011e+06
2.00011e+06
2.00006e+06
2.00007e+06
2.00004e+06
54766.1
2.00002e+06
2.00003e+06
2.00003e+06
2.00003e+06
2.00007e+06
2.0001e+06
2.00011e+06
2.0001e+06
2.00011e+06
439519
2.00006e+06
1.99987e+06
390222
2.00006e+06
344404
2.00007e+06
2e+06
2.00004e+06
2.00009e+06
2.00007e+06
2e+06
2.00003e+06
2.00006e+06
2.00005e+06
2.00007e+06
2.00005e+06
2.00013e+06
2.00008e+06
2.00005e+06
2.00004e+06
2.00003e+06
2.00003e+06
2.00009e+06
-16081.3
2.00014e+06
2.00006e+06
2.0001e+06
2.00009e+06
2.00009e+06
2e+06
2e+06
1.99868e+06
1.99913e+06
2.00014e+06
2.00006e+06
2.00007e+06
2e+06
2.00002e+06
2e+06
2.00002e+06
103754
94831.1
98095.9
90863.9
442502
404655
46436.6
410293
2.00014e+06
350473
2.00006e+06
66262.7
62694.5
2.00007e+06
2.00007e+06
2.00006e+06
2.00002e+06
2.00006e+06
2.00014e+06
1.99884e+06
1.99926e+06
2.00011e+06
448792
2.00012e+06
414054
2.00002e+06
2.00001e+06
2.00001e+06
103199
2.00002e+06
116935
2.00006e+06
137893
59661.4
2.00006e+06
2.00006e+06
331882