/*--------------------------------*- C++ -*----------------------------------*\
| =========                 |                                                 |
| \\      /  F ield         | OpenFOAM: The Open Source CFD Toolbox           |
|  \\    /   O peration     | Version:  v2006                                 |
|   \\  /    A nd           | Website:  www.openfoam.com                      |
|    \\/     M anipulation  |                                                 |
\*---------------------------------------------------------------------------*/
FoamFile
{
    version     2.0;
    format      ascii;
    class       volScalarField;
    location    "0.03";
    object      p_rgh;
}
// * * * * * * * * * * * * * * * * * * * * * * * * * * * * * * * * * * * * * //

dimensions      [1 -1 -2 0 0 0 0];


internalField   nonuniform List<scalar> 
3575
(
2.00031e+06
2.00031e+06
4818.08
2.00031e+06
2.00031e+06
2.00031e+06
2.0003e+06
2.00031e+06
2.00018e+06
2.0003e+06
2.0003e+06
2.00031e+06
2.00023e+06
2.0003e+06
2.00031e+06
2.00031e+06
2.00031e+06
2.00031e+06
2.00031e+06
2.0002e+06
2.00023e+06
2.0003e+06
2.00031e+06
2.00031e+06
320391
2.00031e+06
2.00031e+06
2.00031e+06
2.00031e+06
2.00031e+06
2.00031e+06
2.0003e+06
2.00031e+06
2.0003e+06
2.0003e+06
2.00021e+06
2.00024e+06
2.00021e+06
280007
294774
2.00031e+06
325391
2.0003e+06
327392
2.00031e+06
2.0003e+06
101738
2.00031e+06
2.00031e+06
96837.4
99864.8
109458
2.0003e+06
107798
2.00028e+06
2.0003e+06
2.00028e+06
2.0003e+06
2.00026e+06
1.97564e+06
407648
2.00026e+06
114416
2.00029e+06
2.00029e+06
2.00031e+06
2.00029e+06
2.00031e+06
2.00031e+06
2.00031e+06
2.00026e+06
119426
133068
119429
2.00029e+06
86543
195419
1.99962e+06
2.00031e+06
2.00031e+06
2.0003e+06
125595
2.00031e+06
2.00031e+06
278881
2.0001e+06
2.00031e+06
2.0003e+06
2.0003e+06
2.00031e+06
2.00031e+06
2.00031e+06
2.00031e+06
2.00031e+06
2.00031e+06
2.00031e+06
2.0003e+06
99188.9
2.00031e+06
2.00031e+06
2.00031e+06
2.00031e+06
2.0003e+06
2.00031e+06
2.00031e+06
2.0003e+06
2.0003e+06
2.00031e+06
2.00031e+06
2.00031e+06
2.0003e+06
2.00031e+06
283908
320709
322364
254989
114395
265899
2.00031e+06
2.00031e+06
2.00031e+06
2.00031e+06
2.00002e+06
2.0003e+06
2.00029e+06
2.00005e+06
2.0002e+06
2.00022e+06
2.00014e+06
2.00004e+06
2.0003e+06
1.9999e+06
270478
1.99995e+06
2.0003e+06
95155.6
2.00031e+06
2.00031e+06
2.0003e+06
2.00031e+06
2.00031e+06
2.00003e+06
2.00031e+06
2.00031e+06
2.00029e+06
287406
2.00006e+06
124078
125474
320044
96181
129099
124208
139460
150270
2.0003e+06
2.00031e+06
2.00031e+06
81451.9
2.0003e+06
2.00031e+06
2.00031e+06
1.99349e+06
2.0003e+06
2.00031e+06
2.0003e+06
928511
397354
240667
2.00031e+06
2.0003e+06
2.0003e+06
2.00031e+06
2.0003e+06
303704
1.99986e+06
2.00031e+06
2.0003e+06
121202
429630
150417
319051
2.00013e+06
2.0003e+06
2.00031e+06
2.0003e+06
2.00031e+06
2.0003e+06
2.00031e+06
2.00031e+06
2.00031e+06
2.00031e+06
2.00031e+06
1.99093e+06
2.0003e+06
2.0003e+06
2.0003e+06
2.0003e+06
2.0003e+06
2.00018e+06
272561
2.00031e+06
2.00015e+06
2.00015e+06
1.99998e+06
2.00004e+06
2.0003e+06
2.0003e+06
2.0003e+06
2.0003e+06
2.00031e+06
2.0003e+06
2.00031e+06
2.0003e+06
2.0003e+06
2.0003e+06
2.00031e+06
208237
1.99981e+06
2.0003e+06
1.66534e+06
2.00031e+06
2.0003e+06
81364
81358.4
2.0003e+06
2.0003e+06
2.0003e+06
2.0003e+06
2.0003e+06
2.0003e+06
2.00031e+06
2.00031e+06
2.0003e+06
2.00031e+06
2.00031e+06
2.00019e+06
2.00031e+06
2.0003e+06
2.0003e+06
2.0003e+06
2.0003e+06
93692.4
303660
2.00031e+06
2.00031e+06
2.0003e+06
2.00029e+06
2.00031e+06
92026.9
2.00031e+06
2.00031e+06
2.00031e+06
80606.2
2.00031e+06
2.0003e+06
2.00031e+06
2.0003e+06
2.00031e+06
172073
214936
131585
138896
2.00031e+06
2.00031e+06
2.00031e+06
2.00031e+06
2.00031e+06
2.00031e+06
2.0003e+06
2.00031e+06
2.00031e+06
2.00031e+06
2.00031e+06
2.00031e+06
2.00031e+06
2.00031e+06
2.0003e+06
2.0003e+06
2.0003e+06
2.00031e+06
2.00022e+06
2.00021e+06
2.00014e+06
1.99991e+06
97470.2
2.00015e+06
2.00031e+06
327181
76478.6
300890
79535.8
84520.2
83243.8
310331
2.00031e+06
294997
2.0003e+06
2.00031e+06
2.0003e+06
2.00031e+06
2.00031e+06
2.0003e+06
1.99844e+06
2.00031e+06
106811
2.00029e+06
2.0003e+06
2.0003e+06
2.00029e+06
2.00025e+06
2.00027e+06
2.00031e+06
2.00031e+06
2.00029e+06
2.00031e+06
2.00031e+06
2.0003e+06
314030
113755
254645
2.00031e+06
2.00031e+06
2.0003e+06
2.00031e+06
2.0003e+06
2.0003e+06
2.00031e+06
2.0003e+06
2.0003e+06
2.00031e+06
2.00031e+06
2626.77
293048
2.00031e+06
2.00031e+06
2.0003e+06
2.0003e+06
2.00031e+06
2.00031e+06
2.00031e+06
2.00031e+06
2.00031e+06
2.0003e+06
2.0003e+06
2.00031e+06
2.0003e+06
2.0003e+06
2.0003e+06
2.0003e+06
2.0003e+06
2.0003e+06
2.00028e+06
2.0003e+06
2.0003e+06
2.00022e+06
2.0003e+06
2.0003e+06
2.0003e+06
61271.8
71265
2.00031e+06
2.0003e+06
287583
2.00001e+06
2.0003e+06
1.88515e+06
2.0003e+06
95574
82607.1
2.00031e+06
2.0003e+06
2.00031e+06
95489.3
2.00031e+06
2.00031e+06
2.0003e+06
2.0003e+06
2.00031e+06
2.0003e+06
2.00031e+06
2.0003e+06
2.00031e+06
2.0003e+06
2.0003e+06
2.00028e+06
2.0003e+06
2.0003e+06
2.00031e+06
2.00031e+06
2.0003e+06
2.0003e+06
2.0003e+06
2.00031e+06
2.00031e+06
2.00031e+06
2.0003e+06
2.0003e+06
2.0003e+06
2.00031e+06
2.0003e+06
2.00031e+06
252583
2.00019e+06
74924.1
341713
2.00031e+06
2.00031e+06
2.00031e+06
2.0003e+06
2.0003e+06
2.0003e+06
2.00029e+06
77829.6
111024
93139.6
2.00025e+06
111894
2.00023e+06
2.00026e+06
2.00026e+06
2.00031e+06
2.0003e+06
2.00031e+06
2.0003e+06
2.00031e+06
254573
2.00031e+06
66144.6
2.0003e+06
2.00031e+06
61524.3
2.00031e+06
2.00031e+06
2.00031e+06
2.00031e+06
2.00031e+06
2.0003e+06
2.00031e+06
2.00031e+06
2.00031e+06
2.00031e+06
2.0003e+06
2.00031e+06
2.00031e+06
2.00031e+06
2.0003e+06
2.00031e+06
2.00031e+06
2.00031e+06
2.00031e+06
2.00031e+06
2.0003e+06
2.00031e+06
2.00031e+06
2.00031e+06
2495.32
310100
2.00031e+06
2.00031e+06
2.00025e+06
2.00027e+06
2.00027e+06
2.00026e+06
2.00027e+06
2.0003e+06
2.0003e+06
2.0003e+06
2.0003e+06
2.0003e+06
121584
2.0003e+06
2.0003e+06
2.00031e+06
2.0003e+06
2.00031e+06
2.0003e+06
2.00029e+06
2.00027e+06
2.00029e+06
2.00028e+06
2.00031e+06
2.00031e+06
2.00031e+06
2.0003e+06
2.00031e+06
2.0003e+06
2.00031e+06
2.00031e+06
2.0003e+06
2.00031e+06
2.00031e+06
2.0003e+06
92860.3
2.00031e+06
104599
114561
2.0003e+06
2.0003e+06
2.0003e+06
2.00031e+06
2.00031e+06
916.386
20206.7
208876
2.0003e+06
2.0003e+06
2.0003e+06
2.0003e+06
106734
1.99993e+06
2.00029e+06
2.00031e+06
126387
2.00031e+06
2.0003e+06
2.00031e+06
2.0003e+06
2.0003e+06
2.00029e+06
2.00029e+06
2.00029e+06
378537
2.0003e+06
2.00029e+06
2.0003e+06
2.00031e+06
2.00029e+06
2.0003e+06
2.00031e+06
2.00031e+06
72918.8
2.00031e+06
2.00026e+06
2.00027e+06
2.0003e+06
101275
2.00031e+06
87571
2.00031e+06
91030.3
93722.7
2.0003e+06
119220
2.00031e+06
2.0003e+06
2.0003e+06
2.00031e+06
2.00031e+06
2.0003e+06
111353
2.0003e+06
342881
2.00032e+06
2.00032e+06
2.0003e+06
2.0003e+06
2.00031e+06
2.00031e+06
2.0003e+06
2.0003e+06
133738
2.0003e+06
2.00027e+06
2.00029e+06
2.00031e+06
2.00026e+06
2.0003e+06
108304
2.00027e+06
2.00023e+06
2.00024e+06
2.00028e+06
2.0003e+06
2.00031e+06
2.00031e+06
2.00031e+06
2.00031e+06
2.0003e+06
2.00031e+06
2.00031e+06
2.0003e+06
2.0003e+06
2.00031e+06
2.0003e+06
2.0003e+06
122948
2.00029e+06
116617
189464
327458
114756
309532
104344
114953
306808
338156
332680
114790
2.0003e+06
2.0003e+06
2.0003e+06
2.00031e+06
2.0003e+06
2.00031e+06
2.0003e+06
153297
2.0003e+06
2.0003e+06
2.0003e+06
2.0003e+06
2.0003e+06
2.00031e+06
2.0003e+06
2.0003e+06
2.0003e+06
2.0003e+06
2.0003e+06
2.00028e+06
2.00031e+06
2.0003e+06
2.0003e+06
2.00031e+06
2.0003e+06
2.00021e+06
2.00029e+06
2.0003e+06
2.00031e+06
2.00028e+06
316775
2.00031e+06
2.00031e+06
2.00031e+06
2.00031e+06
161934
2.00025e+06
1.99983e+06
2.0003e+06
2.0003e+06
2.0003e+06
2.00009e+06
2.00031e+06
2.00031e+06
2.00031e+06
117864
2.00031e+06
2.00028e+06
2.0003e+06
176202
2.0003e+06
2.0003e+06
2.0003e+06
1.55645e+06
2.0003e+06
2.00031e+06
150433
1.99952e+06
2.00016e+06
2.00031e+06
2.00013e+06
1.99978e+06
2.00022e+06
312652
2.00029e+06
2.00005e+06
2.00029e+06
171170
2.00031e+06
253594
2.00029e+06
2.00031e+06
2.00031e+06
2.00031e+06
359734
2.00029e+06
2.00029e+06
2.0003e+06
2.00006e+06
2.0003e+06
2.0003e+06
2.0003e+06
2.0003e+06
2.0003e+06
2.0003e+06
2.00031e+06
2.00031e+06
2.00032e+06
110634
398600
2.00031e+06
2.00031e+06
2.00031e+06
2.00031e+06
2.00032e+06
271087
2.00031e+06
286046
2.0003e+06
2.0003e+06
259600
256096
2.00031e+06
2.0003e+06
234291
2.0003e+06
2.0003e+06
2.0003e+06
1.99986e+06
2.00031e+06
2.0003e+06
2.00031e+06
326730
2.0003e+06
2.0003e+06
2.0003e+06
201441
2.0003e+06
2.00024e+06
2.00024e+06
74182.8
74659.4
2.0003e+06
61655.8
151810
2.00031e+06
317452
362654
2.0003e+06
284161
2.00031e+06
320587
182031
269828
2.0002e+06
86335
2.00028e+06
2.00024e+06
2.0003e+06
2.0003e+06
2.00028e+06
2.00024e+06
2.0003e+06
2.0003e+06
2.0003e+06
2.00031e+06
340395
2.00031e+06
2.00031e+06
2.00031e+06
2.0003e+06
2.00031e+06
2.0003e+06
2.00031e+06
2.0003e+06
2.0003e+06
2.00031e+06
2.0003e+06
2.0003e+06
2.0003e+06
2.0003e+06
2.00031e+06
2.00031e+06
2.0003e+06
2.00031e+06
2.0003e+06
2.0003e+06
2.0003e+06
2.0003e+06
2.00031e+06
2.0003e+06
2.00031e+06
2.00031e+06
2.00031e+06
101970
2.00031e+06
2.00031e+06
2.00026e+06
2.00025e+06
2.0003e+06
2.0003e+06
2.0003e+06
2.0003e+06
2.00031e+06
2.0003e+06
178308
323680
2.00031e+06
327964
2.00031e+06
2.0003e+06
2.00031e+06
2.00021e+06
2.00024e+06
81490.2
2.0003e+06
2.00031e+06
2.0003e+06
62367.7
2.00025e+06
2.00026e+06
269601
2.00015e+06
2.00029e+06
2.00031e+06
2.00031e+06
2.00031e+06
2.00031e+06
2.00031e+06
2.0003e+06
2.0003e+06
2.0003e+06
2.0003e+06
93113.5
2.00031e+06
2.00031e+06
2.0003e+06
2.0003e+06
2.0003e+06
2.0003e+06
2.0003e+06
2.0003e+06
2.00031e+06
2.00027e+06
2.0003e+06
2.0003e+06
134790
187821
205126
234133
87816.4
2.00031e+06
286734
311115
88449.7
2.00029e+06
2.00031e+06
2.00015e+06
2.00029e+06
2.0003e+06
2.00031e+06
2.00031e+06
282084
2.00031e+06
2.00031e+06
247216
2.0003e+06
2.00031e+06
2.00031e+06
2.00031e+06
2.00031e+06
2.00031e+06
2.00031e+06
2.0003e+06
2.00031e+06
2.00031e+06
2.0003e+06
2.0003e+06
284721
2.00031e+06
2.0003e+06
310618
2.0003e+06
2.0003e+06
328276
246686
2.0003e+06
246779
2.00031e+06
2.00031e+06
2.00031e+06
113337
2.0003e+06
2.0003e+06
87745.8
115991
274233
318950
2.0003e+06
1231.83
2.00025e+06
406045
271996
2.00029e+06
2.00029e+06
2.00027e+06
433626
2.00029e+06
2.00029e+06
1.99713e+06
2.00031e+06
2.0003e+06
2.00031e+06
2.00031e+06
2.00031e+06
2.00031e+06
300467
2.00031e+06
2.00031e+06
93684.1
87297.5
268.233
6118.87
326925
184085
2.00031e+06
115374
2.00031e+06
292975
2.00031e+06
2.00027e+06
2.00029e+06
315586
2.00031e+06
2.00031e+06
2.00031e+06
2.00031e+06
2.00029e+06
2.00031e+06
363301
2.0003e+06
2.00031e+06
2.0003e+06
280885
295674
285599
252987
2.00032e+06
2.00032e+06
116733
2.0003e+06
124044
114113
2.00031e+06
2.0003e+06
2.00031e+06
2.00031e+06
2.00031e+06
2.0003e+06
2.0003e+06
2.00031e+06
2.00031e+06
2.00031e+06
2.00031e+06
2.0003e+06
2.0003e+06
2.00031e+06
2.0003e+06
2.00031e+06
2.0003e+06
2.0003e+06
2.00031e+06
2.00031e+06
2.00031e+06
2.00031e+06
2.00031e+06
2.00031e+06
97342.6
2.0003e+06
2.0003e+06
2.0003e+06
100349
293867
97754.4
2.0003e+06
2.00031e+06
2.0003e+06
2.00031e+06
2.00029e+06
2.00031e+06
2.00029e+06
2.00031e+06
2.0003e+06
2.0003e+06
2.00031e+06
2.00031e+06
301485
2.00031e+06
2.00031e+06
2.00031e+06
2.00031e+06
2.00031e+06
2.00031e+06
2.00031e+06
2.00031e+06
2.00031e+06
2.0003e+06
2.0003e+06
2.0003e+06
1.99502e+06
2.00025e+06
2.00027e+06
2.00029e+06
2.0003e+06
2.00031e+06
2.0003e+06
302369
2.0003e+06
2.00031e+06
2.0003e+06
283234
2.00031e+06
2.0003e+06
2.0003e+06
2.00031e+06
2.00031e+06
2.00031e+06
285633
265462
288037
2.00031e+06
313704
2.00031e+06
264344
111976
288254
114069
352978
72276.9
295210
1.9968e+06
1.99371e+06
1.99587e+06
2.0003e+06
2.0003e+06
2.00031e+06
2.00027e+06
2.0003e+06
2.00031e+06
2.0003e+06
2.00031e+06
2.00031e+06
2.00023e+06
2.00003e+06
2.0003e+06
2.0003e+06
1.99637e+06
2.0003e+06
103894
102358
74749.1
94110.2
90746.5
2.0003e+06
2.00031e+06
2.0003e+06
2.00031e+06
2.00031e+06
2.00031e+06
2.00031e+06
2.0003e+06
2.0003e+06
2.00026e+06
92986
296382
2.00031e+06
359782
2.0003e+06
2.00031e+06
2.0003e+06
2.00031e+06
2.00031e+06
2.0003e+06
2.0003e+06
2.00031e+06
2.00031e+06
2.00031e+06
2.0003e+06
329201
2.0003e+06
2.00029e+06
2.00028e+06
2.00028e+06
2.00031e+06
203337
119935
250979
2.0003e+06
370643
395249
2.00031e+06
2.00031e+06
2.0003e+06
2.00031e+06
2.00031e+06
2.0003e+06
2.0003e+06
2.00031e+06
2.0003e+06
2.0003e+06
2.00027e+06
2.0003e+06
2.0003e+06
2.0003e+06
2.0003e+06
2.00029e+06
2.00029e+06
75439.6
2.00029e+06
2.0003e+06
2.00031e+06
60673.3
2.00031e+06
2.0003e+06
2.00031e+06
120102
2.0003e+06
2.0003e+06
2.00031e+06
2.0003e+06
2.0003e+06
2.0003e+06
2.0003e+06
1.99539e+06
2.0003e+06
2.00031e+06
2.0003e+06
2.00031e+06
2.0003e+06
2.0003e+06
2.00018e+06
2.0003e+06
2.0003e+06
2.0003e+06
2.0003e+06
2.00031e+06
2.00031e+06
2.00031e+06
2.0003e+06
2.00031e+06
2.00031e+06
2.00031e+06
120556
2.00031e+06
2.00031e+06
82313.3
2.0002e+06
2.00021e+06
227695
120736
2.00022e+06
2.00031e+06
2.00031e+06
2.0003e+06
120331
2.0003e+06
2.0003e+06
2.0003e+06
2.0003e+06
2.00031e+06
122910
2.0003e+06
2.0003e+06
2.0003e+06
2.0003e+06
115530
2.0003e+06
2.0003e+06
2.00031e+06
2.00029e+06
2.00031e+06
118548
2.00031e+06
2.00031e+06
2.00031e+06
2.00031e+06
2.00031e+06
120692
357255
289400
2.0003e+06
109253
87418.4
2.0003e+06
2.0003e+06
2.0003e+06
2.00031e+06
2.0003e+06
2.0003e+06
2.0003e+06
2.00022e+06
2.00031e+06
2.00031e+06
2.00027e+06
2.00031e+06
2.0003e+06
311438
2.00022e+06
2.00029e+06
2.0003e+06
2.00031e+06
2.00021e+06
75511.2
2.0003e+06
2.00031e+06
2.0003e+06
2.0003e+06
2.0003e+06
2798.99
1058.34
2.0003e+06
2.0003e+06
6761.9
121020
2.0003e+06
2.0003e+06
2.0003e+06
2.0003e+06
2.0003e+06
2.0003e+06
2.0003e+06
123410
2.00031e+06
2.0003e+06
2.0003e+06
2.00031e+06
2.00031e+06
2.00031e+06
2.00029e+06
2.0003e+06
2.00031e+06
2.00031e+06
2.00027e+06
1.14282e+06
2.0003e+06
2.00024e+06
2.0003e+06
2.0003e+06
2.0003e+06
2.00031e+06
315686
2.0003e+06
2.0003e+06
2.0003e+06
2.0003e+06
2.0003e+06
2.0003e+06
2.0003e+06
2.00031e+06
2.00031e+06
2.00031e+06
2.00032e+06
2.0003e+06
2.00031e+06
2.00023e+06
2.00032e+06
2.00031e+06
2.00031e+06
2.00031e+06
2.00031e+06
327458
2.0003e+06
2.00031e+06
2.00008e+06
2.0003e+06
2.00031e+06
2.00031e+06
2.00024e+06
339859
2.00028e+06
2.00027e+06
115865
215634
331633
328168
253829
355194
361674
258176
2.0003e+06
251507
265816
209609
2.0003e+06
2.0003e+06
2.00029e+06
2.00029e+06
2.0003e+06
2.00029e+06
2.00031e+06
2.0003e+06
2.0003e+06
2.00031e+06
2.00031e+06
2.0003e+06
2.0003e+06
184252
318738
124217
116121
2.00031e+06
2.00031e+06
2.00031e+06
259419
152613
84970.7
83530.4
65366
78134.4
297172
287479
2.00031e+06
2.00031e+06
2.00031e+06
2.00031e+06
280830
322799
328121
311138
400157
2.0003e+06
2.00031e+06
2.00031e+06
2.00031e+06
2.0003e+06
2.00031e+06
2.00029e+06
2.0003e+06
2.00028e+06
1.52231e+06
2.00031e+06
205678
2.00029e+06
120226
649194
1.99819e+06
343903
396204
307539
295642
332765
278355
273975
300629
278502
308351
320401
276208
185781
235513
91175.2
2.0003e+06
2.0003e+06
167148
112495
310568
116324
71191.7
108329
2.0003e+06
2.0003e+06
2.0003e+06
276784
2.0003e+06
2.00031e+06
2.0003e+06
2.00028e+06
2.00031e+06
2.00031e+06
2.00031e+06
2.00031e+06
2.0003e+06
2.0003e+06
2.0003e+06
2.00032e+06
2.00032e+06
2.00031e+06
2.0003e+06
2.00031e+06
2.0003e+06
2.0003e+06
2.00031e+06
2.00031e+06
2.0003e+06
1.34811e+06
1.99818e+06
1.99898e+06
1.99986e+06
2.00025e+06
2.00031e+06
2.00031e+06
2.00031e+06
2.00031e+06
2.00031e+06
2.00031e+06
2.0003e+06
2.0003e+06
2.00031e+06
178727
2.00031e+06
1.24864e+06
2.0003e+06
8310.31
2.00031e+06
1.85564e+06
2.00031e+06
241214
163032
311009
216281
2.00028e+06
2.00031e+06
98691.3
2.00031e+06
2.00031e+06
2.00031e+06
299966
2.0003e+06
277681
2.0003e+06
335365
2.00028e+06
2.00028e+06
2.00031e+06
2.00027e+06
2.00031e+06
335727
2.0003e+06
130783
2.00031e+06
184261
2.0003e+06
2.00031e+06
2.0003e+06
2.0003e+06
184395
175317
98571.8
98302.9
105593
95733.2
299732
299713
2.00031e+06
295175
3217.75
299507
2.00031e+06
2.0003e+06
304115
2.00031e+06
2.00031e+06
2.00031e+06
319609
320181
304829
383206
2.0003e+06
2.0003e+06
2.0003e+06
2.0003e+06
2.0003e+06
312865
2.00007e+06
1.99939e+06
1.99931e+06
1.99941e+06
1.99905e+06
2.00031e+06
2.00031e+06
2.00031e+06
2.00018e+06
2.00027e+06
2.00027e+06
2.00031e+06
2.00031e+06
2.00031e+06
2.00031e+06
2.00031e+06
2.00031e+06
2.0003e+06
2.0003e+06
2.00031e+06
2.00031e+06
2.0003e+06
2.0003e+06
2.0003e+06
2.00031e+06
2.0003e+06
2.00031e+06
417070
2.00025e+06
2.00031e+06
2.00028e+06
2.00031e+06
2.00017e+06
2.00013e+06
1.99989e+06
2.00031e+06
7305.56
2.0003e+06
411.226
5011.42
2.00031e+06
2.0003e+06
2.0003e+06
2475.56
2.0003e+06
2.0003e+06
264197
2.00031e+06
259435
2.00013e+06
253765
257076
222756
222017
236140
2.00028e+06
2.0003e+06
2.00031e+06
2.0003e+06
2.0003e+06
109889
113660
103435
2.0003e+06
986.825
204034
2.0003e+06
2.0003e+06
2.00031e+06
2.0003e+06
2.0003e+06
2.0003e+06
2.00031e+06
2.00031e+06
2.00031e+06
2.00031e+06
2.0003e+06
2.00031e+06
2.00031e+06
2.0003e+06
2.0003e+06
2.0003e+06
2.00029e+06
2.0003e+06
2.00031e+06
2.0003e+06
1.99994e+06
2.00029e+06
2.00031e+06
2.00031e+06
2.00031e+06
2.00031e+06
2.0003e+06
2.00031e+06
275690
2.00028e+06
2.0003e+06
274837
1.99998e+06
2.00028e+06
2118.71
2.00019e+06
1.99991e+06
2.00028e+06
1.90578e+06
2.00027e+06
314205
77416.5
199107
2.0003e+06
2.00031e+06
2.00031e+06
2.00031e+06
2.00031e+06
105759
107113
2.00029e+06
2.00031e+06
115446
2.0003e+06
105695
116548
2.00031e+06
104624
2.0003e+06
2.00031e+06
2.00023e+06
2.0003e+06
2.0003e+06
2.0003e+06
2.00031e+06
2.00024e+06
2.00016e+06
2.0003e+06
2.00031e+06
2.00031e+06
2.0003e+06
2.0003e+06
2.00031e+06
2.00031e+06
2.0003e+06
2.0003e+06
2.0003e+06
2.00031e+06
2.00031e+06
2.0003e+06
2.00031e+06
2.00031e+06
2.00026e+06
2.00025e+06
2.00017e+06
2.00027e+06
2.00025e+06
2.0003e+06
2.0003e+06
2.00028e+06
2.00026e+06
2.00029e+06
2.00029e+06
2.00031e+06
2.00031e+06
2.00031e+06
2.00031e+06
2.00031e+06
2.00031e+06
2.00031e+06
2.00031e+06
2.0003e+06
2.0003e+06
2.0003e+06
2.00031e+06
2.0003e+06
2.00018e+06
2.00013e+06
2.00011e+06
2.00031e+06
2.00019e+06
2.00014e+06
294258
2.00031e+06
2.0003e+06
2.0003e+06
2.00031e+06
325449
2.0003e+06
298096
298480
2.0003e+06
2.0003e+06
270892
2.00029e+06
234998
294489
2.00031e+06
2.00026e+06
318322
315718
89069.8
84160.3
94511.7
84551.2
2.00031e+06
2.00031e+06
2.0003e+06
1.99995e+06
2.00027e+06
1.98104e+06
2.0003e+06
2.00031e+06
2.00031e+06
2.00031e+06
2.00029e+06
2.00029e+06
2.00029e+06
2.00028e+06
2.00027e+06
2.00028e+06
2.0003e+06
2.00031e+06
170370
2.00026e+06
2.00028e+06
2.00031e+06
2.00004e+06
2.0003e+06
2.0003e+06
2.0003e+06
2.0003e+06
2.00031e+06
2.0003e+06
2.0003e+06
2.0003e+06
107060
120938
119824
302763
119912
406775
288550
354281
1.79121e+06
1.99806e+06
436534
86266.1
76404.2
1.99392e+06
2.00031e+06
2.00031e+06
2.00031e+06
2.00027e+06
2.00025e+06
2.0003e+06
2.0003e+06
2.0003e+06
2.00031e+06
2.0003e+06
2.00031e+06
2.0003e+06
2.00031e+06
2.00031e+06
2.0003e+06
2.0003e+06
2.00031e+06
2.0003e+06
2.00019e+06
2.0003e+06
2.00003e+06
2.00031e+06
2.00031e+06
2.00031e+06
2.00031e+06
2.00031e+06
2.00021e+06
1.99021e+06
2.00028e+06
1.99856e+06
2.0003e+06
2.00031e+06
2.0003e+06
2.0003e+06
2.0003e+06
2.0003e+06
2.00031e+06
2.0003e+06
2.00031e+06
2.0003e+06
2.00031e+06
2.0003e+06
282176
2.00031e+06
2.0003e+06
2.0003e+06
2.0003e+06
2.0003e+06
2.0003e+06
2.0003e+06
2.00031e+06
2.00031e+06
2.00031e+06
283740
2.00031e+06
2.0003e+06
2.0003e+06
2.00031e+06
2.00031e+06
2.00031e+06
2.00031e+06
2.00031e+06
2.00031e+06
109638
107779
2.00031e+06
2.00031e+06
2.0003e+06
2.0003e+06
2.00028e+06
32.7752
2.00031e+06
2.00031e+06
2.00031e+06
2.0003e+06
2.0003e+06
2.0003e+06
2.00031e+06
2.00031e+06
2.0003e+06
2.0003e+06
2.00028e+06
163379
113539
117704
1.99411e+06
1.98866e+06
2.0003e+06
2.00017e+06
1.9976e+06
269207
282263
2.00031e+06
307781
320105
92871.4
93950.9
2.00031e+06
97005.8
92123.4
115971
118885
96125.1
119151
128585
316457
2.0003e+06
311552
160534
2.00031e+06
2.00031e+06
2.0003e+06
406701
2.00031e+06
2.00031e+06
2.00031e+06
295209
304688
2.00004e+06
297996
243397
295043
2.0003e+06
114822
110238
184056
2.0003e+06
2.0003e+06
2.00031e+06
88598.7
185083
2.00031e+06
2.00031e+06
2.00031e+06
2.00031e+06
2.0003e+06
2.00031e+06
2.0003e+06
2.00031e+06
2.00031e+06
2.00031e+06
2.00031e+06
2.0003e+06
2.0003e+06
2.00028e+06
2.00019e+06
2.0003e+06
2.00029e+06
2.00029e+06
2.00031e+06
2.00029e+06
2.00031e+06
308179
2.00031e+06
82986.9
2.00031e+06
72944.6
2.00031e+06
79268
77735.1
80292.9
2.00031e+06
2.00031e+06
2.00031e+06
2.00031e+06
2.00031e+06
2.00031e+06
2.00031e+06
2.00031e+06
2.0003e+06
2.00031e+06
2.00032e+06
2.00032e+06
2.0003e+06
2.00031e+06
2.0003e+06
2.00031e+06
2.0003e+06
2.0003e+06
2.0003e+06
2.0003e+06
2.0003e+06
2.00031e+06
2.00031e+06
2.00031e+06
2.00026e+06
2.00024e+06
2.00015e+06
2.00031e+06
2.0003e+06
2.00031e+06
2.00031e+06
2.00031e+06
70885.4
2.00028e+06
2.00032e+06
2.00025e+06
1.99992e+06
2.00026e+06
2.00025e+06
2.0003e+06
2.0003e+06
2.00031e+06
2.0003e+06
2.0003e+06
2.0003e+06
2.00024e+06
2.00031e+06
2.00031e+06
2.00031e+06
2.00026e+06
2.00027e+06
74348
56975.1
101225
78390.3
79663.7
99204.4
2.00031e+06
2.00031e+06
196366
270090
-17329.4
166949
2.00031e+06
2.00031e+06
2.00031e+06
2.00031e+06
2.00031e+06
2.00017e+06
2.0003e+06
2.00031e+06
2.00031e+06
2.0003e+06
2.00031e+06
2.00031e+06
2.00031e+06
2.00031e+06
2.00031e+06
1.99068e+06
1.99854e+06
1.99901e+06
1.98787e+06
403859
1.99932e+06
307492
2.00012e+06
1.99835e+06
2.0003e+06
2.00029e+06
2.00031e+06
2.00028e+06
2.00031e+06
2.0003e+06
2.00031e+06
2.00013e+06
2.00031e+06
2.00031e+06
2.00026e+06
2.00031e+06
2.00031e+06
2.0003e+06
2.0003e+06
2.00031e+06
2.0003e+06
2.0003e+06
2.0003e+06
2.00031e+06
2.00031e+06
2.0003e+06
2.0003e+06
2.0003e+06
2.0003e+06
2.00031e+06
2.00031e+06
2.0003e+06
2.0003e+06
2.0003e+06
2.00031e+06
2.00028e+06
2.00031e+06
2.0003e+06
2.0003e+06
2.00031e+06
2.00024e+06
2.00019e+06
2.00031e+06
2.00029e+06
2.00031e+06
245498
2.00031e+06
78732.1
2.00031e+06
2.00029e+06
2.00031e+06
2.00031e+06
2.00029e+06
2.00031e+06
2.00026e+06
2.0003e+06
2.00029e+06
2.00031e+06
2.0003e+06
2.00032e+06
2.0003e+06
2.00031e+06
2.0003e+06
2.0003e+06
2.0003e+06
2.0003e+06
2.0003e+06
2.00014e+06
77280.8
2.0003e+06
2.0003e+06
2.0003e+06
2.0003e+06
2.00031e+06
2.00031e+06
2.0003e+06
2.0003e+06
233696
111166
2.0003e+06
2.0003e+06
2.00031e+06
2.0003e+06
2.00031e+06
2.0003e+06
2.00011e+06
2.00019e+06
2.0003e+06
2.00031e+06
82317.8
62605.5
2.00027e+06
2.0003e+06
2.0003e+06
2.0003e+06
2.00031e+06
2.0003e+06
2.00024e+06
2.00031e+06
2.00029e+06
2.00028e+06
2.0003e+06
2.00029e+06
2.0003e+06
2.00029e+06
304325
2.00031e+06
2.00031e+06
2.00032e+06
2.00031e+06
2.00031e+06
2.0003e+06
2.0003e+06
2.0003e+06
2.00031e+06
2.0003e+06
2.0003e+06
2.00031e+06
2.00031e+06
2.0003e+06
2.0003e+06
2.00026e+06
2.00028e+06
2.0003e+06
2.0003e+06
2.0003e+06
2.0003e+06
2.00025e+06
2.0001e+06
2.00028e+06
2.00026e+06
274135
281351
2.0003e+06
2.0003e+06
2.0003e+06
57337.2
2.0003e+06
2.0003e+06
2.0003e+06
2.00031e+06
2.0003e+06
2.0003e+06
2.0003e+06
2.0003e+06
2.0003e+06
2.0003e+06
2.0003e+06
2.00031e+06
2.0003e+06
2.00031e+06
2.00027e+06
2.00023e+06
2.0003e+06
2.00028e+06
2.00029e+06
2.00027e+06
2.00027e+06
2.00027e+06
2.00031e+06
2.0003e+06
2.0003e+06
2.00031e+06
2.00031e+06
2.0003e+06
2.0003e+06
2.00029e+06
2.00031e+06
2.00031e+06
2.00031e+06
2.0003e+06
2.00024e+06
2.00015e+06
2.00025e+06
2.0002e+06
2.00013e+06
2.00022e+06
2.00031e+06
2.0003e+06
2.0003e+06
2.0003e+06
2.00023e+06
2.0003e+06
2.0003e+06
2.0003e+06
2.0003e+06
2.0003e+06
2.0003e+06
2.0003e+06
2.00031e+06
2.0003e+06
2.0003e+06
2.0003e+06
2.0003e+06
2.0003e+06
2.0003e+06
2.0003e+06
2.0003e+06
2.00031e+06
59567.3
2.00026e+06
1.99451e+06
2.00013e+06
2.00013e+06
1.9997e+06
2.0003e+06
1.99991e+06
271155
293893
2.0003e+06
286113
78593.7
2.0003e+06
2.0003e+06
2.0003e+06
2.0003e+06
2.00031e+06
2.0003e+06
2.00031e+06
2.00031e+06
2.00031e+06
2.00031e+06
1.99995e+06
2.0003e+06
2.00031e+06
2.00031e+06
2.0003e+06
2.00031e+06
2.0003e+06
2.00031e+06
2.0003e+06
1.99897e+06
2.0003e+06
2.0003e+06
2.00031e+06
303654
64583.7
2.0003e+06
2.00029e+06
2.0003e+06
2.0003e+06
2.0003e+06
2.0003e+06
2.0003e+06
2.0003e+06
2.00028e+06
2.00031e+06
2.00031e+06
2.00031e+06
159946
107768
2.00031e+06
2.00031e+06
2.0003e+06
2.00031e+06
2.00031e+06
2.0003e+06
2.0003e+06
2.00031e+06
2.0003e+06
2.00031e+06
2.0003e+06
2.00031e+06
2.00031e+06
2.0003e+06
2.00031e+06
2.00031e+06
2.00031e+06
2.0003e+06
2.00031e+06
2.00031e+06
2.00031e+06
2.00031e+06
2.00031e+06
2.00031e+06
2.00031e+06
2.0003e+06
2.00031e+06
68263.4
304275
116306
114443
2.0003e+06
2.0003e+06
2.00031e+06
2.00031e+06
2.00028e+06
2.0003e+06
2.00031e+06
2.0003e+06
2.00031e+06
2.00031e+06
2.00031e+06
2.0003e+06
2.0003e+06
2.0003e+06
2.0003e+06
2.0003e+06
2.0003e+06
2.0003e+06
2.0003e+06
2.0003e+06
2.0003e+06
111856
2.0003e+06
2.0003e+06
2.00031e+06
2.00031e+06
2.00031e+06
2.0003e+06
2.00031e+06
2.0003e+06
2.0003e+06
2.00031e+06
2.0003e+06
2.0003e+06
2.0003e+06
2.0003e+06
2.0003e+06
2.00031e+06
80749.1
2.0003e+06
86312.6
85501.3
89874.5
2.0003e+06
67317.6
138913
53835.2
2.00031e+06
2.00026e+06
2.00031e+06
2.00031e+06
2.00031e+06
2.00031e+06
2.00026e+06
301150
353033
2.00015e+06
2.0003e+06
2.00029e+06
254545
410215
410142
2.0003e+06
2.00031e+06
2.0003e+06
30459.9
59685.6
88727.4
259458
294126
2.0002e+06
2.00017e+06
2.00021e+06
2.00021e+06
2.00018e+06
2.00032e+06
2.00031e+06
2.00029e+06
2.00031e+06
2.0003e+06
2.0003e+06
2.00031e+06
2.00031e+06
2.00031e+06
2.00031e+06
2.0003e+06
2.00031e+06
2.00031e+06
2.00031e+06
201289
113015
2.00026e+06
2.0003e+06
2.00031e+06
2.00031e+06
2.00031e+06
2.00029e+06
2.00031e+06
103574
94435.8
113208
2.00031e+06
104325
2.00031e+06
2.00031e+06
2.00031e+06
2.00029e+06
2.00031e+06
2.00031e+06
2.00022e+06
1.99992e+06
328387
336651
2.0003e+06
2.0003e+06
2.0003e+06
2.00031e+06
2.0003e+06
359912
2.00031e+06
2.00029e+06
265374
281382
276098
2.00029e+06
2.00029e+06
113341
23527.7
1.99965e+06
1.99988e+06
2.00031e+06
2.00031e+06
2.00031e+06
2.0003e+06
2.0003e+06
2.0003e+06
2.0003e+06
2.00031e+06
2.0003e+06
2.00031e+06
2.00028e+06
250728
2.00031e+06
297942
250087
2.00031e+06
2.0003e+06
2.00031e+06
2.00031e+06
304169
2.00029e+06
2.00029e+06
2.00029e+06
2.00029e+06
2.00029e+06
2.0003e+06
2.00029e+06
2.00029e+06
2.00031e+06
2.0003e+06
2.0003e+06
246924
2.00028e+06
2.00028e+06
2.0003e+06
2.0003e+06
2.0003e+06
2.00031e+06
2.0003e+06
2.0003e+06
2.0003e+06
238593
245582
238336
258972
305441
2.0003e+06
306227
2.0003e+06
2.00031e+06
2.00031e+06
2.00031e+06
319676
2.00031e+06
2.00031e+06
356523
289705
328671
2.0003e+06
2.0003e+06
2.0003e+06
2.0003e+06
2.0003e+06
2.0003e+06
367503
405944
295240
2.00007e+06
248440
2.0003e+06
2.00031e+06
2.00011e+06
279994
2.0003e+06
1.99985e+06
1.99941e+06
2.00031e+06
1.99939e+06
2.00005e+06
2.00031e+06
301413
2.00031e+06
2.0003e+06
1.99986e+06
1.99993e+06
2.00031e+06
358192
2.0003e+06
2.00025e+06
2.0003e+06
2.0003e+06
2.00024e+06
2.00031e+06
2.00031e+06
2.0003e+06
2.00031e+06
2.0003e+06
2.0003e+06
2.00031e+06
91706.5
2.00031e+06
2.00031e+06
2.0003e+06
115779
121176
116141
2.00031e+06
116326
2.00031e+06
2.0003e+06
2.0003e+06
2.0003e+06
2.0003e+06
2.00031e+06
2.00029e+06
2.00031e+06
2.00031e+06
2.0003e+06
2.00031e+06
2.00032e+06
292003
351204
114404
2.0003e+06
2.0003e+06
2.0003e+06
2.00031e+06
273326
113798
2.0003e+06
2.00031e+06
73105.7
2.0003e+06
394787
2.0003e+06
2.0003e+06
2.0003e+06
2.0003e+06
72709
2.0003e+06
2.00031e+06
2.00028e+06
316005
318285
2.00031e+06
255916