/*--------------------------------*- C++ -*----------------------------------*\
| =========                 |                                                 |
| \\      /  F ield         | OpenFOAM: The Open Source CFD Toolbox           |
|  \\    /   O peration     | Version:  v2006                                 |
|   \\  /    A nd           | Website:  www.openfoam.com                      |
|    \\/     M anipulation  |                                                 |
\*---------------------------------------------------------------------------*/
FoamFile
{
    version     2.0;
    format      ascii;
    class       volScalarField;
    location    "0.03";
    object      p_rgh;
}
// * * * * * * * * * * * * * * * * * * * * * * * * * * * * * * * * * * * * * //

dimensions      [1 -1 -2 0 0 0 0];


internalField   nonuniform List<scalar> 
3575
(
2.00031e+06
2.00031e+06
4568.81
2.00031e+06
2.00031e+06
2.00031e+06
2.0003e+06
2.0003e+06
2.00016e+06
2.0003e+06
2.0003e+06
2.00031e+06
2.00021e+06
2.0003e+06
2.0003e+06
2.0003e+06
2.0003e+06
2.0003e+06
2.0003e+06
2.00019e+06
2.00022e+06
2.0003e+06
2.0003e+06
2.0003e+06
461499
2.0003e+06
2.00031e+06
2.0003e+06
2.0003e+06
2.00031e+06
2.0003e+06
2.0003e+06
2.00031e+06
2.0003e+06
2.0003e+06
2.0002e+06
2.00023e+06
2.0002e+06
354433
386234
2.0003e+06
388734
2.0003e+06
455474
2.0003e+06
2.0003e+06
100014
2.0003e+06
2.00031e+06
115636
97310.4
108184
2.00029e+06
104836
2.00027e+06
2.0003e+06
2.00028e+06
2.0003e+06
2.00025e+06
1.97559e+06
431218
2.00025e+06
115009
2.00028e+06
2.00029e+06
2.0003e+06
2.00028e+06
2.0003e+06
2.0003e+06
2.0003e+06
2.00025e+06
114726
141459
120803
2.00028e+06
82551
367217
1.99961e+06
2.00031e+06
2.00031e+06
2.0003e+06
132934
2.00031e+06
2.00031e+06
351100
2.0001e+06
2.00031e+06
2.0003e+06
2.0003e+06
2.0003e+06
2.0003e+06
2.0003e+06
2.00031e+06
2.00031e+06
2.00031e+06
2.00031e+06
2.0003e+06
94736.3
2.0003e+06
2.0003e+06
2.00031e+06
2.00031e+06
2.0003e+06
2.00031e+06
2.00031e+06
2.0003e+06
2.0003e+06
2.0003e+06
2.0003e+06
2.00031e+06
2.0003e+06
2.00031e+06
401868
435784
437469
359312
114286
370806
2.0003e+06
2.0003e+06
2.0003e+06
2.0003e+06
2.00002e+06
2.0003e+06
2.00029e+06
2.00004e+06
2.00019e+06
2.00021e+06
2.00013e+06
2.00003e+06
2.0003e+06
1.99989e+06
338670
1.99994e+06
2.0003e+06
89040.8
2.0003e+06
2.0003e+06
2.0003e+06
2.0003e+06
2.0003e+06
2.00002e+06
2.0003e+06
2.00031e+06
2.00028e+06
353868
2.00005e+06
139072
134342
449441
91291.5
140733
134352
157457
156755
2.00029e+06
2.0003e+06
2.00031e+06
70592.7
2.0003e+06
2.00031e+06
2.00031e+06
1.99347e+06
2.0003e+06
2.0003e+06
2.0003e+06
928641
428767
344728
2.0003e+06
2.0003e+06
2.0003e+06
2.0003e+06
2.0003e+06
371543
1.99985e+06
2.0003e+06
2.0003e+06
119783
453256
155698
459927
2.00011e+06
2.0003e+06
2.0003e+06
2.0003e+06
2.0003e+06
2.00029e+06
2.0003e+06
2.0003e+06
2.0003e+06
2.0003e+06
2.0003e+06
1.99091e+06
2.0003e+06
2.0003e+06
2.0003e+06
2.0003e+06
2.0003e+06
2.00017e+06
424177
2.0003e+06
2.00013e+06
2.00014e+06
1.99995e+06
2.00001e+06
2.0003e+06
2.0003e+06
2.0003e+06
2.0003e+06
2.0003e+06
2.0003e+06
2.0003e+06
2.0003e+06
2.0003e+06
2.0003e+06
2.0003e+06
379355
1.9998e+06
2.0003e+06
1.66544e+06
2.00031e+06
2.0003e+06
72413
72880.2
2.0003e+06
2.0003e+06
2.0003e+06
2.0003e+06
2.0003e+06
2.0003e+06
2.00031e+06
2.0003e+06
2.0003e+06
2.0003e+06
2.0003e+06
2.00018e+06
2.0003e+06
2.0003e+06
2.0003e+06
2.0003e+06
2.0003e+06
88157.2
401226
2.00031e+06
2.0003e+06
2.0003e+06
2.00028e+06
2.00031e+06
88666.3
2.00031e+06
2.00031e+06
2.00031e+06
72568.7
2.0003e+06
2.0003e+06
2.0003e+06
2.0003e+06
2.00031e+06
228414
389581
134237
157852
2.0003e+06
2.00031e+06
2.00031e+06
2.00031e+06
2.00031e+06
2.00031e+06
2.0003e+06
2.00031e+06
2.00031e+06
2.0003e+06
2.0003e+06
2.0003e+06
2.0003e+06
2.0003e+06
2.0003e+06
2.0003e+06
2.0003e+06
2.00031e+06
2.00021e+06
2.0002e+06
2.00014e+06
1.9999e+06
92963.9
2.00014e+06
2.00031e+06
459072
67771.5
434330
71288.9
77167.3
75738.1
399539
2.0003e+06
384754
2.0003e+06
2.0003e+06
2.00029e+06
2.0003e+06
2.0003e+06
2.0003e+06
1.99842e+06
2.0003e+06
104113
2.00028e+06
2.0003e+06
2.0003e+06
2.00029e+06
2.00025e+06
2.00027e+06
2.00031e+06
2.00031e+06
2.00028e+06
2.00031e+06
2.0003e+06
2.0003e+06
460277
113333
363888
2.0003e+06
2.0003e+06
2.0003e+06
2.0003e+06
2.0003e+06
2.0003e+06
2.0003e+06
2.0003e+06
2.0003e+06
2.00031e+06
2.00031e+06
2653.92
421264
2.0003e+06
2.0003e+06
2.0003e+06
2.0003e+06
2.0003e+06
2.0003e+06
2.0003e+06
2.0003e+06
2.0003e+06
2.0003e+06
2.0003e+06
2.0003e+06
2.0003e+06
2.0003e+06
2.0003e+06
2.0003e+06
2.0003e+06
2.0003e+06
2.00028e+06
2.0003e+06
2.00029e+06
2.00021e+06
2.0003e+06
2.0003e+06
2.0003e+06
49662.5
61459.1
2.0003e+06
2.0003e+06
443470
2e+06
2.0003e+06
1.88515e+06
2.0003e+06
89562.4
74453
2.0003e+06
2.0003e+06
2.0003e+06
89538.8
2.0003e+06
2.00031e+06
2.0003e+06
2.0003e+06
2.0003e+06
2.00029e+06
2.0003e+06
2.0003e+06
2.0003e+06
2.0003e+06
2.00029e+06
2.00028e+06
2.0003e+06
2.0003e+06
2.0003e+06
2.00031e+06
2.0003e+06
2.0003e+06
2.0003e+06
2.0003e+06
2.0003e+06
2.0003e+06
2.0003e+06
2.0003e+06
2.0003e+06
2.0003e+06
2.00029e+06
2.0003e+06
357616
2.00018e+06
65707.3
489170
2.00031e+06
2.00031e+06
2.0003e+06
2.0003e+06
2.0003e+06
2.00029e+06
2.00029e+06
68970.8
110525
86891.5
2.00024e+06
110239
2.00023e+06
2.00025e+06
2.00025e+06
2.00031e+06
2.0003e+06
2.0003e+06
2.00029e+06
2.0003e+06
367782
2.0003e+06
55539.4
2.0003e+06
2.00031e+06
49924.8
2.0003e+06
2.00031e+06
2.0003e+06
2.0003e+06
2.0003e+06
2.0003e+06
2.00031e+06
2.0003e+06
2.00031e+06
2.0003e+06
2.0003e+06
2.0003e+06
2.00031e+06
2.0003e+06
2.0003e+06
2.00031e+06
2.0003e+06
2.0003e+06
2.0003e+06
2.00031e+06
2.0003e+06
2.00031e+06
2.00031e+06
2.0003e+06
2494.17
311424
2.00031e+06
2.00031e+06
2.00024e+06
2.00026e+06
2.00026e+06
2.00025e+06
2.00026e+06
2.00029e+06
2.00029e+06
2.00029e+06
2.0003e+06
2.00029e+06
139320
2.0003e+06
2.0003e+06
2.00031e+06
2.0003e+06
2.0003e+06
2.0003e+06
2.00028e+06
2.00026e+06
2.00028e+06
2.00027e+06
2.00031e+06
2.00031e+06
2.00031e+06
2.0003e+06
2.00031e+06
2.0003e+06
2.00031e+06
2.0003e+06
2.0003e+06
2.00031e+06
2.0003e+06
2.0003e+06
87165.7
2.0003e+06
101398
114112
2.0003e+06
2.0003e+06
2.0003e+06
2.0003e+06
2.0003e+06
1051.39
18942.7
384683
2.0003e+06
2.00029e+06
2.0003e+06
2.00029e+06
104083
1.99993e+06
2.00029e+06
2.0003e+06
132500
2.0003e+06
2.0003e+06
2.0003e+06
2.00029e+06
2.0003e+06
2.00029e+06
2.00029e+06
2.00029e+06
434639
2.0003e+06
2.00029e+06
2.00029e+06
2.00031e+06
2.00029e+06
2.0003e+06
2.00031e+06
2.0003e+06
63369.7
2.0003e+06
2.00026e+06
2.00026e+06
2.0003e+06
97363.2
2.0003e+06
80609.1
2.0003e+06
84802.2
88021.9
2.0003e+06
123167
2.0003e+06
2.0003e+06
2.0003e+06
2.00031e+06
2.0003e+06
2.0003e+06
109629
2.0003e+06
408134
2.00032e+06
2.00032e+06
2.0003e+06
2.0003e+06
2.0003e+06
2.00031e+06
2.0003e+06
2.0003e+06
142076
2.0003e+06
2.00026e+06
2.00029e+06
2.00031e+06
2.00025e+06
2.0003e+06
105575
2.00026e+06
2.00022e+06
2.00023e+06
2.00027e+06
2.0003e+06
2.00031e+06
2.00031e+06
2.00031e+06
2.00031e+06
2.0003e+06
2.0003e+06
2.00031e+06
2.0003e+06
2.0003e+06
2.0003e+06
2.0003e+06
2.0003e+06
128312
2.00029e+06
119175
360816
444398
112588
376837
101058
115971
378454
399109
394044
115783
2.00029e+06
2.00029e+06
2.0003e+06
2.0003e+06
2.0003e+06
2.0003e+06
2.0003e+06
188172
2.0003e+06
2.0003e+06
2.0003e+06
2.0003e+06
2.0003e+06
2.0003e+06
2.0003e+06
2.0003e+06
2.0003e+06
2.0003e+06
2.0003e+06
2.00028e+06
2.0003e+06
2.00029e+06
2.0003e+06
2.0003e+06
2.0003e+06
2.00021e+06
2.00028e+06
2.0003e+06
2.0003e+06
2.00028e+06
405781
2.00031e+06
2.00031e+06
2.00031e+06
2.00031e+06
209048
2.00024e+06
1.99982e+06
2.0003e+06
2.0003e+06
2.00029e+06
2.00008e+06
2.00031e+06
2.0003e+06
2.00031e+06
119273
2.00031e+06
2.00027e+06
2.0003e+06
296982
2.0003e+06
2.0003e+06
2.0003e+06
1.55653e+06
2.0003e+06
2.0003e+06
182086
1.99951e+06
2.00015e+06
2.0003e+06
2.00013e+06
1.99978e+06
2.00021e+06
451846
2.00029e+06
2.00004e+06
2.00028e+06
257703
2.00031e+06
366288
2.00028e+06
2.0003e+06
2.0003e+06
2.0003e+06
367292
2.00028e+06
2.00029e+06
2.0003e+06
2.00005e+06
2.0003e+06
2.0003e+06
2.0003e+06
2.0003e+06
2.0003e+06
2.0003e+06
2.00031e+06
2.00031e+06
2.00032e+06
108384
414551
2.00031e+06
2.0003e+06
2.0003e+06
2.00031e+06
2.00032e+06
342302
2.00031e+06
355482
2.00029e+06
2.00029e+06
364345
360851
2.0003e+06
2.0003e+06
337830
2.00029e+06
2.0003e+06
2.00029e+06
1.99985e+06
2.0003e+06
2.00029e+06
2.00031e+06
459242
2.00029e+06
2.0003e+06
2.0003e+06
265430
2.00029e+06
2.00024e+06
2.00024e+06
65085
65431.5
2.0003e+06
50160.3
161475
2.00031e+06
439641
368309
2.0003e+06
352619
2.00031e+06
449151
353558
338364
2.0002e+06
78622.5
2.00027e+06
2.00023e+06
2.0003e+06
2.0003e+06
2.00028e+06
2.00024e+06
2.0003e+06
2.0003e+06
2.0003e+06
2.00031e+06
399358
2.0003e+06
2.0003e+06
2.00031e+06
2.0003e+06
2.0003e+06
2.0003e+06
2.0003e+06
2.0003e+06
2.0003e+06
2.0003e+06
2.0003e+06
2.0003e+06
2.0003e+06
2.0003e+06
2.00031e+06
2.0003e+06
2.0003e+06
2.0003e+06
2.0003e+06
2.0003e+06
2.0003e+06
2.0003e+06
2.0003e+06
2.0003e+06
2.0003e+06
2.00031e+06
2.0003e+06
98049.1
2.0003e+06
2.0003e+06
2.00025e+06
2.00024e+06
2.0003e+06
2.0003e+06
2.0003e+06
2.0003e+06
2.0003e+06
2.0003e+06
361884
439958
2.0003e+06
443466
2.0003e+06
2.0003e+06
2.00031e+06
2.0002e+06
2.00023e+06
74741.2
2.0003e+06
2.00031e+06
2.0003e+06
50598.7
2.00023e+06
2.00025e+06
369066
2.00014e+06
2.00029e+06
2.0003e+06
2.00031e+06
2.0003e+06
2.00031e+06
2.0003e+06
2.0003e+06
2.0003e+06
2.0003e+06
2.0003e+06
86749.5
2.0003e+06
2.0003e+06
2.0003e+06
2.0003e+06
2.0003e+06
2.0003e+06
2.00029e+06
2.0003e+06
2.0003e+06
2.00026e+06
2.0003e+06
2.0003e+06
157621
357082
277355
392685
82232.6
2.0003e+06
436602
398707
81861.3
2.00028e+06
2.0003e+06
2.00015e+06
2.00029e+06
2.0003e+06
2.0003e+06
2.0003e+06
361797
2.0003e+06
2.0003e+06
406963
2.0003e+06
2.0003e+06
2.00031e+06
2.0003e+06
2.0003e+06
2.0003e+06
2.0003e+06
2.0003e+06
2.00031e+06
2.00031e+06
2.0003e+06
2.00029e+06
440650
2.0003e+06
2.0003e+06
444296
2.0003e+06
2.0003e+06
464111
361261
2.0003e+06
361307
2.00031e+06
2.00031e+06
2.00031e+06
113124
2.0003e+06
2.0003e+06
90251.7
110938
425774
459397
2.0003e+06
-17286.2
2.00024e+06
416844
342459
2.00028e+06
2.00028e+06
2.00027e+06
457486
2.00028e+06
2.00028e+06
1.99711e+06
2.00031e+06
2.0003e+06
2.0003e+06
2.00031e+06
2.00031e+06
2.00031e+06
430427
2.00031e+06
2.00031e+06
91897
89893
224.777
6233.14
517347
346982
2.0003e+06
114508
2.0003e+06
412408
2.0003e+06
2.00027e+06
2.00028e+06
457017
2.0003e+06
2.00031e+06
2.0003e+06
2.0003e+06
2.00029e+06
2.0003e+06
351446
2.0003e+06
2.00031e+06
2.0003e+06
352416
413488
356524
343491
2.00032e+06
2.00032e+06
117556
2.0003e+06
128488
112023
2.00031e+06
2.0003e+06
2.0003e+06
2.00031e+06
2.0003e+06
2.0003e+06
2.0003e+06
2.0003e+06
2.0003e+06
2.0003e+06
2.0003e+06
2.0003e+06
2.0003e+06
2.0003e+06
2.0003e+06
2.0003e+06
2.0003e+06
2.0003e+06
2.00031e+06
2.0003e+06
2.00031e+06
2.00031e+06
2.00031e+06
2.00031e+06
91360.3
2.0003e+06
2.0003e+06
2.0003e+06
96845.8
387841
92792
2.0003e+06
2.0003e+06
2.0003e+06
2.0003e+06
2.00029e+06
2.0003e+06
2.00028e+06
2.0003e+06
2.00029e+06
2.0003e+06
2.0003e+06
2.0003e+06
394447
2.00031e+06
2.0003e+06
2.00031e+06
2.0003e+06
2.00031e+06
2.0003e+06
2.0003e+06
2.0003e+06
2.0003e+06
2.0003e+06
2.0003e+06
2.0003e+06
1.99501e+06
2.00024e+06
2.00026e+06
2.00029e+06
2.00029e+06
2.0003e+06
2.0003e+06
449396
2.0003e+06
2.0003e+06
2.0003e+06
396677
2.0003e+06
2.0003e+06
2.0003e+06
2.00031e+06
2.00031e+06
2.0003e+06
376949
341073
358991
2.00031e+06
403268
2.00031e+06
340811
109130
441924
111144
349526
60225.6
275983
1.99678e+06
1.9937e+06
1.99584e+06
2.0003e+06
2.0003e+06
2.00031e+06
2.00027e+06
2.0003e+06
2.0003e+06
2.0003e+06
2.0003e+06
2.0003e+06
2.00022e+06
2.00002e+06
2.0003e+06
2.0003e+06
1.99634e+06
2.0003e+06
100508
98823.9
65714.3
89067.4
84781.6
2.0003e+06
2.0003e+06
2.0003e+06
2.0003e+06
2.0003e+06
2.0003e+06
2.0003e+06
2.0003e+06
2.0003e+06
2.00025e+06
86147.4
413545
2.0003e+06
367331
2.0003e+06
2.00031e+06
2.0003e+06
2.00031e+06
2.00031e+06
2.0003e+06
2.0003e+06
2.0003e+06
2.0003e+06
2.0003e+06
2.0003e+06
322452
2.0003e+06
2.00029e+06
2.00028e+06
2.00027e+06
2.00031e+06
365357
127645
354706
2.0003e+06
403445
412831
2.0003e+06
2.0003e+06
2.00029e+06
2.0003e+06
2.0003e+06
2.0003e+06
2.0003e+06
2.00031e+06
2.0003e+06
2.0003e+06
2.00027e+06
2.00029e+06
2.0003e+06
2.00029e+06
2.0003e+06
2.00029e+06
2.00029e+06
65275.6
2.00029e+06
2.00029e+06
2.0003e+06
48850.1
2.00031e+06
2.0003e+06
2.0003e+06
116362
2.0003e+06
2.0003e+06
2.0003e+06
2.0003e+06
2.0003e+06
2.0003e+06
2.0003e+06
1.99538e+06
2.0003e+06
2.00031e+06
2.0003e+06
2.00031e+06
2.0003e+06
2.0003e+06
2.00018e+06
2.0003e+06
2.0003e+06
2.0003e+06
2.0003e+06
2.0003e+06
2.00031e+06
2.00031e+06
2.0003e+06
2.0003e+06
2.00031e+06
2.00031e+06
121591
2.00031e+06
2.0003e+06
73906.4
2.00019e+06
2.0002e+06
394560
122769
2.00022e+06
2.0003e+06
2.0003e+06
2.0003e+06
119933
2.0003e+06
2.0003e+06
2.0003e+06
2.0003e+06
2.0003e+06
121806
2.0003e+06
2.0003e+06
2.0003e+06
2.0003e+06
118010
2.0003e+06
2.0003e+06
2.0003e+06
2.00029e+06
2.0003e+06
120290
2.00031e+06
2.0003e+06
2.0003e+06
2.00031e+06
2.00031e+06
117592
485575
384634
2.0003e+06
106980
81238.4
2.0003e+06
2.0003e+06
2.0003e+06
2.0003e+06
2.0003e+06
2.0003e+06
2.0003e+06
2.00021e+06
2.0003e+06
2.00031e+06
2.00027e+06
2.0003e+06
2.0003e+06
400231
2.00021e+06
2.00029e+06
2.0003e+06
2.0003e+06
2.0002e+06
66673.7
2.0003e+06
2.0003e+06
2.0003e+06
2.0003e+06
2.0003e+06
2704.68
273.792
2.0003e+06
2.0003e+06
9691.28
121359
2.0003e+06
2.0003e+06
2.0003e+06
2.0003e+06
2.00029e+06
2.00029e+06
2.00029e+06
126287
2.0003e+06
2.0003e+06
2.0003e+06
2.0003e+06
2.0003e+06
2.00031e+06
2.00029e+06
2.00029e+06
2.0003e+06
2.0003e+06
2.00026e+06
1.14307e+06
2.0003e+06
2.00022e+06
2.0003e+06
2.0003e+06
2.0003e+06
2.0003e+06
452303
2.0003e+06
2.0003e+06
2.0003e+06
2.0003e+06
2.0003e+06
2.0003e+06
2.0003e+06
2.00031e+06
2.00031e+06
2.00031e+06
2.00032e+06
2.0003e+06
2.0003e+06
2.00022e+06
2.00031e+06
2.00031e+06
2.0003e+06
2.0003e+06
2.0003e+06
463537
2.0003e+06
2.00031e+06
2.00008e+06
2.0003e+06
2.0003e+06
2.0003e+06
2.00023e+06
406316
2.00027e+06
2.00026e+06
114785
264082
458772
509709
359022
486974
494052
332725
2.0003e+06
359418
364743
211616
2.0003e+06
2.0003e+06
2.00029e+06
2.00029e+06
2.00029e+06
2.00028e+06
2.0003e+06
2.0003e+06
2.0003e+06
2.00031e+06
2.0003e+06
2.0003e+06
2.0003e+06
366105
450947
149030
116534
2.00031e+06
2.00031e+06
2.00031e+06
367903
184054
76994.5
76730.9
53347.8
70087.6
451285
441487
2.0003e+06
2.0003e+06
2.00031e+06
2.00031e+06
409928
412785
409486
398242
442523
2.00029e+06
2.00031e+06
2.0003e+06
2.0003e+06
2.0003e+06
2.0003e+06
2.00029e+06
2.0003e+06
2.00028e+06
1.52235e+06
2.0003e+06
270345
2.00029e+06
117595
649000
1.99818e+06
400112
438134
373960
393550
393134
372260
370228
422584
406076
429268
449092
429672
354620
402759
88405.7
2.0003e+06
2.0003e+06
179908
107043
395536
113530
61409.5
106024
2.0003e+06
2.0003e+06
2.0003e+06
346460
2.0003e+06
2.0003e+06
2.0003e+06
2.00028e+06
2.00031e+06
2.00031e+06
2.00031e+06
2.0003e+06
2.0003e+06
2.0003e+06
2.0003e+06
2.00032e+06
2.00031e+06
2.0003e+06
2.0003e+06
2.0003e+06
2.0003e+06
2.0003e+06
2.0003e+06
2.0003e+06
2.0003e+06
1.34821e+06
1.99816e+06
1.99897e+06
1.99985e+06
2.00024e+06
2.00031e+06
2.00031e+06
2.0003e+06
2.00031e+06
2.00031e+06
2.00031e+06
2.00029e+06
2.0003e+06
2.0003e+06
289992
2.0003e+06
1.24853e+06
2.0003e+06
7100.96
2.0003e+06
1.85548e+06
2.0003e+06
420686
206793
398162
303686
2.00027e+06
2.0003e+06
93383.8
2.0003e+06
2.00031e+06
2.0003e+06
454292
2.0003e+06
429631
2.0003e+06
306203
2.00027e+06
2.00027e+06
2.0003e+06
2.00027e+06
2.0003e+06
237963
2.0003e+06
133189
2.0003e+06
364523
2.0003e+06
2.00031e+06
2.0003e+06
2.0003e+06
355029
330581
94175.6
93666.5
103550
89798.3
415196
415193
2.00031e+06
384639
3342.12
291431
2.0003e+06
2.0003e+06
419012
2.00031e+06
2.00031e+06
2.00031e+06
382156
449419
371207
407874
2.0003e+06
2.0003e+06
2.0003e+06
2.0003e+06
2.0003e+06
375648
2.00006e+06
1.99938e+06
1.9993e+06
1.9994e+06
1.99904e+06
2.00031e+06
2.00031e+06
2.00031e+06
2.00017e+06
2.00026e+06
2.00026e+06
2.00031e+06
2.00031e+06
2.00031e+06
2.00031e+06
2.00031e+06
2.0003e+06
2.0003e+06
2.0003e+06
2.0003e+06
2.0003e+06
2.0003e+06
2.0003e+06
2.0003e+06
2.0003e+06
2.0003e+06
2.0003e+06
426515
2.00025e+06
2.0003e+06
2.00027e+06
2.0003e+06
2.00016e+06
2.00012e+06
1.99987e+06
2.0003e+06
7463.53
2.0003e+06
373.513
5052.48
2.00031e+06
2.00029e+06
2.0003e+06
2474.39
2.0003e+06
2.0003e+06
360093
2.0003e+06
364026
2.00012e+06
358054
361621
383065
389172
400313
2.00027e+06
2.0003e+06
2.0003e+06
2.0003e+06
2.0003e+06
107864
110953
99932.6
2.0003e+06
1039.48
386774
2.00029e+06
2.0003e+06
2.0003e+06
2.0003e+06
2.0003e+06
2.0003e+06
2.0003e+06
2.00031e+06
2.0003e+06
2.0003e+06
2.0003e+06
2.0003e+06
2.0003e+06
2.0003e+06
2.0003e+06
2.0003e+06
2.00029e+06
2.00029e+06
2.00031e+06
2.00029e+06
1.99993e+06
2.00028e+06
2.0003e+06
2.0003e+06
2.00031e+06
2.00031e+06
2.0003e+06
2.0003e+06
347626
2.00027e+06
2.0003e+06
345982
1.99997e+06
2.00028e+06
2119.89
2.00018e+06
1.9999e+06
2.00027e+06
1.90565e+06
2.00027e+06
390568
68318.3
328068
2.0003e+06
2.0003e+06
2.0003e+06
2.0003e+06
2.0003e+06
103237
106731
2.00028e+06
2.00031e+06
115229
2.0003e+06
102812
117507
2.0003e+06
102427
2.0003e+06
2.00031e+06
2.00023e+06
2.00029e+06
2.0003e+06
2.0003e+06
2.0003e+06
2.00023e+06
2.00016e+06
2.0003e+06
2.0003e+06
2.0003e+06
2.0003e+06
2.0003e+06
2.0003e+06
2.0003e+06
2.0003e+06
2.00029e+06
2.00029e+06
2.00031e+06
2.00031e+06
2.0003e+06
2.0003e+06
2.0003e+06
2.00026e+06
2.00025e+06
2.00015e+06
2.00026e+06
2.00024e+06
2.00029e+06
2.00029e+06
2.00027e+06
2.00025e+06
2.00029e+06
2.00029e+06
2.00031e+06
2.0003e+06
2.00031e+06
2.00031e+06
2.00031e+06
2.0003e+06
2.00031e+06
2.0003e+06
2.0003e+06
2.0003e+06
2.0003e+06
2.0003e+06
2.0003e+06
2.00017e+06
2.00013e+06
2.0001e+06
2.0003e+06
2.00019e+06
2.00013e+06
424295
2.0003e+06
2.0003e+06
2.0003e+06
2.0003e+06
457587
2.00029e+06
433594
416182
2.0003e+06
2.0003e+06
396894
2.00029e+06
348210
416400
2.0003e+06
2.00025e+06
464077
393552
82570.3
76776
89394
77238.6
2.0003e+06
2.0003e+06
2.0003e+06
1.99994e+06
2.00027e+06
1.98102e+06
2.0003e+06
2.0003e+06
2.0003e+06
2.0003e+06
2.00029e+06
2.00029e+06
2.00029e+06
2.00027e+06
2.00027e+06
2.00028e+06
2.0003e+06
2.00031e+06
283065
2.00025e+06
2.00027e+06
2.0003e+06
2.00003e+06
2.0003e+06
2.0003e+06
2.0003e+06
2.0003e+06
2.0003e+06
2.0003e+06
2.0003e+06
2.0003e+06
104442
123910
122825
440785
122603
429493
378378
409879
1.79126e+06
1.99805e+06
456344
80465.6
65219.7
1.99391e+06
2.00031e+06
2.0003e+06
2.00031e+06
2.00027e+06
2.00024e+06
2.0003e+06
2.0003e+06
2.0003e+06
2.00031e+06
2.0003e+06
2.00031e+06
2.0003e+06
2.0003e+06
2.0003e+06
2.0003e+06
2.0003e+06
2.0003e+06
2.0003e+06
2.00016e+06
2.0003e+06
2.00001e+06
2.0003e+06
2.0003e+06
2.0003e+06
2.0003e+06
2.0003e+06
2.0002e+06
1.99017e+06
2.00028e+06
1.99854e+06
2.0003e+06
2.0003e+06
2.0003e+06
2.0003e+06
2.0003e+06
2.0003e+06
2.0003e+06
2.0003e+06
2.00031e+06
2.0003e+06
2.00031e+06
2.0003e+06
357370
2.00031e+06
2.0003e+06
2.00029e+06
2.0003e+06
2.0003e+06
2.0003e+06
2.0003e+06
2.00031e+06
2.00031e+06
2.00031e+06
401633
2.00031e+06
2.0003e+06
2.0003e+06
2.00031e+06
2.00031e+06
2.00031e+06
2.00031e+06
2.00031e+06
2.00031e+06
102477
100819
2.0003e+06
2.0003e+06
2.0003e+06
2.0003e+06
2.00027e+06
-2.64126
2.0003e+06
2.0003e+06
2.0003e+06
2.0003e+06
2.0003e+06
2.0003e+06
2.00031e+06
2.00031e+06
2.0003e+06
2.0003e+06
2.00027e+06
167294
113475
118526
1.9941e+06
1.98866e+06
2.0003e+06
2.00016e+06
1.99758e+06
343110
351686
2.00031e+06
441398
449422
88581.1
91449
2.00031e+06
93600.6
86382.5
116502
119052
92974.8
124340
135297
457669
2.0003e+06
457474
174183
2.0003e+06
2.0003e+06
2.0003e+06
432151
2.0003e+06
2.0003e+06
2.0003e+06
384653
353148
2.00003e+06
385522
349306
424757
2.0003e+06
114780
109607
362947
2.0003e+06
2.0003e+06
2.0003e+06
83125.1
346975
2.0003e+06
2.00031e+06
2.00031e+06
2.00031e+06
2.0003e+06
2.0003e+06
2.0003e+06
2.0003e+06
2.0003e+06
2.0003e+06
2.00031e+06
2.0003e+06
2.00029e+06
2.00027e+06
2.00019e+06
2.00029e+06
2.00029e+06
2.00029e+06
2.00031e+06
2.00029e+06
2.00031e+06
453605
2.00031e+06
76937.3
2.00031e+06
63538
2.00031e+06
69502.2
66729.6
71731
2.00031e+06
2.00031e+06
2.00031e+06
2.00031e+06
2.00031e+06
2.00031e+06
2.0003e+06
2.00031e+06
2.0003e+06
2.00031e+06
2.00032e+06
2.00032e+06
2.0003e+06
2.0003e+06
2.0003e+06
2.0003e+06
2.0003e+06
2.0003e+06
2.0003e+06
2.0003e+06
2.0003e+06
2.0003e+06
2.0003e+06
2.0003e+06
2.00026e+06
2.00024e+06
2.00015e+06
2.0003e+06
2.0003e+06
2.00031e+06
2.00031e+06
2.0003e+06
60766.1
2.00027e+06
2.00032e+06
2.00024e+06
1.99992e+06
2.00026e+06
2.00024e+06
2.0003e+06
2.0003e+06
2.0003e+06
2.0003e+06
2.0003e+06
2.0003e+06
2.00023e+06
2.0003e+06
2.0003e+06
2.0003e+06
2.00025e+06
2.00026e+06
62989.1
44601.8
97541
70357.8
71989.7
94940.8
2.0003e+06
2.0003e+06
257661
424844
-17096.8
213011
2.0003e+06
2.00031e+06
2.00031e+06
2.00031e+06
2.00031e+06
2.00017e+06
2.0003e+06
2.0003e+06
2.0003e+06
2.0003e+06
2.0003e+06
2.0003e+06
2.00031e+06
2.00031e+06
2.0003e+06
1.99066e+06
1.99852e+06
1.999e+06
1.98788e+06
433832
1.99931e+06
396221
2.00011e+06
1.99833e+06
2.0003e+06
2.00029e+06
2.0003e+06
2.00027e+06
2.00031e+06
2.00029e+06
2.0003e+06
2.00013e+06
2.00031e+06
2.00031e+06
2.00026e+06
2.00031e+06
2.00031e+06
2.0003e+06
2.0003e+06
2.0003e+06
2.0003e+06
2.0003e+06
2.0003e+06
2.00031e+06
2.00031e+06
2.0003e+06
2.0003e+06
2.0003e+06
2.0003e+06
2.0003e+06
2.0003e+06
2.0003e+06
2.0003e+06
2.0003e+06
2.00031e+06
2.00028e+06
2.0003e+06
2.0003e+06
2.0003e+06
2.00031e+06
2.00023e+06
2.00019e+06
2.00031e+06
2.00028e+06
2.00031e+06
425758
2.00031e+06
70367.6
2.0003e+06
2.00028e+06
2.0003e+06
2.0003e+06
2.00029e+06
2.0003e+06
2.00026e+06
2.00029e+06
2.00028e+06
2.0003e+06
2.0003e+06
2.00032e+06
2.0003e+06
2.0003e+06
2.0003e+06
2.0003e+06
2.0003e+06
2.0003e+06
2.00029e+06
2.00013e+06
65804.6
2.00029e+06
2.0003e+06
2.00029e+06
2.0003e+06
2.0003e+06
2.0003e+06
2.0003e+06
2.0003e+06
398853
110254
2.0003e+06
2.0003e+06
2.0003e+06
2.0003e+06
2.0003e+06
2.0003e+06
2.0001e+06
2.00018e+06
2.0003e+06
2.0003e+06
72584.7
51144.7
2.00027e+06
2.0003e+06
2.0003e+06
2.0003e+06
2.0003e+06
2.0003e+06
2.00024e+06
2.0003e+06
2.00028e+06
2.00028e+06
2.0003e+06
2.00028e+06
2.0003e+06
2.00029e+06
395839
2.00031e+06
2.00031e+06
2.00032e+06
2.00031e+06
2.00031e+06
2.0003e+06
2.0003e+06
2.0003e+06
2.0003e+06
2.0003e+06
2.0003e+06
2.0003e+06
2.0003e+06
2.0003e+06
2.0003e+06
2.00025e+06
2.00027e+06
2.0003e+06
2.0003e+06
2.0003e+06
2.0003e+06
2.00025e+06
2.00009e+06
2.00027e+06
2.00025e+06
347366
361347
2.0003e+06
2.00029e+06
2.0003e+06
44859.1
2.00029e+06
2.0003e+06
2.0003e+06
2.0003e+06
2.0003e+06
2.0003e+06
2.0003e+06
2.0003e+06
2.0003e+06
2.0003e+06
2.0003e+06
2.0003e+06
2.0003e+06
2.0003e+06
2.00026e+06
2.00022e+06
2.0003e+06
2.00028e+06
2.00028e+06
2.00027e+06
2.00026e+06
2.00026e+06
2.0003e+06
2.0003e+06
2.0003e+06
2.0003e+06
2.0003e+06
2.0003e+06
2.0003e+06
2.00029e+06
2.00031e+06
2.00031e+06
2.00031e+06
2.0003e+06
2.00024e+06
2.00014e+06
2.00025e+06
2.0002e+06
2.00012e+06
2.00022e+06
2.0003e+06
2.0003e+06
2.0003e+06
2.0003e+06
2.00022e+06
2.0003e+06
2.0003e+06
2.0003e+06
2.0003e+06
2.00029e+06
2.0003e+06
2.0003e+06
2.0003e+06
2.0003e+06
2.0003e+06
2.0003e+06
2.0003e+06
2.00029e+06
2.00029e+06
2.0003e+06
2.0003e+06
2.0003e+06
47390.2
2.00025e+06
1.9945e+06
2.00012e+06
2.00012e+06
1.99969e+06
2.0003e+06
1.9999e+06
343823
391259
2.0003e+06
358273
70046
2.0003e+06
2.0003e+06
2.0003e+06
2.0003e+06
2.0003e+06
2.0003e+06
2.0003e+06
2.00031e+06
2.00031e+06
2.00031e+06
1.99993e+06
2.0003e+06
2.0003e+06
2.0003e+06
2.0003e+06
2.0003e+06
2.0003e+06
2.0003e+06
2.0003e+06
1.99895e+06
2.0003e+06
2.0003e+06
2.0003e+06
443388
53527.8
2.00029e+06
2.00029e+06
2.0003e+06
2.0003e+06
2.0003e+06
2.00029e+06
2.0003e+06
2.0003e+06
2.00027e+06
2.00031e+06
2.00031e+06
2.00031e+06
163525
94168.7
2.00031e+06
2.0003e+06
2.0003e+06
2.00031e+06
2.0003e+06
2.0003e+06
2.0003e+06
2.0003e+06
2.0003e+06
2.0003e+06
2.0003e+06
2.0003e+06
2.0003e+06
2.0003e+06
2.00031e+06
2.00031e+06
2.0003e+06
2.0003e+06
2.0003e+06
2.0003e+06
2.00031e+06
2.0003e+06
2.0003e+06
2.0003e+06
2.00031e+06
2.0003e+06
2.0003e+06
49532.3
442192
115908
113517
2.0003e+06
2.0003e+06
2.0003e+06
2.0003e+06
2.00028e+06
2.0003e+06
2.0003e+06
2.0003e+06
2.00031e+06
2.00031e+06
2.00031e+06
2.0003e+06
2.0003e+06
2.00029e+06
2.0003e+06
2.0003e+06
2.0003e+06
2.0003e+06
2.0003e+06
2.0003e+06
2.0003e+06
105166
2.0003e+06
2.0003e+06
2.0003e+06
2.00031e+06
2.00031e+06
2.0003e+06
2.00031e+06
2.0003e+06
2.0003e+06
2.0003e+06
2.0003e+06
2.0003e+06
2.0003e+06
2.0003e+06
2.0003e+06
2.0003e+06
73692.4
2.0003e+06
80931.3
78755.5
85799
2.0003e+06
56955.4
159070
41003.2
2.0003e+06
2.00025e+06
2.0003e+06
2.0003e+06
2.0003e+06
2.00031e+06
2.00026e+06
446829
497207
2.00014e+06
2.0003e+06
2.00028e+06
363208
431784
431703
2.0003e+06
2.0003e+06
2.0003e+06
23359.2
47622.7
81341.7
371412
448766
2.0002e+06
2.00016e+06
2.0002e+06
2.0002e+06
2.00017e+06
2.00032e+06
2.00031e+06
2.00029e+06
2.00031e+06
2.0003e+06
2.0003e+06
2.00031e+06
2.00031e+06
2.0003e+06
2.0003e+06
2.0003e+06
2.00031e+06
2.00031e+06
2.0003e+06
369262
112418
2.00026e+06
2.00029e+06
2.0003e+06
2.0003e+06
2.0003e+06
2.00028e+06
2.0003e+06
99248.6
78623.9
117440
2.0003e+06
98163.2
2.0003e+06
2.00031e+06
2.0003e+06
2.00028e+06
2.0003e+06
2.00031e+06
2.00021e+06
1.99991e+06
460482
468058
2.0003e+06
2.0003e+06
2.0003e+06
2.0003e+06
2.0003e+06
487912
2.00031e+06
2.00029e+06
333863
352325
347309
2.00028e+06
2.00028e+06
89746.6
13422
1.99964e+06
1.99987e+06
2.0003e+06
2.00031e+06
2.0003e+06
2.0003e+06
2.00029e+06
2.0003e+06
2.0003e+06
2.0003e+06
2.0003e+06
2.00031e+06
2.00028e+06
364609
2.00031e+06
416267
362648
2.00031e+06
2.0003e+06
2.00031e+06
2.00031e+06
443172
2.00029e+06
2.00029e+06
2.00028e+06
2.00029e+06
2.00029e+06
2.0003e+06
2.00029e+06
2.00028e+06
2.0003e+06
2.0003e+06
2.0003e+06
360352
2.00027e+06
2.00028e+06
2.0003e+06
2.0003e+06
2.0003e+06
2.0003e+06
2.0003e+06
2.0003e+06
2.0003e+06
347933
349521
347928
362111
446074
2.0003e+06
445520
2.0003e+06
2.00031e+06
2.00031e+06
2.00031e+06
401737
2.00031e+06
2.0003e+06
488296
421312
461608
2.0003e+06
2.0003e+06
2.0003e+06
2.0003e+06
2.0003e+06
2.0003e+06
305842
399049
278570
2.00007e+06
353083
2.0003e+06
2.0003e+06
2.00008e+06
371722
2.0003e+06
1.99985e+06
1.99942e+06
2.0003e+06
1.99938e+06
2.00002e+06
2.0003e+06
388855
2.0003e+06
2.0003e+06
1.99985e+06
1.99992e+06
2.0003e+06
363286
2.0003e+06
2.00024e+06
2.0003e+06
2.0003e+06
2.00024e+06
2.00031e+06
2.00031e+06
2.0003e+06
2.00031e+06
2.0003e+06
2.0003e+06
2.0003e+06
108751
2.00031e+06
2.00031e+06
2.0003e+06
115092
119475
115643
2.0003e+06
112108
2.00031e+06
2.00029e+06
2.0003e+06
2.00029e+06
2.0003e+06
2.00031e+06
2.00028e+06
2.00031e+06
2.00031e+06
2.0003e+06
2.0003e+06
2.00032e+06
366134
423404
112962
2.0003e+06
2.0003e+06
2.0003e+06
2.0003e+06
249802
106611
2.00029e+06
2.0003e+06
56429.3
2.0003e+06
412270
2.0003e+06
2.0003e+06
2.0003e+06
2.0003e+06
58631.9
2.0003e+06
2.0003e+06
2.00028e+06
459812
464048
2.00031e+06
365760
2.00031e+06
2.0003e+06
2.0003e+06
363130
2.0003e+06
2.0003e+06
2.0003e+06
2.0003e+06
2.0003e+06
2.0003e+06
2.0003e+06
2.0003e+06
460096
407425
429253
410793
447663
2.0003e+06
2.0003e+06
2.0003e+06
2.0003e+06
2.0003e+06
2.0003e+06
2.0003e+06
2.0003e+06
2.00031e+06
2.00031e+06
2.00031e+06
2.00031e+06
2.0003e+06
2.0003e+06
2.0003e+06
2.0003e+06
2.0003e+06
2.0003e+06
2.0003e+06
2.00025e+06
2.00025e+06
2.00025e+06
438899
2.00026e+06
2.0003e+06
2.0003e+06
387946
444297
446786
2.0003e+06
2.0003e+06
421316
489843
2.0003e+06
466488
353313
400020
2.00007e+06
2.0003e+06
425081
2.0003e+06
2.0003e+06
370407
343017
2.0003e+06
408624
2.0003e+06
412296
78416.2
2.0003e+06
2.0003e+06
2.0003e+06
2.0003e+06
2.00028e+06
2.00031e+06
2.0003e+06
2.00029e+06
2.0003e+06
2.0003e+06
2.00031e+06
2.0003e+06
2.00031e+06
2.00031e+06
2.00031e+06
2.00031e+06
2.00031e+06
2.0003e+06
216492
2.00031e+06
2.00031e+06
2.00031e+06
2.00031e+06
368275
195228
249101
378795
2.00029e+06
2.0003e+06
2.0003e+06
2.00029e+06
2.0003e+06
2.0003e+06
385083
393766
87690.8
2.0003e+06
2.0003e+06
331903
389612
2.0003e+06
2.0003e+06
2.00028e+06
2.0003e+06
2.00031e+06
2.00031e+06
2.00031e+06
2.00031e+06
55729.9
64732.4
2.0003e+06
57922.9
2.0003e+06
2.0003e+06
2.00031e+06
2.0003e+06
2.0003e+06
2.0003e+06
2.00029e+06
2.0003e+06
2.0003e+06
2.0003e+06
2.0003e+06
2.0003e+06
2.0003e+06
2.0003e+06
2.0003e+06
1.99512e+06
2.0003e+06
1.99871e+06
1.99955e+06
2.0003e+06
2.0003e+06
2.0003e+06
2.0003e+06
2.0003e+06
2.00031e+06
2.0003e+06
2.0003e+06
2.0003e+06
2.0003e+06
2.0003e+06
2.0003e+06
2.0003e+06
2.0003e+06
2.0003e+06
2.0003e+06
54737.1
2.0003e+06
2.0003e+06
2.0003e+06
2.00031e+06
2.0003e+06
2.0003e+06
2.0003e+06
2.0003e+06
2.0003e+06
439540
2.00028e+06
2.00005e+06
390303
2.00029e+06
344534
2.00029e+06
2.00031e+06
2.0003e+06
2.0003e+06
2.0003e+06
2.00031e+06
2.0003e+06
2.0003e+06
2.0003e+06
2.0003e+06
2.0003e+06
2.0003e+06
2.00029e+06
2.0003e+06
2.0003e+06
2.0003e+06
2.0003e+06
2.0003e+06
-15993.5
2.0003e+06
2.00028e+06
2.0003e+06
2.0003e+06
2.00029e+06
2.00031e+06
2.00032e+06
1.99884e+06
1.99929e+06
2.0003e+06
2.0003e+06
2.00027e+06
2.00031e+06
2.00031e+06
2.00031e+06
2.0003e+06
103746
94830
98078.3
90862.9
442527
404734
46416
410372
2.0003e+06
350580
2.0003e+06
66249.7
62679.8
2.00029e+06
2.0003e+06
2.00028e+06
2.0003e+06
2.0003e+06
2.0003e+06
1.999e+06
1.99941e+06
2.00029e+06
448920
2.0003e+06
414179
2.0003e+06
2.0003e+06
2.0003e+06
103175
2.0003e+06
116926
2.0003e+06
137892
59654.6
2.0003e+06
2.00029e+06
331881
111087
90120.2
55575.3
419285
343614
386976
4347.48
2.00028e+06
1.99515e+06
1.99972e+06
1.99305e+06
1.98859e+06
1.98277e+06
1.99503e+06
2.00029e+06
2.00029e+06
362584
405782
387339
101373
2.0003e+06
375063
2.0003e+06
487895
2.00029e+06
1.9995e+06
1.99994e+06
2.00003e+06
2.0003e+06
2.0003e+06
2.0003e+06
2.0003e+06
2.00031e+06
2.00031e+06
2.0003e+06
2.0003e+06
2.00031e+06
2.0003e+06
1.99837e+06
2.0003e+06
2.0003e+06
2.0003e+06
2.00031e+06