/*--------------------------------*- C++ -*----------------------------------*\
| =========                 |                                                 |
| \\      /  F ield         | OpenFOAM: The Open Source CFD Toolbox           |
|  \\    /   O peration     | Version:  v2006                                 |
|   \\  /    A nd           | Website:  www.openfoam.com                      |
|    \\/     M anipulation  |                                                 |
\*---------------------------------------------------------------------------*/
FoamFile
{
    version     2.0;
    format      ascii;
    class       surfaceScalarField;
    location    "0.03";
    object      phi;
}
// * * * * * * * * * * * * * * * * * * * * * * * * * * * * * * * * * * * * * //

dimensions      [0 3 -1 0 0 0 0];
oriented        oriented;


internalField   nonuniform List<scalar> 
5747
(
6.86905e-08
-3.96481e-08
-2.90425e-08
-1.31245e-08
-9.3114e-10
1.40556e-08
8.71608e-08
4.25461e-07
-2.01964e-07
-3.60154e-07
3.28881e-08
2.50819e-08
-2.67163e-08
-5.44221e-08
2.59841e-08
5.51543e-08
-1.85897e-11
7.54541e-09
2.42471e-10
-7.76929e-09
-1.2471e-09
-3.32031e-11
1.28031e-09
-1.2471e-09
4.59815e-08
-3.4902e-08
9.74882e-09
-2.08283e-08
3.9686e-11
-1.06153e-10
6.64672e-11
-8.35511e-11
-1.33125e-09
3.70441e-10
1.04436e-09
2.97576e-08
-1.03888e-08
-1.93688e-08
-2.8462e-08
2.31961e-09
2.61424e-08
-2.44268e-10
2.44268e-10
-3.77948e-10
-1.37461e-10
5.15409e-10
-1.93033e-09
-7.01273e-10
1.78105e-10
2.4535e-09
-7.19561e-10
-1.40272e-09
1.9195e-10
-5.3327e-09
4.63143e-09
-1.43887e-09
-4.61339e-09
-7.07891e-08
1.62891e-08
5.45001e-08
1.05906e-08
-5.74724e-08
5.78992e-08
-1.10174e-08
-2.7176e-10
1.88209e-10
-3.9686e-11
1.75176e-11
2.21684e-11
-3.31016e-09
5.5811e-09
-6.60692e-09
4.33598e-09
-3.25775e-07
-4.08803e-08
3.66655e-07
-5.54111e-09
-7.31317e-11
5.61425e-09
6.21768e-09
-5.62987e-09
3.38284e-08
-3.44163e-08
-9.72635e-10
3.79666e-08
-3.6994e-08
3.11655e-08
-5.36662e-09
-2.57989e-08
8.34355e-11
-1.97771e-09
1.89428e-09
1.4186e-09
-2.32327e-08
2.18141e-08
-3.14604e-09
1.90474e-09
1.2413e-09
6.43754e-09
-1.24802e-09
-5.18952e-09
-1.29132e-08
1.25739e-08
1.95421e-08
-1.92028e-08
-3.71322e-09
3.38875e-09
3.2081e-10
3.65994e-12
2.34369e-08
4.09146e-10
-2.38461e-08
1.20334e-08
-1.20334e-08
2.87642e-08
-5.32727e-09
3.04333e-07
-3.04333e-07
-3.17357e-07
3.17357e-07
-6.77179e-09
3.13071e-08
-2.45353e-08
-4.79598e-08
2.66888e-07
-2.18928e-07
-3.98665e-10
-5.03588e-08
5.07574e-08
-1.26015e-08
-2.57565e-07
2.70166e-07
-4.8741e-10
-1.73621e-08
1.78495e-08
1.56346e-09
-1.56346e-09
2.82229e-06
2.36033e-08
-2.8459e-06
7.25054e-09
-1.19207e-08
-8.07023e-09
1.27404e-08
3.79036e-08
-5.71148e-08
6.00897e-08
-4.08785e-08
-8.50143e-07
8.50143e-07
1.4279e-06
-2.73105e-07
1.47607e-07
-1.3024e-06
-3.70895e-07
1.15321e-06
-7.82312e-07
-2.08961e-09
2.30645e-08
-2.09749e-08
-9.65258e-08
2.67881e-06
-2.58228e-06
-3.62864e-09
-1.91349e-08
2.27636e-08
-8.71922e-10
2.04027e-08
1.17334e-09
-2.07042e-08
3.87699e-08
-5.09157e-08
1.21458e-08
1.97255e-08
3.91617e-10
-2.01171e-08
7.53402e-09
-4.11026e-08
3.35686e-08
-1.68248e-07
-6.1249e-08
9.56485e-08
1.33848e-07
-6.57255e-08
3.3685e-07
-2.71125e-07
5.70455e-09
-2.16756e-08
2.35051e-08
-1.53921e-07
5.5059e-07
-3.96669e-07
-2.91297e-09
1.84846e-08
-1.55717e-08
2.41288e-08
-2.31928e-08
-3.84897e-09
-1.69487e-08
1.11272e-08
1.86204e-08
-1.27989e-08
2.84594e-08
-4.33058e-09
1.50257e-10
-1.50257e-10
5.50405e-09
-5.50405e-09
1.47392e-09
-2.87715e-09
1.40323e-09
-2.27575e-08
-1.86883e-06
1.86883e-06
-1.39607e-06
-1.78172e-06
1.60209e-06
1.57569e-06
9.89819e-08
-2.18411e-07
-1.50623e-07
2.70052e-07
3.00684e-09
2.54525e-08
-3.29114e-06
3.2785e-06
1.26356e-08
-3.46319e-07
3.79947e-07
-3.36286e-08
-3.70999e-08
7.47643e-08
-3.76644e-08
1.17681e-09
-1.17681e-09
2.13218e-08
2.70141e-08
-4.83359e-08
-3.60738e-09
-3.70017e-12
-1.0214e-10
1.39704e-07
-1.58979e-07
1.12837e-06
-1.1091e-06
2.72632e-08
-2.89443e-08
2.30028e-08
2.49932e-08
2.49917e-08
-2.29707e-08
-2.73949e-07
9.70513e-08
2.24207e-07
-4.73091e-08
1.04192e-07
-6.81929e-08
-3.59988e-08
5.22564e-08
8.49764e-10
-3.15628e-10
-1.82193e-08
1.76852e-08
8.03219e-10
2.28802e-08
-2.36834e-08
-2.64677e-08
2.73175e-08
-4.04148e-08
4.24149e-09
3.61733e-08
-2.60137e-08
2.60297e-09
2.34107e-08
6.51475e-09
-6.96012e-09
4.45363e-10
6.17694e-09
3.37813e-10
6.17694e-09
-3.2669e-08
3.24368e-08
1.6508e-09
8.55415e-10
-8.55415e-10
1.23285e-06
-2.43787e-07
1.7195e-07
-1.16102e-06
-2.19384e-08
-8.75664e-09
3.0695e-08
1.74016e-08
-1.67185e-08
-6.83071e-10
5.60577e-09
3.10766e-10
-5.91654e-09
-1.1456e-08
1.08222e-09
1.03738e-08
1.68881e-08
-4.92217e-10
1.00568e-09
3.52801e-10
-5.49209e-11
6.42134e-09
-6.71922e-09
-1.30891e-08
2.32494e-10
1.32094e-08
1.43221e-08
1.10929e-10
-1.4433e-08
-1.86771e-09
1.91646e-09
-4.87503e-11
-1.76185e-09
1.69253e-09
6.93222e-11
1.37711e-08
-1.35499e-08
-2.21206e-10
-1.89087e-09
-1.3547e-08
1.54378e-08
6.81996e-10
7.42325e-10
-1.36203e-08
-6.71876e-10
-2.51092e-07
-6.95019e-08
4.48324e-08
2.75762e-07
-2.18877e-07
4.86585e-08
-9.01522e-08
2.60371e-07
-1.74069e-07
-4.48083e-08
-3.852e-07
3.852e-07
3.1356e-07
-7.01617e-07
6.10453e-07
-2.22396e-07
-1.01583e-09
-3.84185e-07
1.49787e-09
-2.0631e-09
-1.46093e-09
2.02616e-09
1.02682e-08
-1.90326e-09
-1.08972e-08
2.53219e-09
2.23047e-08
-2.15624e-08
-8.32678e-13
5.90249e-10
-5.89416e-10
-4.81352e-08
-2.26649e-08
2.62984e-08
4.45017e-08
2.38912e-09
-6.79677e-11
-2.30132e-09
-1.9836e-11
-1.82227e-09
-1.16109e-08
1.22064e-08
1.22677e-09
3.18403e-08
-7.99755e-08
-3.6259e-09
-1.46948e-08
1.83207e-08
-4.80719e-09
2.99455e-08
-1.89322e-08
1.89322e-08
8.6555e-08
-3.16813e-08
-5.48738e-08
8.78933e-11
6.31143e-09
-6.26952e-09
-1.29803e-10
-4.50009e-08
-7.07365e-08
1.15737e-07
4.30379e-08
-2.62004e-07
-6.30652e-08
2.82032e-07
-3.87895e-08
8.03436e-08
-6.30107e-09
-2.02701e-09
8.32808e-09
-3.32163e-08
1.46112e-06
-8.1849e-09
1.54354e-08
4.29332e-09
-4.9003e-09
1.02954e-08
-9.6884e-09
-1.28217e-08
3.48512e-08
-3.56344e-08
1.36049e-08
-2.05445e-09
6.34777e-09
1.49704e-09
-9.34014e-08
-1.11509e-11
-1.25775e-11
2.37284e-11
5.09434e-08
-5.22941e-08
-3.846e-08
3.98107e-08
3.36308e-08
-5.82043e-08
2.45735e-08
3.99334e-07
-3.56296e-07
-9.32424e-08
-5.58206e-08
-4.58065e-07
2.71104e-07
2.42782e-07
-4.33871e-07
3.7805e-07
3.78723e-07
-4.27536e-08
-3.35969e-07
-1.15027e-06
1.53578e-06
-3.85512e-07
6.4291e-07
4.17794e-07
-1.0607e-06
1.84845e-07
-5.96353e-07
5.80277e-07
-1.17117e-06
3.17964e-07
1.17471e-06
-3.21505e-07
6.07319e-09
-5.82291e-09
-2.50285e-10
2.13894e-08
9.15353e-10
2.13795e-08
6.91844e-10
2.19655e-06
-3.69356e-07
-1.8272e-06
-4.603e-08
4.19834e-08
-4.612e-08
5.01667e-08
-1.95289e-09
1.95289e-09
4.07301e-08
-6.61296e-08
2.53994e-08
-6.18694e-08
-1.27724e-07
1.89593e-07
-1.31553e-08
-9.54646e-09
2.27018e-08
3.00972e-11
-2.30244e-11
-7.07274e-12
2.93586e-08
-2.92255e-08
-1.33148e-10
4.95833e-08
2.76737e-07
-3.26321e-07
-1.81865e-07
-3.3685e-07
2.52641e-07
2.66074e-07
2.78884e-07
-6.94853e-08
4.71152e-08
-2.56514e-07
-3.18768e-10
2.15749e-08
-2.12561e-08
-3.94174e-11
1.22202e-10
3.30596e-09
4.08965e-08
-5.2623e-08
1.17265e-08
-3.09818e-09
6.04939e-09
-2.95122e-09
2.09131e-09
-2.12922e-08
1.92009e-08
-2.31228e-07
1.85061e-07
4.61675e-08
-1.07396e-07
8.12314e-08
2.61649e-08
2.01014e-09
1.1406e-09
-1.65371e-09
1.39815e-08
3.4056e-10
-3.98766e-07
-5.84954e-07
9.8372e-07
-4.733e-07
4.69705e-07
3.59465e-09
-1.39607e-06
-3.25775e-07
7.15226e-08
-2.55411e-08
-3.17342e-08
8.78401e-10
3.12183e-08
-3.62418e-10
-1.01046e-09
-3.07238e-08
-9.84009e-09
-7.1692e-09
1.70093e-08
2.26334e-11
1.90501e-11
-7.33234e-11
3.164e-11
-2.19614e-08
3.80494e-08
-3.77659e-08
2.16779e-08
3.71031e-08
5.73419e-09
-4.28373e-08
2.75643e-08
-2.38798e-08
-3.68449e-09
-9.23465e-09
4.83303e-09
4.40162e-09
4.36466e-08
1.90788e-10
-4.38374e-08
-4.15173e-09
8.41572e-10
-2.21474e-07
-7.85669e-08
2.38172e-07
3.9822e-08
1.44169e-09
-4.12637e-08
-9.81407e-10
-1.71111e-11
9.98518e-10
-9.72177e-09
-1.22894e-10
9.84467e-09
3.2116e-08
-1.36266e-09
-3.26635e-08
1.91017e-09
3.09809e-08
1.80833e-09
-1.3013e-09
-3.14879e-08
-3.43728e-09
-1.53778e-08
1.88151e-08
4.31361e-08
2.01622e-07
-2.44758e-07
-1.82291e-08
1.83134e-08
-8.42526e-11
5.7334e-09
-4.06354e-08
-1.59092e-08
1.82053e-08
6.72875e-08
4.23508e-09
-1.88151e-08
1.3959e-08
4.85605e-09
-2.12418e-09
1.5417e-09
-9.2576e-09
1.53195e-08
-1.74436e-08
8.75841e-09
-1.93754e-08
1.0617e-08
1.69087e-08
1.36746e-08
-1.55539e-10
-1.35191e-08
-1.30289e-08
1.58105e-10
1.28708e-08
9.15003e-11
-3.5041e-10
-1.277e-08
1.2235e-09
-7.35782e-11
-1.14993e-09
1.2235e-09
-5.47326e-09
2.23819e-08
6.30318e-09
-5.24372e-09
-5.2112e-09
5.84455e-07
-5.84455e-07
-8.90993e-08
-6.04531e-08
7.75509e-08
7.20014e-08
4.83369e-08
-4.84078e-08
1.22354e-08
-1.21645e-08
-9.39628e-08
2.40786e-07
-1.46823e-07
3.03224e-08
-5.82218e-08
2.78994e-08
-1.59382e-08
9.04341e-10
-5.28188e-10
1.55621e-08
2.64027e-06
2.12793e-07
-6.56508e-07
-5.21926e-07
-2.49752e-06
2.65009e-06
5.52021e-10
1.98445e-08
-6.78428e-10
-1.97181e-08
1.27357e-08
-1.29382e-08
2.0246e-10
-3.13039e-10
1.28534e-08
-1.25403e-08
1.00708e-10
-5.54813e-11
-1.23282e-08
1.2283e-08
-1.53015e-08
-6.36723e-10
4.36058e-09
-4.17955e-09
-4.84475e-08
4.82665e-08
-3.16102e-08
-2.54325e-08
5.70427e-08
3.01847e-11
-1.48943e-09
5.65256e-11
4.56569e-09
-4.05579e-08
3.59922e-08
-1.22152e-09
1.86554e-09
-1.524e-09
-3.41536e-10
1.23947e-08
-1.23947e-08
2.6478e-08
-2.54868e-08
-9.91197e-10
-6.85758e-10
1.15007e-09
3.27001e-08
9.91741e-09
-3.41224e-08
-8.49514e-09
-1.07693e-08
-1.95028e-08
3.02721e-08
-3.31425e-08
1.11811e-08
1.37945e-06
-5.17422e-07
-1.27336e-06
4.11331e-07
-2.46287e-07
2.59669e-07
-1.33827e-08
-5.81747e-08
4.08267e-08
1.7348e-08
4.04608e-10
7.38802e-11
1.04139e-08
2.71454e-10
-1.07592e-08
-3.77049e-08
3.79852e-08
1.68663e-08
-1.71466e-08
-3.09731e-08
-2.15688e-09
2.98485e-08
3.28146e-09
-9.96245e-08
-3.03465e-06
3.13427e-06
3.7878e-08
9.3604e-09
-8.43117e-09
-3.88073e-08
2.06118e-09
-2.06118e-09
2.92752e-09
-4.08316e-10
-2.5192e-09
-8.92576e-07
-1.04952e-06
1.9421e-06
-3.77283e-08
2.49066e-08
-1.42036e-08
1.87366e-08
-4.53299e-09
9.45699e-10
-6.10774e-10
-3.34925e-10
2.00577e-08
-1.20327e-09
8.71039e-10
3.99135e-08
2.04578e-08
1.22688e-07
-9.19126e-07
-3.15424e-07
1.11186e-06
5.3158e-07
-2.50818e-07
2.77017e-07
-5.57779e-07
-1.938e-06
1.53923e-06
7.49994e-08
-6.71353e-07
8.09632e-11
4.72108e-11
-2.31421e-09
2.18603e-09
7.20171e-08
-3.41135e-08
-4.59246e-10
-1.09968e-08
-5.17173e-09
4.97288e-09
-2.604e-10
-1.71293e-09
1.71784e-08
-1.54655e-08
1.25898e-08
-1.32205e-08
1.77246e-08
-6.37546e-08
2.07123e-09
1.05186e-08
5.60577e-09
-7.23691e-10
-2.02184e-09
4.15936e-08
8.85965e-09
-1.17296e-08
-3.87236e-08
2.97248e-09
-2.97248e-09
-1.26623e-09
1.47192e-08
-1.34529e-08
-5.83113e-10
9.63721e-09
8.96093e-10
-9.95019e-09
5.90799e-09
-6.4911e-09
-5.22961e-10
1.01602e-08
-3.50819e-10
5.73584e-09
2.97635e-08
-2.84856e-08
-3.27078e-08
4.23631e-08
-3.51964e-08
-3.03134e-08
-4.15695e-08
2.55017e-08
4.63812e-08
-3.39029e-08
-4.7619e-08
8.1522e-08
-9.07424e-08
-1.98906e-08
1.10633e-07
-1.42337e-06
3.6112e-08
-7.45861e-08
3.84741e-08
1.1884e-08
2.29917e-09
-1.41831e-08
3.12161e-07
-3.12161e-07
7.51059e-07
2.00367e-06
-1.84075e-06
-9.13973e-07
3.75622e-07
3.10071e-09
-1.51626e-06
2.26732e-06
2.05926e-06
-1.66848e-07
-3.68137e-08
-1.8556e-06
5.42999e-07
3.12266e-07
7.29192e-08
-3.85185e-07
-1.48263e-08
-5.85556e-09
6.47824e-09
-3.19365e-07
3.19365e-07
2.54166e-08
-1.51802e-08
1.66371e-08
-2.68735e-08
-2.08675e-08
5.72702e-09
-4.23067e-09
1.93712e-08
5.30516e-09
-4.19074e-08
3.66022e-08
9.42795e-09
-5.88362e-08
4.94083e-08
-9.99768e-09
-4.26039e-08
5.26016e-08
1.12787e-08
-1.05474e-08
4.71991e-08
-4.79305e-08
1.04525e-07
2.20943e-08
-1.26619e-07
1.29128e-08
6.85833e-07
-1.05673e-06
3.71125e-08
7.77329e-09
-4.48858e-08
2.27352e-08
2.56017e-08
6.42009e-10
2.61667e-08
-2.68087e-08
-4.60454e-08
-4.43541e-09
5.04808e-08
5.56415e-08
-5.15976e-08
4.14603e-08
-4.55042e-08
-1.05132e-08
-3.05895e-08
-9.60711e-09
4.55044e-09
1.04116e-08
-5.35498e-09
-2.45893e-08
1.97486e-08
4.84071e-09
6.07319e-09
6.95911e-08
2.38886e-08
-2.14626e-08
4.82205e-08
2.50721e-09
-5.07277e-08
-1.89363e-09
1.89363e-09
1.65218e-09
2.73926e-07
-2.75578e-07
9.80264e-07
2.23662e-08
-3.17262e-07
-5.42992e-09
3.22692e-07
1.44202e-08
-1.29964e-08
-1.42379e-09
3.38861e-10
-3.38861e-10
-1.69937e-08
3.21066e-08
-1.51129e-08
-1.86607e-08
-3.38852e-10
1.89995e-08
1.88809e-08
-4.38208e-10
6.48271e-10
-1.9091e-08
-1.12494e-10
5.63478e-10
-3.08689e-08
3.04179e-08
1.87684e-08
5.30226e-08
-2.73142e-08
-2.57084e-08
-6.86704e-11
1.621e-09
-1.55233e-09
5.21613e-11
1.06986e-09
-1.12202e-09
6.23615e-08
1.58662e-08
-1.54031e-08
-6.28247e-08
-3.8028e-07
6.12282e-07
4.31936e-07
-6.82572e-07
-4.14395e-08
-3.2574e-07
3.6718e-07
-2.13634e-09
2.13634e-09
-1.54471e-09
1.54471e-09
4.49164e-09
-5.51198e-08
5.06281e-08
1.55887e-08
-4.93509e-08
3.37621e-08
4.84771e-08
2.57292e-08
-7.42063e-08
-2.83851e-08
2.52569e-08
3.12823e-09
-3.89667e-09
-3.17377e-08
-4.93229e-10
-2.26255e-10
7.70257e-12
-2.35231e-11
1.58205e-11
3.71418e-08
-9.28447e-09
-2.78573e-08
-2.19092e-08
5.82885e-08
-3.63793e-08
5.95355e-09
-3.72446e-10
-2.93459e-08
-1.90619e-08
4.38833e-08
-3.98556e-08
-4.02772e-09
2.99794e-08
3.23011e-09
-3.06065e-08
3.5337e-08
5.07685e-08
-3.70441e-08
-4.90614e-08
4.52554e-09
-3.867e-09
1.72735e-08
-1.7932e-08
1.03205e-08
-4.94038e-08
4.89822e-08
-9.89892e-09
-3.80668e-08
4.96348e-08
-1.1568e-08
2.14325e-08
-2.12633e-08
-1.43545e-09
3.55755e-08
-4.05122e-08
4.93664e-09
4.84159e-08
-3.78253e-08
1.2901e-08
-1.28364e-08
-1.29155e-10
6.46238e-11
-4.97875e-08
4.53044e-08
4.48308e-09
-5.27709e-09
-1.9931e-11
5.29702e-09
-1.13962e-06
-1.145e-06
2.28462e-06
-1.31197e-07
2.20219e-06
-2.07099e-06
-4.56911e-08
3.39692e-08
1.17218e-08
3.66424e-08
3.12955e-09
-3.71574e-08
-2.61462e-09
3.14364e-07
-2.05019e-07
2.89629e-07
-3.98973e-07
9.93897e-08
-7.30913e-08
5.40775e-09
-5.51021e-09
-1.88013e-08
1.89037e-08
4.6434e-08
-1.40397e-07
-1.55159e-08
4.8216e-08
1.28377e-06
-6.7113e-07
7.28879e-07
-1.0391e-06
-4.91523e-07
1.53062e-06
4.27096e-08
2.06005e-09
-4.47696e-08
2.24273e-09
3.73116e-08
-3.95544e-08
2.27904e-10
-1.82013e-08
1.79734e-08
-4.99299e-07
1.78307e-06
-5.15761e-08
-9.10727e-09
6.06833e-08
-2.65462e-09
2.60563e-09
4.89896e-11
1.64536e-09
2.59189e-08
2.3109e-08
-4.82705e-08
-2.33641e-08
4.85256e-08
1.82524e-08
-4.3856e-08
2.56036e-08
3.53776e-08
6.67887e-09
-4.20565e-08
-3.90688e-09
1.23199e-08
-8.41299e-09
5.28074e-08
-5.02355e-08
-2.57193e-09
-4.69637e-09
-3.60322e-08
4.07286e-08
9.86363e-10
-1.38619e-08
1.28755e-08
-4.45627e-08
1.6858e-08
4.54293e-08
-3.13966e-08
3.32016e-08
3.02592e-08
-3.20641e-08
3.75238e-08
-3.4492e-10
-3.77772e-08
5.9837e-10
6.74508e-09
2.43354e-08
-3.10805e-08
-3.43199e-08
3.35525e-08
7.51256e-09
-2.14173e-08
2.60159e-08
-4.59858e-09
3.32005e-09
-3.47572e-10
-3.75017e-10
1.97833e-08
-1.94083e-08
-8.97255e-09
8.44253e-09
5.3002e-10
-2.81297e-08
2.90139e-08
-8.84187e-10
1.57693e-08
9.64733e-09
-1.94613e-08
7.8524e-09
-9.40807e-09
2.1017e-08
-9.42316e-09
4.38958e-09
-4.20107e-09
-1.60401e-08
1.48157e-08
-1.95876e-08
-1.17969e-08
2.8936e-08
-4.35472e-09
-2.45813e-08
6.65888e-09
-7.1525e-09
3.58713e-08
-1.57505e-08
-4.85538e-08
1.51901e-08
4.91142e-08
-3.11124e-09
2.81996e-07
5.08711e-08
-8.35789e-08
2.55053e-06
-2.33583e-06
-3.45896e-07
-3.35413e-07
3.35414e-07
-2.0334e-08
4.08989e-08
-2.05649e-08
4.10522e-08
2.85389e-08
9.78131e-10
-1.3714e-09
1.86719e-09
-2.794e-08
2.17418e-09
-1.65228e-09
2.74181e-08
3.0344e-10
6.29319e-11
-3.66372e-10
-5.3442e-09
5.3442e-09
1.41975e-09
-1.65067e-08
1.5087e-08
-6.08682e-07
-2.66247e-06
5.84093e-07
2.68706e-06
-8.89303e-07
5.88832e-07
3.00471e-07
-1.8955e-07
1.69211e-06
-3.21882e-08
6.99499e-08
-3.77617e-08
-2.9069e-07
8.90063e-08
-6.87619e-07
-1.35789e-08
-4.38934e-08
1.87576e-08
-5.55745e-08
5.46089e-08
-1.7792e-08
-5.18055e-08
4.78081e-08
3.99745e-09
4.58112e-08
-4.9038e-08
3.22679e-09
2.64455e-08
-3.41161e-08
-2.63985e-08
3.40691e-08
-1.00347e-08
3.03739e-10
-8.18043e-11
9.81278e-09
5.24321e-08
5.89558e-09
-6.89686e-09
-3.13785e-09
4.10388e-07
-2.61765e-07
-3.22692e-07
2.95909e-11
6.47555e-09
-6.42171e-09
-7.39253e-07
2.94144e-06
1.71748e-09
2.72185e-08
-1.98841e-09
3.55212e-11
2.21451e-06
-8.48878e-07
-2.10488e-06
4.83657e-08
4.87596e-09
-4.76461e-09
4.31325e-08
-1.36037e-08
1.40817e-08
-4.36106e-08
9.45699e-10
-3.08154e-09
1.479e-08
-1.17085e-08
-1.12014e-08
1.87158e-08
-1.90157e-08
-1.30104e-10
4.30005e-10
-1.60838e-09
4.47409e-08
-8.3767e-09
-1.04647e-09
1.11313e-08
2.67467e-08
-1.44303e-08
6.05362e-09
6.89101e-09
-1.53536e-08
-5.96769e-09
8.61996e-09
-1.72895e-09
3.68073e-08
-3.47411e-08
-2.06614e-09
7.78281e-09
6.89077e-09
-3.65982e-08
-1.75182e-09
3.63573e-08
1.99277e-09
2.09026e-10
6.75369e-09
3.54169e-09
-1.44519e-08
-5.00944e-09
-8.57385e-11
1.70715e-10
-8.49767e-11
-3.97642e-08
5.82745e-08
-1.85103e-08
3.67988e-09
-3.46112e-08
3.09314e-08
-3.32575e-08
-3.08574e-08
3.53089e-08
2.8806e-08
-2.79417e-08
2.90023e-08
-3.36645e-08
3.26039e-08
8.75134e-09
6.20367e-08
-6.11864e-08
-9.60157e-09
4.73283e-07
5.81256e-07
-7.71527e-07
-3.04217e-07
-3.07736e-08
4.21873e-07
-3.94449e-07
4.07488e-08
6.76951e-08
-4.98076e-08
4.66036e-08
-6.44911e-08
-3.73939e-08
-5.88799e-08
6.40856e-08
-6.53122e-08
2.79183e-08
3.45648e-08
1.94213e-08
-3.11773e-08
-2.28088e-08
2.86502e-08
-6.06491e-08
-3.33133e-08
-3.02297e-08
3.50853e-08
-5.92666e-09
-2.91587e-08
-2.95079e-08
-6.77212e-09
3.02807e-08
5.99927e-09
5.57744e-09
-1.93546e-08
4.24636e-08
-4.29866e-08
3.62145e-08
3.5972e-07
-7.477e-07
-3.04772e-07
6.92752e-07
2.67786e-09
1.89647e-10
-2.86982e-09
2.30993e-12
4.74888e-08
8.769e-10
3.03744e-09
5.35411e-09
-7.31219e-09
3.40786e-08
-3.35382e-08
8.58792e-09
-2.94554e-08
2.46975e-09
-2.69667e-08
2.75029e-08
-3.00586e-09
-2.0173e-09
1.66612e-08
1.23712e-09
-1.5881e-08
7.88236e-09
-7.88236e-09
-1.64673e-08
1.71771e-08
2.29708e-09
1.60203e-08
-1.0149e-08
-1.65871e-08
1.07158e-08
1.17928e-10
1.6663e-09
-1.78423e-09
4.6853e-08
-2.18613e-08
3.79732e-08
2.30872e-08
1.04215e-11
9.75233e-10
-9.85655e-10
-6.41725e-08
4.11585e-08
2.3014e-08
-1.22523e-08
1.27454e-08
-4.9308e-10
3.72309e-08
3.02393e-08
-2.9497e-08
4.91473e-09
-6.3536e-09
-4.47692e-08
1.15016e-08
3.32676e-08
-2.59519e-08
2.70339e-08
1.8762e-08
-1.88573e-08
1.08169e-09
1.27538e-11
-3.01501e-08
2.96384e-08
4.98962e-10
6.77194e-07
7.02256e-07
-1.64122e-09
8.88903e-11
1.55233e-09
-4.22325e-08
-9.81501e-07
1.02373e-06
3.97784e-07
-5.35956e-07
1.38173e-07
2.47225e-10
1.33958e-08
3.16052e-11
-1.33675e-08
1.81147e-10
1.31863e-08
5.49579e-09
-5.5814e-09
4.73173e-11
3.82871e-11
-3.15147e-10
3.45332e-10
5.88372e-10
-3.03317e-10
-3.50174e-10
6.51186e-11
-5.20373e-07
5.75761e-07
-4.64646e-07
5.38693e-07
7.64575e-07
-2.32994e-07
-2.69968e-08
-3.65253e-09
3.06493e-08
-2.88004e-08
3.31247e-08
-4.32429e-09
-4.33672e-09
3.75488e-08
-3.32121e-08
4.11286e-09
-3.26592e-08
2.85463e-08
-7.02803e-07
-3.67556e-07
1.07036e-06
-1.01838e-07
-5.22998e-08
4.67418e-08
-2.14464e-08
-3.56598e-08
5.71062e-08
-1.64201e-06
-1.91558e-08
1.77797e-08
1.37614e-09
9.72378e-10
2.65547e-08
-2.67558e-08
-7.71256e-10
-5.60475e-08
5.39507e-08
-4.91006e-08
5.11974e-08
2.44447e-08
-4.09089e-08
1.64642e-08
-1.13721e-10
-6.02572e-09
6.13944e-09
2.81986e-08
-4.6183e-08
1.79844e-08
2.01116e-08
2.8872e-08
-2.07849e-08
-2.90275e-08
5.18801e-08
-2.28526e-08
-2.38266e-07
2.33891e-07
3.42016e-07
-3.37641e-07
9.33208e-09
-4.84675e-10
-8.84741e-09
-2.17383e-08
2.48106e-08
-2.14129e-08
-3.39768e-09
3.09893e-09
-1.14604e-09
-1.49194e-08
-2.93791e-08
4.42985e-08
2.13302e-08
-1.27248e-09
1.48806e-10
-8.87526e-09
8.84438e-09
-7.84239e-12
1.25775e-11
-4.73507e-12
2.34034e-06
-1.91255e-06
-4.27788e-07
-3.45989e-09
-1.61277e-08
-1.03077e-08
-5.16894e-08
1.01916e-08
1.87576e-08
-2.73729e-09
-5.81715e-09
4.75511e-09
-7.18796e-07
-7.15433e-07
1.43423e-06
1.69233e-12
-1.69234e-12
-1.01974e-06
1.25952e-06
-2.39778e-07
-8.88265e-07
1.10141e-06
-1.23289e-06
-1.75749e-06
8.69228e-07
-8.36767e-10
8.6405e-10
-2.72832e-11
-5.15343e-07
2.61436e-07
2.53907e-07
-1.02524e-08
-2.75395e-09
-4.09772e-08
-2.47707e-08
4.10872e-08
2.46607e-08
-1.8218e-09
1.8218e-09
-3.32463e-08
-1.00141e-08
4.32604e-08
-9.46397e-12
9.46399e-12
1.90494e-09
1.51043e-08
3.45142e-07
-7.67632e-07
4.22491e-07
1.68846e-08
3.76078e-07
-2.51075e-07
-3.56231e-07
3.33685e-08
-1.6553e-08
6.94041e-09
-2.37559e-08
-3.79232e-09
7.80615e-11
3.71426e-09
2.69533e-08
-2.71056e-08
2.148e-08
3.64826e-10
-3.90223e-10
1.47446e-08
-3.26912e-08
-1.38433e-09
3.24672e-08
5.42302e-09
-5.42302e-09
6.50272e-08
-1.75384e-08
-1.94415e-06
1.7751e-06
1.74474e-06
-1.57569e-06
1.86349e-08
-2.12593e-08
-6.30042e-08
6.56286e-08
-5.42566e-08
4.15801e-08
-4.28783e-08
5.55549e-08
3.09362e-08
-2.11177e-08
-3.1636e-08
2.18175e-08
6.12048e-08
-2.85562e-08
-3.26486e-08
-5.31137e-08
4.2806e-08
-4.01365e-08
2.68611e-09
3.74504e-08
1.10766e-06
6.34379e-07
8.69218e-09
-8.09818e-10
-1.3136e-08
1.88923e-08
-5.75624e-09
8.5713e-09
2.6924e-08
-3.54953e-08
5.05989e-10
8.6061e-09
-9.11208e-09
-1.18273e-09
-1.84472e-08
1.96299e-08
2.01422e-08
1.97141e-08
1.3117e-08
1.66947e-08
-2.98116e-08
-4.93343e-09
-8.2871e-09
-2.45701e-08
2.70978e-08
-2.52764e-09
-1.61842e-11
1.04206e-09
-1.02587e-09
5.35421e-08
-5.15692e-08
-4.85625e-08
4.65896e-08
-5.87369e-08
3.20206e-08
9.39406e-09
-4.03824e-09
4.05369e-08
4.39782e-09
2.53926e-11
-1.84719e-09
4.7307e-09
-3.33603e-08
3.28756e-08
-4.24592e-09
9.98918e-09
-1.06132e-08
-3.25185e-08
-5.38928e-07
3.79949e-07
-2.27005e-08
-4.0172e-08
2.19636e-08
1.17511e-07
-6.32854e-07
-8.21056e-08
-6.0295e-07
6.85056e-07
2.44572e-07
6.30691e-09
-2.50879e-07
5.38668e-07
-1.88315e-07
-4.96076e-07
1.45723e-07
-2.78244e-07
2.22665e-07
5.55789e-08
-1.06175e-06
3.58951e-07
5.64086e-07
-7.53523e-07
1.89437e-07
4.20047e-07
-4.68006e-07
-2.04995e-07
2.55077e-07
-5.00816e-08
3.48525e-07
-2.86632e-07
5.27677e-07
-3.63277e-08
5.27709e-09
-5.26749e-09
-9.59687e-12
1.26469e-08
-1.32575e-08
-5.75642e-08
-4.18266e-08
3.54597e-08
6.36696e-09
-3.13995e-08
1.172e-09
3.02275e-08
-1.1125e-10
-1.28439e-08
1.29551e-08
1.07463e-06
-9.51947e-07
5.94705e-08
9.42863e-10
-6.04133e-08
-3.01805e-10
1.32028e-08
6.50189e-08
4.49997e-09
1.19722e-09
-9.97259e-10
-1.24523e-08
6.7817e-09
-6.4977e-09
-2.83998e-10
2.09291e-08
-1.53507e-08
-5.57847e-09
-2.43515e-08
2.8877e-08
1.82611e-08
-2.21281e-08
3.16626e-11
-2.7593e-10
-3.16795e-11
-1.26791e-09
-7.32379e-11
6.18903e-09
-6.11579e-09
-3.88282e-08
-1.54284e-08
4.8886e-08
-4.18014e-08
4.28876e-08
-4.99723e-08
-4.58117e-08
-2.01248e-08
1.98911e-08
2.62471e-10
-1.3014e-08
1.31432e-08
-8.69125e-11
5.84557e-09
-5.9142e-09
-1.07658e-08
2.69769e-08
-1.62111e-08
-2.62101e-08
6.07749e-08
-4.23977e-08
3.1122e-08
1.12758e-08
-4.56126e-08
5.39051e-09
4.52098e-08
-4.98766e-09
-2.30984e-08
2.40027e-08
-5.78789e-08
2.64822e-08
-3.38127e-07
3.38127e-07
-2.45886e-08
-2.31325e-08
4.77211e-08
2.08903e-08
2.59627e-08
4.85467e-08
2.46e-08
-2.07645e-08
4.35751e-08
-2.28106e-08
-5.76067e-07
-3.43059e-07
7.37185e-08
-1.80771e-08
2.66381e-08
-7.73031e-11
-1.02309e-09
1.10039e-09
1.16225e-08
-4.45695e-11
-1.20653e-08
-2.20013e-08
2.94423e-09
-3.55574e-09
2.26128e-08
-5.69678e-08
-8.93453e-09
6.59023e-08
-2.11154e-08
1.15083e-08
5.60026e-08
-2.46048e-09
2.94752e-08
-1.53948e-08
-1.40805e-08
5.3037e-09
-8.13633e-08
4.27735e-07
-3.51675e-07
-4.85386e-10
3.11325e-08
5.18377e-10
6.08329e-08
-6.28031e-08
2.53806e-08
-2.34105e-08
-3.63315e-08
-2.01371e-08
5.64686e-08
4.84462e-07
2.80113e-07
-3.93215e-08
3.37816e-08
5.5399e-09
4.58126e-10
-3.93011e-10
-3.93866e-08
-1.69208e-08
5.07023e-08
2.62071e-07
1.55214e-07
-3.70851e-07
-1.95391e-08
4.68181e-08
-4.41998e-08
4.67611e-08
-4.41262e-08
-2.6349e-09
4.76596e-07
5.98038e-07
-4.74562e-08
5.58113e-08
-8.35518e-09
7.7254e-08
3.53912e-08
-3.29056e-08
-7.97396e-08
-2.21605e-09
-2.57239e-08
2.01236e-08
5.71304e-08
-3.05663e-08
-1.04612e-07
1.35178e-07
-3.08399e-08
7.45797e-08
-3.19536e-07
3.10444e-07
9.09228e-09
-3.64988e-08
5.20277e-09
3.1296e-08
-3.72543e-08
-9.38446e-09
4.66387e-08
5.47843e-09
-3.06149e-08
2.51365e-08
7.60229e-07
-1.3363e-06
4.94853e-08
-3.67407e-09
-3.44301e-07
3.9296e-07
-4.13415e-08
3.37684e-08
7.57317e-09
1.43143e-08
-2.67075e-08
1.23933e-08
-1.69642e-08
1.784e-09
-3.33447e-09
-7.8669e-09
4.76874e-07
-4.79633e-07
2.75871e-09
-1.0599e-08
-3.17987e-08
-1.13637e-08
3.77411e-08
-3.69764e-08
-7.04523e-09
6.89036e-09
-3.23037e-08
3.24586e-08
-3.7756e-08
5.01779e-10
2.92155e-08
-3.62607e-08
3.73827e-08
5.62291e-10
-1.10671e-08
1.04413e-08
-2.98888e-08
3.05147e-08
2.63156e-08
-1.95651e-08
-2.00378e-09
2.60623e-11
-3.11522e-08
-3.51324e-09
3.46654e-08
-6.96012e-09
2.05101e-08
-9.81702e-09
2.26754e-08
-1.073e-06
2.52416e-07
-2.52416e-07
2.05102e-08
-4.04317e-08
1.99215e-08
-4.96445e-08
6.60396e-08
-1.6395e-08
-5.54111e-09
4.24032e-08
-4.49993e-08
4.36483e-08
1.01352e-08
5.28126e-09
-1.54164e-08
4.13724e-08
-2.32793e-07
1.9142e-07
-1.6424e-08
2.9541e-08
2.06359e-07
-2.74662e-07
3.55267e-07
-2.86964e-07
-1.5111e-08
1.403e-08
1.08094e-09
2.43281e-08
-4.70286e-08
-3.02932e-07
2.9982e-07
-2.85217e-07
-2.97684e-07
2.10484e-07
3.72417e-07
2.01092e-09
-2.06584e-09
-2.91134e-08
1.27421e-08
-1.20138e-08
-3.72417e-07
-2.09935e-08
4.53216e-08
1.12817e-08
-1.01343e-09
-1.8389e-08
1.78707e-08
-4.65103e-08
-3.30628e-08
4.73606e-08
4.73791e-08
-6.16769e-08
-1.23004e-09
-1.2175e-09
1.58987e-09
8.57665e-10
-2.4372e-08
2.35436e-08
-2.0618e-08
-2.86056e-08
-2.26091e-08
5.12147e-08
-2.35849e-07
1.93095e-07
-5.75874e-08
1.66103e-08
-7.4361e-09
3.66058e-08
-3.66762e-08
7.50653e-09
-5.19988e-08
-1.3463e-06
2.14849e-07
1.13145e-06
5.34637e-08
3.18359e-08
-5.10538e-08
1.92179e-08
-1.33853e-08
-5.01232e-08
4.99296e-08
1.90854e-06
-1.86904e-06
9.19471e-07
-9.58975e-07
1.01597e-06
-1.403e-09
1.403e-09
-1.19595e-06
1.50451e-07
1.0455e-06
-1.39622e-06
-1.64186e-06
6.24031e-09
-3.82825e-10
-5.85748e-09
-3.48822e-07
3.36221e-07
-5.06891e-08
6.97377e-08
-2.44276e-07
2.25228e-07
-5.55273e-08
-1.61086e-08
5.40975e-08
4.11338e-07
-3.69965e-07
3.72614e-08
-6.32132e-08
-5.65069e-08
-2.375e-07
3.74117e-08
2.56596e-07
-9.86559e-08
6.27927e-08
3.58633e-08
-5.56456e-08
-1.46948e-08
5.56805e-07
-7.90371e-07
-8.05536e-07
1.93917e-08
-1.83041e-08
-4.71627e-09
-6.14139e-08
4.80286e-08
2.93265e-08
-2.24362e-08
-2.86106e-08
2.79141e-08
-1.67559e-08
1.66975e-08
5.68464e-08
-3.74251e-08
1.00368e-08
-2.02892e-08
1.23035e-08
-3.42861e-08
2.19826e-08
1.74954e-08
-1.6138e-08
2.15228e-08
-1.39709e-09
7.83463e-09
-3.97659e-07
3.97659e-07
1.23147e-08
-6.83622e-08
-6.00599e-08
3.57256e-09
-3.14285e-09
5.96302e-08
-5.85477e-08
6.32313e-08
2.56389e-08
-8.04826e-09
-4.70715e-08
-2.3815e-09
-5.76784e-08
2.44282e-09
-4.15145e-08
3.90717e-08
-4.92269e-08
5.18857e-08
-2.65885e-09
-1.78893e-09
-3.23699e-08
3.41588e-08
4.05379e-10
-4.64857e-08
4.56816e-08
-4.10837e-08
4.07388e-08
-5.68404e-08
3.76178e-08
1.92226e-08
-8.83086e-12
8.39204e-10
-5.76708e-08
-1.2611e-09
1.18622e-09
7.48772e-11
1.0697e-08
3.795e-08
-4.8647e-08
-1.2611e-09
1.23859e-09
-5.23688e-11
7.75788e-11
-1.05899e-09
-3.57166e-08
-5.36711e-09
9.87441e-09
4.02584e-08
4.97503e-09
-2.15854e-11
-1.22932e-10
-4.83051e-09
2.67598e-09
3.63514e-08
-3.90274e-08
-9.25225e-12
-4.81658e-11
-5.20624e-10
5.78042e-10
7.05468e-11
-7.05469e-11
-6.42683e-11
5.5016e-11
1.12975e-09
-4.8381e-10
1.32079e-10
-7.78017e-10
1.18363e-10
-3.41717e-08
3.40533e-08
1.1233e-10
-4.72011e-10
9.45115e-07
-8.33626e-07
-1.53722e-07
-2.02818e-10
-2.02818e-10
3.85243e-09
-3.98648e-08
-4.89063e-09
4.0903e-08
2.30206e-08
-1.91682e-08
-4.23153e-08
4.24841e-08
2.50724e-09
-2.7756e-09
-5.39999e-10
8.66448e-10
-3.10205e-09
-1.54319e-10
-4.78215e-08
4.71965e-09
4.31019e-08
-7.81076e-10
3.39309e-10
-7.88578e-11
1.13551e-07
-1.11408e-07
-2.1426e-09
-3.20236e-07
3.20236e-07
4.6826e-08
-3.69516e-08
-5.46246e-09
5.30605e-09
9.50975e-10
-4.58391e-08
-8.02922e-10
2.63762e-09
-1.32374e-08
1.05998e-08
-7.24798e-08
3.35266e-08
3.63687e-08
3.73499e-08
8.93109e-08
2.55096e-06
-4.13635e-08
4.43642e-09
4.11686e-08
-1.63413e-08
2.08917e-08
1.72052e-06
6.20337e-07
9.65536e-09
-9.65536e-09
9.63178e-10
-1.00946e-08
1.06052e-08
-1.47384e-09
3.39351e-07
-3.39351e-07
8.94659e-08
-5.40747e-08
-4.4581e-08
1.18637e-08
3.27173e-08
-1.39477e-08
-1.91211e-08
5.01694e-08
-3.10484e-08
3.67831e-08
1.27022e-08
6.39046e-08
3.21254e-08
-5.98817e-08
-3.61483e-08
3.68459e-08
-4.1654e-08
-4.6768e-08
-3.74531e-08
6.01883e-08
-2.84648e-08
-1.96671e-08
4.8132e-08
-3.76347e-08
-5.90726e-08
4.28193e-08
5.3888e-08
3.63737e-08
-4.36859e-08
-1.51194e-06
1.56945e-06
-5.69719e-08
1.17509e-08
4.5221e-08
-3.8813e-08
-1.21904e-08
5.10034e-08
-4.38249e-08
4.92326e-08
4.54869e-08
-4.59372e-08
1.5952e-08
-1.55017e-08
3.00436e-08
1.54433e-08
2.29613e-08
-2.04916e-08
4.31284e-08
-3.26872e-08
3.76499e-08
-5.46741e-10
7.23718e-09
-5.28164e-08
-7.53446e-09
1.13659e-09
-4.82624e-08
-8.11448e-07
2.55089e-07
3.42924e-07
-5.75884e-07
1.04038e-06
-4.64498e-07
-9.80006e-07
-3.76645e-07
7.80767e-07
-2.14075e-06
1.12825e-06
1.0125e-06
4.24098e-11
-1.23127e-11
-3.27259e-07
3.70395e-07
-3.47586e-07
3.86184e-07
-3.85983e-08
-1.75031e-06
1.09154e-06
6.58771e-07
-1.25168e-08
1.15625e-08
1.21692e-09
-2.38789e-10
-6.09021e-09
4.88407e-09
-3.65499e-08
2.04819e-08
3.2901e-08
-2.06904e-08
-3.26925e-08
-6.42683e-11
-3.23006e-09
7.86149e-09
-1.73064e-11
3.95394e-07
-3.47976e-07
-4.74181e-08
-1.11375e-11
2.35231e-11
-1.23857e-11
-8.71976e-10
8.30609e-10
4.13672e-11
-2.53158e-07
2.55907e-07
-3.84659e-07
3.81909e-07
-3.53492e-08
-2.428e-09
-5.39532e-10
2.1972e-08
-1.15922e-09
-3.63931e-08
3.75524e-08
1.42524e-11
-5.95332e-11
-6.79665e-09
6.84193e-09
3.12065e-08
9.0945e-10
-1.96194e-09
2.00081e-10
1.49907e-08
-1.47379e-08
-2.52793e-10
2.30861e-08
3.58902e-08
-3.58892e-08
-1.42165e-08
5.09413e-08
-3.67248e-08
-8.49259e-10
1.36238e-08
6.31208e-10
-1.34057e-08
3.14364e-07
2.80501e-08
-2.73333e-08
-7.16755e-10
-2.93757e-12
-8.3383e-10
8.36767e-10
2.51128e-07
-3.89434e-08
7.35994e-08
-2.85784e-07
-1.13769e-08
2.03147e-09
1.09003e-08
-1.55481e-09
9.20423e-10
-9.5984e-10