/*--------------------------------*- C++ -*----------------------------------*\
| =========                 |                                                 |
| \\      /  F ield         | OpenFOAM: The Open Source CFD Toolbox           |
|  \\    /   O peration     | Version:  v2006                                 |
|   \\  /    A nd           | Website:  www.openfoam.com                      |
|    \\/     M anipulation  |                                                 |
\*---------------------------------------------------------------------------*/
FoamFile
{
    version     2.0;
    format      ascii;
    class       surfaceScalarField;
    location    "0.03";
    object      phi;
}
// * * * * * * * * * * * * * * * * * * * * * * * * * * * * * * * * * * * * * //

dimensions      [0 3 -1 0 0 0 0];
oriented        oriented;


internalField   nonuniform List<scalar> 
5747
(
6.84865e-08
-3.96818e-08
-2.88047e-08
-1.32125e-08
-9.2798e-10
1.41405e-08
8.67285e-08
4.25872e-07
-2.02452e-07
-3.6119e-07
3.28955e-08
2.50012e-08
-2.66797e-08
-5.41155e-08
2.60061e-08
5.47891e-08
-2.08719e-11
7.43475e-09
2.49972e-10
-7.66385e-09
-1.21065e-09
-3.12041e-11
1.24186e-09
-1.21065e-09
4.60776e-08
-3.50018e-08
9.69446e-09
-2.07703e-08
3.70807e-11
-1.00739e-10
6.3658e-11
-8.04413e-11
-1.27849e-09
3.57454e-10
1.00148e-09
2.95281e-08
-1.02995e-08
-1.92286e-08
-2.86269e-08
2.39291e-09
2.6234e-08
-2.34317e-10
2.34317e-10
-3.58452e-10
-1.30784e-10
4.89236e-10
-1.85862e-09
-6.81724e-10
1.72931e-10
2.36741e-09
-6.98706e-10
-1.3456e-09
1.8569e-10
-5.15249e-09
4.47077e-09
-1.39913e-09
-4.45207e-09
-7.05386e-08
1.63523e-08
5.41863e-08
1.06245e-08
-5.72032e-08
5.76531e-08
-1.10745e-08
-2.60763e-10
1.80322e-10
-3.70807e-11
1.66679e-11
2.04128e-11
-3.18708e-09
5.37454e-09
-6.36797e-09
4.18051e-09
-3.42898e-07
-4.16392e-08
3.84537e-07
-5.6613e-09
-1.0049e-10
5.76179e-09
6.18978e-09
-5.58342e-09
3.30929e-08
-3.36993e-08
-1.04048e-09
3.73776e-08
-3.63371e-08
3.05373e-08
-5.19033e-09
-2.5347e-08
8.26945e-11
-1.93535e-09
1.85266e-09
1.46286e-09
-2.29117e-08
2.14489e-08
-3.02192e-09
1.83403e-09
1.18789e-09
6.47769e-09
-1.25489e-09
-5.22281e-09
-1.30691e-08
1.27796e-08
1.97847e-08
-1.94952e-08
-3.57933e-09
3.26845e-09
3.07344e-10
3.54449e-12
2.33e-08
4.18777e-10
-2.37187e-08
1.19388e-08
-1.19388e-08
2.86434e-08
-5.34341e-09
2.87293e-07
-2.87294e-07
-3.01771e-07
3.01771e-07
-6.54681e-09
3.03448e-08
-2.3798e-08
-4.52094e-08
2.58559e-07
-2.13349e-07
-4.33782e-10
-5.03003e-08
5.07341e-08
-1.18512e-08
-2.53828e-07
2.65679e-07
-4.6973e-10
-1.67732e-08
1.7243e-08
1.50809e-09
-1.50809e-09
2.00411e-06
4.88942e-09
-2.009e-06
7.04634e-09
-1.15683e-08
-7.84431e-09
1.23662e-08
3.80762e-08
-5.68567e-08
5.97682e-08
-4.09878e-08
-8.0641e-07
8.0641e-07
1.37327e-06
-2.43199e-07
1.19251e-07
-1.24932e-06
-3.00021e-07
9.97603e-07
-6.97582e-07
-2.08223e-09
2.35558e-08
-2.14736e-08
-6.10409e-08
1.92699e-06
-1.86595e-06
-3.51189e-09
-1.93533e-08
2.28651e-08
-8.457e-10
1.97477e-08
1.13238e-09
-2.00344e-08
3.82321e-08
-5.05417e-08
1.23095e-08
2.01873e-08
3.96182e-10
-2.05835e-08
7.5055e-09
-4.15231e-08
3.40176e-08
-1.6819e-07
-6.12212e-08
9.56689e-08
1.33743e-07
-6.71231e-08
3.54235e-07
-2.87112e-07
5.69631e-09
-2.19793e-08
2.37885e-08
-1.55701e-07
4.84938e-07
-3.29238e-07
-2.87066e-09
1.87923e-08
-1.59216e-08
2.46422e-08
-2.37144e-08
-3.79842e-09
-1.71773e-08
1.13033e-08
1.87379e-08
-1.28638e-08
2.89249e-08
-4.28271e-09
1.42905e-10
-1.42905e-10
5.67231e-09
-5.67231e-09
1.41039e-09
-2.76218e-09
1.35179e-09
-2.29306e-08
-1.25576e-06
1.25576e-06
-9.08112e-07
-1.19221e-06
1.06793e-06
1.03239e-06
9.34518e-08
-1.84225e-07
-1.39518e-07
2.30291e-07
2.95973e-09
2.59651e-08
-2.39095e-06
2.39117e-06
-2.16679e-10
-3.67819e-07
3.90965e-07
-2.31451e-08
-3.70251e-08
7.47701e-08
-3.7745e-08
1.14994e-09
-1.14994e-09
2.12008e-08
2.73299e-08
-4.85307e-08
-3.47805e-09
-3.37223e-12
-9.7917e-11
1.29587e-07
-1.69724e-07
1.0872e-06
-1.04706e-06
2.76159e-08
-2.92705e-08
2.28554e-08
2.4918e-08
2.53247e-08
-2.29127e-08
-2.58965e-07
9.24531e-08
2.16825e-07
-5.03133e-08
1.04139e-07
-6.83105e-08
-3.58283e-08
5.25338e-08
8.21876e-10
-3.05731e-10
-1.76026e-08
1.70864e-08
5.58788e-10
2.26195e-08
-2.31783e-08
-2.56136e-08
2.64355e-08
-3.94463e-08
4.22981e-09
3.52165e-08
-2.51698e-08
2.51694e-09
2.26529e-08
6.56791e-09
-7.01051e-09
4.42594e-10
6.23348e-09
3.34436e-10
6.23348e-09
-3.2148e-08
3.18854e-08
1.72546e-09
8.25784e-10
-8.25783e-10
1.09573e-06
-2.24179e-07
1.55883e-07
-1.02743e-06
-2.15342e-08
-8.51007e-09
3.00442e-08
1.68099e-08
-1.61529e-08
-6.57038e-10
5.66858e-09
3.08511e-10
-5.97709e-09
-1.15388e-08
1.06448e-09
1.04743e-08
1.63152e-08
-4.74158e-10
9.68862e-10
3.59368e-10
-5.73961e-11
6.29321e-09
-6.59518e-09
-1.28265e-08
2.55886e-10
1.29299e-08
1.38941e-08
1.00369e-10
-1.39945e-08
-1.82136e-09
1.8663e-09
-4.49419e-11
-1.70871e-09
1.64097e-09
6.77335e-11
1.35261e-08
-1.32958e-08
-2.3028e-10
-1.82253e-09
-1.37496e-08
1.55721e-08
6.99599e-10
7.55446e-10
-1.33802e-08
-6.71019e-10
-2.49129e-07
-6.73249e-08
4.52902e-08
2.71164e-07
-2.15114e-07
4.97207e-08
-8.82601e-08
2.53653e-07
-1.70122e-07
-4.49914e-08
-3.75728e-07
3.75728e-07
2.91216e-07
-5.48452e-07
4.61848e-07
-2.04612e-07
-2.3583e-09
-3.7337e-07
1.43346e-09
-1.97795e-09
-1.39881e-09
1.9433e-09
9.9147e-09
-1.83664e-09
-1.05237e-08
2.4456e-09
2.19342e-08
-2.11787e-08
-2.55351e-13
5.62363e-10
-5.62108e-10
-4.81163e-08
-2.26979e-08
2.63383e-08
4.44759e-08
2.30128e-09
-6.54933e-11
-2.21649e-09
-1.92917e-11
-1.83311e-09
-1.14293e-08
1.20353e-08
1.22707e-09
3.16215e-08
-7.97378e-08
-3.61477e-09
-1.46082e-08
1.8223e-08
-4.8099e-09
2.98385e-08
-1.88505e-08
1.88505e-08
8.6404e-08
-3.14632e-08
-5.49408e-08
8.37021e-11
6.11581e-09
-6.07343e-09
-1.26085e-10
-4.50707e-08
-7.05594e-08
1.1563e-07
4.48189e-08
-2.57099e-07
-6.01254e-08
2.72406e-07
-3.89029e-08
8.02363e-08
-6.09708e-09
-1.96235e-09
8.05943e-09
3.98513e-08
1.33342e-06
-7.92033e-09
1.49667e-08
4.13366e-09
-4.72634e-09
9.93714e-09
-9.34446e-09
-1.24948e-08
3.41231e-08
-3.49015e-08
1.32732e-08
-1.98344e-09
6.1171e-09
1.43321e-09
-9.32574e-08
-1.05268e-11
-1.23387e-11
2.28654e-11
5.0574e-08
-5.19408e-08
-3.82092e-08
3.95761e-08
3.31051e-08
-5.80221e-08
2.4917e-08
4.35089e-07
-3.9027e-07
-9.30991e-08
-1.39788e-07
-2.44554e-07
2.31207e-07
1.53135e-07
-4.53614e-07
3.13826e-07
3.94671e-07
-4.24646e-08
-3.52206e-07
-1.0846e-06
1.41392e-06
-3.29325e-07
4.50642e-07
2.58434e-07
-7.09075e-07
2.06088e-07
-5.18479e-07
3.233e-07
-1.01046e-06
2.75032e-07
1.06906e-06
-3.33629e-07
6.22819e-09
-5.98468e-09
-2.4351e-10
2.09759e-08
9.58306e-10
2.09436e-08
7.31881e-10
2.00824e-06
-2.93145e-07
-1.71509e-06
-4.67132e-08
4.22844e-08
-4.63719e-08
5.08007e-08
-1.93922e-09
1.93922e-09
4.07226e-08
-6.58899e-08
2.51673e-08
-6.19025e-08
-1.27713e-07
1.89615e-07
-1.27776e-08
-9.40824e-09
2.21859e-08
2.80678e-11
-2.21159e-11
-5.95203e-12
2.85508e-08
-2.83898e-08
-1.60965e-10
4.96355e-08
2.76646e-07
-3.26282e-07
-1.84941e-07
-3.54235e-07
2.59503e-07
2.79672e-07
2.74021e-07
-6.68453e-08
4.77161e-08
-2.54891e-07
-2.69356e-10
2.09765e-08
-2.07071e-08
-3.8876e-11
1.19634e-10
3.18769e-09
4.0378e-08
-5.20208e-08
1.16428e-08
-3.00513e-09
5.8422e-09
-2.83707e-09
2.06346e-09
-2.06887e-08
1.86252e-08
-2.2745e-07
1.76063e-07
5.13864e-08
-1.07559e-07
8.13546e-08
2.6204e-08
1.92756e-09
1.09161e-09
-1.58596e-09
1.35444e-08
3.49745e-10
-2.9635e-07
-3.78323e-07
6.74674e-07
-4.52072e-07
4.51127e-07
9.45238e-10
-9.08112e-07
-3.42898e-07
7.1544e-08
-2.54664e-08
-3.09191e-08
9.07071e-10
3.04057e-08
-3.93709e-10
-1.0162e-09
-2.99029e-08
-9.60854e-09
-7.05721e-09
1.66657e-08
2.32102e-11
1.80083e-11
-6.93396e-11
2.81208e-11
-2.14289e-08
3.74474e-08
-3.71619e-08
2.11434e-08
3.66065e-08
5.53477e-09
-4.21413e-08
2.80251e-08
-2.41246e-08
-3.90044e-09
-8.94328e-09
4.65573e-09
4.28755e-09
4.43536e-08
-1.89873e-10
-4.41638e-08
-3.99215e-09
8.05069e-10
-2.21448e-07
-7.85922e-08
2.38138e-07
4.05403e-08
1.16239e-09
-4.17027e-08
-9.47083e-10
-1.64039e-11
9.63487e-10
-9.3762e-09
-1.1925e-10
9.49545e-09
3.11536e-08
-1.33167e-09
-3.16906e-08
1.86866e-09
3.00654e-08
1.77945e-09
-1.27747e-09
-3.05674e-08
-3.52737e-09
-1.555e-08
1.90774e-08
4.34274e-08
1.98104e-07
-2.41532e-07
-1.78335e-08
1.78667e-08
-3.31806e-11
5.8684e-09
-4.08702e-08
-1.59335e-08
1.82745e-08
6.73846e-08
4.15937e-09
-1.90774e-08
1.41689e-08
4.90851e-09
-2.12007e-09
1.52608e-09
-9.01454e-09
1.49409e-08
-1.70609e-08
8.63029e-09
-1.89162e-08
1.02859e-08
1.6514e-08
1.32126e-08
-1.5176e-10
-1.30609e-08
-1.25922e-08
1.48947e-10
1.24433e-08
9.69643e-11
-3.43086e-10
-1.23461e-08
1.18139e-09
-7.06032e-11
-1.11079e-09
1.18139e-09
-5.43897e-09
2.19529e-08
6.07461e-09
-5.0488e-09
-5.01796e-09
6.10514e-07
-6.10514e-07
-8.89675e-08
-6.04476e-08
7.74507e-08
7.19643e-08
4.84621e-08
-4.85442e-08
1.20361e-08
-1.1954e-08
-9.38059e-08
2.40884e-07
-1.47078e-07
3.07458e-08
-5.83994e-08
2.76537e-08
-1.5395e-08
8.7648e-10
-5.14324e-10
1.50328e-08
2.30249e-06
2.30035e-07
-5.24292e-07
-4.48656e-07
-2.29537e-06
2.45088e-06
5.86668e-10
2.02764e-08
-7.29345e-10
-2.01337e-08
1.30495e-08
-1.31937e-08
1.44206e-10
-2.78457e-10
1.30944e-08
-1.2816e-08
6.59052e-11
-3.64227e-11
-1.2639e-08
1.26095e-08
-1.47788e-08
-6.16161e-10
4.34011e-09
-4.14987e-09
-4.76454e-08
4.74551e-08
-3.16647e-08
-2.53736e-08
5.70383e-08
2.92989e-11
-1.42963e-09
5.47254e-11
4.47165e-09
-3.94851e-08
3.50135e-08
-1.17288e-09
1.7834e-09
-1.45654e-09
-3.26869e-10
1.24629e-08
-1.24629e-08
2.56177e-08
-2.46623e-08
-9.55425e-10
-6.61163e-10
1.10904e-09
3.25823e-08
9.90848e-09
-3.39777e-08
-8.5131e-09
-1.04134e-08
-1.9269e-08
2.96824e-08
-3.25667e-08
1.11378e-08
1.23456e-06
-4.74496e-07
-1.13378e-06
3.73716e-07
-2.40271e-07
2.55043e-07
-1.47717e-08
-5.77058e-08
4.01596e-08
1.75463e-08
3.84595e-10
7.03875e-11
1.0054e-08
2.61262e-10
-1.03856e-08
-3.84826e-08
3.87247e-08
1.66495e-08
-1.68916e-08
-3.06801e-08
-2.16559e-09
2.95592e-08
3.28652e-09
-8.32638e-08
-2.1792e-06
2.26246e-06
3.74903e-08
9.35907e-09
-8.41627e-09
-3.84331e-08
2.04414e-09
-2.04414e-09
2.90584e-09
-4.04932e-10
-2.5009e-09
-7.9556e-07
-9.61565e-07
1.75712e-06
-3.684e-08
2.43452e-08
-1.37884e-08
1.81786e-08
-4.3902e-09
9.15749e-10
-5.89327e-10
-3.26422e-10
2.05282e-08
-1.21225e-09
8.71377e-10
3.97248e-08
2.03205e-08
1.7726e-07
-7.71852e-07
-2.6425e-07
8.58843e-07
2.5278e-07
-2.58592e-07
3.26601e-07
-3.2079e-07
-1.42627e-06
1.12992e-06
-2.70997e-08
-4.91379e-07
7.83952e-11
4.63926e-11
-2.23197e-09
2.10719e-09
7.17976e-08
-3.37214e-08
-4.53049e-10
-1.10857e-08
-5.21389e-09
5.01722e-09
-2.56385e-10
-1.68894e-09
1.73106e-08
-1.56217e-08
1.27049e-08
-1.33293e-08
1.77234e-08
-6.44366e-08
2.11703e-09
1.05879e-08
5.66858e-09
-6.94134e-10
-1.93529e-09
4.19905e-08
9.1345e-09
-1.20627e-08
-3.90623e-08
2.90184e-09
-2.90184e-09
-1.20607e-09
1.4334e-08
-1.3128e-08
-5.62296e-10
9.29227e-09
8.65194e-10
-9.59517e-09
5.69263e-09
-6.25492e-09
-5.04344e-10
9.79661e-09
-3.37597e-10
5.52588e-09
2.96724e-08
-2.84415e-08
-3.26334e-08
4.25022e-08
-3.53352e-08
-3.0158e-08
-4.1867e-08
2.53982e-08
4.66268e-08
-3.42391e-08
-4.74641e-08
8.17032e-08
-9.08049e-08
-1.97887e-08
1.10594e-07
-1.32779e-06
3.62104e-08
-7.44689e-08
3.82585e-08
1.1961e-08
2.31214e-09
-1.42732e-08
3.05828e-07
-3.05828e-07
6.63784e-07
1.85042e-06
-1.70009e-06
-8.14118e-07
3.9121e-07
3.46067e-09
-1.40774e-06
2.07152e-06
1.87478e-06
-1.19014e-07
-7.43496e-08
-1.68142e-06
4.67042e-07
2.96446e-07
7.02384e-08
-3.66685e-07
-1.4389e-08
-5.6716e-09
6.27214e-09
-3.04007e-07
3.04007e-07
2.48104e-08
-1.47695e-08
1.621e-08
-2.6251e-08
-2.06026e-08
5.75948e-09
-4.3084e-09
1.91515e-08
4.76475e-09
-4.16817e-08
3.69169e-08
9.08854e-09
-5.92405e-08
5.01519e-08
-9.70022e-09
-4.25627e-08
5.2263e-08
1.10632e-08
-1.03654e-08
4.66865e-08
-4.73843e-08
1.04381e-07
2.21202e-08
-1.26501e-07
1.2589e-08
6.31007e-07
-9.31027e-07
3.65545e-08
7.84552e-09
-4.44e-08
2.26408e-08
2.58213e-08
7.35692e-10
2.66611e-08
-2.73968e-08
-4.69386e-08
-3.86604e-09
5.08047e-08
5.59688e-08
-5.19842e-08
4.11797e-08
-4.51643e-08
-1.04141e-08
-3.11091e-08
-9.70118e-09
4.60599e-09
1.05174e-08
-5.42218e-09
-2.48508e-08
1.98933e-08
4.95759e-09
6.22819e-09
6.94235e-08
2.34795e-08
-2.11054e-08
4.81718e-08
2.89224e-09
-5.1064e-08
-1.83278e-09
1.83278e-09
1.50119e-09
2.69072e-07
-2.70573e-07
7.99402e-07
3.58293e-09
-3.0841e-07
-5.82978e-09
3.1424e-07
1.39277e-08
-1.25513e-08
-1.37634e-09
3.24521e-10
-3.24521e-10
-1.6513e-08
3.15024e-08
-1.49894e-08
-1.80707e-08
-3.10777e-10
1.83815e-08
1.82734e-08
-4.12573e-10
6.17571e-10
-1.84784e-08
-1.22215e-10
5.64768e-10
-2.99323e-08
2.94897e-08
1.81512e-08
5.33017e-08
-2.7863e-08
-2.54387e-08
-6.48378e-11
1.56406e-09
-1.49923e-09
5.25086e-11
1.05076e-09
-1.10327e-09
6.18962e-08
1.56736e-08
-1.51949e-08
-6.23749e-08
-3.80704e-07
6.13236e-07
4.31937e-07
-6.82043e-07
-4.14325e-08
-3.44969e-07
3.86402e-07
-2.10382e-09
2.10382e-09
-1.49026e-09
1.49026e-09
4.57975e-09
-5.43377e-08
4.97579e-08
1.54553e-08
-4.86059e-08
3.31506e-08
4.78962e-08
2.57934e-08
-7.36896e-08
-2.76104e-08
2.45876e-08
3.02287e-09
-3.76366e-09
-3.11378e-08
-4.68782e-10
-2.16539e-10
7.21402e-12
-2.29058e-11
1.56917e-11
3.6544e-08
-8.96669e-09
-2.75773e-08
-2.20697e-08
5.87631e-08
-3.66934e-08
5.73188e-09
-3.57337e-10
-2.92847e-08
-1.92595e-08
4.29418e-08
-3.90194e-08
-3.92243e-09
2.90562e-08
3.12803e-09
-2.96673e-08
3.51405e-08
5.07198e-08
-3.67686e-08
-4.90917e-08
4.38844e-09
-3.74709e-09
1.67209e-08
-1.73622e-08
1.01049e-08
-4.86836e-08
4.82565e-08
-9.67776e-09
-3.75408e-08
4.92372e-08
-1.16964e-08
2.09162e-08
-2.07671e-08
-1.35519e-09
3.63638e-08
-4.12884e-08
4.92466e-09
4.82017e-08
-3.75771e-08
1.31902e-08
-1.31154e-08
-1.71549e-10
9.67224e-11
-5.06513e-08
4.59593e-08
4.692e-09
-5.46161e-09
-1.98128e-11
5.48142e-09
-1.01034e-06
-1.02557e-06
2.03592e-06
-1.71833e-07
2.05107e-06
-1.87923e-06
-4.47501e-08
3.31537e-08
1.15965e-08
3.57932e-08
3.1464e-09
-3.6321e-08
-2.6186e-09
3.09473e-07
-2.04877e-07
2.86772e-07
-3.91368e-07
9.92299e-08
-7.28916e-08
5.71918e-09
-5.83153e-09
-1.86416e-08
1.8754e-08
4.6544e-08
-1.4035e-07
-1.53478e-08
4.79301e-08
1.0866e-06
-5.42401e-07
5.77996e-07
-8.88188e-07
-5.02163e-07
1.39035e-06
4.17658e-08
2.18357e-09
-4.39493e-08
2.40152e-09
3.7907e-08
-4.03085e-08
2.24304e-10
-1.7589e-08
1.73647e-08
-4.88944e-07
1.57555e-06
-5.17335e-08
-9.50298e-09
6.12365e-08
-2.63525e-09
2.58758e-09
4.76715e-11
1.78278e-09
2.62423e-08
2.27687e-08
-4.77075e-08
-2.29726e-08
4.79115e-08
1.8016e-08
-4.31091e-08
2.50931e-08
3.61212e-08
6.66495e-09
-4.27861e-08
-3.83835e-09
1.19826e-08
-8.14429e-09
5.22477e-08
-4.97486e-08
-2.49912e-09
-4.5218e-09
-3.51473e-08
3.96691e-08
9.66704e-10
-1.34286e-08
1.24619e-08
-4.5352e-08
1.68594e-08
4.62161e-08
-3.10582e-08
3.38706e-08
2.99701e-08
-3.27825e-08
3.65532e-08
-2.74728e-10
-3.68092e-08
5.30751e-10
6.58628e-09
2.35948e-08
-3.01811e-08
-3.33547e-08
3.25861e-08
7.35494e-09
-2.11429e-08
2.57125e-08
-4.56961e-09
3.2463e-09
-3.44461e-10
-3.76411e-10
1.91904e-08
-1.8814e-08
-8.80318e-09
8.27769e-09
5.25487e-10
-2.7344e-08
2.82365e-08
-8.92498e-10
1.53122e-08
9.49826e-09
-1.89277e-08
7.67883e-09
-9.21627e-09
2.04651e-08
-9.12517e-09
4.23154e-09
-4.04964e-09
-1.57374e-08
1.45366e-08
-1.91675e-08
-1.14437e-08
2.94094e-08
-4.62417e-09
-2.47852e-08
6.62101e-09
-7.122e-09
3.66221e-08
-1.57895e-08
-4.78521e-08
1.52719e-08
4.83697e-08
-2.38575e-09
2.76407e-07
5.10913e-08
-8.37247e-08
2.33693e-06
-2.13539e-06
-3.73375e-07
-3.28528e-07
3.28528e-07
-2.04094e-08
4.11929e-08
-2.07835e-08
4.05959e-08
2.88276e-08
9.33638e-10
-1.31474e-09
1.7915e-09
-2.7081e-08
2.1137e-09
-1.60835e-09
2.65757e-08
2.91407e-10
6.08901e-11
-3.52297e-10
-5.52674e-09
5.52674e-09
1.38373e-09
-1.6825e-08
1.54413e-08
-5.22575e-07
-2.33079e-06
4.50327e-07
2.40304e-06
-1.00998e-06
7.68455e-07
2.41522e-07
-1.2683e-07
1.5806e-06
-3.20526e-08
7.02931e-08
-3.82405e-08
-2.13337e-07
8.15021e-08
-8.78143e-07
-1.36279e-08
-4.35753e-08
1.88595e-08
-5.54341e-08
5.44826e-08
-1.7908e-08
-5.1503e-08
4.74267e-08
4.07627e-09
4.5114e-08
-4.8581e-08
3.46697e-09
2.65434e-08
-3.3767e-08
-2.65346e-08
3.37582e-08
-9.69851e-09
2.93361e-10
-8.85492e-11
9.4937e-09
5.26962e-08
5.37025e-09
-6.66865e-09
-3.02986e-09
3.98499e-07
-2.54381e-07
-3.1424e-07
2.78346e-11
6.33715e-09
-6.28229e-09
-6.40264e-07
2.69133e-06
1.89742e-09
2.7512e-08
-1.97633e-09
3.71166e-11
2.00821e-06
-7.39961e-07
-1.90851e-06
4.77739e-08
5.04192e-09
-4.9196e-09
4.25291e-08
-1.35712e-08
1.40793e-08
-4.30372e-08
9.15749e-10
-2.98102e-09
1.43092e-08
-1.13282e-08
-1.08234e-08
1.80998e-08
-1.83942e-08
-1.3048e-10
4.24878e-10
-1.70534e-09
4.42344e-08
-8.13941e-09
-9.85753e-10
1.10874e-08
2.64029e-08
-1.39761e-08
5.8367e-09
6.66291e-09
-1.48781e-08
-5.7609e-09
8.38584e-09
-1.72293e-09
3.59666e-08
-3.40481e-08
-1.91851e-09
7.57076e-09
6.65178e-09
-3.58378e-08
-1.61309e-09
3.55785e-08
1.87246e-09
1.28767e-10
6.52955e-09
3.40759e-09
-1.41036e-08
-4.82406e-09
-8.24059e-11
1.62394e-10
-7.99882e-11
-3.95499e-08
5.77562e-08
-1.82062e-08
3.52365e-09
-3.50764e-08
3.15528e-08
-3.29982e-08
-3.11616e-08
3.50179e-08
2.91419e-08
-2.76008e-08
2.86186e-08
-3.36957e-08
3.26778e-08
9.08972e-09
6.20054e-08
-6.11622e-08
-9.93292e-09
4.73721e-07
5.81482e-07
-7.7136e-07
-3.05159e-07
-3.09194e-08
4.22168e-07
-3.94759e-07
4.08857e-08
6.72797e-08
-4.96539e-08
4.65269e-08
-6.41527e-08
-3.7199e-08
-5.92199e-08
6.43663e-08
-6.57099e-08
2.85108e-08
3.49255e-08
1.94353e-08
-3.15742e-08
-2.27866e-08
2.83897e-08
-6.11096e-08
-3.29899e-08
-3.08301e-08
3.57294e-08
-5.90957e-09
-2.98198e-08
-3.01912e-08
-6.72178e-09
3.09608e-08
5.95221e-09
5.53816e-09
-1.94075e-08
4.21761e-08
-4.37401e-08
3.70184e-08
3.38603e-07
-7.95299e-07
-2.7088e-07
7.27577e-07
2.58046e-09
1.82646e-10
-2.76523e-09
2.12726e-12
4.70953e-08
6.78558e-10
3.05736e-09
5.3886e-09
-7.07803e-09
3.31302e-08
-3.2599e-08
8.28125e-09
-2.88838e-08
2.49014e-09
-2.75861e-08
2.81342e-08
-3.03832e-09
-1.97485e-09
1.69432e-08
1.21344e-09
-1.61818e-08
7.99505e-09
-7.99505e-09
-1.68174e-08
1.75221e-08
2.255e-09
1.58653e-08
-1.00445e-08
-1.64327e-08
1.06119e-08
1.18543e-10
1.64929e-09
-1.76783e-09
4.71368e-08
-2.18121e-08
3.78848e-08
2.29634e-08
9.61724e-12
9.406e-10
-9.50217e-10
-6.38058e-08
4.10069e-08
2.27989e-08
-1.18236e-08
1.22999e-08
-4.76298e-10
3.71899e-08
3.00794e-08
-2.93845e-08
4.73794e-09
-6.13707e-09
-4.37579e-08
1.1301e-08
3.24569e-08
-2.57493e-08
2.679e-08
1.81651e-08
-1.82678e-08
1.06942e-09
5.23103e-12
-2.92165e-08
2.8715e-08
4.96297e-10
6.19243e-07
6.15317e-07
-1.58523e-09
8.6003e-11
1.49923e-09
-4.61676e-08
-8.38197e-07
8.84365e-07
3.43114e-07
-4.61327e-07
1.18213e-07
2.42969e-10
1.29432e-08
2.64134e-11
-1.29092e-08
1.73803e-10
1.27354e-08
5.30464e-09
-5.38818e-09
4.62672e-11
3.7271e-11
-3.01563e-10
3.30861e-10
5.59884e-10
-2.87056e-10
-3.34856e-10
6.20283e-11
-5.21511e-07
5.8035e-07
-4.75263e-07
5.38981e-07
4.72562e-07
-2.19782e-07
-2.75691e-08
-3.7324e-09
3.13015e-08
-2.94625e-08
3.37735e-08
-4.31099e-09
-4.42289e-09
3.83113e-08
-3.38885e-08
4.10832e-09
-3.33145e-08
2.92062e-08
-6.08108e-07
-3.34651e-07
9.42759e-07
-1.02019e-07
-5.22636e-08
4.67242e-08
-2.09088e-08
-3.60328e-08
5.69417e-08
-1.06263e-06
-1.94536e-08
1.79382e-08
1.5154e-09
8.57484e-10
2.71332e-08
-2.73122e-08
-6.78454e-10
-5.54737e-08
5.35121e-08
-4.84921e-08
5.04538e-08
2.39061e-08
-4.04355e-08
1.65294e-08
-1.10048e-10
-6.1573e-09
6.26735e-09
2.76755e-08
-4.57714e-08
1.80959e-08
2.02846e-08
2.83798e-08
-2.09889e-08
-2.92158e-08
5.15421e-08
-2.23264e-08
-2.38194e-07
2.37634e-07
3.4716e-07
-3.466e-07
8.99942e-09
-4.68049e-10
-8.53137e-09
-2.18653e-08
2.53088e-08
-2.19187e-08
-3.39003e-09
3.07515e-09
-1.13593e-09
-1.49721e-08
-2.88141e-08
4.37862e-08
2.18034e-08
-1.2752e-09
1.60776e-10
-8.79224e-09
8.75001e-09
-8.00052e-12
1.23387e-11
-4.33833e-12
2.10664e-06
-1.67202e-06
-4.34621e-07
-3.51656e-09
-1.56509e-08
-1.03775e-08
-5.13612e-08
1.02356e-08
1.86041e-08
-2.73882e-09
-5.75604e-09
4.70652e-09
-6.58818e-07
-6.21229e-07
1.28005e-06
9.94835e-13
-9.94855e-13
-8.9946e-07
1.12351e-06
-2.24047e-07
-7.80402e-07
9.77896e-07
-1.09695e-06
-1.54857e-06
7.68167e-07
-8.07869e-10
8.34113e-10
-2.62433e-11
-4.34352e-07
2.38877e-07
1.95474e-07
-1.00967e-08
-2.8281e-09
-4.1674e-08
-2.46034e-08
4.17713e-08
2.45062e-08
-1.76078e-09
1.76078e-09
-3.2621e-08
-9.97112e-09
4.25921e-08
-8.24028e-12
8.24018e-12
1.88314e-09
1.47826e-08
3.0549e-07
-6.57165e-07
3.51675e-07
1.64298e-08
3.67852e-07
-2.44931e-07
-3.50371e-07
3.31325e-08
-1.64353e-08
6.89136e-09
-2.35885e-08
-3.76503e-09
7.71795e-11
3.68785e-09
2.64246e-08
-2.65521e-08
2.09856e-08
3.4311e-10
-3.58809e-10
1.43497e-08
-3.22002e-08
-1.45569e-09
3.19505e-08
5.60519e-09
-5.60519e-09
6.43209e-08
-1.72256e-08
-1.3408e-06
1.17722e-06
1.19597e-06
-1.03239e-06
1.89509e-08
-2.155e-08
-6.35047e-08
6.61038e-08
-5.40186e-08
4.11099e-08
-4.23821e-08
5.52908e-08
3.16182e-08
-2.07111e-08
-3.23542e-08
2.14471e-08
6.13334e-08
-2.83731e-08
-3.29603e-08
-5.27807e-08
4.24032e-08
-4.03206e-08
2.46822e-09
3.78524e-08
1.09608e-06
6.69977e-07
8.73811e-09
-7.43059e-10
-1.31865e-08
1.90206e-08
-5.83417e-09
8.67142e-09
2.71159e-08
-3.57874e-08
4.9823e-10
8.74017e-09
-9.2384e-09
-1.28985e-09
-1.87061e-08
1.9996e-08
2.0283e-08
1.98107e-08
1.314e-08
1.69324e-08
-3.00723e-08
-4.95171e-09
-8.37764e-09
-2.47617e-08
2.74789e-08
-2.71717e-09
-1.47474e-11
1.00777e-09
-9.93026e-10
5.26647e-08
-5.08209e-08
-4.8032e-08
4.61882e-08
-5.82777e-08
3.1598e-08
9.20916e-09
-4.00488e-09
4.00221e-08
4.3608e-09
2.55346e-11
-1.78632e-09
4.60962e-09
-3.26561e-08
3.21761e-08
-4.1296e-09
9.54861e-09
-1.01833e-08
-3.1932e-08
-5.04122e-07
3.34398e-07
-2.21455e-08
-3.97066e-08
2.14166e-08
1.27325e-07
-5.61677e-07
-8.36751e-08
-6.10369e-07
6.94045e-07
2.38994e-07
7.30342e-09
-2.46297e-07
7.28087e-07
-1.80137e-07
-6.72347e-07
1.24397e-07
-2.7502e-07
2.12434e-07
6.25858e-08
-9.25696e-07
3.17588e-07
5.01733e-07
-6.24668e-07
1.22935e-07
4.52713e-07
-4.97922e-07
-1.99395e-07
2.47886e-07
-4.8491e-08
3.27144e-07
-2.6798e-07
4.73358e-07
-3.71191e-08
5.46161e-09
-5.4514e-09
-1.02049e-11
1.28703e-08
-1.34438e-08
-5.71324e-08
-4.23621e-08
3.56973e-08
6.66486e-09
-3.0449e-08
1.14157e-09
2.93075e-08
-1.12379e-10
-1.2427e-08
1.25394e-08
1.08604e-06
-9.08784e-07
5.9308e-08
8.84117e-10
-6.01921e-08
-3.30354e-10
1.35206e-08
6.43162e-08
4.58437e-09
1.16e-09
-9.64076e-10
-1.20195e-08
6.53552e-09
-6.25979e-09
-2.75733e-10
2.02973e-08
-1.49032e-08
-5.39406e-09
-2.36469e-08
2.80353e-08
1.76487e-08
-2.13958e-08
3.05733e-11
-2.64891e-10
-3.06434e-11
-1.21727e-09
-6.72685e-11
6.29973e-09
-6.23246e-09
-3.83267e-08
-1.56919e-08
4.92253e-08
-4.21023e-08
4.36238e-08
-5.07468e-08
-4.6748e-08
-1.98439e-08
1.96533e-08
2.62639e-10
-1.33276e-08
1.34611e-08
-8.42133e-11
5.64582e-09
-5.71336e-09
-1.04074e-08
2.6422e-08
-1.60146e-08
-2.60608e-08
6.09863e-08
-4.29325e-08
3.18105e-08
1.1122e-08
-4.48246e-08
5.28333e-09
4.4417e-08
-4.87569e-09
-2.23454e-08
2.32219e-08
-5.80476e-08
2.69894e-08
-3.66587e-07
3.66587e-07
-2.4829e-08
-2.31514e-08
4.79804e-08
2.07701e-08
2.63666e-08
4.88493e-08
2.44547e-08
-2.07672e-08
4.39067e-08
-2.31395e-08
-5.12691e-07
-2.59161e-07
7.36815e-08
-1.77126e-08
2.66626e-08
-7.42592e-11
-9.87712e-10
1.06197e-09
1.12161e-08
-4.3584e-11
-1.16423e-08
-2.25194e-08
2.91751e-09
-3.52753e-09
2.31294e-08
-5.67726e-08
-8.97545e-09
6.5748e-08
-2.12766e-08
1.15754e-08
5.52699e-08
-2.60521e-09
2.97137e-08
-1.54887e-08
-1.4225e-08
2.97086e-08
-7.9887e-08
3.62508e-07
-3.1233e-07
-5.28617e-10
3.04811e-08
5.84849e-10
6.08485e-08
-6.28185e-08
2.57069e-08
-2.37369e-08
-3.69289e-08
-2.04172e-08
5.73461e-08
2.70395e-07
2.02168e-07
-4.00044e-08
3.42162e-08
5.78819e-09
2.43219e-10
-1.87043e-10
-4.00606e-08
-1.73047e-08
5.1521e-08
2.6203e-07
1.55384e-07
-3.7087e-07
-1.99483e-08
4.75446e-08
-4.49011e-08
4.58723e-08
-4.34505e-08
-2.42175e-09
5.64092e-07
5.21953e-07
-4.73592e-08
5.5726e-08
-8.36685e-09
7.70716e-08
3.54606e-08
-3.30026e-08
-7.95296e-08
-2.15002e-09
-2.4931e-08
2.01829e-08
5.68887e-08
-3.05947e-08
-1.04507e-07
1.35102e-07
-3.06468e-08
7.4879e-08
-3.13747e-07
3.04415e-07
9.33262e-09
-3.71238e-08
5.14724e-09
3.19765e-08
-3.71487e-08
-9.39511e-09
4.65438e-08
5.38942e-09
-3.10598e-08
2.56704e-08
4.69626e-07
-9.82318e-07
4.88875e-08
-3.77351e-09
-3.6564e-07
4.15361e-07
-4.19221e-08
3.44461e-08
7.47597e-09
1.40607e-08
-2.60744e-08
1.20137e-08
-1.65522e-08
1.78264e-09
-3.22256e-09
-7.60086e-09
4.52431e-07
-4.53685e-07
1.25343e-09
-1.04442e-08
-3.24883e-08
-1.11781e-08
3.85132e-08
-3.77794e-08
-7.25e-09
7.07868e-09
-3.18573e-08
3.20286e-08
-3.76557e-08
5.07028e-10
2.879e-08
-3.604e-08
3.6799e-08
3.03757e-10
-1.06422e-08
1.00223e-08
-2.93793e-08
2.99992e-08
2.61568e-08
-1.99969e-08
-1.96297e-09
2.7619e-11
-3.09046e-08
-3.49444e-09
3.4399e-08
-7.01051e-09
2.03621e-08
-9.75323e-09
2.25237e-08
-9.10919e-07
2.72033e-07
-2.72033e-07
2.0791e-08
-4.06749e-08
1.98839e-08
-4.92259e-08
6.5859e-08
-1.66331e-08
-5.6613e-09
4.25374e-08
-4.50611e-08
4.31196e-08
1.00617e-08
5.23991e-09
-1.53017e-08
4.27034e-08
-2.23504e-07
1.80801e-07
-1.66487e-08
2.97887e-08
2.00163e-07
-2.64432e-07
3.31882e-07
-2.67613e-07
-1.54378e-08
1.4369e-08
1.06877e-09
2.43544e-08
-4.64999e-08
-2.91113e-07
2.88727e-07
-2.79166e-07
-2.85513e-07
2.06721e-07
3.57958e-07
1.97025e-09
-2.02765e-09
-2.83298e-08
1.23939e-08
-1.16746e-08
-3.57958e-07
-2.04452e-08
4.47996e-08
1.08945e-08
-9.79822e-10
-1.78713e-08
1.73577e-08
-4.59863e-08
-3.29979e-08
4.72933e-08
4.72696e-08
-6.1565e-08
-1.17464e-09
-1.16841e-09
1.52083e-09
8.22227e-10
-2.46608e-08
2.38049e-08
-2.00529e-08
-2.90142e-08
-2.23437e-08
5.13579e-08
-2.3244e-07
1.89976e-07
-5.80529e-08
1.63789e-08
-7.32451e-09
3.73112e-08
-3.73849e-08
7.39828e-09
-5.26766e-08
-8.51596e-07
1.59118e-07
6.92478e-07
5.41706e-08
3.18673e-08
-5.07841e-08
1.89168e-08
-1.34595e-08
-4.98933e-08
4.9725e-08
1.71278e-06
-1.66472e-06
8.11789e-07
-8.59846e-07
9.17218e-07
-1.35305e-09
1.35305e-09
-1.04118e-06
1.21694e-07
9.19489e-07
-8.48237e-07
-1.1225e-06
6.35377e-09
-4.50153e-10
-5.90362e-09
-3.39022e-07
3.27171e-07
-4.75303e-08
7.12269e-08
-2.54787e-07
2.31091e-07
-5.52343e-08
-1.58538e-08
5.38626e-08
4.46925e-07
-4.04222e-07
3.72997e-08
-6.30489e-08
-5.50201e-08
-2.33896e-07
3.75937e-08
2.51324e-07
-2.09313e-08
7.36189e-08
-5.26879e-08
-5.69363e-08
-1.46082e-08
5.49684e-07
-7.75547e-07
-6.62324e-07
1.97516e-08
-1.86811e-08
-4.58241e-09
-6.11335e-08
4.7674e-08
2.90755e-08
-2.19968e-08
-2.81721e-08
2.74867e-08
-1.69292e-08
1.68346e-08
5.72573e-08
-3.7822e-08
9.69602e-09
-1.97927e-08
1.22488e-08
-3.37774e-08
2.15286e-08
1.69845e-08
-1.56513e-08
2.12863e-08
-1.41026e-09
7.88796e-09
-3.94458e-07
3.94458e-07
1.19138e-08
-6.73875e-08
-5.97899e-08
3.3029e-09
-2.87271e-09
5.93597e-08
-5.88075e-08
6.35179e-08
2.60353e-08
-8.0315e-09
-4.63061e-08
-2.69114e-09
-5.70987e-08
2.41964e-09
-4.04476e-08
3.8028e-08
-4.90955e-08
5.20003e-08
-2.90477e-09
-1.93261e-09
-3.29384e-08
3.4871e-08
3.55942e-10
-4.62991e-08
4.55093e-08
-4.00654e-08
3.97907e-08
-5.6054e-08
3.71418e-08
1.89122e-08
-7.74214e-11
8.73754e-10
-5.68503e-08
-1.22947e-09
1.15623e-09
7.32394e-11
1.04508e-08
3.76027e-08
-4.80535e-08
-1.22947e-09
1.20497e-09
-4.87379e-11
7.44521e-11
-1.02153e-09
-3.49178e-08
-5.14766e-09
9.70629e-09
3.92936e-08
4.8013e-09
-2.09036e-11
-1.18411e-10
-4.66198e-09
2.9078e-09
3.66055e-08
-3.95133e-08
-9.04882e-12
-4.6255e-11
-4.97072e-10
5.52376e-10
6.65022e-11
-6.65022e-11
-6.129e-11
5.22412e-11
1.08099e-09
-4.65553e-10
1.26891e-10
-7.42324e-10
7.34772e-11
-3.36772e-08
3.36037e-08
1.08393e-10
-4.57035e-10
8.16702e-07
-7.11454e-07
-1.51416e-07
-1.9317e-10
-1.9317e-10
3.86906e-09
-3.96137e-08
-4.91924e-09
4.06638e-08
2.28827e-08
-1.90136e-08
-4.28313e-08
4.30032e-08
2.73591e-09
-2.66447e-09
-5.21356e-10
8.36739e-10
-2.97985e-09
-1.46994e-10
-4.83683e-08
5.17224e-09
4.3196e-08
-7.48055e-10
3.26742e-10
-7.57581e-11
-1.13106e-08
3.19882e-08
-2.06776e-08
-3.10239e-07
3.10239e-07
4.57675e-08
-3.60613e-08
-5.271e-09
5.11825e-09
8.38944e-10