/*--------------------------------*- C++ -*----------------------------------*\
| =========                 |                                                 |
| \\      /  F ield         | OpenFOAM: The Open Source CFD Toolbox           |
|  \\    /   O peration     | Version:  v2006                                 |
|   \\  /    A nd           | Website:  www.openfoam.com                      |
|    \\/     M anipulation  |                                                 |
\*---------------------------------------------------------------------------*/
FoamFile
{
    version     2.0;
    format      ascii;
    class       volVectorField;
    location    "0.03";
    object      U;
}
// * * * * * * * * * * * * * * * * * * * * * * * * * * * * * * * * * * * * * //

dimensions      [0 1 -1 0 0 0 0];


internalField   nonuniform List<vector> 
3575
(
(-0.010455 -0.000558806 -0.160604)
(-0.000317753 -2.85235e-05 -0.189117)
(-4.19429 -0.579118 -63.5157)
(-0.00214558 -0.000160252 -0.160776)
(-0.0106071 0.00238802 -0.143838)
(-0.000271076 -0.000555963 -0.0287531)
(0.00116621 -0.00117128 -0.00940233)
(-0.0010948 -0.000747161 -0.00806879)
(-0.36166 -0.00795811 -0.916954)
(-0.00022914 6.29414e-05 -0.000664954)
(-0.000633316 1.6575e-05 -0.00500956)
(-0.00404851 0.00588361 -0.0695819)
(-0.0649205 -0.00343883 -0.470089)
(-0.000105035 1.07122e-05 -0.00148387)
(-0.000606587 -4.79992e-05 -0.00161553)
(-0.00994905 0.000163836 -0.00169836)
(-0.00790571 0.000392802 -0.00102244)
(-0.0181329 -0.00146859 -0.00434365)
(-0.0160941 -0.00205683 -0.00351927)
(-0.450212 -0.00948127 -0.185431)
(-0.361525 -0.0224221 -0.0990754)
(-0.000209489 -6.91116e-05 -0.00240164)
(-4.17402e-05 4.84067e-05 -0.000182665)
(-0.0103011 0.000224565 -0.0117687)
(0.429534 0.0463051 -51.6987)
(0.002422 5.3817e-05 -0.180752)
(-0.00284299 -0.000808474 -0.0971512)
(-0.00454402 4.14589e-05 -0.0959773)
(-0.00350083 9.14934e-05 -0.0846701)
(-0.00129206 -0.00156339 -0.0107738)
(-0.0039679 -0.00174465 -0.0692093)
(-0.00233093 -0.000343407 -0.00868663)
(-0.00042336 -7.97963e-06 -0.189012)
(-0.000411433 -2.46263e-05 -0.194337)
(-0.000656566 0.000790821 -0.0130493)
(-0.193101 -0.00442268 -0.0157159)
(-0.0881845 -0.000264081 -0.0168069)
(-0.246843 -0.00635626 -0.0297528)
(-1.1456 0.27862 -24.5489)
(-0.686533 0.51348 -23.133)
(-0.000636977 -0.00152806 -0.0772196)
(-0.53372 -0.0806837 -40.2755)
(-0.0217309 -0.000226864 -0.174013)
(0.739554 0.290404 -34.9976)
(-0.00260446 0.000902677 -0.0474264)
(-0.000185003 -0.000114631 -0.00702188)
(15.8141 0.957559 0.930908)
(-0.0261234 -0.00020783 -0.036495)
(-0.0132226 -0.000440832 -0.161207)
(0.544245 -0.00820417 -37.9369)
(8.4896 0.813151 1.15238)
(5.24731 0.306859 2.4949)
(-0.0178126 -0.00127604 -0.229764)
(14.1537 1.06045 0.473136)
(-0.0514729 -0.00362493 -0.339007)
(-0.00940735 0.000792796 -0.0530603)
(-0.206387 -0.0140721 -0.117099)
(-0.00492985 -0.00023791 -0.211229)
(-0.101673 -0.0061291 -0.426923)
(-3.78411 -0.133315 -6.83763)
(-0.386912 -0.0926512 -34.8694)
(-0.0946436 -0.00329846 -0.432186)
(1.29478 0.0817437 3.92536)
(-0.0363432 -0.000480833 -0.269412)
(-0.0371764 -0.00165872 -0.268706)
(0.000428206 -1.91791e-05 -0.191714)
(-0.040115 -0.0028521 -0.274649)
(-0.00116453 6.18756e-05 -0.000384202)
(0.00114007 4.8958e-05 -0.177452)
(-0.00341749 -0.000215795 -0.00834295)
(-0.0850024 -0.00628138 -0.429351)
(12.7393 0.49993 0.336124)
(18.9578 1.16628 1.19401)
(2.73434 0.276032 1.53671)
(-0.037535 -0.0022987 -0.288422)
(14.0344 0.250426 0.0516426)
(1.70329 0.142159 -33.7088)
(-0.966681 -0.0167464 -2.05258)
(-0.00106417 -0.000790764 -0.00796689)
(-0.00776361 -0.000154675 -0.175225)
(-0.000409038 0.000331038 -0.0106041)
(11.0244 0.643263 2.65363)
(-0.00843953 -0.000328088 -0.175315)
(-0.00751352 -0.000318903 -0.177393)
(-0.537488 0.229494 -38.3583)
(-0.622139 -0.0142799 -0.511011)
(-0.00808542 -0.000408141 -0.177449)
(-0.00215781 0.00255661 -0.0510341)
(-0.0698818 -0.00107787 -0.0898007)
(-0.00355797 -0.00166721 -0.0667059)
(-0.00543753 3.74473e-05 -0.114415)
(-0.00332404 -0.00108577 -0.0673328)
(5.33451e-05 3.22927e-06 -0.190491)
(5.59351e-05 1.56775e-06 -0.190588)
(-0.000176678 -8.761e-06 -0.190592)
(-0.0045708 0.00125987 -0.0878747)
(-5.55051e-05 -2.48018e-07 -0.00603149)
(3.58208 0.0321126 5.24556)
(-0.0325244 -0.000330943 -0.0877834)
(-0.00384278 0.00120996 -0.0456764)
(0.00051896 1.7811e-05 -0.190521)
(-0.000501108 -5.29274e-05 -0.190849)
(-0.00316318 0.0021769 -0.0474861)
(-0.000531746 0.000174929 -0.0275574)
(-0.00153737 0.00274715 -0.0443171)
(0.00183676 0.00211744 -0.0411344)
(0.00150054 0.00122517 -0.0110311)
(-0.00135288 -0.00145977 -0.00951218)
(-0.000189946 0.00141199 -0.0431578)
(-0.00228549 -0.000174025 -0.189336)
(-0.00218892 0.0012222 -0.0477204)
(-0.00201936 0.00117994 -0.0457528)
(0.380333 0.0294195 -41.7816)
(0.220025 0.111245 -35.8804)
(0.761043 0.0945088 -32.7494)
(-0.355236 0.559548 -25.3205)
(0.188885 0.0376946 4.89369)
(-1.12026 0.393599 -28.175)
(-0.00385355 0.000599894 -0.00491163)
(-0.00697394 0.000204453 -0.035155)
(-0.00143714 -0.000888416 -0.0607769)
(-0.00206987 6.95995e-06 -0.00209679)
(-0.766058 -0.0177514 -0.320021)
(-0.0005172 0.000418579 -0.00659907)
(-0.0789477 -0.00499473 -0.00883114)
(-0.681504 -0.0450538 -0.306241)
(-0.197802 -0.0151163 -0.0239476)
(-0.268367 -0.0239554 -0.0388606)
(-0.175692 -0.0024195 -0.0320406)
(-0.718528 -0.0473391 -0.409992)
(-0.000170232 -0.00161439 -0.01743)
(-0.825045 -0.0194802 -0.481079)
(0.692548 0.0379449 -40.9974)
(-0.781071 -0.0500954 -0.513793)
(-0.0175279 0.000377985 -0.0306421)
(6.83444 0.736205 1.21345)
(-0.0212965 -0.00187204 -0.0308138)
(-0.00973196 0.00115566 -0.0226125)
(-0.0328822 0.000260942 -0.0971187)
(-0.00707388 0.000286549 -0.0176296)
(-0.00351161 9.29839e-05 -0.00357709)
(-0.765213 -0.0118419 -0.352849)
(0.00015711 -1.218e-05 1.51476e-05)
(-0.0095207 0.00200678 -0.114322)
(-0.182498 -0.0128414 -0.177694)
(0.312705 0.0249429 -58.5023)
(-0.685881 -0.0308845 -0.352581)
(1.31036 -0.507109 2.31998)
(2.78608 -0.233184 1.66834)
(0.339149 -0.0017995 -52.6294)
(7.02265 0.0629844 2.14206)
(2.28138 -0.126842 5.35944)
(2.18368 0.0417867 4.84872)
(4.73723 0.240569 7.69946)
(13.8262 0.682215 6.07629)
(-0.00564965 -0.000390206 -0.191209)
(-0.00362183 -0.00147273 -0.0662867)
(-0.0014796 -0.00171261 -0.0628642)
(8.79693 -0.168552 1.35023)
(-0.0435535 -0.00138414 -0.190761)
(0.0017526 -0.00131328 -0.0120798)
(-0.00987549 -0.00064792 -0.153719)
(-4.11972 -0.117622 -4.07021)
(-0.0694332 -0.0015213 -0.0389031)
(-0.000227929 -3.95849e-05 -0.000212258)
(-0.000371506 0.000925301 -0.0748383)
(-27.8804 -2.12883 -45.914)
(0.112175 -0.0817879 -33.2483)
(0.779326 0.0577635 -41.4817)
(0.000231803 0.00203139 -0.0643142)
(-0.000258574 0.000319541 -0.0116256)
(-0.0162078 -0.00109527 -0.155612)
(-0.0174776 -0.00141551 -0.0109868)
(-0.00285697 -0.00142094 -0.061135)
(-0.194624 -0.152899 -38.6472)
(-0.893765 -0.0606177 -1.15962)
(-0.00474542 -0.000530687 -0.00396395)
(-0.000128261 -0.000539593 -0.0470247)
(0.32256 -0.131704 11.7645)
(0.849178 0.144057 -60.3143)
(12.2658 0.313557 1.2808)
(0.824054 0.0297868 -56.2036)
(-0.393785 -0.0264264 -1.05736)
(-0.00133997 -0.00248031 -0.0805559)
(-0.003232 -0.00168446 -0.0785864)
(-0.0643851 -0.0039692 -0.0144425)
(3.895e-05 -8.67462e-05 -0.00016138)
(-0.119247 -0.00509729 -0.076505)
(-0.00538316 -0.00113768 -0.113422)
(-0.00337322 -0.000252053 -0.193331)
(-0.0306698 -0.00248363 -0.015994)
(-0.00837987 -0.000572856 -0.190505)
(-0.00705936 0.000610753 -0.0091992)
(-4.50396 -0.188302 -3.71413)
(-0.0094406 -0.000662547 -0.194313)
(-0.00100321 0.00124076 -0.00707362)
(0.000164188 0.00133235 -0.0272051)
(-0.00473746 0.0024443 -0.0864297)
(-0.00406555 0.0024819 -0.0880008)
(-0.110131 -0.00700602 -0.616177)
(-0.063152 -0.100333 -41.4271)
(-0.0643652 -0.0049759 -0.0247202)
(-0.154536 -0.0078307 -0.684907)
(-0.121079 -0.00410971 -0.66188)
(-0.169923 -0.0128239 -1.47693)
(0.145656 0.00095307 -0.635567)
(-0.0524904 -0.0023387 -0.0102913)
(-0.0622744 -0.00209067 -0.0154399)
(-0.0796252 -0.00578939 -0.0285579)
(-0.0721042 -0.00333635 -0.0211607)
(-0.00256845 -0.00174901 -0.0380123)
(0.00154905 0.00245567 -0.0374346)
(-0.00191025 0.00502929 -0.0394264)
(0.000805141 -0.00026518 -0.0117137)
(-5.7511e-05 -4.99982e-05 -0.00659658)
(-0.0829083 -0.0014513 -0.0255316)
(-0.00816422 0.00177034 -0.0122474)
(5.18281 0.147475 -42.681)
(-0.971019 -0.0284691 -0.668898)
(-0.0402258 -0.00192987 -0.177627)
(-11.0625 -0.471445 -13.9047)
(-0.0106647 -0.000689784 -0.176373)
(-0.00380591 0.00230449 -0.0432077)
(10.0397 0.460395 1.04131)
(8.76629 0.250245 2.16639)
(-0.00674149 -0.000215293 -0.209595)
(-0.00280397 -3.89007e-05 -0.202085)
(-0.000696756 1.33698e-05 -0.199153)
(-0.000863866 -8.06553e-05 -0.196802)
(-0.00395123 0.00173737 -0.0415851)
(-0.0113359 -0.00123387 -0.144204)
(-0.00413747 -1.7667e-05 -0.165257)
(-0.00524907 -1.13344e-05 -0.000670473)
(-0.00500517 -0.00162902 -0.107062)
(-0.00460623 0.000365036 -0.00662406)
(-0.00184252 -0.000266974 -0.00375146)
(-0.052281 -0.00224356 -0.428266)
(-0.0039983 -0.00168402 -0.0644026)
(-0.00323006 -0.0023288 -0.0656238)
(-0.0294373 -0.00204283 -0.160952)
(-0.0985823 -0.00661555 -0.0489036)
(-0.112903 -0.00180697 -0.066698)
(4.2357 0.103377 5.33652)
(-0.0575455 -0.0905514 -44.7203)
(-0.0100989 4.77738e-05 -0.154691)
(-0.00246426 0.000163284 -0.00335915)
(2.56143e-05 -0.00196473 -0.0322025)
(-0.127859 -0.00692174 -0.301468)
(-0.00483464 0.00377077 -0.0766566)
(15.0192 0.52891 0.657584)
(-0.00555841 -0.00308042 -0.0941633)
(0.00152019 0.00128549 -0.0140861)
(-0.00284454 0.000556247 -0.0259665)
(5.28216 0.365526 5.16857)
(-0.0282192 -0.00191017 -0.0887776)
(-0.0171827 0.0012153 -0.0401055)
(-0.00955988 0.000150922 -0.00240153)
(-0.0092755 -0.000440988 -0.215347)
(-0.00385115 -0.000455326 -0.133391)
(14.6311 0.812077 12.9295)
(12.4005 0.798894 8.67389)
(-0.797466 0.0534888 23.8382)
(3.15679 -0.1269 9.38612)
(-0.0108198 -0.00069254 -0.00178699)
(-0.0130306 -0.000666235 -0.165764)
(-0.000244839 -2.39244e-05 -0.190763)
(-2.60723e-05 -1.3229e-05 -0.190892)
(-0.000937695 -4.2824e-05 -0.188826)
(-0.00068556 5.20744e-06 -0.18928)
(-0.0427916 -0.000850647 -0.194272)
(-0.000542377 -2.01581e-06 -0.189765)
(0.000636361 3.62617e-05 -0.190356)
(-0.00258173 -9.18834e-05 -0.00491754)
(-0.00537397 -0.000279286 -0.187251)
(-0.0140484 -0.00220786 0.0011489)
(-0.00223903 0.00127145 -0.0465885)
(-0.00320886 -0.00120259 -0.0289753)
(-0.00172151 -0.000533647 -0.0208891)
(-0.00249685 -0.000184908 -0.0265821)
(-0.00200028 0.00122742 -0.0195084)
(-0.0032197 -0.000323364 -0.163792)
(-0.449753 -0.0202997 -1.01423)
(-0.366687 -0.0174646 -0.728429)
(-0.464771 -0.00850633 -0.646465)
(-0.84855 -0.0528976 -0.65841)
(7.00246 0.130853 1.8381)
(-0.554919 -0.0115701 -0.382397)
(-0.000771415 -5.8029e-05 -0.188335)
(-0.43834 -0.0345408 -23.7716)
(6.68859 0.275687 4.19802)
(0.204875 0.0171352 -53.885)
(7.55028 0.201277 3.38788)
(7.11914 0.392773 3.6201)
(7.74356 0.226184 3.09969)
(-0.188619 0.0520136 -36.9391)
(-0.0186551 0.000523637 -0.0435362)
(-2.11962 0.41397 -27.4879)
(-0.0435491 -0.00527204 -0.0512453)
(-0.0553072 -0.004107 -0.0822432)
(-0.097571 -0.00180628 -0.170578)
(-0.0101334 -0.000637404 -0.185159)
(-0.00955046 -0.000473893 -0.171133)
(-0.0124862 -0.00131753 -0.15494)
(-2.02913 -0.154705 -0.890257)
(-0.0342058 -0.000357273 -0.0941919)
(4.70746 0.359656 3.20749)
(-0.189015 -0.0109669 -0.0769442)
(-0.0442198 -0.00345852 -0.176243)
(-0.00844508 -0.000134337 -0.205758)
(-0.105503 -0.0020036 -0.222241)
(-0.261806 -0.0136172 -0.304065)
(-0.104537 -0.00741015 -0.386613)
(-0.00205112 -0.00018181 -0.184298)
(-0.00225091 -4.84852e-05 -0.188114)
(-0.00584598 -0.000261887 -0.194191)
(-0.0127449 -0.000285437 -0.167135)
(-0.0105404 -0.000836522 -0.180163)
(0.000118922 -3.44503e-05 -0.0081614)
(-0.426849 0.0257274 -39.701)
(-0.459671 -0.0358839 5.11634)
(-1.53082 0.51305 -27.7457)
(-0.00561375 -0.000975195 -0.0415461)
(-0.00259949 8.84851e-05 -0.000665943)
(-0.0646071 -0.00505232 -0.0586619)
(-0.000126808 0.00159373 -0.0581874)
(-0.00183117 0.00287985 -0.0553037)
(-0.00104165 -0.00254386 -0.0748102)
(-0.000219219 0.00152141 -0.057389)
(-0.0892783 -0.00615679 -0.175919)
(0.00121039 0.00082305 -0.00898697)
(-0.00134696 0.00114974 -0.00871943)
(-0.0114684 0.000150224 -0.125627)
(-10.4557 -0.896234 -61.9541)
(-1.0245 -0.0172 -54.7322)
(0.00129947 -0.00141306 -0.0112818)
(-0.00126793 0.000666027 -0.00815849)
(-0.00842246 -0.000262882 -0.150738)
(-0.00919151 7.56366e-05 -0.147596)
(-0.00953421 -0.000585679 -0.164389)
(-0.0193604 0.00107338 -0.0791487)
(-0.030101 0.000321498 -0.098753)
(-0.00106104 -0.000221027 -0.00224365)
(3.48884e-05 -1.84606e-05 0.000175023)
(-0.0645006 -0.00413377 -0.0996159)
(-0.0252403 -0.000206283 -0.1891)
(-0.0085761 -2.66502e-05 -0.00910041)
(-0.0362502 -0.0021072 -0.178133)
(-0.0132398 -0.00134122 -0.120937)
(-0.00614914 0.002498 -0.0792675)
(-0.0376149 -0.00184265 -0.163557)
(-0.00921443 -0.00111349 -0.0619561)
(-0.0339693 -0.0022217 -0.126199)
(-0.220612 -0.0154613 -0.0966052)
(-0.00148759 0.00188384 -0.0611784)
(-0.0293368 -0.00203361 -0.228243)
(-0.334042 -0.0221907 -0.0746163)
(-0.00201702 -2.09403e-05 -0.20349)
(-0.0363153 -0.000729799 -0.20625)
(-5.73638e-06 -3.68014e-05 -0.171856)
(4.18023 0.112492 4.8699)
(8.06004 0.490392 3.09235)
(-0.00370061 -0.000158961 -0.117577)
(-0.00310674 0.0029304 -0.0983473)
(-0.140484 -0.159996 -37.4948)
(-0.786962 -0.00676899 -0.286998)
(-0.0113781 -0.000548071 -0.183437)
(-5.7236 -0.594965 -12.2207)
(-0.0292396 -0.0021351 -0.159263)
(-0.580278 0.0947028 6.78533)
(0.796011 -0.00814545 7.18699)
(-0.00310165 -0.00074618 -0.12043)
(-0.0135352 -0.000889471 -0.201874)
(-0.000821308 0.00162191 -0.0536554)
(-0.081456 0.0753389 6.68151)
(-0.0104556 -0.00038983 -0.182195)
(-0.000834585 -0.000156834 -0.0193808)
(-0.00253759 -0.000156383 -0.194876)
(-0.0421986 0.000374281 -0.130372)
(-0.0449871 -0.00352273 -0.100364)
(-0.0374934 -0.000555611 -0.22267)
(-0.0392455 -0.00392695 -0.0161212)
(-0.0265798 -0.000314256 -0.147907)
(-0.00326114 -0.00127058 -0.111701)
(-0.000522821 -0.00104917 -0.0425526)
(-0.0479306 -0.00222562 -0.206345)
(-0.185008 -0.00729065 -0.268534)
(-0.00398961 0.00183915 -0.0954263)
(-0.00296967 8.15376e-05 -0.0785616)
(-0.00331022 -0.000863087 -0.0907816)
(-0.00320702 0.00135234 -0.0651583)
(-0.0174169 -0.00273246 -0.00270853)
(0.000615712 -0.00246898 -0.0555833)
(-0.0430362 0.000386853 -0.0051847)
(-0.00372711 0.000943134 -0.0869451)
(-0.046142 -0.00478158 -0.0451821)
(-0.0490364 0.000219167 -0.0311212)
(-0.0290041 -0.00229262 -0.0172247)
(-0.0548203 -0.00341547 -0.0520244)
(-0.0626 -0.00352949 -0.0319773)
(-0.00543282 -0.000369762 -0.192263)
(-0.039811 -0.00167411 -0.224826)
(-0.00750971 -0.00135337 -0.154159)
(-1.54995 0.201299 -36.0533)
(-0.411022 -0.0296426 -0.923727)
(8.26362 0.415725 2.72662)
(-2.1005 0.434423 -29.1474)
(-0.0041589 -0.000178943 -0.179609)
(-0.012814 -0.000682831 -0.168997)
(-0.00203627 -2.39302e-05 -0.00515904)
(-0.00920242 0.00126777 -0.0701877)
(-0.000341775 -7.24875e-05 -0.00323649)
(-0.00142414 -6.25162e-05 -0.171902)
(-0.0208923 -0.000253833 -0.250856)
(10.8304 0.226601 0.460528)
(6.3666 0.306283 1.45142)
(7.27125 0.325836 2.0908)
(-0.26455 -0.0196467 -0.461298)
(6.41453 0.365705 1.48042)
(-0.337238 -0.00602778 -0.0935529)
(-0.320854 -0.00644497 -0.15706)
(-0.303063 -0.020492 -0.0958214)
(-0.00780791 0.000970154 -0.13534)
(-0.0583018 -0.00234028 -0.151227)
(-0.0170673 -0.00146425 -0.0213721)
(-0.101686 -0.00428681 -0.181342)
(-0.0142359 -0.000114933 -0.0217229)
(0.836412 0.579074 -34.1349)
(-0.000274857 0.00139764 -0.0186228)
(7.71759 0.572049 2.9491)
(-0.00483235 -0.00033947 -0.194544)
(-0.00213249 -0.00271448 -0.0138437)
(6.6008 0.360623 3.29603)
(-0.00951755 -0.000139124 -0.160644)
(-0.00814046 0.000182999 -0.123029)
(-0.00734865 -0.00028289 -0.000512044)
(-0.0115669 0.000136861 -0.0370287)
(-0.0134871 0.000521241 -0.0275901)
(-0.00154437 0.00226157 -0.0552629)
(-0.00844359 -0.000922496 -0.119708)
(-0.026774 -0.00268545 -0.0180163)
(-0.00566683 -0.00201541 -0.0944352)
(-0.0263915 -0.00257399 -0.0227583)
(-0.0257112 -0.00296345 -0.0251217)
(-0.030305 -0.00114237 -0.0298172)
(-0.00159502 0.000482976 -0.101673)
(-0.0325407 -0.0018914 -0.0282803)
(-0.00288178 0.00228966 -0.0992633)
(-0.00288778 0.00061334 -0.0961315)
(-0.0117124 0.000397812 -0.0229327)
(-0.0423849 -0.00218562 -0.0292286)
(-0.00143427 2.02781e-06 -0.000443663)
(-0.0128282 -0.000968112 -0.136106)
(-0.00927451 -0.000216987 -0.196528)
(-0.011509 -0.000706655 -0.177411)
(-0.012839 -0.000396049 -0.158603)
(-0.0103522 -0.000340776 -0.176608)
(-13.4141 -1.06239 -64.9729)
(-2.63602 -0.137112 -65.0554)
(-0.0122356 -0.000991515 -0.161607)
(-0.0124379 -0.00112605 -0.147205)
(-0.243821 -0.0112518 -0.362118)
(-0.246165 -0.0179878 -0.357588)
(-0.209255 -0.00919562 -0.488354)
(-0.198213 -0.008003 -0.339033)
(-0.194506 -0.0041933 -0.35565)
(-0.0372815 -0.000653881 -0.235515)
(-0.0438801 -0.00181222 -0.247004)
(-0.0409538 -0.000575052 -0.24308)
(-0.0478748 -0.00298865 -0.137219)
(-0.0426271 -0.00297845 -0.242247)
(8.89975 0.452614 6.80403)
(-0.0011007 0.00105298 -0.00983315)
(-0.00871862 -0.000375427 -0.158783)
(-0.00075681 -1.86614e-05 -0.187631)
(-0.00314135 0.000362409 -0.0902398)
(-0.053145 -0.00390826 -0.0847024)
(-0.0174897 -0.000866631 -0.22158)
(-0.0295398 -0.00129509 -0.275536)
(-0.0163231 -0.000731476 -0.256205)
(-0.0355809 -0.00123461 -0.28918)
(-0.102834 -0.0128831 -0.0094609)
(-0.0010591 0.000497506 -0.0176002)
(-0.00762729 -0.000118099 -0.178352)
(-0.00313943 -0.000222841 -0.150197)
(-0.00100973 -0.00083715 -0.0058535)
(-0.0112818 -0.000196456 -0.135729)
(-0.00175793 -0.00132262 -0.0356846)
(-0.00454968 -0.000454142 -0.154632)
(-0.0205513 -0.00108191 -0.00743485)
(-0.00585707 0.000159148 -0.122518)
(-0.0105714 -0.000635351 -0.156535)
(-0.00108369 -0.00168234 -0.0571106)
(-0.000985429 -0.00259018 -0.0736251)
(4.8527 0.0676065 4.93709)
(-0.00131073 -0.00127594 -0.00891173)
(1.4473 0.0570385 5.57158)
(2.95459 0.211712 2.91355)
(0.000498996 -0.00336325 -0.0398409)
(0.00198518 0.00234101 -0.0369101)
(-0.00107257 -0.00261169 -0.0197807)
(-0.0027395 -0.00037904 1.82389e-05)
(-0.00178322 -5.52473e-05 -0.000473354)
(-0.164492 0.163145 -40.0284)
(-0.520928 -0.0432511 -73.7176)
(10.6614 0.725136 6.97506)
(-0.0172677 -0.000327299 -0.214433)
(-0.0286705 -0.00205417 -0.236575)
(-0.0186618 -0.00135397 -0.213737)
(-0.0278618 -0.00039118 -0.228601)
(3.71322 0.367794 4.4071)
(-0.739738 -0.0583148 -0.969608)
(-0.151765 -0.00992219 -0.175103)
(-0.000132173 5.07657e-05 -0.000223813)
(19.4602 1.56723 2.23476)
(-0.00171087 -0.000119428 -0.192562)
(-0.00559813 -0.000216486 -0.201392)
(-0.00718389 0.00194369 -0.151243)
(-0.144255 -0.00243171 -0.109296)
(0.00123259 5.13079e-05 -0.191221)
(-0.165974 -0.00298786 -0.124943)
(-0.176766 -0.00930434 -0.130313)
(-0.152908 -0.0104354 -0.135546)
(-0.0127626 -0.364107 -34.9543)
(-0.00263374 -0.00166632 -0.0254498)
(-0.151495 -0.00253263 -0.125146)
(-0.0262427 -0.000404564 -0.234963)
(-8.2242e-05 -0.000716135 -0.0204818)
(-0.163301 -0.0116132 -0.0764948)
(-0.0104198 -0.000731683 -0.217443)
(-0.00045738 -0.00213249 -0.0325155)
(9.35538e-05 1.26522e-05 -1.3236e-05)
(1.21481 0.0691459 6.91166)
(-0.0622433 -0.00391786 -0.0383788)
(-0.284328 -0.00913482 -0.092389)
(-0.141361 -0.00893342 -0.0140896)
(-0.0712736 -0.0036059 -0.0268898)
(5.13759 0.285317 4.08369)
(-4.58511e-05 -5.56002e-06 -2.40109e-06)
(3.29155 0.0999767 6.25816)
(-0.0118751 -0.000157547 -0.0149043)
(2.7197 0.00791569 6.37759)
(2.45473 0.0283215 6.33013)
(0.000720417 -0.000998114 -0.00597236)
(0.824115 0.00168822 3.26906)
(-0.068253 -0.00250234 -0.0418456)
(-0.0646842 -0.00178324 -0.19286)
(0.00120448 -0.000736791 -0.00935935)
(-0.00696538 -0.000973453 -0.11604)
(-6.53237e-05 -1.67195e-05 -5.0415e-05)
(-0.066909 -0.0049196 -0.00815089)
(3.55867 0.264319 3.39908)
(-0.0749032 -0.00170151 -0.0343619)
(0.110439 -0.377255 -35.1082)
(-0.00248098 0.000810498 -0.08531)
(0.00120037 -0.000723444 -0.0169764)
(-0.0894132 -0.00452322 -0.0384946)
(-0.0930551 -0.00208268 -0.0362389)
(-0.000387714 0.00221447 -0.0436334)
(-0.00649338 -0.00154367 -0.105301)
(0.000987673 4.46423e-05 -0.173189)
(-0.0101933 -0.000545072 -0.162506)
(18.4667 0.665024 0.73919)
(-0.0157164 -0.000473156 -0.18869)
(-0.254963 -0.011069 -0.141339)
(-0.132302 -0.00478556 -0.23491)
(-0.0100753 -0.000455971 -0.173627)
(-0.291452 -0.00581223 -0.107137)
(-0.0136311 -0.00039573 -0.186701)
(5.42833 0.140665 1.95265)
(-0.021955 -0.000737967 -0.286802)
(-0.15362 -0.00205481 -0.563733)
(-0.160574 -0.00246636 -0.570116)
(-0.0184739 -0.000116701 -0.288978)
(-0.00136688 -9.18072e-05 -0.195816)
(-0.000831756 -0.000118105 -0.178145)
(-0.00362144 -1.46524e-05 -0.18392)
(-0.000948496 -1.96704e-05 -0.188745)
(-0.00369067 -6.14306e-05 -0.189081)
(0.00107179 -0.000941799 -0.00777698)
(-0.00740559 -0.00115977 -0.150626)
(-0.0108295 0.000267045 -0.134592)
(-0.00281429 0.000692747 -0.0958086)
(-0.0156339 -0.000804491 -0.152116)
(-0.00134653 -0.00128508 -0.0104358)
(-0.0154035 -0.00081412 -0.117848)
(-0.103556 -0.00616415 -0.0689739)
(5.33429 0.0971954 1.09048)
(-0.135544 -0.00667688 -0.113209)
(0.868633 0.00322947 3.92842)
(3.40433 0.176199 -45.0068)
(-0.375243 -0.000279019 -35.4348)
(6.55856 0.649433 1.36637)
(-0.505102 -0.114116 -40.7269)
(3.35308 0.238707 4.74091)
(0.867083 -0.0120242 4.52448)
(-0.00571093 0.0702843 -58.9101)
(0.458371 -0.0387277 -43.1266)
(0.296305 0.0872567 -33.7148)
(1.07338 0.0559916 4.14189)
(-0.0395715 -0.00276291 -0.234088)
(-0.0371859 -0.00164249 -0.232439)
(0.000107819 -1.67909e-05 -0.171772)
(-0.0101694 0.00058975 -0.154344)
(-0.0124843 -0.000189013 -0.192011)
(-0.00438825 0.00137784 -0.085339)
(0.000802118 0.00220777 -0.0378656)
(13.1156 0.790949 14.2117)
(-0.0152392 -0.0010502 -0.170669)
(-0.00458859 -6.89171e-05 -0.207217)
(-0.0103564 0.000414237 -0.160854)
(-0.00283601 -0.00221368 -0.0386528)
(-0.00197967 -0.00145279 -0.0202434)
(-0.0137714 -0.00153966 -0.0547982)
(-0.0121241 -0.000712924 -0.0735591)
(-0.00784647 -0.000241621 -0.0536539)
(-0.000396254 -0.000293307 -0.00171412)
(-0.000400263 0.000122297 -0.00374506)
(0.00159105 5.72833e-05 -0.191669)
(-0.234337 -0.0164484 -0.145125)
(-0.00926689 -0.000622579 -0.189032)
(-0.0935492 -0.00322989 -0.223182)
(-0.00417479 -7.71438e-05 -0.209496)
(0.000531857 -0.00166899 -0.0208964)
(-0.0796583 -0.001638 -0.0619729)
(-0.267285 -0.00652942 -0.514991)
(-0.0953145 -0.00124837 -0.2939)
(-0.016315 -0.00154075 -0.135151)
(-0.0057226 -0.00203721 -0.0572223)
(-0.177061 -0.0032386 -0.240797)
(0.34043 0.011129 -58.8049)
(-0.00515479 -0.000279958 -0.176661)
(-0.00840093 -0.000160123 -0.17943)
(-0.00878083 -0.000341876 -0.178681)
(-0.00640969 -0.000402076 -0.18018)
(14.0607 0.191401 14.3653)
(-0.282873 -0.00736408 -0.291602)
(-0.943921 -0.0130338 -0.547409)
(0.00113812 -0.000506358 -0.00782948)
(0.000369112 -0.00364431 -0.035118)
(-0.0287887 -0.0011277 -0.245693)
(-0.585825 -0.0396071 -0.152142)
(-0.00226653 -4.997e-05 -0.183082)
(-0.00701112 -0.0013622 -0.144427)
(-0.00274933 -3.9442e-05 -0.182551)
(2.16046 0.178642 2.62358)
(-0.00265502 0.00125224 -0.0824254)
(-0.221675 -0.0057921 -0.204844)
(-0.0270241 -0.000437523 -0.202575)
(13.8195 1.25454 9.1206)
(-0.0131837 -0.0002187 -0.197368)
(-0.0125999 -0.000628485 -0.196002)
(-0.0145684 -0.000348206 -0.197184)
(-24.7342 -0.0907917 -9.56964)
(-0.0152995 -0.00065964 -0.196138)
(-0.00476794 0.000528828 -0.133077)
(14.2282 1.16754 11.8313)
(-1.0244 -0.0224703 -0.163738)
(-0.513039 -0.0283502 -0.265956)
(-0.00837328 0.000445688 -0.0689553)
(-0.57101 -0.00987221 -0.268563)
(-1.12057 -0.0910351 -1.30207)
(-0.28741 -0.017462 -0.481316)
(-1.59043 0.26576 -28.6023)
(-0.0432127 -0.00284795 -0.266812)
(-0.495682 -0.00159351 -0.0830396)
(-0.0601432 -0.000845416 -0.297779)
(16.178 0.337464 14.7754)
(-0.00762675 5.63776e-05 -0.129502)
(-1.08983 -0.019437 -55.3097)
(-0.0660212 -0.00432902 -0.301466)
(-0.0427942 -0.00259658 -0.0642886)
(-0.0378794 -0.00172118 -0.0471813)
(-0.0113126 0.000798548 -0.0292301)
(1.0516 0.00440802 -61.2507)
(-0.0816161 -0.00143277 -0.276122)
(-0.0805627 -0.00379468 -0.270574)
(-0.0695243 -0.00343894 -0.119649)
(-0.380365 -0.0105845 -0.0349616)
(-0.0704474 -0.00191646 -0.125819)
(-0.07165 -0.00340357 -0.0983366)
(-0.0821983 -0.00483033 -0.105748)
(-0.0798005 -0.00633751 -0.0991179)
(-0.0056384 -0.000382629 -0.208947)
(0.000302237 -0.000127769 -0.0147671)
(-0.00574622 0.00727205 -0.0806486)
(-0.000255433 -1.05788e-05 -0.190491)
(-0.00401272 0.000688228 -0.0912467)
(5.28565 0.332618 1.90219)
(1.80885 -0.218062 -21.9138)
(-0.00620479 -9.68449e-05 -0.178251)
(-0.0105117 -9.3311e-05 -0.166831)
(0.00124198 4.36684e-05 -0.182446)
(-0.0125422 -0.000252492 -0.166565)
(-0.00671618 0.00114338 -0.0527376)
(0.213825 -0.167201 -39.2007)
(-0.00432843 -5.2879e-05 -0.183527)
(-0.589126 -0.207538 -33.1353)
(-0.0148466 -0.000163956 -0.230594)
(-0.133752 -0.010072 -0.104898)
(-1.28202 0.377801 -25.9807)
(-0.281083 -0.25254 -35.3825)
(-0.00049844 -0.000441364 -0.0165779)
(-0.0195915 0.00198606 -0.080528)
(0.00195147 0.00391217 -34.7885)
(-0.140762 -0.0102103 -0.0962506)
(-0.00569332 -0.000161295 -0.0321783)
(-0.121342 -0.00608005 -0.10634)
(-0.66549 -0.00479349 -0.130524)
(-0.00479157 -0.0003729 -0.00306121)
(-0.141092 -0.00586291 -0.164413)
(-0.0110452 -0.000851939 -0.180105)
(-0.348846 -0.0104787 -38.1538)
(-0.0600637 -0.00145302 -0.194005)
(-0.0460079 -0.00194267 -0.212431)
(-0.0426482 -0.0029944 -0.207337)
(15.5461 0.882559 3.68202)
(-0.0504071 -0.000865598 -0.211143)
(-0.390242 -0.0307319 -0.19571)
(-0.352871 -0.0113389 -0.118754)
(3.45254 0.283748 6.32649)
(4.11972 0.316325 5.72954)
(-6.99715e-05 0.000183022 -0.00598772)
(3.39843 -0.212033 5.62641)
(18.2282 0.869799 2.07052)
(0.00211745 4.31645e-05 -0.192824)
(1.15508 0.754782 -26.3441)
(0.182896 0.291846 -39.7798)
(-0.0112973 -0.0001111 -0.168296)
(0.112009 -0.00882587 -59.2389)
(-0.00911664 -0.000282956 -0.157752)
(-0.61195 -0.340645 -38.6234)
(-3.21428 -0.271738 1.82752)
(-0.0567935 -0.0509111 -41.5522)
(-0.121773 -0.00100606 -0.0228071)
(-0.216162 -0.0592351 7.33963)
(-0.0569062 -0.00200076 -0.34045)
(-0.364819 -0.00686968 -0.135976)
(-0.0667586 -0.00101082 -0.110968)
(-0.0583369 -0.00281912 -0.0912978)
(-0.218331 -0.0111721 -0.134116)
(-0.198599 -0.0138877 -0.521296)
(-0.0654474 -0.00193344 -0.0441599)
(-0.0530586 -0.000484038 -0.101264)
(-0.0762573 -0.00332228 -0.0834105)
(-0.000262986 -1.46023e-05 -0.18925)
(-0.479945 -0.0228544 -63.2556)
(-0.00578201 0.000333928 -0.143552)
(-0.00855136 -0.000967526 -0.165329)
(-0.00994608 -0.000473724 -0.178681)
(-0.007059 -0.000225141 -0.147576)
(-0.00913519 -0.00105826 -0.164828)
(-0.00417453 -0.00170246 -0.109723)
(-0.0109482 -2.71118e-05 -0.176368)
(-0.012029 -0.000864198 -0.205713)
(-0.0192851 -0.00063206 -0.16985)
(-0.00518443 -0.00189849 -0.111121)
(-0.0345142 -0.00225575 -0.134723)
(-0.0299106 -0.00192046 -0.134712)
(0.0010847 -0.00214879 -0.00930482)
(-0.0388795 -1.9966e-05 -0.137833)
(-0.00109159 -0.00111627 -0.0080404)
(0.000938752 -0.000770802 -0.0118993)
(-0.000431766 0.000211845 -0.00956163)
(-0.00372385 -0.00130055 -0.114657)
(-0.00414902 -0.00244368 -0.111458)
(4.4222e-05 0.000130324 -0.0161096)
(-0.014789 -0.000868112 -0.190346)
(-0.000316209 0.000107982 -0.00158558)
(-8.91407e-05 1.12801e-05 -0.000318322)
(1.92307e-05 -0.000120156 -0.000572027)
(-0.00449145 0.000422341 -0.000912706)
(-0.00388935 -0.00114382 -0.0862589)
(-0.00581881 0.000433191 -0.00130881)
(1.32692 0.046252 6.11098)
(-0.00295999 4.09017e-05 -0.000638803)
(-0.00157552 -9.38192e-05 -0.000457641)
(-0.264353 -0.00508869 -0.041154)
(-0.181809 -0.00499648 -0.0194385)
(-0.0146376 -0.000503381 -0.19244)
(-0.00128292 -4.93581e-05 -0.00916102)
(-0.00220448 0.000254865 -0.010502)
(-6.67475e-05 0.000241213 -0.000855648)
(-0.0102453 -0.000666214 -0.186371)
(-0.000365377 -0.000585968 -0.00270617)
(-2.38028 -0.595425 2.67833)
(0.886704 0.556859 -26.8884)
(-0.00521026 -0.000352924 -0.121141)
(2.03426 0.447712 -34.1736)
(-0.00447283 -0.000744711 -0.109153)
(-0.00322326 -0.000797906 -0.116221)
(-0.000877105 -1.8355e-06 -0.186982)
(-0.414127 -0.0238227 -0.182623)
(-0.317222 -0.00500562 -0.336067)
(10.7695 0.171671 0.551991)
(-0.00678219 0.00163719 -0.122368)
(-0.00156215 -0.000100311 -0.185467)
(-0.00628216 0.000265425 -0.121421)
(-0.207644 0.205543 5.76752)
(-0.0281018 -0.00125728 -0.317167)
(-0.0317881 -0.000709391 -0.356285)
(-0.508533 -0.0194828 -58.7936)
(-0.520448 -0.0347076 -0.229921)
(-0.17598 -0.00264769 -0.0935499)
(-0.0222148 0.00156413 -0.036738)
(-0.0113531 -0.000544724 -0.168583)
(-0.00885502 -0.000515432 -0.132527)
(-0.0125082 -0.000359588 -0.170502)
(-0.0105038 -0.000367299 -0.182637)
(-0.0490404 -0.00356896 -0.185029)
(-0.0725342 -0.000910099 -0.169726)
(-0.0193616 -0.000992314 -0.189878)
(-0.00548184 -0.00125051 -0.108203)
(0.326606 0.144327 6.89871)
(-0.0105964 -0.000722674 -0.180543)
(-0.0102422 -0.000614578 -0.179188)
(-0.0118866 -0.000799989 -0.188692)
(-0.0116943 -0.000168358 -0.185295)
(-0.0628734 -0.00226649 -0.140341)
(-0.066312 -0.00188019 -0.137482)
(-0.0172361 -0.000280812 -0.222106)
(-0.0849865 -0.00671319 -0.11708)
(-0.00659142 0.000296182 -0.119214)
(-0.270099 -0.0129025 -0.110845)
(-0.00104785 0.000103287 -0.0113938)
(-0.0137723 -0.00119384 -0.153479)
(15.7912 0.261884 8.46024)
(7.61465 0.568257 6.69253)
(12.3447 1.11943 6.2953)
(7.43537 0.401803 4.65143)
(9.6771 0.873527 0.76764)
(-0.000306593 3.884e-05 -3.58376e-05)
(0.367394 0.000333758 -52.7021)
(0.523238 0.0189478 -56.2902)
(5.44054 0.251711 4.74898)
(-0.205366 -0.00848937 -0.0906405)
(-0.00111579 0.000113285 -0.0035295)
(-0.376024 -0.0332861 -0.0589245)
(-0.128974 -0.00402217 -0.268815)
(-0.000125103 -9.79863e-05 -0.000471214)
(-0.0245075 -0.000833507 -0.00787669)
(6.41976e-06 4.88585e-06 -8.58441e-05)
(0.490635 0.05717 -56.6059)
(7.85427e-06 4.21464e-05 0.000114364)
(-0.000728061 -0.000570265 -0.00476293)
(0.128393 -0.313672 -38.3106)
(-0.00466825 -0.000135853 -0.093865)
(-0.00469617 0.00128785 -0.092545)
(-0.000450177 -3.91752e-05 -0.188865)