/*--------------------------------*- C++ -*----------------------------------*\
| =========                 |                                                 |
| \\      /  F ield         | OpenFOAM: The Open Source CFD Toolbox           |
|  \\    /   O peration     | Version:  v2012                                 |
|   \\  /    A nd           | Website:  www.openfoam.com                      |
|    \\/     M anipulation  |                                                 |
\*---------------------------------------------------------------------------*/
FoamFile
{
    version     2.0;
    format      ascii;
    class       surfaceScalarField;
    location    "0.55";
    object      phi;
}
// * * * * * * * * * * * * * * * * * * * * * * * * * * * * * * * * * * * * * //

dimensions      [0 3 -1 0 0 0 0];
oriented        oriented;


internalField   nonuniform List<scalar> 
8135
(
3.20612e-11
-2.05588e-09
-4.29188e-17
3.36332e-11
-2.19651e-09
-3.56265e-17
3.50318e-11
-2.33825e-09
-3.19218e-17
3.62096e-11
-2.481e-09
-2.69233e-17
3.71178e-11
-2.62215e-09
-2.6213e-17
3.77062e-11
-2.75958e-09
-2.59284e-17
3.79253e-11
-2.89275e-09
-3.04132e-17
3.77295e-11
-3.01626e-09
-3.59297e-17
3.70769e-11
-3.12851e-09
-6.10624e-17
3.59341e-11
-3.22421e-09
-6.28131e-17
3.42779e-11
-3.29876e-09
-6.51905e-17
3.20967e-11
-3.34692e-09
-6.48523e-17
2.93966e-11
-3.35985e-09
-6.48962e-17
2.62041e-11
-3.32965e-09
-6.14213e-17
2.2576e-11
-3.24586e-09
-5.81157e-17
1.86155e-11
-3.09425e-09
-5.29504e-17
1.44899e-11
-2.85643e-09
-4.81607e-17
1.04194e-11
-2.50761e-09
-4.25092e-17
6.59656e-12
-2.01418e-09
-3.69934e-17
2.78449e-12
-1.34798e-09
-3.12542e-17
-5.11984e-10
-2.68826e-17
3.22503e-11
-2.05759e-09
-9.35587e-17
3.38248e-11
-2.19808e-09
-7.69682e-17
3.52243e-11
-2.33965e-09
-6.31886e-17
3.64011e-11
-2.48218e-09
-5.3563e-17
3.73061e-11
-2.62305e-09
-4.75976e-17
3.78889e-11
-2.76017e-09
-4.93041e-17
3.81e-11
-2.89296e-09
-5.55969e-17
3.78934e-11
-3.01606e-09
-7.11302e-17
3.72271e-11
-3.12784e-09
-9.51507e-17
3.6068e-11
-3.22306e-09
-1.01748e-16
3.43931e-11
-3.29709e-09
-1.02259e-16
3.21909e-11
-3.34472e-09
-1.02027e-16
2.94677e-11
-3.35713e-09
-9.91502e-17
2.62503e-11
-3.32643e-09
-9.38728e-17
2.25956e-11
-3.24221e-09
-8.63124e-17
1.86068e-11
-3.09027e-09
-7.76454e-17
1.44515e-11
-2.85228e-09
-6.7846e-17
1.03529e-11
-2.50352e-09
-5.85651e-17
6.51723e-12
-2.01035e-09
-4.8826e-17
2.75142e-12
-1.34422e-09
-4.02101e-17
-5.0924e-10
-3.26494e-17
3.25926e-11
-2.05931e-09
-1.54834e-16
3.41791e-11
-2.19967e-09
-1.24255e-16
3.55869e-11
-2.34105e-09
-1.0254e-16
3.67681e-11
-2.48336e-09
-8.42293e-17
3.76728e-11
-2.62396e-09
-7.52316e-17
3.82501e-11
-2.76074e-09
-7.68036e-17
3.84499e-11
-2.89316e-09
-8.89518e-17
3.82261e-11
-3.01583e-09
-1.03288e-16
3.75363e-11
-3.12715e-09
-1.41028e-16
3.63474e-11
-3.22187e-09
-1.52201e-16
3.46368e-11
-3.29538e-09
-1.5959e-16
3.23933e-11
-3.34248e-09
-1.63152e-16
2.96245e-11
-3.35436e-09
-1.62775e-16
2.63578e-11
-3.32317e-09
-1.56139e-16
2.26514e-11
-3.23851e-09
-1.45763e-16
1.86086e-11
-3.08623e-09
-1.31427e-16
1.43961e-11
-2.84807e-09
-1.15839e-16
1.02355e-11
-2.49936e-09
-9.98154e-17
6.35015e-12
-2.00647e-09
-8.42168e-17
2.69814e-12
-1.34057e-09
-6.99058e-17
-5.06545e-10
-5.99723e-17
3.30834e-11
-2.06105e-09
-2.09773e-16
3.4688e-11
-2.20128e-09
-1.69374e-16
3.61091e-11
-2.34248e-09
-1.3742e-16
3.72979e-11
-2.48455e-09
-1.13377e-16
3.82036e-11
-2.62486e-09
-9.92733e-17
3.87745e-11
-2.76131e-09
-1.02523e-16
3.89598e-11
-2.89335e-09
-1.17194e-16
3.87126e-11
-3.01558e-09
-1.42911e-16
3.79903e-11
-3.12643e-09
-1.82266e-16
3.67597e-11
-3.22064e-09
-1.99311e-16
3.49985e-11
-3.29362e-09
-2.06644e-16
3.26965e-11
-3.34018e-09
-2.11316e-16
2.98622e-11
-3.35153e-09
-2.09399e-16
2.65251e-11
-3.31983e-09
-2.00833e-16
2.27451e-11
-3.23473e-09
-1.85511e-16
1.8627e-11
-3.08211e-09
-1.66204e-16
1.43365e-11
-2.84378e-09
-1.44097e-16
1.00937e-11
-2.49511e-09
-1.22843e-16
6.13722e-12
-2.00251e-09
-1.01937e-16
2.52438e-12
-1.33696e-09
-8.43314e-17
-5.04018e-10
-6.91744e-17
3.37266e-11
-2.06283e-09
-2.60113e-16
3.53552e-11
-2.20291e-09
-2.08727e-16
3.6794e-11
-2.34392e-09
-1.7057e-16
3.7993e-11
-2.48575e-09
-1.38844e-16
3.89004e-11
-2.62577e-09
-1.22085e-16
3.94633e-11
-2.76188e-09
-1.24231e-16
3.963e-11
-2.89352e-09
-1.43405e-16
3.93529e-11
-3.01531e-09
-1.6712e-16
3.85888e-11
-3.12567e-09
-2.20481e-16
3.73047e-11
-3.21936e-09
-2.40375e-16
3.54783e-11
-3.29179e-09
-2.53549e-16
3.31006e-11
-3.33781e-09
-2.60924e-16
3.0182e-11
-3.34862e-09
-2.60626e-16
2.67544e-11
-3.31641e-09
-2.49772e-16
2.28805e-11
-3.23085e-09
-2.30853e-16
1.86674e-11
-3.0779e-09
-2.05048e-16
1.42819e-11
-2.8394e-09
-1.76484e-16
9.94478e-12
-2.49078e-09
-1.48026e-16
5.91128e-12
-1.99847e-09
-1.2144e-16
2.32769e-12
-1.33337e-09
-9.88558e-17
-5.0169e-10
-8.29796e-17
3.45226e-11
-2.06464e-09
-3.02493e-16
3.61814e-11
-2.20457e-09
-2.4518e-16
3.76427e-11
-2.34538e-09
-1.99172e-16
3.8855e-11
-2.48697e-09
-1.63103e-16
3.97651e-11
-2.62668e-09
-1.41474e-16
4.0319e-11
-2.76243e-09
-1.43815e-16
4.04637e-11
-2.89366e-09
-1.63013e-16
4.01506e-11
-3.015e-09
-1.96547e-16
3.93361e-11
-3.12486e-09
-2.49739e-16
3.79869e-11
-3.21802e-09
-2.73719e-16
3.60815e-11
-3.28989e-09
-2.85542e-16
3.36118e-11
-3.33534e-09
-2.93062e-16
3.05907e-11
-3.3456e-09
-2.90638e-16
2.7053e-11
-3.31288e-09
-2.77462e-16
2.30653e-11
-3.22687e-09
-2.53481e-16
1.87386e-11
-3.07358e-09
-2.22605e-16
1.42424e-11
-2.8349e-09
-1.87588e-16
9.80239e-12
-2.48634e-09
-1.54025e-16
5.69272e-12
-1.99437e-09
-1.22762e-16
2.15169e-12
-1.32983e-09
-9.77518e-17
-4.99542e-10
-7.85126e-17
3.54711e-11
-2.06649e-09
-3.40584e-16
3.71663e-11
-2.20627e-09
-2.76116e-16
3.86548e-11
-2.34687e-09
-2.2626e-16
3.98835e-11
-2.4882e-09
-1.84037e-16
4.07977e-11
-2.6276e-09
-1.60052e-16
4.13417e-11
-2.76298e-09
-1.59898e-16
4.14612e-11
-2.89378e-09
-1.80913e-16
4.11067e-11
-3.01465e-09
-2.09987e-16
4.02337e-11
-3.12399e-09
-2.74447e-16
3.88089e-11
-3.21659e-09
-2.99399e-16
3.68113e-11
-3.2879e-09
-3.16117e-16
3.42344e-11
-3.33277e-09
-3.26017e-16
3.10934e-11
-3.34246e-09
-3.25243e-16
2.74272e-11
-3.30921e-09
-3.10172e-16
2.33071e-11
-3.22276e-09
-2.8314e-16
1.88492e-11
-3.06912e-09
-2.46521e-16
1.42282e-11
-2.83029e-09
-2.05779e-16
9.67796e-12
-2.4818e-09
-1.65867e-16
5.49376e-12
-1.99019e-09
-1.29886e-16
1.99528e-12
-1.32634e-09
-1.01017e-16
-4.97548e-10
-8.29139e-17
3.65727e-11
-2.0684e-09
-3.71552e-16
3.83101e-11
-2.20801e-09
-3.04531e-16
3.98305e-11
-2.34839e-09
-2.49122e-16
4.10788e-11
-2.48945e-09
-2.04052e-16
4.19982e-11
-2.62852e-09
-1.75583e-16
4.25317e-11
-2.76352e-09
-1.74281e-16
4.26231e-11
-2.89388e-09
-1.92657e-16
4.22218e-11
-3.01425e-09
-2.28743e-16
4.12826e-11
-3.12306e-09
-2.89341e-16
3.9772e-11
-3.21509e-09
-3.16679e-16
3.76696e-11
-3.2858e-09
-3.31303e-16
3.49707e-11
-3.33007e-09
-3.4119e-16
3.16935e-11
-3.33919e-09
-3.38715e-16
2.78812e-11
-3.30541e-09
-3.22161e-16
2.36108e-11
-3.21849e-09
-2.91347e-16
1.90049e-11
-3.06452e-09
-2.51052e-16
1.42455e-11
-2.82553e-09
-2.05428e-16
9.57799e-12
-2.47713e-09
-1.61859e-16
5.31998e-12
-1.98593e-09
-1.22716e-16
1.8588e-12
-1.32288e-09
-9.26291e-17
-4.95691e-10
-7.24171e-17
3.78283e-11
-2.07036e-09
-3.9853e-16
3.96138e-11
-2.2098e-09
-3.27327e-16
4.11706e-11
-2.34995e-09
-2.70101e-16
4.24413e-11
-2.49072e-09
-2.20373e-16
4.33674e-11
-2.62945e-09
-1.9e-16
4.38895e-11
-2.76404e-09
-1.85165e-16
4.395e-11
-2.89394e-09
-2.03011e-16
4.3497e-11
-3.0138e-09
-2.31934e-16
4.24841e-11
-3.12205e-09
-3.01066e-16
4.08779e-11
-3.21349e-09
-3.2827e-16
3.86588e-11
-3.28359e-09
-3.47374e-16
3.58238e-11
-3.32724e-09
-3.59807e-16
3.23945e-11
-3.33577e-09
-3.59579e-16
2.84192e-11
-3.30144e-09
-3.42277e-16
2.39811e-11
-3.21406e-09
-3.09823e-16
1.9211e-11
-3.05975e-09
-2.65541e-16
1.43002e-11
-2.82062e-09
-2.15927e-16
9.50776e-12
-2.47234e-09
-1.67798e-16
5.17456e-12
-1.9816e-09
-1.25432e-16
1.74214e-12
-1.31945e-09
-9.26645e-17
-4.9395e-10
-7.43101e-17
3.92391e-11
-2.07239e-09
-4.18336e-16
4.10785e-11
-2.21164e-09
-3.47025e-16
4.2676e-11
-2.35155e-09
-2.86117e-16
4.39722e-11
-2.49202e-09
-2.34919e-16
4.4906e-11
-2.63039e-09
-2.00672e-16
4.54162e-11
-2.76455e-09
-1.93943e-16
4.5443e-11
-2.89397e-09
-2.07309e-16
4.49332e-11
-3.01329e-09
-2.41246e-16
4.38395e-11
-3.12096e-09
-3.04296e-16
4.21283e-11
-3.21178e-09
-3.33137e-16
3.97809e-11
-3.28124e-09
-3.49843e-16
3.67961e-11
-3.32426e-09
-3.6234e-16
3.31996e-11
-3.33217e-09
-3.61062e-16
2.90448e-11
-3.29729e-09
-3.43359e-16
2.44225e-11
-3.20944e-09
-3.08726e-16
1.94726e-11
-3.05481e-09
-2.62527e-16
1.43973e-11
-2.81555e-09
-2.1e-16
9.47142e-12
-2.46742e-09
-1.59953e-16
5.05925e-12
-1.97719e-09
-1.16006e-16
1.64534e-12
-1.31604e-09
-8.30191e-17
-4.92307e-10
-6.28233e-17
4.08071e-11
-2.07449e-09
-4.34023e-16
4.27058e-11
-2.21354e-09
-3.60542e-16
4.43484e-11
-2.3532e-09
-2.99344e-16
4.56729e-11
-2.49335e-09
-2.44857e-16
4.66156e-11
-2.63133e-09
-2.09391e-16
4.7113e-11
-2.76505e-09
-1.98807e-16
4.71034e-11
-2.89396e-09
-2.10331e-16
4.6532e-11
-3.01272e-09
-2.35483e-16
4.53505e-11
-3.11978e-09
-3.05618e-16
4.3525e-11
-3.20996e-09
-3.3386e-16
4.10378e-11
-3.27876e-09
-3.54862e-16
3.78902e-11
-3.32112e-09
-3.70121e-16
3.41115e-11
-3.3284e-09
-3.71617e-16
2.97614e-11
-3.29294e-09
-3.54274e-16
2.49388e-11
-3.20462e-09
-3.19363e-16
1.97936e-11
-3.04967e-09
-2.70949e-16
1.45406e-11
-2.8103e-09
-2.16145e-16
9.47172e-12
-2.46235e-09
-1.63272e-16
4.97441e-12
-1.9727e-09
-1.17384e-16
1.56714e-12
-1.31263e-09
-8.26168e-17
-4.90741e-10
-6.42571e-17
4.25347e-11
-2.07667e-09
-4.42561e-16
4.44981e-11
-2.21551e-09
-3.70344e-16
4.619e-11
-2.35489e-09
-3.06878e-16
4.75453e-11
-2.49471e-09
-2.52188e-16
4.84979e-11
-2.63229e-09
-2.13733e-16
4.89817e-11
-2.76554e-09
-2.01259e-16
4.8933e-11
-2.89392e-09
-2.07584e-16
4.8295e-11
-3.01209e-09
-2.36834e-16
4.70186e-11
-3.11851e-09
-2.99494e-16
4.50698e-11
-3.20801e-09
-3.28892e-16
4.24317e-11
-3.27613e-09
-3.47237e-16
3.91082e-11
-3.3178e-09
-3.62518e-16
3.5133e-11
-3.32443e-09
-3.63435e-16
3.05721e-11
-3.28838e-09
-3.4653e-16
2.55331e-11
-3.19959e-09
-3.10808e-16
2.01773e-11
-3.04432e-09
-2.61984e-16
1.47332e-11
-2.80486e-09
-2.06e-16
9.51061e-12
-2.45713e-09
-1.52669e-16
4.91978e-12
-1.96811e-09
-1.06472e-16
1.50612e-12
-1.30922e-09
-7.21986e-17
-4.89236e-10
-5.19557e-17
4.44247e-11
-2.07893e-09
-4.46435e-16
4.64581e-11
-2.21754e-09
-3.73399e-16
4.82032e-11
-2.35664e-09
-3.10943e-16
4.95919e-11
-2.4961e-09
-2.5436e-16
5.05553e-11
-2.63325e-09
-2.15665e-16
5.10246e-11
-2.76601e-09
-1.99774e-16
5.09337e-11
-2.89383e-09
-2.04023e-16
5.02243e-11
-3.01138e-09
-2.23804e-16
4.8846e-11
-3.11713e-09
-2.92489e-16
4.67648e-11
-3.20594e-09
-3.20827e-16
4.39649e-11
-3.27333e-09
-3.43156e-16
4.04527e-11
-3.3143e-09
-3.61228e-16
3.62666e-11
-3.32025e-09
-3.65119e-16
3.14795e-11
-3.2836e-09
-3.49352e-16
2.62084e-11
-3.19432e-09
-3.14319e-16
2.06267e-11
-3.03874e-09
-2.64687e-16
1.49775e-11
-2.79922e-09
-2.0773e-16
9.58936e-12
-2.45175e-09
-1.52935e-16
4.89472e-12
-1.96341e-09
-1.05707e-16
1.46081e-12
-1.30579e-09
-7.03503e-17
-4.87776e-10
-5.19076e-17
4.64805e-11
-2.08128e-09
-4.42489e-16
4.85891e-11
-2.21966e-09
-3.72133e-16
5.03912e-11
-2.35845e-09
-3.08922e-16
5.18157e-11
-2.49752e-09
-2.53529e-16
5.27905e-11
-2.63423e-09
-2.1306e-16
5.32442e-11
-2.76646e-09
-1.95976e-16
5.31082e-11
-2.8937e-09
-1.95306e-16
5.23223e-11
-3.0106e-09
-2.19076e-16
5.0835e-11
-3.11565e-09
-2.7915e-16
4.86123e-11
-3.20372e-09
-3.08066e-16
4.56395e-11
-3.27036e-09
-3.27323e-16
4.19259e-11
-3.31059e-09
-3.4509e-16
3.75148e-11
-3.31584e-09
-3.4852e-16
3.24863e-11
-3.27858e-09
-3.33577e-16
2.69674e-11
-3.18881e-09
-2.9865e-16
2.11442e-11
-3.03292e-09
-2.49617e-16
1.52754e-11
-2.79335e-09
-1.92739e-16
9.70878e-12
-2.44618e-09
-1.3847e-16
4.89841e-12
-1.95861e-09
-9.18325e-17
1.42986e-12
-1.30232e-09
-5.74596e-17
-4.86348e-10
-3.72634e-17
4.87059e-11
-2.08373e-09
-4.33508e-16
5.08946e-11
-2.22185e-09
-3.63986e-16
5.27574e-11
-2.36031e-09
-3.03217e-16
5.42199e-11
-2.49899e-09
-2.47467e-16
5.52067e-11
-2.63522e-09
-2.08005e-16
5.56436e-11
-2.7669e-09
-1.88564e-16
5.54592e-11
-2.89352e-09
-1.86432e-16
5.45916e-11
-3.00973e-09
-2.00772e-16
5.29882e-11
-3.11405e-09
-2.66106e-16
5.06147e-11
-3.20135e-09
-2.93505e-16
4.74581e-11
-3.26721e-09
-3.16264e-16
4.35303e-11
-3.30666e-09
-3.36604e-16
3.888e-11
-3.3112e-09
-3.42803e-16
3.35949e-11
-3.2733e-09
-3.2934e-16
2.78123e-11
-3.18303e-09
-2.95525e-16
2.17318e-11
-3.02684e-09
-2.4658e-16
1.56284e-11
-2.78725e-09
-1.89459e-16
9.86931e-12
-2.44043e-09
-1.34598e-16
4.92995e-12
-1.95367e-09
-8.7411e-17
1.412e-12
-1.2988e-09
-5.24325e-17
-4.84936e-10
-3.41759e-17
5.11051e-11
-2.08628e-09
-4.17204e-16
5.33788e-11
-2.22413e-09
-3.51669e-16
5.53059e-11
-2.36224e-09
-2.91621e-16
5.68084e-11
-2.5005e-09
-2.38465e-16
5.78076e-11
-2.63622e-09
-1.98637e-16
5.8226e-11
-2.76732e-09
-1.7916e-16
5.79899e-11
-2.89328e-09
-1.73098e-16
5.70353e-11
-3.00878e-09
-1.91938e-16
5.53083e-11
-3.11232e-09
-2.47963e-16
5.27747e-11
-3.19882e-09
-2.75444e-16
4.94231e-11
-3.26386e-09
-2.94673e-16
4.52683e-11
-3.30251e-09
-3.14141e-16
4.03645e-11
-3.3063e-09
-3.19684e-16
3.48075e-11
-3.26775e-09
-3.06961e-16
2.87453e-11
-3.17697e-09
-2.73676e-16
2.23913e-11
-3.02049e-09
-2.25759e-16
1.60377e-11
-2.7809e-09
-1.69429e-16
1.00711e-11
-2.43446e-09
-1.15531e-16
4.98841e-12
-1.94859e-09
-6.94133e-17
1.40613e-12
-1.29522e-09
-3.56309e-17
-4.83531e-10
-1.5892e-17
5.36827e-11
-2.08894e-09
-3.9644e-16
5.60463e-11
-2.22649e-09
-3.33032e-16
5.80411e-11
-2.36424e-09
-2.76652e-16
5.95853e-11
-2.50204e-09
-2.24607e-16
6.05969e-11
-2.63723e-09
-1.87089e-16
6.09953e-11
-2.76772e-09
-1.66647e-16
6.07037e-11
-2.89299e-09
-1.60237e-16
5.96564e-11
-3.00773e-09
-1.70247e-16
5.77983e-11
-3.11047e-09
-2.31248e-16
5.50952e-11
-3.19612e-09
-2.56988e-16
5.15371e-11
-3.26031e-09
-2.79224e-16
4.71423e-11
-3.29812e-09
-3.00947e-16
4.19707e-11
-3.30113e-09
-3.08741e-16
3.61262e-11
-3.26191e-09
-2.9748e-16
2.97681e-11
-3.17062e-09
-2.65225e-16
2.31242e-11
-3.01385e-09
-2.17785e-16
1.6504e-11
-2.77428e-09
-1.61364e-16
1.03143e-11
-2.42827e-09
-1.0725e-16
5.07292e-12
-1.94335e-09
-6.06101e-17
1.41128e-12
-1.29156e-09
-2.64438e-17
-4.8212e-10
-8.8234e-18
5.64438e-11
-2.09171e-09
-3.69182e-16
5.89018e-11
-2.22896e-09
-3.108e-16
6.09675e-11
-2.36631e-09
-2.56422e-16
6.25551e-11
-2.50363e-09
-2.08222e-16
6.35791e-11
-2.63826e-09
-1.71742e-16
6.39554e-11
-2.7681e-09
-1.52572e-16
6.36045e-11
-2.89264e-09
-1.43581e-16
6.24586e-11
-3.00659e-09
-1.58991e-16
6.04614e-11
-3.10848e-09
-2.10525e-16
5.75789e-11
-3.19324e-09
-2.36085e-16
5.38028e-11
-3.25653e-09
-2.54464e-16
4.91549e-11
-3.29348e-09
-2.74663e-16
4.37008e-11
-3.29568e-09
-2.81452e-16
3.75531e-11
-3.25576e-09
-2.70502e-16
3.08825e-11
-3.16395e-09
-2.3882e-16
2.39318e-11
-3.0069e-09
-1.92327e-16
1.70281e-11
-2.76738e-09
-1.36924e-16
1.05987e-11
-2.42185e-09
-8.3699e-17
5.18265e-12
-1.93793e-09
-3.82221e-17
1.4266e-12
-1.2878e-09
-5.1719e-18
-4.80694e-10
1.36686e-17
5.93937e-11
-2.0946e-09
-3.38375e-16
6.19507e-11
-2.23152e-09
-2.83159e-16
6.40902e-11
-2.36845e-09
-2.33432e-16
6.57227e-11
-2.50527e-09
-1.87654e-16
6.67587e-11
-2.6393e-09
-1.54684e-16
6.71106e-11
-2.76845e-09
-1.3601e-16
6.66961e-11
-2.89223e-09
-1.2793e-16
6.54454e-11
-3.00534e-09
-1.35427e-16
6.3301e-11
-3.10633e-09
-1.92072e-16
6.02291e-11
-3.19017e-09
-2.1598e-16
5.6223e-11
-3.25253e-09
-2.36961e-16
5.13083e-11
-3.28857e-09
-2.59146e-16
4.55568e-11
-3.28993e-09
-2.67515e-16
3.90898e-11
-3.2493e-09
-2.57819e-16
3.209e-11
-3.15695e-09
-2.26709e-16
2.4815e-11
-2.99963e-09
-1.8071e-16
1.76105e-11
-2.76018e-09
-1.24888e-16
1.09241e-11
-2.41516e-09
-7.14314e-17
5.31684e-12
-1.93233e-09
-2.50769e-17
1.45136e-12
-1.28394e-09
8.35021e-18
-4.79242e-10
2.49733e-17
6.25382e-11
-2.09762e-09
-3.02313e-16
6.51985e-11
-2.23418e-09
-2.5269e-16
6.74148e-11
-2.37067e-09
-2.0601e-16
6.90933e-11
-2.50695e-09
-1.65147e-16
7.01405e-11
-2.64035e-09
-1.34515e-16
7.04655e-11
-2.76878e-09
-1.18347e-16
6.99829e-11
-2.89175e-09
-1.09097e-16
6.86208e-11
-3.00398e-09
-1.23008e-16
6.63205e-11
-3.10404e-09
-1.70427e-16
6.30486e-11
-3.1869e-09
-1.94097e-16
5.88004e-11
-3.24829e-09
-2.1109e-16
5.36051e-11
-3.28338e-09
-2.31118e-16
4.7541e-11
-3.28387e-09
-2.38136e-16
4.07383e-11
-3.2425e-09
-2.28123e-16
3.33919e-11
-3.14961e-09
-1.97416e-16
2.57749e-11
-2.99202e-09
-1.51912e-16
1.82515e-11
-2.75266e-09
-9.70034e-17
1.12904e-11
-2.4082e-09
-4.39777e-17
5.47481e-12
-1.92651e-09
1.37972e-18
1.48496e-12
-1.27995e-09
3.39902e-17
-4.77756e-10
5.16335e-17
6.58834e-11
-2.10077e-09
-2.6331e-16
6.86511e-11
-2.23695e-09
-2.17615e-16
7.09468e-11
-2.37297e-09
-1.76457e-16
7.26721e-11
-2.50868e-09
-1.3925e-16
7.37297e-11
-2.6414e-09
-1.13172e-16
7.40248e-11
-2.76908e-09
-9.88722e-17
7.34691e-11
-2.8912e-09
-9.16753e-17
7.19886e-11
-3.0025e-09
-9.8667e-17
6.95236e-11
-3.10157e-09
-1.5153e-16
6.60409e-11
-3.18342e-09
-1.73868e-16
6.15378e-11
-3.24378e-09
-1.93149e-16
5.60477e-11
-3.27789e-09
-2.15024e-16
4.96552e-11
-3.27748e-09
-2.22906e-16
4.25001e-11
-3.23535e-09
-2.13902e-16
3.47894e-11
-3.1419e-09
-1.83083e-16
2.68122e-11
-2.98404e-09
-1.37889e-16
1.89514e-11
-2.7448e-09
-8.19141e-17
1.16972e-11
-2.40095e-09
-2.8416e-17
5.65594e-12
-1.92047e-09
1.84068e-17
1.52686e-12
-1.27582e-09
5.14944e-17
-4.76229e-10
6.69273e-17
6.94355e-11
-2.10405e-09
-2.19566e-16
7.23148e-11
-2.23983e-09
-1.80233e-16
7.46922e-11
-2.37534e-09
-1.43294e-16
7.6465e-11
-2.51045e-09
-1.12021e-16
7.75315e-11
-2.64247e-09
-8.94809e-17
7.77935e-11
-2.76934e-09
-7.87114e-17
7.71594e-11
-2.89057e-09
-7.16275e-17
7.55531e-11
-3.0009e-09
-8.5921e-17
7.29138e-11
-3.09894e-09
-1.29989e-16
6.9209e-11
-3.17972e-09
-1.52102e-16
6.4438e-11
-3.23902e-09
-1.67446e-16
5.86383e-11
-3.27209e-09
-1.86574e-16
5.19015e-11
-3.27075e-09
-1.92867e-16
4.43767e-11
-3.22783e-09
-1.82836e-16
3.62837e-11
-3.13381e-09
-1.52202e-16
2.79274e-11
-2.97569e-09
-1.06836e-16
1.97103e-11
-2.73658e-09
-5.15244e-17
1.21444e-11
-2.39338e-09
2.2102e-18
5.8597e-12
-1.91418e-09
4.82778e-17
1.57664e-12
-1.27153e-09
8.09592e-17
-4.7465e-10
9.72581e-17
7.32015e-11
-2.10748e-09
-1.73521e-16
7.61961e-11
-2.24283e-09
-1.39149e-16
7.86574e-11
-2.37781e-09
-1.08668e-16
8.0478e-11
-2.51227e-09
-8.22493e-17
8.15517e-11
-2.64355e-09
-6.51212e-17
8.17768e-11
-2.76957e-09
-5.74101e-17
8.10583e-11
-2.88985e-09
-5.32428e-17
7.93184e-11
-2.99916e-09
-6.15184e-17
7.6495e-11
-3.09612e-09
-1.11329e-16
7.25562e-11
-3.17578e-09
-1.32555e-16
6.75038e-11
-3.23397e-09
-1.49893e-16
6.13794e-11
-3.26597e-09
-1.70897e-16
5.42817e-11
-3.26365e-09
-1.77345e-16
4.63696e-11
-3.21992e-09
-1.68163e-16
3.78757e-11
-3.12532e-09
-1.36641e-16
2.91213e-11
-2.96694e-09
-9.13791e-17
2.05284e-11
-2.72799e-09
-3.42064e-17
1.26315e-11
-2.38549e-09
2.02533e-17
6.08558e-12
-1.90764e-09
6.84334e-17
1.6339e-12
-1.26708e-09
1.01669e-16
-4.73015e-10
1.15844e-16
7.71883e-11
-2.11105e-09
-1.24135e-16
8.03019e-11
-2.24594e-09
-9.66085e-17
8.28489e-11
-2.38036e-09
-7.13865e-17
8.4717e-11
-2.51414e-09
-5.17376e-17
8.5796e-11
-2.64463e-09
-3.91755e-17
8.59799e-11
-2.76975e-09
-3.572e-17
8.51708e-11
-2.88904e-09
-3.27198e-17
8.32887e-11
-2.99728e-09
-4.89104e-17
8.02708e-11
-3.0931e-09
-9.03818e-17
7.60857e-11
-3.1716e-09
-1.11334e-16
7.07378e-11
-3.22862e-09
-1.24932e-16
6.42731e-11
-3.25951e-09
-1.42629e-16
5.67975e-11
-3.25618e-09
-1.47429e-16
4.848e-11
-3.2116e-09
-1.36507e-16
3.95662e-11
-3.11641e-09
-1.05057e-16
3.03941e-11
-2.95777e-09
-5.88875e-17
2.14056e-11
-2.719e-09
-2.18682e-18
1.31584e-11
-2.37724e-09
5.31939e-17
6.33314e-12
-1.90081e-09
1.00744e-16
1.69835e-12
-1.26244e-09
1.33984e-16
-4.71314e-10
1.48888e-16
8.14032e-11
-2.11477e-09
-7.35206e-17
8.46392e-11
-2.24918e-09
-5.14515e-17
8.72734e-11
-2.38299e-09
-3.33187e-17
8.91886e-11
-2.51606e-09
-1.95338e-17
9.02702e-11
-2.64571e-09
-1.29531e-17
9.04082e-11
-2.76989e-09
-1.3514e-17
8.95017e-11
-2.88814e-09
-1.39212e-17
8.74686e-11
-2.99524e-09
-2.48216e-17
8.42451e-11
-3.08988e-09
-7.21501e-17
7.98008e-11
-3.16716e-09
-9.27146e-17
7.41427e-11
-3.22296e-09
-1.07972e-16
6.73215e-11
-3.25269e-09
-1.27755e-16
5.94506e-11
-3.24831e-09
-1.32042e-16
5.07091e-11
-3.20286e-09
-1.22004e-16
4.13561e-11
-3.10706e-09
-8.89124e-17
3.17462e-11
-2.94816e-09
-4.2791e-17
2.2342e-11
-2.7096e-09
1.65227e-17
1.37248e-11
-2.36862e-09
7.26821e-17
6.602e-12
-1.89368e-09
1.22874e-16
1.7697e-12
-1.25761e-09
1.56628e-16
-4.69541e-10
1.69574e-16
8.5854e-11
-2.11866e-09
-2.06298e-17
8.92154e-11
-2.25254e-09
-5.55153e-18
9.1938e-11
-2.38571e-09
6.48845e-18
9.38994e-11
-2.51802e-09
1.2942e-17
9.49805e-11
-2.64679e-09
1.41422e-17
9.50674e-11
-2.76998e-09
8.96709e-18
9.40559e-11
-2.88713e-09
6.59349e-18
9.18622e-11
-2.99305e-09
-1.2476e-17
8.84216e-11
-3.08644e-09
-5.18849e-17
8.37046e-11
-3.16244e-09
-7.19845e-17
7.77211e-11
-3.21698e-09
-8.38412e-17
7.05267e-11
-3.2455e-09
-9.97756e-17
6.22426e-11
-3.24003e-09
-1.02603e-16
5.3058e-11
-3.19368e-09
-9.0186e-17
4.32459e-11
-3.09725e-09
-5.72941e-17
3.31779e-11
-2.93809e-09
-9.61241e-18
2.33375e-11
-2.69976e-09
4.9154e-17
1.43303e-11
-2.35961e-09
1.0674e-16
6.89178e-12
-1.88624e-09
1.56127e-16
1.84773e-12
-1.25256e-09
1.90253e-16
-4.6769e-10
2.03834e-16
9.05487e-11
-2.1227e-09
3.26641e-17
9.40382e-11
-2.25603e-09
4.19815e-17
9.68499e-11
-2.38853e-09
4.65545e-17
9.88561e-11
-2.52003e-09
4.63249e-17
9.9933e-11
-2.64787e-09
4.13067e-17
9.9963e-11
-2.77001e-09
3.14034e-17
9.88386e-11
-2.886e-09
2.55477e-17
9.64739e-11
-2.99069e-09
1.12208e-17
9.2804e-11
-3.08277e-09
-3.39374e-17
8.78002e-11
-3.15744e-09
-5.41906e-17
8.14755e-11
-3.21066e-09
-6.73122e-17
7.38907e-11
-3.23792e-09
-8.57672e-17
6.51747e-11
-3.23131e-09
-8.74943e-17
5.55276e-11
-3.18403e-09
-7.62972e-17
4.52361e-11
-3.08696e-09
-4.11428e-17
3.46894e-11
-2.92754e-09
6.22214e-18
2.4392e-11
-2.68946e-09
6.81313e-17
1.49746e-11
-2.35019e-09
1.2614e-16
7.20216e-12
-1.87847e-09
1.78439e-16
1.93223e-12
-1.24729e-09
2.12893e-16
-4.65755e-10
2.24844e-16
9.54954e-11
-2.12691e-09
8.71301e-17
9.91156e-11
-2.25966e-09
8.96924e-17
1.02017e-10
-2.39143e-09
8.75275e-17
1.04066e-10
-2.52208e-09
7.9687e-17
1.05134e-10
-2.64894e-09
6.86901e-17
1.05101e-10
-2.76997e-09
5.42178e-17
1.03855e-10
-2.88476e-09
4.58388e-17
1.01308e-10
-2.98814e-09
2.34652e-17
9.73959e-11
-3.07886e-09
-1.4222e-17
9.20905e-11
-3.15214e-09
-3.36617e-17
8.54082e-11
-3.20398e-09
-4.39049e-17
7.74151e-11
-3.22993e-09
-5.80113e-17
6.82482e-11
-3.22215e-09
-5.88008e-17
5.81186e-11
-3.17391e-09
-4.47239e-17
4.73271e-11
-3.07617e-09
-1.0284e-17
3.62806e-11
-2.9165e-09
3.90787e-17
2.55052e-11
-2.67868e-09
9.98909e-17
1.56575e-11
-2.34034e-09
1.59481e-16
7.53283e-12
-1.87034e-09
2.10375e-16
2.02304e-12
-1.24177e-09
2.4556e-16
-4.63727e-10
2.58201e-16
1.00703e-10
-2.13129e-09
1.4173e-16
1.04456e-10
-2.26341e-09
1.38302e-16
1.07446e-10
-2.39442e-09
1.28414e-16
1.09535e-10
-2.52417e-09
1.132e-16
1.10591e-10
-2.64999e-09
9.61228e-17
1.10486e-10
-2.76987e-09
7.64549e-17
1.09109e-10
-2.88338e-09
6.49553e-17
1.06369e-10
-2.9854e-09
4.68957e-17
1.02201e-10
-3.07469e-09
3.72988e-18
9.65785e-11
-3.14651e-09
-1.65268e-17
8.95215e-11
-3.19692e-09
-2.75974e-17
8.11016e-11
-3.22151e-09
-4.49707e-17
7.14643e-11
-3.21251e-09
-4.42067e-17
6.08318e-11
-3.16328e-09
-3.2094e-17
4.95191e-11
-3.06486e-09
4.99982e-18
3.79515e-11
-2.90493e-09
5.32867e-17
2.6677e-11
-2.66741e-09
1.1739e-16
1.63785e-11
-2.33004e-09
1.76456e-16
7.88348e-12
-1.86184e-09
2.3021e-16
2.11999e-12
-1.23601e-09
2.65466e-16
-4.61603e-10
2.77132e-16
1.0618e-10
-2.13584e-09
1.97135e-16
1.10067e-10
-2.2673e-09
1.86753e-16
1.13145e-10
-2.39749e-09
1.6933e-16
1.15272e-10
-2.52629e-09
1.46495e-16
1.16309e-10
-2.65103e-09
1.2309e-16
1.16126e-10
-2.76968e-09
9.93661e-17
1.14607e-10
-2.88186e-09
8.49908e-17
1.11661e-10
-2.98245e-09
5.93523e-17
1.07223e-10
-3.07025e-09
2.30113e-17
1.01267e-10
-3.14056e-09
4.02681e-18
9.38174e-11
-3.18947e-09
-4.97516e-18
8.49517e-11
-3.21264e-09
-1.75747e-17
7.48238e-11
-3.20239e-09
-1.68362e-17
6.36675e-11
-3.15212e-09
-1.53954e-18
5.18124e-11
-3.053e-09
3.38177e-17
3.9702e-11
-2.89282e-09
8.42118e-17
2.7907e-11
-2.65561e-09
1.46031e-16
1.71374e-11
-2.31927e-09
2.06358e-16
8.25383e-12
-1.85296e-09
2.57633e-16
2.22295e-12
-1.22997e-09
2.94115e-16
-4.59375e-10
3.06873e-16
1.11935e-10
-2.14057e-09
2.51986e-16
1.15957e-10
-2.27132e-09
2.34903e-16
1.19123e-10
-2.40066e-09
2.09628e-16
1.21283e-10
-2.52845e-09
1.78988e-16
1.22295e-10
-2.65204e-09
1.50184e-16
1.22025e-10
-2.76941e-09
1.21079e-16
1.20353e-10
-2.88019e-09
1.04398e-16
1.17188e-10
-2.97929e-09
8.26487e-17
1.12464e-10
-3.06553e-09
4.11035e-17
1.06158e-10
-3.13426e-09
2.0388e-17
9.82978e-11
-3.18161e-09
1.09791e-17
8.89665e-11
-3.20331e-09
-6.04516e-18
7.83275e-11
-3.19175e-09
-3.47526e-18
6.66261e-11
-3.14042e-09
8.61069e-18
5.42068e-11
-3.04058e-09
4.67285e-17
4.15318e-11
-2.88014e-09
9.46852e-17
2.91948e-11
-2.64327e-09
1.59461e-16
1.79338e-11
-2.30801e-09
2.17621e-16
8.64358e-12
-1.84366e-09
2.71414e-16
2.33178e-12
-1.22365e-09
3.07816e-16
-4.57038e-10
3.2081e-16
1.17979e-10
-2.14548e-09
3.0552e-16
1.22137e-10
-2.27547e-09
2.81682e-16
1.25387e-10
-2.40391e-09
2.48513e-16
1.27576e-10
-2.53064e-09
2.10948e-16
1.28556e-10
-2.65302e-09
1.7592e-16
1.28189e-10
-2.76905e-09
1.43864e-16
1.26353e-10
-2.87836e-09
1.24097e-16
1.22955e-10
-2.97589e-09
9.55151e-17
1.17929e-10
-3.06051e-09
5.97035e-17
1.11255e-10
-3.12758e-09
4.07536e-17
1.02964e-10
-3.17332e-09
3.21948e-17
9.31472e-11
-3.1935e-09
2.02551e-17
8.19759e-11
-3.18058e-09
2.13133e-17
6.97076e-11
-3.12815e-09
3.66829e-17
5.67021e-11
-3.02758e-09
7.1467e-17
4.34405e-11
-2.86688e-09
1.21281e-16
3.054e-11
-2.63037e-09
1.81856e-16
1.87672e-11
-2.29623e-09
2.40465e-16
9.05247e-12
-1.83394e-09
2.90309e-16
2.44638e-12
-1.21704e-09
3.28808e-16
-4.54586e-10
3.43868e-16
1.2432e-10
-2.15057e-09
3.56361e-16
1.28613e-10
-2.27977e-09
3.25962e-16
1.31946e-10
-2.40724e-09
2.85805e-16
1.34158e-10
-2.53285e-09
2.40749e-16
1.35098e-10
-2.65396e-09
2.01847e-16
1.34624e-10
-2.76857e-09
1.64547e-16
1.3261e-10
-2.87634e-09
1.43741e-16
1.28964e-10
-2.97224e-09
1.18473e-16
1.23619e-10
-3.05516e-09
7.75526e-17
1.16559e-10
-3.12052e-09
5.55527e-17
1.07818e-10
-3.16458e-09
4.69424e-17
9.74946e-11
-3.18317e-09
2.8925e-17
8.57693e-11
-3.16885e-09
3.19216e-17
7.2912e-11
-3.11529e-09
4.23118e-17
5.9298e-11
-3.01396e-09
7.97086e-17
4.54277e-11
-2.85301e-09
1.25101e-16
3.1942e-11
-2.61688e-09
1.87833e-16
1.96371e-11
-2.28392e-09
2.41959e-16
9.48017e-12
-1.82378e-09
2.93864e-16
2.56663e-12
-1.21012e-09
3.32484e-16
-4.52014e-10
3.49772e-16
1.30969e-10
-2.15584e-09
4.02828e-16
1.35397e-10
-2.28419e-09
3.66943e-16
1.38808e-10
-2.41065e-09
3.19588e-16
1.41038e-10
-2.53508e-09
2.69513e-16
1.41928e-10
-2.65485e-09
2.25127e-16
1.41335e-10
-2.76798e-09
1.86668e-16
1.3913e-10
-2.87414e-09
1.62596e-16
1.3522e-10
-2.96833e-09
1.31439e-16
1.29539e-10
-3.04948e-09
9.447e-17
1.22072e-10
-3.11306e-09
7.4707e-17
1.12861e-10
-3.15537e-09
6.52123e-17
1.02009e-10
-3.17232e-09
5.25108e-17
8.97076e-11
-3.15655e-09
5.19704e-17
7.62389e-11
-3.10183e-09
6.56252e-17
6.19939e-11
-2.99972e-09
9.75605e-17
4.74926e-11
-2.83851e-09
1.44297e-16
3.34003e-11
-2.60279e-09
2.00244e-16
2.05432e-11
-2.27106e-09
2.53658e-16
9.92638e-12
-1.81316e-09
2.99955e-16
2.69241e-12
-1.20289e-09
3.42194e-16
-4.49316e-10
3.63254e-16
1.37935e-10
-2.16131e-09
4.43136e-16
1.42496e-10
-2.28875e-09
4.02132e-16
1.45982e-10
-2.41413e-09
3.50331e-16
1.48221e-10
-2.53732e-09
2.94221e-16
1.49053e-10
-2.65568e-09
2.4854e-16
1.48328e-10
-2.76725e-09
2.05262e-16
1.45917e-10
-2.87173e-09
1.81828e-16
1.41726e-10
-2.96414e-09
1.53092e-16
1.35689e-10
-3.04344e-09
1.10821e-16
1.27797e-10
-3.10516e-09
8.61663e-17
1.18093e-10
-3.14567e-09
7.69315e-17
1.06691e-10
-3.16092e-09
5.59942e-17
9.37907e-11
-3.14365e-09
5.74405e-17
7.96878e-11
-3.08772e-09
6.3903e-17
6.4789e-11
-2.98482e-09
9.82244e-17
4.96345e-11
-2.82335e-09
1.38062e-16
3.4914e-11
-2.58806e-09
1.95097e-16
2.14847e-11
-2.25763e-09
2.41245e-16
1.03908e-11
-1.80206e-09
2.89339e-16
2.82361e-12
-1.19531e-09
3.3248e-16
-4.46487e-10
3.58633e-16
1.45229e-10
-2.16695e-09
4.73819e-16
1.49921e-10
-2.29344e-09
4.30998e-16
1.53476e-10
-2.41768e-09
3.74649e-16
1.55717e-10
-2.53956e-09
3.17142e-16
1.56478e-10
-2.65644e-09
2.67414e-16
1.55608e-10
-2.76638e-09
2.25491e-16
1.52976e-10
-2.8691e-09
1.98471e-16
1.48485e-10
-2.95965e-09
1.64943e-16
1.42073e-10
-3.03703e-09
1.24018e-16
1.33733e-10
-3.09682e-09
1.02087e-16
1.23516e-10
-3.13545e-09
8.96936e-17
1.1154e-10
-3.14895e-09
7.43566e-17
9.80179e-11
-3.13013e-09
6.97983e-17
8.32576e-11
-3.07296e-09
7.96128e-17
6.76823e-11
-2.96924e-09
1.05996e-16
5.18523e-11
-2.80752e-09
1.46669e-16
3.64824e-11
-2.57269e-09
1.93926e-16
2.24611e-11
-2.24361e-09
2.38188e-16
1.0873e-11
-1.79047e-09
2.79153e-16
2.96012e-12
-1.1874e-09
3.28283e-16
-4.43522e-10
3.60603e-16
1.52862e-10
-2.17279e-09
4.93277e-16
1.57681e-10
-2.29826e-09
4.49602e-16
1.61298e-10
-2.4213e-09
3.94002e-16
1.63532e-10
-2.54179e-09
3.33416e-16
1.64211e-10
-2.65711e-09
2.86144e-16
1.63181e-10
-2.76535e-09
2.40011e-16
1.60309e-10
-2.86622e-09
2.15674e-16
1.555e-10
-2.95484e-09
1.83246e-16
1.48692e-10
-3.03023e-09
1.36612e-16
1.39883e-10
-3.08801e-09
1.0741e-16
1.29128e-10
-3.12469e-09
9.56749e-17
1.16556e-10
-3.13637e-09
6.95322e-17
1.02388e-10
-3.11596e-09
6.72043e-17
8.69474e-11
-3.05752e-09
6.73805e-17
7.06726e-11
-2.95297e-09
9.61768e-17
5.41448e-11
-2.79099e-09
1.27277e-16
3.81044e-11
-2.55665e-09
1.747e-16
2.34717e-11
-2.22897e-09
2.08844e-16
1.13726e-11
-1.77837e-09
2.51917e-16
3.10183e-12
-1.17912e-09
3.03383e-16
-4.40415e-10
3.4435e-16
1.60844e-10
-2.1788e-09
4.96833e-16
1.65786e-10
-2.3032e-09
4.58322e-16
1.69458e-10
-2.42497e-09
4.03214e-16
1.71673e-10
-2.54401e-09
3.46888e-16
1.72256e-10
-2.6577e-09
2.97652e-16
1.71051e-10
-2.76414e-09
2.56138e-16
1.67921e-10
-2.86309e-09
2.27606e-16
1.62773e-10
-2.94969e-09
1.91699e-16
1.55548e-10
-3.023e-09
1.43072e-16
1.46246e-10
-3.07871e-09
1.17249e-16
1.34931e-10
-3.11338e-09
9.96411e-17
1.21737e-10
-3.12318e-09
7.96915e-17
1.06901e-10
-3.10113e-09
6.86813e-17
9.07556e-11
-3.04138e-09
7.27397e-17
7.37584e-11