/*--------------------------------*- C++ -*----------------------------------*\
| =========                 |                                                 |
| \\      /  F ield         | OpenFOAM: The Open Source CFD Toolbox           |
|  \\    /   O peration     | Version:  v2012                                 |
|   \\  /    A nd           | Website:  www.openfoam.com                      |
|    \\/     M anipulation  |                                                 |
\*---------------------------------------------------------------------------*/
FoamFile
{
    version     2.0;
    format      ascii;
    class       volScalarField;
    location    "0.85";
    object      p_rgh;
}
// * * * * * * * * * * * * * * * * * * * * * * * * * * * * * * * * * * * * * //

dimensions      [1 -1 -2 0 0 0 0];


internalField   nonuniform List<scalar> 
3326
(
3.48581e+06
3.48586e+06
3.48587e+06
3.48586e+06
3.48581e+06
3.48573e+06
3.48559e+06
3.48543e+06
3.48518e+06
3.48542e+06
3.48556e+06
3.48566e+06
3.48574e+06
3.48579e+06
3.48581e+06
3.4858e+06
3.48575e+06
3.48567e+06
3.48554e+06
3.48538e+06
3.48513e+06
3.43395e+06
3.44083e+06
3.44724e+06
3.45219e+06
3.45654e+06
3.46013e+06
3.46324e+06
3.46588e+06
3.46817e+06
3.47014e+06
3.47186e+06
3.47335e+06
3.47467e+06
3.47583e+06
3.47686e+06
3.47778e+06
3.4786e+06
3.47934e+06
3.48001e+06
3.48062e+06
3.48118e+06
3.48169e+06
3.48216e+06
3.48259e+06
3.48299e+06
3.48336e+06
3.4837e+06
3.48401e+06
3.4843e+06
3.48456e+06
3.4848e+06
3.48501e+06
3.4852e+06
3.48536e+06
3.48549e+06
3.4856e+06
3.48568e+06
3.48573e+06
3.48575e+06
3.48574e+06
3.4857e+06
3.48561e+06
3.48548e+06
3.48533e+06
3.48508e+06
3.43424e+06
3.44114e+06
3.44749e+06
3.45242e+06
3.45674e+06
3.4603e+06
3.46338e+06
3.46599e+06
3.46825e+06
3.47021e+06
3.4719e+06
3.47338e+06
3.47468e+06
3.47583e+06
3.47685e+06
3.47776e+06
3.47857e+06
3.4793e+06
3.47997e+06
3.48057e+06
3.48113e+06
3.48163e+06
3.4821e+06
3.48253e+06
3.48293e+06
3.48329e+06
3.48363e+06
3.48394e+06
3.48423e+06
3.48449e+06
3.48473e+06
3.48495e+06
3.48513e+06
3.4853e+06
3.48543e+06
3.48554e+06
3.48563e+06
3.48568e+06
3.4857e+06
3.48569e+06
3.48564e+06
3.48556e+06
3.48543e+06
3.48528e+06
3.48503e+06
3.43465e+06
3.44158e+06
3.44785e+06
3.45275e+06
3.45702e+06
3.46055e+06
3.46358e+06
3.46616e+06
3.46839e+06
3.47031e+06
3.47198e+06
3.47344e+06
3.47472e+06
3.47585e+06
3.47686e+06
3.47775e+06
3.47855e+06
3.47928e+06
3.47993e+06
3.48053e+06
3.48108e+06
3.48158e+06
3.48204e+06
3.48247e+06
3.48287e+06
3.48323e+06
3.48357e+06
3.48388e+06
3.48417e+06
3.48443e+06
3.48467e+06
3.48489e+06
3.48508e+06
3.48524e+06
3.48538e+06
3.48549e+06
3.48557e+06
3.48563e+06
3.48565e+06
3.48564e+06
3.48559e+06
3.48552e+06
3.48539e+06
3.48524e+06
3.48499e+06
3.4352e+06
3.44214e+06
3.44832e+06
3.45319e+06
3.45739e+06
3.46087e+06
3.46385e+06
3.46639e+06
3.46858e+06
3.47046e+06
3.4721e+06
3.47353e+06
3.47479e+06
3.4759e+06
3.47688e+06
3.47776e+06
3.47855e+06
3.47926e+06
3.47991e+06
3.4805e+06
3.48104e+06
3.48154e+06
3.482e+06
3.48242e+06
3.48281e+06
3.48318e+06
3.48352e+06
3.48383e+06
3.48411e+06
3.48438e+06
3.48462e+06
3.48483e+06
3.48502e+06
3.48519e+06
3.48533e+06
3.48544e+06
3.48552e+06
3.48558e+06
3.4856e+06
3.48559e+06
3.48555e+06
3.48547e+06
3.48535e+06
3.4852e+06
3.48496e+06
3.43588e+06
3.44284e+06
3.44891e+06
3.45372e+06
3.45785e+06
3.46127e+06
3.46419e+06
3.46667e+06
3.46881e+06
3.47065e+06
3.47226e+06
3.47365e+06
3.47488e+06
3.47596e+06
3.47693e+06
3.47779e+06
3.47856e+06
3.47926e+06
3.47989e+06
3.48047e+06
3.48101e+06
3.4815e+06
3.48195e+06
3.48237e+06
3.48276e+06
3.48313e+06
3.48346e+06
3.48377e+06
3.48406e+06
3.48433e+06
3.48456e+06
3.48478e+06
3.48497e+06
3.48514e+06
3.48528e+06
3.48539e+06
3.48548e+06
3.48553e+06
3.48556e+06
3.48555e+06
3.48551e+06
3.48543e+06
3.48531e+06
3.48516e+06
3.48492e+06
3.43673e+06
3.44367e+06
3.44962e+06
3.45437e+06
3.4584e+06
3.46174e+06
3.4646e+06
3.46702e+06
3.4691e+06
3.47089e+06
3.47244e+06
3.4738e+06
3.47499e+06
3.47605e+06
3.47699e+06
3.47782e+06
3.47858e+06
3.47926e+06
3.47989e+06
3.48046e+06
3.48098e+06
3.48147e+06
3.48191e+06
3.48233e+06
3.48272e+06
3.48308e+06
3.48341e+06
3.48373e+06
3.48401e+06
3.48428e+06
3.48452e+06
3.48473e+06
3.48492e+06
3.48509e+06
3.48523e+06
3.48535e+06
3.48543e+06
3.48549e+06
3.48551e+06
3.48551e+06
3.48547e+06
3.48539e+06
3.48527e+06
3.48513e+06
3.48489e+06
3.43777e+06
3.44467e+06
3.45047e+06
3.45513e+06
3.45905e+06
3.46231e+06
3.46507e+06
3.46742e+06
3.46943e+06
3.47116e+06
3.47267e+06
3.47398e+06
3.47513e+06
3.47615e+06
3.47706e+06
3.47788e+06
3.47861e+06
3.47928e+06
3.47989e+06
3.48045e+06
3.48096e+06
3.48144e+06
3.48188e+06
3.48229e+06
3.48268e+06
3.48304e+06
3.48337e+06
3.48368e+06
3.48397e+06
3.48423e+06
3.48447e+06
3.48469e+06
3.48488e+06
3.48505e+06
3.48519e+06
3.4853e+06
3.48539e+06
3.48545e+06
3.48548e+06
3.48547e+06
3.48543e+06
3.48536e+06
3.48524e+06
3.4851e+06
3.48487e+06
3.43904e+06
3.44585e+06
3.45148e+06
3.45602e+06
3.45981e+06
3.46296e+06
3.46562e+06
3.46788e+06
3.46981e+06
3.47148e+06
3.47292e+06
3.47418e+06
3.47529e+06
3.47628e+06
3.47715e+06
3.47794e+06
3.47865e+06
3.4793e+06
3.4799e+06
3.48044e+06
3.48095e+06
3.48142e+06
3.48185e+06
3.48226e+06
3.48264e+06
3.483e+06
3.48333e+06
3.48364e+06
3.48392e+06
3.48419e+06
3.48443e+06
3.48464e+06
3.48484e+06
3.48501e+06
3.48515e+06
3.48527e+06
3.48535e+06
3.48541e+06
3.48544e+06
3.48544e+06
3.4854e+06
3.48533e+06
3.48521e+06
3.48508e+06
3.48485e+06
3.44058e+06
3.44724e+06
3.45266e+06
3.45704e+06
3.46068e+06
3.4637e+06
3.46624e+06
3.4684e+06
3.47024e+06
3.47183e+06
3.47321e+06
3.47441e+06
3.47547e+06
3.47642e+06
3.47726e+06
3.47802e+06
3.47871e+06
3.47933e+06
3.47991e+06
3.48044e+06
3.48094e+06
3.4814e+06
3.48183e+06
3.48223e+06
3.48261e+06
3.48296e+06
3.48329e+06
3.4836e+06
3.48388e+06
3.48415e+06
3.48439e+06
3.48461e+06
3.4848e+06
3.48497e+06
3.48511e+06
3.48523e+06
3.48532e+06
3.48538e+06
3.48541e+06
3.48541e+06
3.48537e+06
3.4853e+06
3.48519e+06
3.48505e+06
3.48483e+06
3.44241e+06
3.44884e+06
3.45402e+06
3.45821e+06
3.46166e+06
3.46453e+06
3.46694e+06
3.46898e+06
3.47072e+06
3.47222e+06
3.47353e+06
3.47467e+06
3.47568e+06
3.47657e+06
3.47738e+06
3.47811e+06
3.47877e+06
3.47937e+06
3.47993e+06
3.48045e+06
3.48093e+06
3.48138e+06
3.48181e+06
3.4822e+06
3.48258e+06
3.48293e+06
3.48325e+06
3.48356e+06
3.48385e+06
3.48411e+06
3.48435e+06
3.48457e+06
3.48477e+06
3.48494e+06
3.48508e+06
3.4852e+06
3.48529e+06
3.48535e+06
3.48538e+06
3.48538e+06
3.48535e+06
3.48528e+06
3.48517e+06
3.48504e+06
3.48482e+06
3.44458e+06
3.4507e+06
3.45558e+06
3.45952e+06
3.46277e+06
3.46545e+06
3.46771e+06
3.46961e+06
3.47124e+06
3.47265e+06
3.47387e+06
3.47495e+06
3.4759e+06
3.47675e+06
3.47751e+06
3.4782e+06
3.47884e+06
3.47942e+06
3.47996e+06
3.48046e+06
3.48093e+06
3.48137e+06
3.48179e+06
3.48218e+06
3.48255e+06
3.4829e+06
3.48322e+06
3.48353e+06
3.48381e+06
3.48408e+06
3.48432e+06
3.48454e+06
3.48473e+06
3.48491e+06
3.48505e+06
3.48517e+06
3.48526e+06
3.48532e+06
3.48536e+06
3.48536e+06
3.48532e+06
3.48526e+06
3.48515e+06
3.48502e+06
3.48481e+06
3.44711e+06
3.45281e+06
3.45734e+06
3.461e+06
3.46399e+06
3.46647e+06
3.46855e+06
3.47031e+06
3.47181e+06
3.47311e+06
3.47425e+06
3.47524e+06
3.47613e+06
3.47693e+06
3.47765e+06
3.47831e+06
3.47891e+06
3.47947e+06
3.47999e+06
3.48048e+06
3.48094e+06
3.48137e+06
3.48178e+06
3.48216e+06
3.48253e+06
3.48287e+06
3.48319e+06
3.4835e+06
3.48378e+06
3.48405e+06
3.48429e+06
3.48451e+06
3.48471e+06
3.48488e+06
3.48503e+06
3.48515e+06
3.48524e+06
3.4853e+06
3.48533e+06
3.48534e+06
3.4853e+06
3.48524e+06
3.48514e+06
3.48501e+06
3.4848e+06
3.45e+06
3.45519e+06
3.4593e+06
3.46262e+06
3.46533e+06
3.46757e+06
3.46946e+06
3.47105e+06
3.47242e+06
3.4736e+06
3.47464e+06
3.47556e+06
3.47638e+06
3.47712e+06
3.4778e+06
3.47842e+06
3.47899e+06
3.47953e+06
3.48003e+06
3.4805e+06
3.48094e+06
3.48136e+06
3.48176e+06
3.48214e+06
3.4825e+06
3.48285e+06
3.48317e+06
3.48347e+06
3.48376e+06
3.48402e+06
3.48426e+06
3.48448e+06
3.48468e+06
3.48486e+06
3.485e+06
3.48512e+06
3.48522e+06
3.48528e+06
3.48532e+06
3.48532e+06
3.48529e+06
3.48523e+06
3.48512e+06
3.485e+06
3.4848e+06
3.45325e+06
3.45783e+06
3.46146e+06
3.46439e+06
3.46678e+06
3.46876e+06
3.47042e+06
3.47184e+06
3.47306e+06
3.47412e+06
3.47506e+06
3.47589e+06
3.47665e+06
3.47733e+06
3.47796e+06
3.47854e+06
3.47908e+06
3.47959e+06
3.48007e+06
3.48052e+06
3.48095e+06
3.48136e+06
3.48175e+06
3.48213e+06
3.48248e+06
3.48282e+06
3.48314e+06
3.48345e+06
3.48373e+06
3.484e+06
3.48424e+06
3.48446e+06
3.48466e+06
3.48484e+06
3.48498e+06
3.48511e+06
3.4852e+06
3.48527e+06
3.4853e+06
3.4853e+06
3.48527e+06
3.48522e+06
3.48512e+06
3.485e+06
3.4848e+06
3.45683e+06
3.46072e+06
3.46381e+06
3.46629e+06
3.46833e+06
3.47002e+06
3.47145e+06
3.47267e+06
3.47373e+06
3.47466e+06
3.47549e+06
3.47624e+06
3.47692e+06
3.47754e+06
3.47812e+06
3.47866e+06
3.47917e+06
3.47965e+06
3.48011e+06
3.48054e+06
3.48096e+06
3.48136e+06
3.48175e+06
3.48212e+06
3.48247e+06
3.4828e+06
3.48312e+06
3.48343e+06
3.48371e+06
3.48398e+06
3.48422e+06
3.48444e+06
3.48464e+06
3.48482e+06
3.48497e+06
3.48509e+06
3.48519e+06
3.48525e+06
3.48529e+06
3.48529e+06
3.48526e+06
3.48521e+06
3.48511e+06
3.48499e+06
3.4848e+06
3.46071e+06
3.46382e+06
3.4663e+06
3.46831e+06
3.46996e+06
3.47134e+06
3.47251e+06
3.47353e+06
3.47442e+06
3.47522e+06
3.47593e+06
3.47659e+06
3.47719e+06
3.47775e+06
3.47828e+06
3.47878e+06
3.47926e+06
3.47971e+06
3.48015e+06
3.48057e+06
3.48097e+06
3.48136e+06
3.48174e+06
3.4821e+06
3.48245e+06
3.48279e+06
3.48311e+06
3.48341e+06
3.48369e+06
3.48396e+06
3.4842e+06
3.48443e+06
3.48463e+06
3.4848e+06
3.48496e+06
3.48508e+06
3.48518e+06
3.48524e+06
3.48528e+06
3.48528e+06
3.48526e+06
3.4852e+06
3.48511e+06
3.48499e+06
3.48481e+06
3.46482e+06
3.46709e+06
3.46892e+06
3.4704e+06
3.47164e+06
3.4727e+06
3.47361e+06
3.47441e+06
3.47513e+06
3.47578e+06
3.47638e+06
3.47694e+06
3.47747e+06
3.47797e+06
3.47844e+06
3.4789e+06
3.47934e+06
3.47977e+06
3.48019e+06
3.48059e+06
3.48098e+06
3.48137e+06
3.48174e+06
3.48209e+06
3.48244e+06
3.48277e+06
3.48309e+06
3.48339e+06
3.48368e+06
3.48394e+06
3.48419e+06
3.48441e+06
3.48462e+06
3.48479e+06
3.48495e+06
3.48507e+06
3.48517e+06
3.48524e+06
3.48527e+06
3.48528e+06
3.48525e+06
3.4852e+06
3.48511e+06
3.485e+06
3.48482e+06
3.46908e+06
3.47047e+06
3.47161e+06
3.47256e+06
3.47337e+06
3.47408e+06
3.47472e+06
3.4753e+06
3.47584e+06
3.47635e+06
3.47683e+06
3.47729e+06
3.47774e+06
3.47818e+06
3.4786e+06
3.47902e+06
3.47943e+06
3.47983e+06
3.48023e+06
3.48062e+06
3.481e+06
3.48137e+06
3.48173e+06
3.48209e+06
3.48243e+06
3.48276e+06
3.48308e+06
3.48338e+06
3.48366e+06
3.48393e+06
3.48418e+06
3.4844e+06
3.48461e+06
3.48479e+06
3.48494e+06
3.48507e+06
3.48516e+06
3.48523e+06
3.48527e+06
3.48528e+06
3.48525e+06
3.4852e+06
3.48511e+06
3.485e+06
3.48484e+06
3.47341e+06
3.4739e+06
3.47433e+06
3.47473e+06
3.4751e+06
3.47547e+06
3.47583e+06
3.47618e+06
3.47654e+06
3.47691e+06
3.47727e+06
3.47764e+06
3.47801e+06
3.47839e+06
3.47876e+06
3.47914e+06
3.47952e+06
3.47989e+06
3.48027e+06
3.48064e+06
3.48101e+06
3.48137e+06
3.48173e+06
3.48208e+06
3.48242e+06
3.48275e+06
3.48306e+06
3.48337e+06
3.48365e+06
3.48392e+06
3.48417e+06
3.4844e+06
3.4846e+06
3.48478e+06
3.48494e+06
3.48507e+06
3.48516e+06
3.48523e+06
3.48527e+06
3.48528e+06
3.48525e+06
3.4852e+06
3.48512e+06
3.48501e+06
3.48485e+06
3.47771e+06
3.47731e+06
3.47703e+06
3.47688e+06
3.47681e+06
3.47683e+06
3.47692e+06
3.47706e+06
3.47724e+06
3.47745e+06
3.4777e+06
3.47798e+06
3.47827e+06
3.47858e+06
3.47891e+06
3.47925e+06
3.47959e+06
3.47995e+06
3.4803e+06
3.48066e+06
3.48102e+06
3.48137e+06
3.48173e+06
3.48207e+06
3.48241e+06
3.48274e+06
3.48306e+06
3.48336e+06
3.48365e+06
3.48392e+06
3.48417e+06
3.4844e+06
3.4846e+06
3.48478e+06
3.48494e+06
3.48507e+06
3.48517e+06
3.48523e+06
3.48527e+06
3.48528e+06
3.48526e+06
3.48521e+06
3.48512e+06
3.48502e+06
3.48487e+06
3.48191e+06
3.48064e+06
3.47966e+06
3.47898e+06
3.47848e+06
3.47817e+06
3.47798e+06
3.4779e+06
3.4779e+06
3.47798e+06
3.47812e+06
3.4783e+06
3.47852e+06
3.47877e+06
3.47905e+06
3.47935e+06
3.47967e+06
3.48e+06
3.48033e+06
3.48068e+06
3.48103e+06
3.48138e+06
3.48172e+06
3.48207e+06
3.4824e+06
3.48273e+06
3.48305e+06
3.48335e+06
3.48364e+06
3.48391e+06
3.48416e+06
3.4844e+06
3.4846e+06
3.48479e+06
3.48494e+06
3.48507e+06
3.48517e+06
3.48524e+06
3.48528e+06
3.48529e+06
3.48526e+06
3.48521e+06
3.48513e+06
3.48504e+06
3.48489e+06
3.48591e+06
3.48383e+06
3.48218e+06
3.48098e+06
3.48008e+06
3.47944e+06
3.47899e+06
3.4787e+06
3.47854e+06
3.47848e+06
3.47851e+06
3.4786e+06
3.47875e+06
3.47895e+06
3.47918e+06
3.47944e+06
3.47973e+06
3.48004e+06
3.48036e+06
3.48069e+06
3.48103e+06
3.48138e+06
3.48172e+06
3.48206e+06
3.4824e+06
3.48272e+06
3.48304e+06
3.48335e+06
3.48364e+06
3.48391e+06
3.48417e+06
3.4844e+06
3.48461e+06
3.48479e+06
3.48495e+06
3.48508e+06
3.48518e+06
3.48525e+06
3.48529e+06
3.4853e+06
3.48527e+06
3.48522e+06
3.48514e+06
3.48505e+06
3.48492e+06
3.48964e+06
3.48683e+06
3.48454e+06
3.48287e+06
3.48158e+06
3.48063e+06
3.47994e+06
3.47945e+06
3.47913e+06
3.47894e+06
3.47887e+06
3.47888e+06
3.47896e+06
3.4791e+06
3.4793e+06
3.47953e+06
3.47979e+06
3.48008e+06
3.48038e+06
3.48071e+06
3.48104e+06
3.48137e+06
3.48171e+06
3.48205e+06
3.48239e+06
3.48272e+06
3.48304e+06
3.48335e+06
3.48364e+06
3.48391e+06
3.48417e+06
3.48441e+06
3.48462e+06
3.48481e+06
3.48496e+06
3.48509e+06
3.48519e+06
3.48526e+06
3.4853e+06
3.48531e+06
3.48528e+06
3.48524e+06
3.48516e+06
3.48507e+06
3.48494e+06
3.49303e+06
3.48957e+06
3.48671e+06
3.48461e+06
3.48296e+06
3.48173e+06
3.48081e+06
3.48014e+06
3.47967e+06
3.47937e+06
3.47919e+06
3.47913e+06
3.47915e+06
3.47924e+06
3.4794e+06
3.4796e+06
3.47984e+06
3.48011e+06
3.4804e+06
3.48071e+06
3.48104e+06
3.48137e+06
3.48171e+06
3.48205e+06
3.48238e+06
3.48271e+06
3.48304e+06
3.48335e+06
3.48364e+06
3.48392e+06
3.48418e+06
3.48442e+06
3.48463e+06
3.48482e+06
3.48498e+06
3.48511e+06
3.48521e+06
3.48528e+06
3.48532e+06
3.48532e+06
3.4853e+06
3.48525e+06
3.48517e+06
3.48509e+06
3.48497e+06
3.49608e+06
3.49204e+06
3.48868e+06
3.48619e+06
3.48422e+06
3.48273e+06
3.4816e+06
3.48076e+06
3.48016e+06
3.47974e+06
3.47948e+06
3.47934e+06
3.47931e+06
3.47936e+06
3.47948e+06
3.47965e+06
3.47987e+06
3.48013e+06
3.48041e+06
3.48071e+06
3.48103e+06
3.48137e+06
3.4817e+06
3.48204e+06
3.48238e+06
3.48271e+06
3.48304e+06
3.48335e+06
3.48365e+06
3.48393e+06
3.48419e+06
3.48443e+06
3.48465e+06
3.48484e+06
3.485e+06
3.48513e+06
3.48523e+06
3.4853e+06
3.48534e+06
3.48534e+06
3.48532e+06
3.48527e+06
3.48519e+06
3.48511e+06
3.48499e+06
3.5125e+06
3.50545e+06
3.49882e+06
3.49424e+06
3.49043e+06
3.48758e+06
3.48533e+06
3.48361e+06
3.48229e+06
3.48131e+06
3.48058e+06
3.48007e+06
3.47973e+06
3.47953e+06
3.47945e+06
3.47946e+06
3.47954e+06
3.4797e+06
3.4799e+06
3.48014e+06
3.48041e+06
3.48071e+06
3.48103e+06
3.48136e+06
3.48169e+06
3.48204e+06
3.48238e+06
3.48271e+06
3.48304e+06
3.48335e+06
3.48366e+06
3.48394e+06
3.48421e+06
3.48445e+06
3.48467e+06
3.48486e+06
3.48502e+06
3.48515e+06
3.48526e+06
3.48532e+06
3.48536e+06
3.48536e+06
3.48534e+06
3.48528e+06
3.48521e+06
3.48513e+06
3.48502e+06
3.51649e+06
3.50848e+06
3.50126e+06
3.49615e+06
3.49196e+06
3.48879e+06
3.48629e+06
3.48437e+06
3.48289e+06
3.48177e+06
3.48094e+06
3.48034e+06
3.47993e+06
3.47968e+06
3.47955e+06
3.47953e+06
3.47959e+06
3.47972e+06
3.47991e+06
3.48014e+06
3.48041e+06
3.4807e+06
3.48102e+06
3.48135e+06
3.48169e+06
3.48203e+06
3.48237e+06
3.48271e+06
3.48304e+06
3.48336e+06
3.48367e+06
3.48396e+06
3.48423e+06
3.48447e+06
3.48469e+06
3.48489e+06
3.48505e+06
3.48518e+06
3.48528e+06
3.48535e+06
3.48538e+06
3.48539e+06
3.48536e+06
3.4853e+06
3.48523e+06
3.48515e+06
3.48505e+06
3.52039e+06
3.51109e+06
3.50339e+06
3.49775e+06
3.49325e+06
3.4898e+06
3.4871e+06
3.485e+06
3.48339e+06
3.48215e+06
3.48123e+06
3.48056e+06
3.48009e+06
3.47979e+06
3.47963e+06
3.47958e+06
3.47962e+06
3.47973e+06
3.47991e+06
3.48013e+06
3.48039e+06
3.48069e+06
3.481e+06
3.48133e+06
3.48168e+06
3.48202e+06
3.48237e+06
3.48271e+06
3.48305e+06
3.48337e+06
3.48368e+06
3.48398e+06
3.48425e+06
3.4845e+06
3.48472e+06
3.48492e+06
3.48508e+06
3.48521e+06
3.48531e+06
3.48538e+06
3.48541e+06
3.48541e+06
3.48538e+06
3.48533e+06
3.48525e+06
3.48517e+06
3.48508e+06
3.5239e+06
3.51317e+06
3.50519e+06
3.49906e+06
3.49432e+06
3.49063e+06
3.48775e+06
3.48551e+06
3.48378e+06
3.48245e+06
3.48146e+06
3.48072e+06
3.48021e+06
3.47987e+06
3.47967e+06
3.4796e+06
3.47962e+06
3.47973e+06
3.47989e+06
3.48011e+06
3.48037e+06
3.48067e+06
3.48098e+06
3.48132e+06
3.48166e+06
3.48201e+06
3.48237e+06
3.48272e+06
3.48306e+06
3.48339e+06
3.4837e+06
3.484e+06
3.48427e+06
3.48453e+06
3.48475e+06
3.48495e+06
3.48512e+06
3.48525e+06
3.48535e+06
3.48542e+06
3.48545e+06
3.48544e+06
3.48541e+06
3.48535e+06
3.48527e+06
3.48519e+06
3.48511e+06
3.52625e+06
3.51437e+06
3.50643e+06
3.49996e+06
3.49509e+06
3.49123e+06
3.48824e+06
3.48589e+06
3.48407e+06
3.48267e+06
3.48161e+06
3.48083e+06
3.48027e+06
3.4799e+06
3.47969e+06
3.4796e+06
3.47961e+06
3.4797e+06
3.47987e+06
3.48008e+06
3.48035e+06
3.48064e+06
3.48096e+06
3.4813e+06
3.48165e+06
3.48201e+06
3.48237e+06
3.48272e+06
3.48307e+06
3.4834e+06
3.48372e+06
3.48402e+06
3.4843e+06
3.48456e+06
3.48479e+06
3.48499e+06
3.48516e+06
3.48529e+06
3.48539e+06
3.48545e+06
3.48548e+06
3.48547e+06
3.48544e+06
3.48537e+06
3.48529e+06
3.48521e+06
3.48513e+06
3.52751e+06
3.51521e+06
3.50732e+06
3.50064e+06
3.49568e+06
3.49169e+06
3.4886e+06
3.48616e+06
3.48427e+06
3.48281e+06
3.4817e+06
3.48088e+06
3.48029e+06
3.4799e+06
3.47967e+06
3.47957e+06
3.47957e+06
3.47966e+06
3.47983e+06
3.48004e+06
3.48031e+06
3.48061e+06
3.48094e+06
3.48128e+06
3.48164e+06
3.482e+06
3.48236e+06
3.48273e+06
3.48308e+06
3.48342e+06
3.48375e+06
3.48405e+06
3.48434e+06
3.4846e+06
3.48483e+06
3.48503e+06
3.4852e+06
3.48533e+06
3.48543e+06
3.4855e+06
3.48552e+06
3.48551e+06
3.48547e+06
3.4854e+06
3.48531e+06
3.48523e+06
3.48515e+06
3.52738e+06
3.51546e+06
3.5076e+06
3.50095e+06
3.49597e+06
3.49193e+06
3.48879e+06
3.4863e+06
3.48436e+06
3.48286e+06
3.48172e+06
3.48087e+06
3.48026e+06
3.47986e+06
3.47962e+06
3.47951e+06
3.47951e+06
3.4796e+06
3.47977e+06
3.47999e+06
3.48026e+06
3.48057e+06
3.4809e+06
3.48126e+06
3.48162e+06
3.48199e+06
3.48237e+06
3.48273e+06
3.48309e+06
3.48344e+06
3.48377e+06
3.48409e+06
3.48438e+06
3.48464e+06
3.48487e+06
3.48508e+06
3.48525e+06
3.48538e+06
3.48548e+06
3.48554e+06
3.48556e+06
3.48555e+06
3.4855e+06
3.48543e+06
3.48533e+06
3.48525e+06
3.48517e+06
3.52776e+06
3.51621e+06
3.50806e+06
3.50135e+06
3.49624e+06
3.49211e+06
3.4889e+06
3.48635e+06
3.48436e+06
3.48283e+06
3.48166e+06
3.4808e+06
3.48019e+06
3.47977e+06
3.47953e+06
3.47942e+06
3.47943e+06
3.47953e+06
3.4797e+06
3.47993e+06
3.48021e+06
3.48053e+06
3.48087e+06
3.48123e+06
3.48161e+06
3.48199e+06
3.48237e+06
3.48274e+06
3.48311e+06
3.48347e+06
3.48381e+06
3.48412e+06
3.48442e+06
3.48469e+06
3.48492e+06
3.48513e+06
3.4853e+06
3.48544e+06
3.48553e+06
3.48559e+06
3.48561e+06
3.48559e+06
3.48554e+06
3.48546e+06
3.48535e+06
3.48526e+06
3.48519e+06
3.52716e+06
3.5159e+06
3.50781e+06
3.50123e+06
3.49614e+06
3.49202e+06
3.4888e+06
3.48624e+06
3.48424e+06
3.4827e+06
3.48153e+06
3.48066e+06
3.48005e+06
3.47964e+06
3.4794e+06
3.4793e+06
3.47932e+06
3.47943e+06
3.47961e+06
3.47986e+06
3.48015e+06
3.48047e+06
3.48083e+06
3.4812e+06
3.48159e+06
3.48198e+06
3.48237e+06
3.48276e+06
3.48313e+06
3.4835e+06
3.48384e+06
3.48417e+06
3.48447e+06
3.48474e+06
3.48498e+06
3.48519e+06
3.48536e+06
3.4855e+06
3.48559e+06
3.48565e+06
3.48566e+06
3.48564e+06
3.48558e+06
3.48549e+06
3.48538e+06
3.48527e+06
3.4852e+06
3.52954e+06
3.5172e+06
3.50833e+06
3.50138e+06
3.49609e+06
3.49187e+06
3.48859e+06
3.486e+06
3.484e+06
3.48246e+06
3.48129e+06
3.48044e+06
3.47984e+06
3.47945e+06
3.47923e+06
3.47914e+06
3.47918e+06
3.4793e+06
3.4795e+06
3.47976e+06
3.48007e+06
3.48041e+06
3.48078e+06
3.48117e+06
3.48157e+06
3.48197e+06
3.48237e+06
3.48277e+06
3.48316e+06
3.48353e+06
3.48388e+06
3.48421e+06
3.48452e+06
3.4848e+06
3.48504e+06
3.48525e+06
3.48543e+06
3.48556e+06
3.48566e+06
3.48571e+06
3.48572e+06
3.48569e+06
3.48562e+06
3.48552e+06
3.4854e+06
3.48528e+06
3.4852e+06
3.52605e+06
3.51509e+06
3.50693e+06
3.50031e+06
3.49522e+06
3.49113e+06
3.48794e+06
3.48543e+06
3.48349e+06
3.482e+06
3.48089e+06
3.48008e+06
3.47952e+06
3.47917e+06
3.47898e+06
3.47893e+06
3.479e+06
3.47915e+06
3.47937e+06
3.47966e+06
3.47998e+06
3.48034e+06
3.48073e+06
3.48113e+06
3.48155e+06
3.48196e+06
3.48238e+06
3.48278e+06
3.48318e+06
3.48356e+06
3.48392e+06
3.48426e+06
3.48457e+06
3.48486e+06
3.4851e+06
3.48532e+06
3.48549e+06
3.48563e+06
3.48572e+06
3.48577e+06
3.48577e+06
3.48574e+06
3.48566e+06
3.48555e+06
3.48542e+06
3.48529e+06
3.48519e+06
3.48581e+06
3.48586e+06
3.48587e+06
3.48586e+06
3.48581e+06
3.48573e+06
3.48559e+06
3.48543e+06
3.48518e+06
3.48542e+06
3.48556e+06
3.48566e+06
3.48574e+06
3.48579e+06
3.48581e+06
3.4858e+06
3.48575e+06
3.48567e+06
3.48554e+06
3.48538e+06
3.48513e+06
3.43395e+06
3.44083e+06
3.44724e+06
3.45219e+06
3.45654e+06
3.46013e+06
3.46324e+06
3.46588e+06
3.46817e+06
3.47014e+06
3.47186e+06
3.47335e+06
3.47467e+06
3.47583e+06
3.47686e+06
3.47778e+06
3.4786e+06
3.47934e+06
3.48001e+06
3.48062e+06
3.48118e+06
3.48169e+06
3.48216e+06
3.48259e+06
3.48299e+06
3.48336e+06
3.4837e+06
3.48401e+06
3.4843e+06
3.48456e+06
3.4848e+06
3.48501e+06
3.4852e+06
3.48536e+06
3.48549e+06
3.4856e+06
3.48568e+06
3.48573e+06
3.48575e+06
3.48574e+06
3.4857e+06
3.48561e+06
3.48548e+06
3.48533e+06
3.48508e+06
3.43424e+06
3.44114e+06
3.44749e+06
3.45242e+06
3.45674e+06
3.4603e+06
3.46338e+06
3.46599e+06
3.46825e+06
3.47021e+06
3.4719e+06
3.47338e+06
3.47468e+06
3.47583e+06
3.47685e+06
3.47776e+06
3.47857e+06
3.4793e+06
3.47997e+06
3.48057e+06
3.48113e+06
3.48163e+06
3.4821e+06
3.48253e+06
3.48293e+06
3.48329e+06
3.48363e+06
3.48394e+06
3.48423e+06
3.48449e+06
3.48473e+06
3.48495e+06
3.48513e+06
3.4853e+06
3.48543e+06
3.48554e+06
3.48563e+06
3.48568e+06
3.4857e+06
3.48569e+06
3.48564e+06
3.48556e+06
3.48543e+06
3.48528e+06
3.48503e+06
3.43465e+06
3.44158e+06
3.44785e+06
3.45275e+06
3.45702e+06
3.46055e+06
3.46358e+06
3.46616e+06
3.46839e+06
3.47031e+06
3.47198e+06
3.47344e+06
3.47472e+06
3.47585e+06
3.47686e+06
3.47775e+06
3.47855e+06
3.47928e+06
3.47993e+06
3.48053e+06
3.48108e+06
3.48158e+06
3.48204e+06
3.48247e+06
3.48287e+06
3.48323e+06
3.48357e+06
3.48388e+06
3.48417e+06
3.48443e+06
3.48467e+06
3.48489e+06
3.48508e+06
3.48524e+06
3.48538e+06
3.48549e+06
3.48557e+06
3.48563e+06
3.48565e+06
3.48564e+06
3.48559e+06
3.48552e+06
3.48539e+06
3.48524e+06
3.48499e+06
3.4352e+06
3.44214e+06
3.44832e+06
3.45319e+06
3.45739e+06
3.46087e+06
3.46385e+06
3.46639e+06
3.46858e+06
3.47046e+06
3.4721e+06
3.47353e+06
3.47479e+06
3.4759e+06
3.47688e+06
3.47776e+06
3.47855e+06
3.47926e+06
3.47991e+06
3.4805e+06
3.48104e+06
3.48154e+06
3.482e+06
3.48242e+06
3.48281e+06
3.48318e+06
3.48352e+06
3.48383e+06
3.48411e+06
3.48438e+06
3.48462e+06
3.48483e+06
3.48502e+06
3.48519e+06
3.48533e+06
3.48544e+06
3.48552e+06
3.48558e+06
3.4856e+06
3.48559e+06
3.48555e+06
3.48547e+06
3.48535e+06
3.4852e+06
3.48496e+06
3.43588e+06
3.44284e+06
3.44891e+06
3.45372e+06
3.45785e+06
3.46127e+06
3.46419e+06
3.46667e+06
3.46881e+06
3.47065e+06
3.47226e+06
3.47365e+06
3.47488e+06
3.47596e+06
3.47693e+06
3.47779e+06
3.47856e+06
3.47926e+06
3.47989e+06
3.48047e+06
3.48101e+06
3.4815e+06
3.48195e+06
3.48237e+06
3.48276e+06
3.48313e+06
3.48346e+06
3.48377e+06
3.48406e+06
3.48433e+06
3.48456e+06
3.48478e+06
3.48497e+06
3.48514e+06
3.48528e+06
3.48539e+06
3.48548e+06
3.48553e+06
3.48556e+06
3.48555e+06
3.48551e+06
3.48543e+06
3.48531e+06
3.48516e+06
3.48492e+06
3.43673e+06
3.44367e+06
3.44962e+06
3.45437e+06
3.4584e+06
3.46174e+06
3.4646e+06
3.46702e+06
3.4691e+06
3.47089e+06
3.47244e+06
3.4738e+06
3.47499e+06
3.47605e+06
3.47699e+06
3.47782e+06
3.47858e+06
3.47926e+06
3.47989e+06
3.48046e+06
3.48098e+06
3.48147e+06
3.48191e+06
3.48233e+06
3.48272e+06
3.48308e+06
3.48341e+06
3.48373e+06
3.48401e+06
3.48428e+06
3.48452e+06
3.48473e+06
3.48492e+06
3.48509e+06
3.48523e+06
3.48535e+06
3.48543e+06
3.48549e+06
3.48551e+06
3.48551e+06
3.48547e+06
3.48539e+06
3.48527e+06
3.48513e+06
3.48489e+06
3.43777e+06
3.44467e+06
3.45047e+06
3.45513e+06
3.45905e+06
3.46231e+06
3.46507e+06
3.46742e+06
3.46943e+06
3.47116e+06
3.47267e+06
3.47398e+06
3.47513e+06
3.47615e+06
3.47706e+06
3.47788e+06
3.47861e+06
3.47928e+06
3.47989e+06
3.48045e+06
3.48096e+06
3.48144e+06
3.48188e+06
3.48229e+06
3.48268e+06
3.48304e+06
3.48337e+06
3.48368e+06
3.48397e+06
3.48423e+06
3.48447e+06
3.48469e+06
3.48488e+06
3.48505e+06
3.48519e+06
3.4853e+06
3.48539e+06
3.48545e+06
3.48548e+06
3.48547e+06
3.48543e+06
3.48536e+06
3.48524e+06
3.4851e+06
3.48487e+06
3.43904e+06
3.44585e+06
3.45148e+06
3.45602e+06
3.45981e+06
3.46296e+06
3.46562e+06
3.46788e+06
3.46981e+06
3.47148e+06
3.47292e+06
3.47418e+06
3.47529e+06
3.47628e+06
3.47715e+06
3.47794e+06
3.47865e+06
3.4793e+06
3.4799e+06
3.48044e+06
3.48095e+06
3.48142e+06
3.48185e+06
3.48226e+06
3.48264e+06
3.483e+06
3.48333e+06
3.48364e+06
3.48392e+06
3.48419e+06
3.48443e+06
3.48464e+06
3.48484e+06
3.48501e+06
3.48515e+06
3.48527e+06
3.48535e+06
3.48541e+06
3.48544e+06
3.48544e+06
3.4854e+06
3.48533e+06
3.48521e+06
3.48508e+06
3.48485e+06
3.44058e+06
3.44724e+06
3.45266e+06
3.45704e+06
3.46068e+06
3.4637e+06
3.46624e+06
3.4684e+06
3.47024e+06
3.47183e+06
3.47321e+06
3.47441e+06
3.47547e+06
3.47642e+06
3.47726e+06
3.47802e+06
3.47871e+06
3.47933e+06
3.47991e+06
3.48044e+06
3.48094e+06
3.4814e+06
3.48183e+06
3.48223e+06
3.48261e+06
3.48296e+06
3.48329e+06
3.4836e+06
3.48388e+06
3.48415e+06
3.48439e+06
3.48461e+06
3.4848e+06
3.48497e+06
3.48511e+06
3.48523e+06
3.48532e+06
3.48538e+06
3.48541e+06
3.48541e+06
3.48537e+06
3.4853e+06
3.48519e+06
3.48505e+06
3.48483e+06
3.44241e+06
3.44884e+06
3.45402e+06
3.45821e+06
3.46166e+06
3.46453e+06
3.46694e+06
3.46898e+06
3.47072e+06
3.47222e+06
3.47353e+06
3.47467e+06
3.47568e+06
3.47657e+06
3.47738e+06
3.47811e+06
3.47877e+06
3.47937e+06
3.47993e+06
3.48045e+06
3.48093e+06
3.48138e+06
3.48181e+06
3.4822e+06
3.48258e+06
3.48293e+06
3.48325e+06
3.48356e+06
3.48385e+06
3.48411e+06
3.48435e+06
3.48457e+06
3.48477e+06
3.48494e+06
3.48508e+06
3.4852e+06
3.48529e+06
3.48535e+06
3.48538e+06
3.48538e+06
3.48535e+06
3.48528e+06
3.48517e+06
3.48504e+06
3.48482e+06
3.44458e+06
3.4507e+06
3.45558e+06
3.45952e+06
3.46277e+06
3.46545e+06
3.46771e+06
3.46961e+06
3.47124e+06
3.47265e+06
3.47387e+06
3.47495e+06
3.4759e+06
3.47675e+06
3.47751e+06
3.4782e+06
3.47884e+06
3.47942e+06
3.47996e+06
3.48046e+06
3.48093e+06
3.48137e+06
3.48179e+06
3.48218e+06
3.48255e+06
3.4829e+06
3.48322e+06
3.48353e+06
3.48381e+06
3.48408e+06
3.48432e+06
3.48454e+06
3.48473e+06
3.48491e+06
3.48505e+06
3.48517e+06
3.48526e+06
3.48532e+06
3.48536e+06
3.48536e+06
3.48532e+06
3.48526e+06
3.48515e+06
3.48502e+06
3.48481e+06
3.44711e+06
3.45281e+06
3.45734e+06
3.461e+06
3.46399e+06
3.46647e+06
3.46855e+06
3.47031e+06
3.47181e+06
3.47311e+06
3.47425e+06
3.47524e+06
3.47613e+06
3.47693e+06
3.47765e+06
3.47831e+06
3.47891e+06
3.47947e+06
3.47999e+06
3.48048e+06
3.48094e+06
3.48137e+06
3.48178e+06
3.48216e+06
3.48253e+06
3.48287e+06
3.48319e+06
3.4835e+06
3.48378e+06
3.48405e+06
3.48429e+06
3.48451e+06
3.48471e+06
3.48488e+06
3.48503e+06
3.48515e+06
3.48524e+06
3.4853e+06
3.48533e+06
3.48534e+06
3.4853e+06
3.48524e+06
3.48514e+06
3.48501e+06
3.4848e+06
3.45e+06
3.45519e+06
3.4593e+06
3.46262e+06
3.46533e+06
3.46757e+06
3.46946e+06
3.47105e+06
3.47242e+06
3.4736e+06
3.47464e+06
3.47556e+06
3.47638e+06
3.47712e+06
3.4778e+06
3.47842e+06
3.47899e+06
3.47953e+06
3.48003e+06
3.4805e+06
3.48094e+06
3.48136e+06
3.48176e+06
3.48214e+06
3.4825e+06
3.48285e+06
3.48317e+06
3.48347e+06
3.48376e+06
3.48402e+06
3.48426e+06
3.48448e+06
3.48468e+06
3.48486e+06
3.485e+06
3.48512e+06
3.48522e+06
3.48528e+06
3.48532e+06
3.48532e+06
3.48529e+06
3.48523e+06
3.48512e+06
3.485e+06
3.4848e+06
3.45325e+06
3.45783e+06
3.46146e+06
3.46439e+06
3.46678e+06
3.46876e+06
3.47042e+06
3.47184e+06
3.47306e+06
3.47412e+06
3.47506e+06
3.47589e+06
3.47665e+06
3.47733e+06
3.47796e+06
3.47854e+06
3.47908e+06
3.47959e+06
3.48007e+06
3.48052e+06
3.48095e+06
3.48136e+06
3.48175e+06
3.48213e+06
3.48248e+06
3.48282e+06
3.48314e+06
3.48345e+06
3.48373e+06
3.484e+06
3.48424e+06
3.48446e+06
3.48466e+06
3.48484e+06
3.48498e+06
3.48511e+06
3.4852e+06
3.48527e+06
3.4853e+06
3.4853e+06
3.48527e+06
3.48522e+06
3.48512e+06
3.485e+06
3.4848e+06
3.45683e+06
3.46072e+06
3.46381e+06
3.46629e+06
3.46833e+06
3.47002e+06
3.47145e+06
3.47267e+06
3.47373e+06
3.47466e+06
3.47549e+06
3.47624e+06
3.47692e+06
3.47754e+06
3.47812e+06
3.47866e+06
3.47917e+06
3.47965e+06
3.48011e+06
3.48054e+06
3.48096e+06
3.48136e+06
3.48175e+06
3.48212e+06
3.48247e+06
3.4828e+06
3.48312e+06
3.48343e+06
3.48371e+06
3.48398e+06
3.48422e+06
3.48444e+06
3.48464e+06
3.48482e+06
3.48497e+06
3.48509e+06
3.48519e+06
3.48525e+06
3.48529e+06
3.48529e+06
3.48526e+06
3.48521e+06
3.48511e+06
3.48499e+06
3.4848e+06
3.46071e+06
3.46382e+06
3.4663e+06
3.46831e+06
3.46996e+06
3.47134e+06
3.47251e+06
3.47353e+06
3.47442e+06
3.47522e+06
3.47593e+06
3.47659e+06
3.47719e+06
3.47775e+06
3.47828e+06
3.47878e+06
3.47926e+06
3.47971e+06
3.48015e+06
3.48057e+06
3.48097e+06
3.48136e+06
3.48174e+06
3.4821e+06
3.48245e+06
3.48279e+06
3.48311e+06
3.48341e+06
3.48369e+06
3.48396e+06
3.4842e+06
3.48443e+06
3.48463e+06
3.4848e+06
3.48496e+06
3.48508e+06
3.48518e+06
3.48524e+06
3.48528e+06
3.48528e+06
3.48526e+06
3.4852e+06
3.48511e+06
3.48499e+06
3.48481e+06
3.46482e+06
3.46709e+06
3.46892e+06
3.4704e+06
3.47164e+06
3.4727e+06
3.47361e+06
3.47441e+06
3.47513e+06
3.47578e+06
3.47638e+06
3.47694e+06
3.47747e+06
3.47797e+06
3.47844e+06
3.4789e+06
3.47934e+06
3.47977e+06
3.48019e+06
3.48059e+06
3.48098e+06
3.48137e+06
3.48174e+06
3.48209e+06
3.48244e+06
3.48277e+06
3.48309e+06
3.48339e+06
3.48368e+06
3.48394e+06
3.48419e+06
3.48441e+06
3.48462e+06
3.48479e+06
3.48495e+06
3.48507e+06
3.48517e+06
3.48524e+06
3.48527e+06
3.48528e+06
3.48525e+06
3.4852e+06
3.48511e+06
3.485e+06
3.48482e+06
3.46908e+06
3.47047e+06