/*--------------------------------*- C++ -*----------------------------------*\
| =========                 |                                                 |
| \\      /  F ield         | OpenFOAM: The Open Source CFD Toolbox           |
|  \\    /   O peration     | Version:  v2012                                 |
|   \\  /    A nd           | Website:  www.openfoam.com                      |
|    \\/     M anipulation  |                                                 |
\*---------------------------------------------------------------------------*/
FoamFile
{
    version     2.0;
    format      ascii;
    class       surfaceScalarField;
    location    "0.95";
    object      phi;
}
// * * * * * * * * * * * * * * * * * * * * * * * * * * * * * * * * * * * * * //

dimensions      [0 3 -1 0 0 0 0];
oriented        oriented;


internalField   nonuniform List<scalar> 
8048
(
2.02798e-13
-2.74705e-12
8.25057e-17
1.23278e-12
-1.48452e-11
1.45371e-17
3.57556e-12
-3.47853e-11
2.34804e-16
7.64147e-12
-6.16564e-11
1.454e-15
1.37978e-11
-9.51859e-11
6.47236e-16
2.23892e-11
-1.35315e-10
5.41387e-16
3.376e-11
-1.82077e-10
-1.86067e-15
-2.35521e-10
-1.90967e-15
2.24503e-13
-2.97258e-12
-1.31859e-16
1.36394e-12
-1.59881e-11
-3.99943e-16
3.95768e-12
-3.73707e-11
1.07797e-15
8.42772e-12
-6.61324e-11
-5.69824e-16
1.52197e-11
-1.01964e-10
2.07003e-15
2.46936e-11
-1.4478e-10
1.69603e-15
3.72071e-11
-1.94594e-10
6.36307e-16
5.31199e-11
-2.51435e-10
1.30546e-15
7.27256e-11
-3.15291e-10
8.04138e-15
9.62895e-11
-3.86129e-10
7.91982e-15
1.24071e-10
-4.63788e-10
1.53054e-14
1.56067e-10
-5.47976e-10
4.12953e-15
1.92493e-10
-6.38492e-10
9.62483e-15
2.3328e-10
-7.34657e-10
5.70261e-15
-8.35994e-10
9.35015e-15
2.52289e-13
-3.22574e-12
-1.1041e-16
1.52471e-12
-1.72627e-11
-2.49708e-16
4.40256e-12
-4.02484e-11
8.31805e-17
9.35725e-12
-7.11016e-11
-1.57211e-15
1.68654e-11
-1.09462e-10
1.5017e-15
2.73201e-11
-1.55229e-10
1.16683e-15
4.1115e-11
-2.08381e-10
1.73934e-15
5.86092e-11
-2.68928e-10
1.03096e-15
8.01255e-11
-3.36796e-10
2.20302e-15
1.05936e-10
-4.1193e-10
2.3158e-15
1.36288e-10
-4.94073e-10
8.60834e-15
1.71187e-10
-5.829e-10
-8.20091e-16
2.10805e-10
-6.78079e-10
6.2305e-15
2.55031e-10
-7.78862e-10
4.78315e-15
-8.84643e-10
1.10111e-14
2.83091e-13
-3.50936e-12
-6.67922e-17
1.70104e-12
-1.86822e-11
-1.67383e-16
4.89337e-12
-4.34439e-11
-3.14465e-16
1.03909e-11
-7.66051e-11
-5.60282e-16
1.87079e-11
-1.17762e-10
2.38997e-15
3.02564e-11
-1.66776e-10
5.89535e-16
4.54816e-11
-2.23593e-10
2.11262e-15
6.47491e-11
-2.88189e-10
1.68102e-15
8.84024e-11
-3.6044e-10
2.32439e-15
1.16721e-10
-4.40231e-10
3.35819e-15
1.49945e-10
-5.27227e-10
9.22654e-15
1.88048e-10
-6.21025e-10
-7.4934e-16
2.3119e-10
-7.21184e-10
7.26538e-15
2.79201e-10
-8.26848e-10
5.04483e-15
-9.37291e-10
1.14236e-14
3.19677e-13
-3.82996e-12
-1.13175e-16
1.91078e-12
-2.02742e-11
-7.70133e-17
5.47804e-12
-4.70144e-11
-3.15659e-16
1.16034e-11
-8.27387e-11
-7.59673e-16
2.08359e-11
-1.26991e-10
7.54748e-16
3.36395e-11
-1.79588e-10
-5.80246e-16
5.04897e-11
-2.40436e-10
1.60816e-15
7.17651e-11
-3.09468e-10
4.95223e-16
9.78304e-11
-3.86495e-10
2.37648e-15
1.28958e-10
-4.71348e-10
2.9002e-15
1.65373e-10
-5.63588e-10
7.58599e-15
2.07032e-10
-6.62718e-10
-1.7038e-15
2.54045e-10
-7.6818e-10
5.16218e-15
3.06197e-10
-8.78988e-10
4.24116e-15
-9.94277e-10
1.0631e-14
3.61451e-13
-4.19083e-12
6.962e-17
2.14258e-12
-2.20567e-11
-1.33348e-16
6.12346e-12
-5.09979e-11
-2.00019e-16
1.29445e-11
-8.95685e-11
-7.96356e-16
2.32073e-11
-1.37248e-10
1.12929e-15
3.74208e-11
-1.93803e-10
4.23838e-16
5.60923e-11
-2.59093e-10
2.52781e-15
7.96185e-11
-3.32994e-10
1.20761e-15
1.08384e-10
-4.15246e-10
3.26465e-15
1.42652e-10
-5.05598e-10
4.11237e-15
1.82641e-10
-6.03506e-10
9.90272e-15
2.28253e-10
-7.08362e-10
-1.41118e-15
2.79565e-10
-8.1947e-10
6.12313e-15
3.36283e-10
-9.35691e-10
4.30456e-15
-1.05601e-09
1.08509e-14
4.1109e-13
-4.60203e-12
-1.23898e-17
2.42298e-12
-2.40692e-11
-2.56009e-17
6.9006e-12
-5.54756e-11
1.32395e-16
1.45471e-11
-9.72244e-11
-8.06445e-16
2.60095e-11
-1.48715e-10
-1.40519e-17
4.18492e-11
-2.09653e-10
-5.63629e-16
6.26057e-11
-2.79843e-10
1.69619e-15
8.86956e-11
-3.59093e-10
1.05922e-16
1.20518e-10
-4.47056e-10
2.92163e-15
1.58321e-10
-5.43389e-10
3.386e-15
2.02297e-10
-6.47417e-10
9.31268e-15
2.52303e-10
-7.58407e-10
-1.74665e-15
3.08345e-10
-8.755e-10
5.05979e-15
3.70055e-10
-9.97396e-10
4.10484e-15
-1.1229e-09
9.69131e-15
4.65809e-13
-5.0674e-12
5.92968e-17
2.73094e-12
-2.63334e-11
1.77317e-16
7.74724e-12
-6.04979e-11
-5.39613e-16
1.63105e-11
-1.05789e-10
1.87771e-16
2.91162e-11
-1.61517e-10
1.07231e-15
4.67749e-11
-2.27322e-10
-4.76012e-16
6.9874e-11
-3.02935e-10
1.94529e-15
9.88438e-11
-3.88072e-10
2.73437e-16
1.34101e-10
-4.82297e-10
3.72883e-15
1.75866e-10
-5.85142e-10
3.74905e-15
2.24303e-10
-6.95785e-10
1.00932e-14
2.7922e-10
-8.13358e-10
-9.7674e-16
3.4053e-10
-9.36793e-10
6.41142e-15
4.07759e-10
-1.06462e-09
4.56683e-15
-1.19543e-09
1.08451e-14
5.34758e-13
-5.6026e-12
-4.28385e-17
3.11389e-12
-2.89092e-11
4.84197e-16
8.7987e-12
-6.61816e-11
3.59178e-16
1.84629e-11
-1.1545e-10
9.0177e-16
3.28538e-11
-1.75913e-10
-3.76986e-17
5.26458e-11
-2.47135e-10
-1.53667e-15
7.84568e-11
-3.28751e-10
1.0841e-15
1.10743e-10
-4.20375e-10
-3.55639e-16
1.49916e-10
-5.21458e-10
3.20412e-15
1.9617e-10
-6.31391e-10
3.58332e-15
2.49622e-10
-7.49165e-10
1.00065e-14
3.09988e-10
-8.73765e-10
-9.57377e-16
3.77086e-10
-1.00388e-09
5.83646e-15
4.50327e-10
-1.13785e-09
5.23202e-15
-1.27405e-09
1.13925e-14
6.10457e-13
-6.21142e-12
2.07692e-16
3.52634e-12
-3.18241e-11
2.09642e-16
9.92471e-12
-7.25944e-11
-1.49732e-15
2.07968e-11
-1.26317e-10
1.11771e-15
3.69492e-11
-1.92078e-10
-5.07478e-16
5.91359e-11
-2.69327e-10
7.95697e-16
8.8015e-11
-3.57605e-10
3.91212e-15
1.24025e-10
-4.56404e-10
-2.58201e-16
1.67595e-10
-5.65016e-10
4.55633e-15
2.18886e-10
-6.82675e-10
3.4035e-15
2.7794e-10
-8.08178e-10
9.36094e-15
3.44428e-10
-9.40263e-10
2.04374e-15
4.18011e-10
-1.07744e-09
7.79349e-15
4.97921e-10
-1.21774e-09
7.41698e-15
-1.35934e-09
1.416e-14
7.08375e-13
-6.91939e-12
6.54021e-17
4.05882e-12
-3.51706e-11
6.14277e-16
1.13713e-11
-7.99092e-11
4.68023e-17
2.37339e-11
-1.38664e-10
2.4592e-15
4.20141e-11
-2.1038e-10
-1.59329e-15
6.70429e-11
-2.94369e-10
-1.87193e-17
9.9503e-11
-3.90052e-10
2.98419e-15
1.3985e-10
-4.96779e-10
-9.72699e-16
1.88487e-10
-6.13648e-10
3.87518e-15
2.45519e-10
-7.39711e-10
3.13858e-15
3.10906e-10
-8.73524e-10
9.09472e-15
3.8418e-10
-1.01356e-09
2.05728e-15
4.64855e-10
-1.15809e-09
6.94283e-15
5.51993e-10
-1.30486e-09
7.52745e-15
-1.45179e-09
1.26205e-14
8.11227e-13
-7.72914e-12
2.03957e-16
4.62303e-12
-3.89746e-11
1.11042e-15
1.2904e-11
-8.81985e-11
-5.96941e-16
2.68862e-11
-1.5262e-10
3.89623e-15
4.75174e-11
-2.31026e-10
-5.15391e-16
7.56966e-11
-3.22562e-10
5.07036e-17
1.12165e-10
-4.26507e-10
3.42747e-15
1.57381e-10
-5.42021e-10
-4.7195e-16
2.11729e-10
-6.67986e-10
4.98891e-15
2.75234e-10
-8.03219e-10
3.63182e-15
3.47754e-10
-9.45997e-10
1.04161e-14
4.28673e-10
-1.09449e-09
2.66004e-15
5.17304e-10
-1.2467e-09
8.92152e-15
6.1247e-10
-1.40001e-09
7.15755e-15
-1.55209e-09
1.44654e-14
9.5454e-13
-8.68304e-12
1.21035e-16
5.37871e-12
-4.33908e-11
1.20704e-15
1.49231e-11
-9.77566e-11
-1.18173e-15
3.0947e-11
-1.68627e-10
2.97683e-15
5.44883e-11
-2.54599e-10
-2.23816e-15
8.65114e-11
-3.54619e-10
-1.77127e-15
1.27787e-10
-4.67782e-10
1.83747e-15
1.7874e-10
-5.93021e-10
-2.47934e-15
2.39709e-10
-7.28956e-10
4.18821e-15
3.10615e-10
-8.74142e-10
2.48293e-15
3.91163e-10
-1.02651e-09
9.28625e-15
4.80551e-10
-1.18391e-09
2.48145e-15
5.77852e-10
-1.34399e-09
6.84873e-15
6.81643e-10
-1.5038e-09
8.08115e-15
-1.66069e-09
1.31653e-14
1.1014e-12
-9.77966e-12
6.2262e-16
6.14601e-12
-4.84413e-11
-5.33617e-16
1.70224e-11
-1.08642e-10
-3.52447e-16
3.5201e-11
-1.86824e-10
-8.19496e-16
6.19206e-11
-2.81336e-10
-8.81676e-16
9.81743e-11
-3.90901e-10
-1.2279e-15
1.44785e-10
-5.1438e-10
5.26518e-15
2.02164e-10
-6.50436e-10
-5.13406e-16
2.70605e-10
-7.97382e-10
6.24435e-15
3.49878e-10
-9.53421e-10
4.43219e-15
4.39528e-10
-1.11611e-09
1.25865e-14
5.38485e-10
-1.28289e-09
3.35886e-15
6.45549e-10
-1.45104e-09
9.95531e-15
7.58942e-10
-1.61719e-09
7.63108e-15
-1.77839e-09
1.5864e-14
1.3149e-12
-1.1091e-11
4.9904e-16
7.24509e-12
-5.43767e-11
-3.53581e-16
1.99128e-11
-1.2133e-10
-1.62609e-15
4.09536e-11
-2.07901e-10
-2.70904e-15
7.17217e-11
-3.1214e-10
-2.49161e-15
1.13257e-10
-4.32485e-10
-3.01568e-15
1.66393e-10
-5.67515e-10
3.97896e-15
2.31465e-10
-7.15563e-10
-2.05465e-15
3.08652e-10
-8.74565e-10
5.49772e-15
3.97539e-10
-1.04233e-09
3.50449e-15
4.97418e-10
-1.21596e-09
1.02203e-14
6.06934e-10
-1.39244e-09
2.97792e-15
7.24531e-10
-1.56864e-09
6.33474e-15
8.48075e-10
-1.74075e-09
8.20607e-15
-1.90547e-09
1.24444e-14
1.52078e-12
-1.26059e-11
8.05273e-16
8.33961e-12
-6.11936e-11
6.49089e-16
2.28313e-11
-1.35863e-10
-4.01825e-15
4.68681e-11
-2.31981e-10
-3.61874e-15
8.19695e-11
-3.47256e-10
8.96915e-16
1.29217e-10
-4.79788e-10
-3.08988e-15
1.89518e-10
-6.27812e-10
4.71164e-15
2.63142e-10
-7.89241e-10
-1.14809e-15
3.50156e-10
-9.61574e-10
6.70494e-15
4.49914e-10
-1.14211e-09
4.97501e-15
5.61414e-10
-1.32743e-09
1.23451e-14
6.82911e-10
-1.51397e-09
4.55436e-15
8.12413e-10
-1.69814e-09
1.12646e-14
9.47292e-10
-1.87563e-09
8.28019e-15
-2.04283e-09
1.84843e-14
1.84483e-12
-1.44478e-11
4.76785e-16
9.97013e-12
-6.93126e-11
1.32428e-15
2.70773e-11
-1.52988e-10
-8.38932e-16
5.52302e-11
-2.60156e-10
-4.42732e-16
9.60552e-11
-3.88093e-10
1.68277e-15
1.50692e-10
-5.34473e-10
-1.43621e-15
2.19975e-10
-6.97099e-10
4.64417e-15
3.04047e-10
-8.73376e-10
-1.17879e-15
4.02721e-10
-1.06026e-09
5.37734e-15
5.15043e-10
-1.25447e-09
4.20353e-15
6.39588e-10
-1.45198e-09
8.38042e-15
7.74198e-10
-1.64862e-09
5.22503e-15
9.16336e-10
-1.84028e-09
8.68747e-15
1.06286e-09
-2.02216e-09
1.34662e-14
-2.19028e-09
2.05492e-14
2.13913e-12
-1.65836e-11
5.25079e-16
1.1507e-11
-7.86834e-11
3.39182e-16
3.11784e-11
-1.72704e-10
-3.75771e-15
6.35117e-11
-2.92505e-10
8.29493e-16
1.10287e-10
-4.34895e-10
7.40986e-16
1.72757e-10
-5.96984e-10
2.85663e-16
2.51743e-10
-7.76101e-10
4.36032e-15
3.473e-10
-9.68972e-10
2.67585e-15
4.58995e-10
-1.17195e-09
9.46505e-15
5.85503e-10
-1.38097e-09
9.8436e-15
7.24901e-10
-1.59133e-09
1.7208e-14
8.74441e-10
-1.79812e-09
1.43299e-14
1.03091e-09
-1.99667e-09
2.39833e-14
1.19047e-09
-2.18163e-09
2.0887e-14
-2.3488e-09
3.48481e-14
2.64165e-12
-1.92271e-11
-5.05291e-17
1.39741e-11
-9.00126e-11
1.33303e-15
3.75142e-11
-1.96242e-10
2.22234e-15
7.58514e-11
-3.30815e-10
6.70484e-15
1.30875e-10
-4.89931e-10
3.36866e-15
2.03856e-10
-6.69978e-10
4.60043e-15
2.95429e-10
-8.67684e-10
5.91311e-15
4.05371e-10
-1.07895e-09
4.76287e-15
5.32789e-10
-1.29936e-09
9.13607e-15
6.75813e-10
-1.52401e-09
1.0861e-14
8.31838e-10
-1.74734e-09
1.33093e-14
9.97452e-10
-1.96371e-09
1.65706e-14
1.16867e-09
-2.16783e-09
2.00573e-14
1.34096e-09
-2.35386e-09
2.58922e-14
-2.51739e-09
3.0047e-14
3.06934e-12
-2.22945e-11
4.94396e-16
1.61829e-11
-1.03105e-10
3.77265e-15
4.3329e-11
-2.23408e-10
4.71203e-16
8.74802e-11
-3.74956e-10
5.525e-15
1.50789e-10
-5.53244e-10
5.53096e-15
2.34565e-10
-7.53776e-10
4.85783e-15
3.39435e-10
-9.72566e-10
7.56769e-15
4.64902e-10
-1.20445e-09
6.23465e-15
6.09663e-10
-1.44413e-09
1.14411e-14
7.71206e-10
-1.68555e-09
1.20818e-14
9.4614e-10
-1.92227e-09
1.67977e-14
1.13013e-09
-2.14766e-09
1.64051e-14
1.3182e-09
-2.35583e-09
2.69053e-14
1.50484e-09
-2.54043e-09
2.13423e-14
-2.69701e-09
3.70024e-14
3.8584e-12
-2.61544e-11
1.68032e-16
1.99596e-11
-1.19189e-10
3.78004e-15
5.28802e-11
-2.56365e-10
-1.08442e-15
1.05919e-10
-4.27999e-10
5.1159e-15
1.81357e-10
-6.28689e-10
6.4635e-15
2.8036e-10
-8.52802e-10
6.36317e-15
4.03197e-10
-1.09541e-09
8.85662e-15
5.48768e-10
-1.35005e-09
8.26048e-15
7.14949e-10
-1.61031e-09
1.19188e-14
8.98274e-10
-1.86888e-09
1.51484e-14
1.09424e-09
-2.11824e-09
1.36277e-14
1.29746e-09
-2.35086e-09
2.05715e-14
1.50188e-09
-2.5602e-09
2.00413e-14
1.70112e-09
-2.73963e-09
2.78925e-14
-2.88475e-09
2.98831e-14
4.47497e-12
-3.06095e-11
2.7997e-15
2.30111e-11
-1.37787e-10
-5.20948e-15
6.10478e-11
-2.94449e-10
-1.45585e-15
1.22192e-10
-4.8931e-10
-1.38678e-14
2.09322e-10
-7.15782e-10
1.40855e-14
3.2341e-10
-9.66938e-10
4.86663e-15
4.64604e-10
-1.2366e-09
1.37547e-14
6.31281e-10
-1.51677e-09
9.26901e-15
8.20592e-10
-1.79961e-09
1.73258e-14
1.02801e-09
-2.07629e-09
1.64075e-14
1.24775e-09
-2.33798e-09
1.99146e-14
1.47302e-09
-2.57608e-09
1.86715e-14
1.69631e-09
-2.78345e-09
2.84477e-14
1.91e-09
-2.95326e-09
1.98942e-14
-3.0815e-09
3.74805e-14
5.69233e-12
-3.62899e-11
2.03351e-15
2.88254e-11
-1.60984e-10
-4.77097e-15
7.56897e-11
-3.4138e-10
-2.6128e-15
1.50306e-10
-5.64127e-10
-1.60049e-14
2.55635e-10
-8.2108e-10
1.47979e-14
3.92241e-10
-1.1036e-09
6.73993e-15
5.59511e-10
-1.40384e-09
1.69878e-14
7.54679e-10
-1.71196e-09
1.41252e-14
9.73359e-10
-2.01828e-09
1.62875e-14
1.20942e-09
-2.31235e-09
2.08864e-14
1.45524e-09
-2.58382e-09
1.29891e-14
1.70244e-09
-2.82327e-09
2.29883e-14
1.94204e-09
-3.02304e-09
1.66415e-14
2.16544e-09
-3.17665e-09
2.71646e-14
-3.28079e-09
2.33883e-14
6.49574e-12
-4.27673e-11
3.14906e-15
3.31675e-11
-1.87687e-10
1.86906e-16
8.729e-11
-3.95643e-10
-9.59684e-15
1.73612e-10
-6.50725e-10
-2.26742e-14
2.95492e-10
-9.42889e-10
2.18983e-14
4.53244e-10
-1.26145e-09
2.40883e-15
6.45911e-10
-1.59649e-09
2.0593e-14
8.69791e-10
-1.93585e-09
1.54383e-14
1.11911e-09
-2.26759e-09
2.0056e-14
1.38605e-09
-2.57928e-09
1.85198e-14
1.66089e-09
-2.8587e-09
1.974e-14
1.93321e-09
-3.09555e-09
1.78206e-14
2.19196e-09
-3.28175e-09
3.102e-14
2.42703e-09
-3.41166e-09
1.82755e-14
-3.48324e-09
3.81124e-14
8.36339e-12
-5.11355e-11
7.20482e-16
4.22018e-11
-2.21543e-10
3.24589e-15
1.10168e-10
-4.63601e-10
1.01856e-14
2.1743e-10
-7.58121e-10
-2.49055e-15
3.67109e-10
-1.09243e-09
3.19184e-14
5.58787e-10
-1.45315e-09
1.61983e-14
7.8981e-10
-1.82746e-09
2.32814e-14
1.0545e-09
-2.20053e-09
2.28335e-14
1.34417e-09
-2.5573e-09
1.18605e-14
1.64839e-09
-2.88352e-09
2.14071e-14
1.95426e-09
-3.16464e-09
5.81763e-15
2.24914e-09
-3.39048e-09
2.01144e-14
2.52004e-09
-3.55266e-09
1.04053e-14
2.75612e-09
-3.64778e-09
2.38488e-14
-3.67565e-09
2.068e-14
9.49371e-12
-6.0579e-11
7.83467e-15
4.83619e-11
-2.60439e-10
3.3908e-15
1.2682e-10
-5.42213e-10
-6.46213e-15
2.51135e-10
-8.82482e-10
9.45448e-15
4.24252e-10
-1.26554e-09
1.94336e-14
6.45747e-10
-1.67459e-09
2.41365e-14
9.11711e-10
-2.09341e-09
2.2333e-14
1.215e-09
-2.50375e-09
2.50478e-14
1.54448e-09
-2.8868e-09
1.92383e-14
1.88703e-09
-3.22596e-09
2.67421e-14
2.22633e-09
-3.50395e-09
2.42306e-14
2.54681e-09
-3.71092e-09
1.30879e-14
2.83275e-09
-3.83861e-09
2.54059e-14
3.07185e-09
-9.43071e-15
1.61158e-14
1.25165e-11
-7.30998e-11
2.20593e-15
6.28276e-11
-3.10759e-10
8.01139e-15
1.63303e-10
-6.42463e-10
4.04996e-14
3.20426e-10
-1.03926e-09
6.06322e-14
5.36388e-10
-1.4813e-09
4.05266e-14
8.09451e-10
-1.94734e-09
5.84751e-14
1.13235e-09
-2.41627e-09
2.14735e-14
1.49458e-09
-2.86586e-09
3.22936e-14
1.87948e-09
-3.27182e-09
-3.07252e-15
2.2696e-09
-3.61607e-09
2.17458e-14
2.64297e-09
-3.87742e-09
-5.87976e-15
2.98105e-09
-4.04912e-09
7.31612e-15
-4.12363e-09
-1.18711e-14
1.41471e-11
-8.72157e-11
7.11575e-15
7.18476e-11
-3.6846e-10
1.0071e-14
1.87676e-10
-7.58213e-10
2.75032e-14
3.68983e-10
-1.22034e-09
4.08186e-14
6.17648e-10
-1.73019e-09
-1.30106e-14
9.31973e-10
-2.26127e-09
7.82422e-14
1.30207e-09
-2.78646e-09
3.00228e-15
1.71483e-09
-3.27848e-09
2.36097e-14
2.14958e-09
-3.70676e-09
-9.45736e-15
2.58412e-09
-4.05057e-09
4.48886e-15
2.99132e-09
-4.28473e-09
4.82022e-15
3.34844e-09
-4.40627e-09
-1.24182e-14
-4.40991e-09
1.96579e-14
1.90782e-11
-1.06356e-10
-2.99157e-15
9.51071e-11
-4.44404e-10
2.00558e-14
2.45489e-10
-9.07874e-10
7.6237e-14
4.77318e-10
-1.45134e-09
1.14836e-13
7.91214e-10
-2.04412e-09
-6.04383e-15
1.18343e-09
-2.65264e-09
1.82635e-13
1.63832e-09
-3.2415e-09
-1.82412e-14
2.1373e-09
-3.77742e-09
4.09888e-15
2.64892e-09
-4.21889e-09
-7.53628e-14
3.14331e-09
-4.54522e-09
-2.55233e-14
3.58215e-09
-4.72393e-09
-6.06909e-14
3.939e-09
-4.76349e-09
-3.59502e-14
-4.66352e-09
-4.81112e-14
2.17247e-11
-1.27892e-10
2.6429e-14
1.08565e-10
-5.31048e-10
2.5599e-14
2.79835e-10
-1.07887e-09
-1.0333e-13
5.44339e-10
-1.71457e-09
1.94781e-13
9.01325e-10
-2.40135e-09
-4.89725e-14
1.34834e-09
-3.09798e-09
5.29502e-13
1.86451e-09
-3.75763e-09
9.23352e-14
2.42603e-09
-4.33822e-09
8.54849e-15
2.99587e-09
-4.78858e-09
3.8706e-15
3.53378e-09
-5.08338e-09
-7.4196e-14
3.99593e-09
-5.18616e-09
-1.2003e-14
4.3483e-09
-5.11592e-09
-4.95e-14
-4.88548e-09
1.44581e-15
2.94251e-11
-1.57288e-10
4.92061e-15
1.44041e-10
-6.45277e-10
3.29318e-14
3.65325e-10
-1.29912e-09
-3.18233e-14
7.02116e-10
-2.04824e-09
6.98981e-13
1.15232e-09
-2.8514e-09
-2.59211e-14
1.71415e-09
-3.6543e-09
2.26524e-12
2.35649e-09
-4.39725e-09
9.79562e-13
3.04971e-09
-5.03068e-09
-3.01884e-13
3.73132e-09
-5.47042e-09
-9.93376e-14
4.34986e-09
-5.70256e-09
-8.0298e-14
4.82893e-09
-5.66549e-09
-9.94057e-14
5.13271e-09
-5.41994e-09
-5.45966e-14
-5.0031e-09
-8.03898e-14
3.31116e-11
-1.90217e-10
2.0818e-14
1.60062e-10
-7.71884e-10
4.03017e-14
4.07025e-10
-1.5428e-09
-1.0332e-12
7.79507e-10
-2.4149e-09
2.06675e-12
1.27337e-09
-3.3459e-09
-1.38334e-13
1.90906e-09
-4.26286e-09
1.25313e-11
2.62728e-09
-5.09984e-09
3.0822e-12
3.39857e-09
-5.79826e-09
-1.21214e-12
4.12918e-09
-6.20044e-09
5.03956e-14
4.76719e-09
-6.33988e-09
-4.41761e-13
5.22819e-09
-6.12654e-09
-2.93862e-13
5.46247e-09
-5.65464e-09
-1.31348e-13
-5.02044e-09
-1.11104e-13
4.38979e-11
-2.34107e-10
-2.72532e-15
2.06994e-10
-9.35183e-10
-8.75768e-15
5.08117e-10
-1.84363e-09
-3.67355e-13
9.51674e-10
-2.85862e-09
3.6155e-16
1.55585e-09
-3.95148e-09
-3.83792e-13
2.36673e-09
-4.97261e-09
4.83532e-11
3.2494e-09
-5.96445e-09
-9.61398e-12
4.24204e-09
-6.78974e-09
-1.51105e-13
5.16741e-09
-7.11848e-09
4.31321e-12
5.96365e-09
-7.13486e-09
-2.84304e-12
6.39936e-09
-6.56323e-09
-1.03572e-12
6.45113e-09
-5.70927e-09
-3.05226e-13
-4.7713e-09
-2.07925e-13
5.08287e-11
-2.85134e-10
-9.13486e-15
2.14272e-10
-1.09839e-09
1.00954e-13
5.28151e-10
-2.15733e-09
-2.80008e-13
9.94938e-10
-3.30871e-09
7.90641e-12
1.60724e-09
-4.56252e-09
1.2492e-14
2.40239e-09
-5.70022e-09
3.2533e-11
3.41886e-09
-6.75571e-09
9.78752e-11
4.6775e-09
-7.61333e-09
-1.31903e-10
5.545e-09
-7.91328e-09
3.5955e-11
6.20743e-09
-7.79967e-09
-8.50638e-13
6.47988e-09
-6.83585e-09
-1.77036e-13
6.28811e-09
-5.51925e-09
-1.17769e-13
-4.29548e-09
-1.72857e-14
4.21096e-11
-3.27501e-10
1.75447e-14
2.35739e-10
-1.29268e-09
1.48519e-13
5.4215e-10
-2.46526e-09
7.88413e-14
1.00159e-09
-3.76472e-09
8.19387e-13
1.79797e-09
-5.35892e-09
-1.24193e-14
2.61823e-09
-6.5267e-09
-2.06608e-12
3.69466e-09
-7.82658e-09
3.26028e-12
5.3693e-09
-9.01034e-09
3.93706e-11
6.74562e-09
-9.29331e-09
-6.1415e-13
7.98493e-09
-9.037e-09
5.16041e-13
8.07706e-09
-6.92575e-09
-6.00732e-13
7.23882e-09
-4.68072e-09
4.32823e-13
-3.21072e-09
1.26951e-13
1.04226e-12
-3.26601e-10
-4.25399e-13
9.08015e-11
-1.36835e-09
-4.56088e-12
4.30035e-10
-2.69061e-09
-2.61988e-13
9.29685e-10
-4.23477e-09
5.28103e-12
1.60762e-09
-6.01818e-09
5.30893e-12
2.55684e-09
-7.39366e-09
1.31336e-11
3.77547e-09
-8.76794e-09
7.58011e-11
5.28986e-09
-9.96284e-09
2.57871e-10
6.2329e-09
-1.02046e-08
1.55512e-11
6.64052e-09
-9.41689e-09
1.24691e-12
6.3191e-09
-6.44333e-09
-4.26452e-11
5.10106e-09
-3.4635e-09
-5.62757e-13
-2.04492e-09
-3.78176e-13
7.30749e-11
-2.63242e-10
-9.41348e-14
3.71148e-10
-1.11975e-09
-1.86769e-14
1.93581e-10
-2.33435e-09
2.6795e-12
-3.57094e-11
-3.74706e-09
4.46161e-13
1.19812e-09
-5.11316e-09
-1.01194e-09
1.60731e-09
-6.40197e-09
-2.8147e-12
1.99361e-09
-7.28468e-09
-2.2244e-12
3.98639e-09
-7.63054e-09
3.5843e-10
6.4293e-09
-7.12284e-09
7.60105e-10
9.17863e-09
-5.05932e-09
2.26038e-12
8.40448e-09
1.79281e-10
4.93585e-09
9.44638e-13
-7.12762e-14
1.97715e-11
-2.02737e-10
7.57284e-14
1.02604e-10
-8.35465e-10
4.49509e-16
2.46976e-10
-1.70382e-09
1.60401e-13
4.8288e-10
-2.68269e-09
1.08167e-13
8.39026e-10
-3.60957e-09
4.85119e-13
1.11176e-09
-4.41968e-09
5.40483e-13
1.37015e-09
-4.86595e-09
2.62051e-13
1.65033e-09
-4.77133e-09
2.10525e-13
1.47929e-09
-3.90731e-09
3.03331e-13
-1.77066e-09
-2.37982e-14
1.48086e-11
-1.70205e-10
-1.03935e-14
6.6999e-11
-6.70384e-10
2.19344e-14
1.57886e-10
-1.32209e-09
-2.92584e-14
2.90682e-10
-2.03975e-09
6.76851e-14
4.55294e-10
-2.72824e-09
4.04564e-14
6.04965e-10
-3.27143e-09
1.32677e-13
6.93329e-10
-3.53021e-09
1.33973e-13
6.66215e-10
-3.34432e-09
7.85174e-14
3.91572e-10
-2.55975e-09
1.06265e-13
-1.05789e-09
4.63446e-14
9.45453e-12
-1.56257e-10
-4.35213e-16
4.07739e-11
-5.89712e-10
-9.34439e-15
9.13628e-11
-1.13405e-09
2.57786e-14
1.58844e-10
-1.71982e-09
1.77821e-14
2.34306e-10
-2.27039e-09
3.49088e-14
2.98243e-10
-2.69287e-09
2.66578e-14
3.2327e-10
-2.87376e-09
2.64543e-14
2.79389e-10
-2.69215e-09
4.03478e-14
1.38671e-10
-2.0317e-09
2.28648e-14
-8.11933e-10
1.69242e-14
5.21466e-12
-1.55104e-10
-2.79683e-15
2.16428e-11
-5.70874e-10
-1.18949e-15
4.52968e-11
-1.07948e-09
-5.08085e-16
7.25562e-11
-1.61844e-09
1.3096e-14
9.80547e-11
-2.12028e-09
1.4854e-14
1.13859e-10
-2.50371e-09
1.90469e-14
1.10221e-10
-2.6724e-09
2.20932e-14
7.53557e-11
-2.51828e-09
1.58456e-14
2.13018e-11
-1.92808e-09
1.55343e-14
-7.90606e-10
-1.15534e-14
2.67099e-12
-1.57775e-10
-1.51234e-15
8.78478e-12
-5.76987e-10
-2.89227e-15
1.32671e-11
-1.08396e-09
-1.40198e-15
1.2211e-11
-1.61739e-09
5.72391e-15
3.50481e-12
-2.11156e-09
3.88313e-15
-1.13291e-11
-2.48889e-09
1.73935e-14
-2.65185e-11
-2.65719e-09
-6.29129e-16
-3.26168e-11
-2.51221e-09
2.27875e-14
-2.11121e-11
-1.93956e-09
-9.21571e-15
-8.11734e-10
1.01408e-14
1.66705e-13
-1.57942e-10
-8.98855e-16
6.17214e-13
-5.77437e-10
-1.95339e-15
6.64286e-13
-1.08401e-09
-1.44551e-15
-9.87732e-14
-1.61662e-09
6.71137e-17
-1.91463e-12
-2.10975e-09
4.43793e-15
-4.40698e-12
-2.48639e-09
1.5727e-15
-6.387e-12
-2.65522e-09
1.01783e-14
-6.63545e-12
-2.51195e-09
-2.23019e-15
-4.02568e-12
-1.94219e-09
1.19439e-14
-8.15749e-10
-3.98105e-15
-2.3762e-12
-1.55566e-10
-4.94463e-16
-8.3057e-12
-5.71507e-10
-1.30736e-15
-1.48753e-11
-1.07744e-09
-1.35418e-15
-1.92051e-11
-1.61229e-09
-3.74291e-16
-1.93949e-11
-2.10956e-09
-1.10285e-16
-1.48936e-11
-2.49089e-09
2.98295e-15
-6.73934e-12
-2.66337e-09
-6.54564e-16
9.9389e-13
-2.51969e-09
6.02582e-15
3.85116e-12
-1.94503e-09
-3.98099e-15
-8.11904e-10
3.58976e-15
-5.5911e-12
-1.49975e-10
-2.64286e-16
-1.9273e-11
-5.57825e-10
-7.83672e-16
-3.37053e-11
-1.06301e-09
-1.02392e-15
-4.39746e-11
-1.60202e-09
-9.37992e-16
-4.67579e-11
-2.10678e-09
-1.83095e-16
-4.07508e-11
-2.4969e-09
-5.50472e-16
-2.67194e-11
-2.67741e-09
1.81436e-15
-9.76565e-12
-2.53664e-09
-1.47632e-15
1.73934e-12
-1.95654e-09
3.58315e-15
-8.10162e-10
-1.63104e-15
-1.32316e-11
-1.36743e-10
-1.50909e-16
-4.38461e-11
-5.27211e-10
-4.9707e-16
-7.86477e-11
-1.02821e-09
-7.63358e-16
-1.13846e-10
-1.56683e-09
-7.26832e-16
-1.45383e-10
-2.07524e-09
-7.28942e-16
-1.66103e-10
-2.47618e-09
-5.43826e-17
-1.65845e-10
-2.67766e-09
-6.97005e-16
-1.34494e-10
-2.568e-09
1.15074e-15
-6.97928e-11
-2.02124e-09
-1.47814e-15
-8.79956e-10
1.01891e-15
-3.92996e-12
-1.32813e-10
-9.20857e-17
-2.76089e-11
-5.03532e-10
-3.71347e-16
-9.04734e-11
-9.65342e-10
-5.73383e-16
-2.00222e-10
-1.45708e-09
-7.24001e-16
-3.53799e-10
-1.92166e-09
-6.71302e-16
-5.28787e-10
-2.30119e-09
-6.54887e-16
-6.83609e-10
-2.52284e-09
-1.47221e-16
-7.34207e-10
-2.5174e-09
-6.69167e-16
-5.97887e-10
-2.15757e-09
3.72627e-16
-1.47784e-09
-4.81347e-16
1.35815e-10
-2.68635e-10
-8.76515e-16
2.29979e-10
-5.97784e-10
-1.10144e-14
7.27983e-11
-8.08165e-10
-1.4394e-15
-2.67377e-10
-1.11715e-09
-3.10325e-14
-7.44951e-10
-1.44441e-09
-4.03389e-14
-1.33775e-09
-1.70857e-09
-2.19804e-14
-2.00317e-09
-1.85763e-09
-2.46804e-14
-2.68596e-09
-1.83489e-09
-3.30644e-14
-3.00763e-09
-1.83614e-09
-2.92032e-14
-4.48579e-09
-3.63607e-14
2.47863e-12
-2.71107e-10
6.7777e-16
1.59831e-11
-6.11435e-10
-1.80997e-14
2.55449e-11
-8.17837e-10
-1.41948e-14
7.22066e-12
-1.09923e-09
-4.88174e-14
-3.85082e-11
-1.39932e-09
-7.68827e-14
-9.21159e-11
-1.65541e-09
-5.78789e-14
-1.1702e-10
-1.83332e-09
-7.58042e-14
-4.71771e-11
-1.90579e-09
-1.28786e-13
2.08631e-10
-2.09318e-09
-1.53757e-13
-4.27886e-09
-2.12519e-13
-1.2219e-10
-1.4892e-10
-3.54786e-16
-2.15727e-10
-5.1795e-10
-6.55859e-15
-9.65057e-11
-9.37208e-10
-1.88469e-14
1.76713e-10
-1.37289e-09
-5.52396e-14
5.71669e-10
-1.79489e-09
-7.56721e-14
1.09264e-09
-2.17725e-09
-9.84101e-14
1.68963e-09
-2.43081e-09
-8.11275e-14
2.37172e-09
-2.58939e-09
-2.24463e-13
2.60061e-09
-2.3239e-09
-2.75634e-13
-1.68116e-09
-4.31643e-13
3.62284e-12
-1.5256e-10
-2.11596e-15
1.18164e-11
-5.26261e-10
-1.4423e-14
3.5426e-11
-9.6089e-10
-9.31842e-15
8.50567e-11
-1.42262e-09
-1.28877e-14
1.57582e-10
-1.86815e-09
-8.8203e-14
2.45214e-10
-2.26701e-09
-2.63768e-13
3.31181e-10
-2.51839e-09
-2.1175e-13
3.51652e-10
-2.61459e-09
-5.76663e-13
2.61024e-10
-2.23745e-09
-5.56818e-13
-1.42314e-09
-5.20414e-13
-4.79526e-12
-1.47768e-10
-5.89182e-16
7.32191e-12
-5.38531e-10
-1.89824e-14
5.72295e-11
-1.01064e-09
1.89212e-14
1.47073e-10
-1.51363e-09
-1.43616e-13
2.69734e-10
-1.993e-09
-2.85006e-13
4.0051e-10
-2.39908e-09
-2.13452e-13
5.14111e-10
-2.62893e-09
4.08933e-13
5.19572e-10
-2.61583e-09
5.72526e-13
4.08125e-10
-2.12103e-09
6.52845e-13
-1.01316e-09
3.79241e-13
1.47615e-12
-1.49261e-10
-2.04899e-15
7.64597e-12
-5.44948e-10
-3.0257e-14
2.09154e-11
-1.02371e-09
2.31705e-14
3.95739e-11
-1.533e-09
-8.97868e-14
6.08513e-11
-2.01649e-09
-2.93643e-13
7.67437e-11
-2.41747e-09
-3.57984e-13
8.82681e-11
-2.63844e-09
2.89619e-13
6.88336e-11
-2.59526e-09
2.21921e-13
3.79465e-11
-2.08736e-09
3.92298e-13
-9.73382e-10
2.99154e-13
2.81631e-12
-1.52089e-10
-1.52134e-15
1.42559e-11
-5.56375e-10
1.19531e-15
3.52914e-11
-1.04503e-09
-3.49368e-14
6.3782e-11
-1.56297e-09
-1.78341e-13
9.58491e-11
-2.05082e-09
-2.99463e-13
1.20055e-10
-2.44454e-09
-4.20891e-13
1.37352e-10
-2.65356e-09
2.88218e-13
1.15441e-10
-2.5727e-09
1.34476e-13
7.34044e-11
-2.04335e-09
2.4416e-13
-8.99421e-10
7.49834e-14
8.08106e-13
-1.52946e-10
-5.97072e-15
3.65296e-12
-5.59253e-10
-4.20533e-15
8.27098e-12
-1.04973e-09
-9.57791e-15
1.39945e-11
-1.56882e-09
-2.99321e-14
1.92893e-11
-2.05782e-09
-2.41654e-13
2.0202e-11
-2.44857e-09
-4.26896e-13
2.12957e-11
-2.65327e-09
1.95058e-13
1.13034e-11
-2.56263e-09
5.35132e-14
3.19201e-12
-2.03391e-09
1.66246e-13
-8.96034e-10
2.39381e-14
1.67738e-12
-1.5465e-10
-3.38829e-15
6.93593e-12
-5.64428e-10
9.22087e-15
1.42305e-11
-1.05812e-09
-1.46636e-13
2.31124e-11
-1.5788e-09
-1.39302e-13
3.3652e-11
-2.06668e-09
2.26229e-13
3.91032e-11
-2.45347e-09
7.35926e-14
4.08677e-11
-2.65305e-09
2.45161e-13
3.24861e-11
-2.55397e-09
3.09348e-14
1.82862e-11
-2.01933e-09
4.85029e-14
-8.7802e-10
-3.3335e-14
3.30334e-13
-1.55036e-10
-6.78278e-15
1.40067e-12
-5.65523e-10
-4.09409e-15
2.02658e-12
-1.05981e-09
-1.42954e-13
3.50475e-12
-1.58032e-09
-1.804e-14
6.80053e-12
-2.06808e-09
2.53699e-13
7.73736e-12
-2.45398e-09
6.59023e-14
6.43196e-12
-2.65046e-09
1.64062e-13
2.75164e-12
-2.55022e-09
1.96445e-15
-7.38369e-13
-2.01556e-09
3.46681e-14
-8.78753e-10
-1.06402e-15
6.67178e-13
-1.55766e-10
-7.69362e-15
2.8297e-12
-5.67692e-10
-2.10996e-15
4.93673e-12
-1.06334e-09
-1.88523e-13
8.29378e-12
-1.58418e-09
-7.3156e-14
1.35924e-11
-2.07153e-09
2.42918e-13
1.57487e-11
-2.45563e-09
6.5686e-14
1.62845e-11
-2.64978e-09
1.54364e-13
1.26446e-11
-2.54658e-09
1.45695e-16
6.99245e-12
-2.0099e-09
4.39052e-15
-8.71819e-10
-6.2261e-15
8.90916e-14
-1.55905e-10
-6.85616e-15
6.5616e-13
-5.6827e-10
-2.82953e-15
3.38531e-13
-1.06448e-09
-1.90332e-13
7.49327e-13
-1.58515e-09
-8.1398e-14
3.22971e-12
-2.07221e-09
2.38844e-13
3.62035e-12
-2.4552e-09
1.00526e-13
3.50472e-12
-2.64815e-09
1.91583e-13
1.41406e-12
-2.54404e-09
5.18565e-14
-4.63027e-13
-2.00747e-09
6.86132e-14
-8.71806e-10
5.87187e-14
4.30471e-13
-1.56276e-10
1.06201e-14
1.59184e-12
-5.69615e-10
-2.01729e-14
2.43777e-12
-1.06656e-09
-1.72593e-13
3.69435e-12
-1.58749e-09
-1.42828e-13
7.46365e-12
-2.07446e-09
1.98664e-13
8.86831e-12
-2.45593e-09
9.00297e-14
9.34789e-12
-2.64756e-09
1.35929e-13
7.08723e-12
-2.54173e-09
3.35002e-15
3.89499e-12
-2.00419e-09
1.25332e-14
-8.67944e-10
-2.41787e-15
1.96806e-13
-1.56443e-10
6.02821e-15
1.0496e-12
-5.70361e-10
1.15964e-14
1.69125e-12
-1.06795e-09
-1.19723e-13
2.17928e-12
-1.58928e-09
-1.60817e-13
4.91444e-12
-2.07535e-09
2.44952e-13
4.90345e-12
-2.45534e-09
6.88997e-14
4.64742e-12
-2.64603e-09
1.63275e-13
2.46313e-12
-2.53919e-09
3.98554e-14
4.80372e-13
-2.0017e-09
6.19374e-14
-8.67015e-10
5.462e-14
3.77374e-13
-1.56811e-10
1.40647e-15
1.76491e-12
-5.71671e-10
1.22399e-14
3.61664e-12
-1.06978e-09
7.74754e-15
6.01995e-12
-1.59095e-09
8.82149e-14
7.72894e-12
-2.07671e-09
4.06657e-14
8.72769e-12
-2.45584e-09
6.25258e-14
8.07062e-12
-2.64481e-09
6.95898e-14
5.97712e-12
-2.53673e-09
4.57491e-14
3.00418e-12
-1.99835e-09
4.70703e-14
-8.63609e-10
5.04828e-14
3.28246e-13
-1.57159e-10
-2.42596e-15
1.79849e-12
-5.72911e-10
2.82466e-14
3.96347e-12
-1.07168e-09
3.38228e-14
6.38795e-12
-1.59289e-09
6.18724e-14
7.63606e-12
-2.07739e-09
7.03148e-14
7.527e-12
-2.45548e-09
2.9738e-14
6.16868e-12
-2.64289e-09
6.92451e-14
3.74156e-12
-2.53385e-09
5.46164e-14
1.16117e-12
-1.99527e-09
6.12273e-14
-8.61948e-10
6.22039e-14
5.78052e-13
-1.57752e-10
-1.78169e-15
2.6213e-12
-5.74832e-10
1.50379e-14
5.4024e-12
-1.07433e-09
1.53867e-14
8.24893e-12
-1.59531e-09
5.17416e-14
1.01024e-11
-2.07869e-09
6.78457e-14
1.03223e-11
-2.4553e-09
4.82258e-14
8.95815e-12
-2.64102e-09
6.13988e-14
6.19908e-12
-2.5306e-09
6.08316e-14
2.89047e-12
-1.9914e-09
6.99529e-14
-8.58404e-10
8.19976e-14
7.4023e-13
-1.58492e-10
-1.26946e-16
3.01596e-12
-5.7703e-10
9.63725e-15
5.7774e-12
-1.07714e-09
-5.21726e-15
8.26124e-12
-1.59763e-09
2.06416e-14
9.4666e-12
-2.07962e-09
3.31413e-14
9.21751e-12
-2.45474e-09
3.87906e-14
7.45324e-12
-2.63885e-09
5.32856e-14
4.52199e-12
-2.52723e-09
5.76875e-14
1.48839e-12
-1.98776e-09
8.21172e-14
-8.56163e-10
1.02039e-13
1.10426e-12
-1.59599e-10