/*--------------------------------*- C++ -*----------------------------------*\
| =========                 |                                                 |
| \\      /  F ield         | OpenFOAM: The Open Source CFD Toolbox           |
|  \\    /   O peration     | Version:  v2012                                 |
|   \\  /    A nd           | Website:  www.openfoam.com                      |
|    \\/     M anipulation  |                                                 |
\*---------------------------------------------------------------------------*/
FoamFile
{
    version     2.0;
    format      ascii;
    class       volVectorField;
    location    "0.95";
    object      U;
}
// * * * * * * * * * * * * * * * * * * * * * * * * * * * * * * * * * * * * * //

dimensions      [0 1 -1 0 0 0 0];


internalField   nonuniform List<vector> 
3332
(
(0.000156783 -0.0167379 -1.36833e-06)
(0.000671606 -0.0289212 -5.86068e-06)
(0.00148504 -0.0387811 -1.29588e-05)
(0.0025234 -0.0467814 -2.20192e-05)
(0.00374766 -0.0534905 -3.27017e-05)
(0.00512381 -0.0592339 -4.47094e-05)
(0.00664282 -0.064195 -5.79639e-05)
(0.00829425 -0.0684841 -7.23733e-05)
(0.000174873 -0.0180956 -1.52605e-06)
(0.000743111 -0.0311184 -6.48476e-06)
(0.00164634 -0.0416262 -1.4366e-05)
(0.00278484 -0.0501264 -2.43002e-05)
(0.00413133 -0.0572451 -3.60491e-05)
(0.00565343 -0.0633158 -4.93304e-05)
(0.00732509 -0.0685481 -6.39167e-05)
(0.00913481 -0.073057 -7.97075e-05)
(0.0110575 -0.0769364 -9.64842e-05)
(0.0130743 -0.0802197 -0.000114082)
(0.0151763 -0.0829588 -0.000132425)
(0.0173271 -0.0851557 -0.000151192)
(0.0194927 -0.0868495 -0.000170089)
(0.0216795 -0.0880371 -0.000189171)
(0.0238352 -0.0887354 -0.000207984)
(0.000197758 -0.0195973 -1.72587e-06)
(0.00083278 -0.0335443 -7.26707e-06)
(0.00183551 -0.0447638 -1.60167e-05)
(0.00309695 -0.0538208 -2.70233e-05)
(0.00458216 -0.0613749 -3.99826e-05)
(0.00625864 -0.0678018 -5.46105e-05)
(0.00809982 -0.0733151 -7.06758e-05)
(0.0100862 -0.0780487 -8.80088e-05)
(0.0121923 -0.0820891 -0.000106385)
(0.0143948 -0.0854871 -0.000125604)
(0.0166853 -0.0882853 -0.000145591)
(0.0190191 -0.0905003 -0.000165956)
(0.021366 -0.0921585 -0.000186434)
(0.0237217 -0.0932647 -0.000206991)
(0.026036 -0.0938388 -0.000227187)
(0.000222838 -0.0213057 -1.94462e-06)
(0.000932183 -0.0362728 -8.13455e-06)
(0.00204313 -0.048275 -1.78281e-05)
(0.00343997 -0.0579353 -3.00162e-05)
(0.00508751 -0.0659686 -4.43917e-05)
(0.0069373 -0.0727788 -6.05317e-05)
(0.00896556 -0.0785966 -7.82292e-05)
(0.0111496 -0.0835654 -9.72859e-05)
(0.0134605 -0.0877761 -0.00011745)
(0.0158729 -0.0912845 -0.0001385)
(0.0183706 -0.0941331 -0.000160295)
(0.0209107 -0.0963455 -0.00018246)
(0.0234514 -0.0979443 -0.00020463)
(0.0259949 -0.0989451 -0.000226826)
(0.0284771 -0.0993606 -0.000248487)
(0.000253648 -0.0231938 -2.2136e-06)
(0.00104941 -0.0392857 -9.15725e-06)
(0.00229102 -0.0521516 -1.9991e-05)
(0.00384757 -0.0624724 -3.35724e-05)
(0.00567353 -0.0710325 -4.95046e-05)
(0.00771968 -0.0782612 -6.73577e-05)
(0.00996129 -0.0844086 -8.69166e-05)
(0.0123671 -0.0896271 -0.000107909)
(0.0149086 -0.0940158 -0.000130085)
(0.0175517 -0.0976334 -0.000153148)
(0.0202802 -0.100528 -0.000176957)
(0.023042 -0.102721 -0.000201056)
(0.0257968 -0.104243 -0.000225094)
(0.0285366 -0.105106 -0.000249003)
(0.0312 -0.105335 -0.000272245)
(0.000288878 -0.0253709 -2.52093e-06)
(0.00118176 -0.0427117 -1.03122e-05)
(0.00256395 -0.0565277 -2.23721e-05)
(0.00429717 -0.0675745 -3.74951e-05)
(0.00632319 -0.0767046 -5.51726e-05)
(0.00859384 -0.0843827 -7.49844e-05)
(0.0110746 -0.0908771 -9.66301e-05)
(0.0137309 -0.0963559 -0.000119807)
(0.0165289 -0.10092 -0.000144222)
(0.0194322 -0.10464 -0.000169554)
(0.022416 -0.107559 -0.000195591)
(0.0254279 -0.109712 -0.000221873)
(0.0284154 -0.111121 -0.000247942)
(0.0313745 -0.111814 -0.000273764)
(0.0342289 -0.111807 -0.000298675)
(0.000331588 -0.0277698 -2.89378e-06)
(0.00133935 -0.0464944 -1.1687e-05)
(0.0028945 -0.0613603 -2.52562e-05)
(0.00483745 -0.0732088 -4.22088e-05)
(0.00709617 -0.0829661 -6.19164e-05)
(0.00962153 -0.0911338 -8.39505e-05)
(0.0123739 -0.0980077 -0.000107965)
(0.0153107 -0.103762 -0.00013359)
(0.0183979 -0.108513 -0.000160528)
(0.0215875 -0.112328 -0.000188359)
(0.0248551 -0.115263 -0.000216872)
(0.0281358 -0.117348 -0.0002455)
(0.0313781 -0.11862 -0.000273792)
(0.0345648 -0.119097 -0.000301601)
(0.037624 -0.118816 -0.000328297)
(0.000377433 -0.0305848 -3.2936e-06)
(0.00151314 -0.0508513 -1.32035e-05)
(0.00325645 -0.0668792 -2.84139e-05)
(0.00542767 -0.079606 -4.7358e-05)
(0.00794995 -0.0900426 -6.9365e-05)
(0.0107632 -0.0987374 -9.39107e-05)
(0.0138207 -0.106006 -0.000120588)
(0.0170767 -0.112044 -0.000148998)
(0.0204877 -0.116969 -0.00017876)
(0.024003 -0.120862 -0.000209433)
(0.0275844 -0.123777 -0.000240685)
(0.0311695 -0.125758 -0.000271969)
(0.0346909 -0.126834 -0.000302697)
(0.0381333 -0.127045 -0.000332737)
(0.0414072 -0.126418 -0.000361309)
(0.000438027 -0.0336708 -3.82256e-06)
(0.00172974 -0.0556503 -1.50931e-05)
(0.00370572 -0.0729681 -3.23338e-05)
(0.00615659 -0.0866712 -5.37173e-05)
(0.00898506 -0.0978593 -7.83956e-05)
(0.0121297 -0.107134 -0.000105832)
(0.0155379 -0.114839 -0.000135569)
(0.019153 -0.121172 -0.000167113)
(0.022931 -0.126282 -0.000200077)
(0.0268049 -0.13024 -0.000233879)
(0.0307365 -0.133116 -0.000268187)
(0.0346466 -0.134957 -0.000302307)
(0.0384684 -0.135798 -0.000335656)
(0.0421703 -0.135681 -0.000367962)
(0.0456693 -0.134652 -0.000398497)
(0.000503297 -0.0373716 -4.39188e-06)
(0.00196913 -0.0612719 -1.7182e-05)
(0.00418473 -0.0800212 -3.65125e-05)
(0.00693891 -0.0947932 -6.05423e-05)
(0.010116 -0.106795 -8.82619e-05)
(0.013631 -0.116685 -0.00011893)
(0.0174452 -0.124833 -0.000152209)
(0.021472 -0.131463 -0.000187344)
(0.0256558 -0.136726 -0.00022385)
(0.0299445 -0.140715 -0.000261271)
(0.0342579 -0.143491 -0.00029891)
(0.0385383 -0.145128 -0.00033626)
(0.042697 -0.145649 -0.000372552)
(0.0466912 -0.145125 -0.000407407)
(0.0504267 -0.143592 -0.000440009)
(0.000591277 -0.0413905 -5.15988e-06)
(0.00227338 -0.0674362 -1.98363e-05)
(0.00480607 -0.0877876 -4.19334e-05)
(0.00793734 -0.103748 -6.92527e-05)
(0.0115237 -0.11666 -0.000100543)
(0.0154777 -0.127226 -0.000135041)
(0.0197511 -0.135866 -0.000172326)
(0.0242431 -0.142816 -0.00021152)
(0.0288947 -0.148243 -0.000252107)
(0.0336333 -0.15224 -0.000293455)
(0.0383779 -0.154896 -0.000334855)
(0.0430483 -0.156263 -0.000375612)
(0.0475585 -0.15641 -0.000414968)
(0.0518421 -0.155386 -0.000452353)
(0.0558166 -0.153272 -0.000487037)
(0.000680218 -0.0463486 -5.9355e-06)
(0.00259515 -0.0748086 -2.26437e-05)
(0.00546523 -0.0969355 -4.76835e-05)
(0.00899972 -0.114204 -7.85203e-05)
(0.013043 -0.128091 -0.000113797)
(0.0174927 -0.139372 -0.000152619)
(0.0222825 -0.148499 -0.000194411)
(0.027308 -0.155741 -0.000238258)
(0.0324887 -0.161269 -0.000283463)
(0.0377471 -0.165207 -0.000329345)
(0.0429759 -0.167634 -0.000374973)
(0.048098 -0.168638 -0.000419668)
(0.0529974 -0.168276 -0.000462426)
(0.0576138 -0.166639 -0.000502711)
(0.0618336 -0.163793 -0.000539542)
(0.000811825 -0.0516586 -7.08425e-06)
(0.00303465 -0.0828198 -2.64777e-05)
(0.00633932 -0.106948 -5.5309e-05)
(0.0103845 -0.125682 -9.06008e-05)
(0.0149853 -0.140673 -0.000130741)
(0.0200268 -0.152749 -0.000174727)
(0.0254281 -0.162427 -0.000221852)
(0.0310645 -0.169986 -0.000271031)
(0.0368441 -0.175626 -0.000321461)
(0.0426684 -0.179469 -0.000372283)
(0.0484259 -0.18163 -0.000422522)
(0.0540106 -0.182183 -0.000471259)
(0.0593125 -0.181231 -0.000517524)
(0.0642381 -0.178851 -0.000560514)
(0.0686918 -0.175163 -0.000599382)
(0.000944717 -0.0584446 -8.24333e-06)
(0.00348781 -0.0926711 -3.04308e-05)
(0.00723255 -0.119024 -6.31002e-05)
(0.0118238 -0.139364 -0.000103156)
(0.0170371 -0.155523 -0.000148639)
(0.0227509 -0.168416 -0.000198489)
(0.028831 -0.178608 -0.000251539)
(0.0351701 -0.186417 -0.000306848)
(0.0416372 -0.192051 -0.000363277)
(0.0481216 -0.195675 -0.000419857)
(0.0544829 -0.197394 -0.00047537)
(0.0606142 -0.197332 -0.000528873)
(0.0663648 -0.195581 -0.000579061)
(0.0716533 -0.192277 -0.000625212)
(0.0763423 -0.187529 -0.000666142)
(0.00114567 -0.0655636 -9.99728e-06)
(0.00413423 -0.103244 -3.60697e-05)
(0.00849439 -0.132116 -7.41079e-05)
(0.0137956 -0.154279 -0.000120358)
(0.0197778 -0.171765 -0.000172547)
(0.0262998 -0.185586 -0.00022945)
(0.0332006 -0.19637 -0.000289659)
(0.040347 -0.204453 -0.000352013)
(0.0475871 -0.210094 -0.000415185)
(0.0547836 -0.213445 -0.000477984)
(0.0617896 -0.214666 -0.000539117)
(0.0684583 -0.213866 -0.000597317)
(0.0746512 -0.211203 -0.000651359)
(0.0802423 -0.206798 -0.000700161)
(0.0851228 -0.20084 -0.000742755)
(0.00133037 -0.0750724 -1.16079e-05)
(0.00476863 -0.116679 -4.16038e-05)
(0.00976164 -0.14836 -8.51612e-05)
(0.0158018 -0.172503 -0.000137855)
(0.0226164 -0.191377 -0.000197308)
(0.0300359 -0.206111 -0.00026204)
(0.0378487 -0.21739 -0.000330207)
(0.0459188 -0.225612 -0.000400618)
(0.0540466 -0.231042 -0.000471541)
(0.0620856 -0.233895 -0.000541687)
(0.0698393 -0.234324 -0.000609353)
(0.0771599 -0.232512 -0.000673235)
(0.0838549 -0.228607 -0.00073167)
(0.089817 -0.222817 -0.000783703)
(0.0948818 -0.215322 -0.000827917)
(0.00164378 -0.0847725 -1.43432e-05)
(0.00573648 -0.130807 -5.00467e-05)
(0.0116235 -0.165693 -0.000101403)
(0.0186845 -0.192107 -0.000163002)
(0.0265785 -0.212587 -0.000231871)
(0.0351161 -0.228377 -0.000306359)
(0.0440398 -0.240264 -0.000384215)
(0.0531818 -0.248655 -0.000463985)
(0.0623123 -0.253892 -0.000543652)
(0.071241 -0.256172 -0.00062157)
(0.0797674 -0.255733 -0.000695972)
(0.0876883 -0.252736 -0.000765104)
(0.0948332 -0.247433 -0.000827457)
(0.101038 -0.240018 -0.000881619)
(0.106178 -0.230781 -0.000926488)
(0.00191582 -0.0984303 -1.67152e-05)
(0.00663832 -0.149531 -5.79132e-05)
(0.0133963 -0.187976 -0.000116865)
(0.0214987 -0.216828 -0.000187548)
(0.0305453 -0.238942 -0.000266472)
(0.0402927 -0.255708 -0.000351511)
(0.0504465 -0.267991 -0.000440105)
(0.0608138 -0.276277 -0.000530561)
(0.071103 -0.280931 -0.000620347)
(0.0811061 -0.282233 -0.000707633)
(0.0905513 -0.280426 -0.000790067)
(0.099235 -0.275781 -0.000865847)
(0.106905 -0.268552 -0.000932798)
(0.113441 -0.25906 -0.000989846)
(0.118637 -0.247595 -0.00103521)
(0.00241352 -0.111853 -2.10586e-05)
(0.00811934 -0.168687 -7.0832e-05)
(0.0161931 -0.211229 -0.000141262)
(0.0257769 -0.242898 -0.000224867)
(0.0363648 -0.26696 -0.000317235)
(0.0476867 -0.284891 -0.000416017)
(0.0593721 -0.297736 -0.000517969)
(0.0711821 -0.305963 -0.000621022)
(0.0827757 -0.310064 -0.000722183)
(0.0938846 -0.310294 -0.000819133)
(0.104228 -0.307022 -0.000909397)
(0.113533 -0.300508 -0.000990615)
(0.121581 -0.291146 -0.00106085)
(0.128184 -0.279261 -0.00111851)
(0.133205 -0.265307 -0.00116233)
(0.00281084 -0.13195 -2.45227e-05)
(0.00941169 -0.195368 -8.21029e-05)
(0.0187352 -0.242436 -0.000163431)
(0.0297521 -0.27711 -0.000259534)
(0.0419126 -0.303061 -0.000365625)
(0.0549162 -0.321949 -0.000479072)
(0.0682688 -0.33493 -0.000595581)
(0.0817292 -0.342575 -0.000713027)
(0.094832 -0.345422 -0.000827373)
(0.107309 -0.343852 -0.000936254)
(0.118755 -0.338264 -0.00103616)
(0.128914 -0.329085 -0.00112482)
(0.137454 -0.316735 -0.00119937)
(0.144246 -0.301734 -0.00125866)
(0.149062 -0.284552 -0.00130072)
(0.00360444 -0.150747 -3.14475e-05)
(0.0117113 -0.22162 -0.000102161)
(0.0229817 -0.273981 -0.000200469)
(0.0361671 -0.312198 -0.000315492)
(0.0505855 -0.340492 -0.000441276)
(0.0658545 -0.360599 -0.0005745)
(0.0813592 -0.373963 -0.000709777)
(0.0967897 -0.381103 -0.000844433)
(0.111595 -0.382766 -0.00097362)
(0.125424 -0.37929 -0.00109433)
(0.137854 -0.371282 -0.0012028)
(0.148546 -0.359162 -0.00129614)
(0.157224 -0.343577 -0.00137188)
(0.163688 -0.325066 -0.00142834)
(0.167833 -0.304342 -0.00146454)
(0.00419005 -0.180899 -3.65534e-05)
(0.0135548 -0.260446 -0.000118233)
(0.0264942 -0.318654 -0.000231096)
(0.0417215 -0.360586 -0.000363926)
(0.0583767 -0.391007 -0.000509231)
(0.0760218 -0.411881 -0.000663176)
(0.0938004 -0.424803 -0.000818315)
(0.111469 -0.430457 -0.00097249)
(0.128239 -0.42966 -0.00111885)
(0.143791 -0.422973 -0.00125458)
(0.157495 -0.411066 -0.0013742)
(0.169061 -0.394642 -0.00147516)
(0.178054 -0.374411 -0.00155368)
(0.184375 -0.351217 -0.00160887)
(0.187816 -0.325818 -0.00163895)
(0.00541967 -0.207235 -4.72814e-05)
(0.0170969 -0.2968 -0.000149126)
(0.0330244 -0.361962 -0.000288048)
(0.0515377 -0.408419 -0.000449551)
(0.0715629 -0.441571 -0.000624252)
(0.092536 -0.463625 -0.000807256)
(0.113393 -0.476459 -0.000989244)
(0.133771 -0.480777 -0.0011671)
(0.152747 -0.477665 -0.00133269)
(0.169878 -0.467685 -0.00148223)
(0.184519 -0.451806 -0.00161002)
(0.19628 -0.430777 -0.00171271)
(0.204835 -0.405648 -0.0017874)
(0.21003 -0.377341 -0.00183279)
(0.211871 -0.34695 -0.00184889)
(0.00612719 -0.252929 -5.34454e-05)
(0.0195892 -0.35431 -0.000170848)
(0.0380795 -0.427257 -0.00033212)
(0.0594912 -0.478389 -0.000518899)
(0.0826974 -0.513828 -0.000721374)
(0.106966 -0.536117 -0.000933123)
(0.130985 -0.547334 -0.00114274)
(0.15435 -0.548483 -0.00134664)
(0.175855 -0.540752 -0.00153435)
(0.195064 -0.525124 -0.00170201)
(0.211062 -0.502679 -0.00184168)
(0.223521 -0.474678 -0.00195044)
(0.231925 -0.442295 -0.00202385)
(0.236284 -0.406957 -0.00206193)
(0.236526 -0.369834 -0.00206411)
(0.00800293 -0.289368 -6.98075e-05)
(0.0250519 -0.404724 -0.000218486)
(0.0482707 -0.487204 -0.000421002)
(0.0748355 -0.54423 -0.000652757)
(0.103189 -0.582822 -0.000900134)
(0.132413 -0.605936 -0.00115517)
(0.160882 -0.616071 -0.0014036)
(0.187967 -0.61434 -0.00164002)
(0.212275 -0.602312 -0.00185218)
(0.233162 -0.581072 -0.00203453)
(0.249729 -0.552137 -0.00217915)
(0.261517 -0.51696 -0.0022821)
(0.268249 -0.477198 -0.0023409)
(0.269929 -0.434499 -0.00235563)
(0.266883 -0.390481 -0.0023291)
(0.00895675 -0.359047 -7.8114e-05)
(0.0286194 -0.491363 -0.000249574)
(0.055454 -0.584645 -0.000483631)
(0.0863135 -0.647642 -0.000752855)
(0.119272 -0.68847 -0.00104047)
(0.153052 -0.710626 -0.00133524)
(0.185858 -0.716861 -0.00162159)
(0.216829 -0.708897 -0.0018919)
(0.244291 -0.688378 -0.00213165)
(0.267505 -0.657279 -0.00233428)
(0.285249 -0.617229 -0.00248922)
(0.297124 -0.570726 -0.00259291)
(0.30269 -0.519602 -0.00264158)
(0.302196 -0.466388 -0.00263732)
(0.296021 -0.412797 -0.00258349)
(0.0120503 -0.409107 -0.000105092)
(0.0373738 -0.561872 -0.000325918)
(0.071757 -0.668524 -0.000625846)
(0.110706 -0.73908 -0.000965714)
(0.15153 -0.78329 -0.00132197)
(0.19273 -0.805253 -0.00168159)
(0.231985 -0.808398 -0.0020242)
(0.268075 -0.79471 -0.00233926)
(0.299004 -0.766424 -0.00260924)
(0.323682 -0.725822 -0.0028247)
(0.340961 -0.675216 -0.00297557)
(0.350238 -0.617583 -0.00305661)
(0.351658 -0.555493 -0.00306907)
(0.0134318 -0.517812 -0.000117113)
(0.0424639 -0.695071 -0.000370279)
(0.0823976 -0.816914 -0.00071871)
(0.127389 -0.894916 -0.00111134)
(0.174558 -0.940762 -0.00152308)
(0.22191 -0.959374 -0.00193637)
(0.267033 -0.95443 -0.00233028)
(0.307977 -0.929143 -0.00268767)
(0.342622 -0.885495 -0.00299012)
(0.369505 -0.827794 -0.00322481)
(0.38718 -0.758203 -0.00337914)
(0.395042 -0.682053 -0.00344783)
(0.393253 -0.602096 -0.00343229)
(0.0185463 -0.588098 -0.000161731)
(0.0566319 -0.794963 -0.000493957)
(0.108468 -0.935399 -0.000946362)
(0.165805 -1.02257 -0.0014469)
(0.224683 -1.07112 -0.00196083)
(0.283106 -1.08721 -0.00247084)
(0.337568 -1.07528 -0.00294622)
(0.385838 -1.0391 -0.00336758)
(0.424818 -0.981775 -0.00370783)
(0.45255 -0.907963 -0.00394992)
(0.467594 -0.821326 -0.00408129)
(0.468864 -0.728003 -0.00409241)
(0.458129 -0.632169 -0.0039988)
(0.0208213 -0.760533 -0.000181592)
(0.0648273 -1.00263 -0.000565713)
(0.12371 -1.16377 -0.00107987)
(0.189037 -1.25948 -0.0016502)
(0.256178 -1.30827 -0.00223636)
(0.322328 -1.31707 -0.00281376)
(0.384745 -1.2903 -0.00335856)
(0.438556 -1.23396 -0.00382822)
(0.481529 -1.14936 -0.00420327)
(0.510567 -1.04614 -0.00445674)
(0.523886 -0.926328 -0.00457296)
(0.520528 -0.802231 -0.00454373)
(0.502661 -0.678158 -0.00438777)
(0.0289338 -0.861153 -0.000252457)
(0.0867351 -1.14491 -0.000757362)
(0.162968 -1.32977 -0.00142318)
(0.245247 -1.43452 -0.00214171)
(0.328688 -1.48377 -0.00287009)
(0.41113 -1.48634 -0.0035897)
(0.487271 -1.44608 -0.00425418)
(0.553362 -1.3696 -0.00483088)
(0.602834 -1.2613 -0.00526262)
(0.632795 -1.13023 -0.00552396)
(0.639986 -0.983514 -0.0055868)
(0.621728 -0.832878 -0.00542731)
(0.585431 -0.687441 -0.00511064)
(0.0327881 -1.13328 -0.000285843)
(0.0968999 -1.46504 -0.0008461)
(0.181011 -1.67368 -0.00158133)
(0.273395 -1.78615 -0.00238838)
(0.363344 -1.836 -0.00317355)
(0.455223 -1.8275 -0.00397554)
(0.544501 -1.76375 -0.00475465)
(0.616829 -1.65824 -0.00538555)
(0.670021 -1.50357 -0.00584932)
(0.697584 -1.32384 -0.00608986)
(0.697424 -1.11504 -0.00608817)
(0.667991 -0.911103 -0.00583153)
(0.616725 -0.720777 -0.00538388)
(0.0446549 -1.27874 -0.000388838)
(0.126684 -1.65663 -0.00110536)
(0.232145 -1.89221 -0.00202818)
(0.334289 -2.0077 -0.00292104)
(0.442415 -2.05285 -0.00386464)
(0.562251 -2.02646 -0.00491065)
(0.67079 -1.95229 -0.00585708)
(0.768203 -1.82494 -0.00670685)
(0.837441 -1.6171 -0.00731049)
(0.875755 -1.38887 -0.00764419)
(0.867993 -1.13858 -0.00757675)
(0.802853 -0.89274 -0.00700801)
(0.712888 -0.679349 -0.00622348)
(0.0584092 -1.68972 -0.000508674)
(0.134848 -2.12558 -0.00117664)
(0.23612 -2.36963 -0.00206413)
(0.352552 -2.48676 -0.00308163)
(0.459223 -2.54705 -0.00401258)
(0.575381 -2.4805 -0.00502496)
(0.684593 -2.39188 -0.00597888)
(0.832206 -2.25154 -0.00726453)
(0.924308 -1.97955 -0.00806766)
(0.921429 -1.68315 -0.00804156)
(0.891732 -1.29484 -0.00778123)
(0.798898 -0.947657 -0.00697281)
(0.678661 -0.666822 -0.00592354)
(0.0347701 -1.92591 -0.000305585)
(0.135599 -2.31679 -0.00118605)
(0.275068 -2.61742 -0.00240799)
(0.324138 -2.71308 -0.00283433)
(0.498966 -2.7577 -0.00436032)
(0.656698 -2.68028 -0.00574009)
(0.712559 -2.53611 -0.00622596)
(0.932938 -2.3211 -0.00815599)
(1.08339 -1.99816 -0.00945582)
(1.17149 -1.63908 -0.0102217)
(1.15419 -1.21205 -0.0100714)
(0.951519 -0.806135 -0.00830284)
(0.746528 -0.526481 -0.00651565)
(-0.00504289 -2.22687 3.7961e-05)
(0.0135247 -2.91145 -0.000115838)
(0.154407 -3.08139 -0.00135099)
(0.332495 -3.20481 -0.00290036)
(0.42344 -3.4801 -0.00370209)
(0.615071 -3.23351 -0.00539208)
(0.73026 -3.17032 -0.00643597)
(0.943384 -3.10622 -0.00827566)
(1.04026 -2.72388 -0.00910154)
(1.0279 -2.29419 -0.00897079)
(0.925503 -1.3748 -0.00807683)
(0.709558 -0.7145 -0.00619322)
(0.488321 -0.387857 -0.00426022)
(0.0499447 -1.91449 -0.000435661)
(0.253392 -2.62262 -0.00221232)
(0.383104 -3.1383 -0.00333115)
(-0.215993 -3.45112 0.00190678)
(0.213225 -3.52058 -0.00183853)
(0.577634 -3.4605 -0.00501802)
(0.244967 -3.22133 -0.00210701)
(0.649293 -2.87097 -0.00565287)
(0.867058 -2.38454 -0.0075252)
(1.28387 -1.69637 -0.0111431)
(1.38889 -0.974936 -0.0121282)
(0.778951 -0.38175 -0.00678805)
(0.386875 -0.174621 -0.00337012)
(0.0185491 -1.42347 -0.000160439)
(0.0598656 -1.9061 -0.0005219)
(0.118608 -2.25785 -0.0010301)
(0.155711 -2.43851 -0.0013563)
(0.240997 -2.42702 -0.00209136)
(0.296971 -2.33783 -0.00257818)
(0.283181 -2.08947 -0.00246604)
(0.321628 -1.71774 -0.00279756)
(0.302449 -1.22184 -0.00263277)
(0.182328 -0.488733 -0.00159199)
(0.0150178 -1.14728 -0.000131129)
(0.0428969 -1.47286 -0.000374121)
(0.0727042 -1.68075 -0.000634476)
(0.103181 -1.77811 -0.000899423)
(0.134384 -1.77241 -0.00117105)
(0.157138 -1.66482 -0.00136699)
(0.158995 -1.45794 -0.00138332)
(0.145632 -1.14971 -0.00126966)
(0.104974 -0.748894 -0.000913732)
(0.0213831 -0.271127 -0.000192121)
(0.00983543 -1.01096 -8.59169e-05)
(0.0269604 -1.23845 -0.000235327)
(0.0431806 -1.37542 -0.000376387)
(0.0584127 -1.42794 -0.000509023)
(0.0711382 -1.40152 -0.000620256)
(0.0786647 -1.29793 -0.000686099)
(0.0770675 -1.11567 -0.000672235)
(0.0647016 -0.860123 -0.00056412)
(0.0400905 -0.542152 -0.000349907)
(0.00442754 -0.182946 -3.96502e-05)
(0.00547386 -0.970418 -4.78432e-05)
(0.0147853 -1.14659 -0.000129089)
(0.0223285 -1.24609 -0.000194776)
(0.0278873 -1.27526 -0.00024309)
(0.0311295 -1.23979 -0.000271296)
(0.0314092 -1.14089 -0.00027378)
(0.0279072 -0.979469 -0.000243295)
(0.0202821 -0.757953 -0.000176873)
(0.00763852 -0.482849 -6.65463e-05)
(-0.000682647 -0.165598 5.97504e-06)
(0.00318491 -0.996337 -2.78384e-05)
(0.00691349 -1.16227 -6.04194e-05)
(0.00792625 -1.24931 -6.91903e-05)
(0.00654494 -1.26865 -5.7036e-05)
(0.0031416 -1.22697 -2.72342e-05)
(-0.00113847 -1.1267 1.01526e-05)
(-0.00495603 -0.968869 4.34809e-05)
(-0.00678083 -0.755442 5.93958e-05)
(-0.00547454 -0.48942 4.79515e-05)
(-0.00136687 -0.173643 1.21401e-05)
(0.000143754 -1.00428 -1.28592e-06)
(0.000526926 -1.17128 -4.65549e-06)
(0.000504883 -1.25634 -4.45317e-06)
(0.000203061 -1.2734 -1.75733e-06)
(-0.00031613 -1.22933 2.82642e-06)
(-0.000936462 -1.12705 8.29105e-06)
(-0.00138981 -0.967962 1.22523e-05)
(-0.0014208 -0.754009 1.25186e-05)
(-0.00108771 -0.488576 9.56981e-06)
(-0.000199641 -0.174351 1.80762e-06)
(-0.00284204 -0.998457 2.47905e-05)
(-0.00613528 -1.16413 5.35067e-05)
(-0.00799675 -1.24954 6.97569e-05)
(-0.00837902 -1.2677 7.31132e-05)
(-0.00711297 -1.22525 6.21019e-05)
(-0.00514868 -1.12496 4.49802e-05)
(-0.00250087 -0.968042 2.18911e-05)
(-0.000386202 -0.755921 3.42425e-06)
(0.000823329 -0.491334 -7.14758e-06)
(0.000408159 -0.176135 -3.60363e-06)
(-0.00664606 -0.974149 5.79928e-05)
(-0.0145078 -1.14725 0.000126598)
(-0.0182149 -1.24105 0.000158947)
(-0.0188768 -1.2664 0.000164738)
(-0.0166345 -1.22881 0.000145183)
(-0.0129832 -1.13071 0.000113338)
(-0.00807082 -0.973378 7.04724e-05)
(-0.00350658 -0.757988 3.06405e-05)
(-5.61149e-05 -0.489203 5.10719e-07)
(0.000612473 -0.171577 -5.3441e-06)
(-0.0163661 -0.927567 0.000142831)
(-0.0332313 -1.10883 0.000290018)
(-0.0411544 -1.21627 0.00035917)
(-0.0456198 -1.25171 0.000398145)
(-0.0467354 -1.22225 0.000407895)
(-0.0459195 -1.13075 0.000400788)
(-0.0405728 -0.978757 0.000354147)
(-0.0321259 -0.766855 0.000280443)
(-0.0181603 -0.498186 0.000158569)
(-0.0047287 -0.176856 4.17758e-05)
(-0.00314595 -0.806364 2.74576e-05)
(-0.0128303 -1.0234 0.000112004)
(-0.0359877 -1.16047 0.000314104)
(-0.0657411 -1.21083 0.000573708)
(-0.0985899 -1.19173 0.000860162)
(-0.128596 -1.11138 0.00112155)
(-0.148572 -0.972804 0.00129504)
(-0.152557 -0.775785 0.00132845)
(-0.124031 -0.520562 0.00107776)
(-0.072632 -0.200562 0.000626641)
(0.217129 -0.877752 -0.00187796)
(0.259401 -1.01775 -0.00214143)
(0.110319 -1.09597 -0.000805764)
(-0.0438666 -1.12948 0.000421829)
(-0.180993 -1.11177 0.00135004)
(-0.300705 -1.04354 0.00199593)
(-0.402381 -0.923336 0.00238133)
(-0.485992 -0.755468 0.00253985)
(-0.502894 -0.531821 0.00205228)
(-0.54505 -0.300812 0.00164649)
(0.00233116 -2.52836 -2.03448e-05)
(0.00740492 -1.39555 -6.46277e-05)
(0.0207846 -0.749707 -0.000181409)
(0.00615264 -0.581241 -5.37398e-05)
(-0.000787949 -0.50871 6.78937e-06)
(-0.0253562 -0.443339 0.000221092)
(-0.0221727 -0.385952 0.000192987)
(-0.0298872 -0.337758 0.000259608)
(0.0140202 -0.442918 -0.000125345)
(0.0597985 -1.66091 -0.000525991)
(-0.190149 -0.90954 0.0016595)
(-0.239481 -1.07671 0.00209029)
(-0.107598 -1.1371 0.000939364)
(0.0105805 -1.13884 -9.20661e-05)
(0.141284 -1.10653 -0.00123282)
(0.226613 -1.03974 -0.00197757)
(0.353087 -0.932122 -0.00308139)
(0.385883 -0.796386 -0.00336769)
(0.531842 -0.599348 -0.0046418)
(0.297386 -0.293191 -0.00262093)
(0.00608177 -0.978835 -5.3079e-05)
(0.00629587 -1.01873 -5.49536e-05)
(0.0144558 -1.03158 -0.000126157)
(0.0253265 -1.02362 -0.000221015)
(0.0447986 -0.989198 -0.000390953)
(0.0560513 -0.941478 -0.000489176)
(0.0733655 -0.85129 -0.000640319)
(0.0717412 -0.765256 -0.000626208)
(0.0614408 -0.576959 -0.00053651)
(0.0242359 -0.402173 -0.000213464)
(-0.00995111 -0.955603 8.68464e-05)
(-0.00515656 -1.10922 4.50204e-05)
(0.0203371 -1.18822 -0.00017746)
(0.0443902 -1.20962 -0.000387383)
(0.0769404 -1.1795 -0.000671481)
(0.095196 -1.10574 -0.000830855)
(0.117225 -0.976787 -0.00102308)
(0.106199 -0.800449 -0.000926935)
(0.0919828 -0.546096 -0.000802922)
(0.038345 -0.215758 -0.000338045)
(0.00156425 -0.918179 -1.36536e-05)
(0.00409528 -1.06916 -3.57445e-05)
(0.00941546 -1.14887 -8.2169e-05)
(0.0139584 -1.17114 -0.000121819)
(0.0182082 -1.14181 -0.000158924)
(0.0202064 -1.07046 -0.00017639)
(0.0214746 -0.944446 -0.000187407)
(0.0160195 -0.775472 -0.00013984)
(0.00998591 -0.527559 -8.71926e-05)
(0.00244837 -0.219518 -2.16445e-05)
(0.00280261 -0.974445 -2.44608e-05)
(0.00825818 -1.1346 -7.20748e-05)
(0.0165092 -1.21702 -0.000144081)
(0.0228744 -1.23737 -0.000199637)
(0.0290962 -1.20237 -0.000253947)
(0.0315783 -1.11674 -0.000275641)
(0.032867 -0.976412 -0.000286846)
(0.0259356 -0.782003 -0.000226389)
(0.0178249 -0.522925 -0.000155623)
(0.00578941 -0.197156 -5.11369e-05)
(0.000907139 -0.954097 -7.91946e-06)
(0.00226644 -1.11574 -1.97837e-05)
(0.00391364 -1.19903 -3.41532e-05)
(0.00538461 -1.22004 -4.69956e-05)
(0.00572722 -1.18516 -5.0005e-05)
(0.0062719 -1.09925 -5.47757e-05)
(0.00569825 -0.960075 -4.97085e-05)
(0.00269193 -0.765881 -2.34964e-05)
(0.00150458 -0.509593 -1.31338e-05)
(-0.000390593 -0.190536 3.29306e-06)
(0.00190569 -0.985268 -1.66336e-05)
(0.00461985 -1.14601 -4.03244e-05)
(0.0069157 -1.22738 -6.03657e-05)
(0.00880803 -1.24532 -7.68943e-05)
(0.0108899 -1.20713 -9.50262e-05)
(0.0101176 -1.11603 -8.82871e-05)
(0.0101566 -0.972577 -8.8643e-05)
(0.00773972 -0.772571 -6.756e-05)
(0.00449182 -0.514402 -3.92178e-05)
(0.00135773 -0.192137 -1.19674e-05)
(0.000370816 -0.975744 -3.23907e-06)
(0.00104913 -1.13683 -9.16121e-06)
(0.000899623 -1.21872 -7.85965e-06)
(0.00132483 -1.23653 -1.15829e-05)
(0.00227226 -1.19824 -1.9821e-05)
(0.0017569 -1.10735 -1.53281e-05)
(0.0020738 -0.962757 -1.81005e-05)
(0.000910918 -0.763526 -7.95383e-06)
(3.38609e-05 -0.505546 -2.93685e-07)
(-0.000315349 -0.186302 2.69522e-06)
(0.000742397 -0.990135 -6.48164e-06)
(0.00200013 -1.15032 -1.74604e-05)
(0.0023388 -1.23106 -2.042e-05)
(0.00313848 -1.24718 -2.74148e-05)
(0.00444837 -1.20725 -3.88157e-05)
(0.00381895 -1.11448 -3.33243e-05)
(0.00423217 -0.96871 -3.69389e-05)
(0.00301786 -0.768218 -2.63497e-05)
(0.00170227 -0.509955 -1.48642e-05)
(0.000533483 -0.189504 -4.67987e-06)
(1.77625e-05 -0.985024 -1.57719e-07)
(0.000542148 -1.14572 -4.73702e-06)
(9.60584e-05 -1.22707 -8.47417e-07)
(0.000316547 -1.24287 -2.78614e-06)
(0.00109811 -1.20291 -9.57543e-06)
(0.000527795 -1.10977 -4.59711e-06)
(0.00117963 -0.963561 -1.02934e-05)
(0.000492356 -0.762853 -4.30268e-06)
(1.2608e-05 -0.504604 -1.11155e-07)
(-0.00018836 -0.185655 1.61926e-06)
(0.000502897 -0.99187 -4.38915e-06)
(0.00124884 -1.15253 -1.08914e-05)
(0.00090656 -1.23355 -7.91634e-06)
(0.00179869 -1.2486 -1.57216e-05)
(0.00222497 -1.20766 -1.94113e-05)
(0.00196273 -1.11354 -1.71235e-05)
(0.00253427 -0.966649 -2.21179e-05)
(0.00168252 -0.76555 -1.46933e-05)
(0.000961527 -0.507258 -8.39806e-06)
(0.000276922 -0.187687 -2.42376e-06)
(0.000219927 -0.989749 -1.91936e-06)
(0.000723507 -1.15121 -6.30397e-06)
(0.000437209 -1.23213 -3.81981e-06)
(0.00141277 -1.24695 -1.23596e-05)
(0.00148947 -1.20582 -1.29942e-05)
(0.00100047 -1.11082 -8.72588e-06)
(0.00145275 -0.963721 -1.26801e-05)
(0.000663485 -0.762278 -5.79542e-06)
(0.000234148 -0.50402 -2.04438e-06)
(-9.80175e-05 -0.18533 8.3983e-07)
(0.0003657 -0.993983 -3.19182e-06)
(0.00116609 -1.1556 -1.01768e-05)
(0.00179374 -1.23621 -1.56505e-05)
(0.00223417 -1.25039 -1.94945e-05)
(0.00260348 -1.20846 -2.2724e-05)
(0.00238633 -1.11271 -2.08292e-05)
(0.00210226 -0.965092 -1.83517e-05)
(0.00146617 -0.763421 -1.28003e-05)
(0.000763147 -0.505187 -6.66365e-06)
(0.000205288 -0.186251 -1.80106e-06)
(0.000303704 -0.994417 -2.65093e-06)
(0.00109691 -1.15645 -9.57228e-06)
(0.00187902 -1.23689 -1.63973e-05)
(0.00251128 -1.2506 -2.19197e-05)
(0.00270358 -1.20759 -2.36001e-05)
(0.00217695 -1.1115 -1.90033e-05)
(0.00169959 -0.963183 -1.48368e-05)
(0.000989795 -0.761286 -8.63968e-06)
(0.00039588 -0.503008 -3.4545e-06)
(-2.37383e-05 -0.184735 1.89121e-07)
(0.000612403 -0.998391 -5.3452e-06)
(0.00170526 -1.16064 -1.48826e-05)
(0.00268913 -1.24042 -2.34696e-05)
(0.00328938 -1.25305 -2.87112e-05)
(0.00342986 -1.20913 -2.99403e-05)
(0.00301318 -1.11222 -2.63035e-05)
(0.00234267 -0.963417 -2.04512e-05)
(0.00154863 -0.761269 -1.35198e-05)
(0.000768641 -0.503042 -6.71261e-06)
(0.00015515 -0.18479 -1.35848e-06)
(0.000814475 -1.00193 -7.10899e-06)
(0.00207695 -1.16423 -1.81276e-05)
(0.00301501 -1.24308 -2.63153e-05)
(0.00338715 -1.25448 -2.95655e-05)
(0.00328658 -1.20923 -2.86885e-05)
(0.00275522 -1.11154 -2.40494e-05)
(0.00200512 -0.962166 -1.75053e-05)
(0.00121361 -0.759836 -1.05984e-05)
(0.000485339 -0.50172 -4.24198e-06)
(-1.75305e-05 -0.184038 1.39365e-07)
(0.00130587 -1.00778 -1.13976e-05)
(0.00290446 -1.16949 -2.53502e-05)
(0.00384331 -1.2468 -3.3546e-05)
(0.00420924 -1.25655 -3.67424e-05)
(0.0038838 -1.20998 -3.39014e-05)
(0.00321801 -1.11138 -2.80905e-05)
(0.00238643 -0.961374 -2.08372e-05)
(0.00154787 -0.758653 -1.35226e-05)
(0.000756028 -0.500444 -6.61074e-06)
(0.000140984 -0.182867 -1.21954e-06)
(0.00172292 -1.01597 -1.50374e-05)
(0.0034372 -1.17593 -2.99998e-05)
(0.00408917 -1.25077 -3.56922e-05)
(0.00400495 -1.25849 -3.49587e-05)
(0.00336974 -1.21061 -2.94164e-05)
(0.00271837 -1.11108 -2.37373e-05)
(0.00201608 -0.960897 -1.76005e-05)
(0.00126799 -0.757838 -1.10726e-05)
(0.000583782 -0.499965 -5.10162e-06)
(6.60361e-05 -0.182864 -5.71882e-07)
(0.00234968 -1.0252 -2.05067e-05)
(0.00423926 -1.18195 -3.70032e-05)
(0.00455196 -1.25349 -3.97356e-05)
(0.00399809 -1.25891 -3.48993e-05)
(0.00339227 -1.20995 -2.96117e-05)
(0.00265214 -1.11002 -2.31541e-05)
(0.00196655 -0.959697 -1.71531e-05)
(0.00161996 -0.756384 -1.41345e-05)
(0.000593153 -0.498283 -5.17484e-06)
(0.000182898 -0.181424 -1.61494e-06)
(0.00275932 -1.03896 -2.40824e-05)
(0.00431605 -1.19004 -3.7676e-05)
(0.00372204 -1.25718 -3.24931e-05)
(0.00227262 -1.26005 -1.98378e-05)
(0.00123161 -1.21038 -1.07533e-05)
(0.00071119 -1.11082 -6.21601e-06)
(0.000612321 -0.960573 -5.33496e-06)
(0.0007677 -0.757475 -6.69658e-06)
(0.000177203 -0.499236 -1.54594e-06)
(3.74761e-05 -0.182346 -3.61714e-07)