/*--------------------------------*- C++ -*----------------------------------*\
| =========                 |                                                 |
| \\      /  F ield         | OpenFOAM: The Open Source CFD Toolbox           |
|  \\    /   O peration     | Version:  v2012                                 |
|   \\  /    A nd           | Website:  www.openfoam.com                      |
|    \\/     M anipulation  |                                                 |
\*---------------------------------------------------------------------------*/
FoamFile
{
    version     2.0;
    format      ascii;
    class       surfaceScalarField;
    location    "0.3";
    object      alphaPhi0.water;
}
// * * * * * * * * * * * * * * * * * * * * * * * * * * * * * * * * * * * * * //

dimensions      [0 3 -1 0 0 0 0];
oriented        oriented;


internalField   nonuniform List<scalar> 
8145
(
-2.47856e-88
2.59837e-88
-7.4188e-98
-8.12346e-86
8.52942e-86
-1.97486e-94
-3.29243e-83
3.45834e-83
-4.28493e-92
-1.70648e-80
1.79307e-80
-8.81038e-90
-1.1835e-77
1.24388e-77
3.41886e-87
-1.28338e-74
1.34699e-74
2.23273e-83
-2.97505e-71
3.13795e-71
3.96349e-81
-6.26039e-68
1.06231e-67
8.81674e-77
2.51953e-66
5.94153e-75
-3.50777e-94
3.47009e-94
-2.14833e-102
-7.12965e-92
7.06952e-92
-2.47088e-100
-1.67157e-89
1.6581e-89
-2.86757e-98
-4.32629e-87
4.56768e-87
-1.09341e-96
-1.42844e-84
1.50909e-84
-3.6299e-93
-5.82705e-82
6.15812e-82
-7.90193e-91
-3.03952e-79
3.21307e-79
-1.65884e-88
-2.1212e-76
2.24276e-76
6.2801e-86
-2.39096e-73
2.52367e-73
4.30588e-82
-4.93953e-70
5.25121e-70
3.92991e-80
-1.14151e-66
1.94718e-66
1.5461e-75
4.38027e-65
9.72841e-74
-3.5184e-14
-2.98736e-10
-5.80601e-17
-8.43384e-19
-3.11344e-13
-4.71029e-20
-8.51869e-24
-5.29213e-18
-7.11383e-25
-1.35378e-31
-4.04905e-23
-5.3626e-30
-1.5086e-40
-6.24965e-31
-6.49879e-38
-5.47206e-48
-6.136e-40
-5.63101e-47
-4.56148e-56
-1.9644e-47
-1.61155e-54
-2.78083e-59
-1.52803e-55
-1.07436e-62
-4.58273e-62
-8.46021e-59
-5.5907e-66
-2.19401e-65
-1.28654e-61
-7.74634e-69
-1.65714e-67
-5.6241e-65
-3.20038e-72
-1.12675e-69
-3.97832e-67
-2.02836e-74
-6.59361e-72
-2.47553e-69
-1.21813e-76
-3.09314e-74
-1.36299e-71
-6.27901e-79
-1.0561e-76
-6.07976e-74
-2.49824e-81
-2.36496e-79
-1.92048e-76
-8.28811e-84
-7.83152e-83
-3.92378e-79
-1.6383e-86
-9.55064e-86
-1.1932e-82
-4.76307e-90
-2.12318e-91
-1.33061e-85
-5.06221e-93
-4.84009e-97
-2.55949e-91
-9.85374e-99
-2.36432e-104
-5.36713e-97
-1.97146e-104
-4.21948e-106
-2.30131e-104
-8.49006e-112
-4.82278e-107
-3.4644e-106
-1.33473e-113
-2.65522e-107
-1.97297e-107
-1.07162e-114
-1.79553e-107
-5.91774e-108
-5.487e-115
-1.31391e-107
-9.60157e-109
-3.50413e-115
-1.1562e-107
3.19916e-108
-3.67901e-115
-4.33609e-106
4.21439e-106
-1.35926e-113
-6.20594e-104
6.10412e-104
-1.02e-111
-8.5523e-102
8.43027e-102
-8.05427e-110
-1.20767e-99
1.19199e-99
-6.3891e-108
-1.81241e-97
1.79045e-97
-3.05367e-106
-2.96331e-95
2.92898e-95
-1.2774e-103
-5.01197e-93
5.32146e-93
-3.3264e-101
-1.02633e-90
1.09084e-90
-3.89903e-99
-2.42066e-88
2.57422e-88
-4.76536e-97
-6.70251e-86
7.13145e-86
-2.17848e-95
-2.22982e-83
2.37331e-83
-5.95699e-92
-9.16287e-81
9.75501e-81
-1.30192e-89
-4.81427e-78
5.12632e-78
-2.78185e-87
-3.38372e-75
3.60344e-75
1.02673e-84
-4.1524e-72
4.40026e-72
7.41505e-81
-7.07002e-69
7.59141e-69
2.27306e-80
-1.85846e-65
3.19042e-65
2.37391e-74
6.7845e-64
1.37468e-72
-4.9714e-14
-3.07284e-10
-6.03638e-17
-1.22416e-18
-4.0076e-13
-6.62427e-20
-8.76449e-24
-8.39441e-18
-1.0648e-24
-1.92102e-31
-3.89191e-23
-5.81439e-30
-2.20896e-40
-8.4687e-31
-9.67936e-38
-8.00992e-48
-8.61123e-40
-8.60177e-47
-7.19559e-56
-2.77419e-47
-2.44527e-54
-4.44145e-59
-2.30346e-55
-1.74717e-62
-7.58442e-62
-1.29829e-58
-9.14878e-66
-3.64991e-65
-2.0521e-61
-1.31053e-68
-2.93049e-67
-9.06377e-65
-5.42546e-72
-1.9911e-69
-6.82864e-67
-3.64917e-74
-1.2267e-71
-4.24303e-69
-2.19954e-76
-6.40085e-74
-2.43478e-71
-1.20861e-78
-2.36198e-76
-1.20916e-73
-5.59724e-81
-5.45631e-79
-4.18377e-76
-1.93701e-83
-1.97347e-82
-8.76269e-79
-3.9033e-86
-2.56455e-85
-2.93001e-82
-1.22684e-89
-7.04572e-91
-3.32736e-85
-1.38026e-92
-2.2716e-96
-8.6457e-91
-3.30404e-98
-1.8174e-103
-2.59544e-96
-9.3232e-104
-3.87476e-105
-1.58474e-103
-6.56297e-111
-4.1845e-106
-3.00779e-105
-1.1318e-112
-1.85057e-106
-1.84668e-106
-8.62292e-114
-9.57438e-107
-4.89956e-107
-3.50978e-114
-5.50256e-107
-6.12598e-108
-1.7679e-114
-8.57317e-107
3.07797e-107
-2.97804e-114
-5.17289e-105
5.39712e-105
-1.79094e-112
-7.44244e-103
7.91133e-103
-1.36125e-110
-1.0312e-100
1.10006e-100
-1.07848e-108
-1.46551e-98
1.56658e-98
-8.57335e-107
-2.21422e-96
2.37012e-96
-4.04845e-105
-3.64448e-94
3.90494e-94
-1.7043e-102
-6.65965e-92
7.14162e-92
-4.54632e-100
-1.37559e-89
1.47596e-89
-5.44088e-98
-3.27144e-87
3.51164e-87
-6.97592e-96
-9.13429e-85
9.80811e-85
-3.74635e-94
-3.06389e-82
3.29069e-82
-8.6792e-91
-1.26938e-79
1.36355e-79
-1.91007e-88
-6.72398e-77
7.22334e-77
-4.15288e-86
-4.76411e-74
5.11789e-74
1.4805e-83
-6.97098e-71
7.40538e-71
1.18415e-79
-8.70875e-68
9.46146e-68
-6.519e-78
-2.67924e-64
4.63562e-64
3.31133e-73
9.28106e-63
1.78626e-71
-6.77024e-14
-3.09476e-10
-6.36151e-17
-2.58023e-18
-4.97803e-13
-8.73604e-20
-8.8332e-24
-1.92761e-17
-2.21162e-24
-2.73127e-31
-3.68701e-23
-5.75552e-30
-3.24653e-40
-1.14771e-30
-1.35402e-37
-1.19476e-47
-1.21097e-39
-1.25286e-46
-1.12333e-55
-3.99536e-47
-3.63685e-54
-7.0818e-59
-3.43108e-55
-2.73125e-62
-1.25955e-61
-1.98412e-58
-1.46515e-65
-6.18304e-65
-3.27529e-61
-2.19157e-68
-5.30359e-67
-1.48627e-64
-9.28824e-72
-3.63089e-69
-1.19919e-66
-6.68585e-74
-2.29779e-71
-7.54358e-69
-4.07994e-76
-1.32051e-73
-4.39618e-71
-2.34072e-78
-5.40424e-76
-2.39014e-73
-1.23722e-80
-1.29402e-78
-9.25567e-76
-4.67287e-83
-5.15277e-82
-2.01799e-78
-9.59323e-86
-6.88751e-85
-7.4289e-82
-3.27541e-89
-2.77932e-90
-8.67979e-85
-3.75845e-92
-1.23322e-95
-3.49902e-90
-1.31419e-97
-1.63467e-102
-1.36067e-95
-5.08807e-103
-3.05036e-104
-1.43543e-102
-5.92122e-110
-4.57512e-105
-2.48046e-104
-9.54038e-112
-2.14087e-105
-1.91216e-105
-9.36473e-113
-1.06402e-105
-5.58377e-106
-4.04114e-113
-5.84651e-106
-6.30112e-107
-1.94419e-113
-9.99547e-106
3.44289e-106
-3.3152e-113
-5.73361e-104
6.02326e-104
-2.06279e-111
-8.26164e-102
8.87736e-102
-1.57919e-109
-1.15291e-99
1.24393e-99
-1.25931e-107
-1.65207e-97
1.78651e-97
-1.00773e-105
-2.51791e-95
2.72665e-95
-4.69517e-104
-4.18147e-93
4.53246e-93
-2.00637e-101
-7.71091e-91
8.36374e-91
-5.46607e-99
-1.60716e-88
1.74405e-88
-6.67639e-97
-3.85693e-86
4.18684e-86
-8.93252e-95
-1.08674e-83
1.17995e-83
-5.21414e-93
-3.67864e-81
3.99457e-81
-1.10925e-89
-1.53806e-78
1.67018e-78
-2.45594e-87
-8.22177e-76
8.92736e-76
-5.40098e-85
-5.87818e-73
6.38166e-73
1.91773e-82
-9.83871e-70
1.05742e-69
1.82626e-78
-9.58288e-67
1.05198e-66
-1.27776e-76
-3.38849e-63
5.92011e-63
4.15333e-72
1.1104e-61
2.07099e-70
-8.96442e-14
-3.05889e-10
-6.52955e-17
-6.70617e-18
-6.01292e-13
-1.11374e-19
-8.70162e-24
-4.79363e-17
-5.66257e-24
-3.89452e-31
-3.30291e-23
-5.71167e-30
-4.79241e-40
-1.55673e-30
-1.94982e-37
-1.82551e-47
-1.70719e-39
-1.87133e-46
-1.73985e-55
-5.89545e-47
-5.63117e-54
-1.12631e-58
-5.06646e-55
-4.28869e-62
-2.09455e-61
-3.01841e-58
-2.35911e-65
-1.06729e-64
-5.22129e-61
-3.68658e-68
-9.83011e-67
-2.47943e-64
-1.62031e-71
-6.92636e-69
-2.15338e-66
-1.2521e-73
-4.41327e-71
-1.40868e-68
-7.85934e-76
-2.72954e-73
-8.19528e-71
-4.60132e-78
-1.25104e-75
-4.7381e-73
-2.6719e-80
-3.18892e-78
-2.05737e-75
-1.15653e-82
-1.38801e-81
-4.83974e-78
-2.44761e-85
-2.03864e-84
-1.93242e-81
-9.00112e-89
-1.22863e-89
-2.61428e-84
-1.12508e-91
-6.90153e-95
-1.47516e-89
-5.84437e-97
-2.15453e-101
-6.84561e-95
-2.85615e-102
-2.16252e-103
-2.13891e-101
-7.81357e-109
-4.48806e-104
-1.75736e-103
-6.90546e-111
-2.23338e-104
-1.72632e-104
-9.21159e-112
-1.15204e-104
-5.37027e-105
-4.27321e-112
-6.41836e-105
-6.04862e-106
-2.11502e-112
-1.08394e-104
3.41381e-105
-3.3377e-112
-5.44946e-103
5.77697e-103
-2.04698e-110
-7.85706e-101
8.55922e-101
-1.57965e-108
-1.10479e-98
1.20921e-98
-1.27016e-106
-1.59712e-96
1.75244e-96
-1.02595e-104
-2.45705e-94
2.69998e-94
-4.77182e-103
-4.11985e-92
4.53143e-92
-2.05718e-100
-7.67193e-90
8.44333e-90
-5.69979e-98
-1.61493e-87
1.77793e-87
-7.10134e-96
-3.91439e-85
4.31031e-85
-9.8761e-94
-1.11406e-82
1.2268e-82
-6.21183e-92
-3.80942e-80
4.19463e-80
-1.23024e-88
-1.60899e-77
1.77138e-77
-2.74513e-86
-8.68872e-75
9.56309e-75
-6.11081e-84
-6.27511e-72
6.90412e-72
2.15909e-81
-1.14581e-68
1.25103e-68
2.36939e-77
-1.04315e-65
1.14726e-65
-1.66688e-75
-3.71987e-62
6.57931e-62
4.60055e-71
1.14887e-60
2.10158e-69
-1.16143e-13
-2.95706e-10
-6.62192e-17
-1.6423e-17
-7.10053e-13
-1.38402e-19
-7.9208e-24
-1.03999e-16
-1.35114e-23
-5.57508e-31
-2.7051e-23
-5.12234e-30
-7.11059e-40
-2.11499e-30
-2.77106e-37
-2.86642e-47
-2.41408e-39
-2.7736e-46
-2.6878e-55
-8.93027e-47
-8.86611e-54
-1.78824e-58
-7.46452e-55
-6.65101e-62
-3.48559e-61
-4.57749e-58
-3.7639e-65
-1.87481e-64
-8.31288e-61
-6.16935e-68
-1.86056e-66
-4.19835e-64
-2.86353e-71
-1.39014e-68
-3.93533e-66
-2.39012e-73
-8.87377e-71
-2.76599e-68
-1.58506e-75
-5.73462e-73
-1.61157e-70
-9.38518e-78
-2.91836e-75
-9.59546e-73
-5.78684e-80
-8.20789e-78
-4.59325e-75
-2.85971e-82
-3.84615e-81
-1.21034e-77
-6.48805e-85
-6.93822e-84
-5.14984e-81
-2.53378e-88
-5.43542e-89
-8.97355e-84
-3.85934e-91
-3.97473e-94
-5.87482e-89
-2.59376e-96
-3.92426e-100
-3.70341e-94
-1.64574e-101
-1.23981e-102
-3.65059e-100
-1.42174e-107
-3.98869e-103
-8.65102e-103
-3.95103e-110
-1.9233e-103
-1.45353e-103
-8.07717e-111
-1.08652e-103
-3.94909e-104
-3.74193e-111
-6.21397e-104
-4.70644e-105
-2.02088e-111
-1.02835e-103
2.91721e-104
-2.88638e-111
-4.41922e-102
4.73751e-102
-1.72861e-109
-6.36885e-100
7.05706e-100
-1.34576e-107
-9.02734e-98
1.00566e-97
-1.09222e-105
-1.31738e-95
1.47159e-95
-8.92116e-104
-2.04717e-93
2.29028e-93
-4.14992e-102
-3.46844e-91
3.88373e-91
-1.81599e-99
-6.52772e-89
7.3127e-89
-5.09819e-97
-1.38893e-86
1.55624e-86
-6.47832e-95
-3.40342e-84
3.81339e-84
-9.32744e-93
-9.79345e-82
1.09713e-81
-6.21121e-91
-3.38613e-79
3.79223e-79
-1.1712e-87
-1.44628e-76
1.61905e-76
-2.63719e-85
-7.89826e-74
8.83712e-74
-5.9408e-83
-5.76849e-71
6.45016e-71
2.10536e-80
-1.12473e-67
1.2493e-67
2.53425e-76
-9.81445e-65
1.09611e-64
-1.87981e-74
-3.50133e-61
6.29146e-61
4.45412e-70
1.01444e-59
1.85893e-68
-1.47642e-13
-2.78862e-10
-6.51927e-17
-3.43819e-17
-8.20042e-13
-1.66338e-19
-6.89456e-24
-1.89947e-16
-2.7203e-23
-8.0205e-31
-2.23581e-23
-4.35385e-30
-1.06121e-39
-2.88075e-30
-3.92779e-37
-4.62339e-47
-3.42618e-39
-4.10736e-46
-4.17885e-55
-1.38542e-46
-1.42655e-53
-2.84261e-58
-1.10897e-54
-1.03444e-61
-5.81306e-61
-6.94621e-58
-5.99358e-65
-3.34076e-64
-1.32481e-60
-1.03112e-67
-3.57261e-66
-7.18634e-64
-5.1123e-71
-2.91176e-68
-7.25934e-66
-4.61577e-73
-1.89528e-70
-5.62642e-68
-3.32103e-75
-1.25011e-72
-3.37697e-70
-2.01312e-77
-6.91312e-75
-2.03174e-72
-1.28175e-79
-2.19971e-77
-1.04358e-74
-7.00298e-82
-1.10211e-80
-3.13277e-77
-1.77167e-84
-2.51731e-83
-1.41964e-80
-7.33032e-88
-2.44364e-88
-3.07884e-83
-1.40572e-90
-2.80137e-93
-2.48699e-88
-1.16655e-95
-7.01154e-99
-2.78024e-93
-1.15794e-100
-5.02757e-102
-5.20434e-99
-2.53284e-106
-3.2495e-102
-3.0348e-102
-1.59619e-109
-1.45017e-102
-1.37058e-102
-6.68314e-110
-8.55654e-103
-2.68772e-103
-2.82406e-110
-5.03881e-103
-2.68295e-104
-1.60363e-110
-8.47432e-103
2.32833e-103
-2.29929e-110
-3.43521e-101
3.69338e-101
-1.36684e-108
-4.96561e-99
5.53374e-99
-1.07492e-106
-7.10018e-97
7.95768e-97
-8.81585e-105
-1.04666e-94
1.1764e-94
-7.29482e-103
-1.64403e-92
1.85066e-92
-3.43407e-101
-2.81654e-90
3.17314e-90
-1.51229e-98
-5.36135e-88
6.04244e-88
-4.31483e-96
-1.15401e-85
1.3007e-85
-5.58178e-94
-2.8611e-83
3.22434e-83
-8.27573e-92
-8.3312e-81
9.38594e-81
-5.75875e-90
-2.91536e-78
3.28292e-78
-1.05497e-86
-1.2604e-75
1.41848e-75
-2.40327e-84
-6.96773e-73
7.83606e-73
-5.49805e-82
-5.23108e-70
5.86833e-70
1.93193e-79
-1.0468e-66
1.17124e-66
2.51538e-75
-9.03066e-64
1.12431e-63
-2.21099e-73
-2.78457e-60
5.1086e-60
3.66753e-69
7.52296e-59
1.3818e-67
-1.835e-13
-2.61238e-10
-6.25613e-17
-6.17781e-17
-9.19233e-13
-1.93183e-19
-6.2963e-24
-2.99049e-16
-4.66895e-23
-1.16069e-30
-2.00922e-23
-3.85479e-30
-1.59429e-39
-3.93714e-30
-5.56354e-37
-7.62206e-47
-4.88381e-39
-6.08522e-46
-6.62668e-55
-2.18569e-46
-2.33281e-53
-4.54825e-58
-1.68712e-54
-1.63186e-61
-9.75437e-61
-1.06142e-57
-9.56413e-65
-6.01346e-64
-2.12401e-60
-1.72778e-67
-6.90164e-66
-1.23768e-63
-9.19014e-71
-6.23482e-68
-1.33931e-65
-8.958e-73
-4.28916e-70
-1.1558e-67
-7.11654e-75
-2.88238e-72
-7.45105e-70
-4.55115e-77
-1.69433e-74
-4.57496e-72
-2.96802e-79
-6.09628e-77
-2.46977e-74
-1.73927e-81
-3.3145e-80
-8.32345e-77
-4.94871e-84
-8.83949e-83
-4.12241e-80
-2.21203e-87
-1.32289e-87
-9.80309e-83
-4.93656e-90
-2.71308e-92
-1.43662e-87
-6.30085e-95
-1.28016e-97
-2.76627e-92
-1.11733e-99
-1.58517e-101
-1.01756e-97
-4.60263e-105
-1.82345e-101
-6.16764e-102
-5.006e-109
-1.22154e-101
-8.65604e-102
-5.06319e-109
-6.00446e-102
-3.03254e-102
-2.28532e-109
-3.60214e-102
-1.40968e-103
-1.09976e-109
-6.54366e-102
2.01029e-102
-1.97775e-109
-3.04648e-100
3.2299e-100
-1.21606e-107
-4.44647e-98
4.87245e-98
-9.67641e-106
-6.41782e-96
7.07592e-96
-8.02978e-104
-9.56327e-94
1.05772e-93
-6.74368e-102
-1.51953e-91
1.68358e-91
-3.21414e-100
-2.63453e-89
2.92184e-89
-1.43346e-97
-5.07674e-87
5.63323e-87
-4.14541e-95
-1.10649e-84
1.22799e-84
-5.45882e-93
-2.77841e-82
3.08331e-82
-8.30593e-91
-8.19558e-80
9.09269e-80
-5.97914e-89
-2.9057e-77
3.22246e-77
-1.08136e-85
-1.27298e-74
1.41099e-74
-2.49584e-83
-7.1319e-72
7.89993e-72
-5.80258e-81
-5.75339e-69
6.33251e-69
2.06235e-78
-1.10804e-65
1.22461e-65
2.79479e-74
-1.15983e-62
1.52124e-62
-3.36673e-72
-1.83669e-59
3.46454e-59
2.55157e-68
4.58702e-58
8.59768e-67
-2.20597e-13
-2.40509e-10
-6.04862e-17
-9.75455e-17
-9.85512e-13
-2.17256e-19
-6.18133e-24
-4.15059e-16
-7.03745e-23
-1.69096e-30
-1.89922e-23
-3.62558e-30
-2.41288e-39
-5.40336e-30
-7.84851e-37
-1.27276e-46
-6.99728e-39
-9.01744e-46
-1.09081e-54
-3.46951e-46
-3.84479e-53
-7.38162e-58
-2.6802e-54
-2.66224e-61
-1.65778e-60
-1.64753e-57
-1.54281e-64
-1.08939e-63
-3.45219e-60
-2.92099e-67
-1.33199e-65
-2.13725e-63
-1.65587e-70
-1.33323e-67
-2.45567e-65
-1.73062e-72
-1.00607e-69
-2.34222e-67
-1.52173e-74
-7.07415e-72
-1.67915e-69
-1.06201e-76
-4.39476e-74
-1.0934e-71
-7.2355e-79
-1.74545e-76
-6.22695e-74
-4.48411e-81
-1.0652e-79
-2.27511e-76
-1.41261e-83
-3.0351e-82
-1.28057e-79
-7.08756e-87
-9.73273e-87
-3.13336e-82
-1.68863e-89
-2.95234e-91
-1.11075e-86
-4.61331e-94
-3.6723e-96
-2.56707e-91
-1.20933e-98
-4.04138e-100
-4.2648e-96
-1.3124e-103
-8.72844e-101
-3.2628e-100
-1.26779e-107
-9.19665e-101
-2.90328e-101
-2.42666e-108
-4.6664e-101
-2.28254e-101
-2.23485e-108
-2.88072e-101
-9.19571e-103
-8.39355e-109
-5.31327e-101
1.5549e-101
-1.54263e-108
-2.22741e-99
2.39842e-99
-9.33215e-107
-3.25696e-97
3.64266e-97
-7.51558e-105
-4.74865e-95
5.3466e-95
-6.316e-103
-7.1605e-93
8.08851e-93
-5.3871e-101
-1.15234e-90
1.30386e-90
-2.61587e-99
-2.02459e-88
2.2926e-88
-1.17656e-96
-3.95495e-86
4.47954e-86
-3.46256e-94
-8.74087e-84
9.89885e-84
-4.63418e-92
-2.2262e-81
2.52009e-81
-7.21015e-90
-6.66214e-79
7.53693e-79
-5.32135e-88
-2.39691e-76
2.70948e-76
-9.63814e-85
-1.06581e-73
1.20366e-73
-2.25859e-82
-6.06167e-71
6.83836e-71
-5.3542e-80
-6.07607e-68
6.70308e-68
1.98362e-77
-9.71591e-65
1.09345e-64
2.65295e-73
-1.12581e-61
1.58993e-61
-4.08018e-71
-9.75183e-59
1.91853e-58
1.45908e-67
2.20842e-57
4.27754e-66
-2.53083e-13
-2.1716e-10
-5.32535e-17
-1.37445e-16
-9.97265e-13
-2.24715e-19
-6.72456e-24
-5.1272e-16
-9.33627e-23
-2.48135e-30
-2.2328e-23
-3.77385e-30
-3.68169e-39
-7.45095e-30
-1.11134e-36
-2.12922e-46
-1.00854e-38
-1.33662e-45
-1.89956e-54
-5.47796e-46
-6.29088e-53
-1.22661e-57
-4.53159e-54
-4.55414e-61
-2.87852e-60
-2.62375e-57
-2.53006e-64
-1.98337e-63
-5.74249e-60
-5.0197e-67
-2.56286e-65
-3.69861e-63
-2.98716e-70
-2.80628e-67
-4.47498e-65
-3.3211e-72
-2.37654e-69
-4.63539e-67
-3.20112e-74
-1.82521e-71
-3.75083e-69
-2.4927e-76
-1.22354e-73
-2.71282e-71
-1.8411e-78
-5.22946e-76
-1.68339e-73
-1.22196e-80
-3.70308e-79
-6.5169e-76
-4.1821e-83
-1.15209e-81
-4.26981e-79
-2.44358e-86
-7.98764e-86
-1.19834e-81
-6.36591e-89
-3.11703e-90
-7.93441e-86
-3.76076e-93
-1.28135e-94
-2.31969e-90
-1.26799e-97
-8.09803e-98
-9.21003e-95
-4.54563e-102
-3.18996e-100
-8.10449e-98
-2.52058e-105
-5.14929e-100
-8.41847e-101
-8.72426e-108
-4.05834e-100
-9.24082e-101
-1.24084e-107
-2.50457e-100
-4.61787e-102
-7.56904e-108
-4.25434e-100
1.01643e-100
-1.02426e-107
-1.35381e-98
1.48135e-98
-5.9959e-106
-1.97124e-96
2.26615e-96
-4.89089e-104
-2.90517e-94
3.36475e-94
-4.16693e-102
-4.43721e-92
5.15675e-92
-3.61337e-100
-7.24033e-90
8.42742e-90
-1.77707e-98
-1.29061e-87
1.50298e-87
-8.15672e-96
-2.559e-85
2.97966e-85
-2.43853e-93
-5.74265e-83
6.68274e-83
-3.31871e-91
-1.48554e-80
1.72719e-80
-5.26953e-89
-4.5168e-78
5.24553e-78
-3.96886e-87
-1.65154e-75
1.91542e-75
-7.2679e-84
-7.46535e-73
8.64517e-73
-1.7314e-81
-4.35384e-70
5.02767e-70
-4.18822e-79
-4.93914e-67
5.60531e-67
1.85686e-76
-7.05163e-64
8.14017e-64
2.12195e-72
-8.94952e-61
1.32883e-60
-3.91103e-70
-3.79221e-58
7.97186e-58
6.56595e-67
7.1215e-57
1.57298e-65
-2.75647e-13
-1.91711e-10
-4.812e-17
-1.74031e-16
-9.55531e-13
-2.22516e-19
-1.7396e-23
-5.66782e-16
-1.1075e-22
-3.66866e-30
-9.40575e-23
-9.18829e-30
-5.66855e-39
-1.03275e-29
-1.56636e-36
-3.53285e-46
-1.46376e-38
-1.98734e-45
-3.54465e-54
-8.52197e-46
-1.01784e-52
-2.10594e-57
-8.22487e-54
-8.33013e-61
-5.15382e-60
-4.3238e-57
-4.2786e-64
-3.63798e-63
-9.86564e-60
-8.88262e-67
-4.94368e-65
-6.44103e-63
-5.42057e-70
-5.82505e-67
-8.17903e-65
-6.36648e-72
-5.56208e-69
-9.03794e-67
-6.62137e-74
-4.84613e-71
-8.22068e-69
-5.78385e-76
-3.64575e-73
-6.81609e-71
-4.79467e-78
-1.68402e-75
-4.81072e-73
-3.51722e-80
-1.40388e-78
-2.01492e-75
-1.32111e-82
-5.47087e-81
-1.53062e-78
-9.14648e-86
-6.00207e-85
-5.83303e-81
-2.99431e-88
-4.07925e-89
-4.92123e-85
-2.80271e-92
-4.06069e-93
-4.16874e-89
-1.64587e-96
-1.81508e-95
-2.57985e-93
-1.42855e-100
-2.74842e-98
-1.81498e-95
-5.60031e-103
-1.79131e-99
-2.58551e-98
-7.44834e-106
-2.39504e-99
-2.26996e-100
-4.79161e-107
-1.79395e-99
-5.42013e-102
-5.53208e-107
-2.8579e-99
5.41352e-100
-5.61117e-107
-6.47962e-98
7.27286e-98
-3.11835e-105
-9.33001e-96
1.12132e-95
-2.57839e-103
-1.39128e-93
1.68615e-93
-2.22924e-101
-2.15531e-91
2.62112e-91
-1.96624e-99
-3.57138e-89
4.34838e-89
-9.81716e-98
-6.46946e-87
7.87646e-87
-4.59597e-95
-1.30428e-84
1.58659e-84
-1.4025e-92
-2.9773e-82
3.61675e-82
-1.94008e-90
-7.83735e-80
9.50398e-80
-3.14006e-88
-2.42574e-77
2.93559e-77
-2.39969e-86
-9.03198e-75
1.09055e-74
-4.48739e-83
-4.1588e-72
5.00911e-72
-1.08912e-80
-2.99225e-69
3.49016e-69
-2.71725e-78
-3.05471e-66
3.61196e-66
1.32615e-75
-3.91049e-63
4.72144e-63
1.38227e-71
-5.50749e-60
8.78521e-60
-3.02293e-69
-7.62889e-58
1.97862e-57
1.83857e-66
9.40654e-57
2.97257e-65
-2.88715e-13
-1.64777e-10
-4.07854e-17
-1.99919e-16
-8.92616e-13
-2.09687e-19
-1.0834e-22
-5.69543e-16
-1.18982e-22
-5.4657e-30
-5.68133e-22
-5.45857e-29
-8.81572e-39
-1.43919e-29
-2.25461e-36
-5.77652e-46
-2.14184e-38
-3.00321e-45
-7.06347e-54
-1.29999e-45
-1.62324e-52
-3.75609e-57
-1.58333e-53
-1.61967e-60
-9.5804e-60
-7.39628e-57
-7.46836e-64
-6.77289e-63
-1.75954e-59
-1.62079e-66
-9.69996e-65
-1.13955e-62
-9.93348e-70
-1.21702e-66
-1.52753e-64
-1.23407e-71
-1.30124e-68
-1.78663e-66
-1.37049e-73
-1.31266e-70
-1.80134e-68
-1.33627e-75
-1.15025e-72
-1.72792e-70
-1.26948e-77
-6.0209e-75
-1.43004e-72
-1.06857e-79
-5.94665e-78
-6.90725e-75
-4.6154e-82
-3.06958e-80
-6.07815e-78
-3.81504e-85
-4.91116e-84
-2.98617e-80
-1.66123e-87
-9.05022e-88
-4.39856e-84
-2.272e-91
-5.21061e-91
-1.47658e-87
-3.61842e-95
-4.39573e-93
-5.15582e-91
-1.81651e-98
-1.01191e-95
-4.38555e-93
-1.34347e-100
-7.9757e-99
-1.0144e-95
-2.71518e-103
-1.5257e-98
-1.59848e-99
-1.88427e-106
-1.09019e-98
8.72582e-101
-3.44113e-106
-1.63708e-98
2.43988e-99
-2.36139e-106
-2.25854e-97
2.64312e-97
-1.17948e-104
-3.00368e-95
3.96445e-95
-9.88682e-103
-4.52813e-93
6.0398e-93
-8.68365e-101
-7.12532e-91
9.53506e-91
-7.79695e-99
-1.20125e-88
1.6079e-88
-3.92579e-97
-2.21607e-86
2.96209e-86
-1.89735e-94
-4.55307e-84
6.07095e-84
-5.90104e-92
-1.05977e-81
1.40865e-81
-8.30644e-90
-2.84588e-79
3.76912e-79
-1.36957e-87
-8.9897e-77
1.18587e-76
-1.0618e-85
-3.41764e-74
4.48913e-74
-2.03604e-82
-1.60744e-71
2.10188e-71
-5.04068e-80
-1.37811e-68
1.72516e-68
-1.51784e-77
-1.34015e-65
1.69978e-65
6.64958e-75
-1.23755e-62
1.70831e-62
6.37874e-71
-2.43639e-59
4.08313e-59
-1.64498e-68
-8.22254e-58
3.30466e-57
3.39311e-66
9.5436e-57
3.04224e-65
-2.96721e-13
-1.37528e-10
-3.6639e-17
-2.13152e-16
-8.15932e-13
-2.03206e-19
-4.70791e-22
-5.38287e-16
-1.2098e-22
-8.20624e-30
-1.84859e-21
-2.22364e-28
-1.38671e-38
-2.01696e-29
-3.19539e-36
-9.30131e-46
-3.16449e-38
-4.50999e-45
-1.46869e-53
-1.94807e-45
-2.51811e-52
-6.94849e-57
-3.133e-53
-3.26463e-60
-1.85128e-59
-1.30619e-56
-1.3478e-63
-1.29553e-62
-3.25108e-59
-3.06988e-66
-1.97811e-64
-2.07728e-62
-1.87033e-69
-2.65657e-66
-2.98709e-64
-2.48127e-71
-3.16229e-68
-3.74177e-66
-2.94946e-73
-3.71203e-70
-4.14122e-68
-3.19196e-75
-3.87415e-72
-4.5663e-70
-3.49927e-77
-2.46162e-74
-4.48212e-72
-3.47266e-79
-3.0033e-77
-2.67005e-74
-1.84261e-81
-1.77857e-79
-2.89892e-77
-1.89513e-84
-6.45578e-83
-1.46583e-79
-9.50773e-87
-1.6841e-86
-7.75532e-83
-2.95641e-90
-9.85869e-89
-9.26871e-87
-6.66946e-94
-1.15168e-90
-9.762e-89
-3.40404e-96
-4.1208e-93
-1.14542e-90
-3.4848e-98
-3.55186e-97
-4.12994e-93
-1.0941e-100
-7.96468e-97
-4.8386e-98
-8.30026e-105
-1.34157e-96
1.35415e-98
-2.19624e-104
-1.51131e-96
2.97628e-97
-2.79574e-104
-3.67479e-96
1.28753e-96
-5.44738e-104
-8.76818e-95
1.18064e-94
-2.8328e-102
-1.26434e-92
1.81112e-92
-2.51514e-100
-2.01901e-90
2.90216e-90
-2.30035e-98
-3.46056e-88
4.97237e-88
-1.17189e-96
-6.49607e-86
9.31307e-86
-5.83851e-94
-1.35893e-83
1.9416e-83
-1.85901e-91
-3.22232e-81
4.58466e-81
-2.66377e-89
-8.81979e-79
1.24891e-78
-4.47681e-87
-2.84111e-76
4.00223e-76
-3.5101e-85
-1.102e-73
1.54377e-73
-6.94615e-82
-5.86558e-71
7.94415e-71
-1.75799e-79
-5.04284e-68
6.75904e-68
-6.28988e-77
-4.99184e-65
6.68591e-65
2.51768e-74
-2.62161e-62
4.3247e-62
1.90959e-70
-7.5678e-59
1.44879e-58
-6.67759e-68
-7.55764e-58
4.74993e-57
5.18226e-66
7.80181e-57
2.64048e-65
-2.89834e-13
-1.11232e-10
-3.09534e-17
-2.18564e-16
-6.89574e-13
-1.84166e-19
-1.16482e-21
-4.98345e-16
-1.16183e-22
-1.24212e-29
-3.36936e-21
-5.21188e-28
-2.2102e-38
-2.84444e-29
-4.64051e-36
-1.48505e-45
-4.73022e-38
-6.95273e-45
-3.08379e-53
-2.89762e-45
-3.90144e-52
-1.32106e-56
-6.15215e-53
-6.64813e-60
-3.69819e-59
-2.35121e-56
-2.49028e-63
-2.5842e-62
-6.16704e-59
-5.97443e-66
-4.2845e-64
-3.96159e-62
-3.65145e-69
-6.33332e-66
-6.23578e-64
-5.26334e-71
-8.52535e-68
-8.64728e-66
-6.87909e-73
-1.16984e-69
-1.06794e-67
-8.3889e-75
-1.47022e-71
-1.35164e-69
-1.06829e-76
-1.19223e-73
-1.58279e-71
-1.28575e-78
-2.00754e-76
-1.19762e-73
-8.72559e-81
-1.17458e-78
-1.8475e-76
-1.24626e-83
-1.01436e-81
-9.59883e-79
-6.20119e-86
-9.78365e-85
-8.74545e-82
-4.5979e-89
-2.42055e-86
-9.41754e-85
-3.83658e-92
-3.27188e-88
-2.39214e-86
-6.91872e-94
-1.84196e-90
-3.25436e-88
-9.79822e-96
-2.34759e-94
-1.84495e-90
-4.83797e-98
-2.54572e-96
-2.31613e-94
-5.42432e-102
-5.36712e-96
6.63309e-98
-6.75343e-104
-6.22285e-96
1.38485e-96
-1.31368e-103
-2.43313e-95
1.48896e-95
-5.91537e-103
-2.07246e-93
2.11044e-93
-4.54452e-101
-3.19328e-91
3.30008e-91
-4.13405e-99
-5.17255e-89
5.37005e-89
-3.86183e-97
-8.98547e-87
9.35507e-87
-1.98535e-95
-1.70963e-84
1.7833e-84
-1.03127e-92
-3.62579e-82
3.78678e-82
-3.36387e-90
-8.71872e-80
9.11334e-80
-4.92519e-88
-2.42089e-77
2.53177e-77
-8.45901e-86
-7.91376e-75
8.27845e-75
-6.74366e-84
-3.11606e-72
3.25989e-72
-1.3808e-80
-1.89625e-69
1.97236e-69
-3.86584e-78
-1.55919e-66
1.62483e-66
-1.44905e-75
-1.20177e-63
1.26715e-63
5.62538e-73
-1.21589e-60
1.85591e-60
5.16333e-69
-2.63591e-58
5.14071e-58
-2.68496e-67
-4.74006e-58
5.33002e-57
7.2165e-66
3.31798e-57
1.58536e-65
-2.5943e-13
-8.68957e-11
-2.56226e-17
-2.15394e-16
-5.34656e-13
-1.53116e-19
-1.8508e-21
-4.26215e-16
-1.06375e-22
-1.89734e-29
-4.11524e-21
-7.77327e-28
-3.57806e-38
-4.04205e-29
-6.70436e-36
-2.38933e-45
-7.17213e-38
-1.07427e-44
-6.37449e-53
-4.36845e-45
-6.03001e-52
-2.5494e-56
-1.1735e-52
-1.32734e-59
-7.56866e-59
-4.25597e-56
-4.66533e-63
-5.44435e-62
-1.18845e-58
-1.19193e-65
-9.955e-64
-7.98503e-62
-7.5308e-69
-1.70021e-65
-1.39021e-63
-1.19672e-70
-2.76432e-67
-2.21928e-65
-1.80155e-72
-4.57923e-69
-3.26658e-67
-2.63552e-74
-7.02944e-71
-4.94061e-69
-4.02135e-76
-7.36261e-73
-7.08323e-71
-6.05035e-78
-1.95775e-75
-6.80461e-73
-5.28485e-80
-1.24815e-77
-1.67414e-75
-1.19721e-82
-1.21802e-80
-1.22551e-77
-6.51035e-85
-1.7625e-82
-7.61326e-81
-5.46496e-88
-6.19856e-84
-1.70435e-82
-6.47919e-90
-1.2943e-85
-6.0832e-84
-1.52896e-91
-9.08623e-88
-1.28587e-85
-3.00871e-93
-2.57098e-91
-9.09344e-88
-2.36046e-95
-4.82258e-95
-2.57319e-91
-5.87218e-99
-8.81185e-95
1.43849e-96
-9.60889e-103
-9.44362e-95
2.39598e-95
-2.1561e-102
-2.97728e-94
1.68796e-94
-6.71903e-102
-2.23678e-92
2.34766e-92
-5.16063e-100
-3.49208e-90
3.73016e-90
-4.78851e-98
-5.7597e-88
6.1815e-88
-4.56961e-96
-1.02034e-85
1.09791e-85
-2.37885e-94
-1.98175e-83
2.13547e-83
-1.28306e-91
-4.29367e-81
4.62983e-81
-4.29761e-89
-1.05547e-78
1.13828e-78
-6.42574e-87
-2.99778e-76
3.23231e-76
-1.12798e-84
-1.003e-73
1.08093e-73
-9.12159e-83
-4.04457e-71
4.35568e-71
-1.93665e-79
-2.8096e-68
3.00204e-68
-6.41026e-77
-2.33266e-65
2.49211e-65
-2.34902e-74
-1.0765e-62
1.20086e-62
6.85859e-72
-1.96347e-59
2.72271e-59
8.55987e-68
-6.38917e-58
1.32323e-57
-8.51277e-67
-1.25795e-58
4.94428e-57
6.85226e-66
3.69621e-58
4.01746e-66
-2.15635e-13
-6.54786e-11
-2.03641e-17
-1.89573e-16
-3.90725e-13
-1.17431e-19
-2.19922e-21
-3.22522e-16
-8.73114e-23
-2.93109e-29
-3.98061e-21
-8.62298e-28
-5.90237e-38
-5.80287e-29
-9.77127e-36
-3.97729e-45
-1.10676e-37
-1.69137e-44
-1.29013e-52
-6.89039e-45
-9.62829e-52
-4.95486e-56
-2.18011e-52
-2.58233e-59
-1.57874e-58
-7.7059e-56
-8.73904e-63
-1.21767e-61
-2.31948e-58
-2.40281e-65
-2.46135e-63
-1.70047e-61
-1.6322e-68
-5.32655e-65
-3.24506e-63
-2.87005e-70
-1.31402e-66
-6.28393e-65
-5.30884e-72
-2.85642e-68
-1.35729e-66
-1.07482e-73
-5.01674e-70
-2.75492e-68
-2.14423e-75
-6.6666e-72
-4.65116e-70
-4.1812e-77
-2.95927e-74
-5.803e-72
-4.70835e-79
-2.062e-76
-2.27494e-74
-1.785e-81
-9.29924e-79
-1.47397e-76
-1.06314e-83
-4.60027e-80
-8.83755e-79
-4.12997e-86
-1.65199e-81
-4.44374e-80
-1.20489e-87
-5.08758e-83
-1.60523e-81
-3.69247e-89
-4.97963e-85
-5.04356e-83
-1.01503e-90
-3.25667e-88
-4.97609e-85
-1.27946e-92
-4.10876e-94
-3.25926e-88
-7.35356e-96
-7.15677e-94
1.54831e-95
-8.08996e-102
-8.72853e-94
2.00313e-94
-1.8105e-101
-4.04143e-93
2.68923e-93
-1.09562e-100
-3.91103e-91
3.99517e-91
-9.08536e-99
-6.24502e-89
6.46788e-89
-8.62166e-97
-1.05105e-86
1.09376e-86
-8.4228e-95
-1.90193e-84
1.98484e-84
-4.43285e-93
-3.77635e-82
3.94792e-82
-2.50073e-90
-8.36979e-80
8.75933e-80
-8.59689e-88
-2.10601e-77
2.2053e-77
-1.31593e-85
-6.12638e-75
6.41672e-75
-2.36498e-83
-2.10066e-72
2.20014e-72
-1.95189e-81
-8.8959e-70
9.30383e-70
-4.29132e-78
-6.91888e-67
7.20971e-67
-1.6258e-75
-4.43808e-64
4.68053e-64
-6.0688e-73
-3.53659e-61
4.9282e-61
1.85571e-70
-7.85729e-59
1.27992e-58
4.68514e-67
-6.06207e-58
2.09124e-57
-1.63158e-66
-8.00619e-60
4.3591e-57
6.35669e-66
5.217e-60
2.48602e-67
-1.70137e-13
-4.76677e-11
-1.6779e-17
-1.51392e-16
-2.71166e-13
-8.82245e-20
-2.26286e-21
-2.28966e-16
-6.78813e-23
-4.59685e-29
-3.47866e-21
-8.47415e-28
-9.96211e-38
-8.45286e-29
-1.47469e-35
-7.07797e-45
-1.74541e-37
-2.77372e-44
-2.61016e-52
-1.17713e-44
-1.66703e-51
-9.74097e-56
-4.07385e-52
-5.0868e-59
-3.37831e-58
-1.41008e-55
-1.67163e-62
-2.88156e-61
-4.64114e-58
-5.00379e-65
-6.69866e-63
-3.79088e-61
-3.74608e-68
-2.38305e-64
-8.06286e-63
-7.22959e-70
-1.11824e-65
-2.36405e-64
-1.83112e-71
-3.4688e-67
-9.86975e-66
-6.56115e-73
-7.09031e-69
-2.97008e-67
-1.95599e-74
-1.04991e-70
-5.97641e-69
-4.92222e-76
-7.89673e-73
-8.7339e-71
-7.31226e-78
-5.59336e-75
-6.01529e-73
-4.70416e-80
-2.14853e-76
-4.06546e-75
-2.85167e-82
-1.00037e-77
-2.05317e-76
-6.71802e-84
-4.69176e-79
-9.56351e-78
-2.45291e-85
-2.08752e-80
-4.49461e-79
-9.79616e-87
-4.04159e-82
-2.05001e-80
-3.78473e-88
-4.83158e-85
-4.03152e-82
-7.76358e-90
-9.21396e-93
-4.83487e-85
-1.07875e-92
-1.03349e-92
3.08396e-94
-1.79323e-100
-1.18332e-92
1.76449e-93
-2.16399e-100
-3.5941e-92
2.56827e-92
-1.08415e-99
-3.37518e-90
3.62876e-90
-8.49485e-98
-5.49234e-88
5.98544e-88
-8.24721e-96
-9.44723e-86
1.03422e-85
-8.26076e-94
-1.75008e-83
1.92014e-83
-4.41956e-92
-3.56142e-81
3.911e-81
-2.60019e-89
-8.09748e-79
8.89274e-79
-9.20126e-87
-2.09182e-76
2.29604e-76
-1.44379e-84
-6.25205e-74
6.85598e-74
-2.66274e-82
-2.2042e-71
2.41409e-71
-2.24611e-80
-1.11291e-68
1.20322e-68
-5.2378e-77
-8.72621e-66
9.43473e-66
-2.24254e-74
-3.22469e-63
3.68382e-63
-6.60776e-72
-4.56053e-60
6.2485e-60
2.5296e-69
-1.87297e-58
3.64554e-58
1.53738e-66
-5.63296e-58
2.71315e-57
-2.46545e-66
-6.97176e-62
3.77719e-57
5.80276e-66
5.68107e-63
2.11049e-69
-1.27622e-13
-3.3673e-11
-1.21258e-17
-1.15782e-16
-1.78953e-13
-5.95927e-20
-1.87031e-21
-1.57139e-16
-4.82442e-23
-7.36091e-29
-1.94829e-21
-6.41977e-28
-1.7292e-37
-1.25728e-28
-2.17486e-35
-1.37887e-44
-2.82726e-37
-4.49951e-44
-5.55185e-52
-2.20834e-44
-3.06334e-51
-1.97812e-55
-8.17812e-52
-1.02901e-58
-7.58595e-58
-2.68451e-55
-3.24422e-62
-7.19024e-61
-9.81169e-58
-1.07814e-64
-1.98227e-62
-8.81006e-61
-8.94043e-68
-1.36913e-63
-2.15812e-62
-1.91605e-69
-1.25383e-64
-1.16876e-63
-8.4465e-71
-6.2711e-66
-1.01322e-64
-6.22558e-72
-1.92325e-67
-5.01602e-66
-2.97128e-73
-3.72719e-69
-1.5288e-67
-1.10436e-74
-4.47443e-71
-2.96277e-69
-2.12773e-76
-6.67682e-73
-3.66569e-71
-2.63202e-78
-4.28851e-74
-6.24951e-73
-3.25726e-80
-2.34893e-75
-4.06674e-74
-1.20717e-81
-1.43944e-76