/*--------------------------------*- C++ -*----------------------------------*\
| =========                 |                                                 |
| \\      /  F ield         | OpenFOAM: The Open Source CFD Toolbox           |
|  \\    /   O peration     | Version:  v2012                                 |
|   \\  /    A nd           | Website:  www.openfoam.com                      |
|    \\/     M anipulation  |                                                 |
\*---------------------------------------------------------------------------*/
FoamFile
{
    version     2.0;
    format      ascii;
    class       volScalarField;
    location    "0.1";
    object      p_rgh;
}
// * * * * * * * * * * * * * * * * * * * * * * * * * * * * * * * * * * * * * //

dimensions      [1 -1 -2 0 0 0 0];


internalField   nonuniform List<scalar> 
2650
(
4.00433e+06
4.00547e+06
4.00176e+06
4.00275e+06
4.00351e+06
4.00388e+06
4.0042e+06
4.0022e+06
4.0018e+06
4.00215e+06
4.00445e+06
4.00459e+06
4.00348e+06
4.00158e+06
4.00155e+06
4.00933e+06
4.00424e+06
4.00281e+06
4.00235e+06
4.00288e+06
4.00418e+06
4.00207e+06
4.00193e+06
4.00247e+06
4.00419e+06
4.00367e+06
4.00185e+06
4.00251e+06
4.00086e+06
4.00188e+06
4.00312e+06
4.0022e+06
4.00333e+06
4.00171e+06
4.00163e+06
4.00305e+06
4.00244e+06
4.00305e+06
4.01847e+06
4.00289e+06
4.00189e+06
4.00109e+06
4.00248e+06
4.08421e+06
4.04609e+06
4.00111e+06
4.00107e+06
4.00184e+06
4.01739e+06
4.0341e+06
4.00001e+06
4.00145e+06
4.00273e+06
4.00961e+06
4.05487e+06
4.00064e+06
4.00248e+06
4.00455e+06
4.00588e+06
4.02756e+06
3.9971e+06
4.00071e+06
4.00499e+06
4.00376e+06
4.04008e+06
4.00167e+06
4.00401e+06
4.01511e+06
4.00218e+06
4.00669e+06
4.2311e+06
4.34369e+06
4.19838e+06
4.02753e+06
4.00586e+06
4.32854e+06
4.76697e+06
4.76076e+06
4.69001e+06
4.68517e+06
4.47509e+06
4.47706e+06
4.35706e+06
4.26347e+06
3.8156e+06
5.73121e+06
5.67952e+06
5.73946e+06
5.70108e+06
5.57668e+06
5.89305e+06
5.97831e+06
6.0367e+06
6.05675e+06
6.07148e+06
6.07854e+06
6.08354e+06
6.08677e+06
6.08911e+06
6.09084e+06
6.09217e+06
6.0932e+06
6.09406e+06
6.09476e+06
6.09535e+06
6.09584e+06
6.09627e+06
6.09664e+06
6.09696e+06
6.09725e+06
6.09751e+06
6.09773e+06
6.09794e+06
6.09812e+06
6.09829e+06
6.09845e+06
5.7046e+06
5.78599e+06
5.82298e+06
5.85971e+06
5.91102e+06
6.01667e+06
6.03123e+06
6.0582e+06
6.06696e+06
6.07614e+06
6.08091e+06
6.0848e+06
6.08749e+06
6.08954e+06
6.09111e+06
6.09235e+06
6.09332e+06
6.09414e+06
6.09482e+06
6.09538e+06
6.09587e+06
6.09629e+06
6.09666e+06
6.09698e+06
6.09726e+06
6.09751e+06
6.09774e+06
6.09794e+06
6.09813e+06
6.0983e+06
6.09845e+06
5.99634e+06
5.98112e+06
5.989e+06
6.00028e+06
6.00767e+06
6.03752e+06
6.05017e+06
6.06472e+06
6.07233e+06
6.07894e+06
6.08287e+06
6.08602e+06
6.08831e+06
6.09009e+06
6.09149e+06
6.09261e+06
6.09351e+06
6.09428e+06
6.09492e+06
6.09546e+06
6.09593e+06
6.09634e+06
6.09669e+06
6.097e+06
6.09728e+06
6.09753e+06
6.09776e+06
6.09796e+06
6.09814e+06
6.0983e+06
6.09845e+06
6.04955e+06
6.03979e+06
6.04002e+06
6.04289e+06
6.05111e+06
6.06178e+06
6.06742e+06
6.07457e+06
6.07871e+06
6.08286e+06
6.08542e+06
6.08767e+06
6.08944e+06
6.09085e+06
6.09203e+06
6.093e+06
6.09379e+06
6.09449e+06
6.09508e+06
6.09558e+06
6.09602e+06
6.09641e+06
6.09675e+06
6.09705e+06
6.09732e+06
6.09756e+06
6.09778e+06
6.09798e+06
6.09816e+06
6.09832e+06
6.09847e+06
6.08515e+06
6.07291e+06
6.07218e+06
6.07078e+06
6.07262e+06
6.07518e+06
6.07769e+06
6.08083e+06
6.08328e+06
6.08587e+06
6.08756e+06
6.08915e+06
6.0905e+06
6.09162e+06
6.0926e+06
6.09342e+06
6.09411e+06
6.09473e+06
6.09526e+06
6.09573e+06
6.09614e+06
6.0965e+06
6.09682e+06
6.09711e+06
6.09737e+06
6.0976e+06
6.09781e+06
6.098e+06
6.09818e+06
6.09834e+06
6.09848e+06
6.08492e+06
6.08185e+06
6.07907e+06
6.07949e+06
6.08046e+06
6.0817e+06
6.08319e+06
6.08512e+06
6.08658e+06
6.08836e+06
6.08944e+06
6.09054e+06
6.09156e+06
6.0924e+06
6.0932e+06
6.09387e+06
6.09446e+06
6.095e+06
6.09547e+06
6.09589e+06
6.09627e+06
6.09661e+06
6.09691e+06
6.09718e+06
6.09742e+06
6.09765e+06
6.09785e+06
6.09804e+06
6.09821e+06
6.09836e+06
6.0985e+06
6.08718e+06
6.08724e+06
6.08855e+06
6.08774e+06
6.08716e+06
6.08702e+06
6.08748e+06
6.08851e+06
6.08922e+06
6.09041e+06
6.09103e+06
6.09175e+06
6.0925e+06
6.09313e+06
6.09377e+06
6.09432e+06
6.09481e+06
6.09528e+06
6.0957e+06
6.09607e+06
6.09642e+06
6.09672e+06
6.097e+06
6.09726e+06
6.09749e+06
6.0977e+06
6.0979e+06
6.09808e+06
6.09824e+06
6.09839e+06
6.09853e+06
6.08876e+06
6.08982e+06
6.09053e+06
6.09021e+06
6.08965e+06
6.08932e+06
6.08971e+06
6.0905e+06
6.09091e+06
6.09184e+06
6.09224e+06
6.09275e+06
6.09333e+06
6.0938e+06
6.09431e+06
6.09476e+06
6.09517e+06
6.09557e+06
6.09593e+06
6.09626e+06
6.09657e+06
6.09685e+06
6.09711e+06
6.09735e+06
6.09756e+06
6.09776e+06
6.09795e+06
6.09812e+06
6.09828e+06
6.09842e+06
6.09855e+06
6.09262e+06
6.09247e+06
6.09337e+06
6.09264e+06
6.09209e+06
6.09162e+06
6.09155e+06
6.09208e+06
6.09237e+06
6.09309e+06
6.09329e+06
6.09362e+06
6.09405e+06
6.09439e+06
6.09479e+06
6.09516e+06
6.0955e+06
6.09584e+06
6.09616e+06
6.09645e+06
6.09673e+06
6.09698e+06
6.09722e+06
6.09744e+06
6.09764e+06
6.09783e+06
6.09801e+06
6.09817e+06
6.09832e+06
6.09846e+06
6.09858e+06
6.09303e+06
6.09333e+06
6.09366e+06
6.09371e+06
6.09429e+06
6.09358e+06
6.09318e+06
6.09323e+06
6.0934e+06
6.09395e+06
6.09407e+06
6.09431e+06
6.09466e+06
6.09492e+06
6.09524e+06
6.09554e+06
6.09582e+06
6.09611e+06
6.09639e+06
6.09664e+06
6.09689e+06
6.09712e+06
6.09734e+06
6.09754e+06
6.09773e+06
6.0979e+06
6.09807e+06
6.09822e+06
6.09836e+06
6.09849e+06
6.09862e+06
6.09414e+06
6.09425e+06
6.09454e+06
6.09468e+06
6.09492e+06
6.09489e+06
6.09479e+06
6.0947e+06
6.09449e+06
6.09459e+06
6.09477e+06
6.09494e+06
6.09519e+06
6.0954e+06
6.09565e+06
6.09589e+06
6.09613e+06
6.09637e+06
6.09661e+06
6.09683e+06
6.09705e+06
6.09726e+06
6.09745e+06
6.09764e+06
6.09781e+06
6.09798e+06
6.09813e+06
6.09827e+06
6.09841e+06
6.09854e+06
6.09865e+06
6.09482e+06
6.09508e+06
6.09517e+06
6.09528e+06
6.09549e+06
6.0955e+06
6.09571e+06
6.0956e+06
6.09517e+06
6.09515e+06
6.0953e+06
6.09542e+06
6.09563e+06
6.09579e+06
6.096e+06
6.09621e+06
6.0964e+06
6.09661e+06
6.09682e+06
6.09701e+06
6.09721e+06
6.09739e+06
6.09757e+06
6.09774e+06
6.0979e+06
6.09805e+06
6.0982e+06
6.09833e+06
6.09846e+06
6.09858e+06
6.09869e+06
6.09574e+06
6.09562e+06
6.09585e+06
6.09587e+06
6.096e+06
6.09603e+06
6.09614e+06
6.09603e+06
6.09571e+06
6.09568e+06
6.09579e+06
6.09589e+06
6.09604e+06
6.09617e+06
6.09634e+06
6.0965e+06
6.09666e+06
6.09684e+06
6.09702e+06
6.09719e+06
6.09736e+06
6.09753e+06
6.09769e+06
6.09784e+06
6.09799e+06
6.09813e+06
6.09826e+06
6.09839e+06
6.09851e+06
6.09862e+06
6.09873e+06
6.09492e+06
6.09564e+06
6.09595e+06
6.09635e+06
6.09637e+06
6.09647e+06
6.09653e+06
6.09643e+06
6.09609e+06
6.09604e+06
6.09615e+06
6.09623e+06
6.09637e+06
6.09648e+06
6.09662e+06
6.09676e+06
6.0969e+06
6.09705e+06
6.09721e+06
6.09736e+06
6.09751e+06
6.09766e+06
6.0978e+06
6.09794e+06
6.09808e+06
6.09821e+06
6.09833e+06
6.09845e+06
6.09856e+06
6.09867e+06
6.09877e+06
6.09546e+06
6.09591e+06
6.09585e+06
6.09634e+06
6.09671e+06
6.09696e+06
6.09697e+06
6.09688e+06
6.09651e+06
6.09645e+06
6.09652e+06
6.09658e+06
6.09668e+06
6.09677e+06
6.09689e+06
6.09701e+06
6.09712e+06
6.09726e+06
6.09739e+06
6.09752e+06
6.09765e+06
6.09779e+06
6.09792e+06
6.09804e+06
6.09817e+06
6.09829e+06
6.0984e+06
6.09851e+06
6.09862e+06
6.09872e+06
6.09882e+06
6.09577e+06
6.09633e+06
6.09614e+06
6.09662e+06
6.09705e+06
6.09728e+06
6.09726e+06
6.09717e+06
6.0968e+06
6.09673e+06
6.09681e+06
6.09687e+06
6.09697e+06
6.09704e+06
6.09714e+06
6.09723e+06
6.09733e+06
6.09744e+06
6.09756e+06
6.09767e+06
6.09779e+06
6.09791e+06
6.09803e+06
6.09814e+06
6.09826e+06
6.09837e+06
6.09847e+06
6.09858e+06
6.09868e+06
6.09877e+06
6.09886e+06
6.09634e+06
6.09668e+06
6.09652e+06
6.09694e+06
6.09732e+06
6.09757e+06
6.09759e+06
6.0975e+06
6.09711e+06
6.09703e+06
6.09708e+06
6.09711e+06
6.09719e+06
6.09725e+06
6.09734e+06
6.09742e+06
6.09751e+06
6.09761e+06
6.09771e+06
6.09782e+06
6.09792e+06
6.09803e+06
6.09814e+06
6.09824e+06
6.09834e+06
6.09844e+06
6.09854e+06
6.09864e+06
6.09873e+06
6.09882e+06
6.09891e+06
6.09678e+06
6.09694e+06
6.09701e+06
6.09715e+06
6.09718e+06
6.09739e+06
6.09772e+06
6.0977e+06
6.09732e+06
6.09725e+06
6.09731e+06
6.09735e+06
6.09743e+06
6.09747e+06
6.09755e+06
6.09762e+06
6.09769e+06
6.09778e+06
6.09787e+06
6.09796e+06
6.09805e+06
6.09815e+06
6.09824e+06
6.09834e+06
6.09843e+06
6.09852e+06
6.09861e+06
6.0987e+06
6.09879e+06
6.09887e+06
6.09895e+06
6.09712e+06
6.0972e+06
6.09726e+06
6.0974e+06
6.09742e+06
6.09756e+06
6.09762e+06
6.09763e+06
6.09753e+06
6.0975e+06
6.09755e+06
6.09757e+06
6.09763e+06
6.09767e+06
6.09773e+06
6.09779e+06
6.09786e+06
6.09793e+06
6.09801e+06
6.09809e+06
6.09817e+06
6.09826e+06
6.09834e+06
6.09843e+06
6.09851e+06
6.0986e+06
6.09868e+06
6.09877e+06
6.09885e+06
6.09892e+06
6.099e+06
6.0975e+06
6.09753e+06
6.09756e+06
6.09764e+06
6.09768e+06
6.09777e+06
6.09777e+06
6.09777e+06
6.09769e+06
6.09767e+06
6.09773e+06
6.09775e+06
6.09781e+06
6.09785e+06
6.0979e+06
6.09795e+06
6.09801e+06
6.09808e+06
6.09814e+06
6.09822e+06
6.09829e+06
6.09836e+06
6.09844e+06
6.09852e+06
6.0986e+06
6.09868e+06
6.09875e+06
6.09883e+06
6.0989e+06
6.09897e+06
6.09904e+06
6.09755e+06
6.09767e+06
6.09783e+06
6.0979e+06
6.0979e+06
6.09798e+06
6.09799e+06
6.09798e+06
6.0979e+06
6.09788e+06
6.09792e+06
6.09794e+06
6.09798e+06
6.09802e+06
6.09806e+06
6.09811e+06
6.09816e+06
6.09821e+06
6.09827e+06
6.09834e+06
6.0984e+06
6.09847e+06
6.09854e+06
6.09861e+06
6.09868e+06
6.09875e+06
6.09882e+06
6.09889e+06
6.09896e+06
6.09903e+06
6.09909e+06
6.09623e+06
6.09719e+06
6.09782e+06
6.09807e+06
6.09807e+06
6.09817e+06
6.09817e+06
6.09816e+06
6.09807e+06
6.09804e+06
6.09808e+06
6.0981e+06
6.09814e+06
6.09817e+06
6.0982e+06
6.09825e+06
6.09829e+06
6.09834e+06
6.09839e+06
6.09845e+06
6.09851e+06
6.09857e+06
6.09863e+06
6.09869e+06
6.09876e+06
6.09882e+06
6.09889e+06
6.09895e+06
6.09902e+06
6.09908e+06
6.09914e+06
6.09722e+06
6.09737e+06
6.09729e+06
6.0977e+06
6.09814e+06
6.0984e+06
6.09835e+06
6.09834e+06
6.09824e+06
6.09821e+06
6.09824e+06
6.09825e+06
6.09829e+06
6.09831e+06
6.09834e+06
6.09838e+06
6.09842e+06
6.09846e+06
6.09851e+06
6.09856e+06
6.09861e+06
6.09866e+06
6.09872e+06
6.09878e+06
6.09884e+06
6.0989e+06
6.09895e+06
6.09901e+06
6.09907e+06
6.09913e+06
6.09919e+06
6.09739e+06
6.09757e+06
6.09741e+06
6.09784e+06
6.09837e+06
6.09862e+06
6.09852e+06
6.09849e+06
6.09839e+06
6.09835e+06
6.09838e+06
6.09839e+06
6.09843e+06
6.09845e+06
6.09848e+06
6.09851e+06
6.09854e+06
6.09858e+06
6.09862e+06
6.09866e+06
6.09871e+06
6.09876e+06
6.09881e+06
6.09886e+06
6.09891e+06
6.09897e+06
6.09902e+06
6.09907e+06
6.09913e+06
6.09918e+06
6.09923e+06
6.09762e+06
6.09776e+06
6.09764e+06
6.09802e+06
6.09845e+06
6.0987e+06
6.09869e+06
6.09867e+06
6.09855e+06
6.0985e+06
6.09852e+06
6.09852e+06
6.09855e+06
6.09857e+06
6.09859e+06
6.09862e+06
6.09865e+06
6.09868e+06
6.09872e+06
6.09876e+06
6.0988e+06
6.09885e+06
6.09889e+06
6.09894e+06
6.09899e+06
6.09904e+06
6.09909e+06
6.09913e+06
6.09918e+06
6.09923e+06
6.09928e+06
6.09807e+06
6.09817e+06
6.0982e+06
6.09821e+06
6.09812e+06
6.09835e+06
6.09866e+06
6.09875e+06
6.09865e+06
6.09861e+06
6.09864e+06
6.09865e+06
6.09867e+06
6.09869e+06
6.09871e+06
6.09873e+06
6.09876e+06
6.09879e+06
6.09882e+06
6.09886e+06
6.09889e+06
6.09893e+06
6.09897e+06
6.09902e+06
6.09906e+06
6.0991e+06
6.09915e+06
6.09919e+06
6.09924e+06
6.09928e+06
6.09933e+06
6.09849e+06
6.09842e+06
6.09838e+06
6.09836e+06
6.09828e+06
6.09834e+06
6.09837e+06
6.0985e+06
6.09871e+06
6.09877e+06
6.09877e+06
6.09877e+06
6.09879e+06
6.0988e+06
6.09882e+06
6.09884e+06
6.09887e+06
6.09889e+06
6.09892e+06
6.09895e+06
6.09898e+06
6.09902e+06
6.09905e+06
6.09909e+06
6.09913e+06
6.09917e+06
6.09921e+06
6.09925e+06
6.09929e+06
6.09934e+06
6.09938e+06
6.09872e+06
6.09865e+06
6.0986e+06
6.09855e+06
6.0985e+06
6.0985e+06
6.09841e+06
6.09853e+06
6.09879e+06
6.09888e+06
6.09888e+06
6.09888e+06
6.0989e+06
6.09891e+06
6.09893e+06
6.09895e+06
6.09897e+06
6.09899e+06
6.09901e+06
6.09904e+06
6.09907e+06
6.0991e+06
6.09913e+06
6.09917e+06
6.0992e+06
6.09924e+06
6.09927e+06
6.09931e+06
6.09935e+06
6.09939e+06
6.09942e+06
6.09882e+06
6.09878e+06
6.09872e+06
6.09867e+06
6.09863e+06
6.09863e+06
6.09856e+06
6.09868e+06
6.09891e+06
6.099e+06
6.09899e+06
6.09899e+06
6.09901e+06
6.09902e+06
6.09903e+06
6.09904e+06
6.09906e+06
6.09908e+06
6.0991e+06
6.09913e+06
6.09915e+06
6.09918e+06
6.09921e+06
6.09924e+06
6.09927e+06
6.0993e+06
6.09934e+06
6.09937e+06
6.0994e+06
6.09944e+06
6.09947e+06
6.09943e+06
6.09928e+06
6.09894e+06
6.09884e+06
6.09877e+06
6.09876e+06
6.09869e+06
6.0988e+06
6.09903e+06
6.0991e+06
6.0991e+06
6.0991e+06
6.09911e+06
6.09912e+06
6.09913e+06
6.09914e+06
6.09916e+06
6.09917e+06
6.09919e+06
6.09921e+06
6.09923e+06
6.09926e+06
6.09928e+06
6.09931e+06
6.09934e+06
6.09937e+06
6.0994e+06
6.09943e+06
6.09946e+06
6.09949e+06
6.09952e+06
6.09923e+06
6.09938e+06
6.0994e+06
6.09927e+06
6.09889e+06
6.09883e+06
6.09878e+06
6.09889e+06
6.09913e+06
6.09921e+06
6.0992e+06
6.0992e+06
6.0992e+06
6.09921e+06
6.09922e+06
6.09923e+06
6.09924e+06
6.09926e+06
6.09928e+06
6.09929e+06
6.09931e+06
6.09933e+06
6.09936e+06
6.09938e+06
6.0994e+06
6.09943e+06
6.09946e+06
6.09948e+06
6.09951e+06
6.09954e+06
6.09956e+06
6.09937e+06
6.09954e+06
6.09958e+06
6.09942e+06
6.099e+06
6.09892e+06
6.09887e+06
6.09898e+06
6.09922e+06
6.09929e+06
6.09929e+06
6.09929e+06
6.09929e+06
6.0993e+06
6.09931e+06
6.09932e+06
6.09933e+06
6.09934e+06
6.09936e+06
6.09937e+06
6.09939e+06
6.09941e+06
6.09943e+06
6.09945e+06
6.09947e+06
6.09949e+06
6.09951e+06
6.09954e+06
6.09956e+06
6.09959e+06
6.09961e+06
6.09947e+06
6.09963e+06
6.09964e+06
6.09952e+06
6.09914e+06
6.09905e+06
6.09897e+06
6.09906e+06
6.09932e+06
6.09939e+06
6.09939e+06
6.09938e+06
6.09939e+06
6.09939e+06
6.0994e+06
6.09941e+06
6.09942e+06
6.09943e+06
6.09944e+06
6.09945e+06
6.09947e+06
6.09948e+06
6.0995e+06
6.09952e+06
6.09953e+06
6.09955e+06
6.09957e+06
6.09959e+06
6.09961e+06
6.09964e+06
6.09966e+06
6.09946e+06
6.0996e+06
6.09964e+06
6.09962e+06
6.09959e+06
6.09948e+06
6.09918e+06
6.0992e+06
6.09943e+06
6.09948e+06
6.09947e+06
6.09947e+06
6.09947e+06
6.09948e+06
6.09948e+06
6.09949e+06
6.0995e+06
6.09951e+06
6.09952e+06
6.09953e+06
6.09954e+06
6.09955e+06
6.09957e+06
6.09958e+06
6.0996e+06
6.09961e+06
6.09963e+06
6.09965e+06
6.09967e+06
6.09968e+06
6.0997e+06
6.09961e+06
6.09969e+06
6.09967e+06
6.09967e+06
6.09965e+06
6.09962e+06
6.09954e+06
6.09952e+06
6.09956e+06
6.09956e+06
6.09955e+06
6.09955e+06
6.09956e+06
6.09956e+06
6.09956e+06
6.09957e+06
6.09958e+06
6.09959e+06
6.09959e+06
6.0996e+06
6.09961e+06
6.09962e+06
6.09964e+06
6.09965e+06
6.09966e+06
6.09967e+06
6.09969e+06
6.0997e+06
6.09972e+06
6.09973e+06
6.09975e+06
6.09979e+06
6.09983e+06
6.09979e+06
6.09978e+06
6.09976e+06
6.09974e+06
6.09971e+06
6.09968e+06
6.09968e+06
6.09966e+06
6.09965e+06
6.09964e+06
6.09964e+06
6.09965e+06
6.09965e+06
6.09965e+06
6.09966e+06
6.09966e+06
6.09967e+06
6.09968e+06
6.09969e+06
6.09969e+06
6.0997e+06
6.09971e+06
6.09972e+06
6.09973e+06
6.09975e+06
6.09976e+06
6.09977e+06
6.09978e+06
6.09979e+06
6.09992e+06
6.09991e+06
6.09985e+06
6.09983e+06
6.09981e+06
6.09979e+06
6.09976e+06
6.09973e+06
6.09975e+06
6.09972e+06
6.09972e+06
6.09972e+06
6.09972e+06
6.09972e+06
6.09972e+06
6.09973e+06
6.09973e+06
6.09974e+06
6.09974e+06
6.09975e+06
6.09976e+06
6.09976e+06
6.09977e+06
6.09978e+06
6.09979e+06
6.09979e+06
6.0998e+06
6.09981e+06
6.09982e+06
6.09983e+06
6.09984e+06
6.09988e+06
6.09996e+06
6.09993e+06
6.09993e+06
6.09991e+06
6.09989e+06
6.09985e+06
6.09983e+06
6.09984e+06
6.09982e+06
6.09981e+06
6.09981e+06
6.09981e+06
6.09981e+06
6.09981e+06
6.09981e+06
6.09982e+06
6.09982e+06
6.09982e+06
6.09982e+06
6.09983e+06
6.09983e+06
6.09984e+06
6.09984e+06
6.09985e+06
6.09985e+06
6.09986e+06
6.09987e+06
6.09987e+06
6.09988e+06
6.09989e+06
6.09996e+06
6.1e+06
6.09997e+06
6.09995e+06
6.09994e+06
6.09992e+06
6.0999e+06
6.09987e+06
6.0999e+06
6.09988e+06
6.09987e+06
6.09987e+06
6.09987e+06
6.09988e+06
6.09988e+06
6.09988e+06
6.09988e+06
6.09989e+06
6.09989e+06
6.09989e+06
6.0999e+06
6.0999e+06
6.0999e+06
6.09991e+06
6.09991e+06
6.09991e+06
6.09992e+06
6.09992e+06
6.09992e+06
6.09993e+06
6.09993e+06
6.10006e+06
6.1e+06
6.09994e+06
6.09992e+06
6.09993e+06
6.09993e+06
6.09993e+06
6.09993e+06
6.09997e+06
6.09997e+06
6.09997e+06
6.09997e+06
6.09997e+06
6.09997e+06
6.09997e+06
6.09997e+06
6.09997e+06
6.09997e+06
6.09997e+06
6.09997e+06
6.09997e+06
6.09997e+06
6.09997e+06
6.09997e+06
6.09997e+06
6.09997e+06
6.09997e+06
6.09997e+06
6.09998e+06
6.09998e+06
6.09998e+06
4.00434e+06
4.00548e+06
4.00176e+06
4.00275e+06
4.00351e+06
4.0039e+06
4.00421e+06
4.0022e+06
4.0018e+06
4.00215e+06
4.00446e+06
4.0046e+06
4.00348e+06
4.00158e+06
4.00155e+06
4.00935e+06
4.00426e+06
4.00282e+06
4.00236e+06
4.00288e+06
4.00421e+06
4.00209e+06
4.00193e+06
4.00247e+06
4.00419e+06
4.00368e+06
4.00186e+06
4.00251e+06
4.00086e+06
4.00188e+06
4.00313e+06
4.00221e+06
4.00332e+06
4.00171e+06
4.00163e+06
4.00306e+06
4.00245e+06
4.00305e+06
4.01847e+06
4.00289e+06
4.00189e+06
4.00109e+06
4.00248e+06
4.08421e+06
4.04609e+06
4.0011e+06
4.00107e+06
4.00184e+06
4.01739e+06
4.0341e+06
3.99999e+06
4.00144e+06
4.00273e+06
4.0096e+06
4.05487e+06
4.00064e+06
4.00248e+06
4.00455e+06
4.00588e+06
4.02756e+06
3.99709e+06
4.00071e+06
4.00499e+06
4.00376e+06
4.04008e+06
4.00166e+06
4.00401e+06
4.01511e+06
4.00218e+06
4.00669e+06
4.23109e+06
4.34369e+06
4.19837e+06
4.02753e+06
4.00586e+06
4.32853e+06
4.76697e+06
4.76076e+06
4.69001e+06
4.68517e+06
4.47509e+06
4.47706e+06
4.35706e+06
4.26347e+06
3.8156e+06
5.73121e+06
5.67953e+06
5.73946e+06
5.70108e+06
5.57668e+06
5.89305e+06
5.97831e+06
6.0367e+06
6.05675e+06
6.07148e+06
6.07854e+06
6.08354e+06
6.08677e+06
6.08911e+06
6.09084e+06
6.09217e+06
6.0932e+06
6.09406e+06
6.09476e+06
6.09535e+06
6.09584e+06
6.09627e+06
6.09664e+06
6.09696e+06
6.09725e+06
6.09751e+06
6.09773e+06
6.09794e+06
6.09812e+06
6.09829e+06
6.09845e+06
5.7046e+06
5.78599e+06
5.82298e+06
5.85971e+06
5.91102e+06
6.01667e+06
6.03123e+06
6.0582e+06
6.06696e+06
6.07614e+06
6.08091e+06
6.0848e+06
6.08749e+06
6.08954e+06
6.09111e+06
6.09235e+06
6.09332e+06
6.09414e+06
6.09482e+06
6.09538e+06
6.09587e+06
6.09629e+06
6.09666e+06
6.09698e+06
6.09726e+06
6.09751e+06
6.09774e+06
6.09794e+06
6.09813e+06
6.0983e+06
6.09845e+06
5.99634e+06
5.98112e+06
5.989e+06
6.00028e+06
6.00767e+06
6.03752e+06
6.05017e+06
6.06472e+06
6.07233e+06
6.07894e+06
6.08287e+06
6.08602e+06
6.08831e+06
6.09009e+06
6.09149e+06
6.09261e+06
6.09351e+06
6.09428e+06
6.09492e+06
6.09546e+06
6.09593e+06
6.09634e+06
6.09669e+06
6.097e+06
6.09728e+06
6.09753e+06
6.09776e+06
6.09796e+06
6.09814e+06
6.0983e+06
6.09845e+06
6.04955e+06
6.03979e+06
6.04002e+06
6.04289e+06
6.05111e+06
6.06178e+06
6.06742e+06
6.07457e+06
6.07871e+06
6.08286e+06
6.08542e+06
6.08767e+06
6.08944e+06
6.09085e+06
6.09203e+06
6.093e+06
6.09379e+06
6.09449e+06
6.09508e+06
6.09558e+06
6.09602e+06
6.09641e+06
6.09675e+06
6.09705e+06
6.09732e+06
6.09756e+06
6.09778e+06
6.09798e+06
6.09816e+06
6.09832e+06
6.09847e+06
6.08515e+06
6.07291e+06
6.07218e+06
6.07078e+06
6.07262e+06
6.07518e+06
6.07769e+06
6.08083e+06
6.08328e+06
6.08587e+06
6.08756e+06
6.08915e+06
6.0905e+06
6.09162e+06
6.0926e+06
6.09342e+06
6.09411e+06
6.09473e+06
6.09526e+06
6.09573e+06
6.09614e+06
6.0965e+06
6.09682e+06
6.09711e+06
6.09737e+06
6.0976e+06
6.09781e+06
6.098e+06
6.09818e+06
6.09834e+06
6.09848e+06
6.08492e+06
6.08185e+06
6.07907e+06
6.07949e+06
6.08046e+06
6.0817e+06
6.08319e+06
6.08512e+06
6.08658e+06
6.08836e+06
6.08944e+06
6.09054e+06
6.09156e+06
6.0924e+06
6.0932e+06
6.09387e+06
6.09446e+06
6.095e+06
6.09547e+06
6.09589e+06
6.09627e+06
6.09661e+06
6.09691e+06
6.09718e+06
6.09742e+06
6.09765e+06
6.09785e+06
6.09804e+06
6.09821e+06
6.09836e+06
6.0985e+06
6.08718e+06
6.08724e+06
6.08855e+06
6.08774e+06
6.08716e+06
6.08702e+06
6.08748e+06
6.08851e+06
6.08922e+06
6.09041e+06
6.09103e+06
6.09175e+06
6.0925e+06
6.09313e+06
6.09377e+06
6.09432e+06
6.09481e+06
6.09528e+06
6.0957e+06
6.09607e+06
6.09642e+06
6.09672e+06
6.097e+06
6.09726e+06
6.09749e+06
6.0977e+06
6.0979e+06
6.09808e+06
6.09824e+06
6.09839e+06
6.09853e+06
6.08876e+06
6.08982e+06
6.09053e+06
6.09021e+06
6.08965e+06
6.08932e+06
6.08971e+06
6.0905e+06
6.09091e+06
6.09184e+06
6.09224e+06
6.09275e+06
6.09333e+06
6.0938e+06
6.09431e+06
6.09476e+06
6.09517e+06
6.09557e+06
6.09593e+06
6.09626e+06
6.09657e+06
6.09685e+06
6.09711e+06
6.09735e+06
6.09756e+06
6.09776e+06
6.09795e+06
6.09812e+06
6.09828e+06
6.09842e+06
6.09855e+06
6.09262e+06
6.09247e+06
6.09337e+06
6.09264e+06
6.09209e+06
6.09162e+06
6.09155e+06
6.09208e+06
6.09237e+06
6.09309e+06
6.09329e+06
6.09362e+06
6.09405e+06
6.09439e+06
6.09479e+06
6.09516e+06
6.0955e+06
6.09584e+06
6.09616e+06
6.09645e+06
6.09673e+06
6.09698e+06
6.09722e+06
6.09744e+06
6.09764e+06
6.09783e+06
6.09801e+06
6.09817e+06
6.09832e+06
6.09846e+06
6.09858e+06
6.09303e+06
6.09333e+06
6.09366e+06
6.09371e+06
6.09429e+06
6.09358e+06
6.09318e+06
6.09323e+06
6.0934e+06
6.09395e+06
6.09407e+06
6.09431e+06
6.09466e+06
6.09492e+06
6.09524e+06
6.09554e+06
6.09582e+06
6.09611e+06
6.09639e+06
6.09664e+06
6.09689e+06
6.09712e+06
6.09734e+06
6.09754e+06
6.09773e+06
6.0979e+06
6.09807e+06
6.09822e+06
6.09836e+06
6.09849e+06
6.09862e+06
6.09414e+06
6.09425e+06
6.09454e+06
6.09468e+06
6.09492e+06
6.09489e+06
6.09479e+06
6.0947e+06
6.09449e+06
6.09459e+06
6.09477e+06
6.09494e+06
6.09519e+06
6.0954e+06
6.09565e+06
6.09589e+06
6.09613e+06
6.09637e+06
6.09661e+06
6.09683e+06
6.09705e+06
6.09726e+06
6.09745e+06
6.09764e+06
6.09781e+06
6.09798e+06
6.09813e+06
6.09827e+06
6.09841e+06
6.09854e+06
6.09865e+06
6.09482e+06
6.09508e+06
6.09517e+06
6.09528e+06
6.09549e+06
6.0955e+06
6.09571e+06
6.0956e+06
6.09517e+06
6.09515e+06
6.0953e+06
6.09542e+06
6.09563e+06
6.09579e+06
6.096e+06
6.09621e+06
6.0964e+06
6.09661e+06
6.09682e+06
6.09701e+06
6.09721e+06
6.09739e+06
6.09757e+06
6.09774e+06
6.0979e+06
6.09805e+06
6.0982e+06
6.09833e+06
6.09846e+06
6.09858e+06
6.09869e+06
6.09574e+06
6.09562e+06
6.09585e+06
6.09587e+06
6.096e+06
6.09603e+06
6.09614e+06
6.09603e+06
6.09571e+06
6.09568e+06
6.09579e+06
6.09589e+06
6.09604e+06
6.09617e+06
6.09634e+06
6.0965e+06
6.09666e+06
6.09684e+06
6.09702e+06
6.09719e+06
6.09736e+06
6.09753e+06
6.09769e+06
6.09784e+06
6.09799e+06
6.09813e+06
6.09826e+06
6.09839e+06
6.09851e+06
6.09862e+06
6.09873e+06
6.09492e+06
6.09564e+06
6.09595e+06
6.09635e+06
6.09637e+06
6.09647e+06
6.09653e+06
6.09643e+06
6.09609e+06
6.09604e+06
6.09615e+06
6.09623e+06
6.09637e+06
6.09648e+06
6.09662e+06
6.09676e+06
6.0969e+06
6.09705e+06
6.09721e+06
6.09736e+06
6.09751e+06
6.09766e+06
6.0978e+06
6.09794e+06
6.09808e+06
6.09821e+06
6.09833e+06
6.09845e+06
6.09856e+06
6.09867e+06
6.09877e+06
6.09546e+06
6.09591e+06
6.09585e+06
6.09634e+06
6.09671e+06
6.09696e+06
6.09697e+06
6.09688e+06
6.09651e+06
6.09645e+06
6.09652e+06
6.09658e+06
6.09668e+06
6.09677e+06
6.09689e+06
6.09701e+06
6.09712e+06
6.09726e+06
6.09739e+06
6.09752e+06
6.09765e+06
6.09779e+06
6.09792e+06
6.09804e+06
6.09817e+06
6.09829e+06
6.0984e+06
6.09851e+06
6.09862e+06
6.09872e+06
6.09882e+06
6.09577e+06
6.09633e+06
6.09614e+06
6.09662e+06
6.09705e+06
6.09728e+06
6.09726e+06
6.09717e+06
6.0968e+06
6.09673e+06
6.09681e+06
6.09687e+06
6.09697e+06
6.09704e+06
6.09714e+06
6.09723e+06
6.09733e+06
6.09744e+06
6.09756e+06
6.09767e+06
6.09779e+06
6.09791e+06
6.09803e+06
6.09814e+06
6.09826e+06
6.09837e+06
6.09847e+06
6.09858e+06
6.09868e+06
6.09877e+06
6.09886e+06
6.09634e+06
6.09668e+06
6.09652e+06
6.09694e+06
6.09732e+06
6.09757e+06
6.09759e+06
6.0975e+06
6.09711e+06
6.09703e+06
6.09708e+06
6.09711e+06
6.09719e+06
6.09725e+06
6.09734e+06
6.09742e+06
6.09751e+06
6.09761e+06
6.09771e+06
6.09782e+06
6.09792e+06
6.09803e+06
6.09814e+06
6.09824e+06
6.09834e+06
6.09844e+06
6.09854e+06
6.09864e+06
6.09873e+06
6.09882e+06
6.09891e+06
6.09678e+06
6.09694e+06
6.09701e+06
6.09715e+06
6.09718e+06
6.09739e+06
6.09772e+06
6.0977e+06
6.09732e+06
6.09725e+06
6.09731e+06
6.09735e+06
6.09743e+06
6.09747e+06
6.09755e+06
6.09762e+06
6.09769e+06
6.09778e+06
6.09787e+06
6.09796e+06
6.09805e+06
6.09815e+06
6.09824e+06
6.09834e+06
6.09843e+06
6.09852e+06
6.09861e+06
6.0987e+06
6.09879e+06
6.09887e+06
6.09895e+06
6.09712e+06
6.0972e+06
6.09726e+06
6.0974e+06
6.09742e+06
6.09756e+06
6.09762e+06
6.09763e+06
6.09753e+06
6.0975e+06
6.09755e+06
6.09757e+06
6.09763e+06
6.09767e+06
6.09773e+06
6.09779e+06
6.09786e+06
6.09793e+06
6.09801e+06
6.09809e+06
6.09817e+06
6.09826e+06
6.09834e+06
6.09843e+06
6.09851e+06
6.0986e+06
6.09868e+06
6.09877e+06
6.09885e+06
6.09892e+06
6.099e+06
6.0975e+06
6.09753e+06
6.09756e+06
6.09764e+06
6.09768e+06
6.09777e+06
6.09777e+06
6.09777e+06
6.09769e+06
6.09767e+06
6.09773e+06
6.09775e+06
6.09781e+06
6.09785e+06
6.0979e+06
6.09795e+06
6.09801e+06
6.09808e+06
6.09814e+06
6.09822e+06
6.09829e+06
6.09836e+06
6.09844e+06
6.09852e+06
6.0986e+06
6.09868e+06
6.09875e+06
6.09883e+06
6.0989e+06
6.09897e+06
6.09904e+06
6.09755e+06
6.09767e+06
6.09783e+06
6.0979e+06
6.0979e+06
6.09798e+06
6.09799e+06
6.09798e+06
6.0979e+06
6.09788e+06
6.09792e+06
6.09794e+06
6.09798e+06
6.09802e+06
6.09806e+06
6.09811e+06
6.09816e+06
6.09821e+06
6.09827e+06
6.09834e+06
6.0984e+06
6.09847e+06
6.09854e+06
6.09861e+06
6.09868e+06
6.09875e+06
6.09882e+06
6.09889e+06
6.09896e+06
6.09903e+06
6.09909e+06
6.09623e+06
6.09719e+06
6.09782e+06
6.09807e+06
6.09807e+06
6.09817e+06
6.09817e+06
6.09816e+06
6.09807e+06
6.09804e+06
6.09808e+06
6.0981e+06
6.09814e+06
6.09817e+06
6.0982e+06
6.09825e+06
6.09829e+06
6.09834e+06
6.09839e+06
6.09845e+06
6.09851e+06
6.09857e+06
6.09863e+06
6.09869e+06
6.09876e+06
6.09882e+06
6.09889e+06
6.09895e+06
6.09902e+06
6.09908e+06
6.09914e+06
6.09722e+06
6.09737e+06
6.09729e+06
6.0977e+06
6.09814e+06
6.0984e+06
6.09835e+06
6.09834e+06
6.09824e+06
6.09821e+06
6.09824e+06
6.09825e+06
6.09829e+06
6.09831e+06
6.09834e+06
6.09838e+06
6.09842e+06
6.09846e+06
6.09851e+06
6.09856e+06
6.09861e+06
6.09866e+06
6.09872e+06
6.09878e+06
6.09884e+06
6.0989e+06
6.09895e+06
6.09901e+06
6.09907e+06
6.09913e+06
6.09919e+06
6.09739e+06
6.09757e+06
6.09741e+06
6.09784e+06
6.09837e+06
6.09862e+06
6.09852e+06
6.09849e+06
6.09839e+06
6.09835e+06
6.09838e+06
6.09839e+06
6.09843e+06
6.09845e+06
6.09848e+06
6.09851e+06
6.09854e+06
6.09858e+06
6.09862e+06
6.09866e+06
6.09871e+06
6.09876e+06
6.09881e+06
6.09886e+06
6.09891e+06
6.09897e+06
6.09902e+06
6.09907e+06
6.09913e+06
6.09918e+06
6.09923e+06
6.09762e+06
6.09776e+06
6.09764e+06
6.09802e+06
6.09845e+06
6.0987e+06
6.09869e+06
6.09867e+06
6.09855e+06
6.0985e+06
6.09852e+06
6.09852e+06
6.09855e+06
6.09857e+06
6.09859e+06
6.09862e+06
6.09865e+06
6.09868e+06
6.09872e+06
6.09876e+06
6.0988e+06
6.09885e+06
6.09889e+06
6.09894e+06
6.09899e+06
6.09904e+06
6.09909e+06
6.09913e+06
6.09918e+06
6.09923e+06
6.09928e+06
6.09807e+06
6.09817e+06
6.0982e+06
6.09821e+06
6.09812e+06
6.09835e+06
6.09866e+06
6.09875e+06
6.09865e+06
6.09861e+06
6.09864e+06
6.09865e+06
6.09867e+06
6.09869e+06
6.09871e+06
6.09873e+06
6.09876e+06
6.09879e+06
6.09882e+06
6.09886e+06
6.09889e+06
6.09893e+06
6.09897e+06
6.09902e+06
6.09906e+06
6.0991e+06
6.09915e+06
6.09919e+06
6.09924e+06
6.09928e+06
6.09933e+06
6.09849e+06
6.09842e+06
6.09838e+06
6.09836e+06
6.09828e+06
6.09834e+06
6.09837e+06
6.0985e+06
6.09871e+06
6.09877e+06
6.09877e+06
6.09877e+06
6.09879e+06
6.0988e+06
6.09882e+06
6.09884e+06
6.09887e+06
6.09889e+06
6.09892e+06
6.09895e+06
6.09898e+06
6.09902e+06
6.09905e+06
6.09909e+06
6.09913e+06
6.09917e+06
6.09921e+06
6.09925e+06
6.09929e+06
6.09934e+06
6.09938e+06
6.09872e+06
6.09865e+06
6.0986e+06
6.09855e+06
6.0985e+06
6.0985e+06
6.09841e+06
6.09853e+06
6.09879e+06
6.09888e+06
6.09888e+06
6.09888e+06
6.0989e+06
6.09891e+06
6.09893e+06
6.09895e+06
6.09897e+06
6.09899e+06
6.09901e+06
6.09904e+06
6.09907e+06
6.0991e+06
6.09913e+06
6.09917e+06
6.0992e+06
6.09924e+06
6.09927e+06
6.09931e+06
6.09935e+06
6.09939e+06
6.09942e+06
6.09882e+06
6.09878e+06
6.09872e+06
6.09867e+06
6.09863e+06
6.09863e+06
6.09856e+06
6.09868e+06
6.09891e+06
6.099e+06
6.09899e+06
6.09899e+06
6.09901e+06
6.09902e+06
6.09903e+06
6.09904e+06
6.09906e+06
6.09908e+06
6.0991e+06
6.09913e+06
6.09915e+06
6.09918e+06
6.09921e+06
6.09924e+06
6.09927e+06
6.0993e+06
6.09934e+06
6.09937e+06
6.0994e+06
6.09944e+06
6.09947e+06
6.09943e+06
6.09928e+06
6.09894e+06
6.09884e+06
6.09877e+06
6.09876e+06
6.09869e+06
6.0988e+06
6.09903e+06
6.0991e+06
6.0991e+06
6.0991e+06
6.09911e+06
6.09912e+06
6.09913e+06
6.09914e+06
6.09916e+06
6.09917e+06
6.09919e+06
6.09921e+06
6.09923e+06
6.09926e+06
6.09928e+06
6.09931e+06
6.09934e+06
6.09937e+06
6.0994e+06
6.09943e+06
6.09946e+06
6.09949e+06
6.09952e+06
6.09923e+06
6.09938e+06
6.0994e+06
6.09927e+06
6.09889e+06
6.09883e+06
6.09878e+06
6.09889e+06
6.09913e+06
6.09921e+06
6.0992e+06
6.0992e+06
6.0992e+06
6.09921e+06
6.09922e+06
6.09923e+06
6.09924e+06
6.09926e+06
6.09928e+06
6.09929e+06
6.09931e+06
6.09933e+06
6.09936e+06
6.09938e+06
6.0994e+06
6.09943e+06
6.09946e+06
6.09948e+06
6.09951e+06
6.09954e+06
6.09956e+06
6.09937e+06
6.09954e+06
6.09958e+06
6.09942e+06
6.099e+06
6.09892e+06
6.09887e+06
6.09898e+06
6.09922e+06
6.09929e+06
6.09929e+06
6.09929e+06
6.09929e+06
6.0993e+06
6.09931e+06
6.09932e+06
6.09933e+06
6.09934e+06
6.09936e+06
6.09937e+06
6.09939e+06
6.09941e+06
6.09943e+06
6.09945e+06
6.09947e+06
6.09949e+06
6.09951e+06
6.09954e+06
6.09956e+06
6.09959e+06
6.09961e+06
6.09947e+06
6.09963e+06
6.09964e+06
6.09952e+06
6.09914e+06
6.09905e+06
6.09897e+06
6.09906e+06
6.09932e+06
6.09939e+06
6.09939e+06
6.09938e+06
6.09939e+06
6.09939e+06
6.0994e+06
6.09941e+06
6.09942e+06
6.09943e+06
6.09944e+06
6.09945e+06
6.09947e+06
6.09948e+06
6.0995e+06
6.09952e+06
6.09953e+06
6.09955e+06
6.09957e+06
6.09959e+06
6.09961e+06
6.09964e+06
6.09966e+06
6.09946e+06
6.0996e+06
6.09964e+06
6.09962e+06
6.09959e+06
6.09948e+06
6.09918e+06
6.0992e+06
6.09943e+06
6.09948e+06
6.09947e+06
6.09947e+06
6.09947e+06
6.09948e+06
6.09948e+06
6.09949e+06