/*--------------------------------*- C++ -*----------------------------------*\
| =========                 |                                                 |
| \\      /  F ield         | OpenFOAM: The Open Source CFD Toolbox           |
|  \\    /   O peration     | Version:  v2012                                 |
|   \\  /    A nd           | Website:  www.openfoam.com                      |
|    \\/     M anipulation  |                                                 |
\*---------------------------------------------------------------------------*/
FoamFile
{
    version     2.0;
    format      ascii;
    class       volScalarField;
    location    "0.45";
    object      alpha.water;
}
// * * * * * * * * * * * * * * * * * * * * * * * * * * * * * * * * * * * * * //

dimensions      [0 0 0 0 0 0 0];


internalField   nonuniform List<scalar> 
3326
(
5.28477e-105
1.34122e-102
4.18545e-100
1.6576e-97
8.67053e-95
6.3271e-92
6.60736e-90
5.33312e-82
3.58587e-80
1.38114e-109
2.47353e-107
5.23017e-105
1.17794e-102
3.01173e-100
9.47701e-98
3.78454e-95
1.9961e-92
1.46874e-89
1.98409e-87
1.26884e-79
8.19904e-78
6.7522e-06
1.98852e-07
1.82203e-10
9.40557e-16
6.14176e-24
7.06e-33
2.90949e-40
2.12014e-46
1.10172e-52
2.95972e-62
1.56583e-64
6.29002e-67
2.27638e-69
5.35443e-72
5.31775e-75
6.59842e-78
3.11062e-81
3.19885e-85
7.00443e-89
2.69491e-94
1.08999e-98
1.81165e-104
1.27184e-115
7.65555e-121
1.44046e-120
6.18182e-121
5.64466e-121
1.28087e-119
1.13219e-117
1.09987e-115
1.1849e-113
1.42791e-111
1.9447e-109
3.06272e-107
5.541e-105
1.08074e-102
2.32025e-100
5.98546e-98
1.90082e-95
7.66082e-93
4.07801e-90
3.02851e-87
6.08956e-85
2.68949e-77
1.6686e-75
1.55698e-05
2.48115e-07
2.15258e-10
1.35552e-15
9.32899e-24
1.09174e-32
4.44616e-40
3.65729e-46
1.88995e-52
5.10651e-62
2.84656e-64
1.17582e-66
4.20663e-69
1.05617e-71
1.13816e-74
1.57967e-77
8.17774e-81
7.56148e-85
1.70898e-88
9.8203e-94
5.71583e-98
1.8924e-103
3.76085e-114
2.97294e-119
7.32914e-119
1.10349e-120
2.90806e-119
2.34994e-117
2.10153e-115
2.06524e-113
2.24957e-111
2.73973e-109
3.77102e-107
5.93983e-105
1.00409e-102
1.84818e-100
4.00683e-98
1.0441e-95
3.34942e-93
1.36365e-90
7.33331e-88
4.04904e-85
1.97301e-82
5.03983e-75
2.99893e-73
5.43913e-05
3.28244e-07
2.47679e-10
1.82922e-15
1.42679e-23
1.70309e-32
6.79638e-40
6.36442e-46
3.38332e-52
8.92388e-62
5.24467e-64
2.27485e-66
8.06793e-69
2.10711e-71
2.49418e-74
3.82413e-77
2.07222e-80
2.08377e-84
4.63391e-88
3.89469e-93
4.10185e-97
1.40086e-102
2.75791e-113
2.95861e-117
1.13051e-116
7.29868e-119
4.52383e-117
3.7481e-115
3.3883e-113
3.36468e-111
3.70221e-109
4.55632e-107
6.33999e-105
9.19535e-103
1.47556e-100
2.74515e-98
6.01734e-96
1.58535e-93
5.1422e-91
2.11694e-88
1.15126e-85
4.27994e-83
5.09246e-80
8.2812e-73
4.72076e-71
0.000182352
5.97877e-07
2.76187e-10
2.3274e-15
2.19382e-23
2.67767e-32
1.04283e-39
1.10691e-45
6.26052e-52
1.57538e-61
9.72569e-64
4.50634e-66
1.6162e-68
4.28481e-71
5.56672e-74
9.21576e-77
5.06551e-80
6.91406e-84
1.71209e-87
1.75467e-92
2.84932e-96
9.12161e-102
7.48702e-114
1.72113e-115
1.26915e-114
1.07357e-116
6.16123e-115
5.1654e-113
4.72286e-111
4.74277e-109
5.28023e-107
6.42975e-105
8.08679e-103
1.14833e-100
1.86457e-98
3.51064e-96
7.78776e-94
2.07651e-91
6.81691e-89
2.84069e-86
1.56395e-83
6.15208e-81
7.09892e-78
1.18289e-70
6.45182e-69
0.000508747
1.44109e-06
2.99563e-10
2.79212e-15
3.3875e-23
4.2403e-32
1.61534e-39
1.90924e-45
1.17841e-51
2.80307e-61
1.80526e-63
9.0135e-66
3.37444e-68
8.96737e-71
1.26189e-73
2.21981e-76
1.24659e-79
2.45002e-83
7.83145e-87
8.68312e-92
1.65226e-95
1.04958e-100
1.40396e-111
9.02334e-114
1.04197e-112
1.0526e-113
7.16893e-113
6.09388e-111
5.64317e-109
5.68489e-107
5.84866e-105
6.65842e-103
8.47981e-101
1.21995e-98
2.0067e-96
3.82738e-94
8.60088e-92
2.32331e-89
7.72768e-87
3.26316e-84
1.82082e-81
7.25743e-79
8.49248e-76
1.45543e-68
7.58476e-67
0.00117421
3.33429e-06
3.22362e-10
3.14462e-15
5.25016e-23
6.76107e-32
2.54586e-39
3.24988e-45
2.21648e-51
5.02113e-61
3.34675e-63
1.79849e-65
7.26042e-68
1.94808e-70
2.91276e-73
5.48382e-76
3.30281e-79
8.12476e-83
3.24482e-86
4.48554e-91
1.05725e-94
1.62169e-99
2.79378e-109
1.49868e-111
6.77941e-111
1.07959e-112
7.08961e-111
5.80975e-109
5.05898e-107
4.80148e-105
5.00816e-103
5.78346e-101
7.47018e-99
1.08984e-96
1.81785e-94
3.51579e-92
8.01183e-90
2.19485e-87
7.40495e-85
3.17226e-82
1.7962e-79
-1.65116e-76
8.62982e-74
1.52767e-66
7.59465e-65
0.00229805
6.90341e-06
3.70582e-10
3.32676e-15
8.16809e-23
1.08548e-31
4.12041e-39
5.45202e-45
4.10485e-51
9.06132e-61
6.21258e-63
3.55951e-65
1.5846e-67
4.40911e-70
6.90555e-73
1.4428e-75
9.8983e-79
2.49801e-82
1.13264e-85
2.50508e-90
1.10298e-93
1.27014e-98
5.89251e-107
2.86859e-109
5.40423e-109
7.82714e-111
5.40008e-109
3.95423e-107
3.49275e-105
3.36715e-103
3.56661e-101
4.18188e-99
5.48357e-97
8.12095e-95
1.37499e-92
2.69944e-90
6.24495e-88
1.73704e-85
5.95135e-83
2.58975e-80
1.48991e-77
-9.68614e-75
7.37371e-72
1.3539e-64
6.40936e-63
0.0039487
1.29753e-05
6.9239e-10
3.37017e-15
1.27643e-22
1.75529e-31
6.90623e-39
9.04092e-45
7.42199e-51
1.65238e-60
1.164e-62
7.01282e-65
3.46518e-67
1.03619e-69
1.70258e-72
4.14434e-75
3.28038e-78
7.93627e-82
4.02404e-85
1.68355e-89
1.27921e-92
5.88675e-98
1.32057e-104
4.09414e-107
3.25189e-107
1.39817e-107
3.97002e-107
2.20967e-105
1.97593e-103
1.9366e-101
2.08514e-99
2.48478e-97
3.3111e-95
4.98296e-93
8.5734e-91
1.71053e-88
4.02198e-86
1.13725e-83
3.96187e-81
1.75352e-78
1.02643e-75
-3.07108e-74
1.44531e-69
1.0021e-62
4.50794e-61
0.00614986
2.2583e-05
2.74028e-09
3.1594e-15
2.0056e-22
2.86049e-31
1.20363e-38
1.49391e-44
1.3094e-50
3.06134e-60
2.23009e-62
1.39462e-64
7.57717e-67
2.50819e-69
4.41437e-72
1.28155e-74
1.11524e-77
3.06061e-81
2.00024e-84
1.4069e-88
1.00706e-91
5.82749e-97
3.16353e-102
3.2402e-105
2.98712e-105
9.38177e-105
2.20588e-105
9.97302e-104
9.03812e-102
9.01456e-100
9.87616e-98
1.1974e-95
1.62326e-93
2.48523e-91
4.35024e-89
8.83115e-87
2.11313e-84
6.08187e-82
2.15729e-79
9.72517e-77
5.80062e-74
1.65211e-71
2.55425e-67
6.12238e-61
2.61054e-59
0.00887776
3.68051e-05
9.33098e-09
2.51641e-15
3.17233e-22
4.70118e-31
2.17265e-38
2.4943e-44
2.27283e-50
5.80429e-60
4.43727e-62
2.8644e-64
1.67614e-66
6.21568e-69
1.20904e-71
4.09628e-74
3.75241e-77
1.49403e-80
1.39837e-83
1.33451e-87
6.80483e-91
2.17919e-95
8.12454e-100
1.15745e-103
7.03273e-104
3.91074e-103
9.96972e-104
3.62667e-102
3.3301e-100
3.38356e-98
3.77606e-96
4.66313e-94
6.4388e-92
1.00409e-89
1.79038e-87
3.70286e-85
9.02873e-83
2.64875e-80
9.58004e-78
4.4055e-75
2.68122e-72
1.06454e-69
9.54563e-65
3.04898e-59
1.22844e-57
0.0120272
5.62935e-05
2.17619e-08
2.08492e-15
5.05721e-22
7.79874e-31
4.01092e-38
4.29253e-44
3.95428e-50
1.13481e-59
9.28493e-62
6.23523e-64
3.84216e-66
1.58261e-68
3.49029e-71
1.33035e-73
1.31328e-76
7.71774e-80
8.85619e-83
1.39359e-86
8.6037e-90
1.40926e-94
2.24372e-97
2.09009e-101
7.187e-103
1.2927e-101
3.62423e-102
1.45929e-100
1.37021e-98
1.42e-96
1.61619e-94
2.03545e-92
2.86634e-90
4.55896e-88
8.29219e-86
1.74975e-83
4.35406e-81
1.30402e-78
4.81687e-76
2.2634e-73
1.40838e-70
6.02985e-68
1.17416e-61
1.22072e-57
4.6297e-56
0.0153737
8.04443e-05
4.01684e-08
1.96934e-15
8.1331e-22
1.30722e-30
7.44009e-38
7.78795e-44
7.10416e-50
2.30068e-59
2.04844e-61
1.46151e-63
9.39429e-66
4.21077e-68
1.0615e-70
4.56628e-73
5.32917e-76
3.75963e-79
4.55127e-82
1.67012e-85
1.40641e-88
2.56239e-92
6.6926e-95
1.00317e-98
3.34871e-101
1.05342e-99
1.46053e-100
4.51692e-99
4.29772e-97
4.548e-95
5.28595e-93
6.79812e-91
9.77638e-89
1.58813e-86
2.95074e-84
6.36183e-82
1.618e-79
4.95468e-77
1.87219e-74
9.00428e-72
5.73857e-69
2.56405e-66
8.48005e-60
3.87132e-56
1.37496e-54
0.0185527
0.000105784
6.2445e-08
2.27005e-15
1.32036e-21
2.21698e-30
1.36439e-37
1.51328e-43
1.36825e-49
4.84289e-59
4.71648e-61
3.66274e-63
2.49701e-65
1.20305e-67
3.44924e-70
1.7935e-72
2.69513e-75
2.03299e-78
2.71242e-81
2.19671e-84
7.40487e-88
4.05991e-90
2.16551e-92
5.42225e-96
1.11102e-98
5.66451e-98
4.52636e-99
1.0493e-97
1.00958e-95
1.09241e-93
1.29835e-91
1.70758e-89
2.51152e-87
4.17326e-85
7.93315e-83
1.75043e-80
4.55771e-78
1.4295e-75
5.53552e-73
2.73011e-70
1.78566e-67
8.26232e-65
3.63462e-58
9.56451e-55
3.15874e-53
0.0209994
0.000124387
8.16823e-08
1.38534e-14
2.16469e-21
3.81118e-30
2.45226e-37
3.13459e-43
2.90701e-49
1.05489e-58
1.11511e-60
9.5655e-63
7.19259e-65
3.79622e-67
1.24291e-69
8.48894e-72
1.59936e-74
1.74823e-77
3.48972e-80
2.96026e-83
3.99403e-86
6.93005e-88
6.62757e-90
3.23258e-93
3.88653e-96
3.84801e-96
1.46869e-95
1.01394e-95
1.84638e-94
1.95518e-92
2.37894e-90
3.20465e-88
4.82841e-86
8.22046e-84
1.60152e-81
3.62279e-79
9.6747e-77
3.11382e-74
1.2381e-71
6.2747e-69
3.69629e-66
2.0241e-63
1.08294e-56
1.80645e-53
5.49118e-52
0.0220671
0.000131148
9.17511e-08
1.29621e-13
3.58576e-21
6.65832e-30
4.33494e-37
6.72451e-43
6.75849e-49
2.36623e-58
2.68436e-60
2.55609e-62
2.214e-64
1.35233e-66
5.26798e-69
4.70719e-71
1.01888e-73
2.03089e-76
3.53932e-79
2.12387e-82
5.80684e-84
1.28129e-85
1.62351e-87
2.1394e-90
5.59452e-95
5.5948e-95
3.36116e-94
1.85584e-94
2.42328e-93
2.57246e-91
3.21038e-89
4.4372e-87
6.8607e-85
1.19895e-82
2.39834e-80
5.57268e-78
1.52936e-75
5.0614e-73
2.07085e-70
1.08086e-67
-8.81797e-66
3.72124e-62
2.33014e-55
2.54917e-52
7.02492e-51
0.0219393
0.000124814
9.3673e-08
4.84801e-13
6.00876e-21
1.1865e-29
7.6819e-37
1.44022e-42
1.63576e-48
5.4634e-58
6.65809e-60
7.11894e-62
7.37198e-64
5.59608e-66
2.81843e-68
2.96116e-70
7.56137e-73
1.61905e-75
9.71268e-79
2.44754e-80
9.3248e-82
2.58452e-83
4.33719e-85
1.58532e-87
4.46439e-94
4.48918e-94
4.3289e-93
2.43695e-93
2.41118e-92
2.5615e-90
3.28481e-88
4.66708e-86
7.41974e-84
1.33361e-81
2.74477e-79
6.56472e-77
1.85548e-74
6.32847e-72
2.67058e-69
6.58293e-67
5.26974e-64
5.29358e-61
3.82504e-54
2.62008e-51
6.30272e-50
0.0204301
0.00010717
8.4992e-08
8.3354e-13
1.02156e-20
2.16746e-29
1.41569e-36
3.01919e-42
3.91088e-48
1.31055e-57
1.76832e-59
2.22549e-61
2.87154e-63
2.89252e-65
2.05674e-67
2.26557e-69
8.44347e-72
1.26881e-74
7.75775e-77
3.53562e-78
1.64116e-79
5.71729e-81
1.27078e-82
1.24924e-84
7.4897e-93
5.34985e-93
4.24002e-92
2.42592e-92
1.68089e-91
1.7518e-89
2.31264e-87
3.38477e-85
5.54468e-83
1.02722e-80
2.18005e-78
5.37921e-76
1.56951e-73
5.53012e-71
2.41301e-68
4.89375e-66
5.08845e-63
5.33259e-60
4.38723e-53
1.69907e-50
3.2587e-49
0.0176508
8.35492e-05
6.8052e-08
9.27767e-13
1.77188e-20
4.08615e-29
2.84848e-36
6.2795e-42
9.13809e-48
3.32909e-57
5.34091e-59
8.91959e-61
1.54183e-62
2.16694e-64
2.24603e-66
2.37206e-68
1.01766e-70
1.86819e-73
1.03331e-74
5.64056e-76
3.18022e-77
1.39504e-78
4.12009e-80
5.94814e-82
5.46967e-90
1.86733e-91
2.61519e-91
1.69202e-91
8.09765e-91
8.06462e-89
1.09819e-86
1.65952e-84
2.80773e-82
5.37446e-80
1.17904e-77
3.00897e-75
9.08651e-73
3.31635e-70
1.50043e-67
4.44204e-65
3.42212e-62
3.72473e-59
3.48569e-52
4.96529e-50
5.56183e-49
0.0141009
5.9889e-05
5.03721e-08
6.7845e-13
3.16398e-20
8.01838e-29
6.46322e-36
1.36685e-41
2.1943e-47
9.12725e-57
1.94756e-58
5.3618e-60
1.41698e-61
2.91617e-63
4.2362e-65
3.14798e-67
5.09735e-70
2.2512e-71
1.54075e-72
9.95832e-74
6.82755e-75
3.77884e-76
1.48829e-77
3.14554e-79
1.59463e-86
3.12273e-91
3.07221e-91
3.24029e-91
2.2969e-90
2.55914e-88
3.60878e-86
5.64482e-84
9.88945e-82
1.96112e-79
4.45949e-77
1.18045e-74
3.70029e-72
1.4032e-69
5.31576e-67
2.03497e-64
1.63821e-61
1.86292e-58
1.94942e-51
9.99228e-50
5.73966e-49
0.0105086
4.05314e-05
3.54871e-08
2.32837e-13
5.89002e-20
1.65601e-28
1.6139e-35
3.39111e-41
6.03925e-47
2.69882e-56
8.99569e-58
5.74413e-59
2.85076e-60
9.31301e-62
1.85702e-63
3.85735e-66
5.17195e-68
3.21549e-69
2.55816e-70
1.95874e-71
1.63523e-72
1.14448e-73
6.03468e-75
1.88052e-76
6.02589e-83
4.55463e-91
3.24256e-91
1.14356e-90
1.01336e-88
1.34653e-86
1.97378e-84
3.20735e-82
5.84089e-80
1.20472e-77
2.85128e-75
7.86135e-73
2.56897e-70
1.01662e-67
2.55883e-65
1.61274e-62
1.36068e-59
5.65359e-53
1.00637e-50
1.74817e-49
4.11261e-49
0.00756189
2.68332e-05
2.47898e-08
9.05749e-14
1.1601e-19
3.65382e-28
4.16132e-35
1.01967e-40
2.1185e-46
8.34267e-56
5.2379e-57
7.2829e-58
6.92179e-59
4.5659e-60
1.98028e-61
4.52606e-63
8.29064e-66
5.13521e-67
4.74813e-68
4.31336e-69
4.403e-70
3.90657e-71
2.76985e-72
1.28374e-73
2.89438e-79
3.30214e-89
1.14613e-90
3.29744e-89
4.08511e-87
5.66678e-85
8.65034e-83
1.46448e-80
2.77994e-78
5.98013e-76
1.47712e-73
4.25364e-71
1.45315e-68
5.42047e-66
1.5859e-63
1.04909e-60
1.84652e-54
9.63995e-52
3.32124e-50
1.79798e-49
1.08335e-49
0.00539697
1.8093e-05
1.81098e-08
7.02431e-14
2.45352e-19
8.8087e-28
1.0844e-34
3.54542e-40
9.04582e-46
2.61607e-55
2.94698e-56
7.37012e-57
1.3049e-57
1.78548e-58
1.83451e-59
1.37956e-60
6.47311e-62
1.4918e-64
1.12288e-65
1.08439e-66
1.3421e-67
1.51449e-68
1.45169e-69
1.01087e-70
1.48092e-75
6.77056e-83
3.31714e-89
6.45003e-88
8.20176e-86
1.18853e-83
1.89642e-81
3.35763e-79
6.66926e-77
1.50217e-74
3.8878e-72
1.17408e-69
4.2105e-67
9.38553e-65
5.08418e-62
3.54929e-59
8.64782e-53
5.35168e-51
6.41979e-50
1.77488e-49
5.0713e-51
0.00393696
1.29895e-05
1.47574e-08
1.39136e-13
5.65457e-19
2.40827e-27
3.09366e-34
1.30342e-39
4.04939e-45
8.59858e-55
1.40743e-55
5.33973e-56
1.60195e-56
4.07685e-57
8.62635e-58
1.52205e-58
2.22019e-59
2.57422e-60
2.05081e-61
4.38667e-63
7.48667e-65
8.15345e-66
9.48568e-67
9.68077e-68
5.59598e-72
1.83263e-74
1.80421e-80
1.67206e-81
1.15586e-83
1.08503e-81
1.80996e-79
3.36619e-77
7.02824e-75
1.66516e-72
4.53687e-70
1.44368e-67
5.46149e-65
1.28477e-62
7.36318e-60
1.02385e-53
9.06335e-52
1.76967e-50
9.74023e-50
1.71796e-49
2.06338e-53
0.00301068
1.03773e-05
1.37234e-08
3.33649e-13
1.45177e-18
7.95448e-27
1.15106e-33
5.29958e-39
1.95406e-44
3.48011e-54
5.9323e-55
2.88124e-55
1.27277e-55
5.16931e-56
1.89673e-56
6.27691e-57
1.87546e-57
5.06312e-58
1.23288e-58
2.68927e-59
5.17131e-60
8.54365e-61
1.16086e-61
1.03304e-62
9.93231e-65
3.18884e-66
1.59308e-67
2.88398e-68
1.16151e-68
4.44224e-69
1.65395e-69
5.21886e-70
1.66327e-72
4.16347e-70
1.20018e-67
4.04565e-65
1.62163e-62
4.05115e-60
3.67894e-54
2.35263e-52
5.12182e-51
4.09234e-50
1.2191e-49
1.65732e-49
3.94931e-57
0.00245981
9.368e-06
1.37006e-08
7.60695e-13
4.34117e-18
3.51475e-26
6.12497e-33
3.01224e-38
1.39462e-43
2.26932e-53
2.6793e-54
1.3798e-54
7.54821e-55
4.11058e-55
2.17856e-55
1.11054e-55
5.42205e-56
2.53381e-56
1.13541e-56
4.9007e-57
2.05641e-57
8.57051e-58
3.71693e-58
1.79719e-58
1.02474e-58
7.23011e-59
6.31828e-59
6.13312e-59
6.81196e-59
8.09757e-59
1.09269e-58
1.67235e-58
3.04947e-58
7.15221e-58
2.53103e-57
1.71778e-56
2.55568e-55
6.01057e-54
1.33532e-52
1.98785e-51
1.61926e-50
6.66726e-50
1.52914e-49
2.19023e-49
9.28175e-62
0.513877
0.0828337
0.00217167
9.15946e-06
1.70431e-08
2.01558e-12
1.62931e-17
2.39359e-25
3.8655e-32
2.67444e-37
1.66077e-42
2.3633e-52
1.8043e-53
8.3622e-54
4.62064e-54
2.76684e-54
1.73896e-54
1.11782e-54
7.25039e-55
4.71131e-55
3.05701e-55
1.98068e-55
1.28543e-55
8.42202e-56
5.65871e-56
3.98923e-56
3.01888e-56
2.51239e-56
2.33446e-56
2.31562e-56
2.71563e-56
3.29118e-56
4.55431e-56
7.08208e-56
1.29281e-55
2.88777e-55
8.44143e-55
3.45183e-54
1.99608e-53
1.45876e-52
1.08246e-51
6.61528e-51
3.14005e-50
1.45838e-49
9.67357e-49
3.97378e-48
4.17483e-66
0.473499
0.0732561
0.0020598
1.01279e-05
2.43158e-08
6.63678e-12
8.26096e-17
2.92454e-24
2.62439e-31
2.36165e-36
1.5602e-41
2.85226e-51
2.38641e-52
1.05785e-52
5.17667e-53
2.74997e-53
1.64071e-53
1.06871e-53
7.41239e-54
5.37699e-54
4.03809e-54
3.12301e-54
2.48195e-54
2.02584e-54
1.69893e-54
1.46742e-54
1.31341e-54
1.2247e-54
1.18844e-54
1.23283e-54
1.39322e-54
1.6943e-54
2.26574e-54
3.36439e-54
5.65666e-54
1.10088e-53
2.53913e-53
7.03174e-53
2.30041e-52
8.41497e-52
3.24091e-51
1.37711e-50
9.33882e-50
1.76218e-48
2.40852e-47
1.04755e-46
6.81114e-68
0.436912
0.0665957
0.00204192
1.25552e-05
3.98854e-08
2.47863e-11
5.7413e-16
7.12342e-23
2.63813e-30
1.5833e-35
9.48165e-41
4.65389e-50
6.00766e-51
2.77227e-51
1.56132e-51
8.24409e-52
4.42197e-52
2.4432e-52
1.4352e-52
9.05003e-53
6.13568e-53
4.446e-53
3.41286e-53
2.75107e-53
2.3118e-53
2.01579e-53
1.82425e-53
1.71609e-53
1.67266e-53
1.72134e-53
1.90699e-53
2.23881e-53
2.84084e-53
3.91101e-53
5.91103e-53
9.90603e-53
1.85757e-52
3.91593e-52
9.30857e-52
2.56263e-51
9.31561e-51
6.49675e-50
1.055e-48
1.71549e-47
1.47343e-46
4.8325e-46
6.81044e-68
0.404632
0.0622986
0.00215089
1.70978e-05
7.3354e-08
8.97475e-11
5.41733e-15
3.39291e-21
1.22609e-28
1.09986e-34
1.46296e-39
1.75154e-48
2.34281e-49
9.24439e-50
6.45169e-50
4.33971e-50
2.89947e-50
1.87587e-50
1.21517e-50
7.95786e-51
5.31678e-51
3.65008e-51
2.59186e-51
1.91603e-51
1.4831e-51
1.20565e-51
1.03202e-51
9.3244e-52
8.84357e-52
8.70699e-52
9.35088e-52
1.04141e-51
1.24983e-51
1.60458e-51
2.23724e-51
3.42445e-51
5.8718e-51
1.1646e-50
2.81753e-50
8.96619e-50
4.00294e-49
2.4312e-48
1.67455e-47
9.78714e-47
3.52884e-46
6.11737e-46
2.28024e-65
0.377103
0.0600597
0.00239321
2.54895e-05
1.48597e-07
3.21949e-10
6.93212e-14
2.48369e-19
1.43447e-26
5.47282e-33
2.61077e-38
2.0021e-47
1.43926e-47
4.85063e-48
3.00935e-48
2.22691e-48
1.74944e-48
1.33295e-48
1.01098e-48
7.68662e-49
5.8937e-49
4.58059e-49
3.62497e-49
2.93261e-49
2.43327e-49
2.07606e-49
1.82874e-49
1.66895e-49
1.57891e-49
1.54612e-49
1.60583e-49
1.74988e-49
2.01578e-49
2.47e-49
3.24594e-49
4.6285e-49
7.28683e-49
1.30154e-48
2.74528e-48
7.1722e-48
2.37486e-47
9.38275e-47
3.72825e-46
1.17055e-45
2.22772e-45
3.68768e-46
3.58203e-59
0.355144
0.0599079
0.0028411
4.16481e-05
3.28336e-07
1.16586e-09
9.00604e-13
2.02506e-17
7.37186e-24
3.89925e-31
2.11929e-43
3.38107e-46
9.1202e-46
2.17648e-45
9.59108e-46
3.40925e-46
1.58812e-46
1.11071e-46
8.52034e-47
6.68003e-47
5.31529e-47
4.29483e-47
3.52895e-47
2.95331e-47
2.52058e-47
2.19648e-47
1.95991e-47
1.79574e-47
1.69288e-47
1.64516e-47
1.63809e-47
1.76906e-47
1.94591e-47
2.27724e-47
2.81023e-47
3.70485e-47
5.25973e-47
8.14954e-47
1.40128e-46
2.72742e-46
6.1011e-46
1.55214e-45
4.19126e-45
1.02854e-44
1.78601e-44
5.31672e-47
1.97845e-55
0.339869
0.0622662
0.00360256
7.434e-05
7.81168e-07
4.24092e-09
7.76951e-12
1.37203e-15
6.31269e-21
6.88413e-29
7.67957e-37
2.84882e-43
9.31093e-45
6.79688e-43
4.92521e-43
2.87971e-43
1.16892e-43
4.94162e-44
2.44037e-44
1.41966e-44
9.36063e-45
6.71338e-45
5.09677e-45
4.03399e-45
3.30107e-45
2.77959e-45
2.4039e-45
2.13449e-45
1.94439e-45
1.81691e-45
1.74305e-45
1.71461e-45
1.74443e-45
1.88981e-45
2.08471e-45
2.43082e-45
2.96531e-45
3.8165e-45
5.18785e-45
7.4719e-45
1.14284e-44
1.84002e-44
2.95373e-44
4.05484e-44
3.17538e-44
5.93657e-49
1.21622e-53
0.33235
0.0672499
0.00481353
0.000139126
1.92316e-06
1.48859e-08
4.73354e-11
4.27658e-14
2.11509e-18
2.38498e-24
2.56252e-30
2.64939e-37
2.86174e-39
1.23579e-40
6.48774e-41
5.19421e-41
3.40836e-41
1.89309e-41
1.02489e-41
5.74846e-42
3.44127e-42
2.2083e-42
1.51439e-42
1.10107e-42
8.42758e-43
6.73907e-43
5.58415e-43
4.76622e-43
4.16967e-43
3.71466e-43
3.36004e-43
3.09144e-43
2.89587e-43
2.7635e-43
2.68538e-43
2.65209e-43
2.64795e-43
2.7314e-43
2.87099e-43
3.0385e-43
3.20642e-43
3.32393e-43
3.04148e-43
1.95561e-43
2.17792e-44
1.72995e-52
9.9231e-57
0.327351
0.0723473
0.00628727
0.000233279
4.47258e-06
4.61458e-08
2.2036e-10
4.18006e-13
1.77574e-16
3.17656e-21
1.89826e-26
5.60281e-34
8.93841e-36
1.50844e-37
5.14077e-39
2.12057e-39
1.74917e-39
1.34129e-39
9.48221e-40
6.53966e-40
4.54604e-40
3.22071e-40
2.34333e-40
1.75166e-40
1.34597e-40
1.0662e-40
8.70196e-41
7.28952e-41
6.22769e-41
5.37298e-41
4.65524e-41
4.05211e-41
3.53943e-41
3.0986e-41
2.7138e-41
2.37118e-41
2.05829e-41
1.7634e-41
1.47507e-41
1.18269e-41
8.79359e-42
5.68586e-42
2.77591e-42
6.85493e-43
3.31104e-45
1.56653e-57
1.5527e-57
0.315197
0.0740261
0.00752586
0.000341834
8.65099e-06
1.13692e-07
7.50756e-10
2.28196e-12
2.68394e-15
5.18078e-19
7.71297e-24
1.22812e-31
2.33074e-33
4.52642e-35
9.43039e-37
4.72048e-38
2.0375e-38
1.65771e-38
1.42825e-38
1.22563e-38
1.04144e-38
8.7658e-39
7.32085e-39
6.09183e-39
5.06842e-39
4.21998e-39
3.51566e-39
2.93016e-39
2.44063e-39
2.02612e-39
1.6722e-39
1.36977e-39
1.11084e-39
8.8898e-40
6.99033e-40
5.36855e-40
3.99282e-40
2.83975e-40
1.89438e-40
1.14923e-40
6.00523e-41
2.47768e-41
6.52946e-42
5.05738e-43
2.22237e-47
1.00128e-51
1.57362e-55
0.245765
0.0594231
0.00687685
0.000374699
1.13172e-05
1.90372e-07
1.6084e-09
6.61002e-12
1.23924e-14
7.8902e-18
2.58752e-22
2.70128e-30
5.5212e-32
1.14866e-33
2.619e-35
9.84021e-37
1.25302e-37
4.95353e-38
3.90141e-38
3.75071e-38
3.70945e-38
3.63304e-38
3.3906e-38
3.00783e-38
2.61988e-38
2.27313e-38
1.95484e-38
1.6508e-38
1.36366e-38
1.10234e-38
8.71075e-39
6.71021e-39
5.02004e-39
3.62717e-39
2.51366e-39
1.65535e-39
1.02279e-39
5.82285e-40
2.97566e-40
1.31268e-40
4.69754e-41
1.19152e-41
1.56806e-42
2.17889e-44
9.10278e-52
1.3394e-54
4.69804e-57
5.28478e-105
1.34122e-102
4.18547e-100
1.6576e-97
8.67055e-95
6.32712e-92
6.60775e-90
5.33313e-82
3.58587e-80
1.38115e-109
2.47354e-107
5.23019e-105
1.17794e-102
3.01174e-100
9.47705e-98
3.78455e-95
1.99611e-92
1.46875e-89
1.98411e-87
1.26884e-79
8.19906e-78
6.75214e-06
1.9885e-07
1.82202e-10
9.40552e-16
6.14165e-24
7.05986e-33
2.90945e-40
2.12011e-46
1.10175e-52
2.96437e-62
1.56748e-64
6.29025e-67
2.27632e-69
5.35372e-72
5.31606e-75
6.59415e-78
3.10866e-81
3.19975e-85
6.99836e-89
2.69265e-94
1.09088e-98
1.81165e-104
1.27183e-115
7.65286e-121
1.44e-120
6.17888e-121
5.64322e-121
1.28088e-119
1.13219e-117
1.09987e-115
1.1849e-113
1.42792e-111
1.9447e-109
3.06273e-107
5.54102e-105
1.08074e-102
2.32026e-100
5.98547e-98
1.90083e-95
7.66084e-93
4.07803e-90
3.02851e-87
6.08922e-85
2.6895e-77
1.6686e-75
1.55698e-05
2.48112e-07
2.15256e-10
1.35551e-15
9.32882e-24
1.09172e-32
4.44611e-40
3.65725e-46
1.89001e-52
5.11411e-62
2.84998e-64
1.17596e-66
4.20645e-69
1.05602e-71
1.1378e-74
1.57864e-77
8.17285e-81
7.56281e-85
1.70761e-88
9.81248e-94
5.72029e-98
1.8924e-103
3.76071e-114
2.97342e-119
7.32932e-119
1.10319e-120
2.90805e-119
2.34995e-117
2.10154e-115
2.06524e-113
2.24958e-111
2.73974e-109
3.77104e-107
5.93985e-105
1.00409e-102
1.84819e-100
4.00684e-98
1.0441e-95
3.34944e-93
1.36365e-90
7.33333e-88
4.04945e-85
1.97279e-82
5.03985e-75
2.99894e-73
5.43915e-05
3.28241e-07
2.47678e-10
1.82921e-15
1.42677e-23
1.70306e-32
6.7963e-40
6.36435e-46
3.38345e-52
8.93559e-62
5.25131e-64
2.27539e-66
8.06766e-69
2.10678e-71
2.49338e-74
3.82172e-77
2.07119e-80
2.08402e-84
4.63027e-88
3.89202e-93
4.1052e-97
1.40087e-102
2.75795e-113
2.95975e-117
1.13077e-116
7.29867e-119
4.52385e-117
3.74811e-115
3.38831e-113
3.36469e-111
3.70222e-109
4.55633e-107
6.34002e-105
9.19538e-103
1.47556e-100
2.74516e-98
6.01735e-96
1.58536e-93
5.14222e-91
2.11694e-88
1.15126e-85
4.27979e-83
5.09248e-80
8.28122e-73
4.72078e-71
0.000182354
5.97876e-07
2.76186e-10
2.32739e-15
2.19378e-23
2.67762e-32
1.04282e-39
1.1069e-45
6.26079e-52
1.57702e-61
9.7376e-64
4.50792e-66
1.61622e-68
4.28409e-71
5.56494e-74
9.21039e-77
5.06355e-80
6.91532e-84
1.71066e-87
1.75359e-92
2.85156e-96
9.12164e-102
7.4871e-114
1.72156e-115
1.26932e-114
1.07323e-116
6.16124e-115
5.16541e-113
4.72287e-111
4.74279e-109
5.28025e-107
6.42977e-105
8.0868e-103
1.14833e-100
1.86458e-98
3.51065e-96
7.78778e-94
2.07651e-91
6.81693e-89
2.84069e-86
1.56395e-83
6.1521e-81
7.09893e-78
1.18289e-70
6.45184e-69
0.000508752
1.4411e-06
2.99561e-10
2.79211e-15
3.38743e-23
4.24022e-32
1.61532e-39
1.90922e-45
1.17847e-51
2.80497e-61
1.8072e-63
9.01745e-66
3.37471e-68
8.96576e-71
1.26148e-73
2.21861e-76
1.24617e-79
2.45074e-83
7.82482e-87
8.67765e-92
1.65343e-95
1.04958e-100
1.40397e-111
9.02337e-114
1.04193e-112
1.05121e-113
7.16896e-113
6.0939e-111
5.64318e-109
5.68491e-107
5.84867e-105
6.65844e-103
8.47983e-101
1.21995e-98
2.00671e-96
3.82739e-94
8.6009e-92
2.32331e-89
7.72771e-87
3.26317e-84
1.82082e-81
7.25744e-79
8.4925e-76
1.45544e-68
7.58478e-67
0.00117422
3.3343e-06
3.2236e-10
3.14461e-15
5.25006e-23
6.76093e-32
2.54583e-39
3.24985e-45
2.21659e-51
5.02237e-61
3.34951e-63
1.79935e-65
7.26155e-68
1.94772e-70
2.91179e-73
5.48092e-76
3.3016e-79
8.12748e-83
3.24228e-86
4.48265e-91
1.05792e-94
1.62169e-99
2.79379e-109
1.49869e-111
6.77945e-111
1.07946e-112
7.08963e-111
5.80977e-109
5.05899e-107
4.80149e-105
5.00817e-103
5.78347e-101
7.4702e-99
1.08985e-96
1.81786e-94
3.5158e-92
8.01185e-90
2.19486e-87
7.40498e-85
3.17227e-82
1.7962e-79
-1.65088e-76
8.62984e-74
1.52768e-66
7.59467e-65
0.00229806
6.90341e-06
3.7058e-10
3.32674e-15
8.16794e-23
1.08545e-31
4.12036e-39
5.45196e-45
4.10505e-51
9.05924e-61
6.21564e-63
3.56117e-65
1.58495e-67
4.40835e-70
6.90317e-73
1.442e-75
9.89362e-79
2.49872e-82
1.13186e-85
2.50363e-90
1.10362e-93
1.27015e-98
5.89254e-107
2.86861e-109
5.40441e-109
7.82715e-111
5.40009e-109
3.95424e-107
3.49276e-105
3.36716e-103
3.56662e-101
4.18189e-99
5.48358e-97
8.12098e-95
1.37499e-92
2.69945e-90
6.24496e-88
1.73704e-85
5.95137e-83
2.58976e-80
1.48992e-77
-9.68717e-75
7.37373e-72
1.35391e-64
6.40938e-63
0.00394871
1.29753e-05
6.92387e-10
3.37015e-15
1.27641e-22
1.75525e-31
6.90615e-39
9.04082e-45
7.42236e-51
1.65119e-60
1.16411e-62
7.0156e-65
3.46602e-67
1.03604e-69
1.70196e-72
4.14185e-75
3.27859e-78
7.93771e-82
4.02151e-85
1.68274e-89
1.27979e-92
5.88678e-98
1.32058e-104
4.09426e-107
3.252e-107
1.39818e-107
3.97002e-107
2.20968e-105
1.97594e-103
1.9366e-101
2.08515e-99
2.48479e-97
3.31111e-95
4.98297e-93
8.57344e-91
1.71053e-88
4.02199e-86
1.13725e-83
3.96188e-81
1.75352e-78
1.02643e-75
-3.07523e-74
1.44486e-69
1.0021e-62
4.50795e-61
0.00614987
2.25829e-05
2.74027e-09
3.15938e-15
2.00556e-22
2.86043e-31
1.20361e-38
1.49389e-44
1.30946e-50
3.05762e-60
2.22927e-62
1.395e-64
7.57889e-67
2.50791e-69
4.41273e-72
1.28074e-74
1.11467e-77
3.06102e-81
1.99892e-84
1.40621e-88
1.00735e-91
5.82752e-97
3.16355e-102
3.24023e-105
2.98715e-105
9.38184e-105
2.20588e-105
9.97304e-104
9.03813e-102
9.01458e-100
9.87618e-98
1.1974e-95
1.62327e-93
2.48523e-91
4.35026e-89
8.83117e-87
2.11313e-84
6.08188e-82
2.15729e-79
9.72519e-77
5.80063e-74
1.65203e-71
2.55398e-67
6.12239e-61
2.61055e-59
0.00887775
3.68049e-05
9.33094e-09
2.51639e-15
3.17227e-22
4.70108e-31
2.17262e-38
2.49427e-44
2.27293e-50
5.79455e-60
4.43343e-62
2.86465e-64
1.67644e-66
6.21526e-69
1.20859e-71
4.09379e-74
3.75078e-77
1.49437e-80
1.39742e-83
1.33376e-87
6.80566e-91
2.1792e-95
8.12458e-100
1.15745e-103
7.03273e-104
3.91074e-103
9.96974e-104
3.62663e-102
3.33005e-100
3.38352e-98
3.77601e-96
4.66306e-94
6.43871e-92
1.00407e-89
1.79036e-87
3.70281e-85
9.02861e-83
2.64872e-80
9.57992e-78
4.40544e-75
2.68119e-72
1.06452e-69
9.53507e-65
3.04899e-59
1.22844e-57
0.0120271
5.62931e-05
2.17618e-08
2.0849e-15
5.05711e-22
7.79859e-31
4.01087e-38
4.29248e-44
3.95446e-50
1.13245e-59
9.27213e-62
6.23417e-64
3.84253e-66
1.58258e-68
3.48907e-71
1.3296e-73
1.31277e-76
7.72e-80
8.85102e-83
1.39292e-86
8.60411e-90
1.40926e-94
2.24373e-97
2.09009e-101
7.18657e-103
1.29266e-101
3.62419e-102
1.45924e-100
1.37016e-98
1.41995e-96
1.61614e-94
2.03538e-92
2.86624e-90
4.55881e-88
8.29193e-86
1.7497e-83
4.35392e-81
1.30398e-78
4.81671e-76
2.26332e-73
1.40833e-70
6.02965e-68
1.17404e-61
1.22072e-57
4.62971e-56
0.0153736
8.04437e-05
4.01682e-08
1.96932e-15
8.13294e-22
1.3072e-30
7.44e-38
7.78786e-44
7.10443e-50
2.2952e-59
2.04463e-61
1.46077e-63
9.39409e-66
4.21083e-68
1.06116e-70
4.56382e-73
5.32673e-76
3.76043e-79
4.54922e-82
1.66973e-85
1.40641e-88
2.5624e-92
6.69264e-95
1.00318e-98
3.34866e-101
1.05338e-99
1.46049e-100
4.5168e-99
4.29761e-97
4.54788e-95
5.28582e-93
6.79795e-91
9.77613e-89
1.58809e-86
2.95067e-84
6.36168e-82
1.61796e-79
4.95456e-77
1.87215e-74
9.00405e-72
5.73843e-69
2.56399e-66
8.47963e-60
3.87133e-56
1.37497e-54
0.0185526
0.000105783
6.24447e-08
2.27004e-15
1.32034e-21
2.21694e-30
1.36437e-37
1.51326e-43
1.36829e-49
4.8304e-59
4.7058e-61
3.65944e-63
2.49654e-65
1.20306e-67
3.44826e-70
1.79252e-72
2.69367e-75
2.03301e-78
2.71131e-81
2.19611e-84
7.40332e-88
4.05993e-90
2.16552e-92
5.42227e-96
1.11102e-98
5.6643e-98
4.52625e-99
1.04928e-97
1.00957e-95
1.09238e-93
1.29832e-91
1.70755e-89
2.51147e-87
4.17319e-85
7.93301e-83
1.7504e-80
4.55762e-78
1.42947e-75
5.53542e-73
2.73006e-70
1.78562e-67
8.26216e-65
3.63452e-58
9.56453e-55
3.15874e-53
0.0209992
0.000124386
8.16819e-08
1.38533e-14
2.16465e-21
3.8111e-30
2.45223e-37
3.13456e-43
2.90706e-49
1.05207e-58
1.11229e-60
9.5531e-63
7.18966e-65
3.79592e-67
1.24256e-69
8.48434e-72
1.5986e-74
1.74813e-77
3.48799e-80
2.95891e-83
3.99402e-86
6.93009e-88
6.62761e-90
3.2326e-93
3.88644e-96
3.84792e-96
1.46866e-95
1.01392e-95
1.84635e-94
1.95515e-92
2.37891e-90
3.2046e-88
4.82834e-86
8.22035e-84
1.6015e-81
3.62273e-79
9.67456e-77
3.11377e-74
1.23809e-71
6.27461e-69
3.69625e-66
2.02407e-63
1.08292e-56
1.80645e-53
5.49119e-52
0.022067
0.000131147
9.17507e-08
1.29621e-13
3.58569e-21
6.65818e-30
4.33489e-37
6.72444e-43
6.75851e-49
2.35993e-58
2.67731e-60
2.55199e-62
2.21256e-64
1.35199e-66
5.26624e-69
4.70493e-71
1.01857e-73
2.03107e-76
3.53819e-79
2.12374e-82
5.80685e-84
1.2813e-85
1.62352e-87
2.13941e-90
5.59441e-95
5.59469e-95
3.36111e-94
1.85581e-94
2.42326e-93
2.57243e-91
3.21035e-89
4.43715e-87
6.86063e-85
1.19894e-82
2.39832e-80
5.57262e-78
1.52934e-75
5.06134e-73
2.07083e-70
1.08084e-67
-8.81756e-66
3.7212e-62
2.33011e-55
2.54918e-52
7.02493e-51
0.0219392
0.000124813
9.36726e-08
4.84799e-13
6.00865e-21
1.18647e-29
7.68181e-37
1.4402e-42
1.63575e-48
5.44953e-58
6.64136e-60
7.1066e-62
7.3657e-64
5.59354e-66
2.8172e-68
2.95998e-70
7.55901e-73
1.61874e-75
9.71157e-79
2.44754e-80
9.32483e-82
2.58454e-83
4.33722e-85
1.58532e-87
4.46433e-94
4.48911e-94
4.32885e-93
2.43692e-93
2.41116e-92
2.56148e-90
3.28478e-88
4.66705e-86
7.41967e-84
1.3336e-81
2.74475e-79
6.56467e-77
1.85546e-74
6.32841e-72
2.67056e-69
6.58286e-67
5.2697e-64
5.29353e-61
3.82501e-54
2.62009e-51
6.30273e-50
0.02043
0.00010717
8.49916e-08
8.33536e-13
1.02154e-20
2.16741e-29
1.41567e-36
3.01915e-42
3.91082e-48
1.30759e-57
1.76451e-59
2.22195e-61
2.86892e-63
2.89079e-65
2.0556e-67
2.26468e-69
8.43809e-72
1.26752e-74
7.75774e-77
3.53562e-78
1.64116e-79
5.71732e-81
1.27079e-82
1.24925e-84
7.48967e-93
5.34982e-93
4.23998e-92
2.4259e-92
1.68088e-91
1.7518e-89
2.31263e-87
3.38476e-85
5.54465e-83
1.02722e-80