/*--------------------------------*- C++ -*----------------------------------*\
| =========                 |                                                 |
| \\      /  F ield         | OpenFOAM: The Open Source CFD Toolbox           |
|  \\    /   O peration     | Version:  v2012                                 |
|   \\  /    A nd           | Website:  www.openfoam.com                      |
|    \\/     M anipulation  |                                                 |
\*---------------------------------------------------------------------------*/
FoamFile
{
    version     2.0;
    format      ascii;
    class       volScalarField;
    location    "0.45";
    object      p;
}
// * * * * * * * * * * * * * * * * * * * * * * * * * * * * * * * * * * * * * //

dimensions      [1 -1 -2 0 0 0 0];


internalField   nonuniform List<scalar> 
3326
(
3.48707e+06
3.4871e+06
3.4871e+06
3.48707e+06
3.48701e+06
3.48692e+06
3.48678e+06
3.48663e+06
3.48638e+06
3.48679e+06
3.48689e+06
3.48696e+06
3.48701e+06
3.48704e+06
3.48704e+06
3.48701e+06
3.48695e+06
3.48686e+06
3.48673e+06
3.48658e+06
3.48633e+06
3.53461e+06
3.52178e+06
3.51152e+06
3.50444e+06
3.49908e+06
3.49513e+06
3.49216e+06
3.48993e+06
3.48825e+06
3.487e+06
3.48607e+06
3.48539e+06
3.48491e+06
3.48458e+06
3.48437e+06
3.48426e+06
3.48423e+06
3.48425e+06
3.48432e+06
3.48443e+06
3.48457e+06
3.48472e+06
3.48489e+06
3.48508e+06
3.48526e+06
3.48545e+06
3.48564e+06
3.48583e+06
3.48601e+06
3.48618e+06
3.48634e+06
3.48648e+06
3.48661e+06
3.48673e+06
3.48682e+06
3.4869e+06
3.48695e+06
3.48698e+06
3.48698e+06
3.48696e+06
3.4869e+06
3.48681e+06
3.48668e+06
3.48653e+06
3.48629e+06
3.52585e+06
3.51518e+06
3.50678e+06
3.50094e+06
3.49646e+06
3.49316e+06
3.49064e+06
3.48876e+06
3.48733e+06
3.48627e+06
3.48548e+06
3.48491e+06
3.48451e+06
3.48425e+06
3.48409e+06
3.48402e+06
3.48402e+06
3.48407e+06
3.48416e+06
3.48428e+06
3.48443e+06
3.4846e+06
3.48478e+06
3.48497e+06
3.48516e+06
3.48536e+06
3.48555e+06
3.48574e+06
3.48593e+06
3.4861e+06
3.48626e+06
3.48641e+06
3.48655e+06
3.48666e+06
3.48676e+06
3.48684e+06
3.4869e+06
3.48693e+06
3.48693e+06
3.48691e+06
3.48685e+06
3.48677e+06
3.48664e+06
3.48649e+06
3.48625e+06
3.51469e+06
3.50684e+06
3.50102e+06
3.4967e+06
3.49336e+06
3.49084e+06
3.48889e+06
3.48741e+06
3.48628e+06
3.48544e+06
3.48482e+06
3.48438e+06
3.48407e+06
3.48389e+06
3.48379e+06
3.48376e+06
3.48379e+06
3.48387e+06
3.48399e+06
3.48413e+06
3.48429e+06
3.48447e+06
3.48466e+06
3.48486e+06
3.48506e+06
3.48527e+06
3.48547e+06
3.48566e+06
3.48585e+06
3.48603e+06
3.48619e+06
3.48635e+06
3.48648e+06
3.4866e+06
3.48671e+06
3.48678e+06
3.48684e+06
3.48687e+06
3.48688e+06
3.48686e+06
3.48681e+06
3.48672e+06
3.4866e+06
3.48645e+06
3.48621e+06
3.50189e+06
3.49769e+06
3.49464e+06
3.49205e+06
3.48996e+06
3.4883e+06
3.48697e+06
3.48593e+06
3.48514e+06
3.48454e+06
3.4841e+06
3.4838e+06
3.4836e+06
3.48349e+06
3.48346e+06
3.48348e+06
3.48356e+06
3.48366e+06
3.4838e+06
3.48397e+06
3.48415e+06
3.48434e+06
3.48455e+06
3.48475e+06
3.48496e+06
3.48517e+06
3.48538e+06
3.48558e+06
3.48577e+06
3.48596e+06
3.48613e+06
3.48628e+06
3.48642e+06
3.48655e+06
3.48665e+06
3.48673e+06
3.48679e+06
3.48683e+06
3.48683e+06
3.48681e+06
3.48676e+06
3.48668e+06
3.48656e+06
3.48641e+06
3.48618e+06
3.48898e+06
3.48875e+06
3.48819e+06
3.48734e+06
3.48647e+06
3.48567e+06
3.48496e+06
3.48439e+06
3.48393e+06
3.48359e+06
3.48334e+06
3.48318e+06
3.4831e+06
3.48308e+06
3.48311e+06
3.48319e+06
3.48331e+06
3.48345e+06
3.48362e+06
3.4838e+06
3.484e+06
3.48421e+06
3.48443e+06
3.48464e+06
3.48486e+06
3.48508e+06
3.48529e+06
3.4855e+06
3.4857e+06
3.48589e+06
3.48606e+06
3.48622e+06
3.48637e+06
3.48649e+06
3.4866e+06
3.48668e+06
3.48674e+06
3.48678e+06
3.48679e+06
3.48677e+06
3.48672e+06
3.48664e+06
3.48652e+06
3.48638e+06
3.48615e+06
3.4779e+06
3.48094e+06
3.48223e+06
3.48288e+06
3.48307e+06
3.48307e+06
3.48296e+06
3.48282e+06
3.4827e+06
3.48261e+06
3.48256e+06
3.48255e+06
3.48258e+06
3.48265e+06
3.48276e+06
3.48289e+06
3.48305e+06
3.48323e+06
3.48342e+06
3.48363e+06
3.48385e+06
3.48408e+06
3.4843e+06
3.48453e+06
3.48476e+06
3.48499e+06
3.48521e+06
3.48542e+06
3.48563e+06
3.48582e+06
3.486e+06
3.48616e+06
3.48631e+06
3.48644e+06
3.48655e+06
3.48663e+06
3.4867e+06
3.48674e+06
3.48675e+06
3.48673e+06
3.48669e+06
3.48661e+06
3.48649e+06
3.48635e+06
3.48613e+06
3.4696e+06
3.47455e+06
3.47708e+06
3.47888e+06
3.47993e+06
3.4806e+06
3.48101e+06
3.48128e+06
3.48147e+06
3.48162e+06
3.48176e+06
3.4819e+06
3.48205e+06
3.48221e+06
3.48239e+06
3.48258e+06
3.48278e+06
3.483e+06
3.48323e+06
3.48346e+06
3.4837e+06
3.48394e+06
3.48418e+06
3.48442e+06
3.48466e+06
3.4849e+06
3.48513e+06
3.48535e+06
3.48556e+06
3.48575e+06
3.48594e+06
3.48611e+06
3.48626e+06
3.48639e+06
3.4865e+06
3.48659e+06
3.48666e+06
3.4867e+06
3.48671e+06
3.4867e+06
3.48665e+06
3.48658e+06
3.48646e+06
3.48632e+06
3.4861e+06
3.46378e+06
3.46945e+06
3.47281e+06
3.47539e+06
3.47709e+06
3.47832e+06
3.47917e+06
3.4798e+06
3.48028e+06
3.48065e+06
3.48097e+06
3.48125e+06
3.48151e+06
3.48176e+06
3.48201e+06
3.48226e+06
3.48251e+06
3.48277e+06
3.48302e+06
3.48328e+06
3.48354e+06
3.4838e+06
3.48406e+06
3.48432e+06
3.48457e+06
3.48481e+06
3.48505e+06
3.48527e+06
3.48549e+06
3.48569e+06
3.48588e+06
3.48605e+06
3.48621e+06
3.48634e+06
3.48646e+06
3.48655e+06
3.48662e+06
3.48666e+06
3.48668e+06
3.48666e+06
3.48662e+06
3.48655e+06
3.48644e+06
3.4863e+06
3.48609e+06
3.4596e+06
3.46534e+06
3.46928e+06
3.47237e+06
3.47457e+06
3.47623e+06
3.47746e+06
3.4784e+06
3.47913e+06
3.47971e+06
3.4802e+06
3.48061e+06
3.48098e+06
3.48132e+06
3.48164e+06
3.48194e+06
3.48224e+06
3.48253e+06
3.48282e+06
3.48311e+06
3.48339e+06
3.48366e+06
3.48394e+06
3.48421e+06
3.48447e+06
3.48472e+06
3.48496e+06
3.4852e+06
3.48542e+06
3.48563e+06
3.48582e+06
3.486e+06
3.48616e+06
3.4863e+06
3.48641e+06
3.48651e+06
3.48658e+06
3.48663e+06
3.48664e+06
3.48663e+06
3.48659e+06
3.48652e+06
3.48641e+06
3.48628e+06
3.48607e+06
3.45627e+06
3.46193e+06
3.46632e+06
3.46976e+06
3.47235e+06
3.47436e+06
3.4759e+06
3.4771e+06
3.47804e+06
3.47881e+06
3.47944e+06
3.47998e+06
3.48045e+06
3.48088e+06
3.48126e+06
3.48162e+06
3.48197e+06
3.4823e+06
3.48262e+06
3.48293e+06
3.48323e+06
3.48353e+06
3.48382e+06
3.4841e+06
3.48437e+06
3.48463e+06
3.48489e+06
3.48513e+06
3.48536e+06
3.48557e+06
3.48577e+06
3.48595e+06
3.48611e+06
3.48626e+06
3.48638e+06
3.48647e+06
3.48655e+06
3.48659e+06
3.48661e+06
3.48661e+06
3.48657e+06
3.4865e+06
3.48639e+06
3.48627e+06
3.48606e+06
3.45336e+06
3.45901e+06
3.46378e+06
3.46748e+06
3.47039e+06
3.47268e+06
3.47447e+06
3.47589e+06
3.47703e+06
3.47796e+06
3.47872e+06
3.47938e+06
3.47994e+06
3.48044e+06
3.48089e+06
3.48131e+06
3.48169e+06
3.48206e+06
3.48241e+06
3.48275e+06
3.48307e+06
3.48339e+06
3.48369e+06
3.48399e+06
3.48427e+06
3.48455e+06
3.48481e+06
3.48506e+06
3.48529e+06
3.48551e+06
3.48572e+06
3.4859e+06
3.48607e+06
3.48622e+06
3.48634e+06
3.48644e+06
3.48652e+06
3.48657e+06
3.48659e+06
3.48658e+06
3.48655e+06
3.48648e+06
3.48638e+06
3.48625e+06
3.48605e+06
3.45071e+06
3.45648e+06
3.46158e+06
3.46551e+06
3.46867e+06
3.47118e+06
3.47318e+06
3.47478e+06
3.47608e+06
3.47715e+06
3.47804e+06
3.47879e+06
3.47944e+06
3.48002e+06
3.48053e+06
3.48099e+06
3.48142e+06
3.48183e+06
3.48221e+06
3.48257e+06
3.48292e+06
3.48325e+06
3.48357e+06
3.48388e+06
3.48418e+06
3.48446e+06
3.48473e+06
3.48499e+06
3.48523e+06
3.48546e+06
3.48567e+06
3.48586e+06
3.48603e+06
3.48618e+06
3.48631e+06
3.48641e+06
3.48649e+06
3.48654e+06
3.48657e+06
3.48656e+06
3.48653e+06
3.48646e+06
3.48636e+06
3.48624e+06
3.48605e+06
3.44836e+06
3.45432e+06
3.45969e+06
3.4638e+06
3.46717e+06
3.46985e+06
3.47202e+06
3.47377e+06
3.47521e+06
3.4764e+06
3.47739e+06
3.47824e+06
3.47897e+06
3.4796e+06
3.48017e+06
3.48069e+06
3.48116e+06
3.4816e+06
3.48201e+06
3.4824e+06
3.48277e+06
3.48312e+06
3.48345e+06
3.48378e+06
3.48409e+06
3.48438e+06
3.48466e+06
3.48493e+06
3.48518e+06
3.48541e+06
3.48562e+06
3.48582e+06
3.48599e+06
3.48615e+06
3.48628e+06
3.48638e+06
3.48646e+06
3.48652e+06
3.48654e+06
3.48654e+06
3.48651e+06
3.48645e+06
3.48635e+06
3.48623e+06
3.48605e+06
3.44637e+06
3.45251e+06
3.45808e+06
3.46234e+06
3.46586e+06
3.46868e+06
3.47098e+06
3.47286e+06
3.47441e+06
3.4757e+06
3.47679e+06
3.47771e+06
3.47851e+06
3.47921e+06
3.47983e+06
3.48039e+06
3.4809e+06
3.48137e+06
3.48181e+06
3.48222e+06
3.48261e+06
3.48298e+06
3.48334e+06
3.48367e+06
3.484e+06
3.4843e+06
3.48459e+06
3.48486e+06
3.48512e+06
3.48536e+06
3.48558e+06
3.48578e+06
3.48596e+06
3.48612e+06
3.48625e+06
3.48636e+06
3.48644e+06
3.4865e+06
3.48653e+06
3.48653e+06
3.4865e+06
3.48644e+06
3.48634e+06
3.48623e+06
3.48605e+06
3.44479e+06
3.45106e+06
3.45674e+06
3.4611e+06
3.46474e+06
3.46765e+06
3.47006e+06
3.47204e+06
3.47368e+06
3.47506e+06
3.47622e+06
3.47721e+06
3.47807e+06
3.47883e+06
3.47949e+06
3.4801e+06
3.48064e+06
3.48115e+06
3.48161e+06
3.48205e+06
3.48246e+06
3.48285e+06
3.48322e+06
3.48357e+06
3.48391e+06
3.48422e+06
3.48452e+06
3.4848e+06
3.48507e+06
3.48531e+06
3.48554e+06
3.48575e+06
3.48593e+06
3.48609e+06
3.48623e+06
3.48634e+06
3.48642e+06
3.48648e+06
3.48651e+06
3.48651e+06
3.48649e+06
3.48643e+06
3.48634e+06
3.48623e+06
3.48605e+06
3.44358e+06
3.44993e+06
3.45566e+06
3.46008e+06
3.46378e+06
3.46677e+06
3.46925e+06
3.4713e+06
3.47302e+06
3.47446e+06
3.47569e+06
3.47674e+06
3.47766e+06
3.47846e+06
3.47917e+06
3.47981e+06
3.4804e+06
3.48093e+06
3.48142e+06
3.48188e+06
3.48232e+06
3.48272e+06
3.48311e+06
3.48347e+06
3.48382e+06
3.48415e+06
3.48446e+06
3.48475e+06
3.48502e+06
3.48527e+06
3.4855e+06
3.48571e+06
3.4859e+06
3.48607e+06
3.48621e+06
3.48632e+06
3.48641e+06
3.48647e+06
3.4865e+06
3.4865e+06
3.48648e+06
3.48642e+06
3.48634e+06
3.48623e+06
3.48606e+06
3.44271e+06
3.44908e+06
3.45481e+06
3.45924e+06
3.46298e+06
3.46601e+06
3.46854e+06
3.47064e+06
3.47242e+06
3.47392e+06
3.4752e+06
3.4763e+06
3.47727e+06
3.47811e+06
3.47886e+06
3.47954e+06
3.48015e+06
3.48072e+06
3.48124e+06
3.48172e+06
3.48217e+06
3.4826e+06
3.483e+06
3.48338e+06
3.48374e+06
3.48407e+06
3.48439e+06
3.48469e+06
3.48497e+06
3.48523e+06
3.48547e+06
3.48569e+06
3.48588e+06
3.48605e+06
3.48619e+06
3.48631e+06
3.4864e+06
3.48646e+06
3.48649e+06
3.4865e+06
3.48647e+06
3.48642e+06
3.48633e+06
3.48623e+06
3.48607e+06
3.44212e+06
3.44846e+06
3.45415e+06
3.45856e+06
3.4623e+06
3.46535e+06
3.46792e+06
3.47006e+06
3.47187e+06
3.47342e+06
3.47474e+06
3.47589e+06
3.47689e+06
3.47778e+06
3.47857e+06
3.47928e+06
3.47992e+06
3.48051e+06
3.48105e+06
3.48156e+06
3.48203e+06
3.48247e+06
3.48289e+06
3.48328e+06
3.48366e+06
3.484e+06
3.48433e+06
3.48464e+06
3.48493e+06
3.4852e+06
3.48544e+06
3.48566e+06
3.48586e+06
3.48603e+06
3.48618e+06
3.4863e+06
3.48639e+06
3.48645e+06
3.48649e+06
3.48649e+06
3.48647e+06
3.48642e+06
3.48634e+06
3.48624e+06
3.48608e+06
3.44178e+06
3.44805e+06
3.45365e+06
3.45803e+06
3.46174e+06
3.46479e+06
3.46737e+06
3.46954e+06
3.47138e+06
3.47296e+06
3.47432e+06
3.47551e+06
3.47654e+06
3.47746e+06
3.47828e+06
3.47902e+06
3.4797e+06
3.48031e+06
3.48088e+06
3.4814e+06
3.48189e+06
3.48235e+06
3.48279e+06
3.48319e+06
3.48358e+06
3.48394e+06
3.48428e+06
3.48459e+06
3.48489e+06
3.48516e+06
3.48541e+06
3.48564e+06
3.48584e+06
3.48602e+06
3.48617e+06
3.48629e+06
3.48638e+06
3.48645e+06
3.48648e+06
3.48649e+06
3.48647e+06
3.48642e+06
3.48634e+06
3.48625e+06
3.4861e+06
3.44163e+06
3.44781e+06
3.45329e+06
3.4576e+06
3.46128e+06
3.46431e+06
3.46689e+06
3.46907e+06
3.47094e+06
3.47254e+06
3.47393e+06
3.47514e+06
3.47621e+06
3.47716e+06
3.47801e+06
3.47878e+06
3.47948e+06
3.48012e+06
3.48071e+06
3.48125e+06
3.48176e+06
3.48224e+06
3.48269e+06
3.48311e+06
3.4835e+06
3.48387e+06
3.48422e+06
3.48455e+06
3.48485e+06
3.48513e+06
3.48539e+06
3.48562e+06
3.48583e+06
3.48601e+06
3.48616e+06
3.48628e+06
3.48638e+06
3.48645e+06
3.48648e+06
3.48649e+06
3.48647e+06
3.48642e+06
3.48635e+06
3.48626e+06
3.48612e+06
3.44163e+06
3.44769e+06
3.45304e+06
3.45728e+06
3.4609e+06
3.46391e+06
3.46647e+06
3.46865e+06
3.47053e+06
3.47215e+06
3.47357e+06
3.4748e+06
3.4759e+06
3.47688e+06
3.47775e+06
3.47855e+06
3.47927e+06
3.47993e+06
3.48054e+06
3.4811e+06
3.48163e+06
3.48213e+06
3.48259e+06
3.48302e+06
3.48343e+06
3.48381e+06
3.48417e+06
3.48451e+06
3.48482e+06
3.48511e+06
3.48537e+06
3.48561e+06
3.48582e+06
3.486e+06
3.48616e+06
3.48628e+06
3.48638e+06
3.48645e+06
3.48649e+06
3.4865e+06
3.48647e+06
3.48643e+06
3.48636e+06
3.48627e+06
3.48614e+06
3.44175e+06
3.44767e+06
3.45288e+06
3.45703e+06
3.46059e+06
3.46356e+06
3.46611e+06
3.46828e+06
3.47016e+06
3.47179e+06
3.47322e+06
3.47448e+06
3.4756e+06
3.4766e+06
3.4775e+06
3.47832e+06
3.47906e+06
3.47975e+06
3.48038e+06
3.48096e+06
3.48151e+06
3.48202e+06
3.48249e+06
3.48294e+06
3.48336e+06
3.48376e+06
3.48413e+06
3.48447e+06
3.48479e+06
3.48508e+06
3.48535e+06
3.48559e+06
3.48581e+06
3.486e+06
3.48616e+06
3.48629e+06
3.48639e+06
3.48645e+06
3.48649e+06
3.4865e+06
3.48648e+06
3.48644e+06
3.48637e+06
3.48628e+06
3.48616e+06
3.44197e+06
3.44774e+06
3.45279e+06
3.45685e+06
3.46034e+06
3.46326e+06
3.46578e+06
3.46794e+06
3.46982e+06
3.47146e+06
3.4729e+06
3.47418e+06
3.47532e+06
3.47634e+06
3.47726e+06
3.4781e+06
3.47887e+06
3.47957e+06
3.48022e+06
3.48082e+06
3.48139e+06
3.48191e+06
3.4824e+06
3.48287e+06
3.4833e+06
3.4837e+06
3.48408e+06
3.48444e+06
3.48476e+06
3.48506e+06
3.48534e+06
3.48559e+06
3.48581e+06
3.486e+06
3.48616e+06
3.48629e+06
3.48639e+06
3.48646e+06
3.4865e+06
3.48651e+06
3.48649e+06
3.48645e+06
3.48638e+06
3.4863e+06
3.48618e+06
3.44224e+06
3.44787e+06
3.45275e+06
3.45672e+06
3.46012e+06
3.463e+06
3.46548e+06
3.46763e+06
3.4695e+06
3.47115e+06
3.4726e+06
3.47389e+06
3.47505e+06
3.47609e+06
3.47703e+06
3.47789e+06
3.47868e+06
3.4794e+06
3.48007e+06
3.48069e+06
3.48127e+06
3.48181e+06
3.48232e+06
3.48279e+06
3.48324e+06
3.48365e+06
3.48404e+06
3.4844e+06
3.48474e+06
3.48505e+06
3.48533e+06
3.48558e+06
3.48581e+06
3.486e+06
3.48617e+06
3.4863e+06
3.4864e+06
3.48647e+06
3.48651e+06
3.48652e+06
3.4865e+06
3.48646e+06
3.48639e+06
3.48631e+06
3.48621e+06
3.44257e+06
3.44805e+06
3.45276e+06
3.45662e+06
3.45994e+06
3.46276e+06
3.46521e+06
3.46734e+06
3.4692e+06
3.47085e+06
3.47231e+06
3.47362e+06
3.47479e+06
3.47585e+06
3.47681e+06
3.47769e+06
3.47849e+06
3.47924e+06
3.47992e+06
3.48056e+06
3.48116e+06
3.48171e+06
3.48224e+06
3.48272e+06
3.48318e+06
3.48361e+06
3.48401e+06
3.48438e+06
3.48472e+06
3.48504e+06
3.48533e+06
3.48558e+06
3.48581e+06
3.48601e+06
3.48618e+06
3.48632e+06
3.48642e+06
3.48649e+06
3.48653e+06
3.48654e+06
3.48652e+06
3.48647e+06
3.4864e+06
3.48633e+06
3.48623e+06
3.43168e+06
3.43658e+06
3.44295e+06
3.44827e+06
3.4528e+06
3.45655e+06
3.45978e+06
3.46255e+06
3.46496e+06
3.46706e+06
3.46892e+06
3.47056e+06
3.47203e+06
3.47335e+06
3.47453e+06
3.47561e+06
3.47659e+06
3.47749e+06
3.47832e+06
3.47908e+06
3.47978e+06
3.48044e+06
3.48105e+06
3.48162e+06
3.48216e+06
3.48266e+06
3.48313e+06
3.48357e+06
3.48398e+06
3.48436e+06
3.48471e+06
3.48503e+06
3.48532e+06
3.48559e+06
3.48582e+06
3.48603e+06
3.4862e+06
3.48633e+06
3.48644e+06
3.48651e+06
3.48655e+06
3.48655e+06
3.48653e+06
3.48649e+06
3.48642e+06
3.48635e+06
3.48626e+06
3.43182e+06
3.43726e+06
3.44337e+06
3.4485e+06
3.45285e+06
3.45649e+06
3.45963e+06
3.46234e+06
3.46471e+06
3.46679e+06
3.46864e+06
3.47028e+06
3.47176e+06
3.47309e+06
3.47429e+06
3.47538e+06
3.47638e+06
3.4773e+06
3.47814e+06
3.47892e+06
3.47965e+06
3.48032e+06
3.48095e+06
3.48153e+06
3.48208e+06
3.4826e+06
3.48308e+06
3.48353e+06
3.48395e+06
3.48434e+06
3.4847e+06
3.48503e+06
3.48533e+06
3.4856e+06
3.48584e+06
3.48604e+06
3.48622e+06
3.48635e+06
3.48646e+06
3.48653e+06
3.48657e+06
3.48657e+06
3.48655e+06
3.48651e+06
3.48644e+06
3.48637e+06
3.48628e+06
3.43222e+06
3.43797e+06
3.44379e+06
3.44873e+06
3.45289e+06
3.45642e+06
3.45947e+06
3.46212e+06
3.46445e+06
3.46652e+06
3.46836e+06
3.47e+06
3.47149e+06
3.47283e+06
3.47405e+06
3.47516e+06
3.47618e+06
3.47711e+06
3.47798e+06
3.47878e+06
3.47952e+06
3.48021e+06
3.48085e+06
3.48145e+06
3.48202e+06
3.48254e+06
3.48304e+06
3.4835e+06
3.48393e+06
3.48432e+06
3.48469e+06
3.48503e+06
3.48534e+06
3.48561e+06
3.48585e+06
3.48606e+06
3.48624e+06
3.48638e+06
3.48649e+06
3.48656e+06
3.48659e+06
3.4866e+06
3.48657e+06
3.48652e+06
3.48645e+06
3.48639e+06
3.48631e+06
3.43284e+06
3.43869e+06
3.4442e+06
3.44892e+06
3.4529e+06
3.45632e+06
3.45928e+06
3.46188e+06
3.46419e+06
3.46623e+06
3.46807e+06
3.46972e+06
3.47122e+06
3.47258e+06
3.47381e+06
3.47494e+06
3.47598e+06
3.47694e+06
3.47782e+06
3.47863e+06
3.47939e+06
3.4801e+06
3.48076e+06
3.48137e+06
3.48195e+06
3.48249e+06
3.483e+06
3.48347e+06
3.48391e+06
3.48432e+06
3.48469e+06
3.48504e+06
3.48535e+06
3.48563e+06
3.48588e+06
3.48609e+06
3.48627e+06
3.48641e+06
3.48652e+06
3.48659e+06
3.48662e+06
3.48662e+06
3.48659e+06
3.48654e+06
3.48647e+06
3.4864e+06
3.48633e+06
3.43351e+06
3.43927e+06
3.44452e+06
3.44902e+06
3.45285e+06
3.45616e+06
3.45906e+06
3.46162e+06
3.4639e+06
3.46594e+06
3.46778e+06
3.46944e+06
3.47095e+06
3.47233e+06
3.47358e+06
3.47473e+06
3.47579e+06
3.47676e+06
3.47766e+06
3.4785e+06
3.47927e+06
3.48e+06
3.48067e+06
3.4813e+06
3.48189e+06
3.48245e+06
3.48296e+06
3.48345e+06
3.48389e+06
3.48431e+06
3.4847e+06
3.48505e+06
3.48537e+06
3.48565e+06
3.4859e+06
3.48612e+06
3.4863e+06
3.48644e+06
3.48655e+06
3.48662e+06
3.48665e+06
3.48665e+06
3.48662e+06
3.48657e+06
3.48649e+06
3.48642e+06
3.48635e+06
3.4342e+06
3.43974e+06
3.44473e+06
3.44903e+06
3.45272e+06
3.45594e+06
3.45879e+06
3.46132e+06
3.46359e+06
3.46563e+06
3.46748e+06
3.46916e+06
3.47069e+06
3.47208e+06
3.47336e+06
3.47453e+06
3.47561e+06
3.4766e+06
3.47752e+06
3.47837e+06
3.47916e+06
3.4799e+06
3.48059e+06
3.48124e+06
3.48184e+06
3.48241e+06
3.48293e+06
3.48343e+06
3.48389e+06
3.48431e+06
3.48471e+06
3.48506e+06
3.48539e+06
3.48568e+06
3.48594e+06
3.48616e+06
3.48634e+06
3.48648e+06
3.48659e+06
3.48666e+06
3.48669e+06
3.48668e+06
3.48665e+06
3.48659e+06
3.48651e+06
3.48644e+06
3.48637e+06
3.43455e+06
3.43987e+06
3.44473e+06
3.44886e+06
3.45247e+06
3.45564e+06
3.45846e+06
3.46098e+06
3.46326e+06
3.46532e+06
3.46719e+06
3.46889e+06
3.47043e+06
3.47185e+06
3.47315e+06
3.47434e+06
3.47543e+06
3.47645e+06
3.47738e+06
3.47825e+06
3.47906e+06
3.47982e+06
3.48052e+06
3.48118e+06
3.48179e+06
3.48237e+06
3.48291e+06
3.48342e+06
3.48388e+06
3.48432e+06
3.48472e+06
3.48509e+06
3.48542e+06
3.48571e+06
3.48597e+06
3.4862e+06
3.48638e+06
3.48652e+06
3.48663e+06
3.4867e+06
3.48673e+06
3.48672e+06
3.48668e+06
3.48661e+06
3.48653e+06
3.48645e+06
3.48639e+06
3.43489e+06
3.43991e+06
3.44464e+06
3.44862e+06
3.45216e+06
3.45529e+06
3.4581e+06
3.46063e+06
3.46293e+06
3.46501e+06
3.4669e+06
3.46862e+06
3.47019e+06
3.47163e+06
3.47295e+06
3.47416e+06
3.47528e+06
3.47631e+06
3.47726e+06
3.47814e+06
3.47897e+06
3.47974e+06
3.48045e+06
3.48113e+06
3.48176e+06
3.48234e+06
3.4829e+06
3.48341e+06
3.48389e+06
3.48433e+06
3.48474e+06
3.48511e+06
3.48545e+06
3.48575e+06
3.48602e+06
3.48624e+06
3.48643e+06
3.48657e+06
3.48668e+06
3.48674e+06
3.48677e+06
3.48675e+06
3.48671e+06
3.48664e+06
3.48655e+06
3.48646e+06
3.4864e+06
3.43488e+06
3.4397e+06
3.44445e+06
3.44829e+06
3.4518e+06
3.4549e+06
3.45773e+06
3.46028e+06
3.4626e+06
3.46471e+06
3.46663e+06
3.46838e+06
3.46998e+06
3.47144e+06
3.47278e+06
3.474e+06
3.47514e+06
3.47618e+06
3.47715e+06
3.47805e+06
3.47889e+06
3.47967e+06
3.4804e+06
3.48108e+06
3.48172e+06
3.48232e+06
3.48289e+06
3.48341e+06
3.4839e+06
3.48435e+06
3.48477e+06
3.48515e+06
3.48549e+06
3.4858e+06
3.48606e+06
3.48629e+06
3.48648e+06
3.48663e+06
3.48673e+06
3.48679e+06
3.48681e+06
3.4868e+06
3.48674e+06
3.48666e+06
3.48656e+06
3.48647e+06
3.48641e+06
3.43561e+06
3.43997e+06
3.44441e+06
3.44804e+06
3.45149e+06
3.45457e+06
3.45741e+06
3.45999e+06
3.46234e+06
3.46447e+06
3.46642e+06
3.46819e+06
3.4698e+06
3.47128e+06
3.47263e+06
3.47387e+06
3.47502e+06
3.47607e+06
3.47705e+06
3.47797e+06
3.47882e+06
3.47961e+06
3.48035e+06
3.48105e+06
3.4817e+06
3.48231e+06
3.48288e+06
3.48342e+06
3.48392e+06
3.48438e+06
3.4848e+06
3.48519e+06
3.48554e+06
3.48585e+06
3.48612e+06
3.48635e+06
3.48654e+06
3.48669e+06
3.48679e+06
3.48685e+06
3.48687e+06
3.48684e+06
3.48678e+06
3.48669e+06
3.48658e+06
3.48648e+06
3.48641e+06
3.43856e+06
3.44141e+06
3.44489e+06
3.44799e+06
3.45128e+06
3.45432e+06
3.45716e+06
3.45976e+06
3.46213e+06
3.46429e+06
3.46625e+06
3.46804e+06
3.46967e+06
3.47115e+06
3.47251e+06
3.47377e+06
3.47492e+06
3.47599e+06
3.47698e+06
3.4779e+06
3.47876e+06
3.47956e+06
3.48032e+06
3.48102e+06
3.48169e+06
3.48231e+06
3.48289e+06
3.48343e+06
3.48394e+06
3.48441e+06
3.48484e+06
3.48523e+06
3.48559e+06
3.4859e+06
3.48618e+06
3.48641e+06
3.4866e+06
3.48675e+06
3.48685e+06
3.48691e+06
3.48692e+06
3.48689e+06
3.48682e+06
3.48672e+06
3.4866e+06
3.48649e+06
3.4864e+06
3.48707e+06
3.4871e+06
3.4871e+06
3.48707e+06
3.48701e+06
3.48692e+06
3.48678e+06
3.48663e+06
3.48638e+06
3.48679e+06
3.48689e+06
3.48696e+06
3.48701e+06
3.48704e+06
3.48704e+06
3.48701e+06
3.48695e+06
3.48686e+06
3.48673e+06
3.48658e+06
3.48633e+06
3.53461e+06
3.52178e+06
3.51152e+06
3.50444e+06
3.49908e+06
3.49513e+06
3.49216e+06
3.48993e+06
3.48825e+06
3.487e+06
3.48607e+06
3.48539e+06
3.48491e+06
3.48458e+06
3.48437e+06
3.48426e+06
3.48423e+06
3.48425e+06
3.48432e+06
3.48443e+06
3.48457e+06
3.48472e+06
3.48489e+06
3.48508e+06
3.48526e+06
3.48545e+06
3.48564e+06
3.48583e+06
3.48601e+06
3.48618e+06
3.48634e+06
3.48648e+06
3.48661e+06
3.48673e+06
3.48682e+06
3.4869e+06
3.48695e+06
3.48698e+06
3.48698e+06
3.48696e+06
3.4869e+06
3.48681e+06
3.48668e+06
3.48653e+06
3.48629e+06
3.52585e+06
3.51518e+06
3.50678e+06
3.50094e+06
3.49646e+06
3.49316e+06
3.49064e+06
3.48876e+06
3.48733e+06
3.48627e+06
3.48548e+06
3.48491e+06
3.48451e+06
3.48425e+06
3.48409e+06
3.48402e+06
3.48402e+06
3.48407e+06
3.48416e+06
3.48428e+06
3.48443e+06
3.4846e+06
3.48478e+06
3.48497e+06
3.48516e+06
3.48536e+06
3.48555e+06
3.48574e+06
3.48593e+06
3.4861e+06
3.48626e+06
3.48641e+06
3.48655e+06
3.48666e+06
3.48676e+06
3.48684e+06
3.4869e+06
3.48693e+06
3.48693e+06
3.48691e+06
3.48685e+06
3.48677e+06
3.48664e+06
3.48649e+06
3.48625e+06
3.51469e+06
3.50684e+06
3.50102e+06
3.4967e+06
3.49336e+06
3.49084e+06
3.48889e+06
3.48741e+06
3.48628e+06
3.48544e+06
3.48482e+06
3.48438e+06
3.48407e+06
3.48389e+06
3.48379e+06
3.48376e+06
3.48379e+06
3.48387e+06
3.48399e+06
3.48413e+06
3.48429e+06
3.48447e+06
3.48466e+06
3.48486e+06
3.48506e+06
3.48527e+06
3.48547e+06
3.48566e+06
3.48585e+06
3.48603e+06
3.48619e+06
3.48635e+06
3.48648e+06
3.4866e+06
3.48671e+06
3.48678e+06
3.48684e+06
3.48687e+06
3.48688e+06
3.48686e+06
3.48681e+06
3.48672e+06
3.4866e+06
3.48645e+06
3.48621e+06
3.50189e+06
3.49769e+06
3.49464e+06
3.49205e+06
3.48996e+06
3.4883e+06
3.48697e+06
3.48593e+06
3.48514e+06
3.48454e+06
3.4841e+06
3.4838e+06
3.4836e+06
3.48349e+06
3.48346e+06
3.48348e+06
3.48356e+06
3.48366e+06
3.4838e+06
3.48397e+06
3.48415e+06
3.48434e+06
3.48455e+06
3.48475e+06
3.48496e+06
3.48517e+06
3.48538e+06
3.48558e+06
3.48577e+06
3.48596e+06
3.48613e+06
3.48628e+06
3.48642e+06
3.48655e+06
3.48665e+06
3.48673e+06
3.48679e+06
3.48683e+06
3.48683e+06
3.48681e+06
3.48676e+06
3.48668e+06
3.48656e+06
3.48641e+06
3.48618e+06
3.48898e+06
3.48875e+06
3.48819e+06
3.48734e+06
3.48647e+06
3.48567e+06
3.48496e+06
3.48439e+06
3.48393e+06
3.48359e+06
3.48334e+06
3.48318e+06
3.4831e+06
3.48308e+06
3.48311e+06
3.48319e+06
3.48331e+06
3.48345e+06
3.48362e+06
3.4838e+06
3.484e+06
3.48421e+06
3.48443e+06
3.48464e+06
3.48486e+06
3.48508e+06
3.48529e+06
3.4855e+06
3.4857e+06
3.48589e+06
3.48606e+06
3.48622e+06
3.48637e+06
3.48649e+06
3.4866e+06
3.48668e+06
3.48674e+06
3.48678e+06
3.48679e+06
3.48677e+06
3.48672e+06
3.48664e+06
3.48652e+06
3.48638e+06
3.48615e+06
3.4779e+06
3.48094e+06
3.48223e+06
3.48288e+06
3.48307e+06
3.48307e+06
3.48296e+06
3.48282e+06
3.4827e+06
3.48261e+06
3.48256e+06
3.48255e+06
3.48258e+06
3.48265e+06
3.48276e+06
3.48289e+06
3.48305e+06
3.48323e+06
3.48342e+06
3.48363e+06
3.48385e+06
3.48408e+06
3.4843e+06
3.48453e+06
3.48476e+06
3.48499e+06
3.48521e+06
3.48542e+06
3.48563e+06
3.48582e+06
3.486e+06
3.48616e+06
3.48631e+06
3.48644e+06
3.48655e+06
3.48663e+06
3.4867e+06
3.48674e+06
3.48675e+06
3.48673e+06
3.48669e+06
3.48661e+06
3.48649e+06
3.48635e+06
3.48613e+06
3.4696e+06
3.47455e+06
3.47708e+06
3.47888e+06
3.47993e+06
3.4806e+06
3.48101e+06
3.48128e+06
3.48147e+06
3.48162e+06
3.48176e+06
3.4819e+06
3.48205e+06
3.48221e+06
3.48239e+06
3.48258e+06
3.48278e+06
3.483e+06
3.48323e+06
3.48346e+06
3.4837e+06
3.48394e+06
3.48418e+06
3.48442e+06
3.48466e+06
3.4849e+06
3.48513e+06
3.48535e+06
3.48556e+06
3.48575e+06
3.48594e+06
3.48611e+06
3.48626e+06
3.48639e+06
3.4865e+06
3.48659e+06
3.48666e+06
3.4867e+06
3.48671e+06
3.4867e+06
3.48665e+06
3.48658e+06
3.48646e+06
3.48632e+06
3.4861e+06
3.46378e+06
3.46945e+06
3.47281e+06
3.47539e+06
3.47709e+06
3.47832e+06
3.47917e+06
3.4798e+06
3.48028e+06
3.48065e+06
3.48097e+06
3.48125e+06
3.48151e+06
3.48176e+06
3.48201e+06
3.48226e+06
3.48251e+06
3.48277e+06
3.48302e+06
3.48328e+06
3.48354e+06
3.4838e+06
3.48406e+06
3.48432e+06
3.48457e+06
3.48481e+06
3.48505e+06
3.48527e+06
3.48549e+06
3.48569e+06
3.48588e+06
3.48605e+06
3.48621e+06
3.48634e+06
3.48646e+06
3.48655e+06
3.48662e+06
3.48666e+06
3.48668e+06
3.48666e+06
3.48662e+06
3.48655e+06
3.48644e+06
3.4863e+06
3.48609e+06
3.4596e+06
3.46534e+06
3.46928e+06
3.47237e+06
3.47457e+06
3.47623e+06
3.47746e+06
3.4784e+06
3.47913e+06
3.47971e+06
3.4802e+06
3.48061e+06
3.48098e+06
3.48132e+06
3.48164e+06
3.48194e+06
3.48224e+06
3.48253e+06
3.48282e+06
3.48311e+06
3.48339e+06
3.48366e+06
3.48394e+06
3.48421e+06
3.48447e+06
3.48472e+06
3.48496e+06
3.4852e+06
3.48542e+06
3.48563e+06
3.48582e+06
3.486e+06
3.48616e+06
3.4863e+06
3.48641e+06
3.48651e+06
3.48658e+06
3.48663e+06
3.48664e+06
3.48663e+06
3.48659e+06
3.48652e+06
3.48641e+06
3.48628e+06
3.48607e+06
3.45627e+06
3.46193e+06
3.46632e+06
3.46976e+06
3.47235e+06
3.47436e+06
3.4759e+06
3.4771e+06
3.47804e+06
3.47881e+06
3.47944e+06
3.47998e+06
3.48045e+06
3.48088e+06
3.48126e+06
3.48162e+06
3.48197e+06
3.4823e+06
3.48262e+06
3.48293e+06
3.48323e+06
3.48353e+06
3.48382e+06
3.4841e+06
3.48437e+06
3.48463e+06
3.48489e+06
3.48513e+06
3.48536e+06
3.48557e+06
3.48577e+06
3.48595e+06
3.48611e+06
3.48626e+06
3.48638e+06
3.48647e+06
3.48655e+06
3.48659e+06
3.48661e+06
3.48661e+06
3.48657e+06
3.4865e+06
3.48639e+06
3.48627e+06
3.48606e+06
3.45336e+06
3.45901e+06
3.46378e+06
3.46748e+06
3.47039e+06
3.47268e+06
3.47447e+06
3.47589e+06
3.47703e+06
3.47796e+06
3.47872e+06
3.47938e+06
3.47994e+06
3.48044e+06
3.48089e+06
3.48131e+06
3.48169e+06
3.48206e+06
3.48241e+06
3.48275e+06
3.48307e+06
3.48339e+06
3.48369e+06
3.48399e+06
3.48427e+06
3.48455e+06
3.48481e+06
3.48506e+06
3.48529e+06
3.48551e+06
3.48572e+06
3.4859e+06
3.48607e+06
3.48622e+06
3.48634e+06
3.48644e+06
3.48652e+06
3.48657e+06
3.48659e+06
3.48658e+06
3.48655e+06
3.48648e+06
3.48638e+06
3.48625e+06
3.48605e+06
3.45071e+06
3.45648e+06
3.46158e+06
3.46551e+06
3.46867e+06
3.47118e+06
3.47318e+06
3.47478e+06
3.47608e+06
3.47715e+06
3.47804e+06
3.47879e+06
3.47944e+06
3.48002e+06
3.48053e+06
3.48099e+06
3.48142e+06
3.48183e+06
3.48221e+06
3.48257e+06
3.48292e+06
3.48325e+06
3.48357e+06
3.48388e+06
3.48418e+06
3.48446e+06
3.48473e+06
3.48499e+06
3.48523e+06
3.48546e+06
3.48567e+06
3.48586e+06
3.48603e+06
3.48618e+06
3.48631e+06
3.48641e+06
3.48649e+06
3.48654e+06
3.48657e+06
3.48656e+06
3.48653e+06
3.48646e+06
3.48636e+06
3.48624e+06
3.48605e+06
3.44836e+06
3.45432e+06
3.45969e+06
3.4638e+06
3.46717e+06
3.46985e+06
3.47202e+06
3.47377e+06
3.47521e+06
3.4764e+06
3.47739e+06
3.47824e+06
3.47897e+06
3.4796e+06
3.48017e+06
3.48069e+06
3.48116e+06
3.4816e+06
3.48201e+06
3.4824e+06
3.48277e+06
3.48312e+06
3.48345e+06
3.48378e+06
3.48409e+06
3.48438e+06
3.48466e+06
3.48493e+06
3.48518e+06
3.48541e+06
3.48562e+06
3.48582e+06
3.48599e+06
3.48615e+06
3.48628e+06
3.48638e+06
3.48646e+06
3.48652e+06
3.48654e+06
3.48654e+06
3.48651e+06
3.48645e+06
3.48635e+06
3.48623e+06
3.48605e+06
3.44637e+06
3.45251e+06
3.45808e+06
3.46234e+06
3.46586e+06
3.46868e+06
3.47098e+06
3.47286e+06
3.47441e+06
3.4757e+06
3.47679e+06
3.47771e+06
3.47851e+06
3.47921e+06
3.47983e+06
3.48039e+06
3.4809e+06
3.48137e+06
3.48181e+06
3.48222e+06
3.48261e+06
3.48298e+06
3.48334e+06
3.48367e+06
3.484e+06
3.4843e+06
3.48459e+06
3.48486e+06
3.48512e+06
3.48536e+06
3.48558e+06
3.48578e+06
3.48596e+06
3.48612e+06
3.48625e+06
3.48636e+06
3.48644e+06
3.4865e+06
3.48653e+06
3.48653e+06
3.4865e+06
3.48644e+06
3.48634e+06
3.48623e+06
3.48605e+06
3.44479e+06
3.45106e+06
3.45674e+06
3.4611e+06
3.46474e+06
3.46765e+06
3.47006e+06
3.47204e+06
3.47368e+06
3.47506e+06
3.47622e+06
3.47721e+06
3.47807e+06
3.47883e+06
3.47949e+06
3.4801e+06
3.48064e+06
3.48115e+06
3.48161e+06
3.48205e+06
3.48246e+06
3.48285e+06
3.48322e+06
3.48357e+06
3.48391e+06
3.48422e+06
3.48452e+06
3.4848e+06
3.48507e+06
3.48531e+06
3.48554e+06
3.48575e+06
3.48593e+06
3.48609e+06
3.48623e+06
3.48634e+06
3.48642e+06
3.48648e+06
3.48651e+06
3.48651e+06
3.48649e+06
3.48643e+06
3.48634e+06
3.48623e+06
3.48605e+06
3.44358e+06
3.44993e+06
3.45566e+06
3.46008e+06
3.46378e+06
3.46677e+06
3.46925e+06
3.4713e+06
3.47302e+06
3.47446e+06
3.47569e+06
3.47674e+06
3.47766e+06
3.47846e+06
3.47917e+06
3.47981e+06
3.4804e+06
3.48093e+06
3.48142e+06
3.48188e+06
3.48232e+06
3.48272e+06
3.48311e+06
3.48347e+06
3.48382e+06
3.48415e+06
3.48446e+06
3.48475e+06
3.48502e+06
3.48527e+06
3.4855e+06
3.48571e+06
3.4859e+06
3.48607e+06
3.48621e+06
3.48632e+06
3.48641e+06
3.48647e+06
3.4865e+06
3.4865e+06
3.48648e+06
3.48642e+06
3.48634e+06
3.48623e+06
3.48606e+06
3.44271e+06
3.44908e+06
3.45481e+06
3.45924e+06
3.46298e+06
3.46601e+06
3.46854e+06
3.47064e+06
3.47242e+06
3.47392e+06
3.4752e+06
3.4763e+06
3.47727e+06
3.47811e+06
3.47886e+06
3.47954e+06
3.48015e+06
3.48072e+06
3.48124e+06
3.48172e+06
3.48217e+06
3.4826e+06
3.483e+06
3.48338e+06
3.48374e+06
3.48407e+06
3.48439e+06
3.48469e+06
3.48497e+06
3.48523e+06
3.48547e+06
3.48569e+06
3.48588e+06
3.48605e+06
3.48619e+06
3.48631e+06
3.4864e+06
3.48646e+06
3.48649e+06
3.4865e+06
3.48647e+06
3.48642e+06
3.48633e+06
3.48623e+06
3.48607e+06
3.44212e+06