/*--------------------------------*- C++ -*----------------------------------*\
| =========                 |                                                 |
| \\      /  F ield         | OpenFOAM: The Open Source CFD Toolbox           |
|  \\    /   O peration     | Version:  v2012                                 |
|   \\  /    A nd           | Website:  www.openfoam.com                      |
|    \\/     M anipulation  |                                                 |
\*---------------------------------------------------------------------------*/
FoamFile
{
    version     2.0;
    format      ascii;
    class       volScalarField;
    location    "0.95";
    object      alpha.water;
}
// * * * * * * * * * * * * * * * * * * * * * * * * * * * * * * * * * * * * * //

dimensions      [0 0 0 0 0 0 0];


internalField   nonuniform List<scalar> 
20000
(
-4.75977e-136
-1.25902e-124
-3.41151e-114
-1.0223e-100
-4.29922e-95
-9.8257e-88
-8.84385e-83
-6.13606e-77
-6.44551e-73
-7.41689e-71
-4.67421e-69
-3.70751e-67
-1.04668e-64
-3.01059e-63
-2.70284e-61
-4.98798e-60
-4.25014e-58
-1.54598e-55
-1.5976e-53
-1.14578e-52
-3.53321e-52
-6.46405e-52
-8.05218e-52
-7.36013e-52
-5.16225e-52
-2.86166e-52
-1.30225e-52
-7.00832e-53
-1.02779e-52
-1.93629e-52
-6.67754e-51
-6.55384e-49
-2.94266e-48
-5.59574e-48
-6.13192e-48
-4.39988e-48
-2.20754e-48
-8.04863e-49
-2.18531e-49
-4.36529e-50
-6.90998e-51
-8.40653e-52
-7.86781e-53
-5.66397e-54
-3.12958e-55
-1.32052e-56
-4.2278e-58
-1.01787e-59
-1.82341e-61
-2.40013e-63
-2.28737e-65
-1.55264e-67
-7.36416e-70
-2.38576e-72
-5.13459e-75
-7.07928e-78
-5.93883e-81
-2.79733e-84
-6.39609e-88
-4.93115e-92
-1.04608e-134
-3.30441e-122
-1.16948e-112
-2.57047e-99
-9.30628e-94
-1.8396e-86
-1.37462e-81
-7.80078e-76
-6.73831e-72
-7.02134e-70
-4.00507e-68
-2.89666e-66
-7.63688e-64
-2.05788e-62
-1.71295e-60
-2.98408e-59
-2.34925e-57
-8.15623e-55
-8.10183e-53
-5.64464e-52
-1.70062e-51
-3.05048e-51
-3.73589e-51
-3.36535e-51
-2.3314e-51
-1.27911e-51
-5.75581e-52
-2.91038e-52
-3.82954e-52
-7.01442e-52
-2.46524e-50
-2.50517e-48
-1.13756e-47
-2.1864e-47
-2.42312e-47
-1.76027e-47
-8.95221e-48
-3.31266e-48
-9.14027e-49
-1.85898e-49
-2.99815e-50
-3.72106e-51
-3.55757e-52
-2.6197e-53
-1.48256e-54
-6.41518e-56
-2.10866e-57
-5.21714e-59
-9.61124e-61
-1.30151e-62
-1.27597e-64
-8.90399e-67
-4.33575e-69
-1.439e-71
-3.16312e-74
-4.43638e-77
-3.76656e-80
-1.78364e-83
-4.05877e-87
-3.03217e-91
-2.46339e-133
-8.06683e-120
-3.953e-111
-6.37541e-98
-1.98569e-92
-3.39172e-85
-2.10378e-80
-9.78629e-75
-6.93081e-71
-6.54013e-69
-3.37526e-67
-2.22477e-65
-5.47725e-63
-1.38313e-61
-1.06705e-59
-1.75455e-58
-1.27626e-56
-4.22877e-54
-4.03764e-52
-2.73322e-51
-8.04671e-51
-1.41538e-50
-1.70448e-50
-1.51344e-50
-1.03577e-50
-5.62528e-51
-2.50456e-51
-1.19768e-51
-1.40909e-51
-2.4985e-51
-8.94284e-50
-9.41662e-48
-4.32637e-47
-8.40799e-47
-9.42771e-47
-6.93631e-47
-3.57698e-47
-1.34384e-47
-3.76941e-48
-7.80829e-49
-1.28353e-49
-1.62575e-50
-1.5884e-51
-1.19693e-52
-6.94107e-54
-3.08161e-55
-1.04052e-56
-2.64728e-58
-5.01908e-60
-6.99814e-62
-7.06454e-64
-5.07344e-66
-2.53923e-68
-8.6431e-71
-1.94211e-73
-2.77171e-76
-2.3795e-79
-1.1291e-82
-2.53539e-86
-1.79872e-90
-6.36842e-132
-1.76927e-117
-1.31805e-109
-1.56108e-96
-4.17648e-91
-6.15579e-84
-3.16959e-79
-1.21139e-73
-7.01179e-70
-5.99205e-68
-2.79663e-66
-1.67904e-64
-3.85972e-62
-9.13667e-61
-6.53055e-59
-1.01345e-57
-6.81147e-56
-2.15372e-53
-1.97662e-51
-1.30032e-50
-3.74151e-50
-6.4547e-50
-7.64486e-50
-6.69215e-50
-4.52539e-50
-2.43339e-50
-1.07257e-50
-4.88088e-51
-5.12289e-51
-8.74918e-51
-3.18655e-49
-3.47968e-47
-1.61831e-46
-3.18144e-46
-3.61055e-46
-2.69136e-46
-1.40783e-46
-5.37173e-47
-1.53226e-47
-3.23394e-48
-5.42001e-49
-7.00865e-50
-7.00032e-51
-5.40015e-52
-3.21025e-53
-1.463e-54
-5.07708e-56
-1.32906e-57
-2.59501e-59
-3.72845e-61
-3.87913e-63
-2.86997e-65
-1.47805e-67
-5.16581e-70
-1.18785e-72
-1.72631e-75
-1.49854e-78
-7.11428e-82
-1.56993e-85
-1.05827e-89
-1.7008e-130
-3.31765e-115
-4.3334e-108
-3.78691e-95
-8.65523e-90
-1.09924e-82
-4.69928e-78
-1.47906e-72
-6.97564e-69
-5.39882e-67
-2.2778e-65
-1.2449e-63
-2.6718e-61
-5.93073e-60
-3.92599e-58
-5.74934e-57
-3.57053e-55
-1.07723e-52
-9.5029e-51
-6.0764e-50
-1.70911e-49
-2.89235e-49
-3.36976e-49
-2.90869e-49
-1.94384e-49
-1.03507e-49
-4.51887e-50
-1.96824e-50
-1.84133e-50
-3.01169e-50
-1.11494e-48
-1.26367e-46
-5.95197e-46
-1.18412e-45
-1.36067e-45
-1.02799e-45
-5.45644e-46
-2.11522e-46
-6.13778e-47
-1.3203e-47
-2.25685e-48
-2.98036e-49
-3.04423e-50
-2.40492e-51
-1.46614e-52
-6.8615e-54
-2.44843e-55
-6.59827e-57
-1.3276e-58
-1.96699e-60
-2.11097e-62
-1.61057e-64
-8.54464e-67
-3.07011e-69
-7.23318e-72
-1.07159e-74
-9.41119e-78
-4.46878e-81
-9.67517e-85
-6.19208e-89
-4.38378e-129
-4.83022e-113
-1.40537e-106
-9.26204e-94
-1.7674e-88
-1.93103e-81
-6.85518e-77
-1.78049e-71
-6.82225e-68
-4.78208e-66
-1.82301e-64
-9.06413e-63
-1.81599e-60
-3.78126e-59
-2.31738e-57
-3.20205e-56
-1.8375e-54
-5.28912e-52
-4.48485e-50
-2.78801e-49
-7.66705e-49
-1.27305e-48
-1.45927e-48
-1.24228e-48
-8.20611e-49
-4.32795e-49
-1.87231e-49
-7.84721e-50
-6.54719e-50
-1.019e-49
-3.82921e-48
-4.50851e-46
-2.15169e-45
-4.33392e-45
-5.04444e-45
-3.86408e-45
-2.08193e-45
-8.20243e-46
-2.42203e-46
-5.31184e-47
-9.26354e-48
-1.24972e-48
-1.30583e-49
-1.0568e-50
-6.60945e-52
-3.1777e-53
-1.16646e-54
-3.23769e-56
-6.71678e-58
-1.02692e-59
-1.13773e-61
-8.9599e-64
-4.90231e-66
-1.81308e-68
-4.38259e-71
-6.62753e-74
-5.89561e-77
-2.8019e-80
-5.9523e-84
-3.61036e-88
-1.05507e-127
-4.21112e-111
-4.49419e-105
-2.39503e-92
-3.55468e-87
-3.33596e-80
-9.83624e-76
-2.11202e-70
-6.55791e-67
-4.16333e-65
-1.4334e-63
-6.47939e-62
-1.21163e-59
-2.36735e-58
-1.3427e-56
-1.75028e-55
-9.28089e-54
-2.54846e-51
-2.07708e-49
-1.25559e-48
-3.37655e-48
-5.50188e-48
-6.20617e-48
-5.21169e-48
-3.40356e-48
-1.77826e-48
-7.62603e-49
-3.09045e-49
-2.30435e-49
-3.38878e-49
-1.29042e-47
-1.57974e-45
-7.64323e-45
-1.55931e-44
-1.83915e-44
-1.42894e-44
-7.81782e-45
-3.13142e-45
-9.41248e-46
-2.1053e-46
-3.74698e-47
-5.16558e-48
-5.52328e-49
-4.58056e-50
-2.93991e-51
-1.45258e-52
-5.48726e-54
-1.56943e-55
-3.35879e-57
-5.30234e-59
-6.06901e-61
-4.93791e-63
-2.7893e-65
-1.06322e-67
-2.64061e-70
-4.08251e-73
-3.68433e-76
-1.75522e-79
-3.6645e-83
-2.10884e-87
-2.35789e-126
-4.68727e-118
-1.41754e-103
-6.64511e-91
-7.04121e-86
-5.6669e-79
-1.38788e-74
-2.46723e-69
-6.19395e-66
-3.56151e-64
-1.10689e-62
-4.54552e-61
-7.9321e-59
-1.45481e-57
-7.63333e-56
-9.38576e-55
-4.59868e-53
-1.20449e-50
-9.4361e-49
-5.54794e-48
-1.45928e-47
-2.33389e-47
-2.59122e-47
-2.14692e-47
-1.3864e-47
-7.17709e-48
-3.05224e-48
-1.20116e-48
-8.03254e-49
-1.10772e-48
-4.2652e-47
-5.43415e-45
-2.66684e-44
-5.51324e-44
-6.59209e-44
-5.19694e-44
-2.88823e-44
-1.17657e-44
-3.60118e-45
-8.21745e-46
-1.49305e-46
-2.10399e-47
-2.30277e-48
-1.95759e-49
-1.28977e-50
-6.55122e-52
-2.54772e-53
-7.51164e-55
-1.6592e-56
-2.70609e-58
-3.20216e-60
-2.69403e-62
-1.57277e-64
-6.18667e-67
-1.58111e-69
-2.50352e-72
-2.29663e-75
-1.09921e-78
-2.26159e-82
-1.23935e-86
-4.90095e-125
-6.27814e-117
-4.40797e-102
-1.39283e-89
-1.37302e-84
-9.46265e-78
-1.92515e-73
-2.83672e-68
-5.7469e-65
-2.99293e-63
-8.39252e-62
-3.12861e-60
-5.09362e-58
-8.77256e-57
-4.25658e-55
-4.93585e-54
-2.23457e-52
-5.5821e-50
-4.20334e-48
-2.40423e-47
-6.18655e-47
-9.7137e-47
-1.06171e-46
-8.68083e-47
-5.54419e-47
-2.8443e-47
-1.19992e-47
-4.60316e-48
-2.77433e-48
-3.55937e-48
-1.38215e-46
-1.83442e-44
-9.1365e-44
-1.91491e-43
-2.3221e-43
-1.85825e-43
-1.04944e-43
-4.34933e-44
-1.356e-44
-3.15772e-45
-5.85879e-46
-8.44182e-47
-9.46012e-48
-8.24591e-49
-5.57868e-50
-2.91391e-51
-1.16698e-52
-3.54819e-54
-8.09252e-56
-1.36431e-57
-1.67011e-59
-1.45408e-61
-8.78214e-64
-3.56945e-66
-9.40168e-69
-1.52746e-71
-1.42759e-74
-6.88345e-78
-1.40084e-81
-7.34768e-86
-9.50626e-124
-7.84208e-116
-1.35145e-100
-2.46212e-88
-2.63547e-83
-1.55304e-76
-2.62478e-72
-3.20826e-67
-5.23647e-64
-2.46991e-62
-6.24579e-61
-2.11182e-59
-3.20695e-57
-5.18845e-56
-2.3272e-54
-2.54445e-53
-1.06434e-51
-2.53549e-49
-1.83513e-47
-1.02139e-46
-2.57172e-46
-3.96499e-46
-4.26731e-46
-3.44379e-46
-2.17571e-46
-1.10636e-46
-4.63141e-47
-1.73774e-47
-9.497e-48
-1.12448e-47
-4.38919e-46
-6.07453e-44
-3.07226e-43
-6.53121e-43
-8.03586e-43
-6.53025e-43
-3.74901e-43
-1.58129e-43
-5.02347e-44
-1.19419e-44
-2.26326e-45
-3.33537e-46
-3.82803e-47
-3.42221e-48
-2.37805e-49
-1.27768e-50
-5.27113e-52
-1.6533e-53
-3.89507e-55
-6.79105e-57
-8.60517e-59
-7.75909e-61
-4.85278e-63
-2.04048e-65
-5.54764e-68
-9.26618e-71
-8.84489e-74
-4.31005e-77
-8.71353e-81
-4.40203e-85
-1.72558e-122
-9.08734e-115
-4.08394e-99
-5.43581e-87
-4.97691e-82
-2.50428e-75
-3.51569e-71
-3.56707e-66
-4.68455e-63
-2.00114e-61
-4.56109e-60
-1.39752e-58
-1.97889e-56
-3.00868e-55
-1.24701e-53
-1.28525e-52
-4.96713e-51
-1.12826e-48
-7.84907e-47
-4.25198e-46
-1.04779e-45
-1.58659e-45
-1.68173e-45
-1.33985e-45
-8.3751e-46
-4.22203e-46
-1.75428e-46
-6.45658e-47
-3.22229e-47
-3.49368e-47
-1.36528e-45
-1.97235e-43
-1.01357e-42
-2.18663e-42
-2.73096e-42
-2.25458e-42
-1.31629e-42
-5.65241e-43
-1.8303e-43
-4.44311e-44
-8.60403e-45
-1.29721e-45
-1.52521e-46
-1.39883e-47
-9.98643e-49
-5.52059e-50
-2.34682e-51
-7.59575e-53
-1.84916e-54
-3.33565e-56
-4.37753e-58
-4.09065e-60
-2.65174e-62
-1.15485e-64
-3.24593e-67
-5.58496e-70
-5.45873e-73
-2.69747e-76
-5.4435e-80
-2.66736e-84
-2.93783e-121
-9.71201e-114
-1.21627e-97
-1.18207e-85
-9.24495e-81
-3.96679e-74
-4.62551e-70
-3.89747e-65
-4.11304e-62
-1.59105e-60
-3.26704e-59
-9.06256e-58
-1.19619e-55
-1.70977e-54
-6.54591e-53
-6.35823e-52
-2.27016e-50
-4.91617e-48
-3.2873e-46
-1.73368e-45
-4.18211e-45
-6.22088e-45
-6.4955e-45
-5.10998e-45
-3.16088e-45
-1.58e-45
-6.51787e-46
-2.35897e-46
-1.08345e-46
-1.06791e-46
-4.15776e-45
-6.2765e-43
-3.27928e-42
-7.18316e-42
-9.11082e-42
-7.64443e-42
-4.54046e-42
-1.98576e-42
-6.55631e-43
-1.62576e-43
-3.21775e-44
-4.96455e-45
-5.98136e-46
-5.62917e-47
-4.12981e-48
-2.34956e-49
-1.02945e-50
-3.43924e-52
-8.65466e-54
-1.61589e-55
-2.19736e-57
-2.1294e-59
-1.43193e-61
-6.46629e-64
-1.8817e-66
-3.34178e-69
-3.35332e-72
-1.68643e-75
-3.41432e-79
-1.63507e-83
-4.69039e-120
-9.50536e-113
-3.56875e-96
-2.5313e-84
-1.68842e-79
-6.16957e-73
-5.97482e-69
-4.18248e-64
-3.5432e-61
-1.2411e-59
-2.29469e-58
-5.75678e-57
-7.08016e-55
-9.51781e-54
-3.36471e-52
-3.07922e-51
-1.0156e-49
-2.09654e-47
-1.34746e-45
-6.92005e-45
-1.63447e-44
-2.38888e-44
-2.45764e-44
-1.9095e-44
-1.16909e-44
-5.79553e-45
-2.37418e-45
-8.46782e-46
-3.60839e-46
-3.21302e-46
-1.23899e-44
-1.95662e-42
-1.04002e-41
-2.31435e-41
-2.98251e-41
-2.54446e-41
-1.53813e-41
-6.85371e-42
-2.30809e-42
-5.84821e-43
-1.18338e-43
-1.86891e-44
-2.30791e-45
-2.22936e-46
-1.68115e-47
-9.84566e-49
-4.44728e-50
-1.53402e-51
-3.99146e-53
-7.71617e-55
-1.08775e-56
-1.09379e-58
-7.63594e-61
-3.57926e-63
-1.07991e-65
-1.98336e-68
-2.04864e-71
-1.05236e-74
-2.14869e-78
-1.01355e-82
-7.00388e-119
-8.44914e-112
-1.03143e-94
-5.33691e-83
-3.0307e-78
-9.41918e-72
-7.57455e-68
-4.40628e-63
-2.99344e-60
-9.49397e-59
-1.57975e-57
-3.5804e-56
-4.10125e-54
-5.1874e-53
-1.69273e-51
-1.45907e-50
-4.44504e-49
-8.74597e-47
-5.40284e-45
-2.70265e-44
-6.25173e-44
-8.97988e-44
-9.10441e-44
-6.9878e-44
-4.23538e-44
-2.08262e-44
-8.47424e-45
-2.98391e-45
-1.18948e-45
-9.5209e-46
-3.61087e-44
-5.97219e-42
-3.23178e-41
-7.31006e-41
-9.57636e-41
-8.31071e-41
-5.11516e-41
-2.32307e-41
-7.98242e-42
-2.06737e-42
-4.27813e-43
-6.91787e-44
-8.75835e-45
-8.68564e-46
-6.73393e-47
-4.06055e-48
-1.89131e-49
-6.73721e-51
-1.81305e-52
-3.63021e-54
-5.30732e-56
-5.54058e-58
-4.01849e-60
-1.95712e-62
-6.13054e-65
-1.16655e-67
-1.2435e-70
-6.54806e-74
-1.35536e-77
-6.34774e-82
-9.71996e-118
-6.75187e-111
-2.93531e-93
-1.10752e-81
-5.34421e-77
-1.41099e-70
-9.42043e-67
-4.55508e-62
-2.47941e-59
-7.11948e-58
-1.06558e-56
-2.17927e-55
-2.32379e-53
-2.76666e-52
-8.3306e-51
-6.76106e-50
-1.90228e-48
-3.567e-46
-2.11796e-44
-1.03223e-43
-2.33899e-43
-3.30256e-43
-3.30053e-43
-2.50293e-43
-1.50214e-43
-7.3279e-44
-2.9623e-44
-1.03134e-44
-3.87709e-45
-2.78046e-45
-1.02859e-43
-1.7839e-41
-9.8347e-41
-2.2625e-40
-3.01454e-40
-2.66247e-40
-1.66922e-40
-7.72962e-41
-2.71102e-41
-7.17916e-42
-1.51975e-42
-2.51686e-43
-3.26766e-44
-3.32764e-45
-2.65301e-46
-1.64749e-47
-7.91444e-49
-2.91216e-50
-8.1074e-52
-1.68182e-53
-2.55092e-55
-2.76608e-57
-2.08562e-59
-1.05634e-61
-3.43968e-64
-6.79324e-67
-7.49158e-70
-4.0581e-73
-8.55858e-77
-4.01106e-81
-1.23993e-116
-4.79053e-110
-8.22298e-92
-2.26163e-80
-9.25377e-76
-2.07307e-69
-1.1489e-65
-4.61847e-61
-2.01255e-58
-5.23135e-57
-7.03929e-56
-1.29745e-54
-1.28716e-52
-1.44314e-51
-4.00846e-50
-3.06203e-49
-7.95547e-48
-1.42146e-45
-8.11248e-44
-3.85321e-43
-8.55499e-43
-1.18766e-42
-1.17023e-42
-8.77009e-43
-5.21265e-43
-2.52323e-43
-1.01356e-43
-3.4936e-44
-1.24805e-44
-8.00822e-45
-2.8622e-43
-5.21171e-41
-2.92939e-40
-6.85837e-40
-9.29904e-40
-8.36255e-40
-5.34281e-40
-2.52365e-40
-9.03785e-41
-2.448e-41
-5.30274e-42
-8.99654e-43
-1.19809e-43
-1.25317e-44
-1.02764e-45
-6.57328e-47
-3.25749e-48
-1.23835e-49
-3.56731e-51
-7.66879e-53
-1.20715e-54
-1.3602e-56
-1.06683e-58
-5.6239e-61
-1.90585e-63
-3.91305e-66
-4.47483e-69
-2.50181e-72
-5.40233e-76
-2.55283e-80
-1.42819e-115
-2.97026e-109
-2.26674e-90
-4.54322e-79
-1.57264e-74
-2.98599e-68
-1.37336e-64
-4.59066e-60
-1.60026e-57
-3.76493e-56
-4.55232e-55
-7.55179e-54
-6.96572e-52
-7.35799e-51
-1.88475e-49
-1.35459e-48
-3.24924e-47
-5.53144e-45
-3.03435e-43
-1.40496e-42
-3.05713e-42
-4.17384e-42
-4.05564e-42
-3.00436e-42
-1.76882e-42
-8.49743e-43
-3.39236e-43
-1.15889e-43
-3.96222e-44
-2.27632e-44
-7.77508e-43
-1.48836e-40
-8.53598e-40
-2.03514e-39
-2.80958e-39
-2.57394e-39
-1.6766e-39
-8.08137e-40
-2.95629e-40
-8.1931e-41
-1.81661e-41
-3.15822e-42
-4.31521e-43
-4.63704e-44
-3.91192e-45
-2.57795e-46
-1.31814e-47
-5.17807e-49
-1.54378e-50
-3.44002e-52
-5.62128e-54
-6.58449e-56
-5.3748e-58
-2.95124e-60
-1.04197e-62
-2.22745e-65
-2.64713e-68
-1.53228e-71
-3.4033e-75
-1.63317e-79
-1.44592e-114
-1.57636e-108
-6.14624e-89
-8.9752e-78
-2.62175e-73
-4.21449e-67
-1.6083e-63
-4.47096e-59
-1.2459e-56
-2.65256e-55
-2.88067e-54
-4.29482e-53
-3.6806e-51
-3.66465e-50
-8.65457e-49
-5.84969e-48
-1.2952e-46
-2.10055e-44
-1.10758e-42
-5.00071e-42
-1.0667e-41
-1.43257e-41
-1.37303e-41
-1.0056e-41
-5.86569e-42
-2.79706e-42
-1.10998e-42
-3.76148e-43
-1.23873e-43
-6.38943e-44
-2.06047e-42
-4.15231e-40
-2.4319e-39
-5.90845e-39
-8.31012e-39
-7.75978e-39
-5.15568e-39
-2.53704e-39
-9.48388e-40
-2.69027e-40
-6.10755e-41
-1.08837e-41
-1.52612e-42
-1.68518e-43
-1.46287e-44
-9.93381e-46
-5.24161e-47
-2.12811e-48
-6.56763e-50
-1.51728e-51
-2.5745e-53
-3.13596e-55
-2.66542e-57
-1.52545e-59
-5.61649e-62
-1.25183e-64
-1.54912e-67
-9.31081e-71
-2.13612e-74
-1.04796e-78
-1.23621e-113
-6.96137e-108
-1.6386e-87
-1.74304e-76
-4.28519e-72
-5.82589e-66
-1.84415e-62
-4.26426e-58
-9.49376e-56
-1.82862e-54
-1.78282e-53
-2.38519e-52
-1.89756e-50
-1.78174e-49
-3.87866e-48
-2.46436e-47
-5.03535e-46
-7.77902e-44
-3.94272e-42
-1.73634e-41
-3.63175e-41
-4.79895e-41
-4.53787e-41
-3.28653e-41
-1.89967e-41
-8.99325e-42
-3.5481e-42
-1.19362e-42
-3.8078e-43
-1.77171e-43
-5.32325e-42
-1.13095e-39
-6.77003e-39
-1.67733e-38
-2.40494e-38
-2.29019e-38
-1.55285e-38
-7.80459e-39
-2.9825e-39
-8.66283e-40
-2.01431e-40
-3.68032e-41
-5.2974e-42
-6.01229e-43
-5.37154e-44
-3.75937e-45
-2.04739e-46
-8.5926e-48
-2.74543e-49
-6.577e-51
-1.15906e-52
-1.46861e-54
-1.30027e-56
-7.76092e-59
-2.98243e-61
-6.93936e-64
-8.95816e-67
-5.60539e-70
-1.33354e-73
-6.72907e-78
-8.39987e-113
-2.45722e-107
-4.29346e-86
-3.32649e-75
-6.8632e-71
-7.88341e-65
-2.06933e-61
-3.9807e-57
-7.07699e-55
-1.23285e-53
-1.07859e-52
-1.29276e-51
-9.53865e-50
-8.45049e-49
-1.69541e-47
-1.01208e-46
-1.90785e-45
-2.80738e-43
-1.36779e-41
-5.87726e-41
-1.2057e-40
-1.56795e-40
-1.46311e-40
-1.04809e-40
-6.00435e-41
-2.82248e-41
-1.10725e-41
-3.70006e-42
-1.14906e-42
-4.85362e-43
-1.33969e-41
-3.00517e-39
-1.84042e-38
-4.65336e-38
-6.80596e-38
-6.61348e-38
-4.57863e-38
-2.35146e-38
-9.19017e-39
-2.73423e-39
-6.5139e-40
-1.22061e-40
-1.80398e-41
-2.10488e-42
-1.93588e-43
-1.39662e-44
-7.85193e-46
-3.40691e-47
-1.12715e-48
-2.80049e-50
-5.12686e-52
-6.759e-54
-6.23597e-56
-3.88379e-58
-1.55895e-60
-3.79083e-63
-5.11328e-66
-3.33888e-69
-8.26574e-73
-4.31369e-77
-4.1252e-112
-6.5835e-107
-1.10511e-84
-6.2361e-74
-1.07647e-69
-1.04364e-63
-2.27099e-60
-3.63489e-56
-5.15837e-54
-8.12421e-53
-6.37553e-52
-6.83369e-51
-4.67152e-49
-3.90683e-48
-7.22312e-47
-4.04904e-46
-7.03944e-45
-9.86586e-43
-4.62085e-41
-1.93789e-40
-3.90029e-40
-4.99296e-40
-4.59874e-40
-3.259e-40
-1.85082e-40
-8.64022e-41
-3.37083e-41
-1.11947e-41
-3.39862e-42
-1.31331e-42
-3.28174e-41
-7.78495e-39
-4.88239e-38
-1.26082e-37
-1.88237e-37
-1.8676e-37
-1.32091e-37
-6.93534e-38
-2.7733e-38
-8.45501e-39
-2.06445e-39
-3.96866e-40
-6.02411e-41
-7.22792e-42
-6.84454e-43
-5.09112e-44
-2.95522e-45
-1.32587e-46
-4.54278e-48
-1.17077e-49
-2.2269e-51
-3.05536e-53
-2.93841e-55
-1.91044e-57
-8.01528e-60
-2.03891e-62
-2.87778e-65
-1.96513e-68
-5.07815e-72
-2.75427e-76
-1.27102e-111
-1.58067e-106
-2.79279e-83
-1.14791e-72
-1.65237e-68
-1.35083e-62
-2.43598e-59
-3.2446e-55
-3.67468e-53
-5.22993e-52
-3.68007e-51
-3.5208e-50
-2.2272e-48
-1.75923e-47
-2.99715e-46
-1.57679e-45
-2.52729e-44
-3.37347e-42
-1.51903e-40
-6.21967e-40
-1.22845e-39
-1.54843e-39
-1.40802e-39
-9.87347e-40
-5.55951e-40
-2.57788e-40
-1.0003e-40
-3.30289e-41
-9.83726e-42
-3.50747e-42
-7.81807e-41
-1.96456e-38
-1.26309e-37
-3.33416e-37
-5.08493e-37
-5.15439e-37
-3.72644e-37
-2.00127e-37
-8.19175e-38
-2.56021e-38
-6.40921e-39
-1.26439e-39
-1.97171e-40
-2.43328e-41
-2.373e-42
-1.82018e-43
-1.09104e-44
-5.06219e-46
-1.79645e-47
-4.80309e-49
-9.49358e-51
-1.35583e-52
-1.35956e-54
-9.23122e-57
-4.05045e-59
-1.07878e-61
-1.59528e-64
-1.14133e-67
-3.0871e-71
-1.74763e-75
-2.16983e-111
-2.0185e-105
-6.92635e-82
-2.0739e-71
-2.48074e-67
-1.70847e-61
-2.55227e-58
-2.82937e-54
-2.5572e-52
-3.287e-51
-2.07319e-50
-1.76676e-49
-1.03279e-47
-7.70918e-47
-1.21029e-45
-5.97212e-45
-8.82083e-44
-1.12139e-41
-4.85509e-40
-1.94148e-39
-3.76413e-39
-4.6729e-39
-4.19604e-39
-2.91206e-39
-1.62604e-39
-7.49006e-40
-2.89107e-40
-9.4941e-41
-2.78223e-41
-9.23522e-42
-1.80963e-40
-4.82547e-38
-3.18414e-37
-8.59939e-37
-1.34074e-36
-1.38945e-36
-1.02742e-36
-5.64685e-37
-2.36715e-37
-7.58743e-38
-1.94813e-38
-3.94525e-39
-6.32224e-40
-8.02707e-41
-8.06362e-42
-6.37932e-43
-3.94933e-44
-1.89526e-45
-6.96717e-47
-1.93272e-48
-3.97021e-50
-5.90304e-52
-6.17319e-54
-4.37876e-56
-2.01034e-58
-5.6101e-61
-8.70145e-64
-6.53303e-67
-1.85403e-70
-1.09957e-74
-1.96525e-131
-8.36241e-104
-1.68467e-80
-3.67484e-70
-3.64002e-66
-2.10987e-60
-2.61032e-57
-2.40865e-53
-1.73757e-51
-2.01572e-50
-1.13926e-49
-8.62875e-49
-4.65396e-47
-3.28464e-46
-4.75231e-45
-2.19805e-44
-2.99016e-43
-3.62067e-41
-1.50742e-39
-5.88918e-39
-1.12112e-38
-1.37111e-38
-1.21606e-38
-8.35412e-39
-4.62664e-39
-2.11742e-39
-8.13081e-40
-2.65626e-40
-7.67716e-41
-2.39359e-41
-4.0658e-40
-1.15263e-37
-7.81561e-37
-2.1616e-36
-3.44812e-36
-3.65594e-36
-2.76674e-36
-1.5571e-36
-6.68807e-37
-2.19955e-37
-5.79453e-38
-1.20502e-38
-1.98498e-39
-2.59353e-40
-2.68428e-41
-2.19071e-42
-1.40095e-43
-6.95465e-45
-2.64866e-46
-7.62419e-48
-1.62789e-49
-2.52018e-51
-2.74909e-53
-2.03765e-55
-9.79268e-58
-2.86515e-60
-4.6655e-63
-3.68107e-66
-1.09833e-69
-6.84598e-74
-1.93708e-129
-3.65096e-102
-4.01673e-79
-6.38489e-69
-5.2168e-65
-2.54254e-59
-2.60408e-56
-2.00032e-52
-1.15224e-50
-1.20537e-49
-6.10324e-49
-4.09852e-48
-2.03594e-46
-1.35938e-45
-1.8129e-44
-7.85423e-44
-9.83495e-43
-1.13437e-40
-4.54238e-39
-1.73437e-38
-3.2429e-38
-3.908e-38
-3.42425e-38
-2.32903e-38
-1.2795e-38
-5.81861e-39
-2.22299e-39
-7.22602e-40
-2.06368e-40
-6.09487e-41
-8.85715e-40
-2.67489e-37
-1.86627e-36
-5.29141e-36
-8.64342e-36
-9.38313e-36
-7.27229e-36
-4.1934e-36
-1.84648e-36
-6.23369e-37
-1.68564e-37
-3.60094e-38
-6.09918e-39
-8.20298e-40
-8.7493e-41
-7.36759e-42
-4.86772e-43
-2.50002e-44
-9.86518e-46
-2.94695e-47
-6.54083e-49
-1.05447e-50
-1.2e-52
-9.29657e-55
-4.67839e-57
-1.43587e-59
-2.45664e-62
-2.03933e-65
-6.4087e-69
-4.20957e-73
-1.89371e-127
-1.59181e-100
-9.38147e-78
-1.08698e-67
-7.29604e-64
-2.98734e-58
-2.53171e-55
-1.61929e-51
-7.45339e-50
-7.0241e-49
-3.18563e-48
-1.89182e-47
-8.63753e-46
-5.45907e-45
-6.71259e-44
-2.72211e-43
-3.13527e-42
-3.44518e-40
-1.32716e-38
-4.95422e-38
-9.10101e-38
-1.081e-37
-9.35946e-38
-6.30374e-38
-3.43573e-38
-1.55267e-38
-5.90221e-39
-1.90923e-39
-5.39587e-40
-1.52133e-40
-1.86862e-39
-6.02465e-37
-4.33137e-36
-1.26034e-35
-2.11016e-35
-2.34734e-35
-1.8645e-35
-1.10224e-35
-4.97836e-36
-1.72613e-36
-4.79302e-37
-1.05218e-37
-1.83309e-38
-2.53845e-39
-2.79086e-40
-2.42534e-41
-1.6558e-42
-8.79932e-44
-3.59808e-45
-1.11552e-46
-2.57398e-48
-4.3216e-50
-5.13139e-52
-4.1558e-54
-2.19055e-56
-7.05563e-59
-1.26919e-61
-1.10963e-64
-3.6781e-68
-2.55182e-72
-1.83568e-125
-6.9093e-99
-2.145e-76
-1.81211e-66
-9.9515e-63
-3.41993e-57
-2.39724e-54
-1.27677e-50
-4.70066e-49
-3.98614e-48
-1.61907e-47
-8.47922e-47
-3.54986e-45
-2.12491e-44
-2.41001e-43
-9.14101e-43
-9.67612e-42
-1.01318e-39
-3.75585e-38
-1.37126e-37
-2.47562e-37
-2.89893e-37
-2.48066e-37
-1.65469e-37
-8.94826e-38
-4.01891e-38
-1.52012e-38
-4.89363e-39
-1.37019e-39
-3.71333e-40
-3.8129e-39
-1.31544e-36
-9.76079e-36
-2.91835e-35
-5.01321e-35
-5.71942e-35
-4.65942e-35
-2.82588e-35
-1.30993e-35
-4.66713e-36
-1.33135e-36
-3.00451e-37
-5.38574e-38
-7.68142e-39
-8.70736e-40
-7.81077e-41
-5.51107e-42
-3.03084e-43
-1.28438e-44
-4.13315e-46
-9.91535e-48
-1.73387e-49
-2.14829e-51
-1.81908e-53
-1.00456e-55
-3.39682e-58
-6.42787e-61
-5.92357e-64
-2.07363e-67
-1.52241e-71
-1.76518e-123
-2.97772e-97
-4.79781e-75
-2.95644e-65
-1.32248e-61
-3.81099e-56
-2.20855e-53
-9.79596e-50
-2.88916e-48
-2.20177e-47
-8.00842e-47
-3.68741e-46
-1.41164e-44
-8.00753e-44
-8.381e-43
-2.97095e-42
-2.88741e-41
-2.88187e-39
-1.02841e-37
-3.67373e-37
-6.5201e-37
-7.52888e-37
-6.36852e-37
-4.20767e-37
-2.25785e-37
-1.00783e-37
-3.79304e-38
-1.21521e-38
-3.37363e-39
-8.83994e-40
-7.51385e-39
-2.78087e-36
-2.13346e-35
-6.5629e-35
-1.15798e-34
-1.3562e-34
-1.13409e-34
-7.06134e-35
-3.36154e-35
-1.23138e-35
-3.61034e-36
-8.37917e-37
-1.54599e-37
-2.27167e-38
-2.65569e-39
-2.45952e-40
-1.79381e-41
-1.02106e-42
-4.48473e-44
-1.4981e-45
-3.73678e-47
-6.80621e-49
-8.80035e-51
-7.79197e-53
-4.50885e-55
-1.60104e-57
-3.18853e-60
-3.09934e-63
-1.14699e-66
-8.92507e-71
-1.68575e-121
-1.27132e-95
-1.04902e-73
-4.71677e-64
-1.71095e-60
-4.13074e-55
-1.97823e-52
-7.30776e-49
-1.72977e-47
-1.1828e-46
-3.8526e-46
-1.55451e-45
-5.42464e-44
-2.91765e-43
-2.81981e-42
-9.33472e-42
-8.31972e-41
-7.91814e-39
-2.72142e-37
-9.51581e-37
-1.66075e-36
-1.89147e-36
-1.58181e-36
-1.03526e-36
-5.51246e-37
-2.44542e-37
-9.157e-38
-2.91943e-38
-8.04015e-39
-2.04684e-39
-1.42763e-38
-5.68387e-36
-4.51757e-35
-1.43188e-34
-2.59813e-34
-3.12687e-34
-2.68637e-34
-1.71851e-34
-8.40707e-35
-3.16819e-35
-9.55188e-36
-2.28087e-36
-4.3331e-37
-6.56175e-38
-7.91326e-39
-7.56819e-40
-5.70666e-41
-3.36252e-42
-1.53093e-43
-5.309e-45
-1.37698e-46
-2.61251e-48
-3.52529e-50
-3.26411e-52
-1.97941e-54
-7.38248e-57
-1.54788e-59
-1.58786e-62
-6.21737e-66
-5.13392e-70
-1.60214e-119
-5.36754e-94
-2.24036e-72
-7.3533e-63
-2.15286e-59
-4.35062e-54
-1.72102e-51
-5.29513e-48
-1.00843e-46
-6.17605e-46
-1.80162e-45
-6.34786e-45
-2.01171e-43
-1.02649e-42
-9.16753e-42
-2.83184e-41
-2.31134e-40
-2.09866e-38
-6.95115e-37
-2.38017e-36
-4.08608e-36
-4.59106e-36
-3.79635e-36
-2.46131e-36
-1.30044e-36
-5.73288e-37
-2.1356e-37
-6.7744e-38
-1.85126e-38
-4.5964e-39
-2.61027e-38
-1.12142e-35
-9.25499e-35
-3.02742e-34
-5.65651e-34
-7.00348e-34
-6.18747e-34
-4.07009e-34
-2.04761e-34
-7.94319e-35
-2.4639e-35
-6.05604e-36
-1.18509e-36
-1.85011e-37
-2.30229e-38
-2.27437e-39
-1.77336e-40
-1.08182e-41
-5.10624e-43
-1.83843e-44
-4.95847e-46
-9.79979e-48
-1.38011e-49
-1.33638e-51
-8.49361e-54
-3.3278e-56
-7.34777e-59
-7.95818e-62
-3.29909e-65
-2.89381e-69
-1.52001e-117
-2.23781e-92
-4.66976e-71
-1.11924e-61
-2.63217e-58
-4.44839e-53
-1.45285e-50
-3.72305e-47
-5.72188e-46
-3.13246e-45
-8.18508e-45
-2.50876e-44
-7.18898e-43
-3.48192e-42
-2.87611e-41
-8.28355e-41
-6.18125e-40
-5.35768e-38
-1.71147e-36
-5.74157e-36
-9.69836e-36
-1.07521e-35
-8.79181e-36
-5.64641e-36
-2.95985e-36
-1.29644e-36
-4.80339e-37
-1.5156e-37
-4.10964e-38
-9.97974e-39
-4.58232e-38
-2.13186e-35
-1.83171e-34
-6.19497e-34
-1.19366e-33
-1.5223e-33
-1.38451e-33
-9.37302e-34
-4.85292e-34
-1.9392e-34
-6.19212e-35
-1.56736e-35
-3.16063e-36
-5.08862e-37
-6.53606e-38
-6.67097e-39
-5.3797e-40
-3.39828e-41
-1.66307e-42
-6.21706e-44
-1.74379e-45
-3.5902e-47
-5.27702e-49
-5.34393e-51
-3.55993e-53
-1.46539e-55
-3.40798e-58
-3.89834e-61
-1.71186e-64
-1.5963e-68
-1.44562e-115
-9.20301e-91
-9.49163e-70
-1.66181e-60
-3.12382e-57
-4.41099e-52
-1.18887e-49
-2.53743e-46
-3.15851e-45
-1.5423e-44
-3.61088e-44
-9.58839e-44
-2.47171e-42
-1.13692e-41
-8.69443e-41
-2.33301e-40
-1.58846e-39
-1.31526e-37
-4.0561e-36
-1.33385e-35
-2.21753e-35
-2.42615e-35
-1.96175e-35
-1.2479e-35
-6.48865e-36
-2.82298e-36
-1.03992e-36
-3.26243e-37
-8.77505e-38
-2.08809e-38
-7.70263e-38
-3.89646e-35
-3.49634e-34
-1.22516e-33
-2.43852e-33
-3.20773e-33
-3.00673e-33
-2.09697e-33
-1.11829e-33
-4.60635e-34
-1.515e-34
-3.95116e-35
-8.21421e-36
-1.36437e-36
-1.80941e-37
-1.90851e-38
-1.59216e-39
-1.0416e-40
-5.28584e-42
-2.05189e-43
-5.98543e-45
-1.28378e-46
-1.96943e-48
-2.08582e-50
-1.45642e-52
-6.299e-55
-1.54319e-57
-1.8648e-60
-8.67755e-64
-8.60755e-68
-1.38526e-113
-3.73022e-89
-1.87961e-68
-2.40459e-59
-3.59474e-56
-4.23717e-51
-9.42001e-49
-1.67447e-45
-1.69543e-44
-7.36706e-44
-1.54601e-43
-3.5412e-43
-8.16211e-42
-3.56721e-41
-2.52841e-40
-6.31666e-40
-3.91474e-39
-3.09917e-37
-9.23811e-36
-2.97977e-35
-4.87711e-35
-5.26633e-35
-4.21063e-35
-2.65235e-35
-1.36746e-35
-5.90663e-36
-2.16224e-36
-6.74038e-37
-1.79725e-37
-4.1947e-38
-1.23562e-37
-6.82932e-35
-6.42399e-34
-2.33794e-33
-4.81608e-33
-6.54476e-33
-6.33066e-33
-4.55328e-33
-2.50332e-33
-1.06374e-33
-3.60582e-34
-9.69466e-35
-2.07879e-35
-3.56359e-36
-4.88118e-37
-5.32207e-38
-4.594e-39
-3.11313e-40
-1.63843e-41
-6.60499e-43
-2.00389e-44
-4.47767e-46
-7.16944e-48
-7.9412e-50
-5.81201e-52
-2.64118e-54
-6.8169e-57
-8.70354e-60
-4.293e-63
-4.53179e-67
-1.34475e-111
-1.48918e-87
-3.62299e-67
-3.38732e-58
-4.00658e-55
-3.93846e-50
-7.21897e-48
-1.06867e-44
-8.84563e-44
-3.41204e-43
-6.4213e-43
-1.2629e-42
-2.58387e-41
-1.07345e-40
-7.0605e-40
-1.64128e-39
-9.23199e-39
-6.99461e-37
-2.0185e-35
-6.3905e-35
-1.03004e-34
-1.09778e-34
-8.67758e-35
-5.4108e-35
-2.76446e-35
-1.18471e-35
-4.30651e-36
-1.33281e-36
-3.5193e-37
-8.0557e-38
-1.8835e-37
-1.14414e-34
-1.13351e-33
-4.29696e-33
-9.1816e-33
-1.29128e-32
-1.29081e-32
-9.58593e-33
-5.43856e-33
-2.38605e-33
-8.34159e-34
-2.31337e-34
-5.11888e-35
-9.06034e-36
-1.28222e-36
-1.44558e-37
-1.29143e-38
-9.06663e-40
-4.94941e-41
-2.07227e-42
-6.53934e-44
-1.52233e-45
-2.54406e-47
-2.94705e-49
-2.26075e-51
-1.07948e-53
-2.93532e-56
-3.9601e-59
-2.07087e-62
-2.3272e-66
-1.32865e-109
-5.85219e-86
-6.79075e-66
-4.64044e-57
-4.32011e-54
-3.53807e-49
-5.34419e-47
-6.588e-44
-4.4833e-43
-1.53141e-42
-2.58621e-42
-4.34649e-42
-7.82531e-41
-3.09156e-40
-1.88935e-39
-4.08487e-39
-2.07801e-38
-1.5084e-36
-4.22261e-35
-1.3133e-34
-2.08519e-34
-2.19334e-34
-1.71358e-34
-1.05705e-34
-5.34737e-35
-2.27138e-35
-8.19022e-36
-2.51347e-36
-6.56205e-37
-1.47125e-37
-2.71273e-37
-1.82469e-34
-1.9154e-33
-7.58984e-33
-1.68671e-32
-2.46006e-32
-2.54559e-32
-1.9545e-32
-1.14556e-32
-5.19376e-33
-1.87397e-33
-5.36412e-34
-1.22549e-34
-2.24058e-35
-3.2773e-36
-3.82163e-37
-3.53429e-38
-2.57117e-39
-1.45606e-40
-6.33238e-42
-2.07859e-43
-5.04143e-45
-8.79342e-47
-1.0653e-48
-8.56541e-51
-4.2972e-53
-1.23107e-55
-1.75507e-58
-9.73139e-62
-1.16443e-65
-1.33951e-107
-2.26259e-84
-1.23645e-64
-6.17523e-56
-4.50091e-53
-3.06795e-48
-3.81696e-46
-3.91784e-43
-2.20606e-42
-6.6573e-42
-1.00966e-41
-1.44293e-41
-2.26202e-40
-8.50139e-40
-4.83343e-39
-9.71737e-39
-4.45116e-38
-3.09925e-36
-8.43787e-35
-2.58086e-34
-4.03773e-34
-4.19119e-34
-3.23479e-34
-1.9724e-34
-9.86749e-35
-4.14847e-35
-1.4816e-35
-4.50094e-36
-1.15914e-36
-2.53828e-37
-3.66256e-37
-2.75503e-34
-3.08868e-33
-1.28502e-32
-2.97972e-32
-4.51798e-32
-4.84859e-32
-3.85476e-32
-2.33692e-32
-1.09599e-32
-4.08451e-33
-1.20755e-33
-2.84997e-34
-5.38489e-35
-8.14399e-36
-9.82562e-37
-9.40911e-38
-7.09445e-39
-4.16848e-40
-1.88325e-41
-6.43064e-43
-1.62504e-44
-2.95839e-46
-3.74809e-48
-3.15852e-50
-1.66487e-52
-5.02481e-55
-7.56996e-58
-4.45071e-61
-5.67135e-65
-1.37717e-105
-8.60095e-83
-2.18465e-63
-7.97274e-55
-4.52521e-52
-2.56445e-47
-2.62665e-45
-2.24454e-42
-1.05309e-41
-2.80168e-41
-3.81952e-41
-4.61916e-41
-6.22494e-40
-2.22626e-39
-1.17888e-38
-2.20416e-38
-9.04114e-38
-6.04605e-36
-1.60615e-34
-4.83819e-34
-7.46116e-34
-7.6405e-34
-5.82147e-34
-3.50437e-34
-1.73074e-34
-7.18696e-35
-2.53684e-35
-7.61041e-36
-1.92669e-36
-4.09922e-37
-4.58262e-37
-3.90808e-34
-4.73107e-33
-2.07862e-32
-5.0497e-32
-7.98331e-32
-8.90547e-32
-7.34398e-32
-4.61149e-32
-2.23969e-32
-8.62859e-33
-2.63664e-33
-6.43243e-34
-1.25664e-34
-1.96586e-35
-2.45475e-36
-2.43472e-37
-1.90307e-38
-1.16037e-39
-5.44654e-41
-1.93485e-42
-5.09447e-44
-9.6801e-46
-1.28252e-47
-1.1327e-49
-6.27258e-52
-1.99437e-54
-3.17488e-57
-1.97935e-60
-2.68605e-64
-1.43818e-103
-3.21256e-81
-3.74151e-62
-9.97395e-54
-4.38468e-51
-2.0635e-46
-1.73912e-44
-1.23702e-41
-4.87239e-41
-1.14087e-40
-1.39972e-40
-1.42579e-40
-1.62605e-39
-5.53517e-39
-2.73232e-38
-4.75379e-38
-1.7337e-37
-1.11493e-35
-2.90235e-34
-8.62683e-34
-1.31204e-33
-1.32488e-33
-9.95493e-34
-5.90612e-34
-2.87245e-34
-1.17453e-34
-4.08465e-35
-1.20582e-35
-2.98543e-36
-6.11473e-37
-5.22052e-37
-5.1495e-34
-6.83987e-33
-3.19896e-32