/*--------------------------------*- C++ -*----------------------------------*\
| =========                 |                                                 |
| \\      /  F ield         | OpenFOAM: The Open Source CFD Toolbox           |
|  \\    /   O peration     | Version:  v2012                                 |
|   \\  /    A nd           | Website:  www.openfoam.com                      |
|    \\/     M anipulation  |                                                 |
\*---------------------------------------------------------------------------*/
FoamFile
{
    version     2.0;
    format      ascii;
    class       surfaceScalarField;
    location    "0.95";
    object      phi;
}
// * * * * * * * * * * * * * * * * * * * * * * * * * * * * * * * * * * * * * //

dimensions      [0 3 -1 0 0 0 0];
oriented        oriented;


internalField   nonuniform List<scalar> 
49380
(
2.58972e-15
-4.44271e-13
-2.41621e-18
1.37207e-14
-2.46719e-12
-1.50079e-17
3.629e-14
-5.87151e-12
-1.55497e-17
7.2609e-14
-1.05336e-11
-2.75456e-18
1.25429e-13
-1.64416e-11
7.19206e-17
1.96476e-13
-2.36326e-11
2.0221e-17
2.89406e-13
-3.21701e-11
4.33054e-17
4.07588e-13
-4.21417e-11
4.44004e-17
5.5537e-13
-5.36398e-11
9.8114e-17
7.35936e-13
-6.67873e-11
-2.38387e-17
9.54733e-13
-8.16958e-11
1.68847e-17
1.21591e-12
-9.8504e-11
-7.46642e-18
1.52423e-12
-1.17371e-10
-2.1918e-17
1.88519e-12
-1.38433e-10
5.3513e-17
2.30308e-12
-1.61879e-10
3.19081e-17
2.78307e-12
-1.87867e-10
3.96432e-17
3.33003e-12
-2.16591e-10
3.19524e-17
3.94902e-12
-2.48251e-10
4.83978e-17
4.64495e-12
-2.83055e-10
5.56607e-17
5.42245e-12
-3.21208e-10
8.36166e-17
6.2864e-12
-3.62931e-10
1.20875e-16
7.24106e-12
-4.08481e-10
1.31094e-16
8.29047e-12
-4.58031e-10
1.30363e-16
9.43819e-12
-5.1188e-10
1.27196e-16
1.06871e-11
-5.70208e-10
1.25084e-16
1.20391e-11
-6.33284e-10
1.19013e-16
1.34952e-11
-7.01333e-10
1.14315e-16
1.50549e-11
-7.74497e-10
1.05923e-16
1.67161e-11
-8.53114e-10
1.05123e-16
1.84746e-11
-9.37208e-10
9.77836e-17
2.0324e-11
-1.02702e-09
1.02025e-16
2.22556e-11
-1.12265e-09
9.20308e-17
2.42573e-11
-1.22413e-09
9.97627e-17
2.6314e-11
-1.3315e-09
8.54369e-17
2.84068e-11
-1.44467e-09
9.50247e-17
3.05129e-11
-1.56354e-09
7.56915e-17
3.26051e-11
-1.68783e-09
8.94931e-17
3.46526e-11
-1.81722e-09
6.5678e-17
3.66193e-11
-1.95119e-09
8.37149e-17
3.84653e-11
-2.08862e-09
5.45488e-17
4.01463e-11
-2.22979e-09
7.68082e-17
4.16151e-11
-2.37223e-09
4.73837e-17
4.28206e-11
-2.51585e-09
7.82574e-17
4.37105e-11
-2.65796e-09
4.79779e-17
4.42314e-11
-2.79642e-09
8.48418e-17
4.43307e-11
-2.93059e-09
5.56959e-17
4.39598e-11
-3.05497e-09
9.88711e-17
4.30741e-11
-3.16788e-09
9.42405e-17
4.16387e-11
-3.26394e-09
1.36685e-16
3.96308e-11
-3.33847e-09
1.03924e-16
3.70434e-11
-3.38615e-09
1.39063e-16
3.38946e-11
-3.39786e-09
1.02027e-16
3.02311e-11
-3.36513e-09
1.29722e-16
2.61344e-11
-3.27637e-09
9.09946e-17
2.17177e-11
-3.11587e-09
1.09881e-16
1.71033e-11
-2.8651e-09
7.27275e-17
1.23815e-11
-2.50435e-09
8.32496e-17
7.62082e-12
-2.01508e-09
5.18165e-17
2.94544e-12
-1.3841e-09
5.31922e-17
-5.72371e-10
3.12767e-17
2.36335e-15
-4.4666e-13
-3.3947e-18
1.35337e-14
-2.47876e-12
-4.92597e-17
3.76655e-14
-5.89624e-12
-7.42924e-17
7.86367e-14
-1.05743e-11
2.92387e-17
1.37578e-13
-1.65009e-11
-4.35853e-17
2.18742e-13
-2.37132e-11
7.50726e-17
3.23234e-13
-3.22746e-11
2.28664e-18
4.54363e-13
-4.22731e-11
-1.94081e-17
6.15437e-13
-5.38007e-11
2.15927e-17
8.1019e-13
-6.69814e-11
8.49603e-17
1.04115e-12
-8.19267e-11
2.03072e-17
1.31424e-12
-9.87759e-11
1.41347e-16
1.63225e-12
-1.17688e-10
7.85758e-17
2.00118e-12
-1.38801e-10
1.32089e-16
2.42507e-12
-1.62302e-10
9.50041e-17
2.90967e-12
-1.8835e-10
1.12762e-16
3.45994e-12
-2.1714e-10
1.25097e-16
4.08109e-12
-2.48871e-10
1.23192e-16
4.7791e-12
-2.83752e-10
2.16125e-16
5.5578e-12
-3.21986e-10
7.43316e-17
6.42304e-12
-3.63796e-10
6.24825e-17
7.37931e-12
-4.09437e-10
6.57117e-17
8.43076e-12
-4.59082e-10
8.59714e-17
9.58107e-12
-5.13029e-10
9.84912e-17
1.08332e-11
-5.7146e-10
1.26275e-16
1.21891e-11
-6.34639e-10
1.38761e-16
1.36496e-11
-7.02792e-10
1.55976e-16
1.52142e-11
-7.76061e-10
1.63031e-16
1.68809e-11
-8.54779e-10
1.76099e-16
1.86453e-11
-9.38971e-10
1.80814e-16
2.0501e-11
-1.02887e-09
1.88516e-16
2.24391e-11
-1.12458e-09
1.87987e-16
2.44475e-11
-1.22614e-09
1.87076e-16
2.65108e-11
-1.33356e-09
1.77934e-16
2.86099e-11
-1.44676e-09
1.67028e-16
3.07219e-11
-1.56565e-09
1.53435e-16
3.28194e-11
-1.68993e-09
1.39594e-16
3.48713e-11
-1.81927e-09
1.24792e-16
3.68414e-11
-1.95316e-09
1.07125e-16
3.86894e-11
-2.09046e-09
9.27443e-17
4.03709e-11
-2.23147e-09
7.7215e-17
4.18384e-11
-2.37369e-09
7.31345e-17
4.30406e-11
-2.51705e-09
6.7967e-17
4.3925e-11
-2.65884e-09
7.20067e-17
4.44382e-11
-2.79693e-09
7.42914e-17
4.45271e-11
-2.93068e-09
8.87742e-17
4.41431e-11
-3.05459e-09
1.0517e-16
4.32419e-11
-3.16698e-09
1.41428e-16
4.17881e-11
-3.26249e-09
1.49318e-16
3.9759e-11
-3.33643e-09
1.5707e-16
3.71477e-11
-3.38353e-09
1.50468e-16
3.39724e-11
-3.39468e-09
1.50677e-16
3.028e-11
-3.36143e-09
1.3709e-16
2.61528e-11
-3.27223e-09
1.29969e-16
2.17055e-11
-3.11142e-09
1.10422e-16
1.70624e-11
-2.86045e-09
9.95076e-17
1.23147e-11
-2.4996e-09
7.85339e-17
7.53217e-12
-2.01029e-09
6.78671e-17
2.88093e-12
-1.37944e-09
4.64597e-17
-5.69484e-10
3.39773e-17
1.57931e-15
-4.48292e-13
-6.39837e-18
1.01966e-14
-2.48763e-12
-3.07609e-17
3.02123e-14
-5.9167e-12
-5.36376e-17
6.56804e-14
-1.061e-11
-2.41706e-17
1.18514e-13
-1.65545e-11
-9.09407e-17
1.93491e-13
-2.37877e-11
5.56894e-17
2.91796e-13
-3.23732e-11
-2.37992e-17
4.18053e-13
-4.23993e-11
1.1576e-17
5.7521e-13
-5.39577e-11
3.01524e-17
7.67542e-13
-6.71737e-11
1.45945e-17
9.98117e-13
-8.21579e-11
-6.55195e-17
1.27247e-12
-9.90507e-11
-4.12309e-17
1.59396e-12
-1.18011e-10
-6.95118e-17
1.96826e-12
-1.39176e-10
-1.04986e-17
2.39937e-12
-1.62734e-10
-4.63591e-18
2.89285e-12
-1.88843e-10
5.71451e-17
3.45318e-12
-2.177e-10
7.14501e-17
4.08559e-12
-2.49503e-10
7.12464e-17
4.79527e-12
-2.84461e-10
9.91517e-17
5.58708e-12
-3.22776e-10
1.76849e-16
6.46616e-12
-3.64673e-10
2.33598e-16
7.43694e-12
-4.10406e-10
2.4036e-16
8.50374e-12
-4.60147e-10
2.41651e-16
9.67022e-12
-5.14194e-10
2.47626e-16
1.09394e-11
-5.72727e-10
2.56832e-16
1.23133e-11
-6.36011e-10
2.62933e-16
1.37927e-11
-7.04269e-10
2.58662e-16
1.53771e-11
-7.77643e-10
2.61437e-16
1.70644e-11
-8.56464e-10
2.5921e-16
1.88502e-11
-9.40755e-10
2.65126e-16
2.07278e-11
-1.03075e-09
2.63723e-16
2.26882e-11
-1.12654e-09
2.65025e-16
2.4719e-11
-1.22817e-09
2.56767e-16
2.68046e-11
-1.33564e-09
2.44783e-16
2.89256e-11
-1.44888e-09
2.25457e-16
3.10585e-11
-1.56779e-09
2.03913e-16
3.31758e-11
-1.69204e-09
1.83406e-16
3.52457e-11
-1.82134e-09
1.55094e-16
3.72315e-11
-1.95515e-09
1.29419e-16
3.90924e-11
-2.09232e-09
9.76134e-17
4.07835e-11
-2.23316e-09
8.36289e-17
4.22566e-11
-2.37517e-09
6.58571e-17
4.34601e-11
-2.51825e-09
7.00806e-17
4.43407e-11
-2.65973e-09
6.2272e-17
4.48447e-11
-2.79743e-09
8.33718e-17
4.49187e-11
-2.93075e-09
9.26551e-17
4.45137e-11
-3.05418e-09
1.28297e-16
4.35851e-11
-3.16605e-09
1.63658e-16
4.20976e-11
-3.261e-09
1.96266e-16
4.00287e-11
-3.33436e-09
1.95836e-16
3.73715e-11
-3.38087e-09
2.13099e-16
3.41445e-11
-3.39145e-09
1.98245e-16
3.03952e-11
-3.35768e-09
2.01451e-16
2.62063e-11
-3.26804e-09
1.73042e-16
2.16941e-11
-3.10691e-09
1.63978e-16
1.69864e-11
-2.85574e-09
1.29756e-16
1.21816e-11
-2.49479e-09
1.16597e-16
7.37073e-12
-2.00548e-09
8.53722e-17
2.83625e-12
-1.37491e-09
7.09597e-17
-5.66646e-10
4.64879e-17
1.77582e-15
-4.50084e-13
-2.23754e-18
1.11562e-14
-2.4972e-12
-2.31803e-17
3.27226e-14
-5.93866e-12
-5.01913e-17
7.06956e-14
-1.06481e-11
-1.78876e-17
1.27263e-13
-1.66119e-11
-9.50767e-17
2.07606e-13
-2.38675e-11
6.81702e-17
3.12408e-13
-3.24781e-11
-1.56894e-17
4.46165e-13
-4.25325e-11
6.14128e-17
6.1098e-13
-5.41224e-11
1.74504e-17
8.10502e-13
-6.73736e-11
-3.23249e-17
1.04902e-12
-8.23959e-11
7.01518e-17
1.33027e-12
-9.93316e-11
5.25427e-17
1.65794e-12
-1.18338e-10
1.56285e-17
2.03788e-12
-1.39555e-10
6.83844e-17
2.47426e-12
-1.63169e-10
6.99475e-17
2.97296e-12
-1.89341e-10
1.24123e-16
3.53849e-12
-2.18265e-10
9.5963e-17
4.17704e-12
-2.5014e-10
1.35913e-16
4.89397e-12
-2.85176e-10
1.61163e-16
5.69366e-12
-3.23576e-10
1.66537e-17
6.5825e-12
-3.65561e-10
5.79831e-17
7.56495e-12
-4.11388e-10
8.61603e-17
8.64532e-12
-4.61227e-10
1.26167e-16
9.82738e-12
-5.15375e-10
1.50028e-16
1.11142e-11
-5.74012e-10
1.931e-16
1.25078e-11
-6.37403e-10
2.14884e-16
1.40089e-11
-7.05769e-10
2.39214e-16
1.5617e-11
-7.79249e-10
2.54068e-16
1.73298e-11
-8.58175e-10
2.7335e-16
1.91428e-11
-9.42566e-10
2.87148e-16
2.1049e-11
-1.03265e-09
2.99155e-16
2.30392e-11
-1.12853e-09
3.0375e-16
2.51006e-11
-1.23023e-09
2.99204e-16
2.7217e-11
-1.33776e-09
2.86076e-16
2.93687e-11
-1.45103e-09
2.6128e-16
3.15316e-11
-1.56995e-09
2.38015e-16
3.36774e-11
-1.69419e-09
2.06845e-16
3.57738e-11
-1.82344e-09
1.7765e-16
3.77832e-11
-1.95716e-09
1.33225e-16
3.9664e-11
-2.0942e-09
1.0261e-16
4.13705e-11
-2.23487e-09
7.22462e-17
4.28536e-11
-2.37665e-09
6.57148e-17
4.40609e-11
-2.51946e-09
5.35169e-17
4.49383e-11
-2.66061e-09
6.44322e-17
4.54312e-11
-2.79793e-09
7.19484e-17
4.54856e-11
-2.93081e-09
1.09968e-16
4.50523e-11
-3.05375e-09
1.41094e-16
4.4086e-11
-3.16509e-09
1.97144e-16
4.25516e-11
-3.25946e-09
2.13167e-16
4.04266e-11
-3.33224e-09
2.37586e-16
3.77045e-11
-3.37815e-09
2.31213e-16
3.44044e-11
-3.38815e-09
2.38897e-16
3.05745e-11
-3.35385e-09
2.15725e-16
2.62983e-11
-3.26377e-09
2.05038e-16
2.1694e-11
-3.10231e-09
1.68278e-16
1.68947e-11
-2.85094e-09
1.47845e-16
1.20122e-11
-2.48991e-09
1.09891e-16
7.16552e-12
-2.00064e-09
9.0476e-17
2.69218e-12
-1.37044e-09
5.69306e-17
-5.63959e-10
3.77932e-17
1.18818e-15
-4.51352e-13
-6.9832e-18
8.55127e-15
-2.50471e-12
-2.30067e-17
2.67328e-14
-5.95693e-12
-8.96577e-18
5.99159e-14
-1.06812e-11
1.16783e-17
1.10838e-13
-1.66634e-11
-7.22941e-17
1.84683e-13
-2.39411e-11
2.64205e-17
2.83325e-13
-3.25772e-11
-5.56338e-17
4.11992e-13
-4.26609e-11
4.40342e-17
5.73056e-13
-5.42836e-11
-1.54225e-17
7.71045e-13
-6.75718e-11
-3.07888e-17
1.01037e-12
-8.26347e-11
5.91931e-17
1.29488e-12
-9.9616e-11
2.24756e-17
1.62845e-12
-1.18672e-10
-3.08288e-17
2.01667e-12
-1.39943e-10
-2.13585e-17
2.46389e-12
-1.63617e-10
-1.52269e-17
2.97539e-12
-1.89853e-10
-4.25496e-18
3.55584e-12
-2.18846e-10
-2.61788e-17
4.21098e-12
-2.50796e-10
-3.73983e-18
4.94591e-12
-2.85911e-10
1.53118e-17
5.76563e-12
-3.24396e-10
5.18326e-17
6.67592e-12
-3.6647e-10
1.31527e-16
7.68134e-12
-4.12392e-10
1.67749e-16
8.78641e-12
-4.6233e-10
1.95374e-16
9.99493e-12
-5.16581e-10
2.16061e-16
1.13101e-11
-5.75325e-10
2.42042e-16
1.2734e-11
-6.38824e-10
2.6166e-16
1.42674e-11
-7.073e-10
2.72779e-16
1.59098e-11
-7.80889e-10
2.89361e-16
1.76587e-11
-8.59922e-10
3.00362e-16
1.95095e-11
-9.44414e-10
3.18613e-16
2.14551e-11
-1.03459e-09
3.27537e-16
2.34858e-11
-1.13056e-09
3.36012e-16
2.55884e-11
-1.23233e-09
3.29972e-16
2.77463e-11
-1.33991e-09
3.15679e-16
2.9939e-11
-1.45322e-09
2.89686e-16
3.21418e-11
-1.57215e-09
2.6028e-16
3.43256e-11
-1.69637e-09
2.30401e-16
3.64572e-11
-1.82557e-09
1.89345e-16
3.84981e-11
-1.9592e-09
1.46112e-16
4.04055e-11
-2.09611e-09
9.80354e-17
4.21326e-11
-2.23659e-09
7.57725e-17
4.36295e-11
-2.37815e-09
5.24447e-17
4.48423e-11
-2.52068e-09
5.5325e-17
4.57161e-11
-2.66148e-09
4.95335e-17
4.61953e-11
-2.79841e-09
8.06126e-17
4.6225e-11
-2.93084e-09
1.07135e-16
4.57554e-11
-3.05328e-09
1.61568e-16
4.4741e-11
-3.16407e-09
2.07282e-16
4.31463e-11
-3.25787e-09
2.50716e-16
4.09493e-11
-3.33004e-09
2.5903e-16
3.8144e-11
-3.37534e-09
2.80495e-16
3.47506e-11
-3.38476e-09
2.66225e-16
3.08182e-11
-3.34992e-09
2.64041e-16
2.64319e-11
-3.25938e-09
2.26408e-16
2.17126e-11
-3.09758e-09
2.04023e-16
1.68007e-11
-2.84603e-09
1.55805e-16
1.18259e-11
-2.48494e-09
1.28663e-16
6.94068e-12
-1.99575e-09
8.57433e-17
2.52915e-12
-1.36603e-09
6.13386e-17
-5.61433e-10
3.18265e-17
1.38803e-15
-4.52809e-13
-8.85194e-18
9.48343e-15
-2.51293e-12
-8.04654e-18
2.85155e-14
-5.97652e-12
-7.89803e-17
6.35382e-14
-1.07161e-11
1.27798e-17
1.1705e-13
-1.67173e-11
-5.71092e-17
1.93934e-13
-2.40177e-11
3.89771e-17
2.96084e-13
-3.26797e-11
-3.67437e-17
4.28697e-13
-4.27931e-11
3.85791e-17
5.94092e-13
-5.44488e-11
1.80695e-17
7.96812e-13
-6.77743e-11
3.40079e-17
1.04048e-12
-8.28782e-11
2.59512e-17
1.32972e-12
-9.99051e-11
1.2252e-17
1.66847e-12
-1.19011e-10
-2.54913e-17
2.06223e-12
-1.40338e-10
-4.45176e-17
2.51612e-12
-1.64071e-10
-1.20283e-17
3.03533e-12
-1.90372e-10
-3.77722e-17
3.62547e-12
-2.19436e-10
-1.14386e-17
4.29222e-12
-2.51463e-10
-4.04204e-18
5.04144e-12
-2.8666e-10
3.48174e-17
5.8779e-12
-3.25233e-10
-5.42129e-17
6.80783e-12
-3.67401e-10
-6.55705e-18
7.83595e-12
-4.1342e-10
2.06806e-17
8.9668e-12
-4.63461e-10
6.85861e-17
1.02042e-11
-5.17818e-10
9.56187e-17
1.15514e-11
-5.76672e-10
1.45865e-16
1.30104e-11
-6.40282e-10
1.76056e-16
1.4582e-11
-7.0887e-10
2.13115e-16
1.62654e-11
-7.8257e-10
2.40928e-16
1.8058e-11
-8.61712e-10
2.72828e-16
1.99549e-11
-9.46309e-10
3.00229e-16
2.19487e-11
-1.03658e-09
3.24328e-16
2.40291e-11
-1.13264e-09
3.39603e-16
2.61826e-11
-1.23448e-09
3.40586e-16
2.83917e-11
-1.34212e-09
3.30404e-16
3.06352e-11
-1.45546e-09
3.03654e-16
3.28876e-11
-1.5744e-09
2.78581e-16
3.51188e-11
-1.6986e-09
2.42539e-16
3.72943e-11
-1.82774e-09
2.06915e-16
3.93745e-11
-1.96128e-09
1.50257e-16
4.13154e-11
-2.09805e-09
1.09024e-16
4.30688e-11
-2.23835e-09
7.03054e-17
4.45833e-11
-2.37966e-09
5.9727e-17
4.58038e-11
-2.5219e-09
4.50277e-17
4.66741e-11
-2.66235e-09
5.78279e-17
4.71373e-11
-2.79887e-09
7.22221e-17
4.71377e-11
-2.93084e-09
1.24732e-16
4.66246e-11
-3.05277e-09
1.70374e-16
4.55518e-11
-3.16299e-09
2.34514e-16
4.38842e-11
-3.2562e-09
2.59046e-16
4.15999e-11
-3.32775e-09
2.91444e-16
3.86941e-11
-3.37243e-09
2.88161e-16
3.5188e-11
-3.38125e-09
2.95944e-16
3.11325e-11
-3.34586e-09
2.6697e-16
2.66149e-11
-3.25486e-09
2.4685e-16
2.17601e-11
-3.09273e-09
1.96793e-16
1.67178e-11
-2.84098e-09
1.62231e-16
1.16391e-11
-2.47986e-09
1.10341e-16
6.71432e-12
-1.99082e-09
7.92731e-17
2.37988e-12
-1.3617e-09
3.59671e-17
-5.59051e-10
1.32004e-17
1.00357e-15
-4.53923e-13
-1.17392e-17
7.71172e-15
-2.51981e-12
-1.74864e-17
2.43185e-14
-5.99374e-12
-9.32752e-17
5.61068e-14
-1.07478e-11
1.87341e-17
1.05683e-13
-1.67675e-11
-5.43856e-17
1.78114e-13
-2.40901e-11
-1.18275e-17
2.76272e-13
-3.27786e-11
-7.39411e-17
4.05607e-13
-4.29224e-11
-1.0322e-17
5.68921e-13
-5.46125e-11
-4.6304e-17
7.7177e-13
-6.79769e-11
2.71805e-17
1.01756e-12
-8.3124e-11
4.28522e-19
1.31159e-12
-1.00199e-10
1.98061e-17
1.65776e-12
-1.19357e-10
-2.68313e-17
2.06146e-12
-1.40742e-10
-5.80527e-17
2.52803e-12
-1.64538e-10
-2.59842e-17
3.06227e-12
-1.90907e-10
-7.12411e-17
3.67009e-12
-2.20044e-10
-4.41861e-17
4.3567e-12
-2.5215e-10
-6.4776e-17
5.12828e-12
-2.87432e-10
-8.58505e-18
5.98991e-12
-3.26094e-10
1.77808e-17
6.94748e-12
-3.68358e-10
7.64767e-17
8.00593e-12
-4.14478e-10
1.0254e-16
9.17008e-12
-4.64624e-10
1.31476e-16
1.04439e-11
-5.19091e-10
1.4949e-16
1.18306e-11
-5.78057e-10
1.75729e-16
1.33324e-11
-6.41782e-10
1.98165e-16
1.49501e-11
-7.10486e-10
2.18564e-16
1.66826e-11
-7.84301e-10
2.44295e-16
1.85275e-11
-8.63555e-10
2.66044e-16
2.04794e-11
-9.48258e-10
2.95857e-16
2.25304e-11
-1.03863e-09
3.17815e-16
2.467e-11
-1.13477e-09
3.37344e-16
2.68838e-11
-1.23669e-09
3.4044e-16
2.91537e-11
-1.34439e-09
3.31847e-16
3.14577e-11
-1.45776e-09
3.09945e-16
3.3769e-11
-1.57671e-09
2.8273e-16
3.60564e-11
-1.70088e-09
2.54728e-16
3.82843e-11
-1.82997e-09
2.11632e-16
4.04115e-11
-1.9634e-09
1.63972e-16
4.23924e-11
-2.10003e-09
1.08843e-16
4.41775e-11
-2.24013e-09
8.21598e-17
4.57135e-11
-2.3812e-09
5.4269e-17
4.69439e-11
-2.52313e-09
5.63482e-17
4.78109e-11
-2.66322e-09
4.97732e-17
4.82562e-11
-2.79931e-09
8.68623e-17
4.82228e-11
-2.93081e-09
1.2168e-16
4.76592e-11
-3.0522e-09
1.87398e-16
4.65188e-11
-3.16185e-09
2.37405e-16
4.47663e-11
-3.25444e-09
2.90498e-16
4.23804e-11
-3.32536e-09
3.04923e-16
3.93574e-11
-3.36941e-09
3.31109e-16
3.57204e-11
-3.37761e-09
3.15596e-16
3.15225e-11
-3.34166e-09
3.09554e-16
2.68543e-11
-3.25019e-09
2.6175e-16
2.18458e-11
-3.08772e-09
2.28034e-16
1.66579e-11
-2.83579e-09
1.65171e-16
1.14656e-11
-2.47467e-09
1.25649e-16
6.49919e-12
-1.98586e-09
7.06265e-17
2.24324e-12
-1.35744e-09
3.77636e-17
-5.56808e-10
4.10157e-18
1.18026e-15
-4.55174e-13
-1.15737e-17
8.20359e-15
-2.5272e-12
-4.23008e-17
2.5447e-14
-6.01177e-12
-5.9829e-17
5.91961e-14
-1.07805e-11
9.90163e-17
1.10125e-13
-1.68189e-11
-1.08059e-16
1.84626e-13
-2.41646e-11
6.7971e-17
2.85203e-13
-3.28794e-11
-7.56334e-17
4.17346e-13
-4.30542e-11
4.65171e-17
5.83766e-13
-5.47793e-11
-4.62193e-17
7.90034e-13
-6.8183e-11
5.66014e-18
1.04027e-12
-8.3374e-11
2.96254e-17
1.33931e-12
-1.00498e-10
4.6206e-17
1.69174e-12
-1.1971e-10
1.00663e-17
2.10309e-12
-1.41153e-10
-1.12882e-17
2.57921e-12
-1.65014e-10
2.09929e-17
3.12527e-12
-1.91454e-10
-3.56318e-17
3.74759e-12
-2.20667e-10
-2.34182e-17
4.45168e-12
-2.52855e-10
-7.19609e-17
5.24436e-12
-2.88225e-10
-3.61072e-19
6.1307e-12
-3.26981e-10
-3.85512e-17
7.11682e-12
-3.69344e-10
-2.77187e-18
8.20776e-12
-4.15569e-10
1.82866e-18
9.4084e-12
-4.65824e-10
3.83104e-17
1.07228e-11
-5.20405e-10
5.13845e-17
1.21542e-11
-5.79488e-10
9.17732e-17
1.37048e-11
-6.43332e-10
1.16371e-16
1.53752e-11
-7.12155e-10
1.54495e-16
1.71643e-11
-7.86089e-10
1.85327e-16
1.90693e-11
-8.65458e-10
2.2191e-16
2.10845e-11
-9.50271e-10
2.57316e-16
2.32017e-11
-1.04075e-09
2.90727e-16
2.54095e-11
-1.13698e-09
3.1641e-16
2.7693e-11
-1.23897e-09
3.25527e-16
3.00332e-11
-1.34672e-09
3.23639e-16
3.24069e-11
-1.46014e-09
3.02621e-16
3.47864e-11
-1.57908e-09
2.84617e-16
3.71389e-11
-1.70323e-09
2.53127e-16
3.94274e-11
-1.83225e-09
2.21591e-16
4.1609e-11
-1.96558e-09
1.63906e-16
4.36365e-11
-2.10206e-09
1.21525e-16
4.54584e-11
-2.24196e-09
7.92554e-17
4.70198e-11
-2.38276e-09
6.72569e-17
4.82622e-11
-2.52437e-09
4.99542e-17
4.9126e-11
-2.66408e-09
6.32925e-17
4.95515e-11
-2.79974e-09
7.93011e-17
4.94802e-11
-2.93074e-09
1.38218e-16
4.88595e-11
-3.05158e-09
1.88812e-16
4.76423e-11
-3.16063e-09
2.58269e-16
4.57933e-11
-3.25259e-09
2.90032e-16
4.3292e-11
-3.32286e-09
3.30579e-16
4.0136e-11
-3.36625e-09
3.30654e-16
3.63507e-11
-3.37382e-09
3.39809e-16
3.19922e-11
-3.3373e-09
3.06468e-16
2.71551e-11
-3.24535e-09
2.79147e-16
2.19763e-11
-3.08253e-09
2.17807e-16
1.66292e-11
-2.83044e-09
1.71362e-16
1.13146e-11
-2.46935e-09
1.07228e-16
6.30256e-12
-1.98085e-09
6.62031e-17
2.11924e-12
-1.35326e-09
1.45409e-17
-5.5469e-10
-1.21116e-17
9.66685e-16
-4.56216e-13
-1.02615e-17
7.24633e-15
-2.53377e-12
-3.52633e-17
2.30622e-14
-6.02845e-12
-8.30197e-17
5.48936e-14
-1.08116e-11
4.62217e-17
1.03604e-13
-1.68685e-11
-1.63684e-16
1.75945e-13
-2.42374e-11
6.65638e-17
2.74756e-13
-3.29787e-11
-7.69684e-17
4.05891e-13
-4.31853e-11
-4.80109e-17
5.72558e-13
-5.49467e-11
-6.73713e-17
7.80834e-13
-6.83912e-11
-2.84023e-17
1.03501e-12
-8.36283e-11
-4.37321e-18
1.34042e-12
-1.00803e-10
4.13652e-17
1.70186e-12
-1.20071e-10
-7.08354e-18
2.12483e-12
-1.41576e-10
-2.29048e-17
2.61557e-12
-1.65504e-10
4.08344e-18
3.17903e-12
-1.92018e-10
-4.95193e-17
3.82198e-12
-2.2131e-10
-3.7379e-17
4.54972e-12
-2.53583e-10
-9.08543e-17
5.36938e-12
-2.89045e-10
-2.16871e-17
6.28628e-12
-3.27898e-10
-2.13465e-18
7.30664e-12
-3.70364e-10
3.59155e-17
8.43572e-12
-4.16698e-10
4.62565e-17
9.67872e-12
-4.67067e-10
6.93041e-17
1.10397e-11
-5.21766e-10
8.095e-17
1.25223e-11
-5.8097e-10
1.05518e-16
1.41283e-11
-6.44937e-10
1.27013e-16
1.58586e-11
-7.13885e-10
1.51348e-16
1.77119e-11
-7.87941e-10
1.79935e-16
1.9685e-11
-8.6743e-10
2.06684e-16
2.1772e-11
-9.52357e-10
2.41987e-16
2.3964e-11
-1.04294e-09
2.72354e-16
2.62491e-11
-1.13926e-09
2.99355e-16
2.86116e-11
-1.24133e-09
3.10881e-16
3.10313e-11
-1.34914e-09
3.09173e-16
3.3484e-11
-1.46259e-09
2.95548e-16
3.59406e-11
-1.58154e-09
2.75447e-16
3.83669e-11
-1.70566e-09
2.55931e-16
4.07241e-11
-1.83461e-09
2.1782e-16
4.29675e-11
-1.96783e-09
1.74228e-16
4.5048e-11
-2.10414e-09
1.18609e-16
4.6912e-11
-2.24382e-09
9.24191e-17
4.85025e-11
-2.38435e-09
6.17263e-17
4.9759e-11
-2.52563e-09
6.35122e-17
5.06199e-11
-2.66494e-09
5.4559e-17
5.10236e-11
-2.80014e-09
9.35716e-17
5.09103e-11
-2.93062e-09
1.29228e-16
5.02262e-11
-3.05089e-09
1.99128e-16
4.89235e-11
-3.15933e-09
2.51132e-16
4.69669e-11
-3.25063e-09
3.12756e-16
4.4337e-11
-3.32023e-09
3.32956e-16
4.10327e-11
-3.36294e-09
3.65048e-16
3.70823e-11
-3.36986e-09
3.49942e-16
3.25457e-11
-3.33276e-09
3.42815e-16
2.75227e-11
-3.24032e-09
2.87875e-16
2.21579e-11
-3.07717e-09
2.46379e-16
1.66392e-11
-2.82492e-09
1.72161e-16
1.11936e-11
-2.4639e-09
1.23458e-16
6.13006e-12
-1.97578e-09
5.89518e-17
2.00885e-12
-1.34914e-09
1.9937e-17
-5.52681e-10
-1.81545e-17
1.0759e-15
-4.57346e-13
-7.47918e-18
7.59779e-15
-2.54073e-12
-5.24653e-17
2.41921e-14
-6.04581e-12
-9.36853e-17
5.65507e-14
-1.08435e-11
9.37944e-17
1.06582e-13
-1.69192e-11
1.82776e-17
1.8157e-13
-2.43112e-11
-3.90251e-17
2.8229e-13
-3.30802e-11
-1.55483e-16
4.1595e-13
-4.33194e-11
1.4358e-16
5.86237e-13
-5.51171e-11
-1.57738e-16
7.99135e-13
-6.86037e-11
1.04233e-16
1.05854e-12
-8.38879e-11
-6.0022e-17
1.37086e-12
-1.01114e-10
4.64871e-17
1.74103e-12
-1.20441e-10
1.49898e-17
2.17473e-12
-1.4201e-10
-1.12949e-17
2.67885e-12
-1.66008e-10
5.13139e-17
3.25854e-12
-1.92598e-10
-1.92304e-17
3.92132e-12
-2.21973e-10
4.25875e-17
4.67258e-12
-2.54335e-10
-2.73939e-17
5.51989e-12
-2.89892e-10
2.29661e-17
6.46882e-12
-3.28848e-10
-3.71663e-17
7.52592e-12
-3.71422e-10
-1.49194e-17
8.69659e-12
-4.17869e-10
-2.36358e-17
9.98609e-12
-4.68357e-10
5.17415e-18
1.13987e-11
-5.23179e-10
9.37972e-18
1.29378e-11
-5.82509e-10
4.54165e-17
1.46056e-11
-6.46605e-10
6.587e-17
1.64026e-11
-7.15681e-10
1.02628e-16
1.83274e-11
-7.89865e-10
1.32582e-16
2.03765e-11
-8.69478e-10
1.69334e-16
2.25435e-11
-9.54522e-10
2.07392e-16
2.4819e-11
-1.04521e-09
2.44617e-16
2.71904e-11
-1.14163e-09
2.76122e-16
2.96408e-11
-1.24378e-09
2.90307e-16
3.21493e-11
-1.35165e-09
2.9567e-16
3.46902e-11
-1.46513e-09
2.81004e-16
3.72328e-11
-1.58408e-09
2.72027e-16
3.97414e-11
-1.70817e-09
2.47657e-16
4.21754e-11
-1.83704e-09
2.24167e-16
4.44879e-11
-1.97014e-09
1.69921e-16
4.66276e-11
-2.10628e-09
1.30704e-16
4.85387e-11
-2.24573e-09
8.74002e-17
5.0162e-11
-2.38598e-09
7.53057e-17
5.14347e-11
-2.5269e-09
5.49654e-17
5.2293e-11
-2.6658e-09
6.78495e-17
5.26734e-11
-2.80052e-09
8.13465e-17
5.25141e-11
-2.93046e-09
1.41099e-16
5.17604e-11
-3.05014e-09
1.90821e-16
5.03638e-11
-3.15793e-09
2.63845e-16
4.8289e-11
-3.24856e-09
3.00141e-16
4.55174e-11
-3.31745e-09
3.4827e-16
4.20502e-11
-3.35947e-09
3.52077e-16
3.79187e-11
-3.36573e-09
3.64724e-16
3.31872e-11
-3.32802e-09
3.29567e-16
2.79617e-11
-3.23509e-09
2.98913e-16
2.23963e-11
-3.0716e-09
2.30034e-16
1.66938e-11
-2.81922e-09
1.76055e-16
1.11083e-11
-2.45832e-09
1.03311e-16
5.98565e-12
-1.97066e-09
5.59728e-17
1.91365e-12
-1.34506e-09
-1.36384e-18
-5.50769e-10
-3.10862e-17
9.65258e-16
-4.58361e-13
-6.04738e-18
7.16731e-15
-2.54725e-12
-3.87903e-17
2.31756e-14
-6.0625e-12
-8.99334e-17
5.46795e-14
-1.08749e-11
4.28342e-17
1.04136e-13
-1.69696e-11
-3.65323e-17
1.79098e-13
-2.43852e-11
-7.6961e-17
2.80388e-13
-3.31826e-11
-2.02215e-16
4.15308e-13
-4.34554e-11
1.73286e-16
5.8811e-13
-5.52902e-11
-1.50798e-16
8.05135e-13
-6.88204e-11
7.94325e-18
1.07045e-12
-8.41536e-11
-2.30705e-17
1.39115e-12
-1.01435e-10
1.67845e-17
1.77229e-12
-1.20822e-10
1.11738e-17
2.2199e-12
-1.42458e-10
-2.17068e-17
2.74123e-12
-1.66529e-10
3.4506e-17
3.34146e-12
-1.93198e-10
-3.17673e-17
4.02862e-12
-2.2266e-10
2.73545e-17
4.80806e-12
-2.55115e-10
-3.94259e-17
5.68775e-12
-2.90772e-10
1.1467e-17
6.67354e-12
-3.29834e-10
1.866e-17
7.77222e-12
-3.7252e-10
5.10308e-17
8.98943e-12
-4.19086e-10
4.98445e-17
1.03307e-11
-4.69698e-10
6.15826e-17
1.18005e-11
-5.24648e-10
6.18733e-17
1.34024e-11
-5.8411e-10
8.06911e-17
1.51385e-11
-6.48341e-10
9.51421e-17
1.70092e-11
-7.17551e-10
1.15867e-16
1.90129e-11
-7.91868e-10
1.39917e-16
2.11458e-11
-8.7161e-10
1.65376e-16
2.34011e-11
-9.56776e-10
1.99593e-16
2.57687e-11
-1.04758e-09
2.32622e-16
2.82351e-11
-1.1441e-09
2.61754e-16
3.07827e-11
-1.24633e-09
2.78253e-16
3.3389e-11
-1.35425e-09
2.80787e-16
3.6027e-11
-1.46776e-09
2.74624e-16
3.86646e-11
-1.58672e-09
2.60848e-16
4.1264e-11
-1.71076e-09
2.50186e-16
4.37826e-11
-1.83956e-09
2.17687e-16
4.61713e-11
-1.97253e-09
1.80366e-16
4.83764e-11
-2.10848e-09
1.25672e-16
5.03398e-11
-2.24769e-09
1.01108e-16
5.19996e-11
-2.38764e-09
6.73369e-17
5.32905e-11
-2.52819e-09
6.8617e-17
5.41465e-11
-2.66666e-09
5.56262e-17
5.45018e-11
-2.80088e-09
9.35237e-17
5.42929e-11
-2.93025e-09
1.24791e-16
5.34636e-11
-3.04931e-09
1.94836e-16
5.19648e-11
-3.15643e-09
2.46246e-16
4.97613e-11
-3.24635e-09
3.13432e-16
4.68357e-11
-3.31452e-09
3.37337e-16
4.31913e-11
-3.35582e-09
3.75609e-16
3.8863e-11
-3.3614e-09
3.6199e-16
3.39205e-11
-3.32308e-09
3.56525e-16
2.84766e-11
-3.22965e-09
2.97667e-16
2.26959e-11
-3.06582e-09
2.52558e-16
1.67979e-11
-2.81332e-09
1.71048e-16
1.10629e-11
-2.45258e-09
1.17352e-16
5.87171e-12
-1.96547e-09
4.69397e-17
1.83404e-12
-1.34103e-09
5.11124e-18
-5.48935e-10
-3.58005e-17
1.04514e-15
-4.59437e-13
-4.13281e-18
7.54287e-15
-2.55407e-12
-3.92234e-17
2.41911e-14
-6.07981e-12
-7.89702e-17
5.66011e-14
-1.0907e-11
2.99142e-17
1.07406e-13
-1.70213e-11
-1.11475e-16
1.83157e-13
-2.44607e-11
1.34247e-16
2.87233e-13
-3.3287e-11
9.70409e-17
4.27197e-13
-4.35932e-11
-1.19332e-16
6.03459e-13
-5.54681e-11
-1.9786e-16
8.26348e-13
-6.9043e-11
2.53905e-16
1.09953e-12
-8.44267e-11
-1.81983e-16
1.42997e-12
-1.01764e-10
1.54402e-16
1.82294e-12
-1.21215e-10
-7.16288e-18
2.28518e-12
-1.4292e-10
1.3444e-17
2.8241e-12
-1.67068e-10
6.08864e-17
3.44553e-12
-1.9382e-10
-1.46308e-17
4.15782e-12
-2.23372e-10
4.72614e-17
4.96679e-12
-2.55924e-10
-3.76807e-17
5.8809e-12
-2.91686e-10
2.90677e-17
6.90625e-12
-3.30859e-10
-1.41856e-17
8.04995e-12
-3.73664e-10
1.09612e-17
9.31785e-12
-4.20354e-10
-5.78341e-18
1.07157e-11
-4.71096e-10
1.45934e-17
1.2248e-11
-5.26181e-10
9.37711e-18
1.39185e-11
-5.85781e-10
3.87172e-17
1.57292e-11
-6.50151e-10
5.18887e-17
1.76805e-11
-7.19502e-10
8.27707e-17
1.97705e-11
-7.93957e-10
1.07495e-16
2.19952e-11
-8.73834e-10
1.39887e-16
2.4347e-11
-9.59127e-10
1.7617e-16
2.68153e-11
-1.05005e-09
2.12739e-16
2.93856e-11
-1.14667e-09
2.46266e-16
3.20392e-11
-1.24898e-09
2.62247e-16
3.47524e-11
-1.35696e-09
2.72587e-16
3.74967e-11
-1.4705e-09
2.62294e-16
4.02379e-11
-1.58945e-09
2.60893e-16
4.29364e-11
-1.71346e-09
2.41981e-16
4.55474e-11
-1.84217e-09
2.25948e-16
4.80194e-11
-1.975e-09
1.74803e-16
5.02961e-11
-2.11076e-09
1.39097e-16
5.23166e-11
-2.24972e-09
9.37956e-17
5.40165e-11
-2.38934e-09
8.14054e-17
5.53277e-11
-2.5295e-09
5.7076e-17
5.61816e-11
-2.66751e-09
6.87121e-17
5.65102e-11
-2.80121e-09
7.65499e-17
5.62479e-11
-2.92999e-09
1.33399e-16
5.53373e-11
-3.0484e-09
1.7821e-16
5.37282e-11
-3.15482e-09
2.52719e-16
5.1386e-11
-3.24401e-09
2.89488e-16
4.82942e-11
-3.31143e-09
3.43055e-16
4.44586e-11
-3.35198e-09
3.49573e-16
3.99184e-11
-3.35685e-09
3.66665e-16
3.47489e-11
-3.3179e-09
3.31324e-16
2.9071e-11
-3.22397e-09
3.00498e-16
2.30609e-11
-3.0598e-09
2.27386e-16
1.69551e-11
-2.80721e-09
1.69959e-16
1.10603e-11
-2.44669e-09
9.21344e-17
5.78935e-12
-1.9602e-09
4.21221e-17
1.77003e-12
-1.33701e-09
-1.7879e-17
-5.47167e-10
-4.82388e-17
9.62829e-16
-4.60463e-13
-7.61762e-18
7.41365e-15
-2.5607e-12
-2.28673e-17
2.41311e-14
-6.09695e-12
-5.12454e-17
5.65421e-14
-1.09392e-11
3.11553e-17
1.0796e-13
-1.70736e-11
-1.02556e-16
1.84889e-13
-2.45373e-11
6.68957e-17
2.9124e-13
-3.33939e-11
2.46449e-17
4.34428e-13
-4.37348e-11
-4.72329e-17
6.15494e-13
-5.56509e-11
-1.864e-16
8.4494e-13
-6.92722e-11
1.86054e-16
1.1265e-12
-8.47085e-11
-1.62557e-16
1.46795e-12
-1.02105e-10
1.03672e-16
1.87467e-12
-1.21622e-10
-3.10758e-17
2.35398e-12
-1.43399e-10
-1.41142e-17
2.9136e-12
-1.67627e-10
2.69055e-17
3.55969e-12
-1.94466e-10
-3.16011e-17
4.30102e-12
-2.24113e-10
1.87411e-17
5.14362e-12
-2.56768e-10
-5.82343e-17
6.09636e-12
-2.92638e-10
9.57681e-18
7.16567e-12
-3.31928e-10
1.87524e-17
8.35891e-12
-3.74857e-10
4.43423e-17
9.68232e-12
-4.21677e-10
3.86244e-17
1.1142e-11
-4.72555e-10
5.31079e-17
1.27425e-11
-5.27781e-10
5.1727e-17
1.44878e-11
-5.87526e-10
6.95097e-17
1.63798e-11
-6.52043e-10
8.04133e-17
1.84188e-11
-7.21541e-10
1.00286e-16
2.06027e-11
-7.96141e-10
1.2061e-16
2.2927e-11
-8.76157e-10
1.44266e-16
2.53836e-11
-9.61582e-10
1.75601e-16
2.79612e-11
-1.05262e-09
2.09461e-16
3.06443e-11
-1.14935e-09
2.38211e-16
3.3413e-11
-1.25174e-09
2.57714e-16
3.62421e-11
-1.35979e-09
2.62052e-16
3.91014e-11
-1.47336e-09
2.61529e-16
4.1955e-11
-1.59231e-09
2.515e-16
4.4761e-11
-1.71627e-09
2.47706e-16
4.74721e-11
-1.84488e-09
2.18634e-16
5.00344e-11
-1.97756e-09
1.86607e-16
5.23886e-11
-2.11311e-09
1.31725e-16
5.44712e-11
-2.2518e-09
1.07928e-16
5.62146e-11
-2.39108e-09
7.02466e-17
5.75481e-11
-2.53084e-09
7.10546e-17
5.84001e-11
-2.66836e-09
5.29995e-17
5.87004e-11
-2.80151e-09
8.80975e-17
5.8381e-11
-2.92967e-09
1.11393e-16
5.73832e-11
-3.0474e-09
1.78787e-16
5.5656e-11
-3.15309e-09
2.27057e-16
5.31649e-11
-3.24151e-09
2.96509e-16
4.9895e-11
-3.30816e-09
3.21014e-16
4.58547e-11
-3.34794e-09
3.64515e-16
4.10877e-11
-3.35208e-09
3.5212e-16
3.56756e-11
-3.31249e-09
3.49835e-16
2.97484e-11
-3.21804e-09
2.89069e-16
2.34943e-11
-3.05355e-09
2.43488e-16
1.71682e-11
-2.80089e-09
1.57748e-16
1.1102e-11
-2.44062e-09
1.02368e-16
5.73899e-12
-1.95483e-09
2.88381e-17
1.72109e-12
-1.33299e-09
-1.28511e-17
-5.45447e-10
-5.42487e-17
1.03644e-15
-4.6154e-13
-5.14244e-18
7.65778e-15
-2.5677e-12
-4.65269e-17
2.51495e-14
-6.11481e-12
-4.43295e-17
5.87347e-14
-1.09727e-11
1.6129e-17
1.12058e-13
-1.71276e-11
-9.29047e-17
1.91742e-13
-2.46168e-11
4.88916e-17
3.01655e-13
-3.35043e-11
6.49977e-17
4.49526e-13
-4.38812e-11
9.88829e-18
6.36798e-13
-5.58395e-11
-2.10578e-16
8.73698e-13
-6.95089e-11
2.08033e-16
1.16542e-12
-8.50001e-11
-1.23404e-16
1.51919e-12
-1.02458e-10
1.3037e-16
1.94118e-12
-1.22044e-10
-1.69592e-17
2.43904e-12