/*--------------------------------*- C++ -*----------------------------------*\
| =========                 |                                                 |
| \\      /  F ield         | OpenFOAM: The Open Source CFD Toolbox           |
|  \\    /   O peration     | Version:  v2012                                 |
|   \\  /    A nd           | Website:  www.openfoam.com                      |
|    \\/     M anipulation  |                                                 |
\*---------------------------------------------------------------------------*/
FoamFile
{
    version     2.0;
    format      ascii;
    class       volScalarField;
    location    "0.15";
    object      alpha.water;
}
// * * * * * * * * * * * * * * * * * * * * * * * * * * * * * * * * * * * * * //

dimensions      [0 0 0 0 0 0 0];


internalField   nonuniform List<scalar> 
3332
(
5.80135e-29
6.02423e-38
4.12228e-40
3.23636e-42
2.75916e-44
1.49096e-45
1.39658e-44
4.30194e-44
5.14437e-44
4.74424e-42
1.02849e-40
2.15109e-40
2.18652e-39
7.87669e-38
5.51034e-35
1.20536e-32
1.79466e-31
7.77439e-31
1.5246e-30
1.83292e-30
1.80254e-13
3.40298e-21
7.09261e-29
7.2332e-38
4.91197e-40
3.84772e-42
3.25991e-44
9.9598e-46
8.24316e-45
3.09028e-44
4.07307e-44
6.10709e-43
9.60096e-41
8.08154e-40
1.30569e-39
1.54443e-38
1.21159e-36
1.61568e-33
4.11218e-32
2.45478e-31
5.83668e-31
7.7154e-31
1.00003
0.999996
0.999999
0.999997
0.999996
0.999996
0.999982
0.999499
0.998428
0.998345
0.779243
0.189038
0.00736823
5.70984e-07
5.05489e-10
2.19338e-13
4.47074e-21
8.7854e-29
8.80417e-38
5.93672e-40
4.64208e-42
3.92083e-44
7.80151e-46
4.38176e-45
2.25051e-44
4.19305e-44
5.05932e-44
9.6343e-42
5.93788e-40
3.60379e-39
5.73084e-39
7.12976e-38
1.17801e-34
6.72162e-33
6.28274e-32
1.98002e-31
2.97198e-31
1.00004
0.999995
1
0.999996
0.999996
0.999998
0.999985
0.999614
0.998318
0.998161
0.999274
0.996818
0.79799
0.206611
0.00856623
8.94296e-07
6.29573e-10
2.67669e-13
6.30195e-21
1.10091e-28
1.08502e-37
7.27063e-40
5.67846e-42
4.79144e-44
7.141e-46
1.96563e-45
1.50613e-44
3.45204e-44
3.77199e-44
1.47065e-43
9.60474e-41
2.46537e-39
1.04265e-38
1.66952e-38
2.4324e-36
6.80987e-34
1.13121e-32
5.31969e-32
1.06334e-31
1.00004
0.999995
1
0.999988
0.999997
0.999999
0.999995
0.99975
0.99822
0.997957
0.999155
0.997383
0.816698
0.22481
0.00989689
1.40103e-06
7.83239e-10
3.27156e-13
9.50108e-21
1.39343e-28
1.35199e-37
9.01216e-40
7.03613e-42
5.93918e-44
7.03118e-46
7.53237e-46
8.47143e-45
2.53205e-44
4.02154e-44
5.06158e-44
6.0044e-42
6.83876e-40
7.00126e-39
1.91599e-38
4.07464e-38
3.30808e-35
1.3098e-33
1.03184e-32
2.89577e-32
4.08524e-32
1.00005
0.999995
1
0.999983
0.999994
1
0.999999
0.999915
0.998136
0.997749
0.999016
0.997923
0.835028
0.243328
0.0113529
2.18915e-06
9.71525e-10
3.99939e-13
1.5156e-20
1.77844e-28
1.70079e-37
1.12919e-39
8.82159e-42
7.45886e-44
6.93537e-46
2.97045e-46
4.55516e-45
1.68259e-44
3.05228e-44
3.32879e-44
2.01515e-43
1.2486e-40
2.6379e-39
1.33803e-38
2.84718e-38
1.89636e-37
5.4889e-35
1.05188e-33
5.35742e-33
1.07313e-32
1.00005
0.999995
1.00001
0.999979
0.999991
1
1
0.999933
0.998065
0.997546
0.99887
0.998319
0.852225
0.261647
0.0129103
3.4012e-06
1.19935e-09
4.88368e-13
2.51842e-20
2.28506e-28
2.15684e-37
1.4283e-39
1.1178e-41
9.47923e-44
8.63884e-46
1.13719e-46
2.17762e-45
1.03636e-44
2.23179e-44
2.77469e-44
4.46115e-44
1.44639e-41
6.90648e-40
5.66926e-39
1.80551e-38
3.5374e-38
2.75509e-37
2.93241e-35
4.24692e-34
1.6674e-33
2.66805e-33
1.00005
0.999997
1.00001
0.999979
0.999985
1
1
0.999993
0.997964
0.99734
0.998751
0.998527
0.867173
0.279029
0.0145289
5.23784e-06
1.47114e-09
5.94967e-13
4.28786e-20
2.95103e-28
2.75315e-37
1.82144e-39
1.42979e-41
1.21729e-43
1.07945e-45
5.14495e-47
9.33945e-46
5.85632e-45
1.54342e-44
2.42409e-44
2.63857e-44
7.64568e-43
1.3857e-40
1.89324e-39
8.05444e-39
1.70007e-38
2.67445e-38
1.04123e-37
5.37418e-36
7.06873e-35
2.73646e-34
1.00004
0.999999
1.00001
0.999979
0.999984
0.999999
1
1
0.997743
0.99712
0.998668
0.998597
0.878741
0.294608
0.0161562
7.9709e-06
1.79054e-09
7.22396e-13
7.37124e-20
3.8251e-28
3.5325e-37
2.33887e-39
1.84402e-41
1.57799e-43
1.39371e-45
3.4577e-47
3.49732e-46
3.03214e-45
9.73542e-45
1.70902e-44
1.81171e-44
3.93847e-44
1.64708e-41
4.31147e-40
2.78973e-39
7.58152e-39
1.1903e-38
1.4715e-38
2.80952e-38
6.05703e-37
5.13571e-36
1.00003
1
1.00001
0.999985
0.999983
0.999998
1
1
0.997307
0.996889
0.998638
0.998606
0.886306
0.307597
0.0177353
1.1953e-05
2.16027e-09
8.73414e-13
1.26433e-19
4.97003e-28
4.55018e-37
3.02059e-39
2.39534e-41
2.06267e-43
1.82656e-45
3.06863e-47
1.1276e-46
1.41751e-45
5.51251e-45
1.17947e-44
1.71336e-44
1.84346e-44
1.15003e-42
7.04559e-41
7.18361e-40
2.67551e-39
4.98474e-39
5.93423e-39
4.5127e-39
4.05579e-39
1.93855e-38
1.00003
1
1
0.999994
0.999984
0.999999
1
1
0.996748
0.99663
0.998719
0.998618
0.890029
0.317463
0.0192123
1.762e-05
2.58236e-09
1.05082e-12
2.1441e-19
6.46634e-28
5.87748e-37
3.91934e-39
3.13068e-41
2.71596e-43
2.41535e-45
2.99523e-47
3.05067e-47
6.14048e-46
2.93448e-45
7.20772e-45
1.12957e-44
1.24018e-44
2.87708e-44
7.73046e-42
1.37445e-40
7.44354e-40
1.80063e-39
2.47355e-39
2.4411e-39
6.78542e-40
1.7457e-40
1.00002
1
1
0.999997
0.999988
1
1
1
0.996047
0.996389
0.99895
0.998624
0.891167
0.324036
0.02054
2.54821e-05
3.05883e-09
1.25735e-12
3.57095e-19
8.41715e-28
7.60616e-37
5.10478e-39
4.11332e-41
3.59901e-43
3.22339e-45
2.92782e-47
8.12921e-48
2.37996e-46
1.43865e-45
4.13917e-45
7.51877e-45
9.95129e-45
9.58922e-45
4.68683e-43
1.76176e-41
1.52108e-40
5.20331e-40
9.2446e-40
1.07369e-39
5.33196e-40
7.08263e-41
1.00002
1
1
0.999999
0.999993
1
1
1
0.995204
0.996219
0.999165
0.998583
0.890927
0.327516
0.0216794
3.6102e-05
3.59318e-09
1.49555e-12
5.81324e-19
1.09541e-27
9.8541e-37
6.66875e-39
5.42861e-41
4.79554e-43
4.33264e-45
4.05346e-47
2.6077e-48
8.14141e-47
6.52598e-46
2.20473e-45
4.48561e-45
6.6454e-45
8.33312e-45
1.51657e-44
1.38876e-42
2.20085e-41
1.12318e-40
2.61074e-40
3.52057e-40
3.17511e-40
5.87361e-41
1.00001
1
1
1
0.999996
1
1
0.999989
0.994222
0.996171
0.999273
0.998454
0.887093
0.328766
0.0225992
5.0063e-05
4.19304e-09
1.76759e-12
9.22123e-19
1.42449e-27
1.27726e-36
8.73237e-39
7.19184e-41
6.42036e-43
5.85787e-45
5.37084e-47
1.49902e-48
2.3443e-47
2.71637e-46
1.11206e-45
2.54845e-45
4.0205e-45
5.00719e-45
5.31665e-45
4.65665e-44
1.63223e-42
1.49615e-41
5.43379e-41
9.99753e-41
1.16384e-40
4.92577e-41
1.00001
1
0.999999
1
0.999995
0.999999
1
0.999878
0.993112
0.996148
0.999301
0.998231
0.880617
0.328793
0.0232784
6.79318e-05
4.87441e-09
2.07502e-12
1.42266e-18
1.85026e-27
1.65554e-36
1.14553e-38
9.55878e-41
8.63107e-43
7.96254e-45
7.35865e-47
1.27256e-48
5.29498e-48
1.00077e-46
5.15202e-46
1.36558e-45
2.36484e-45
3.08866e-45
3.41286e-45
3.32776e-45
4.58964e-44
1.00987e-42
6.65538e-42
1.81418e-41
2.60407e-41
2.45638e-41
1
1
0.999999
1
0.999998
0.999997
1
0.999745
0.991905
0.996143
0.999302
0.99792
0.872465
0.324178
0.0237175
9.02246e-05
5.66846e-09
2.41855e-12
2.13315e-18
2.39979e-27
2.14507e-36
1.50479e-38
1.27401e-40
1.16443e-42
1.08734e-44
1.01402e-46
1.24302e-48
8.44947e-49
3.19919e-47
2.16556e-46
6.77944e-46
1.30633e-45
1.82061e-45
2.04775e-45
2.06814e-45
1.7299e-45
1.3694e-44
2.57194e-43
1.51002e-42
3.68327e-42
4.90735e-42
1.00001
1
1
1
0.999997
0.999996
1
0.999627
0.990609
0.996163
0.999302
0.997459
0.862502
0.316256
0.0239452
0.00011738
6.6324e-09
2.79775e-12
3.10867e-18
3.10735e-27
2.77763e-36
1.97873e-38
1.70205e-40
1.57579e-42
1.49086e-44
1.40695e-46
1.22223e-48
1.48842e-49
8.53123e-48
8.13143e-47
3.11464e-46
6.808e-46
1.02455e-45
1.20175e-45
1.2309e-45
9.6871e-46
8.61518e-46
1.39745e-45
2.06045e-44
1.47791e-43
4.10125e-43
1.00001
1
1
1.00001
0.999997
0.999996
0.999999
0.999472
0.989211
0.996218
0.999302
0.996797
0.851005
0.307626
0.0240335
0.000149743
7.86769e-09
3.21072e-12
4.40614e-18
4.01645e-27
3.59393e-36
2.60384e-38
2.2785e-40
2.13822e-42
2.05134e-44
1.96325e-46
1.89554e-48
6.20154e-50
1.788e-48
2.64904e-47
1.29693e-46
3.3186e-46
5.5071e-46
6.8302e-46
7.16386e-46
5.56742e-46
4.09844e-46
2.96575e-46
2.56697e-46
9.57773e-46
5.99447e-45
1.00001
1
1
1
0.999997
0.999996
0.999999
0.999286
0.98771
0.996295
0.9993
0.995893
0.837989
0.298034
0.024049
0.000187557
9.55044e-09
3.6538e-12
6.08087e-18
5.18223e-27
4.64614e-36
3.42814e-38
3.05534e-40
2.90822e-42
2.83116e-44
2.74992e-46
2.61375e-48
4.79384e-50
2.67389e-49
7.25383e-48
4.77863e-47
1.48516e-46
2.79687e-46
3.7333e-46
4.03258e-46
3.25848e-46
2.29461e-46
1.59342e-46
8.0669e-47
3.58031e-47
2.71939e-47
1.00001
1
1
1
0.999996
0.999996
0.999998
0.999067
0.986116
0.996355
0.999293
0.994668
0.82322
0.287193
0.0238506
0.000230976
1.19805e-08
4.1213e-12
8.18316e-18
6.67473e-27
6.00124e-36
4.51483e-38
4.10263e-40
3.96363e-42
3.91784e-44
3.86712e-46
3.74508e-48
4.65975e-50
2.19947e-50
1.59997e-48
1.51388e-47
5.95244e-47
1.31564e-46
1.94348e-46
2.1995e-46
1.94399e-46
1.20263e-46
8.11065e-47
4.6013e-47
1.8799e-47
5.20855e-48
1.00001
1
1
1
0.999997
0.999997
0.999999
0.998814
0.984445
0.996424
0.999275
0.993005
0.806585
0.275337
0.0234105
0.000280127
1.56539e-08
4.60538e-12
1.07552e-17
8.58304e-27
7.7454e-36
5.94704e-38
5.51471e-40
5.4116e-42
5.43411e-44
5.45584e-46
5.36699e-48
4.61052e-50
3.41117e-51
2.66122e-49
3.98708e-48
2.0761e-47
5.58681e-47
9.41618e-47
1.13659e-46
1.14563e-46
6.76179e-47
4.06373e-47
2.31908e-47
1.01823e-47
3.17912e-48
1
1
1
1
0.999998
0.999997
0.999999
0.998532
0.982716
0.996446
0.99924
0.990797
0.788085
0.262818
0.0228779
0.000335248
2.13543e-08
5.09612e-12
1.38289e-17
1.10207e-26
9.98962e-36
7.83417e-38
7.41822e-40
7.39945e-42
7.55224e-44
7.71918e-46
7.74108e-48
7.67302e-50
1.64984e-51
3.0381e-50
8.37827e-49
6.07827e-48
2.06807e-47
4.1477e-47
5.66161e-47
6.04966e-47
4.06448e-47
2.11162e-47
1.13942e-47
4.99004e-48
1.68026e-48
0.999997
1
1
1
0.999998
0.999998
0.999999
0.998221
0.980942
0.9963
0.999178
0.987911
0.767726
0.249868
0.022263
0.000396774
3.02443e-08
5.58191e-12
1.74231e-17
1.4133e-26
1.28775e-35
1.03201e-37
9.98292e-40
1.01294e-41
1.0514e-43
1.09476e-45
1.11969e-47
1.09929e-49
1.5034e-51
1.75316e-51
1.3347e-49
1.44809e-48
6.48507e-48
1.5932e-47
2.52013e-47
2.92528e-47
2.44049e-47
1.17127e-47
5.76827e-48
2.4111e-48
7.79371e-49
0.999987
1.00001
1
1
0.999998
0.999998
0.999999
0.997886
0.979123
0.995956
0.999078
0.984175
0.745559
0.23667
0.0215697
0.000464551
4.39141e-08
6.0503e-12
2.15422e-17
1.81058e-26
1.65948e-35
1.35946e-37
1.34359e-39
1.38786e-41
1.46587e-43
1.55572e-45
1.62494e-47
1.6386e-49
1.45727e-51
1.1232e-52
1.4577e-50
2.65741e-49
1.64925e-48
5.16008e-48
9.74385e-48
1.25759e-47
1.28991e-47
6.83309e-48
3.06435e-48
1.2417e-48
3.6596e-49
0.999985
1.00001
1
0.999999
0.999998
0.999999
0.999999
0.997524
0.977233
0.995432
0.998906
0.979401
0.721717
0.22341
0.0208159
0.00053419
6.43386e-08
6.48935e-12
2.61717e-17
2.31783e-26
2.13831e-35
1.79073e-37
1.80808e-39
1.90258e-41
2.0462e-43
2.2144e-45
2.36388e-47
2.43818e-49
2.43958e-51
4.87426e-53
9.31732e-52
3.51729e-50
3.21256e-49
1.3388e-48
3.1742e-48
4.88567e-48
5.53583e-48
3.94154e-48
1.6723e-48
6.70206e-49
1.92889e-49
0.999983
1.00001
1
1
0.999998
0.999997
1
0.997136
0.975216
0.994726
0.998629
0.973439
0.696393
0.210258
0.0200205
0.00059273
9.37166e-08
6.88939e-12
3.12728e-17
2.96587e-26
2.75572e-35
2.35883e-37
2.43231e-39
2.60884e-41
2.85907e-43
3.15622e-45
3.44566e-47
3.64312e-49
3.64443e-51
4.6126e-53
1.22563e-53
3.07904e-51
4.56483e-50
2.66007e-49
8.17376e-49
1.53633e-48
1.96662e-48
1.99217e-48
9.04255e-49
3.50479e-49
1.08533e-49
0.999983
1.00001
1
1
0.999998
0.999997
1
0.996712
0.973034
0.993869
0.998231
0.966119
0.669825
0.197355
0.0191953
0.000629978
1.3422e-07
7.24521e-12
3.67738e-17
3.79457e-26
3.55286e-35
3.10741e-37
3.27055e-39
3.57725e-41
3.99782e-43
4.50373e-45
5.0303e-47
5.45697e-49
5.63416e-51
4.58839e-53
1.35424e-54
1.42879e-52
4.28656e-51
3.76654e-50
1.58068e-49
3.82882e-49
6.00854e-49
6.85496e-49
4.54395e-49
1.67886e-49
5.75725e-50
0.999982
1.00001
1
1
0.999998
0.999997
1
0.996249
0.970676
0.992804
0.997683
0.957278
0.642279
0.184811
0.0183404
0.000648293
1.8774e-07
7.5581e-12
4.25585e-17
4.85567e-26
4.58365e-35
4.09438e-37
4.39556e-39
4.90421e-41
5.59309e-43
6.43307e-45
7.35336e-47
8.19041e-49
8.70388e-51
8.77124e-53
1.08861e-54
1.95221e-54
2.38488e-52
3.42286e-51
2.02272e-50
6.40491e-50
1.2459e-49
1.63928e-49
1.67743e-49
7.25649e-50
2.53769e-50
0.999983
1.00001
1
1
0.999998
0.999997
0.999999
0.995743
0.968117
0.991491
0.996949
0.946762
0.614027
0.172702
0.0174607
0.000653052
2.55722e-07
7.83804e-12
4.84555e-17
6.21655e-26
5.91908e-35
5.39677e-37
5.90525e-39
6.72168e-41
7.82784e-43
9.1981e-45
1.0763e-46
1.23143e-48
1.34874e-50
1.35873e-52
1.05597e-54
2.5917e-56
5.504e-54
1.57799e-52
1.43247e-51
6.41509e-51
1.69175e-50
2.90283e-50
3.53271e-50
2.73455e-50
8.46252e-51
0.999983
1.00001
1
1
0.999998
0.999997
0.999999
0.995181
0.965339
0.989877
0.995985
0.93443
0.585326
0.161081
0.0165667
0.000651508
3.39154e-07
8.10646e-12
5.4233e-17
7.96533e-26
7.65275e-35
7.11746e-37
7.932e-39
9.21093e-41
1.0959e-42
1.31662e-44
1.57771e-46
1.85466e-48
2.09464e-50
2.20212e-52
2.0975e-54
2.22853e-56
9.51731e-57
2.52745e-54
4.35226e-53
3.09921e-52
1.18739e-51
2.7629e-51
4.20729e-51
4.66358e-51
2.28899e-51
0.999983
1.00001
1
1
0.999998
0.999997
0.999999
0.99457
0.96231
0.987892
0.994743
0.92015
0.556409
0.149981
0.0156691
0.000642712
4.38685e-07
8.40376e-12
5.96078e-17
1.02177e-25
9.90876e-35
9.39439e-37
1.06559e-38
1.26225e-40
1.53492e-42
1.88719e-44
2.31715e-46
2.79894e-48
3.25928e-50
3.54738e-52
3.39693e-54
2.20287e-56
2.13686e-58
6.63448e-57
4.09178e-55
5.43383e-54
3.16196e-53
1.01097e-52
1.98532e-52
2.59769e-52
2.61573e-52
0.999984
1.00001
1
1
0.999998
0.999997
0.999998
0.993934
0.958982
0.985438
0.99316
0.903789
0.527475
0.139416
0.014777
0.000628468
5.54815e-07
8.81292e-12
6.42793e-17
1.31263e-25
1.28519e-34
1.24133e-36
1.43232e-38
1.73054e-40
2.15156e-42
2.70991e-44
3.41187e-46
4.23496e-48
5.08378e-50
5.74276e-52
5.7751e-54
4.82782e-56
2.08837e-58
2.0642e-60
3.42265e-58
1.19236e-56
1.31909e-55
7.07821e-55
2.17631e-54
4.17617e-54
5.41991e-54
0.999986
1.00001
1
1
0.999999
0.999997
0.999998
0.993309
0.955276
0.982381
0.991102
0.885244
0.498688
0.129388
0.0138985
0.000610762
6.88098e-07
9.53157e-12
6.79916e-17
1.68936e-25
1.67024e-34
1.64255e-36
1.92736e-38
2.37511e-40
3.02044e-42
3.90087e-44
5.04086e-46
6.4301e-48
7.95639e-50
9.31884e-52
9.78085e-54
8.07274e-56
4.77973e-58
1.98424e-60
7.85478e-61
1.29182e-59
1.01412e-58
6.59934e-58
3.43672e-57
1.27019e-56
2.93587e-56
0.999985
1.00001
1
1
0.999999
0.999997
0.999998
0.992721
0.951156
0.978544
0.988345
0.864471
0.470182
0.119887
0.0130396
0.000590791
8.39314e-07
1.10696e-11
7.06112e-17
2.17893e-25
2.17553e-34
2.17725e-36
2.59782e-38
3.266e-40
4.25109e-42
5.63455e-44
7.48067e-46
9.80943e-48
1.25121e-49
1.51798e-51
1.66805e-53
1.43487e-55
8.30971e-58
3.41496e-60
1.42761e-61
4.38026e-61
9.43711e-61
2.23081e-60
6.79566e-60
2.13617e-59
4.50586e-59
0.999986
1.00001
1
1
1
0.999997
0.999997
0.992175
0.946589
0.973709
0.984692
0.841383
0.442061
0.110894
0.0122041
0.000569282
1.00961e-06
1.47163e-11
7.21812e-17
2.81756e-25
2.84078e-34
2.89216e-36
3.50967e-38
4.5045e-40
6.00715e-42
8.17778e-44
1.11653e-45
1.5061e-47
1.98041e-49
2.48569e-51
2.85517e-53
2.56811e-55
1.54265e-57
6.16599e-60
4.37068e-62
1.11446e-61
2.32676e-61
3.70896e-61
4.72855e-61
5.02112e-61
3.63248e-61
0.999986
1.00001
1
1
1
0.999997
0.999997
0.991741
0.94155
0.967623
0.979863
0.815917
0.414408
0.102387
0.0113944
0.000546633
1.20063e-06
2.34057e-11
7.29132e-17
3.65412e-25
3.71977e-34
3.85147e-36
4.75604e-38
6.23941e-40
8.53755e-42
1.19472e-43
1.67893e-45
2.33204e-47
3.16106e-49
4.10029e-51
4.91155e-53
4.67904e-55
2.88604e-57
1.14604e-59
2.0694e-62
1.40489e-62
4.15975e-62
7.71675e-62
1.17345e-61
1.38387e-61
1.26997e-61
0.999987
1.00001
0.999999
1
1
0.999997
0.999997
0.991363
0.936029
0.960001
0.973514
0.78804
0.387289
0.0943413
0.0106117
0.000523094
1.41456e-06
4.27859e-11
7.31241e-17
4.75514e-25
4.88571e-34
5.14405e-36
6.46991e-38
8.69276e-40
1.22273e-41
1.76071e-43
2.54883e-45
3.64968e-47
5.09929e-49
6.82996e-51
8.50635e-53
8.63771e-55
5.51085e-57
2.12763e-59
1.97071e-62
2.06438e-63
4.95287e-63
8.24846e-63
1.31503e-62
1.82595e-62
2.06701e-62
0.999987
1.00001
0.999998
1
1
0.999996
0.999997
0.991168
0.930037
0.950537
0.965229
0.757758
0.360757
0.0867337
0.0098568
0.000498861
1.65391e-06
8.17133e-11
7.2958e-17
6.21178e-25
6.4389e-34
6.8937e-36
8.84354e-38
1.22011e-39
1.76811e-41
2.62371e-43
3.91583e-45
5.78518e-47
8.33333e-49
1.15188e-50
1.48729e-52
1.61018e-54
1.06913e-56
3.97375e-59
4.97972e-62
3.18818e-64
6.37047e-64
8.83834e-64
1.00238e-63
1.01161e-63
1.14246e-63
0.999987
1.00001
0.999998
1
1
0.999995
0.999996
0.991009
0.923594
0.938927
0.954534
0.725115
0.334861
0.0795419
0.00913029
0.000474111
1.92067e-06
1.51317e-10
7.0491e-17
8.15005e-25
8.51772e-34
9.27438e-36
1.21593e-37
1.72822e-39
2.5861e-41
3.96163e-43
6.10162e-45
9.30331e-47
1.38263e-48
1.97185e-50
2.63301e-52
3.02127e-54
2.10116e-56
7.48747e-59
9.89641e-62
9.5965e-65
5.68668e-65
1.06017e-64
1.26105e-64
1.02727e-64
4.38501e-65
0.999989
1
0.999999
1
1
0.999995
0.999996
0.990993
0.91674
0.924919
0.940927
0.690195
0.309647
0.0727464
0.00843256
0.000449015
2.21435e-06
2.62684e-10
6.55219e-17
1.07457e-24
1.13146e-33
1.25327e-35
1.6839e-37
2.47443e-39
3.83173e-41
6.07051e-43
9.65706e-45
1.51942e-46
2.33225e-48
3.43279e-50
4.73268e-52
5.70182e-54
4.16976e-56
1.42981e-58
2.07303e-61
1.16794e-64
3.52463e-66
8.54449e-66
1.19397e-65
1.32999e-65
6.52309e-66
0.999993
1
0.999998
1
1
0.999995
0.999996
0.991443
0.909354
0.90846
0.923937
0.653166
0.285172
0.0663312
0.00776391
0.000423719
2.52855e-06
4.24043e-10
6.05407e-17
1.42459e-24
1.50995e-33
1.70217e-35
2.35254e-37
3.58655e-39
5.75742e-41
9.44544e-43
1.55287e-44
2.5212e-46
4.0006e-48
6.08354e-50
8.65702e-52
1.08461e-53
8.34725e-56
2.77811e-58
4.34203e-61
2.69973e-64
3.21054e-67
2.48718e-67
5.29655e-67
6.7877e-67
6.88275e-67
0.901563
0.889622
0.903198
0.614324
0.261506
0.0602851
0.00712461
0.000398341
2.84746e-06
6.38038e-10
5.74027e-17
1.90019e-24
2.02548e-33
2.32528e-35
3.3214e-37
5.26915e-39
8.77759e-41
1.49166e-42
2.5344e-44
4.24843e-46
6.9727e-48
1.09756e-49
1.61446e-51
2.08847e-53
1.6897e-55
5.51094e-58
9.20316e-61
5.64922e-64
6.54698e-67
3.07543e-69
9.05955e-69
1.57257e-68
2.02602e-68
5.79625e-29
6.03635e-38
4.13089e-40
3.24326e-42
2.76061e-44
1.32846e-45
1.28858e-44
4.23866e-44
5.30315e-44
3.01371e-42
1.01927e-40
2.97164e-40
2.27771e-39
7.87616e-38
5.48507e-35
1.20373e-32
1.79377e-31
7.77479e-31
1.52524e-30
1.83406e-30
1.80254e-13
3.40301e-21
7.08639e-29
7.24775e-38
4.9222e-40
3.85585e-42
3.26388e-44
9.07653e-46
7.34656e-45
3.02042e-44
4.472e-44
5.31352e-43
9.71434e-41
8.68819e-40
1.39229e-39
1.55693e-38
1.2084e-36
1.61262e-33
4.10868e-32
2.45425e-31
5.83787e-31
7.71852e-31
1.00002
0.999997
0.999999
0.999997
0.999996
0.999996
0.999982
0.999498
0.998428
0.998346
0.779242
0.189038
0.00736823
5.70984e-07
5.05486e-10
2.19338e-13
4.47078e-21
8.7777e-29
8.82188e-38
5.94905e-40
4.65178e-42
3.92771e-44
7.426e-46
3.88435e-45
2.15195e-44
4.11392e-44
5.07128e-44
1.01922e-41
6.63988e-40
4.08991e-39
6.28297e-39
7.18587e-38
1.17482e-34
6.71195e-33
6.27857e-32
1.97996e-31
2.97303e-31
1.00002
0.999997
1
0.999996
0.999997
0.999997
0.999985
0.999614
0.998318
0.998161
0.999274
0.996819
0.797988
0.206612
0.00856623
8.94296e-07
6.29569e-10
2.67669e-13
6.302e-21
1.09995e-28
1.0872e-37
7.28571e-40
5.69018e-42
4.80058e-44
6.96228e-46
1.68113e-45
1.43047e-44
3.43675e-44
3.78478e-44
1.51563e-43
1.03699e-40
2.82694e-39
1.22859e-38
1.8662e-38
2.4262e-36
6.79656e-34
1.12993e-32
5.31718e-32
1.06338e-31
1.00003
0.999997
1
0.999991
0.999997
0.999999
0.999995
0.99975
0.99822
0.997957
0.999154
0.997382
0.816697
0.22481
0.00989689
1.40103e-06
7.83235e-10
3.27156e-13
9.50113e-21
1.39222e-28
1.35471e-37
9.03083e-40
7.05045e-42
5.95098e-44
6.8875e-46
6.15614e-46
7.84818e-45
2.51974e-44
4.14927e-44
5.25746e-44
5.4384e-42
7.42823e-40
8.16944e-39
2.37725e-38
4.55698e-38
3.3e-35
1.30744e-33
1.03086e-32
2.89462e-32
4.08474e-32
1.00003
0.999997
1
0.999989
0.999996
1
0.999999
0.999915
0.998136
0.997749
0.999016
0.997923
0.835026
0.243328
0.0113529
2.18915e-06
9.71519e-10
3.99939e-13
1.51561e-20
1.77689e-28
1.70421e-37
1.13153e-39
8.83928e-42
7.47379e-44
6.77359e-46
2.43126e-46
4.09374e-45
1.6447e-44
3.1543e-44
3.4691e-44
1.96729e-43
1.27611e-40
2.94151e-39
1.58677e-38
3.68544e-38
2.01506e-37
5.47412e-35
1.04967e-33
5.35093e-33
1.07264e-32
1.00003
0.999998
1
0.999986
0.999993
1
1
0.999932
0.998064
0.997545
0.998871
0.99832
0.852223
0.261648
0.0129103
3.40121e-06
1.19934e-09
4.88368e-13
2.51843e-20
2.28307e-28
2.16118e-37
1.43126e-39
1.12001e-41
9.49815e-44
8.64172e-46
9.42673e-47
1.89674e-45
9.80854e-45
2.28137e-44
3.04043e-44
4.71e-44
1.39718e-41
7.59014e-40
6.62704e-39
2.18836e-38
4.42884e-38
2.88222e-37
2.92184e-35
4.23575e-34
1.66484e-33
2.66553e-33
1.00003
0.999999
1
0.999987
0.99999
1
1
0.999993
0.997964
0.997339
0.998752
0.998528
0.86717
0.27903
0.0145289
5.23785e-06
1.47113e-09
5.94967e-13
4.28788e-20
2.94847e-28
2.75868e-37
1.82521e-39
1.43257e-41
1.21967e-43
1.07853e-45
4.60261e-47
7.98133e-46
5.40202e-45
1.53321e-44
2.55428e-44
2.81124e-44
5.5098e-43
1.45793e-40
2.18046e-39
9.81318e-39
2.13123e-38
3.36202e-38
1.12933e-37
5.36316e-36
7.04618e-35
2.72977e-34
1.00002
0.999999
1
0.999988
0.999989
0.999999
1
1
0.997742
0.997119
0.998669
0.998599
0.878738
0.294608
0.0161562
7.97092e-06
1.79053e-09
7.22397e-13
7.37126e-20
3.82179e-28
3.5396e-37
2.34372e-39
1.84756e-41
1.58103e-43
1.39674e-45
3.32028e-47
2.93396e-46
2.7198e-45
9.3649e-45
1.79515e-44
2.09355e-44
4.09054e-44
1.63599e-41
4.82323e-40
3.34353e-39
9.51748e-39
1.52888e-38
1.88081e-38
3.21335e-38
6.07237e-37
5.12219e-36
1.00002
1
1
0.999993
0.999989
0.999999
1
1
0.997307
0.996889
0.99864
0.998608
0.886302
0.307598
0.0177354
1.19531e-05
2.16026e-09
8.73415e-13
1.26433e-19
4.96573e-28
4.55932e-37
3.02684e-39
2.39988e-41
2.06656e-43
1.82947e-45
3.00885e-47
9.37075e-47
1.25732e-45
5.21669e-45
1.21243e-44
1.88404e-44
2.03584e-44
1.03134e-42
7.57404e-41
8.41005e-40
3.32845e-39
6.47205e-39
7.82368e-39
6.07105e-39
4.96813e-39
2.021e-38
1.00002
1
1
0.999996
0.999991
1
1
1
0.996747
0.996629
0.998722
0.998622
0.890023
0.317464
0.0192123
1.76201e-05
2.58235e-09
1.05082e-12
2.14411e-19
6.46076e-28
5.88927e-37
3.92746e-39
3.13656e-41
2.72099e-43
2.41983e-45
2.95328e-47
2.54146e-47
5.39522e-46
2.7147e-45
7.24049e-45
1.25158e-44
1.5152e-44
2.65668e-44
7.80504e-42
1.54073e-40
8.98932e-40
2.31556e-39
3.30648e-39
3.32227e-39
1.06214e-39
2.88381e-40
1.00001
1
1
0.999998
0.999993
1
1
1
0.996047
0.996389
0.998953
0.998628
0.89116
0.324037
0.0205401
2.54822e-05
3.05882e-09
1.25735e-12
3.57096e-19
8.4099e-28
7.6214e-37
5.11533e-39
4.12097e-41
3.60555e-43
3.22924e-45
2.89388e-47
7.20909e-48
2.10313e-46
1.31524e-45
4.04202e-45
7.99126e-45
1.12887e-44
1.13807e-44
4.39368e-43
1.88172e-41
1.76537e-40
6.46585e-40
1.21201e-39
1.44024e-39
8.08246e-40
1.28919e-40
1.00001
1
1
1
0.999995
1
1
1
0.995203
0.996219
0.999167
0.998589
0.890918
0.327517
0.0216795
3.61021e-05
3.59316e-09
1.49555e-12
5.81326e-19
1.09447e-27
9.87381e-37
6.68247e-39
5.43865e-41
4.80411e-43
4.34045e-45
4.06305e-47
2.46135e-48
7.27368e-47
5.90535e-46
2.08425e-45
4.58155e-45
7.46168e-45
1.01824e-44
1.53369e-44
1.33838e-42
2.3755e-41
1.33292e-40
3.33201e-40
4.62276e-40
4.4363e-40
1.00883e-40
1.00001
1
1
1
0.999997
1
1
0.99999
0.99422
0.99617
0.999274
0.998461
0.887082
0.328768
0.0225993
5.00632e-05
4.19302e-09
1.76759e-12
9.22126e-19
1.42327e-27
1.2798e-36
8.7502e-39
7.20508e-41
6.43167e-43
5.86818e-45
5.37672e-47
1.47732e-48
2.13435e-47
2.4613e-46
1.03148e-45
2.51089e-45
4.33047e-45
5.98094e-45
7.33113e-45
4.48799e-44
1.65914e-42
1.63554e-41
6.33608e-41
1.2397e-40
1.49785e-40
7.61236e-41
1
1
1
1
0.999998
0.999999
1
0.99988
0.99311
0.996148
0.999301
0.998237
0.880607
0.328795
0.0232786
6.79321e-05
4.87439e-09
2.07502e-12
1.42267e-18
1.84868e-27
1.65883e-36
1.14784e-38
9.57635e-41
8.64613e-43
7.97632e-45
7.37224e-47
1.26981e-48
4.94701e-48
9.18153e-47
4.74663e-46
1.31154e-45
2.46191e-45
3.57479e-45
4.36643e-45
4.78081e-45
4.23041e-44
9.54916e-43
6.83304e-42
2.03281e-41
3.10092e-41
3.11261e-41
1
1
1
1
0.999999
0.999998
1
0.999746
0.991903
0.996142
0.999302
0.997925
0.872457
0.32418
0.0237176
9.02251e-05
5.66844e-09
2.41855e-12
2.13316e-18
2.39774e-27
2.14932e-36
1.50778e-38
1.27635e-40
1.16645e-42
1.08919e-44
1.01568e-46
1.24295e-48
8.18298e-49
2.99454e-47
2.002e-46
6.40073e-46
1.30672e-45
2.00282e-45
2.53098e-45
2.80016e-45
2.82107e-45
1.24507e-44
2.20853e-43
1.41034e-42
3.69006e-42
5.13475e-42
1
1
1
1
0.999998
0.999997
1
0.999627
0.990606
0.996164
0.999302
0.997463
0.862494
0.316258
0.0239454
0.000117381
6.63239e-09
2.79775e-12
3.10868e-18
3.1047e-27
2.78311e-36
1.98258e-38
1.70518e-40
1.57852e-42
1.49336e-44
1.40925e-46
1.22304e-48
1.51704e-49
8.20473e-48
7.59813e-47
2.92356e-46
6.62989e-46
1.06806e-45
1.37365e-45
1.53034e-45
1.56865e-45
1.48739e-45
1.94482e-45
1.56728e-44
1.12663e-43
3.36124e-43
1.00001
1
1
1
0.999998
0.999997
0.999999
0.999473
0.989207
0.996219
0.999302
0.996799
0.850998
0.307628
0.0240337
0.000149744
7.86768e-09
3.21073e-12
4.40615e-18
4.01303e-27
3.60098e-36
2.60876e-38
2.28268e-40
2.14193e-42
2.05475e-44
1.96637e-46
1.8992e-48
6.29714e-50
1.78699e-48
2.51864e-47
1.21714e-46
3.17575e-46
5.54316e-46
7.36911e-46
8.13696e-46
8.04589e-46
6.68279e-46
5.56811e-46
4.88117e-46
7.8121e-46
3.6211e-45
1.00001
1
1
1
0.999998
0.999997
0.999999
0.999286
0.987706
0.996297
0.9993
0.995895
0.837982
0.298036
0.0240492
0.000187558
9.55044e-09
3.65381e-12
6.0809e-18
5.17783e-27
4.6552e-36
3.43437e-38
3.06092e-40
2.9133e-42
2.83586e-44
2.7542e-46
2.61777e-48
4.8445e-50
2.83737e-49
7.09253e-48
4.52466e-47
1.40497e-46
2.72425e-46
3.8259e-46
4.30959e-46
4.29271e-46
3.30122e-46
2.60456e-46
1.65508e-46
8.59007e-47
4.23186e-47
1.00001
1
1
1
0.999998
0.999998
0.999999
0.999067
0.986112
0.996358
0.999293
0.994669
0.823213
0.287195
0.0238508
0.000230978
1.19806e-08
4.12131e-12
8.1832e-18
6.66906e-27
6.01287e-36
4.52266e-38
4.11007e-40
3.97061e-42
3.92437e-44
3.87307e-46
3.75068e-48
4.69915e-50
2.61982e-50
1.62766e-48
1.46065e-47
5.62354e-47
1.25334e-46
1.9155e-46
2.25483e-46
2.29124e-46
1.63733e-46
1.18848e-46
7.34743e-47
3.66764e-47
1.34964e-47
1
1
1
1
0.999998
0.999998
0.999999
0.998814
0.984441
0.996427
0.999275
0.993005
0.806578
0.275339
0.0234107
0.00028013
1.5654e-08
4.60539e-12
1.07553e-17
8.57577e-27
7.7603e-36
5.95677e-38
5.52457e-40
5.42121e-42
5.44326e-44
5.4642e-46
5.37471e-48
4.63607e-50
3.67636e-51
2.86718e-49
3.97081e-48
1.98357e-47
5.2636e-47
9.02452e-47
1.13816e-46
1.19052e-46
8.60401e-47
5.7075e-47
3.36945e-47
1.5602e-47
5.79769e-48
1
1
1
1
0.999999
0.999998
0.999999
0.998532
0.982711
0.996449
0.99924
0.990796
0.788079
0.262821
0.0228781
0.000335252
2.13545e-08
5.09613e-12
1.38289e-17
1.10114e-26
1.00087e-35
7.84612e-38
7.43119e-40
7.41269e-42
7.56516e-44
7.73107e-46
7.75204e-48
7.68331e-50
1.69734e-51
3.52983e-50
8.72457e-49
5.97851e-48
1.96337e-47
3.89146e-47
5.39284e-47
5.92252e-47
4.64095e-47
2.81327e-47
1.64548e-47
7.11854e-48
2.40443e-48
0.999998
1
1
1
0.999999
0.999998
0.999999
0.998222
0.980937
0.996304
0.999178
0.98791
0.76772
0.24987
0.0222632
0.000396779
3.02446e-08
5.58193e-12
1.74232e-17
1.41211e-26
1.29019e-35
1.03346e-37
9.99984e-40
1.01476e-41
1.05323e-43
1.09647e-45
1.12127e-47
1.10086e-49
1.52238e-51
2.33232e-51
1.45611e-49
1.47601e-48
6.30059e-48
1.49695e-47
2.33111e-47
2.71251e-47
2.46368e-47
1.38842e-47
8.07182e-48
3.55999e-48
1.10354e-48
0.999992
1
1
1
0.999999
0.999999
0.999999
0.997886
0.979118
0.995959
0.999078
0.984174
0.745554
0.236672
0.02157
0.000464558
4.39145e-08
6.05032e-12
2.15423e-17
1.80905e-26
1.6626e-35
1.36119e-37
1.34577e-39
1.39034e-41
1.46847e-43
1.5582e-45
1.62725e-47
1.64072e-49
1.47567e-51
1.25955e-52
1.67717e-50
2.81168e-49
1.65214e-48
4.94597e-48
9.03548e-48
1.14771e-47
1.18082e-47
6.9192e-48
3.77754e-48
1.77414e-48
5.5915e-49
0.999991
1
1
1
0.999999
0.999998
0.999999
0.997524
0.977228
0.995434
0.998905
0.979405
0.721712
0.223413
0.0208162
0.000534198
6.43393e-08
6.48937e-12
2.61718e-17
2.31588e-26
2.14231e-35
1.79277e-37
1.81085e-39
1.90592e-41
2.04988e-43
2.21802e-45
2.3673e-47
2.44134e-49
2.43938e-51
4.9982e-53
1.15197e-51
3.89508e-50
3.3525e-49
1.32794e-48
3.00477e-48
4.45804e-48
4.97717e-48
3.53602e-48
1.70473e-48
8.16343e-49
2.77198e-49
0.999989
1.00001
1
1
0.999999
0.999998
1
0.997135
0.975211
0.994727
0.998628
0.973443
0.696388
0.210261
0.0200208
0.000592739
9.37176e-08
6.88942e-12
3.1273e-17
2.96338e-26
2.76085e-35
2.3612e-37
2.43577e-39
2.6133e-41
2.86425e-43
3.16153e-45
3.45079e-47
3.64796e-49
3.64945e-51
4.67164e-53
2.01984e-53
3.61301e-51
5.02801e-50
2.77879e-49
8.08274e-49
1.43889e-48
1.77281e-48
1.75224e-48
7.72679e-49
3.4584e-49
1.25693e-49
0.999989
1.00001
1
1
0.999999
0.999997
1
0.996712
0.97303
0.993871
0.99823
0.966123
0.669821
0.197358
0.0191955
0.000629988
1.34222e-07
7.24524e-12
3.6774e-17
3.79139e-26
3.55944e-35
3.11011e-37
3.27479e-39
3.58308e-41
4.00502e-43
4.5115e-45
5.03803e-47
5.46441e-49
5.63966e-51
4.62418e-53
1.47967e-54
1.84875e-52
5.03679e-51
4.14546e-50
1.63445e-49
3.71863e-49
5.49843e-49
6.04955e-49
3.60898e-49
1.40653e-49
5.21658e-50
0.999989
1.00001
1
1
0.999999
0.999997
1
0.996249
0.970672
0.992805
0.997683
0.957283
0.642275
0.184814
0.0183406
0.000648303
1.87742e-07
7.55813e-12
4.25587e-17
4.85161e-26
4.59212e-35
4.0974e-37
4.40065e-39
4.91171e-41
5.60297e-43
6.44433e-45
7.36505e-47
8.202e-49
8.71336e-51
8.77215e-53
1.10423e-54
3.46614e-54
3.02042e-52
3.96849e-51
2.19758e-50
6.58476e-50
1.2149e-49
1.52811e-49
1.51131e-49
5.67262e-50
1.97565e-50
0.999989
1.00001
1
1
0.999999
0.999997
0.999999
0.995742
0.968112
0.991492
0.99695
0.946767
0.614023
0.172705
0.017461
0.000653062
2.55724e-07
7.83807e-12
4.84558e-17
6.21135e-26
5.92998e-35
5.4001e-37
5.91123e-39
6.73111e-41
7.84113e-43
9.21424e-45
1.07806e-46
1.23325e-48
1.35024e-50
1.35988e-52
1.07139e-54
2.85051e-56
7.50218e-54
1.94336e-52
1.67509e-51
7.23475e-51
1.83987e-50
3.01709e-50
3.52105e-50
2.21901e-50
6.45405e-51
0.999989
1.00001
1
1