/*--------------------------------*- C++ -*----------------------------------*\
| =========                 |                                                 |
| \\      /  F ield         | OpenFOAM: The Open Source CFD Toolbox           |
|  \\    /   O peration     | Version:  v2012                                 |
|   \\  /    A nd           | Website:  www.openfoam.com                      |
|    \\/     M anipulation  |                                                 |
\*---------------------------------------------------------------------------*/
FoamFile
{
    version     2.0;
    format      ascii;
    class       volScalarField;
    location    "0.15";
    object      p;
}
// * * * * * * * * * * * * * * * * * * * * * * * * * * * * * * * * * * * * * //

dimensions      [1 -1 -2 0 0 0 0];


internalField   nonuniform List<scalar> 
3332
(
3.47483e+06
3.47641e+06
3.4778e+06
3.47904e+06
3.48014e+06
3.48113e+06
3.48203e+06
3.48286e+06
3.48361e+06
3.4843e+06
3.48494e+06
3.48554e+06
3.48608e+06
3.48659e+06
3.48707e+06
3.48751e+06
3.48791e+06
3.48829e+06
3.48865e+06
3.48897e+06
3.46878e+06
3.47111e+06
3.4732e+06
3.47498e+06
3.47655e+06
3.47793e+06
3.47917e+06
3.48028e+06
3.48128e+06
3.48218e+06
3.48301e+06
3.48377e+06
3.48446e+06
3.4851e+06
3.48568e+06
3.48623e+06
3.48673e+06
3.48719e+06
3.48762e+06
3.48802e+06
3.48839e+06
3.48873e+06
3.49519e+06
3.51555e+06
3.49545e+06
3.50695e+06
3.50018e+06
3.50066e+06
3.49364e+06
3.48766e+06
3.48296e+06
3.4797e+06
3.4727e+06
3.45679e+06
3.45581e+06
3.46038e+06
3.4636e+06
3.4668e+06
3.46934e+06
3.47164e+06
3.4736e+06
3.47534e+06
3.47687e+06
3.47823e+06
3.47945e+06
3.48054e+06
3.48153e+06
3.48243e+06
3.48324e+06
3.48399e+06
3.48467e+06
3.48529e+06
3.48587e+06
3.4864e+06
3.48689e+06
3.48734e+06
3.48776e+06
3.48814e+06
3.4885e+06
3.47933e+06
3.50308e+06
3.48074e+06
3.4945e+06
3.48472e+06
3.48691e+06
3.48178e+06
3.48091e+06
3.47953e+06
3.47815e+06
3.47994e+06
3.47679e+06
3.47177e+06
3.45521e+06
3.45362e+06
3.4582e+06
3.46158e+06
3.46495e+06
3.46767e+06
3.47016e+06
3.47229e+06
3.47418e+06
3.47585e+06
3.47733e+06
3.47865e+06
3.47983e+06
3.4809e+06
3.48186e+06
3.48273e+06
3.48353e+06
3.48425e+06
3.48491e+06
3.48552e+06
3.48608e+06
3.48659e+06
3.48706e+06
3.4875e+06
3.4879e+06
3.48826e+06
3.45929e+06
3.48038e+06
3.4607e+06
3.47262e+06
3.46035e+06
3.46319e+06
3.46251e+06
3.47008e+06
3.475e+06
3.47671e+06
3.47891e+06
3.47604e+06
3.47147e+06
3.45416e+06
3.45179e+06
3.45622e+06
3.45972e+06
3.46322e+06
3.46611e+06
3.46876e+06
3.47104e+06
3.47308e+06
3.47487e+06
3.47646e+06
3.47788e+06
3.47915e+06
3.48029e+06
3.48132e+06
3.48224e+06
3.48309e+06
3.48385e+06
3.48455e+06
3.48519e+06
3.48577e+06
3.4863e+06
3.48679e+06
3.48725e+06
3.48766e+06
3.48804e+06
3.48839e+06
3.43594e+06
3.44959e+06
3.43733e+06
3.44389e+06
3.42989e+06
3.43173e+06
3.43735e+06
3.45578e+06
3.46953e+06
3.47529e+06
3.4783e+06
3.47592e+06
3.47163e+06
3.45328e+06
3.45012e+06
3.45434e+06
3.45797e+06
3.46157e+06
3.46463e+06
3.46744e+06
3.46987e+06
3.47204e+06
3.47395e+06
3.47565e+06
3.47715e+06
3.4785e+06
3.47971e+06
3.4808e+06
3.48178e+06
3.48266e+06
3.48346e+06
3.4842e+06
3.48486e+06
3.48547e+06
3.48602e+06
3.48653e+06
3.487e+06
3.48743e+06
3.48782e+06
3.48818e+06
3.41655e+06
3.42169e+06
3.41686e+06
3.41724e+06
3.40254e+06
3.40195e+06
3.41335e+06
3.44177e+06
3.46418e+06
3.47386e+06
3.4778e+06
3.47597e+06
3.47177e+06
3.45217e+06
3.44833e+06
3.45242e+06
3.45625e+06
3.45997e+06
3.46322e+06
3.46617e+06
3.46875e+06
3.47105e+06
3.47308e+06
3.47487e+06
3.47647e+06
3.47789e+06
3.47916e+06
3.4803e+06
3.48133e+06
3.48226e+06
3.4831e+06
3.48386e+06
3.48455e+06
3.48518e+06
3.48576e+06
3.48628e+06
3.48676e+06
3.4872e+06
3.48761e+06
3.48797e+06
3.48831e+06
3.40727e+06
3.40822e+06
3.40678e+06
3.40476e+06
3.39105e+06
3.3888e+06
3.40134e+06
3.43391e+06
3.46072e+06
3.47235e+06
3.47647e+06
3.47518e+06
3.47087e+06
3.45029e+06
3.44609e+06
3.45034e+06
3.45447e+06
3.45839e+06
3.46185e+06
3.46497e+06
3.46771e+06
3.47013e+06
3.47226e+06
3.47415e+06
3.47583e+06
3.47732e+06
3.47865e+06
3.47984e+06
3.48091e+06
3.48187e+06
3.48275e+06
3.48354e+06
3.48425e+06
3.4849e+06
3.4855e+06
3.48604e+06
3.48653e+06
3.48699e+06
3.4874e+06
3.48778e+06
3.48812e+06
3.41019e+06
3.41363e+06
3.40997e+06
3.41182e+06
3.40015e+06
3.3994e+06
3.40738e+06
3.43552e+06
3.45941e+06
3.46992e+06
3.47326e+06
3.47257e+06
3.46808e+06
3.44726e+06
3.44332e+06
3.44801e+06
3.45263e+06
3.45682e+06
3.46053e+06
3.46383e+06
3.46672e+06
3.46927e+06
3.47151e+06
3.47348e+06
3.47523e+06
3.47678e+06
3.47817e+06
3.47941e+06
3.48052e+06
3.48151e+06
3.48242e+06
3.48323e+06
3.48397e+06
3.48464e+06
3.48525e+06
3.48581e+06
3.48632e+06
3.48678e+06
3.4872e+06
3.48759e+06
3.48794e+06
3.42197e+06
3.42964e+06
3.42221e+06
3.42864e+06
3.41992e+06
3.42326e+06
3.42417e+06
3.44276e+06
3.4585e+06
3.4658e+06
3.46792e+06
3.46792e+06
3.46329e+06
3.44324e+06
3.44024e+06
3.44556e+06
3.45078e+06
3.45529e+06
3.45928e+06
3.46277e+06
3.46581e+06
3.46848e+06
3.47081e+06
3.47287e+06
3.47468e+06
3.47629e+06
3.47772e+06
3.479e+06
3.48015e+06
3.48118e+06
3.4821e+06
3.48294e+06
3.4837e+06
3.48439e+06
3.48502e+06
3.48559e+06
3.4861e+06
3.48658e+06
3.48701e+06
3.4874e+06
3.48776e+06
3.43447e+06
3.44316e+06
3.43518e+06
3.44279e+06
3.43711e+06
3.44384e+06
3.43952e+06
3.44823e+06
3.45603e+06
3.46024e+06
3.46123e+06
3.46195e+06
3.45729e+06
3.43886e+06
3.43723e+06
3.44317e+06
3.44903e+06
3.45386e+06
3.45813e+06
3.46179e+06
3.46498e+06
3.46776e+06
3.47018e+06
3.47231e+06
3.47418e+06
3.47584e+06
3.47732e+06
3.47863e+06
3.47981e+06
3.48086e+06
3.48182e+06
3.48267e+06
3.48345e+06
3.48415e+06
3.48479e+06
3.48537e+06
3.4859e+06
3.48638e+06
3.48682e+06
3.48722e+06
3.48759e+06
3.44387e+06
3.44971e+06
3.44446e+06
3.44958e+06
3.44735e+06
3.45251e+06
3.44835e+06
3.4491e+06
3.45195e+06
3.45427e+06
3.45446e+06
3.45577e+06
3.45122e+06
3.43484e+06
3.43462e+06
3.44106e+06
3.44748e+06
3.45259e+06
3.45711e+06
3.46093e+06
3.46425e+06
3.46712e+06
3.46962e+06
3.47181e+06
3.47374e+06
3.47544e+06
3.47695e+06
3.47829e+06
3.4795e+06
3.48058e+06
3.48155e+06
3.48242e+06
3.48321e+06
3.48393e+06
3.48458e+06
3.48517e+06
3.48571e+06
3.4862e+06
3.48665e+06
3.48705e+06
3.48742e+06
3.45087e+06
3.44986e+06
3.45104e+06
3.44997e+06
3.45388e+06
3.45189e+06
3.4517e+06
3.44693e+06
3.44736e+06
3.44891e+06
3.44856e+06
3.45039e+06
3.44599e+06
3.43166e+06
3.43261e+06
3.43939e+06
3.44622e+06
3.45154e+06
3.45625e+06
3.46019e+06
3.46362e+06
3.46657e+06
3.46913e+06
3.47137e+06
3.47334e+06
3.47508e+06
3.47662e+06
3.47799e+06
3.47922e+06
3.48031e+06
3.4813e+06
3.48219e+06
3.48299e+06
3.48372e+06
3.48438e+06
3.48498e+06
3.48553e+06
3.48603e+06
3.48648e+06
3.48689e+06
3.48726e+06
3.45684e+06
3.44788e+06
3.45607e+06
3.44831e+06
3.45887e+06
3.44979e+06
3.45163e+06
3.44409e+06
3.4433e+06
3.44478e+06
3.44417e+06
3.44598e+06
3.44186e+06
3.42936e+06
3.43122e+06
3.43818e+06
3.44527e+06
3.45071e+06
3.45556e+06
3.45959e+06
3.4631e+06
3.4661e+06
3.46872e+06
3.471e+06
3.473e+06
3.47477e+06
3.47633e+06
3.47772e+06
3.47896e+06
3.48008e+06
3.48108e+06
3.48198e+06
3.48279e+06
3.48353e+06
3.4842e+06
3.48481e+06
3.48536e+06
3.48586e+06
3.48632e+06
3.48673e+06
3.48711e+06
3.45898e+06
3.44704e+06
3.4577e+06
3.44761e+06
3.46001e+06
3.44938e+06
3.44936e+06
3.44145e+06
3.44014e+06
3.44183e+06
3.44111e+06
3.44269e+06
3.43892e+06
3.42792e+06
3.43039e+06
3.43742e+06
3.44462e+06
3.45012e+06
3.45504e+06
3.45912e+06
3.46268e+06
3.46573e+06
3.46838e+06
3.47069e+06
3.47271e+06
3.4745e+06
3.47608e+06
3.47749e+06
3.47874e+06
3.47986e+06
3.48087e+06
3.48178e+06
3.48261e+06
3.48335e+06
3.48403e+06
3.48464e+06
3.48519e+06
3.4857e+06
3.48616e+06
3.48658e+06
3.48696e+06
3.45538e+06
3.44793e+06
3.45418e+06
3.44784e+06
3.45519e+06
3.44889e+06
3.44571e+06
3.43903e+06
3.43778e+06
3.43978e+06
3.439e+06
3.44025e+06
3.43681e+06
3.42697e+06
3.42998e+06
3.43701e+06
3.44421e+06
3.44973e+06
3.45468e+06
3.45879e+06
3.46237e+06
3.46544e+06
3.46811e+06
3.47043e+06
3.47248e+06
3.47427e+06
3.47587e+06
3.47728e+06
3.47855e+06
3.47968e+06
3.48069e+06
3.48161e+06
3.48244e+06
3.48319e+06
3.48387e+06
3.48448e+06
3.48504e+06
3.48555e+06
3.48602e+06
3.48644e+06
3.48682e+06
3.44686e+06
3.44982e+06
3.4475e+06
3.44923e+06
3.44764e+06
3.4476e+06
3.44208e+06
3.43691e+06
3.43606e+06
3.43822e+06
3.4374e+06
3.43837e+06
3.43517e+06
3.42629e+06
3.42984e+06
3.43684e+06
3.44401e+06
3.44952e+06
3.45446e+06
3.45856e+06
3.46215e+06
3.46523e+06
3.46791e+06
3.47024e+06
3.47229e+06
3.47409e+06
3.47569e+06
3.47711e+06
3.47838e+06
3.47952e+06
3.48054e+06
3.48146e+06
3.48229e+06
3.48304e+06
3.48372e+06
3.48434e+06
3.4849e+06
3.48541e+06
3.48588e+06
3.4863e+06
3.48668e+06
3.44085e+06
3.45407e+06
3.44236e+06
3.45269e+06
3.44302e+06
3.4466e+06
3.43968e+06
3.4351e+06
3.43467e+06
3.43684e+06
3.43597e+06
3.4368e+06
3.43371e+06
3.42574e+06
3.42984e+06
3.43683e+06
3.44395e+06
3.44944e+06
3.45436e+06
3.45845e+06
3.46202e+06
3.46509e+06
3.46777e+06
3.4701e+06
3.47215e+06
3.47396e+06
3.47555e+06
3.47697e+06
3.47824e+06
3.47938e+06
3.4804e+06
3.48132e+06
3.48215e+06
3.4829e+06
3.48359e+06
3.48421e+06
3.48477e+06
3.48528e+06
3.48575e+06
3.48617e+06
3.48656e+06
3.43864e+06
3.45799e+06
3.44087e+06
3.45663e+06
3.44298e+06
3.44595e+06
3.4384e+06
3.43331e+06
3.43327e+06
3.43543e+06
3.43451e+06
3.43534e+06
3.43226e+06
3.42524e+06
3.42992e+06
3.43693e+06
3.44401e+06
3.44947e+06
3.45435e+06
3.45842e+06
3.46198e+06
3.46503e+06
3.4677e+06
3.47002e+06
3.47206e+06
3.47386e+06
3.47545e+06
3.47687e+06
3.47813e+06
3.47927e+06
3.48028e+06
3.4812e+06
3.48203e+06
3.48278e+06
3.48346e+06
3.48408e+06
3.48465e+06
3.48516e+06
3.48563e+06
3.48605e+06
3.48643e+06
3.44028e+06
3.45839e+06
3.44236e+06
3.45741e+06
3.44467e+06
3.44442e+06
3.43728e+06
3.43133e+06
3.43176e+06
3.43394e+06
3.43297e+06
3.4339e+06
3.43078e+06
3.42482e+06
3.43006e+06
3.43712e+06
3.44417e+06
3.4496e+06
3.45445e+06
3.45848e+06
3.46201e+06
3.46504e+06
3.46768e+06
3.46999e+06
3.47201e+06
3.4738e+06
3.47538e+06
3.47679e+06
3.47805e+06
3.47918e+06
3.48019e+06
3.4811e+06
3.48193e+06
3.48268e+06
3.48336e+06
3.48397e+06
3.48454e+06
3.48505e+06
3.48551e+06
3.48593e+06
3.48632e+06
3.44277e+06
3.45368e+06
3.44408e+06
3.45367e+06
3.44511e+06
3.4414e+06
3.43573e+06
3.42921e+06
3.43022e+06
3.43245e+06
3.43145e+06
3.43248e+06
3.42934e+06
3.42451e+06
3.43027e+06
3.43741e+06
3.44441e+06
3.44982e+06
3.45462e+06
3.45861e+06
3.4621e+06
3.4651e+06
3.46772e+06
3.47e+06
3.47201e+06
3.47378e+06
3.47535e+06
3.47674e+06
3.47799e+06
3.47911e+06
3.48011e+06
3.48102e+06
3.48184e+06
3.48259e+06
3.48326e+06
3.48387e+06
3.48443e+06
3.48494e+06
3.48541e+06
3.48583e+06
3.48621e+06
3.44445e+06
3.44577e+06
3.44444e+06
3.44691e+06
3.44358e+06
3.43736e+06
3.43373e+06
3.42715e+06
3.42872e+06
3.43096e+06
3.43008e+06
3.43113e+06
3.42804e+06
3.42438e+06
3.4306e+06
3.4378e+06
3.44475e+06
3.45012e+06
3.45487e+06
3.45882e+06
3.46226e+06
3.46522e+06
3.46781e+06
3.47006e+06
3.47204e+06
3.47379e+06
3.47534e+06
3.47672e+06
3.47796e+06
3.47906e+06
3.48006e+06
3.48096e+06
3.48177e+06
3.48251e+06
3.48318e+06
3.48379e+06
3.48434e+06
3.48485e+06
3.48531e+06
3.48573e+06
3.48611e+06
3.44437e+06
3.43701e+06
3.44316e+06
3.43933e+06
3.44073e+06
3.43314e+06
3.43157e+06
3.42538e+06
3.42736e+06
3.42963e+06
3.42889e+06
3.42992e+06
3.42697e+06
3.42448e+06
3.43106e+06
3.43831e+06
3.44519e+06
3.45051e+06
3.4552e+06
3.45909e+06
3.46249e+06
3.4654e+06
3.46795e+06
3.47017e+06
3.47212e+06
3.47384e+06
3.47537e+06
3.47673e+06
3.47795e+06
3.47904e+06
3.48002e+06
3.48091e+06
3.48171e+06
3.48244e+06
3.48311e+06
3.48371e+06
3.48426e+06
3.48476e+06
3.48522e+06
3.48563e+06
3.48601e+06
3.443e+06
3.42931e+06
3.4408e+06
3.43253e+06
3.43741e+06
3.42942e+06
3.42955e+06
3.42404e+06
3.42624e+06
3.42853e+06
3.42794e+06
3.42894e+06
3.4262e+06
3.42484e+06
3.43169e+06
3.43896e+06
3.44574e+06
3.451e+06
3.45561e+06
3.45944e+06
3.46277e+06
3.46563e+06
3.46813e+06
3.47031e+06
3.47223e+06
3.47392e+06
3.47543e+06
3.47676e+06
3.47796e+06
3.47904e+06
3.48e+06
3.48088e+06
3.48167e+06
3.48239e+06
3.48304e+06
3.48364e+06
3.48418e+06
3.48468e+06
3.48513e+06
3.48555e+06
3.48592e+06
3.44042e+06
3.42324e+06
3.438e+06
3.42728e+06
3.43427e+06
3.42656e+06
3.42787e+06
3.42317e+06
3.4254e+06
3.42773e+06
3.42729e+06
3.42825e+06
3.42578e+06
3.42549e+06
3.4325e+06
3.43975e+06
3.44639e+06
3.45157e+06
3.45609e+06
3.45985e+06
3.46311e+06
3.46592e+06
3.46836e+06
3.4705e+06
3.47238e+06
3.47404e+06
3.47551e+06
3.47682e+06
3.478e+06
3.47905e+06
3.48e+06
3.48086e+06
3.48164e+06
3.48235e+06
3.483e+06
3.48358e+06
3.48412e+06
3.48461e+06
3.48506e+06
3.48546e+06
3.48584e+06
3.43821e+06
3.41945e+06
3.43545e+06
3.42375e+06
3.43169e+06
3.42466e+06
3.42661e+06
3.42274e+06
3.42484e+06
3.42726e+06
3.42694e+06
3.42789e+06
3.42574e+06
3.42642e+06
3.4335e+06
3.44068e+06
3.44716e+06
3.45224e+06
3.45666e+06
3.46033e+06
3.46351e+06
3.46625e+06
3.46864e+06
3.47072e+06
3.47256e+06
3.47418e+06
3.47562e+06
3.47691e+06
3.47806e+06
3.47909e+06
3.48002e+06
3.48086e+06
3.48163e+06
3.48232e+06
3.48296e+06
3.48354e+06
3.48406e+06
3.48455e+06
3.48499e+06
3.48539e+06
3.48576e+06
3.4362e+06
3.41742e+06
3.43341e+06
3.42178e+06
3.42981e+06
3.42364e+06
3.42578e+06
3.42269e+06
3.42455e+06
3.42708e+06
3.42692e+06
3.42784e+06
3.42608e+06
3.42761e+06
3.43469e+06
3.44176e+06
3.44804e+06
3.453e+06
3.45729e+06
3.46087e+06
3.46397e+06
3.46663e+06
3.46895e+06
3.47099e+06
3.47277e+06
3.47436e+06
3.47576e+06
3.47701e+06
3.47814e+06
3.47914e+06
3.48006e+06
3.48088e+06
3.48163e+06
3.48231e+06
3.48293e+06
3.4835e+06
3.48402e+06
3.48449e+06
3.48493e+06
3.48532e+06
3.48569e+06
3.43483e+06
3.417e+06
3.4321e+06
3.42111e+06
3.42864e+06
3.42334e+06
3.42533e+06
3.42295e+06
3.42449e+06
3.42716e+06
3.42723e+06
3.4281e+06
3.4268e+06
3.42906e+06
3.43606e+06
3.44297e+06
3.44903e+06
3.45386e+06
3.45801e+06
3.46147e+06
3.46447e+06
3.46706e+06
3.46931e+06
3.47128e+06
3.47302e+06
3.47456e+06
3.47592e+06
3.47714e+06
3.47823e+06
3.47922e+06
3.48011e+06
3.48091e+06
3.48164e+06
3.48231e+06
3.48291e+06
3.48347e+06
3.48398e+06
3.48444e+06
3.48487e+06
3.48526e+06
3.48562e+06
3.43372e+06
3.41759e+06
3.4314e+06
3.4214e+06
3.42809e+06
3.42358e+06
3.42522e+06
3.42344e+06
3.42462e+06
3.42747e+06
3.42787e+06
3.42866e+06
3.42789e+06
3.43072e+06
3.4376e+06
3.44431e+06
3.45013e+06
3.45479e+06
3.45879e+06
3.46214e+06
3.46503e+06
3.46753e+06
3.46971e+06
3.47162e+06
3.4733e+06
3.47479e+06
3.47611e+06
3.47729e+06
3.47835e+06
3.47931e+06
3.48017e+06
3.48095e+06
3.48167e+06
3.48231e+06
3.48291e+06
3.48345e+06
3.48395e+06
3.4844e+06
3.48482e+06
3.48521e+06
3.48556e+06
3.43317e+06
3.41912e+06
3.43117e+06
3.42236e+06
3.42799e+06
3.42419e+06
3.42535e+06
3.42407e+06
3.42492e+06
3.42796e+06
3.42882e+06
3.42947e+06
3.42934e+06
3.43258e+06
3.43931e+06
3.44576e+06
3.45133e+06
3.45581e+06
3.45964e+06
3.46286e+06
3.46564e+06
3.46804e+06
3.47014e+06
3.47198e+06
3.4736e+06
3.47504e+06
3.47632e+06
3.47746e+06
3.47849e+06
3.47941e+06
3.48025e+06
3.48101e+06
3.4817e+06
3.48233e+06
3.48291e+06
3.48344e+06
3.48392e+06
3.48437e+06
3.48478e+06
3.48516e+06
3.4855e+06
3.43272e+06
3.4211e+06
3.43113e+06
3.42366e+06
3.42819e+06
3.425e+06
3.42569e+06
3.42478e+06
3.42532e+06
3.42858e+06
3.43006e+06
3.4305e+06
3.43113e+06
3.4346e+06
3.44117e+06
3.44732e+06
3.45262e+06
3.4569e+06
3.46056e+06
3.46363e+06
3.4663e+06
3.4686e+06
3.47062e+06
3.47238e+06
3.47394e+06
3.47532e+06
3.47655e+06
3.47765e+06
3.47864e+06
3.47954e+06
3.48035e+06
3.48108e+06
3.48175e+06
3.48236e+06
3.48292e+06
3.48344e+06
3.48391e+06
3.48434e+06
3.48474e+06
3.48511e+06
3.48545e+06
3.43226e+06
3.42328e+06
3.43118e+06
3.42511e+06
3.42853e+06
3.42586e+06
3.42615e+06
3.42548e+06
3.42574e+06
3.42927e+06
3.43156e+06
3.43174e+06
3.43323e+06
3.43677e+06
3.44316e+06
3.44897e+06
3.454e+06
3.45806e+06
3.46153e+06
3.46446e+06
3.467e+06
3.4692e+06
3.47112e+06
3.47281e+06
3.4743e+06
3.47563e+06
3.47681e+06
3.47787e+06
3.47882e+06
3.47968e+06
3.48045e+06
3.48116e+06
3.48181e+06
3.4824e+06
3.48294e+06
3.48344e+06
3.4839e+06
3.48432e+06
3.48471e+06
3.48507e+06
3.48541e+06
3.43142e+06
3.42525e+06
3.43115e+06
3.42649e+06
3.42891e+06
3.42668e+06
3.42668e+06
3.42609e+06
3.42615e+06
3.42991e+06
3.43332e+06
3.43315e+06
3.43563e+06
3.43905e+06
3.44528e+06
3.45069e+06
3.45545e+06
3.45927e+06
3.46256e+06
3.46534e+06
3.46775e+06
3.46983e+06
3.47166e+06
3.47327e+06
3.47469e+06
3.47596e+06
3.47708e+06
3.47809e+06
3.47901e+06
3.47983e+06
3.48058e+06
3.48126e+06
3.48188e+06
3.48245e+06
3.48297e+06
3.48345e+06
3.4839e+06
3.48431e+06
3.48469e+06
3.48504e+06
3.48536e+06
3.43084e+06
3.42715e+06
3.43104e+06
3.42767e+06
3.42926e+06
3.42739e+06
3.42726e+06
3.42661e+06
3.4265e+06
3.43042e+06
3.43529e+06
3.43468e+06
3.4383e+06
3.4414e+06
3.44751e+06
3.45248e+06
3.45697e+06
3.46054e+06
3.46365e+06
3.46626e+06
3.46853e+06
3.4705e+06
3.47223e+06
3.47376e+06
3.47511e+06
3.47631e+06
3.47738e+06
3.47834e+06
3.47921e+06
3.47999e+06
3.48071e+06
3.48136e+06
3.48196e+06
3.4825e+06
3.48301e+06
3.48347e+06
3.4839e+06
3.4843e+06
3.48467e+06
3.48501e+06
3.48533e+06
3.43021e+06
3.42865e+06
3.43077e+06
3.42855e+06
3.42953e+06
3.42794e+06
3.42786e+06
3.42703e+06
3.42672e+06
3.43069e+06
3.43741e+06
3.43626e+06
3.44118e+06
3.4438e+06
3.44981e+06
3.4543e+06
3.45855e+06
3.46186e+06
3.46477e+06
3.46721e+06
3.46935e+06
3.47121e+06
3.47284e+06
3.47427e+06
3.47555e+06
3.47668e+06
3.47769e+06
3.47861e+06
3.47943e+06
3.48017e+06
3.48085e+06
3.48147e+06
3.48204e+06
3.48257e+06
3.48305e+06
3.4835e+06
3.48392e+06
3.4843e+06
3.48466e+06
3.48499e+06
3.4853e+06
3.42962e+06
3.42974e+06
3.43045e+06
3.4291e+06
3.42967e+06
3.42828e+06
3.42843e+06
3.42733e+06
3.42678e+06
3.43063e+06
3.43962e+06
3.43785e+06
3.44422e+06
3.4462e+06
3.45217e+06
3.45615e+06
3.46017e+06
3.46321e+06
3.46594e+06
3.46821e+06
3.47021e+06
3.47194e+06
3.47347e+06
3.47481e+06
3.47601e+06
3.47707e+06
3.47803e+06
3.47889e+06
3.47966e+06
3.48037e+06
3.48101e+06
3.4816e+06
3.48214e+06
3.48264e+06
3.4831e+06
3.48353e+06
3.48393e+06
3.4843e+06
3.48465e+06
3.48497e+06
3.48527e+06
3.42878e+06
3.43022e+06
3.42995e+06
3.42925e+06
3.42961e+06
3.42835e+06
3.42889e+06
3.4274e+06
3.42656e+06
3.43014e+06
3.4418e+06
3.43938e+06
3.44734e+06
3.44856e+06
3.45457e+06
3.45802e+06
3.46184e+06
3.4646e+06
3.46715e+06
3.46924e+06
3.4711e+06
3.47271e+06
3.47413e+06
3.47538e+06
3.4765e+06
3.47749e+06
3.47838e+06
3.47918e+06
3.47991e+06
3.48057e+06
3.48118e+06
3.48173e+06
3.48225e+06
3.48272e+06
3.48316e+06
3.48357e+06
3.48395e+06
3.48431e+06
3.48464e+06
3.48496e+06
3.48524e+06
3.42808e+06
3.43033e+06
3.42921e+06
3.42897e+06
3.42926e+06
3.42806e+06
3.42912e+06
3.42719e+06
3.42598e+06
3.42915e+06
3.44384e+06
3.44082e+06
3.45044e+06
3.45088e+06
3.45696e+06
3.45989e+06
3.46353e+06
3.46601e+06
3.46839e+06
3.47031e+06
3.47203e+06
3.47351e+06
3.47482e+06
3.47598e+06
3.477e+06
3.47792e+06
3.47875e+06
3.47949e+06
3.48017e+06
3.48079e+06
3.48135e+06
3.48188e+06
3.48236e+06
3.48281e+06
3.48323e+06
3.48362e+06
3.48398e+06
3.48432e+06
3.48464e+06
3.48494e+06
3.48522e+06
3.42703e+06
3.42984e+06
3.42807e+06
3.42824e+06
3.42855e+06
3.42734e+06
3.42905e+06
3.42648e+06
3.42492e+06
3.42764e+06
3.44558e+06
3.44214e+06
3.45345e+06
3.45314e+06
3.45934e+06
3.46176e+06
3.46525e+06
3.46746e+06
3.46967e+06
3.47142e+06
3.47299e+06
3.47434e+06
3.47554e+06
3.47659e+06
3.47754e+06
3.47838e+06
3.47913e+06
3.47982e+06
3.48044e+06
3.48101e+06
3.48154e+06
3.48203e+06
3.48248e+06
3.4829e+06
3.48329e+06
3.48366e+06
3.48401e+06
3.48434e+06
3.48465e+06
3.48494e+06
3.48521e+06
3.42584e+06
3.42916e+06
3.42654e+06
3.42719e+06
3.42746e+06
3.42619e+06
3.42868e+06
3.42488e+06
3.42316e+06
3.42559e+06
3.44686e+06
3.44334e+06
3.45629e+06
3.45535e+06
3.4617e+06
3.46365e+06
3.467e+06
3.46895e+06
3.47099e+06
3.47256e+06
3.47399e+06
3.47521e+06
3.47629e+06
3.47724e+06
3.47809e+06
3.47885e+06
3.47953e+06
3.48016e+06
3.48073e+06
3.48125e+06
3.48173e+06
3.48218e+06
3.4826e+06
3.483e+06
3.48337e+06
3.48372e+06
3.48405e+06
3.48436e+06
3.48466e+06
3.48493e+06
3.4852e+06
3.42363e+06
3.42773e+06
3.42443e+06
3.42599e+06
3.42609e+06
3.42483e+06
3.42804e+06
3.42275e+06
3.4211e+06
3.42319e+06
3.44769e+06
3.44453e+06
3.45897e+06
3.45758e+06
3.46406e+06
3.46559e+06
3.46879e+06
3.47049e+06
3.47237e+06
3.47375e+06
3.47503e+06
3.47611e+06
3.47707e+06
3.47791e+06
3.47866e+06
3.47934e+06
3.47995e+06
3.48051e+06
3.48102e+06
3.4815e+06
3.48194e+06
3.48235e+06
3.48274e+06
3.4831e+06
3.48345e+06
3.48378e+06
3.48409e+06
3.48438e+06
3.48467e+06
3.48493e+06
3.48519e+06
3.41913e+06
3.42064e+06
3.44834e+06
3.44589e+06
3.46158e+06
3.4599e+06
3.46644e+06
3.46761e+06
3.47065e+06
3.4721e+06
3.47379e+06
3.47499e+06
3.47612e+06
3.47704e+06
3.47788e+06
3.4786e+06
3.47926e+06
3.47985e+06
3.48038e+06
3.48087e+06
3.48133e+06
3.48175e+06
3.48214e+06
3.48252e+06
3.48287e+06
3.48321e+06
3.48353e+06
3.48384e+06
3.48413e+06
3.48441e+06
3.48468e+06
3.48494e+06
3.48518e+06
3.47483e+06
3.47641e+06
3.4778e+06
3.47904e+06
3.48014e+06
3.48113e+06
3.48203e+06
3.48286e+06
3.48361e+06
3.4843e+06
3.48494e+06
3.48554e+06
3.48608e+06
3.48659e+06
3.48707e+06
3.48751e+06
3.48791e+06
3.48829e+06
3.48865e+06
3.48897e+06
3.46878e+06
3.47111e+06
3.4732e+06
3.47498e+06
3.47655e+06
3.47793e+06
3.47917e+06
3.48028e+06
3.48128e+06
3.48218e+06
3.48301e+06
3.48377e+06
3.48446e+06
3.4851e+06
3.48568e+06
3.48623e+06
3.48673e+06
3.48719e+06
3.48762e+06
3.48802e+06
3.48839e+06
3.48873e+06
3.49519e+06
3.51555e+06
3.49545e+06
3.50695e+06
3.50018e+06
3.50066e+06
3.49364e+06
3.48766e+06
3.48296e+06
3.4797e+06
3.4727e+06
3.45679e+06
3.45581e+06
3.46038e+06
3.4636e+06
3.4668e+06
3.46934e+06
3.47164e+06
3.4736e+06
3.47534e+06
3.47687e+06
3.47823e+06
3.47945e+06
3.48054e+06
3.48153e+06
3.48243e+06
3.48324e+06
3.48399e+06
3.48467e+06
3.48529e+06
3.48587e+06
3.4864e+06
3.48689e+06
3.48734e+06
3.48776e+06
3.48814e+06
3.4885e+06
3.47933e+06
3.50308e+06
3.48074e+06
3.4945e+06
3.48472e+06
3.48691e+06
3.48178e+06
3.48091e+06
3.47953e+06
3.47815e+06
3.47994e+06
3.47679e+06
3.47177e+06
3.45521e+06
3.45362e+06
3.4582e+06
3.46158e+06
3.46495e+06
3.46767e+06
3.47016e+06
3.47229e+06
3.47418e+06
3.47585e+06
3.47733e+06
3.47865e+06
3.47983e+06
3.4809e+06
3.48186e+06
3.48273e+06
3.48353e+06
3.48425e+06
3.48491e+06
3.48552e+06
3.48608e+06
3.48659e+06
3.48706e+06
3.4875e+06
3.4879e+06
3.48826e+06
3.45929e+06
3.48038e+06
3.4607e+06
3.47262e+06
3.46035e+06
3.46319e+06
3.46251e+06
3.47008e+06
3.475e+06
3.47671e+06
3.47891e+06
3.47604e+06
3.47147e+06
3.45416e+06
3.45179e+06
3.45622e+06
3.45972e+06
3.46322e+06
3.46611e+06
3.46876e+06
3.47104e+06
3.47308e+06
3.47487e+06
3.47646e+06
3.47788e+06
3.47915e+06
3.48029e+06
3.48132e+06
3.48224e+06
3.48309e+06
3.48385e+06
3.48455e+06
3.48519e+06
3.48577e+06
3.4863e+06
3.48679e+06
3.48725e+06
3.48766e+06
3.48804e+06
3.48839e+06
3.43594e+06
3.44959e+06
3.43733e+06
3.44389e+06
3.42989e+06
3.43173e+06
3.43735e+06
3.45578e+06
3.46953e+06
3.47529e+06
3.4783e+06
3.47592e+06
3.47163e+06
3.45328e+06
3.45012e+06
3.45434e+06
3.45797e+06
3.46157e+06
3.46463e+06
3.46744e+06
3.46987e+06
3.47204e+06
3.47395e+06
3.47565e+06
3.47715e+06
3.4785e+06
3.47971e+06
3.4808e+06
3.48178e+06
3.48266e+06
3.48346e+06
3.4842e+06
3.48486e+06
3.48547e+06
3.48602e+06
3.48653e+06
3.487e+06
3.48743e+06
3.48782e+06
3.48818e+06
3.41655e+06
3.42169e+06
3.41686e+06
3.41724e+06
3.40254e+06
3.40195e+06
3.41335e+06
3.44177e+06
3.46418e+06
3.47386e+06
3.4778e+06
3.47597e+06
3.47177e+06
3.45217e+06
3.44833e+06
3.45242e+06
3.45625e+06
3.45997e+06
3.46322e+06
3.46617e+06
3.46875e+06
3.47105e+06
3.47308e+06
3.47487e+06
3.47647e+06
3.47789e+06
3.47916e+06
3.4803e+06
3.48133e+06
3.48226e+06
3.4831e+06
3.48386e+06
3.48455e+06
3.48518e+06
3.48576e+06
3.48628e+06
3.48676e+06
3.4872e+06
3.48761e+06
3.48797e+06
3.48831e+06
3.40727e+06
3.40822e+06
3.40678e+06
3.40476e+06
3.39105e+06
3.3888e+06
3.40134e+06
3.43391e+06
3.46072e+06
3.47235e+06
3.47647e+06
3.47518e+06
3.47087e+06
3.45029e+06
3.44609e+06
3.45034e+06
3.45447e+06
3.45839e+06
3.46185e+06
3.46497e+06
3.46771e+06
3.47013e+06
3.47226e+06
3.47415e+06
3.47583e+06
3.47732e+06
3.47865e+06
3.47984e+06
3.48091e+06
3.48187e+06
3.48275e+06
3.48354e+06
3.48425e+06
3.4849e+06
3.4855e+06
3.48604e+06
3.48653e+06
3.48699e+06
3.4874e+06
3.48778e+06
3.48812e+06
3.41019e+06
3.41363e+06
3.40997e+06
3.41182e+06
3.40015e+06
3.3994e+06
3.40738e+06
3.43552e+06
3.45941e+06
3.46992e+06
3.47326e+06
3.47257e+06
3.46808e+06
3.44726e+06
3.44332e+06
3.44801e+06
3.45263e+06
3.45682e+06
3.46053e+06
3.46383e+06
3.46672e+06
3.46927e+06
3.47151e+06
3.47348e+06
3.47523e+06
3.47678e+06
3.47817e+06
3.47941e+06
3.48052e+06
3.48151e+06
3.48242e+06
3.48323e+06
3.48397e+06
3.48464e+06
3.48525e+06
3.48581e+06
3.48632e+06
3.48678e+06
3.4872e+06
3.48759e+06
3.48794e+06
3.42197e+06
3.42964e+06
3.42221e+06
3.42864e+06
3.41992e+06
3.42326e+06
3.42417e+06
3.44276e+06
3.4585e+06
3.4658e+06
3.46792e+06
3.46792e+06
3.46329e+06
3.44324e+06
3.44024e+06
3.44556e+06
3.45078e+06
3.45529e+06
3.45928e+06
3.46277e+06
3.46581e+06
3.46848e+06
3.47081e+06
3.47287e+06
3.47468e+06
3.47629e+06
3.47772e+06
3.479e+06
3.48015e+06
3.48118e+06
3.4821e+06
3.48294e+06
3.4837e+06
3.48439e+06
3.48502e+06
3.48559e+06
3.4861e+06
3.48658e+06
3.48701e+06
3.4874e+06
3.48776e+06
3.43447e+06
3.44316e+06
3.43518e+06
3.44279e+06
3.43711e+06
3.44384e+06
3.43952e+06
3.44823e+06
3.45603e+06
3.46024e+06
3.46123e+06
3.46195e+06
3.45729e+06
3.43886e+06
3.43723e+06
3.44317e+06
3.44903e+06
3.45386e+06
3.45813e+06
3.46179e+06
3.46498e+06
3.46776e+06
3.47018e+06
3.47231e+06
3.47418e+06
3.47584e+06
3.47732e+06
3.47863e+06
3.47981e+06
3.48086e+06
3.48182e+06
3.48267e+06
3.48345e+06
3.48415e+06
3.48479e+06
3.48537e+06
3.4859e+06
3.48638e+06
3.48682e+06
3.48722e+06
3.48759e+06
3.44387e+06
3.44971e+06
3.44446e+06
3.44958e+06
3.44735e+06
3.45251e+06
3.44835e+06
3.4491e+06
3.45195e+06
3.45427e+06
3.45446e+06
3.45577e+06
3.45122e+06
3.43484e+06
3.43462e+06
3.44106e+06
3.44748e+06
3.45259e+06
3.45711e+06
3.46093e+06
3.46425e+06
3.46712e+06
3.46962e+06
3.47181e+06
3.47374e+06
3.47544e+06
3.47695e+06
3.47829e+06
3.4795e+06
3.48058e+06
3.48155e+06
3.48242e+06
3.48321e+06
3.48393e+06
3.48458e+06
3.48517e+06
3.48571e+06
3.4862e+06
3.48665e+06
3.48705e+06
3.48742e+06
3.45087e+06
3.44986e+06
3.45104e+06
3.44997e+06
3.45388e+06
3.45189e+06
3.4517e+06
3.44693e+06
3.44736e+06
3.44891e+06
3.44856e+06
3.45039e+06
3.44599e+06
3.43166e+06
3.43261e+06
3.43939e+06
3.44622e+06
3.45154e+06
3.45625e+06
3.46019e+06
3.46362e+06
3.46657e+06
3.46913e+06
3.47137e+06
3.47334e+06
3.47508e+06
3.47662e+06
3.47799e+06
3.47922e+06
3.48031e+06
3.4813e+06
3.48219e+06
3.48299e+06
3.48372e+06
3.48438e+06
3.48498e+06
3.48553e+06
3.48603e+06
3.48648e+06
3.48689e+06
3.48726e+06
3.45684e+06
3.44788e+06
3.45607e+06
3.44831e+06
3.45887e+06
3.44979e+06
3.45163e+06
3.44409e+06
3.4433e+06
3.44478e+06
3.44417e+06
3.44598e+06
3.44186e+06
3.42936e+06
3.43122e+06
3.43818e+06
3.44527e+06
3.45071e+06
3.45556e+06
3.45959e+06
3.4631e+06
3.4661e+06
3.46872e+06
3.471e+06
3.473e+06
3.47477e+06
3.47633e+06
3.47772e+06
3.47896e+06
3.48008e+06
3.48108e+06
3.48198e+06
3.48279e+06
3.48353e+06
3.4842e+06
3.48481e+06
3.48536e+06
3.48586e+06
3.48632e+06
3.48673e+06
3.48711e+06
3.45898e+06
3.44704e+06
3.4577e+06
3.44761e+06
3.46001e+06
3.44938e+06
3.44936e+06
3.44145e+06
3.44014e+06
3.44183e+06
3.44111e+06
3.44269e+06
3.43892e+06
3.42792e+06
3.43039e+06
3.43742e+06
3.44462e+06
3.45012e+06
3.45504e+06
3.45912e+06
3.46268e+06
3.46573e+06
3.46838e+06
3.47069e+06
3.47271e+06
3.4745e+06
3.47608e+06
3.47749e+06
3.47874e+06
3.47986e+06
3.48087e+06
3.48178e+06
3.48261e+06
3.48335e+06
3.48403e+06
3.48464e+06
3.48519e+06
3.4857e+06
3.48616e+06
3.48658e+06
3.48696e+06
3.45538e+06
3.44793e+06
3.45418e+06
3.44784e+06
3.45519e+06
3.44889e+06
3.44571e+06
3.43903e+06
3.43778e+06
3.43978e+06
3.439e+06
3.44025e+06
3.43681e+06
3.42697e+06
3.42998e+06
3.43701e+06
3.44421e+06
3.44973e+06
3.45468e+06
3.45879e+06
3.46237e+06
3.46544e+06
3.46811e+06
3.47043e+06
3.47248e+06
3.47427e+06
3.47587e+06
3.47728e+06
3.47855e+06
3.47968e+06
3.48069e+06
3.48161e+06
3.48244e+06
3.48319e+06
3.48387e+06
3.48448e+06
3.48504e+06
3.48555e+06
3.48602e+06
3.48644e+06
3.48682e+06
3.44686e+06
3.44982e+06
3.4475e+06
3.44923e+06
3.44764e+06
3.4476e+06
3.44208e+06
3.43691e+06
3.43606e+06
3.43822e+06
3.4374e+06
3.43837e+06
3.43517e+06
3.42629e+06
3.42984e+06
3.43684e+06
3.44401e+06
3.44952e+06
3.45446e+06
3.45856e+06
3.46215e+06
3.46523e+06
3.46791e+06
3.47024e+06
3.47229e+06
3.47409e+06
3.47569e+06
3.47711e+06
3.47838e+06
3.47952e+06
3.48054e+06
3.48146e+06
3.48229e+06
3.48304e+06
3.48372e+06
3.48434e+06
3.4849e+06
3.48541e+06
3.48588e+06
3.4863e+06
3.48668e+06
3.44085e+06
3.45407e+06
3.44236e+06
3.45269e+06
3.44302e+06
3.4466e+06
3.43968e+06
3.4351e+06
3.43467e+06
3.43684e+06
3.43597e+06
3.4368e+06
3.43371e+06
3.42574e+06
3.42984e+06
3.43683e+06
3.44395e+06
3.44944e+06
3.45436e+06
3.45845e+06
3.46202e+06
3.46509e+06
3.46777e+06
3.4701e+06
3.47215e+06
3.47396e+06
3.47555e+06
3.47697e+06
3.47824e+06
3.47938e+06
3.4804e+06
3.48132e+06
3.48215e+06
3.4829e+06
3.48359e+06
3.48421e+06
3.48477e+06
3.48528e+06
3.48575e+06
3.48617e+06
3.48656e+06
3.43864e+06
3.45799e+06
3.44087e+06
3.45663e+06
3.44298e+06
3.44595e+06
3.4384e+06
3.43331e+06
3.43327e+06
3.43543e+06
3.43451e+06
3.43534e+06
3.43226e+06
3.42524e+06
3.42992e+06
3.43693e+06
3.44401e+06
3.44947e+06
3.45435e+06
3.45842e+06
3.46198e+06
3.46503e+06
3.4677e+06
3.47002e+06
3.47206e+06
3.47386e+06
3.47545e+06
3.47687e+06
3.47813e+06
3.47927e+06
3.48028e+06
3.4812e+06
3.48203e+06
3.48278e+06
3.48346e+06
3.48408e+06
3.48465e+06
3.48516e+06
3.48563e+06
3.48605e+06
3.48643e+06
3.44028e+06
3.45839e+06
3.44236e+06
3.45741e+06
3.44467e+06
3.44442e+06
3.43728e+06
3.43133e+06
3.43176e+06
3.43394e+06
3.43297e+06
3.4339e+06
3.43078e+06
3.42482e+06
3.43006e+06
3.43712e+06
3.44417e+06
3.4496e+06
3.45445e+06
3.45848e+06
3.46201e+06
3.46504e+06
3.46768e+06
3.46999e+06
3.47201e+06
3.4738e+06
3.47538e+06
3.47679e+06
3.47805e+06
3.47918e+06
3.48019e+06
3.4811e+06
3.48193e+06
3.48268e+06
3.48336e+06
3.48397e+06
3.48454e+06
3.48505e+06
3.48551e+06
3.48593e+06
3.48632e+06
3.44277e+06
3.45368e+06
3.44408e+06
3.45367e+06
3.44511e+06
3.4414e+06
3.43573e+06
3.42921e+06
3.43022e+06
3.43245e+06
3.43145e+06
3.43248e+06