/*--------------------------------*- C++ -*----------------------------------*\
| =========                 |                                                 |
| \\      /  F ield         | OpenFOAM: The Open Source CFD Toolbox           |
|  \\    /   O peration     | Version:  v2012                                 |
|   \\  /    A nd           | Website:  www.openfoam.com                      |
|    \\/     M anipulation  |                                                 |
\*---------------------------------------------------------------------------*/
FoamFile
{
    version     2.0;
    format      ascii;
    class       volVectorField;
    location    "0.15";
    object      U;
}
// * * * * * * * * * * * * * * * * * * * * * * * * * * * * * * * * * * * * * //

dimensions      [0 1 -1 0 0 0 0];


internalField   nonuniform List<vector> 
3332
(
(-0.770665 -7.29891 0.00672601)
(-0.806684 -6.67178 0.00704043)
(-0.837491 -6.0983 0.00730936)
(-0.863475 -5.56974 0.0075362)
(-0.88495 -5.07896 0.00772367)
(-0.902151 -4.62036 0.00787385)
(-0.915281 -4.18966 0.00798849)
(-0.924518 -3.78365 0.00806915)
(-0.930022 -3.39992 0.00811724)
(-0.931942 -3.03662 0.00813404)
(-0.930413 -2.69235 0.00812075)
(-0.925561 -2.36601 0.00807845)
(-0.917507 -2.05674 0.00800818)
(-0.90636 -1.76383 0.00791093)
(-0.892225 -1.4867 0.0077876)
(-0.875201 -1.2249 0.00763906)
(-0.855385 -0.978036 0.00746615)
(-0.83287 -0.745803 0.00726968)
(-0.807747 -0.527967 0.00705044)
(-0.780112 -0.324361 0.00680932)
(-0.764481 -8.63836 0.00667194)
(-0.809612 -7.88762 0.00706592)
(-0.847491 -7.20646 0.00739658)
(-0.879219 -6.58738 0.00767356)
(-0.905787 -6.02126 0.00790549)
(-0.927633 -5.49952 0.00809621)
(-0.945143 -5.01513 0.00824908)
(-0.958568 -4.56252 0.0083663)
(-0.968127 -4.13747 0.00844977)
(-0.973999 -3.73678 0.00850107)
(-0.976341 -3.35804 0.00852155)
(-0.975292 -2.99944 0.00851244)
(-0.970979 -2.65959 0.00847486)
(-0.963517 -2.33741 0.00840976)
(-0.953012 -2.03203 0.0083181)
(-0.939562 -1.74278 0.00820075)
(-0.923259 -1.46909 0.0080585)
(-0.904192 -1.2105 0.00789212)
(-0.882444 -0.966644 0.00770235)
(-0.858099 -0.737222 0.0074899)
(-0.831238 -0.522006 0.0072555)
(-0.80195 -0.320837 0.00699994)
(0.173963 -43.3298 -0.001518)
(0.0771018 -47.5656 -0.000672849)
(0.20195 -48.2298 -0.00176407)
(-2.13796 -27.9381 0.018657)
(-2.56762 -23.9738 0.0224088)
(-3.22368 -30.7212 0.0281357)
(-2.96669 -37.9887 0.0258952)
(-2.42672 -40.8985 0.021184)
(-1.39068 -36.6446 0.0121465)
(-0.781316 -27.72 0.00683092)
(-0.286639 -11.8768 0.00246921)
(-0.474861 -11.5827 0.0041324)
(-0.615944 -10.9529 0.00537262)
(-0.717737 -10.1609 0.00626358)
(-0.788536 -9.3238 0.00688181)
(-0.84281 -8.52212 0.00735562)
(-0.88502 -7.78391 0.00772412)
(-0.919465 -7.11278 0.00802482)
(-0.947475 -6.50232 0.00826934)
(-0.970295 -5.94391 0.00846856)
(-0.988437 -5.42924 0.00862695)
(-1.00236 -4.9514 0.00874853)
(-1.01235 -4.5049 0.00883572)
(-1.01863 -4.08557 0.00889059)
(-1.02139 -3.69022 0.00891476)
(-1.0208 -3.31651 0.00890961)
(-1.01698 -2.96262 0.00887632)
(-1.01006 -2.62719 0.00881595)
(-1.00014 -2.30916 0.0087294)
(-0.987314 -2.00769 0.00861751)
(-0.971679 -1.72209 0.0084811)
(-0.953314 -1.45182 0.00832085)
(-0.932296 -1.19644 0.00813745)
(-0.908701 -0.955586 0.00793154)
(-0.882601 -0.728968 0.00770378)
(-0.854071 -0.516368 0.00745481)
(-0.823189 -0.317632 0.00718534)
(0.134861 -43.7894 -0.00117674)
(0.107923 -47.6942 -0.000941883)
(-0.0236464 -45.8589 0.000204604)
(-2.36829 -24.6542 0.0206676)
(-2.79716 -21.8216 0.0244122)
(-3.66092 -29.3202 0.0319515)
(-3.43518 -37.7472 0.0299843)
(-2.8009 -41.5798 0.0244511)
(-1.6525 -37.6477 0.0144324)
(-0.883353 -28.637 0.00772342)
(0.0345828 -17.9544 -0.000300437)
(-0.0774807 -11.5479 0.000457786)
(-0.333315 -11.5581 0.00287298)
(-0.530081 -11.3178 0.00461337)
(-0.679205 -10.7413 0.00592433)
(-0.78625 -9.99179 0.00686151)
(-0.858931 -9.18395 0.00749621)
(-0.912834 -8.40178 0.0079668)
(-0.95323 -7.67766 0.00831947)
(-0.985144 -7.01751 0.00859809)
(-1.01022 -6.41629 0.00881703)
(-1.02997 -5.866 0.00898942)
(-1.04499 -5.35868 0.00912062)
(-1.05585 -4.88758 0.00921538)
(-1.06284 -4.44733 0.00927644)
(-1.06623 -4.0338 0.00930611)
(-1.06623 -3.64388 0.00930613)
(-1.06299 -3.27523 0.00927793)
(-1.05666 -2.92608 0.00922271)
(-1.04735 -2.5951 0.00914152)
(-1.03517 -2.28123 0.00903522)
(-1.0202 -1.98365 0.00890461)
(-1.00253 -1.7017 0.00875043)
(-0.982239 -1.43486 0.00857333)
(-0.959387 -1.18269 0.00837392)
(-0.934046 -0.944833 0.00815278)
(-0.906283 -0.721019 0.0079105)
(-0.876164 -0.511033 0.00764766)
(-0.843762 -0.314728 0.00736492)
(0.0985458 -44.1964 -0.000859807)
(0.133827 -47.6445 -0.001168)
(-0.20787 -43.2229 0.00181216)
(-2.32989 -21.3874 0.020333)
(-2.75489 -19.4405 0.0240435)
(-3.72269 -27.6888 0.0324904)
(-3.52779 -37.4386 0.0307926)
(-2.82889 -42.3481 0.0246966)
(-1.67793 -38.7597 0.0146545)
(-0.848089 -29.6214 0.00741672)
(-0.0150728 -18.5402 0.000135672)
(-0.111788 -11.2929 0.000750344)
(-0.367471 -11.2321 0.00316692)
(-0.570828 -11.0375 0.00496812)
(-0.728491 -10.5157 0.00635405)
(-0.841924 -9.81204 0.00734736)
(-0.918152 -9.03686 0.00801308)
(-0.973098 -8.27669 0.00849278)
(-1.01298 -7.56831 0.00884096)
(-1.04343 -6.92018 0.00910681)
(-1.06651 -6.3289 0.00930833)
(-1.08398 -5.7872 0.00946085)
(-1.09659 -5.28756 0.00957096)
(-1.10497 -4.82344 0.0096442)
(-1.1095 -4.38959 0.00968376)
(-1.11047 -3.982 0.00969229)
(-1.10811 -3.59759 0.00967167)
(-1.10258 -3.23407 0.0096235)
(-1.09405 -2.88971 0.00954903)
(-1.08262 -2.5632 0.00944935)
(-1.06841 -2.25351 0.00932533)
(-1.0515 -1.95985 0.00917776)
(-1.03197 -1.68157 0.00900737)
(-1.0099 -1.41816 0.00881476)
(-0.985347 -1.1692 0.00860052)
(-0.95838 -0.934352 0.00836519)
(-0.929058 -0.713344 0.00810931)
(-0.897445 -0.505973 0.00783342)
(-0.863606 -0.312101 0.00753812)
(-0.827618 -0.131669 0.00722417)
(0.0744891 -44.5632 -0.000649856)
(0.144556 -47.4625 -0.00126167)
(-0.290475 -40.7107 0.0025331)
(-1.93742 -18.5126 0.016908)
(-2.2472 -17.1464 0.0196127)
(-3.19577 -26.0511 0.0278913)
(-3.01327 -37.1557 0.0263016)
(-2.32811 -43.1515 0.0203256)
(-1.34338 -39.853 0.0117339)
(-0.61123 -30.5402 0.00534922)
(0.0224338 -19.0144 -0.000189304)
(-0.126244 -11.0245 0.000873766)
(-0.38762 -10.9005 0.00333733)
(-0.596539 -10.744 0.00519159)
(-0.763145 -10.2767 0.00665606)
(-0.883958 -9.62132 0.00771416)
(-0.965332 -8.88184 0.00842483)
(-1.02277 -8.14618 0.00892633)
(-1.06349 -7.45524 0.00928184)
(-1.09361 -6.8203 0.00954485)
(-1.1157 -6.23972 0.00973766)
(-1.13175 -5.70714 0.00987783)
(-1.1427 -5.21555 0.00997344)
(-1.14928 -4.75868 0.0100309)
(-1.15193 -4.33146 0.0100541)
(-1.15099 -3.92995 0.0100459)
(-1.14671 -3.55117 0.0100086)
(-1.13929 -3.19287 0.00994387)
(-1.12889 -2.85337 0.00985313)
(-1.11564 -2.53139 0.00973757)
(-1.09966 -2.22593 0.0095981)
(-1.08103 -1.93621 0.00943555)
(-1.05984 -1.66163 0.00925067)
(-1.03617 -1.40167 0.00904407)
(-1.01007 -1.15594 0.00881633)
(-0.981611 -0.924102 0.00856797)
(-0.950849 -0.705908 0.00829952)
(-0.917845 -0.50116 0.0080115)
(-0.882663 -0.309727 0.00770446)
(-0.845375 -0.131554 0.00737909)
(0.0667489 -44.9064 -0.000582307)
(0.137271 -47.2438 -0.00119809)
(-0.250099 -38.7909 0.00218109)
(-1.21514 -16.5532 0.0106046)
(-1.19203 -15.4167 0.0104036)
(-2.01465 -24.7085 0.0175827)
(-1.78603 -37.0218 0.0155898)
(-1.22516 -43.8908 0.0106975)
(-0.593879 -40.745 0.00519108)
(-0.14612 -31.215 0.00128872)
(0.166213 -19.2525 -0.00144411)
(-0.109707 -10.6918 0.000731698)
(-0.392461 -10.5564 0.00337258)
(-0.607987 -10.4386 0.00529039)
(-0.783765 -10.0249 0.00683558)
(-0.912687 -9.41953 0.00796481)
(-1.00048 -8.71836 0.00873154)
(-1.06171 -8.00962 0.00926618)
(-1.10453 -7.33789 0.00963998)
(-1.13542 -6.71736 0.0099097)
(-1.15748 -6.14831 0.0101023)
(-1.17297 -5.62543 0.0102376)
(-1.18302 -5.14231 0.0103254)
(-1.18848 -4.69302 0.010373)
(-1.18984 -4.27267 0.010385)
(-1.18752 -3.87744 0.0103648)
(-1.1818 -3.50443 0.0103149)
(-1.17289 -3.15148 0.0102372)
(-1.16099 -2.81694 0.0101334)
(-1.14624 -2.49955 0.0100047)
(-1.12877 -2.19838 0.00985221)
(-1.10867 -1.91266 0.00967682)
(-1.08604 -1.6418 0.00947933)
(-1.06095 -1.38532 0.00926037)
(-1.03347 -1.14284 0.00902057)
(-1.00366 -0.914037 0.00876045)
(-0.971587 -0.698672 0.00848054)
(-0.937305 -0.49656 0.00818137)
(-0.90088 -0.307575 0.00786348)
(-0.862382 -0.13167 0.00752752)
(-0.821888 0.031179 0.00717423)
(0.0680658 -45.2385 -0.0005938)
(0.123054 -47.0956 -0.00107399)
(-0.139325 -37.8006 0.00121493)
(-0.375149 -16.0017 0.00327465)
(0.191682 -14.737 -0.0016728)
(-0.436708 -23.9701 0.00381091)
(-0.0366401 -37.189 0.0003209)
(0.319647 -44.4634 -0.00278791)
(0.466559 -41.2452 -0.00406424)
(0.481219 -31.4684 -0.00418796)
(0.379681 -19.154 -0.00330918)
(-0.0675473 -10.2482 0.000370223)
(-0.383312 -10.1882 0.00328498)
(-0.60765 -10.1215 0.00528615)
(-0.792257 -9.76148 0.00690926)
(-0.929512 -9.20698 0.00811156)
(-1.02441 -8.5462 0.00894041)
(-1.09041 -7.86661 0.00951661)
(-1.13633 -7.21584 0.00991753)
(-1.16893 -6.61095 0.0102022)
(-1.19185 -6.0543 0.0104023)
(-1.20757 -5.54174 0.0105396)
(-1.21744 -5.06756 0.0106258)
(-1.22242 -4.62619 0.0106693)
(-1.2231 -4.21297 0.0106753)
(-1.21992 -3.82424 0.0106476)
(-1.21322 -3.45719 0.0105891)
(-1.20325 -3.10973 0.0105022)
(-1.19022 -2.78025 0.0103885)
(-1.1743 -2.46756 0.0102496)
(-1.15563 -2.17075 0.0100867)
(-1.13431 -1.88908 0.00990066)
(-1.11046 -1.622 0.00969251)
(-1.08415 -1.36905 0.00946293)
(-1.05546 -1.12985 0.00921257)
(-1.02446 -0.904109 0.00894203)
(-0.991212 -0.691596 0.00865184)
(-0.955772 -0.492137 0.00834256)
(-0.91821 -0.305615 0.00801475)
(-0.878598 -0.13199 0.00766906)
(-0.837011 0.0287579 0.00730616)
(0.0647026 -45.5601 -0.000564454)
(0.119522 -47.0636 -0.00104313)
(-0.0616076 -37.6813 0.000537285)
(0.265431 -16.958 -0.00231509)
(1.31605 -15.2916 -0.0114856)
(0.966384 -24.1398 -0.00843449)
(1.71974 -37.8408 -0.0150083)
(1.89942 -44.8341 -0.0165787)
(1.56006 -41.2562 -0.0136056)
(1.09527 -31.2092 -0.00954856)
(0.570528 -18.6624 -0.00497734)
(-0.0255374 -9.68627 1.25304e-05)
(-0.366318 -9.79186 0.00313015)
(-0.599443 -9.79294 0.00521341)
(-0.79164 -9.48797 0.00690349)
(-0.936586 -8.98457 0.00817321)
(-1.03861 -8.36568 0.00906422)
(-1.10984 -7.7171 0.00968614)
(-1.15953 -7.08887 0.01012)
(-1.19458 -6.50082 0.010426)
(-1.21907 -5.95742 0.0106399)
(-1.23571 -5.45581 0.0107852)
(-1.24604 -4.99102 0.0108754)
(-1.25114 -4.55793 0.01092)
(-1.25167 -4.15215 0.0109246)
(-1.24814 -3.77016 0.0108939)
(-1.24092 -3.40926 0.0108309)
(-1.2303 -3.06744 0.0107383)
(-1.21651 -2.74317 0.010618)
(-1.19974 -2.43529 0.0104717)
(-1.18016 -2.14293 0.0103008)
(-1.15789 -1.8654 0.0101064)
(-1.13304 -1.60216 0.00988961)
(-1.10572 -1.35278 0.00965117)
(-1.076 -1.11691 0.00939182)
(-1.04396 -0.894268 0.00911223)
(-1.00967 -0.684636 0.008813)
(-0.973202 -0.487854 0.00849471)
(-0.934614 -0.303814 0.00815795)
(-0.893986 -0.132485 0.00780338)
(-0.851396 0.0261484 0.00743172)
(0.046412 -45.8598 -0.000404835)
(0.133126 -47.1021 -0.00116181)
(-0.0703082 -37.9958 0.000613675)
(0.532663 -18.8322 -0.00464756)
(1.63262 -16.6833 -0.0142482)
(1.73526 -25.3841 -0.0151438)
(3.00459 -39.16 -0.0262215)
(3.08458 -45.1275 -0.0269249)
(2.35974 -40.7939 -0.020582)
(1.50534 -30.4555 -0.0131279)
(0.642713 -17.8255 -0.00561204)
(-0.0125034 -9.06694 -9.01372e-05)
(-0.349814 -9.38024 0.00298299)
(-0.58749 -9.45642 0.00510859)
(-0.785062 -9.20685 0.00684579)
(-0.936177 -8.7539 0.00816956)
(-1.04474 -8.17762 0.00911768)
(-1.1212 -7.5614 0.00978526)
(-1.17501 -6.95702 0.0102551)
(-1.21298 -6.38688 0.0105866)
(-1.23958 -5.85752 0.0108189)
(-1.25769 -5.36744 0.010977)
(-1.26903 -4.9125 0.0110761)
(-1.27477 -4.48806 0.0111262)
(-1.27565 -4.09001 0.0111339)
(-1.27223 -3.715 0.0111041)
(-1.26491 -3.36047 0.0110403)
(-1.25402 -3.02448 0.0109453)
(-1.23982 -2.70557 0.0108214)
(-1.22253 -2.40263 0.0106706)
(-1.20232 -2.11483 0.0104942)
(-1.17935 -1.84153 0.0102937)
(-1.15374 -1.5822 0.0100702)
(-1.1256 -1.33646 0.0098247)
(-1.09503 -1.10397 0.00955794)
(-1.06212 -0.884462 0.00927071)
(-1.02694 -0.677747 0.00896367)
(-0.989559 -0.483671 0.00863748)
(-0.950059 -0.302138 0.00829276)
(-0.908518 -0.133125 0.00793023)
(-0.865016 0.0233766 0.00755061)
(0.0165307 -46.1218 -0.000144062)
(0.154758 -47.135 -0.00135058)
(-0.134422 -38.3331 0.00117341)
(0.503423 -20.6126 -0.00439283)
(1.16447 -18.2673 -0.0101619)
(2.03773 -27.721 -0.0177818)
(3.71478 -41.1101 -0.0324193)
(3.69385 -45.3282 -0.0322445)
(2.70642 -39.9666 -0.0236051)
(1.62952 -29.3568 -0.0142119)
(0.573149 -16.7863 -0.00501218)
(-0.0368644 -8.47889 0.00013507)
(-0.339908 -8.97698 0.0028975)
(-0.574967 -9.11824 0.00499956)
(-0.774973 -8.9213 0.00675761)
(-0.930209 -8.51707 0.00811741)
(-1.04436 -7.98324 0.00911433)
(-1.1257 -7.40013 0.00982454)
(-1.1837 -6.82056 0.0103309)
(-1.22486 -6.2692 0.0106903)
(-1.25397 -5.75455 0.0109444)
(-1.27396 -5.27654 0.011119)
(-1.28676 -4.83188 0.0112307)
(-1.29356 -4.41643 0.0112902)
(-1.29522 -4.0264 0.0113047)
(-1.29231 -3.65863 0.0112794)
(-1.28527 -3.31069 0.011218)
(-1.27447 -2.98071 0.0111238)
(-1.26019 -2.66732 0.0109992)
(-1.24267 -2.36945 0.0108464)
(-1.22211 -2.08634 0.0106669)
(-1.19868 -1.81736 0.0104624)
(-1.17252 -1.56204 0.0102342)
(-1.14377 -1.32001 0.00998329)
(-1.11253 -1.09095 0.00971068)
(-1.0789 -0.874641 0.0094172)
(-1.04297 -0.670884 0.00910361)
(-1.00481 -0.47955 0.00877064)
(-0.964519 -0.300554 0.00841898)
(-0.922168 -0.133881 0.00804938)
(-0.877849 0.020469 0.00766263)
(-0.014842 -46.3377 0.000129727)
(0.173646 -47.1249 -0.00151539)
(-0.201134 -38.4931 0.00175572)
(0.332584 -21.703 -0.00290201)
(0.513035 -19.8929 -0.0044755)
(2.36949 -31.0584 -0.0206757)
(3.99821 -43.2737 -0.0348933)
(3.82203 -45.3256 -0.0333657)
(2.6787 -38.906 -0.0233608)
(1.52087 -28.0898 -0.0132654)
(0.407383 -15.6909 -0.0035675)
(-0.0855512 -7.99282 0.000574761)
(-0.338017 -8.60207 0.002885)
(-0.56371 -8.78548 0.00490215)
(-0.762862 -8.63474 0.00665193)
(-0.92014 -8.27632 0.00802948)
(-1.03874 -7.78387 0.00906528)
(-1.12446 -7.23404 0.00981364)
(-1.18652 -6.67989 0.0103555)
(-1.23101 -6.14795 0.0107439)
(-1.26285 -5.64859 0.011022)
(-1.28505 -5.1831 0.0112158)
(-1.29962 -4.74909 0.011343)
(-1.30786 -4.34295 0.011415)
(-1.31063 -3.96121 0.0114392)
(-1.30857 -3.60093 0.0114213)
(-1.30215 -3.25979 0.0113654)
(-1.29175 -2.93602 0.0112746)
(-1.27768 -2.62831 0.0111519)
(-1.2602 -2.33568 0.0109994)
(-1.23954 -2.05738 0.0108191)
(-1.21588 -1.79284 0.0106126)
(-1.18939 -1.54161 0.0103815)
(-1.16022 -1.30337 0.0101269)
(-1.12848 -1.07782 0.00984992)
(-1.09429 -0.864754 0.00955156)
(-1.05775 -0.664004 0.00923266)
(-1.01895 -0.475452 0.00889402)
(-0.977973 -0.299026 0.00853642)
(-0.934917 -0.134722 0.00816067)
(-0.889874 0.0174526 0.0077676)
(-0.0368882 -46.5107 0.000322117)
(0.177528 -47.0769 -0.00154924)
(-0.221027 -38.4395 0.00192936)
(0.0662866 -22.203 -0.000577999)
(0.30043 -21.9926 -0.00261859)
(2.83403 -34.8728 -0.0247294)
(4.02879 -45.1915 -0.0351616)
(3.64373 -45.0337 -0.0318121)
(2.44002 -37.7191 -0.0212763)
(1.28191 -26.7819 -0.0111829)
(0.211625 -14.6529 -0.00185206)
(-0.140706 -7.63244 0.0010725)
(-0.342359 -8.26325 0.00292797)
(-0.554433 -8.46366 0.00482224)
(-0.749644 -8.3504 0.00653671)
(-0.907114 -8.03378 0.00791576)
(-1.02896 -7.58088 0.00897988)
(-1.11847 -7.06395 0.00976135)
(-1.18438 -6.53545 0.0103368)
(-1.2322 -6.02338 0.0107543)
(-1.26692 -5.53975 0.0110574)
(-1.29151 -5.08716 0.0112721)
(-1.30811 -4.66412 0.0114171)
(-1.31803 -4.26758 0.0115037)
(-1.3222 -3.8944 0.0115402)
(-1.32127 -3.54183 0.0115321)
(-1.31574 -3.20769 0.0114839)
(-1.30601 -2.89033 0.0113991)
(-1.29241 -2.58848 0.0112804)
(-1.27521 -2.30122 0.0111304)
(-1.25468 -2.02786 0.0109512)
(-1.231 -1.76787 0.0107446)
(-1.20438 -1.52085 0.0105123)
(-1.17496 -1.28648 0.0102555)
(-1.14289 -1.06451 0.00997567)
(-1.10829 -0.854754 0.00967374)
(-1.07128 -0.657064 0.00935073)
(-1.03195 -0.471339 0.00900752)
(-0.990409 -0.297522 0.00864497)
(-0.946752 -0.135618 0.00826397)
(-0.90108 0.0143542 0.00786541)
(-0.0411212 -46.6516 0.000359044)
(0.157718 -47.0185 -0.00137633)
(-0.184626 -38.146 0.00161152)
(-0.286556 -22.5742 0.00250151)
(0.622582 -24.9274 -0.00542929)
(3.18533 -38.5102 -0.0277959)
(3.90879 -46.6233 -0.0341157)
(3.2958 -44.4542 -0.0287766)
(2.11461 -36.4847 -0.0184357)
(0.998824 -25.5148 -0.00871387)
(0.0450609 -13.7322 -0.000390361)
(-0.187126 -7.38745 0.00149106)
(-0.350153 -7.95901 0.00300228)
(-0.54717 -8.15595 0.00475998)
(-0.73606 -8.07099 0.00641837)
(-0.892125 -7.79135 0.00778493)
(-1.01601 -7.37557 0.00886684)
(-1.1087 -6.89067 0.00967603)
(-1.17814 -6.38776 0.0102823)
(-1.22921 -5.8958 0.0107282)
(-1.26683 -5.4282 0.0110566)
(-1.29394 -4.98883 0.0112933)
(-1.31272 -4.57703 0.0114573)
(-1.32451 -4.19033 0.0115603)
(-1.33027 -3.82593 0.0116107)
(-1.33069 -3.48128 0.0116143)
(-1.32626 -3.15435 0.0115758)
(-1.31742 -2.84357 0.0114986)
(-1.3045 -2.54774 0.0113859)
(-1.2878 -2.26601 0.0112403)
(-1.26759 -1.99773 0.0110639)
(-1.24409 -1.74241 0.0108588)
(-1.21751 -1.49969 0.0106269)
(-1.18801 -1.26929 0.0103695)
(-1.15577 -1.05098 0.010088)
(-1.1209 -0.844598 0.00978381)
(-1.08355 -0.650025 0.00945782)
(-1.04382 -0.467176 0.0091111)
(-1.00182 -0.296008 0.00874457)
(-0.957664 -0.136541 0.00835922)
(-0.911456 0.0112001 0.00795598)
(-0.0306686 -46.771 0.000267811)
(0.124432 -46.9703 -0.00108584)
(-0.130961 -37.577 0.00114276)
(-0.608693 -23.1738 0.00531301)
(1.18568 -28.5833 -0.0103434)
(3.256 -41.6078 -0.0284139)
(3.67328 -47.5619 -0.0320612)
(2.87799 -43.6684 -0.0251306)
(1.77328 -35.2651 -0.0154573)
(0.733948 -24.3477 -0.0064011)
(-0.0644712 -12.9482 0.000569245)
(-0.220429 -7.22348 0.00179156)
(-0.359091 -7.68385 0.00308651)
(-0.541627 -7.86328 0.00471263)
(-0.722734 -7.79844 0.00630231)
(-0.87609 -7.55071 0.00764499)
(-1.00088 -7.16913 0.0087347)
(-1.09608 -6.71499 0.00956588)
(-1.16866 -6.23731 0.0101995)
(-1.22282 -5.76553 0.0106724)
(-1.2633 -5.31417 0.0110258)
(-1.29295 -4.88824 0.0112846)
(-1.31397 -4.48791 0.0114682)
(-1.32774 -4.11126 0.0115885)
(-1.33523 -3.75583 0.0116539)
(-1.33713 -3.41929 0.0116706)
(-1.33398 -3.09975 0.0116431)
(-1.32619 -2.79571 0.0115752)
(-1.31412 -2.50607 0.0114699)
(-1.2981 -2.23001 0.0113301)
(-1.27838 -1.96694 0.0111581)
(-1.25522 -1.71641 0.010956)
(-1.22884 -1.4781 0.0107257)
(-1.19942 -1.25175 0.010469)
(-1.16713 -1.03718 0.0101873)
(-1.13214 -0.834247 0.00988188)
(-1.09457 -0.642851 0.00955401)
(-1.05455 -0.462928 0.00920478)
(-1.01221 -0.294455 0.00883522)
(-0.967648 -0.137461 0.00844637)
(-0.920996 0.00801587 0.00803925)
(-0.0190569 -46.8775 0.000166466)
(0.102226 -46.9343 -0.000892075)
(-0.107807 -36.8 0.000940361)
(-0.697363 -24.2035 0.00608714)
(1.74653 -32.5017 -0.0152382)
(3.0976 -44.0627 -0.0270329)
(3.36452 -48.1157 -0.0293668)
(2.46922 -42.7787 -0.0215641)
(1.45709 -34.1085 -0.0126986)
(0.523442 -23.3206 -0.0045628)
(-0.119957 -12.301 0.0010533)
(-0.24256 -7.09412 0.00199215)
(-0.368444 -7.43036 0.00317313)
(-0.5376 -7.5852 0.00467842)
(-0.71021 -7.53397 0.0061933)
(-0.85987 -7.3132 0.00750345)
(-0.984506 -6.96269 0.00859183)
(-1.08154 -6.5377 0.00943896)
(-1.1568 -6.08464 0.010096)
(-1.2138 -5.63292 0.0105936)
(-1.25699 -5.1979 0.0109707)
(-1.28913 -4.78557 0.0112513)
(-1.3124 -4.39688 0.0114545)
(-1.32818 -4.03045 0.0115923)
(-1.33746 -3.68415 0.0116733)
(-1.34094 -3.35589 0.0117038)
(-1.33915 -3.04389 0.0116883)
(-1.33254 -2.74675 0.0116306)
(-1.32146 -2.46344 0.0115339)
(-1.30624 -2.19319 0.0114012)
(-1.28716 -1.93546 0.0112347)
(-1.26448 -1.68983 0.0110368)
(-1.23843 -1.45603 0.0108095)
(-1.20922 -1.23383 0.0105546)
(-1.17703 -1.02308 0.0102737)
(-1.14203 -0.823665 0.00996817)
(-1.10436 -0.635508 0.00963944)
(-1.06416 -0.458566 0.00928866)
(-1.02157 -0.292833 0.00891695)
(-0.976706 -0.138352 0.00852543)
(-0.929698 0.0048262 0.00811522)
(-0.0211335 -46.9787 0.000184591)
(0.112874 -46.9078 -0.000985012)
(-0.138381 -36.0541 0.0012072)
(-0.44399 -25.8317 0.00387653)
(2.21183 -36.1837 -0.0192996)
(2.86503 -45.8955 -0.0250045)
(3.04721 -48.4037 -0.0265975)
(2.12332 -41.8559 -0.0185453)
(1.18998 -33.0386 -0.0103683)
(0.376158 -22.4462 -0.00327657)
(-0.136009 -11.7631 0.00119169)
(-0.257818 -6.96557 0.00213183)
(-0.378049 -7.19175 0.00326102)
(-0.535084 -7.32098 0.00465731)
(-0.699035 -7.27821 0.00609609)
(-0.844253 -7.07982 0.00736718)
(-0.967824 -6.75722 0.00844622)
(-1.06597 -6.35956 0.00930306)
(-1.14338 -5.93029 0.00997878)
(-1.20288 -5.49837 0.0104982)
(-1.24858 -5.07968 0.0108973)
(-1.28308 -4.68104 0.0111984)
(-1.30852 -4.30411 0.0114206)
(-1.32627 -3.94802 0.0115756)
(-1.33734 -3.611 0.0116723)
(-1.34242 -3.29114 0.0117167)
(-1.34207 -2.98681 0.0117137)
(-1.3367 -2.69671 0.0116669)
(-1.32669 -2.41986 0.0115796)
(-1.31238 -2.15555 0.0114547)
(-1.29405 -1.90326 0.0112948)
(-1.27196 -1.66265 0.0111021)
(-1.24637 -1.43346 0.0108788)
(-1.21748 -1.2155 0.0106267)
(-1.1855 -1.00865 0.0103476)
(-1.15059 -0.812823 0.010043)
(-1.11293 -0.627968 0.0097143)
(-1.07266 -0.454062 0.00936285)
(-1.02992 -0.291116 0.00898983)
(-0.984843 -0.13919 0.00859645)
(-0.937565 0.00165436 0.00818388)
(-0.0448103 -47.0783 0.000391226)
(0.161929 -46.8878 -0.00141315)
(-0.228331 -35.5936 0.00199243)
(0.0426932 -28.1403 -0.000370236)
(2.49913 -39.3379 -0.021808)
(2.64533 -47.2013 -0.0230882)
(2.74794 -48.5115 -0.0239857)
(1.8461 -40.9313 -0.0161246)
(0.971547 -32.0582 -0.00846291)
(0.277779 -21.7142 -0.00241687)
(-0.134019 -11.2985 0.00117228)
(-0.271199 -6.82271 0.00225541)
(-0.387782 -6.96348 0.00334943)
(-0.534298 -7.06951 0.00465119)
(-0.689738 -7.03136 0.00601525)
(-0.829948 -6.85135 0.00724237)
(-0.951664 -6.55357 0.00830519)
(-1.0502 -6.18129 0.00916538)
(-1.12917 -5.77484 0.00985479)
(-1.19077 -5.3623 0.0103925)
(-1.23869 -4.95982 0.0108109)
(-1.27534 -4.57489 0.0111309)
(-1.30282 -4.20979 0.0113708)
(-1.32245 -3.86414 0.0115422)
(-1.33525 -3.53648 0.0116541)
(-1.34192 -3.22513 0.0117123)
(-1.34299 -2.92859 0.0117217)
(-1.3389 -2.64563 0.0116861)
(-1.33002 -2.37535 0.0116086)
(-1.31668 -2.11708 0.0114923)
(-1.29917 -1.87036 0.0113395)
(-1.27777 -1.63486 0.0111528)
(-1.25273 -1.41037 0.0109342)
(-1.22426 -1.19674 0.0106859)
(-1.19259 -0.993865 0.0104094)
(-1.15788 -0.801697 0.0101066)
(-1.12033 -0.620205 0.00977882)
(-1.08007 -0.44939 0.00942753)
(-1.03727 -0.289281 0.009054)
(-0.992066 -0.139952 0.0086595)
(-0.9446 -0.00147776 0.00824529)
(-0.0872333 -47.1753 0.000761475)
(0.237507 -46.8567 -0.00207274)
(-0.362764 -35.4969 0.00316593)
(0.531725 -30.9713 -0.00463778)
(2.51004 -41.8869 -0.0219043)
(2.41665 -48.1237 -0.021093)
(2.44486 -48.5075 -0.0213405)
(1.60521 -40.0212 -0.0140208)
(0.783391 -31.1651 -0.00682184)
(0.204686 -21.1069 -0.00177696)
(-0.132623 -10.8809 0.00115808)
(-0.285702 -6.66435 0.00238976)
(-0.398014 -6.74322 0.00344181)
(-0.535474 -6.82939 0.00466215)
(-0.682721 -6.79333 0.0059543)
(-0.817533 -6.62833 0.00713407)
(-0.93672 -6.35246 0.00817477)
(-1.03493 -6.00359 0.00903214)
(-1.11488 -5.61883 0.00973)
(-1.1781 -5.22514 0.0102819)
(-1.22788 -4.83867 0.0107166)
(-1.26644 -4.4674 0.0110532)
(-1.29574 -4.11414 0.011309)
(-1.31712 -3.77897 0.0114957)
(-1.33155 -3.46074 0.0116217)
(-1.33973 -3.15798 0.0116932)
(-1.34219 -2.8693 0.0117147)
(-1.33937 -2.59358 0.0116902)
(-1.33163 -2.32996 0.0116227)
(-1.3193 -2.07782 0.0115151)
(-1.30267 -1.83676 0.0113701)
(-1.28202 -1.60646 0.0111898)
(-1.2576 -1.38676 0.0109767)
(-1.22964 -1.17753 0.0107327)
(-1.19835 -0.97871 0.0104597)
(-1.16393 -0.790269 0.0101594)
(-1.12657 -0.612201 0.00983329)
(-1.08642 -0.44453 0.00948291)
(-1.04364 -0.287305 0.00910959)
(-0.998389 -0.140616 0.00871469)
(-0.950812 -0.00454989 0.00829951)
(-0.136008 -47.2656 0.00118716)
(0.313563 -46.7873 -0.00273651)
(-0.497543 -35.6627 0.0043424)
(0.857994 -33.9536 -0.00748515)
(2.23787 -43.863 -0.0195297)
(2.14769 -48.8237 -0.0187457)
(2.12113 -48.4546 -0.0185152)
(1.37275 -39.1462 -0.0119901)
(0.610546 -30.3632 -0.00531443)
(0.140851 -20.6081 -0.00121799)
(-0.141196 -10.4968 0.00123112)
(-0.302457 -6.49696 0.00254522)
(-0.409297 -6.53013 0.00354318)
(-0.538764 -6.59944 0.00469153)
(-0.678187 -6.56384 0.00591502)
(-0.807396 -6.41107 0.00704564)
(-0.923506 -6.15447 0.00805945)
(-1.02075 -5.82706 0.00890834)
(-1.10106 -5.46283 0.00960939)
(-1.16541 -5.08735 0.0101712)
(-1.21667 -4.7166 0.0106187)
(-1.25681 -4.35885 0.0109691)
(-1.28771 -4.01741 0.0112389)
(-1.31064 -3.69272 0.0114391)
(-1.32655 -3.38394 0.0115781)
(-1.33614 -3.0898 0.0116618)
(-1.33993 -2.80904 0.0116949)
(-1.33833 -2.54062 0.0116811)
(-1.33172 -2.28373 0.0116234)
(-1.3204 -2.03781 0.0115247)
(-1.30467 -1.80248 0.0113875)
(-1.28481 -1.57746 0.0112142)
(-1.26107 -1.36263 0.011007)
(-1.23367 -1.15788 0.0107679)
(-1.20285 -0.963177 0.010499)
(-1.16879 -0.778524 0.0102018)
(-1.13169 -0.603938 0.00987802)
(-1.09172 -0.439465 0.00952921)
(-1.04905 -0.285171 0.00915678)
(-1.00382 -0.141164 0.00876213)
(-0.956211 -0.00754346 0.00834663)
(-0.175653 -47.3439 0.00153316)
(0.365461 -46.6712 -0.00318945)
(-0.584277 -35.9544 0.00509947)
(0.99016 -36.7075 -0.00863878)
(1.80894 -45.3607 -0.0157868)
(1.85975 -49.4276 -0.0162323)
(1.79361 -48.3926 -0.0156568)
(1.14636 -38.3256 -0.0100122)
(0.451812 -29.6568 -0.00393015)
(0.0811855 -20.2007 -0.000695239)
(-0.162346 -10.1399 0.00141417)
(-0.321032 -6.32795 0.00271771)
(-0.422005 -6.3241 0.00365684)
(-0.544232 -6.3787 0.00473991)
(-0.676201 -6.34244 0.00589796)
(-0.799745 -6.1997 0.00697892)
(-0.912358 -5.96003 0.00796218)
(-1.00806 -5.65226 0.00879759)
(-1.08817 -5.30732 0.00949687)
(-1.15314 -4.94936 0.0100641)
(-1.20546 -4.59395 0.0105208)
(-1.24685 -4.24956 0.0108822)
(-1.27908 -3.91984 0.0111635)
(-1.30333 -3.60561 0.0113753)
(-1.32055 -3.30627 0.0115257)
(-1.33141 -3.02076 0.0116205)
(-1.33641 -2.74794 0.0116643)
(-1.33598 -2.48686 0.0116605)
(-1.33044 -2.23675 0.0116123)
(-1.32012 -1.9971 0.0115223)
(-1.30531 -1.76756 0.011393)
(-1.28625 -1.54789 0.0112268)
(-1.26322 -1.33798 0.0110258)
(-1.23644 -1.13778 0.0107921)
(-1.20613 -0.94726 0.0105276)
(-1.1725 -0.766454 0.0102342)
(-1.13574 -0.595405 0.00991333)
(-1.09602 -0.43418 0.00956671)
(-1.05351 -0.282863 0.00919577)
(-1.00839 -0.141579 0.00880198)
(-0.960809 -0.0104417 0.00838677)
(-0.196307 -47.4078 0.00171341)
(0.381678 -46.5256 -0.00333099)
(-0.601286 -36.2843 0.00524803)
(0.984214 -39.0296 -0.00858723)
(1.3783 -46.5109 -0.0120288)
(1.59155 -49.9914 -0.0138911)
(1.49281 -48.3312 -0.0130316)
(0.938037 -37.5682 -0.00819212)
(0.312713 -29.0421 -0.00271715)
(0.0253858 -19.8668 -0.000203168)
(-0.196375 -9.80584 0.00171009)
(-0.340743 -6.16274 0.00290038)
(-0.436318 -6.12503 0.00378434)
(-0.551837 -6.16627 0.00480691)
(-0.676714 -6.12866 0.00590271)
(-0.794639 -5.99419 0.00693441)
(-0.903447 -5.76944 0.00788443)
(-0.997129 -5.47961 0.0087022)
(-1.07651 -5.15278 0.00939512)
(-1.14163 -4.81159 0.00996358)
(-1.19457 -4.4711 0.0104258)
(-1.23687 -4.13983 0.0107951)
(-1.27012 -3.82171 0.0110854)
(-1.29546 -3.51784 0.0113066)
(-1.3138 -3.22791 0.0114667)
(-1.32577 -2.95101 0.0115712)
(-1.33187 -2.68613 0.0116246)
(-1.33249 -2.43239 0.0116301)
(-1.32797 -2.1891 0.0115907)
(-1.31861 -1.95575 0.0115091)
(-1.30469 -1.73205 0.0113876)
(-1.28645 -1.51778 0.0112285)
(-1.26415 -1.31285 0.0110339)
(-1.23802 -1.11724 0.0108059)
(-1.20828 -0.930962 0.0105463)
(-1.17512 -0.754057 0.010257)
(-1.13875 -0.586595 0.00993958)
(-1.09934 -0.428664 0.00959567)
(-1.05707 -0.280368 0.00922678)
(-1.01211 -0.141847 0.00883441)
(-0.96462 -0.0132296 0.00842003)
(-0.196272 -47.4574 0.00171309)
(0.36404 -46.3766 -0.003177)
(-0.556081 -36.6228 0.00485364)
(0.913017 -40.8908 -0.00796626)
(1.03491 -47.4306 -0.00903201)
(1.3637 -50.5181 -0.0119022)
(1.2403 -48.2657 -0.0108279)
(0.757718 -36.8714 -0.00661673)
(0.195661 -28.5072 -0.00169642)
(-0.0252903 -19.5858 0.000246095)
(-0.236562 -9.48919 0.00206034)
(-0.362159 -6.00427 0.00309773)
(-0.452266 -5.93284 0.00392592)
(-0.561474 -5.96139 0.00489164)
(-0.679588 -5.92198 0.00592804)
(-0.792008 -5.79441 0.0069115)
(-0.896799 -5.58288 0.00782644)
(-0.988076 -5.30946 0.0086232)
(-1.06627 -4.9996 0.00930575)
(-1.13107 -4.67443 0.00987148)
(-1.18425 -4.34838 0.0103357)
(-1.22709 -4.02995 0.0107097)
(-1.26108 -3.72325 0.0110064)
(-1.28726 -3.42965 0.011235)
(-1.3065 -3.14905 0.011403)
(-1.3194 -2.88071 0.0115157)
(-1.32646 -2.62374 0.0115773)
(-1.32803 -2.37734 0.0115912)
(-1.32446 -2.14085 0.01156)
(-1.316 -1.91383 0.0114863)
(-1.30294 -1.69599 0.0113723)
(-1.28551 -1.48716 0.0112202)
(-1.26395 -1.28726 0.0110321)
(-1.23848 -1.09629 0.0108099)
(-1.20933 -0.914292 0.0105555)
(-1.17669 -0.741333 0.0102707)
(-1.14075 -0.577503 0.00995711)
(-1.10171 -0.42291 0.00961638)
(-1.05973 -0.277676 0.00925003)
(-1.01499 -0.141957 0.00885959)
(-0.96766 -0.0158941 0.00844656)
(-0.178795 -47.4952 0.00156055)
(0.320585 -46.2449 -0.00279766)
(-0.46932 -36.9788 0.00409659)
(0.829368 -42.3544 -0.00723659)
(0.798955 -48.1982 -0.00697286)
(1.18086 -50.9961 -0.0103062)
(1.04424 -48.1895 -0.00911694)
(0.608788 -36.225 -0.00531568)
(0.101177 -28.0344 -0.000872353)
(-0.0725529 -19.3361 0.000664613)
(-0.279092 -9.19058 0.00243206)
(-0.385013 -5.85343 0.00330696)
(-0.469721 -5.74735 0.00408043)
(-0.572927 -5.76342 0.00499219)
(-0.68459 -5.72187 0.00597193)
(-0.791667 -5.60017 0.00690858)
(-0.892316 -5.40043 0.00778734)
(-0.980895 -5.14206 0.00856054)
(-1.05751 -4.84811 0.00922932)
(-1.1216 -4.5382 0.00978882)
(-1.17463 -4.22612 0.0102517)
(-1.21769 -3.92021 0.0106276)
(-1.25212 -3.62472 0.0109282)
(-1.27889 -3.34124 0.0111619)
(-1.29881 -3.06987 0.0113359)
(-1.31247 -2.81002 0.0114552)
(-1.32033 -2.56091 0.0115239)
(-1.32275 -2.3218 0.011545)
(-1.32001 -2.09212 0.0115212)
(-1.3124 -1.87142 0.0114549)
(-1.30015 -1.65946 0.011348)
(-1.2835 -1.45608 0.0112027)
(-1.26268 -1.26123 0.011021)
(-1.23789 -1.07494 0.0108047)
(-1.20935 -0.897261 0.0105557)
(-1.17726 -0.728287 0.0102757)
(-1.14181 -0.568129 0.00996627)
(-1.10317 -0.416914 0.00962912)
(-1.06153 -0.27478 0.00926575)
(-1.01707 -0.141898 0.0088777)
(-0.969945 -0.0184237 0.0084665)
(-0.149052 -47.5244 0.00130096)
(0.260612 -46.1414 -0.0022742)
(-0.360739 -37.376 0.00314909)
(0.760262 -43.5141 -0.00663379)
(0.656262 -48.8592 -0.00572758)
(1.04097 -51.4195 -0.00908517)