/*--------------------------------*- C++ -*----------------------------------*\
| =========                 |                                                 |
| \\      /  F ield         | OpenFOAM: The Open Source CFD Toolbox           |
|  \\    /   O peration     | Version:  v2012                                 |
|   \\  /    A nd           | Website:  www.openfoam.com                      |
|    \\/     M anipulation  |                                                 |
\*---------------------------------------------------------------------------*/
FoamFile
{
    version     2.0;
    format      ascii;
    class       volVectorField;
    location    "0.65";
    object      U;
}
// * * * * * * * * * * * * * * * * * * * * * * * * * * * * * * * * * * * * * //

dimensions      [0 1 -1 0 0 0 0];


internalField   nonuniform List<vector> 
2650
(
(0.199782 -45.9352 -0.00171928)
(0.0161658 -45.3472 -0.000122633)
(0.357941 -44.8873 -0.00311922)
(1.08777 -32.6626 -0.00948259)
(1.4492 -7.59279 -0.012624)
(0.0388422 -46.3997 -0.00032069)
(0.0219675 -45.6429 -0.000178391)
(0.276733 -46.6574 -0.00240809)
(2.45493 -36.4437 -0.0214181)
(3.2294 -13.7948 -0.0281561)
(0.101169 -46.5392 -0.000853537)
(-0.0946481 -45.6868 0.000835105)
(-0.07319 -48.602 0.000643022)
(0.531902 -40.1355 -0.00463881)
(1.47974 -19.3801 -0.0128974)
(0.0384229 -46.7967 -0.000302224)
(-0.0257151 -45.2294 0.000225095)
(-0.238049 -48.8244 0.00207321)
(0.158269 -39.9519 -0.00137525)
(0.362779 -17.2254 -0.00315844)
(-0.0681867 -46.9525 0.000593829)
(-0.35204 -44.898 0.00306583)
(-0.939216 -48.808 0.0081966)
(0.068978 -40.3172 -0.000592279)
(0.393422 -16.3697 -0.00343564)
(-0.181799 -46.7909 0.00158296)
(-0.363518 -45.0851 0.00316467)
(-0.726069 -49.8304 0.00633823)
(0.152503 -41.6705 -0.00132079)
(0.646211 -16.7949 -0.00564511)
(-0.279889 -46.3985 0.00243229)
(0.1195 -45.3731 -0.00105505)
(0.435991 -50.843 -0.00380259)
(0.698147 -42.0048 -0.0060831)
(0.540502 -15.8083 -0.00472237)
(-0.378703 -46.1513 0.00329897)
(0.487332 -46.4092 -0.00426352)
(0.717363 -51.8912 -0.00626356)
(0.998402 -42.084 -0.00870864)
(0.291061 -14.8746 -0.00253452)
(-0.421306 -46.0293 0.00365362)
(0.563646 -48.0812 -0.00493004)
(0.821087 -53.0275 -0.00716815)
(0.982641 -42.0278 -0.0085734)
(0.236523 -14.075 -0.00205961)
(-0.293857 -45.8602 0.0025441)
(0.388647 -49.6816 -0.00339874)
(1.00856 -53.9986 -0.00880522)
(0.514624 -41.8054 -0.00449014)
(0.403589 -13.1252 -0.00352263)
(-0.124418 -45.8157 0.00106894)
(0.311094 -51.2487 -0.00271906)
(1.02816 -54.6922 -0.00897812)
(-0.10159 -41.3832 0.000887781)
(0.492923 -12.7731 -0.00429983)
(-0.151564 -45.981 0.00132157)
(0.443811 -52.5707 -0.00387637)
(0.543178 -54.5346 -0.00474799)
(-0.520392 -40.9233 0.00454444)
(0.535342 -12.6616 -0.00466761)
(-0.199507 -46.3144 0.0017326)
(0.404928 -53.4985 -0.00353826)
(-0.261645 -53.553 0.00227438)
(-0.689373 -41.1604 0.00602144)
(0.811031 -12.8639 -0.0070784)
(-0.253622 -46.059 0.00221642)
(0.182159 -53.131 -0.00158939)
(-1.16737 -52.1071 0.0101802)
(-0.600693 -42.3214 0.00524739)
(0.729965 -12.3629 -0.00637304)
(-0.360075 -45.6533 0.00315394)
(-0.627536 -51.8301 0.00547765)
(-2.23205 -51.2254 0.0194764)
(-1.00529 -44.1963 0.00877756)
(-0.146622 -13.7754 0.00127545)
(-0.360241 -42.4599 0.00314905)
(-1.4009 -47.387 0.0122223)
(-3.244 -48.441 0.0283102)
(-2.96005 -43.2056 0.0258333)
(-2.97547 -11.1254 0.026051)
(-0.918735 -40.2156 0.00801892)
(-3.32716 -43.2512 0.0290357)
(-5.48363 -45.7566 0.0478576)
(-6.82693 -44.7051 0.0595865)
(-8.92225 -29.6312 0.0779305)
(-2.11552 -28.7898 0.0184616)
(-5.84609 -30.3655 0.0510197)
(-10.0474 -31.574 0.0876845)
(-16.2449 -29.7045 0.141771)
(-21.9279 -20.6305 0.191333)
(-18.0497 -2.10844 0.157598)
(-10.7404 -3.23156 0.0937587)
(-8.07603 -1.58372 0.0704779)
(-5.43045 -1.06291 0.0473964)
(-4.12747 -0.662822 0.0360212)
(-2.98475 -0.433131 0.0260496)
(-2.29799 -0.285015 0.0200553)
(-1.7388 -0.191739 0.0151755)
(-1.35641 -0.129925 0.011838)
(-1.05623 -0.089147 0.00921834)
(-0.835666 -0.061363 0.00729336)
(-0.664084 -0.0425892 0.00579594)
(-0.533293 -0.0297562 0.00465448)
(-0.431069 -0.0208805 0.00376234)
(-0.351214 -0.0147557 0.00306541)
(-0.288281 -0.0105155 0.00251617)
(-0.238214 -0.00754822 0.00207921)
(-0.198202 -0.00547785 0.00173)
(-0.165929 -0.00401567 0.00144833)
(-0.139724 -0.00297847 0.0012196)
(-0.118281 -0.00223557 0.00103245)
(-0.100609 -0.0016976 0.000878208)
(-0.0859405 -0.00130391 0.00075018)
(-0.0736835 -0.00101276 0.000643202)
(-0.0633729 -0.000795606 0.000553232)
(-0.0546463 -0.000632261 0.000476961)
(-1.39905 -14.3569 0.0122091)
(-3.34817 -14.8565 0.0292189)
(-5.85965 -14.1425 0.051137)
(-8.8391 -14.1046 0.0771428)
(-11.3431 -12.9679 0.0989997)
(-9.88064 -7.38702 0.0862443)
(-7.07679 -4.86767 0.0617752)
(-6.35781 -2.95601 0.0554955)
(-4.84537 -2.07405 0.0422975)
(-4.12399 -1.38589 0.0359985)
(-3.30016 -1.00362 0.0288086)
(-2.7592 -0.716552 0.0240858)
(-2.26605 -0.532132 0.0197814)
(-1.89376 -0.394569 0.0165314)
(-1.57824 -0.297987 0.0137773)
(-1.3255 -0.225468 0.0115709)
(-1.1149 -0.172263 0.00973258)
(-0.942239 -0.131982 0.00822536)
(-0.798408 -0.101694 0.00696981)
(-0.678814 -0.0786797 0.00592581)
(-0.578997 -0.0611674 0.00505447)
(-0.49528 -0.0477791 0.00432365)
(-0.424997 -0.0375229 0.00371011)
(-0.365726 -0.0296347 0.0031927)
(-0.315604 -0.0235487 0.00275513)
(-0.273061 -0.018834 0.00238376)
(-0.236821 -0.0151635 0.0020674)
(-0.205833 -0.0122914 0.0017969)
(-0.179236 -0.0100309 0.00156473)
(-0.15632 -0.00824178 0.0013647)
(-0.136505 -0.00681653 0.00119156)
(-0.705987 -13.0343 0.00616049)
(-1.86892 -13.6062 0.0163092)
(-3.00276 -12.7575 0.0262048)
(-3.97549 -10.7008 0.0346946)
(-5.50118 -7.85141 0.048012)
(-5.79548 -4.87499 0.0505841)
(-5.20741 -4.06284 0.0454528)
(-4.71747 -2.77081 0.0411766)
(-4.00478 -2.17256 0.0349572)
(-3.49894 -1.58042 0.0305419)
(-2.96779 -1.21899 0.025906)
(-2.56544 -0.9205 0.0223938)
(-2.19546 -0.714163 0.0191646)
(-1.89683 -0.552565 0.0165577)
(-1.63614 -0.433667 0.0142823)
(-1.41758 -0.341195 0.0123745)
(-1.2293 -0.270648 0.0107309)
(-1.06893 -0.215438 0.00933111)
(-0.930687 -0.17237 0.00812434)
(-0.811695 -0.138388 0.00708564)
(-0.70904 -0.111533 0.00618955)
(-0.620141 -0.090201 0.00541353)
(-0.543182 -0.0732213 0.00474173)
(-0.47636 -0.0596662 0.00415842)
(-0.418274 -0.0488213 0.00365136)
(-0.367683 -0.0401231 0.00320975)
(-0.323538 -0.033126 0.0028244)
(-0.28494 -0.02748 0.00248746)
(-0.251122 -0.0229073 0.00219226)
(-0.221427 -0.0191899 0.00193303)
(-0.195298 -0.0161544 0.00170478)
(-0.650405 -5.94539 0.00567568)
(-1.70645 -6.17999 0.0148916)
(-2.80573 -6.36071 0.0244851)
(-3.6334 -6.16243 0.0317095)
(-4.10102 -5.56298 0.0357927)
(-3.91057 -4.37913 0.0341325)
(-3.63718 -3.56458 0.0317465)
(-3.41529 -2.71668 0.0298097)
(-3.04494 -2.15361 0.026578)
(-2.77652 -1.657 0.0242353)
(-2.45718 -1.30865 0.0214484)
(-2.20031 -1.02366 0.0192061)
(-1.94722 -0.814197 0.0169972)
(-1.73092 -0.647235 0.0151092)
(-1.53375 -0.52015 0.0133882)
(-1.36107 -0.419145 0.0118809)
(-1.20735 -0.340132 0.0105391)
(-1.07205 -0.277023 0.00935815)
(-0.952116 -0.226701 0.00831125)
(-0.846021 -0.186153 0.00738515)
(-0.752178 -0.153407 0.006566)
(-0.668901 -0.126824 0.00583907)
(-0.595125 -0.105186 0.00519508)
(-0.529624 -0.0875227 0.00462332)
(-0.471463 -0.0730692 0.00411561)
(-0.419768 -0.0612167 0.00366437)
(-0.373782 -0.0514725 0.00326296)
(-0.332837 -0.0434423 0.00290554)
(-0.296343 -0.0368052 0.00258697)
(-0.263778 -0.0313033 0.00230269)
(-0.234689 -0.0267263 0.00204862)
(-0.294923 -5.30797 0.00257372)
(-0.692211 -5.44558 0.00604069)
(-1.22 -5.29716 0.0106462)
(-1.69161 -4.75712 0.0147618)
(-2.17797 -4.05014 0.0190074)
(-2.41096 -3.27629 0.0210422)
(-2.4853 -2.78434 0.0216918)
(-2.4665 -2.23648 0.0215277)
(-2.34259 -1.85883 0.0204467)
(-2.21042 -1.50268 0.0192937)
(-2.0337 -1.23536 0.0177515)
(-1.86954 -1.00436 0.0163186)
(-1.69937 -0.824458 0.0148335)
(-1.54311 -0.674823 0.0134695)
(-1.39581 -0.556078 0.0121839)
(-1.26116 -0.458641 0.0110086)
(-1.1381 -0.38008 0.00993443)
(-1.02666 -0.315833 0.00896178)
(-0.925643 -0.263397 0.00808003)
(-0.834265 -0.220298 0.00728242)
(-0.751847 -0.184801 0.00656301)
(-0.677278 -0.155454 0.00591211)
(-0.610019 -0.131128 0.00532502)
(-0.549248 -0.110917 0.00479456)
(-0.494374 -0.094086 0.00431556)
(-0.444803 -0.0800445 0.00388287)
(-0.400013 -0.0683033 0.0034919)
(-0.359529 -0.0584659 0.00313851)
(-0.322926 -0.0502027 0.00281899)
(-0.289814 -0.0432446 0.00252993)
(-0.259849 -0.0373677 0.00226824)
(-0.277805 -2.66945 0.00242483)
(-0.67951 -2.76513 0.00593069)
(-1.13311 -2.90199 0.00988842)
(-1.49011 -2.88753 0.0130037)
(-1.75134 -2.74095 0.0152844)
(-1.85813 -2.45152 0.0162171)
(-1.9033 -2.18092 0.016612)
(-1.90084 -1.86873 0.0165904)
(-1.83931 -1.60247 0.0160534)
(-1.77197 -1.34999 0.0154664)
(-1.67005 -1.13989 0.014577)
(-1.56972 -0.954385 0.0137014)
(-1.45924 -0.80181 0.0127372)
(-1.35135 -0.671575 0.0117955)
(-1.24567 -0.564571 0.0108732)
(-1.14442 -0.474655 0.00998941)
(-1.049 -0.400259 0.00915658)
(-0.959769 -0.338226 0.00837777)
(-0.876844 -0.286538 0.00765396)
(-0.800016 -0.243342 0.00698336)
(-0.729334 -0.207145 0.00636641)
(-0.664169 -0.176764 0.0057976)
(-0.604399 -0.151195 0.00527589)
(-0.549534 -0.129643 0.004797)
(-0.499255 -0.111437 0.00435811)
(-0.453189 -0.0960351 0.00395602)
(-0.411001 -0.0829768 0.00358778)
(-0.372375 -0.0718858 0.00325061)
(-0.337016 -0.0624438 0.00294195)
(-0.304648 -0.0543873 0.0026594)
(-0.275021 -0.047494 0.00240067)
(-0.14849 -2.14497 0.001296)
(-0.341513 -2.19524 0.00298067)
(-0.58953 -2.24849 0.00514499)
(-0.827618 -2.18993 0.007222)
(-1.05352 -2.05986 0.0091938)
(-1.21409 -1.86667 0.0105955)
(-1.3254 -1.69076 0.0115679)
(-1.3915 -1.49136 0.0121447)
(-1.40714 -1.31418 0.0122809)
(-1.40157 -1.14336 0.0122332)
(-1.36187 -0.993871 0.0118869)
(-1.31118 -0.857196 0.0114445)
(-1.24655 -0.739168 0.0108805)
(-1.17596 -0.634759 0.0102644)
(-1.10302 -0.545406 0.00962792)
(-1.02873 -0.468019 0.00897947)
(-0.956277 -0.401927 0.00834712)
(-0.886056 -0.345513 0.00773423)
(-0.819066 -0.297328 0.00714953)
(-0.755455 -0.256305 0.00659431)
(-0.695732 -0.221246 0.00607302)
(-0.639631 -0.191338 0.00558335)
(-0.587316 -0.165761 0.00512672)
(-0.538562 -0.143889 0.00470117)
(-0.493254 -0.125157 0.00430568)
(-0.451197 -0.109101 0.00393859)
(-0.412204 -0.0953157 0.00359824)
(-0.376084 -0.0834627 0.00328295)
(-0.342649 -0.0732506 0.0029911)
(-0.311716 -0.064434 0.00272107)
(-0.283115 -0.0568027 0.0024713)
(-0.134794 -1.03924 0.00117646)
(-0.30888 -1.10665 0.00269582)
(-0.51407 -1.21512 0.0044863)
(-0.703321 -1.28216 0.00613733)
(-0.866743 -1.31218 0.00756397)
(-0.985103 -1.28543 0.00859704)
(-1.06678 -1.23244 0.00931073)
(-1.12134 -1.14809 0.00978683)
(-1.14153 -1.05045 0.00996245)
(-1.14979 -0.949039 0.0100354)
(-1.13265 -0.849505 0.00988606)
(-1.10631 -0.753938 0.00965625)
(-1.06831 -0.665752 0.0093246)
(-1.02258 -0.585001 0.00892552)
(-0.973303 -0.512743 0.00849552)
(-0.919916 -0.448482 0.00802958)
(-0.86604 -0.391783 0.00755936)
(-0.811774 -0.34234 0.00708576)
(-0.758518 -0.299013 0.00662094)
(-0.706608 -0.261435 0.00616786)
(-0.656771 -0.22867 0.00573288)
(-0.609051 -0.200254 0.00531636)
(-0.563776 -0.175563 0.00492119)
(-0.520933 -0.154144 0.00454723)
(-0.480558 -0.135551 0.00419481)
(-0.4426 -0.119413 0.00386351)
(-0.406988 -0.105389 0.00355267)
(-0.373635 -0.0931901 0.00326154)
(-0.342438 -0.0825616 0.00298923)
(-0.313291 -0.0732843 0.00273479)
(-0.286088 -0.0651673 0.00249724)
(-0.084656 -0.667561 0.000738889)
(-0.191652 -0.732738 0.00167275)
(-0.32145 -0.818249 0.00280538)
(-0.451328 -0.879018 0.0039384)
(-0.576662 -0.919009 0.00503259)
(-0.684002 -0.927929 0.00596925)
(-0.769705 -0.916148 0.00671832)
(-0.841116 -0.878501 0.00734127)
(-0.88463 -0.824105 0.00772004)
(-0.917246 -0.765591 0.00800554)
(-0.926414 -0.703653 0.00808579)
(-0.924125 -0.641704 0.00806588)
(-0.909688 -0.580475 0.00793996)
(-0.8851 -0.522429 0.0077254)
(-0.855227 -0.467699 0.00746475)
(-0.819091 -0.417476 0.0071494)
(-0.780517 -0.371429 0.00681276)
(-0.739711 -0.330126 0.00645665)
(-0.69817 -0.292874 0.0060941)
(-0.656511 -0.259795 0.00573051)
(-0.615482 -0.230299 0.00537241)
(-0.575386 -0.20422 0.00502245)
(-0.536624 -0.18116 0.00468413)
(-0.499347 -0.160837 0.00435877)
(-0.463701 -0.142941 0.00404763)
(-0.429747 -0.127198 0.00375128)
(-0.397508 -0.113347 0.00346988)
(-0.36698 -0.101157 0.00320343)
(-0.338137 -0.0904158 0.00295165)
(-0.310932 -0.0809378 0.00271418)
(-0.285318 -0.0725573 0.00249051)
(-0.0698899 -0.118047 0.000610113)
(-0.159522 -0.196979 0.00139251)
(-0.265092 -0.302266 0.0023136)
(-0.366409 -0.398913 0.0031978)
(-0.466188 -0.490468 0.00406822)
(-0.553465 -0.560358 0.00482978)
(-0.627217 -0.598545 0.00547516)
(-0.685789 -0.613878 0.00598578)
(-0.728574 -0.605721 0.00635824)
(-0.761805 -0.588366 0.00664886)
(-0.777867 -0.561702 0.00678923)
(-0.784616 -0.53003 0.0068482)
(-0.781669 -0.492881 0.00682255)
(-0.76962 -0.455348 0.00671741)
(-0.752423 -0.416825 0.00656737)
(-0.728846 -0.379959 0.00636162)
(-0.701978 -0.344519 0.00612716)
(-0.672 -0.311557 0.00586556)
(-0.640211 -0.280866 0.00558814)
(-0.607302 -0.252822 0.00530093)
(-0.573957 -0.2272 0.0050099)
(-0.540636 -0.204039 0.00471908)
(-0.507764 -0.183157 0.00443217)
(-0.475601 -0.164429 0.00415146)
(-0.444368 -0.147672 0.00387884)
(-0.414211 -0.132717 0.00361563)
(-0.385222 -0.119381 0.00336261)
(-0.357466 -0.107497 0.00312035)
(-0.330975 -0.0969012 0.00288912)
(-0.305756 -0.0874459 0.00266898)
(-0.281807 -0.0789945 0.00245985)
(-0.0421062 0.0967522 0.000367596)
(-0.0999509 0.0211161 0.000872564)
(-0.16925 -0.0755883 0.00147733)
(-0.244518 -0.163963 0.00213422)
(-0.320013 -0.252627 0.00279297)
(-0.398413 -0.327032 0.00347696)
(-0.46704 -0.381162 0.00407565)
(-0.529573 -0.417707 0.00462139)
(-0.577843 -0.431813 0.00504305)
(-0.614264 -0.43847 0.00536114)
(-0.640796 -0.434357 0.00559282)
(-0.65769 -0.424258 0.00574031)
(-0.665908 -0.406471 0.0058121)
(-0.665526 -0.38616 0.00580879)
(-0.659066 -0.362394 0.00575245)
(-0.646279 -0.337997 0.00564089)
(-0.629198 -0.312892 0.00549185)
(-0.608464 -0.288301 0.00531092)
(-0.58502 -0.264389 0.00510634)
(-0.559712 -0.241688 0.00488548)
(-0.533133 -0.220307 0.00465352)
(-0.505846 -0.200446 0.00441537)
(-0.478287 -0.182128 0.00417484)
(-0.450795 -0.16536 0.0039349)
(-0.423643 -0.150086 0.00369791)
(-0.397038 -0.13623 0.00346571)
(-0.371128 -0.123689 0.00323957)
(-0.346033 -0.112359 0.00302053)
(-0.321831 -0.102126 0.00280928)
(-0.298575 -0.0928844 0.00260628)
(-0.276301 -0.0845284 0.00241178)
(-0.0368442 0.352899 0.000321642)
(-0.0865828 0.283576 0.000755848)
(-0.147406 0.194092 0.00128659)
(-0.209583 0.102241 0.00182921)
(-0.272046 0.00734897 0.00237437)
(-0.33443 -0.0825551 0.00291884)
(-0.390549 -0.159905 0.00340854)
(-0.443531 -0.222015 0.00387084)
(-0.485558 -0.265077 0.00423776)
(-0.519317 -0.295729 0.00453244)
(-0.545717 -0.312822 0.00476292)
(-0.564809 -0.321882 0.00492959)
(-0.576755 -0.321631 0.00503392)
(-0.581755 -0.316561 0.00507758)
(-0.581242 -0.306274 0.00507313)
(-0.575243 -0.293277 0.00502081)
(-0.56495 -0.277958 0.00493102)
(-0.551049 -0.261469 0.00480973)
(-0.534126 -0.244319 0.00466207)
(-0.514977 -0.227123 0.00449497)
(-0.494074 -0.210227 0.00431255)
(-0.471971 -0.193959 0.00411965)
(-0.449082 -0.178504 0.00391988)
(-0.425766 -0.163991 0.00371639)
(-0.402318 -0.150476 0.00351174)
(-0.378983 -0.137974 0.00330808)
(-0.355944 -0.12646 0.003107)
(-0.333359 -0.11589 0.00290988)
(-0.311344 -0.106205 0.00271772)
(-0.289986 -0.0973395 0.00253129)
(-0.269355 -0.0892215 0.00235113)
(-0.0276244 0.506528 0.000241119)
(-0.0651807 0.439118 0.000568965)
(-0.109233 0.352138 0.000953368)
(-0.155987 0.260143 0.00136137)
(-0.203768 0.163255 0.00177837)
(-0.252646 0.0719735 0.00220497)
(-0.301284 -0.0105252 0.00262948)
(-0.347846 -0.0799058 0.00303575)
(-0.390125 -0.134054 0.00340487)
(-0.425398 -0.177293 0.00371272)
(-0.455192 -0.207817 0.0039728)
(-0.478625 -0.230265 0.00417735)
(-0.495201 -0.243253 0.00432207)
(-0.505996 -0.250418 0.00441632)
(-0.510963 -0.251421 0.00445969)
(-0.511013 -0.248374 0.00446016)
(-0.506521 -0.241815 0.004421)
(-0.498402 -0.232832 0.00435017)
(-0.486994 -0.222089 0.00425064)
(-0.473076 -0.21026 0.0041292)
(-0.45704 -0.197839 0.00398926)
(-0.439426 -0.185252 0.00383555)
(-0.420634 -0.172802 0.00367154)
(-0.401029 -0.16072 0.00350044)
(-0.380919 -0.14915 0.00332492)
(-0.360565 -0.138189 0.00314729)
(-0.340175 -0.12788 0.00296934)
(-0.319933 -0.118239 0.00279266)
(-0.29998 -0.109254 0.00261851)
(-0.280433 -0.100901 0.00244788)
(-0.261384 -0.0931419 0.00228155)
(-0.0233868 0.660866 0.000204178)
(-0.0548783 0.594041 0.000479107)
(-0.0918906 0.510226 0.000801958)
(-0.131899 0.418942 0.00115109)
(-0.173271 0.322343 0.00151228)
(-0.215548 0.228495 0.00188124)
(-0.257727 0.140077 0.00224927)
(-0.298699 0.0614568 0.00260675)
(-0.335628 -0.00589482 0.00292918)
(-0.367222 -0.0622881 0.00320493)
(-0.394449 -0.106913 0.00344261)
(-0.416934 -0.142099 0.0036389)
(-0.433669 -0.167665 0.003785)
(-0.446011 -0.185938 0.00389274)
(-0.453268 -0.197285 0.0039561)
(-0.45655 -0.203331 0.00398477)
(-0.455707 -0.204855 0.00397745)
(-0.451598 -0.202914 0.00394162)
(-0.444298 -0.19826 0.00387794)
(-0.434477 -0.191645 0.00379225)
(-0.422412 -0.18364 0.00368698)
(-0.408574 -0.174762 0.00356622)
(-0.39331 -0.165398 0.00343302)
(-0.376961 -0.155859 0.00329034)
(-0.359824 -0.146368 0.00314077)
(-0.342162 -0.137089 0.00298664)
(-0.324192 -0.128125 0.0028298)
(-0.306113 -0.119545 0.00267202)
(-0.288086 -0.111384 0.00251467)
(-0.270245 -0.103656 0.00235895)
(-0.252706 -0.0963592 0.00220579)
(-0.0180244 0.766583 0.000157382)
(-0.0428975 0.700822 0.000374547)
(-0.0723151 0.619751 0.0006312)
(-0.104018 0.530903 0.000907852)
(-0.138158 0.435307 0.00120581)
(-0.173324 0.341621 0.00151271)
(-0.209421 0.250644 0.00182771)
(-0.244429 0.167974 0.00213314)
(-0.278334 0.0941176 0.00242915)
(-0.307972 0.0306975 0.00268782)
(-0.335023 -0.022131 0.00292395)
(-0.358382 -0.0657031 0.00312786)
(-0.376597 -0.100085 0.00328687)
(-0.39129 -0.126804 0.00341513)
(-0.40114 -0.14633 0.00350111)
(-0.407491 -0.15993 0.00355656)
(-0.409871 -0.168398 0.00357737)
(-0.409155 -0.172737 0.00357115)
(-0.405295 -0.173655 0.00353749)
(-0.398905 -0.171949 0.00348175)
(-0.390177 -0.16819 0.0034056)
(-0.379547 -0.162953 0.00331284)
(-0.367316 -0.156673 0.00320611)
(-0.353804 -0.149723 0.0030882)
(-0.339293 -0.142385 0.00296155)
(-0.324041 -0.134879 0.00282844)
(-0.308262 -0.127359 0.00269074)
(-0.292166 -0.119941 0.00255026)
(-0.27592 -0.112702 0.00240847)
(-0.259675 -0.105693 0.00226668)
(-0.243559 -0.0989421 0.00212594)
(-0.0154725 0.862841 0.000135107)
(-0.036525 0.799262 0.000318935)
(-0.0616933 0.722192 0.000538532)
(-0.088609 0.635664 0.000773373)
(-0.118179 0.542479 0.00103144)
(-0.148595 0.448682 0.00129687)
(-0.180151 0.356331 0.00157224)
(-0.210925 0.270054 0.00184072)
(-0.241429 0.190709 0.00210706)
(-0.268242 0.12057 0.00234108)
(-0.293135 0.0594971 0.00255839)
(-0.31502 0.0076426 0.00274943)
(-0.332513 -0.0353154 0.00290212)
(-0.347344 -0.0700309 0.00303157)
(-0.358002 -0.0971356 0.0031246)
(-0.365807 -0.117713 0.00319273)
(-0.370111 -0.132535 0.00323032)
(-0.371653 -0.142668 0.00324381)
(-0.370274 -0.148749 0.0032318)
(-0.366506 -0.151646 0.00319894)
(-0.360434 -0.15192 0.00314597)
(-0.35245 -0.150198 0.00307631)
(-0.342781 -0.146944 0.00299194)
(-0.331716 -0.142578 0.00289538)
(-0.319505 -0.137423 0.00278881)
(-0.306391 -0.131743 0.00267437)
(-0.292582 -0.125735 0.00255386)
(-0.278287 -0.119554 0.0024291)
(-0.263678 -0.113312 0.0023016)
(-0.248913 -0.107093 0.00217273)
(-0.23413 -0.100957 0.00204363)
(-0.013283 0.939232 0.000115986)
(-0.0311479 0.875598 0.000271988)
(-0.0519653 0.800576 0.000453634)
(-0.0740884 0.716635 0.000646649)
(-0.0990408 0.62525 0.000864418)
(-0.124572 0.532744 0.0010872)
(-0.152054 0.440065 0.00132704)
(-0.178858 0.352137 0.00156089)
(-0.206168 0.269459 0.00179932)
(-0.230372 0.195035 0.00201056)
(-0.253714 0.128607 0.00221431)
(-0.27477 0.0711411 0.0023981)
(-0.292273 0.0221896 0.00255089)
(-0.307648 -0.0184582 0.00268508)
(-0.31936 -0.0515036 0.00278731)
(-0.328516 -0.0777984 0.00286723)
(-0.334444 -0.0980551 0.002919)
(-0.337843 -0.113256 0.00294869)
(-0.338476 -0.123994 0.00295425)
(-0.336876 -0.131119 0.00294031)
(-0.333001 -0.135177 0.00290651)
(-0.327238 -0.136807 0.00285623)
(-0.319741 -0.136487 0.00279082)
(-0.310779 -0.134662 0.00271262)
(-0.300571 -0.131686 0.00262353)
(-0.289343 -0.127853 0.00252556)
(-0.277294 -0.123396 0.0024204)
(-0.264624 -0.1185 0.00230983)
(-0.251507 -0.113309 0.00219535)
(-0.238106 -0.107936 0.00207838)
(-0.224563 -0.10247 0.00196011)
(-0.0115059 1.01049 0.000100471)
(-0.0270245 0.946673 0.000235989)
(-0.0453509 0.872878 0.00039586)
(-0.0646391 0.790219 0.000564138)
(-0.0860425 0.701099 0.00075096)
(-0.107012 0.609549 0.00093399)
(-0.130739 0.517091 0.00114105)
(-0.154862 0.42798 0.0013515)
(-0.179237 0.342867 0.00156431)
(-0.200904 0.264836 0.00175341)
(-0.22239 0.193748 0.00194095)
(-0.242067 0.131282 0.0021127)
(-0.25887 0.0768002 0.00225936)
(-0.274013 0.0306567 0.00239152)
(-0.286045 -0.00790728 0.00249654)
(-0.295916 -0.0394415 0.00258269)
(-0.302947 -0.0647059 0.00264409)
(-0.307684 -0.0845309 0.00268545)
(-0.309848 -0.0995611 0.00270436)
(-0.309933 -0.110598 0.00270513)
(-0.307821 -0.118208 0.00268672)
(-0.303882 -0.123017 0.00265235)
(-0.298206 -0.12552 0.00260284)
(-0.291037 -0.126172 0.00254028)
(-0.28256 -0.125346 0.00246631)
(-0.272985 -0.12336 0.00238276)
(-0.262494 -0.120469 0.00229121)
(-0.251283 -0.116887 0.00219337)
(-0.239519 -0.112783 0.0020907)
(-0.227365 -0.108297 0.00198463)
(-0.214968 -0.10354 0.00187636)
(-0.00936992 1.06718 8.18197e-05)
(-0.0225263 1.00448 0.000196701)
(-0.0382194 0.931946 0.000333631)
(-0.054967 0.850473 0.000479736)
(-0.0736116 0.762591 0.0006424)
(-0.09198 0.67195 0.000802717)
(-0.112336 0.580302 0.000980454)
(-0.132543 0.491059 0.00115678)
(-0.153862 0.404811 0.00134289)
(-0.174045 0.324468 0.00151903)
(-0.193834 0.250331 0.00169175)
(-0.212307 0.184234 0.00185298)
(-0.228642 0.125749 0.00199555)
(-0.243621 0.0753799 0.00212627)
(-0.256017 0.0324781 0.00223446)
(-0.266529 -0.00339668 0.00232621)
(-0.274506 -0.0329272 0.00239586)
(-0.280391 -0.0568335 0.00244723)
(-0.283845 -0.0757309 0.00247739)
(-0.285349 -0.0903465 0.00249054)
(-0.284709 -0.101255 0.00248498)
(-0.282293 -0.109058 0.00246391)
(-0.278148 -0.114252 0.00242775)
(-0.272499 -0.117292 0.00237847)
(-0.265511 -0.118565 0.00231748)
(-0.257373 -0.1184 0.00224648)
(-0.248255 -0.117073 0.00216692)
(-0.238342 -0.114815 0.00208041)
(-0.227797 -0.111819 0.00198837)
(-0.216779 -0.108245 0.00189221)
(-0.205435 -0.104225 0.00179314)
(-0.00799947 1.11609 6.98526e-05)
(-0.0188971 1.05528 0.000165011)
(-0.032614 0.984949 0.000284709)
(-0.0472295 0.905504 0.000412221)
(-0.063935 0.818498 0.000557951)
(-0.0804486 0.728335 0.000702046)
(-0.0985912 0.637303 0.000860426)
(-0.116231 0.547918 0.00101439)
(-0.135043 0.460944 0.00117866)
(-0.152876 0.378937 0.0013343)
(-0.170746 0.3025 0.00149025)
(-0.187794 0.233413 0.00163903)
(-0.203284 0.171641 0.00177422)
(-0.217809 0.117649 0.00190098)
(-0.230194 0.0709439 0.00200907)
(-0.240989 0.0311863 0.00210329)
(-0.249537 -0.00223991 0.00217792)
(-0.256195 -0.0299103 0.00223604)
(-0.260568 -0.0524107 0.00227422)
(-0.26312 -0.0703835 0.00229651)
(-0.263615 -0.0844028 0.00230086)
(-0.262413 -0.0950459 0.00229039)
(-0.259524 -0.102813 0.00226519)
(-0.25515 -0.108156 0.00222703)
(-0.249429 -0.111469 0.00217711)
(-0.242534 -0.113091 0.00211695)
(-0.234617 -0.113311 0.00204787)
(-0.225854 -0.112375 0.0019714)
(-0.2164 -0.110493 0.00188889)
(-0.20641 -0.107843 0.0018017)
(-0.196031 -0.104579 0.00171105)
(-0.00693247 1.15642 6.05299e-05)
(-0.0160666 1.09661 0.000140292)
(-0.0278988 1.02871 0.000243556)
(-0.0402965 0.951471 0.000351724)
(-0.0550838 0.866514 0.000480726)
(-0.0697714 0.777134 0.000608863)
(-0.0861341 0.686388 0.000751683)
(-0.102024 0.596673 0.000890388)
(-0.118869 0.509278 0.00103752)
(-0.134829 0.42628 0.00117681)
(-0.151195 0.348425 0.00131963)
(-0.166996 0.277338 0.00145752)
(-0.181695 0.213153 0.0015858)
(-0.195665 0.156334 0.00170772)
(-0.207833 0.106537 0.00181391)
(-0.218637 0.063513 0.0019082)
(-0.227454 0.0267463 0.00198518)
(-0.234594 -0.00423161 0.0020475)
(-0.239635 -0.0299605 0.00209151)
(-0.242999 -0.0509963 0.00212089)
(-0.244393 -0.0678876 0.00213307)
(-0.244162 -0.0811815 0.00213108)
(-0.242294 -0.0913744 0.0021148)
(-0.238974 -0.0989118 0.00208583)
(-0.234319 -0.104188 0.00204521)
(-0.228485 -0.107544 0.00199432)
(-0.22161 -0.109278 0.00193433)
(-0.213857 -0.109648 0.00186667)
(-0.205374 -0.108875 0.00179264)
(-0.19631 -0.107153 0.00171353)
(-0.186808 -0.104652 0.00163055)
(-0.00603615 1.19257 5.2711e-05)
(-0.0139428 1.13371 0.000121769)
(-0.0239693 1.06757 0.000209223)
(-0.0351743 0.992383 0.000307001)
(-0.0479831 0.909268 0.000418782)
(-0.0610356 0.821019 0.000532653)
(-0.0756228 0.730779 0.000659953)
(-0.0900284 0.640937 0.000785698)
(-0.10535 0.553209 0.000919546)
(-0.119901 0.469422 0.00104652)
(-0.134999 0.390572 0.00117827)
(-0.149678 0.317926 0.00130637)
(-0.163516 0.251795 0.00142713)
(-0.176822 0.19259 0.00154325)
(-0.188589 0.140106 0.00164594)
(-0.199211 0.0941936 0.00173865)
(-0.208073 0.0544207 0.00181602)
(-0.215458 0.0204305 0.00188048)
(-0.220902 -0.00826949 0.00192801)
(-0.224812 -0.0321544 0.00196215)
(-0.226872 -0.0517386 0.00198014)
(-0.227396 -0.0675305 0.00198473)
(-0.226351 -0.0800221 0.00197563)
(-0.2239 -0.0896522 0.00195425)
(-0.22014 -0.0968134 0.00192145)
(-0.215212 -0.101848 0.00187846)
(-0.209237 -0.105058 0.00182633)
(-0.202369 -0.106708 0.0017664)
(-0.194746 -0.107029 0.00169987)
(-0.186513 -0.106229 0.00162802)
(-0.177808 -0.104489 0.00155199)
(-0.00520259 1.22297 4.5441e-05)
(-0.0118309 1.1644 0.000103326)
(-0.0203928 1.10034 0.000178017)
(-0.0298718 1.02741 0.000260768)
(-0.0411628 0.946091 0.000359257)
(-0.0533483 0.859318 0.00046558)
(-0.0663417 0.769956 0.000578977)
(-0.0796764 0.680405 0.000695368)
(-0.0938392 0.592586 0.000819088)
(-0.107374 0.508335 0.000937189)
(-0.121469 0.428731 0.00106018)
(-0.135223 0.354877 0.0011802)
(-0.148241 0.287148 0.00129381)
(-0.160846 0.225949 0.00140381)
(-0.172082 0.171179 0.00150188)
(-0.182339 0.122779 0.00159139)
(-0.191032 0.0803948 0.00166728)
(-0.198435 0.0437553 0.0017319)
(-0.204097 0.0124063 0.00178133)
(-0.208387 -0.0140549 0.00181879)
(-0.210944 -0.036111 0.00184112)
(-0.212051 -0.0542255 0.0018508)
(-0.211654 -0.068872 0.00184735)
(-0.209903 -0.0804809 0.00183208)
(-0.20688 -0.0894398 0.00180571)
(-0.202711 -0.0960865 0.00176934)
(-0.197505 -0.100724 0.00172392)
(-0.191404 -0.10362 0.00167068)
(-0.184538 -0.105013 0.00161077)
(-0.177047 -0.105118 0.00154538)
(-0.169062 -0.104132 0.00147565)
(-0.00456926 1.24939 3.99148e-05)
(-0.0104204 1.1908 9.10144e-05)
(-0.0178956 1.12894 0.000156237)
(-0.0263717 1.05853 0.000230236)
(-0.0365039 0.979238 0.000318598)
(-0.0475094 0.894109 0.000414632)
(-0.0591892 0.805598 0.000516563)
(-0.0713949 0.716501 0.000623092)
(-0.0844233 0.628779 0.000736905)
(-0.0969165 0.544228 0.000845917)
(-0.110003 0.464002 0.000960108)
(-0.122801 0.389107 0.00107178)
(-0.134957 0.319986 0.00117787)
(-0.146822 0.257048 0.00128141)
(-0.157475 0.200267 0.00137439)
(-0.167323 0.149675 0.00146034)
(-0.17579 0.104964 0.00153426)
(-0.183145 0.0659482 0.00159846)
(-0.188911 0.0322007 0.00164879)
(-0.193437 0.00337385 0.0016883)
(-0.196362 -0.0209786 0.00171384)
(-0.197928 -0.0412764 0.00172753)
(-0.198057 -0.0579619 0.00172867)
(-0.196882 -0.0714519 0.00171843)
(-0.194474 -0.0821284 0.00169743)
(-0.190945 -0.0903232 0.00166664)
(-0.186396 -0.096338 0.00162695)
(-0.180959 -0.10044 0.00157951)
(-0.174759 -0.102876 0.00152541)
(-0.167927 -0.103866 0.00146578)
(-0.160593 -0.103619 0.00140172)
(-0.00412117 1.27299 3.60029e-05)
(-0.0094186 1.21454 8.22715e-05)
(-0.016296 1.15429 0.000142287)
(-0.023909 1.08617 0.000208742)
(-0.0332743 1.00855 0.000290397)
(-0.0434209 0.924937 0.000378931)
(-0.0541318 0.83761 0.000472413)
(-0.065043 0.74905 0.000567648)
(-0.076904 0.661582 0.000671291)
(-0.0883168 0.576914 0.00077088)
(-0.100372 0.496246 0.000876068)
(-0.112245 0.420526 0.000979666)
(-0.123538 0.350229 0.00107822)
(-0.134678 0.2858 0.00117544)
(-0.144724 0.227282 0.00126312)
(-0.154105 0.174778 0.00134499)
(-0.162267 0.128032 0.00141624)
(-0.169463 0.0869084 0.00147904)
(-0.175246 0.0510164 0.00152952)
(-0.179924 0.0200424 0.00157036)
(-0.183111 -0.00642327 0.00159819)
(-0.18502 -0.0287573 0.00161487)
(-0.185553 -0.0473641 0.00161953)
(-0.184827 -0.0626357 0.00161321)
(-0.18291 -0.074946 0.00159649)
(-0.179905 -0.0846201 0.00157028)
(-0.175906 -0.0919561 0.00153539)
(-0.171038 -0.0972208 0.00149291)
(-0.165417 -0.100663 0.00144386)
(-0.15917 -0.102512 0.00138934)
(-0.15242 -0.102983 0.00133039)
(-0.00376871 1.29457 3.29278e-05)
(-0.00826531 1.23638 7.22157e-05)
(-0.0144422 1.17808 0.0001261)
(-0.021331 1.11197 0.000186209)
(-0.0302184 1.03611 0.000263753)
(-0.0388211 0.953788 0.00033881)
(-0.0489795 0.866807 0.000427427)
(-0.0596442 0.778662 0.00052051)
(-0.0704364 0.69163 0.000614833)
(-0.0808499 0.606821 0.000705711)
(-0.0918691 0.525857 0.000801864)
(-0.102814 0.449484 0.000897364)
(-0.113269 0.378206 0.000988601)
(-0.123703 0.312496 0.00107966)
(-0.13318 0.252474 0.00116237)
(-0.142147 0.198289 0.00124062)
(-0.150044 0.14975 0.00130957)
(-0.157108 0.10674 0.00137121)
(-0.162869 0.0689138 0.0014215)
(-0.167618 0.0359758 0.00146295)
(-0.170982 0.0075563 0.00149232)
(-0.173146 -0.0166842 0.00151122)
(-0.173997 -0.0371073 0.00151866)
(-0.173633 -0.0540715 0.0015155)
(-0.172116 -0.0679373 0.00150227)
(-0.169545 -0.0790237 0.00147985)
(-0.166008 -0.0876239 0.00144899)
(-0.161625 -0.0940033 0.00141076)
(-0.156509 -0.0984133 0.00136611)
(-0.15078 -0.101088 0.00131611)
(-0.144557 -0.102252 0.00126175)
(-0.00332947 1.31329 2.90909e-05)
(-0.00724193 1.2548 6.32745e-05)
(-0.0124497 1.19808 0.000108714)
(-0.018068 1.13435 0.000157722)
(-0.0260317 1.06102 0.000227222)
(-0.0342427 0.980229 0.000298858)
(-0.0440828 0.893822 0.000384713)