/*--------------------------------*- C++ -*----------------------------------*\
| =========                 |                                                 |
| \\      /  F ield         | OpenFOAM: The Open Source CFD Toolbox           |
|  \\    /   O peration     | Version:  v2012                                 |
|   \\  /    A nd           | Website:  www.openfoam.com                      |
|    \\/     M anipulation  |                                                 |
\*---------------------------------------------------------------------------*/
FoamFile
{
    version     2.0;
    format      ascii;
    class       volScalarField;
    location    "0.5";
    object      p;
}
// * * * * * * * * * * * * * * * * * * * * * * * * * * * * * * * * * * * * * //

dimensions      [1 -1 -2 0 0 0 0];


internalField   nonuniform List<scalar> 
2650
(
4.00288e+06
4.00255e+06
4.00209e+06
4.00187e+06
4.0022e+06
4.00333e+06
4.00253e+06
4.00285e+06
4.00153e+06
4.00166e+06
4.00421e+06
4.00297e+06
4.00315e+06
4.00244e+06
4.00156e+06
4.00724e+06
4.0024e+06
4.00226e+06
4.00396e+06
4.00206e+06
4.00331e+06
4.00152e+06
4.00176e+06
4.00385e+06
4.00233e+06
4.00279e+06
4.00156e+06
4.00202e+06
4.00532e+06
4.00182e+06
4.00227e+06
4.00209e+06
4.00225e+06
4.02731e+06
4.00272e+06
4.00201e+06
4.00298e+06
4.00237e+06
4.06081e+06
4.00731e+06
4.00082e+06
4.00552e+06
4.01781e+06
4.2355e+06
4.20626e+06
4.00036e+06
4.02602e+06
4.11402e+06
4.42086e+06
4.37927e+06
4.00427e+06
4.25852e+06
4.70716e+06
4.7266e+06
4.65545e+06
5.56888e+06
4.97542e+06
5.29966e+06
5.03535e+06
4.9681e+06
6.26962e+06
5.29346e+06
5.42816e+06
5.17233e+06
5.07846e+06
6.00103e+06
5.6427e+06
5.48088e+06
5.44814e+06
5.38291e+06
5.90793e+06
5.5873e+06
5.42663e+06
5.43663e+06
5.52886e+06
5.94814e+06
5.6253e+06
5.42925e+06
5.40143e+06
5.3212e+06
4.82852e+06
4.86054e+06
4.7854e+06
4.63627e+06
4.00994e+06
5.9364e+06
5.95686e+06
5.98603e+06
5.94679e+06
5.76361e+06
5.99512e+06
6.04773e+06
6.08547e+06
6.09402e+06
6.10065e+06
6.10228e+06
6.10342e+06
6.10362e+06
6.10364e+06
6.10348e+06
6.10328e+06
6.10303e+06
6.1028e+06
6.10256e+06
6.10234e+06
6.10213e+06
6.10193e+06
6.10175e+06
6.10159e+06
6.10143e+06
6.10129e+06
6.10116e+06
6.10104e+06
6.10092e+06
6.10082e+06
6.10073e+06
5.93612e+06
5.93883e+06
5.9429e+06
5.96581e+06
5.994e+06
6.08492e+06
6.08221e+06
6.09886e+06
6.09965e+06
6.10291e+06
6.10328e+06
6.10382e+06
6.10378e+06
6.10369e+06
6.10348e+06
6.10326e+06
6.10301e+06
6.10277e+06
6.10253e+06
6.10231e+06
6.10211e+06
6.10191e+06
6.10173e+06
6.10157e+06
6.10142e+06
6.10128e+06
6.10115e+06
6.10103e+06
6.10092e+06
6.10081e+06
6.10072e+06
6.07611e+06
6.08101e+06
6.08076e+06
6.08099e+06
6.07382e+06
6.08992e+06
6.0922e+06
6.09895e+06
6.10065e+06
6.10273e+06
6.10326e+06
6.10367e+06
6.10367e+06
6.10357e+06
6.10339e+06
6.10317e+06
6.10293e+06
6.10271e+06
6.10248e+06
6.10227e+06
6.10207e+06
6.10188e+06
6.10171e+06
6.10155e+06
6.1014e+06
6.10126e+06
6.10113e+06
6.10101e+06
6.1009e+06
6.1008e+06
6.10071e+06
6.06731e+06
6.07357e+06
6.07872e+06
6.08417e+06
6.08959e+06
6.09761e+06
6.09885e+06
6.10208e+06
6.10254e+06
6.1035e+06
6.10361e+06
6.10374e+06
6.10364e+06
6.10349e+06
6.1033e+06
6.10308e+06
6.10285e+06
6.10263e+06
6.10242e+06
6.10221e+06
6.10202e+06
6.10184e+06
6.10167e+06
6.10152e+06
6.10137e+06
6.10124e+06
6.10111e+06
6.101e+06
6.10089e+06
6.10079e+06
6.1007e+06
6.08548e+06
6.09164e+06
6.09675e+06
6.09891e+06
6.09979e+06
6.10142e+06
6.10191e+06
6.1029e+06
6.10314e+06
6.10354e+06
6.10357e+06
6.10358e+06
6.10347e+06
6.10332e+06
6.10314e+06
6.10294e+06
6.10273e+06
6.10253e+06
6.10233e+06
6.10214e+06
6.10196e+06
6.10179e+06
6.10163e+06
6.10148e+06
6.10134e+06
6.10121e+06
6.10109e+06
6.10097e+06
6.10087e+06
6.10077e+06
6.10068e+06
6.09409e+06
6.09495e+06
6.09648e+06
6.09891e+06
6.1002e+06
6.10173e+06
6.10231e+06
6.10304e+06
6.10319e+06
6.10344e+06
6.10343e+06
6.1034e+06
6.10329e+06
6.10314e+06
6.10298e+06
6.10279e+06
6.1026e+06
6.10242e+06
6.10223e+06
6.10206e+06
6.10189e+06
6.10173e+06
6.10157e+06
6.10143e+06
6.1013e+06
6.10117e+06
6.10106e+06
6.10095e+06
6.10085e+06
6.10075e+06
6.10067e+06
6.10088e+06
6.10106e+06
6.10161e+06
6.10238e+06
6.10252e+06
6.10303e+06
6.10316e+06
6.10339e+06
6.10333e+06
6.10339e+06
6.10329e+06
6.10321e+06
6.10309e+06
6.10294e+06
6.10279e+06
6.10263e+06
6.10246e+06
6.10229e+06
6.10213e+06
6.10196e+06
6.10181e+06
6.10166e+06
6.10152e+06
6.10138e+06
6.10125e+06
6.10114e+06
6.10102e+06
6.10092e+06
6.10082e+06
6.10073e+06
6.10065e+06
6.10085e+06
6.10149e+06
6.10148e+06
6.10222e+06
6.10215e+06
6.10262e+06
6.10281e+06
6.10304e+06
6.103e+06
6.10309e+06
6.10302e+06
6.10296e+06
6.10287e+06
6.10274e+06
6.10261e+06
6.10247e+06
6.10231e+06
6.10216e+06
6.10201e+06
6.10186e+06
6.10172e+06
6.10158e+06
6.10145e+06
6.10133e+06
6.10121e+06
6.10109e+06
6.10099e+06
6.10089e+06
6.1008e+06
6.10071e+06
6.10063e+06
6.10147e+06
6.10227e+06
6.10244e+06
6.10292e+06
6.10271e+06
6.10296e+06
6.10293e+06
6.10302e+06
6.10293e+06
6.10293e+06
6.10283e+06
6.10275e+06
6.10265e+06
6.10253e+06
6.10242e+06
6.10229e+06
6.10216e+06
6.10202e+06
6.10189e+06
6.10176e+06
6.10163e+06
6.1015e+06
6.10138e+06
6.10126e+06
6.10115e+06
6.10105e+06
6.10095e+06
6.10085e+06
6.10076e+06
6.10068e+06
6.1006e+06
6.10191e+06
6.10209e+06
6.1023e+06
6.1026e+06
6.10273e+06
6.10276e+06
6.10272e+06
6.1027e+06
6.10264e+06
6.10265e+06
6.10258e+06
6.10252e+06
6.10244e+06
6.10234e+06
6.10224e+06
6.10213e+06
6.10201e+06
6.10189e+06
6.10177e+06
6.10165e+06
6.10153e+06
6.10142e+06
6.10131e+06
6.1012e+06
6.1011e+06
6.101e+06
6.10091e+06
6.10082e+06
6.10073e+06
6.10065e+06
6.10058e+06
6.10231e+06
6.10251e+06
6.10241e+06
6.10271e+06
6.1027e+06
6.10281e+06
6.10281e+06
6.1027e+06
6.10256e+06
6.10243e+06
6.10241e+06
6.10232e+06
6.10224e+06
6.10215e+06
6.10206e+06
6.10196e+06
6.10186e+06
6.10176e+06
6.10165e+06
6.10155e+06
6.10144e+06
6.10134e+06
6.10123e+06
6.10114e+06
6.10104e+06
6.10095e+06
6.10086e+06
6.10078e+06
6.1007e+06
6.10062e+06
6.10055e+06
6.1022e+06
6.10244e+06
6.10233e+06
6.10255e+06
6.10255e+06
6.10256e+06
6.10263e+06
6.10249e+06
6.10232e+06
6.10219e+06
6.10218e+06
6.1021e+06
6.10204e+06
6.10197e+06
6.10189e+06
6.1018e+06
6.10171e+06
6.10162e+06
6.10153e+06
6.10144e+06
6.10134e+06
6.10125e+06
6.10116e+06
6.10107e+06
6.10098e+06
6.1009e+06
6.10081e+06
6.10074e+06
6.10066e+06
6.10059e+06
6.10052e+06
6.10222e+06
6.10241e+06
6.1023e+06
6.10247e+06
6.10246e+06
6.10245e+06
6.10248e+06
6.10232e+06
6.10218e+06
6.10202e+06
6.10201e+06
6.10194e+06
6.10187e+06
6.10181e+06
6.10173e+06
6.10166e+06
6.10158e+06
6.1015e+06
6.10142e+06
6.10133e+06
6.10125e+06
6.10117e+06
6.10108e+06
6.101e+06
6.10092e+06
6.10084e+06
6.10077e+06
6.10069e+06
6.10062e+06
6.10055e+06
6.10049e+06
6.10343e+06
6.10302e+06
6.10216e+06
6.10239e+06
6.10224e+06
6.10226e+06
6.10228e+06
6.10212e+06
6.10197e+06
6.10181e+06
6.10182e+06
6.10175e+06
6.1017e+06
6.10164e+06
6.10158e+06
6.10152e+06
6.10145e+06
6.10138e+06
6.10131e+06
6.10123e+06
6.10116e+06
6.10108e+06
6.10101e+06
6.10093e+06
6.10086e+06
6.10079e+06
6.10072e+06
6.10065e+06
6.10058e+06
6.10052e+06
6.10046e+06
6.10281e+06
6.10301e+06
6.10268e+06
6.10289e+06
6.1021e+06
6.10211e+06
6.10211e+06
6.10198e+06
6.10182e+06
6.10167e+06
6.10167e+06
6.1016e+06
6.10155e+06
6.1015e+06
6.10144e+06
6.10139e+06
6.10132e+06
6.10126e+06
6.1012e+06
6.10113e+06
6.10107e+06
6.101e+06
6.10093e+06
6.10087e+06
6.1008e+06
6.10073e+06
6.10067e+06
6.1006e+06
6.10054e+06
6.10048e+06
6.10043e+06
6.10272e+06
6.1029e+06
6.10258e+06
6.10271e+06
6.10185e+06
6.10185e+06
6.10189e+06
6.10178e+06
6.10163e+06
6.10148e+06
6.1015e+06
6.10145e+06
6.1014e+06
6.10136e+06
6.10131e+06
6.10126e+06
6.10121e+06
6.10115e+06
6.1011e+06
6.10104e+06
6.10098e+06
6.10092e+06
6.10086e+06
6.1008e+06
6.10074e+06
6.10068e+06
6.10062e+06
6.10056e+06
6.1005e+06
6.10045e+06
6.10039e+06
6.10264e+06
6.10282e+06
6.10241e+06
6.10254e+06
6.10177e+06
6.10176e+06
6.10174e+06
6.10161e+06
6.10147e+06
6.10134e+06
6.10135e+06
6.1013e+06
6.10126e+06
6.10122e+06
6.10118e+06
6.10114e+06
6.1011e+06
6.10105e+06
6.101e+06
6.10095e+06
6.1009e+06
6.10084e+06
6.10079e+06
6.10073e+06
6.10068e+06
6.10062e+06
6.10057e+06
6.10051e+06
6.10046e+06
6.10041e+06
6.10036e+06
6.1025e+06
6.10227e+06
6.10209e+06
6.10225e+06
6.10221e+06
6.10215e+06
6.10167e+06
6.10148e+06
6.10131e+06
6.10119e+06
6.10121e+06
6.10117e+06
6.10114e+06
6.10111e+06
6.10107e+06
6.10103e+06
6.10099e+06
6.10095e+06
6.10091e+06
6.10086e+06
6.10082e+06
6.10077e+06
6.10072e+06
6.10067e+06
6.10062e+06
6.10057e+06
6.10052e+06
6.10047e+06
6.10042e+06
6.10037e+06
6.10033e+06
6.10243e+06
6.1021e+06
6.10194e+06
6.10202e+06
6.10205e+06
6.10208e+06
6.10208e+06
6.10183e+06
6.10125e+06
6.10107e+06
6.10108e+06
6.10105e+06
6.10102e+06
6.10099e+06
6.10096e+06
6.10093e+06
6.10089e+06
6.10086e+06
6.10082e+06
6.10078e+06
6.10074e+06
6.10069e+06
6.10065e+06
6.10061e+06
6.10056e+06
6.10052e+06
6.10047e+06
6.10042e+06
6.10038e+06
6.10033e+06
6.10029e+06
6.10237e+06
6.10188e+06
6.10179e+06
6.10179e+06
6.10185e+06
6.1019e+06
6.10199e+06
6.10176e+06
6.10113e+06
6.10094e+06
6.10096e+06
6.10093e+06
6.10091e+06
6.10088e+06
6.10086e+06
6.10083e+06
6.1008e+06
6.10077e+06
6.10073e+06
6.1007e+06
6.10066e+06
6.10062e+06
6.10058e+06
6.10054e+06
6.1005e+06
6.10046e+06
6.10042e+06
6.10038e+06
6.10034e+06
6.1003e+06
6.10026e+06
6.10189e+06
6.10166e+06
6.10173e+06
6.10174e+06
6.10174e+06
6.10177e+06
6.10185e+06
6.10163e+06
6.10102e+06
6.10083e+06
6.10085e+06
6.10083e+06
6.10081e+06
6.10079e+06
6.10076e+06
6.10074e+06
6.10071e+06
6.10068e+06
6.10065e+06
6.10062e+06
6.10059e+06
6.10056e+06
6.10052e+06
6.10048e+06
6.10045e+06
6.10041e+06
6.10037e+06
6.10034e+06
6.1003e+06
6.10026e+06
6.10022e+06
6.09911e+06
6.10007e+06
6.10135e+06
6.10157e+06
6.10158e+06
6.10164e+06
6.10172e+06
6.1015e+06
6.1009e+06
6.10073e+06
6.10075e+06
6.10073e+06
6.10072e+06
6.10069e+06
6.10068e+06
6.10065e+06
6.10063e+06
6.1006e+06
6.10058e+06
6.10055e+06
6.10052e+06
6.10049e+06
6.10046e+06
6.10043e+06
6.10039e+06
6.10036e+06
6.10033e+06
6.10029e+06
6.10026e+06
6.10022e+06
6.10019e+06
6.0995e+06
6.09985e+06
6.09974e+06
6.10024e+06
6.10134e+06
6.10162e+06
6.10162e+06
6.10141e+06
6.10081e+06
6.10063e+06
6.10066e+06
6.10064e+06
6.10063e+06
6.10061e+06
6.10059e+06
6.10057e+06
6.10055e+06
6.10053e+06
6.1005e+06
6.10048e+06
6.10045e+06
6.10043e+06
6.1004e+06
6.10037e+06
6.10034e+06
6.10031e+06
6.10028e+06
6.10025e+06
6.10022e+06
6.10018e+06
6.10015e+06
6.09922e+06
6.09965e+06
6.09953e+06
6.10012e+06
6.10133e+06
6.10161e+06
6.10154e+06
6.10133e+06
6.10072e+06
6.10054e+06
6.10057e+06
6.10055e+06
6.10055e+06
6.10052e+06
6.10051e+06
6.10049e+06
6.10047e+06
6.10045e+06
6.10043e+06
6.10041e+06
6.10039e+06
6.10037e+06
6.10034e+06
6.10032e+06
6.10029e+06
6.10026e+06
6.10023e+06
6.1002e+06
6.10018e+06
6.10015e+06
6.10012e+06
6.09891e+06
6.09949e+06
6.09951e+06
6.10011e+06
6.10119e+06
6.10147e+06
6.10149e+06
6.1013e+06
6.10064e+06
6.10047e+06
6.10049e+06
6.10047e+06
6.10046e+06
6.10044e+06
6.10043e+06
6.10042e+06
6.1004e+06
6.10039e+06
6.10037e+06
6.10035e+06
6.10033e+06
6.10031e+06
6.10029e+06
6.10026e+06
6.10024e+06
6.10021e+06
6.10019e+06
6.10016e+06
6.10014e+06
6.10011e+06
6.10008e+06
6.09951e+06
6.09977e+06
6.09995e+06
6.10006e+06
6.10001e+06
6.10034e+06
6.10118e+06
6.10116e+06
6.10052e+06
6.10038e+06
6.1004e+06
6.10038e+06
6.10039e+06
6.10037e+06
6.10036e+06
6.10035e+06
6.10033e+06
6.10032e+06
6.1003e+06
6.10029e+06
6.10027e+06
6.10025e+06
6.10023e+06
6.10021e+06
6.10019e+06
6.10017e+06
6.10014e+06
6.10012e+06
6.1001e+06
6.10007e+06
6.10005e+06
6.09949e+06
6.09979e+06
6.09998e+06
6.10005e+06
6.10004e+06
6.10013e+06
6.10023e+06
6.1003e+06
6.10032e+06
6.10034e+06
6.10033e+06
6.10032e+06
6.10032e+06
6.1003e+06
6.10029e+06
6.10028e+06
6.10027e+06
6.10026e+06
6.10024e+06
6.10023e+06
6.10021e+06
6.1002e+06
6.10018e+06
6.10016e+06
6.10014e+06
6.10012e+06
6.1001e+06
6.10008e+06
6.10006e+06
6.10004e+06
6.10002e+06
6.09952e+06
6.09982e+06
6.09998e+06
6.10004e+06
6.10008e+06
6.10011e+06
6.10004e+06
6.10011e+06
6.10022e+06
6.10027e+06
6.10025e+06
6.10024e+06
6.10025e+06
6.10023e+06
6.10023e+06
6.10022e+06
6.10021e+06
6.1002e+06
6.10018e+06
6.10017e+06
6.10016e+06
6.10014e+06
6.10013e+06
6.10011e+06
6.10009e+06
6.10008e+06
6.10006e+06
6.10004e+06
6.10002e+06
6.1e+06
6.09998e+06
6.09922e+06
6.09975e+06
6.10011e+06
6.10018e+06
6.10012e+06
6.10013e+06
6.10007e+06
6.10013e+06
6.10019e+06
6.10022e+06
6.10019e+06
6.10019e+06
6.10019e+06
6.10017e+06
6.10017e+06
6.10016e+06
6.10015e+06
6.10014e+06
6.10013e+06
6.10012e+06
6.1001e+06
6.10009e+06
6.10008e+06
6.10006e+06
6.10005e+06
6.10003e+06
6.10002e+06
6.1e+06
6.09998e+06
6.09997e+06
6.09995e+06
6.09565e+06
6.09768e+06
6.09973e+06
6.10008e+06
6.10004e+06
6.10007e+06
6.10001e+06
6.10007e+06
6.10013e+06
6.10017e+06
6.10014e+06
6.10013e+06
6.10013e+06
6.10011e+06
6.10011e+06
6.1001e+06
6.10009e+06
6.10008e+06
6.10007e+06
6.10006e+06
6.10005e+06
6.10004e+06
6.10003e+06
6.10002e+06
6.1e+06
6.09999e+06
6.09998e+06
6.09996e+06
6.09995e+06
6.09993e+06
6.09992e+06
6.0972e+06
6.09773e+06
6.09765e+06
6.09829e+06
6.09982e+06
6.10014e+06
6.09996e+06
6.10002e+06
6.10008e+06
6.10012e+06
6.10008e+06
6.10007e+06
6.10007e+06
6.10006e+06
6.10005e+06
6.10004e+06
6.10004e+06
6.10003e+06
6.10002e+06
6.10001e+06
6.1e+06
6.09999e+06
6.09998e+06
6.09997e+06
6.09996e+06
6.09995e+06
6.09994e+06
6.09992e+06
6.09991e+06
6.0999e+06
6.09988e+06
6.09714e+06
6.09774e+06
6.09753e+06
6.09823e+06
6.09992e+06
6.10022e+06
6.09994e+06
6.09998e+06
6.10003e+06
6.10007e+06
6.10003e+06
6.10002e+06
6.10001e+06
6.1e+06
6.1e+06
6.09999e+06
6.09998e+06
6.09998e+06
6.09997e+06
6.09996e+06
6.09995e+06
6.09995e+06
6.09994e+06
6.09993e+06
6.09992e+06
6.09991e+06
6.0999e+06
6.09989e+06
6.09987e+06
6.09986e+06
6.09985e+06
6.09705e+06
6.09772e+06
6.09765e+06
6.09831e+06
6.09978e+06
6.10008e+06
6.09994e+06
6.1e+06
6.09998e+06
6.10002e+06
6.09997e+06
6.09996e+06
6.09995e+06
6.09994e+06
6.09994e+06
6.09993e+06
6.09993e+06
6.09993e+06
6.09992e+06
6.09991e+06
6.09991e+06
6.0999e+06
6.09989e+06
6.09988e+06
6.09988e+06
6.09987e+06
6.09986e+06
6.09985e+06
6.09984e+06
6.09983e+06
6.09982e+06
6.09764e+06
6.0982e+06
6.09835e+06
6.09834e+06
6.09812e+06
6.0985e+06
6.09953e+06
6.09985e+06
6.09987e+06
6.09995e+06
6.0999e+06
6.0999e+06
6.0999e+06
6.09989e+06
6.09989e+06
6.09988e+06
6.09988e+06
6.09988e+06
6.09987e+06
6.09987e+06
6.09986e+06
6.09986e+06
6.09985e+06
6.09984e+06
6.09984e+06
6.09983e+06
6.09982e+06
6.09981e+06
6.0998e+06
6.0998e+06
6.09979e+06
6.09773e+06
6.09829e+06
6.09839e+06
6.09835e+06
6.09818e+06
6.0982e+06
6.09816e+06
6.09863e+06
6.09962e+06
6.09993e+06
6.09985e+06
6.09984e+06
6.09984e+06
6.09984e+06
6.09983e+06
6.09983e+06
6.09983e+06
6.09983e+06
6.09982e+06
6.09982e+06
6.09982e+06
6.09981e+06
6.09981e+06
6.0998e+06
6.0998e+06
6.09979e+06
6.09978e+06
6.09978e+06
6.09977e+06
6.09976e+06
6.09975e+06
6.0978e+06
6.09839e+06
6.09846e+06
6.0984e+06
6.09827e+06
6.0982e+06
6.09792e+06
6.09838e+06
6.09951e+06
6.09987e+06
6.09978e+06
6.09979e+06
6.09979e+06
6.09979e+06
6.09979e+06
6.09979e+06
6.09978e+06
6.09978e+06
6.09978e+06
6.09978e+06
6.09977e+06
6.09977e+06
6.09976e+06
6.09976e+06
6.09976e+06
6.09975e+06
6.09975e+06
6.09974e+06
6.09973e+06
6.09973e+06
6.09972e+06
6.09749e+06
6.09818e+06
6.09835e+06
6.09833e+06
6.09824e+06
6.09818e+06
6.09795e+06
6.0984e+06
6.09947e+06
6.09982e+06
6.09973e+06
6.09973e+06
6.09973e+06
6.09973e+06
6.09974e+06
6.09974e+06
6.09974e+06
6.09974e+06
6.09973e+06
6.09973e+06
6.09973e+06
6.09973e+06
6.09972e+06
6.09972e+06
6.09972e+06
6.09971e+06
6.09971e+06
6.0997e+06
6.0997e+06
6.0997e+06
6.09969e+06
6.09621e+06
6.09761e+06
6.09815e+06
6.09826e+06
6.09822e+06
6.09816e+06
6.09792e+06
6.09836e+06
6.09944e+06
6.09978e+06
6.09968e+06
6.09969e+06
6.09969e+06
6.09969e+06
6.09969e+06
6.09969e+06
6.09969e+06
6.09969e+06
6.09969e+06
6.09969e+06
6.09969e+06
6.09969e+06
6.09968e+06
6.09968e+06
6.09968e+06
6.09968e+06
6.09967e+06
6.09967e+06
6.09967e+06
6.09966e+06
6.09966e+06
6.09591e+06
6.09707e+06
6.09741e+06
6.09748e+06
6.09749e+06
6.09754e+06
6.09745e+06
6.09799e+06
6.09925e+06
6.09964e+06
6.09959e+06
6.09962e+06
6.09963e+06
6.09964e+06
6.09964e+06
6.09964e+06
6.09964e+06
6.09964e+06
6.09964e+06
6.09964e+06
6.09964e+06
6.09964e+06
6.09964e+06
6.09964e+06
6.09964e+06
6.09964e+06
6.09964e+06
6.09963e+06
6.09963e+06
6.09963e+06
6.09963e+06
6.09871e+06
6.09861e+06
6.09824e+06
6.09807e+06
6.09807e+06
6.09813e+06
6.09808e+06
6.09849e+06
6.09944e+06
6.0997e+06
6.09962e+06
6.09962e+06
6.09962e+06
6.09962e+06
6.09962e+06
6.09962e+06
6.09961e+06
6.09961e+06
6.09961e+06
6.09961e+06
6.09961e+06
6.09961e+06
6.09961e+06
6.09961e+06
6.0996e+06
6.0996e+06
6.0996e+06
6.0996e+06
6.0996e+06
6.0996e+06
6.0996e+06
4.00289e+06
4.00255e+06
4.00209e+06
4.00187e+06
4.0022e+06
4.00335e+06
4.00254e+06
4.00285e+06
4.00153e+06
4.00166e+06
4.00421e+06
4.00297e+06
4.00315e+06
4.00244e+06
4.00156e+06
4.00726e+06
4.00241e+06
4.00226e+06
4.00396e+06
4.00206e+06
4.00334e+06
4.00154e+06
4.00176e+06
4.00385e+06
4.00233e+06
4.0028e+06
4.00157e+06
4.00203e+06
4.00532e+06
4.00182e+06
4.00227e+06
4.00209e+06
4.00225e+06
4.02731e+06
4.00272e+06
4.00201e+06
4.00298e+06
4.00237e+06
4.06081e+06
4.00731e+06
4.00082e+06
4.00552e+06
4.01781e+06
4.2355e+06
4.20626e+06
4.00035e+06
4.02602e+06
4.11402e+06
4.42086e+06
4.37927e+06
4.00425e+06
4.2585e+06
4.70716e+06
4.7266e+06
4.65545e+06
5.56888e+06
4.97542e+06
5.29966e+06
5.03535e+06
4.9681e+06
6.26962e+06
5.29345e+06
5.42816e+06
5.17233e+06
5.07846e+06
6.00103e+06
5.64269e+06
5.48088e+06
5.44814e+06
5.38291e+06
5.90793e+06
5.58729e+06
5.42663e+06
5.43663e+06
5.52886e+06
5.94814e+06
5.6253e+06
5.42925e+06
5.40143e+06
5.3212e+06
4.82852e+06
4.86054e+06
4.7854e+06
4.63627e+06
4.00994e+06
5.9364e+06
5.95686e+06
5.98603e+06
5.94679e+06
5.76361e+06
5.99512e+06
6.04773e+06
6.08547e+06
6.09402e+06
6.10065e+06
6.10228e+06
6.10342e+06
6.10362e+06
6.10364e+06
6.10348e+06
6.10328e+06
6.10303e+06
6.1028e+06
6.10256e+06
6.10234e+06
6.10213e+06
6.10193e+06
6.10175e+06
6.10159e+06
6.10143e+06
6.10129e+06
6.10116e+06
6.10104e+06
6.10092e+06
6.10082e+06
6.10073e+06
5.93612e+06
5.93883e+06
5.9429e+06
5.96581e+06
5.994e+06
6.08492e+06
6.08221e+06
6.09886e+06
6.09965e+06
6.10291e+06
6.10328e+06
6.10382e+06
6.10378e+06
6.10369e+06
6.10348e+06
6.10326e+06
6.10301e+06
6.10277e+06
6.10253e+06
6.10231e+06
6.10211e+06
6.10191e+06
6.10173e+06
6.10157e+06
6.10142e+06
6.10128e+06
6.10115e+06
6.10103e+06
6.10092e+06
6.10081e+06
6.10072e+06
6.07611e+06
6.08101e+06
6.08076e+06
6.08099e+06
6.07382e+06
6.08992e+06
6.0922e+06
6.09895e+06
6.10065e+06
6.10273e+06
6.10326e+06
6.10367e+06
6.10367e+06
6.10357e+06
6.10339e+06
6.10317e+06
6.10293e+06
6.10271e+06
6.10248e+06
6.10227e+06
6.10207e+06
6.10188e+06
6.10171e+06
6.10155e+06
6.1014e+06
6.10126e+06
6.10113e+06
6.10101e+06
6.1009e+06
6.1008e+06
6.10071e+06
6.06731e+06
6.07357e+06
6.07872e+06
6.08417e+06
6.08959e+06
6.09761e+06
6.09885e+06
6.10208e+06
6.10254e+06
6.1035e+06
6.10361e+06
6.10374e+06
6.10364e+06
6.10349e+06
6.1033e+06
6.10308e+06
6.10285e+06
6.10263e+06
6.10242e+06
6.10221e+06
6.10202e+06
6.10184e+06
6.10167e+06
6.10152e+06
6.10137e+06
6.10124e+06
6.10111e+06
6.101e+06
6.10089e+06
6.10079e+06
6.1007e+06
6.08548e+06
6.09164e+06
6.09675e+06
6.09891e+06
6.09979e+06
6.10142e+06
6.10191e+06
6.1029e+06
6.10314e+06
6.10354e+06
6.10357e+06
6.10358e+06
6.10347e+06
6.10332e+06
6.10314e+06
6.10294e+06
6.10273e+06
6.10253e+06
6.10233e+06
6.10214e+06
6.10196e+06
6.10179e+06
6.10163e+06
6.10148e+06
6.10134e+06
6.10121e+06
6.10109e+06
6.10097e+06
6.10087e+06
6.10077e+06
6.10068e+06
6.09409e+06
6.09495e+06
6.09648e+06
6.09891e+06
6.1002e+06
6.10173e+06
6.10231e+06
6.10304e+06
6.10319e+06
6.10344e+06
6.10343e+06
6.1034e+06
6.10329e+06
6.10314e+06
6.10298e+06
6.10279e+06
6.1026e+06
6.10242e+06
6.10223e+06
6.10206e+06
6.10189e+06
6.10173e+06
6.10157e+06
6.10143e+06
6.1013e+06
6.10117e+06
6.10106e+06
6.10095e+06
6.10085e+06
6.10075e+06
6.10067e+06
6.10088e+06
6.10106e+06
6.10161e+06
6.10238e+06
6.10252e+06
6.10303e+06
6.10316e+06
6.10339e+06
6.10333e+06
6.10339e+06
6.10329e+06
6.10321e+06
6.10309e+06
6.10294e+06
6.10279e+06
6.10263e+06
6.10246e+06
6.10229e+06
6.10213e+06
6.10196e+06
6.10181e+06
6.10166e+06
6.10152e+06
6.10138e+06
6.10125e+06
6.10114e+06
6.10102e+06
6.10092e+06
6.10082e+06
6.10073e+06
6.10065e+06
6.10085e+06
6.10149e+06
6.10148e+06
6.10222e+06
6.10215e+06
6.10262e+06
6.10281e+06
6.10304e+06
6.10301e+06
6.10309e+06
6.10302e+06
6.10296e+06
6.10287e+06
6.10274e+06
6.10261e+06
6.10247e+06
6.10231e+06
6.10216e+06
6.10201e+06
6.10186e+06
6.10172e+06
6.10158e+06
6.10145e+06
6.10133e+06
6.10121e+06
6.10109e+06
6.10099e+06
6.10089e+06
6.1008e+06
6.10071e+06
6.10063e+06
6.10147e+06
6.10227e+06
6.10244e+06
6.10292e+06
6.10271e+06
6.10296e+06
6.10293e+06
6.10302e+06
6.10293e+06
6.10293e+06
6.10283e+06
6.10275e+06
6.10265e+06
6.10253e+06
6.10242e+06
6.10229e+06
6.10216e+06
6.10202e+06
6.10189e+06
6.10176e+06
6.10163e+06
6.1015e+06
6.10138e+06
6.10126e+06
6.10115e+06
6.10105e+06
6.10095e+06
6.10085e+06
6.10076e+06
6.10068e+06
6.1006e+06
6.10191e+06
6.10209e+06
6.1023e+06
6.1026e+06
6.10273e+06
6.10276e+06
6.10272e+06
6.1027e+06
6.10264e+06
6.10265e+06
6.10258e+06
6.10252e+06
6.10244e+06
6.10234e+06
6.10224e+06
6.10212e+06
6.10201e+06
6.10189e+06
6.10177e+06
6.10165e+06
6.10153e+06
6.10142e+06
6.10131e+06
6.1012e+06
6.1011e+06
6.101e+06
6.10091e+06
6.10082e+06
6.10073e+06
6.10065e+06
6.10058e+06
6.10231e+06
6.10251e+06
6.10241e+06
6.10271e+06
6.1027e+06
6.10281e+06
6.10281e+06
6.1027e+06
6.10256e+06
6.10243e+06
6.10241e+06
6.10232e+06
6.10224e+06
6.10215e+06
6.10206e+06
6.10196e+06
6.10186e+06
6.10176e+06
6.10165e+06
6.10155e+06
6.10144e+06
6.10134e+06
6.10123e+06
6.10114e+06
6.10104e+06
6.10095e+06
6.10086e+06
6.10078e+06
6.1007e+06
6.10062e+06
6.10055e+06
6.1022e+06
6.10244e+06
6.10233e+06
6.10255e+06
6.10255e+06
6.10256e+06
6.10263e+06
6.10249e+06
6.10232e+06
6.10219e+06
6.10218e+06
6.1021e+06
6.10204e+06
6.10197e+06
6.10189e+06
6.1018e+06
6.10171e+06
6.10162e+06
6.10153e+06
6.10144e+06
6.10134e+06
6.10125e+06
6.10116e+06
6.10107e+06
6.10098e+06
6.1009e+06
6.10081e+06
6.10074e+06
6.10066e+06
6.10059e+06
6.10052e+06
6.10222e+06
6.10241e+06
6.1023e+06
6.10247e+06
6.10246e+06
6.10245e+06
6.10248e+06
6.10232e+06
6.10218e+06
6.10202e+06
6.10201e+06
6.10194e+06
6.10187e+06
6.10181e+06
6.10173e+06
6.10166e+06
6.10158e+06
6.1015e+06
6.10142e+06
6.10133e+06
6.10125e+06
6.10117e+06
6.10108e+06
6.101e+06
6.10092e+06
6.10084e+06
6.10077e+06
6.10069e+06
6.10062e+06
6.10055e+06
6.10049e+06
6.10343e+06
6.10302e+06
6.10216e+06
6.10239e+06
6.10224e+06
6.10226e+06
6.10228e+06
6.10212e+06
6.10197e+06
6.10181e+06
6.10182e+06
6.10175e+06
6.1017e+06
6.10164e+06
6.10158e+06
6.10152e+06
6.10145e+06
6.10138e+06
6.10131e+06
6.10123e+06
6.10116e+06
6.10108e+06
6.10101e+06
6.10093e+06
6.10086e+06
6.10079e+06
6.10072e+06
6.10065e+06
6.10058e+06
6.10052e+06
6.10046e+06
6.10281e+06
6.10301e+06
6.10268e+06
6.10289e+06
6.1021e+06
6.10211e+06
6.10211e+06
6.10198e+06
6.10182e+06
6.10167e+06
6.10167e+06
6.1016e+06
6.10155e+06
6.1015e+06
6.10144e+06
6.10139e+06
6.10132e+06
6.10126e+06
6.1012e+06
6.10113e+06
6.10107e+06
6.101e+06
6.10093e+06
6.10087e+06
6.1008e+06
6.10073e+06
6.10067e+06
6.1006e+06
6.10054e+06
6.10048e+06
6.10043e+06
6.10272e+06
6.1029e+06
6.10258e+06
6.10271e+06
6.10185e+06
6.10185e+06
6.10189e+06
6.10178e+06
6.10163e+06
6.10148e+06
6.1015e+06
6.10145e+06
6.1014e+06
6.10136e+06
6.10131e+06
6.10126e+06
6.10121e+06
6.10115e+06
6.1011e+06
6.10104e+06
6.10098e+06
6.10092e+06
6.10086e+06
6.1008e+06
6.10074e+06
6.10068e+06
6.10062e+06
6.10056e+06
6.1005e+06
6.10045e+06
6.10039e+06
6.10264e+06
6.10282e+06
6.10241e+06
6.10254e+06
6.10177e+06
6.10176e+06
6.10174e+06
6.10161e+06
6.10147e+06
6.10134e+06
6.10135e+06
6.1013e+06
6.10126e+06
6.10122e+06
6.10118e+06
6.10114e+06
6.1011e+06
6.10105e+06
6.101e+06
6.10095e+06
6.1009e+06
6.10084e+06
6.10079e+06
6.10073e+06
6.10068e+06
6.10062e+06
6.10057e+06
6.10051e+06
6.10046e+06
6.10041e+06
6.10036e+06
6.1025e+06
6.10227e+06
6.10209e+06
6.10225e+06
6.10221e+06
6.10215e+06
6.10167e+06
6.10148e+06
6.10131e+06
6.10119e+06
6.10121e+06
6.10117e+06
6.10114e+06
6.10111e+06
6.10107e+06
6.10103e+06
6.10099e+06
6.10095e+06
6.10091e+06
6.10086e+06
6.10082e+06
6.10077e+06
6.10072e+06
6.10067e+06
6.10062e+06
6.10057e+06
6.10052e+06
6.10047e+06
6.10042e+06
6.10037e+06
6.10033e+06
6.10243e+06
6.1021e+06
6.10194e+06
6.10202e+06
6.10205e+06
6.10208e+06
6.10208e+06
6.10183e+06
6.10125e+06
6.10107e+06
6.10108e+06
6.10105e+06
6.10102e+06
6.10099e+06
6.10096e+06
6.10093e+06
6.10089e+06
6.10086e+06
6.10082e+06
6.10078e+06
6.10074e+06
6.10069e+06
6.10065e+06
6.10061e+06
6.10056e+06
6.10052e+06
6.10047e+06
6.10042e+06
6.10038e+06
6.10033e+06
6.10029e+06
6.10237e+06
6.10188e+06
6.10179e+06
6.10179e+06
6.10185e+06
6.1019e+06
6.10199e+06
6.10176e+06
6.10113e+06
6.10094e+06
6.10096e+06
6.10093e+06
6.10091e+06
6.10088e+06
6.10086e+06
6.10083e+06
6.1008e+06
6.10077e+06
6.10073e+06
6.1007e+06
6.10066e+06
6.10062e+06
6.10058e+06
6.10054e+06
6.1005e+06
6.10046e+06
6.10042e+06
6.10038e+06
6.10034e+06
6.1003e+06
6.10026e+06
6.10189e+06
6.10166e+06
6.10173e+06
6.10174e+06
6.10174e+06
6.10177e+06
6.10185e+06
6.10163e+06
6.10102e+06
6.10083e+06
6.10085e+06
6.10083e+06
6.10081e+06
6.10079e+06
6.10076e+06
6.10074e+06
6.10071e+06
6.10068e+06
6.10065e+06
6.10062e+06
6.10059e+06
6.10056e+06
6.10052e+06
6.10048e+06
6.10045e+06
6.10041e+06
6.10037e+06
6.10034e+06
6.1003e+06
6.10026e+06
6.10022e+06
6.09911e+06
6.10007e+06
6.10135e+06
6.10157e+06
6.10158e+06
6.10164e+06
6.10172e+06
6.1015e+06
6.1009e+06
6.10073e+06
6.10075e+06
6.10073e+06
6.10072e+06
6.10069e+06
6.10068e+06
6.10065e+06
6.10063e+06
6.1006e+06
6.10058e+06
6.10055e+06
6.10052e+06
6.10049e+06
6.10046e+06
6.10043e+06
6.10039e+06
6.10036e+06
6.10033e+06
6.10029e+06
6.10026e+06
6.10022e+06
6.10019e+06
6.0995e+06
6.09985e+06
6.09974e+06
6.10024e+06
6.10134e+06
6.10162e+06
6.10162e+06
6.10141e+06
6.10081e+06
6.10063e+06
6.10066e+06
6.10064e+06
6.10063e+06
6.10061e+06
6.10059e+06
6.10057e+06
6.10055e+06
6.10053e+06
6.1005e+06
6.10048e+06
6.10045e+06
6.10043e+06
6.1004e+06
6.10037e+06
6.10034e+06
6.10031e+06
6.10028e+06
6.10025e+06
6.10022e+06
6.10018e+06
6.10015e+06
6.09922e+06
6.09965e+06
6.09953e+06
6.10012e+06
6.10133e+06
6.10161e+06
6.10154e+06
6.10133e+06
6.10072e+06
6.10054e+06
6.10057e+06
6.10055e+06
6.10055e+06
6.10052e+06
6.10051e+06
6.10049e+06
6.10047e+06
6.10045e+06
6.10043e+06
6.10041e+06
6.10039e+06
6.10037e+06
6.10034e+06
6.10032e+06
6.10029e+06
6.10026e+06
6.10023e+06
6.1002e+06
6.10018e+06
6.10015e+06
6.10012e+06
6.09891e+06
6.09949e+06
6.09951e+06
6.10011e+06
6.10119e+06
6.10147e+06
6.10149e+06
6.1013e+06
6.10064e+06
6.10047e+06
6.10049e+06
6.10047e+06
6.10046e+06
6.10044e+06
6.10043e+06
6.10042e+06
6.1004e+06
6.10039e+06
6.10037e+06
6.10035e+06
6.10033e+06
6.10031e+06
6.10029e+06
6.10026e+06
6.10024e+06
6.10021e+06
6.10019e+06
6.10016e+06
6.10014e+06
6.10011e+06
6.10008e+06
6.09951e+06
6.09977e+06
6.09995e+06
6.10006e+06
6.10001e+06
6.10034e+06
6.10118e+06
6.10116e+06
6.10052e+06
6.10038e+06
6.1004e+06
6.10038e+06
6.10039e+06
6.10037e+06
6.10036e+06
6.10035e+06
6.10033e+06
6.10032e+06
6.1003e+06
6.10029e+06
6.10027e+06
6.10025e+06
6.10023e+06
6.10021e+06
6.10019e+06
6.10017e+06
6.10014e+06
6.10012e+06
6.1001e+06
6.10007e+06
6.10005e+06
6.09949e+06
6.09979e+06
6.09998e+06
6.10005e+06
6.10004e+06
6.10013e+06
6.10023e+06
6.1003e+06
6.10032e+06
6.10034e+06
6.10033e+06
6.10032e+06
6.10032e+06
6.1003e+06
6.10029e+06
6.10028e+06
6.10027e+06
6.10026e+06
6.10024e+06
6.10023e+06
6.10021e+06
6.1002e+06
6.10018e+06
6.10016e+06
6.10014e+06
6.10012e+06
6.1001e+06
6.10008e+06
6.10006e+06
6.10004e+06
6.10002e+06
6.09952e+06
6.09982e+06
6.09998e+06
6.10004e+06
6.10008e+06
6.10011e+06
6.10004e+06
6.10011e+06
6.10022e+06
6.10027e+06
6.10025e+06
6.10024e+06
6.10025e+06
6.10023e+06
6.10023e+06
6.10022e+06
6.10021e+06
6.1002e+06
6.10018e+06
6.10017e+06
6.10016e+06
6.10014e+06
6.10013e+06
6.10011e+06
6.10009e+06
6.10008e+06
6.10006e+06
6.10004e+06
6.10002e+06
6.1e+06
6.09998e+06
6.09922e+06
6.09975e+06
6.10011e+06
6.10018e+06
6.10012e+06
6.10013e+06
6.10007e+06
6.10013e+06
6.10019e+06
6.10022e+06
6.10019e+06
6.10019e+06
6.10019e+06
6.10017e+06
6.10017e+06
6.10016e+06
6.10015e+06
6.10014e+06
6.10013e+06
6.10012e+06
6.1001e+06
6.10009e+06
6.10008e+06
6.10006e+06
6.10005e+06
6.10003e+06
6.10002e+06
6.1e+06
6.09998e+06
6.09997e+06
6.09995e+06
6.09565e+06
6.09768e+06
6.09973e+06
6.10008e+06
6.10004e+06
6.10007e+06
6.10001e+06
6.10007e+06
6.10013e+06
6.10017e+06
6.10014e+06
6.10013e+06
6.10013e+06
6.10011e+06
6.10011e+06
6.1001e+06
6.10009e+06
6.10008e+06
6.10007e+06
6.10006e+06
6.10005e+06
6.10004e+06
6.10003e+06
6.10002e+06
6.1e+06
6.09999e+06
6.09998e+06
6.09996e+06
6.09995e+06
6.09993e+06
6.09992e+06
6.0972e+06
6.09773e+06
6.09765e+06
6.09829e+06
6.09982e+06
6.10014e+06
6.09996e+06
6.10002e+06
6.10008e+06
6.10012e+06
6.10008e+06
6.10007e+06
6.10007e+06
6.10006e+06
6.10005e+06
6.10004e+06
6.10004e+06
6.10003e+06
6.10002e+06
6.10001e+06
6.1e+06
6.09999e+06
6.09998e+06
6.09997e+06
6.09996e+06
6.09995e+06
6.09994e+06
6.09992e+06
6.09991e+06
6.0999e+06
6.09988e+06
6.09714e+06
6.09774e+06
6.09753e+06
6.09823e+06
6.09992e+06
6.10022e+06
6.09994e+06
6.09998e+06
6.10003e+06
6.10007e+06
6.10003e+06
6.10002e+06
6.10001e+06
6.1e+06
6.1e+06
6.09999e+06
6.09998e+06
6.09998e+06
6.09997e+06
6.09996e+06
6.09995e+06
6.09995e+06
6.09994e+06
6.09993e+06
6.09992e+06
6.09991e+06
6.0999e+06
6.09989e+06
6.09987e+06
6.09986e+06
6.09985e+06
6.09705e+06
6.09772e+06
6.09765e+06
6.09831e+06
6.09978e+06
6.10008e+06
6.09994e+06
6.1e+06
6.09998e+06
6.10002e+06
6.09997e+06
6.09996e+06
6.09995e+06
6.09994e+06
6.09994e+06
6.09993e+06
6.09993e+06
6.09993e+06
6.09992e+06
6.09991e+06
6.09991e+06
6.0999e+06
6.09989e+06
6.09988e+06
6.09988e+06
6.09987e+06
6.09986e+06
6.09985e+06
6.09984e+06
6.09983e+06
6.09982e+06
6.09764e+06
6.0982e+06
6.09835e+06
6.09834e+06
6.09812e+06
6.0985e+06
6.09953e+06
6.09985e+06
6.09987e+06
6.09995e+06
6.0999e+06
6.0999e+06
6.0999e+06
6.09989e+06
6.09989e+06
6.09988e+06
6.09988e+06
6.09988e+06
6.09987e+06