/*--------------------------------*- C++ -*----------------------------------*\
| =========                 |                                                 |
| \\      /  F ield         | OpenFOAM: The Open Source CFD Toolbox           |
|  \\    /   O peration     | Version:  v2012                                 |
|   \\  /    A nd           | Website:  www.openfoam.com                      |
|    \\/     M anipulation  |                                                 |
\*---------------------------------------------------------------------------*/
FoamFile
{
    version     2.0;
    format      ascii;
    class       surfaceScalarField;
    location    "0.5";
    object      phi;
}
// * * * * * * * * * * * * * * * * * * * * * * * * * * * * * * * * * * * * * //

dimensions      [0 3 -1 0 0 0 0];
oriented        oriented;


internalField   nonuniform List<scalar> 
8048
(
2.12132e-12
-7.5682e-09
-5.81503e-15
6.07722e-11
-2.48745e-08
-3.36245e-15
-1.46779e-09
-4.5819e-08
-9.0339e-15
-3.5516e-09
-5.23731e-08
-1.52829e-14
-5.46545e-09
-6.21191e-08
-2.15973e-14
-7.01099e-09
-7.482e-08
-7.80272e-15
-7.26002e-09
-8.66919e-08
-9.71124e-15
-9.02032e-08
3.02138e-14
1.25356e-12
-7.56947e-09
-4.6961e-15
1.39307e-11
-2.48872e-08
-8.67631e-15
-1.49134e-09
-4.43137e-08
-1.42241e-14
-3.37456e-09
-5.049e-08
-2.48136e-14
-5.24211e-09
-6.02515e-08
-2.07051e-14
-6.54544e-09
-7.35166e-08
-2.68629e-15
-6.39158e-09
-8.68458e-08
-9.00767e-15
-4.67989e-09
-9.19146e-08
4.60572e-14
7.54329e-10
-7.76982e-08
1.60634e-14
1.40245e-09
-3.83016e-08
-2.34593e-14
-1.08258e-09
-3.65658e-08
-2.62424e-14
-2.60279e-09
-3.69169e-08
-1.83406e-14
-3.74179e-09
-3.57383e-08
-1.49191e-14
-4.619e-09
-3.45651e-08
-1.13029e-14
-3.37731e-08
-9.93226e-15
3.90732e-13
-7.56985e-09
-2.22823e-15
-3.16825e-11
-2.48552e-08
-7.1662e-15
-1.5075e-09
-4.28379e-08
-5.86587e-15
-3.37184e-09
-4.86256e-08
-1.43805e-14
-5.293e-09
-5.83304e-08
-1.74443e-14
-6.38077e-09
-7.24287e-08
4.24809e-16
-6.00591e-09
-8.72208e-08
-6.94925e-15
-4.58672e-09
-9.33338e-08
1.84437e-14
-4.50703e-10
-8.18343e-08
-5.88147e-15
3.42427e-09
-4.21766e-08
-2.71108e-14
5.97913e-10
-3.37394e-08
-2.46844e-14
-1.1549e-09
-3.51641e-08
-1.94991e-14
-2.42463e-09
-3.44686e-08
-1.43549e-14
-3.44486e-09
-3.35449e-08
-1.17527e-14
-3.28188e-08
-1.03668e-14
-4.96422e-13
-7.56939e-09
-6.66166e-15
-7.54043e-11
-2.47803e-08
-7.46669e-15
-1.54325e-09
-4.137e-08
-1.30313e-14
-3.41924e-09
-4.67497e-08
-1.45078e-14
-5.14498e-09
-5.66045e-08
-1.10325e-15
-5.63872e-09
-7.19349e-08
-7.73919e-15
-4.6488e-09
-8.82107e-08
-2.00568e-15
-2.67246e-09
-9.531e-08
3.30781e-14
1.06577e-09
-8.55726e-08
-1.50974e-14
6.18203e-09
-4.72927e-08
8.51185e-15
2.63087e-09
-3.01884e-08
-3.77945e-14
5.04784e-10
-3.30381e-08
-1.94139e-14
-9.36417e-10
-3.30273e-08
-1.34103e-14
-2.14012e-09
-3.23412e-08
-1.16802e-14
-3.17588e-08
-9.33439e-15
-1.1899e-12
-7.56817e-09
6.04774e-16
-1.15774e-10
-2.46657e-08
-6.04444e-15
-1.56733e-09
-3.99184e-08
-1.22812e-14
-3.3188e-09
-4.49982e-08
-8.56605e-15
-4.42665e-09
-5.54966e-08
-4.13647e-15
-3.85363e-09
-7.25079e-08
-1.00718e-14
-1.78979e-09
-9.02748e-08
-9.85229e-15
1.27413e-09
-9.83739e-08
6.36829e-15
5.25722e-09
-8.95558e-08
-2.49989e-14
1.02345e-08
-5.22701e-08
7.15575e-15
5.20509e-09
-2.51592e-08
-3.97625e-14
2.392e-09
-3.02249e-08
-1.74714e-14
6.85657e-10
-3.1321e-08
-1.38852e-14
-7.2816e-10
-3.09274e-08
-1.23976e-14
-3.05432e-08
-9.02442e-15
-1.80521e-12
-7.56639e-09
-5.99768e-15
-1.5029e-10
-2.45172e-08
-8.44531e-15
-1.54044e-09
-3.85283e-08
-1.37285e-14
-2.94691e-09
-4.35917e-08
-1.03177e-14
-3.03439e-09
-5.54092e-08
-7.62982e-15
-1.07234e-09
-7.44699e-08
1.79848e-15
2.22923e-09
-9.35764e-08
5.17809e-15
6.44413e-09
-1.02589e-07
-6.75635e-15
1.09291e-08
-9.40407e-08
-8.54628e-15
1.54201e-08
-5.67612e-08
2.76555e-14
8.61933e-09
-1.83586e-08
-1.76218e-14
4.51315e-09
-2.61187e-08
-1.71614e-14
2.37904e-09
-2.91869e-08
-1.40954e-14
7.29998e-10
-2.92783e-08
-1.25196e-14
-2.91296e-08
-8.4648e-15
-2.11563e-12
-7.56426e-09
-4.71814e-16
-1.74818e-10
-2.43446e-08
-7.41247e-15
-1.43394e-09
-3.72691e-08
-7.49676e-15
-2.26056e-09
-4.2765e-08
-5.56877e-15
-1.05724e-09
-5.66125e-08
-7.40263e-15
2.28318e-09
-7.78103e-08
-5.10885e-15
6.67889e-09
-9.79721e-08
-2.15887e-15
1.16836e-08
-1.07594e-07
-6.22063e-15
1.63202e-08
-9.8677e-08
4.4786e-15
2.04748e-08
-6.09158e-08
3.72528e-14
1.30658e-08
-1.09499e-08
-2.12492e-14
6.80536e-09
-1.98581e-08
-2.55577e-14
4.03352e-09
-2.64151e-08
-1.47722e-14
2.12783e-09
-2.73727e-08
-1.24416e-14
-2.75091e-08
-7.98313e-15
-2.29217e-12
-7.56197e-09
-3.49094e-15
-1.87053e-10
-2.41598e-08
-8.87821e-15
-1.23988e-09
-3.62162e-08
-7.77373e-15
-1.29236e-09
-4.27125e-08
-7.70734e-15
1.23837e-09
-5.91432e-08
-4.98818e-15
5.60058e-09
-8.21725e-08
6.70186e-16
1.06917e-08
-1.03063e-07
5.99112e-15
1.59415e-08
-1.12844e-07
-1.22514e-14
2.0211e-08
-1.02946e-07
-1.31469e-14
2.39921e-08
-6.46971e-08
1.41738e-14
1.78738e-08
-4.83164e-09
1.22618e-14
9.05989e-09
-1.10442e-08
-4.23995e-14
5.50394e-09
-2.28592e-08
-1.63407e-14
3.33906e-09
-2.52078e-08
-1.18705e-14
-2.57163e-08
-8.07503e-15
-2.17044e-12
-7.5598e-09
-2.07829e-15
-1.85825e-10
-2.39762e-08
-5.22775e-15
-9.59818e-10
-3.54422e-08
-1.12138e-14
-1.28954e-10
-4.35434e-08
-7.33649e-15
3.43625e-09
-6.27084e-08
-3.84088e-15
8.28366e-09
-8.70199e-08
-1.15694e-15
1.34579e-08
-1.08238e-07
2.37204e-15
1.83258e-08
-1.17711e-07
2.63719e-14
2.17977e-08
-1.06418e-07
3.18725e-14
2.4858e-08
-6.77572e-08
8.40484e-14
2.11042e-08
-1.07663e-09
1.43626e-13
1.08925e-08
-8.32483e-10
-3.91473e-14
6.65685e-09
-1.86235e-08
-1.1198e-14
4.26591e-09
-2.28168e-08
-9.12245e-15
-2.38147e-08
-7.64637e-15
-1.67657e-12
-7.55809e-09
9.97178e-16
-1.73358e-10
-2.38045e-08
-6.02835e-15
-6.21658e-10
-3.49939e-08
-9.4355e-15
1.04935e-09
-4.52144e-08
-7.42099e-17
5.11586e-09
-6.6775e-08
-1.36524e-14
9.83755e-09
-9.17416e-08
5.4689e-15
1.44599e-08
-1.12859e-07
5.21073e-14
1.83945e-08
-1.21647e-07
-9.62897e-14
2.07031e-08
-1.08727e-07
-7.92779e-14
2.24975e-08
-6.95523e-08
-4.57915e-14
2.09819e-08
4.38306e-10
-1.67301e-14
1.1816e-08
8.33305e-09
-3.26499e-14
7.38816e-09
-1.41957e-08
-1.25872e-14
4.86863e-09
-2.02973e-08
-9.0654e-15
-2.18774e-08
-9.1582e-15
-8.53199e-13
-7.55726e-09
-4.6536e-15
-1.5279e-10
-2.36525e-08
-5.03318e-15
-2.78347e-10
-3.48683e-08
-1.45494e-14
2.00383e-09
-4.74966e-08
-5.75449e-15
6.00383e-09
-7.0775e-08
-7.58366e-15
1.00679e-08
-9.58056e-08
8.61214e-15
1.37171e-08
-1.16508e-07
5.12574e-14
1.64156e-08
-1.24346e-07
-8.59153e-14
1.73754e-08
-1.09686e-07
-8.16999e-14
1.76436e-08
-6.98205e-08
-3.06237e-14
1.75724e-08
5.09565e-10
8.42501e-14
1.15108e-08
1.43946e-08
1.45441e-14
7.62915e-09
-1.0314e-08
-9.99637e-15
5.15802e-09
-1.78262e-08
-6.71717e-15
-1.99756e-08
-8.80529e-15
2.91735e-13
-7.55753e-09
2.94397e-16
-1.26854e-10
-2.35254e-08
-4.03558e-15
2.07634e-11
-3.5016e-08
-1.58173e-14
2.57184e-09
-5.00476e-08
-7.32176e-16
6.04866e-09
-7.42519e-08
-9.65997e-15
9.19001e-09
-9.89469e-08
-4.60939e-15
1.17558e-08
-1.19073e-07
3.17389e-14
1.32331e-08
-1.25823e-07
-7.75643e-14
1.29542e-08
-1.09407e-07
-5.06551e-14
1.1868e-08
-6.87344e-08
-6.99373e-14
1.25927e-08
-2.14971e-10
3.68538e-14
1.01919e-08
1.67954e-08
4.35007e-15
7.42664e-09
-7.54872e-09
-1.85211e-15
5.19694e-09
-1.55965e-08
-5.55389e-15
-1.81667e-08
-8.91887e-15
1.46383e-12
-7.55903e-09
-5.64469e-15
-9.82765e-11
-2.34257e-08
-7.75442e-15
2.51986e-10
-3.53662e-08
-7.34898e-15
2.73676e-09
-5.25324e-08
9.35562e-16
5.45975e-09
-7.69749e-08
-1.62375e-15
7.69383e-09
-1.01181e-07
6.87495e-15
9.32419e-09
-1.20703e-07
5.61359e-14
9.85571e-09
-1.26356e-07
-9.2728e-14
8.72972e-09
-1.08281e-07
-4.24552e-14
6.77502e-09
-6.67796e-08
-9.74792e-14
7.94407e-09
-1.38411e-09
1.19296e-14
8.52049e-09
1.6219e-08
-1.25541e-14
6.95659e-09
-5.98482e-09
7.84255e-15
5.07747e-09
-1.37173e-08
-4.2317e-15
-1.64845e-08
-8.44931e-15
2.71718e-12
-7.56173e-09
-2.80387e-16
-6.88285e-11
-2.33541e-08
-1.9337e-15
4.16679e-10
-3.58518e-08
-2.06848e-14
2.59942e-09
-5.47151e-08
-2.70721e-15
4.57723e-09
-7.89525e-08
1.49816e-14
6.09125e-09
-1.02695e-07
-4.78078e-14
7.06162e-09
-1.21674e-07
-4.03422e-14
7.04287e-09
-1.26337e-07
-1.38746e-14
5.58515e-09
-1.06824e-07
-1.0295e-14
3.37981e-09
-6.45741e-08
-1.45901e-13
4.86196e-09
-2.8663e-09
-4.41028e-14
7.13806e-09
1.3943e-08
-1.06816e-14
6.42393e-09
-5.27062e-09
1.15637e-14
4.88342e-09
-1.21768e-08
-3.3129e-15
-1.49367e-08
-7.9629e-15
3.74164e-12
-7.56549e-09
-4.10459e-15
-4.03866e-11
-2.331e-08
-6.61268e-15
5.27679e-10
-3.64198e-08
-8.46017e-15
2.30829e-09
-5.64956e-08
7.28071e-15
3.6933e-09
-8.03374e-08
1.98007e-14
4.71747e-09
-1.0372e-07
-3.59026e-14
5.31466e-09
-1.22271e-07
-1.85205e-14
5.11314e-09
-1.26135e-07
-1.60043e-14
3.77143e-09
-1.05482e-07
2.2096e-14
1.87583e-09
-6.26784e-08
-1.48651e-13
3.55288e-09
-4.54336e-09
-8.58593e-14
6.28616e-09
1.12096e-08
-1.45332e-14
5.94841e-09
-4.93281e-09
1.01396e-14
4.66172e-09
-1.08901e-08
-2.99778e-15
-1.3513e-08
-7.41176e-15
4.64285e-12
-7.57013e-09
-7.58083e-16
-1.44559e-11
-2.32908e-08
-4.85422e-15
6.00236e-10
-3.70345e-08
-8.34172e-15
1.98636e-09
-5.78817e-08
-3.29619e-15
2.96617e-09
-8.13172e-08
-9.92523e-15
3.69249e-09
-1.04446e-07
-1.27545e-14
4.13491e-09
-1.22713e-07
-1.4434e-14
3.99032e-09
-1.25991e-07
-1.18554e-14
2.99927e-09
-1.04491e-07
6.85872e-15
1.70255e-09
-6.13815e-08
-8.58027e-14
3.46716e-09
-6.308e-09
-5.77057e-14
5.8433e-09
8.83352e-09
-3.54304e-15
5.54694e-09
-4.6364e-09
7.59728e-15
4.42321e-09
-9.76636e-09
-2.5618e-15
-1.21963e-08
-6.59215e-15
5.38501e-12
-7.57553e-09
-3.58347e-15
6.8547e-12
-2.32923e-08
-4.47854e-15
6.43166e-10
-3.76709e-08
-7.9639e-15
1.69922e-09
-5.89377e-08
1.04153e-16
2.42699e-09
-8.2045e-08
-1.47151e-14
2.98394e-09
-1.05003e-07
-1.66082e-14
3.39642e-09
-1.23126e-07
-1.41968e-14
3.4031e-09
-1.25997e-07
-1.07741e-14
2.78305e-09
-1.03871e-07
-7.81149e-15
2.05997e-09
-6.06584e-08
-2.52558e-14
3.7917e-09
-8.03978e-09
-4.20836e-14
5.55254e-09
7.0727e-09
-1.08901e-14
5.17643e-09
-4.26026e-09
3.13591e-15
4.15655e-09
-8.74647e-09
-3.05899e-15
-1.09719e-08
-6.05252e-15
6.05049e-12
-7.58157e-09
-3.68379e-16
2.13992e-11
-2.33077e-08
-5.46217e-15
6.56317e-10
-3.83058e-08
-5.63233e-15
1.46168e-09
-5.9743e-08
7.05425e-16
2.03644e-09
-8.26198e-08
-1.32046e-14
2.49806e-09
-1.05464e-07
-1.64322e-14
2.92817e-09
-1.23556e-07
-1.0376e-14
3.07954e-09
-1.26149e-07
-6.01815e-15
2.72898e-09
-1.0352e-07
-2.04495e-14
2.35867e-09
-6.02881e-08
1.29994e-14
3.94958e-09
-9.63063e-09
-1.95721e-14
5.21647e-09
5.80571e-09
-2.44978e-14
4.78627e-09
-3.83007e-09
-1.05857e-15
3.84558e-09
-7.80578e-09
-3.37452e-15
-9.83065e-09
-5.74846e-15
6.61455e-12
-7.58819e-09
-2.4141e-15
2.8825e-11
-2.33298e-08
-3.14583e-15
6.38824e-10
-3.89158e-08
-9.5381e-15
1.26535e-09
-6.03695e-08
-1.861e-15
1.74101e-09
-8.30955e-08
-1.77285e-14
2.14537e-09
-1.05869e-07
-2.21256e-14
2.59652e-09
-1.24007e-07
-9.50809e-15
2.84612e-09
-1.26398e-07
-5.69162e-15
2.64323e-09
-1.03317e-07
-2.50141e-14
2.38534e-09
-6.00302e-08
2.55824e-14
3.76206e-09
-1.10073e-08
-9.97414e-15
4.76426e-09
4.80343e-09
-2.29545e-14
4.34769e-09
-3.41349e-09
1.28967e-15
3.48059e-09
-6.93868e-09
-2.54701e-15
-8.76711e-09
-5.26467e-15
7.10724e-12
-7.59529e-09
-8.27312e-16
3.05931e-11
-2.33533e-08
-3.70754e-15
5.94035e-10
-3.94793e-08
-9.7785e-15
1.09714e-09
-6.08726e-08
-5.40489e-15
1.50017e-09
-8.34986e-08
-1.35468e-14
1.86666e-09
-1.06236e-07
-2.27605e-14
2.32762e-09
-1.24468e-07
-5.34884e-15
2.63159e-09
-1.26702e-07
-4.10681e-15
2.49019e-09
-1.03176e-07
-2.28223e-14
2.19233e-09
-5.97323e-08
1.94781e-14
3.32317e-09
-1.21381e-08
-3.31216e-16
4.21891e-09
3.9076e-09
-2.6849e-14
3.85712e-09
-3.05169e-09
1.57658e-15
3.06098e-09
-6.14254e-09
-2.21685e-15
-7.7771e-09
-4.96771e-15
7.51411e-12
-7.60282e-09
-2.26172e-15
3.04453e-11
-2.33762e-08
-4.2366e-15
5.32638e-10
-3.99815e-08
-8.87653e-15
9.51105e-10
-6.12911e-08
-3.71693e-15
1.29458e-09
-8.38421e-08
-1.50166e-14
1.63352e-09
-1.06575e-07
-2.48918e-14
2.0934e-09
-1.24928e-07
-1.11832e-15
2.42463e-09
-1.27034e-07
-5.4987e-15
2.30188e-09
-1.03053e-07
-2.39184e-14
1.90663e-09
-5.93371e-08
2.15446e-15
2.79229e-09
-1.30237e-08
-2.16773e-15
3.63072e-09
3.06907e-09
-2.27011e-14
3.32495e-09
-2.74589e-09
2.21802e-15
2.59411e-09
-5.41169e-09
-2.09593e-15
-6.85637e-09
-4.67038e-15
7.90003e-12
-7.61072e-09
-1.60656e-15
3.23831e-11
-2.34007e-08
-8.72215e-16
4.66958e-10
-4.04161e-08
-1.14951e-14
8.25216e-10
-6.16493e-08
-5.47287e-15
1.11678e-09
-8.41337e-08
-1.57241e-14
1.43428e-09
-1.06892e-07
-1.96604e-14
1.88694e-09
-1.2538e-07
-5.51006e-16
2.23273e-09
-1.27379e-07
-3.1412e-15
2.114e-09
-1.02935e-07
-1.66789e-14
1.61733e-09
-5.88404e-08
-1.49399e-14
2.27495e-09
-1.36812e-08
-9.08013e-16
3.03812e-09
2.30579e-09
-1.82604e-14
2.76678e-09
-2.47452e-09
2.11525e-15
2.09268e-09
-4.73759e-09
-1.84794e-15
-6.00029e-09
-4.26901e-15
8.23624e-12
-7.61896e-09
-2.45566e-15
3.92072e-11
-2.34316e-08
-3.13387e-15
4.08079e-10
-4.0785e-08
-9.68347e-15
7.20646e-10
-6.19618e-08
-4.32088e-15
9.65958e-10
-8.43791e-08
-1.39429e-14
1.26521e-09
-1.07191e-07
-2.10855e-14
1.70769e-09
-1.25823e-07
-7.83461e-15
2.06234e-09
-1.27734e-07
-9.90873e-15
1.9441e-09
-1.02816e-07
-1.46178e-14
1.35519e-09
-5.82515e-08
-2.81526e-14
1.80159e-09
-1.41275e-08
2.76536e-15
2.4576e-09
1.64967e-09
-2.28033e-14
2.19804e-09
-2.21494e-09
1.47558e-15
1.57191e-09
-4.11145e-09
-1.4688e-15
-5.20439e-09
-3.7972e-15
8.53594e-12
-7.62749e-09
-1.69286e-15
5.10932e-11
-2.34741e-08
-2.14317e-15
3.61279e-10
-4.10952e-08
-8.27658e-15
6.35936e-10
-6.22365e-08
-6.65316e-15
8.39907e-10
-8.45831e-08
-1.42771e-14
1.12244e-09
-1.07474e-07
-1.21524e-14
1.55334e-09
-1.26254e-07
-1.00791e-14
1.91333e-09
-1.28094e-07
-1.17678e-14
1.79379e-09
-1.02697e-07
-9.66589e-15
1.11576e-09
-5.75734e-08
-3.8191e-14
1.36148e-09
-1.43732e-08
-1.96625e-15
1.89372e-09
1.11733e-09
-1.80789e-14
1.63244e-09
-1.95364e-09
1.72402e-15
1.04774e-09
-3.52675e-09
-1.1595e-15
-4.46515e-09
-3.10497e-15
8.79415e-12
-7.63629e-09
-2.44799e-15
6.61096e-11
-2.35314e-08
-1.96765e-15
3.27521e-10
-4.13567e-08
-1.0174e-14
5.68602e-10
-6.24776e-08
-8.75835e-15
7.35999e-10
-8.47505e-08
-1.45423e-14
1.00217e-09
-1.0774e-07
-1.18826e-14
1.42058e-09
-1.26672e-07
-1.46924e-14
1.78281e-09
-1.28456e-07
-1.20687e-14
1.65967e-09
-1.02574e-07
5.9327e-15
8.88044e-10
-5.68017e-08
-3.52701e-14
9.39363e-10
-1.44244e-08
-8.52112e-15
1.34948e-09
7.07137e-10
-1.0497e-14
1.08239e-09
-1.68652e-09
2.57335e-15
5.35674e-10
-2.98003e-09
-9.53064e-16
-3.7805e-09
-2.78431e-15
9.0298e-12
-7.64532e-09
-1.32625e-15
8.09532e-11
-2.36033e-08
-4.68385e-15
3.03927e-10
-4.15797e-08
-8.02025e-15
5.13902e-10
-6.26876e-08
-9.25301e-15
6.4951e-10
-8.48861e-08
-9.09978e-15
8.99523e-10
-1.0799e-07
-1.30164e-14
1.30537e-09
-1.27078e-07
-1.63254e-14
1.6677e-09
-1.28819e-07
-1.39696e-14
1.53928e-09
-1.02445e-07
-4.46758e-15
6.6605e-10
-5.59285e-08
-2.64368e-14
5.27478e-10
-1.42859e-08
-2.26121e-14
8.29035e-10
4.05535e-10
-5.75017e-15
5.58621e-10
-1.41608e-09
3.22337e-15
4.94684e-11
-7.98208e-17
-2.09341e-15
9.22697e-12
-7.65455e-09
-1.8654e-15
9.26767e-11
-2.36868e-08
-4.43091e-15
2.86878e-10
-4.17739e-08
-1.01076e-14
4.67685e-10
-6.28684e-08
-1.12775e-14
5.76298e-10
-8.49947e-08
-1.00265e-14
8.10711e-10
-1.08225e-07
-1.16455e-14
1.20486e-09
-1.27472e-07
-1.47194e-14
1.56664e-09
-1.2918e-07
-1.22462e-14
1.4338e-09
-1.02312e-07
-2.08002e-15
4.52168e-10
-5.49468e-08
-5.63583e-16
1.29335e-10
-1.39631e-08
-9.88387e-15
3.38049e-10
1.96797e-10
-7.93383e-16
-1.1478e-09
4.38817e-15
9.41437e-12
-7.66396e-09
-1.44773e-15
9.90963e-11
-2.37765e-08
-3.80674e-15
2.72669e-10
-4.19475e-08
-9.76128e-15
4.26034e-10
-6.30218e-08
-1.17393e-14
5.1253e-10
-8.50811e-08
-8.18307e-15
7.32584e-10
-1.08445e-07
-1.07652e-14
1.11711e-09
-1.27857e-07
-1.39014e-14
1.47939e-09
-1.29543e-07
-1.0384e-14
1.34579e-09
-1.02179e-07
-3.93394e-16
2.52138e-10
-5.38531e-08
-6.44311e-16
-2.49481e-10
-1.34615e-08
-6.59685e-15
-1.18161e-10
6.54578e-11
-9.73304e-15
-8.87277e-10
3.45389e-16
9.62791e-12
-7.67359e-09
-1.9767e-15
9.96072e-11
-2.38664e-08
-4.571e-15
2.59118e-10
-4.2107e-08
-8.22202e-15
3.86761e-10
-6.31495e-08
-1.17246e-14
4.55661e-10
-8.515e-08
-6.4811e-15
6.6304e-10
-1.08652e-07
-8.73662e-15
1.04083e-09
-1.28234e-07
-1.34855e-14
1.4059e-09
-1.29908e-07
-1.17657e-14
1.27757e-09
-1.0205e-07
-8.9697e-15
6.97777e-11
-5.26453e-08
-5.73518e-15
-6.16706e-10
-1.27751e-08
-4.04161e-15
-5.40812e-10
-1.04558e-11
-1.01406e-14
-6.43355e-10
-1.18196e-15
9.88174e-12
-7.68347e-09
-1.54081e-15
9.48348e-11
-2.39514e-08
-3.84907e-15
2.44797e-10
-4.2257e-08
-9.55722e-15
3.48144e-10
-6.32528e-08
-1.39993e-14
4.03216e-10
-8.52051e-08
-1.09331e-14
5.99639e-10
-1.08848e-07
-1.23209e-14
9.73608e-10
-1.28608e-07
-1.39169e-14
1.34361e-09
-1.30278e-07
-1.33865e-14
1.22494e-09
-1.01932e-07
-1.14326e-14
-1.0735e-10
-5.1313e-08
8.65361e-15
-9.89531e-10
-1.1893e-08
-6.09707e-14
-9.38408e-10
-6.15962e-11
-1.49226e-14
-4.29562e-10
6.90531e-16
1.01069e-11
-7.69357e-09
-1.83815e-15
8.62392e-11
-2.40275e-08
-5.36871e-15
2.29431e-10
-4.24002e-08
-6.30272e-15
3.0983e-10
-6.33333e-08
-1.29006e-14
3.53988e-10
-8.52492e-08
-9.67435e-15
5.40954e-10
-1.09035e-07
-1.33119e-14
9.13779e-10
-1.28981e-07
-1.8047e-14
1.29051e-09
-1.30654e-07
-9.71665e-15
1.18492e-09
-1.01826e-07
-4.91135e-15
-2.77819e-10
-4.98503e-08
1.72557e-14
-1.35444e-09
-1.08163e-08
-1.2511e-13
-1.3082e-09
-1.0783e-10
-1.55253e-14
-2.50249e-10
2.33236e-15
1.02415e-11
-7.70381e-09
-1.81759e-15
7.55781e-11
-2.40928e-08
-4.593e-15
2.1293e-10
-4.25376e-08
-7.45395e-15
2.71496e-10
-6.33919e-08
-1.11271e-14
3.06694e-10
-8.52844e-08
-1.17777e-14
4.85676e-10
-1.09214e-07
-9.58902e-15
8.60518e-10
-1.29356e-07
2.35325e-16
1.24549e-09
-1.3104e-07
-2.35277e-14
1.15721e-09
-1.01738e-07
-3.63444e-15
-4.34217e-10
-4.8259e-08
1.32594e-14
-1.70325e-09
-9.54726e-09
-1.50366e-13
-1.65197e-09
-1.59108e-10
-1.69906e-14
-1.04565e-10
9.90702e-16
1.01753e-11
-7.71399e-09
-2.02194e-15
6.42086e-11
-2.41469e-08
-5.68033e-15
1.95314e-10
-4.26687e-08
-6.48873e-15
2.32961e-10
-6.34295e-08
-1.01603e-14
2.60105e-10
-8.53116e-08
-1.33097e-14
4.32506e-10
-1.09387e-07
-1.19359e-14
8.1259e-10
-1.29736e-07
-1.02893e-15
1.20839e-09
-1.31435e-07
-3.0716e-14
1.15503e-09
-1.01685e-07
-1.92118e-14
-5.25359e-10
-4.65787e-08
6.99354e-15
-1.98369e-09
-8.0891e-09
-1.47461e-13
-1.95358e-09
-1.89297e-10
-2.88818e-14
2.40379e-11
-2.71984e-15
9.75644e-12
-7.72374e-09
-1.85632e-15
5.29559e-11
-2.41901e-08
-5.72533e-15
1.76205e-10
-4.27919e-08
-6.91911e-15
1.93202e-10
-6.34465e-08
-9.86547e-15
2.11567e-10
-8.533e-08
-1.43765e-14
3.78234e-10
-1.09553e-07
-1.58382e-14
7.64484e-10
-1.30122e-07
-1.33356e-14
1.17236e-09
-1.31843e-07
-5.30509e-15
1.17423e-09
-1.01686e-07
4.72318e-16
-5.32e-10
-4.48723e-08
2.06313e-14
-2.14611e-09
-6.47481e-09
-1.29083e-14
-2.18964e-09
-1.45719e-10
-3.32817e-16
1.38182e-10
-9.07039e-17
8.85601e-12
-7.7326e-09
-1.96453e-15
4.2112e-11
-2.42233e-08
-6.08315e-15
1.5499e-10
-4.29048e-08
-6.72703e-15
1.50591e-10
-6.34421e-08
-9.50418e-15
1.57714e-10
-8.53371e-08
-1.55169e-14
3.1778e-10
-1.09713e-07
-1.49229e-14
7.05788e-10
-1.3051e-07
-1.11278e-14
1.12947e-09
-1.32267e-07
-1.06495e-14
1.22775e-09
-1.01785e-07
-6.65654e-15
-2.40943e-10
-4.34036e-08
-2.92197e-14
-2.14952e-09
-4.56625e-09
1.26873e-13
-2.3224e-09
2.71106e-11
2.21954e-14
2.02284e-10
-8.23484e-17
7.41831e-12
-7.74002e-09
-2.12361e-15
3.14983e-11
-2.42474e-08
-6.09481e-15
1.30369e-10
-4.30037e-08
-6.48925e-15
1.01619e-10
-6.34134e-08
-1.00347e-14
9.21489e-11
-8.53276e-08
-1.45073e-14
2.39048e-10
-1.0986e-07
-1.50808e-14
6.14199e-10
-1.30885e-07
-1.19139e-14
1.04358e-09
-1.32696e-07
-1.09113e-14
1.16916e-09
-1.0191e-07
-9.81865e-15
1.88408e-10
-4.24228e-08
-1.96165e-14
-1.83204e-09
-2.54584e-09
8.60852e-14
-2.023e-09
2.1805e-10
1.79427e-14
2.32365e-10
5.52861e-16
5.40498e-12
-7.74542e-09
-2.13451e-15
2.09473e-11
-2.42629e-08
-6.2084e-15
1.0137e-10
-4.30841e-08
-5.94898e-15
4.3262e-11
-6.33552e-08
-9.27799e-15
8.13767e-12
-8.52925e-08
-1.34782e-14
1.24668e-10
-1.09977e-07
-1.34253e-14
4.63564e-10
-1.31224e-07
-1.13715e-14
9.01823e-10
-1.33135e-07
-7.69216e-15
1.03735e-09
-1.02046e-07
-1.0616e-14
9.4325e-10
-4.23287e-08
-2.0871e-15
-1.60258e-09
4.36879e-15
-1.38454e-09
-2.59622e-16
-1.1244e-15
3.22347e-12
-7.74864e-09
-2.30045e-15
1.25922e-11
-2.42723e-08
-6.6004e-15
7.29299e-11
-4.31445e-08
-7.03856e-15
-1.50048e-11
-6.32673e-08
-1.07278e-14
-7.97028e-11
-8.52278e-08
-1.21123e-14
-9.38955e-12
-1.10047e-07
-1.3942e-14
2.56504e-10
-1.3149e-07
-1.28774e-14
5.71976e-10
-1.3345e-07
-8.92529e-15
2.68624e-10
-1.01742e-07
-9.13145e-15
-4.206e-08
-9.64271e-15
1.50742e-12
-7.75015e-09
-2.35518e-15
9.00136e-12
-2.42798e-08
-6.03199e-15
5.18051e-11
-4.31873e-08
-6.93201e-15
-5.6927e-11
-6.31586e-08
-9.22891e-15
-1.3565e-10
-8.51491e-08
-1.04573e-14
-8.17437e-11
-1.10101e-07
-1.34204e-14
1.79103e-10
-1.31751e-07
-1.26139e-14
4.99377e-10
-1.3377e-07
-1.1864e-14
3.15527e-10
-1.01559e-07
-6.05255e-15
-4.17445e-08
-8.80189e-16
3.67258e-13
-7.75052e-09
-2.49263e-15
9.60902e-12
-2.4289e-08
-6.52076e-15
3.65378e-11
-4.32142e-08
-6.57697e-15
-8.67194e-11
-6.30353e-08
-1.04642e-14
-1.71287e-10
-8.50645e-08
-1.13697e-14
-1.22758e-10
-1.1015e-07
-1.46156e-14
1.41943e-10
-1.32016e-07
-1.276e-14
4.79547e-10
-1.34108e-07
-1.56306e-14
3.58734e-10
-1.01438e-07
-3.00118e-15
-4.13857e-08
4.59656e-15
-2.52314e-13
-7.75027e-09
-2.46898e-15
1.31166e-11
-2.43024e-08
-5.99709e-15
2.54097e-11
-4.32265e-08
-6.29405e-15
-1.06786e-10
-6.29031e-08
-1.07726e-14
-1.90226e-10
-8.4981e-08
-9.94455e-15
-1.39364e-10
-1.10201e-07
-1.2936e-14
1.33629e-10
-1.32289e-07
-2.034e-14
4.90296e-10
-1.34465e-07
-2.62204e-14
3.83636e-10
-1.01331e-07
-2.54948e-14
-4.10023e-08
-4.18734e-15
-4.27662e-13
-7.74984e-09
-2.48066e-15
1.79317e-11
-2.43208e-08
-6.117e-15
1.63925e-11
-4.3225e-08
-5.7894e-15
-1.20318e-10
-6.27664e-08
-1.06062e-14
-1.98074e-10
-8.49033e-08
-1.28262e-14
-1.41313e-10
-1.10257e-07
-2.30528e-14
1.41279e-10
-1.32571e-07
-5.49662e-16
5.1308e-10
-1.34836e-07
-7.4442e-15
4.07406e-10
-1.01225e-07
4.29705e-15
-4.05947e-08
3.59887e-14
-2.96239e-13
-7.74954e-09
-2.5563e-15
2.21497e-11
-2.43432e-08
-4.70391e-15
7.24927e-12
-4.321e-08
-5.50268e-15
-1.30224e-10
-6.26289e-08
-1.06653e-14
-1.98717e-10
-8.48348e-08
-1.40222e-14
-1.33439e-10
-1.10323e-07
-2.52599e-14
1.59559e-10
-1.32864e-07
-3.59998e-15
5.45152e-10
-1.35222e-07
-1.27357e-14
4.3535e-10
-1.01116e-07
-1.09032e-15
-4.01594e-08
2.67963e-14
5.92194e-14
-7.74961e-09
-2.80195e-15
2.44189e-11
-2.43676e-08
-6.72421e-15
-3.09775e-12
-4.31825e-08
-6.19808e-15
-1.37927e-10
-6.24941e-08
-1.4898e-14
-1.94383e-10
-8.47783e-08
-8.6421e-15
-1.18836e-10
-1.10398e-07
-8.41499e-15
1.85147e-10
-1.33168e-07
-1.15519e-14
5.83607e-10
-1.3562e-07
-1.25839e-14
4.66476e-10
-1.00998e-07
-1.23609e-14
-3.96929e-08
4.44254e-14
5.4434e-13
-7.75015e-09
-2.95466e-15
2.37074e-11
-2.43907e-08
-4.93863e-15
-1.55137e-11
-4.31433e-08
-5.14427e-15
-1.44506e-10
-6.23651e-08
-1.54574e-14
-1.86581e-10
-8.47362e-08
-1.10061e-14
-9.92988e-11
-1.10486e-07
-1.22757e-14
2.16548e-10
-1.33484e-07
-1.14371e-14
6.2751e-10
-1.36031e-07
-1.24001e-14
5.00854e-10
-1.00872e-07
-9.72407e-15
-3.9192e-08
2.87677e-14
1.12716e-12
-7.75128e-09
-2.77192e-15
1.99635e-11
-2.44096e-08
-6.58306e-15
-2.93708e-11
-4.30939e-08
-6.4125e-15
-1.49625e-10
-6.22449e-08
-1.26966e-14
-1.75434e-10
-8.47104e-08
-1.19385e-14
-7.51507e-11
-1.10586e-07
-1.29518e-14
2.53296e-10
-1.33812e-07
-1.08561e-14
6.76812e-10
-1.36455e-07
-1.13331e-14
5.38993e-10
-1.00734e-07
-9.34195e-15
-3.86531e-08
5.06525e-16
1.76004e-12
-7.75304e-09
-2.69323e-15
1.36882e-11
-2.44215e-08
-6.56301e-15
-4.39288e-11
-4.30363e-08
-6.17072e-15
-1.52648e-10
-6.21362e-08
-1.32433e-14
-1.60397e-10
-8.47027e-08
-1.14922e-14
-4.58839e-11
-1.107e-07
-1.42643e-14
2.95757e-10
-1.34154e-07
-1.29101e-14
7.3196e-10
-1.36891e-07
-9.00375e-15
5.81129e-10
-1.00583e-07
-9.36612e-15
-3.80719e-08
-2.26806e-14
2.44125e-12
-7.75548e-09
-2.93195e-15
6.27456e-12
-2.44253e-08
-6.82063e-15
-5.75909e-11
-4.29724e-08
-6.6237e-15
-1.52178e-10
-6.20416e-08
-1.36647e-14
-1.40515e-10
-8.47143e-08
-1.12487e-14
-1.07425e-11
-1.1083e-07
-1.5166e-14
3.44732e-10
-1.34509e-07
-1.41261e-14
7.93721e-10
-1.3734e-07
-8.12956e-15
6.27532e-10
-1.00417e-07
-5.31515e-15
-3.74444e-08
-4.03697e-14
3.17448e-12
-7.75866e-09
-2.77006e-15
-6.15105e-13
-2.44215e-08
-7.87141e-15
-6.87514e-11
-4.29043e-08
-7.44093e-15
-1.46649e-10
-6.19637e-08
-1.31387e-14
-1.14436e-10
-8.47465e-08
-1.1023e-14
3.14352e-11
-1.10976e-07
-1.42614e-14
4.01652e-10
-1.3488e-07
-1.28709e-14
8.63352e-10
-1.37802e-07
-8.9404e-15
6.78926e-10
-1.00233e-07
-2.87393e-15
-3.67654e-08
-3.61166e-14
3.97337e-12
-7.76263e-09
-2.9051e-15
-5.07733e-12
-2.44125e-08
-7.83813e-15
-7.55295e-11
-4.28338e-08
-7.81973e-15
-1.34287e-10
-6.1905e-08
-1.25438e-14
-8.0569e-11
-8.48002e-08
-1.28365e-14
8.19021e-11
-1.11139e-07
-1.30872e-14
4.68105e-10
-1.35266e-07
-1.27046e-14
9.42209e-10
-1.38276e-07
-9.28087e-15
7.36506e-10
-1.00027e-07
-8.45856e-15
-3.60289e-08
-1.43895e-14
4.86914e-12
-7.7675e-09
-2.76498e-15
-5.54493e-12
-2.4402e-08
-9.18999e-15
-7.6581e-11
-4.27628e-08
-8.79377e-15
-1.13903e-10
-6.18676e-08
-1.24246e-14
-3.80347e-11
-8.48761e-08
-1.26613e-14
1.41857e-10
-1.11318e-07
-1.30432e-14
5.45119e-10
-1.35669e-07
-1.58616e-14
1.03107e-09
-1.38762e-07
-1.79132e-14
8.00842e-10
-9.97967e-08
-3.60163e-14
-3.52282e-08
6.71683e-15
5.88868e-12
-7.77339e-09
-3.25554e-15
-7.70117e-13
-2.43954e-08
-7.91155e-15
-7.0787e-11
-4.26928e-08
-8.78571e-15
-8.42883e-11
-6.18541e-08
-1.1842e-14
1.39303e-11
-8.49743e-08
-1.23875e-14
2.12207e-10
-1.11517e-07
-1.73672e-14
6.332e-10
-1.3609e-07
-7.12732e-15
1.1302e-09
-1.39259e-07
-7.93317e-15
8.71246e-10
-9.95377e-08
-1.61963e-14
-3.43569e-08
-8.35606e-15
7.06952e-12
-7.78046e-09
-3.13007e-15
9.59521e-12
-2.43979e-08
-9.08323e-15
-5.80666e-11
-4.26251e-08
-9.52894e-15
-4.5558e-11
-6.18666e-08
-1.18753e-14
7.42297e-11
-8.50941e-08
-1.15483e-14
2.93125e-10
-1.11736e-07
-1.68118e-14
7.33061e-10
-1.3653e-07
-8.03667e-15
1.24084e-09
-1.39767e-07
-1.03787e-14
9.49035e-10
-9.92459e-08
1.3687e-15
-3.34078e-08
-4.57957e-14
8.43527e-12
-7.78889e-09
-3.35887e-15
2.51372e-11
-2.44146e-08
-8.33268e-15
-3.85947e-11
-4.25614e-08
-9.88779e-15
1.99061e-12
-6.19072e-08
-1.04195e-14
1.43599e-10
-8.52357e-08
-1.32012e-14
3.85044e-10
-1.11977e-07
-1.65907e-14
8.45521e-10
-1.3699e-07
-9.25981e-15
1.36406e-09
-1.40285e-07
-1.08828e-14
1.03563e-09
-9.89175e-08
-8.02811e-16
-3.23722e-08
-2.31198e-14
1.00118e-11
-7.7989e-09
-3.29796e-15
4.44479e-11
-2.4449e-08
-9.11335e-15
-1.34091e-11
-4.25035e-08
-1.04766e-14
5.735e-11
-6.1978e-08
-1.05702e-14
2.21228e-10
-8.53996e-08
-1.44693e-14
4.87358e-10
-1.12243e-07
-1.80613e-14
9.70244e-10
-1.37473e-07
-1.0362e-14
1.49953e-09
-1.40815e-07
-1.08515e-14
1.13033e-09
-9.85483e-08
-4.41564e-15
-3.12419e-08
-2.16779e-15
1.17967e-11
-7.8107e-09
-3.81343e-15
6.53015e-11
-2.45025e-08
-7.99776e-15
1.61323e-11
-4.24543e-08
-1.0747e-14
1.18597e-10
-6.20804e-08
-1.19542e-14
3.06035e-10
-8.5587e-08
-1.02932e-14
5.99217e-10
-1.12536e-07
-1.2233e-14
1.10698e-09
-1.37981e-07
-1.47096e-14
1.64741e-09
-1.41355e-07
-1.0124e-14
1.23372e-09
-9.81346e-08
-2.12145e-15
-3.00082e-08
-7.7908e-16
1.37753e-11
-7.82447e-09
-3.73927e-15
8.479e-11
-2.45736e-08
-8.86585e-15
4.80971e-11
-4.24177e-08
-1.16768e-14
1.83759e-10
-6.22161e-08
-1.2554e-14
3.96372e-10
-8.57996e-08
-1.21057e-14
7.19063e-10
-1.12859e-07
-1.37992e-14
1.25483e-09
-1.38517e-07
-1.62572e-14
1.80738e-09
-1.41908e-07
-1.04513e-14
1.34601e-09
-9.76732e-08
-1.83876e-15
-2.86621e-08
-7.0475e-16
1.59129e-11
-7.84038e-09
-4.01828e-15
1.0015e-10
-2.46578e-08
-9.00109e-15
8.08399e-11
-4.23984e-08
-1.12662e-14
2.51098e-10
-6.23863e-08
-1.16002e-14
4.91038e-10
-8.60395e-08
-1.1549e-14
8.45795e-10
-1.13214e-07
-1.44469e-14
1.41303e-09
-1.39084e-07
-1.59592e-14
1.97913e-09
-1.42474e-07
-9.46705e-15
1.46724e-09
-9.71613e-08
-1.12455e-15
-2.71949e-08
-9.87466e-16
1.81653e-11
-7.85855e-09
-3.95432e-15
1.09103e-10
-2.47488e-08
-1.01289e-14
1.12995e-10
-4.24023e-08
-1.1869e-14
3.18789e-10
-6.25921e-08
-1.14879e-14
5.88493e-10
-8.63092e-08
-1.15926e-14
9.77986e-10
-1.13603e-07
-1.44625e-14
1.58054e-09
-1.39687e-07
-1.6176e-14
2.16225e-09
-1.43055e-07
-1.0005e-14
1.59753e-09
-9.65966e-08
-2.94941e-15
-2.55974e-08
-2.28351e-15
2.04638e-11
-7.87901e-09
-4.88277e-15
1.10689e-10
-2.4839e-08
-1.00982e-14
1.44289e-10
-4.24359e-08
-1.16196e-14
3.85933e-10
-6.28337e-08
-1.13506e-14
6.87665e-10
-8.66109e-08
-1.21502e-14
1.11441e-09
-1.1403e-07
-1.41449e-14
1.75627e-09
-1.40329e-07
-1.48528e-14
2.35632e-09
-1.43655e-07
-1.16763e-14
1.73716e-09
-9.59774e-08
-6.2303e-15
-2.38602e-08
-1.77634e-15
2.27361e-11
-7.90175e-09
-4.93695e-15
1.05135e-10
-2.49214e-08
-1.10296e-14
1.74607e-10
-4.25054e-08
-1.1545e-14
4.51506e-10
-6.31106e-08
-1.25513e-14
7.87087e-10
-8.69465e-08
-1.27606e-14
1.25343e-09
-1.14496e-07
-1.47537e-14
1.93856e-09
-1.41014e-07
-1.51356e-14
2.56052e-09
-1.44277e-07
-1.17486e-14
1.88635e-09
-9.53032e-08
-8.99842e-15
-2.19738e-08
-1.82754e-15
2.4875e-11
-7.92662e-09
-5.56987e-15
9.41389e-11
-2.49907e-08
-1.19014e-14
2.04618e-10
-4.26159e-08
-1.04004e-14
5.15097e-10
-6.34211e-08
-9.13858e-15
8.85242e-10
-8.73167e-08
-1.27088e-14
1.3929e-09
-1.15004e-07
-1.48894e-14
2.1249e-09
-1.41746e-07
-1.34613e-14
2.77347e-09
-1.44926e-07
-1.1741e-14
2.0455e-09
-9.45753e-08
-9.5642e-15
-1.99284e-08
-2.79627e-15
2.67298e-11
-7.95335e-09
-5.78439e-15
8.00646e-11
-2.5044e-08
-1.29932e-14
2.34226e-10
-4.277e-08
-1.03684e-14
5.74864e-10
-6.37617e-08
-1.01082e-14
9.78593e-10
-8.77204e-08
-1.36505e-14
1.52839e-09
-1.15554e-07
-1.50745e-14
2.3103e-09
-1.42528e-07
-1.26754e-14
2.99203e-09
-1.45608e-07
-1.02976e-14
2.21482e-09
-9.3798e-08
-7.22353e-15
-1.77135e-08
2.50446e-15
2.80411e-11
-7.98139e-09
-6.56463e-15
6.55126e-11
-2.50815e-08
-1.36832e-14
2.62627e-10
-4.29672e-08
-9.97831e-15
6.27831e-10
-6.41269e-08
-1.00364e-14
1.06145e-09
-8.81541e-08
-1.36968e-14
1.65225e-09
-1.16145e-07
-1.40824e-14
2.4859e-09
-1.43361e-07
-1.16013e-14
3.21017e-09
-1.46332e-07