/*--------------------------------*- C++ -*----------------------------------*\
| =========                 |                                                 |
| \\      /  F ield         | OpenFOAM: The Open Source CFD Toolbox           |
|  \\    /   O peration     | Version:  v2012                                 |
|   \\  /    A nd           | Website:  www.openfoam.com                      |
|    \\/     M anipulation  |                                                 |
\*---------------------------------------------------------------------------*/
FoamFile
{
    version     2.0;
    format      ascii;
    class       surfaceScalarField;
    location    "0.85";
    object      phi;
}
// * * * * * * * * * * * * * * * * * * * * * * * * * * * * * * * * * * * * * //

dimensions      [0 3 -1 0 0 0 0];
oriented        oriented;


internalField   nonuniform List<scalar> 
6403
(
5.55779e-15
-6.9774e-13
1.23389e-19
2.26709e-14
-2.19365e-12
-1.27788e-19
5.1999e-14
-3.83584e-12
4.94242e-19
9.52007e-14
-5.62618e-12
5.33219e-19
1.53714e-13
-7.57228e-12
2.32503e-18
2.29667e-13
-9.6803e-12
2.15083e-18
3.251e-13
-1.19591e-11
4.95752e-18
4.42518e-13
-1.44168e-11
6.36895e-18
5.84389e-13
-1.70601e-11
-9.6806e-19
7.53557e-13
-1.98997e-11
1.87125e-17
9.52082e-13
-2.29398e-11
-6.93751e-18
1.18299e-12
-2.61885e-11
1.7861e-17
1.44855e-12
-2.96556e-11
1.06297e-17
1.7508e-12
-3.33417e-11
2.64395e-18
2.09156e-12
-3.72565e-11
5.08207e-18
2.47225e-12
-4.13989e-11
-5.8186e-19
2.89406e-12
-4.57729e-11
1.53477e-18
3.35773e-12
-5.03792e-11
-4.59019e-18
3.86372e-12
-5.52166e-11
-1.0504e-18
4.412e-12
-6.0279e-11
-1.90364e-18
5.00211e-12
-6.55596e-11
2.65869e-19
5.63313e-12
-7.10537e-11
-3.67912e-20
6.30364e-12
-7.67377e-11
-1.9005e-18
7.01166e-12
-8.26052e-11
-4.37774e-18
7.75446e-12
-8.86263e-11
-7.13003e-18
8.52865e-12
-9.47808e-11
-7.81179e-18
9.32999e-12
-1.01038e-10
-3.39174e-18
1.01533e-11
-1.07351e-10
3.04018e-18
1.09926e-11
-1.137e-10
1.19599e-17
1.18408e-11
-1.20018e-10
1.36235e-17
1.26901e-11
-1.26269e-10
2.73036e-18
1.35324e-11
-1.32396e-10
-2.06449e-17
1.43591e-11
-1.38335e-10
-6.02726e-17
1.51603e-11
-1.44016e-10
-7.47535e-17
1.59237e-11
-1.49358e-10
-1.84781e-17
-1.54285e-10
1.19253e-16
7.17875e-15
-7.0492e-13
1.25966e-19
2.91484e-14
-2.21563e-12
-1.45376e-18
6.64154e-14
-3.8731e-12
7.85218e-19
1.20392e-13
-5.68014e-12
1.33045e-18
1.92114e-13
-7.644e-12
-5.78299e-19
2.83202e-13
-9.77139e-12
-2.68682e-18
3.95047e-13
-1.20709e-11
-3.68626e-18
5.294e-13
-1.45511e-11
-4.3694e-18
6.87933e-13
-1.72187e-11
-1.78568e-17
8.72737e-13
-2.00843e-11
1.39545e-18
1.08519e-12
-2.31526e-11
-2.04542e-17
1.3279e-12
-2.64313e-11
1.70514e-17
1.60272e-12
-2.99305e-11
1.25433e-17
1.91168e-12
-3.36507e-11
1.2753e-17
2.25673e-12
-3.76016e-11
9.16292e-18
2.63951e-12
-4.17819e-11
-5.17554e-18
3.06167e-12
-4.61954e-11
-7.0516e-18
3.52433e-12
-5.08423e-11
-2.14455e-17
4.02839e-12
-5.5721e-11
-2.19962e-17
4.57429e-12
-6.0825e-11
-1.25309e-17
5.16172e-12
-6.61471e-11
-6.45148e-18
5.78997e-12
-7.16821e-11
-4.73275e-18
6.4578e-12
-7.74055e-11
-8.75021e-18
7.1633e-12
-8.33105e-11
-1.68911e-17
7.90373e-12
-8.93664e-11
-2.69432e-17
8.67573e-12
-9.55524e-11
-2.81753e-17
9.47497e-12
-1.01837e-10
-1.44314e-17
1.0296e-11
-1.08172e-10
1.03049e-17
1.11325e-11
-1.14537e-10
3.7056e-17
1.19771e-11
-1.20864e-10
3.81435e-17
1.2822e-11
-1.27115e-10
-1.90304e-18
1.36604e-11
-1.33234e-10
-7.90459e-17
1.44849e-11
-1.39153e-10
-1.78502e-16
1.52864e-11
-1.44804e-10
-1.97791e-16
1.60507e-11
-1.50107e-10
-4.06466e-17
-1.54989e-10
3.10151e-16
6.99581e-15
-7.11916e-13
-2.57994e-20
2.83046e-14
-2.23695e-12
1.02521e-19
6.46753e-14
-3.90948e-12
1.61458e-19
1.17339e-13
-5.73286e-12
-3.9284e-18
1.87773e-13
-7.71443e-12
6.75809e-20
2.77646e-13
-9.86131e-12
-8.93482e-18
3.88822e-13
-1.21821e-11
-3.40755e-18
5.23428e-13
-1.46857e-11
4.27479e-18
6.83394e-13
-1.73786e-11
-7.10587e-19
8.71016e-13
-2.02719e-11
3.01401e-18
1.08837e-12
-2.33698e-11
-2.90654e-18
1.33786e-12
-2.66803e-11
3.19207e-17
1.62065e-12
-3.02135e-11
-7.2626e-18
1.93924e-12
-3.39694e-11
2.28487e-17
2.2952e-12
-3.79576e-11
1.10302e-17
2.68974e-12
-4.21767e-11
-9.22053e-18
3.1242e-12
-4.66301e-11
-1.09358e-17
3.59938e-12
-5.13178e-11
-2.36034e-17
4.11584e-12
-5.62379e-11
-2.45869e-17
4.67384e-12
-6.13834e-11
-1.33945e-17
5.27301e-12
-6.67466e-11
-3.19757e-18
5.91256e-12
-7.2322e-11
-2.17346e-18
6.59117e-12
-7.80843e-11
-1.26005e-17
7.30683e-12
-8.40261e-11
-3.24242e-17
8.05685e-12
-9.01162e-11
-5.3665e-17
8.83793e-12
-9.63329e-11
-5.61203e-17
9.64567e-12
-1.02644e-10
-2.92846e-17
1.04743e-11
-1.09001e-10
2.05407e-17
1.1317e-11
-1.15381e-10
6.74132e-17
1.2166e-11
-1.21717e-10
6.49373e-17
1.30139e-11
-1.27967e-10
-1.36465e-17
1.38546e-11
-1.34075e-10
-1.53353e-16
1.46821e-11
-1.39972e-10
-3.00444e-16
1.54873e-11
-1.4559e-10
-3.06948e-16
1.62547e-11
-1.50853e-10
-4.58976e-17
-1.55691e-10
4.95049e-16
8.20053e-15
-7.20116e-13
1.22196e-19
3.3184e-14
-2.26193e-12
-4.36574e-19
7.57443e-14
-3.95205e-12
1.11277e-18
1.36981e-13
-5.79414e-12
-2.00525e-18
2.18096e-13
-7.79553e-12
1.32701e-18
3.20351e-13
-9.96361e-12
-8.78741e-18
4.45118e-13
-1.23069e-11
-4.73651e-18
5.93953e-13
-1.48345e-11
5.37579e-19
7.68229e-13
-1.75529e-11
-1.86624e-18
9.69674e-13
-2.04734e-11
-3.96374e-18
1.20001e-12
-2.36001e-11
-2.45373e-17
1.46136e-12
-2.69413e-11
6.83974e-18
1.75465e-12
-3.0507e-11
-2.30316e-17
2.08256e-12
-3.42973e-11
2.39951e-17
2.44677e-12
-3.83219e-11
1.24051e-17
2.84875e-12
-4.25789e-11
-7.31641e-18
3.29017e-12
-4.70716e-11
-8.70609e-18
3.7721e-12
-5.17999e-11
-1.93832e-17
4.29534e-12
-5.67614e-11
-1.70439e-17
4.86032e-12
-6.19486e-11
-5.81129e-18
5.46685e-12
-6.73535e-11
4.04964e-18
6.11419e-12
-7.29697e-11
6.71769e-18
6.80094e-12
-7.87714e-11
-2.45903e-18
7.52493e-12
-8.47503e-11
-2.45397e-17
8.28338e-12
-9.08745e-11
-5.06806e-17
9.07299e-12
-9.71216e-11
-5.72271e-17
9.88923e-12
-1.03459e-10
-2.90124e-17
1.07259e-11
-1.09837e-10
2.95948e-17
1.15757e-11
-1.16233e-10
8.46494e-17
1.24303e-11
-1.22577e-10
7.79952e-17
1.32827e-11
-1.28826e-10
-2.67164e-17
1.41272e-11
-1.34921e-10
-2.04876e-16
1.4958e-11
-1.40793e-10
-3.67148e-16
1.57657e-11
-1.46376e-10
-3.45874e-16
1.65338e-11
-1.51598e-10
-1.65363e-17
-1.56392e-10
6.12522e-16
8.05572e-15
-7.28173e-13
-1.12034e-20
3.27077e-14
-2.28659e-12
-5.19584e-19
7.49175e-14
-3.99426e-12
1.84215e-18
1.35896e-13
-5.85513e-12
2.05117e-18
2.17099e-13
-7.8767e-12
2.76763e-18
3.20013e-13
-1.00666e-11
-1.40586e-17
4.46466e-13
-1.24334e-11
-1.02903e-17
5.98362e-13
-1.49864e-11
-7.87752e-18
7.77473e-13
-1.77321e-11
-4.72337e-18
9.85799e-13
-2.06817e-11
-5.5268e-18
1.22524e-12
-2.38395e-11
-2.23714e-17
1.49797e-12
-2.72136e-11
1.27744e-17
1.80474e-12
-3.08141e-11
-2.25522e-17
2.14809e-12
-3.46406e-11
2.93128e-17
2.52923e-12
-3.8703e-11
1.77619e-17
2.94926e-12
-4.2999e-11
-3.36584e-19
3.40945e-12
-4.75318e-11
2.23349e-19
3.91042e-12
-5.2301e-11
-1.27757e-17
4.45272e-12
-5.73039e-11
-9.19698e-18
5.0366e-12
-6.25326e-11
4.54893e-18
5.66166e-12
-6.79786e-11
1.10463e-17
6.32714e-12
-7.36352e-11
1.67668e-17
7.03151e-12
-7.94757e-11
1.81653e-17
7.7724e-12
-8.54913e-11
7.76775e-18
8.54686e-12
-9.16489e-11
-1.54375e-17
9.35161e-12
-9.79257e-11
-2.97827e-17
1.01821e-11
-1.04288e-10
-1.30114e-17
1.10322e-11
-1.10687e-10
3.62314e-17
1.18939e-11
-1.17097e-10
8.49364e-17
1.2759e-11
-1.23448e-10
7.25012e-17
1.36201e-11
-1.29694e-10
-3.95134e-17
1.44715e-11
-1.35774e-10
-2.18634e-16
1.53071e-11
-1.41619e-10
-3.60234e-16
1.61167e-11
-1.47165e-10
-3.0647e-16
1.68835e-11
-1.52344e-10
3.70813e-17
-1.57091e-10
6.38034e-16
8.98455e-15
-7.37158e-13
-2.01819e-19
3.64912e-14
-2.31411e-12
-9.13032e-19
8.35668e-14
-4.04133e-12
9.9539e-19
1.51381e-13
-5.92295e-12
3.11132e-18
2.41245e-13
-7.96652e-12
4.14395e-18
3.54404e-13
-1.01798e-11
-7.36212e-18
4.92364e-13
-1.25713e-11
-1.30301e-19
6.56643e-13
-1.51506e-11
8.25759e-18
8.48691e-13
-1.79241e-11
-1.94254e-18
1.07014e-12
-2.09033e-11
-8.50154e-18
1.32269e-12
-2.40921e-11
-2.47679e-17
1.60841e-12
-2.74991e-11
9.3344e-18
1.92808e-12
-3.1134e-11
-2.51538e-17
2.28438e-12
-3.49968e-11
2.91038e-17
2.67864e-12
-3.90971e-11
2.11812e-17
3.1122e-12
-4.34325e-11
8.54742e-18
3.58647e-12
-4.8006e-11
9.45551e-18
4.1022e-12
-5.28168e-11
-5.24389e-18
4.66004e-12
-5.78618e-11
-2.90604e-18
5.26022e-12
-6.31328e-11
5.68758e-18
5.90235e-12
-6.86206e-11
1.21457e-17
6.58561e-12
-7.43181e-11
2.09858e-17
7.30822e-12
-8.01979e-11
2.78204e-17
8.06739e-12
-8.62504e-11
2.64339e-17
8.85979e-12
-9.24416e-11
1.18445e-17
9.68184e-12
-9.87477e-11
-1.49036e-18
1.0529e-11
-1.05134e-10
6.8593e-18
1.13949e-11
-1.11552e-10
3.74662e-17
1.22715e-11
-1.17975e-10
6.56836e-17
1.31503e-11
-1.24331e-10
4.38832e-17
1.40236e-11
-1.30572e-10
-5.55412e-17
1.48845e-11
-1.36636e-10
-1.9744e-16
1.57257e-11
-1.42453e-10
-2.87853e-16
1.65363e-11
-1.47961e-10
-2.08716e-16
1.73e-11
-1.53093e-10
9.07433e-17
-1.57788e-10
5.59188e-16
9.04538e-15
-7.46203e-13
3.18606e-19
3.68403e-14
-2.34191e-12
-1.09854e-18
8.45515e-14
-4.08906e-12
-1.21319e-18
1.53544e-13
-5.99195e-12
-1.60208e-18
2.453e-13
-8.0583e-12
-1.02316e-18
3.61448e-13
-1.0296e-11
-3.6771e-18
5.03697e-13
-1.27137e-11
7.96066e-18
6.73621e-13
-1.53209e-11
-1.74823e-17
8.73834e-13
-1.81241e-11
2.40162e-17
1.10537e-12
-2.11348e-11
-2.44138e-17
1.37024e-12
-2.43571e-11
-2.7386e-17
1.67058e-12
-2.77991e-11
7.88337e-18
2.00707e-12
-3.14708e-11
-2.60733e-17
2.38217e-12
-3.53719e-11
2.66403e-17
2.79693e-12
-3.95117e-11
1.90626e-17
3.25233e-12
-4.38878e-11
9.9911e-18
3.74944e-12
-4.85029e-11
9.23574e-18
4.28869e-12
-5.3356e-11
-4.69053e-18
4.87045e-12
-5.84436e-11
-5.52465e-18
5.49473e-12
-6.37571e-11
-2.73193e-18
6.16101e-12
-6.92869e-11
-4.48119e-18
6.86846e-12
-7.50252e-11
9.13589e-19
7.61518e-12
-8.09439e-11
1.62254e-17
8.39809e-12
-8.70329e-11
3.47361e-17
9.21341e-12
-9.3257e-11
4.22973e-17
1.00572e-11
-9.95918e-11
3.86778e-17
1.09247e-11
-1.06002e-10
3.43624e-17
1.18098e-11
-1.12437e-10
3.38397e-17
1.27048e-11
-1.18871e-10
2.851e-17
1.36009e-11
-1.25228e-10
-4.3346e-18
1.44895e-11
-1.31463e-10
-7.41417e-17
1.53623e-11
-1.37508e-10
-1.50523e-16
1.621e-11
-1.43296e-10
-1.72314e-16
1.7021e-11
-1.48764e-10
-8.16857e-17
1.77806e-11
-1.53847e-10
1.21759e-16
-1.58482e-10
3.8279e-16
9.82099e-15
-7.56024e-13
-1.06678e-19
4.00188e-14
-2.37211e-12
-1.17456e-19
9.18498e-14
-4.14091e-12
-2.07013e-18
1.66686e-13
-6.0668e-12
-3.27145e-19
2.65975e-13
-8.15759e-12
-1.02959e-19
3.91227e-13
-1.04212e-11
3.45276e-18
5.43985e-13
-1.28664e-11
1.75288e-17
7.25609e-13
-1.55028e-11
-2.74414e-18
9.38567e-13
-1.83368e-11
2.58832e-17
1.18369e-12
-2.138e-11
-2.76536e-17
1.46294e-12
-2.46365e-11
-3.08389e-17
1.77842e-12
-2.81144e-11
3.49202e-18
2.13088e-12
-3.18237e-11
-3.09187e-17
2.52287e-12
-3.57639e-11
1.99367e-17
2.9556e-12
-3.99443e-11
1.34108e-17
3.43016e-12
-4.43623e-11
5.17097e-18
3.9477e-12
-4.90203e-11
4.79201e-18
4.50866e-12
-5.3917e-11
-7.40417e-18
5.11331e-12
-5.90485e-11
-9.35885e-18
5.76154e-12
-6.44055e-11
-8.2103e-18
6.45269e-12
-6.9978e-11
-1.1002e-17
7.18577e-12
-7.57577e-11
-8.29748e-18
7.95871e-12
-8.17157e-11
7.67008e-18
8.76795e-12
-8.78412e-11
2.93392e-17
9.60911e-12
-9.40982e-11
4.85515e-17
1.04776e-11
-1.00461e-10
5.6751e-17
1.13685e-11
-1.06894e-10
5.01705e-17
1.22758e-11
-1.13345e-10
2.81346e-17
1.31919e-11
-1.19787e-10
-7.07926e-18
1.41082e-11
-1.26144e-10
-4.96035e-17
1.50148e-11
-1.32368e-10
-8.34464e-17
1.59013e-11
-1.38393e-10
-8.47476e-17
1.67564e-11
-1.4415e-10
-3.73532e-17
1.75682e-11
-1.49576e-10
4.46527e-17
1.83235e-11
-1.54606e-10
1.16616e-16
-1.59173e-10
1.35112e-16
1.00893e-14
-7.66113e-13
2.39223e-19
4.11687e-14
-2.4032e-12
-1.05592e-18
9.46253e-14
-4.19437e-12
-4.11776e-19
1.72004e-13
-6.14417e-12
1.17212e-18
2.7493e-13
-8.26051e-12
1.56958e-18
4.05126e-13
-1.05514e-11
-1.38425e-18
5.64419e-13
-1.30257e-11
1.30813e-17
7.54397e-13
-1.5693e-11
-1.14876e-17
9.77771e-13
-1.85598e-11
2.1476e-17
1.23554e-12
-2.16378e-11
-2.98021e-17
1.52973e-12
-2.49307e-11
-3.40988e-17
1.86247e-12
-2.84469e-11
1.72539e-18
2.2344e-12
-3.2196e-11
-3.29803e-17
2.64795e-12
-3.61774e-11
1.90828e-17
3.10408e-12
-4.04003e-11
1.06928e-17
3.60369e-12
-4.48619e-11
3.23575e-18
4.14767e-12
-4.95642e-11
6.55867e-20
4.73624e-12
-5.45056e-11
-9.58839e-18
5.36938e-12
-5.96819e-11
-1.20713e-17
6.04676e-12
-6.50833e-11
-9.41021e-18
6.76756e-12
-7.06991e-11
-1.99608e-17
7.53067e-12
-7.65205e-11
-2.92685e-17
8.33388e-12
-8.25178e-11
-2.04403e-17
9.1733e-12
-8.86794e-11
7.77681e-18
1.0044e-11
-9.49686e-11
4.47393e-17
1.09408e-11
-1.01359e-10
7.05646e-17
1.18584e-11
-1.07813e-10
6.4593e-17
1.27908e-11
-1.14278e-10
2.18102e-17
1.3731e-11
-1.20726e-10
-4.02819e-17
1.46699e-11
-1.2708e-10
-8.5977e-17
1.55965e-11
-1.3329e-10
-7.92406e-17
1.64982e-11
-1.39293e-10
-8.25192e-18
1.73619e-11
-1.45016e-10
9.34283e-17
1.81752e-11
-1.50398e-10
1.45973e-16
1.89274e-11
-1.55368e-10
7.26752e-17
-1.59858e-10
-1.43285e-16
1.07982e-14
-7.76912e-13
6.63868e-20
4.40845e-14
-2.4365e-12
-1.5045e-18
1.01362e-13
-4.25166e-12
-7.07095e-19
1.84231e-13
-6.22701e-12
2.42304e-18
2.94326e-13
-8.37059e-12
2.2261e-18
4.33344e-13
-1.06904e-11
-8.51729e-19
6.03056e-13
-1.31955e-11
1.20876e-17
8.04973e-13
-1.58953e-11
-1.60793e-17
1.04176e-12
-1.87963e-11
2.27226e-17
1.31438e-12
-2.19104e-11
-2.58172e-17
1.62483e-12
-2.52412e-11
-2.62838e-17
1.97526e-12
-2.8797e-11
9.10536e-18
2.36642e-12
-3.25875e-11
-2.93252e-17
2.80075e-12
-3.66117e-11
1.58318e-17
3.2793e-12
-4.08789e-11
6.99092e-18
3.80305e-12
-4.53857e-11
-2.84383e-18
4.3729e-12
-5.0134e-11
-5.76738e-18
4.98905e-12
-5.51218e-11
-1.2189e-17
5.65126e-12
-6.03444e-11
-1.10625e-17
6.35893e-12
-6.57915e-11
-9.73424e-18
7.1111e-12
-7.14517e-11
-1.91585e-17
7.90648e-12
-7.73156e-11
-3.18538e-17
8.74248e-12
-8.33525e-11
-2.94403e-17
9.61479e-12
-8.95503e-11
-3.57479e-18
1.05179e-11
-9.58713e-11
3.71089e-17
1.14459e-11
-1.02288e-10
7.05884e-17
1.23932e-11
-1.08763e-10
6.76631e-17
1.33538e-11
-1.1524e-10
1.54914e-17
1.43206e-11
-1.21692e-10
-5.84021e-17
1.52843e-11
-1.28038e-10
-9.83531e-17
1.62324e-11
-1.34233e-10
-5.52228e-17
1.71503e-11
-1.40209e-10
6.964e-17
1.80236e-11
-1.45896e-10
1.9894e-16
1.88401e-11
-1.51229e-10
2.03306e-16
1.95908e-11
-1.56134e-10
-5.52186e-18
-1.60538e-10
-4.07849e-16
1.12226e-14
-7.88133e-13
-2.44544e-19
4.58879e-14
-2.47117e-12
-3.66686e-19
1.05626e-13
-4.31141e-12
-2.00874e-18
1.92173e-13
-6.31357e-12
1.40416e-18
3.07378e-13
-8.48578e-12
1.06682e-18
4.53073e-13
-1.08362e-11
-2.9266e-18
6.31266e-13
-1.33737e-11
6.96561e-18
8.43717e-13
-1.6108e-11
-1.14791e-17
1.09311e-12
-1.90455e-11
1.89002e-17
1.38069e-12
-2.2198e-11
-1.6736e-17
1.70847e-12
-2.55691e-11
-2.00444e-17
2.07848e-12
-2.91669e-11
2.01903e-18
2.49184e-12
-3.30011e-11
-1.8533e-17
2.95051e-12
-3.70704e-11
1.23503e-17
3.45547e-12
-4.13838e-11
4.30594e-18
4.00756e-12
-4.59378e-11
-5.75349e-18
4.60752e-12
-5.07339e-11
-1.0973e-17
5.25543e-12
-5.57697e-11
-1.26114e-17
5.95069e-12
-6.104e-11
-1.07712e-17
6.6925e-12
-6.65339e-11
-4.78337e-18
7.47972e-12
-7.22395e-11
-1.78884e-17
8.31081e-12
-7.81465e-11
-3.73962e-17
9.18287e-12
-8.42233e-11
-3.99953e-17
1.00911e-11
-9.04572e-11
-1.28494e-17
1.10295e-11
-9.68095e-11
3.184e-17
1.19918e-11
-1.03252e-10
6.96957e-17
1.29719e-11
-1.09746e-10
6.57357e-17
1.39635e-11
-1.16233e-10
8.04342e-18
1.49595e-11
-1.22685e-10
-6.59573e-17
1.59497e-11
-1.29022e-10
-9.02369e-17
1.69203e-11
-1.35197e-10
-1.5788e-17
1.78553e-11
-1.41143e-10
1.38102e-16
1.87394e-11
-1.4679e-10
2.62779e-16
1.95611e-11
-1.52069e-10
2.08021e-16
2.03125e-11
-1.56901e-10
-1.04344e-16
-1.61212e-10
-6.14733e-16
1.19372e-14
-8.0007e-13
3.07669e-19
4.88273e-14
-2.50807e-12
-1.77735e-18
1.12415e-13
-4.37501e-12
-3.38078e-20
2.04525e-13
-6.40568e-12
-3.51457e-19
3.27068e-13
-8.60831e-12
3.90892e-18
4.81917e-13
-1.0991e-11
-4.16063e-18
6.71089e-13
-1.35629e-11
7.8553e-18
8.96352e-13
-1.63335e-11
-1.76701e-17
1.16041e-12
-1.93094e-11
2.04682e-17
1.46456e-12
-2.25022e-11
-1.61808e-17
1.8108e-12
-2.59155e-11
-1.33926e-17
2.20123e-12
-2.95572e-11
8.06356e-18
2.63706e-12
-3.34371e-11
-1.35547e-17
3.12023e-12
-3.75535e-11
1.22064e-17
3.65176e-12
-4.19154e-11
4.94147e-18
4.23255e-12
-4.65187e-11
-5.33531e-18
4.86324e-12
-5.13646e-11
-9.40003e-18
5.54385e-12
-5.64503e-11
-7.5469e-18
6.27357e-12
-6.17701e-11
-4.03825e-18
7.05134e-12
-6.73124e-11
-3.12848e-18
7.87581e-12
-7.30645e-11
-1.5676e-17
8.74507e-12
-7.90155e-11
-3.59133e-17
9.65576e-12
-8.51327e-11
-3.91832e-17
1.06026e-11
-9.14027e-11
-1.47823e-17
1.15789e-11
-9.77859e-11
2.76289e-17
1.25781e-11
-1.04253e-10
6.34477e-17
1.35938e-11
-1.10764e-10
5.75601e-17
1.46193e-11
-1.1726e-10
2.12813e-18
1.56467e-11
-1.2371e-10
-5.97301e-17
1.66647e-11
-1.30034e-10
-6.31463e-17
1.76585e-11
-1.36184e-10
3.07544e-17
1.86112e-11
-1.42097e-10
1.84006e-16
1.95077e-11
-1.47698e-10
2.74848e-16
2.03367e-11
-1.52916e-10
1.60753e-16
2.10909e-11
-1.5767e-10
-2.07361e-16
-1.61881e-10
-7.32889e-16
1.25105e-14
-8.1258e-13
-1.4788e-19
5.12161e-14
-2.54679e-12
-8.19074e-19
1.18001e-13
-4.4418e-12
-1.00334e-18
2.14841e-13
-6.5025e-12
4.51981e-18
3.43781e-13
-8.73722e-12
2.24106e-18
5.06843e-13
-1.11541e-11
-4.06023e-18
7.06249e-13
-1.37623e-11
1.65882e-18
9.43898e-13
-1.65715e-11
-2.33291e-17
1.22272e-12
-1.9588e-11
1.34897e-17
1.54407e-12
-2.28235e-11
-1.73896e-17
1.91005e-12
-2.62815e-11
-1.91107e-17
2.3228e-12
-2.99698e-11
9.7902e-18
2.78344e-12
-3.38979e-11
-1.43381e-17
3.2939e-12
-3.8064e-11
1.6822e-17
3.85511e-12
-4.24767e-11
5.82931e-18
4.46785e-12
-4.71316e-11
-1.28222e-19
5.13255e-12
-5.20294e-11
-8.44762e-18
5.8491e-12
-5.7167e-11
-2.6443e-18
6.61646e-12
-6.25378e-11
-1.43102e-18
7.43331e-12
-6.81299e-11
-2.33317e-18
8.29807e-12
-7.39297e-11
-1.88995e-17
9.2085e-12
-7.99255e-11
-3.65584e-17
1.01607e-11
-8.60837e-11
-3.44613e-17
1.11488e-11
-9.23898e-11
-7.26977e-18
1.21657e-11
-9.88033e-11
3.02788e-17
1.32045e-11
-1.05294e-10
5.53012e-17
1.42585e-11
-1.1182e-10
4.22425e-17
1.53204e-11
-1.18322e-10
-5.46573e-18
1.63812e-11
-1.24767e-10
-4.50165e-17
1.74282e-11
-1.31074e-10
-2.37051e-17
1.84458e-11
-1.37198e-10
7.6413e-17
1.9417e-11
-1.43071e-10
2.01277e-16
2.0327e-11
-1.48621e-10
2.3601e-16
2.11653e-11
-1.53771e-10
7.28779e-17
2.1924e-11
-1.58438e-10
-2.95333e-16
-1.62543e-10
-7.45585e-16
1.32807e-14
-8.25861e-13
1.26348e-19
5.43639e-14
-2.58788e-12
-1.50475e-18
1.25253e-13
-4.5127e-12
3.26505e-19
2.28033e-13
-6.60526e-12
2.25419e-18
3.64849e-13
-8.87401e-12
5.28607e-18
5.37815e-13
-1.13271e-11
-4.05911e-18
7.49205e-13
-1.39738e-11
8.38727e-18
1.00097e-12
-1.68235e-11
-2.18376e-17
1.29611e-12
-1.98829e-11
1.37907e-17
1.63605e-12
-2.31634e-11
-2.62096e-17
2.02292e-12
-2.66684e-11
-2.27338e-17
2.45893e-12
-3.04056e-11
1.1526e-18
2.94527e-12
-3.43845e-11
-2.38931e-17
3.48389e-12
-3.86027e-11
1.85521e-19
4.07571e-12
-4.30687e-11
-7.94778e-18
4.72154e-12
-4.77776e-11
-6.60717e-18
5.42157e-12
-5.27296e-11
-1.33377e-17
6.17567e-12
-5.79211e-11
2.07032e-18
6.98253e-12
-6.33451e-11
3.26543e-18
7.84055e-12
-6.89886e-11
-3.4361e-18
8.74793e-12
-7.48375e-11
-1.83533e-17
9.70204e-12
-8.08791e-11
-3.30004e-17
1.06983e-11
-8.70786e-11
-3.05034e-17
1.17301e-11
-9.34209e-11
-4.74357e-18
1.27901e-11
-9.98642e-11
2.93311e-17
1.3871e-11
-1.06377e-10
4.60367e-17
1.49658e-11
-1.12917e-10
2.94331e-17
1.60664e-11
-1.19421e-10
-7.36796e-18
1.71621e-11
-1.25858e-10
-2.33704e-17
1.82393e-11
-1.32146e-10
1.74027e-17
1.92812e-11
-1.38238e-10
1.08022e-16
2.02716e-11
-1.44067e-10
1.83918e-16
2.11965e-11
-1.49557e-10
1.54094e-16
2.20456e-11
-1.54632e-10
-3.69917e-17
2.28095e-11
-1.59205e-10
-3.51661e-16
-1.63199e-10
-6.56072e-16
1.3973e-14
-8.39833e-13
-1.05974e-19
5.72638e-14
-2.63118e-12
-7.32678e-19
1.32018e-13
-4.58746e-12
-1.48311e-18
2.40459e-13
-6.7137e-12
2.85403e-18
3.84873e-13
-9.01842e-12
8.7038e-19
5.67566e-13
-1.15099e-11
6.59033e-19
7.90915e-13
-1.41972e-11
9.74716e-18
1.05692e-12
-1.709e-11
-2.68565e-17
1.36906e-12
-2.01947e-11
2.30683e-17
1.72855e-12
-2.35229e-11
-2.85036e-17
2.13767e-12
-2.70776e-11
-1.93335e-17
2.59863e-12
-3.08665e-11
2.24492e-18
3.11286e-12
-3.48987e-11
-1.07148e-17
3.68208e-12
-3.91717e-11
5.54245e-18
4.30715e-12
-4.36937e-11
-7.15811e-18
4.98886e-12
-4.84591e-11
9.3891e-18
5.72696e-12
-5.34678e-11
-1.49754e-17
6.52139e-12
-5.87155e-11
1.19014e-17
7.37055e-12
-6.41946e-11
6.54792e-18
8.27252e-12
-6.98914e-11
-9.77304e-18
9.22529e-12
-7.57907e-11
-2.65441e-17
1.02258e-11
-8.18789e-11
-3.43254e-17
1.12687e-11
-8.81202e-11
-2.23223e-17
1.23468e-11
-9.44987e-11
6.88203e-18
1.34524e-11
-1.00971e-10
3.14603e-17
1.45779e-11
-1.07505e-10
3.36792e-17
1.57158e-11
-1.14055e-10
1.31846e-17
1.68568e-11
-1.2056e-10
-8.35706e-18
1.79891e-11
-1.26986e-10
1.88805e-18
1.90971e-11
-1.33251e-10
5.56425e-17
2.01642e-11
-1.39306e-10
1.21805e-16
2.11747e-11
-1.45084e-10
1.36978e-16
2.21155e-11
-1.50507e-10
4.66526e-17
2.2976e-11
-1.55497e-10
-1.45969e-16
2.37447e-11
-1.59969e-10
-3.64408e-16
-1.63849e-10
-4.8364e-16
1.4827e-14
-8.5466e-13
3.21661e-19
6.07391e-14
-2.6771e-12
-1.77295e-18
1.40009e-13
-4.66674e-12
3.11582e-20
2.54988e-13
-6.82867e-12
5.31684e-19
4.08082e-13
-9.1715e-12
3.30654e-18
6.0172e-13
-1.17035e-11
-3.9983e-19
8.38363e-13
-1.44339e-11
1.53353e-17
1.12011e-12
-1.73722e-11
-2.51076e-17
1.45051e-12
-2.05248e-11
2.38589e-17
1.83089e-12
-2.39033e-11
-3.40825e-17
2.26357e-12
-2.75104e-11
-2.01715e-17
2.75081e-12
-3.13537e-11
-1.79148e-18
3.29414e-12
-3.54421e-11
-1.5837e-17
3.89523e-12
-3.97727e-11
-6.56427e-18
4.55497e-12
-4.43533e-11
-1.70685e-17
5.27411e-12
-4.91779e-11
7.17067e-18
6.05211e-12
-5.4246e-11
-1.6328e-17
6.88881e-12
-5.95523e-11
1.65739e-17
7.7824e-12
-6.50886e-11
8.50519e-18
8.73072e-12
-7.08404e-11
-8.73493e-18
9.73136e-12
-7.67914e-11
-2.45768e-17
1.07806e-11
-8.29274e-11
-3.38322e-17
1.18726e-11
-8.92111e-11
-2.0907e-17
1.29995e-11
-9.56256e-11
9.22784e-18
1.41531e-11
-1.02126e-10
2.92792e-17
1.53255e-11
-1.08679e-10
2.58556e-17
1.65085e-11
-1.15238e-10
6.38645e-18
1.76918e-11
-1.21741e-10
-3.05511e-18
1.88616e-11
-1.28152e-10
2.42724e-17
2.00015e-11
-1.34389e-10
7.86038e-17
2.10946e-11
-1.40402e-10
1.10977e-16
2.2126e-11
-1.46122e-10
6.7252e-17
2.30833e-11
-1.51469e-10
-6.59592e-17
2.39549e-11
-1.56367e-10
-2.30738e-16
2.47268e-11
-1.60731e-10
-3.27502e-16
-1.64492e-10
-2.59765e-16
1.56542e-14
-8.70313e-13
-3.6154e-19
6.41743e-14
-2.72563e-12
-1.8064e-19
1.47982e-13
-4.75055e-12
-1.80072e-18
2.69564e-13
-6.95024e-12
3.24127e-18
4.31478e-13
-9.33341e-12
6.17841e-19
6.36287e-13
-1.19083e-11
-1.0062e-18
8.86629e-13
-1.46842e-11
1.01092e-17
1.18473e-12
-1.76708e-11
-2.79083e-17
1.53429e-12
-2.0874e-11
2.0449e-17
1.93672e-12
-2.43057e-11
-3.11375e-17
2.39444e-12
-2.79682e-11
-2.02497e-17
2.90974e-12
-3.18689e-11
1.93383e-18
3.48416e-12
-3.60166e-11
-1.20408e-17
4.11937e-12
-4.04078e-11
-5.644e-19
4.81619e-12
-4.505e-11
-1.18553e-17
5.57525e-12
-4.99367e-11
1.35245e-17
6.39578e-12
-5.50667e-11
-1.15049e-17
7.27741e-12
-6.04341e-11
1.99669e-17
8.21812e-12
-6.60298e-11
8.75907e-18
9.21545e-12
-7.18383e-11
-1.6608e-17
1.02666e-11
-7.78426e-11
-3.26573e-17
1.13672e-11
-8.40271e-11
-3.33812e-17
1.25108e-11
-9.03536e-11
-1.22034e-17
1.3689e-11
-9.68039e-11
1.73275e-17
1.4893e-11
-1.03332e-10
2.84702e-17
1.61145e-11
-1.09902e-10
1.73292e-17
1.73445e-11
-1.16468e-10
6.56e-19
1.85712e-11
-1.22964e-10
4.46842e-18
1.97796e-11
-1.29357e-10
4.24927e-17
2.09523e-11
-1.35561e-10
8.57472e-17
2.20724e-11
-1.41526e-10
7.92345e-17
2.31255e-11
-1.47181e-10
-1.20052e-17
2.40992e-11
-1.52445e-10
-1.61364e-16
2.49806e-11
-1.57241e-10
-2.72453e-16
2.57533e-11
-1.6149e-10
-2.43856e-16
-1.65126e-10
-2.25341e-17
1.66105e-14
-8.86923e-13
1.06099e-19
6.80733e-14
-2.7771e-12
-7.44954e-19
1.56934e-13
-4.83942e-12
-6.45069e-19
2.85822e-13
-7.07912e-12
1.90885e-18
4.5743e-13
-9.50501e-12
1.43935e-18
6.74456e-13
-1.21254e-11
-1.22104e-18
9.39659e-13
-1.49495e-11
1.01266e-17
1.2554e-12
-1.7987e-11
-2.79405e-17
1.62544e-12
-2.12438e-11
2.13804e-17
2.05131e-12
-2.47315e-11
-2.84119e-17
2.53551e-12
-2.84524e-11
-1.81976e-17
3.08038e-12
-3.24137e-11
2.10443e-18
3.68748e-12
-3.66237e-11
-9.19886e-18
4.35848e-12
-4.10787e-11
3.12261e-18
5.09418e-12
-4.57856e-11
-7.26113e-18
5.89507e-12
-5.07373e-11
1.71957e-17
6.76024e-12
-5.5932e-11
-9.03774e-18
7.68909e-12
-6.13631e-11
2.06359e-17
8.6793e-12
-6.70205e-11
7.83936e-18
9.72807e-12
-7.28877e-11
-1.75431e-17
1.08321e-11
-7.89466e-11
-3.27314e-17
1.19866e-11
-8.51808e-11
-3.16244e-17
1.31843e-11
-9.15504e-11
-1.04346e-17
1.44161e-11
-9.80361e-11
1.73307e-17
1.56728e-11
-1.0459e-10
2.73058e-17
1.69455e-11
-1.11176e-10
1.64669e-17
1.8224e-11
-1.17746e-10
3.62492e-18
1.94954e-11
-1.24233e-10
1.35264e-17
2.07433e-11
-1.30603e-10
4.91851e-17
2.19498e-11
-1.36769e-10
7.21488e-17
2.30978e-11
-1.42679e-10
3.16117e-17
2.41731e-11
-1.48261e-10
-8.50599e-17
2.51626e-11
-1.53432e-10
-2.19892e-16
2.60517e-11
-1.58119e-10
-2.59554e-16
2.68216e-11
-1.62246e-10
-1.2294e-16
-1.6575e-10
1.91322e-16
1.76018e-14
-9.04525e-13
4.84867e-19
7.21086e-14
-2.83161e-12
-1.64661e-18
1.66202e-13
-4.93352e-12
4.29248e-19
3.02674e-13
-7.21557e-12
9.79078e-19
4.84354e-13
-9.68669e-12
3.20301e-18
7.14122e-13
-1.23552e-11
-5.35713e-19
9.94888e-13
-1.52303e-11
1.30518e-17
1.32916e-12
-1.83216e-11
-2.55398e-17
1.72079e-12
-2.16351e-11
2.11013e-17
2.17141e-12
-2.51821e-11
-3.28834e-17
2.68365e-12
-2.89648e-11
-1.87891e-17
3.25991e-12
-3.29899e-11
-2.31568e-18
3.90174e-12
-3.72657e-11
-1.05061e-17
4.61078e-12
-4.17876e-11
1.90293e-18
5.38775e-12
-4.65625e-11
-5.80351e-18
6.23297e-12
-5.15823e-11
1.6081e-17
7.1454e-12
-5.68445e-11
-8.10822e-18
8.12417e-12
-6.23418e-11
2.04908e-17
9.16657e-12
-6.80632e-11
7.5156e-18
1.02694e-11
-7.39911e-11
-2.17634e-17
1.1429e-11
-8.01062e-11
-3.2458e-17
1.264e-11
-8.63908e-11
-2.57446e-17
1.38941e-11
-9.28037e-11
-3.3549e-18
1.5182e-11
-9.93244e-11
2.04671e-17
1.64937e-11
-1.05903e-10
2.71187e-17
1.78194e-11
-1.12503e-10
1.74247e-17
1.91479e-11
-1.19073e-10
1.03815e-17
2.04649e-11
-1.25547e-10
2.217e-17
2.17532e-11
-1.3189e-10
4.56013e-17
2.29942e-11
-1.38012e-10
4.22237e-17
2.41708e-11
-1.4386e-10
-2.33251e-17
2.52684e-11
-1.4936e-10
-1.39565e-16
2.62725e-11
-1.54432e-10
-2.30659e-16
2.71664e-11
-1.59002e-10
-1.92885e-16
2.793e-11
-1.62998e-10
1.63174e-17
-1.66361e-10
3.48865e-16
1.86737e-14
-9.23198e-13
-3.4904e-19
7.64852e-14
-2.88943e-12
9.33611e-20
1.76263e-13
-5.03331e-12
-2.69372e-18
3.20947e-13
-7.36023e-12
3.79644e-18
5.13521e-13
-9.87925e-12
2.59164e-19
7.56998e-13
-1.25987e-11
1.84563e-18
1.05445e-12
-1.55278e-11
1.13005e-17
1.40853e-12
-1.86761e-11
-1.96284e-17
1.82315e-12
-2.20494e-11
2.26209e-17
2.30008e-12
-2.56591e-11
-2.64618e-17
2.84203e-12
-2.95069e-11
-1.54437e-17
3.45142e-12
-3.35992e-11
9.5893e-19
4.12985e-12
-3.79441e-11
-8.30471e-18
4.87892e-12
-4.25365e-11
5.42379e-18
5.69928e-12
-4.73827e-11
-3.25568e-18
6.59109e-12
-5.24738e-11
1.80489e-17
7.55313e-12
-5.78067e-11
-7.86751e-18
8.58422e-12
-6.33729e-11
1.82927e-17
9.68135e-12
-6.91608e-11
3.75432e-18
1.08409e-11
-7.51512e-11
-1.9978e-17
1.20587e-11
-8.13238e-11
-2.97447e-17
1.33285e-11
-8.76597e-11
-2.43445e-17
1.46417e-11
-9.41161e-11
-4.53592e-18
1.5988e-11
-1.00671e-10
1.99197e-17
1.73567e-11
-1.07274e-10
2.86316e-17
1.87372e-11
-1.13884e-10
2.32898e-17
2.01169e-11
-1.20452e-10
1.9752e-17
2.14805e-11
-1.26909e-10
2.64054e-17
2.28098e-11
-1.33218e-10
3.06645e-17
2.40862e-11
-1.3929e-10
2.5976e-18
2.52918e-11
-1.45069e-10
-7.30634e-17
2.64112e-11
-1.5048e-10
-1.63657e-16
2.74279e-11
-1.55443e-10
-1.91845e-16
2.83236e-11
-1.59888e-10
-8.50871e-17
2.90771e-11
-1.63746e-10
1.51059e-16
-1.66957e-10
4.28962e-16
1.98032e-14
-9.43001e-13
3.50441e-19
8.10892e-14
-2.95072e-12
-1.45694e-18
1.86838e-13
-5.13907e-12
-6.05961e-19
3.4015e-13
-7.51353e-12
6.13758e-20
5.44175e-13
-1.00833e-11
3.13532e-18
8.02103e-13
-1.28566e-11
2.37603e-19
1.11715e-12
-1.58428e-11
1.5805e-17
1.49213e-12
-1.90514e-11
-1.96924e-17
1.93106e-12
-2.24881e-11
2.5696e-17
2.43583e-12
-2.61639e-11
-2.80401e-17
3.00924e-12
-3.00804e-11
-1.21927e-17
3.65374e-12
-3.42437e-11
1.4154e-18
4.37094e-12
-3.86614e-11
-4.48992e-18
5.16238e-12
-4.33279e-11
5.56813e-18
6.02861e-12
-4.82488e-11
-5.0706e-19
6.96964e-12
-5.34145e-11
1.89625e-17
7.98398e-12
-5.88211e-11
-4.56818e-18
9.07013e-12
-6.44592e-11
1.76958e-17
1.02248e-11
-7.03158e-11
4.46908e-18
1.14439e-11
-7.63708e-11
-2.22429e-17
1.27225e-11
-8.26022e-11
-2.85395e-17
1.40538e-11
-8.89902e-11
-2.06012e-17
1.54283e-11
-9.549e-11
-1.91575e-18
1.68353e-11
-1.02078e-10
1.94323e-17
1.82632e-11
-1.08703e-10
3.0045e-17
1.97001e-11
-1.15322e-10
3.11088e-17
2.11322e-11
-1.21884e-10
3.08482e-17
2.2543e-11
-1.28319e-10
2.68557e-17
2.39141e-11
-1.34589e-10
7.81326e-18
2.52262e-11
-1.40603e-10
-4.07351e-17
2.64608e-11
-1.46305e-10
-1.10873e-16
2.76008e-11
-1.51618e-10
-1.56491e-16
2.8628e-11
-1.56465e-10
-1.14939e-16
2.95221e-11
-1.60777e-10
4.0531e-17
3.02621e-11
-1.64486e-10
2.56478e-16
-1.67532e-10
4.22866e-16
2.0996e-14
-9.63996e-13
5.70528e-20
8.60032e-14
-3.01574e-12
-3.4184e-19
1.98166e-13
-5.25124e-12
-1.56841e-18
3.60742e-13
-7.67609e-12
2.58859e-18
5.77042e-13
-1.02996e-11
-2.56468e-19
8.50405e-13
-1.313e-11
3.19508e-19
1.18422e-12
-1.61767e-11
9.64931e-18
1.58142e-12
-1.9449e-11
-2.03166e-17
2.0462e-12
-2.29525e-11
2.26422e-17
2.58052e-12
-2.66982e-11
-2.3813e-17
3.18724e-12
-3.06872e-11
-1.26897e-17
3.86887e-12
-3.49252e-11
6.43684e-18
4.62699e-12
-3.94196e-11
-4.8917e-18
5.46308e-12
-4.41639e-11
6.36361e-18
6.37761e-12
-4.91632e-11
-2.56235e-18
7.37039e-12
-5.44071e-11
1.91377e-17
8.43968e-12
-5.98906e-11
-5.48685e-18
9.58364e-12
-6.56033e-11
1.71997e-17
1.07986e-11
-7.15311e-11
2.80916e-18
1.20799e-11
-7.76525e-11
-2.05921e-17
1.34221e-11
-8.39442e-11
-2.81135e-17
1.48174e-11
-9.03848e-11
-2.11262e-17
1.62558e-11
-9.69278e-11
-3.31434e-18
1.77257e-11
-1.03549e-10
1.87122e-17
1.92146e-11
-1.10192e-10
3.21494e-17
2.07094e-11
-1.16817e-10
3.81617e-17
2.21948e-11
-1.23369e-10
3.72712e-17
2.36538e-11
-1.29777e-10
2.15295e-17
2.50671e-11
-1.36002e-10
-1.66498e-17
2.6415e-11
-1.41951e-10
-7.51649e-17
2.76779e-11
-1.47566e-10
-1.2649e-16
2.88368e-11
-1.52774e-10
-1.19491e-16
2.98716e-11
-1.57496e-10
-1.79176e-17