/*--------------------------------*- C++ -*----------------------------------*\
| =========                 |                                                 |
| \\      /  F ield         | OpenFOAM: The Open Source CFD Toolbox           |
|  \\    /   O peration     | Version:  v2006                                 |
|   \\  /    A nd           | Website:  www.openfoam.com                      |
|    \\/     M anipulation  |                                                 |
\*---------------------------------------------------------------------------*/
FoamFile
{
    version     2.0;
    format      ascii;
    class       volScalarField;
    location    "0.02";
    object      p_rgh;
}
// * * * * * * * * * * * * * * * * * * * * * * * * * * * * * * * * * * * * * //

dimensions      [1 -1 -2 0 0 0 0];


internalField   nonuniform List<scalar> 
3585
(
100010
100285
100312
100320
100248
100150
100034
100154
100154
100152
98562.5
100153
100153
100154
100234
100234
100236
100234
100252
100207
100117
99983.2
100005
100478
100541
100035
100106
99519.9
99997.1
99981.2
99987.3
100423
100431
100375
99668
100363
100308
100217
100026
100206
100017
103533
100117
100148
100238
99755.4
100238
101111
99990.1
99776.8
100226
99679.5
99862.9
100237
98596
93873
100179
100251
100186
100212
100182
100237
100235
100237
100201
100204
100201
100198
100236
100023
100239
100014
100045
100202
100226
100032
100221
100240
100228
100228
100236
100024
100105
100069
100559
100432
100256
100245
100356
99996.2
100219
100055
100084
100152
100361
100170
100331
100170
100276
100219
100260
100136
100261
100240
100164
100219
100270
100234
100002
100166
100191
100236
100128
100002
100147
100245
100237
100054
100160
100229
100157
100154
100209
100150
100207
100212
100220
100164
100209
100214
100208
100184
100225
100225
100216
100188
99992.4
99893.3
100200
99999.5
100183
100097
100771
100265
100239
100028
100035
100218
100237
100229
100029
100758
100798
99986.1
98678.4
99979.7
100456
100597
99404.4
100185
99919.7
99934.9
99953.2
99951.3
99913.5
99800.1
99696.4
100245
99596.6
99505.8
100204
100247
100179
100133
100052
100156
100207
100171
100245
100177
100152
108528
100115
100234
100205
100202
100196
100197
100218
100190
100236
100240
100123
100182
100262
100181
100242
100239
100282
100181
100073
100111
100131
100097
100111
100099
100181
100238
100215
100235
100241
99964.8
99926.1
100229
99870.6
99832.8
99889
99907.6
100689
100101
100620
98816.2
100316
100137
99755
100699
100106
100124
100326
100130
99891.4
100156
100123
100174
100237
100238
100152
100169
100126
100196
100111
100216
100208
100200
100232
99739
100247
100231
100176
100231
100236
100064
100048
100241
100292
106457
100036
100156
100202
100200
100182
100246
100234
100239
100156
100130
100246
100815
100192
100124
99698.1
99509.2
99982
100315
100095
100242
100148
100223
100224
100224
100214
100197
100192
100187
100231
100033
100179
100031
100031
100048
99981
99821.3
100225
100192
100256
100180
100181
100180
100220
100169
100240
100095
100024
100161
100027
100157
100160
100155
100029
100037
100189
100037
100250
100243
99801.6
100238
100367
100031
100240
100239
100270
100002
100239
100288
99990.5
99994.6
99194.7
100114
99894.1
100239
100027
100221
99899.8
100226
99943.7
100226
100486
100227
100227
100228
100228
100043
100408
100238
100211
100180
100252
100241
100377
100237
100211
100147
100141
100207
100188
100194
100197
100247
100153
100297
99933.6
99684.5
99975.5
100188
100214
100001
100243
100245
100253
100246
100194
100192
100252
101131
100151
99256.1
100887
101101
99271.3
100171
100145
100188
99740.1
100171
100227
100087
100149
100244
99681
99942.9
100466
100167
100237
100186
100045
100066
100074
100013
100231
100183
100202
100201
100200
100198
100199
100201
100270
100249
100151
100201
100256
100129
100230
100229
100250
100224
100247
100240
100263
100251
100247
100269
100242
100239
100234
100320
100269
100176
100289
100249
100195
100121
100221
100239
100220
100147
100239
100232
100289
100247
100442
100235
100222
100240
100019
100388
100353
100404
99745.4
100175
100149
100336
100200
100228
100179
100101
101392
100241
100607
100227
100230
100228
100143
100181
101415
101444
100266
100149
99530.2
99527.1
99632.8
100237
100111
100230
100197
100221
100236
99754.8
100150
100155
100236
100236
100238
100212
98026.5
98641.4
100131
100147
100165
100175
100298
100168
100154
100164
100143
100231
100161
100159
100167
100230
100236
100125
100200
100157
100238
100236
100381
100229
99882.3
100235
100237
100237
100157
100334
100236
100241
100110
100270
100241
100255
100205
100163
100201
100237
99622.8
100235
99572.4
100207
99436.1
100235
100624
100223
100227
100235
100234
100169
100254
100230
100154
100251
100217
100178
100157
100172
100890
100567
100609
100130
99942.7
100882
99993.3
99938.6
100017
100184
100402
100099
100180
99550.7
99669.2
100240
100186
100190
100205
100252
100240
100240
100240
100240
100181
100066
100182
100266
100183
100168
100247
99871.2
100061
99316.2
99551.5
99277.4
99664.5
99749.2
100239
99869.6
100169
100155
100213
100238
100077
100248
100241
100074
100001
100216
100238
100237
100225
100196
100204
100195
100224
100156
99984.7
100552
100207
100344
100234
100166
100153
100162
100143
100151
100134
100187
100247
100239
100308
99978.2
100238
100239
100240
100197
100243
100064
100237
100071
100100
100188
100191
100264
100159
100167
100165
100168
100191
100202
100206
100236
99202.6
100237
100235
100235
100247
100209
100237
99907.9
100237
100245
100241
100256
100236
100239
99611.1
100579
100221
100054
100088
100060
99983.1
100156
100167
99905.2
99867.2
100019
100237
99970.8
100179
100187
100235
100230
100185
100130
100098
100190
100236
100132
100239
99721.9
100235
100207
100215
99959
99755.6
100238
100209
100102
99306.3
100151
100240
100236
99735.3
100156
99151
100167
99163.5
100165
100278
100196
100291
100148
100231
100224
100227
100226
100231
100203
100233
99997.8
99893.3
99894.6
100228
100277
100318
100351
100357
101054
99862
100060
99253.7
100326
100332
100148
100277
100266
100356
100138
100077
100274
100161
100276
100061
100059
100068
100070
100151
100145
99990.7
100240
100238
100244
100277
100098
100152
100155
100153
100234
100152
100233
100225
100267
100230
100151
100157
100158
100257
100141
100099
100262
100255
100128
100207
100262
100221
100220
100209
100205
100256
100262
100241
100245
100244
100155
100265
100239
100249
100198
100199
100193
100196
100158
100217
100284
98859.3
99487.8
99993.8
99625.5
100217
100164
100171
100150
100244
100223
100005
100159
100160
100223
100229
100237
100605
100214
100239
100374
100241
100015
100239
100209
100061
100059
100284
100318
100138
100169
100099
100188
100255
100244
100127
100091
100167
99760.9
100192
100162
100209
100249
100249
100158
100249
100183
100246
100069
100333
100290
98726.6
100144
100260
100042
99996.5
100220
100214
100100
100099
99492.4
99264.8
100293
100177
100193
100149
100505
99927.8
99712.3
100197
100094
100146
100232
100193
100001
100005
100120
100238
100602
100243
100205
100247
100211
100217
100177
100175
100210
100206
100212
100210
100213
100301
100232
100227
100152
100257
100152
100193
100112
100114
100143
99275.8
100207
100227
100227
100089
100227
100225
100227
100234
100202
100218
100242
100201
100203
100209
100236
100243
100201
100232
100023
100233
100241
100291
100235
100209
100240
100202
100137
100137
100117
100353
100282
100287
100240
100239
100240
100089
100164
100176
100170
100174
100231
100237
100236
100350
100242
100245
100027
100015
100093
100119
100162
100210
100230
100470
100234
100161
100238
100162
100162
100163
99740.1
100472
100163
100125
100067
100125
100236
99771.3
100034
100237
100087
100398
100213
100041
100236
100075
100068
100153
100079
100230
100215
100082
100081
100004
100179
100105
100136
99828.2
100455
100050
100222
100223
100217
100217
100192
100186
100197
100244
100192
100303
100187
98993.6
100014
100084
99743.3
100636
100160
100160
100158
100159
100255
100156
100188
100229
99734.8
98667.7
100200
100237
100233
100236
100236
100234
100237
100237
100226
99805.1
100220
100223
100015
100219
100088
100173
100222
100067
100303
99934.6
100184
100000
100083
100067
100105
100155
100124
100461
100125
100125
100114
100231
100003
100247
100571
100183
100186
100172
100136
100141
100570
100062
100234
100232
100236
100235
100477
100438
100392
100209
100042
100397
100510
99760.2
100278
100322
99682.1
99687.4
100312
100313
100305
100013
100053
100068
99949.7
99914.1
100158
99938.5
100178
100212
100209
100174
100114
100228
100236
100238
100215
100225
100229
100239
100268
100143
99918.4
100014
100021
99983.2
100021
100240
100015
100768
100134
100146
100145
100147
100194
100196
100229
100142
100242
100233
106482
100161
100262
100161
100142
100146
100178
100178
100155
100180
100183
100231
100217
100242
100126
100185
100317
100154
100267
100284
99050.9
98635.1
99700.6
99934
100320
100300
100186
100195
100171
100153
99906
99367.5
100220
100237
100161
100006
100155
100310
100153
100044
100033
100275
100104
100085
100086
100074
100170
100161
100179
100169
100201
100215
100237
100242
100107
99641.2
100171
100146
100144
100137
100760
100150
100198
100241
100238
100165
100240
100162
100204
100208
100241
99666
100239
99978.7
100243
100107
100189
100179
100091
100083
100101
100141
100178
100198
100249
100171
100214
100207
100239
100230
100235
100224
100213
100702
100420
100195
100538
100257
100198
100222
99939.9
100045
99651.3
100154
100272
100280
100277
100246
100180
100161
100173
100249
100251
100249
100173
100082
100178
100025
100248
100250
100169
100178
100110
100171
100193
99831.8
100236
100201
100236
100351
100230
99594.4
100228
100010
100201
100248
100364
100141
100141
100192
100196
100181
98423.2
100196
100149
100220
100156
100222
100218
100227
100149
100246
100287
100217
100152
100127
100531
100186
100435
100357
100260
100235
100237
100020
100042
100105
100238
100103
100237
100114
100066
100079
100137
100115
100245
100237
100241
100247
100474
100371
100180
100094
100206
100227
100096
100235
100212
100219
100230
100228
100277
100256
100240
100263
100188
100395
100340
100179
100019
100078
98812.3
99742.1
100014
100179
100177
99778.3
100280
100270
100166
100091
99100
100062
100157
100151
100253
100229
100004
100202
100196
100117
100170
99941
100163
100438
100492
100559
99748.8
99139.1
99913.8
100131
100148
100185
100191
100176
100190
100248
100245
100245
99861.1
100037
100247
100243
100320
100139
100202
100449
100150
100165
100237
100233
100217
100225
100024
100007
100022
100006
100201
100195
98254.9
100206
100198
100328
99990.3
100257
100260
100153
100189
100196
100220
100234
100138
100157
100157
100225
100237
100212
100237
100129
100238
100590
100240
100211
100205
100238
100228
100205
99930
100137
100183
100170
100242
100237
100244
100246
100244
100151
100161
100237
100225
100213
101269
100187
100226
100199
100221
100219
100226
100215
100231
100171
100235
100138
100168
100023
100009
100010
100218
100218
100015
100189
100189
100237
100197
100217
100189
100234
99455.4
100238
100238
99719.9
100839
99677.9
100233
100301
100268
100910
100228
100184
100182
100180
100002
99996.1
100235
100236
100150
100087
98165.4
100042
100202
100171
101501
100245
100128
99989.6
100146
100167
100167
100148
99374.8
100177
100188
100176
100246
100221
100243
100238
100237
100436
100185
100204
100204
100176
100236
100087
100241
100344
100152
100204
100148
100208
100158
100226
100221
100237
100235
100232
100242
100208
100174
100178
99981.2
100167
100088
100011
100001
100561
100208
99790.8
99998.7
100574
100236
100433
100645
100081
100075
100080
100080
100075
100222
100173
100201
100190
100258
100188
100165
100232
100147
100210
100202
100264
100187
100756
100202
100463
100289
100246
100265
99871.5
100073
100195
100152
100085
100199
100201
100204
100186
100230
100236
100136
100095
100153
100121
100156
100125
99919.5
99931.4
100154
100231
100231
100233
99750.1
100105
100089
100119
100129
100132
100122
100176
100219
100590
99851
100693
99780.8
103260
99870.1
100182
100065
99701.3
99557.1
99552.1
99699
99417.8
99439.8
100223
100283
100035
100174
100236
100230
100207
100204
100237
100237
100218
100044
100219
100224
100222
100073
100071
100346
100259
99746.5
100234
100250
100073
99986.9
100184
100175
100223
100036
100240
100235
100239
100236
100237
100181
100171
100156
100184
100226
100237
100235
100235
100237
100218
100083
100217
100218
100208
100203
100179
100216
100214
100260
100157
99901.1
100126
100718
99555.5
100134
99864.6
99889
99493.7
99619.3
100010
100036
99718.5
99976.8
100249
100241
100165
100228
99847.3
99993.9
100224
100249
100021
100133
100177
100179
100176
100186
100221
100214
100241
100225
100231
100238
100238
100238
100198
100068
100105
99518.7
100378
100205
100219
100258
100222
100162
100184
100196
100370
100378
100331
100163
100158
100159
100211
100215
100238
100238
100238
100061
100077
99749.2
100056
100059
100689
100534
100525
100460
100468
100479
100169
100146
100171
100203
100205
100226
100192
100217
100252
100239
100239
100247
100112
100044
100319
100114
100591
100087
100193
100128
99998.3
100174
100005
100207
100120
100176
100236
100216
100245
100243
100169
100279
100236
100437
100436
100315
100426
100112
100360
99977.4
100191
100152
100156
100216
100188
100194
100141
100238
100236
100237
100222
100003
100333
100327
100230
100186
100156
100136
100149
99521
100550
100250
99874.6
100169
100092
100154
100163
100164
100233
100205
99999.1
100038
100182
100168
100170
100210
100210
100212
100204
100211
100222
100224
100247
100215
100214
100245
100247
100249
100236
101119
100238
101029
99964.7
100450
100277
100294
100421
100003
100170
99871.7
100269
100261
99819.8
100280
100270
100149
99845.6
99758.3
100198
100220
100187
100225
100153
100148
100152
100139
100150
100014
100174
100004
100336
100298
100149
100247
100117
100210
100153
100226
100227
100229
100163
100154
100158
100219
100152
100254
100250
100228
100231
100252
100245
100246
100254
100258
100376
100283
100314
100285
100294
100246
100163
100158
100156
100155
99990.9
100287
100853
99964.5
100213
100241
100240
100242
100013
100245
100234
100067
100049
100234
100203
100249
100244
100076
100132
99900.5
99795
100034
100020
100012
100059
100162
100121
100237
100238
100228
100242
100008
100118
99877.5
99848.5
100197
100194
100310
100196
100306
100003
100039
100020
100257
100281
100155
100152
100196
100194
100232
100209
100232
100237
100237
100072
100188
100193
100234
100233
100150
100238
100221
100216
100210
100148
100190
100203
100199
100201
99304.8
100091
100155
100140
100532
99969.6
99802.7
99727
99841.4
100751
100145
100163
100118
100221
100273
100292
100214
100152
100149
100203
100232
100191
100192
100242
100198
100193
100238
100233
100230
100229
100134
100242
100230
100243
100272
99680.2
99675.1
99898.5
100461
100438
100445
100214
100211
99993.3
100255
99355.2
100201
100225
100227
100225
100231
100166
100173
99450.2
99460.5
100189
100214
100276
100387
100192
100179
100165
100203
100207
100151
100217
100264
100301
100272
100080
100407
100335
100395
100404
100382
100390
100261
99982
99995.3
100184
100200
99938.5
100110
100104
100207
100115
100128
100145
99943.5
99728.5
101263
100245
100246
100226
100205
99076.5
100183
100233
100205
99997.2
100241
98735.8
100247
100240
100088
100175
99891.2
100376
99583.1
99768
99983
100210
100215
99715.3
100202
100233
101137
100284
99934.5
100085
100067
99802.5
100130
99658.8
100174
100230
100215
100238
100236
100238
100244
100242
100141
100239
100141
100407
100567
100228
100089
100228
100151
100409
100226
100165
100215
100230
100409
100225
100231
100010
99627.6
100218
100263
100341
100269
99947.7
99975.3
100016
100048
100021
99986.4
100153
100200
100173
100067
100239
100093
100175
100092
100235
100244
100223
100239
100219
100237
100096
100090
100150
100186
100153
100260
100250
100251
100236
100247
100248
100244
100239
100242
100155
100242
100244
100187
100244
99824.3
100338
100130
100175
100246
100239
100238
100239
100238
100244
100239
100246
100248
100158
100222
100246
100223
100267
100318
100148
100229
100319
100302
100219
100240
100231
100233
100240
100232
99256.1
100288
100234
100234
100288
100182
100362
100216
100263
100241
100107
100241
100126
100134
100201
100207
100222
100241
100245
100249
100233
100208
100227
100235
100244
100248
100229
100245
100202
100233
99955.7
100210
100241
100223
100183
100234
100231
100192
100214
100206
100201
100227
100210
100060
100251
99920.8
100611
100236
100192
100210
100234
100228
100230
100286
100270
100273
100231
100090
100215
100215
100215
100216
100236
100220
100141
100070
99179.3
100164
100161
100134
100912
99915.7
100166
100162
100140
100194
100120
100153
99980.7
100194
100231
100238
100158
100158
100236
99077.3
100037
100109
100071
100235
100408
100237
100245
100160
100235
100220
99579.9
100235
100075
100116
100103
100190
100196
100164
100167
100143
100247
100165
100111
100163
100164
100086
100147
99981
99873.2
100236
100237
100054
100056
100054
99966.4
99996.9
99639.8
99901
99899.8
99627.1
100151
100154
100155
100231
100232
100238
100227
100230
100228
100228
100240
100239
100145
100147
100156
100162
99420.8
99698.2
99894.5
100241
100003
100142
100154
100225
100237
100239
100237
100239
100195
99640.1
100195
100197
100185
100186
100190
100193
100015
100002
100034
99986.4
100226
100177
100231
100218
100210
99832.4
100185
100070
100186
99704
99738.6
100184
100186
99877.8
100188
100235
100236
100236
100235
100234
100204
100222
100197
100210
100223
100224
100218
100223
100151
100149
100150
100151
100150
100382
100151
100049
100228
100430
100236
100233
100143
100152
100236
100184
99300.7
100234
100265
101171
100099
100436
100143
100143
100244
100243
100273
101052
100191
100193
100187
100189
100244
100244
100237
100040
100235
100235
100243
100236
100246
100243
100236
100235
100246
100348
99768
100309
100154
100247
100228
100285
100035
100097
100301
100255
100242
100243
100495
100245
100244
100211
100095
100237
100238
99953.9
100209
100246
100244
100267
100241
100199
100003
100146
100134
100162
100041
100014
99890.3
100185
100365
100238
100233
99453
99934
99922.8
100157
100135
100175
100982
100993
100576
100237
99382.5
100237
100237
100238
100216
100021
99837.2
100205
100200
100091
100209
100228
100116
100013
100027
100249
100248
100022
100245
100244
100244
100243
100244
100246
100037
100245
100180
100002
100162
100031
99989.8
100004
100187
100009
100174
100178
99798.9
100230
100092
99516.6
100069
100069
100088
99615
100028
100024
99781
100136
100138
100141
100126
100178
100218
100237
100045
100160
100161
100203
100236
100038
100234
100236
100236
100238
100226
100219
100227
98707.1
100226
100238
100243
99122.7
100083
100244
100572
100222
100849
100264
100353
100251
99899.1
100010
99757.3
99680.9
100222
100248
100224
100221
100254
100262
100249
100241
100239
100231
100252
100191
100212
100169
100232
100232
100222
100232
100234
100241
100200
100238
100050
100154
100195
100184
100198
100238
103937
99575.4
100416
100023
100073
100194
100092
100181
100075
100046
99679.6
99497.9
100415
100550
99695.7
100036
100517
100245
100242
100245
100729
100246
100243
100243
99967.2
100127
100136
100110
100238
100239
100261
100255
100240
100248
99845.7
100190
100238
100196
100300
100152
100238
100160
100245
100231
100236
100233
100237
100231
100032
100019
100237
100245
100220
100238
100281
100134
100175
100175
100178
100177
100224
100244
100221
100220
100223
100238
100237
100193
100190
100257
100174
100124
100172
100151
100162
100259
100293
100180
100245
100159
100175
100291
100245
100246
100245
100141
100280
100250
100399
100263
100242
100252
100269
100400
100436
100565
100159
100014
99637.3
100551
100552
100489
100223
99984.8
100038
100223
100218
100217
100031
100032
100496
100233
100148
99994.4
100231
99995.1
100235
100238
100182
100180
100242
100242
100278
100452
100222
99555.7
99011.2
100246
100246
100172
100759
99963.7
100230
100174
100220
100265
100238
100239
100224
100237
100227
100241
100237
100239
100241
99978.1
99984
100172
100269
100173
100171
100263
100273
100223
100150
100225
100153
100206
100185
100270
100231
100223
99944
100239
100240
100221
100237
100211
100229
100267
100150
100971
100263
99002.2
100131
100129
100188
100190
100104
100085
100085
100156
100128
100303
100155
100324
100286
100273
100152
100317
100151
99648.3
100297
100177
100179
100232
100218
100237
100236
100130
100232
100224
100131
100038
99980.3
100167
100170
100212
100237
100237
100197
100193
99574.2
100054
100064
100050
99632.3
100694
99987
99998.5
99985.7
100193
100253
100257
100259
100252
100234
100253
100208
100169
100219
100237
100238
100170
100171
100022
100261
99971.4
100237
98920.2
100260
100804
100451
100299
100436
100252
100263
99780.6
99997.8
100722
100486
100574
100247
100154
100044
100162
100056
100070
100159
100154
100240
100241
100242
100246
100233
100243
100166
100251
100208
100243
100239
100239
100204
100234
100199
100155
100155
100158
100159
100159
100204
100213
100199
100238
100236
100235
99386.6
99595
100064
100091
100109
100083
99434.5
99402.2
100259
100910
99523.8
100216
100034
100541
99858.6
99714.6
100013
98976.9
100054
100291
100283
100296
99968.1
100226
100228
100032
100606
100158
101052
100214
99439.8
99117
100211
100170
100183
100183
100190
100184
100247
100231
101277
100231
100233
100233
100165
100213
100213
100168
100152
99813.1
99870.2
99173.2
100247
100601
100838
100300
99973.8
99972.9
99940.4
99961.2
100797
100778
100173
100174
100223
100614
100156
100222
100167
100160
100237
100237
100226
100235
100212
100238
100238
100239
100237
100238
100186
100229
100185
99218.3
101269
100784
101286
100926
100251
100212
100214
100082
100099
100041
100021
100111
101208
100009
100034
100250
100248
100146
100169
100169
100151
100221
100186
100238
100245
100175
99994.2
99967.9
99991.1
100414
100461
100081
100160
100164
100203
100203
100180
100185
100238
100189
100237
100237
98887.9
98984.2
100233
100232
100066
100095
100215
100211
100214
100132
100158
100156
100165
100334
100191
100220
100221
100206
100233
100251
100216
100210
100189
100225
100103
100105
100245
100238
100432
100203
98554.9
100175
99636.1
99570.3
100175
99420.2
99579.8
100122
100134
100231
100173
100220
100221
100226
100238
100238
100129
100141
100238
100198
100191
100157
100079
100098
100147
100160
100164
99954.3
100170
100209
100212
100246
100237
100263
100230
100216
100157
100188
100412
98542.6
100205
100216
100240
100240
100239
100240
100244
100248
100245
100237
100243
100228
100096
100139
100146
100205
100239
100159
100289
100271
100372
100295
100014
100107
100143
100312
100527
100237
100257
100257
100257
100173
100288
100259
100538
100155
100255
100134
99962.3
100151
100150
99789.5
99264.4
99742.9
99670.4
100151
100235
100151
100235
100110
100124
99955.2
100153
100010
100291
100247
100229
100157
100532
100622
100621
100249
100228
100228
99919.8
100260
100269
100166
100238
100053
100019
100037
99751.3
100092
100167
100248
100152
100164
100157
100209
100242
100098
100243
100243
100241
100240
100149
100225
100252
100144
101007
100622
102483
99683.9
99834.6
100253
100395
99890
99934.6
100257
100196
100259
100149
100320
100322
100517
106565
100397
100549
107715
100183
100182
100048
100005
100251
99141.7
100243
99153.6
100146
100181
100003
100027
99178.1
100149
100172
100165
100162
100166
100238
100237
100237
100015
100046
99459.1
100207
100143
99839.9
100140
100223
100205
100218
99445
100244
100274
100342
100155
100151
100151
100273
100250
100232
100269
100252
100045
100233
100184
100142
100233
100233
100216
100227
100001
100159
100134
100065
100233
100226
100223
100272
100223
100265
100374
100742
100401
100202
100244
100076
100046
100246
100152
100016
100137
100139
100231
100216
100247
100247
99503.9
100248
100256
100254
100249
100316
100109
100247
101104
99462.3
100307
100377
100138
100137
100148
100241
100072
99951.9
100009
100095
100272
100029
100098
100150
100150
99975.9
100091
100139
100336
100316
100206
100192
100272
100197
100093
100269
100306
100252
100077
100138
100420
100302
100324
100718
100519
100429
100175
100230
100223
100230
100232
100210
100239
100241
100242
100172
100166
100169
100233
100240
100245
100144
100160
100155
100234
100494
99955.6
100207
100130
100015
100098
100034
100168
100162
100165
100159
100661
100156
100165
100167
100173
100169
100242
100143
100234
100224
100228
100219
100223
100224
100247
100251
100232
100196
100218
100217
100280
100305
100123
100130
98481.1
100118
100215
100218
99914.4
98920.3
99177.1
100212
100214
100177
100181
100180
100178
100178
100235
100259
100422
100257
100272
100464
100307
100263
100298
100289
100234
100255
100056
100274
100240
100331
100252
100255
100163
100175
100192
100157
100154
100151
100151
100229
100154
100225
100203
100142
100168
100135
100152
100159
100237
100237
100238
100202
100237
100214
100212
100204
100224
100217
100221
100211
100103
100059
100057
100052
100062
100125
100115
100216
100007
100011
100004
100003
100008
100195
100198
100199
100171
100173
100234
100232
100170
100363
99974.8
100234
100175
100225
99615
100240
100237
100145
100226
100225
100276
100426
100349
100284
100244
100468
100163
100122
100237
100235
100553
100232
100306
100235
100340
100266
100128
100236
100250
100212
100224
100237
100248
100289
100377
100328
100331
100323
100248
100114
100112
100249
100154
100152
100142
100152
100153
100247
100186
100194
100242
100402
100257
100208
100252
100555
100368
100147
100236
100241
100232
100244
100045
100008
99785.9
100071
100162
100153
100161
100159
100166
100216
100210
100207
100218
100347
100364
100400
100341
100354
100244
100272
100244
100198
100194
100232
100209
100189
100155
100192
100199
100213
100230
100254
100155
100163
100238
100159
100156
100263
100233
100221
100385
100709
100224
100383
100299
100211
100235
100242
100245
100235
100048
100069
100235
99938.7
100087
99925.9
100009
100123
100216
100009
100104
100256
100225
100898
100777
100519
100627
99341.6
99547.8
99600.2
100494
100503
100181
99974.8
99997.1
99640.4
100297
100251
101148
100261
100181
100227
99299.5
100232
98558.9
100241
100113
100235
100283
100222
100266
100229
100645
99992.8
99995.3
99993.7
99997.7
99717.7
100539
100161
100234
100227
99998
100163
100166
100328
100166
100172
100201
100172
100183
100108
100188
100120
100037
100070
100030
100073
100454
100428
100376
100681
100439
99147.3
100378
99613.4
100372
99776.8
100277
100234
100478
100432
100473
)
;

boundaryField
{
    Inlet
    {
        type            prghTotalPressure;
        p0              nonuniform List<scalar> 0();
        value           nonuniform List<scalar> 0();
    }
    Outlet
    {
        type            fixedValue;
        value           uniform 100000;
    }
    Symmetric
    {
        type            symmetry;
    }
    Wall
    {
        type            fixedFluxPressure;
        gradient        uniform 0;
        value           nonuniform List<scalar> 
217
(
100152
100155
100161
100167
100175
100184
100193
100202
100210
100218
100225
100230
100233
100236
100237
100237
100235
100231
100224
100212
100194
100170
100141
100111
100079
100053
100015
100003
100009
100003
100152
100156
100162
100168
100175
100184
100194
100203
100211
100218
100225
100230
100234
100237
100238
100237
100236
100230
100224
100211
100195
100171
100141
100110
100079
100050
100021
100152
100151
100155
100153
100154
100161
100158
100159
100167
100164
100167
100175
100171
100175
100183
100180
100183
100192
100188
100190
100201
100197
100199
100209
100206
100208
100218
100214
100217
100224
100221
100222
100230
100227
100228
100234
100232
100234
100237
100235
100235
100238
100237
100237
100238
100237
100236
100238
100236
100236
100234
100233
100234
100228
100228
100225
100218
100218
100216
100201
100204
100197
100178
100182
100174
100151
100156
100145
100121
100126
100115
100089
100095
100083
100054
100064
100054
100024
100034
100023
100152
100151
100158
100154
100162
100158
100171
100164
100179
100171
100186
100180
100195
100190
100204
100198
100212
100207
100221
100215
100227
100222
100232
100227
100235
100232
100236
100235
100237
100238
100237
100238
100233
100236
100230
100234
100222
100228
100209
100217
100189
100203
100159
100181
100130
100156
100099
100125
100068
100095
100038
100064
100007
100036
100153
100158
100163
100171
100179
100188
100196
100205
100214
100221
100227
100232
100235
100237
100238
100238
100236
100231
100223
100210
100191
100166
100136
100105
100073
100037
)
;
    }
    procBoundary2to3
    {
        type            processor;
        value           nonuniform List<scalar> 
34
(
100149
100148
100068
100095
100121
100149
100090
100118
100053
100068
100150
100145
100146
100104
100139
100052
100148
100072
100149
100135
100135
100150
100022
99987.9
100131
100143
100023
100114
100126
100001
100040
100150
99978.4
100150
)
;
    }
}


// ************************************************************************* //
