/*--------------------------------*- C++ -*----------------------------------*\
| =========                 |                                                 |
| \\      /  F ield         | OpenFOAM: The Open Source CFD Toolbox           |
|  \\    /   O peration     | Version:  v2012                                 |
|   \\  /    A nd           | Website:  www.openfoam.com                      |
|    \\/     M anipulation  |                                                 |
\*---------------------------------------------------------------------------*/
FoamFile
{
    version     2.0;
    format      ascii;
    class       volScalarField;
    location    "0.4";
    object      p;
}
// * * * * * * * * * * * * * * * * * * * * * * * * * * * * * * * * * * * * * //

dimensions      [1 -1 -2 0 0 0 0];


internalField   nonuniform List<scalar> 
3326
(
3.48658e+06
3.48662e+06
3.48662e+06
3.4866e+06
3.48654e+06
3.48646e+06
3.48632e+06
3.48617e+06
3.48592e+06
3.48626e+06
3.48637e+06
3.48645e+06
3.48652e+06
3.48655e+06
3.48656e+06
3.48654e+06
3.48648e+06
3.4864e+06
3.48627e+06
3.48612e+06
3.48587e+06
3.46882e+06
3.47425e+06
3.47658e+06
3.47838e+06
3.47935e+06
3.48e+06
3.4804e+06
3.48068e+06
3.48089e+06
3.48107e+06
3.48124e+06
3.48141e+06
3.48159e+06
3.48179e+06
3.482e+06
3.48222e+06
3.48245e+06
3.48269e+06
3.48294e+06
3.48319e+06
3.48345e+06
3.4837e+06
3.48396e+06
3.48421e+06
3.48445e+06
3.48469e+06
3.48493e+06
3.48515e+06
3.48536e+06
3.48556e+06
3.48574e+06
3.48591e+06
3.48606e+06
3.48619e+06
3.4863e+06
3.48639e+06
3.48645e+06
3.48649e+06
3.4865e+06
3.48648e+06
3.48643e+06
3.48635e+06
3.48622e+06
3.48607e+06
3.48582e+06
3.46167e+06
3.46836e+06
3.47173e+06
3.47454e+06
3.47628e+06
3.47757e+06
3.47847e+06
3.47914e+06
3.47966e+06
3.48007e+06
3.48043e+06
3.48075e+06
3.48105e+06
3.48134e+06
3.48162e+06
3.4819e+06
3.48218e+06
3.48245e+06
3.48273e+06
3.48301e+06
3.48328e+06
3.48355e+06
3.48382e+06
3.48408e+06
3.48434e+06
3.48459e+06
3.48483e+06
3.48505e+06
3.48527e+06
3.48547e+06
3.48566e+06
3.48583e+06
3.48599e+06
3.48612e+06
3.48623e+06
3.48632e+06
3.48639e+06
3.48643e+06
3.48644e+06
3.48643e+06
3.48638e+06
3.48629e+06
3.48617e+06
3.48602e+06
3.48578e+06
3.45682e+06
3.46365e+06
3.46779e+06
3.47123e+06
3.47356e+06
3.47536e+06
3.47667e+06
3.47769e+06
3.47847e+06
3.47911e+06
3.47964e+06
3.4801e+06
3.48051e+06
3.48089e+06
3.48124e+06
3.48158e+06
3.4819e+06
3.48221e+06
3.48252e+06
3.48282e+06
3.48311e+06
3.4834e+06
3.48368e+06
3.48396e+06
3.48422e+06
3.48448e+06
3.48473e+06
3.48496e+06
3.48518e+06
3.48539e+06
3.48559e+06
3.48576e+06
3.48592e+06
3.48606e+06
3.48617e+06
3.48626e+06
3.48633e+06
3.48638e+06
3.48639e+06
3.48637e+06
3.48633e+06
3.48625e+06
3.48612e+06
3.48598e+06
3.48574e+06
3.45326e+06
3.45983e+06
3.46457e+06
3.46839e+06
3.47119e+06
3.47337e+06
3.47503e+06
3.47633e+06
3.47736e+06
3.47819e+06
3.47888e+06
3.47947e+06
3.47999e+06
3.48044e+06
3.48086e+06
3.48125e+06
3.48162e+06
3.48197e+06
3.48231e+06
3.48263e+06
3.48295e+06
3.48325e+06
3.48355e+06
3.48383e+06
3.48411e+06
3.48438e+06
3.48463e+06
3.48487e+06
3.4851e+06
3.48531e+06
3.48551e+06
3.48569e+06
3.48585e+06
3.48599e+06
3.48611e+06
3.48621e+06
3.48628e+06
3.48632e+06
3.48634e+06
3.48633e+06
3.48628e+06
3.4862e+06
3.48608e+06
3.48594e+06
3.4857e+06
3.4503e+06
3.45667e+06
3.46188e+06
3.46597e+06
3.46912e+06
3.47161e+06
3.47355e+06
3.47509e+06
3.47632e+06
3.47732e+06
3.47816e+06
3.47886e+06
3.47947e+06
3.48001e+06
3.48049e+06
3.48094e+06
3.48135e+06
3.48173e+06
3.4821e+06
3.48245e+06
3.48278e+06
3.4831e+06
3.48341e+06
3.48371e+06
3.484e+06
3.48427e+06
3.48454e+06
3.48478e+06
3.48502e+06
3.48524e+06
3.48544e+06
3.48562e+06
3.48579e+06
3.48593e+06
3.48605e+06
3.48615e+06
3.48623e+06
3.48627e+06
3.48629e+06
3.48628e+06
3.48624e+06
3.48616e+06
3.48604e+06
3.4859e+06
3.48567e+06
3.4477e+06
3.45404e+06
3.45962e+06
3.4639e+06
3.46734e+06
3.47005e+06
3.47222e+06
3.47395e+06
3.47536e+06
3.47651e+06
3.47747e+06
3.47828e+06
3.47898e+06
3.47959e+06
3.48013e+06
3.48062e+06
3.48107e+06
3.48149e+06
3.48189e+06
3.48226e+06
3.48262e+06
3.48296e+06
3.48328e+06
3.48359e+06
3.48389e+06
3.48417e+06
3.48444e+06
3.4847e+06
3.48494e+06
3.48516e+06
3.48537e+06
3.48556e+06
3.48573e+06
3.48587e+06
3.486e+06
3.4861e+06
3.48618e+06
3.48623e+06
3.48625e+06
3.48624e+06
3.4862e+06
3.48612e+06
3.48601e+06
3.48587e+06
3.48564e+06
3.44545e+06
3.45187e+06
3.45771e+06
3.46215e+06
3.4658e+06
3.46869e+06
3.47104e+06
3.47293e+06
3.47448e+06
3.47576e+06
3.47682e+06
3.47773e+06
3.4785e+06
3.47918e+06
3.47978e+06
3.48032e+06
3.48081e+06
3.48126e+06
3.48168e+06
3.48208e+06
3.48245e+06
3.48281e+06
3.48315e+06
3.48347e+06
3.48378e+06
3.48407e+06
3.48435e+06
3.48462e+06
3.48486e+06
3.48509e+06
3.4853e+06
3.4855e+06
3.48567e+06
3.48582e+06
3.48595e+06
3.48605e+06
3.48613e+06
3.48618e+06
3.48621e+06
3.4862e+06
3.48616e+06
3.48609e+06
3.48597e+06
3.48584e+06
3.48562e+06
3.44362e+06
3.45012e+06
3.45612e+06
3.46068e+06
3.46448e+06
3.46752e+06
3.47e+06
3.47202e+06
3.47369e+06
3.47507e+06
3.47623e+06
3.47721e+06
3.47805e+06
3.47879e+06
3.47944e+06
3.48002e+06
3.48055e+06
3.48103e+06
3.48148e+06
3.4819e+06
3.48229e+06
3.48267e+06
3.48302e+06
3.48336e+06
3.48368e+06
3.48398e+06
3.48426e+06
3.48453e+06
3.48479e+06
3.48502e+06
3.48524e+06
3.48544e+06
3.48561e+06
3.48577e+06
3.4859e+06
3.48601e+06
3.48609e+06
3.48614e+06
3.48617e+06
3.48616e+06
3.48612e+06
3.48606e+06
3.48595e+06
3.48581e+06
3.4856e+06
3.44222e+06
3.44876e+06
3.45484e+06
3.45948e+06
3.46338e+06
3.4665e+06
3.46909e+06
3.47121e+06
3.47297e+06
3.47444e+06
3.47567e+06
3.47672e+06
3.47763e+06
3.47842e+06
3.47911e+06
3.47973e+06
3.4803e+06
3.48081e+06
3.48128e+06
3.48172e+06
3.48214e+06
3.48253e+06
3.48289e+06
3.48324e+06
3.48357e+06
3.48388e+06
3.48418e+06
3.48446e+06
3.48472e+06
3.48496e+06
3.48518e+06
3.48538e+06
3.48556e+06
3.48572e+06
3.48586e+06
3.48597e+06
3.48605e+06
3.4861e+06
3.48613e+06
3.48613e+06
3.48609e+06
3.48603e+06
3.48592e+06
3.48579e+06
3.48558e+06
3.4412e+06
3.44773e+06
3.45382e+06
3.45849e+06
3.46245e+06
3.46564e+06
3.4683e+06
3.4705e+06
3.47233e+06
3.47386e+06
3.47516e+06
3.47627e+06
3.47723e+06
3.47806e+06
3.4788e+06
3.47946e+06
3.48005e+06
3.48059e+06
3.48109e+06
3.48155e+06
3.48198e+06
3.48239e+06
3.48277e+06
3.48313e+06
3.48347e+06
3.48379e+06
3.4841e+06
3.48438e+06
3.48465e+06
3.48489e+06
3.48512e+06
3.48533e+06
3.48551e+06
3.48568e+06
3.48581e+06
3.48593e+06
3.48601e+06
3.48607e+06
3.4861e+06
3.4861e+06
3.48607e+06
3.486e+06
3.4859e+06
3.48577e+06
3.48556e+06
3.44048e+06
3.44697e+06
3.45303e+06
3.45771e+06
3.46169e+06
3.46492e+06
3.46763e+06
3.46987e+06
3.47176e+06
3.47335e+06
3.4747e+06
3.47586e+06
3.47686e+06
3.47773e+06
3.47851e+06
3.47919e+06
3.47982e+06
3.48038e+06
3.4809e+06
3.48138e+06
3.48183e+06
3.48225e+06
3.48265e+06
3.48302e+06
3.48337e+06
3.4837e+06
3.48402e+06
3.48431e+06
3.48458e+06
3.48483e+06
3.48507e+06
3.48528e+06
3.48547e+06
3.48563e+06
3.48578e+06
3.48589e+06
3.48598e+06
3.48604e+06
3.48607e+06
3.48607e+06
3.48604e+06
3.48598e+06
3.48588e+06
3.48575e+06
3.48555e+06
3.44e+06
3.44643e+06
3.45243e+06
3.4571e+06
3.46108e+06
3.46432e+06
3.46706e+06
3.46933e+06
3.47126e+06
3.47289e+06
3.47428e+06
3.47547e+06
3.47651e+06
3.47742e+06
3.47822e+06
3.47894e+06
3.47959e+06
3.48018e+06
3.48072e+06
3.48122e+06
3.48169e+06
3.48212e+06
3.48253e+06
3.48291e+06
3.48328e+06
3.48362e+06
3.48394e+06
3.48424e+06
3.48452e+06
3.48478e+06
3.48502e+06
3.48523e+06
3.48543e+06
3.4856e+06
3.48574e+06
3.48586e+06
3.48595e+06
3.48601e+06
3.48604e+06
3.48605e+06
3.48602e+06
3.48596e+06
3.48586e+06
3.48574e+06
3.48554e+06
3.43969e+06
3.44607e+06
3.452e+06
3.45663e+06
3.46059e+06
3.46383e+06
3.46657e+06
3.46887e+06
3.47082e+06
3.47247e+06
3.47389e+06
3.47512e+06
3.47619e+06
3.47713e+06
3.47796e+06
3.4787e+06
3.47937e+06
3.47998e+06
3.48054e+06
3.48106e+06
3.48154e+06
3.48199e+06
3.48241e+06
3.48281e+06
3.48318e+06
3.48353e+06
3.48386e+06
3.48417e+06
3.48446e+06
3.48472e+06
3.48497e+06
3.48519e+06
3.48539e+06
3.48556e+06
3.48571e+06
3.48583e+06
3.48592e+06
3.48599e+06
3.48602e+06
3.48603e+06
3.486e+06
3.48594e+06
3.48585e+06
3.48573e+06
3.48554e+06
3.43952e+06
3.44586e+06
3.45171e+06
3.45629e+06
3.46021e+06
3.46343e+06
3.46617e+06
3.46847e+06
3.47043e+06
3.47211e+06
3.47355e+06
3.4748e+06
3.47589e+06
3.47685e+06
3.47771e+06
3.47847e+06
3.47916e+06
3.47979e+06
3.48037e+06
3.48091e+06
3.4814e+06
3.48187e+06
3.4823e+06
3.48271e+06
3.48309e+06
3.48345e+06
3.48379e+06
3.48411e+06
3.4844e+06
3.48467e+06
3.48492e+06
3.48515e+06
3.48535e+06
3.48553e+06
3.48568e+06
3.4858e+06
3.4859e+06
3.48596e+06
3.486e+06
3.48601e+06
3.48598e+06
3.48593e+06
3.48584e+06
3.48572e+06
3.48554e+06
3.43951e+06
3.44578e+06
3.45155e+06
3.45606e+06
3.45993e+06
3.46312e+06
3.46584e+06
3.46814e+06
3.4701e+06
3.47178e+06
3.47324e+06
3.4745e+06
3.47561e+06
3.47659e+06
3.47747e+06
3.47825e+06
3.47896e+06
3.47961e+06
3.48021e+06
3.48076e+06
3.48127e+06
3.48175e+06
3.48219e+06
3.48261e+06
3.48301e+06
3.48337e+06
3.48372e+06
3.48405e+06
3.48435e+06
3.48462e+06
3.48488e+06
3.48511e+06
3.48532e+06
3.4855e+06
3.48565e+06
3.48578e+06
3.48588e+06
3.48595e+06
3.48599e+06
3.48599e+06
3.48597e+06
3.48592e+06
3.48583e+06
3.48572e+06
3.48554e+06
3.43964e+06
3.44584e+06
3.4515e+06
3.45593e+06
3.45974e+06
3.46289e+06
3.46558e+06
3.46785e+06
3.46981e+06
3.47149e+06
3.47295e+06
3.47423e+06
3.47536e+06
3.47635e+06
3.47724e+06
3.47804e+06
3.47877e+06
3.47944e+06
3.48005e+06
3.48061e+06
3.48114e+06
3.48163e+06
3.48209e+06
3.48252e+06
3.48292e+06
3.4833e+06
3.48366e+06
3.48399e+06
3.4843e+06
3.48458e+06
3.48484e+06
3.48508e+06
3.48529e+06
3.48547e+06
3.48563e+06
3.48576e+06
3.48586e+06
3.48593e+06
3.48597e+06
3.48598e+06
3.48596e+06
3.48591e+06
3.48582e+06
3.48572e+06
3.48555e+06
3.43992e+06
3.44601e+06
3.45155e+06
3.45588e+06
3.45962e+06
3.46271e+06
3.46536e+06
3.46762e+06
3.46956e+06
3.47124e+06
3.4727e+06
3.47398e+06
3.47512e+06
3.47613e+06
3.47703e+06
3.47785e+06
3.47859e+06
3.47927e+06
3.47989e+06
3.48047e+06
3.48101e+06
3.48151e+06
3.48199e+06
3.48243e+06
3.48284e+06
3.48323e+06
3.48359e+06
3.48393e+06
3.48425e+06
3.48454e+06
3.48481e+06
3.48505e+06
3.48526e+06
3.48545e+06
3.48561e+06
3.48574e+06
3.48585e+06
3.48592e+06
3.48596e+06
3.48597e+06
3.48595e+06
3.48591e+06
3.48582e+06
3.48572e+06
3.48556e+06
3.44033e+06
3.44629e+06
3.45169e+06
3.45592e+06
3.45957e+06
3.4626e+06
3.4652e+06
3.46742e+06
3.46934e+06
3.47101e+06
3.47247e+06
3.47375e+06
3.47489e+06
3.47591e+06
3.47683e+06
3.47766e+06
3.47841e+06
3.47911e+06
3.47975e+06
3.48034e+06
3.48089e+06
3.48141e+06
3.48189e+06
3.48234e+06
3.48276e+06
3.48316e+06
3.48353e+06
3.48388e+06
3.4842e+06
3.4845e+06
3.48477e+06
3.48502e+06
3.48524e+06
3.48543e+06
3.4856e+06
3.48573e+06
3.48584e+06
3.48591e+06
3.48595e+06
3.48597e+06
3.48595e+06
3.4859e+06
3.48582e+06
3.48572e+06
3.48557e+06
3.44086e+06
3.44667e+06
3.4519e+06
3.45601e+06
3.45957e+06
3.46253e+06
3.46508e+06
3.46726e+06
3.46916e+06
3.47081e+06
3.47226e+06
3.47354e+06
3.47469e+06
3.47571e+06
3.47664e+06
3.47748e+06
3.47824e+06
3.47895e+06
3.4796e+06
3.48021e+06
3.48077e+06
3.4813e+06
3.48179e+06
3.48226e+06
3.48269e+06
3.4831e+06
3.48348e+06
3.48383e+06
3.48416e+06
3.48447e+06
3.48475e+06
3.485e+06
3.48522e+06
3.48542e+06
3.48558e+06
3.48572e+06
3.48583e+06
3.4859e+06
3.48595e+06
3.48596e+06
3.48595e+06
3.4859e+06
3.48583e+06
3.48573e+06
3.48558e+06
3.44148e+06
3.44714e+06
3.45218e+06
3.45617e+06
3.45962e+06
3.4625e+06
3.46499e+06
3.46713e+06
3.46899e+06
3.47063e+06
3.47207e+06
3.47335e+06
3.47449e+06
3.47552e+06
3.47645e+06
3.4773e+06
3.47808e+06
3.4788e+06
3.47946e+06
3.48008e+06
3.48066e+06
3.4812e+06
3.4817e+06
3.48218e+06
3.48262e+06
3.48304e+06
3.48343e+06
3.48379e+06
3.48413e+06
3.48444e+06
3.48472e+06
3.48498e+06
3.48521e+06
3.48541e+06
3.48558e+06
3.48572e+06
3.48582e+06
3.4859e+06
3.48595e+06
3.48596e+06
3.48595e+06
3.48591e+06
3.48583e+06
3.48574e+06
3.4856e+06
3.44218e+06
3.44767e+06
3.45251e+06
3.45637e+06
3.4597e+06
3.4625e+06
3.46493e+06
3.46702e+06
3.46885e+06
3.47046e+06
3.47189e+06
3.47316e+06
3.4743e+06
3.47534e+06
3.47628e+06
3.47713e+06
3.47792e+06
3.47865e+06
3.47933e+06
3.47996e+06
3.48055e+06
3.4811e+06
3.48161e+06
3.4821e+06
3.48255e+06
3.48298e+06
3.48338e+06
3.48375e+06
3.48409e+06
3.48441e+06
3.4847e+06
3.48496e+06
3.48519e+06
3.4854e+06
3.48557e+06
3.48571e+06
3.48582e+06
3.4859e+06
3.48595e+06
3.48597e+06
3.48595e+06
3.48591e+06
3.48584e+06
3.48575e+06
3.48562e+06
3.44294e+06
3.44827e+06
3.45288e+06
3.45661e+06
3.45982e+06
3.46253e+06
3.46488e+06
3.46693e+06
3.46872e+06
3.47031e+06
3.47172e+06
3.47298e+06
3.47412e+06
3.47516e+06
3.4761e+06
3.47697e+06
3.47777e+06
3.47851e+06
3.4792e+06
3.47984e+06
3.48044e+06
3.481e+06
3.48153e+06
3.48203e+06
3.48249e+06
3.48293e+06
3.48333e+06
3.48371e+06
3.48406e+06
3.48439e+06
3.48468e+06
3.48495e+06
3.48519e+06
3.48539e+06
3.48557e+06
3.48571e+06
3.48583e+06
3.48591e+06
3.48595e+06
3.48597e+06
3.48596e+06
3.48592e+06
3.48585e+06
3.48576e+06
3.48564e+06
3.44378e+06
3.44891e+06
3.45329e+06
3.45687e+06
3.45995e+06
3.46257e+06
3.46485e+06
3.46684e+06
3.4686e+06
3.47016e+06
3.47155e+06
3.47281e+06
3.47395e+06
3.47499e+06
3.47594e+06
3.47681e+06
3.47762e+06
3.47837e+06
3.47907e+06
3.47973e+06
3.48034e+06
3.48091e+06
3.48145e+06
3.48196e+06
3.48243e+06
3.48288e+06
3.48329e+06
3.48368e+06
3.48404e+06
3.48437e+06
3.48467e+06
3.48494e+06
3.48518e+06
3.48539e+06
3.48557e+06
3.48572e+06
3.48583e+06
3.48591e+06
3.48596e+06
3.48598e+06
3.48597e+06
3.48593e+06
3.48586e+06
3.48578e+06
3.48566e+06
3.44468e+06
3.44959e+06
3.45373e+06
3.45716e+06
3.4601e+06
3.46263e+06
3.46483e+06
3.46677e+06
3.46848e+06
3.47002e+06
3.4714e+06
3.47264e+06
3.47378e+06
3.47482e+06
3.47578e+06
3.47666e+06
3.47748e+06
3.47824e+06
3.47895e+06
3.47962e+06
3.48024e+06
3.48083e+06
3.48138e+06
3.48189e+06
3.48238e+06
3.48283e+06
3.48326e+06
3.48365e+06
3.48402e+06
3.48435e+06
3.48466e+06
3.48494e+06
3.48518e+06
3.4854e+06
3.48558e+06
3.48573e+06
3.48584e+06
3.48593e+06
3.48597e+06
3.48599e+06
3.48598e+06
3.48594e+06
3.48587e+06
3.48579e+06
3.48568e+06
3.44565e+06
3.4503e+06
3.45419e+06
3.45745e+06
3.46026e+06
3.46268e+06
3.46481e+06
3.46669e+06
3.46837e+06
3.46987e+06
3.47124e+06
3.47248e+06
3.47361e+06
3.47465e+06
3.47562e+06
3.47651e+06
3.47734e+06
3.47811e+06
3.47883e+06
3.47951e+06
3.48015e+06
3.48074e+06
3.4813e+06
3.48183e+06
3.48233e+06
3.48279e+06
3.48322e+06
3.48363e+06
3.484e+06
3.48434e+06
3.48466e+06
3.48494e+06
3.48519e+06
3.48541e+06
3.48559e+06
3.48574e+06
3.48586e+06
3.48594e+06
3.48599e+06
3.48601e+06
3.48599e+06
3.48595e+06
3.48588e+06
3.48581e+06
3.48571e+06
3.4359e+06
3.44152e+06
3.44665e+06
3.45102e+06
3.45465e+06
3.45774e+06
3.4604e+06
3.46272e+06
3.46477e+06
3.4666e+06
3.46824e+06
3.46972e+06
3.47107e+06
3.47231e+06
3.47344e+06
3.47449e+06
3.47546e+06
3.47636e+06
3.4772e+06
3.47798e+06
3.47872e+06
3.47941e+06
3.48005e+06
3.48066e+06
3.48124e+06
3.48177e+06
3.48228e+06
3.48275e+06
3.4832e+06
3.48361e+06
3.48399e+06
3.48434e+06
3.48466e+06
3.48494e+06
3.4852e+06
3.48542e+06
3.48561e+06
3.48576e+06
3.48588e+06
3.48596e+06
3.48601e+06
3.48602e+06
3.48601e+06
3.48596e+06
3.4859e+06
3.48583e+06
3.48573e+06
3.43757e+06
3.44297e+06
3.44769e+06
3.45172e+06
3.4551e+06
3.458e+06
3.46052e+06
3.46274e+06
3.46472e+06
3.4665e+06
3.4681e+06
3.46957e+06
3.4709e+06
3.47213e+06
3.47327e+06
3.47432e+06
3.4753e+06
3.47621e+06
3.47706e+06
3.47786e+06
3.4786e+06
3.47931e+06
3.47997e+06
3.48059e+06
3.48117e+06
3.48172e+06
3.48224e+06
3.48272e+06
3.48317e+06
3.48359e+06
3.48398e+06
3.48434e+06
3.48466e+06
3.48495e+06
3.48521e+06
3.48544e+06
3.48563e+06
3.48578e+06
3.4859e+06
3.48598e+06
3.48603e+06
3.48604e+06
3.48602e+06
3.48598e+06
3.48591e+06
3.48584e+06
3.48576e+06
3.43939e+06
3.44441e+06
3.44868e+06
3.45238e+06
3.4555e+06
3.45822e+06
3.46061e+06
3.46273e+06
3.46464e+06
3.46637e+06
3.46795e+06
3.4694e+06
3.47073e+06
3.47196e+06
3.4731e+06
3.47416e+06
3.47514e+06
3.47606e+06
3.47693e+06
3.47774e+06
3.4785e+06
3.47921e+06
3.47988e+06
3.48052e+06
3.48111e+06
3.48167e+06
3.4822e+06
3.48269e+06
3.48315e+06
3.48358e+06
3.48398e+06
3.48434e+06
3.48467e+06
3.48497e+06
3.48523e+06
3.48546e+06
3.48565e+06
3.48581e+06
3.48593e+06
3.48601e+06
3.48605e+06
3.48606e+06
3.48604e+06
3.486e+06
3.48593e+06
3.48586e+06
3.48578e+06
3.44128e+06
3.4458e+06
3.44961e+06
3.45296e+06
3.45583e+06
3.45838e+06
3.46064e+06
3.46268e+06
3.46453e+06
3.46623e+06
3.46778e+06
3.46921e+06
3.47054e+06
3.47177e+06
3.47292e+06
3.47399e+06
3.47499e+06
3.47592e+06
3.4768e+06
3.47762e+06
3.47839e+06
3.47912e+06
3.47981e+06
3.48045e+06
3.48106e+06
3.48163e+06
3.48217e+06
3.48267e+06
3.48314e+06
3.48358e+06
3.48398e+06
3.48435e+06
3.48469e+06
3.48499e+06
3.48526e+06
3.48549e+06
3.48568e+06
3.48584e+06
3.48596e+06
3.48604e+06
3.48608e+06
3.48609e+06
3.48607e+06
3.48602e+06
3.48595e+06
3.48588e+06
3.4858e+06
3.44298e+06
3.44697e+06
3.45036e+06
3.4534e+06
3.45606e+06
3.45845e+06
3.46061e+06
3.46257e+06
3.46438e+06
3.46605e+06
3.46759e+06
3.46902e+06
3.47035e+06
3.47159e+06
3.47274e+06
3.47382e+06
3.47483e+06
3.47578e+06
3.47667e+06
3.47751e+06
3.47829e+06
3.47903e+06
3.47973e+06
3.48039e+06
3.48101e+06
3.48159e+06
3.48214e+06
3.48265e+06
3.48313e+06
3.48357e+06
3.48399e+06
3.48436e+06
3.48471e+06
3.48501e+06
3.48528e+06
3.48552e+06
3.48571e+06
3.48587e+06
3.48599e+06
3.48607e+06
3.48611e+06
3.48612e+06
3.48609e+06
3.48604e+06
3.48597e+06
3.4859e+06
3.48583e+06
3.44452e+06
3.44796e+06
3.45095e+06
3.4537e+06
3.45617e+06
3.45843e+06
3.4605e+06
3.46242e+06
3.46419e+06
3.46584e+06
3.46738e+06
3.46881e+06
3.47015e+06
3.4714e+06
3.47256e+06
3.47366e+06
3.47468e+06
3.47565e+06
3.47655e+06
3.4774e+06
3.4782e+06
3.47895e+06
3.47966e+06
3.48033e+06
3.48096e+06
3.48156e+06
3.48212e+06
3.48264e+06
3.48313e+06
3.48358e+06
3.484e+06
3.48438e+06
3.48473e+06
3.48504e+06
3.48532e+06
3.48555e+06
3.48575e+06
3.48591e+06
3.48603e+06
3.48611e+06
3.48615e+06
3.48615e+06
3.48612e+06
3.48606e+06
3.48599e+06
3.48591e+06
3.48585e+06
3.44543e+06
3.44844e+06
3.45123e+06
3.45378e+06
3.45613e+06
3.4583e+06
3.46032e+06
3.4622e+06
3.46397e+06
3.46561e+06
3.46715e+06
3.4686e+06
3.46995e+06
3.47121e+06
3.47239e+06
3.4735e+06
3.47454e+06
3.47552e+06
3.47643e+06
3.4773e+06
3.47811e+06
3.47888e+06
3.4796e+06
3.48028e+06
3.48093e+06
3.48153e+06
3.4821e+06
3.48263e+06
3.48313e+06
3.48359e+06
3.48402e+06
3.48441e+06
3.48476e+06
3.48508e+06
3.48536e+06
3.4856e+06
3.4858e+06
3.48595e+06
3.48607e+06
3.48615e+06
3.48619e+06
3.48619e+06
3.48615e+06
3.48609e+06
3.48601e+06
3.48593e+06
3.48586e+06
3.44627e+06
3.44882e+06
3.45142e+06
3.45376e+06
3.45601e+06
3.4581e+06
3.46009e+06
3.46196e+06
3.46372e+06
3.46537e+06
3.46693e+06
3.46838e+06
3.46975e+06
3.47103e+06
3.47223e+06
3.47335e+06
3.4744e+06
3.4754e+06
3.47633e+06
3.47721e+06
3.47803e+06
3.47881e+06
3.47955e+06
3.48024e+06
3.4809e+06
3.48151e+06
3.48209e+06
3.48263e+06
3.48314e+06
3.48361e+06
3.48404e+06
3.48444e+06
3.4848e+06
3.48512e+06
3.4854e+06
3.48564e+06
3.48584e+06
3.486e+06
3.48612e+06
3.4862e+06
3.48623e+06
3.48622e+06
3.48618e+06
3.48611e+06
3.48603e+06
3.48594e+06
3.48588e+06
3.44647e+06
3.44874e+06
3.45141e+06
3.45359e+06
3.4558e+06
3.45785e+06
3.45983e+06
3.46169e+06
3.46347e+06
3.46514e+06
3.46671e+06
3.46818e+06
3.46956e+06
3.47086e+06
3.47207e+06
3.47321e+06
3.47428e+06
3.47529e+06
3.47623e+06
3.47712e+06
3.47796e+06
3.47876e+06
3.4795e+06
3.48021e+06
3.48087e+06
3.4815e+06
3.48209e+06
3.48264e+06
3.48315e+06
3.48363e+06
3.48407e+06
3.48447e+06
3.48484e+06
3.48517e+06
3.48545e+06
3.4857e+06
3.4859e+06
3.48606e+06
3.48618e+06
3.48625e+06
3.48628e+06
3.48627e+06
3.48622e+06
3.48614e+06
3.48604e+06
3.48595e+06
3.48588e+06
3.44751e+06
3.44915e+06
3.45154e+06
3.45348e+06
3.4556e+06
3.4576e+06
3.45958e+06
3.46145e+06
3.46324e+06
3.46493e+06
3.46652e+06
3.46801e+06
3.4694e+06
3.47071e+06
3.47194e+06
3.47309e+06
3.47418e+06
3.47519e+06
3.47615e+06
3.47705e+06
3.4779e+06
3.47871e+06
3.47946e+06
3.48018e+06
3.48086e+06
3.48149e+06
3.48209e+06
3.48265e+06
3.48317e+06
3.48366e+06
3.48411e+06
3.48452e+06
3.48489e+06
3.48522e+06
3.48551e+06
3.48576e+06
3.48596e+06
3.48612e+06
3.48624e+06
3.48631e+06
3.48633e+06
3.48632e+06
3.48626e+06
3.48617e+06
3.48606e+06
3.48596e+06
3.48589e+06
3.45018e+06
3.4504e+06
3.45201e+06
3.45344e+06
3.45542e+06
3.45736e+06
3.45933e+06
3.46122e+06
3.46303e+06
3.46474e+06
3.46634e+06
3.46785e+06
3.46926e+06
3.47059e+06
3.47183e+06
3.47299e+06
3.47408e+06
3.47511e+06
3.47608e+06
3.47699e+06
3.47785e+06
3.47867e+06
3.47944e+06
3.48016e+06
3.48085e+06
3.48149e+06
3.4821e+06
3.48267e+06
3.4832e+06
3.4837e+06
3.48415e+06
3.48457e+06
3.48494e+06
3.48528e+06
3.48557e+06
3.48582e+06
3.48602e+06
3.48618e+06
3.4863e+06
3.48636e+06
3.48638e+06
3.48636e+06
3.4863e+06
3.4862e+06
3.48608e+06
3.48597e+06
3.48588e+06
3.48658e+06
3.48662e+06
3.48662e+06
3.4866e+06
3.48654e+06
3.48646e+06
3.48632e+06
3.48617e+06
3.48592e+06
3.48626e+06
3.48637e+06
3.48645e+06
3.48652e+06
3.48655e+06
3.48656e+06
3.48654e+06
3.48648e+06
3.4864e+06
3.48627e+06
3.48612e+06
3.48587e+06
3.46882e+06
3.47425e+06
3.47658e+06
3.47838e+06
3.47935e+06
3.48e+06
3.4804e+06
3.48068e+06
3.48089e+06
3.48107e+06
3.48124e+06
3.48141e+06
3.48159e+06
3.48179e+06
3.482e+06
3.48222e+06
3.48245e+06
3.48269e+06
3.48294e+06
3.48319e+06
3.48345e+06
3.4837e+06
3.48396e+06
3.48421e+06
3.48445e+06
3.48469e+06
3.48493e+06
3.48515e+06
3.48536e+06
3.48556e+06
3.48574e+06
3.48591e+06
3.48606e+06
3.48619e+06
3.4863e+06
3.48639e+06
3.48645e+06
3.48649e+06
3.4865e+06
3.48648e+06
3.48643e+06
3.48635e+06
3.48622e+06
3.48607e+06
3.48582e+06
3.46167e+06
3.46836e+06
3.47173e+06
3.47454e+06
3.47628e+06
3.47757e+06
3.47847e+06
3.47914e+06
3.47966e+06
3.48007e+06
3.48043e+06
3.48075e+06
3.48105e+06
3.48134e+06
3.48162e+06
3.4819e+06
3.48218e+06
3.48245e+06
3.48273e+06
3.48301e+06
3.48328e+06
3.48355e+06
3.48382e+06
3.48408e+06
3.48434e+06
3.48459e+06
3.48483e+06
3.48505e+06
3.48527e+06
3.48547e+06
3.48566e+06
3.48583e+06
3.48599e+06
3.48612e+06
3.48623e+06
3.48632e+06
3.48639e+06
3.48643e+06
3.48644e+06
3.48643e+06
3.48638e+06
3.48629e+06
3.48617e+06
3.48602e+06
3.48578e+06
3.45682e+06
3.46365e+06
3.46779e+06
3.47123e+06
3.47356e+06
3.47536e+06
3.47667e+06
3.47769e+06
3.47847e+06
3.47911e+06
3.47964e+06
3.4801e+06
3.48051e+06
3.48089e+06
3.48124e+06
3.48158e+06
3.4819e+06
3.48221e+06
3.48252e+06
3.48282e+06
3.48311e+06
3.4834e+06
3.48368e+06
3.48396e+06
3.48422e+06
3.48448e+06
3.48473e+06
3.48496e+06
3.48518e+06
3.48539e+06
3.48559e+06
3.48576e+06
3.48592e+06
3.48606e+06
3.48617e+06
3.48626e+06
3.48633e+06
3.48638e+06
3.48639e+06
3.48637e+06
3.48633e+06
3.48625e+06
3.48612e+06
3.48598e+06
3.48574e+06
3.45326e+06
3.45983e+06
3.46457e+06
3.46839e+06
3.47119e+06
3.47337e+06
3.47503e+06
3.47633e+06
3.47736e+06
3.47819e+06
3.47888e+06
3.47947e+06
3.47999e+06
3.48044e+06
3.48086e+06
3.48125e+06
3.48162e+06
3.48197e+06
3.48231e+06
3.48263e+06
3.48295e+06
3.48325e+06
3.48355e+06
3.48383e+06
3.48411e+06
3.48438e+06
3.48463e+06
3.48487e+06
3.4851e+06
3.48531e+06
3.48551e+06
3.48569e+06
3.48585e+06
3.48599e+06
3.48611e+06
3.48621e+06
3.48628e+06
3.48632e+06
3.48634e+06
3.48633e+06
3.48628e+06
3.4862e+06
3.48608e+06
3.48594e+06
3.4857e+06
3.4503e+06
3.45667e+06
3.46188e+06
3.46597e+06
3.46912e+06
3.47161e+06
3.47355e+06
3.47509e+06
3.47632e+06
3.47732e+06
3.47816e+06
3.47886e+06
3.47947e+06
3.48001e+06
3.48049e+06
3.48094e+06
3.48135e+06
3.48173e+06
3.4821e+06
3.48245e+06
3.48278e+06
3.4831e+06
3.48341e+06
3.48371e+06
3.484e+06
3.48427e+06
3.48454e+06
3.48478e+06
3.48502e+06
3.48524e+06
3.48544e+06
3.48562e+06
3.48579e+06
3.48593e+06
3.48605e+06
3.48615e+06
3.48623e+06
3.48627e+06
3.48629e+06
3.48628e+06
3.48624e+06
3.48616e+06
3.48604e+06
3.4859e+06
3.48567e+06
3.4477e+06
3.45404e+06
3.45962e+06
3.4639e+06
3.46734e+06
3.47005e+06
3.47222e+06
3.47395e+06
3.47536e+06
3.47651e+06
3.47747e+06
3.47828e+06
3.47898e+06
3.47959e+06
3.48013e+06
3.48062e+06
3.48107e+06
3.48149e+06
3.48189e+06
3.48226e+06
3.48262e+06
3.48296e+06
3.48328e+06
3.48359e+06
3.48389e+06
3.48417e+06
3.48444e+06
3.4847e+06
3.48494e+06
3.48516e+06
3.48537e+06
3.48556e+06
3.48573e+06
3.48587e+06
3.486e+06
3.4861e+06
3.48618e+06
3.48623e+06
3.48625e+06
3.48624e+06
3.4862e+06
3.48612e+06
3.48601e+06
3.48587e+06
3.48564e+06
3.44545e+06
3.45187e+06
3.45771e+06
3.46215e+06
3.4658e+06
3.46869e+06
3.47104e+06
3.47293e+06
3.47448e+06
3.47576e+06
3.47682e+06
3.47773e+06
3.4785e+06
3.47918e+06
3.47978e+06
3.48032e+06
3.48081e+06
3.48126e+06
3.48168e+06
3.48208e+06
3.48245e+06
3.48281e+06
3.48315e+06
3.48347e+06
3.48378e+06
3.48407e+06
3.48435e+06
3.48462e+06
3.48486e+06
3.48509e+06
3.4853e+06
3.4855e+06
3.48567e+06
3.48582e+06
3.48595e+06
3.48605e+06
3.48613e+06
3.48618e+06
3.48621e+06
3.4862e+06
3.48616e+06
3.48609e+06
3.48597e+06
3.48584e+06
3.48562e+06
3.44362e+06
3.45012e+06
3.45612e+06
3.46068e+06
3.46448e+06
3.46752e+06
3.47e+06
3.47202e+06
3.47369e+06
3.47507e+06
3.47623e+06
3.47721e+06
3.47805e+06
3.47879e+06
3.47944e+06
3.48002e+06
3.48055e+06
3.48103e+06
3.48148e+06
3.4819e+06
3.48229e+06
3.48267e+06
3.48302e+06
3.48336e+06
3.48368e+06
3.48398e+06
3.48426e+06
3.48453e+06
3.48479e+06
3.48502e+06
3.48524e+06
3.48544e+06
3.48561e+06
3.48577e+06
3.4859e+06
3.48601e+06
3.48609e+06
3.48614e+06
3.48617e+06
3.48616e+06
3.48612e+06
3.48606e+06
3.48595e+06
3.48581e+06
3.4856e+06
3.44222e+06
3.44876e+06
3.45484e+06
3.45948e+06
3.46338e+06
3.4665e+06
3.46909e+06
3.47121e+06
3.47297e+06
3.47444e+06
3.47567e+06
3.47672e+06
3.47763e+06
3.47842e+06
3.47911e+06
3.47973e+06
3.4803e+06
3.48081e+06
3.48128e+06
3.48172e+06
3.48214e+06
3.48253e+06
3.48289e+06
3.48324e+06
3.48357e+06
3.48388e+06
3.48418e+06
3.48446e+06
3.48472e+06
3.48496e+06
3.48518e+06
3.48538e+06
3.48556e+06
3.48572e+06
3.48586e+06
3.48597e+06
3.48605e+06
3.4861e+06
3.48613e+06
3.48613e+06
3.48609e+06
3.48603e+06
3.48592e+06
3.48579e+06
3.48558e+06
3.4412e+06
3.44773e+06
3.45382e+06
3.45849e+06
3.46245e+06
3.46564e+06
3.4683e+06
3.4705e+06
3.47233e+06
3.47386e+06
3.47516e+06
3.47627e+06
3.47723e+06
3.47806e+06
3.4788e+06
3.47946e+06
3.48005e+06
3.48059e+06
3.48109e+06
3.48155e+06
3.48198e+06
3.48239e+06
3.48277e+06
3.48313e+06
3.48347e+06
3.48379e+06
3.4841e+06
3.48438e+06
3.48465e+06
3.48489e+06
3.48512e+06
3.48533e+06
3.48551e+06
3.48568e+06
3.48581e+06
3.48593e+06
3.48601e+06
3.48607e+06
3.4861e+06
3.4861e+06
3.48607e+06
3.486e+06
3.4859e+06
3.48577e+06
3.48556e+06
3.44048e+06
3.44697e+06
3.45303e+06
3.45771e+06
3.46169e+06
3.46492e+06
3.46763e+06
3.46987e+06
3.47176e+06
3.47335e+06
3.4747e+06
3.47586e+06
3.47686e+06
3.47773e+06
3.47851e+06
3.47919e+06
3.47982e+06
3.48038e+06
3.4809e+06
3.48138e+06
3.48183e+06
3.48225e+06
3.48265e+06
3.48302e+06
3.48337e+06
3.4837e+06
3.48402e+06
3.48431e+06
3.48458e+06
3.48483e+06
3.48507e+06
3.48528e+06
3.48547e+06
3.48563e+06
3.48578e+06
3.48589e+06
3.48598e+06
3.48604e+06
3.48607e+06
3.48607e+06
3.48604e+06
3.48598e+06
3.48588e+06
3.48575e+06
3.48555e+06
3.44e+06
3.44643e+06
3.45243e+06
3.4571e+06
3.46108e+06
3.46432e+06
3.46706e+06
3.46933e+06
3.47126e+06
3.47289e+06
3.47428e+06
3.47547e+06
3.47651e+06
3.47742e+06
3.47822e+06
3.47894e+06
3.47959e+06
3.48018e+06
3.48072e+06
3.48122e+06
3.48169e+06
3.48212e+06
3.48253e+06
3.48291e+06
3.48328e+06
3.48362e+06
3.48394e+06
3.48424e+06
3.48452e+06
3.48478e+06
3.48502e+06
3.48523e+06
3.48543e+06
3.4856e+06
3.48574e+06
3.48586e+06
3.48595e+06
3.48601e+06
3.48604e+06
3.48605e+06
3.48602e+06
3.48596e+06
3.48586e+06
3.48574e+06
3.48554e+06
3.43969e+06
3.44607e+06
3.452e+06
3.45663e+06
3.46059e+06
3.46383e+06
3.46657e+06
3.46887e+06
3.47082e+06
3.47247e+06
3.47389e+06
3.47512e+06
3.47619e+06
3.47713e+06
3.47796e+06
3.4787e+06
3.47937e+06
3.47998e+06
3.48054e+06
3.48106e+06
3.48154e+06
3.48199e+06
3.48241e+06
3.48281e+06
3.48318e+06
3.48353e+06
3.48386e+06
3.48417e+06
3.48446e+06
3.48472e+06
3.48497e+06
3.48519e+06
3.48539e+06
3.48556e+06
3.48571e+06
3.48583e+06
3.48592e+06
3.48599e+06
3.48602e+06
3.48603e+06
3.486e+06
3.48594e+06
3.48585e+06
3.48573e+06
3.48554e+06
3.43952e+06
3.44586e+06
3.45171e+06
3.45629e+06
3.46021e+06
3.46343e+06
3.46617e+06
3.46847e+06
3.47043e+06
3.47211e+06
3.47355e+06
3.4748e+06
3.47589e+06
3.47685e+06
3.47771e+06
3.47847e+06
3.47916e+06
3.47979e+06
3.48037e+06
3.48091e+06
3.4814e+06
3.48187e+06
3.4823e+06
3.48271e+06
3.48309e+06
3.48345e+06
3.48379e+06
3.48411e+06
3.4844e+06
3.48467e+06
3.48492e+06
3.48515e+06
3.48535e+06
3.48553e+06
3.48568e+06
3.4858e+06
3.4859e+06
3.48596e+06
3.486e+06
3.48601e+06
3.48598e+06
3.48593e+06
3.48584e+06
3.48572e+06
3.48554e+06
3.43951e+06
3.44578e+06
3.45155e+06
3.45606e+06
3.45993e+06
3.46312e+06
3.46584e+06
3.46814e+06
3.4701e+06
3.47178e+06
3.47324e+06
3.4745e+06
3.47561e+06
3.47659e+06
3.47747e+06
3.47825e+06
3.47896e+06
3.47961e+06
3.48021e+06
3.48076e+06
3.48127e+06
3.48175e+06
3.48219e+06
3.48261e+06
3.48301e+06
3.48337e+06
3.48372e+06
3.48405e+06
3.48435e+06
3.48462e+06
3.48488e+06
3.48511e+06
3.48532e+06
3.4855e+06
3.48565e+06
3.48578e+06
3.48588e+06
3.48595e+06
3.48599e+06
3.48599e+06
3.48597e+06
3.48592e+06
3.48583e+06
3.48572e+06
3.48554e+06
3.43964e+06
3.44584e+06
3.4515e+06
3.45593e+06
3.45974e+06
3.46289e+06
3.46558e+06
3.46785e+06
3.46981e+06
3.47149e+06
3.47295e+06
3.47423e+06
3.47536e+06
3.47635e+06
3.47724e+06
3.47804e+06
3.47877e+06
3.47944e+06
3.48005e+06
3.48061e+06
3.48114e+06
3.48163e+06
3.48209e+06
3.48252e+06
3.48292e+06
3.4833e+06
3.48366e+06
3.48399e+06
3.4843e+06
3.48458e+06
3.48484e+06
3.48508e+06
3.48529e+06
3.48547e+06
3.48563e+06
3.48576e+06
3.48586e+06
3.48593e+06
3.48597e+06
3.48598e+06
3.48596e+06
3.48591e+06
3.48582e+06
3.48572e+06
3.48555e+06
3.43992e+06
3.44601e+06
3.45155e+06
3.45588e+06
3.45962e+06
3.46271e+06
3.46536e+06
3.46762e+06
3.46956e+06
3.47124e+06
3.4727e+06
3.47398e+06
3.47512e+06
3.47613e+06
3.47703e+06
3.47785e+06
3.47859e+06
3.47927e+06
3.47989e+06
3.48047e+06
3.48101e+06
3.48151e+06
3.48199e+06
3.48243e+06
3.48284e+06
3.48323e+06
3.48359e+06
3.48393e+06
3.48425e+06
3.48454e+06
3.48481e+06
3.48505e+06
3.48526e+06
3.48545e+06
3.48561e+06
3.48574e+06
3.48585e+06
3.48592e+06
3.48596e+06
3.48597e+06
3.48595e+06
3.48591e+06
3.48582e+06
3.48572e+06
3.48556e+06
3.44033e+06
3.44629e+06