/*--------------------------------*- C++ -*----------------------------------*\
| =========                 |                                                 |
| \\      /  F ield         | OpenFOAM: The Open Source CFD Toolbox           |
|  \\    /   O peration     | Version:  v2012                                 |
|   \\  /    A nd           | Website:  www.openfoam.com                      |
|    \\/     M anipulation  |                                                 |
\*---------------------------------------------------------------------------*/
FoamFile
{
    version     2.0;
    format      ascii;
    class       volScalarField;
    location    "0.75";
    object      alpha.water;
}
// * * * * * * * * * * * * * * * * * * * * * * * * * * * * * * * * * * * * * //

dimensions      [0 0 0 0 0 0 0];


internalField   nonuniform List<scalar> 
3338
(
9.2676e-89
9.57815e-88
1.43715e-226
3.69673e-317
2.01791e-317
1.51218e-317
1.18082e-317
9.92106e-318
8.25899e-318
7.64839e-318
7.09047e-318
6.57864e-318
6.11177e-318
5.68416e-318
5.2919e-318
5.48092e-318
5.62745e-318
6.69327e-318
3.26673e-317
1.56065e-313
2.09351e-309
3.74303e-107
-1.27987e-135
1.40467e-202
3.69604e-317
2.14365e-317
1.62823e-317
1.28798e-317
9.91977e-318
8.25805e-318
7.64765e-318
7.0899e-318
6.57821e-318
6.11143e-318
5.68391e-318
5.29173e-318
7.67312e-318
4.67788e-315
4.81387e-312
7.07423e-309
1.62991e-305
7.40077e-302
5.68975e-129
3.19942e-134
5.48447e-201
3.69547e-317
2.14331e-317
1.62799e-317
1.2878e-317
9.91855e-318
9.17464e-318
8.49662e-318
7.08937e-318
6.57781e-318
6.11114e-318
5.68372e-318
1.44637e-316
4.96926e-314
2.25505e-311
1.37908e-308
1.2013e-305
1.64561e-302
4.52112e-299
2.85645e-129
3.41182e-128
9.42277e-200
3.55807e-317
2.14298e-317
1.86028e-317
1.39493e-317
1.19009e-317
9.17373e-318
7.64633e-318
7.08889e-318
6.57746e-318
2.58016e-317
1.65708e-315
3.25579e-313
8.09735e-311
2.61185e-308
1.13218e-305
6.97882e-303
6.77737e-300
1.33395e-296
5.1128e-137
7.3978e-136
9.8489e-199
3.96801e-317
2.64682e-317
1.86002e-317
1.39475e-317
1.09079e-317
9.17286e-318
7.64574e-318
7.08847e-318
1.57852e-316
1.56747e-314
1.92414e-312
2.93888e-310
5.67229e-308
1.41665e-305
4.74443e-303
2.25664e-300
1.69313e-297
2.59268e-294
6.81249e-154
3.72187e-153
7.20884e-198
3.96736e-317
2.52041e-317
1.85977e-317
1.39458e-317
1.09068e-317
9.17207e-318
4.84197e-317
2.14848e-315
1.43296e-313
1.17055e-311
1.1767e-309
1.46921e-307
2.31426e-305
4.70839e-303
1.28234e-300
4.95523e-298
3.02297e-295
3.78256e-292
1.31602e-156
6.46597e-156
4.00225e-197
3.96666e-317
2.52002e-317
1.85951e-317
1.39442e-317
4.75884e-317
8.09827e-316
3.00778e-314
1.38272e-312
7.80585e-311
5.39992e-309
4.59247e-307
4.84531e-305
6.44023e-303
1.10397e-300
2.5298e-298
8.21843e-296
4.21734e-293
4.45448e-290
1.29477e-160
5.63842e-160
1.77493e-196
3.82917e-317
2.51961e-317
7.55322e-317
9.09481e-316
1.7951e-314
4.59876e-313
1.48384e-311
5.92493e-310
2.90215e-308
1.74045e-306
1.28199e-304
1.17019e-302
1.34403e-300
1.98832e-298
3.92779e-296
1.09922e-293
4.86078e-291
4.43533e-288
8.8146e-176
3.32107e-175
6.52057e-196
8.69598e-316
4.1277e-315
3.58112e-314
4.62099e-313
8.11066e-312
1.84212e-310
5.25965e-309
1.85612e-307
8.02751e-306
4.24702e-304
2.75727e-302
2.21615e-300
2.23894e-298
2.9104e-296
5.04694e-294
1.23913e-291
4.808e-289
3.85631e-286
2.29343e-177
7.21578e-177
2.03859e-195
5.10336e-313
1.87867e-312
1.48459e-311
1.73367e-310
2.7419e-309
5.59577e-308
1.43305e-306
4.5304e-305
1.75355e-303
8.29579e-302
4.81196e-300
3.45245e-298
3.11068e-296
3.60287e-294
5.56233e-292
1.21519e-289
4.19571e-287
2.99813e-284
2.26576e-178
4.61632e-178
5.538e-195
1.63527e-310
6.54487e-310
4.76283e-309
5.08573e-308
7.32409e-307
1.35748e-305
3.15177e-304
9.0223e-303
3.15919e-301
1.35093e-299
7.07731e-298
4.58242e-296
3.72296e-294
3.88507e-292
5.40026e-290
1.06169e-287
3.29862e-285
2.12273e-282
9.73002e-179
2.95663e-179
1.32906e-194
4.74396e-308
1.8317e-307
1.23701e-306
1.21767e-305
1.61032e-304
2.73403e-303
5.80519e-302
1.51795e-300
4.85058e-299
1.89139e-297
9.02866e-296
5.32274e-294
3.93453e-292
3.73303e-290
4.7148e-288
8.41852e-286
2.37521e-283
1.3887e-280
1.10899e-178
1.85771e-180
2.85596e-194
1.16485e-305
4.26881e-305
2.69239e-304
2.45965e-303
3.00783e-302
4.71122e-301
9.21412e-300
2.21671e-298
6.51137e-297
2.33214e-295
1.02185e-293
5.52577e-292
3.74417e-290
3.25427e-288
3.76306e-286
6.14915e-284
1.58746e-281
8.4946e-279
1.44005e-178
1.1269e-181
5.55672e-194
2.44323e-303
8.52238e-303
5.04674e-302
4.30286e-301
4.89391e-300
7.11385e-299
1.28927e-297
2.87109e-296
7.79984e-295
2.58184e-293
1.0448e-291
5.21483e-290
3.25943e-288
2.61172e-286
2.78279e-284
4.18836e-282
9.9569e-280
4.90676e-277
1.92818e-178
6.5174e-183
9.88139e-194
4.47356e-301
1.49117e-300
8.32845e-300
6.65865e-299
7.0785e-298
9.59721e-297
1.62003e-295
3.35671e-294
8.47787e-293
2.60714e-291
9.79565e-290
4.53681e-288
2.62979e-286
1.95321e-284
1.92814e-282
2.68764e-280
5.91575e-278
2.6991e-275
2.64965e-178
3.57379e-184
1.61888e-193
7.28909e-299
2.32996e-298
1.23216e-297
9.27559e-297
9.25525e-296
1.17551e-294
1.85631e-293
3.59465e-292
8.47831e-291
2.43322e-289
8.52691e-288
3.68141e-286
1.98823e-284
1.3752e-282
1.26368e-280
1.63904e-278
3.35604e-276
1.42421e-273
3.74001e-178
1.87912e-185
2.46025e-193
1.07404e-296
3.30229e-296
1.65918e-295
1.18024e-294
1.10944e-293
1.32496e-292
1.96486e-291
3.5697e-290
7.89325e-289
2.12241e-287
6.96472e-286
2.81429e-284
1.42186e-282
9.19593e-281
7.8982e-279
9.5716e-277
1.83062e-274
7.25477e-272
5.42888e-178
9.98431e-187
3.48891e-193
1.45085e-294
4.30213e-294
2.0598e-293
1.38887e-292
1.2339e-291
1.39019e-290
1.94248e-289
3.32216e-288
6.91037e-287
1.74693e-285
5.38674e-284
2.04437e-282
9.69666e-281
5.88511e-279
4.74142e-277
5.38809e-275
9.66012e-273
3.58776e-270
8.11379e-178
6.09701e-188
4.64076e-193
1.81782e-292
5.21058e-292
2.38368e-291
1.52774e-290
1.28646e-289
1.37134e-288
1.81078e-287
2.9241e-286
5.73911e-285
1.36819e-283
3.97659e-282
1.42189e-280
6.35133e-279
3.62878e-277
2.75117e-275
2.94101e-273
4.95858e-271
1.73131e-268
1.2501e-177
5.10042e-189
5.81621e-193
2.13407e-290
5.92525e-290
2.59611e-289
1.58551e-288
1.26866e-287
1.28286e-286
1.60503e-285
2.45374e-284
4.55639e-283
1.02715e-281
2.82166e-280
9.53195e-279
4.02097e-277
2.16877e-275
1.55167e-273
1.56481e-271
2.48807e-269
8.18967e-267
1.98795e-177
6.40015e-190
6.89561e-193
2.36841e-288
6.38117e-288
2.68348e-287
1.56517e-286
1.19279e-285
1.14681e-284
1.36271e-283
1.97701e-282
3.48169e-281
7.43997e-280
1.9365e-278
6.19579e-277
2.47447e-275
1.26312e-273
8.5499e-272
8.15465e-270
1.22587e-267
3.81348e-265
3.26691e-177
1.22925e-190
7.76089e-193
2.50442e-286
6.55833e-286
2.65225e-285
1.48038e-284
1.07671e-283
9.86366e-283
1.11553e-281
1.53916e-280
2.57633e-279
5.23005e-278
1.29269e-276
3.92594e-275
1.4878e-273
7.20395e-272
4.62386e-270
4.18045e-268
5.9551e-266
1.75476e-263
5.55479e-177
3.68717e-191
8.31778e-193
2.54103e-284
6.47676e-284
2.52326e-283
1.35027e-282
9.39057e-282
8.21239e-281
8.85705e-280
1.16449e-278
1.8563e-277
3.58708e-276
8.4361e-275
2.43694e-273
8.78103e-272
4.04135e-270
2.46475e-268
2.1167e-266
2.86315e-264
8.00774e-262
9.78383e-177
1.62804e-191
8.5125e-193
2.48947e-282
6.18402e-282
2.32463e-281
1.19466e-280
7.95811e-280
6.65561e-279
6.85726e-278
8.6063e-277
1.3089e-275
2.41201e-274
5.40738e-273
1.48848e-271
5.10915e-270
2.23921e-268
1.30006e-266
1.0625e-264
1.36724e-262
3.63624e-260
1.78712e-176
9.50714e-192
8.33919e-193
2.3686e-280
5.74069e-280
2.08527e-279
1.03076e-278
6.5873e-278
5.27697e-277
5.2023e-276
6.24299e-275
9.07351e-274
1.59716e-272
3.41894e-271
8.98319e-270
2.94225e-268
1.23006e-266
6.8102e-265
5.30576e-263
6.50623e-261
1.64821e-258
3.38899e-176
6.2722e-192
7.83702e-193
2.20008e-278
5.20791e-278
1.83045e-277
8.7153e-277
5.35121e-276
4.11219e-275
3.88492e-274
4.46443e-273
6.21014e-272
1.04578e-270
2.14084e-269
5.37747e-268
1.68323e-266
6.72308e-265
3.55503e-263
2.64441e-261
3.09496e-259
7.47973e-257
6.67862e-176
4.38258e-192
7.07905e-193
2.00468e-276
4.63893e-276
1.57959e-275
7.25392e-275
4.28504e-274
3.16312e-273
2.86765e-272
3.16011e-271
4.21308e-270
6.79694e-269
1.33253e-267
3.20438e-266
9.5994e-265
3.66835e-263
1.85528e-261
1.31952e-259
1.47606e-257
3.408e-255
1.36896e-175
3.16071e-192
6.15657e-193
1.79991e-274
4.07502e-274
1.34581e-273
5.96827e-273
3.39619e-272
2.4113e-271
2.1005e-270
2.22256e-269
2.84366e-268
4.40083e-267
8.27341e-266
1.9072e-264
5.47528e-263
2.0045e-261
9.70917e-260
6.61124e-258
7.07795e-256
1.56327e-253
2.92085e-175
2.29755e-192
5.16296e-193
1.59909e-272
3.54467e-272
1.13661e-271
4.87318e-271
2.67443e-270
1.82855e-269
1.53236e-268
1.55873e-267
1.91623e-266
2.84824e-265
5.14094e-264
1.13744e-262
3.13312e-261
1.10023e-259
5.11007e-258
3.33542e-256
3.42167e-254
7.23801e-252
6.49097e-175
1.65932e-192
4.18054e-193
1.41128e-270
3.06498e-270
9.5514e-270
3.96341e-269
2.10011e-268
1.38428e-267
1.11724e-266
1.09378e-265
1.29345e-264
1.84859e-263
3.20712e-262
6.8182e-261
1.80405e-259
6.08349e-258
2.71242e-256
1.699e-254
1.67198e-252
3.39121e-250
1.50308e-174
1.18273e-192
3.27226e-193
1.24189e-268
2.64404e-268
8.015e-268
3.22212e-267
1.65014e-266
1.0497e-265
8.16808e-265
7.70426e-264
8.77314e-263
1.2069e-261
2.01471e-260
4.11996e-259
1.04825e-257
3.39801e-256
1.45594e-254
8.76095e-253
8.2793e-251
1.61179e-248
3.62767e-174
8.2861e-193
2.47848e-193
1.09351e-266
2.28355e-266
6.73918e-266
2.62718e-265
1.30167e-264
7.99897e-264
6.00696e-263
5.46422e-262
5.99776e-261
7.94984e-260
1.2782e-258
2.51673e-257
6.16353e-256
1.92253e-254
7.92386e-253
4.58498e-251
4.16492e-249
7.78994e-247
9.12547e-174
5.69044e-193
1.81813e-193
9.66748e-265
1.98115e-264
5.69656e-264
2.15538e-263
1.03411e-262
6.14466e-262
4.4575e-261
3.91413e-260
4.14514e-259
5.2987e-258
8.21323e-257
1.55852e-255
3.67728e-254
1.10473e-252
4.38389e-251
2.44146e-249
2.13373e-247
3.8377e-245
2.39204e-173
3.82345e-193
1.2927e-193
8.60994e-263
1.73225e-262
4.85646e-262
1.78493e-261
8.29992e-261
4.77297e-260
3.34766e-259
2.84015e-258
2.90452e-257
3.58383e-256
5.36015e-255
9.81105e-254
2.23218e-252
6.46422e-251
2.47193e-249
1.32613e-247
1.116e-245
1.93181e-243
6.53066e-173
2.51013e-193
8.91398e-194
7.75004e-261
1.53141e-260
4.18902e-260
1.49673e-259
6.75097e-259
3.76037e-258
2.55217e-257
2.09379e-256
2.06946e-255
2.46681e-254
3.56295e-253
6.2957e-252
1.38233e-250
3.86199e-249
1.42428e-247
7.36638e-246
5.974e-244
9.96041e-242
1.85566e-172
1.60854e-193
5.96453e-194
7.07368e-259
1.37331e-258
3.66756e-258
1.27486e-257
5.58206e-257
3.01409e-256
1.98111e-255
1.5729e-254
1.50371e-253
1.73297e-252
2.41907e-251
4.1297e-250
8.7574e-249
2.36221e-247
8.40807e-246
4.19555e-244
3.28138e-242
5.27353e-240
5.48212e-172
1.00538e-193
3.87428e-194
6.56854e-257
1.25334e-256
3.26984e-256
1.10655e-255
4.70694e-255
2.46562e-254
1.57068e-253
1.20776e-252
1.11766e-251
1.24626e-250
1.68257e-249
2.77713e-248
5.69193e-247
1.4834e-245
5.09966e-244
2.45683e-242
1.8544e-240
2.87465e-238
1.6817e-171
6.1251e-194
2.44374e-194
6.22681e-255
1.16809e-254
2.97871e-254
9.82021e-254
4.06101e-253
2.06522e-252
1.27599e-251
9.50952e-251
8.52443e-250
9.20342e-249
1.20262e-247
1.92047e-246
3.80692e-245
9.5924e-244
3.18718e-242
1.48344e-240
1.0813e-238
1.61788e-236
5.34842e-171
3.63537e-194
1.49715e-194
6.04799e-253
1.11571e-252
2.78247e-252
8.94232e-252
3.59751e-251
1.77738e-250
1.06583e-249
7.70402e-249
6.69424e-248
7.00267e-247
8.8623e-246
1.37015e-244
2.62861e-243
6.40786e-242
2.05904e-240
9.26476e-239
6.52575e-237
9.43014e-235
1.76036e-170
2.10098e-194
8.91006e-195
6.04218e-251
1.09643e-250
2.6755e-250
8.38715e-250
3.28465e-249
1.57761e-248
9.18815e-248
6.44559e-247
5.43261e-246
5.50974e-245
6.75767e-244
1.01213e-242
1.88041e-241
4.43752e-240
1.37984e-238
6.00566e-237
4.09008e-235
5.71165e-233
5.98418e-170
1.18176e-194
5.15143e-195
6.23534e-249
1.11327e-248
2.65937e-248
8.13637e-248
3.10383e-247
1.45018e-246
8.20815e-246
5.59195e-245
4.57452e-244
4.50088e-243
5.35317e-242
7.77197e-241
1.39914e-239
3.19817e-238
9.62889e-237
4.05618e-235
2.67242e-233
3.60841e-231
2.09645e-169
6.46654e-195
2.89332e-195
6.67807e-247
1.17339e-246
2.74522e-246
8.20189e-246
3.04953e-245
1.38687e-244
7.63351e-244
5.05348e-243
4.01487e-242
3.83452e-241
4.42512e-240
6.23123e-239
1.08759e-237
2.40935e-236
7.02741e-235
2.86667e-233
1.82814e-231
2.38798e-229
7.5514e-169
3.44068e-195
1.5785e-195
7.46168e-245
1.29056e-244
2.95841e-244
8.63598e-244
3.13137e-243
1.38699e-242
7.42816e-242
4.78136e-241
3.69132e-240
3.42417e-239
3.83631e-238
5.24238e-237
8.87595e-236
1.90665e-234
5.3903e-233
2.13038e-231
1.31569e-229
1.6634e-227
2.78981e-168
1.77925e-195
8.36372e-196
8.74854e-243
1.48977e-242
3.34757e-242
9.55263e-242
3.37978e-241
1.45885e-240
7.60652e-240
4.76327e-239
3.57541e-238
3.22307e-237
3.50755e-236
4.65383e-235
7.64739e-234
1.59371e-232
4.36928e-231
1.67388e-229
1.00158e-227
1.22618e-225
1.0545e-167
8.93787e-196
4.30289e-196
1.08318e-240
1.81643e-240
4.00252e-240
1.11707e-239
3.85853e-239
1.62391e-238
8.2479e-238
5.02741e-237
3.67101e-236
3.21755e-235
3.40294e-234
4.38602e-233
6.9984e-232
1.41559e-230
3.7653e-229
1.39888e-227
8.11339e-226
9.62244e-224
4.06779e-167
4.35918e-196
2.14881e-196
1.42576e-238
2.35499e-238
5.09073e-238
1.39023e-237
4.69055e-237
1.92579e-236
9.53282e-236
5.65886e-235
4.02169e-234
3.42893e-233
3.52608e-232
4.41691e-231
6.84654e-230
1.34477e-228
3.47181e-227
1.25137e-225
7.03791e-224
8.08939e-222
2.06305e-196
1.04125e-196
2.00869e-236
3.26864e-236
6.93421e-236
1.8538e-235
6.1123e-235
2.44936e-234
1.18225e-233
6.8381e-233
4.73218e-232
3.92665e-231
3.92785e-230
4.78391e-229
7.20681e-228
1.3751e-226
3.44717e-225
1.20589e-223
6.5791e-222
7.33138e-220
9.46879e-197
4.89391e-197
3.04818e-234
4.88758e-234
1.01793e-233
2.6652e-233
8.5917e-233
3.36197e-232
1.58307e-231
8.9257e-231
6.01739e-230
4.86148e-229
4.7324e-228
5.60642e-227
8.2115e-226
1.52263e-224
3.70764e-223
1.25925e-221
6.66674e-220
7.2048e-218
2.22994e-197
5.00842e-232
7.9148e-232
1.61887e-231
4.15284e-231
1.30946e-230
5.00572e-230
2.30046e-229
1.26491e-228
8.31081e-228
6.53997e-227
6.19779e-226
7.14459e-225
1.01776e-223
1.8346e-222
4.34072e-221
1.43178e-219
7.35787e-218
7.71387e-216
9.84565e-198
8.94195e-230
1.39298e-229
2.79903e-229
7.03778e-229
2.17151e-228
8.11289e-228
3.64033e-227
1.95281e-226
1.25093e-225
9.59171e-225
8.85233e-224
9.93296e-223
1.37662e-221
2.41305e-220
5.54916e-219
1.77811e-217
8.87193e-216
9.02513e-214
4.2098e-198
1.73728e-227
2.66837e-227
5.26914e-227
1.29905e-226
3.92375e-226
1.43326e-225
6.28169e-225
3.28876e-224
2.05468e-223
1.53563e-222
1.38066e-221
1.50841e-220
2.03445e-219
3.46872e-218
7.75495e-217
2.41451e-215
1.16994e-213
1.15505e-211
1.74213e-198
3.67059e-225
5.55987e-225
1.07926e-224
2.60993e-224
7.71998e-224
2.75812e-223
1.18116e-222
6.0374e-222
3.67997e-221
2.68163e-220
2.34944e-219
2.49994e-218
3.28215e-217
5.44449e-216
1.18361e-214
3.5815e-213
1.6856e-211
1.61535e-209
6.973e-199
8.41268e-223
1.25693e-222
2.39928e-222
5.69308e-222
1.6497e-221
5.76673e-221
2.41388e-220
1.205e-219
7.16803e-219
5.09441e-218
4.35053e-217
4.5097e-216
5.76476e-215
9.30566e-214
1.96756e-212
5.78715e-211
2.64592e-209
2.46164e-207
2.69763e-199
2.08324e-220
3.07088e-220
5.76596e-220
1.34293e-219
3.81357e-219
1.30477e-218
5.34019e-218
2.60432e-217
1.51235e-216
1.04858e-215
8.73064e-215
8.81848e-214
1.0978e-212
1.72482e-211
3.54755e-210
1.01441e-208
4.50618e-207
4.07043e-205
1.00799e-199
5.54644e-218
8.06845e-218
1.49064e-217
3.40895e-217
9.49002e-217
3.17902e-216
1.27259e-215
6.06489e-215
3.43911e-214
2.32686e-213
1.88934e-212
1.85993e-211
2.25534e-210
3.44955e-209
6.90274e-208
1.91919e-206
8.28407e-205
7.26615e-203
3.63512e-200
1.57899e-215
2.26734e-215
4.12299e-215
9.26119e-215
2.5283e-214
8.29504e-214
3.24879e-213
1.51348e-212
8.38273e-212
5.5359e-211
4.38456e-210
4.20767e-209
4.97076e-208
7.40247e-207
1.44137e-205
3.89704e-204
1.6347e-202
1.39239e-200
1.26426e-200
4.77962e-213
6.7765e-213
1.21325e-212
2.67767e-212
7.17096e-212
2.30498e-211
8.83508e-211
4.02448e-210
2.17777e-209
1.4041e-208
1.085e-207
1.01521e-206
1.16864e-205
1.69476e-204
3.21145e-203
8.4445e-202
3.44266e-200
2.84781e-198
4.23709e-201
1.52997e-210
2.14235e-210
3.77765e-210
8.19454e-210
2.15349e-209
6.78376e-209
2.54553e-208
1.13406e-207
5.99715e-207
3.77582e-206
2.84723e-205
2.59805e-204
2.91465e-203
4.11666e-202
7.59256e-201
1.94186e-199
7.69462e-198
6.18182e-196
1.36731e-201
5.15284e-208
7.12813e-208
1.23833e-207
2.64104e-207
6.81288e-207
2.1039e-206
7.73071e-206
3.3694e-205
1.74168e-204
1.07105e-203
7.88295e-203
7.01591e-202
7.67191e-201
1.05549e-199
1.89493e-198
4.71428e-197
1.81577e-195
1.41683e-193
4.24679e-202
1.81644e-205
2.48315e-205
4.25139e-205
8.9176e-205
2.2588e-204
6.84015e-204
2.46187e-203
1.04998e-202
5.30645e-202
3.18794e-201
2.29052e-200
1.9887e-199
2.11997e-198
2.84134e-197
4.96593e-196
1.20184e-194
4.49971e-193
3.41017e-191
1.90328e-202
6.66699e-203
9.00948e-203
1.52068e-202
3.13814e-202
7.8074e-202
2.31907e-201
8.17773e-201
3.41377e-200
1.68716e-199
9.90402e-199
6.94791e-198
5.88564e-197
6.11717e-196
7.98784e-195
1.35918e-193
3.20014e-192
1.1647e-190
8.57306e-189
2.44074e-200
2.53468e-200
3.38705e-200
5.63783e-200
1.14499e-199
2.7988e-199
8.15674e-199
2.8188e-198
1.152e-197
5.56881e-197
3.19479e-196
2.18863e-195
1.80915e-194
1.83347e-193
2.3328e-192
3.86479e-191
8.85275e-190
3.13205e-188
2.23909e-186
9.6191e-198
9.93315e-198
1.31298e-197
2.15599e-197
4.31052e-197
1.03552e-196
2.96183e-196
1.00333e-195
4.01521e-195
1.89885e-194
1.0648e-193
7.1244e-193
5.74732e-192
5.68004e-191
7.04225e-190
1.136e-188
2.53163e-187
8.70669e-186
6.04496e-184
3.89649e-195
3.99644e-195
5.2272e-195
8.47028e-195
1.66766e-194
3.93845e-194
1.10584e-193
3.67293e-193
1.43962e-192
6.66161e-192
3.65194e-191
2.38677e-190
1.87927e-189
1.81133e-188
2.18846e-187
3.43748e-186
7.45304e-185
2.49158e-183
1.6799e-181
1.61335e-192
1.64409e-192
2.12861e-192
3.40496e-192
6.60365e-192
1.53359e-191
4.2282e-191
1.37723e-190
5.28805e-190
2.3947e-189
1.28359e-188
8.19538e-188
6.2987e-187
5.92123e-186
6.97196e-185
1.06634e-183
2.24934e-182
7.30908e-181
4.78521e-179
6.79294e-190
6.88037e-190
8.82093e-190
1.39335e-189
2.66273e-189
6.08248e-189
1.64705e-188
5.2624e-188
1.97973e-187
8.7751e-187
4.59948e-186
2.86916e-185
2.15265e-184
1.97383e-183
2.26497e-182
3.37321e-181
6.9223e-180
2.18622e-178
1.38966e-176
2.89681e-187
2.9174e-187
3.70501e-187
5.78114e-187
1.08894e-186
2.44738e-186
6.51046e-186
2.0408e-185
7.52366e-185
3.26459e-184
1.67348e-183
1.02002e-182
7.4712e-182
6.68218e-181
7.4729e-180
1.08368e-178
2.16338e-177
6.64004e-176
4.09734e-174
1.2457e-184
1.24791e-184
1.57046e-184
2.42144e-184
4.49696e-184
9.94652e-184
2.59994e-183
7.99739e-183
2.88972e-182
1.22762e-181
6.15511e-181
3.66606e-180
2.6216e-179
2.28715e-178
2.49276e-177
3.5197e-176
6.83493e-175
2.03853e-173
1.22093e-171
5.38129e-182
5.3645e-182
6.69248e-182
1.02e-181
1.86822e-181
4.06767e-181
1.045e-180
3.15482e-180
1.11744e-179
4.64833e-179
2.27975e-178
1.32694e-177
9.26446e-177
7.88415e-176
8.37424e-175
1.15123e-173
2.17444e-172
6.3011e-171
3.66229e-169
2.32582e-179
2.3082e-179
2.85568e-179
4.30365e-179
7.77622e-179
1.6671e-178
4.21013e-178
1.24769e-177
4.3327e-177
1.76498e-176
8.46805e-176
4.81696e-175
3.28361e-174
2.72577e-173
2.82143e-172
3.77613e-171
6.93649e-170
1.95267e-168
1.10112e-166
1.00132e-176
9.89711e-177
1.21476e-176
1.81081e-176
3.22875e-176
6.81716e-176
1.69274e-175
4.92517e-175
1.677e-174
6.69061e-174
3.14043e-173
1.7459e-172
1.16201e-171
9.40894e-171
9.49044e-170
1.23648e-168
2.20867e-167
6.03894e-166
3.30315e-164
4.27557e-174
4.21069e-174
5.12913e-174
7.56531e-174
1.33149e-173
2.7694e-173
6.76253e-173
1.93208e-172
6.4513e-172
2.52096e-171
1.15769e-170
6.29029e-170
4.08765e-169
3.22834e-168
3.17294e-167
4.02382e-166
6.98829e-165
1.85547e-163
9.8416e-162
1.80623e-171
1.77316e-171
2.14444e-171
3.13067e-171
5.44026e-171
1.11492e-170
2.67783e-170
7.51362e-170
2.46052e-169
9.41813e-169
4.2317e-168
2.24723e-167
1.42578e-166
1.09829e-165
1.05171e-164
1.29808e-163
2.19154e-162
5.64927e-161
2.90485e-159
7.50476e-169
7.34703e-169
8.82508e-169
1.27563e-168
2.18924e-168
4.4217e-168
1.04476e-167
2.87931e-167
9.24832e-167
3.46772e-166
1.5245e-165
7.91243e-165
4.9012e-164
3.68205e-163
3.43501e-162
4.12568e-161
6.76984e-160
1.69383e-158
8.44071e-157
3.05427e-166
2.98314e-166
3.56029e-166
5.09696e-166
8.64129e-166
1.72043e-165
3.9997e-165
1.08282e-164
3.41166e-164
1.25318e-163
5.39056e-163
2.73439e-162
1.65356e-161
1.21143e-160
1.10088e-159
1.28648e-158
2.05132e-157
4.98034e-156
2.40432e-154
1.21483e-163
1.18429e-163
1.40487e-163
1.99258e-163
3.33807e-163
6.55249e-163
1.49908e-162
3.98717e-162
1.23236e-161
4.43473e-161
1.86651e-160
9.25318e-160
5.46247e-159
3.90228e-158
3.45393e-157
3.92645e-156
6.08246e-155
1.43258e-153
6.69754e-152
4.74332e-161
4.61234e-161
5.43583e-161
7.63565e-161
1.26358e-160
2.44483e-160
5.50279e-160
1.43753e-159
4.35756e-159
1.53581e-158
6.32294e-158
3.06254e-157
1.76433e-156
1.2286e-155
1.05875e-154
1.17035e-153
1.76048e-152
4.01998e-151
1.81863e-149
6.36849e-158
5.74652e-158
6.29144e-158
8.21526e-158
1.26422e-157
2.27472e-157
4.76041e-157
1.15575e-156
3.25361e-156
1.06389e-155
4.05815e-155
1.81784e-154
9.66248e-154
6.18832e-153
4.88342e-152
4.91301e-151
6.66353e-150
1.35011e-148
5.22768e-147
5.55092e-155
5.75847e-155
7.13789e-155
1.04253e-154
1.77692e-154
3.51268e-154
8.02194e-154
2.11331e-153
6.42502e-153
2.26014e-152
9.2457e-152
4.4305e-151
2.51387e-150
1.7152e-149
1.43951e-148
1.5431e-147
2.31744e-146
1.04355e-144
8.47781e-143
3.6104e-153
3.61508e-153
4.32223e-153
6.08902e-153
1.00139e-152
1.9114e-152
4.21942e-152
1.07616e-151
3.17373e-151
1.08512e-150
4.32223e-150
2.02047e-149
1.12269e-148
7.59024e-148
6.54671e-147
7.68764e-146
7.51477e-146
5.38853e-140
4.12347e-138
1.80912e-151
1.84342e-151
2.2185e-151
3.11826e-151
5.08029e-151
9.55092e-151
2.06594e-150
5.13403e-150
1.46442e-149
4.79768e-149
1.81464e-148
8.04153e-148
4.32365e-147
3.05653e-146
1.06725e-145
7.83825e-147
-1.98227e-142
2.43768e-135
1.79737e-133
5.11207e-150
5.1601e-150
6.12429e-150
8.46493e-150
1.35368e-149
2.49307e-149
5.26567e-149
1.27229e-148
3.52218e-148
1.12965e-147
4.31439e-147
2.07504e-146
1.11255e-145
1.42662e-145
5.66248e-145
-4.02732e-141
-7.58745e-138
9.79295e-131
6.95283e-129
9.70654e-149
9.94051e-149
1.19109e-148
1.65445e-148
2.64282e-148
4.82573e-148
1.00558e-147
2.41236e-147
6.83232e-147
2.40453e-146
1.23944e-147
1.28356e-147
1.53942e-147
2.11505e-147
3.31024e-147
5.9396e-147
1.25455e-146
1.63003e-88
1.68454e-87
1.0615e-221
3.69673e-317
2.01791e-317
1.51218e-317
1.18082e-317
9.92107e-318
8.25902e-318
7.6484e-318
7.09047e-318
6.57864e-318
6.11177e-318
5.68417e-318
5.2919e-318
5.48092e-318
5.62745e-318
6.69327e-318
3.26673e-317
1.03132e-313
1.38346e-309
9.23821e-100
2.01766e-98
7.08801e-207
3.69604e-317
2.14365e-317
1.62823e-317
1.28798e-317
9.91978e-318
8.25809e-318
7.64766e-318
7.0899e-318
6.57821e-318
6.11143e-318
5.68393e-318
5.29172e-318
7.67312e-318
4.67788e-315
4.81386e-312
7.07423e-309
1.6299e-305
7.40076e-302
1.06014e-125
-3.89164e-154
3.03178e-205
3.69547e-317
2.14331e-317
1.62798e-317
1.2878e-317
9.91857e-318
9.17468e-318
8.49664e-318
7.08937e-318
6.57781e-318
6.11116e-318
5.68373e-318
1.44637e-316
4.96926e-314
2.25505e-311
1.37908e-308
1.2013e-305
1.64561e-302
4.52113e-299
5.30451e-126
5.83304e-125
5.59032e-204
3.55807e-317
2.14298e-317
1.86028e-317
1.39493e-317
1.19009e-317
9.17375e-318
7.64634e-318
7.08889e-318
6.57746e-318
2.58016e-317
1.65708e-315
3.25579e-313
8.09736e-311
2.61186e-308
1.13218e-305
6.97884e-303
6.77738e-300
1.33395e-296
9.16132e-132
1.25299e-130
6.19537e-203
3.968e-317
2.64682e-317
1.86002e-317
1.39475e-317
1.09079e-317
9.1729e-318
7.64575e-318
7.08846e-318
1.57852e-316
1.56747e-314
1.92415e-312
2.93888e-310
5.6723e-308
1.41666e-305
4.74444e-303
2.25665e-300
1.69313e-297
2.59269e-294
1.56124e-152
2.16554e-152
4.7698e-202
3.96735e-317
2.5204e-317
1.85977e-317
1.39458e-317
1.09068e-317
9.17209e-318
4.84197e-317
2.14848e-315
1.43297e-313
1.17055e-311
1.17671e-309
1.46921e-307
2.31427e-305
4.7084e-303
1.28234e-300
4.95524e-298
3.02297e-295
3.78257e-292
1.0264e-152
4.95506e-152
2.76973e-201
3.96666e-317
2.52002e-317
1.85951e-317
1.39441e-317
4.75885e-317
8.0983e-316
3.00778e-314
1.38272e-312
7.80586e-311
5.39993e-309
4.59248e-307
4.84532e-305
6.44024e-303
1.10397e-300
2.5298e-298
8.21846e-296
4.21734e-293
4.45449e-290
6.79718e-157
2.92063e-156
1.27931e-200
3.82917e-317
2.51961e-317
7.55322e-317
9.0948e-316
1.7951e-314
4.59878e-313
1.48384e-311
5.92494e-310
2.90215e-308
1.74045e-306
1.282e-304
1.17019e-302
1.34403e-300
1.98833e-298
3.92779e-296
1.09922e-293
4.86079e-291
4.43533e-288
1.39943e-172
5.39338e-172
4.8788e-200
8.69598e-316
4.1277e-315
3.58112e-314
4.621e-313
8.11067e-312
1.84212e-310
5.25966e-309
1.85612e-307
8.02752e-306
4.24702e-304
2.75728e-302
2.21615e-300
2.23895e-298
2.9104e-296
5.04695e-294
1.23914e-291
4.80801e-289
3.85632e-286
1.34123e-178
2.62189e-178
1.57922e-199
4.27458e-313
1.87867e-312
1.48459e-311
1.73367e-310
2.7419e-309
5.59579e-308
1.43306e-306
4.53041e-305
1.75355e-303
8.2958e-302
4.81197e-300
3.45245e-298
3.11068e-296
3.60288e-294
5.56234e-292
1.21519e-289
4.19572e-287
2.99814e-284
7.12654e-179
6.60886e-180
4.43213e-199
1.59252e-310
6.54488e-310
4.76284e-309
5.08574e-308
7.32409e-307
1.35748e-305
3.15178e-304
9.02231e-303
3.1592e-301
1.35093e-299
7.07733e-298
4.58243e-296
3.72296e-294
3.88507e-292
5.40027e-290
1.0617e-287
3.29862e-285
2.12273e-282
8.6342e-179
1.75745e-181
1.09688e-198
4.7331e-308
1.8317e-307
1.23701e-306
1.21768e-305
1.61033e-304
2.73404e-303
5.8052e-302
1.51795e-300
4.85059e-299
1.89139e-297
9.02868e-296
5.32274e-294
3.93454e-292
3.73303e-290
4.7148e-288
8.41854e-286
2.37521e-283
1.3887e-280
1.10154e-178
5.2952e-183
2.42686e-198
1.16467e-305
4.26881e-305
2.69239e-304
2.45965e-303
3.00783e-302
4.71124e-301
9.21414e-300
2.21671e-298
6.51137e-297
2.33214e-295
1.02185e-293
5.52577e-292
3.74418e-290
3.25428e-288
3.76307e-286
6.14916e-284
1.58746e-281
8.49461e-279
1.43964e-178
1.92659e-184
4.85522e-198
2.44321e-303
8.52238e-303
5.04675e-302
4.30287e-301
4.89392e-300
7.11387e-299
1.28927e-297
2.87109e-296
7.79985e-295
2.58184e-293
1.0448e-291
5.21484e-290
3.25943e-288
2.61173e-286
2.78279e-284
4.18837e-282
9.95691e-280
4.90677e-277
1.92825e-178
8.39282e-186
8.86743e-198
4.47356e-301
1.49117e-300
8.32846e-300
6.65866e-299
7.07851e-298
9.59723e-297
1.62003e-295
3.35671e-294
8.47788e-293
2.60714e-291
9.79567e-290
4.53682e-288
2.62979e-286
1.95321e-284
1.92814e-282
2.68765e-280
5.91576e-278
2.6991e-275
2.64979e-178
4.03661e-187
1.49051e-197
7.2891e-299
2.32996e-298
1.23216e-297
9.2756e-297
9.25526e-296
1.17551e-294
1.85631e-293
3.59466e-292
8.47832e-291
2.43322e-289
8.52693e-288
3.68142e-286
1.98823e-284
1.3752e-282
1.26368e-280
1.63905e-278
3.35605e-276
1.42421e-273
3.7402e-178
1.993e-188
2.32191e-197
1.07404e-296
3.30229e-296
1.65918e-295
1.18024e-294
1.10944e-293
1.32497e-292
1.96487e-291
3.5697e-290
7.89326e-289
2.12242e-287
6.96473e-286
2.81429e-284
1.42186e-282
9.19594e-281
7.8982e-279
9.57162e-277
1.83062e-274
7.25477e-272
5.42915e-178
9.99485e-190
3.37245e-197
1.45085e-294
4.30213e-294
2.0598e-293
1.38887e-292
1.2339e-291
1.3902e-290
1.94249e-289
3.32216e-288
6.91038e-287
1.74694e-285
5.38675e-284
2.04438e-282
9.69667e-281
5.88511e-279
4.74143e-277
5.3881e-275
9.66013e-273
3.58776e-270
8.11418e-178
5.53095e-191
4.59109e-197
1.81782e-292
5.21059e-292
2.38368e-291
1.52774e-290
1.28646e-289
1.37135e-288
1.81079e-287
2.92411e-286
5.73911e-285
1.36819e-283
3.9766e-282
1.42189e-280
6.35133e-279
3.62879e-277
2.75118e-275
2.94101e-273
4.95859e-271
1.73131e-268
1.25016e-177
3.99245e-192
5.88506e-197
2.13408e-290
5.92526e-290
2.59611e-289
1.58551e-288
1.26866e-287
1.28286e-286
1.60503e-285
2.45374e-284
4.5564e-283
1.02715e-281
2.82167e-280
9.53196e-279
4.02097e-277
2.16877e-275
1.55168e-273
1.56481e-271
2.48808e-269
8.18967e-267
1.98803e-177
4.20019e-193
7.13193e-197
2.36841e-288
6.38118e-288
2.68348e-287
1.56518e-286
1.19279e-285
1.14681e-284
1.36271e-283
1.97701e-282
3.48169e-281
7.43998e-280
1.93651e-278
6.19579e-277
2.47447e-275
1.26312e-273
8.5499e-272
8.15467e-270
1.22587e-267
3.81349e-265
3.26705e-177
6.41051e-194
8.20036e-197
2.50443e-286
6.55834e-286
2.65225e-285
1.48039e-284
1.07672e-283
9.86369e-283
1.11554e-281
1.53916e-280
2.57633e-279
5.23006e-278
1.29269e-276
3.92594e-275
1.4878e-273
7.20395e-272
4.62387e-270
4.18046e-268
5.95511e-266
1.75476e-263
5.55501e-177
1.43044e-194
8.97429e-197
2.54103e-284
6.47676e-284
2.52326e-283
1.35027e-282
9.39058e-282
8.21241e-281
8.85707e-280
1.16449e-278
1.8563e-277
3.58709e-276
8.43612e-275
2.43694e-273
8.78103e-272
4.04135e-270
2.46475e-268
2.1167e-266
2.86315e-264
8.00775e-262
9.7842e-177
4.72252e-195
9.37397e-197
2.48948e-282
6.18402e-282
2.32464e-281
1.19466e-280
7.95812e-280
6.65563e-279
6.85728e-278
8.60631e-277
1.3089e-275
2.41201e-274
5.40739e-273
1.48848e-271
5.10916e-270
2.23921e-268
1.30006e-266
1.06251e-264
1.36724e-262
3.63625e-260
1.78719e-176
2.2643e-195
9.36878e-197
2.3686e-280
5.7407e-280
2.08527e-279
1.03076e-278
6.58731e-278
5.27698e-277
5.20231e-276
6.243e-275
9.07352e-274
1.59716e-272
3.41895e-271
8.9832e-270
2.94225e-268
1.23006e-266
6.8102e-265
5.30577e-263
6.50624e-261
1.64822e-258
3.3891e-176
1.30471e-195
8.97919e-197
2.20008e-278
5.20791e-278
1.83045e-277
8.71531e-277
5.35122e-276
4.1122e-275
3.88493e-274
4.46443e-273
6.21014e-272
1.04578e-270
2.14084e-269
5.37748e-268
1.68323e-266
6.72309e-265
3.55503e-263
2.64442e-261
3.09496e-259
7.47973e-257
6.67884e-176
8.33678e-196
8.26868e-197
2.00468e-276
4.63894e-276
1.5796e-275
7.25393e-275
4.28504e-274
3.16313e-273
2.86766e-272
3.16012e-271
4.21308e-270
6.79695e-269
1.33253e-267
3.20438e-266
9.59941e-265
3.66835e-263
1.85528e-261
1.31952e-259
1.47607e-257
3.40801e-255
1.369e-175
5.69076e-196
7.32884e-197
1.79992e-274
4.07503e-274
1.34581e-273
5.96828e-273
3.39619e-272
2.41131e-271
2.1005e-270
2.22256e-269
2.84366e-268
4.40084e-267
8.27343e-266
1.90721e-264
5.47528e-263
2.00451e-261
9.70918e-260
6.61126e-258
7.07795e-256
1.56327e-253
2.92093e-175
3.9972e-196
6.26182e-197
1.59909e-272