/*--------------------------------*- C++ -*----------------------------------*\
| =========                 |                                                 |
| \\      /  F ield         | OpenFOAM: The Open Source CFD Toolbox           |
|  \\    /   O peration     | Version:  v2012                                 |
|   \\  /    A nd           | Website:  www.openfoam.com                      |
|    \\/     M anipulation  |                                                 |
\*---------------------------------------------------------------------------*/
FoamFile
{
    version     2.0;
    format      ascii;
    class       volVectorField;
    location    "0.75";
    object      U;
}
// * * * * * * * * * * * * * * * * * * * * * * * * * * * * * * * * * * * * * //

dimensions      [0 1 -1 0 0 0 0];


internalField   nonuniform List<vector> 
3338
(
(-0.0443471 -0.297221 0.000387533)
(-0.0357473 -0.0594964 0.000312434)
(-0.012549 0.158211 0.00010939)
(-0.00954262 0.355421 8.31087e-05)
(-0.00728566 0.534146 6.36163e-05)
(-0.00642016 0.693249 5.60446e-05)
(-0.00582318 0.832872 5.08403e-05)
(-0.00532616 0.952264 4.65013e-05)
(-0.00485057 1.05075 4.23499e-05)
(-0.00437517 1.12758 3.82e-05)
(-0.00389219 1.1819 3.39841e-05)
(-0.00340195 1.21274 2.97048e-05)
(-0.00290858 1.21895 2.53981e-05)
(-0.00241887 1.19922 2.11231e-05)
(-0.00194146 1.15195 1.69553e-05)
(-0.00148635 1.07528 1.29819e-05)
(-0.00106534 0.966973 9.30607e-06)
(-0.000690609 0.82436 6.03388e-06)
(-0.000377727 0.644241 3.30132e-06)
(-0.000140286 0.42276 1.22822e-06)
(-7.11943e-06 0.155482 8.48123e-08)
(-0.0479971 -0.300439 0.000419028)
(-0.0416091 -0.0655254 0.000363344)
(-0.0300742 0.152285 0.000262662)
(-0.0253907 0.353427 0.00022176)
(-0.0213137 0.533283 0.000186128)
(-0.0191337 0.692886 0.000167049)
(-0.0174482 0.832647 0.000152336)
(-0.0159827 0.952074 0.000139541)
(-0.0145645 1.05056 0.000127161)
(-0.0131412 1.12738 0.000114737)
(-0.0116928 1.18168 0.000102094)
(-0.0102212 1.21251 8.92486e-05)
(-0.00873938 1.21872 7.63133e-05)
(-0.0072678 1.19898 6.34671e-05)
(-0.00583251 1.15172 5.09372e-05)
(-0.00446373 1.07506 3.89874e-05)
(-0.00319711 0.966775 2.79286e-05)
(-0.00206961 0.824188 1.80836e-05)
(-0.00112876 0.644101 9.86686e-06)
(-0.000416584 0.422662 3.64863e-06)
(-2.0123e-05 0.155441 2.41908e-07)
(-0.0542231 -0.302072 0.000473364)
(-0.0498845 -0.0682962 0.000435549)
(-0.0438437 0.149911 0.000382813)
(-0.0393249 0.351797 0.000343358)
(-0.0347185 0.532257 0.00030314)
(-0.031621 0.692275 0.000276069)
(-0.0289949 0.832185 0.000253145)
(-0.0266143 0.951649 0.000232362)
(-0.0242755 1.05012 0.000211946)
(-0.0219136 1.12691 0.000191329)
(-0.0195035 1.18119 0.000170292)
(-0.0170515 1.21199 0.000148889)
(-0.0145803 1.21819 0.000127317)
(-0.0121249 1.19845 0.000105882)
(-0.00972888 1.1512 8.49657e-05)
(-0.00744302 1.07457 6.50097e-05)
(-0.00532719 0.966334 4.65368e-05)
(-0.00344377 0.823809 3.00916e-05)
(-0.00187329 0.643803 1.63763e-05)
(-0.000687527 0.422463 6.02276e-06)
(-3.16261e-05 0.155366 3.8462e-07)
(-0.0619804 -0.302389 0.00054108)
(-0.0593125 -0.0688466 0.000517814)
(-0.0560347 0.14907 0.000489184)
(-0.0521354 0.350578 0.000455164)
(-0.0475357 0.53126 0.000415024)
(-0.043833 0.691553 0.000382684)
(-0.0404273 0.831571 0.000352955)
(-0.0372012 0.951051 0.000324792)
(-0.0339739 1.04949 0.000296622)
(-0.0306879 1.12624 0.000267938)
(-0.0273225 1.18047 0.000238562)
(-0.0238921 1.21124 0.000208618)
(-0.0204314 1.21741 0.000178409)
(-0.0169905 1.19767 0.000148372)
(-0.0136315 1.15044 0.000119048)
(-0.0104256 1.07385 9.10609e-05)
(-0.00745762 0.965681 6.51475e-05)
(-0.0048157 0.823246 4.20794e-05)
(-0.00261419 0.643358 2.28532e-05)
(-0.000955387 0.422166 8.36917e-06)
(-4.22041e-05 0.155254 5.19131e-07)
(-0.070814 -0.301793 0.000618172)
(-0.0693908 -0.068415 0.000605765)
(-0.0675523 0.149024 0.000589713)
(-0.0642747 0.349828 0.000561128)
(-0.0598823 0.530426 0.000522801)
(-0.0557854 0.690801 0.000487029)
(-0.051736 0.830843 0.000451683)
(-0.0477343 0.950293 0.000416752)
(-0.043654 1.04867 0.000381137)
(-0.0394611 1.12534 0.000344537)
(-0.0351481 1.17951 0.00030689)
(-0.0307424 1.21023 0.000268432)
(-0.0262924 1.21637 0.000229588)
(-0.0218648 1.19663 0.000190938)
(-0.0175405 1.14943 0.000153188)
(-0.0134122 1.0729 0.000117146)
(-0.0095893 0.964811 8.37693e-05)
(-0.00618662 0.822497 5.40585e-05)
(-0.00335279 0.642765 2.931e-05)
(-0.00122117 0.421771 1.06974e-05)
(-5.23312e-05 0.155105 6.48878e-07)
(-0.0804639 -0.300424 0.000702393)
(-0.0799201 -0.067292 0.000697662)
(-0.0788416 0.149564 0.000688255)
(-0.076053 0.34953 0.00066394)
(-0.0718971 0.529809 0.00062768)
(-0.067526 0.690075 0.000589524)
(-0.0629317 0.830036 0.000549424)
(-0.0582142 0.949393 0.000508247)
(-0.0533146 1.04767 0.000465481)
(-0.048232 1.12424 0.000421116)
(-0.0429799 1.17831 0.000375271)
(-0.037602 1.20897 0.000328328)
(-0.0321632 1.21508 0.000280853)
(-0.0267479 1.19533 0.00023358)
(-0.0214564 1.14816 0.000187386)
(-0.0164031 1.0717 0.00014327)
(-0.011723 0.963721 0.000102409)
(-0.00755749 0.821559 6.60371e-05)
(-0.00409011 0.642024 3.57557e-05)
(-0.00148562 0.421279 1.30141e-05)
(-6.21557e-05 0.15492 7.75703e-07)
(-0.090772 -0.298403 0.000792364)
(-0.090827 -0.0656289 0.000792863)
(-0.0901428 0.150562 0.000786903)
(-0.0876839 0.349631 0.000765467)
(-0.0837088 0.529416 0.000730787)
(-0.0791148 0.689408 0.000690692)
(-0.0740374 0.829176 0.000646378)
(-0.0686494 0.948369 0.000599351)
(-0.0629587 1.04649 0.000549681)
(-0.057002 1.12292 0.000497687)
(-0.0508183 1.17688 0.000443711)
(-0.0444713 1.20745 0.000388309)
(-0.0380442 1.21352 0.000332206)
(-0.03164 1.19377 0.000276301)
(-0.0253794 1.14663 0.000221648)
(-0.019399 1.07025 0.000169437)
(-0.0138593 0.96241 0.000121071)
(-0.00892912 0.820431 7.80226e-05)
(-0.004827 0.641134 4.21977e-05)
(-0.00174938 0.420688 1.53248e-05)
(-7.18377e-05 0.154699 9.01096e-07)
(-0.101648 -0.295836 0.000887298)
(-0.102092 -0.0635392 0.000891192)
(-0.101589 0.15192 0.000886815)
(-0.0993103 0.350068 0.000866956)
(-0.0954254 0.529234 0.000833065)
(-0.0906131 0.68881 0.000791069)
(-0.0850826 0.828279 0.000742804)
(-0.0790535 0.947231 0.000690183)
(-0.0725926 1.04515 0.000633791)
(-0.065774 1.1214 0.000574274)
(-0.058665 1.17522 0.000512223)
(-0.0513513 1.20569 0.000448382)
(-0.0439358 1.2117 0.000383652)
(-0.0365415 1.19194 0.000319104)
(-0.02931 1.14485 0.000255974)
(-0.0224002 1.06857 0.000195651)
(-0.0159989 0.960878 0.000139762)
(-0.0103022 0.819113 9.00205e-05)
(-0.00556413 0.640095 4.86419e-05)
(-0.00201294 0.419999 1.76336e-05)
(-8.1468e-05 0.154443 1.02596e-06)
(-0.113043 -0.292807 0.000986766)
(-0.113716 -0.0610996 0.000992663)
(-0.113256 0.15357 0.00098866)
(-0.111028 0.350783 0.000969244)
(-0.107133 0.529235 0.000935268)
(-0.102077 0.688281 0.00089115)
(-0.0960992 0.827353 0.00083898)
(-0.0894435 0.945988 0.000780891)
(-0.0822249 1.04364 0.000717888)
(-0.0745525 1.11968 0.000650919)
(-0.0665224 1.17333 0.000580828)
(-0.0582431 1.20369 0.000508559)
(-0.0498388 1.20963 0.000435198)
(-0.0414529 1.18985 0.000361993)
(-0.0332484 1.14281 0.00029037)
(-0.0254072 1.06664 0.000221914)
(-0.0181422 0.959125 0.000158485)
(-0.0116773 0.817605 0.000102036)
(-0.00630207 0.638907 5.5093e-05)
(-0.00227665 0.419213 1.99439e-05)
(-9.11136e-05 0.154151 1.15097e-06)
(-0.124932 -0.289378 0.00109054)
(-0.125709 -0.0583634 0.00109735)
(-0.12519 0.155463 0.00109285)
(-0.122903 0.351725 0.0010729)
(-0.1189 0.529392 0.00103798)
(-0.113558 0.687812 0.000991371)
(-0.107119 0.826398 0.000935181)
(-0.0998377 0.944643 0.000871637)
(-0.091866 1.04198 0.000802061)
(-0.0833433 1.11776 0.000727672)
(-0.0743935 1.17122 0.000649553)
(-0.0651486 1.20143 0.000568856)
(-0.0557541 1.20729 0.000486851)
(-0.0463747 1.1875 0.000404974)
(-0.0371951 1.14051 0.000324838)
(-0.0284202 1.06447 0.000248232)
(-0.0202896 0.95715 0.000177244)
(-0.0130548 0.815907 0.000114073)
(-0.00704123 0.637569 6.15549e-05)
(-0.00254083 0.418328 2.22582e-05)
(-0.000100821 0.153823 1.27661e-06)
(-0.137301 -0.2856 0.00119851)
(-0.138081 -0.0553706 0.00120535)
(-0.137424 0.15756 0.00119964)
(-0.13498 0.352852 0.00117833)
(-0.130777 0.529672 0.00114167)
(-0.125096 0.687388 0.0010921)
(-0.118171 0.825408 0.00103167)
(-0.110255 0.943195 0.000962582)
(-0.101527 1.04016 0.000886408)
(-0.0921528 1.11564 0.000804587)
(-0.0822822 1.16887 0.00071843)
(-0.0720698 1.19892 0.000629289)
(-0.061683 1.20469 0.000538622)
(-0.0513076 1.18489 0.000448051)
(-0.0411504 1.13796 0.000359381)
(-0.0314397 1.06205 0.000274605)
(-0.0224414 0.954953 0.000196042)
(-0.0144351 0.814017 0.000126134)
(-0.00778195 0.636082 6.80304e-05)
(-0.00280566 0.417346 2.45783e-05)
(-0.000110621 0.153459 1.40318e-06)
(-0.150145 -0.281513 0.00131063)
(-0.150842 -0.0521534 0.00131675)
(-0.149976 0.159829 0.00130922)
(-0.147293 0.354125 0.00128582)
(-0.142804 0.530048 0.00124666)
(-0.136728 0.686992 0.00119365)
(-0.129281 0.824375 0.00112866)
(-0.120712 0.94164 0.00105388)
(-0.111219 1.03818 0.000971025)
(-0.100988 1.11333 0.000881724)
(-0.0901921 1.16629 0.000787495)
(-0.0790088 1.19616 0.000689878)
(-0.0676265 1.20184 0.000590521)
(-0.0562522 1.18201 0.000491231)
(-0.0451148 1.13514 0.000394004)
(-0.0344659 1.05938 0.000301036)
(-0.0245979 0.952532 0.000214881)
(-0.0158185 0.811936 0.000138223)
(-0.00852447 0.634444 7.45217e-05)
(-0.00307131 0.416265 2.69055e-05)
(-0.000120532 0.153059 1.53087e-06)
(-0.163464 -0.277149 0.0014269)
(-0.164002 -0.0487391 0.00143163)
(-0.162863 0.162242 0.00142171)
(-0.159864 0.355511 0.00139556)
(-0.155012 0.53049 0.00135324)
(-0.148482 0.686604 0.00129626)
(-0.140473 0.823288 0.00122637)
(-0.131227 0.939973 0.00114568)
(-0.120953 1.03604 0.00105601)
(-0.109855 1.11081 0.000959142)
(-0.0981274 1.16348 0.00085678)
(-0.085968 1.19315 0.000750643)
(-0.0735859 1.19871 0.000642559)
(-0.0612092 1.17887 0.000534518)
(-0.0490886 1.13207 0.000428708)
(-0.0374989 1.05648 0.000327528)
(-0.0267594 0.949888 0.000233763)
(-0.0172052 0.809663 0.000150339)
(-0.00926895 0.632656 8.10301e-05)
(-0.00333787 0.415085 2.92407e-05)
(-0.000130565 0.152623 1.6598e-06)
(-0.177259 -0.272538 0.00154732)
(-0.177567 -0.0451519 0.00155005)
(-0.176095 0.164775 0.00153722)
(-0.17271 0.356982 0.0015077)
(-0.167424 0.530972 0.00146159)
(-0.16038 0.686205 0.00140013)
(-0.151766 0.822134 0.00132496)
(-0.141812 0.938185 0.00123809)
(-0.130738 1.03373 0.00114144)
(-0.11876 1.10808 0.00103689)
(-0.106092 1.16044 0.00092632)
(-0.0929495 1.18989 0.000811603)
(-0.0795623 1.19533 0.000694746)
(-0.066179 1.17546 0.000577918)
(-0.053072 1.12873 0.000463497)
(-0.040539 1.05332 0.000354082)
(-0.0289258 0.94702 0.000252688)
(-0.0185952 0.807199 0.000162486)
(-0.0100155 0.630718 8.75566e-05)
(-0.00360541 0.413806 3.15845e-05)
(-0.000140725 0.152151 1.79004e-06)
(-0.191531 -0.267705 0.00167191)
(-0.191545 -0.0414144 0.00167207)
(-0.189679 0.167404 0.00165581)
(-0.185843 0.358511 0.00162235)
(-0.180056 0.531471 0.00157187)
(-0.172441 0.685775 0.00150542)
(-0.163175 0.820898 0.00142457)
(-0.152482 0.936266 0.00133124)
(-0.140584 1.03125 0.0012274)
(-0.12771 1.10515 0.00111503)
(-0.114089 1.15717 0.000996145)
(-0.0999553 1.18638 0.000872775)
(-0.0855568 1.19168 0.000747091)
(-0.0711622 1.17178 0.000621435)
(-0.0570651 1.12514 0.000498371)
(-0.0435862 1.04992 0.000380696)
(-0.0310972 0.943928 0.000271657)
(-0.0199886 0.804541 0.000174662)
(-0.0107642 0.628628 9.41015e-05)
(-0.00387394 0.412428 3.3937e-05)
(-0.000151014 0.151642 1.92159e-06)
(-0.206285 -0.262673 0.0018007)
(-0.205939 -0.0375478 0.00179773)
(-0.203621 0.170109 0.00177752)
(-0.199272 0.360074 0.00173959)
(-0.19292 0.531963 0.00168417)
(-0.184677 0.685294 0.00161225)
(-0.174714 0.819565 0.0015253)
(-0.163245 0.934207 0.00142521)
(-0.150497 1.02858 0.00131395)
(-0.136709 1.102 0.0011936)
(-0.122122 1.15365 0.00106628)
(-0.106987 1.18261 0.000934175)
(-0.0915702 1.18777 0.000799601)
(-0.0761591 1.16783 0.000665071)
(-0.0610681 1.12128 0.00053333)
(-0.0466403 1.04627 0.000407373)
(-0.0332735 0.940611 0.000290669)
(-0.0213855 0.801691 0.000186867)
(-0.0115149 0.626387 0.000100665)
(-0.00414348 0.41095 3.62983e-05)
(-0.00016143 0.151096 2.05445e-06)
(-0.22152 -0.257466 0.0019337)
(-0.220753 -0.0335731 0.00192705)
(-0.217924 0.172867 0.00190238)
(-0.213003 0.36165 0.00185946)
(-0.206024 0.532427 0.00179857)
(-0.1971 0.684744 0.0017207)
(-0.186391 0.818121 0.00162725)
(-0.174109 0.931995 0.00152006)
(-0.160484 1.02573 0.00140115)
(-0.145761 1.09863 0.00127264)
(-0.130193 1.14989 0.00113676)
(-0.114046 1.17857 0.000995815)
(-0.0976032 1.18358 0.000852282)
(-0.0811699 1.16362 0.000708829)
(-0.0650809 1.11716 0.000568375)
(-0.0497013 1.04237 0.000434109)
(-0.0354546 0.937068 0.000309723)
(-0.0227855 0.798647 0.000199101)
(-0.0122678 0.623994 0.000107246)
(-0.004414 0.409373 3.86682e-05)
(-0.000171971 0.150514 2.18858e-06)
(-0.237239 -0.252105 0.00207092)
(-0.235988 -0.0295107 0.00206005)
(-0.23259 0.175659 0.00203042)
(-0.227037 0.363215 0.00198197)
(-0.219374 0.532841 0.00191512)
(-0.209713 0.684106 0.00183082)
(-0.198214 0.816551 0.00173046)
(-0.185082 0.929619 0.00161586)
(-0.17055 1.02268 0.00148903)
(-0.154869 1.09504 0.00135217)
(-0.138305 1.14588 0.00120758)
(-0.121134 1.17428 0.0010577)
(-0.103656 1.17912 0.000905136)
(-0.0861943 1.15913 0.000752706)
(-0.0691031 1.11277 0.000603503)
(-0.0527689 1.03822 0.000460902)
(-0.0376403 0.933299 0.000328816)
(-0.0241887 0.795409 0.000211362)
(-0.0130225 0.621449 0.000113844)
(-0.00468546 0.407696 4.10463e-05)
(-0.000182632 0.149895 2.32394e-06)
(-0.253441 -0.246611 0.00221236)
(-0.251643 -0.0253813 0.00219672)
(-0.247617 0.178464 0.00216161)
(-0.241375 0.36475 0.00210715)
(-0.232972 0.533186 0.00203383)
(-0.222523 0.683362 0.00194265)
(-0.210186 0.814838 0.00183498)
(-0.196166 0.927068 0.00171263)
(-0.180697 1.01943 0.00157762)
(-0.164036 1.09122 0.0014322)
(-0.146458 1.14162 0.00127877)
(-0.128251 1.16972 0.00111984)
(-0.109729 1.1744 0.000958162)
(-0.0912322 1.15437 0.0007967)
(-0.0731344 1.10812 0.00063871)
(-0.0558426 1.03382 0.000487749)
(-0.0398301 0.929304 0.000347946)
(-0.0255947 0.791978 0.000223648)
(-0.0137791 0.618752 0.000120458)
(-0.00495781 0.405919 4.34321e-05)
(-0.000193407 0.149239 2.46047e-06)
(-0.270124 -0.241008 0.002358)
(-0.267717 -0.0212058 0.00233704)
(-0.263004 0.181262 0.00229593)
(-0.256015 0.366234 0.00223496)
(-0.246817 0.533442 0.0021547)
(-0.235528 0.682495 0.00205619)
(-0.222309 0.812969 0.00194082)
(-0.207363 0.924329 0.00181039)
(-0.190927 1.01596 0.00166694)
(-0.173263 1.08715 0.00151276)
(-0.154652 1.1371 0.00135032)
(-0.135396 1.16488 0.00118223)
(-0.11582 1.16939 0.00101136)
(-0.0962829 1.14934 0.000840806)
(-0.0771741 1.1032 0.00067399)
(-0.0589219 1.02917 0.000514645)
(-0.0420238 0.925083 0.000367109)
(-0.0270033 0.788352 0.000235956)
(-0.0145373 0.615903 0.000127087)
(-0.00523096 0.404041 4.5825e-05)
(-0.000204292 0.148546 2.59812e-06)
(-0.287285 -0.235317 0.00250781)
(-0.284204 -0.0170055 0.00248097)
(-0.278745 0.184033 0.00243335)
(-0.270952 0.367648 0.00236536)
(-0.260905 0.533591 0.0022777)
(-0.248728 0.681487 0.00217143)
(-0.234582 0.810928 0.00204798)
(-0.218673 0.92139 0.00190914)
(-0.20124 1.01226 0.00175698)
(-0.182548 1.08284 0.00159383)
(-0.162888 1.13232 0.00142222)
(-0.142569 1.15978 0.00124486)
(-0.121931 1.16411 0.00106471)
(-0.101346 1.14403 0.000885017)
(-0.0812215 1.09802 0.000709337)
(-0.0620061 1.02427 0.000541583)
(-0.0442206 0.920634 0.0003863)
(-0.028414 0.784532 0.000248283)
(-0.0152969 0.612901 0.000133727)
(-0.00550483 0.402062 4.82243e-05)
(-0.000215278 0.147816 2.73681e-06)
(-0.304917 -0.229562 0.00266174)
(-0.301098 -0.0128019 0.00262846)
(-0.294833 0.186756 0.0025738)
(-0.286181 0.368973 0.00249832)
(-0.275233 0.533614 0.00240278)
(-0.262118 0.680322 0.00228833)
(-0.247003 0.808702 0.00215642)
(-0.230095 0.918239 0.00200885)
(-0.211635 1.00833 0.00184774)
(-0.191892 1.07827 0.00167541)
(-0.171163 1.12727 0.00149448)
(-0.149768 1.1544 0.00130773)
(-0.128058 1.15854 0.00111822)
(-0.106419 1.13844 0.00092932)
(-0.0852753 1.09256 0.000744741)
(-0.0650942 1.01912 0.000568556)
(-0.0464199 0.915957 0.000405513)
(-0.0298265 0.780517 0.000260625)
(-0.0160577 0.609746 0.000140378)
(-0.00577933 0.399983 5.06289e-05)
(-0.000226361 0.147048 2.87644e-06)
(-0.323013 -0.223767 0.00281972)
(-0.318391 -0.00861719 0.00277942)
(-0.31126 0.189411 0.00271721)
(-0.301693 0.370188 0.00263374)
(-0.289791 0.533494 0.00252988)
(-0.275692 0.678984 0.00240684)
(-0.259567 0.806277 0.00226611)
(-0.241624 0.914866 0.00210951)
(-0.222108 1.00415 0.00193917)
(-0.20129 1.07345 0.00175747)
(-0.179476 1.12195 0.00156706)
(-0.156992 1.14873 0.0013708)
(-0.134201 1.1527 0.00117186)
(-0.111501 1.13257 0.000973703)
(-0.0893343 1.08684 0.00078019)
(-0.0681853 1.01371 0.000595554)
(-0.0486211 0.911053 0.000424742)
(-0.0312402 0.776307 0.000272978)
(-0.0168194 0.606438 0.000147037)
(-0.00605433 0.397803 5.3038e-05)
(-0.000237532 0.146243 3.01693e-06)
(-0.341562 -0.217957 0.00298165)
(-0.33607 -0.00447386 0.00293376)
(-0.328013 0.191976 0.00286347)
(-0.317476 0.371275 0.00277153)
(-0.304571 0.533213 0.00265892)
(-0.289443 0.677458 0.0025269)
(-0.272268 0.803638 0.002377)
(-0.253256 0.911259 0.00221107)
(-0.232654 0.999726 0.00203126)
(-0.210741 1.06836 0.00183999)
(-0.187823 1.11635 0.00163995)
(-0.164238 1.14278 0.00143407)
(-0.140356 1.14656 0.00122561)
(-0.116591 1.12642 0.00101815)
(-0.093397 1.08085 0.000815671)
(-0.0712781 1.00805 0.000622568)
(-0.0508231 0.90592 0.000443978)
(-0.0326545 0.771902 0.000285336)
(-0.0175816 0.602977 0.0001537)
(-0.00632971 0.395522 5.54504e-05)
(-0.000248784 0.1454 3.15822e-06)
(-0.36055 -0.212156 0.00314741)
(-0.354122 -0.000394832 0.00309135)
(-0.345078 0.194432 0.00301245)
(-0.333518 0.372215 0.00291158)
(-0.319561 0.532754 0.00278978)
(-0.303361 0.675728 0.0026484)
(-0.285096 0.800774 0.002489)
(-0.264982 0.907407 0.00231345)
(-0.24327 0.995038 0.00212394)
(-0.220238 1.06299 0.00192291)
(-0.196201 1.11047 0.0017131)
(-0.171502 1.13655 0.0014975)
(-0.146522 1.14014 0.00127945)
(-0.121685 1.11999 0.00106264)
(-0.0974614 1.07458 0.000851168)
(-0.0743712 1.00214 0.000649585)
(-0.053025 0.90056 0.000463214)
(-0.0340687 0.767302 0.000297694)
(-0.0183439 0.599363 0.000160365)
(-0.00660533 0.39314 5.78649e-05)
(-0.00026011 0.14452 3.30021e-06)
(-0.379959 -0.206391 0.00331685)
(-0.372528 0.00359667 0.00325205)
(-0.36244 0.196758 0.00316402)
(-0.349803 0.37299 0.00305375)
(-0.334747 0.532101 0.00292236)
(-0.317432 0.67378 0.00277125)
(-0.298042 0.797672 0.00260203)
(-0.276796 0.903299 0.00241659)
(-0.253946 0.990081 0.00221716)
(-0.229776 1.05734 0.00200619)
(-0.204605 1.1043 0.00178648)
(-0.178781 1.13002 0.00156106)
(-0.152695 1.13343 0.00133336)
(-0.126782 1.11327 0.00110715)
(-0.101526 1.06804 0.000886662)
(-0.0774631 0.995977 0.000676591)
(-0.0552256 0.894971 0.000482438)
(-0.0354823 0.762507 0.000310046)
(-0.0191061 0.595596 0.000167027)
(-0.00688104 0.390656 6.02801e-05)
(-0.0002715 0.143602 3.44282e-06)
(-0.399769 -0.200688 0.00348979)
(-0.39127 0.00747724 0.00341566)
(-0.380078 0.198933 0.00331801)
(-0.366313 0.373581 0.00319789)
(-0.350112 0.531238 0.00305651)
(-0.331643 0.6716 0.00289532)
(-0.311094 0.79432 0.00271598)
(-0.288686 0.898927 0.00252041)
(-0.264676 0.984847 0.00231084)
(-0.239349 1.05141 0.00208977)
(-0.213029 1.09783 0.00186003)
(-0.18607 1.1232 0.00162471)
(-0.158871 1.12643 0.00138729)
(-0.131878 1.10627 0.00115165)
(-0.105587 1.06123 0.000922134)
(-0.080552 0.989558 0.00070357)
(-0.0574238 0.889154 0.000501641)
(-0.0368942 0.757517 0.000322383)
(-0.0198676 0.591676 0.000173684)
(-0.00715667 0.388072 6.26947e-05)
(-0.000282946 0.142646 3.58593e-06)
(-0.419955 -0.195075 0.00366602)
(-0.410323 0.0112235 0.003582)
(-0.397971 0.200937 0.00347422)
(-0.383028 0.373971 0.00334382)
(-0.36564 0.53015 0.00319207)
(-0.345979 0.669175 0.00302048)
(-0.324238 0.790707 0.00283074)
(-0.300642 0.894281 0.00262479)
(-0.275449 0.979329 0.0024049)
(-0.248948 1.04519 0.00217358)
(-0.221466 1.09107 0.0019337)
(-0.193364 1.11608 0.0016884)
(-0.165047 1.11913 0.00144121)
(-0.13697 1.09898 0.00119612)
(-0.109644 1.05415 0.000957561)
(-0.083636 0.982887 0.000730507)
(-0.0596182 0.88311 0.00052081)
(-0.0383037 0.752332 0.0003347)
(-0.0206279 0.587604 0.000180331)
(-0.00743204 0.385387 6.5107e-05)
(-0.000294438 0.141653 3.72942e-06)
(-0.44049 -0.189578 0.00384529)
(-0.42966 0.0148121 0.00375082)
(-0.416093 0.202749 0.00363244)
(-0.399925 0.374143 0.00349134)
(-0.381309 0.528822 0.00332887)
(-0.360422 0.666493 0.00314658)
(-0.33746 0.786823 0.00294618)
(-0.312651 0.889352 0.00272964)
(-0.286255 0.973519 0.00249925)
(-0.258565 1.03867 0.00225755)
(-0.229911 1.08401 0.00200743)
(-0.200657 1.10866 0.00175208)
(-0.171216 1.11154 0.00149509)
(-0.142054 1.09141 0.00124052)
(-0.113692 1.0468 0.000992918)
(-0.086713 0.975961 0.000757383)
(-0.0618072 0.876838 0.000539934)
(-0.0397099 0.746954 0.000346987)
(-0.0213866 0.583379 0.000186964)
(-0.00770697 0.382602 6.75154e-05)
(-0.000305967 0.140623 3.87318e-06)
(-0.46134 -0.184225 0.00402732)
(-0.449252 0.0182203 0.00392187)
(-0.434418 0.204351 0.00379242)
(-0.416981 0.37408 0.00364024)
(-0.397098 0.52724 0.00346672)
(-0.374952 0.663541 0.00327344)
(-0.350743 0.782658 0.00306214)
(-0.324699 0.884133 0.00283483)
(-0.297084 0.967413 0.0025938)
(-0.268191 1.03184 0.0023416)
(-0.238354 1.07665 0.00208116)
(-0.207942 1.10094 0.0018157)
(-0.177376 1.10365 0.00154887)
(-0.147127 1.08355 0.00128481)
(-0.11773 1.03917 0.00102818)
(-0.0897808 0.968783 0.000784178)
(-0.0639894 0.87034 0.000558997)
(-0.0411117 0.741383 0.000359236)
(-0.022143 0.579003 0.000193577)
(-0.00798124 0.379716 6.9918e-05)
(-0.000317521 0.139555 4.01709e-06)
(-0.482469 -0.179041 0.00421178)
(-0.469065 0.0214258 0.00409484)
(-0.452915 0.205723 0.0039539)
(-0.434167 0.373767 0.00379028)
(-0.412983 0.525391 0.0036054)
(-0.38955 0.66031 0.00340089)
(-0.364069 0.778203 0.00317849)
(-0.336771 0.878617 0.00294023)
(-0.307921 0.961004 0.00268842)
(-0.277814 1.02472 0.00242563)
(-0.246788 1.06898 0.0021548)
(-0.215214 1.09292 0.00187919)
(-0.183519 1.09547 0.00160252)
(-0.152184 1.0754 0.00132898)
(-0.121753 1.03127 0.00106332)
(-0.0928369 0.961353 0.000810872)
(-0.0661631 0.863615 0.000577985)
(-0.042508 0.735618 0.000371437)
(-0.0228967 0.574476 0.000200166)
(-0.00825464 0.37673 7.23131e-05)
(-0.000329089 0.138449 4.161e-06)
(-0.503837 -0.174053 0.00439832)
(-0.489062 0.0244074 0.00426942)
(-0.471551 0.206849 0.0041166)
(-0.451454 0.373189 0.00394121)
(-0.428938 0.523263 0.0037447)
(-0.404192 0.65679 0.00352873)
(-0.37742 0.77345 0.00329505)
(-0.348851 0.872798 0.00304571)
(-0.318754 0.954289 0.00278301)
(-0.287425 1.01728 0.00250954)
(-0.255203 1.06101 0.00222828)
(-0.222465 1.08459 0.0019425)
(-0.18964 1.08699 0.00165597)
(-0.15722 1.06697 0.00137296)
(-0.125758 1.0231 0.0010983)
(-0.0958789 0.953671 0.000837442)
(-0.0683264 0.856665 0.000596884)
(-0.0438978 0.729662 0.000383581)
(-0.0236471 0.569798 0.000206725)
(-0.00852696 0.373645 7.46986e-05)
(-0.00034066 0.137306 4.30477e-06)
(-0.525398 -0.169284 0.00458656)
(-0.509204 0.027145 0.00444526)
(-0.490289 0.207712 0.0042802)
(-0.468811 0.372333 0.00409275)
(-0.444936 0.520845 0.00388438)
(-0.418856 0.652971 0.00365675)
(-0.390774 0.768393 0.00341165)
(-0.360923 0.86667 0.0031511)
(-0.329569 0.947263 0.00287743)
(-0.297011 1.00953 0.00259324)
(-0.26359 1.05273 0.00230151)
(-0.229686 1.07596 0.00200556)
(-0.195734 1.07821 0.00170918)
(-0.162231 1.05825 0.00141672)
(-0.129743 1.01466 0.00113309)
(-0.098904 0.945739 0.000863864)
(-0.0704776 0.849491 0.000615676)
(-0.0452798 0.723515 0.000395657)
(-0.0243933 0.56497 0.000213249)
(-0.00879794 0.37046 7.70724e-05)
(-0.00035222 0.136126 4.44827e-06)
(-0.547105 -0.164759 0.00477607)
(-0.529446 0.0296201 0.00462198)
(-0.509093 0.208296 0.00444436)
(-0.486204 0.371187 0.0042446)
(-0.460948 0.518129 0.00402417)
(-0.433516 0.648847 0.00378475)
(-0.404112 0.763026 0.0035281)
(-0.372967 0.86023 0.00325626)
(-0.340351 0.939922 0.00297157)
(-0.30656 1.00147 0.00267662)
(-0.271939 1.04413 0.00237441)
(-0.23687 1.06703 0.00206829)
(-0.201793 1.06913 0.0017621)
(-0.167212 1.04924 0.00146022)
(-0.133701 1.00595 0.00116767)
(-0.101909 0.937558 0.000890115)
(-0.0726146 0.842095 0.000634345)
(-0.0466529 0.717178 0.000407655)
(-0.0251349 0.559994 0.000219732)
(-0.00906735 0.367177 7.94325e-05)
(-0.000363757 0.13491 4.59134e-06)
(-0.568904 -0.160497 0.00496638)
(-0.549742 0.0318159 0.00479918)
(-0.527922 0.20859 0.00460875)
(-0.5036 0.369741 0.00439647)
(-0.476944 0.515106 0.00416383)
(-0.448146 0.644411 0.00391248)
(-0.41741 0.757344 0.0036442)
(-0.384966 0.853473 0.00336103)
(-0.351084 0.932266 0.00306528)
(-0.31606 0.993098 0.00275956)
(-0.28024 1.03523 0.00244689)
(-0.244009 1.05779 0.00213063)
(-0.207811 1.05976 0.00181465)
(-0.172158 1.03996 0.00150341)
(-0.137631 0.996967 0.00120199)
(-0.104892 0.92913 0.000916168)
(-0.0747355 0.834477 0.000652873)
(-0.0480157 0.710653 0.000419563)
(-0.0258711 0.554869 0.000226168)
(-0.00933492 0.363796 8.17765e-05)
(-0.000375257 0.133656 4.73381e-06)
(-0.59074 -0.156518 0.00515702)
(-0.570045 0.033718 0.00497644)
(-0.546733 0.208581 0.00477298)
(-0.52096 0.367985 0.00454803)
(-0.492892 0.511769 0.00430306)
(-0.46272 0.639658 0.00403972)
(-0.430646 0.751345 0.00375977)
(-0.396901 0.846398 0.00346523)
(-0.361751 0.924293 0.00315842)
(-0.325496 0.98441 0.00284196)
(-0.288481 1.02601 0.00251885)
(-0.251093 1.04824 0.00219249)
(-0.213782 1.0501 0.00186678)
(-0.177062 1.03038 0.00154624)
(-0.141528 0.987721 0.00123602)
(-0.107849 0.920456 0.000941998)
(-0.0768382 0.826641 0.000671241)
(-0.0493669 0.703941 0.00043137)
(-0.0266013 0.549599 0.000232551)
(-0.0096004 0.360318 8.41021e-05)
(-0.000386706 0.132366 4.87553e-06)
(-0.612555 -0.152837 0.00534747)
(-0.590303 0.0353139 0.0051533)
(-0.565483 0.20826 0.00493668)
(-0.538246 0.365914 0.00469896)
(-0.508759 0.508113 0.0044416)
(-0.47721 0.634586 0.00416622)
(-0.443797 0.745025 0.00387459)
(-0.408751 0.839004 0.00356869)
(-0.372338 0.916003 0.00325086)
(-0.334856 0.975407 0.00292368)
(-0.296652 1.01649 0.00259019)
(-0.258114 1.0384 0.00225379)
(-0.219696 1.04014 0.00191843)
(-0.18192 1.02053 0.00158866)
(-0.145387 0.978212 0.00126972)
(-0.110778 0.91154 0.000967577)
(-0.0789205 0.818587 0.000689432)
(-0.0507052 0.697044 0.000443064)
(-0.0273246 0.544183 0.000238874)
(-0.00986351 0.356744 8.6407e-05)
(-0.00039809 0.13104 5.01631e-06)
(-0.634287 -0.149468 0.0055372)
(-0.610464 0.0365943 0.00532931)
(-0.584126 0.20762 0.00509944)
(-0.555421 0.363522 0.00484891)
(-0.524513 0.504135 0.00457914)
(-0.491586 0.629191 0.00429174)
(-0.456838 0.738383 0.00398845)
(-0.420497 0.83129 0.00367124)
(-0.382826 0.907396 0.00334243)
(-0.344125 0.966092 0.00300461)
(-0.304741 1.00666 0.00266082)
(-0.265063 1.02825 0.00231447)
(-0.225549 1.02989 0.00196954)
(-0.186726 1.0104 0.00163063)
(-0.149204 0.968441 0.00130306)
(-0.113675 0.902382 0.000992878)
(-0.0809803 0.810317 0.000707425)
(-0.0520291 0.689964 0.000454633)
(-0.0280403 0.538623 0.000245131)
(-0.010124 0.353075 8.86888e-05)
(-0.000409394 0.129679 5.156e-06)
(-0.655873 -0.146419 0.00572565)
(-0.630473 0.0375523 0.005504)
(-0.602615 0.206657 0.00526086)
(-0.572445 0.360806 0.00499753)
(-0.540119 0.499834 0.00471539)
(-0.505821 0.623474 0.00441603)
(-0.469746 0.731421 0.00410114)
(-0.432117 0.823258 0.0037727)
(-0.3932 0.898474 0.003433)
(-0.35329 0.956466 0.00308463)
(-0.312736 0.996521 0.00273064)
(-0.27193 1.01781 0.00237443)
(-0.231332 1.01935 0.00202003)
(-0.191474 1 0.00167209)
(-0.152975 0.958412 0.00133599)
(-0.116536 0.892987 0.00101787)
(-0.0830152 0.801836 0.000725202)
(-0.0533374 0.682703 0.000466064)
(-0.0287477 0.532921 0.000251315)
(-0.0103815 0.349311 9.0945e-05)
(-0.000420603 0.128281 5.29442e-06)
(-0.677248 -0.143696 0.00591227)
(-0.650275 0.0381842 0.00567688)
(-0.620904 0.205369 0.00542053)
(-0.589276 0.357766 0.00514448)
(-0.555543 0.49521 0.00485005)
(-0.519886 0.617436 0.00453883)
(-0.482495 0.72414 0.00421245)
(-0.443592 0.81491 0.00387289)
(-0.40344 0.889239 0.00352242)
(-0.362336 0.946532 0.00316362)
(-0.320626 0.986083 0.00279953)
(-0.278706 1.00707 0.0024336)
(-0.237037 1.00853 0.00206986)
(-0.196159 0.989327 0.001713)
(-0.156695 0.948129 0.00136848)
(-0.11936 0.883356 0.00104253)
(-0.0850232 0.793145 0.000742743)
(-0.0546285 0.675263 0.000477346)
(-0.029446 0.527079 0.00025742)
(-0.0106359 0.345454 9.31731e-05)
(-0.000431702 0.126849 5.43138e-06)
(-0.698349 -0.141303 0.00609648)
(-0.669815 0.0384895 0.00584747)
(-0.638946 0.203756 0.00557805)
(-0.605875 0.354403 0.0052894)
(-0.570752 0.490266 0.00498283)
(-0.533751 0.611079 0.00465988)
(-0.495061 0.716543 0.00432217)
(-0.454901 0.806249 0.00397163)
(-0.413532 0.879695 0.00361053)
(-0.371249 0.936294 0.00324144)
(-0.3284 0.975348 0.00286741)
(-0.285381 0.996047 0.00249188)
(-0.242657 0.997432 0.00211894)
(-0.200773 0.978386 0.0017533)
(-0.16036 0.937593 0.00140049)
(-0.122141 0.873494 0.00106683)
(-0.0870018 0.784247 0.000760028)
(-0.055901 0.667648 0.000488465)
(-0.0301344 0.521099 0.000263438)
(-0.0108867 0.341506 9.53706e-05)
(-0.000442676 0.125382 5.56671e-06)
(-0.719109 -0.139236 0.00627773)
(-0.689038 0.0384708 0.0060153)
(-0.656693 0.201822 0.00573299)
(-0.622202 0.350721 0.00543195)
(-0.58571 0.485004 0.00511343)
(-0.547388 0.604407 0.00477894)
(-0.50742 0.708635 0.00443008)
(-0.466023 0.79728 0.00406874)
(-0.423457 0.869848 0.00369719)
(-0.380015 0.925757 0.00331798)
(-0.336046 0.96432 0.00293417)
(-0.291946 0.984735 0.00254921)
(-0.248185 0.986056 0.00216721)
(-0.205312 0.967181 0.00179294)
(-0.163965 0.92681 0.00143198)
(-0.124878 0.863405 0.00109073)
(-0.0889489 0.775145 0.000777038)
(-0.0571535 0.659859 0.00049941)
(-0.0308123 0.514983 0.000269364)
(-0.0111338 0.337467 9.75351e-05)
(-0.00045351 0.123882 5.70024e-06)
(-0.739466 -0.137491 0.00645545)
(-0.707889 0.038134 0.00617988)
(-0.674099 0.199572 0.00588495)
(-0.638218 0.346726 0.00557178)
(-0.600385 0.479432 0.00524156)
(-0.560769 0.597428 0.00489576)
(-0.519548 0.70042 0.00453597)
(-0.476939 0.788008 0.00416405)
(-0.433198 0.859701 0.00378224)
(-0.38862 0.914926 0.00339311)
(-0.343552 0.953003 0.00299971)