/*--------------------------------*- C++ -*----------------------------------*\
| =========                 |                                                 |
| \\      /  F ield         | OpenFOAM: The Open Source CFD Toolbox           |
|  \\    /   O peration     | Version:  v2012                                 |
|   \\  /    A nd           | Website:  www.openfoam.com                      |
|    \\/     M anipulation  |                                                 |
\*---------------------------------------------------------------------------*/
FoamFile
{
    version     2.0;
    format      ascii;
    class       volScalarField;
    location    "0.9";
    object      p;
}
// * * * * * * * * * * * * * * * * * * * * * * * * * * * * * * * * * * * * * //

dimensions      [1 -1 -2 0 0 0 0];


internalField   nonuniform List<scalar> 
3332
(
3.48287e+06
3.48381e+06
3.48458e+06
3.48522e+06
3.48575e+06
3.48621e+06
3.48661e+06
3.48697e+06
3.48728e+06
3.48757e+06
3.48784e+06
3.48809e+06
3.48832e+06
3.48854e+06
3.48875e+06
3.48895e+06
3.48915e+06
3.48933e+06
3.48951e+06
3.48968e+06
3.4795e+06
3.48106e+06
3.48231e+06
3.4833e+06
3.48412e+06
3.48479e+06
3.48536e+06
3.48584e+06
3.48626e+06
3.48663e+06
3.48696e+06
3.48726e+06
3.48754e+06
3.4878e+06
3.48804e+06
3.48827e+06
3.48849e+06
3.4887e+06
3.4889e+06
3.48909e+06
3.48928e+06
3.48945e+06
3.46777e+06
3.47468e+06
3.46841e+06
3.47268e+06
3.46265e+06
3.46345e+06
3.45787e+06
3.45756e+06
3.45089e+06
3.43844e+06
3.4604e+06
3.46665e+06
3.47102e+06
3.47447e+06
3.47704e+06
3.47908e+06
3.48066e+06
3.48192e+06
3.48294e+06
3.48377e+06
3.48445e+06
3.48503e+06
3.48552e+06
3.48595e+06
3.48633e+06
3.48667e+06
3.48698e+06
3.48726e+06
3.48753e+06
3.48778e+06
3.48801e+06
3.48824e+06
3.48846e+06
3.48866e+06
3.48886e+06
3.48905e+06
3.48923e+06
3.47473e+06
3.48696e+06
3.47595e+06
3.48309e+06
3.47137e+06
3.47381e+06
3.4673e+06
3.4683e+06
3.46107e+06
3.44655e+06
3.44265e+06
3.45442e+06
3.46099e+06
3.46719e+06
3.47118e+06
3.47455e+06
3.47699e+06
3.47897e+06
3.4805e+06
3.48173e+06
3.48272e+06
3.48353e+06
3.4842e+06
3.48477e+06
3.48526e+06
3.48568e+06
3.48606e+06
3.4864e+06
3.48671e+06
3.487e+06
3.48727e+06
3.48752e+06
3.48776e+06
3.48799e+06
3.48822e+06
3.48843e+06
3.48863e+06
3.48883e+06
3.48901e+06
3.48828e+06
3.4991e+06
3.48968e+06
3.49455e+06
3.48531e+06
3.48738e+06
3.48184e+06
3.48379e+06
3.47683e+06
3.45914e+06
3.44738e+06
3.45795e+06
3.46289e+06
3.46868e+06
3.47206e+06
3.47519e+06
3.47738e+06
3.47921e+06
3.48061e+06
3.48175e+06
3.48266e+06
3.48342e+06
3.48405e+06
3.48459e+06
3.48505e+06
3.48546e+06
3.48582e+06
3.48616e+06
3.48646e+06
3.48675e+06
3.48702e+06
3.48727e+06
3.48752e+06
3.48775e+06
3.48798e+06
3.4882e+06
3.48841e+06
3.48861e+06
3.4888e+06
3.48898e+06
3.50538e+06
3.51061e+06
3.50653e+06
3.50679e+06
3.50223e+06
3.50296e+06
3.49941e+06
3.50214e+06
3.49587e+06
3.47499e+06
3.45451e+06
3.4628e+06
3.46597e+06
3.47102e+06
3.47365e+06
3.47638e+06
3.47819e+06
3.47978e+06
3.48098e+06
3.48197e+06
3.48277e+06
3.48344e+06
3.484e+06
3.48448e+06
3.4849e+06
3.48528e+06
3.48563e+06
3.48594e+06
3.48624e+06
3.48652e+06
3.48678e+06
3.48704e+06
3.48729e+06
3.48752e+06
3.48775e+06
3.48797e+06
3.48819e+06
3.48839e+06
3.48859e+06
3.48878e+06
3.52194e+06
3.52215e+06
3.52257e+06
3.51961e+06
3.51892e+06
3.51887e+06
3.51688e+06
3.52055e+06
3.51468e+06
3.49243e+06
3.4632e+06
3.46842e+06
3.47002e+06
3.47405e+06
3.47588e+06
3.47806e+06
3.47943e+06
3.48069e+06
3.48162e+06
3.48241e+06
3.48304e+06
3.48358e+06
3.48405e+06
3.48445e+06
3.48482e+06
3.48515e+06
3.48546e+06
3.48575e+06
3.48603e+06
3.4863e+06
3.48656e+06
3.48681e+06
3.48706e+06
3.4873e+06
3.48753e+06
3.48775e+06
3.48797e+06
3.48818e+06
3.48838e+06
3.48857e+06
3.48875e+06
3.53552e+06
3.53442e+06
3.53565e+06
3.53283e+06
3.53328e+06
3.53323e+06
3.53133e+06
3.536e+06
3.52919e+06
3.50906e+06
3.47276e+06
3.47423e+06
3.47484e+06
3.47764e+06
3.47871e+06
3.4802e+06
3.48106e+06
3.4819e+06
3.4825e+06
3.48304e+06
3.48347e+06
3.48385e+06
3.48418e+06
3.48449e+06
3.48478e+06
3.48506e+06
3.48533e+06
3.48559e+06
3.48585e+06
3.4861e+06
3.48635e+06
3.4866e+06
3.48684e+06
3.48708e+06
3.48731e+06
3.48754e+06
3.48776e+06
3.48797e+06
3.48817e+06
3.48837e+06
3.48856e+06
3.5468e+06
3.54732e+06
3.5467e+06
3.54593e+06
3.5457e+06
3.54556e+06
3.5429e+06
3.5473e+06
3.53944e+06
3.5238e+06
3.4841e+06
3.48012e+06
3.48053e+06
3.48173e+06
3.48212e+06
3.48277e+06
3.48306e+06
3.4834e+06
3.48363e+06
3.48385e+06
3.48403e+06
3.48422e+06
3.48441e+06
3.4846e+06
3.4848e+06
3.48501e+06
3.48523e+06
3.48545e+06
3.48568e+06
3.48591e+06
3.48615e+06
3.48639e+06
3.48663e+06
3.48686e+06
3.4871e+06
3.48732e+06
3.48755e+06
3.48776e+06
3.48797e+06
3.48817e+06
3.48836e+06
3.55842e+06
3.56083e+06
3.55831e+06
3.5592e+06
3.55807e+06
3.55733e+06
3.55471e+06
3.5567e+06
3.5507e+06
3.53867e+06
3.49976e+06
3.48681e+06
3.4875e+06
3.48643e+06
3.48616e+06
3.48575e+06
3.48543e+06
3.48517e+06
3.48496e+06
3.48482e+06
3.48473e+06
3.48469e+06
3.48471e+06
3.48476e+06
3.48486e+06
3.48499e+06
3.48515e+06
3.48533e+06
3.48553e+06
3.48574e+06
3.48596e+06
3.48619e+06
3.48642e+06
3.48665e+06
3.48689e+06
3.48712e+06
3.48734e+06
3.48756e+06
3.48777e+06
3.48798e+06
3.48817e+06
3.57248e+06
3.5744e+06
3.57235e+06
3.57287e+06
3.57218e+06
3.57043e+06
3.56927e+06
3.56823e+06
3.56667e+06
3.5568e+06
3.52037e+06
3.49519e+06
3.49585e+06
3.49186e+06
3.49082e+06
3.48914e+06
3.48812e+06
3.48718e+06
3.48648e+06
3.48593e+06
3.48553e+06
3.48524e+06
3.48506e+06
3.48497e+06
3.48495e+06
3.485e+06
3.48509e+06
3.48522e+06
3.48538e+06
3.48557e+06
3.48578e+06
3.48599e+06
3.48622e+06
3.48645e+06
3.48668e+06
3.48691e+06
3.48714e+06
3.48736e+06
3.48758e+06
3.48778e+06
3.48798e+06
3.58903e+06
3.58727e+06
3.58889e+06
3.58662e+06
3.5882e+06
3.58513e+06
3.58632e+06
3.58343e+06
3.58664e+06
3.57783e+06
3.54371e+06
3.50566e+06
3.50502e+06
3.49801e+06
3.49597e+06
3.49289e+06
3.49109e+06
3.48939e+06
3.48815e+06
3.48715e+06
3.48641e+06
3.48585e+06
3.48546e+06
3.48521e+06
3.48507e+06
3.48502e+06
3.48504e+06
3.48512e+06
3.48525e+06
3.48541e+06
3.4856e+06
3.4858e+06
3.48602e+06
3.48625e+06
3.48648e+06
3.48671e+06
3.48694e+06
3.48716e+06
3.48738e+06
3.48759e+06
3.4878e+06
3.60681e+06
3.59917e+06
3.60607e+06
3.59988e+06
3.60444e+06
3.5999e+06
3.60324e+06
3.59927e+06
3.60632e+06
3.59698e+06
3.56718e+06
3.51814e+06
3.51418e+06
3.50485e+06
3.50138e+06
3.49696e+06
3.49423e+06
3.49175e+06
3.48992e+06
3.48845e+06
3.48733e+06
3.48649e+06
3.48588e+06
3.48546e+06
3.48519e+06
3.48505e+06
3.485e+06
3.48503e+06
3.48512e+06
3.48525e+06
3.48542e+06
3.48562e+06
3.48583e+06
3.48605e+06
3.48628e+06
3.48651e+06
3.48674e+06
3.48697e+06
3.48719e+06
3.48741e+06
3.48761e+06
3.62304e+06
3.61018e+06
3.62193e+06
3.61258e+06
3.6191e+06
3.61329e+06
3.6171e+06
3.61181e+06
3.6205e+06
3.60914e+06
3.58772e+06
3.53257e+06
3.52266e+06
3.5123e+06
3.50688e+06
3.50128e+06
3.49749e+06
3.4942e+06
3.49174e+06
3.48976e+06
3.48827e+06
3.48713e+06
3.4863e+06
3.48571e+06
3.48531e+06
3.48507e+06
3.48496e+06
3.48493e+06
3.48499e+06
3.4851e+06
3.48525e+06
3.48543e+06
3.48564e+06
3.48586e+06
3.48609e+06
3.48632e+06
3.48655e+06
3.48678e+06
3.48701e+06
3.48722e+06
3.48743e+06
3.63788e+06
3.62196e+06
3.63655e+06
3.62547e+06
3.6323e+06
3.62598e+06
3.6282e+06
3.6225e+06
3.62868e+06
3.61863e+06
3.60501e+06
3.55127e+06
3.53069e+06
3.5206e+06
3.51243e+06
3.50582e+06
3.50078e+06
3.49668e+06
3.49354e+06
3.49106e+06
3.48918e+06
3.48775e+06
3.48669e+06
3.48593e+06
3.48542e+06
3.48508e+06
3.4849e+06
3.48483e+06
3.48485e+06
3.48494e+06
3.48507e+06
3.48525e+06
3.48545e+06
3.48566e+06
3.48589e+06
3.48612e+06
3.48636e+06
3.48659e+06
3.48682e+06
3.48704e+06
3.48725e+06
3.65177e+06
3.63535e+06
3.6506e+06
3.63914e+06
3.64524e+06
3.63937e+06
3.63932e+06
3.63524e+06
3.63643e+06
3.63279e+06
3.62319e+06
3.57612e+06
3.53952e+06
3.52992e+06
3.51814e+06
3.51053e+06
3.50404e+06
3.49913e+06
3.49526e+06
3.49229e+06
3.49001e+06
3.4883e+06
3.48703e+06
3.48612e+06
3.48548e+06
3.48507e+06
3.48482e+06
3.48471e+06
3.4847e+06
3.48477e+06
3.48489e+06
3.48506e+06
3.48525e+06
3.48547e+06
3.4857e+06
3.48593e+06
3.48617e+06
3.48641e+06
3.48664e+06
3.48686e+06
3.48708e+06
3.66766e+06
3.65151e+06
3.66375e+06
3.65309e+06
3.65773e+06
3.65294e+06
3.65138e+06
3.64993e+06
3.64792e+06
3.65156e+06
3.64289e+06
3.60352e+06
3.55026e+06
3.53942e+06
3.524e+06
3.51516e+06
3.50717e+06
3.50141e+06
3.49683e+06
3.49336e+06
3.49072e+06
3.48874e+06
3.48728e+06
3.48623e+06
3.4855e+06
3.48501e+06
3.48472e+06
3.48457e+06
3.48454e+06
3.48459e+06
3.4847e+06
3.48486e+06
3.48506e+06
3.48527e+06
3.4855e+06
3.48574e+06
3.48598e+06
3.48622e+06
3.48646e+06
3.48669e+06
3.48691e+06
3.67532e+06
3.66572e+06
3.67293e+06
3.66589e+06
3.66798e+06
3.66464e+06
3.66214e+06
3.66277e+06
3.65953e+06
3.66817e+06
3.657e+06
3.62829e+06
3.56332e+06
3.54756e+06
3.52988e+06
3.5193e+06
3.51001e+06
3.50338e+06
3.49813e+06
3.49422e+06
3.49125e+06
3.48904e+06
3.48742e+06
3.48626e+06
3.48545e+06
3.48491e+06
3.48458e+06
3.48441e+06
3.48436e+06
3.4844e+06
3.48451e+06
3.48467e+06
3.48486e+06
3.48508e+06
3.48531e+06
3.48555e+06
3.4858e+06
3.48604e+06
3.48628e+06
3.48651e+06
3.48674e+06
3.6777e+06
3.67949e+06
3.67689e+06
3.67628e+06
3.67445e+06
3.67282e+06
3.66948e+06
3.67057e+06
3.66698e+06
3.67628e+06
3.66397e+06
3.64682e+06
3.57991e+06
3.55345e+06
3.53565e+06
3.52262e+06
3.5124e+06
3.50486e+06
3.49908e+06
3.49477e+06
3.49154e+06
3.48916e+06
3.48742e+06
3.48618e+06
3.48531e+06
3.48474e+06
3.48439e+06
3.48421e+06
3.48415e+06
3.48419e+06
3.4843e+06
3.48446e+06
3.48466e+06
3.48488e+06
3.48512e+06
3.48536e+06
3.48561e+06
3.48586e+06
3.4861e+06
3.48634e+06
3.48657e+06
3.67335e+06
3.68877e+06
3.67481e+06
3.68239e+06
3.67661e+06
3.67698e+06
3.67316e+06
3.67382e+06
3.6716e+06
3.67799e+06
3.66895e+06
3.65951e+06
3.60124e+06
3.55739e+06
3.54106e+06
3.5249e+06
3.51414e+06
3.5057e+06
3.49954e+06
3.49493e+06
3.49153e+06
3.48904e+06
3.48724e+06
3.48597e+06
3.48509e+06
3.48451e+06
3.48416e+06
3.48397e+06
3.48392e+06
3.48397e+06
3.48408e+06
3.48425e+06
3.48445e+06
3.48468e+06
3.48492e+06
3.48517e+06
3.48543e+06
3.48568e+06
3.48593e+06
3.48617e+06
3.4864e+06
3.66562e+06
3.69202e+06
3.66747e+06
3.68195e+06
3.67303e+06
3.67543e+06
3.67197e+06
3.67342e+06
3.67498e+06
3.67889e+06
3.67549e+06
3.66921e+06
3.62365e+06
3.56101e+06
3.54502e+06
3.52602e+06
3.51488e+06
3.50574e+06
3.49938e+06
3.49462e+06
3.49117e+06
3.48867e+06
3.48688e+06
3.48562e+06
3.48476e+06
3.4842e+06
3.48387e+06
3.4837e+06
3.48367e+06
3.48372e+06
3.48385e+06
3.48403e+06
3.48424e+06
3.48447e+06
3.48472e+06
3.48498e+06
3.48524e+06
3.4855e+06
3.48576e+06
3.486e+06
3.48624e+06
3.64892e+06
3.68253e+06
3.65272e+06
3.67172e+06
3.66058e+06
3.66445e+06
3.66259e+06
3.66747e+06
3.675e+06
3.6794e+06
3.68143e+06
3.67467e+06
3.64133e+06
3.5663e+06
3.54556e+06
3.52584e+06
3.51412e+06
3.50482e+06
3.49846e+06
3.49377e+06
3.49042e+06
3.48801e+06
3.48631e+06
3.48512e+06
3.48432e+06
3.48381e+06
3.48352e+06
3.48339e+06
3.48338e+06
3.48346e+06
3.4836e+06
3.4838e+06
3.48402e+06
3.48427e+06
3.48453e+06
3.48479e+06
3.48506e+06
3.48533e+06
3.48558e+06
3.48584e+06
3.48608e+06
3.62463e+06
3.65947e+06
3.6299e+06
3.64923e+06
3.63633e+06
3.64012e+06
3.64126e+06
3.65231e+06
3.66725e+06
3.67437e+06
3.68083e+06
3.6707e+06
3.64993e+06
3.57303e+06
3.54095e+06
3.52387e+06
3.51139e+06
3.50276e+06
3.49666e+06
3.49232e+06
3.48924e+06
3.48705e+06
3.48552e+06
3.48447e+06
3.48378e+06
3.48335e+06
3.48312e+06
3.48304e+06
3.48307e+06
3.48318e+06
3.48335e+06
3.48356e+06
3.4838e+06
3.48406e+06
3.48433e+06
3.4846e+06
3.48488e+06
3.48515e+06
3.48542e+06
3.48567e+06
3.48592e+06
3.59185e+06
3.62198e+06
3.5976e+06
3.61388e+06
3.59989e+06
3.60175e+06
3.60717e+06
3.62604e+06
3.64801e+06
3.65812e+06
3.66765e+06
3.65487e+06
3.64472e+06
3.57658e+06
3.53072e+06
3.51907e+06
3.50643e+06
3.4994e+06
3.49392e+06
3.49027e+06
3.48763e+06
3.48581e+06
3.48453e+06
3.48368e+06
3.48313e+06
3.48282e+06
3.48267e+06
3.48265e+06
3.48273e+06
3.48288e+06
3.48307e+06
3.48331e+06
3.48357e+06
3.48384e+06
3.48413e+06
3.48441e+06
3.4847e+06
3.48498e+06
3.48525e+06
3.48551e+06
3.48576e+06
3.55663e+06
3.57861e+06
3.56086e+06
3.57159e+06
3.55644e+06
3.55531e+06
3.56498e+06
3.59105e+06
3.61713e+06
3.62865e+06
3.63842e+06
3.62712e+06
3.62273e+06
3.56976e+06
3.51636e+06
3.51031e+06
3.49945e+06
3.49467e+06
3.49033e+06
3.48766e+06
3.48565e+06
3.4843e+06
3.48337e+06
3.48276e+06
3.4824e+06
3.48222e+06
3.48217e+06
3.48223e+06
3.48237e+06
3.48256e+06
3.48279e+06
3.48306e+06
3.48334e+06
3.48363e+06
3.48393e+06
3.48422e+06
3.48452e+06
3.48481e+06
3.48509e+06
3.48535e+06
3.48561e+06
3.5234e+06
3.53788e+06
3.52642e+06
3.53239e+06
3.51619e+06
3.51457e+06
3.52424e+06
3.5541e+06
3.57869e+06
3.58846e+06
3.59527e+06
3.58916e+06
3.58744e+06
3.54965e+06
3.50008e+06
3.49764e+06
3.49111e+06
3.48879e+06
3.48612e+06
3.48461e+06
3.48339e+06
3.4826e+06
3.48206e+06
3.48174e+06
3.48159e+06
3.48156e+06
3.48164e+06
3.48178e+06
3.48198e+06
3.48223e+06
3.4825e+06
3.48279e+06
3.4831e+06
3.48341e+06
3.48372e+06
3.48403e+06
3.48434e+06
3.48464e+06
3.48492e+06
3.4852e+06
3.48546e+06
3.50113e+06
3.51084e+06
3.50263e+06
3.50651e+06
3.49055e+06
3.49144e+06
3.49683e+06
3.52256e+06
3.53935e+06
3.5442e+06
3.54668e+06
3.54656e+06
3.54807e+06
3.5213e+06
3.48423e+06
3.48319e+06
3.48241e+06
3.48233e+06
3.48164e+06
3.48132e+06
3.48096e+06
3.48077e+06
3.48066e+06
3.48066e+06
3.48073e+06
3.48087e+06
3.48107e+06
3.48131e+06
3.48159e+06
3.48189e+06
3.4822e+06
3.48253e+06
3.48286e+06
3.48319e+06
3.48352e+06
3.48385e+06
3.48416e+06
3.48447e+06
3.48476e+06
3.48505e+06
3.48531e+06
3.49285e+06
3.49891e+06
3.49318e+06
3.49607e+06
3.4843e+06
3.48509e+06
3.4869e+06
3.50001e+06
3.50571e+06
3.50491e+06
3.50406e+06
3.50797e+06
3.51298e+06
3.49356e+06
3.47055e+06
3.46996e+06
3.47436e+06
3.47608e+06
3.47729e+06
3.47804e+06
3.47853e+06
3.47891e+06
3.47923e+06
3.47954e+06
3.47984e+06
3.48016e+06
3.48049e+06
3.48083e+06
3.48118e+06
3.48154e+06
3.4819e+06
3.48226e+06
3.48262e+06
3.48298e+06
3.48332e+06
3.48366e+06
3.48399e+06
3.4843e+06
3.48461e+06
3.48489e+06
3.48517e+06
3.49454e+06
3.49503e+06
3.49447e+06
3.49404e+06
3.49122e+06
3.4876e+06
3.48625e+06
3.48552e+06
3.48179e+06
3.47768e+06
3.47555e+06
3.48068e+06
3.48673e+06
3.47318e+06
3.45984e+06
3.46004e+06
3.46758e+06
3.47065e+06
3.47334e+06
3.47497e+06
3.4762e+06
3.4771e+06
3.47782e+06
3.47842e+06
3.47895e+06
3.47944e+06
3.4799e+06
3.48034e+06
3.48077e+06
3.48119e+06
3.48159e+06
3.48199e+06
3.48238e+06
3.48276e+06
3.48312e+06
3.48348e+06
3.48381e+06
3.48414e+06
3.48445e+06
3.48475e+06
3.48503e+06
3.50094e+06
3.495e+06
3.4999e+06
3.49495e+06
3.5005e+06
3.49128e+06
3.48595e+06
3.47675e+06
3.46827e+06
3.4639e+06
3.46187e+06
3.46622e+06
3.47019e+06
3.46185e+06
3.45244e+06
3.45379e+06
3.46231e+06
3.46631e+06
3.46994e+06
3.47224e+06
3.47406e+06
3.4754e+06
3.47647e+06
3.47734e+06
3.47808e+06
3.47873e+06
3.47931e+06
3.47985e+06
3.48036e+06
3.48083e+06
3.48129e+06
3.48172e+06
3.48214e+06
3.48254e+06
3.48293e+06
3.48329e+06
3.48364e+06
3.48398e+06
3.4843e+06
3.4846e+06
3.48489e+06
3.50341e+06
3.49567e+06
3.50192e+06
3.49592e+06
3.50345e+06
3.49269e+06
3.48317e+06
3.4718e+06
3.46271e+06
3.45975e+06
3.45807e+06
3.46171e+06
3.46177e+06
3.45752e+06
3.44795e+06
3.4503e+06
3.45839e+06
3.46302e+06
3.46711e+06
3.4699e+06
3.47214e+06
3.47383e+06
3.4752e+06
3.4763e+06
3.47723e+06
3.47803e+06
3.47874e+06
3.47937e+06
3.47995e+06
3.48049e+06
3.48099e+06
3.48146e+06
3.4819e+06
3.48233e+06
3.48273e+06
3.48311e+06
3.48348e+06
3.48382e+06
3.48415e+06
3.48446e+06
3.48475e+06
3.49913e+06
3.49741e+06
3.49786e+06
3.49736e+06
3.49827e+06
3.4913e+06
3.47883e+06
3.46897e+06
3.4613e+06
3.45991e+06
3.45875e+06
3.46073e+06
3.45821e+06
3.45621e+06
3.44509e+06
3.44822e+06
3.45544e+06
3.4605e+06
3.46477e+06
3.4679e+06
3.47045e+06
3.47242e+06
3.47403e+06
3.47534e+06
3.47643e+06
3.47737e+06
3.47818e+06
3.4789e+06
3.47955e+06
3.48014e+06
3.48069e+06
3.4812e+06
3.48167e+06
3.48212e+06
3.48254e+06
3.48294e+06
3.48331e+06
3.48367e+06
3.484e+06
3.48432e+06
3.48462e+06
3.49099e+06
3.49923e+06
3.49052e+06
3.49894e+06
3.49058e+06
3.48767e+06
3.47451e+06
3.46666e+06
3.4607e+06
3.4602e+06
3.45924e+06
3.4603e+06
3.45702e+06
3.4556e+06
3.44316e+06
3.44668e+06
3.45315e+06
3.4585e+06
3.46282e+06
3.46621e+06
3.46897e+06
3.47117e+06
3.47297e+06
3.47444e+06
3.47568e+06
3.47674e+06
3.47765e+06
3.47845e+06
3.47917e+06
3.47981e+06
3.4804e+06
3.48094e+06
3.48144e+06
3.48191e+06
3.48235e+06
3.48276e+06
3.48315e+06
3.48352e+06
3.48386e+06
3.48418e+06
3.48449e+06
3.48428e+06
3.49861e+06
3.48426e+06
3.49829e+06
3.48493e+06
3.48265e+06
3.47061e+06
3.46383e+06
3.45919e+06
3.45888e+06
3.45807e+06
3.45872e+06
3.45607e+06
3.45436e+06
3.44151e+06
3.44521e+06
3.45129e+06
3.45684e+06
3.46118e+06
3.46477e+06
3.46768e+06
3.47005e+06
3.47201e+06
3.47363e+06
3.47499e+06
3.47615e+06
3.47715e+06
3.47802e+06
3.4788e+06
3.47949e+06
3.48012e+06
3.48069e+06
3.48122e+06
3.48171e+06
3.48217e+06
3.48259e+06
3.48299e+06
3.48337e+06
3.48372e+06
3.48405e+06
3.48436e+06
3.48106e+06
3.4927e+06
3.48056e+06
3.49279e+06
3.48067e+06
3.47643e+06
3.46665e+06
3.46022e+06
3.45652e+06
3.45604e+06
3.45539e+06
3.45623e+06
3.45453e+06
3.45243e+06
3.43995e+06
3.44373e+06
3.44971e+06
3.45542e+06
3.45979e+06
3.46353e+06
3.46655e+06
3.46907e+06
3.47115e+06
3.47288e+06
3.47435e+06
3.4756e+06
3.47668e+06
3.47761e+06
3.47844e+06
3.47918e+06
3.47985e+06
3.48045e+06
3.48101e+06
3.48152e+06
3.48199e+06
3.48243e+06
3.48284e+06
3.48323e+06
3.48359e+06
3.48392e+06
3.48424e+06
3.47909e+06
3.48178e+06
3.47755e+06
3.48303e+06
3.47589e+06
3.46941e+06
3.46244e+06
3.45624e+06
3.45334e+06
3.45268e+06
3.4523e+06
3.45332e+06
3.45244e+06
3.45011e+06
3.4385e+06
3.44234e+06
3.44837e+06
3.45419e+06
3.45861e+06
3.46246e+06
3.46558e+06
3.4682e+06
3.47038e+06
3.47221e+06
3.47377e+06
3.47509e+06
3.47624e+06
3.47723e+06
3.47811e+06
3.47889e+06
3.47959e+06
3.48022e+06
3.4808e+06
3.48133e+06
3.48182e+06
3.48227e+06
3.48269e+06
3.48309e+06
3.48345e+06
3.4838e+06
3.48412e+06
3.47675e+06
3.46938e+06
3.47395e+06
3.47183e+06
3.4703e+06
3.46248e+06
3.45821e+06
3.45247e+06
3.45029e+06
3.44962e+06
3.44946e+06
3.45055e+06
3.45016e+06
3.44782e+06
3.4372e+06
3.44113e+06
3.44724e+06
3.45314e+06
3.45761e+06
3.46154e+06
3.46473e+06
3.46744e+06
3.4697e+06
3.47162e+06
3.47324e+06
3.47463e+06
3.47583e+06
3.47688e+06
3.4778e+06
3.47861e+06
3.47934e+06
3.48e+06
3.4806e+06
3.48115e+06
3.48165e+06
3.48212e+06
3.48255e+06
3.48295e+06
3.48333e+06
3.48367e+06
3.484e+06
3.47298e+06
3.45816e+06
3.4695e+06
3.46171e+06
3.46457e+06
3.45643e+06
3.45434e+06
3.44929e+06
3.44776e+06
3.44721e+06
3.44718e+06
3.44823e+06
3.44804e+06
3.44581e+06
3.43613e+06
3.44015e+06
3.44631e+06
3.45226e+06
3.45677e+06
3.46076e+06
3.46401e+06
3.46679e+06
3.46911e+06
3.47109e+06
3.47277e+06
3.47421e+06
3.47546e+06
3.47655e+06
3.47751e+06
3.47836e+06
3.47911e+06
3.47979e+06
3.48041e+06
3.48097e+06
3.48149e+06
3.48197e+06
3.48241e+06
3.48282e+06
3.4832e+06
3.48356e+06
3.48389e+06
3.46839e+06
3.44979e+06
3.46484e+06
3.45395e+06
3.45939e+06
3.45165e+06
3.45105e+06
3.44683e+06
3.44583e+06
3.44546e+06
3.44547e+06
3.4464e+06
3.44623e+06
3.44417e+06
3.43529e+06
3.4394e+06
3.44557e+06
3.45154e+06
3.45608e+06
3.46011e+06
3.4634e+06
3.46622e+06
3.46859e+06
3.47062e+06
3.47235e+06
3.47384e+06
3.47513e+06
3.47625e+06
3.47724e+06
3.47812e+06
3.4789e+06
3.4796e+06
3.48023e+06
3.48081e+06
3.48134e+06
3.48183e+06
3.48228e+06
3.48269e+06
3.48308e+06
3.48344e+06
3.48378e+06
3.46365e+06
3.44436e+06
3.46044e+06
3.44865e+06
3.45508e+06
3.44813e+06
3.4484e+06
3.44501e+06
3.44439e+06
3.4442e+06
3.44417e+06
3.44496e+06
3.44474e+06
3.44285e+06
3.43465e+06
3.43885e+06
3.445e+06
3.45097e+06
3.45552e+06
3.45957e+06
3.46289e+06
3.46574e+06
3.46815e+06
3.47021e+06
3.47198e+06
3.4735e+06
3.47483e+06
3.47598e+06
3.47699e+06
3.47789e+06
3.47869e+06
3.47941e+06
3.48006e+06
3.48065e+06
3.48119e+06
3.48169e+06
3.48215e+06
3.48257e+06
3.48297e+06
3.48333e+06
3.48367e+06
3.45921e+06
3.44134e+06
3.45656e+06
3.4453e+06
3.45159e+06
3.44564e+06
3.44628e+06
3.44366e+06
3.44329e+06
3.44323e+06
3.44313e+06
3.44379e+06
3.4435e+06
3.44174e+06
3.43415e+06
3.43846e+06
3.44456e+06
3.45053e+06
3.45508e+06
3.45913e+06
3.46246e+06
3.46534e+06
3.46777e+06
3.46986e+06
3.47166e+06
3.47321e+06
3.47456e+06
3.47573e+06
3.47677e+06
3.47769e+06
3.47851e+06
3.47924e+06
3.4799e+06
3.48051e+06
3.48106e+06
3.48156e+06
3.48203e+06
3.48246e+06
3.48286e+06
3.48323e+06
3.48357e+06
3.44233e+06
3.44236e+06
3.44218e+06
3.44274e+06
3.4424e+06
3.44075e+06
3.43372e+06
3.43819e+06
3.44424e+06
3.45019e+06
3.45473e+06
3.45878e+06
3.46212e+06
3.46501e+06
3.46746e+06
3.46957e+06
3.47138e+06
3.47295e+06
3.47432e+06
3.47552e+06
3.47657e+06
3.4775e+06
3.47834e+06
3.47908e+06
3.47975e+06
3.48037e+06
3.48092e+06
3.48144e+06
3.48191e+06
3.48235e+06
3.48275e+06
3.48313e+06
3.48347e+06
3.48287e+06
3.48381e+06
3.48458e+06
3.48522e+06
3.48575e+06
3.48621e+06
3.48661e+06
3.48697e+06
3.48728e+06
3.48757e+06
3.48784e+06
3.48809e+06
3.48832e+06
3.48854e+06
3.48875e+06
3.48895e+06
3.48915e+06
3.48933e+06
3.48951e+06
3.48968e+06
3.4795e+06
3.48106e+06
3.48231e+06
3.4833e+06
3.48412e+06
3.48479e+06
3.48536e+06
3.48584e+06
3.48626e+06
3.48663e+06
3.48696e+06
3.48726e+06
3.48754e+06
3.4878e+06
3.48804e+06
3.48827e+06
3.48849e+06
3.4887e+06
3.4889e+06
3.48909e+06
3.48928e+06
3.48945e+06
3.46777e+06
3.47468e+06
3.46841e+06
3.47268e+06
3.46265e+06
3.46345e+06
3.45787e+06
3.45756e+06
3.45089e+06
3.43844e+06
3.4604e+06
3.46665e+06
3.47102e+06
3.47447e+06
3.47704e+06
3.47908e+06
3.48066e+06
3.48192e+06
3.48294e+06
3.48377e+06
3.48445e+06
3.48503e+06
3.48552e+06
3.48595e+06
3.48633e+06
3.48667e+06
3.48698e+06
3.48726e+06
3.48753e+06
3.48778e+06
3.48801e+06
3.48824e+06
3.48846e+06
3.48866e+06
3.48886e+06
3.48905e+06
3.48923e+06
3.47473e+06
3.48696e+06
3.47595e+06
3.48309e+06
3.47137e+06
3.47381e+06
3.4673e+06
3.4683e+06
3.46107e+06
3.44655e+06
3.44265e+06
3.45442e+06
3.46099e+06
3.46719e+06
3.47118e+06
3.47455e+06
3.47699e+06
3.47897e+06
3.4805e+06
3.48173e+06
3.48272e+06
3.48353e+06
3.4842e+06
3.48477e+06
3.48526e+06
3.48568e+06
3.48606e+06
3.4864e+06
3.48671e+06
3.487e+06
3.48727e+06
3.48752e+06
3.48776e+06
3.48799e+06
3.48822e+06
3.48843e+06
3.48863e+06
3.48883e+06
3.48901e+06
3.48828e+06
3.4991e+06
3.48968e+06
3.49455e+06
3.48531e+06
3.48738e+06
3.48184e+06
3.48379e+06
3.47683e+06
3.45914e+06
3.44738e+06
3.45795e+06
3.46289e+06
3.46868e+06
3.47206e+06
3.47519e+06
3.47738e+06
3.47921e+06
3.48061e+06
3.48175e+06
3.48266e+06
3.48342e+06
3.48405e+06
3.48459e+06
3.48505e+06
3.48546e+06
3.48582e+06
3.48616e+06
3.48646e+06
3.48675e+06
3.48702e+06
3.48727e+06
3.48752e+06
3.48775e+06
3.48798e+06
3.4882e+06
3.48841e+06
3.48861e+06
3.4888e+06
3.48898e+06
3.50538e+06
3.51061e+06
3.50653e+06
3.50679e+06
3.50223e+06
3.50296e+06
3.49941e+06
3.50214e+06
3.49587e+06
3.47499e+06
3.45451e+06
3.4628e+06
3.46597e+06
3.47102e+06
3.47365e+06
3.47638e+06
3.47819e+06
3.47978e+06
3.48098e+06
3.48197e+06
3.48277e+06
3.48344e+06
3.484e+06
3.48448e+06
3.4849e+06
3.48528e+06
3.48563e+06
3.48594e+06
3.48624e+06
3.48652e+06
3.48678e+06
3.48704e+06
3.48729e+06
3.48752e+06
3.48775e+06
3.48797e+06
3.48819e+06
3.48839e+06
3.48859e+06
3.48878e+06
3.52194e+06
3.52215e+06
3.52257e+06
3.51961e+06
3.51892e+06
3.51887e+06
3.51688e+06
3.52055e+06
3.51468e+06
3.49243e+06
3.4632e+06
3.46842e+06
3.47002e+06
3.47405e+06
3.47588e+06
3.47806e+06
3.47943e+06
3.48069e+06
3.48162e+06
3.48241e+06
3.48304e+06
3.48358e+06
3.48405e+06
3.48445e+06
3.48482e+06
3.48515e+06
3.48546e+06
3.48575e+06
3.48603e+06
3.4863e+06
3.48656e+06
3.48681e+06
3.48706e+06
3.4873e+06
3.48753e+06
3.48775e+06
3.48797e+06
3.48818e+06
3.48838e+06
3.48857e+06
3.48875e+06
3.53552e+06
3.53442e+06
3.53565e+06
3.53283e+06
3.53328e+06
3.53323e+06
3.53133e+06
3.536e+06
3.52919e+06
3.50906e+06
3.47276e+06
3.47423e+06
3.47484e+06
3.47764e+06
3.47871e+06
3.4802e+06
3.48106e+06
3.4819e+06
3.4825e+06
3.48304e+06
3.48347e+06
3.48385e+06
3.48418e+06
3.48449e+06
3.48478e+06
3.48506e+06
3.48533e+06
3.48559e+06
3.48585e+06
3.4861e+06
3.48635e+06
3.4866e+06
3.48684e+06
3.48708e+06
3.48731e+06
3.48754e+06
3.48776e+06
3.48797e+06
3.48817e+06
3.48837e+06
3.48856e+06
3.5468e+06
3.54732e+06
3.5467e+06
3.54593e+06
3.5457e+06
3.54556e+06
3.5429e+06
3.5473e+06
3.53944e+06
3.5238e+06
3.4841e+06
3.48012e+06
3.48053e+06
3.48173e+06
3.48212e+06
3.48277e+06
3.48306e+06
3.4834e+06
3.48363e+06
3.48385e+06
3.48403e+06
3.48422e+06
3.48441e+06
3.4846e+06
3.4848e+06
3.48501e+06
3.48523e+06
3.48545e+06
3.48568e+06
3.48591e+06
3.48615e+06
3.48639e+06
3.48663e+06
3.48686e+06
3.4871e+06
3.48732e+06
3.48755e+06
3.48776e+06
3.48797e+06
3.48817e+06
3.48836e+06
3.55842e+06
3.56083e+06
3.55831e+06
3.5592e+06
3.55807e+06
3.55733e+06
3.55471e+06
3.5567e+06
3.5507e+06
3.53867e+06
3.49976e+06
3.48681e+06
3.4875e+06
3.48643e+06
3.48616e+06
3.48575e+06
3.48543e+06
3.48517e+06
3.48496e+06
3.48482e+06
3.48473e+06
3.48469e+06
3.48471e+06
3.48476e+06
3.48486e+06
3.48499e+06
3.48515e+06
3.48533e+06
3.48553e+06
3.48574e+06
3.48596e+06
3.48619e+06
3.48642e+06
3.48665e+06
3.48689e+06
3.48712e+06
3.48734e+06
3.48756e+06
3.48777e+06
3.48798e+06
3.48817e+06
3.57248e+06
3.5744e+06
3.57235e+06
3.57287e+06
3.57218e+06
3.57043e+06
3.56927e+06
3.56823e+06
3.56667e+06
3.5568e+06
3.52037e+06
3.49519e+06
3.49585e+06
3.49186e+06
3.49082e+06
3.48914e+06
3.48812e+06
3.48718e+06
3.48648e+06
3.48593e+06
3.48553e+06
3.48524e+06
3.48506e+06
3.48497e+06
3.48495e+06
3.485e+06
3.48509e+06
3.48522e+06
3.48538e+06
3.48557e+06
3.48578e+06
3.48599e+06
3.48622e+06
3.48645e+06
3.48668e+06
3.48691e+06
3.48714e+06
3.48736e+06
3.48758e+06
3.48778e+06
3.48798e+06
3.58903e+06
3.58727e+06
3.58889e+06
3.58662e+06
3.5882e+06
3.58513e+06
3.58632e+06
3.58343e+06
3.58664e+06
3.57783e+06
3.54371e+06
3.50566e+06
3.50502e+06
3.49801e+06
3.49597e+06
3.49289e+06
3.49109e+06
3.48939e+06
3.48815e+06
3.48715e+06
3.48641e+06
3.48585e+06
3.48546e+06
3.48521e+06
3.48507e+06
3.48502e+06
3.48504e+06
3.48512e+06
3.48525e+06
3.48541e+06
3.4856e+06
3.4858e+06
3.48602e+06
3.48625e+06
3.48648e+06
3.48671e+06
3.48694e+06
3.48716e+06
3.48738e+06
3.48759e+06
3.4878e+06
3.60681e+06
3.59917e+06
3.60607e+06
3.59988e+06
3.60444e+06
3.5999e+06
3.60324e+06
3.59927e+06
3.60632e+06
3.59698e+06
3.56718e+06
3.51814e+06
3.51418e+06
3.50485e+06
3.50138e+06
3.49696e+06
3.49423e+06
3.49175e+06
3.48992e+06
3.48845e+06
3.48733e+06
3.48649e+06
3.48588e+06
3.48546e+06
3.48519e+06
3.48505e+06
3.485e+06
3.48503e+06
3.48512e+06
3.48525e+06
3.48542e+06
3.48562e+06
3.48583e+06
3.48605e+06
3.48628e+06
3.48651e+06
3.48674e+06
3.48697e+06
3.48719e+06
3.48741e+06
3.48761e+06
3.62304e+06
3.61018e+06
3.62193e+06
3.61258e+06
3.6191e+06
3.61329e+06
3.6171e+06
3.61181e+06
3.6205e+06
3.60914e+06
3.58772e+06
3.53257e+06
3.52266e+06
3.5123e+06
3.50688e+06
3.50128e+06
3.49749e+06
3.4942e+06
3.49174e+06
3.48976e+06
3.48827e+06
3.48713e+06
3.4863e+06
3.48571e+06
3.48531e+06
3.48507e+06
3.48496e+06
3.48493e+06
3.48499e+06
3.4851e+06
3.48525e+06
3.48543e+06
3.48564e+06
3.48586e+06
3.48609e+06
3.48632e+06
3.48655e+06
3.48678e+06
3.48701e+06
3.48722e+06
3.48743e+06
3.63788e+06
3.62196e+06
3.63655e+06
3.62547e+06
3.6323e+06
3.62598e+06
3.6282e+06
3.6225e+06
3.62868e+06
3.61863e+06
3.60501e+06
3.55127e+06
3.53069e+06
3.5206e+06
3.51243e+06
3.50582e+06
3.50078e+06
3.49668e+06
3.49354e+06
3.49106e+06
3.48918e+06
3.48775e+06
3.48669e+06
3.48593e+06
3.48542e+06
3.48508e+06
3.4849e+06
3.48483e+06
3.48485e+06
3.48494e+06
3.48507e+06
3.48525e+06
3.48545e+06
3.48566e+06
3.48589e+06
3.48612e+06
3.48636e+06
3.48659e+06
3.48682e+06
3.48704e+06
3.48725e+06
3.65177e+06
3.63535e+06
3.6506e+06
3.63914e+06
3.64524e+06
3.63937e+06
3.63932e+06
3.63524e+06
3.63643e+06
3.63279e+06
3.62319e+06
3.57612e+06
3.53952e+06
3.52992e+06
3.51814e+06
3.51053e+06
3.50404e+06
3.49913e+06
3.49526e+06
3.49229e+06
3.49001e+06
3.4883e+06
3.48703e+06
3.48612e+06
3.48548e+06
3.48507e+06
3.48482e+06
3.48471e+06
3.4847e+06
3.48477e+06
3.48489e+06
3.48506e+06
3.48525e+06
3.48547e+06
3.4857e+06
3.48593e+06
3.48617e+06
3.48641e+06
3.48664e+06
3.48686e+06
3.48708e+06
3.66766e+06
3.65151e+06
3.66375e+06
3.65309e+06
3.65773e+06
3.65294e+06
3.65138e+06
3.64993e+06
3.64792e+06
3.65156e+06
3.64289e+06
3.60352e+06
3.55026e+06
3.53942e+06
3.524e+06
3.51516e+06
3.50717e+06
3.50141e+06
3.49683e+06
3.49336e+06
3.49072e+06
3.48874e+06
3.48728e+06
3.48623e+06
3.4855e+06
3.48501e+06
3.48472e+06
3.48457e+06
3.48454e+06
3.48459e+06
3.4847e+06
3.48486e+06
3.48506e+06
3.48527e+06
3.4855e+06
3.48574e+06
3.48598e+06
3.48622e+06
3.48646e+06
3.48669e+06
3.48691e+06
3.67532e+06
3.66572e+06
3.67293e+06
3.66589e+06
3.66798e+06
3.66464e+06
3.66214e+06
3.66277e+06
3.65953e+06
3.66817e+06
3.657e+06
3.62829e+06
3.56332e+06
3.54756e+06
3.52988e+06
3.5193e+06
3.51001e+06
3.50338e+06
3.49813e+06
3.49422e+06
3.49125e+06
3.48904e+06
3.48742e+06
3.48626e+06
3.48545e+06
3.48491e+06
3.48458e+06
3.48441e+06
3.48436e+06
3.4844e+06
3.48451e+06
3.48467e+06
3.48486e+06
3.48508e+06
3.48531e+06
3.48555e+06
3.4858e+06
3.48604e+06
3.48628e+06
3.48651e+06
3.48674e+06
3.6777e+06
3.67949e+06
3.67689e+06
3.67628e+06
3.67445e+06
3.67282e+06
3.66948e+06
3.67057e+06
3.66698e+06
3.67628e+06
3.66397e+06
3.64682e+06
3.57991e+06
3.55345e+06
3.53565e+06
3.52262e+06
3.5124e+06
3.50486e+06
3.49908e+06
3.49477e+06
3.49154e+06
3.48916e+06
3.48742e+06
3.48618e+06
3.48531e+06
3.48474e+06
3.48439e+06
3.48421e+06
3.48415e+06
3.48419e+06
3.4843e+06
3.48446e+06
3.48466e+06
3.48488e+06
3.48512e+06
3.48536e+06
3.48561e+06
3.48586e+06
3.4861e+06
3.48634e+06
3.48657e+06
3.67335e+06
3.68877e+06
3.67481e+06
3.68239e+06
3.67661e+06
3.67698e+06
3.67316e+06
3.67382e+06
3.6716e+06
3.67799e+06
3.66895e+06
3.65951e+06
3.60124e+06
3.55739e+06
3.54106e+06
3.5249e+06
3.51414e+06
3.5057e+06
3.49954e+06
3.49493e+06
3.49153e+06
3.48904e+06
3.48724e+06
3.48597e+06
3.48509e+06
3.48451e+06
3.48416e+06
3.48397e+06
3.48392e+06
3.48397e+06
3.48408e+06
3.48425e+06
3.48445e+06
3.48468e+06
3.48492e+06
3.48517e+06
3.48543e+06
3.48568e+06
3.48593e+06
3.48617e+06
3.4864e+06
3.66562e+06
3.69202e+06
3.66747e+06
3.68195e+06
3.67303e+06
3.67543e+06
3.67197e+06
3.67342e+06
3.67498e+06
3.67889e+06
3.67549e+06
3.66921e+06
3.62366e+06