/*--------------------------------*- C++ -*----------------------------------*\
| =========                 |                                                 |
| \\      /  F ield         | OpenFOAM: The Open Source CFD Toolbox           |
|  \\    /   O peration     | Version:  v2012                                 |
|   \\  /    A nd           | Website:  www.openfoam.com                      |
|    \\/     M anipulation  |                                                 |
\*---------------------------------------------------------------------------*/
FoamFile
{
    version     2.0;
    format      ascii;
    class       surfaceScalarField;
    location    "0.1";
    object      phi;
}
// * * * * * * * * * * * * * * * * * * * * * * * * * * * * * * * * * * * * * //

dimensions      [0 3 -1 0 0 0 0];
oriented        oriented;


internalField   nonuniform List<scalar> 
6347
(
5.45152e-14
4.05133e-13
3.1262e-16
1.59486e-13
1.3761e-14
-6.01895e-16
3.35927e-13
-8.32261e-13
-4.58583e-16
6.00393e-13
-2.12734e-12
1.79274e-16
9.74991e-13
-3.84953e-12
5.18713e-16
1.47205e-12
-6.0345e-12
-3.3985e-16
2.09568e-12
-8.67216e-12
8.79152e-16
2.87804e-12
-1.17994e-11
2.33706e-16
3.81731e-12
-1.5424e-11
9.30715e-16
4.9327e-12
-1.95725e-11
2.17531e-16
6.23291e-12
-2.42558e-11
8.57632e-16
7.73609e-12
-2.94999e-11
8.63994e-16
9.43847e-12
-3.53116e-11
7.08419e-17
1.13605e-11
-4.17062e-11
1.35034e-16
1.35051e-11
-4.86832e-11
5.6317e-16
-5.62522e-11
9.02992e-17
9.60342e-15
2.6869e-13
2.41883e-17
5.99369e-14
3.55248e-13
5.31489e-19
1.72332e-13
-9.859e-14
-1.57073e-16
3.62431e-13
-1.0257e-12
1.4658e-16
6.55354e-13
-2.41626e-12
2.71726e-16
1.06024e-12
-4.25364e-12
-2.40563e-16
1.5913e-12
-6.56511e-12
6.26513e-16
2.26736e-12
-9.34934e-12
-6.6697e-16
3.10042e-12
-1.26344e-11
2.13862e-16
4.1092e-12
-1.64317e-11
-1.79314e-16
5.30129e-12
-2.07655e-11
1.33453e-16
6.69392e-12
-2.56467e-11
6.06016e-17
8.29555e-12
-3.11007e-11
2.39117e-16
1.01204e-11
-3.71289e-11
8.38987e-16
1.2165e-11
-4.3752e-11
-8.51064e-17
1.44484e-11
-5.09627e-11
4.38242e-16
1.69634e-11
-5.87666e-11
8.75716e-17
-6.71536e-11
3.31598e-17
1.0831e-14
2.57858e-13
-6.75402e-18
6.54942e-14
3.00578e-13
-3.83049e-17
1.87971e-13
-2.20845e-13
-2.06597e-16
3.93244e-13
-1.23552e-12
-3.49162e-16
7.10612e-13
-2.72878e-12
9.96385e-16
1.14597e-12
-4.69015e-12
-5.03683e-16
1.71988e-12
-7.13774e-12
1.84933e-16
2.44717e-12
-1.00761e-11
2.2644e-16
3.34373e-12
-1.35297e-11
-4.76503e-17
4.42597e-12
-1.75123e-11
3.42694e-16
5.70562e-12
-2.20438e-11
8.17946e-17
7.19514e-12
-2.71375e-11
-1.10686e-16
8.90667e-12
-3.28138e-11
-1.55947e-16
1.0857e-11
-3.90747e-11
5.16372e-16
1.30366e-11
-4.59366e-11
-5.28261e-16
1.54673e-11
-5.33916e-11
1.48718e-16
1.81411e-11
-6.14406e-11
2.0794e-17
2.10587e-11
-7.00704e-11
5.41456e-17
-7.92626e-11
2.1744e-17
1.19162e-14
2.45824e-13
1.28463e-19
7.16916e-14
2.40879e-13
-5.0893e-17
2.04828e-13
-3.53756e-13
-2.0933e-16
4.27578e-13
-1.4627e-12
-2.827e-16
7.70383e-13
-3.06828e-12
6.70598e-16
1.24181e-12
-5.15963e-12
-2.5883e-16
1.86192e-12
-7.75471e-12
8.38052e-16
2.64318e-12
-1.08584e-11
-4.54569e-16
3.60677e-12
-1.44924e-11
3.44329e-16
4.7676e-12
-1.86731e-11
-1.34535e-16
6.13919e-12
-2.34151e-11
7.3631e-17
7.73529e-12
-2.87341e-11
-5.16172e-17
9.56679e-12
-3.46467e-11
-1.93223e-16
1.16499e-11
-4.11537e-11
5.52104e-16
1.39762e-11
-4.82685e-11
-7.27095e-16
1.65653e-11
-5.59803e-11
1.06314e-16
1.94103e-11
-6.42856e-11
-7.9811e-17
2.25084e-11
-7.3168e-11
1.22591e-16
-8.26046e-11
-1.0035e-16
1.33036e-14
2.32428e-13
-1.02376e-17
7.8998e-14
1.7533e-13
-3.2259e-17
2.24587e-13
-4.99391e-13
-2.13507e-16
4.66275e-13
-1.7101e-12
-1.87007e-16
8.38797e-13
-3.4331e-12
1.29373e-15
1.35139e-12
-5.6645e-12
4.07457e-17
2.01954e-12
-8.41961e-12
7.86427e-16
2.86139e-12
-1.17017e-11
-1.23303e-16
3.89761e-12
-1.5529e-11
-2.21416e-16
5.14422e-12
-1.99204e-11
8.62756e-17
6.61573e-12
-2.48873e-11
-1.65564e-16
8.32712e-12
-3.04445e-11
1.01283e-16
1.02875e-11
-3.66077e-11
-3.92083e-18
1.25135e-11
-4.33756e-11
3.85028e-16
1.49963e-11
-5.07569e-11
-5.41362e-16
1.7755e-11
-5.87385e-11
-9.63633e-17
2.07813e-11
-6.73123e-11
4.66615e-17
2.40716e-11
-7.64577e-11
-1.99132e-17
-8.6147e-11
-1.23973e-17
1.49269e-14
2.17443e-13
-2.404e-17
8.67469e-14
1.03337e-13
-1.21146e-17
2.44709e-13
-6.57658e-13
4.44229e-17
5.13139e-13
-1.97723e-12
-3.39547e-16
9.10831e-13
-3.83273e-12
-5.9422e-16
1.44683e-12
-6.22093e-12
-1.63079e-15
2.17606e-12
-9.13942e-12
1.20124e-15
3.089e-12
-1.261e-11
-1.98809e-17
4.20365e-12
-1.66446e-11
5.17859e-16
5.54735e-12
-2.12606e-11
-3.6767e-17
7.12961e-12
-2.64676e-11
4.58284e-16
8.96384e-12
-3.22801e-11
-2.46596e-16
1.10646e-11
-3.87095e-11
-1.22438e-16
1.34455e-11
-4.57529e-11
5.13465e-16
1.60986e-11
-5.34152e-11
-7.24223e-16
1.90398e-11
-6.16798e-11
7.84536e-17
2.22612e-11
-7.05341e-11
-1.5756e-16
2.57562e-11
-7.99526e-11
1.07477e-16
-8.99024e-11
-1.49149e-16
1.65025e-14
2.00813e-13
3.56868e-18
9.5139e-14
2.46251e-14
-4.36369e-19
2.68022e-13
-8.30966e-13
5.2867e-17
5.64569e-13
-2.27262e-12
1.47686e-16
9.91804e-13
-4.26103e-12
-9.11767e-16
1.5794e-12
-6.81728e-12
1.24336e-16
2.36979e-12
-9.90776e-12
2.61632e-15
3.35362e-12
-1.3583e-11
2.94674e-16
4.55324e-12
-1.78471e-11
3.88687e-16
5.99797e-12
-2.27023e-11
2.11867e-16
7.69789e-12
-2.81661e-11
7.78372e-17
9.66564e-12
-3.42507e-11
-2.22064e-16
1.19159e-11
-4.09621e-11
-2.64493e-16
1.44638e-11
-4.82966e-11
4.27723e-16
1.72975e-11
-5.62545e-11
-5.36686e-16
2.04343e-11
-6.48167e-11
-1.58441e-16
2.38627e-11
-7.39634e-11
1.02657e-17
2.75761e-11
-8.36657e-11
-5.41011e-17
-9.38831e-11
1.81941e-17
1.88376e-14
1.82202e-13
-1.26523e-16
1.0546e-13
-6.14065e-14
-4.07062e-16
2.90026e-13
-1.01582e-12
-4.51693e-16
6.05099e-13
-2.58397e-12
1.65336e-15
1.06317e-12
-4.72415e-12
-4.39623e-16
1.72079e-12
-7.46913e-12
-6.27581e-16
2.55965e-12
-1.07572e-11
-8.01048e-16
3.58935e-12
-1.46548e-11
-4.84562e-15
4.91095e-12
-1.91451e-11
2.98557e-15
6.47431e-12
-2.42616e-11
-1.06869e-16
8.30182e-12
-2.99954e-11
3.95301e-16
1.04217e-11
-3.63677e-11
-3.1668e-17
1.28364e-11
-4.33786e-11
-7.41841e-17
1.55653e-11
-5.10213e-11
5.16245e-16
1.85965e-11
-5.92901e-11
-6.04081e-16
2.19438e-11
-6.81641e-11
6.32827e-17
2.55958e-11
-7.76158e-11
-1.5937e-16
2.95414e-11
-8.76112e-11
1.09362e-16
-9.81036e-11
-1.19657e-16
2.02204e-14
1.61684e-13
6.86084e-17
1.14308e-13
-1.57359e-13
9.60928e-16
3.19365e-13
-1.22463e-12
1.52438e-15
6.7649e-13
-2.9326e-12
-2.45401e-15
1.19219e-12
-5.23914e-12
-2.0596e-15
1.88149e-12
-8.15827e-12
4.38445e-15
2.79909e-12
-1.16676e-11
-2.6301e-15
3.90628e-12
-1.58007e-11
-2.87195e-15
5.33168e-12
-2.05457e-11
2.33363e-15
7.01204e-12
-2.59381e-11
5.01921e-16
8.98009e-12
-3.1964e-11
1.18001e-16
1.1257e-11
-3.86428e-11
8.34613e-17
1.38466e-11
-4.59705e-11
-1.48434e-16
1.67687e-11
-5.39386e-11
4.7504e-16
2.00103e-11
-6.25361e-11
-3.93693e-16
2.35837e-11
-7.17374e-11
-1.17019e-16
2.74734e-11
-8.15063e-11
3.33176e-18
3.16673e-11
-9.18049e-11
-5.2819e-17
-1.02578e-10
-1.77566e-17
2.29396e-14
1.38762e-13
-1.08309e-17
1.27568e-13
-2.62535e-13
3.52822e-16
3.47591e-13
-1.44843e-12
1.35054e-15
7.27326e-13
-3.30366e-12
-1.42299e-15
1.28436e-12
-5.79602e-12
-1.50611e-15
2.0392e-12
-8.91517e-12
2.87405e-15
3.03399e-12
-1.26557e-11
-1.75947e-15
4.23615e-12
-1.70411e-11
-3.36473e-15
5.77453e-12
-2.2062e-11
2.39921e-15
7.59086e-12
-2.77479e-11
5.62878e-16
9.71467e-12
-3.40858e-11
4.78591e-16
1.2164e-11
-4.10922e-11
-4.15985e-17
1.49467e-11
-4.87575e-11
-5.27832e-16
1.80794e-11
-5.70697e-11
2.09418e-16
2.15511e-11
-6.60118e-11
-5.39501e-16
2.53663e-11
-7.55531e-11
2.4236e-18
2.95111e-11
-8.5652e-11
-1.8666e-16
3.39683e-11
-9.62625e-11
2.76731e-17
-1.07322e-10
-1.20011e-16
2.55372e-14
1.13172e-13
3.01501e-17
1.40319e-13
-3.78111e-13
3.35729e-16
3.82794e-13
-1.69414e-12
1.33436e-15
8.00759e-13
-3.71385e-12
-1.25638e-15
1.40773e-12
-6.40156e-12
-1.92251e-15
2.23095e-12
-9.74058e-12
3.1347e-15
3.30887e-12
-1.37282e-11
-1.80536e-15
4.61619e-12
-1.83833e-11
-3.25619e-15
6.27695e-12
-2.37011e-11
2.68279e-15
8.23561e-12
-2.96993e-11
3.1776e-16
1.05235e-11
-3.63729e-11
6.71061e-16
1.31604e-11
-4.37256e-11
5.666e-17
1.61512e-11
-5.17501e-11
1.80464e-17
1.95097e-11
-6.04268e-11
-2.26083e-17
2.32274e-11
-6.97333e-11
-3.28985e-16
2.73042e-11
-7.96307e-11
-1.76403e-16
3.17222e-11
-9.00717e-11
-1.33262e-16
3.64616e-11
-1.01002e-10
-6.73318e-17
-1.12352e-10
-8.34516e-17
2.85186e-14
8.46177e-14
2.22649e-17
1.55408e-13
-5.05678e-13
3.82926e-16
4.20802e-13
-1.96304e-12
1.42723e-15
8.73111e-13
-4.15829e-12
-1.46642e-15
1.53619e-12
-7.06502e-12
-1.46135e-15
2.44177e-12
-1.06487e-11
2.90477e-15
3.60124e-12
-1.48841e-11
-2.82188e-15
5.02186e-12
-1.98388e-11
-2.0158e-15
6.81943e-12
-2.54749e-11
1.632e-15
8.936e-12
-3.18103e-11
1.29365e-15
1.141e-11
-3.88466e-11
-3.2854e-16
1.42521e-11
-4.65672e-11
3.69087e-16
1.74731e-11
-5.49709e-11
-2.73418e-16
2.10769e-11
-6.40309e-11
1.83453e-16
2.50608e-11
-7.37187e-11
-3.13876e-16
2.94187e-11
-8.39875e-11
1.86573e-16
3.41286e-11
-9.47826e-11
-1.57764e-16
3.91674e-11
-1.06041e-10
5.08787e-17
4.44976e-11
-1.17684e-10
-1.66915e-16
5.0077e-11
-1.29618e-10
-1.03666e-16
5.58526e-11
-1.41743e-10
-9.71243e-17
6.17637e-11
-1.5396e-10
-2.44299e-17
-1.6613e-10
-8.28283e-17
3.20475e-14
5.25965e-14
1.15812e-17
1.72591e-13
-6.47029e-13
2.79977e-16
4.67398e-13
-2.26069e-12
1.25804e-15
9.66568e-13
-4.64718e-12
-2.20546e-15
1.6759e-12
-7.77464e-12
-2.86506e-15
2.62669e-12
-1.16104e-11
5.70905e-15
3.89412e-12
-1.61454e-11
-2.96924e-15
5.46665e-12
-2.14445e-11
-3.8754e-15
7.41891e-12
-2.74064e-11
3.97943e-15
9.72135e-12
-3.40989e-11
-2.76437e-16
1.23924e-11
-4.15169e-11
1.70029e-15
1.54535e-11
-4.96267e-11
-8.98827e-16
1.89182e-11
-5.8438e-11
3.97451e-16
2.27904e-11
-6.79021e-11
-2.65326e-16
2.70612e-11
-7.79916e-11
-7.3295e-18
3.17218e-11
-8.8647e-11
3.55208e-18
3.67448e-11
-9.98072e-11
-1.17455e-16
4.21033e-11
-1.11399e-10
-3.65627e-18
4.77543e-11
-1.23336e-10
-7.91855e-17
5.36486e-11
-1.35513e-10
-1.91752e-17
5.97266e-11
-1.47821e-10
3.48597e-18
6.59204e-11
-1.60154e-10
2.77029e-17
-1.72364e-10
-2.50746e-17
3.56849e-14
1.68899e-14
2.56244e-17
1.91299e-13
-8.02669e-13
9.03558e-17
5.14535e-13
-2.58505e-12
1.01615e-16
1.0544e-12
-5.18762e-12
1.40075e-15
1.84387e-12
-8.56829e-12
2.62024e-15
2.93311e-12
-1.26748e-11
-3.24083e-15
4.33693e-12
-1.75512e-11
-8.70586e-16
6.0208e-12
-2.31741e-11
-1.35002e-15
8.10542e-12
-2.94622e-11
-5.67086e-16
1.05732e-11
-3.65692e-11
2.55893e-15
1.34624e-11
-4.44011e-11
-1.38054e-15
1.67675e-11
-5.29331e-11
1.18094e-15
2.05088e-11
-6.2179e-11
-8.69215e-16
2.46721e-11
-7.20668e-11
3.8094e-16
2.92558e-11
-8.25755e-11
-3.45749e-16
3.42412e-11
-9.3632e-11
2.25818e-16
3.95994e-11
-1.05167e-10
-2.64431e-16
4.52973e-11
-1.17098e-10
1.50284e-17
5.12853e-11
-1.29325e-10
-1.33284e-16
5.7508e-11
-1.41736e-10
-7.32966e-17
6.38988e-11
-1.54212e-10
-4.2538e-17
7.03823e-11
-1.66638e-10
-3.82422e-17
-1.78858e-10
-5.31379e-17
4.01549e-14
-2.32072e-14
4.31885e-19
2.12882e-13
-9.75717e-13
3.96048e-17
5.7179e-13
-2.94379e-12
3.03282e-17
1.16634e-12
-5.78155e-12
5.04243e-17
2.0266e-12
-9.43101e-12
2.22683e-15
3.18822e-12
-1.38194e-11
-3.18867e-15
4.67744e-12
-1.90512e-11
-3.35971e-15
6.46648e-12
-2.5021e-11
1.85686e-15
8.75465e-12
-3.17167e-11
-1.16728e-15
1.14884e-11
-3.93014e-11
8.86281e-16
1.46395e-11
-4.75475e-11
1.69504e-15
1.8229e-11
-5.65192e-11
-1.17142e-15
2.22631e-11
-6.62138e-11
1.07452e-15
2.67424e-11
-7.65462e-11
-7.80851e-16
3.16595e-11
-8.74938e-11
2.86347e-16
3.69949e-11
-9.89666e-11
-1.17778e-16
4.27118e-11
-1.10886e-10
-1.02742e-16
4.8771e-11
-1.23157e-10
-6.63079e-17
5.51159e-11
-1.35671e-10
-1.10545e-16
6.16829e-11
-1.48304e-10
-7.0095e-17
6.83976e-11
-1.60927e-10
-3.62847e-17
7.51763e-11
-1.73418e-10
-2.45236e-17
-1.85611e-10
-4.5797e-17
4.4741e-14
-6.81268e-14
9.65161e-17
2.36029e-13
-1.16765e-12
3.40459e-16
6.3329e-13
-3.34196e-12
3.88128e-16
1.284e-12
-6.43353e-12
-9.80261e-16
2.227e-12
-1.03705e-11
-2.03161e-16
3.49489e-12
-1.50951e-11
2.60645e-15
5.16862e-12
-2.07153e-11
2.53595e-15
7.24691e-12
-2.70896e-11
-6.2238e-15
9.73811e-12
-3.42083e-11
2.37986e-15
1.26207e-11
-4.21822e-11
2.49239e-15
1.59975e-11
-5.0918e-11
-2.42501e-15
1.98471e-11
-6.03771e-11
1.5682e-15
2.41945e-11
-7.05596e-11
-1.42134e-15
2.90168e-11
-8.13713e-11
5.65682e-16
3.42997e-11
-9.27771e-11
-5.02833e-16
4.00128e-11
-1.04679e-10
3.20613e-16
4.61146e-11
-1.16989e-10
-2.61922e-16
5.25572e-11
-1.296e-10
3.72679e-17
5.92768e-11
-1.42392e-10
-1.45492e-16
6.62016e-11
-1.5523e-10
-6.69659e-17
7.32485e-11
-1.67975e-10
-4.78279e-17
8.0326e-11
-1.80496e-10
-3.73641e-17
-1.92622e-10
-4.11335e-17
5.05593e-14
-1.18632e-13
-2.01315e-17
2.63269e-13
-1.37908e-12
-6.89352e-16
7.03072e-13
-3.77842e-12
-1.54584e-15
1.41583e-12
-7.14642e-12
2.63899e-15
2.44282e-12
-1.14038e-11
1.74132e-15
3.86613e-12
-1.65138e-11
-3.24151e-15
5.64255e-12
-2.2498e-11
2.49421e-15
7.84604e-12
-2.92958e-11
-2.67045e-15
1.05689e-11
-3.69272e-11
2.18088e-16
1.37542e-11
-4.53656e-11
1.88046e-15
1.74425e-11
-5.46007e-11
-4.51013e-16
2.16332e-11
-6.45711e-11
-1.79167e-16
2.6333e-11
-7.52571e-11
4.29651e-16
3.15303e-11
-8.65702e-11
-5.05784e-16
3.72047e-11
-9.84525e-11
1.59163e-16
4.33234e-11
-1.10797e-10
-3.28906e-17
4.98352e-11
-1.23503e-10
-5.46025e-17
5.66846e-11
-1.3645e-10
-5.25038e-17
6.37985e-11
-1.49507e-10
-8.09182e-17
7.10955e-11
-1.62528e-10
-5.31194e-17
7.8483e-11
-1.75363e-10
1.80886e-18
8.58602e-11
-1.87874e-10
-6.95132e-18
-1.99883e-10
-2.47711e-17
5.66027e-14
-1.75233e-13
1.20764e-18
2.92042e-13
-1.61432e-12
-1.60687e-16
7.79758e-13
-4.26371e-12
-1.35639e-15
1.56994e-12
-7.93631e-12
1.92206e-15
2.70281e-12
-1.25421e-11
1.16216e-15
4.24812e-12
-1.80554e-11
-2.46627e-15
6.20899e-12
-2.44635e-11
3.13139e-15
8.64442e-12
-3.17339e-11
-3.35412e-15
1.15941e-11
-3.98701e-11
3.65488e-16
1.50584e-11
-4.8833e-11
2.20245e-15
1.90682e-11
-5.86032e-11
-1.545e-15
2.36104e-11
-6.91186e-11
8.7811e-16
2.8699e-11
-8.03419e-11
-4.30661e-16
3.43038e-11
-9.21782e-11
6.74486e-17
4.04067e-11
-1.04555e-10
-1.46774e-16
4.69616e-11
-1.17352e-10
2.1852e-16
5.39121e-11
-1.30454e-10
-1.98512e-16
6.11917e-11
-1.4373e-10
3.80057e-17
6.87177e-11
-1.57035e-10
-1.42364e-16
7.63985e-11
-1.7021e-10
-3.41127e-17
8.41315e-11
-1.83096e-10
-2.63953e-17
9.18063e-11
-1.95549e-10
1.5055e-18
-2.07385e-10
-2.8629e-17
6.35419e-14
-2.38728e-13
-2.08724e-17
3.26557e-13
-1.87698e-12
-2.16342e-16
8.66874e-13
-4.80131e-12
-1.39021e-15
1.73829e-12
-8.80813e-12
1.90693e-15
2.98671e-12
-1.37975e-11
1.39881e-15
4.685e-12
-1.97478e-11
-2.46313e-15
6.84198e-12
-2.66255e-11
2.72013e-15
9.51779e-12
-3.44129e-11
-3.04246e-15
1.27405e-11
-4.30866e-11
1.30522e-16
1.65219e-11
-5.26161e-11
2.23142e-15
2.08863e-11
-6.296e-11
-1.14829e-15
2.58173e-11
-7.40543e-11
5.10939e-16
3.13255e-11
-8.58475e-11
-1.28262e-16
3.7376e-11
-9.82307e-11
-1.5761e-16
4.39405e-11
-1.11118e-10
1.48453e-16
5.09651e-11
-1.24376e-10
6.58653e-17
5.83826e-11
-1.37873e-10
-4.34822e-17
6.61165e-11
-1.51465e-10
-4.90223e-17
7.40726e-11
-1.64992e-10
-6.13888e-17
8.21482e-11
-1.78286e-10
-5.54118e-17
9.02294e-11
-1.91177e-10
3.56523e-17
9.81959e-11
-2.03517e-10
4.41332e-18
-2.15114e-10
-1.06578e-17
7.1271e-14
-3.09995e-13
9.32914e-19
3.63816e-13
-2.16922e-12
-2.10069e-16
9.63634e-13
-5.39816e-12
-1.40983e-15
1.92931e-12
-9.77449e-12
1.86408e-15
3.30967e-12
-1.51828e-11
9.22474e-16
5.17677e-12
-2.16107e-11
-2.21543e-15
7.55357e-12
-2.90074e-11
3.43323e-15
1.04923e-11
-3.73521e-11
-4.09734e-15
1.40192e-11
-4.66093e-11
1.33018e-15
1.81524e-11
-5.67482e-11
1.46583e-15
2.29093e-11
-6.77094e-11
-4.52061e-16
2.82692e-11
-7.94208e-11
-1.00681e-16
3.42401e-11
-9.18157e-11
3.32304e-17
4.07772e-11
-1.0477e-10
-1.35007e-16
4.78432e-11
-1.18184e-10
4.67219e-17
5.53736e-11
-1.31905e-10
1.74457e-16
6.32898e-11
-1.45791e-10
-1.55884e-16
7.15025e-11
-1.59678e-10
2.45246e-17
7.99057e-11
-1.73397e-10
-1.15525e-16
8.83837e-11
-1.86765e-10
2.17112e-17
9.68118e-11
-1.99606e-10
2.09599e-17
1.05059e-10
-2.11764e-10
6.3861e-17
-2.23048e-10
9.30533e-19
8.03492e-14
-3.90322e-13
-1.01161e-17
4.08008e-13
-2.49656e-12
-1.67335e-16
1.07489e-12
-6.06253e-12
-1.28116e-15
2.14765e-12
-1.08498e-11
3.00556e-15
3.68047e-12
-1.6726e-11
2.12447e-15
5.76218e-12
-2.36825e-11
-6.47616e-15
8.38128e-12
-3.16353e-11
3.98203e-15
1.16026e-11
-4.05772e-11
-2.2047e-15
1.54753e-11
-5.04733e-11
-1.38433e-15
1.99963e-11
-6.12736e-11
3.84951e-15
2.51915e-11
-7.28945e-11
-2.4007e-15
3.10252e-11
-8.52629e-11
1.1888e-15
3.75037e-11
-9.82897e-11
-6.47263e-16
4.45685e-11
-1.11837e-10
2.28667e-16
5.21746e-11
-1.2579e-10
-1.05736e-16
6.02453e-11
-1.39975e-10
2.01172e-16
6.86884e-11
-1.54235e-10
-9.88784e-17
7.74019e-11
-1.68392e-10
-3.99617e-17
8.62652e-11
-1.82261e-10
-5.63052e-17
9.51498e-11
-1.9565e-10
-6.04278e-17
1.03918e-10
-2.08374e-10
6.27687e-17
1.12429e-10
-2.20276e-10
3.12802e-17
-2.31161e-10
2.50852e-17
9.05303e-14
-4.80841e-13
-6.01816e-18
4.55928e-13
-2.86205e-12
5.27163e-17
1.19465e-12
-6.80134e-12
-3.47291e-17
2.38343e-12
-1.20348e-11
-1.49636e-15
4.0898e-12
-1.84259e-11
-3.06832e-15
6.36391e-12
-2.59604e-11
7.5041e-15
9.24831e-12
-3.45255e-11
4.02414e-16
1.28184e-11
-4.4144e-11
-5.84932e-15
1.70773e-11
-5.47379e-11
3.54367e-15
2.20505e-11
-6.62399e-11
-7.67343e-16
2.77223e-11
-7.85654e-11
1.02258e-15
3.40908e-11
-9.16313e-11
-8.38666e-16
4.11235e-11
-1.05322e-10
7.25335e-16
4.87702e-11
-1.19485e-10
-6.3768e-16
5.69646e-11
-1.33984e-10
3.769e-16
6.56188e-11
-1.48628e-10
1.06739e-16
7.46236e-11
-1.63242e-10
-7.55957e-17
8.38619e-11
-1.77631e-10
1.98707e-17
9.31984e-11
-1.91599e-10
-7.30618e-17
1.0249e-10
-2.04942e-10
4.52562e-17
1.11587e-10
-2.17471e-10
6.38487e-17
1.20337e-10
-2.29026e-10
1.14583e-16
-2.39417e-10
4.17585e-17
1.02791e-13
-5.83553e-13
-3.19707e-17
5.14683e-13
-3.274e-12
-7.76004e-18
1.34282e-12
-7.63004e-12
2.03513e-16
2.669e-12
-1.33599e-11
-3.01909e-16
4.5798e-12
-2.03326e-11
-2.23001e-15
7.12097e-12
-2.85088e-11
5.57919e-15
1.0332e-11
-3.77493e-11
1.65764e-15
1.42994e-11
-4.80988e-11
-1.08781e-14
1.89829e-11
-5.94306e-11
4.94022e-15
2.44214e-11
-7.16752e-11
1.32088e-15
3.06283e-11
-8.47669e-11
-2.34619e-15
3.75666e-11
-9.85734e-11
2.34754e-15
4.52118e-11
-1.12963e-10
-1.38496e-15
5.34834e-11
-1.2776e-10
7.76274e-16
6.23095e-11
-1.42808e-10
-2.61231e-16
7.15806e-11
-1.57898e-10
4.67249e-16
8.11731e-11
-1.72835e-10
-1.47296e-16
9.09522e-11
-1.8741e-10
4.61645e-17
1.00766e-10
-2.01414e-10
-2.0047e-17
1.10457e-10
-2.14633e-10
-2.6535e-19
1.19861e-10
-2.26875e-10
8.46068e-17
1.28817e-10
-2.37983e-10
5.33572e-17
-2.47771e-10
2.80498e-17
1.15934e-13
-6.99744e-13
1.42474e-16
5.7758e-13
-3.73605e-12
1.93828e-16
1.50536e-12
-8.55746e-12
-8.92806e-18
2.99156e-12
-1.48449e-11
-5.25968e-16
5.10834e-12
-2.24502e-11
5.9315e-16
7.91366e-12
-3.13079e-11
-2.26781e-15
1.147e-11
-4.13008e-11
-9.46678e-16
1.58083e-11
-5.24419e-11
6.9588e-15
2.09813e-11
-6.46016e-11
-3.95829e-15
2.70015e-11
-7.76958e-11
-1.87133e-16
3.38278e-11
-9.15916e-11
2.04771e-15
4.14271e-11
-1.06176e-10
-2.44571e-15
4.97507e-11
-1.21286e-10
1.59908e-15
5.87199e-11
-1.36728e-10
-9.21617e-16
6.82324e-11
-1.52321e-10
5.59015e-16
7.81692e-11
-1.67834e-10
-7.60088e-17
8.83838e-11
-1.83051e-10
4.18088e-19
9.87236e-11
-1.97751e-10
-4.05057e-17
1.09019e-10
-2.1171e-10
1.9111e-17
1.19096e-10
-2.2471e-10
7.02536e-17
1.28779e-10
-2.36557e-10
1.08626e-16
1.37897e-10
-2.47101e-10
1.26432e-16
-2.56164e-10
6.75559e-17
1.3332e-13
-8.32463e-13
-2.72839e-16
6.58422e-13
-4.2607e-12
-2.27329e-16
1.70338e-12
-9.6027e-12
3.53464e-16
3.36294e-12
-1.65085e-11
1.5432e-16
5.73375e-12
-2.48196e-11
1.56145e-16
8.87501e-12
-3.44514e-11
-3.94552e-16
1.28583e-11
-4.5282e-11
6.05789e-16
1.77157e-11
-5.72927e-11
-3.08002e-16
2.34325e-11
-7.03246e-11
-1.39649e-16
3.00551e-11
-8.43165e-11
2.12038e-16
3.75491e-11
-9.90793e-11
1.90943e-16
4.58532e-11
-1.14486e-10
1.90556e-16
5.49168e-11
-1.30345e-10
-1.43026e-16
6.46273e-11
-1.4644e-10
4.14487e-16
7.48722e-11
-1.62564e-10
-1.81329e-16
8.55052e-11
-1.78466e-10
3.73708e-16
9.63614e-11
-1.93909e-10
-1.91468e-16
1.07266e-10
-2.08656e-10
7.90162e-17
1.18032e-10
-2.22476e-10
-1.05917e-17
1.28467e-10
-2.35146e-10
7.87989e-17
1.38386e-10
-2.46475e-10
9.26632e-17
1.47607e-10
-2.56323e-10
1.15891e-16
-2.64527e-10
7.11222e-17
1.51142e-13
-9.83376e-13
-7.77541e-17
7.43121e-13
-4.85256e-12
-2.2495e-17
1.9222e-12
-1.0781e-11
-4.43732e-17
3.79334e-12
-1.83829e-11
1.02446e-16
6.45018e-12
-2.74754e-11
4.72247e-16
9.96448e-12
-3.79643e-11
-3.8814e-16
1.43996e-11
-4.97164e-11
-5.33567e-16
1.97907e-11
-6.26794e-11
9.82557e-16
2.61381e-11
-7.66796e-11
-6.03051e-16
3.34543e-11
-9.16311e-11
-7.54958e-16
4.16978e-11
-1.07323e-10
1.16279e-15
5.0801e-11
-1.23589e-10
-9.43975e-16
6.06807e-11
-1.40222e-10
1.07751e-15
7.1211e-11
-1.56971e-10
-4.65169e-16
8.22493e-11
-1.73603e-10
4.33364e-16
9.36282e-11
-1.89843e-10
5.46094e-17
1.05155e-10
-2.05437e-10
8.06166e-17
1.16633e-10
-2.20135e-10
-3.82621e-17
1.27856e-10
-2.33699e-10
1.04757e-16
1.38616e-10
-2.45906e-10
5.60904e-17
1.48715e-10
-2.56574e-10
1.71518e-16
1.57969e-10
-2.65577e-10
1.49663e-16
-2.72772e-10
1.46572e-16
1.73929e-13
-1.15703e-12
-1.06494e-16
8.50755e-13
-5.52914e-12
-5.59573e-17
2.19114e-12
-1.2121e-11
6.30993e-17
4.3089e-12
-2.05036e-11
9.47236e-17
7.30968e-12
-3.04754e-11
3.46806e-16
1.12626e-11
-4.19162e-11
-3.18374e-16
1.62348e-11
-5.46872e-11
-2.11159e-17
2.22566e-11
-6.8696e-11
7.84928e-16
2.93233e-11
-8.37504e-11
-2.97908e-16
3.74316e-11
-9.97373e-11
-7.89788e-17
4.65216e-11
-1.16408e-10
7.2041e-16
5.65019e-11
-1.33574e-10
-3.47903e-16
6.72731e-11
-1.5099e-10
9.18621e-17
7.86794e-11
-1.68378e-10
2.52516e-16
9.05548e-11
-1.85477e-10
-1.33803e-16
1.02701e-10
-2.01988e-10
5.1853e-16
1.14902e-10
-2.17639e-10
-2.23732e-16
1.26937e-10
-2.3217e-10
2.17138e-16
1.38578e-10
-2.4534e-10
-2.82597e-17
1.49605e-10
-2.56933e-10
1.80766e-16
1.59808e-10
-2.66777e-10
7.49951e-17
1.69002e-10
-2.7477e-10
1.74881e-16
-2.80796e-10
9.26476e-17
1.99092e-13
-1.35579e-12
-1.30019e-16
9.68314e-13
-6.29818e-12
-5.61695e-17
2.48766e-12
-1.36399e-11
8.40559e-17
4.88333e-12
-2.29022e-11
1.03524e-16
8.26473e-12
-3.38551e-11
4.49517e-16
1.2702e-11
-4.63533e-11
-3.07174e-16
1.82885e-11
-6.02724e-11
-4.34683e-16
2.50206e-11
-7.54251e-11
9.33702e-16
3.28945e-11
-9.16273e-11
-2.61178e-16
4.18887e-11
-1.0873e-10
-3.75534e-16
5.19225e-11
-1.26437e-10
1.42082e-15
6.28846e-11
-1.44539e-10
-9.73432e-16
7.46424e-11
-1.62748e-10
6.93428e-16
8.70135e-11
-1.80748e-10
-3.44267e-16
9.97918e-11
-1.98256e-10
5.10637e-16
1.12751e-10
-2.14945e-10
-1.24439e-16
1.25643e-10
-2.30533e-10
1.87531e-16
1.38223e-10
-2.4475e-10
-1.51982e-16
1.50243e-10
-2.5736e-10
2.22962e-16
1.61468e-10
-2.68158e-10
2.92293e-17
1.71685e-10
-2.76993e-10
2.24676e-16
1.80708e-10
-2.83793e-10
1.35062e-16
-2.88474e-10
1.96208e-16
2.31194e-13
-1.58676e-12
-8.04652e-17
1.11817e-12
-7.18491e-12
3.71754e-18
2.85918e-12
-1.53808e-11
2.44228e-17
5.5962e-12
-2.56429e-11
3.63706e-16
9.46294e-12
-3.77195e-11
5.63953e-16
1.4533e-11
-5.14202e-11
-8.79547e-16
2.08366e-11
-6.65746e-11
6.7151e-16
2.83803e-11
-8.29652e-11
3.79955e-16
3.71794e-11
-1.00431e-10
-1.00629e-16
4.71791e-11
-1.1873e-10
-9.63981e-16
5.82752e-11
-1.37531e-10
9.10411e-16
7.03244e-11
-1.5659e-10
-1.85079e-16
8.31526e-11
-1.75573e-10
1.37648e-16
9.65371e-11
-1.94133e-10
4.7412e-16
1.10247e-10
-2.11964e-10
-2.88354e-16
1.24015e-10
-2.28713e-10
5.94939e-16
1.3757e-10
-2.44088e-10
-3.64463e-16
1.50636e-10
-2.57818e-10
3.16067e-16
1.62952e-10
-2.69676e-10
-8.21416e-17
1.7427e-10
-2.79475e-10
2.63046e-16
1.84375e-10
-2.87098e-10
4.25359e-17
1.93088e-10
-2.92506e-10
2.26001e-16
-2.95657e-10
1.14474e-16
2.66589e-13
-1.85322e-12
-2.4509e-17
1.2843e-12
-8.20273e-12
1.25442e-16
3.27759e-12
-1.73737e-11
2.29211e-16
6.39614e-12
-2.87617e-11
-7.32764e-16
1.07656e-11
-4.20887e-11
-1.30048e-16
1.64656e-11
-5.71289e-11
6.62779e-16
2.35497e-11
-7.36536e-11
-7.23264e-16
3.20478e-11
-9.14564e-11
1.33885e-15
4.1944e-11
-1.1033e-10
-3.16131e-16
5.30962e-11
-1.29884e-10
-3.69412e-17
6.53931e-11
-1.49823e-10
9.62127e-16
7.86486e-11
-1.69849e-10
-8.5504e-16
9.26517e-11
-1.89574e-10
1.02385e-15
1.0715e-10
-2.0863e-10
-5.57276e-16
1.21855e-10
-2.26671e-10
5.87679e-16
1.3647e-10
-2.43326e-10
-2.1227e-16
1.5068e-10
-2.58299e-10
3.41074e-16
1.64191e-10
-2.71328e-10
-1.67556e-16
1.76718e-10
-2.82204e-10
3.04553e-16
1.88014e-10
-2.9077e-10
2.96332e-18
1.97865e-10
-2.96949e-10
2.51892e-16
2.06108e-10
-3.00748e-10
1.20815e-16
-3.02177e-10
2.31178e-16
3.1375e-13
-2.16694e-12
2.33411e-17
1.50169e-12
-9.39091e-12
2.16673e-16
3.81469e-12
-1.9687e-11
1.66345e-16
7.4194e-12
-3.23661e-11
-2.98619e-16
1.24556e-11
-4.71242e-11
-4.22719e-16
1.90127e-11
-6.36916e-11
1.00405e-15
2.71286e-11
-8.176e-11
7.29666e-16
3.68e-11
-1.01118e-10
1.02988e-16
4.79115e-11
-1.21447e-10
6.10293e-16
6.03167e-11
-1.4229e-10
-6.96385e-16
7.39226e-11
-1.63427e-10
6.65186e-16
8.84825e-11
-1.84412e-10
-5.05458e-16
1.0374e-10
-2.04829e-10
2.19465e-16
1.1938e-10
-2.2427e-10
4.29294e-16
1.35074e-10
-2.42365e-10
-3.3291e-16
1.50477e-10
-2.58728e-10
6.42399e-16
1.65252e-10
-2.73075e-10
-3.65139e-16
1.79077e-10
-2.85153e-10
3.95617e-16
1.91663e-10
-2.9479e-10
-9.35808e-17
2.02757e-10
-3.01865e-10
2.86119e-16
2.12163e-10
-3.06354e-10
2.65451e-17
2.19735e-10
-3.0832e-10
2.36249e-16
-3.07831e-10
1.14532e-16
3.66097e-13
-2.53212e-12
-4.22652e-16
1.7401e-12
-1.07639e-11
-4.07509e-16
4.40289e-12
-2.23493e-11
-1.65178e-16
8.54064e-12
-3.65081e-11
1.68816e-15
1.43097e-11
-5.28923e-11
-1.72749e-16
2.17741e-11
-7.11536e-11
-6.28413e-16
3.09335e-11
-9.09241e-11
-2.80441e-16
4.17725e-11
-1.11965e-10
-6.72376e-18
5.42347e-11
-1.33909e-10
2.55486e-16
6.8189e-11
-1.56242e-10
-5.27172e-16
8.3339e-11
-1.78579e-10
7.96035e-16
9.94029e-11
-2.00476e-10
-5.74624e-16
1.16066e-10
-2.21489e-10
9.39656e-16
1.32953e-10
-2.41155e-10
-2.183e-16
1.49689e-10
-2.59102e-10
5.43808e-16
1.65892e-10
-2.74928e-10
-1.72402e-16
1.81183e-10
-2.88368e-10
2.76724e-16
1.95227e-10
-2.99196e-10
-9.59378e-17
2.07726e-10
-3.07288e-10
2.82991e-16
2.18439e-10
-3.12578e-10
1.94511e-17
2.27192e-10
-3.15105e-10
2.27215e-16
2.33873e-10
-3.15001e-10
1.10827e-16
-3.12399e-10
2.22429e-16
4.36821e-13
-2.9699e-12
5.04857e-16
2.06681e-12
-1.23966e-11
1.46868e-15
5.20464e-12
-2.54921e-11
2.47578e-15
1.00735e-11
-4.13649e-11
-4.85139e-15
1.67995e-11
-5.96155e-11
-1.92028e-15
2.54125e-11
-7.97768e-11
5.95955e-15
3.60192e-11
-1.01521e-10
-4.59852e-15
4.84503e-11
-1.24406e-10
2.33056e-15
6.25635e-11
-1.48017e-10
-2.97768e-16
7.81572e-11
-1.71836e-10
1.94135e-16
9.49533e-11
-1.95376e-10
2.01108e-16
1.12575e-10
-2.18101e-10
-3.92339e-16
1.3066e-10
-2.39574e-10
9.97195e-17
1.48755e-10
-2.59249e-10
4.40291e-16
1.66438e-10
-2.76785e-10
-1.44538e-16
1.83278e-10
-2.91768e-10
4.18414e-16
1.98884e-10
-3.03974e-10
-2.30856e-16
2.12903e-10
-3.13215e-10
3.07718e-16
2.25048e-10
-3.19434e-10
-1.74877e-17
2.351e-10
-3.22629e-10
2.31118e-16
2.42917e-10
-3.22922e-10
5.00005e-17
2.48432e-10
-3.20517e-10
2.15191e-16
-3.1562e-10
1.15295e-16
5.14861e-13
-3.48492e-12
1.14968e-16
2.417e-12
-1.42998e-11
6.40782e-16
6.05707e-12
-2.91368e-11
2.40693e-15
1.16753e-11
-4.6976e-11
-3.04566e-15
1.94183e-11
-6.73551e-11
-2.1837e-15
2.93131e-11
-8.9679e-11
4.97657e-15
4.14066e-11
-1.13609e-10
-3.53942e-15
5.55144e-11
-1.38519e-10
1.76404e-15
7.14773e-11
-1.63976e-10
1.08917e-16
8.89665e-11
-1.89324e-10
1.2497e-17
1.07639e-10
-2.1405e-10
3.73334e-16
1.27033e-10
-2.37498e-10
-5.94064e-16
1.46698e-10
-2.59238e-10
4.04687e-16
1.6611e-10
-2.78659e-10
1.4866e-16
1.84778e-10
-2.95455e-10
1.072e-16
2.02228e-10
-3.09217e-10
1.51585e-16
2.1804e-10
-3.19787e-10
6.27214e-17
2.31863e-10
-3.27038e-10
8.95044e-17
2.43428e-10
-3.31e-10
1.73825e-16
2.52555e-10
-3.31756e-10
9.25533e-17
2.59154e-10
-3.2952e-10
1.7945e-16
2.63219e-10
-3.24582e-10
1.27846e-16
-3.17227e-10
2.09693e-16
6.27406e-13
-4.11251e-12
1.4265e-16
2.92726e-12
-1.66008e-11
6.15476e-16
7.30285e-12
-3.35174e-11
2.52318e-15
1.40063e-11
-5.36714e-11
-3.18645e-15
2.31765e-11
-7.65215e-11
-2.17589e-15
3.47965e-11
-1.01308e-10
4.98653e-15
4.88604e-11
-1.27666e-10
-3.5446e-15
6.50905e-11
-1.54756e-10
1.68996e-15
8.32667e-11
-1.82147e-10
4.37166e-16
1.02931e-10
-2.08988e-10
-4.9817e-16
1.23652e-10
-2.34775e-10
5.58889e-16
1.44867e-10
-2.58714e-10
-7.97641e-16
1.6604e-10
-2.80411e-10
6.80916e-16
1.86579e-10
-2.99196e-10
-3.68094e-17
2.05951e-10
-3.14829e-10
1.21409e-16
2.23656e-10
-3.2692e-10
1.23702e-16
2.39274e-10
-3.35407e-10
1.9061e-17
2.52475e-10
-3.40238e-10
1.32656e-16
2.6303e-10
-3.41555e-10
9.54435e-17
2.70812e-10
-3.39538e-10
1.51345e-16
2.758e-10
-3.34507e-10
1.10186e-16
2.7806e-10
-3.26842e-10
2.13055e-16
-3.16907e-10
1.31322e-16
7.47345e-13
-4.86e-12
1.28439e-16
3.45934e-12
-1.93139e-11
7.07358e-16
8.58836e-12
-3.86511e-11
2.31652e-15
1.63988e-11
-6.14749e-11
-2.56281e-15
2.70449e-11
-8.71644e-11
-2.05571e-15
4.04665e-11
-1.14738e-10
4.75305e-15
5.66258e-11
-1.43818e-10
-3.95486e-15
7.51538e-11
-1.73292e-10
2.61669e-15
9.57446e-11
-2.02732e-10
-8.17228e-16
1.17813e-10
-2.31058e-10
7.36934e-16
1.4082e-10
-2.57783e-10
-4.99725e-16
1.64064e-10
-2.8196e-10
3.39376e-16
1.86914e-10
-3.03258e-10
-7.00894e-17
2.0867e-10
-3.20951e-10
6.70409e-16
2.2875e-10
-3.3491e-10
-2.94073e-16
2.46611e-10
-3.4478e-10
4.75749e-16
2.61847e-10
-3.50645e-10
-1.92471e-16
2.74157e-10
-3.52547e-10
2.46304e-16
2.83378e-10
-3.50777e-10
5.55568e-17
2.89465e-10
-3.45624e-10
1.54197e-16
2.92489e-10
-3.3753e-10
1.60735e-16
2.92609e-10
-3.26962e-10
1.47938e-16
-3.14364e-10
2.20786e-16
9.31738e-13
-5.792e-12
1.96764e-16
4.28407e-12
-2.26674e-11
6.35835e-16
1.05799e-11
-4.4952e-11
2.64683e-15
2.00804e-11
-7.09628e-11
-5.66206e-15
3.29097e-11
-9.99885e-11
-2.9698e-15
4.88909e-11
-1.3074e-10
1.02186e-14
6.7913e-11
-1.62829e-10
-5.59539e-15
8.9419e-11
-1.94803e-10
1.0034e-15
1.12967e-10
-2.26276e-10
2.24968e-15
1.37792e-10
-2.55878e-10
-1.85441e-15
1.63209e-10
-2.83203e-10
2.26853e-15
1.88386e-10
-3.07135e-10
-1.74449e-15
2.12598e-10
-3.27471e-10
1.49092e-15
2.35092e-10
-3.43442e-10
-4.89052e-16
2.55265e-10
-3.55085e-10
6.38241e-16
2.72597e-10
-3.62111e-10
-1.3502e-16
2.86734e-10
-3.64783e-10