/*--------------------------------*- C++ -*----------------------------------*\
| =========                 |                                                 |
| \\      /  F ield         | OpenFOAM: The Open Source CFD Toolbox           |
|  \\    /   O peration     | Version:  v2012                                 |
|   \\  /    A nd           | Website:  www.openfoam.com                      |
|    \\/     M anipulation  |                                                 |
\*---------------------------------------------------------------------------*/
FoamFile
{
    version     2.0;
    format      ascii;
    class       volVectorField;
    location    "0.25";
    object      U;
}
// * * * * * * * * * * * * * * * * * * * * * * * * * * * * * * * * * * * * * //

dimensions      [0 1 -1 0 0 0 0];


internalField   nonuniform List<vector> 
3320
(
(-0.0260122 -0.000644824 0.000227054)
(-0.0206137 -0.000412158 0.000179929)
(-0.0164704 -0.000268719 0.000143769)
(-0.0134487 -0.000188882 0.000117394)
(-0.0111047 -0.000135516 9.69329e-05)
(-0.0092914 -0.000101509 8.11059e-05)
(-0.00785026 -7.75527e-05 6.85258e-05)
(-0.00669301 -6.07319e-05 5.84239e-05)
(-0.00574892 -4.83601e-05 5.0183e-05)
(-0.00496931 -3.91384e-05 4.33768e-05)
(-0.00431774 -3.2106e-05 3.76906e-05)
(-0.00376693 -2.66696e-05 3.28826e-05)
(-0.00329655 -2.24136e-05 2.8777e-05)
(-0.00289092 -1.90147e-05 2.52345e-05)
(-0.00253829 -1.62765e-05 2.2157e-05)
(-0.0022295 -1.40253e-05 1.9462e-05)
(-0.00195759 -1.21627e-05 1.70884e-05)
(-0.00171705 -1.05974e-05 1.49891e-05)
(-0.00150359 -9.2734e-06 1.31254e-05)
(-0.00131375 -8.13994e-06 1.14679e-05)
(-0.00114475 -7.16052e-06 9.99316e-06)
(-0.000994272 -6.3068e-06 8.67921e-06)
(-0.000860404 -5.55495e-06 7.51149e-06)
(-0.000741485 -4.88984e-06 6.47257e-06)
(-0.000636062 -4.29675e-06 5.55288e-06)
(-0.000542857 -3.76826e-06 4.73886e-06)
(-0.000460695 -3.29548e-06 4.02185e-06)
(-0.000388516 -2.87416e-06 3.39199e-06)
(-0.000325307 -2.50005e-06 2.83973e-06)
(-0.00027013 -2.16857e-06 2.35849e-06)
(-0.000222122 -1.8775e-06 1.93913e-06)
(-0.000180461 -1.62339e-06 1.57541e-06)
(-0.000144394 -1.40303e-06 1.26076e-06)
(-0.000113221 -1.21285e-06 9.88457e-07)
(-8.63296e-05 -1.04847e-06 7.53837e-07)
(-6.32069e-05 -9.04882e-07 5.51918e-07)
(-4.34737e-05 -7.73581e-07 3.79596e-07)
(-2.69242e-05 -6.46101e-07 2.35147e-07)
(-1.36336e-05 -5.04512e-07 1.19086e-07)
(-3.87423e-06 -3.48161e-07 3.38511e-08)
(1.71933e-06 -1.48367e-07 -1.50332e-08)
(2.94831e-06 -1.43475e-09 -2.58795e-08)
(9.09148e-07 1.32979e-07 -8.85563e-09)
(-0.0640495 -0.00946354 0.00055915)
(-0.0518494 -0.00650069 0.000452633)
(-0.0422959 -0.00457939 0.000369236)
(-0.0349921 -0.0032902 0.000305474)
(-0.0292204 -0.00241465 0.000255087)
(-0.0246506 -0.00180585 0.000215194)
(-0.0209679 -0.00137536 0.000183044)
(-0.0179715 -0.00106539 0.000156886)
(-0.0155026 -0.000838647 0.000135332)
(-0.0134461 -0.000670181 0.000117379)
(-0.0117152 -0.000543224 0.00010227)
(-0.0102435 -0.000446262 8.94231e-05)
(-0.00898092 -0.000371233 7.84016e-05)
(-0.0078883 -0.000312355 6.8861e-05)
(-0.00693586 -0.000265503 6.05474e-05)
(-0.0061001 -0.000227651 5.32522e-05)
(-0.00536287 -0.000196632 4.68165e-05)
(-0.00470969 -0.000170831 4.1115e-05)
(-0.00412914 -0.000149077 3.60467e-05)
(-0.003612 -0.000130491 3.15319e-05)
(-0.00315082 -0.000114422 2.75066e-05)
(-0.00273943 -0.000100388 2.3915e-05)
(-0.00237274 -8.80269e-05 2.07148e-05)
(-0.00204632 -7.70787e-05 1.78644e-05)
(-0.00175633 -6.73408e-05 1.53336e-05)
(-0.00149941 -5.86729e-05 1.30902e-05)
(-0.00127246 -5.09592e-05 1.11092e-05)
(-0.00107269 -4.41157e-05 9.36558e-06)
(-0.000897435 -3.80693e-05 7.83508e-06)
(-0.000744228 -3.27514e-05 6.49812e-06)
(-0.000610766 -2.81056e-05 5.33263e-06)
(-0.000494864 -2.40737e-05 4.3207e-06)
(-0.00039451 -2.0595e-05 3.44485e-06)
(-0.000307828 -1.76034e-05 2.68788e-06)
(-0.000233176 -1.50238e-05 2.03633e-06)
(-0.000169178 -1.27691e-05 1.4775e-06)
(-0.000114814 -1.07254e-05 1.0028e-06)
(-6.95368e-05 -8.75689e-06 6.07539e-07)
(-3.35221e-05 -6.69499e-06 2.93046e-07)
(-7.48869e-06 -4.42575e-06 6.56727e-08)
(7.04555e-06 -1.94967e-06 -6.13781e-08)
(9.69845e-06 2.28346e-07 -8.48522e-08)
(3.06437e-06 1.0805e-06 -2.92507e-08)
(-0.0876644 -0.0205781 0.000765285)
(-0.0729871 -0.0148859 0.000637151)
(-0.0609896 -0.0109316 0.000532421)
(-0.0513945 -0.00811732 0.000448659)
(-0.0435744 -0.0061125 0.000380391)
(-0.0372054 -0.00466248 0.000324792)
(-0.0319615 -0.00360557 0.000279014)
(-0.0276158 -0.0028258 0.000241077)
(-0.023982 -0.00224472 0.000209355)
(-0.0209177 -0.00180676 0.000182604)
(-0.018312 -0.00147306 0.000159858)
(-0.0160774 -0.00121593 0.000140351)
(-0.0141463 -0.00101549 0.000123494)
(-0.012465 -0.000857284 0.000108814)
(-0.0109918 -0.000730784 9.59545e-05)
(-0.00969327 -0.000628218 8.46197e-05)
(-0.00854328 -0.00054389 7.45809e-05)
(-0.00752079 -0.000473556 6.56556e-05)
(-0.00660904 -0.000414083 5.7696e-05)
(-0.00579439 -0.000363124 5.05842e-05)
(-0.00506579 -0.00031894 4.42244e-05)
(-0.00441403 -0.000280237 3.85344e-05)
(-0.00383149 -0.000246058 3.34501e-05)
(-0.00331153 -0.000215701 2.89101e-05)
(-0.00284838 -0.000188639 2.48677e-05)
(-0.00243695 -0.000164492 2.12755e-05)
(-0.00207256 -0.000142962 1.80948e-05)
(-0.001751 -0.000123824 1.52878e-05)
(-0.00146817 -0.000106882 1.28182e-05)
(-0.00122031 -9.19598e-05 1.06549e-05)
(-0.00100388 -7.89028e-05 8.76507e-06)
(-0.000815502 -6.7551e-05 7.12039e-06)
(-0.000652063 -5.7738e-05 5.69379e-06)
(-0.000510647 -4.92815e-05 4.45897e-06)
(-0.000388695 -4.1974e-05 3.39447e-06)
(-0.000284051 -3.55715e-05 2.48076e-06)
(-0.000195109 -2.97644e-05 1.70417e-06)
(-0.000120989 -2.41812e-05 1.05707e-06)
(-6.18776e-05 -1.83907e-05 5.40896e-07)
(-1.88022e-05 -1.20833e-05 1.64683e-07)
(6.17446e-06 -5.33874e-06 -5.36281e-08)
(1.26394e-05 6.94322e-07 -1.1052e-07)
(4.23049e-06 3.1276e-06 -4.04278e-08)
(-0.100928 -0.0309389 0.000881044)
(-0.0860156 -0.0232314 0.000750866)
(-0.0733987 -0.0175998 0.000640733)
(-0.062932 -0.0134228 0.000549367)
(-0.0541607 -0.0103369 0.000472798)
(-0.0468284 -0.00803582 0.000408793)
(-0.0406608 -0.00631429 0.000354953)
(-0.0354521 -0.00501598 0.000309482)
(-0.0310261 -0.00403038 0.000270846)
(-0.0272418 -0.00327587 0.000237809)
(-0.0239852 -0.00269339 0.000209382)
(-0.0211638 -0.00223951 0.000184753)
(-0.018704 -0.00188226 0.000163281)
(-0.0165462 -0.00159794 0.000144441)
(-0.0146427 -0.00136894 0.000127826)
(-0.0129553 -0.00118208 0.000113096)
(-0.0114532 -0.00102756 9.99837e-05)
(-0.0101115 -0.000898003 8.82718e-05)
(-0.00891008 -0.000787895 7.77837e-05)
(-0.0078325 -0.000693099 6.83766e-05)
(-0.00686527 -0.000610527 5.99338e-05)
(-0.00599713 -0.000537879 5.2355e-05)
(-0.0052187 -0.000473458 4.55606e-05)
(-0.00452173 -0.000416014 3.94754e-05)
(-0.00389905 -0.000364621 3.40403e-05)
(-0.00334426 -0.000318604 2.91968e-05)
(-0.00285149 -0.000277442 2.48952e-05)
(-0.00241539 -0.00024074 2.10884e-05)
(-0.00203074 -0.000208154 1.773e-05)
(-0.00169273 -0.000179376 1.47797e-05)
(-0.00139679 -0.000154126 1.21956e-05)
(-0.00113854 -0.000132114 9.94093e-06)
(-0.000913923 -0.000113031 7.98028e-06)
(-0.00071914 -9.65393e-05 6.27955e-06)
(-0.000550828 -8.22478e-05 4.81031e-06)
(-0.000406146 -6.96939e-05 3.54704e-06)
(-0.000282959 -5.82952e-05 2.47146e-06)
(-0.000180063 -4.73526e-05 1.57313e-06)
(-9.76005e-05 -3.60828e-05 8.53051e-07)
(-3.6777e-05 -2.39268e-05 3.2184e-07)
(6.93474e-09 -1.10331e-05 3.68028e-10)
(1.23983e-05 4.8351e-07 -1.0836e-07)
(4.71408e-06 5.44651e-06 -4.49163e-08)
(-0.105156 -0.0391255 0.000917932)
(-0.0918733 -0.0303031 0.000801984)
(-0.0801376 -0.0235847 0.000699547)
(-0.0699915 -0.0184265 0.000610982)
(-0.0612035 -0.0144904 0.00053427)
(-0.0536366 -0.0114732 0.000468219)
(-0.0471134 -0.00915948 0.000411276)
(-0.0414852 -0.00737721 0.000362145)
(-0.0366152 -0.00599902 0.000319633)
(-0.0323856 -0.00492709 0.00028271)
(-0.0286964 -0.00408811 0.000250507)
(-0.0254628 -0.0034265 0.00022228)
(-0.022615 -0.00290027 0.000197421)
(-0.0200947 -0.0024776 0.000175418)
(-0.0178544 -0.00213435 0.000155862)
(-0.0158548 -0.00185222 0.000138407)
(-0.0140641 -0.00161734 0.000122775)
(-0.0124559 -0.00141918 0.000108738)
(-0.0110089 -0.00124978 9.6106e-05)
(-0.00970531 -0.00110315 8.47258e-05)
(-0.0085304 -0.000974761 7.44701e-05)
(-0.00747184 -0.000861257 6.5229e-05)
(-0.00651925 -0.000760154 5.69144e-05)
(-0.00566343 -0.000669618 4.94426e-05)
(-0.00489633 -0.000588303 4.27468e-05)
(-0.00421071 -0.000515226 3.67612e-05)
(-0.00359985 -0.000449636 3.14288e-05)
(-0.00305762 -0.000390963 2.66955e-05)
(-0.00257796 -0.00033871 2.25075e-05)
(-0.00215523 -0.000292431 1.88177e-05)
(-0.00178407 -0.000251708 1.55771e-05)
(-0.00145931 -0.000216104 1.27417e-05)
(-0.00117611 -0.000185151 1.02695e-05)
(-0.000929914 -0.000158322 8.11999e-06)
(-0.000716692 -0.000135008 6.25869e-06)
(-0.000533013 -0.000114478 4.65494e-06)
(-0.000376269 -9.58177e-05 3.2864e-06)
(-0.000244955 -7.79312e-05 2.13995e-06)
(-0.000139122 -5.96144e-05 1.21581e-06)
(-6.00583e-05 -4.00144e-05 5.25315e-07)
(-1.03688e-05 -1.93719e-05 9.11077e-08)
(9.6855e-06 -9.26167e-07 -8.45801e-08)
(4.74227e-06 7.57811e-06 -4.48711e-08)
(-0.104919 -0.0444964 0.000915836)
(-0.0934819 -0.0354528 0.000816007)
(-0.0830415 -0.0282935 0.00072488)
(-0.0737113 -0.022615 0.000643441)
(-0.0654009 -0.0181468 0.000570901)
(-0.0580547 -0.0146298 0.000506778)
(-0.0515745 -0.0118672 0.000450213)
(-0.0458661 -0.0096942 0.000400383)
(-0.0408358 -0.00798228 0.000356473)
(-0.0363955 -0.00662892 0.000317711)
(-0.0324671 -0.00555434 0.000283421)
(-0.0289805 -0.00469611 0.000252986)
(-0.025876 -0.00400571 0.000225887)
(-0.0231018 -0.00344554 0.000201668)
(-0.0206148 -0.00298644 0.000179958)
(-0.0183781 -0.00260591 0.000160434)
(-0.0163616 -0.00228667 0.000142831)
(-0.0145398 -0.0020154 0.000126929)
(-0.0128917 -0.00178197 0.000112541)
(-0.0113995 -0.00157862 9.95156e-05)
(-0.0100486 -0.00139955 8.77239e-05)
(-0.00882645 -0.00124037 7.70546e-05)
(-0.00772233 -0.00109788 6.74172e-05)
(-0.00672674 -0.000969683 5.87253e-05)
(-0.00583124 -0.000854061 5.09087e-05)
(-0.00502818 -0.000749746 4.38978e-05)
(-0.00431037 -0.000655781 3.76319e-05)
(-0.0036712 -0.000571441 3.20524e-05)
(-0.00310407 -0.000496089 2.71009e-05)
(-0.00260276 -0.000429152 2.27251e-05)
(-0.00216133 -0.00037008 1.8871e-05)
(-0.001774 -0.000318284 1.54893e-05)
(-0.00143532 -0.000273125 1.25328e-05)
(-0.00114014 -0.000233872 9.95561e-06)
(-0.000883865 -0.000199667 7.71845e-06)
(-0.000662575 -0.00016948 5.78636e-06)
(-0.000473256 -0.000142015 4.13341e-06)
(-0.00031412 -0.000115728 2.74405e-06)
(-0.000185103 -8.89399e-05 1.61749e-06)
(-8.75031e-05 -6.04697e-05 7.65133e-07)
(-2.40528e-05 -3.06712e-05 2.10737e-07)
(5.06911e-06 -3.96734e-06 -4.41437e-08)
(4.46503e-06 9.18672e-06 -4.17484e-08)
(-0.100815 -0.0476177 0.000879995)
(-0.0915976 -0.0388326 0.000799545)
(-0.0828395 -0.0316636 0.000723104)
(-0.0747143 -0.0258258 0.000652187)
(-0.0672461 -0.0211106 0.000587)
(-0.060454 -0.0173116 0.000527716)
(-0.0543136 -0.0142615 0.000474117)
(-0.0487847 -0.0118146 0.000425856)
(-0.0438181 -0.00985213 0.000382503)
(-0.039359 -0.00827553 0.000343578)
(-0.0353544 -0.0070054 0.000308623)
(-0.0317528 -0.00597765 0.000277185)
(-0.0285082 -0.00514102 0.000248862)
(-0.0255786 -0.00445482 0.000223287)
(-0.0229279 -0.00388683 0.00020015)
(-0.0205247 -0.00341171 0.000179172)
(-0.0183422 -0.00300968 0.00016012)
(-0.0163576 -0.00266533 0.000142797)
(-0.0145515 -0.00236676 0.000127031)
(-0.0129078 -0.00210486 0.000112682)
(-0.0114124 -0.0018727 9.96287e-05)
(-0.0100534 -0.00166509 8.77652e-05)
(-0.00882056 -0.00147822 7.70045e-05)
(-0.0077046 -0.00130925 6.72619e-05)
(-0.00669714 -0.00115615 5.8468e-05)
(-0.0057905 -0.00101744 5.05531e-05)
(-0.0049774 -0.000892014 4.34552e-05)
(-0.00425102 -0.000779032 3.71144e-05)
(-0.00360447 -0.000677753 3.14696e-05)
(-0.00303122 -0.000587504 2.64658e-05)
(-0.00252494 -0.000507619 2.20455e-05)
(-0.00207941 -0.000437369 1.81559e-05)
(-0.00168878 -0.000375944 1.47458e-05)
(-0.0013474 -0.000322401 1.17654e-05)
(-0.00105026 -0.000275622 9.17144e-06)
(-0.000793038 -0.000234246 6.92561e-06)
(-0.000572366 -0.000196569 4.99894e-06)
(-0.000386212 -0.000160552 3.37369e-06)
(-0.00023438 -0.000124007 2.04794e-06)
(-0.000118134 -8.53928e-05 1.03276e-06)
(-4.02888e-05 -4.51856e-05 3.52656e-07)
(-9.92461e-07 -8.98068e-06 8.9401e-09)
(3.98099e-06 1.00252e-05 -3.65196e-08)
(-0.0954284 -0.0485079 0.000832961)
(-0.0880549 -0.0404371 0.000768607)
(-0.0808254 -0.0336505 0.000705511)
(-0.0739097 -0.0279793 0.000645153)
(-0.0673784 -0.0232808 0.000588145)
(-0.0612853 -0.019409 0.000534964)
(-0.0556488 -0.0162337 0.000485766)
(-0.0504659 -0.0136372 0.000440526)
(-0.0457211 -0.0115177 0.00039911)
(-0.0413877 -0.00978763 0.000361284)
(-0.037436 -0.00837334 0.000326791)
(-0.0338331 -0.00721355 0.000295342)
(-0.0305473 -0.00625777 0.000266661)
(-0.0275483 -0.00546488 0.00024048)
(-0.0248083 -0.00480158 0.000216563)
(-0.0223026 -0.0042412 0.000194691)
(-0.0200093 -0.00376257 0.000174673)
(-0.0179094 -0.00334899 0.000156343)
(-0.0159866 -0.00298741 0.000139558)
(-0.0142266 -0.00266776 0.000124194)
(-0.0126172 -0.00238238 0.000110146)
(-0.0111476 -0.00212548 9.73176e-05)
(-0.00980869 -0.00189284 8.56305e-05)
(-0.0085917 -0.00168135 7.50061e-05)
(-0.00748882 -0.00148875 6.53793e-05)
(-0.0064927 -0.00131348 5.66832e-05)
(-0.00559623 -0.00115434 4.88577e-05)
(-0.00479269 -0.00101045 4.18433e-05)
(-0.00407516 -0.00088102 3.55789e-05)
(-0.00343697 -0.000765309 3.00083e-05)
(-0.00287163 -0.00066257 2.50725e-05)
(-0.00237268 -0.000571953 2.07164e-05)
(-0.00193394 -0.000492491 1.68864e-05)
(-0.00154949 -0.00042303 1.35299e-05)
(-0.00121396 -0.000362186 1.06008e-05)
(-0.000922724 -0.000308257 8.05805e-06)
(-0.000672147 -0.000259103 5.87031e-06)
(-0.000459974 -0.000212167 4.0179e-06)
(-0.000285879 -0.00016472 2.49777e-06)
(-0.000151064 -0.000114834 1.32046e-06)
(-5.84115e-05 -6.30971e-05 5.11054e-07)
(-8.11569e-06 -1.62372e-05 7.13158e-08)
(3.35936e-06 9.90898e-06 -2.98748e-08)
(-0.0887436 -0.0479563 0.000774601)
(-0.083132 -0.0407231 0.000725626)
(-0.0774009 -0.0344965 0.000675609)
(-0.0717186 -0.0291828 0.000626018)
(-0.0661833 -0.0246842 0.000577706)
(-0.0608757 -0.0209025 0.000531382)
(-0.0558446 -0.0177406 0.000487469)
(-0.0511163 -0.0151083 0.000446198)
(-0.0467023 -0.0129232 0.00040767)
(-0.0425995 -0.0111114 0.000371859)
(-0.038799 -0.00960868 0.000338686)
(-0.0352846 -0.00835962 0.00030801)
(-0.032039 -0.00731719 0.00027968)
(-0.0290428 -0.00644208 0.000253525)
(-0.0262777 -0.00570173 0.000229389)
(-0.023726 -0.00506957 0.000207116)
(-0.0213717 -0.00452414 0.000186565)
(-0.0192001 -0.00404828 0.00016761)
(-0.0171986 -0.00362847 0.000150138)
(-0.0153556 -0.00325419 0.00013405)
(-0.0136612 -0.00291739 0.000119259)
(-0.0121063 -0.00261203 0.000105686)
(-0.0106832 -0.00233369 9.32644e-05)
(-0.00938415 -0.00207914 8.1924e-05)
(-0.00820223 -0.00184612 7.16072e-05)
(-0.0071307 -0.00163304 6.22529e-05)
(-0.0061629 -0.00143874 5.38047e-05)
(-0.00529245 -0.00126236 4.62064e-05)
(-0.0045126 -0.00110313 3.9398e-05)
(-0.00381678 -0.000960306 3.33241e-05)
(-0.00319847 -0.000833088 2.79259e-05)
(-0.00265113 -0.000720542 2.31475e-05)
(-0.00216845 -0.000621563 1.89339e-05)
(-0.0017443 -0.000534799 1.52308e-05)
(-0.00137311 -0.000458604 1.19904e-05)
(-0.00105003 -0.000390928 9.16967e-06)
(-0.000771205 -0.000329187 6.73535e-06)
(-0.000534206 -0.000270286 4.6662e-06)
(-0.000338583 -0.000210933 2.95812e-06)
(-0.000185468 -0.000148791 1.62104e-06)
(-7.78205e-05 -8.4528e-05 6.80682e-07)
(-1.59687e-05 -2.59344e-05 1.40079e-07)
(2.65239e-06 8.7119e-06 -2.23416e-08)
(-0.0820157 -0.0460693 0.000715865)
(-0.0777775 -0.0398234 0.000678879)
(-0.0732908 -0.0343169 0.000639724)
(-0.0686976 -0.0295169 0.00059964)
(-0.0640919 -0.0253657 0.000559443)
(-0.05956 -0.0218071 0.000519891)
(-0.0551613 -0.0187754 0.000481499)
(-0.0509378 -0.016207 0.000444635)
(-0.0469175 -0.0140394 0.000409545)
(-0.0431142 -0.0122143 0.000376348)
(-0.0395344 -0.0106785 0.000345103)
(-0.0361762 -0.00938422 0.00031579)
(-0.0330343 -0.00828994 0.000288367)
(-0.0301 -0.00735986 0.000262752)
(-0.0273636 -0.0065636 0.000238866)
(-0.0248145 -0.00587591 0.000216616)
(-0.0224427 -0.00527605 0.000195913)
(-0.0202384 -0.00474722 0.000176672)
(-0.0181927 -0.00427607 0.000158815)
(-0.0162973 -0.00385212 0.00014227)
(-0.014545 -0.00346737 0.000126974)
(-0.0129287 -0.00311581 0.000112865)
(-0.0114423 -0.00279309 9.98909e-05)
(-0.0100795 -0.0024961 8.79943e-05)
(-0.00883454 -0.00222269 7.7127e-05)
(-0.00770145 -0.0019714 6.72354e-05)
(-0.00667429 -0.00174122 5.82692e-05)
(-0.00574722 -0.00153142 5.01765e-05)
(-0.00491383 -0.00134131 4.29008e-05)
(-0.00416783 -0.00117019 3.63889e-05)
(-0.00350284 -0.00101728 3.05832e-05)
(-0.00291238 -0.000881582 2.54284e-05)
(-0.00239014 -0.000761897 2.08695e-05)
(-0.00192991 -0.000656691 1.68514e-05)
(-0.00152601 -0.000564063 1.33255e-05)
(-0.00117345 -0.000481626 1.02474e-05)
(-0.000868237 -0.000406345 7.58267e-06)
(-0.000607785 -0.000334579 5.30877e-06)
(-0.000391549 -0.000262458 3.42073e-06)
(-0.000220595 -0.000187208 1.9279e-06)
(-9.79795e-05 -0.000109539 8.56861e-07)
(-2.42645e-05 -3.81984e-05 2.12718e-07)
(1.90231e-06 6.35253e-06 -1.43454e-08)
(-0.0686706 -0.0333638 0.000599389)
(-0.0650768 -0.0291428 0.000568028)
(-0.0613446 -0.0254234 0.000535456)
(-0.057564 -0.0221771 0.000502462)
(-0.0537982 -0.0193627 0.000469596)
(-0.0500994 -0.0169382 0.000437312)
(-0.0465061 -0.0148591 0.00040595)
(-0.0430441 -0.0130816 0.000375732)
(-0.0397316 -0.0115638 0.00034682)
(-0.0365778 -0.0102668 0.000319293)
(-0.0335876 -0.0091554 0.000293194)
(-0.0307614 -0.00819837 0.000268523)
(-0.0280972 -0.00736865 0.000245269)
(-0.0255913 -0.00664325 0.000223395)
(-0.0232393 -0.00600299 0.000202865)
(-0.0210362 -0.00543214 0.000183635)
(-0.0189771 -0.00491807 0.000165662)
(-0.0170571 -0.00445086 0.000148902)
(-0.0152717 -0.00402292 0.000133317)
(-0.0136161 -0.00362861 0.000118865)
(-0.0120861 -0.00326393 0.00010551)
(-0.010677 -0.00292605 9.32097e-05)
(-0.00938425 -0.00261314 8.19256e-05)
(-0.00820304 -0.00232402 7.16141e-05)
(-0.00712825 -0.00205792 6.2232e-05)
(-0.0061547 -0.00181435 5.37338e-05)
(-0.00527654 -0.00159278 4.60673e-05)
(-0.00448787 -0.00139264 3.91829e-05)
(-0.00378259 -0.00121321 3.30256e-05)
(-0.00315443 -0.00105348 2.75416e-05)
(-0.00259718 -0.000912189 2.26771e-05)
(-0.00210465 -0.000787642 1.83771e-05)
(-0.00167116 -0.000677711 1.45929e-05)
(-0.00129167 -0.000579676 1.12796e-05)
(-0.000962072 -0.00049006 8.40205e-06)
(-0.000679702 -0.000404675 5.93682e-06)
(-0.00044393 -0.00031906 3.87824e-06)
(-0.000255774 -0.00022998 2.23523e-06)
(-0.000118422 -0.000138131 1.03551e-06)
(-3.27617e-05 -5.30895e-05 2.87119e-07)
(1.1409e-06 2.78517e-06 -6.21032e-09)
(-0.063913 -0.0317644 0.000557857)
(-0.0611633 -0.0281693 0.000533863)
(-0.0581997 -0.0249409 0.000508)
(-0.0551051 -0.0220712 0.000480994)
(-0.0519385 -0.0195395 0.000453358)
(-0.0487542 -0.0173218 0.000425566)
(-0.0455951 -0.0153891 0.000397994)
(-0.0424935 -0.0137112 0.000370923)
(-0.0394753 -0.012257 0.000344581)
(-0.0365578 -0.0109962 0.000319115)
(-0.0337534 -0.00990049 0.000294639)
(-0.03107 -0.00894385 0.000271215)
(-0.0285123 -0.00810318 0.00024889)
(-0.0260824 -0.00735844 0.000227681)
(-0.0237812 -0.00669263 0.000207595)
(-0.0216083 -0.00609164 0.000188629)
(-0.0195627 -0.00554411 0.000170772)
(-0.0176426 -0.00504106 0.000154012)
(-0.0158464 -0.00457569 0.000138334)
(-0.0141717 -0.00414303 0.000123715)
(-0.0126163 -0.00373965 0.000110139)
(-0.0111772 -0.00336325 9.75758e-05)
(-0.00985118 -0.00301246 8.60016e-05)
(-0.00863469 -0.00268654 7.53822e-05)
(-0.00752358 -0.0023851 6.56831e-05)
(-0.00651347 -0.00210796 5.68657e-05)
(-0.00559916 -0.00185484 4.88837e-05)
(-0.00477526 -0.00162538 4.16918e-05)
(-0.0040361 -0.00141896 3.52388e-05)
(-0.0033757 -0.00123464 2.94734e-05)
(-0.00278806 -0.00107111 2.43436e-05)
(-0.00226714 -0.000926562 1.97958e-05)
(-0.0018073 -0.000798659 1.57815e-05)
(-0.00140353 -0.000684368 1.22564e-05)
(-0.0010517 -0.000579783 9.18472e-06)
(-0.000749084 -0.000480168 6.54272e-06)
(-0.000494997 -0.000380467 4.32424e-06)
(-0.000290434 -0.000276957 2.538e-06)
(-0.000138754 -0.000170254 1.2132e-06)
(-4.1263e-05 -7.06156e-05 3.61556e-07)
(3.91105e-07 -2.0026e-06 1.82465e-09)
(-0.0590782 -0.0297071 0.000515651)
(-0.0570689 -0.0267356 0.000498119)
(-0.0547918 -0.024019 0.000478248)
(-0.0523229 -0.0215607 0.000456704)
(-0.0497158 -0.0193541 0.000433951)
(-0.047024 -0.0173884 0.000410459)
(-0.0442917 -0.0156471 0.000386613)
(-0.0415547 -0.0141111 0.000362725)
(-0.0388435 -0.012759 0.000339063)
(-0.0361808 -0.0115687 0.000315822)
(-0.0335848 -0.0105185 0.000293165)
(-0.0310689 -0.00958782 0.000271204)
(-0.0286434 -0.00875782 0.000250033)
(-0.0263154 -0.00801181 0.000229713)
(-0.0240903 -0.00733542 0.000210291)
(-0.0219717 -0.0067166 0.0001918)
(-0.0199623 -0.0061456 0.00017426)
(-0.0180635 -0.00561479 0.000157685)
(-0.0162762 -0.00511843 0.000142085)
(-0.0146005 -0.0046525 0.000127458)
(-0.0130363 -0.00421437 0.000113805)
(-0.0115822 -0.00380247 0.000101111)
(-0.0102364 -0.00341605 8.93645e-05)
(-0.00899677 -0.00305493 7.85428e-05)
(-0.00786009 -0.00271922 6.86206e-05)
(-0.00682293 -0.00240918 5.95671e-05)
(-0.00588081 -0.00212486 5.13425e-05)
(-0.00502898 -0.00186615 4.39068e-05)
(-0.00426227 -0.00163264 3.72133e-05)
(-0.00357506 -0.00142347 3.12139e-05)
(-0.00296169 -0.00123733 2.58594e-05)
(-0.0024163 -0.00107235 2.1098e-05)
(-0.00193343 -0.000926003 1.68827e-05)
(-0.00150813 -0.000794974 1.31696e-05)
(-0.0011363 -0.000674936 9.92344e-06)
(-0.000815207 -0.00056062 7.12015e-06)
(-0.00054414 -0.000446372 4.75345e-06)
(-0.000324099 -0.000327946 2.83209e-06)
(-0.000158655 -0.000205812 1.38711e-06)
(-4.96127e-05 -9.07407e-05 4.34665e-07)
(-3.31068e-07 -7.99715e-06 9.5907e-09)
(-0.0543554 -0.0272903 0.000474424)
(-0.0529589 -0.0249339 0.000462241)
(-0.0512689 -0.0227366 0.000447494)
(-0.0493508 -0.020709 0.000430757)
(-0.04725 -0.0188548 0.000412424)
(-0.0450157 -0.0171727 0.000392926)
(-0.0426902 -0.0156562 0.000372631)
(-0.0403098 -0.0142954 0.000351855)
(-0.0379067 -0.013077 0.000330883)
(-0.0355068 -0.0119863 0.000309936)
(-0.0331321 -0.0110078 0.000289211)
(-0.0308001 -0.0101262 0.000268855)
(-0.0285251 -0.0093269 0.000248998)
(-0.0263183 -0.00859681 0.000229737)
(-0.024189 -0.0079244 0.000211152)
(-0.0221444 -0.00729997 0.000193306)
(-0.0201902 -0.00671568 0.000176249)
(-0.0183308 -0.00616548 0.000160018)
(-0.0165697 -0.00564499 0.000144646)
(-0.0149091 -0.00515133 0.000130151)
(-0.0133508 -0.0046829 0.00011655)
(-0.0118953 -0.004239 0.000103844)
(-0.0105422 -0.00381967 9.20338e-05)
(-0.00929064 -0.00342544 8.1108e-05)
(-0.00813849 -0.003057 7.10508e-05)
(-0.00708329 -0.00271514 6.18399e-05)
(-0.00612137 -0.00240033 5.34424e-05)
(-0.00524864 -0.00211281 4.58244e-05)
(-0.00446051 -0.0018524 3.89439e-05)
(-0.00375184 -0.00161839 3.27571e-05)
(-0.00311731 -0.00140953 2.72181e-05)
(-0.00255139 -0.0012239 2.22774e-05)
(-0.0020488 -0.00105883 1.789e-05)
(-0.00160476 -0.000910749 1.40133e-05)
(-0.00121523 -0.000774927 1.06126e-05)
(-0.000877501 -0.000645576 7.66412e-06)
(-0.000590879 -0.00051644 5.16165e-06)
(-0.000356396 -0.000382725 3.11421e-06)
(-0.000177875 -0.000244672 1.55507e-06)
(-5.76937e-05 -0.000113393 5.05421e-07)
(-1.01538e-06 -1.5165e-05 1.69766e-08)
(-0.0497539 -0.024643 0.000434257)
(-0.0488819 -0.0228688 0.000426651)
(-0.0477022 -0.0211773 0.000416359)
(-0.0462709 -0.0195819 0.00040387)
(-0.0446261 -0.0180919 0.000389518)
(-0.0428121 -0.0167122 0.000373688)
(-0.0408681 -0.0154434 0.000356722)
(-0.038829 -0.0142823 0.000338926)
(-0.0367273 -0.0132224 0.000320585)
(-0.0345903 -0.0122552 0.000301934)
(-0.0324423 -0.0113707 0.000283187)
(-0.0303033 -0.0105584 0.000264517)
(-0.0281909 -0.00980786 0.000246079)
(-0.0261192 -0.00910956 0.000227998)
(-0.0241007 -0.00845488 0.00021038)
(-0.0221454 -0.00783663 0.000193313)
(-0.0202618 -0.00724904 0.000176873)
(-0.018457 -0.00668787 0.000161119)
(-0.0167365 -0.00615027 0.000146102)
(-0.0151049 -0.0056347 0.00013186)
(-0.0135657 -0.00514072 0.000118425)
(-0.0121209 -0.00466869 0.000105813)
(-0.0107718 -0.00421955 9.40377e-05)
(-0.00951859 -0.00379464 8.30977e-05)
(-0.00836034 -0.00339538 7.29873e-05)
(-0.00729553 -0.00302314 6.36925e-05)
(-0.00632134 -0.00267891 5.5188e-05)
(-0.0054344 -0.00236331 4.7446e-05)
(-0.00463075 -0.00207647 4.043e-05)
(-0.00390576 -0.00181789 3.41009e-05)
(-0.00325457 -0.00158643 2.84163e-05)
(-0.00267197 -0.00138014 2.33301e-05)
(-0.00215296 -0.00119625 1.87994e-05)
(-0.00169294 -0.00103095 1.47833e-05)
(-0.00128803 -0.000879156 1.12482e-05)
(-0.000935546 -0.000734564 8.17099e-06)
(-0.000634854 -0.000590318 5.54569e-06)
(-0.000387044 -0.000441044 3.38193e-06)
(-0.00019623 -0.000286669 1.71547e-06)
(-6.54237e-05 -0.000138472 5.73105e-07)
(-1.6562e-06 -2.34583e-05 2.39188e-08)
(-0.0453726 -0.0218313 0.000396013)
(-0.044927 -0.0206076 0.000392128)
(-0.0441755 -0.0194038 0.000385573)
(-0.0431632 -0.018234 0.000376742)
(-0.0419205 -0.0171109 0.000365899)
(-0.0404852 -0.0160432 0.000353374)
(-0.0388921 -0.0150364 0.000339472)
(-0.0371734 -0.0140922 0.000324473)
(-0.0353605 -0.0132094 0.000308651)
(-0.0334804 -0.0123846 0.000292243)
(-0.0315584 -0.0116124 0.00027547)
(-0.0296161 -0.0108866 0.000258516)
(-0.0276729 -0.0102007 0.000241556)
(-0.0257453 -0.00954845 0.000224733)
(-0.0238481 -0.00892415 0.000208174)
(-0.0219937 -0.00832312 0.000191989)
(-0.020193 -0.00774183 0.000176271)
(-0.0184549 -0.0071779 0.0001611)
(-0.0167874 -0.00663019 0.000146545)
(-0.0151965 -0.00609859 0.000132659)
(-0.0136877 -0.00558401 0.00011949)
(-0.0122644 -0.00508793 0.000107066)
(-0.0109293 -0.00461235 9.54119e-05)
(-0.00968372 -0.00415951 8.45389e-05)
(-0.0085279 -0.0037316 7.44498e-05)
(-0.00746126 -0.00333072 6.51391e-05)
(-0.00648183 -0.00295839 5.65888e-05)
(-0.00558697 -0.00261572 4.87777e-05)
(-0.00477338 -0.00230319 4.16751e-05)
(-0.00403701 -0.00202054 3.52466e-05)
(-0.00337345 -0.00176678 2.94541e-05)
(-0.0027779 -0.00154 2.42549e-05)
(-0.00224568 -0.00133736 1.96088e-05)
(-0.00177242 -0.00115485 1.54772e-05)
(-0.00135441 -0.000987023 1.18279e-05)
(-0.000989068 -0.000827104 8.63836e-06)
(-0.000675821 -0.000667637 5.90347e-06)
(-0.000415853 -0.000502632 3.63358e-06)
(-0.000213598 -0.000331619 1.86724e-06)
(-7.27522e-05 -0.000165858 6.37273e-07)
(-2.25195e-06 -3.28208e-05 3.03957e-08)
(-0.0412018 -0.0189423 0.000359607)
(-0.0411127 -0.0182244 0.000358833)
(-0.0407253 -0.0174788 0.000355456)
(-0.0400753 -0.0167182 0.000349786)
(-0.0391862 -0.0159555 0.00034203)
(-0.0380899 -0.0152012 0.000332464)
(-0.0368163 -0.0144631 0.000321351)
(-0.0353946 -0.0137465 0.000308944)
(-0.033854 -0.0130539 0.000295499)
(-0.0322205 -0.0123856 0.000281244)
(-0.0305194 -0.0117403 0.000266399)
(-0.0287728 -0.0111153 0.000251154)
(-0.0270013 -0.0105075 0.000235693)
(-0.0252229 -0.00991373 0.000220171)
(-0.0234539 -0.00933114 0.000204731)
(-0.0217087 -0.0087575 0.000189499)
(-0.0199998 -0.00819146 0.000174584)
(-0.0183382 -0.00763262 0.000160081)
(-0.0167334 -0.00708158 0.000146073)
(-0.0151932 -0.00653981 0.000132629)
(-0.0137243 -0.00600959 0.000119809)
(-0.0123318 -0.00549367 0.000107653)
(-0.0110194 -0.00499518 9.61984e-05)
(-0.0097898 -0.00451733 8.54645e-05)
(-0.0086441 -0.0040632 7.54638e-05)
(-0.0075827 -0.00363563 6.6199e-05)
(-0.00660447 -0.00323678 5.76593e-05)
(-0.00570752 -0.00286827 4.983e-05)
(-0.00488922 -0.00253098 4.26862e-05)
(-0.00414608 -0.00222497 3.61988e-05)
(-0.00347424 -0.00194942 3.0334e-05)
(-0.00286931 -0.0017025 2.50529e-05)
(-0.00232697 -0.00148133 2.03185e-05)
(-0.00184313 -0.00128172 1.60945e-05)
(-0.00141426 -0.00109794 1.23504e-05)
(-0.00103793 -0.000922721 9.06501e-06)
(-0.000713649 -0.000748023 6.23382e-06)
(-0.000442719 -0.000567208 3.86825e-06)
(-0.000229914 -0.000379321 2.00982e-06)
(-7.96572e-05 -0.000195421 6.97732e-07)
(-2.8046e-06 -4.31914e-05 3.64216e-08)
(-0.0372919 -0.0160201 0.000325478)
(-0.0374868 -0.0157669 0.000327183)
(-0.037399 -0.0154493 0.00032642)
(-0.0370548 -0.0150778 0.00032342)
(-0.0364713 -0.0146639 0.00031833)
(-0.0356737 -0.0142185 0.000311371)
(-0.0346871 -0.0137503 0.000302764)
(-0.033537 -0.0132666 0.000292727)
(-0.0322495 -0.0127723 0.000281493)
(-0.0308493 -0.0122706 0.000269274)
(-0.0293605 -0.0117631 0.000256281)
(-0.0278052 -0.0112502 0.000242706)
(-0.0262043 -0.0107317 0.000228734)
(-0.0245765 -0.0102071 0.000214528)
(-0.0229395 -0.00967619 0.00020024)
(-0.0213087 -0.00913905 0.000186007)
(-0.0196982 -0.00859648 0.00017195)
(-0.0181204 -0.00805006 0.000158178)
(-0.016586 -0.00750215 0.000144786)
(-0.0151044 -0.00695584 0.000131853)
(-0.0136835 -0.0064149 0.000119452)
(-0.0123296 -0.00588337 0.000107633)
(-0.0110476 -0.00536558 9.64437e-05)
(-0.00984113 -0.00486579 8.59122e-05)
(-0.00871237 -0.00438801 7.60595e-05)
(-0.00766255 -0.00393588 6.68958e-05)
(-0.00669136 -0.00351226 5.84176e-05)
(-0.00579765 -0.00311932 5.06165e-05)
(-0.00497943 -0.00275841 4.34736e-05)
(-0.00423385 -0.00242992 3.69649e-05)
(-0.00355754 -0.00213324 3.10611e-05)
(-0.00294659 -0.00186668 2.57275e-05)
(-0.00239706 -0.00162733 2.09304e-05)
(-0.00190517 -0.00141089 1.66361e-05)
(-0.00146761 -0.00121133 1.28163e-05)
(-0.00108212 -0.00102094 9.45083e-06)
(-0.000748303 -0.000831102 6.53645e-06)
(-0.000467609 -0.000634486 4.08566e-06)
(-0.000245164 -0.000429567 2.14308e-06)
(-8.6142e-05 -0.00022702 7.54512e-07)
(-3.31918e-06 -5.45085e-05 4.20429e-08)
(-0.0336278 -0.0131208 0.000293495)
(-0.0340534 -0.0132853 0.000297213)
(-0.0342139 -0.0133603 0.000298618)
(-0.0341284 -0.0133526 0.000297875)
(-0.0338079 -0.0132711 0.000295081)
(-0.0332722 -0.013125 0.000290408)
(-0.0325415 -0.0129231 0.000284033)
(-0.0316372 -0.012673 0.000276143)
(-0.0305828 -0.0123811 0.000266942)
(-0.0294004 -0.0120524 0.000256625)
(-0.028113 -0.0116905 0.00024539)
(-0.0267419 -0.0112983 0.000233423)
(-0.0253076 -0.010878 0.000220906)
(-0.0238295 -0.0104315 0.000208006)
(-0.0223255 -0.00996073 0.000194879)
(-0.020812 -0.00946808 0.00018167)
(-0.019304 -0.00895636 0.000168508)
(-0.0178149 -0.00842907 0.000155511)
(-0.0163568 -0.00789034 0.000142784)