/*--------------------------------*- C++ -*----------------------------------*\
| =========                 |                                                 |
| \\      /  F ield         | OpenFOAM: The Open Source CFD Toolbox           |
|  \\    /   O peration     | Version:  v2012                                 |
|   \\  /    A nd           | Website:  www.openfoam.com                      |
|    \\/     M anipulation  |                                                 |
\*---------------------------------------------------------------------------*/
FoamFile
{
    version     2.0;
    format      ascii;
    class       volVectorField;
    location    "0.55";
    object      U;
}
// * * * * * * * * * * * * * * * * * * * * * * * * * * * * * * * * * * * * * //

dimensions      [0 1 -1 0 0 0 0];


internalField   nonuniform List<vector> 
3332
(
(1.18828e-05 -0.00424192 -1.03768e-07)
(0.000258709 -0.012707 -2.25804e-06)
(0.00078384 -0.021257 -6.84054e-06)
(0.00155428 -0.0291052 -1.3565e-05)
(0.00254907 -0.0362299 -2.22457e-05)
(0.00373266 -0.0426911 -3.25764e-05)
(0.00510233 -0.0485365 -4.45279e-05)
(0.0066338 -0.0538091 -5.78951e-05)
(1.40714e-05 -0.00464949 -1.22962e-07)
(0.000294385 -0.013852 -2.56913e-06)
(0.000884711 -0.023086 -7.72143e-06)
(0.00173763 -0.0315178 -1.51642e-05)
(0.00284327 -0.0391429 -2.48144e-05)
(0.00415822 -0.0460317 -3.62885e-05)
(0.00566855 -0.0522323 -4.94716e-05)
(0.00734864 -0.057798 -6.4132e-05)
(0.0091779 -0.0627586 -8.00991e-05)
(0.0111405 -0.0671301 -9.72241e-05)
(0.0132163 -0.0709246 -0.000115343)
(0.0153609 -0.0741506 -0.000134057)
(0.0175472 -0.0768257 -0.000153141)
(0.0197675 -0.0789544 -0.000172516)
(0.0219879 -0.0805387 -0.000191899)
(1.63796e-05 -0.00510562 -1.43042e-07)
(0.000335856 -0.0151267 -2.93137e-06)
(0.00100373 -0.0251251 -8.75946e-06)
(0.00196158 -0.0342113 -1.71198e-05)
(0.003192 -0.0423933 -2.78562e-05)
(0.00465119 -0.0497528 -4.05929e-05)
(0.00632887 -0.0563503 -5.5232e-05)
(0.00818565 -0.0622374 -7.14392e-05)
(0.0102033 -0.0674476 -8.90449e-05)
(0.0123554 -0.0720071 -0.000107831)
(0.0146234 -0.0759361 -0.00012762)
(0.0169642 -0.0792439 -0.000148053)
(0.0193384 -0.0819406 -0.000168771)
(0.0217404 -0.0840372 -0.000189739)
(0.0241294 -0.0855379 -0.000210587)
(1.96116e-05 -0.00563903 -1.7128e-07)
(0.000382209 -0.0165935 -3.3355e-06)
(0.00113445 -0.0274443 -9.90109e-06)
(0.00220924 -0.0372537 -1.92797e-05)
(0.00358431 -0.0460461 -3.1282e-05)
(0.00521129 -0.0539168 -4.54786e-05)
(0.00707302 -0.0609367 -6.17291e-05)
(0.00913138 -0.0671697 -7.96897e-05)
(0.0113588 -0.072648 -9.91325e-05)
(0.0137251 -0.0774097 -0.00011978)
(0.0162104 -0.081467 -0.000141474)
(0.018764 -0.0848415 -0.000163757)
(0.0213447 -0.0875405 -0.000186285)
(0.0239424 -0.0895805 -0.000208954)
(0.0265138 -0.0909686 -0.000231401)
(2.33406e-05 -0.0062334 -2.0372e-07)
(0.000438564 -0.018226 -3.82777e-06)
(0.00129398 -0.0300256 -1.12923e-05)
(0.00250801 -0.0406375 -2.18888e-05)
(0.00405082 -0.0501019 -3.5351e-05)
(0.00586906 -0.0585342 -5.12219e-05)
(0.00794082 -0.0660164 -6.92994e-05)
(0.0102231 -0.0726199 -8.92213e-05)
(0.012685 -0.0783869 -0.000110703)
(0.0152905 -0.0833542 -0.000133447)
(0.018016 -0.0875428 -0.000157229)
(0.0208048 -0.0909727 -0.000181573)
(0.0236107 -0.0936581 -0.000206058)
(0.0264192 -0.0956153 -0.000230575)
(0.0291824 -0.0968598 -0.000254688)
(2.86319e-05 -0.00694287 -2.49991e-07)
(0.000503554 -0.0201329 -4.39443e-06)
(0.00146977 -0.0329998 -1.28277e-05)
(0.00283779 -0.0445012 -2.47648e-05)
(0.00457004 -0.054704 -3.98849e-05)
(0.00660372 -0.0637455 -5.76302e-05)
(0.00891358 -0.0717222 -7.77926e-05)
(0.0114496 -0.0787162 -9.99209e-05)
(0.0141761 -0.0847764 -0.000123721)
(0.0170504 -0.0899465 -0.000148801)
(0.0200444 -0.0942511 -0.000174936)
(0.0230939 -0.0977155 -0.000201547)
(0.026149 -0.100357 -0.000228216)
(0.0291874 -0.102197 -0.00025473)
(0.0321576 -0.103256 -0.000280659)
(3.47194e-05 -0.00772809 -3.02973e-07)
(0.000583292 -0.0222487 -5.09097e-06)
(0.00168987 -0.0363095 -1.4747e-05)
(0.00324398 -0.0488021 -2.8312e-05)
(0.00519874 -0.059824 -4.53685e-05)
(0.00748303 -0.0695368 -6.53077e-05)
(0.010065 -0.0780534 -8.78371e-05)
(0.012888 -0.0854694 -0.000112479)
(0.0159105 -0.0918416 -0.000138853)
(0.0190831 -0.0972195 -0.000166547)
(0.022372 -0.101635 -0.000195245)
(0.0257056 -0.105115 -0.000224345)
(0.0290286 -0.107686 -0.000253343)
(0.0323117 -0.109369 -0.000282003)
(0.0354979 -0.110197 -0.000309808)
(4.15667e-05 -0.00869013 -3.62839e-07)
(0.000670323 -0.0247659 -5.84962e-06)
(0.00193048 -0.040176 -1.68486e-05)
(0.0036911 -0.053771 -3.22113e-05)
(0.00589374 -0.0656909 -5.14374e-05)
(0.00846103 -0.0761295 -7.38384e-05)
(0.0113513 -0.0852208 -9.90679e-05)
(0.0144986 -0.0930748 -0.00012653)
(0.0178573 -0.0997588 -0.000155848)
(0.0213661 -0.10533 -0.000186466)
(0.0249873 -0.109828 -0.000218076)
(0.0286384 -0.113286 -0.000249936)
(0.0322596 -0.115737 -0.000281549)
(0.035811 -0.117209 -0.00031254)
(0.0392299 -0.117743 -0.000342387)
(5.17809e-05 -0.00974559 -4.51771e-07)
(0.000785958 -0.0275428 -6.85977e-06)
(0.00224025 -0.0444645 -1.95499e-05)
(0.00425356 -0.0592948 -3.71232e-05)
(0.00675454 -0.0722135 -5.89455e-05)
(0.00965282 -0.0834548 -8.42444e-05)
(0.0128981 -0.0931754 -0.000112561)
(0.0164154 -0.101499 -0.000143265)
(0.0201513 -0.108512 -0.000175863)
(0.0240345 -0.114278 -0.000209761)
(0.0280184 -0.118843 -0.000244523)
(0.0320126 -0.122256 -0.000279391)
(0.0359495 -0.124544 -0.000313747)
(0.0397803 -0.125752 -0.00034719)
(0.0434362 -0.125928 -0.000379094)
(6.48115e-05 -0.0110791 -5.65892e-07)
(0.000913809 -0.0309237 -7.9744e-06)
(0.00257167 -0.0495666 -2.24447e-05)
(0.00486384 -0.0657707 -4.24453e-05)
(0.00769722 -0.0797839 -6.71774e-05)
(0.0109667 -0.0918885 -9.57049e-05)
(0.0146182 -0.10227 -0.000127579)
(0.0185548 -0.111074 -0.000161928)
(0.0227119 -0.118401 -0.000198218)
(0.0270195 -0.124328 -0.000235806)
(0.0314092 -0.12891 -0.000274125)
(0.0357875 -0.132207 -0.000312332)
(0.0400871 -0.134256 -0.000349866)
(0.0442247 -0.135114 -0.000385975)
(0.0481377 -0.13484 -0.000420136)
(8.23083e-05 -0.0125209 -7.18261e-07)
(0.00108554 -0.0346177 -9.47463e-06)
(0.00301744 -0.0551936 -2.63319e-05)
(0.00565846 -0.0729405 -4.93847e-05)
(0.00889612 -0.0881796 -7.76345e-05)
(0.0126074 -0.101243 -0.00011003)
(0.0167265 -0.112354 -0.000145971)
(0.0211433 -0.121683 -0.000184527)
(0.0257821 -0.129345 -0.000225005)
(0.0305595 -0.135428 -0.000266709)
(0.0353952 -0.140004 -0.000308906)
(0.0401853 -0.143135 -0.000350723)
(0.0448519 -0.144882 -0.000391447)
(0.0493018 -0.14531 -0.000430295)
(0.0534642 -0.144495 -0.000466622)
(0.000100761 -0.0144164 -8.79615e-07)
(0.00126254 -0.0392464 -1.10174e-05)
(0.00348559 -0.0620357 -3.04213e-05)
(0.00650496 -0.0815026 -5.67667e-05)
(0.0101858 -0.0980765 -8.88964e-05)
(0.0143902 -0.112161 -0.000125581)
(0.0190383 -0.12402 -0.000166156)
(0.0239996 -0.133857 -0.000209446)
(0.0291887 -0.141805 -0.000254746)
(0.0345024 -0.147975 -0.000301113)
(0.0398486 -0.152452 -0.000347784)
(0.0451074 -0.155312 -0.000393676)
(0.0501892 -0.156637 -0.00043804)
(0.0549852 -0.156505 -0.000479895)
(0.0594166 -0.155013 -0.000518584)
(0.000132192 -0.0164294 -1.15333e-06)
(0.00152605 -0.0442287 -1.33193e-05)
(0.00414147 -0.0694993 -3.61405e-05)
(0.0076476 -0.0909129 -6.67452e-05)
(0.0118831 -0.108989 -0.000103702)
(0.0166845 -0.124211 -0.000145613)
(0.0219551 -0.136903 -0.000191602)
(0.0275443 -0.147299 -0.000240393)
(0.0333502 -0.155555 -0.000291055)
(0.0392527 -0.161799 -0.000342583)
(0.0451452 -0.166136 -0.000394003)
(0.0508925 -0.16866 -0.000444178)
(0.0563914 -0.169471 -0.000492167)
(0.0615231 -0.16867 -0.000536968)
(0.0661966 -0.166376 -0.000577759)
(0.000168444 -0.0192016 -1.47023e-06)
(0.00179616 -0.0506994 -1.56736e-05)
(0.00479784 -0.0788394 -4.18742e-05)
(0.0088121 -0.102412 -7.68996e-05)
(0.0136684 -0.122112 -0.000119291)
(0.0191269 -0.13853 -0.000166919)
(0.0250869 -0.152045 -0.000218946)
(0.0313872 -0.162942 -0.000273922)
(0.0379114 -0.171404 -0.000330876)
(0.0444944 -0.177588 -0.000388321)
(0.0510209 -0.181625 -0.000445297)
(0.0573336 -0.18363 -0.000500388)
(0.0633114 -0.183733 -0.000552575)
(0.0688181 -0.182059 -0.000600638)
(0.0737544 -0.178762 -0.000643735)
(0.000226178 -0.0220737 -1.97314e-06)
(0.00220778 -0.0575266 -1.92693e-05)
(0.00578081 -0.08889 -5.04459e-05)
(0.0104852 -0.114902 -9.15102e-05)
(0.016112 -0.136444 -0.000140606)
(0.0223875 -0.154216 -0.000195388)
(0.0291838 -0.168664 -0.00025469)
(0.0363105 -0.180118 -0.000316903)
(0.043629 -0.188807 -0.000380766)
(0.05095 -0.19491 -0.000444678)
(0.0581393 -0.198586 -0.000507418)
(0.065019 -0.199979 -0.000567479)
(0.0714503 -0.199247 -0.00062361)
(0.0772887 -0.196552 -0.000674582)
(0.0824199 -0.192079 -0.000719372)
(0.000284906 -0.0262537 -2.48657e-06)
(0.0025974 -0.0667745 -2.2665e-05)
(0.00674118 -0.101879 -5.88353e-05)
(0.0121568 -0.130603 -0.000106087)
(0.0185917 -0.154109 -0.000162261)
(0.0257552 -0.173251 -0.000224765)
(0.0334896 -0.188563 -0.000292284)
(0.0415527 -0.200442 -0.000362643)
(0.0497886 -0.209159 -0.000434541)
(0.0579733 -0.214939 -0.000505968)
(0.0659442 -0.217978 -0.000575554)
(0.0734939 -0.218457 -0.000641445)
(0.0804629 -0.216579 -0.000702286)
(0.0866828 -0.212547 -0.000756579)
(0.0920328 -0.206596 -0.000803289)
(0.000393057 -0.0304648 -3.42904e-06)
(0.00325225 -0.0762571 -2.83856e-05)
(0.00823913 -0.115539 -7.18983e-05)
(0.0146489 -0.147356 -0.00012785)
(0.0221701 -0.173107 -0.000193476)
(0.0304636 -0.19382 -0.000265875)
(0.0393302 -0.210138 -0.000343244)
(0.0484883 -0.222527 -0.000423193)
(0.05775 -0.231306 -0.000504017)
(0.0668547 -0.236738 -0.000583501)
(0.0756155 -0.23906 -0.000659962)
(0.0837991 -0.238496 -0.000731407)
(0.0912233 -0.235301 -0.00079621)
(0.0977181 -0.229731 -0.000852912)
(0.103144 -0.222075 -0.000900283)
(0.000507447 -0.0369651 -4.42978e-06)
(0.00385229 -0.0897668 -3.36157e-05)
(0.00962178 -0.133939 -8.39775e-05)
(0.0170185 -0.169151 -0.000148515)
(0.0256659 -0.197251 -0.000224004)
(0.0351587 -0.21949 -0.000306835)
(0.0452652 -0.236637 -0.000395063)
(0.0556571 -0.24925 -0.000485747)
(0.0661103 -0.257717 -0.000577004)
(0.0763097 -0.262364 -0.000666019)
(0.0860345 -0.263492 -0.000750917)
(0.0949983 -0.261384 -0.000829157)
(0.102995 -0.256371 -0.00089897)
(0.109831 -0.248771 -0.000958652)
(0.11536 -0.238953 -0.00100692)
(0.000711805 -0.0433006 -6.21093e-06)
(0.00491072 -0.103101 -4.28619e-05)
(0.0119362 -0.152686 -0.000104161)
(0.0207795 -0.191776 -0.000181359)
(0.0309739 -0.222603 -0.00027031)
(0.0420488 -0.246658 -0.000366992)
(0.0537095 -0.264846 -0.000468746)
(0.0655666 -0.277821 -0.000572259)
(0.0773473 -0.286037 -0.000675073)
(0.0886858 -0.289885 -0.00077406)
(0.0993248 -0.289727 -0.000866922)
(0.10895 -0.285921 -0.000950951)
(0.117329 -0.278866 -0.0010241)
(0.124276 -0.268975 -0.00108475)
(0.129632 -0.256703 -0.00113152)
(0.000915937 -0.0536928 -7.99545e-06)
(0.00580188 -0.123229 -5.06279e-05)
(0.0139321 -0.179205 -0.0001216)
(0.0241293 -0.222534 -0.000210573)
(0.0358386 -0.256132 -0.000312793)
(0.048545 -0.281814 -0.000423668)
(0.0618901 -0.300648 -0.000540172)
(0.0753945 -0.313427 -0.000658027)
(0.0887309 -0.320706 -0.000774455)
(0.101459 -0.322971 -0.00088555)
(0.113265 -0.320698 -0.000988616)
(0.123771 -0.314339 -0.00108033)
(0.132715 -0.304425 -0.00115841)
(0.139876 -0.291462 -0.00122094)
(0.145103 -0.276042 -0.00126657)
(0.00128756 -0.0634092 -1.12347e-05)
(0.00750967 -0.142093 -6.55472e-05)
(0.0175192 -0.205033 -0.000152883)
(0.0298358 -0.253288 -0.000260405)
(0.0437871 -0.290185 -0.00038214)
(0.0587502 -0.317916 -0.000512768)
(0.0742692 -0.337725 -0.000648202)
(0.0897619 -0.350542 -0.000783455)
(0.104826 -0.357015 -0.000914938)
(0.118945 -0.35772 -0.00103819)
(0.131753 -0.353247 -0.00115001)
(0.142849 -0.344161 -0.00124687)
(0.151945 -0.331127 -0.00132629)
(0.158851 -0.314788 -0.00138657)
(0.163424 -0.295876 -0.00142653)
(0.00164053 -0.0802636 -1.43209e-05)
(0.00883417 -0.172496 -7.70902e-05)
(0.0202644 -0.243835 -0.000176873)
(0.0343923 -0.29741 -0.000300141)
(0.0505253 -0.337559 -0.000440985)
(0.0677251 -0.366903 -0.000591082)
(0.0855456 -0.386917 -0.000746656)
(0.103244 -0.398713 -0.000901135)
(0.120357 -0.403124 -0.00105052)
(0.136227 -0.400865 -0.00118906)
(0.150419 -0.392749 -0.00131294)
(0.162442 -0.379477 -0.00141793)
(0.171979 -0.361965 -0.00150116)
(0.178802 -0.340989 -0.00156077)
(0.182804 -0.317516 -0.00159568)
(0.00222771 -0.0949857 -1.94383e-05)
(0.0114659 -0.199041 -0.000100082)
(0.02575 -0.279502 -0.000224715)
(0.0430708 -0.339339 -0.000375924)
(0.0625484 -0.383524 -0.000545893)
(0.0830651 -0.415156 -0.000725009)
(0.104005 -0.435907 -0.000907768)
(0.124446 -0.447092 -0.00108622)
(0.143807 -0.449705 -0.00125523)
(0.16132 -0.444606 -0.0014081)
(0.176485 -0.432826 -0.00154051)
(0.1888 -0.415234 -0.00164798)
(0.197937 -0.393004 -0.0017278)
(0.203764 -0.367101 -0.00177863)
(0.206216 -0.338732 -0.00180011)
(0.00262508 -0.121884 -2.2915e-05)
(0.013055 -0.245191 -0.000113922)
(0.0294179 -0.337005 -0.000256772)
(0.0493526 -0.403718 -0.000430717)
(0.0717982 -0.451749 -0.000626674)
(0.0954548 -0.484759 -0.000833138)
(0.119603 -0.504778 -0.00104395)
(0.143013 -0.513374 -0.00124831)
(0.165038 -0.511921 -0.00144055)
(0.184695 -0.501456 -0.00161218)
(0.201403 -0.483481 -0.00175799)
(0.214539 -0.459043 -0.00187272)
(0.22375 -0.429814 -0.00195306)
(0.228898 -0.396921 -0.0019981)
(0.22999 -0.361983 -0.00200756)
(0.00336341 -0.142789 -2.93451e-05)
(0.0169294 -0.281732 -0.000147777)
(0.0377791 -0.385923 -0.0003297)
(0.0627081 -0.461033 -0.000547337)
(0.0903379 -0.51409 -0.00078847)
(0.118997 -0.549492 -0.00103866)
(0.1477 -0.569639 -0.00128922)
(0.17491 -0.576341 -0.00152672)
(0.199822 -0.571371 -0.00174423)
(0.221283 -0.5559 -0.0019315)
(0.238641 -0.53195 -0.00208311)
(0.2513 -0.500735 -0.00219351)
(0.258945 -0.464479 -0.00226036)
(0.261666 -0.424497 -0.00228401)
(0.259593 -0.382867 -0.00226605)
(0.00374343 -0.183895 -3.26881e-05)
(0.0188399 -0.351952 -0.000164409)
(0.0426343 -0.472447 -0.000372142)
(0.0713149 -0.556832 -0.000622424)
(0.10328 -0.614462 -0.000901479)
(0.136295 -0.6505 -0.00118967)
(0.169334 -0.668029 -0.00147805)
(0.200426 -0.669199 -0.00174951)
(0.228673 -0.656602 -0.00199598)
(0.252614 -0.631586 -0.00220506)
(0.271475 -0.597168 -0.00236956)
(0.284526 -0.55474 -0.00248362)
(0.291418 -0.507554 -0.00254364)
(0.292357 -0.457042 -0.002552)
(0.287577 -0.406068 -0.00251015)
(0.00501152 -0.211472 -4.37276e-05)
(0.0251659 -0.401445 -0.000219688)
(0.0560881 -0.539619 -0.000489505)
(0.0926176 -0.635398 -0.000808415)
(0.132634 -0.699286 -0.0011577)
(0.173165 -0.737434 -0.00151147)
(0.212847 -0.753759 -0.00185791)
(0.249134 -0.750523 -0.00217453)
(0.280991 -0.731468 -0.00245273)
(0.306644 -0.697773 -0.00267642)
(0.325263 -0.653782 -0.00283913)
(0.336161 -0.600782 -0.00293403)
(0.339162 -0.543324 -0.00296046)
(0.00569317 -0.276079 -4.97174e-05)
(0.027766 -0.510495 -0.000242306)
(0.0631069 -0.672415 -0.000550843)
(0.104783 -0.780841 -0.000914575)
(0.150821 -0.849849 -0.00131643)
(0.197087 -0.886784 -0.00172033)
(0.242513 -0.896839 -0.00211667)
(0.283595 -0.882767 -0.00247539)
(0.319374 -0.849988 -0.00278737)
(0.347602 -0.799601 -0.00303398)
(0.367247 -0.737983 -0.00320511)
(0.377489 -0.666486 -0.00329481)
(0.378058 -0.591939 -0.00329949)
(0.00772825 -0.314054 -6.74227e-05)
(0.0381444 -0.578263 -0.000332971)
(0.0849442 -0.765255 -0.000741353)
(0.138956 -0.888763 -0.00121283)
(0.197368 -0.964923 -0.00172272)
(0.254605 -1.0024 -0.00222208)
(0.309588 -1.00846 -0.00270213)
(0.357567 -0.985269 -0.00312045)
(0.397943 -0.941257 -0.00347311)
(0.427624 -0.876195 -0.00373165)
(0.445426 -0.799535 -0.00388742)
(0.450199 -0.711638 -0.00392866)
(0.442375 -0.622542 -0.00386087)
(0.00948012 -0.417082 -8.28005e-05)
(0.0423877 -0.750554 -0.000369887)
(0.0956528 -0.972353 -0.000834814)
(0.155786 -1.11272 -0.00135968)
(0.222183 -1.19361 -0.00193893)
(0.285835 -1.2258 -0.00249461)
(0.347958 -1.21924 -0.00303617)
(0.401126 -1.1765 -0.00350045)
(0.445653 -1.10931 -0.00388829)
(0.47769 -1.01583 -0.00416838)
(0.495484 -0.909033 -0.00432305)
(0.497364 -0.78979 -0.00434018)
(0.483774 -0.673662 -0.00422115)
(0.0132812 -0.473974 -0.000115827)
(0.0595969 -0.844933 -0.000520099)
(0.129994 -1.09991 -0.00113433)
(0.208733 -1.25837 -0.00182136)
(0.293019 -1.34529 -0.00255696)
(0.371327 -1.37421 -0.0032395)
(0.446343 -1.35868 -0.00389438)
(0.508183 -1.29898 -0.00443294)
(0.559636 -1.21362 -0.00488255)
(0.595023 -1.09632 -0.00519045)
(0.609962 -0.966008 -0.00532188)
(0.599704 -0.820724 -0.00523176)
(0.568662 -0.685145 -0.00496201)
(0.0161087 -0.643267 -0.000140524)
(0.0654919 -1.11817 -0.000571342)
(0.144872 -1.42249 -0.00126351)
(0.227131 -1.60079 -0.00198145)
(0.321195 -1.69008 -0.0028011)
(0.402913 -1.70528 -0.00351407)
(0.487 -1.66894 -0.00424656)
(0.55303 -1.5781 -0.00482322)
(0.60817 -1.4604 -0.00530328)
(0.646138 -1.29849 -0.0056362)
(0.660528 -1.11129 -0.00576093)
(0.641933 -0.909279 -0.00560046)
(0.597846 -0.729675 -0.00521511)
(0.019338 -0.728203 -0.000168245)
(0.0879068 -1.24623 -0.000765835)
(0.191681 -1.58999 -0.00167034)
(0.300867 -1.78195 -0.00262099)
(0.416635 -1.87441 -0.00363109)
(0.513546 -1.87961 -0.00447503)
(0.610152 -1.82815 -0.00531901)
(0.683813 -1.7106 -0.00596103)
(0.750705 -1.56269 -0.00654751)
(0.814533 -1.3719 -0.00710399)
(0.835497 -1.14174 -0.00728982)
(0.785861 -0.894363 -0.00685555)
(0.703992 -0.693218 -0.00614275)
(0.0404463 -0.97563 -0.000351656)
(0.112728 -1.65891 -0.000979827)
(0.20986 -2.0647 -0.00182453)
(0.303313 -2.2877 -0.00263428)
(0.425 -2.36833 -0.00369497)
(0.518255 -2.33825 -0.00451017)
(0.627447 -2.25941 -0.00546485)
(0.70741 -2.10532 -0.00616798)
(0.765176 -1.95381 -0.00667614)
(0.833493 -1.72107 -0.00727815)
(0.870753 -1.33972 -0.00760144)
(0.786995 -0.973118 -0.00687046)
(0.673847 -0.699968 -0.00587993)
(0.00699373 -1.21936 -5.38359e-05)
(0.0645846 -1.83 -0.00055926)
(0.18988 -2.20984 -0.0016509)
(0.346512 -2.40032 -0.00299707)
(0.531012 -2.51391 -0.00460276)
(0.629267 -2.49275 -0.00547112)
(0.721551 -2.40615 -0.00628504)
(0.755548 -2.21612 -0.00659651)
(0.8104 -1.96999 -0.00709338)
(1.0824 -1.63718 -0.00948206)
(1.20317 -1.28338 -0.0105233)
(0.982313 -0.829134 -0.0085835)
(0.773723 -0.562355 -0.00675741)
(0.0822659 -1.1879 -0.000718846)
(0.102057 -2.17449 -0.000871522)
(0.107239 -2.83603 -0.000929183)
(0.186587 -3.2123 -0.00160408)
(0.322262 -3.2347 -0.00279892)
(0.496701 -3.0218 -0.00432061)
(0.664772 -2.82113 -0.00577664)
(0.796314 -2.60392 -0.00696751)
(0.875917 -2.734 -0.007706)
(0.91422 -2.37306 -0.00809797)
(0.943925 -1.51438 -0.00829185)
(0.762947 -0.751202 -0.00668163)
(0.506255 -0.427369 -0.00442729)
(0.015881 -1.00372 -0.000140119)
(0.0851037 -1.86975 -0.000742205)
(0.200889 -2.49043 -0.00174025)
(0.419926 -2.92659 -0.00365044)
(0.769092 -3.2016 -0.00673065)
(0.75523 -3.23458 -0.00661398)
(0.658119 -3.07851 -0.00574262)
(0.117346 -2.77773 -0.000962051)
(0.211794 -2.28674 -0.00176564)
(1.15963 -1.74661 -0.0100848)
(1.48091 -1.08409 -0.0129292)
(0.828337 -0.415099 -0.00723198)
(0.393072 -0.193661 -0.00342806)
(0.0198194 -0.808313 -0.000173809)
(0.0591564 -1.3714 -0.00052058)
(0.112268 -1.77915 -0.000984143)
(0.179521 -2.03824 -0.00157583)
(0.263065 -2.16426 -0.0022953)
(0.312191 -2.14434 -0.00273348)
(0.297634 -1.96343 -0.00262997)
(0.258949 -1.66353 -0.00224345)
(0.221578 -1.14311 -0.0019137)
(0.157509 -0.484109 -0.00135543)
(0.0145016 -0.731488 -0.00012675)
(0.0443254 -1.1189 -0.000388193)
(0.0776735 -1.38451 -0.000680963)
(0.110803 -1.53965 -0.000970122)
(0.140868 -1.58726 -0.0012308)
(0.159371 -1.52527 -0.00139458)
(0.157399 -1.35233 -0.00138487)
(0.136708 -1.08284 -0.00120127)
(0.0920352 -0.71536 -0.000803209)
(0.0176291 -0.263589 -0.000157278)
(0.00966315 -0.708462 -8.43914e-05)
(0.0294618 -1.00466 -0.000257481)
(0.0486158 -1.18502 -0.000424974)
(0.0649664 -1.27381 -0.000568309)
(0.0770546 -1.2806 -0.000673988)
(0.0820126 -1.20564 -0.000717475)
(0.0773448 -1.04998 -0.000676874)
(0.0621934 -0.818912 -0.000543924)
(0.0369757 -0.52134 -0.000322899)
(0.00402394 -0.177953 -3.64943e-05)
(0.00480129 -0.718552 -4.19232e-05)
(0.0157326 -0.984539 -0.000137406)
(0.0259793 -1.12608 -0.000227024)
(0.0335417 -1.18215 -0.000293225)
(0.0372471 -1.16795 -0.000325744)
(0.0366249 -1.08761 -0.000320473)
(0.0313208 -0.942623 -0.000274297)
(0.0215707 -0.736171 -0.000189146)
(0.00677262 -0.473659 -5.95345e-05)
(-0.00135743 -0.164834 1.17597e-05)
(0.00114175 -0.740298 -9.96961e-06)
(0.00639356 -1.01082 -5.58199e-05)
(0.0109671 -1.14424 -9.58016e-05)
(0.0125742 -1.18897 -0.000109927)
(0.0110523 -1.16501 -9.6736e-05)
(0.00707143 -1.07941 -6.20684e-05)
(0.00236121 -0.93475 -2.10198e-05)
(-0.00134648 -0.733408 1.13935e-05)
(-0.00264389 -0.478054 2.28352e-05)
(-0.000929232 -0.170523 8.13282e-06)
(-0.000436698 -0.741371 3.84417e-06)
(0.000462123 -1.01792 -4.04805e-06)
(0.00198268 -1.15205 -1.73186e-05)
(0.00321299 -1.19458 -2.81005e-05)
(0.00377008 -1.16723 -3.30067e-05)
(0.00340452 -1.07816 -2.98597e-05)
(0.00239684 -0.931001 -2.10863e-05)
(0.00119597 -0.728401 -1.06047e-05)
(-3.15252e-06 -0.473796 -8.01077e-08)
(-0.00022147 -0.169655 1.91294e-06)
(-0.00280155 -0.739502 2.44556e-05)
(-0.00575507 -1.01659 5.02426e-05)
(-0.00663466 -1.15189 5.7899e-05)
(-0.00581678 -1.19528 5.07618e-05)
(-0.00365761 -1.16836 3.18943e-05)
(-0.00140285 -1.07961 1.2202e-05)
(0.000830954 -0.932901 -7.3093e-06)
(0.00199543 -0.730695 -1.74723e-05)
(0.00195689 -0.476177 -1.71278e-05)
(0.000534247 -0.171148 -4.74824e-06)
(-0.00658259 -0.712464 5.74561e-05)
(-0.0149139 -0.997471 0.000130164)
(-0.0180235 -1.14261 0.000157322)
(-0.0175609 -1.19375 0.00015327)
(-0.0144825 -1.1714 0.00012641)
(-0.0105188 -1.08411 9.18045e-05)
(-0.0059307 -0.936278 5.17605e-05)
(-0.00208416 -0.730476 1.81812e-05)
(0.000485839 -0.471983 -4.24966e-06)
(0.000581713 -0.165603 -5.09982e-06)
(-0.0166123 -0.667803 0.000144966)
(-0.0340721 -0.960861 0.000297393)
(-0.0398876 -1.12197 0.000348133)
(-0.0420025 -1.18383 0.000366611)
(-0.0419405 -1.16876 0.000366056)
(-0.0409184 -1.08674 0.000357149)
(-0.0362815 -0.942942 0.000316682)
(-0.0289997 -0.739684 0.000253146)
(-0.0165625 -0.48089 0.000144607)
(-0.00443375 -0.170854 3.91613e-05)
(0.00443064 -0.541226 -3.86587e-05)
(0.000909104 -0.875188 -7.88066e-06)
(-0.0224418 -1.07168 0.000195938)
(-0.0525034 -1.14766 0.00045822)
(-0.086551 -1.14027 0.00075515)
(-0.117663 -1.06714 0.00102618)
(-0.138871 -0.935176 0.00121045)
(-0.144321 -0.745837 0.00125668)
(-0.118157 -0.500094 0.00102667)
(-0.0695968 -0.192306 0.000600417)
(0.357106 -0.689995 -0.00309041)
(0.41229 -0.907493 -0.00341589)
(0.193763 -1.01638 -0.00146214)
(0.00111901 -1.06961 8.50803e-05)
(-0.153543 -1.06209 0.00115179)
(-0.27897 -1.00112 0.00184525)
(-0.381911 -0.887348 0.00225056)
(-0.465193 -0.726409 0.00242276)
(-0.482997 -0.511157 0.00196687)
(-0.523393 -0.288478 0.00158126)
(-0.017212 -3.33841 0.000150279)
(-0.00528578 -1.50185 4.62008e-05)
(0.016826 -0.611425 -0.000146817)
(0.00138263 -0.475494 -1.20873e-05)
(-0.00528595 -0.445085 4.60593e-05)
(-0.0306319 -0.404542 0.000267138)
(-0.0276672 -0.359327 0.000240939)
(-0.0350092 -0.317514 0.000304307)
(0.00894175 -0.422704 -8.09811e-05)
(0.054397 -1.59625 -0.00047889)
(-0.314293 -0.594068 0.00274299)
(-0.368081 -0.959492 0.00321282)
(-0.174944 -1.05855 0.00152728)
(-0.0212631 -1.07029 0.000185938)
(0.122433 -1.04949 -0.00106826)
(0.212391 -0.991127 -0.00185344)
(0.337702 -0.891996 -0.00294713)
(0.371252 -0.763619 -0.00324002)
(0.513351 -0.57635 -0.00448045)
(0.286191 -0.285031 -0.0025221)
(0.0178154 -0.852579 -0.000155457)
(0.00930759 -0.933715 -8.12298e-05)
(0.0110591 -0.957816 -9.6508e-05)
(0.022842 -0.961985 -0.00019933)
(0.043202 -0.937126 -0.000377025)
(0.0557908 -0.896398 -0.000486916)
(0.0733755 -0.81406 -0.00064041)
(0.0719513 -0.732244 -0.000628039)
(0.0618243 -0.552071 -0.000539841)
(0.0245308 -0.383763 -0.000215801)
(-0.023575 -0.703183 0.000205776)
(-0.0240844 -0.971871 0.000210246)
(0.00458099 -1.09667 -3.99277e-05)
(0.0315963 -1.14085 -0.000275714)
(0.0691363 -1.12398 -0.000603378)
(0.0887395 -1.05808 -0.000774494)
(0.111442 -0.93808 -0.000972586)
(0.103112 -0.768608 -0.000899995)
(0.0877813 -0.524496 -0.00076628)
(0.0370514 -0.20599 -0.000326905)
(0.00152164 -0.67558 -1.32704e-05)
(0.00293031 -0.935905 -2.55635e-05)
(0.00834471 -1.06291 -7.28231e-05)
(0.0128694 -1.10681 -0.000112324)
(0.0194591 -1.08933 -0.000169865)
(0.0214007 -1.02552 -0.000186824)
(0.0224366 -0.905886 -0.000195801)
(0.0180658 -0.743388 -0.000157696)
(0.00953757 -0.503992 -8.32912e-05)
(0.00277258 -0.206549 -2.46354e-05)
(0.00117477 -0.717991 -1.02413e-05)
(0.00574506 -0.991771 -5.01321e-05)
(0.0136766 -1.12404 -0.000119359)
(0.0201068 -1.16828 -0.000175492)
(0.028528 -1.14655 -0.000249021)
(0.0310903 -1.0701 -0.0002714)
(0.0322671 -0.937823 -0.000281612)
(0.0267716 -0.752024 -0.000233697)
(0.0166497 -0.502529 -0.000145395)
(0.00597822 -0.188353 -5.26192e-05)
(0.00056799 -0.69648 -4.95281e-06)
(0.0021165 -0.974101 -1.84683e-05)
(0.00425925 -1.10832 -3.71754e-05)
(0.0057321 -1.15262 -5.00446e-05)
(0.0072731 -1.13066 -6.35129e-05)
(0.00702905 -1.05397 -6.13868e-05)
(0.00586964 -0.921116 -5.12055e-05)
(0.00426967 -0.736135 -3.72756e-05)
(0.00101036 -0.48874 -8.85425e-06)
(-0.000151718 -0.18115 1.2787e-06)
(0.00187635 -0.725878 -1.63703e-05)
(0.0045065 -1.00288 -3.93311e-05)
(0.0072775 -1.13504 -6.35273e-05)
(0.00940839 -1.17656 -8.21424e-05)
(0.0109873 -1.15156 -9.58895e-05)
(0.0113498 -1.06999 -9.90674e-05)
(0.0102634 -0.933241 -8.96078e-05)
(0.00780142 -0.742719 -6.81098e-05)
(0.0042628 -0.493658 -3.72232e-05)
(0.00143655 -0.182978 -1.25969e-05)
(0.000688524 -0.717349 -6.00861e-06)
(0.00147988 -0.99469 -1.29189e-05)
(0.0022354 -1.1271 -1.95246e-05)
(0.00290053 -1.16874 -2.5348e-05)
(0.00276822 -1.14345 -2.41626e-05)
(0.00263078 -1.06135 -2.29712e-05)
(0.00156817 -0.924493 -1.37074e-05)
(0.000748685 -0.733647 -6.54019e-06)
(-0.000154974 -0.485099 1.34832e-06)
(-0.000331621 -0.177442 2.88049e-06)
(0.0008417 -0.732704 -7.34869e-06)
(0.0021042 -1.00807 -1.83675e-05)
(0.00343485 -1.13919 -2.99936e-05)
(0.0045496 -1.17945 -3.97425e-05)
(0.00479471 -1.15281 -4.18533e-05)
(0.00480753 -1.06886 -4.19684e-05)
(0.00373556 -0.930672 -3.26216e-05)
(0.00277688 -0.738378 -2.42471e-05)
(0.00148268 -0.489646 -1.29526e-05)
(0.000480529 -0.180808 -4.19555e-06)
(-0.000158784 -0.726639 1.38642e-06)
(0.000407153 -1.00365 -3.55857e-06)
(0.00114328 -1.13549 -9.99559e-06)
(0.00188146 -1.17579 -1.64557e-05)
(0.0018118 -1.14877 -1.58189e-05)
(0.00176627 -1.06437 -1.54242e-05)
(0.000839688 -0.925719 -7.3456e-06)
(0.000355459 -0.733175 -3.10783e-06)
(-0.000151194 -0.484539 1.31674e-06)
(-0.000219998 -0.177295 1.90922e-06)
(0.00012319 -0.732614 -1.07557e-06)
(0.000958631 -1.01033 -8.36322e-06)
(0.00197134 -1.14194 -1.72231e-05)
(0.0029576 -1.18142 -2.58484e-05)
(0.00321151 -1.15352 -2.80344e-05)
(0.00314475 -1.06817 -2.74577e-05)
(0.00215096 -0.928893 -1.87936e-05)
(0.00150303 -0.735954 -1.31263e-05)
(0.000760488 -0.487388 -6.64401e-06)
(0.000220399 -0.179635 -1.92157e-06)
(-0.00013428 -0.729551 1.1703e-06)
(0.000555917 -1.00897 -4.84962e-06)
(0.00131477 -1.14108 -1.14907e-05)
(0.00199188 -1.18033 -1.74169e-05)
(0.00204244 -1.1518 -1.78332e-05)
(0.00200099 -1.06592 -1.74729e-05)
(0.00110636 -0.926069 -9.6754e-06)
(0.000580889 -0.732811 -5.07664e-06)
(4.68673e-05 -0.484275 -4.12875e-07)
(-0.000129801 -0.177527 1.12063e-06)
(7.31771e-06 -0.732848 -6.7276e-08)
(0.000876762 -1.0136 -7.66015e-06)
(0.00195317 -1.14573 -1.70569e-05)
(0.00281548 -1.18426 -2.45811e-05)
(0.00311132 -1.15477 -2.71652e-05)
(0.00287262 -1.06798 -2.50842e-05)
(0.00217704 -0.927512 -1.90142e-05)
(0.00138372 -0.733996 -1.2088e-05)
(0.000626795 -0.485581 -5.47783e-06)
(0.000122061 -0.178755 -1.07269e-06)
(-0.000162318 -0.732167 1.4132e-06)
(0.00085027 -1.01501 -7.43111e-06)
(0.00200319 -1.14745 -1.74959e-05)
(0.00269428 -1.1852 -2.35277e-05)
(0.00283087 -1.15469 -2.47192e-05)
(0.00256686 -1.06679 -2.24152e-05)
(0.00188026 -0.925694 -1.64233e-05)
(0.00106054 -0.731857 -9.26615e-06)
(0.000301006 -0.483539 -2.63176e-06)
(-6.34796e-05 -0.177505 5.31961e-07)
(9.67998e-06 -0.734315 -9.47793e-08)
(0.00143892 -1.01968 -1.2569e-05)
(0.0029877 -1.15211 -2.60879e-05)
(0.00385847 -1.18875 -3.36891e-05)
(0.00398104 -1.15686 -3.4761e-05)
(0.0035059 -1.06778 -3.06134e-05)
(0.00263508 -0.925926 -2.30113e-05)
(0.00163614 -0.731804 -1.42896e-05)
(0.000682554 -0.483603 -5.96319e-06)
(9.25496e-05 -0.177817 -8.20631e-07)
(0.00015477 -0.736201 -1.35653e-06)
(0.00187438 -1.02414 -1.63679e-05)
(0.00354967 -1.15611 -3.09914e-05)
(0.00437466 -1.19121 -3.81932e-05)
(0.00433013 -1.15772 -3.78072e-05)
(0.0036588 -1.06737 -3.19467e-05)
(0.00264663 -0.924685 -2.31108e-05)
(0.00154085 -0.73024 -1.34566e-05)
(0.000519417 -0.482205 -4.53832e-06)
(-3.12522e-05 -0.177187 2.61476e-07)
(0.00071225 -0.740279 -6.21853e-06)
(0.00302985 -1.03055 -2.64503e-05)
(0.00494117 -1.16142 -4.31361e-05)
(0.00566527 -1.19444 -4.94597e-05)
(0.0054165 -1.1591 -4.72899e-05)
(0.00452973 -1.06744 -3.95471e-05)
(0.00330536 -0.924004 -2.88595e-05)
(0.00201031 -0.729317 -1.75582e-05)
(0.000806861 -0.481479 -7.04875e-06)
(8.58819e-05 -0.177027 -8.01092e-07)
(0.00131434 -0.747909 -1.14673e-05)
(0.00399293 -1.0391 -3.48542e-05)
(0.00579336 -1.16771 -5.05716e-05)
(0.00616781 -1.19786 -5.38443e-05)
(0.00547097 -1.1603 -4.77622e-05)
(0.00430994 -1.06731 -3.76315e-05)
(0.00300795 -0.92297 -2.62717e-05)
(0.00172335 -0.728082 -1.50578e-05)
(0.000605922 -0.480459 -5.29916e-06)
(-3.37686e-05 -0.17672 2.13225e-07)
(0.00253621 -0.757526 -2.21314e-05)
(0.00573538 -1.04818 -5.00719e-05)
(0.00720225 -1.17325 -6.28763e-05)
(0.00728135 -1.20004 -6.35667e-05)
(0.00585115 -1.16029 -5.10848e-05)
(0.00465749 -1.06609 -4.06663e-05)
(0.00337244 -0.921207 -2.945e-05)
(0.00201824 -0.726018 -1.76298e-05)
(0.00107292 -0.47841 -9.37148e-06)
(0.000238641 -0.175274 -2.06207e-06)
(0.00361887 -0.775495 -3.1585e-05)
(0.00682799 -1.06121 -5.96119e-05)
(0.00746566 -1.1805 -6.51811e-05)
(0.00672273 -1.20312 -5.86948e-05)
(0.00457755 -1.16147 -3.99638e-05)
(0.00318963 -1.06633 -2.78524e-05)
(0.00213662 -0.92154 -1.86622e-05)