/*--------------------------------*- C++ -*----------------------------------*\
| =========                 |                                                 |
| \\      /  F ield         | OpenFOAM: The Open Source CFD Toolbox           |
|  \\    /   O peration     | Version:  v2012                                 |
|   \\  /    A nd           | Website:  www.openfoam.com                      |
|    \\/     M anipulation  |                                                 |
\*---------------------------------------------------------------------------*/
FoamFile
{
    version     2.0;
    format      ascii;
    class       volVectorField;
    location    "0.3";
    object      U;
}
// * * * * * * * * * * * * * * * * * * * * * * * * * * * * * * * * * * * * * //

dimensions      [0 1 -1 0 0 0 0];


internalField   nonuniform List<vector> 
3338
(
(0.000432486 -0.0268425 -3.77533e-06)
(0.000441438 -0.0265885 -3.85355e-06)
(0.000447419 -0.0262415 -3.90584e-06)
(0.00045004 -0.0257987 -3.9288e-06)
(0.000448938 -0.0252571 -3.91925e-06)
(0.000443792 -0.0246141 -3.87442e-06)
(0.000434344 -0.0238671 -3.79203e-06)
(0.000420415 -0.0230137 -3.67054e-06)
(0.000401936 -0.0220519 -3.50931e-06)
(0.00037896 -0.0209794 -3.30881e-06)
(0.000351695 -0.0197939 -3.07086e-06)
(0.000320519 -0.0184922 -2.79876e-06)
(0.000286012 -0.0170704 -2.49756e-06)
(0.000248964 -0.0155228 -2.17415e-06)
(0.00021035 -0.0138419 -1.83704e-06)
(0.000171279 -0.0120183 -1.49592e-06)
(0.000132895 -0.010043 -1.16079e-06)
(9.63552e-05 -0.00791009 -8.41709e-07)
(6.27319e-05 -0.00562108 -5.48126e-07)
(3.47458e-05 -0.00319431 -3.0301e-07)
(9.64624e-06 -0.000744816 -7.79866e-08)
(0.00043475 -0.0268666 -3.79493e-06)
(0.000443689 -0.0266107 -3.87302e-06)
(0.000449633 -0.0262618 -3.92494e-06)
(0.000452189 -0.025817 -3.94731e-06)
(0.000450993 -0.0252732 -3.93694e-06)
(0.000445725 -0.0246281 -3.89103e-06)
(0.000436128 -0.0238789 -3.80733e-06)
(0.000422023 -0.0230235 -3.68429e-06)
(0.000403344 -0.0220597 -3.52132e-06)
(0.000380147 -0.0209854 -3.3189e-06)
(0.000352642 -0.0197983 -3.07888e-06)
(0.000321213 -0.0184953 -2.80459e-06)
(0.000286444 -0.0170725 -2.50114e-06)
(0.000249135 -0.0155243 -2.1755e-06)
(0.000210271 -0.0138432 -1.83626e-06)
(0.000170975 -0.0120198 -1.49323e-06)
(0.000132405 -0.0100451 -1.15652e-06)
(9.57316e-05 -0.00791306 -8.36326e-07)
(6.20021e-05 -0.00562527 -5.41842e-07)
(3.406e-05 -0.00319954 -2.9777e-07)
(8.00571e-06 -0.000745578 -6.98407e-08)
(0.000439597 -0.0268793 -3.8372e-06)
(0.000448605 -0.0266215 -3.91588e-06)
(0.000454553 -0.0262705 -3.96784e-06)
(0.000457046 -0.0258233 -3.98965e-06)
(0.000455716 -0.0252771 -3.97809e-06)
(0.000450244 -0.0246295 -3.93039e-06)
(0.00044037 -0.0238778 -3.84426e-06)
(0.000425922 -0.0230199 -3.71822e-06)
(0.000406837 -0.0220536 -3.5517e-06)
(0.000383181 -0.0209771 -3.34526e-06)
(0.000355169 -0.0197879 -3.10081e-06)
(0.000323196 -0.0184831 -2.82177e-06)
(0.000287862 -0.0170589 -2.51339e-06)
(0.000249981 -0.0155097 -2.18276e-06)
(0.000210559 -0.0138281 -1.83866e-06)
(0.000170745 -0.0120046 -1.49112e-06)
(0.00013172 -0.0100302 -1.15045e-06)
(9.46842e-05 -0.00789898 -8.27116e-07)
(6.06411e-05 -0.00561253 -5.2994e-07)
(3.21706e-05 -0.00318866 -2.81595e-07)
(5.53403e-06 -0.000738468 -5.63293e-08)
(0.000447001 -0.0268949 -3.90185e-06)
(0.000456146 -0.0266352 -3.98173e-06)
(0.000462137 -0.0262821 -4.03407e-06)
(0.000464572 -0.0258326 -4.05538e-06)
(0.00046308 -0.0252841 -4.04241e-06)
(0.000457337 -0.024634 -3.99234e-06)
(0.000447085 -0.0238799 -3.90292e-06)
(0.000432153 -0.0230195 -3.77264e-06)
(0.000412487 -0.0220509 -3.60106e-06)
(0.000388162 -0.0209721 -3.38878e-06)
(0.000359407 -0.0197808 -3.13784e-06)
(0.000326632 -0.0184743 -2.85179e-06)
(0.000290457 -0.0170485 -2.53607e-06)
(0.000251721 -0.0154982 -2.19797e-06)
(0.000211459 -0.0138158 -1.84653e-06)
(0.000170851 -0.011992 -1.49205e-06)
(0.000131124 -0.0100178 -1.14525e-06)
(9.35133e-05 -0.00788699 -8.1689e-07)
(5.90425e-05 -0.00560144 -5.15957e-07)
(3.00328e-05 -0.00317876 -2.62941e-07)
(4.60662e-06 -0.000731216 -4.73518e-08)
(0.000456938 -0.026911 -3.9886e-06)
(0.000466273 -0.0266494 -4.07014e-06)
(0.000472333 -0.0262942 -4.12309e-06)
(0.000474707 -0.0258426 -4.14387e-06)
(0.000473015 -0.0252918 -4.12916e-06)
(0.000466932 -0.0246394 -4.07612e-06)
(0.000456196 -0.0238829 -3.98248e-06)
(0.000440642 -0.0230202 -3.84678e-06)
(0.000420223 -0.0220493 -3.66862e-06)
(0.000395028 -0.0209684 -3.44876e-06)
(0.000365302 -0.0197752 -3.18934e-06)
(0.000331477 -0.018467 -2.89414e-06)
(0.0002942 -0.0170399 -2.56879e-06)
(0.000254341 -0.0154887 -2.22089e-06)
(0.000212971 -0.0138058 -1.85977e-06)
(0.000171317 -0.0119819 -1.49616e-06)
(0.000130658 -0.0100079 -1.14121e-06)
(9.2289e-05 -0.00787786 -8.06235e-07)
(5.7317e-05 -0.0055934 -5.00899e-07)
(2.79342e-05 -0.00317217 -2.44605e-07)
(4.07245e-06 -0.000727034 -4.0969e-08)
(0.000469498 -0.0269274 -4.09823e-06)
(0.00047907 -0.0266637 -4.18184e-06)
(0.000485219 -0.0263064 -4.23557e-06)
(0.000487521 -0.0258525 -4.25572e-06)
(0.000485588 -0.0252994 -4.23891e-06)
(0.000479087 -0.0246445 -4.18223e-06)
(0.000467759 -0.0238855 -4.08343e-06)
(0.00045144 -0.0230204 -3.94105e-06)
(0.000430096 -0.0220472 -3.75482e-06)
(0.000403828 -0.0209641 -3.52559e-06)
(0.000372905 -0.0197689 -3.25573e-06)
(0.000337785 -0.018459 -2.94922e-06)
(0.000299148 -0.0170306 -2.612e-06)
(0.000257901 -0.0154785 -2.25199e-06)
(0.000215164 -0.0137951 -1.87894e-06)
(0.000172215 -0.0119712 -1.50403e-06)
(0.000130409 -0.00999758 -1.13907e-06)
(9.1114e-05 -0.0078683 -7.95998e-07)
(5.55684e-05 -0.00558507 -4.85649e-07)
(2.59286e-05 -0.00316556 -2.26971e-07)
(3.43064e-06 -0.000723159 -3.49991e-08)
(0.000484766 -0.0269442 -4.2315e-06)
(0.000494618 -0.0266785 -4.31756e-06)
(0.000500871 -0.0263189 -4.3722e-06)
(0.000503088 -0.0258627 -4.39161e-06)
(0.000500867 -0.025307 -4.37229e-06)
(0.000493872 -0.0246495 -4.3113e-06)
(0.00048184 -0.023888 -4.20636e-06)
(0.000464614 -0.0230203 -4.05607e-06)
(0.000442169 -0.0220447 -3.86023e-06)
(0.000414628 -0.0209593 -3.61989e-06)
(0.000382281 -0.0197622 -3.3376e-06)
(0.000345622 -0.0184505 -3.01766e-06)
(0.000305369 -0.0170208 -2.66633e-06)
(0.000262476 -0.0154677 -2.29195e-06)
(0.000218115 -0.0137838 -1.90472e-06)
(0.000173634 -0.0119598 -1.51643e-06)
(0.000130472 -0.00998668 -1.13963e-06)
(9.00928e-05 -0.00785827 -7.871e-07)
(5.38988e-05 -0.00557637 -4.71073e-07)
(2.40694e-05 -0.0031588 -2.10768e-07)
(2.75934e-06 -0.000719437 -2.84111e-08)
(0.000502824 -0.0269617 -4.38913e-06)
(0.000512995 -0.0266937 -4.47798e-06)
(0.000519364 -0.0263318 -4.53363e-06)
(0.000521476 -0.025873 -4.55213e-06)
(0.00051892 -0.0253147 -4.52989e-06)
(0.000511349 -0.0246546 -4.46388e-06)
(0.000498502 -0.0238904 -4.35181e-06)
(0.000480223 -0.0230201 -4.19234e-06)
(0.000456505 -0.022042 -3.98539e-06)
(0.000427488 -0.0209542 -3.73217e-06)
(0.000393494 -0.019755 -3.43551e-06)
(0.000355053 -0.0184416 -3.10001e-06)
(0.00031293 -0.0170104 -2.73237e-06)
(0.000268132 -0.0154563 -2.34136e-06)
(0.000221898 -0.0137719 -1.93778e-06)
(0.000175649 -0.011948 -1.53405e-06)
(0.000130929 -0.00997536 -1.14364e-06)
(8.93127e-05 -0.00784792 -7.80306e-07)
(5.2391e-05 -0.0055675 -4.57917e-07)
(2.2396e-05 -0.0031521 -1.9612e-07)
(2.15847e-06 -0.000716026 -2.29009e-08)
(0.000523766 -0.0269798 -4.57192e-06)
(0.000534288 -0.0267095 -4.66385e-06)
(0.000540779 -0.0263451 -4.72056e-06)
(0.000542764 -0.0258837 -4.73797e-06)
(0.000539818 -0.0253227 -4.71232e-06)
(0.000531587 -0.0246598 -4.64056e-06)
(0.000517807 -0.0238927 -4.52035e-06)
(0.00049833 -0.0230197 -4.35042e-06)
(0.000473161 -0.0220389 -4.13081e-06)
(0.000442466 -0.0209488 -3.86295e-06)
(0.0004066 -0.0197473 -3.54994e-06)
(0.000366136 -0.018432 -3.19679e-06)
(0.00032189 -0.0169994 -2.81062e-06)
(0.000274934 -0.0154444 -2.40077e-06)
(0.000226577 -0.0137595 -1.97866e-06)
(0.000178331 -0.0119357 -1.5575e-06)
(0.000131852 -0.00996361 -1.15173e-06)
(8.88457e-05 -0.00783727 -7.7625e-07)
(5.11055e-05 -0.0055585 -4.467e-07)
(2.09329e-05 -0.00314548 -1.83331e-07)
(1.64433e-06 -0.000712911 -1.80205e-08)
(0.000547693 -0.0269986 -4.78078e-06)
(0.000558594 -0.026726 -4.87601e-06)
(0.000565207 -0.0263589 -4.93381e-06)
(0.000567037 -0.0258947 -4.94985e-06)
(0.000563643 -0.0253308 -4.9203e-06)
(0.000554662 -0.0246649 -4.84199e-06)
(0.000539828 -0.023895 -4.7126e-06)
(0.000519001 -0.023019 -4.53089e-06)
(0.000492202 -0.0220355 -4.29706e-06)
(0.000459624 -0.0209428 -4.01275e-06)
(0.000421659 -0.0197391 -3.68144e-06)
(0.000378929 -0.0184219 -3.3085e-06)
(0.000332308 -0.0169878 -2.90161e-06)
(0.000282938 -0.0154318 -2.47068e-06)
(0.000232212 -0.0137465 -2.02789e-06)
(0.000181738 -0.0119227 -1.58727e-06)
(0.000133301 -0.00995138 -1.16441e-06)
(8.8747e-05 -0.00782629 -7.75409e-07)
(5.00833e-05 -0.00554936 -4.37788e-07)
(1.96872e-05 -0.00313895 -1.72439e-07)
(1.21514e-06 -0.000710054 -1.39777e-08)
(0.000574716 -0.0270184 -5.01666e-06)
(0.000586018 -0.0267431 -5.11541e-06)
(0.000592748 -0.0263732 -5.17422e-06)
(0.000594389 -0.0259061 -5.18862e-06)
(0.000590482 -0.0253391 -5.1546e-06)
(0.000580656 -0.0246701 -5.06892e-06)
(0.000564643 -0.023897 -4.92924e-06)
(0.000542311 -0.0230181 -4.7344e-06)
(0.000513699 -0.0220317 -4.48473e-06)
(0.000479028 -0.0209363 -4.18218e-06)
(0.000438735 -0.0197303 -3.83054e-06)
(0.000393493 -0.0184111 -3.43569e-06)
(0.000344243 -0.0169755 -3.00583e-06)
(0.000292204 -0.0154185 -2.5516e-06)
(0.000238859 -0.0137327 -2.08595e-06)
(0.000185926 -0.0119092 -1.62387e-06)
(0.000135327 -0.00993861 -1.18213e-06)
(8.90622e-05 -0.00781492 -7.78186e-07)
(4.93528e-05 -0.00554003 -4.3142e-07)
(1.86556e-05 -0.00313246 -1.63423e-07)
(8.55705e-07 -0.000707406 -1.05886e-08)
(0.000604954 -0.027039 -5.28061e-06)
(0.000616675 -0.026761 -5.38301e-06)
(0.000623512 -0.0263882 -5.44276e-06)
(0.000624923 -0.0259179 -5.45517e-06)
(0.000620434 -0.0253476 -5.41607e-06)
(0.000609661 -0.0246754 -5.32213e-06)
(0.000592338 -0.023899 -5.17102e-06)
(0.000568339 -0.0230169 -4.96163e-06)
(0.000537725 -0.0220275 -4.6945e-06)
(0.000500749 -0.0209293 -4.37182e-06)
(0.000457894 -0.0197208 -3.99783e-06)
(0.000409891 -0.0183996 -3.57887e-06)
(0.000357754 -0.0169624 -3.12382e-06)
(0.000302785 -0.0154043 -2.64402e-06)
(0.000246572 -0.0137182 -2.15333e-06)
(0.000190945 -0.0118949 -1.66772e-06)
(0.000137978 -0.00992526 -1.2053e-06)
(8.98274e-05 -0.00780312 -7.84892e-07)
(4.89347e-05 -0.00553049 -4.27786e-07)
(1.78318e-05 -0.00312599 -1.56222e-07)
(5.5195e-07 -0.000704927 -7.73299e-09)
(0.000638536 -0.0270608 -5.57374e-06)
(0.000650687 -0.0267798 -5.67991e-06)
(0.000657614 -0.0264038 -5.74045e-06)
(0.000658751 -0.0259301 -5.75047e-06)
(0.000653602 -0.0253564 -5.70561e-06)
(0.000641776 -0.0246807 -5.60249e-06)
(0.000623003 -0.0239008 -5.43872e-06)
(0.00059717 -0.0230153 -5.21334e-06)
(0.000564359 -0.0220227 -4.92703e-06)
(0.000524859 -0.0209216 -4.58233e-06)
(0.000479203 -0.0197106 -4.18388e-06)
(0.000428186 -0.0183872 -3.73862e-06)
(0.000372899 -0.0169484 -3.25607e-06)
(0.000314738 -0.0153894 -2.74842e-06)
(0.000255399 -0.0137029 -2.23043e-06)
(0.00019684 -0.0118799 -1.71924e-06)
(0.00014129 -0.00991126 -1.23425e-06)
(9.10722e-05 -0.00779087 -7.95789e-07)
(4.88422e-05 -0.0055207 -4.26992e-07)
(1.72081e-05 -0.00311951 -1.50776e-07)
(2.94296e-07 -0.000702585 -5.32291e-09)
(0.000675598 -0.0270836 -5.89725e-06)
(0.000688186 -0.0267994 -6.00724e-06)
(0.000695181 -0.0264201 -6.06839e-06)
(0.00069599 -0.0259429 -6.07554e-06)
(0.000690098 -0.0253655 -6.02422e-06)
(0.000677103 -0.024686 -5.91089e-06)
(0.000656736 -0.0239025 -5.73321e-06)
(0.000628894 -0.0230134 -5.4903e-06)
(0.000593684 -0.0220175 -5.18307e-06)
(0.000551434 -0.0209133 -4.81436e-06)
(0.000502732 -0.0196996 -4.38933e-06)
(0.000448441 -0.018374 -3.91549e-06)
(0.000389737 -0.0169335 -3.40312e-06)
(0.000328116 -0.0153735 -2.86525e-06)
(0.000265391 -0.0136866 -2.31771e-06)
(0.000203654 -0.011864 -1.77876e-06)
(0.000145298 -0.00989658 -1.26929e-06)
(9.28191e-05 -0.0077781 -8.1107e-07)
(4.90844e-05 -0.00551064 -4.29128e-07)
(1.67759e-05 -0.00311297 -1.47e-07)
(7.54553e-08 -0.000700347 -3.29249e-09)
(0.000716286 -0.0271077 -6.25241e-06)
(0.000729312 -0.0268201 -6.36624e-06)
(0.000736346 -0.0264371 -6.42773e-06)
(0.000736768 -0.0259561 -6.43151e-06)
(0.000730041 -0.0253749 -6.3729e-06)
(0.000715754 -0.0246915 -6.24831e-06)
(0.000693638 -0.0239041 -6.05537e-06)
(0.000663605 -0.0230112 -5.79334e-06)
(0.000625786 -0.0220117 -5.46334e-06)
(0.000580554 -0.0209043 -5.06861e-06)
(0.000528553 -0.0196877 -4.61478e-06)
(0.000470722 -0.0183599 -4.11005e-06)
(0.000408326 -0.0169177 -3.56545e-06)
(0.00034297 -0.0153565 -2.99498e-06)
(0.00027659 -0.0136694 -2.41553e-06)
(0.000211423 -0.0118473 -1.84664e-06)
(0.000150031 -0.00988114 -1.31065e-06)
(9.50869e-05 -0.00776478 -8.30904e-07)
(4.96663e-05 -0.00550024 -4.34228e-07)
(1.65269e-05 -0.00310634 -1.44834e-07)
(-1.10817e-07 -0.000698183 -1.58241e-09)
(0.000760755 -0.0271331 -6.64059e-06)
(0.000774214 -0.0268419 -6.75819e-06)
(0.000781252 -0.026455 -6.81973e-06)
(0.000781217 -0.02597 -6.81953e-06)
(0.000773557 -0.0253846 -6.75278e-06)
(0.000757845 -0.0246969 -6.61576e-06)
(0.000733819 -0.0239054 -6.40616e-06)
(0.000701401 -0.0230086 -6.12332e-06)
(0.000660757 -0.0220053 -5.76866e-06)
(0.000612299 -0.0208945 -5.34577e-06)
(0.00055674 -0.019675 -4.8609e-06)
(0.000495094 -0.0183447 -4.32286e-06)
(0.000428726 -0.0169008 -3.74359e-06)
(0.000359351 -0.0153386 -3.13804e-06)
(0.000289043 -0.0136512 -2.5243e-06)
(0.000220183 -0.0118296 -1.92316e-06)
(0.000155516 -0.00986491 -1.35858e-06)
(9.78896e-05 -0.00775085 -8.55408e-07)
(5.05908e-05 -0.00548948 -4.42325e-07)
(1.64524e-05 -0.00309958 -1.44191e-07)
(-2.69499e-07 -0.000696065 -1.49883e-10)
(0.000809169 -0.0271598 -7.06319e-06)
(0.00082305 -0.0268648 -7.18449e-06)
(0.000830048 -0.0264738 -7.24568e-06)
(0.000829483 -0.0259844 -7.24087e-06)
(0.000820778 -0.0253946 -7.16501e-06)
(0.000803502 -0.0247025 -7.01434e-06)
(0.000777391 -0.0239066 -6.78655e-06)
(0.000742388 -0.0230055 -6.48115e-06)
(0.000698688 -0.0219983 -6.09982e-06)
(0.000646755 -0.0208839 -5.64661e-06)
(0.000587367 -0.0196613 -5.12831e-06)
(0.000521625 -0.0183285 -4.55452e-06)
(0.000450992 -0.0168827 -3.93803e-06)
(0.00037731 -0.0153194 -3.29488e-06)
(0.000302787 -0.0136318 -2.64434e-06)
(0.000229967 -0.011811 -2.00863e-06)
(0.000161773 -0.0098478 -1.41325e-06)
(0.00010124 -0.00773626 -8.84695e-07)
(5.18584e-05 -0.00547829 -4.53418e-07)
(1.65452e-05 -0.00309265 -1.45016e-07)
(-4.05112e-07 -0.000693966 1.051e-09)
(0.000861703 -0.0271881 -7.52176e-06)
(0.000875986 -0.0268889 -7.64658e-06)
(0.000882893 -0.0264935 -7.70699e-06)
(0.000881711 -0.0259995 -7.6968e-06)
(0.000871845 -0.0254049 -7.61081e-06)
(0.000852851 -0.0247081 -7.44516e-06)
(0.000824474 -0.0239075 -7.19759e-06)
(0.000786672 -0.023002 -6.86776e-06)
(0.000739678 -0.0219906 -6.45769e-06)
(0.000684007 -0.0208725 -5.97185e-06)
(0.000620512 -0.0196466 -5.41771e-06)
(0.000550378 -0.0183111 -4.8056e-06)
(0.000475184 -0.0168634 -4.14929e-06)
(0.000396893 -0.0152991 -3.4659e-06)
(0.000317865 -0.0136113 -2.77604e-06)
(0.000240803 -0.0117912 -2.10329e-06)
(0.000168824 -0.00982976 -1.47486e-06)
(0.000105145 -0.00772094 -9.18837e-07)
(5.34697e-05 -0.00546664 -4.67516e-07)
(1.67978e-05 -0.00308551 -1.47237e-07)
(-5.21078e-07 -0.000691863 2.04824e-09)
(0.000918537 -0.027218 -8.01787e-06)
(0.000933198 -0.0269143 -8.146e-06)
(0.000939954 -0.0265141 -8.20509e-06)
(0.000938061 -0.0260152 -8.18871e-06)
(0.000926903 -0.0254156 -8.09145e-06)
(0.00090603 -0.0247137 -7.9094e-06)
(0.000875189 -0.0239082 -7.64034e-06)
(0.000834365 -0.0229979 -7.28414e-06)
(0.000783824 -0.0219821 -6.84312e-06)
(0.000724144 -0.02086 -6.32229e-06)
(0.000656249 -0.0196307 -5.72974e-06)
(0.000581424 -0.0182926 -5.07668e-06)
(0.000501357 -0.0168429 -4.37784e-06)
(0.00041815 -0.0152775 -3.65154e-06)
(0.000334312 -0.0135895 -2.91968e-06)
(0.000252721 -0.0117702 -2.2074e-06)
(0.000176685 -0.00981073 -1.54355e-06)
(0.000109616 -0.00770484 -9.57914e-07)
(5.54231e-05 -0.00545445 -4.84603e-07)
(1.72043e-05 -0.0030781 -1.50807e-07)
(-6.20579e-07 -0.000689732 2.87491e-09)
(0.000979866 -0.0272496 -8.55322e-06)
(0.000994869 -0.0269411 -8.68434e-06)
(0.00100141 -0.0265358 -8.74153e-06)
(0.000998696 -0.0260317 -8.71802e-06)
(0.000986106 -0.0254267 -8.60828e-06)
(0.000963176 -0.0247195 -8.40829e-06)
(0.000929666 -0.0239087 -8.11593e-06)
(0.00088558 -0.0229934 -7.73127e-06)
(0.000831232 -0.0219729 -7.25703e-06)
(0.000767256 -0.0208466 -6.6987e-06)
(0.000694661 -0.0196137 -6.06513e-06)
(0.000614828 -0.0182727 -5.36835e-06)
(0.000529569 -0.016821 -4.6242e-06)
(0.000441124 -0.0152544 -3.85217e-06)
(0.000352166 -0.0135664 -3.07563e-06)
(0.000265746 -0.0117481 -2.32118e-06)
(0.000185375 -0.00979062 -1.61947e-06)
(0.000114657 -0.00768789 -1.00197e-06)
(5.77184e-05 -0.00544169 -5.0468e-07)
(1.77588e-05 -0.0030704 -1.55672e-07)
(-7.05877e-07 -0.000687551 3.54973e-09)
(0.00104589 -0.027283 -9.12954e-06)
(0.0010612 -0.0269693 -9.26332e-06)
(0.00106743 -0.0265586 -9.31788e-06)
(0.00106379 -0.0260488 -9.28625e-06)
(0.00104961 -0.0254381 -9.16265e-06)
(0.00102444 -0.0247252 -8.9431e-06)
(0.000988035 -0.0239088 -8.6255e-06)
(0.000940439 -0.0229882 -8.21021e-06)
(0.000882005 -0.0219628 -7.7003e-06)
(0.000813435 -0.0208321 -7.10189e-06)
(0.000735822 -0.0195955 -6.42452e-06)
(0.000650658 -0.0182515 -5.68122e-06)
(0.000559875 -0.0167976 -4.88883e-06)
(0.000465864 -0.0152299 -4.06823e-06)
(0.000371461 -0.0135418 -3.24414e-06)
(0.000279904 -0.0117246 -2.44485e-06)
(0.000194906 -0.00976937 -1.70275e-06)
(0.000120276 -0.00767003 -1.05108e-06)
(6.03538e-05 -0.00542829 -5.27727e-07)
(1.84569e-05 -0.00306235 -1.61797e-07)
(-7.79235e-07 -0.0006853 4.09555e-09)
(0.00111682 -0.0273182 -9.74871e-06)
(0.00113237 -0.0269991 -9.88466e-06)
(0.00113822 -0.0265826 -9.93584e-06)
(0.00113351 -0.0260668 -9.89492e-06)
(0.00111758 -0.0254499 -9.75605e-06)
(0.00108996 -0.0247309 -9.51514e-06)
(0.00105044 -0.0239087 -9.17027e-06)
(0.00099906 -0.0229824 -8.722e-06)
(0.00093625 -0.0219519 -8.1739e-06)
(0.000862773 -0.0208165 -7.53266e-06)
(0.000779817 -0.0195759 -6.80866e-06)
(0.000688979 -0.0182287 -6.01583e-06)
(0.000592331 -0.0167727 -5.17225e-06)
(0.000492411 -0.0152039 -4.30006e-06)
(0.000392232 -0.0135157 -3.42555e-06)
(0.000295217 -0.0116997 -2.57861e-06)
(0.000205295 -0.00974691 -1.79351e-06)
(0.000126476 -0.00765119 -1.10527e-06)
(6.33289e-05 -0.00541419 -5.53745e-07)
(1.92942e-05 -0.00305391 -1.69138e-07)
(-8.42075e-07 -0.000682957 4.5247e-09)
(0.00119288 -0.0273555 -1.04126e-05)
(0.00120862 -0.0270304 -1.05502e-05)
(0.00121397 -0.0266077 -1.05971e-05)
(0.00120806 -0.0260855 -1.05457e-05)
(0.00119019 -0.0254622 -1.03899e-05)
(0.00115991 -0.0247367 -1.01258e-05)
(0.001117 -0.0239082 -9.75142e-06)
(0.00106157 -0.022976 -9.26775e-06)
(0.000994076 -0.0219399 -8.67876e-06)
(0.000915366 -0.0207997 -7.99185e-06)
(0.000826721 -0.0195549 -7.2182e-06)
(0.000729861 -0.0182045 -6.3728e-06)
(0.00062699 -0.0167462 -5.4749e-06)
(0.00052081 -0.0151762 -4.54807e-06)
(0.000414509 -0.0134881 -3.62011e-06)
(0.000311709 -0.0116734 -2.72267e-06)
(0.000216552 -0.00972315 -1.89186e-06)
(0.000133264 -0.00763129 -1.16459e-06)
(6.66422e-05 -0.00539933 -5.82717e-07)
(2.02677e-05 -0.00304504 -1.77674e-07)
(-8.96018e-07 -0.000680503 4.85314e-09)
(0.0012743 -0.0273948 -1.11233e-05)
(0.00129015 -0.0270634 -1.12619e-05)
(0.00129489 -0.026634 -1.13035e-05)
(0.00128762 -0.026105 -1.12402e-05)
(0.00126762 -0.0254747 -1.10659e-05)
(0.00123444 -0.0247425 -1.07764e-05)
(0.00118789 -0.0239073 -1.03702e-05)
(0.0011281 -0.0229688 -9.84853e-06)
(0.00105559 -0.0219269 -9.21586e-06)
(0.000971306 -0.0207815 -8.48026e-06)
(0.000876619 -0.0195324 -7.65387e-06)
(0.000773367 -0.0181786 -6.75268e-06)
(0.000663907 -0.016718 -5.79728e-06)
(0.0005511 -0.0151468 -4.81259e-06)
(0.000438325 -0.0134588 -3.82812e-06)
(0.000329398 -0.0116454 -2.87718e-06)
(0.000228691 -0.00969802 -1.99791e-06)
(0.000140643 -0.00761028 -1.22908e-06)
(7.02937e-05 -0.00538366 -6.14648e-07)
(2.1374e-05 -0.00303569 -1.87373e-07)
(-9.41909e-07 -0.000677921 5.08828e-09)
(0.00136131 -0.0274363 -1.18829e-05)
(0.00137719 -0.0270981 -1.20218e-05)
(0.00138119 -0.0266616 -1.20569e-05)
(0.00137238 -0.0261253 -1.19802e-05)
(0.00135004 -0.0254877 -1.17854e-05)
(0.00131371 -0.0247481 -1.14685e-05)
(0.00126322 -0.0239059 -1.1028e-05)
(0.00119876 -0.0229608 -1.04655e-05)
(0.00112091 -0.0219128 -9.78615e-06)
(0.00103069 -0.020762 -8.99876e-06)
(0.000929585 -0.0195084 -8.11633e-06)
(0.000819566 -0.018151 -7.15608e-06)
(0.000703132 -0.0166879 -6.1398e-06)
(0.000583325 -0.0151155 -5.094e-06)
(0.000463707 -0.0134276 -4.04979e-06)
(0.000348308 -0.0116159 -3.04235e-06)
(0.000241722 -0.00967143 -2.11176e-06)
(0.000148618 -0.00758806 -1.29878e-06)
(7.42821e-05 -0.00536711 -6.49522e-07)
(2.26115e-05 -0.00302582 -1.98221e-07)
(-9.8095e-07 -0.00067519 5.2419e-09)
(0.00145417 -0.0274801 -1.26935e-05)
(0.00146998 -0.0271346 -1.28317e-05)
(0.0014731 -0.0266906 -1.28592e-05)
(0.00146256 -0.0261464 -1.27674e-05)
(0.00143765 -0.0255011 -1.25502e-05)
(0.0013979 -0.0247538 -1.22034e-05)
(0.00134317 -0.0239041 -1.17259e-05)
(0.0012737 -0.0229519 -1.11198e-05)
(0.00119015 -0.0218975 -1.03906e-05)
(0.00109361 -0.0207411 -9.54813e-06)
(0.000985703 -0.0194826 -8.60632e-06)
(0.000868517 -0.0181215 -7.58351e-06)
(0.000744719 -0.0166559 -6.50295e-06)
(0.00061752 -0.0150823 -5.39262e-06)
(0.000490685 -0.0133947 -4.28542e-06)
(0.000368453 -0.0115846 -3.21831e-06)
(0.000255657 -0.00964329 -2.2335e-06)
(0.000157192 -0.00756458 -1.37371e-06)
(7.86081e-05 -0.00534962 -6.87349e-07)
(2.39774e-05 -0.00301538 -2.10193e-07)
(-1.01357e-06 -0.000672294 5.31757e-09)
(0.00155315 -0.0275262 -1.35575e-05)
(0.00156877 -0.027173 -1.36941e-05)
(0.00157083 -0.0267208 -1.37123e-05)
(0.00155837 -0.0261684 -1.36038e-05)
(0.00153062 -0.0255147 -1.33618e-05)
(0.00148717 -0.0247593 -1.29827e-05)
(0.00142788 -0.0239017 -1.24654e-05)
(0.00135305 -0.0229421 -1.18125e-05)
(0.00126341 -0.021881 -1.10303e-05)
(0.00116017 -0.0207185 -1.01292e-05)
(0.00104505 -0.0194551 -9.12447e-06)
(0.000920288 -0.0180901 -8.03556e-06)
(0.000788713 -0.0166219 -6.88711e-06)
(0.000653724 -0.0150471 -5.70879e-06)
(0.000519284 -0.0133597 -4.53519e-06)
(0.000389853 -0.0115514 -3.40524e-06)
(0.000270503 -0.00961353 -2.3632e-06)
(0.000166371 -0.00753974 -1.45392e-06)
(8.32706e-05 -0.00533112 -7.28115e-07)
(2.54711e-05 -0.00300433 -2.23286e-07)
(-1.04071e-06 -0.000669215 5.32461e-09)
(0.0016585 -0.0275748 -1.44771e-05)
(0.0016738 -0.0272133 -1.46109e-05)
(0.00167464 -0.0267525 -1.46185e-05)
(0.00166001 -0.0261913 -1.44911e-05)
(0.00162917 -0.0255288 -1.42221e-05)
(0.00158169 -0.0247646 -1.38079e-05)
(0.0015175 -0.0238987 -1.32478e-05)
(0.00143694 -0.0229314 -1.25448e-05)
(0.00134082 -0.021863 -1.17061e-05)
(0.00123045 -0.0206944 -1.07429e-05)
(0.0011077 -0.0194257 -9.67149e-06)
(0.000974934 -0.0180567 -8.51271e-06)
(0.000835164 -0.0165858 -7.29274e-06)
(0.00069197 -0.0150098 -6.04279e-06)
(0.00054953 -0.0133227 -4.79935e-06)
(0.000412523 -0.0115163 -3.60325e-06)
(0.000286272 -0.00958204 -2.50097e-06)
(0.000176155 -0.00751348 -1.53942e-06)
(8.82704e-05 -0.00531155 -7.71833e-07)
(2.70904e-05 -0.00299263 -2.37478e-07)
(-1.06249e-06 -0.000665935 5.26362e-09)
(0.0017705 -0.027626 -1.54548e-05)
(0.00178533 -0.0272556 -1.55846e-05)
(0.00178475 -0.0267856 -1.55797e-05)
(0.00176771 -0.026215 -1.54313e-05)
(0.00173348 -0.0255431 -1.51327e-05)
(0.00168165 -0.0247698 -1.46806e-05)
(0.00161218 -0.0238951 -1.40744e-05)
(0.00152549 -0.0229195 -1.3318e-05)
(0.00142247 -0.0218437 -1.2419e-05)
(0.00130456 -0.0206684 -1.13899e-05)
(0.00117372 -0.0193943 -1.0248e-05)
(0.00103252 -0.0180211 -9.01554e-06)
(0.000884114 -0.0165474 -7.72018e-06)
(0.000732294 -0.0149701 -6.39493e-06)
(0.000581443 -0.0132834 -5.07806e-06)
(0.000436477 -0.0114792 -3.81249e-06)
(0.000302969 -0.00954875 -2.64683e-06)
(0.00018655 -0.00748571 -1.63026e-06)
(9.36064e-05 -0.00529085 -8.18486e-07)
(2.88351e-05 -0.00298022 -2.52769e-07)
(-1.07969e-06 -0.000662437 5.14254e-09)
(0.00188945 -0.0276799 -1.64932e-05)
(0.00190365 -0.0272999 -1.66174e-05)
(0.00190142 -0.0268201 -1.65982e-05)
(0.0018817 -0.0262395 -1.64264e-05)
(0.00184376 -0.0255577 -1.60955e-05)
(0.00178722 -0.0247747 -1.56022e-05)
(0.00171209 -0.0238907 -1.49466e-05)
(0.00161884 -0.0229064 -1.4133e-05)
(0.00150849 -0.0218227 -1.317e-05)
(0.00138257 -0.0206406 -1.2071e-05)
(0.0012432 -0.0193608 -1.08546e-05)
(0.0010931 -0.0179833 -9.54446e-06)
(0.000935609 -0.0165067 -8.16984e-06)
(0.000774721 -0.0149282 -6.76544e-06)
(0.000615047 -0.0132419 -5.37155e-06)
(0.000461727 -0.0114399 -4.03304e-06)
(0.000320601 -0.00951356 -2.80087e-06)
(0.000197555 -0.00745635 -1.72642e-06)
(9.92796e-05 -0.00526895 -8.6809e-07)
(3.07033e-05 -0.00296708 -2.69142e-07)
(-1.09222e-06 -0.000658705 4.95974e-09)
(0.00201564 -0.0277364 -1.75947e-05)
(0.00202902 -0.0273463 -1.77118e-05)
(0.00202489 -0.026856 -1.76761e-05)
(0.0020022 -0.0262649 -1.74783e-05)
(0.00196021 -0.0255725 -1.71121e-05)
(0.00189858 -0.0247793 -1.65744e-05)
(0.00181736 -0.0238855 -1.58657e-05)
(0.00171713 -0.0228921 -1.49911e-05)
(0.00159898 -0.0218001 -1.396e-05)
(0.00146457 -0.0206108 -1.2787e-05)
(0.00131619 -0.0193251 -1.14919e-05)
(0.00115672 -0.017943 -1.01e-05)
(0.000989681 -0.0164635 -8.64201e-06)
(0.000819284 -0.0148837 -7.1546e-06)
(0.000650355 -0.013198 -5.67991e-06)
(0.000488285 -0.0113984 -4.26502e-06)
(0.000339173 -0.00947637 -2.96312e-06)
(0.000209173 -0.00742533 -1.82796e-06)
(0.000105288 -0.00524578 -9.20622e-07)
(3.26953e-05 -0.00295314 -2.86601e-07)
(-1.10076e-06 -0.000654721 4.72261e-09)
(0.00214939 -0.0277958 -1.87623e-05)
(0.00216173 -0.0273949 -1.88703e-05)
(0.00215544 -0.0268935 -1.88157e-05)
(0.00212945 -0.0262911 -1.85892e-05)
(0.00208305 -0.0255876 -1.81844e-05)
(0.00201591 -0.0247835 -1.75987e-05)
(0.00192817 -0.0238794 -1.68331e-05)
(0.00182048 -0.0228763 -1.58934e-05)
(0.00169404 -0.0217758 -1.479e-05)
(0.00155066 -0.020579 -1.35386e-05)
(0.00139278 -0.019287 -1.21606e-05)
(0.00122343 -0.0179003 -1.06825e-05)
(0.00104637 -0.0164177 -9.13706e-06)
(0.000866 -0.0148366 -7.56256e-06)
(0.000687386 -0.0131516 -6.00333e-06)
(0.000516157 -0.0113546 -4.50846e-06)
(0.00035869 -0.0094371 -3.13362e-06)
(0.000221405 -0.00739255 -1.93484e-06)
(0.000111633 -0.00522128 -9.76097e-07)
(3.48092e-05 -0.00293837 -3.05125e-07)
(-1.10509e-06 -0.000650468 4.42792e-09)
(0.00229101 -0.0278581 -1.99985e-05)
(0.00230207 -0.0274456 -2.00954e-05)
(0.00229332 -0.0269323 -2.00194e-05)
(0.0022637 -0.026318 -1.97611e-05)
(0.00221247 -0.0256027 -1.93143e-05)
(0.0021394 -0.0247872 -1.86768e-05)
(0.00204466 -0.0238722 -1.78501e-05)
(0.00192901 -0.0228591 -1.6841e-05)
(0.00179378 -0.0217495 -1.56608e-05)
(0.00164091 -0.0205448 -1.43266e-05)
(0.001473 -0.0192465 -1.28611e-05)
(0.00129329 -0.0178549 -1.12925e-05)
(0.00110571 -0.0163692 -9.65519e-06)
(0.000914896 -0.0147869 -7.98957e-06)
(0.000726149 -0.0131025 -6.34186e-06)
(0.000545352 -0.0113083 -4.76347e-06)
(0.00037915 -0.00939564 -3.31236e-06)
(0.00023425 -0.00735794 -2.0471e-06)
(0.000118311 -0.00519539 -1.03448e-06)
(3.70451e-05 -0.00292273 -3.24721e-07)
(-1.10587e-06 -0.000645931 4.08304e-09)
(0.00244082 -0.0279234 -2.13063e-05)
(0.00245034 -0.0274985 -2.13898e-05)
(0.00243882 -0.0269727 -2.12895e-05)
(0.00240516 -0.0263457 -2.0996e-05)
(0.0023487 -0.025618 -2.05035e-05)
(0.00226921 -0.0247904 -1.98101e-05)
(0.00216699 -0.023864 -1.89181e-05)
(0.00204286 -0.0228403 -1.78349e-05)
(0.0018983 -0.0217212 -1.65734e-05)
(0.0017354 -0.0205084 -1.51516e-05)
(0.00155693 -0.0192033 -1.35939e-05)
(0.00136632 -0.0178067 -1.19302e-05)
(0.00116772 -0.0163178 -1.01967e-05)
(0.000965983 -0.0147342 -8.43569e-06)
(0.000766655 -0.0130507 -6.69563e-06)
(0.000575868 -0.0112594 -5.03002e-06)
(0.000400558 -0.0093519 -3.49939e-06)
(0.000247706 -0.00732142 -2.16468e-06)
(0.000125322 -0.00516803 -1.09579e-06)
(3.94011e-05 -0.00290616 -3.45366e-07)
(-1.10272e-06 -0.000641092 3.68342e-09)
(0.00259917 -0.0279917 -2.26886e-05)
(0.00260686 -0.0275537 -2.27561e-05)
(0.00259219 -0.0270145 -2.26284e-05)
(0.0025541 -0.0263742 -2.22963e-05)
(0.00249193 -0.0256332 -2.17539e-05)
(0.00240554 -0.0247929 -2.10002e-05)
(0.00229529 -0.0238545 -2.00382e-05)
(0.00216214 -0.0228197 -1.88763e-05)
(0.00200769 -0.0216907 -1.75284e-05)
(0.00183419 -0.0204694 -1.60142e-05)
(0.00164461 -0.0191574 -1.43595e-05)
(0.00144257 -0.0177556 -1.2596e-05)
(0.00123243 -0.0162634 -1.07617e-05)
(0.00101928 -0.0146786 -8.90111e-06)
(0.000808905 -0.012996 -7.06462e-06)
(0.000607711 -0.0112079 -5.30816e-06)
(0.000422908 -0.00930578 -3.69464e-06)
(0.000261772 -0.0072829 -2.2876e-06)
(0.000132664 -0.00513915 -1.15997e-06)
(4.18772e-05 -0.00288862 -3.67067e-07)
(-1.09635e-06 -0.000635936 3.23686e-09)
(0.0027664 -0.0280631 -2.41484e-05)
(0.00277192 -0.0276112 -2.4197e-05)
(0.00275373 -0.0270578 -2.40386e-05)
(0.00271075 -0.0264032 -2.36638e-05)
(0.00264239 -0.0256484 -2.30674e-05)
(0.00254855 -0.0247947 -2.22488e-05)
(0.00242973 -0.0238436 -2.12119e-05)
(0.00228696 -0.0227973 -1.99661e-05)
(0.00212204 -0.0216579 -1.85268e-05)
(0.00193736 -0.0204277 -1.69149e-05)
(0.00173609 -0.0191085 -1.51583e-05)
(0.00152205 -0.0177014 -1.329e-05)
(0.00129984 -0.0162059 -1.13504e-05)
(0.00107478 -0.0146199 -9.38579e-06)
(0.000852905 -0.0129384 -7.4489e-06)
(0.000640873 -0.0111536 -5.59781e-06)
(0.000446198 -0.00925718 -3.89811e-06)
(0.000276442 -0.00724229 -2.41579e-06)
(0.000140333 -0.00510867 -1.22703e-06)
(4.44708e-05 -0.00287008 -3.89794e-07)
(-1.08629e-06 -0.000630446 2.73782e-09)
(0.00294287 -0.0281377 -2.56888e-05)
(0.00294587 -0.0276709 -2.57155e-05)
(0.0029237 -0.0271024 -2.55224e-05)
(0.00287536 -0.0264329 -2.51009e-05)
(0.00280027 -0.0256633 -2.44457e-05)
(0.00269843 -0.0247955 -2.35573e-05)
(0.00257042 -0.0238313 -2.24402e-05)
(0.00241745 -0.0227728 -2.11053e-05)
(0.00224143 -0.0216227 -1.95691e-05)
(0.00204496 -0.0203833 -1.78544e-05)
(0.00183141 -0.0190566 -1.59905e-05)
(0.00160481 -0.017644 -1.40127e-05)
(0.00136998 -0.0161451 -1.19629e-05)
(0.0011325 -0.014558 -9.88985e-06)
(0.000898644 -0.0128776 -7.84837e-06)
(0.000675353 -0.0110964 -5.89898e-06)
(0.000470419 -0.00920602 -4.1097e-06)