/*--------------------------------*- C++ -*----------------------------------*\
| =========                 |                                                 |
| \\      /  F ield         | OpenFOAM: The Open Source CFD Toolbox           |
|  \\    /   O peration     | Version:  v2012                                 |
|   \\  /    A nd           | Website:  www.openfoam.com                      |
|    \\/     M anipulation  |                                                 |
\*---------------------------------------------------------------------------*/
FoamFile
{
    version     2.0;
    format      ascii;
    class       volVectorField;
    location    "0.3";
    object      U;
}
// * * * * * * * * * * * * * * * * * * * * * * * * * * * * * * * * * * * * * //

dimensions      [0 1 -1 0 0 0 0];


internalField   nonuniform List<vector> 
3326
(
(0.0051173 -0.00754198 -4.46847e-05)
(0.00404747 -0.00640021 -3.53449e-05)
(0.00309085 -0.00531347 -2.69934e-05)
(0.00225007 -0.00427285 -1.96529e-05)
(0.0015292 -0.0032723 -1.33589e-05)
(0.000932824 -0.00231161 -8.1514e-06)
(0.000470346 -0.00140034 -4.11237e-06)
(0.000149414 -0.000565318 -1.30976e-06)
(-4.78288e-06 9.72796e-05 1.72644e-08)
(0.00898769 -0.0109848 -7.84719e-05)
(0.00757685 -0.00964752 -6.61556e-05)
(0.00627658 -0.00839729 -5.48048e-05)
(0.00508938 -0.00722331 -4.444e-05)
(0.00401702 -0.00611508 -3.50785e-05)
(0.00306113 -0.00506246 -2.67333e-05)
(0.0022235 -0.00405656 -1.94205e-05)
(0.00150753 -0.00309159 -1.31694e-05)
(0.000917037 -0.00216775 -8.01334e-06)
(0.000460657 -0.00129525 -4.0276e-06)
(0.000145205 -0.000501859 -1.2729e-06)
(-5.28416e-06 0.000115922 2.22901e-08)
(0.0229991 -0.075477 -0.000200723)
(0.0257493 -0.0781814 -0.000224723)
(0.028445 -0.0802479 -0.000248255)
(0.0310483 -0.081668 -0.000270972)
(0.0335095 -0.0824457 -0.000292459)
(0.0357881 -0.082595 -0.000312343)
(0.0378408 -0.0821386 -0.000330267)
(0.0396306 -0.0811111 -0.000345885)
(0.0411269 -0.0795543 -0.000358953)
(0.0423063 -0.0775186 -0.000369245)
(0.0431514 -0.0750595 -0.000376631)
(0.0436536 -0.0722379 -0.000381011)
(0.0438105 -0.0691163 -0.00038239)
(0.0436288 -0.0657591 -0.000380802)
(0.0431209 -0.0622288 -0.000376379)
(0.0423067 -0.0585868 -0.000369272)
(0.0412104 -0.0548895 -0.00035971)
(0.0398616 -0.0511892 -0.000347936)
(0.038292 -0.0475316 -0.000334244)
(0.0365364 -0.0439567 -0.00031892)
(0.0346295 -0.0404969 -0.000302281)
(0.0326065 -0.0371785 -0.000284623)
(0.0305009 -0.0340206 -0.000266249)
(0.028345 -0.0310366 -0.00024743)
(0.0261678 -0.0282343 -0.00022843)
(0.0239963 -0.0256162 -0.000209475)
(0.0218532 -0.0231807 -0.000190773)
(0.019759 -0.0209227 -0.000172494)
(0.0177305 -0.0188345 -0.000154789)
(0.0157822 -0.0169068 -0.000137782)
(0.0139248 -0.0151278 -0.000121569)
(0.0121673 -0.0134859 -0.000106227)
(0.0105161 -0.0119687 -9.18138e-05)
(0.00897612 -0.0105638 -7.83694e-05)
(0.00755062 -0.00925907 -6.59258e-05)
(0.00624149 -0.00804258 -5.44975e-05)
(0.00505007 -0.00690295 -4.40968e-05)
(0.00397739 -0.0058295 -3.47323e-05)
(0.00302415 -0.00481191 -2.64104e-05)
(0.00219147 -0.00384141 -1.91408e-05)
(0.00148195 -0.00291241 -1.29459e-05)
(0.000898713 -0.0020256 -7.85323e-06)
(0.000449545 -0.00119179 -3.93049e-06)
(0.000140458 -0.000439697 -1.23133e-06)
(-5.82198e-06 0.000133935 2.77197e-08)
(0.0255619 -0.0809657 -0.000223086)
(0.0285217 -0.0835995 -0.000248923)
(0.0314025 -0.0855279 -0.000274062)
(0.034158 -0.0867476 -0.000298118)
(0.0367362 -0.0872701 -0.000320616)
(0.0390941 -0.0871163 -0.000341204)
(0.0411876 -0.0863188 -0.000359472)
(0.0429778 -0.0849201 -0.000375107)
(0.0444361 -0.0829727 -0.000387831)
(0.0455394 -0.0805352 -0.000397471)
(0.0462745 -0.0776732 -0.000403885)
(0.0466354 -0.0744548 -0.000407045)
(0.0466255 -0.0709508 -0.000406956)
(0.0462552 -0.0672312 -0.000403735)
(0.0455437 -0.0633645 -0.000397524)
(0.044515 -0.059415 -0.000388554)
(0.0431997 -0.0554424 -0.000377072)
(0.0416313 -0.0514997 -0.000363391)
(0.039847 -0.0476336 -0.000347815)
(0.0378844 -0.0438826 -0.000330692)
(0.0357823 -0.0402783 -0.000312343)
(0.0335775 -0.0368442 -0.000293103)
(0.0313058 -0.0335974 -0.000273274)
(0.0289998 -0.0305479 -0.00025315)
(0.0266899 -0.0277009 -0.000232987)
(0.024402 -0.0250557 -0.00021302)
(0.0221591 -0.0226081 -0.000193442)
(0.0199803 -0.0203502 -0.000174425)
(0.0178817 -0.0182721 -0.000156106)
(0.0158761 -0.0163621 -0.0001386)
(0.0139733 -0.014607 -0.00012199)
(0.0121805 -0.0129933 -0.000106341)
(0.0105032 -0.0115075 -9.17001e-05)
(0.00894487 -0.0101361 -7.80968e-05)
(0.00750766 -0.00886625 -6.55506e-05)
(0.00619227 -0.00768532 -5.40679e-05)
(0.00499917 -0.00658158 -4.36524e-05)
(0.00392836 -0.00554405 -3.43044e-05)
(0.00297984 -0.00456238 -2.60236e-05)
(0.0021539 -0.00362786 -1.88127e-05)
(0.00145243 -0.00273521 -1.26881e-05)
(0.000877813 -0.00188553 -7.67067e-06)
(0.000437015 -0.00109028 -3.82099e-06)
(0.000135157 -0.000379038 -1.18494e-06)
(-6.39297e-06 0.000151222 3.35302e-08)
(0.0284429 -0.0869647 -0.000248235)
(0.0316256 -0.0894899 -0.000276008)
(0.0346955 -0.0912362 -0.000302809)
(0.0376036 -0.0922083 -0.000328185)
(0.0402926 -0.0924233 -0.000351664)
(0.0427192 -0.0919137 -0.000372837)
(0.0448366 -0.0907214 -0.000391329)
(0.046607 -0.0889007 -0.000406776)
(0.0480017 -0.0865136 -0.000418962)
(0.049002 -0.0836304 -0.000427688)
(0.0495971 -0.0803252 -0.000432895)
(0.049787 -0.0766761 -0.000434548)
(0.0495794 -0.0727607 -0.000432748)
(0.0489919 -0.068656 -0.000427618)
(0.0480484 -0.0644349 -0.000419395)
(0.0467803 -0.0601658 -0.000408324)
(0.0452227 -0.05591 -0.000394737)
(0.0434154 -0.0517218 -0.000378961)
(0.0413992 -0.0476468 -0.000361371)
(0.0392165 -0.0437227 -0.000342318)
(0.0369082 -0.0399784 -0.000322176)
(0.0345141 -0.0364351 -0.000301278)
(0.0320708 -0.0331062 -0.000279956)
(0.0296121 -0.029999 -0.000258494)
(0.0271679 -0.0271149 -0.000237163)
(0.0247642 -0.0244503 -0.000216181)
(0.0224227 -0.0219975 -0.000195745)
(0.0201617 -0.0197464 -0.000176008)
(0.0179956 -0.0176841 -0.000157102)
(0.0159361 -0.0157972 -0.000139124)
(0.0139911 -0.0140705 -0.000122147)
(0.0121667 -0.0124889 -0.000106221)
(0.0104667 -0.0110378 -9.13821e-05)
(0.00889337 -0.00970263 -7.76472e-05)
(0.00744743 -0.00846983 -6.50251e-05)
(0.00612868 -0.00732629 -5.35127e-05)
(0.00493642 -0.00625985 -4.31048e-05)
(0.00386987 -0.00525935 -3.37937e-05)
(0.00292811 -0.00431438 -2.5572e-05)
(0.00211077 -0.00341641 -1.8436e-05)
(0.00141895 -0.00256039 -1.23957e-05)
(0.000854349 -0.00174789 -7.4657e-06)
(0.000423049 -0.000990965 -3.69896e-06)
(0.000129312 -0.000320076 -1.13377e-06)
(-7.00073e-06 0.000167701 3.97467e-08)
(0.0316914 -0.0935217 -0.000276581)
(0.0351045 -0.0958926 -0.000306378)
(0.0383665 -0.0974045 -0.000334842)
(0.0414234 -0.0980704 -0.000361532)
(0.044215 -0.0979187 -0.000385891)
(0.0466935 -0.0969921 -0.000407535)
(0.0488137 -0.0953462 -0.000426033)
(0.0505372 -0.093046 -0.00044109)
(0.0518393 -0.090167 -0.000452449)
(0.0527034 -0.0867896 -0.000460005)
(0.0531252 -0.0829998 -0.000463682)
(0.0531091 -0.0788837 -0.000463555)
(0.0526706 -0.0745281 -0.000459724)
(0.0518329 -0.0700153 -0.000452425)
(0.050628 -0.0654236 -0.000441906)
(0.0490927 -0.0608238 -0.000428517)
(0.0472695 -0.0562792 -0.0004126)
(0.0452025 -0.0518435 -0.000394568)
(0.0429382 -0.0475617 -0.000374802)
(0.0405218 -0.0434689 -0.000353719)
(0.0379978 -0.0395912 -0.000331686)
(0.0354072 -0.0359463 -0.000309079)
(0.0327883 -0.0325441 -0.000286218)
(0.0301745 -0.0293878 -0.000263407)
(0.027596 -0.0264753 -0.0002409)
(0.0250775 -0.0237993 -0.000218919)
(0.0226399 -0.0213492 -0.00019764)
(0.0202996 -0.0191116 -0.000177214)
(0.0180698 -0.0170715 -0.000157749)
(0.0159601 -0.015213 -0.000139335)
(0.013977 -0.0135192 -0.000122024)
(0.0121248 -0.0119737 -0.000105856)
(0.0104059 -0.0105605 -9.08508e-05)
(0.00882091 -0.00926424 -7.70152e-05)
(0.0073696 -0.00807071 -6.43457e-05)
(0.00605039 -0.00696626 -5.28295e-05)
(0.00486173 -0.00593847 -4.24527e-05)
(0.00380179 -0.004976 -3.31994e-05)
(0.00286896 -0.00406849 -2.50554e-05)
(0.00206204 -0.00320751 -1.80106e-05)
(0.00138152 -0.00238835 -1.20688e-05)
(0.000828307 -0.00161301 -7.23823e-06)
(0.000407665 -0.000894135 -3.56452e-06)
(0.000122913 -0.000262993 -1.07776e-06)
(-7.64091e-06 0.000183298 4.63389e-08)
(0.0353493 -0.100684 -0.000308514)
(0.0390024 -0.102845 -0.00034039)
(0.0424577 -0.104059 -0.000370558)
(0.0456574 -0.104353 -0.000398477)
(0.0485361 -0.103765 -0.000423615)
(0.0510463 -0.102354 -0.000445517)
(0.0531419 -0.100188 -0.000463822)
(0.0547877 -0.0973464 -0.00047818)
(0.0559611 -0.0939175 -0.000488438)
(0.0566521 -0.0899954 -0.000494462)
(0.056861 -0.0856763 -0.000496302)
(0.0566008 -0.0810572 -0.000494025)
(0.0558933 -0.0762318 -0.000487866)
(0.0547709 -0.0712894 -0.000478064)
(0.0532718 -0.0663118 -0.000464994)
(0.0514414 -0.0613727 -0.000449013)
(0.0493273 -0.0565353 -0.000430572)
(0.0469806 -0.0518531 -0.000410086)
(0.0444513 -0.0473683 -0.000388018)
(0.0417891 -0.0431135 -0.000364778)
(0.03904 -0.0391108 -0.000340789)
(0.0362474 -0.0353739 -0.000316411)
(0.0334493 -0.0319081 -0.000291993)
(0.0306798 -0.0287127 -0.000267818)
(0.0279678 -0.0257813 -0.000244148)
(0.025337 -0.023103 -0.000221183)
(0.0228063 -0.0206636 -0.000199095)
(0.0203908 -0.0184469 -0.00017801)
(0.0181014 -0.0164352 -0.000158027)
(0.0159461 -0.0146106 -0.000139213)
(0.0139293 -0.0129544 -0.000121608)
(0.0120536 -0.0114487 -0.000105235)
(0.0103198 -0.0100767 -9.00998e-05)
(0.00872709 -0.00882199 -7.61961e-05)
(0.00727378 -0.00766977 -6.35095e-05)
(0.0059573 -0.00660606 -5.20168e-05)
(0.00477495 -0.00561817 -4.16952e-05)
(0.00372413 -0.00469467 -3.25214e-05)
(0.00280234 -0.00382523 -2.44739e-05)
(0.00200778 -0.00300165 -1.75368e-05)
(0.00134015 -0.0022195 -1.17075e-05)
(0.000799725 -0.00148123 -6.98854e-06)
(0.000390859 -0.000800052 -3.41767e-06)
(0.000115973 -0.000207979 -1.01701e-06)
(-8.31735e-06 0.000197936 5.33351e-08)
(0.0394766 -0.108508 -0.000344527)
(0.0433735 -0.110389 -0.00037855)
(0.0470189 -0.111232 -0.000410358)
(0.0503485 -0.111074 -0.000439432)
(0.0532953 -0.109973 -0.000465143)
(0.0558093 -0.108 -0.000487103)
(0.0578476 -0.105239 -0.000504883)
(0.0593765 -0.101787 -0.000518247)
(0.0603802 -0.0977469 -0.000526998)
(0.0608534 -0.0932253 -0.000531148)
(0.0608059 -0.0883317 -0.000530725)
(0.0602576 -0.083172 -0.000525958)
(0.0592406 -0.0778487 -0.000517074)
(0.0577946 -0.072456 -0.00050447)
(0.0559677 -0.0670798 -0.00048852)
(0.0538117 -0.0617945 -0.000469714)
(0.0513822 -0.0566635 -0.000448504)
(0.0487349 -0.0517377 -0.000425408)
(0.0459251 -0.0470569 -0.000400879)
(0.043005 -0.0426489 -0.000375399)
(0.0400234 -0.0385318 -0.000349371)
(0.0370238 -0.0347139 -0.000323195)
(0.0340452 -0.0311961 -0.000297194)
(0.0311203 -0.0279725 -0.000271667)
(0.028277 -0.0250328 -0.000246847)
(0.0255371 -0.0223616 -0.000222934)
(0.0229179 -0.0199415 -0.000200069)
(0.0204319 -0.0177531 -0.000178371)
(0.0180881 -0.0157764 -0.000157911)
(0.0158922 -0.0139912 -0.000138743)
(0.0138467 -0.0123773 -0.000120887)
(0.0119522 -0.0109154 -0.00010435)
(0.0102079 -0.00958757 -8.91231e-05)
(0.00861141 -0.00837691 -7.51867e-05)
(0.0071598 -0.00726801 -6.25145e-05)
(0.00584922 -0.00624654 -5.10736e-05)
(0.00467611 -0.00529969 -4.08323e-05)
(0.00363687 -0.00441598 -3.17596e-05)
(0.00272836 -0.00358519 -2.38279e-05)
(0.001948 -0.00279931 -1.70148e-05)
(0.0012949 -0.00205426 -1.13124e-05)
(0.000768615 -0.0013529 -6.71682e-06)
(0.000372664 -0.000708987 -3.25865e-06)
(0.00010849 -0.000155216 -9.515e-07)
(-9.02624e-06 0.000211539 6.07067e-08)
(0.0441326 -0.117049 -0.000385174)
(0.0482752 -0.118569 -0.000421319)
(0.0521016 -0.118951 -0.000454733)
(0.0555435 -0.118253 -0.000484761)
(0.0585305 -0.116547 -0.000510852)
(0.0610146 -0.113924 -0.000532522)
(0.0629539 -0.110487 -0.000549469)
(0.064321 -0.106349 -0.000561391)
(0.0651053 -0.101631 -0.000568258)
(0.0653113 -0.096453 -0.000570046)
(0.0649566 -0.0909373 -0.000566972)
(0.0640727 -0.0852006 -0.000559248)
(0.0627003 -0.0793519 -0.000547289)
(0.0608905 -0.073491 -0.000531485)
(0.0586991 -0.0677054 -0.000512375)
(0.0561873 -0.0620707 -0.000490445)
(0.0534167 -0.0566479 -0.000466274)
(0.0504492 -0.0514852 -0.000440368)
(0.0473437 -0.0466175 -0.000413272)
(0.0441557 -0.0420681 -0.000385441)
(0.0409349 -0.0378489 -0.000357335)
(0.0377259 -0.0339633 -0.000329322)
(0.0345663 -0.0304061 -0.000301748)
(0.0314881 -0.0271668 -0.000274877)
(0.0285171 -0.0242298 -0.000248947)
(0.025673 -0.0215759 -0.000224119)
(0.0229705 -0.0191841 -0.000200531)
(0.0204199 -0.017032 -0.000178266)
(0.0180274 -0.0150968 -0.000157382)
(0.0157967 -0.0133566 -0.00013791)
(0.0137279 -0.0117894 -0.000119851)
(0.0118198 -0.010375 -0.000103194)
(0.0100696 -0.00909445 -8.79166e-05)
(0.00847366 -0.0079302 -7.39841e-05)
(0.00702746 -0.00686642 -6.13595e-05)
(0.0057262 -0.0058886 -4.99995e-05)
(0.00456519 -0.00498381 -3.98641e-05)
(0.00354013 -0.00414062 -3.0915e-05)
(0.00264704 -0.00334892 -2.3118e-05)
(0.00188281 -0.00260098 -1.64456e-05)
(0.00124582 -0.00189302 -1.08838e-05)
(0.000735046 -0.00122835 -6.42356e-06)
(0.000353091 -0.0006212 -3.08762e-06)
(0.00010048 -0.000104886 -8.81376e-07)
(-9.77131e-06 0.000224033 6.84793e-08)
(0.0493883 -0.126366 -0.000431032)
(0.0537716 -0.127426 -0.000469308)
(0.0577647 -0.127245 -0.000504145)
(0.0612923 -0.1259 -0.000534955)
(0.0642853 -0.123487 -0.000561064)
(0.066695 -0.120115 -0.000582121)
(0.0684859 -0.115911 -0.000597738)
(0.0696358 -0.111007 -0.0006078)
(0.0701442 -0.105539 -0.000612225)
(0.0700247 -0.0996459 -0.000611206)
(0.0693072 -0.0934612 -0.000604933)
(0.0680338 -0.0871111 -0.000593841)
(0.0662579 -0.0807121 -0.000578331)
(0.06404 -0.0743673 -0.000558993)
(0.0614472 -0.0681659 -0.000536355)
(0.0585479 -0.0621815 -0.000511064)
(0.0554116 -0.0564728 -0.000483681)
(0.0521046 -0.0510827 -0.000454829)
(0.0486903 -0.0460409 -0.000425022)
(0.0452255 -0.0413641 -0.000394788)
(0.0417614 -0.0370581 -0.000364548)
(0.0383416 -0.0331194 -0.000334703)
(0.035003 -0.0295374 -0.000305558)
(0.0317751 -0.0262954 -0.000277387)
(0.0286817 -0.0233733 -0.000250382)
(0.0257393 -0.0207474 -0.000224701)
(0.0229602 -0.0183931 -0.000200441)
(0.0203516 -0.016285 -0.000177671)
(0.0179172 -0.0143981 -0.00015642)
(0.015658 -0.0127084 -0.0001367)
(0.0135719 -0.0111925 -0.000118489)
(0.0116556 -0.00982919 -0.000101762)
(0.00990464 -0.0085987 -8.64762e-05)
(0.00831357 -0.00748303 -7.2587e-05)
(0.00687679 -0.00646608 -6.00441e-05)
(0.00558822 -0.00553314 -4.87951e-05)
(0.00444236 -0.00467133 -3.87916e-05)
(0.00343399 -0.00386924 -2.99884e-05)
(0.00255858 -0.003117 -2.23455e-05)
(0.00181231 -0.00240712 -1.58299e-05)
(0.00119304 -0.00173619 -1.04227e-05)
(0.000699061 -0.00110791 -6.10923e-06)
(0.00033219 -0.00053695 -2.90496e-06)
(9.19482e-05 -5.71653e-05 -8.06689e-07)
(-1.05486e-05 0.000235344 7.66231e-08)
(0.0553179 -0.13652 -0.000482802)
(0.0599335 -0.137002 -0.00052307)
(0.0640697 -0.136136 -0.000559195)
(0.0676483 -0.134025 -0.000590412)
(0.0706005 -0.130786 -0.000616207)
(0.0728825 -0.126558 -0.000636107)
(0.0744639 -0.121486 -0.00064994)
(0.0753328 -0.115727 -0.000657508)
(0.0754988 -0.109436 -0.000658986)
(0.074989 -0.102766 -0.000654522)
(0.0738455 -0.0958651 -0.000644569)
(0.0721249 -0.088868 -0.000629538)
(0.0698924 -0.0818964 -0.000610076)
(0.0672214 -0.0750564 -0.000586752)
(0.0641881 -0.0684361 -0.000560297)
(0.0608706 -0.062107 -0.000531331)
(0.0573442 -0.0561218 -0.000500565)
(0.0536807 -0.0505182 -0.000468581)
(0.0499457 -0.0453181 -0.000435992)
(0.0461981 -0.0405312 -0.000403274)
(0.0424883 -0.0361556 -0.000370901)
(0.0388592 -0.0321808 -0.000339219)
(0.0353451 -0.0285894 -0.000308551)
(0.0319733 -0.0253592 -0.000279116)
(0.0287641 -0.0224646 -0.000251106)
(0.0257312 -0.0198779 -0.000224629)
(0.0228831 -0.0175706 -0.000199771)
(0.0202244 -0.0155146 -0.00017656)
(0.0177554 -0.0136825 -0.00015501)
(0.0154748 -0.0120486 -0.000135101)
(0.0133778 -0.0105884 -0.000116796)
(0.0114592 -0.00927953 -0.000100047)
(0.00971263 -0.00810175 -8.48007e-05)
(0.00813117 -0.00703672 -7.09946e-05)
(0.00670779 -0.00606807 -5.8569e-05)
(0.00543549 -0.00518113 -4.74616e-05)
(0.00430773 -0.00436302 -3.76164e-05)
(0.00331869 -0.00360252 -2.89817e-05)
(0.00246309 -0.00288998 -2.15118e-05)
(0.00173666 -0.00221821 -1.51693e-05)
(0.00113662 -0.00158415 -9.93009e-06)
(0.000660758 -0.000991892 -5.77461e-06)
(0.00030999 -0.000456483 -2.71097e-06)
(8.2918e-05 -1.22265e-05 -7.27624e-07)
(-1.13612e-05 0.000245402 8.51564e-08)
(0.0620107 -0.147563 -0.000541195)
(0.0668387 -0.14733 -0.000583362)
(0.0710844 -0.14564 -0.000620397)
(0.0746665 -0.142624 -0.000651695)
(0.077521 -0.13843 -0.000676587)
(0.0796078 -0.133223 -0.000694837)
(0.0809078 -0.127176 -0.000706162)
(0.0814194 -0.120469 -0.000710663)
(0.0811674 -0.113276 -0.000708445)
(0.0801929 -0.105769 -0.000699972)
(0.0785546 -0.0981064 -0.000685656)
(0.0763231 -0.0904309 -0.000666207)
(0.0735788 -0.0828693 -0.00064224)
(0.0704067 -0.0755272 -0.000614577)
(0.0668947 -0.068491 -0.000583912)
(0.0631282 -0.0618261 -0.000551055)
(0.0591897 -0.0555795 -0.000516667)
(0.0551541 -0.0497799 -0.000481457)
(0.0510899 -0.0444414 -0.000445974)
(0.0470554 -0.0395644 -0.000410769)
(0.0431007 -0.0351389 -0.000376243)
(0.0392658 -0.0311465 -0.000342776)
(0.0355827 -0.027563 -0.000310622)
(0.0320745 -0.0243596 -0.000280004)
(0.0287583 -0.021506 -0.000251054)
(0.0256437 -0.0189697 -0.000223869)
(0.0227359 -0.0167191 -0.000198485)
(0.0200356 -0.014723 -0.000174915)
(0.0175405 -0.0129523 -0.000153133)
(0.0152459 -0.0113795 -0.000133104)
(0.0131451 -0.00997898 -0.000114764)
(0.0112303 -0.00872777 -9.80496e-05)
(0.00949362 -0.00760518 -8.28885e-05)
(0.00792646 -0.00659256 -6.92079e-05)
(0.00652071 -0.00567356 -5.69356e-05)
(0.00526817 -0.00483351 -4.60011e-05)
(0.00416162 -0.00405971 -3.63407e-05)
(0.00319443 -0.00334114 -2.78968e-05)
(0.00236085 -0.00266843 -2.0619e-05)
(0.00165603 -0.00203472 -1.44653e-05)
(0.00107676 -0.0014373 -9.40722e-06)
(0.000620214 -0.000880605 -5.42046e-06)
(0.000286559 -0.000380042 -2.50619e-06)
(7.34e-05 2.9766e-05 -6.44303e-07)
(-1.2205e-05 0.000254136 9.40474e-08)
(0.0695513 -0.159563 -0.000607037)
(0.0745644 -0.15845 -0.000650765)
(0.0788742 -0.155771 -0.000688419)
(0.0824008 -0.151692 -0.000719173)
(0.0850852 -0.146394 -0.000742644)
(0.0868975 -0.140075 -0.000758436)
(0.0878299 -0.132936 -0.000766615)
(0.0878971 -0.125181 -0.000767178)
(0.0871402 -0.117008 -0.000760611)
(0.0856189 -0.108603 -0.000747312)
(0.0834093 -0.100136 -0.00072806)
(0.0805995 -0.0917562 -0.000703518)
(0.0772847 -0.083592 -0.000674614)
(0.0735638 -0.0757476 -0.000642121)
(0.0695343 -0.0683037 -0.000606974)
(0.0652906 -0.0613188 -0.00056992)
(0.0609195 -0.0548302 -0.000531784)
(0.0565001 -0.0488574 -0.000493198)
(0.0521005 -0.0434037 -0.000454809)
(0.0477791 -0.03846 -0.000417081)
(0.0435829 -0.0340067 -0.000380462)
(0.0395492 -0.0300172 -0.000345246)
(0.0357054 -0.0264596 -0.0003117)
(0.032071 -0.0232992 -0.000279971)
(0.0286581 -0.0205001 -0.000250184)
(0.0254726 -0.018026 -0.000222374)
(0.0225152 -0.0158415 -0.000196561)
(0.0197832 -0.0139134 -0.000172711)
(0.0172707 -0.0122102 -0.00015078)
(0.0149706 -0.0107034 -0.0001307)
(0.0128731 -0.00936645 -0.000112391)
(0.0109688 -0.00817585 -9.5766e-05)
(0.00924757 -0.00711057 -8.07412e-05)
(0.00769975 -0.00615198 -6.72285e-05)
(0.00631577 -0.00528369 -5.51468e-05)
(0.00508667 -0.00449127 -4.44164e-05)
(0.00400431 -0.0037622 -3.49674e-05)
(0.00306157 -0.00308577 -2.67367e-05)
(0.00225209 -0.00245289 -1.96694e-05)
(0.00157067 -0.00185709 -1.37198e-05)
(0.00101358 -0.00129598 -8.85549e-06)
(0.000577563 -0.000774348 -5.04785e-06)
(0.000261948 -0.000307854 -2.29113e-06)
(6.34261e-05 6.86535e-05 -5.56974e-07)
(-1.30825e-05 0.000261482 1.03307e-07)
(0.0780571 -0.172559 -0.000681244)
(0.0832081 -0.170378 -0.000726245)
(0.0875188 -0.166525 -0.000763836)
(0.090911 -0.161206 -0.000793492)
(0.093336 -0.154641 -0.000814626)
(0.0947753 -0.147063 -0.000827237)
(0.0952387 -0.138707 -0.000831252)
(0.0947594 -0.129803 -0.000827115)
(0.0933997 -0.120569 -0.000815221)
(0.09124 -0.111209 -0.000796412)
(0.0883768 -0.101899 -0.000771399)
(0.0849168 -0.0927952 -0.000741234)
(0.0809717 -0.0840237 -0.00070678)
(0.0766533 -0.0756836 -0.000669116)
(0.07207 -0.067848 -0.000629096)
(0.0673227 -0.0605648 -0.00058768)
(0.0625031 -0.0538602 -0.000545598)
(0.057691 -0.0477413 -0.00050361)
(0.0529546 -0.0422 -0.000462258)
(0.0483493 -0.0372157 -0.000422071)
(0.0439191 -0.0327591 -0.000383392)
(0.0396961 -0.0287943 -0.000346538)
(0.0357035 -0.0252821 -0.00031168)
(0.0319549 -0.0221812 -0.000278963)
(0.0284581 -0.0194508 -0.000248436)
(0.0252136 -0.0170503 -0.000220117)
(0.0222183 -0.0149416 -0.000193968)
(0.0194652 -0.0130888 -0.000169937)
(0.0169453 -0.0114592 -0.000147938)
(0.0146481 -0.010023 -0.000127886)
(0.0125619 -0.00875311 -0.000109673)
(0.0106746 -0.00762569 -9.31988e-05)
(0.00897488 -0.00661964 -7.83602e-05)
(0.00745131 -0.00571635 -6.506e-05)
(0.00609347 -0.00489967 -5.32058e-05)
(0.00489134 -0.00415539 -4.27113e-05)
(0.00383626 -0.00347132 -3.35e-05)
(0.00292042 -0.00283706 -2.55044e-05)
(0.00213716 -0.00224392 -1.86658e-05)
(0.00148081 -0.00168576 -1.29352e-05)
(0.000947321 -0.00116056 -8.27675e-06)
(0.00053292 -0.000673397 -4.65789e-06)
(0.000236244 -0.000240136 -2.06649e-06)
(5.30155e-05 0.000104288 -4.65837e-07)
(-1.39892e-05 0.000267375 1.129e-07)
(0.087611 -0.186625 -0.000764674)
(0.0928454 -0.183146 -0.00081032)
(0.0970802 -0.177898 -0.000847338)
(0.100244 -0.171134 -0.000874915)
(0.102302 -0.163118 -0.000892937)
(0.103254 -0.154123 -0.000901208)
(0.103131 -0.144417 -0.000900188)
(0.10199 -0.134259 -0.000890192)
(0.0999173 -0.123888 -0.000872155)
(0.0970189 -0.113518 -0.000846827)
(0.0934139 -0.103336 -0.000815404)
(0.089229 -0.0934963 -0.000778853)
(0.0845928 -0.0841211 -0.000738421)
(0.0796304 -0.0753012 -0.000695086)
(0.0744593 -0.0670977 -0.000649978)
(0.0691866 -0.0595456 -0.000603938)
(0.0639062 -0.0526567 -0.000557865)
(0.058698 -0.0464243 -0.000512392)
(0.0536275 -0.0408267 -0.000468146)
(0.0487464 -0.0358313 -0.000425531)
(0.044093 -0.0313978 -0.000384921)
(0.0396945 -0.0274812 -0.000346519)
(0.0355671 -0.0240344 -0.000310497)
(0.0317193 -0.02101 -0.000276905)
(0.0281528 -0.0183623 -0.000245776)
(0.0248633 -0.016047 -0.000217058)
(0.0218427 -0.014023 -0.000190692)
(0.0190803 -0.0122529 -0.000166576)
(0.0165632 -0.0107024 -0.000144605)
(0.0142785 -0.00934103 -0.000124659)
(0.0122113 -0.00814135 -0.000106614)
(0.0103482 -0.00707938 -9.03494e-05)
(0.00867588 -0.00613409 -7.57506e-05)
(0.00718177 -0.00528715 -6.27066e-05)
(0.00585427 -0.00452268 -5.11179e-05)
(0.00468279 -0.00382685 -4.08903e-05)
(0.0036579 -0.00318786 -3.1943e-05)
(0.00277149 -0.00259568 -2.4204e-05)
(0.00201641 -0.00204203 -1.76115e-05)
(0.0013868 -0.00152115 -1.21141e-05)
(0.000878179 -0.00103137 -7.6729e-06)
(0.00048646 -0.000578017 -4.25201e-06)
(0.000209524 -0.000177085 -1.83298e-06)
(4.22096e-05 0.000136532 -3.71221e-07)
(-1.49269e-05 0.000271757 1.22829e-07)
(0.0983749 -0.201761 -0.000858573)
(0.103602 -0.196731 -0.000904266)
(0.107652 -0.189847 -0.000939563)
(0.110463 -0.181415 -0.000964165)
(0.112019 -0.171751 -0.000977698)
(0.112344 -0.161171 -0.000980601)
(0.111495 -0.14998 -0.000973152)
(0.109559 -0.138463 -0.000956316)
(0.106652 -0.12688 -0.000930904)
(0.102906 -0.115456 -0.000898262)
(0.098466 -0.10438 -0.000859476)
(0.0934799 -0.0938039 -0.000815997)
(0.0880929 -0.0838399 -0.000768951)
(0.0824427 -0.074566 -0.000719666)
(0.0766546 -0.066028 -0.000669126)
(0.0708398 -0.0582442 -0.000618394)
(0.0650925 -0.0512097 -0.000568209)
(0.0594901 -0.0449013 -0.000519325)
(0.054094 -0.0392829 -0.000472211)
(0.0489497 -0.0343084 -0.000427319)
(0.0440891 -0.0299264 -0.000384881)
(0.0395317 -0.0260823 -0.000345108)
(0.0352874 -0.0227217 -0.000308052)
(0.0313576 -0.019791 -0.000273753)
(0.0277381 -0.0172399 -0.000242153)
(0.0244187 -0.0150207 -0.00021318)
(0.0213869 -0.0130904 -0.000186712)
(0.0186275 -0.0114096 -0.000162626)
(0.0161245 -0.00994328 -0.000140774)
(0.0138615 -0.00866051 -0.000121021)
(0.011822 -0.00753372 -0.000103215)
(0.00999016 -0.00653902 -8.72242e-05)
(0.00835134 -0.00565573 -7.29169e-05)
(0.00689171 -0.00486584 -6.01748e-05)
(0.00559894 -0.00415394 -4.88885e-05)
(0.00446159 -0.00350664 -3.89593e-05)
(0.00346989 -0.00291261 -3.03013e-05)
(0.00261524 -0.00236225 -2.28398e-05)
(0.00189032 -0.00184772 -1.65104e-05)
(0.00128894 -0.00136366 -1.12596e-05)
(0.000806443 -0.000908718 -7.04634e-06)
(0.000438345 -0.000488447 -3.8317e-06)
(0.000181901 -0.000118887 -1.59157e-06)
(3.10389e-05 0.000165261 -2.73427e-07)
(-1.58904e-05 0.000274574 1.33052e-07)
(0.110406 -0.218045 -0.000963652)
(0.115532 -0.211154 -0.00100833)
(0.119275 -0.202343 -0.00104108)
(0.12159 -0.191986 -0.00106123)
(0.12249 -0.180453 -0.00106917)
(0.122029 -0.168107 -0.00106509)
(0.120299 -0.155289 -0.00105007)
(0.117421 -0.142313 -0.0010249)
(0.113546 -0.129452 -0.000991138)
(0.108837 -0.116939 -0.000949995)
(0.103466 -0.104962 -0.000903166)
(0.0976018 -0.0936608 -0.00085195)
(0.0914077 -0.0831354 -0.000797925)
(0.0850309 -0.0734452 -0.000742238)
(0.0786031 -0.0646163 -0.000686165)
(0.0722365 -0.0566467 -0.000630571)
(0.0660231 -0.0495117 -0.000576356)
(0.0600357 -0.0431703 -0.000524077)
(0.0543285 -0.03757 -0.000474275)
(0.0489394 -0.0326511 -0.000427222)
(0.0438916 -0.0283504 -0.000383169)
(0.0391967 -0.0246043 -0.000342178)
(0.0348561 -0.0213506 -0.000304295)
(0.0308642 -0.0185305 -0.000269443)
(0.0272098 -0.0160895 -0.000237547)
(0.0238776 -0.0139772 -0.000208454)
(0.0208494 -0.0121486 -0.000182023)
(0.0181065 -0.0105632 -0.000158076)
(0.0156289 -0.00918553 -0.00013645)
(0.013398 -0.00798456 -0.000116973)
(0.0113946 -0.00693281 -9.94844e-05)
(0.00960129 -0.00600683 -8.38288e-05)
(0.00800202 -0.00518633 -6.98679e-05)
(0.00658209 -0.00445391 -5.74714e-05)
(0.00532821 -0.00379465 -4.65252e-05)
(0.00422856 -0.00319574 -3.69246e-05)
(0.00327284 -0.00264635 -2.85811e-05)
(0.0024523 -0.0021374 -2.1417e-05)
(0.00175933 -0.00166148 -1.53667e-05)
(0.00118767 -0.00121366 -1.03752e-05)
(0.000732393 -0.000792892 -6.39963e-06)
(0.000388797 -0.000404907 -3.39884e-06)
(0.000153482 -6.57014e-05 -1.34323e-06)
(1.95569e-05 0.000190363 -1.7289e-07)
(-1.68805e-05 0.000275779 1.43558e-07)
(0.123935 -0.235409 -0.00108166)
(0.1288 -0.226322 -0.00112422)
(0.132059 -0.21528 -0.00115259)
(0.133688 -0.202727 -0.00116691)
(0.133734 -0.189096 -0.00116724)
(0.132293 -0.1748 -0.00115476)
(0.129499 -0.160219 -0.00113031)
(0.125514 -0.145689 -0.0010956)
(0.120524 -0.131497 -0.001052)
(0.11473 -0.117877 -0.0010015)
(0.10833 -0.105005 -0.000945592)
(0.101516 -0.0930084 -0.000886164)
(0.094463 -0.0819641 -0.000824569)
(0.0873289 -0.0719086 -0.000762336)
(0.0802468 -0.0628434 -0.000700494)
(0.0733276 -0.0547426 -0.000640124)
(0.0666577 -0.0475593 -0.000581882)
(0.060302 -0.0412326 -0.000526422)
(0.0543054 -0.0356929 -0.000474063)
(0.0486957 -0.0308662 -0.000425109)
(0.0434863 -0.0266778 -0.000379624)
(0.0386787 -0.023055 -0.000337666)
(0.034266 -0.0199291 -0.000299139)
(0.0302342 -0.017236 -0.000263949)
(0.0265655 -0.014918 -0.000231919)
(0.0232383 -0.0129224 -0.000202878)
(0.02023 -0.0112028 -0.000176614)
(0.0175173 -0.0097182 -0.000152935)
(0.0150774 -0.00843302 -0.000131634)
(0.0128886 -0.00731637 -0.000112528)
(0.0109301 -0.00634134 -9.54286e-05)
(0.0091826 -0.00548499 -8.01744e-05)
(0.00762911 -0.00472775 -6.66119e-05)
(0.00625387 -0.00405282 -5.46063e-05)
(0.00504314 -0.00344601 -4.40361e-05)
(0.00398452 -0.00289509 -3.47942e-05)
(0.0030676 -0.00238984 -2.67889e-05)
(0.00228331 -0.00192171 -1.99415e-05)
(0.00162405 -0.00148377 -1.41853e-05)
(0.00108341 -0.0010715 -9.46474e-06)
(0.000656392 -0.000684153 -5.73581e-06)
(0.000338034 -0.000327588 -2.95541e-06)
(0.000124415 -1.76696e-05 -1.08918e-06)
(7.80915e-06 0.000211745 -7.00423e-08)
(-1.78908e-05 0.000275329 1.54294e-07)
(0.138931 -0.25395 -0.00121265)
(0.1434 -0.242241 -0.00125157)
(0.145993 -0.228593 -0.00127431)
(0.146728 -0.213526 -0.00128065)
(0.145706 -0.197541 -0.00127184)
(0.143074 -0.181103 -0.00124879)
(0.139018 -0.164624 -0.00121348)
(0.133744 -0.148459 -0.00116739)
(0.127489 -0.132901 -0.00111287)
(0.120484 -0.118172 -0.00105168)
(0.112961 -0.104434 -0.000986078)
(0.105128 -0.0917887 -0.000917666)
(0.0971757 -0.0802852 -0.000848296)
(0.0892628 -0.0699297 -0.000779193)
(0.0815235 -0.0606946 -0.000711674)
(0.0740614 -0.0525263 -0.000646512)
(0.0669546 -0.0453534 -0.000584499)
(0.0602563 -0.0390936 -0.000526011)
(0.0539998 -0.0336596 -0.000471413)
(0.0482003 -0.0289632 -0.000420776)
(0.0428597 -0.0249185 -0.000374167)
(0.0379689 -0.0214446 -0.000331464)
(0.033511 -0.0184665 -0.000292557)
(0.0294641 -0.0159162 -0.000257223)
(0.0258031 -0.0137329 -0.000225269)
(0.0225005 -0.0118628 -0.000196435)
(0.0195288 -0.0102586 -0.000170495)
(0.0168609 -0.0088794 -0.000147203)
(0.0144709 -0.00768968 -0.000126341)
(0.0123348 -0.00665931 -0.000107692)
(0.0104298 -0.00576202 -9.10624e-05)
(0.00873559 -0.00497578 -7.62713e-05)
(0.00723385 -0.00428178 -6.31617e-05)
(0.00590836 -0.00366407 -5.15895e-05)
(0.00474477 -0.00310917 -4.14314e-05)
(0.00373055 -0.00260562 -3.25766e-05)
(0.00285498 -0.00214381 -2.49326e-05)
(0.00210906 -0.00171574 -1.842e-05)
(0.00148508 -0.001315 -1.29719e-05)
(0.000976696 -0.000937488 -8.53278e-06)
(0.000578804 -0.000582729 -5.05818e-06)
(0.000286339 -0.000256655 -2.50378e-06)
(9.48425e-05 2.50956e-05 -8.30759e-07)
(-4.13466e-06 0.000229332 3.45386e-08)
(-1.89205e-05 0.000273192 1.65232e-07)
(0.155785 -0.273434 -0.00135965)
(0.159576 -0.258684 -0.00139289)
(0.161213 -0.242054 -0.00140706)
(0.160767 -0.224166 -0.00140331)
(0.158395 -0.20558 -0.00138251)
(0.154312 -0.186822 -0.00134699)
(0.148758 -0.168328 -0.00129844)
(0.142 -0.15047 -0.00123955)
(0.134316 -0.133532 -0.00117241)
(0.125979 -0.117723 -0.00109972)
(0.117242 -0.103171 -0.0010234)
(0.108335 -0.089947 -0.000945714)
(0.0994516 -0.0780626 -0.000868131)
(0.0907539 -0.0674883 -0.000792253)
(0.0823668 -0.0581615 -0.000719013)
(0.0743851 -0.0499983 -0.000649369)
(0.066872 -0.0429003 -0.000583762)
(0.0598671 -0.0367633 -0.000522636)
(0.053388 -0.0314822 -0.000466062)
(0.0474363 -0.0269549 -0.000414122)