/*--------------------------------*- C++ -*----------------------------------*\
| =========                 |                                                 |
| \\      /  F ield         | OpenFOAM: The Open Source CFD Toolbox           |
|  \\    /   O peration     | Version:  v2012                                 |
|   \\  /    A nd           | Website:  www.openfoam.com                      |
|    \\/     M anipulation  |                                                 |
\*---------------------------------------------------------------------------*/
FoamFile
{
    version     2.0;
    format      ascii;
    class       volScalarField;
    location    "0.7";
    object      alpha.water;
}
// * * * * * * * * * * * * * * * * * * * * * * * * * * * * * * * * * * * * * //

dimensions      [0 0 0 0 0 0 0];


internalField   nonuniform List<scalar> 
3332
(
2.31171e-28
1.09305e-37
1.42091e-45
7.03607e-52
1.39688e-58
8.58386e-73
4.2102e-78
2.47858e-81
3.70961e-85
2.65474e-88
7.73161e-92
1.09768e-96
1.38922e-100
1.20171e-105
3.3066e-111
2.48986e-117
4.81378e-126
1.43942e-136
4.60187e-150
4.15373e-160
1.92299e-13
3.45193e-21
2.81387e-28
1.32405e-37
1.72005e-45
8.50901e-52
1.74847e-58
1.19273e-72
5.16101e-78
3.02619e-81
4.64454e-85
3.25322e-88
9.21935e-92
1.65286e-96
2.58951e-100
1.40317e-105
6.23683e-111
3.45714e-117
7.7439e-126
4.0735e-136
8.38193e-150
9.35705e-160
1.00003
0.999995
0.999999
0.999997
0.999996
0.999995
0.999978
0.999442
0.99826
0.998167
0.776791
0.189114
0.00761141
7.1148e-07
5.23935e-10
2.3286e-13
4.67785e-21
3.47027e-28
1.62638e-37
2.11696e-45
1.04178e-51
2.2212e-58
1.28178e-72
6.42042e-78
3.7516e-81
5.90011e-85
4.02571e-88
1.09001e-91
2.56933e-96
4.44553e-100
1.62101e-105
1.05381e-110
4.43724e-117
1.10633e-125
8.47066e-136
1.54578e-149
2.15061e-159
1.00004
0.999995
1
0.999996
0.999996
0.999997
0.999983
0.999581
0.998142
0.997966
0.999177
0.996512
0.794345
0.20555
0.00878814
1.10738e-06
6.49943e-10
2.82892e-13
6.79906e-21
4.32999e-28
2.02327e-37
2.64635e-45
1.29014e-51
2.85992e-58
1.7361e-72
8.10149e-78
4.72099e-81
7.60248e-85
5.03673e-88
1.28002e-91
4.05688e-96
7.06714e-100
1.88094e-105
1.61629e-110
5.44024e-117
1.47704e-125
1.4366e-135
2.88165e-149
5.03844e-159
1.00004
0.999995
1
0.999989
0.999997
0.999999
0.999995
0.999729
0.998036
0.997745
0.99905
0.997106
0.812268
0.222678
0.0100905
1.72242e-06
8.0526e-10
3.44334e-13
1.05168e-20
5.45746e-28
2.54564e-37
3.35598e-45
1.61445e-51
3.72649e-58
2.15947e-72
1.03623e-77
6.02769e-81
9.93217e-85
6.37965e-88
1.49607e-91
6.41722e-96
1.05071e-99
2.24679e-105
2.29034e-110
6.63339e-117
1.9682e-125
2.27541e-135
5.42836e-149
1.20208e-158
3.41476e-166
1.00005
0.999995
1
0.999984
0.999994
1
0.999999
0.99992
0.997947
0.997522
0.998906
0.997687
0.830099
0.240193
0.0115093
2.66986e-06
9.94653e-10
4.1936e-13
1.70749e-20
6.9368e-28
3.23442e-37
4.31155e-45
2.03918e-51
4.90604e-58
2.49507e-72
1.34248e-77
7.804e-81
1.3149e-84
8.19183e-88
1.74532e-91
1.00684e-95
1.47587e-99
2.88376e-105
3.05247e-110
8.59764e-117
2.9205e-125
3.99835e-135
1.03479e-148
2.91758e-158
1.35513e-165
1.00005
0.999995
1.00001
0.99998
0.999991
1
1
0.99992
0.99787
0.997304
0.998752
0.998122
0.846916
0.257559
0.013019
4.112e-06
1.2227e-09
5.1035e-13
2.86283e-20
8.87715e-28
4.14366e-37
5.60333e-45
2.59668e-51
6.51529e-58
3.90292e-72
1.76017e-77
1.02385e-80
1.76288e-84
1.06789e-87
2.04124e-91
1.55738e-95
1.97563e-99
4.24363e-105
3.8979e-110
1.34305e-116
5.72138e-125
9.42484e-135
2.00292e-148
7.19534e-158
5.45059e-165
5.77173e-183
1.00004
0.999998
1.00001
0.99998
0.999986
1
1
0.999997
0.997755
0.997085
0.998648
0.998355
0.861431
0.274006
0.0145794
6.27351e-06
1.49347e-09
6.19851e-13
4.88043e-20
1.14195e-27
5.34446e-37
7.35519e-45
3.32971e-51
8.71367e-58
5.1931e-72
2.33357e-77
1.36009e-80
2.3918e-84
1.41541e-87
2.41062e-91
2.36777e-95
2.5383e-99
7.53939e-105
4.87746e-110
2.85736e-116
1.52513e-124
2.76535e-134
3.95472e-148
1.80061e-157
2.21731e-164
2.46359e-183
1.00003
0.999999
1.00001
0.99998
0.999984
0.999998
1
1
0.997491
0.996851
0.998565
0.998432
0.872421
0.288645
0.0161389
9.45339e-06
1.81029e-09
7.50545e-13
8.35002e-20
1.4745e-27
6.93007e-37
9.73677e-45
4.2947e-51
1.1718e-57
7.55517e-72
3.12552e-77
1.82793e-80
3.28149e-84
1.91021e-87
2.90907e-91
3.53557e-95
3.14955e-99
1.56724e-104
6.18141e-110
7.44507e-116
4.30471e-124
7.51809e-134
8.00176e-148
4.56552e-157
9.10496e-164
1.0178e-183
1.00003
1
1.00001
0.999986
0.999984
0.999997
1
1
0.997
0.996603
0.998548
0.998442
0.879251
0.300702
0.0176425
1.40325e-05
2.17582e-09
9.052e-13
1.4192e-19
1.90861e-27
9.02244e-37
1.29799e-44
5.56609e-51
1.58215e-57
8.77286e-72
4.22559e-77
2.48336e-80
4.54907e-84
2.62849e-87
3.6576e-91
5.18894e-95
3.79814e-99
3.43955e-104
8.40228e-110
1.88337e-115
1.05531e-123
1.696e-133
1.66124e-147
1.17133e-156
3.76729e-163
4.0671e-184
1.00003
1
1.00001
0.999994
0.999984
0.999998
1
1
0.996378
0.996329
0.998697
0.998447
0.882355
0.309694
0.0190389
2.04729e-05
2.59243e-09
1.08661e-12
2.37789e-19
2.47397e-27
1.17808e-36
1.74004e-44
7.24209e-51
2.14195e-57
1.47525e-71
5.76187e-77
3.40746e-80
6.36705e-84
3.6916e-87
4.93232e-91
7.49881e-95
4.4878e-99
7.2896e-104
1.34755e-109
4.12742e-115
2.17456e-123
3.42257e-133
3.53696e-147
3.03793e-156
1.56823e-162
1.5833e-184
1.00002
1
1
0.999997
0.999989
1
1
1
0.995604
0.996088
0.998951
0.998414
0.883168
0.315512
0.0202838
2.93058e-05
3.0632e-09
1.2975e-12
3.90581e-19
3.20842e-27
1.54125e-36
2.34275e-44
9.45252e-51
2.90413e-57
1.7073e-71
7.91833e-77
4.71815e-80
8.99052e-84
5.2949e-87
7.38357e-91
1.07008e-94
5.2617e-99
1.43075e-103
2.77041e-109
7.76422e-115
3.93771e-123
7.40835e-133
7.65647e-147
7.96267e-156
6.55917e-162
1.19788e-183
1.00002
1
1
0.999999
0.999993
1
1
1
0.994678
0.995941
0.99914
0.998322
0.88229
0.318486
0.0213408
4.11065e-05
3.59375e-09
1.54034e-12
6.26504e-19
4.1601e-27
2.01875e-36
3.16422e-44
1.23694e-50
3.93932e-57
2.91063e-71
1.09602e-76
6.58736e-80
1.27981e-83
7.75542e-87
1.2537e-90
1.51365e-94
6.26251e-99
2.57755e-103
6.86672e-109
1.29123e-114
6.75021e-123
2.21819e-132
1.6795e-146
2.10992e-155
2.75338e-161
2.55906e-181
1.00001
1
1
1
0.999996
1
1
0.99998
0.993607
0.995893
0.999223
0.998127
0.87762
0.319497
0.0221831
5.6461e-05
4.19532e-09
1.81719e-12
9.7895e-19
5.38998e-27
2.64561e-36
4.28284e-44
1.62216e-50
5.34137e-57
3.64799e-71
1.52716e-76
9.26669e-80
1.83538e-83
1.15904e-86
2.37994e-90
2.13373e-94
7.92496e-99
4.28774e-103
1.73757e-108
1.97891e-114
1.2128e-122
9.2602e-132
3.65303e-146
5.65552e-155
1.15891e-160
2.96565e-179
1
1
0.999999
1
0.999996
0.999997
1
0.99983
0.992409
0.995872
0.999232
0.997846
0.870748
0.319187
0.0227957
7.59279e-05
4.88977e-09
2.1294e-12
1.48814e-18
6.97522e-27
3.4673e-36
5.80387e-44
2.13152e-50
7.23454e-57
5.2179e-71
2.14114e-76
1.31255e-79
2.65006e-83
1.7646e-86
4.8135e-90
3.01957e-94
1.16959e-98
6.66026e-103
4.01224e-108
2.94439e-114
2.59598e-122
3.66355e-131
8.12868e-146
1.53381e-154
4.8867e-160
2.20843e-177
1
1
1
1
0.999998
0.999997
1
0.999703
0.991115
0.995864
0.999232
0.997461
0.86221
0.314044
0.023186
0.000100006
5.71759e-09
2.47739e-12
2.19986e-18
9.01328e-27
4.54276e-36
7.86811e-44
2.80628e-50
9.78295e-57
6.92067e-71
3.01967e-76
1.87077e-79
3.8503e-83
2.73068e-86
9.82874e-90
4.3331e-94
2.25885e-98
9.78858e-103
8.18709e-108
4.58429e-114
7.04257e-122
1.09777e-130
1.92251e-145
4.20473e-154
2.06261e-159
1.18073e-175
1.00001
1
1
1
0.999998
0.999996
1
0.999571
0.989725
0.995887
0.999232
0.996908
0.851905
0.306264
0.0233871
0.000129107
6.75107e-09
2.86031e-12
3.16328e-18
1.16271e-26
5.94846e-36
1.0663e-43
3.7025e-50
1.32032e-56
1.14059e-70
4.28289e-76
2.68174e-79
5.62645e-83
4.28362e-86
1.95053e-89
6.38843e-94
5.61375e-98
1.38253e-102
1.48884e-107
8.35477e-114
2.12897e-121
2.53149e-130
5.41361e-145
1.16209e-153
8.70923e-159
4.85918e-174
1.00001
1
1
1
0.999998
0.999996
0.999999
0.999399
0.988227
0.995951
0.999232
0.996134
0.840126
0.297882
0.0234631
0.000163541
8.11646e-09
3.27573e-12
4.42821e-18
1.49718e-26
7.78356e-36
1.44372e-43
4.8971e-50
1.77813e-56
1.47823e-70
6.10841e-76
3.86478e-79
8.26606e-83
6.79263e-86
3.68989e-89
9.8277e-94
1.50297e-97
1.91598e-102
2.46878e-107
1.96015e-113
5.98528e-121
4.98173e-130
2.85899e-144
3.22529e-153
3.67778e-158
1.64583e-172
1.00001
1
1
1
0.999998
0.999995
0.999999
0.999194
0.986622
0.996036
0.999229
0.995091
0.826797
0.288486
0.0234712
0.000203517
1.00305e-08
3.71933e-12
6.04202e-18
1.92433e-26
1.0177e-35
1.95189e-43
6.49679e-50
2.38959e-56
2.15385e-70
8.76034e-76
5.59766e-79
1.22052e-82
1.08586e-85
6.61136e-89
1.60096e-93
3.74484e-97
2.68924e-102
3.84272e-107
5.49442e-113
1.45742e-120
9.58284e-130
1.61485e-143
8.95315e-153
1.55372e-157
4.83838e-171
1.00001
1
1
1
0.999998
0.999995
0.999999
0.998951
0.984921
0.996108
0.999218
0.993681
0.811659
0.277851
0.0232301
0.000249174
1.28576e-08
4.18473e-12
8.04673e-18
2.4689e-26
1.32964e-35
2.63398e-43
8.65127e-50
3.20513e-56
3.05068e-70
1.26339e-75
8.14654e-79
1.81075e-82
1.7457e-85
1.12259e-88
2.78404e-93
8.2427e-97
4.02415e-102
5.82519e-107
1.51689e-112
3.14543e-120
2.1252e-129
7.66209e-143
2.48029e-152
6.57243e-157
1.19201e-169
1.00001
1
1
1
0.999998
0.999997
0.999999
0.998673
0.983146
0.996173
0.999194
0.991781
0.794613
0.266243
0.0227735
0.000300686
1.71892e-08
4.66343e-12
1.04765e-17
3.16229e-26
1.73609e-35
3.54656e-43
1.1573e-49
4.29242e-56
4.35035e-70
1.8324e-75
1.1912e-78
2.69873e-82
2.81687e-85
1.81283e-88
5.14298e-93
1.60132e-96
6.91662e-102
9.0624e-107
3.6716e-112
6.46321e-120
6.08095e-129
3.01799e-142
6.86999e-152
2.78667e-156
2.5562e-168
1
1
1
1
0.999998
0.999997
0.999999
0.998364
0.981315
0.996188
0.99915
0.989273
0.775671
0.254004
0.0222411
0.000358405
2.39371e-08
5.14499e-12
1.33553e-17
4.04433e-26
2.26566e-35
4.76357e-43
1.55668e-49
5.74341e-56
6.20116e-70
2.67319e-75
1.75008e-78
4.04016e-82
4.555e-85
2.79698e-88
9.90559e-93
2.7889e-96
1.44934e-101
1.56261e-106
7.6638e-112
1.39927e-119
2.02024e-128
1.14906e-141
1.91707e-151
1.18467e-155
4.89232e-167
0.999995
1.00001
1
1
0.999999
0.999998
0.999999
0.998026
0.979446
0.995975
0.999074
0.986012
0.754854
0.241354
0.021629
0.000422689
3.44125e-08
5.61758e-12
1.66951e-17
5.1658e-26
2.956e-35
6.38141e-43
2.10743e-49
7.68489e-56
8.85272e-70
3.92309e-75
2.58377e-78
6.07504e-82
7.37285e-85
4.14278e-88
1.93816e-92
4.4332e-96
3.56529e-101
3.24627e-106
1.42616e-111
3.54291e-119
6.6023e-128
5.7866e-141
5.45827e-151
5.04348e-155
8.51546e-166
0.999987
1.00001
1
0.999999
0.999999
0.999999
0.999999
0.997662
0.977532
0.995555
0.998954
0.981818
0.732245
0.228477
0.0209417
0.000492023
5.03454e-08
6.069e-12
2.04932e-17
6.59158e-26
3.85663e-35
8.52555e-43
2.87409e-49
1.0295e-55
1.2658e-69
5.79268e-75
3.83441e-78
9.17516e-82
1.19356e-84
5.92005e-88
3.75994e-92
6.54002e-96
9.10056e-101
8.15775e-106
2.50544e-111
1.06835e-118
2.13321e-127
3.8498e-140
1.60547e-150
2.14418e-154
1.36797e-164
0.999985
1.00001
1
0.999999
0.999999
0.999998
0.999999
0.997272
0.975539
0.994941
0.998743
0.976505
0.708006
0.215561
0.0201989
0.000558088
7.38001e-08
6.48812e-12
2.47285e-17
8.40485e-26
5.03304e-35
1.13592e-42
3.95165e-49
1.38292e-55
1.8136e-69
8.60659e-75
5.72229e-78
1.39194e-81
1.93126e-84
8.20913e-88
7.10926e-92
9.10369e-96
2.17472e-100
2.20254e-105
4.50373e-111
3.41334e-118
7.90081e-127
2.22222e-139
4.89251e-150
9.07508e-154
2.05262e-163
0.999983
1.00001
1
1
0.999999
0.999997
1
0.996854
0.973399
0.994152
0.998419
0.969928
0.68236
0.202775
0.019419
0.000606331
1.06978e-07
6.86671e-12
2.93552e-17
1.07126e-25
6.57219e-35
1.5095e-42
5.48046e-49
1.86628e-55
2.60358e-69
1.28681e-74
8.59217e-78
2.12142e-81
3.12174e-84
1.11323e-87
1.29858e-91
1.2201e-95
4.666e-100
5.61213e-105
9.22236e-111
1.01963e-117
3.74489e-126
1.01668e-138
1.52469e-149
3.82251e-153
2.90543e-162
0.999983
1.00001
1
1
0.999999
0.999996
1
0.9964
0.97109
0.993192
0.997959
0.961927
0.655571
0.190256
0.0186068
0.000634261
1.51958e-07
7.20152e-12
3.42951e-17
1.3653e-25
8.58991e-35
2.00102e-42
7.66844e-49
2.53601e-55
3.74043e-69
1.93613e-74
1.29894e-77
3.24875e-81
5.03835e-84
1.49399e-87
2.28693e-91
1.62385e-95
8.98129e-100
1.27303e-104
2.33785e-110
2.75766e-117
1.94299e-125
4.69725e-138
4.7343e-149
1.61207e-152
3.91253e-161
0.999983
1.00001
1
1
0.999999
0.999997
1
0.995904
0.968595
0.992002
0.997332
0.952349
0.627918
0.178106
0.0177644
0.000645612
2.10464e-07
7.49622e-12
3.94277e-17
1.74049e-25
1.12411e-34
2.64684e-42
1.08235e-48
3.47888e-55
5.32312e-69
2.93144e-74
1.97865e-77
5.00041e-81
8.11498e-84
2.02347e-87
3.89546e-91
2.27191e-95
1.57955e-99
2.57204e-104
6.89803e-110
7.08392e-117
8.68241e-125
3.04332e-137
1.42131e-148
6.90305e-152
5.04968e-160
0.999983
1.00001
1
1
0.999999
0.999997
1
0.995361
0.96589
0.990543
0.996501
0.941052
0.599679
0.166398
0.0169
0.000647255
2.83753e-07
7.76342e-12
4.45825e-17
2.2201e-25
1.47342e-34
3.49498e-42
1.54003e-48
4.83127e-55
7.22498e-69
4.46598e-74
3.03967e-77
7.7384e-81
1.30367e-83
2.85858e-87
6.46488e-91
3.7317e-95
2.61138e-99
4.77735e-104
2.00205e-109
1.88973e-116
3.18022e-124
2.36465e-136
4.01463e-148
3.05081e-151
6.28748e-159
0.999983
1.00001
1
1
0.999999
0.999997
0.999999
0.994761
0.962955
0.988756
0.99542
0.927913
0.571109
0.15518
0.0160251
0.000642929
3.72654e-07
8.02806e-12
4.95399e-17
2.83449e-25
1.93498e-34
4.60942e-42
2.20667e-48
6.81126e-55
1.1609e-68
6.8454e-74
4.71386e-77
1.20463e-80
2.08806e-83
4.43682e-87
1.05716e-90
8.29885e-95
4.22154e-99
8.59089e-104
5.1403e-109
5.67777e-116
1.07162e-123
1.46689e-135
1.04368e-147
1.39715e-150
7.59635e-158
0.999984
1.00001
1
1
1
0.999997
0.999999
0.994118
0.959753
0.986562
0.994041
0.912811
0.542435
0.144481
0.0151499
0.000631922
4.77714e-07
8.33729e-12
5.40458e-17
3.62344e-25
2.5469e-34
6.07655e-42
3.17966e-48
9.77237e-55
1.72273e-68
1.05556e-73
7.38662e-77
1.8874e-80
3.33383e-83
8.03798e-87
1.7302e-90
2.42907e-94
7.0697e-99
1.60997e-103
1.15941e-108
1.91758e-115
4.00816e-123
7.63536e-135
2.45726e-147
6.49187e-150
8.94912e-157
0.999985
1.00001
1
1
1
0.999997
0.999999
0.993462
0.956221
0.983853
0.99228
0.895631
0.513845
0.134312
0.0142833
0.000616503
5.99407e-07
8.79163e-12
5.78502e-17
4.63934e-25
3.36099e-34
8.01497e-42
4.59974e-48
1.42921e-54
2.45054e-68
1.63737e-73
1.17073e-76
2.97844e-80
5.30771e-83
1.73193e-86
2.89302e-90
7.39208e-94
1.33086e-98
3.44555e-103
2.42601e-108
6.62978e-115
1.86228e-122
5.00069e-134
5.22243e-147
2.93266e-149
1.03223e-155
0.999986
1.00001
1
1
1
0.999997
0.999998
0.992824
0.952293
0.980479
0.98996
0.876317
0.48549
0.12467
0.0134326
0.000598321
7.38325e-07
9.63689e-12
6.07659e-17
5.95144e-25
4.44823e-34
1.05906e-41
6.66811e-48
2.13157e-54
3.91299e-68
2.55509e-73
1.87844e-76
4.73793e-80
8.43533e-83
4.15433e-86
5.06318e-90
1.97069e-93
3.03653e-98
8.89525e-103
5.1721e-108
2.16836e-114
9.46553e-122
5.11198e-133
1.09097e-146
1.22482e-148
1.17019e-154
0.999986
1.00001
1
1
1
0.999996
0.999998
0.992228
0.947937
0.97625
0.986884
0.854812
0.457488
0.115541
0.0126028
0.000578283
8.95337e-07
1.15069e-11
6.27312e-17
7.65178e-25
5.90618e-34
1.40407e-41
9.6694e-48
3.23823e-54
5.62243e-68
4.01179e-73
3.05359e-76
7.6046e-80
1.34112e-82
1.00029e-85
9.48228e-90
4.40987e-93
8.21664e-98
2.59068e-102
1.26343e-107
6.74171e-114
4.42789e-121
4.5763e-132
4.0225e-146
4.50437e-148
1.31023e-153
0.999986
1.00001
1
1
1
0.999996
0.999997
0.991687
0.94312
0.970938
0.98283
0.831042
0.429928
0.106906
0.0117968
0.00055692
1.07172e-06
1.59674e-11
6.3836e-17
9.86336e-25
7.86968e-34
1.87125e-41
1.40019e-47
4.99691e-54
9.21143e-68
6.34024e-73
5.03229e-76
1.23285e-79
2.14072e-82
2.24988e-85
1.91624e-89
8.42837e-93
2.31228e-97
7.4077e-102
3.77378e-107
2.14226e-113
1.93901e-120
2.83212e-131
3.13455e-145
1.39575e-147
1.45961e-152
0.999987
1.00001
0.999999
1
1
0.999996
0.999997
0.991245
0.937822
0.964281
0.977507
0.804956
0.402875
0.0987379
0.0110163
0.000534542
1.26928e-06
2.6448e-11
6.43029e-17
1.27515e-24
1.05263e-33
2.51263e-41
2.0218e-47
7.79926e-54
1.38048e-67
1.00921e-72
8.41118e-76
2.021e-79
3.44904e-82
4.59664e-85
4.11414e-89
1.42616e-92
6.01228e-97
1.9105e-101
1.25576e-106
7.5405e-113
9.35597e-120
1.80242e-130
3.80793e-145
3.53856e-147
1.62928e-151
0.999988
1.00001
0.999997
1
1
0.999996
0.999997
0.990903
0.932038
0.955984
0.970549
0.776525
0.376379
0.0910115
0.0102621
0.000511357
1.49033e-06
4.92543e-11
6.44239e-17
1.65398e-24
1.41382e-33
3.40795e-41
2.9079e-47
1.22508e-53
2.18092e-67
1.61939e-72
1.42632e-75
3.35378e-79
5.64883e-82
8.52437e-85
9.05976e-89
2.23419e-92
1.38631e-96
4.43482e-101
3.97857e-106
2.94622e-112
5.55432e-119
2.18456e-129
3.90052e-145
8.51922e-147
1.8214e-150
0.999988
1.00001
0.999997
1
1
0.999995
0.999996
0.990691
0.925786
0.945739
0.961524
0.745762
0.350481
0.083702
0.00953471
0.000487539
1.7374e-06
9.38145e-11
6.39276e-17
2.15327e-24
1.90746e-33
4.68196e-41
4.16333e-47
1.92639e-53
3.42953e-67
2.62265e-72
2.45437e-75
5.63996e-79
9.48212e-82
1.4528e-84
1.97173e-88
3.44754e-92
2.88576e-96
9.78994e-101
1.12971e-105
1.1666e-111
3.52239e-118
2.72295e-128
4.69447e-145
8.39358e-146
1.97267e-149
0.999988
1.00001
0.999997
1
1
0.999995
0.999996
0.990585
0.919091
0.933253
0.949945
0.712712
0.325216
0.0767869
0.00883438
0.000463256
2.01222e-06
1.71445e-10
6.10548e-17
2.81479e-24
2.58582e-33
6.53296e-41
5.93339e-47
3.01786e-53
5.36834e-67
4.29321e-72
4.28677e-75
9.62102e-79
1.64382e-81
2.32084e-84
4.1426e-88
5.81751e-92
5.72169e-96
2.25791e-100
3.02369e-105
4.36132e-111
2.02079e-117
1.84129e-127
3.06335e-144
3.36613e-145
1.95738e-148
0.99999
1
0.999998
0.999999
1
0.999994
0.999995
0.99059
0.911964
0.918315
0.93531
0.677463
0.300623
0.070247
0.00816144
0.000438662
2.31343e-06
2.92888e-10
5.66023e-17
3.69628e-24
3.52356e-33
9.27984e-41
8.42279e-47
4.69183e-53
9.09404e-67
7.11535e-72
7.60235e-75
1.66634e-78
2.95581e-81
3.57428e-84
8.36228e-88
1.27149e-91
1.17402e-95
6.05326e-100
8.60238e-105
1.58414e-110
1.13112e-116
9.77974e-127
6.32929e-142
3.53427e-145
1.58353e-147
0.999993
1
0.999998
0.999999
1
0.999994
0.999996
0.99114
0.904283
0.900938
0.917174
0.640201
0.276754
0.0640676
0.00751615
0.000413888
2.63303e-06
4.65506e-10
5.27061e-17
4.87821e-24
4.82804e-33
1.34378e-40
1.19283e-46
7.22001e-53
1.43081e-66
1.19599e-71
1.36985e-74
2.93279e-78
5.50243e-81
5.54117e-84
1.64222e-87
3.91665e-91
2.76357e-95
1.94398e-99
2.94327e-104
6.21919e-110
7.93963e-116
1.04985e-125
1.74906e-139
3.61461e-145
9.48356e-147
0.896326
0.881105
0.895205
0.60124
0.253682
0.0582388
0.00689873
0.000389037
2.95324e-06
6.90573e-10
5.05453e-17
6.47374e-24
6.65511e-33
1.98373e-40
1.68978e-46
1.09852e-52
2.38637e-66
2.04201e-71
2.51035e-74
5.25043e-78
1.05095e-80
9.27333e-84
3.22275e-87
1.35697e-90
7.9059e-95
6.67233e-99
1.19629e-103
2.88935e-109
7.50251e-115
1.58472e-124
4.96982e-137
3.92266e-145
4.03046e-146
2.31167e-28
1.09303e-37
1.4209e-45
7.036e-52
1.39692e-58
1.13019e-72
5.42105e-78
3.1893e-81
3.91637e-85
2.09626e-88
8.27308e-92
1.06066e-96
1.30532e-100
1.16531e-105
3.23415e-111
1.9597e-117
7.7259e-126
1.43957e-136
4.59875e-150
4.1117e-160
1.92297e-13
3.45191e-21
2.81382e-28
1.32402e-37
1.72004e-45
8.50893e-52
1.74851e-58
1.67843e-72
6.65632e-78
3.89785e-81
4.91588e-85
2.71898e-88
9.86393e-92
1.62299e-96
2.43574e-100
1.3585e-105
6.16983e-111
2.73359e-117
1.19493e-125
4.07395e-136
8.36841e-150
9.26227e-160
1.00002
0.999997
0.999998
0.999997
0.999996
0.999996
0.999978
0.999441
0.998259
0.998166
0.776791
0.189114
0.0076114
7.11479e-07
5.23929e-10
2.32859e-13
4.67783e-21
3.4702e-28
1.62634e-37
2.11694e-45
1.04177e-51
2.22125e-58
1.8609e-72
8.29525e-78
4.83531e-81
6.25628e-85
3.56971e-88
1.16539e-91
2.55742e-96
4.19324e-100
1.56717e-105
1.05046e-110
3.52178e-117
1.66636e-125
8.47175e-136
1.542e-149
2.1288e-159
1.00002
0.999997
1
0.999996
0.999996
0.999997
0.999982
0.999581
0.998141
0.997964
0.999175
0.996511
0.794345
0.20555
0.00878813
1.10738e-06
6.49936e-10
2.8289e-13
6.79903e-21
4.32991e-28
2.02323e-37
2.64633e-45
1.29013e-51
2.85998e-58
2.45061e-72
1.04868e-77
6.08649e-81
8.07003e-85
4.7423e-88
1.36654e-91
4.07867e-96
6.68923e-100
1.81622e-105
1.61937e-110
4.32953e-117
2.19348e-125
1.4368e-135
2.87277e-149
4.98733e-159
1.00003
0.999997
1
0.999992
0.999997
0.999998
0.999994
0.999729
0.998035
0.997744
0.999048
0.997105
0.812268
0.222678
0.0100905
1.72242e-06
8.05251e-10
3.44332e-13
1.05167e-20
5.45736e-28
2.54558e-37
3.35595e-45
1.61444e-51
3.72658e-58
3.12283e-72
1.34399e-77
7.7708e-81
1.05457e-84
6.37186e-88
1.59326e-91
6.49247e-96
9.9818e-100
2.16754e-105
2.30268e-110
5.28753e-117
2.89896e-125
2.27574e-135
5.40967e-149
1.18988e-158
3.41534e-166
1.00003
0.999997
1
0.999989
0.999995
0.999999
0.999999
0.999919
0.997946
0.997521
0.998905
0.997686
0.8301
0.240194
0.0115092
2.66986e-06
9.94642e-10
4.19357e-13
1.70748e-20
6.93667e-28
3.23435e-37
4.31151e-45
2.03916e-51
4.90616e-58
4.08149e-72
1.7448e-77
1.00573e-80
1.39533e-84
8.65339e-88
1.85145e-91
1.02181e-95
1.40728e-99
2.78171e-105
3.0763e-110
6.85615e-117
4.26923e-125
3.99896e-135
1.03113e-148
2.88799e-158
1.35536e-165
1.00003
0.999998
1
0.999986
0.999992
0.999999
1
0.999919
0.997869
0.997303
0.998751
0.998122
0.846916
0.25756
0.013019
4.11201e-06
1.22269e-09
5.10347e-13
2.86281e-20
8.87699e-28
4.14357e-37
5.60327e-45
2.59665e-51
6.51544e-58
5.43484e-72
2.29261e-77
1.31867e-80
1.86811e-84
1.1869e-87
2.15238e-91
1.58145e-95
1.89077e-99
4.09898e-105
3.93457e-110
1.07094e-116
8.20462e-125
9.42612e-135
1.99595e-148
7.12232e-158
5.45151e-165
9.86232e-187
1.00003
0.999999
1
0.999987
0.99999
0.999998
1
0.999997
0.997754
0.997084
0.998647
0.998356
0.86143
0.274006
0.0145794
6.27352e-06
1.49345e-09
6.19848e-13
4.8804e-20
1.14193e-27
5.34435e-37
7.35512e-45
3.32968e-51
8.71387e-58
7.50128e-72
3.04621e-77
1.75032e-80
2.52903e-84
1.64279e-87
2.51882e-91
2.40133e-95
2.4383e-99
7.3028e-105
4.92705e-110
2.28564e-116
2.10984e-124
2.76564e-134
3.94094e-148
1.78231e-157
2.21768e-164
4.22181e-187
1.00002
1
1
0.999989
0.999989
0.999998
1
1
0.997491
0.99685
0.998565
0.998433
0.872419
0.288645
0.0161389
9.4534e-06
1.81027e-09
7.50541e-13
8.34998e-20
1.47448e-27
6.92991e-37
9.73667e-45
4.29466e-51
1.17182e-57
8.23073e-72
4.08923e-77
2.35013e-80
3.45963e-84
2.29241e-87
2.9986e-91
3.57643e-95
3.03708e-99
1.52206e-104
6.24126e-110
6.00209e-116
5.76341e-124
7.51858e-134
7.96717e-148
4.51901e-157
9.10649e-164
1.76702e-187
1.00002
1
1
0.999994
0.999989
0.999998
1
1
0.997
0.996602
0.998548
0.998443
0.879248
0.300702
0.0176425
1.40325e-05
2.1758e-09
9.05195e-13
1.4192e-19
1.90858e-27
9.02225e-37
1.29797e-44
5.56603e-51
1.58219e-57
1.35283e-71
5.54103e-77
3.18949e-80
4.77882e-84
3.2222e-87
3.69673e-91
5.2304e-95
3.67749e-99
3.34393e-104
8.45998e-110
1.53093e-115
1.38768e-123
1.69603e-133
1.6527e-147
1.15936e-156
3.76792e-163
7.16595e-188
1.00002
1
1
0.999996
0.999991
0.999999
1
1
0.996377
0.996329
0.998699
0.998449
0.88235
0.309694
0.0190389
2.0473e-05
2.5924e-09
1.08661e-12
2.37788e-19
2.47392e-27
1.17805e-36
1.74002e-44
7.24202e-51
2.142e-57
1.88223e-71
7.57254e-77
4.37186e-80
6.66088e-84
4.55821e-87
4.85575e-91
7.52678e-95
4.36501e-99
7.08335e-104
1.34789e-109
3.37564e-115
2.84626e-123
3.42255e-133
3.50286e-147
3.00679e-156
1.56849e-162
1.39485e-186
1.00001
1
1
0.999998
0.999993
1
1
1
0.995603
0.996087
0.998953
0.998417
0.883163
0.315512
0.0202838
2.93059e-05
3.06317e-09
1.29749e-12
3.90579e-19
3.20837e-27
1.54122e-36
2.34272e-44
9.45243e-51
2.90419e-57
2.36148e-71
1.04294e-76
6.04785e-80
9.36232e-84
6.4847e-87
7.05977e-91
1.06891e-94
5.14495e-99
1.38815e-103
2.74654e-109
6.37442e-115
5.1817e-123
7.40792e-133
7.5641e-147
7.88097e-156
6.56026e-162
1.13936e-183
1.00001
1
1
1
0.999996
1
1
1
0.994677
0.995941
0.999141
0.998325
0.882283
0.318486
0.0213409
4.11067e-05
3.59371e-09
1.54034e-12
6.26501e-19
4.16002e-27
2.01871e-36
3.16419e-44
1.23693e-50
3.93941e-57
3.79812e-71
1.44661e-76
8.43755e-80
1.32623e-83
9.27207e-87
1.17281e-90
1.50397e-94
6.16365e-99
2.49556e-103
6.76863e-109
1.0625e-114
8.98983e-123
2.21794e-132
1.64543e-146
2.08833e-155
2.75384e-161
2.55884e-181
1.00001
1
1
1
0.999998
1
1
0.999981
0.993605
0.995892
0.999224
0.998131
0.877611
0.319498
0.0221831
5.64612e-05
4.19527e-09
1.81718e-12
9.78946e-19
5.38988e-27
2.64555e-36
4.2828e-44
1.62214e-50
5.34149e-57
4.91791e-71
2.01957e-76
1.1864e-79
1.89239e-83
1.33192e-86
2.21753e-90
2.10774e-94
7.86323e-99
4.14118e-103
1.71133e-108
1.63132e-114
1.63488e-122
9.25898e-132
3.6004e-146
5.59803e-155
1.1591e-160
2.96565e-179
1
1
1
1
0.999998
0.999998
1
0.999832
0.992407
0.995872
0.999232
0.997849
0.870739
0.319188
0.0227958
7.59283e-05
4.88972e-09
2.12939e-12
1.48814e-18
6.9751e-27
3.46723e-36
5.80381e-44
2.1315e-50
7.2347e-57
7.09538e-71
2.83648e-76
1.68032e-79
2.71869e-83
1.92189e-86
4.5509e-90
2.96407e-94
1.16954e-98
6.41509e-103
3.95945e-108
2.43496e-114
3.48094e-122
3.66311e-131
7.54333e-146
1.51835e-154
4.8875e-160
2.20843e-177
1
1
1
1
1
0.999998
1
0.999704
0.991112
0.995864
0.999232
0.997464
0.862202
0.314045
0.0231861
0.000100006
5.71753e-09
2.47738e-12
2.19985e-18
9.01312e-27
4.54267e-36
7.86803e-44
2.80626e-50
9.78317e-57
9.93046e-71
4.00638e-76
2.39599e-79
3.93093e-83
2.78607e-86
9.53262e-90
4.22557e-94
2.25965e-98
9.40026e-103
8.10277e-108
3.82215e-114
9.04654e-122
1.09766e-130
1.83887e-145
4.16259e-154
2.06295e-159
1.18073e-175
1
1
1
1
0.999999
0.999997
1
0.999572
0.989721
0.995887
0.999232
0.996909
0.851897
0.306265
0.0233872
0.000129108
6.75101e-09
2.8603e-12
3.16327e-18
1.16269e-26
5.94833e-36
1.06629e-43
3.70247e-50
1.32035e-56
1.36003e-70
5.68938e-76
3.43823e-79
5.7185e-83
4.05978e-86
1.94651e-89
6.19008e-94
5.55864e-98
1.32345e-102
1.47781e-107
7.10006e-114
2.55796e-121
2.53125e-130
5.1451e-145
1.15042e-153
8.71065e-159
4.85917e-174
1.00001
1
1
1
0.999999
0.999997
0.999999
0.9994
0.988223
0.995952
0.999232
0.996135
0.840118
0.297884
0.0234633
0.000163542
8.1164e-09
3.27571e-12
4.42819e-18
1.49715e-26
7.7834e-36
1.44371e-43
4.89705e-50
1.77817e-56
2.15096e-70
8.12178e-76
4.96372e-79
8.36776e-83
5.95232e-86
3.78294e-89
9.47202e-94
1.46893e-97
1.82812e-102
2.45679e-107
1.71665e-113
6.75289e-121
4.9813e-130
2.98604e-144
3.19246e-153
3.67838e-158
1.64583e-172
1.00001
1
1
1
0.999999
0.999997
0.999999
0.999195
0.986617
0.996037
0.999229
0.99509
0.826789
0.288488
0.0234713
0.000203519
1.00305e-08
3.71931e-12
6.04199e-18
1.92429e-26
1.01768e-35
1.95187e-43
6.49672e-50
2.38965e-56
2.89049e-70
1.16542e-75
7.20797e-79
1.23138e-82
8.79381e-86
6.94035e-89
1.53868e-93
3.62353e-97
2.5585e-102
3.83141e-107
4.94016e-113
1.56395e-120
9.58212e-130
1.5866e-143
8.85985e-153
1.55398e-157
4.83838e-171
1.00001
1
1
1
0.999999
0.999997
0.999999
0.998952
0.984916
0.996109
0.999218
0.99368
0.811652
0.277853
0.0232303
0.000249177
1.28576e-08
4.18471e-12
8.04669e-18
2.46886e-26
1.32961e-35
2.63395e-43
8.65119e-50
3.2052e-56
4.23277e-70
1.68102e-75
1.05272e-78
1.82209e-82
1.31164e-85
1.2024e-88
2.67881e-93
7.92527e-97
3.82371e-102
5.81288e-107
1.38276e-112
3.2412e-120
2.12508e-129
7.75056e-143
2.45375e-152
6.57348e-157
1.19202e-169
1
1
1
1
0.999999
0.999997
0.999999
0.998674
0.983141
0.996175
0.999194
0.991779
0.794606
0.266245
0.0227738
0.000300689
1.71892e-08
4.66341e-12
1.04764e-17
3.16223e-26
1.73605e-35
3.54652e-43
1.15729e-49
4.29252e-56
6.19745e-70
2.43758e-75
1.54639e-78
2.7108e-82
1.97967e-85
1.97498e-88
4.97685e-93
1.53396e-96
6.5918e-102
9.03318e-107
3.36223e-112
6.42343e-120
6.0808e-129
3.01962e-142
6.79528e-152
2.78711e-156
2.5562e-168
1
1
1
1
0.999999
0.999998
0.999999
0.998364
0.98131
0.996191
0.99915
0.989269
0.775665
0.254007
0.0222413
0.00035841
2.39372e-08
5.14497e-12
1.33552e-17
4.04426e-26
2.26562e-35
4.76352e-43
1.55666e-49
5.74354e-56
8.245e-70
3.55385e-75
2.28502e-78
4.05456e-82
3.03084e-85
3.09145e-88
9.67606e-93
2.66603e-96
1.3939e-101
1.55077e-106
7.0179e-112
1.34403e-119
2.02025e-128
1.14628e-141
1.89644e-151
1.18485e-155
4.89232e-167
0.999997
1
1
1
0.999999
0.999998
0.999999
0.998027
0.979441
0.995977
0.999074
0.986007
0.75485
0.241357
0.0216292
0.000422695
3.44127e-08
5.61756e-12
1.6695e-17
5.16571e-26
2.95594e-35
6.38135e-43
2.10741e-49
7.68506e-56
1.24322e-69
5.21041e-75
3.39742e-78
6.09663e-82
4.71694e-85
4.63607e-88
1.91482e-92
4.23289e-96
3.46922e-101
3.19666e-106
1.30339e-111
3.31363e-119
6.6025e-128
5.80185e-141
5.40244e-151
5.04428e-155
8.51547e-166
0.999992
1
1
1
0.999999
0.999999
0.999999
0.997663
0.977527
0.995556
0.998954
0.981813
0.732241
0.22848
0.020942
0.000492031
5.03457e-08
6.06897e-12
2.04931e-17
6.59146e-26
3.85655e-35
8.52546e-43
2.87407e-49
1.02952e-55
1.76704e-69
7.68346e-75
5.08476e-78
9.21572e-82
7.47314e-85
6.69664e-88
3.75806e-92
6.24039e-96
8.9342e-101
7.97428e-106
2.28378e-111
9.91039e-119
2.13331e-127
3.848e-140
1.59044e-150
2.14452e-154
1.36798e-164
0.999991
1
1
0.999999
0.999999
0.999998
0.999999
0.997273
0.975533
0.994942
0.998742
0.976505
0.708003
0.215564
0.0201991
0.000558096
7.38007e-08
6.48809e-12
2.47284e-17
8.4047e-26
5.03294e-35
1.13591e-42
3.95161e-49
1.38295e-55
2.55304e-69
1.13981e-74
7.66452e-78
1.40044e-81
1.20551e-84
9.37276e-88
7.18335e-92
8.68405e-96
2.14464e-100
2.14704e-105
4.09595e-111
3.19615e-118
7.90131e-127
2.22514e-139
4.85071e-150
9.07654e-154
2.05262e-163
0.99999
1.00001
1
1
0.999999
0.999998
1
0.996854
0.973394
0.994153
0.998418
0.969929
0.682359
0.202778
0.0194193
0.00060634
1.06979e-07
6.86668e-12
2.93551e-17
1.07124e-25
6.57205e-35
1.50948e-42
5.48041e-49
1.86633e-55
3.73188e-69
1.70124e-74
1.16434e-77
2.13949e-81
1.97726e-84
1.28089e-87
1.32493e-91
1.16403e-95
4.60684e-100
5.47866e-105
8.3823e-111
9.70183e-118
3.74515e-126
1.0162e-138
1.51206e-149
3.82313e-153
2.90543e-162
0.99999
1.00001
1
1
0.999999
0.999997
1
0.9964
0.971085
0.993193
0.997958
0.961928
0.65557
0.190259
0.0186071
0.000634271
1.51959e-07
7.20149e-12
3.4295e-17
1.36528e-25
8.58972e-35
2.001e-42
7.66837e-49
2.53606e-55
5.08746e-69
2.55513e-74
1.784e-77
3.28632e-81
3.28749e-84
1.72866e-87
2.35333e-91
1.55078e-95
8.85863e-100
1.24718e-104
2.12887e-110
2.66571e-117
1.94312e-125
4.69819e-138
4.69202e-149
1.61233e-152
3.91253e-161
0.99999
1.00001
1
1
0.999999
0.999998
1
0.995905
0.968589
0.992003
0.997332
0.952351
0.627916
0.178109
0.0177646
0.000645622
2.10465e-07
7.49619e-12
3.94275e-17
1.74046e-25
1.12409e-34
2.64682e-42
1.08234e-48
3.47895e-55
7.60176e-69
3.86195e-74
2.75934e-77
5.07609e-81
5.51674e-84
2.34619e-87