/*--------------------------------*- C++ -*----------------------------------*\
| =========                 |                                                 |
| \\      /  F ield         | OpenFOAM: The Open Source CFD Toolbox           |
|  \\    /   O peration     | Version:  v2012                                 |
|   \\  /    A nd           | Website:  www.openfoam.com                      |
|    \\/     M anipulation  |                                                 |
\*---------------------------------------------------------------------------*/
FoamFile
{
    version     2.0;
    format      ascii;
    class       surfaceScalarField;
    location    "0.35";
    object      phi;
}
// * * * * * * * * * * * * * * * * * * * * * * * * * * * * * * * * * * * * * //

dimensions      [0 3 -1 0 0 0 0];
oriented        oriented;


internalField   nonuniform List<scalar> 
49380
(
3.84883e-16
-2.13073e-14
-1.00112e-18
2.94056e-15
-3.23074e-13
-2.53755e-17
9.56669e-15
-1.23037e-12
1.59104e-17
2.06512e-14
-2.94943e-12
-9.03937e-17
3.6229e-14
-5.65116e-12
-3.15409e-16
5.92737e-14
-9.49695e-12
-1.9666e-16
9.14094e-14
-1.46472e-11
-8.36393e-17
1.32492e-13
-2.12663e-11
-1.32594e-16
1.87228e-13
-2.95204e-11
2.19507e-16
2.53799e-13
-3.9596e-11
-1.09289e-16
3.37931e-13
-5.16714e-11
2.03657e-17
4.40676e-13
-6.5947e-11
-5.56697e-17
5.66047e-13
-8.26407e-11
2.43272e-17
7.16077e-13
-1.01959e-10
-4.03219e-17
8.95571e-13
-1.2415e-10
1.07694e-16
1.10747e-12
-1.49442e-10
1.90156e-16
1.35554e-12
-1.78097e-10
2.58193e-16
1.64553e-12
-2.10385e-10
4.50549e-16
1.97926e-12
-2.46584e-10
1.14286e-16
2.36179e-12
-2.86973e-10
-4.45306e-18
2.79958e-12
-3.31851e-10
9.30453e-17
3.29731e-12
-3.81551e-10
2.64165e-17
3.86018e-12
-4.36327e-10
-6.39502e-17
4.49338e-12
-4.96547e-10
-1.10065e-16
5.2017e-12
-5.62474e-10
-1.38836e-16
5.98979e-12
-6.34448e-10
-1.49544e-16
6.86175e-12
-7.12768e-10
-1.51341e-16
7.82102e-12
-7.97644e-10
-1.4621e-16
8.87003e-12
-8.89479e-10
-1.42673e-16
1.00099e-11
-9.88347e-10
-1.31666e-16
1.124e-11
-1.09454e-09
-1.26758e-16
1.2558e-11
-1.20819e-09
-1.1763e-16
1.3959e-11
-1.32935e-09
-1.16696e-16
1.54353e-11
-1.45805e-09
-1.1321e-16
1.6976e-11
-1.59418e-09
-1.15604e-16
1.85667e-11
-1.73763e-09
-1.14872e-16
2.01889e-11
-1.88799e-09
-1.15981e-16
2.18204e-11
-2.04486e-09
-1.20996e-16
2.34337e-11
-2.20757e-09
-1.34703e-16
2.49973e-11
-2.37471e-09
-1.2794e-16
2.64754e-11
-2.5465e-09
-1.15417e-16
2.78278e-11
-2.71995e-09
-9.89301e-17
2.90109e-11
-2.89477e-09
-9.14342e-17
2.99781e-11
-3.06767e-09
-7.70709e-17
3.06816e-11
-3.23593e-09
-6.70749e-17
3.10733e-11
-3.39858e-09
-4.65138e-17
3.1108e-11
-3.54897e-09
-3.09579e-17
3.07438e-11
-3.68486e-09
-4.38622e-17
2.99471e-11
-3.7997e-09
-6.22236e-17
2.86954e-11
-3.88779e-09
-6.70297e-17
2.69794e-11
-3.94275e-09
-7.40156e-17
2.48104e-11
-3.95397e-09
-6.93426e-17
2.2221e-11
-3.91202e-09
-7.18866e-17
1.92663e-11
-3.80469e-09
-6.6277e-17
1.60196e-11
-3.61633e-09
-6.64801e-17
1.2559e-11
-3.32948e-09
-5.95501e-17
8.96338e-12
-2.92549e-09
-5.67006e-17
5.37947e-12
-2.3817e-09
-4.68317e-17
2.11277e-12
-1.66707e-09
-3.75998e-17
-7.10902e-10
-1.97508e-17
2.4568e-16
-2.1564e-14
-1.48184e-18
2.55361e-15
-3.25354e-13
2.40413e-18
8.30533e-15
-1.23638e-12
-3.20846e-17
2.14402e-14
-2.96016e-12
2.8796e-16
3.8908e-14
-5.66881e-12
-2.73455e-17
6.10006e-14
-9.52429e-12
-6.23426e-16
9.62355e-14
-1.46838e-11
-1.8261e-16
1.39919e-13
-2.13135e-11
-4.46859e-16
1.94753e-13
-2.95804e-11
-5.85377e-16
2.65497e-13
-3.9669e-11
-2.62737e-16
3.52981e-13
-5.176e-11
-1.41678e-16
4.58268e-13
-6.60544e-11
-1.67489e-16
5.87116e-13
-8.27689e-11
-7.10278e-18
7.39525e-13
-1.02111e-10
2.06659e-17
9.20858e-13
-1.2433e-10
5.43958e-17
1.13528e-12
-1.49653e-10
2.84014e-16
1.38414e-12
-1.78344e-10
1.4316e-16
1.67649e-12
-2.10672e-10
4.11719e-16
2.01413e-12
-2.46916e-10
5.20187e-16
2.39705e-12
-2.87358e-10
-1.7371e-16
2.83515e-12
-3.32295e-10
-4.5615e-16
3.3348e-12
-3.82055e-10
-4.28947e-16
3.9009e-12
-4.36896e-10
-2.95527e-16
4.53819e-12
-4.97186e-10
-1.85521e-16
5.25121e-12
-5.63188e-10
-1.48367e-16
6.04461e-12
-6.35242e-10
-1.39227e-16
6.92261e-12
-7.13647e-10
-1.39958e-16
7.88866e-12
-7.98611e-10
-1.3901e-16
8.9452e-12
-8.90536e-10
-1.45014e-16
1.00934e-11
-9.89496e-10
-1.38345e-16
1.13324e-11
-1.09578e-09
-1.41136e-16
1.26601e-11
-1.20952e-09
-1.35956e-16
1.40712e-11
-1.33076e-09
-1.44313e-16
1.55579e-11
-1.45953e-09
-1.51866e-16
1.71093e-11
-1.59574e-09
-1.6339e-16
1.87107e-11
-1.73923e-09
-1.75443e-16
2.03436e-11
-1.88962e-09
-1.79583e-16
2.19851e-11
-2.0465e-09
-2.03292e-16
2.36078e-11
-2.20919e-09
-2.21921e-16
2.51797e-11
-2.37629e-09
-2.20466e-16
2.66649e-11
-2.54799e-09
-1.96416e-16
2.80229e-11
-2.72131e-09
-1.71736e-16
2.92095e-11
-2.89596e-09
-1.47844e-16
3.01781e-11
-3.06864e-09
-1.27498e-16
3.08803e-11
-3.23663e-09
-9.68351e-17
3.12679e-11
-3.39896e-09
-6.44251e-17
3.12954e-11
-3.54899e-09
-3.65715e-17
3.09208e-11
-3.68448e-09
-4.56526e-17
3.01102e-11
-3.79889e-09
-7.59191e-17
2.88412e-11
-3.88651e-09
-9.38482e-17
2.71048e-11
-3.94101e-09
-1.00432e-16
2.49125e-11
-3.95177e-09
-1.02972e-16
2.22973e-11
-3.9094e-09
-1.01385e-16
1.93156e-11
-3.8017e-09
-9.6795e-17
1.6042e-11
-3.61304e-09
-8.89803e-17
1.25558e-11
-3.32599e-09
-7.90512e-17
8.93456e-12
-2.92186e-09
-6.4017e-17
5.31929e-12
-2.37808e-09
-4.11802e-17
2.00359e-12
-1.66374e-09
-2.26415e-18
-7.08897e-10
4.59559e-17
9.81626e-17
-2.16907e-14
-3.42462e-18
1.74122e-15
-3.26829e-13
2.16512e-17
5.6924e-15
-1.24093e-12
-7.25544e-17
1.55916e-14
-2.96921e-12
9.94051e-17
3.0009e-14
-5.68335e-12
-1.11645e-17
5.25832e-14
-9.54515e-12
2.12053e-16
8.60601e-14
-1.47132e-11
4.69325e-16
1.24923e-13
-2.13548e-11
-3.17358e-16
1.76895e-13
-2.96354e-11
-3.52542e-16
2.43788e-13
-3.97387e-11
-3.42565e-16
3.27318e-13
-5.18475e-11
-4.92731e-16
4.30975e-13
-6.61612e-11
-3.8194e-16
5.58364e-13
-8.28986e-11
-3.44532e-16
7.09349e-13
-1.02268e-10
-6.03203e-16
8.92458e-13
-1.24515e-10
-2.25762e-16
1.10668e-12
-1.49871e-10
-4.35434e-16
1.35717e-12
-1.78599e-10
-4.60487e-16
1.65316e-12
-2.10967e-10
-2.40862e-17
1.99194e-12
-2.47258e-10
-4.13831e-16
2.37944e-12
-2.87751e-10
-5.74702e-16
2.82323e-12
-3.32743e-10
-5.95493e-16
3.32914e-12
-3.82566e-10
-5.53241e-16
3.9025e-12
-4.37472e-10
-4.50527e-16
4.54829e-12
-4.97834e-10
-3.52515e-16
5.27118e-12
-5.63913e-10
-3.01265e-16
6.0759e-12
-6.36049e-10
-2.66373e-16
6.96673e-12
-7.14539e-10
-2.31732e-16
7.94719e-12
-7.99593e-10
-1.9486e-16
9.01969e-12
-8.9161e-10
-1.6931e-16
1.01854e-11
-9.90663e-10
-1.30259e-16
1.14436e-11
-1.09703e-09
-1.11673e-16
1.27917e-11
-1.21086e-09
-8.71474e-17
1.42244e-11
-1.33219e-09
-9.12015e-17
1.57338e-11
-1.46105e-09
-9.88359e-17
1.73085e-11
-1.59731e-09
-1.18308e-16
1.89335e-11
-1.74086e-09
-1.39768e-16
2.05899e-11
-1.89128e-09
-1.52079e-16
2.22542e-11
-2.04817e-09
-1.92492e-16
2.38984e-11
-2.21084e-09
-2.22074e-16
2.54901e-11
-2.37788e-09
-2.20611e-16
2.69927e-11
-2.54949e-09
-2.04972e-16
2.8365e-11
-2.72269e-09
-1.70784e-16
2.95622e-11
-2.89716e-09
-1.4037e-16
3.05367e-11
-3.06961e-09
-1.11183e-16
3.12398e-11
-3.23733e-09
-7.04788e-17
3.16224e-11
-3.39935e-09
-2.73272e-17
3.16386e-11
-3.54901e-09
8.02104e-18
3.12459e-11
-3.68409e-09
-3.98978e-18
3.04104e-11
-3.79806e-09
-4.08431e-17
2.91093e-11
-3.88522e-09
-7.03858e-17
2.73341e-11
-3.93923e-09
-9.22654e-17
2.50966e-11
-3.94954e-09
-1.02686e-16
2.2431e-11
-3.90674e-09
-1.09943e-16
1.9395e-11
-3.79867e-09
-1.03189e-16
1.6066e-11
-3.60972e-09
-9.67162e-17
1.25274e-11
-3.32245e-09
-7.92818e-17
8.86202e-12
-2.91819e-09
-5.75051e-17
5.21339e-12
-2.37443e-09
-1.35082e-17
1.91062e-12
-1.66043e-09
5.72473e-17
-7.06978e-10
1.35438e-16
1.31063e-16
-2.18374e-14
-1.97132e-18
1.64464e-15
-3.28441e-13
-1.1986e-17
6.05473e-15
-1.24551e-12
-1.95469e-17
1.60403e-14
-2.97826e-12
1.14058e-16
3.12608e-14
-5.69821e-12
4.45039e-17
5.51427e-14
-9.56753e-12
1.80015e-16
8.78163e-14
-1.47452e-11
8.0927e-17
1.2783e-13
-2.13983e-11
-3.98589e-16
1.8374e-13
-2.96915e-11
-4.39724e-17
2.4915e-13
-3.98101e-11
-7.25998e-16
3.33489e-13
-5.19358e-11
-4.79967e-16
4.36992e-13
-6.6269e-11
-4.83609e-16
5.63882e-13
-8.30282e-11
-3.37062e-16
7.15962e-13
-1.02422e-10
-2.7515e-16
8.98395e-13
-1.24698e-10
-1.20704e-16
1.11285e-12
-1.50088e-10
-2.07594e-16
1.3639e-12
-1.78853e-10
-3.03571e-16
1.65978e-12
-2.11263e-10
-8.19536e-19
2.00029e-12
-2.47601e-10
-2.97829e-16
2.39003e-12
-2.88147e-10
-6.91585e-16
2.83853e-12
-3.33196e-10
-5.34585e-16
3.35043e-12
-3.83082e-10
-4.92384e-16
3.93113e-12
-4.38057e-10
-4.88025e-16
4.58597e-12
-4.98493e-10
-4.79452e-16
5.32003e-12
-5.64651e-10
-4.67698e-16
6.13812e-12
-6.36871e-10
-4.46684e-16
7.04466e-12
-7.15449e-10
-4.04815e-16
8.04326e-12
-8.00594e-10
-3.47849e-16
9.13634e-12
-8.92705e-10
-2.98452e-16
1.03251e-11
-9.91854e-10
-2.25987e-16
1.16087e-11
-1.09832e-09
-1.80257e-16
1.29845e-11
-1.21224e-09
-1.24874e-16
1.44469e-11
-1.33366e-09
-1.09699e-16
1.59876e-11
-1.46259e-09
-1.00544e-16
1.75949e-11
-1.59892e-09
-1.10072e-16
1.92531e-11
-1.74251e-09
-1.24954e-16
2.09428e-11
-1.89297e-09
-1.29035e-16
2.26397e-11
-2.04987e-09
-1.75135e-16
2.4315e-11
-2.21252e-09
-2.05323e-16
2.59353e-11
-2.3795e-09
-1.99007e-16
2.74632e-11
-2.55103e-09
-1.80857e-16
2.88565e-11
-2.72408e-09
-1.36907e-16
3.00692e-11
-2.89837e-09
-9.39652e-17
3.10527e-11
-3.0706e-09
-5.96151e-17
3.17572e-11
-3.23804e-09
-5.19269e-18
3.21329e-11
-3.39973e-09
3.97835e-17
3.21327e-11
-3.54901e-09
6.76339e-17
3.17139e-11
-3.68367e-09
7.55076e-17
3.08421e-11
-3.79719e-09
5.2476e-17
2.94946e-11
-3.88387e-09
2.17898e-17
2.76629e-11
-3.93741e-09
-3.10278e-19
2.53601e-11
-3.94724e-09
-1.75778e-17
2.26214e-11
-3.90401e-09
-2.58938e-17
1.95069e-11
-3.79556e-09
-2.28689e-17
1.60977e-11
-3.60632e-09
-1.42562e-17
1.24841e-11
-3.31885e-09
2.98827e-18
8.7599e-12
-2.91448e-09
3.12963e-17
5.08107e-12
-2.37076e-09
8.20447e-17
1.81702e-12
-1.65718e-09
1.67693e-16
-7.05172e-10
2.52659e-16
3.50152e-17
-2.19026e-14
-4.46094e-18
1.11276e-15
-3.29446e-13
8.62359e-18
4.09083e-15
-1.24893e-12
-4.88952e-17
1.14867e-14
-2.98574e-12
-1.33361e-17
2.37971e-14
-5.71101e-12
-5.48853e-17
4.4553e-14
-9.58686e-12
1.70537e-16
7.26095e-14
-1.47731e-11
1.70609e-17
1.11917e-13
-2.14359e-11
1.99019e-16
1.66116e-13
-2.97415e-11
4.7474e-16
2.2809e-13
-3.98759e-11
-4.68738e-16
3.10216e-13
-5.202e-11
-2.47086e-16
4.11864e-13
-6.63736e-11
-3.51299e-16
5.36916e-13
-8.31571e-11
-4.79321e-16
6.89256e-13
-1.02577e-10
-3.72168e-16
8.71683e-13
-1.24884e-10
-4.23897e-16
1.0879e-12
-1.50308e-10
-4.86974e-16
1.34258e-12
-1.79111e-10
-4.77722e-16
1.64048e-12
-2.11565e-10
-4.77129e-16
1.98654e-12
-2.47951e-10
-4.48146e-16
2.38373e-12
-2.8855e-10
-6.79253e-16
2.84102e-12
-3.33658e-10
-5.63238e-16
3.36344e-12
-3.83608e-10
-5.24711e-16
3.95662e-12
-4.38654e-10
-5.03011e-16
4.62597e-12
-4.99167e-10
-5.18245e-16
5.37692e-12
-5.65407e-10
-5.26664e-16
6.21443e-12
-6.37713e-10
-5.3974e-16
7.14315e-12
-7.16383e-10
-5.25786e-16
8.16677e-12
-8.01622e-10
-4.93736e-16
9.28781e-12
-8.9383e-10
-4.6017e-16
1.05076e-11
-9.93077e-10
-3.88225e-16
1.1825e-11
-1.09964e-09
-3.37642e-16
1.32374e-11
-1.21366e-09
-2.63492e-16
1.47389e-11
-1.33516e-09
-2.33446e-16
1.63207e-11
-1.46417e-09
-2.03514e-16
1.79705e-11
-1.60057e-09
-1.97885e-16
1.96722e-11
-1.74422e-09
-1.94317e-16
2.14054e-11
-1.89471e-09
-1.817e-16
2.3145e-11
-2.05161e-09
-2.19986e-16
2.4861e-11
-2.21424e-09
-2.47049e-16
2.6519e-11
-2.38116e-09
-2.27093e-16
2.80801e-11
-2.55259e-09
-1.94741e-16
2.95011e-11
-2.7255e-09
-1.29237e-16
3.07344e-11
-2.89961e-09
-7.29911e-17
3.17301e-11
-3.0716e-09
-2.39362e-17
3.24372e-11
-3.23874e-09
4.16914e-17
3.28043e-11
-3.40009e-09
9.44995e-17
3.27836e-11
-3.54899e-09
1.29475e-16
3.23317e-11
-3.68322e-09
1.60185e-16
3.14136e-11
-3.79627e-09
1.52579e-16
3.00066e-11
-3.88246e-09
1.2437e-16
2.8103e-11
-3.9355e-09
9.50029e-17
2.57167e-11
-3.94485e-09
7.64829e-17
2.2885e-11
-3.90117e-09
6.16669e-17
1.96709e-11
-3.79235e-09
6.76004e-17
1.61604e-11
-3.6028e-09
7.33907e-17
1.24533e-11
-3.31514e-09
9.53453e-17
8.65805e-12
-2.91068e-09
1.22682e-16
4.94971e-12
-2.36705e-09
1.76683e-16
1.73202e-12
-1.65396e-09
2.58283e-16
-7.03433e-10
3.27824e-16
6.18914e-17
-2.20049e-14
-1.11012e-18
1.25318e-15
-3.30587e-13
2.82982e-18
4.80637e-15
-1.25249e-12
-5.87348e-18
1.27427e-14
-2.99305e-12
8.67132e-17
2.51609e-14
-5.72381e-12
-5.60236e-17
4.51019e-14
-9.60657e-12
3.88281e-17
7.29004e-14
-1.48016e-11
-8.40614e-17
1.13333e-13
-2.14743e-11
2.32341e-16
1.66418e-13
-2.97931e-11
1.79563e-16
2.28603e-13
-3.99426e-11
-5.15455e-16
3.1158e-13
-5.21042e-11
-1.76165e-16
4.11487e-13
-6.6478e-11
-5.16472e-16
5.36709e-13
-8.32843e-11
-2.59732e-16
6.87824e-13
-1.02731e-10
-3.08125e-16
8.69432e-13
-1.25068e-10
-3.1421e-16
1.0859e-12
-1.50526e-10
-2.60633e-16
1.34213e-12
-1.79369e-10
-2.36631e-16
1.64155e-12
-2.11867e-10
-3.99315e-16
1.99136e-12
-2.48304e-10
-4.15477e-16
2.39448e-12
-2.88959e-10
-7.21912e-16
2.85993e-12
-3.34129e-10
-6.33987e-16
3.39317e-12
-3.84146e-10
-5.81453e-16
4.00001e-12
-4.39266e-10
-5.58556e-16
4.68588e-12
-4.99857e-10
-6.04806e-16
5.45653e-12
-5.66182e-10
-6.40352e-16
6.31705e-12
-6.38579e-10
-6.8578e-16
7.27232e-12
-7.17344e-10
-6.92334e-16
8.32613e-12
-8.02682e-10
-6.7483e-16
9.4811e-12
-8.94991e-10
-6.49187e-16
1.07385e-11
-9.94339e-10
-5.74684e-16
1.20972e-11
-1.101e-09
-5.21022e-16
1.35544e-11
-1.21512e-09
-4.33506e-16
1.51036e-11
-1.33671e-09
-3.94337e-16
1.67357e-11
-1.46581e-09
-3.49921e-16
1.84377e-11
-1.60228e-09
-3.32047e-16
2.01927e-11
-1.74598e-09
-3.13216e-16
2.19793e-11
-1.8965e-09
-2.8158e-16
2.37712e-11
-2.05341e-09
-3.12181e-16
2.55372e-11
-2.216e-09
-3.31881e-16
2.72413e-11
-2.38287e-09
-3.02933e-16
2.88433e-11
-2.55419e-09
-2.47771e-16
3.02983e-11
-2.72696e-09
-1.63655e-16
3.15571e-11
-2.90087e-09
-8.79687e-17
3.25679e-11
-3.07261e-09
-2.77259e-17
3.32781e-11
-3.23945e-09
5.63288e-17
3.3635e-11
-3.40045e-09
1.17306e-16
3.35895e-11
-3.54894e-09
1.5877e-16
3.30973e-11
-3.68272e-09
2.27215e-16
3.2123e-11
-3.79529e-09
2.36778e-16
3.0644e-11
-3.88098e-09
2.12072e-16
2.86531e-11
-3.93351e-09
1.877e-16
2.6166e-11
-3.94236e-09
1.66362e-16
2.32222e-11
-3.89823e-09
1.53528e-16
1.98886e-11
-3.78901e-09
1.57905e-16
1.62575e-11
-3.59917e-09
1.66788e-16
1.24396e-11
-3.31132e-09
1.8782e-16
8.56164e-12
-2.9068e-09
2.15948e-16
4.82129e-12
-2.3633e-09
2.60897e-16
1.64901e-12
-1.65078e-09
3.27088e-16
-7.01777e-10
3.74242e-16
8.26498e-18
-2.2053e-14
-2.76738e-18
7.82545e-16
-3.3133e-13
-3.5934e-18
3.29389e-15
-1.25507e-12
-2.11897e-17
9.31712e-15
-2.99854e-12
9.13952e-17
2.05307e-14
-5.7345e-12
5.66816e-17
3.71469e-14
-9.62342e-12
-2.14298e-17
6.25641e-14
-1.48267e-11
3.72679e-17
1.00447e-13
-2.1509e-11
3.73766e-16
1.50414e-13
-2.98407e-11
3.01383e-16
2.12306e-13
-4.00047e-11
-2.13005e-17
2.95027e-13
-5.21842e-11
3.05818e-16
3.93927e-13
-6.65787e-11
-2.24318e-16
5.19059e-13
-8.34101e-11
-9.58821e-17
6.70281e-13
-1.02885e-10
-3.25069e-16
8.53073e-13
-1.25254e-10
-4.03605e-16
1.0716e-12
-1.50749e-10
-4.77037e-16
1.33171e-12
-1.79633e-10
-4.17418e-16
1.63571e-12
-2.12177e-10
-6.78751e-16
1.99208e-12
-2.48665e-10
-6.08669e-16
2.40553e-12
-2.89377e-10
-5.76299e-16
2.88323e-12
-3.3461e-10
-5.01034e-16
3.43119e-12
-3.84698e-10
-4.99831e-16
4.05569e-12
-4.39894e-10
-5.03764e-16
4.76242e-12
-5.00569e-10
-5.78348e-16
5.55749e-12
-5.66983e-10
-6.26708e-16
6.44615e-12
-6.39474e-10
-7.01911e-16
7.43355e-12
-7.18337e-10
-7.36574e-16
8.52363e-12
-8.03778e-10
-7.54602e-16
9.71911e-12
-8.96193e-10
-7.59078e-16
1.10213e-11
-9.95647e-10
-7.05439e-16
1.2429e-11
-1.10242e-09
-6.66727e-16
1.39391e-11
-1.21663e-09
-5.79255e-16
1.55447e-11
-1.33832e-09
-5.40948e-16
1.72363e-11
-1.4675e-09
-4.86872e-16
1.89999e-11
-1.60404e-09
-4.62829e-16
2.08177e-11
-1.7478e-09
-4.29504e-16
2.26674e-11
-1.89835e-09
-3.83867e-16
2.45211e-11
-2.05526e-09
-4.04168e-16
2.6346e-11
-2.21783e-09
-4.20384e-16
2.81046e-11
-2.38463e-09
-3.8194e-16
2.97549e-11
-2.55585e-09
-3.13362e-16
3.125e-11
-2.72846e-09
-2.10137e-16
3.25387e-11
-2.90216e-09
-1.23305e-16
3.35674e-11
-3.07364e-09
-4.91892e-17
3.42814e-11
-3.24017e-09
4.52125e-17
3.46264e-11
-3.40079e-09
1.19553e-16
3.45519e-11
-3.54887e-09
1.8101e-16
3.40126e-11
-3.68218e-09
2.64745e-16
3.29725e-11
-3.79425e-09
2.76343e-16
3.14091e-11
-3.87941e-09
2.50983e-16
2.93164e-11
-3.93141e-09
2.20455e-16
2.67117e-11
-3.93976e-09
1.99772e-16
2.36377e-11
-3.89515e-09
1.81825e-16
2.01659e-11
-3.78554e-09
1.90409e-16
1.63961e-11
-3.5954e-09
1.97564e-16
1.24517e-11
-3.30737e-09
2.23813e-16
8.47947e-12
-2.90282e-09
2.47864e-16
4.70211e-12
-2.35952e-09
2.85612e-16
1.57075e-12
-1.64764e-09
3.28594e-16
-7.00201e-10
3.51025e-16
2.96775e-17
-2.21248e-14
-4.59161e-18
1.13869e-15
-3.32185e-13
3.82583e-17
3.9714e-15
-1.25809e-12
1.00115e-18
7.78375e-15
-3.00531e-12
-3.85484e-16
2.18108e-14
-5.74568e-12
3.19647e-16
3.70286e-14
-9.641e-12
-2.47467e-16
6.24303e-14
-1.48524e-11
-5.18384e-17
9.85329e-14
-2.15444e-11
1.14309e-16
1.4759e-13
-2.98883e-11
1.51251e-16
2.1094e-13
-4.00671e-11
1.281e-16
2.93889e-13
-5.22649e-11
2.62856e-16
3.91831e-13
-6.66805e-11
-4.11506e-16
5.18007e-13
-8.3536e-11
1.09546e-17
6.69164e-13
-1.03039e-10
-2.97946e-16
8.52746e-13
-1.2544e-10
-3.34301e-16
1.0728e-12
-1.50972e-10
-4.20224e-16
1.33572e-12
-1.79899e-10
-4.38962e-16
1.64441e-12
-2.12492e-10
-6.8714e-16
2.00811e-12
-2.49033e-10
-6.01209e-16
2.43112e-12
-2.89806e-10
-7.30669e-16
2.92153e-12
-3.35106e-10
-6.50589e-16
3.4859e-12
-3.85267e-10
-5.45708e-16
4.13058e-12
-4.40542e-10
-4.7951e-16
4.86141e-12
-5.01304e-10
-5.27738e-16
5.6848e-12
-5.67811e-10
-5.80644e-16
6.60615e-12
-6.404e-10
-6.87222e-16
7.63091e-12
-7.19368e-10
-7.55407e-16
8.76311e-12
-8.04917e-10
-8.10571e-16
1.00056e-11
-8.97442e-10
-8.44006e-16
1.13598e-11
-9.97008e-10
-8.09994e-16
1.28241e-11
-1.10389e-09
-7.84452e-16
1.43953e-11
-1.21821e-09
-6.97883e-16
1.60661e-11
-1.34e-09
-6.60051e-16
1.78262e-11
-1.46927e-09
-5.98615e-16
1.96608e-11
-1.60588e-09
-5.67695e-16
2.1551e-11
-1.74969e-09
-5.22756e-16
2.34731e-11
-1.90027e-09
-4.61434e-16
2.53978e-11
-2.05719e-09
-4.74029e-16
2.72905e-11
-2.21973e-09
-4.82253e-16
2.91117e-11
-2.38646e-09
-4.40229e-16
3.08174e-11
-2.55756e-09
-3.60281e-16
3.23586e-11
-2.73e-09
-2.4766e-16
3.36817e-11
-2.90348e-09
-1.489e-16
3.47308e-11
-3.07469e-09
-7.06654e-17
3.54493e-11
-3.24089e-09
3.57522e-17
3.57807e-11
-3.40112e-09
1.16388e-16
3.5673e-11
-3.54876e-09
1.85516e-16
3.50798e-11
-3.68158e-09
2.82764e-16
3.39646e-11
-3.79313e-09
2.9518e-16
3.23049e-11
-3.87775e-09
2.67904e-16
3.00961e-11
-3.9292e-09
2.41478e-16
2.73578e-11
-3.93701e-09
2.16988e-16
2.41362e-11
-3.89193e-09
2.00103e-16
2.05084e-11
-3.78191e-09
2.05667e-16
1.65828e-11
-3.59147e-09
2.15122e-16
1.24968e-11
-3.30328e-09
2.39325e-16
8.4189e-12
-2.89874e-09
2.61719e-16
4.59748e-12
-2.35569e-09
2.8467e-16
1.4998e-12
-1.64454e-09
3.05461e-16
-6.98696e-10
3.10004e-16
1.00698e-17
-2.21645e-14
-3.81655e-18
8.22533e-16
-3.32809e-13
2.59893e-17
2.88511e-15
-1.26034e-12
-1.11592e-17
5.89356e-15
-3.01037e-12
-2.76201e-16
1.92084e-14
-5.7545e-12
5.11149e-16
3.25576e-14
-9.65529e-12
-3.35866e-17
5.65263e-14
-1.48745e-11
1.84169e-16
9.035e-14
-2.15768e-11
1.78121e-16
1.36335e-13
-2.99329e-11
1.88815e-16
2.00257e-13
-4.01258e-11
5.92724e-16
2.83797e-13
-5.23418e-11
7.98166e-16
3.823e-13
-6.67789e-11
1.25679e-17
5.10194e-13
-8.36601e-11
4.35925e-16
6.62245e-13
-1.03193e-10
-2.32339e-16
8.48299e-13
-1.25629e-10
-2.91057e-16
1.07175e-12
-1.512e-10
-5.35491e-16
1.34023e-12
-1.80172e-10
-5.38525e-16
1.65633e-12
-2.12815e-10
-8.44757e-16
2.02946e-12
-2.49413e-10
-7.7545e-16
2.46596e-12
-2.90247e-10
-6.49636e-16
2.97277e-12
-3.35617e-10
-5.67057e-16
3.55698e-12
-3.85855e-10
-5.17959e-16
4.22535e-12
-4.41215e-10
-4.99491e-16
4.98425e-12
-5.02067e-10
-5.62813e-16
5.84043e-12
-5.68672e-10
-6.08043e-16
6.79953e-12
-6.41365e-10
-7.12127e-16
7.86727e-12
-7.20442e-10
-7.76999e-16
9.04777e-12
-8.06104e-10
-8.43934e-16
1.0344e-11
-8.98746e-10
-8.91247e-16
1.17574e-11
-9.98429e-10
-8.72765e-16
1.32862e-11
-1.10542e-09
-8.61554e-16
1.49269e-11
-1.21986e-09
-7.79069e-16
1.66716e-11
-1.34175e-09
-7.4622e-16
1.85093e-11
-1.47111e-09
-6.78548e-16
2.04242e-11
-1.6078e-09
-6.44363e-16
2.23962e-11
-1.75167e-09
-5.86175e-16
2.44002e-11
-1.90228e-09
-5.12788e-16
2.6405e-11
-2.0592e-09
-5.13666e-16
2.83742e-11
-2.22171e-09
-5.16384e-16
3.0266e-11
-2.38836e-09
-4.67247e-16
3.20342e-11
-2.55933e-09
-3.84774e-16
3.36272e-11
-2.7316e-09
-2.60919e-16
3.4989e-11
-2.90485e-09
-1.58955e-16
3.60611e-11
-3.07576e-09
-7.39557e-17
3.67846e-11
-3.24161e-09
3.42118e-17
3.71007e-11
-3.40144e-09
1.22294e-16
3.69557e-11
-3.54861e-09
2.03805e-16
3.63019e-11
-3.68093e-09
2.93802e-16
3.51022e-11
-3.79192e-09
2.99342e-16
3.33347e-11
-3.87598e-09
2.68578e-16
3.09959e-11
-3.92686e-09
2.3353e-16
2.81083e-11
-3.93412e-09
2.06937e-16
2.47223e-11
-3.88854e-09
1.81288e-16
2.09212e-11
-3.7781e-09
1.87354e-16
1.68234e-11
-3.58737e-09
1.9161e-16
1.25813e-11
-3.29903e-09
2.18187e-16
8.38597e-12
-2.89454e-09
2.33497e-16
4.51157e-12
-2.35181e-09
2.46991e-16
1.43822e-12
-1.64146e-09
2.4565e-16
-6.97255e-10
2.36156e-16
1.08105e-17
-2.22191e-14
-6.60581e-18
9.24759e-16
-3.33495e-13
2.50291e-17
2.87729e-15
-1.2627e-12
-4.72306e-17
7.70002e-15
-3.01558e-12
-2.42161e-17
1.91193e-14
-5.7645e-12
2.04161e-16
3.08968e-14
-9.67195e-12
-6.42662e-16
5.40199e-14
-1.48983e-11
-9.50585e-17
8.8233e-14
-2.16095e-11
2.19219e-16
1.32855e-13
-2.99783e-11
-1.16402e-16
1.97506e-13
-4.01859e-11
6.17291e-16
2.81815e-13
-5.24202e-11
6.83868e-16
3.81592e-13
-6.68785e-11
8.09749e-17
5.11936e-13
-8.37856e-11
5.5589e-16
6.65322e-13
-1.03348e-10
-2.21169e-16
8.54518e-13
-1.2582e-10
-1.9655e-16
1.08172e-12
-1.51431e-10
-4.63853e-16
1.35675e-12
-1.80449e-10
-3.39623e-16
1.68159e-12
-2.13145e-10
-6.40295e-16
2.06612e-12
-2.49803e-10
-6.60121e-16
2.51667e-12
-2.90704e-10
-7.35229e-16
3.04132e-12
-3.36147e-10
-6.78997e-16
3.64786e-12
-3.86466e-10
-5.46383e-16
4.3432e-12
-4.41914e-10
-4.64715e-16
5.13408e-12
-5.02862e-10
-4.8144e-16
6.02752e-12
-5.69569e-10
-5.12514e-16
7.02943e-12
-6.42372e-10
-6.27019e-16
8.14581e-12
-7.21564e-10
-7.12088e-16
9.3809e-12
-8.07346e-10
-8.0991e-16
1.07378e-11
-9.0011e-10
-8.84415e-16
1.22178e-11
-9.99916e-10
-8.90106e-16
1.38191e-11
-1.10703e-09
-8.97069e-16
1.55378e-11
-1.22158e-09
-8.23568e-16
1.73652e-11
-1.34359e-09
-7.97103e-16
1.92897e-11
-1.47304e-09
-7.28018e-16
2.12943e-11
-1.60981e-09
-6.90681e-16
2.33576e-11
-1.75374e-09
-6.24051e-16
2.54528e-11
-1.90438e-09
-5.37125e-16
2.75469e-11
-2.0613e-09
-5.30427e-16
2.96011e-11
-2.22376e-09
-5.23052e-16
3.15714e-11
-2.39033e-09
-4.72302e-16
3.3409e-11
-2.56117e-09
-3.84891e-16
3.50595e-11
-2.73325e-09
-2.57407e-16
3.64641e-11
-2.90625e-09
-1.48448e-16
3.75617e-11
-3.07686e-09
-6.46414e-17
3.82905e-11
-3.24234e-09
4.94516e-17
3.85895e-11
-3.40174e-09
1.37504e-16
3.84031e-11
-3.54842e-09
2.18505e-16
3.7682e-11
-3.6802e-09
3.07298e-16
3.63888e-11
-3.79063e-09
3.15179e-16
3.4502e-11
-3.87409e-09
2.8446e-16
3.20196e-11
-3.92437e-09
2.53944e-16
2.89673e-11
-3.93107e-09
2.21709e-16
2.54003e-11
-3.88497e-09
1.94466e-16
2.14092e-11
-3.77411e-09
1.93397e-16
1.71231e-11
-3.58308e-09
1.96099e-16
1.27105e-11
-3.29462e-09
2.16608e-16
8.38534e-12
-2.89021e-09
2.27383e-16
4.44735e-12
-2.34787e-09
2.25785e-16
1.3871e-12
-1.6384e-09
2.07919e-16
-6.95865e-10
1.90728e-16
-5.13231e-18
-2.2255e-14
-5.33855e-18
7.99236e-16
-3.34014e-13
3.28681e-17
2.10744e-15
-1.26471e-12
-8.84921e-17
6.79671e-15
-3.02008e-12
2.59877e-17
1.70248e-14
-5.7731e-12
2.38123e-16
2.89948e-14
-9.68577e-12
-2.8039e-16
5.15671e-14
-1.49196e-11
7.98689e-17
8.38836e-14
-2.16414e-11
2.2589e-16
1.2688e-13
-3.00209e-11
-3.19878e-17
1.92456e-13
-4.02426e-11
1.03986e-15
2.77702e-13
-5.24956e-11
1.19905e-15
3.78962e-13
-6.69755e-11
4.95054e-16
5.12272e-13
-8.39102e-11
1.03821e-15
6.68331e-13
-1.03505e-10
-5.2356e-17
8.62215e-13
-1.26013e-10
1.26224e-17
1.0951e-12
-1.51668e-10
-4.5381e-16
1.37872e-12
-1.80735e-10
-2.68218e-16
1.71435e-12
-2.13486e-10
-6.47371e-16
2.11255e-12
-2.50206e-10
-6.58738e-16
2.58112e-12
-2.91177e-10
-5.78826e-16
3.12759e-12
-3.36698e-10
-5.25265e-16
3.76015e-12
-3.87102e-10
-4.56683e-16
4.48621e-12
-4.42643e-10
-4.43831e-16
5.3132e-12
-5.03693e-10
-4.93129e-16
6.24857e-12
-5.70509e-10
-5.32485e-16
7.29858e-12
-6.43428e-10
-6.44099e-16
8.4695e-12
-7.22741e-10
-7.18301e-16
9.76571e-12
-8.08649e-10
-8.13407e-16
1.11904e-11
-9.01542e-10
-8.87442e-16
1.27447e-11
-1.00148e-09
-8.97147e-16
1.44266e-11
-1.10872e-09
-9.11022e-16
1.62319e-11
-1.22339e-09
-8.39497e-16
1.81511e-11
-1.34551e-09
-8.18765e-16
2.01717e-11
-1.47507e-09
-7.4658e-16
2.22755e-11
-1.61192e-09
-7.10101e-16
2.44396e-11
-1.75591e-09
-6.34386e-16
2.66354e-11
-1.90658e-09
-5.40064e-16
2.88278e-11
-2.0635e-09
-5.23579e-16
3.09758e-11
-2.22592e-09
-5.11426e-16
3.30324e-11
-2.39239e-09
-4.55955e-16
3.49461e-11
-2.56309e-09
-3.71666e-16
3.66597e-11
-2.73497e-09
-2.37004e-16
3.81112e-11
-2.90771e-09
-1.28922e-16
3.92365e-11
-3.07798e-09
-4.09448e-17
3.99709e-11
-3.24307e-09
7.07195e-17
4.0251e-11
-3.40202e-09
1.62919e-16
4.00189e-11
-3.54819e-09
2.5116e-16
3.9224e-11
-3.6794e-09
3.28229e-16
3.78282e-11
-3.78923e-09
3.36907e-16
3.58107e-11
-3.87207e-09
3.08743e-16
3.31712e-11
-3.92173e-09
2.71736e-16
2.99389e-11
-3.92783e-09
2.38024e-16
2.61746e-11
-3.8812e-09
2.00849e-16
2.1977e-11
-3.76991e-09
1.98167e-16
1.74865e-11
-3.57859e-09
1.92764e-16
1.28888e-11
-3.29002e-09
2.13016e-16
8.42065e-12
-2.88574e-09
2.14993e-16
4.40687e-12
-2.34385e-09
2.06107e-16
1.34696e-12
-1.63533e-09
1.73476e-16
-6.94516e-10
1.48847e-16
5.45564e-18
-2.22978e-14
-5.51743e-18
6.2336e-16
-3.34617e-13
-1.6693e-18
2.37279e-15
-1.26671e-12
-2.91122e-17
7.07736e-15
-3.02465e-12
2.07377e-17
1.84249e-14
-5.78173e-12
3.07191e-16
2.89281e-14
-9.70072e-12
-4.75204e-16
5.01654e-14
-1.49421e-11
-8.48161e-17
8.33898e-14
-2.1673e-11
9.46194e-18
1.23778e-13
-3.00656e-11
-4.44208e-16
1.89679e-13
-4.03032e-11
7.53551e-16
2.76612e-13
-5.25744e-11
8.66321e-16
3.79472e-13
-6.7078e-11
1.75716e-16
5.17233e-13
-8.40394e-11
9.65993e-16
6.77403e-13
-1.03667e-10
-1.30405e-16
8.77526e-13
-1.26213e-10
2.71774e-17
1.11764e-12
-1.51912e-10
-4.20147e-16
1.41146e-12
-1.8103e-10
-1.76691e-16
1.75981e-12
-2.13839e-10
-5.77475e-16
2.17428e-12
-2.50626e-10
-5.98214e-16
2.66292e-12
-2.91671e-10
-5.41817e-16
3.23366e-12
-3.37273e-10
-5.22391e-16
3.89542e-12
-3.87768e-10
-4.52781e-16
4.65609e-12
-4.43408e-10
-4.37643e-16
5.52365e-12
-5.04564e-10
-4.67245e-16
6.50598e-12
-5.71495e-10
-4.93412e-16
7.60967e-12
-6.44536e-10
-5.96399e-16
8.84132e-12
-7.23978e-10
-6.66977e-16
1.02054e-11
-8.10019e-10
-7.68051e-16
1.17052e-11
-9.03049e-10
-8.49428e-16
1.33418e-11
-1.00312e-09
-8.6896e-16
1.51127e-11
-1.1105e-09
-8.91268e-16
1.70134e-11
-1.2253e-09
-8.2511e-16
1.90336e-11
-1.34754e-09
-8.09235e-16
2.11598e-11
-1.4772e-09
-7.38208e-16
2.33724e-11
-1.61414e-09
-7.01571e-16
2.56469e-11
-1.75819e-09
-6.22785e-16
2.79529e-11
-1.90889e-09
-5.19978e-16
3.02528e-11
-2.0658e-09
-5.00159e-16
3.2503e-11
-2.22817e-09
-4.79699e-16
3.46537e-11
-2.39455e-09
-4.26998e-16
3.66503e-11
-2.56509e-09
-3.43229e-16
3.84324e-11
-2.73675e-09
-2.10144e-16
3.99348e-11
-2.90921e-09
-9.83132e-17
4.10899e-11
-3.07914e-09
-1.41664e-17
4.18302e-11
-3.24381e-09
1.01443e-16
4.20893e-11
-3.40227e-09
1.91887e-16
4.18073e-11
-3.5479e-09
2.78151e-16
4.09318e-11
-3.67852e-09
3.5395e-16
3.94243e-11
-3.78772e-09
3.74973e-16
3.72647e-11
-3.86991e-09
3.5406e-16
3.44546e-11
-3.91892e-09
3.26404e-16
3.10273e-11
-3.9244e-09
2.89627e-16
2.70495e-11
-3.87722e-09
2.52687e-16
2.26286e-11
-3.76548e-09
2.42648e-16
1.79176e-11
-3.57387e-09
2.35076e-16
1.31197e-11
-3.28521e-09
2.47897e-16
8.49468e-12
-2.88111e-09
2.45512e-16
4.39152e-12
-2.33975e-09
2.25005e-16
1.31789e-12
-1.63226e-09
1.83824e-16
-6.93195e-10
1.55571e-16
-9.27544e-18
-2.23298e-14
-5.52142e-18
6.3047e-16
-3.35093e-13
1.74086e-17
2.03835e-15
-1.26852e-12
-4.93021e-17
6.146e-15
-3.02902e-12
-2.60324e-17
1.67093e-14
-5.78967e-12
3.15792e-16
2.81363e-14
-9.71365e-12
-1.67658e-16
5.04627e-14
-1.49629e-11
2.09228e-16
8.23416e-14
-2.17046e-11
-9.83803e-18
1.2239e-13
-3.01089e-11
-3.90801e-16
1.88914e-13
-4.03626e-11
9.3564e-16
2.76941e-13
-5.26524e-11
1.09518e-15
3.82347e-13
-6.71804e-11
4.17843e-16
5.24563e-13
-8.41699e-11
1.34533e-15
6.89687e-13
-1.03832e-10
3.49913e-17
8.97529e-13
-1.26418e-10
3.22797e-16
1.14634e-12
-1.52164e-10
-3.80618e-16
1.45232e-12
-1.81336e-10
-6.56327e-17
1.81573e-12
-2.14207e-10
-5.25978e-16
2.24936e-12
-2.51063e-10
-4.85351e-16
2.76157e-12
-2.92186e-10
-4.33083e-16
3.36044e-12
-3.37876e-10
-4.61735e-16
4.05545e-12
-3.88466e-10
-4.38088e-16
4.85507e-12
-4.44211e-10
-4.53158e-16
5.76796e-12
-5.05481e-10
-4.97414e-16
6.80246e-12
-5.72534e-10
-5.26866e-16
7.96564e-12
-6.45704e-10
-6.23561e-16
9.26438e-12
-7.25283e-10
-6.81106e-16
1.07033e-11
-8.11465e-10
-7.70874e-16
1.22858e-11
-9.04639e-10
-8.42751e-16
1.40128e-11
-1.00486e-09
-8.53953e-16
1.58814e-11
-1.11238e-09
-8.72576e-16
1.78866e-11
-1.22731e-09
-7.9999e-16
2.00173e-11
-1.34968e-09
-7.8466e-16
2.22587e-11
-1.47945e-09
-7.0863e-16
2.45899e-11
-1.61648e-09
-6.737e-16
2.69846e-11
-1.76059e-09
-5.88782e-16
2.94103e-11
-1.91132e-09
-4.83416e-16
3.18268e-11
-2.06822e-09
-4.57222e-16
3.41879e-11
-2.23054e-09
-4.34945e-16
3.64405e-11
-2.3968e-09
-3.81546e-16
3.85267e-11
-2.56718e-09
-3.07696e-16
4.03828e-11
-2.73861e-09
-1.72323e-16
4.19399e-11
-2.91077e-09
-6.56844e-17
4.31269e-11
-3.08033e-09
2.07059e-17
4.38732e-11
-3.24456e-09
1.31468e-16
4.41092e-11
-3.40251e-09
2.25976e-16
4.37728e-11
-3.54756e-09
3.19316e-16
4.28098e-11
-3.67756e-09
3.84452e-16
4.11815e-11
-3.78608e-09
4.12908e-16
3.88682e-11
-3.86759e-09
4.00873e-16
3.58741e-11
-3.91592e-09
3.70761e-16
3.22366e-11
-3.92076e-09
3.3645e-16
2.80289e-11
-3.87301e-09
2.92308e-16
2.3368e-11
-3.76082e-09
2.82624e-16
1.84201e-11
-3.56892e-09
2.67798e-16
1.34063e-11
-3.28019e-09
2.81353e-16
8.60953e-12
-2.87631e-09
2.72056e-16
4.40213e-12
-2.33554e-09
2.49551e-16
1.29977e-12
-1.62915e-09
2.01186e-16
-6.91892e-10
1.67376e-16
1.42133e-18
-2.23697e-14
-5.74081e-18
6.51196e-16
-3.35636e-13
1.02443e-17
2.00454e-15
-1.27039e-12
-6.13114e-17
7.29557e-15