/*--------------------------------*- C++ -*----------------------------------*\
| =========                 |                                                 |
| \\      /  F ield         | OpenFOAM: The Open Source CFD Toolbox           |
|  \\    /   O peration     | Version:  v2012                                 |
|   \\  /    A nd           | Website:  www.openfoam.com                      |
|    \\/     M anipulation  |                                                 |
\*---------------------------------------------------------------------------*/
FoamFile
{
    version     2.0;
    format      ascii;
    class       volScalarField;
    location    "0.3";
    object      alpha.water;
}
// * * * * * * * * * * * * * * * * * * * * * * * * * * * * * * * * * * * * * //

dimensions      [0 0 0 0 0 0 0];


internalField   nonuniform List<scalar> 
3352
(
-6.85809e-243
-4.88206e-235
-2.16022e-226
-2.00663e-212
-5.35556e-205
-9.10232e-195
-5.63904e-187
-3.71191e-171
-6.41522e-162
-8.25015e-154
-9.79674e-147
-1.86386e-140
-8.60044e-135
-1.64665e-129
-5.12558e-125
-1.25436e-121
-6.19654e-116
-2.09157e-112
-8.47693e-110
-2.65411e-108
-2.55077e-107
-1.06932e-106
-9.66271e-103
-5.28683e-101
-8.81794e-99
-2.74661e-97
-5.55403e-96
-4.4083e-95
-1.71684e-94
-3.86348e-94
-5.50043e-94
-5.58285e-94
-4.08558e-94
-2.11506e-94
-8.23127e-95
-3.00596e-95
-1.29345e-95
-5.75002e-96
-2.10159e-96
-1.95368e-239
-3.48929e-232
-5.54746e-224
-9.95796e-210
-1.14892e-202
-2.15773e-192
-7.94966e-185
-8.63514e-169
-5.99686e-160
-6.47839e-152
-6.56351e-145
-1.08878e-138
-4.45422e-133
-7.6562e-128
-2.16051e-123
-4.83503e-120
-2.22946e-114
-7.09148e-111
-2.74229e-108
-8.10228e-107
-7.36206e-106
-2.93286e-105
-1.81569e-101
-9.56948e-100
-1.56486e-97
-4.75211e-96
-9.57969e-95
-7.46847e-94
-2.84339e-93
-6.25488e-93
-8.72358e-93
-8.77987e-93
-6.41284e-93
-3.28169e-93
-1.20951e-93
-3.77946e-94
-1.32011e-94
-5.22347e-95
-1.83318e-95
-2.70537e-236
-2.35217e-229
-1.28331e-221
-4.79683e-207
-2.38584e-200
-5.3973e-190
-1.10618e-182
-1.9203e-166
-5.53681e-158
-5.02524e-150
-4.34454e-143
-6.28483e-137
-2.2798e-131
-3.51834e-126
-9.00088e-122
-1.84192e-118
-7.92931e-113
-2.37692e-109
-8.7717e-107
-2.44602e-105
-2.10157e-104
-7.95707e-104
-3.36813e-100
-1.71032e-98
-2.74298e-96
-8.12454e-95
-1.63436e-93
-1.25187e-92
-4.65967e-92
-1.00209e-91
-1.3694e-91
-1.36901e-91
-1.00121e-91
-5.10087e-92
-1.81982e-92
-5.07406e-93
-1.43398e-93
-4.82867e-94
-1.59259e-94
-2.0815e-233
-1.54795e-226
-2.73251e-219
-2.14122e-204
-4.78743e-198
-1.38087e-187
-1.51939e-180
-4.05521e-164
-5.04883e-156
-3.85021e-148
-2.84084e-141
-3.5844e-135
-1.153e-129
-1.59773e-124
-3.70558e-120
-6.93359e-117
-2.78726e-111
-7.87458e-108
-2.77375e-105
-7.30133e-104
-5.93242e-103
-2.13509e-102
-6.16679e-99
-3.01769e-97
-4.74813e-95
-1.37229e-93
-2.75744e-92
-2.07568e-91
-7.55432e-91
-1.58837e-90
-2.12719e-90
-2.11605e-90
-1.55378e-90
-7.91923e-91
-2.77557e-91
-7.17755e-92
-1.68321e-92
-4.62685e-93
-1.38652e-93
-4.89065e-230
-9.74516e-224
-5.79552e-217
-8.46904e-202
-9.2591e-196
-3.4627e-185
-2.05965e-178
-8.06155e-162
-4.54616e-154
-2.91323e-146
-1.83472e-139
-2.01947e-133
-5.76105e-128
-7.16873e-123
-1.5073e-118
-2.57861e-115
-9.68171e-110
-2.5781e-106
-8.66934e-104
-2.15454e-102
-1.65572e-101
-5.66511e-101
-1.11422e-97
-5.25514e-96
-8.1149e-94
-2.28951e-92
-4.59979e-91
-3.40366e-90
-1.21133e-89
-2.49033e-89
-3.26908e-89
-3.24175e-89
-2.39584e-89
-1.22568e-89
-4.26017e-90
-1.05249e-90
-2.13974e-91
-4.70495e-92
-1.22306e-92
-2.98811e-227
-5.01149e-221
-1.44795e-214
-2.81864e-199
-1.7226e-193
-8.14124e-183
-2.75575e-176
-1.49201e-159
-4.04219e-152
-2.17664e-144
-1.1702e-137
-1.12381e-131
-2.84341e-126
-3.17743e-121
-6.05664e-117
-9.47259e-114
-3.32258e-108
-8.33965e-105
-2.67765e-102
-6.28399e-101
-4.56797e-100
-1.4861e-99
-1.98627e-96
-9.03045e-95
-1.36901e-92
-3.77213e-91
-7.58478e-90
-5.51837e-89
-1.92068e-88
-3.86119e-88
-4.96922e-88
-4.92172e-88
-3.66947e-88
-1.88875e-88
-6.5485e-89
-1.57694e-89
-2.91121e-90
-5.1897e-91
-1.11296e-91
-1.23061e-224
-1.3443e-218
-4.75936e-212
-7.29793e-197
-3.07748e-191
-1.71317e-180
-3.63871e-174
-2.5322e-157
-3.54863e-150
-1.60567e-142
-7.36973e-136
-6.17607e-130
-1.38603e-124
-1.39103e-119
-2.40371e-115
-3.4366e-112
-1.12634e-106
-2.66496e-103
-8.17121e-101
-1.81117e-99
-1.24555e-98
-3.85351e-98
-3.49286e-95
-1.5309e-93
-2.27924e-91
-6.13591e-90
-1.23599e-88
-8.84395e-88
-3.01068e-87
-5.91886e-87
-7.46948e-87
-7.40449e-87
-5.5813e-87
-2.89534e-87
-1.0049e-87
-2.38849e-88
-4.15805e-89
-6.2683e-90
-1.07153e-90
-1.99666e-223
-2.3235e-217
-1.85208e-209
-1.27098e-194
-5.28771e-189
-3.05477e-178
-4.74188e-172
-3.85938e-155
-3.07591e-148
-1.16933e-140
-4.58235e-134
-3.35144e-128
-6.67165e-123
-6.01366e-118
-9.4203e-114
-1.23105e-110
-3.77087e-105
-8.41078e-102
-2.46314e-99
-5.15749e-98
-3.35593e-97
-9.87516e-97
-6.05786e-94
-2.55967e-92
-3.74391e-90
-9.85168e-89
-1.98993e-87
-1.40068e-86
-4.66418e-86
-8.96795e-86
-1.11e-85
-1.10377e-85
-8.42904e-86
-4.41249e-86
-1.53628e-86
-3.63109e-87
-6.11799e-88
-8.21803e-89
-1.12134e-89
-5.02877e-221
-1.06645e-214
-7.37914e-207
-1.03266e-192
-8.81973e-187
-4.27371e-176
-6.0979e-170
-5.12241e-153
-2.63217e-146
-8.40583e-139
-2.81256e-132
-1.79548e-126
-3.1706e-121
-2.5669e-116
-3.64501e-112
-4.35336e-109
-1.24654e-103
-2.62118e-100
-7.33282e-98
-1.4507e-96
-8.93273e-96
-2.50047e-95
-1.03605e-92
-4.21997e-91
-6.0659e-89
-1.56086e-87
-3.16439e-86
-2.19159e-85
-7.13948e-85
-1.34266e-84
-1.63035e-84
-1.63017e-84
-1.26375e-84
-6.68202e-85
-2.33664e-85
-5.51536e-86
-9.14024e-87
-1.14481e-87
-1.29604e-88
-1.4117e-218
-4.57651e-212
-2.82449e-204
-3.82038e-192
-1.47886e-184
-4.18025e-174
-7.73857e-168
-5.64312e-151
-2.22359e-144
-5.96404e-137
-1.70383e-130
-9.49475e-125
-1.48738e-119
-1.08159e-114
-1.39217e-110
-1.51941e-107
-4.06788e-102
-8.06441e-99
-2.15541e-96
-4.02979e-95
-2.34844e-94
-6.25456e-94
-1.74707e-91
-6.85805e-90
-9.69119e-88
-2.43959e-86
-4.96871e-85
-3.38675e-84
-1.07946e-83
-1.98577e-83
-2.36613e-83
-2.38521e-83
-1.88064e-83
-1.00504e-83
-3.53229e-84
-8.34623e-85
-1.37327e-85
-1.65578e-86
-1.64572e-87
-2.15645e-215
-3.63839e-209
-1.01955e-201
-4.79784e-190
-2.73408e-182
-2.6852e-172
-9.68931e-166
-4.7494e-149
-1.85421e-142
-4.17612e-135
-1.01858e-128
-4.95528e-123
-6.88635e-118
-4.49788e-113
-5.24755e-109
-5.23274e-106
-1.31017e-100
-2.44887e-97
-6.25405e-95
-1.10522e-93
-6.09672e-93
-1.54514e-92
-2.90447e-90
-1.09832e-88
-1.5263e-86
-3.76042e-85
-7.70118e-84
-5.16736e-83
-1.61162e-82
-2.90033e-82
-3.3922e-82
-3.4572e-82
-2.77734e-82
-1.50083e-82
-5.3032e-83
-1.25599e-83
-2.06255e-84
-2.44155e-85
-2.24422e-86
-2.36682e-212
-1.93901e-206
-3.45026e-199
-2.06561e-188
-6.42892e-180
-2.70041e-170
-1.19643e-163
-2.58008e-147
-1.52617e-140
-2.8855e-133
-6.00793e-127
-2.55182e-121
-3.146e-116
-1.84568e-111
-1.9516e-107
-1.7778e-104
-4.1637e-99
-7.33784e-96
-1.79084e-93
-2.99202e-92
-1.56253e-91
-3.76902e-91
-4.76044e-89
-1.73284e-87
-2.3689e-85
-5.71455e-84
-1.17784e-82
-7.78158e-82
-2.37512e-81
-4.18198e-81
-4.80266e-81
-4.96355e-81
-4.06945e-81
-2.22418e-81
-7.90243e-82
-1.87722e-82
-3.08553e-83
-3.62642e-84
-3.19898e-85
-5.86089e-210
-6.3169e-204
-1.09404e-196
-8.88486e-186
-2.00908e-177
-4.34883e-168
-1.45746e-161
-5.61298e-146
-1.23981e-138
-1.96709e-131
-3.49568e-125
-1.29639e-119
-1.41786e-114
-7.47145e-110
-7.15962e-106
-5.95694e-103
-1.30531e-97
-2.16905e-94
-5.05941e-92
-7.9932e-91
-3.95243e-90
-9.07552e-90
-7.69299e-88
-2.69245e-86
-3.62198e-84
-8.55864e-83
-1.77692e-81
-1.15618e-80
-3.45404e-80
-5.95092e-80
-6.7129e-80
-7.05817e-80
-5.91441e-80
-3.26975e-80
-1.16809e-80
-2.78411e-81
-4.58741e-82
-5.38599e-83
-4.66405e-84
-3.75722e-207
-2.87211e-201
-3.3244e-194
-4.56969e-183
-7.3744e-175
-6.903e-166
-1.75109e-159
3.41784e-150
-9.94047e-137
-1.32288e-129
-2.00597e-123
-6.4958e-118
-6.30248e-113
-2.98297e-108
-2.59027e-104
-1.96804e-101
-4.03564e-96
-6.32338e-93
-1.40984e-90
-2.10667e-89
-9.86466e-89
-2.15664e-88
-1.22611e-86
-4.11857e-85
-5.45358e-83
-1.26283e-81
-2.64327e-80
-1.69425e-79
-4.95479e-79
-8.35408e-79
-9.26049e-79
-9.93984e-79
-8.52372e-79
-4.76619e-79
-1.71179e-79
-4.09432e-80
-6.7685e-81
-7.96464e-82
-6.85698e-83
-8.88545e-205
-1.00307e-198
-1.11416e-191
-2.47356e-180
-2.78911e-172
-1.0785e-163
-2.07455e-157
3.34238e-148
-7.86603e-135
-8.77491e-128
-1.13502e-121
-3.20948e-116
-2.7624e-111
-1.1743e-106
-9.23928e-103
-6.40901e-100
-1.23014e-94
-1.81754e-91
-3.87379e-89
-5.47598e-88
-2.42861e-87
-5.05622e-87
-1.92834e-85
-6.20006e-84
-8.08323e-82
-1.83499e-80
-3.87551e-79
-2.44766e-78
-7.00831e-78
-1.15654e-77
-1.26042e-77
-1.38614e-77
-1.21771e-77
-6.88551e-78
-2.48574e-78
-5.96663e-79
-9.90081e-80
-1.16972e-80
-1.00799e-81
-6.43728e-202
-4.43383e-196
-6.25029e-189
-1.30579e-177
-1.01689e-169
-1.65616e-161
-2.42308e-155
3.22439e-146
-6.14346e-133
-5.74028e-126
-6.33085e-120
-1.56325e-114
-1.19355e-109
-4.55688e-105
-3.24821e-101
-2.05665e-98
-3.69577e-93
-5.14923e-90
-1.04921e-87
-1.4034e-86
-5.89598e-86
-1.16918e-85
-2.99529e-84
-9.18191e-83
-1.1789e-80
-2.62475e-79
-5.59817e-78
-3.48469e-77
-9.77047e-77
-1.57835e-76
-1.69206e-76
-1.91388e-76
-1.72383e-76
-9.85373e-77
-3.57491e-77
-8.61156e-78
-1.43473e-78
-1.70348e-79
-1.47454e-80
-1.58502e-199
-1.0425e-193
-6.72954e-186
-6.48321e-175
-3.46614e-167
-2.49629e-159
-2.78961e-153
3.06905e-144
-4.73584e-131
-3.70279e-124
-3.48006e-118
-7.50409e-113
-5.08226e-108
-1.74258e-103
-1.12521e-99
-6.5014e-97
-1.09403e-91
-1.43742e-88
-2.80032e-86
-3.54498e-85
-1.41102e-84
-2.66567e-84
-4.60156e-83
-1.33718e-81
-1.69108e-79
-3.69419e-78
-7.96338e-77
-4.88684e-76
-1.34199e-75
-2.12251e-75
-2.2397e-75
-2.616e-75
-2.41715e-75
-1.3962e-75
-5.08926e-76
-1.23028e-76
-2.05835e-77
-2.45741e-78
-2.14066e-79
-4.09431e-197
-2.51797e-191
-9.05958e-183
-2.96314e-172
-1.08284e-164
-3.69008e-157
-3.16491e-151
2.88248e-142
-3.60381e-129
-2.35491e-122
-1.88477e-116
-3.54907e-111
-2.13206e-106
-6.56479e-102
-3.83939e-98
-2.02385e-95
-3.18994e-90
-3.95237e-87
-7.36233e-85
-8.8227e-84
-3.32766e-83
-5.99032e-83
-7.00628e-82
-1.91422e-80
-2.38479e-78
-5.11358e-77
-1.11501e-75
-6.74751e-75
-1.81518e-74
-2.81132e-74
-2.92211e-74
-3.53912e-74
-3.35567e-74
-1.95771e-74
-7.168e-75
-1.7389e-75
-2.92192e-76
-3.50886e-77
-3.07907e-78
-6.71932e-195
-3.91284e-189
-1.20941e-179
-1.22207e-169
-3.03799e-162
-5.34867e-155
-3.53763e-149
2.67195e-140
-2.70762e-127
-1.47646e-120
-1.00541e-114
-1.65326e-109
-8.80908e-105
-2.43559e-100
-1.28999e-96
-6.20187e-94
-9.15812e-89
-1.07006e-85
-1.90599e-83
-2.16262e-82
-7.73054e-82
-1.32633e-81
-1.06039e-80
-2.69262e-79
-3.30458e-77
-6.95808e-76
-1.53593e-74
-9.16857e-74
-2.41673e-73
-3.66604e-73
-3.75654e-73
-4.738e-73
-4.61014e-73
-2.71505e-73
-9.98315e-74
-2.43032e-74
-4.10191e-75
-4.95597e-76
-4.38342e-77
-9.69518e-193
-8.46974e-187
-1.50434e-176
-4.43606e-167
-7.45485e-160
-7.60714e-153
-3.89487e-147
2.44537e-138
-2.0091e-125
-9.12494e-119
-5.28087e-113
-7.58291e-108
-3.58345e-103
-8.8959e-99
-4.26622e-95
-1.87012e-92
-2.58785e-87
-2.85144e-84
-4.85681e-82
-5.21885e-81
-1.76836e-80
-2.8923e-80
-1.6016e-79
-3.72027e-78
-4.49714e-76
-9.30223e-75
-2.08043e-73
-1.22542e-72
-3.16567e-72
-4.70442e-72
-4.75687e-72
-6.27518e-72
-6.26449e-72
-3.72218e-72
-1.37415e-72
-3.35699e-73
-5.69183e-74
-6.92025e-75
-6.17151e-76
-6.22154e-190
-3.74832e-184
-1.6834e-173
-1.36675e-164
-1.53952e-157
-1.06307e-150
-4.22258e-145
2.21068e-136
-1.4729e-123
-5.55871e-117
-2.73023e-111
-3.42329e-106
-1.43467e-101
-3.19753e-97
-1.38825e-93
-5.54685e-91
-7.19454e-86
-7.47557e-83
-1.21764e-80
-1.23936e-79
-3.9814e-79
-6.20924e-79
-2.42603e-78
-5.04721e-77
-6.0072e-75
-1.22118e-73
-2.7694e-72
-1.61015e-71
-4.0777e-71
-5.93785e-71
-5.93129e-71
-8.21975e-71
-8.4151e-71
-5.04158e-71
-1.8684e-71
-4.5805e-72
-7.80269e-73
-9.54808e-74
-8.58775e-75
-3.1055e-187
-1.23982e-181
-1.61233e-170
-3.3697e-162
-2.51506e-155
-1.46234e-148
-4.50652e-143
1.97549e-134
-1.06743e-121
-3.33772e-115
-1.38889e-109
-1.52054e-104
-5.65086e-100
-1.13058e-95
-4.443e-92
-1.61756e-89
-1.96704e-84
-1.92733e-81
-3.00211e-79
-2.89496e-78
-8.81878e-78
-1.31173e-77
-3.70611e-77
-6.72204e-76
-7.8717e-74
-1.57333e-72
-3.62097e-71
-2.07878e-70
-5.16234e-70
-7.36797e-70
-7.27995e-70
-1.06449e-69
-1.11683e-69
-6.74275e-70
-2.50805e-70
-6.17059e-71
-1.05619e-71
-1.30103e-72
-1.18041e-73
-7.84678e-185
-3.39121e-179
-1.1992e-167
-5.94914e-160
-2.89781e-153
-1.98371e-146
-4.73311e-141
1.74662e-132
-7.65249e-120
-1.9755e-113
-6.94935e-108
-6.64241e-103
-2.18878e-98
-3.93063e-94
-1.39791e-90
-4.6357e-88
-5.28648e-83
-4.88421e-80
-7.27544e-78
-6.64817e-77
-1.92077e-76
-2.72555e-76
-5.74132e-76
-8.78783e-75
-1.01125e-72
-1.9881e-71
-4.6474e-70
-2.6355e-69
-6.41983e-69
-8.98325e-69
-8.79255e-69
-1.36238e-68
-1.46356e-68
-8.89933e-69
-3.32198e-69
-8.2028e-70
-1.41099e-70
-1.74991e-71
-1.60184e-72
-1.07271e-182
-1.20556e-176
-5.34178e-165
-5.68369e-158
-1.772e-151
-2.65763e-144
-4.89075e-139
1.52977e-130
-5.43176e-118
-1.1527e-111
-3.41864e-106
-2.85257e-101
-8.33337e-97
-1.34306e-92
-4.32181e-89
-1.30495e-86
-1.3959e-81
-1.21601e-78
-1.73217e-76
-1.50019e-75
-4.11166e-75
-5.56735e-75
-9.05842e-75
-1.12785e-73
-1.27282e-71
-2.46242e-70
-5.85153e-69
-3.27919e-68
-7.83782e-68
-1.07559e-67
-1.04464e-67
-1.7224e-67
-1.89259e-67
-1.15843e-67
-4.33919e-68
-1.07545e-68
-1.85936e-69
-2.32208e-70
-2.14493e-71
-9.63934e-180
-5.40792e-174
-9.94735e-168
-3.1443e-161
-4.57087e-154
-3.518e-142
-4.97068e-137
1.32927e-128
-3.82139e-116
-6.6323e-110
-1.65274e-104
-1.20373e-99
-3.11714e-95
-4.50801e-91
-1.31225e-87
-3.60633e-85
-3.61946e-80
-2.97265e-77
-4.04931e-75
-3.32459e-74
-8.6456e-74
-1.11737e-73
-1.45848e-73
-1.42172e-72
-1.56854e-70
-2.98745e-69
-7.223e-68
-4.00173e-67
-9.38853e-67
-1.26396e-66
-1.22053e-66
-2.1499e-66
-2.41349e-66
-1.48631e-66
-5.58633e-67
-1.38986e-67
-2.41566e-68
-3.03843e-69
-2.83263e-70
-1.1241e-177
-1.28161e-171
-1.21418e-165
-3.45239e-159
-8.40536e-152
-4.59564e-140
-4.96855e-135
1.14803e-126
-2.66823e-114
-3.76425e-108
-7.8486e-103
-4.98863e-98
-1.14494e-93
-1.48558e-89
-3.91109e-86
-9.77879e-84
-9.2107e-79
-7.13126e-76
-9.28908e-74
-7.23144e-73
-1.7847e-72
-2.20221e-72
-2.39395e-72
-1.76207e-71
-1.89118e-69
-3.54767e-68
-8.73483e-67
-4.78645e-66
-1.10269e-65
-1.45689e-65
-1.40189e-65
-2.64789e-65
-3.03308e-65
-1.87849e-65
-7.08437e-66
-1.7696e-66
-3.0925e-67
-3.91836e-68
-3.68744e-69
-1.06426e-174
-4.80562e-169
-2.00363e-163
-3.24386e-157
-1.52251e-149
-5.91443e-138
-4.88477e-133
9.87549e-125
-1.85193e-112
-2.10846e-106
-3.65934e-101
-2.02937e-96
-4.12717e-92
-4.80375e-88
-1.14353e-84
-2.60009e-82
-2.299e-77
-1.67779e-74
-2.08977e-72
-1.54293e-71
-3.61471e-71
-4.25977e-71
-3.99051e-71
-2.15109e-70
-2.22923e-68
-4.12067e-67
-1.03409e-65
-5.60736e-65
-1.26901e-64
-1.64606e-64
-1.58246e-64
-3.21592e-64
-3.75385e-64
-2.33722e-64
-8.84466e-65
-2.21849e-65
-3.89901e-66
-4.97757e-67
-4.72926e-68
-1.64826e-179
-1.6326e-173
-5.95067e-167
-7.438e-161
-2.70696e-147
-7.4961e-136
-4.7227e-131
8.47854e-123
-1.27997e-110
-1.16628e-104
-1.67423e-99
-8.09868e-95
-1.45917e-90
-1.52325e-86
-3.27794e-83
-6.7748e-81
-5.62478e-76
-3.86884e-73
-4.60761e-71
-3.22728e-70
-7.17884e-70
-8.08199e-70
-6.71664e-70
-2.59403e-69
-2.56695e-67
-4.67766e-66
-1.19756e-64
-6.42918e-64
-1.42995e-63
-1.82175e-63
-1.75497e-63
-3.84891e-63
-4.57219e-63
-2.86094e-63
-1.08647e-63
-2.73705e-64
-4.83882e-65
-6.22536e-66
-5.97275e-67
-1.54277e-176
-6.37676e-171
-1.38254e-164
-1.64649e-158
-4.72044e-145
-9.36172e-134
-4.49162e-129
7.28172e-121
-8.82536e-109
-6.37549e-103
-7.51266e-98
-3.16862e-93
-5.05672e-89
-4.73349e-85
-9.20588e-82
-1.72866e-79
-1.34802e-74
-8.73775e-72
-9.94976e-70
-6.61323e-69
-1.39713e-68
-1.50312e-68
-1.1342e-68
-3.1034e-68
-2.88506e-66
-5.18517e-65
-1.35553e-63
-7.20873e-63
-1.57649e-62
-1.9735e-62
-1.91157e-62
-4.53612e-62
-5.47676e-62
-3.44325e-62
-1.31237e-62
-3.32135e-63
-5.90797e-64
-7.66166e-65
-7.42419e-66
-1.76812e-174
-8.55241e-169
-2.74771e-162
-3.54914e-156
-8.06977e-143
-1.15338e-131
-4.20407e-127
6.26773e-119
-6.08014e-107
-3.44784e-101
-3.30453e-96
-1.21464e-91
-1.71653e-87
-1.44052e-83
-2.53128e-80
-4.31633e-78
-3.16233e-73
-1.93149e-70
-2.10284e-68
-1.32677e-67
-2.66285e-67
-2.73865e-67
-1.90968e-67
-3.70512e-67
-3.1622e-65
-5.60763e-64
-1.49835e-62
-7.89774e-62
-1.69911e-61
-2.091e-61
-2.04442e-61
-5.26042e-61
-6.4473e-61
-4.07206e-61
-1.55796e-61
-3.96206e-62
-7.09298e-63
-9.27419e-64
-9.0783e-65
-3.94219e-172
-1.47797e-166
-5.10285e-160
-7.44195e-154
-1.35166e-140
-1.4043e-129
-3.87637e-125
5.41493e-117
-4.19078e-105
-1.84664e-99
-1.42405e-94
-4.55874e-90
-5.70366e-86
-4.29019e-82
-6.80943e-79
-1.05386e-76
-7.25625e-72
-4.17588e-69
-4.34656e-67
-2.60428e-66
-4.967e-66
-4.88508e-66
-3.18884e-66
-4.44672e-66
-3.37689e-64
-5.91106e-63
-1.61587e-61
-8.44695e-61
-1.78872e-60
-2.16515e-60
-2.14629e-60
-5.99812e-60
-7.45407e-60
-4.72919e-60
-1.81669e-60
-4.64384e-61
-8.36935e-62
-1.1036e-62
-1.09152e-63
-2.42116e-170
-9.57048e-165
-8.57166e-158
-1.51649e-151
-2.2169e-138
-1.6941e-127
-3.52645e-123
4.6988e-115
-2.89237e-103
-9.80694e-98
-6.00912e-93
-1.67398e-88
-1.85378e-84
-1.24947e-80
-1.79079e-77
-2.51404e-75
-1.62734e-70
-8.82356e-68
-8.78033e-66
-4.99792e-65
-9.06127e-65
-8.52534e-65
-5.25795e-65
-5.4071e-65
-3.51013e-63
-6.06712e-62
-1.69852e-60
-8.81145e-60
-1.83767e-59
-2.18911e-59
-2.21124e-59
-6.71951e-59
-8.45836e-59
-5.39056e-59
-2.07968e-59
-5.3452e-60
-9.70104e-61
-1.29041e-61
-1.28982e-62
-1.85175e-168
-7.99569e-163
-1.32358e-155
-3.00101e-149
-3.55826e-136
-2.03203e-125
-3.17256e-121
4.09464e-113
-1.99947e-101
-5.1701e-96
-2.48173e-91
-6.00949e-87
-5.88904e-83
-3.55584e-79
-4.6005e-76
-5.85505e-74
-3.56422e-69
-1.82076e-66
-1.7321e-64
-9.37126e-64
-1.61561e-63
-1.45468e-63
-8.53147e-64
-6.70681e-64
-3.54804e-62
-6.05716e-61
-1.73848e-59
-8.9563e-59
-1.84078e-58
-2.15933e-58
-2.23518e-58
-7.39026e-58
-9.41418e-58
-6.02723e-58
-2.33604e-58
-6.03909e-59
-1.1041e-59
-1.48192e-60
-1.4973e-61
-2.88286e-166
-1.06764e-160
-1.85285e-153
-5.76504e-147
-5.58578e-134
-2.43414e-123
-2.83175e-119
3.57958e-111
-1.38399e-99
-2.70843e-94
-1.00271e-89
-2.10754e-85
-1.82719e-81
-9.88061e-78
-1.15358e-74
-1.33014e-72
-7.61754e-68
-3.6664e-65
-3.33426e-63
-1.71556e-62
-2.81344e-62
-2.42522e-62
-1.35867e-62
-8.51703e-63
-3.48418e-61
-5.87554e-60
-1.73081e-58
-8.86172e-58
-1.79615e-57
-2.07613e-57
-2.21634e-57
-7.97374e-57
-1.02713e-56
-6.6071e-57
-2.57353e-57
-6.6943e-58
-1.23331e-58
-1.6708e-59
-1.70683e-60
-1.39861e-173
-1.18908e-167
-2.30825e-151
-1.07524e-144
-8.57088e-132
-2.92669e-121
-2.51846e-117
3.13373e-109
-9.58253e-98
-1.41091e-92
-3.96216e-88
-7.21478e-84
-5.53272e-80
-2.67859e-76
-2.82108e-73
-2.94512e-71
-1.58735e-66
-7.19897e-64
-6.25829e-62
-3.06419e-61
-4.78196e-61
-3.94801e-61
-2.11937e-61
-1.10645e-61
-3.32114e-60
-5.53132e-59
-1.67442e-57
-8.52684e-57
-1.70562e-56
-1.94401e-56
-2.15546e-56
-8.43422e-56
-1.09793e-55
-7.09759e-56
-2.77942e-56
-7.27767e-57
-1.3516e-57
-1.84871e-58
-1.90995e-59
-6.63171e-171
-6.56533e-165
-2.36666e-149
-1.94876e-142
-1.28469e-129
-3.54973e-119
-2.2433e-115
2.74074e-107
-6.6265e-96
-7.31088e-91
-1.53093e-86
-2.40899e-82
-1.63372e-78
-7.07887e-75
-6.72295e-72
-6.35007e-70
-3.22239e-65
-1.37725e-62
-1.14448e-60
-5.33601e-60
-7.92759e-60
-6.27129e-60
-3.23301e-60
-1.46286e-60
-3.07082e-59
-5.04805e-58
-1.57239e-56
-7.97112e-56
-1.57481e-55
-1.77124e-55
-2.05575e-55
-8.74033e-55
-1.14927e-54
-7.46849e-55
-2.94164e-55
-7.7567e-56
-1.45275e-56
-2.00687e-57
-2.09733e-58
-4.66808e-168
-3.46317e-162
-1.83173e-147
-3.43899e-140
-1.8799e-127
-4.36024e-117
-2.01227e-113
2.38782e-105
-4.56696e-94
-3.76706e-89
-5.78441e-85
-7.83912e-81
-4.70074e-77
-1.82228e-73
-1.56002e-70
-1.33217e-68
-6.36754e-64
-2.56528e-61
-2.03761e-59
-9.05216e-59
-1.28084e-58
-9.71275e-59
-4.81607e-59
-1.95247e-59
-2.75333e-58
-4.46122e-57
-1.43188e-55
-7.23274e-55
-1.41252e-54
-1.56904e-54
-1.92252e-54
-8.86814e-54
-1.17746e-53
-7.69464e-54
-3.04971e-54
-8.10197e-55
-1.53085e-55
-2.13654e-56
-2.25926e-57
-1.9967e-165
-1.66281e-159
-1.11725e-145
-5.92906e-138
-2.68366e-125
-5.4326e-115
-1.82619e-111
2.06556e-103
-3.12868e-92
-1.92819e-87
-2.13787e-83
-2.48415e-79
-1.31696e-75
-4.56576e-72
-3.5219e-69
-2.71694e-67
-1.22376e-62
-4.64807e-60
-3.52875e-58
-1.49422e-57
-2.0145e-57
-1.46497e-57
-6.9947e-58
-2.60648e-58
-2.39434e-57
-3.81375e-56
-1.26318e-54
-6.36391e-54
-1.22968e-53
-1.3502e-53
-1.76249e-53
-8.80263e-53
-1.17994e-52
-7.75713e-53
-3.09522e-53
-8.28823e-54
-1.58053e-54
-2.22934e-55
-2.3859e-56
-9.54878e-163
-7.30443e-157
-1.1612e-147
-1.00365e-135
-3.73391e-123
-6.85478e-113
-1.68078e-109
1.76761e-101
-2.12365e-90
-9.78497e-86
-7.734e-82
-7.66003e-78
-3.58947e-74
-1.11247e-70
-7.72918e-68
-5.38228e-66
-2.28545e-61
-8.18355e-59
-5.93754e-57
-2.39545e-56
-3.07849e-56
-2.14781e-56
-9.88284e-57
-3.44798e-57
-2.02134e-56
-3.14997e-55
-1.07826e-53
-5.42347e-53
-1.03784e-52
-1.12746e-52
-1.58274e-52
-8.53684e-52
-1.15513e-51
-7.64265e-52
-3.07153e-52
-8.29376e-53
-1.59682e-53
-2.27696e-54
-2.46694e-55
-2.96194e-160
-3.25566e-154
-2.58341e-145
-1.67849e-133
-5.05587e-121
-8.71714e-111
-1.56738e-107
1.49056e-99
-1.42295e-88
-4.9083e-84
-2.74114e-80
-2.2965e-76
-9.50732e-73
-2.63305e-69
-1.64715e-66
-1.03456e-64
-4.14303e-60
-1.39758e-57
-9.68907e-56
-3.71871e-55
-4.55762e-55
-3.05187e-55
-1.35416e-55
-4.47972e-56
-1.65934e-55
-2.50948e-54
-8.88964e-53
-4.4684e-52
-8.47615e-52
-9.11886e-52
-1.38969e-51
-8.07023e-51
-1.10229e-50
-7.3427e-51
-2.97357e-51
-8.09988e-52
-1.57506e-52
-2.27118e-53
-2.4916e-54
-1.91615e-157
-1.83912e-151
-5.45228e-143
-2.79084e-131
-6.64688e-119
-1.10951e-108
-1.47451e-105
1.23373e-97
-9.3748e-87
-2.42398e-82
-9.52771e-79
-6.68673e-75
-2.44277e-71
-6.04308e-68
-3.40286e-65
-1.92637e-63
-7.27764e-59
-2.30857e-56
-1.52894e-54
-5.56997e-54
-6.51345e-54
-4.18793e-54
-1.79291e-54
-5.67132e-55
-1.32746e-54
-1.92263e-53
-7.05612e-52
-3.5477e-51
-6.67721e-51
-7.12079e-51
-1.18916e-50
-7.41203e-50
-1.02206e-49
-6.85778e-50
-2.79976e-50
-7.69675e-51
-1.51216e-51
-2.20562e-52
-2.45062e-53
-6.06867e-155
-1.34453e-148
-1.0881e-140
-4.63492e-129
-8.45773e-117
-1.40338e-106
-1.39067e-103
9.99158e-96
-6.05226e-85
-1.17339e-80
-3.24964e-77
-1.88767e-73
-6.0709e-70
-1.34104e-66
-6.7963e-64
-3.46555e-62
-1.23532e-57
-3.67453e-55
-2.32437e-53
-8.03063e-53
-8.96569e-53
-5.53821e-53
-2.2889e-53
-6.96126e-54
-1.03855e-53
-1.41045e-52
-5.36903e-51
-2.70293e-50
-5.05282e-50
-5.34709e-50
-9.88302e-50
-6.59604e-49
-9.18631e-49
-6.21253e-49
-2.55846e-49
-7.10199e-50
-1.41036e-50
-2.08158e-51
-2.34297e-52
-6.86419e-152
-9.37705e-146
-2.04515e-138
-7.70194e-127
-1.03828e-114
-1.75475e-104
-1.30745e-101
7.90843e-94
-3.82291e-83
-5.54944e-79
-1.08743e-75
-5.15234e-72
-1.45385e-68
-2.86637e-65
-1.30731e-62
-6.00112e-61
-2.01839e-56
-5.61951e-54
-3.39499e-52
-1.37239e-149
-4.60962e-143
-3.61019e-136
-1.28077e-124
-1.22837e-112
-2.16441e-102
-1.22127e-99
6.13869e-92
-2.36535e-81
-2.56392e-77
-3.5686e-74
-1.35473e-70
-3.34542e-67
-5.8831e-64
-2.41462e-61
-9.97153e-60
-3.16418e-55
-1.15019e-72
-3.42246e-69
-6.14922e-243
-4.45546e-235
-1.98048e-226
-1.94694e-212
-5.2224e-205
-9.05566e-195
-5.62113e-187
-3.44214e-171
-6.41501e-162
-8.25692e-154
-9.79541e-147
-1.86439e-140
-8.60004e-135
-1.64658e-129
-5.1242e-125
-1.24897e-121
-6.19083e-116
-2.09133e-112
-8.45628e-110
-2.64663e-108
-2.54255e-107
-1.06541e-106
-9.63221e-103
-5.4579e-101
-8.86058e-99
-2.74821e-97
-5.53175e-96
-4.38422e-95
-1.70693e-94
-3.84131e-94
-5.46826e-94
-5.53891e-94
-4.02783e-94
-2.0433e-94
-7.41629e-95
-2.25132e-95
-7.66517e-96
-3.04844e-96
-1.09128e-96
-1.7411e-239
-3.20043e-232
-5.09595e-224
-9.68375e-210
-1.12179e-202
-2.1432e-192
-7.92437e-185
-8.01227e-169
-5.99669e-160
-6.48366e-152
-6.56262e-145
-1.08908e-138
-4.45401e-133
-7.65586e-128
-2.15992e-123
-4.81424e-120
-2.22742e-114
-7.09065e-111
-2.73555e-108
-8.07921e-107
-7.33812e-106
-2.92205e-105
-1.80994e-101
-9.88108e-100
-1.57227e-97
-4.75456e-96
-9.53882e-95
-7.42569e-94
-2.8263e-93
-6.21781e-93
-8.67217e-93
-8.71428e-93
-6.33681e-93
-3.20194e-93
-1.12978e-93
-3.08584e-94
-8.49687e-95
-2.85195e-95
-9.56477e-96
-2.38584e-236
-2.17564e-229
-1.18326e-221
-4.67036e-207
-2.33174e-200
-5.35307e-190
-1.10265e-182
-1.78285e-166
-5.53667e-158
-5.02929e-150
-4.34395e-143
-6.28656e-137
-2.27969e-131
-3.51818e-126
-8.99844e-122
-1.83399e-118
-7.92207e-113
-2.37665e-109
-8.74993e-107
-2.43899e-105
-2.09467e-104
-7.92742e-104
-3.35743e-100
-1.76636e-98
-2.7557e-96
-8.12821e-95
-1.62696e-93
-1.24436e-92
-4.63052e-92
-9.95951e-92
-1.3612e-91
-1.35903e-91
-9.90674e-92
-5.007e-92
-1.73978e-92
-4.43612e-93
-1.01762e-93
-2.76957e-94
-8.40367e-95
-1.93607e-233
-1.44709e-226
-2.53892e-219
-2.08596e-204
-4.68197e-198
-1.36812e-187
-1.51453e-180
-3.76715e-164
-5.04871e-156
-3.85328e-148
-2.84045e-141
-3.58538e-135
-1.15295e-129
-1.59766e-124
-3.70457e-120
-6.90367e-117
-2.78473e-111
-7.87368e-108
-2.7668e-105
-7.28011e-104
-5.91275e-103
-2.12706e-102
-6.14714e-99
-3.11719e-97
-4.76969e-95
-1.37283e-93
-2.74421e-92
-2.06265e-91
-7.50517e-91
-1.57831e-90
-2.11419e-90
-2.1007e-90
-1.53859e-90
-7.80142e-91
-2.69163e-91
-6.58517e-92
-1.31689e-92
-2.85753e-93
-7.4835e-94
-4.58419e-230
-9.18662e-224
-5.46639e-217
-8.25275e-202
-9.05876e-196
-3.42888e-185
-2.05306e-178
-7.49315e-162
-4.54607e-154
-2.91553e-146
-1.83447e-139
-2.02001e-133
-5.76078e-128
-7.16843e-123
-1.50688e-118
-2.56746e-115
-9.67295e-110
-2.57781e-106
-8.6474e-104
-2.14821e-102
-1.65017e-101
-5.64358e-101
-1.11066e-97
-5.4295e-96
-8.15097e-94
-2.29027e-92
-4.57644e-91
-3.38131e-90
-1.20314e-89
-2.47402e-89
-3.24861e-89
-3.21807e-89
-2.37334e-89
-1.20998e-89
-4.16666e-90
-9.96172e-91
-1.8178e-91
-3.19858e-92
-6.87646e-93
-2.97082e-227
-4.74186e-221
-1.39384e-214
-2.74718e-199
-1.68562e-193
-8.06125e-183
-2.74692e-176
-1.38753e-159
-4.04213e-152
-2.17834e-144
-1.17004e-137
-1.1241e-131
-2.84327e-126
-3.1773e-121
-6.05497e-117
-9.43155e-114
-3.31959e-108
-8.33872e-105
-2.6708e-102
-6.26533e-101
-4.55252e-100
-1.4804e-99
-1.97989e-96
-9.33192e-95
-1.37497e-92
-3.77318e-91
-7.5441e-90
-5.48052e-89
-1.90719e-88
-3.83504e-88
-4.9373e-88
-4.88527e-88
-3.63566e-88
-1.86681e-88
-6.43671e-89
-1.52109e-89
-2.62619e-90
-3.91601e-91
-6.68535e-92
-1.21604e-224
-1.28507e-218
-4.64127e-212
-7.11469e-197
-3.01135e-191
-1.69703e-180
-3.62703e-174
-2.35593e-157
-3.54859e-150
-1.60691e-142
-7.36873e-136
-6.17767e-130
-1.38597e-124
-1.39097e-119
-2.40304e-115
-3.42168e-112
-1.12533e-106
-2.66466e-103
-8.15008e-101
-1.80574e-99
-1.2413e-98
-3.83856e-98
-3.4816e-95
-1.58232e-93
-2.28895e-91
-6.13731e-90
-1.22899e-88
-8.78066e-88
-2.98873e-87
-5.87743e-87
-7.42021e-87
-7.34869e-87
-5.53019e-87
-2.86369e-87
-9.90591e-88
-2.32957e-88
-3.90038e-89
-5.19401e-90
-7.06179e-91
-1.91228e-223
-2.50193e-217
-1.80943e-209
-1.23964e-194
-5.17283e-189
-3.02897e-178
-4.72665e-172
-3.59178e-155
-3.07589e-148
-1.17023e-140
-4.58173e-134
-3.35229e-128
-6.67133e-123
-6.01342e-118
-9.41767e-114
-1.2257e-110
-3.7675e-105
-8.40987e-102
-2.4567e-99
-5.14183e-98
-3.34434e-97
-9.83647e-97
-6.03825e-94
-2.64619e-92
-3.75951e-90
-9.85345e-89
-1.97806e-87
-1.39022e-86
-4.62891e-86
-8.90309e-86
-1.10248e-85
-1.09529e-85
-8.35182e-86
-4.36602e-86
-1.51695e-86
-3.56404e-87
-5.87546e-88
-7.30696e-89
-8.23252e-90
-4.78143e-221
-1.26011e-214
-7.18679e-207
-1.00795e-192
-8.62263e-187
-4.24573e-176
-6.07828e-170
-4.76743e-153
-2.63217e-146
-8.41218e-139
-2.81218e-132
-1.79593e-126
-3.17046e-121
-2.5668e-116
-3.64398e-112
-4.33439e-109
-1.24544e-103
-2.6209e-100
-7.31342e-98
-1.44625e-96
-8.90157e-96
-2.49058e-95
-1.03268e-92
-4.36349e-91
-6.09065e-89
-1.56107e-87
-3.14454e-86
-2.17456e-85
-7.08353e-85
-1.33263e-84
-1.619e-84
-1.61741e-84
-1.25214e-84
-6.61333e-85
-2.30954e-85
-5.43308e-86
-8.89719e-87
-1.06608e-87
-1.05367e-88
-1.46091e-218
-4.64956e-212
-2.7377e-204
-3.40021e-192
-1.44356e-184
-4.16884e-174
-7.71364e-168
-5.2497e-151
-2.2236e-144
-5.9685e-137
-1.70361e-130
-9.49709e-125
-1.48731e-119
-1.08154e-114
-1.39178e-110
-1.51278e-107
-4.06429e-102
-8.06356e-99
-2.14964e-96
-4.01726e-95
-2.34016e-94
-6.22955e-94
-1.74136e-91
-7.09273e-90
-9.72991e-88
-2.43982e-86
-4.93594e-85
-3.35937e-84
-1.0707e-83
-1.97046e-83
-2.34922e-83
-2.36619e-83
-1.86331e-83
-9.94894e-84
-3.49354e-84
-8.23881e-85
-1.34689e-85
-1.58506e-86
-1.44785e-87
-2.2521e-215
-3.70404e-209
-9.82317e-202
-4.30174e-190
-2.65973e-182
-2.69566e-172
-9.65805e-166
-4.41183e-149
-1.85422e-142
-4.1792e-135
-1.01844e-128
-4.95648e-123
-6.88603e-118
-4.49771e-113
-5.24606e-109
-5.20985e-106
-1.30902e-100
-2.44861e-97
-6.23711e-95
-1.10174e-93
-6.075e-93
-1.5389e-92
-2.89494e-90
-1.13614e-88
-1.53227e-86
-3.76064e-85
-7.64785e-84
-5.12392e-83
-1.59808e-82
-2.87726e-82
-3.36732e-82
-3.42918e-82
-2.75174e-82
-1.48592e-82
-5.24734e-83
-1.24137e-83
-2.03146e-84
-2.37389e-85
-2.07984e-86
-2.44545e-212
-1.97751e-206
-3.29894e-199
-2.02689e-188
-6.22239e-180
-2.69698e-170
-1.19257e-163
-2.38679e-147
-1.52618e-140
-2.8876e-133
-6.00712e-127
-2.55242e-121
-3.14585e-116
-1.84561e-111
-1.95104e-107
-1.77001e-104
-4.16005e-99
-7.33708e-96
-1.78593e-93
-2.98248e-92
-1.5569e-91
-3.75365e-91
-4.74473e-89
-1.79287e-87
-2.37797e-85
-5.7147e-84
-1.16928e-82
-7.71363e-82
-2.35449e-81
-4.14769e-81
-4.76652e-81
-4.92274e-81
-4.032e-81
-2.20245e-81
-7.82195e-82
-1.85687e-82
-3.04628e-83
-3.55607e-84
-3.05717e-85
-6.23326e-210
-6.40224e-204
-1.03466e-196
-8.77667e-186
-1.93654e-177
-4.34359e-168
-1.45275e-161
-5.11002e-146
-1.23983e-138
-1.9685e-131
-3.49522e-125
-1.2967e-119
-1.41779e-114
-7.47117e-110
-7.15756e-106
-5.93078e-103
-1.30417e-97
-2.16882e-94
-5.04537e-92
-7.96741e-91
-3.93803e-90
-9.03812e-90
-7.66746e-88
-2.78629e-86
-3.63556e-84
-8.55863e-83
-1.7634e-81
-1.1457e-80
-3.42303e-80
-5.90063e-80
-6.66111e-80
-6.99944e-80
-5.86027e-80
-3.2384e-80
-1.15656e-80
-2.75551e-81
-4.53548e-82
-5.30605e-83
-4.53366e-84
-3.82368e-207
-2.83167e-201
-3.0764e-194
-4.53381e-183
-7.09453e-175
-6.89516e-166
-1.74543e-159
3.41637e-150
-9.94066e-137
-1.32381e-129
-2.0057e-123
-6.4973e-118
-6.30219e-113