/*--------------------------------*- C++ -*----------------------------------*\
| =========                 |                                                 |
| \\      /  F ield         | OpenFOAM: The Open Source CFD Toolbox           |
|  \\    /   O peration     | Version:  v2012                                 |
|   \\  /    A nd           | Website:  www.openfoam.com                      |
|    \\/     M anipulation  |                                                 |
\*---------------------------------------------------------------------------*/
FoamFile
{
    version     2.0;
    format      ascii;
    class       surfaceScalarField;
    location    "0.3";
    object      phi;
}
// * * * * * * * * * * * * * * * * * * * * * * * * * * * * * * * * * * * * * //

dimensions      [0 3 -1 0 0 0 0];
oriented        oriented;


internalField   nonuniform List<scalar> 
8162
(
-1.33322e-08
-1.12194e-07
-2.68514e-15
-1.48593e-08
-1.14355e-07
-2.44693e-15
-1.63842e-08
-1.16153e-07
-2.32069e-15
-1.78996e-08
-1.1747e-07
-2.24525e-15
-1.93986e-08
-1.18246e-07
-2.17412e-15
-2.08743e-08
-1.18406e-07
-2.14532e-15
-2.23201e-08
-1.17906e-07
-2.0444e-15
-2.37294e-08
-1.16695e-07
-1.95055e-15
-2.50954e-08
-1.14715e-07
-1.85998e-15
-2.64108e-08
-1.11939e-07
-1.80007e-15
-2.76678e-08
-1.08295e-07
-1.68556e-15
-2.88577e-08
-1.03743e-07
-1.7891e-15
-2.99718e-08
-9.82283e-08
-1.628e-15
-3.1e-08
-9.16946e-08
-1.52743e-15
-3.19316e-08
-8.40907e-08
-1.42969e-15
-3.27554e-08
-7.53658e-08
-1.33473e-15
-3.34589e-08
-6.54766e-08
-1.24471e-15
-3.40292e-08
-5.43809e-08
-1.15589e-15
-3.44533e-08
-4.20505e-08
-1.07842e-15
-2.84661e-08
-9.96163e-16
-1.1775e-08
-1.05842e-07
-3.38844e-15
-1.32747e-08
-1.08295e-07
-3.09937e-15
-1.47817e-08
-1.10687e-07
-2.83381e-15
-1.62896e-08
-1.12847e-07
-2.6128e-15
-1.77918e-08
-1.1465e-07
-2.46207e-15
-1.92818e-08
-1.1598e-07
-2.34504e-15
-2.07533e-08
-1.16775e-07
-2.25073e-15
-2.22004e-08
-1.16959e-07
-2.21307e-15
-2.36169e-08
-1.16489e-07
-2.10254e-15
-2.49966e-08
-1.15315e-07
-2.00069e-15
-2.63331e-08
-1.13379e-07
-1.90427e-15
-2.76194e-08
-1.10653e-07
-1.83778e-15
-2.88476e-08
-1.07067e-07
-1.70913e-15
-3.00093e-08
-1.02581e-07
-1.84227e-15
-3.10956e-08
-9.7142e-08
-1.6715e-15
-3.20964e-08
-9.06938e-08
-1.56557e-15
-3.3001e-08
-8.31862e-08
-1.46206e-15
-3.37978e-08
-7.45691e-08
-1.36253e-15
-3.44742e-08
-6.48002e-08
-1.26807e-15
-3.50171e-08
-5.38378e-08
-1.17584e-15
-3.54132e-08
-4.16545e-08
-1.09237e-15
-2.82312e-08
-1.00556e-15
2.473e-11
-7.47621e-09
5.70656e-15
2.62485e-10
-2.23787e-08
2.38918e-16
1.31174e-09
-4.1076e-08
7.36977e-15
1.8936e-09
-7.25724e-08
-2.1843e-14
1.35828e-09
-8.82829e-08
-2.35473e-15
4.26458e-10
-9.31018e-08
9.26158e-15
1.12806e-09
-8.91145e-08
1.71278e-14
4.31353e-10
-7.42704e-08
-2.29754e-15
-6.60276e-10
-8.45263e-08
-9.28795e-15
-9.23468e-08
-9.84686e-15
-5.92709e-09
-9.81488e-08
-6.81898e-15
-7.3416e-09
-9.82216e-08
-5.78822e-15
-8.77727e-09
-9.88479e-08
-4.88303e-15
-1.02306e-08
-1.00164e-07
-3.60003e-15
-1.16999e-08
-1.0207e-07
-4.18115e-15
-1.31816e-08
-1.0436e-07
-3.18005e-15
-1.46716e-08
-1.06805e-07
-3.18318e-15
-1.61644e-08
-1.09194e-07
-2.97854e-15
-1.76541e-08
-1.11357e-07
-2.68991e-15
-1.91351e-08
-1.1317e-07
-2.51182e-15
-2.06014e-08
-1.14514e-07
-2.38299e-15
-2.20476e-08
-1.15328e-07
-2.28177e-15
-2.34682e-08
-1.15539e-07
-2.2488e-15
-2.48577e-08
-1.151e-07
-2.13649e-15
-2.62101e-08
-1.13963e-07
-2.03503e-15
-2.75194e-08
-1.1207e-07
-1.93705e-15
-2.87787e-08
-1.09394e-07
-1.86716e-15
-2.99804e-08
-1.05865e-07
-1.72599e-15
-3.11161e-08
-1.01445e-07
-1.88967e-15
-3.21768e-08
-9.60813e-08
-1.70857e-15
-3.31524e-08
-8.97182e-08
-1.59757e-15
-3.40319e-08
-8.23066e-08
-1.48912e-15
-3.48037e-08
-7.37975e-08
-1.38549e-15
-3.54549e-08
-6.4149e-08
-1.2874e-15
-3.59723e-08
-5.33203e-08
-1.19208e-15
-3.63422e-08
-4.12846e-08
-1.10437e-15
-2.80233e-08
-1.01416e-15
2.18054e-11
-7.49799e-09
5.50031e-15
2.51081e-10
-2.2608e-08
-4.04017e-16
1.14289e-09
-4.19678e-08
8.35038e-15
1.62799e-09
-7.30575e-08
-1.11977e-14
6.43002e-10
-8.72979e-08
1.33896e-15
-4.90263e-10
-9.19686e-08
1.22243e-14
1.24986e-10
-8.97297e-08
1.78097e-14
-2.03857e-10
-7.39415e-08
-6.66942e-15
-1.51309e-09
-8.32171e-08
-9.89616e-15
-2.88805e-09
-9.09718e-08
-1.0648e-14
-4.32175e-09
-9.51159e-08
-9.66762e-15
-5.74919e-09
-9.65889e-08
-8.56768e-15
-7.18186e-09
-9.67161e-08
-7.36256e-15
-8.62129e-09
-9.67822e-08
-6.35055e-15
-1.00715e-08
-9.73977e-08
-5.31993e-15
-1.15322e-08
-9.87038e-08
-3.69856e-15
-1.30034e-08
-1.00599e-07
-4.64342e-15
-1.44824e-08
-1.02881e-07
-3.20876e-15
-1.59655e-08
-1.05322e-07
-3.32198e-15
-1.74476e-08
-1.07712e-07
-3.07692e-15
-1.89234e-08
-1.09881e-07
-2.73892e-15
-2.03875e-08
-1.11705e-07
-2.55953e-15
-2.18348e-08
-1.13066e-07
-2.42928e-15
-2.32603e-08
-1.13903e-07
-2.32676e-15
-2.4659e-08
-1.1414e-07
-2.29491e-15
-2.60257e-08
-1.13733e-07
-2.17919e-15
-2.73551e-08
-1.12633e-07
-2.07527e-15
-2.86411e-08
-1.10784e-07
-1.97351e-15
-2.98774e-08
-1.08158e-07
-1.89807e-15
-3.10562e-08
-1.04686e-07
-1.74335e-15
-3.21692e-08
-1.00332e-07
-1.93477e-15
-3.32075e-08
-9.50429e-08
-1.74285e-15
-3.41609e-08
-8.87648e-08
-1.62664e-15
-3.50183e-08
-8.14493e-08
-1.51351e-15
-3.57678e-08
-7.30481e-08
-1.40608e-15
-3.63965e-08
-6.35203e-08
-1.30478e-15
-3.68907e-08
-5.28259e-08
-1.20662e-15
-3.72368e-08
-4.09385e-08
-1.1155e-15
-2.78403e-08
-1.02254e-15
1.8775e-11
-7.51674e-09
4.59427e-15
2.30651e-10
-2.28199e-08
3.36667e-16
1.01732e-09
-4.27545e-08
6.98487e-15
1.21159e-09
-7.32517e-08
-8.24462e-15
-3.47119e-10
-8.57392e-08
5.3503e-18
-1.60363e-09
-9.0712e-08
1.16527e-14
-1.18205e-09
-9.01513e-08
1.46498e-14
-7.74285e-10
-7.43493e-08
-8.44742e-15
-2.24772e-09
-8.17437e-08
-1.05172e-14
-3.77714e-09
-8.94424e-08
-1.08922e-14
-5.32168e-09
-9.35714e-08
-9.90436e-15
-6.81653e-09
-9.50941e-08
-9.00869e-15
-8.2883e-09
-9.52443e-08
-7.57299e-15
-9.75145e-09
-9.5319e-08
-6.43775e-15
-1.12166e-08
-9.59325e-08
-5.41412e-15
-1.26867e-08
-9.72336e-08
-3.69722e-15
-1.41633e-08
-9.91226e-08
-4.88358e-15
-1.56443e-08
-1.014e-07
-3.30987e-15
-1.7126e-08
-1.0384e-07
-3.5194e-15
-1.86036e-08
-1.06234e-07
-3.23205e-15
-2.0072e-08
-1.08413e-07
-2.82086e-15
-2.15261e-08
-1.10251e-07
-2.61416e-15
-2.29612e-08
-1.11631e-07
-2.47592e-15
-2.43726e-08
-1.12491e-07
-2.36392e-15
-2.57558e-08
-1.12757e-07
-2.32827e-15
-2.7106e-08
-1.12383e-07
-2.2082e-15
-2.84181e-08
-1.11321e-07
-2.10452e-15
-2.96865e-08
-1.09515e-07
-2.00165e-15
-3.09048e-08
-1.06939e-07
-1.9232e-15
-3.20656e-08
-1.03526e-07
-1.75762e-15
-3.31605e-08
-9.9237e-08
-1.97517e-15
-3.41806e-08
-9.40228e-08
-1.77374e-15
-3.51157e-08
-8.78297e-08
-1.65286e-15
-3.59546e-08
-8.06104e-08
-1.53564e-15
-3.66853e-08
-7.23175e-08
-1.42488e-15
-3.72946e-08
-6.2911e-08
-1.32079e-15
-3.77687e-08
-5.23516e-08
-1.2201e-15
-3.80937e-08
-4.06136e-08
-1.1262e-15
-3.82543e-08
-2.76795e-08
-1.03134e-15
-1.35466e-08
-9.33594e-16
1.56447e-11
-7.5324e-09
9.15247e-16
2.03527e-10
-2.30078e-08
2.75362e-15
9.08721e-10
-4.34597e-08
2.88286e-16
6.34141e-10
-7.29771e-08
-5.71949e-15
-1.37711e-09
-8.37279e-08
6.86461e-16
-2.66421e-09
-8.9425e-08
5.16872e-15
-2.43873e-09
-9.03768e-08
-2.87113e-15
-1.23006e-09
-7.55579e-08
-1.0537e-15
-2.82513e-09
-8.01486e-08
-1.04558e-14
-4.49466e-09
-8.77728e-08
-1.09756e-14
-6.14237e-09
-9.19237e-08
-1.01506e-14
-7.70241e-09
-9.35341e-08
-9.19211e-15
-9.21192e-09
-9.37348e-08
-7.94128e-15
-1.06999e-08
-9.38311e-08
-6.62936e-15
-1.21823e-08
-9.44501e-08
-5.63234e-15
-1.36659e-08
-9.575e-08
-3.8406e-15
-1.51532e-08
-9.76353e-08
-5.06706e-15
-1.66424e-08
-9.99112e-08
-3.39354e-15
-1.81299e-08
-1.02353e-07
-3.46863e-15
-1.96108e-08
-1.04753e-07
-3.17006e-15
-2.10799e-08
-1.06944e-07
-2.77714e-15
-2.25323e-08
-1.08799e-07
-2.5999e-15
-2.39634e-08
-1.102e-07
-2.48354e-15
-2.53689e-08
-1.11086e-07
-2.38344e-15
-2.67444e-08
-1.11381e-07
-2.35561e-15
-2.80856e-08
-1.11042e-07
-2.23666e-15
-2.93876e-08
-1.10019e-07
-2.13392e-15
-3.06451e-08
-1.08258e-07
-2.02934e-15
-3.18518e-08
-1.05733e-07
-1.94696e-15
-3.30004e-08
-1.02377e-07
-1.77078e-15
-3.40827e-08
-9.81546e-08
-2.01065e-15
-3.50897e-08
-9.30157e-08
-1.80053e-15
-3.60112e-08
-8.69082e-08
-1.67555e-15
-3.68359e-08
-7.97857e-08
-1.55491e-15
-3.75517e-08
-7.16019e-08
-1.44148e-15
-3.81453e-08
-6.23174e-08
-1.33512e-15
-3.86027e-08
-5.1894e-08
-1.23239e-15
-3.89098e-08
-4.03065e-08
-1.13631e-15
-3.90511e-08
-2.75381e-08
-1.03993e-15
-1.35862e-08
-9.42079e-16
1.24571e-11
-7.54487e-09
-2.81762e-16
1.7339e-10
-2.31687e-08
1.61432e-15
7.83838e-10
-4.40701e-08
6.75098e-15
3.7246e-12
-7.2197e-08
-1.23325e-14
-2.11204e-09
-8.16121e-08
7.94433e-16
-3.35604e-09
-8.8181e-08
3.89304e-15
-3.26806e-09
-9.04648e-08
-5.02369e-15
-1.48879e-09
-7.73371e-08
1.84135e-16
-3.21873e-09
-7.84187e-08
-1.09407e-14
-5.01826e-09
-8.59733e-08
-1.11245e-14
-6.76298e-09
-9.01789e-08
-1.06433e-14
-8.3873e-09
-9.19098e-08
-9.38949e-15
-9.93434e-09
-9.21877e-08
-8.16294e-15
-1.14489e-08
-9.23166e-08
-6.68596e-15
-1.29516e-08
-9.29474e-08
-5.76528e-15
-1.44532e-08
-9.42484e-08
-3.85861e-15
-1.59566e-08
-9.61318e-08
-5.18721e-15
-1.74607e-08
-9.84071e-08
-3.47831e-15
-1.89615e-08
-1.00852e-07
-3.58334e-15
-2.04538e-08
-1.03261e-07
-3.26452e-15
-2.19324e-08
-1.05465e-07
-2.84246e-15
-2.3392e-08
-1.07339e-07
-2.65179e-15
-2.48283e-08
-1.08764e-07
-2.53295e-15
-2.62368e-08
-1.09677e-07
-2.42277e-15
-2.76135e-08
-1.10005e-07
-2.38631e-15
-2.89542e-08
-1.09701e-07
-2.261e-15
-3.02542e-08
-1.08719e-07
-2.15635e-15
-3.15084e-08
-1.07004e-07
-2.04948e-15
-3.27106e-08
-1.04531e-07
-1.9637e-15
-3.38538e-08
-1.01234e-07
-1.77876e-15
-3.49296e-08
-9.70786e-08
-2.0377e-15
-3.59293e-08
-9.2016e-08
-1.82118e-15
-3.68425e-08
-8.5995e-08
-1.69364e-15
-3.76579e-08
-7.89703e-08
-1.57086e-15
-3.83633e-08
-7.08966e-08
-1.45566e-15
-3.89453e-08
-6.17354e-08
-1.34774e-15
-3.93898e-08
-5.14493e-08
-1.24351e-15
-3.96825e-08
-4.00139e-08
-1.14593e-15
-3.98077e-08
-2.74127e-08
-1.0485e-15
-3.97506e-08
-1.36436e-08
-9.50077e-16
1.26797e-09
-8.43695e-16
9.22599e-12
-7.55411e-09
-3.93315e-16
1.42904e-10
-2.33024e-08
2.19508e-15
6.3193e-10
-4.45591e-08
6.89873e-15
-4.8599e-10
-7.10791e-08
-1.21491e-14
-2.3291e-09
-7.9769e-08
-7.48458e-15
-3.47461e-09
-8.70355e-08
-1.10921e-14
-3.44794e-09
-9.04915e-08
-1.78294e-14
-1.42826e-09
-7.93568e-08
-3.83868e-15
-3.41193e-09
-7.6435e-08
-1.14258e-14
-5.344e-09
-8.40412e-08
-1.11052e-14
-7.18101e-09
-8.83419e-08
-1.07413e-14
-8.86914e-09
-9.02217e-08
-9.52745e-15
-1.04532e-08
-9.06037e-08
-8.34735e-15
-1.1995e-08
-9.07747e-08
-6.92595e-15
-1.35198e-08
-9.14226e-08
-6.00555e-15
-1.50426e-08
-9.27255e-08
-3.93288e-15
-1.65667e-08
-9.46077e-08
-5.29225e-15
-1.80915e-08
-9.68822e-08
-3.52244e-15
-1.96125e-08
-9.9331e-08
-3.67709e-15
-2.11241e-08
-1.01749e-07
-3.36138e-15
-2.26205e-08
-1.03969e-07
-2.91724e-15
-2.40964e-08
-1.05863e-07
-2.70532e-15
-2.5547e-08
-1.07313e-07
-2.57525e-15
-2.69679e-08
-1.08256e-07
-2.45445e-15
-2.8355e-08
-1.08617e-07
-2.41173e-15
-2.97042e-08
-1.08352e-07
-2.28289e-15
-3.10108e-08
-1.07412e-07
-2.17642e-15
-3.22699e-08
-1.05745e-07
-2.06636e-15
-3.34754e-08
-1.03325e-07
-1.97626e-15
-3.46203e-08
-1.00089e-07
-1.78264e-15
-3.56964e-08
-9.60024e-08
-2.05598e-15
-3.66949e-08
-9.10174e-08
-1.83502e-15
-3.76055e-08
-8.50844e-08
-1.7067e-15
-3.84168e-08
-7.8159e-08
-1.58325e-15
-3.91167e-08
-7.01968e-08
-1.46735e-15
-3.96916e-08
-6.11606e-08
-1.35863e-15
-4.01273e-08
-5.10135e-08
-1.25352e-15
-4.04093e-08
-3.97318e-08
-1.15505e-15
-4.0522e-08
-2.72998e-08
-1.05694e-15
-4.04503e-08
-1.37156e-08
-9.57637e-16
9.95244e-10
-8.49809e-16
6.10733e-12
-7.56022e-09
2.5888e-16
1.13028e-10
-2.34093e-08
1.03862e-15
4.79946e-10
-4.4926e-08
8.70362e-15
-6.71622e-10
-6.99276e-08
-1.25986e-14
-2.03899e-09
-7.84016e-08
-5.64807e-15
-3.06886e-09
-8.60056e-08
-1.89312e-14
-3.00989e-09
-9.05505e-08
-1.81594e-14
-9.89446e-10
-8.13772e-08
-2.65731e-15
-3.40344e-09
-7.4021e-08
-9.42946e-15
-5.48676e-09
-8.19579e-08
-1.09475e-14
-7.40957e-09
-8.64191e-08
-1.07515e-14
-9.15968e-09
-8.84717e-08
-9.68795e-15
-1.07782e-08
-8.89852e-08
-8.44068e-15
-1.23457e-08
-8.92071e-08
-7.06739e-15
-1.38922e-08
-8.98762e-08
-6.10338e-15
-1.54374e-08
-9.11803e-08
-3.94648e-15
-1.69849e-08
-9.30602e-08
-5.32773e-15
-1.85346e-08
-9.53325e-08
-3.52628e-15
-2.00812e-08
-9.77844e-08
-3.63936e-15
-2.16188e-08
-1.00212e-07
-3.31269e-15
-2.31408e-08
-1.02447e-07
-2.88044e-15
-2.46413e-08
-1.04362e-07
-2.68812e-15
-2.6115e-08
-1.0584e-07
-2.58154e-15
-2.75574e-08
-1.06814e-07
-2.466e-15
-2.8964e-08
-1.07211e-07
-2.42226e-15
-3.03306e-08
-1.06985e-07
-2.29369e-15
-3.16526e-08
-1.0609e-07
-2.18723e-15
-3.2925e-08
-1.04473e-07
-2.07522e-15
-3.41417e-08
-1.02108e-07
-1.98164e-15
-3.52959e-08
-9.8935e-08
-1.78098e-15
-3.63793e-08
-9.49189e-08
-2.06447e-15
-3.73831e-08
-9.00135e-08
-1.84167e-15
-3.82971e-08
-8.41704e-08
-1.71452e-15
-3.911e-08
-7.73461e-08
-1.59202e-15
-3.98094e-08
-6.94975e-08
-1.47652e-15
-4.03818e-08
-6.05881e-08
-1.36782e-15
-4.0813e-08
-5.05821e-08
-1.26242e-15
-4.10885e-08
-3.94564e-08
-1.16359e-15
-4.11923e-08
-2.71958e-08
-1.06517e-15
-4.11093e-08
-1.37988e-08
-9.65112e-16
7.08842e-10
-8.55192e-16
3.37555e-12
-7.56359e-09
1.65273e-15
8.49243e-11
-2.34908e-08
1.01633e-15
3.73651e-10
-4.52147e-08
9.52399e-15
-5.56898e-10
-6.8997e-08
-1.36745e-14
-1.55344e-09
-7.74051e-08
-1.21612e-14
-2.55094e-09
-8.50081e-08
-2.14603e-14
-2.48832e-09
-9.06131e-08
-1.50743e-14
-5.71445e-10
-8.32942e-08
-1.22922e-14
-3.23326e-09
-7.13592e-08
-8.71277e-15
-5.47933e-09
-7.97118e-08
-1.08057e-14
-7.47463e-09
-8.44238e-08
-1.08027e-14
-9.28065e-09
-8.66657e-08
-9.74919e-15
-1.09276e-08
-8.73382e-08
-8.64051e-15
-1.2516e-08
-8.76187e-08
-7.02775e-15
-1.40809e-08
-8.83113e-08
-6.1399e-15
-1.56472e-08
-8.9614e-08
-4.00356e-15
-1.72185e-08
-9.14889e-08
-5.35068e-15
-1.87953e-08
-9.37558e-08
-3.61397e-15
-2.03714e-08
-9.62083e-08
-3.72327e-15
-2.19402e-08
-9.86431e-08
-3.41546e-15
-2.34942e-08
-1.00893e-07
-2.98023e-15
-2.50266e-08
-1.0283e-07
-2.76588e-15
-2.65316e-08
-1.04335e-07
-2.64109e-15
-2.80039e-08
-1.05342e-07
-2.50478e-15
-2.94387e-08
-1.05776e-07
-2.44652e-15
-3.08315e-08
-1.05592e-07
-2.30959e-15
-3.21774e-08
-1.04744e-07
-2.1984e-15
-3.34714e-08
-1.03179e-07
-2.08157e-15
-3.47073e-08
-1.00873e-07
-1.98319e-15
-3.58782e-08
-9.77641e-08
-1.77577e-15
-3.69759e-08
-9.3821e-08
-2.0686e-15
-3.79917e-08
-8.89977e-08
-1.84182e-15
-3.89153e-08
-8.32468e-08
-1.7175e-15
-3.97353e-08
-7.65261e-08
-1.59734e-15
-4.04395e-08
-6.87935e-08
-1.48327e-15
-4.10142e-08
-6.00133e-08
-1.37535e-15
-4.14454e-08
-5.01508e-08
-1.27024e-15
-4.17183e-08
-3.91835e-08
-1.1715e-15
-4.1817e-08
-2.70969e-08
-1.07306e-15
-4.17263e-08
-1.38898e-08
-9.72425e-16
4.12025e-10
-8.60313e-16
1.20813e-12
-7.56479e-09
1.73587e-15
6.05237e-11
-2.35501e-08
1.75692e-16
3.42303e-10
-4.54964e-08
1.03496e-14
-3.23434e-10
-6.83313e-08
-1.91881e-14
-1.3535e-09
-7.6375e-08
-1.22903e-14
-2.52456e-09
-8.3837e-08
-1.28304e-14
-2.70271e-09
-9.04349e-08
-1.17607e-14
-1.00252e-09
-8.49944e-08
-9.17929e-15
-2.98196e-09
-6.93798e-08
-5.05237e-15
-5.34953e-09
-7.73442e-08
-1.0081e-14
-7.40041e-09
-8.23729e-08
-1.0794e-14
-9.25242e-09
-8.48137e-08
-9.41465e-15
-1.09205e-08
-8.56701e-08
-8.55014e-15
-1.25226e-08
-8.60166e-08
-6.96192e-15
-1.41012e-08
-8.67327e-08
-6.00767e-15
-1.56851e-08
-8.80301e-08
-3.89199e-15
-1.7279e-08
-8.9895e-08
-5.41111e-15
-1.88833e-08
-9.21515e-08
-3.71687e-15
-2.04911e-08
-9.46005e-08
-3.68744e-15
-2.20948e-08
-9.70394e-08
-3.32229e-15
-2.36858e-08
-9.93019e-08
-2.88895e-15
-2.52563e-08
-1.01259e-07
-2.70128e-15
-2.67995e-08
-1.02792e-07
-2.61246e-15
-2.83092e-08
-1.03832e-07
-2.49166e-15
-2.97801e-08
-1.04305e-07
-2.43945e-15
-3.12072e-08
-1.04165e-07
-2.30633e-15
-3.25851e-08
-1.03366e-07
-2.19735e-15
-3.39086e-08
-1.01855e-07
-2.07991e-15
-3.51714e-08
-9.96099e-08
-1.97916e-15
-3.63663e-08
-9.65692e-08
-1.76743e-15
-3.74853e-08
-9.27019e-08
-2.06678e-15
-3.85195e-08
-8.79635e-08
-1.83663e-15
-3.94587e-08
-8.23076e-08
-1.71644e-15
-4.02915e-08
-7.56933e-08
-1.59969e-15
-4.10057e-08
-6.80794e-08
-1.48782e-15
-4.15876e-08
-5.94313e-08
-1.38135e-15
-4.20232e-08
-4.97151e-08
-1.27702e-15
-4.22977e-08
-3.89091e-08
-1.17878e-15
-4.23951e-08
-2.69993e-08
-1.08055e-15
-4.23003e-08
-1.39849e-08
-9.79506e-16
1.0811e-10
-8.65682e-16
-4.05366e-13
-7.56439e-09
5.30702e-16
4.13003e-11
-2.35918e-08
3.65018e-16
3.78267e-10
-4.58334e-08
7.25643e-15
-2.10294e-10
-6.77428e-08
-1.84542e-14
-1.71067e-09
-7.48747e-08
-1.14109e-14
-3.23888e-09
-8.23088e-08
-2.42636e-15
-3.87759e-09
-8.97963e-08
-7.24253e-15
-2.4624e-09
-8.64095e-08
1.27786e-16
-2.7017e-09
-6.91405e-08
-7.7621e-15
-5.09835e-09
-7.49476e-08
-8.32866e-15
-7.19458e-09
-8.02767e-08
-1.13433e-14
-9.08417e-09
-8.29242e-08
-9.39296e-15
-1.07703e-08
-8.3984e-08
-8.31583e-15
-1.23797e-08
-8.44072e-08
-6.67541e-15
-1.39675e-08
-8.51448e-08
-5.83827e-15
-1.55652e-08
-8.64324e-08
-3.82084e-15
-1.71796e-08
-8.82806e-08
-5.30517e-15
-1.88107e-08
-9.05204e-08
-3.77521e-15
-2.04511e-08
-9.296e-08
-3.70279e-15
-2.20921e-08
-9.53985e-08
-3.36375e-15
-2.37238e-08
-9.76703e-08
-2.94718e-15
-2.53372e-08
-9.96459e-08
-2.75219e-15
-2.69243e-08
-1.01205e-07
-2.65329e-15
-2.8478e-08
-1.02278e-07
-2.51661e-15
-2.9992e-08
-1.02791e-07
-2.45061e-15
-3.14605e-08
-1.02697e-07
-2.3106e-15
-3.28778e-08
-1.01949e-07
-2.1978e-15
-3.42381e-08
-1.00495e-07
-2.07674e-15
-3.55349e-08
-9.83132e-08
-1.97274e-15
-3.67608e-08
-9.53434e-08
-1.75756e-15
-3.79076e-08
-9.1555e-08
-2.05693e-15
-3.89665e-08
-8.69046e-08
-1.82703e-15
-3.99271e-08
-8.1347e-08
-1.71206e-15
-4.07782e-08
-7.48423e-08
-1.59947e-15
-4.15075e-08
-6.73503e-08
-1.49045e-15
-4.21014e-08
-5.88374e-08
-1.38595e-15
-4.25457e-08
-4.92705e-08
-1.28285e-15
-4.28259e-08
-3.86289e-08
-1.18543e-15
-4.29259e-08
-2.68991e-08
-1.08764e-15
-4.28305e-08
-1.40806e-08
-9.86363e-16
-1.99576e-10
-8.71167e-16
-1.59005e-12
-7.56281e-09
2.42425e-16
2.79749e-11
-2.36213e-08
2.18274e-15
4.45476e-10
-4.62508e-08
5.61531e-15
-3.39201e-10
-6.69582e-08
-1.70467e-14
-2.43966e-09
-7.27742e-08
-1.03226e-14
-4.2898e-09
-8.04586e-08
1.78206e-15
-5.31189e-09
-8.87742e-08
6.22863e-15
-4.01817e-09
-8.77033e-08
-3.3811e-15
-2.32365e-09
-7.08351e-08
-2.73299e-15
-4.71112e-09
-7.25601e-08
-7.5139e-15
-6.85365e-09
-7.81341e-08
-1.04346e-14
-8.7783e-09
-8.09996e-08
-8.66607e-15
-1.04855e-08
-8.22768e-08
-7.91497e-15
-1.20988e-08
-8.27939e-08
-6.62181e-15
-1.36936e-08
-8.35501e-08
-5.73946e-15
-1.53018e-08
-8.48241e-08
-3.8041e-15
-1.69346e-08
-8.66478e-08
-5.18315e-15
-1.85912e-08
-8.88638e-08
-3.74621e-15
-2.02643e-08
-9.12869e-08
-3.5733e-15
-2.19438e-08
-9.3719e-08
-3.23115e-15
-2.36187e-08
-9.59954e-08
-2.84672e-15
-2.52787e-08
-9.79859e-08
-2.68642e-15
-2.69142e-08
-9.9569e-08
-2.61765e-15
-2.85172e-08
-1.00675e-07
-2.4937e-15
-3.00801e-08
-1.01228e-07
-2.43043e-15
-3.15964e-08
-1.01181e-07
-2.2953e-15
-3.30595e-08
-1.00485e-07
-2.1861e-15
-3.44631e-08
-9.90915e-08
-2.06662e-15
-3.58003e-08
-9.6976e-08
-1.96261e-15
-3.70636e-08
-9.40802e-08
-1.74744e-15
-3.82443e-08
-9.03741e-08
-2.03566e-15
-3.93336e-08
-8.58152e-08
-1.81507e-15
-4.03212e-08
-8.03594e-08
-1.70537e-15
-4.11957e-08
-7.39678e-08
-1.59733e-15
-4.1945e-08
-6.66012e-08
-1.49148e-15
-4.25554e-08
-5.82269e-08
-1.38936e-15
-4.30128e-08
-4.88129e-08
-1.28783e-15
-4.33027e-08
-3.83391e-08
-1.19153e-15
-4.3409e-08
-2.67926e-08
-1.09437e-15
-4.33165e-08
-1.41734e-08
-9.93042e-16
-5.07744e-10
-8.76798e-16
-2.46871e-12
-7.56035e-09
-3.39864e-16
2.18138e-11
-2.36456e-08
2.2235e-15
5.07774e-10
-4.67368e-08
1.87507e-15
-6.26752e-10
-6.58237e-08
-1.1647e-14
-3.0943e-09
-7.03066e-08
-1.43363e-15
-5.024e-09
-7.85289e-08
3.86229e-15
-6.13966e-09
-8.76585e-08
9.50383e-15
-4.7005e-09
-8.91425e-08
7.09028e-15
-1.62174e-09
-7.39138e-08
-8.56111e-15
-4.16853e-09
-7.00133e-08
-4.62819e-15
-6.37821e-09
-7.59244e-08
-9.7885e-15
-8.34043e-09
-7.90374e-08
-8.38057e-15
-1.00753e-08
-8.05419e-08
-7.12535e-15
-1.16922e-08
-8.11769e-08
-6.5346e-15
-1.3293e-08
-8.19493e-08
-5.57113e-15
-1.49093e-08
-8.32078e-08
-3.69542e-15
-1.65587e-08
-8.49983e-08
-5.03973e-15
-1.82394e-08
-8.71831e-08
-3.7026e-15
-1.99447e-08
-8.95816e-08
-3.58517e-15
-2.16632e-08
-9.20005e-08
-3.24867e-15
-2.33829e-08
-9.42757e-08
-2.85073e-15
-2.50919e-08
-9.62769e-08
-2.67969e-15
-2.67793e-08
-9.78816e-08
-2.60866e-15
-2.84357e-08
-9.9019e-08
-2.48201e-15
-3.00523e-08
-9.96116e-08
-2.41312e-15
-3.16214e-08
-9.96114e-08
-2.2792e-15
-3.31358e-08
-9.8971e-08
-2.17141e-15
-3.45884e-08
-9.7639e-08
-2.05305e-15
-3.59716e-08
-9.55928e-08
-1.94981e-15
-3.72777e-08
-9.27742e-08
-1.73701e-15
-3.84978e-08
-8.91539e-08
-2.00726e-15
-3.96228e-08
-8.46901e-08
-1.80098e-15
-4.06424e-08
-7.93398e-08
-1.69688e-15
-4.15452e-08
-7.3065e-08
-1.59361e-15
-4.2319e-08
-6.58275e-08
-1.4912e-15
-4.29502e-08
-5.75957e-08
-1.39175e-15
-4.34248e-08
-4.83382e-08
-1.29211e-15
-4.37281e-08
-3.80358e-08
-1.19715e-15
-4.38443e-08
-2.66763e-08
-1.10084e-15
-4.37581e-08
-1.42599e-08
-9.9962e-16
-8.1319e-10
-8.82631e-16
-3.13316e-12
-7.55723e-09
-1.51727e-16
2.37761e-11
-2.36725e-08
3.94044e-15
5.49832e-10
-4.72628e-08
3.29683e-15
-9.05609e-10
-6.43683e-08
-1.19481e-14
-3.41126e-09
-6.78009e-08
-1.89759e-15
-5.2279e-09
-7.67123e-08
8.34883e-15
-6.17929e-09
-8.67073e-08
-9.17745e-15
-4.49777e-09
-9.08239e-08
1.49062e-14
-5.98268e-10
-7.78134e-08
-1.12024e-14
-3.47073e-09
-6.71407e-08
1.20822e-15
-5.78732e-09
-7.36078e-08
-8.92852e-15
-7.78532e-09
-7.70394e-08
-8.16545e-15
-9.55292e-09
-7.87743e-08
-6.83682e-15
-1.11745e-08
-7.95554e-08
-6.41163e-15
-1.27801e-08
-8.03437e-08
-5.45576e-15
-1.4403e-08
-8.15849e-08
-3.61696e-15
-1.60672e-08
-8.33341e-08
-4.9442e-15
-1.77706e-08
-8.54798e-08
-3.68747e-15
-1.95073e-08
-8.78449e-08
-3.47279e-15
-2.12647e-08
-9.02431e-08
-3.16792e-15
-2.30299e-08
-9.25106e-08
-2.79923e-15
-2.47895e-08
-9.45173e-08
-2.64676e-15
-2.65312e-08
-9.61399e-08
-2.58554e-15
-2.82439e-08
-9.73063e-08
-2.4605e-15
-2.99178e-08
-9.79377e-08
-2.38598e-15
-3.15439e-08
-9.79853e-08
-2.25501e-15
-3.31138e-08
-9.74009e-08
-2.15048e-15
-3.46199e-08
-9.61331e-08
-2.03565e-15
-3.60539e-08
-9.41588e-08
-1.93521e-15
-3.74076e-08
-9.14207e-08
-1.72756e-15
-3.86717e-08
-8.78896e-08
-1.98652e-15
-3.9837e-08
-8.35247e-08
-1.78601e-15
-4.08931e-08
-7.82838e-08
-1.68736e-15
-4.18284e-08
-7.21297e-08
-1.58884e-15
-4.26308e-08
-6.50253e-08
-1.48995e-15
-4.32868e-08
-5.69397e-08
-1.39339e-15
-4.37822e-08
-4.78426e-08
-1.29587e-15
-4.41026e-08
-3.77155e-08
-1.20242e-15
-4.42321e-08
-2.65466e-08
-1.10708e-15
-4.41554e-08
-1.43368e-08
-1.00618e-15
-1.11283e-09
-8.88735e-16
-3.49998e-12
-7.55372e-09
1.06329e-15
3.46802e-11
-2.37107e-08
-2.14997e-15
5.69246e-10
-4.77973e-08
2.20883e-15
-1.13781e-09
-6.26613e-08
-1.21179e-14
-3.59374e-09
-6.53449e-08
4.35507e-15
-5.41908e-09
-7.48869e-08
1.03349e-15
-6.22439e-09
-8.5902e-08
6.2376e-16
-4.60578e-09
-9.24426e-08
-1.53722e-14
-3.67948e-10
-8.20512e-08
2.62507e-14
-2.69743e-09
-6.48113e-08
-1.74986e-14
-5.11516e-09
-7.11901e-08
-7.68412e-15
-7.13625e-09
-7.50184e-08
-7.56e-15
-8.93513e-09
-7.69754e-08
-6.92432e-15
-1.05617e-08
-7.79288e-08
-6.22373e-15
-1.21697e-08
-7.87356e-08
-5.19478e-15
-1.37977e-08
-7.9957e-08
-3.47472e-15
-1.5475e-08
-8.16568e-08
-4.65341e-15
-1.71998e-08
-8.37549e-08
-3.56076e-15
-1.8967e-08
-8.60777e-08
-3.34689e-15
-2.0763e-08
-8.8447e-08
-3.0528e-15
-2.2574e-08
-9.06997e-08
-2.69463e-15
-2.4385e-08
-9.27062e-08
-2.55565e-15
-2.61824e-08
-9.43426e-08
-2.51153e-15
-2.79535e-08
-9.55351e-08
-2.40084e-15
-2.96871e-08
-9.62041e-08
-2.33207e-15
-3.1373e-08
-9.62993e-08
-2.21286e-15
-3.30018e-08
-9.5772e-08
-2.11689e-15
-3.45648e-08
-9.45701e-08
-2.00978e-15
-3.60533e-08
-9.26704e-08
-1.91548e-15
-3.74583e-08
-9.00158e-08
-1.717e-15
-3.87702e-08
-8.65774e-08
-1.96399e-15
-3.99797e-08
-8.23152e-08
-1.77003e-15
-4.10761e-08
-7.71875e-08
-1.67692e-15
-4.20477e-08
-7.11581e-08
-1.58318e-15
-4.28823e-08
-6.41907e-08
-1.488e-15
-4.35666e-08
-5.62554e-08
-1.39446e-15
-4.40863e-08
-4.73227e-08
-1.29923e-15
-4.4427e-08
-3.73748e-08
-1.20744e-15
-4.45729e-08
-2.64006e-08
-1.11322e-15
-4.45088e-08
-1.44012e-08
-1.01276e-15
-1.40374e-09
-8.951e-16
-3.62824e-12
-7.55009e-09
1.41689e-15
5.08007e-11
-2.37651e-08
7.32564e-15
5.39745e-10
-4.82862e-08
9.93392e-15
-1.48023e-09
-6.06413e-08
-6.70217e-15
-4.12983e-09
-6.26952e-08
1.46547e-14
-6.32426e-09
-7.26926e-08
-1.22345e-14
-7.30203e-09
-8.49243e-08
-1.31756e-14
-6.25626e-09
-9.34884e-08
-1.93225e-14
-2.09517e-09
-8.62122e-08
2.26245e-14
-1.95158e-09
-6.49548e-08
-2.49044e-15
-4.36348e-09
-6.87782e-08
-4.01081e-15
-6.40128e-09
-7.29806e-08
-7.32204e-15
-8.22777e-09
-7.51489e-08
-6.76121e-15
-9.86451e-09
-7.62921e-08
-6.25484e-15
-1.14732e-08
-7.71269e-08
-4.95602e-15
-1.31067e-08
-7.83235e-08
-3.48558e-15
-1.4796e-08
-7.99675e-08
-4.31264e-15
-1.65419e-08
-8.20089e-08
-3.47437e-15
-1.83389e-08
-8.42807e-08
-3.17471e-15
-2.01733e-08
-8.66126e-08
-2.90332e-15
-2.20299e-08
-8.88431e-08
-2.59309e-15
-2.38927e-08
-9.08435e-08
-2.49144e-15
-2.57463e-08
-9.24889e-08
-2.46908e-15
-2.75769e-08
-9.37046e-08
-2.36737e-15
-2.93716e-08
-9.44094e-08
-2.29441e-15
-3.11191e-08
-9.45519e-08
-2.18047e-15
-3.28088e-08
-9.40822e-08
-2.08811e-15
-3.44311e-08
-9.29478e-08
-1.98628e-15
-3.59767e-08
-9.1125e-08
-1.89694e-15
-3.74358e-08
-8.85567e-08
-1.70844e-15
-3.87986e-08
-8.52145e-08
-1.93983e-15
-4.00552e-08
-8.10584e-08
-1.75384e-15
-4.11949e-08
-7.60478e-08
-1.66607e-15
-4.22059e-08
-7.01471e-08
-1.57711e-15
-4.30759e-08
-6.33208e-08
-1.48563e-15
-4.37915e-08
-5.55399e-08
-1.39525e-15
-4.43384e-08
-4.67755e-08
-1.3024e-15
-4.47025e-08
-3.70108e-08
-1.21236e-15
-4.48676e-08
-2.62352e-08
-1.11936e-15
-4.48189e-08
-1.44503e-08
-1.01941e-15
-1.6832e-09
-9.0176e-16
-3.48751e-12
-7.5466e-09
2.65434e-15
6.8334e-11
-2.3837e-08
-2.36315e-15
4.13978e-10
-4.86319e-08
6.58592e-15
-2.09722e-09
-5.813e-08
7.83478e-15
-5.24637e-09
-5.9546e-08
1.71879e-14
-7.99928e-09
-6.99397e-08
-1.04622e-14
-9.3605e-09
-8.35631e-08
-1.59405e-14
-8.84456e-09
-9.40044e-08
-3.08447e-14
-4.73936e-09
-9.03174e-08
7.23e-15
-1.12643e-09
-6.85678e-08
-4.93131e-15
-3.49676e-09
-6.64079e-08
9.31936e-16
-5.56852e-09
-7.09088e-08
-4.64495e-15
-7.425e-09
-7.32924e-08
-4.94506e-15
-9.08645e-09
-7.46307e-08
-5.43457e-15
-1.06978e-08
-7.55156e-08
-3.90754e-15
-1.23405e-08
-7.66807e-08
-3.17603e-15
-1.40426e-08
-7.82654e-08
-3.76903e-15
-1.58106e-08
-8.02409e-08
-3.33575e-15
-1.76377e-08
-8.24536e-08
-2.86032e-15
-1.95105e-08
-8.47399e-08
-2.64407e-15
-2.14126e-08
-8.6941e-08
-2.4141e-15
-2.3327e-08
-8.89291e-08
-2.35611e-15
-2.52369e-08
-9.0579e-08
-2.36239e-15
-2.7127e-08
-9.18145e-08
-2.28201e-15
-2.89832e-08
-9.25532e-08
-2.21452e-15
-3.0793e-08
-9.27421e-08
-2.11953e-15
-3.25446e-08
-9.23304e-08
-2.04024e-15
-3.42275e-08
-9.12649e-08
-1.95101e-15
-3.58316e-08
-8.95209e-08
-1.87169e-15
-3.73466e-08
-8.70418e-08
-1.69789e-15
-3.87622e-08
-8.37987e-08
-1.91375e-15
-4.00682e-08
-7.97524e-08
-1.73708e-15
-4.12536e-08
-7.48625e-08
-1.65485e-15
-4.23063e-08
-6.90943e-08
-1.57076e-15
-4.32142e-08
-6.24131e-08
-1.4831e-15
-4.39636e-08
-5.47904e-08
-1.39588e-15
-4.45405e-08
-4.61985e-08
-1.3055e-15
-4.49303e-08
-3.6621e-08
-1.21733e-15
-4.51174e-08
-2.6048e-08
-1.12553e-15
-4.50865e-08
-1.44814e-08
-1.02621e-15
-1.9487e-09
-9.08745e-16
-3.36189e-12
-7.54322e-09
2.56692e-15
8.06357e-11
-2.39209e-08
6.67194e-15
1.39803e-10
-4.8691e-08
9.03042e-15
-2.98471e-09
-5.50057e-08
-2.2644e-14
-6.67523e-09
-5.58554e-08
9.16731e-15
-9.78804e-09
-6.68269e-08
-1.73446e-14
-1.12912e-08
-8.20599e-08
2.088e-15
-1.0644e-08
-9.46518e-08
-3.44983e-14
-6.09424e-09
-9.48671e-08
-1.20965e-15
1.2121e-10
-7.47835e-08
-1.72828e-14
-2.47374e-09
-6.3813e-08
3.77772e-15
-4.63466e-09
-6.87479e-08
-2.73396e-15
-6.5277e-09
-7.13993e-08
-4.82549e-15
-8.2315e-09
-7.29269e-08
-5.78426e-15
-9.8519e-09
-7.38952e-08
-3.7762e-15
-1.15096e-08
-7.5023e-08
-3.29784e-15
-1.32274e-08
-7.65476e-08
-3.75455e-15
-1.50197e-08
-7.84487e-08
-3.61418e-15
-1.68779e-08
-8.05953e-08
-2.9045e-15
-1.87896e-08
-8.28282e-08
-2.6011e-15
-2.07372e-08
-8.49934e-08
-2.37881e-15
-2.27027e-08
-8.69635e-08
-2.3424e-15
-2.46683e-08
-8.86135e-08
-2.36207e-15
-2.66173e-08
-8.98655e-08
-2.27791e-15
-2.85345e-08
-9.0636e-08
-2.19896e-15
-3.0406e-08
-9.08706e-08
-2.09873e-15
-3.22194e-08
-9.0517e-08
-2.01583e-15
-3.39631e-08
-8.95213e-08
-1.92877e-15
-3.56262e-08
-8.78579e-08
-1.85324e-15
-3.71978e-08
-8.54702e-08
-1.6901e-15
-3.86673e-08
-8.23291e-08
-1.88564e-15
-4.00239e-08
-7.83957e-08
-1.7207e-15
-4.12564e-08
-7.36301e-08
-1.64403e-15
-4.23528e-08
-6.7998e-08
-1.56467e-15
-4.33004e-08
-6.14656e-08
-1.48067e-15
-4.40856e-08
-5.40051e-08
-1.39667e-15
-4.46944e-08
-4.55896e-08
-1.30869e-15
-4.51123e-08
-3.62031e-08
-1.22234e-15
-4.53234e-08
-2.58367e-08
-1.13181e-15
-4.53127e-08
-1.44925e-08
-1.0332e-15
-2.19798e-09
-9.16073e-16
-3.09491e-12
-7.54011e-09
3.9959e-15
8.31201e-11
-2.40071e-08
-6.53749e-16
-2.93964e-10
-4.83139e-08
5.54091e-15
-3.98128e-09
-5.13185e-08
-1.94343e-15
-8.00371e-09
-5.18329e-08
1.38628e-14
-1.11636e-08
-6.3667e-08
-1.54244e-14
-1.24205e-08
-8.08029e-08
3.43511e-16
-1.10886e-08
-9.59837e-08
-1.31162e-14
-5.93735e-09
-1.00018e-07
-2.77127e-15
1.50333e-09
-8.22242e-08
8.77988e-16
-1.27739e-09
-6.10323e-08
4.42057e-15
-3.61501e-09
-6.64103e-08
-2.59884e-15
-5.54817e-09
-6.94661e-08
-5.07152e-15
-7.30717e-09
-7.11679e-08
-5.13988e-15
-8.94703e-09
-7.22553e-08
-3.41594e-15
-1.06251e-08
-7.3345e-08
-2.90264e-15
-1.23635e-08
-7.48091e-08
-3.338e-15
-1.41831e-08
-7.66291e-08
-3.54792e-15
-1.60745e-08
-7.87039e-08
-2.74976e-15
-1.80259e-08
-8.08768e-08
-2.47862e-15
-2.00189e-08
-8.30004e-08
-2.28994e-15
-2.20349e-08
-8.49475e-08
-2.2486e-15
-2.40549e-08
-8.65935e-08
-2.26718e-15
-2.60613e-08
-8.78591e-08
-2.18687e-15
-2.80378e-08
-8.86595e-08
-2.11285e-15
-2.99697e-08
-8.89386e-08
-2.02896e-15
-3.18436e-08
-8.8643e-08
-1.96085e-15
-3.36471e-08
-8.77179e-08
-1.88942e-15
-3.53685e-08
-8.61365e-08
-1.82609e-15
-3.69966e-08
-8.38422e-08
-1.68112e-15
-3.852e-08
-8.08056e-08
-1.8548e-15
-3.99277e-08
-7.69879e-08
-1.70396e-15
-4.12082e-08