/*--------------------------------*- C++ -*----------------------------------*\
| =========                 |                                                 |
| \\      /  F ield         | OpenFOAM: The Open Source CFD Toolbox           |
|  \\    /   O peration     | Version:  v2012                                 |
|   \\  /    A nd           | Website:  www.openfoam.com                      |
|    \\/     M anipulation  |                                                 |
\*---------------------------------------------------------------------------*/
FoamFile
{
    version     2.0;
    format      ascii;
    class       volVectorField;
    location    "0.3";
    object      U;
}
// * * * * * * * * * * * * * * * * * * * * * * * * * * * * * * * * * * * * * //

dimensions      [0 1 -1 0 0 0 0];


internalField   nonuniform List<vector> 
3332
(
(-0.797631 -7.10748 0.00696134)
(-0.835119 -6.54603 0.0072886)
(-0.866261 -6.02138 0.00756046)
(-0.891561 -5.52681 0.00778134)
(-0.911491 -5.05835 0.00795534)
(-0.926478 -4.61361 0.00808619)
(-0.936917 -4.19106 0.00817735)
(-0.943162 -3.78956 0.00823191)
(-0.94553 -3.40819 0.00825262)
(-0.944297 -3.0461 0.00824191)
(-0.939703 -2.7025 0.00820187)
(-0.93195 -2.37664 0.00813424)
(-0.921214 -2.06783 0.00804056)
(-0.90764 -1.77542 0.00792213)
(-0.891352 -1.49884 0.00778001)
(-0.872459 -1.2376 0.00761515)
(-0.851052 -0.991283 0.00742835)
(-0.827217 -0.759554 0.00722035)
(-0.80103 -0.542154 0.00699183)
(-0.77257 -0.338904 0.00674349)
(-0.808952 -8.27799 0.00706011)
(-0.852928 -7.61209 0.00744399)
(-0.889775 -7.01217 0.00776565)
(-0.920176 -6.45973 0.00803104)
(-0.944717 -5.94342 0.00824529)
(-0.9639 -5.45656 0.00841278)
(-0.978184 -4.99521 0.0085375)
(-0.987977 -4.55703 0.00862302)
(-0.993652 -4.14051 0.00867259)
(-0.995534 -3.74456 0.00868907)
(-0.993912 -3.3683 0.00867495)
(-0.989031 -3.01092 0.00863239)
(-0.981101 -2.67168 0.00856323)
(-0.970296 -2.34987 0.00846896)
(-0.956761 -2.04481 0.00835085)
(-0.940617 -1.75589 0.00820998)
(-0.921962 -1.48257 0.0080472)
(-0.900881 -1.22437 0.00786325)
(-0.877446 -0.980898 0.00765874)
(-0.851722 -0.751823 0.00743426)
(-0.823769 -0.536898 0.00719032)
(-0.793651 -0.335953 0.00692751)
(0.147857 -47.3263 -0.00129037)
(-0.149203 -45.0154 0.00130229)
(0.703971 -46.9244 -0.00614316)
(0.712455 -56.8077 -0.00621866)
(0.853086 -51.5584 -0.00744667)
(-0.0592332 -42.3973 0.000516108)
(0.324247 -32.3586 -0.00283082)
(0.172205 -22.4155 -0.00158524)
(-0.0302138 -21.4689 0.000246438)
(-0.197388 -19.9535 0.00171522)
(-0.589621 -13.8573 0.00514543)
(-0.678954 -12.2078 0.00592524)
(-0.753614 -10.8726 0.00657697)
(-0.816028 -9.79586 0.0071218)
(-0.868275 -8.91139 0.00757788)
(-0.911929 -8.16273 0.00795896)
(-0.9481 -7.50776 0.00827472)
(-0.977674 -6.91782 0.0085329)
(-1.00131 -6.37453 0.00873921)
(-1.01957 -5.86664 0.00889868)
(-1.03295 -5.3875 0.00901549)
(-1.04188 -4.93323 0.00909351)
(-1.04676 -4.50154 0.00913609)
(-1.04792 -4.09097 0.00914627)
(-1.04567 -3.70048 0.00912667)
(-1.04026 -3.32925 0.00907955)
(-1.03193 -2.97651 0.00900682)
(-1.02083 -2.64155 0.00891006)
(-1.00713 -2.32371 0.00879051)
(-0.990943 -2.02235 0.00864923)
(-0.972359 -1.73687 0.00848706)
(-0.951455 -1.46677 0.00830465)
(-0.928295 -1.21157 0.00810254)
(-0.902929 -0.97091 0.00788119)
(-0.875405 -0.744461 0.00764099)
(-0.845768 -0.531991 0.00738235)
(-0.814065 -0.333334 0.00710571)
(0.140803 -47.4738 -0.00122881)
(-0.139728 -45.4926 0.0012196)
(0.642226 -48.0292 -0.00560437)
(0.629007 -57.2597 -0.00549036)
(0.66569 -51.1497 -0.00581126)
(-0.284108 -41.9219 0.00247864)
(0.0295905 -32.614 -0.000258835)
(0.0577866 -22.2253 -0.000616177)
(-0.164528 -21.1635 0.00141385)
(-0.345951 -19.6758 0.00300973)
(-0.503922 -17.6968 0.00439505)
(-0.629193 -15.5977 0.00549056)
(-0.727929 -13.6593 0.00635265)
(-0.808197 -12.0316 0.00705335)
(-0.873423 -10.715 0.00762274)
(-0.927087 -9.65441 0.0080912)
(-0.971067 -8.78399 0.00847513)
(-1.0071 -8.04782 0.00878969)
(-1.03617 -7.40406 0.0090435)
(-1.05917 -6.8243 0.00924427)
(-1.07669 -6.29029 0.00939721)
(-1.08928 -5.79087 0.0095072)
(-1.09741 -5.31946 0.00957819)
(-1.1015 -4.87225 0.00961387)
(-1.1019 -4.447 0.00961743)
(-1.09895 -4.04233 0.0095917)
(-1.09292 -3.65723 0.00953913)
(-1.08405 -3.29096 0.00946176)
(-1.07253 -2.94278 0.00936128)
(-1.05853 -2.61205 0.00923908)
(-1.04215 -2.29812 0.00909619)
(-1.0235 -2.00039 0.00893343)
(-1.00265 -1.71832 0.00875148)
(-0.979652 -1.45138 0.00855078)
(-0.954549 -1.19916 0.00833172)
(-0.927376 -0.961283 0.00809458)
(-0.898162 -0.737439 0.00783963)
(-0.866937 -0.527406 0.00756714)
(-0.833737 -0.331025 0.00727742)
(0.121913 -47.6024 -0.00106395)
(-0.113217 -45.943 0.000988219)
(0.550848 -48.9854 -0.00480694)
(0.616462 -57.5702 -0.00538101)
(0.284216 -50.4116 -0.00248217)
(-0.492502 -41.3684 0.00429755)
(-0.389255 -32.8054 0.00339735)
(-0.055172 -22.2154 0.000349386)
(-0.278921 -20.8085 0.00240672)
(-0.475526 -19.3634 0.00413832)
(-0.635231 -17.4216 0.00554041)
(-0.758674 -15.3634 0.00662063)
(-0.849699 -13.4556 0.00741552)
(-0.922314 -11.8525 0.00804941)
(-0.979281 -10.5558 0.00854674)
(-1.02548 -9.51222 0.00895003)
(-1.06238 -8.65633 0.00927214)
(-1.09195 -7.93299 0.00953034)
(-1.11501 -7.30069 0.00973163)
(-1.13244 -6.7313 0.00988379)
(-1.14476 -6.20669 0.00999142)
(-1.15253 -5.71582 0.0100592)
(-1.15616 -5.25217 0.010091)
(-1.15606 -4.81203 0.0100902)
(-1.15259 -4.39321 0.0100599)
(-1.14605 -3.99439 0.0100029)
(-1.13671 -3.61465 0.00992139)
(-1.12478 -3.25328 0.00981732)
(-1.11045 -2.90962 0.00969224)
(-1.09384 -2.58305 0.00954734)
(-1.07507 -2.273 0.0093835)
(-1.0542 -1.97887 0.00920138)
(-1.03129 -1.70015 0.00900149)
(-1.00639 -1.43637 0.00878415)
(-0.979506 -1.18709 0.00854956)
(-0.950669 -0.951974 0.00829791)
(-0.919893 -0.73072 0.00802933)
(-0.887195 -0.523111 0.00774397)
(-0.852598 -0.328995 0.00744205)
(-0.816136 -0.148309 0.00712396)
(0.0984456 -47.7115 -0.000859145)
(-0.0853422 -46.3496 0.000744929)
(0.46163 -49.8459 -0.00402832)
(0.593506 -57.565 -0.00518094)
(-0.190708 -49.3322 0.00166254)
(-0.649135 -40.7823 0.00566485)
(-0.812729 -32.9143 0.00709357)
(-0.148194 -22.4642 0.00116462)
(-0.367476 -20.4199 0.00317101)
(-0.579737 -19.0194 0.00504528)
(-0.741906 -17.1265 0.00647057)
(-0.865974 -15.1185 0.00755706)
(-0.950982 -13.2466 0.00829955)
(-1.01792 -11.6705 0.00888395)
(-1.0683 -10.395 0.00932377)
(-1.10872 -9.36893 0.00967663)
(-1.14006 -8.52799 0.00995019)
(-1.16462 -7.81778 0.0101646)
(-1.18298 -7.19718 0.0103249)
(-1.19605 -6.63835 0.0104391)
(-1.2043 -6.12329 0.0105111)
(-1.20823 -5.64108 0.0105455)
(-1.20826 -5.18528 0.0105458)
(-1.20479 -4.75225 0.0105155)
(-1.19815 -4.33988 0.0104576)
(-1.18865 -3.94691 0.0103747)
(-1.17655 -3.57252 0.0102691)
(-1.16205 -3.21603 0.0101426)
(-1.14531 -2.87686 0.00999657)
(-1.12647 -2.55444 0.0098322)
(-1.10562 -2.24823 0.00965023)
(-1.08282 -1.95768 0.00945122)
(-1.05811 -1.6823 0.00923556)
(-1.03151 -1.42164 0.00900343)
(-1.00304 -1.1753 0.00875498)
(-0.972704 -0.942931 0.00849025)
(-0.940511 -0.724258 0.0082093)
(-0.906467 -0.519067 0.0079122)
(-0.870587 -0.327214 0.00759907)
(-0.832896 -0.148636 0.00727017)
(0.079145 -47.8008 -0.000690701)
(-0.0707141 -46.7031 0.000617241)
(0.397617 -50.6147 -0.00346969)
(0.498117 -57.1394 -0.00434873)
(-0.600181 -48.069 0.00523627)
(-0.709459 -40.2009 0.00619158)
(-1.11737 -32.9638 0.00975225)
(-0.190691 -22.934 0.00156318)
(-0.425772 -20.0035 0.00366488)
(-0.654757 -18.6469 0.00569694)
(-0.821223 -16.8132 0.00716172)
(-0.948466 -14.8634 0.00827689)
(-1.02976 -13.0324 0.00898712)
(-1.09317 -11.4853 0.00954069)
(-1.13889 -10.2321 0.0099399)
(-1.17536 -9.22411 0.0102583)
(-1.2028 -8.39848 0.0104979)
(-1.22391 -7.70166 0.0106821)
(-1.239 -7.09301 0.0108139)
(-1.24904 -6.54493 0.0109016)
(-1.2544 -6.03961 0.0109485)
(-1.2556 -5.5662 0.010959)
(-1.25302 -5.11837 0.0109365)
(-1.24705 -4.69253 0.0108844)
(-1.23804 -4.28667 0.0108058)
(-1.22628 -3.89961 0.0107031)
(-1.21202 -3.53058 0.0105788)
(-1.19549 -3.179 0.0104345)
(-1.17683 -2.84433 0.0102717)
(-1.15618 -2.52606 0.0100915)
(-1.13361 -2.22368 0.00989454)
(-1.10919 -1.93671 0.00968138)
(-1.08294 -1.66467 0.00945233)
(-1.05489 -1.40713 0.00920752)
(-1.02504 -1.16371 0.00894701)
(-0.993387 -0.934095 0.00867079)
(-0.959936 -0.718002 0.00837887)
(-0.924686 -0.515232 0.00807124)
(-0.887645 -0.325642 0.00774797)
(-0.848833 -0.149176 0.00740926)
(-0.808279 0.0141958 0.00705545)
(0.0688973 -47.8697 -0.00060127)
(-0.0737207 -47.0006 0.000643452)
(0.358498 -51.2571 -0.00312835)
(0.3371 -56.3386 -0.00294361)
(-0.811076 -46.8706 0.00707716)
(-0.647553 -39.6543 0.00565135)
(-1.2354 -32.9751 0.0107823)
(-0.14458 -23.5284 0.00118615)
(-0.449644 -19.5462 0.00384864)
(-0.699744 -18.2471 0.00608556)
(-0.872971 -16.4823 0.00761192)
(-1.00576 -14.5979 0.00877676)
(-1.08588 -12.8129 0.00947701)
(-1.1477 -11.2968 0.0100167)
(-1.1907 -10.0668 0.0103921)
(-1.22494 -9.07734 0.010691)
(-1.25012 -8.26735 0.0109109)
(-1.26929 -7.58414 0.0110782)
(-1.28253 -6.98765 0.0111939)
(-1.29087 -6.45054 0.0112667)
(-1.29457 -5.95514 0.011299)
(-1.29415 -5.49071 0.0112954)
(-1.28998 -5.051 0.011259)
(-1.28244 -4.63249 0.0111933)
(-1.27187 -4.23325 0.0111011)
(-1.25859 -3.85218 0.0109852)
(-1.24284 -3.48858 0.0108478)
(-1.22485 -3.14195 0.0106908)
(-1.20478 -2.81181 0.0105156)
(-1.18275 -2.49772 0.0103234)
(-1.15886 -2.19921 0.0101149)
(-1.13315 -1.91583 0.00989057)
(-1.10567 -1.64713 0.00965071)
(-1.07642 -1.39273 0.00939546)
(-1.04541 -1.15226 0.00912485)
(-1.01264 -0.925401 0.00883886)
(-0.978103 -0.711899 0.00853744)
(-0.941795 -0.511557 0.00822058)
(-0.903724 -0.32424 0.00788832)
(-0.863906 -0.149894 0.00754083)
(-0.822368 0.0115088 0.00717836)
(0.0665596 -47.9181 -0.000580877)
(-0.0872986 -47.2436 0.000761932)
(0.326125 -51.7466 -0.00284591)
(0.182156 -55.3816 -0.00159129)
(-0.781235 -45.9281 0.00681713)
(-0.497666 -39.1649 0.00434308)
(-1.17409 -32.9883 0.0102471)
(0.000137484 -24.1501 -5.42719e-05)
(-0.435093 -19.0019 0.00368377)
(-0.717092 -17.8177 0.0062316)
(-0.899223 -16.1349 0.00783921)
(-1.03928 -14.3223 0.00906894)
(-1.12067 -12.5883 0.00978056)
(-1.18233 -11.1048 0.010319)
(-1.22434 -9.89909 0.0106858)
(-1.25778 -8.9284 0.0109777)
(-1.28219 -8.13426 0.0111908)
(-1.30077 -7.46481 0.011353)
(-1.31351 -6.88066 0.0114642)
(-1.32137 -6.35469 0.0115329)
(-1.32459 -5.86942 0.011561)
(-1.32365 -5.41416 0.0115529)
(-1.31889 -4.98274 0.0115114)
(-1.3107 -4.57172 0.01144)
(-1.29942 -4.17924 0.0113416)
(-1.28537 -3.80428 0.0112189)
(-1.2688 -3.44622 0.0110744)
(-1.24995 -3.10463 0.0109099)
(-1.22899 -2.7791 0.010727)
(-1.20606 -2.46924 0.0105268)
(-1.18124 -2.17465 0.0103103)
(-1.15461 -1.8949 0.0100778)
(-1.12619 -1.6296 0.00982987)
(-1.09602 -1.37836 0.00956653)
(-1.06409 -1.14086 0.00928787)
(-1.0304 -0.916779 0.00899388)
(-0.994954 -0.705888 0.00868453)
(-0.957747 -0.507994 0.00835982)
(-0.918782 -0.322966 0.00801976)
(-0.878079 -0.150755 0.00766454)
(-0.835664 0.00866691 0.0072944)
(0.066968 -47.9473 -0.000584446)
(-0.100371 -47.433 0.000875996)
(0.287573 -52.1068 -0.00250951)
(0.103451 -54.5297 -0.000904168)
(-0.593191 -45.2836 0.00517622)
(-0.379392 -38.7268 0.00331067)
(-1.0271 -33.0311 0.00896433)
(0.0979694 -24.7561 -0.000885725)
(-0.385628 -18.3326 0.00319705)
(-0.71204 -17.3533 0.00618146)
(-0.904244 -15.7725 0.00788073)
(-1.0517 -14.037 0.00917689)
(-1.13642 -12.3592 0.00991807)
(-1.19867 -10.9099 0.0104615)
(-1.2411 -9.7291 0.010832)
(-1.27479 -8.77729 0.0111261)
(-1.29968 -7.99907 0.0113434)
(-1.31884 -7.34342 0.0115107)
(-1.33223 -6.77171 0.0116276)
(-1.34075 -6.25703 0.011702)
(-1.34457 -5.78204 0.0117354)
(-1.34413 -5.33614 0.0117316)
(-1.33975 -4.9132 0.0116935)
(-1.3318 -4.50986 0.0116241)
(-1.32062 -4.1243 0.0115266)
(-1.30653 -3.75561 0.0114037)
(-1.28981 -3.40322 0.0112578)
(-1.2707 -3.06679 0.011091)
(-1.24938 -2.74598 0.0109049)
(-1.226 -2.44044 0.010701)
(-1.20068 -2.14984 0.0104799)
(-1.17348 -1.87379 0.0102425)
(-1.14445 -1.61193 0.00998922)
(-1.11362 -1.36391 0.0097202)
(-1.08101 -1.12942 0.0094356)
(-1.04662 -0.908159 0.00913546)
(-1.01045 -0.69991 0.00881979)
(-0.972502 -0.50449 0.00848862)
(-0.932786 -0.321775 0.008142)
(-0.891322 -0.151719 0.00778014)
(-0.848139 0.00570279 0.0074033)
(0.0660929 -47.9608 -0.000576811)
(-0.10729 -47.5733 0.000936355)
(0.245497 -52.4142 -0.00214231)
(0.122728 -53.9196 -0.00107219)
(-0.417519 -44.7704 0.00364294)
(-0.440191 -38.2657 0.00384114)
(-0.941286 -33.0403 0.00821557)
(-0.1077 -25.318 0.000928231)
(-0.325848 -17.6679 0.00260626)
(-0.687748 -16.8543 0.00596448)
(-0.892431 -15.3983 0.00777493)
(-1.0453 -13.7434 0.00912034)
(-1.13554 -12.1266 0.00991025)
(-1.19843 -10.7128 0.0104594)
(-1.24249 -9.55733 0.0108441)
(-1.27715 -8.62426 0.0111467)
(-1.30355 -7.86184 0.0113772)
(-1.32422 -7.21989 0.0115577)
(-1.33929 -6.6606 0.0116892)
(-1.34944 -6.15726 0.0117779)
(-1.35483 -5.69268 0.011825)
(-1.35583 -5.2563 0.0118337)
(-1.35271 -4.84203 0.0118066)
(-1.34584 -4.44654 0.0117466)
(-1.33553 -4.06811 0.0116567)
(-1.32212 -3.70586 0.0115397)
(-1.30588 -3.35932 0.011398)
(-1.28708 -3.02819 0.011234)
(-1.26592 -2.71223 0.0110493)
(-1.24256 -2.41114 0.0108455)
(-1.21714 -2.12463 0.0106236)
(-1.18973 -1.85237 0.0103844)
(-1.1604 -1.59403 0.0101285)
(-1.1292 -1.34929 0.00985618)
(-1.09615 -1.11786 0.00956775)
(-1.06127 -0.899466 0.00926331)
(-1.02456 -0.693901 0.00894295)
(-0.986036 -0.500992 0.00860675)
(-0.945712 -0.320622 0.00825483)
(-0.903614 -0.152748 0.00788743)
(-0.859774 0.00264984 0.00750486)
(0.063887 -47.9625 -0.000557561)
(-0.110696 -47.6727 0.000966063)
(0.212741 -52.7572 -0.00185641)
(0.205065 -53.4828 -0.00179073)
(-0.410731 -44.0837 0.00358329)
(-0.69867 -37.6647 0.00609695)
(-1.02083 -32.8946 0.00891014)
(-0.625264 -25.7788 0.0054549)
(-0.287857 -17.3353 0.00222617)
(-0.642942 -16.3373 0.00556864)
(-0.865226 -15.0151 0.00753446)
(-1.02076 -13.4433 0.00890522)
(-1.11948 -11.8915 0.00976999)
(-1.18298 -10.5145 0.0103246)
(-1.22989 -9.38434 0.0107341)
(-1.26608 -8.46971 0.01105)
(-1.2949 -7.72274 0.0113017)
(-1.31786 -7.09422 0.0115022)
(-1.33546 -6.54723 0.0116558)
(-1.3481 -6.0552 0.0117661)
(-1.35591 -5.6011 0.0118344)
(-1.35916 -5.17435 0.0118628)
(-1.35811 -4.76892 0.0118537)
(-1.35306 -4.38149 0.0118097)
(-1.34434 -4.01038 0.0117335)
(-1.33225 -3.65477 0.0116281)
(-1.31711 -3.31425 0.011496)
(-1.29917 -2.98861 0.0113395)
(-1.27866 -2.67765 0.0111605)
(-1.25577 -2.38115 0.0109607)
(-1.23063 -2.09886 0.0107414)
(-1.20336 -1.83049 0.0105034)
(-1.17405 -1.57577 0.0102476)
(-1.14275 -1.33439 0.00997438)
(-1.1095 -1.10609 0.00968422)
(-1.07433 -0.890629 0.00937732)
(-1.03727 -0.6878 0.00905387)
(-0.998331 -0.497447 0.00871406)
(-0.957543 -0.31946 0.0083581)
(-0.914937 -0.153803 0.00798627)
(-0.870553 -0.000458157 0.00759895)
(0.0642035 -47.9556 -0.000560323)
(-0.119592 -47.7419 0.00104371)
(0.205913 -53.1918 -0.00179676)
(0.281646 -52.9941 -0.00245924)
(-0.594081 -43.0217 0.00518304)
(-1.00716 -36.8764 0.00878942)
(-1.21959 -32.5647 0.0106451)
(-1.14602 -26.1496 0.010002)
(-0.253254 -17.5315 0.0019774)
(-0.576248 -15.825 0.00497524)
(-0.820866 -14.6242 0.00714376)
(-0.978506 -13.1377 0.00853517)
(-1.08875 -11.6538 0.0095016)
(-1.15348 -10.3157 0.0100671)
(-1.20446 -9.21054 0.0105122)
(-1.2428 -8.31401 0.0108468)
(-1.27485 -7.58196 0.0111267)
(-1.30078 -6.96653 0.0113531)
(-1.32166 -6.43157 0.0115353)
(-1.33749 -5.95074 0.0116735)
(-1.34845 -5.50711 0.0117692)
(-1.35468 -5.09009 0.0118237)
(-1.35639 -4.69364 0.0118386)
(-1.35384 -4.31444 0.0118164)
(-1.34733 -3.95085 0.0117596)
(-1.33717 -3.60209 0.0116711)
(-1.32367 -3.2678 0.0115533)
(-1.3071 -2.94784 0.0114087)
(-1.2877 -2.64206 0.0112394)
(-1.26568 -2.3503 0.0110473)
(-1.24121 -2.07237 0.0108337)
(-1.21442 -1.80804 0.0105999)
(-1.18541 -1.55703 0.0103467)
(-1.15426 -1.31912 0.0100749)
(-1.12105 -1.09404 0.00978504)
(-1.0858 -0.881576 0.00947747)
(-1.04857 -0.681547 0.00915252)
(-1.00938 -0.493803 0.00881051)
(-0.968271 -0.318246 0.00845173)
(-0.925283 -0.154846 0.00807658)
(-0.880468 -0.00358756 0.00768549)
(0.072314 -47.9424 -0.000631106)
(-0.143132 -47.7924 0.00124918)
(0.237362 -53.7216 -0.00207119)
(0.297816 -52.2495 -0.00260062)
(-0.836735 -41.6378 0.00730061)
(-1.2056 -35.9859 0.0105216)
(-1.36871 -32.1429 0.0119466)
(-1.42424 -26.5376 0.0124316)
(-0.141637 -18.1677 0.00109402)
(-0.484625 -15.3106 0.00414769)
(-0.757752 -14.224 0.00658815)
(-0.920013 -12.8264 0.00802288)
(-1.04362 -11.4128 0.0091075)
(-1.11137 -10.1164 0.00969954)
(-1.16731 -9.03605 0.0101879)
(-1.2086 -8.15742 0.0105483)
(-1.24455 -7.43967 0.0108622)
(-1.27408 -6.8369 0.01112)
(-1.29885 -6.31363 0.0113362)
(-1.31848 -5.84384 0.0115076)
(-1.33321 -5.41061 0.0116362)
(-1.34303 -5.00336 0.0117219)
(-1.34809 -4.616 0.0117662)
(-1.34862 -4.2452 0.0117709)
(-1.34489 -3.88933 0.0117383)
(-1.33719 -3.54762 0.0116712)
(-1.32582 -3.21978 0.011572)
(-1.31107 -2.9057 0.0114433)
(-1.2932 -2.6053 0.0112874)
(-1.27244 -2.31846 0.0111062)
(-1.24897 -2.04505 0.0109014)
(-1.22296 -1.78488 0.0106744)
(-1.19453 -1.53773 0.0104263)
(-1.1638 -1.30338 0.0101581)
(-1.13083 -1.08162 0.00987044)
(-1.09571 -0.872242 0.0095639)
(-1.05848 -0.675082 0.00923899)
(-1.01919 -0.49001 0.00889613)
(-0.977896 -0.316936 0.00853574)
(-0.93465 -0.155837 0.00815834)
(-0.889513 -0.00670535 0.00776444)
(0.0916835 -47.9245 -0.000800156)
(-0.185302 -47.8402 0.00161724)
(0.307282 -54.3157 -0.00268141)
(0.246018 -51.2116 -0.00214877)
(-0.997146 -40.1526 0.00870072)
(-1.2625 -35.1319 0.0110185)
(-1.39311 -31.756 0.0121595)
(-1.45793 -27.0248 0.0127266)
(0.0438026 -19.0883 -0.000454835)
(-0.362496 -14.7313 0.00302629)
(-0.67813 -13.8083 0.00588663)
(-0.8482 -12.5088 0.00739366)
(-0.984968 -11.1675 0.0085952)
(-1.05842 -9.91664 0.0092374)
(-1.1196 -8.86096 0.00977139)
(-1.16483 -8.00013 0.0101663)
(-1.20514 -7.29601 0.0105182)
(-1.23888 -6.70546 0.0108127)
(-1.26804 -6.19348 0.0110673)
(-1.29202 -5.73447 0.0112766)
(-1.31102 -5.31153 0.0114425)
(-1.32493 -4.91405 0.0115639)
(-1.33386 -4.53586 0.0116419)
(-1.33796 -4.17362 0.0116778)
(-1.33747 -3.82564 0.0116736)
(-1.33268 -3.4912 0.0116318)
(-1.32387 -3.17003 0.0115549)
(-1.31134 -2.86204 0.0114456)
(-1.29536 -2.56722 0.0113062)
(-1.27619 -2.28549 0.0111389)
(-1.25403 -2.01678 0.0109456)
(-1.22909 -1.76093 0.0107279)
(-1.2015 -1.51777 0.0104871)
(-1.1714 -1.28711 0.0102244)
(-1.13889 -1.06876 0.00994077)
(-1.10407 -0.862563 0.00963688)
(-1.06701 -0.668353 0.00931344)
(-1.02777 -0.48602 0.00897102)
(-0.986426 -0.315488 0.0086102)
(-0.943041 -0.156742 0.00823158)
(-0.897689 -0.00977956 0.00783581)
(0.121384 -47.9029 -0.00105937)
(-0.241632 -47.9014 0.00210888)
(0.406034 -54.9387 -0.00354327)
(0.143792 -49.9624 -0.00125672)
(-1.0729 -38.726 0.00936212)
(-1.30526 -34.3454 0.0113917)
(-1.44929 -31.4619 0.0126498)
(-1.42537 -27.5729 0.0124431)
(-0.0168521 -20.17 0.000123227)
(-0.221367 -14.0892 0.00170371)
(-0.586079 -13.3691 0.00507665)
(-0.767615 -12.1861 0.00668714)
(-0.914163 -10.9174 0.00797661)
(-0.99663 -9.71626 0.00869799)
(-1.06254 -8.68542 0.0092734)
(-1.11285 -7.84229 0.00971259)
(-1.15778 -7.15115 0.0101047)
(-1.19631 -6.57231 0.0104411)
(-1.23027 -6.07116 0.0107375)
(-1.25903 -5.62266 0.0109886)
(-1.28274 -5.20985 0.0111956)
(-1.30116 -4.8221 0.0113564)
(-1.31436 -4.45315 0.0114717)
(-1.32244 -4.09958 0.0115422)
(-1.32558 -3.75968 0.0115697)
(-1.32406 -3.43272 0.0115565)
(-1.31816 -3.11841 0.0115051)
(-1.30819 -2.81674 0.0114181)
(-1.29442 -2.52771 0.011298)
(-1.27713 -2.25129 0.0111471)
(-1.25656 -1.98745 0.0109676)
(-1.23292 -1.73609 0.0107613)
(-1.2064 -1.49706 0.0105299)
(-1.17714 -1.27022 0.0102745)
(-1.14528 -1.05541 0.00999652)
(-1.11093 -0.852483 0.00969677)
(-1.07419 -0.661308 0.00937614)
(-1.03515 -0.481789 0.00903539)
(-0.993876 -0.313863 0.00867522)
(-0.950466 -0.157525 0.00829638)
(-0.905002 -0.0127797 0.00789964)
(0.157274 -47.8798 -0.0013726)
(-0.304896 -47.9936 0.00266107)
(0.515344 -55.5507 -0.0044973)
(-0.0174674 -48.5276 0.000150544)
(-1.19096 -37.2952 0.0103926)
(-1.52008 -33.4773 0.0132664)
(-1.73714 -31.1717 0.0151618)
(-1.55739 -27.9947 0.0135956)
(-0.624673 -21.2529 0.00545066)
(-0.111553 -13.7416 0.000659441)
(-0.47892 -12.9161 0.00413606)
(-0.680616 -11.8607 0.00592398)
(-0.831181 -10.6632 0.00725143)
(-0.927165 -9.51518 0.00809157)
(-0.997068 -8.50976 0.00870192)
(-1.05376 -7.684 0.00919678)
(-1.10351 -7.00523 0.00963103)
(-1.14742 -6.43753 0.0100144)
(-1.18654 -5.94675 0.0103558)
(-1.2205 -5.50843 0.0106522)
(-1.24924 -5.10557 0.0109032)
(-1.27252 -4.72749 0.0111064)
(-1.29032 -4.36781 0.0112618)
(-1.30268 -4.02303 0.0113697)
(-1.30976 -3.69138 0.0114316)
(-1.31181 -3.37207 0.0114496)
(-1.30911 -3.06486 0.011426)
(-1.30195 -2.76972 0.0113636)
(-1.29065 -2.48668 0.011265)
(-1.27549 -2.21578 0.0111328)
(-1.25673 -1.957 0.0109691)
(-1.23461 -1.71029 0.0107761)
(-1.20934 -1.47555 0.0105556)
(-1.18111 -1.25266 0.0103092)
(-1.15007 -1.0415 0.0100383)
(-1.11635 -0.841953 0.00974403)
(-1.08007 -0.653904 0.00942745)
(-1.04134 -0.477278 0.00908949)
(-1.00027 -0.312025 0.00873101)
(-0.95694 -0.158154 0.00835289)
(-0.911463 -0.015677 0.00795603)
(0.192778 -47.8571 -0.00168247)
(-0.362821 -48.1223 0.00316657)
(0.61472 -56.0685 -0.00536467)
(-0.273063 -46.7864 0.00238102)
(-1.4501 -35.6403 0.0126542)
(-1.95998 -32.3524 0.0171054)
(-2.21182 -30.7381 0.0193046)
(-1.91427 -28.1803 0.0167106)
(-1.40717 -22.2363 0.0122831)
(-0.0334114 -14.1261 3.579e-05)
(-0.351841 -12.477 0.00301385)
(-0.584201 -11.5325 0.00507776)
(-0.735619 -10.4053 0.00641593)
(-0.849764 -9.31225 0.00741583)
(-0.923834 -8.33408 0.0080627)
(-0.988305 -7.52507 0.00862544)
(-1.04328 -6.85828 0.00910531)
(-1.09319 -6.3011 0.00954099)
(-1.13782 -5.82026 0.00993058)
(-1.17734 -5.3918 0.0102755)
(-1.21142 -4.9987 0.010573)
(-1.23983 -4.63022 0.0108211)
(-1.26247 -4.27984 0.0110187)
(-1.27935 -3.94395 0.011166)
(-1.29059 -3.62068 0.0112642)
(-1.29642 -3.30923 0.0113152)
(-1.29712 -3.00931 0.0113214)
(-1.29299 -2.72091 0.0112854)
(-1.28435 -2.44408 0.01121)
(-1.2715 -2.17889 0.0110979)
(-1.25473 -1.92536 0.0109517)
(-1.23431 -1.68347 0.0107734)
(-1.21047 -1.45317 0.0105654)
(-1.18342 -1.23438 0.0103293)
(-1.15333 -1.02699 0.0100668)
(-1.12038 -0.83093 0.00977921)
(-1.08469 -0.646101 0.00946779)
(-1.0464 -0.47245 0.00913364)
(-1.00563 -0.309943 0.00877779)
(-0.962484 -0.1586 0.00840127)
(-0.917085 -0.0184449 0.0080051)
(0.220173 -47.8353 -0.00192157)
(-0.403049 -48.2834 0.00351765)
(0.67342 -56.3487 -0.00587713)
(-0.647192 -44.5798 0.00564594)
(-1.81812 -33.6302 0.015866)
(-2.48688 -30.9822 0.021704)
(-2.64802 -30.172 0.0231118)
(-2.27242 -28.2945 0.0198367)
(-1.83634 -23.2863 0.0160304)
(0.123718 -15.2458 -0.0012024)
(-0.19757 -12.0379 0.00162494)
(-0.474802 -11.1965 0.00411607)
(-0.629589 -10.1427 0.00548824)
(-0.763531 -9.10517 0.0066629)
(-0.844002 -8.15786 0.00736588)
(-0.917094 -7.365 0.00800384)
(-0.978098 -6.71013 0.00853637)
(-1.03454 -6.16289 0.00902906)
(-1.08512 -5.69165 0.00947049)
(-1.13051 -5.27274 0.00986675)
(-1.17017 -4.88924 0.010213)
(-1.20392 -4.53029 0.0105076)
(-1.23157 -4.18924 0.0107489)
(-1.25311 -3.86233 0.010937)
(-1.26865 -3.54761 0.0110727)
(-1.2784 -3.24419 0.0111579)
(-1.28264 -2.95176 0.0111949)
(-1.28167 -2.67031 0.0111865)
(-1.27582 -2.39989 0.0111356)
(-1.26543 -2.1406 0.0110449)
(-1.25079 -1.8925 0.0109172)
(-1.2322 -1.65561 0.010755)
(-1.20992 -1.4299 0.0105606)
(-1.18417 -1.21533 0.0103359)
(-1.15517 -1.01185 0.0100828)
(-1.1231 -0.81938 0.00980292)
(-1.08811 -0.637867 0.00949763)
(-1.05037 -0.467275 0.00916821)
(-1.00999 -0.307587 0.00881586)
(-0.967121 -0.158837 0.00844174)
(-0.921886 -0.0210592 0.008047)
(0.229798 -47.8145 -0.00200557)
(-0.408078 -48.4623 0.00356151)
(0.659869 -56.2069 -0.00575917)
(-1.11288 -41.8755 0.00971006)
(-2.18759 -31.3483 0.0190908)
(-2.94306 -29.5361 0.0256856)
(-2.92492 -29.6471 0.0255292)
(-2.46276 -28.5806 0.0214985)
(-1.84984 -24.5484 0.0161504)
(0.279362 -16.8203 -0.00247911)
(-0.00480156 -11.5195 -0.000150651)
(-0.35189 -10.8398 0.00303383)
(-0.517259 -9.87461 0.00450437)
(-0.667809 -8.89185 0.00582697)
(-0.759215 -7.98019 0.00662577)
(-0.840756 -7.20319 0.0073375)
(-0.909077 -6.56046 0.00793389)
(-0.972424 -6.0227 0.00848681)
(-1.02943 -5.56081 0.00898436)
(-1.08096 -5.15122 0.00943423)
(-1.12642 -4.7772 0.00983099)
(-1.16563 -4.42774 0.0101733)
(-1.19838 -4.09606 0.0104592)
(-1.22465 -3.77824 0.0106886)
(-1.24455 -3.4722 0.0108623)
(-1.25828 -3.17698 0.0109822)
(-1.26611 -2.89223 0.0110506)
(-1.26837 -2.61791 0.0110704)
(-1.2654 -2.3541 0.0110445)
(-1.25754 -2.1009 0.010976)
(-1.24512 -1.8584 0.0108677)
(-1.22846 -1.62667 0.0107223)
(-1.20783 -1.40571 0.0105423)
(-1.18349 -1.19551 0.0103299)
(-1.15567 -0.996043 0.0100872)
(-1.12458 -0.807276 0.00981585)
(-1.09039 -0.629177 0.00951751)
(-1.05328 -0.461728 0.00919363)
(-1.01339 -0.304933 0.00884553)
(-0.970879 -0.158841 0.00847454)
(-0.925887 -0.0234983 0.00808193)
(0.21439 -47.7956 -0.00187109)
(-0.367966 -48.6312 0.00321139)
(0.554464 -55.4769 -0.00483967)
(-1.603 -38.7842 0.0139875)
(-2.50916 -28.9508 0.0218977)
(-3.32367 -28.1214 0.0290078)
(-3.14233 -29.2588 0.0274275)
(-2.61522 -29.1076 0.0228298)
(-1.71431 -25.9082 0.0149688)
(0.108064 -18.4968 -0.000947714)
(0.21975 -11.0237 -0.00222313)
(-0.211052 -10.4477 0.00179405)
(-0.402371 -9.60054 0.0034967)
(-0.561644 -8.67123 0.00489952)
(-0.670801 -7.79968 0.00585396)
(-0.759949 -7.03917 0.00663218)
(-0.837301 -6.40874 0.00730736)
(-0.907817 -5.88025 0.00792286)
(-0.971795 -5.42757 0.0084813)
(-1.02968 -5.02716 0.00898657)
(-1.08108 -4.66258 0.00943523)
(-1.1258 -4.32263 0.00982563)
(-1.16367 -4.00038 0.0101562)
(-1.19466 -3.69174 0.0104267)
(-1.21889 -3.39453 0.0106383)
(-1.23656 -3.10768 0.0107926)
(-1.24798 -2.83078 0.0108923)
(-1.25347 -2.56377 0.0109403)
(-1.25339 -2.30674 0.0109397)
(-1.2481 -2.05981 0.0108936)
(-1.23795 -1.82309 0.0108051)
(-1.22327 -1.59666 0.010677)
(-1.20436 -1.38059 0.010512)
(-1.1815 -1.17489 0.0103126)
(-1.15494 -0.97956 0.0100808)
(-1.12491 -0.794602 0.00981869)
(-1.09159 -0.62001 0.009528)
(-1.05519 -0.455789 0.00921033)
(-1.01587 -0.301963 0.00886716)
(-0.97379 -0.158594 0.00849994)
(-0.929113 -0.0257433 0.00811008)
(0.172953 -47.7789 -0.00150944)
(-0.284791 -48.7546 0.00248543)
(0.370611 -54.0982 -0.00323555)
(-2.04457 -35.4162 0.0178413)
(-2.79445 -26.476 0.0243879)
(-3.69904 -26.6669 0.032284)
(-3.42464 -28.938 0.0298921)
(-2.84081 -29.8065 0.024799)
(-1.611 -27.2171 0.0140674)
(-0.323764 -20.0623 0.00282963)
(0.457796 -10.9242 -0.00428714)
(-0.0429367 -10.0184 0.000311054)
(-0.282634 -9.31669 0.00244505)
(-0.444317 -8.44261 0.00387394)
(-0.578599 -7.61378 0.00504898)
(-0.675436 -6.8723 0.0058945)
(-0.7637 -6.25418 0.00666488)
(-0.84181 -5.73518 0.00734668)
(-0.913306 -5.29168 0.00797074)
(-0.977702 -4.90049 0.00853284)
(-1.03512 -4.54539 0.00903408)
(-1.08532 -4.21502 0.00947224)
(-1.12821 -3.90229 0.00984664)
(-1.1638 -3.60297 0.0101574)
(-1.19225 -3.31472 0.0104057)
(-1.21377 -3.03638 0.0105937)
(-1.22869 -2.76749 0.0107239)
(-1.23735 -2.50797 0.0107996)
(-1.24012 -2.25788 0.0108238)
(-1.23738 -2.01737 0.0108)
(-1.2295 -1.78657 0.0107313)
(-1.21682 -1.56561 0.0106207)
(-1.19967 -1.35455 0.010471)
(-1.17833 -1.15347 0.0102849)
(-1.15308 -0.962394 0.0100645)
(-1.12416 -0.781348 0.00981218)
(-1.09179 -0.610355 0.00952968)
(-1.05616 -0.449444 0.00921878)
(-1.01747 -0.29866 0.00888111)
(-0.975887 -0.15808 0.00851824)
(-0.931589 -0.0277782 0.00813168)
(0.112546 -47.7642 -0.000982237)
(-0.174065 -48.7987 0.00151904)
(0.135818 -52.1 -0.00118684)
(-2.38154 -31.862 0.0207824)
(-3.03318 -23.865 0.0264718)
(-4.04322 -25.0708 0.035288)
(-3.68174 -28.6538 0.0321366)
(-2.96112 -30.6858 0.0258494)
(-1.40598 -28.5445 0.0122779)
(-0.49818 -21.5203 0.00435266)
(0.817337 -11.3257 -0.00729633)
(0.166302 -9.5296 -0.00155367)
(-0.148552 -9.01137 0.00126561)
(-0.31844 -8.20397 0.0027724)
(-0.480852 -7.41847 0.0041955)
(-0.588793 -6.70129 0.0051382)
(-0.689203 -6.09562 0.00601457)
(-0.77577 -5.58697 0.00677022)
(-0.855152 -5.15283 0.0074631)
(-0.926169 -4.77114 0.008083)
(-0.989554 -4.42567 0.00863627)
(-1.04506 -4.10503 0.00912083)
(-1.09277 -3.80197 0.00953731)
(-1.13276 -3.51209 0.00988636)
(-1.16521 -3.23293 0.0101697)
(-1.1904 -2.96324 0.0103896)
(-1.20865 -2.70251 0.010549)
(-1.22036 -2.4506 0.0106512)
(-1.22589 -2.2076 0.0106996)
(-1.22564 -1.97365 0.0106975)
(-1.21998 -1.74891 0.0106482)
(-1.20929 -1.53353 0.0105549)
(-1.1939 -1.32762 0.0104206)
(-1.1741 -1.13127 0.0102479)
(-1.1502 -0.944549 0.0100393)
(-1.12243 -0.767511 0.00979706)
(-1.09104 -0.600206 0.00952316)
(-1.05624 -0.442685 0.00921949)
(-1.01823 -0.295013 0.00888779)
(-0.977206 -0.157286 0.00852974)
(-0.933342 -0.0295897 0.00814698)
(0.0436258 -47.7493 -0.000380724)
(-0.0547114 -48.7431 0.00047738)
(-0.104374 -49.6025 0.000909095)
(-2.54718 -28.2417 0.0222281)
(-3.12699 -21.1336 0.0272907)
(-4.17941 -23.4099 0.036477)
(-3.62156 -28.5735 0.0316123)
(-2.65404 -31.908 0.02317)
(-0.815459 -30.0909 0.00712395)
(-0.0985158 -23.0047 0.000864444)
(1.53468 -11.9949 -0.0134711)
(0.469007 -8.83959 -0.00427484)
(0.012404 -8.65497 -0.000152951)
(-0.188476 -7.94956 0.00163296)
(-0.375719 -7.20915 0.00327729)
(-0.502632 -6.52361 0.00438604)
(-0.615143 -5.93173 0.00536808)
(-0.711494 -5.43497 0.00620913)
(-0.79873 -5.01076 0.00697058)
(-0.876351 -4.63908 0.00764812)
(-0.94542 -4.30354 0.00825102)
(-1.00593 -3.99286 0.00877922)
(-1.05811 -3.69963 0.00923477)
(-1.10215 -3.41932 0.00961921)
(-1.13831 -3.14937 0.00993484)
(-1.16689 -2.88845 0.0101844)
(-1.18827 -2.63598 0.0103711)
(-1.20283 -2.39181 0.0104983)
(-1.21098 -2.15601 0.0105694)
(-1.21311 -1.92873 0.0105881)
(-1.20961 -1.71017 0.0105577)
(-1.20086 -1.50048 0.0104813)
(-1.1872 -1.29982 0.0103621)
(-1.16894 -1.10831 0.0102029)
(-1.14639 -0.92604 0.0100061)
(-1.1198 -0.753099 0.00977407)
(-1.08943 -0.589563 0.00950904)
(-1.05549 -0.435507 0.00921293)
(-1.01821 -0.291016 0.00888758)
(-0.977783 -0.156202 0.00853477)
(-0.934402 -0.0311676 0.00815622)
(-0.021883 -47.7336 0.000191014)
(0.0538508 -48.5931 -0.000470058)
(-0.303342 -46.8377 0.00264542)
(-2.47811 -24.7865 0.0216258)
(-2.93112 -18.4919 0.0255815)
(-3.88485 -21.9883 0.0339068)