/*--------------------------------*- C++ -*----------------------------------*\
| =========                 |                                                 |
| \\      /  F ield         | OpenFOAM: The Open Source CFD Toolbox           |
|  \\    /   O peration     | Version:  v2012                                 |
|   \\  /    A nd           | Website:  www.openfoam.com                      |
|    \\/     M anipulation  |                                                 |
\*---------------------------------------------------------------------------*/
FoamFile
{
    version     2.0;
    format      ascii;
    class       surfaceScalarField;
    location    "0.65";
    object      alphaPhi0.water;
}
// * * * * * * * * * * * * * * * * * * * * * * * * * * * * * * * * * * * * * //

dimensions      [0 3 -1 0 0 0 0];
oriented        oriented;


internalField   nonuniform List<scalar> 
8048
(
1.77066e-13
-7.52526e-09
-1.30833e-15
7.60408e-11
-2.31246e-08
-1.29308e-14
7.74366e-10
-4.36437e-08
-1.38929e-14
2.17623e-09
-7.47656e-08
-1.81364e-14
1.79459e-09
-1.00739e-07
-4.20415e-15
8.47677e-10
-1.16002e-07
-8.72342e-15
1.10522e-09
-1.03924e-07
4.02961e-15
-6.15301e-08
-2.56184e-14
1.30202e-12
-7.52657e-09
1.10227e-15
1.03156e-10
-2.32265e-08
-2.62045e-15
9.74959e-10
-4.45154e-08
-1.23849e-14
2.10973e-09
-7.59004e-08
-5.11265e-15
1.26288e-09
-9.9892e-08
-2.02078e-14
1.43393e-10
-1.14883e-07
-1.16152e-14
4.46781e-10
-1.04228e-07
-3.14485e-14
-1.89976e-09
-5.91788e-08
-3.04577e-14
-2.92813e-09
-4.62013e-08
-3.44683e-14
-3.52192e-09
-2.65342e-08
-2.38791e-14
-2.24799e-09
-1.55729e-08
-1.29282e-14
-8.52781e-10
-5.61151e-09
-3.07492e-15
-1.90415e-10
-1.65947e-09
-6.24665e-16
-2.41149e-11
-3.28296e-10
-8.04166e-17
-4.03357e-11
-6.2066e-18
2.73225e-12
-7.5293e-09
-4.63929e-15
1.35161e-10
-2.33589e-08
-5.79247e-15
1.14793e-09
-4.55282e-08
-1.88194e-14
1.81924e-09
-7.65717e-08
-1.7021e-14
4.65445e-10
-9.85382e-08
-2.15888e-14
-9.4446e-10
-1.13473e-07
-1.38189e-15
-6.8794e-10
-1.04485e-07
-2.40833e-14
-2.20704e-09
-5.76811e-08
-2.52044e-14
-2.92037e-09
-4.51488e-08
-3.4832e-14
-3.27233e-09
-2.40496e-08
-2.27371e-14
-2.05628e-09
-1.36248e-08
-1.19894e-14
-7.75598e-10
-5.0319e-09
-3.21427e-15
-1.73041e-10
-1.46749e-09
-6.24509e-16
-2.21116e-11
-2.89513e-10
-8.44334e-17
-3.58438e-11
-6.46938e-18
4.22388e-12
-7.53354e-09
-5.46286e-16
1.6486e-10
-2.35196e-08
-5.11683e-15
1.23337e-09
-4.65967e-08
-1.29267e-14
1.2785e-09
-7.66168e-08
-1.39312e-14
-5.86468e-10
-9.66732e-08
-1.43192e-14
-2.38067e-09
-1.11679e-07
-2.09363e-14
-2.22654e-09
-1.04639e-07
-2.87152e-14
-2.45906e-09
-5.74847e-08
-3.26253e-14
-2.8733e-09
-4.45912e-08
-3.48728e-14
-2.98429e-09
-2.21219e-08
-2.09546e-14
-1.86106e-09
-1.19157e-08
-1.09235e-14
-6.99794e-10
-4.53128e-09
-3.03765e-15
-1.56319e-10
-1.30241e-09
-6.20499e-16
-2.01627e-11
-2.56227e-10
-8.68185e-17
-3.19203e-11
-5.88422e-18
5.30954e-12
-7.53884e-09
-6.73437e-15
1.84336e-10
-2.36986e-08
-1.02682e-14
1.1899e-09
-4.76022e-08
-2.72198e-15
5.30254e-10
-7.59572e-08
-1.10066e-14
-1.78939e-09
-9.43535e-08
-1.82814e-14
-4.00184e-09
-1.09466e-07
-1.39129e-14
-3.95556e-09
-1.04685e-07
-8.89934e-15
-2.51787e-09
-5.89562e-08
-2.29028e-14
-2.77278e-09
-4.4505e-08
-3.23123e-14
-2.66174e-09
-2.07508e-08
-1.9066e-14
-1.66202e-09
-1.04487e-08
-9.32187e-15
-6.25132e-10
-4.09695e-09
-2.82113e-15
-1.40183e-10
-1.16072e-09
-6.24074e-16
-1.82649e-11
-2.27717e-10
-8.89798e-17
-2.85007e-11
-6.08103e-18
5.91695e-12
-7.54476e-09
-3.78988e-15
1.89436e-10
-2.38821e-08
-6.85729e-15
1.01896e-09
-4.84317e-08
-1.44689e-15
-2.99883e-10
-7.46383e-08
-1.68859e-14
-2.93206e-09
-9.17213e-08
-1.10381e-14
-5.48746e-09
-1.06911e-07
-7.76613e-15
-5.42609e-09
-1.04746e-07
-1.32075e-14
-2.17381e-09
-6.22182e-08
-2.91679e-14
-2.58588e-09
-4.45124e-08
-2.78117e-14
-2.31165e-09
-1.98594e-08
-1.5337e-14
-1.46058e-09
-9.20444e-09
-8.03171e-15
-5.52016e-10
-3.70801e-09
-2.54753e-15
-1.24671e-10
-1.03838e-09
-5.16375e-16
-1.6423e-11
-2.0321e-10
-7.58099e-17
-2.55147e-11
-5.76756e-18
6.0322e-12
-7.55079e-09
-1.67035e-15
1.82846e-10
-2.40589e-08
-7.94144e-15
7.62298e-10
-4.90112e-08
3.15049e-15
-1.05286e-09
-7.28232e-08
-1.4542e-14
-3.79859e-09
-8.89756e-08
-1.15003e-14
-6.50618e-09
-1.04203e-07
-1.9942e-14
-6.22836e-09
-1.05024e-07
-2.72119e-15
-1.23169e-09
-6.72171e-08
-4.26333e-14
-2.28506e-09
-4.40361e-08
-2.34686e-14
-1.95789e-09
-1.92503e-08
-1.30352e-14
-1.26097e-09
-8.16616e-09
-6.28048e-15
-4.81684e-10
-3.33612e-09
-2.28544e-15
-1.09942e-10
-9.30817e-10
-4.65578e-16
-1.46524e-11
-1.81949e-10
-7.56801e-17
-2.28953e-11
-5.39917e-18
5.85193e-12
-7.55664e-09
-4.73391e-15
1.77281e-10
-2.42304e-08
-8.4245e-15
4.79253e-10
-4.93132e-08
2.60352e-15
-1.6333e-09
-7.07106e-08
-1.26475e-14
-4.30861e-09
-8.63002e-08
-1.56066e-14
-6.90878e-09
-1.01603e-07
-1.48677e-14
-6.38557e-09
-1.05547e-07
-8.25608e-15
1.36614e-10
-7.37398e-08
-2.10576e-14
-1.95398e-09
-4.25776e-08
-1.4163e-14
-1.65202e-09
-1.96626e-08
-1.19347e-14
-1.07228e-09
-7.38566e-09
-4.95448e-15
-4.1605e-10
-2.96131e-09
-1.85489e-15
-9.62311e-11
-8.32941e-10
-3.83979e-16
-1.29767e-11
-1.63259e-10
-6.52314e-17
-2.05893e-11
-4.551e-18
5.8742e-12
-7.56252e-09
-3.24412e-16
1.8454e-10
-2.4409e-08
-9.91304e-15
1.80907e-10
-4.93096e-08
5.408e-15
-2.10786e-09
-6.84219e-08
-1.32496e-14
-4.63671e-09
-8.37713e-08
-1.8518e-14
-6.98016e-09
-9.92594e-08
-1.38698e-14
-6.55202e-09
-1.05976e-07
-4.03067e-14
7.7552e-10
-8.10735e-08
-1.15187e-14
-1.72905e-09
-4.06344e-08
-1.3957e-15
-1.44196e-09
-2.10565e-08
-1.14576e-14
-9.09226e-10
-6.91895e-09
-4.30049e-15
-3.56775e-10
-2.62053e-09
-1.42785e-15
-8.37045e-11
-7.41618e-10
-2.97163e-16
-1.14155e-11
-1.46588e-10
-5.03875e-17
-1.8567e-11
-3.53075e-18
6.24897e-12
-7.56877e-09
-4.04009e-15
1.93286e-10
-2.4596e-08
-9.43858e-15
-1.95434e-10
-4.89209e-08
3.51102e-15
-2.64022e-09
-6.59772e-08
-1.23413e-14
-5.11948e-09
-8.1292e-08
-1.09048e-14
-7.38127e-09
-9.69977e-08
-9.51891e-15
-7.78316e-09
-1.05574e-07
-1.69881e-14
-1.30699e-09
-8.75529e-08
1.89764e-14
-1.81829e-09
-4.05638e-08
-2.53637e-14
-1.32887e-09
-2.35012e-08
-1.3402e-14
-7.87493e-10
-6.67834e-09
-3.81034e-15
-3.05491e-10
-2.41857e-09
-1.36003e-15
-7.23524e-11
-6.68247e-10
-2.97224e-16
-9.96989e-12
-1.32154e-10
-5.33344e-17
-1.68224e-11
-4.38479e-18
6.88191e-12
-7.57565e-09
-1.97908e-15
1.7054e-10
-2.47597e-08
-9.66781e-15
-6.74227e-10
-4.80761e-08
-2.77532e-16
-3.21912e-09
-6.34323e-08
-1.41814e-14
-5.71807e-09
-7.8793e-08
-1.7022e-14
-8.13583e-09
-9.45799e-08
-2.55375e-15
-9.73393e-09
-1.03976e-07
-2.90511e-14
-5.59007e-09
-9.1697e-08
2.03052e-14
-1.99411e-09
-4.43824e-08
-1.22788e-15
-1.23952e-09
-2.70643e-08
-1.41967e-14
-6.9804e-10
-6.89372e-09
-4.43459e-15
-2.63606e-10
-2.36327e-09
-1.27476e-15
-6.22017e-11
-6.39338e-10
-2.54752e-16
-8.62294e-12
-1.23194e-10
-3.76594e-17
-1.5459e-11
-4.16685e-18
7.07049e-12
-7.58271e-09
-6.31514e-15
1.01551e-10
-2.48542e-08
-9.5047e-15
-1.11896e-09
-4.68556e-08
-4.34112e-15
-3.50724e-09
-6.1044e-08
-1.10241e-14
-5.78579e-09
-7.65144e-08
-7.06835e-15
-8.02138e-09
-9.23442e-08
-1.20774e-14
-9.90972e-09
-1.02087e-07
-2.56244e-14
-7.6591e-09
-9.39476e-08
9.75265e-15
-7.63513e-10
-5.13236e-08
1.34476e-14
-1.14238e-09
-2.95683e-08
-1.62826e-14
-5.98129e-10
-8.52463e-09
-4.13758e-15
-2.25769e-10
-2.3685e-09
-1.10165e-15
-5.34001e-11
-6.32016e-10
-3.33294e-16
-7.3841e-12
-1.2076e-10
-4.29372e-17
-1.48146e-11
-4.45286e-18
6.65344e-12
-7.58937e-09
1.08869e-15
1.5562e-11
-2.48631e-08
-4.52955e-15
-1.33369e-09
-4.55063e-08
-1.16314e-14
-3.23657e-09
-5.91412e-08
-1.66381e-14
-4.92025e-09
-7.48307e-08
-1.10405e-14
-6.31072e-09
-9.09538e-08
-1.78456e-14
-7.1563e-09
-1.01242e-07
-1.39087e-14
-4.98152e-09
-9.61225e-08
8.59913e-15
2.98008e-09
-5.92855e-08
-3.91243e-14
-7.28411e-10
-2.75189e-08
-7.66123e-15
-4.80484e-10
-1.18128e-08
-4.79301e-15
-1.85771e-10
-2.62597e-09
-1.35123e-15
-4.48925e-11
-6.56177e-10
-3.41972e-16
-6.24799e-12
-1.2096e-10
-4.21929e-17
-1.44725e-11
-4.58905e-18
5.68089e-12
-7.59505e-09
-3.28128e-15
-4.97334e-11
-2.48076e-08
-1.00848e-14
-1.28508e-09
-4.4271e-08
-5.83226e-15
-2.60449e-09
-5.78218e-08
-1.29258e-14
-3.60495e-09
-7.38302e-08
-1.67941e-14
-4.03608e-09
-9.05226e-08
-7.37167e-15
-3.51659e-09
-1.01761e-07
-1.20951e-14
-9.03566e-10
-9.87355e-08
-4.57387e-14
5.95916e-09
-6.61481e-08
-2.81925e-14
7.04602e-10
-2.27217e-08
-1.22491e-14
-3.18998e-10
-1.53328e-08
-5.78424e-15
-1.44135e-10
-3.26252e-09
-1.30247e-15
-3.65774e-11
-7.31521e-10
-2.94029e-16
-5.13334e-12
-1.28017e-10
-4.71644e-17
-1.45716e-11
-4.18797e-18
4.79789e-12
-7.59985e-09
-5.41355e-16
-8.08477e-11
-2.4722e-08
-7.32869e-15
-1.09616e-09
-4.32557e-08
-1.17355e-14
-1.98008e-09
-5.69379e-08
-1.49659e-14
-2.49623e-09
-7.3314e-08
-1.50656e-14
-2.36182e-09
-9.0657e-08
-7.23618e-15
-1.1159e-09
-1.03007e-07
-6.78013e-15
1.2675e-09
-1.01119e-07
-4.16487e-14
6.28058e-09
-7.11611e-08
-1.09529e-14
2.80186e-09
-1.93091e-08
-3.5334e-15
2.53573e-11
-1.67524e-08
-4.93654e-15
-8.60724e-11
-4.5673e-09
-1.91541e-15
-2.68748e-11
-8.62542e-10
-3.11585e-16
-3.98472e-12
-1.41433e-10
-5.26461e-17
-1.51368e-11
-3.88741e-18
4.19938e-12
-7.60404e-09
-2.12556e-15
-8.6151e-11
-2.46316e-08
-1.04989e-14
-8.94004e-10
-4.24479e-08
-8.60377e-15
-1.52604e-09
-5.63058e-08
-1.5397e-14
-1.74878e-09
-7.30912e-08
-3.16333e-15
-1.32983e-09
-9.10759e-08
-1.30001e-14
9.61317e-11
-1.04433e-07
-1.0752e-14
2.25041e-09
-1.03273e-07
-6.87133e-15
6.17281e-09
-7.50836e-08
-1.19583e-14
4.71667e-09
-1.7853e-08
1.45989e-14
1.24298e-09
-1.60481e-08
-5.6084e-15
1.67097e-11
-6.30612e-09
-3.28768e-15
-1.3321e-11
-1.0907e-09
-4.81746e-16
-2.66054e-12
-1.60826e-10
-5.77353e-17
-1.598e-11
-4.92699e-18
4.10529e-12
-7.60815e-09
-2.40129e-15
-7.6703e-11
-2.45508e-08
-5.25104e-15
-7.35749e-10
-4.17889e-08
-1.13088e-14
-1.23184e-09
-5.58098e-08
-1.54444e-14
-1.25615e-09
-7.30669e-08
-2.12223e-15
-6.57814e-10
-9.16742e-08
-1.31767e-14
7.92284e-10
-1.05883e-07
-1.1952e-14
2.82041e-09
-1.05301e-07
-9.04069e-15
6.04996e-09
-7.83131e-08
-1.81898e-14
6.09013e-09
-1.78933e-08
-1.33658e-14
2.69623e-09
-1.43788e-08
-6.11819e-15
3.05799e-10
-7.67877e-09
-3.26747e-15
7.42431e-12
-1.44491e-09
-5.76777e-16
-1.07841e-12
-1.89196e-10
-7.1063e-17
-1.7116e-11
-5.15567e-18
4.38184e-12
-7.61253e-09
-6.88672e-16
-6.45859e-11
-2.44819e-08
-1.03714e-14
-6.43666e-10
-4.12098e-08
-1.07333e-14
-1.05919e-09
-5.53942e-08
-1.87047e-14
-9.28084e-10
-7.3198e-08
-1.6219e-15
-2.10903e-10
-9.23914e-08
-6.70408e-15
1.2066e-09
-1.07301e-07
-4.82295e-15
3.04943e-09
-1.07144e-07
-7.20064e-15
5.62173e-09
-8.08854e-08
-3.0503e-14
6.8983e-09
-1.91701e-08
-1.94976e-14
3.99167e-09
-1.26137e-08
8.08909e-16
8.20675e-10
-8.37021e-09
-3.15824e-15
4.86684e-11
-1.8812e-09
-6.07767e-16
1.25218e-12
-2.28053e-10
-7.55437e-17
-1.88595e-11
-4.65093e-18
4.94201e-12
-7.61747e-09
-9.49687e-16
-5.83495e-11
-2.44186e-08
-5.10173e-15
-6.08514e-10
-4.06596e-08
-1.08739e-14
-9.30086e-10
-5.50727e-08
-1.64785e-14
-6.32934e-10
-7.34952e-08
1.81522e-15
2.06972e-10
-9.32313e-08
-8.64853e-15
1.61464e-09
-1.08709e-07
-1.22071e-14
3.2931e-09
-1.08823e-07
-2.34201e-14
5.34923e-09
-8.29415e-08
-3.81834e-14
7.51145e-09
-2.13322e-08
-5.97295e-15
5.0617e-09
-1.09978e-08
1.34447e-15
1.49728e-09
-8.52616e-09
-3.36629e-15
1.22215e-10
-2.31744e-09
-7.79749e-16
5.11039e-12
-2.77707e-10
-9.47352e-17
-2.11554e-11
-5.23022e-18
5.53164e-12
-7.623e-09
-2.62491e-15
-6.39393e-11
-2.43491e-08
-6.98917e-15
-5.96715e-10
-4.01269e-08
-1.12354e-14
-7.51707e-10
-5.49177e-08
-1.55177e-14
-2.37978e-10
-7.40089e-08
-6.57323e-15
7.83086e-10
-9.42524e-08
-2.80834e-15
2.28007e-09
-1.10206e-07
-2.11521e-14
3.92354e-09
-1.10466e-07
-1.42492e-14
5.72568e-09
-8.47436e-08
-2.78415e-14
8.45229e-09
-2.40588e-08
-1.06544e-14
6.01946e-09
-9.21484e-09
3.87846e-15
2.26126e-09
-8.32792e-09
-2.99072e-15
2.392e-10
-2.70825e-09
-9.15146e-16
1.0647e-11
-3.37021e-10
-1.11686e-16
-2.3928e-11
-6.27898e-18
6.05331e-12
-7.62906e-09
-5.48352e-16
-7.95169e-11
-2.42635e-08
-5.13278e-15
-5.59236e-10
-3.96472e-08
-9.43136e-15
-4.56004e-10
-5.50209e-08
-1.15537e-14
3.2243e-10
-7.47873e-08
-4.68351e-15
1.58995e-09
-9.55199e-08
-3.38865e-16
3.28393e-09
-1.119e-07
-2.42001e-14
5.05344e-09
-1.12236e-07
-1.64628e-14
6.92659e-09
-8.66166e-08
-1.27367e-14
1.0086e-08
-2.72182e-08
-1.29656e-14
7.0115e-09
-6.62624e-09
-1.15863e-15
3.09019e-09
-7.77957e-09
-3.26893e-15
4.0842e-10
-3.05221e-09
-1.0215e-15
1.86487e-11
-4.05824e-10
-1.27651e-16
-2.71514e-11
-7.87504e-18
6.33701e-12
-7.63539e-09
-1.65595e-15
-9.7965e-11
-2.41592e-08
-8.73088e-15
-4.6088e-10
-3.92843e-08
-9.31292e-15
-4.66132e-11
-5.54352e-08
-1.03258e-14
9.97455e-10
-7.58314e-08
-8.4832e-15
2.52987e-09
-9.70523e-08
-8.22787e-15
4.45841e-09
-1.13828e-07
-2.26963e-14
6.45768e-09
-1.14235e-07
-1.99526e-14
8.57866e-09
-8.87376e-08
-1.48521e-14
1.21816e-08
-3.08212e-08
-2.95253e-15
8.08762e-09
-2.83588e-09
-1.16277e-14
3.9813e-09
-6.68759e-09
-1.11639e-15
6.43433e-10
-3.34156e-09
-9.34076e-16
3.0116e-11
-4.87997e-10
-1.08444e-16
-3.09043e-11
-4.60262e-18
6.38551e-12
-7.64178e-09
-9.24367e-16
-1.08854e-10
-2.4044e-08
-8.30335e-15
-2.95914e-10
-3.90972e-08
-7.21296e-15
4.01747e-10
-5.61329e-08
-7.93309e-15
1.64892e-09
-7.70786e-08
-8.79582e-15
3.37094e-09
-9.87743e-08
-1.02109e-14
5.44875e-09
-1.15906e-07
-2.05233e-14
7.61533e-09
-1.16402e-07
-1.36912e-14
9.79638e-09
-9.09186e-08
-1.59545e-14
1.36665e-08
-3.46914e-08
-7.76751e-15
9.07562e-09
1.60751e-09
1.70519e-15
4.86972e-09
-4.87377e-09
3.10207e-16
9.62542e-10
-3.50462e-09
-9.02769e-16
4.69305e-11
-5.89296e-10
-1.24498e-16
-3.55836e-11
-4.83406e-18
6.22814e-12
-7.64801e-09
-6.32505e-16
-1.05531e-10
-2.39322e-08
-8.77073e-15
-9.48093e-11
-3.91079e-08
-7.64486e-15
7.83937e-10
-5.70116e-08
-1.1202e-14
2.12274e-09
-7.84175e-08
-1.37981e-14
3.88351e-09
-1.00535e-07
-2.65367e-15
5.93439e-09
-1.17957e-07
-1.42083e-14
8.03896e-09
-1.18506e-07
-1.39632e-14
9.8718e-09
-9.27514e-08
-1.64177e-14
1.34984e-08
-3.8318e-08
-2.36574e-14
9.60799e-09
5.44046e-09
2.11148e-14
5.59009e-09
-2.50648e-09
3.15404e-15
1.36599e-09
-3.41965e-09
-8.93438e-16
7.26682e-11
-7.07217e-10
-1.52217e-16
-4.19643e-11
-5.19345e-18
6.04434e-12
-7.65405e-09
-2.1463e-15
-8.71179e-11
-2.38391e-08
-7.83118e-15
9.95496e-11
-3.92946e-08
-8.0061e-15
1.03616e-09
-5.79482e-08
-1.08554e-14
2.34407e-09
-7.97254e-08
-1.16548e-14
3.98869e-09
-1.0218e-07
-9.59895e-18
5.84272e-09
-1.19811e-07
-1.32538e-14
7.6432e-09
-1.20307e-07
4.82106e-16
8.87695e-09
-9.39852e-08
-3.02077e-15
1.17256e-08
-4.11666e-08
-5.66855e-15
9.41642e-09
7.72948e-09
1.13285e-14
5.97352e-09
-9.01352e-11
4.16255e-15
1.80633e-09
-3.0275e-09
-1.99888e-16
1.12082e-10
-8.2045e-10
-1.44178e-16
-5.08702e-11
-3.36604e-18
6.00988e-12
-7.66006e-09
-6.87425e-16
-5.83737e-11
-2.37747e-08
-5.9199e-15
2.50263e-10
-3.96032e-08
-8.84653e-15
1.14659e-09
-5.88445e-08
-1.07211e-14
2.33087e-09
-8.09097e-08
-6.32292e-15
3.75886e-09
-1.03608e-07
-1.3776e-14
5.32219e-09
-1.21374e-07
-1.82304e-14
6.70661e-09
-1.21691e-07
-1.22938e-14
7.35921e-09
-9.46378e-08
-2.27001e-14
9.23624e-09
-4.30438e-08
-4.49161e-15
8.56016e-09
8.40561e-09
-3.79733e-14
5.98122e-09
1.88025e-09
-5.83427e-15
2.20137e-09
-2.40091e-09
-6.6723e-16
1.68298e-10
-4.57889e-17
2.7015e-18
6.18577e-12
-7.66625e-09
-3.3732e-15
-2.5085e-11
-2.37434e-08
-6.74962e-15
3.41969e-10
-3.99703e-08
-8.19706e-15
1.14176e-09
-5.96443e-08
-1.06313e-14
2.15581e-09
-8.19238e-08
-8.83367e-15
3.33495e-09
-1.04787e-07
-8.10467e-15
4.59637e-09
-1.22636e-07
-1.56037e-14
5.59498e-09
-1.2269e-07
-5.17538e-15
5.82179e-09
-9.48645e-08
-1.68784e-14
6.84444e-09
-4.40666e-08
-7.38409e-15
7.33807e-09
7.91196e-09
1.71841e-15
5.68931e-09
3.16751e-09
8.52962e-16
-1.68799e-09
-2.59307e-16
6.59552e-12
-7.67284e-09
-1.37492e-15
7.75247e-12
-2.37446e-08
-4.75703e-15
3.79135e-10
-4.03417e-08
-1.10505e-14
1.06279e-09
-6.0328e-08
-9.95068e-15
1.89962e-09
-8.27606e-08
-5.59034e-15
2.84716e-09
-1.05734e-07
-1.1213e-14
3.85016e-09
-1.23639e-07
-1.30567e-14
4.56607e-09
-1.23406e-07
-9.27148e-15
4.54341e-09
-9.48419e-08
-6.6717e-15
4.92697e-09
-4.44502e-08
-1.42513e-14
6.10889e-09
6.72999e-09
9.43282e-15
5.23573e-09
3.81229e-09
2.1134e-15
-1.01741e-09
-4.24491e-16
7.16509e-12
-7.68e-09
-3.20192e-15
3.67419e-11
-2.37742e-08
-7.79388e-15
3.77451e-10
-4.06824e-08
-5.61299e-15
9.49578e-10
-6.09001e-08
-6.10574e-15
1.6263e-09
-8.34374e-08
-1.21276e-14
2.38307e-09
-1.06491e-07
-1.01218e-14
3.19128e-09
-1.24447e-07
-1.32927e-14
3.73328e-09
-1.23948e-07
-5.28783e-15
3.6023e-09
-9.47109e-08
-8.75091e-15
3.5821e-09
-4.443e-08
-1.10355e-14
5.0799e-09
5.23217e-09
5.56551e-15
4.7352e-09
3.99961e-09
1.95956e-15
-4.54164e-10
-3.02812e-16
7.85899e-12
-7.68786e-09
-2.13429e-15
5.95147e-11
-2.38258e-08
-5.10382e-15
3.53425e-10
-4.09763e-08
-9.70298e-15
8.30326e-10
-6.1377e-08
-7.673e-15
1.37412e-09
-8.39812e-08
-1.08344e-14
1.98518e-09
-1.07102e-07
-1.29081e-14
2.65921e-09
-1.25121e-07
-1.08219e-14
3.11062e-09
-1.24399e-07
-1.26102e-14
2.95899e-09
-9.45593e-08
-9.24726e-15
2.70569e-09
-4.41768e-08
-5.99455e-15
4.28431e-09
3.65355e-09
-2.6932e-16
4.24769e-09
3.91742e-09
-9.10702e-16
-1.64469e-11
-1.22706e-16
8.53742e-12
-7.6964e-09
-3.02625e-15
7.44713e-11
-2.38918e-08
-7.95002e-15
3.19988e-10
-4.12218e-08
-3.95455e-15
7.20274e-10
-6.17773e-08
-4.29066e-15
1.15858e-09
-8.44195e-08
-1.46181e-14
1.66244e-09
-1.07606e-07
-1.41667e-14
2.2491e-09
-1.25707e-07
-1.31885e-14
2.66277e-09
-1.24813e-07
-1.13113e-14
2.53851e-09
-9.4435e-08
-9.4931e-15
2.1495e-09
-4.37877e-08
-7.69068e-15
3.65794e-09
2.14509e-09
-2.24244e-15
3.79298e-09
3.68605e-09
-5.39044e-16
2.99661e-10
-1.99152e-16
9.08739e-12
-7.70548e-09
-1.98293e-15
8.10813e-11
-2.39638e-08
-6.31188e-15
2.84562e-10
-4.14253e-08
-7.99735e-15
6.24446e-10
-6.21172e-08
-4.57525e-15
9.80485e-10
-8.47756e-08
-9.9138e-15
1.4052e-09
-1.08031e-07
-1.14559e-14
1.9343e-09
-1.26236e-07
-4.0345e-15
2.33215e-09
-1.25211e-07
-1.4765e-14
2.23853e-09
-9.43414e-08
-1.55255e-14
1.70207e-09
-4.32513e-08
-7.57865e-15
3.08205e-09
7.65103e-10
-1.2075e-15
3.35033e-09
3.33614e-09
2.72744e-17
4.92193e-10
-6.88845e-17
9.35745e-12
-7.71484e-09
-3.04192e-15
7.9926e-11
-2.40343e-08
-8.0662e-15
2.50805e-10
-4.15962e-08
-5.11636e-15
5.42286e-10
-6.24086e-08
-3.0372e-15
8.3318e-10
-8.50665e-08
-1.2448e-14
1.19752e-09
-1.08395e-07
-1.32091e-14
1.68715e-09
-1.26726e-07
-8.14709e-15
2.08062e-09
-1.25604e-07
-1.65095e-14
2.02965e-09
-9.42904e-08
-1.40858e-14
1.34756e-09
-4.25693e-08
-1.31468e-14
2.46518e-09
-3.52631e-10
-1.0576e-14
2.88779e-09
2.84624e-09
-4.05706e-15
5.61585e-10
-4.4225e-16
9.24235e-12
-7.72408e-09
-2.0025e-15
7.24436e-11
-2.40975e-08
-6.58605e-15
2.19554e-10
-4.17433e-08
-6.49923e-15
4.70442e-10
-6.26595e-08
-3.47497e-15
7.07587e-10
-8.53036e-08
-1.28541e-14
1.02261e-09
-1.0871e-07
-1.40676e-14
1.48019e-09
-1.27184e-07
-1.35921e-14
1.86665e-09
-1.25991e-07
-7.08283e-15
1.83596e-09
-9.42597e-08
-2.76362e-15
9.09254e-10
-4.16425e-08
3.59703e-15
1.69829e-09
-1.14157e-09
3.50212e-15
2.33034e-09
2.1589e-09
1.79725e-15
4.92711e-10
8.45347e-16
8.56948e-12
-7.73265e-09
-2.76531e-15
6.04839e-11
-2.41494e-08
-7.10734e-15
1.90797e-10
-4.18736e-08
-6.89171e-15
4.05765e-10
-6.28745e-08
-3.26899e-15
5.96253e-10
-8.54941e-08
-1.66498e-14
8.68705e-10
-1.08982e-07
-1.21085e-14
1.29877e-09
-1.27614e-07
-1.35216e-14
1.68892e-09
-1.26381e-07
-9.35105e-15
1.72785e-09
-9.42986e-08
-5.67047e-15
6.92081e-10
-4.06068e-08
1.04093e-15
8.32414e-10
-1.28189e-09
-3.43144e-14
1.62583e-09
1.32748e-09
-6.244e-15
3.10896e-10
-1.47018e-16
7.2654e-12
-7.73992e-09
-2.16979e-15
4.55564e-11
-2.41877e-08
-7.71396e-15
1.63224e-10
-4.19913e-08
-6.07357e-15
3.43763e-10
-6.3055e-08
-4.37076e-15
4.90505e-10
-8.56409e-08
-1.30384e-14
7.21644e-10
-1.09214e-07
-1.39957e-14
1.11884e-09
-1.28011e-07
-1.66795e-14
1.49484e-09
-1.26757e-07
-9.46344e-15
1.52601e-09
-9.43298e-08
-8.88538e-15
3.63589e-10
-3.94444e-08
-1.34976e-15
5.92643e-11
-9.7609e-10
-6.88781e-15
8.50951e-10
5.02511e-10
-1.16282e-15
1.0638e-10
9.04891e-16
5.30749e-12
-7.74523e-09
-2.93146e-15
2.84594e-11
-2.42109e-08
-7.20832e-15
1.34516e-10
-4.20973e-08
-7.95701e-15
2.78311e-10
-6.31988e-08
-5.40811e-15
3.78249e-10
-8.57408e-08
-1.46437e-14
5.61299e-10
-1.09397e-07
-1.21659e-14
9.19833e-10
-1.28369e-07
-1.28635e-14
1.30867e-09
-1.27146e-07
-1.03661e-14
1.44012e-09
-9.44613e-08
-1.1141e-14
5.91409e-10
-3.85956e-08
-1.11888e-14
-3.79232e-10
1.28505e-14
1.12258e-10
2.26023e-15
6.50712e-16
3.14745e-12
-7.74838e-09
-2.59504e-15
1.13448e-11
-2.42191e-08
-7.81164e-15
1.06154e-10
-4.21921e-08
-7.00817e-15
2.10424e-10
-6.33031e-08
-7.45665e-15
2.57002e-10
-8.57874e-08
-1.15539e-14
3.69934e-10
-1.0951e-07
-1.46306e-14
6.3654e-10
-1.28636e-07
-1.25239e-14
9.04742e-10
-1.27414e-07
-1.2303e-14
7.30823e-10
-9.42874e-08
-9.17176e-15
-3.78648e-08
-7.40208e-15
1.40783e-12
-7.74979e-09
-2.82322e-15
-1.78442e-12
-2.42159e-08
-7.38932e-15
8.58904e-11
-4.22798e-08
-6.80186e-15
1.57529e-10
-6.33747e-08
-6.50327e-15
1.63196e-10
-8.57931e-08
-1.12089e-14
2.2513e-10
-1.09572e-07
-1.55674e-14
4.37211e-10
-1.28848e-07
-1.4465e-14
6.48147e-10
-1.27625e-07
-1.1197e-14
3.57368e-10
-9.39966e-08
-3.66474e-15
-3.75075e-08
-2.56675e-15
2.13027e-13
-7.75e-09
-2.53655e-15
-9.47911e-12
-2.42062e-08
-7.77211e-15
7.51057e-11
-4.23644e-08
-6.59431e-15
1.2218e-10
-6.34218e-08
-7.62847e-15
1.00608e-10
-8.57716e-08
-1.17757e-14
1.34718e-10
-1.09606e-07
-1.60185e-14
3.3409e-10
-1.29047e-07
-1.50149e-14
5.65932e-10
-1.27857e-07
-9.91119e-15
3.68344e-10
-9.3799e-08
-5.17496e-15
-3.71391e-08
-4.00601e-15
-4.78376e-13
-7.74952e-09
-2.7075e-15
-1.17422e-11
-2.41949e-08
-7.59811e-15
7.22776e-11
-4.24484e-08
-6.46204e-15
1.00502e-10
-6.345e-08
-8.10822e-15
5.94205e-11
-8.57305e-08
-1.19299e-14
7.54381e-11
-1.09622e-07
-1.64627e-14
2.68936e-10
-1.29241e-07
-1.50837e-14
5.16804e-10
-1.28105e-07
-1.33153e-14
3.39897e-10
-9.36221e-08
-8.55821e-15
-3.67992e-08
-7.8657e-15
-7.40284e-13
-7.74879e-09
-2.82549e-15
-9.05718e-12
-2.41866e-08
-7.58654e-15
7.56747e-11
-4.25331e-08
-6.41291e-15
8.93064e-11
-6.34636e-08
-6.27276e-15
3.41444e-11
-8.56753e-08
-1.42642e-14
3.92165e-11
-1.09627e-07
-1.82015e-14
2.34734e-10
-1.29436e-07
-1.40587e-14
5.04245e-10
-1.28374e-07
-6.12101e-15
3.45842e-10
-9.34637e-08
8.21335e-16
-3.64533e-08
3.07208e-15
-6.75914e-13
-7.74811e-09
-2.88688e-15
-2.43624e-12
-2.41848e-08
-8.92748e-15
8.29701e-11
-4.26185e-08
-6.87127e-15
8.45293e-11
-6.34652e-08
-7.4545e-15
1.80148e-11
-8.56088e-08
-1.53414e-14
1.57395e-11
-1.09624e-07
-1.54497e-14
2.15961e-10
-1.29637e-07
-1.13773e-14
5.04772e-10
-1.28663e-07
-8.73865e-15
3.54389e-10
-9.33134e-08
-6.54435e-15
-3.60989e-08
-1.00543e-15
-3.45238e-13
-7.74777e-09
-2.79578e-15
6.81744e-12
-2.4192e-08
-6.43149e-15
9.19083e-11
-4.27036e-08
-5.1304e-15
8.26681e-11
-6.3456e-08
-7.67166e-15
6.20714e-12
-8.55324e-08
-1.39598e-14
-4.81405e-13
-1.09618e-07
-1.20607e-14
2.06822e-10
-1.29844e-07
-1.61006e-14
5.15814e-10
-1.28972e-07
-9.67227e-15
3.70846e-10
-9.31684e-08
-6.30168e-15
-3.57281e-08
-5.27111e-16
1.81668e-13
-7.74795e-09
-2.73716e-15
1.71574e-11
-2.4209e-08
-8.81811e-15
1.00729e-10
-4.27872e-08
-6.24905e-15
8.13315e-11
-6.34366e-08
-9.37302e-15
-4.24639e-12
-8.54468e-08
-1.51733e-14
-1.31223e-11
-1.09609e-07
-1.10143e-14
2.03016e-10
-1.3006e-07
-1.73031e-14
5.33156e-10
-1.29302e-07
-8.9294e-15
3.91673e-10
-9.30269e-08
-8.40757e-15
-3.53364e-08
-1.00056e-15
8.56556e-13
-7.74881e-09
-2.91491e-15
2.68221e-11
-2.42349e-08
-7.20565e-15
1.07479e-10
-4.28678e-08
-6.2753e-15
7.81505e-11
-6.34072e-08
-8.13047e-15
-1.52054e-11
-8.53535e-08
-1.23705e-14
-2.37632e-11
-1.096e-07
-1.40341e-14
2.03404e-10
-1.30287e-07
-1.48968e-14
5.5597e-10
-1.29654e-07
-8.26016e-15
4.174e-10
-9.28883e-08
-7.71627e-15
-3.4919e-08
-7.71825e-16
1.64146e-12
-7.75045e-09
-3.01245e-15
3.42308e-11
-2.42675e-08
-8.08371e-15
1.10878e-10
-4.29445e-08
-6.88744e-15
7.15509e-11
-6.33679e-08
-9.34999e-15
-2.81294e-11
-8.52538e-08
-1.2748e-14
-3.35915e-11
-1.09595e-07
-1.44346e-14
2.07134e-10
-1.30528e-07
-1.50315e-14
5.83639e-10
-1.30031e-07
-9.70222e-15
4.47736e-10
-9.27524e-08
-7.24568e-15
-3.44712e-08
1.20345e-15
2.5022e-12
-7.75295e-09
-2.97866e-15
3.80788e-11
-2.43031e-08
-8.18783e-15
1.1005e-10
-4.30165e-08
-7.17847e-15
6.08116e-11
-6.33187e-08
-9.15494e-15
-4.28581e-11
-8.51501e-08
-1.40429e-14
-4.2201e-11
-1.09595e-07
-1.37766e-14
2.14586e-10
-1.30785e-07
-1.65959e-14
6.1646e-10
-1.30433e-07
-1.03094e-14
4.8296e-10
-9.2619e-08
-9.15259e-15
-3.39882e-08
-7.78987e-16
3.41262e-12
-7.75636e-09
-3.18115e-15
3.78468e-11
-2.43375e-08
-8.10882e-15
1.04881e-10
-4.30835e-08
-7.35164e-15
4.58736e-11
-6.32596e-08
-1.01283e-14
-5.86351e-11
-8.50457e-08
-1.42375e-14
-4.87103e-11
-1.09605e-07
-1.318e-14
2.26565e-10
-1.3106e-07
-1.41727e-14
6.55005e-10
-1.30861e-07
-1.25022e-14
5.23351e-10
-9.24873e-08
-7.52634e-15
-3.34648e-08
-1.59777e-15
4.35617e-12
-7.76072e-09
-3.23967e-15
3.38289e-11
-2.4367e-08
-9.04904e-15
9.59232e-11
-4.31456e-08
-6.98158e-15
2.77295e-11
-6.31914e-08
-9.70852e-15
-7.381e-11
-8.49441e-08
-1.4674e-14
-5.15118e-11
-1.09628e-07
-1.27984e-14
2.44428e-10
-1.31356e-07
-1.46728e-14
7.00393e-10
-1.31317e-07
-1.04452e-14
5.69704e-10
-9.23566e-08
-6.71591e-15
-3.28951e-08
-3.64125e-15
5.3333e-12
-7.76605e-09
-3.45631e-15
2.72683e-11
-2.43889e-08
-9.01296e-15
8.45279e-11
-4.32029e-08
-6.71043e-15
8.26485e-12
-6.31152e-08
-1.02161e-14
-8.60033e-11
-8.48499e-08
-1.51341e-14
-4.84209e-11
-1.09665e-07
-1.41637e-14
2.69918e-10
-1.31674e-07
-9.08839e-15
7.53576e-10
-1.31801e-07
-8.15456e-15
6.22135e-10
-9.22252e-08
-5.65119e-15
-3.2273e-08
3.3459e-15
6.35975e-12
-7.77241e-09
-3.47558e-15
2.00022e-11
-2.44026e-08
-1.02092e-14
7.23842e-11
-4.32552e-08
-7.09096e-15
-1.02099e-11
-6.30326e-08
-1.15625e-14
-9.27744e-11
-8.47673e-08
-1.37412e-14
-3.70574e-11
-1.09721e-07
-8.77539e-15
3.04647e-10
-1.32016e-07
-2.1211e-14
8.15434e-10
-1.32312e-07
-1.28432e-14
6.80325e-10
-9.20901e-08
-1.37415e-14
-3.15927e-08
-8.48717e-15
7.45942e-12
-7.77987e-09
-3.66078e-15
1.43022e-11
-2.44094e-08
-1.03262e-14
6.15128e-11
-4.33025e-08
-7.09704e-15
-2.50488e-11
-6.2946e-08
-1.11708e-14
-9.20253e-11
-8.47003e-08
-1.3596e-14
-1.59371e-11
-1.09797e-07
-9.96491e-15
3.50015e-10
-1.32382e-07
-1.86933e-14
8.87528e-10
-1.32849e-07
-1.19608e-14
7.45343e-10
-9.19479e-08
-8.17741e-15
-3.08473e-08
1.02076e-15
8.6619e-12
-7.78853e-09
-3.80083e-15
1.23516e-11
-2.44131e-08
-1.07553e-14
5.37349e-11
-4.33438e-08
-8.06348e-15
-3.37487e-11
-6.28585e-08
-1.12784e-14
-8.13984e-11
-8.46527e-08
-1.40932e-14
1.72019e-11
-1.09896e-07
-1.05119e-14
4.0816e-10
-1.32773e-07
-1.79505e-14
9.71422e-10
-1.33413e-07
-9.49204e-15
8.179e-10
-9.17943e-08
-1.15552e-14
-3.00294e-08
-1.17713e-15
1.00066e-11
-7.79854e-09
-3.99556e-15
1.6015e-11
-2.44191e-08
-1.09642e-14
5.06828e-11
-4.33785e-08
-8.44681e-15
-3.41496e-11
-6.27736e-08
-1.03713e-14
-5.92364e-11
-8.46276e-08
-1.24116e-14
6.35672e-11
-1.10018e-07
-8.16211e-15
4.80409e-10
-1.3319e-07
-1.84852e-14
1.06817e-09
-1.34e-07
-1.29261e-14
8.98374e-10
-9.16245e-08
-1.29121e-14
-2.91311e-08
-3.55769e-15
1.15352e-11
-7.81007e-09
-4.18347e-15
2.63724e-11
-2.4434e-08
-1.08638e-14
5.33e-11
-4.34054e-08
-9.35657e-15
-2.4774e-11
-6.26956e-08
-1.00619e-14
-2.48147e-11
-8.46276e-08
-1.68136e-14
1.23641e-10
-1.10167e-07
-1.67095e-14
5.67592e-10
-1.33634e-07
-1.33773e-14
1.17882e-09
-1.34612e-07
-1.21984e-14
9.87592e-10
-9.14333e-08
-6.15086e-15
-2.81435e-08
-1.15113e-14
1.32814e-11
-7.82335e-09
-4.40949e-15
4.3538e-11
-2.44642e-08
-1.06404e-14
6.16211e-11
-4.34235e-08
-9.84065e-15
-5.34507e-12
-6.26286e-08
-9.22208e-15
2.16261e-11
-8.46546e-08
-1.56883e-14
1.98178e-10
-1.10343e-07
-1.467e-14
6.70681e-10
-1.34106e-07
-1.55823e-14
1.30451e-09
-1.35245e-07
-1.29092e-14
1.08644e-09
-9.12152e-08
-7.18339e-15
-2.70571e-08
-3.455e-15
1.52602e-11
-7.83861e-09
-4.71331e-15
6.64541e-11
-2.45154e-08
-1.04281e-14
7.49128e-11
-4.3432e-08
-1.06859e-14
2.40275e-11
-6.25777e-08
-9.86453e-15
7.90771e-11
-8.47096e-08
-1.6022e-14
2.86523e-10
-1.10551e-07
-1.441e-14
7.89628e-10
-1.34609e-07
-1.49429e-14
1.44593e-09
-1.35902e-07
-1.14225e-14
1.19583e-09
-9.09651e-08
-6.29246e-15
-2.58612e-08
-2.05928e-15
1.74743e-11
-7.85608e-09
-4.96385e-15
9.29021e-11
-2.45909e-08
-1.02287e-14
9.15849e-11
-4.34307e-08
-1.16211e-14
6.17338e-11
-6.25479e-08
-1.03271e-14
1.46672e-10
-8.47946e-08
-1.6445e-14
3.88228e-10
-1.10792e-07
-1.4096e-14
9.24688e-10
-1.35146e-07
-1.50352e-14
1.60397e-09
-1.36581e-07
-1.22709e-14
1.31696e-09
-9.06781e-08
-6.57943e-15
-2.45443e-08
-4.53403e-15
1.98894e-11
-7.87597e-09
-5.22729e-15
1.19578e-10
-2.46906e-08
-1.02345e-14
1.09221e-10
-4.34203e-08
-9.84321e-15
1.05471e-10
-6.25441e-08
-1.08008e-14
2.22479e-10
-8.49116e-08
-1.65649e-14
5.01854e-10
-1.11072e-07
-1.47397e-14
1.07535e-09
-1.35719e-07
-1.52647e-14
1.7791e-09
-1.37285e-07
-1.45279e-14
1.45103e-09
-9.035e-08
-8.11647e-15
-2.30933e-08
-2.40078e-15
2.2422e-11
-7.89839e-09
-5.5225e-15
1.42757e-10
-2.48109e-08
-1.0996e-14
1.25442e-10
-4.3403e-08
-1.04519e-14
1.52815e-10
-6.25715e-08
-9.74281e-15
3.04418e-10
-8.50632e-08
-1.66757e-14
6.25687e-10
-1.11393e-07
-1.56371e-14
1.24071e-09
-1.36334e-07
-1.53603e-14
1.97148e-09
-1.38016e-07
-1.45934e-14
1.59927e-09
-8.99778e-08
-6.9933e-15
-2.1494e-08
-4.25852e-15
2.49271e-11
-7.92332e-09
-6.01051e-15
1.58761e-10
-2.49447e-08
-9.78187e-15
1.37981e-10
-4.33822e-08
-1.16001e-14
2.00668e-10
-6.26342e-08
-1.55055e-14
3.8969e-10
-8.52522e-08
-1.64721e-14
7.56955e-10
-1.1176e-07
-1.51084e-14
1.4186e-09
-1.36996e-07
-1.42297e-14
2.18032e-09
-1.38777e-07
-1.69883e-14
1.76259e-09
-8.956e-08
-7.34693e-15
-1.97314e-08
-2.30238e-17
2.71906e-11
-7.95051e-09
-6.46091e-15
1.64698e-10
-2.50822e-08
-1.10453e-14
1.45288e-10
-4.33628e-08
-1.18001e-14
2.46275e-10
-6.27352e-08
-1.40576e-14
4.75039e-10
-8.5481e-08
-1.62439e-14
8.91475e-10
-1.12177e-07
-1.67609e-14
1.60482e-09
-1.37709e-07
-1.33108e-14
2.40328e-09
-1.39576e-07
-1.54657e-14
1.9416e-09
-8.90983e-08
-6.06902e-15
-1.77898e-08
1.27654e-14
2.88913e-11
-7.9794e-09
-7.15011e-15
1.58875e-10
-2.52122e-08
-1.14869e-14
1.46007e-10
-4.335e-08
-1.17443e-14
2.85649e-10
-6.28748e-08
-1.53943e-14