/*--------------------------------*- C++ -*----------------------------------*\
| =========                 |                                                 |
| \\      /  F ield         | OpenFOAM: The Open Source CFD Toolbox           |
|  \\    /   O peration     | Version:  v2012                                 |
|   \\  /    A nd           | Website:  www.openfoam.com                      |
|    \\/     M anipulation  |                                                 |
\*---------------------------------------------------------------------------*/
FoamFile
{
    version     2.0;
    format      ascii;
    class       volScalarField;
    location    "0.1";
    object      p_rgh;
}
// * * * * * * * * * * * * * * * * * * * * * * * * * * * * * * * * * * * * * //

dimensions      [1 -1 -2 0 0 0 0];


internalField   nonuniform List<scalar> 
3352
(
3.49661e+06
3.49763e+06
3.49614e+06
3.49848e+06
3.49679e+06
3.49706e+06
3.49703e+06
3.49949e+06
3.49927e+06
3.49993e+06
3.49948e+06
3.49909e+06
3.49718e+06
3.49612e+06
3.49661e+06
3.49739e+06
3.49805e+06
3.49864e+06
3.49914e+06
3.49957e+06
3.49993e+06
3.50022e+06
3.50046e+06
3.50064e+06
3.50077e+06
3.50086e+06
3.50091e+06
3.50094e+06
3.50094e+06
3.50091e+06
3.50087e+06
3.50081e+06
3.50073e+06
3.50065e+06
3.50055e+06
3.50045e+06
3.50033e+06
3.5002e+06
3.50006e+06
3.49781e+06
3.49987e+06
3.49815e+06
3.50171e+06
3.49916e+06
3.50093e+06
3.50026e+06
3.50084e+06
3.5001e+06
3.50214e+06
3.50106e+06
3.50117e+06
3.49923e+06
3.49823e+06
3.49873e+06
3.4993e+06
3.49953e+06
3.49964e+06
3.49968e+06
3.49972e+06
3.49976e+06
3.4998e+06
3.49986e+06
3.49992e+06
3.49998e+06
3.50004e+06
3.50009e+06
3.50014e+06
3.50018e+06
3.5002e+06
3.50022e+06
3.50022e+06
3.5002e+06
3.50017e+06
3.50013e+06
3.50007e+06
3.49999e+06
3.4999e+06
3.49977e+06
3.49346e+06
3.49512e+06
3.49382e+06
3.49576e+06
3.49418e+06
3.49663e+06
3.49781e+06
3.50073e+06
3.50069e+06
3.50288e+06
3.5019e+06
3.50186e+06
3.49921e+06
3.49706e+06
3.49719e+06
3.49791e+06
3.4984e+06
3.49882e+06
3.49912e+06
3.49936e+06
3.49953e+06
3.49967e+06
3.49977e+06
3.49984e+06
3.49989e+06
3.49992e+06
3.49994e+06
3.49995e+06
3.49995e+06
3.49995e+06
3.49993e+06
3.49991e+06
3.49987e+06
3.49983e+06
3.49978e+06
3.49973e+06
3.49966e+06
3.49958e+06
3.49948e+06
3.49357e+06
3.49468e+06
3.49329e+06
3.49405e+06
3.49325e+06
3.49584e+06
3.49806e+06
3.50178e+06
3.50217e+06
3.50457e+06
3.50363e+06
3.5036e+06
3.5007e+06
3.49809e+06
3.49791e+06
3.49846e+06
3.49878e+06
3.49903e+06
3.49919e+06
3.4993e+06
3.49939e+06
3.49946e+06
3.49951e+06
3.49956e+06
3.49959e+06
3.49962e+06
3.49963e+06
3.49964e+06
3.49964e+06
3.49964e+06
3.49962e+06
3.4996e+06
3.49957e+06
3.49953e+06
3.49949e+06
3.49943e+06
3.49937e+06
3.4993e+06
3.49922e+06
3.49178e+06
3.49125e+06
3.49084e+06
3.48967e+06
3.49066e+06
3.49353e+06
3.49749e+06
3.50237e+06
3.50332e+06
3.50582e+06
3.50504e+06
3.50482e+06
3.50147e+06
3.49816e+06
3.49764e+06
3.49813e+06
3.49845e+06
3.49874e+06
3.49894e+06
3.49909e+06
3.4992e+06
3.49927e+06
3.49932e+06
3.49935e+06
3.49936e+06
3.49937e+06
3.49937e+06
3.49937e+06
3.49936e+06
3.49934e+06
3.49932e+06
3.4993e+06
3.49927e+06
3.49923e+06
3.49919e+06
3.49914e+06
3.49909e+06
3.49903e+06
3.49896e+06
3.49178e+06
3.49189e+06
3.49018e+06
3.48835e+06
3.49021e+06
3.49328e+06
3.49782e+06
3.50329e+06
3.50436e+06
3.50675e+06
3.50621e+06
3.50586e+06
3.50231e+06
3.49864e+06
3.4979e+06
3.4983e+06
3.49854e+06
3.49876e+06
3.4989e+06
3.49899e+06
3.49905e+06
3.49909e+06
3.49911e+06
3.49912e+06
3.49912e+06
3.49911e+06
3.4991e+06
3.49908e+06
3.49907e+06
3.49905e+06
3.49902e+06
3.49899e+06
3.49896e+06
3.49893e+06
3.49889e+06
3.49885e+06
3.4988e+06
3.49875e+06
3.49869e+06
3.49194e+06
3.49479e+06
3.49033e+06
3.49107e+06
3.49119e+06
3.49524e+06
3.49878e+06
3.50414e+06
3.50492e+06
3.50698e+06
3.50672e+06
3.50621e+06
3.50264e+06
3.49867e+06
3.49782e+06
3.4982e+06
3.49843e+06
3.49864e+06
3.49876e+06
3.49884e+06
3.49889e+06
3.4989e+06
3.4989e+06
3.49889e+06
3.49888e+06
3.49885e+06
3.49883e+06
3.4988e+06
3.49878e+06
3.49875e+06
3.49872e+06
3.49869e+06
3.49866e+06
3.49863e+06
3.4986e+06
3.49856e+06
3.49852e+06
3.49848e+06
3.49843e+06
3.49424e+06
3.50276e+06
3.49288e+06
3.49934e+06
3.49499e+06
3.49995e+06
3.50086e+06
3.50512e+06
3.50517e+06
3.50675e+06
3.50676e+06
3.50615e+06
3.50282e+06
3.49875e+06
3.49788e+06
3.49825e+06
3.49845e+06
3.49861e+06
3.49869e+06
3.49873e+06
3.49874e+06
3.49872e+06
3.4987e+06
3.49867e+06
3.49863e+06
3.49859e+06
3.49856e+06
3.49852e+06
3.49849e+06
3.49845e+06
3.49842e+06
3.49839e+06
3.49836e+06
3.49833e+06
3.4983e+06
3.49827e+06
3.49824e+06
3.4982e+06
3.49817e+06
3.49747e+06
3.51103e+06
3.49713e+06
3.50827e+06
3.50022e+06
3.50552e+06
3.50344e+06
3.50608e+06
3.50533e+06
3.5064e+06
3.50664e+06
3.50595e+06
3.503e+06
3.49883e+06
3.49791e+06
3.49825e+06
3.49843e+06
3.49855e+06
3.49859e+06
3.4986e+06
3.49858e+06
3.49854e+06
3.49849e+06
3.49843e+06
3.49838e+06
3.49833e+06
3.49828e+06
3.49823e+06
3.49819e+06
3.49816e+06
3.49812e+06
3.49809e+06
3.49806e+06
3.49803e+06
3.49801e+06
3.49798e+06
3.49795e+06
3.49793e+06
3.4979e+06
3.5009e+06
3.51853e+06
3.50229e+06
3.51747e+06
3.50615e+06
3.51127e+06
3.50632e+06
3.50725e+06
3.50587e+06
3.50648e+06
3.50685e+06
3.50612e+06
3.50354e+06
3.49921e+06
3.49813e+06
3.49838e+06
3.49848e+06
3.49854e+06
3.49852e+06
3.49848e+06
3.49842e+06
3.49834e+06
3.49827e+06
3.49819e+06
3.49812e+06
3.49806e+06
3.498e+06
3.49794e+06
3.4979e+06
3.49786e+06
3.49782e+06
3.49779e+06
3.49776e+06
3.49773e+06
3.49771e+06
3.49769e+06
3.49767e+06
3.49765e+06
3.49764e+06
3.50405e+06
3.52321e+06
3.50699e+06
3.52349e+06
3.51114e+06
3.51542e+06
3.5089e+06
3.5086e+06
3.50702e+06
3.50729e+06
3.50768e+06
3.50692e+06
3.50452e+06
3.4999e+06
3.4985e+06
3.49857e+06
3.49856e+06
3.49852e+06
3.49844e+06
3.49835e+06
3.49824e+06
3.49814e+06
3.49804e+06
3.49794e+06
3.49786e+06
3.49778e+06
3.49771e+06
3.49765e+06
3.4976e+06
3.49755e+06
3.49751e+06
3.49748e+06
3.49746e+06
3.49743e+06
3.49742e+06
3.4974e+06
3.49739e+06
3.49738e+06
3.49737e+06
3.50854e+06
3.52373e+06
3.51055e+06
3.52374e+06
3.51396e+06
3.51713e+06
3.51087e+06
3.51014e+06
3.50871e+06
3.50875e+06
3.50909e+06
3.50825e+06
3.50587e+06
3.50085e+06
3.49898e+06
3.49882e+06
3.49866e+06
3.49852e+06
3.49835e+06
3.4982e+06
3.49806e+06
3.49792e+06
3.49779e+06
3.49768e+06
3.49758e+06
3.49749e+06
3.49741e+06
3.49734e+06
3.49729e+06
3.49724e+06
3.4972e+06
3.49717e+06
3.49715e+06
3.49713e+06
3.49712e+06
3.49711e+06
3.4971e+06
3.4971e+06
3.4971e+06
3.51438e+06
3.52304e+06
3.51318e+06
3.52189e+06
3.51569e+06
3.51765e+06
3.51247e+06
3.51185e+06
3.5106e+06
3.51046e+06
3.51076e+06
3.50975e+06
3.50731e+06
3.50183e+06
3.49947e+06
3.49907e+06
3.49873e+06
3.49848e+06
3.49824e+06
3.49804e+06
3.49785e+06
3.49768e+06
3.49753e+06
3.4974e+06
3.49729e+06
3.49719e+06
3.4971e+06
3.49703e+06
3.49697e+06
3.49693e+06
3.49689e+06
3.49686e+06
3.49684e+06
3.49683e+06
3.49682e+06
3.49682e+06
3.49682e+06
3.49683e+06
3.49683e+06
3.51893e+06
3.523e+06
3.51569e+06
3.52063e+06
3.51742e+06
3.51813e+06
3.51393e+06
3.51348e+06
3.51232e+06
3.5119e+06
3.51226e+06
3.51099e+06
3.50856e+06
3.50264e+06
3.49985e+06
3.49924e+06
3.49876e+06
3.4984e+06
3.49809e+06
3.49784e+06
3.49761e+06
3.49742e+06
3.49725e+06
3.4971e+06
3.49698e+06
3.49687e+06
3.49678e+06
3.49671e+06
3.49665e+06
3.4966e+06
3.49657e+06
3.49654e+06
3.49653e+06
3.49652e+06
3.49652e+06
3.49652e+06
3.49653e+06
3.49655e+06
3.49656e+06
3.52246e+06
3.52456e+06
3.51863e+06
3.52228e+06
3.51983e+06
3.51932e+06
3.51536e+06
3.51473e+06
3.51364e+06
3.51276e+06
3.5133e+06
3.51172e+06
3.50943e+06
3.50316e+06
3.50006e+06
3.49929e+06
3.49869e+06
3.49826e+06
3.49789e+06
3.49759e+06
3.49734e+06
3.49712e+06
3.49694e+06
3.49678e+06
3.49665e+06
3.49654e+06
3.49645e+06
3.49637e+06
3.49631e+06
3.49627e+06
3.49624e+06
3.49622e+06
3.49621e+06
3.49621e+06
3.49622e+06
3.49623e+06
3.49624e+06
3.49627e+06
3.49629e+06
3.5235e+06
3.52747e+06
3.52141e+06
3.52707e+06
3.52269e+06
3.5208e+06
3.51662e+06
3.51532e+06
3.51442e+06
3.51297e+06
3.51376e+06
3.51189e+06
3.50985e+06
3.50338e+06
3.50007e+06
3.4992e+06
3.49852e+06
3.49804e+06
3.49763e+06
3.4973e+06
3.49702e+06
3.49679e+06
3.4966e+06
3.49643e+06
3.4963e+06
3.49619e+06
3.49609e+06
3.49602e+06
3.49597e+06
3.49593e+06
3.4959e+06
3.49589e+06
3.49589e+06
3.49589e+06
3.49591e+06
3.49593e+06
3.49595e+06
3.49598e+06
3.49602e+06
3.52191e+06
3.52893e+06
3.52196e+06
3.5297e+06
3.52406e+06
3.5209e+06
3.51719e+06
3.51506e+06
3.51458e+06
3.51263e+06
3.51369e+06
3.51162e+06
3.50986e+06
3.50336e+06
3.49989e+06
3.49897e+06
3.49825e+06
3.49773e+06
3.4973e+06
3.49695e+06
3.49666e+06
3.49642e+06
3.49623e+06
3.49606e+06
3.49593e+06
3.49582e+06
3.49573e+06
3.49566e+06
3.49561e+06
3.49558e+06
3.49556e+06
3.49556e+06
3.49556e+06
3.49558e+06
3.4956e+06
3.49563e+06
3.49566e+06
3.4957e+06
3.49574e+06
3.52089e+06
3.52679e+06
3.52143e+06
3.52726e+06
3.52339e+06
3.5191e+06
3.51687e+06
3.51406e+06
3.51414e+06
3.51196e+06
3.51322e+06
3.51108e+06
3.50957e+06
3.50316e+06
3.49955e+06
3.49862e+06
3.49787e+06
3.49735e+06
3.4969e+06
3.49655e+06
3.49625e+06
3.49602e+06
3.49582e+06
3.49566e+06
3.49553e+06
3.49542e+06
3.49534e+06
3.49528e+06
3.49524e+06
3.49522e+06
3.49521e+06
3.49521e+06
3.49523e+06
3.49525e+06
3.49528e+06
3.49532e+06
3.49537e+06
3.49542e+06
3.49547e+06
3.52273e+06
3.52136e+06
3.52095e+06
3.52233e+06
3.52166e+06
3.51627e+06
3.51585e+06
3.51268e+06
3.51324e+06
3.51114e+06
3.5125e+06
3.51042e+06
3.50908e+06
3.50285e+06
3.49907e+06
3.49816e+06
3.49738e+06
3.49687e+06
3.49642e+06
3.49608e+06
3.49579e+06
3.49556e+06
3.49538e+06
3.49522e+06
3.4951e+06
3.49501e+06
3.49494e+06
3.49489e+06
3.49486e+06
3.49485e+06
3.49485e+06
3.49487e+06
3.49489e+06
3.49493e+06
3.49497e+06
3.49502e+06
3.49507e+06
3.49513e+06
3.49519e+06
3.52351e+06
3.51473e+06
3.51965e+06
3.51675e+06
3.51896e+06
3.51293e+06
3.51411e+06
3.51104e+06
3.51197e+06
3.51025e+06
3.51158e+06
3.5097e+06
3.50845e+06
3.50241e+06
3.49846e+06
3.49759e+06
3.49679e+06
3.49631e+06
3.49587e+06
3.49555e+06
3.49528e+06
3.49506e+06
3.49489e+06
3.49476e+06
3.49465e+06
3.49457e+06
3.49452e+06
3.49448e+06
3.49447e+06
3.49447e+06
3.49448e+06
3.49451e+06
3.49455e+06
3.49459e+06
3.49465e+06
3.49471e+06
3.49477e+06
3.49484e+06
3.49491e+06
3.52257e+06
3.50649e+06
3.51664e+06
3.5098e+06
3.51492e+06
3.50919e+06
3.51152e+06
3.50916e+06
3.51034e+06
3.50926e+06
3.51045e+06
3.50892e+06
3.50768e+06
3.50181e+06
3.4977e+06
3.49688e+06
3.49609e+06
3.49564e+06
3.49523e+06
3.49494e+06
3.4947e+06
3.49452e+06
3.49437e+06
3.49426e+06
3.49417e+06
3.49411e+06
3.49408e+06
3.49406e+06
3.49406e+06
3.49408e+06
3.4941e+06
3.49415e+06
3.4942e+06
3.49426e+06
3.49432e+06
3.4944e+06
3.49447e+06
3.49455e+06
3.49463e+06
3.51904e+06
3.49709e+06
3.51166e+06
3.50153e+06
3.50934e+06
3.50515e+06
3.50814e+06
3.50705e+06
3.50838e+06
3.50812e+06
3.50907e+06
3.50801e+06
3.50675e+06
3.50099e+06
3.49678e+06
3.49602e+06
3.49526e+06
3.49488e+06
3.49451e+06
3.49427e+06
3.49407e+06
3.49392e+06
3.4938e+06
3.49372e+06
3.49366e+06
3.49363e+06
3.49361e+06
3.49362e+06
3.49364e+06
3.49367e+06
3.49372e+06
3.49378e+06
3.49384e+06
3.49392e+06
3.494e+06
3.49408e+06
3.49417e+06
3.49426e+06
3.49435e+06
3.51329e+06
3.4886e+06
3.50491e+06
3.49363e+06
3.50255e+06
3.50137e+06
3.50439e+06
3.50481e+06
3.50617e+06
3.50675e+06
3.50745e+06
3.50689e+06
3.50559e+06
3.4999e+06
3.49564e+06
3.49498e+06
3.49429e+06
3.49399e+06
3.4937e+06
3.49352e+06
3.49337e+06
3.49327e+06
3.4932e+06
3.49315e+06
3.49312e+06
3.49312e+06
3.49313e+06
3.49316e+06
3.4932e+06
3.49326e+06
3.49332e+06
3.4934e+06
3.49348e+06
3.49357e+06
3.49367e+06
3.49376e+06
3.49386e+06
3.49397e+06
3.49407e+06
3.5062e+06
3.48439e+06
3.49832e+06
3.48873e+06
3.49642e+06
3.49842e+06
3.50089e+06
3.50261e+06
3.50385e+06
3.50511e+06
3.50563e+06
3.50545e+06
3.5041e+06
3.49845e+06
3.49424e+06
3.49372e+06
3.49317e+06
3.49298e+06
3.49278e+06
3.49269e+06
3.49261e+06
3.49257e+06
3.49254e+06
3.49254e+06
3.49255e+06
3.49258e+06
3.49263e+06
3.49268e+06
3.49275e+06
3.49283e+06
3.49292e+06
3.49301e+06
3.49311e+06
3.49322e+06
3.49333e+06
3.49344e+06
3.49356e+06
3.49367e+06
3.49379e+06
3.49906e+06
3.48419e+06
3.49306e+06
3.48714e+06
3.49219e+06
3.49656e+06
3.49794e+06
3.50057e+06
3.50145e+06
3.50316e+06
3.50355e+06
3.50362e+06
3.50224e+06
3.49657e+06
3.49253e+06
3.49223e+06
3.49187e+06
3.49184e+06
3.49176e+06
3.49177e+06
3.49178e+06
3.49181e+06
3.49185e+06
3.49189e+06
3.49195e+06
3.49202e+06
3.4921e+06
3.49219e+06
3.49229e+06
3.49239e+06
3.4925e+06
3.49262e+06
3.49274e+06
3.49287e+06
3.49299e+06
3.49312e+06
3.49325e+06
3.49338e+06
3.49351e+06
3.49187e+06
3.48797e+06
3.48946e+06
3.48859e+06
3.48969e+06
3.49578e+06
3.4954e+06
3.49871e+06
3.49897e+06
3.50086e+06
3.50115e+06
3.50133e+06
3.49998e+06
3.49421e+06
3.49049e+06
3.49051e+06
3.4904e+06
3.49056e+06
3.49064e+06
3.49078e+06
3.49088e+06
3.491e+06
3.49111e+06
3.49121e+06
3.49132e+06
3.49144e+06
3.49156e+06
3.49168e+06
3.49181e+06
3.49194e+06
3.49208e+06
3.49222e+06
3.49236e+06
3.49251e+06
3.49265e+06
3.4928e+06
3.49294e+06
3.49309e+06
3.49322e+06
3.48441e+06
3.49489e+06
3.48715e+06
3.4924e+06
3.48846e+06
3.4957e+06
3.49317e+06
3.4969e+06
3.49637e+06
3.49818e+06
3.49838e+06
3.49855e+06
3.49725e+06
3.49136e+06
3.4882e+06
3.48854e+06
3.48877e+06
3.48915e+06
3.48943e+06
3.4897e+06
3.48993e+06
3.49014e+06
3.49032e+06
3.4905e+06
3.49067e+06
3.49083e+06
3.49099e+06
3.49116e+06
3.49132e+06
3.49148e+06
3.49165e+06
3.49182e+06
3.49198e+06
3.49215e+06
3.49231e+06
3.49248e+06
3.49263e+06
3.49279e+06
3.49294e+06
3.47626e+06
3.50309e+06
3.48528e+06
3.49768e+06
3.48779e+06
3.49573e+06
3.49112e+06
3.49486e+06
3.49358e+06
3.49506e+06
3.49521e+06
3.49529e+06
3.49404e+06
3.48805e+06
3.48568e+06
3.48635e+06
3.487e+06
3.48763e+06
3.48812e+06
3.48856e+06
3.48892e+06
3.48923e+06
3.4895e+06
3.48975e+06
3.48999e+06
3.4902e+06
3.49041e+06
3.49062e+06
3.49082e+06
3.49102e+06
3.49121e+06
3.49141e+06
3.4916e+06
3.49179e+06
3.49197e+06
3.49215e+06
3.49233e+06
3.4925e+06
3.49266e+06
3.46807e+06
3.50967e+06
3.483e+06
3.50213e+06
3.48669e+06
3.49512e+06
3.48894e+06
3.49234e+06
3.49053e+06
3.49148e+06
3.49167e+06
3.49157e+06
3.49042e+06
3.48435e+06
3.48292e+06
3.48399e+06
3.48511e+06
3.48601e+06
3.48674e+06
3.48735e+06
3.48785e+06
3.48828e+06
3.48865e+06
3.48898e+06
3.48928e+06
3.48956e+06
3.48982e+06
3.49007e+06
3.49031e+06
3.49054e+06
3.49077e+06
3.49099e+06
3.49121e+06
3.49142e+06
3.49163e+06
3.49182e+06
3.49202e+06
3.4922e+06
3.49238e+06
3.45966e+06
3.51235e+06
3.47892e+06
3.50353e+06
3.48428e+06
3.49322e+06
3.48638e+06
3.48914e+06
3.48721e+06
3.48752e+06
3.48787e+06
3.48754e+06
3.4865e+06
3.4804e+06
3.48003e+06
3.48151e+06
3.48314e+06
3.48431e+06
3.48531e+06
3.48609e+06
3.48675e+06
3.4873e+06
3.48777e+06
3.48818e+06
3.48855e+06
3.48889e+06
3.48921e+06
3.48951e+06
3.48979e+06
3.49006e+06
3.49032e+06
3.49057e+06
3.49082e+06
3.49105e+06
3.49128e+06
3.4915e+06
3.49171e+06
3.49191e+06
3.4921e+06
3.45049e+06
3.50978e+06
3.47172e+06
3.50001e+06
3.48017e+06
3.4897e+06
3.48345e+06
3.48527e+06
3.4837e+06
3.48335e+06
3.48397e+06
3.48338e+06
3.48243e+06
3.47635e+06
3.4771e+06
3.47897e+06
3.48113e+06
3.48257e+06
3.48383e+06
3.4848e+06
3.48561e+06
3.48629e+06
3.48686e+06
3.48736e+06
3.48781e+06
3.48822e+06
3.48859e+06
3.48894e+06
3.48926e+06
3.48958e+06
3.48987e+06
3.49015e+06
3.49043e+06
3.49069e+06
3.49093e+06
3.49117e+06
3.4914e+06
3.49162e+06
3.49182e+06
3.4423e+06
3.50259e+06
3.46207e+06
3.49188e+06
3.47529e+06
3.485e+06
3.48061e+06
3.4811e+06
3.48026e+06
3.47923e+06
3.48018e+06
3.47932e+06
3.47842e+06
3.47237e+06
3.47424e+06
3.47647e+06
3.47913e+06
3.48083e+06
3.48235e+06
3.48349e+06
3.48446e+06
3.48526e+06
3.48594e+06
3.48653e+06
3.48706e+06
3.48753e+06
3.48796e+06
3.48836e+06
3.48873e+06
3.48909e+06
3.48942e+06
3.48973e+06
3.49003e+06
3.49032e+06
3.49059e+06
3.49085e+06
3.49109e+06
3.49133e+06
3.49154e+06
3.43813e+06
3.49267e+06
3.45353e+06
3.48239e+06
3.47194e+06
3.48047e+06
3.47874e+06
3.47734e+06
3.47725e+06
3.47549e+06
3.4767e+06
3.47558e+06
3.47469e+06
3.46864e+06
3.4715e+06
3.47405e+06
3.47717e+06
3.4791e+06
3.48086e+06
3.48218e+06
3.4833e+06
3.48422e+06
3.48501e+06
3.48569e+06
3.48629e+06
3.48683e+06
3.48733e+06
3.48778e+06
3.4882e+06
3.48859e+06
3.48896e+06
3.48931e+06
3.48964e+06
3.48995e+06
3.49025e+06
3.49052e+06
3.49079e+06
3.49104e+06
3.49127e+06
3.44179e+06
3.48334e+06
3.4522e+06
3.47558e+06
3.47273e+06
3.4779e+06
3.47877e+06
3.47472e+06
3.47502e+06
3.47235e+06
3.47363e+06
3.47234e+06
3.47145e+06
3.46531e+06
3.46896e+06
3.47179e+06
3.47529e+06
3.47743e+06
3.47941e+06
3.48088e+06
3.48214e+06
3.48318e+06
3.48407e+06
3.48484e+06
3.48552e+06
3.48613e+06
3.48669e+06
3.4872e+06
3.48766e+06
3.4881e+06
3.48851e+06
3.48889e+06
3.48925e+06
3.48959e+06
3.4899e+06
3.4902e+06
3.49049e+06
3.49075e+06
3.491e+06
3.45874e+06
3.47715e+06
3.46162e+06
3.47379e+06
3.47875e+06
3.47859e+06
3.48145e+06
3.47354e+06
3.4737e+06
3.46993e+06
3.47111e+06
3.46962e+06
3.46871e+06
3.4624e+06
3.46664e+06
3.46971e+06
3.47351e+06
3.47584e+06
3.478e+06
3.47961e+06
3.481e+06
3.48215e+06
3.48314e+06
3.484e+06
3.48475e+06
3.48543e+06
3.48605e+06
3.48661e+06
3.48713e+06
3.48761e+06
3.48806e+06
3.48847e+06
3.48886e+06
3.48922e+06
3.48957e+06
3.48989e+06
3.49019e+06
3.49047e+06
3.49073e+06
3.4911e+06
3.47288e+06
3.48056e+06
3.47579e+06
3.48891e+06
3.48247e+06
3.48594e+06
3.47407e+06
3.4733e+06
3.46828e+06
3.46923e+06
3.46734e+06
3.46634e+06
3.45991e+06
3.46456e+06
3.46785e+06
3.47186e+06
3.47433e+06
3.47664e+06
3.47838e+06
3.47988e+06
3.48113e+06
3.48221e+06
3.48315e+06
3.48399e+06
3.48474e+06
3.48541e+06
3.48603e+06
3.4866e+06
3.48712e+06
3.48761e+06
3.48806e+06
3.48847e+06
3.48887e+06
3.48923e+06
3.48957e+06
3.48989e+06
3.49019e+06
3.49046e+06
3.53835e+06
3.46595e+06
3.508e+06
3.47835e+06
3.50118e+06
3.4874e+06
3.4912e+06
3.47555e+06
3.47341e+06
3.46731e+06
3.46787e+06
3.46545e+06
3.46441e+06
3.45792e+06
3.46278e+06
3.46624e+06
3.47037e+06
3.47295e+06
3.47536e+06
3.47719e+06
3.4788e+06
3.48013e+06
3.4813e+06
3.48232e+06
3.48323e+06
3.48405e+06
3.48479e+06
3.48546e+06
3.48607e+06
3.48664e+06
3.48716e+06
3.48764e+06
3.48809e+06
3.48851e+06
3.4889e+06
3.48926e+06
3.4896e+06
3.48991e+06
3.4902e+06
3.58933e+06
3.45054e+06
3.53722e+06
3.47677e+06
3.51066e+06
3.48985e+06
3.49394e+06
3.47655e+06
3.4734e+06
3.46675e+06
3.46703e+06
3.46402e+06
3.46305e+06
3.45664e+06
3.46139e+06
3.46494e+06
3.46905e+06
3.47169e+06
3.47415e+06
3.47606e+06
3.47774e+06
3.47916e+06
3.48041e+06
3.48151e+06
3.48249e+06
3.48337e+06
3.48416e+06
3.48489e+06
3.48555e+06
3.48616e+06
3.48672e+06
3.48724e+06
3.48772e+06
3.48816e+06
3.48858e+06
3.48896e+06
3.48931e+06
3.48964e+06
3.48994e+06
3.62787e+06
3.41973e+06
3.55515e+06
3.46849e+06
3.51033e+06
3.48516e+06
3.49004e+06
3.47503e+06
3.47255e+06
3.46663e+06
3.4669e+06
3.46345e+06
3.46253e+06
3.45624e+06
3.46048e+06
3.46398e+06
3.46793e+06
3.47056e+06
3.47303e+06
3.47499e+06
3.47673e+06
3.47822e+06
3.47954e+06
3.48071e+06
3.48176e+06
3.4827e+06
3.48355e+06
3.48433e+06
3.48504e+06
3.48569e+06
3.48629e+06
3.48684e+06
3.48735e+06
3.48782e+06
3.48826e+06
3.48866e+06
3.48903e+06
3.48937e+06
3.48969e+06
3.61277e+06
3.3999e+06
3.53782e+06
3.45821e+06
3.49494e+06
3.47133e+06
3.47636e+06
3.46922e+06
3.47071e+06
3.46711e+06
3.46796e+06
3.46445e+06
3.46328e+06
3.45682e+06
3.46009e+06
3.46334e+06
3.467e+06
3.46955e+06
3.47198e+06
3.47396e+06
3.47575e+06
3.4773e+06
3.47869e+06
3.47993e+06
3.48104e+06
3.48205e+06
3.48296e+06
3.48379e+06
3.48454e+06
3.48524e+06
3.48587e+06
3.48645e+06
3.48699e+06
3.48749e+06
3.48794e+06
3.48836e+06
3.48875e+06
3.48911e+06
3.48944e+06
3.54304e+06
3.41342e+06
3.49429e+06
3.45013e+06
3.46763e+06
3.45008e+06
3.45355e+06
3.45861e+06
3.46822e+06
3.46849e+06
3.47066e+06
3.46783e+06
3.46567e+06
3.45825e+06
3.46015e+06
3.46295e+06
3.4662e+06
3.46862e+06
3.47099e+06
3.47298e+06
3.47481e+06
3.47641e+06
3.47787e+06
3.47917e+06
3.48035e+06
3.48141e+06
3.48238e+06
3.48326e+06
3.48406e+06
3.48479e+06
3.48546e+06
3.48608e+06
3.48664e+06
3.48716e+06
3.48764e+06
3.48808e+06
3.48848e+06
3.48886e+06
3.4892e+06
3.44103e+06
3.43727e+06
3.44262e+06
3.44083e+06
3.43661e+06
3.42598e+06
3.42766e+06
3.44538e+06
3.46611e+06
3.47123e+06
3.4752e+06
3.47371e+06
3.46974e+06
3.45998e+06
3.46039e+06
3.4626e+06
3.46543e+06
3.46772e+06
3.47001e+06
3.47201e+06
3.47388e+06
3.47555e+06
3.47706e+06
3.47843e+06
3.47967e+06
3.4808e+06
3.48182e+06
3.48274e+06
3.48359e+06
3.48436e+06
3.48506e+06
3.48571e+06
3.4863e+06
3.48684e+06
3.48734e+06
3.4878e+06
3.48822e+06
3.48861e+06
3.48896e+06
3.39575e+06
3.445e+06
3.41104e+06
3.43249e+06
3.41853e+06
3.41059e+06
3.41253e+06
3.43646e+06
3.46652e+06
3.47585e+06
3.48101e+06
3.48128e+06
3.47464e+06
3.46122e+06
3.46039e+06
3.46205e+06
3.46456e+06
3.46675e+06
3.46901e+06
3.42137e+06
3.45601e+06
3.42383e+06
3.43433e+06
3.42462e+06
3.41549e+06
3.4191e+06
3.43963e+06
3.47076e+06
3.48174e+06
3.48618e+06
3.48822e+06
3.47841e+06
3.46113e+06
3.45961e+06
3.46104e+06
3.46345e+06
3.48803e+06
3.49172e+06
3.49661e+06
3.49763e+06
3.49614e+06
3.49848e+06
3.49679e+06
3.49706e+06
3.49703e+06
3.49949e+06
3.49927e+06
3.49993e+06
3.49948e+06
3.49909e+06
3.49718e+06
3.49612e+06
3.49661e+06
3.49739e+06
3.49805e+06
3.49864e+06
3.49914e+06
3.49957e+06
3.49993e+06
3.50022e+06
3.50046e+06
3.50064e+06
3.50077e+06
3.50086e+06
3.50091e+06
3.50094e+06
3.50094e+06
3.50091e+06
3.50087e+06
3.50081e+06
3.50073e+06
3.50065e+06
3.50055e+06
3.50045e+06
3.50033e+06
3.5002e+06
3.50006e+06
3.49781e+06
3.49987e+06
3.49815e+06
3.50171e+06
3.49916e+06
3.50093e+06
3.50026e+06
3.50084e+06
3.5001e+06
3.50214e+06
3.50106e+06
3.50117e+06
3.49923e+06
3.49823e+06
3.49873e+06
3.4993e+06
3.49953e+06
3.49964e+06
3.49968e+06
3.49972e+06
3.49976e+06
3.4998e+06
3.49986e+06
3.49992e+06
3.49998e+06
3.50004e+06
3.50009e+06
3.50014e+06
3.50018e+06
3.5002e+06
3.50022e+06
3.50022e+06
3.5002e+06
3.50017e+06
3.50013e+06
3.50007e+06
3.49999e+06
3.4999e+06
3.49977e+06
3.49346e+06
3.49512e+06
3.49382e+06
3.49576e+06
3.49418e+06
3.49663e+06
3.49781e+06
3.50073e+06
3.50069e+06
3.50288e+06
3.5019e+06
3.50186e+06
3.49921e+06
3.49706e+06
3.49719e+06
3.49791e+06
3.4984e+06
3.49882e+06
3.49912e+06
3.49936e+06
3.49953e+06
3.49967e+06
3.49977e+06
3.49984e+06
3.49989e+06
3.49992e+06
3.49994e+06
3.49995e+06
3.49995e+06
3.49995e+06
3.49993e+06
3.49991e+06
3.49987e+06
3.49983e+06
3.49978e+06
3.49973e+06
3.49966e+06
3.49958e+06
3.49948e+06
3.49357e+06
3.49468e+06
3.49329e+06
3.49405e+06
3.49325e+06
3.49584e+06
3.49806e+06
3.50178e+06
3.50217e+06
3.50457e+06
3.50363e+06
3.5036e+06
3.5007e+06
3.49809e+06
3.49791e+06
3.49846e+06
3.49878e+06
3.49903e+06
3.49919e+06
3.4993e+06
3.49939e+06
3.49946e+06
3.49951e+06
3.49956e+06
3.49959e+06
3.49962e+06
3.49963e+06
3.49964e+06
3.49964e+06
3.49964e+06
3.49962e+06
3.4996e+06
3.49957e+06
3.49953e+06
3.49949e+06
3.49943e+06
3.49937e+06
3.4993e+06
3.49922e+06
3.49178e+06
3.49125e+06
3.49084e+06
3.48967e+06
3.49066e+06
3.49353e+06
3.49749e+06
3.50237e+06
3.50332e+06
3.50582e+06
3.50504e+06
3.50482e+06
3.50147e+06
3.49816e+06
3.49764e+06
3.49813e+06
3.49845e+06
3.49874e+06
3.49894e+06
3.49909e+06
3.4992e+06
3.49927e+06
3.49932e+06
3.49935e+06
3.49936e+06
3.49937e+06
3.49937e+06
3.49937e+06
3.49936e+06
3.49934e+06
3.49932e+06
3.4993e+06
3.49927e+06
3.49923e+06
3.49919e+06
3.49914e+06
3.49909e+06
3.49903e+06
3.49896e+06
3.49178e+06
3.49189e+06
3.49018e+06
3.48835e+06
3.49021e+06
3.49328e+06
3.49782e+06
3.50329e+06
3.50436e+06
3.50675e+06
3.50621e+06
3.50586e+06
3.50231e+06
3.49864e+06
3.4979e+06
3.4983e+06
3.49854e+06
3.49876e+06
3.4989e+06
3.49899e+06
3.49905e+06
3.49909e+06
3.49911e+06
3.49912e+06
3.49912e+06
3.49911e+06
3.4991e+06
3.49908e+06
3.49907e+06
3.49905e+06
3.49902e+06
3.49899e+06
3.49896e+06
3.49893e+06
3.49889e+06
3.49885e+06
3.4988e+06
3.49875e+06
3.49869e+06
3.49194e+06
3.49479e+06
3.49033e+06
3.49107e+06
3.49119e+06
3.49524e+06
3.49878e+06
3.50414e+06
3.50492e+06
3.50698e+06
3.50672e+06
3.50621e+06
3.50264e+06
3.49867e+06
3.49782e+06
3.4982e+06
3.49843e+06
3.49864e+06
3.49876e+06
3.49884e+06
3.49889e+06
3.4989e+06
3.4989e+06
3.49889e+06
3.49888e+06
3.49885e+06
3.49883e+06
3.4988e+06
3.49878e+06
3.49875e+06
3.49872e+06
3.49869e+06
3.49866e+06
3.49863e+06
3.4986e+06
3.49856e+06
3.49852e+06
3.49848e+06
3.49843e+06
3.49424e+06
3.50276e+06
3.49288e+06
3.49934e+06
3.49499e+06
3.49995e+06
3.50086e+06
3.50512e+06
3.50517e+06
3.50675e+06
3.50676e+06
3.50615e+06
3.50282e+06
3.49875e+06
3.49788e+06
3.49825e+06
3.49845e+06
3.49861e+06
3.49869e+06
3.49873e+06
3.49874e+06
3.49872e+06
3.4987e+06
3.49867e+06
3.49863e+06
3.49859e+06
3.49856e+06
3.49852e+06
3.49849e+06
3.49845e+06
3.49842e+06
3.49839e+06
3.49836e+06
3.49833e+06
3.4983e+06
3.49827e+06
3.49824e+06
3.4982e+06
3.49817e+06
3.49747e+06
3.51103e+06
3.49713e+06
3.50827e+06
3.50022e+06
3.50552e+06
3.50344e+06
3.50608e+06
3.50533e+06
3.5064e+06
3.50664e+06
3.50595e+06
3.503e+06
3.49883e+06
3.49791e+06
3.49825e+06
3.49843e+06
3.49855e+06
3.49859e+06
3.4986e+06
3.49858e+06
3.49854e+06
3.49849e+06
3.49843e+06
3.49838e+06
3.49833e+06
3.49828e+06
3.49823e+06
3.49819e+06
3.49816e+06
3.49812e+06
3.49809e+06
3.49806e+06
3.49803e+06
3.49801e+06
3.49798e+06
3.49795e+06
3.49793e+06
3.4979e+06
3.5009e+06
3.51853e+06
3.50229e+06
3.51747e+06
3.50615e+06
3.51127e+06
3.50632e+06
3.50725e+06
3.50587e+06
3.50648e+06
3.50685e+06
3.50612e+06
3.50354e+06
3.49921e+06
3.49813e+06
3.49838e+06
3.49848e+06
3.49854e+06
3.49852e+06
3.49848e+06
3.49842e+06
3.49834e+06
3.49827e+06
3.49819e+06
3.49812e+06
3.49806e+06
3.498e+06
3.49794e+06
3.4979e+06
3.49786e+06
3.49782e+06
3.49779e+06
3.49776e+06
3.49773e+06
3.49771e+06
3.49769e+06
3.49767e+06
3.49765e+06
3.49764e+06
3.50405e+06
3.52321e+06
3.50699e+06
3.52349e+06
3.51114e+06
3.51542e+06
3.5089e+06
3.5086e+06
3.50702e+06
3.50729e+06
3.50768e+06
3.50692e+06
3.50452e+06
3.4999e+06
3.4985e+06
3.49857e+06
3.49856e+06
3.49852e+06
3.49844e+06
3.49835e+06
3.49824e+06
3.49814e+06
3.49804e+06
3.49794e+06
3.49786e+06
3.49778e+06
3.49771e+06
3.49765e+06
3.4976e+06
3.49755e+06
3.49751e+06
3.49748e+06
3.49746e+06
3.49743e+06
3.49742e+06
3.4974e+06
3.49739e+06
3.49738e+06
3.49737e+06
3.50854e+06
3.52373e+06
3.51055e+06
3.52374e+06
3.51396e+06
3.51713e+06
3.51087e+06
3.51014e+06
3.50871e+06
3.50875e+06
3.50909e+06
3.50825e+06
3.50587e+06
3.50085e+06
3.49898e+06
3.49882e+06
3.49866e+06
3.49852e+06
3.49835e+06
3.4982e+06
3.49806e+06
3.49792e+06
3.49779e+06
3.49768e+06
3.49758e+06
3.49749e+06
3.49741e+06
3.49734e+06
3.49729e+06
3.49724e+06
3.4972e+06
3.49717e+06
3.49715e+06
3.49713e+06
3.49712e+06
3.49711e+06
3.4971e+06
3.4971e+06
3.4971e+06
3.51438e+06
3.52304e+06
3.51318e+06
3.52189e+06
3.51569e+06
3.51765e+06
3.51247e+06
3.51185e+06
3.5106e+06
3.51046e+06
3.51076e+06
3.50975e+06
3.50731e+06
3.50183e+06
3.49947e+06
3.49907e+06
3.49873e+06
3.49848e+06
3.49824e+06
3.49804e+06
3.49785e+06
3.49768e+06
3.49753e+06
3.4974e+06
3.49729e+06
3.49719e+06
3.4971e+06
3.49703e+06
3.49697e+06
3.49693e+06
3.49689e+06
3.49686e+06
3.49684e+06
3.49683e+06
3.49682e+06
3.49682e+06
3.49682e+06
3.49683e+06
3.49683e+06
3.51893e+06
3.523e+06
3.51569e+06
3.52063e+06
3.51742e+06
3.51813e+06
3.51393e+06
3.51348e+06
3.51232e+06
3.5119e+06
3.51226e+06
3.51099e+06
3.50856e+06
3.50264e+06
3.49985e+06
3.49924e+06
3.49876e+06
3.4984e+06
3.49809e+06
3.49784e+06
3.49761e+06
3.49742e+06
3.49725e+06
3.4971e+06
3.49698e+06
3.49687e+06
3.49678e+06
3.49671e+06
3.49665e+06
3.4966e+06
3.49657e+06
3.49654e+06
3.49653e+06
3.49652e+06
3.49652e+06
3.49652e+06
3.49653e+06
3.49655e+06
3.49656e+06
3.52246e+06
3.52456e+06
3.51863e+06
3.52228e+06
3.51983e+06
3.51932e+06
3.51536e+06
3.51473e+06
3.51364e+06
3.51276e+06
3.5133e+06
3.51172e+06
3.50943e+06
3.50316e+06
3.50006e+06
3.49929e+06
3.49869e+06
3.49826e+06
3.49789e+06
3.49759e+06
3.49734e+06
3.49712e+06
3.49694e+06
3.49678e+06
3.49665e+06
3.49654e+06
3.49645e+06
3.49637e+06
3.49631e+06
3.49627e+06
3.49624e+06
3.49622e+06
3.49621e+06
3.49621e+06
3.49622e+06
3.49623e+06
3.49624e+06
3.49627e+06
3.49629e+06
3.5235e+06
3.52747e+06
3.52141e+06
3.52707e+06
3.52269e+06
3.5208e+06
3.51662e+06
3.51532e+06
3.51442e+06
3.51297e+06
3.51376e+06
3.51189e+06
3.50985e+06
3.50338e+06
3.50007e+06
3.4992e+06
3.49852e+06
3.49804e+06
3.49763e+06
3.4973e+06
3.49702e+06
3.49679e+06
3.4966e+06
3.49643e+06
3.4963e+06
3.49619e+06
3.49609e+06
3.49602e+06
3.49597e+06
3.49593e+06
3.4959e+06
3.49589e+06
3.49589e+06
3.49589e+06
3.49591e+06
3.49593e+06
3.49595e+06
3.49598e+06
3.49602e+06
3.52191e+06
3.52893e+06
3.52196e+06
3.5297e+06
3.52406e+06
3.5209e+06
3.51719e+06
3.51506e+06
3.51458e+06
3.51263e+06
3.51369e+06
3.51162e+06
3.50986e+06
3.50336e+06
3.49989e+06
3.49897e+06
3.49825e+06
3.49773e+06
3.4973e+06
3.49695e+06
3.49666e+06
3.49642e+06
3.49623e+06
3.49606e+06
3.49593e+06
3.49582e+06
3.49573e+06
3.49566e+06
3.49561e+06
3.49558e+06
3.49556e+06
3.49556e+06
3.49556e+06
3.49558e+06
3.4956e+06
3.49563e+06
3.49566e+06
3.4957e+06
3.49574e+06
3.52089e+06
3.52679e+06
3.52143e+06
3.52726e+06
3.52339e+06
3.5191e+06
3.51687e+06
3.51406e+06
3.51414e+06
3.51196e+06
3.51322e+06
3.51108e+06
3.50957e+06
3.50316e+06
3.49955e+06
3.49862e+06
3.49787e+06
3.49735e+06
3.4969e+06
3.49655e+06
3.49625e+06
3.49602e+06
3.49582e+06
3.49566e+06
3.49553e+06
3.49542e+06
3.49534e+06
3.49528e+06
3.49524e+06
3.49522e+06
3.49521e+06
3.49521e+06
3.49523e+06
3.49525e+06
3.49528e+06
3.49532e+06
3.49537e+06
3.49542e+06
3.49547e+06
3.52273e+06
3.52136e+06
3.52095e+06
3.52233e+06
3.52166e+06
3.51627e+06
3.51585e+06
3.51268e+06
3.51324e+06
3.51114e+06
3.5125e+06
3.51042e+06
3.50908e+06
3.50285e+06
3.49907e+06
3.49816e+06
3.49738e+06
3.49687e+06
3.49642e+06
3.49608e+06
3.49579e+06
3.49556e+06
3.49538e+06
3.49522e+06
3.4951e+06
3.49501e+06
3.49494e+06
3.49489e+06
3.49486e+06
3.49485e+06
3.49485e+06
3.49487e+06
3.49489e+06
3.49493e+06
3.49497e+06
3.49502e+06
3.49507e+06
3.49513e+06
3.49519e+06
3.52351e+06
3.51473e+06
3.51965e+06
3.51675e+06
3.51896e+06
3.51293e+06
3.51411e+06
3.51104e+06
3.51197e+06
3.51025e+06
3.51158e+06
3.5097e+06
3.50845e+06
3.50241e+06
3.49846e+06
3.49759e+06
3.49679e+06
3.49631e+06
3.49587e+06
3.49555e+06
3.49528e+06
3.49506e+06
3.49489e+06
3.49476e+06
3.49465e+06
3.49457e+06
3.49452e+06
3.49448e+06
3.49447e+06
3.49447e+06
3.49448e+06
3.49451e+06