/*--------------------------------*- C++ -*----------------------------------*\
| =========                 |                                                 |
| \\      /  F ield         | OpenFOAM: The Open Source CFD Toolbox           |
|  \\    /   O peration     | Version:  v2012                                 |
|   \\  /    A nd           | Website:  www.openfoam.com                      |
|    \\/     M anipulation  |                                                 |
\*---------------------------------------------------------------------------*/
FoamFile
{
    version     2.0;
    format      ascii;
    class       surfaceScalarField;
    location    "0.1";
    object      phi;
}
// * * * * * * * * * * * * * * * * * * * * * * * * * * * * * * * * * * * * * //

dimensions      [0 3 -1 0 0 0 0];
oriented        oriented;


internalField   nonuniform List<scalar> 
8212
(
1.31783e-12
-4.22939e-11
-7.75256e-16
4.22462e-12
-2.15842e-10
-3.4797e-15
7.51443e-12
-5.62222e-10
-8.03142e-15
1.36096e-10
-2.38995e-09
-2.85967e-14
4.40118e-10
-2.80412e-08
-6.97901e-15
1.43483e-09
-7.12017e-08
2.88368e-15
2.27918e-09
-1.12225e-07
-2.58751e-15
1.97666e-09
-1.29785e-07
-1.20451e-14
1.83058e-09
-1.2511e-07
-1.2377e-14
2.83092e-09
-1.01146e-07
-2.08722e-14
3.19952e-09
-8.39701e-08
-1.14431e-14
3.28259e-09
-9.08577e-08
-4.33652e-16
3.37739e-09
-1.00676e-07
-1.24042e-15
3.48286e-09
-1.09998e-07
-6.50447e-16
3.59064e-09
-1.18272e-07
-1.03695e-15
3.69152e-09
-1.25314e-07
-1.06582e-15
3.77778e-09
-1.314e-07
-1.01261e-15
3.84498e-09
-1.36859e-07
-1.25063e-15
3.89004e-09
-1.41879e-07
-1.1098e-15
3.91e-09
-1.46526e-07
-1.08647e-15
3.90194e-09
-1.50796e-07
-1.16411e-15
3.863e-09
-1.54643e-07
-1.18351e-15
3.79062e-09
-1.57955e-07
-1.20129e-15
3.68262e-09
-1.6065e-07
-1.24448e-15
3.53735e-09
-1.62595e-07
-1.25916e-15
3.35387e-09
-1.63685e-07
-1.26502e-15
3.13196e-09
-1.63803e-07
-1.26035e-15
2.87243e-09
-1.6282e-07
-1.23567e-15
2.57701e-09
-1.60659e-07
-1.21021e-15
2.2487e-09
-1.57185e-07
-1.28029e-15
1.89175e-09
-1.52318e-07
-1.07096e-15
1.51192e-09
-1.45962e-07
-9.53478e-16
1.11664e-09
-1.38025e-07
-8.89738e-16
7.15198e-10
-1.28429e-07
-8.25389e-16
3.19164e-10
-1.17102e-07
-7.59044e-16
-5.71421e-11
-1.03986e-07
-6.90797e-16
-3.95546e-10
-8.90274e-08
-6.19177e-16
-6.72709e-10
-7.22008e-08
-5.43162e-16
-5.34961e-08
-4.57743e-16
1.05398e-12
-4.33479e-11
-3.91077e-16
1.39233e-12
-2.16179e-10
-1.89375e-15
-1.43463e-11
-5.46487e-10
-7.01372e-15
2.83101e-11
-2.43259e-09
-5.06226e-14
3.78319e-10
-2.83912e-08
-3.46715e-14
1.83751e-09
-7.26608e-08
7.4606e-15
2.61307e-09
-1.13e-07
1.12994e-15
1.72707e-09
-1.28899e-07
-3.11901e-14
1.31814e-09
-1.24701e-07
1.85849e-15
2.7775e-09
-1.02605e-07
-8.70243e-15
3.27359e-09
-8.44663e-08
-1.70867e-14
3.33191e-09
-9.0916e-08
1.05076e-15
3.42222e-09
-1.00766e-07
-1.11964e-15
3.53772e-09
-1.10114e-07
-6.72927e-16
3.66086e-09
-1.18395e-07
-8.71588e-16
3.77556e-09
-1.25428e-07
-1.07445e-15
3.86978e-09
-1.31494e-07
-9.66828e-16
3.93872e-09
-1.36928e-07
-1.18005e-15
3.98059e-09
-1.41921e-07
-1.3499e-15
3.99388e-09
-1.46539e-07
-1.3818e-15
3.9769e-09
-1.50779e-07
-1.31511e-15
3.92771e-09
-1.54593e-07
-1.30622e-15
3.84438e-09
-1.57872e-07
-1.35303e-15
3.72514e-09
-1.60531e-07
-1.39881e-15
3.56864e-09
-1.62439e-07
-1.39329e-15
3.3741e-09
-1.6349e-07
-1.36256e-15
3.14144e-09
-1.6357e-07
-1.32691e-15
2.87154e-09
-1.6255e-07
-1.27303e-15
2.5662e-09
-1.60354e-07
-1.23082e-15
2.22844e-09
-1.56848e-07
-1.18739e-15
1.86252e-09
-1.51952e-07
-9.60619e-16
1.47419e-09
-1.45574e-07
-9.54376e-16
1.07079e-09
-1.37621e-07
-8.94055e-16
6.61487e-10
-1.2802e-07
-8.29778e-16
2.57563e-10
-1.16698e-07
-7.64253e-16
-1.27197e-10
-1.03601e-07
-6.97494e-16
-4.75761e-10
-8.86788e-08
-6.27328e-16
-7.67333e-10
-7.19093e-08
-5.52318e-16
-5.32885e-08
-4.64079e-16
5.04878e-13
-4.38528e-11
4.70073e-16
-4.09439e-13
-2.15266e-10
1.83655e-15
-1.70175e-11
-5.29882e-10
1.68123e-15
6.23402e-12
-2.45589e-09
-9.34642e-14
5.29809e-10
-2.89148e-08
-6.70006e-14
2.06187e-09
-7.41929e-08
-2.89546e-15
2.43777e-09
-1.13376e-07
-1.72047e-14
1.50617e-09
-1.27968e-07
-2.77741e-14
1.26994e-09
-1.24465e-07
-5.80331e-16
2.81819e-09
-1.04153e-07
4.8452e-15
3.46631e-09
-8.51145e-08
-1.39221e-14
3.52717e-09
-9.09769e-08
6.33584e-17
3.57836e-09
-1.00817e-07
-1.27669e-15
3.65858e-09
-1.10194e-07
-1.00202e-15
3.75917e-09
-1.18496e-07
-1.04756e-15
3.86372e-09
-1.25533e-07
-1.12023e-15
3.95533e-09
-1.31585e-07
-1.1041e-15
4.02479e-09
-1.36998e-07
-1.19998e-15
4.06739e-09
-1.41963e-07
-1.24678e-15
4.07999e-09
-1.46552e-07
-1.14159e-15
4.06016e-09
-1.50759e-07
-1.13569e-15
4.00568e-09
-1.54539e-07
-1.16665e-15
3.91472e-09
-1.57781e-07
-1.23082e-15
3.78574e-09
-1.60402e-07
-1.30541e-15
3.61773e-09
-1.62271e-07
-1.33901e-15
3.41022e-09
-1.63283e-07
-1.32936e-15
3.16348e-09
-1.63323e-07
-1.31581e-15
2.87868e-09
-1.62266e-07
-1.26692e-15
2.55789e-09
-1.60033e-07
-1.22909e-15
2.20436e-09
-1.56494e-07
-1.21818e-15
1.82253e-09
-1.5157e-07
-9.84321e-16
1.41826e-09
-1.45169e-07
-9.4424e-16
9.98901e-10
-1.37202e-07
-8.82716e-16
5.73501e-10
-1.27595e-07
-8.19538e-16
1.52977e-10
-1.16278e-07
-7.55935e-16
-2.49711e-10
-1.03198e-07
-6.92168e-16
-6.19269e-10
-8.83093e-08
-6.25354e-16
-9.3854e-10
-7.159e-08
-5.54093e-16
-5.30381e-08
-4.67329e-16
5.50178e-13
-4.44029e-11
8.51874e-16
3.43573e-13
-2.15059e-10
3.4455e-15
-4.4325e-12
-5.25109e-10
2.09821e-15
9.44442e-11
-2.55481e-09
-1.48261e-13
9.21109e-10
-2.97415e-08
-7.33529e-14
2.55506e-09
-7.58269e-08
-2.29202e-14
2.68202e-09
-1.13503e-07
-1.18523e-14
1.74185e-09
-1.27028e-07
-1.77693e-14
1.53841e-09
-1.24262e-07
-1.33198e-14
3.00737e-09
-1.05622e-07
5.24822e-15
3.63695e-09
-8.57442e-08
7.9543e-15
3.69913e-09
-9.1039e-08
8.32864e-16
3.74207e-09
-1.0086e-07
-1.14835e-15
3.81251e-09
-1.10265e-07
-1.13732e-15
3.90587e-09
-1.18589e-07
-1.16713e-15
4.00636e-09
-1.25633e-07
-1.19803e-15
4.09526e-09
-1.31674e-07
-1.20494e-15
4.16162e-09
-1.37064e-07
-1.12308e-15
4.19961e-09
-1.42001e-07
-1.35263e-15
4.20556e-09
-1.46558e-07
-1.2983e-15
4.17682e-09
-1.5073e-07
-1.37338e-15
4.11124e-09
-1.54473e-07
-1.38727e-15
4.00713e-09
-1.57677e-07
-1.38311e-15
3.86315e-09
-1.60258e-07
-1.38908e-15
3.67852e-09
-1.62086e-07
-1.37947e-15
3.45302e-09
-1.63057e-07
-1.34236e-15
3.18715e-09
-1.63057e-07
-1.31827e-15
2.88234e-09
-1.61961e-07
-1.26078e-15
2.54088e-09
-1.59692e-07
-1.22124e-15
2.16621e-09
-1.5612e-07
-1.20692e-15
1.76296e-09
-1.51167e-07
-9.67697e-16
1.33707e-09
-1.44743e-07
-9.30994e-16
8.95936e-10
-1.36761e-07
-8.70678e-16
4.48422e-10
-1.27147e-07
-8.09163e-16
5.00818e-12
-1.15834e-07
-7.47659e-16
-4.22273e-10
-1.02771e-07
-6.86582e-16
-8.19962e-10
-8.79116e-08
-6.2254e-16
-1.17427e-09
-7.12357e-08
-5.54876e-16
-5.27394e-08
-4.71416e-16
1.63149e-13
-4.45661e-11
8.55194e-16
-6.35596e-13
-2.1426e-10
2.81782e-15
6.01823e-12
-5.31771e-10
-3.52833e-15
2.4729e-10
-2.79611e-09
-1.66079e-13
1.45947e-09
-3.09537e-08
-5.05492e-14
3.09627e-09
-7.74637e-08
-2.16213e-14
3.08098e-09
-1.13488e-07
-1.21517e-14
2.30118e-09
-1.26248e-07
-2.17998e-14
2.1174e-09
-1.24078e-07
-2.96278e-15
3.3639e-09
-1.06869e-07
1.68791e-14
3.88953e-09
-8.62698e-08
1.09135e-14
3.9172e-09
-9.10667e-08
-7.90208e-17
3.94234e-09
-1.00885e-07
-1.6025e-15
3.99818e-09
-1.1032e-07
-1.2375e-15
4.0794e-09
-1.1867e-07
-1.02629e-15
4.17089e-09
-1.25725e-07
-1.4213e-15
4.25322e-09
-1.31757e-07
-1.34343e-15
4.31415e-09
-1.37125e-07
-1.20683e-15
4.34647e-09
-1.42034e-07
-1.42818e-15
4.34539e-09
-1.46557e-07
-1.30585e-15
4.30751e-09
-1.50692e-07
-1.36879e-15
4.23026e-09
-1.54396e-07
-1.38148e-15
4.11181e-09
-1.57558e-07
-1.3809e-15
3.95091e-09
-1.60097e-07
-1.37883e-15
3.74698e-09
-1.61882e-07
-1.36197e-15
3.50012e-09
-1.6281e-07
-1.31996e-15
3.21115e-09
-1.62768e-07
-1.29806e-15
2.88185e-09
-1.61631e-07
-1.24168e-15
2.51484e-09
-1.59325e-07
-1.20572e-15
2.11387e-09
-1.55719e-07
-1.19568e-15
1.68382e-09
-1.50737e-07
-9.49835e-16
1.23083e-09
-1.4429e-07
-9.15714e-16
7.62326e-10
-1.36292e-07
-8.57393e-16
2.87066e-10
-1.26672e-07
-7.98084e-16
-1.84882e-10
-1.15362e-07
-7.38952e-16
-6.42354e-10
-1.02314e-07
-6.80476e-16
-1.07349e-09
-8.74805e-08
-6.1872e-16
-1.46709e-09
-7.08421e-08
-5.54429e-16
-5.23916e-08
-4.75662e-16
3.05594e-13
-4.48717e-11
8.87412e-16
1.62615e-12
-2.15581e-10
2.68749e-15
3.4228e-11
-5.64372e-10
-1.80626e-15
5.8475e-10
-3.34667e-09
-7.35845e-14
2.25204e-09
-3.2621e-08
-1.31995e-14
3.84761e-09
-7.90593e-08
-2.93939e-14
3.83154e-09
-1.13472e-07
-1.24908e-14
3.19123e-09
-1.25607e-07
-2.02692e-14
2.88252e-09
-1.23769e-07
-1.17062e-14
3.8044e-09
-1.07791e-07
2.4838e-14
4.16437e-09
-8.66298e-08
1.11745e-14
4.14432e-09
-9.10466e-08
-1.94242e-15
4.1558e-09
-1.00897e-07
-1.43617e-15
4.20313e-09
-1.10368e-07
-1.20476e-15
4.27668e-09
-1.18744e-07
-1.15436e-15
4.36104e-09
-1.25809e-07
-1.23378e-15
4.43636e-09
-1.31832e-07
-1.26668e-15
4.48977e-09
-1.37178e-07
-1.24092e-15
4.51344e-09
-1.42057e-07
-1.48258e-15
4.50204e-09
-1.46545e-07
-1.24299e-15
4.45174e-09
-1.50642e-07
-1.2477e-15
4.35964e-09
-1.54304e-07
-1.25576e-15
4.22381e-09
-1.57422e-07
-1.2807e-15
4.04297e-09
-1.59916e-07
-1.29938e-15
3.81665e-09
-1.61656e-07
-1.29747e-15
3.54515e-09
-1.62539e-07
-1.26858e-15
3.22958e-09
-1.62453e-07
-1.25794e-15
2.87202e-09
-1.61274e-07
-1.20964e-15
2.47543e-09
-1.58928e-07
-1.18126e-15
2.0439e-09
-1.55287e-07
-1.17825e-15
1.58259e-09
-1.50276e-07
-9.27456e-16
1.09789e-09
-1.43806e-07
-8.97825e-16
5.97335e-10
-1.35792e-07
-8.42591e-16
8.96368e-11
-1.26164e-07
-7.86058e-16
-4.15456e-10
-1.14857e-07
-7.2952e-16
-9.07465e-10
-1.01822e-07
-6.73446e-16
-1.37574e-09
-8.70122e-08
-6.13468e-16
-1.81079e-09
-7.04071e-08
-5.52067e-16
-5.19962e-08
-4.78708e-16
1.35831e-13
-4.50075e-11
1.00164e-15
2.64802e-12
-2.18093e-10
2.76531e-15
5.15727e-11
-6.13288e-10
-2.97046e-15
1.02282e-09
-4.31786e-09
7.32645e-14
3.11018e-09
-3.47083e-08
4.39132e-14
4.69226e-09
-8.06414e-08
-3.04229e-14
4.75799e-09
-1.13537e-07
-6.95395e-15
4.09613e-09
-1.24946e-07
-1.44676e-14
3.53694e-09
-1.2321e-07
-2.71148e-15
4.17861e-09
-1.08432e-07
2.65044e-14
4.45202e-09
-8.69032e-08
1.70698e-14
4.38461e-09
-9.09792e-08
-1.55569e-15
4.38075e-09
-1.00893e-07
-1.5027e-15
4.41875e-09
-1.10406e-07
-1.46233e-15
4.48351e-09
-1.18809e-07
-1.30797e-15
4.55931e-09
-1.25885e-07
-1.19775e-15
4.62612e-09
-1.31899e-07
-1.2352e-15
4.67066e-09
-1.37223e-07
-1.24141e-15
4.68453e-09
-1.42071e-07
-1.396e-15
4.66176e-09
-1.46523e-07
-1.24831e-15
4.59794e-09
-1.50578e-07
-1.29126e-15
4.48975e-09
-1.54196e-07
-1.28246e-15
4.33501e-09
-1.57268e-07
-1.29412e-15
4.13237e-09
-1.59713e-07
-1.29258e-15
3.88145e-09
-1.61405e-07
-1.27245e-15
3.58274e-09
-1.6224e-07
-1.23693e-15
3.23764e-09
-1.62108e-07
-1.22532e-15
2.8486e-09
-1.60885e-07
-1.18041e-15
2.41894e-09
-1.58498e-07
-1.15764e-15
1.95316e-09
-1.54821e-07
-1.16182e-15
1.45677e-09
-1.49779e-07
-9.05165e-16
9.36436e-10
-1.43285e-07
-8.80033e-16
3.99906e-10
-1.35255e-07
-8.27826e-16
-1.44081e-10
-1.2562e-07
-7.73931e-16
-6.85957e-10
-1.14315e-07
-7.19749e-16
-1.2157e-09
-1.01292e-07
-6.65726e-16
-1.72346e-09
-8.65044e-08
-6.06998e-16
-2.20064e-09
-6.99299e-08
-5.47835e-16
-5.15554e-08
-4.7965e-16
2.65959e-13
-4.52735e-11
1.26661e-15
4.63366e-12
-2.22461e-10
3.27751e-15
5.67225e-11
-6.65374e-10
1.55664e-15
1.45922e-09
-5.72038e-09
1.29662e-13
3.86656e-09
-3.71157e-08
5.31422e-14
5.51311e-09
-8.2288e-08
-2.5208e-14
5.6166e-09
-1.13641e-07
-1.36293e-14
4.66544e-09
-1.23994e-07
-6.31192e-15
3.78757e-09
-1.22332e-07
-5.19133e-15
4.32189e-09
-1.08966e-07
3.12711e-14
4.68691e-09
-8.72683e-08
1.71934e-14
4.60765e-09
-9.08999e-08
-3.37918e-16
4.59698e-09
-1.00882e-07
-1.1398e-15
4.63018e-09
-1.10439e-07
-1.49647e-15
4.68881e-09
-1.18867e-07
-1.19749e-15
4.7573e-09
-1.25954e-07
-1.17045e-15
4.81578e-09
-1.31957e-07
-1.26074e-15
4.85088e-09
-1.37258e-07
-1.17467e-15
4.85389e-09
-1.42074e-07
-1.3586e-15
4.81844e-09
-1.46487e-07
-1.19657e-15
4.73967e-09
-1.50499e-07
-1.22487e-15
4.6139e-09
-1.5407e-07
-1.19819e-15
4.43866e-09
-1.57092e-07
-1.21388e-15
4.2125e-09
-1.59487e-07
-1.22174e-15
3.93506e-09
-1.61127e-07
-1.21071e-15
3.60699e-09
-1.61912e-07
-1.18848e-15
3.22998e-09
-1.61731e-07
-1.1864e-15
2.80681e-09
-1.60462e-07
-1.14995e-15
2.34123e-09
-1.58033e-07
-1.13437e-15
1.83815e-09
-1.54318e-07
-1.1461e-15
1.30352e-09
-1.49245e-07
-8.83112e-16
7.44352e-10
-1.42726e-07
-8.62452e-16
1.68669e-10
-1.3468e-07
-8.13211e-16
-4.14644e-10
-1.25037e-07
-7.61776e-16
-9.96047e-10
-1.13734e-07
-7.09712e-16
-1.56574e-09
-1.00722e-07
-6.57431e-16
-2.11425e-09
-8.59559e-08
-5.99628e-16
-2.63331e-09
-6.94108e-08
-5.42116e-16
-5.10718e-08
-4.78344e-16
2.52291e-13
-4.55258e-11
1.62862e-15
4.98668e-12
-2.27195e-10
5.13777e-15
4.85831e-11
-7.08961e-10
1.95815e-14
1.71408e-09
-7.38584e-09
1.78625e-13
4.31215e-09
-3.97137e-08
5.51622e-14
6.09353e-09
-8.40694e-08
-2.09737e-14
6.06319e-09
-1.13611e-07
-1.14564e-14
4.58323e-09
-1.22514e-07
-7.06296e-15
3.46419e-09
-1.21213e-07
2.72372e-15
4.16205e-09
-1.09664e-07
3.97313e-14
4.83896e-09
-8.79452e-08
1.55989e-14
4.7992e-09
-9.08601e-08
-3.50178e-16
4.79149e-09
-1.00875e-07
-6.8447e-16
4.8238e-09
-1.10471e-07
-1.24644e-15
4.87848e-09
-1.18922e-07
-1.07279e-15
4.94104e-09
-1.26016e-07
-1.15887e-15
4.99201e-09
-1.32008e-07
-1.30955e-15
5.01809e-09
-1.37284e-07
-1.14944e-15
5.01038e-09
-1.42066e-07
-1.37365e-15
4.96215e-09
-1.46439e-07
-1.20278e-15
4.86809e-09
-1.50405e-07
-1.25172e-15
4.72414e-09
-1.53926e-07
-1.21595e-15
4.52756e-09
-1.56896e-07
-1.22051e-15
4.27676e-09
-1.59236e-07
-1.20932e-15
3.9714e-09
-1.60822e-07
-1.18036e-15
3.6123e-09
-1.61553e-07
-1.15432e-15
3.20144e-09
-1.6132e-07
-1.15218e-15
2.74199e-09
-1.60002e-07
-1.12089e-15
2.23815e-09
-1.57529e-07
-1.11174e-15
1.69531e-09
-1.53775e-07
-1.1313e-15
1.11989e-09
-1.48669e-07
-8.61899e-16
5.19328e-10
-1.42126e-07
-8.45656e-16
-9.79814e-11
-1.34062e-07
-7.99111e-16
-7.22903e-10
-1.24412e-07
-7.49787e-16
-1.34577e-09
-1.13111e-07
-6.99456e-16
-1.95679e-09
-1.00111e-07
-6.48649e-16
-2.54653e-09
-8.53661e-08
-5.91635e-16
-3.10661e-09
-6.88508e-08
-5.35439e-16
-5.05482e-08
-4.75224e-16
3.3837e-13
-4.58642e-11
1.91096e-15
4.99782e-12
-2.31854e-10
7.01677e-15
3.19822e-11
-7.35941e-10
2.76976e-14
1.80072e-09
-9.15456e-09
1.57779e-13
4.45863e-09
-4.23716e-08
4.52184e-14
6.3237e-09
-8.59346e-08
-2.73559e-14
5.87966e-09
-1.13167e-07
-9.73792e-15
3.7857e-09
-1.2042e-07
-9.03621e-16
2.66106e-09
-1.20088e-07
1.30042e-14
3.77357e-09
-1.10777e-07
3.42579e-14
4.90005e-09
-8.90717e-08
7.65353e-15
4.94431e-09
-9.09043e-08
-5.74124e-16
4.95026e-09
-1.00881e-07
-7.33065e-16
4.98664e-09
-1.10508e-07
-1.16095e-15
5.04096e-09
-1.18976e-07
-9.8521e-16
5.10042e-09
-1.26076e-07
-1.18642e-15
5.14591e-09
-1.32054e-07
-1.39865e-15
5.16433e-09
-1.37302e-07
-1.21318e-15
5.14668e-09
-1.42049e-07
-1.32994e-15
5.08598e-09
-1.46378e-07
-1.1167e-15
4.97658e-09
-1.50296e-07
-1.14405e-15
4.8141e-09
-1.53764e-07
-1.10112e-15
4.59555e-09
-1.56677e-07
-1.12568e-15
4.31922e-09
-1.5896e-07
-1.13546e-15
3.98481e-09
-1.60488e-07
-1.12203e-15
3.59333e-09
-1.61162e-07
-1.11215e-15
3.14706e-09
-1.60874e-07
-1.11915e-15
2.6496e-09
-1.59505e-07
-1.09576e-15
2.10562e-09
-1.56985e-07
-1.09284e-15
1.52105e-09
-1.53191e-07
-1.11996e-15
9.02836e-10
-1.48051e-07
-8.42367e-16
2.58936e-10
-1.41482e-07
-8.29753e-16
-4.01827e-10
-1.33402e-07
-7.85391e-16
-1.06996e-09
-1.23744e-07
-7.3776e-16
-1.73552e-09
-1.12445e-07
-6.88822e-16
-2.38852e-09
-9.9458e-08
-6.39307e-16
-3.01932e-09
-8.47353e-08
-5.83145e-16
-3.61915e-09
-6.82509e-08
-5.28184e-16
-4.9987e-08
-4.70885e-16
3.36427e-13
-4.62006e-11
1.94146e-15
3.78683e-12
-2.35305e-10
7.60467e-15
1.68025e-12
-7.33844e-10
1.9896e-14
1.68233e-09
-1.08352e-08
1.08103e-13
4.31474e-09
-4.5004e-08
2.79281e-14
6.12013e-09
-8.77401e-08
-2.16696e-14
5.02598e-09
-1.12072e-07
-8.13072e-15
2.50138e-09
-1.17896e-07
5.09044e-15
1.6983e-09
-1.19285e-07
1.6495e-14
3.33758e-09
-1.12416e-07
3.92958e-14
4.90532e-09
-9.06394e-08
2.00132e-15
5.04297e-09
-9.10419e-08
-1.4319e-15
5.06712e-09
-1.00905e-07
-5.4806e-16
5.11025e-09
-1.10551e-07
-1.03332e-15
5.16703e-09
-1.19033e-07
-1.01073e-15
5.22621e-09
-1.26135e-07
-9.21282e-16
5.26872e-09
-1.32096e-07
-1.27964e-15
5.28148e-09
-1.37315e-07
-1.09035e-15
5.25535e-09
-1.42023e-07
-1.20526e-15
5.1831e-09
-1.46306e-07
-1.05609e-15
5.05883e-09
-1.50172e-07
-1.10597e-15
4.87786e-09
-1.53583e-07
-1.06364e-15
4.63701e-09
-1.56436e-07
-1.0994e-15
4.33453e-09
-1.58657e-07
-1.10739e-15
3.97018e-09
-1.60123e-07
-1.08658e-15
3.5452e-09
-1.60737e-07
-1.07762e-15
3.06223e-09
-1.60391e-07
-1.08575e-15
2.52532e-09
-1.58968e-07
-1.06819e-15
1.9397e-09
-1.56399e-07
-1.07195e-15
1.31187e-09
-1.52563e-07
-1.1059e-15
6.49359e-10
-1.47389e-07
-8.22776e-16
-3.92993e-11
-1.40793e-07
-8.13924e-16
-7.44765e-10
-1.32696e-07
-7.71613e-16
-1.45708e-09
-1.23031e-07
-7.25445e-16
-2.16594e-09
-1.11737e-07
-6.77617e-16
-2.86099e-09
-9.8763e-08
-6.29282e-16
-3.5322e-09
-8.40641e-08
-5.74114e-16
-4.17021e-09
-6.76129e-08
-5.20469e-16
-4.93909e-08
-4.65698e-16
3.60011e-13
-4.65607e-11
1.66037e-15
2.25389e-12
-2.37199e-10
6.64316e-15
3.00812e-12
-7.34617e-10
4.99822e-15
1.49559e-09
-1.23278e-08
8.48773e-14
4.0449e-09
-4.75533e-08
2.26546e-14
5.56307e-09
-8.92583e-08
-2.14823e-14
3.75393e-09
-1.10263e-07
-1.37865e-14
1.19912e-09
-1.15341e-07
3.0653e-15
9.58606e-10
-1.19045e-07
3.08306e-14
3.02508e-09
-1.14483e-07
3.2907e-14
4.90198e-09
-9.25163e-08
4.95867e-16
5.1008e-09
-9.12407e-08
-1.99352e-16
5.13992e-09
-1.00944e-07
-2.36655e-16
5.19015e-09
-1.10601e-07
-8.73289e-16
5.25139e-09
-1.19094e-07
-9.45983e-16
5.31296e-09
-1.26196e-07
-6.96751e-16
5.35514e-09
-1.32138e-07
-1.11787e-15
5.36447e-09
-1.37324e-07
-9.42943e-16
5.33151e-09
-1.4199e-07
-1.11649e-15
5.24882e-09
-1.46223e-07
-9.28609e-16
5.11022e-09
-1.50033e-07
-9.84598e-16
4.91085e-09
-1.53383e-07
-9.60673e-16
4.64742e-09
-1.56173e-07
-1.02281e-15
4.31818e-09
-1.58328e-07
-1.04534e-15
3.92305e-09
-1.59728e-07
-1.03393e-15
3.46356e-09
-1.60277e-07
-1.03686e-15
2.94274e-09
-1.5987e-07
-1.05203e-15
2.36519e-09
-1.5839e-07
-1.04219e-15
1.7367e-09
-1.55771e-07
-1.0527e-15
1.06442e-09
-1.51891e-07
-1.09372e-15
3.56522e-10
-1.46681e-07
-8.04005e-16
-3.77841e-10
-1.40059e-07
-7.98351e-16
-1.12874e-09
-1.31945e-07
-7.57726e-16
-1.88569e-09
-1.22274e-07
-7.12724e-16
-2.6379e-09
-1.10984e-07
-6.65749e-16
-3.37455e-09
-9.80263e-08
-6.18482e-16
-4.08508e-09
-8.33536e-08
-5.6444e-16
-4.75948e-09
-6.69385e-08
-5.12197e-16
-4.87623e-08
-4.59705e-16
3.49664e-13
-4.69103e-11
1.45637e-15
1.20858e-12
-2.38058e-10
5.64135e-15
5.15178e-11
-7.84927e-10
4.74012e-15
1.42118e-09
-1.36974e-08
7.75301e-14
3.84085e-09
-4.9973e-08
2.23724e-14
4.83659e-09
-9.0254e-08
-2.05103e-14
2.4606e-09
-1.07887e-07
-1.28586e-14
3.04437e-10
-1.13185e-07
3.04428e-15
6.47536e-10
-1.19388e-07
3.79882e-14
2.89497e-09
-1.1673e-07
2.28444e-14
4.92278e-09
-9.45441e-08
-4.26741e-17
5.12715e-09
-9.1445e-08
-1.97675e-15
5.17088e-09
-1.00988e-07
-6.55395e-16
5.22596e-09
-1.10656e-07
-8.19199e-16
5.29223e-09
-1.19161e-07
-8.51744e-16
5.35803e-09
-1.26262e-07
-5.36684e-16
5.40212e-09
-1.32183e-07
-1.00207e-15
5.41006e-09
-1.37332e-07
-8.08964e-16
5.37185e-09
-1.41951e-07
-9.9928e-16
5.27973e-09
-1.46131e-07
-8.57561e-16
5.12728e-09
-1.49881e-07
-9.16293e-16
4.9095e-09
-1.53166e-07
-9.02096e-16
4.6231e-09
-1.55886e-07
-9.905e-16
4.26641e-09
-1.57972e-07
-1.01742e-15
3.8396e-09
-1.59301e-07
-1.00057e-15
3.34456e-09
-1.59782e-07
-1.00335e-15
2.78481e-09
-1.5931e-07
-1.01831e-15
2.16554e-09
-1.57771e-07
-1.01398e-15
1.49317e-09
-1.55099e-07
-1.0314e-15
7.7554e-10
-1.51173e-07
-1.08014e-15
2.15167e-11
-1.45927e-07
-7.84988e-16
-7.59085e-10
-1.39278e-07
-7.82594e-16
-1.5557e-09
-1.31149e-07
-7.43533e-16
-2.35725e-09
-1.21473e-07
-6.99531e-16
-3.15239e-09
-1.10189e-07
-6.53201e-16
-3.92974e-09
-9.7249e-08
-6.0691e-16
-4.67818e-09
-8.26051e-08
-5.54057e-16
-5.38696e-09
-6.62297e-08
-5.03221e-16
-4.81037e-08
-4.52763e-16
3.57329e-13
-4.72677e-11
1.12245e-15
1.56687e-12
-2.39268e-10
3.94061e-15
1.17244e-10
-9.0061e-10
8.64245e-15
1.44596e-09
-1.50261e-08
5.69835e-14
3.69075e-09
-5.22177e-08
9.19454e-15
4.06293e-09
-9.06262e-08
-2.41213e-14
1.43714e-09
-1.05261e-07
-1.34855e-14
-5.47062e-11
-1.11693e-07
8.72589e-15
7.09457e-10
-1.20152e-07
1.45879e-14
2.88971e-09
-1.1891e-07
1.14372e-14
4.96608e-09
-9.66204e-08
8.08335e-15
5.12813e-09
-9.16071e-08
-1.43931e-15
5.16366e-09
-1.01023e-07
4.86726e-17
5.22012e-09
-1.10713e-07
-4.41612e-16
5.29093e-09
-1.19231e-07
-4.5962e-16
5.36195e-09
-1.26333e-07
-3.29996e-16
5.40951e-09
-1.3223e-07
-7.79353e-16
5.41752e-09
-1.3734e-07
-5.5476e-16
5.37515e-09
-1.41909e-07
-8.77732e-16
5.27418e-09
-1.4603e-07
-7.87322e-16
5.10796e-09
-1.49714e-07
-8.42218e-16
4.87142e-09
-1.52929e-07
-8.27293e-16
4.56132e-09
-1.55576e-07
-9.31479e-16
4.17622e-09
-1.57586e-07
-9.62961e-16
3.71663e-09
-1.58842e-07
-9.48786e-16
3.18489e-09
-1.5925e-07
-9.59449e-16
2.5851e-09
-1.5871e-07
-9.79956e-16
1.92308e-09
-1.57109e-07
-9.83794e-16
1.20596e-09
-1.54381e-07
-1.00922e-15
4.42298e-10
-1.50409e-07
-1.06586e-15
-3.583e-10
-1.45126e-07
-7.66045e-16
-1.18532e-09
-1.38451e-07
-7.66716e-16
-2.02753e-09
-1.30306e-07
-7.29119e-16
-2.87322e-09
-1.20627e-07
-6.86017e-16
-3.71044e-09
-1.09352e-07
-6.40184e-16
-4.52723e-09
-9.64322e-08
-5.94758e-16
-5.31183e-09
-8.18205e-08
-5.43066e-16
-6.05281e-09
-6.54888e-08
-4.93512e-16
-4.74177e-08
-4.44765e-16
3.48843e-13
-4.76165e-11
4.56498e-16
3.04344e-12
-2.41962e-10
1.42243e-15
1.55132e-10
-1.05269e-09
1.2474e-14
1.48468e-09
-1.63557e-08
3.43061e-14
3.49511e-09
-5.42282e-08
-2.87482e-15
3.29811e-09
-9.04292e-08
-1.63218e-14
7.64296e-10
-1.02727e-07
-1.32667e-14
-3.52726e-11
-1.10894e-07
-3.33506e-15
9.39179e-10
-1.21127e-07
1.54553e-14
2.89773e-09
-1.20869e-07
3.00214e-15
5.00366e-09
-9.87263e-08
1.83002e-14
5.10667e-09
-9.171e-08
5.13843e-15
5.12329e-09
-1.0104e-07
9.27707e-16
5.17743e-09
-1.10767e-07
-3.8494e-17
5.25143e-09
-1.19305e-07
-4.12864e-17
5.3277e-09
-1.26409e-07
-2.3825e-16
5.37932e-09
-1.32282e-07
-6.5807e-16
5.38801e-09
-1.37349e-07
-4.1576e-16
5.3418e-09
-1.41863e-07
-7.52392e-16
5.23188e-09
-1.4592e-07
-6.55594e-16
5.05134e-09
-1.49534e-07
-7.17629e-16
4.79511e-09
-1.52673e-07
-7.28803e-16
4.46013e-09
-1.55241e-07
-8.75654e-16
4.04527e-09
-1.57172e-07
-9.19382e-16
3.55149e-09
-1.58348e-07
-9.03958e-16
2.98169e-09
-1.58681e-07
-9.17759e-16
2.34063e-09
-1.58069e-07
-9.40562e-16
1.63483e-09
-1.56403e-07
-9.5214e-16
8.7217e-10
-1.53619e-07
-9.86246e-16
6.198e-11
-1.49599e-07
-1.05135e-15
-7.85389e-10
-1.44279e-07
-7.481e-16
-1.6587e-09
-1.37578e-07
-7.5141e-16
-2.54603e-09
-1.29419e-07
-7.14983e-16
-3.43501e-09
-1.19738e-07
-6.72568e-16
-4.3131e-09
-1.08474e-07
-6.27044e-16
-5.16773e-09
-9.55775e-08
-5.8235e-16
-5.98648e-09
-8.10017e-08
-5.31729e-16
-6.75727e-09
-6.4718e-08
-4.83227e-16
-4.67069e-08
-4.358e-16
3.35362e-13
-4.79518e-11
5.77686e-17
4.54075e-12
-2.46168e-10
2.20706e-16
1.25843e-10
-1.174e-09
-1.55311e-15
1.39566e-09
-1.76255e-08
1.63072e-14
3.11015e-09
-5.59426e-08
-6.4078e-15
2.51461e-09
-8.98337e-08
-1.38194e-14
3.19392e-10
-1.00532e-07
-1.20911e-14
8.45261e-11
-1.10659e-07
-2.64377e-16
1.12012e-09
-1.22162e-07
3.36273e-15
2.81314e-09
-1.22562e-07
4.34603e-15
4.99786e-09
-1.00911e-07
1.27095e-14
5.06292e-09
-9.17751e-08
2.59331e-15
5.05543e-09
-1.01032e-07
1.11545e-15
5.10418e-09
-1.10815e-07
-3.5465e-17
5.17957e-09
-1.19381e-07
1.87418e-16
5.26024e-09
-1.2649e-07
2.3427e-17
5.31544e-09
-1.32337e-07
-4.38965e-16
5.32436e-09
-1.37358e-07
-1.68758e-16
5.27361e-09
-1.41812e-07
-5.5584e-16
5.15369e-09
-1.458e-07
-4.83334e-16
4.95745e-09
-1.49338e-07
-5.63547e-16
4.67989e-09
-1.52395e-07
-5.898e-16
4.31821e-09
-1.5488e-07
-7.69423e-16
3.87173e-09
-1.56725e-07
-8.3249e-16
3.34196e-09
-1.57818e-07
-8.30783e-16
2.73248e-09
-1.58071e-07
-8.61344e-16
2.04876e-09
-1.57386e-07
-8.95055e-16
1.29811e-09
-1.55653e-07
-9.18057e-16
4.89177e-10
-1.5281e-07
-9.62091e-16
-3.67903e-10
-1.48742e-07
-1.03571e-15
-1.26202e-09
-1.43385e-07
-7.31424e-16
-2.18121e-09
-1.36659e-07
-7.36465e-16
-3.11286e-09
-1.28487e-07
-7.01154e-16
-4.04397e-09
-1.18807e-07
-6.59465e-16
-4.96138e-09
-1.07557e-07
-6.14217e-16
-5.85191e-09
-9.4687e-08
-5.70159e-16
-6.70256e-09
-8.0151e-08
-5.20485e-16
-7.5006e-09
-6.392e-08
-4.7273e-16
-4.59743e-08
-4.26207e-16
3.0789e-13
-4.82597e-11
-1.49572e-16
4.63393e-12
-2.50495e-10
-1.53198e-15
4.36043e-11
-1.21296e-09
-4.03592e-14
1.09014e-09
-1.8672e-08
-6.87629e-15
2.47191e-09
-5.73244e-08
-1.27494e-14
1.68663e-09
-8.90484e-08
-6.62072e-15
-6.44385e-11
-9.87811e-08
-1.26613e-14
9.77249e-11
-1.10821e-07
-7.39842e-15
1.12919e-09
-1.23194e-07
6.80079e-15
2.5963e-09
-1.24029e-07
7.66623e-15
4.92851e-09
-1.03243e-07
1.90055e-14
4.99864e-09
-9.18452e-08
2.91938e-15
4.96707e-09
-1.01001e-07
1.48561e-15
5.00799e-09
-1.10856e-07
4.25833e-16
5.08261e-09
-1.19455e-07
6.0596e-16
5.16588e-09
-1.26573e-07
4.42721e-16
5.22301e-09
-1.32394e-07
-9.74262e-17
5.23047e-09
-1.37365e-07
6.93176e-17
5.17329e-09
-1.41755e-07
-3.05821e-16
5.04123e-09
-1.45668e-07
-3.13664e-16
4.82693e-09
-1.49123e-07
-4.67852e-16
4.52553e-09
-1.52094e-07
-5.30452e-16
4.13463e-09
-1.54489e-07
-7.4241e-16
3.65408e-09
-1.56245e-07
-8.01891e-16
3.08611e-09
-1.5725e-07
-7.86561e-16
2.43502e-09
-1.5742e-07
-8.16818e-16
1.70709e-09
-1.56658e-07
-8.53195e-16
9.10448e-10
-1.54856e-07
-8.85337e-16
5.45713e-11
-1.51954e-07
-9.39214e-16
-8.49619e-10
-1.47838e-07
-1.02131e-15
-1.79025e-09
-1.42444e-07
-7.1472e-16
-2.75464e-09
-1.35694e-07
-7.23087e-16
-3.72952e-09
-1.27513e-07
-6.88633e-16
-4.70127e-09
-1.17835e-07
-6.47438e-16
-5.65614e-09
-1.06602e-07
-6.02308e-16
-6.58039e-09
-9.37628e-08
-5.58734e-16
-7.46043e-09
-7.9271e-08
-5.09829e-16
-8.28299e-09
-6.30974e-08
-4.6252e-16
-4.52225e-08
-4.1652e-16
2.81883e-13
-4.85415e-11
-1.01835e-16
3.51566e-12
-2.53729e-10
-4.11127e-15
-9.83813e-12
-1.1996e-09
-5.68745e-14
6.9968e-10
-1.93816e-08
-1.45483e-15
1.73562e-09
-5.83604e-08
-1.3876e-14
8.91891e-10
-8.82046e-08
-3.84871e-15
-4.54192e-10
-9.74351e-08
-1.41799e-14
-5.67401e-11
-1.11218e-07
-9.57127e-16
9.65987e-10
-1.24216e-07
7.54888e-15
2.29382e-09
-1.25357e-07
1.32253e-14
4.80726e-09
-1.05757e-07
2.45584e-14
4.92043e-09
-9.19584e-08
-2.65314e-15
4.8667e-09
-1.00947e-07
1.02586e-15
4.89741e-09
-1.10887e-07
9.53315e-16
4.9686e-09
-1.19527e-07
8.57842e-16
5.05164e-09
-1.26656e-07
6.59598e-16
5.10782e-09
-1.3245e-07
9.84592e-17
5.11082e-09
-1.37368e-07
1.11853e-16
5.04404e-09
-1.41688e-07
-7.3618e-17
4.89649e-09
-1.45521e-07
-8.73301e-17
4.6607e-09
-1.48887e-07
-2.74944e-16
4.33204e-09
-1.51765e-07
-3.51891e-16
3.90863e-09
-1.54065e-07
-6.02771e-16
3.391e-09
-1.55727e-07
-6.90743e-16
2.78215e-09
-1.56641e-07
-6.97349e-16
2.08724e-09
-1.56725e-07
-7.52391e-16
1.31339e-09
-1.55884e-07
-8.05014e-16
4.69592e-10
-1.54012e-07
-8.51375e-16
-4.33853e-10
-1.5105e-07
-9.16385e-16
-1.38523e-09
-1.46886e-07
-1.00687e-15
-2.37193e-09
-1.41457e-07
-6.99659e-16
-3.3806e-09
-1.34685e-07
-7.10637e-16
-4.39734e-09
-1.26496e-07
-6.77216e-16
-5.40795e-09
-1.16825e-07
-6.36691e-16
-6.39813e-09
-1.05612e-07
-5.91753e-16
-7.35363e-09
-9.28073e-08
-5.48616e-16
-8.26035e-09
-7.83642e-08
-5.00357e-16
-9.10452e-09
-6.22533e-08
-4.53208e-16
-4.44547e-08
-4.07428e-16
2.5159e-13
-4.87931e-11
2.0407e-16
2.34759e-12
-2.55825e-10
-5.1014e-15
-1.27481e-11
-1.18452e-09
-2.24023e-14
3.65042e-10
-1.97594e-08
1.75193e-14
1.08614e-09
-5.90815e-08
-1.21693e-14
2.17183e-10
-8.73356e-08
-4.10732e-16
-8.36474e-10
-9.63814e-08
-9.91523e-15
-3.21375e-10
-1.11733e-07
9.72926e-16
7.17518e-10
-1.25255e-07
1.5356e-14
2.00711e-09
-1.26647e-07
2.03722e-14
4.66859e-09
-1.08418e-07
2.07805e-14
4.83921e-09
-9.2129e-08
-9.45417e-17
4.7638e-09
-1.00872e-07
1.62351e-15
4.78141e-09
-1.10905e-07
1.40575e-15
4.84578e-09
-1.19591e-07
1.27202e-15
4.92467e-09
-1.26735e-07
1.18673e-15
4.97572e-09
-1.32501e-07
5.3108e-16
4.96987e-09
-1.37363e-07
3.92323e-16
4.88895e-09
-1.41607e-07
1.52244e-16
4.72135e-09
-1.45353e-07
8.70676e-17
4.45955e-09
-1.48626e-07
-1.5187e-16
4.09931e-09
-1.51405e-07
-2.58452e-16
3.63938e-09
-1.53605e-07
-5.54762e-16
3.08109e-09
-1.55169e-07
-6.49522e-16
2.42832e-09
-1.55989e-07
-6.47616e-16
1.68711e-09
-1.55984e-07
-7.06619e-16
8.65528e-10
-1.55062e-07
-7.65016e-16
-2.65938e-11
-1.5312e-07
-8.21647e-16
-9.78131e-10
-1.50099e-07
-8.96624e-16
-1.97661e-09
-1.45888e-07
-9.94944e-16
-3.00871e-09
-1.40425e-07
-6.87779e-16
-4.06047e-09
-1.33634e-07
-7.007e-16
-5.11741e-09
-1.25439e-07
-6.6799e-16
-6.16481e-09
-1.15777e-07
-6.28005e-16
-7.1879e-09
-1.04589e-07
-5.83208e-16
-8.17195e-09
-9.18232e-08
-5.40411e-16
-9.10243e-09
-7.74337e-08
-4.92668e-16
-9.96513e-09
-6.13906e-08
-4.45427e-16
-4.36739e-08
-3.99667e-16
2.14286e-13
-4.90073e-11
1.83725e-16
1.43233e-12
-2.57041e-10
-5.4615e-15
-2.03809e-11
-1.1627e-09
1.94942e-14
7.6406e-11
-1.98562e-08
3.84384e-14
5.62597e-10
-5.95677e-08
-1.44268e-14
-3.17788e-10
-8.64552e-08
-9.77971e-16
-1.16961e-09
-9.55296e-08
-1.44269e-14
-5.83568e-10
-1.12319e-07
1.29261e-14
5.11661e-10
-1.26351e-07
1.92321e-14
1.84707e-09
-1.27982e-07
2.90038e-14
4.55134e-09
-1.11122e-07
9.92277e-15
4.76677e-09
-9.23443e-08
3.09809e-15
4.6674e-09
-1.00772e-07
6.91987e-16
4.66834e-09
-1.10906e-07
1.52152e-15
4.72172e-09
-1.19644e-07
1.43287e-15
4.79142e-09
-1.26805e-07
1.39895e-15
4.83184e-09
-1.32542e-07
7.4756e-16
4.81141e-09
-1.37342e-07
5.42495e-16
4.71056e-09
-1.41506e-07
4.13026e-16
4.51715e-09
-1.4516e-07
2.54766e-16
4.22381e-09
-1.48332e-07
-2.4119e-17
3.82683e-09
-1.51008e-07
-1.22252e-16
3.32572e-09
-1.53104e-07
-4.36766e-16
2.72273e-09
-1.54566e-07
-5.51042e-16
2.02267e-09
-1.55288e-07
-5.65888e-16
1.23258e-09
-1.55194e-07
-6.47656e-16
3.61403e-10
-1.54191e-07
-7.22252e-16
-5.80139e-10
-1.52178e-07
-7.92546e-16
-1.58014e-09
-1.49099e-07
-8.78044e-16
-2.62542e-09
-1.44843e-07
-9.84133e-16
-3.70201e-09
-1.39349e-07
-6.77985e-16
-4.79539e-09
-1.3254e-07
-6.92522e-16
-5.8906e-09
-1.24344e-07
-6.60578e-16
-6.97245e-09
-1.14696e-07
-6.2138e-16
-8.02576e-09
-1.03535e-07
-5.76924e-16
-9.03544e-09
-9.08135e-08
-5.34528e-16
-9.98656e-09
-7.64825e-08
-4.8727e-16
-1.08646e-08
-6.05126e-08
-4.39777e-16