/*--------------------------------*- C++ -*----------------------------------*\
| =========                 |                                                 |
| \\      /  F ield         | OpenFOAM: The Open Source CFD Toolbox           |
|  \\    /   O peration     | Version:  v2012                                 |
|   \\  /    A nd           | Website:  www.openfoam.com                      |
|    \\/     M anipulation  |                                                 |
\*---------------------------------------------------------------------------*/
FoamFile
{
    version     2.0;
    format      ascii;
    class       volVectorField;
    location    "0.1";
    object      U;
}
// * * * * * * * * * * * * * * * * * * * * * * * * * * * * * * * * * * * * * //

dimensions      [0 1 -1 0 0 0 0];


internalField   nonuniform List<vector> 
3352
(
(0.00171847 -0.259793 -1.50207e-05)
(0.00316328 -0.430604 -2.77103e-05)
(0.003881 -0.646175 -3.39883e-05)
(0.0106644 -1.78204 -9.35342e-05)
(0.0938686 -16.1485 -0.000819094)
(0.19897 -31.8127 -0.00173582)
(0.554236 -40.6247 -0.00483689)
(0.472969 -39.0973 -0.00412892)
(0.244618 -31.5966 -0.00213452)
(0.383019 -21.5 -0.0033394)
(0.437037 -15.4416 -0.00380827)
(0.399276 -14.5505 -0.00348016)
(0.371639 -14.1003 -0.00324219)
(0.348799 -13.5608 -0.00304386)
(0.329223 -12.904 -0.00287349)
(0.311623 -12.158 -0.00272001)
(0.295053 -11.3833 -0.00257541)
(0.278872 -10.6247 -0.00243419)
(0.262915 -9.90164 -0.00229493)
(0.247014 -9.21916 -0.00215614)
(0.231077 -8.57559 -0.00201705)
(0.215026 -7.96657 -0.00187697)
(0.198823 -7.38724 -0.00173556)
(0.182457 -6.83328 -0.00159272)
(0.165947 -6.30123 -0.00144862)
(0.149339 -5.78857 -0.00130368)
(0.132705 -5.29359 -0.0011585)
(0.116139 -4.81526 -0.0010139)
(0.0997531 -4.35302 -0.000870881)
(0.083678 -3.90665 -0.000730572)
(0.0680609 -3.47618 -0.000594254)
(0.0530622 -3.06176 -0.00046333)
(0.0388562 -2.66364 -0.000339321)
(0.0256307 -2.28214 -0.000223866)
(0.0135879 -1.91758 -0.000118729)
(0.00295021 -1.5703 -2.58498e-05)
(-0.00603632 -1.24064 5.2625e-05)
(-0.0130609 -0.928996 0.00011399)
(-0.0177977 -0.635725 0.000155391)
(0.00179677 -0.2765 -1.56926e-05)
(0.0018048 -0.442337 -1.58051e-05)
(0.000114291 -0.653175 -8.19713e-07)
(-0.00719265 -1.96161 6.26903e-05)
(0.0114148 -16.4451 -0.000100142)
(0.264371 -32.6264 -0.00230629)
(0.701426 -41.1424 -0.00612155)
(0.451525 -38.8836 -0.00394188)
(0.163301 -31.4913 -0.00142449)
(0.327124 -21.8793 -0.00285029)
(0.455847 -15.5492 -0.00397735)
(0.405634 -14.571 -0.00353549)
(0.376364 -14.1233 -0.00328367)
(0.353681 -13.5835 -0.00308653)
(0.33508 -12.9243 -0.00292458)
(0.318339 -12.1745 -0.00277862)
(0.302145 -11.3955 -0.00263729)
(0.285753 -10.633 -0.00249423)
(0.269228 -9.9064 -0.00235001)
(0.252555 -9.22089 -0.00220449)
(0.235775 -8.57469 -0.00205804)
(0.218883 -7.96339 -0.00191061)
(0.201885 -7.3821 -0.00176226)
(0.18479 -6.82649 -0.00161306)
(0.167626 -6.29307 -0.00146325)
(0.15044 -5.77933 -0.00131325)
(0.133298 -5.28355 -0.00116365)
(0.116291 -4.80468 -0.00101521)
(0.0995262 -4.34215 -0.000868888)
(0.0831273 -3.89572 -0.000725759)
(0.0672358 -3.46542 -0.000587053)
(0.052006 -3.05137 -0.000454121)
(0.0376061 -2.65383 -0.00032843)
(0.0242167 -2.27308 -0.000211557)
(0.0120316 -1.90945 -0.00010519)
(0.00126171 -1.56326 -1.11719e-05)
(-0.00786663 -1.23487 6.85224e-05)
(-0.0150743 -0.92466 0.00013146)
(-0.0201237 -0.633074 0.000175555)
(0.00110707 -0.273161 -9.64805e-06)
(0.000441756 -0.431988 -3.79176e-06)
(-0.0015028 -0.610341 1.32786e-05)
(-0.0126813 -1.87333 0.000108231)
(0.00314186 -16.6044 -2.82621e-05)
(0.370024 -33.2073 -0.00322836)
(0.710461 -41.2645 -0.00620097)
(0.37372 -38.5919 -0.00326315)
(0.154554 -31.4098 -0.00134816)
(0.316438 -22.1693 -0.00275534)
(0.47995 -15.6443 -0.00418431)
(0.43166 -14.5731 -0.0037619)
(0.395697 -14.1276 -0.00345223)
(0.367328 -13.5912 -0.00320566)
(0.344893 -12.9329 -0.00301025)
(0.326067 -12.1823 -0.00284609)
(0.308903 -11.4014 -0.00269629)
(0.292 -10.6369 -0.00254877)
(0.275113 -9.90847 -0.00240138)
(0.25805 -9.22134 -0.00225247)
(0.240806 -8.57369 -0.00210197)
(0.223364 -7.96107 -0.00194974)
(0.205748 -7.37859 -0.00179599)
(0.187991 -6.8219 -0.00164101)
(0.170146 -6.28754 -0.00148527)
(0.152281 -5.77299 -0.00132934)
(0.13448 -5.27654 -0.00117398)
(0.116846 -4.79714 -0.00102006)
(0.0994934 -4.33424 -0.000868609)
(0.082553 -3.8876 -0.00072075)
(0.0661683 -3.45724 -0.000577736)
(0.0504937 -3.04331 -0.000440918)
(0.0356946 -2.64604 -0.00031174)
(0.0219463 -2.26573 -0.000191731)
(0.00943257 -1.90269 -8.24952e-05)
(-0.00165172 -1.55725 1.42679e-05)
(-0.0111091 -1.22978 9.6834e-05)
(-0.0187121 -0.920645 0.000163219)
(-0.024325 -0.630298 0.000212232)
(0.00117712 -0.2829 -1.02479e-05)
(0.000530275 -0.438628 -4.52725e-06)
(-0.000139596 -0.614401 1.12179e-06)
(-0.00254425 -1.98094 1.75115e-05)
(0.0718997 -17.0239 -0.000628366)
(0.551593 -33.9726 -0.00481321)
(0.786069 -41.3783 -0.00686129)
(0.404787 -38.3063 -0.00353436)
(0.213143 -31.3598 -0.00185936)
(0.345587 -22.5169 -0.00300977)
(0.503865 -15.7758 -0.0043939)
(0.452972 -14.5883 -0.00394769)
(0.414475 -14.1367 -0.00361601)
(0.383366 -13.6024 -0.00334563)
(0.358777 -12.9452 -0.00313143)
(0.338358 -12.1938 -0.00295338)
(0.320033 -11.4105 -0.00279344)
(0.302116 -10.643 -0.00263707)
(0.284263 -9.91183 -0.00248125)
(0.26622 -9.2222 -0.00232378)
(0.247976 -8.57237 -0.00216455)
(0.229518 -7.9579 -0.00200346)
(0.210888 -7.37388 -0.00184086)
(0.192131 -6.81591 -0.00167716)
(0.173314 -6.28052 -0.00151292)
(0.154515 -5.76516 -0.00134885)
(0.135828 -5.26811 -0.00118575)
(0.117361 -4.78832 -0.00102457)
(0.0992343 -4.32521 -0.00086636)
(0.0815802 -3.87853 -0.000712273)
(0.0645435 -3.4483 -0.000563567)
(0.0482772 -3.03465 -0.000421584)
(0.032943 -2.63781 -0.000287735)
(0.0187091 -2.25805 -0.000163487)
(0.00574763 -1.8957 -5.03416e-05)
(-0.00576573 -1.55107 5.01679e-05)
(-0.015665 -1.22451 0.000136592)
(-0.0237768 -0.916374 0.000207419)
(-0.0300456 -0.62707 0.00026216)
(0.00104285 -0.280139 -9.07613e-06)
(-0.00104248 -0.431165 9.17453e-06)
(0.000142316 -0.599551 -1.68772e-06)
(0.00358812 -2.03944 -3.62405e-05)
(0.20684 -17.583 -0.00180539)
(0.754056 -34.7082 -0.00658055)
(0.868517 -41.3738 -0.00758132)
(0.499769 -38.0364 -0.00436332)
(0.330356 -31.3144 -0.00288229)
(0.414349 -22.8102 -0.00361092)
(0.540576 -15.8827 -0.00471514)
(0.480741 -14.5941 -0.00419039)
(0.437539 -14.1402 -0.00381732)
(0.402857 -13.6091 -0.00351576)
(0.375376 -12.9538 -0.00327632)
(0.352709 -12.2023 -0.00307864)
(0.332698 -11.4173 -0.002904)
(0.313434 -10.6476 -0.00273587)
(0.294424 -9.91406 -0.00256995)
(0.275297 -9.22225 -0.00240302)
(0.255982 -8.57047 -0.00223444)
(0.236438 -7.95428 -0.00206387)
(0.216701 -7.36877 -0.00189161)
(0.196828 -6.80954 -0.00171816)
(0.176899 -6.2731 -0.00154423)
(0.157011 -5.75691 -0.00137065)
(0.137272 -5.25924 -0.00119836)
(0.117802 -4.77903 -0.00102843)
(0.0987325 -4.31568 -0.000861989)
(0.0802025 -3.86895 -0.000700256)
(0.0623603 -3.43884 -0.00054452)
(0.0453598 -3.02548 -0.000396129)
(0.0293599 -2.62907 -0.000256469)
(0.014522 -2.2499 -0.000126949)
(0.00100602 -1.88825 -8.96376e-06)
(-0.0110317 -1.54443 9.61219e-05)
(-0.0214548 -1.21877 0.000187118)
(-0.030138 -0.91159 0.00026293)
(-0.0370782 -0.62324 0.00032353)
(0.00130331 -0.284968 -1.13483e-05)
(-0.000825966 -0.435389 7.26824e-06)
(0.00409191 -0.629678 -3.63266e-05)
(0.0300981 -2.3563 -0.000263816)
(0.472607 -18.4261 -0.00412431)
(0.989115 -35.4465 -0.00863248)
(1.02306 -41.3608 -0.00893041)
(0.679845 -37.833 -0.00593493)
(0.48507 -31.2639 -0.00423253)
(0.505707 -23.0481 -0.00440907)
(0.581441 -15.9669 -0.00507234)
(0.509554 -14.5966 -0.00444217)
(0.461777 -14.1435 -0.00402886)
(0.424045 -13.616 -0.00370066)
(0.394043 -12.9627 -0.00343924)
(0.369228 -12.2113 -0.00322284)
(0.347401 -11.4245 -0.00303234)
(0.32653 -10.6523 -0.00285018)
(0.306052 -9.91619 -0.00267145)
(0.285536 -9.22197 -0.0024924)
(0.264877 -8.56802 -0.00231209)
(0.244011 -7.94995 -0.00212998)
(0.222969 -7.36283 -0.00194633)
(0.201805 -6.80227 -0.00176162)
(0.180609 -6.26477 -0.00157663)
(0.159487 -5.74776 -0.00139227)
(0.138558 -5.2495 -0.0012096)
(0.117953 -4.7689 -0.00102977)
(0.0978133 -4.30537 -0.00085398)
(0.0782846 -3.85864 -0.00068353)
(0.0595205 -3.42871 -0.000519746)
(0.0416767 -3.01568 -0.000363993)
(0.0249104 -2.61976 -0.000217644)
(0.00937736 -2.2412 -8.20551e-05)
(-0.00477333 -1.88028 4.14705e-05)
(-0.0174029 -1.53729 0.000151723)
(-0.0284 -1.21253 0.000247727)
(-0.0376763 -0.906277 0.000328716)
(-0.0452576 -0.618828 0.000394912)
(0.00106048 -0.284014 -9.22567e-06)
(-0.00118363 -0.43651 1.03841e-05)
(0.00617496 -0.674978 -5.43074e-05)
(0.0555519 -2.9057 -0.000481216)
(0.807564 -19.5264 -0.0070468)
(1.21053 -36.1543 -0.0105653)
(1.23041 -41.3644 -0.0107401)
(0.885593 -37.6539 -0.00773068)
(0.618152 -31.1615 -0.00539396)
(0.581353 -23.2098 -0.00506979)
(0.622638 -16.0189 -0.00543184)
(0.540332 -14.5882 -0.00471087)
(0.487298 -14.1435 -0.0042516)
(0.446371 -13.6209 -0.0038955)
(0.41365 -12.97 -0.00361038)
(0.386504 -12.2188 -0.00337364)
(0.362677 -11.4305 -0.00316569)
(0.340054 -10.656 -0.00296824)
(0.317993 -9.91744 -0.0027757)
(0.296 -9.22087 -0.00258375)
(0.273921 -8.56478 -0.00239104)
(0.251661 -7.9448 -0.00219676)
(0.229235 -7.35606 -0.00200104)
(0.206699 -6.79415 -0.00180435)
(0.184148 -6.25556 -0.00160752)
(0.161697 -5.73772 -0.00141158)
(0.13948 -5.23886 -0.00121767)
(0.117641 -4.7579 -0.00102705)
(0.0963319 -4.29421 -0.000841063)
(0.0757089 -3.84753 -0.000661061)
(0.0559321 -3.41783 -0.000488438)
(0.0371607 -3.00518 -0.000324589)
(0.0195519 -2.60979 -0.000170885)
(0.00325719 -2.2319 -2.86476e-05)
(-0.0115834 -1.87175 0.000100901)
(-0.0248459 -1.52961 0.000216677)
(-0.0364378 -1.20575 0.000317874)
(-0.0462975 -0.900426 0.000403954)
(-0.054462 -0.613864 0.00047524)
(0.000517568 -0.286691 -4.47942e-06)
(0.000382909 -0.445543 -3.26902e-06)
(0.00709552 -0.742711 -6.18922e-05)
(0.0806098 -3.87652 -0.000699099)
(1.12239 -20.8495 -0.00979373)
(1.39926 -36.8736 -0.0122129)
(1.45176 -41.4053 -0.012672)
(1.04415 -37.434 -0.00911461)
(0.671865 -30.982 -0.00586273)
(0.603987 -23.3243 -0.00526742)
(0.652477 -16.0689 -0.00569085)
(0.568643 -14.575 -0.00495719)
(0.511537 -14.1424 -0.00446299)
(0.468123 -13.6253 -0.00408529)
(0.433027 -12.9768 -0.00377949)
(0.403733 -12.2259 -0.00352403)
(0.377955 -11.436 -0.00329905)
(0.353559 -10.6591 -0.00308613)
(0.329856 -9.91809 -0.00287924)
(0.306314 -9.21907 -0.00267377)
(0.282741 -8.56075 -0.00246804)
(0.25902 -7.9388 -0.00226101)
(0.235151 -7.34836 -0.00205269)
(0.211184 -6.78505 -0.0018435)
(0.187217 -6.24534 -0.00163433)
(0.163377 -5.72666 -0.00142625)
(0.139808 -5.22722 -0.00122055)
(0.116669 -4.74592 -0.00101859)
(0.0941249 -4.28212 -0.000821815)
(0.0723424 -3.83553 -0.000631692)
(0.0514908 -3.4061 -0.000449687)
(0.0317346 -2.9939 -0.000277241)
(0.0132328 -2.5991 -0.000115742)
(-0.00386571 -2.22192 3.35113e-05)
(-0.0194273 -1.86258 0.000169353)
(-0.0333391 -1.52134 0.000290798)
(-0.0455226 -1.19841 0.000397159)
(-0.0559329 -0.894033 0.000488045)
(-0.0646076 -0.608378 0.000563786)
(-0.000726123 -0.287387 6.38594e-06)
(0.00248822 -0.454179 -2.15759e-05)
(0.00382464 -0.795373 -3.24294e-05)
(0.0925521 -5.11433 -0.000802475)
(1.3015 -22.3282 -0.0113565)
(1.52468 -37.6484 -0.0133076)
(1.61259 -41.4412 -0.0140757)
(1.07576 -37.0836 -0.0093907)
(0.608223 -30.7201 -0.0053073)
(0.556476 -23.4405 -0.00485246)
(0.665518 -16.1555 -0.00580094)
(0.592525 -14.563 -0.00516397)
(0.533058 -14.1406 -0.00465048)
(0.487943 -13.6291 -0.0042582)
(0.450873 -12.9828 -0.00393524)
(0.419709 -12.2322 -0.00366348)
(0.39215 -11.4407 -0.00342297)
(0.366107 -10.6615 -0.00319565)
(0.340845 -9.91789 -0.00297517)
(0.315814 -9.21642 -0.00275671)
(0.290789 -8.55583 -0.00253829)
(0.26563 -7.93185 -0.00231871)
(0.240325 -7.33967 -0.00209786)
(0.214923 -6.77492 -0.00187616)
(0.189526 -6.23407 -0.0016545)
(0.164273 -5.71453 -0.00143409)
(0.139323 -5.21452 -0.00121632)
(0.114849 -4.7329 -0.00100271)
(0.0910315 -4.26902 -0.000794831)
(0.0680519 -3.82257 -0.000594259)
(0.0460895 -3.39347 -0.000402557)
(0.0253163 -2.98177 -0.000221234)
(0.0058949 -2.58762 -5.17081e-05)
(-0.0120259 -2.21122 0.000104724)
(-0.0283168 -1.85275 0.000246932)
(-0.0428728 -1.51245 0.000374)
(-0.0556241 -1.19051 0.000485318)
(-0.0665358 -0.887106 0.000580581)
(-0.0756401 -0.602401 0.000660073)
(-0.00220014 -0.28989 1.92591e-05)
(0.00545509 -0.464688 -4.73902e-05)
(-0.00183836 -0.843409 1.83173e-05)
(0.0954028 -6.491 -0.000827618)
(1.35048 -23.8705 -0.011784)
(1.58785 -38.4844 -0.0138589)
(1.6536 -41.3819 -0.0144338)
(0.945278 -36.5439 -0.00825213)
(0.440543 -30.4167 -0.00384384)
(0.456819 -23.6225 -0.00398223)
(0.662722 -16.3179 -0.00577033)
(0.609845 -14.5621 -0.00531291)
(0.55029 -14.1402 -0.00480035)
(0.504438 -13.6333 -0.00440207)
(0.466055 -12.9887 -0.00406773)
(0.43351 -12.2381 -0.00378394)
(0.404525 -11.4448 -0.00353099)
(0.377089 -10.6632 -0.00329152)
(0.350448 -9.917 -0.003059)
(0.324055 -9.21299 -0.00282865)
(0.297665 -8.55004 -0.00259833)
(0.271131 -7.92397 -0.00236674)
(0.244434 -7.32998 -0.00213373)
(0.217623 -6.76372 -0.00189974)
(0.190811 -6.22169 -0.00166573)
(0.164149 -5.70128 -0.00143302)
(0.137813 -5.20069 -0.00120316)
(0.111996 -4.71878 -0.000977827)
(0.0868937 -4.25486 -0.000758731)
(0.0627041 -3.80859 -0.000547597)
(0.0396192 -3.37988 -0.000346098)
(0.0178205 -2.96876 -0.000155823)
(-0.00252407 -2.57533 2.17618e-05)
(-0.0212639 -2.19976 0.000185344)
(-0.0382717 -1.84224 0.00033381)
(-0.0534469 -1.50293 0.000466284)
(-0.0667254 -1.18202 0.000582204)
(-0.0780769 -0.879661 0.000681306)
(-0.0875263 -0.595964 0.000763812)
(-0.00386401 -0.291678 3.37817e-05)
(0.0083379 -0.473023 -7.25039e-05)
(-0.0110687 -0.857715 0.000100495)
(0.0775538 -7.89524 -0.000672719)
(1.26361 -25.421 -0.011026)
(1.59056 -39.3397 -0.0138825)
(1.53473 -41.1183 -0.0133968)
(0.677247 -35.8253 -0.00591301)
(0.231644 -30.1516 -0.00202049)
(0.346852 -23.9158 -0.0030221)
(0.65298 -16.5693 -0.00568011)
(0.620887 -14.5769 -0.00540724)
(0.56273 -14.1422 -0.00490835)
(0.516798 -13.6381 -0.00450982)
(0.477736 -12.9947 -0.00416964)
(0.444332 -12.2437 -0.0038784)
(0.414368 -11.4486 -0.0036169)
(0.385889 -10.6643 -0.00336834)
(0.358139 -9.91543 -0.00312614)
(0.330588 -9.20879 -0.00288568)
(0.302986 -8.54339 -0.00264478)
(0.275189 -7.91512 -0.00240217)
(0.247179 -7.31924 -0.00215771)
(0.219017 -6.75142 -0.00191192)
(0.19083 -6.20817 -0.00166591)
(0.162787 -5.68687 -0.00142116)
(0.135085 -5.1857 -0.00117937)
(0.107938 -4.70351 -0.000942422)
(0.0815608 -4.23959 -0.0007122)
(0.0561703 -3.79356 -0.000490584)
(0.031973 -3.3653 -0.000279374)
(0.00916143 -2.95481 -8.02585e-05)
(-0.012089 -2.56218 0.000105234)
(-0.0316245 -2.18753 0.000275761)
(-0.0493175 -1.83101 0.00043021)
(-0.0650701 -1.49278 0.000567724)
(-0.0788205 -1.17297 0.000687765)
(-0.0905406 -0.871714 0.000790086)
(-0.100248 -0.589097 0.000874843)
(-0.00521481 -0.294156 4.55629e-05)
(0.010778 -0.478648 -9.38197e-05)
(-0.0196596 -0.838612 0.00017505)
(0.0797726 -9.13924 -0.00069271)
(1.12142 -26.9369 -0.00978518)
(1.5509 -40.1245 -0.0135363)
(1.28144 -40.5861 -0.0111868)
(0.36139 -35.0265 -0.0031563)
(0.066374 -30.0102 -0.000577781)
(0.266636 -24.3236 -0.00232159)
(0.646277 -16.8941 -0.0056206)
(0.627 -14.6058 -0.00545943)
(0.570306 -14.1469 -0.00497402)
(0.524623 -13.6439 -0.00457802)
(0.48544 -13.0011 -0.00423684)
(0.451704 -12.2495 -0.00394274)
(0.421252 -11.4522 -0.00367698)
(0.392128 -10.6651 -0.00342279)
(0.363583 -9.91335 -0.00317366)
(0.335112 -9.2039 -0.00292517)
(0.306477 -8.5359 -0.00267525)
(0.277548 -7.90532 -0.00242278)
(0.248325 -7.30746 -0.00216772)
(0.218885 -6.738 -0.00191078)
(0.189379 -6.19347 -0.00165325)
(0.159998 -5.67125 -0.00139682)
(0.130964 -5.16951 -0.00114341)
(0.102515 -4.68706 -0.000895113)
(0.0748917 -4.22317 -0.000654006)
(0.0483277 -3.77743 -0.000422147)
(0.0230471 -3.3497 -0.000201481)
(-0.000745211 -2.93992 6.19544e-06)
(-0.0228653 -2.54816 0.00019928)
(-0.0431547 -2.1745 0.000376389)
(-0.0614843 -1.81908 0.000536394)
(-0.077757 -1.482 0.00067845)
(-0.0919119 -1.16337 0.000802023)
(-0.103921 -0.863289 0.000906871)
(-0.113796 -0.581831 0.000993094)
(-0.00606994 -0.296243 5.30204e-05)
(0.0121864 -0.480684 -0.000106165)
(-0.0220338 -0.859696 0.000192496)
(0.123889 -10.2402 -0.00107813)
(1.03604 -28.3868 -0.00904027)
(1.48586 -40.7144 -0.012969)
(0.967958 -39.7992 -0.00845136)
(0.103021 -34.2891 -0.000901113)
(-0.00321138 -30.0298 2.99552e-05)
(0.230841 -24.8018 -0.0020089)
(0.647649 -17.2612 -0.00563497)
(0.630168 -14.6404 -0.0054871)
(0.573397 -14.1532 -0.00500079)
(0.527978 -13.6505 -0.00460722)
(0.489041 -13.0081 -0.00426824)
(0.455422 -12.2557 -0.00397518)
(0.424947 -11.4559 -0.00370923)
(0.395572 -10.6658 -0.00345285)
(0.366555 -9.91084 -0.0031996)
(0.337414 -9.19838 -0.00294527)
(0.307935 -8.52762 -0.00268799)
(0.278016 -7.89458 -0.00242687)
(0.247683 -7.29461 -0.00216213)
(0.217046 -6.72343 -0.00189474)
(0.186281 -6.17757 -0.00162623)
(0.155613 -5.6544 -0.00135856)
(0.125293 -5.15208 -0.00109393)
(0.0955853 -4.6694 -0.00083464)
(0.0667562 -4.20558 -0.000583013)
(0.0390617 -3.7602 -0.000341286)
(0.0127433 -3.33305 -0.000111561)
(-0.0119809 -2.92407 0.00010425)
(-0.0349175 -2.53326 0.000304462)
(-0.0559026 -2.16069 0.000487644)
(-0.0748046 -1.80644 0.000652649)
(-0.0915266 -1.47059 0.000798627)
(-0.106008 -1.15323 0.000925048)
(-0.11822 -0.854409 0.00103167)
(-0.12817 -0.574194 0.00111855)
(-0.00634517 -0.29859 5.54125e-05)
(0.012676 -0.482122 -0.000110519)
(-0.0185258 -0.95488 0.000159002)
(0.182234 -11.2917 -0.0015882)
(1.01639 -29.7511 -0.00886915)
(1.38591 -41.0254 -0.0120971)
(0.66575 -38.8537 -0.00581399)
(-0.0413161 -33.7304 0.000359015)
(0.0140333 -30.1841 -0.000120125)
(0.228594 -25.2891 -0.00198938)
(0.654213 -17.6434 -0.00569581)
(0.631687 -14.6713 -0.00550143)
(0.572438 -14.1592 -0.00499245)
(0.52718 -13.6575 -0.00460023)
(0.4887 -13.0156 -0.00426523)
(0.455564 -12.2623 -0.00397641)
(0.425462 -11.4598 -0.00371372)
(0.396186 -10.6664 -0.00345821)
(0.366989 -9.90801 -0.00320339)
(0.337403 -9.1923 -0.00294517)
(0.30725 -8.51856 -0.00268201)
(0.276467 -7.88289 -0.00241336)
(0.24512 -7.28068 -0.00213978)
(0.213358 -6.70768 -0.00186256)
(0.181395 -6.16041 -0.0015836)
(0.149492 -5.63627 -0.00130515)
(0.117934 -5.13337 -0.00102972)
(0.0870177 -4.65048 -0.000759876)
(0.0570353 -4.18679 -0.000498182)
(0.0282659 -3.74182 -0.000247072)
(0.000969188 -3.31535 -8.80724e-06)
(-0.0246228 -2.90724 0.000214579)
(-0.0483075 -2.51748 0.000421322)
(-0.0699153 -2.14609 0.000609941)
(-0.0893121 -1.79311 0.000779265)
(-0.1064 -1.45858 0.000928442)
(-0.12112 -1.14257 0.00105694)
(-0.133442 -0.845101 0.00116453)
(-0.143372 -0.566217 0.00125124)
(-0.00626287 -0.300774 5.46744e-05)
(0.0124839 -0.485574 -0.000108934)
(-0.0134544 -1.12688 0.000115326)
(0.21574 -12.3264 -0.00188175)
(1.02143 -30.9968 -0.00891368)
(1.23727 -41.0487 -0.0108002)
(0.417265 -37.884 -0.0036451)
(-0.0835035 -33.3927 0.000727731)
(0.0717951 -30.4155 -0.000623966)
(0.236547 -25.7389 -0.00205911)
(0.658245 -18.0291 -0.00573373)
(0.631964 -14.6926 -0.00550552)
(0.567973 -14.1632 -0.00495362)
(0.522755 -13.6644 -0.00456163)
(0.484821 -13.0235 -0.00423133)
(0.452424 -12.2695 -0.00394899)
(0.422989 -11.4641 -0.00369213)
(0.394082 -10.667 -0.00343984)
(0.364932 -9.90492 -0.00318544)
(0.335077 -9.18568 -0.00292488)
(0.304383 -8.50872 -0.00265699)
(0.272834 -7.87022 -0.00238165)
(0.240545 -7.26562 -0.00209985)
(0.207715 -6.69069 -0.00181332)
(0.174603 -6.14197 -0.00152433)
(0.141513 -5.61683 -0.00123553)
(0.108768 -5.11336 -0.000949725)
(0.0766969 -4.63029 -0.000669808)
(0.0456211 -4.16677 -0.00039857)
(0.0158427 -3.7223 -0.000138652)
(-0.0123606 -3.29658 0.000107526)
(-0.0387433 -2.88944 0.000337815)
(-0.0630941 -2.50082 0.000550373)
(-0.0852381 -2.13071 0.000743674)
(-0.105039 -1.77909 0.000916529)
(-0.1224 -1.44599 0.00106809)
(-0.137261 -1.13142 0.00119783)
(-0.149595 -0.835395 0.00130551)
(-0.159406 -0.557931 0.00139118)
(-0.00598809 -0.303014 5.22639e-05)
(0.0119699 -0.493011 -0.000104471)
(-0.0107134 -1.30619 9.45628e-05)
(0.186151 -13.3755 -0.00162401)
(0.969293 -32.087 -0.00845883)
(1.03278 -40.844 -0.00901554)
(0.219085 -37.0053 -0.00191495)
(-0.0795354 -33.2501 0.000693662)
(0.124802 -30.6759 -0.00108641)
(0.230089 -26.1308 -0.00200297)
(0.651647 -18.4224 -0.0056773)
(0.630494 -14.7047 -0.00549452)
(0.560607 -14.1639 -0.00488943)
(0.515337 -13.6709 -0.00449692)
(0.477981 -13.0317 -0.00417161)
(0.446468 -12.2771 -0.00389699)
(0.417873 -11.4688 -0.00364746)
(0.389503 -10.6677 -0.00339987)
(0.36054 -9.90156 -0.00314709)
(0.330519 -9.17847 -0.00288509)
(0.299358 -8.49803 -0.00261314)
(0.267094 -7.8565 -0.00233156)
(0.233903 -7.24936 -0.00204189)
(0.200037 -6.6724 -0.00174632)
(0.165811 -6.12217 -0.00144761)
(0.131573 -5.59601 -0.00114878)
(0.0976875 -5.09199 -0.00085303)
(0.0645187 -4.60879 -0.000563528)
(0.0324152 -4.14552 -0.000283321)
(0.00170254 -3.70162 -1.5247e-05)
(-0.0273247 -3.27674 0.000238124)
(-0.054409 -2.87068 0.000474538)
(-0.0793314 -2.48331 0.000692086)
(-0.101913 -2.11457 0.00088921)
(-0.122017 -1.76442 0.00106471)
(-0.139547 -1.43284 0.00121775)
(-0.154445 -1.11981 0.00134781)
(-0.166685 -0.825322 0.00145468)
(-0.176275 -0.549368 0.00153842)
(-0.00576637 -0.305026 5.03227e-05)
(0.0115017 -0.502584 -0.000100407)
(-0.0129084 -1.4078 0.000116208)
(0.0994358 -14.3248 -0.000867238)
(0.797583 -32.9937 -0.00696036)
(0.786765 -40.512 -0.00686827)
(0.0489936 -36.2846 -0.000429834)
(-0.0845827 -33.253 0.000738284)
(0.147324 -30.9384 -0.00128279)
(0.197472 -26.4661 -0.00171828)
(0.631271 -18.8367 -0.00549987)
(0.626715 -14.7137 -0.00546331)
(0.551123 -14.1611 -0.00480657)
(0.505679 -13.6765 -0.00441265)
(0.468897 -13.04 -0.00409229)
(0.438277 -12.2851 -0.00382548)
(0.410566 -11.4737 -0.00358368)
(0.382775 -10.6684 -0.00334114)
(0.354032 -9.89784 -0.00309029)
(0.323862 -9.17058 -0.00282699)
(0.292239 -8.4864 -0.00255101)
(0.259258 -7.84163 -0.00226317)
(0.225161 -7.2318 -0.0019656)
(0.190265 -6.65273 -0.00166104)
(0.154938 -6.10094 -0.00135272)
(0.119581 -5.57376 -0.00104412)
(0.0845977 -5.06921 -0.000738793)
(0.0503881 -4.58595 -0.000440207)
(0.0173281 -4.123 -0.00015165)
(-0.0142361 -3.67977 0.000123857)
(-0.0439947 -3.25584 0.000383613)
(-0.0716804 -2.85096 0.000625277)
(-0.0970685 -2.46495 0.000846892)
(-0.119979 -2.09769 0.00104688)
(-0.140274 -1.74912 0.00122405)
(-0.15786 -1.41917 0.00137758)
(-0.172682 -1.10778 0.00150699)
(-0.18472 -0.814917 0.00161209)
(-0.193982 -0.540561 0.00169298)
(-0.00558654 -0.306917 4.87545e-05)
(0.0110563 -0.510517 -9.65639e-05)
(-0.0151027 -1.39638 0.000135023)
(0.0311529 -15.0264 -0.000271323)
(0.552825 -33.6972 -0.0048244)
(0.544457 -40.1362 -0.00475319)
(-0.0989885 -35.73 0.000862245)
(-0.120691 -33.3483 0.00105395)
(0.136793 -31.1966 -0.00119061)
(0.145071 -26.7603 -0.00126075)
(0.601357 -19.2836 -0.00523911)
(0.620799 -14.7272 -0.00541343)
(0.54049 -14.1551 -0.00471353)
(0.494643 -13.6809 -0.00431635)
(0.45836 -13.048 -0.0040003)
(0.428495 -12.2933 -0.00374008)
(0.401575 -11.4787 -0.00350519)
(0.374271 -10.6689 -0.00326691)
(0.345664 -9.89358 -0.00301725)
(0.315265 -9.16185 -0.00275196)
(0.283106 -8.47366 -0.0024713)
(0.249345 -7.82545 -0.00217666)
(0.214297 -7.21281 -0.00187078)
(0.178342 -6.63155 -0.00155699)
(0.141911 -6.07818 -0.00123902)
(0.105451 -5.55 -0.000920806)
(0.0694087 -5.04499 -0.000606234)
(0.0342172 -4.56173 -0.000299077)
(0.000276959 -4.09921 -2.83614e-06)
(-0.0320479 -3.65675 0.000279311)
(-0.0624354 -3.23389 0.000544558)
(-0.0906115 -2.8303 0.000790504)
(-0.116349 -2.44576 0.00101517)
(-0.139467 -2.08011 0.00121698)
(-0.159832 -1.73323 0.00139476)
(-0.177354 -1.405 0.00154773)
(-0.191982 -1.09535 0.00167544)
(-0.203702 -0.804215 0.00177777)
(-0.212528 -0.531545 0.00185485)
(-0.00529163 -0.308599 4.61903e-05)
(0.0102942 -0.515671 -8.99286e-05)
(-0.00993448 -1.37628 8.85798e-05)
(0.00179224 -15.4392 -1.49228e-05)
(0.323603 -34.1974 -0.00282403)
(0.338288 -39.747 -0.00295351)
(-0.220302 -35.3026 0.00192143)
(-0.180304 -33.4911 0.00157465)
(0.105207 -31.4541 -0.000914626)
(0.0920064 -27.0353 -0.00079733)
(0.57094 -19.7641 -0.00497398)
(0.613696 -14.7498 -0.00535327)
(0.529801 -14.146 -0.00461991)
(0.483166 -13.684 -0.0042162)
(0.447182 -13.0555 -0.00390272)
(0.417781 -12.3013 -0.00364656)
(0.391412 -11.4835 -0.00341648)
(0.364362 -10.6689 -0.00318042)
(0.335691 -9.88852 -0.0029302)
(0.304882 -9.15202 -0.00266133)
(0.272035 -8.45958 -0.00237468)
(0.237372 -7.80777 -0.00207217)
(0.201283 -7.19221 -0.0017572)
(0.164213 -6.60872 -0.00143368)
(0.126653 -6.05378 -0.00110587)
(0.0890981 -5.52465 -0.000778093)
(0.0520343 -5.01925 -0.0004546)
(0.0159226 -4.5361 -0.000139411)
(-0.018815 -4.07412 0.000163791)
(-0.0518007 -3.63255 0.000451709)
(-0.0827047 -3.21089 0.000721465)
(-0.11125 -2.80873 0.000970632)
(-0.137209 -2.42579 0.00119724)
(-0.160405 -2.06186 0.00139973)
(-0.18071 -1.71678 0.00157699)
(-0.198039 -1.39039 0.00172827)
(-0.212349 -1.08258 0.00185321)
(-0.223632 -0.793255 0.00195173)
(-0.231909 -0.522358 0.00202402)
(-0.00478407 -0.310108 4.176e-05)
(0.00910976 -0.518985 -7.95996e-05)
(-0.00115428 -1.36144 1.17694e-05)
(-0.0388516 -15.6175 0.000340077)
(0.142798 -34.5353 -0.00124614)
(0.168283 -39.3482 -0.00146953)
(-0.311276 -34.9614 0.00271574)
(-0.243598 -33.6573 0.00212737)
(0.0722356 -31.7202 -0.000626571)
(0.0608827 -27.3132 -0.000525373)
(0.549636 -20.2656 -0.00478836)
(0.606564 -14.7816 -0.00529275)
(0.520075 -14.1339 -0.00453472)
(0.472138 -13.6853 -0.00411997)
(0.436103 -13.0621 -0.00380602)
(0.406735 -12.3086 -0.00355014)
(0.380532 -11.4875 -0.00332152)
(0.353371 -10.668 -0.00308448)
(0.324321 -9.88228 -0.00283096)
(0.292829 -9.14076 -0.00255614)
(0.259071 -8.44388 -0.00226153)
(0.223329 -7.78835 -0.00194961)
(0.186071 -7.1698 -0.00162445)
(0.147807 -6.58408 -0.0012905)
(0.109082 -6.02762 -0.000952513)
(0.0704355 -5.49763 -0.000615215)
(0.0323879 -4.99195 -0.000283135)
(-0.00457634 -4.50903 3.94964e-05)
(-0.0400199 -4.04772 0.000348862)
(-0.0735565 -3.6072 0.00064159)
(-0.104853 -3.18686 0.000914777)
(-0.133635 -2.78626 0.00116601)
(-0.159678 -2.40506 0.00139335)
(-0.182814 -2.04298 0.00159531)
(-0.20292 -1.69981 0.00177084)
(-0.219921 -1.37536 0.00191927)
(-0.233783 -1.06949 0.0020403)
(-0.244505 -0.782078 0.00213392)
(-0.252118 -0.513036 0.00220042)
(-0.00406982 -0.311316 3.55273e-05)
(0.00745446 -0.520594 -6.51024e-05)
(0.00883781 -1.3261 -7.63642e-05)
(-0.097651 -15.5922 0.000853287)
(0.0342738 -34.7633 -0.000299071)
(0.0355402 -38.9496 -0.000310847)
(-0.357928 -34.6823 0.00312319)
(-0.283758 -33.8432 0.00247813)
(0.0612274 -32.0065 -0.000530281)
(0.0703861 -27.6081 -0.000608)
(0.544783 -20.7624 -0.00474622)
(0.600575 -14.8186 -0.00524085)
(0.512205 -14.1182 -0.00446585)
(0.462349 -13.6843 -0.00403455)
(0.425753 -13.0672 -0.00371567)
(0.395859 -12.3148 -0.00345522)
(0.369296 -11.4905 -0.00322344)
(0.341537 -10.6657 -0.0029812)
(0.311689 -9.87444 -0.00272072)
(0.27916 -9.12767 -0.00243685)
(0.244205 -8.42622 -0.0021318)
(0.207167 -7.76688 -0.00180856)
(0.168586 -7.14536 -0.00147185)
(0.129032 -6.55745 -0.00112664)
(0.0890992 -5.99956 -0.000778118)
(0.0493671 -5.46882 -0.00043134)
(0.0103806 -4.96301 -9.10633e-05)
(-0.0273588 -4.48048 0.000238335)
(-0.0634053 -4.02001 0.000552965)
(-0.0973706 -3.58068 0.000849437)
(-0.128925 -3.16184 0.00112487)
(-0.157799 -2.76295 0.00137691)
(-0.183779 -2.38361 0.0016037)
(-0.206705 -2.02351 0.00180384)
(-0.226466 -1.68237 0.00197636)
(-0.242999 -1.35998 0.0021207)
(-0.256278 -1.05614 0.00223664)
(-0.266313 -0.770725 0.00232427)
(-0.273144 -0.503619 0.00238395)
(-0.00317664 -0.312086 2.7731e-05)
(0.00539864 -0.51995 -4.71485e-05)
(0.0178511 -1.26339 -0.000156554)
(-0.146211 -15.4513 0.00127695)
(0.0477538 -34.9417 -0.000416889)
(-0.0519588 -38.5512 0.000452808)
(-0.340446 -34.4618 0.0029709)
(-0.276507 -34.0537 0.00241503)
(0.0909913 -32.3208 -0.000789911)
(0.128699 -27.9227 -0.00111668)
(0.559588 -21.2205 -0.00487573)
(0.59716 -14.8543 -0.00520685)
(0.506855 -14.0978 -0.00441912)
(0.454396 -13.6803 -0.00396518)
(0.416567 -13.0703 -0.00363552)
(0.385486 -12.3192 -0.00336469)
(0.35791 -11.4915 -0.00312407)
(0.328968 -10.6614 -0.00287151)
(0.297821 -9.86444 -0.0025997)
(0.26384 -9.11231 -0.00230315)
(0.227361 -8.4062 -0.00198479)
(0.188781 -7.74307 -0.00164809)
(0.148709 -7.11862 -0.00129838)
(0.107767 -6.52864 -0.000941049)
(0.0665908 -5.96947 -0.000581675)
(0.0257877 -5.43815 -0.000225548)
(-0.0140798 -4.93239 0.00012242)
(-0.0525023 -4.45044 0.000457783)
(-0.0890338 -3.99098 0.000776648)
(-0.123291 -3.55303 0.00107567)
(-0.154954 -3.13584 0.00135206)
(-0.183764 -2.73882 0.00160354)
(-0.209523 -2.36149 0.0018284)
(-0.232082 -2.00349 0.00202534)
(-0.251346 -1.66451 0.00219352)
(-0.267263 -1.34427 0.00233249)
(-0.279821 -1.04257 0.00244214)
(-0.28904 -0.759241 0.00252265)
(-0.29497 -0.494148 0.00257446)
(-0.00214068 -0.312277 1.86727e-05)
(0.00310094 -0.517097 -2.72163e-05)
(0.0223346 -1.19352 -0.000195703)
(-0.141205 -15.3497 0.00123333)
(0.218243 -35.116 -0.00190505)
(-0.0786808 -38.1329 0.000685812)
(-0.246222 -34.3063 0.00214885)
(-0.210184 -34.29 0.0018363)
(0.169436 -32.6626 -0.00147444)
(0.230525 -28.2482 -0.00200524)
(0.593672 -21.6077 -0.00517407)
(0.597805 -14.8821 -0.00520582)
(0.504416 -14.0712 -0.00439797)
(0.448618 -13.6728 -0.0039148)
(0.408753 -13.0706 -0.00356735)
(0.375741 -12.321 -0.00327965)
(0.346394 -11.4901 -0.00302357)
(0.315616 -10.6545 -0.00275499)
(0.282612 -9.85171 -0.00246696)
(0.246728 -9.09416 -0.00215381)
(0.208376 -8.38342 -0.00181911)
(0.168003 -7.71656 -0.00146677)
(0.126278 -7.08933 -0.00110261)
(0.0838616 -6.49746 -0.000732418)
(0.0414221 -5.9372 -0.000362014)
(-0.000417689 -5.40553 3.16347e-06)
(-0.0410881 -4.90003 0.000358142)
(-0.0800821 -4.41887 0.000698496)
(-0.116962 -3.96065 0.00102041)
(-0.151358 -3.52427 0.00132064)
(-0.182966 -3.10891 0.00159655)
(-0.211545 -2.71392 0.00184602)
(-0.236913 -2.33876 0.00206747)
(-0.25894 -1.98299 0.00225977)
(-0.277548 -1.64628 0.00242222)
(-0.292698 -1.32831 0.0025545)
(-0.304393 -1.02884 0.00265661)