/*--------------------------------*- C++ -*----------------------------------*\
| =========                 |                                                 |
| \\      /  F ield         | OpenFOAM: The Open Source CFD Toolbox           |
|  \\    /   O peration     | Version:  v2012                                 |
|   \\  /    A nd           | Website:  www.openfoam.com                      |
|    \\/     M anipulation  |                                                 |
\*---------------------------------------------------------------------------*/
FoamFile
{
    version     2.0;
    format      ascii;
    class       volVectorField;
    location    "0.9";
    object      U;
}
// * * * * * * * * * * * * * * * * * * * * * * * * * * * * * * * * * * * * * //

dimensions      [0 1 -1 0 0 0 0];


internalField   nonuniform List<vector> 
3352
(
(2.07321e-06 -0.00249346 -1.80967e-08)
(7.65787e-06 -0.00462102 -6.6831e-08)
(1.51537e-05 -0.00640253 -1.32252e-07)
(2.37367e-05 -0.00789171 -2.07161e-07)
(3.34022e-05 -0.00918093 -2.91525e-07)
(4.38572e-05 -0.0103251 -3.82776e-07)
(5.53396e-05 -0.0113588 -4.82987e-07)
(6.79836e-05 -0.0123046 -5.93336e-07)
(8.16579e-05 -0.0131784 -7.12688e-07)
(9.6524e-05 -0.0139916 -8.42428e-07)
(0.000112537 -0.0147529 -9.82177e-07)
(0.00012983 -0.0154684 -1.1331e-06)
(0.0001483 -0.0161433 -1.29429e-06)
(0.000168071 -0.0167813 -1.46684e-06)
(0.000189014 -0.0173855 -1.64961e-06)
(0.000211156 -0.0179581 -1.84286e-06)
(0.000234379 -0.0185009 -2.04554e-06)
(0.000258679 -0.0190152 -2.25761e-06)
(0.000283937 -0.019502 -2.47805e-06)
(0.000310116 -0.0199618 -2.70653e-06)
(0.000337107 -0.0203951 -2.94209e-06)
(0.000364848 -0.0208019 -3.1842e-06)
(0.000393199 -0.0211821 -3.43163e-06)
(0.000422083 -0.0215355 -3.68372e-06)
(0.000451345 -0.0218615 -3.93911e-06)
(0.000480869 -0.0221594 -4.19678e-06)
(0.000510468 -0.0224285 -4.45512e-06)
(0.000539976 -0.0226677 -4.71266e-06)
(0.000569168 -0.022876 -4.96745e-06)
(0.000597828 -0.0230521 -5.21761e-06)
(0.000625683 -0.0231946 -5.46074e-06)
(0.000652461 -0.0233021 -5.69446e-06)
(0.000677844 -0.0233728 -5.91603e-06)
(0.000701505 -0.0234051 -6.12257e-06)
(0.000723084 -0.023397 -6.31095e-06)
(0.000742207 -0.0233467 -6.47791e-06)
(0.000758485 -0.0232521 -6.62002e-06)
(0.000771514 -0.0231109 -6.73381e-06)
(0.000780894 -0.0229209 -6.81577e-06)
(1.70168e-06 -0.00252394 -1.48483e-08)
(7.24074e-06 -0.00466389 -6.31821e-08)
(1.54244e-05 -0.00645222 -1.34606e-07)
(2.53778e-05 -0.00794566 -2.21475e-07)
(3.64676e-05 -0.00923794 -3.1826e-07)
(4.8584e-05 -0.0103847 -4.2402e-07)
(6.15181e-05 -0.0114204 -5.36908e-07)
(7.55769e-05 -0.0123682 -6.59609e-07)
(9.04923e-05 -0.0132438 -7.8979e-07)
(0.000106284 -0.0140588 -9.27625e-07)
(0.000123001 -0.0148215 -1.07352e-06)
(0.00014066 -0.0155385 -1.22764e-06)
(0.000159283 -0.0162146 -1.39017e-06)
(0.000178929 -0.0168536 -1.56163e-06)
(0.000199631 -0.0174585 -1.74231e-06)
(0.000221342 -0.0180316 -1.93179e-06)
(0.000244111 -0.0185746 -2.13051e-06)
(0.000267851 -0.019089 -2.3377e-06)
(0.000292611 -0.0195755 -2.5538e-06)
(0.000318265 -0.020035 -2.7777e-06)
(0.000344795 -0.0204676 -3.00923e-06)
(0.000372091 -0.0208736 -3.24745e-06)
(0.000400086 -0.0212528 -3.49177e-06)
(0.00042864 -0.0216049 -3.74097e-06)
(0.000457648 -0.0219295 -3.99413e-06)
(0.000486934 -0.0222258 -4.24973e-06)
(0.000516351 -0.0224931 -4.50646e-06)
(0.000545687 -0.0227303 -4.7625e-06)
(0.000574748 -0.0229364 -5.01612e-06)
(0.000603279 -0.0231102 -5.26515e-06)
(0.000631031 -0.0232501 -5.50736e-06)
(0.000657706 -0.0233548 -5.74016e-06)
(0.000682998 -0.0234227 -5.96091e-06)
(0.000706563 -0.0234519 -6.16659e-06)
(0.000728046 -0.0234407 -6.35411e-06)
(0.000747066 -0.023387 -6.52014e-06)
(0.000763231 -0.0232889 -6.66125e-06)
(0.000776137 -0.0231441 -6.77392e-06)
(0.000785376 -0.0229504 -6.85463e-06)
(9.98412e-07 -0.00252093 -8.71093e-09)
(5.13548e-06 -0.00466478 -4.48113e-08)
(1.18997e-05 -0.0064572 -1.03846e-07)
(2.06219e-05 -0.00795393 -1.79964e-07)
(3.08645e-05 -0.00924896 -2.69356e-07)
(4.24093e-05 -0.0103978 -3.70119e-07)
(5.51192e-05 -0.0114356 -4.81053e-07)
(6.89687e-05 -0.0123849 -6.01917e-07)
(8.38138e-05 -0.0132623 -7.31483e-07)
(9.99597e-05 -0.0140788 -8.72402e-07)
(0.000117112 -0.0148432 -1.02211e-06)
(0.000135409 -0.0155618 -1.18179e-06)
(0.000154791 -0.0162396 -1.35095e-06)
(0.000175292 -0.0168803 -1.52987e-06)
(0.00019682 -0.0174869 -1.71776e-06)
(0.000219451 -0.0180617 -1.91527e-06)
(0.000243056 -0.0186065 -2.12128e-06)
(0.000267658 -0.0191224 -2.33601e-06)
(0.00029318 -0.0196105 -2.55876e-06)
(0.000319587 -0.0200713 -2.78922e-06)
(0.000346794 -0.0205052 -3.02667e-06)
(0.00037475 -0.0209123 -3.27065e-06)
(0.000403329 -0.0212925 -3.52008e-06)
(0.000432459 -0.0216453 -3.77431e-06)
(0.000461983 -0.0219705 -4.03198e-06)
(0.00049178 -0.0222671 -4.29204e-06)
(0.000521661 -0.0225345 -4.55283e-06)
(0.000551452 -0.0227716 -4.81284e-06)
(0.000580925 -0.0229773 -5.07006e-06)
(0.000609853 -0.0231504 -5.32255e-06)
(0.00063796 -0.0232895 -5.56786e-06)
(0.000664963 -0.023393 -5.80353e-06)
(0.000690539 -0.0234594 -6.02676e-06)
(0.000714352 -0.0234869 -6.2346e-06)
(0.000736034 -0.0234737 -6.42386e-06)
(0.000755205 -0.0234178 -6.5912e-06)
(0.000771468 -0.0233172 -6.73316e-06)
(0.000784412 -0.0231698 -6.84617e-06)
(0.000793632 -0.0229731 -6.9267e-06)
(1.12999e-06 -0.00254236 -9.8577e-09)
(5.58103e-06 -0.00469702 -4.87025e-08)
(1.27764e-05 -0.00649644 -1.11487e-07)
(2.22185e-05 -0.00799791 -1.93905e-07)
(3.30931e-05 -0.00929636 -2.88806e-07)
(4.54866e-05 -0.0104478 -3.96977e-07)
(5.88965e-05 -0.0114875 -5.14008e-07)
(7.35279e-05 -0.0124384 -6.41716e-07)
(8.89873e-05 -0.0133169 -7.76642e-07)
(0.000105638 -0.0141342 -9.21964e-07)
(0.000123092 -0.0148992 -1.07429e-06)
(0.000141657 -0.0156181 -1.23633e-06)
(0.000161174 -0.0162961 -1.40667e-06)
(0.00018166 -0.0169368 -1.58545e-06)
(0.000203181 -0.0175434 -1.77327e-06)
(0.000225707 -0.018118 -1.96987e-06)
(0.000249256 -0.0186624 -2.17539e-06)
(0.000273787 -0.019178 -2.38949e-06)
(0.000299337 -0.0196656 -2.61247e-06)
(0.000325773 -0.0201259 -2.84319e-06)
(0.000353102 -0.0205592 -3.0817e-06)
(0.000381218 -0.0209656 -3.32708e-06)
(0.000410053 -0.021345 -3.57874e-06)
(0.000439465 -0.021697 -3.83544e-06)
(0.000469345 -0.0220212 -4.09622e-06)
(0.000499513 -0.0223168 -4.35951e-06)
(0.000529813 -0.022583 -4.62395e-06)
(0.000560025 -0.0228188 -4.88763e-06)
(0.000589943 -0.0230232 -5.14875e-06)
(0.000619304 -0.0231947 -5.40502e-06)
(0.000647846 -0.0233321 -5.65413e-06)
(0.000675257 -0.0234338 -5.89336e-06)
(0.000701219 -0.0234981 -6.11996e-06)
(0.000725376 -0.0235234 -6.33081e-06)
(0.000747358 -0.0235079 -6.52269e-06)
(0.000766772 -0.0234495 -6.69215e-06)
(0.000783211 -0.0233462 -6.83566e-06)
(0.000796259 -0.0231959 -6.94958e-06)
(0.000805498 -0.0229963 -7.03029e-06)
(6.60404e-07 -0.00254123 -5.73899e-09)
(4.07278e-06 -0.00470074 -3.55251e-08)
(1.00748e-05 -0.00650527 -8.79276e-08)
(1.82413e-05 -0.00801126 -1.59179e-07)
(2.81282e-05 -0.00931362 -2.45487e-07)
(3.9784e-05 -0.0104683 -3.47199e-07)
(5.27978e-05 -0.011511 -4.60786e-07)
(6.72116e-05 -0.0124646 -5.86588e-07)
(8.27747e-05 -0.0133455 -7.22415e-07)
(9.97632e-05 -0.0141651 -8.70672e-07)
(0.00011769 -0.0149322 -1.02713e-06)
(0.000137042 -0.0156532 -1.19604e-06)
(0.000157397 -0.0163331 -1.37369e-06)
(0.000178921 -0.0169757 -1.56153e-06)
(0.000201509 -0.0175839 -1.75867e-06)
(0.000225164 -0.0181601 -1.96512e-06)
(0.0002498 -0.018706 -2.18013e-06)
(0.000275431 -0.0192229 -2.40383e-06)
(0.00030199 -0.0197116 -2.63562e-06)
(0.000329444 -0.0201728 -2.87523e-06)
(0.00035771 -0.0206069 -3.12192e-06)
(0.000386753 -0.0210138 -3.3754e-06)
(0.000416448 -0.0213935 -3.63456e-06)
(0.000446717 -0.0217456 -3.89873e-06)
(0.000477402 -0.0220696 -4.16654e-06)
(0.000508376 -0.0223649 -4.43686e-06)
(0.000539439 -0.0226305 -4.70797e-06)
(0.00057041 -0.0228656 -4.97827e-06)
(0.000601046 -0.0230689 -5.24565e-06)
(0.000631108 -0.0232392 -5.50804e-06)
(0.000660303 -0.023375 -5.76285e-06)
(0.000688333 -0.023475 -6.00748e-06)
(0.000714855 -0.0235375 -6.23898e-06)
(0.000739517 -0.0235606 -6.45423e-06)
(0.000761931 -0.0235427 -6.64987e-06)
(0.000781698 -0.0234817 -6.82242e-06)
(0.000798401 -0.0233757 -6.96823e-06)
(0.000811612 -0.0232225 -7.08358e-06)
(0.000820908 -0.0230198 -7.16478e-06)
(7.97486e-07 -0.00255641 -6.95215e-09)
(4.66598e-06 -0.00472486 -4.06937e-08)
(1.07845e-05 -0.00653582 -9.40979e-08)
(1.96621e-05 -0.0080466 -1.71575e-07)
(2.97832e-05 -0.00935278 -2.59904e-07)
(4.19109e-05 -0.0105104 -3.65765e-07)
(5.51289e-05 -0.0115556 -4.81138e-07)
(6.99527e-05 -0.012511 -6.10511e-07)
(8.58033e-05 -0.0133934 -7.48842e-07)
(0.000103046 -0.0142142 -8.99323e-07)
(0.000121171 -0.0149822 -1.05752e-06)
(0.000140697 -0.0157038 -1.22793e-06)
(0.000161185 -0.0163842 -1.40674e-06)
(0.000182866 -0.0170272 -1.59596e-06)
(0.000205667 -0.0176357 -1.79495e-06)
(0.000229548 -0.0182121 -2.00338e-06)
(0.000254541 -0.0187582 -2.2215e-06)
(0.000280556 -0.0192751 -2.44854e-06)
(0.000307625 -0.0197638 -2.68479e-06)
(0.000335633 -0.020225 -2.92923e-06)
(0.000364554 -0.020659 -3.18164e-06)
(0.000394291 -0.0210657 -3.44117e-06)
(0.00042477 -0.0214451 -3.70717e-06)
(0.000455841 -0.0217969 -3.97835e-06)
(0.000487388 -0.0221204 -4.25368e-06)
(0.000519222 -0.0224149 -4.53151e-06)
(0.000551177 -0.0226797 -4.8104e-06)
(0.000583021 -0.0229138 -5.08832e-06)
(0.000614535 -0.0231159 -5.36336e-06)
(0.000645438 -0.0232848 -5.6331e-06)
(0.00067545 -0.0234191 -5.89504e-06)
(0.000704242 -0.0235172 -6.14633e-06)
(0.000731475 -0.0235777 -6.38402e-06)
(0.00075677 -0.0235986 -6.60481e-06)
(0.000779736 -0.0235783 -6.80527e-06)
(0.000799957 -0.0235147 -6.98178e-06)
(0.000817003 -0.0234058 -7.13059e-06)
(0.000830438 -0.0232496 -7.24788e-06)
(0.000839819 -0.0230438 -7.32983e-06)
(4.86226e-07 -0.00255755 -4.23623e-09)
(3.68416e-06 -0.00473132 -3.21177e-08)
(9.0308e-06 -0.00654768 -7.87758e-08)
(1.69678e-05 -0.00806339 -1.48048e-07)
(2.64037e-05 -0.00937371 -2.30385e-07)
(3.80047e-05 -0.0105351 -3.31672e-07)
(5.09143e-05 -0.0115837 -4.44341e-07)
(6.56811e-05 -0.0125422 -5.73225e-07)
(8.16553e-05 -0.0134274 -7.12631e-07)
(9.92666e-05 -0.0142507 -8.66334e-07)
(0.000117918 -0.0150212 -1.02911e-06)
(0.000138184 -0.0157449 -1.20599e-06)
(0.000159463 -0.0164273 -1.3917e-06)
(0.000182142 -0.0170719 -1.58963e-06)
(0.000205939 -0.0176821 -1.79732e-06)
(0.00023094 -0.0182599 -2.01552e-06)
(0.000257039 -0.0188071 -2.24329e-06)
(0.000284204 -0.019325 -2.48038e-06)
(0.000312379 -0.0198146 -2.72627e-06)
(0.000341536 -0.0202765 -2.98075e-06)
(0.000371573 -0.0207108 -3.2429e-06)
(0.00040245 -0.0211178 -3.51237e-06)
(0.000434032 -0.0214973 -3.78801e-06)
(0.000466231 -0.0218489 -4.06903e-06)
(0.000498878 -0.022172 -4.35395e-06)
(0.000531829 -0.0224661 -4.64153e-06)
(0.000564872 -0.0227301 -4.92992e-06)
(0.000597806 -0.0229632 -5.21735e-06)
(0.00063037 -0.0231641 -5.50156e-06)
(0.000662302 -0.0233316 -5.78027e-06)
(0.000693288 -0.0234643 -6.05071e-06)
(0.000723003 -0.0235606 -6.31005e-06)
(0.000751082 -0.0236189 -6.55513e-06)
(0.000777142 -0.0236376 -6.78259e-06)
(0.00080077 -0.0236147 -6.98884e-06)
(0.000821538 -0.0235484 -7.17013e-06)
(0.000839003 -0.0234367 -7.32259e-06)
(0.000852709 -0.0232774 -7.44225e-06)
(0.000862207 -0.0230683 -7.52523e-06)
(5.99979e-07 -0.00256863 -5.21716e-09)
(4.16053e-06 -0.0047501 -3.62737e-08)
(9.4321e-06 -0.00657249 -8.22875e-08)
(1.80974e-05 -0.00809298 -1.57948e-07)
(2.74619e-05 -0.00940733 -2.39687e-07)
(3.94283e-05 -0.0105722 -3.44057e-07)
(5.24538e-05 -0.0116236 -4.57743e-07)
(6.75235e-05 -0.0125845 -5.89279e-07)
(8.36641e-05 -0.0134717 -7.30171e-07)
(0.000101544 -0.0142968 -8.86203e-07)
(0.000120435 -0.0150687 -1.05108e-06)
(0.000140975 -0.0157937 -1.23034e-06)
(0.000162549 -0.0164771 -1.41863e-06)
(0.000185622 -0.0171227 -1.61999e-06)
(0.00020986 -0.0177336 -1.83153e-06)
(0.000235401 -0.0183121 -2.05444e-06)
(0.000262161 -0.0188599 -2.28799e-06)
(0.000290055 -0.0193784 -2.53144e-06)
(0.000319113 -0.0198684 -2.78503e-06)
(0.000349197 -0.0203305 -3.0476e-06)
(0.000380264 -0.020765 -3.31873e-06)
(0.000412217 -0.0211721 -3.5976e-06)
(0.000444965 -0.0215515 -3.88341e-06)
(0.000478346 -0.0219028 -4.17475e-06)
(0.000512228 -0.0222255 -4.47045e-06)
(0.000546408 -0.0225189 -4.76876e-06)
(0.000580704 -0.0227821 -5.06807e-06)
(0.000614865 -0.0230142 -5.36622e-06)
(0.000648648 -0.0232138 -5.66107e-06)
(0.000681751 -0.0233799 -5.95e-06)
(0.000713868 -0.0235108 -6.23032e-06)
(0.000744642 -0.0236053 -6.4989e-06)
(0.000773703 -0.0236615 -6.75255e-06)
(0.000800643 -0.0236777 -6.9877e-06)
(0.000825039 -0.0236523 -7.20064e-06)
(0.000846442 -0.0235831 -7.38747e-06)
(0.000864391 -0.0234684 -7.54417e-06)
(0.000878419 -0.0233058 -7.66664e-06)
(0.000888053 -0.0230934 -7.75081e-06)
(4.00912e-07 -0.00257141 -3.48319e-09)
(3.58456e-06 -0.00475848 -3.12492e-08)
(8.43695e-06 -0.00658645 -7.35739e-08)
(1.65635e-05 -0.008112 -1.4453e-07)
(2.55252e-05 -0.00943069 -2.22745e-07)
(3.72833e-05 -0.0105996 -3.25351e-07)
(5.01398e-05 -0.0116545 -4.37506e-07)
(6.52819e-05 -0.0126186 -5.69698e-07)
(8.16342e-05 -0.0135089 -7.12422e-07)
(9.99208e-05 -0.0143367 -8.72033e-07)
(0.000119403 -0.0151111 -1.04205e-06)
(0.00014065 -0.0158384 -1.2275e-06)
(0.000163037 -0.0165239 -1.42288e-06)
(0.000187071 -0.0171713 -1.63263e-06)
(0.00021228 -0.0177839 -1.85264e-06)
(0.000238942 -0.0183637 -2.08534e-06)
(0.000266822 -0.0189128 -2.32866e-06)
(0.000295937 -0.0194322 -2.58276e-06)
(0.000326204 -0.019923 -2.84691e-06)
(0.000357577 -0.0203857 -3.12073e-06)
(0.000389952 -0.0208206 -3.40328e-06)
(0.000423265 -0.0212279 -3.69401e-06)
(0.000457365 -0.0216073 -3.99162e-06)
(0.000492144 -0.0219584 -4.29516e-06)
(0.000527416 -0.0222807 -4.603e-06)
(0.000563015 -0.0225735 -4.91369e-06)
(0.000598709 -0.0228359 -5.22521e-06)
(0.000634271 -0.0230669 -5.53558e-06)
(0.000669416 -0.0232653 -5.84231e-06)
(0.000703851 -0.0234298 -6.14287e-06)
(0.000737233 -0.023559 -6.43423e-06)
(0.000769206 -0.0236514 -6.71327e-06)
(0.000799369 -0.0237054 -6.97654e-06)
(0.000827304 -0.0237192 -7.22038e-06)
(0.000852564 -0.023691 -7.44087e-06)
(0.000874683 -0.0236189 -7.63394e-06)
(0.000893181 -0.023501 -7.79543e-06)
(0.000907567 -0.0233351 -7.92104e-06)
(0.00091736 -0.0231192 -8.00659e-06)
(4.94711e-07 -0.00257997 -4.29643e-09)
(3.84363e-06 -0.00477408 -3.34946e-08)
(8.89028e-06 -0.00660796 -7.75528e-08)
(1.72092e-05 -0.00813841 -1.50154e-07)
(2.6318e-05 -0.00946133 -2.29655e-07)
(3.83749e-05 -0.0106339 -3.34897e-07)
(5.14308e-05 -0.0116921 -4.48874e-07)
(6.6817e-05 -0.0126592 -5.83088e-07)
(8.35316e-05 -0.013552 -7.2896e-07)
(0.00010213 -0.014382 -8.91287e-07)
(0.000121992 -0.0151584 -1.06465e-06)
(0.000143682 -0.0158875 -1.25394e-06)
(0.000166582 -0.0165746 -1.45381e-06)
(0.000191241 -0.0172234 -1.66902e-06)
(0.000217142 -0.0178372 -1.89507e-06)
(0.000244617 -0.0184182 -2.13486e-06)
(0.000273422 -0.0189682 -2.38625e-06)
(0.000303568 -0.0194884 -2.64935e-06)
(0.000335005 -0.0199799 -2.92372e-06)
(0.000367593 -0.0204431 -3.20813e-06)
(0.000401282 -0.0208784 -3.50215e-06)
(0.000435969 -0.0212858 -3.80487e-06)
(0.000471533 -0.0216652 -4.11526e-06)
(0.0005078 -0.0220161 -4.43178e-06)
(0.000544613 -0.022338 -4.75307e-06)
(0.000581751 -0.0226302 -5.07719e-06)
(0.000619005 -0.0228918 -5.40232e-06)
(0.000656099 -0.0231216 -5.72607e-06)
(0.000692762 -0.0233187 -6.04605e-06)
(0.00072866 -0.0234816 -6.35938e-06)
(0.000763451 -0.023609 -6.66303e-06)
(0.000796744 -0.0236993 -6.95361e-06)
(0.000828131 -0.0237509 -7.22756e-06)
(0.000857165 -0.0237621 -7.48098e-06)
(0.000883381 -0.0237311 -7.70981e-06)
(0.00090629 -0.023656 -7.9098e-06)
(0.000925391 -0.0235347 -8.07654e-06)
(0.000940176 -0.0233654 -8.20563e-06)
(0.000950136 -0.0231458 -8.29265e-06)
(3.73756e-07 -0.00258381 -3.24161e-09)
(3.47723e-06 -0.00478383 -3.03044e-08)
(8.33773e-06 -0.00662334 -7.2717e-08)
(1.65329e-05 -0.00815889 -1.44226e-07)
(2.55243e-05 -0.00948643 -2.22707e-07)
(3.75675e-05 -0.0106633 -3.2786e-07)
(5.07102e-05 -0.0117252 -4.42555e-07)
(6.63076e-05 -0.0126957 -5.78648e-07)
(8.32751e-05 -0.0135918 -7.26709e-07)
(0.000102415 -0.0144246 -8.93775e-07)
(0.000122939 -0.0152038 -1.07289e-06)
(0.000145397 -0.0159353 -1.26891e-06)
(0.000169166 -0.0166246 -1.47635e-06)
(0.000194829 -0.0172755 -1.70033e-06)
(0.000221784 -0.0178911 -1.93557e-06)
(0.000250453 -0.0184736 -2.18578e-06)
(0.000280481 -0.0190249 -2.44785e-06)
(0.000311972 -0.0195462 -2.72269e-06)
(0.000344764 -0.0200386 -3.00888e-06)
(0.000378822 -0.0205025 -3.30612e-06)
(0.000414031 -0.0209382 -3.61341e-06)
(0.000450306 -0.0213459 -3.92999e-06)
(0.000487473 -0.0217253 -4.25437e-06)
(0.0005254 -0.0220761 -4.58537e-06)
(0.000563881 -0.0223976 -4.92121e-06)
(0.000602721 -0.0226891 -5.26019e-06)
(0.000641663 -0.0229498 -5.60006e-06)
(0.000680446 -0.0231786 -5.93855e-06)
(0.000718756 -0.0233742 -6.2729e-06)
(0.000756262 -0.0235355 -6.60026e-06)
(0.000792585 -0.023661 -6.91729e-06)
(0.000827326 -0.0237491 -7.2205e-06)
(0.000860045 -0.0237982 -7.50608e-06)
(0.000890279 -0.0238067 -7.76998e-06)
(0.000917536 -0.0237727 -8.0079e-06)
(0.000941305 -0.0236943 -8.21538e-06)
(0.000961062 -0.0235697 -8.38786e-06)
(0.000976271 -0.0233967 -8.52066e-06)
(0.000986413 -0.0231732 -8.60927e-06)
(4.15228e-07 -0.00259096 -3.6043e-09)
(3.65673e-06 -0.00479781 -3.18693e-08)
(8.74019e-06 -0.00664333 -7.62312e-08)
(1.70437e-05 -0.00818403 -1.4867e-07)
(2.63473e-05 -0.00951609 -2.29901e-07)
(3.86124e-05 -0.0106969 -3.36975e-07)
(5.20745e-05 -0.0117625 -4.54493e-07)
(6.79013e-05 -0.0127362 -5.92565e-07)
(8.55502e-05 -0.0136353 -7.46645e-07)
(0.000105077 -0.0144708 -9.17022e-07)
(0.000126117 -0.0152524 -1.10063e-06)
(0.000149321 -0.0159861 -1.30313e-06)
(0.000173773 -0.0166775 -1.51655e-06)
(0.00020033 -0.0173302 -1.74833e-06)
(0.000228243 -0.0179474 -1.99194e-06)
(0.000257989 -0.0185314 -2.25155e-06)
(0.000289205 -0.019084 -2.52398e-06)
(0.000321984 -0.0196064 -2.81005e-06)
(0.000356191 -0.0200997 -3.1086e-06)
(0.000391732 -0.0205643 -3.41878e-06)
(0.000428527 -0.0210005 -3.7399e-06)
(0.000466446 -0.0214085 -4.07083e-06)
(0.000505348 -0.021788 -4.41035e-06)
(0.00054504 -0.0221385 -4.75676e-06)
(0.000585341 -0.0224597 -5.10849e-06)
(0.000626005 -0.0227505 -5.46339e-06)
(0.00066679 -0.0230103 -5.81934e-06)
(0.000707389 -0.0232379 -6.17368e-06)
(0.000747493 -0.0234321 -6.52369e-06)
(0.000786731 -0.0235916 -6.86617e-06)
(0.000824718 -0.0237151 -7.19772e-06)
(0.000861021 -0.0238009 -7.51456e-06)
(0.000895182 -0.0238475 -7.81273e-06)
(0.00092671 -0.0238531 -8.08792e-06)
(0.000955088 -0.023816 -8.33563e-06)
(0.000979782 -0.0237342 -8.55119e-06)
(0.00100024 -0.0236059 -8.72976e-06)
(0.0010159 -0.0234291 -8.86654e-06)
(0.00102622 -0.0232016 -8.95672e-06)
(3.60634e-07 -0.00259555 -3.12992e-09)
(3.52816e-06 -0.00480861 -3.07559e-08)
(8.56134e-06 -0.00666 -7.46697e-08)
(1.69063e-05 -0.00820596 -1.47473e-07)
(2.63114e-05 -0.0095428 -2.29575e-07)
(3.87419e-05 -0.0107281 -3.38102e-07)
(5.25499e-05 -0.0117977 -4.58635e-07)
(6.88129e-05 -0.0127753 -6.00543e-07)
(8.6815e-05 -0.0136777 -7.57684e-07)
(0.000107041 -0.0145166 -9.3417e-07)
(0.000128832 -0.015301 -1.12431e-06)
(0.000152929 -0.0160375 -1.33463e-06)
(0.000178361 -0.0167312 -1.55658e-06)
(0.000206046 -0.0173862 -1.79821e-06)
(0.00023517 -0.0180053 -2.05239e-06)
(0.000266256 -0.0185911 -2.32369e-06)
(0.000298866 -0.0191451 -2.60829e-06)
(0.000333167 -0.0196689 -2.90764e-06)
(0.000368933 -0.0201631 -3.21979e-06)
(0.000406161 -0.0206286 -3.5447e-06)
(0.000444701 -0.0210654 -3.88105e-06)
(0.000484447 -0.0214737 -4.22793e-06)
(0.00052521 -0.0218533 -4.58369e-06)
(0.000566829 -0.0222038 -4.94692e-06)
(0.000609073 -0.0225245 -5.3156e-06)
(0.000651716 -0.0228147 -5.68777e-06)
(0.000694469 -0.0230735 -6.0609e-06)
(0.000737034 -0.0232998 -6.43238e-06)
(0.000779056 -0.0234925 -6.79915e-06)
(0.000820163 -0.0236502 -7.15794e-06)
(0.000859932 -0.0237716 -7.50503e-06)
(0.000897913 -0.023855 -7.83652e-06)
(0.000933618 -0.0238988 -8.14817e-06)
(0.000966531 -0.0239014 -8.43545e-06)
(0.000996108 -0.023861 -8.69363e-06)
(0.00102178 -0.0237757 -8.91776e-06)
(0.00104298 -0.0236436 -9.10283e-06)
(0.00105912 -0.0234627 -9.24371e-06)
(0.00106962 -0.023231 -9.33551e-06)
(3.96948e-07 -0.00260201 -3.44609e-09)
(3.67277e-06 -0.00482197 -3.20133e-08)
(8.93578e-06 -0.00667963 -7.79404e-08)
(1.75507e-05 -0.00823109 -1.53096e-07)
(2.73307e-05 -0.00957275 -2.38465e-07)
(4.01217e-05 -0.0107624 -3.50131e-07)
(5.44367e-05 -0.011836 -4.7511e-07)
(7.11069e-05 -0.0128172 -6.20546e-07)
(8.97598e-05 -0.013723 -7.83371e-07)
(0.000110659 -0.0145649 -9.65725e-07)
(0.000133124 -0.0153523 -1.16177e-06)
(0.000158127 -0.0160913 -1.37997e-06)
(0.000184536 -0.0167875 -1.61047e-06)
(0.00021331 -0.0174446 -1.8616e-06)
(0.000243651 -0.0180658 -2.1264e-06)
(0.00027605 -0.0186533 -2.40916e-06)
(0.000310104 -0.0192089 -2.70636e-06)
(0.00034595 -0.019734 -3.0192e-06)
(0.00038339 -0.0202294 -3.34596e-06)
(0.000422365 -0.0206957 -3.68611e-06)
(0.000462755 -0.0211332 -4.0386e-06)
(0.000504416 -0.0215419 -4.40219e-06)
(0.000547184 -0.0219216 -4.77545e-06)
(0.000590845 -0.0222719 -5.1565e-06)
(0.000635188 -0.0225922 -5.5435e-06)
(0.000679935 -0.0228817 -5.93403e-06)
(0.000724809 -0.0231396 -6.32567e-06)
(0.000769465 -0.0233646 -6.71542e-06)
(0.000813549 -0.0235557 -7.10017e-06)
(0.000856647 -0.0237115 -7.47633e-06)
(0.000898322 -0.0238306 -7.84007e-06)
(0.000938091 -0.0239115 -8.18717e-06)
(0.000975442 -0.0239525 -8.51318e-06)
(0.00100983 -0.0239519 -8.81332e-06)
(0.00104067 -0.023908 -9.08257e-06)
(0.00106739 -0.0238189 -9.31578e-06)
(0.00108936 -0.0236828 -9.50762e-06)
(0.00110599 -0.0234977 -9.65281e-06)
(0.00111667 -0.0232615 -9.7461e-06)
(3.72071e-07 -0.00260719 -3.22928e-09)
(3.64887e-06 -0.00483382 -3.18099e-08)
(8.9731e-06 -0.0066977 -7.82689e-08)
(1.77902e-05 -0.00825473 -1.5519e-07)
(2.7825e-05 -0.00960161 -2.42779e-07)
(4.09821e-05 -0.0107959 -3.57646e-07)
(5.58308e-05 -0.0118739 -4.8727e-07)
(7.31312e-05 -0.0128592 -6.38215e-07)
(9.23755e-05 -0.0137687 -8.06183e-07)
(0.000114101 -0.0146142 -9.95762e-07)
(0.000137499 -0.0154047 -1.19995e-06)
(0.000163553 -0.0161467 -1.42733e-06)
(0.000191119 -0.0168456 -1.66791e-06)
(0.000221203 -0.0175051 -1.93048e-06)
(0.000252938 -0.0181285 -2.20745e-06)
(0.000286873 -0.018718 -2.50362e-06)
(0.000322544 -0.0192754 -2.81492e-06)
(0.000360134 -0.0198019 -3.14298e-06)
(0.00039938 -0.0202986 -3.4855e-06)
(0.000440288 -0.0207659 -3.84252e-06)
(0.000482679 -0.0212041 -4.21248e-06)
(0.000526432 -0.0216132 -4.59432e-06)
(0.000571336 -0.0219931 -4.98622e-06)
(0.000617202 -0.0223433 -5.38651e-06)
(0.00066377 -0.0226632 -5.79294e-06)
(0.000710778 -0.022952 -6.2032e-06)
(0.000757901 -0.0232088 -6.61447e-06)
(0.000804796 -0.0234325 -7.02375e-06)
(0.000851067 -0.0236219 -7.42759e-06)
(0.000896288 -0.0237757 -7.82229e-06)
(0.000939986 -0.0238924 -8.20368e-06)
(0.000981654 -0.0239706 -8.56735e-06)
(0.00102075 -0.0240085 -8.90858e-06)
(0.00105669 -0.0240046 -9.2223e-06)
(0.00108888 -0.0239571 -9.50327e-06)
(0.00111668 -0.023864 -9.74597e-06)
(0.00113947 -0.0237237 -9.94491e-06)
(0.00115659 -0.0235341 -1.00944e-05)
(0.00116744 -0.0232933 -1.01892e-05)
(3.78663e-07 -0.00261351 -3.28743e-09)
(3.80374e-06 -0.00484735 -3.31616e-08)
(9.43188e-06 -0.00671785 -8.22722e-08)
(1.8519e-05 -0.00828076 -1.61554e-07)
(2.90404e-05 -0.00963288 -2.53398e-07)
(4.27266e-05 -0.010832 -3.72864e-07)
(5.81546e-05 -0.0119143 -5.07549e-07)
(7.6114e-05 -0.0129037 -6.64246e-07)
(9.61379e-05 -0.013817 -8.39031e-07)
(0.000118791 -0.0146659 -1.03669e-06)
(0.000143095 -0.0154597 -1.24878e-06)
(0.000170271 -0.0162047 -1.48596e-06)
(0.000199051 -0.0169064 -1.73715e-06)
(0.000230475 -0.0175685 -2.0114e-06)
(0.000263678 -0.0181942 -2.30118e-06)
(0.000299184 -0.0187857 -2.61105e-06)
(0.000336564 -0.0193449 -2.93728e-06)
(0.00037597 -0.019873 -3.28119e-06)
(0.000417164 -0.020371 -3.6407e-06)
(0.000460099 -0.0208393 -4.0154e-06)
(0.000504626 -0.0212783 -4.40401e-06)
(0.000550579 -0.021688 -4.80505e-06)
(0.000597776 -0.0220681 -5.21696e-06)
(0.000645973 -0.0224182 -5.6376e-06)
(0.000694928 -0.0227376 -6.06486e-06)
(0.000744329 -0.0230257 -6.496e-06)
(0.000793857 -0.0232814 -6.92825e-06)
(0.000843123 -0.0235036 -7.35823e-06)
(0.000891722 -0.0236913 -7.78239e-06)
(0.00093919 -0.0238429 -8.1967e-06)
(0.000985033 -0.0239572 -8.59681e-06)
(0.00102871 -0.0240325 -8.97801e-06)
(0.00106964 -0.0240673 -9.33529e-06)
(0.00110723 -0.0240598 -9.66333e-06)
(0.00114082 -0.0240084 -9.95654e-06)
(0.00116976 -0.0239112 -1.02092e-05)
(0.00119338 -0.0237663 -1.04154e-05)
(0.00121102 -0.023572 -1.05694e-05)
(0.001222 -0.0233262 -1.06654e-05)
(3.80512e-07 -0.00261929 -3.30452e-09)
(3.89559e-06 -0.00486036 -3.39692e-08)
(9.68034e-06 -0.00673765 -8.44438e-08)
(1.91118e-05 -0.00830662 -1.6673e-07)
(3.00223e-05 -0.00966426 -2.61969e-07)
(4.42595e-05 -0.0108685 -3.86252e-07)
(6.0393e-05 -0.0119556 -5.27086e-07)
(7.91295e-05 -0.0129494 -6.90572e-07)
(9.99829e-05 -0.0138667 -8.72585e-07)
(0.00012366 -0.0147195 -1.07918e-06)
(0.000149075 -0.0155167 -1.30096e-06)
(0.000177515 -0.0162651 -1.54918e-06)
(0.000207669 -0.0169697 -1.81235e-06)
(0.000240624 -0.0176346 -2.09997e-06)
(0.000275451 -0.0182627 -2.40392e-06)
(0.000312729 -0.0188565 -2.72927e-06)
(0.000351976 -0.0194177 -3.07178e-06)
(0.000393385 -0.0199475 -3.43316e-06)
(0.000436662 -0.0204469 -3.81086e-06)
(0.000481806 -0.0209164 -4.20484e-06)
(0.000528614 -0.0213562 -4.61335e-06)
(0.000576948 -0.0217664 -5.03517e-06)
(0.000626575 -0.0221467 -5.46829e-06)
(0.000677275 -0.0224967 -5.91077e-06)
(0.000728754 -0.0228157 -6.36006e-06)
(0.00078071 -0.023103 -6.8135e-06)
(0.000832778 -0.0233576 -7.26792e-06)
(0.000884565 -0.0235783 -7.71989e-06)
(0.000935623 -0.0237641 -8.16552e-06)
(0.000985471 -0.0239135 -8.6006e-06)
(0.00103358 -0.0240251 -9.02046e-06)
(0.00107937 -0.0240974 -9.42012e-06)
(0.00112224 -0.0241288 -9.7943e-06)
(0.00116154 -0.0241175 -1.01373e-05)
(0.0011966 -0.024062 -1.04434e-05)
(0.00122672 -0.0239604 -1.07063e-05)
(0.00125121 -0.0238109 -1.09201e-05)
(0.00126935 -0.0236115 -1.10785e-05)
(0.00128047 -0.0233606 -1.11757e-05)
(4.03909e-07 -0.00262583 -3.50969e-09)
(4.08473e-06 -0.00487463 -3.5618e-08)
(1.02012e-05 -0.00675907 -8.89949e-08)
(2.00627e-05 -0.00833442 -1.75034e-07)
(3.15325e-05 -0.00969779 -2.75149e-07)
(4.63811e-05 -0.0109073 -4.0477e-07)
(6.32654e-05 -0.0119992 -5.52171e-07)
(8.28779e-05 -0.0129975 -7.23288e-07)
(0.000104755 -0.0139191 -9.14236e-07)
(0.000129538 -0.0147758 -1.13048e-06)
(0.000156127 -0.0155767 -1.36252e-06)
(0.000185917 -0.0163284 -1.6225e-06)
(0.000217553 -0.0170362 -1.89861e-06)
(0.000252096 -0.0177039 -2.20009e-06)
(0.000288669 -0.0183347 -2.51928e-06)
(0.000327791 -0.0189308 -2.86071e-06)
(0.000369035 -0.019494 -3.22065e-06)
(0.000412543 -0.0200257 -3.60036e-06)
(0.000458063 -0.0205266 -3.99762e-06)
(0.00050553 -0.0209973 -4.41189e-06)
(0.000554779 -0.021438 -4.84169e-06)
(0.000605621 -0.0218488 -5.2854e-06)
(0.000657849 -0.0222294 -5.74122e-06)
(0.00071119 -0.0225792 -6.20675e-06)
(0.000765363 -0.0228978 -6.67954e-06)
(0.000820017 -0.0231843 -7.15653e-06)
(0.000874785 -0.0234376 -7.63452e-06)
(0.000929232 -0.0236568 -8.10971e-06)
(0.000982893 -0.0238405 -8.57805e-06)
(0.00103525 -0.0239875 -9.03501e-06)
(0.00108574 -0.0240964 -9.47568e-06)
(0.00113375 -0.0241655 -9.89476e-06)
(0.00117865 -0.0241932 -1.02866e-05)
(0.00121975 -0.0241781 -1.06454e-05)
(0.00125634 -0.0241182 -1.09648e-05)
(0.00128769 -0.0240119 -1.12384e-05)
(0.00131305 -0.0238574 -1.14599e-05)
(0.0013317 -0.0236528 -1.16227e-05)
(0.00134291 -0.0233963 -1.17207e-05)
(3.99194e-07 -0.00263228 -3.46836e-09)
(4.19056e-06 -0.00488904 -3.65454e-08)
(1.06253e-05 -0.0067809 -9.26985e-08)
(2.09604e-05 -0.00836289 -1.82869e-07)
(3.29712e-05 -0.00973242 -2.87712e-07)
(4.85215e-05 -0.0109474 -4.23462e-07)
(6.62779e-05 -0.0120446 -5.78465e-07)
(8.68307e-05 -0.0130476 -7.57793e-07)
(0.000109787 -0.0139737 -9.58149e-07)
(0.000135813 -0.0148345 -1.18524e-06)
(0.000163721 -0.0156394 -1.42879e-06)
(0.000195027 -0.0163947 -1.70201e-06)
(0.00022827 -0.0171058 -1.99214e-06)
(0.000264603 -0.0177766 -2.30924e-06)
(0.000303072 -0.0184101 -2.64497e-06)
(0.000344242 -0.0190088 -3.00428e-06)
(0.00038763 -0.0195742 -3.38294e-06)
(0.000433433 -0.0201078 -3.78267e-06)
(0.000481333 -0.0206103 -4.2007e-06)
(0.000531316 -0.0210823 -4.63692e-06)
(0.000583158 -0.021524 -5.08935e-06)
(0.000636699 -0.0219354 -5.55662e-06)
(0.000691679 -0.0223163 -6.03645e-06)
(0.000747841 -0.022666 -6.5266e-06)
(0.000804857 -0.0229841 -7.02421e-06)
(0.000862379 -0.0232697 -7.52622e-06)
(0.000919994 -0.0235218 -8.02906e-06)
(0.000977254 -0.0237393 -8.5288e-06)
(0.00103366 -0.0239209 -9.02107e-06)
(0.00108865 -0.0240654 -9.50109e-06)
(0.00114165 -0.0241712 -9.96363e-06)
(0.001192 -0.0242369 -1.04031e-05)
(0.00123902 -0.0242609 -1.08135e-05)
(0.00128199 -0.0242415 -1.11886e-05)
(0.00132017 -0.024177 -1.15218e-05)
(0.00135277 -0.0240658 -1.18065e-05)
(0.00137904 -0.023906 -1.20358e-05)
(0.00139818 -0.0236958 -1.2203e-05)
(0.00140947 -0.0234335 -1.23016e-05)
(4.30745e-07 -0.00263935 -3.74461e-09)
(4.46834e-06 -0.00490466 -3.89721e-08)
(1.11527e-05 -0.00680428 -9.73019e-08)
(2.20304e-05 -0.00839327 -1.9221e-07)
(3.47159e-05 -0.0097691 -3.02941e-07)
(5.11705e-05 -0.0109899 -4.4658e-07)
(6.9771e-05 -0.0120924 -6.08952e-07)
(9.14329e-05 -0.0131005 -7.97964e-07)
(0.000115585 -0.0140313 -1.00876e-06)
(0.000142975 -0.0148965 -1.24775e-06)
(0.000172326 -0.0157054 -1.50389e-06)
(0.00020526 -0.0164645 -1.79132e-06)
(0.000240232 -0.0171791 -2.09653e-06)
(0.000278432 -0.0178531 -2.42992e-06)
(0.000318946 -0.0184896 -2.78351e-06)
(0.000362255 -0.0190908 -3.16147e-06)
(0.000407959 -0.0196586 -3.56034e-06)
(0.000456174 -0.0201942 -3.98112e-06)
(0.000506635 -0.0206984 -4.42151e-06)
(0.00055927 -0.0211718 -4.88087e-06)
(0.000613885 -0.0216145 -5.35751e-06)
(0.000670269 -0.0220266 -5.84959e-06)
(0.000728184 -0.0224077 -6.35503e-06)
(0.000787321 -0.0227574 -6.87115e-06)
(0.00084736 -0.023075 -7.39513e-06)
(0.000907905 -0.0233596 -7.92353e-06)
(0.000968534 -0.0236103 -8.45267e-06)
(0.00102876 -0.023826 -8.97828e-06)
(0.00108805 -0.0240054 -9.49576e-06)
(0.00114582 -0.0241471 -1e-05)
(0.00120144 -0.0242498 -1.04855e-05)