/*--------------------------------*- C++ -*----------------------------------*\
| =========                 |                                                 |
| \\      /  F ield         | OpenFOAM: The Open Source CFD Toolbox           |
|  \\    /   O peration     | Version:  v2012                                 |
|   \\  /    A nd           | Website:  www.openfoam.com                      |
|    \\/     M anipulation  |                                                 |
\*---------------------------------------------------------------------------*/
FoamFile
{
    version     2.0;
    format      ascii;
    class       surfaceScalarField;
    location    "0.05";
    object      alphaPhi0.water;
}
// * * * * * * * * * * * * * * * * * * * * * * * * * * * * * * * * * * * * * //

dimensions      [0 3 -1 0 0 0 0];
oriented        oriented;


internalField   nonuniform List<scalar> 
49380
(
-1.27519e-213
7.82184e-211
-1.26488e-219
-7.29547e-152
1.91252e-149
3.76542e-164
4.14867e-106
-3.60588e-104
-3.58475e-112
-6.60841e-73
3.46392e-71
3.7321e-79
-3.14147e-69
1.14727e-67
-4.24313e-75
-7.39523e-69
2.01798e-67
-6.28971e-75
5.21571e-68
-5.97237e-68
1.9009e-76
6.72515e-55
-6.43141e-55
1.9835e-63
1.39841e-43
-1.40449e-43
5.24193e-52
2.39701e-34
-2.41053e-34
1.31049e-42
7.46009e-27
-7.51309e-27
4.18845e-35
1.43208e-20
-1.44483e-20
9.30487e-29
2.21342e-15
-2.2432e-15
1.97864e-23
2.18951e-12
-4.25754e-12
1.62901e-19
1.54352e-10
-4.98697e-10
4.50671e-17
1.52633e-09
-4.84053e-09
5.12639e-16
5.13449e-09
-1.56482e-08
1.50583e-15
1.684e-08
-3.98757e-08
5.59865e-15
4.54284e-08
-1.14644e-07
1.74331e-15
6.54681e-08
-1.83451e-07
1.27124e-14
6.86806e-08
-1.99301e-07
9.48228e-15
6.37485e-08
-1.87281e-07
8.45777e-15
5.0087e-08
-1.57725e-07
6.39129e-15
2.55186e-08
-9.44953e-08
3.799e-15
6.18712e-09
-2.78949e-08
1.42096e-15
3.159e-09
-8.52241e-09
3.51692e-16
3.07726e-09
-1.09676e-08
3.53463e-16
1.10808e-08
-3.55282e-08
9.26855e-16
3.47478e-08
-1.1986e-07
3.2764e-15
6.1703e-08
-2.46796e-07
7.55842e-15
6.47894e-08
-3.20903e-07
1.52144e-14
2.98491e-08
-2.64361e-07
7.1052e-14
4.63864e-10
-3.10015e-08
3.81637e-14
-2.59488e-13
9.84904e-09
7.50007e-15
-7.54869e-17
8.8414e-12
-6.50098e-20
-6.06934e-21
6.59106e-15
-3.44017e-24
-1.11145e-22
8.48781e-19
-1.11782e-28
-2.46426e-23
2.09329e-20
-2.26953e-31
-4.12688e-25
3.94033e-21
1.34267e-31
-1.59408e-29
1.07881e-22
5.90832e-33
-3.02868e-40
7.21563e-27
5.97624e-37
-8.00489e-45
1.68868e-37
1.88917e-47
-5.69293e-49
5.44208e-42
5.44568e-52
-5.73941e-53
4.68059e-46
3.83846e-56
-5.65252e-57
5.6666e-50
2.87234e-60
-4.59958e-61
6.66845e-54
1.41028e-64
-3.0964e-65
6.45363e-58
7.24639e-69
-1.66389e-69
5.14792e-62
-3.02401e-72
-6.79336e-74
3.26983e-66
-4.06909e-76
-1.97168e-78
1.57935e-70
-2.21046e-80
-3.73357e-99
5.40316e-75
-7.09379e-85
-3.43722e-94
3.44994e-94
-1.0032e-97
-1.97693e-89
1.98429e-89
-4.37613e-93
-1.64427e-92
8.70391e-86
-4.07444e-96
-2.04919e-95
9.02806e-89
-1.8004e-99
-5.35064e-98
1.37467e-91
1.59077e-102
-2.91066e-100
4.3817e-94
1.81648e-104
-2.06583e-102
2.97589e-96
2.09155e-106
-2.7896e-105
2.76228e-98
3.15989e-108
5.42182e-101
1.59107e-110
-6.00232e-211
6.46234e-208
-6.11859e-216
-2.02147e-149
7.56592e-147
4.37405e-161
3.95584e-104
-4.26856e-102
8.64103e-110
-3.43953e-71
2.04306e-69
7.32043e-77
-1.0032e-67
3.90819e-66
6.21917e-74
-1.55258e-67
4.30923e-66
-2.26485e-73
1.01122e-65
-1.03271e-65
2.41412e-74
1.23073e-52
-1.1886e-52
3.8216e-61
1.42536e-41
-1.43705e-41
7.55028e-50
1.92652e-32
-1.95062e-32
9.66351e-41
4.82376e-25
-4.89889e-25
3.03774e-33
7.53869e-19
-7.68317e-19
5.11775e-27
8.74732e-14
-8.97157e-14
8.31572e-22
3.00144e-11
-7.65637e-11
7.39172e-18
7.31129e-10
-1.84316e-09
2.57082e-16
3.28119e-09
-8.99068e-09
1.28496e-15
7.42602e-09
-2.06805e-08
8.02979e-16
3.2365e-08
-6.48896e-08
5.65647e-15
6.49098e-08
-1.472e-07
1.12466e-14
7.53172e-08
-1.939e-07
6.85725e-15
7.00747e-08
-1.94374e-07
6.61234e-15
6.02747e-08
-1.78908e-07
6.22852e-15
4.12605e-08
-1.42401e-07
4.84203e-15
1.56743e-08
-7.3789e-08
2.51969e-15
3.47766e-09
-1.79914e-08
6.93432e-16
2.2968e-09
-7.43389e-09
2.4998e-16
3.71121e-09
-1.21442e-08
3.49379e-16
1.65303e-08
-4.64975e-08
1.34025e-15
4.45771e-08
-1.43889e-07
4.40843e-15
6.72799e-08
-2.65928e-07
7.66699e-15
6.09981e-08
-3.1337e-07
3.15969e-15
2.32425e-08
-2.26402e-07
3.96203e-14
1.22896e-09
-8.97317e-09
3.20805e-14
-3.3288e-11
1.51053e-08
1.4762e-14
-2.31348e-13
5.19093e-10
5.22226e-18
-6.02212e-16
5.78273e-12
-4.28444e-21
-6.47389e-17
2.13463e-14
-9.59305e-24
-1.66266e-17
2.05595e-15
1.14034e-25
-1.13296e-18
6.3007e-16
1.94795e-25
-3.26804e-22
5.15776e-17
2.08571e-26
-3.93013e-30
3.26693e-20
1.59125e-29
-4.04736e-34
4.84767e-28
2.93065e-37
-8.46923e-38
6.08193e-32
3.21724e-41
-2.24194e-41
1.53869e-35
6.41717e-45
-5.85999e-45
4.89155e-39
1.16672e-48
-1.33924e-48
1.52786e-42
1.04987e-52
-2.66838e-52
4.1539e-46
-1.90084e-56
-4.61472e-56
9.82053e-50
-5.69691e-59
-7.22707e-60
2.01198e-53
-1.71098e-62
-1.09061e-63
3.73162e-57
-3.19016e-66
-1.63338e-67
6.67574e-61
-4.7944e-70
-2.65547e-71
1.1871e-64
-6.45293e-74
-4.98309e-75
2.29777e-68
-9.18214e-78
-1.13788e-78
5.15394e-72
-1.13296e-81
-3.57556e-82
1.41413e-75
-8.67509e-86
-1.71836e-85
5.38017e-79
6.24547e-89
-1.10834e-88
3.17092e-82
9.21694e-92
-5.85053e-92
2.56939e-85
1.25411e-94
-3.69361e-96
1.79614e-88
1.44482e-97
1.58085e-92
3.2241e-101
-1.23058e-208
2.98043e-205
-7.66789e-214
-2.2603e-147
1.49055e-144
1.9891e-158
1.60631e-102
-2.71426e-100
4.84864e-108
-8.60735e-70
7.34661e-68
-1.29621e-75
-1.71064e-66
9.00651e-65
-1.13438e-72
-1.87411e-66
6.69287e-65
-4.3801e-72
1.42189e-63
-1.43409e-63
5.64558e-72
1.79681e-50
-1.74697e-50
3.98608e-59
1.23389e-39
-1.24266e-39
5.96607e-48
1.31164e-30
-1.331e-30
6.83636e-39
2.69902e-23
-2.74801e-23
1.66648e-31
3.48677e-17
-3.5636e-17
2.38012e-25
1.2764e-12
-1.36608e-12
3.50842e-20
1.24687e-10
-3.82854e-10
4.8996e-17
1.15581e-09
-4.01362e-09
6.12013e-16
3.01277e-09
-1.22081e-08
2.04914e-15
1.15883e-08
-2.95839e-08
4.2566e-15
4.52441e-08
-9.85474e-08
2.73039e-16
7.04523e-08
-1.72416e-07
1.55746e-14
7.40643e-08
-1.97575e-07
1.70621e-14
6.74309e-08
-1.88166e-07
1.01943e-14
5.65287e-08
-1.69712e-07
7.11471e-15
3.48951e-08
-1.24612e-07
4.69301e-15
1.08168e-08
-5.3892e-08
2.03839e-15
2.62286e-09
-1.11599e-08
4.66662e-16
2.06959e-09
-6.85892e-09
2.27439e-16
5.17292e-09
-1.48055e-08
4.3339e-16
2.08753e-08
-6.01027e-08
1.72881e-15
5.04409e-08
-1.69514e-07
5.20346e-15
6.87885e-08
-2.81349e-07
7.56834e-15
5.7274e-08
-3.00966e-07
2.80676e-15
2.12102e-08
-1.90188e-07
1.99662e-14
2.86374e-09
9.38759e-09
5.69985e-15
-3.20253e-10
2.1559e-08
1.00822e-14
-4.28184e-12
3.13551e-09
1.09597e-17
-2.34505e-14
7.48943e-11
-6.67559e-20
-3.24813e-15
5.57556e-13
-2.3404e-22
-8.59077e-16
6.37331e-14
2.21951e-23
-6.50313e-17
1.97495e-14
1.51479e-23
-2.4171e-20
1.75558e-15
1.5481e-24
-4.7954e-28
1.43851e-18
1.33987e-27
-5.12779e-32
3.53968e-26
3.66772e-35
-1.13107e-35
4.60161e-30
3.99342e-39
-3.17853e-39
1.22588e-33
8.10202e-43
-8.93197e-43
4.13589e-37
1.54587e-46
-2.23291e-46
1.38909e-40
1.58354e-50
-4.994e-50
4.13327e-44
-4.40596e-54
-1.00367e-53
1.09778e-47
-9.97622e-57
-1.91071e-57
2.61638e-51
-3.125e-60
-3.68828e-61
5.90582e-55
-6.61507e-64
-7.43861e-65
1.35323e-58
-1.19799e-67
-1.71071e-68
3.24516e-62
-2.02692e-71
-4.77094e-72
8.90039e-66
-3.83144e-75
-1.70554e-75
2.97315e-69
-5.78309e-79
-8.71738e-79
1.28066e-72
-3.91983e-84
-6.90066e-82
7.95535e-76
1.68006e-85
-7.70837e-85
7.76203e-79
3.25305e-88
-8.77009e-88
1.09567e-81
7.20874e-91
-2.55851e-91
1.65274e-84
1.74227e-93
6.38786e-88
1.688e-96
-6.2587e-206
1.1377e-202
-9.55874e-211
-3.73881e-145
2.25642e-142
-1.55327e-151
7.93969e-101
-1.30943e-98
-1.85229e-107
-2.37233e-68
2.04028e-66
2.80572e-76
-3.05764e-65
1.64877e-63
-4.20613e-73
-2.30536e-65
8.37895e-64
-3.14753e-71
2.51168e-61
-2.47795e-61
6.1415e-70
2.39722e-48
-2.41469e-48
8.8519e-57
9.77678e-38
-9.89176e-38
3.43592e-46
8.07272e-29
-8.2043e-29
4.7032e-37
1.38006e-21
-1.40754e-21
9.37039e-30
1.49236e-15
-1.528e-15
1.13368e-23
6.23516e-12
-1.94305e-11
1.20962e-18
3.07918e-10
-1.15559e-09
1.64195e-16
1.44143e-09
-6.58446e-09
1.07776e-15
2.84529e-09
-1.44422e-08
2.08848e-15
2.26573e-08
-4.94622e-08
9.09868e-16
5.69045e-08
-1.32791e-07
4.29255e-15
7.42796e-08
-1.89795e-07
7.91775e-15
7.23082e-08
-1.9569e-07
4.88439e-15
6.47533e-08
-1.81176e-07
4.67621e-15
5.14694e-08
-1.58431e-07
5.14049e-15
2.73596e-08
-1.04307e-07
3.69569e-15
6.59516e-09
-3.63594e-08
1.40654e-15
2.07401e-09
-7.19117e-09
2.91236e-16
1.94651e-09
-6.66166e-09
2.17321e-16
6.85349e-09
-1.9027e-08
5.46229e-16
2.6516e-08
-7.73251e-08
2.27926e-15
5.65861e-08
-1.95892e-07
6.2186e-15
6.92536e-08
-2.91828e-07
7.56555e-15
5.26376e-08
-2.83768e-07
4.02131e-15
1.86233e-08
-1.56069e-07
1.98448e-14
3.14907e-09
2.48765e-08
9.83305e-15
-9.96237e-10
2.88611e-08
8.07113e-15
-4.46785e-11
9.37814e-09
-3.43124e-17
-3.60749e-13
4.49565e-10
-6.19333e-19
-6.57981e-14
6.69571e-12
-3.89188e-21
-1.79999e-14
9.56245e-13
5.67888e-22
-1.51072e-15
3.01439e-13
3.83879e-22
-7.27736e-19
2.9019e-14
4.08622e-23
-2.53163e-26
3.08528e-17
4.36584e-26
-2.79324e-30
1.33854e-24
1.95312e-33
-6.40675e-34
1.79031e-28
2.09309e-37
-1.90938e-37
4.94768e-32
4.22584e-41
-5.78366e-41
1.76845e-35
8.18225e-45
-1.58684e-44
6.40058e-39
8.20941e-49
-3.9842e-48
2.09058e-42
-2.80636e-52
-9.2105e-52
6.23634e-46
-6.71155e-55
-2.06434e-55
1.71076e-49
-2.24418e-58
-4.78442e-59
4.54949e-53
-5.28324e-62
-1.17581e-62
1.25257e-56
-1.06615e-65
-3.33894e-66
3.66352e-60
-1.94508e-69
-1.17196e-69
1.24215e-63
-3.99985e-73
-5.43627e-73
5.23103e-67
-3.75691e-77
-3.71295e-76
2.93068e-70
3.18702e-80
-4.00538e-79
2.44083e-73
7.59491e-83
-6.40932e-82
3.25991e-76
1.62972e-85
-1.22182e-84
6.62615e-79
4.7579e-88
-1.00518e-87
1.67843e-81
1.85574e-90
1.79476e-84
4.82105e-93
-5.46199e-204
3.53041e-200
-1.09904e-208
-1.94873e-143
2.72253e-140
-1.19144e-148
1.62582e-99
-5.04709e-97
-6.56969e-105
-3.20326e-67
4.59514e-65
-2.19916e-72
-3.00008e-64
2.49392e-62
-8.78903e-70
-1.66696e-64
8.80652e-63
-2.72641e-70
3.78528e-59
-3.74133e-59
8.98429e-68
2.05687e-46
-2.07525e-46
8.03569e-55
6.821e-36
-6.91992e-36
2.85562e-44
4.5746e-27
-4.65651e-27
2.76772e-35
6.55326e-20
-6.694e-20
4.84266e-28
5.36915e-14
-5.52194e-14
4.4741e-22
2.98714e-11
-1.41704e-10
1.78341e-17
4.68304e-10
-2.51767e-09
3.68004e-16
1.36367e-09
-8.83835e-09
1.53665e-15
5.34632e-09
-1.87846e-08
6.52562e-15
3.52156e-08
-7.933e-08
-4.31582e-15
6.52803e-08
-1.62852e-07
3.19187e-15
7.50235e-08
-1.99544e-07
1.92751e-15
6.94229e-08
-1.90212e-07
5.36408e-15
6.12336e-08
-1.73711e-07
6.06894e-15
4.51689e-08
-1.44591e-07
4.95008e-15
1.99811e-08
-8.26006e-08
3.00935e-15
3.89592e-09
-2.24752e-08
9.26225e-16
1.87603e-09
-5.30568e-09
2.00167e-16
2.05401e-09
-6.77096e-09
2.17843e-16
9.38934e-09
-2.54807e-08
7.36051e-16
3.28579e-08
-9.82065e-08
2.98178e-15
6.17083e-08
-2.21511e-07
7.42388e-15
6.80784e-08
-2.96663e-07
7.2549e-15
4.70518e-08
-2.62362e-07
5.73825e-15
1.58026e-08
-1.24743e-07
2.83885e-14
3.22266e-09
3.74671e-08
-3.95444e-15
-1.81472e-09
3.63114e-08
-1.58889e-15
-2.21401e-10
1.76901e-08
-2.93917e-16
-3.40437e-12
1.68461e-09
-3.83996e-18
-7.78464e-13
4.74847e-11
-4.31024e-20
-2.22469e-13
9.17545e-12
7.63769e-21
-2.06938e-14
2.96926e-12
5.57966e-21
-1.29153e-17
3.09494e-13
6.28052e-22
-8.35094e-25
4.26112e-16
8.30197e-25
-9.6829e-29
3.45823e-23
6.47976e-32
-2.25808e-32
4.84813e-27
6.93702e-36
-7.11152e-36
1.35734e-30
1.35262e-39
-2.32508e-39
5.11788e-34
2.59165e-43
-7.01062e-43
1.99781e-37
2.38237e-47
-1.97065e-46
7.16972e-41
-1.00935e-50
-5.18063e-50
2.39476e-44
-2.5305e-53
-1.33422e-53
7.47253e-48
-9.01817e-57
-3.5766e-57
2.2842e-51
-2.29858e-60
-1.0206e-60
7.27709e-55
-4.86859e-64
-3.379e-64
2.47286e-58
-8.23136e-68
-1.3962e-67
9.78447e-62
-1.39366e-71
-7.75995e-71
4.85726e-65
4.71e-75
-6.44704e-74
3.26705e-68
8.01362e-78
-8.56275e-77
3.31914e-71
1.37593e-80
-1.75263e-79
5.47871e-74
3.07719e-83
-4.74837e-82
1.43102e-76
1.04614e-85
-7.58658e-85
5.16714e-79
5.51333e-88
1.06473e-81
2.68396e-90
-3.84826e-201
1.02786e-197
-1.46487e-205
-3.20633e-141
2.98258e-138
2.24834e-152
6.76105e-98
-1.7299e-95
2.66138e-103
-6.89246e-66
9.15492e-64
-3.71583e-72
-4.06411e-63
3.34542e-61
-8.1788e-69
-1.51598e-63
8.08834e-62
-2.78762e-69
5.14567e-57
-5.10753e-57
1.0951e-65
1.64857e-44
-1.65949e-44
7.976e-53
4.35928e-34
-4.42815e-34
2.51616e-42
2.44065e-25
-2.48722e-25
1.55123e-33
2.95748e-18
-3.02441e-18
2.20919e-26
8.28534e-13
-8.83751e-13
1.72878e-20
8.31625e-11
-4.81903e-10
7.65303e-17
5.64989e-10
-4.30553e-09
8.27281e-16
1.12619e-09
-1.0368e-08
1.18083e-15
1.39811e-08
-3.17424e-08
1.34866e-14
4.81656e-08
-1.13509e-07
4.99395e-15
7.12543e-08
-1.85937e-07
2.1312e-15
7.32297e-08
-2.01529e-07
3.13688e-15
6.59385e-08
-1.83088e-07
7.13436e-15
5.68472e-08
-1.65502e-07
6.08856e-15
3.77454e-08
-1.27812e-07
4.45952e-15
1.33039e-08
-6.10666e-08
2.32169e-15
2.4434e-09
-1.28542e-08
5.64514e-16
1.4411e-09
-4.32122e-09
1.58425e-16
2.41168e-09
-7.58746e-09
2.26704e-16
1.28447e-08
-3.48468e-08
1.02026e-15
3.96932e-08
-1.22443e-07
3.86695e-15
6.54973e-08
-2.4468e-07
8.90136e-15
6.50175e-08
-2.95183e-07
6.14324e-15
4.03105e-08
-2.37405e-07
8.9696e-15
1.17841e-08
-9.61604e-08
2.56409e-14
2.34825e-09
4.69125e-08
-1.5643e-14
-2.5703e-09
4.26047e-08
-5.84315e-15
-6.77783e-10
2.48584e-08
-7.96044e-16
-2.49372e-11
4.35063e-09
-1.46019e-17
-6.21521e-12
2.39778e-10
-2.52806e-19
-1.88572e-12
6.29553e-11
8.27589e-20
-1.94252e-13
2.11311e-11
5.8871e-20
-1.56469e-16
2.38474e-12
6.93228e-21
-1.97978e-23
4.234e-15
1.10912e-23
-2.50709e-27
6.77431e-22
1.58057e-30
-5.80882e-31
1.03536e-25
1.74911e-34
-1.91973e-34
2.86783e-29
3.19442e-38
-6.77051e-38
1.13192e-32
5.89746e-42
-2.24133e-41
4.76059e-36
4.30782e-46
-7.01792e-45
1.87466e-39
-2.36226e-49
-2.07387e-48
6.97312e-43
-6.59715e-52
-6.02284e-52
2.44573e-46
-2.43191e-55
-1.82174e-55
8.43102e-50
-6.33575e-59
-5.86406e-59
3.0314e-53
-1.21997e-62
-2.1912e-62
1.16252e-56
-7.79376e-67
-1.02717e-65
5.19516e-60
4.56823e-70
-6.54265e-69
2.92913e-63
8.7688e-73
-6.2676e-72
2.26162e-66
8.99361e-76
-9.65258e-75
2.6556e-69
1.36724e-78
-2.35042e-77
5.09944e-72
3.06155e-81
-8.0946e-80
1.59104e-74
1.10867e-83
-1.95843e-82
7.32688e-77
6.91648e-86
2.27984e-79
4.8016e-88
-2.18394e-199
2.65073e-195
-3.05512e-203
-1.15936e-139
2.89205e-136
5.61792e-151
9.90126e-97
-5.25011e-94
2.31119e-102
-6.81672e-65
1.62244e-62
-3.54605e-70
-2.9868e-62
4.01587e-60
-1.43398e-67
-8.20181e-63
6.68421e-61
-2.81783e-68
6.76408e-55
-6.81515e-55
1.9631e-63
1.26608e-42
-1.28046e-42
7.00345e-51
2.63896e-32
-2.68289e-32
1.65542e-40
1.23994e-23
-1.26481e-23
7.06942e-32
1.27785e-16
-1.30809e-16
9.26221e-25
2.59148e-12
-1.0525e-11
5.2467e-19
1.35936e-10
-1.17714e-09
1.88552e-16
4.27055e-10
-5.96039e-09
1.37143e-15
8.29128e-10
-1.12405e-08
-1.8285e-15
2.39732e-08
-5.48914e-08
4.70693e-15
5.7193e-08
-1.46722e-07
1.32041e-14
7.34014e-08
-2.02134e-07
-3.37683e-15
6.97116e-08
-1.97849e-07
5.65341e-15
6.21422e-08
-1.7574e-07
8.68333e-15
5.14061e-08
-1.55785e-07
6.2026e-15
2.96474e-08
-1.08299e-07
3.95577e-15
7.99481e-09
-4.15872e-08
1.66629e-15
1.65223e-09
-7.0863e-09
3.21313e-16
1.20324e-09
-3.83288e-09
1.36069e-16
3.54509e-09
-9.66297e-09
2.94851e-16
1.71245e-08
-4.72298e-08
1.41964e-15
4.64795e-08
-1.49324e-07
4.91536e-15
6.74356e-08
-2.63657e-07
1.03891e-14
5.99643e-08
-2.87098e-07
4.6092e-15
3.26141e-08
-2.09884e-07
1.24171e-14
6.7578e-09
-7.02612e-08
7.56728e-15
1.12091e-10
5.35678e-08
-3.35295e-16
-3.41023e-09
4.68689e-08
1.37267e-15
-1.46257e-09
2.99835e-08
-7.74322e-16
-1.21722e-10
8.47668e-09
-2.73199e-17
-3.63009e-11
9.61259e-10
-6.73008e-19
-1.18547e-11
3.27548e-10
7.42125e-19
-1.34891e-12
1.15169e-10
4.80616e-19
-1.40423e-15
1.40538e-11
5.90288e-20
-3.60848e-22
3.22632e-14
1.14047e-22
-5.23919e-26
1.05706e-20
3.0808e-29
-1.19087e-29
1.85038e-24
3.7127e-33
-4.0878e-33
5.00786e-28
6.28346e-37
-1.55076e-36
2.04672e-31
1.1108e-40
-5.6184e-40
9.24404e-35
5.94156e-45
-1.94658e-43
3.98009e-38
-4.18745e-48
-6.39514e-47
1.63722e-41
-1.31387e-50
-2.06343e-50
6.38198e-45
-4.88928e-54
-6.91873e-54
2.44394e-48
-1.20493e-57
-2.46371e-57
9.74159e-52
-1.39708e-61
-1.01711e-60
4.13392e-55
7.58521e-65
-5.2809e-64
2.04218e-58
6.13313e-68
-3.74397e-67
1.27648e-61
6.19875e-71
-3.99354e-70
1.09853e-64
5.91739e-74
-6.86118e-73
1.43914e-67
8.76226e-77
-1.8963e-75
3.09166e-70
1.96823e-79
-7.74094e-78
1.09883e-72
7.25942e-82
-2.46596e-80
6.01842e-75
4.8965e-84
2.46546e-77
4.15838e-86
-1.68499e-196
6.574e-193
-8.07769e-201
-1.87377e-137
2.65421e-134
2.10523e-148
3.77197e-95
-1.48655e-92
1.55547e-100
-1.29905e-63
2.66895e-61
-1.57016e-68
-3.52829e-61
4.47212e-59
-8.44335e-67
-6.33907e-62
4.98776e-60
-2.95813e-67
6.00477e-53
-6.06647e-53
1.93903e-61
9.07413e-41
-9.20218e-41
5.72583e-49
1.53571e-30
-1.56251e-30
1.01506e-38
6.08073e-22
-6.2072e-22
3.20638e-30
5.25633e-15
-5.38714e-15
4.36298e-23
1.14064e-11
-9.81922e-11
1.21496e-17
2.07562e-10
-2.33532e-09
3.71138e-16
4.4293e-10
-7.30999e-09
1.61269e-15
4.82419e-09
-1.57935e-08
1.75802e-15
3.51909e-08
-8.52523e-08
5.69668e-15
6.38349e-08
-1.7536e-07
-1.62598e-15
7.23465e-08
-2.10633e-07
-3.44354e-15
6.53237e-08
-1.90841e-07
9.77689e-15
5.80036e-08
-1.68696e-07
7.18251e-15
4.48688e-08
-1.43746e-07
5.1112e-15
2.15803e-08
-8.69857e-08
3.14684e-15
4.33701e-09
-2.57726e-08
1.08137e-15
1.18718e-09
-4.11851e-09
1.80657e-16
1.08084e-09
-3.67066e-09
1.25979e-16
4.87775e-09
-1.31058e-08
3.89853e-16
2.22256e-08
-6.32634e-08
1.93477e-15
5.26332e-08
-1.77536e-07
6.10218e-15
6.71279e-08
-2.76798e-07
1.11189e-14
5.30821e-08
-2.72688e-07
3.21503e-15
2.44452e-08
-1.81125e-07
1.27732e-14
1.74209e-09
-4.75248e-08
8.63227e-15
-2.01591e-09
5.73353e-08
1.70143e-14
-4.37103e-09
4.97353e-08
2.75115e-15
-2.5156e-09
3.39728e-08
-5.96127e-16
-4.47085e-10
1.3989e-08
-3.04202e-17
-1.63469e-10
3.17218e-09
5.30531e-19
-5.78551e-11
1.34028e-09
4.95451e-18
-7.23423e-12
4.96625e-10
3.00603e-18
-9.84377e-15
6.53331e-11
3.87885e-19
-5.27478e-21
1.96761e-13
9.30049e-22
-9.1637e-25
1.35636e-19
4.95355e-28
-2.0527e-28
2.83877e-23
6.87474e-32
-7.23324e-32
7.54784e-27
1.09933e-35
-2.93726e-35
3.15578e-30
1.90349e-39
-1.15889e-38
1.5226e-33
9.20666e-44
-4.40972e-42
7.13015e-37
-5.78561e-47
-1.59441e-45
3.21858e-40
-2.21888e-49
-5.64758e-49
1.38004e-43
-8.13169e-53
-2.07134e-52
5.79999e-47
-1.62417e-56
-8.04412e-56
2.52865e-50
2.09929e-60
-3.61378e-59
1.17045e-53
4.82347e-63
-2.04308e-62
6.29469e-57
3.13181e-66
-1.57933e-65
4.28745e-60
2.83274e-69
-1.83227e-68
4.02779e-63
2.70666e-72
-3.4273e-71
5.74914e-66
4.01005e-75
-1.0457e-73
1.34802e-68
9.02517e-78
-4.86131e-76
5.30626e-71
3.29351e-80
-1.8835e-78
3.32066e-73
2.24125e-82
1.65644e-75
1.992e-84
-1.02449e-194
1.50448e-190
-2.4311e-198
-6.42577e-136
2.25469e-132
1.75055e-146
5.07884e-94
-3.89123e-91
6.42378e-99
-1.1779e-62
4.06526e-60
-2.28297e-67
-2.39203e-60
4.62336e-58
-6.69532e-66
-3.10552e-61
3.46187e-59
-1.88784e-66
5.14597e-51
-5.19868e-51
1.56972e-59
6.1326e-39
-6.22414e-39
3.9205e-47
8.61873e-29
-8.77498e-29
5.70469e-37
2.89041e-20
-2.95249e-20
1.3477e-28
1.50881e-13
-1.56268e-13
1.56713e-21
2.73962e-11
-3.56195e-10
5.13498e-17
1.05366e-10
-3.63359e-09
5.72909e-16
-2.58268e-10
-7.63007e-09
-2.40131e-16
1.22674e-08
-2.83424e-08
-6.44296e-15
4.50165e-08
-1.17995e-07
1.00248e-14
6.77589e-08
-1.9809e-07
-1.62589e-14
6.90293e-08
-2.11882e-07
3.6275e-16
6.0772e-08
-1.82605e-07
4.41951e-15
5.33646e-08
-1.61613e-07
5.99986e-15
3.74091e-08
-1.28873e-07
4.61787e-15
1.43506e-08
-6.54748e-08
2.47327e-15
2.37919e-09
-1.45923e-08
6.49947e-16
1.01225e-09
-2.76548e-09
1.12022e-16
1.13613e-09
-3.74181e-09
1.23881e-16
6.88247e-09
-1.84461e-08
5.48284e-16
2.80047e-08
-8.30916e-08
2.58266e-15
5.74583e-08
-2.0522e-07
7.37973e-15
6.43785e-08
-2.82878e-07
1.00991e-14
4.47853e-08
-2.52872e-07
3.0206e-15
1.62533e-08
-1.52505e-07
1.40375e-14
-3.33367e-09
-2.79163e-08
6.22252e-15
-4.19024e-09
5.82026e-08
3.01502e-14
-5.37417e-09
5.13618e-08
2.93632e-15
-3.83627e-09
3.77599e-08
-1.92702e-16
-1.30705e-09
2.1517e-08
-9.22096e-18
-5.86805e-10
8.70685e-09
1.24981e-17
-2.2462e-10
4.39465e-09
2.43166e-17
-3.06702e-11
1.7138e-09
1.43105e-17
-5.59249e-14
2.42679e-10
1.95142e-18
-6.3572e-20
9.8932e-13
6.06943e-21
-1.36185e-23
1.46137e-18
6.60066e-27
-3.07387e-27
3.76877e-22
1.10431e-30
-1.10011e-30
1.00775e-25
1.7399e-34
-4.75202e-34
4.2643e-29
3.05037e-38
-2.02956e-37
2.18356e-32
1.97675e-42
-8.41743e-41
1.10523e-35
-5.29702e-46
-3.31938e-44
5.43227e-39
-3.3139e-48
-1.27819e-47
2.53866e-42
-1.21801e-51
-5.07459e-51
1.15942e-45
-1.64077e-55
-2.12595e-54
5.47068e-49
1.30529e-58
-1.02755e-57
2.73182e-52
1.57809e-61
-6.24549e-61
1.58116e-55
1.01558e-64
-5.18502e-64
1.15852e-58
9.23671e-68
-6.43683e-67
1.17001e-61
9.16072e-71
-1.2892e-69
1.78972e-64
1.39687e-73
-4.25238e-72
4.50303e-67
3.21177e-76
-2.17384e-74
1.92163e-69
1.16548e-78
-9.53963e-77
1.3262e-71
7.66156e-81
7.50455e-74
6.29387e-83
-6.2673e-192
3.32654e-188
-4.42133e-196
-9.40254e-134
1.83666e-130
7.54326e-145
1.79544e-92
-9.667e-90
1.42995e-97
-2.10798e-61
5.85391e-59
-1.77026e-66
-2.6742e-59
4.51587e-57
-2.17483e-64
-2.21681e-60
2.1738e-58
-2.54154e-65
4.15763e-49
-4.08084e-49
1.10166e-57
3.89511e-37
-3.95479e-37
2.31993e-45
4.54835e-27
-4.63609e-27
3.42196e-35
1.29759e-18
-1.32711e-18
7.67417e-27
1.07099e-12
-1.22725e-12
5.12015e-20
4.95366e-11
-8.79457e-10
1.37709e-16
-5.98608e-11
-4.65594e-09
1.10962e-15
-7.70784e-10
-7.18889e-09
1.58375e-15
2.01114e-08
-4.92214e-08
-9.31864e-15
5.15729e-08
-1.4945e-07
1.55934e-15
6.82351e-08
-2.14732e-07
-1.58709e-14
6.42492e-08
-2.07869e-07
5.39336e-15
5.63415e-08
-1.7473e-07
2.88571e-15
4.80484e-08
-1.53668e-07
4.93434e-15
2.94604e-08
-1.11236e-07
3.69307e-15
8.61961e-09
-4.56799e-08
1.7424e-15
1.33315e-09
-7.64502e-09
3.53829e-16
6.96533e-10
-2.10465e-09
7.96389e-17
1.36192e-09
-4.32968e-09
1.26946e-16
9.56943e-09
-2.62028e-08
7.79835e-16
3.40586e-08
-1.06387e-07
3.34971e-15
6.0419e-08
-2.30297e-07
8.65388e-15
5.93275e-08
-2.81308e-07
7.16471e-15
3.56864e-08
-2.29081e-07
4.1647e-15
8.42684e-09
-1.25186e-07
1.48965e-14
-7.79592e-09
-1.16825e-08
8.50203e-15
-6.3133e-09
5.67311e-08
3.0485e-14
-6.4326e-09
5.18919e-08
1.95252e-15
-5.52006e-09
4.16993e-08
2.51882e-16
-3.10559e-09
3.14504e-08
6.59934e-17
-1.68306e-09
1.93877e-08
6.04376e-17
-6.88157e-10
1.12791e-08
8.97675e-17
-1.02451e-10
4.58563e-09
5.13594e-17
-2.62812e-13
7.05211e-10
7.41368e-18
-6.43385e-19
4.14996e-12
3.18138e-20
-1.73331e-22
1.34001e-17
7.28206e-26
-4.0722e-26
4.34474e-21
1.51625e-29
-1.47033e-29
1.20798e-24
2.47005e-33
-6.71082e-33
5.14008e-28
4.48374e-37
-3.08306e-36
2.77435e-31
4.27357e-41
-1.38366e-39
1.50806e-34
-1.82384e-45
-5.9042e-43
8.01165e-38
-4.50204e-47
-2.4517e-46
4.04819e-41
-1.71737e-50
-1.04484e-49
1.99275e-44
-1.08211e-54
-4.68144e-53
1.00906e-47
3.55816e-57
-2.41305e-56
5.38879e-51
3.82978e-60
-1.56127e-59
3.32691e-54
2.53401e-63
-1.37622e-62
2.59612e-57
2.37381e-66
-1.80644e-65
2.78608e-60
2.45496e-69
-3.82342e-68
4.51194e-63
3.87138e-72
-1.33719e-70
1.20191e-65
9.13699e-75
-7.26166e-73
5.45107e-68
3.29182e-77
-3.3825e-75
4.00601e-70
2.01019e-79
2.40979e-72
1.18485e-81
-5.53767e-190
6.92437e-186
-1.25463e-193
-4.00656e-132
1.41262e-128
1.76573e-142
2.80004e-91
-2.26075e-88
5.69083e-96
-2.14416e-60
7.93482e-58
-3.59473e-65
-2.00461e-58
4.15852e-56
-2.16117e-63
-1.13552e-59
1.26126e-57
-1.29954e-64
3.87375e-47
-3.91908e-47
7.78852e-56
2.57084e-35
-2.60706e-35
1.42026e-43
2.50158e-25
-2.54791e-25
1.84405e-33
6.11767e-17
-6.25039e-17
3.24399e-25
2.79106e-12
-2.8927e-11
1.88866e-18
6.81208e-11
-1.71866e-09
2.53779e-16
-5.97364e-11
-5.36992e-09
7.40061e-16
2.15267e-09
-9.48357e-09
2.94573e-15
2.87781e-08
-7.58437e-08
7.30508e-15
5.66073e-08
-1.77264e-07
-4.05242e-15
6.64629e-08
-2.24561e-07
-2.82103e-15
5.90982e-08
-2.00476e-07
4.15082e-15
5.2081e-08
-1.67752e-07
3.16808e-15
4.20149e-08
-1.43923e-07
4.86022e-15
2.16605e-08
-9.15816e-08
3.13464e-15
4.64664e-09
-2.92367e-08
1.17598e-15
8.12947e-10
-3.90769e-09
1.83609e-16
5.3568e-10
-1.78814e-09
6.37921e-17
2.09298e-09
-5.77255e-09
1.72298e-16
1.28187e-08
-3.64707e-08
1.09943e-15
3.98428e-08
-1.32426e-07
4.22585e-15
6.11466e-08
-2.50793e-07
9.86777e-15
5.2407e-08
-2.72303e-07
4.68135e-15
2.6435e-08
-2.02996e-07
5.47237e-15
1.17136e-09
-9.98894e-08
1.32238e-14
-1.17242e-08
1.21494e-09
1.30533e-14
-8.91474e-09
5.3931e-08
2.59604e-14
-7.95666e-09
5.12354e-08
5.80986e-16
-7.58263e-09
4.45394e-08
9.70308e-16
-5.82134e-09
4.01187e-08
2.94502e-16
-3.63444e-09
3.16873e-08
1.88204e-16
-1.54572e-09
2.02305e-08
2.41803e-16
-2.53824e-10
8.40805e-09
1.30004e-16
-1.007e-12
1.44505e-09
2.00756e-17
-5.53083e-18
1.40592e-11
1.31275e-19
-1.90884e-21
1.0534e-16
6.65794e-25
-4.81525e-25
4.38106e-20
1.77122e-28
-1.75194e-28
1.30713e-23
3.10698e-32
-8.39608e-32
5.58892e-27
5.8971e-36
-4.12434e-35
3.15994e-30
7.62514e-40
-1.98993e-38
1.83351e-33
6.84697e-44
-9.1256e-42
1.04593e-36
-5.40652e-46
-4.05894e-45
5.67505e-40
-2.22806e-49
-1.84418e-48
2.99066e-43
-1.02294e-54
-8.77615e-52
1.61399e-46
6.86735e-56
-4.79056e-55
9.15367e-50
7.34826e-59
-3.27373e-58
5.9854e-53
5.05519e-62
-3.03697e-61
4.93495e-56
4.95066e-65
-4.17632e-64
5.57744e-59
5.36967e-68
-9.2367e-67
9.47334e-62
8.8353e-71
-3.36491e-69
2.64109e-64
2.16438e-73
-1.88424e-71
1.25011e-66
7.8671e-76
-8.86379e-74
9.4923e-69
4.49958e-78
5.77488e-71
1.68409e-80
-2.23806e-187
1.38977e-183
-1.09737e-191
-4.7171e-130
1.04375e-126
-5.85363e-135
8.68065e-90
-5.03568e-87
7.01616e-95
-3.52529e-59
1.02123e-56
-3.67304e-64
-2.11836e-57
3.6354e-55
-1.8435e-62
-7.25688e-59
6.05693e-57
-6.63649e-64
3.02426e-45
-3.06345e-45
1.97406e-53
1.60607e-33
-1.63216e-33
1.53362e-41
1.30071e-23
-1.32617e-23
8.06356e-32
2.70274e-15
-2.76524e-15
1.48872e-23
9.46176e-12
-1.65949e-10
1.7737e-17
1.9107e-11
-2.67219e-09
5.49752e-16
-3.6354e-10
-5.468e-09
-3.98524e-15
7.74065e-09
-1.75959e-08
3.77316e-15
3.66994e-08
-1.04791e-07
1.46146e-14
5.98839e-08
-2.00427e-07
-3.09423e-15
6.31464e-08
-2.27792e-07
3.48976e-15
5.41757e-08
-1.91474e-07
2.58397e-15
4.77789e-08
-1.61384e-07
5.64825e-15
3.53724e-08
-1.31731e-07
4.56903e-15
1.46929e-08
-7.12603e-08
2.48589e-15
2.26809e-09
-1.70225e-08
7.27137e-16
5.23368e-10
-2.1502e-09
9.66535e-17
4.54325e-10
-1.67631e-09
5.72124e-17
2.89919e-09
-8.09587e-09
2.35256e-16
1.65883e-08
-4.97524e-08
1.51483e-15
4.4787e-08
-1.59934e-07
5.23501e-15
5.9453e-08
-2.65041e-07
1.06988e-14
4.41988e-08
-2.56884e-07
2.37269e-15
1.75764e-08
-1.76283e-07
5.96168e-15
-5.15257e-09
-7.71556e-08
1.39028e-14
-1.52635e-08
1.13305e-08
1.9965e-14
-1.22578e-08
5.09305e-08
2.24046e-14
-1.03647e-08
4.94554e-08
1.65219e-15
-9.66066e-09
4.46645e-08
1.15209e-15
-8.06457e-09
4.18514e-08
6.37031e-16
-5.29226e-09
3.53878e-08
4.06769e-16
-2.24807e-09
2.31322e-08
4.09095e-16
-4.08376e-10
9.60495e-09
2.02633e-16
-2.89717e-12
1.80769e-09
3.40439e-17
-4.04209e-17
3.39533e-11
3.92882e-19
-1.83883e-20
7.07769e-16
5.03122e-24
-5.1091e-24
3.89744e-19
1.76778e-27
-1.87834e-27
1.28035e-22
3.44264e-31
-9.4032e-31
5.51952e-26
6.8607e-35
-4.91277e-34
3.25256e-29
1.11782e-38
-2.53388e-37
2.004e-32
1.75916e-42
-1.24158e-40
1.22061e-35
-5.64163e-45
-5.88199e-44
7.07019e-39
-2.54735e-48
-2.83324e-47
3.9662e-42
1.8385e-52
-1.42402e-50
2.26836e-45
1.12471e-54
-8.18541e-54
1.35852e-48
1.20961e-57
-5.8711e-57
9.35462e-52
8.61448e-61
-5.69245e-60
8.09762e-55
8.7751e-64
-8.14134e-63
9.57056e-58
9.92155e-67
-1.86335e-65
1.69222e-60
1.69579e-69
-6.96486e-68
4.88855e-63
4.29573e-72
-3.93032e-70
2.37798e-65
1.57151e-74
-1.80419e-72
1.82278e-67
8.42683e-77
1.08369e-69
1.1815e-79
-2.78422e-185
2.647e-181
-5.1215e-189
-2.54628e-128
7.33085e-125
-3.10147e-133
1.58885e-88
-1.0609e-85
1.96133e-93
-3.99703e-58
1.24199e-55
-6.65071e-63
-1.70516e-56
3.00657e-54
-1.74586e-61
-3.29027e-58
2.02799e-56
-2.65418e-63
2.25245e-43
-2.283e-43
1.10196e-51
9.73525e-32
-9.89847e-32
9.09685e-40
6.62481e-22
-6.75743e-22
4.035e-30
9.74544e-14
-1.0022e-13
7.14625e-22
1.78432e-11
-4.61806e-10
7.13829e-17
-1.51178e-10
-3.33918e-09
9.35125e-16
-9.39689e-10
-4.84743e-09
5.80007e-16
1.39358e-08
-3.24652e-08
-3.6187e-15
4.2517e-08
-1.33356e-07
-1.0764e-14
6.08957e-08
-2.18779e-07
1.34145e-14
5.87636e-08
-2.25622e-07
6.45554e-15
4.97107e-08
-1.82381e-07
1.7823e-15
4.32202e-08
-1.54875e-07
6.71094e-15
2.84089e-08
-1.16929e-07
4.23234e-15
9.09395e-09
-5.19365e-08
1.90551e-15
1.24117e-09
-9.16357e-09
4.13404e-16
4.55152e-10
-1.32163e-09
5.66595e-17
4.59014e-10
-1.63561e-09
5.53488e-17
4.0604e-09
-1.15822e-08
3.35542e-16
2.07452e-08
-6.61518e-08
2.01889e-15
4.83303e-08
-1.8717e-07
6.44229e-15
5.54146e-08
-2.71968e-07
1.07428e-14
3.53397e-08
-2.36677e-07
-2.9669e-16
9.48173e-09
-1.50359e-07
4.95839e-15
-1.04755e-08
-5.7215e-08
1.23012e-14
-1.82176e-08
1.90771e-08
2.6699e-14
-1.53622e-08
4.80745e-08
1.80299e-14
-1.26741e-08
4.68244e-08
3.27493e-15
-1.10663e-08
4.34946e-08
2.98712e-16
-8.9061e-09
4.11879e-08
8.11776e-16
-5.72902e-09
3.50214e-08
5.76229e-16
-2.3973e-09
2.29614e-08
4.69347e-16
-4.4845e-10
9.54639e-09
2.20295e-16
-7.05793e-12
1.80853e-09
3.80003e-17
-2.49356e-16
4.82123e-11
7.314e-19
-1.56454e-19
4.02211e-15
3.12167e-23
-4.87681e-23
3.08191e-18
1.51998e-26
-1.82303e-26
1.13591e-21
3.35715e-30
-9.49697e-30
4.97178e-25
7.05587e-34
-5.2542e-33
3.04271e-28
1.37195e-37
-2.88319e-36
1.9822e-31
3.18548e-41
-1.50208e-39
1.28303e-34
-4.85159e-44
-7.54398e-43
7.89504e-38
-2.39669e-47
-3.83451e-46
4.69235e-41
5.0137e-51
-2.02627e-49
2.83073e-44
1.60105e-53
-1.22089e-52
1.78203e-47
1.72906e-56
-9.14534e-56
1.28624e-50
1.26851e-59
-9.21754e-59
1.16301e-53
1.34142e-62
-1.36302e-61
1.42956e-56
1.57777e-65
-3.20224e-64
2.61551e-59
2.80014e-68
-1.21362e-66
7.7645e-62
7.33836e-71
-6.78963e-69
3.83491e-64
2.71895e-73
-2.97515e-71
2.91881e-66
1.40572e-75
1.65897e-68
6.42058e-79
-7.74932e-183
4.83898e-179
-5.62233e-187
-2.33683e-126
4.93132e-123
-4.69754e-131
4.06879e-87
-2.12268e-84
5.31653e-92
-5.65368e-57
1.43103e-54
-7.09007e-62
-1.59151e-55
2.35668e-53
-1.81661e-60
-1.2145e-57
-4.52573e-56
-9.15065e-63
1.63511e-41
-1.65776e-41
8.88873e-50
5.7621e-30
-5.86108e-30
5.15758e-38
3.3148e-20
-3.38237e-20
2.02277e-28
1.00129e-12
-1.10151e-12
3.70052e-20