/*--------------------------------*- C++ -*----------------------------------*\
| =========                 |                                                 |
| \\      /  F ield         | OpenFOAM: The Open Source CFD Toolbox           |
|  \\    /   O peration     | Version:  v2012                                 |
|   \\  /    A nd           | Website:  www.openfoam.com                      |
|    \\/     M anipulation  |                                                 |
\*---------------------------------------------------------------------------*/
FoamFile
{
    version     2.0;
    format      ascii;
    class       volScalarField;
    location    "0.45";
    object      alpha.water;
}
// * * * * * * * * * * * * * * * * * * * * * * * * * * * * * * * * * * * * * //

dimensions      [0 0 0 0 0 0 0];


internalField   nonuniform List<scalar> 
3326
(
1.32834e-36
6.6049e-40
8.67763e-42
5.51074e-45
1.36593e-48
2.45414e-52
1.01192e-56
5.08999e-61
1.74947e-61
1.66814e-24
8.26594e-26
3.58827e-34
2.1993e-37
1.12064e-40
3.95132e-42
6.68841e-46
2.13088e-49
3.68555e-53
1.3121e-57
5.9874e-62
2.87714e-62
3.05381e-14
2.95998e-14
1.98647e-14
3.01313e-15
2.07805e-15
2.07765e-15
2.07998e-15
2.22073e-15
3.80559e-15
6.19378e-15
2.41005e-14
2.57947e-14
1.54547e-14
2.15066e-15
2.12036e-15
2.12661e-15
2.36676e-15
4.01923e-15
4.37659e-15
2.85438e-15
2.79948e-15
2.85126e-15
4.13284e-15
4.26562e-15
6.80834e-16
-2.24257e-42
-6.06211e-31
0
0
9.09525e-45
-3.73867e-43
-3.15466e-42
1.3082e-22
8.45283e-24
5.65988e-32
4.30518e-35
2.84586e-38
8.20963e-40
3.20448e-43
8.68255e-47
2.48011e-50
3.97054e-54
1.19541e-58
4.98832e-63
4.98588e-63
3.11352e-14
1.33678e-14
2.14526e-15
2.13892e-15
2.08139e-15
2.07856e-15
2.07975e-15
2.47151e-15
2.55968e-15
2.19075e-15
4.63713e-15
2.37907e-14
2.56975e-14
1.42914e-14
2.24087e-15
2.12664e-15
2.36854e-15
2.44622e-15
2.50672e-15
2.50719e-15
3.23174e-15
5.27349e-15
4.35977e-15
4.28648e-15
3.80731e-15
1.19043e-16
5.39948e-24
1.53124e-39
6.35733e-26
6.62336e-28
2.91595e-27
6.37507e-21
5.39775e-22
5.39307e-30
5.05194e-33
4.17025e-36
7.81466e-38
6.21959e-41
2.68774e-44
8.15798e-48
2.06575e-51
3.19697e-55
6.99809e-60
2.12788e-64
3.46493e-64
6.33577e-15
2.13876e-15
2.40821e-15
3.49915e-15
6.67641e-15
7.0698e-15
2.63326e-15
2.41867e-15
2.19172e-15
2.14177e-15
2.17887e-15
4.91835e-15
2.5016e-14
2.56641e-14
1.7395e-14
2.40569e-15
2.36854e-15
2.36877e-15
2.5398e-15
5.27042e-15
8.06893e-15
5.85163e-15
4.10141e-15
4.20394e-15
4.13472e-15
7.42388e-16
4.93642e-22
5.39948e-24
1.37769e-25
3.21869e-25
1.94289e-19
2.1544e-20
3.18556e-28
3.52884e-31
3.75031e-34
1.71518e-35
2.41681e-39
4.11161e-42
1.70149e-45
5.12682e-49
1.2373e-52
1.84011e-56
2.0739e-61
1.01637e-65
1.97679e-65
2.09045e-15
2.12801e-15
2.4056e-15
3.85149e-15
1.49375e-14
2.68178e-14
2.21311e-14
3.47874e-15
2.14177e-15
2.14177e-15
2.14177e-15
2.20193e-15
7.48156e-15
2.56472e-14
2.58e-14
1.98426e-14
2.51735e-15
3.23549e-15
7.12698e-15
8.40871e-15
8.21672e-15
4.6037e-15
4.09937e-15
4.20884e-15
4.19133e-15
7.96862e-16
4.44604e-21
4.93642e-22
9.23894e-20
3.60299e-18
5.32561e-19
1.16216e-26
1.49215e-29
1.90727e-32
5.34558e-34
6.07357e-37
1.59813e-40
1.79359e-43
7.90899e-47
2.26351e-50
5.202e-54
7.36725e-58
1.81198e-64
2.91645e-67
4.51567e-67
1.85862e-15
2.2262e-15
2.172e-15
2.17159e-15
1.11109e-14
2.73198e-14
2.73163e-14
1.37932e-14
2.14177e-15
2.14177e-15
2.14177e-15
2.1418e-15
2.41958e-15
1.35792e-14
2.58397e-14
2.56026e-14
9.65125e-15
3.73542e-15
8.02767e-15
8.40871e-15
8.11968e-15
4.30551e-15
4.00789e-15
4.20885e-15
4.20885e-15
6.15648e-16
3.88047e-19
1.80452e-19
3.95914e-17
7.80551e-18
2.48313e-25
3.66303e-28
5.6127e-31
1.26769e-32
1.20346e-35
1.97968e-38
6.207e-42
5.3753e-45
2.53678e-48
6.89783e-52
1.44933e-55
1.92582e-59
5.47828e-66
1.21255e-67
1.27233e-67
1.65194e-15
2.46728e-15
2.29727e-15
2.15499e-15
2.21158e-15
1.03152e-14
2.03228e-14
1.35457e-14
2.20978e-15
2.14177e-15
2.1418e-15
2.34242e-15
2.378e-15
3.39065e-15
1.96422e-14
2.55969e-14
1.38543e-14
2.3076e-15
8.21403e-15
8.4084e-15
8.38213e-15
6.73431e-15
2.47395e-15
3.61451e-15
3.23233e-15
1.1717e-15
1.20322e-15
9.34794e-16
5.78802e-17
2.28465e-24
4.57654e-27
8.44001e-30
2.18226e-31
1.34129e-34
2.90586e-37
4.05112e-40
9.91424e-44
9.90819e-47
4.59849e-50
1.20659e-53
2.28092e-57
2.78229e-61
2.07587e-67
1.1515e-67
1.15149e-67
2.66842e-15
2.32024e-15
2.78761e-15
2.83939e-15
2.39869e-15
2.5752e-15
3.07313e-15
2.89219e-15
3.32934e-15
2.36099e-15
1.74702e-14
3.38542e-14
2.08757e-14
3.61241e-15
3.49232e-15
1.37683e-14
8.69247e-15
2.30903e-15
4.39238e-15
8.40588e-15
8.40451e-15
7.83391e-15
2.4744e-15
2.4496e-15
2.68769e-15
3.04265e-15
3.06734e-15
1.81352e-15
1.10969e-18
2.70851e-25
5.55882e-28
9.67725e-31
5.10743e-33
1.58676e-36
1.49479e-39
9.5385e-42
6.18026e-46
5.15358e-49
5.36207e-52
1.75288e-56
2.41795e-60
1.91513e-64
1.38854e-67
1.31433e-67
1.1227e-67
3.35655e-15
1.02306e-15
2.51109e-15
2.86668e-15
2.39878e-15
2.40111e-15
2.47344e-15
2.57502e-15
4.94641e-15
9.45443e-15
3.9245e-14
5.54324e-14
4.9242e-14
1.08478e-14
1.92621e-15
2.26887e-15
2.30787e-15
2.40271e-15
2.39035e-15
7.56374e-15
8.40412e-15
7.25466e-15
2.37e-15
2.37064e-15
3.28574e-15
3.1271e-15
3.10364e-15
1.46002e-15
1.28345e-22
2.14797e-25
4.34869e-28
7.43804e-31
2.61546e-33
1.17507e-36
1.08714e-39
7.62139e-42
4.3119e-46
1.31762e-48
7.08455e-52
1.15793e-55
1.50015e-60
1.16447e-64
1.75188e-66
3.47574e-66
3.2897e-68
9.22996e-16
1.02129e-15
1.16215e-15
1.26145e-15
4.42652e-15
3.11155e-15
2.47394e-15
3.17691e-15
4.41484e-15
1.10727e-14
2.08499e-14
2.87805e-14
3.37564e-14
1.34493e-14
1.92442e-15
1.92491e-15
1.83267e-15
2.11998e-15
2.16834e-15
2.99598e-15
5.09681e-15
2.73776e-15
2.17228e-15
3.7859e-15
3.525e-15
3.15636e-15
2.75459e-15
1.77661e-16
9.80653e-24
2.43344e-26
3.41036e-28
8.24028e-32
8.33875e-34
1.89607e-37
5.54283e-40
1.12769e-42
4.29775e-47
1.43585e-49
7.03375e-53
2.83922e-56
3.33346e-60
6.72682e-65
1.08503e-68
1.89947e-68
9.8894e-69
9.22996e-16
1.01578e-15
9.8358e-16
1.49374e-14
1.13382e-13
1.00443e-13
7.86223e-15
3.1782e-15
4.33821e-15
1.11986e-14
4.99307e-15
3.62272e-15
4.94016e-15
2.12021e-15
2.00054e-15
1.89761e-15
1.75465e-15
1.75465e-15
1.98811e-15
2.19498e-15
2.16764e-15
2.15036e-15
3.09784e-15
4.39571e-15
3.56889e-15
3.08097e-15
2.66868e-15
7.76121e-17
4.63651e-24
1.10981e-26
5.6426e-29
3.56914e-32
1.34006e-34
5.1655e-38
4.50941e-41
1.74699e-43
1.57932e-47
6.14377e-51
1.72067e-54
3.29393e-58
4.03482e-62
2.80488e-66
1.91727e-69
1.82027e-69
1.884e-69
9.22996e-16
9.22996e-16
9.69779e-16
2.62818e-14
1.49433e-13
1.52437e-13
1.18711e-13
6.10989e-15
4.9196e-15
3.70924e-15
3.51318e-15
3.51318e-15
3.51318e-15
1.963e-14
2.41326e-14
4.11699e-15
1.75465e-15
3.02323e-15
2.12165e-15
2.08267e-15
2.08267e-15
3.14054e-15
7.16602e-15
4.56776e-15
3.04151e-15
3.04502e-15
2.82152e-15
1.52769e-16
8.9852e-24
2.10331e-26
6.89283e-29
6.43844e-32
8.36975e-35
8.80577e-38
7.41405e-41
4.83063e-44
2.42017e-47
9.03732e-51
2.42251e-54
4.42262e-58
5.18093e-62
1.42334e-65
1.73887e-65
2.79702e-70
3.56065e-70
9.22996e-16
5.19332e-15
1.98714e-14
3.28515e-14
1.21997e-13
1.52437e-13
1.51916e-13
2.4092e-14
3.5419e-15
3.54038e-15
3.51318e-15
3.51318e-15
1.03765e-13
1.11486e-13
3.78352e-14
6.46726e-33
1.85204e-15
6.65692e-15
6.75667e-15
3.00708e-15
3.74343e-15
8.80913e-15
7.8696e-15
3.24324e-15
3.04054e-15
3.09772e-15
2.8691e-15
1.47077e-16
8.67316e-24
1.90475e-26
3.54111e-29
5.52445e-32
6.97873e-35
7.12635e-38
5.81023e-41
3.88367e-44
1.76663e-47
6.34844e-51
1.63156e-54
2.8465e-58
3.1553e-62
1.97001e-66
2.79702e-70
2.21668e-70
2.43717e-70
9.22996e-16
1.29659e-14
4.96858e-14
8.15853e-14
1.10616e-13
1.39672e-13
6.64326e-14
3.5568e-15
3.54982e-15
3.53836e-15
3.51318e-15
1.1456e-13
2.07713e-13
1.25295e-13
-4.67106e-34
-4.47937e-15
-3.79602e-15
2.49896e-15
7.94976e-15
8.48878e-15
9.34243e-15
9.34243e-15
4.30881e-15
3.23277e-15
3.2824e-15
3.21951e-15
2.01782e-15
1.87114e-18
3.9907e-25
8.87949e-28
1.60887e-30
2.43326e-33
2.97142e-36
2.9283e-39
2.29886e-42
1.39005e-45
6.43294e-49
2.2101e-52
5.41133e-56
9.00518e-60
9.47979e-64
5.61773e-68
2.10978e-70
2.20012e-70
2.22742e-70
9.56052e-16
7.83031e-15
3.21539e-14
7.22921e-14
1.46454e-13
1.14026e-13
3.96627e-15
3.56286e-15
3.5568e-15
3.55024e-15
3.50112e-14
2.1762e-13
1.64223e-13
4.29135e-15
-6.60405e-15
-2.00872e-14
-2.08804e-14
-1.19436e-14
-2.16029e-15
7.35176e-15
9.34243e-15
6.73384e-15
3.45132e-15
3.6246e-15
3.60724e-15
3.31056e-15
1.70182e-15
1.0426e-19
1.97326e-25
5.29324e-28
8.47878e-29
3.68087e-32
1.00316e-34
6.87882e-38
5.3557e-41
4.10141e-44
8.42091e-48
3.84808e-51
1.14852e-54
2.0439e-59
4.31533e-64
2.40537e-68
1.93055e-70
1.97359e-70
1.98224e-70
1.33821e-15
1.15658e-15
1.91919e-15
5.53274e-15
2.65435e-14
1.03916e-13
2.69474e-14
3.62303e-15
3.5627e-15
8.51115e-14
3.20113e-13
1.1121e-13
5.57849e-34
-4.46272e-15
-3.11953e-14
-5.72296e-14
-6.2842e-14
-4.7574e-14
-2.575e-14
-7.98306e-15
2.20499e-15
1.9006e-15
3.48979e-15
3.59581e-15
3.41655e-15
3.18027e-15
2.56903e-15
2.18413e-17
1.20429e-24
2.51354e-27
4.26562e-30
6.00274e-33
6.78725e-36
6.15414e-39
4.41917e-42
2.42883e-45
1.01455e-48
3.1288e-52
6.79948e-56
9.91161e-60
9.07338e-64
4.64818e-68
1.86358e-70
1.85156e-70
1.85277e-70
1.1305e-15
1.04597e-15
1.0467e-15
2.04337e-15
2.68614e-15
6.40445e-14
5.2914e-13
3.44672e-13
3.13633e-13
6.65784e-13
3.62097e-13
6.86836e-16
6.40878e-33
-2.38146e-14
-7.86989e-14
-1.33234e-13
-1.50645e-13
-1.24936e-13
-7.89277e-14
-3.79609e-14
-1.3706e-14
-2.55746e-15
2.87578e-15
3.52623e-15
3.18746e-15
3.1555e-15
2.94409e-15
1.74576e-16
8.27218e-24
1.63857e-26
2.66114e-29
3.57568e-32
3.85536e-35
3.34057e-38
2.28854e-41
1.19611e-44
4.73146e-48
1.37703e-51
2.80654e-55
3.81233e-59
3.22782e-63
1.5141e-67
1.87474e-70
1.84204e-70
1.84204e-70
8.7767e-16
1.05323e-15
1.3068e-15
1.91462e-15
1.73227e-15
1.70947e-15
6.96598e-13
1.15537e-12
1.14336e-12
8.25248e-13
1.23614e-14
1.31178e-15
1.95911e-15
-5.91479e-14
-1.72593e-13
-2.78511e-13
-3.14494e-13
-2.68252e-13
-1.78384e-13
-9.32161e-14
-3.71582e-14
-9.34591e-15
9.46958e-16
3.52427e-15
3.23391e-15
3.24804e-15
1.52281e-15
1.28585e-22
2.13313e-25
4.11257e-28
6.40345e-31
8.233e-34
8.47061e-37
6.95677e-40
4.50174e-43
2.22586e-46
8.30948e-50
2.27315e-53
4.33011e-57
5.45366e-61
4.27236e-65
2.01812e-69
1.84251e-70
1.84204e-70
1.84204e-70
8.22572e-16
1.58528e-15
1.71027e-15
1.59532e-15
1.47006e-15
1.64662e-15
4.1161e-13
1.16194e-12
1.16194e-12
2.90154e-13
6.51388e-15
3.25253e-14
2.07025e-15
-1.39202e-13
-3.55262e-13
-5.40729e-13
-5.98292e-13
-5.11681e-13
-3.46505e-13
-1.86634e-13
-7.82309e-14
-2.33459e-14
-2.86412e-15
3.09399e-15
3.35417e-15
3.33869e-15
9.64239e-16
6.80536e-23
1.21184e-25
2.22521e-28
3.2936e-31
4.01545e-34
3.90953e-37
3.04214e-40
1.85853e-43
8.60521e-47
2.9991e-50
7.61274e-54
1.33866e-57
4.8337e-61
2.98285e-61
4.29256e-69
2.01812e-69
4.43439e-69
3.88548e-70
9.51433e-16
1.6047e-15
1.42986e-15
1.11985e-15
1.12885e-14
1.73678e-13
7.03347e-14
7.38032e-13
1.01457e-12
2.14705e-13
5.74965e-15
7.85039e-14
-1.56063e-14
-3.08007e-13
-6.88319e-13
-9.87019e-13
-1.06321e-12
-9.02543e-13
-6.14523e-13
-3.36174e-13
-1.45373e-13
-4.69839e-14
-9.01781e-15
1.57115e-15
3.35451e-15
3.20673e-15
4.48922e-16
2.55151e-23
4.82874e-26
8.4465e-29
1.18721e-31
1.37457e-34
1.26819e-37
9.27511e-41
5.30872e-44
2.2948e-47
7.44271e-51
1.74653e-54
5.12279e-58
2.12773e-58
2.41637e-58
2.22603e-60
4.29256e-69
6.88519e-68
3.09253e-69
9.37907e-16
9.92785e-16
1.01241e-15
1.1814e-15
2.92044e-13
3.94658e-13
3.17986e-14
6.22582e-14
1.43061e-13
1.4413e-13
1.06488e-14
6.28782e-14
-1.67658e-13
-6.69983e-13
-1.2714e-12
-1.71233e-12
-1.79053e-12
-1.50024e-12
-1.01876e-12
-5.60346e-13
-2.46224e-13
-8.31381e-14
-1.89752e-14
-8.39451e-16
3.22673e-15
3.04647e-15
1.77932e-16
8.43802e-24
1.66339e-26
2.73614e-29
3.61179e-32
3.90934e-35
3.36052e-38
2.28665e-41
1.21572e-44
4.88125e-48
1.46876e-51
3.16889e-55
5.32778e-58
4.83017e-58
4.87965e-58
1.06145e-59
4.67056e-67
9.2921e-67
4.72654e-69
1.04183e-15
1.01945e-15
1.01808e-15
1.11564e-13
3.84427e-13
8.9879e-14
1.99384e-14
1.96717e-14
1.97753e-14
2.01578e-14
2.07547e-13
-2.57125e-14
-5.33215e-13
-1.3418e-12
-2.23805e-12
-2.8462e-12
-2.88686e-12
-2.37799e-12
-1.60037e-12
-8.77717e-13
-3.8745e-13
-1.33574e-13
-3.30913e-14
-3.72965e-15
2.76238e-15
2.91782e-15
1.73071e-16
7.22513e-24
1.34593e-26
2.08519e-29
2.58382e-32
2.61623e-35
2.09687e-38
1.32544e-41
6.5118e-45
2.40247e-48
3.2176e-51
3.81651e-51
7.15806e-58
1.0274e-57
1.06698e-57
2.96502e-59
2.94609e-67
2.75771e-66
1.81108e-68
2.0552e-15
1.29402e-15
3.12259e-13
2.61034e-13
7.26016e-14
7.26016e-14
9.62735e-14
1.96717e-14
3.09233e-14
7.60799e-13
3.75392e-13
-2.69119e-13
-1.20128e-12
-2.4806e-12
-3.78063e-12
-4.57148e-12
-4.49375e-12
-3.62441e-12
-2.40279e-12
-1.30391e-12
-5.7254e-13
-1.98435e-13
-5.1037e-14
-7.56496e-15
1.94714e-15
2.93123e-15
3.74254e-16
1.4632e-23
2.42118e-26
3.49593e-29
4.02701e-32
3.77878e-35
2.79901e-38
1.63182e-41
7.39373e-45
2.50335e-48
6.21776e-52
1.15625e-55
3.5038e-58
3.35053e-58
1.57623e-58
7.47682e-61
6.79439e-68
6.77077e-68
6.73368e-68
1.01794e-14
5.432e-12
1.71128e-11
7.15494e-12
7.26016e-14
7.26016e-14
5.05522e-14
3.28693e-14
1.31028e-12
1.02296e-12
-8.39113e-23
-8.89246e-13
-2.40515e-12
-4.3565e-12
-6.18078e-12
-7.13788e-12
-6.7911e-12
-5.33965e-12
-3.46513e-12
-1.84603e-12
-7.98518e-13
-2.74458e-13
-7.11462e-14
-1.15494e-14
1.16603e-15
2.93061e-15
4.22249e-16
1.56607e-23
2.23049e-26
2.96922e-29
3.1489e-32
2.71738e-35
1.84884e-38
9.86495e-42
4.06387e-45
1.24931e-48
5.27608e-52
2.25176e-52
2.19862e-52
3.59569e-58
3.68353e-63
3.70775e-63
3.75436e-63
1.01997e-65
2.99497e-67
7.30593e-14
3.36533e-11
2.9172e-11
1.11168e-11
8.73244e-14
7.26016e-14
8.44397e-13
3.21281e-12
2.02271e-12
1.21809e-15
-5.53721e-13
-2.03694e-12
-4.41664e-12
-7.30771e-12
-9.80396e-12
-1.08633e-11
-9.99002e-12
-7.62192e-12
-4.80947e-12
-2.49481e-12
-1.05259e-12
-3.5409e-13
-9.0658e-14
-1.49367e-14
9.91351e-16
1.15108e-15
1.79198e-17
4.82841e-25
7.12652e-28
8.77554e-31
8.59138e-34
6.82271e-37
4.25584e-40
2.07408e-43
7.77255e-47
6.97659e-50
4.62601e-50
4.85661e-50
1.75116e-51
1.30044e-61
5.9049e-63
3.68353e-63
3.75207e-62
1.11447e-64
1.68043e-66
1.11293e-10
5.69875e-11
1.53839e-11
1.00077e-13
1.26155e-13
1.44199e-12
6.08495e-12
5.47662e-12
4.38079e-13
-2.11101e-13
-1.52124e-12
-4.045e-12
-7.78565e-12
-1.20059e-11
-1.52912e-11
-1.62269e-11
-1.43542e-11
-1.05562e-11
-6.42555e-12
-3.21593e-12
-1.30944e-12
-4.25561e-13
-1.05656e-13
-1.69831e-14
-8.78676e-17
4.5002e-16
1.10142e-17
2.52188e-25
3.36563e-28
3.78161e-31
3.3673e-34
2.42704e-37
1.37095e-40
6.04364e-44
3.05536e-46
4.11019e-46
3.73757e-49
4.73485e-50
1.37544e-56
1.37401e-56
1.37726e-56
5.03026e-58
6.4832e-64
6.48325e-64
1.04157e-65
2.48675e-11
3.13876e-10
2.89809e-10
4.4467e-11
2.93347e-13
4.92733e-13
1.37257e-12
6.02856e-12
6.23806e-12
2.22956e-12
2.04718e-31
-1.12787e-12
-3.56127e-12
-7.76493e-12
-1.35357e-11
-1.95291e-11
-2.3577e-11
-2.38481e-11
-2.01539e-11
-1.41688e-11
-8.24274e-12
-3.93981e-12
-1.53041e-12
-4.73959e-13
-1.11992e-13
-1.69048e-14
-7.41308e-16
1.2352e-16
6.90266e-18
1.38474e-25
1.56132e-28
1.58429e-31
1.27443e-34
8.36675e-38
4.2818e-41
-2.91245e-51
1.2242e-44
3.69034e-44
6.52748e-45
9.0269e-55
8.03424e-56
1.46797e-55
1.68622e-55
3.94642e-57
6.48329e-64
1.11894e-63
3.87093e-65
4.32716e-11
3.20769e-10
2.74547e-10
2.28812e-11
6.30227e-13
7.77996e-13
2.27369e-12
5.91672e-12
5.63772e-12
4.8379e-13
-7.61722e-13
-3.07358e-12
-7.48802e-12
-1.45065e-11
-2.33332e-11
-3.15687e-11
-3.59892e-11
-3.44608e-11
-2.75804e-11
-1.83531e-11
-1.00951e-11
-4.55506e-12
-1.66676e-12
-4.84762e-13
-1.06758e-13
-1.54273e-14
-1.06412e-15
-5.40064e-18
2.01176e-18
1.12319e-20
1.20855e-28
9.81433e-32
-5.84937e-41
-3.36952e-44
-4.7042e-46
-1.43715e-58
-1.17865e-48
4.25237e-44
1.06943e-44
1.24147e-54
1.61093e-55
1.75117e-55
2.28414e-55
4.47387e-57
5.08784e-64
1.30572e-63
9.01064e-65
5.00761e-11
6.04993e-11
3.22584e-11
9.7547e-13
8.42706e-13
7.9037e-13
8.4511e-13
5.34602e-12
2.17471e-12
-1.61037e-20
-2.52383e-12
-7.20608e-12
-1.52939e-11
-2.69674e-11
-4.02229e-11
-5.08772e-11
-5.43714e-11
-4.88072e-11
-3.65839e-11
-2.27681e-11
-1.16926e-11
-4.91448e-12
-1.66967e-12
-4.48562e-13
-9.01602e-14
-1.21232e-14
-9.42889e-16
-3.61486e-17
-5.13957e-19
1.28695e-21
4.93412e-23
-1.65188e-39
-2.31834e-42
-1.70279e-39
-8.57713e-35
-2.64285e-37
-4.19329e-40
-4.15826e-43
8.55199e-46
1.83522e-48
1.65951e-55
1.65899e-55
1.65901e-55
2.32977e-57
6.53805e-65
1.13502e-63
1.11304e-64
4.84731e-11
1.84475e-11
5.19841e-12
1.38992e-12
9.7547e-13
1.79792e-12
1.49055e-11
1.02754e-11
1.67002e-13
-2.08268e-12
-7.18542e-12
-1.64465e-11
-3.11592e-11
-5.03616e-11
-6.95487e-11
-8.16549e-11
-8.09282e-11
-6.72424e-11
-4.6557e-11
-2.67108e-11
-1.26168e-11
-4.86229e-12
-1.50742e-12
-3.66241e-13
-6.61927e-14
-8.2589e-15
-6.64934e-16
-3.31991e-17
-1.01691e-18
-1.92625e-20
-2.30046e-22
-1.77425e-24
-9.0374e-27
-3.09844e-29
-7.25079e-32
-1.17168e-34
-1.32266e-37
-1.05562e-40
-5.79494e-44
-1.49489e-47
2.89085e-52
2.26136e-55
5.64447e-56
6.16699e-58
2.46106e-67
4.93809e-64
3.10935e-65
1.0735e-10
2.58659e-10
3.78359e-10
1.6824e-10
1.38992e-12
2.61962e-11
2.66965e-11
5.17845e-12
-5.9163e-13
-7.04642e-12
-1.82704e-11
-3.70364e-11
-6.39359e-11
-9.49039e-11
-1.20484e-10
-1.29712e-10
-1.17458e-10
-8.88645e-11
-5.58684e-11
-2.90336e-11
-1.23855e-11
-4.29154e-12
-1.18743e-12
-2.54656e-13
-4.04733e-14
-4.55058e-15
-3.50947e-16
-1.83249e-17
-6.47963e-19
-1.56091e-20
-2.58286e-22
-2.95726e-24
-2.35161e-26
-1.3006e-28
-4.98768e-31
-1.3152e-33
-2.34667e-36
-2.81567e-39
-2.27737e-42
-1.19189e-45
-3.28878e-49
-1.29884e-53
3.22096e-57
4.47225e-62
2.96432e-68
1.23656e-64
2.5524e-66
2.55937e-10
4.74804e-10
9.94127e-10
5.26301e-10
9.75612e-12
3.20054e-11
1.51132e-11
-1.57182e-21
-6.64255e-12
-2.11106e-11
-4.63852e-11
-8.49679e-11
-1.3373e-10
-1.80669e-10
-2.07686e-10
-2.01222e-10
-1.63075e-10
-1.0995e-10
-6.14142e-11
-2.82725e-11
-1.06372e-11
-3.22682e-12
-7.72972e-13
-1.41975e-13
-1.9342e-14
-1.90281e-15
-1.33185e-16
-6.59556e-18
-2.3134e-19
-5.76445e-21
-1.02368e-22
-1.29919e-24
-1.17871e-26
-7.61579e-29
-3.47435e-31
-1.10718e-33
-2.4446e-36
-3.70288e-39
-3.70105e-42
-2.32096e-45
-8.67151e-49
-1.86966e-52
-2.03199e-56
-8.80992e-61
-1.25233e-65
1.17185e-65
3.47695e-71
4.04257e-10
5.20068e-10
1.11475e-09
5.7787e-10
6.52946e-12
3.95382e-12
-2.92081e-45
-7.00137e-12
-2.66778e-11
-6.34703e-11
-1.22528e-10
-2.02051e-10
-2.85937e-10
-3.44467e-10
-3.49646e-10
-2.96505e-10
-2.08943e-10
-1.2196e-10
-5.87931e-11
-2.32603e-11
-7.46139e-12
-1.90595e-12
-3.7869e-13
-5.70289e-14
-6.36811e-15
-5.19638e-16
-3.07786e-17
-1.32095e-18
-4.11595e-20
-9.33192e-22
-1.54137e-23
-1.85169e-25
-1.61192e-27
-1.01162e-29
-4.54166e-32
-1.4488e-34
-3.22643e-37
-4.8522e-40
-4.75055e-43
-2.92284e-46
-1.08131e-49
-2.24431e-53
-2.34884e-57
1.64057e-62
9.6834e-66
5.15211e-68
2.25426e-71
6.47634e-10
5.09455e-10
8.96794e-10
3.2475e-10
6.67332e-14
-1.25546e-29
-5.34406e-12
-3.67247e-11
-1.00402e-10
-2.03759e-10
-3.46451e-10
-5.02984e-10
-6.19698e-10
-6.40634e-10
-5.50521e-10
-3.91385e-10
-2.3003e-10
-1.117e-10
-4.45694e-11
-1.4429e-11
-3.71821e-12
-7.46131e-13
-1.14141e-13
-1.30883e-14
-1.11271e-15
-6.97594e-17
-3.22107e-18
-1.09508e-19
-2.74461e-21
-5.07196e-23
-6.90791e-25
-6.92833e-27
-5.09188e-29
-2.72951e-31
-1.05457e-33
-2.88278e-36
-5.45042e-39
-6.92085e-42
-5.75756e-45
-2.98563e-48
-9.02057e-52
-1.50213e-55
-1.22986e-59
-1.3645e-65
1.92101e-67
3.69018e-73
1.31529e-73
7.16464e-10
1.47956e-10
7.62803e-11
6.42226e-11
-1.34936e-22
-8.21689e-22
-4.82989e-11
-1.90943e-10
-4.23923e-10
-7.27602e-10
-1.05223e-09
-1.27992e-09
-1.28972e-09
-1.06715e-09
-7.23816e-10
-4.03744e-10
-1.85675e-10
-6.98908e-11
-2.11296e-11
-5.01138e-12
-9.12801e-13
-1.25667e-13
-1.29444e-14
-9.92022e-16
-5.64594e-17
-2.38693e-18
-7.50701e-20
-1.75935e-21
-3.07767e-23
-4.01997e-25
-3.91115e-27
-2.82275e-29
-1.50105e-31
-5.82347e-34
-1.62518e-36
-3.21378e-39
-4.41432e-42
-4.11244e-45
-2.53592e-48
-9.99789e-52
-2.41814e-55
-3.39607e-59
-2.61248e-63
-4.40561e-68
1.18384e-69
2.39252e-73
3.25596e-81
4.28217e-06
5.02484e-07
1.02403e-10
2.58437e-12
-1.07636e-20
-2.52161e-11
-4.2415e-10
-1.30229e-09
-2.31878e-09
-3.07685e-09
-3.35478e-09
-2.98291e-09
-2.1198e-09
-1.21195e-09
-5.6568e-10
-2.14122e-10
-6.38953e-11
-1.45906e-11
-2.50374e-12
-3.20477e-13
-3.06005e-14
-2.18889e-15
-1.18079e-16
-4.84261e-18
-1.52223e-19
-3.69237e-21
-6.94575e-23
-1.01638e-24
-1.15811e-26
-1.02539e-28
-7.02346e-31
-3.70188e-33
-1.48669e-35
-4.51433e-38
-1.02514e-40
-1.72796e-43
-2.13747e-46
-1.87468e-49
-1.14443e-52
-4.6067e-56
-1.17209e-59
-1.77961e-63
-1.52128e-67
-3.71626e-72
-8.44864e-79
2.38823e-76
3.25898e-81
9.93895e-06
8.14709e-07
4.52162e-11
-1.93797e-17
-1.01165e-16
-8.92371e-10
-5.44186e-09
-1.34715e-08
-1.60403e-08
-1.08963e-08
-4.85854e-09
-1.54855e-09
-3.65572e-10
-6.53236e-11
-9.39355e-12
-1.25283e-12
-1.77487e-13
-2.52298e-14
-3.07817e-15
-2.93474e-16
-2.11813e-17
-1.14894e-18
-4.69665e-20
-1.45437e-21
-3.4358e-23
-6.23305e-25
-8.75748e-27
-9.57219e-29
-8.16272e-31
-5.43963e-33
-2.83512e-35
-1.1557e-37
-3.66576e-40
-9.01842e-43
-1.71567e-45
-2.50578e-48
-2.79592e-51
-2.29908e-54
-1.35699e-57
-5.41391e-61
-1.41842e-64
-2.37194e-68
-2.3119e-72
-5.36642e-77
1.66009e-84
5.24213e-85
6.2601e-85
1.33222e-36
6.62404e-40
8.69567e-42
5.52612e-45
1.37084e-48
2.45959e-52
1.01594e-56
5.06834e-61
1.57404e-61
1.67212e-24
8.28483e-26
3.59636e-34
2.2043e-37
1.12324e-40
3.96541e-42
6.69588e-46
2.13629e-49
3.69135e-53
1.31698e-57
6.01713e-62
2.91643e-62
2.31964e-14
8.57043e-15
2.09629e-15
2.07727e-15
2.07652e-15
2.07652e-15
2.0783e-15
2.22428e-15
1.92552e-14
2.58432e-14
2.58434e-14
2.57972e-14
1.53116e-14
2.1863e-15
2.11991e-15
2.31801e-15
7.57131e-15
8.31343e-15
5.49406e-15
2.81721e-15
2.8158e-15
3.73811e-15
4.34603e-15
4.29628e-15
6.39305e-16
2.56959e-43
-5.57247e-31
-7.65642e-36
2.65646e-57
-6.96377e-52
-5.79385e-49
-7.64968e-40
1.31252e-22
8.47579e-24
5.6751e-32
4.31687e-35
2.85367e-38
8.24069e-40
3.21683e-43
8.69723e-47
2.48668e-50
3.97948e-54
1.20029e-58
4.98483e-63
4.98017e-63
3.71542e-14
1.00658e-14
2.14397e-15
6.25243e-15
8.57052e-15
6.61295e-15
2.50518e-15
2.22837e-15
9.33269e-15
2.55638e-14
2.58451e-14
2.58451e-14
2.58312e-14
1.5895e-14
2.16371e-15
2.37722e-15
8.26933e-15
8.39297e-15
8.31398e-15
5.64094e-15
2.82212e-15
3.50263e-15
4.34748e-15
4.31566e-15
3.86816e-15
1.39855e-16
5.96749e-24
7.65757e-40
5.2466e-26
6.81372e-28
2.96377e-27
6.40905e-21
5.41941e-22
5.41433e-30
5.07236e-33
4.1869e-36
7.83619e-38
6.25758e-41
2.69842e-44
8.18392e-48
2.07382e-51
3.20771e-55
7.04039e-60
2.01891e-64
3.0142e-64
3.84187e-14
1.34981e-14
4.95273e-15
2.18992e-14
2.72744e-14
2.6437e-14
2.13457e-14
3.65347e-15
2.16185e-15
1.00541e-14
2.56379e-14
2.58456e-14
2.58456e-14
2.5842e-14
1.45817e-14
2.38095e-15
4.33106e-15
8.4032e-15
8.40537e-15
8.35753e-15
5.82444e-15
3.50751e-15
4.2227e-15
4.30972e-15
4.18691e-15
6.57354e-16
5.32721e-22
5.96749e-24
1.36696e-25
3.31578e-25
1.9631e-19
2.17013e-20
3.208e-28
3.55494e-31
3.77776e-34
1.72498e-35
2.43019e-39
4.14925e-42
1.71316e-45
5.15876e-49
1.24584e-52
1.85197e-56
2.09407e-61
9.69879e-66
1.87818e-65
2.34622e-14
2.46331e-15
4.20209e-15
2.16224e-14
2.76652e-14
2.76652e-14
2.76652e-14
8.5193e-15
2.14489e-15
2.1456e-15
1.09477e-14
2.56558e-14
2.58456e-14
2.58454e-14
2.57841e-14
1.2483e-14
2.51725e-15
7.48344e-15
8.40871e-15
8.40871e-15
8.39276e-15
5.04303e-15
4.30837e-15
4.31627e-15
4.2127e-15
6.59272e-16
4.14141e-21
5.32721e-22
1.46619e-19
3.72664e-18
5.42247e-19
1.1809e-26
1.51979e-29
1.94237e-32
5.42275e-34
6.16787e-37
1.62098e-40
1.82408e-43
8.05007e-47
2.29976e-50
5.28944e-54
7.48644e-58
1.8453e-64
3.18212e-67
5.07315e-67
1.76013e-15
2.17577e-15
2.25754e-15
2.8802e-15
1.69569e-14
2.73424e-14
2.21014e-14
3.61457e-15
2.16005e-15
2.14177e-15
2.1418e-15
1.11186e-14
2.57378e-14
2.58454e-14
2.58454e-14
2.2574e-14
2.71823e-15
3.09762e-15
8.36754e-15
8.40871e-15
8.40809e-15
7.82342e-15
3.10428e-15
4.15632e-15
4.171e-15
2.47127e-16
2.71299e-19
2.43817e-19
4.27175e-17
8.29663e-18
2.63176e-25
3.89382e-28
5.9667e-31
1.34946e-32
1.27912e-35
2.09783e-38
6.59011e-42
5.71609e-45
2.69735e-48
7.32421e-52
1.54e-55
2.04478e-59
5.81348e-66
1.19988e-67
1.24523e-67
1.67621e-15
2.46728e-15
2.37252e-15
2.08008e-15
2.12644e-15
1.12121e-14
3.9866e-15
2.19801e-15
2.18239e-15
2.36254e-14
1.42327e-14
2.57367e-15
1.36015e-14
2.52255e-14
2.5144e-14
1.96808e-14
2.33628e-15
2.30652e-15
7.21764e-15
8.40871e-15
8.40816e-15
8.29457e-15
2.53103e-15
3.12051e-15
2.9801e-15
1.80911e-15
1.28029e-15
9.34648e-16
5.57817e-17
2.20904e-24
4.43793e-27
8.18423e-30
2.11599e-31
1.29828e-34
2.78071e-37
3.91544e-40
9.55259e-44
9.62527e-47
4.46702e-50
1.17012e-53
2.21437e-57
2.69848e-61
2.04882e-67
1.15235e-67
1.15317e-67
1.82593e-15
1.99227e-15
1.20754e-15
1.32167e-15
7.16522e-15
5.01795e-15
2.20724e-15
2.20467e-15
2.04324e-14
5.97019e-14
5.77302e-14
1.97529e-14
4.59306e-15
4.56369e-15
5.59367e-15
3.16333e-15
2.21127e-15
2.29408e-15
2.96004e-15
8.36565e-15
8.40809e-15
5.45644e-15
2.16941e-15
2.84777e-15
2.78087e-15
3.00794e-15
3.06061e-15
1.7984e-15
1.05315e-18
2.68479e-25
5.5102e-28
9.59306e-31
5.07993e-33
1.57305e-36
1.48191e-39
9.46436e-42
6.12746e-46
5.32297e-49
5.41379e-52
1.80704e-56
2.3975e-60
1.89913e-64
1.39446e-67
1.32087e-67
1.12248e-67
2.11862e-15
1.0863e-15
9.61796e-16
4.85246e-14
1.59131e-13
1.41927e-13
6.52231e-14
4.49925e-15
3.73755e-14
6.00619e-14
6.00619e-14
5.75632e-14
7.47051e-15
2.00387e-15
1.95325e-15
2.00387e-15
2.20828e-15
2.36875e-15
2.29275e-15
5.72636e-15
6.77759e-15
2.90459e-15
2.1668e-15
2.67854e-15
3.53439e-15
3.12071e-15
3.06979e-15
1.4413e-15
1.25985e-22
2.11613e-25
4.28564e-28
7.33491e-31
2.80189e-33
1.15906e-36
1.06848e-39
5.57581e-42
4.25145e-46
1.49341e-48
7.70722e-52
1.31777e-55
1.48035e-60
1.1497e-64
1.75262e-66
3.47692e-66
3.29097e-68
1.40724e-15
1.10623e-15
9.61796e-16
8.65577e-14
1.95426e-13
1.95426e-13
1.91552e-13
1.35969e-13
1.43205e-14
5.09489e-14
6.00619e-14
6.00131e-14
1.29563e-14
2.03206e-15
8.15035e-15
8.66941e-15
1.90974e-15
2.1538e-15
2.23029e-15
2.45155e-15
2.39292e-15
2.16196e-15
2.16313e-15
4.1517e-15
3.68749e-15
3.11018e-15
2.75763e-15
2.05063e-16
1.15615e-23
2.84685e-26
3.00278e-28
9.59834e-32
7.43479e-34
1.46718e-37
5.68209e-40
1.21685e-42
4.97803e-47
1.10628e-49
5.49651e-53
6.83671e-57
1.65095e-61
5.35939e-65
1.10747e-68
1.92991e-68
9.92895e-69
1.51685e-15
1.35539e-15
9.61796e-16
8.13723e-15
1.26384e-13
1.95426e-13
1.9529e-13
1.95153e-13
3.17144e-14
9.04692e-15
4.79942e-14
3.98803e-14
3.58852e-15
2.03765e-15
4.27985e-14
4.70602e-14
1.72394e-14
1.75617e-15
2.09559e-15
2.20248e-15
2.1453e-15
2.14569e-15
5.0247e-15
4.67567e-15
3.17495e-15
3.06555e-15
2.74551e-15
1.21872e-16
7.28151e-24
1.73768e-26
6.14278e-29
5.57036e-32
1.17631e-34
8.04974e-38
6.99986e-41
1.33916e-43
2.44908e-47
9.51711e-51
2.66326e-54
5.09529e-58
6.23798e-62
4.36723e-66
1.90666e-69
1.75571e-69
1.88602e-69
1.31317e-15
9.74216e-16
9.72783e-16
4.06554e-15
1.7867e-14
1.36837e-13
1.89546e-13
1.10352e-13
3.99499e-15
3.55496e-15
6.47108e-15
6.58347e-15
4.10814e-15
4.05083e-14
4.93017e-14
4.93017e-14
3.54406e-14
1.98129e-15
2.04846e-15
2.12457e-15
2.08267e-15
4.07222e-15
7.56929e-15
3.85275e-15
3.04054e-15
3.06255e-15
2.80966e-15
1.3878e-16
8.09631e-24
1.90168e-26
9.21417e-29
5.83506e-32
1.36585e-34
7.9725e-38
6.70803e-41
4.36936e-44
2.1892e-47
8.17759e-51
2.1933e-54
4.00737e-58
4.69484e-62
1.49559e-65
1.96185e-65
2.78153e-70
3.5122e-70
9.22996e-16
2.49219e-14
1.90644e-13
1.49298e-13
3.11647e-14
2.16457e-14
2.82878e-14
1.03993e-14
3.54932e-15
3.55446e-15
3.53987e-15
5.35988e-15
1.28575e-13
1.14622e-13
3.50566e-14
4.24621e-14
3.44362e-14
2.1011e-15
2.03474e-15
2.03474e-15
3.09405e-15
8.46362e-15
7.8147e-15
3.30544e-15
3.03997e-15
3.03966e-15
2.8292e-15
1.42857e-16
8.50234e-24
1.86495e-26
3.46542e-29
5.39997e-32
6.81382e-35
6.95078e-38
5.66159e-41
3.56157e-44
1.71902e-47
6.17383e-51
1.58587e-54
2.76563e-58
3.06468e-62
1.9128e-66
2.78153e-70
2.21648e-70
2.44402e-70
9.23063e-16
1.02162e-13
3.95511e-13
4.00294e-13
2.9812e-13
2.20676e-14
3.5568e-15
3.55625e-15
3.55621e-15
3.55507e-15
3.52762e-15
1.56652e-13
2.07993e-13
1.34663e-13
6.94332e-16
2.18895e-15
4.69713e-15
3.98533e-15
2.58789e-15
2.98109e-15
8.68996e-15
8.95165e-15
4.36958e-15
3.23277e-15
3.27189e-15
3.24177e-15
2.1397e-15
2.5452e-18
4.24286e-25
9.43701e-28
1.70969e-30
2.58693e-33
3.16539e-36
3.12231e-39
2.45192e-42
1.48248e-45
6.8582e-49
2.35474e-52
5.75839e-56
9.57513e-60
1.00715e-63
5.96294e-68
2.10876e-70
2.19889e-70
2.22767e-70
9.2341e-16
5.70754e-14
3.55718e-13
4.0339e-13
4.0339e-13
2.84296e-13
9.16523e-15
3.5568e-15
3.55628e-15
3.5553e-15
2.0985e-14
2.25515e-13
2.08222e-13
2.15489e-14
-1.8198e-35
-6.12096e-35
2.30366e-16
1.87814e-14
8.45366e-15
7.87611e-15
9.32606e-15
8.22681e-15
3.44887e-15
3.65579e-15
3.63078e-15
3.42267e-15
1.88452e-15
7.16976e-19
3.5203e-25
7.69301e-28
5.29536e-30
1.9769e-33
2.31929e-36
2.19102e-39
1.64529e-42
9.49332e-46
4.17967e-49
1.36287e-52
3.14891e-56
4.92105e-60
4.8583e-64
2.69864e-68
1.92175e-70
1.96913e-70
1.98234e-70
1.31808e-15
1.16081e-15
2.97002e-14
3.64152e-13
4.03305e-13
3.28437e-13
1.64212e-14
3.5627e-15
3.55682e-15
3.7513e-15
2.7571e-13
2.53889e-13
3.64753e-14
2.68205e-34
-1.25589e-40
2.50954e-15
3.34028e-14
2.34108e-14
6.28374e-15
6.72335e-15
9.32585e-15
8.33605e-15
3.44656e-15
3.65579e-15
3.63303e-15
3.33185e-15
2.20355e-15
2.6338e-18
3.66277e-25
7.68633e-28
1.83786e-30
1.84686e-33
2.10144e-36
1.91685e-39
1.38402e-42
7.6432e-46
3.20729e-49
9.93239e-53
2.16636e-56
3.16747e-60
2.90592e-64
1.50296e-68
1.85626e-70
1.85241e-70
1.85289e-70
1.43304e-15
1.30677e-15
1.05378e-15
5.62106e-14
1.58988e-13
5.99602e-14
4.07024e-15
4.03731e-15
3.5627e-15
2.34148e-13
3.53367e-13
6.74256e-14
3.37058e-18
-6.52853e-38
6.67753e-15
6.72332e-14
4.68584e-14
-7.64318e-40
-2.87909e-15
-1.86043e-15
3.45891e-15
3.48078e-15
3.39936e-15
3.57745e-15
3.31212e-15
3.06489e-15
2.68308e-15
4.20796e-17
2.08244e-24
4.17231e-27
6.77206e-30
9.09499e-33
9.80139e-36
8.46245e-39
5.79739e-42
3.02993e-45
1.19858e-48
3.48831e-52
7.10959e-56
9.65805e-60
8.17793e-64
3.85057e-68
1.85275e-70
1.84407e-70
1.84204e-70
1.29683e-15
1.52566e-15
1.37935e-15