/*--------------------------------*- C++ -*----------------------------------*\
| =========                 |                                                 |
| \\      /  F ield         | OpenFOAM: The Open Source CFD Toolbox           |
|  \\    /   O peration     | Version:  v2012                                 |
|   \\  /    A nd           | Website:  www.openfoam.com                      |
|    \\/     M anipulation  |                                                 |
\*---------------------------------------------------------------------------*/
FoamFile
{
    version     2.0;
    format      ascii;
    class       volScalarField;
    location    "1";
    object      p;
}
// * * * * * * * * * * * * * * * * * * * * * * * * * * * * * * * * * * * * * //

dimensions      [1 -1 -2 0 0 0 0];


internalField   nonuniform List<scalar> 
3332
(
3.50419e+06
3.50412e+06
3.504e+06
3.5039e+06
3.50401e+06
3.50424e+06
3.50447e+06
3.50447e+06
3.50192e+06
3.50344e+06
3.50385e+06
3.50378e+06
3.50378e+06
3.50413e+06
3.5044e+06
3.50441e+06
3.50455e+06
3.50444e+06
3.50444e+06
3.50436e+06
3.5043e+06
3.5042e+06
3.50412e+06
3.50221e+06
3.50374e+06
3.50436e+06
3.50466e+06
3.50474e+06
3.50484e+06
3.50484e+06
3.50478e+06
3.50475e+06
3.50465e+06
3.50461e+06
3.50455e+06
3.5045e+06
3.50441e+06
3.50434e+06
3.50254e+06
3.50414e+06
3.50469e+06
3.50483e+06
3.50501e+06
3.50506e+06
3.50501e+06
3.50498e+06
3.50493e+06
3.50487e+06
3.50482e+06
3.50477e+06
3.50472e+06
3.50464e+06
3.50457e+06
3.50271e+06
3.50448e+06
3.50507e+06
3.50527e+06
3.50555e+06
3.50556e+06
3.50547e+06
3.50538e+06
3.50527e+06
3.50518e+06
3.50511e+06
3.50505e+06
3.50498e+06
3.50489e+06
3.50481e+06
3.50384e+06
3.50497e+06
3.50552e+06
3.50572e+06
3.50592e+06
3.50585e+06
3.50578e+06
3.50569e+06
3.50559e+06
3.5055e+06
3.50542e+06
3.50536e+06
3.50528e+06
3.50518e+06
3.50508e+06
3.50398e+06
3.50544e+06
3.50605e+06
3.50624e+06
3.50645e+06
3.50636e+06
3.50629e+06
3.50617e+06
3.50604e+06
3.50592e+06
3.50582e+06
3.50573e+06
3.50563e+06
3.50551e+06
3.5054e+06
3.50492e+06
3.50613e+06
3.50645e+06
3.50675e+06
3.50697e+06
3.50686e+06
3.50678e+06
3.50663e+06
3.50648e+06
3.50634e+06
3.50622e+06
3.50612e+06
3.50601e+06
3.50587e+06
3.50574e+06
3.50519e+06
3.50666e+06
3.50693e+06
3.50725e+06
3.50755e+06
3.50746e+06
3.5074e+06
3.50722e+06
3.50704e+06
3.50687e+06
3.50672e+06
3.50659e+06
3.50644e+06
3.50629e+06
3.50614e+06
3.50567e+06
3.50639e+06
3.50704e+06
3.50746e+06
3.50793e+06
3.50787e+06
3.50785e+06
3.50776e+06
3.50759e+06
3.50742e+06
3.50725e+06
3.50707e+06
3.50691e+06
3.50673e+06
3.50656e+06
3.50605e+06
3.50714e+06
3.50765e+06
3.50799e+06
3.5085e+06
3.5085e+06
3.50853e+06
3.50843e+06
3.50824e+06
3.50805e+06
3.50785e+06
3.50763e+06
3.50744e+06
3.50723e+06
3.50703e+06
3.50747e+06
3.5077e+06
3.50763e+06
3.50829e+06
3.50894e+06
3.50896e+06
3.50906e+06
3.50897e+06
3.5088e+06
3.5086e+06
3.5084e+06
3.50818e+06
3.50797e+06
3.50775e+06
3.50753e+06
3.5081e+06
3.50831e+06
3.50823e+06
3.50893e+06
3.50969e+06
3.50978e+06
3.50992e+06
3.50981e+06
3.50962e+06
3.50938e+06
3.50915e+06
3.50888e+06
3.50863e+06
3.50837e+06
3.50811e+06
3.50879e+06
3.50781e+06
3.50875e+06
3.50936e+06
3.51012e+06
3.51035e+06
3.51058e+06
3.51037e+06
3.51022e+06
3.51e+06
3.50978e+06
3.50953e+06
3.50927e+06
3.50899e+06
3.5087e+06
3.50966e+06
3.50879e+06
3.50977e+06
3.51053e+06
3.51141e+06
3.51158e+06
3.51176e+06
3.51148e+06
3.51128e+06
3.51101e+06
3.51072e+06
3.51043e+06
3.5101e+06
3.50977e+06
3.50944e+06
3.512e+06
3.50992e+06
3.50991e+06
3.51115e+06
3.51218e+06
3.51215e+06
3.51233e+06
3.51208e+06
3.51194e+06
3.5117e+06
3.51145e+06
3.51124e+06
3.51092e+06
3.51058e+06
3.51022e+06
3.51334e+06
3.51223e+06
3.51221e+06
3.51305e+06
3.51392e+06
3.51378e+06
3.51389e+06
3.51358e+06
3.51337e+06
3.51305e+06
3.51271e+06
3.51247e+06
3.51208e+06
3.51169e+06
3.51126e+06
3.50886e+06
3.50979e+06
3.51131e+06
3.51283e+06
3.51388e+06
3.51403e+06
3.51432e+06
3.51426e+06
3.51418e+06
3.514e+06
3.51374e+06
3.51365e+06
3.51327e+06
3.51281e+06
3.51231e+06
3.5109e+06
3.51365e+06
3.51502e+06
3.51561e+06
3.5163e+06
3.5163e+06
3.51651e+06
3.51635e+06
3.51618e+06
3.51587e+06
3.51548e+06
3.5153e+06
3.5148e+06
3.51421e+06
3.51358e+06
3.5147e+06
3.51457e+06
3.51363e+06
3.51489e+06
3.51606e+06
3.51615e+06
3.51661e+06
3.51668e+06
3.51674e+06
3.5166e+06
3.51636e+06
3.51633e+06
3.51589e+06
3.51532e+06
3.51468e+06
3.51871e+06
3.5185e+06
3.5178e+06
3.5188e+06
3.5199e+06
3.51984e+06
3.52017e+06
3.52e+06
3.51986e+06
3.51944e+06
3.51894e+06
3.51864e+06
3.51796e+06
3.51716e+06
3.51632e+06
3.51833e+06
3.51355e+06
3.51755e+06
3.51787e+06
3.51898e+06
3.51934e+06
3.52009e+06
3.52018e+06
3.52034e+06
3.52017e+06
3.5199e+06
3.51977e+06
3.51921e+06
3.51847e+06
3.51764e+06
3.5244e+06
3.52081e+06
3.52534e+06
3.52538e+06
3.52638e+06
3.52606e+06
3.52621e+06
3.52575e+06
3.5254e+06
3.5247e+06
3.52394e+06
3.5233e+06
3.5223e+06
3.52114e+06
3.51994e+06
3.5291e+06
3.52249e+06
3.52269e+06
3.52429e+06
3.52613e+06
3.52456e+06
3.52508e+06
3.52514e+06
3.52535e+06
3.52514e+06
3.52482e+06
3.5245e+06
3.52374e+06
3.52272e+06
3.52158e+06
3.53838e+06
3.53831e+06
3.53994e+06
3.53895e+06
3.53932e+06
3.53634e+06
3.53555e+06
3.53457e+06
3.53377e+06
3.53261e+06
3.53139e+06
3.53015e+06
3.52856e+06
3.52677e+06
3.52497e+06
3.54372e+06
3.52902e+06
3.53282e+06
3.53391e+06
3.53431e+06
3.53341e+06
3.53347e+06
3.53332e+06
3.53343e+06
3.53299e+06
3.53249e+06
3.53159e+06
3.53035e+06
3.52868e+06
3.52695e+06
3.55664e+06
3.55662e+06
3.56327e+06
3.55788e+06
3.55442e+06
3.55188e+06
3.55006e+06
3.54861e+06
3.54708e+06
3.54518e+06
3.54307e+06
3.54064e+06
3.53786e+06
3.55086e+06
3.55236e+06
3.54989e+06
3.54477e+06
3.54234e+06
3.5423e+06
3.5424e+06
3.54324e+06
3.54355e+06
3.5437e+06
3.54301e+06
3.54195e+06
3.53985e+06
3.56853e+06
3.58715e+06
3.5884e+06
3.57965e+06
3.57257e+06
3.57173e+06
3.56901e+06
3.56885e+06
3.56645e+06
3.56419e+06
3.56055e+06
3.55692e+06
3.55199e+06
3.56747e+06
3.58968e+06
3.56371e+06
3.55991e+06
3.5532e+06
3.55495e+06
3.55504e+06
3.55955e+06
3.56001e+06
3.56127e+06
3.56018e+06
3.55898e+06
3.5547e+06
3.57294e+06
3.63176e+06
3.59062e+06
3.61523e+06
3.59185e+06
3.59982e+06
3.59823e+06
3.60198e+06
3.59907e+06
3.59573e+06
3.5895e+06
3.58356e+06
3.5744e+06
3.53566e+06
3.61573e+06
3.40137e+06
3.52659e+06
3.52293e+06
3.54196e+06
3.55996e+06
3.57681e+06
3.58306e+06
3.58494e+06
3.58994e+06
3.58863e+06
3.57889e+06
3.61052e+06
3.50089e+06
3.43503e+06
3.59719e+06
3.59731e+06
3.64351e+06
3.6591e+06
3.67309e+06
3.67177e+06
3.65262e+06
3.6406e+06
3.63097e+06
3.61301e+06
3.72049e+06
3.35768e+06
2.89602e+06
3.34599e+06
3.46224e+06
3.51036e+06
3.57582e+06
3.60264e+06
3.63647e+06
3.60441e+06
3.65062e+06
3.62998e+06
3.60452e+06
3.96758e+06
4.00087e+06
3.8589e+06
3.69265e+06
3.68784e+06
3.77656e+06
3.7732e+06
3.81277e+06
3.8098e+06
3.74784e+06
3.7249e+06
3.80983e+06
3.72784e+06
3.93115e+06
4.00122e+06
4.00113e+06
3.66668e+06
3.2354e+06
3.59633e+06
3.6449e+06
3.98673e+06
3.98228e+06
3.4194e+06
3.96763e+06
3.5675e+06
3.68942e+06
4.00066e+06
4.00072e+06
4.00066e+06
4.00031e+06
4.00105e+06
4.00105e+06
4.00037e+06
4.00041e+06
4.00005e+06
4.00011e+06
3.9967e+06
3.91211e+06
3.75288e+06
4.00083e+06
4.00071e+06
4.00065e+06
4.00055e+06
4.00052e+06
4.00055e+06
4.00061e+06
4.00067e+06
4.00073e+06
4.0009e+06
4.00092e+06
4.00084e+06
4.00077e+06
4.00075e+06
4.00071e+06
4.00074e+06
4.00081e+06
4.00088e+06
4.00097e+06
4.00111e+06
4.00094e+06
4.00086e+06
4.00083e+06
4.0008e+06
4.0008e+06
4.00083e+06
4.00088e+06
4.00095e+06
4.00103e+06
4.00114e+06
4.00099e+06
4.00093e+06
4.0009e+06
4.00089e+06
4.00089e+06
4.00091e+06
4.00095e+06
4.00102e+06
4.00111e+06
4.0198e+06
4.02566e+06
4.01777e+06
4.01611e+06
4.01527e+06
4.02013e+06
4.02888e+06
4.0424e+06
4.0576e+06
4.07058e+06
4.07478e+06
4.17037e+06
4.17025e+06
4.16923e+06
4.16874e+06
4.16752e+06
4.16646e+06
4.16509e+06
4.16416e+06
4.16299e+06
4.16339e+06
4.21594e+06
4.22123e+06
4.22085e+06
4.22367e+06
4.2243e+06
4.22453e+06
4.22427e+06
4.22191e+06
4.22056e+06
4.21786e+06
4.3469e+06
4.35726e+06
4.35611e+06
4.35807e+06
4.35501e+06
4.35033e+06
4.34333e+06
4.33397e+06
4.32555e+06
4.31847e+06
4.36609e+06
4.40563e+06
4.41838e+06
4.4331e+06
4.43434e+06
4.42771e+06
4.41445e+06
4.38809e+06
4.36453e+06
4.33044e+06
4.48558e+06
4.52678e+06
4.56195e+06
4.57345e+06
4.57232e+06
4.56117e+06
4.54254e+06
4.51177e+06
4.47807e+06
4.3998e+06
4.48933e+06
4.49751e+06
4.4999e+06
4.49985e+06
4.49981e+06
4.49955e+06
4.49929e+06
4.49876e+06
4.49928e+06
4.48839e+06
4.49738e+06
4.49716e+06
4.49695e+06
4.49689e+06
4.49694e+06
4.49705e+06
4.49726e+06
4.49746e+06
4.49769e+06
4.49792e+06
4.4978e+06
4.49826e+06
4.49845e+06
4.49848e+06
4.49849e+06
4.49828e+06
4.4982e+06
4.49773e+06
4.49775e+06
4.49681e+06
4.49745e+06
4.49741e+06
4.49741e+06
4.49742e+06
4.49745e+06
4.49749e+06
4.49755e+06
4.49758e+06
4.49765e+06
4.4977e+06
4.49808e+06
4.49809e+06
4.49808e+06
4.49804e+06
4.49801e+06
4.49792e+06
4.4979e+06
4.49778e+06
4.49776e+06
4.49765e+06
4.49766e+06
4.49763e+06
4.49764e+06
4.49763e+06
4.49764e+06
4.49766e+06
4.49769e+06
4.49771e+06
4.49772e+06
4.49773e+06
4.498e+06
4.49797e+06
4.49798e+06
4.49795e+06
4.49792e+06
4.49789e+06
4.49789e+06
4.49786e+06
4.49785e+06
4.49783e+06
4.49779e+06
4.49777e+06
4.49781e+06
4.49782e+06
4.49781e+06
4.49781e+06
4.49782e+06
4.49782e+06
4.49782e+06
4.49782e+06
4.49801e+06
4.49798e+06
4.49796e+06
4.49798e+06
4.49797e+06
4.49797e+06
4.49796e+06
4.49795e+06
4.49794e+06
4.49793e+06
4.49793e+06
4.4979e+06
4.49791e+06
4.49795e+06
4.49795e+06
4.49796e+06
4.49795e+06
4.49794e+06
4.49794e+06
4.49794e+06
4.49802e+06
4.49799e+06
4.49802e+06
4.49806e+06
4.49805e+06
4.49806e+06
4.49804e+06
4.49803e+06
4.49803e+06
4.49803e+06
4.498e+06
4.49798e+06
4.498e+06
4.49805e+06
4.49805e+06
4.49807e+06
4.49806e+06
4.49805e+06
4.49805e+06
4.49805e+06
4.49801e+06
4.49802e+06
4.4981e+06
4.49812e+06
4.49813e+06
4.49815e+06
4.49813e+06
4.49813e+06
4.49812e+06
4.49812e+06
4.49802e+06
4.49805e+06
4.49814e+06
4.49816e+06
4.49816e+06
4.49818e+06
4.49816e+06
4.49816e+06
4.49816e+06
4.49816e+06
4.49812e+06
4.49812e+06
4.49818e+06
4.49821e+06
4.49821e+06
4.49822e+06
4.49822e+06
4.49822e+06
4.49822e+06
4.49822e+06
4.49814e+06
4.49815e+06
4.49823e+06
4.49826e+06
4.49826e+06
4.49826e+06
4.49826e+06
4.49825e+06
4.49825e+06
4.49825e+06
4.4982e+06
4.4982e+06
4.49828e+06
4.49831e+06
4.49831e+06
4.49831e+06
4.49831e+06
4.49831e+06
4.49831e+06
4.49831e+06
4.49825e+06
4.49826e+06
4.49833e+06
4.49835e+06
4.49835e+06
4.49835e+06
4.49834e+06
4.49834e+06
4.49834e+06
4.49834e+06
4.49834e+06
4.49834e+06
4.49837e+06
4.4984e+06
4.4984e+06
4.4984e+06
4.4984e+06
4.4984e+06
4.4984e+06
4.4984e+06
4.49839e+06
4.4984e+06
4.49842e+06
4.49843e+06
4.49843e+06
4.49843e+06
4.49843e+06
4.49843e+06
4.49843e+06
4.49843e+06
4.49841e+06
4.4984e+06
4.49847e+06
4.49849e+06
4.4985e+06
4.49849e+06
4.49849e+06
4.49848e+06
4.49849e+06
4.49849e+06
4.49846e+06
4.49846e+06
4.49851e+06
4.49852e+06
4.49852e+06
4.49852e+06
4.49851e+06
4.49851e+06
4.49851e+06
4.49851e+06
4.4986e+06
4.49858e+06
4.49857e+06
4.49858e+06
4.4986e+06
4.49859e+06
4.49858e+06
4.49858e+06
4.49858e+06
4.49858e+06
4.49863e+06
4.49863e+06
4.4986e+06
4.49859e+06
4.4986e+06
4.49861e+06
4.4986e+06
4.4986e+06
4.49861e+06
4.49861e+06
4.49876e+06
4.49874e+06
4.49872e+06
4.4987e+06
4.4987e+06
4.49869e+06
4.49869e+06
4.49869e+06
4.4987e+06
4.4987e+06
4.49876e+06
4.49875e+06
4.49873e+06
4.4987e+06
4.4987e+06
4.4987e+06
4.4987e+06
4.49869e+06
4.4987e+06
4.49869e+06
4.49895e+06
4.49894e+06
4.4989e+06
4.49887e+06
4.49887e+06
4.49886e+06
4.49885e+06
4.49884e+06
4.49884e+06
4.49883e+06
4.49893e+06
4.49893e+06
4.4989e+06
4.49887e+06
4.49886e+06
4.49883e+06
4.49882e+06
4.49879e+06
4.49878e+06
4.49875e+06
4.49918e+06
4.49918e+06
4.49914e+06
4.49912e+06
4.4991e+06
4.49908e+06
4.49906e+06
4.49903e+06
4.49902e+06
4.499e+06
4.49915e+06
4.49915e+06
4.49912e+06
4.4991e+06
4.49907e+06
4.49903e+06
4.49899e+06
4.4989e+06
4.49884e+06
4.49869e+06
4.49943e+06
4.49942e+06
4.4994e+06
4.49939e+06
4.49938e+06
4.49936e+06
4.49936e+06
4.49933e+06
4.49938e+06
4.49935e+06
4.49964e+06
4.49958e+06
4.49964e+06
4.49964e+06
4.49965e+06
4.49965e+06
4.49966e+06
4.49941e+06
4.49941e+06
4.49939e+06
4.49938e+06
4.49937e+06
4.49936e+06
4.49936e+06
4.49935e+06
4.49939e+06
4.49939e+06
4.49957e+06
4.49957e+06
4.49962e+06
4.49963e+06
4.49964e+06
4.49965e+06
4.49965e+06
4.49957e+06
4.49958e+06
4.49956e+06
4.49953e+06
4.49953e+06
4.49955e+06
4.49956e+06
4.49955e+06
4.49958e+06
4.49957e+06
4.49962e+06
4.49961e+06
4.49964e+06
4.49964e+06
4.49965e+06
4.49965e+06
4.49965e+06
4.49954e+06
4.49956e+06
4.49954e+06
4.49952e+06
4.49952e+06
4.49954e+06
4.49955e+06
4.49955e+06
4.49957e+06
4.49957e+06
4.4996e+06
4.49961e+06
4.49963e+06
4.49963e+06
4.49964e+06
4.49965e+06
4.49965e+06
4.49963e+06
4.49964e+06
4.49963e+06
4.4996e+06
4.4996e+06
4.49962e+06
4.49962e+06
4.49962e+06
4.49962e+06
4.49962e+06
4.49963e+06
4.49963e+06
4.49964e+06
4.49964e+06
4.49965e+06
4.49965e+06
4.49965e+06
4.49962e+06
4.49963e+06
4.49961e+06
4.49959e+06
4.49958e+06
4.4996e+06
4.49961e+06
4.49961e+06
4.49961e+06
4.49961e+06
4.49962e+06
4.49963e+06
4.49963e+06
4.49964e+06
4.49964e+06
4.49964e+06
4.49965e+06
4.49967e+06
4.49964e+06
4.49964e+06
4.49964e+06
4.49964e+06
4.49964e+06
4.49964e+06
4.49963e+06
4.49964e+06
4.49964e+06
4.49964e+06
4.49964e+06
4.49964e+06
4.49964e+06
4.49964e+06
4.49964e+06
4.49965e+06
4.49966e+06
4.49963e+06
4.49962e+06
4.49963e+06
4.49963e+06
4.49962e+06
4.49963e+06
4.49963e+06
4.49963e+06
4.49963e+06
4.49963e+06
4.49963e+06
4.49964e+06
4.49964e+06
4.49964e+06
4.49964e+06
4.49964e+06
4.49964e+06
4.49964e+06
4.49964e+06
4.49964e+06
4.49964e+06
4.49964e+06
4.49964e+06
4.49964e+06
4.49964e+06
4.49964e+06
4.49964e+06
4.49964e+06
4.49964e+06
4.49964e+06
4.49964e+06
4.49964e+06
4.49964e+06
4.49963e+06
4.49963e+06
4.49963e+06
4.49963e+06
4.49963e+06
4.49963e+06
4.49963e+06
4.49963e+06
4.49963e+06
4.49963e+06
4.49964e+06
4.49964e+06
4.49964e+06
4.49964e+06
4.49964e+06
4.49964e+06
4.49964e+06
4.49964e+06
4.49964e+06
4.49964e+06
4.49964e+06
4.49964e+06
4.49964e+06
4.49964e+06
4.49964e+06
4.49964e+06
4.49964e+06
4.49964e+06
4.49964e+06
4.49964e+06
4.49964e+06
4.49964e+06
4.49964e+06
4.49964e+06
4.49964e+06
4.49964e+06
4.49964e+06
4.49964e+06
4.49964e+06
4.49964e+06
4.49963e+06
4.49963e+06
4.49963e+06
4.49963e+06
4.49963e+06
4.49964e+06
4.49964e+06
4.49964e+06
4.49964e+06
4.49964e+06
4.49964e+06
4.49964e+06
4.49964e+06
4.49964e+06
4.49964e+06
4.49964e+06
4.49964e+06
4.49964e+06
4.49964e+06
4.49964e+06
4.49964e+06
4.49964e+06
4.49964e+06
4.49964e+06
4.49964e+06
4.49964e+06
4.49964e+06
4.49964e+06
4.49964e+06
4.49964e+06
4.49964e+06
4.49964e+06
4.49964e+06
4.49964e+06
4.49963e+06
4.49963e+06
4.49963e+06
4.49963e+06
4.49963e+06
4.49963e+06
4.49963e+06
4.49963e+06
4.49963e+06
4.49963e+06
4.49963e+06
4.49963e+06
4.49963e+06
4.49963e+06
4.49964e+06
4.49964e+06
4.49964e+06
4.49964e+06
4.49964e+06
4.49963e+06
4.49963e+06
4.49963e+06
4.49963e+06
4.49963e+06
4.49963e+06
4.49963e+06
4.49963e+06
4.49963e+06
4.49963e+06
4.49963e+06
4.49963e+06
4.49963e+06
4.49963e+06
4.49963e+06
4.49963e+06
4.49963e+06
4.49963e+06
4.49963e+06
4.49963e+06
4.49963e+06
4.49963e+06
4.49963e+06
4.49963e+06
4.49963e+06
4.49963e+06
4.49963e+06
4.49963e+06
4.49963e+06
4.49963e+06
4.49963e+06
4.49963e+06
4.49963e+06
4.49963e+06
4.49963e+06
4.49963e+06
4.49963e+06
4.49963e+06
4.49963e+06
4.49963e+06
4.49963e+06
4.49963e+06
4.49963e+06
4.49963e+06
4.49963e+06
4.49963e+06
4.49963e+06
4.49963e+06
4.49963e+06
4.49963e+06
4.49963e+06
4.49963e+06
4.49963e+06
4.49963e+06
4.49963e+06
4.49963e+06
4.49963e+06
4.49963e+06
4.49963e+06
4.49963e+06
4.49963e+06
4.49963e+06
4.49963e+06
4.49963e+06
4.49963e+06
4.49963e+06
4.49963e+06
4.49963e+06
4.49963e+06
4.49963e+06
4.49963e+06
4.49963e+06
4.49963e+06
4.49963e+06
4.49963e+06
4.49963e+06
4.49963e+06
4.49963e+06
4.49963e+06
4.49963e+06
4.49963e+06
4.49963e+06
4.49963e+06
4.49963e+06
4.49963e+06
4.49963e+06
4.49963e+06
4.49963e+06
4.49963e+06
4.49963e+06
4.49963e+06
4.49963e+06
4.49963e+06
4.49963e+06
4.49963e+06
4.49962e+06
4.49963e+06
4.49962e+06
4.49962e+06
4.49962e+06
4.49962e+06
4.49962e+06
4.49962e+06
4.49962e+06
4.49962e+06
4.49962e+06
4.49962e+06
4.49962e+06
4.49962e+06
4.49962e+06
4.49962e+06
4.49962e+06
4.49962e+06
4.49962e+06
4.49962e+06
4.49962e+06
4.49962e+06
4.49962e+06
4.49962e+06
4.49962e+06
4.49962e+06
4.49962e+06
4.49962e+06
4.49962e+06
4.49962e+06
4.49962e+06
4.49962e+06
4.49962e+06
4.49962e+06
4.49962e+06
4.49962e+06
4.49962e+06
4.49962e+06
4.49962e+06
4.49962e+06
4.49962e+06
4.49962e+06
4.49962e+06
4.49962e+06
4.49962e+06
4.49962e+06
4.49962e+06
4.49962e+06
4.49962e+06
4.49962e+06
4.49962e+06
4.49962e+06
4.49962e+06
4.49962e+06
4.49962e+06
4.49962e+06
4.49962e+06
4.49962e+06
4.49962e+06
4.49962e+06
4.49962e+06
4.49962e+06
4.49962e+06
4.49962e+06
4.49962e+06
4.49962e+06
4.49962e+06
4.49962e+06
4.49962e+06
4.49962e+06
4.49962e+06
4.49962e+06
4.49962e+06
4.49962e+06
4.49962e+06
4.49962e+06
4.49962e+06
4.49962e+06
4.49962e+06
4.49962e+06
4.49962e+06
4.49962e+06
4.49962e+06
4.49962e+06
4.49962e+06
4.49962e+06
4.49962e+06
4.49962e+06
4.49962e+06
4.49962e+06
4.49962e+06
4.49962e+06
4.49962e+06
4.49962e+06
4.49962e+06
4.49962e+06
4.49962e+06
4.49962e+06
4.49962e+06
4.49961e+06
4.49961e+06
4.49961e+06
4.49961e+06
4.49961e+06
4.49961e+06
4.49961e+06
4.49961e+06
4.49961e+06
4.49961e+06
4.49961e+06
4.49961e+06
4.49961e+06
4.49961e+06
4.49961e+06
4.49961e+06
4.49961e+06
4.49961e+06
4.49961e+06
4.49961e+06
4.49961e+06
4.49961e+06
4.49961e+06
4.49961e+06
4.49961e+06
4.49961e+06
4.49961e+06
4.49961e+06
4.49961e+06
4.49961e+06
4.49961e+06
4.49961e+06
4.49961e+06
4.49961e+06
4.49961e+06
4.49961e+06
4.49961e+06
4.49961e+06
4.49961e+06
4.49961e+06
4.49961e+06
4.49961e+06
4.49961e+06
4.49961e+06
4.49961e+06
4.49961e+06
4.49961e+06
4.49961e+06
4.49961e+06
4.49961e+06
4.49961e+06
4.49961e+06
4.49961e+06
4.49961e+06
4.49961e+06
4.49961e+06
4.49961e+06
4.49961e+06
4.49961e+06
4.49961e+06
4.49961e+06
4.49961e+06
4.49961e+06
4.49961e+06
4.49961e+06
4.49961e+06
4.49961e+06
4.49961e+06
4.49961e+06
4.49961e+06
4.49961e+06
4.49961e+06
4.49961e+06
4.49961e+06
4.49961e+06
4.49961e+06
4.49961e+06
4.49961e+06
4.49961e+06
4.49961e+06
4.49961e+06
4.49961e+06
4.49961e+06
4.49961e+06
4.49961e+06
4.49961e+06
4.49961e+06
4.49961e+06
4.49961e+06
4.49961e+06
4.49961e+06
4.4996e+06
4.4996e+06
4.4996e+06
4.4996e+06
4.4996e+06
4.4996e+06
4.4996e+06
4.4996e+06
4.4996e+06
4.4996e+06
4.4996e+06
4.4996e+06
4.4996e+06
4.4996e+06
4.4996e+06
4.4996e+06
4.4996e+06
4.4996e+06
4.4996e+06
4.4996e+06
4.4996e+06
4.4996e+06
4.4996e+06
4.4996e+06
4.4996e+06
4.4996e+06
4.4996e+06
4.4996e+06
4.4996e+06
4.4996e+06
4.4996e+06
4.4996e+06
4.4996e+06
4.4996e+06
4.4996e+06
4.4996e+06
4.4996e+06
4.4996e+06
4.4996e+06
4.4996e+06
4.4996e+06
4.4996e+06
4.4996e+06
4.4996e+06
4.4996e+06
4.4996e+06
4.4996e+06
4.4996e+06
4.4996e+06
4.4996e+06
4.4996e+06
4.4996e+06
4.4996e+06
4.4996e+06
4.4996e+06
4.4996e+06
4.4996e+06
4.4996e+06
4.4996e+06
4.4996e+06
4.4996e+06
4.4996e+06
4.4996e+06
4.4996e+06
4.4996e+06
4.4996e+06
4.4996e+06
4.4996e+06
4.4996e+06
4.4996e+06
4.4996e+06
4.4996e+06
4.4996e+06
4.4996e+06
4.4996e+06
4.4996e+06
4.4996e+06
4.4996e+06
4.4996e+06
4.4996e+06
4.4996e+06
4.4996e+06
4.4996e+06
4.4996e+06
4.4996e+06
4.4996e+06
4.4996e+06
4.4996e+06
4.4996e+06
4.4996e+06
4.4996e+06
4.4996e+06
4.4996e+06
4.4996e+06
4.4996e+06
4.49959e+06
4.49959e+06
4.49959e+06
4.49959e+06
4.49959e+06
4.49959e+06
4.49959e+06
4.49959e+06
4.49959e+06
4.49959e+06
4.49959e+06
4.49959e+06
4.49959e+06
4.49959e+06
4.49959e+06
4.49959e+06
4.49959e+06
4.49959e+06
4.49959e+06
4.49959e+06
4.49959e+06
4.49959e+06
4.49959e+06
4.49959e+06
4.49959e+06
4.49959e+06
4.49959e+06
4.49959e+06
4.49959e+06
4.49959e+06
4.49959e+06
4.49959e+06
4.49959e+06
4.49959e+06
4.49959e+06
4.49959e+06
4.49959e+06
4.49959e+06
4.49959e+06
4.49959e+06
4.49959e+06
4.49959e+06
4.49959e+06
4.49959e+06
4.49959e+06
4.49959e+06
4.49959e+06
4.49959e+06
4.49959e+06
4.49959e+06
4.49959e+06
4.49959e+06
4.49959e+06
4.49959e+06
4.49959e+06
4.49959e+06
4.49959e+06
4.49959e+06
4.49959e+06
4.49959e+06
4.49959e+06
4.49959e+06
4.49959e+06
4.49959e+06
4.49959e+06
4.49959e+06
4.49959e+06
4.49959e+06
4.49959e+06
4.49959e+06
4.49959e+06
4.49959e+06
4.49959e+06
4.49959e+06
4.49959e+06
4.49959e+06
4.49958e+06
4.49959e+06
4.49958e+06
4.49958e+06
4.49958e+06
4.49958e+06
4.49959e+06
4.49959e+06
4.49959e+06
4.49959e+06
4.49959e+06
4.49959e+06
4.49958e+06
4.49958e+06
4.49958e+06
4.49959e+06
4.49959e+06
4.49959e+06
4.49959e+06
4.49958e+06
4.49958e+06
4.49958e+06
4.49958e+06
4.49958e+06
4.49958e+06
4.49958e+06
4.49958e+06
4.49958e+06
4.49958e+06
4.49958e+06
4.49958e+06
4.49958e+06
4.49958e+06
4.49958e+06
4.49958e+06
4.49958e+06
4.49958e+06
4.49958e+06
3.50419e+06
3.50412e+06
3.504e+06
3.5039e+06
3.50401e+06
3.50424e+06
3.50447e+06
3.50446e+06
3.50192e+06
3.50344e+06
3.50385e+06
3.50378e+06
3.50378e+06
3.50413e+06
3.5044e+06
3.50441e+06
3.50455e+06
3.50444e+06
3.50444e+06
3.50436e+06
3.5043e+06
3.5042e+06
3.50412e+06
3.50221e+06
3.50374e+06
3.50436e+06
3.50466e+06
3.50474e+06
3.50484e+06
3.50484e+06
3.50478e+06
3.50475e+06
3.50465e+06
3.50461e+06
3.50455e+06
3.5045e+06
3.50441e+06
3.50434e+06
3.50254e+06
3.50414e+06
3.50469e+06
3.50483e+06
3.50501e+06
3.50506e+06
3.50501e+06
3.50498e+06
3.50493e+06
3.50487e+06
3.50482e+06
3.50477e+06
3.50472e+06
3.50464e+06
3.50457e+06
3.50271e+06
3.50448e+06
3.50507e+06
3.50527e+06
3.50555e+06
3.50556e+06
3.50547e+06
3.50538e+06
3.50527e+06
3.50518e+06
3.50511e+06
3.50505e+06
3.50498e+06
3.50489e+06
3.50481e+06
3.50384e+06
3.50497e+06
3.50552e+06
3.50572e+06
3.50592e+06
3.50585e+06
3.50578e+06
3.50569e+06
3.50559e+06
3.5055e+06
3.50542e+06
3.50536e+06
3.50528e+06
3.50518e+06
3.50508e+06
3.50398e+06
3.50544e+06
3.50605e+06
3.50624e+06
3.50645e+06
3.50636e+06
3.50629e+06
3.50617e+06
3.50604e+06
3.50592e+06
3.50582e+06
3.50573e+06
3.50563e+06
3.50551e+06
3.5054e+06
3.50492e+06
3.50613e+06
3.50645e+06
3.50675e+06
3.50697e+06
3.50686e+06
3.50678e+06
3.50663e+06
3.50648e+06
3.50634e+06
3.50622e+06
3.50612e+06
3.50601e+06
3.50587e+06
3.50574e+06
3.50519e+06
3.50666e+06
3.50693e+06
3.50725e+06
3.50755e+06
3.50746e+06
3.5074e+06
3.50722e+06
3.50704e+06
3.50687e+06
3.50672e+06
3.50659e+06
3.50644e+06
3.50629e+06
3.50614e+06
3.50567e+06
3.50639e+06
3.50704e+06
3.50746e+06
3.50793e+06
3.50787e+06
3.50785e+06
3.50776e+06
3.50759e+06
3.50742e+06
3.50725e+06
3.50707e+06
3.50691e+06
3.50673e+06
3.50656e+06
3.50605e+06
3.50714e+06
3.50765e+06
3.50799e+06
3.5085e+06
3.5085e+06
3.50853e+06
3.50843e+06
3.50824e+06
3.50805e+06
3.50785e+06
3.50763e+06
3.50744e+06
3.50723e+06
3.50703e+06
3.50747e+06
3.5077e+06
3.50763e+06
3.50829e+06
3.50894e+06
3.50896e+06
3.50906e+06
3.50897e+06
3.5088e+06
3.5086e+06
3.5084e+06
3.50818e+06
3.50797e+06
3.50775e+06
3.50753e+06
3.5081e+06
3.50831e+06
3.50823e+06
3.50893e+06
3.50969e+06
3.50978e+06
3.50992e+06
3.5098e+06
3.50962e+06
3.50938e+06
3.50915e+06
3.50888e+06
3.50863e+06
3.50837e+06
3.50811e+06
3.50879e+06
3.50781e+06
3.50875e+06
3.50936e+06
3.51012e+06
3.51035e+06
3.51058e+06
3.51037e+06
3.51022e+06
3.51e+06
3.50978e+06
3.50953e+06
3.50927e+06
3.50899e+06
3.5087e+06
3.50966e+06
3.50879e+06
3.50977e+06
3.51053e+06
3.51141e+06
3.51158e+06
3.51176e+06
3.51148e+06
3.51128e+06
3.51101e+06
3.51072e+06
3.51043e+06
3.5101e+06
3.50977e+06
3.50944e+06
3.512e+06
3.50992e+06
3.50992e+06
3.51115e+06
3.51218e+06
3.51215e+06
3.51233e+06
3.51208e+06
3.51194e+06
3.5117e+06
3.51145e+06
3.51124e+06
3.51092e+06
3.51058e+06
3.51022e+06
3.51334e+06
3.51223e+06
3.51221e+06
3.51305e+06
3.51392e+06
3.51378e+06
3.51389e+06
3.51358e+06
3.51337e+06
3.51305e+06
3.51271e+06
3.51247e+06
3.51208e+06
3.51169e+06
3.51126e+06
3.50886e+06
3.50979e+06
3.51131e+06
3.51283e+06
3.51388e+06
3.51403e+06
3.51432e+06
3.51426e+06
3.51418e+06
3.514e+06
3.51374e+06
3.51365e+06
3.51327e+06
3.51281e+06
3.51231e+06
3.51089e+06
3.51365e+06
3.51502e+06
3.51561e+06
3.5163e+06
3.5163e+06
3.51651e+06
3.51635e+06
3.51618e+06
3.51587e+06
3.51548e+06
3.5153e+06
3.5148e+06
3.51421e+06
3.51358e+06
3.5147e+06
3.51457e+06
3.51363e+06
3.51489e+06
3.51606e+06
3.51615e+06
3.51661e+06
3.51668e+06
3.51674e+06
3.5166e+06
3.51636e+06
3.51632e+06
3.51589e+06
3.51532e+06
3.51468e+06
3.51871e+06
3.51849e+06
3.5178e+06
3.5188e+06
3.5199e+06
3.51984e+06
3.52017e+06
3.52e+06
3.51986e+06
3.51944e+06
3.51894e+06
3.51864e+06
3.51796e+06
3.51716e+06
3.51632e+06
3.51832e+06
3.51355e+06
3.51755e+06
3.51787e+06
3.51898e+06
3.51934e+06
3.52009e+06
3.52018e+06
3.52034e+06
3.52017e+06
3.5199e+06
3.51976e+06
3.51921e+06
3.51846e+06
3.51763e+06
3.5244e+06
3.52081e+06
3.52534e+06
3.52538e+06
3.52638e+06
3.52606e+06
3.52621e+06
3.52575e+06
3.5254e+06
3.5247e+06
3.52394e+06
3.5233e+06
3.5223e+06
3.52114e+06
3.51994e+06
3.5291e+06
3.52249e+06
3.52269e+06
3.52429e+06
3.52613e+06
3.52456e+06
3.52508e+06
3.52514e+06
3.52535e+06
3.52514e+06
3.52482e+06
3.5245e+06
3.52374e+06
3.52272e+06
3.52158e+06
3.53838e+06
3.53831e+06
3.53994e+06
3.53895e+06
3.53932e+06
3.53634e+06
3.53555e+06
3.53458e+06
3.53377e+06
3.53261e+06
3.53139e+06
3.53015e+06
3.52856e+06
3.52677e+06
3.52497e+06
3.54372e+06
3.52902e+06
3.53282e+06
3.53391e+06
3.53431e+06
3.53341e+06
3.53347e+06
3.53332e+06
3.53343e+06
3.53299e+06
3.53249e+06
3.53159e+06
3.53035e+06
3.52868e+06
3.52695e+06
3.55664e+06
3.55662e+06
3.56326e+06
3.55788e+06
3.55442e+06
3.55187e+06
3.55006e+06
3.54861e+06
3.54708e+06
3.54518e+06
3.54307e+06
3.54064e+06
3.53786e+06
3.55087e+06
3.55236e+06
3.54989e+06
3.54477e+06
3.54234e+06
3.5423e+06
3.5424e+06
3.54324e+06
3.54355e+06
3.5437e+06
3.543e+06
3.54195e+06
3.53985e+06
3.56853e+06
3.58715e+06
3.5884e+06
3.57965e+06
3.57257e+06
3.57173e+06
3.56901e+06
3.56885e+06
3.56645e+06
3.56419e+06
3.56055e+06
3.55692e+06
3.55199e+06
3.56749e+06
3.58968e+06
3.5637e+06
3.55991e+06
3.55319e+06
3.55494e+06
3.55505e+06
3.55954e+06
3.56001e+06
3.56127e+06
3.56017e+06
3.55898e+06
3.5547e+06
3.57294e+06
3.63176e+06
3.59063e+06
3.61523e+06
3.59185e+06
3.59983e+06
3.59824e+06
3.60198e+06
3.59907e+06
3.59573e+06
3.5895e+06
3.58356e+06
3.57439e+06
3.53565e+06
3.61575e+06
3.40141e+06
3.52659e+06
3.52294e+06
3.54197e+06
3.55997e+06
3.57681e+06
3.58307e+06
3.58494e+06
3.58994e+06
3.58862e+06
3.57888e+06
3.61053e+06
3.50088e+06
3.43505e+06
3.59719e+06
3.59732e+06
3.64349e+06
3.65911e+06
3.67309e+06
3.67177e+06
3.65262e+06
3.64058e+06
3.63096e+06
3.61297e+06
3.72043e+06
3.35773e+06
2.89605e+06
3.34598e+06
3.46223e+06
3.50991e+06
3.57569e+06
3.60266e+06
3.63635e+06
3.60444e+06
3.65073e+06
3.63511e+06
3.60546e+06
3.96764e+06
4.00084e+06
3.85906e+06
3.69268e+06
3.68786e+06
3.77641e+06
3.77308e+06
3.81308e+06
3.81012e+06
3.74777e+06
3.72512e+06
3.82748e+06
3.73778e+06
3.93108e+06
4.00121e+06
4.00113e+06
3.66723e+06
3.23482e+06
3.59372e+06
3.64376e+06
4.00043e+06
3.99873e+06
3.42004e+06
3.99384e+06
3.57325e+06
3.69173e+06
4.00066e+06
4.00072e+06
4.00066e+06
4.00032e+06
4.00103e+06
4.00104e+06
4.0004e+06
4.00052e+06
4.00029e+06
4.00029e+06
3.99967e+06
3.93726e+06
3.75721e+06
4.00083e+06
4.00071e+06
4.00065e+06
4.00056e+06
4.00052e+06
4.00055e+06
4.00061e+06
4.00068e+06
4.00074e+06
4.0009e+06
4.00092e+06
4.00084e+06
4.00077e+06
4.00075e+06
4.00072e+06
4.00074e+06
4.0008e+06
4.00088e+06
4.00097e+06
4.00111e+06
4.00094e+06
4.00086e+06
4.00083e+06
4.0008e+06
4.0008e+06
4.00083e+06
4.00088e+06
4.00095e+06
4.00103e+06
4.00114e+06
4.00099e+06
4.00093e+06
4.0009e+06
4.00089e+06
4.00089e+06
4.00091e+06
4.00095e+06
4.00102e+06
4.00111e+06
4.0198e+06
4.02566e+06
4.01777e+06
4.01611e+06
4.01526e+06
4.02013e+06
4.02887e+06
4.0424e+06
4.0576e+06
4.07058e+06
4.07478e+06
4.17037e+06
4.17025e+06
4.16923e+06
4.16874e+06
4.16752e+06
4.16646e+06
4.16509e+06
4.16416e+06
4.16299e+06
4.16339e+06
4.21594e+06
4.22123e+06
4.22085e+06
4.22367e+06
4.2243e+06
4.22453e+06
4.22427e+06
4.22191e+06
4.22056e+06
4.21786e+06
4.3469e+06
4.35726e+06
4.35611e+06
4.35807e+06
4.35501e+06
4.35033e+06
4.34333e+06
4.33397e+06
4.32555e+06
4.31847e+06
4.36609e+06
4.40563e+06
4.41838e+06
4.4331e+06
4.43434e+06
4.42771e+06
4.41445e+06
4.38809e+06
4.36453e+06
4.33044e+06
4.48558e+06
4.52678e+06
4.56195e+06
4.57345e+06
4.57232e+06
4.56117e+06
4.54254e+06
4.51177e+06
4.47807e+06
4.3998e+06
4.48933e+06
4.49751e+06
4.4999e+06
4.49985e+06
4.4998e+06
4.49955e+06
4.49929e+06
4.49876e+06
4.49928e+06
4.48839e+06
4.49738e+06
4.49716e+06
4.49695e+06
4.49689e+06
4.49694e+06
4.49705e+06
4.49726e+06
4.49746e+06
4.49769e+06
4.49792e+06
4.4978e+06
4.49826e+06
4.49845e+06
4.49848e+06
4.49849e+06
4.49828e+06
4.4982e+06
4.49773e+06
4.49775e+06
4.49681e+06
4.49745e+06
4.49741e+06
4.49741e+06
4.49742e+06
4.49745e+06
4.49749e+06
4.49755e+06
4.49758e+06
4.49765e+06
4.4977e+06
4.49808e+06
4.49809e+06
4.49808e+06
4.49804e+06
4.49801e+06
4.49792e+06
4.4979e+06
4.49778e+06
4.49776e+06
4.49765e+06
4.49766e+06
4.49763e+06
4.49764e+06
4.49763e+06
4.49764e+06
4.49766e+06
4.49769e+06
4.49771e+06
4.49772e+06
4.49773e+06
4.498e+06
4.49797e+06
4.49798e+06
4.49795e+06
4.49792e+06
4.49789e+06
4.49789e+06
4.49786e+06
4.49785e+06
4.49783e+06
4.49779e+06
4.49777e+06
4.49781e+06
4.49782e+06
4.49781e+06
4.49781e+06
4.49782e+06
4.49782e+06
4.49782e+06
4.49782e+06
4.49801e+06
4.49798e+06
4.49796e+06
4.49798e+06
4.49797e+06
4.49797e+06
4.49796e+06
4.49795e+06
4.49794e+06
4.49793e+06
4.49793e+06
4.4979e+06
4.49791e+06
4.49795e+06
4.49795e+06
4.49796e+06
4.49795e+06
4.49794e+06
4.49794e+06
4.49794e+06
4.49802e+06
4.49799e+06
4.49802e+06
4.49806e+06
4.49805e+06
4.49806e+06
4.49804e+06
4.49803e+06
4.49803e+06
4.49803e+06
4.498e+06
4.49798e+06
4.498e+06
4.49805e+06
4.49805e+06
4.49807e+06
4.49806e+06
4.49805e+06
4.49805e+06
4.49805e+06
4.49801e+06
4.49802e+06
4.4981e+06
4.49812e+06
4.49813e+06
4.49815e+06
4.49813e+06
4.49813e+06
4.49812e+06
4.49812e+06
4.49802e+06
4.49805e+06
4.49814e+06
4.49816e+06
4.49816e+06
4.49818e+06
4.49816e+06
4.49816e+06
4.49816e+06
4.49816e+06
4.49812e+06
4.49812e+06
4.49818e+06
4.49821e+06
4.49821e+06
4.49822e+06
4.49822e+06
4.49822e+06
4.49822e+06
4.49822e+06
4.49814e+06
4.49815e+06
4.49823e+06
4.49826e+06
4.49826e+06
4.49826e+06
4.49826e+06
4.49825e+06
4.49825e+06
4.49825e+06
4.4982e+06
4.4982e+06