/*--------------------------------*- C++ -*----------------------------------*\
| =========                 |                                                 |
| \\      /  F ield         | OpenFOAM: The Open Source CFD Toolbox           |
|  \\    /   O peration     | Version:  v2012                                 |
|   \\  /    A nd           | Website:  www.openfoam.com                      |
|    \\/     M anipulation  |                                                 |
\*---------------------------------------------------------------------------*/
FoamFile
{
    version     2.0;
    format      ascii;
    class       surfaceScalarField;
    location    "1";
    object      phi;
}
// * * * * * * * * * * * * * * * * * * * * * * * * * * * * * * * * * * * * * //

dimensions      [0 3 -1 0 0 0 0];
oriented        oriented;


internalField   nonuniform List<scalar> 
8048
(
2.20993e-13
-3.04705e-12
-2.81797e-17
1.30895e-12
-1.58207e-11
5.11604e-16
3.7439e-12
-3.6474e-11
1.13382e-15
7.92792e-12
-6.40757e-11
1.10338e-15
1.42418e-11
-9.83506e-11
1.56612e-15
2.30711e-11
-1.39261e-10
5.00836e-15
3.4815e-11
-1.86834e-10
8.1597e-15
-2.41312e-10
2.52068e-14
2.46251e-13
-3.29346e-12
-2.19225e-17
1.44977e-12
-1.70245e-11
1.892e-17
4.13383e-12
-3.91591e-11
2.45638e-17
8.74132e-12
-6.86882e-11
-4.54235e-16
1.56621e-11
-1.05305e-10
-3.85439e-15
2.53145e-11
-1.4893e-10
-1.81524e-15
3.8063e-11
-1.99587e-10
-2.28532e-16
5.41324e-11
-2.57373e-10
1.05033e-15
7.41998e-11
-3.22197e-10
1.39729e-14
9.81241e-11
-3.94225e-10
1.42122e-14
1.26391e-10
-4.73132e-10
2.78876e-14
1.58938e-10
-5.58823e-10
1.85522e-14
1.96053e-10
-6.51018e-10
2.95745e-14
2.37542e-10
-7.49166e-10
1.63833e-14
-8.52803e-10
2.84829e-14
2.76195e-13
-3.56959e-12
1.0735e-17
1.61638e-12
-1.83656e-11
-6.78829e-17
4.58933e-12
-4.21435e-11
-1.28048e-15
9.69067e-12
-7.37994e-11
-9.53631e-16
1.73593e-11
-1.12986e-10
-1.10947e-15
2.80322e-11
-1.59607e-10
3.68279e-19
4.20936e-11
-2.13658e-10
-6.13411e-16
5.98892e-11
-2.75182e-10
-8.65112e-16
8.17947e-11
-3.44097e-10
1.72174e-15
1.07992e-10
-4.20439e-10
-8.09375e-16
1.38805e-10
-5.03928e-10
4.44912e-15
1.74274e-10
-5.94336e-10
-3.22443e-15
2.14603e-10
-6.91311e-10
6.01006e-15
2.59602e-10
-7.94191e-10
4.09403e-16
-9.02405e-10
2.34759e-14
3.0842e-13
-3.87858e-12
-6.79638e-17
1.79898e-12
-1.98575e-11
-1.15935e-16
5.10333e-12
-4.54533e-11
-5.05523e-16
1.07519e-11
-7.94602e-11
-1.1854e-15
1.9248e-11
-1.21485e-10
6.79105e-17
3.10394e-11
-1.71397e-10
6.22351e-16
4.65248e-11
-2.29166e-10
-1.90215e-15
6.61166e-11
-2.94783e-10
-3.12009e-16
9.01562e-11
-3.68155e-10
-1.41147e-15
1.18912e-10
-4.49213e-10
-1.18153e-15
1.52626e-10
-5.3765e-10
1.20438e-15
1.91383e-10
-6.33112e-10
-6.31537e-16
2.35306e-10
-7.3519e-10
6.91871e-15
2.84178e-10
-8.43092e-10
-3.22314e-16
-9.5613e-10
2.15737e-14
3.48141e-13
-4.22729e-12
-6.06873e-17
2.01771e-12
-2.15291e-11
-2.0711e-16
5.70466e-12
-4.9148e-11
-7.93446e-16
1.1991e-11
-8.57596e-11
-1.27174e-15
2.14316e-11
-1.30917e-10
1.44569e-15
3.44992e-11
-1.84449e-10
2.5189e-15
5.16392e-11
-2.46293e-10
2.31524e-15
7.32801e-11
-3.16402e-10
3.63101e-15
9.97523e-11
-3.94621e-10
1.77657e-15
1.3136e-10
-4.80817e-10
1.7983e-15
1.68304e-10
-5.74594e-10
2.07187e-15
2.10682e-10
-6.75504e-10
2.72386e-16
2.58544e-10
-7.83031e-10
3.99008e-15
3.11651e-10
-8.96241e-10
-1.42533e-15
-1.01432e-09
1.87343e-14
3.91976e-13
-4.61925e-12
1.89135e-18
2.26095e-12
-2.33979e-11
1.08473e-16
6.37591e-12
-5.32672e-11
-3.34372e-16
1.33745e-11
-9.27705e-11
-1.13409e-15
2.38696e-11
-1.41401e-10
1.89776e-15
3.83587e-11
-1.98942e-10
3.33653e-16
5.73475e-11
-2.65281e-10
1.03504e-15
8.12671e-11
-3.40321e-10
1.18243e-15
1.10472e-10
-4.23837e-10
1.35439e-17
1.45265e-10
-5.15622e-10
-1.37223e-16
1.85829e-10
-6.15173e-10
9.5317e-16
2.3224e-10
-7.21933e-10
-8.13165e-17
2.84484e-10
-8.35259e-10
4.0229e-15
3.42261e-10
-9.54065e-10
-2.45086e-15
-1.07739e-09
1.86219e-14
4.45723e-13
-5.06506e-12
-4.19318e-18
2.55312e-12
-2.5506e-11
1.19228e-17
7.17468e-12
-5.78935e-11
-3.79523e-16
1.50126e-11
-1.00622e-10
-1.23738e-15
2.67323e-11
-1.5311e-10
1.97758e-15
4.28706e-11
-2.15084e-10
4.14363e-16
6.39801e-11
-2.86378e-10
2.62658e-15
9.05006e-11
-3.66828e-10
2.89924e-15
1.22809e-10
-4.56132e-10
2.98684e-15
1.6119e-10
-5.53992e-10
2.95044e-15
2.05804e-10
-6.59778e-10
3.67338e-15
2.56696e-10
-7.72818e-10
3.25267e-15
3.13771e-10
-8.92303e-10
5.51304e-15
3.76671e-10
-1.017e-09
1.31851e-16
-1.14575e-09
1.79258e-14
5.02439e-13
-5.56896e-12
-1.66349e-16
2.87112e-12
-2.78756e-11
-1.24511e-17
8.05055e-12
-6.30782e-11
-3.63831e-16
1.68212e-11
-1.09401e-10
-5.51468e-16
2.99062e-11
-1.6618e-10
2.50543e-15
4.78934e-11
-2.33072e-10
8.58397e-16
7.13833e-11
-3.09849e-10
3.54929e-15
1.00822e-10
-3.96263e-10
1.9953e-15
1.36612e-10
-4.91914e-10
2.7746e-15
1.7902e-10
-5.96395e-10
2.2844e-15
2.2817e-10
-7.08933e-10
2.73019e-15
2.84072e-10
-8.28705e-10
3.79499e-15
3.46522e-10
-9.54731e-10
5.59141e-15
4.15091e-10
-1.08558e-09
1.24173e-15
-1.21993e-09
1.73024e-14
5.76779e-13
-6.14728e-12
-1.67465e-16
3.2695e-12
-3.05688e-11
7.3032e-17
9.12877e-12
-6.8942e-11
-2.59362e-16
1.90155e-11
-1.19297e-10
-5.32779e-16
3.37163e-11
-1.80867e-10
2.39855e-15
5.38709e-11
-2.53227e-10
1.25588e-15
8.01251e-11
-3.36066e-10
5.79326e-15
1.12926e-10
-4.29058e-10
2.40003e-15
1.52687e-10
-5.31664e-10
3.09307e-15
1.9965e-10
-6.43361e-10
2.04397e-15
2.53892e-10
-7.63197e-10
8.78322e-16
3.15349e-10
-8.90157e-10
3.48904e-15
3.83714e-10
-1.0231e-09
2.32317e-15
4.58472e-10
-1.16035e-09
3.26476e-15
-1.30037e-09
1.7941e-14
6.58009e-13
-6.80411e-12
1.68006e-16
3.70168e-12
-3.3612e-11
1.8753e-16
1.02995e-11
-7.55505e-11
-9.00288e-16
2.14089e-11
-1.30421e-10
-1.0711e-15
3.79117e-11
-1.97347e-10
3.67547e-15
6.04756e-11
-2.75804e-10
-3.07387e-16
8.9799e-11
-3.65385e-10
2.3141e-15
1.26399e-10
-4.65628e-10
5.90392e-15
1.7063e-10
-5.75875e-10
4.7996e-15
2.22721e-10
-6.95427e-10
5.69616e-15
2.82734e-10
-8.23149e-10
1.02962e-14
3.50405e-10
-9.57824e-10
3.4198e-15
4.25411e-10
-1.09807e-09
8.83114e-15
5.07031e-10
-1.24195e-09
6.06839e-15
-1.38772e-09
2.08094e-14
7.62982e-13
-7.56611e-12
1.58461e-16
4.25486e-12
-3.71024e-11
3.67372e-16
1.17827e-11
-8.30841e-11
-2.81178e-16
2.44029e-11
-1.43053e-10
-7.50608e-16
4.30706e-11
-2.15999e-10
3.04868e-15
6.85176e-11
-3.01266e-10
-2.34421e-16
1.01484e-10
-3.98334e-10
4.07518e-15
1.4248e-10
-5.06596e-10
5.94158e-15
1.91851e-10
-6.25225e-10
4.81203e-15
2.49774e-10
-7.53334e-10
5.39413e-15
3.16228e-10
-8.89556e-10
8.812e-15
3.9083e-10
-1.03243e-09
3.72742e-15
4.73115e-10
-1.18032e-09
7.30111e-15
5.62194e-10
-1.33102e-09
7.0242e-15
-1.4825e-09
1.69908e-14
8.69725e-13
-8.43655e-12
-3.77996e-17
4.8361e-12
-4.10669e-11
4.32872e-16
1.33586e-11
-9.16155e-11
-5.25302e-16
2.76214e-11
-1.57326e-10
-2.1943e-16
4.86737e-11
-2.37032e-10
3.61646e-15
7.73137e-11
-3.29925e-10
-4.60571e-16
1.14352e-10
-4.35346e-10
5.39978e-15
1.60281e-10
-5.52508e-10
4.93556e-15
2.15453e-10
-6.8038e-10
5.18489e-15
2.79966e-10
-8.17839e-10
4.39097e-15
3.53701e-10
-9.63256e-10
8.5451e-15
4.3613e-10
-1.11486e-09
2.84613e-15
5.26585e-10
-1.27076e-09
7.40192e-15
6.23963e-10
-1.42838e-09
5.14142e-15
-1.58547e-09
1.43488e-14
1.02246e-12
-9.4591e-12
6.1768e-17
5.62093e-12
-4.56631e-11
5.33604e-16
1.54329e-11
-1.0144e-10
-9.50282e-16
3.17731e-11
-1.73682e-10
-8.74021e-16
5.57818e-11
-2.61029e-10
2.73995e-15
8.83152e-11
-3.62491e-10
-1.92002e-15
1.30222e-10
-4.77234e-10
4.84183e-15
1.81967e-10
-6.04232e-10
6.12198e-15
2.43867e-10
-7.42239e-10
7.97785e-15
3.15906e-10
-8.8985e-10
7.80348e-15
3.97827e-10
-1.04512e-09
1.11741e-14
4.88936e-10
-1.20595e-09
6.94301e-15
5.88313e-10
-1.37011e-09
7.27934e-15
6.9463e-10
-1.53468e-09
9.17537e-15
-1.69708e-09
1.25849e-14
1.17669e-12
-1.06329e-11
3.8863e-16
6.42321e-12
-5.09115e-11
1.75191e-16
1.75928e-11
-1.12625e-10
-9.28737e-16
3.61398e-11
-1.9226e-10
-2.58502e-15
6.33555e-11
-2.88239e-10
2.66768e-15
1.00174e-10
-3.9934e-10
-9.33789e-16
1.47521e-10
-5.24519e-10
1.03286e-14
2.05752e-10
-6.62491e-10
2.08312e-16
2.75241e-10
-8.11705e-10
6.91359e-15
3.55808e-10
-9.70406e-10
5.59605e-15
4.47014e-10
-1.13629e-09
9.05114e-15
5.47972e-10
-1.30687e-09
9.25101e-15
6.57414e-10
-1.47952e-09
1.0498e-14
7.73709e-10
-1.65094e-09
8.15816e-15
-1.81823e-09
1.29574e-14
1.40286e-12
-1.20321e-11
5.1974e-16
7.56094e-12
-5.70716e-11
2.40721e-16
2.05602e-11
-1.25646e-10
-1.74409e-15
4.2022e-11
-2.13762e-10
-3.55577e-15
7.33499e-11
-3.19564e-10
2.49766e-15
1.15518e-10
-4.41547e-10
-1.51006e-15
1.69468e-10
-5.78411e-10
1.01267e-14
2.35492e-10
-7.28534e-10
2.16229e-15
3.13868e-10
-8.90027e-10
1.06323e-14
4.04218e-10
-1.06073e-09
9.11436e-15
5.05856e-10
-1.2379e-09
8.26119e-15
6.17673e-10
-1.41865e-09
9.86409e-15
7.37989e-10
-1.59987e-09
9.18083e-17
8.64872e-10
-1.77786e-09
2.77572e-15
-1.94935e-09
3.21205e-15
1.61504e-12
-1.36466e-11
1.71807e-16
8.68186e-12
-6.41393e-11
4.50004e-16
2.35497e-11
-1.40545e-10
-2.47634e-15
4.80532e-11
-2.38309e-10
-3.31176e-15
8.37685e-11
-3.55259e-10
5.13878e-15
1.31728e-10
-4.89549e-10
-1.77481e-15
1.92955e-10
-6.39574e-10
1.16729e-14
2.67664e-10
-8.03276e-10
6.35047e-16
3.56043e-10
-9.78367e-10
9.96297e-15
4.57499e-10
-1.16216e-09
8.02055e-15
5.70986e-10
-1.35144e-09
1.44017e-15
6.95224e-10
-1.54273e-09
2.27695e-14
8.27869e-10
-1.73252e-09
8.57244e-15
9.66633e-10
-1.91658e-09
8.79939e-15
-2.09137e-09
1.29639e-14
1.95643e-12
-1.56024e-11
2.22819e-16
1.03651e-11
-7.25472e-11
8.16047e-16
2.78967e-11
-1.58093e-10
-6.23525e-16
5.658e-11
-2.67023e-10
-1.38911e-15
9.81009e-11
-3.96757e-10
5.73503e-15
1.53534e-10
-5.45018e-10
-1.95157e-16
2.23854e-10
-7.09822e-10
1.29858e-14
3.09138e-10
-8.88608e-10
2.56425e-17
4.09366e-10
-1.07857e-09
7.76e-15
5.23618e-10
-1.27645e-09
1.47745e-15
6.50388e-10
-1.47845e-09
-2.45042e-14
7.88171e-10
-1.68051e-09
7.22736e-15
9.33906e-10
-1.87854e-09
-2.81642e-14
1.08493e-09
-2.06773e-09
-4.99427e-15
-2.24426e-09
2.53823e-14
2.26889e-12
-1.78669e-11
7.18262e-16
1.19606e-11
-8.22349e-11
1.35248e-15
3.2099e-11
-1.7827e-10
-2.7721e-15
6.50077e-11
-2.99959e-10
-5.87786e-16
1.12555e-10
-4.44288e-10
5.74103e-15
1.75927e-10
-6.08425e-10
4.78459e-16
2.56083e-10
-7.8995e-10
8.64097e-15
3.53091e-10
-9.85586e-10
9.52617e-15
4.66587e-10
-1.19201e-09
1.39576e-14
5.95392e-10
-1.40512e-09
2.19776e-14
7.37366e-10
-1.62053e-09
-3.88304e-15
8.90728e-10
-1.83334e-09
6.77749e-14
1.05154e-09
-2.03903e-09
5.04163e-14
1.21636e-09
-2.23222e-09
4.42252e-14
-2.40881e-09
8.87492e-14
2.79542e-12
-2.06585e-11
7.28916e-16
1.45024e-11
-9.39358e-11
1.86207e-15
3.85815e-11
-2.02356e-10
1.25652e-15
7.75832e-11
-3.38961e-10
3.25565e-15
1.33481e-10
-5.00167e-10
6.45788e-15
2.07461e-10
-6.82431e-10
2.47595e-15
3.00331e-10
-8.82792e-10
8.64267e-15
4.11871e-10
-1.09712e-09
8.43368e-15
5.41327e-10
-1.32144e-09
9.90941e-15
6.86957e-10
-1.5507e-09
1.51221e-14
8.45938e-10
-1.77982e-09
-3.01851e-14
1.01599e-09
-2.00303e-09
5.36958e-14
1.19231e-09
-2.21527e-09
1.77041e-14
1.37076e-09
-2.41057e-09
2.55132e-14
-2.58464e-09
8.34612e-14
3.23354e-12
-2.38944e-11
5.9488e-17
1.67513e-11
-1.07444e-10
2.5058e-15
4.45013e-11
-2.30121e-10
1.14667e-15
8.93941e-11
-3.83866e-10
2.64049e-15
1.53688e-10
-5.64448e-10
6.72163e-15
2.38646e-10
-7.67418e-10
2.33368e-15
3.45087e-10
-9.89201e-10
1.09924e-14
4.7249e-10
-1.22453e-09
6.79542e-15
6.19739e-10
-1.46867e-09
1.12134e-14
7.8443e-10
-1.71534e-09
1.26664e-14
9.62936e-10
-1.9587e-09
-3.37398e-14
1.15221e-09
-2.19183e-09
5.95083e-14
1.3463e-09
-2.40927e-09
2.70237e-14
1.5402e-09
-2.60434e-09
2.15685e-14
-2.77274e-09
9.59422e-14
4.05616e-12
-2.79502e-11
5.61892e-16
2.06443e-11
-1.24022e-10
2.99732e-15
5.42904e-11
-2.63791e-10
2.52253e-16
1.08212e-10
-4.37808e-10
2.62736e-15
1.84762e-10
-6.40996e-10
6.00519e-15
2.85046e-10
-8.6774e-10
2.7494e-15
4.09568e-10
-1.1137e-09
9.51644e-15
5.57208e-10
-1.37218e-09
7.70898e-15
7.2615e-10
-1.63758e-09
1.02849e-14
9.1302e-10
-1.90218e-09
1.50509e-14
1.11321e-09
-2.15926e-09
-3.91858e-14
1.3226e-09
-2.40079e-09
6.17618e-14
1.53421e-09
-2.62083e-09
1.42331e-14
1.74213e-09
-2.81217e-09
2.36026e-14
-2.97065e-09
8.65574e-14
4.69291e-12
-3.26288e-11
2.07466e-15
2.38218e-11
-1.43148e-10
3.10408e-15
6.26631e-11
-3.02656e-10
1.89294e-15
1.24836e-10
-5.00075e-10
-6.72391e-15
2.13236e-10
-7.29378e-10
9.92415e-15
3.2889e-10
-9.83436e-10
2.48572e-15
4.72202e-10
-1.257e-09
1.1132e-14
6.41525e-10
-1.5415e-09
9.04862e-15
8.3432e-10
-1.83035e-09
1.37475e-14
1.04613e-09
-2.11393e-09
1.36206e-14
1.27113e-09
-2.38463e-09
-3.21865e-14
1.50377e-09
-2.63299e-09
5.53128e-14
1.73567e-09
-2.85269e-09
2.17424e-14
1.95961e-09
-3.03603e-09
1.50303e-14
-3.17931e-09
9.3798e-14
5.96287e-12
-3.85744e-11
2.75181e-15
2.98128e-11
-1.66998e-10
3.34835e-15
7.76614e-11
-3.50547e-10
-1.47011e-18
1.53492e-10
-5.76029e-10
-8.61876e-15
2.60238e-10
-8.36122e-10
8.01023e-15
3.98451e-10
-1.12168e-09
6.38315e-15
5.67864e-10
-1.4264e-09
9.34744e-15
7.65718e-10
-1.73935e-09
1.19812e-14
9.88162e-10
-2.05277e-09
8.98548e-15
1.22915e-09
-2.35489e-09
1.63178e-14
1.48123e-09
-2.63708e-09
-3.92276e-14
1.7372e-09
-2.88855e-09
6.023e-14
1.98731e-09
-3.10276e-09
1.13573e-14
2.22324e-09
-3.27191e-09
2.19015e-14
-3.39308e-09
7.64169e-14
6.78746e-12
-4.53624e-11
8.28979e-16
3.42148e-11
-1.94426e-10
4.01207e-15
8.94464e-11
-4.05852e-10
-2.03315e-15
1.77141e-10
-6.6385e-10
-7.58474e-15
3.00871e-10
-9.59694e-10
2.97401e-14
4.60655e-10
-1.28159e-09
-7.51973e-15
6.56248e-10
-1.62201e-09
7.8619e-15
8.83762e-10
-1.96683e-09
1.237e-14
1.13804e-09
-2.30706e-09
1.11451e-14
1.4113e-09
-2.6281e-09
1.10597e-14
1.69409e-09
-2.92025e-09
-3.20105e-14
1.97708e-09
-3.17117e-09
4.49185e-14
2.24856e-09
-3.37423e-09
1.93539e-14
2.49857e-09
-3.52189e-09
5.52873e-15
-3.61257e-09
7.95771e-14
8.7495e-12
-5.41122e-11
1.32093e-15
4.35393e-11
-2.29223e-10
4.40729e-15
1.12839e-10
-4.75162e-10
6.17492e-15
2.21621e-10
-7.72701e-10
8.96333e-16
3.73235e-10
-1.11112e-09
3.30808e-14
5.66726e-10
-1.47518e-09
-2.49465e-15
8.00445e-10
-1.85583e-09
-5.88568e-15
1.06854e-09
-2.23499e-09
3.21581e-15
1.36338e-09
-2.60213e-09
-2.39127e-14
1.67464e-09
-2.93955e-09
-8.32783e-15
1.99012e-09
-3.23628e-09
-6.61886e-14
2.29807e-09
-3.47897e-09
3.04706e-14
2.58499e-09
-3.66115e-09
5.17334e-16
2.8398e-09
-3.77672e-09
1.67496e-14
-3.826e-09
6.28267e-14
9.91892e-12
-6.4012e-11
4.19622e-15
4.98331e-11
-2.6912e-10
7.9761e-15
1.29837e-10
-5.55228e-10
1.64725e-15
2.55739e-10
-8.98621e-10
6.8185e-15
4.31383e-10
-1.2867e-09
1.80623e-14
6.55566e-10
-1.69924e-09
2.19477e-14
9.25573e-10
-2.1258e-09
1.53314e-14
1.23383e-09
-2.54308e-09
2.39662e-14
1.57051e-09
-2.93861e-09
3.7158e-14
1.92241e-09
-3.29128e-09
2.05163e-14
2.27436e-09
-3.58801e-09
4.31065e-14
2.61106e-09
-3.81544e-09
2.2787e-14
2.91677e-09
-3.9664e-09
7.34399e-14
3.17827e-09
-2.19941e-14
6.48555e-14
1.31021e-11
-7.7095e-11
5.01137e-15
6.47769e-11
-3.20798e-10
7.00612e-15
1.6701e-10
-6.5736e-10
2.07747e-14
3.25747e-10
-1.05722e-09
2.60088e-14
5.43984e-10
-1.50482e-09
2.14369e-14
8.18836e-10
-1.97394e-09
2.69584e-14
1.14475e-09
-2.45179e-09
-7.52001e-15
1.51092e-09
-2.90925e-09
1.2728e-14
1.90286e-09
-3.33057e-09
-6.51613e-15
2.30335e-09
-3.69189e-09
1.20567e-15
2.69218e-09
-3.97678e-09
-2.01659e-15
3.05116e-09
-4.17452e-09
5.7679e-15
-4.27672e-09
2.0978e-14
1.47419e-11
-9.18826e-11
-2.19924e-15
7.38293e-11
-3.79925e-10
2.30652e-15
1.9173e-10
-7.7516e-10
2.00036e-14
3.74828e-10
-1.24021e-09
1.76171e-14
6.27157e-10
-1.75721e-09
-1.75694e-15
9.44527e-10
-2.29109e-09
2.33683e-14
1.3196e-09
-2.82697e-09
-8.75098e-15
1.73895e-09
-3.32856e-09
-3.88728e-15
2.18354e-09
-3.77525e-09
-2.21128e-15
2.63314e-09
-4.14154e-09
-2.41055e-14
3.06082e-09
-4.40445e-09
1.8198e-14
3.44582e-09
-4.55949e-09
-2.42293e-14
-4.59467e-09
7.66236e-14
1.99503e-11
-1.11854e-10
9.59033e-16
9.78541e-11
-4.57897e-10
-2.437e-15
2.5039e-10
-9.27373e-10
4.14192e-14
4.84091e-10
-1.47362e-09
3.16245e-14
8.00549e-10
-2.07368e-09
-8.01745e-15
1.19332e-09
-2.68366e-09
2.40032e-14
1.64948e-09
-3.28347e-09
-5.54153e-14
2.15135e-09
-3.83069e-09
-2.79609e-14
2.67073e-09
-4.29494e-09
-6.98868e-14
3.18058e-09
-4.65195e-09
-5.14737e-14
3.64484e-09
-4.86904e-09
-8.33696e-14
4.03966e-09
-4.95482e-09
-4.15799e-14
-4.89172e-09
-1.88461e-14
2.24064e-11
-1.3439e-10
-1.29344e-14
1.11064e-10
-5.46556e-10
-2.77057e-15
2.85996e-10
-1.10191e-09
3.24296e-14
5.52765e-10
-1.73981e-09
5.31847e-14
9.15279e-10
-2.43612e-09
-3.20395e-15
1.36394e-09
-3.13178e-09
3.2522e-14
1.88217e-09
-3.80183e-09
-4.11026e-14
2.44992e-09
-4.3982e-09
-1.87214e-14
3.03042e-09
-4.87515e-09
2.91936e-14
3.59483e-09
-5.21621e-09
-4.0664e-14
4.09482e-09
-5.36848e-09
7.73179e-14
4.5041e-09
-5.36378e-09
-4.19335e-14
-5.17057e-09
2.03652e-13
3.06331e-11
-1.64995e-10
-6.38052e-16
1.48233e-10
-6.64128e-10
-3.16943e-14
3.72843e-10
-1.32634e-09
-6.89113e-14
7.14639e-10
-2.08121e-09
2.07249e-14
1.16672e-09
-2.8884e-09
-5.65232e-14
1.7216e-09
-3.68641e-09
-3.59416e-14
2.3541e-09
-4.43473e-09
-1.61467e-13
3.03818e-09
-5.0827e-09
-1.31807e-13
3.72321e-09
-5.56027e-09
-1.38045e-13
4.361e-09
-5.85483e-09
-9.17583e-14
4.89007e-09
-5.89777e-09
-1.56195e-13
5.27836e-09
-5.7529e-09
-8.33678e-14
-5.37568e-09
1.34768e-15
3.45566e-11
-1.99302e-10
2.5089e-15
1.68154e-10
-7.94194e-10
-8.65193e-14
4.2129e-10
-1.57997e-09
-3.0947e-13
7.99202e-10
-2.45951e-09
-6.27856e-14
1.30413e-09
-3.39348e-09
-1.44586e-13
1.92213e-09
-4.30416e-09
-2.73813e-13
2.6175e-09
-5.1314e-09
-1.5295e-13
3.36695e-09
-5.83231e-09
-2.65161e-13
4.11005e-09
-6.30316e-09
-3.91218e-13
4.79483e-09
-6.54059e-09
-1.35361e-14
5.36139e-09
-6.4636e-09
-3.93632e-14
5.75334e-09
-6.14539e-09
1.34396e-14
-5.5155e-09
3.64909e-13
4.59202e-11
-2.44791e-10
-2.01355e-16
2.17505e-10
-9.63888e-10
4.05349e-14
5.3234e-10
-1.89524e-09
-2.21032e-13
1.01121e-09
-2.93835e-09
-3.29511e-14
1.61412e-09
-3.99674e-09
-1.43995e-13
2.34664e-09
-5.03554e-09
3.14053e-13
3.1927e-09
-5.97902e-09
-2.67544e-13
4.10819e-09
-6.74811e-09
-1.12479e-13
5.03397e-09
-7.22901e-09
-3.69699e-13
5.82718e-09
-7.33397e-09
-4.56136e-13
6.39458e-09
-7.02806e-09
4.9166e-13
6.70339e-09
-6.45218e-09
-3.23994e-14
-5.4854e-09
1.63409e-12
5.24531e-11
-2.96059e-10
3.95026e-14
2.33461e-10
-1.13736e-09
-2.25114e-13
5.75482e-10
-2.23669e-09
-2.88846e-13
1.06229e-09
-3.42626e-09
2.19056e-14
1.69723e-09
-4.63071e-09
1.67695e-13
2.47551e-09
-5.79717e-09
7.45084e-12
3.3349e-09
-6.83517e-09
2.44722e-12
4.24989e-09
-7.66097e-09
-1.05392e-12
5.18204e-09
-8.15677e-09
2.7954e-12
5.91792e-09
-8.07242e-09
-1.3904e-12
6.66866e-09
-7.77214e-09
-5.10254e-12
7.08686e-09
-6.40425e-09
-2.34833e-10
-5.1804e-09
-4.92672e-11
4.68429e-11
-3.42865e-10
-1.02342e-13
2.46933e-10
-1.33604e-09
-1.43771e-13
6.3139e-10
-2.59446e-09
-1.07203e-12
1.24414e-09
-4.03703e-09
1.03312e-14
1.84372e-09
-5.2274e-09
-4.47145e-14
2.56814e-09
-6.51628e-09
2.04624e-12
3.62661e-09
-7.88632e-09
1.27913e-12
4.90906e-09
-8.924e-09
-1.02444e-11
6.38248e-09
-9.60543e-09
-1.30807e-11
7.3908e-09
-9.0852e-09
-5.78811e-13
7.65684e-09
-8.02249e-09
-1.01817e-11
8.04444e-09
-5.17183e-09
-8.04666e-10
-3.81582e-09
-5.16077e-10
7.52993e-12
-3.4614e-10
-8.56746e-14
8.42386e-11
-1.42164e-09
-4.32266e-13
3.464e-10
-2.79319e-09
-4.88178e-13
8.06038e-10
-4.42414e-09
-5.1431e-12
1.45632e-09
-5.86536e-09
7.5319e-12
2.3975e-09
-7.35612e-09
4.2543e-11
3.33889e-09
-8.73768e-09
1.84865e-11
4.56259e-09
-9.56903e-09
-2.9232e-10
5.73221e-09
-9.86313e-09
-4.54995e-10
5.74621e-09
-9.02889e-09
-3.02231e-11
8.15035e-09
-6.06414e-09
-9.62731e-10
7.42287e-09
-3.79284e-09
-2.63724e-10
-2.22653e-09
-1.20086e-10
6.09121e-11
-2.78363e-10
-3.70866e-14
1.83859e-10
-1.16523e-09
-7.92954e-14
4.96352e-10
-2.35979e-09
3.34906e-13
1.29563e-09
-3.71191e-09
-2.78538e-13
9.39527e-10
-5.19825e-09
-1.92621e-13
4.85763e-10
-6.47907e-09
5.02112e-13
1.79584e-09
-7.24677e-09
8.81274e-13
3.24203e-09
-7.4519e-09
-3.74818e-13
5.64236e-09
-6.8173e-09
-2.00195e-12
7.78611e-09
-4.87e-09
-3.27931e-12
7.803e-09
-8.45117e-11
6.29439e-09
-1.12622e-09
-2.23478e-10
2.0126e-11
-2.12617e-10
6.09276e-14
9.13617e-11
-8.60529e-10
1.3775e-13
2.225e-10
-1.72623e-09
4.04047e-14
4.98057e-10
-2.69043e-09
3.1109e-14
8.63613e-10
-3.70543e-09
-4.81506e-13
1.16922e-09
-4.50944e-09
2.00841e-13
1.38287e-09
-4.91418e-09
8.47892e-13
1.4511e-09
-4.77563e-09
1.30042e-12
1.29559e-09
-3.84648e-09
1.83886e-12
-1.77875e-09
1.44569e-12
1.49853e-11
-1.77098e-10
-6.72321e-15
6.70346e-11
-6.88983e-10
2.67672e-14
1.58668e-10
-1.34834e-09
6.12605e-14
2.99723e-10
-2.06834e-09
2.74527e-14
4.81713e-10
-2.75913e-09
2.9492e-14
6.53822e-10
-3.30408e-09
-6.2906e-14
7.35352e-10
-3.54899e-09
1.52898e-13
6.585e-10
-3.34725e-09
3.19416e-14
3.65842e-10
-2.54994e-09
6.57204e-14
-1.05507e-09
4.32235e-14
9.43767e-12
-1.61356e-10
1.22287e-15
4.14844e-11
-6.03243e-10
1.29299e-15
9.43409e-11
-1.15416e-09
2.57231e-14
1.65344e-10
-1.74354e-09
3.68315e-14
2.4569e-10
-2.29466e-09
1.92527e-14
3.15292e-10
-2.7152e-09
4.77931e-14
3.40939e-10
-2.89145e-09
5.70561e-14
2.87563e-10
-2.7031e-09
8.35584e-14
1.39385e-10
-2.03531e-09
3.55176e-14
-8.13338e-10
1.95462e-14
5.16637e-12
-1.59533e-10
-1.77495e-15
2.15695e-11
-5.82182e-10
2.3035e-15
4.57286e-11
-1.09603e-09
6.08806e-15
7.40726e-11
-1.63853e-09
1.45967e-14
1.00921e-10
-2.14161e-09
2.01891e-14
1.1812e-10
-2.52389e-09
1.28145e-14
1.14809e-10
-2.68946e-09
2.51866e-14
7.76014e-11
-2.53076e-09
1.27021e-14
2.06843e-11
-1.93527e-09
1.47352e-14
-7.9263e-10
-7.91835e-15
2.65397e-12
-1.62187e-10
-1.00083e-15
8.42577e-12
-5.87954e-10
-5.62655e-16
1.21991e-11
-1.0998e-09
1.67777e-15
1.0332e-11
-1.63666e-09
8.38371e-15
1.10964e-12
-2.13238e-09
4.3196e-15
-1.37362e-11
-2.50906e-09
1.83259e-14
-2.84632e-11
-2.67471e-09
-1.2377e-15
-3.37694e-11
-2.52549e-09
2.47442e-14
-2.14088e-11
-1.94759e-09
-9.93173e-15
-8.14052e-10
1.05548e-14
1.61448e-13
-1.62348e-10
-7.27105e-16
4.87845e-13
-5.88281e-10
-7.94166e-16
2.22227e-13
-1.09954e-09
6.56429e-16
-1.00573e-12
-1.63543e-09
1.56798e-15
-3.24975e-12
-2.13014e-09
5.8976e-15
-5.91621e-12
-2.50639e-09
1.15898e-15
-7.74201e-12
-2.67289e-09
1.14989e-14
-7.57535e-12
-2.52563e-09
-2.81529e-15
-4.45282e-12
-1.95073e-09
1.32673e-14
-8.18492e-10
-4.15261e-15
-2.38303e-12
-1.59965e-10
-4.08884e-16
-8.37319e-12
-5.8229e-10
-7.01232e-16
-1.51372e-11
-1.09277e-09
-3.14204e-16
-1.98088e-11
-1.63076e-09
9.99493e-16
-2.03507e-11
-2.12959e-09
6.86398e-16
-1.6036e-11
-2.51071e-09
4.36183e-15
-7.78417e-12
-2.68114e-09
-8.98296e-16
3.12872e-13
-2.53374e-09
7.25898e-15
3.62467e-12
-1.95403e-09
-4.60563e-15
-8.14873e-10
4.27211e-15
-5.55793e-12
-1.54407e-10
-2.42781e-16
-1.91846e-11
-5.68664e-10
-5.06754e-16
-3.36736e-11
-1.07829e-09
-3.95223e-16
-4.41427e-11
-1.62029e-09
-2.20734e-16
-4.71824e-11
-2.12655e-09
9.96369e-16
-4.13554e-11
-2.51653e-09
-1.81859e-16
-2.73265e-11
-2.69517e-09
2.89668e-15
-1.0187e-11
-2.55087e-09
-1.80563e-15
1.58741e-12
-1.96581e-09
4.53448e-15
-8.13282e-10
-1.92801e-15
-1.3142e-11
-1.41265e-10
-1.50226e-16
-4.37822e-11
-5.38023e-10
-3.69428e-16
-7.89794e-11
-1.04309e-09
-4.19272e-16
-1.14801e-10
-1.58447e-09
-1.33282e-16
-1.46959e-10
-2.09439e-09
-1.51606e-16
-1.68084e-10
-2.49541e-09
7.20804e-16
-1.67865e-10
-2.69539e-09
-5.09452e-16
-1.36106e-10
-2.58264e-09
1.88979e-15
-7.05911e-11
-2.03132e-09
-1.75501e-15
-8.83875e-10
1.39978e-15
-4.39336e-12
-1.36872e-10
-9.91025e-17
-2.92896e-11
-5.13127e-10
-2.98419e-16
-9.36858e-11
-9.78692e-10
-3.54796e-16
-2.0515e-10
-1.47301e-09
-3.23095e-16
-3.60293e-10
-1.93925e-09
-9.68175e-17
-5.3641e-10
-2.31929e-09
-2.00372e-16
-6.91568e-10
-2.54023e-09
4.56006e-16
-7.41285e-10
-2.53291e-09
-3.56307e-16
-6.02633e-10
-2.16998e-09
9.01232e-16
-1.4865e-09
-1.80791e-16
1.30232e-10
-2.67101e-10
2.34381e-16
2.18181e-10
-6.01042e-10
3.97678e-15
5.87216e-11
-8.19187e-10
5.08386e-15
-2.83151e-10
-1.13119e-09
-7.56378e-15
-7.62726e-10
-1.45962e-09
5.88443e-15
-1.35754e-09
-1.7245e-09
-1.47192e-15
-2.02401e-09
-1.87379e-09
-4.06634e-15
-2.70646e-09
-1.85031e-09
2.00592e-14
-3.02538e-09
-1.85096e-09
1.04282e-14
-4.5116e-09
3.17768e-14
2.84441e-12
-2.69948e-10
8.80018e-18
1.64716e-11
-6.1461e-10
7.38377e-15
2.59569e-11
-8.28594e-10
9.13725e-15
8.14973e-12
-1.11349e-09
-1.35453e-14
-3.6211e-11
-1.41512e-09
1.73897e-14
-8.82294e-11
-1.67224e-09
2.88898e-14
-1.11763e-10
-1.85032e-09
-6.58741e-15
-4.03462e-11
-1.92105e-09
7.69692e-14
2.15166e-10
-2.10641e-09
5.78225e-15
-4.29593e-09
5.16407e-14
-1.17696e-10
-1.52252e-10
2.22574e-16
-2.06451e-10
-5.25812e-10
5.19037e-15
-8.5866e-11
-9.49097e-10
9.53071e-15
1.8882e-10
-1.38816e-09
1.87888e-15
5.86228e-10
-1.81245e-09
9.98145e-15
1.10902e-09
-2.19506e-09
-9.36397e-15
1.70776e-09
-2.44797e-09
1.29487e-13
2.39018e-09
-2.60201e-09
1.80093e-13
2.61708e-09
-2.33084e-09
3.01478e-13
-1.67614e-09
3.36108e-13
3.57924e-12
-1.55827e-10
6.30571e-16
1.25511e-11
-5.3476e-10
3.02164e-15
3.70694e-11
-9.73571e-10
5.11422e-15
8.73848e-11
-1.43841e-09
6.84611e-15
1.61249e-10
-1.88617e-09
1.59979e-14
2.50374e-10
-2.28352e-09
9.10076e-14
3.36365e-10
-2.53098e-09
3.95301e-13
3.55515e-10
-2.61839e-09
3.58631e-13
2.64511e-10
-2.23294e-09
8.93257e-13
-1.40396e-09
1.01466e-12
-3.98882e-12
-1.51838e-10
1.91503e-16
9.5828e-12
-5.48274e-10
7.21418e-15
6.04122e-11
-1.02433e-09
7.7372e-15
1.52087e-10
-1.53004e-09
3.71114e-15
2.78314e-10
-2.01106e-09
1.78786e-13
4.14476e-10
-2.41654e-09
4.00065e-13
5.22675e-10
-2.64449e-09
-7.22485e-13
5.24983e-10
-2.62559e-09
-6.06936e-13
4.0866e-10
-2.12379e-09
-9.25461e-13
-1.00339e-09
-1.05864e-12
1.56497e-12
-1.53397e-10
8.38792e-16
8.17997e-12
-5.54852e-10
4.46866e-15
2.15519e-11
-1.03767e-09
4.15366e-15
4.11923e-11
-1.54961e-09
8.19549e-15
6.58363e-11
-2.03432e-09
1.85772e-13
8.83007e-11
-2.43512e-09
4.95359e-13
9.43492e-11
-2.6538e-09
-4.47992e-13
7.19879e-11
-2.60657e-09
-3.91038e-13
3.77763e-11
-2.09204e-09
-3.04975e-13
-9.68365e-10
-3.40969e-13
2.96855e-12
-1.56362e-10
5.20693e-16
1.46825e-11
-5.6654e-10
3.24903e-15
3.63008e-11
-1.05923e-09
5.7738e-15
6.63215e-11
-1.57952e-09
1.18577e-14
1.01966e-10
-2.06838e-09
2.05121e-13
1.32891e-10
-2.46204e-09
5.11885e-13
1.44754e-10
-2.66806e-09
-3.38241e-13
1.19805e-10
-2.58458e-09
-3.46269e-13
7.50335e-11
-2.04754e-09
-3.49738e-14
-8.94285e-10
-1.07353e-13
8.79362e-13
-1.57232e-10
1.09459e-15
3.78688e-12
-5.69471e-10
-2.90275e-15
8.69837e-12
-1.06413e-09
1.1245e-15
1.4914e-11
-1.58536e-09
5.204e-14
2.24019e-11
-2.07364e-09
3.04203e-13
2.89847e-11
-2.46361e-09
6.25262e-13
2.5181e-11
-2.66648e-09
-3.33578e-13
1.25017e-11
-2.57485e-09
-3.38146e-13
2.9057e-12
-2.03787e-09
-3.31148e-15
-8.92277e-10
-1.063e-13
1.71446e-12
-1.58948e-10
-4.52985e-16
6.98154e-12
-5.74697e-10
5.29879e-15
1.56666e-11
-1.07251e-09
4.63486e-14
2.71667e-11
-1.59555e-09
1.55115e-13
3.60915e-11
-2.08444e-09
-2.60664e-13
4.20952e-11
-2.4709e-09
-1.46817e-13
4.26003e-11
-2.66749e-09
-5.19933e-14
3.39786e-11
-2.56548e-09
8.96729e-14
1.88107e-11
-2.02339e-09
-7.69813e-14
-8.73472e-10
-2.09128e-15
3.79968e-13
-1.59326e-10
5.98589e-18
1.49885e-12
-5.75808e-10
1.06041e-15
3.52206e-12
-1.07426e-09
4.30847e-14
6.88691e-12
-1.59737e-09
1.87846e-13
7.38214e-12
-2.08625e-09
-1.79309e-13
7.4246e-12
-2.47153e-09
-5.98351e-14
5.29231e-12
-2.6658e-09
-5.72191e-14
1.73511e-12
-2.56162e-09
3.80788e-14
-1.64132e-12
-2.02042e-09
-4.86079e-14
-8.75041e-10
7.93543e-15
7.37712e-13
-1.60058e-10
4.62495e-16
2.93723e-12
-5.78013e-10
-8.19321e-16
6.7151e-12
-1.07775e-09
4.48986e-14
1.21796e-11
-1.60135e-09
1.82365e-13
1.47725e-11
-2.08994e-09
-1.55933e-13
1.64882e-11
-2.4735e-09
-2.08323e-14
1.56625e-11
-2.66556e-09
-7.11191e-14
1.21427e-11
-2.55813e-09
-5.03578e-15
6.52194e-12
-2.01521e-09
-4.94802e-14
-8.68688e-10
-2.20095e-14
1.55054e-13
-1.60201e-10
8.05509e-16
7.31636e-13
-5.78574e-10
2.92951e-15
2.0404e-12
-1.07878e-09
4.32726e-14
4.54698e-12
-1.60241e-09
1.75713e-13
4.13338e-12
-2.09072e-09
-1.65637e-13
3.74658e-12
-2.4734e-09
-2.42938e-14
2.1856e-12
-2.66451e-09
-6.31417e-14
3.66572e-13
-2.55622e-09
1.12199e-14
-1.31427e-12
-2.0138e-09
-3.23316e-14
-8.70009e-10
-1.95374e-15
3.52186e-13
-1.60589e-10
-3.51348e-15
1.35576e-12
-5.79905e-10
-4.27497e-14
3.94468e-12
-1.08082e-09
7.94505e-14
7.65815e-12
-1.60464e-09
1.80691e-13
8.59621e-12
-2.09277e-09
-1.55332e-13
9.17973e-12
-2.47425e-09
-2.11092e-14
8.10408e-12
-2.66397e-09
-6.65125e-14
6.14753e-12
-2.5542e-09
7.52537e-15
3.1055e-12
-2.01101e-09
-3.11649e-14
-8.6694e-10
-4.72029e-15
1.54318e-13
-1.60774e-10
-4.333e-15
5.85846e-13
-5.80673e-10
-4.30308e-14
2.36158e-12
-1.08195e-09
9.80434e-14
5.08702e-12
-1.60563e-09
2.08565e-13
4.97523e-12
-2.09348e-09
-1.27104e-13
4.46377e-12
-2.47394e-09
-9.52463e-15
2.90888e-12
-2.6628e-09
-4.82466e-14
1.26048e-12
-2.55239e-09
1.93702e-14
-4.60489e-13
-2.00949e-09
-2.29962e-14
-8.67381e-10
1.73584e-15
3.86479e-13
-1.61156e-10
1.01943e-15
1.65066e-12
-5.82026e-10
-1.19715e-14
3.6192e-12
-1.08418e-09
-3.67099e-14
5.84033e-12
-1.60816e-09
-3.59125e-14
7.01641e-12
-2.0952e-09
-6.23523e-14
7.69606e-12
-2.4746e-09
9.24608e-16
6.62852e-12
-2.66202e-09
-3.39891e-14
4.65885e-12
-2.55048e-09
-7.11034e-15
2.15338e-12
-2.00712e-09
-1.65149e-14
-8.65298e-10
-8.82984e-15
3.71193e-13
-1.61523e-10
3.39965e-16
1.56202e-12
-5.83335e-10
-1.44695e-14
3.38908e-12
-1.08616e-09
-1.81975e-14
5.32816e-12
-1.61012e-09
-2.50396e-15
6.05353e-12
-2.09613e-09
-2.54205e-14
5.95729e-12
-2.47439e-09
1.31215e-14
4.49102e-12
-2.66065e-09
-1.05404e-14
2.3434e-12
-2.54834e-09
-1.08447e-15
2.67443e-13
-2.00515e-09
-1.3554e-14
-8.65143e-10
-1.35594e-14
6.20144e-13
-1.62135e-10
8.62962e-16
2.43897e-12
-5.85269e-10
-1.40995e-14
4.99073e-12
-1.08883e-09
-1.45202e-14
7.4381e-12
-1.61256e-09
-1.17062e-17
8.61892e-12
-2.09755e-09
-2.93144e-14
8.64383e-12
-2.47441e-09
2.29761e-16
7.17452e-12
-2.65933e-09
-1.75302e-14
4.69832e-12
-2.546e-09
-1.73996e-14
2.01131e-12
-2.00259e-09
-1.49877e-14
-8.6338e-10
-3.02811e-14
7.5682e-13
-1.62889e-10
3.58385e-16
2.79499e-12
-5.87412e-10
-1.32715e-14
5.3281e-12
-1.09145e-09
-1.04947e-14
7.45467e-12
-1.6146e-09
1.19229e-14
8.12049e-12
-2.09839e-09
-2.10041e-14
7.56191e-12
-2.47392e-09
-9.32496e-15
5.84873e-12
-2.65773e-09
-1.38192e-14
3.14923e-12
-2.54369e-09
-4.42491e-14
6.9191e-13
-2.00031e-09
-1.92186e-14
-8.63018e-10
-3.41352e-14
1.10762e-12
-1.63994e-10