/*--------------------------------*- C++ -*----------------------------------*\
| =========                 |                                                 |
| \\      /  F ield         | OpenFOAM: The Open Source CFD Toolbox           |
|  \\    /   O peration     | Version:  v2012                                 |
|   \\  /    A nd           | Website:  www.openfoam.com                      |
|    \\/     M anipulation  |                                                 |
\*---------------------------------------------------------------------------*/
FoamFile
{
    version     2.0;
    format      ascii;
    class       surfaceScalarField;
    location    "0.5";
    object      alphaPhi0.water;
}
// * * * * * * * * * * * * * * * * * * * * * * * * * * * * * * * * * * * * * //

dimensions      [0 3 -1 0 0 0 0];
oriented        oriented;


internalField   nonuniform List<scalar> 
8212
(
6.1272e-12
-6.90063e-09
-8.71169e-16
-9.85237e-12
-2.12071e-08
-5.4652e-15
-1.4493e-11
-3.6038e-08
-6.79265e-15
-8.7428e-11
-5.7305e-08
-6.92635e-15
-1.28033e-09
-6.80208e-08
8.49391e-15
-2.1414e-09
-7.30255e-08
3.76619e-14
-2.55764e-09
-8.24243e-08
-1.04988e-15
-2.65093e-09
-8.94108e-08
-6.34854e-16
-2.30701e-09
-9.3274e-08
1.28688e-15
-1.49271e-09
-1.00597e-07
-1.38067e-15
-1.45355e-10
-1.0709e-07
2.1767e-15
1.18212e-09
-9.65132e-08
1.28087e-14
1.29488e-09
-8.71157e-08
5.06083e-15
5.91651e-10
-6.212e-08
-1.8989e-16
4.6541e-11
-1.44272e-08
-7.44473e-17
5.30658e-13
-5.98825e-10
-3.34165e-18
2.79954e-15
-5.64187e-12
-3.279e-20
1.07617e-17
-2.50955e-14
-1.80422e-22
4.2884e-20
-5.9944e-17
-4.29787e-25
1.54214e-22
-1.84256e-19
-1.34048e-27
3.85874e-25
-4.51728e-22
-3.64103e-30
7.2794e-28
-9.04147e-25
-7.63594e-33
1.04686e-30
-1.46917e-27
-1.28028e-35
1.11914e-33
-1.89036e-30
-1.69446e-38
8.38266e-37
-1.84511e-33
-1.67879e-41
3.90711e-40
-1.27178e-36
-1.18192e-44
8.4676e-44
-5.40531e-40
-5.20861e-48
1.53791e-70
-9.91362e-44
-1.03661e-51
-3.39574e-95
5.63924e-69
-2.5872e-75
-7.91678e-93
-4.01625e-94
-8.63932e-101
-1.92893e-89
-8.97267e-98
-3.0383e-97
-3.17376e-86
-5.06385e-96
-4.8232e-94
-4.13843e-83
-6.36657e-93
-6.38775e-91
-4.5732e-80
-6.82253e-90
-7.23311e-88
-4.4784e-77
-6.49955e-87
-7.34209e-85
-4.01443e-74
-5.67625e-84
-6.93055e-82
-3.37408e-71
-4.75637e-81
-6.27932e-79
-2.70076e-68
-6.36302e-78
-7.86685e-76
-2.28964e-76
-9.42458e-73
9.60555e-12
-6.91024e-09
8.80426e-17
7.31412e-12
-2.12048e-08
-4.03543e-15
-9.59026e-12
-3.60211e-08
-6.42388e-15
-1.2313e-10
-5.71914e-08
-1.35489e-14
-1.55471e-09
-6.65892e-08
3.19524e-15
-2.24503e-09
-7.23355e-08
3.43463e-14
-2.48312e-09
-8.21857e-08
-2.93001e-15
-2.5241e-09
-8.92879e-08
-3.6456e-15
-1.94783e-09
-9.3459e-08
4.56494e-16
-7.53764e-10
-1.01335e-07
-1.17314e-15
7.60137e-10
-1.0833e-07
3.64675e-15
1.73661e-09
-9.74326e-08
2.04395e-15
1.55124e-09
-8.70543e-08
7.96455e-16
6.76331e-10
-6.22548e-08
-4.41788e-16
5.28111e-11
-1.45791e-08
-9.37807e-17
5.79766e-13
-6.03756e-10
-3.7024e-18
2.81677e-15
-5.47086e-12
-3.95591e-20
1.30948e-17
-2.08127e-14
-1.56841e-22
5.97224e-20
-5.45551e-17
-4.39284e-25
1.98263e-22
-1.81445e-19
-1.57144e-27
4.76272e-25
-4.56302e-22
-4.17886e-30
8.76199e-28
-9.23721e-25
-8.52539e-33
1.23617e-30
-1.50472e-27
-1.41057e-35
1.29875e-33
-1.9246e-30
-1.82842e-38
9.54628e-37
-1.84721e-33
-1.77603e-41
4.33819e-40
-1.23062e-36
-1.21628e-44
8.95116e-44
-4.87997e-40
-5.04128e-48
2.09729e-72
-7.34273e-44
-8.61955e-52
-9.35227e-97
2.78545e-69
8.99687e-76
-3.86117e-100
-4.00859e-94
-3.63302e-102
1.70387e-100
-8.27828e-98
-7.84314e-105
-5.06367e-96
-1.12482e-102
-1.16078e-101
-6.37162e-93
-1.22051e-107
-1.47238e-98
-6.82889e-90
-8.65477e-106
-1.60074e-95
-6.50636e-87
-6.98246e-104
-1.56566e-92
-5.68274e-84
-2.4105e-102
-1.42528e-89
-4.76202e-81
-2.90928e-99
-1.24601e-86
-6.24324e-78
-5.42254e-96
-1.07085e-83
-9.00001e-95
-1.1198e-80
8.09363e-12
-6.91834e-09
-8.11877e-16
1.9194e-11
-2.12159e-08
-1.37052e-15
-5.95661e-11
-3.59423e-08
-1.21047e-14
-3.15264e-10
-5.69357e-08
-2.78972e-15
-1.38795e-09
-6.55166e-08
2.54449e-15
-1.72894e-09
-7.19947e-08
2.3476e-14
-1.62174e-09
-8.22918e-08
-3.98018e-15
-1.46429e-09
-8.936e-08
-4.24169e-15
-8.9182e-10
-9.36276e-08
-4.66931e-16
1.02041e-10
-1.01853e-07
-1.62863e-15
1.17152e-09
-1.0911e-07
4.43439e-15
1.89717e-09
-9.80771e-08
-8.55531e-16
1.71583e-09
-8.69615e-08
-1.39639e-15
7.38557e-10
-6.21402e-08
-6.06264e-16
5.65421e-11
-1.45608e-08
-1.22432e-16
5.99735e-13
-6.01949e-10
-4.1514e-18
2.62992e-15
-4.97688e-12
-4.29501e-20
1.32285e-17
-1.60888e-14
-1.44916e-22
6.33774e-20
-4.9107e-17
-4.36767e-25
2.04145e-22
-1.71841e-19
-1.55244e-27
4.84623e-25
-4.36077e-22
-4.09818e-30
8.83527e-28
-8.81168e-25
-8.26873e-33
1.23174e-30
-1.42068e-27
-1.35613e-35
1.27004e-33
-1.78109e-30
-1.73586e-38
9.05134e-37
-1.65195e-33
-1.65061e-41
3.89239e-40
-1.03723e-36
-1.08229e-44
7.0635e-44
-3.65858e-40
-4.14284e-48
1.95704e-72
-3.67274e-44
-5.61719e-52
-1.09713e-96
1.14161e-78
-4.2335e-78
-4.03208e-100
-3.99933e-94
-3.75634e-102
-8.34553e-105
-7.68799e-98
-7.017e-106
-1.29516e-109
-1.0586e-102
-9.77228e-111
-7.54916e-109
-1.23915e-107
-9.98515e-115
-8.69352e-106
-4.60099e-109
-9.06559e-112
-5.69669e-104
-3.8137e-106
-1.67123e-108
-3.0685e-102
-2.74893e-103
-8.58855e-107
-2.80503e-99
-1.08653e-100
-3.27213e-105
-5.28083e-96
-1.44515e-97
-5.26942e-102
-3.59464e-95
-8.00336e-102
9.40794e-12
-6.92775e-09
5.99714e-16
2.26309e-11
-2.12291e-08
-4.59784e-15
-6.0389e-11
-3.58593e-08
-5.96838e-15
-3.61004e-10
-5.66351e-08
-6.89489e-15
-1.40536e-09
-6.44723e-08
5.0677e-16
-1.63365e-09
-7.17666e-08
2.09486e-14
-1.27034e-09
-8.26534e-08
-3.71562e-15
-9.05923e-10
-8.96384e-08
-4.65056e-15
-2.47924e-10
-9.38668e-08
-1.35345e-15
7.38961e-10
-1.02339e-07
-6.85778e-16
1.72405e-09
-1.09789e-07
1.84445e-15
2.12572e-09
-9.83842e-08
-2.41555e-15
1.87826e-09
-8.66482e-08
8.40034e-16
8.02252e-10
-6.15516e-08
-6.29466e-16
6.05096e-11
-1.435e-08
-1.38519e-16
6.14548e-13
-5.77082e-10
-4.28114e-18
2.34277e-15
-4.20523e-12
-4.17872e-20
1.30935e-17
-1.204e-14
-1.23872e-22
6.3612e-20
-4.36864e-17
-4.35001e-25
1.99796e-22
-1.57057e-19
-1.45913e-27
4.67334e-25
-3.99184e-22
-3.85898e-30
8.38552e-28
-7.9996e-25
-7.8345e-33
1.14363e-30
-1.2668e-27
-1.27369e-35
1.1408e-33
-1.54056e-30
-1.58774e-38
7.70697e-37
-1.35941e-33
-1.4455e-41
3.00292e-40
-7.83152e-37
-8.82002e-45
4.21731e-44
-2.30726e-40
-2.93912e-48
1.36704e-81
-6.98414e-45
-2.46828e-52
-1.32427e-96
-1.67697e-83
1.95122e-79
-4.28031e-100
-3.95888e-94
-3.78737e-102
-8.82667e-105
-7.21385e-98
-6.6205e-106
-1.44545e-109
-1.02142e-102
-9.42498e-111
-3.79072e-111
-1.42539e-107
-1.16766e-115
-4.6385e-109
-4.34863e-113
-1.82356e-115
-3.81819e-106
-1.54885e-110
-1.55356e-112
-2.75265e-103
-1.07952e-107
-1.23433e-109
-1.08917e-100
-1.04107e-104
-1.23895e-106
-1.12182e-97
-7.65508e-102
-6.98076e-104
-2.06175e-100
-8.54054e-101
9.92475e-12
-6.93768e-09
-8.54579e-18
2.65662e-11
-2.12457e-08
-1.54596e-15
-6.13013e-11
-3.57714e-08
-3.8809e-15
-4.29128e-10
-5.62673e-08
-1.11582e-14
-1.36193e-09
-6.35395e-08
-6.7134e-15
-1.42656e-09
-7.17021e-08
1.72285e-14
-8.49702e-10
-8.32283e-08
-2.96569e-15
-2.98304e-10
-9.00962e-08
-3.74841e-15
4.15382e-10
-9.41469e-08
-1.07519e-15
1.32187e-09
-1.02721e-07
1.11166e-17
2.16176e-09
-1.10309e-07
2.62715e-15
2.27903e-09
-9.83875e-08
5.12503e-16
1.99808e-09
-8.61385e-08
1.48366e-15
8.3643e-10
-6.01556e-08
-6.29553e-16
6.12786e-11
-1.36612e-08
-1.43596e-16
5.80397e-13
-5.21001e-10
-4.36595e-18
1.94584e-15
-3.3332e-12
-3.66601e-20
1.19747e-17
-9.66957e-15
-9.92297e-23
5.99316e-20
-3.89961e-17
-3.99636e-25
1.87838e-22
-1.397e-19
-1.40385e-27
4.35562e-25
-3.5019e-22
-3.67567e-30
7.69148e-28
-6.87322e-25
-7.29039e-33
1.02141e-30
-1.05591e-27
-1.14803e-35
9.75144e-34
-1.22733e-30
-1.37097e-38
6.1073e-37
-1.00879e-33
-1.17333e-41
2.04187e-40
-5.13304e-37
-6.47597e-45
8.59771e-45
-1.13069e-40
-1.76054e-48
-3.07112e-86
1.58018e-50
-4.08403e-53
-1.623e-96
-3.6101e-90
-3.99092e-98
-4.69586e-100
-3.94562e-94
-3.83857e-102
-9.72204e-105
-6.86742e-98
-6.37321e-106
-2.31847e-109
-1.00764e-102
-9.33955e-111
-5.8014e-115
-2.23887e-107
-1.64712e-115
-2.42897e-113
-2.33235e-113
-5.77444e-119
-1.55127e-110
-9.5655e-121
-4.47498e-116
-1.08107e-107
-4.28642e-123
-3.39803e-113
-1.1065e-104
-2.14187e-120
-2.25893e-110
-7.43324e-102
-1.40905e-118
-1.52965e-107
-1.02999e-117
-1.59824e-104
1.08413e-11
-6.94852e-09
6.10554e-16
2.9059e-11
-2.12639e-08
-1.03074e-15
-6.23547e-11
-3.568e-08
-4.76272e-15
-4.84147e-10
-5.58455e-08
-1.26323e-14
-1.3486e-09
-6.26751e-08
-1.06195e-14
-1.30237e-09
-7.17485e-08
1.78667e-14
-5.98584e-10
-8.39297e-08
-4.19455e-15
8.65599e-11
-9.06842e-08
-3.17583e-15
8.48319e-10
-9.44594e-08
-6.99505e-16
1.72335e-09
-1.03045e-07
3.09157e-16
2.51962e-09
-1.10771e-07
1.63959e-15
2.38753e-09
-9.81191e-08
1.64364e-15
2.08098e-09
-8.54682e-08
1.29637e-15
8.4622e-10
-5.82061e-08
-6.85312e-16
5.89103e-11
-1.26705e-08
-1.5067e-16
5.18195e-13
-4.52118e-10
-4.62763e-18
1.99164e-15
-2.50181e-12
-3.21824e-20
1.1939e-17
-7.82159e-15
-9.01963e-23
5.93536e-20
-3.3683e-17
-3.91464e-25
1.77456e-22
-1.16169e-19
-1.2916e-27
3.9374e-25
-2.86171e-22
-3.26003e-30
6.65693e-28
-5.49977e-25
-6.27581e-33
8.39903e-31
-8.17487e-28
-9.50136e-36
7.47316e-34
-9.01055e-31
-1.07411e-38
4.17797e-37
-6.77465e-34
-8.45533e-42
1.09933e-40
-2.90834e-37
-4.04916e-45
7.01486e-54
-3.7879e-41
-7.89426e-49
-9.43371e-93
2.2735e-51
1.53706e-58
-1.98823e-96
-3.59785e-90
-3.51805e-98
-5.26634e-100
-3.93726e-94
-3.9118e-102
-1.09815e-104
-6.65097e-98
-6.24238e-106
-4.1859e-109
-1.00544e-102
-9.42466e-111
-4.40045e-115
-3.61008e-107
-2.74005e-115
-2.31509e-122
-2.74615e-113
-2.25941e-121
-1.20779e-124
-1.13196e-120
-9.71029e-129
-2.39753e-123
-1.94741e-123
-2.85544e-130
-1.01505e-121
-2.02224e-120
-9.25333e-128
-8.31854e-119
-5.78018e-119
-5.39721e-125
-8.4912e-118
-7.02328e-123
1.14084e-11
-6.95994e-09
3.95036e-16
3.07554e-11
-2.12833e-08
5.87121e-16
-6.4258e-11
-3.5585e-08
-3.35839e-15
-5.35689e-10
-5.53741e-08
-1.74436e-14
-1.31014e-09
-6.19007e-08
-1.82101e-14
-1.15104e-09
-7.19078e-08
1.02923e-14
-3.81329e-10
-8.46966e-08
-6.32243e-15
4.00838e-10
-9.13653e-08
-3.2825e-15
1.18838e-09
-9.47795e-08
-2.74304e-16
2.04246e-09
-1.03321e-07
1.09109e-15
2.8054e-09
-1.11187e-07
1.58087e-15
2.46316e-09
-9.76137e-08
2.24788e-15
2.13026e-09
-8.46306e-08
1.32471e-15
8.32084e-10
-5.58183e-08
-7.00956e-16
5.42166e-11
-1.15113e-08
-1.51156e-16
4.40433e-13
-3.78562e-10
-4.61739e-18
1.92972e-15
-1.77987e-12
-2.63368e-20
1.19683e-17
-6.07578e-15
-8.02367e-23
5.33084e-20
-2.7403e-17
-3.63946e-25
1.52572e-22
-9.15721e-20
-1.16494e-27
3.2736e-25
-2.21181e-22
-2.83042e-30
5.32159e-28
-4.13351e-25
-5.25202e-33
6.35762e-31
-5.87994e-28
-7.59172e-36
5.19711e-34
-6.03943e-31
-8.03661e-39
2.49432e-37
-4.02325e-34
-5.70766e-42
4.42347e-41
-1.34164e-37
-2.26026e-45
2.7761e-54
-2.33134e-42
-2.44635e-49
-1.27616e-92
2.86413e-56
2.26608e-59
-2.42438e-96
-3.58904e-90
-3.58782e-98
-6.0145e-100
-3.94206e-94
-3.99265e-102
-1.26091e-104
-6.5484e-98
-6.2122e-106
-7.24912e-109
-1.02893e-102
-9.63015e-111
-6.95804e-115
-5.30004e-107
-4.26802e-115
-3.39427e-122
-3.9171e-113
-3.24591e-121
-6.66182e-125
-1.38081e-120
-1.2911e-128
-2.01191e-123
-1.75659e-126
-2.41184e-129
-1.89944e-120
-1.68993e-123
-1.3739e-126
-5.42661e-119
-9.33281e-122
-7.60796e-124
-1.80233e-120
-8.15837e-121
1.20434e-11
-6.97198e-09
8.53106e-16
3.13661e-11
-2.13026e-08
-1.39421e-15
-7.35803e-11
-3.54801e-08
-5.08269e-15
-5.81761e-10
-5.48659e-08
-9.76949e-15
-1.2503e-09
-6.12322e-08
-1.6928e-14
-9.8244e-10
-7.21757e-08
1.64333e-15
-2.02203e-10
-8.54741e-08
-7.60088e-15
6.26226e-10
-9.20895e-08
-3.57533e-15
1.42968e-09
-9.50964e-08
4.89323e-16
2.28491e-09
-1.0357e-07
8.59866e-16
3.03403e-09
-1.11576e-07
8.84447e-16
2.50873e-09
-9.68928e-08
2.21034e-15
2.14485e-09
-8.35988e-08
2.96255e-16
7.96672e-10
-5.30165e-08
-8.35601e-16
4.79408e-11
-1.02348e-08
-1.61016e-16
3.55772e-13
-3.04886e-10
-4.75722e-18
1.72149e-15
-1.2098e-12
-2.09417e-20
1.09152e-17
-4.52931e-15
-6.94962e-23
4.52498e-20
-2.10917e-17
-3.21165e-25
1.24932e-22
-6.81932e-20
-9.9224e-28
2.58314e-25
-1.60301e-22
-2.3205e-30
3.99963e-28
-2.88166e-25
-4.11604e-33
4.4499e-31
-3.8632e-28
-5.59513e-36
3.24173e-34
-3.60968e-31
-5.43201e-39
1.24156e-37
-2.03245e-34
-3.35762e-42
2.70734e-42
-4.4656e-38
-1.00533e-45
6.11453e-59
1.8218e-46
-1.36647e-50
-1.65808e-92
-3.09712e-80
2.92785e-64
-2.93999e-96
-3.58063e-90
-3.65795e-98
-6.94888e-100
-3.95257e-94
-4.09208e-102
-1.53657e-104
-6.52754e-98
-6.26711e-106
-1.13009e-108
-1.14217e-102
-1.04406e-110
-1.07565e-114
-6.95028e-107
-5.9906e-115
-4.42602e-122
-5.23203e-113
-4.55069e-121
-3.58812e-128
-1.56706e-120
-1.52639e-128
-1.75924e-126
-2.92462e-128
-8.90585e-133
-1.65812e-123
-2.07219e-129
-4.17621e-130
-9.12052e-122
-9.4198e-129
-2.0914e-127
-1.32237e-127
-1.79434e-124
1.25101e-11
-6.9845e-09
5.81199e-16
3.13644e-11
-2.13215e-08
7.30924e-16
-8.78986e-11
-3.53608e-08
-5.0238e-15
-6.14689e-10
-5.43391e-08
-1.53481e-14
-1.1563e-09
-6.06907e-08
-2.48606e-14
-7.73384e-10
-7.25587e-08
-5.60978e-15
-1.55039e-11
-8.62291e-08
-1.04866e-14
8.26616e-10
-9.28226e-08
-4.23286e-15
1.6371e-09
-9.5401e-08
6.02365e-16
2.50245e-09
-1.038e-07
7.96888e-16
3.22696e-09
-1.11929e-07
1.75782e-16
2.53837e-09
-9.59695e-08
1.98913e-15
2.12901e-09
-8.23307e-08
1.22253e-16
7.42078e-10
-4.9827e-08
-8.46547e-16
4.0601e-11
-8.89785e-09
-1.56173e-16
2.72137e-13
-2.35999e-10
-4.28304e-18
1.40003e-15
-8.05638e-13
-1.57493e-20
9.03236e-18
-3.30808e-15
-5.74139e-23
3.54768e-20
-1.55331e-17
-2.65825e-25
9.46935e-23
-4.84091e-20
-7.90746e-28
1.87721e-25
-1.09531e-22
-1.76827e-30
2.73743e-28
-1.86634e-25
-2.97473e-33
2.77915e-31
-2.30987e-28
-3.75942e-36
1.73121e-34
-1.89803e-31
-3.27006e-39
4.64738e-38
-8.36601e-35
-1.67565e-42
1.41853e-49
-7.07205e-39
-3.17317e-46
-9.88304e-83
6.73068e-49
1.93467e-54
-2.10866e-92
-1.53686e-86
-3.14834e-89
-3.53079e-96
-3.57931e-90
-3.73929e-98
-8.05926e-100
-3.96891e-94
-4.19248e-102
-2.01265e-104
-6.56973e-98
-6.36907e-106
-1.58472e-108
-1.33352e-102
-1.21831e-110
-1.52836e-114
-8.22395e-107
-7.56483e-115
-5.43034e-122
-6.31313e-113
-5.86551e-121
-1.20441e-129
-1.66523e-120
-1.70973e-128
-1.04027e-130
-2.63765e-128
-3.09406e-136
-1.35635e-130
-1.78294e-129
-4.9691e-139
-5.90447e-130
-7.43133e-129
-8.38895e-139
-2.1782e-128
-6.70709e-137
1.29686e-11
-6.99747e-09
1.05247e-15
3.08697e-11
-2.13394e-08
-1.45293e-15
-1.07142e-10
-3.52228e-08
-8.54477e-15
-6.31036e-10
-5.38152e-08
-1.39595e-14
-1.03588e-09
-6.02859e-08
-1.86697e-14
-5.32269e-10
-7.30624e-08
1.90964e-16
1.91319e-10
-8.69497e-08
-1.772e-14
1.02361e-09
-9.35409e-08
-4.4085e-15
1.83384e-09
-9.56851e-08
-6.49444e-16
2.71122e-09
-1.04011e-07
-7.22355e-16
3.38801e-09
-1.12221e-07
-2.47073e-15
2.55346e-09
-9.48521e-08
9.59119e-16
2.08326e-09
-8.07778e-08
-7.70953e-16
6.72197e-10
-4.62903e-08
-9.24052e-16
3.29518e-11
-7.5612e-09
-1.55091e-16
1.97676e-13
-1.75616e-10
-3.80365e-18
1.06298e-15
-5.57356e-13
-1.20652e-20
6.99627e-18
-2.39275e-15
-4.75187e-23
2.62523e-20
-1.09921e-17
-2.13077e-25
6.73489e-23
-3.2629e-20
-5.98543e-28
1.26536e-25
-6.98688e-23
-1.26534e-30
1.70713e-28
-1.10516e-25
-1.98892e-33
1.53413e-31
-1.22636e-28
-2.28261e-36
7.63346e-35
-8.41805e-32
-1.71609e-39
8.04097e-39
-2.50214e-35
-6.72038e-43
1.21533e-51
4.90584e-43
-4.66093e-47
-6.75637e-89
5.6945e-55
7.32995e-57
-2.61331e-92
-1.51861e-86
-1.58605e-94
-4.2066e-96
-3.58178e-90
-3.81844e-98
-9.5987e-100
-3.9938e-94
-4.30061e-102
-2.68895e-104
-6.95705e-98
-6.67598e-106
-2.02477e-108
-1.56128e-102
-1.45413e-110
-1.9703e-114
-8.93576e-107
-8.71849e-115
-6.29234e-122
-6.94272e-113
-6.86829e-121
-1.23826e-129
-1.68598e-120
-1.80757e-128
-1.0205e-130
-2.53489e-128
-2.91384e-136
-2.36117e-130
-1.42428e-129
-4.24206e-139
-6.08622e-130
-5.76909e-129
-8.15749e-139
-7.22994e-129
-4.4119e-138
1.33561e-11
-7.01084e-09
9.10662e-16
2.98706e-11
-2.13559e-08
-1.7226e-16
-1.26511e-10
-3.50664e-08
-1.01284e-14
-6.21187e-10
-5.33206e-08
-1.62447e-14
-8.92078e-10
-6.0015e-08
-2.26993e-14
-2.69999e-10
-7.36846e-08
-2.2145e-15
4.25313e-10
-8.76421e-08
-2.20147e-14
1.23698e-09
-9.42332e-08
-6.76696e-15
2.04079e-09
-9.59419e-08
-2.02059e-15
2.92265e-09
-1.04195e-07
-2.36628e-15
3.51527e-09
-1.12415e-07
-4.4577e-15
2.5564e-09
-9.35504e-08
-9.40599e-16
2.00927e-09
-7.88852e-08
-1.277e-15
5.9162e-10
-4.24578e-08
-9.39849e-16
2.56454e-11
-6.2786e-09
-1.44382e-16
1.4984e-13
-1.25706e-10
-3.08961e-18
8.31604e-16
-3.94162e-13
-9.2681e-21
5.27135e-18
-1.67702e-15
-3.72756e-23
1.86932e-20
-7.3487e-18
-1.59689e-25
4.51106e-23
-2.04043e-20
-4.25481e-28
7.84886e-26
-4.06148e-23
-8.39402e-31
9.51009e-29
-5.82061e-26
-1.20734e-33
7.2003e-32
-5.57295e-29
-1.22353e-36
2.51147e-35
-2.94698e-32
-7.54255e-40
2.34623e-46
-3.87246e-36
-1.92927e-43
1.69486e-57
3.21186e-45
5.63517e-51
-8.74207e-89
-3.24607e-80
6.3709e-63
-3.18525e-92
-1.49904e-86
-1.6634e-94
-4.97506e-96
-3.58924e-90
-3.90575e-98
-1.19828e-99
-4.02588e-94
-4.41878e-102
-3.55253e-104
-7.66469e-98
-7.37206e-106
-2.40429e-108
-1.80685e-102
-1.7219e-110
-2.34508e-114
-9.14827e-107
-9.36104e-115
-7.03558e-122
-7.14474e-113
-7.4402e-121
-1.34092e-129
-1.67687e-120
-1.84861e-128
-8.48405e-131
-2.5299e-128
-2.90387e-136
-3.11015e-130
-1.03321e-129
-3.34894e-139
-5.36021e-130
-4.55318e-129
-5.90976e-139
-4.68664e-129
-2.21991e-139
1.3734e-11
-7.02458e-09
8.24252e-16
2.74581e-11
-2.13696e-08
-9.66324e-16
-1.39462e-10
-3.48995e-08
-1.29308e-14
-5.73368e-10
-5.28867e-08
-1.191e-14
-7.24564e-10
-5.98639e-08
-2.41668e-14
-2.67703e-12
-7.44067e-08
-1.14205e-14
6.76438e-10
-8.83179e-08
-1.07939e-14
1.46537e-09
-9.4897e-08
-5.27105e-15
2.25618e-09
-9.61641e-08
-4.80883e-15
3.12825e-09
-1.04335e-07
-5.15071e-15
3.59502e-09
-1.1247e-07
-7.89159e-15
2.54305e-09
-9.20807e-08
-2.98332e-15
1.90719e-09
-7.65994e-08
-2.35813e-15
5.05283e-10
-3.83983e-08
-1.00574e-15
1.91617e-11
-5.09442e-09
-1.35851e-16
1.18995e-13
-8.66821e-11
-2.49317e-18
6.46989e-16
-2.68276e-13
-7.17909e-21
3.79829e-18
-1.11622e-15
-2.82487e-23
1.24035e-20
-4.5619e-18
-1.13123e-25
2.76583e-23
-1.16838e-20
-2.76992e-28
4.35349e-26
-2.11439e-23
-4.99595e-31
4.56481e-29
-2.65774e-26
-6.4245e-34
2.69854e-32
-2.07452e-29
-5.53099e-37
4.29142e-36
-7.23062e-33
-2.57655e-40
5.21946e-48
1.07926e-40
-2.80476e-44
-1.39471e-82
7.81408e-48
3.7804e-53
-1.08404e-88
-2.49693e-83
-2.89423e-91
-3.82638e-92
-1.47708e-86
-1.67126e-94
-5.84239e-96
-3.60136e-90
-3.99127e-98
-1.52042e-99
-4.06512e-94
-4.54164e-102
-4.61253e-104
-8.51814e-98
-8.30809e-106
-2.72567e-108
-2.0627e-102
-2.01077e-110
-2.6511e-114
-9.10649e-107
-9.62254e-115
-7.73841e-122
-7.11374e-113
-7.67433e-121
-1.52649e-129
-1.64385e-120
-1.86412e-128
-6.61224e-131
-2.85663e-128
-3.0552e-136
-2.91625e-130
-6.92562e-130
-2.70643e-139
-6.35823e-130
-3.42755e-129
-4.92912e-139
-3.66291e-129
-1.91447e-139
1.40976e-11
-7.03868e-09
1.14348e-15
2.25913e-11
-2.13781e-08
1.25473e-16
-1.34547e-10
-3.47424e-08
-1.4364e-14
-4.74767e-10
-5.25465e-08
-1.12945e-14
-5.27627e-10
-5.98111e-08
-2.39975e-14
2.57008e-10
-7.51917e-08
-1.25605e-14
9.28397e-10
-8.89858e-08
-1.47925e-14
1.69927e-09
-9.55366e-08
-8.42223e-15
2.46907e-09
-9.6343e-08
-7.74628e-15
3.3124e-09
-1.04411e-07
-8.18896e-15
3.61174e-09
-1.1234e-07
-1.05796e-14
2.50845e-09
-9.04667e-08
-4.2461e-15
1.77784e-09
-7.38739e-08
-2.53259e-15
4.18196e-10
-3.42022e-08
-9.7562e-16
1.3771e-11
-4.04211e-09
-1.1874e-16
8.83711e-14
-5.77445e-11
-1.84046e-18
4.73407e-16
-1.75105e-13
-5.22238e-21
2.52791e-18
-7.03505e-16
-1.98141e-23
7.52743e-21
-2.6268e-18
-7.29914e-26
1.5195e-23
-6.09363e-21
-1.65155e-28
2.09782e-26
-9.75389e-24
-2.67502e-31
1.80386e-29
-1.02928e-26
-2.97518e-34
7.23553e-33
-5.97493e-30
-2.05381e-37
3.83064e-44
-8.71895e-34
-6.14441e-41
2.27953e-50
1.84568e-41
1.36349e-48
-1.44107e-85
3.53498e-56
9.45728e-56
-1.3172e-88
-2.50312e-83
-2.92372e-91
-4.54305e-92
-1.45558e-86
-1.67644e-94
-6.81819e-96
-3.6188e-90
-4.08722e-98
-1.92319e-99
-4.11172e-94
-4.6767e-102
-5.87888e-104
-9.47559e-98
-9.40115e-106
-3.02888e-108
-2.31896e-102
-2.31424e-110
-2.9318e-114
-8.98449e-107
-9.72676e-115
-8.25663e-122
-7.02549e-113
-7.76466e-121
-2.17455e-129
-1.55694e-120
-1.82807e-128
-4.76425e-131
-4.11752e-128
-4.03881e-136
-2.22196e-130
-4.43637e-130
-2.13838e-139
-5.55421e-130
-2.51469e-129
-3.99161e-139
-2.85633e-129
-1.85986e-139
1.44503e-11
-7.05314e-09
5.22478e-16
1.53052e-11
-2.1379e-08
-9.49304e-16
-9.63875e-11
-3.46307e-08
-1.36566e-14
-3.21553e-10
-5.23214e-08
-8.94816e-15
-3.0141e-10
-5.98313e-08
-2.25648e-14
5.05882e-10
-7.59993e-08
-1.49474e-14
1.16702e-09
-8.96435e-08
-1.55246e-14
1.92386e-09
-9.61557e-08
-1.04724e-14
2.66202e-09
-9.64674e-08
-9.61768e-15
3.45542e-09
-1.04399e-07
-9.62522e-15
3.55171e-09
-1.11986e-07
-1.56275e-14
2.44609e-09
-8.87382e-08
-5.33422e-15
1.62287e-09
-7.0678e-08
-2.96028e-15
3.3504e-10
-2.99798e-08
-9.89007e-16
9.55062e-12
-3.14227e-09
-1.03182e-16
6.19068e-14
-3.73491e-11
-1.32898e-18
3.23026e-16
-1.10089e-13
-3.69758e-21
1.54734e-18
-4.20134e-16
-1.3311e-23
4.14145e-21
-1.40843e-18
-4.42466e-26
7.38241e-24
-2.89584e-21
-8.82353e-29
8.58191e-27
-3.9589e-24
-1.24181e-31
5.55916e-30
-3.28945e-27
-1.14596e-34
9.46677e-34
-1.18147e-30
-5.78591e-38
3.0099e-44
1.12066e-37
-7.05059e-42
1.54029e-58
5.24697e-44
2.38559e-49
-1.85414e-85
-3.14718e-80
4.36929e-64
-1.56739e-88
-2.51284e-83
-2.98791e-91
-5.34171e-92
-1.43478e-86
-1.68422e-94
-7.91276e-96
-3.64187e-90
-4.18411e-98
-2.42048e-99
-4.16565e-94
-4.81876e-102
-7.34228e-104
-1.05457e-97
-1.06276e-105
-3.26575e-108
-2.56207e-102
-2.6196e-110
-3.15e-114
-8.51608e-107
-9.5699e-115
-8.52206e-122
-6.66786e-113
-7.65451e-121
-3.4274e-129
-1.4384e-120
-1.73882e-128
-3.27713e-131
-5.6491e-128
-5.89779e-136
-1.66055e-130
-2.64701e-130
-1.66855e-139
-4.71895e-130
-1.78797e-129
-3.2438e-139
-2.20002e-129
-1.81527e-139
1.47307e-11
-7.06788e-09
7.62136e-16
8.01993e-12
-2.13723e-08
-7.90817e-16
-7.81529e-12
-3.46149e-08
-1.27577e-14
-1.2386e-10
-5.22054e-08
-6.74169e-15
-5.83998e-11
-5.98968e-08
-2.18575e-14
7.43061e-10
-7.68011e-08
-1.67638e-14
1.38756e-09
-9.02846e-08
-1.63444e-14
2.12674e-09
-9.67507e-08
-1.24174e-14
2.81948e-09
-9.65231e-08
-1.25359e-14
3.54187e-09
-1.04278e-07
-1.22782e-14
3.40949e-09
-1.11377e-07
-1.77626e-14
2.35114e-09
-8.69267e-08
-6.72129e-15
1.44625e-09
-6.70042e-08
-3.26442e-15
2.59748e-10
-2.58535e-08
-9.92063e-16
6.42533e-12
-2.4016e-09
-8.8981e-17
4.10825e-14
-2.36378e-11
-9.19835e-19
2.06303e-16
-6.7138e-14
-2.5158e-21
8.73091e-19
-2.39623e-16
-8.29707e-24
2.06498e-21
-7.08783e-19
-2.44534e-26
3.15014e-24
-1.2568e-21
-4.34957e-29
2.90682e-27
-1.39864e-24
-5.16009e-32
1.20363e-30
-8.2089e-28
-3.68242e-35
5.04312e-41
-9.69089e-32
-1.11943e-38
1.59816e-46
4.6654e-39
1.58661e-45
-1.87146e-82
4.16204e-54
6.9621e-52
-2.32323e-85
-3.08472e-80
-3.99437e-88
-1.83662e-88
-2.52574e-83
-3.08378e-91
-6.22995e-92
-1.41553e-86
-1.69356e-94
-9.13776e-96
-3.67114e-90
-4.29382e-98
-3.02986e-99
-4.22711e-94
-4.97523e-102
-8.97082e-104
-1.1714e-97
-1.20111e-105
-3.35886e-108
-2.77883e-102
-2.91263e-110
-3.2269e-114
-7.72449e-107
-9.01216e-115
-8.64076e-122
-6.04656e-113
-7.21577e-121
-4.77205e-129
-1.32087e-120
-1.62913e-128
-2.07327e-131
-6.61917e-128
-7.62264e-136
-1.16004e-130
-1.43759e-130
-1.27369e-139
-3.95507e-130
-1.21517e-129
-2.62076e-139
-1.66619e-129
-1.73722e-139
1.48106e-11
-7.0827e-09
1.21181e-16
3.96474e-12
-2.13614e-08
-6.53238e-16
1.40633e-10
-3.47516e-08
-8.82857e-15
1.0055e-10
-5.21653e-08
-2.93415e-15
1.77311e-10
-5.99736e-08
-2.1454e-14
9.63271e-10
-7.75873e-08
-1.74077e-14
1.59174e-09
-9.09098e-08
-1.81627e-14
2.29817e-09
-9.73063e-08
-1.34953e-14
2.92958e-09
-9.64935e-08
-1.48949e-14
3.56196e-09
-1.04024e-07
-1.59752e-14
3.1878e-09
-1.1049e-07
-1.66589e-14
2.21044e-09
-8.50471e-08
-4.29008e-15
1.25474e-09
-6.28939e-08
-2.83033e-15
1.95048e-10
-2.19455e-08
-7.92928e-16
4.22418e-12
-1.81381e-09
-6.63218e-17
2.60068e-14
-1.47949e-11
-5.29106e-19
1.23665e-16
-4.00857e-14
-1.59051e-21
4.58576e-19
-1.31963e-16
-4.794e-24
9.37208e-22
-3.37331e-19
-1.26167e-26
1.17116e-24
-4.97647e-22
-1.90577e-29
7.77487e-28
-4.19492e-25
-1.81073e-32
1.04098e-31
-1.36882e-28
-8.99191e-36
8.60919e-42
2.64716e-35
-8.80707e-40
1.91373e-56
1.40791e-40
6.742e-47
-2.37223e-82
-2.0562e-77
5.63338e-62
-2.83211e-85
-3.02626e-80
-3.99328e-88
-2.12621e-88
-2.54242e-83
-3.15682e-91
-7.21719e-92
-1.39865e-86
-1.70249e-94
-1.05071e-95
-3.70724e-90
-4.40935e-98
-3.76137e-99
-4.29646e-94
-5.14578e-102
-1.0714e-103
-1.2936e-97
-1.35204e-105
-3.31244e-108
-2.95652e-102
-3.17686e-110
-3.16762e-114
-6.76525e-107
-8.16295e-115
-8.7667e-122
-5.2928e-113
-6.53653e-121
-5.78828e-129
-1.22822e-120
-1.53133e-128
-1.18226e-131
-6.90342e-128
-8.6026e-136
-7.41922e-131
-6.84612e-131
-9.44944e-140
-3.24131e-130
-7.72074e-130
-2.10882e-139
-1.23268e-129
-1.64416e-139
1.46074e-11
-7.09732e-09
3.27775e-16
4.13983e-12
-2.13509e-08
-1.52579e-15
3.39458e-10
-3.50869e-08
-5.54114e-15
3.30061e-10
-5.2156e-08
3.52396e-16
3.74077e-10
-6.00177e-08
-2.15214e-14
1.15793e-09
-7.83715e-08
-1.69852e-14
1.77705e-09
-9.15257e-08
-1.77526e-14
2.42928e-09
-9.78007e-08
-1.45506e-14
2.98424e-09
-9.63632e-08
-1.65924e-14
3.51135e-09
-1.0362e-07
-1.73024e-14
2.91771e-09
-1.09342e-07
-1.79721e-14
2.02977e-09
-8.30724e-08
-6.10065e-15
1.05829e-09
-5.84383e-08
-3.04416e-15
1.42211e-10
-1.83615e-08
-7.49104e-16
2.73937e-12
-1.36261e-09
-5.41959e-17
1.58444e-14
-9.27944e-12
-3.49672e-19
7.04433e-17
-2.36932e-14
-9.99812e-22
2.26377e-19
-7.09009e-17
-2.72036e-24
3.87476e-22
-1.52763e-19
-6.09111e-27
3.72034e-25
-1.78642e-22
-7.6544e-30
1.44378e-28
-1.00192e-25
-5.42588e-33
1.99453e-38
-5.15307e-30
-1.45512e-36
4.73248e-43
3.29258e-36
4.18515e-43
-1.2923e-79
4.72823e-53
2.07261e-48
-2.875e-82
-2.02893e-77
-2.83946e-85
-3.39827e-85
-2.97341e-80
-3.95148e-88
-2.4387e-88
-2.56304e-83
-3.23693e-91
-8.31477e-92
-1.38481e-86
-1.71363e-94
-1.20371e-95
-3.75094e-90
-4.53683e-98
-4.61566e-99
-4.37427e-94
-5.32477e-102
-1.24949e-103
-1.41575e-97
-1.51145e-105
-3.15786e-108
-3.07724e-102
-3.39613e-110
-3.01148e-114
-5.76062e-107
-7.17048e-115
-9.04407e-122
-4.52057e-113
-5.75089e-121
-6.45025e-129
-1.17295e-120
-1.46741e-128
-5.85677e-132
-6.84829e-128
-8.93896e-136
-4.13379e-131
-2.73663e-131
-6.72025e-140
-2.58409e-130
-4.38284e-130
-1.6874e-139
-8.91594e-130
-1.52215e-139
1.40648e-11
-7.11139e-09
-1.12421e-17
7.59697e-12
-2.13445e-08
3.533e-16
5.6141e-10
-3.56407e-08
-2.69324e-15
5.26885e-10
-5.21215e-08
2.53045e-15
5.11e-10
-6.0002e-08
-2.10829e-14
1.3175e-09
-7.91784e-08
-1.62125e-14
1.92924e-09
-9.21347e-08
-1.78319e-14
2.50937e-09
-9.82164e-08
-1.56469e-14
2.97702e-09
-9.61212e-08
-1.74748e-14
3.39015e-09
-1.03056e-07
-1.82706e-14
2.60751e-09
-1.07966e-07
-1.74637e-14
1.82152e-09
-8.09739e-08
-6.27529e-15
8.67689e-10
-5.37492e-08
-2.75988e-15
1.01091e-10
-1.51778e-08
-6.49091e-16
1.77132e-12
-1.02591e-09
-4.16618e-17
9.38775e-15
-5.92049e-12
-2.25952e-19
3.86547e-17
-1.40348e-14
-6.05893e-22
1.05894e-19
-3.75738e-17
-1.49528e-24
1.45752e-22
-6.61667e-20
-2.79503e-27
9.61214e-26
-5.688e-23
-2.72138e-30
5.53837e-30
-1.53486e-26
-1.25542e-33
7.33151e-39
3.3804e-33
-5.23689e-38
2.36063e-55
1.02517e-37
5.27169e-44
-1.64442e-79
-3.94623e-66
7.06919e-61
-3.43511e-82
-2.00844e-77
-2.84099e-85
-4.02219e-85
-2.92755e-80
-3.95796e-88
-2.7772e-88
-2.58797e-83
-3.32248e-91
-9.5368e-92
-1.37447e-86
-1.72822e-94
-1.37477e-95
-3.80316e-90
-4.67569e-98
-5.5867e-99
-4.46138e-94
-5.52152e-102
-1.42015e-103
-1.53277e-97
-1.67257e-105
-2.92723e-108
-3.12301e-102
-3.54922e-110
-2.80392e-114
-4.79297e-107
-6.14177e-115
-9.562e-122
-3.81361e-113
-4.96821e-121
-6.95596e-129
-1.15418e-120
-1.44469e-128
-2.45508e-132
-6.6555e-128
-9.00875e-136
-1.82741e-131
-9.47985e-132
-4.4722e-140
-1.87572e-130
-2.07683e-130
-1.33686e-139
-6.22749e-130
-1.3853e-139
1.31777e-11
-7.12458e-09
-3.89479e-16
1.24513e-11
-2.13437e-08
-1.57177e-15
7.65922e-10
-3.63942e-08
-6.77564e-16
6.39501e-10
-5.19951e-08
4.81693e-15
5.78537e-10
-5.99411e-08
-1.91728e-14
1.42509e-09
-8.00254e-08
-1.44666e-14
2.02842e-09
-9.27357e-08
-1.63801e-14
2.52753e-09
-9.8545e-08
-1.58545e-14
2.90401e-09
-9.57633e-08
-1.79307e-14
3.20341e-09
-1.02329e-07
-1.89238e-14
2.27087e-09
-1.06393e-07
-1.71364e-14
1.59395e-09
-7.87463e-08
-5.78776e-15
6.91865e-10
-4.89633e-08
-2.47574e-15
7.0464e-11
-1.24346e-08
-5.37593e-16
1.15464e-12
-7.79908e-10
-3.13179e-17
5.47102e-15
-3.90308e-12
-1.46486e-19
2.06699e-17
-8.43724e-15
-3.59526e-22
4.73517e-20
-1.98117e-17
-7.92013e-25
4.9261e-23
-2.73955e-20
-1.19844e-27
1.68149e-26
-1.50506e-23
-8.51567e-31
3.93708e-36
3.6985e-30
-1.82684e-34
3.88658e-40
3.56477e-34
5.87837e-41
-2.65803e-68
2.3991e-41
1.64759e-45
-2.01852e-79
-4.00007e-66
-5.94693e-74
-4.02685e-82
-1.99642e-77
-2.83694e-85
-4.71208e-85
-2.88966e-80
-3.94038e-88
-3.14471e-88
-2.61762e-83
-3.40087e-91
-1.09008e-91
-1.36789e-86
-1.74233e-94
-1.56632e-95
-3.86503e-90
-4.82362e-98
-6.66371e-99
-4.55898e-94
-5.73316e-102
-1.5751e-103
-1.64033e-97
-1.83019e-105
-2.65281e-108
-3.10733e-102
-3.63051e-110
-2.59377e-114
-3.91999e-107
-5.15745e-115
-1.02971e-121
-3.23232e-113
-4.2752e-121
-7.09963e-129
-1.15839e-120
-1.45222e-128
-9.46762e-133
-5.99284e-128
-8.61251e-136
-5.89229e-132
-3.79011e-132
-2.65824e-140
-1.10038e-130
-7.69417e-131
-1.01954e-139
-3.75209e-130
-1.27168e-139
1.19849e-11
-7.13657e-09
-3.62337e-16
1.70611e-11
-2.13488e-08
5.45384e-17
9.13835e-10
-3.7291e-08
9.1279e-16
6.36791e-10
-5.17181e-08
2.7783e-15
5.68648e-10
-5.98731e-08
-1.90924e-14
1.46168e-09
-8.09188e-08
-1.24463e-14
2.05634e-09
-9.33285e-08
-1.76809e-14
2.47579e-09
-9.87886e-08
-1.64218e-14
2.76538e-09
-9.5294e-08
-1.84917e-14
2.9602e-09
-1.01446e-07
-1.84012e-14
1.92885e-09
-1.04661e-07
-1.63622e-14
1.35953e-09
-7.63896e-08
-6.82897e-15
5.37469e-10
-4.42268e-08
-2.24676e-15
4.84962e-11
-1.0136e-08
-4.37519e-16
7.66038e-13
-6.02302e-10
-2.34991e-17
3.17307e-15
-2.69814e-12
-9.54373e-20
1.0919e-17
-5.20817e-15
-2.13304e-22
2.03325e-20
-1.04873e-17
-4.12431e-25
1.43446e-23
-1.07125e-20
-4.8692e-28
4.5563e-34
-2.57909e-24
-2.15382e-31
9.42378e-37
3.17947e-30
7.02687e-38