/*--------------------------------*- C++ -*----------------------------------*\
| =========                 |                                                 |
| \\      /  F ield         | OpenFOAM: The Open Source CFD Toolbox           |
|  \\    /   O peration     | Version:  v2012                                 |
|   \\  /    A nd           | Website:  www.openfoam.com                      |
|    \\/     M anipulation  |                                                 |
\*---------------------------------------------------------------------------*/
FoamFile
{
    version     2.0;
    format      ascii;
    class       surfaceScalarField;
    location    "0.6";
    object      phi;
}
// * * * * * * * * * * * * * * * * * * * * * * * * * * * * * * * * * * * * * //

dimensions      [0 3 -1 0 0 0 0];
oriented        oriented;


internalField   nonuniform List<scalar> 
8134
(
-3.52876e-08
-7.93007e-09
-2.70595e-15
-2.85014e-08
-6.78611e-09
-2.36301e-15
-2.26565e-08
-5.84496e-09
-2.19698e-15
-1.76123e-08
-5.04422e-09
-2.13897e-15
-1.32626e-08
-4.34963e-09
-1.91031e-15
-9.52534e-09
-3.7373e-09
-1.57618e-15
-6.33153e-09
-3.19381e-09
-1.30161e-15
-3.6218e-09
-2.70972e-09
-1.1965e-15
-1.34243e-09
-2.27937e-09
-9.89422e-16
5.56891e-10
-1.89932e-09
-9.98392e-16
2.12111e-09
-1.56422e-09
-1.01467e-15
3.39208e-09
-1.27097e-09
-1.08068e-15
4.40776e-09
-1.01567e-09
-7.93867e-16
5.20282e-09
-7.95088e-10
-7.57212e-16
5.8083e-09
-6.05492e-10
-6.27658e-16
6.25158e-09
-4.43284e-10
-6.21923e-16
6.5567e-09
-3.05119e-10
-6.20825e-16
6.74463e-09
-1.87911e-10
-4.15255e-16
6.83356e-09
-8.89403e-11
-2.98097e-16
6.83848e-09
-4.94653e-12
-1.68936e-16
6.77348e-09
6.50034e-11
-8.08318e-17
6.64923e-09
1.2423e-10
-6.87446e-17
6.47497e-09
1.74304e-10
-6.36789e-17
6.25772e-09
2.17219e-10
-7.2223e-17
6.00311e-09
2.54633e-10
-8.93567e-17
5.71475e-09
2.88342e-10
-1.31669e-16
5.395e-09
3.19751e-10
-1.99444e-16
5.04494e-09
3.5009e-10
-2.45869e-16
4.66445e-09
3.80456e-10
-2.61237e-16
4.25369e-09
4.1077e-10
-3.05398e-16
3.81307e-09
4.40617e-10
-2.97157e-16
3.34502e-09
4.68033e-10
-2.81022e-16
2.85512e-09
4.89912e-10
-2.57921e-16
2.35308e-09
5.02029e-10
-2.20562e-16
1.85386e-09
4.99226e-10
-1.39747e-16
1.37644e-09
4.77422e-10
1.99093e-16
9.41626e-10
4.34806e-10
4.91165e-16
5.68403e-10
3.73223e-10
4.76021e-16
2.70144e-10
2.9826e-10
-3.13557e-16
5.28412e-11
2.17306e-10
-7.83559e-16
-7.5957e-11
1.28801e-10
-6.15042e-16
-9.82309e-11
2.22763e-11
-1.90771e-16
-9.82302e-11
2.91194e-16
-4.47391e-08
-1.5317e-08
-5.91414e-15
-3.79296e-08
-1.35955e-08
-5.2606e-15
-3.1628e-08
-1.21466e-08
-4.79051e-15
-2.57819e-08
-1.08904e-08
-4.65636e-15
-2.03534e-08
-9.77802e-09
-4.35172e-15
-1.532e-08
-8.77075e-09
-3.91608e-15
-1.0668e-08
-7.84585e-09
-3.5594e-15
-6.39156e-09
-6.98613e-09
-3.27712e-15
-2.48868e-09
-6.18226e-09
-2.85877e-15
1.04187e-09
-5.42987e-09
-2.71335e-15
4.19991e-09
-4.72226e-09
-2.59673e-15
6.98993e-09
-4.06098e-09
-2.51905e-15
9.41767e-09
-3.44341e-09
-1.98922e-15
1.14934e-08
-2.87083e-09
-1.41871e-15
1.32312e-08
-2.34337e-09
-1.14955e-15
1.46488e-08
-1.8609e-09
-1.04794e-15
1.57667e-08
-1.42298e-09
-1.14559e-15
1.66074e-08
-1.02857e-09
-9.80623e-16
1.71945e-08
-6.76032e-10
-8.31976e-16
1.75524e-08
-3.62949e-10
-6.84498e-16
1.77039e-08
-8.64511e-11
-5.82484e-16
1.76715e-08
1.56503e-10
-5.51831e-16
1.74756e-08
3.70364e-10
-5.27201e-16
1.71329e-08
5.59854e-10
-5.16144e-16
1.6658e-08
7.29524e-10
-5.13398e-16
1.60615e-08
8.84765e-10
-5.34153e-16
1.5351e-08
1.03028e-09
-5.62359e-16
1.45307e-08
1.1705e-09
-6.00961e-16
1.36013e-08
1.30972e-09
-5.71608e-16
1.25637e-08
1.4484e-09
-6.65976e-16
1.14185e-08
1.58584e-09
-5.74648e-16
1.01708e-08
1.7157e-09
-4.722e-16
8.83368e-09
1.82704e-09
-4.73328e-16
7.43169e-09
1.90399e-09
-3.82236e-16
6.00495e-09
1.92598e-09
-2.90013e-16
4.60741e-09
1.87496e-09
1.19928e-16
3.30182e-09
1.74039e-09
5.52722e-16
2.14982e-09
1.52522e-09
5.49075e-16
1.19973e-09
1.24835e-09
-3.9385e-16
4.80782e-10
9.36259e-10
-7.93355e-16
1.66061e-11
5.92979e-10
-6.90915e-16
-1.44821e-10
1.83706e-10
-3.3055e-16
-2.4305e-10
1.52052e-16
-4.31182e-08
-2.13111e-08
-7.44997e-15
-3.73594e-08
-1.93542e-08
-6.63863e-15
-3.18382e-08
-1.76678e-08
-6.12864e-15
-2.65449e-08
-1.61837e-08
-5.85334e-15
-2.14689e-08
-1.4854e-08
-5.47523e-15
-1.66031e-08
-1.36365e-08
-5.04652e-15
-1.19451e-08
-1.25039e-08
-4.73728e-15
-7.49813e-09
-1.1433e-08
-4.46e-15
-3.27076e-09
-1.04096e-08
-4.04562e-15
7.24654e-10
-9.42528e-09
-3.87593e-15
4.47064e-09
-8.46824e-09
-3.71712e-15
7.95152e-09
-7.54185e-09
-3.55792e-15
1.11486e-08
-6.64052e-09
-2.89933e-15
1.40456e-08
-5.76781e-09
-2.02838e-15
1.66288e-08
-4.92666e-09
-1.66799e-15
1.88887e-08
-4.12074e-09
-1.51519e-15
2.082e-08
-3.35435e-09
-1.67108e-15
2.2423e-08
-2.63147e-09
-1.55476e-15
2.37025e-08
-1.95554e-09
-1.40967e-15
2.4668e-08
-1.3286e-09
-1.23539e-15
2.53333e-08
-7.5165e-10
-1.11682e-15
2.57135e-08
-2.23825e-10
-1.0647e-15
2.58265e-08
2.57566e-10
-1.02332e-15
2.56891e-08
6.97106e-10
-9.95649e-16
2.53178e-08
1.1009e-09
-9.77947e-16
2.47253e-08
1.47719e-09
-9.8922e-16
2.39214e-08
1.83413e-09
-1.00679e-15
2.2912e-08
2.18004e-09
-1.02293e-15
2.16979e-08
2.5237e-09
-9.36192e-16
2.02793e-08
2.86706e-09
-1.09862e-15
1.86553e-08
3.20981e-09
-9.29519e-16
1.68308e-08
3.54012e-09
-7.39406e-16
1.4822e-08
3.83587e-09
-7.70123e-16
1.26629e-08
4.06304e-09
-6.40628e-16
1.04138e-08
4.17517e-09
-5.95907e-16
8.16042e-09
4.1283e-09
-1.6123e-16
6.00849e-09
3.8923e-09
-4.59866e-17
4.06778e-09
3.46593e-09
-4.82806e-17
2.43073e-09
2.8854e-09
-5.93339e-16
1.15938e-09
2.20761e-09
-7.10605e-16
2.97074e-10
1.45529e-09
-3.89464e-16
-8.99917e-11
5.70774e-10
-4.07707e-16
-3.33041e-10
-3.60906e-17
-3.94659e-08
-2.6025e-08
-7.14456e-15
-3.4731e-08
-2.4089e-08
-6.44104e-15
-3.00379e-08
-2.23609e-08
-5.89534e-15
-2.54205e-08
-2.08012e-08
-5.93227e-15
-2.08971e-08
-1.93774e-08
-5.82407e-15
-1.64783e-08
-1.80553e-08
-5.57843e-15
-1.21702e-08
-1.6812e-08
-5.34821e-15
-7.9789e-09
-1.56244e-08
-5.0528e-15
-3.91153e-09
-1.4477e-08
-4.63323e-15
2.00882e-11
-1.33569e-08
-4.44113e-15
3.81093e-09
-1.22591e-08
-4.28574e-15
7.43872e-09
-1.11696e-08
-4.10059e-15
1.0887e-08
-1.00888e-08
-3.352e-15
1.41356e-08
-9.01641e-09
-2.45721e-15
1.71627e-08
-7.95381e-09
-2.0932e-15
1.99462e-08
-6.90422e-09
-1.97084e-15
2.24646e-08
-5.8728e-09
-2.1588e-15
2.46988e-08
-4.86553e-09
-2.07653e-15
2.66322e-08
-3.88904e-09
-1.94027e-15
2.82528e-08
-2.94931e-09
-1.75928e-15
2.9553e-08
-2.0518e-09
-1.63313e-15
3.05291e-08
-1.20005e-09
-1.56335e-15
3.1182e-08
-3.9518e-10
-1.5065e-15
3.15149e-08
3.64119e-10
-1.46303e-15
3.15337e-08
1.08216e-09
-1.42961e-15
3.12439e-08
1.76689e-09
-1.42666e-15
3.06498e-08
2.42826e-09
-1.42707e-15
2.97525e-08
3.07752e-09
-1.42108e-15
2.85482e-08
3.72774e-09
-1.27752e-15
2.70325e-08
4.38293e-09
-1.50253e-15
2.51984e-08
5.04383e-09
-1.27442e-15
2.30455e-08
5.69295e-09
-1.00494e-15
2.05866e-08
6.29481e-09
-1.0598e-15
1.78579e-08
6.79171e-09
-8.79093e-16
1.49323e-08
7.10081e-09
-8.9867e-16
1.19227e-08
7.13788e-09
-4.39227e-16
8.97713e-09
6.83783e-09
-3.33104e-16
6.25894e-09
6.18413e-09
-3.77018e-16
3.91487e-09
5.22947e-09
-6.17972e-16
2.05006e-09
4.07243e-09
-7.54313e-16
7.32383e-10
2.77297e-09
-2.17659e-16
4.23392e-11
1.26082e-09
-8.25475e-17
-2.90701e-10
3.85576e-17
-3.54254e-08
-2.96339e-08
-7.40985e-15
-3.16218e-08
-2.78926e-08
-6.61348e-15
-2.77123e-08
-2.62704e-08
-6.03962e-15
-2.37579e-08
-2.47555e-08
-6.00254e-15
-1.98006e-08
-2.33346e-08
-5.78497e-15
-1.58694e-08
-2.19865e-08
-5.55506e-15
-1.19836e-08
-2.06979e-08
-5.38871e-15
-8.15706e-09
-1.94509e-08
-5.17016e-15
-4.40031e-09
-1.82337e-08
-4.81527e-15
-7.22027e-10
-1.70352e-08
-4.65138e-15
2.86758e-09
-1.58487e-08
-4.50413e-15
6.36093e-09
-1.4663e-08
-4.32157e-15
9.74653e-09
-1.34744e-08
-3.50313e-15
1.3011e-08
-1.22809e-08
-2.72528e-15
1.61385e-08
-1.10814e-08
-2.41635e-15
1.91106e-08
-9.87625e-09
-2.37944e-15
2.1906e-08
-8.66819e-09
-2.58462e-15
2.45017e-08
-7.46121e-09
-2.53491e-15
2.68735e-08
-6.26086e-09
-2.41304e-15
2.8997e-08
-5.0729e-09
-2.23876e-15
3.0849e-08
-3.90379e-09
-2.11141e-15
3.24078e-08
-2.75896e-09
-2.02938e-15
3.36548e-08
-1.64196e-09
-1.95965e-15
3.45735e-08
-5.54799e-10
-1.9029e-15
3.51503e-08
5.05515e-10
-1.85598e-15
3.53728e-08
1.54425e-09
-1.83933e-15
3.52302e-08
2.57079e-09
-1.82227e-15
3.47102e-08
3.59773e-09
-1.79728e-15
3.37964e-08
4.64137e-09
-1.60227e-15
3.24713e-08
5.70808e-09
-1.87373e-15
3.0715e-08
6.80005e-09
-1.60458e-15
2.85131e-08
7.89479e-09
-1.26927e-15
2.58654e-08
8.94257e-09
-1.3459e-15
2.27994e-08
9.85769e-09
-1.11079e-15
1.93894e-08
1.05108e-08
-1.18498e-15
1.57663e-08
1.0761e-08
-6.92722e-16
1.21163e-08
1.04877e-08
-6.15649e-16
8.65974e-09
9.64072e-09
-5.35765e-16
5.60756e-09
8.28165e-09
-7.06077e-16
3.12008e-09
6.55992e-09
-7.07932e-16
1.29779e-09
4.59527e-09
-6.93257e-16
2.34573e-10
2.32403e-09
7.65965e-17
-5.61276e-11
4.64041e-17
-3.13209e-08
-3.2301e-08
-6.92314e-15
-2.83485e-08
-3.08649e-08
-5.92656e-15
-2.51655e-08
-2.94533e-08
-5.49267e-15
-2.1845e-08
-2.80761e-08
-5.84807e-15
-1.84424e-08
-2.67372e-08
-5.78732e-15
-1.49999e-08
-2.5429e-08
-5.66963e-15
-1.15485e-08
-2.41493e-08
-5.5274e-15
-8.11148e-09
-2.28879e-08
-5.28079e-15
-4.70589e-09
-2.16393e-08
-4.89109e-15
-1.34443e-09
-2.03966e-08
-4.69055e-15
1.96172e-09
-1.91548e-08
-4.52675e-15
5.20622e-09
-1.79075e-08
-4.34169e-15
8.38201e-09
-1.66502e-08
-3.49653e-15
1.1482e-08
-1.53809e-08
-2.90584e-15
1.44982e-08
-1.40977e-08
-2.67689e-15
1.74208e-08
-1.27988e-08
-2.73606e-15
2.02369e-08
-1.14844e-08
-2.94817e-15
2.29309e-08
-1.01551e-08
-2.9204e-15
2.54831e-08
-8.81307e-09
-2.81259e-15
2.78707e-08
-7.46063e-09
-2.65101e-15
3.00681e-08
-6.10125e-09
-2.52727e-15
3.20471e-08
-4.73801e-09
-2.43723e-15
3.3778e-08
-3.37268e-09
-2.35823e-15
3.52307e-08
-2.0077e-09
-2.29237e-15
3.63748e-08
-6.38458e-10
-2.23624e-15
3.71784e-08
7.40566e-10
-2.20907e-15
3.761e-08
2.1392e-09
-2.17743e-15
3.76372e-08
3.57063e-09
-2.1375e-15
3.72241e-08
5.05429e-09
-1.90313e-15
3.63322e-08
6.60008e-09
-2.20349e-15
3.49192e-08
8.21294e-09
-1.90983e-15
3.29464e-08
9.8675e-09
-1.52442e-15
3.03883e-08
1.15008e-08
-1.62038e-15
2.72487e-08
1.29972e-08
-1.33376e-15
2.35873e-08
1.41722e-08
-1.44917e-15
1.95376e-08
1.48107e-08
-9.16605e-16
1.53143e-08
1.4711e-08
-8.66169e-16
1.11929e-08
1.37622e-08
-7.16929e-16
7.45649e-09
1.20181e-08
-7.98736e-16
4.33371e-09
9.6827e-09
-7.91897e-16
1.96919e-09
6.9598e-09
-8.32898e-16
4.77387e-10
3.81582e-09
1.0919e-16
4.2126e-10
7.88867e-17
-2.73947e-08
-3.42209e-08
-6.69285e-15
-2.51198e-08
-3.31398e-08
-5.92392e-15
-2.25745e-08
-3.19986e-08
-5.51997e-15
-1.98304e-08
-3.08203e-08
-5.75007e-15
-1.69464e-08
-2.96212e-08
-5.67859e-15
-1.39709e-08
-2.84045e-08
-5.54443e-15
-1.09417e-08
-2.71784e-08
-5.4246e-15
-7.88901e-09
-2.59406e-08
-5.23234e-15
-4.83599e-09
-2.46923e-08
-4.88717e-15
-1.80039e-09
-2.34322e-08
-4.70253e-15
1.20345e-09
-2.21587e-08
-4.54172e-15
4.16672e-09
-2.08707e-08
-4.3465e-15
7.08259e-09
-1.95661e-08
-3.49318e-15
9.94604e-09
-1.82444e-08
-3.07938e-15
1.27535e-08
-1.69051e-08
-2.9187e-15
1.55011e-08
-1.55464e-08
-3.04653e-15
1.81843e-08
-1.41675e-08
-3.24738e-15
2.07962e-08
-1.2767e-08
-3.22722e-15
2.33272e-08
-1.1344e-08
-3.12931e-15
2.57633e-08
-9.89685e-09
-2.98076e-15
2.80865e-08
-8.42446e-09
-2.86198e-15
3.02734e-08
-6.92498e-09
-2.76683e-15
3.22958e-08
-5.39486e-09
-2.68262e-15
3.41209e-08
-3.83304e-09
-2.61272e-15
3.57121e-08
-2.22952e-09
-2.55277e-15
3.70275e-08
-5.7499e-10
-2.51946e-15
3.802e-08
1.14671e-09
-2.47808e-15
3.86381e-08
2.95276e-09
-2.42806e-15
3.88248e-08
4.86737e-09
-2.17061e-15
3.85172e-08
6.90776e-09
-2.48388e-15
3.76449e-08
9.08518e-09
-2.1813e-15
3.61359e-08
1.13764e-08
-1.7626e-15
3.39267e-08
1.37101e-08
-1.87428e-15
3.09815e-08
1.59424e-08
-1.54417e-15
2.73246e-08
1.78291e-08
-1.69131e-15
2.30708e-08
1.90645e-08
-1.11952e-15
1.84451e-08
1.93367e-08
-1.09279e-15
1.37694e-08
1.84379e-08
-8.98779e-16
9.40188e-09
1.63856e-08
-8.70478e-16
5.65179e-09
1.34328e-08
-8.83095e-16
2.72217e-09
9.88944e-09
-6.39565e-16
7.5932e-10
5.77866e-09
-1.06011e-17
1.18058e-09
1.22338e-16
-2.37513e-08
-3.55586e-08
-7.12076e-15
-2.20463e-08
-3.48447e-08
-6.21122e-15
-2.00437e-08
-3.40012e-08
-5.72799e-15
-1.78072e-08
-3.30568e-08
-5.75655e-15
-1.5393e-08
-3.20353e-08
-5.74234e-15
-1.28498e-08
-3.09478e-08
-5.59632e-15
-1.02182e-08
-2.981e-08
-5.47715e-15
-7.53195e-09
-2.86268e-08
-5.28167e-15
-4.81834e-09
-2.7406e-08
-4.91566e-15
-2.09906e-09
-2.61515e-08
-4.69934e-15
6.08182e-10
-2.48659e-08
-4.51836e-15
3.29132e-09
-2.35539e-08
-4.30994e-15
5.94135e-09
-2.22161e-08
-3.489e-15
8.5525e-09
-2.08556e-08
-3.24609e-15
1.11217e-08
-1.94743e-08
-3.13728e-15
1.36475e-08
-1.80723e-08
-3.30203e-15
1.61296e-08
-1.66496e-08
-3.47707e-15
1.85674e-08
-1.52047e-08
-3.4541e-15
2.09591e-08
-1.37358e-08
-3.36192e-15
2.33007e-08
-1.22385e-08
-3.22475e-15
2.55843e-08
-1.07081e-08
-3.11053e-15
2.7797e-08
-9.13778e-09
-3.01225e-15
2.992e-08
-7.51772e-09
-2.92628e-15
3.19282e-08
-5.84134e-09
-2.85647e-15
3.37888e-08
-4.09008e-09
-2.79707e-15
3.54619e-08
-2.24817e-09
-2.76127e-15
3.68979e-08
-2.89258e-10
-2.71507e-15
3.80355e-08
1.81526e-09
-2.65986e-15
3.88039e-08
4.09877e-09
-2.39642e-15
3.912e-08
6.59185e-09
-2.70986e-15
3.88863e-08
9.31869e-09
-2.41113e-15
3.79955e-08
1.22672e-08
-1.97636e-15
3.63385e-08
1.53672e-08
-2.09968e-15
3.38255e-08
1.84553e-08
-1.73842e-15
3.04248e-08
2.12299e-08
-1.91111e-15
2.62062e-08
2.32831e-08
-1.30777e-15
2.13793e-08
2.41635e-08
-1.30045e-15
1.62939e-08
2.35233e-08
-1.07164e-15
1.13789e-08
2.13006e-08
-9.65831e-16
7.03265e-09
1.77791e-08
-1.00897e-15
3.53208e-09
1.339e-08
-5.20161e-16
1.06999e-09
8.24074e-09
-2.84815e-16
2.25057e-09
1.574e-16
-2.04581e-08
-3.64602e-08
-6.6361e-15
-1.92035e-08
-3.60993e-08
-6.07899e-15
-1.76488e-08
-3.55559e-08
-5.81474e-15
-1.58465e-08
-3.48591e-08
-5.70828e-15
-1.38458e-08
-3.4036e-08
-5.61666e-15
-1.16923e-08
-3.31013e-08
-5.48567e-15
-9.42561e-09
-3.20767e-08
-5.3648e-15
-7.08044e-09
-3.0972e-08
-5.21386e-15
-4.68583e-09
-2.98006e-08
-4.89419e-15
-2.26579e-09
-2.85715e-08
-4.70125e-15
1.59309e-10
-2.7291e-08
-4.53121e-15
2.57549e-09
-2.597e-08
-4.31515e-15
4.97037e-09
-2.4611e-08
-3.53704e-15
7.3366e-09
-2.32218e-08
-3.41984e-15
9.6697e-09
-2.18074e-08
-3.33338e-15
1.19679e-08
-2.03705e-08
-3.50207e-15
1.42318e-08
-1.89134e-08
-3.64049e-15
1.64635e-08
-1.74363e-08
-3.60866e-15
1.86655e-08
-1.59379e-08
-3.51962e-15
2.08401e-08
-1.44132e-08
-3.39239e-15
2.29882e-08
-1.28561e-08
-3.28211e-15
2.51069e-08
-1.12565e-08
-3.18205e-15
2.71887e-08
-9.59941e-09
-3.09631e-15
2.92204e-08
-7.87315e-09
-3.02844e-15
3.11805e-08
-6.05012e-09
-2.97159e-15
3.30387e-08
-4.10647e-09
-2.93527e-15
3.47536e-08
-2.00417e-09
-2.8877e-15
3.62695e-08
2.99582e-10
-2.83092e-15
3.75126e-08
2.8554e-09
-2.57621e-15
3.83914e-08
5.71319e-09
-2.87878e-15
3.87913e-08
8.91871e-09
-2.59303e-15
3.85754e-08
1.2483e-08
-2.15886e-15
3.75907e-08
1.6352e-08
-2.29032e-15
3.56869e-08
2.03589e-08
-1.91253e-15
3.27599e-08
2.4157e-08
-2.1052e-15
2.88086e-08
2.72345e-08
-1.48391e-15
2.39956e-08
2.89765e-08
-1.49059e-15
1.86714e-08
2.88474e-08
-1.23346e-15
1.33206e-08
2.66514e-08
-1.07499e-15
8.43309e-09
2.26666e-08
-1.15049e-15
4.37403e-09
1.74491e-08
-6.08739e-16
1.39949e-09
1.12153e-08
-8.88968e-16
3.65007e-09
1.63839e-16
-1.75288e-08
-7.02009e-15
-1.66241e-08
-6.51293e-15
-1.54321e-08
-3.67478e-08
-6.09743e-15
-1.39937e-08
-3.62976e-08
-5.85819e-15
-1.23499e-08
-3.56798e-08
-5.68098e-15
-1.05405e-08
-3.49107e-08
-5.63304e-15
-8.60237e-09
-3.40148e-08
-5.49305e-15
-6.56881e-09
-3.30055e-08
-5.34318e-15
-4.46891e-09
-3.19005e-08
-4.99194e-15
-2.32742e-09
-3.0713e-08
-4.75802e-15
-1.66202e-10
-2.94522e-08
-4.55772e-15
1.99986e-09
-2.81361e-08
-4.32401e-15
4.15557e-09
-2.67667e-08
-3.5972e-15
6.29195e-09
-2.53582e-08
-3.57984e-15
8.40263e-09
-2.39181e-08
-3.49544e-15
1.04844e-08
-2.24523e-08
-3.64879e-15
1.25369e-08
-2.09659e-08
-3.74853e-15
1.45622e-08
-1.94616e-08
-3.70625e-15
1.65642e-08
-1.79399e-08
-3.61898e-15
1.85482e-08
-1.63973e-08
-3.50054e-15
2.05197e-08
-1.48276e-08
-3.39387e-15
2.2483e-08
-1.32199e-08
-3.29307e-15
2.44399e-08
-1.15562e-08
-3.20806e-15
2.63883e-08
-9.82168e-09
-3.14179e-15
2.83196e-08
-7.98138e-09
-3.08686e-15
3.02172e-08
-6.00415e-09
-3.04971e-15
3.20534e-08
-3.8404e-09
-3.00261e-15
3.37863e-08
-1.43311e-09
-2.9457e-15
3.53541e-08
1.28739e-09
-2.71027e-15
3.66696e-08
4.39784e-09
-2.99406e-15
3.76156e-08
7.97261e-09
-2.72535e-15
3.804e-08
1.20584e-08
-2.30609e-15
3.77569e-08
1.66353e-08
-2.44272e-15
3.65599e-08
2.15557e-08
-2.06374e-15
3.42657e-08
2.64512e-08
-2.27306e-15
3.07819e-08
3.07183e-08
-1.65108e-15
2.61923e-08
3.3566e-08
-1.66624e-15
2.08134e-08
3.42263e-08
-1.38672e-15
1.51608e-08
3.23039e-08
-1.1899e-15
9.80953e-09
2.80179e-08
-1.28559e-15
5.22304e-09
2.20356e-08
-7.04099e-16
1.73805e-09
1.47002e-08
-1.21912e-15
5.38812e-09
9.82045e-17
-1.3416e-08
-3.76514e-08
-5.61437e-15
-1.22773e-08
-3.74363e-08
-5.68411e-15
-1.0936e-08
-3.70211e-08
-5.5633e-15
-9.42563e-09
-3.64211e-08
-5.47259e-15
-7.77852e-09
-3.56619e-08
-5.34823e-15
-6.02533e-09
-3.47587e-08
-5.24479e-15
-4.19377e-09
-3.3732e-08
-4.95821e-15
-2.30826e-09
-3.25985e-08
-4.75985e-15
-3.9011e-10
-3.13704e-08
-4.58038e-15
1.54313e-09
-3.00694e-08
-4.35612e-15
3.47699e-09
-2.87005e-08
-3.68559e-15
5.40038e-09
-2.72816e-08
-3.73611e-15
7.30533e-09
-2.58231e-08
-3.63355e-15
9.18694e-09
-2.43339e-08
-3.75227e-15
1.10433e-08
-2.28223e-08
-3.81691e-15
1.28754e-08
-2.12936e-08
-3.76432e-15
1.46865e-08
-1.9751e-08
-3.67822e-15
1.64821e-08
-1.8193e-08
-3.56643e-15
1.82697e-08
-1.66152e-08
-3.46449e-15
2.00571e-08
-1.50073e-08
-3.36357e-15
2.18517e-08
-1.33507e-08
-3.27849e-15
2.36597e-08
-1.16297e-08
-3.21197e-15
2.54831e-08
-9.80471e-09
-3.15623e-15
2.73183e-08
-7.83951e-09
-3.11629e-15
2.9153e-08
-5.67505e-09
-3.06958e-15
3.09621e-08
-3.24205e-09
-3.01261e-15
3.27027e-08
-4.53453e-10
-2.80187e-15
3.43046e-08
2.79606e-09
-3.06131e-15
3.56624e-08
6.61479e-09
-2.81139e-15
3.66259e-08
1.10948e-08
-2.4173e-15
3.69939e-08
1.62674e-08
-2.55639e-15
3.65193e-08
2.20302e-08
-2.18989e-15
3.4945e-08
2.80256e-08
-2.41281e-15
3.20776e-08
3.35858e-08
-1.81e-15
2.78958e-08
3.77477e-08
-1.82611e-15
2.2645e-08
3.94771e-08
-1.52993e-15
1.68384e-08
3.81105e-08
-1.29904e-15
1.11197e-08
3.37366e-08
-1.36281e-15
6.05445e-09
2.71008e-08
-7.45789e-16
2.07593e-09
1.86787e-08
-1.13094e-15
7.46405e-09
-3.04458e-17
-1.16061e-08
-3.83289e-08
-6.00019e-15
-1.07111e-08
-3.83313e-08
-5.80292e-15
-9.62304e-09
-3.81091e-08
-5.71714e-15
-8.36897e-09
-3.76752e-08
-5.59899e-15
-6.97634e-09
-3.70546e-08
-5.4819e-15
-5.47226e-09
-3.62628e-08
-5.38692e-15
-3.88222e-09
-3.53221e-08
-5.07472e-15
-2.22935e-09
-3.42513e-08
-4.84087e-15
-5.34212e-10
-3.30655e-08
-4.63502e-15
1.18539e-09
-3.17889e-08
-4.3997e-15
2.91487e-09
-3.043e-08
-3.78216e-15
4.64215e-09
-2.9009e-08
-3.87396e-15
6.35814e-09
-2.75391e-08
-3.74564e-15
8.05653e-09
-2.60323e-08
-3.82604e-15
9.73389e-09
-2.44997e-08
-3.85946e-15
1.13896e-08
-2.29493e-08
-3.79778e-15
1.30257e-08
-2.13872e-08
-3.71239e-15
1.46468e-08
-1.98141e-08
-3.60462e-15
1.62599e-08
-1.82283e-08
-3.50698e-15
1.78738e-08
-1.66213e-08
-3.40773e-15
1.94986e-08
-1.49753e-08
-3.32167e-15
2.11448e-08
-1.32761e-08
-3.25196e-15
2.28218e-08
-1.14816e-08
-3.19265e-15
2.4536e-08
-9.55379e-09
-3.14777e-15
2.62881e-08
-7.42714e-09
-3.10021e-15
2.80693e-08
-5.02313e-09
-3.04231e-15
2.9857e-08
-2.24131e-09
-2.85681e-15
3.16039e-08
1.04924e-09
-3.08949e-15
3.32269e-08
4.99172e-09
-2.85679e-15
3.45933e-08
9.72828e-09
-2.49412e-15
3.55067e-08
1.53541e-08
-2.63294e-15
3.57004e-08
2.18365e-08
-2.29049e-15
3.48605e-08
2.88656e-08
-2.5241e-15
3.26966e-08
3.57497e-08
-1.94662e-15
2.90663e-08
4.1378e-08
-1.97124e-15
2.41101e-08
4.44333e-08
-1.66481e-15
1.83007e-08
4.39199e-08
-1.40561e-15
1.23242e-08
3.97131e-08
-1.42804e-15
6.84458e-09
3.25805e-08
-7.98758e-16
2.40353e-09
2.31198e-08
-6.22965e-16
9.86758e-09
-2.40068e-16
-9.99843e-09
-3.88313e-08
-5.65474e-15
-9.29915e-09
-3.90306e-08
-5.58104e-15
-8.42069e-09
-3.89875e-08
-5.60073e-15
-7.38399e-09
-3.87119e-08
-5.46058e-15
-6.21151e-09
-3.8227e-08
-5.35411e-15
-4.92648e-09
-3.75478e-08
-5.29268e-15
-3.5516e-09
-3.6697e-08
-5.0301e-15
-2.10815e-09
-3.56948e-08
-4.83089e-15
-6.15528e-10
-3.45582e-08
-4.64913e-15
9.09125e-10
-3.33136e-08
-4.43284e-15
2.45138e-09
-3.19722e-08
-3.88195e-15
3.99889e-09
-3.05565e-08
-3.99384e-15
5.5419e-09
-2.90821e-08
-3.83844e-15
7.07312e-09
-2.75635e-08
-3.8813e-15
8.58788e-09
-2.60144e-08
-3.88637e-15
1.00842e-08
-2.44455e-08
-3.81668e-15
1.15625e-08
-2.28655e-08
-3.73179e-15
1.30259e-08
-2.12777e-08
-3.62577e-15
1.44804e-08
-1.96828e-08
-3.53118e-15
1.5934e-08
-1.80749e-08
-3.43248e-15
1.7397e-08
-1.64382e-08
-3.34533e-15
1.88819e-08
-1.4761e-08
-3.27117e-15
2.04016e-08
-1.30013e-08
-3.20669e-15
2.19689e-08
-1.11212e-08
-3.15577e-15
2.35941e-08
-9.05233e-09
-3.10583e-15
2.52816e-08
-6.71053e-09
-3.04562e-15
2.70264e-08
-3.98628e-09
-2.88343e-15
2.88044e-08
-7.28647e-10
-3.08636e-15
3.05598e-08
3.23628e-09
-2.8684e-15
3.21875e-08
8.10045e-09
-2.53971e-15
3.35128e-08
1.4029e-08
-2.67559e-15
3.42721e-08
2.10771e-08
-2.36513e-15
3.41195e-08
2.90182e-08
-2.60491e-15
3.26837e-08
3.71855e-08
-2.06467e-15
2.96985e-08
4.43631e-08
-2.09825e-15
2.5175e-08
4.89569e-08
-1.78879e-15
1.95065e-08
4.95884e-08
-1.5088e-15
1.3389e-08
4.58306e-08
-1.50153e-15
7.57159e-09
3.8398e-08
-8.8636e-16
2.71166e-09
2.79797e-08
-6.05614e-16
1.25792e-08
-3.0718e-16
-8.58218e-09
-3.91997e-08
-6.30422e-15
-8.03865e-09
-3.95741e-08
-5.9795e-15
-7.33204e-09
-3.96941e-08
-5.75414e-15
-6.47798e-09
-3.95659e-08
-5.54397e-15
-5.49428e-09
-3.92107e-08
-5.41998e-15
-4.40021e-09
-3.86419e-08
-5.35403e-15
-3.21541e-09
-3.78818e-08
-5.08941e-15
-1.95897e-09
-3.69512e-08
-4.8822e-15
-6.48771e-10
-3.58684e-08
-4.69125e-15
6.99128e-10
-3.46615e-08
-4.47276e-15
2.07082e-09
-3.33439e-08
-3.96879e-15
3.45418e-09
-3.19398e-08
-4.08867e-15
4.83925e-09
-3.04672e-08
-3.91102e-15
6.21818e-09
-2.89424e-08
-3.92223e-15
7.58539e-09
-2.73816e-08
-3.90397e-15
8.93773e-09
-2.57978e-08
-3.82757e-15
1.02744e-08
-2.42021e-08
-3.74296e-15
1.1597e-08
-2.26003e-08
-3.63687e-15
1.29098e-08
-2.09956e-08
-3.54437e-15
1.42196e-08
-1.93848e-08
-3.44431e-15
1.55358e-08
-1.77544e-08
-3.35524e-15
1.68706e-08
-1.60959e-08
-3.27644e-15
1.82381e-08
-1.43687e-08
-3.20641e-15
1.96543e-08
-1.25374e-08
-3.149e-15
2.11351e-08
-1.05331e-08
-3.09517e-15
2.26943e-08
-8.26961e-09
-3.03146e-15
2.43404e-08
-5.63258e-09
-2.88889e-15
2.60691e-08
-2.45724e-09
-3.05973e-15
2.78512e-08
1.45415e-09
-2.85317e-15
2.96135e-08
6.33806e-09
-2.55888e-15
3.12138e-08
1.24288e-08
-2.68923e-15
3.24117e-08
1.98791e-08
-2.41593e-15
3.28552e-08
2.85748e-08
-2.65785e-15
3.21171e-08
3.79235e-08
-2.16548e-15
2.98189e-08
4.66612e-08
-2.20832e-15
2.58291e-08
5.29467e-08
-1.90336e-15
2.04287e-08
5.49887e-08
-1.60972e-15
1.42867e-08
5.19727e-08
-1.58467e-15
8.21639e-09
4.44683e-08
-9.90151e-16
2.99186e-09
3.32042e-08
-8.68383e-16
1.55711e-08
-3.5582e-16
-7.34291e-09
-3.94664e-08
-5.86641e-15
-6.92224e-09
-3.99948e-08
-5.75081e-15
-6.35542e-09
-4.02609e-08
-5.6333e-15
-5.65367e-09
-4.02677e-08
-5.4522e-15
-4.83062e-09
-4.00338e-08
-5.33856e-15
-3.90182e-09
-3.95707e-08
-5.27825e-15
-2.88378e-09
-3.88998e-08
-5.04002e-15
-1.79321e-09
-3.80418e-08
-4.85926e-15
-6.46224e-10
-3.70153e-08
-4.6876e-15
5.42379e-10
-3.58501e-08
-4.4868e-15
1.7595e-09
-3.45611e-08
-4.03114e-15
2.99358e-09
-3.31739e-08
-4.15689e-15
4.23482e-09
-3.17084e-08
-3.96588e-15
5.47516e-09
-3.01828e-08
-3.95223e-15
6.7085e-09
-2.8615e-08
-3.9155e-15
7.93083e-09
-2.70201e-08
-3.8336e-15
9.14028e-09
-2.54116e-08
-3.74924e-15
1.03372e-08
-2.37972e-08
-3.6419e-15
1.15243e-08
-2.21828e-08
-3.55085e-15
1.27069e-08
-2.05674e-08
-3.44818e-15
1.38928e-08
-1.89402e-08
-3.35668e-15
1.5093e-08
-1.72961e-08
-3.27315e-15
1.63212e-08
-1.55968e-08
-3.19755e-15
1.75939e-08
-1.38102e-08
-3.13334e-15
1.89299e-08
-1.18691e-08
-3.07444e-15
2.03484e-08
-9.688e-09
-3.00648e-15
2.18673e-08
-7.15161e-09
-2.87924e-15
2.34969e-08
-4.08681e-09
-3.01665e-15
2.52307e-08
-2.79654e-10
-2.81839e-15
2.70263e-08
4.54234e-09
-2.55637e-15
2.87789e-08
1.06763e-08
-2.67893e-15
3.02842e-08
1.83737e-08
-2.44402e-15
3.12078e-08
2.76513e-08
-2.68467e-15
3.10957e-08
3.80357e-08
-2.24609e-15
2.94787e-08
4.82781e-08
-2.29879e-15
2.60837e-08
5.63417e-08
-2.00537e-15
2.10548e-08
6.00176e-08
-1.70457e-15
1.49976e-08
5.80299e-08
-1.66896e-15
8.76339e-09
5.07025e-08
-1.09912e-15
3.23676e-09
3.87308e-08
-9.98014e-16
1.88079e-08
-4.00655e-16
-6.26438e-09
-3.9657e-08
-6.27524e-15
-5.93991e-09
-4.03193e-08
-5.99476e-15
-5.48603e-09
-4.07148e-08
-5.76811e-15
-4.91045e-09
-4.08433e-08
-5.49333e-15
-4.22325e-09
-4.0721e-08
-5.34384e-15
-3.43659e-09
-4.03573e-08
-5.27313e-15
-2.56399e-09
-3.97724e-08
-5.04295e-15
-1.61969e-09
-3.89861e-08
-4.87257e-15
-6.1793e-10
-3.80171e-08
-4.70384e-15
4.27888e-10
-3.68959e-08
-4.50726e-15
1.50563e-09
-3.56388e-08
-4.08459e-15
2.60448e-09
-3.42728e-08
-4.20462e-15
3.71509e-09
-3.28191e-08
-4.00623e-15
4.8295e-09
-3.12972e-08
-3.97397e-15
5.94139e-09
-2.97269e-08
-3.9231e-15
7.0462e-09
-2.81249e-08
-3.83674e-15
8.14125e-09
-2.65066e-08
-3.75244e-15
9.22583e-09
-2.48819e-08
-3.64303e-15
1.03015e-08
-2.32584e-08
-3.55296e-15
1.13718e-08
-2.16378e-08
-3.44705e-15
1.24432e-08
-2.00114e-08
-3.35272e-15
1.35248e-08
-1.83779e-08
-3.26465e-15
1.46291e-08
-1.67011e-08
-3.18362e-15
1.57719e-08
-1.4953e-08
-3.11261e-15
1.69721e-08
-1.30694e-08
-3.04784e-15
1.82516e-08
-1.09674e-08
-2.97528e-15
1.96337e-08
-8.53377e-09
-2.85918e-15
2.11386e-08
-5.5917e-09
-2.96446e-15
2.27769e-08
-1.91795e-09
-2.77012e-15
2.45327e-08
2.78647e-09
-2.53604e-15
2.63376e-08
8.87147e-09
-2.64859e-15
2.803e-08
1.66811e-08
-2.45189e-15
2.93106e-08
2.63708e-08
-2.68971e-15
2.97265e-08
3.76198e-08
-2.3139e-15
2.87464e-08
4.92581e-08
-2.37262e-15
2.59683e-08
5.91198e-08
-2.09637e-15
2.13863e-08
6.45996e-08
-1.7942e-15
1.55109e-08
6.39054e-08
-1.75136e-15
9.20116e-09
5.70123e-08
-1.22126e-15
3.44035e-09
4.44915e-08
-1.08293e-15
2.22482e-08
-4.40655e-16
-5.32996e-09
-3.97911e-08
-5.9496e-15
-5.0803e-09
-4.0569e-08
-5.81177e-15
-4.71714e-09
-4.10779e-08
-5.7111e-15
-4.24546e-09
-4.1315e-08
-5.4452e-15
-3.67247e-09
-4.1294e-08
-5.30359e-15
-3.00741e-09
-4.10224e-08
-5.22864e-15
-2.261e-09
-4.05188e-08
-5.00117e-15
-1.44507e-09
-3.9802e-08
-4.84365e-15
-5.71932e-10
-3.88902e-08
-4.68721e-15
3.46494e-10
-3.78143e-08
-4.5062e-15
1.29911e-09
-3.65914e-08
-4.12025e-15
2.27595e-09
-3.52496e-08
-4.23403e-15
3.26827e-09
-3.38114e-08
-4.03492e-15
4.26846e-09
-3.22974e-08
-3.98899e-15
5.27021e-09
-3.07286e-08
-3.92735e-15
6.26868e-09
-2.91234e-08
-3.83757e-15
7.26066e-09
-2.74986e-08
-3.75342e-15
8.24463e-09
-2.58659e-08
-3.64148e-15
9.22109e-09
-2.42349e-08
-3.55199e-15
1.01924e-08
-2.26091e-08
-3.44259e-15
1.11633e-08
-2.09823e-08
-3.34544e-15
1.21413e-08
-1.9356e-08
-3.253e-15
1.31371e-08
-1.76969e-08
-3.16678e-15
1.4165e-08
-1.59809e-08
-3.08919e-15
1.5243e-08
-1.41473e-08
-3.01804e-15
1.63929e-08
-1.21173e-08
-2.9408e-15
1.76406e-08
-9.78154e-09
-2.83227e-15
1.90122e-08
-6.96324e-09
-2.9061e-15
2.05297e-08
-3.43548e-09
-2.71255e-15
2.21979e-08
1.11821e-09
-2.50011e-15
2.39804e-08
7.08902e-09
-2.59646e-15
2.5759e-08
1.49024e-08
-2.43712e-15
2.72798e-08
2.48501e-08
-2.67316e-15
2.81142e-08
3.67854e-08
-2.36687e-15
2.76992e-08
4.9673e-08
-2.42807e-15
2.5526e-08
6.1293e-08
-2.17345e-15
2.14375e-08
6.86881e-08
-1.87534e-15
1.58243e-08
6.95187e-08
-1.82752e-15
9.52278e-09
6.33138e-08
-1.34923e-15
3.5983e-09
5.0416e-08
-1.15169e-15
2.58465e-08
-4.75233e-16
-4.5234e-09
-3.98838e-08
-6.19287e-15
-4.33157e-09
-4.07608e-08
-6.03282e-15
-4.04091e-09
-4.13686e-08
-5.83015e-15
-3.65438e-09
-4.17015e-08
-5.46593e-15
-3.17692e-09
-4.17714e-08
-5.28013e-15
-2.61535e-09
-4.1584e-08
-5.19362e-15
-1.97794e-09
-4.11562e-08
-4.97839e-15
-1.27422e-09
-4.05057e-08
-4.8361e-15
-5.14547e-10
-3.96499e-08
-4.68747e-15
2.90662e-10
-3.86196e-08
-4.51463e-15
1.1314e-09
-3.74322e-08
-4.15704e-15
1.99856e-09
-3.61168e-08
-4.25827e-15
2.88409e-09
-3.46969e-08
-4.05849e-15
3.78088e-09
-3.31941e-08
-3.99979e-15
4.68284e-09
-3.16306e-08
-3.92922e-15
5.58507e-09
-3.00256e-08
-3.83674e-15
6.48403e-09
-2.83976e-08
-3.75266e-15
7.37766e-09
-2.67595e-08
-3.63802e-15
8.2656e-09
-2.51228e-08
-3.54873e-15
9.14918e-09
-2.34928e-08
-3.4359e-15
1.00318e-08
-2.18648e-08
-3.33594e-15
1.09195e-08
-2.02437e-08
-3.2394e-15
1.1821e-08
-1.85983e-08
-3.14833e-15
1.27487e-08
-1.69087e-08
-3.06451e-15
1.37189e-08
-1.51175e-08
-2.98661e-15
1.47524e-08
-1.31507e-08
-2.90504e-15
1.58749e-08
-1.09041e-08
-2.80071e-15
1.71153e-08
-8.2036e-09
-2.84428e-15
1.85025e-08
-4.82278e-09
-2.64712e-15
2.0056e-08
-4.35254e-10
-2.44364e-15
2.1765e-08
5.38001e-09
-2.51689e-15
2.35512e-08
1.31162e-08
-2.39512e-15
2.521e-08
2.31914e-08
-2.63566e-15
2.63535e-08
3.56419e-08
-2.40038e-15
2.64156e-08
4.96108e-08
-2.46944e-15
2.48083e-08
6.29003e-08
-2.23915e-15
2.12326e-08
7.22638e-08
-1.94964e-15
1.59431e-08
7.48082e-08
-1.89866e-15
9.72587e-09
6.9531e-08
-1.45844e-15
3.70805e-09
5.64338e-08
-1.21077e-15
2.95546e-08
-5.05763e-16
-3.82943e-09
-3.99464e-08
-5.73389e-15
-3.68203e-09
-4.09082e-08
-5.76583e-15
-3.44908e-09
-4.16015e-08
-5.64494e-15
-3.13202e-09
-4.20186e-08
-5.37515e-15
-2.73411e-09
-4.21693e-08
-5.22016e-15
-2.26021e-09
-4.20579e-08
-5.12694e-15
-1.71654e-09
-4.16999e-08
-4.93087e-15
-1.11052e-09
-4.11117e-08
-4.80311e-15
-4.50617e-10
-4.03098e-08
-4.66612e-15
2.54285e-10
-3.93245e-08
-4.50721e-15
9.95309e-10
-3.81732e-08
-4.18206e-15
1.76421e-09
-3.68857e-08
-4.27435e-15
2.55363e-09
-3.54863e-08
-4.07649e-15
3.35703e-09
-3.39975e-08
-4.00643e-15
4.16868e-09
-3.24422e-08
-3.92858e-15
4.98383e-09
-3.08407e-08
-3.83433e-15
5.79878e-09
-2.92126e-08
-3.7506e-15
6.61109e-09
-2.75719e-08
-3.63311e-15
7.41983e-09
-2.59316e-08
-3.54385e-15
8.22546e-09
-2.42984e-08
-3.42772e-15
9.03031e-09
-2.26696e-08
-3.32507e-15
9.83899e-09
-2.10525e-08
-3.22467e-15
1.06586e-08
-1.94179e-08
-3.12911e-15
1.14995e-08
-1.77496e-08
-3.03946e-15
1.2376e-08