/*--------------------------------*- C++ -*----------------------------------*\
| =========                 |                                                 |
| \\      /  F ield         | OpenFOAM: The Open Source CFD Toolbox           |
|  \\    /   O peration     | Version:  v2012                                 |
|   \\  /    A nd           | Website:  www.openfoam.com                      |
|    \\/     M anipulation  |                                                 |
\*---------------------------------------------------------------------------*/
FoamFile
{
    version     2.0;
    format      ascii;
    class       surfaceScalarField;
    location    "0.7";
    object      phi;
}
// * * * * * * * * * * * * * * * * * * * * * * * * * * * * * * * * * * * * * //

dimensions      [0 3 -1 0 0 0 0];
oriented        oriented;


internalField   nonuniform List<scalar> 
6514
(
1.04167e-10
-2.403e-10
1.77337e-16
1.09224e-10
-2.47005e-10
1.24206e-16
1.13636e-10
-2.52429e-10
1.09192e-16
1.17325e-10
-2.5651e-10
9.40836e-17
1.2023e-10
-2.59188e-10
9.24029e-17
1.22302e-10
-2.60503e-10
8.4862e-17
1.23514e-10
-2.60423e-10
6.96817e-17
1.23852e-10
-2.59019e-10
5.55654e-17
1.23323e-10
-2.56354e-10
3.11038e-17
1.21951e-10
-2.52504e-10
5.93128e-18
1.19773e-10
-2.47574e-10
-2.0565e-17
1.1684e-10
-2.41672e-10
-4.97846e-17
1.13215e-10
-2.34925e-10
-7.59107e-17
1.08967e-10
-2.27445e-10
-1.06243e-16
1.04177e-10
-2.19358e-10
-1.33442e-16
9.89233e-11
-2.10772e-10
-1.53986e-16
9.32919e-11
-2.0175e-10
-1.66305e-16
8.73611e-11
-1.92496e-10
-1.67279e-16
8.12146e-11
-1.82959e-10
-1.63368e-16
7.49264e-11
-1.73308e-10
-1.52348e-16
6.85704e-11
-1.63509e-10
-1.41116e-16
6.22149e-11
-1.53599e-10
-1.30367e-16
5.59177e-11
-1.43684e-10
-1.20444e-16
4.97392e-11
-1.33625e-10
-1.10525e-16
4.37277e-11
-1.23497e-10
-1.05905e-16
3.79315e-11
-1.13217e-10
-8.79953e-17
3.23926e-11
-1.02763e-10
-6.43127e-17
2.71484e-11
-9.21108e-11
-3.29666e-17
2.22371e-11
-8.11737e-11
1.14501e-18
1.76938e-11
-6.99567e-11
3.66975e-17
1.35534e-11
-5.84781e-11
6.26291e-17
9.8543e-12
-4.68063e-11
7.7012e-17
6.63947e-12
-3.51266e-11
7.64877e-17
3.96124e-12
-2.37925e-11
6.02013e-17
1.88868e-12
-1.3373e-11
3.59259e-17
5.20969e-13
-4.83069e-12
4.75188e-18
3.65515e-13
-1.4081e-17
1.10081e-10
-2.45938e-10
1.29357e-16
1.15088e-10
-2.52012e-10
1.24856e-16
1.19375e-10
-2.56716e-10
9.16698e-17
1.22869e-10
-2.60004e-10
8.60703e-17
1.25512e-10
-2.61831e-10
8.30663e-17
1.27265e-10
-2.62256e-10
7.31562e-17
1.28108e-10
-2.61266e-10
6.20926e-17
1.28039e-10
-2.5895e-10
4.63304e-17
1.27074e-10
-2.5539e-10
2.72318e-17
1.25249e-10
-2.50678e-10
2.23839e-18
1.2261e-10
-2.44936e-10
-2.07894e-17
1.19222e-10
-2.38283e-10
-4.92843e-17
1.15154e-10
-2.30858e-10
-7.4185e-17
1.10486e-10
-2.22777e-10
-1.03465e-16
1.05302e-10
-2.14174e-10
-1.29294e-16
9.96885e-11
-2.05159e-10
-1.50149e-16
9.37343e-11
-1.95796e-10
-1.63272e-16
8.752e-11
-1.86282e-10
-1.66911e-16
8.11304e-11
-1.7657e-10
-1.64826e-16
7.46392e-11
-1.66817e-10
-1.56594e-16
6.81195e-11
-1.5699e-10
-1.47128e-16
6.16379e-11
-1.47117e-10
-1.3661e-16
5.52497e-11
-1.37296e-10
-1.25858e-16
4.90127e-11
-1.27388e-10
-1.153e-16
4.29724e-11
-1.17457e-10
-1.03853e-16
3.7174e-11
-1.07419e-10
-8.58883e-17
3.16566e-11
-9.72455e-11
-6.39626e-17
2.64547e-11
-8.69087e-11
-3.4987e-17
2.16035e-11
-7.63221e-11
-4.76279e-18
1.71351e-11
-6.54877e-11
2.81159e-17
1.30813e-11
-5.44238e-11
5.28845e-17
9.47706e-12
-4.32014e-11
6.83279e-17
6.36085e-12
-3.20099e-11
7.02825e-17
3.77927e-12
-2.12106e-11
5.76665e-17
1.79347e-12
-1.13871e-11
3.72194e-17
4.91159e-13
-3.52865e-12
8.72951e-18
8.5615e-13
-1.40993e-17
1.16315e-10
-2.51562e-10
1.67591e-16
1.21227e-10
-2.56924e-10
1.23939e-16
1.25341e-10
-2.60831e-10
9.09148e-17
1.28588e-10
-2.63251e-10
8.48053e-17
1.30917e-10
-2.64161e-10
7.13552e-17
1.32298e-10
-2.63637e-10
6.66712e-17
1.32722e-10
-2.61689e-10
4.7156e-17
1.32196e-10
-2.58425e-10
3.84193e-17
1.30752e-10
-2.53946e-10
1.47906e-17
1.28435e-10
-2.48361e-10
-4.45283e-18
1.25306e-10
-2.41806e-10
-2.95941e-17
1.21436e-10
-2.34413e-10
-5.37315e-17
1.16907e-10
-2.26328e-10
-7.95457e-17
1.11804e-10
-2.17676e-10
-1.05474e-16
1.06221e-10
-2.08591e-10
-1.31148e-16
1.00246e-10
-1.99185e-10
-1.49867e-16
9.39722e-11
-1.89521e-10
-1.6367e-16
8.74811e-11
-1.79792e-10
-1.6728e-16
8.08581e-11
-1.69946e-10
-1.66626e-16
7.41761e-11
-1.60135e-10
-1.59043e-16
6.75065e-11
-1.5032e-10
-1.50478e-16
6.09134e-11
-1.40523e-10
-1.39898e-16
5.44494e-11
-1.30832e-10
-1.28689e-16
4.8169e-11
-1.21107e-10
-1.16611e-16
4.21148e-11
-1.11403e-10
-1.01208e-16
3.63284e-11
-1.01632e-10
-8.28947e-17
3.08458e-11
-9.17627e-11
-6.21143e-17
2.56985e-11
-8.17612e-11
-3.66199e-17
2.09187e-11
-7.15419e-11
-9.86683e-18
1.65354e-11
-6.1104e-11
1.93315e-17
1.25775e-11
-5.04655e-11
4.20702e-17
9.07611e-12
-3.96996e-11
5.72189e-17
6.06562e-12
-2.8999e-11
6.08818e-17
3.58677e-12
-1.87315e-11
5.16687e-17
1.69274e-12
-9.49304e-12
3.41899e-17
4.5933e-13
-2.29545e-12
8.70606e-18
1.3151e-12
-1.5388e-17
1.22874e-10
-2.5713e-10
1.47042e-16
1.27642e-10
-2.61692e-10
1.04156e-16
1.31528e-10
-2.64717e-10
8.6794e-17
1.34469e-10
-2.66193e-10
6.75436e-17
1.36425e-10
-2.66117e-10
6.99106e-17
1.37377e-10
-2.64588e-10
5.23371e-17
1.37325e-10
-2.61637e-10
4.30639e-17
1.36294e-10
-2.57394e-10
2.56209e-17
1.34326e-10
-2.51978e-10
9.63376e-18
1.3148e-10
-2.45515e-10
-1.49312e-17
1.27828e-10
-2.38154e-10
-3.5096e-17
1.23453e-10
-2.30038e-10
-6.22129e-17
1.18446e-10
-2.21321e-10
-8.40215e-17
1.129e-10
-2.12131e-10
-1.10503e-16
1.06913e-10
-2.02604e-10
-1.33066e-16
1.00578e-10
-1.92851e-10
-1.51792e-16
9.39904e-11
-1.82933e-10
-1.6405e-16
8.72322e-11
-1.73034e-10
-1.68357e-16
8.03884e-11
-1.63102e-10
-1.67761e-16
7.353e-11
-1.53277e-10
-1.60994e-16
6.67262e-11
-1.43516e-10
-1.52272e-16
6.00381e-11
-1.33835e-10
-1.41458e-16
5.35147e-11
-1.24309e-10
-1.29903e-16
4.72074e-11
-1.148e-10
-1.16427e-16
4.11548e-11
-1.0535e-10
-9.85891e-17
3.53952e-11
-9.58727e-11
-7.91975e-17
2.99612e-11
-8.63283e-11
-5.97676e-17
2.48811e-11
-7.6681e-11
-3.71783e-17
2.0184e-11
-6.68444e-11
-1.33451e-17
1.58961e-11
-5.68157e-11
1.24118e-17
1.2043e-11
-4.66121e-11
3.34694e-17
8.65246e-12
-3.63087e-11
4.85501e-17
5.75456e-12
-2.61007e-11
5.42609e-17
3.38427e-12
-1.6361e-11
4.91079e-17
1.58679e-12
-7.6955e-12
3.65029e-17
4.25772e-13
-1.13458e-12
1.56572e-17
1.74057e-12
-4.81946e-18
1.29763e-10
-2.62586e-10
8.95973e-17
1.34327e-10
-2.66255e-10
9.93285e-17
1.37921e-10
-2.68311e-10
6.36006e-17
1.40492e-10
-2.68764e-10
7.81219e-17
1.42011e-10
-2.67635e-10
5.57381e-17
1.4247e-10
-2.65047e-10
5.67725e-17
1.41887e-10
-2.61053e-10
3.09933e-17
1.40297e-10
-2.55805e-10
2.49281e-17
1.3776e-10
-2.49441e-10
-5.74195e-19
1.34347e-10
-2.42102e-10
-1.81414e-17
1.30143e-10
-2.3395e-10
-4.3673e-17
1.25243e-10
-2.25138e-10
-6.66054e-17
1.19744e-10
-2.15822e-10
-9.09348e-17
1.13748e-10
-2.06135e-10
-1.14255e-16
1.07356e-10
-1.96213e-10
-1.37329e-16
1.00667e-10
-1.86162e-10
-1.54186e-16
9.37744e-11
-1.7604e-10
-1.66815e-16
8.67618e-11
-1.66022e-10
-1.70944e-16
7.97123e-11
-1.56053e-10
-1.71011e-16
7.26945e-11
-1.46259e-10
-1.64693e-16
6.57743e-11
-1.36596e-10
-1.56229e-16
5.90093e-11
-1.27069e-10
-1.45289e-16
5.24447e-11
-1.17744e-10
-1.32863e-16
4.61276e-11
-1.08482e-10
-1.1886e-16
4.00931e-11
-9.93153e-11
-9.8073e-17
3.43757e-11
-9.01551e-11
-7.89265e-17
2.90044e-11
-8.09566e-11
-6e-17
2.40043e-11
-7.16807e-11
-3.88855e-17
1.94013e-11
-6.22412e-11
-1.75074e-17
1.52188e-11
-5.26329e-11
6.2259e-18
1.14794e-11
-4.28725e-11
2.5736e-17
8.20735e-12
-3.30364e-11
4.0789e-17
5.42859e-12
-2.33218e-11
4.7545e-17
3.17242e-12
-1.41046e-11
4.45903e-17
1.47603e-12
-5.99906e-12
3.38528e-17
3.90868e-13
-4.9522e-14
1.51321e-17
2.13123e-12
-7.6832e-18
1.3698e-10
-2.6787e-10
9.54251e-17
1.41272e-10
-2.70547e-10
4.99628e-17
1.44503e-10
-2.71542e-10
7.78718e-17
1.46632e-10
-2.70893e-10
4.7449e-17
1.47642e-10
-2.68645e-10
6.16732e-17
1.47543e-10
-2.64948e-10
3.5929e-17
1.46366e-10
-2.59876e-10
3.03331e-17
1.44166e-10
-2.53605e-10
9.3069e-18
1.41015e-10
-2.4629e-10
-4.43761e-18
1.36999e-10
-2.38087e-10
-3.01552e-17
1.32217e-10
-2.29168e-10
-4.90842e-17
1.26772e-10
-2.19692e-10
-7.63122e-17
1.20771e-10
-2.09821e-10
-9.67492e-17
1.14322e-10
-1.99687e-10
-1.21554e-16
1.0753e-10
-1.89421e-10
-1.41752e-16
1.00494e-10
-1.79126e-10
-1.58715e-16
9.331e-11
-1.68856e-10
-1.69768e-16
8.6059e-11
-1.58772e-10
-1.74017e-16
7.8822e-11
-1.48815e-10
-1.73655e-16
7.16641e-11
-1.39101e-10
-1.67471e-16
6.46475e-11
-1.29579e-10
-1.58771e-16
5.78255e-11
-1.20247e-10
-1.47388e-16
5.12388e-11
-1.11158e-10
-1.34393e-16
4.49305e-11
-1.02173e-10
-1.19552e-16
3.89313e-11
-9.33159e-11
-9.77984e-17
3.32718e-11
-8.44954e-11
-7.80683e-17
2.79776e-11
-7.5662e-11
-5.94289e-17
2.30702e-11
-6.67732e-11
-3.9977e-17
1.85728e-11
-5.77436e-11
-2.03381e-17
1.45056e-11
-4.85655e-11
8.96839e-19
1.08884e-11
-3.92552e-11
1.90204e-17
7.74222e-12
-2.98901e-11
3.35391e-17
5.08882e-12
-2.06682e-11
4.13134e-17
2.95195e-12
-1.19676e-11
4.0762e-17
1.36088e-12
-4.40794e-12
3.31023e-17
3.54807e-13
9.56473e-13
1.76583e-17
2.48589e-12
-2.16737e-18
1.44518e-10
-2.72907e-10
5.59753e-17
1.48459e-10
-2.74487e-10
9.9768e-17
1.51247e-10
-2.74331e-10
3.48678e-17
1.52854e-10
-2.725e-10
6.73693e-17
1.5328e-10
-2.69071e-10
3.28568e-17
1.52552e-10
-2.64219e-10
4.2029e-17
1.5072e-10
-2.58044e-10
1.01623e-17
1.47855e-10
-2.5074e-10
8.28015e-18
1.44046e-10
-2.42481e-10
-1.95549e-17
1.39394e-10
-2.33435e-10
-3.49912e-17
1.34009e-10
-2.23783e-10
-6.12828e-17
1.28006e-10
-2.13688e-10
-8.28125e-17
1.21497e-10
-2.03313e-10
-1.06666e-16
1.14597e-10
-1.92787e-10
-1.27756e-16
1.07412e-10
-1.82236e-10
-1.48819e-16
1.00043e-10
-1.71757e-10
-1.63367e-16
9.25839e-11
-1.61397e-10
-1.74513e-16
8.5114e-11
-1.51302e-10
-1.77691e-16
7.77105e-11
-1.41411e-10
-1.77487e-16
7.04345e-11
-1.31826e-10
-1.70951e-16
6.33435e-11
-1.22488e-10
-1.62239e-16
5.6486e-11
-1.13389e-10
-1.50459e-16
4.9898e-11
-1.0457e-10
-1.37107e-16
4.36177e-11
-9.58926e-11
-1.21292e-16
3.76716e-11
-8.73696e-11
-9.89256e-17
3.20862e-11
-7.89099e-11
-7.91641e-17
2.68835e-11
-7.04588e-11
-6.09255e-17
2.20818e-11
-6.19713e-11
-4.2157e-17
1.77011e-11
-5.33627e-11
-2.37683e-17
1.37589e-11
-4.46232e-11
-3.65686e-18
1.02722e-11
-3.57684e-11
1.35036e-17
7.25877e-12
-2.68766e-11
2.80286e-17
4.73651e-12
-1.81459e-11
3.64186e-17
2.72371e-12
-9.95477e-12
3.73788e-17
1.24177e-12
-2.92596e-12
3.10715e-17
3.17723e-13
1.88048e-12
1.71896e-17
2.80353e-12
-3.24695e-18
1.52365e-10
-2.77613e-10
1.2434e-16
1.55866e-10
-2.77988e-10
2.39161e-17
1.5812e-10
-2.76585e-10
7.48491e-17
1.59118e-10
-2.73498e-10
2.21263e-17
1.58878e-10
-2.68831e-10
4.7145e-17
1.57447e-10
-2.62788e-10
1.16415e-17
1.54896e-10
-2.55492e-10
1.07452e-17
1.51313e-10
-2.47158e-10
-1.36826e-17
1.46805e-10
-2.37972e-10
-2.46937e-17
1.41487e-10
-2.28117e-10
-5.14588e-17
1.3548e-10
-2.17776e-10
-6.87032e-17
1.28908e-10
-2.07116e-10
-9.57868e-17
1.21892e-10
-1.96297e-10
-1.14568e-16
1.14546e-10
-1.85442e-10
-1.3777e-16
1.06982e-10
-1.74671e-10
-1.55427e-16
9.92966e-11
-1.64073e-10
-1.70299e-16
9.15839e-11
-1.53683e-10
-1.79344e-16
8.39181e-11
-1.43637e-10
-1.82425e-16
7.63724e-11
-1.33865e-10
-1.81149e-16
6.90028e-11
-1.24456e-10
-1.74445e-16
6.18615e-11
-1.15346e-10
-1.65121e-16
5.49916e-11
-1.06518e-10
-1.52858e-16
4.8424e-11
-9.80021e-11
-1.38727e-16
4.21918e-11
-8.966e-11
-1.22986e-16
3.63171e-11
-8.14947e-11
-1.00007e-16
3.08223e-11
-7.34148e-11
-8.04589e-17
2.57256e-11
-6.53617e-11
-6.21679e-17
2.10422e-11
-5.72878e-11
-4.41236e-17
1.67893e-11
-4.91095e-11
-2.65791e-17
1.29814e-11
-4.08152e-11
-7.86203e-18
9.63303e-12
-3.242e-11
8.47883e-18
6.75889e-12
-2.40024e-11
2.26207e-17
4.37307e-12
-1.576e-11
3.1599e-17
2.48863e-12
-8.07029e-12
3.39274e-17
1.11921e-12
-1.55651e-12
2.94027e-17
2.79709e-13
2.71996e-12
1.74144e-17
3.0832e-12
-1.62498e-18
1.60494e-10
-2.81887e-10
-1.91707e-17
1.63454e-10
-2.80948e-10
8.47063e-17
1.65076e-10
-2.78208e-10
-4.67855e-18
1.6537e-10
-2.73793e-10
4.82031e-17
1.64379e-10
-2.6784e-10
1.90755e-18
1.6217e-10
-2.60579e-10
1.96151e-17
1.58836e-10
-2.52157e-10
-1.79756e-17
1.54484e-10
-2.42806e-10
-1.53196e-17
1.49238e-10
-2.32727e-10
-4.52089e-17
1.43228e-10
-2.22107e-10
-5.81613e-17
1.36585e-10
-2.11134e-10
-8.48577e-17
1.29442e-10
-1.99972e-10
-1.04493e-16
1.21923e-10
-1.88777e-10
-1.27496e-16
1.14145e-10
-1.77665e-10
-1.46168e-16
1.06219e-10
-1.66745e-10
-1.6498e-16
9.82407e-11
-1.56095e-10
-1.76943e-16
9.02992e-11
-1.45741e-10
-1.85973e-16
8.24643e-11
-1.35803e-10
-1.87334e-16
7.48037e-11
-1.26205e-10
-1.8582e-16
6.73675e-11
-1.1702e-10
-1.78154e-16
6.02019e-11
-1.0818e-10
-1.68496e-16
5.33441e-11
-9.96602e-11
-1.55597e-16
4.68196e-11
-9.14776e-11
-1.41154e-16
4.06563e-11
-8.34963e-11
-1.24279e-16
3.48718e-11
-7.571e-11
-1.01947e-16
2.94842e-11
-6.8027e-11
-8.23898e-17
2.45081e-11
-6.03853e-11
-6.42806e-17
1.99556e-11
-5.27352e-11
-4.6513e-17
1.58409e-11
-4.49947e-11
-2.93539e-17
1.21763e-11
-3.71506e-11
-1.12009e-17
8.97363e-12
-2.92173e-11
4.61727e-18
6.24471e-12
-2.12735e-11
1.86773e-17
4.0001e-12
-1.35154e-11
2.79617e-17
2.24776e-12
-6.31795e-12
3.13053e-17
9.93733e-13
-3.02465e-13
2.78105e-17
2.40895e-13
3.4728e-12
1.70311e-17
3.32409e-12
-1.55498e-18
1.68875e-10
-2.85618e-10
1.20563e-16
1.71181e-10
-2.83254e-10
-1.96877e-17
1.72061e-10
-2.79088e-10
6.19107e-17
1.7155e-10
-2.73283e-10
-1.05292e-17
1.69717e-10
-2.66006e-10
2.5909e-17
1.66653e-10
-2.57515e-10
-1.88887e-17
1.62473e-10
-2.47976e-10
-1.54206e-17
1.57305e-10
-2.37639e-10
-4.29778e-17
1.51288e-10
-2.26711e-10
-5.12914e-17
1.44567e-10
-2.15385e-10
-7.88405e-17
1.37282e-10
-2.03848e-10
-9.41227e-17
1.2957e-10
-1.9226e-10
-1.20555e-16
1.2156e-10
-1.80767e-10
-1.37255e-16
1.13369e-10
-1.69475e-10
-1.58542e-16
1.05106e-10
-1.58482e-10
-1.73369e-16
9.68615e-11
-1.47851e-10
-1.8582e-16
8.87209e-11
-1.376e-10
-1.92301e-16
8.07474e-11
-1.2783e-10
-1.93404e-16
7.30022e-11
-1.18459e-10
-1.90362e-16
6.55287e-11
-1.09547e-10
-1.82243e-16
5.83666e-11
-1.01018e-10
-1.7169e-16
5.15469e-11
-9.284e-11
-1.58154e-16
4.50893e-11
-8.502e-11
-1.42846e-16
3.90162e-11
-7.74228e-11
-1.26199e-16
3.33408e-11
-7.00344e-11
-1.03698e-16
2.80769e-11
-6.27628e-11
-8.45102e-17
2.32356e-11
-5.55437e-11
-6.62808e-17
1.88262e-11
-4.83256e-11
-4.86824e-17
1.48601e-11
-4.10285e-11
-3.18144e-17
1.13472e-11
-3.36376e-11
-1.43412e-17
8.29695e-12
-2.61672e-11
9.99088e-19
5.71861e-12
-1.86952e-11
1.4785e-17
3.61935e-12
-1.14162e-11
2.43423e-17
2.00226e-12
-4.70088e-12
2.85144e-17
8.65959e-13
8.3384e-13
2.61475e-17
2.01437e-13
4.13734e-12
1.66469e-17
3.52556e-12
-1.2498e-18
1.77455e-10
-2.88676e-10
-3.23886e-17
1.7898e-10
-2.8478e-10
9.47967e-17
1.79001e-10
-2.79109e-10
-3.351e-17
1.77581e-10
-2.71863e-10
2.98539e-17
1.74814e-10
-2.63239e-10
-2.89857e-17
1.70819e-10
-2.5352e-10
-6.20407e-18
1.65735e-10
-2.42891e-10
-5.009e-17
1.59708e-10
-2.31612e-10
-4.40908e-17
1.52895e-10
-2.19898e-10
-7.58629e-17
1.4545e-10
-2.0794e-10
-8.65527e-17
1.37523e-10
-1.95921e-10
-1.13211e-16
1.29254e-10
-1.83991e-10
-1.30632e-16
1.20773e-10
-1.72286e-10
-1.52328e-16
1.12195e-10
-1.60898e-10
-1.68328e-16
1.03624e-10
-1.49911e-10
-1.84667e-16
9.51477e-11
-1.39375e-10
-1.93724e-16
8.68422e-11
-1.29294e-10
-2.00239e-16
7.87643e-11
-1.19752e-10
-1.99224e-16
7.09678e-11
-1.10662e-10
-1.95724e-16
6.34887e-11
-1.02068e-10
-1.86275e-16
5.63596e-11
-9.38888e-11
-1.75167e-16
4.96049e-11
-8.60849e-11
-1.60794e-16
4.32384e-11
-7.86535e-11
-1.45089e-16
3.72772e-11
-7.14612e-11
-1.27345e-16
3.17299e-11
-6.44868e-11
-1.05791e-16
2.66061e-11
-5.76389e-11
-8.66822e-17
2.19138e-11
-5.08511e-11
-6.85171e-17
1.76592e-11
-4.40709e-11
-5.09946e-17
1.38513e-11
-3.72205e-11
-3.41197e-17
1.04979e-11
-3.02842e-11
-1.68916e-17
7.60623e-12
-2.32756e-11
-1.7961e-18
5.18319e-12
-1.62722e-11
1.18531e-17
3.23274e-12
-9.46582e-12
2.15127e-17
1.75338e-12
-3.22157e-12
2.62923e-17
7.36552e-13
1.85067e-12
2.46619e-17
1.61526e-13
4.71239e-12
1.61048e-17
3.68713e-12
-9.93495e-19
1.86171e-10
-2.90916e-10
1.57047e-16
1.86779e-10
-2.85388e-10
-3.50049e-17
1.85814e-10
-2.78145e-10
5.26432e-17
1.83373e-10
-2.69422e-10
-4.00636e-17
1.7958e-10
-2.59447e-10
2.83819e-18
1.74582e-10
-2.48521e-10
-5.04544e-17
1.6854e-10
-2.36848e-10
-4.50336e-17
1.6162e-10
-2.24693e-10
-7.53369e-17
1.53992e-10
-2.12271e-10
-8.16777e-17
1.45822e-10
-1.99769e-10
-1.09787e-16
1.37263e-10
-1.87361e-10
-1.23109e-16
1.28457e-10
-1.75186e-10
-1.48548e-16
1.19533e-10
-1.63361e-10
-1.62916e-16
1.10602e-10
-1.51967e-10
-1.82052e-16
1.01761e-10
-1.4107e-10
-1.93916e-16
9.30905e-11
-1.30704e-10
-2.03676e-16
8.46589e-11
-1.20862e-10
-2.07365e-16
7.65144e-11
-1.11608e-10
-2.06055e-16
6.87026e-11
-1.0285e-10
-2.00754e-16
6.12515e-11
-9.46169e-11
-1.90698e-16
5.41862e-11
-8.68233e-11
-1.785e-16
4.75244e-11
-7.94226e-11
-1.63396e-16
4.12739e-11
-7.2403e-11
-1.4675e-16
3.54464e-11
-6.56333e-11
-1.29099e-16
3.0046e-11
-5.90862e-11
-1.07548e-16
2.50785e-11
-5.26712e-11
-8.87281e-17
2.05487e-11
-4.6321e-11
-7.04405e-17
1.646e-11
-3.99822e-11
-5.29345e-17
1.28195e-11
-3.35799e-11
-3.6109e-17
9.63264e-12
-2.70974e-11
-1.91853e-17
6.90504e-12
-2.05481e-11
-4.34037e-18
4.64125e-12
-1.40085e-11
9.09399e-18
2.84235e-12
-7.66702e-12
1.87971e-17
1.50251e-12
-1.88178e-12
2.40271e-17
6.06243e-13
2.74692e-12
2.31076e-17
1.2138e-13
5.19728e-12
1.5482e-17
3.80857e-12
-1.05321e-18
1.94935e-10
-2.92176e-10
-9.46202e-17
1.94476e-10
-2.84929e-10
7.15175e-17
1.92395e-10
-2.76064e-10
-6.67604e-17
1.88821e-10
-2.65849e-10
4.21682e-18
1.83914e-10
-2.54539e-10
-5.99803e-17
1.77845e-10
-2.42453e-10
-3.49616e-17
1.708e-10
-2.29803e-10
-8.3775e-17
1.62962e-10
-2.16856e-10
-7.55998e-17
1.54515e-10
-2.03823e-10
-1.08613e-16
1.45627e-10
-1.90882e-10
-1.17382e-16
1.36457e-10
-1.78191e-10
-1.43582e-16
1.27146e-10
-1.65874e-10
-1.58739e-16
1.17816e-10
-1.54031e-10
-1.78801e-16
1.08572e-10
-1.42725e-10
-1.92071e-16
9.95053e-11
-1.32003e-10
-2.05797e-16
9.06844e-11
-1.21884e-10
-2.11972e-16
8.21697e-11
-1.12347e-10
-2.15763e-16
7.4e-11
-1.03439e-10
-2.12192e-16
6.62113e-11
-9.5061e-11
-2.06395e-16
5.88236e-11
-8.72292e-11
-1.94825e-16
5.18541e-11
-7.98536e-11
-1.81985e-16
4.53136e-11
-7.28817e-11
-1.65867e-16
3.92041e-11
-6.62935e-11
-1.48759e-16
3.3532e-11
-5.99608e-11
-1.30088e-16
2.82972e-11
-5.38512e-11
-1.09274e-16
2.35016e-11
-4.78754e-11
-9.04861e-17
1.91471e-11
-4.19663e-11
-7.22868e-17
1.5235e-11
-3.60701e-11
-5.48055e-17
1.177e-11
-3.01148e-11
-3.78285e-17
8.75615e-12
-2.40835e-11
-2.09944e-17
6.19722e-12
-1.79893e-11
-6.26015e-18
4.09585e-12
-1.19073e-11
7.00612e-18
2.45045e-12
-6.02173e-12
1.66469e-17
1.25114e-12
-6.8254e-13
2.21434e-17
4.75824e-13
3.52221e-12
2.1644e-17
8.12456e-14
5.59188e-12
1.46932e-17
3.88989e-12
-1.09521e-18
2.03638e-10
-2.92281e-10
1.22746e-16
2.01955e-10
-2.83246e-10
-6.07392e-17
1.98621e-10
-2.7273e-10
3.04638e-17
1.93805e-10
-2.61034e-10
-6.96309e-17
1.87699e-10
-2.48432e-10
-2.37447e-17
1.80503e-10
-2.35256e-10
-8.1419e-17
1.72422e-10
-2.21721e-10
-7.62204e-17
1.63655e-10
-2.0809e-10
-1.07858e-16
1.54393e-10
-1.94561e-10
-1.12877e-16
1.4481e-10
-1.81299e-10
-1.41141e-16
1.35062e-10
-1.68443e-10
-1.52621e-16
1.25286e-10
-1.56098e-10
-1.76861e-16
1.15598e-10
-1.44343e-10
-1.88857e-16
1.06092e-10
-1.3322e-10
-2.05822e-16
9.68488e-11
-1.2276e-10
-2.14757e-16
8.79273e-11
-1.12963e-10
-2.21949e-16
7.9377e-11
-1.03796e-10
-2.22793e-16
7.12261e-11
-9.52882e-11
-2.19026e-16
6.35013e-11
-8.7336e-11
-2.11377e-16
5.62137e-11
-7.99417e-11
-1.99186e-16
4.93728e-11
-7.30125e-11
-1.8516e-16
4.29825e-11
-6.64909e-11
-1.68294e-16
3.7039e-11
-6.035e-11
-1.5017e-16
3.15436e-11
-5.4465e-11
-1.31381e-16
2.64923e-11
-4.87996e-11
-1.1059e-16
2.18836e-11
-4.32665e-11
-9.20126e-17
1.77167e-11
-3.77992e-11
-7.36489e-17
1.39908e-11
-3.23441e-11
-5.61519e-17
1.07088e-11
-2.68328e-11
-3.91361e-17
7.87339e-12
-2.12481e-11
-2.24666e-17
5.4869e-12
-1.56029e-11
-7.89896e-18
3.55025e-12
-9.97072e-12
5.1462e-18
2.05944e-12
-4.53105e-12
1.46713e-17
1.00086e-12
3.7597e-13
2.03326e-17
3.46151e-13
4.17689e-12
2.0226e-17
4.13888e-14
5.89667e-12
1.39293e-17
3.93135e-12
-1.3355e-18
2.12141e-10
-2.9104e-10
-6.61973e-17
2.09068e-10
-2.80174e-10
7.34973e-17
2.04348e-10
-2.6801e-10
-7.78598e-17
1.98186e-10
-2.54873e-10
-1.77678e-17
1.90808e-10
-2.41054e-10
-8.4515e-17
1.8244e-10
-2.26888e-10
-6.2562e-17
1.73306e-10
-2.12586e-10
-1.15368e-16
1.63614e-10
-1.98399e-10
-1.0659e-16
1.5356e-10
-1.84508e-10
-1.40173e-16
1.43318e-10
-1.71057e-10
-1.47493e-16
1.3304e-10
-1.58165e-10
-1.72815e-16
1.22852e-10
-1.4591e-10
-1.85817e-16
1.12861e-10
-1.34352e-10
-2.04083e-16
1.03152e-10
-1.23511e-10
-2.14802e-16
9.37891e-11
-1.13397e-10
-2.26e-16
8.48217e-11
-1.03996e-10
-2.29527e-16
7.62867e-11
-9.52604e-11
-2.30782e-16
6.82016e-11
-8.72035e-11
-2.24714e-16
6.05831e-11
-7.97172e-11
-2.16655e-16
5.34334e-11
-7.27921e-11
-2.0293e-16
4.67542e-11
-6.63332e-11
-1.88301e-16
4.05428e-11
-6.02791e-11
-1.70312e-16
3.47899e-11
-5.4597e-11
-1.51737e-16
2.9492e-11
-4.91667e-11
-1.32088e-16
2.46414e-11
-4.39489e-11
-1.11697e-16
2.02336e-11
-3.88586e-11
-9.29563e-17
1.62656e-11
-3.38309e-11
-7.46656e-17
1.27346e-11
-2.88131e-11
-5.71687e-17
9.64216e-12
-2.37404e-11
-4.00688e-17
6.9897e-12
-1.85957e-11
-2.35055e-17
4.77847e-12
-1.33918e-11
-9.0579e-18
3.0079e-12
-8.20028e-12
3.75092e-18
1.67189e-12
-3.19516e-12
1.30872e-17
7.5336e-13
1.29441e-12
1.87708e-17
2.18137e-13
4.71207e-12
1.88388e-17
2.10382e-15
6.11273e-12
1.29954e-17
3.93353e-12
-1.64719e-18
2.20274e-10
-2.88254e-10
1.2569e-16
2.15648e-10
-2.75548e-10
-4.89633e-17
2.0941e-10
-2.61773e-10
1.43075e-17
2.0181e-10
-2.47273e-10
-8.92973e-17
1.93103e-10
-2.32347e-10
-4.86146e-17
1.83537e-10
-2.17321e-10
-1.07894e-16
1.73349e-10
-2.02398e-10
-1.05772e-16
1.62755e-10
-1.87805e-10
-1.3753e-16
1.51951e-10
-1.73703e-10
-1.4197e-16
1.41103e-10
-1.6021e-10
-1.69926e-16
1.30354e-10
-1.47416e-10
-1.79659e-16
1.19821e-10
-1.35377e-10
-2.02549e-16
1.09595e-10
-1.24126e-10
-2.12251e-16
9.9747e-11
-1.13663e-10
-2.27221e-16
9.03286e-11
-1.03979e-10
-2.33479e-16
8.13743e-11
-9.50421e-11
-2.38424e-16
7.2909e-11
-8.67946e-11
-2.36784e-16
6.49388e-11
-7.92337e-11
-2.30803e-16
5.74701e-11
-7.22482e-11
-2.20933e-16
5.04965e-11
-6.58186e-11
-2.06701e-16
4.40122e-11
-5.98487e-11
-1.90892e-16
3.80079e-11
-5.42744e-11
-1.72284e-16
3.24695e-11
-4.90586e-11
-1.52735e-16
2.73889e-11
-4.40858e-11
-1.32673e-16
2.27554e-11
-3.93152e-11
-1.12193e-16
1.85616e-11
-3.46646e-11
-9.35449e-17
1.48026e-11
-3.00716e-11
-7.50533e-17
1.14742e-11
-2.54846e-11
-5.76329e-17
8.57672e-12
-2.08429e-11
-4.05265e-17
6.11073e-12
-1.61297e-11
-2.41499e-17
4.07656e-12
-1.13577e-11
-9.89194e-18
2.47247e-12
-6.59631e-12
2.62757e-18
1.29049e-12
-2.0133e-12
1.17202e-17
5.10452e-13
2.07436e-12
1.73579e-17
9.27584e-14
5.12973e-12
1.75754e-17
-3.62986e-14
6.24181e-12
1.21474e-17
3.8973e-12
-1.97501e-18
2.27831e-10
-2.83718e-10
-5.31617e-17
2.21489e-10
-2.69206e-10
6.25521e-17
2.13619e-10
-2.53903e-10
-8.14727e-17
2.04506e-10
-2.38161e-10
-3.99867e-17
1.94434e-10
-2.22274e-10
-1.04125e-16
1.83667e-10
-2.06554e-10
-8.81304e-17
1.7245e-10
-1.91181e-10
-1.43167e-16
1.61e-10
-1.76355e-10
-1.34717e-16
1.49504e-10
-1.62208e-10
-1.68051e-16
1.38121e-10
-1.48827e-10
-1.74163e-16
1.26979e-10
-1.36274e-10
-1.98132e-16
1.16178e-10
-1.24576e-10
-2.09083e-16
1.05794e-10
-1.13742e-10
-2.25461e-16
9.5881e-11
-1.0375e-10
-2.33964e-16
8.64755e-11
-9.45733e-11
-2.42889e-16
7.75976e-11
-8.61646e-11
-2.44247e-16
6.92588e-11
-7.84554e-11
-2.43346e-16
6.14539e-11
-7.14292e-11
-2.35237e-16
5.41792e-11
-6.49733e-11
-2.25221e-16
4.74199e-11
-5.90594e-11
-2.0956e-16
4.1163e-11
-5.35916e-11
-1.933e-16
3.53933e-11
-4.85044e-11
-1.73498e-16
3.00922e-11
-4.37574e-11
-1.53516e-16
2.52477e-11
-3.9241e-11
-1.32932e-16
2.08463e-11
-3.49136e-11
-1.12351e-16
1.68782e-11
-3.06964e-11
-9.3381e-17
1.33372e-11
-2.65304e-11
-7.49836e-17
1.02178e-11
-2.23652e-11
-5.75603e-17
7.51958e-12
-1.81447e-11
-4.05471e-17
5.24242e-12
-1.38526e-11
-2.44166e-17
3.38604e-12
-9.50147e-12
-1.03875e-17
1.94778e-12
-5.15817e-12
1.7894e-18
9.1808e-13
-9.8373e-13
1.05842e-17
2.74028e-13
2.71832e-12
1.60725e-17
-2.89533e-14
5.43266e-12
1.63047e-17
-7.34769e-14
6.28635e-12
1.11581e-17
3.82389e-12
-2.39905e-18
2.34567e-10
-2.77235e-10
1.00933e-16
2.26364e-10
-2.61003e-10
-4.6289e-17
2.16766e-10
-2.44305e-10
-1.38976e-17
2.06092e-10
-2.27488e-10
-1.09224e-16
1.94647e-10
-2.10828e-10
-7.59221e-17
1.82704e-10
-1.9461e-10
-1.3198e-16
1.70509e-10
-1.78986e-10
-1.33162e-16
1.58272e-10
-1.64119e-10
-1.63152e-16
1.46168e-10
-1.50105e-10
-1.67038e-16
1.34339e-10
-1.36998e-10
-1.93937e-16
1.22895e-10
-1.24829e-10
-2.01778e-16
1.11917e-10
-1.13597e-10
-2.23097e-16
1.01461e-10
-1.03286e-10
-2.30577e-16
9.15637e-11
-9.38533e-11
-2.43817e-16
8.22449e-11
-8.52545e-11
-2.47795e-16
7.35094e-11
-7.74296e-11
-2.51014e-16
6.53557e-11
-7.03013e-11
-2.47388e-16
5.77672e-11
-6.38412e-11
-2.397e-16
5.07306e-11
-5.79365e-11
-2.28072e-16
4.42231e-11
-5.2552e-11
-2.1213e-16
3.8225e-11
-4.75934e-11
-1.94788e-16
3.27162e-11
-4.29952e-11
-1.74567e-16
2.76737e-11
-3.87149e-11
-1.53746e-16
2.30825e-11
-3.46494e-11
-1.32455e-16
1.89267e-11
-3.07576e-11
-1.11799e-16
1.51948e-11
-2.69644e-11
-9.28305e-17
1.18793e-11
-2.32146e-11
-7.42058e-17
8.97405e-12
-1.94599e-11
-5.70027e-17
6.47813e-12
-1.56488e-11
-4.00768e-17
4.39098e-12
-1.17655e-11
-2.42458e-17
2.712e-12
-7.82258e-12
-1.05142e-17
1.43783e-12
-3.88411e-12
1.26599e-18
5.5763e-13
-1.03649e-13
9.70781e-18
4.60687e-14
3.22979e-12
1.49902e-17
-1.45909e-13
5.62459e-12
1.52029e-17
-1.09072e-13
6.24952e-12
1.03128e-17
3.71487e-12
-2.72679e-18
2.40201e-10
-2.68616e-10
-3.88184e-17
2.30013e-10
-2.50816e-10
4.16144e-17
2.18623e-10
-2.32914e-10
-8.44248e-17
2.06373e-10
-2.15239e-10
-6.50742e-17
1.93581e-10
-1.98036e-10
-1.24388e-16
1.80522e-10
-1.81551e-10
-1.13551e-16
1.67433e-10
-1.65896e-10
-1.6759e-16
1.54507e-10
-1.51193e-10
-1.58791e-16
1.41901e-10
-1.37499e-10
-1.90779e-16
1.29735e-10
-1.24832e-10
-1.9543e-16
1.18095e-10
-1.1319e-10
-2.17436e-16
1.07041e-10
-1.02543e-10
-2.26246e-16
9.66086e-11
-9.28531e-11
-2.40632e-16
8.68134e-11
-8.40586e-11
-2.47278e-16
7.76586e-11
-7.60997e-11
-2.54293e-16
6.91338e-11
-6.89052e-11
-2.54115e-16
6.12244e-11
-6.23915e-11
-2.51614e-16
5.39032e-11
-5.65204e-11
-2.4206e-16
4.71478e-11
-5.11809e-11
-2.30592e-16
4.09282e-11
-4.63325e-11
-2.13435e-16
3.52189e-11
-4.18841e-11
-1.95885e-16
2.99953e-11
-3.77713e-11
-1.7451e-16
2.52312e-11
-3.39507e-11
-1.53371e-16
2.09087e-11
-3.03266e-11
-1.31996e-16
1.70103e-11
-2.68591e-11
-1.10811e-16
1.35233e-11
-2.34773e-11
-9.14275e-17
1.04394e-11
-2.01305e-11
-7.29435e-17
7.75205e-12
-1.67725e-11
-5.5751e-17
5.46009e-12
-1.33568e-11
-3.91391e-17
3.56288e-12
-9.86832e-12
-2.37521e-17
2.0597e-12
-6.31949e-12
-1.04207e-17
9.46761e-13
-2.77128e-12
8.77377e-19
2.12206e-13
6.30795e-13
8.91429e-18
-1.71361e-13
3.61327e-12
1.39254e-17
-2.56967e-13
5.71014e-12
1.40615e-17
-1.42701e-13
6.13525e-12
9.35611e-18
3.57221e-12
-3.14967e-18
2.44402e-10
-2.57711e-10
1.01643e-16
2.32149e-10
-2.38563e-10
-3.94975e-17
2.18946e-10
-2.19711e-10
-4.02104e-17
2.05153e-10
-2.01445e-10
-1.25551e-16
1.91085e-10
-1.83969e-10
-1.03511e-16
1.77009e-10
-1.67474e-10
-1.53346e-16
1.63141e-10
-1.52028e-10
-1.56785e-16
1.49653e-10
-1.37706e-10
-1.83471e-16
1.36675e-10
-1.24521e-10
-1.86538e-16
1.24299e-10
-1.12456e-10
-2.11583e-16
1.12585e-10
-1.01476e-10
-2.1721e-16
1.01568e-10
-9.15258e-11
-2.36606e-16
9.12601e-11
-8.25451e-11
-2.41874e-16
8.16578e-11
-7.44568e-11
-2.53598e-16
7.27465e-11
-6.71884e-11
-2.55694e-16
6.45012e-11
-6.06603e-11
-2.5779e-16
5.68949e-11
-5.47849e-11
-2.52831e-16
4.98906e-11
-4.95165e-11
-2.44091e-16
4.34577e-11
-4.47478e-11
-2.31304e-16
3.75601e-11
-4.0435e-11
-2.14169e-16
3.21674e-11
-3.64914e-11
-1.95727e-16
2.72512e-11
-3.28547e-11
-1.74232e-16
2.27828e-11
-2.94824e-11
-1.52478e-16
1.87425e-11
-2.6286e-11
-1.30162e-16
1.51115e-11
-2.32279e-11
-1.09026e-16
1.18764e-11
-2.0242e-11
-8.9633e-17
9.02838e-12
-1.72823e-11
-7.09469e-17
6.56114e-12
-1.43052e-11
-5.41401e-17
4.4734e-12
-1.1269e-11
-3.77365e-17
2.76474e-12
-8.15967e-12
-2.28091e-17
1.43454e-12
-4.98935e-12
-9.91842e-18
4.78829e-13
-1.81565e-12
8.42174e-19
-1.15027e-13
1.22455e-12
8.41506e-18
-3.76126e-13
3.87428e-12
1.30985e-17
-3.60935e-13
5.69489e-12
1.31072e-17
-1.73956e-13
5.94826e-12
8.54369e-18
3.39828e-12
-3.38391e-18
2.46824e-10
-2.44406e-10
-1.94714e-17
2.32474e-10
-2.24213e-10
2.36622e-17
2.17493e-10
-2.0473e-10
-8.30423e-17
2.02239e-10
-1.86192e-10
-8.28903e-17
1.87016e-10
-1.68745e-10
-1.38979e-16
1.72064e-10
-1.52521e-10
-1.33688e-16
1.57573e-10
-1.37536e-10
-1.85719e-16
1.4368e-10
-1.23813e-10
-1.76673e-16
1.30483e-10
-1.11324e-10
-2.06714e-16
1.18042e-10
-1.00014e-10
-2.09573e-16
1.06387e-10
-8.98211e-11
-2.29072e-16
9.55272e-11
-8.06654e-11
-2.35645e-16
8.54505e-11
-7.24684e-11
-2.47887e-16
7.61341e-11
-6.51408e-11
-2.52985e-16
6.75463e-11
-5.86006e-11
-2.58437e-16
5.96485e-11
-5.27629e-11
-2.57319e-16
5.24023e-11
-4.75384e-11
-2.53875e-16
4.57622e-11
-4.28767e-11
-2.43612e-16
3.96905e-11
-3.8676e-11
-2.31352e-16
3.41463e-11
-3.48908e-11
-2.13309e-16
2.90951e-11
-3.14402e-11
-1.94979e-16
2.45058e-11
-2.82651e-11
-1.72464e-16
2.03482e-11
-2.53247e-11
-1.50568e-16
1.6601e-11
-2.25385e-11
-1.28696e-16
1.32452e-11
-1.9872e-11
-1.06732e-16
1.0267e-11
-1.72636e-11
-8.69395e-17
7.65754e-12
-1.46727e-11
-6.84889e-17
5.41096e-12
-1.20585e-11
-5.17359e-17
3.52624e-12
-9.38417e-12
-3.58724e-17
2.00338e-12
-6.63681e-12
-2.1596e-17
8.42085e-13
-3.8281e-12
-9.30707e-18
3.83891e-14
-1.01203e-12
8.07695e-19
-4.20829e-13
1.68367e-12
7.8712e-18
-5.66029e-13
4.0194e-12
1.21903e-17
-4.56576e-13
5.58537e-12
1.20737e-17
-2.02408e-13
5.69408e-12
7.64558e-18
3.19589e-12
-3.73907e-18
2.47065e-10
-2.28674e-10
7.91256e-17
2.30667e-10
-2.07816e-10
-4.00946e-17
2.14017e-10
-1.88079e-10
-6.71666e-17
1.97454e-10
-1.6963e-10
-1.38841e-16
1.81253e-10
-1.52543e-10
-1.27994e-16
1.65615e-10
-1.36884e-10
-1.70785e-16
1.50692e-10
-1.22613e-10
-1.75274e-16
1.3658e-10
-1.09702e-10
-1.97792e-16
1.23338e-10
-9.80827e-11
-1.99501e-16
1.10992e-10
-8.7668e-11
-2.21738e-16