/*--------------------------------*- C++ -*----------------------------------*\
| =========                 |                                                 |
| \\      /  F ield         | OpenFOAM: The Open Source CFD Toolbox           |
|  \\    /   O peration     | Version:  v2012                                 |
|   \\  /    A nd           | Website:  www.openfoam.com                      |
|    \\/     M anipulation  |                                                 |
\*---------------------------------------------------------------------------*/
FoamFile
{
    version     2.0;
    format      ascii;
    class       volScalarField;
    location    "0.65";
    object      p;
}
// * * * * * * * * * * * * * * * * * * * * * * * * * * * * * * * * * * * * * //

dimensions      [1 -1 -2 0 0 0 0];


internalField   nonuniform List<scalar> 
3332
(
3.4712e+06
3.47344e+06
3.47538e+06
3.47709e+06
3.47859e+06
3.47992e+06
3.4811e+06
3.48216e+06
3.48311e+06
3.48396e+06
3.48473e+06
3.48543e+06
3.48607e+06
3.48665e+06
3.48718e+06
3.48767e+06
3.48811e+06
3.48852e+06
3.48889e+06
3.48924e+06
3.4642e+06
3.46733e+06
3.47e+06
3.47237e+06
3.47442e+06
3.47623e+06
3.47783e+06
3.47924e+06
3.48049e+06
3.48161e+06
3.48261e+06
3.48351e+06
3.48432e+06
3.48506e+06
3.48573e+06
3.48633e+06
3.48689e+06
3.48739e+06
3.48785e+06
3.48828e+06
3.48866e+06
3.48902e+06
3.41115e+06
3.4083e+06
3.41007e+06
3.40525e+06
3.3956e+06
3.39349e+06
3.4108e+06
3.43945e+06
3.45886e+06
3.46214e+06
3.45647e+06
3.44753e+06
3.45072e+06
3.45497e+06
3.45924e+06
3.46281e+06
3.46606e+06
3.46886e+06
3.47135e+06
3.47351e+06
3.47542e+06
3.4771e+06
3.47859e+06
3.47991e+06
3.48108e+06
3.48214e+06
3.48308e+06
3.48393e+06
3.4847e+06
3.4854e+06
3.48603e+06
3.4866e+06
3.48713e+06
3.4876e+06
3.48804e+06
3.48844e+06
3.4888e+06
3.41015e+06
3.40521e+06
3.40818e+06
3.40331e+06
3.39484e+06
3.39243e+06
3.40829e+06
3.43902e+06
3.45965e+06
3.46337e+06
3.46694e+06
3.46603e+06
3.45625e+06
3.44588e+06
3.44897e+06
3.45334e+06
3.45774e+06
3.46146e+06
3.46485e+06
3.46778e+06
3.47038e+06
3.47265e+06
3.47465e+06
3.47641e+06
3.47797e+06
3.47936e+06
3.48059e+06
3.48169e+06
3.48267e+06
3.48356e+06
3.48436e+06
3.48508e+06
3.48573e+06
3.48633e+06
3.48687e+06
3.48736e+06
3.48781e+06
3.48822e+06
3.4886e+06
3.41857e+06
3.41872e+06
3.41713e+06
3.41835e+06
3.41028e+06
3.41109e+06
3.41945e+06
3.44411e+06
3.46024e+06
3.4641e+06
3.46621e+06
3.46645e+06
3.45464e+06
3.4438e+06
3.44693e+06
3.45165e+06
3.45624e+06
3.46015e+06
3.46369e+06
3.46676e+06
3.46948e+06
3.47185e+06
3.47394e+06
3.47578e+06
3.4774e+06
3.47884e+06
3.48012e+06
3.48127e+06
3.48229e+06
3.48321e+06
3.48403e+06
3.48478e+06
3.48546e+06
3.48607e+06
3.48662e+06
3.48713e+06
3.48759e+06
3.48801e+06
3.4884e+06
3.48875e+06
3.43113e+06
3.43595e+06
3.4306e+06
3.43624e+06
3.42974e+06
3.43487e+06
3.43527e+06
3.44957e+06
3.45907e+06
3.46308e+06
3.46351e+06
3.46488e+06
3.4517e+06
3.44152e+06
3.44474e+06
3.44997e+06
3.45478e+06
3.45892e+06
3.46262e+06
3.46582e+06
3.46865e+06
3.47111e+06
3.47328e+06
3.47519e+06
3.47688e+06
3.47837e+06
3.47969e+06
3.48087e+06
3.48193e+06
3.48288e+06
3.48373e+06
3.4845e+06
3.48519e+06
3.48582e+06
3.48639e+06
3.48691e+06
3.48738e+06
3.48781e+06
3.4882e+06
3.48856e+06
3.4415e+06
3.4466e+06
3.44146e+06
3.44724e+06
3.44321e+06
3.45002e+06
3.44649e+06
3.45111e+06
3.45596e+06
3.46054e+06
3.45975e+06
3.46176e+06
3.4481e+06
3.43928e+06
3.44261e+06
3.44841e+06
3.45343e+06
3.4578e+06
3.46164e+06
3.46497e+06
3.4679e+06
3.47045e+06
3.47269e+06
3.47466e+06
3.4764e+06
3.47794e+06
3.4793e+06
3.48051e+06
3.4816e+06
3.48257e+06
3.48344e+06
3.48423e+06
3.48494e+06
3.48558e+06
3.48617e+06
3.4867e+06
3.48718e+06
3.48762e+06
3.48802e+06
3.48838e+06
3.48871e+06
3.44829e+06
3.44898e+06
3.44824e+06
3.44961e+06
3.45034e+06
3.45277e+06
3.45152e+06
3.44917e+06
3.45196e+06
3.45744e+06
3.45576e+06
3.45817e+06
3.4446e+06
3.43727e+06
3.44076e+06
3.44703e+06
3.45223e+06
3.45681e+06
3.46078e+06
3.46423e+06
3.46724e+06
3.46987e+06
3.47217e+06
3.47419e+06
3.47597e+06
3.47755e+06
3.47894e+06
3.48019e+06
3.48129e+06
3.48229e+06
3.48318e+06
3.48398e+06
3.48471e+06
3.48536e+06
3.48596e+06
3.4865e+06
3.48699e+06
3.48743e+06
3.48784e+06
3.48821e+06
3.48854e+06
3.45324e+06
3.44646e+06
3.45289e+06
3.44736e+06
3.45504e+06
3.44962e+06
3.45218e+06
3.44608e+06
3.44792e+06
3.45437e+06
3.45188e+06
3.45463e+06
3.4414e+06
3.43553e+06
3.43924e+06
3.44587e+06
3.45123e+06
3.45598e+06
3.46005e+06
3.4636e+06
3.46668e+06
3.46937e+06
3.47173e+06
3.47379e+06
3.4756e+06
3.47721e+06
3.47863e+06
3.47989e+06
3.48102e+06
3.48203e+06
3.48294e+06
3.48375e+06
3.48449e+06
3.48516e+06
3.48576e+06
3.48631e+06
3.4868e+06
3.48725e+06
3.48767e+06
3.48804e+06
3.48838e+06
3.45648e+06
3.44379e+06
3.45543e+06
3.44512e+06
3.4578e+06
3.44754e+06
3.45015e+06
3.44315e+06
3.444e+06
3.45156e+06
3.44829e+06
3.45136e+06
3.43856e+06
3.43407e+06
3.43806e+06
3.44495e+06
3.45044e+06
3.45532e+06
3.45947e+06
3.46309e+06
3.46623e+06
3.46896e+06
3.47135e+06
3.47345e+06
3.47529e+06
3.47691e+06
3.47835e+06
3.47963e+06
3.48078e+06
3.4818e+06
3.48272e+06
3.48354e+06
3.48429e+06
3.48496e+06
3.48557e+06
3.48613e+06
3.48663e+06
3.48709e+06
3.4875e+06
3.48788e+06
3.48822e+06
3.45503e+06
3.44275e+06
3.45389e+06
3.44404e+06
3.45579e+06
3.4468e+06
3.44613e+06
3.44032e+06
3.44012e+06
3.44893e+06
3.44503e+06
3.44838e+06
3.43606e+06
3.43289e+06
3.43718e+06
3.44427e+06
3.44986e+06
3.45483e+06
3.45904e+06
3.46271e+06
3.46588e+06
3.46865e+06
3.47106e+06
3.47317e+06
3.47503e+06
3.47667e+06
3.47812e+06
3.47941e+06
3.48056e+06
3.48159e+06
3.48252e+06
3.48335e+06
3.4841e+06
3.48478e+06
3.4854e+06
3.48596e+06
3.48646e+06
3.48693e+06
3.48734e+06
3.48772e+06
3.48807e+06
3.44821e+06
3.44284e+06
3.44751e+06
3.44323e+06
3.4482e+06
3.44523e+06
3.44095e+06
3.43755e+06
3.43655e+06
3.44639e+06
3.44202e+06
3.44559e+06
3.43382e+06
3.43195e+06
3.43657e+06
3.44383e+06
3.44948e+06
3.45452e+06
3.45876e+06
3.46245e+06
3.46564e+06
3.46842e+06
3.47084e+06
3.47296e+06
3.47483e+06
3.47647e+06
3.47793e+06
3.47923e+06
3.48038e+06
3.48142e+06
3.48235e+06
3.48318e+06
3.48394e+06
3.48462e+06
3.48524e+06
3.4858e+06
3.48631e+06
3.48677e+06
3.48719e+06
3.48758e+06
3.48792e+06
3.43889e+06
3.44417e+06
3.43928e+06
3.44347e+06
3.43918e+06
3.44299e+06
3.43617e+06
3.43506e+06
3.43355e+06
3.44386e+06
3.43929e+06
3.44295e+06
3.43186e+06
3.43127e+06
3.43621e+06
3.4436e+06
3.44931e+06
3.45437e+06
3.45863e+06
3.46232e+06
3.46551e+06
3.46828e+06
3.4707e+06
3.47282e+06
3.47468e+06
3.47632e+06
3.47778e+06
3.47907e+06
3.48023e+06
3.48126e+06
3.48219e+06
3.48303e+06
3.48379e+06
3.48447e+06
3.48509e+06
3.48565e+06
3.48617e+06
3.48663e+06
3.48705e+06
3.48744e+06
3.48779e+06
3.4321e+06
3.44761e+06
3.43351e+06
3.44591e+06
3.43398e+06
3.44135e+06
3.43282e+06
3.43269e+06
3.43097e+06
3.4413e+06
3.43686e+06
3.44039e+06
3.43022e+06
3.43084e+06
3.43612e+06
3.44361e+06
3.44933e+06
3.4544e+06
3.45864e+06
3.46231e+06
3.46548e+06
3.46824e+06
3.47064e+06
3.47274e+06
3.47459e+06
3.47622e+06
3.47767e+06
3.47896e+06
3.48011e+06
3.48114e+06
3.48207e+06
3.4829e+06
3.48365e+06
3.48434e+06
3.48496e+06
3.48552e+06
3.48603e+06
3.4865e+06
3.48692e+06
3.4873e+06
3.48765e+06
3.42988e+06
3.45124e+06
3.43183e+06
3.44911e+06
3.43366e+06
3.44018e+06
3.43055e+06
3.43002e+06
3.42857e+06
3.43861e+06
3.4349e+06
3.43794e+06
3.42904e+06
3.43071e+06
3.43632e+06
3.44384e+06
3.44956e+06
3.4546e+06
3.45879e+06
3.46243e+06
3.46556e+06
3.46828e+06
3.47065e+06
3.47273e+06
3.47455e+06
3.47617e+06
3.4776e+06
3.47888e+06
3.48002e+06
3.48104e+06
3.48196e+06
3.48279e+06
3.48354e+06
3.48422e+06
3.48484e+06
3.4854e+06
3.48591e+06
3.48637e+06
3.48679e+06
3.48718e+06
3.48753e+06
3.43141e+06
3.45168e+06
3.43329e+06
3.44988e+06
3.43535e+06
3.4383e+06
3.42853e+06
3.42697e+06
3.4263e+06
3.43595e+06
3.43344e+06
3.43572e+06
3.42844e+06
3.43091e+06
3.43684e+06
3.44432e+06
3.44999e+06
3.45497e+06
3.45909e+06
3.46266e+06
3.46573e+06
3.4684e+06
3.47073e+06
3.47277e+06
3.47457e+06
3.47616e+06
3.47757e+06
3.47883e+06
3.47995e+06
3.48096e+06
3.48187e+06
3.48269e+06
3.48344e+06
3.48411e+06
3.48473e+06
3.48528e+06
3.48579e+06
3.48625e+06
3.48667e+06
3.48706e+06
3.48741e+06
3.43292e+06
3.44712e+06
3.43511e+06
3.44687e+06
3.4362e+06
3.43526e+06
3.42644e+06
3.424e+06
3.42435e+06
3.43371e+06
3.43239e+06
3.43399e+06
3.42843e+06
3.4315e+06
3.4377e+06
3.44503e+06
3.45062e+06
3.45549e+06
3.45952e+06
3.46301e+06
3.466e+06
3.46861e+06
3.47088e+06
3.47288e+06
3.47463e+06
3.47619e+06
3.47757e+06
3.47881e+06
3.47992e+06
3.48091e+06
3.48181e+06
3.48262e+06
3.48335e+06
3.48402e+06
3.48463e+06
3.48518e+06
3.48569e+06
3.48614e+06
3.48656e+06
3.48694e+06
3.48729e+06
3.43525e+06
3.44046e+06
3.43606e+06
3.44133e+06
3.43546e+06
3.43164e+06
3.42452e+06
3.42163e+06
3.42289e+06
3.43195e+06
3.43193e+06
3.43286e+06
3.42905e+06
3.4325e+06
3.43889e+06
3.44597e+06
3.45145e+06
3.45617e+06
3.46008e+06
3.46346e+06
3.46636e+06
3.46889e+06
3.47109e+06
3.47303e+06
3.47475e+06
3.47626e+06
3.47761e+06
3.47882e+06
3.47991e+06
3.48088e+06
3.48176e+06
3.48256e+06
3.48329e+06
3.48394e+06
3.48454e+06
3.48509e+06
3.48559e+06
3.48604e+06
3.48646e+06
3.48684e+06
3.48718e+06
3.436e+06
3.43296e+06
3.43563e+06
3.43524e+06
3.43374e+06
3.42834e+06
3.42319e+06
3.42025e+06
3.42226e+06
3.43078e+06
3.43206e+06
3.43238e+06
3.43031e+06
3.43389e+06
3.44039e+06
3.44715e+06
3.45246e+06
3.45699e+06
3.46076e+06
3.464e+06
3.4668e+06
3.46923e+06
3.47137e+06
3.47324e+06
3.4749e+06
3.47637e+06
3.47769e+06
3.47886e+06
3.47992e+06
3.48088e+06
3.48174e+06
3.48252e+06
3.48323e+06
3.48388e+06
3.48447e+06
3.48501e+06
3.4855e+06
3.48595e+06
3.48636e+06
3.48674e+06
3.48708e+06
3.43604e+06
3.427e+06
3.43466e+06
3.43009e+06
3.43186e+06
3.42595e+06
3.42266e+06
3.41993e+06
3.42233e+06
3.43027e+06
3.43279e+06
3.4326e+06
3.43215e+06
3.43566e+06
3.44218e+06
3.44853e+06
3.45364e+06
3.45794e+06
3.46154e+06
3.46464e+06
3.46731e+06
3.46964e+06
3.47169e+06
3.47349e+06
3.47509e+06
3.47652e+06
3.47779e+06
3.47893e+06
3.47996e+06
3.48089e+06
3.48173e+06
3.4825e+06
3.48319e+06
3.48383e+06
3.48441e+06
3.48494e+06
3.48542e+06
3.48587e+06
3.48627e+06
3.48665e+06
3.48698e+06
3.43513e+06
3.42269e+06
3.43356e+06
3.42652e+06
3.43044e+06
3.42472e+06
3.42294e+06
3.42056e+06
3.42296e+06
3.43022e+06
3.4342e+06
3.43349e+06
3.43455e+06
3.43777e+06
3.44422e+06
3.45009e+06
3.45496e+06
3.459e+06
3.46241e+06
3.46535e+06
3.46789e+06
3.47011e+06
3.47206e+06
3.47379e+06
3.47532e+06
3.47669e+06
3.47792e+06
3.47903e+06
3.48002e+06
3.48092e+06
3.48174e+06
3.48249e+06
3.48317e+06
3.48379e+06
3.48436e+06
3.48488e+06
3.48536e+06
3.48579e+06
3.48619e+06
3.48656e+06
3.48689e+06
3.43465e+06
3.42056e+06
3.4328e+06
3.42458e+06
3.42972e+06
3.42455e+06
3.42391e+06
3.42187e+06
3.424e+06
3.43045e+06
3.43628e+06
3.43502e+06
3.43744e+06
3.44016e+06
3.44648e+06
3.4518e+06
3.4564e+06
3.46016e+06
3.46337e+06
3.46612e+06
3.46852e+06
3.47062e+06
3.47247e+06
3.47412e+06
3.47559e+06
3.4769e+06
3.47808e+06
3.47914e+06
3.4801e+06
3.48098e+06
3.48177e+06
3.4825e+06
3.48316e+06
3.48376e+06
3.48432e+06
3.48483e+06
3.4853e+06
3.48572e+06
3.48612e+06
3.48648e+06
3.48681e+06
3.43447e+06
3.41996e+06
3.4325e+06
3.42397e+06
3.4297e+06
3.42521e+06
3.42534e+06
3.42358e+06
3.42527e+06
3.43091e+06
3.43887e+06
3.437e+06
3.44069e+06
3.44275e+06
3.44888e+06
3.45362e+06
3.45794e+06
3.46138e+06
3.46438e+06
3.46694e+06
3.46919e+06
3.47117e+06
3.47292e+06
3.47448e+06
3.47588e+06
3.47713e+06
3.47826e+06
3.47928e+06
3.4802e+06
3.48105e+06
3.48181e+06
3.48252e+06
3.48316e+06
3.48375e+06
3.48429e+06
3.48479e+06
3.48524e+06
3.48566e+06
3.48605e+06
3.4864e+06
3.48673e+06
3.43484e+06
3.42062e+06
3.43284e+06
3.42442e+06
3.43025e+06
3.42643e+06
3.427e+06
3.4254e+06
3.42663e+06
3.4316e+06
3.44176e+06
3.43924e+06
3.44415e+06
3.44544e+06
3.45138e+06
3.45551e+06
3.45954e+06
3.46266e+06
3.46544e+06
3.46781e+06
3.46991e+06
3.47176e+06
3.4734e+06
3.47487e+06
3.47619e+06
3.47738e+06
3.47846e+06
3.47943e+06
3.48032e+06
3.48113e+06
3.48187e+06
3.48255e+06
3.48317e+06
3.48374e+06
3.48427e+06
3.48475e+06
3.4852e+06
3.48561e+06
3.48599e+06
3.48634e+06
3.48665e+06
3.43519e+06
3.42181e+06
3.43366e+06
3.42563e+06
3.43124e+06
3.42802e+06
3.42872e+06
3.42724e+06
3.42792e+06
3.43242e+06
3.4448e+06
3.44167e+06
3.44772e+06
3.44817e+06
3.45392e+06
3.45743e+06
3.46117e+06
3.46397e+06
3.46653e+06
3.4687e+06
3.47065e+06
3.47237e+06
3.47391e+06
3.47529e+06
3.47653e+06
3.47766e+06
3.47868e+06
3.47961e+06
3.48045e+06
3.48123e+06
3.48194e+06
3.48259e+06
3.48319e+06
3.48375e+06
3.48426e+06
3.48473e+06
3.48516e+06
3.48556e+06
3.48593e+06
3.48627e+06
3.48658e+06
3.43643e+06
3.42401e+06
3.43492e+06
3.42741e+06
3.43253e+06
3.42981e+06
3.4304e+06
3.42901e+06
3.42906e+06
3.43329e+06
3.44791e+06
3.44423e+06
3.45131e+06
3.4509e+06
3.45646e+06
3.45936e+06
3.46282e+06
3.46529e+06
3.46764e+06
3.46962e+06
3.47141e+06
3.473e+06
3.47443e+06
3.47572e+06
3.47689e+06
3.47795e+06
3.47891e+06
3.4798e+06
3.4806e+06
3.48134e+06
3.48202e+06
3.48265e+06
3.48323e+06
3.48376e+06
3.48425e+06
3.48471e+06
3.48513e+06
3.48552e+06
3.48588e+06
3.48621e+06
3.48652e+06
3.4377e+06
3.42655e+06
3.43629e+06
3.42954e+06
3.43398e+06
3.4317e+06
3.43201e+06
3.43067e+06
3.43e+06
3.43412e+06
3.45098e+06
3.44685e+06
3.45484e+06
3.45359e+06
3.45896e+06
3.46126e+06
3.46445e+06
3.4666e+06
3.46875e+06
3.47054e+06
3.47218e+06
3.47364e+06
3.47497e+06
3.47617e+06
3.47726e+06
3.47825e+06
3.47917e+06
3.48e+06
3.48076e+06
3.48147e+06
3.48212e+06
3.48272e+06
3.48327e+06
3.48378e+06
3.48426e+06
3.4847e+06
3.48511e+06
3.48549e+06
3.48584e+06
3.48616e+06
3.48646e+06
3.43903e+06
3.42947e+06
3.4378e+06
3.43188e+06
3.43547e+06
3.43357e+06
3.43355e+06
3.43223e+06
3.43071e+06
3.43486e+06
3.45393e+06
3.44946e+06
3.45823e+06
3.45619e+06
3.46137e+06
3.46311e+06
3.46606e+06
3.46791e+06
3.46986e+06
3.47146e+06
3.47296e+06
3.47429e+06
3.47552e+06
3.47663e+06
3.47764e+06
3.47857e+06
3.47943e+06
3.48021e+06
3.48094e+06
3.4816e+06
3.48222e+06
3.48279e+06
3.48332e+06
3.48381e+06
3.48427e+06
3.48469e+06
3.48509e+06
3.48546e+06
3.4858e+06
3.48611e+06
3.48641e+06
3.43996e+06
3.4323e+06
3.43919e+06
3.4342e+06
3.43693e+06
3.43536e+06
3.43502e+06
3.43366e+06
3.43122e+06
3.43544e+06
3.4567e+06
3.45203e+06
3.46144e+06
3.45869e+06
3.46369e+06
3.4649e+06
3.46762e+06
3.46918e+06
3.47095e+06
3.47237e+06
3.47374e+06
3.47495e+06
3.47607e+06
3.4771e+06
3.47804e+06
3.47891e+06
3.4797e+06
3.48044e+06
3.48112e+06
3.48175e+06
3.48233e+06
3.48288e+06
3.48338e+06
3.48385e+06
3.48429e+06
3.4847e+06
3.48508e+06
3.48543e+06
3.48576e+06
3.48607e+06
3.48636e+06
3.44078e+06
3.43508e+06
3.44036e+06
3.43632e+06
3.43827e+06
3.43699e+06
3.43641e+06
3.43495e+06
3.4315e+06
3.43583e+06
3.45921e+06
3.45449e+06
3.46441e+06
3.46105e+06
3.46587e+06
3.46661e+06
3.46912e+06
3.47042e+06
3.47202e+06
3.47327e+06
3.47451e+06
3.47561e+06
3.47664e+06
3.47758e+06
3.47845e+06
3.47925e+06
3.47999e+06
3.48068e+06
3.48131e+06
3.48191e+06
3.48246e+06
3.48297e+06
3.48345e+06
3.4839e+06
3.48432e+06
3.48471e+06
3.48507e+06
3.48542e+06
3.48573e+06
3.48603e+06
3.48631e+06
3.44127e+06
3.43751e+06
3.4412e+06
3.4381e+06
3.43943e+06
3.43842e+06
3.43771e+06
3.43611e+06
3.43159e+06
3.43597e+06
3.46141e+06
3.4568e+06
3.46711e+06
3.46326e+06
3.46791e+06
3.46824e+06
3.47056e+06
3.47162e+06
3.47307e+06
3.47417e+06
3.47528e+06
3.47627e+06
3.47721e+06
3.47806e+06
3.47886e+06
3.4796e+06
3.48029e+06
3.48092e+06
3.48152e+06
3.48207e+06
3.48259e+06
3.48307e+06
3.48352e+06
3.48395e+06
3.48435e+06
3.48472e+06
3.48507e+06
3.4854e+06
3.48571e+06
3.486e+06
3.48627e+06
3.44144e+06
3.43948e+06
3.44176e+06
3.43951e+06
3.44038e+06
3.43962e+06
3.43893e+06
3.4371e+06
3.43143e+06
3.43581e+06
3.4632e+06
3.45891e+06
3.46949e+06
3.4653e+06
3.46979e+06
3.46977e+06
3.47192e+06
3.47277e+06
3.47408e+06
3.47504e+06
3.47605e+06
3.47693e+06
3.47778e+06
3.47856e+06
3.47928e+06
3.47996e+06
3.48059e+06
3.48118e+06
3.48173e+06
3.48224e+06
3.48273e+06
3.48318e+06
3.48361e+06
3.48401e+06
3.48438e+06
3.48474e+06
3.48508e+06
3.48539e+06
3.48569e+06
3.48597e+06
3.48623e+06
3.44101e+06
3.4408e+06
3.442e+06
3.44054e+06
3.44112e+06
3.44058e+06
3.44e+06
3.43796e+06
3.4311e+06
3.43532e+06
3.46452e+06
3.4608e+06
3.47153e+06
3.46717e+06
3.47151e+06
3.47122e+06
3.47322e+06
3.47389e+06
3.47508e+06
3.47591e+06
3.47681e+06
3.47759e+06
3.47835e+06
3.47905e+06
3.47971e+06
3.48033e+06
3.4809e+06
3.48144e+06
3.48195e+06
3.48242e+06
3.48287e+06
3.48329e+06
3.48369e+06
3.48407e+06
3.48443e+06
3.48477e+06
3.48509e+06
3.48539e+06
3.48567e+06
3.48594e+06
3.4862e+06
3.44076e+06
3.44196e+06
3.44198e+06
3.44127e+06
3.44167e+06
3.44133e+06
3.44096e+06
3.43867e+06
3.4306e+06
3.43446e+06
3.46532e+06
3.46249e+06
3.47323e+06
3.46889e+06
3.47307e+06
3.47259e+06
3.47446e+06
3.47498e+06
3.47605e+06
3.47676e+06
3.47757e+06
3.47826e+06
3.47894e+06
3.47956e+06
3.48015e+06
3.48071e+06
3.48123e+06
3.48171e+06
3.48218e+06
3.48261e+06
3.48302e+06
3.48341e+06
3.48379e+06
3.48414e+06
3.48448e+06
3.48479e+06
3.4851e+06
3.48539e+06
3.48566e+06
3.48592e+06
3.48616e+06
3.44041e+06
3.4429e+06
3.44167e+06
3.44183e+06
3.44203e+06
3.44186e+06
3.44177e+06
3.43898e+06
3.4297e+06
3.43316e+06
3.46565e+06
3.46399e+06
3.47463e+06
3.47048e+06
3.47449e+06
3.47389e+06
3.47565e+06
3.47604e+06
3.47701e+06
3.47762e+06
3.47833e+06
3.47893e+06
3.47953e+06
3.48008e+06
3.4806e+06
3.48109e+06
3.48156e+06
3.48199e+06
3.48241e+06
3.4828e+06
3.48318e+06
3.48354e+06
3.48388e+06
3.48421e+06
3.48453e+06
3.48483e+06
3.48512e+06
3.48539e+06
3.48565e+06
3.4859e+06
3.48614e+06
3.44006e+06
3.44389e+06
3.44136e+06
3.4425e+06
3.44226e+06
3.44219e+06
3.4423e+06
3.43898e+06
3.42855e+06
3.43143e+06
3.46562e+06
3.46534e+06
3.47577e+06
3.47196e+06
3.4758e+06
3.47515e+06
3.47679e+06
3.47709e+06
3.47796e+06
3.47848e+06
3.4791e+06
3.47961e+06
3.48013e+06
3.4806e+06
3.48106e+06
3.48149e+06
3.48189e+06
3.48228e+06
3.48265e+06
3.483e+06
3.48334e+06
3.48367e+06
3.48399e+06
3.48429e+06
3.48458e+06
3.48486e+06
3.48514e+06
3.4854e+06
3.48565e+06
3.48588e+06
3.48611e+06
3.43959e+06
3.44507e+06
3.44114e+06
3.44352e+06
3.44261e+06
3.44256e+06
3.44291e+06
3.43913e+06
3.42749e+06
3.42954e+06
3.46548e+06
3.46658e+06
3.47675e+06
3.47338e+06
3.47704e+06
3.47639e+06
3.47793e+06
3.47815e+06
3.47893e+06
3.47935e+06
3.47988e+06
3.48031e+06
3.48075e+06
3.48115e+06
3.48153e+06
3.48189e+06
3.48224e+06
3.48257e+06
3.4829e+06
3.48321e+06
3.48351e+06
3.48381e+06
3.48409e+06
3.48437e+06
3.48464e+06
3.4849e+06
3.48516e+06
3.4854e+06
3.48564e+06
3.48587e+06
3.48609e+06
3.43975e+06
3.44702e+06
3.44116e+06
3.44501e+06
3.44333e+06
3.44312e+06
3.4441e+06
3.43959e+06
3.42666e+06
3.42765e+06
3.46521e+06
3.46768e+06
3.4776e+06
3.47475e+06
3.47825e+06
3.47764e+06
3.47908e+06
3.47923e+06
3.47992e+06
3.48025e+06
3.48069e+06
3.48103e+06
3.48138e+06
3.4817e+06
3.48201e+06
3.48231e+06
3.4826e+06
3.48288e+06
3.48315e+06
3.48342e+06
3.48368e+06
3.48394e+06
3.4842e+06
3.48445e+06
3.4847e+06
3.48494e+06
3.48518e+06
3.48542e+06
3.48564e+06
3.48586e+06
3.48607e+06
3.44031e+06
3.44936e+06
3.44142e+06
3.44683e+06
3.44456e+06
3.44381e+06
3.44598e+06
3.4402e+06
3.4263e+06
3.4258e+06
3.46481e+06
3.46869e+06
3.47837e+06
3.47613e+06
3.47947e+06
3.47895e+06
3.48028e+06
3.48037e+06
3.48096e+06
3.4812e+06
3.48154e+06
3.48178e+06
3.48204e+06
3.48228e+06
3.48251e+06
3.48273e+06
3.48296e+06
3.48318e+06
3.48341e+06
3.48363e+06
3.48386e+06
3.48408e+06
3.48431e+06
3.48454e+06
3.48476e+06
3.48499e+06
3.48521e+06
3.48543e+06
3.48564e+06
3.48585e+06
3.48605e+06
3.44196e+06
3.45225e+06
3.44265e+06
3.44901e+06
3.44655e+06
3.44455e+06
3.44845e+06
3.44062e+06
3.42645e+06
3.42407e+06
3.4643e+06
3.46959e+06
3.4791e+06
3.47757e+06
3.48075e+06
3.48035e+06
3.48155e+06
3.48159e+06
3.48206e+06
3.48219e+06
3.48242e+06
3.48257e+06
3.48273e+06
3.48287e+06
3.48302e+06
3.48317e+06
3.48333e+06
3.4835e+06
3.48367e+06
3.48385e+06
3.48403e+06
3.48423e+06
3.48442e+06
3.48462e+06
3.48483e+06
3.48503e+06
3.48524e+06
3.48544e+06
3.48564e+06
3.48584e+06
3.48603e+06
3.44429e+06
3.45432e+06
3.44503e+06
3.45138e+06
3.44962e+06
3.44544e+06
3.4515e+06
3.44045e+06
3.42714e+06
3.4229e+06
3.46378e+06
3.47056e+06
3.47994e+06
3.4792e+06
3.4822e+06
3.48192e+06
3.48297e+06
3.48293e+06
3.48325e+06
3.48327e+06
3.48337e+06
3.48339e+06
3.48344e+06
3.48349e+06
3.48355e+06
3.48362e+06
3.48371e+06
3.48382e+06
3.48394e+06
3.48407e+06
3.48421e+06
3.48437e+06
3.48454e+06
3.48471e+06
3.48489e+06
3.48508e+06
3.48527e+06
3.48546e+06
3.48565e+06
3.48584e+06
3.48602e+06
3.42879e+06
3.42308e+06
3.46367e+06
3.47195e+06
3.48113e+06
3.48119e+06
3.48394e+06
3.48374e+06
3.48457e+06
3.48442e+06
3.48456e+06
3.48443e+06
3.48437e+06
3.48427e+06
3.4842e+06
3.48413e+06
3.4841e+06
3.48409e+06
3.4841e+06
3.48414e+06
3.4842e+06
3.48429e+06
3.48439e+06
3.48451e+06
3.48465e+06
3.4848e+06
3.48496e+06
3.48513e+06
3.4853e+06
3.48548e+06
3.48565e+06
3.48583e+06
3.48601e+06
3.4712e+06
3.47344e+06
3.47538e+06
3.47709e+06
3.47859e+06
3.47992e+06
3.4811e+06
3.48216e+06
3.48311e+06
3.48396e+06
3.48473e+06
3.48543e+06
3.48607e+06
3.48665e+06
3.48718e+06
3.48767e+06
3.48811e+06
3.48852e+06
3.48889e+06
3.48924e+06
3.4642e+06
3.46733e+06
3.47e+06
3.47237e+06
3.47442e+06
3.47623e+06
3.47783e+06
3.47924e+06
3.48049e+06
3.48161e+06
3.48261e+06
3.48351e+06
3.48432e+06
3.48506e+06
3.48573e+06
3.48633e+06
3.48689e+06
3.48739e+06
3.48785e+06
3.48828e+06
3.48866e+06
3.48902e+06
3.41115e+06
3.4083e+06
3.41007e+06
3.40525e+06
3.3956e+06
3.39349e+06
3.4108e+06
3.43945e+06
3.45886e+06
3.46214e+06
3.45647e+06
3.44753e+06
3.45072e+06
3.45497e+06
3.45924e+06
3.46281e+06
3.46606e+06
3.46886e+06
3.47135e+06
3.47351e+06
3.47542e+06
3.4771e+06
3.47859e+06
3.47991e+06
3.48108e+06
3.48214e+06
3.48308e+06
3.48393e+06
3.4847e+06
3.4854e+06
3.48603e+06
3.4866e+06
3.48713e+06
3.4876e+06
3.48804e+06
3.48844e+06
3.4888e+06
3.41015e+06
3.40521e+06
3.40818e+06
3.40331e+06
3.39484e+06
3.39243e+06
3.40829e+06
3.43902e+06
3.45965e+06
3.46337e+06
3.46694e+06
3.46603e+06
3.45625e+06
3.44588e+06
3.44897e+06
3.45334e+06
3.45774e+06
3.46146e+06
3.46485e+06
3.46778e+06
3.47038e+06
3.47265e+06
3.47465e+06
3.47641e+06
3.47797e+06
3.47936e+06
3.48059e+06
3.48169e+06
3.48267e+06
3.48356e+06
3.48436e+06
3.48508e+06
3.48573e+06
3.48633e+06
3.48687e+06
3.48736e+06
3.48781e+06
3.48822e+06
3.4886e+06
3.41857e+06
3.41872e+06
3.41713e+06
3.41835e+06
3.41028e+06
3.41109e+06
3.41945e+06
3.44411e+06
3.46024e+06
3.4641e+06
3.46621e+06
3.46645e+06
3.45464e+06
3.4438e+06
3.44693e+06
3.45165e+06
3.45624e+06
3.46015e+06
3.46369e+06
3.46676e+06
3.46948e+06
3.47185e+06
3.47394e+06
3.47578e+06
3.4774e+06
3.47884e+06
3.48012e+06
3.48127e+06
3.48229e+06
3.48321e+06
3.48403e+06
3.48478e+06
3.48546e+06
3.48607e+06
3.48662e+06
3.48713e+06
3.48759e+06
3.48801e+06
3.4884e+06
3.48875e+06
3.43113e+06
3.43595e+06
3.4306e+06
3.43624e+06
3.42974e+06
3.43487e+06
3.43527e+06
3.44957e+06
3.45907e+06
3.46308e+06
3.46351e+06
3.46488e+06
3.4517e+06
3.44152e+06
3.44474e+06
3.44997e+06
3.45478e+06
3.45892e+06
3.46262e+06
3.46582e+06
3.46865e+06
3.47111e+06
3.47328e+06
3.47519e+06
3.47688e+06
3.47837e+06
3.47969e+06
3.48087e+06
3.48193e+06
3.48288e+06
3.48373e+06
3.4845e+06
3.48519e+06
3.48582e+06
3.48639e+06
3.48691e+06
3.48738e+06
3.48781e+06
3.4882e+06
3.48856e+06
3.4415e+06
3.4466e+06
3.44146e+06
3.44724e+06
3.44321e+06
3.45002e+06
3.44649e+06
3.45111e+06
3.45596e+06
3.46054e+06
3.45975e+06
3.46176e+06
3.4481e+06
3.43928e+06
3.44261e+06
3.44841e+06
3.45343e+06
3.4578e+06
3.46164e+06
3.46497e+06
3.4679e+06
3.47045e+06
3.47269e+06
3.47466e+06
3.4764e+06
3.47794e+06
3.4793e+06
3.48051e+06
3.4816e+06
3.48257e+06
3.48344e+06
3.48423e+06
3.48494e+06
3.48558e+06
3.48617e+06
3.4867e+06
3.48718e+06
3.48762e+06
3.48802e+06
3.48838e+06
3.48871e+06
3.44829e+06
3.44898e+06
3.44824e+06
3.44961e+06
3.45034e+06
3.45277e+06
3.45152e+06
3.44917e+06
3.45196e+06
3.45744e+06
3.45576e+06
3.45817e+06
3.4446e+06
3.43727e+06
3.44076e+06
3.44703e+06
3.45223e+06
3.45681e+06
3.46078e+06
3.46423e+06
3.46724e+06
3.46987e+06
3.47217e+06
3.47419e+06
3.47597e+06
3.47755e+06
3.47894e+06
3.48019e+06
3.48129e+06
3.48229e+06
3.48318e+06
3.48398e+06
3.48471e+06
3.48536e+06
3.48596e+06
3.4865e+06
3.48699e+06
3.48743e+06
3.48784e+06
3.48821e+06
3.48854e+06
3.45324e+06
3.44646e+06
3.45289e+06
3.44736e+06
3.45504e+06
3.44962e+06
3.45218e+06
3.44608e+06
3.44792e+06
3.45437e+06
3.45188e+06
3.45463e+06
3.4414e+06
3.43553e+06
3.43924e+06
3.44587e+06
3.45123e+06
3.45598e+06
3.46005e+06
3.4636e+06
3.46668e+06
3.46937e+06
3.47173e+06
3.47379e+06
3.4756e+06
3.47721e+06
3.47863e+06
3.47989e+06
3.48102e+06
3.48203e+06
3.48294e+06
3.48375e+06
3.48449e+06
3.48516e+06
3.48576e+06
3.48631e+06
3.4868e+06
3.48725e+06
3.48767e+06
3.48804e+06
3.48838e+06
3.45648e+06
3.44379e+06
3.45543e+06
3.44512e+06
3.4578e+06
3.44754e+06
3.45015e+06
3.44315e+06
3.444e+06
3.45156e+06
3.44829e+06
3.45136e+06
3.43856e+06
3.43407e+06
3.43806e+06
3.44495e+06
3.45044e+06
3.45532e+06
3.45947e+06
3.46309e+06
3.46623e+06
3.46896e+06
3.47135e+06
3.47345e+06
3.47529e+06
3.47691e+06
3.47835e+06
3.47963e+06
3.48078e+06
3.4818e+06
3.48272e+06
3.48354e+06
3.48429e+06
3.48496e+06
3.48557e+06
3.48613e+06
3.48663e+06
3.48709e+06
3.4875e+06
3.48788e+06
3.48822e+06
3.45503e+06
3.44275e+06
3.45389e+06
3.44404e+06
3.45579e+06
3.4468e+06
3.44613e+06
3.44032e+06
3.44012e+06
3.44893e+06
3.44503e+06
3.44838e+06
3.43606e+06
3.43289e+06
3.43718e+06
3.44427e+06
3.44986e+06
3.45483e+06
3.45904e+06
3.46271e+06
3.46588e+06
3.46865e+06
3.47106e+06
3.47317e+06
3.47503e+06
3.47667e+06
3.47812e+06
3.47941e+06
3.48056e+06
3.48159e+06
3.48252e+06
3.48335e+06
3.4841e+06
3.48478e+06
3.4854e+06
3.48596e+06
3.48646e+06
3.48693e+06
3.48734e+06
3.48772e+06
3.48807e+06
3.44821e+06
3.44284e+06
3.44751e+06
3.44323e+06
3.4482e+06
3.44523e+06
3.44095e+06
3.43755e+06
3.43655e+06
3.44639e+06
3.44202e+06
3.44559e+06
3.43382e+06
3.43195e+06
3.43657e+06
3.44383e+06
3.44948e+06
3.45452e+06
3.45876e+06
3.46245e+06
3.46564e+06
3.46842e+06
3.47084e+06
3.47296e+06
3.47483e+06
3.47647e+06
3.47793e+06
3.47923e+06
3.48038e+06
3.48142e+06
3.48235e+06
3.48318e+06
3.48394e+06
3.48462e+06
3.48524e+06
3.4858e+06
3.48631e+06
3.48677e+06
3.48719e+06
3.48758e+06
3.48792e+06
3.43889e+06
3.44417e+06
3.43928e+06
3.44347e+06
3.43918e+06
3.44299e+06
3.43617e+06
3.43506e+06
3.43355e+06
3.44386e+06
3.43929e+06
3.44295e+06
3.43186e+06
3.43127e+06
3.43621e+06
3.4436e+06
3.44931e+06
3.45437e+06
3.45863e+06
3.46232e+06
3.46551e+06
3.46828e+06
3.4707e+06
3.47282e+06
3.47468e+06
3.47632e+06
3.47778e+06
3.47907e+06
3.48023e+06
3.48126e+06
3.48219e+06
3.48303e+06
3.48379e+06
3.48447e+06
3.48509e+06
3.48565e+06
3.48617e+06
3.48663e+06
3.48705e+06
3.48744e+06
3.48779e+06
3.4321e+06
3.44761e+06
3.43351e+06
3.44591e+06
3.43398e+06
3.44135e+06
3.43282e+06
3.43269e+06
3.43097e+06
3.4413e+06
3.43686e+06
3.44039e+06
3.43022e+06
3.43084e+06
3.43612e+06
3.44361e+06
3.44933e+06
3.4544e+06
3.45864e+06
3.46231e+06
3.46548e+06
3.46824e+06
3.47064e+06
3.47274e+06
3.47459e+06
3.47622e+06
3.47767e+06
3.47896e+06
3.48011e+06
3.48114e+06
3.48207e+06
3.4829e+06
3.48365e+06
3.48434e+06
3.48496e+06
3.48552e+06
3.48603e+06
3.4865e+06
3.48692e+06
3.4873e+06
3.48765e+06
3.42988e+06
3.45124e+06
3.43183e+06
3.44911e+06
3.43366e+06
3.44018e+06
3.43055e+06
3.43002e+06
3.42857e+06
3.43861e+06
3.4349e+06
3.43794e+06
3.42904e+06
3.43071e+06
3.43632e+06
3.44384e+06
3.44956e+06
3.4546e+06
3.45879e+06
3.46243e+06
3.46556e+06
3.46828e+06
3.47065e+06
3.47273e+06
3.47455e+06
3.47617e+06
3.4776e+06
3.47888e+06
3.48002e+06
3.48104e+06
3.48196e+06
3.48279e+06
3.48354e+06
3.48422e+06
3.48484e+06
3.4854e+06
3.48591e+06
3.48637e+06
3.48679e+06
3.48718e+06
3.48753e+06
3.43141e+06
3.45168e+06
3.43329e+06
3.44988e+06
3.43535e+06
3.4383e+06
3.42853e+06
3.42697e+06
3.4263e+06
3.43595e+06
3.43344e+06
3.43572e+06
3.42844e+06
3.43091e+06
3.43684e+06
3.44432e+06
3.44999e+06
3.45497e+06
3.45909e+06
3.46266e+06
3.46573e+06
3.4684e+06
3.47073e+06
3.47277e+06
3.47457e+06
3.47616e+06
3.47757e+06
3.47883e+06
3.47995e+06
3.48096e+06
3.48187e+06
3.48269e+06
3.48344e+06
3.48411e+06
3.48473e+06
3.48528e+06
3.48579e+06
3.48625e+06
3.48667e+06
3.48706e+06
3.48741e+06
3.43292e+06
3.44712e+06
3.43511e+06
3.44687e+06
3.4362e+06
3.43526e+06
3.42644e+06
3.424e+06
3.42435e+06
3.43371e+06
3.43239e+06
3.43399e+06
3.42843e+06
3.4315e+06
3.4377e+06
3.44503e+06
3.45062e+06
3.45549e+06
3.45952e+06
3.46301e+06
3.466e+06
3.46861e+06
3.47088e+06
3.47288e+06
3.47463e+06
3.47619e+06
3.47757e+06
3.47881e+06
3.47992e+06
3.48091e+06
3.48181e+06
3.48262e+06
3.48335e+06
3.48402e+06
3.48463e+06
3.48518e+06
3.48569e+06
3.48614e+06
3.48656e+06
3.48694e+06
3.48729e+06
3.43525e+06
3.44046e+06
3.43606e+06
3.44133e+06
3.43546e+06
3.43164e+06
3.42452e+06
3.42163e+06
3.42289e+06
3.43195e+06
3.43193e+06
3.43286e+06
3.42905e+06
3.4325e+06
3.43889e+06
3.44597e+06
3.45145e+06
3.45617e+06
3.46008e+06
3.46346e+06
3.46636e+06
3.46889e+06
3.47109e+06
3.47303e+06
3.47475e+06
3.47626e+06
3.47761e+06
3.47882e+06
3.47991e+06
3.48088e+06
3.48176e+06
3.48256e+06
3.48329e+06
3.48394e+06
3.48454e+06
3.48509e+06
3.48559e+06
3.48604e+06
3.48646e+06
3.48684e+06
3.48718e+06
3.436e+06
3.43296e+06
3.43563e+06
3.43524e+06
3.43374e+06
3.42834e+06
3.42319e+06
3.42025e+06
3.42226e+06
3.43078e+06
3.43206e+06
3.43238e+06
3.43031e+06
3.43389e+06
3.44039e+06
3.44715e+06
3.45246e+06
3.45699e+06
3.46076e+06
3.464e+06
3.4668e+06
3.46923e+06
3.47137e+06
3.47324e+06
3.4749e+06
3.47637e+06
3.47769e+06
3.47886e+06
3.47992e+06
3.48088e+06
3.48174e+06
3.48252e+06
3.48323e+06
3.48388e+06
3.48447e+06
3.48501e+06
3.4855e+06
3.48595e+06
3.48636e+06
3.48674e+06
3.48708e+06
3.43604e+06
3.427e+06
3.43466e+06
3.43009e+06
3.43186e+06
3.42595e+06
3.42266e+06
3.41993e+06
3.42233e+06
3.43027e+06
3.43279e+06
3.4326e+06
3.43215e+06
3.43566e+06
3.44218e+06
3.44853e+06
3.45364e+06
3.45794e+06
3.46154e+06
3.46464e+06
3.46731e+06
3.46964e+06
3.47169e+06
3.47349e+06
3.47509e+06
3.47652e+06
3.47779e+06
3.47893e+06
3.47996e+06
3.48089e+06
3.48173e+06
3.4825e+06
3.48319e+06
3.48383e+06
3.48441e+06
3.48494e+06
3.48542e+06
3.48587e+06
3.48627e+06
3.48665e+06
3.48698e+06
3.43513e+06
3.42269e+06
3.43356e+06
3.42652e+06
3.43044e+06
3.42472e+06
3.42294e+06
3.42056e+06
3.42296e+06
3.43022e+06
3.4342e+06
3.43349e+06
3.43455e+06
3.43777e+06