/*--------------------------------*- C++ -*----------------------------------*\
| =========                 |                                                 |
| \\      /  F ield         | OpenFOAM: The Open Source CFD Toolbox           |
|  \\    /   O peration     | Version:  v2012                                 |
|   \\  /    A nd           | Website:  www.openfoam.com                      |
|    \\/     M anipulation  |                                                 |
\*---------------------------------------------------------------------------*/
FoamFile
{
    version     2.0;
    format      ascii;
    class       volVectorField;
    location    "0.65";
    object      U;
}
// * * * * * * * * * * * * * * * * * * * * * * * * * * * * * * * * * * * * * //

dimensions      [0 1 -1 0 0 0 0];


internalField   nonuniform List<vector> 
3332
(
(-0.812794 -7.31952 0.00709372)
(-0.845985 -6.68894 0.00738347)
(-0.873759 -6.10873 0.00762592)
(-0.896819 -5.57322 0.00782724)
(-0.915554 -5.07656 0.0079908)
(-0.930248 -4.61355 0.0081191)
(-0.941101 -4.1799 0.00821386)
(-0.948276 -3.77217 0.00827653)
(-0.951909 -3.38769 0.00830828)
(-0.952125 -3.02435 0.0083102)
(-0.949036 -2.68053 0.00828331)
(-0.94275 -2.35496 0.00822848)
(-0.933367 -2.04663 0.00814661)
(-0.920984 -1.75474 0.00803858)
(-0.905694 -1.47866 0.00790517)
(-0.887587 -1.21788 0.00774717)
(-0.866751 -0.971988 0.00756536)
(-0.843275 -0.740669 0.0073605)
(-0.817247 -0.523681 0.00713337)
(-0.78876 -0.320856 0.0068848)
(-0.810285 -8.62316 0.00707169)
(-0.855669 -7.90045 0.0074679)
(-0.891776 -7.22642 0.00778312)
(-0.921017 -6.60465 0.00803838)
(-0.944645 -6.03216 0.00824466)
(-0.963537 -5.50362 0.0084096)
(-0.978188 -5.01337 0.00853752)
(-0.988946 -4.55633 0.00863146)
(-0.996043 -4.12828 0.00869344)
(-0.99966 -3.72582 0.00872505)
(-0.999938 -3.34628 0.00872752)
(-0.997 -2.98761 0.00870192)
(-0.990952 -2.64817 0.00864919)
(-0.981892 -2.32672 0.00857015)
(-0.969909 -2.02227 0.00846559)
(-0.955086 -1.73402 0.00833626)
(-0.937505 -1.46135 0.00818285)
(-0.917244 -1.20377 0.00800605)
(-0.894378 -0.960877 0.00780652)
(-0.868985 -0.732355 0.00758492)
(-0.841142 -0.517974 0.00734195)
(-0.810934 -0.317573 0.00707836)
(-0.0534567 -47.4914 0.000466618)
(0.198914 -47.3353 -0.00173609)
(-0.251719 -37.3076 0.00219532)
(-0.878433 -16.9829 0.00766632)
(-0.739684 -17.5463 0.00645523)
(-1.54201 -27.0537 0.013457)
(-1.15016 -39.5569 0.0100396)
(-0.681178 -44.3378 0.00595698)
(-0.48839 -40.1387 0.0042736)
(0.171106 -31.8925 -0.00147491)
(-0.374021 -11.3869 0.00324527)
(-0.523558 -11.064 0.00456181)
(-0.654143 -10.588 0.00570702)
(-0.755277 -9.95522 0.00659122)
(-0.83233 -9.23597 0.00726398)
(-0.889582 -8.50141 0.00776381)
(-0.933076 -7.7937 0.00814353)
(-0.96631 -7.13145 0.00843368)
(-0.992119 -6.51934 0.008659)
(-1.01204 -5.95511 0.00883295)
(-1.02715 -5.43389 0.00896486)
(-1.03805 -4.95028 0.00906005)
(-1.04517 -4.49937 0.00912219)
(-1.04877 -4.07701 0.00915365)
(-1.04905 -3.67986 0.00915621)
(-1.04618 -3.30531 0.00913117)
(-1.04027 -2.9513 0.00907962)
(-1.03142 -2.61625 0.00900246)
(-1.01973 -2.29892 0.00890044)
(-1.00527 -1.99833 0.00877427)
(-0.988121 -1.71371 0.00862462)
(-0.968349 -1.44444 0.00845209)
(-0.946022 -1.19005 0.00825726)
(-0.921207 -0.950138 0.00804071)
(-0.89397 -0.724404 0.00780302)
(-0.864378 -0.512621 0.00754478)
(-0.832508 -0.314635 0.00726669)
(-0.0355377 -47.6313 0.000310217)
(0.152781 -47.3082 -0.00133348)
(-0.127894 -36.678 0.00111508)
(-0.0506593 -16.9558 0.000443063)
(0.650172 -17.2307 -0.00567467)
(-0.0687121 -26.519 0.000598181)
(0.597381 -39.9703 -0.00521327)
(0.68817 -44.5797 -0.006001)
(0.442008 -40.4705 -0.00384589)
(0.648409 -31.9594 -0.00564267)
(0.105081 -19.3458 -0.000924816)
(-0.223089 -11.6572 0.00184764)
(-0.414886 -11.1202 0.00359872)
(-0.577995 -10.8248 0.00503605)
(-0.717362 -10.3794 0.00625862)
(-0.823829 -9.77841 0.0071895)
(-0.903612 -9.0869 0.00788612)
(-0.961438 -8.37433 0.00839097)
(-1.00391 -7.68347 0.00876181)
(-1.03505 -7.03432 0.0090337)
(-1.05811 -6.43274 0.00923502)
(-1.07493 -5.87736 0.00938184)
(-1.08677 -5.36385 0.00948525)
(-1.09438 -4.88715 0.0095517)
(-1.09825 -4.44252 0.00958554)
(-1.09871 -4.02596 0.00958957)
(-1.09598 -3.6342 0.00956579)
(-1.09023 -3.26467 0.00951563)
(-1.08158 -2.91535 0.00944023)
(-1.07015 -2.5847 0.00934048)
(-1.05601 -2.27149 0.0092171)
(-1.03924 -1.97476 0.00907075)
(-1.0199 -1.69376 0.00890205)
(-0.998068 -1.4279 0.0087115)
(-0.973789 -1.17668 0.00849963)
(-0.947124 -0.939746 0.00826694)
(-0.918131 -0.716791 0.00801393)
(-0.886872 -0.5076 0.00774113)
(-0.853412 -0.312023 0.00744915)
(-0.0250209 -47.7521 0.00021842)
(0.124039 -47.3604 -0.00108264)
(-0.0737981 -36.8537 0.000643378)
(0.511647 -18.3575 -0.00446377)
(1.53288 -17.9259 -0.0133785)
(1.06307 -26.9194 -0.00927886)
(2.15046 -40.746 -0.0187678)
(1.93234 -44.5661 -0.0168674)
(1.32628 -40.3145 -0.0115599)
(1.03345 -31.5299 -0.00900534)
(0.195825 -18.6431 -0.00171927)
(-0.231953 -11.2652 0.00191811)
(-0.444835 -10.8193 0.00385773)
(-0.622074 -10.566 0.00541999)
(-0.769971 -10.1563 0.00671763)
(-0.882296 -9.59068 0.00769975)
(-0.965453 -8.92978 0.00842584)
(-1.02473 -8.2416 0.0089434)
(-1.06707 -7.56941 0.00931307)
(-1.09697 -6.93467 0.00957415)
(-1.11806 -6.34455 0.00975824)
(-1.13246 -5.79864 0.00988402)
(-1.14166 -5.29326 0.00996433)
(-1.14652 -4.82375 0.0100068)
(-1.14764 -4.38561 0.0100166)
(-1.14538 -3.97499 0.00999695)
(-1.14001 -3.5887 0.00995012)
(-1.13171 -3.22425 0.00987774)
(-1.12062 -2.87967 0.00978102)
(-1.10686 -2.55344 0.00966091)
(-1.09049 -2.24436 0.00951814)
(-1.07161 -1.95151 0.00935333)
(-1.05026 -1.67414 0.00916706)
(-1.02652 -1.41166 0.00895982)
(-1.00042 -1.16363 0.00873208)
(-0.972022 -0.929667 0.00848427)
(-0.941379 -0.709489 0.00821686)
(-0.908544 -0.502886 0.00793031)
(-0.873578 -0.309716 0.00762517)
(-0.83655 -0.129921 0.00730214)
(-0.0283778 -47.8499 0.000247708)
(0.116229 -47.4203 -0.00101449)
(-0.106717 -37.3592 0.000931016)
(0.695004 -20.349 -0.00606428)
(1.51154 -19.1254 -0.0131921)
(1.61665 -28.3533 -0.0141084)
(3.14897 -42.062 -0.0274816)
(2.7356 -44.3999 -0.0238841)
(1.89011 -39.7273 -0.0164779)
(1.20852 -30.6953 -0.0105371)
(0.210182 -17.7128 -0.00184399)
(-0.246212 -10.8365 0.00204302)
(-0.467751 -10.4922 0.00405687)
(-0.657205 -10.2899 0.0057261)
(-0.812264 -9.92017 0.00708663)
(-0.930485 -9.39261 0.0081203)
(-1.01734 -8.76474 0.00887871)
(-1.07881 -8.10305 0.00941535)
(-1.12183 -7.45123 0.00979102)
(-1.15135 -6.83217 0.0100488)
(-1.17127 -6.25443 0.0102227)
(-1.18401 -5.71865 0.010334)
(-1.19124 -5.22186 0.0103972)
(-1.19397 -4.75985 0.010421)
(-1.19287 -4.32843 0.0104115)
(-1.18838 -3.92389 0.0103723)
(-1.1808 -3.54319 0.0103061)
(-1.17033 -3.18391 0.0102148)
(-1.15713 -2.84413 0.0100997)
(-1.14132 -2.52236 0.00996175)
(-1.12299 -2.21745 0.00980179)
(-1.10221 -1.92849 0.00962047)
(-1.07905 -1.65476 0.00941836)
(-1.05357 -1.3957 0.00919593)
(-1.0258 -1.15085 0.00895363)
(-0.995805 -0.919862 0.00869187)
(-0.96363 -0.702463 0.00841108)
(-0.929325 -0.498449 0.0081117)
(-0.892945 -0.307687 0.00779422)
(-0.854558 -0.130123 0.00745925)
(-0.0393481 -47.922 0.000343443)
(0.11659 -47.423 -0.00101766)
(-0.17225 -37.832 0.00150312)
(0.611194 -21.9439 -0.0053338)
(0.863173 -20.3766 -0.00753311)
(1.91963 -30.8613 -0.0167507)
(3.59237 -43.7276 -0.031351)
(3.03506 -44.0666 -0.0265015)
(2.06619 -38.8577 -0.0180137)
(1.16629 -29.6338 -0.0101702)
(0.161225 -16.7062 -0.00141529)
(-0.269485 -10.4201 0.00225098)
(-0.487215 -10.153 0.0042272)
(-0.684549 -10.0008 0.00596459)
(-0.844839 -9.67298 0.00737084)
(-0.968517 -9.1852 0.0084522)
(-1.05918 -8.59217 0.00924385)
(-1.12339 -7.95868 0.00980445)
(-1.16783 -7.32873 0.0101925)
(-1.19778 -6.72655 0.010454)
(-1.21734 -6.16208 0.0106248)
(-1.22918 -5.63708 0.0107282)
(-1.23514 -5.14934 0.0107803)
(-1.23637 -4.69519 0.0107911)
(-1.23363 -4.27073 0.0107672)
(-1.22742 -3.87247 0.010713)
(-1.21807 -3.49751 0.0106315)
(-1.20584 -3.1435 0.0105248)
(-1.19089 -2.80859 0.0103943)
(-1.17335 -2.49135 0.0102413)
(-1.15333 -2.19066 0.0100666)
(-1.1309 -1.90563 0.0098709)
(-1.10614 -1.63556 0.00965482)
(-1.0791 -1.37993 0.00941884)
(-1.04983 -1.13828 0.00916343)
(-1.01839 -0.910284 0.00888899)
(-0.984809 -0.695674 0.00859595)
(-0.949147 -0.494257 0.00828474)
(-0.911457 -0.305908 0.00795581)
(-0.871802 -0.130578 0.00760974)
(-0.830249 0.0317533 0.00724722)
(-0.0491721 -47.9691 0.000429177)
(0.112443 -47.3579 -0.000981445)
(-0.210997 -38.1144 0.00184133)
(0.385034 -22.7745 -0.00336072)
(0.306098 -21.8166 -0.00266981)
(2.31051 -34.1608 -0.0201608)
(3.67137 -45.334 -0.0320416)
(2.99329 -43.5354 -0.0261389)
(1.97271 -37.8392 -0.0171984)
(0.999906 -28.5245 -0.00871822)
(0.0901142 -15.7441 -0.000793646)
(-0.299234 -10.0384 0.00251778)
(-0.504982 -9.81427 0.00438336)
(-0.704958 -9.70377 0.00614282)
(-0.86847 -9.4173 0.00757704)
(-0.996769 -8.96972 0.00869875)
(-1.09121 -8.41266 0.00952338)
(-1.15855 -7.80864 0.0101113)
(-1.20503 -7.20182 0.0105172)
(-1.23614 -6.61759 0.0107888)
(-1.25609 -6.06723 0.0109631)
(-1.26777 -5.55365 0.011065)
(-1.27315 -5.07545 0.011112)
(-1.27351 -4.62951 0.0111152)
(-1.2697 -4.21229 0.011082)
(-1.26228 -3.82053 0.0110174)
(-1.25165 -3.45146 0.0109246)
(-1.23807 -3.10285 0.0108061)
(-1.22174 -2.77292 0.0106636)
(-1.2028 -2.46029 0.0104984)
(-1.18138 -2.16387 0.0103115)
(-1.15756 -1.88282 0.0101036)
(-1.13143 -1.61647 0.00987551)
(-1.10303 -1.36429 0.00962773)
(-1.07244 -1.12587 0.00936074)
(-1.0397 -0.900886 0.00907499)
(-1.00485 -0.68908 0.0087709)
(-0.967956 -0.490273 0.00844892)
(-0.929063 -0.304346 0.00810949)
(-0.888237 -0.131259 0.0077532)
(-0.845544 0.0290063 0.00738065)
(-0.0501799 -47.9952 0.00043797)
(0.0924113 -47.254 -0.000806591)
(-0.190658 -38.1773 0.00166384)
(0.0527302 -23.1285 -0.000460488)
(0.289716 -23.9046 -0.0025252)
(2.71722 -37.6041 -0.0237102)
(3.58897 -46.5869 -0.0313243)
(2.77995 -42.8048 -0.0242773)
(1.76136 -36.7619 -0.0153556)
(0.801554 -27.4753 -0.0069886)
(0.0250073 -14.8718 -0.000226338)
(-0.330432 -9.68922 0.00279815)
(-0.521455 -9.48335 0.00452832)
(-0.719414 -9.40383 0.00626926)
(-0.884158 -9.15577 0.00771395)
(-1.01595 -8.74767 0.00886616)
(-1.11399 -8.22694 0.00972214)
(-1.18465 -7.65322 0.0103391)
(-1.23367 -7.07051 0.0107671)
(-1.26657 -6.50514 0.0110544)
(-1.28758 -5.96966 0.0112379)
(-1.29976 -5.46811 0.0113443)
(-1.30521 -4.99994 0.0113919)
(-1.30531 -4.56257 0.0113928)
(-1.30099 -4.15288 0.0113552)
(-1.29289 -3.76784 0.0112845)
(-1.28143 -3.40485 0.0111845)
(-1.26691 -3.0618 0.0110579)
(-1.24957 -2.73697 0.0109065)
(-1.22957 -2.42904 0.010732)
(-1.20705 -2.13699 0.0105355)
(-1.1821 -1.85999 0.0103178)
(-1.15482 -1.5974 0.0100797)
(-1.12528 -1.34872 0.00982196)
(-1.09355 -1.11357 0.00954499)
(-1.05967 -0.891616 0.00924934)
(-1.0237 -0.682637 0.00893546)
(-0.985701 -0.486458 0.00860382)
(-0.94572 -0.302969 0.00825489)
(-0.903825 -0.132136 0.00788927)
(-0.860084 0.0260532 0.00750756)
(-0.0399577 -48.0032 0.00034875)
(0.0564392 -47.1469 -0.000492613)
(-0.132087 -37.9688 0.00115266)
(-0.339084 -23.4684 0.00295951)
(0.680793 -26.7939 -0.00593756)
(2.93289 -40.7073 -0.0255932)
(3.43923 -47.413 -0.0300193)
(2.49024 -41.9176 -0.0217478)
(1.52218 -35.6841 -0.0132703)
(0.616591 -26.5325 -0.00537363)
(-0.0271965 -14.0892 0.00022672)
(-0.359668 -9.36415 0.00306132)
(-0.536402 -9.16341 0.00465993)
(-0.729055 -9.10512 0.00635375)
(-0.893092 -8.89109 0.00779195)
(-1.02711 -8.52067 0.00896351)
(-1.12834 -8.03588 0.0098474)
(-1.20235 -7.49283 0.0104936)
(-1.25425 -6.93492 0.0109467)
(-1.28941 -6.38915 0.0112537)
(-1.31207 -5.86924 0.0114516)
(-1.32534 -5.38029 0.0115675)
(-1.33143 -4.92259 0.0116208)
(-1.33183 -4.49418 0.0116243)
(-1.32753 -4.09231 0.0115868)
(-1.31922 -3.71424 0.0115143)
(-1.30737 -3.35753 0.0114109)
(-1.29233 -3.02019 0.0112797)
(-1.27434 -2.7006 0.0111227)
(-1.2536 -2.3975 0.0109418)
(-1.23027 -2.1099 0.0107382)
(-1.20446 -1.83703 0.010513)
(-1.17628 -1.57827 0.010267)
(-1.1458 -1.33315 0.010001)
(-1.11311 -1.1013 0.00971572)
(-1.07826 -0.882421 0.00941161)
(-1.04132 -0.676299 0.00908923)
(-1.00234 -0.482773 0.00874908)
(-0.961392 -0.301741 0.00839169)
(-0.918533 -0.133178 0.00801766)
(-0.873838 0.022921 0.00762762)
(-0.0255294 -47.9942 0.000222822)
(0.0203386 -47.0527 -0.000177518)
(-0.081127 -37.4622 0.000707857)
(-0.64728 -24.0373 0.00564969)
(1.16447 -30.228 -0.0101586)
(2.9095 -43.3246 -0.0253903)
(3.22995 -47.8721 -0.0281943)
(2.17166 -40.9443 -0.0189653)
(1.28745 -34.6469 -0.0112238)
(0.458254 -25.7098 -0.00398805)
(-0.0700988 -13.3861 0.000598313)
(-0.385495 -9.05655 0.00329437)
(-0.549539 -8.85547 0.00477571)
(-0.734943 -8.81075 0.00640553)
(-0.896513 -8.62576 0.00782187)
(-1.03146 -8.29042 0.00900149)
(-1.1353 -7.84048 0.00990815)
(-1.2125 -7.328 0.0105821)
(-1.26743 -6.79528 0.0110617)
(-1.30521 -6.26967 0.0113916)
(-1.32996 -5.76589 0.0116077)
(-1.34482 -5.29005 0.0117375)
(-1.35206 -4.84326 0.0118008)
(-1.35324 -4.42415 0.0118112)
(-1.34943 -4.0304 0.0117779)
(-1.34135 -3.65955 0.0117075)
(-1.32953 -3.30933 0.0116043)
(-1.31433 -2.97789 0.0114718)
(-1.29605 -2.66369 0.0113122)
(-1.27489 -2.36554 0.0111276)
(-1.25103 -2.08251 0.0109194)
(-1.22461 -1.81385 0.0106888)
(-1.19575 -1.55899 0.010437)
(-1.16455 -1.31749 0.0101647)
(-1.13108 -1.089 0.00987262)
(-1.09543 -0.873247 0.00956151)
(-1.05767 -0.670019 0.00923192)
(-1.01785 -0.479176 0.00888443)
(-0.976047 -0.300627 0.00851962)
(-0.932333 -0.134356 0.00813812)
(-0.886781 0.0196372 0.0077406)
(-0.018206 -47.9703 0.000158906)
(0.00551362 -46.9719 -4.81106e-05)
(-0.070135 -36.7567 0.000611857)
(-0.699364 -24.9735 0.00610456)
(1.61033 -33.7776 -0.0140502)
(2.76156 -45.455 -0.0241004)
(2.98487 -48.0442 -0.0260566)
(1.8657 -39.9501 -0.0162925)
(1.07204 -33.6782 -0.00934564)
(0.331757 -25.0053 -0.00288108)
(-0.108274 -12.749 0.000928871)
(-0.407916 -8.76261 0.00349729)
(-0.560895 -8.55954 0.00487593)
(-0.738044 -8.52286 0.00643302)
(-0.895666 -8.362 0.00781457)
(-1.03032 -8.05859 0.00899153)
(-1.13602 -7.64184 0.00991443)
(-1.21608 -7.1594 0.0106133)
(-1.27405 -6.65192 0.0111195)
(-1.31464 -6.14684 0.0114739)
(-1.3418 -5.65963 0.011711)
(-1.35863 -5.19733 0.011858)
(-1.36744 -4.76183 0.011935)
(-1.36982 -4.35237 0.0119558)
(-1.36689 -3.96703 0.0119304)
(-1.35944 -3.60364 0.0118653)
(-1.348 -3.26013 0.0117656)
(-1.333 -2.93477 0.0116347)
(-1.31473 -2.62612 0.0114753)
(-1.29345 -2.33306 0.0112896)
(-1.26933 -2.05471 0.0110792)
(-1.24255 -1.79037 0.0108454)
(-1.21324 -1.53951 0.0105896)
(-1.18151 -1.3017 0.0103127)
(-1.14745 -1.07663 0.0100155)
(-1.11116 -0.864043 0.00969882)
(-1.07272 -0.663752 0.00936332)
(-1.0322 -0.475627 0.00900967)
(-0.989664 -0.299591 0.00863848)
(-0.945203 -0.135636 0.00825046)
(-0.898893 0.0162299 0.00784633)
(-0.0274537 -47.9367 0.000239615)
(0.0268443 -46.9071 -0.000234265)
(-0.108883 -36.0922 0.000950007)
(-0.432916 -26.4485 0.00377949)
(2.00175 -37.0803 -0.017467)
(2.62994 -47.1348 -0.0229529)
(2.74638 -47.98 -0.0239764)
(1.60783 -38.9668 -0.0140395)
(0.888836 -32.787 -0.00774816)
(0.23607 -24.4022 -0.00204347)
(-0.146159 -12.1614 0.0012573)
(-0.427615 -8.48084 0.00367611)
(-0.570805 -8.27543 0.00496355)
(-0.739234 -8.24289 0.00644385)
(-0.891744 -8.10165 0.00778043)
(-1.02497 -7.82675 0.00894486)
(-1.13171 -7.44112 0.00987672)
(-1.21415 -6.98776 0.0105965)
(-1.275 -6.50529 0.0111277)
(-1.31846 -6.02087 0.0115072)
(-1.34821 -5.55055 0.011767)
(-1.36729 -5.10213 0.0119336)
(-1.37798 -4.67827 0.0120269)
(-1.38189 -4.27876 0.0120612)
(-1.38019 -3.90211 0.0120464)
(-1.37368 -3.54642 0.0119897)
(-1.36296 -3.20983 0.0118961)
(-1.34845 -2.89073 0.0117695)
(-1.33049 -2.5878 0.0116128)
(-1.30934 -2.29997 0.0114283)
(-1.28522 -2.02643 0.0112178)
(-1.25831 -1.76651 0.0109829)
(-1.22875 -1.51973 0.010725)
(-1.19668 -1.2857 0.0104451)
(-1.16221 -1.06412 0.0101443)
(-1.12544 -0.854759 0.00982346)
(-1.08647 -0.657453 0.00948332)
(-1.04537 -0.472087 0.00912465)
(-1.00223 -0.298597 0.00874813)
(-0.957127 -0.136987 0.00835454)
(-0.910157 0.0127273 0.00794465)
(-0.0561597 -47.8998 0.000490152)
(0.0852735 -46.8603 -0.00074421)
(-0.198 -35.6967 0.00172782)
(0.0336913 -28.5617 -0.000292341)
(2.27367 -39.9662 -0.0198411)
(2.54919 -48.4237 -0.0222492)
(2.5172 -47.7083 -0.0219777)
(1.39898 -38.0023 -0.0122149)
(0.736774 -31.9639 -0.00642221)
(0.155927 -23.8695 -0.00133888)
(-0.188459 -11.6156 0.00162505)
(-0.445659 -8.21135 0.00384029)
(-0.579849 -8.00307 0.00504366)
(-0.739286 -7.97175 0.00644476)
(-0.885825 -7.8462 0.0077289)
(-1.01662 -7.59634 0.00887193)
(-1.12352 -7.23945 0.00980527)
(-1.2078 -6.81388 0.010541)
(-1.27122 -6.35589 0.0110948)
(-1.31748 -5.89208 0.0114986)
(-1.3499 -5.4388 0.0117817)
(-1.37138 -5.00454 0.0119693)
(-1.38416 -4.59258 0.0120809)
(-1.38985 -4.20329 0.0121307)
(-1.38964 -3.83557 0.0121289)
(-1.38435 -3.48781 0.0120828)
(-1.3746 -3.15834 0.0119977)
(-1.36084 -2.8457 0.0118777)
(-1.34344 -2.54865 0.0117258)
(-1.32266 -2.2662 0.0115446)
(-1.29875 -1.99759 0.0113359)
(-1.27191 -1.74221 0.0111017)
(-1.24231 -1.49961 0.0108433)
(-1.21008 -1.26944 0.0105621)
(-1.17536 -1.05142 0.0102591)
(-1.13827 -0.845347 0.00993544)
(-1.09891 -0.651079 0.00959188)
(-1.05736 -0.468517 0.0092293)
(-1.01372 -0.297612 0.00884849)
(-0.968094 -0.138379 0.00845027)
(-0.920562 0.00915725 0.00803548)
(-0.0998695 -47.8641 0.000871639)
(0.167688 -46.816 -0.00146349)
(-0.32504 -35.6346 0.00283667)
(0.494475 -31.1865 -0.00431331)
(2.32566 -42.405 -0.0202956)
(2.45314 -49.4047 -0.0214115)
(2.26331 -47.2723 -0.0197634)
(1.20977 -37.0682 -0.0105624)
(0.600061 -31.1966 -0.00522985)
(0.0703381 -23.3767 -0.000583744)
(-0.240221 -11.1155 0.00207716)
(-0.462759 -7.95611 0.00399615)
(-0.588635 -7.74269 0.0051216)
(-0.738794 -7.71003 0.00644095)
(-0.878812 -7.59678 0.00766781)
(-1.0063 -7.36858 0.00878187)
(-1.11256 -7.03791 0.00970962)
(-1.19805 -6.63857 0.0104559)
(-1.26367 -6.2043 0.0110288)
(-1.31252 -5.76083 0.0114553)
(-1.34757 -5.32463 0.0117613)
(-1.37152 -4.90467 0.0119704)
(-1.38651 -4.50484 0.0121014)
(-1.39414 -4.12599 0.0121681)
(-1.3956 -3.76742 0.0121809)
(-1.39173 -3.42779 0.0121472)
(-1.38316 -3.10564 0.0120724)
(-1.37036 -2.79962 0.0119608)
(-1.35372 -2.5086 0.0118155)
(-1.33352 -2.23168 0.0116393)
(-1.31002 -1.96813 0.0114343)
(-1.28344 -1.71741 0.0112023)
(-1.25396 -1.47909 0.010945)
(-1.22174 -1.25286 0.0106639)
(-1.18694 -1.03848 0.0103601)
(-1.14966 -0.835764 0.0100348)
(-1.11004 -0.64459 0.00968904)
(-1.06817 -0.464881 0.00932364)
(-1.02415 -0.296602 0.00893952)
(-0.978097 -0.139781 0.00853758)
(-0.930101 0.00554703 0.00811874)
(-0.146969 -47.8313 0.00128272)
(0.249951 -46.7476 -0.00218146)
(-0.453559 -35.8144 0.00395841)
(0.807909 -34.0045 -0.0070485)
(2.13252 -44.415 -0.0186105)
(2.2839 -50.1742 -0.0199345)
(1.96447 -46.7352 -0.0171565)
(1.01492 -36.1878 -0.00886121)
(0.462466 -30.4803 -0.00402956)
(-0.0272605 -22.908 0.000276384)
(-0.299228 -10.6767 0.00259498)
(-0.4795 -7.71805 0.00414866)
(-0.597537 -7.49448 0.00520059)
(-0.738136 -7.4581 0.0064357)
(-0.871388 -7.35419 0.00760315)
(-0.99487 -7.14451 0.00868217)
(-1.09979 -6.83748 0.00959818)
(-1.18586 -6.46263 0.0103496)
(-1.25323 -6.05111 0.0109376)
(-1.3044 -5.62754 0.0113844)
(-1.34193 -5.20829 0.0117121)
(-1.3683 -4.80271 0.0119424)
(-1.38554 -4.41515 0.0120929)
(-1.39521 -4.04692 0.0121773)
(-1.39845 -3.69769 0.0122057)
(-1.39614 -3.36637 0.0121856)
(-1.3889 -3.0517 0.0121225)
(-1.37722 -2.75247 0.0120206)
(-1.3615 -2.46764 0.0118835)
(-1.34204 -2.19637 0.0117137)
(-1.31912 -1.93802 0.0115137)
(-1.29296 -1.69206 0.0112854)
(-1.26377 -1.45813 0.0110306)
(-1.23171 -1.23593 0.0107509)
(-1.19695 -1.02526 0.0104476)
(-1.15963 -0.825971 0.0101219)
(-1.11987 -0.63795 0.0097749)
(-1.0778 -0.461144 0.00940771)
(-1.03351 -0.295536 0.00902123)
(-0.987135 -0.141164 0.00861648)
(-0.938768 0.00192301 0.0081944)
(-0.184041 -47.8014 0.00160628)
(0.309777 -46.6413 -0.00270359)
(-0.541526 -36.1125 0.00472612)
(0.945489 -36.6748 -0.00824925)
(1.78478 -46.0413 -0.0155761)
(2.04947 -50.8106 -0.0178882)
(1.63891 -46.1546 -0.0143162)
(0.813312 -35.3808 -0.00710161)
(0.320186 -29.817 -0.0027882)
(-0.125751 -22.466 0.0011431)
(-0.356361 -10.3017 0.00309758)
(-0.496609 -7.49848 0.00430389)
(-0.606634 -7.25841 0.00528127)
(-0.737615 -7.21608 0.00643164)
(-0.864059 -7.11889 0.00753932)
(-0.983036 -6.92485 0.00857892)
(-1.08604 -6.63896 0.00947813)
(-1.17209 -6.28679 0.0102294)
(-1.24073 -5.89689 0.0108285)
(-1.29387 -5.49265 0.0112925)
(-1.33367 -5.09013 0.01164)
(-1.36235 -4.69888 0.0118904)
(-1.3818 -4.32367 0.0120602)
(-1.39349 -3.96619 0.0121624)
(-1.39857 -3.62644 0.0122068)
(-1.39789 -3.30359 0.0122009)
(-1.39208 -2.99655 0.0121503)
(-1.38164 -2.70425 0.0120592)
(-1.36697 -2.42575 0.0119312)
(-1.34839 -2.16027 0.0117691)
(-1.32618 -1.90722 0.0115753)
(-1.30057 -1.66614 0.0113518)
(-1.2718 -1.43669 0.0111007)
(-1.24003 -1.21861 0.0108235)
(-1.20545 -1.01174 0.0105218)
(-1.16821 -0.815934 0.0101967)
(-1.12844 -0.631127 0.00984963)
(-1.08627 -0.457277 0.00948161)
(-1.04182 -0.294384 0.0090937)
(-0.995212 -0.142502 0.00868697)
(-0.946566 -0.00168957 0.00826246)
(-0.202879 -47.774 0.00177068)
(0.335737 -46.5069 -0.00293016)
(-0.569159 -36.4466 0.00496725)
(0.952821 -38.9926 -0.00831352)
(1.40648 -47.3546 -0.0122748)
(1.79148 -51.3537 -0.0156362)
(1.32357 -45.565 -0.0115649)
(0.619211 -34.6528 -0.0054078)
(0.182748 -29.2106 -0.00158879)
(-0.214971 -22.0508 0.00192723)
(-0.409355 -9.99023 0.00356451)
(-0.513626 -7.29628 0.00445771)
(-0.615879 -7.03414 0.00536318)
(-0.737423 -6.98382 0.00643044)
(-0.857176 -6.89109 0.00747938)
(-0.971341 -6.71015 0.00847689)
(-1.07197 -6.44302 0.00935537)
(-1.15747 -6.11169 0.0101018)
(-1.22691 -5.74222 0.0107079)
(-1.28164 -5.35659 0.0111858)
(-1.32343 -4.97047 0.0115506)
(-1.35423 -4.59345 0.0118195)
(-1.37577 -4.23059 0.0120076)
(-1.38944 -3.88394 0.012127)
(-1.39635 -3.55377 0.0121873)
(-1.39732 -3.23951 0.0121959)
(-1.39299 -2.94023 0.0121581)
(-1.38385 -2.65499 0.0120785)
(-1.37031 -2.38293 0.0119604)
(-1.3527 -2.12335 0.0118067)
(-1.33131 -1.87572 0.01162)
(-1.30638 -1.63962 0.0114025)
(-1.27813 -1.41474 0.011156)
(-1.24677 -1.20087 0.0108824)
(-1.21249 -0.997867 0.0105831)
(-1.17543 -0.805625 0.0102597)
(-1.13575 -0.624092 0.00991346)
(-1.09359 -0.453252 0.00954551)
(-1.04907 -0.293121 0.00915703)
(-1.00233 -0.143769 0.00874914)
(-0.953497 -0.00526684 0.00832296)
(-0.20239 -47.7491 0.00176641)
(0.329475 -46.3646 -0.00287552)
(-0.540075 -36.783 0.00471343)
(0.893226 -40.9001 -0.00779377)
(1.07871 -48.4271 -0.00941436)
(1.54616 -51.8155 -0.0134949)
(1.04829 -44.9826 -0.00916329)
(0.446 -33.9976 -0.00389656)
(0.062749 -28.6609 -0.000541241)
(-0.288516 -21.6597 0.00257033)
(-0.455972 -9.73408 0.0039759)
(-0.530243 -7.10923 0.0046073)
(-0.625202 -6.82097 0.00544566)
(-0.73767 -6.76095 0.00643306)
(-0.850985 -6.67075 0.00742549)
(-0.960195 -6.50069 0.00837965)
(-1.05813 -6.25016 0.00923456)
(-1.14262 -5.93789 0.00997208)
(-1.21239 -5.5876 0.0105812)
(-1.26832 -5.21983 0.0110695)
(-1.31178 -4.84967 0.0114489)
(-1.34447 -4.48669 0.0117343)
(-1.36792 -4.13613 0.0119391)
(-1.38347 -3.80033 0.0120748)
(-1.39213 -3.47981 0.0121505)
(-1.39473 -3.17423 0.0121733)
(-1.39188 -2.8828 0.0121485)
(-1.38408 -2.60472 0.0120804)
(-1.37172 -2.33921 0.0119727)
(-1.35515 -2.08564 0.0118281)
(-1.33465 -1.84353 0.0116492)
(-1.31047 -1.61249 0.0114382)
(-1.28285 -1.39228 0.0111972)
(-1.252 -1.1827 0.010928)
(-1.2181 -0.983635 0.0106322)
(-1.18133 -0.79502 0.0103113)
(-1.14184 -0.616821 0.00996664)
(-1.09978 -0.449043 0.0095996)
(-1.0553 -0.291722 0.00921134)
(-1.00851 -0.144942 0.00880307)
(-0.959569 -0.00878643 0.00837595)
(-0.186132 -47.7276 0.00162452)
(0.2986 -46.2325 -0.00260607)
(-0.472134 -37.1235 0.00412056)
(0.814456 -42.4286 -0.00710669)
(0.830379 -49.316 -0.00724719)
(1.33372 -52.2006 -0.0116407)
(0.82767 -44.4141 -0.0072386)
(0.303674 -33.4032 -0.00265494)
(-0.0330026 -28.1622 0.000294778)
(-0.346963 -21.2899 0.00307996)
(-0.49532 -9.51835 0.00432357)
(-0.546311 -6.93479 0.0047513)
(-0.634519 -6.61794 0.00552798)
(-0.738434 -6.54693 0.00644016)
(-0.84565 -6.45768 0.00737905)
(-0.949895 -6.29659 0.00828979)
(-1.04491 -6.0607 0.00911924)
(-1.128 -5.76585 0.00984454)
(-1.19771 -5.43349 0.0104531)
(-1.25443 -5.08276 0.0109483)
(-1.29923 -4.7281 0.0113393)
(-1.33352 -4.37889 0.0116387)
(-1.3587 -4.04053 0.0118585)
(-1.37595 -3.71555 0.0120092)
(-1.38627 -3.40472 0.0120993)
(-1.39042 -3.10786 0.0121357)
(-1.38902 -2.82436 0.0121235)
(-1.38254 -2.55352 0.012067)
(-1.37139 -2.29464 0.0119697)
(-1.35588 -2.04716 0.0118345)
(-1.33632 -1.81065 0.0116638)
(-1.31297 -1.58477 0.01146)
(-1.28605 -1.36929 0.0112251)
(-1.25578 -1.16408 0.010961)
(-1.22236 -0.969026 0.0106693)
(-1.18596 -0.7841 0.0103517)
(-1.14675 -0.609293 0.0100095)
(-1.10488 -0.44463 0.0096441)
(-1.06051 -0.290165 0.00925681)
(-1.01376 -0.145999 0.00884887)
(-0.96479 -0.0122277 0.00842152)
(-0.159405 -47.7101 0.00139125)
(0.252441 -46.1221 -0.00220322)
(-0.382442 -37.486 0.00333795)
(0.74436 -43.6486 -0.00649525)
(0.661968 -50.0638 -0.00577748)
(1.16202 -52.5157 -0.0101421)
(0.664526 -43.8626 -0.00581552)
(0.195291 -32.8573 -0.00170972)
(-0.103049 -27.7049 0.000906381)
(-0.39199 -20.9312 0.00347291)
(-0.529414 -9.33231 0.00462683)
(-0.561552 -6.77038 0.00488739)
(-0.643786 -6.42405 0.00560976)
(-0.739741 -6.34113 0.00645196)
(-0.841261 -6.25153 0.00734087)
(-0.94063 -6.09783 0.00820897)
(-1.03261 -5.87488 0.00901191)
(-1.114 -5.5959 0.00972231)
(-1.18327 -5.28031 0.010327)
(-1.24041 -4.94579 0.0108258)
(-1.28619 -4.60609 0.0112255)
(-1.3218 -4.27036 0.0115364)
(-1.34845 -3.94404 0.0117691)
(-1.36723 -3.62981 0.0119331)
(-1.37906 -3.32865 0.0120364)
(-1.38467 -3.04054 0.0120854)
(-1.38464 -2.76501 0.0120853)
(-1.37945 -2.50146 0.01204)
(-1.36948 -2.24928 0.011953)
(-1.35506 -2.00796 0.0118273)
(-1.33647 -1.77712 0.0116651)
(-1.31398 -1.55646 0.0114688)
(-1.28781 -1.34579 0.0112405)
(-1.25819 -1.145 0.010982)
(-1.22532 -0.95403 0.0106951)
(-1.18936 -0.772854 0.0103814)
(-1.15051 -0.601493 0.0100423)
(-1.10891 -0.439995 0.00967927)
(-1.06472 -0.288433 0.00929364)
(-1.0181 -0.146922 0.00888671)
(-0.969172 -0.0155716 0.00845977)
(-0.126688 -47.6973 0.00110571)
(0.197871 -46.0379 -0.00172692)
(-0.284632 -37.8911 0.00248449)
(0.693036 -44.6381 -0.00604755)
(0.560479 -50.7023 -0.00489181)
(1.02979 -52.7709 -0.008988)
(0.55438 -43.3298 -0.00485501)
(0.117503 -32.3464 -0.00103186)
(-0.150056 -27.2772 0.00131691)
(-0.428413 -20.5718 0.00379063)
(-0.559142 -9.16926 0.00489457)
(-0.575849 -6.6139 0.00501466)
(-0.652971 -6.2382 0.00569072)
(-0.741583 -6.14284 0.00646841)
(-0.837862 -6.0519 0.00731131)
(-0.932508 -5.90426 0.00813812)
(-1.02141 -5.69278 0.00891417)
(-1.10085 -5.42833 0.00960762)
(-1.16937 -5.12838 0.0102057)
(-1.22657 -4.80926 0.010705)
(-1.27301 -4.48398 0.0111105)
(-1.30964 -4.16139 0.0114302)
(-1.33751 -3.8469 0.0116736)
(-1.3576 -3.54332 0.011849)
(-1.37077 -3.25178 0.0119641)
(-1.37771 -2.97241 0.0120247)
(-1.37897 -2.70486 0.0120357)
(-1.375 -2.44863 0.0120011)
(-1.36617 -2.20319 0.0119242)
(-1.35282 -1.96808 0.0118077)
(-1.33521 -1.74296 0.0116541)
(-1.3136 -1.52758 0.0114655)
(-1.28823 -1.32179 0.0112441)
(-1.25931 -1.12549 0.0109917)
(-1.22703 -0.938645 0.0107101)
(-1.19159 -0.761273 0.0104008)
(-1.15316 -0.59341 0.0100654)
(-1.1119 -0.435125 0.00970538)
(-1.06798 -0.28651 0.00932202)
(-1.02154 -0.147694 0.00891672)
(-0.97273 -0.0188011 0.00849082)
(-0.0913695 -47.6892 0.000797452)
(0.139922 -45.9809 -0.0012211)
(-0.18548 -38.3572 0.00161927)
(0.661127 -45.4651 -0.00576928)
(0.510463 -51.2567 -0.00445537)
(0.932093 -52.9783 -0.00813532)
(0.489093 -42.8161 -0.00428612)
(0.0640832 -31.8577 -0.000566997)
(-0.178923 -26.867 0.00156908)
(-0.460322 -20.2025 0.00406849)
(-0.584988 -9.02499 0.00512714)
(-0.589286 -6.46374 0.00513397)
(-0.662094 -6.05934 0.00577106)
(-0.74396 -5.95132 0.0064895)
(-0.835457 -5.85832 0.00729043)
(-0.925567 -5.71569 0.00807758)
(-1.0114 -5.51444 0.00882685)
(-1.08873 -5.2633 0.00950181)
(-1.15623 -4.97798 0.010091)
(-1.21316 -4.67348 0.010588)
(-1.25995 -4.36207 0.0109964)
(-1.29729 -4.05225 0.0113225)
(-1.32612 -3.74937 0.0115742)
(-1.34731 -3.4563 0.0117592)
(-1.36164 -3.17429 0.0118843)
(-1.36975 -2.90362 0.0119552)
(-1.37218 -2.64404 0.0119765)
(-1.36935 -2.39514 0.0119518)
(-1.36162 -2.15645 0.0118844)
(-1.3493 -1.92758 0.011777)
(-1.33266 -1.70823 0.0116318)
(-1.31195 -1.49818 0.011451)
(-1.28739 -1.2973 0.0112367)
(-1.2592 -1.10553 0.0109907)
(-1.22757 -0.922873 0.0107148)
(-1.19269 -0.749353 0.0104104)
(-1.15475 -0.585036 0.0100792)
(-1.11389 -0.430009 0.00972271)
(-1.07029 -0.284381 0.0093422)
(-1.0241 -0.1483 0.0089391)
(-0.975478 -0.0219008 0.00851481)
(-0.0552482 -47.6855 0.000482195)
(0.0809242 -45.9498 -0.000706155)
(-0.0889508 -38.8969 0.000776887)
(0.642592 -46.1822 -0.00560771)
(0.496724 -51.7483 -0.00433553)
(0.861473 -53.15 -0.00751901)
(0.457921 -42.3209 -0.00401515)
(0.0281733 -31.3776 -0.000255074)
(-0.195864 -26.4638 0.00171698)
(-0.489906 -19.8189 0.00432557)
(-0.607897 -8.89522 0.00533079)
(-0.602133 -6.31893 0.00524774)
(-0.671265 -5.88656 0.00585175)
(-0.746887 -5.7659 0.00651536)
(-0.834032 -5.67032 0.00727809)
(-0.919802 -5.53185 0.0080273)
(-1.00262 -5.33982 0.0087502)
(-1.0777 -5.10094 0.00940555)
(-1.14395 -4.82932 0.00998388)
(-1.20035 -4.53872 0.0104762)
(-1.24718 -4.24063 0.010885)
(-1.28495 -3.9432 0.0112148)
(-1.31449 -3.65167 0.0114727)
(-1.33655 -3.36895 0.0116653)
(-1.35185 -3.09637 0.0117989)
(-1.36099 -2.83432 0.0118787)
(-1.36446 -2.58268 0.011909)
(-1.36267 -2.34109 0.0118935)
(-1.35596 -2.10916 0.011835)
(-1.34463 -1.88654 0.0117362)
(-1.32893 -1.67297 0.0115992)
(-1.3091 -1.46828 0.0114262)
(-1.28537 -1.27235 0.0112191)
(-1.25793 -1.08516 0.0109797)
(-1.22699 -0.906722 0.0107096)
(-1.19272 -0.737097 0.0104106)
(-1.1553 -0.576366 0.0100841)
(-1.11491 -0.424638 0.00973156)
(-1.07169 -0.282038 0.00935439)
(-1.02581 -0.148728 0.00895403)
(-0.977434 -0.0248572 0.00853188)
(-0.0194387 -47.6858 0.000169659)
(0.0223072 -45.9416 -0.000194565)
(0.00351343 -39.516 -3.00581e-05)
(0.630021 -46.8254 -0.00549819)
(0.506557 -52.1947 -0.0044214)
(0.809621 -53.2956 -0.00706653)