/*--------------------------------*- C++ -*----------------------------------*\
| =========                 |                                                 |
| \\      /  F ield         | OpenFOAM: The Open Source CFD Toolbox           |
|  \\    /   O peration     | Version:  v2012                                 |
|   \\  /    A nd           | Website:  www.openfoam.com                      |
|    \\/     M anipulation  |                                                 |
\*---------------------------------------------------------------------------*/
FoamFile
{
    version     2.0;
    format      ascii;
    class       surfaceScalarField;
    location    "0.1";
    object      phi;
}
// * * * * * * * * * * * * * * * * * * * * * * * * * * * * * * * * * * * * * //

dimensions      [0 3 -1 0 0 0 0];
oriented        oriented;


internalField   nonuniform List<scalar> 
6434
(
3.46273e-10
-2.93049e-09
1.07073e-12
-2.10305e-10
-1.10636e-08
5.06493e-12
-2.56721e-09
-9.47164e-09
3.10112e-12
-2.82504e-09
3.72655e-09
4.35671e-12
1.21656e-08
1.72749e-12
2.4815e-10
-3.18044e-09
-1.30283e-12
9.62995e-10
-1.15845e-08
5.09341e-12
-4.10571e-10
-9.96322e-09
4.79935e-12
-3.40776e-09
2.18837e-09
3.93599e-12
8.75735e-09
1.36209e-12
2.94037e-10
-3.46747e-09
-3.3906e-12
6.84989e-10
-1.17936e-08
9.4189e-12
8.00985e-10
-1.05319e-08
3.18406e-12
2.33974e-10
-3.82713e-10
4.43164e-12
4.2503e-09
-1.27348e-13
3.43214e-10
-3.79884e-09
-5.54414e-12
8.61793e-10
-1.23236e-08
1.00844e-11
3.71528e-09
-1.33866e-08
5.43045e-12
3.1492e-09
-7.92539e-09
3.64809e-12
-1.04624e-08
1.48182e-12
3.30394e-10
-4.1699e-09
7.47305e-13
1.33208e-09
-1.33379e-08
5.8967e-12
5.7009e-09
-1.77539e-08
3.86761e-12
-1.4349e-09
-1.72615e-08
3.38719e-12
-2.0905e-08
-3.27634e-14
3.29518e-10
-4.49633e-09
-1.73784e-12
9.06889e-10
-1.39176e-08
5.4829e-12
2.64369e-09
-1.94932e-08
5.38632e-12
2.59343e-09
-1.72109e-08
3.17361e-12
-1.83113e-08
1.4324e-12
2.34297e-10
-4.73292e-09
-2.86747e-12
5.91293e-10
-1.42835e-08
8.80061e-12
1.42661e-09
-2.03256e-08
2.82414e-12
2.44068e-09
-1.82248e-08
4.22448e-12
-1.58718e-08
1.34475e-12
-3.12878e-10
-4.93588e-09
-4.64799e-12
4.67452e-11
-1.46717e-08
8.59774e-12
2.51168e-10
-2.05334e-08
5.51724e-12
1.21435e-09
-1.91855e-08
3.16261e-12
-1.46582e-08
1.47979e-12
-3.87036e-10
-5.15431e-09
-3.88114e-12
-2.81464e-09
-1.58344e-08
8.87658e-12
-2.33735e-09
-2.10092e-08
3.14523e-12
-1.1899e-09
-2.03346e-08
3.65364e-12
-1.58482e-08
1.06604e-12
-4.54984e-12
-5.36299e-09
-2.8852e-12
-2.86831e-09
-1.69519e-08
6.97662e-12
-2.92653e-09
-2.12332e-08
3.60969e-12
-1.9413e-09
-2.13192e-08
3.4762e-12
-1.77898e-08
1.42637e-12
3.49291e-10
-5.54171e-09
-6.38463e-12
-1.05466e-09
-1.76051e-08
1.09987e-11
-3.67732e-09
-2.19621e-08
1.25482e-12
-2.58517e-09
-2.24113e-08
3.11678e-12
-2.03769e-08
8.79458e-13
1.07556e-10
-5.69428e-09
-9.29944e-12
1.06619e-10
-1.7758e-08
1.20797e-11
-2.97353e-09
-2.30023e-08
3.36964e-12
-2.04675e-09
-2.33405e-08
3.52948e-12
-2.25413e-08
9.28267e-13
4.22567e-10
-5.81442e-09
-1.70945e-12
5.26894e-10
-1.78315e-08
7.32778e-12
-5.09437e-10
-2.3903e-08
3.51717e-12
1.13135e-09
-2.50437e-08
1.35167e-12
-2.46713e-08
3.62751e-13
3.90454e-10
-5.9195e-09
-3.36722e-14
1.01703e-09
-1.80283e-08
7.298e-12
8.12046e-10
-2.5031e-08
9.17303e-13
1.18696e-09
-2.82099e-08
1.93315e-12
-2.78211e-08
4.92037e-13
2.28051e-10
-6.03539e-09
-5.42684e-12
3.26878e-10
-1.81334e-08
1.25568e-11
5.50249e-10
-2.55259e-08
1.4931e-12
8.21072e-10
-3.00878e-08
1.91907e-13
-2.72625e-08
2.9999e-13
-1.98597e-10
-6.1614e-09
4.01961e-12
2.94465e-10
-1.81258e-08
8.50249e-13
1.32943e-09
-2.64745e-08
2.66656e-12
1.32629e-09
-3.25128e-08
1.32177e-12
-2.67739e-08
1.55531e-13
4.67558e-11
-6.24758e-09
-5.25392e-12
4.94186e-10
-1.83134e-08
9.46034e-12
1.71213e-09
-2.77973e-08
4.18608e-12
2.42965e-09
-3.4182e-08
-1.29823e-13
-2.65866e-08
7.52225e-13
1.13948e-10
-6.30389e-09
-3.81649e-12
2.27268e-10
-1.84116e-08
7.42933e-12
8.35552e-10
-2.8486e-08
5.7401e-12
2.31043e-09
-3.14214e-08
-1.30057e-12
-2.24585e-08
-3.33618e-14
-2.25063e-10
-6.39005e-09
-4.15584e-12
-3.29102e-10
-1.83605e-08
1.31058e-11
-1.51888e-09
-2.84546e-08
-4.84425e-12
4.86852e-10
-2.74996e-08
1.00755e-12
-1.6691e-08
2.06715e-13
-9.76065e-11
-6.4792e-09
-1.67752e-13
-1.08169e-09
-1.90469e-08
6.55529e-12
-1.68269e-09
-2.90204e-08
3.10705e-13
-7.72177e-11
-2.88907e-08
-4.06413e-13
-1.79182e-08
1.59255e-13
5.97601e-10
-6.53294e-09
-4.64862e-12
1.09609e-09
-1.97842e-08
1.06325e-11
-5.56726e-10
-3.03104e-08
-1.72384e-12
-1.78055e-09
-3.2108e-08
4.14948e-13
-2.16711e-08
1.52328e-12
2.15802e-10
-6.59734e-09
-1.08549e-11
7.44734e-11
-1.99093e-08
1.75281e-11
-3.21891e-10
-3.08665e-08
8.79159e-14
-2.14341e-10
-3.35947e-08
-1.82365e-12
-2.37202e-08
-1.73002e-12
1.76976e-10
-6.68627e-09
-7.48392e-12
-2.15591e-10
-1.99277e-08
6.82534e-12
-2.93212e-10
-3.12541e-08
-7.778e-13
6.92334e-10
-3.45305e-08
2.45613e-12
-2.2904e-08
1.4607e-12
7.94916e-14
-6.75554e-09
1.38695e-11
-1.48232e-10
-1.9874e-08
-5.97698e-13
5.9312e-10
-3.16554e-08
-3.47544e-12
1.75217e-09
-3.64563e-08
-3.00262e-12
-2.28867e-08
-1.29869e-12
3.62366e-11
-6.79318e-09
-2.63268e-12
-4.51512e-11
-1.96613e-08
-1.6952e-13
4.94581e-10
-3.19098e-08
-3.33963e-13
1.31137e-09
-3.7561e-08
2.06866e-12
-2.25689e-08
2.85197e-12
-1.94398e-10
-6.8145e-09
1.30959e-11
-1.05465e-09
-1.95679e-08
-5.61883e-12
-1.97651e-09
-3.26549e-08
6.11944e-13
-6.94078e-10
-3.72263e-08
-7.36169e-13
-1.98562e-08
-2.45459e-12
-3.64148e-10
-6.84978e-09
2.74634e-11
-1.69846e-09
-1.97787e-08
-2.24224e-11
-2.62313e-09
-3.40008e-08
-2.65566e-12
-7.3004e-10
-3.72828e-08
2.20945e-12
-1.63242e-08
4.69734e-13
-3.37228e-10
-6.91542e-09
1.9681e-11
-9.34888e-10
-2.00171e-08
-5.72328e-13
-3.45437e-10
-3.50267e-08
-6.64867e-12
5.78051e-10
-3.82022e-08
-4.00473e-12
-1.5175e-08
-1.46133e-13
7.61677e-11
-6.94798e-09
-2.39796e-12
4.32315e-10
-2.00708e-08
2.9537e-12
9.57877e-10
-3.54403e-08
-1.50812e-12
6.15456e-10
-3.81268e-08
1.76439e-12
-1.58831e-08
1.77773e-12
-5.24746e-11
-6.95027e-09
8.09909e-12
1.0352e-10
-2.02215e-08
-2.2853e-13
4.12169e-11
-3.56694e-08
-1.77607e-12
-4.27502e-10
-3.67852e-08
-6.42614e-14
-1.61856e-08
-5.56003e-13
-1.64933e-10
-6.98172e-09
9.76416e-12
-1.005e-10
-2.05103e-08
-5.88173e-12
-3.56955e-10
-3.55991e-08
-5.44902e-13
-8.57905e-10
-3.5386e-08
6.97447e-13
-1.49236e-08
3.95883e-13
-1.3486e-10
-7.02751e-09
1.07055e-11
-1.09229e-10
-2.08706e-08
-3.97944e-12
-8.59877e-10
-3.51748e-08
-2.21218e-12
-1.30015e-09
-3.48149e-08
1.04172e-12
-1.40804e-08
8.46181e-13
-7.31265e-12
-7.06764e-09
8.21768e-12
-3.18178e-11
-2.13357e-08
-1.12848e-12
-1.19868e-09
-3.45452e-08
-1.26345e-12
-1.18201e-09
-3.54911e-08
1.26869e-13
-1.44232e-08
-4.72139e-13
-2.76378e-11
4.74793e-12
-8.00907e-11
-3.0199e-13
-8.83489e-10
-1.68151e-12
-3.07083e-10
1.39828e-12
1.8962e-12
-2.31886e-09
-2.00565e-10
4.00778e-15
-2.13461e-09
-1.84274e-10
3.60631e-15
-1.96446e-09
-1.70151e-10
1.72357e-15
-1.80683e-09
-1.57634e-10
-1.13211e-15
-1.66042e-09
-1.46401e-10
-2.29583e-15
-1.52416e-09
-1.36261e-10
-1.52067e-15
-1.39709e-09
-1.27071e-10
-1.26562e-15
-1.27841e-09
-1.18685e-10
-5.53049e-16
-1.16748e-09
-1.1095e-10
-4.55959e-16
-1.06367e-09
-1.03821e-10
-7.12375e-17
-9.66545e-10
-9.71371e-11
-3.10739e-16
-8.75664e-10
-9.08889e-11
-2.20027e-16
-7.90686e-10
-8.49891e-11
-6.2668e-16
-7.1131e-10
-7.93913e-11
-4.00955e-16
-6.37093e-10
-7.42243e-11
-2.5682e-17
-5.67987e-10
-6.91198e-11
2.53552e-15
-5.03469e-10
-6.45282e-11
-1.34842e-15
-4.43188e-10
-6.02919e-11
-2.88399e-15
-3.87004e-10
-5.61975e-11
-1.20357e-15
-3.34387e-10
-5.26262e-11
-6.0325e-16
-2.85081e-10
-4.93177e-11
4.2e-16
-2.38773e-10
-4.63185e-11
-1.97422e-15
-1.95225e-10
-4.35569e-11
-1.0826e-15
-1.54325e-10
-4.0909e-11
-6.73129e-16
-1.16155e-10
-3.81771e-11
-5.80478e-16
-8.09959e-11
-3.51669e-11
1.15092e-16
-4.95584e-11
-3.14436e-11
-1.02125e-15
-2.25171e-11
-2.70461e-11
-9.08358e-16
-2.25216e-11
-1.05e-15
-4.6553e-09
-5.79999e-10
3.20758e-15
-4.30131e-09
-5.3828e-10
3.58216e-15
-3.97022e-09
-5.01253e-10
2.16879e-15
-3.65984e-09
-4.68012e-10
-1.22988e-15
-3.36833e-09
-4.37903e-10
-2.55401e-15
-3.09418e-09
-4.10399e-10
-2.04484e-15
-2.83616e-09
-3.85095e-10
-2.0535e-15
-2.59323e-09
-3.61616e-10
-1.09083e-15
-2.36463e-09
-3.39574e-10
-6.715e-16
-2.14954e-09
-3.18911e-10
-2.37983e-16
-1.94748e-09
-2.9921e-10
-1.52536e-16
-1.75787e-09
-2.80509e-10
1.25481e-16
-1.58027e-09
-2.62596e-10
-2.35121e-16
-1.41426e-09
-2.45418e-10
5.12298e-16
-1.25929e-09
-2.29207e-10
1.33118e-15
-1.11483e-09
-2.13594e-10
4.70318e-15
-9.8035e-10
-1.99014e-10
-1.41603e-15
-8.55284e-10
-1.85367e-10
-4.8732e-15
-7.38903e-10
-1.72594e-10
-2.0289e-15
-6.30573e-10
-1.60965e-10
-6.81115e-16
-5.29693e-10
-1.50209e-10
1.15374e-15
-4.35703e-10
-1.4032e-10
-3.0496e-15
-3.48255e-10
-1.31014e-10
-1.70261e-15
-2.67366e-10
-1.21807e-10
-9.81295e-16
-1.9356e-10
-1.11991e-10
-6.29464e-16
-1.28018e-10
-1.00717e-10
5.10275e-16
-7.29344e-11
-8.6533e-11
-1.47551e-15
-3.03204e-11
-6.96652e-11
-1.19537e-15
-5.28466e-11
-1.22171e-15
-6.22445e-09
-1.04667e-09
2.79353e-15
-5.78212e-09
-9.80634e-10
3.6232e-15
-5.36238e-09
-9.21005e-10
2.4976e-15
-4.96371e-09
-8.66689e-10
-6.40311e-16
-4.58478e-09
-8.16821e-10
-2.29766e-15
-4.22455e-09
-7.70613e-10
-1.656e-15
-3.8822e-09
-7.27452e-10
-1.66463e-15
-3.55703e-09
-6.86774e-10
-6.85173e-16
-3.24866e-09
-6.47978e-10
-2.05473e-16
-2.9565e-09
-6.11068e-10
2.20045e-16
-2.68037e-09
-5.75356e-10
4.11929e-16
-2.41988e-09
-5.41009e-10
6.9071e-16
-2.17479e-09
-5.07696e-10
2.70254e-16
-1.9448e-09
-4.75423e-10
1.3666e-15
-1.7294e-09
-4.44608e-10
2.47961e-15
-1.52817e-09
-4.14842e-10
6.01675e-15
-1.34048e-09
-3.86708e-10
-1.49885e-15
-1.1657e-09
-3.60161e-10
-6.05505e-15
-1.003e-09
-3.35304e-10
-2.72091e-15
-8.51577e-10
-3.12399e-10
-7.81714e-16
-7.10695e-10
-2.91104e-10
1.37313e-15
-5.79717e-10
-2.71309e-10
-3.71321e-15
-4.5831e-10
-2.52429e-10
-2.2072e-15
-3.46707e-10
-2.3342e-10
-1.22863e-15
-2.45898e-10
-2.12808e-10
-6.57034e-16
-1.57955e-10
-1.88668e-10
7.53506e-16
-8.61558e-11
-1.58339e-10
-1.75367e-15
-3.3733e-11
-1.22093e-10
-1.3656e-15
-8.65842e-11
-1.3328e-15
-7.30103e-09
-1.54386e-09
3.00567e-15
-6.82207e-09
-1.45961e-09
4.04652e-15
-6.36074e-09
-1.38234e-09
2.95646e-15
-5.91655e-09
-1.31089e-09
1.58609e-16
-5.48905e-09
-1.24432e-09
-1.74371e-15
-5.07797e-09
-1.18166e-09
-8.88887e-16
-4.68322e-09
-1.12221e-09
-1.16404e-15
-4.30472e-09
-1.06526e-09
-1.75072e-17
-3.94267e-09
-1.01007e-09
4.82507e-16
-3.59696e-09
-9.56767e-10
8.80557e-16
-3.26791e-09
-9.04427e-10
9.21107e-16
-2.9555e-09
-8.53423e-10
1.31287e-15
-2.65986e-09
-8.03339e-10
9.81902e-16
-2.38102e-09
-7.54292e-10
2.29826e-15
-2.11864e-09
-7.06984e-10
3.2044e-15
-1.87254e-09
-6.60955e-10
6.99058e-15
-1.6422e-09
-6.17061e-10
-1.44561e-15
-1.42703e-09
-5.75339e-10
-6.77444e-15
-1.22627e-09
-5.36079e-10
-3.16876e-15
-1.03906e-09
-4.99613e-10
-8.616e-16
-8.64693e-10
-4.65486e-10
1.41046e-15
-7.02536e-10
-4.33477e-10
-4.13123e-15
-5.52362e-10
-4.02611e-10
-2.51866e-15
-4.14658e-10
-3.71133e-10
-1.41875e-15
-2.90875e-10
-3.36599e-10
-6.78777e-16
-1.83816e-10
-2.95735e-10
8.85854e-16
-9.76848e-11
-2.44476e-10
-1.89655e-15
-3.6621e-11
-1.83162e-10
-1.47842e-15
-1.2321e-10
-1.41295e-15
-8.04053e-09
-2.03766e-09
3.28386e-15
-7.55711e-09
-1.94306e-09
4.59774e-15
-7.0845e-09
-1.85497e-09
3.43738e-15
-6.62316e-09
-1.77225e-09
7.16707e-16
-6.17352e-09
-1.69395e-09
-1.36806e-15
-5.73614e-09
-1.61902e-09
-3.3295e-16
-5.31164e-09
-1.54671e-09
-7.10779e-16
-4.90064e-09
-1.47625e-09
5.61012e-16
-4.50397e-09
-1.40678e-09
1.11566e-15
-4.12209e-09
-1.33864e-09
1.49332e-15
-3.75585e-09
-1.27068e-09
1.50697e-15
-3.40572e-09
-1.20356e-09
1.86311e-15
-3.07226e-09
-1.1368e-09
1.77874e-15
-2.7559e-09
-1.07069e-09
2.89042e-15
-2.45659e-09
-1.00628e-09
4.05566e-15
-2.17449e-09
-9.4308e-10
7.72437e-15
-1.90924e-09
-8.82309e-10
-1.31721e-15
-1.66047e-09
-8.24122e-10
-7.08835e-15
-1.42753e-09
-7.6903e-10
-3.42058e-15
-1.20966e-09
-7.17494e-10
-9.14159e-16
-1.00622e-09
-6.68941e-10
1.39485e-15
-8.1669e-10
-6.23013e-10
-4.39363e-15
-6.41005e-10
-5.78303e-10
-2.73726e-15
-4.79923e-10
-5.32224e-10
-1.5559e-15
-3.35309e-10
-4.81221e-10
-6.92175e-16
-2.10573e-10
-4.20479e-10
9.55618e-16
-1.10643e-10
-3.44413e-10
-1.99158e-15
-4.04006e-11
-2.5341e-10
-1.57255e-15
-1.63615e-10
-1.47986e-15
-8.5214e-09
-2.50819e-09
4.03853e-15
-8.05342e-09
-2.41107e-09
5.28058e-15
-7.58915e-09
-2.31924e-09
3.87651e-15
-7.12984e-09
-2.23159e-09
1.09673e-15
-6.6766e-09
-2.14717e-09
-1.05619e-15
-6.23068e-09
-2.06492e-09
2.67301e-17
-5.79337e-09
-1.98404e-09
-2.83123e-16
-5.36584e-09
-1.90376e-09
1.01368e-15
-4.94955e-09
-1.82311e-09
1.64417e-15
-4.54547e-09
-1.74271e-09
2.01407e-15
-4.15499e-09
-1.66119e-09
2.03464e-15
-3.77902e-09
-1.57953e-09
2.44845e-15
-3.4186e-09
-1.49723e-09
2.39933e-15
-3.07455e-09
-1.41477e-09
3.50733e-15
-2.74717e-09
-1.33364e-09
4.76414e-15
-2.43697e-09
-1.25331e-09
8.12713e-15
-2.14385e-09
-1.17543e-09
-1.11381e-15
-1.86767e-09
-1.10031e-09
-7.19576e-15
-1.608e-09
-1.02872e-09
-3.53258e-15
-1.36421e-09
-9.61287e-10
-9.45175e-16
-1.13584e-09
-8.97326e-10
1.36906e-15
-9.22524e-10
-8.36337e-10
-4.5101e-15
-7.24391e-10
-7.76443e-10
-2.88643e-15
-5.42462e-10
-7.14161e-10
-1.64994e-15
-3.78999e-10
-6.44692e-10
-7.0144e-16
-2.37899e-10
-5.61586e-10
9.91623e-16
-1.24677e-10
-4.57642e-10
-2.0637e-15
-4.49546e-11
-3.33137e-10
-1.66226e-15
-2.08574e-10
-1.54107e-15
-8.79851e-09
-2.94464e-09
4.51764e-15
-8.35756e-09
-2.85205e-09
5.7639e-15
-7.91381e-09
-2.763e-09
4.09512e-15
-7.46902e-09
-2.6764e-09
1.32298e-15
-7.02483e-09
-2.59134e-09
-7.74995e-16
-6.583e-09
-2.50672e-09
3.12961e-16
-6.1453e-09
-2.42175e-09
8.2109e-17
-5.71341e-09
-2.33563e-09
1.38863e-15
-5.28924e-09
-2.24733e-09
2.09894e-15
-4.87421e-09
-2.15772e-09
2.46763e-15
-4.47016e-09
-2.06526e-09
2.50649e-15
-4.07842e-09
-1.97126e-09
2.97959e-15
-3.70043e-09
-1.87523e-09
2.80712e-15
-3.33737e-09
-1.77785e-09
4.04868e-15
-2.98992e-09
-1.68109e-09
5.28643e-15
-2.65889e-09
-1.58436e-09
8.43435e-15
-2.34448e-09
-1.48984e-09
-9.74546e-16
-2.04682e-09
-1.39798e-09
-7.20071e-15
-1.7657e-09
-1.30985e-09
-3.57106e-15
-1.50071e-09
-1.22629e-09
-9.59941e-16
-1.25156e-09
-1.14648e-09
1.32157e-15
-1.01811e-09
-1.0698e-09
-4.55284e-15
-8.00695e-10
-9.93867e-10
-2.97514e-15
-6.00598e-10
-9.14267e-10
-1.70517e-15
-4.20427e-10
-8.24871e-10
-6.9824e-16
-2.64495e-10
-7.17526e-10
1.00103e-15
-1.38799e-10
-5.83343e-10
-2.1061e-15
-4.9582e-11
-4.22359e-10
-1.72805e-15
-2.58161e-10
-1.60192e-15
-8.91831e-09
-3.34206e-09
5.09664e-15
-8.51039e-09
-3.26e-09
6.1552e-15
-8.09402e-09
-3.17938e-09
4.29175e-15
-7.67132e-09
-3.09914e-09
1.4445e-15
-7.24428e-09
-3.01837e-09
-5.28785e-16
-6.81501e-09
-2.93596e-09
5.61821e-16
-6.38565e-09
-2.85112e-09
3.91302e-16
-5.95823e-09
-2.76304e-09
1.69518e-15
-5.53501e-09
-2.6706e-09
2.48499e-15
-5.11774e-09
-2.57497e-09
2.85375e-15
-4.70864e-09
-2.4744e-09
2.92022e-15
-4.30933e-09
-2.37056e-09
3.43618e-15
-3.92161e-09
-2.26296e-09
3.21534e-15
-3.54699e-09
-2.1525e-09
4.49145e-15
-3.18642e-09
-2.04164e-09
5.65066e-15
-2.84104e-09
-1.92976e-09
8.5411e-15
-2.51132e-09
-1.81956e-09
-8.67006e-16
-2.19763e-09
-1.71167e-09
-7.14016e-15
-1.90003e-09
-1.60747e-09
-3.54849e-15
-1.61831e-09
-1.50801e-09
-9.49023e-16
-1.35242e-09
-1.41239e-09
1.31396e-15
-1.10241e-09
-1.31982e-09
-4.54787e-15
-8.68842e-10
-1.22744e-09
-3.01572e-15
-6.53265e-10
-1.12985e-09
-1.72759e-15
-4.5859e-10
-1.01955e-09
-6.859e-16
-2.89471e-10
-8.86652e-10
9.94439e-16
-1.5234e-10
-7.2048e-10
-2.12354e-15
-5.41556e-11
-5.20549e-10
-1.77938e-15
-3.1232e-10
-1.65455e-15
-8.919e-09
-3.69907e-09
5.08218e-15
-8.54651e-09
-3.63253e-09
6.19467e-15
-8.16082e-09
-3.56508e-09
4.28746e-15
-7.76429e-09
-3.49569e-09
1.46051e-15
-7.35917e-09
-3.42348e-09
-3.09428e-16
-6.94779e-09
-3.3473e-09
7.96073e-16
-6.53256e-09
-3.26637e-09
5.89926e-16
-6.11572e-09
-3.17985e-09
1.94075e-15
-5.6998e-09
-3.08656e-09
2.79858e-15
-5.2868e-09
-2.98795e-09
3.17347e-15
-4.87916e-09
-2.88207e-09
3.27229e-15
-4.47877e-09
-2.77094e-09
3.81229e-15
-4.08768e-09
-2.65407e-09
3.57008e-15
-3.70763e-09
-2.53258e-09
4.83707e-15
-3.33985e-09
-2.40942e-09
5.89855e-15
-2.9857e-09
-2.28393e-09
8.64326e-15
-2.64591e-09
-2.15935e-09
-7.89658e-16
-2.32109e-09
-2.0365e-09
-7.05045e-15
-2.01152e-09
-1.91705e-09
-3.5026e-15
-1.71721e-09
-1.80232e-09
-9.26089e-16
-1.43833e-09
-1.69128e-09
1.29348e-15
-1.17513e-09
-1.58302e-09
-4.49882e-15
-9.2842e-10
-1.47416e-09
-3.01841e-15
-6.99965e-10
-1.35832e-09
-1.71842e-15
-4.92948e-10
-1.22658e-09
-6.57571e-16
-3.12316e-10
-1.06729e-09
9.93164e-16
-1.64901e-10
-8.67901e-10
-2.12158e-15
-5.84153e-11
-6.27039e-10
-1.80529e-15
-3.7074e-10
-1.69763e-15
-8.83031e-09
-4.01639e-09
5.42894e-15
-8.49343e-09
-3.96944e-09
6.28369e-15
-8.13945e-09
-3.91908e-09
4.31765e-15
-7.77088e-09
-3.86429e-09
1.45639e-15
-7.39013e-09
-3.80422e-09
-1.07698e-16
-6.99972e-09
-3.73768e-09
1.01678e-15
-6.6022e-09
-3.6639e-09
7.58213e-16
-6.19999e-09
-3.58204e-09
2.14633e-15
-5.79578e-09
-3.49083e-09
3.03853e-15
-5.39171e-09
-3.39199e-09
3.42935e-15
-4.99041e-09
-3.2834e-09
3.56131e-15
-4.59393e-09
-3.16741e-09
4.1084e-15
-4.20448e-09
-3.04353e-09
3.85963e-15
-3.824e-09
-2.91308e-09
5.09426e-15
-3.45388e-09
-2.77952e-09
6.0774e-15
-3.0957e-09
-2.64213e-09
8.57569e-15
-2.75037e-09
-2.50469e-09
-7.00962e-16
-2.41869e-09
-2.36817e-09
-6.90744e-15
-2.10118e-09
-2.23459e-09
-3.42117e-15
-1.79802e-09
-2.10548e-09
-8.86421e-16
-1.50959e-09
-1.97972e-09
1.26931e-15
-1.23636e-09
-1.85626e-09
-4.4052e-15
-9.79318e-10
-1.7312e-09
-2.99221e-15
-7.40456e-10
-1.59718e-09
-1.68294e-15
-5.23185e-10
-1.44386e-09
-6.2157e-16
-3.32707e-10
-1.25778e-09
9.86661e-16
-1.76226e-10
-1.02439e-09
-2.10516e-15
-6.22453e-11
-7.41023e-10
-1.80973e-15
-4.32989e-10
-1.73335e-15
-8.67477e-09
-4.29584e-09
5.36237e-15
-8.37244e-09
-4.2718e-09
6.11402e-15
-8.0498e-09
-4.24173e-09
4.14879e-15
-7.70949e-09
-4.20463e-09
1.37695e-15
-7.35405e-09
-4.15964e-09
9.67349e-17
-6.98611e-09
-4.10559e-09
1.31531e-15
-6.60834e-09
-4.04168e-09
8.86054e-16
-6.22326e-09
-3.96709e-09
2.30756e-15
-5.83367e-09
-3.88048e-09
3.22578e-15
-5.44181e-09
-3.78383e-09
3.62437e-15
-5.05038e-09
-3.67485e-09
3.78806e-15
-4.66156e-09
-3.55622e-09
4.32812e-15
-4.27765e-09
-3.42745e-09
4.0839e-15
-3.90071e-09
-3.29006e-09
5.271e-15
-3.53224e-09
-3.14798e-09
6.21776e-15
-3.17396e-09
-3.00043e-09
8.58302e-15
-2.82693e-09
-2.85172e-09
-6.08493e-16
-2.49213e-09
-2.70298e-09
-6.74027e-15
-2.17021e-09
-2.55652e-09
-3.33477e-15
-1.86155e-09
-2.41414e-09
-8.46154e-16
-1.56671e-09
-2.27458e-09
1.18772e-15
-1.28632e-09
-2.13665e-09
-4.30973e-15
-1.02158e-09
-1.99596e-09
-2.94288e-15
-7.74636e-10
-1.84413e-09
-1.62308e-15
-5.49112e-10
-1.66939e-09
-5.74231e-16
-3.50428e-10
-1.45647e-09
9.90158e-16
-1.86142e-10
-1.18868e-09
-2.08219e-15
-6.55721e-11
-8.61597e-10
-1.7942e-15
-4.98564e-10
-1.76122e-15
-8.46946e-09
-4.53984e-09
5.46754e-15
-8.19989e-09
-4.54141e-09
5.96195e-15
-7.9074e-09
-4.53423e-09
4.02187e-15
-7.59475e-09
-4.51731e-09
1.41522e-15
-7.26456e-09
-4.48982e-09
1.62683e-16
-6.91955e-09
-4.45056e-09
1.39088e-15
-6.56248e-09
-4.39876e-09
9.81157e-16
-6.19595e-09
-4.3336e-09
2.42545e-15
-5.82279e-09
-4.25369e-09
3.35949e-15
-5.44531e-09
-4.16128e-09
3.75589e-15
-5.06627e-09
-4.05391e-09
3.95043e-15
-4.68787e-09
-3.93462e-09
4.47676e-15
-4.31246e-09
-3.80286e-09
4.24392e-15
-3.94216e-09
-3.66038e-09
5.3941e-15
-3.57855e-09
-3.51157e-09
6.30574e-15
-3.22343e-09
-3.35557e-09
8.44964e-15
-2.87795e-09
-3.1972e-09
-4.99061e-16
-2.54319e-09
-3.03773e-09
-6.53561e-15
-2.21996e-09
-2.87977e-09
-3.2228e-15
-1.90876e-09
-2.72534e-09
-7.90765e-16
-1.61031e-09
-2.57304e-09
1.09587e-15
-1.3254e-09
-2.42157e-09
-4.20484e-15
-1.05536e-09
-2.266e-09
-2.8795e-15
-8.02524e-10
-2.09698e-09
-1.55665e-15
-5.70645e-10
-1.90127e-09
-5.31184e-16
-3.65355e-10
-1.66176e-09
9.81968e-16
-1.94542e-10
-1.3595e-09
-2.04872e-15
-6.83526e-11
-9.87791e-10
-1.76842e-15
-5.6692e-10
-1.78605e-15
-8.22738e-09
-4.75109e-09
4.99278e-15
-7.98842e-09
-4.78041e-09
5.42904e-15
-7.72446e-09
-4.7982e-09
3.71022e-15
-7.43831e-09
-4.80349e-09
1.37166e-15
-7.1327e-09
-4.79542e-09
1.88505e-16
-6.81041e-09
-4.77282e-09
1.42712e-15
-6.47426e-09
-4.73492e-09
1.02853e-15
-6.1269e-09
-4.68094e-09
2.50389e-15
-5.77119e-09
-4.60945e-09
3.44419e-15
-5.40948e-09
-4.52297e-09
3.82508e-15
-5.04451e-09
-4.41891e-09
4.04936e-15
-4.67851e-09
-4.30061e-09
4.56245e-15
-4.31382e-09
-4.16756e-09
4.34555e-15
-3.95257e-09
-4.02166e-09
5.47875e-15
-3.59636e-09
-3.86776e-09
6.31218e-15
-3.24702e-09
-3.70493e-09
8.40551e-15
-2.90577e-09
-3.53845e-09
-3.88522e-16
-2.57375e-09
-3.36975e-09
-6.31759e-15
-2.25187e-09
-3.20167e-09
-3.11292e-15
-1.94073e-09
-3.03647e-09
-7.17632e-16
-1.64117e-09
-2.87262e-09
1.15644e-15
-1.3541e-09
-2.70865e-09
-4.09531e-15
-1.08098e-09
-2.53912e-09
-2.80459e-15
-8.24253e-10
-2.35371e-09
-1.4892e-15
-5.8781e-10
-2.13772e-09
-4.84548e-16
-3.7745e-10
-1.87213e-09
9.82084e-16
-2.01392e-10
-1.53556e-09
-2.00756e-15
-7.05703e-11
-1.11862e-09
-1.7371e-15
-6.37494e-10
-1.80438e-15
-7.95859e-09
-4.93239e-09
4.77182e-15
-7.7479e-09
-4.99112e-09
5.02017e-15
-7.51059e-09
-5.03553e-09
3.53079e-15
-7.2495e-09
-5.0646e-09
1.32263e-15
-6.96742e-09
-5.07749e-09
2.06928e-16
-6.66721e-09
-5.073e-09
1.42932e-15
-6.35172e-09
-5.05042e-09
1.04374e-15
-6.02364e-09
-5.009e-09
2.53743e-15
-5.68584e-09
-4.9473e-09
3.48615e-15
-5.34068e-09
-4.86811e-09
3.84837e-15
-4.99087e-09
-4.76873e-09
4.09619e-15
-4.63863e-09
-4.65284e-09
4.58909e-15
-4.28626e-09
-4.51993e-09
4.39716e-15
-3.93587e-09
-4.37208e-09
5.49828e-15
-3.58904e-09
-4.21457e-09
6.29468e-15
-3.2476e-09
-4.04638e-09
8.22062e-15
-2.91278e-09
-3.87328e-09
-2.66566e-16
-2.58575e-09
-3.69677e-09
-6.06401e-15
-2.26748e-09
-3.51996e-09
-2.98033e-15
-1.95865e-09
-3.34531e-09
-6.62249e-16
-1.66016e-09
-3.17111e-09
1.20352e-15
-1.37305e-09
-2.99577e-09
-3.97698e-15
-1.09883e-09
-2.81334e-09
-2.72204e-15
-8.40065e-10
-2.61249e-09
-1.42285e-15
-6.00724e-10
-2.37707e-09
-4.44703e-16
-3.86757e-10
-2.0861e-09
9.65926e-16
-2.06692e-10
-1.71563e-09
-1.96184e-15
-7.22309e-11
-1.25308e-09
-1.71111e-15
-7.09728e-10
-1.82075e-15
-7.67086e-09
-5.08651e-09
4.30561e-15
-7.4861e-09
-5.17591e-09
4.47732e-15
-7.27345e-09
-5.24819e-09
3.20465e-15
-7.03581e-09
-5.30225e-09
1.25062e-15
-6.77603e-09
-5.33726e-09
1.80486e-16
-6.49699e-09
-5.35201e-09
1.39858e-15
-6.20159e-09
-5.34583e-09
1.04117e-15
-5.89254e-09
-5.31802e-09
2.55089e-15
-5.57271e-09
-5.26717e-09
3.49324e-15
-5.24446e-09
-5.19634e-09
3.8373e-15
-4.91045e-09
-5.10276e-09
4.09975e-15
-4.57286e-09
-4.99042e-09
4.56747e-15
-4.23395e-09
-4.85885e-09
4.40982e-15
-3.89575e-09
-4.7103e-09
5.46909e-15
-3.55981e-09
-4.55048e-09
6.2245e-15
-3.22793e-09
-4.37829e-09
8.14583e-15
-2.9013e-09
-4.1999e-09
-1.4981e-16
-2.58112e-09
-4.01694e-09
-5.80884e-15
-2.26836e-09
-3.83274e-09
-2.85547e-15
-1.96375e-09
-3.64992e-09
-6.77075e-16
-1.66825e-09
-3.46662e-09
1.21381e-15
-1.38294e-09
-3.28109e-09
-3.86876e-15
-1.10942e-09
-3.08686e-09
-2.63692e-15
-8.50286e-10
-2.87163e-09
-1.3556e-15
-6.09585e-10
-2.61777e-09
-3.95394e-16
-3.93383e-10
-2.30231e-09
9.58638e-16
-2.10506e-10
-1.89851e-09
-1.91106e-15
-7.33571e-11
-1.39023e-09
-1.68096e-15
-7.83088e-10
-1.83086e-15
-7.37034e-09
-5.21618e-09
4.13508e-15
-7.20914e-09
-5.33714e-09
4.15377e-15
-7.01917e-09
-5.43818e-09
3.02717e-15
-6.80332e-09
-5.51812e-09
1.19836e-15
-6.56448e-09
-5.5761e-09
1.39012e-16
-6.30556e-09
-5.6109e-09
1.34275e-15
-6.0295e-09
-5.62191e-09
1.0196e-15
-5.73901e-09
-5.60849e-09
2.55108e-15
-5.43695e-09
-5.56926e-09
3.45506e-15
-5.12566e-09
-5.50761e-09
3.79731e-15
-4.80776e-09
-5.42068e-09
4.06624e-15
-4.48536e-09
-5.31281e-09
4.51101e-15
-4.16065e-09
-5.18356e-09
4.38973e-15
-3.83559e-09
-5.03539e-09
5.40634e-15
-3.51168e-09
-4.87438e-09
6.15179e-15
-3.19062e-09
-4.69936e-09
7.92413e-15
-2.8736e-09
-4.51692e-09
-2.47374e-17
-2.56177e-09
-4.32877e-09
-5.5175e-15
-2.25609e-09
-4.13843e-09
-2.70284e-15
-1.95732e-09
-3.94868e-09
-6.69339e-16
-1.66644e-09
-3.75751e-09
1.26857e-15
-1.38456e-09
-3.56298e-09
-3.74891e-15
-1.1133e-09
-3.35812e-09
-2.54807e-15
-8.55307e-10
-3.12963e-09
-1.28865e-15
-6.14647e-10
-2.85844e-09
-3.46043e-16
-3.97486e-10
-2.51948e-09
9.32209e-16
-2.12913e-10
-2.08309e-09
-1.86203e-15
-7.39846e-11
-1.52916e-09
-1.65415e-15
-8.57075e-10
-1.84049e-15
-7.06186e-09
-5.32404e-09
3.84752e-15
-6.92195e-09
-5.47709e-09
3.78101e-15
-6.75268e-09
-5.60746e-09
2.77532e-15
-6.55695e-09
-5.71386e-09
1.17312e-15
-6.33767e-09
-5.79537e-09
8.61346e-17
-6.09777e-09
-5.85077e-09
1.28284e-15
-5.84019e-09
-5.8795e-09
9.99421e-16
-5.56765e-09
-5.881e-09
2.53722e-15
-5.28299e-09
-5.85397e-09
3.3862e-15
-4.98851e-09
-5.80207e-09
3.73278e-15
-4.68677e-09
-5.72243e-09
4.00174e-15
-4.37983e-09
-5.61975e-09
4.42387e-15
-4.06978e-09
-5.49361e-09
4.3415e-15
-3.75851e-09
-5.34668e-09
5.30612e-15
-3.44742e-09
-5.18545e-09
6.02552e-15
-3.13815e-09
-5.00864e-09
7.8287e-15
-2.83181e-09
-4.82326e-09
9.00532e-17
-2.52953e-09
-4.63105e-09
-5.2268e-15
-2.23222e-09
-4.43575e-09
-2.54715e-15
-1.94064e-09
-4.24027e-09
-6.23198e-16
-1.65576e-09
-4.0424e-09
1.28812e-15
-1.37869e-09
-3.84004e-09
-3.63011e-15
-1.11109e-09
-3.62572e-09
-2.45723e-15
-8.55564e-10
-3.38516e-09
-1.22161e-15
-6.1621e-10
-3.0978e-09
-2.88362e-16
-3.99257e-10
-2.73644e-09
9.16043e-16
-2.14025e-10
-2.26832e-09
-1.80036e-15
-7.41575e-11
-1.66903e-09
-1.62274e-15
-9.31234e-10
-1.84289e-15
-6.74931e-09
-5.41259e-09
3.71634e-15
-6.62846e-09
-5.59795e-09
3.51937e-15
-6.47799e-09
-5.75794e-09
2.66476e-15
-6.30077e-09
-5.8911e-09
1.2113e-15
-6.09968e-09
-5.99645e-09
3.73525e-17
-5.87766e-09
-6.07275e-09
1.224e-15
-5.63766e-09
-6.11951e-09
9.88764e-16
-5.38238e-09
-6.13626e-09
2.51429e-15
-5.11463e-09
-6.12176e-09
3.30092e-15
-4.83667e-09
-6.08001e-09
3.64714e-15
-4.55099e-09
-6.00813e-09
3.9123e-15
-4.25957e-09
-5.91115e-09
4.32419e-15
-3.96442e-09
-5.78876e-09
4.27415e-15
-3.66732e-09
-5.6438e-09
5.17693e-15
-3.36961e-09
-5.48314e-09
5.89119e-15
-3.07282e-09
-5.30545e-09
7.55827e-15
-2.77799e-09
-5.11808e-09
2.05078e-16
-2.48618e-09
-4.92286e-09
-4.90232e-15
-2.19826e-09
-4.72367e-09
-2.40085e-15
-1.91496e-09
-4.52357e-09
-5.28491e-16
-1.63722e-09
-4.32014e-09
1.3492e-15
-1.36617e-09
-4.11111e-09
-3.49221e-15
-1.1034e-09
-3.88849e-09
-2.36282e-15
-8.5152e-10
-3.63704e-09
-1.15779e-15
-6.14603e-10
-3.33472e-09
-2.53597e-16
-3.98914e-10
-2.95213e-09
8.77636e-16
-2.13969e-10
-2.45327e-09
-1.74198e-15
-7.39257e-11
-1.80908e-09
-1.59686e-15
-1.00516e-09
-1.84398e-15
-6.43575e-09
-5.48422e-09
3.38371e-15
-6.33189e-09
-5.70183e-09
3.15062e-15
-6.1984e-09
-5.89144e-09
2.47569e-15
-6.0381e-09
-6.05141e-09
1.30132e-15
-5.85388e-09
-6.18066e-09
-8.47664e-18
-5.64865e-09
-6.27795e-09
1.16634e-15
-5.42532e-09
-6.34284e-09
1.0017e-15
-5.18658e-09
-6.37497e-09
2.46967e-15
-4.93518e-09
-6.37319e-09
3.20591e-15
-4.67335e-09
-6.34181e-09
3.54649e-15
-4.4035e-09
-6.278e-09
3.80353e-15
-4.12752e-09
-6.18712e-09
4.21408e-15
-3.84733e-09
-6.06895e-09
4.21218e-15
-3.56462e-09
-5.92653e-09
5.02243e-15
-3.28062e-09
-5.76712e-09
5.70134e-15
-2.99677e-09
-5.58931e-09
7.38602e-15
-2.71403e-09
-5.40081e-09
3.05971e-16
-2.43338e-09
-5.2035e-09
-4.57629e-15
-2.15565e-09
-5.00142e-09
-2.33026e-15
-1.8815e-09
-4.79771e-09
-4.60739e-16
-1.61186e-09
-4.58979e-09
1.34928e-15
-1.34779e-09
-4.37518e-09
-3.36314e-15
-1.09087e-09
-4.14541e-09
-2.2692e-15
-8.43657e-10
-3.88426e-09
-1.09784e-15
-6.10174e-10
-3.5682e-09
-2.24636e-16
-3.96692e-10
-3.16562e-09
8.57633e-16
-2.12882e-10
-2.63709e-09
-1.6817e-15
-7.33427e-11
-1.94862e-09
-1.56616e-15
-1.07851e-09
-1.8303e-15
-6.12368e-09
-5.54114e-09
3.24559e-15
-6.03485e-09
-5.79069e-09
2.92398e-15
-5.91661e-09
-6.00968e-09
2.41098e-15
-5.77177e-09
-6.19626e-09
1.25558e-15
-5.60314e-09
-6.34928e-09
-3.7394e-17
-5.41362e-09
-6.46744e-09
1.11928e-15
-5.20608e-09
-6.55039e-09
1.05393e-15
-4.98315e-09
-6.59787e-09
2.3477e-15
-4.74754e-09
-6.60884e-09
3.09929e-15
-4.50139e-09
-6.58793e-09
3.4354e-15
-4.24705e-09
-6.53235e-09
3.68192e-15
-3.98632e-09
-6.44783e-09
4.07757e-15
-3.72102e-09
-6.33425e-09
4.10096e-15
-3.45274e-09
-6.19483e-09
4.85331e-15
-3.18262e-09
-6.03722e-09
5.52643e-15
-2.91199e-09
-5.85995e-09
7.09555e-15
-2.64173e-09
-5.67107e-09
4.29164e-16
-2.37274e-09
-5.47249e-09
-4.21888e-15
-2.10577e-09
-5.26839e-09
-2.21345e-15
-1.84145e-09
-5.06203e-09
-3.73575e-16
-1.58064e-09
-4.8506e-09
1.37897e-15
-1.32437e-09
-4.63146e-09
-3.22106e-15
-1.07415e-09
-4.39563e-09
-2.17645e-15
-8.32467e-10
-4.12594e-09
-1.04219e-15
-6.0328e-10
-3.79739e-09
-2.13757e-16
-3.92836e-10
-3.37607e-09
8.25984e-16
-2.10908e-10
-2.81902e-09
-1.62371e-15
-7.24643e-11
-2.08707e-09
-1.53828e-15
-1.15097e-09
-1.80992e-15
-5.81513e-09
-5.58542e-09
2.91071e-15
-5.73949e-09
-5.86636e-09
2.63683e-15
-5.63492e-09
-6.11425e-09
2.28308e-15
-5.50414e-09
-6.32705e-09
1.21264e-15
-5.34992e-09
-6.50348e-09
-6.01968e-17
-5.1751e-09
-6.64224e-09
1.09785e-15
-4.98248e-09
-6.74301e-09
1.0536e-15
-4.77465e-09
-6.80568e-09
2.22627e-15
-4.55422e-09
-6.8293e-09
2.9852e-15
-4.32329e-09
-6.81884e-09
3.30904e-15
-4.08408e-09
-6.77157e-09
3.55083e-15
-3.83833e-09
-6.69357e-09
3.92846e-15
-3.58775e-09
-6.58483e-09
3.94272e-15
-3.33382e-09
-6.44878e-09
4.65944e-15
-3.0776e-09
-6.29343e-09
5.3113e-15
-2.82031e-09
-6.11725e-09
6.96954e-15
-2.56274e-09
-5.92863e-09
4.94942e-16
-2.30572e-09
-5.72951e-09
-3.9918e-15
-2.04993e-09
-5.52419e-09
-2.07796e-15
-1.79593e-09
-5.31603e-09
-3.06895e-16
-1.54454e-09
-5.102e-09
1.35618e-15
-1.29669e-09
-4.8793e-09
-3.08558e-15
-1.05386e-09
-4.63847e-09
-2.08796e-15
-8.18436e-10
-4.36137e-09
-9.89118e-16
-5.94286e-10
-4.02155e-09
-1.97486e-16
-3.87596e-10
-3.58276e-09
8.31162e-16
-2.08194e-10
-2.99842e-09
-1.55767e-15
-7.13475e-11
-2.22391e-09
-1.50322e-15
-1.22232e-09
-1.77479e-15
-5.51176e-09
-5.61896e-09
2.78075e-15
-5.44762e-09
-5.93052e-09
2.46861e-15
-5.35523e-09
-6.20665e-09
2.2483e-15
-5.23723e-09
-6.44506e-09
1.19811e-15
-5.09632e-09
-6.64438e-09
-6.46265e-17
-4.93525e-09
-6.80328e-09
1.11308e-15
-4.75675e-09
-6.92151e-09
9.99897e-16
-4.56332e-09
-6.99908e-09