/*--------------------------------*- C++ -*----------------------------------*\
| =========                 |                                                 |
| \\      /  F ield         | OpenFOAM: The Open Source CFD Toolbox           |
|  \\    /   O peration     | Version:  v2012                                 |
|   \\  /    A nd           | Website:  www.openfoam.com                      |
|    \\/     M anipulation  |                                                 |
\*---------------------------------------------------------------------------*/
FoamFile
{
    version     2.0;
    format      ascii;
    class       surfaceScalarField;
    location    "0.25";
    object      alphaPhi0.water;
}
// * * * * * * * * * * * * * * * * * * * * * * * * * * * * * * * * * * * * * //

dimensions      [0 3 -1 0 0 0 0];
oriented        oriented;


internalField   nonuniform List<scalar> 
8134
(
-3.71527e-08
-7.53345e-09
-8.51655e-16
-3.07523e-08
-6.40028e-09
-5.71624e-16
-2.52837e-08
-5.46859e-09
-5.67408e-16
-2.06058e-08
-4.67796e-09
-8.09473e-16
-1.66107e-08
-3.99512e-09
-7.16815e-16
-1.32136e-08
-3.39705e-09
-7.95873e-16
-1.03429e-08
-2.87072e-09
-7.70227e-16
-7.93598e-09
-2.40693e-09
-6.42854e-16
-5.93622e-09
-1.99976e-09
-5.68832e-16
-4.2918e-09
-1.6444e-09
-4.65425e-16
-2.95527e-09
-1.33654e-09
-4.03515e-16
-1.88296e-09
-1.07232e-09
-3.71885e-16
-1.03559e-09
-8.47371e-10
-4.3307e-16
-3.77918e-10
-6.57669e-10
-1.5391e-16
1.20976e-10
-4.98895e-10
-1.53491e-16
4.8959e-10
-3.68614e-10
-3.26752e-16
7.5033e-10
-2.60741e-10
-2.23042e-16
9.2397e-10
-1.73641e-10
9.93745e-16
1.02806e-09
-1.04095e-10
2.52812e-15
1.0777e-09
-4.96607e-11
3.36124e-15
1.08575e-09
-8.0593e-12
3.6024e-15
1.06286e-09
2.28826e-11
1.81099e-15
1.01807e-09
4.48049e-11
1.98733e-18
9.58494e-10
5.95689e-11
-5.93566e-16
8.89942e-10
6.85587e-11
-7.49471e-16
8.16854e-10
7.30879e-11
-6.47221e-16
7.42608e-10
7.425e-11
-9.24002e-16
6.69623e-10
7.29923e-11
-8.29066e-16
5.99472e-10
7.01497e-11
-6.30141e-16
5.3318e-10
6.62959e-11
-3.15731e-16
4.71201e-10
6.19776e-11
1.614e-16
4.13644e-10
5.7556e-11
1.58535e-16
3.60317e-10
5.33297e-11
-7.7652e-17
3.10813e-10
4.95029e-11
1.37003e-17
2.64645e-10
4.61682e-11
1.58149e-16
2.21244e-10
4.34014e-11
2.60325e-16
1.80056e-10
4.11869e-11
1.60193e-16
1.40618e-10
3.94376e-11
1.0054e-16
1.02809e-10
3.7809e-11
5.64259e-17
6.69775e-11
3.58308e-11
2.93682e-18
3.50863e-11
3.18909e-11
-2.28159e-17
1.09e-11
2.41856e-11
-4.11585e-17
1.08995e-11
-3.33309e-17
-4.81212e-08
-1.42758e-08
-1.87941e-15
-4.19821e-08
-1.25393e-08
-1.58895e-15
-3.63773e-08
-1.10734e-08
-1.48631e-15
-3.12541e-08
-9.80116e-09
-1.68475e-15
-2.65733e-08
-8.6759e-09
-1.52996e-15
-2.23088e-08
-7.6615e-09
-1.54063e-15
-1.84425e-08
-6.73709e-09
-1.4692e-15
-1.49619e-08
-5.88752e-09
-1.14799e-15
-1.18568e-08
-5.10479e-09
-1.0521e-15
-9.1171e-09
-4.38412e-09
-8.91381e-16
-6.73086e-09
-3.72279e-09
-7.87456e-16
-4.6828e-09
-3.12039e-09
-7.30374e-16
-2.95463e-09
-2.57555e-09
-7.84481e-16
-1.52444e-09
-2.08785e-09
-4.80327e-16
-3.67442e-10
-1.65589e-09
-5.64666e-16
5.42991e-10
-1.27905e-09
-7.14728e-16
1.23525e-09
-9.52997e-10
-3.77733e-16
1.73773e-09
-6.76125e-10
7.49842e-16
2.07842e-09
-4.44788e-10
2.29861e-15
2.2842e-09
-2.55463e-10
2.83053e-15
2.3804e-09
-1.04266e-10
3.51998e-15
2.39017e-09
1.30963e-11
2.70529e-15
2.33439e-09
1.00585e-10
1.50281e-15
2.23102e-09
1.62921e-10
2.7697e-16
2.0954e-09
2.04188e-10
-4.75549e-16
1.93994e-09
2.28543e-10
-1.38307e-15
1.77456e-09
2.39635e-10
-2.12423e-15
1.60679e-09
2.40783e-10
-1.64138e-15
1.4419e-09
2.35033e-10
-1.07657e-15
1.28359e-09
2.24611e-10
-8.81012e-16
1.13392e-09
2.11646e-10
-5.2425e-16
9.93865e-10
1.97613e-10
-4.47588e-16
8.63474e-10
1.83726e-10
-5.18228e-16
7.42125e-10
1.70851e-10
-3.56749e-16
6.28858e-10
1.59436e-10
5.76121e-17
5.22451e-10
1.49809e-10
2.33291e-16
4.21678e-10
1.41958e-10
1.36466e-16
3.25618e-10
1.35497e-10
8.96051e-17
2.34167e-10
1.2926e-10
5.14925e-17
1.48809e-10
1.21189e-10
-5.26642e-18
7.44286e-11
1.06271e-10
-2.64874e-17
2.0879e-11
7.77343e-11
-4.88372e-17
3.17779e-11
-4.50177e-17
-4.66715e-08
-1.95758e-08
-2.71757e-15
-4.16547e-08
-1.75561e-08
-2.4052e-15
-3.69235e-08
-1.58046e-08
-2.1574e-15
-3.24686e-08
-1.42561e-08
-2.2604e-15
-2.82794e-08
-1.28651e-08
-2.05148e-15
-2.43482e-08
-1.15927e-08
-2.00683e-15
-2.0671e-08
-1.04143e-08
-1.9016e-15
-1.72485e-08
-9.30998e-09
-1.5089e-15
-1.40849e-08
-8.26845e-09
-1.40875e-15
-1.11864e-08
-7.28259e-09
-1.22701e-15
-8.5604e-09
-6.34878e-09
-1.11516e-15
-6.21269e-09
-5.4681e-09
-1.0574e-15
-4.14696e-09
-4.64129e-09
-1.15276e-15
-2.36277e-09
-3.87202e-09
-8.77034e-16
-8.55029e-10
-3.16363e-09
-7.50658e-16
3.85906e-10
-2.51998e-09
-6.09822e-16
1.37542e-09
-1.94251e-09
-7.03115e-16
2.13289e-09
-1.4336e-09
-1.56588e-16
2.68122e-09
-9.93116e-10
5.95604e-16
3.04572e-09
-6.19976e-10
6.95993e-16
3.25322e-09
-3.11771e-10
1.18024e-15
3.33082e-09
-6.45215e-11
1.24718e-15
3.30471e-09
1.2671e-10
1.20026e-15
3.19933e-09
2.68268e-10
1.13651e-15
3.03676e-09
3.66762e-10
2.80405e-16
2.83585e-09
4.2945e-10
-1.00502e-15
2.61227e-09
4.63215e-10
-1.58651e-15
2.37845e-09
4.74619e-10
-1.20944e-15
2.14356e-09
4.69911e-10
-1.05828e-15
1.91434e-09
4.5385e-10
-1.07068e-15
1.69491e-09
4.31075e-10
-8.00472e-16
1.48761e-09
4.04909e-10
-5.88857e-16
1.29324e-09
3.78104e-10
-5.04337e-16
1.11141e-09
3.52684e-10
-3.23424e-16
9.41087e-10
3.29758e-10
-1.30818e-17
7.80771e-10
3.10127e-10
1.52272e-16
6.28886e-10
2.93841e-10
9.55167e-17
4.84317e-10
2.80065e-10
6.45392e-17
3.47145e-10
2.66431e-10
3.48999e-17
2.19915e-10
2.48419e-10
-1.41693e-17
1.09788e-10
2.16397e-10
-2.82998e-17
3.08737e-11
1.56648e-10
-5.45575e-17
6.2651e-11
-5.2483e-17
-4.27715e-08
-2.36431e-08
-2.98722e-15
-3.87421e-08
-2.15854e-08
-2.6749e-15
-3.48134e-08
-1.97333e-08
-2.32531e-15
-3.10194e-08
-1.80501e-08
-2.39345e-15
-2.73787e-08
-1.65057e-08
-2.16947e-15
-2.39021e-08
-1.50693e-08
-2.151e-15
-2.05958e-08
-1.37206e-08
-2.08526e-15
-1.74656e-08
-1.24401e-08
-1.73209e-15
-1.45182e-08
-1.12159e-08
-1.63742e-15
-1.17615e-08
-1.00392e-08
-1.46508e-15
-9.20565e-09
-8.90466e-09
-1.35431e-15
-6.86107e-09
-7.8127e-09
-1.29654e-15
-4.73885e-09
-6.76352e-09
-1.41522e-15
-2.84864e-09
-5.76222e-09
-1.12885e-15
-1.19758e-09
-4.81468e-09
-9.84507e-16
2.10538e-10
-3.9281e-09
-7.78708e-16
1.37738e-09
-3.10935e-09
-5.99183e-16
2.3096e-09
-2.36581e-09
-3.98251e-16
3.01931e-09
-1.70282e-09
-1.22078e-16
3.52359e-09
-1.12427e-09
-1.49158e-16
3.84392e-09
-6.32101e-10
1.15902e-16
4.0048e-09
-2.25422e-10
2.37823e-16
4.03248e-09
9.90522e-11
2.1507e-16
3.95336e-09
3.47366e-10
3.67637e-16
3.79296e-09
5.27169e-10
5.05465e-16
3.57443e-09
6.47963e-10
-6.44078e-17
3.31805e-09
7.1959e-10
-8.20309e-16
3.04058e-09
7.52109e-10
-9.12315e-16
2.75492e-09
7.55552e-10
-8.52367e-16
2.47097e-09
7.37815e-10
-8.47065e-16
2.19527e-09
7.06775e-10
-5.92767e-16
1.9319e-09
6.6827e-10
-5.74635e-16
1.68281e-09
6.27206e-10
-4.97791e-16
1.44823e-09
5.87266e-10
-3.23345e-16
1.22742e-09
5.50572e-10
-1.57197e-16
1.0189e-09
5.18647e-10
5.99399e-17
8.21024e-10
4.91713e-10
6.62522e-17
6.32686e-10
4.68403e-10
4.79068e-17
4.54248e-10
4.44869e-10
1.95865e-17
2.89144e-10
4.13523e-10
-2.09504e-17
1.46288e-10
3.59254e-10
-2.85041e-17
4.2701e-11
2.60234e-10
-5.08644e-17
1.05351e-10
-4.83891e-17
-3.84227e-08
-2.66807e-08
-3.0885e-15
-3.52514e-08
-2.47566e-08
-2.8469e-15
-3.20354e-08
-2.29493e-08
-2.47962e-15
-2.88362e-08
-2.12494e-08
-2.52343e-15
-2.56959e-08
-1.9646e-08
-2.28883e-15
-2.2644e-08
-1.81212e-08
-2.26295e-15
-1.97002e-08
-1.66644e-08
-2.19685e-15
-1.68789e-08
-1.52614e-08
-1.85813e-15
-1.4191e-08
-1.39037e-08
-1.74772e-15
-1.16463e-08
-1.25839e-08
-1.58601e-15
-9.25465e-09
-1.12964e-08
-1.48658e-15
-7.02579e-09
-1.00416e-08
-1.43924e-15
-4.97087e-09
-8.81845e-09
-1.5771e-15
-3.10116e-09
-7.63191e-09
-1.28383e-15
-1.4278e-09
-6.48803e-09
-1.13279e-15
3.87902e-11
-5.3947e-09
-9.16136e-16
1.29374e-09
-4.3643e-09
-7.45132e-16
2.33202e-09
-3.40409e-09
-5.95312e-16
3.15608e-09
-2.52689e-09
-4.50338e-16
3.77342e-09
-1.74162e-09
-3.61849e-16
4.19723e-09
-1.0559e-09
-2.2916e-16
4.44572e-09
-4.73934e-10
-2.03013e-16
4.54123e-09
3.56616e-12
-1.7242e-16
4.50851e-09
3.8006e-10
-8.3797e-17
4.37344e-09
6.62249e-10
4.93346e-17
4.16103e-09
8.60356e-10
1.29189e-16
3.89449e-09
9.8613e-10
-9.52171e-17
3.59398e-09
1.05263e-09
-5.24187e-16
3.27577e-09
1.07374e-09
-7.25377e-16
2.95278e-09
1.06082e-09
-8.68245e-16
2.63407e-09
1.02547e-09
-5.56144e-16
2.32577e-09
9.76568e-10
-4.4417e-16
2.03127e-09
9.21717e-10
-4.58562e-16
1.75177e-09
8.66767e-10
-3.3893e-16
1.48713e-09
8.15214e-10
-2.3146e-16
1.23619e-09
7.69589e-10
-1.07026e-17
9.97463e-10
7.30434e-10
3.88122e-17
7.7003e-10
6.95835e-10
3.83484e-17
5.54606e-10
6.60293e-10
1.05e-17
3.55369e-10
6.1276e-10
-2.72926e-17
1.82557e-10
5.32065e-10
-2.84116e-17
5.53011e-11
3.87489e-10
-4.66263e-17
1.60652e-10
-4.14721e-17
-3.40304e-08
-2.88507e-08
-3.2786e-15
-3.16138e-08
-2.71732e-08
-2.99157e-15
-2.90457e-08
-2.55174e-08
-2.51516e-15
-2.63996e-08
-2.38956e-08
-2.50433e-15
-2.37315e-08
-2.2314e-08
-2.24549e-15
-2.10839e-08
-2.07688e-08
-2.23939e-15
-1.84882e-08
-1.92601e-08
-2.20098e-15
-1.59678e-08
-1.77818e-08
-1.91949e-15
-1.35404e-08
-1.63311e-08
-1.81061e-15
-1.12195e-08
-1.49047e-08
-1.66799e-15
-9.01665e-09
-1.34992e-08
-1.57193e-15
-6.9417e-09
-1.21165e-08
-1.52567e-15
-5.00477e-09
-1.07554e-08
-1.67134e-15
-3.2161e-09
-9.42057e-09
-1.37592e-15
-1.58655e-09
-8.11757e-09
-1.23142e-15
-1.26973e-10
-6.85427e-09
-1.01812e-15
1.15163e-09
-5.6429e-09
-8.39898e-16
2.24156e-09
-4.49401e-09
-6.99751e-16
3.13743e-09
-3.42276e-09
-5.88834e-16
3.83857e-09
-2.44277e-09
-5.0108e-16
4.34984e-09
-1.56718e-09
-4.08436e-16
4.68187e-09
-8.05984e-10
-3.41764e-16
4.85079e-09
-1.65324e-10
-2.91522e-16
4.87718e-09
3.53644e-10
-2.60563e-16
4.78462e-09
7.54823e-10
-2.13057e-16
4.59774e-09
1.04722e-09
-1.13046e-16
4.34081e-09
1.24306e-09
1.16565e-17
4.03611e-09
1.35734e-09
-1.04034e-16
3.70257e-09
1.40726e-09
-4.80272e-16
3.3558e-09
1.40761e-09
-7.72305e-16
3.00733e-09
1.37394e-09
-5.64161e-16
2.6654e-09
1.31849e-09
-4.01638e-16
2.33509e-09
1.25204e-09
-3.92607e-16
2.01884e-09
1.18302e-09
-3.54217e-16
1.71738e-09
1.11668e-09
-2.77781e-16
1.43012e-09
1.05685e-09
-7.2436e-17
1.15597e-09
1.00459e-09
3.46387e-18
8.94321e-10
9.57481e-10
2.30059e-17
6.46322e-10
9.08292e-10
1.00191e-18
4.16786e-10
8.42297e-10
-3.35625e-17
2.16961e-10
7.3189e-10
-3.13309e-17
6.76426e-11
5.36806e-10
-5.08736e-17
2.28294e-10
-4.36441e-17
-2.98448e-08
-3.03409e-08
-3.38007e-15
-2.80545e-08
-2.89634e-08
-3.14207e-15
-2.60496e-08
-2.75224e-08
-2.68931e-15
-2.3902e-08
-2.60432e-08
-2.66326e-15
-2.16712e-08
-2.45448e-08
-2.38354e-15
-1.94056e-08
-2.30344e-08
-2.35389e-15
-1.71433e-08
-2.15225e-08
-2.27541e-15
-1.49143e-08
-2.00108e-08
-1.98507e-15
-1.27419e-08
-1.85035e-08
-1.84211e-15
-1.0644e-08
-1.70026e-08
-1.69831e-15
-8.63499e-09
-1.55083e-08
-1.60293e-15
-6.726e-09
-1.40255e-08
-1.55944e-15
-4.92712e-09
-1.25543e-08
-1.71072e-15
-3.24767e-09
-1.11e-08
-1.4217e-15
-1.69728e-09
-9.66797e-09
-1.28999e-15
-2.86054e-10
-8.2655e-09
-1.08356e-15
9.74975e-10
-6.90393e-09
-9.09282e-16
2.07586e-09
-5.59488e-09
-7.74448e-16
3.00756e-09
-4.35446e-09
-6.67581e-16
3.76389e-09
-3.19911e-09
-5.78358e-16
4.34297e-09
-2.14626e-09
-4.99685e-16
4.74824e-09
-1.21127e-09
-4.29488e-16
4.98899e-09
-4.06047e-10
-3.80045e-16
5.08009e-09
2.62517e-10
-3.36848e-16
5.041e-09
7.93936e-10
-3.07917e-16
4.89401e-09
1.19419e-09
-2.72031e-16
4.66272e-09
1.47435e-09
-1.12438e-16
4.3701e-09
1.64998e-09
-1.14401e-16
4.03673e-09
1.74061e-09
-2.63241e-16
3.68037e-09
1.76397e-09
-5.96744e-16
3.31477e-09
1.73953e-09
-5.40813e-16
2.95021e-09
1.68304e-09
-3.85095e-16
2.59358e-09
1.60868e-09
-3.57434e-16
2.24872e-09
1.52787e-09
-3.42791e-16
1.91748e-09
1.44793e-09
-3.00443e-16
1.60003e-09
1.3743e-09
-1.04235e-16
1.29586e-09
1.30876e-09
-2.62644e-17
1.00485e-09
1.24849e-09
9.08158e-18
7.28608e-10
1.18453e-09
-5.79101e-18
4.72517e-10
1.09839e-09
-3.93165e-17
2.48629e-10
9.55778e-10
-3.38602e-17
7.91685e-11
7.06265e-10
-5.30892e-17
3.07462e-10
-4.28768e-17
-2.59678e-08
-3.13086e-08
-3.39049e-15
-2.46836e-08
-3.02476e-08
-3.15356e-15
-2.31535e-08
-2.90525e-08
-2.66878e-15
-2.14419e-08
-2.77547e-08
-2.61895e-15
-1.96056e-08
-2.63812e-08
-2.34312e-15
-1.76931e-08
-2.49468e-08
-2.33102e-15
-1.57452e-08
-2.34704e-08
-2.26744e-15
-1.37951e-08
-2.19608e-08
-2.0149e-15
-1.18697e-08
-2.04289e-08
-1.86636e-15
-9.99044e-09
-1.88818e-08
-1.73174e-15
-8.17419e-09
-1.73245e-08
-1.63265e-15
-6.43398e-09
-1.57658e-08
-1.58402e-15
-4.78064e-09
-1.42076e-08
-1.73081e-15
-3.22326e-09
-1.26574e-08
-1.4429e-15
-1.77054e-09
-1.11207e-08
-1.32238e-15
-4.3136e-10
-9.60467e-09
-1.12409e-15
7.84398e-10
-8.11968e-09
-9.562e-16
1.8667e-09
-6.67718e-09
-8.27628e-16
2.80525e-09
-5.29302e-09
-7.23334e-16
3.59089e-09
-3.98476e-09
-6.33361e-16
4.21712e-09
-2.77248e-09
-5.57403e-16
4.68152e-09
-1.67569e-09
-4.8869e-16
4.98704e-09
-7.11533e-10
-4.33333e-16
5.14242e-09
1.07109e-10
-3.86155e-16
5.16191e-09
7.74462e-10
-3.47859e-16
5.06407e-09
1.292e-09
-3.35845e-16
4.87031e-09
1.66811e-09
-2.52818e-16
4.60289e-09
1.91741e-09
-1.9975e-16
4.28294e-09
2.06053e-09
-1.81392e-16
3.92962e-09
2.1173e-09
-4.52704e-16
3.55846e-09
2.11069e-09
-4.6201e-16
3.18161e-09
2.05989e-09
-3.84774e-16
2.80771e-09
1.98259e-09
-3.42397e-16
2.44212e-09
1.89345e-09
-3.31376e-16
2.08793e-09
1.80213e-09
-3.11715e-16
1.74626e-09
1.71597e-09
-1.23015e-16
1.41733e-09
1.63768e-09
-4.6435e-17
1.10164e-09
1.56419e-09
6.81606e-20
8.01306e-10
1.48487e-09
-9.77761e-18
5.22238e-10
1.37746e-09
-4.37285e-17
2.77161e-10
1.20086e-09
-3.61647e-17
8.96159e-11
8.93809e-10
-5.49475e-17
3.97077e-10
-4.14434e-17
-2.24648e-08
-3.18925e-08
-3.40142e-15
-2.1574e-08
-3.11384e-08
-3.21511e-15
-2.04307e-08
-3.01957e-08
-2.86001e-15
-1.90885e-08
-2.9097e-08
-2.82897e-15
-1.75971e-08
-2.78724e-08
-2.52842e-15
-1.60023e-08
-2.65417e-08
-2.48281e-15
-1.43434e-08
-2.51293e-08
-2.36081e-15
-1.26546e-08
-2.36496e-08
-2.08642e-15
-1.09642e-08
-2.21193e-08
-1.89321e-15
-9.29543e-09
-2.05506e-08
-1.74607e-15
-7.66714e-09
-1.89528e-08
-1.63877e-15
-6.09387e-09
-1.7339e-08
-1.5871e-15
-4.5874e-09
-1.57141e-08
-1.72875e-15
-3.15711e-09
-1.40876e-08
-1.44541e-15
-1.81121e-09
-1.24666e-08
-1.336e-15
-5.57558e-10
-1.08583e-08
-1.14668e-15
5.95323e-10
-9.27257e-09
-9.86081e-16
1.63832e-09
-7.72017e-09
-8.64026e-16
2.56138e-09
-6.21608e-09
-7.62505e-16
3.35429e-09
-4.77769e-09
-6.73802e-16
4.00793e-09
-3.42612e-09
-5.98831e-16
4.51575e-09
-2.18353e-09
-5.30884e-16
4.87544e-09
-1.0712e-09
-4.73318e-16
5.09004e-09
-1.0751e-10
-4.27162e-16
5.1683e-09
6.96217e-10
-3.80673e-16
5.12415e-09
1.33613e-09
-3.57234e-16
4.97569e-09
1.81658e-09
-3.6899e-16
4.74328e-09
2.14985e-09
-2.42139e-16
4.44747e-09
2.3563e-09
-2.1215e-16
4.10798e-09
2.45681e-09
-3.66429e-16
3.74153e-09
2.47712e-09
-3.71277e-16
3.36182e-09
2.43959e-09
-3.8344e-16
2.9791e-09
2.36533e-09
-3.41647e-16
2.60023e-09
2.27231e-09
-3.24249e-16
2.2296e-09
2.17276e-09
-3.17544e-16
1.86945e-09
2.07613e-09
-1.40185e-16
1.52083e-09
1.98629e-09
-6.08342e-17
1.18493e-09
1.90009e-09
-5.95377e-18
8.64458e-10
1.80534e-09
-1.30475e-17
5.65824e-10
1.67609e-09
-4.79365e-17
3.02359e-10
1.46432e-09
-3.87317e-17
9.8857e-11
1.09731e-09
-5.70779e-17
4.95934e-10
-4.05206e-17
-1.93466e-08
-3.4549e-15
-1.87555e-08
-3.26604e-15
-1.79206e-08
-3.10306e-08
-2.90578e-15
-1.6884e-08
-3.01336e-08
-2.81972e-15
-1.56877e-08
-2.90687e-08
-2.49357e-15
-1.43718e-08
-2.78576e-08
-2.44148e-15
-1.29729e-08
-2.65282e-08
-2.32628e-15
-1.15237e-08
-2.50988e-08
-2.09174e-15
-1.00524e-08
-2.35906e-08
-1.90322e-15
-8.58269e-09
-2.20203e-08
-1.76444e-15
-7.13432e-09
-2.04012e-08
-1.6543e-15
-5.72281e-09
-1.87506e-08
-1.59735e-15
-4.36075e-09
-1.70762e-08
-1.72716e-15
-3.05789e-09
-1.53905e-08
-1.44235e-15
-1.8223e-09
-1.37022e-08
-1.3403e-15
-6.61146e-10
-1.20195e-08
-1.15845e-15
4.1826e-10
-1.0352e-08
-1.00424e-15
1.40801e-09
-8.70991e-09
-8.87741e-16
2.29907e-09
-7.10715e-09
-7.89492e-16
3.08144e-09
-5.56007e-09
-7.03127e-16
3.74492e-09
-4.0896e-09
-6.29567e-16
4.2805e-09
-2.71913e-09
-5.62591e-16
4.68201e-09
-1.47268e-09
-5.02626e-16
4.94767e-09
-3.73196e-10
-4.59899e-16
5.08103e-09
5.62883e-10
-4.11121e-16
5.0911e-09
1.32603e-09
-3.79539e-16
4.99194e-09
1.91575e-09
-3.88742e-16
4.80107e-09
2.34074e-09
-2.91828e-16
4.53752e-09
2.61981e-09
-2.66669e-16
4.22063e-09
2.77371e-09
-3.2683e-16
3.86769e-09
2.83005e-09
-3.11232e-16
3.49349e-09
2.81378e-09
-3.63968e-16
3.10964e-09
2.7492e-09
-3.50893e-16
2.72442e-09
2.65753e-09
-3.24057e-16
2.34353e-09
2.55365e-09
-3.23359e-16
1.97033e-09
2.44934e-09
-1.55385e-16
1.60684e-09
2.34977e-09
-7.26001e-17
1.25501e-09
2.25192e-09
-1.12744e-17
9.18168e-10
2.14218e-09
-1.63102e-17
6.0324e-10
1.99102e-09
-5.16819e-17
3.24122e-10
1.74344e-09
-4.12063e-17
1.06832e-10
1.3146e-09
-5.90248e-17
6.02765e-10
-3.96251e-17
-1.56423e-08
-3.16252e-08
-2.8141e-15
-1.48536e-08
-3.09224e-08
-2.87656e-15
-1.39044e-08
-3.00179e-08
-2.60822e-15
-1.28289e-08
-2.89332e-08
-2.53925e-15
-1.16593e-08
-2.76978e-08
-2.37738e-15
-1.04257e-08
-2.63324e-08
-2.13822e-15
-9.15494e-09
-2.48613e-08
-1.92471e-15
-7.87011e-09
-2.33051e-08
-1.77647e-15
-6.59099e-09
-2.16804e-08
-1.6572e-15
-5.33348e-09
-2.00081e-08
-1.59642e-15
-4.11056e-09
-1.82991e-08
-1.7161e-15
-2.93231e-09
-1.65687e-08
-1.43222e-15
-1.80677e-09
-1.48277e-08
-1.33739e-15
-7.4067e-10
-1.30856e-08
-1.16263e-15
2.59625e-10
-1.13523e-08
-1.01446e-15
1.18737e-09
-9.63765e-09
-9.02484e-16
2.03484e-09
-7.95463e-09
-8.07326e-16
2.79293e-09
-6.31816e-09
-7.23564e-16
3.45151e-09
-4.74817e-09
-6.51929e-16
4.00043e-09
-3.26807e-09
-5.86594e-16
4.43104e-09
-1.90326e-09
-5.26328e-16
4.73788e-09
-6.80059e-10
-4.79819e-16
4.91996e-09
3.80815e-10
-4.4132e-16
4.98161e-09
1.26437e-09
-4.02123e-16
4.93251e-09
1.96485e-09
-4.02078e-16
4.78673e-09
2.48655e-09
-3.63475e-16
4.56098e-09
2.84553e-09
-2.90924e-16
4.2734e-09
3.06129e-09
-3.24882e-16
3.94118e-09
3.16226e-09
-2.88107e-16
3.57969e-09
3.17526e-09
-3.27702e-16
3.20156e-09
3.12734e-09
-3.64242e-16
2.8163e-09
3.04278e-09
-3.29773e-16
2.43085e-09
2.93911e-09
-3.32421e-16
2.04973e-09
2.83047e-09
-1.67437e-16
1.67593e-09
2.72357e-09
-8.48027e-17
1.31222e-09
2.61562e-09
-1.76457e-17
9.62603e-10
2.4918e-09
-2.02318e-17
6.34519e-10
2.3191e-09
-5.58734e-17
3.42426e-10
2.03553e-09
-4.41347e-17
1.13524e-10
1.5435e-09
-6.12581e-17
7.16288e-10
-3.92141e-17
-1.35985e-08
-3.20356e-08
-2.95717e-15
-1.30075e-08
-3.15133e-08
-2.93519e-15
-1.22623e-08
-3.07631e-08
-2.62752e-15
-1.13905e-08
-2.98049e-08
-2.52512e-15
-1.042e-08
-2.86683e-08
-2.34209e-15
-9.37747e-09
-2.73749e-08
-2.13054e-15
-8.2874e-09
-2.59514e-08
-1.92669e-15
-7.17168e-09
-2.44208e-08
-1.78787e-15
-6.04936e-09
-2.28027e-08
-1.66729e-15
-4.93617e-09
-2.11213e-08
-1.60236e-15
-3.84513e-09
-1.93902e-08
-1.70807e-15
-2.78641e-09
-1.76274e-08
-1.42355e-15
-1.76806e-09
-1.5846e-08
-1.3326e-15
-7.96509e-10
-1.40571e-08
-1.16298e-15
1.22582e-10
-1.22714e-08
-1.02007e-15
9.83525e-10
-1.04986e-08
-9.11018e-16
1.77987e-09
-8.75097e-09
-8.18816e-16
2.50366e-09
-7.04196e-09
-7.36975e-16
3.14556e-09
-5.39007e-09
-6.67521e-16
3.69532e-09
-3.81784e-09
-6.04167e-16
4.14296e-09
-2.35087e-09
-5.45392e-16
4.4805e-09
-1.01762e-09
-4.959e-16
4.70336e-09
1.57974e-10
-4.58421e-16
4.81164e-09
1.15607e-09
-4.239e-16
4.81075e-09
1.96574e-09
-4.02811e-16
4.71098e-09
2.58634e-09
-3.85552e-16
4.52618e-09
3.0303e-09
-2.86144e-16
4.27262e-09
3.31486e-09
-3.38395e-16
3.96671e-09
3.46815e-09
-2.77976e-16
3.62388e-09
3.51808e-09
-2.98528e-16
3.25738e-09
3.49385e-09
-3.79758e-16
2.8777e-09
3.42245e-09
-3.40375e-16
2.4929e-09
3.32391e-09
-3.45556e-16
2.10858e-09
3.21479e-09
-1.79382e-16
1.72874e-09
3.10341e-09
-9.57905e-17
1.35699e-09
2.98737e-09
-2.44222e-17
9.97998e-10
2.85078e-09
-2.47497e-17
6.59764e-10
2.65734e-09
-6.02593e-17
3.57303e-10
2.338e-09
-4.71085e-17
1.18948e-10
1.78185e-09
-6.33259e-17
8.35236e-10
-3.86393e-17
-1.17821e-08
-3.23073e-08
-2.78377e-15
-1.13467e-08
-3.19487e-08
-2.82044e-15
-1.07673e-08
-3.13425e-08
-2.60722e-15
-1.00661e-08
-3.05061e-08
-2.53273e-15
-9.2662e-09
-2.94682e-08
-2.34177e-15
-8.39062e-09
-2.82505e-08
-2.14037e-15
-7.46127e-09
-2.68808e-08
-1.92962e-15
-6.49816e-09
-2.53838e-08
-1.79094e-15
-5.51921e-09
-2.37816e-08
-1.66509e-15
-4.53949e-09
-2.2101e-08
-1.59689e-15
-3.57169e-09
-2.0358e-08
-1.69064e-15
-2.62589e-09
-1.85732e-08
-1.41093e-15
-1.71005e-09
-1.67619e-08
-1.32478e-15
-8.30412e-10
-1.49368e-08
-1.16021e-15
7.50276e-12
-1.31093e-08
-1.02165e-15
8.00258e-10
-1.12913e-08
-9.16507e-16
1.54112e-09
-9.49183e-09
-8.25946e-16
2.2238e-09
-7.72465e-09
-7.45365e-16
2.84014e-09
-6.00641e-09
-6.77976e-16
3.38043e-09
-4.35814e-09
-6.16559e-16
3.83435e-09
-2.80477e-09
-5.59869e-16
4.19241e-09
-1.3757e-09
-5.11265e-16
4.44737e-09
-9.69733e-11
-4.6918e-16
4.59588e-09
1.00754e-09
-4.39671e-16
4.63941e-09
1.92221e-09
-4.1231e-16
4.58445e-09
2.64133e-09
-4.00677e-16
4.44165e-09
3.17307e-09
-3.03025e-16
4.22493e-09
3.53159e-09
-3.2642e-16
3.94933e-09
3.74373e-09
-2.73331e-16
3.62983e-09
3.83758e-09
-2.92775e-16
3.27989e-09
3.8438e-09
-3.91992e-16
2.91068e-09
3.79165e-09
-3.48233e-16
2.53117e-09
3.70342e-09
-3.60096e-16
2.14797e-09
3.598e-09
-1.92396e-16
1.76603e-09
3.48535e-09
-1.0533e-16
1.3898e-09
3.3636e-09
-3.16391e-17
1.02466e-09
3.21593e-09
-3.05577e-17
6.79143e-10
3.00285e-09
-6.55209e-17
3.68839e-10
2.6483e-09
-5.05286e-17
1.23142e-10
2.02755e-09
-6.5642e-17
9.58377e-10
-3.86441e-17
-1.01795e-08
-3.24764e-08
-2.95966e-15
-9.86483e-09
-3.22634e-08
-2.9383e-15
-9.41884e-09
-3.17885e-08
-2.69979e-15
-8.85884e-09
-3.10661e-08
-2.59189e-15
-8.20354e-09
-3.01235e-08
-2.36806e-15
-7.47235e-09
-2.89817e-08
-2.16747e-15
-6.68435e-09
-2.76688e-08
-1.94812e-15
-5.85748e-09
-2.62107e-08
-1.80756e-15
-5.00814e-09
-2.4631e-08
-1.6755e-15
-4.15045e-09
-2.29587e-08
-1.59997e-15
-3.2965e-09
-2.12119e-08
-1.678e-15
-2.45604e-09
-1.94136e-08
-1.4007e-15
-1.63681e-09
-1.75811e-08
-1.31734e-15
-8.44803e-10
-1.57288e-08
-1.15631e-15
-8.45707e-11
-1.38695e-08
-1.02116e-15
6.39105e-10
-1.2015e-08
-9.19521e-16
1.32245e-09
-1.01752e-08
-8.2972e-16
1.95984e-09
-8.36205e-09
-7.5033e-16
2.5443e-09
-6.59087e-09
-6.84728e-16
3.06709e-09
-4.88093e-09
-6.25023e-16
3.51816e-09
-3.25582e-09
-5.70397e-16
3.8874e-09
-1.74497e-09
-5.23823e-16
4.16586e-09
-3.75413e-10
-4.80895e-16
4.34747e-09
8.2592e-10
-4.49474e-16
4.43031e-09
1.83937e-09
-4.23442e-16
4.4173e-09
2.65436e-09
-4.12545e-16
4.31581e-09
3.27454e-09
-3.43211e-16
4.13705e-09
3.71035e-09
-3.1254e-16
3.89429e-09
3.98648e-09
-2.64747e-16
3.60155e-09
4.13031e-09
-2.83104e-16
3.2721e-09
4.17326e-09
-3.85463e-16
2.91745e-09
4.14629e-09
-3.49074e-16
2.54729e-09
4.07359e-09
-3.74053e-16
2.16908e-09
3.97622e-09
-2.05532e-16
1.78864e-09
3.86578e-09
-1.14587e-16
1.41125e-09
3.74099e-09
-3.89813e-17
1.04296e-09
3.58422e-09
-3.65531e-17
6.92878e-10
3.35293e-09
-7.03664e-17
3.77155e-10
2.96402e-09
-5.3649e-17
1.26161e-10
2.27854e-09
-6.74646e-17
1.08454e-09
-3.82382e-17
-8.77386e-09
-3.25706e-08
-2.53293e-15
-8.55171e-09
-3.24856e-08
-2.74251e-15
-8.21192e-09
-3.21282e-08
-2.62927e-15
-7.76763e-09
-3.15104e-08
-2.56822e-15
-7.23374e-09
-3.06573e-08
-2.35969e-15
-6.62627e-09
-2.95892e-08
-2.17549e-15
-5.96145e-09
-2.83336e-08
-1.95405e-15
-5.25504e-09
-2.69171e-08
-1.81281e-15
-4.52177e-09
-2.53643e-08
-1.67484e-15
-3.77457e-09
-2.37059e-08
-1.59354e-15
-3.02474e-09
-2.19618e-08
-1.65757e-15
-2.28152e-09
-2.01568e-08
-1.38644e-15
-1.55235e-09
-1.83103e-08
-1.30749e-15
-8.42939e-10
-1.64382e-08
-1.15084e-15
-1.57642e-10
-1.45548e-08
-1.01936e-15
4.99579e-10
-1.26722e-08
-9.1991e-16
1.12543e-09
-1.0801e-08
-8.30973e-16
1.71547e-09
-8.9521e-09
-7.53006e-16
2.26395e-09
-7.13935e-09
-6.88865e-16
2.76327e-09
-5.38026e-09
-6.30616e-16
3.20413e-09
-3.69666e-09
-5.7787e-16
3.57644e-09
-2.11729e-09
-5.33376e-16
3.87028e-09
-6.69249e-10
-4.91576e-16
4.0777e-09
6.18489e-10
-4.58772e-16
4.19403e-09
1.72304e-09
-4.32208e-16
4.21897e-09
2.62944e-09
-4.20088e-16
4.1567e-09
3.33678e-09
-3.63523e-16
4.01563e-09
3.85143e-09
-3.12346e-16
3.80689e-09
4.19521e-09
-2.64114e-16
3.54317e-09
4.39403e-09
-2.84463e-16
3.23716e-09
4.47928e-09
-3.65353e-16
2.90041e-09
4.48303e-09
-3.53007e-16
2.54304e-09
4.43097e-09
-3.8644e-16
2.17319e-09
4.34607e-09
-2.17254e-16
1.79749e-09
4.24148e-09
-1.23832e-16
1.42196e-09
4.11653e-09
-4.78945e-17
1.05332e-09
3.95286e-09
-4.36917e-17
7.0124e-10
3.70501e-09
-7.56463e-17
3.82408e-10
3.28286e-09
-5.73648e-17
1.28069e-10
2.53288e-09
-6.96447e-17
1.21261e-09
-3.82455e-17
-7.54648e-09
-3.26116e-08
-2.82995e-15
-7.39449e-09
-3.26376e-08
-2.88428e-15
-7.13847e-09
-3.23842e-08
-2.78377e-15
-6.78826e-09
-3.18606e-08
-2.67544e-15
-6.35551e-09
-3.10901e-08
-2.41923e-15
-5.85319e-09
-3.00915e-08
-2.22578e-15
-5.2949e-09
-2.88919e-08
-1.98992e-15
-4.69416e-09
-2.75178e-08
-1.83904e-15
-4.06397e-09
-2.59945e-08
-1.68988e-15
-3.416e-09
-2.43539e-08
-1.59752e-15
-2.76059e-09
-2.26172e-08
-1.64355e-15
-2.10636e-09
-2.08111e-08
-1.37546e-15
-1.46032e-09
-1.89563e-08
-1.29872e-15
-8.27887e-10
-1.70706e-08
-1.14539e-15
-2.13164e-10
-1.51695e-08
-1.01696e-15
3.80438e-10
-1.32658e-08
-9.19161e-16
9.50104e-10
-1.13707e-08
-8.30812e-16
1.49235e-09
-9.49434e-09
-7.54185e-16
2.00255e-09
-7.64955e-09
-6.91232e-16
2.47429e-09
-5.85201e-09
-6.34153e-16
2.89926e-09
-4.12161e-09
-5.83045e-16
3.26785e-09
-2.4859e-09
-5.40341e-16
3.56985e-09
-9.71238e-10
-5.00084e-16
3.79608e-09
3.92248e-10
-4.67216e-16
3.93978e-09
1.57933e-09
-4.38892e-16
3.99795e-09
2.57129e-09
-4.24021e-16
3.97184e-09
3.36287e-09
-3.67124e-16
3.86702e-09
3.95625e-09
-3.11773e-16
3.69234e-09
4.36988e-09
-2.65945e-16
3.45884e-09
4.62751e-09
-3.04363e-16
3.17831e-09
4.75982e-09
-4.00641e-16
2.86202e-09
4.79931e-09
-3.63538e-16
2.52026e-09
4.77273e-09
-3.97529e-16
2.16169e-09
4.70465e-09
-2.28155e-16
1.79359e-09
4.60958e-09
-1.32504e-16
1.42265e-09
4.48746e-09
-5.74662e-17
1.05623e-09
4.31928e-09
-5.13142e-17
7.04536e-10
4.05671e-09
-8.06184e-17
3.84777e-10
3.60262e-09
-6.07697e-17
1.2894e-10
2.78871e-09
-7.14579e-17
1.34155e-09
-3.78657e-17
-6.47865e-09
-3.26154e-08
-2.7966e-15
-6.37924e-09
-3.2737e-08
-2.65098e-15
-6.18879e-09
-3.25747e-08
-2.60389e-15
-5.91451e-09
-3.21349e-08
-2.57897e-15
-5.56542e-09
-3.14392e-08
-2.36076e-15
-5.15189e-09
-3.0505e-08
-2.19034e-15
-4.68508e-09
-2.93587e-08
-1.98162e-15
-4.17641e-09
-2.80265e-08
-1.8391e-15
-3.63715e-09
-2.65337e-08
-1.68875e-15
-3.07766e-09
-2.49134e-08
-1.59168e-15
-2.50726e-09
-2.31876e-08
-1.62362e-15
-1.93385e-09
-2.13845e-08
-1.36141e-15
-1.36393e-09
-1.95262e-08
-1.28831e-15
-8.02596e-10
-1.76319e-08
-1.13915e-15
-2.53668e-10
-1.57185e-08
-1.01395e-15
2.79851e-10
-1.37994e-08
-9.17828e-16
7.95568e-10
-1.18864e-08
-8.2994e-16
1.29076e-09
-9.98954e-09
-7.54491e-16
1.76179e-09
-8.12058e-09
-6.92363e-16
2.20338e-09
-6.29361e-09
-6.36203e-16
2.60832e-09
-4.52653e-09
-5.86552e-16
2.96776e-09
-2.84535e-09
-5.45411e-16
3.27169e-09
-1.27515e-09
-5.0664e-16
3.51031e-09
1.5362e-10
-4.7435e-16
3.67539e-09
1.41425e-09
-4.44525e-16
3.76175e-09
2.48496e-09
-4.25285e-16
3.76803e-09
3.35656e-09
-3.63629e-16
3.69717e-09
4.02713e-09
-3.09684e-16
3.55562e-09
4.51141e-09
-2.66002e-16
3.35262e-09
4.8305e-09
-3.21666e-16
3.09878e-09
5.01368e-09
-4.06233e-16
2.80478e-09
5.0933e-09
-3.77742e-16
2.48088e-09
5.09665e-09
-4.06304e-16
2.13601e-09
5.04951e-09
-2.37628e-16
1.77798e-09
4.9676e-09
-1.41027e-16
1.41408e-09
4.85137e-09
-6.76463e-17
1.05221e-09
4.68114e-09
-5.97094e-17
7.0311e-10
4.40581e-09
-8.60082e-17
3.8446e-10
3.92127e-09
-6.43779e-17
1.28855e-10
3.04431e-09
-7.33965e-17
1.4704e-09
-3.80012e-17
-5.55222e-09
-3.2594e-08
-3.26745e-15
-5.49178e-09
-3.27975e-08
-2.96369e-15
-5.35229e-09
-3.27142e-08
-2.7437e-15
-5.13894e-09
-3.23482e-08
-2.71286e-15
-4.85866e-09
-3.17195e-08
-2.45386e-15
-4.51964e-09
-3.0844e-08
-2.26119e-15
-4.13093e-09
-2.97474e-08
-2.0341e-15
-3.70202e-09
-2.84554e-08
-1.87651e-15
-3.24251e-09
-2.69932e-08
-1.71234e-15
-2.76143e-09
-2.53945e-08
-1.60249e-15
-2.26707e-09
-2.3682e-08
-1.61529e-15
-1.76658e-09
-2.18849e-08
-1.35366e-15
-1.2659e-09
-2.00269e-08
-1.28085e-15
-7.69747e-10
-1.81281e-08
-1.13413e-15
-2.81645e-10
-1.62066e-08
-1.01121e-15
1.9573e-10
-1.42767e-08
-9.16214e-16
6.6034e-10
-1.2351e-08
-8.28603e-16
1.11007e-09
-1.04393e-08
-7.54204e-16
1.54212e-09
-8.55263e-09
-6.92786e-16
1.95225e-09
-6.70374e-09
-6.37314e-16
2.33433e-09
-4.9086e-09
-5.88858e-16
2.68047e-09
-3.19151e-09
-5.49056e-16
2.98117e-09
-1.57584e-09
-5.11503e-16
3.22649e-09
-9.17155e-11
-4.80011e-16
3.40731e-09
1.23342e-09
-4.49142e-16
3.51676e-09
2.37552e-09
-4.25812e-16
3.55134e-09
3.32196e-09
-3.61742e-16
3.5115e-09
4.06697e-09
-3.09421e-16
3.40143e-09
4.62147e-09
-2.70452e-16
3.22843e-09
5.00349e-09
-3.27524e-16
3.00173e-09
5.2404e-09
-4.02855e-16
2.73121e-09
5.36381e-09
-3.95496e-16
2.42681e-09
5.40105e-09
-4.1372e-16
2.09762e-09
5.37871e-09
-2.46543e-16
1.75177e-09
5.31345e-09
-1.49253e-16
1.39703e-09
5.20611e-09
-7.73217e-17
1.04182e-09
5.03635e-09
-6.79017e-17
6.97329e-10
4.7503e-09
-9.10258e-17
3.81673e-10
4.23693e-09
-6.7543e-17
1.27898e-10
3.29809e-09
-7.47685e-17
1.5983e-09
-3.75794e-17
-4.7502e-09
-3.25563e-08
-3.15231e-15
-4.71829e-09
-3.28294e-08
-2.99575e-15
-4.61818e-09
-3.28143e-08
-2.72119e-15
-4.45352e-09
-3.25129e-08
-2.65036e-15
-4.22955e-09
-3.19434e-08
-2.43948e-15
-3.95275e-09
-3.11208e-08
-2.2619e-15
-3.63038e-09
-3.00697e-08
-2.04095e-15
-3.27021e-09
-2.88155e-08
-1.88514e-15
-2.88027e-09
-2.73832e-08
-1.71821e-15
-2.46831e-09
-2.58064e-08
-1.60364e-15
-2.04161e-09
-2.41087e-08
-1.60289e-15
-1.60654e-09
-2.232e-08
-1.34442e-15
-1.16847e-09
-2.0465e-08
-1.27291e-15
-7.31682e-10
-1.85649e-08
-1.12898e-15
-2.9942e-10
-1.66388e-08
-1.00834e-15
1.25932e-10
-1.47021e-08
-9.14383e-16
5.42651e-10
-1.27677e-08
-8.27152e-16
9.49091e-10
-1.08457e-08
-7.5367e-16
1.34313e-09
-8.94667e-09
-6.92851e-16
1.72145e-09
-7.08206e-09
-6.37922e-16
2.07896e-09
-5.2661e-09
-5.90374e-16
2.40877e-09
-3.52133e-09
-5.5161e-16
2.70211e-09
-1.86917e-09
-5.15161e-16
2.94929e-09
-3.38907e-10
-4.84484e-16