/*--------------------------------*- C++ -*----------------------------------*\
| =========                 |                                                 |
| \\      /  F ield         | OpenFOAM: The Open Source CFD Toolbox           |
|  \\    /   O peration     | Version:  v2012                                 |
|   \\  /    A nd           | Website:  www.openfoam.com                      |
|    \\/     M anipulation  |                                                 |
\*---------------------------------------------------------------------------*/
FoamFile
{
    version     2.0;
    format      ascii;
    class       volScalarField;
    location    "0.65";
    object      p;
}
// * * * * * * * * * * * * * * * * * * * * * * * * * * * * * * * * * * * * * //

dimensions      [1 -1 -2 0 0 0 0];


internalField   nonuniform List<scalar> 
3332
(
3.44777e+06
3.45598e+06
3.45006e+06
3.45494e+06
3.45459e+06
3.44734e+06
3.45536e+06
3.43968e+06
3.4586e+06
3.46239e+06
3.46087e+06
3.46174e+06
3.46262e+06
3.45206e+06
3.46105e+06
3.44067e+06
3.43261e+06
3.42512e+06
3.46469e+06
3.47418e+06
3.48304e+06
3.48378e+06
3.48611e+06
3.47786e+06
3.47455e+06
3.47891e+06
3.47404e+06
3.47572e+06
3.46305e+06
3.46987e+06
3.44817e+06
3.4421e+06
3.43223e+06
3.46819e+06
3.47836e+06
3.4862e+06
3.48727e+06
3.48889e+06
3.5043e+06
3.49317e+06
3.50385e+06
3.49317e+06
3.49563e+06
3.48244e+06
3.48513e+06
3.46665e+06
3.46086e+06
3.44768e+06
3.47556e+06
3.48562e+06
3.49105e+06
3.49196e+06
3.49243e+06
3.53607e+06
3.51884e+06
3.53455e+06
3.51948e+06
3.52283e+06
3.51105e+06
3.50929e+06
3.49883e+06
3.49152e+06
3.47147e+06
3.48751e+06
3.49604e+06
3.49771e+06
3.49788e+06
3.49673e+06
3.57015e+06
3.54908e+06
3.56752e+06
3.5509e+06
3.55507e+06
3.54679e+06
3.54192e+06
3.5414e+06
3.53171e+06
3.50262e+06
3.50338e+06
3.5091e+06
3.50592e+06
3.50485e+06
3.50172e+06
3.60268e+06
3.58172e+06
3.59977e+06
3.58445e+06
3.58828e+06
3.58515e+06
3.57779e+06
3.58808e+06
3.57327e+06
3.53733e+06
3.51915e+06
3.52338e+06
3.51487e+06
3.51248e+06
3.5072e+06
3.63067e+06
3.61304e+06
3.62806e+06
3.61605e+06
3.61804e+06
3.61926e+06
3.60818e+06
3.6298e+06
3.60442e+06
3.57042e+06
3.53152e+06
3.53743e+06
3.52378e+06
3.52038e+06
3.51298e+06
3.65316e+06
3.64264e+06
3.65143e+06
3.64373e+06
3.6425e+06
3.64413e+06
3.62949e+06
3.65552e+06
3.61715e+06
3.59608e+06
3.54374e+06
3.55084e+06
3.53315e+06
3.5285e+06
3.51908e+06
3.67249e+06
3.67388e+06
3.67207e+06
3.67029e+06
3.66546e+06
3.66501e+06
3.65227e+06
3.66837e+06
3.63098e+06
3.61923e+06
3.56411e+06
3.56468e+06
3.54452e+06
3.5369e+06
3.52566e+06
3.69053e+06
3.70515e+06
3.69208e+06
3.69757e+06
3.69111e+06
3.69152e+06
3.68753e+06
3.69125e+06
3.67929e+06
3.6632e+06
3.60184e+06
3.58141e+06
3.55963e+06
3.54577e+06
3.53284e+06
3.70631e+06
3.72844e+06
3.70955e+06
3.72035e+06
3.71506e+06
3.71932e+06
3.72536e+06
3.72797e+06
3.73989e+06
3.71938e+06
3.65085e+06
3.59759e+06
3.57656e+06
3.55429e+06
3.54014e+06
3.71713e+06
3.73797e+06
3.72049e+06
3.73236e+06
3.72938e+06
3.73581e+06
3.74736e+06
3.75037e+06
3.77291e+06
3.74644e+06
3.69516e+06
3.60641e+06
3.59077e+06
3.56086e+06
3.54643e+06
3.72223e+06
3.73727e+06
3.72475e+06
3.73407e+06
3.73262e+06
3.73848e+06
3.74917e+06
3.74935e+06
3.77036e+06
3.74646e+06
3.71704e+06
3.61697e+06
3.59913e+06
3.56618e+06
3.55106e+06
3.72075e+06
3.72949e+06
3.72267e+06
3.72898e+06
3.72837e+06
3.733e+06
3.74007e+06
3.73996e+06
3.7524e+06
3.73755e+06
3.72072e+06
3.63862e+06
3.60194e+06
3.57201e+06
3.55392e+06
3.714e+06
3.71863e+06
3.71583e+06
3.71955e+06
3.71931e+06
3.72271e+06
3.72688e+06
3.72685e+06
3.7333e+06
3.72457e+06
3.71443e+06
3.65561e+06
3.60188e+06
3.57629e+06
3.55509e+06
3.7034e+06
3.70617e+06
3.70526e+06
3.70741e+06
3.7072e+06
3.70976e+06
3.7118e+06
3.71214e+06
3.71471e+06
3.70989e+06
3.70285e+06
3.66073e+06
3.60227e+06
3.5773e+06
3.555e+06
3.69283e+06
3.69322e+06
3.69221e+06
3.69369e+06
3.69331e+06
3.69564e+06
3.69656e+06
3.69755e+06
3.69793e+06
3.69589e+06
3.68995e+06
3.65931e+06
3.60317e+06
3.57601e+06
3.55395e+06
3.67721e+06
3.67854e+06
3.67691e+06
3.67859e+06
3.67817e+06
3.68082e+06
3.6816e+06
3.68378e+06
3.68349e+06
3.68342e+06
3.67718e+06
3.65429e+06
3.60232e+06
3.57275e+06
3.55157e+06
3.65965e+06
3.6618e+06
3.65973e+06
3.66184e+06
3.66166e+06
3.66488e+06
3.66615e+06
3.6699e+06
3.66977e+06
3.67127e+06
3.66375e+06
3.64627e+06
3.59829e+06
3.56754e+06
3.54757e+06
3.64072e+06
3.64233e+06
3.64075e+06
3.64287e+06
3.64331e+06
3.64691e+06
3.64869e+06
3.65378e+06
3.65352e+06
3.65669e+06
3.6475e+06
3.63442e+06
3.59037e+06
3.55996e+06
3.54175e+06
3.6209e+06
3.62073e+06
3.62055e+06
3.62176e+06
3.62288e+06
3.62614e+06
3.62785e+06
3.6331e+06
3.63161e+06
3.63652e+06
3.62622e+06
3.61746e+06
3.57864e+06
3.54979e+06
3.53413e+06
3.6e+06
3.59701e+06
3.59921e+06
3.59911e+06
3.60083e+06
3.60284e+06
3.60378e+06
3.60746e+06
3.60414e+06
3.60966e+06
3.60003e+06
3.59511e+06
3.56397e+06
3.53749e+06
3.52507e+06
3.57885e+06
3.57361e+06
3.57791e+06
3.57634e+06
3.57834e+06
3.57858e+06
3.57835e+06
3.57935e+06
3.57478e+06
3.57906e+06
3.57186e+06
3.56965e+06
3.54732e+06
3.52436e+06
3.51522e+06
3.55824e+06
3.55225e+06
3.55754e+06
3.55495e+06
3.55675e+06
3.55544e+06
3.55407e+06
3.55252e+06
3.54773e+06
3.5498e+06
3.54577e+06
3.54519e+06
3.53024e+06
3.51202e+06
3.50539e+06
3.54022e+06
3.53407e+06
3.53892e+06
3.53604e+06
3.53723e+06
3.53497e+06
3.53282e+06
3.52967e+06
3.52546e+06
3.52567e+06
3.52425e+06
3.52448e+06
3.51467e+06
3.50132e+06
3.4964e+06
3.52302e+06
3.51889e+06
3.5225e+06
3.52001e+06
3.52047e+06
3.51787e+06
3.51541e+06
3.51168e+06
3.50842e+06
3.50763e+06
3.50784e+06
3.50809e+06
3.50179e+06
3.50839e+06
3.50648e+06
3.50853e+06
3.50676e+06
3.50656e+06
3.50408e+06
3.5017e+06
3.4981e+06
3.49584e+06
3.49466e+06
3.49571e+06
3.49563e+06
3.4917e+06
3.4963e+06
3.49624e+06
3.49693e+06
3.4959e+06
3.49526e+06
3.49312e+06
3.49106e+06
3.48793e+06
3.48652e+06
3.48527e+06
3.48662e+06
3.48618e+06
3.48379e+06
3.48693e+06
3.48774e+06
3.48743e+06
3.48697e+06
3.48613e+06
3.48437e+06
3.48272e+06
3.48011e+06
3.47937e+06
3.47817e+06
3.47957e+06
3.4789e+06
3.47752e+06
3.47926e+06
3.48048e+06
3.47977e+06
3.47958e+06
3.47872e+06
3.47727e+06
3.47601e+06
3.47384e+06
3.47353e+06
3.47233e+06
3.47368e+06
3.47295e+06
3.47224e+06
3.47325e+06
3.47429e+06
3.47357e+06
3.4734e+06
3.47263e+06
3.47142e+06
3.47046e+06
3.46863e+06
3.46861e+06
3.46742e+06
3.4688e+06
3.46807e+06
3.46795e+06
3.4684e+06
3.46896e+06
3.46852e+06
3.46822e+06
3.46759e+06
3.46653e+06
3.46573e+06
3.46416e+06
3.46423e+06
3.46297e+06
3.46426e+06
3.46371e+06
3.46401e+06
3.46465e+06
3.46453e+06
3.46442e+06
3.46393e+06
3.46343e+06
3.46247e+06
3.46173e+06
3.46041e+06
3.46049e+06
3.45938e+06
3.46074e+06
3.46031e+06
3.46113e+06
3.46149e+06
3.46087e+06
3.46109e+06
3.46042e+06
3.46005e+06
3.45914e+06
3.45837e+06
3.45726e+06
3.45708e+06
3.45601e+06
3.45688e+06
3.45708e+06
3.45785e+06
3.45903e+06
3.45805e+06
3.45851e+06
3.45765e+06
3.45732e+06
3.45635e+06
3.45544e+06
3.45451e+06
3.45409e+06
3.45357e+06
3.45465e+06
3.45519e+06
3.45638e+06
3.45725e+06
3.45604e+06
3.45667e+06
3.45567e+06
3.45533e+06
3.45419e+06
3.45297e+06
3.45157e+06
3.44987e+06
3.44927e+06
3.44939e+06
3.45134e+06
3.45293e+06
3.45647e+06
3.45516e+06
3.45591e+06
3.45491e+06
3.45471e+06
3.45367e+06
3.45265e+06
3.45137e+06
3.44991e+06
3.44973e+06
3.45636e+06
3.45513e+06
3.45595e+06
3.45507e+06
3.45504e+06
3.45426e+06
3.45364e+06
3.45287e+06
3.45233e+06
3.45234e+06
3.4569e+06
3.45583e+06
3.4566e+06
3.45589e+06
3.45597e+06
3.45543e+06
3.45507e+06
3.45462e+06
3.45435e+06
3.45436e+06
3.45775e+06
3.45696e+06
3.45766e+06
3.45713e+06
3.4573e+06
3.45695e+06
3.45677e+06
3.45655e+06
3.45643e+06
3.45648e+06
3.45889e+06
3.4584e+06
3.45898e+06
3.45863e+06
3.45883e+06
3.45862e+06
3.45853e+06
3.45844e+06
3.45839e+06
3.45844e+06
3.46019e+06
3.46e+06
3.46044e+06
3.46026e+06
3.46045e+06
3.46033e+06
3.46031e+06
3.46032e+06
3.4603e+06
3.46036e+06
3.46177e+06
3.46174e+06
3.46203e+06
3.46195e+06
3.46207e+06
3.46202e+06
3.46205e+06
3.46212e+06
3.46212e+06
3.46219e+06
3.46327e+06
3.46341e+06
3.46361e+06
3.46359e+06
3.4637e+06
3.46367e+06
3.46372e+06
3.46382e+06
3.46383e+06
3.46391e+06
3.46488e+06
3.46506e+06
3.46515e+06
3.46513e+06
3.46526e+06
3.46524e+06
3.46529e+06
3.46542e+06
3.46544e+06
3.46552e+06
3.46642e+06
3.46651e+06
3.46664e+06
3.46657e+06
3.4667e+06
3.46667e+06
3.46674e+06
3.46689e+06
3.46691e+06
3.46699e+06
3.46793e+06
3.46782e+06
3.46802e+06
3.46785e+06
3.468e+06
3.46795e+06
3.46803e+06
3.4682e+06
3.46823e+06
3.46831e+06
3.46922e+06
3.46887e+06
3.46919e+06
3.46894e+06
3.4691e+06
3.46905e+06
3.46913e+06
3.46933e+06
3.46936e+06
3.46945e+06
3.47024e+06
3.46969e+06
3.47012e+06
3.46979e+06
3.46996e+06
3.46992e+06
3.47001e+06
3.47026e+06
3.4703e+06
3.47039e+06
3.47089e+06
3.47023e+06
3.47072e+06
3.47038e+06
3.47055e+06
3.47056e+06
3.47066e+06
3.47097e+06
3.47102e+06
3.47111e+06
3.47114e+06
3.47051e+06
3.47094e+06
3.47067e+06
3.47081e+06
3.47091e+06
3.47103e+06
3.47143e+06
3.47148e+06
3.47158e+06
3.47085e+06
3.47046e+06
3.47076e+06
3.47065e+06
3.47073e+06
3.47096e+06
3.47108e+06
3.47157e+06
3.47164e+06
3.47175e+06
3.47005e+06
3.47008e+06
3.47014e+06
3.47028e+06
3.47027e+06
3.47066e+06
3.47079e+06
3.47139e+06
3.47148e+06
3.47159e+06
3.46872e+06
3.46934e+06
3.46907e+06
3.46953e+06
3.46943e+06
3.47e+06
3.47013e+06
3.47085e+06
3.47097e+06
3.47108e+06
3.46693e+06
3.46823e+06
3.46753e+06
3.46836e+06
3.46818e+06
3.46893e+06
3.46908e+06
3.4699e+06
3.47006e+06
3.47018e+06
3.46466e+06
3.46667e+06
3.46554e+06
3.46676e+06
3.46646e+06
3.46738e+06
3.46758e+06
3.4685e+06
3.46872e+06
3.46884e+06
3.46201e+06
3.46463e+06
3.46312e+06
3.46465e+06
3.46427e+06
3.46532e+06
3.46559e+06
3.46661e+06
3.46688e+06
3.467e+06
3.459e+06
3.46205e+06
3.46025e+06
3.46198e+06
3.46157e+06
3.4627e+06
3.46307e+06
3.46416e+06
3.4645e+06
3.46462e+06
3.45577e+06
3.45889e+06
3.45693e+06
3.45869e+06
3.45832e+06
3.45945e+06
3.45994e+06
3.46108e+06
3.46149e+06
3.46162e+06
3.45208e+06
3.45495e+06
3.45311e+06
3.45472e+06
3.45445e+06
3.4555e+06
3.45613e+06
3.4573e+06
3.45779e+06
3.45792e+06
3.448e+06
3.45023e+06
3.44873e+06
3.45e+06
3.44989e+06
3.45078e+06
3.45155e+06
3.45272e+06
3.45327e+06
3.45342e+06
3.44335e+06
3.44464e+06
3.44367e+06
3.44446e+06
3.44458e+06
3.44522e+06
3.44612e+06
3.44723e+06
3.44784e+06
3.448e+06
3.43811e+06
3.43826e+06
3.43793e+06
3.43811e+06
3.43847e+06
3.43877e+06
3.43975e+06
3.44072e+06
3.44135e+06
3.44154e+06
3.43222e+06
3.43119e+06
3.43152e+06
3.43104e+06
3.43157e+06
3.43142e+06
3.43238e+06
3.43305e+06
3.43367e+06
3.43389e+06
3.42587e+06
3.42378e+06
3.42464e+06
3.42345e+06
3.42401e+06
3.42323e+06
3.42398e+06
3.42409e+06
3.42461e+06
3.42488e+06
3.41945e+06
3.41655e+06
3.41771e+06
3.41578e+06
3.41608e+06
3.4144e+06
3.41461e+06
3.41371e+06
3.41403e+06
3.41435e+06
3.41376e+06
3.41039e+06
3.41152e+06
3.40875e+06
3.40837e+06
3.40534e+06
3.40447e+06
3.40181e+06
3.40168e+06
3.40201e+06
3.41034e+06
3.40686e+06
3.4074e+06
3.40361e+06
3.40193e+06
3.39688e+06
3.39401e+06
3.38839e+06
3.3875e+06
3.38781e+06
3.41152e+06
3.40822e+06
3.40754e+06
3.4025e+06
3.39851e+06
3.39062e+06
3.38428e+06
3.37357e+06
3.37113e+06
3.37115e+06
3.42077e+06
3.41783e+06
3.41527e+06
3.40846e+06
3.40098e+06
3.38919e+06
3.37704e+06
3.35828e+06
3.353e+06
3.35246e+06
3.44273e+06
3.44016e+06
3.43511e+06
3.42577e+06
3.41343e+06
3.39605e+06
3.37469e+06
3.34467e+06
3.33307e+06
3.33126e+06
3.4835e+06
3.48115e+06
3.47322e+06
3.46058e+06
3.44238e+06
3.41758e+06
3.38415e+06
3.33986e+06
3.31448e+06
3.31092e+06
3.55005e+06
3.54778e+06
3.53712e+06
3.52125e+06
3.49739e+06
3.46478e+06
3.41896e+06
3.35545e+06
3.30054e+06
3.29428e+06
3.6469e+06
3.64465e+06
3.63219e+06
3.61367e+06
3.58471e+06
3.5448e+06
3.48611e+06
3.39722e+06
3.29693e+06
3.28726e+06
3.77423e+06
3.77167e+06
3.75796e+06
3.73682e+06
3.7037e+06
3.65544e+06
3.57981e+06
3.47031e+06
3.33919e+06
3.29828e+06
3.92337e+06
3.92199e+06
3.91274e+06
3.89799e+06
3.87424e+06
3.83369e+06
3.76781e+06
3.66151e+06
3.41813e+06
3.07255e+06
4.09348e+06
4.09404e+06
4.09219e+06
4.09084e+06
4.08942e+06
4.08642e+06
4.08877e+06
4.08603e+06
4.00846e+06
3.95902e+06
4.24537e+06
4.3706e+06
4.43138e+06
4.46005e+06
4.47603e+06
4.48508e+06
4.49061e+06
4.20216e+06
4.20316e+06
4.20326e+06
4.20474e+06
4.20677e+06
4.20988e+06
4.21742e+06
4.22815e+06
4.24039e+06
4.29473e+06
4.3809e+06
4.41883e+06
4.44943e+06
4.46724e+06
4.47907e+06
4.48647e+06
4.49129e+06
4.30339e+06
4.30453e+06
4.30574e+06
4.30882e+06
4.31305e+06
4.31892e+06
4.32791e+06
4.338e+06
4.34798e+06
4.37364e+06
4.41204e+06
4.43907e+06
4.45928e+06
4.47264e+06
4.48179e+06
4.48787e+06
4.49198e+06
4.36106e+06
4.36213e+06
4.36364e+06
4.36692e+06
4.37139e+06
4.37761e+06
4.38588e+06
4.39633e+06
4.40939e+06
4.42635e+06
4.44381e+06
4.45796e+06
4.46967e+06
4.47839e+06
4.48489e+06
4.48955e+06
4.49287e+06
4.40706e+06
4.40791e+06
4.40898e+06
4.41136e+06
4.41454e+06
4.41891e+06
4.42447e+06
4.43112e+06
4.43899e+06
4.44878e+06
4.45923e+06
4.46851e+06
4.47638e+06
4.4826e+06
4.48741e+06
4.49103e+06
4.49371e+06
4.43398e+06
4.43464e+06
4.43556e+06
4.43752e+06
4.44008e+06
4.44354e+06
4.44777e+06
4.45281e+06
4.45852e+06
4.46476e+06
4.471e+06
4.47677e+06
4.48187e+06
4.48615e+06
4.48963e+06
4.49238e+06
4.49451e+06
4.45392e+06
4.45436e+06
4.45497e+06
4.45629e+06
4.45799e+06
4.46029e+06
4.46307e+06
4.46634e+06
4.47004e+06
4.47409e+06
4.47822e+06
4.48215e+06
4.48572e+06
4.48881e+06
4.49141e+06
4.49352e+06
4.49521e+06
4.46634e+06
4.46664e+06
4.46711e+06
4.46811e+06
4.46938e+06
4.47108e+06
4.47309e+06
4.47543e+06
4.47801e+06
4.48075e+06
4.48353e+06
4.48621e+06
4.4887e+06
4.49093e+06
4.49287e+06
4.4945e+06
4.49584e+06
4.4753e+06
4.47557e+06
4.47588e+06
4.47657e+06
4.47743e+06
4.47859e+06
4.47996e+06
4.48156e+06
4.48334e+06
4.48524e+06
4.48718e+06
4.4891e+06
4.49091e+06
4.49257e+06
4.49404e+06
4.4953e+06
4.49637e+06
4.48131e+06
4.48151e+06
4.48175e+06
4.48226e+06
4.48289e+06
4.48374e+06
4.48474e+06
4.48589e+06
4.48716e+06
4.48852e+06
4.48991e+06
4.49129e+06
4.49262e+06
4.49386e+06
4.49499e+06
4.49598e+06
4.49683e+06
4.48573e+06
4.48589e+06
4.48605e+06
4.48641e+06
4.48686e+06
4.48746e+06
4.48817e+06
4.489e+06
4.48991e+06
4.49089e+06
4.49191e+06
4.49294e+06
4.49394e+06
4.49489e+06
4.49576e+06
4.49654e+06
4.49723e+06
4.49781e+06
4.4983e+06
4.48885e+06
4.48897e+06
4.48909e+06
4.48936e+06
4.4897e+06
4.49014e+06
4.49067e+06
4.49128e+06
4.49196e+06
4.49269e+06
4.49345e+06
4.49422e+06
4.49498e+06
4.49571e+06
4.49639e+06
4.49701e+06
4.49756e+06
4.49804e+06
4.49845e+06
4.49119e+06
4.49129e+06
4.49138e+06
4.49158e+06
4.49182e+06
4.49215e+06
4.49254e+06
4.49299e+06
4.4935e+06
4.49405e+06
4.49462e+06
4.49521e+06
4.49579e+06
4.49636e+06
4.4969e+06
4.4974e+06
4.49785e+06
4.49824e+06
4.49858e+06
4.49294e+06
4.493e+06
4.49307e+06
4.49322e+06
4.49341e+06
4.49366e+06
4.49395e+06
4.4943e+06
4.49468e+06
4.4951e+06
4.49554e+06
4.49599e+06
4.49645e+06
4.4969e+06
4.49733e+06
4.49773e+06
4.49809e+06
4.49842e+06
4.4987e+06
4.49427e+06
4.49433e+06
4.49437e+06
4.49449e+06
4.49463e+06
4.49482e+06
4.49504e+06
4.4953e+06
4.4956e+06
4.49592e+06
4.49626e+06
4.49662e+06
4.49698e+06
4.49733e+06
4.49768e+06
4.498e+06
4.4983e+06
4.49857e+06
4.49881e+06
4.49529e+06
4.49533e+06
4.49537e+06
4.49546e+06
4.49557e+06
4.49572e+06
4.49589e+06
4.49609e+06
4.49632e+06
4.49657e+06
4.49684e+06
4.49712e+06
4.49741e+06
4.49769e+06
4.49797e+06
4.49823e+06
4.49848e+06
4.4987e+06
4.4989e+06
4.49609e+06
4.49613e+06
4.49615e+06
4.49623e+06
4.49631e+06
4.49642e+06
4.49656e+06
4.49672e+06
4.4969e+06
4.4971e+06
4.49731e+06
4.49753e+06
4.49776e+06
4.49799e+06
4.49821e+06
4.49843e+06
4.49863e+06
4.49882e+06
4.49898e+06
4.49672e+06
4.49675e+06
4.49677e+06
4.49683e+06
4.49689e+06
4.49699e+06
4.49709e+06
4.49722e+06
4.49736e+06
4.49752e+06
4.49769e+06
4.49787e+06
4.49805e+06
4.49823e+06
4.49842e+06
4.49859e+06
4.49876e+06
4.49892e+06
4.49906e+06
4.49723e+06
4.49725e+06
4.49727e+06
4.49731e+06
4.49736e+06
4.49744e+06
4.49752e+06
4.49762e+06
4.49773e+06
4.49786e+06
4.498e+06
4.49814e+06
4.49829e+06
4.49844e+06
4.49859e+06
4.49874e+06
4.49887e+06
4.499e+06
4.49912e+06
4.49763e+06
4.49765e+06
4.49766e+06
4.4977e+06
4.49774e+06
4.4978e+06
4.49787e+06
4.49795e+06
4.49804e+06
4.49814e+06
4.49825e+06
4.49837e+06
4.49849e+06
4.49861e+06
4.49873e+06
4.49885e+06
4.49897e+06
4.49908e+06
4.49918e+06
4.49796e+06
4.49797e+06
4.49799e+06
4.49802e+06
4.49805e+06
4.4981e+06
4.49815e+06
4.49822e+06
4.49829e+06
4.49837e+06
4.49846e+06
4.49856e+06
4.49866e+06
4.49876e+06
4.49886e+06
4.49896e+06
4.49905e+06
4.49914e+06
4.49923e+06
4.49823e+06
4.49824e+06
4.49825e+06
4.49828e+06
4.4983e+06
4.49834e+06
4.49839e+06
4.49844e+06
4.4985e+06
4.49856e+06
4.49864e+06
4.49871e+06
4.4988e+06
4.49888e+06
4.49896e+06
4.49904e+06
4.49912e+06
4.4992e+06
4.49927e+06
4.49845e+06
4.49846e+06
4.49847e+06
4.49849e+06
4.49851e+06
4.49854e+06
4.49858e+06
4.49862e+06
4.49867e+06
4.49872e+06
4.49878e+06
4.49885e+06
4.49891e+06
4.49898e+06
4.49905e+06
4.49912e+06
4.49919e+06
4.49925e+06
4.49931e+06
4.49863e+06
4.49864e+06
4.49865e+06
4.49866e+06
4.49868e+06
4.49871e+06
4.49874e+06
4.49877e+06
4.49881e+06
4.49886e+06
4.4989e+06
4.49896e+06
4.49901e+06
4.49907e+06
4.49913e+06
4.49918e+06
4.49924e+06
4.49929e+06
4.49934e+06
4.49878e+06
4.49879e+06
4.4988e+06
4.49881e+06
4.49882e+06
4.49885e+06
4.49887e+06
4.4989e+06
4.49893e+06
4.49897e+06
4.49901e+06
4.49905e+06
4.4991e+06
4.49914e+06
4.49919e+06
4.49924e+06
4.49929e+06
4.49933e+06
4.49937e+06
4.49891e+06
4.49891e+06
4.49892e+06
4.49893e+06
4.49894e+06
4.49896e+06
4.49898e+06
4.499e+06
4.49903e+06
4.49906e+06
4.49909e+06
4.49913e+06
4.49917e+06
4.49921e+06
4.49925e+06
4.49929e+06
4.49933e+06
4.49936e+06
4.4994e+06
4.49902e+06
4.49902e+06
4.49902e+06
4.49903e+06
4.49904e+06
4.49905e+06
4.49907e+06
4.49909e+06
4.49911e+06
4.49914e+06
4.49917e+06
4.4992e+06
4.49923e+06
4.49926e+06
4.49929e+06
4.49933e+06
4.49936e+06
4.49939e+06
4.49942e+06
4.49911e+06
4.49911e+06
4.49911e+06
4.49912e+06
4.49912e+06
4.49914e+06
4.49915e+06
4.49917e+06
4.49918e+06
4.49921e+06
4.49923e+06
4.49925e+06
4.49928e+06
4.49931e+06
4.49933e+06
4.49936e+06
4.49939e+06
4.49942e+06
4.49944e+06
4.49918e+06
4.49918e+06
4.49918e+06
4.49919e+06
4.4992e+06
4.4992e+06
4.49922e+06
4.49923e+06
4.49925e+06
4.49926e+06
4.49928e+06
4.4993e+06
4.49932e+06
4.49935e+06
4.49937e+06
4.49939e+06
4.49942e+06
4.49944e+06
4.49946e+06
4.49925e+06
4.49925e+06
4.49925e+06
4.49925e+06
4.49926e+06
4.49926e+06
4.49927e+06
4.49928e+06
4.4993e+06
4.49931e+06
4.49933e+06
4.49934e+06
4.49936e+06
4.49938e+06
4.4994e+06
4.49942e+06
4.49944e+06
4.49946e+06
4.49948e+06
4.4993e+06
4.4993e+06
4.4993e+06
4.4993e+06
4.49931e+06
4.49931e+06
4.49932e+06
4.49933e+06
4.49934e+06
4.49935e+06
4.49937e+06
4.49938e+06
4.4994e+06
4.49941e+06
4.49943e+06
4.49944e+06
4.49946e+06
4.49948e+06
4.49949e+06
4.49935e+06
4.49935e+06
4.49935e+06
4.49935e+06
4.49935e+06
4.49936e+06
4.49936e+06
4.49937e+06
4.49938e+06
4.49939e+06
4.4994e+06
4.49941e+06
4.49943e+06
4.49944e+06
4.49945e+06
4.49947e+06
4.49948e+06
4.49949e+06
4.4995e+06
4.49938e+06
4.49939e+06
4.49939e+06
4.49939e+06
4.49939e+06
4.4994e+06
4.4994e+06
4.49941e+06
4.49941e+06
4.49942e+06
4.49943e+06
4.49944e+06
4.49945e+06
4.49946e+06
4.49947e+06
4.49948e+06
4.49949e+06
4.49951e+06
4.49952e+06
4.49942e+06
4.49942e+06
4.49942e+06
4.49942e+06
4.49943e+06
4.49943e+06
4.49943e+06
4.49944e+06
4.49944e+06
4.49945e+06
4.49946e+06
4.49947e+06
4.49947e+06
4.49948e+06
4.49949e+06
4.4995e+06
4.49951e+06
4.49952e+06
4.49953e+06
4.49945e+06
4.49945e+06
4.49945e+06
4.49945e+06
4.49946e+06
4.49946e+06
4.49946e+06
4.49947e+06
4.49947e+06
4.49948e+06
4.49948e+06
4.49949e+06
4.49949e+06
4.4995e+06
4.49951e+06
4.49952e+06
4.49952e+06
4.49953e+06
4.49954e+06
4.49948e+06
4.49948e+06
4.49948e+06
4.49948e+06
4.49948e+06
4.49949e+06
4.49949e+06
4.49949e+06
4.49949e+06
4.4995e+06
4.4995e+06
4.49951e+06
4.49951e+06
4.49952e+06
4.49952e+06
4.49953e+06
4.49953e+06
4.49954e+06
4.49955e+06
4.4995e+06
4.4995e+06
4.4995e+06
4.49951e+06
4.49951e+06
4.49951e+06
4.49951e+06
4.49951e+06
4.49952e+06
4.49952e+06
4.49952e+06
4.49953e+06
4.49953e+06
4.49953e+06
4.49954e+06
4.49954e+06
4.49955e+06
4.49955e+06
4.49955e+06
4.49953e+06
4.49953e+06
4.49953e+06
4.49953e+06
4.49953e+06
4.49953e+06
4.49953e+06
4.49953e+06
4.49954e+06
4.49954e+06
4.49954e+06
4.49954e+06
4.49954e+06
4.49955e+06
4.49955e+06
4.49955e+06
4.49956e+06
4.49956e+06
4.49956e+06
4.49955e+06
4.49955e+06
4.49955e+06
4.49955e+06
4.49955e+06
4.49955e+06
4.49955e+06
4.49955e+06
4.49955e+06
4.49955e+06
4.49956e+06
4.49956e+06
4.49956e+06
4.49956e+06
4.49956e+06
4.49956e+06
4.49957e+06
4.49957e+06
4.49957e+06
4.49957e+06
4.49957e+06
4.49958e+06
4.49958e+06
4.49957e+06
4.49957e+06
4.49957e+06
4.49957e+06
4.49957e+06
4.49957e+06
4.49957e+06
4.49958e+06
4.49958e+06
4.49958e+06
4.49958e+06
4.49958e+06
4.49958e+06
4.49958e+06
4.49958e+06
3.44777e+06
3.45598e+06
3.45006e+06
3.45494e+06
3.45459e+06
3.44734e+06
3.45536e+06
3.43968e+06
3.4586e+06
3.46239e+06
3.46087e+06
3.46174e+06
3.46262e+06
3.45206e+06
3.46105e+06
3.44067e+06
3.43261e+06
3.42512e+06
3.46469e+06
3.47418e+06
3.48304e+06
3.48378e+06
3.48611e+06
3.47786e+06
3.47455e+06
3.47891e+06
3.47404e+06
3.47572e+06
3.46305e+06
3.46987e+06
3.44817e+06
3.4421e+06
3.43223e+06
3.46819e+06
3.47836e+06
3.4862e+06
3.48727e+06
3.48889e+06
3.5043e+06
3.49317e+06
3.50385e+06
3.49317e+06
3.49563e+06
3.48244e+06
3.48513e+06
3.46665e+06
3.46086e+06
3.44768e+06
3.47556e+06
3.48562e+06
3.49105e+06
3.49196e+06
3.49243e+06
3.53607e+06
3.51884e+06
3.53455e+06
3.51948e+06
3.52283e+06
3.51105e+06
3.50929e+06
3.49883e+06
3.49152e+06
3.47147e+06
3.48751e+06
3.49604e+06
3.49771e+06
3.49788e+06
3.49673e+06
3.57015e+06
3.54908e+06
3.56752e+06
3.5509e+06
3.55507e+06
3.54679e+06
3.54192e+06
3.5414e+06
3.53171e+06
3.50262e+06
3.50338e+06
3.5091e+06
3.50592e+06
3.50485e+06
3.50172e+06
3.60268e+06
3.58172e+06
3.59977e+06
3.58445e+06
3.58828e+06
3.58515e+06
3.57779e+06
3.58808e+06
3.57327e+06
3.53733e+06
3.51915e+06
3.52338e+06
3.51487e+06
3.51248e+06
3.5072e+06
3.63067e+06
3.61304e+06
3.62806e+06
3.61605e+06
3.61804e+06
3.61926e+06
3.60818e+06
3.6298e+06
3.60442e+06
3.57042e+06
3.53152e+06
3.53743e+06
3.52378e+06
3.52038e+06
3.51298e+06
3.65316e+06
3.64264e+06
3.65143e+06
3.64373e+06
3.6425e+06
3.64413e+06
3.62949e+06
3.65552e+06
3.61715e+06
3.59608e+06
3.54374e+06
3.55084e+06
3.53315e+06
3.5285e+06
3.51907e+06
3.67249e+06
3.67388e+06
3.67207e+06
3.67029e+06
3.66546e+06
3.66501e+06
3.65227e+06
3.66837e+06
3.63098e+06
3.61923e+06
3.56411e+06
3.56468e+06
3.54452e+06
3.5369e+06
3.52566e+06
3.69053e+06
3.70515e+06
3.69208e+06
3.69757e+06
3.69111e+06
3.69152e+06
3.68753e+06
3.69125e+06
3.67929e+06
3.6632e+06
3.60184e+06
3.58141e+06
3.55963e+06
3.54577e+06
3.53284e+06
3.70631e+06
3.72844e+06
3.70955e+06
3.72035e+06
3.71506e+06
3.71932e+06
3.72536e+06
3.72797e+06
3.73989e+06
3.71938e+06
3.65085e+06
3.59759e+06
3.57656e+06
3.55429e+06
3.54014e+06
3.71713e+06
3.73797e+06
3.72049e+06
3.73236e+06
3.72938e+06
3.73581e+06
3.74736e+06
3.75037e+06
3.77291e+06
3.74644e+06
3.69516e+06
3.60641e+06
3.59077e+06
3.56086e+06
3.54643e+06
3.72223e+06
3.73727e+06
3.72475e+06
3.73407e+06
3.73262e+06
3.73848e+06
3.74917e+06
3.74935e+06
3.77036e+06
3.74646e+06
3.71704e+06
3.61697e+06
3.59913e+06
3.56618e+06
3.55106e+06
3.72075e+06
3.72949e+06
3.72267e+06
3.72898e+06
3.72837e+06
3.733e+06
3.74007e+06
3.73996e+06
3.7524e+06
3.73755e+06
3.72072e+06
3.63862e+06
3.60194e+06
3.57201e+06
3.55392e+06
3.714e+06
3.71863e+06
3.71583e+06
3.71955e+06
3.71931e+06
3.72271e+06
3.72688e+06
3.72685e+06
3.7333e+06
3.72457e+06
3.71443e+06
3.65561e+06
3.60188e+06
3.57629e+06
3.55509e+06
3.7034e+06
3.70617e+06
3.70526e+06
3.70741e+06
3.7072e+06
3.70976e+06
3.7118e+06
3.71214e+06
3.71471e+06
3.70989e+06
3.70285e+06
3.66073e+06
3.60227e+06
3.5773e+06
3.555e+06
3.69283e+06
3.69322e+06
3.69221e+06
3.69369e+06
3.69331e+06
3.69564e+06
3.69656e+06
3.69755e+06
3.69793e+06
3.69589e+06
3.68995e+06
3.65931e+06
3.60317e+06
3.57601e+06
3.55395e+06
3.67721e+06
3.67854e+06
3.67691e+06
3.67859e+06
3.67817e+06
3.68082e+06
3.6816e+06
3.68378e+06
3.68349e+06
3.68342e+06
3.67718e+06
3.65429e+06
3.60232e+06
3.57275e+06
3.55157e+06
3.65965e+06
3.6618e+06
3.65973e+06
3.66184e+06
3.66166e+06
3.66488e+06
3.66615e+06
3.6699e+06
3.66977e+06
3.67127e+06
3.66375e+06
3.64627e+06
3.59829e+06
3.56754e+06
3.54757e+06
3.64072e+06
3.64233e+06
3.64075e+06
3.64287e+06
3.64331e+06
3.64691e+06
3.64869e+06
3.65378e+06
3.65352e+06
3.65669e+06
3.6475e+06
3.63442e+06
3.59037e+06
3.55996e+06
3.54175e+06
3.6209e+06
3.62073e+06
3.62055e+06
3.62176e+06
3.62288e+06
3.62614e+06
3.62785e+06
3.6331e+06
3.63161e+06
3.63652e+06
3.62622e+06
3.61746e+06
3.57864e+06
3.54979e+06
3.53413e+06
3.6e+06
3.59701e+06
3.59921e+06
3.59911e+06
3.60083e+06
3.60284e+06
3.60378e+06
3.60746e+06
3.60414e+06
3.60966e+06
3.60003e+06
3.59511e+06
3.56397e+06
3.53749e+06
3.52507e+06
3.57885e+06
3.57361e+06
3.57791e+06
3.57634e+06
3.57834e+06
3.57858e+06
3.57835e+06
3.57935e+06
3.57478e+06
3.57906e+06
3.57186e+06
3.56965e+06
3.54732e+06
3.52436e+06
3.51522e+06
3.55824e+06
3.55225e+06
3.55754e+06
3.55495e+06
3.55675e+06
3.55544e+06
3.55407e+06
3.55252e+06
3.54773e+06
3.5498e+06
3.54577e+06
3.54519e+06
3.53024e+06
3.51202e+06
3.50539e+06
3.54022e+06
3.53407e+06
3.53892e+06
3.53604e+06
3.53723e+06
3.53497e+06
3.53282e+06
3.52967e+06
3.52546e+06
3.52567e+06
3.52425e+06
3.52448e+06
3.51467e+06
3.50132e+06
3.4964e+06
3.52302e+06
3.51889e+06
3.5225e+06
3.52001e+06
3.52047e+06
3.51787e+06
3.51541e+06
3.51168e+06
3.50842e+06
3.50763e+06
3.50784e+06
3.50809e+06
3.50179e+06
3.50839e+06
3.50648e+06
3.50853e+06
3.50676e+06
3.50656e+06
3.50408e+06
3.5017e+06
3.4981e+06
3.49584e+06
3.49466e+06
3.49571e+06
3.49563e+06
3.4917e+06
3.4963e+06
3.49624e+06
3.49693e+06
3.4959e+06
3.49526e+06
3.49312e+06
3.49106e+06
3.48793e+06
3.48652e+06
3.48527e+06
3.48662e+06
3.48618e+06
3.48379e+06
3.48693e+06
3.48774e+06
3.48743e+06
3.48697e+06
3.48613e+06
3.48437e+06
3.48272e+06
3.48011e+06
3.47937e+06
3.47817e+06
3.47957e+06
3.4789e+06
3.47752e+06
3.47926e+06
3.48048e+06
3.47977e+06
3.47958e+06
3.47872e+06
3.47727e+06
3.47601e+06
3.47384e+06
3.47353e+06
3.47233e+06
3.47368e+06
3.47295e+06
3.47224e+06
3.47325e+06
3.47429e+06
3.47357e+06
3.4734e+06
3.47263e+06
3.47142e+06
3.47046e+06
3.46863e+06
3.46861e+06
3.46742e+06
3.4688e+06
3.46807e+06
3.46795e+06
3.4684e+06
3.46896e+06
3.46852e+06
3.46822e+06
3.46759e+06
3.46653e+06
3.46573e+06
3.46416e+06
3.46423e+06
3.46297e+06
3.46426e+06
3.46371e+06
3.46401e+06
3.46465e+06
3.46453e+06
3.46442e+06
3.46393e+06
3.46343e+06
3.46247e+06
3.46173e+06
3.46041e+06
3.46049e+06
3.45938e+06
3.46074e+06
3.46031e+06
3.46113e+06
3.46149e+06
3.46087e+06
3.46109e+06
3.46042e+06
3.46005e+06
3.45914e+06
3.45837e+06
3.45726e+06
3.45708e+06
3.45601e+06
3.45688e+06
3.45708e+06
3.45785e+06
3.45903e+06
3.45805e+06
3.45851e+06
3.45765e+06
3.45732e+06
3.45635e+06
3.45544e+06
3.45451e+06
3.45409e+06
3.45357e+06
3.45465e+06
3.45519e+06
3.45638e+06
3.45725e+06
3.45604e+06
3.45667e+06
3.45567e+06
3.45533e+06
3.45419e+06
3.45297e+06
3.45157e+06
3.44987e+06
3.44927e+06
3.44939e+06
3.45134e+06
3.45293e+06
3.45647e+06
3.45516e+06
3.45591e+06
3.45491e+06
3.45471e+06
3.45367e+06
3.45265e+06
3.45137e+06
3.44991e+06
3.44973e+06
3.45636e+06
3.45513e+06
3.45595e+06
3.45507e+06
3.45504e+06
3.45426e+06
3.45364e+06
3.45287e+06
3.45233e+06
3.45234e+06
3.4569e+06
3.45583e+06
3.4566e+06
3.45589e+06
3.45597e+06
3.45543e+06
3.45507e+06
3.45462e+06
3.45435e+06
3.45436e+06
3.45775e+06
3.45696e+06
3.45766e+06
3.45713e+06
3.4573e+06
3.45695e+06
3.45677e+06
3.45655e+06
3.45643e+06
3.45648e+06
3.45889e+06
3.4584e+06
3.45898e+06
3.45863e+06
3.45883e+06
3.45862e+06
3.45853e+06
3.45844e+06
3.45839e+06
3.45844e+06
3.46019e+06
3.46e+06
3.46044e+06
3.46026e+06
3.46045e+06
3.46033e+06
3.46031e+06
3.46032e+06
3.4603e+06
3.46036e+06
3.46177e+06
3.46174e+06
3.46203e+06
3.46195e+06
3.46207e+06
3.46202e+06
3.46205e+06
3.46212e+06
3.46212e+06
3.46219e+06
3.46327e+06
3.46341e+06
3.46361e+06
3.46359e+06
3.4637e+06
3.46367e+06
3.46372e+06
3.46382e+06
3.46383e+06
3.46391e+06
3.46488e+06
3.46506e+06
3.46515e+06
3.46513e+06
3.46526e+06
3.46524e+06
3.46529e+06
3.46542e+06
3.46544e+06
3.46552e+06
3.46642e+06
3.46651e+06
3.46664e+06
3.46657e+06
3.4667e+06
3.46667e+06
3.46674e+06
3.46689e+06
3.46691e+06
3.46699e+06
3.46793e+06
3.46782e+06
3.46802e+06
3.46785e+06
3.468e+06
3.46795e+06
3.46803e+06
3.4682e+06
3.46823e+06
3.46831e+06
3.46922e+06
3.46887e+06
3.46919e+06
3.46894e+06
3.4691e+06
3.46905e+06
3.46913e+06
3.46933e+06
3.46936e+06
3.46945e+06
3.47024e+06
3.46969e+06
3.47012e+06
3.46979e+06
3.46996e+06
3.46992e+06
3.47001e+06
3.47026e+06
3.4703e+06
3.47039e+06
3.47089e+06
3.47023e+06
3.47072e+06
3.47038e+06
3.47055e+06
3.47056e+06
3.47066e+06
3.47097e+06
3.47102e+06
3.47111e+06
3.47114e+06
3.47051e+06
3.47094e+06
3.47067e+06
3.47081e+06
3.47091e+06
3.47103e+06
3.47143e+06
3.47148e+06
3.47158e+06
3.47085e+06
3.47046e+06
3.47076e+06
3.47065e+06
3.47073e+06
3.47096e+06
3.47108e+06
3.47157e+06
3.47164e+06
3.47175e+06
3.47005e+06
3.47008e+06
3.47014e+06
3.47028e+06
3.47027e+06
3.47066e+06
3.47079e+06
3.47139e+06
3.47148e+06
3.47159e+06
3.46872e+06
3.46934e+06
3.46907e+06
3.46953e+06
3.46943e+06
3.47e+06
3.47013e+06
3.47085e+06
3.47097e+06
3.47108e+06
3.46693e+06
3.46823e+06
3.46753e+06
3.46836e+06
3.46818e+06
3.46893e+06
3.46908e+06
3.4699e+06
3.47006e+06
3.47018e+06
3.46466e+06
3.46667e+06
3.46554e+06
3.46676e+06
3.46646e+06
3.46738e+06
3.46758e+06
3.4685e+06
3.46872e+06
3.46884e+06
3.46201e+06
3.46463e+06
3.46312e+06
3.46465e+06
3.46427e+06
3.46532e+06
3.46559e+06
3.46661e+06
3.46688e+06
3.467e+06
3.459e+06
3.46205e+06
3.46025e+06
3.46198e+06
3.46157e+06
3.4627e+06
3.46307e+06
3.46416e+06
3.4645e+06
3.46462e+06
3.45577e+06
3.45889e+06
3.45693e+06
3.45869e+06
3.45832e+06
3.45945e+06
3.45994e+06
3.46108e+06
3.46149e+06
3.46162e+06
3.45208e+06
3.45495e+06
3.45311e+06
3.45472e+06
3.45445e+06
3.4555e+06
3.45613e+06
3.4573e+06
3.45779e+06
3.45792e+06
3.448e+06
3.45023e+06
3.44873e+06
3.45e+06
3.44989e+06
3.45078e+06
3.45155e+06
3.45272e+06
3.45327e+06
3.45342e+06
3.44335e+06
3.44464e+06
3.44367e+06
3.44446e+06
3.44458e+06
3.44522e+06
3.44612e+06