/*--------------------------------*- C++ -*----------------------------------*\
| =========                 |                                                 |
| \\      /  F ield         | OpenFOAM: The Open Source CFD Toolbox           |
|  \\    /   O peration     | Version:  v2012                                 |
|   \\  /    A nd           | Website:  www.openfoam.com                      |
|    \\/     M anipulation  |                                                 |
\*---------------------------------------------------------------------------*/
FoamFile
{
    version     2.0;
    format      ascii;
    class       surfaceScalarField;
    location    "0.65";
    object      phi;
}
// * * * * * * * * * * * * * * * * * * * * * * * * * * * * * * * * * * * * * //

dimensions      [0 3 -1 0 0 0 0];
oriented        oriented;


internalField   nonuniform List<scalar> 
8048
(
3.18486e-13
-7.52553e-09
-1.74892e-15
7.91565e-11
-2.31354e-08
-1.28958e-14
8.11595e-10
-4.37856e-08
-1.39787e-14
2.17814e-09
-7.50897e-08
-2.04964e-14
1.68772e-09
-1.00589e-07
-2.3318e-15
7.13829e-10
-1.15573e-07
-1.62276e-14
1.05552e-09
-1.03312e-07
1.43463e-16
-6.22072e-08
-2.96309e-14
1.48498e-12
-7.52697e-09
9.28682e-16
1.07751e-10
-2.32416e-08
-2.86941e-15
1.0154e-09
-4.46932e-08
-1.0799e-14
2.07663e-09
-7.61509e-08
-5.05517e-15
1.11889e-09
-9.96313e-08
-1.86703e-14
-3.48622e-11
-1.1442e-07
-1.48144e-14
3.41198e-10
-1.03688e-07
-2.794e-14
-2.23665e-09
-5.96293e-08
-3.28079e-14
-5.02856e-09
-6.07997e-08
-4.60758e-14
-6.99582e-09
-5.20204e-08
-4.47821e-14
-7.56193e-09
-3.77311e-08
-3.00119e-14
-7.76638e-09
-2.82294e-08
-1.45655e-14
-8.21413e-09
-2.48918e-08
-8.97428e-15
-8.9224e-09
-2.47266e-08
-5.77031e-15
-2.6001e-08
-3.90557e-15
2.92865e-12
-7.52991e-09
-4.49653e-15
1.40691e-10
-2.33794e-08
-5.77627e-15
1.18122e-09
-4.57338e-08
-1.76675e-14
1.74154e-09
-7.67113e-08
-1.78985e-14
2.79443e-10
-9.81692e-08
-2.05349e-14
-1.18093e-09
-1.12959e-07
-1.91715e-15
-8.61716e-10
-1.04008e-07
-2.10937e-14
-2.53602e-09
-5.7955e-08
-2.67747e-14
-5.20163e-09
-5.81341e-08
-4.57061e-14
-7.1059e-09
-5.01161e-08
-4.5333e-14
-7.686e-09
-3.7151e-08
-3.10619e-14
-7.85985e-09
-2.80556e-08
-1.64108e-14
-8.24773e-09
-2.45039e-08
-1.00812e-14
-8.89107e-09
-2.40833e-08
-6.53653e-15
-2.51445e-08
-4.24376e-15
4.3799e-12
-7.53427e-09
-1.08441e-15
1.70124e-10
-2.35451e-08
-5.38579e-15
1.24822e-09
-4.6812e-08
-1.19388e-14
1.15534e-09
-7.66184e-08
-1.47989e-14
-8.09733e-10
-9.62041e-08
-1.27602e-14
-2.66919e-09
-1.111e-07
-2.1963e-14
-2.47699e-09
-1.042e-07
-2.9362e-14
-2.74544e-09
-5.76866e-08
-3.35286e-14
-5.22901e-09
-5.56505e-08
-4.4553e-14
-7.08709e-09
-4.8258e-08
-4.41717e-14
-7.70749e-09
-3.65306e-08
-3.1554e-14
-7.87695e-09
-2.78862e-08
-1.75882e-14
-8.21855e-09
-2.41623e-08
-1.08414e-14
-8.80434e-09
-2.34975e-08
-7.54865e-15
-2.43459e-08
-4.34318e-15
5.4006e-12
-7.5397e-09
-5.97005e-15
1.88e-10
-2.37277e-08
-9.74296e-15
1.17923e-09
-4.78032e-08
-2.18291e-15
3.73687e-10
-7.58128e-08
-1.23509e-14
-2.02843e-09
-9.3802e-08
-1.85627e-14
-4.30976e-09
-1.08818e-07
-1.22686e-14
-4.23999e-09
-1.0427e-07
-1.33497e-14
-2.70239e-09
-5.92241e-08
-1.88072e-14
-5.0375e-09
-5.33154e-08
-3.8611e-14
-6.88779e-09
-4.64077e-08
-4.1328e-14
-7.58814e-09
-3.58302e-08
-3.00129e-14
-7.78941e-09
-2.76849e-08
-1.80757e-14
-8.10679e-09
-2.38449e-08
-1.19403e-14
-8.64821e-09
-2.29561e-08
-8.89158e-15
-2.35971e-08
-4.51917e-15
5.90992e-12
-7.54561e-09
-3.72961e-15
1.90616e-10
-2.39124e-08
-6.90005e-15
9.83979e-10
-4.85966e-08
-6.68317e-16
-4.63036e-10
-7.43659e-08
-1.73647e-14
-3.14748e-09
-9.11176e-08
-1.28196e-14
-5.75466e-09
-1.06211e-07
-6.88491e-15
-5.65222e-09
-1.04372e-07
-1.84947e-14
-2.20356e-09
-6.26728e-08
-2.25206e-14
-4.5829e-09
-5.09361e-08
-3.1711e-14
-6.48205e-09
-4.45085e-08
-3.36696e-14
-7.30927e-09
-3.5003e-08
-2.92442e-14
-7.5821e-09
-2.74122e-08
-1.77261e-14
-7.90211e-09
-2.35248e-08
-1.07065e-14
-8.41516e-09
-2.2443e-08
-8.25782e-15
-2.28884e-08
-4.76154e-15
5.94938e-12
-7.55155e-09
-1.62245e-15
1.8218e-10
-2.40886e-08
-7.92537e-15
7.12717e-10
-4.91271e-08
3.34766e-15
-1.19308e-09
-7.24601e-08
-1.5576e-14
-3.95619e-09
-8.83544e-08
-1.11566e-14
-6.67597e-09
-1.03491e-07
-2.01276e-14
-6.33814e-09
-1.0471e-07
-1.06677e-14
-1.10818e-09
-6.79028e-08
-3.6751e-14
-3.88577e-09
-4.81584e-08
-2.83044e-14
-5.90383e-09
-4.24904e-08
-2.92115e-14
-6.89172e-09
-3.40151e-08
-2.4496e-14
-7.26716e-09
-2.70368e-08
-1.82572e-14
-7.61076e-09
-2.31812e-08
-1.03576e-14
-8.10839e-09
-2.19454e-08
-9.71783e-15
-2.22121e-08
-4.44019e-15
5.74406e-12
-7.55732e-09
-4.74526e-15
1.768e-10
-2.42597e-08
-8.27886e-15
4.2477e-10
-4.9375e-08
2.55787e-15
-1.74198e-09
-7.02933e-08
-1.27675e-14
-4.40266e-09
-8.56938e-08
-1.83519e-14
-6.96733e-09
-1.00927e-07
-1.14514e-14
-6.39934e-09
-1.05278e-07
-1.67524e-14
3.2425e-10
-7.46263e-08
-1.05023e-14
-3.06113e-09
-4.47731e-08
-1.83168e-14
-5.25769e-09
-4.02938e-08
-2.60386e-14
-6.40084e-09
-3.2872e-08
-2.07752e-14
-6.88626e-09
-2.65514e-08
-1.60592e-14
-7.25491e-09
-2.28125e-08
-9.55653e-15
-7.74029e-09
-2.14601e-08
-8.87179e-15
-2.15675e-08
-3.92702e-15
5.8026e-12
-7.5631e-09
-3.91446e-16
1.85089e-10
-2.4439e-08
-9.79125e-15
1.20295e-10
-4.93102e-08
5.02882e-15
-2.20296e-09
-6.797e-08
-1.33251e-14
-4.71013e-09
-8.31867e-08
-1.95283e-14
-7.00739e-09
-9.86292e-08
-1.04524e-14
-6.62037e-09
-1.05665e-07
-4.2188e-14
7.08942e-10
-8.19557e-08
-1.38615e-14
-2.41594e-09
-4.16481e-08
-5.40123e-15
-4.69294e-09
-3.80168e-08
-2.23654e-14
-5.91951e-09
-3.16454e-08
-1.96277e-14
-6.48394e-09
-2.5987e-08
-1.32899e-14
-6.85675e-09
-2.24397e-08
-8.09289e-15
-7.32147e-09
-2.09954e-08
-6.54473e-15
-2.09601e-08
-3.50923e-15
6.223e-12
-7.56934e-09
-4.04889e-15
1.91668e-10
-2.46245e-08
-9.28219e-15
-2.70246e-10
-4.88482e-08
2.52318e-15
-2.74208e-09
-6.54982e-08
-1.24285e-14
-5.21492e-09
-8.07138e-08
-1.06138e-14
-7.47288e-09
-9.63713e-08
-1.00206e-14
-8.02904e-09
-1.05109e-07
-8.14783e-15
-1.83813e-09
-8.81464e-08
1.58062e-14
-2.26051e-09
-4.12258e-08
-2.21297e-14
-4.27679e-09
-3.60005e-08
-2.34614e-14
-5.47241e-09
-3.04498e-08
-1.84314e-14
-6.06038e-09
-2.53991e-08
-1.33717e-14
-6.41222e-09
-2.20878e-08
-9.06982e-15
-6.84478e-09
-2.05628e-08
-8.35313e-15
-2.03945e-08
-4.92982e-15
6.83664e-12
-7.57618e-09
-2.06214e-15
1.63023e-10
-2.47807e-08
-9.5834e-15
-7.54504e-10
-4.79306e-08
-1.28488e-15
-3.30085e-09
-6.29518e-08
-1.41686e-14
-5.78061e-09
-7.82341e-08
-1.81078e-14
-8.19448e-09
-9.39574e-08
-4.64764e-15
-9.90362e-09
-1.034e-07
-2.12869e-14
-6.14023e-09
-9.19096e-08
2.15813e-14
-2.08531e-09
-4.52807e-08
3.42081e-15
-3.75842e-09
-3.43274e-08
-2.32724e-14
-4.90406e-09
-2.93041e-08
-1.97066e-14
-5.51762e-09
-2.47856e-08
-1.25671e-14
-5.86378e-09
-2.17416e-08
-8.8553e-15
-6.27334e-09
-2.01532e-08
-5.77328e-15
-1.98593e-08
-5.64183e-15
6.95633e-12
-7.58317e-09
-6.37212e-15
8.96914e-11
-2.48635e-08
-9.4498e-15
-1.17597e-09
-4.66649e-08
-5.12848e-15
-3.51361e-09
-6.06142e-08
-1.11838e-14
-5.71789e-09
-7.60297e-08
-7.48804e-15
-7.85527e-09
-9.18201e-08
-1.31301e-14
-9.64705e-09
-1.01608e-07
-2.7539e-14
-7.50779e-09
-9.40488e-08
9.70469e-15
-3.01709e-10
-5.24866e-08
2.40925e-14
-2.72251e-09
-3.19067e-08
-3.1481e-14
-4.00636e-09
-2.80203e-08
-1.77005e-14
-4.73033e-09
-2.40616e-08
-1.09196e-14
-5.14096e-09
-2.1331e-08
-1.04262e-14
-5.56365e-09
-1.97306e-08
-6.88547e-15
-1.93234e-08
-5.65602e-15
6.4904e-12
-7.58964e-09
9.39284e-16
4.70544e-12
-2.48617e-08
-4.97235e-15
-1.35012e-09
-4.53101e-08
-1.15553e-14
-3.16718e-09
-5.87971e-08
-1.62877e-14
-4.74248e-09
-7.44544e-08
-1.1331e-14
-5.97436e-09
-9.05882e-08
-1.65463e-14
-6.59997e-09
-1.00983e-07
-1.69645e-14
-4.33837e-09
-9.63101e-08
5.51213e-15
3.59225e-09
-6.04174e-08
-2.17422e-14
-1.0193e-09
-2.72953e-08
-3.24603e-14
-2.79077e-09
-2.62488e-08
-1.48809e-14
-3.69117e-09
-2.31612e-08
-1.28904e-14
-4.24485e-09
-2.07773e-08
-1.1034e-14
-4.71504e-09
-1.92604e-08
-7.31891e-15
-1.87536e-08
-6.10436e-15
5.51403e-12
-7.59516e-09
-3.17106e-15
-5.65858e-11
-2.47997e-08
-9.933e-15
-1.27233e-09
-4.40943e-08
-5.702e-15
-2.5155e-09
-5.7554e-08
-1.42075e-14
-3.42891e-09
-7.3541e-08
-1.72771e-14
-3.74555e-09
-9.02715e-08
-3.84924e-15
-3.06591e-09
-1.01662e-07
-1.41747e-14
-4.3987e-10
-9.89362e-08
-4.34847e-14
6.12792e-09
-6.69852e-08
-3.04484e-14
1.05789e-09
-2.22253e-08
-9.69491e-15
-1.35189e-09
-2.38391e-08
-1.09687e-14
-2.47166e-09
-2.20415e-08
-1.08798e-14
-3.20678e-09
-2.00422e-08
-8.16542e-15
-3.75533e-09
-1.87118e-08
-7.68838e-15
-1.81265e-08
-4.66473e-15
4.64816e-12
-7.5998e-09
-7.40136e-16
-8.42353e-11
-2.47108e-08
-7.58697e-15
-1.07499e-09
-4.31036e-08
-1.05763e-14
-1.9124e-09
-5.67166e-08
-1.56212e-14
-2.37809e-09
-7.30754e-08
-1.61106e-14
-2.18847e-09
-9.04611e-08
-4.49614e-15
-8.897e-10
-1.02961e-07
-9.53545e-15
1.44094e-09
-1.01267e-07
-3.61332e-14
6.23631e-09
-7.17804e-08
-1.1451e-14
3.14704e-09
-1.9136e-08
1.54685e-16
3.09923e-10
-2.1002e-08
-7.37893e-15
-1.10135e-09
-2.06302e-08
-9.83795e-15
-2.02341e-09
-1.91201e-08
-6.99094e-15
-2.70279e-09
-1.80324e-08
-6.94483e-15
-1.7422e-08
-4.12537e-15
4.08269e-12
-7.60389e-09
-2.0609e-15
-8.74584e-11
-2.46193e-08
-1.06339e-14
-8.76061e-10
-4.23149e-08
-8.41351e-15
-1.48414e-09
-5.61086e-08
-1.53973e-14
-1.67516e-09
-7.28843e-08
-3.2431e-15
-1.22091e-09
-9.09153e-08
-9.77809e-15
2.18393e-10
-1.04401e-07
-1.22372e-14
2.36025e-09
-1.03409e-07
-1.40959e-15
6.18034e-09
-7.56005e-08
-7.39655e-15
4.99009e-09
-1.79457e-08
9.59387e-15
2.04834e-09
-1.80603e-08
-9.40151e-15
3.54536e-10
-1.89364e-08
-1.24667e-14
-7.43211e-10
-1.80224e-08
-9.8302e-15
-1.58839e-09
-1.71873e-08
-6.783e-15
-1.66232e-08
-5.66572e-15
4.0176e-12
-7.60792e-09
-2.67879e-15
-7.71669e-11
-2.45381e-08
-5.40115e-15
-7.25377e-10
-4.16667e-08
-1.1088e-14
-1.21027e-09
-5.56237e-08
-1.59953e-14
-1.20979e-09
-7.28847e-08
-2.79073e-15
-5.84473e-10
-9.15406e-08
-1.27167e-14
8.72398e-10
-1.05857e-07
-1.03173e-14
2.8868e-09
-1.05423e-07
-1.01583e-14
6.03092e-09
-7.87446e-08
-2.50647e-14
6.30825e-09
-1.82231e-08
-1.76214e-14
3.59166e-09
-1.53437e-08
-1.02079e-14
1.75672e-09
-1.71014e-08
-7.47837e-15
5.17468e-10
-1.67831e-08
-8.1149e-15
-4.74968e-10
-1.61948e-08
-6.56098e-15
-1.57249e-08
-4.77062e-15
4.31808e-12
-7.61223e-09
-6.89143e-16
-6.5244e-11
-2.44686e-08
-1.03581e-14
-6.41278e-10
-4.10907e-08
-1.0613e-14
-1.04808e-09
-5.5217e-08
-1.87709e-14
-8.89848e-10
-7.30428e-08
-1.57849e-15
-1.44361e-10
-9.2286e-08
-7.24509e-15
1.28382e-09
-1.07286e-07
-3.64888e-15
3.11482e-09
-1.07254e-07
-7.6192e-15
5.61884e-09
-8.12487e-08
-3.48196e-14
7.09286e-09
-1.96973e-08
-2.0997e-14
4.82659e-09
-1.30774e-08
-1.05561e-15
3.01351e-09
-1.52883e-08
-6.33956e-15
1.68459e-09
-1.54542e-08
-6.16841e-15
5.85178e-10
-1.50954e-08
-5.68562e-15
-1.47327e-08
-3.97116e-15
4.89076e-12
-7.61712e-09
-1.01892e-15
-5.98727e-11
-2.44038e-08
-4.91776e-15
-6.10526e-10
-4.054e-08
-1.11353e-14
-9.14518e-10
-5.49131e-08
-1.68352e-14
-5.79047e-10
-7.33782e-08
1.62452e-15
3.01247e-10
-9.31663e-08
-8.72215e-15
1.73737e-09
-1.08722e-07
-1.38718e-14
3.42694e-09
-1.08944e-07
-2.1994e-14
5.45345e-09
-8.32754e-08
-3.66296e-14
7.75253e-09
-2.19964e-08
-8.4155e-15
5.81521e-09
-1.11401e-08
-1.62461e-15
4.09075e-09
-1.35638e-08
-5.72979e-15
2.71924e-09
-1.40827e-08
-5.62823e-15
1.54736e-09
-1.39235e-08
-5.37755e-15
-1.36615e-08
-3.52979e-15
5.48749e-12
-7.62262e-09
-2.58079e-15
-6.63436e-11
-2.4332e-08
-6.84433e-15
-5.96767e-10
-4.00096e-08
-1.14062e-14
-7.18082e-10
-5.47918e-08
-1.6297e-14
-1.52054e-10
-7.39442e-08
-5.87285e-15
9.24955e-10
-9.42432e-08
-2.63675e-15
2.47348e-09
-1.1027e-07
-2.16723e-14
4.15803e-09
-1.10628e-07
-1.0454e-14
5.98335e-09
-8.51008e-08
-2.74954e-14
8.79932e-09
-2.48125e-08
-1.11e-14
6.69455e-09
-9.03532e-09
1.03371e-15
4.9923e-09
-1.18616e-08
-4.72667e-15
3.59994e-09
-1.26904e-08
-5.01428e-15
2.37795e-09
-1.27015e-08
-4.89417e-15
-1.25299e-08
-3.73116e-15
6.01286e-12
-7.62862e-09
-6.34512e-16
-8.20962e-11
-2.42439e-08
-4.991e-15
-5.51297e-10
-3.95404e-08
-1.00795e-14
-3.99322e-10
-5.49438e-08
-1.22551e-14
4.39035e-10
-7.47825e-08
-4.48506e-15
1.7725e-09
-9.55766e-08
5.99129e-17
3.53116e-09
-1.12029e-07
-2.38237e-14
5.36336e-09
-1.1246e-07
-1.31191e-14
7.29785e-09
-8.70352e-08
-1.14462e-14
1.05278e-08
-2.80425e-08
-1.0079e-14
7.59881e-09
-6.10639e-09
-5.55167e-15
5.73637e-09
-9.9991e-09
-4.67326e-15
4.31165e-09
-1.12657e-08
-4.21427e-15
3.05197e-09
-1.14419e-08
-4.04896e-15
-1.1357e-08
-3.64844e-15
6.30414e-12
-7.63493e-09
-1.64582e-15
-9.96371e-11
-2.4138e-08
-8.49304e-15
-4.42601e-10
-3.91974e-08
-8.83856e-15
2.58529e-11
-5.54123e-08
-1.0608e-14
1.12579e-09
-7.58824e-08
-7.30906e-15
2.71872e-09
-9.71694e-08
-7.92373e-15
4.70385e-09
-1.14014e-07
-2.29369e-14
6.7613e-09
-1.14518e-07
-1.698e-14
8.92466e-09
-8.91986e-08
-1.51751e-14
1.25731e-08
-3.1691e-08
-4.41849e-15
8.56003e-09
-2.09337e-09
-1.07023e-14
6.32804e-09
-7.76707e-09
-3.07096e-15
4.83682e-09
-9.77446e-09
-3.36441e-15
3.54908e-09
-1.01541e-08
-2.70823e-15
-1.01622e-08
-1.89131e-15
6.36355e-12
-7.64128e-09
-9.79739e-16
-1.08796e-10
-2.40228e-08
-8.06784e-15
-2.69897e-10
-3.90363e-08
-7.4988e-15
4.74184e-10
-5.61563e-08
-8.8258e-15
1.76257e-09
-7.71708e-08
-8.01836e-15
3.52316e-09
-9.893e-08
-1.03424e-14
5.62944e-09
-1.1612e-07
-1.91412e-14
7.81816e-09
-1.16706e-07
-1.24014e-14
9.97179e-09
-9.13522e-08
-1.52866e-14
1.38153e-08
-3.55346e-08
-1.09339e-14
9.39769e-09
2.32433e-09
5.49516e-15
6.74522e-09
-5.11455e-09
-1.49887e-15
5.1599e-09
-8.18915e-09
-2.55488e-15
3.85866e-09
-8.85288e-09
-2.45925e-15
-8.96676e-09
-1.51502e-15
6.22511e-12
-7.6475e-09
-5.7874e-16
-1.03625e-10
-2.3913e-08
-8.5632e-15
-6.63563e-11
-3.90735e-08
-7.69487e-15
8.42788e-10
-5.70655e-08
-1.11455e-14
2.20277e-09
-7.85308e-08
-1.08853e-14
3.97422e-09
-1.00701e-07
-4.34105e-15
6.02086e-09
-1.18167e-07
-1.31348e-14
8.10152e-09
-1.18787e-07
-1.29832e-14
9.85055e-09
-9.31012e-08
-1.29751e-14
1.33634e-08
-3.90476e-08
-2.53095e-14
9.75636e-09
5.93144e-09
1.99205e-14
6.93455e-09
-2.2927e-09
2.78992e-15
5.28051e-09
-6.53512e-09
-1.82169e-15
3.9881e-09
-7.56047e-09
-2.00819e-15
-7.79331e-09
-1.17839e-15
6.06327e-12
-7.65356e-09
-2.23444e-15
-8.39227e-11
-2.3823e-08
-7.68059e-15
1.25184e-10
-3.92826e-08
-8.31008e-15
1.0759e-09
-5.80163e-08
-1.12891e-14
2.38645e-09
-7.98413e-08
-8.94397e-15
4.01921e-09
-1.02334e-07
-2.45886e-15
5.84599e-09
-1.19994e-07
-1.36119e-14
7.59333e-09
-1.20534e-07
-2.51115e-15
8.73301e-09
-9.42408e-08
-4.37858e-15
1.14228e-08
-4.17375e-08
-1.6212e-14
9.40669e-09
7.94756e-09
2.78793e-15
6.8499e-09
2.64153e-10
2.75911e-15
5.22438e-09
-4.9096e-09
-3.84392e-16
3.96813e-09
-6.30422e-09
-1.31184e-15
-6.66386e-09
-6.37717e-16
6.05301e-12
-7.6596e-09
-6.71334e-16
-5.46695e-11
-2.37623e-08
-5.80582e-15
2.69754e-10
-3.96071e-08
-9.16897e-15
1.16799e-09
-5.89145e-08
-1.09301e-14
2.34242e-09
-8.10157e-08
-5.59035e-15
3.74617e-09
-1.03738e-07
-1.33474e-14
5.27267e-09
-1.2152e-07
-1.66374e-14
6.59878e-09
-1.2186e-07
-9.59371e-15
7.17518e-09
-9.48173e-08
-2.05681e-14
8.90288e-09
-4.34652e-08
-4.70717e-15
8.44511e-09
8.4052e-09
-2.46413e-14
6.50858e-09
2.20073e-09
-1.45388e-15
5.03685e-09
-3.43789e-09
7.28713e-17
3.84679e-09
-1.03914e-15
4.87947e-17
6.24462e-12
-7.66586e-09
-3.38592e-15
-2.15188e-11
-2.37345e-08
-6.75429e-15
3.54496e-10
-3.99831e-08
-8.10153e-15
1.14905e-09
-5.97091e-08
-1.05832e-14
2.14719e-09
-8.20138e-08
-8.77893e-15
3.2988e-09
-1.04889e-07
-7.72235e-15
4.52435e-09
-1.22746e-07
-1.59318e-14
5.47496e-09
-1.22811e-07
-5.96503e-15
5.65047e-09
-9.49929e-08
-1.71472e-14
6.55869e-09
-4.43735e-08
-9.34244e-15
7.19075e-09
7.77321e-09
5.1411e-15
5.99478e-09
3.39677e-09
4.51169e-15
-2.20796e-09
3.34983e-16
6.66256e-12
-7.67252e-09
-1.35518e-15
1.08265e-11
-2.37387e-08
-4.64842e-15
3.858e-10
-4.03581e-08
-1.12968e-14
1.06126e-09
-6.03846e-08
-1.02541e-14
1.88097e-09
-8.28335e-08
-4.93088e-15
2.80335e-09
-1.05812e-07
-1.12791e-14
3.77709e-09
-1.2372e-07
-1.3329e-14
4.46009e-09
-1.23494e-07
-1.0093e-14
4.40909e-09
-9.49419e-08
-8.15822e-15
4.71527e-09
-4.46798e-08
-1.54539e-14
5.97284e-09
6.51575e-09
1.15413e-14
5.41175e-09
3.95792e-09
2.12811e-15
-1.24285e-09
1.57364e-16
7.23184e-12
-7.67976e-09
-3.15657e-15
3.91904e-11
-2.37706e-08
-7.66062e-15
3.8009e-10
-4.0699e-08
-5.7868e-15
9.43795e-10
-6.09483e-08
-6.43294e-15
1.60492e-09
-8.34947e-08
-1.23621e-14
2.34139e-09
-1.06548e-07
-1.00982e-14
3.12844e-09
-1.24507e-07
-1.35447e-14
3.65096e-09
-1.24017e-07
-6.72477e-15
3.50846e-09
-9.47994e-08
-1.00635e-14
3.4434e-09
-4.46148e-08
-1.2282e-14
4.97176e-09
4.98746e-09
7.7092e-15
4.83988e-09
4.08986e-09
3.22023e-15
-5.15177e-10
5.94576e-16
7.91985e-12
-7.68768e-09
-2.1231e-15
6.13183e-11
-2.3824e-08
-5.10296e-15
3.53833e-10
-4.09915e-08
-1.05001e-14
8.23423e-10
-6.14179e-08
-6.60738e-15
1.35428e-09
-8.40255e-08
-1.06796e-14
1.95029e-09
-1.07144e-07
-1.26633e-14
2.61036e-09
-1.25167e-07
-1.18015e-14
3.05202e-09
-1.24458e-07
-1.23654e-14
2.8991e-09
-9.46465e-08
-1.07951e-14
2.62108e-09
-4.43368e-08
-7.35835e-15
4.20068e-09
3.40788e-09
1.44733e-15
4.31344e-09
3.97712e-09
-7.36715e-16
1.59548e-11
7.39255e-16
8.5888e-12
-7.69627e-09
-2.99924e-15
7.56721e-11
-2.38911e-08
-7.84781e-15
3.19469e-10
-4.12353e-08
-5.13233e-15
7.13913e-10
-6.18123e-08
-3.09441e-15
1.14205e-09
-8.44537e-08
-1.41151e-14
1.63534e-09
-1.07637e-07
-1.24466e-14
2.2133e-09
-1.25745e-07
-1.2119e-14
2.62292e-09
-1.24868e-07
-9.74425e-15
2.5018e-09
-9.45254e-08
-9.60845e-15
2.09717e-09
-4.39322e-08
-9.0784e-15
3.58748e-09
1.91758e-09
2.95966e-16
3.83533e-09
3.72929e-09
2.12708e-16
3.84485e-10
6.95794e-16
9.12812e-12
-7.7054e-09
-1.94928e-15
8.17701e-11
-2.39638e-08
-6.22838e-15
2.83897e-10
-4.14374e-08
-8.07359e-15
6.19269e-10
-6.21477e-08
-5.01804e-15
9.67531e-10
-8.4802e-08
-1.11056e-14
1.38499e-09
-1.08055e-07
-1.28489e-14
1.9087e-09
-1.26268e-07
-1.26072e-14
2.30531e-09
-1.25265e-07
-1.11848e-14
2.21563e-09
-9.44357e-08
-1.47153e-14
1.66617e-09
-4.33828e-08
-7.10983e-15
3.01569e-09
5.68085e-10
5.938e-16
3.37644e-09
3.36856e-09
1.37856e-15
5.99878e-10
7.19427e-16
9.38798e-12
-7.71479e-09
-3.03603e-15
8.02262e-11
-2.40346e-08
-8.00922e-15
2.50367e-10
-4.16075e-08
-5.26587e-15
5.38362e-10
-6.24356e-08
-3.19333e-15
8.23356e-10
-8.5087e-08
-1.26746e-14
1.18272e-09
-1.08414e-07
-1.311e-14
1.66891e-09
-1.26755e-07
-1.25037e-14
2.06233e-09
-1.25658e-07
-8.66702e-15
2.01428e-09
-9.43877e-08
-9.79196e-15
1.31843e-09
-4.26869e-08
-7.0054e-15
2.39786e-09
-5.11375e-10
-4.54281e-16
2.89811e-09
2.86834e-09
7.02872e-16
6.67189e-10
7.62182e-16
9.26428e-12
-7.72406e-09
-1.9961e-15
7.24885e-11
-2.40979e-08
-6.50752e-15
2.19467e-10
-4.17545e-08
-6.61645e-15
4.67576e-10
-6.26837e-08
-3.71318e-15
7.00238e-10
-8.53197e-08
-1.30178e-14
1.01182e-09
-1.08726e-07
-1.36601e-14
1.4672e-09
-1.2721e-07
-1.50177e-14
1.85438e-09
-1.26045e-07
-9.65141e-15
1.82662e-09
-9.43599e-08
-7.13783e-15
8.89156e-10
-4.17495e-08
-2.99599e-15
1.62995e-09
-1.25216e-09
-4.63999e-15
2.32517e-09
2.17315e-09
-1.05962e-15
5.75567e-10
7.47799e-16
8.58398e-12
-7.73264e-09
-2.76604e-15
6.03858e-11
-2.41497e-08
-7.13678e-15
1.91034e-10
-4.18851e-08
-6.88507e-15
4.03667e-10
-6.28963e-08
-3.45507e-15
5.90712e-10
-8.55067e-08
-1.7092e-14
8.60679e-10
-1.08996e-07
-1.16081e-14
1.28916e-09
-1.27638e-07
-1.32804e-14
1.68015e-09
-1.26436e-07
-9.03124e-15
1.72084e-09
-9.44006e-08
-6.21463e-15
6.7631e-10
-4.0705e-08
4.29049e-16
7.70076e-10
-1.34593e-09
-3.37286e-14
1.60582e-09
1.33742e-09
-6.06129e-15
3.6098e-10
-8.63958e-17
7.27475e-12
-7.73992e-09
-2.18064e-15
4.54034e-11
-2.41878e-08
-7.62845e-15
1.63702e-10
-4.20034e-08
-6.14251e-15
3.42164e-10
-6.30748e-08
-4.63273e-15
4.8623e-10
-8.56508e-08
-1.3078e-14
7.15462e-10
-1.09225e-07
-1.39984e-14
1.11155e-09
-1.28035e-07
-1.61985e-14
1.4888e-09
-1.26813e-07
-9.80242e-15
1.52203e-09
-9.44338e-08
-8.83334e-15
3.56759e-10
-3.95397e-08
-1.793e-15
1.46664e-11
-1.0038e-09
-7.56181e-15
8.35028e-10
5.17086e-10
-2.47249e-16
1.32931e-10
1.29169e-15
5.31459e-12
-7.74524e-09
-2.90954e-15
2.83155e-11
-2.42108e-08
-7.24706e-15
1.35141e-10
-4.21103e-08
-7.83558e-15
2.76991e-10
-6.32166e-08
-5.63919e-15
3.74755e-10
-8.57486e-08
-1.4758e-14
5.56099e-10
-1.09406e-07
-1.19649e-14
9.13608e-10
-1.28392e-07
-1.27597e-14
1.30342e-09
-1.27203e-07
-1.04667e-14
1.43575e-09
-9.45662e-08
-1.03857e-14
5.87743e-10
-3.86917e-08
-1.03613e-14
-4.16063e-10
1.28629e-14
1.01026e-10
2.8905e-15
1.00461e-15
3.15274e-12
-7.74839e-09
-2.59483e-15
1.12702e-11
-2.42189e-08
-7.78096e-15
1.06866e-10
-4.22058e-08
-7.15753e-15
2.09278e-10
-6.3319e-08
-7.55746e-15
2.54023e-10
-8.57934e-08
-1.17681e-14
3.6531e-10
-1.09518e-07
-1.43624e-14
6.31027e-10
-1.28658e-07
-1.29121e-14
9.00125e-10
-1.27472e-07
-1.24486e-14
7.26811e-10
-9.43929e-08
-8.73306e-15
-3.7965e-08
-7.19591e-15
1.41183e-12
-7.7498e-09
-2.81532e-15
-1.74592e-12
-2.42158e-08
-7.51361e-15
8.66388e-11
-4.22942e-08
-6.95214e-15
1.56472e-10
-6.33889e-08
-6.38522e-15
1.60487e-10
-8.57974e-08
-1.13279e-14
2.20746e-10
-1.09578e-07
-1.5383e-14
4.32139e-10
-1.28869e-07
-1.50191e-14
6.4421e-10
-1.27684e-07
-1.12942e-14
3.55313e-10
-9.4104e-08
-2.56744e-15
-3.76096e-08
-2.55078e-15
2.15869e-13
-7.75002e-09
-2.54126e-15
-9.30572e-12
-2.42062e-08
-7.73789e-15
7.58351e-11
-4.23794e-08
-6.75966e-15
1.21114e-10
-6.34341e-08
-7.45267e-15
9.78834e-11
-8.57741e-08
-1.18235e-14
1.30151e-10
-1.0961e-07
-1.60241e-14
3.28901e-10
-1.29068e-07
-1.51636e-14
5.62015e-10
-1.27917e-07
-8.6736e-15
3.66457e-10
-9.39084e-08
-3.60046e-15
-3.72432e-08
-3.67547e-15
-4.75212e-13
-7.74954e-09
-2.71454e-15
-1.14335e-11
-2.41953e-08
-7.70315e-15
7.29338e-11
-4.24637e-08
-6.59399e-15
9.93297e-11
-6.34605e-08
-7.77206e-15
5.64148e-11
-8.57312e-08
-1.17678e-14
7.03659e-11
-1.09624e-07
-1.64687e-14
2.63346e-10
-1.29261e-07
-1.40014e-14
5.12706e-10
-1.28167e-07
-1.31516e-14
3.38041e-10
-9.37338e-08
-7.78308e-15
-3.69052e-08
-6.6652e-15
-7.36657e-13
-7.74881e-09
-2.76621e-15
-8.63328e-12
-2.41874e-08
-7.62968e-15
7.61983e-11
-4.25486e-08
-6.67166e-15
8.79213e-11
-6.34722e-08
-5.79621e-15
3.06185e-11
-8.56739e-08
-1.40534e-14
3.34551e-11
-1.09627e-07
-1.76945e-14
2.28582e-10
-1.29456e-07
-1.4508e-14
4.9988e-10
-1.28438e-07
-6.10683e-15
3.43963e-10
-9.35778e-08
-1.24147e-16
-3.65612e-08
1.3473e-15
-6.70803e-13
-7.74814e-09
-2.88179e-15
-1.93739e-12
-2.41861e-08
-8.89913e-15
8.32954e-11
-4.26338e-08
-6.89674e-15
8.27996e-11
-6.34717e-08
-6.93282e-15
1.37607e-11
-8.56049e-08
-1.48436e-14
9.22686e-12
-1.09623e-07
-1.45813e-14
2.09229e-10
-1.29656e-07
-1.18108e-14
5.00211e-10
-1.28729e-07
-1.00629e-14
3.52589e-10
-9.34302e-08
-8.29007e-15
-3.62086e-08
-1.74005e-15
-3.39025e-13
-7.7478e-09
-2.77768e-15
7.33151e-12
-2.41938e-08
-6.67556e-15
9.19774e-11
-4.27185e-08
-5.09398e-15
8.05002e-11
-6.34602e-08
-7.19513e-15
1.17563e-12
-8.55256e-08
-1.4246e-14
-7.58312e-12
-1.09614e-07
-1.2219e-14
1.99679e-10
-1.29863e-07
-1.64002e-14
5.11255e-10
-1.29041e-07
-9.50618e-15
3.6933e-10
-9.32883e-08
-6.55823e-15
-3.58393e-08
-3.54676e-16
1.8895e-13
-7.74799e-09
-2.75407e-15
1.76164e-11
-2.42112e-08
-8.83008e-15
1.00473e-10
-4.28013e-08
-5.95082e-15
7.86129e-11
-6.34384e-08
-8.87953e-15
-1.00057e-11
-8.5437e-08
-1.54185e-14
-2.06579e-11
-1.09603e-07
-1.09613e-14
1.95794e-10
-1.3008e-07
-1.82805e-14
5.28878e-10
-1.29374e-07
-9.11301e-15
3.90635e-10
-9.315e-08
-8.74502e-15
-3.54486e-08
-1.64977e-15
8.64083e-13
-7.74885e-09
-2.89835e-15
2.71508e-11
-2.42375e-08
-7.19076e-15
1.06838e-10
-4.2881e-08
-6.4117e-15
7.47899e-11
-6.34063e-08
-8.31432e-15
-2.16568e-11
-8.53405e-08
-1.22418e-14
-3.15142e-11
-1.09593e-07
-1.44022e-14
1.96475e-10
-1.30308e-07
-1.50497e-14
5.52267e-10
-1.2973e-07
-8.6764e-15
4.17001e-10
-9.30148e-08
-8.05465e-15
-3.50316e-08
-9.38509e-16
1.64829e-12
-7.7505e-09
-2.99977e-15
3.4368e-11
-2.42702e-08
-7.99077e-15
1.09818e-10
-4.29565e-08
-6.93203e-15
6.75315e-11
-6.3364e-08
-9.36597e-15
-3.50814e-11
-8.52379e-08
-1.26197e-14
-4.12132e-11
-1.09587e-07
-1.4905e-14
2.00843e-10
-1.3055e-07
-1.49895e-14
5.80753e-10
-1.30109e-07
-1.04606e-14
4.48076e-10
-9.28821e-08
-7.62545e-15
-3.45835e-08
7.05053e-16
2.50702e-12
-7.753e-09
-2.96735e-15
3.79899e-11
-2.43057e-08
-8.13269e-15
1.08559e-10
-4.30271e-08
-7.17197e-15
5.61582e-11
-6.33116e-08
-9.27318e-15
-5.00573e-11
-8.51317e-08
-1.37137e-14
-4.93722e-11
-1.09588e-07
-1.39378e-14
2.09217e-10
-1.30808e-07
-1.62948e-14
6.14566e-10
-1.30515e-07
-1.09671e-14
4.84069e-10
-9.27516e-08
-9.60922e-15
-3.40995e-08
-1.10818e-15
3.41482e-12
-7.75642e-09
-3.162e-15
3.75399e-11
-2.43398e-08
-8.08857e-15
1.02992e-10
-4.30925e-08
-7.29059e-15
4.07189e-11
-6.32493e-08
-1.02409e-14
-6.5715e-11
-8.50252e-08
-1.39171e-14
-5.50872e-11
-1.09598e-07
-1.35136e-14
2.22379e-10
-1.31086e-07
-1.41412e-14
6.54244e-10
-1.30947e-07
-1.30005e-14
5.25261e-10
-9.26226e-08
-7.6863e-15
-3.35742e-08
-2.58986e-15
4.35525e-12
-7.76078e-09
-3.21853e-15
3.33529e-11
-2.43688e-08
-9.03322e-15
9.37003e-11
-4.31529e-08
-7.00456e-15
2.22708e-11
-6.31779e-08
-9.618e-15
-8.03715e-11
-8.49226e-08
-1.44631e-14
-5.67501e-11
-1.09622e-07
-1.32987e-14
2.41628e-10
-1.31384e-07
-1.44951e-14
7.00805e-10
-1.31406e-07
-1.008e-14
5.72354e-10
-9.24942e-08
-7.45741e-15
-3.30018e-08
-3.75116e-15
5.32964e-12
-7.76611e-09
-3.42866e-15
2.67096e-11
-2.43902e-08
-8.98707e-15
8.20735e-11
-4.32082e-08
-6.76003e-15
2.76133e-12
-6.30985e-08
-1.02922e-14
-9.16955e-11
-8.48282e-08
-1.50732e-14
-5.22803e-11
-1.09661e-07
-1.47543e-14
2.68547e-10
-1.31705e-07
-9.0325e-15
7.55022e-10
-1.31892e-07
-8.492e-15
6.25245e-10
-9.23644e-08
-6.26675e-15
-3.23766e-08
2.52988e-15
6.35405e-12
-7.77246e-09
-3.42731e-15
1.94642e-11
-2.44033e-08
-1.02003e-14
6.98019e-11
-4.32586e-08
-7.19165e-15
-1.55015e-11
-6.30132e-08
-1.1608e-14
-9.73841e-11
-8.47463e-08
-1.39773e-14
-3.9499e-11
-1.09719e-07
-9.44197e-15
3.04628e-10
-1.32049e-07
-2.01604e-14
8.17809e-10
-1.32405e-07
-1.09179e-14
6.83701e-10
-9.22303e-08
-1.16198e-14
-3.16929e-08
-6.43023e-15
7.45256e-12
-7.77991e-09
-3.63551e-15
1.38935e-11
-2.44098e-08
-1.02656e-14
5.89185e-11
-4.33036e-08
-7.24619e-15
-2.98481e-11
-6.29245e-08
-1.14973e-14
-9.53543e-11
-8.46808e-08
-1.4063e-14
-1.68914e-11
-1.09798e-07
-1.08408e-14
3.51326e-10
-1.32418e-07
-1.70852e-14
8.9077e-10
-1.32945e-07
-1.19809e-14
7.48932e-10
-9.20885e-08
-7.84786e-15
-3.0944e-08
1.39085e-15
8.65514e-12
-7.78857e-09
-3.76874e-15
1.21601e-11
-2.44133e-08
-1.07608e-14
5.12274e-11
-4.33427e-08
-8.08123e-15
-3.78409e-11
-6.28354e-08
-1.13566e-14
-8.33839e-11
-8.46352e-08
-1.47218e-14
1.76269e-11
-1.09899e-07
-1.13579e-14
4.1064e-10
-1.32811e-07
-1.64326e-14
9.75366e-10
-1.3351e-07
-1.03551e-14
8.21555e-10
-9.19347e-08
-1.226e-14
-3.01224e-08
-8.49055e-16
1.00014e-11
-7.79857e-09
-3.99767e-15
1.61002e-11
-2.44194e-08
-1.09009e-14
4.83575e-11
-4.33749e-08
-8.4973e-15
-3.73566e-11
-6.27497e-08
-1.084e-14
-5.99094e-11
-8.46127e-08
-1.34862e-14
6.5203e-11
-1.10024e-07
-9.22429e-15
4.83883e-10
-1.33229e-07
-1.85314e-14
1.07266e-09
-1.34098e-07
-1.37204e-14
9.01979e-10
-9.1764e-08
-1.15493e-14
-2.92204e-08
-4.17581e-15
1.15331e-11
-7.8101e-09
-4.13006e-15
2.67419e-11
-2.44346e-08
-1.08534e-14
5.12029e-11
-4.33994e-08
-9.45575e-15
-2.70372e-11
-6.26714e-08
-1.07837e-14
-2.43246e-11
-8.46154e-08
-1.63027e-14
1.26309e-10
-1.10174e-07
-1.60593e-14
5.71904e-10
-1.33675e-07
-1.37454e-14
1.18377e-09
-1.3471e-07
-1.10943e-14
9.91151e-10
-9.15713e-08
-4.94019e-15
-2.82293e-08
-1.02405e-14
1.32833e-11
-7.82339e-09
-4.43565e-15
4.4151e-11
-2.44655e-08
-1.06431e-14
5.97737e-11
-4.3415e-08
-9.84026e-15
-6.66277e-12
-6.26049e-08
-1.00914e-14
2.30624e-11
-8.46452e-08
-1.55354e-14
2.01658e-10
-1.10353e-07
-1.42012e-14
6.75649e-10
-1.34149e-07
-1.56355e-14
1.30986e-09
-1.35344e-07
-1.22483e-14
1.08999e-09
-9.13515e-08
-7.26578e-15
-2.71393e-08
-2.86182e-15
1.5266e-11
-7.83866e-09
-4.65235e-15
6.72115e-11
-2.45174e-08
-1.03461e-14
7.32911e-11
-4.34211e-08
-1.08308e-14
2.35852e-11
-6.25552e-08
-1.07174e-14
8.13119e-11
-8.47029e-08
-1.58469e-14
2.90755e-10
-1.10562e-07
-1.4021e-14
7.95261e-10
-1.34653e-07
-1.50949e-14
1.45177e-09
-1.36001e-07
-1.13105e-14
1.19951e-09
-9.10992e-08
-6.52332e-15
-2.59398e-08
-1.84384e-15
1.74842e-11
-7.85614e-09
-5.03616e-15
9.36578e-11
-2.45936e-08
-1.01939e-14
9.01387e-11
-4.34176e-08
-1.15217e-14
6.20551e-11
-6.25271e-08
-1.11433e-14
1.49565e-10
-8.47904e-08
-1.63964e-14
3.93166e-10
-1.10806e-07
-1.39006e-14
9.31052e-10
-1.35191e-07
-1.53327e-14
1.61046e-09
-1.3668e-07
-1.26937e-14
1.32097e-09
-9.08097e-08
-6.6865e-15
-2.46188e-08
-4.12361e-15
1.99021e-11
-7.87604e-09
-5.20808e-15
1.20162e-10
-2.46939e-08
-1.00458e-14
1.07891e-10
-4.34053e-08
-1.007e-14
1.06426e-10
-6.25256e-08
-1.15219e-14
2.25967e-10
-8.491e-08
-1.65566e-14
5.07554e-10
-1.11088e-07
-1.43473e-14
1.08262e-09
-1.35766e-07
-1.57616e-14
1.78643e-09
-1.37384e-07
-1.52623e-14
1.45557e-09
-9.04788e-08
-8.23786e-15
-2.31632e-08
-2.56074e-15
2.24348e-11
-7.89848e-09
-5.49705e-15
1.43e-10
-2.48144e-08
-1.0726e-14
1.2419e-10
-4.33865e-08
-1.09047e-14
1.54296e-10
-6.25557e-08
-1.05949e-14
3.08531e-10
-8.50642e-08
-1.6576e-14
6.3228e-10
-1.11411e-07
-1.53302e-14
1.24909e-09
-1.36383e-07
-1.56991e-14
1.97988e-09
-1.38115e-07
-1.51902e-14
1.6045e-09
-9.01034e-08
-7.00927e-15
-2.15588e-08
-4.18246e-15
2.49373e-11
-7.92342e-09
-6.00016e-15
1.58542e-10
-2.4948e-08
-9.81184e-15
1.36831e-10
-4.33648e-08
-1.15207e-14
2.02653e-10
-6.26215e-08
-1.53952e-14
3.94548e-10
-8.52561e-08
-1.64232e-14
7.64603e-10
-1.11781e-07
-1.52112e-14
1.42829e-09
-1.37047e-07
-1.39419e-14
2.18995e-09
-1.38877e-07
-1.64649e-14
1.76857e-09
-8.9682e-08
-7.84112e-15
-1.97902e-08
8.12407e-16
2.71962e-11
-7.95061e-09
-6.45998e-15
1.63972e-10
-2.50848e-08
-1.10622e-14
1.44311e-10
-4.33452e-08
-1.19045e-14
2.48748e-10
-6.2726e-08
-1.40193e-14
4.8071e-10
-8.54881e-08
-1.61457e-14
9.00281e-10
-1.12201e-07
-1.6898e-14
1.61594e-09
-1.37762e-07
-1.2758e-14
2.4142e-09
-1.39675e-07
-1.43586e-14
1.94832e-09
-8.92161e-08
-6.39699e-15
-1.78419e-08
1.35693e-14
2.8891e-11
-7.97951e-09
-7.16969e-15
1.57687e-10
-2.52136e-08
-1.15739e-14
1.45348e-10
-4.33328e-08
-1.17337e-14
2.88717e-10
-6.28694e-08
-1.54633e-14
5.61247e-10
-8.57606e-08
-1.46416e-14
1.03174e-09