/*--------------------------------*- C++ -*----------------------------------*\
| =========                 |                                                 |
| \\      /  F ield         | OpenFOAM: The Open Source CFD Toolbox           |
|  \\    /   O peration     | Version:  v2012                                 |
|   \\  /    A nd           | Website:  www.openfoam.com                      |
|    \\/     M anipulation  |                                                 |
\*---------------------------------------------------------------------------*/
FoamFile
{
    version     2.0;
    format      ascii;
    class       surfaceScalarField;
    location    "0.7";
    object      phi;
}
// * * * * * * * * * * * * * * * * * * * * * * * * * * * * * * * * * * * * * //

dimensions      [0 3 -1 0 0 0 0];
oriented        oriented;


internalField   nonuniform List<scalar> 
6431
(
2.30628e-11
-2.28849e-10
1.81664e-17
2.39683e-11
-2.38278e-10
2.04247e-17
2.4767e-11
-2.47221e-10
2.10171e-17
2.54398e-11
-2.55513e-10
2.0571e-17
2.59672e-11
-2.63181e-10
2.1473e-17
2.6331e-11
-2.69943e-10
2.01446e-17
2.65129e-11
-2.75826e-10
1.823e-17
2.64969e-11
-2.80598e-10
1.73946e-17
2.62682e-11
-2.84134e-10
1.57519e-17
2.58139e-11
-2.86496e-10
1.60038e-17
2.51251e-11
-2.87307e-10
1.54453e-17
2.41951e-11
-2.86621e-10
1.22805e-17
2.30219e-11
-2.84196e-10
1.41329e-17
2.16076e-11
-2.7992e-10
1.52447e-17
1.99587e-11
-2.73683e-10
1.68827e-17
1.80885e-11
-2.6514e-10
1.846e-17
1.60159e-11
-2.54093e-10
2.1028e-17
1.37671e-11
-2.40201e-10
2.24571e-17
1.1378e-11
-2.2292e-10
2.32916e-17
8.89616e-12
-2.01535e-10
2.22637e-17
6.38334e-12
-1.75017e-10
1.97604e-17
3.9319e-12
-1.41635e-10
1.55999e-17
1.65579e-12
-9.87173e-11
9.91565e-18
-4.07194e-11
2.24797e-18
2.32109e-11
-2.29838e-10
2.07805e-17
2.41109e-11
-2.39178e-10
2.4298e-17
2.49031e-11
-2.48013e-10
2.52651e-17
2.55687e-11
-2.56178e-10
2.33254e-17
2.60881e-11
-2.63701e-10
2.1264e-17
2.64431e-11
-2.70298e-10
1.84086e-17
2.66157e-11
-2.75999e-10
1.56653e-17
2.65898e-11
-2.80572e-10
1.49309e-17
2.63509e-11
-2.83895e-10
1.4227e-17
2.58862e-11
-2.86032e-10
1.50973e-17
2.51868e-11
-2.86607e-10
1.48066e-17
2.42463e-11
-2.85681e-10
1.41622e-17
2.30626e-11
-2.83012e-10
1.65188e-17
2.16379e-11
-2.78495e-10
1.80591e-17
1.99789e-11
-2.72024e-10
2.01768e-17
1.80987e-11
-2.6326e-10
2.15151e-17
1.60162e-11
-2.52011e-10
2.33991e-17
1.37576e-11
-2.37942e-10
2.39215e-17
1.13587e-11
-2.20522e-10
2.37698e-17
8.86679e-12
-1.99043e-10
2.22286e-17
6.3432e-12
-1.72494e-10
1.91586e-17
3.87977e-12
-1.39172e-10
1.48687e-17
1.59213e-12
-9.64297e-11
8.79424e-18
-3.91273e-11
1.1174e-18
2.34703e-11
-2.30825e-10
2.87222e-17
2.43668e-11
-2.40074e-10
3.10147e-17
2.51531e-11
-2.48799e-10
3.22622e-17
2.58105e-11
-2.56835e-10
2.8472e-17
2.63195e-11
-2.6421e-10
2.31192e-17
2.66621e-11
-2.7064e-10
1.87948e-17
2.68203e-11
-2.76157e-10
1.52112e-17
2.67783e-11
-2.8053e-10
1.44649e-17
2.65218e-11
-2.83638e-10
1.4385e-17
2.60383e-11
-2.85548e-10
1.59194e-17
2.53192e-11
-2.85888e-10
1.76521e-17
2.43583e-11
-2.8472e-10
2.07252e-17
2.31539e-11
-2.81808e-10
2.32545e-17
2.17084e-11
-2.7705e-10
2.47497e-17
2.00285e-11
-2.70344e-10
2.64638e-17
1.81275e-11
-2.61359e-10
2.69647e-17
1.60243e-11
-2.49907e-10
2.77034e-17
1.37453e-11
-2.35663e-10
2.70735e-17
1.13259e-11
-2.18102e-10
2.56593e-17
8.81353e-12
-1.96531e-10
2.32767e-17
6.26961e-12
-1.6995e-10
1.93003e-17
3.78834e-12
-1.36691e-10
1.4596e-17
1.50605e-12
-9.41475e-11
8.01253e-18
-3.76214e-11
2.23151e-19
2.3835e-11
-2.31811e-10
3.63941e-17
2.47274e-11
-2.40966e-10
3.64474e-17
2.55068e-11
-2.49579e-10
3.58894e-17
2.61542e-11
-2.57482e-10
3.0019e-17
2.66502e-11
-2.64706e-10
2.31522e-17
2.69767e-11
-2.70967e-10
1.71848e-17
2.71161e-11
-2.76297e-10
1.19938e-17
2.70526e-11
-2.80467e-10
1.11663e-17
2.67723e-11
-2.83358e-10
1.08166e-17
2.6263e-11
-2.85039e-10
1.34066e-17
2.55166e-11
-2.85142e-10
1.53534e-17
2.45271e-11
-2.8373e-10
1.97274e-17
2.32932e-11
-2.80574e-10
2.32522e-17
2.18177e-11
-2.75574e-10
2.48289e-17
2.01076e-11
-2.68634e-10
2.64948e-17
1.81765e-11
-2.59428e-10
2.63279e-17
1.60434e-11
-2.47774e-10
2.67318e-17
1.37348e-11
-2.33355e-10
2.54944e-17
1.12864e-11
-2.15654e-10
2.377e-17
8.74584e-12
-1.9399e-10
2.10965e-17
6.17622e-12
-1.6738e-10
1.69805e-17
3.67751e-12
-1.34192e-10
1.2345e-17
1.41741e-12
-9.18876e-11
5.81351e-18
-3.62041e-11
-1.94078e-18
2.43012e-11
-2.32797e-10
4.34407e-17
2.51894e-11
-2.41854e-10
4.17402e-17
2.59607e-11
-2.5035e-10
3.99207e-17
2.6596e-11
-2.58117e-10
3.1648e-17
2.7076e-11
-2.65186e-10
2.2234e-17
2.73827e-11
-2.71273e-10
1.45238e-17
2.74986e-11
-2.76413e-10
8.30509e-18
2.74082e-11
-2.80377e-10
7.54217e-18
2.7098e-11
-2.83048e-10
7.73103e-18
2.65561e-11
-2.84497e-10
1.10937e-17
2.5775e-11
-2.8436e-10
1.41177e-17
2.47491e-11
-2.82704e-10
1.95614e-17
2.34776e-11
-2.79303e-10
2.39963e-17
2.19638e-11
-2.7406e-10
2.60692e-17
2.0215e-11
-2.66885e-10
2.81111e-17
1.82453e-11
-2.57458e-10
2.77194e-17
1.6074e-11
-2.45603e-10
2.77695e-17
1.37281e-11
-2.31009e-10
2.59253e-17
1.12435e-11
-2.13169e-10
2.35123e-17
8.66924e-12
-1.91416e-10
2.04095e-17
6.07134e-12
-1.64782e-10
1.58256e-17
3.55831e-12
-1.31679e-10
1.11342e-17
1.32979e-12
-8.96592e-11
4.39683e-18
-3.48745e-11
-3.30725e-18
2.48646e-11
-2.33783e-10
5.1158e-17
2.57484e-11
-2.42738e-10
4.68863e-17
2.65105e-11
-2.51112e-10
4.28476e-17
2.71318e-11
-2.58738e-10
3.24931e-17
2.7593e-11
-2.65647e-10
2.11316e-17
2.78763e-11
-2.71556e-10
1.22379e-17
2.79642e-11
-2.76501e-10
5.01791e-18
2.78418e-11
-2.80254e-10
4.44594e-18
2.74958e-11
-2.82702e-10
4.90527e-18
2.69149e-11
-2.83917e-10
9.21421e-18
2.6092e-11
-2.83538e-10
1.26654e-17
2.50223e-11
-2.81635e-10
1.99438e-17
2.37055e-11
-2.77986e-10
2.54808e-17
2.21455e-11
-2.725e-10
2.77879e-17
2.03502e-11
-2.6509e-10
2.99124e-17
1.83341e-11
-2.55442e-10
2.89115e-17
1.61173e-11
-2.43386e-10
2.84668e-17
1.37271e-11
-2.28618e-10
2.5913e-17
1.12006e-11
-2.10643e-10
2.30354e-17
8.58839e-12
-1.88804e-10
1.96242e-17
5.96121e-12
-1.62155e-10
1.4916e-17
3.43779e-12
-1.29156e-10
1.03682e-17
1.24652e-12
-8.74682e-11
3.74806e-18
-3.36281e-11
-4.062e-18
2.55211e-11
-2.34769e-10
5.89674e-17
2.64002e-11
-2.43617e-10
5.13496e-17
2.71521e-11
-2.51864e-10
4.52791e-17
2.77576e-11
-2.59344e-10
3.25943e-17
2.81973e-11
-2.66087e-10
1.93872e-17
2.84535e-11
-2.71813e-10
9.30979e-18
2.85092e-11
-2.76557e-10
1.39917e-18
2.83497e-11
-2.80095e-10
1.13382e-18
2.79623e-11
-2.82314e-10
1.98074e-18
2.73362e-11
-2.83291e-10
7.08041e-18
2.64651e-11
-2.82666e-10
1.16223e-17
2.53446e-11
-2.80514e-10
1.97889e-17
2.39753e-11
-2.76616e-10
2.60518e-17
2.23618e-11
-2.70886e-10
2.8689e-17
2.05127e-11
-2.63241e-10
3.10297e-17
1.84432e-11
-2.53372e-10
2.98271e-17
1.61742e-11
-2.41117e-10
2.90982e-17
1.37337e-11
-2.26178e-10
2.60208e-17
1.11604e-11
-2.0807e-10
2.26005e-17
8.50733e-12
-1.86151e-10
1.88612e-17
5.85079e-12
-1.59499e-10
1.38731e-17
3.32066e-12
-1.26626e-10
9.37846e-18
1.16952e-12
-8.53173e-11
2.66449e-18
-3.24589e-11
-5.01391e-18
2.62671e-11
-2.35757e-10
6.54157e-17
2.71413e-11
-2.4449e-10
5.50802e-17
2.78818e-11
-2.52604e-10
4.66288e-17
2.84695e-11
-2.59931e-10
3.2065e-17
2.8885e-11
-2.66503e-10
1.70747e-17
2.91108e-11
-2.72039e-10
6.27064e-18
2.91301e-11
-2.76577e-10
-2.17176e-18
2.89287e-11
-2.79894e-10
-1.97758e-18
2.84945e-11
-2.8188e-10
-5.77945e-19
2.78173e-11
-2.82614e-10
5.35011e-18
2.68915e-11
-2.81741e-10
9.99808e-18
2.57136e-11
-2.79336e-10
1.96341e-17
2.42851e-11
-2.75188e-10
2.67373e-17
2.26113e-11
-2.69212e-10
2.96245e-17
2.07018e-11
-2.61331e-10
3.22495e-17
1.85725e-11
-2.51243e-10
3.06214e-17
1.62453e-11
-2.3879e-10
2.94885e-17
1.37495e-11
-2.23682e-10
2.58212e-17
1.11255e-11
-2.05446e-10
2.19671e-17
8.42938e-12
-1.83455e-10
1.80351e-17
5.7439e-12
-1.56814e-10
1.29918e-17
3.21011e-12
-1.24092e-10
8.74105e-18
1.09989e-12
-8.32073e-11
2.16626e-18
-3.13592e-11
-5.50438e-18
2.70994e-11
-2.36745e-10
7.04952e-17
2.79681e-11
-2.45359e-10
5.75477e-17
2.86961e-11
-2.53332e-10
4.73173e-17
2.9264e-11
-2.60499e-10
3.07688e-17
2.96526e-11
-2.66892e-10
1.43907e-17
2.98446e-11
-2.72231e-10
2.95336e-18
2.98234e-11
-2.76556e-10
-5.72332e-18
2.95755e-11
-2.79646e-10
-4.94194e-18
2.90892e-11
-2.81394e-10
-3.07455e-18
2.83552e-11
-2.8188e-10
3.55527e-18
2.73688e-11
-2.80754e-10
9.25652e-18
2.61273e-11
-2.78095e-10
1.95001e-17
2.46332e-11
-2.73694e-10
2.71703e-17
2.28929e-11
-2.67472e-10
3.02743e-17
2.09167e-11
-2.59355e-10
3.30139e-17
1.87219e-11
-2.49048e-10
3.12016e-17
1.63313e-11
-2.36399e-10
2.98053e-17
1.37757e-11
-2.21127e-10
2.57058e-17
1.10977e-11
-2.02768e-10
2.14436e-17
8.35712e-12
-1.80715e-10
1.73406e-17
5.64331e-12
-1.541e-10
1.22089e-17
3.10811e-12
-1.21557e-10
8.14153e-18
1.03789e-12
-8.11374e-11
1.60112e-18
-3.03216e-11
-5.91002e-18
2.80148e-11
-2.37736e-10
7.36015e-17
2.88775e-11
-2.46221e-10
5.93196e-17
2.95916e-11
-2.54046e-10
4.70746e-17
3.01378e-11
-2.61045e-10
2.90904e-17
3.04968e-11
-2.67251e-10
1.12686e-17
3.06515e-11
-2.72385e-10
-4.03666e-19
3.05858e-11
-2.76491e-10
-9.20379e-18
3.02867e-11
-2.79347e-10
-7.70826e-18
2.97434e-11
-2.80851e-10
-5.13471e-18
2.89471e-11
-2.81084e-10
2.23011e-18
2.78944e-11
-2.79701e-10
7.82252e-18
2.65834e-11
-2.76784e-10
1.93637e-17
2.50178e-11
-2.72128e-10
2.7581e-17
2.3205e-11
-2.65659e-10
3.07469e-17
2.11566e-11
-2.57306e-10
3.36987e-17
1.8891e-11
-2.46782e-10
3.1466e-17
1.64324e-11
-2.3394e-10
2.96938e-17
1.38133e-11
-2.18508e-10
2.51464e-17
1.10787e-11
-2.00033e-10
2.05919e-17
8.29253e-12
-1.77929e-10
1.65052e-17
5.55099e-12
-1.51359e-10
1.1489e-17
3.01575e-12
-1.19022e-10
7.80283e-18
9.83423e-13
-7.91053e-11
1.45403e-18
-2.93384e-11
-5.95573e-18
2.90107e-11
-2.38728e-10
7.59359e-17
2.98666e-11
-2.47077e-10
6.01202e-17
3.05654e-11
-2.54745e-10
4.65561e-17
3.10878e-11
-2.61567e-10
2.69244e-17
3.14143e-11
-2.67578e-10
8.06904e-18
3.15283e-11
-2.725e-10
-3.83013e-18
3.14142e-11
-2.76377e-10
-1.24883e-17
3.10594e-11
-2.78993e-10
-1.01908e-17
3.0454e-11
-2.80245e-10
-7.05928e-18
2.95904e-11
-2.80221e-10
8.81927e-19
2.84658e-11
-2.78577e-10
7.43188e-18
2.70798e-11
-2.75398e-10
1.94001e-17
2.54371e-11
-2.70485e-10
2.7983e-17
2.35464e-11
-2.63768e-10
3.11783e-17
2.14206e-11
-2.5518e-10
3.40675e-17
1.90795e-11
-2.4444e-10
3.15707e-17
1.65487e-11
-2.31409e-10
2.94914e-17
1.38629e-11
-2.15822e-10
2.46107e-17
1.10696e-11
-1.9724e-10
1.98247e-17
8.23705e-12
-1.75096e-10
1.58197e-17
5.4682e-12
-1.4859e-10
1.09781e-17
2.9335e-12
-1.16488e-10
7.66074e-18
9.3612e-13
-7.71083e-11
1.47369e-18
-2.84026e-11
-5.74335e-18
3.00846e-11
-2.39721e-10
7.72641e-17
3.09327e-11
-2.47925e-10
6.09637e-17
3.16147e-11
-2.55427e-10
4.55663e-17
3.21108e-11
-2.62063e-10
2.48112e-17
3.2402e-11
-2.67869e-10
4.7215e-18
3.24719e-11
-2.7257e-10
-7.06941e-18
3.23052e-11
-2.76211e-10
-1.55647e-17
3.18904e-11
-2.78578e-10
-1.23992e-17
3.12182e-11
-2.79573e-10
-8.472e-18
3.0282e-11
-2.79285e-10
7.6407e-20
2.90804e-11
-2.77375e-10
6.36154e-18
2.7614e-11
-2.73931e-10
1.95833e-17
2.5889e-11
-2.6876e-10
2.84186e-17
2.39155e-11
-2.61794e-10
3.13477e-17
2.17076e-11
-2.52972e-10
3.41989e-17
1.92866e-11
-2.42019e-10
3.1154e-17
1.66802e-11
-2.28803e-10
2.86753e-17
1.39248e-11
-2.13067e-10
2.3522e-17
1.10711e-11
-1.94387e-10
1.86993e-17
8.19161e-12
-1.72217e-10
1.50392e-17
5.3957e-12
-1.45795e-10
1.0617e-17
2.8614e-12
-1.13954e-10
7.88986e-18
8.95482e-13
-7.51426e-11
2.00719e-18
-2.75074e-11
-5.06146e-18
3.12342e-11
-2.40714e-10
7.93011e-17
3.20734e-11
-2.48764e-10
6.15075e-17
3.27366e-11
-2.56091e-10
4.48737e-17
3.32041e-11
-2.6253e-10
2.256e-17
3.34569e-11
-2.68122e-10
1.60682e-18
3.34791e-11
-2.72592e-10
-1.01882e-17
3.3256e-11
-2.75988e-10
-1.83044e-17
3.27766e-11
-2.78099e-10
-1.42192e-17
3.2033e-11
-2.7883e-10
-9.70173e-18
3.10193e-11
-2.78272e-10
-7.27262e-19
2.97355e-11
-2.76091e-10
6.4121e-18
2.81838e-11
-2.7238e-10
1.99755e-17
2.63716e-11
-2.66948e-10
2.88919e-17
2.43105e-11
-2.59732e-10
3.15415e-17
2.20162e-11
-2.50678e-10
3.4e-17
1.95117e-11
-2.39515e-10
3.05172e-17
1.68264e-11
-2.26118e-10
2.76619e-17
1.39991e-11
-2.10239e-10
2.23313e-17
1.10837e-11
-1.91471e-10
1.75603e-17
8.15676e-12
-1.6929e-10
1.43624e-17
5.33379e-12
-1.42972e-10
1.04833e-17
2.79919e-12
-1.1142e-10
8.38798e-18
8.60931e-13
-7.32046e-11
2.8278e-18
-2.66467e-11
-4.04155e-18
3.24576e-11
-2.41708e-10
8.15238e-17
3.32863e-11
-2.49592e-10
6.28291e-17
3.39287e-11
-2.56733e-10
4.40663e-17
3.4365e-11
-2.62966e-10
2.06798e-17
3.45762e-11
-2.68334e-10
-1.47063e-18
3.45471e-11
-2.72563e-10
-1.29685e-17
3.42633e-11
-2.75705e-10
-2.07435e-17
3.37151e-11
-2.77551e-10
-1.57127e-17
3.28952e-11
-2.7801e-10
-1.03526e-17
3.17993e-11
-2.77176e-10
-9.21284e-19
3.04286e-11
-2.7472e-10
5.83693e-18
2.87867e-11
-2.70738e-10
2.06353e-17
2.68827e-11
-2.65043e-10
2.94057e-17
2.47297e-11
-2.57579e-10
3.12881e-17
2.23451e-11
-2.48293e-10
3.32994e-17
1.97537e-11
-2.36923e-10
2.90679e-17
1.69869e-11
-2.23351e-10
2.58012e-17
1.40858e-11
-2.07338e-10
2.04605e-17
1.11074e-11
-1.88493e-10
1.60506e-17
8.13268e-12
-1.66316e-10
1.36594e-17
5.28247e-12
-1.40122e-10
1.06142e-17
2.74642e-12
-1.08884e-10
9.37289e-18
8.31868e-13
-7.12903e-11
4.26946e-18
-2.5815e-11
-2.44656e-18
3.37527e-11
-2.427e-10
8.53496e-17
3.45694e-11
-2.50409e-10
6.41503e-17
3.51887e-11
-2.57352e-10
4.38031e-17
3.55908e-11
-2.63368e-10
1.87449e-17
3.57571e-11
-2.68501e-10
-4.21243e-18
3.56728e-11
-2.72479e-10
-1.55942e-17
3.53243e-11
-2.75357e-10
-2.28045e-17
3.47026e-11
-2.7693e-10
-1.67754e-17
3.3802e-11
-2.77109e-10
-1.0795e-17
3.26191e-11
-2.75993e-10
-1.07623e-18
3.11568e-11
-2.73258e-10
6.43298e-18
2.94202e-11
-2.69001e-10
2.14935e-17
2.742e-11
-2.63043e-10
2.98823e-17
2.51712e-11
-2.5533e-10
3.09936e-17
2.26928e-11
-2.45814e-10
3.21243e-17
2.00115e-11
-2.34242e-10
2.72338e-17
1.71608e-11
-2.205e-10
2.35702e-17
1.41843e-11
-2.04362e-10
1.83312e-17
1.11422e-11
-1.85451e-10
1.44148e-17
8.11927e-12
-1.63293e-10
1.29938e-17
5.24145e-12
-1.37244e-10
1.09517e-17
2.70248e-12
-1.06345e-10
1.06327e-17
8.07699e-13
-6.93957e-11
6.02703e-18
-2.50074e-11
-5.08366e-19
3.5118e-11
-2.43689e-10
8.93782e-17
3.59206e-11
-2.51211e-10
6.62554e-17
3.65141e-11
-2.57946e-10
4.3309e-17
3.6879e-11
-2.63733e-10
1.71186e-17
3.69969e-11
-2.68619e-10
-7.02505e-18
3.68533e-11
-2.72336e-10
-1.79437e-17
3.64358e-11
-2.7494e-10
-2.46054e-17
3.57362e-11
-2.7623e-10
-1.75287e-17
3.47502e-11
-2.76123e-10
-1.06097e-17
3.34757e-11
-2.74719e-10
-5.41795e-19
3.19172e-11
-2.71699e-10
6.5087e-18
3.00817e-11
-2.67165e-10
2.27174e-17
2.79813e-11
-2.60942e-10
3.03383e-17
2.56329e-11
-2.52981e-10
2.99696e-17
2.30575e-11
-2.43239e-10
3.00927e-17
2.02837e-11
-2.31468e-10
2.42353e-17
1.73472e-11
-2.17563e-10
2.02433e-17
1.4294e-11
-2.01309e-10
1.54053e-17
1.11874e-11
-1.82345e-10
1.24037e-17
8.11616e-12
-1.60222e-10
1.23592e-17
5.21026e-12
-1.34339e-10
1.16352e-17
2.6667e-12
-1.03802e-10
1.24538e-17
7.8786e-13
-6.7517e-11
8.45693e-18
-2.42197e-11
2.03861e-18
3.65519e-11
-2.44674e-10
9.45712e-17
3.7338e-11
-2.51997e-10
6.78825e-17
3.79029e-11
-2.58511e-10
4.3034e-17
3.82272e-11
-2.64057e-10
1.50659e-17
3.82927e-11
-2.68685e-10
-9.74945e-18
3.80858e-11
-2.72129e-10
-2.03484e-17
3.75948e-11
-2.74449e-10
-2.61355e-17
3.68128e-11
-2.75449e-10
-1.78706e-17
3.57367e-11
-2.75047e-10
-1.02005e-17
3.43661e-11
-2.73349e-10
9.61728e-20
3.27071e-11
-2.7004e-10
7.8079e-18
3.07683e-11
-2.65226e-10
2.40994e-17
2.8564e-11
-2.58738e-10
3.05903e-17
2.61128e-11
-2.5053e-10
2.87369e-17
2.34375e-11
-2.40564e-10
2.73711e-17
2.0569e-11
-2.28599e-10
2.066e-17
1.7545e-11
-2.14539e-10
1.63804e-17
1.44141e-11
-1.98179e-10
1.20958e-17
1.12427e-11
-1.79174e-10
1.01869e-17
8.12279e-12
-1.57103e-10
1.17114e-17
5.18826e-12
-1.31405e-10
1.24918e-17
2.63836e-12
-1.01252e-10
1.4518e-17
7.71821e-13
-6.56506e-11
1.11775e-17
-2.34478e-11
4.87312e-18
3.80529e-11
-2.45652e-10
9.87763e-17
3.88199e-11
-2.52763e-10
6.96414e-17
3.9353e-11
-2.59044e-10
4.1801e-17
3.96329e-11
-2.64337e-10
1.27774e-17
3.9642e-11
-2.68695e-10
-1.30081e-17
3.93674e-11
-2.71855e-10
-2.27859e-17
3.87983e-11
-2.73881e-10
-2.75823e-17
3.79293e-11
-2.7458e-10
-1.79709e-17
3.67585e-11
-2.73876e-10
-9.11862e-18
3.52872e-11
-2.71877e-10
1.52733e-18
3.35234e-11
-2.68276e-10
8.73591e-18
3.14775e-11
-2.6318e-10
2.59105e-17
2.91656e-11
-2.56426e-10
3.07203e-17
2.66085e-11
-2.47972e-10
2.64649e-17
2.38308e-11
-2.37786e-10
2.3461e-17
2.08657e-11
-2.25634e-10
1.562e-17
1.77529e-11
-2.11427e-10
1.12492e-17
1.45437e-11
-1.9497e-10
7.93091e-18
1.13071e-11
-1.75938e-10
7.62564e-18
8.13843e-12
-1.53934e-10
1.11526e-17
5.17472e-12
-1.28441e-10
1.3738e-17
2.61672e-12
-9.86939e-11
1.71473e-17
7.59093e-13
-6.37929e-11
1.45555e-17
-2.26887e-11
8.29861e-18
3.96197e-11
-2.46622e-10
1.02707e-16
4.03645e-11
-2.53508e-10
6.96917e-17
4.08621e-11
-2.59542e-10
3.993e-17
4.10937e-11
-2.64569e-10
9.25781e-18
4.1042e-11
-2.68644e-10
-1.67456e-17
4.06951e-11
-2.71508e-10
-2.57093e-17
4.00433e-11
-2.73229e-10
-2.89729e-17
3.90824e-11
-2.73619e-10
-1.77271e-17
3.78123e-11
-2.72606e-10
-7.78511e-18
3.62359e-11
-2.70301e-10
3.152e-18
3.43631e-11
-2.66403e-10
1.09092e-17
3.22062e-11
-2.61023e-10
2.77827e-17
2.97835e-11
-2.54003e-10
3.04217e-17
2.71176e-11
-2.45306e-10
2.37918e-17
2.42354e-11
-2.34904e-10
1.86691e-17
2.11719e-11
-2.22571e-10
9.89165e-18
1.79694e-11
-2.08225e-10
5.51469e-18
1.46814e-11
-1.91682e-10
3.34675e-18
1.13796e-11
-1.72636e-10
4.8344e-18
8.16223e-12
-1.50717e-10
1.05453e-17
5.16882e-12
-1.25448e-10
1.51101e-17
2.60103e-12
-9.61262e-11
1.99568e-17
7.49232e-13
-6.19411e-11
1.8159e-17
-2.19393e-11
1.19229e-17
4.1251e-11
-2.47579e-10
1.03622e-16
4.19701e-11
-2.54227e-10
6.86878e-17
4.24284e-11
-2.6e-10
3.59793e-17
4.26072e-11
-2.64748e-10
4.64492e-18
4.24901e-11
-2.68527e-10
-2.17051e-17
4.2066e-11
-2.71084e-10
-2.91136e-17
4.13265e-11
-2.7249e-10
-3.0521e-17
4.02689e-11
-2.72562e-10
-1.73265e-17
3.88948e-11
-2.71231e-10
-5.75071e-18
3.72088e-11
-2.68615e-10
5.65268e-18
3.52229e-11
-2.64417e-10
1.285e-17
3.29515e-11
-2.58751e-10
3.00552e-17
3.04148e-11
-2.51466e-10
2.98863e-17
2.76377e-11
-2.42529e-10
1.98684e-17
2.4649e-11
-2.31915e-10
1.25077e-17
2.1486e-11
-2.19408e-10
2.60734e-18
1.81931e-11
-2.04932e-10
-1.45915e-18
1.48261e-11
-1.88316e-10
-2.00017e-18
1.14592e-11
-1.6927e-10
1.80015e-18
8.19321e-12
-1.47452e-10
1.00899e-17
5.16969e-12
-1.22425e-10
1.68758e-17
2.59057e-12
-9.35471e-11
2.32786e-17
7.4183e-13
-6.00922e-11
2.23333e-17
-2.11972e-11
1.60407e-17
4.29456e-11
-2.48521e-10
1.02822e-16
4.36351e-11
-2.54916e-10
6.45661e-17
4.40496e-11
-2.60415e-10
3.03767e-17
4.4171e-11
-2.64869e-10
-2.16143e-18
4.39834e-11
-2.6834e-10
-2.77707e-17
4.34771e-11
-2.70578e-10
-3.34559e-17
4.26448e-11
-2.71659e-10
-3.22265e-17
4.14855e-11
-2.71402e-10
-1.66621e-17
4.00026e-11
-2.69748e-10
-3.47613e-18
3.82026e-11
-2.66815e-10
8.3711e-18
3.60997e-11
-2.62313e-10
1.59243e-17
3.37103e-11
-2.56361e-10
3.21792e-17
3.10567e-11
-2.48812e-10
2.86887e-17
2.81661e-11
-2.39638e-10
1.5485e-17
2.50693e-11
-2.28818e-10
5.49208e-18
2.18058e-11
-2.16145e-10
-5.25762e-18
1.84221e-11
-2.01549e-10
-8.89623e-18
1.49762e-11
-1.8487e-10
-7.65208e-18
1.15446e-11
-1.65839e-10
-1.40332e-18
8.23032e-12
-1.44138e-10
9.57217e-18
5.1764e-12
-1.19371e-10
1.86863e-17
2.58462e-12
-9.09552e-11
2.66672e-17
7.36521e-13
-5.82438e-11
2.65994e-17
-2.04603e-11
2.01962e-17
4.47022e-11
-2.49443e-10
9.74598e-17
4.53578e-11
-2.55571e-10
5.84929e-17
4.57237e-11
-2.60781e-10
2.1697e-17
4.57825e-11
-2.64928e-10
-1.07738e-17
4.55192e-11
-2.68078e-10
-3.5594e-17
4.49252e-11
-2.69984e-10
-3.86001e-17
4.39948e-11
-2.70729e-10
-3.42695e-17
4.27287e-11
-2.70136e-10
-1.59597e-17
4.11322e-11
-2.68151e-10
-5.99738e-19
3.92139e-11
-2.64897e-10
1.18658e-17
3.699e-11
-2.60089e-10
1.87357e-17
3.44793e-11
-2.5385e-10
3.44838e-17
3.17063e-11
-2.46039e-10
2.71458e-17
2.87001e-11
-2.36631e-10
9.84362e-18
2.54939e-11
-2.25613e-10
-2.71772e-18
2.21292e-11
-2.1278e-10
-1.43903e-17
1.86546e-11
-1.98075e-10
-1.72437e-17
1.51303e-11
-1.81347e-10
-1.37739e-17
1.16346e-11
-1.62344e-10
-4.65323e-18
8.27246e-12
-1.40776e-10
9.27606e-18
5.18804e-12
-1.16287e-10
2.08513e-17
2.58248e-12
-8.83495e-11
3.04443e-17
7.32972e-13
-5.63939e-11
3.12416e-17
-1.97268e-11
2.46951e-17
4.65197e-11
-2.50343e-10
8.99318e-17
4.71364e-11
-2.56188e-10
4.85359e-17
4.74485e-11
-2.61094e-10
1.0953e-17
4.74392e-11
-2.64919e-10
-2.20406e-17
4.70945e-11
-2.67734e-10
-4.47176e-17
4.64073e-11
-2.69297e-10
-4.48496e-17
4.53732e-11
-2.69695e-10
-3.65919e-17
4.39951e-11
-2.68758e-10
-1.51604e-17
4.22801e-11
-2.66436e-10
2.29428e-18
4.0239e-11
-2.62856e-10
1.53252e-17
3.78905e-11
-2.5774e-10
2.22568e-17
3.52553e-11
-2.51215e-10
3.62436e-17
3.23603e-11
-2.43143e-10
2.47708e-17
2.92369e-11
-2.33508e-10
3.87182e-18
2.59203e-11
-2.22296e-10
-1.14295e-17
2.24541e-11
-2.09315e-10
-2.36575e-17
1.88889e-11
-1.9451e-10
-2.56416e-17
1.52866e-11
-1.77745e-10
-1.99031e-17
1.17277e-11
-1.58785e-10
-7.92961e-18
8.31846e-12
-1.37367e-10
8.92786e-18
5.20365e-12
-1.13172e-10
2.2958e-17
2.58348e-12
-8.57291e-11
3.4136e-17
7.30884e-13
-5.45409e-11
3.57881e-17
-1.89953e-11
2.90498e-17
4.83967e-11
-2.51214e-10
7.74211e-17
4.89692e-11
-2.56761e-10
3.68572e-17
4.92217e-11
-2.61347e-10
-2.91027e-18
4.91384e-11
-2.64836e-10
-3.48669e-17
4.87063e-11
-2.67302e-10
-5.54262e-17
4.79198e-11
-2.68511e-10
-5.17681e-17
4.67764e-11
-2.68552e-10
-3.93262e-17
4.52808e-11
-2.67263e-10
-1.45885e-17
4.34425e-11
-2.64597e-10
5.34442e-18
4.12744e-11
-2.60687e-10
1.9043e-17
3.87974e-11
-2.55262e-10
2.51516e-17
3.60349e-11
-2.48451e-10
3.76944e-17
3.30157e-11
-2.40124e-10
2.2011e-17
2.97737e-11
-2.30266e-10
-3.04164e-18
2.63459e-11
-2.18869e-10
-2.07501e-17
2.27782e-11
-2.05747e-10
-3.35063e-17
1.91228e-11
-1.90856e-10
-3.42975e-17
1.54437e-11
-1.74067e-10
-2.60019e-17
1.18226e-11
-1.55165e-10
-1.09631e-17
8.36712e-12
-1.33912e-10
8.88328e-18
5.22228e-12
-1.10027e-10
2.53358e-17
2.58698e-12
-8.30935e-11
3.80233e-17
7.29982e-13
-5.26833e-11
4.049e-17
-1.82646e-11
3.35459e-17
5.03318e-11
-2.52051e-10
6.38534e-17
5.08544e-11
-2.57283e-10
2.17858e-17
5.10411e-11
-2.61534e-10
-1.77553e-17
5.08773e-11
-2.64672e-10
-4.95086e-17
5.03514e-11
-2.66777e-10
-6.66592e-17
4.94594e-11
-2.67619e-10
-5.93896e-17
4.82007e-11
-2.67294e-10
-4.23598e-17
4.65821e-11
-2.65644e-10
-1.43106e-17
4.46155e-11
-2.6263e-10
7.77342e-18
4.2316e-11
-2.58388e-10
2.20095e-17
3.97072e-11
-2.52653e-10
2.79186e-17
3.68144e-11
-2.45558e-10
3.80524e-17
3.36692e-11
-2.36979e-10
1.83108e-17
3.03073e-11
-2.26904e-10
-9.88473e-18
2.6768e-11
-2.1533e-10
-2.98979e-17
2.3099e-11
-2.02079e-10
-4.27577e-17
1.93544e-11
-1.87112e-10
-4.23778e-17
1.55995e-11
-1.70313e-10
-3.16765e-17
1.19177e-11
-1.51484e-10
-1.38056e-17
8.41722e-12
-1.30412e-10
8.80654e-18
5.243e-12
-1.06853e-10
2.75307e-17
2.59235e-12
-8.04425e-11
4.16507e-17
7.30017e-13
-5.08204e-11
4.49283e-17
-1.75338e-11
3.77373e-17
5.23237e-11
-2.52849e-10
4.75786e-17
5.27898e-11
-2.57749e-10
6.96405e-18
5.2904e-11
-2.61649e-10
-3.41374e-17
5.2653e-11
-2.64421e-10
-6.38932e-17
5.20264e-11
-2.66152e-10
-7.82446e-17
5.10224e-11
-2.66616e-10
-6.69586e-17
4.96422e-11
-2.65914e-10
-4.58096e-17
4.78951e-11
-2.63897e-10
-1.47699e-17
4.57952e-11
-2.6053e-10
9.46908e-18
4.33601e-11
-2.55952e-10
2.42468e-17
4.06159e-11
-2.49908e-10
2.93648e-17
3.75904e-11
-2.42532e-10
3.74446e-17
3.43173e-11
-2.33705e-10
1.42359e-17
3.08347e-11
-2.23421e-10
-1.7134e-17
2.71838e-11
-2.1168e-10
-3.87783e-17
2.34141e-11
-1.9831e-10
-5.16399e-17
1.95814e-11
-1.8328e-10
-4.9863e-17
1.57525e-11
-1.66485e-10
-3.67064e-17
1.20116e-11
-1.47744e-10
-1.60663e-17
8.46753e-12
-1.26868e-10
9.13062e-18
5.26486e-12
-1.0365e-10
2.99027e-17
2.59901e-12
-7.77762e-11
4.52487e-17
7.30759e-13
-4.89514e-11
4.92429e-17
-1.68022e-11
4.18303e-17
5.43708e-11
-2.536e-10
3.29013e-17
5.47733e-11
-2.58152e-10
-8.66146e-18
5.48077e-11
-2.61684e-10
-4.87004e-17
5.44621e-11
-2.64076e-10
-7.77997e-17
5.37278e-11
-2.65419e-10
-8.8626e-17
5.26049e-11
-2.65493e-10
-7.43375e-17
5.1097e-11
-2.64407e-10
-4.95392e-17
4.92155e-11
-2.62015e-10
-1.61266e-17
4.69774e-11
-2.58291e-10
9.58918e-18
4.44025e-11
-2.53377e-10
2.47278e-17
4.15197e-11
-2.47024e-10
2.96173e-17
3.8359e-11
-2.39371e-10
3.51072e-17
3.49567e-11
-2.30303e-10
9.26904e-18
3.13528e-11
-2.19817e-10
-2.38102e-17
2.75905e-11
-2.07918e-10
-4.67147e-17
2.37211e-11
-1.94442e-10
-5.91373e-17
1.98018e-11
-1.79362e-10
-5.61206e-17
1.59006e-11
-1.62585e-10
-4.08559e-17
1.21026e-11
-1.43946e-10
-1.79099e-17
8.5168e-12
-1.23283e-10
9.46275e-18
5.28695e-12
-1.0042e-10
3.19873e-17
2.60637e-12
-7.50951e-11
4.84203e-17
7.31995e-13
-4.70762e-11
5.30923e-17
-1.60692e-11
4.54341e-17
5.64713e-11
-2.54298e-10
1.81985e-17
5.68026e-11
-2.58484e-10
-2.08663e-17
5.67494e-11
-2.61632e-10
-6.17916e-17
5.63015e-11
-2.63629e-10
-8.86302e-17
5.54519e-11
-2.6457e-10
-9.75464e-17
5.4203e-11
-2.64245e-10
-8.06826e-17
5.25607e-11
-2.62765e-10
-5.3668e-17
5.0539e-11
-2.59993e-10
-1.881e-17
4.81576e-11
-2.55909e-10
7.98199e-18
4.5439e-11
-2.50658e-10
2.34537e-17
4.24144e-11
-2.43999e-10
2.79059e-17
3.91165e-11
-2.36072e-10
3.12302e-17
3.55837e-11
-2.2677e-10
3.94115e-18
3.18582e-11
-2.16092e-10
-3.03321e-17
2.79851e-11
-2.04046e-10
-5.35413e-17
2.40173e-11
-1.90475e-10
-6.53472e-17
2.00133e-11
-1.75359e-10
-6.0975e-17
1.60421e-11
-1.58615e-10
-4.37769e-17
1.21893e-11
-1.40094e-10
-1.88402e-17
8.56381e-12
-1.19658e-10
1.0291e-17
5.30835e-12
-9.71647e-11
3.41665e-17
2.6139e-12
-7.24001e-11
5.13606e-17
7.33526e-13
-4.5195e-11
5.65133e-17
-1.53347e-11
4.86978e-17
5.79873e-11
-2.50147e-10
2.52365e-17
5.86234e-11
-2.54935e-10
9.70316e-18
5.8875e-11
-2.58736e-10
-3.10612e-17
5.87259e-11
-2.61484e-10
-7.00194e-17
5.81674e-11
-2.63071e-10
-9.65518e-17
5.71946e-11
-2.63599e-10
-1.03566e-16
5.58122e-11
-2.62863e-10
-8.59992e-17
5.40288e-11
-2.60982e-10
-5.80344e-17
5.18612e-11
-2.57825e-10
-2.28887e-17
4.93316e-11
-2.53378e-10
4.11784e-18
4.64651e-11
-2.47791e-10
1.96521e-17
4.32958e-11
-2.40829e-10
2.41372e-17
3.98588e-11
-2.32635e-10
2.53557e-17
3.61947e-11
-2.23106e-10
-2.19169e-18
3.23477e-11
-2.12245e-10
-3.59079e-17
2.83648e-11
-2.00064e-10
-5.88749e-17
2.43002e-11
-1.86411e-10
-6.96481e-17
2.02137e-11
-1.71273e-10
-6.41619e-17
1.6175e-11
-1.54577e-10
-4.55146e-17
1.227e-11
-1.3619e-10
-1.91812e-17
8.60732e-12
-1.15996e-10
1.1178e-17
5.32819e-12
-9.38855e-11
3.60134e-17
2.62105e-12
-6.96924e-11
5.37826e-17
7.35164e-13
-4.33082e-11
5.93312e-17
-1.45985e-11
5.13442e-17
5.93113e-11
-2.45738e-10
2.39562e-17
6.0259e-11
-2.51095e-10
2.46244e-17
6.08245e-11
-2.55501e-10
3.37048e-18
6.09877e-11
-2.589e-10
-3.5741e-17
6.07337e-11
-2.61231e-10
-7.47783e-17
6.00559e-11
-2.62393e-10
-9.96221e-17
5.89516e-11
-2.62495e-10
-1.07003e-16
5.74282e-11
-2.6134e-10
-8.97088e-17
5.54968e-11
-2.59051e-10
-6.27354e-17
5.31772e-11
-2.55506e-10
-2.84931e-17
5.04944e-11
-2.50695e-10
-1.96657e-18
4.74763e-11
-2.44773e-10
1.35918e-17
4.41597e-11
-2.37511e-10
1.82522e-17
4.05819e-11
-2.29057e-10
1.77776e-17
3.67859e-11
-2.19309e-10
-8.57264e-18
3.2818e-11
-2.08277e-10
-4.09662e-17
2.87265e-11
-1.95973e-10
-6.26097e-17
2.45671e-11
-1.82253e-10
-7.21103e-17
2.04007e-11
-1.67108e-10
-6.54342e-17
1.62974e-11
-1.50475e-10
-4.56265e-17
1.23433e-11
-1.32237e-10
-1.83662e-17
8.64612e-12
-1.12299e-10
1.26506e-17
5.34558e-12
-9.05848e-11
3.79158e-17
2.62732e-12
-6.69736e-11
5.58305e-17
7.36729e-13
-4.14167e-11
6.15077e-17
-1.38607e-11
5.34468e-17
6.16993e-11
-2.47001e-10
3.31175e-17
6.25867e-11
-2.51982e-10
2.42787e-17
6.30723e-11
-2.55987e-10
1.81422e-18
6.31375e-11
-2.58965e-10
-3.76071e-17
6.27691e-11
-2.60864e-10
-7.36934e-17
6.19628e-11
-2.61588e-10
-9.92319e-17
6.07183e-11
-2.61252e-10
-1.07185e-16
5.9046e-11
-2.59668e-10
-9.22122e-17
5.69597e-11
-2.56965e-10
-6.75691e-17
5.44821e-11
-2.53028e-10
-3.54559e-17
5.16414e-11
-2.47854e-10
-1.0216e-17
4.8468e-11
-2.41599e-10
5.15909e-18
4.50015e-11
-2.34044e-10
1.01976e-17
4.12817e-11
-2.25336e-10
8.42092e-18
3.73537e-11
-2.15381e-10
-1.55656e-17
3.32656e-11
-2.04189e-10
-4.49978e-17
2.90672e-11
-1.91776e-10
-6.47767e-17
2.48155e-11
-1.78002e-10
-7.26353e-17
2.05721e-11
-1.62866e-10
-6.5005e-17
1.64075e-11
-1.46311e-10
-4.45073e-17
1.24075e-11
-1.28237e-10
-1.69026e-17
8.679e-12
-1.08571e-10
1.42292e-17
5.3597e-12
-8.72654e-11
3.94955e-17
2.63223e-12
-6.42455e-11
5.73279e-17
7.38051e-13
-3.95216e-11
6.30383e-17
-1.31216e-11
5.4856e-17
6.41515e-11
-2.48216e-10
3.4135e-17
6.49686e-11
-2.52799e-10
2.43128e-17
6.5364e-11
-2.56382e-10
9.7192e-19
6.53208e-11
-2.58922e-10
-3.38292e-17
6.48279e-11
-2.60372e-10
-6.99405e-17
6.38835e-11
-2.60643e-10
-9.47906e-17
6.24899e-11
-2.5986e-10
-1.05269e-16
6.06604e-11
-2.57839e-10
-9.33522e-17
5.84121e-11
-2.54717e-10
-7.26063e-17
5.57707e-11
-2.50387e-10
-4.3587e-17
5.27673e-11
-2.4485e-10
-2.01879e-17
4.94353e-11
-2.38267e-10
-5.06931e-18
4.58168e-11
-2.30425e-10
6.84145e-19
4.1954e-11
-2.21473e-10
-2.24819e-18
3.78941e-11
-2.11321e-10
-2.26673e-17
3.3687e-11
-1.99983e-10
-4.84677e-17
2.93839e-11
-1.87473e-10
-6.53805e-17
2.50427e-11
-1.73662e-10
-7.12932e-17
2.07256e-11
-1.5855e-10
-6.25756e-17
1.65034e-11
-1.4209e-10
-4.16574e-17
1.24612e-11
-1.24196e-10
-1.41777e-17
8.7048e-12
-1.04814e-10
1.64579e-17
5.36971e-12
-8.39301e-11
4.11359e-17
2.6353e-12
-6.15105e-11
5.83763e-17
7.38966e-13
-3.76243e-11
6.37953e-17
-1.23816e-11
5.55579e-17
6.6666e-11
-2.49371e-10
3.30837e-17
6.74021e-11
-2.53536e-10
2.08222e-17
6.76964e-11
-2.56677e-10
4.83586e-18
6.75338e-11
-2.5876e-10
-2.9588e-17
6.69057e-11
-2.59744e-10
-6.25975e-17
6.58129e-11
-2.59551e-10
-8.86372e-17
6.42609e-11
-2.58308e-10
-1.01367e-16
6.22661e-11
-2.55844e-10
-9.38802e-17
5.98486e-11
-2.523e-10
-7.76312e-17
5.70375e-11
-2.47575e-10
-5.24636e-17
5.3867e-11
-2.41679e-10
-3.13432e-17
5.03731e-11
-2.34773e-10
-1.66692e-17
4.66008e-11
-2.26652e-10
-1.0437e-17
4.25945e-11
-2.17467e-10
-1.39732e-17
3.84033e-11
-2.0713e-10
-3.01412e-17
3.40789e-11
-1.95658e-10
-5.1149e-17
2.96735e-11
-1.83068e-10
-6.48162e-17
2.5246e-11
-1.69235e-10
-6.84892e-17
2.0859e-11
-1.54164e-10
-5.88264e-17
1.65831e-11
-1.37815e-10
-3.78085e-17
1.25028e-11
-1.20116e-10
-1.08821e-17
8.72238e-12
-1.01034e-10
1.88235e-17
5.37483e-12
-8.05823e-11
4.25302e-17