/*--------------------------------*- C++ -*----------------------------------*\
| =========                 |                                                 |
| \\      /  F ield         | OpenFOAM: The Open Source CFD Toolbox           |
|  \\    /   O peration     | Version:  v2012                                 |
|   \\  /    A nd           | Website:  www.openfoam.com                      |
|    \\/     M anipulation  |                                                 |
\*---------------------------------------------------------------------------*/
FoamFile
{
    version     2.0;
    format      ascii;
    class       volVectorField;
    location    "0.7";
    object      U;
}
// * * * * * * * * * * * * * * * * * * * * * * * * * * * * * * * * * * * * * //

dimensions      [0 1 -1 0 0 0 0];


internalField   nonuniform List<vector> 
2642
(
(0.000553465 -0.00316981 -4.83061e-06)
(0.000550411 -0.00304858 -4.80399e-06)
(0.000544643 -0.00292349 -4.75369e-06)
(0.000536107 -0.00279504 -4.67924e-06)
(0.000524772 -0.00266369 -4.58036e-06)
(0.000510643 -0.00252997 -4.4571e-06)
(0.000493765 -0.00239445 -4.30984e-06)
(0.000474213 -0.00225766 -4.13924e-06)
(0.00045211 -0.00212022 -3.94638e-06)
(0.000427606 -0.00198263 -3.73254e-06)
(0.000400889 -0.00184542 -3.4994e-06)
(0.000372197 -0.00170908 -3.249e-06)
(0.000341793 -0.00157399 -2.98365e-06)
(0.000309977 -0.0014405 -2.70597e-06)
(0.000277082 -0.0013088 -2.41886e-06)
(0.000243468 -0.00117894 -2.12547e-06)
(0.000209531 -0.00105085 -1.82925e-06)
(0.00017569 -0.000924169 -1.53386e-06)
(0.000142402 -0.000798245 -1.24329e-06)
(0.000110167 -0.000671983 -9.61906e-07)
(7.9559e-05 -0.000543602 -6.94708e-07)
(5.11892e-05 -0.000410182 -4.47039e-07)
(2.61214e-05 -0.000267009 -2.28283e-07)
(4.84155e-06 -0.000103619 -4.54213e-08)
(0.00055715 -0.00318686 -4.86262e-06)
(0.000553809 -0.00306278 -4.83348e-06)
(0.000547754 -0.00293498 -4.78067e-06)
(0.000538932 -0.00280392 -4.70372e-06)
(0.000527316 -0.00267011 -4.60239e-06)
(0.000512913 -0.0025341 -4.47673e-06)
(0.000495768 -0.00239643 -4.32715e-06)
(0.000475959 -0.00225769 -4.15432e-06)
(0.000453609 -0.00211847 -3.95931e-06)
(0.000428873 -0.0019793 -3.74346e-06)
(0.000401938 -0.0018407 -3.50843e-06)
(0.000373044 -0.00170317 -3.25628e-06)
(0.000342453 -0.0015671 -2.98931e-06)
(0.000310466 -0.00143282 -2.71016e-06)
(0.000277415 -0.00130053 -2.4217e-06)
(0.000243659 -0.00117027 -2.12709e-06)
(0.000209592 -0.00104197 -1.82976e-06)
(0.000175634 -0.000915258 -1.53337e-06)
(0.000142237 -0.000789486 -1.24187e-06)
(0.0001099 -0.000663558 -9.59622e-07)
(7.9194e-05 -0.000535699 -6.91599e-07)
(5.07172e-05 -0.000403028 -4.43033e-07)
(2.55531e-05 -0.00026084 -2.23531e-07)
(4.25706e-06 -9.95324e-05 -4.19657e-08)
(0.000563529 -0.00320088 -4.91833e-06)
(0.000559838 -0.00307463 -4.88614e-06)
(0.000553404 -0.00294465 -4.83002e-06)
(0.000544179 -0.00281145 -4.74955e-06)
(0.000532143 -0.00267554 -4.64454e-06)
(0.000517306 -0.00253749 -4.51509e-06)
(0.000499721 -0.00239789 -4.36166e-06)
(0.000479469 -0.00225732 -4.18496e-06)
(0.000456682 -0.0021164 -3.98613e-06)
(0.000431517 -0.00197569 -3.76654e-06)
(0.000404169 -0.0018357 -3.5279e-06)
(0.00037488 -0.00169696 -3.2723e-06)
(0.000343917 -0.00155985 -3.00208e-06)
(0.000311582 -0.00142473 -2.71989e-06)
(0.000278208 -0.00129177 -2.42861e-06)
(0.000244154 -0.00116105 -2.1314e-06)
(0.000209813 -0.00103247 -1.83168e-06)
(0.000175603 -0.000905681 -1.53309e-06)
(0.000141975 -0.000780026 -1.23959e-06)
(0.000109425 -0.000654419 -9.55485e-07)
(7.85219e-05 -0.000527093 -6.85748e-07)
(4.98647e-05 -0.00039522 -4.35615e-07)
(2.45783e-05 -0.000254132 -2.15085e-07)
(3.68736e-06 -9.53214e-05 -3.71918e-08)
(0.000572484 -0.00321446 -4.99648e-06)
(0.000568325 -0.003086 -4.96021e-06)
(0.000561384 -0.00295385 -4.89968e-06)
(0.000551622 -0.00281854 -4.81452e-06)
(0.000539022 -0.0026806 -4.7046e-06)
(0.0005236 -0.00254061 -4.57005e-06)
(0.000505417 -0.00239918 -4.41141e-06)
(0.000484561 -0.0022569 -4.22943e-06)
(0.000461169 -0.00211441 -4.02532e-06)
(0.000435409 -0.00197226 -3.80053e-06)
(0.000407481 -0.00183101 -3.55682e-06)
(0.000377632 -0.00169115 -3.29634e-06)
(0.000346136 -0.00155309 -3.02146e-06)
(0.000313298 -0.00141719 -2.73488e-06)
(0.000279454 -0.00128363 -2.4395e-06)
(0.000244964 -0.00115248 -2.13849e-06)
(0.000210222 -0.00102365 -1.83526e-06)
(0.000175645 -0.000896779 -1.53346e-06)
(0.000141682 -0.000771221 -1.23704e-06)
(0.00010883 -0.000645896 -9.50293e-07)
(7.76602e-05 -0.000519045 -6.78228e-07)
(4.8798e-05 -0.000387897 -4.263e-07)
(2.34373e-05 -0.000247876 -2.05109e-07)
(3.21328e-06 -9.15126e-05 -3.26412e-08)
(0.000583923 -0.00322815 -5.09632e-06)
(0.000579186 -0.00309741 -5.055e-06)
(0.000571616 -0.00296302 -4.98898e-06)
(0.000561181 -0.00282555 -4.89796e-06)
(0.000547873 -0.00268554 -4.78186e-06)
(0.000531715 -0.00254358 -4.64088e-06)
(0.000512776 -0.00240029 -4.47565e-06)
(0.000491155 -0.0022563 -4.28699e-06)
(0.000466996 -0.00211223 -4.07619e-06)
(0.000440478 -0.00196867 -3.84479e-06)
(0.000411809 -0.00182615 -3.59462e-06)
(0.000381245 -0.0016852 -3.32789e-06)
(0.000349065 -0.00154624 -3.04704e-06)
(0.00031558 -0.00140959 -2.75481e-06)
(0.000281131 -0.00127547 -2.45415e-06)
(0.000246079 -0.00114393 -2.14823e-06)
(0.00021082 -0.00101488 -1.84049e-06)
(0.000175773 -0.000887967 -1.53459e-06)
(0.000141387 -0.000762538 -1.23446e-06)
(0.000108162 -0.000637522 -9.44466e-07)
(7.66798e-05 -0.000511176 -6.69672e-07)
(4.76158e-05 -0.000380797 -4.15978e-07)
(2.2251e-05 -0.000241965 -1.94726e-07)
(2.78502e-06 -8.81707e-05 -2.85611e-08)
(0.000597739 -0.00324185 -5.2169e-06)
(0.000592319 -0.00310878 -5.16963e-06)
(0.000584004 -0.00297212 -5.09711e-06)
(0.000572769 -0.00283244 -4.9991e-06)
(0.000558614 -0.00269032 -4.87562e-06)
(0.000541574 -0.00254636 -4.72695e-06)
(0.000521729 -0.00240119 -4.5538e-06)
(0.000499187 -0.00225545 -4.35712e-06)
(0.000474107 -0.0021098 -4.13827e-06)
(0.000446676 -0.0019648 -3.8989e-06)
(0.000417113 -0.00182102 -3.64092e-06)
(0.000385684 -0.00167898 -3.36665e-06)
(0.000352677 -0.0015391 -3.07859e-06)
(0.000318409 -0.00140172 -2.77952e-06)
(0.000283228 -0.00126704 -2.47247e-06)
(0.000247497 -0.00113512 -2.16062e-06)
(0.000211616 -0.00100587 -1.84745e-06)
(0.000176006 -0.000878927 -1.53664e-06)
(0.000141119 -0.000753644 -1.23213e-06)
(0.000107463 -0.000628958 -9.38374e-07)
(7.56385e-05 -0.000503148 -6.60588e-07)
(4.63883e-05 -0.000373591 -4.05264e-07)
(2.10869e-05 -0.000236079 -1.84552e-07)
(2.40713e-06 -8.49786e-05 -2.49114e-08)
(0.000613833 -0.00325555 -5.35735e-06)
(0.000607631 -0.00312008 -5.30326e-06)
(0.000598457 -0.0029811 -5.22325e-06)
(0.000586297 -0.00283917 -5.11718e-06)
(0.000571164 -0.00269489 -4.98516e-06)
(0.000553102 -0.0025489 -4.82757e-06)
(0.000532205 -0.00240183 -4.64525e-06)
(0.000508595 -0.00225433 -4.43924e-06)
(0.000482442 -0.00210707 -4.21104e-06)
(0.00045395 -0.00196064 -3.96241e-06)
(0.000423347 -0.0018156 -3.69536e-06)
(0.000390913 -0.00167247 -3.41231e-06)
(0.000356944 -0.00153169 -3.11585e-06)
(0.000321766 -0.00139359 -2.80884e-06)
(0.000285734 -0.00125837 -2.49435e-06)
(0.000249216 -0.00112609 -2.17563e-06)
(0.000212617 -0.000996646 -1.85619e-06)
(0.00017636 -0.000869694 -1.53974e-06)
(0.000140905 -0.00074458 -1.23027e-06)
(0.000106772 -0.000620251 -9.32346e-07)
(7.4585e-05 -0.000495017 -6.51396e-07)
(4.51681e-05 -0.000366352 -3.94612e-07)
(1.99851e-05 -0.000230292 -1.74911e-07)
(2.07899e-06 -8.19867e-05 -2.17881e-08)
(0.000632118 -0.00326926 -5.51693e-06)
(0.000625034 -0.00313133 -5.45515e-06)
(0.00061489 -0.00298994 -5.36668e-06)
(0.000601685 -0.00284571 -5.25149e-06)
(0.000585444 -0.00269924 -5.10981e-06)
(0.000566224 -0.00255117 -4.94212e-06)
(0.000544136 -0.00240217 -4.7494e-06)
(0.000519314 -0.00225289 -4.53282e-06)
(0.000491946 -0.00210402 -4.29402e-06)
(0.00046225 -0.00195614 -4.03488e-06)
(0.000430469 -0.00180984 -3.75754e-06)
(0.000396896 -0.00166565 -3.46455e-06)
(0.000361836 -0.00152397 -3.15857e-06)
(0.00032563 -0.00138517 -2.84257e-06)
(0.000288636 -0.00124942 -2.5197e-06)
(0.000251232 -0.0011168 -2.19324e-06)
(0.000213826 -0.000987196 -1.86676e-06)
(0.000176849 -0.000860258 -1.54401e-06)
(0.000140767 -0.00073534 -1.22908e-06)
(0.00010612 -0.000611403 -9.26661e-07)
(7.35587e-05 -0.000486795 -6.42442e-07)
(4.39943e-05 -0.000359096 -3.84365e-07)
(1.89691e-05 -0.000224611 -1.66025e-07)
(1.79876e-06 -7.91732e-05 -1.90709e-08)
(0.000652514 -0.00328299 -5.69494e-06)
(0.000644449 -0.00314251 -5.6246e-06)
(0.000633227 -0.00299865 -5.52673e-06)
(0.000618858 -0.00285205 -5.40138e-06)
(0.000601383 -0.00270332 -5.24894e-06)
(0.000580873 -0.00255313 -5.07e-06)
(0.000557457 -0.00240217 -4.86569e-06)
(0.000531285 -0.00225109 -4.63733e-06)
(0.000502565 -0.0021006 -4.38672e-06)
(0.000471529 -0.00195128 -4.11589e-06)
(0.000438437 -0.00180372 -3.82711e-06)
(0.000403596 -0.00165846 -3.52306e-06)
(0.000367327 -0.00151591 -3.20652e-06)
(0.000329978 -0.00137642 -2.88055e-06)
(0.000291921 -0.00124017 -2.54839e-06)
(0.000253538 -0.00110724 -2.21339e-06)
(0.000215246 -0.000977497 -1.87916e-06)
(0.000177483 -0.000850604 -1.54956e-06)
(0.000140725 -0.000725915 -1.22872e-06)
(0.000105533 -0.000602412 -9.2154e-07)
(7.25896e-05 -0.000478486 -6.33987e-07)
(4.28935e-05 -0.000351836 -3.74754e-07)
(1.80506e-05 -0.00021904 -1.5799e-07)
(1.56106e-06 -7.65248e-05 -1.67723e-08)
(0.00067495 -0.00329674 -5.89074e-06)
(0.000665805 -0.00315361 -5.811e-06)
(0.000653395 -0.0030072 -5.70276e-06)
(0.000637744 -0.00285815 -5.56624e-06)
(0.000618911 -0.00270712 -5.40194e-06)
(0.000596982 -0.00255477 -5.21061e-06)
(0.000572105 -0.0024018 -4.99357e-06)
(0.000544451 -0.0022489 -4.75227e-06)
(0.000514244 -0.00209677 -4.48868e-06)
(0.000481737 -0.001946 -4.20502e-06)
(0.000447208 -0.00179719 -3.90369e-06)
(0.000410979 -0.00165087 -3.58752e-06)
(0.000373386 -0.00150747 -3.25943e-06)
(0.000334791 -0.00136731 -2.92258e-06)
(0.000295573 -0.0012306 -2.58029e-06)
(0.000256127 -0.00109737 -2.23601e-06)
(0.000216877 -0.000967526 -1.89341e-06)
(0.000178269 -0.000840712 -1.55643e-06)
(0.000140792 -0.000716293 -1.22931e-06)
(0.00010503 -0.000593272 -9.17159e-07)
(7.17002e-05 -0.000470091 -6.26227e-07)
(4.18832e-05 -0.000344574 -3.65934e-07)
(1.72332e-05 -0.000213574 -1.50838e-07)
(1.36109e-06 -7.40208e-05 -1.48256e-08)
(0.000699361 -0.00331052 -6.10379e-06)
(0.000689036 -0.00316464 -6.01375e-06)
(0.000675329 -0.00301558 -5.8942e-06)
(0.000658279 -0.00286401 -5.74547e-06)
(0.000637963 -0.0027106 -5.56825e-06)
(0.000614488 -0.00255604 -5.36343e-06)
(0.000588021 -0.00240104 -5.1325e-06)
(0.000558753 -0.00224628 -4.87713e-06)
(0.000526931 -0.00209249 -4.59945e-06)
(0.000492828 -0.00194027 -4.30185e-06)
(0.00045674 -0.00179022 -3.98692e-06)
(0.000419009 -0.00164286 -3.65763e-06)
(0.000379984 -0.00149861 -3.31704e-06)
(0.000340043 -0.00135782 -2.96845e-06)
(0.000299578 -0.00122066 -2.61527e-06)
(0.000258991 -0.00108718 -2.26102e-06)
(0.000218716 -0.000957267 -1.90949e-06)
(0.000179212 -0.000830572 -1.56468e-06)
(0.000140978 -0.000706466 -1.23095e-06)
(0.000104627 -0.000583979 -9.13645e-07)
(7.09061e-05 -0.000461612 -6.19298e-07)
(4.09739e-05 -0.000337313 -3.57994e-07)
(1.65157e-05 -0.000208205 -1.44561e-07)
(1.19396e-06 -7.1643e-05 -1.31945e-08)
(0.000725689 -0.00332431 -6.33357e-06)
(0.000714081 -0.00317557 -6.23234e-06)
(0.000698965 -0.00302377 -6.10051e-06)
(0.000680398 -0.0028696 -5.93854e-06)
(0.000658478 -0.00271374 -5.74732e-06)
(0.000633329 -0.00255691 -5.52791e-06)
(0.000605145 -0.00239983 -5.28199e-06)
(0.000574136 -0.0022432 -5.01142e-06)
(0.000540574 -0.00208774 -4.71856e-06)
(0.000504753 -0.00193406 -4.40597e-06)
(0.000466991 -0.00178277 -4.07642e-06)
(0.000427647 -0.00163438 -3.73306e-06)
(0.000387091 -0.00148932 -3.3791e-06)
(0.000345712 -0.00134792 -3.01796e-06)
(0.000303917 -0.00121034 -2.65316e-06)
(0.000262119 -0.00107664 -2.28834e-06)
(0.000220761 -0.000946703 -1.92735e-06)
(0.000180314 -0.00082017 -1.57431e-06)
(0.000141292 -0.000696427 -1.2337e-06)
(0.000104333 -0.000574532 -9.11088e-07)
(7.02175e-05 -0.000453049 -6.13291e-07)
(4.01704e-05 -0.000330054 -3.50978e-07)
(1.58935e-05 -0.000202926 -1.39116e-07)
(1.05533e-06 -6.9374e-05 -1.18375e-08)
(0.000753882 -0.00333811 -6.57962e-06)
(0.000740885 -0.00318639 -6.46628e-06)
(0.000724246 -0.00303175 -6.32117e-06)
(0.000704043 -0.00287488 -6.14494e-06)
(0.000680395 -0.00271651 -5.93864e-06)
(0.000653448 -0.00255735 -5.70353e-06)
(0.000623419 -0.00239815 -5.44153e-06)
(0.000590546 -0.00223961 -5.15468e-06)
(0.000555121 -0.00208247 -4.84556e-06)
(0.000517465 -0.00192733 -4.51695e-06)
(0.000477917 -0.00177481 -4.17182e-06)
(0.000436858 -0.00162541 -3.81349e-06)
(0.000394673 -0.00147956 -3.44531e-06)
(0.000351772 -0.00133757 -3.07087e-06)
(0.000308571 -0.00119962 -2.69381e-06)
(0.000265496 -0.00106575 -2.31784e-06)
(0.000223003 -0.000935821 -1.94694e-06)
(0.000181573 -0.000809497 -1.58531e-06)
(0.000141736 -0.00068617 -1.23759e-06)
(0.000104155 -0.000564928 -9.0954e-07)
(6.96401e-05 -0.000444403 -6.08253e-07)
(3.94737e-05 -0.000322795 -3.44894e-07)
(1.53605e-05 -0.000197725 -1.34452e-07)
(9.40962e-07 -6.71979e-05 -1.07147e-08)
(0.000783892 -0.00335192 -6.84155e-06)
(0.000769396 -0.00319709 -6.71514e-06)
(0.000751119 -0.00303949 -6.55573e-06)
(0.000729159 -0.00287984 -6.36417e-06)
(0.000703658 -0.00271887 -6.14171e-06)
(0.000674786 -0.00255733 -5.88981e-06)
(0.000642788 -0.00239596 -5.61061e-06)
(0.000607925 -0.00223549 -5.30641e-06)
(0.00057052 -0.00207664 -4.98e-06)
(0.000530915 -0.00192005 -4.63439e-06)
(0.000489474 -0.0017663 -4.27273e-06)
(0.000446601 -0.00161591 -3.89856e-06)
(0.000402699 -0.0014693 -3.5154e-06)
(0.000358195 -0.00132677 -3.12696e-06)
(0.000313518 -0.00118848 -2.73701e-06)
(0.000269109 -0.00105447 -2.3494e-06)
(0.000225433 -0.000924609 -1.96817e-06)
(0.000182986 -0.000798546 -1.59766e-06)
(0.000142311 -0.000675692 -1.24261e-06)
(0.000104095 -0.000555167 -9.09021e-07)
(6.91753e-05 -0.000435674 -6.04198e-07)
(3.88815e-05 -0.000315534 -3.39723e-07)
(1.49094e-05 -0.000192592 -1.30504e-07)
(8.47068e-07 -6.51004e-05 -9.79109e-09)
(0.000815678 -0.00336572 -7.11897e-06)
(0.000799569 -0.00320765 -6.97849e-06)
(0.000779532 -0.00304698 -6.80374e-06)
(0.000755691 -0.00288444 -6.59576e-06)
(0.00072821 -0.0027208 -6.35603e-06)
(0.000697288 -0.00255681 -6.08623e-06)
(0.000663194 -0.00239323 -5.78876e-06)
(0.000626222 -0.00223079 -5.46614e-06)
(0.000586719 -0.00207024 -5.12143e-06)
(0.000545055 -0.00191218 -4.75784e-06)
(0.000501619 -0.00175722 -4.37877e-06)
(0.000456837 -0.00160587 -3.98794e-06)
(0.000411133 -0.00145852 -3.58904e-06)
(0.000364951 -0.00131548 -3.18597e-06)
(0.000318736 -0.0011769 -2.78259e-06)
(0.00027294 -0.00104281 -2.38286e-06)
(0.000228041 -0.000913056 -1.99095e-06)
(0.000184545 -0.000787309 -1.61128e-06)
(0.000143013 -0.000664988 -1.24875e-06)
(0.000104151 -0.000545248 -9.09522e-07)
(6.88218e-05 -0.00042686 -6.01115e-07)
(3.83896e-05 -0.000308267 -3.35428e-07)
(1.45327e-05 -0.000187518 -1.27207e-07)
(7.7031e-07 -6.30684e-05 -9.03498e-09)
(0.000849201 -0.0033795 -7.41157e-06)
(0.000831359 -0.00321804 -7.25597e-06)
(0.000809438 -0.00305417 -7.06478e-06)
(0.000783588 -0.00288866 -6.83928e-06)
(0.000753998 -0.00272226 -6.58114e-06)
(0.000720897 -0.00255575 -6.29233e-06)
(0.000684583 -0.00238991 -5.97549e-06)
(0.00064538 -0.00222549 -5.6334e-06)
(0.000603664 -0.00206321 -5.26938e-06)
(0.000559834 -0.0019037 -4.88687e-06)
(0.000514304 -0.00174754 -4.48954e-06)
(0.000467524 -0.00159525 -4.08126e-06)
(0.000419939 -0.0014472 -3.66594e-06)
(0.000372012 -0.0013037 -3.24762e-06)
(0.0003242 -0.00116487 -2.83031e-06)
(0.000276971 -0.00103074 -2.41806e-06)
(0.000230811 -0.000901154 -2.01515e-06)
(0.000186243 -0.000775781 -1.62612e-06)
(0.000143837 -0.000654056 -1.25595e-06)
(0.000104321 -0.000535169 -9.11011e-07)
(6.85755e-05 -0.000417961 -5.98968e-07)
(3.79921e-05 -0.00030099 -3.31956e-07)
(1.42228e-05 -0.000182491 -1.24494e-07)
(7.07786e-07 -6.10907e-05 -8.41906e-09)
(0.000884427 -0.00339322 -7.71903e-06)
(0.000864726 -0.00322824 -7.54722e-06)
(0.000840791 -0.00306105 -7.33846e-06)
(0.000812799 -0.00289244 -7.09427e-06)
(0.000780969 -0.0027232 -6.81659e-06)
(0.000745559 -0.00255412 -6.50763e-06)
(0.0007069 -0.00238598 -6.17031e-06)
(0.000665345 -0.00221954 -5.8077e-06)
(0.000621304 -0.00205553 -5.42338e-06)
(0.000575202 -0.00189457 -5.02106e-06)
(0.000527484 -0.00173723 -4.60462e-06)
(0.000478621 -0.00158402 -4.17816e-06)
(0.000429081 -0.00143532 -3.74577e-06)
(0.000379344 -0.00129139 -3.31166e-06)
(0.000329884 -0.00115237 -2.87994e-06)
(0.000281179 -0.00101825 -2.45482e-06)
(0.00023373 -0.000888896 -2.04064e-06)
(0.000188067 -0.000763958 -1.64205e-06)
(0.000144775 -0.000642894 -1.26415e-06)
(0.000104598 -0.000524929 -9.13435e-07)
(6.84306e-05 -0.000408974 -5.97705e-07)
(3.7682e-05 -0.000293696 -3.29247e-07)
(1.39723e-05 -0.000177501 -1.22301e-07)
(6.57041e-07 -5.9157e-05 -7.91979e-09)
(0.000921325 -0.00340687 -8.0411e-06)
(0.000899632 -0.00323821 -7.8519e-06)
(0.000873546 -0.00306757 -7.62438e-06)
(0.000843276 -0.00289576 -7.36031e-06)
(0.000809071 -0.00272359 -7.0619e-06)
(0.000771219 -0.00255187 -6.73164e-06)
(0.000730087 -0.00238139 -6.37274e-06)
(0.000686061 -0.00221291 -5.98857e-06)
(0.000639583 -0.00204716 -5.58298e-06)
(0.000591109 -0.00188475 -5.15994e-06)
(0.00054111 -0.00172626 -4.72359e-06)
(0.000490084 -0.00157217 -4.27825e-06)
(0.000438518 -0.00142285 -3.82818e-06)
(0.000386915 -0.00127855 -3.37777e-06)
(0.000335758 -0.00113938 -2.93125e-06)
(0.000285543 -0.00100534 -2.49293e-06)
(0.000236777 -0.000876274 -2.06726e-06)
(0.000190004 -0.000751837 -1.65898e-06)
(0.000145817 -0.000631501 -1.27326e-06)
(0.000104974 -0.000514528 -9.16724e-07)
(6.83794e-05 -0.000399899 -5.9726e-07)
(3.74517e-05 -0.000286382 -3.27235e-07)
(1.37742e-05 -0.000172539 -1.20567e-07)
(6.15988e-07 -5.72586e-05 -7.51723e-09)
(0.000959866 -0.00342041 -8.37751e-06)
(0.000936041 -0.00324791 -8.16971e-06)
(0.000907662 -0.00307369 -7.92217e-06)
(0.000874972 -0.00289857 -7.63699e-06)
(0.00083825 -0.00272339 -7.31662e-06)
(0.000797823 -0.00254897 -6.96389e-06)
(0.000754089 -0.00237611 -6.58229e-06)
(0.000707473 -0.00220556 -6.1755e-06)
(0.000658448 -0.00203806 -5.74768e-06)
(0.0006075 -0.00187423 -5.30306e-06)
(0.000555133 -0.00171461 -4.84604e-06)
(0.000501867 -0.00155967 -4.38114e-06)
(0.000448212 -0.00140978 -3.91283e-06)
(0.000394688 -0.00126516 -3.44566e-06)
(0.000341795 -0.00112591 -2.98397e-06)
(0.000290038 -0.000992003 -2.53219e-06)
(0.000239936 -0.000863286 -2.09485e-06)
(0.000192039 -0.000739415 -1.67676e-06)
(0.000146951 -0.000619876 -1.28317e-06)
(0.00010544 -0.000503966 -9.20794e-07)
(6.84134e-05 -0.000390732 -5.97558e-07)
(3.7293e-05 -0.000279042 -3.25849e-07)
(1.3622e-05 -0.000167596 -1.19233e-07)
(5.82914e-07 -5.53877e-05 -7.19468e-09)
(0.00100002 -0.0034338 -8.72805e-06)
(0.000973917 -0.00325731 -8.50033e-06)
(0.000943095 -0.00307937 -8.23148e-06)
(0.000907836 -0.00290083 -7.92388e-06)
(0.000868454 -0.00272256 -7.5803e-06)
(0.000825313 -0.00254537 -7.20388e-06)
(0.000778849 -0.00237008 -6.79845e-06)
(0.000729522 -0.00219745 -6.368e-06)
(0.000677841 -0.00202821 -5.917e-06)
(0.000624323 -0.00186296 -5.44995e-06)
(0.000569502 -0.00170224 -4.9715e-06)
(0.000513924 -0.0015465 -4.48643e-06)
(0.00045812 -0.00139608 -3.99935e-06)
(0.000402628 -0.0012512 -3.515e-06)
(0.000347962 -0.00111193 -3.03783e-06)
(0.000294637 -0.000978226 -2.57237e-06)
(0.000243183 -0.000849927 -2.12322e-06)
(0.000194156 -0.000726691 -1.69524e-06)
(0.000148164 -0.000608019 -1.29377e-06)
(0.000105984 -0.000493243 -9.25547e-07)
(6.85227e-05 -0.000381474 -5.98515e-07)
(3.71976e-05 -0.000271671 -3.25015e-07)
(1.35093e-05 -0.000162665 -1.18247e-07)
(5.56394e-07 -5.35378e-05 -6.93828e-09)
(0.00104177 -0.00344701 -9.09248e-06)
(0.00101323 -0.00326636 -8.84347e-06)
(0.000979803 -0.00308456 -8.55192e-06)
(0.000941822 -0.00290249 -8.22057e-06)
(0.000899631 -0.00272103 -7.85247e-06)
(0.000853635 -0.00254102 -7.45113e-06)
(0.000804309 -0.00236327 -7.02072e-06)
(0.00075215 -0.00218854 -6.56556e-06)
(0.000697704 -0.00201756 -6.09043e-06)
(0.000641521 -0.00185092 -5.60011e-06)
(0.000584166 -0.00168913 -5.09954e-06)
(0.000526207 -0.00153264 -4.59368e-06)
(0.000468198 -0.00138175 -4.08737e-06)
(0.000410697 -0.00123666 -3.58546e-06)
(0.000354226 -0.00109744 -3.09254e-06)
(0.000299315 -0.000964006 -2.61322e-06)
(0.000246497 -0.000836196 -2.15216e-06)
(0.000196335 -0.000713666 -1.71428e-06)
(0.000149441 -0.000595932 -1.30492e-06)
(0.000106594 -0.00048236 -9.30877e-07)
(6.86972e-05 -0.000372122 -6.0004e-07)
(3.71572e-05 -0.000264266 -3.24662e-07)
(1.34307e-05 -0.000157738 -1.17558e-07)
(5.35295e-07 -5.17031e-05 -6.73671e-09)
(0.00108509 -0.00345998 -9.4706e-06)
(0.00105393 -0.003275 -9.19883e-06)
(0.00101774 -0.0030892 -8.88313e-06)
(0.000976879 -0.0029035 -8.5266e-06)
(0.000931725 -0.00271877 -8.13264e-06)
(0.000882729 -0.00253587 -7.70513e-06)
(0.000830407 -0.00235563 -7.24857e-06)
(0.000775295 -0.0021788 -6.76765e-06)
(0.000717979 -0.00200609 -6.26745e-06)
(0.000659038 -0.00183807 -5.75306e-06)
(0.000599069 -0.00167526 -5.22968e-06)
(0.000538666 -0.00151806 -4.70248e-06)
(0.000478403 -0.00136677 -4.17648e-06)
(0.000418855 -0.00122154 -3.65671e-06)
(0.000360554 -0.00108243 -3.14781e-06)
(0.000304041 -0.000949339 -2.6545e-06)
(0.000249854 -0.000822091 -2.18149e-06)
(0.000198558 -0.00070034 -1.7337e-06)
(0.000150766 -0.000583616 -1.3165e-06)
(0.000107257 -0.000471317 -9.36672e-07)
(6.8926e-05 -0.000362676 -6.02039e-07)
(3.71633e-05 -0.000256822 -3.24714e-07)
(1.33806e-05 -0.00015281 -1.17119e-07)
(5.18702e-07 -4.98791e-05 -6.58075e-09)
(0.00112995 -0.00347265 -9.86219e-06)
(0.00109601 -0.00328317 -9.56609e-06)
(0.00105687 -0.00309324 -9.22472e-06)
(0.00101296 -0.00290378 -8.84155e-06)
(0.000964679 -0.00271571 -8.42034e-06)
(0.000912535 -0.00252988 -7.96535e-06)
(0.000857082 -0.00234711 -7.48146e-06)
(0.000798897 -0.00216817 -6.97371e-06)
(0.000738603 -0.00199374 -6.44753e-06)
(0.000676814 -0.00182439 -5.90827e-06)
(0.000614157 -0.0016606 -5.36143e-06)
(0.00055125 -0.00150276 -4.81237e-06)
(0.000488687 -0.00135112 -4.26629e-06)
(0.00042706 -0.00120583 -3.72837e-06)
(0.000366911 -0.00106689 -3.20332e-06)
(0.000308786 -0.000934224 -2.69595e-06)
(0.000253228 -0.000807612 -2.21096e-06)
(0.000200804 -0.000686715 -1.75332e-06)
(0.000152123 -0.000571073 -1.32835e-06)
(0.000107959 -0.000460117 -9.4281e-07)
(6.91982e-05 -0.000353136 -6.04417e-07)
(3.72077e-05 -0.000249337 -3.25102e-07)
(1.33542e-05 -0.000147875 -1.16887e-07)
(5.05904e-07 -4.80616e-05 -6.46304e-09)
(0.00117633 -0.00348497 -1.0267e-05)
(0.00113941 -0.00329082 -9.94495e-06)
(0.00109715 -0.00309661 -9.5763e-06)
(0.00105 -0.00290329 -9.16495e-06)
(0.000998435 -0.00271179 -8.71504e-06)
(0.000942991 -0.00252298 -8.23124e-06)
(0.000884269 -0.00233768 -7.71882e-06)
(0.000822889 -0.00215662 -7.18318e-06)
(0.000759514 -0.0019805 -6.63011e-06)
(0.000694788 -0.00180985 -6.06522e-06)
(0.000629373 -0.00164513 -5.49429e-06)
(0.000563906 -0.0014867 -4.92289e-06)
(0.000499004 -0.00133478 -4.35638e-06)
(0.000435271 -0.0011895 -3.80008e-06)
(0.000373258 -0.00105083 -3.25876e-06)
(0.000313518 -0.00091866 -2.73728e-06)
(0.000256594 -0.000792762 -2.24036e-06)
(0.00020305 -0.000672793 -1.77294e-06)
(0.000153493 -0.000558307 -1.34032e-06)
(0.000108687 -0.000448762 -9.49168e-07)
(6.95023e-05 -0.000343503 -6.07074e-07)
(3.72822e-05 -0.00024181 -3.25752e-07)
(1.33469e-05 -0.000142929 -1.16822e-07)
(4.96341e-07 -4.62473e-05 -6.37763e-09)
(0.0012242 -0.00349686 -1.06849e-05)
(0.0011841 -0.00329787 -1.03351e-05)
(0.00113852 -0.00309923 -9.93745e-06)
(0.00108796 -0.00290196 -9.4963e-06)
(0.00103293 -0.00270696 -9.0162e-06)
(0.000974031 -0.00251513 -8.50224e-06)
(0.0009119 -0.00232726 -7.96007e-06)
(0.000847205 -0.0021441 -7.39549e-06)
(0.000780644 -0.00196632 -6.81461e-06)
(0.000712898 -0.00179441 -6.22335e-06)
(0.000644656 -0.00162883 -5.62775e-06)
(0.00057658 -0.00146987 -5.03357e-06)
(0.000509303 -0.00131776 -4.44633e-06)
(0.000443444 -0.00117257 -3.87146e-06)
(0.000379559 -0.00103424 -3.31379e-06)
(0.000318205 -0.000902647 -2.77822e-06)
(0.000259924 -0.000777543 -2.26945e-06)
(0.000205276 -0.000658581 -1.79238e-06)
(0.000154858 -0.000545322 -1.35225e-06)
(0.000109425 -0.000437257 -9.55617e-07)
(6.98271e-05 -0.000333778 -6.09911e-07)
(3.73789e-05 -0.000234238 -3.26596e-07)
(1.33544e-05 -0.00013797 -1.16888e-07)
(4.89578e-07 -4.44338e-05 -6.31974e-09)
(0.00127353 -0.00350824 -1.11155e-05)
(0.00123003 -0.00330423 -1.07361e-05)
(0.00118093 -0.00310105 -1.03077e-05)
(0.00112676 -0.00289971 -9.8351e-06)
(0.0010681 -0.00270115 -9.32326e-06)
(0.00100559 -0.00250625 -8.77773e-06)
(0.000939907 -0.00231582 -8.20459e-06)
(0.000871773 -0.00213057 -7.60999e-06)
(0.000801925 -0.00195116 -7.00043e-06)
(0.000731076 -0.00177805 -6.38208e-06)
(0.000659945 -0.00161166 -5.76126e-06)
(0.000589215 -0.00145227 -5.1439e-06)
(0.000519533 -0.00130004 -4.53567e-06)
(0.000451534 -0.00115502 -3.94211e-06)
(0.000385774 -0.00101712 -3.36808e-06)
(0.000322814 -0.000886187 -2.81847e-06)
(0.00026319 -0.00076196 -2.29798e-06)
(0.000207457 -0.000644081 -1.81144e-06)
(0.0001562 -0.000532124 -1.36397e-06)
(0.000110159 -0.000425604 -9.62028e-07)
(7.01611e-05 -0.000323964 -6.12828e-07)
(3.74901e-05 -0.000226622 -3.27567e-07)
(1.33728e-05 -0.000132996 -1.17048e-07)
(4.85263e-07 -4.26189e-05 -6.28544e-09)
(0.00132429 -0.00351903 -1.15586e-05)
(0.00127717 -0.00330983 -1.11476e-05)
(0.00122434 -0.00310196 -1.06866e-05)
(0.00116636 -0.00289647 -1.01808e-05)
(0.00110388 -0.00269428 -9.63561e-06)
(0.00103758 -0.00249629 -9.0571e-06)
(0.000968213 -0.0023033 -8.45173e-06)
(0.00089652 -0.00211598 -7.82607e-06)
(0.000823287 -0.00193498 -7.18695e-06)
(0.000749256 -0.00176074 -6.54083e-06)
(0.000675177 -0.00159362 -5.89427e-06)
(0.000601752 -0.00143386 -5.25339e-06)
(0.000529644 -0.0012816 -4.62397e-06)
(0.000459495 -0.00113684 -4.01164e-06)
(0.000391864 -0.000999469 -3.42127e-06)
(0.00032731 -0.000869284 -2.85774e-06)
(0.000266364 -0.000746017 -2.32571e-06)
(0.00020957 -0.000629302 -1.8299e-06)
(0.000157499 -0.000518719 -1.37532e-06)
(0.000110873 -0.00041381 -9.68267e-07)
(7.04929e-05 -0.000314064 -6.15727e-07)
(3.76082e-05 -0.000218963 -3.28598e-07)
(1.33984e-05 -0.000128005 -1.17272e-07)
(4.831e-07 -4.08013e-05 -6.27131e-09)
(0.00137644 -0.00352913 -1.20139e-05)
(0.00132547 -0.00331457 -1.15692e-05)
(0.00126867 -0.00310188 -1.10737e-05)
(0.00120668 -0.00289214 -1.05328e-05)
(0.00114019 -0.00268629 -9.95262e-06)
(0.00106995 -0.00248519 -9.33966e-06)
(0.000996741 -0.00228963 -8.70082e-06)
(0.000921369 -0.00210029 -8.04304e-06)
(0.000844653 -0.00191776 -7.37351e-06)
(0.000767366 -0.00174245 -6.69897e-06)
(0.000690287 -0.00157468 -6.02622e-06)
(0.000614133 -0.00141465 -5.36152e-06)
(0.00053958 -0.00126245 -4.71075e-06)
(0.00046728 -0.00111805 -4.07963e-06)
(0.000397787 -0.000981287 -3.473e-06)
(0.000331659 -0.000851942 -2.89573e-06)
(0.000269417 -0.000729722 -2.35237e-06)
(0.000211591 -0.00061425 -1.84756e-06)
(0.000158737 -0.000505116 -1.38613e-06)
(0.000111553 -0.000401882 -9.74204e-07)
(7.08114e-05 -0.000304082 -6.18509e-07)
(3.77259e-05 -0.000211262 -3.29625e-07)
(1.34276e-05 -0.000122998 -1.17527e-07)
(4.82825e-07 -3.89799e-05 -6.27431e-09)
(0.00147851 -0.00375992 -1.29047e-05)
(0.00142995 -0.00353843 -1.24811e-05)
(0.00137487 -0.00331834 -1.20005e-05)
(0.00131387 -0.00310072 -1.14682e-05)
(0.00124765 -0.00288666 -1.08904e-05)
(0.00117696 -0.00267708 -1.02736e-05)
(0.0011026 -0.00247287 -9.62472e-06)
(0.00102541 -0.00227477 -8.95113e-06)
(0.00094624 -0.00208345 -8.2602e-06)
(0.000865947 -0.00189945 -7.55945e-06)
(0.000785334 -0.00172315 -6.85587e-06)
(0.000705206 -0.00155482 -6.15651e-06)
(0.000626295 -0.00139461 -5.46773e-06)
(0.000549288 -0.00124258 -4.79554e-06)
(0.00047484 -0.00109863 -4.14566e-06)
(0.000403502 -0.000962579 -3.52292e-06)
(0.000335825 -0.000834168 -2.93213e-06)
(0.000272319 -0.000713082 -2.37773e-06)
(0.000213496 -0.000598936 -1.8642e-06)
(0.000159893 -0.000491321 -1.39623e-06)
(0.000112182 -0.000389825 -9.79704e-07)
(7.11055e-05 -0.000294024 -6.21078e-07)
(3.7836e-05 -0.000203523 -3.30586e-07)
(1.34573e-05 -0.000117975 -1.17785e-07)
(4.84173e-07 -3.71544e-05 -6.29146e-09)
(0.00158312 -0.00400324 -1.38176e-05)
(0.00153757 -0.0037746 -1.34202e-05)
(0.00148476 -0.00354682 -1.29596e-05)
(0.00142531 -0.00332103 -1.24408e-05)
(0.00135986 -0.00309837 -1.18697e-05)
(0.00128918 -0.00287991 -1.1253e-05)
(0.00121409 -0.00266659 -1.05978e-05)
(0.00113544 -0.00245926 -9.91149e-06)
(0.00105413 -0.00225866 -9.20191e-06)
(0.000971047 -0.00206541 -8.47681e-06)
(0.000887087 -0.00188002 -7.74405e-06)
(0.000803084 -0.00170281 -7.01087e-06)
(0.000719865 -0.00153402 -6.28452e-06)
(0.000638176 -0.00137374 -5.57149e-06)
(0.000558711 -0.00122197 -4.87783e-06)
(0.000482126 -0.00107859 -4.2093e-06)
(0.000408967 -0.00094335 -3.57066e-06)
(0.000339773 -0.00081597 -2.96662e-06)
(0.00027504 -0.000696108 -2.4015e-06)
(0.000215261 -0.000583368 -1.87962e-06)
(0.000160948 -0.000477346 -1.40545e-06)
(0.000112747 -0.00037765 -9.84639e-07)
(7.13642e-05 -0.000283896 -6.23338e-07)
(3.79317e-05 -0.000195749 -3.31422e-07)
(1.34842e-05 -0.000112938 -1.1802e-07)
(4.8688e-07 -3.53248e-05 -6.31987e-09)
(0.00164809 -0.00402424 -1.43848e-05)
(0.00159818 -0.00378846 -1.39494e-05)
(0.00154084 -0.00355416 -1.3449e-05)
(0.00147672 -0.00332254 -1.28896e-05)
(0.00140656 -0.00309473 -1.22775e-05)
(0.0013312 -0.00287181 -1.16199e-05)
(0.0012515 -0.00265472 -1.09245e-05)
(0.00116839 -0.00244429 -1.01992e-05)
(0.00108282 -0.00224123 -9.45235e-06)
(0.000995702 -0.00204612 -8.69209e-06)
(0.000907989 -0.00185942 -7.92657e-06)
(0.000820537 -0.00168142 -7.16328e-06)
(0.000734192 -0.00151227 -6.40964e-06)
(0.000649711 -0.00135203 -5.67223e-06)
(0.000567791 -0.00120064 -4.95714e-06)
(0.000489089 -0.00105793 -4.27013e-06)
(0.000414138 -0.000923608 -3.61584e-06)
(0.000343467 -0.000797357 -2.99889e-06)
(0.00027755 -0.00067881 -2.42343e-06)
(0.00021686 -0.000567559 -1.89359e-06)
(0.000161883 -0.000463202 -1.41362e-06)
(0.000113232 -0.000365365 -9.88877e-07)
(7.15769e-05 -0.000273707 -6.25197e-07)
(3.80065e-05 -0.000187946 -3.32075e-07)
(1.35054e-05 -0.00010789 -1.18205e-07)