/*--------------------------------*- C++ -*----------------------------------*\
| =========                 |                                                 |
| \\      /  F ield         | OpenFOAM: The Open Source CFD Toolbox           |
|  \\    /   O peration     | Version:  v2012                                 |
|   \\  /    A nd           | Website:  www.openfoam.com                      |
|    \\/     M anipulation  |                                                 |
\*---------------------------------------------------------------------------*/
FoamFile
{
    version     2.0;
    format      ascii;
    class       surfaceScalarField;
    location    "0.75";
    object      alphaPhi0.water;
}
// * * * * * * * * * * * * * * * * * * * * * * * * * * * * * * * * * * * * * //

dimensions      [0 3 -1 0 0 0 0];
oriented        oriented;


internalField   nonuniform List<scalar> 
8048
(
-1.66632e-12
-7.52685e-09
-4.65982e-15
2.43152e-11
-2.28884e-08
-9.81756e-15
4.14629e-10
-4.07592e-08
-5.95547e-15
8.61067e-10
-6.41275e-08
-1.03589e-14
1.50422e-09
-9.18383e-08
-1.33149e-14
1.964e-09
-1.18992e-07
-1.31159e-14
1.78636e-09
-1.33694e-07
-2.69416e-14
-1.07397e-07
-3.23568e-14
-1.67821e-12
-7.52517e-09
-3.82695e-15
2.76952e-11
-2.29178e-08
-8.27662e-15
3.73968e-10
-4.11055e-08
-4.95867e-15
8.44515e-10
-6.45981e-08
-4.02558e-15
1.49959e-09
-9.24934e-08
-1.91212e-14
1.93061e-09
-1.19423e-07
-5.86863e-15
1.71805e-09
-1.33481e-07
-8.42799e-15
-5.44934e-10
-1.05121e-07
-2.86676e-15
-2.56131e-09
-8.52141e-08
-5.24564e-14
-4.15737e-09
-6.31804e-08
-8.61886e-14
-5.06384e-09
-3.04085e-08
-7.04056e-14
-4.31156e-09
-1.79182e-08
-1.45385e-14
-1.84426e-09
-1.10079e-08
-2.76812e-15
-3.01664e-10
-3.7052e-09
-8.02399e-16
-5.53454e-10
-1.14592e-16
-1.43126e-12
-7.52374e-09
-2.73194e-15
3.27125e-11
-2.2952e-08
-7.66491e-15
3.4429e-10
-4.14171e-08
-8.61154e-15
8.49373e-10
-6.51032e-08
-9.90022e-15
1.51722e-09
-9.31612e-08
-1.06006e-14
1.91077e-09
-1.19817e-07
-9.10084e-15
1.6619e-09
-1.33232e-07
-3.5035e-14
-6.25283e-10
-1.02822e-07
-1.2165e-14
-2.76232e-09
-8.28344e-08
-4.75713e-14
-4.49828e-09
-6.11374e-08
-8.20247e-14
-5.22793e-09
-2.94337e-08
-4.49029e-14
-4.22873e-09
-1.69621e-08
-4.66384e-15
-1.72391e-09
-9.89229e-09
-1.95724e-15
-2.79269e-10
-3.2246e-09
-6.36586e-16
-4.81522e-10
-1.04527e-16
-9.13686e-13
-7.52282e-09
-3.78878e-15
3.99605e-11
-2.29928e-08
-8.48976e-15
3.28012e-10
-4.17051e-08
-9.7288e-15
8.79142e-10
-6.56543e-08
-6.72691e-15
1.55779e-09
-9.38399e-08
-2.18825e-14
1.90122e-09
-1.2016e-07
-1.02396e-14
1.60992e-09
-1.32941e-07
-1.42605e-14
-6.58963e-10
-1.00544e-07
-6.12013e-15
-2.9389e-09
-8.02891e-08
-4.56377e-14
-4.81125e-09
-5.88737e-08
-9.10503e-14
-5.3576e-09
-2.85344e-08
-4.32958e-14
-4.10597e-09
-1.59833e-08
-9.64242e-15
-1.59784e-09
-8.83522e-09
-2.65169e-15
-2.56448e-10
-2.78971e-09
-5.86724e-16
-4.16199e-10
-9.72303e-17
-1.47828e-13
-7.52268e-09
-1.73083e-15
4.91077e-11
-2.30421e-08
-6.75443e-15
3.26675e-10
-4.19827e-08
-1.13238e-14
9.35134e-10
-6.62628e-08
-8.13506e-15
1.6177e-09
-9.45224e-08
-1.25585e-14
1.89589e-09
-1.20438e-07
-1.06215e-14
1.55211e-09
-1.32597e-07
-1.07658e-14
-6.30073e-10
-9.83561e-08
-1.35474e-14
-3.06465e-09
-7.75657e-08
-4.87515e-14
-5.07261e-09
-5.63763e-08
-8.86368e-14
-5.44691e-09
-2.76671e-08
-6.29529e-14
-3.94576e-09
-1.49822e-08
-1.74897e-14
-1.46835e-09
-7.84142e-09
-3.27629e-15
-2.33547e-10
-2.39905e-09
-5.87062e-16
-3.57328e-10
-9.30861e-17
7.54907e-13
-7.52343e-09
-4.89142e-15
5.93783e-11
-2.31007e-08
-8.35296e-15
3.43045e-10
-4.22664e-08
-8.13772e-15
1.01826e-09
-6.6938e-08
-9.08474e-15
1.68877e-09
-9.51929e-08
-1.45474e-14
1.8846e-09
-1.20634e-07
-1.28145e-14
1.47936e-09
-1.32192e-07
-6.88409e-15
-5.34039e-10
-9.63383e-08
-1.31361e-14
-3.14065e-09
-7.46538e-08
-4.8965e-14
-5.2737e-09
-5.36335e-08
-8.23275e-14
-5.48874e-09
-2.67817e-08
-6.62395e-14
-3.75175e-09
-1.39609e-08
-1.77324e-14
-1.3377e-09
-6.91492e-09
-3.66033e-15
-2.10884e-10
-2.05078e-09
-6.0465e-16
-3.04682e-10
-8.25597e-17
1.77335e-12
-7.5252e-09
-2.76848e-15
6.93616e-11
-2.31683e-08
-7.60712e-15
3.78258e-10
-4.25752e-08
-9.7144e-15
1.12245e-09
-6.76822e-08
-1.15928e-14
1.75338e-09
-9.58238e-08
-7.38268e-15
1.84585e-09
-1.20727e-07
-1.32216e-14
1.37052e-09
-1.31716e-07
-9.68698e-15
-3.85998e-10
-9.45785e-08
-8.67486e-15
-3.17714e-09
-7.15477e-08
-4.16831e-14
-5.41367e-09
-5.06499e-08
-6.6463e-14
-5.47698e-09
-2.58294e-08
-4.14163e-14
-3.52908e-09
-1.2923e-08
-1.24926e-14
-1.20804e-09
-6.05891e-09
-3.35957e-15
-1.88748e-10
-1.74274e-09
-5.73383e-16
-2.57978e-10
-7.40735e-17
2.82004e-12
-7.52802e-09
-2.89702e-15
7.85907e-11
-2.32441e-08
-5.35164e-15
4.34638e-10
-4.29313e-08
-8.65131e-15
1.23666e-09
-6.84842e-08
-1.0029e-14
1.78629e-09
-9.63734e-08
-1.3039e-14
1.74805e-09
-1.20688e-07
-1.19271e-14
1.19208e-09
-1.3116e-07
-5.61681e-15
-2.04662e-10
-9.31786e-08
-5.74615e-15
-3.18169e-09
-6.82549e-08
-3.72984e-14
-5.49211e-09
-4.74411e-08
-5.15837e-14
-5.40544e-09
-2.47566e-08
-2.41463e-14
-3.28354e-09
-1.18748e-08
-7.42197e-15
-1.08128e-09
-5.27601e-09
-2.434e-15
-1.67386e-10
-1.47257e-09
-4.67563e-16
-2.16897e-10
-6.13953e-17
3.85339e-12
-7.53188e-09
-6.32909e-16
8.69739e-11
-2.33272e-08
-7.11241e-15
5.10318e-10
-4.33546e-08
-9.43207e-15
1.33815e-09
-6.9312e-08
-1.01332e-14
1.75118e-09
-9.67864e-08
-1.44689e-14
1.55002e-09
-1.20487e-07
-1.24813e-14
9.03574e-10
-1.30514e-07
-1.28415e-15
-2.1328e-11
-9.22506e-08
-2.79362e-15
-3.16738e-09
-6.48009e-08
-3.59226e-14
-5.50503e-09
-4.40489e-08
-4.50918e-14
-5.26513e-09
-2.34745e-08
-1.84478e-14
-3.02095e-09
-1.08291e-08
-5.02753e-15
-9.58977e-10
-4.56831e-09
-1.61252e-15
-1.47012e-10
-1.23775e-09
-3.3252e-16
-1.81102e-10
-5.08303e-17
4.84478e-12
-7.53672e-09
-3.06429e-15
9.64098e-11
-2.34188e-08
-7.62913e-15
6.01096e-10
-4.38593e-08
-4.9879e-15
1.3982e-09
-7.01091e-08
-1.10836e-14
1.60831e-09
-9.69965e-08
-8.16226e-15
1.20535e-09
-1.20084e-07
-1.90549e-14
4.56604e-10
-1.29765e-07
-1.98228e-14
1.11728e-10
-9.19028e-08
-8.42224e-16
-3.17707e-09
-6.12294e-08
-2.97915e-14
-5.49987e-09
-4.05208e-08
-4.29856e-14
-5.04649e-09
-2.18892e-08
-1.79082e-14
-2.74737e-09
-9.80715e-09
-5.1851e-15
-8.4239e-10
-3.93669e-09
-1.40032e-15
-1.27804e-10
-1.03559e-09
-2.72697e-16
-1.50223e-10
-4.15642e-17
5.79756e-12
-7.54252e-09
-2.91365e-15
1.08237e-10
-2.35212e-08
-1.05506e-14
6.91296e-10
-4.44424e-08
-6.21513e-15
1.37597e-09
-7.07938e-08
-9.85268e-15
1.31205e-09
-9.69326e-08
-5.76555e-15
6.67263e-10
-1.1944e-07
-1.55323e-14
-1.85527e-10
-1.28912e-07
-1.55383e-14
1.36146e-10
-9.22216e-08
5.14545e-17
-3.22215e-09
-5.75884e-08
-2.57762e-14
-5.44085e-09
-3.6941e-08
-3.88777e-14
-4.75132e-09
-2.00243e-08
-2.05219e-14
-2.47023e-09
-8.82973e-09
-6.15666e-15
-7.32877e-10
-3.38032e-09
-1.46431e-15
-1.0993e-10
-8.63286e-10
-2.63317e-16
-1.2387e-10
-3.66518e-17
6.81323e-12
-7.54933e-09
-1.27617e-15
1.24382e-10
-2.36388e-08
-8.92845e-15
7.59287e-10
-4.50773e-08
-4.8558e-15
1.23461e-09
-7.12691e-08
-1.11373e-14
8.29095e-10
-9.6527e-08
-1.72812e-14
-1.06221e-10
-1.18504e-07
-1.75711e-14
-1.0438e-09
-1.27975e-07
-1.32219e-14
3.41876e-11
-9.3297e-08
7.21773e-15
-3.30327e-09
-5.39782e-08
-2.16276e-14
-5.28357e-09
-3.34862e-08
-3.22575e-14
-4.39933e-09
-1.8022e-08
-1.9578e-14
-2.19675e-09
-7.90911e-09
-6.2605e-15
-6.31626e-10
-2.89595e-09
-1.41864e-15
-9.35198e-11
-7.17916e-10
-2.50138e-16
-1.01627e-10
-3.38462e-17
7.81364e-12
-7.55714e-09
-3.07773e-15
1.44124e-10
-2.37751e-08
-8.97859e-15
7.80255e-10
-4.57135e-08
-4.1951e-15
9.54817e-10
-7.14437e-08
-1.32927e-14
1.71425e-10
-9.57436e-08
-4.70451e-15
-1.0735e-09
-1.17259e-07
-1.32893e-14
-2.05685e-09
-1.26991e-07
-1.61104e-14
-2.05756e-10
-9.51475e-08
7.35399e-15
-3.47618e-09
-5.05217e-08
-1.6787e-14
-5.067e-09
-3.04124e-08
-2.64483e-14
-4.02437e-09
-1.60632e-08
-1.82861e-14
-1.9349e-09
-7.06175e-09
-6.29198e-15
-5.39686e-10
-2.4811e-09
-1.36526e-15
-7.86814e-11
-5.96885e-10
-2.468e-16
-8.30973e-11
-3.0367e-17
8.86689e-12
-7.56601e-09
-6.41248e-16
1.66445e-10
-2.39327e-08
-9.30764e-15
7.3508e-10
-4.62821e-08
-5.46553e-15
5.3015e-10
-7.12388e-08
-1.249e-14
-6.48451e-10
-9.4565e-08
-1.69462e-14
-2.22114e-09
-1.15687e-07
-1.36164e-14
-3.29085e-09
-1.25922e-07
-1.49332e-14
-7.44619e-10
-9.76943e-08
7.70821e-15
-3.73971e-09
-4.73918e-08
-1.01725e-14
-4.80628e-09
-2.79794e-08
-2.2526e-14
-3.63716e-09
-1.43012e-08
-1.46817e-14
-1.68679e-09
-6.30846e-09
-5.48211e-15
-4.56897e-10
-2.13434e-09
-1.37073e-15
-6.54223e-11
-4.97863e-10
-2.27842e-16
-6.78984e-11
-2.80004e-17
9.83918e-12
-7.57585e-09
-2.14182e-15
1.84923e-10
-2.41078e-08
-7.11807e-15
6.0047e-10
-4.66977e-08
-6.52418e-15
-4.38113e-11
-7.05945e-08
-1.4304e-14
-1.61965e-09
-9.29892e-08
-9.69675e-15
-3.52487e-09
-1.13781e-07
-8.94805e-15
-4.82757e-09
-1.24619e-07
-1.5034e-15
-1.87222e-09
-1.0065e-07
-5.65791e-15
-4.08499e-09
-4.51465e-08
-9.05913e-15
-4.49531e-09
-2.64118e-08
-1.75894e-14
-3.23825e-09
-1.28867e-08
-1.13012e-14
-1.45163e-09
-5.66856e-09
-4.57857e-15
-3.82577e-10
-1.85295e-09
-1.18447e-15
-5.36965e-11
-4.18407e-10
-1.96743e-16
-5.56329e-11
-2.47297e-17
1.06481e-11
-7.5865e-09
-2.05772e-15
1.89958e-10
-2.42871e-08
-7.6837e-15
3.64097e-10
-4.68718e-08
-4.62854e-15
-7.32084e-10
-6.94983e-08
-1.63766e-14
-2.67324e-09
-9.1048e-08
-1.34568e-14
-4.91304e-09
-1.11542e-07
-1.63303e-14
-6.64248e-09
-1.2289e-07
-2.6615e-15
-3.87866e-09
-1.03413e-07
-5.94373e-15
-4.39937e-09
-4.47016e-08
9.79822e-15
-4.13326e-09
-2.57631e-08
-1.19385e-14
-2.83123e-09
-1.20287e-08
-9.69075e-15
-1.22916e-09
-5.15946e-09
-3.78588e-15
-3.16039e-10
-1.63308e-09
-9.93882e-16
-4.34365e-11
-3.5594e-10
-1.65563e-16
-4.58809e-11
-2.08018e-17
1.09207e-11
-7.59742e-09
-1.38045e-15
1.72097e-10
-2.44482e-08
-7.95117e-15
4.73072e-11
-4.6747e-08
-5.80957e-15
-1.41875e-09
-6.80322e-08
-1.46608e-14
-3.60255e-09
-8.88642e-08
-1.47069e-14
-6.08184e-09
-1.09062e-07
-1.20693e-14
-8.25006e-09
-1.20721e-07
4.74675e-15
-6.28503e-09
-1.05378e-07
-2.74144e-14
-4.22856e-09
-4.68718e-08
2.97541e-14
-3.65002e-09
-2.66442e-08
-6.90544e-15
-2.39488e-09
-1.17493e-08
-7.16837e-15
-1.01659e-09
-4.78437e-09
-3.15884e-15
-2.56378e-10
-1.46799e-09
-9.41954e-16
-3.45541e-11
-3.07587e-10
-1.44816e-16
-3.82062e-11
-1.86064e-17
1.06014e-11
-7.60801e-09
-4.81821e-15
1.33877e-10
-2.45715e-08
-6.69138e-15
-2.72864e-10
-4.63403e-08
-8.14467e-15
-1.91473e-09
-6.63904e-08
-1.51299e-14
-4.09289e-09
-8.6686e-08
-1.0652e-14
-6.49597e-09
-1.06659e-07
-1.54618e-14
-8.66356e-09
-1.18554e-07
-6.57587e-15
-7.31136e-09
-1.06731e-07
-3.80649e-15
-2.74804e-09
-5.14693e-08
2.23318e-14
-2.85293e-09
-2.73725e-08
-9.18103e-15
-1.90633e-09
-1.15115e-08
-7.18128e-15
-8.12261e-10
-4.54428e-09
-2.4746e-15
-2.03118e-10
-1.34505e-09
-5.88308e-16
-2.69771e-11
-2.7004e-10
-1.09505e-16
-3.21651e-11
-1.2486e-17
9.95192e-12
-7.61797e-09
1.26529e-15
8.79484e-11
-2.46495e-08
-6.36834e-15
-5.08705e-10
-4.57436e-08
-7.6294e-15
-2.09223e-09
-6.48068e-08
-1.44414e-14
-3.98679e-09
-8.47915e-08
-8.37524e-15
-5.92822e-09
-1.04718e-07
-1.26484e-14
-7.53609e-09
-1.16946e-07
-9.06075e-15
-6.14263e-09
-1.08124e-07
-3.40765e-15
1.55597e-10
-5.77728e-08
1.77697e-14
-1.77218e-09
-2.63649e-08
-5.04765e-15
-1.40466e-09
-1.14828e-08
-5.70019e-15
-6.22582e-10
-4.39425e-09
-2.16479e-15
-1.57028e-10
-1.24813e-09
-5.04448e-16
-2.0696e-11
-2.4027e-10
-9.68991e-17
-2.7371e-11
-1.07634e-17
9.23168e-12
-7.62719e-09
-3.65209e-15
4.8269e-11
-2.46885e-08
-7.17196e-15
-6.18524e-10
-4.50768e-08
-7.58439e-15
-1.97168e-09
-6.34537e-08
-1.5767e-14
-3.41245e-09
-8.33507e-08
-1.41365e-14
-4.69243e-09
-1.03438e-07
-1.11498e-14
-5.44034e-09
-1.16198e-07
-5.30853e-15
-3.75153e-09
-1.09813e-07
-2.9859e-14
3.15501e-09
-6.46794e-08
1.14319e-15
-5.81066e-10
-2.3286e-08
1.08606e-14
-9.30133e-10
-1.14222e-08
-3.16547e-15
-4.55772e-10
-4.22306e-09
-1.87208e-15
-1.18775e-10
-1.16583e-09
-5.39806e-16
-1.56711e-11
-2.15951e-10
-8.4535e-17
-2.35358e-11
-1.00124e-17
8.77308e-12
-7.63597e-09
1.16714e-15
2.12555e-11
-2.4701e-08
-6.72743e-15
-6.24438e-10
-4.44312e-08
-8.09502e-15
-1.69384e-09
-6.23843e-08
-1.44223e-14
-2.68362e-09
-8.23609e-08
-8.20475e-15
-3.38292e-09
-1.02738e-07
-1.25067e-14
-3.36999e-09
-1.16211e-07
-2.19125e-14
-1.6414e-09
-1.11541e-07
-3.75209e-15
4.52609e-09
-7.08468e-08
-1.45527e-14
6.14724e-10
-1.96917e-08
5.63336e-15
-5.08271e-10
-1.11552e-08
-2.59874e-15
-3.15748e-10
-4.07137e-09
-1.38877e-15
-8.78164e-11
-1.10373e-09
-4.24251e-16
-1.17598e-11
-1.95384e-10
-6.74776e-17
-2.04442e-11
-8.48171e-18
8.48542e-12
-7.64446e-09
-2.65086e-15
4.38703e-12
-2.46969e-08
-7.88513e-15
-5.83421e-10
-4.38434e-08
-6.69662e-15
-1.41164e-09
-6.1556e-08
-1.77486e-14
-2.06698e-09
-8.17056e-08
-9.54709e-15
-2.40302e-09
-1.02402e-07
-1.18811e-14
-1.96364e-09
-1.1665e-07
-7.19552e-15
-4.59875e-10
-1.13045e-07
-2.0574e-14
4.40532e-09
-7.5712e-08
2.20562e-15
1.52656e-09
-1.6972e-08
-5.00411e-15
-1.43856e-10
-1.06098e-08
-2.82569e-15
-1.99797e-10
-3.92392e-09
-9.98815e-16
-6.29603e-11
-1.03998e-09
-3.50594e-16
-8.75237e-12
-1.79211e-10
-5.43822e-17
-1.79547e-11
-7.41585e-18
8.49194e-12
-7.65295e-09
-8.40344e-16
-8.13725e-12
-2.46803e-08
-7.23189e-15
-5.43727e-10
-4.33078e-08
-6.67614e-15
-1.20054e-09
-6.08992e-08
-1.90772e-14
-1.64539e-09
-8.12607e-08
-1.58786e-14
-1.79372e-09
-1.02254e-07
-1.21952e-14
-1.21021e-09
-1.17234e-07
-1.02757e-14
-8.12953e-12
-1.14247e-07
-1.37811e-14
3.66295e-09
-7.93831e-08
1.20036e-14
1.99167e-09
-1.54019e-08
-1.35722e-14
1.91446e-10
-1.00095e-08
-3.25783e-15
-1.03527e-10
-3.79671e-09
-6.65642e-16
-4.30588e-11
-9.8884e-10
-2.98936e-16
-6.44328e-12
-1.67778e-10
-4.82121e-17
-1.62319e-11
-6.24532e-18
8.52677e-12
-7.66147e-09
-2.379e-15
-2.38511e-11
-2.46479e-08
-8.22e-15
-5.29184e-10
-4.28025e-08
-1.09099e-14
-1.06467e-09
-6.03637e-08
-1.27336e-14
-1.37964e-09
-8.09458e-08
2.53546e-15
-1.43479e-09
-1.02199e-07
-2.36558e-14
-8.6635e-10
-1.17802e-07
-8.5636e-15
3.13841e-11
-1.15145e-07
-1.13358e-14
2.53527e-09
-8.1887e-08
-8.78746e-15
2.19883e-09
-1.51269e-08
-6.49215e-15
5.22049e-10
-9.67337e-09
-9.23746e-16
-1.84831e-11
-3.73983e-09
-3.51413e-16
-2.61787e-11
-9.5632e-10
-2.31553e-16
-4.63238e-12
-1.58384e-10
-4.20848e-17
-1.5046e-11
-5.44929e-18
8.3971e-12
-7.66987e-09
-1.76507e-15
-4.66819e-11
-2.45928e-08
-7.42205e-15
-5.30723e-10
-4.23184e-08
-1.04394e-14
-9.56197e-10
-5.99383e-08
-1.31408e-14
-1.16556e-09
-8.07365e-08
8.77719e-16
-1.1486e-09
-1.02216e-07
-3.41753e-14
-6.46991e-10
-1.18304e-07
-2.1356e-14
-6.40219e-12
-1.15786e-07
-2.7021e-14
1.46388e-09
-8.33572e-08
-6.22142e-14
2.59318e-09
-1.62705e-08
9.28664e-15
9.5067e-10
-9.63129e-09
1.18626e-14
9.08789e-11
-3.87552e-09
-4.90766e-17
-9.82302e-12
-9.55839e-10
-1.57728e-16
-3.03153e-12
-1.53808e-10
-2.83461e-17
-1.41874e-11
-4.99016e-18
7.8373e-12
-7.67771e-09
-2.62286e-15
-7.39066e-11
-2.4511e-08
-6.90324e-15
-5.16602e-10
-4.18757e-08
-1.15226e-14
-8.04925e-10
-5.965e-08
-1.33983e-14
-8.74184e-10
-8.06672e-08
-1.24423e-14
-7.23751e-10
-1.02366e-07
-5.39774e-15
-1.99089e-10
-1.18828e-07
-4.24819e-15
3.93953e-10
-1.16379e-07
2.62495e-15
1.35443e-09
-8.43177e-08
-2.11503e-14
3.78491e-09
-1.87011e-08
6.86197e-14
1.7322e-09
-9.09061e-09
1.29275e-14
2.71862e-10
-4.29451e-09
-8.0549e-17
1.27341e-11
-1.01322e-09
-6.1571e-17
-1.41537e-12
-1.70988e-17
-4.37342e-18
7.00398e-12
-7.68471e-09
-1.51466e-15
-9.47715e-11
-2.44093e-08
-6.27458e-15
-4.53908e-10
-4.15166e-08
-1.09254e-14
-5.6514e-10
-5.95387e-08
-1.16336e-14
-4.36937e-10
-8.07955e-08
-8.66492e-15
-5.5583e-11
-1.02748e-07
-1.68613e-14
6.66666e-10
-1.19551e-07
-9.51474e-15
1.52357e-09
-1.17236e-07
-1.38106e-14
2.67837e-09
-8.54725e-08
-1.96158e-14
6.03763e-09
-2.20604e-08
4.10478e-15
3.00735e-09
-6.97982e-09
6.62877e-16
6.38856e-10
-4.65141e-09
4.37977e-16
-1.15812e-09
-1.97216e-17
6.11978e-12
-7.69083e-09
-2.79665e-15
-1.00069e-10
-2.43031e-08
-6.66604e-15
-3.40193e-10
-4.12765e-08
-1.14236e-14
-2.61584e-10
-5.96173e-08
-1.16573e-14
8.28157e-11
-8.11399e-08
-1.08411e-14
7.26241e-10
-1.03391e-07
-1.10152e-14
1.72633e-09
-1.20551e-07
-1.0523e-14
2.98505e-09
-1.18494e-07
-8.16697e-15
4.57705e-09
-8.70644e-08
-1.96699e-14
8.38292e-09
-2.58663e-08
-9.05058e-16
4.46651e-09
-3.45533e-09
9.59486e-15
1.30074e-09
-4.29991e-09
1.34119e-15
-1.35278e-09
1.68824e-18
5.58592e-12
-7.69642e-09
-1.69485e-15
-8.7276e-11
-2.42102e-08
-6.63188e-15
-2.0061e-10
-4.11632e-08
-9.27607e-15
3.73575e-11
-5.98553e-08
-9.56416e-15
5.50049e-10
-8.16526e-08
-1.30555e-14
1.3822e-09
-1.04223e-07
-1.10472e-14
2.57117e-09
-1.2174e-07
-1.03223e-14
4.05317e-09
-1.19976e-07
-1.01847e-14
5.68457e-09
-8.86959e-08
-7.46877e-15
9.30518e-09
-2.9487e-08
1.22947e-15
5.57502e-09
1.28486e-10
-4.78798e-15
2.14931e-09
-3.14654e-09
8.47608e-16
-1.45771e-09
1.12726e-16
5.5117e-12
-7.70193e-09
-2.45987e-15
-6.13702e-11
-2.41433e-08
-6.78647e-15
-6.77714e-11
-4.11568e-08
-1.06887e-14
2.73219e-10
-6.01963e-08
-1.03317e-14
8.76594e-10
-8.22559e-08
-8.29095e-15
1.7845e-09
-1.05131e-07
-1.55245e-14
3.00937e-09
-1.22965e-07
-1.66436e-14
4.45203e-09
-1.21419e-07
-1.16805e-14
5.73659e-09
-8.99804e-08
-1.83007e-14
8.7005e-09
-3.24509e-08
-2.13879e-14
6.0388e-09
2.7323e-09
1.57653e-14
2.90375e-09
-1.65383e-09
3.56888e-15
-1.36294e-09
2.39038e-16
5.88404e-12
-7.70781e-09
-2.36809e-15
-2.94677e-11
-2.4108e-08
-7.04086e-15
3.77594e-11
-4.1224e-08
-9.16533e-15
4.24944e-10
-6.05835e-08
-9.21876e-15
1.04619e-09
-8.28772e-08
-1.03595e-14
1.93349e-09
-1.06018e-07
-1.34353e-14
3.08271e-09
-1.24114e-07
-1.41451e-14
4.33993e-09
-1.22676e-07
-5.7424e-15
5.21771e-09
-9.08582e-08
-7.68389e-15
7.36417e-09
-3.45974e-08
-8.84682e-15
5.92181e-09
4.14666e-09
1.77593e-14
3.38148e-09
-2.75849e-10
3.60463e-15
-1.0907e-09
2.34562e-16
6.48301e-12
-7.71429e-09
-2.30391e-15
1.12282e-12
-2.41026e-08
-7.03335e-15
1.06927e-10
-4.13298e-08
-9.88193e-15
4.95887e-10
-6.09724e-08
-8.97377e-15
1.08023e-09
-8.34616e-08
-1.04935e-14
1.88416e-09
-1.06822e-07
-1.2915e-14
2.89921e-09
-1.25129e-07
-7.79415e-15
3.92647e-09
-1.23703e-07
-2.78093e-14
4.4452e-09
-9.13769e-08
-6.08347e-15
5.77363e-09
-3.59258e-08
-9.31104e-16
5.44346e-09
4.47683e-09
-8.63544e-16
3.58547e-09
7.40304e-10
1.26024e-15
-7.45491e-10
2.78713e-16
7.06155e-12
-7.72135e-09
-2.6146e-15
2.50653e-11
-2.41206e-08
-7.11644e-15
1.40935e-10
-4.14457e-08
-9.31554e-15
5.0275e-10
-6.13342e-08
-8.11316e-15
1.01784e-09
-8.39767e-08
-9.06659e-15
1.70776e-09
-1.07512e-07
-1.35495e-14
2.57034e-09
-1.25992e-07
-5.27068e-15
3.37833e-09
-1.24511e-07
-2.26019e-14
3.62075e-09
-9.16193e-08
-1.93371e-14
4.27436e-09
-3.65794e-08
-1.02203e-14
4.83465e-09
3.91648e-09
-1.08222e-14
3.63337e-09
1.33865e-09
4.25906e-16
-4.09906e-10
1.5181e-16
7.38078e-12
-7.72873e-09
-2.22535e-15
3.9394e-11
-2.41526e-08
-6.54822e-15
1.4647e-10
-4.15527e-08
-9.35139e-15
4.66216e-10
-6.1654e-08
-9.18922e-15
8.99068e-10
-8.44095e-08
-1.2137e-14
1.46919e-09
-1.08082e-07
-9.3503e-15
2.18801e-09
-1.2671e-07
-1.40252e-14
2.80896e-09
-1.25132e-07
-1.10457e-14
2.84507e-09
-9.16554e-08
-3.35559e-15
2.85533e-09
-3.65897e-08
-1.15904e-15
4.10003e-09
2.67175e-09
3.57508e-15
3.56144e-09
1.45031e-09
1.15075e-15
-1.53583e-10
3.84228e-16
7.19978e-12
-7.73593e-09
-2.74537e-15
4.38248e-11
-2.41893e-08
-6.90679e-15
1.33231e-10
-4.16422e-08
-9.19762e-15
4.06899e-10
-6.19276e-08
-8.9864e-15
7.58255e-10
-8.47609e-08
-1.12291e-14
1.21916e-09
-1.08543e-07
-1.07668e-14
1.81919e-09
-1.2731e-07
-1.55344e-14
2.31327e-09
-1.25626e-07
-9.91428e-15
2.30356e-09
-9.16457e-08
-9.4325e-15
1.88377e-09
-3.617e-08
-1.85123e-15
3.33819e-09
1.21734e-09
-1.50323e-14
3.34719e-09
1.14324e-09
-2.16108e-15
3.81738e-12
2.55757e-16
6.32412e-12
-7.74226e-09
-2.30073e-15
3.98155e-11
-2.42227e-08
-6.93247e-15
1.09682e-10
-4.1712e-08
-9.15617e-15
3.392e-10
-6.21571e-08
-8.41056e-15
6.16649e-10
-8.50384e-08
-1.03042e-14
9.85064e-10
-1.08912e-07
-1.15007e-14
1.48621e-09
-1.27811e-07
-1.28203e-14
1.87383e-09
-1.26014e-07
-1.25925e-14
1.78984e-09
-9.15617e-08
-9.00666e-15
9.05375e-10
-3.52855e-08
1.64737e-15
2.11409e-09
1.43495e-12
-3.59239e-15
2.61651e-09
4.14564e-10
-1.299e-15
1.14913e-12
-1.35004e-16
4.63931e-12
-7.7469e-09
-2.8329e-15
2.89542e-11
-2.42471e-08
-7.29231e-15
8.03204e-11
-4.17634e-08
-9.422e-15
2.67967e-10
-6.23448e-08
-8.9731e-15
4.78407e-10
-8.52488e-08
-1.06233e-14
7.68703e-10
-1.09202e-07
-1.33761e-14
1.19906e-09
-1.28242e-07
-1.27138e-14
1.57817e-09
-1.26393e-07
-8.9959e-15
1.65219e-09
-9.16357e-08
-7.25252e-15
9.46118e-10
-3.45795e-08
-3.46465e-15
9.39987e-10
9.00862e-15
1.12903e-09
7.67756e-16
-4.63386e-16
2.66835e-12
-7.74956e-09
-2.73593e-15
1.40552e-11
-2.42585e-08
-6.89497e-15
4.96109e-11
-4.1799e-08
-9.85126e-15
1.96574e-10
-6.24917e-08
-7.80396e-15
3.40401e-10
-8.53927e-08
-1.01195e-14
5.41179e-10
-1.09403e-07
-1.60803e-14
8.57378e-10
-1.28558e-07
-1.5944e-14
1.10407e-09
-1.2664e-07
-7.39163e-15
8.67654e-10
-9.13992e-08
-5.85375e-15
-3.37118e-08
-5.99163e-15
1.1105e-12
-7.75067e-09
-2.82666e-15
-3.14086e-13
-2.4257e-08
-7.94092e-15
2.71071e-11
-4.18264e-08
-9.329e-15
1.43798e-10
-6.26083e-08
-8.30399e-15
2.39612e-10
-8.54886e-08
-1.00194e-14
3.78118e-10
-1.09541e-07
-1.40864e-14
6.27706e-10
-1.28808e-07
-6.85192e-15
8.13915e-10
-1.26826e-07
-1.90297e-14
4.52049e-10
-9.10374e-08
-1.11803e-14
-3.32598e-08
-3.91929e-15
3.09525e-14
-7.7507e-09
-2.83817e-15
-1.19577e-11
-2.4245e-08
-7.14684e-15
1.49956e-11
-4.18533e-08
-9.46668e-15
1.11914e-10
-6.27052e-08
-6.81309e-15
1.77378e-10
-8.55541e-08
-1.1443e-14
2.8151e-10
-1.09645e-07
-1.52485e-14
5.11205e-10
-1.29038e-07
-8.20549e-15
7.11945e-10
-1.27027e-07
-1.59619e-14
4.40931e-10
-9.07663e-08
-6.92227e-15
-3.28188e-08
-3.45226e-15
-5.903e-13
-7.75011e-09
-2.85008e-15
-1.97959e-11
-2.42259e-08
-8.18736e-15
1.2573e-11
-4.18857e-08
-1.01137e-14
9.70738e-11
-6.27896e-08
-1.06439e-14
1.42691e-10
-8.55998e-08
-6.29209e-15
2.25786e-10
-1.09728e-07
-9.87955e-15
4.45963e-10
-1.29258e-07
-8.63164e-15
6.58641e-10
-1.27239e-07
-5.33615e-15
4.10371e-10
-9.0518e-08
3.86018e-15
-3.24083e-08
2.47959e-14
-8.3143e-13
-7.74928e-09
-2.84351e-15
-2.32857e-11
-2.42034e-08
-8.66167e-15
1.85211e-11
-4.19275e-08
-9.39567e-15
9.59002e-11
-6.2867e-08
3.87661e-15
1.28683e-10
-8.56326e-08
-2.29837e-14
2.00086e-10
-1.09799e-07
-1.06972e-15
4.19478e-10
-1.29477e-07
-3.91388e-14
6.47994e-10
-1.27468e-07
-1.58582e-14
4.14522e-10
-9.02845e-08
-9.67184e-15
-3.1994e-08
-3.56473e-14
-7.97523e-13
-7.74848e-09
-2.91174e-15
-2.22878e-11
-2.41819e-08
-1.01154e-14
3.10063e-11
-4.19808e-08
-9.7518e-15
1.04126e-10
-6.294e-08
-1.15682e-15
1.27853e-10
-8.56564e-08
-1.60436e-14
1.92292e-10
-1.09864e-07
1.27922e-14
4.14027e-10
-1.29699e-07
-2.96887e-14
6.55439e-10
-1.27709e-07
-1.86423e-14
4.24627e-10
-9.00537e-08
-1.12784e-14
-3.15694e-08
-7.22874e-15
-5.29675e-13
-7.74795e-09
-2.60579e-15
-1.70649e-11
-2.41654e-08
-9.38204e-15
4.81163e-11
-4.2046e-08
-7.14561e-15
1.18458e-10
-6.30103e-08
4.83009e-15
1.34994e-10
-8.5673e-08
-2.54747e-14
1.95579e-10
-1.09924e-07
-1.38222e-14
4.21764e-10
-1.29925e-07
-2.87337e-14
6.75772e-10
-1.27963e-07
1.24998e-15
4.4274e-10
-8.98207e-08
-5.68588e-16
-3.11266e-08
9.24322e-16
-7.70962e-14
-7.74787e-09
-2.53555e-15
-8.16465e-12
-2.41573e-08
-1.13517e-14
6.83526e-11
-4.21225e-08
-7.65902e-15
1.36428e-10
-6.30784e-08
1.05635e-14
1.46874e-10
-8.56834e-08
-2.5658e-14
2.05931e-10
-1.09984e-07
-8.16533e-15
4.37813e-10
-1.30157e-07
-2.31916e-14
7.03911e-10
-1.28229e-07
-1.24828e-14
4.65066e-10
-8.95819e-08
-1.48833e-14
-3.06615e-08
-8.56341e-16
5.39002e-13
-7.74841e-09
-2.61317e-15
3.36096e-12
-2.41601e-08
-8.1328e-15
8.97712e-11
-4.22089e-08
-8.10542e-15
1.55218e-10
-6.31438e-08
-1.30003e-14
1.60467e-10
-8.56887e-08
-6.49429e-15
2.19743e-10
-1.10043e-07
-1.39885e-14
4.58639e-10
-1.30396e-07
-6.80809e-15
7.37313e-10
-1.28508e-07
-2.13049e-14
4.91278e-10
-8.93358e-08
-1.20624e-14
-3.01703e-08
-1.26588e-15
1.29313e-12
-7.7497e-09
-2.77121e-15
1.61144e-11
-2.41749e-08
-8.75488e-15
1.10684e-10
-4.23035e-08
-7.80171e-15
1.73295e-10
-6.32065e-08
-7.36612e-15
1.73813e-10
-8.56892e-08
-9.35903e-15
2.34755e-10
-1.10104e-07
-1.51135e-14
4.81697e-10
-1.30643e-07
-1.44912e-14
7.74016e-10
-1.28801e-07
-1.14436e-14
5.20311e-10
-8.90821e-08
-5.13078e-15
-2.965e-08
-4.00823e-15
2.17234e-12
-7.75188e-09
-2.62634e-15
2.84046e-11
-2.42012e-08
-8.59786e-15
1.29295e-10
-4.24043e-08
-7.42534e-15
1.88589e-10
-6.32658e-08
-6.0009e-15
1.85213e-10
-8.56858e-08
-1.15311e-14
2.49096e-10
-1.10168e-07
-1.64793e-14
5.05517e-10
-1.30899e-07
-1.10535e-14
8.12877e-10
-1.29108e-07
-1.78603e-14
5.51823e-10
-8.8821e-08
-8.81308e-15
-2.90982e-08
-5.41986e-15
3.15478e-12
-7.75503e-09
-2.97772e-15
3.84613e-11
-2.42365e-08
-8.42721e-15
1.44233e-10
-4.25101e-08
-6.59357e-15
1.99736e-10
-6.33213e-08
-5.76088e-15
1.93628e-10
-8.56797e-08
-1.11655e-14
2.61646e-10
-1.10236e-07
-1.86593e-14
5.29062e-10
-1.31167e-07
-1.4078e-14
8.53335e-10
-1.29432e-07
-9.81906e-15
5.85763e-10
-8.85535e-08
-2.2825e-15
-2.85124e-08
-2.9081e-15
4.21369e-12
-7.75924e-09
-3.04007e-15
4.47187e-11
-2.4277e-08
-8.63864e-15
1.54356e-10
-4.26198e-08
-6.99631e-15
2.05716e-10
-6.33726e-08
-6.22539e-15
1.98408e-10
-8.56723e-08
-1.0473e-14
2.71835e-10
-1.10309e-07
-1.7197e-14
5.52027e-10
-1.31447e-07
-1.20803e-14
8.95147e-10
-1.29775e-07
-9.40952e-15
6.2202e-10
-8.82804e-08
-7.90975e-15
-2.78904e-08
2.82718e-15
5.32477e-12
-7.76457e-09
-3.50903e-15
4.64298e-11
-2.43181e-08
-8.15194e-15
1.59468e-10
-4.27328e-08
-6.23895e-15
2.06507e-10
-6.34197e-08
-5.82163e-15
1.99797e-10
-8.56656e-08
-1.18811e-14
2.79948e-10
-1.1039e-07
-1.136e-14
5.74776e-10
-1.31742e-07
-1.94412e-14
9.38778e-10
-1.30139e-07
-1.9189e-14
6.61312e-10
-8.80029e-08
-1.87074e-14
-2.72292e-08
-2.96591e-14
6.48427e-12
-7.77105e-09
-3.02349e-15
4.36798e-11
-2.43553e-08
-1.00224e-14
1.5993e-10
-4.2849e-08
-7.19928e-15
2.02563e-10
-6.34623e-08
-6.40759e-15
1.98363e-10
-8.56614e-08
-1.00406e-14
2.86496e-10
-1.10478e-07
-3.11642e-14
5.98082e-10
-1.32053e-07
6.01118e-15
9.84942e-10
-1.30526e-07
-5.51657e-15
7.0412e-10
-8.77221e-08
-7.92398e-16
-2.65249e-08
2.30701e-14
7.6837e-12
-7.77874e-09
-3.55459e-15
3.76616e-11
-2.43853e-08
-9.53875e-15
1.57143e-10
-4.29685e-08
-6.52762e-15
1.95441e-10
-6.35007e-08
-5.7789e-15
1.95621e-10
-8.56615e-08
-1.24388e-14
2.9352e-10
-1.10576e-07
-2.73938e-14
6.2341e-10
-1.32383e-07
-1.65231e-15
1.03467e-09
-1.30937e-07
-1.42252e-14
7.50812e-10
-8.74382e-08
-9.31924e-15
-2.57741e-08
-4.11841e-15
8.94356e-12
-7.78768e-09
-3.63934e-15
3.02786e-11
-2.44066e-08
-1.03727e-14
1.52777e-10
-4.3091e-08
-7.41895e-15
1.86874e-10
-6.35348e-08
-9.8536e-15
1.93288e-10
-8.56679e-08
-8.37525e-15
3.02665e-10
-1.10685e-07
-2.38217e-14
6.52349e-10
-1.32733e-07
-2.61015e-16
1.08953e-09
-1.31375e-07
-2.1864e-14
8.0237e-10
-8.71511e-08
-1.83868e-14
-2.49717e-08
-3.04455e-15
1.02811e-11
-7.79796e-09
-4.30409e-15
2.404e-11
-2.44204e-08
-9.77823e-15
1.49033e-10
-4.3216e-08
-6.49069e-15
1.7935e-10
-6.35651e-08
-9.15222e-15
1.9376e-10
-8.56823e-08
-1.06261e-14
3.16287e-10
-1.10808e-07
-3.24082e-14
6.86929e-10
-1.33103e-07
-1.93441e-15
1.1513e-09
-1.31839e-07
-9.74032e-15
8.59985e-10
-8.68597e-08
-3.35182e-15
-2.41117e-08
-1.91135e-15
1.17416e-11
-7.8097e-09
-3.90654e-15
2.14342e-11
-2.443e-08
-1.16124e-14
1.47843e-10
-4.33424e-08
-5.80446e-15
1.74953e-10
-6.35923e-08
-1.30837e-14
1.99034e-10
-8.57063e-08
-8.63206e-15
3.36487e-10
-1.10945e-07
-1.14561e-14
7.29041e-10
-1.33496e-07
-1.75239e-14
1.22145e-09
-1.32331e-07
-1.44643e-14
9.24237e-10
-8.65625e-08
-1.2892e-14
-2.31875e-08
-9.04844e-16
1.33508e-11
-7.82305e-09
-4.72842e-15
2.47305e-11
-2.44414e-08
-1.03289e-14
1.51042e-10
-4.34687e-08
-4.63724e-15
1.75863e-10
-6.36171e-08
-1.31386e-14
2.10884e-10
-8.57413e-08
-1.10239e-14
3.64541e-10
-1.11099e-07
-1.79876e-14
7.80184e-10
-1.33911e-07
-1.60483e-14
1.30148e-09
-1.32853e-07
-1.05708e-14
9.96325e-10
-8.62573e-08
-3.7492e-15
-2.21911e-08
-4.10972e-15
1.51529e-11
-7.8382e-09
-4.98892e-15
3.53553e-11
-2.44616e-08
-1.05899e-14
1.59456e-10
-4.35929e-08
-5.10301e-15
1.83071e-10
-6.36408e-08
-1.48461e-14
2.30027e-10
-8.57883e-08
-9.97409e-15
4.01511e-10
-1.1127e-07
-1.51615e-14
8.41633e-10
-1.34352e-07
-1.61033e-14
1.39264e-09
-1.33404e-07
-1.43975e-14
1.07716e-09
-8.59418e-08
-6.11776e-15
-2.1114e-08
-6.97961e-15
1.71622e-11
-7.85537e-09
-5.73559e-15
5.3793e-11
-2.44983e-08
-9.61644e-15
1.73225e-10
-4.37123e-08
-4.0387e-15
1.97032e-10
-6.36646e-08
-1.46763e-14
2.56615e-10
-8.58478e-08
-1.01313e-14
4.47782e-10
-1.11461e-07
-1.53013e-14
9.14277e-10
-1.34818e-07
-1.43962e-14
1.49624e-09
-1.33986e-07
-1.51024e-14
1.16808e-09
-8.56136e-08
-5.56956e-15
-1.99459e-08
-3.80591e-15
1.93969e-11
-7.87476e-09
-4.96638e-15
7.90809e-11
-2.45579e-08
-1.05476e-14
1.90982e-10
-4.38242e-08
-4.50931e-15
2.16541e-10
-6.36902e-08
-1.49913e-14
2.89492e-10
-8.59207e-08
-1.09633e-14
5.02931e-10
-1.11675e-07
-1.82018e-14
9.98445e-10
-1.35314e-07
-1.27216e-14
1.61336e-09
-1.34601e-07
-1.48953e-14
1.27063e-09
-8.52709e-08
-1.48141e-15
-1.86753e-08
-4.01238e-15
2.1802e-11
-7.89656e-09
-5.63313e-15
1.08995e-10
-2.46451e-08
-9.99727e-15
2.10502e-10
-4.39257e-08
-4.324e-15
2.39606e-10
-6.37193e-08
-1.77289e-14
3.27064e-10
-8.60082e-08
-9.48787e-15
5.66092e-10
-1.11914e-07
-1.36019e-14
1.09401e-09
-1.35841e-07
-1.42202e-14
1.74489e-09
-1.35251e-07
-1.8337e-14
1.38662e-09
-8.49126e-08
-3.34857e-15
-1.72887e-08
-4.61701e-15
2.42795e-11
-7.92084e-09
-5.94582e-15
1.3981e-10
-2.47607e-08
-1.02349e-14
2.28078e-10
-4.4014e-08
-6.00028e-15
2.62773e-10
-6.3754e-08
-1.24932e-14
3.66457e-10
-8.61119e-08
-1.36872e-14
6.34853e-10
-1.12182e-07
-1.62076e-14
1.19936e-09
-1.36406e-07
-1.78098e-14
1.89071e-09
-1.35943e-07
-8.58278e-15
1.5177e-09
-8.45396e-08
-1.74734e-15
-1.5771e-08
-1.4967e-15
2.66288e-11
-7.94747e-09
-6.83702e-15
1.67044e-10
-2.49011e-08
-9.34139e-15
2.39651e-10
-4.40866e-08
-6.95045e-15
2.81918e-10
-6.37963e-08
-1.5375e-14
4.03875e-10
-8.62338e-08
-1.14933e-14
7.05257e-10
-1.12484e-07
-1.06385e-14
1.31113e-09
-1.37012e-07
-2.01343e-14
2.04934e-09
-1.36681e-07
-1.14961e-14
1.66539e-09
-8.41557e-08
-6.79845e-15
-1.41056e-08
4.5307e-15
2.85293e-11
-7.976e-09
-7.06371e-15
1.85666e-10
-2.50582e-08
-9.84989e-15
2.40423e-10
-4.41413e-08
-7.33728e-15
2.9155e-10