/*--------------------------------*- C++ -*----------------------------------*\
| =========                 |                                                 |
| \\      /  F ield         | OpenFOAM: The Open Source CFD Toolbox           |
|  \\    /   O peration     | Version:  v2012                                 |
|   \\  /    A nd           | Website:  www.openfoam.com                      |
|    \\/     M anipulation  |                                                 |
\*---------------------------------------------------------------------------*/
FoamFile
{
    version     2.0;
    format      ascii;
    class       surfaceScalarField;
    location    "0.9";
    object      phi;
}
// * * * * * * * * * * * * * * * * * * * * * * * * * * * * * * * * * * * * * //

dimensions      [0 3 -1 0 0 0 0];
oriented        oriented;


internalField   nonuniform List<scalar> 
6431
(
1.69027e-11
-1.55836e-10
2.38169e-16
1.74526e-11
-1.59641e-10
6.53916e-16
1.79136e-11
-1.629e-10
8.5628e-16
1.82788e-11
-1.65553e-10
7.41609e-16
1.85412e-11
-1.67635e-10
3.62161e-16
1.86913e-11
-1.68949e-10
-1.78823e-16
1.87185e-11
-1.69478e-10
-6.93664e-16
1.86135e-11
-1.69031e-10
-1.03908e-15
1.83663e-11
-1.67482e-10
-1.11196e-15
1.7962e-11
-1.64823e-10
-9.22508e-16
1.73862e-11
-1.60884e-10
-5.89494e-16
1.66387e-11
-1.5593e-10
-2.15277e-16
1.57394e-11
-1.50135e-10
1.70623e-16
1.47002e-11
-1.43553e-10
2.53319e-16
1.35234e-11
-1.36142e-10
1.39907e-16
1.2214e-11
-1.27789e-10
1.60327e-17
1.07824e-11
-1.18542e-10
-4.08718e-17
9.24551e-12
-1.08442e-10
-4.17137e-17
7.62634e-12
-9.74774e-11
-1.92724e-17
5.9551e-12
-8.55811e-11
2.87819e-20
4.2702e-12
-7.25459e-11
7.10149e-18
2.62991e-12
-5.78166e-11
5.34326e-18
1.10633e-12
-4.03144e-11
8.85251e-19
-1.72134e-11
-2.35799e-18
1.70397e-11
-1.56489e-10
5.92046e-16
1.75641e-11
-1.60258e-10
1.67209e-15
1.79946e-11
-1.63458e-10
2.16481e-15
1.8333e-11
-1.6601e-10
1.8444e-15
1.85789e-11
-1.67945e-10
8.63337e-16
1.87248e-11
-1.69073e-10
-5.07532e-16
1.87585e-11
-1.69395e-10
-1.80055e-15
1.86686e-11
-1.68742e-10
-2.65711e-15
1.84407e-11
-1.67015e-10
-2.82981e-15
1.80484e-11
-1.64229e-10
-2.3451e-15
1.7463e-11
-1.60215e-10
-1.49343e-15
1.66861e-11
-1.55195e-10
-5.64213e-16
1.57606e-11
-1.49287e-10
4.97055e-16
1.47079e-11
-1.42548e-10
7.13986e-16
1.35264e-11
-1.34969e-10
3.96336e-16
1.22147e-11
-1.26465e-10
4.42437e-17
1.078e-11
-1.17092e-10
-1.25526e-16
9.23824e-12
-1.06892e-10
-1.27977e-16
7.61285e-12
-9.58519e-11
-5.77297e-17
5.93467e-12
-8.39078e-11
5.71109e-18
4.24251e-12
-7.0859e-11
2.97918e-17
2.59444e-12
-5.61714e-11
2.23993e-17
1.06398e-12
-3.87841e-11
4.57723e-18
-1.61478e-11
-8.52452e-18
1.72527e-11
-1.57135e-10
9.12906e-16
1.7754e-11
-1.60868e-10
2.66111e-15
1.81559e-11
-1.64011e-10
3.44788e-15
1.84675e-11
-1.66466e-10
2.92006e-15
1.86944e-11
-1.68254e-10
1.32795e-15
1.88308e-11
-1.6919e-10
-8.91416e-16
1.88644e-11
-1.69293e-10
-2.99357e-15
1.87832e-11
-1.68422e-10
-4.39335e-15
1.85695e-11
-1.66507e-10
-4.68476e-15
1.81848e-11
-1.63596e-10
-3.90028e-15
1.75842e-11
-1.5952e-10
-2.50015e-15
1.677e-11
-1.54451e-10
-9.51259e-16
1.58093e-11
-1.48437e-10
8.63524e-16
1.47349e-11
-1.41537e-10
1.25195e-15
1.35418e-11
-1.33785e-10
7.0765e-16
1.22219e-11
-1.25126e-10
8.19616e-17
1.07784e-11
-1.15626e-10
-2.31703e-16
9.22596e-12
-1.05327e-10
-2.4188e-16
7.58813e-12
-9.42136e-11
-1.11771e-16
5.89669e-12
-8.22229e-11
1.14291e-17
4.19139e-12
-6.91608e-11
6.07312e-17
2.5321e-12
-5.45158e-11
4.65088e-17
1.00642e-12
-3.72579e-11
9.21772e-18
-1.51383e-11
-1.86958e-17
1.75305e-11
-1.57775e-10
1.09274e-15
1.8012e-11
-1.61473e-10
3.24294e-15
1.83923e-11
-1.64562e-10
4.2025e-15
1.8684e-11
-1.66921e-10
3.52815e-15
1.88945e-11
-1.68557e-10
1.55169e-15
1.9018e-11
-1.69291e-10
-1.17504e-15
1.90418e-11
-1.69163e-10
-3.75114e-15
1.89542e-11
-1.6806e-10
-5.45739e-15
1.87367e-11
-1.65952e-10
-5.80664e-15
1.83446e-11
-1.62917e-10
-4.83807e-15
1.77241e-11
-1.58792e-10
-3.11364e-15
1.68773e-11
-1.53686e-10
-1.18998e-15
1.58843e-11
-1.47571e-10
1.082e-15
1.47852e-11
-1.40512e-10
1.59599e-15
1.35736e-11
-1.32584e-10
9.18766e-16
1.22377e-11
-1.23767e-10
1.14145e-16
1.07786e-11
-1.1414e-10
-3.02473e-16
9.20994e-12
-1.03743e-10
-3.23946e-16
7.55514e-12
-9.25575e-11
-1.53203e-16
5.84665e-12
-8.05213e-11
1.51199e-17
4.12571e-12
-6.74475e-11
8.54479e-17
2.4562e-12
-5.28499e-11
6.66574e-17
9.46654e-13
-3.5747e-11
1.32107e-17
-1.41874e-11
-2.73179e-17
1.78695e-11
-1.58407e-10
1.10979e-15
1.83342e-11
-1.62069e-10
3.37044e-15
1.87e-11
-1.65102e-10
4.3666e-15
1.89794e-11
-1.67362e-10
3.61744e-15
1.91771e-11
-1.68843e-10
1.52426e-15
1.92849e-11
-1.69371e-10
-1.31635e-15
1.92891e-11
-1.69004e-10
-3.97896e-15
1.91793e-11
-1.67665e-10
-5.72375e-15
1.89386e-11
-1.65359e-10
-6.06713e-15
1.85233e-11
-1.622e-10
-5.05518e-15
1.78784e-11
-1.58029e-10
-3.26829e-15
1.7005e-11
-1.52891e-10
-1.28262e-15
1.59844e-11
-1.46682e-10
1.13829e-15
1.48584e-11
-1.39465e-10
1.7194e-15
1.36214e-11
-1.31362e-10
1.01192e-15
1.22622e-11
-1.22386e-10
1.36629e-16
1.07811e-11
-1.12631e-10
-3.3288e-16
9.19136e-12
-1.02135e-10
-3.67336e-16
7.51612e-12
-9.08797e-11
-1.78947e-16
5.78828e-12
-7.88006e-11
1.51213e-17
4.05117e-12
-6.57192e-11
9.9716e-17
2.37433e-12
-5.11778e-11
7.92e-17
8.87653e-13
-3.42594e-11
1.52967e-17
-1.32951e-11
-3.40592e-17
1.82653e-11
-1.59028e-10
9.61547e-16
1.87166e-11
-1.62646e-10
3.05517e-15
1.90755e-11
-1.65615e-10
3.95122e-15
1.93505e-11
-1.6777e-10
3.2001e-15
1.95394e-11
-1.69097e-10
1.26364e-15
1.96288e-11
-1.69426e-10
-1.28468e-15
1.96038e-11
-1.68833e-10
-3.63168e-15
1.94561e-11
-1.67267e-10
-5.13498e-15
1.91733e-11
-1.64766e-10
-5.40615e-15
1.8719e-11
-1.61478e-10
-4.49813e-15
1.80454e-11
-1.57244e-10
-2.92579e-15
1.71517e-11
-1.5206e-10
-1.17635e-15
1.61084e-11
-1.45752e-10
1.01594e-15
1.49536e-11
-1.38383e-10
1.58705e-15
1.36852e-11
-1.30109e-10
9.61829e-16
1.22956e-11
-1.20979e-10
1.45723e-16
1.07867e-11
-1.11096e-10
-3.12125e-16
9.17162e-12
-1.00503e-10
-3.58962e-16
7.47317e-12
-8.91778e-11
-1.81075e-16
5.7246e-12
-7.70585e-11
1.30469e-17
3.97184e-12
-6.39753e-11
1.01924e-16
2.29105e-12
-4.95023e-11
8.26257e-17
8.31242e-13
-3.27991e-11
1.56035e-17
-1.24592e-11
-3.73777e-17
1.87157e-11
-1.59638e-10
6.79118e-16
1.91566e-11
-1.63195e-10
2.38994e-15
1.95153e-11
-1.66085e-10
3.07653e-15
1.97927e-11
-1.6813e-10
2.38532e-15
1.99758e-11
-1.69309e-10
8.34454e-16
2.00441e-11
-1.69456e-10
-1.0848e-15
1.99812e-11
-1.68663e-10
-2.78176e-15
1.97816e-11
-1.66893e-10
-3.81244e-15
1.94398e-11
-1.6421e-10
-3.95889e-15
1.89324e-11
-1.60781e-10
-3.28044e-15
1.82256e-11
-1.56454e-10
-2.14808e-15
1.73166e-11
-1.51191e-10
-9.03559e-16
1.62546e-11
-1.4477e-10
7.56655e-16
1.50695e-11
-1.37252e-10
1.23635e-15
1.37644e-11
-1.28819e-10
7.80605e-16
1.23382e-11
-1.19541e-10
1.33469e-16
1.07963e-11
-1.09535e-10
-2.52803e-16
9.15213e-12
-9.88444e-11
-3.06171e-16
7.42825e-12
-8.74501e-11
-1.6114e-16
5.65824e-12
-7.52933e-11
9.70368e-18
3.89092e-12
-6.22156e-11
9.2238e-17
2.20949e-12
-4.78258e-11
7.59727e-17
7.78855e-13
-3.13682e-11
1.2925e-17
-1.16762e-11
-3.84526e-17
1.92203e-11
-1.60235e-10
3.19697e-16
1.96531e-11
-1.63712e-10
1.50807e-15
2.0016e-11
-1.66504e-10
1.91459e-15
2.02997e-11
-1.68431e-10
1.32815e-15
2.04777e-11
-1.69471e-10
3.18611e-16
2.05219e-11
-1.69464e-10
-7.45298e-16
2.04142e-11
-1.68505e-10
-1.56771e-15
2.01522e-11
-1.66566e-10
-1.9713e-15
1.97387e-11
-1.63716e-10
-1.95919e-15
1.91671e-11
-1.60132e-10
-1.59666e-15
1.84226e-11
-1.55669e-10
-1.06061e-15
1.75003e-11
-1.5028e-10
-4.75142e-16
1.64213e-11
-1.43725e-10
3.95873e-16
1.52042e-11
-1.36063e-10
7.10338e-16
1.38578e-11
-1.27484e-10
4.86867e-16
1.239e-11
-1.1807e-10
1.00225e-16
1.08106e-11
-1.07945e-10
-1.59687e-16
9.1342e-12
-9.71584e-11
-2.1174e-16
7.3831e-12
-8.56956e-11
-1.18452e-16
5.59139e-12
-7.35045e-11
7.46308e-18
3.81091e-12
-6.04407e-11
7.29893e-17
2.13171e-12
-4.61506e-11
6.07234e-17
7.31244e-13
-2.99677e-11
7.92673e-18
-1.09415e-11
-3.67935e-17
1.97806e-11
-1.60819e-10
-4.8282e-17
2.02061e-11
-1.64193e-10
5.67668e-16
2.05739e-11
-1.66868e-10
6.71735e-16
2.08636e-11
-1.68668e-10
2.11824e-16
2.10349e-11
-1.69583e-10
-1.95416e-16
2.10516e-11
-1.6945e-10
-3.21564e-16
2.08943e-11
-1.68364e-10
-1.88451e-16
2.05639e-11
-1.66289e-10
8.91192e-17
2.00717e-11
-1.63289e-10
2.69169e-16
1.9429e-11
-1.59537e-10
2.81615e-16
1.86419e-11
-1.54892e-10
1.68974e-16
1.77043e-11
-1.49325e-10
2.07399e-17
1.66068e-11
-1.42612e-10
2.22242e-18
1.53549e-11
-1.34809e-10
1.02814e-16
1.39638e-11
-1.26099e-10
1.30337e-16
1.24505e-11
-1.16561e-10
4.63169e-17
1.08302e-11
-1.06323e-10
-5.5364e-17
9.11895e-12
-9.54434e-11
-9.60572e-17
7.33925e-12
-8.39135e-11
-6.17147e-17
5.52582e-12
-7.16919e-11
6.91879e-18
3.7336e-12
-5.86515e-11
4.75931e-17
2.05897e-12
-4.44786e-11
3.88462e-17
6.88609e-13
-2.85972e-11
2.74391e-19
-1.02501e-11
-3.43535e-17
2.03987e-11
-1.61392e-10
-3.6199e-16
2.08158e-11
-1.64641e-10
-2.72843e-16
2.11853e-11
-1.67179e-10
-4.45582e-16
2.14764e-11
-1.68848e-10
-7.84475e-16
2.16364e-11
-1.69646e-10
-6.30626e-16
2.16219e-11
-1.69413e-10
1.12659e-16
2.14127e-11
-1.68233e-10
1.13357e-15
2.10128e-11
-1.66053e-10
2.04417e-15
2.04409e-11
-1.62917e-10
2.3798e-15
1.97247e-11
-1.58983e-10
2.06483e-15
1.88902e-11
-1.54116e-10
1.34567e-15
1.79308e-11
-1.48324e-10
5.25584e-16
1.68094e-11
-1.41429e-10
-3.71106e-16
1.55191e-11
-1.33488e-10
-5.02456e-16
1.40803e-11
-1.24659e-10
-2.40799e-16
1.2519e-11
-1.1501e-10
-2.01905e-17
1.08554e-11
-1.04668e-10
4.86208e-17
9.10733e-12
-9.36977e-11
2.80018e-17
7.29796e-12
-8.21032e-11
3.66915e-18
5.46291e-12
-6.9856e-11
9.77081e-18
3.66022e-12
-5.68494e-11
2.07486e-17
1.9919e-12
-4.28113e-11
1.42662e-17
6.50825e-13
-2.72559e-11
-8.39449e-18
-9.59739e-12
-3.08248e-17
2.10762e-11
-1.61952e-10
-5.70792e-16
2.1482e-11
-1.65058e-10
-8.7911e-16
2.18464e-11
-1.67445e-10
-1.26225e-15
2.21306e-11
-1.68977e-10
-1.51314e-15
2.22721e-11
-1.69666e-10
-9.32947e-16
2.22227e-11
-1.6935e-10
4.75611e-16
2.19617e-11
-1.68098e-10
2.18306e-15
2.14953e-11
-1.65832e-10
3.58765e-15
2.08479e-11
-1.62571e-10
4.04753e-15
2.00599e-11
-1.58446e-10
3.48068e-15
1.91732e-11
-1.53325e-10
2.29488e-15
1.81817e-11
-1.47273e-10
9.42542e-16
1.70276e-11
-1.40179e-10
-6.65746e-16
1.5694e-11
-1.321e-10
-1.00785e-15
1.42055e-11
-1.23163e-10
-5.66235e-16
1.25947e-11
-1.13413e-10
-8.96183e-17
1.08862e-11
-1.02974e-10
1.3273e-16
9.10004e-12
-9.1919e-11
1.37879e-16
7.26021e-12
-8.02641e-11
6.543e-17
5.4037e-12
-6.79976e-11
1.47001e-17
3.59159e-12
-5.50358e-11
-3.86222e-18
1.93073e-12
-4.115e-11
-9.85065e-18
6.17589e-13
-2.59423e-11
-1.7598e-17
-8.97856e-12
-2.80784e-17
2.18139e-11
-1.62502e-10
-6.45398e-16
2.22038e-11
-1.65453e-10
-1.15941e-15
2.25537e-11
-1.67679e-10
-1.65972e-15
2.28197e-11
-1.6907e-10
-1.87892e-15
2.29342e-11
-1.6965e-10
-1.07796e-15
2.28462e-11
-1.69256e-10
6.92241e-16
2.25348e-11
-1.67937e-10
2.78864e-15
2.20081e-11
-1.65593e-10
4.48331e-15
2.12932e-11
-1.62208e-10
5.0251e-15
2.04383e-11
-1.57886e-10
4.32235e-15
1.94948e-11
-1.52499e-10
2.87244e-15
1.84581e-11
-1.46169e-10
1.21336e-15
1.72598e-11
-1.38866e-10
-8.4448e-16
1.58774e-11
-1.3065e-10
-1.34425e-15
1.43373e-11
-1.21611e-10
-8.00263e-16
1.26765e-11
-1.11768e-10
-1.50802e-16
1.09226e-11
-1.0124e-10
1.8778e-16
9.0975e-12
-9.01051e-11
2.20404e-16
7.22668e-12
-7.83955e-11
1.1653e-16
5.34887e-12
-6.61174e-11
2.21593e-17
3.52818e-12
-5.32124e-11
-2.17468e-17
1.8754e-12
-3.94958e-11
-2.91451e-17
5.88511e-13
-2.46548e-11
-2.52624e-17
-8.38926e-12
-2.55462e-17
2.26108e-11
-1.6304e-10
-5.73883e-16
2.29794e-11
-1.65832e-10
-1.07624e-15
2.33037e-11
-1.67893e-10
-1.59227e-15
2.35395e-11
-1.69137e-10
-1.85125e-15
2.36178e-11
-1.69602e-10
-1.07112e-15
2.34875e-11
-1.69121e-10
7.09859e-16
2.31281e-11
-1.67727e-10
2.85215e-15
2.25482e-11
-1.65296e-10
4.60359e-15
2.17757e-11
-1.61783e-10
5.18043e-15
2.08603e-11
-1.57264e-10
4.4787e-15
1.98556e-11
-1.51611e-10
3.00418e-15
1.87596e-11
-1.45006e-10
1.29537e-15
1.75045e-11
-1.37495e-10
-8.88132e-16
1.60674e-11
-1.29142e-10
-1.46698e-15
1.44744e-11
-1.20004e-10
-9.09467e-16
1.27635e-11
-1.10073e-10
-1.93175e-16
1.09641e-11
-9.94606e-11
2.06623e-16
9.09982e-12
-8.82534e-11
2.63012e-16
7.19776e-12
-7.64968e-11
1.47815e-16
5.29885e-12
-6.42163e-11
2.92347e-17
3.47016e-12
-5.13806e-11
-3.17917e-17
1.82571e-12
-3.78495e-11
-4.1878e-17
5.63165e-13
-2.33915e-11
-3.10225e-17
-7.82546e-12
-2.45981e-17
2.34644e-11
-1.63568e-10
-3.66648e-16
2.38059e-11
-1.66201e-10
-6.51529e-16
2.40939e-11
-1.68098e-10
-1.09128e-15
2.42875e-11
-1.69189e-10
-1.46426e-15
2.43211e-11
-1.69525e-10
-9.41938e-16
2.41451e-11
-1.68936e-10
5.09722e-16
2.37397e-11
-1.67443e-10
2.36627e-15
2.31133e-11
-1.64904e-10
3.94904e-15
2.22925e-11
-1.61251e-10
4.51764e-15
2.13228e-11
-1.56539e-10
3.95226e-15
2.02532e-11
-1.5064e-10
2.68583e-15
1.90844e-11
-1.4378e-10
1.17536e-15
1.77604e-11
-1.3607e-10
-7.95145e-16
1.62626e-11
-1.27582e-10
-1.36419e-15
1.46154e-11
-1.18342e-10
-8.8011e-16
1.28549e-11
-1.08325e-10
-2.10476e-16
1.10103e-11
-9.76338e-11
1.88035e-16
9.10683e-12
-8.63618e-11
2.61026e-16
7.17353e-12
-7.45673e-11
1.56041e-16
5.25377e-12
-6.22951e-11
3.59239e-17
3.41754e-12
-4.95417e-11
-3.16092e-17
1.7813e-12
-3.62114e-11
-4.53236e-17
5.41134e-13
-2.21503e-11
-3.32728e-17
-7.28355e-12
-2.43135e-17
2.43703e-11
-1.64086e-10
-5.1995e-17
2.46796e-11
-1.66566e-10
4.11925e-17
2.49222e-11
-1.68299e-10
-2.54534e-16
2.50636e-11
-1.69231e-10
-8.05449e-16
2.5045e-11
-1.69419e-10
-7.34407e-16
2.482e-11
-1.68691e-10
1.13367e-16
2.43695e-11
-1.67065e-10
1.41551e-15
2.37012e-11
-1.64387e-10
2.64685e-15
2.28389e-11
-1.60579e-10
3.172e-15
2.18197e-11
-1.55682e-10
2.85411e-15
2.06819e-11
-1.49567e-10
1.98629e-15
1.94291e-11
-1.42488e-10
8.90557e-16
1.80259e-11
-1.34598e-10
-5.91809e-16
1.64623e-11
-1.25973e-10
-1.06775e-15
1.47597e-11
-1.16628e-10
-7.26129e-16
1.29497e-11
-1.06523e-10
-2.0003e-16
1.10605e-11
-9.57571e-11
1.38775e-16
9.11809e-12
-8.44283e-11
2.17833e-16
7.15379e-12
-7.26066e-11
1.40099e-16
5.21355e-12
-6.03547e-11
3.93573e-17
3.37013e-12
-4.76969e-11
-2.35352e-17
1.74181e-12
-3.45819e-11
-4.06905e-17
5.22024e-13
-2.09295e-11
-3.25805e-17
-6.76033e-12
-2.55176e-17
2.53232e-11
-1.64593e-10
3.2568e-16
2.55966e-11
-1.66926e-10
8.87341e-16
2.57873e-11
-1.685e-10
7.71112e-16
2.58694e-11
-1.69264e-10
1.87468e-18
2.57928e-11
-1.6928e-10
-4.96172e-16
2.55155e-11
-1.68379e-10
-4.19527e-16
2.50189e-11
-1.66579e-10
1.62285e-16
2.431e-11
-1.63728e-10
9.26722e-16
2.34092e-11
-1.59747e-10
1.38529e-15
2.23422e-11
-1.54674e-10
1.3838e-15
2.11336e-11
-1.4838e-10
1.03556e-15
1.97891e-11
-1.41126e-10
4.80135e-16
1.82994e-11
-1.33077e-10
-3.09549e-16
1.6666e-11
-1.24318e-10
-6.25966e-16
1.49066e-11
-1.14862e-10
-4.72015e-16
1.30472e-11
-1.04666e-10
-1.64394e-16
1.11138e-11
-9.3829e-11
6.58457e-17
9.13292e-12
-8.2452e-11
1.4005e-16
7.13809e-12
-7.06145e-11
1.03261e-16
5.17789e-12
-5.83958e-11
4.02374e-17
3.32763e-12
-4.58471e-11
-7.58737e-18
1.7068e-12
-3.2961e-11
-2.76837e-17
5.05479e-13
-1.97272e-11
-2.82865e-17
-6.25302e-12
-2.70371e-17
2.63174e-11
-1.65089e-10
7.12358e-16
2.65527e-11
-1.67281e-10
1.75358e-15
2.66881e-11
-1.68696e-10
1.81805e-15
2.67071e-11
-1.69282e-10
8.22576e-16
2.65688e-11
-1.69102e-10
-2.6895e-16
2.62356e-11
-1.67993e-10
-1.00054e-15
2.56898e-11
-1.65981e-10
-1.18161e-15
2.49379e-11
-1.62923e-10
-9.18336e-16
2.39966e-11
-1.58752e-10
-5.37305e-16
2.28805e-11
-1.53511e-10
-2.06489e-16
2.15987e-11
-1.47076e-10
-4.64609e-18
2.01591e-11
-1.39691e-10
3.27271e-17
1.85793e-11
-1.31507e-10
-9.05351e-19
1.68735e-11
-1.22616e-10
-1.22846e-16
1.50559e-11
-1.13043e-10
-1.68363e-16
1.31466e-11
-1.02753e-10
-1.11039e-16
1.11692e-11
-9.18491e-11
-1.62908e-17
9.15047e-12
-8.04327e-11
4.31708e-17
7.12581e-12
-6.85912e-11
5.21335e-17
5.14635e-12
-5.6419e-11
3.71126e-17
3.28964e-12
-4.3993e-11
1.16515e-17
1.67584e-12
-3.13484e-11
-1.00709e-17
4.9118e-13
-1.85417e-11
-2.20288e-17
-5.75929e-12
-2.93951e-17
2.73472e-11
-1.65569e-10
1.05436e-15
2.75439e-11
-1.67623e-10
2.50673e-15
2.76241e-11
-1.6888e-10
2.72298e-15
2.75794e-11
-1.69278e-10
1.53041e-15
2.7377e-11
-1.68879e-10
-8.19208e-17
2.6984e-11
-1.67531e-10
-1.52789e-15
2.63838e-11
-1.65273e-10
-2.39175e-15
2.55825e-11
-1.6198e-10
-2.58509e-15
2.45947e-11
-1.57604e-10
-2.28121e-15
2.34246e-11
-1.52204e-10
-1.65704e-15
2.20677e-11
-1.45658e-10
-9.60867e-16
2.05336e-11
-1.3818e-10
-3.89203e-16
1.88638e-11
-1.29884e-10
2.91485e-16
1.70844e-11
-1.20864e-10
3.67895e-16
1.52072e-11
-1.1117e-10
1.40869e-16
1.32473e-11
-1.00786e-10
-4.85489e-17
1.12258e-11
-8.98179e-11
-9.68106e-17
9.16974e-12
-7.83708e-11
-5.92845e-17
7.11615e-12
-6.65375e-11
-5.25308e-18
5.11833e-12
-5.4425e-11
3.17749e-17
3.25568e-12
-4.2135e-11
3.2833e-17
1.64851e-12
-2.9744e-11
1.0752e-17
4.78844e-13
-1.73714e-11
-1.39146e-17
-5.27716e-12
-3.13345e-17
2.84078e-11
-1.6603e-10
1.30192e-15
2.8567e-11
-1.67945e-10
3.03575e-15
2.85946e-11
-1.69039e-10
3.35363e-15
2.84879e-11
-1.69237e-10
2.02767e-15
2.82205e-11
-1.68602e-10
5.06862e-17
2.77633e-11
-1.66993e-10
-1.90496e-15
2.71015e-11
-1.64466e-10
-3.26823e-15
2.62418e-11
-1.6092e-10
-3.80701e-15
2.51973e-11
-1.56327e-10
-3.5721e-15
2.39654e-11
-1.50772e-10
-2.74091e-15
2.25318e-11
-1.44136e-10
-1.68526e-15
2.09073e-11
-1.36593e-10
-7.05366e-16
1.91508e-11
-1.28201e-10
5.2155e-16
1.7298e-11
-1.19056e-10
7.64664e-16
1.53599e-11
-1.09241e-10
4.01458e-16
1.33483e-11
-9.87635e-11
1.0436e-17
1.12824e-11
-8.77367e-11
-1.63233e-16
9.18968e-12
-7.62679e-11
-1.50438e-16
7.10823e-12
-6.44545e-11
-5.97396e-17
5.09317e-12
-5.24147e-11
2.42914e-17
3.22522e-12
-4.02735e-11
5.1369e-17
1.62435e-12
-2.81471e-11
3.03069e-17
4.68215e-13
-1.62148e-11
-6.08678e-18
-4.80502e-12
-3.34084e-17
2.94954e-11
-1.66468e-10
1.42096e-15
2.96193e-11
-1.68235e-10
3.26782e-15
2.95986e-11
-1.69157e-10
3.62679e-15
2.9433e-11
-1.69146e-10
2.25672e-15
2.91e-11
-1.68264e-10
1.28448e-16
2.85739e-11
-1.66381e-10
-2.0591e-15
2.78422e-11
-1.63576e-10
-3.67046e-15
2.69131e-11
-1.59768e-10
-4.4005e-15
2.57997e-11
-1.54955e-10
-4.22128e-15
2.44964e-11
-1.49246e-10
-3.30201e-15
2.29845e-11
-1.42526e-10
-2.07193e-15
2.12759e-11
-1.34929e-10
-8.71947e-16
1.94384e-11
-1.26449e-10
6.62019e-16
1.75135e-11
-1.17186e-10
1.0163e-15
1.55133e-11
-1.07254e-10
5.80098e-16
1.34486e-11
-9.66865e-11
5.83014e-17
1.13381e-11
-8.56075e-11
-2.06985e-16
9.20921e-12
-7.41261e-11
-2.18227e-16
7.10113e-12
-6.23437e-11
-1.03405e-16
5.07012e-12
-5.03888e-11
1.6908e-17
3.19767e-12
-3.84086e-11
6.61666e-17
1.60293e-12
-2.65572e-11
4.71481e-17
4.59056e-13
-1.50706e-11
1.24457e-18
-4.34157e-12
-3.44234e-17
3.0608e-11
-1.66875e-10
1.39328e-15
3.06988e-11
-1.68483e-10
3.17741e-15
3.06343e-11
-1.6922e-10
3.51783e-15
3.04131e-11
-1.68991e-10
2.20519e-15
3.00139e-11
-1.67857e-10
1.60271e-16
2.94139e-11
-1.65701e-10
-1.9558e-15
2.86036e-11
-1.6262e-10
-3.54047e-15
2.75935e-11
-1.58553e-10
-4.29218e-15
2.63983e-11
-1.5352e-10
-4.15407e-15
2.50133e-11
-1.47652e-10
-3.27715e-15
2.34216e-11
-1.40843e-10
-2.07619e-15
2.16362e-11
-1.33186e-10
-8.66305e-16
1.97242e-11
-1.2462e-10
6.98883e-16
1.77291e-11
-1.15245e-10
1.09113e-15
1.56659e-11
-1.05204e-10
6.50881e-16
1.35469e-11
-9.45556e-11
8.52568e-17
1.13915e-11
-8.34328e-11
-2.24906e-16
9.22726e-12
-7.1948e-11
-2.54825e-16
7.09393e-12
-6.0207e-11
-1.30882e-16
5.04843e-12
-4.83485e-11
1.01805e-17
3.17242e-12
-3.65407e-11
7.45399e-17
1.58378e-12
-2.4974e-11
5.81359e-17
4.51142e-13
-1.39379e-11
6.27684e-18
-3.88578e-12
-3.51737e-17
3.17447e-11
-1.67247e-10
1.22634e-15
3.18039e-11
-1.68676e-10
2.79079e-15
3.16992e-11
-1.69214e-10
3.06227e-15
3.14246e-11
-1.68759e-10
1.9032e-15
3.09578e-11
-1.67376e-10
1.59321e-16
3.02788e-11
-1.64958e-10
-1.60659e-15
2.93817e-11
-1.61614e-10
-2.9115e-15
2.82801e-11
-1.57299e-10
-3.52844e-15
2.69911e-11
-1.52051e-10
-3.4176e-15
2.5515e-11
-1.46018e-10
-2.70369e-15
2.38419e-11
-1.39101e-10
-1.72178e-15
2.19861e-11
-1.31364e-10
-6.91913e-16
2.00058e-11
-1.22708e-10
6.35168e-16
1.79427e-11
-1.13228e-10
9.91321e-16
1.5816e-11
-1.0309e-10
6.12626e-16
1.3642e-11
-9.23715e-11
9.07365e-17
1.14415e-11
-8.12148e-11
-2.1476e-16
9.24278e-12
-6.97362e-11
-2.56451e-16
7.08572e-12
-5.80466e-11
-1.38899e-16
5.02732e-12
-4.6295e-11
5.74145e-18
3.14885e-12
-3.46701e-11
7.6789e-17
1.56647e-12
-2.33971e-11
6.3237e-17
4.44256e-13
-1.28156e-11
9.37311e-18
-3.43684e-12
-3.45734e-17
3.2906e-11
-1.67577e-10
9.50429e-16
3.29335e-11
-1.68805e-10
2.17881e-15
3.27897e-11
-1.69128e-10
2.34543e-15
3.2462e-11
-1.68443e-10
1.41478e-15
3.19253e-11
-1.66817e-10
1.3747e-16
3.11621e-11
-1.64153e-10
-1.06775e-15
3.01712e-11
-1.60567e-10
-1.9012e-15
2.89695e-11
-1.56022e-10
-2.26373e-15
2.75773e-11
-1.50568e-10
-2.1687e-15
2.60025e-11
-1.44361e-10
-1.70846e-15
2.42464e-11
-1.37309e-10
-1.08622e-15
2.23247e-11
-1.29464e-10
-3.93954e-16
2.02808e-11
-1.20706e-10
4.92622e-16
1.81516e-11
-1.1113e-10
7.48508e-16
1.59614e-11
-1.00909e-10
4.79989e-16
1.3732e-11
-9.01349e-11
7.32153e-17
1.14868e-11
-7.8956e-11
-1.83725e-16
9.25476e-12
-6.74934e-11
-2.28372e-16
7.07562e-12
-5.58646e-11
-1.29314e-16
5.00602e-12
-4.42297e-11
3.42467e-18
3.12629e-12
-3.27975e-11
7.26877e-17
1.55052e-12
-2.18264e-11
6.16937e-17
4.38185e-13
-1.17032e-11
9.64267e-18
-2.99413e-12
-3.36773e-17
3.40926e-11
-1.67859e-10
6.17955e-16
3.40865e-11
-1.68864e-10
1.44699e-15
3.39018e-11
-1.68955e-10
1.48874e-15
3.35184e-11
-1.68035e-10
8.25443e-16
3.2908e-11
-1.66177e-10
1.0248e-16
3.2056e-11
-1.63286e-10
-4.31085e-16
3.09662e-11
-1.59481e-10
-6.89664e-16
2.96587e-11
-1.54727e-10
-7.31335e-16
2.81572e-11
-1.49075e-10
-6.43152e-16
2.64785e-11
-1.42685e-10
-4.82948e-16
2.46376e-11
-1.3547e-10
-2.97736e-16
2.26518e-11
-1.27484e-10
-1.93017e-17
2.05466e-11
-1.18613e-10
2.99338e-16
1.83527e-11
-1.08947e-10
4.12757e-16
1.60995e-11
-9.86605e-11
2.83392e-16
1.38152e-11
-8.78468e-11
4.04198e-17
1.15262e-11
-7.66585e-11
-1.35674e-16
9.26222e-12
-6.5222e-11
-1.76147e-16
7.06281e-12
-5.36632e-11
-1.04818e-16
4.98379e-12
-4.21543e-11
3.59654e-18
3.10413e-12
-3.0924e-11
6.40344e-17
1.53547e-12
-2.02622e-11
5.52882e-17
4.32719e-13
-1.06004e-11
8.25858e-18
-2.55717e-12
-3.14851e-17
3.53057e-11
-1.68087e-10
2.93308e-16
3.52613e-11
-1.68848e-10
7.15254e-16
3.50306e-11
-1.68691e-10
6.26854e-16
3.45862e-11
-1.67533e-10
2.27391e-16
3.38972e-11
-1.65452e-10
5.64143e-17
3.29523e-11
-1.62353e-10
1.93036e-16
3.17601e-11
-1.58351e-10
5.12522e-16
3.03441e-11
-1.53406e-10
7.98651e-16
2.8731e-11
-1.47566e-10
8.86543e-16
2.69465e-11
-1.40985e-10
7.50908e-16
2.50188e-11
-1.3358e-10
5.03143e-16
2.29675e-11
-1.25424e-10
3.53079e-16
2.08009e-11
-1.16428e-10
9.44317e-17
1.85428e-11
-1.06682e-10
5.15309e-17
1.62277e-11
-9.63456e-11
6.33369e-17
1.38896e-11
-8.55083e-11
-1.66621e-18
1.15583e-11
-7.43238e-11
-8.29536e-17
9.2642e-12
-6.29242e-11
-1.13669e-16
7.04646e-12
-5.14446e-11
-7.2935e-17
4.95988e-12
-4.00706e-11
4.92844e-18
3.08172e-12
-2.90507e-11
5.21823e-17
1.52088e-12
-1.87051e-11
4.51558e-17
4.27659e-13
-9.50709e-12
5.18995e-18
-2.12563e-12
-2.91927e-17
3.65458e-11
-1.68258e-10
3.69291e-17
3.64563e-11
-1.68755e-10
9.84295e-17
3.61713e-11
-1.68338e-10
-1.12379e-16
3.56578e-11
-1.66938e-10
-2.94539e-16
3.48843e-11
-1.6464e-10
-2.56098e-18
3.38429e-11
-1.61346e-10
6.96018e-16
3.25469e-11
-1.57162e-10
1.50313e-15
3.10224e-11
-1.5204e-10
2.06843e-15
2.92988e-11
-1.46019e-10
2.16114e-15
2.74091e-11
-1.39242e-10
1.78244e-15
2.5393e-11
-1.31629e-10
1.17404e-15
2.3272e-11
-1.23282e-10
6.6566e-16
2.10411e-11
-1.14155e-10
-8.88969e-17
1.87187e-11
-1.04337e-10
-2.72329e-16
1.6343e-11
-9.3966e-11
-1.38854e-16
1.39533e-11
-8.31208e-11
-4.14245e-17
1.15818e-11
-7.19533e-11
-3.16104e-17
9.25969e-12
-6.06016e-11
-5.08829e-17
7.02576e-12
-4.92109e-11
-3.96476e-17
4.93358e-12
-3.79807e-11
6.8064e-18
3.05846e-12
-2.71793e-11
3.96006e-17
1.50632e-12
-1.71559e-11
3.40893e-17
4.22811e-13
-8.4234e-12
2.07617e-18
-1.69932e-12
-2.58592e-17
3.78127e-11
-1.68369e-10
-1.03757e-16
3.76692e-11
-1.68586e-10
-3.14547e-16
3.73188e-11
-1.67897e-10
-6.29739e-16
3.67266e-11
-1.66251e-10
-6.75024e-16
3.58619e-11
-1.63737e-10
-7.80068e-17
3.47211e-11
-1.60253e-10
9.91102e-16
3.33212e-11
-1.55893e-10
2.12168e-15
3.16903e-11
-1.50601e-10
2.8742e-15
2.98598e-11
-1.44404e-10
2.9755e-15
2.78677e-11
-1.37431e-10
2.44374e-15
2.57614e-11
-1.29603e-10
1.60655e-15
2.35645e-11
-1.21057e-10
8.59595e-16
2.12646e-11
-1.11799e-10
-2.20715e-16
1.88773e-11
-1.01917e-10
-5.0302e-16
1.6443e-11
-9.1525e-11
-2.86904e-16
1.40043e-11
-8.06858e-11
-7.14125e-17
1.15952e-11
-6.95484e-11
8.26674e-18
9.24767e-12
-5.82559e-11
-1.00382e-18
6.99988e-12
-4.69641e-11
-1.30108e-17
4.90417e-12
-3.58869e-11
7.35147e-18
3.03374e-12
-2.53119e-11
2.76656e-17
1.49137e-12
-1.5616e-11
2.35956e-17
4.18e-13
-7.34982e-12
-8.44817e-19
-1.27812e-12
-2.26835e-17
3.91051e-11
-1.68417e-10
-1.06839e-16
3.88972e-11
-1.68342e-10
-4.73229e-16
3.8469e-11
-1.67373e-10
-8.67864e-16
3.7787e-11
-1.65474e-10
-8.7649e-16
3.68244e-11
-1.6274e-10
-1.71418e-16
3.55815e-11
-1.5906e-10
1.02966e-15
3.40782e-11
-1.54521e-10
2.27826e-15
3.23441e-11
-1.49058e-10
3.10123e-15
3.04118e-11
-1.42686e-10
3.21386e-15
2.83214e-11
-1.35521e-10
2.64019e-15
2.61235e-11
-1.27486e-10
1.73559e-15
2.38434e-11
-1.18748e-10
9.04587e-16
2.14692e-11
-1.09366e-10
-2.83387e-16
1.90161e-11
-9.94289e-11
-6.05044e-16
1.65253e-11
-8.90266e-11
-3.54843e-16
1.40407e-11
-7.82054e-11
-8.30161e-17
1.15973e-11
-6.71101e-11
3.32228e-17
9.22707e-12
-5.58884e-11
2.89725e-17
6.96795e-12
-4.47063e-11
2.34817e-18
4.87092e-12
-3.37915e-11
5.97695e-18
3.007e-12
-2.34505e-11
1.84058e-17
1.47565e-12
-1.40868e-11
1.61022e-17
4.13068e-13
-6.28706e-12
-2.12764e-18
-8.62053e-13
-1.87996e-17
4.04788e-11
-1.67891e-10
-1.84989e-17
4.04206e-11
-1.68397e-10
1.99323e-17
4.01369e-11
-1.68025e-10
-3.70857e-16
3.96181e-11
-1.6677e-10
-8.17577e-16
3.88356e-11
-1.6461e-10
-8.91883e-16
3.77683e-11
-1.61642e-10
-2.80132e-16
3.64207e-11
-1.57754e-10
8.10629e-16
3.48145e-11
-1.53023e-10
1.96716e-15
3.29803e-11
-1.47381e-10
2.74047e-15
3.09511e-11
-1.40834e-10
2.86554e-15
2.87667e-11
-1.33486e-10
2.36133e-15
2.64762e-11
-1.25261e-10
1.55224e-15
2.41062e-11
-1.16353e-10
7.99804e-16
2.16523e-11
-1.06862e-10
-2.73461e-16
1.91327e-11
-9.68796e-11
-5.69085e-16
1.65879e-11
-8.64752e-11
-3.34926e-16
1.40608e-11
-7.56819e-11
-7.41293e-17
1.15864e-11
-6.46399e-11
4.02525e-17
9.19676e-12
-5.35009e-11
3.4241e-17
6.92907e-12
-4.24397e-11
2.87153e-18
4.83312e-12
-3.16972e-11
1.39051e-18
2.97769e-12
-2.15977e-11
1.20377e-17
1.45882e-12
-1.25703e-11
1.20172e-17
4.07881e-13
-5.23604e-12
-1.94349e-18
-4.51259e-13
-1.53226e-17
4.17435e-11
-1.67021e-10
-5.58973e-16
4.18827e-11
-1.68096e-10
9.34938e-17
4.17553e-11
-1.68307e-10
2.75762e-16
4.13845e-11
-1.67635e-10
-3.98227e-17
4.07632e-11
-1.6609e-10
-5.17317e-16
3.98702e-11
-1.63658e-10
-7.43735e-16
3.8692e-11
-1.60439e-10
-3.95393e-16
3.72368e-11
-1.56322e-10
3.80067e-16
3.55274e-11
-1.51381e-10
1.26592e-15
3.35949e-11
-1.45546e-10
1.88596e-15
3.14728e-11
-1.38822e-10
2.0225e-15
2.91979e-11
-1.31304e-10
1.68041e-15
2.6814e-11
-1.22917e-10
1.10464e-15
2.43491e-11
-1.13871e-10
5.61139e-16
2.18115e-11
-1.04292e-10
-1.97355e-16
1.92253e-11
-9.4275e-11
-4.06458e-16
1.6629e-11
-8.38754e-11
-2.31113e-16
1.40631e-11
-7.3118e-11
-4.38227e-17
1.15614e-11
-6.21399e-11
3.10074e-17
9.15558e-12
-5.10953e-11
1.55123e-17
6.88229e-12
-4.01668e-11
-1.12746e-17
4.79004e-12
-2.96067e-11
-5.98638e-18
2.9453e-12
-1.97561e-11
9.45674e-18
1.44058e-12
-1.10683e-11
1.23698e-17
4.02323e-13
-4.19786e-12
4.31576e-19
-4.59839e-14
-1.14845e-17
4.32315e-11
-1.67441e-10
-5.85237e-16
4.3309e-11
-1.68228e-10
2.3245e-16
4.31039e-11
-1.6814e-10
6.28951e-16
4.26359e-11
-1.67169e-10
4.49015e-16
4.19019e-11
-1.6533e-10
-4.34384e-17
4.08903e-11
-1.62614e-10
-4.77197e-16
3.95954e-11
-1.59126e-10
-5.03305e-16
3.80291e-11
-1.54755e-10
-1.77026e-16
3.62147e-11
-1.49582e-10
3.18806e-16
3.41841e-11
-1.4354e-10
7.14649e-16
3.19707e-11
-1.36636e-10
8.5878e-16
2.96073e-11
-1.28962e-10
7.36966e-16
2.713e-11
-1.20447e-10
4.80508e-16
2.45673e-11
-1.11302e-10
2.42674e-16
2.19444e-11
-1.01661e-10
-7.6489e-17
1.92923e-11
-9.16201e-11
-1.56096e-16
1.66473e-11
-8.1231e-11
-6.78809e-17
1.40461e-11
-7.05168e-11
1.99333e-18
1.15208e-11
-5.96126e-11
9.24236e-18
9.10233e-12
-4.86742e-11
-2.22019e-17
6.82666e-12
-3.78903e-11
-3.75801e-17
4.74096e-12
-2.75229e-11
-1.61469e-17
2.90934e-12
-1.79284e-11
9.5412e-18
1.42065e-12
-9.58298e-12
1.59754e-17
3.96303e-13
-3.17381e-12
4.12478e-18
3.53405e-13
-8.29612e-18
4.47435e-11
-1.67792e-10
-6.41514e-16
4.47514e-11
-1.68281e-10
3.8854e-16
4.44601e-11
-1.67892e-10
1.01891e-15
4.38865e-11
-1.66622e-10
9.99459e-16
4.30325e-11
-1.64484e-10
5.03004e-16
4.18959e-11
-1.61473e-10
-1.51824e-16
4.0479e-11
-1.57695e-10
-5.86372e-16
3.87973e-11
-1.53049e-10
-7.5375e-16
3.68747e-11
-1.47624e-10
-6.90885e-16
3.47437e-11
-1.4136e-10
-5.48334e-16
3.24381e-11
-1.34273e-10
-4.03371e-16
2.99863e-11
-1.2646e-10
-2.90242e-16
2.74159e-11
-1.17851e-10
-2.00025e-16
2.47559e-11
-1.08648e-10
-1.06781e-16
2.20485e-11
-9.89714e-11
6.61669e-17
1.93326e-11
-8.89177e-11
1.36463e-16
1.66417e-11
-7.85454e-11
1.26948e-16
1.40086e-11
-6.78816e-11
5.72338e-17
1.14633e-11
-5.70612e-11
-1.92901e-17
9.03583e-12
-4.62408e-11
-7.10706e-17
6.76121e-12
-3.56134e-11
-7.10395e-17
4.68517e-12
-2.5449e-11
-2.74381e-17
2.86934e-12
-1.61174e-11
1.21231e-17
1.39879e-12
-8.11657e-12
2.23975e-17
3.89744e-13
-2.16529e-12
9.10244e-18
7.46426e-13
-5.06952e-18
4.62751e-11
-1.6807e-10
-6.83767e-16
4.62039e-11
-1.68251e-10
5.3714e-16
4.5818e-11
-1.67557e-10
1.37869e-15
4.51321e-11
-1.65983e-10
1.50708e-15
4.41528e-11
-1.63542e-10
1.01543e-15
4.28866e-11
-1.60225e-10
1.70405e-16
4.1343e-11
-1.56141e-10
-6.27586e-16
3.95409e-11
-1.51203e-10
-1.24057e-15
3.75052e-11
-1.45509e-10
-1.57617e-15
3.52695e-11
-1.39015e-10
-1.67264e-15
3.28684e-11
-1.31746e-10
-1.53625e-15
3.03264e-11
-1.23807e-10
-1.21704e-15
2.76636e-11
-1.15135e-10
-8.18732e-16
2.49097e-11
-1.05909e-10
-4.17993e-16
2.21215e-11
-9.62226e-11
2.01535e-16
1.93448e-11
-8.61693e-11
4.14374e-16
1.6611e-11
-7.58214e-11
3.1513e-16
1.39494e-11
-6.52161e-11
1.11267e-16
1.13877e-11
-5.44898e-11
-4.85868e-17