/*--------------------------------*- C++ -*----------------------------------*\
| =========                 |                                                 |
| \\      /  F ield         | OpenFOAM: The Open Source CFD Toolbox           |
|  \\    /   O peration     | Version:  v2012                                 |
|   \\  /    A nd           | Website:  www.openfoam.com                      |
|    \\/     M anipulation  |                                                 |
\*---------------------------------------------------------------------------*/
FoamFile
{
    version     2.0;
    format      ascii;
    class       volVectorField;
    location    "0.9";
    object      U;
}
// * * * * * * * * * * * * * * * * * * * * * * * * * * * * * * * * * * * * * //

dimensions      [0 1 -1 0 0 0 0];


internalField   nonuniform List<vector> 
2642
(
(0.000406853 -0.00215884 -3.55108e-06)
(0.00040207 -0.00204259 -3.50938e-06)
(0.000395227 -0.00192638 -3.44974e-06)
(0.000386435 -0.00181106 -3.37309e-06)
(0.000375824 -0.00169699 -3.28055e-06)
(0.000363488 -0.00158411 -3.17293e-06)
(0.00034949 -0.00147226 -3.05077e-06)
(0.000333898 -0.00136129 -2.91467e-06)
(0.000316795 -0.00125117 -2.76536e-06)
(0.000298217 -0.00114196 -2.60315e-06)
(0.000278148 -0.00103451 -2.42796e-06)
(0.000256705 -0.000930707 -2.24085e-06)
(0.000234288 -0.000832393 -2.04528e-06)
(0.000211334 -0.00073972 -1.84498e-06)
(0.000188065 -0.000652158 -1.64189e-06)
(0.000164634 -0.000569421 -1.43736e-06)
(0.000141231 -0.000491527 -1.23307e-06)
(0.000118098 -0.000418534 -1.03114e-06)
(9.55119e-05 -0.000350361 -8.33975e-07)
(7.3774e-05 -0.000286645 -6.44217e-07)
(5.32288e-05 -0.000226566 -4.64857e-07)
(3.42378e-05 -0.000168579 -2.99055e-07)
(1.7475e-05 -0.00011002 -1.52747e-07)
(3.21307e-06 -4.44037e-05 -3.02042e-08)
(0.000410408 -0.00216996 -3.58194e-06)
(0.000404993 -0.00205214 -3.53474e-06)
(0.000397377 -0.00193423 -3.46838e-06)
(0.00038786 -0.00181694 -3.38544e-06)
(0.000376734 -0.00170066 -3.28843e-06)
(0.000364157 -0.0015855 -3.17872e-06)
(0.000350154 -0.00147151 -3.0565e-06)
(0.000334732 -0.00135875 -2.92187e-06)
(0.000317904 -0.00124733 -2.77493e-06)
(0.00029956 -0.00113744 -2.61473e-06)
(0.000279463 -0.00102982 -2.43929e-06)
(0.000257649 -0.00092598 -2.24898e-06)
(0.000234766 -0.000827388 -2.04938e-06)
(0.000211515 -0.00073426 -1.84653e-06)
(0.000188127 -0.00064628 -1.64241e-06)
(0.000164654 -0.000563287 -1.43752e-06)
(0.00014122 -0.000485319 -1.23297e-06)
(0.000118041 -0.000412405 -1.03064e-06)
(9.53937e-05 -0.000344431 -8.32962e-07)
(7.3588e-05 -0.000281008 -6.4263e-07)
(5.29763e-05 -0.000221318 -4.62709e-07)
(3.39152e-05 -0.000163846 -2.96317e-07)
(1.70921e-05 -0.000105944 -1.49557e-07)
(2.82887e-06 -4.17318e-05 -2.79028e-08)
(0.000415799 -0.00217919 -3.629e-06)
(0.000409719 -0.00206018 -3.576e-06)
(0.0004013 -0.00194093 -3.50263e-06)
(0.000391003 -0.00182205 -3.4129e-06)
(0.000379262 -0.00170391 -3.31053e-06)
(0.000366293 -0.00158676 -3.1974e-06)
(0.000352108 -0.00147085 -3.07359e-06)
(0.000336682 -0.00135642 -2.93892e-06)
(0.000319982 -0.00124375 -2.79307e-06)
(0.000301757 -0.00113314 -2.63388e-06)
(0.000281525 -0.00102523 -2.45724e-06)
(0.000259206 -0.000921199 -2.26253e-06)
(0.000235703 -0.000822209 -2.05755e-06)
(0.000212015 -0.000728545 -1.8509e-06)
(0.000188396 -0.000640092 -1.64477e-06)
(0.000164795 -0.000556796 -1.43875e-06)
(0.000141253 -0.000478706 -1.23325e-06)
(0.000117958 -0.000405822 -1.02991e-06)
(9.51819e-05 -0.000337999 -8.31113e-07)
(7.32433e-05 -0.000274837 -6.39626e-07)
(5.25048e-05 -0.00021552 -4.58606e-07)
(3.33301e-05 -0.000158577 -2.91228e-07)
(1.64341e-05 -0.000101391 -1.43853e-07)
(2.45469e-06 -3.88305e-05 -2.47803e-08)
(0.000422782 -0.00218805 -3.68991e-06)
(0.000415993 -0.00206791 -3.63074e-06)
(0.000406817 -0.00194743 -3.5508e-06)
(0.000395826 -0.00182701 -3.45503e-06)
(0.000383499 -0.001707 -3.34756e-06)
(0.000370059 -0.00158779 -3.23032e-06)
(0.000355497 -0.00146986 -3.10323e-06)
(0.000339781 -0.00135371 -2.966e-06)
(0.000322869 -0.00123983 -2.81828e-06)
(0.000304447 -0.00112864 -2.65734e-06)
(0.000283899 -0.00102069 -2.47792e-06)
(0.000261073 -0.000916719 -2.2788e-06)
(0.000237005 -0.000817462 -2.06892e-06)
(0.000212866 -0.000723304 -1.85834e-06)
(0.000188929 -0.000634382 -1.64944e-06)
(0.000165091 -0.000550789 -1.44135e-06)
(0.000141347 -0.000472589 -1.23407e-06)
(0.00011786 -0.000399746 -1.02906e-06)
(9.48992e-05 -0.000332077 -8.28644e-07)
(7.27848e-05 -0.000269163 -6.35623e-07)
(5.18879e-05 -0.000210193 -4.53221e-07)
(3.25931e-05 -0.00015374 -2.84793e-07)
(1.56615e-05 -9.72645e-05 -1.37098e-07)
(2.13953e-06 -3.63416e-05 -2.17741e-08)
(0.000431274 -0.00219689 -3.76402e-06)
(0.000423719 -0.00207562 -3.69818e-06)
(0.000413839 -0.00195391 -3.6121e-06)
(0.000402253 -0.00183193 -3.51113e-06)
(0.000389392 -0.00171 -3.39901e-06)
(0.00037542 -0.00158864 -3.27712e-06)
(0.000360296 -0.0014686 -3.14512e-06)
(0.000343996 -0.00135064 -3.0028e-06)
(0.000326515 -0.00123553 -2.85011e-06)
(0.000307561 -0.00112381 -2.68452e-06)
(0.000286509 -0.00101592 -2.50071e-06)
(0.000263191 -0.000912112 -2.29729e-06)
(0.000238643 -0.000812661 -2.08322e-06)
(0.000214057 -0.000718037 -1.86875e-06)
(0.000189724 -0.000628654 -1.65639e-06)
(0.000165543 -0.000544768 -1.4453e-06)
(0.000141503 -0.00046647 -1.23544e-06)
(0.000117757 -0.000393686 -1.02816e-06)
(9.45642e-05 -0.00032619 -8.25724e-07)
(7.22441e-05 -0.000263542 -6.30906e-07)
(5.11738e-05 -0.000204931 -4.46991e-07)
(3.17719e-05 -0.000148988 -2.77623e-07)
(1.48576e-05 -9.329e-05 -1.30067e-07)
(1.85686e-06 -3.40712e-05 -1.90543e-08)
(0.000441173 -0.0022056 -3.85045e-06)
(0.000432802 -0.00208316 -3.77749e-06)
(0.000422282 -0.00196017 -3.68582e-06)
(0.000410212 -0.00183662 -3.58061e-06)
(0.00039688 -0.00171275 -3.46435e-06)
(0.000382322 -0.00158928 -3.33734e-06)
(0.000366454 -0.00146716 -3.19884e-06)
(0.000349284 -0.00134744 -3.04895e-06)
(0.000330883 -0.00123108 -2.88825e-06)
(0.000311067 -0.00111882 -2.71516e-06)
(0.000289333 -0.00101095 -2.5254e-06)
(0.000265541 -0.000907286 -2.31783e-06)
(0.000240598 -0.000807654 -2.10029e-06)
(0.000215574 -0.000712592 -1.88198e-06)
(0.000190773 -0.000622773 -1.66554e-06)
(0.000166151 -0.00053861 -1.45061e-06)
(0.000141729 -0.000460221 -1.23742e-06)
(0.000117661 -0.000387504 -1.02733e-06)
(9.41967e-05 -0.000320194 -8.22521e-07)
(7.16489e-05 -0.000257827 -6.25714e-07)
(5.04001e-05 -0.0001996 -4.40239e-07)
(3.09121e-05 -0.000144203 -2.70118e-07)
(1.40664e-05 -8.93692e-05 -1.23149e-07)
(1.60368e-06 -3.19356e-05 -1.66332e-08)
(0.000452419 -0.00221415 -3.94865e-06)
(0.000443185 -0.0020904 -3.86817e-06)
(0.000432081 -0.00196602 -3.77138e-06)
(0.000419618 -0.00184085 -3.66271e-06)
(0.000405856 -0.00171513 -3.54266e-06)
(0.000390653 -0.00158968 -3.40999e-06)
(0.000373874 -0.00146567 -3.26355e-06)
(0.000355575 -0.00134432 -3.10383e-06)
(0.000335939 -0.00122678 -2.93239e-06)
(0.000314964 -0.0011139 -2.74925e-06)
(0.00029238 -0.0010059 -2.55209e-06)
(0.000268119 -0.000902232 -2.3404e-06)
(0.00024285 -0.000802382 -2.11996e-06)
(0.000217395 -0.000706924 -1.89787e-06)
(0.000192064 -0.000616723 -1.67679e-06)
(0.000166914 -0.000532317 -1.45727e-06)
(0.000142032 -0.000453854 -1.24008e-06)
(0.000117587 -0.000381212 -1.02669e-06)
(9.38155e-05 -0.000314096 -8.19202e-07)
(7.10239e-05 -0.000252026 -6.20264e-07)
(4.95983e-05 -0.000194207 -4.33243e-07)
(3.00482e-05 -0.0001394 -2.62576e-07)
(1.33145e-05 -8.5514e-05 -1.16572e-07)
(1.3827e-06 -2.99285e-05 -1.45141e-08)
(0.000465002 -0.00222253 -4.05853e-06)
(0.000454857 -0.00209724 -3.97011e-06)
(0.000443188 -0.0019713 -3.86836e-06)
(0.000430367 -0.00184448 -3.75651e-06)
(0.000416168 -0.00171703 -3.6326e-06)
(0.000400242 -0.00158987 -3.49361e-06)
(0.000382403 -0.00146424 -3.33793e-06)
(0.00036277 -0.00134149 -3.16659e-06)
(0.000341657 -0.00122286 -2.98232e-06)
(0.000319292 -0.00110925 -2.78711e-06)
(0.000295711 -0.00100085 -2.58128e-06)
(0.000270958 -0.00089694 -2.36526e-06)
(0.000245388 -0.000796791 -2.14214e-06)
(0.000219491 -0.000700982 -1.91615e-06)
(0.000193574 -0.000610476 -1.68996e-06)
(0.000167825 -0.000525884 -1.46522e-06)
(0.000142418 -0.000447374 -1.24345e-06)
(0.000117546 -0.000374818 -1.02635e-06)
(9.34381e-05 -0.000307904 -8.15918e-07)
(7.03911e-05 -0.000246146 -6.14746e-07)
(4.8794e-05 -0.000188766 -4.26225e-07)
(2.92054e-05 -0.000134597 -2.55218e-07)
(1.26173e-05 -8.17386e-05 -1.10473e-07)
(1.19339e-06 -2.80466e-05 -1.26886e-08)
(0.000478951 -0.00223075 -4.18034e-06)
(0.000467838 -0.00210365 -4.08349e-06)
(0.000455565 -0.00197594 -3.97643e-06)
(0.000442336 -0.00184743 -3.86097e-06)
(0.000427626 -0.00171842 -3.73255e-06)
(0.000410876 -0.00158984 -3.58635e-06)
(0.000391857 -0.00146295 -3.42037e-06)
(0.000370755 -0.00133906 -3.23624e-06)
(0.000348018 -0.00121942 -3.03786e-06)
(0.000324119 -0.00110495 -2.82933e-06)
(0.000299426 -0.000995846 -2.61384e-06)
(0.000274114 -0.000891395 -2.39291e-06)
(0.000248208 -0.000790837 -2.16678e-06)
(0.00022183 -0.000694722 -1.93655e-06)
(0.000195274 -0.000604001 -1.70478e-06)
(0.000168869 -0.000519292 -1.47433e-06)
(0.000142887 -0.000440771 -1.24755e-06)
(0.000117549 -0.000368316 -1.02639e-06)
(9.30798e-05 -0.000301616 -8.12801e-07)
(6.97685e-05 -0.000240189 -6.09319e-07)
(4.80071e-05 -0.00018328 -4.19359e-07)
(2.8401e-05 -0.000129801 -2.48194e-07)
(1.1982e-05 -7.80452e-05 -1.04916e-07)
(1.03297e-06 -2.62792e-05 -1.11338e-08)
(0.000494311 -0.00223879 -4.31448e-06)
(0.000482161 -0.0021096 -4.20856e-06)
(0.000469176 -0.00197993 -4.09527e-06)
(0.000455399 -0.00184971 -3.97497e-06)
(0.000440033 -0.00171931 -3.84078e-06)
(0.000422335 -0.00158961 -3.68629e-06)
(0.000402045 -0.00146178 -3.50922e-06)
(0.000379413 -0.00133702 -3.31177e-06)
(0.000355007 -0.00121647 -3.09889e-06)
(0.000329522 -0.00110099 -2.87658e-06)
(0.000303636 -0.000990877 -2.6507e-06)
(0.000277656 -0.000885582 -2.42392e-06)
(0.000251311 -0.000784501 -2.19389e-06)
(0.000224376 -0.000688121 -1.95876e-06)
(0.000197132 -0.000597276 -1.72098e-06)
(0.000170031 -0.000512522 -1.48446e-06)
(0.000143437 -0.000434033 -1.25236e-06)
(0.000117604 -0.0003617 -1.02687e-06)
(9.27536e-05 -0.000295229 -8.09964e-07)
(6.91712e-05 -0.000234154 -6.04112e-07)
(4.72525e-05 -0.000177753 -4.12774e-07)
(2.76457e-05 -0.000125018 -2.41599e-07)
(1.14105e-05 -7.44313e-05 -9.99149e-08)
(8.98004e-07 -2.46137e-05 -9.81993e-09)
(0.000511126 -0.00224667 -4.46129e-06)
(0.00049785 -0.00211515 -4.34555e-06)
(0.00048398 -0.00198335 -4.22451e-06)
(0.000469434 -0.00185139 -4.09746e-06)
(0.000453204 -0.00171973 -3.95571e-06)
(0.000434417 -0.00158915 -3.79169e-06)
(0.000412793 -0.00146064 -3.60299e-06)
(0.000388636 -0.00133521 -3.39226e-06)
(0.000362607 -0.00121382 -3.16524e-06)
(0.000335568 -0.00109725 -2.92941e-06)
(0.00030844 -0.00098587 -2.69273e-06)
(0.000281646 -0.000879483 -2.45882e-06)
(0.000254696 -0.000777784 -2.22346e-06)
(0.000227099 -0.000681176 -1.98252e-06)
(0.000199115 -0.000590287 -1.73828e-06)
(0.000171291 -0.000505559 -1.49546e-06)
(0.000144065 -0.000427147 -1.25784e-06)
(0.000117715 -0.000354963 -1.02786e-06)
(9.24694e-05 -0.000288741 -8.07493e-07)
(6.86107e-05 -0.000228042 -5.99226e-07)
(4.65407e-05 -0.000172188 -4.06564e-07)
(2.69457e-05 -0.00012025 -2.35487e-07)
(1.0901e-05 -7.08936e-05 -9.5457e-08)
(7.85042e-07 -2.3038e-05 -8.71552e-09)
(0.000529412 -0.00225438 -4.62093e-06)
(0.000514906 -0.00212036 -4.49445e-06)
(0.000499928 -0.00198631 -4.36373e-06)
(0.000484332 -0.0018526 -4.2275e-06)
(0.000466993 -0.00171975 -4.07606e-06)
(0.000446965 -0.00158842 -3.90121e-06)
(0.000423966 -0.00145938 -3.70051e-06)
(0.000398337 -0.0013334 -3.47694e-06)
(0.000370793 -0.00121121 -3.23671e-06)
(0.000342291 -0.00109349 -2.98814e-06)
(0.0003139 -0.000980701 -2.74045e-06)
(0.000286121 -0.000873075 -2.49792e-06)
(0.000258356 -0.000770704 -2.25543e-06)
(0.000229967 -0.000673898 -2.00756e-06)
(0.000201194 -0.00058303 -1.75643e-06)
(0.000172632 -0.000498389 -1.50717e-06)
(0.000144763 -0.000420099 -1.26394e-06)
(0.000117886 -0.000348095 -1.02936e-06)
(9.2234e-05 -0.000282148 -8.05447e-07)
(6.80951e-05 -0.000221858 -5.94732e-07)
(4.58787e-05 -0.00016659 -4.00788e-07)
(2.63037e-05 -0.000115501 -2.29881e-07)
(1.04499e-05 -6.74276e-05 -9.15101e-08)
(6.90815e-07 -2.15409e-05 -7.79039e-09)
(0.000549152 -0.00226194 -4.79323e-06)
(0.000533298 -0.00212532 -4.655e-06)
(0.000516964 -0.00198895 -4.51244e-06)
(0.000500011 -0.00185347 -4.36438e-06)
(0.000481302 -0.00171942 -4.20098e-06)
(0.000459884 -0.00158736 -4.01399e-06)
(0.000435482 -0.0014578 -3.80105e-06)
(0.000408454 -0.00133127 -3.56526e-06)
(0.00037953 -0.00120831 -3.31299e-06)
(0.000349689 -0.00108943 -3.05272e-06)
(0.00032003 -0.000975223 -2.79396e-06)
(0.000291087 -0.000866333 -2.54128e-06)
(0.000262279 -0.000763289 -2.28969e-06)
(0.000232958 -0.000666311 -2.03368e-06)
(0.000203346 -0.000575507 -1.77523e-06)
(0.000174038 -0.000490999 -1.51945e-06)
(0.000145524 -0.000412873 -1.2706e-06)
(0.000118115 -0.000341087 -1.03137e-06)
(9.20508e-05 -0.000275449 -8.03855e-07)
(6.76294e-05 -0.000215602 -5.90671e-07)
(4.52703e-05 -0.000160964 -3.95479e-07)
(2.572e-05 -0.000110773 -2.24784e-07)
(1.00526e-05 -6.40287e-05 -8.80337e-08)
(6.12368e-07 -2.01118e-05 -7.0171e-09)
(0.000570284 -0.00226935 -4.97766e-06)
(0.000552961 -0.00213011 -4.82662e-06)
(0.000535024 -0.00199142 -4.67008e-06)
(0.000516418 -0.00185411 -4.50762e-06)
(0.000496091 -0.00171879 -4.3301e-06)
(0.00047314 -0.00158587 -4.12975e-06)
(0.000447307 -0.00145568 -3.90431e-06)
(0.000418948 -0.00132853 -3.65689e-06)
(0.000388773 -0.00120478 -3.39367e-06)
(0.000357712 -0.00108481 -3.12273e-06)
(0.000326783 -0.000969281 -2.85288e-06)
(0.00029651 -0.000859232 -2.58861e-06)
(0.000266442 -0.000755568 -2.32603e-06)
(0.000236052 -0.000658442 -2.06071e-06)
(0.000205555 -0.000567723 -1.79452e-06)
(0.000175495 -0.00048338 -1.53218e-06)
(0.00014634 -0.000405458 -1.27772e-06)
(0.000118399 -0.00033393 -1.03384e-06)
(9.19196e-05 -0.000268642 -8.02715e-07)
(6.72152e-05 -0.000209279 -5.8706e-07)
(4.47167e-05 -0.000155314 -3.90649e-07)
(2.51928e-05 -0.000106069 -2.20182e-07)
(9.70401e-06 -6.06916e-05 -8.49839e-08)
(5.47121e-07 -1.87413e-05 -6.37153e-09)
(0.000592711 -0.00227662 -5.17338e-06)
(0.000573801 -0.00213482 -5.00849e-06)
(0.000554043 -0.00199383 -4.83609e-06)
(0.00053353 -0.00185463 -4.65701e-06)
(0.000511369 -0.00171787 -4.46353e-06)
(0.000486757 -0.00158387 -4.24869e-06)
(0.000459456 -0.00145282 -4.01043e-06)
(0.000429801 -0.0013249 -3.75167e-06)
(0.000398464 -0.00120032 -3.47827e-06)
(0.000366267 -0.00107936 -3.19737e-06)
(0.000334065 -0.00096274 -2.91638e-06)
(0.000302322 -0.000851746 -2.6393e-06)
(0.00027081 -0.000747567 -2.36417e-06)
(0.000239235 -0.000650315 -2.08852e-06)
(0.000207809 -0.000559684 -1.81423e-06)
(0.000176993 -0.000475525 -1.54528e-06)
(0.0001472 -0.000397841 -1.28524e-06)
(0.000118729 -0.000326616 -1.03674e-06)
(9.18372e-05 -0.000261725 -8.01998e-07)
(6.68515e-05 -0.000202892 -5.83888e-07)
(4.4217e-05 -0.000149645 -3.86289e-07)
(2.47196e-05 -0.000101389 -2.1605e-07)
(9.39912e-06 -5.74112e-05 -8.23169e-08)
(4.92897e-07 -1.7421e-05 -5.83316e-09)
(0.000616305 -0.00228375 -5.37928e-06)
(0.000595702 -0.00213948 -5.19963e-06)
(0.000573957 -0.00199622 -5.00992e-06)
(0.000551346 -0.00185505 -4.81257e-06)
(0.000527187 -0.00171663 -4.60168e-06)
(0.000500802 -0.00158127 -4.37137e-06)
(0.000471973 -0.00144908 -4.11976e-06)
(0.000441011 -0.00132018 -3.84957e-06)
(0.000408534 -0.00119472 -3.56618e-06)
(0.000375232 -0.00107292 -3.27558e-06)
(0.000341736 -0.000955501 -2.98326e-06)
(0.000308424 -0.000843854 -2.69251e-06)
(0.000275341 -0.000739302 -2.40373e-06)
(0.000242495 -0.000641946 -2.11701e-06)
(0.000210104 -0.000551395 -1.8343e-06)
(0.000178524 -0.000467428 -1.55866e-06)
(0.000148095 -0.000390016 -1.29306e-06)
(0.000119098 -0.00031914 -1.03996e-06)
(9.17973e-05 -0.000254696 -8.01652e-07)
(6.65347e-05 -0.000196441 -5.81124e-07)
(4.37684e-05 -0.000143959 -3.82374e-07)
(2.42965e-05 -9.67337e-05 -2.12357e-07)
(9.13316e-06 -5.41825e-05 -7.99908e-08)
(4.47897e-07 -1.61434e-05 -5.3849e-09)
(0.000640925 -0.00229073 -5.59414e-06)
(0.000618544 -0.00214407 -5.39898e-06)
(0.000594708 -0.00199859 -5.19105e-06)
(0.000569885 -0.00185534 -4.97444e-06)
(0.000543617 -0.00171504 -4.74517e-06)
(0.000515358 -0.001578 -4.49851e-06)
(0.000484917 -0.00144438 -4.23283e-06)
(0.000452579 -0.00131429 -3.9506e-06)
(0.000418912 -0.00118791 -3.65677e-06)
(0.000384466 -0.00106542 -3.35613e-06)
(0.000349636 -0.000947514 -3.05214e-06)
(0.000314702 -0.000835535 -2.74725e-06)
(0.000279989 -0.000730771 -2.4443e-06)
(0.000245822 -0.000633339 -2.14609e-06)
(0.000212437 -0.000542858 -1.85469e-06)
(0.000180079 -0.000459087 -1.57226e-06)
(0.000149013 -0.000381977 -1.30109e-06)
(0.000119496 -0.0003115 -1.04343e-06)
(9.17916e-05 -0.000247555 -8.01604e-07)
(6.62592e-05 -0.00018993 -5.7872e-07)
(4.33666e-05 -0.000138258 -3.78868e-07)
(2.39194e-05 -9.21028e-05 -2.09066e-07)
(8.90165e-06 -5.10007e-05 -7.79662e-08)
(4.10662e-07 -1.49022e-05 -5.01272e-09)
(0.000666435 -0.00229751 -5.81677e-06)
(0.00064221 -0.00214856 -5.60552e-06)
(0.000616244 -0.00200086 -5.37904e-06)
(0.000589168 -0.00185544 -5.1428e-06)
(0.000560728 -0.00171303 -4.8946e-06)
(0.000530506 -0.00157403 -4.63082e-06)
(0.000498341 -0.0014387 -4.35008e-06)
(0.000464503 -0.00130725 -4.05473e-06)
(0.000429521 -0.0011799 -3.74939e-06)
(0.000393828 -0.00105687 -3.43781e-06)
(0.000357605 -0.000938781 -3.12163e-06)
(0.000321039 -0.000826776 -2.80253e-06)
(0.000284702 -0.000721959 -2.48544e-06)
(0.000249204 -0.000624485 -2.17564e-06)
(0.000214804 -0.000534067 -1.87539e-06)
(0.000181654 -0.000450501 -1.58602e-06)
(0.000149944 -0.000373726 -1.30923e-06)
(0.000119909 -0.000303695 -1.04704e-06)
(9.18103e-05 -0.000240305 -8.01768e-07)
(6.60176e-05 -0.000183361 -5.76612e-07)
(4.30064e-05 -0.000132546 -3.75724e-07)
(2.35837e-05 -8.74954e-05 -2.06135e-07)
(8.70046e-06 -4.78615e-05 -7.62069e-08)
(3.80009e-07 -1.3692e-05 -4.70518e-09)
(0.000692713 -0.00230406 -6.04612e-06)
(0.0006666 -0.00215284 -5.8184e-06)
(0.000638517 -0.00200291 -5.57346e-06)
(0.000609208 -0.00185521 -5.31776e-06)
(0.000578573 -0.00171051 -5.05042e-06)
(0.000546304 -0.00156934 -4.76878e-06)
(0.000512279 -0.00143212 -4.47179e-06)
(0.00047677 -0.00129918 -4.16185e-06)
(0.000440292 -0.00117084 -3.84341e-06)
(0.000403192 -0.00104739 -3.51952e-06)
(0.000365498 -0.00092935 -3.19048e-06)
(0.000327329 -0.000817564 -2.8574e-06)
(0.000289432 -0.000712833 -2.52673e-06)
(0.000252626 -0.00061536 -2.20554e-06)
(0.0002172 -0.000525015 -1.89633e-06)
(0.000183237 -0.000441671 -1.59987e-06)
(0.000150876 -0.000365266 -1.31738e-06)
(0.000120325 -0.00029573 -1.05068e-06)
(9.18422e-05 -0.000232948 -8.02049e-07)
(6.58017e-05 -0.000176737 -5.74729e-07)
(4.26814e-05 -0.000126821 -3.72888e-07)
(2.32843e-05 -8.29104e-05 -2.03521e-07)
(8.52569e-06 -4.47606e-05 -7.46786e-08)
(3.54976e-07 -1.25084e-05 -4.45276e-09)
(0.000719671 -0.00231032 -6.28143e-06)
(0.000691638 -0.00215679 -6.03696e-06)
(0.000661486 -0.00200457 -5.77396e-06)
(0.000629998 -0.00185451 -5.49925e-06)
(0.000597166 -0.0017074 -5.21274e-06)
(0.000562765 -0.00156395 -4.91249e-06)
(0.000526728 -0.00142474 -4.59794e-06)
(0.000489353 -0.00129026 -4.27171e-06)
(0.00045116 -0.00116095 -3.9383e-06)
(0.00041246 -0.00103715 -3.60043e-06)
(0.000373206 -0.000919303 -3.25777e-06)
(0.000333487 -0.000807893 -2.91115e-06)
(0.000294132 -0.000703351 -2.56777e-06)
(0.000256069 -0.000605932 -2.23561e-06)
(0.000219611 -0.000515689 -1.9174e-06)
(0.000184818 -0.000432598 -1.61368e-06)
(0.000151795 -0.000356605 -1.32541e-06)
(0.000120731 -0.000287612 -1.05423e-06)
(9.18762e-05 -0.00022549 -8.02349e-07)
(6.56026e-05 -0.00017006 -5.72992e-07)
(4.23849e-05 -0.000121086 -3.703e-07)
(2.30159e-05 -7.83464e-05 -2.01177e-07)
(8.37367e-06 -4.16946e-05 -7.33489e-08)
(3.34749e-07 -1.13479e-05 -4.24743e-09)
(0.000747255 -0.00231621 -6.52223e-06)
(0.000717275 -0.00216026 -6.26075e-06)
(0.000685108 -0.00200567 -5.98016e-06)
(0.000651503 -0.00185318 -5.68696e-06)
(0.000616473 -0.00170364 -5.38127e-06)
(0.000579854 -0.00155789 -5.06166e-06)
(0.000541647 -0.00141672 -4.72819e-06)
(0.000502205 -0.00128072 -4.38391e-06)
(0.00046207 -0.00115046 -4.03356e-06)
(0.000421569 -0.00102635 -3.67997e-06)
(0.000380665 -0.000908737 -3.3229e-06)
(0.000339458 -0.000797758 -2.96329e-06)
(0.000298763 -0.000693469 -2.60821e-06)
(0.000259505 -0.000596162 -2.26562e-06)
(0.00022202 -0.000506075 -1.93844e-06)
(0.000186381 -0.000423286 -1.62734e-06)
(0.000152687 -0.00034775 -1.3332e-06)
(0.000121114 -0.00027935 -1.05758e-06)
(9.1901e-05 -0.000217936 -8.02569e-07)
(6.54113e-05 -0.000163333 -5.71324e-07)
(4.21095e-05 -0.000115341 -3.67897e-07)
(2.2773e-05 -7.38018e-05 -1.99057e-07)
(8.24084e-06 -3.86601e-05 -7.21869e-08)
(3.1862e-07 -1.02075e-05 -4.08208e-09)
(0.000775451 -0.00232164 -6.76838e-06)
(0.000743484 -0.0021631 -6.48955e-06)
(0.000709338 -0.00200603 -6.19167e-06)
(0.000673656 -0.00185108 -5.88032e-06)
(0.000636412 -0.00169915 -5.55529e-06)
(0.000597483 -0.00155122 -5.21553e-06)
(0.000556959 -0.00140819 -4.86183e-06)
(0.000515262 -0.00127078 -4.49789e-06)
(0.000472981 -0.00113961 -4.12883e-06)
(0.000430493 -0.00101518 -3.75792e-06)
(0.000387855 -0.00089775 -3.38572e-06)
(0.000345215 -0.000787156 -3.01359e-06)
(0.000303292 -0.000683142 -2.64777e-06)
(0.000262903 -0.000586016 -2.29529e-06)
(0.0002244 -0.000496159 -1.95921e-06)
(0.000187904 -0.000413735 -1.64064e-06)
(0.000153535 -0.000338713 -1.34062e-06)
(0.000121461 -0.000270954 -1.06062e-06)
(9.19056e-05 -0.000210293 -8.02615e-07)
(6.52185e-05 -0.00015656 -5.69644e-07)
(4.18481e-05 -0.000109588 -3.65615e-07)
(2.25502e-05 -6.92756e-05 -1.97111e-07)
(8.12373e-06 -3.56547e-05 -7.1162e-08)
(3.05936e-07 -9.08501e-06 -3.9502e-09)
(0.000804273 -0.00232654 -7.02002e-06)
(0.000770257 -0.00216519 -6.72329e-06)
(0.000734126 -0.0020055 -6.40805e-06)
(0.000696361 -0.00184809 -6.07849e-06)
(0.000656857 -0.00169389 -5.73371e-06)
(0.000615523 -0.00154396 -5.37296e-06)
(0.000572551 -0.00139927 -4.99791e-06)
(0.000528449 -0.00126059 -4.613e-06)
(0.000483858 -0.0011286 -4.2238e-06)
(0.000439239 -0.0010038 -3.83433e-06)
(0.000394795 -0.000886415 -3.44639e-06)
(0.00035076 -0.000776086 -3.06207e-06)
(0.000307694 -0.000672336 -2.68621e-06)
(0.000266225 -0.000575463 -2.32429e-06)
(0.000226717 -0.000485929 -1.97944e-06)
(0.000189365 -0.000403951 -1.65339e-06)
(0.000154323 -0.000329503 -1.3475e-06)
(0.000121758 -0.000262434 -1.06323e-06)
(9.18796e-05 -0.00020257 -8.02394e-07)
(6.50156e-05 -0.000149746 -5.67876e-07)
(4.15931e-05 -0.000103827 -3.6339e-07)
(2.23417e-05 -6.47673e-05 -1.9529e-07)
(8.01894e-06 -3.26763e-05 -7.02446e-08)
(2.96078e-07 -7.97862e-06 -3.84563e-09)
(0.000833753 -0.0023308 -7.27741e-06)
(0.000797597 -0.00216641 -6.96197e-06)
(0.000759412 -0.00200398 -6.62877e-06)
(0.000719497 -0.00184414 -6.28042e-06)
(0.00067765 -0.00168782 -5.91518e-06)
(0.000633815 -0.00153612 -5.53259e-06)
(0.00058829 -0.00139002 -5.13527e-06)
(0.000541678 -0.00125025 -4.72848e-06)
(0.000494675 -0.0011175 -4.31825e-06)
(0.000447832 -0.000992283 -3.90941e-06)
(0.000401533 -0.000874773 -3.50531e-06)
(0.000356115 -0.000764544 -3.10888e-06)
(0.000311946 -0.000661028 -2.72336e-06)
(0.000269431 -0.000564485 -2.35227e-06)
(0.000228934 -0.00047538 -1.99879e-06)
(0.000190734 -0.000393937 -1.66535e-06)
(0.000155031 -0.000320129 -1.35369e-06)
(0.000121994 -0.000253801 -1.06529e-06)
(9.18128e-05 -0.000194774 -8.01818e-07)
(6.47938e-05 -0.000142896 -5.65943e-07)
(4.13372e-05 -9.80609e-05 -3.61156e-07)
(2.21419e-05 -6.0277e-05 -1.93544e-07)
(7.92316e-06 -2.97237e-05 -6.94056e-08)
(2.88455e-07 -6.88701e-06 -3.76252e-09)
(0.000863928 -0.00233436 -7.54085e-06)
(0.0008255 -0.0021667 -7.20558e-06)
(0.000785128 -0.0020014 -6.85325e-06)
(0.00074293 -0.00183916 -6.48494e-06)
(0.000698621 -0.00168091 -6.09819e-06)
(0.000652187 -0.00152769 -5.69292e-06)
(0.000604037 -0.00138041 -5.27271e-06)
(0.000554862 -0.00123975 -4.84356e-06)
(0.000505405 -0.00110632 -4.41195e-06)
(0.000456306 -0.000980625 -3.98345e-06)
(0.000408128 -0.000862822 -3.56296e-06)
(0.000361306 -0.000752526 -3.15426e-06)
(0.00031603 -0.000649212 -2.75903e-06)
(0.000272478 -0.000553078 -2.37887e-06)
(0.00023101 -0.00046451 -2.01691e-06)
(0.000191982 -0.000383696 -1.67625e-06)
(0.00015564 -0.000310599 -1.35901e-06)
(0.000122154 -0.000245062 -1.06669e-06)
(9.16954e-05 -0.000186913 -8.00799e-07)
(6.45449e-05 -0.000136014 -5.63774e-07)
(4.10732e-05 -9.22937e-05 -3.58852e-07)
(2.19453e-05 -5.58059e-05 -1.91825e-07)
(7.83317e-06 -2.67962e-05 -6.86172e-08)
(2.825e-07 -5.80919e-06 -3.69532e-09)
(0.000894822 -0.00233715 -7.81057e-06)
(0.000853957 -0.00216601 -7.45402e-06)
(0.000811199 -0.00199775 -7.08083e-06)
(0.000766524 -0.00183316 -6.69087e-06)
(0.000719602 -0.00167313 -6.2813e-06)
(0.000670475 -0.00151861 -5.85254e-06)
(0.000619659 -0.00137035 -5.40906e-06)
(0.000567914 -0.00122896 -4.9575e-06)
(0.00051602 -0.00109495 -4.50464e-06)
(0.000464689 -0.000968741 -4.05668e-06)
(0.000414627 -0.000850516 -3.61977e-06)
(0.000366357 -0.000740026 -3.19842e-06)
(0.000319924 -0.000636899 -2.79305e-06)
(0.000275324 -0.000541251 -2.40371e-06)
(0.000232904 -0.000453327 -2.03344e-06)
(0.000193079 -0.000373236 -1.68583e-06)
(0.00015613 -0.000300919 -1.36329e-06)
(0.000122225 -0.000236225 -1.06732e-06)
(9.15172e-05 -0.000178994 -7.9925e-07)
(6.42605e-05 -0.000129109 -5.61294e-07)
(4.0794e-05 -8.65298e-05 -3.56415e-07)
(2.17464e-05 -5.13561e-05 -1.90087e-07)
(7.74595e-06 -2.38941e-05 -6.7853e-08)
(2.77691e-07 -4.74449e-06 -3.63891e-09)
(0.000926441 -0.00233913 -8.08662e-06)
(0.000882941 -0.00216434 -7.70704e-06)
(0.000837546 -0.00199305 -7.31082e-06)
(0.000790152 -0.00182614 -6.89712e-06)
(0.000740445 -0.00166445 -6.46323e-06)
(0.000688539 -0.00150878 -6.01022e-06)
(0.000635038 -0.0013597 -5.54331e-06)
(0.000580753 -0.0012177 -5.06958e-06)
(0.000526484 -0.00108318 -4.596e-06)
(0.000472986 -0.000956477 -4.12915e-06)
(0.000421057 -0.000837776 -3.67595e-06)
(0.000371276 -0.000727036 -3.2414e-06)
(0.000323605 -0.000624112 -2.8252e-06)
(0.000277929 -0.000529027 -2.42646e-06)
(0.000234578 -0.000441844 -2.04806e-06)
(0.000193997 -0.000362561 -1.69384e-06)
(0.000156481 -0.000291095 -1.36636e-06)
(0.000122193 -0.000227296 -1.06705e-06)
(9.12681e-05 -0.000171025 -7.9708e-07)
(6.39322e-05 -0.000122187 -5.5843e-07)
(4.04927e-05 -8.07746e-05 -3.53784e-07)
(2.15401e-05 -4.69308e-05 -1.88285e-07)
(7.65868e-06 -2.10182e-05 -6.70885e-08)
(2.73564e-07 -3.69254e-06 -3.58874e-09)
(0.000958767 -0.00234025 -8.36882e-06)
(0.000912405 -0.0021617 -7.96425e-06)
(0.000864087 -0.00198734 -7.54251e-06)
(0.000813711 -0.00181812 -7.10277e-06)
(0.000761037 -0.00165483 -6.643e-06)
(0.000706272 -0.00149807 -6.16503e-06)
(0.000650081 -0.00134826 -5.67465e-06)
(0.000593305 -0.00120573 -5.17917e-06)
(0.000536747 -0.00107078 -4.68561e-06)
(0.000481172 -0.000943638 -4.20063e-06)
(0.000427407 -0.0008245 -3.7314e-06)
(0.000376047 -0.000713547 -3.28307e-06)
(0.000327044 -0.00061088 -2.85524e-06)
(0.000280257 -0.000516436 -2.44679e-06)
(0.000235999 -0.000430076 -2.06047e-06)
(0.000194707 -0.000351681 -1.70005e-06)
(0.000156672 -0.00028113 -1.36804e-06)
(0.000122044 -0.000218282 -1.06576e-06)
(9.09371e-05 -0.000163013 -7.94194e-07)
(6.35515e-05 -0.000115256 -5.55108e-07)
(4.01626e-05 -7.50347e-05 -3.50901e-07)
(2.13217e-05 -4.25339e-05 -1.86377e-07)
(7.56884e-06 -1.817e-05 -6.63016e-08)
(2.69729e-07 -2.65325e-06 -3.54098e-09)
(0.00103842 -0.00252665 -9.06389e-06)
(0.000991751 -0.00234046 -8.65674e-06)
(0.000942281 -0.00215812 -8.22504e-06)
(0.000890744 -0.00198067 -7.77521e-06)
(0.000837119 -0.00180914 -7.30713e-06)
(0.000781305 -0.00164423 -6.81997e-06)
(0.000723605 -0.00148637 -6.31638e-06)
(0.000664725 -0.00133582 -5.80252e-06)
(0.000605506 -0.0011928 -5.28571e-06)
(0.000546746 -0.0010575 -4.77291e-06)
(0.00048919 -0.000930024 -4.27062e-06)
(0.000433626 -0.000810585 -3.78569e-06)
(0.000380628 -0.00069955 -3.32305e-06)
(0.000330203 -0.000597241 -2.88283e-06)
(0.000282275 -0.000503513 -2.46443e-06)
(0.000237138 -0.000418046 -2.07043e-06)
(0.000195187 -0.000340604 -1.70425e-06)
(0.000156686 -0.000271032 -1.36817e-06)
(0.000121763 -0.000209187 -1.06331e-06)
(9.0513e-05 -0.000154966 -7.90493e-07)
(6.31096e-05 -0.000108323 -5.5125e-07)
(3.97969e-05 -6.93172e-05 -3.47708e-07)
(2.10867e-05 -3.81704e-05 -1.84323e-07)
(7.47419e-06 -1.53518e-05 -6.54727e-08)
(2.65885e-07 -1.6268e-06 -3.49257e-09)
(0.00112057 -0.00272429 -9.78075e-06)
(0.0010752 -0.00253027 -9.38499e-06)
(0.00102531 -0.00233972 -8.94966e-06)
(0.000972475 -0.0021536 -8.4886e-06)
(0.000917437 -0.00197308 -8.00824e-06)
(0.000860326 -0.0017992 -7.50975e-06)
(0.000801214 -0.00163258 -6.99382e-06)
(0.000740507 -0.00147354 -6.46398e-06)
(0.000678926 -0.00132221 -5.92653e-06)
(0.000617299 -0.00117869 -5.38868e-06)
(0.000556405 -0.0010431 -4.85724e-06)
(0.00049695 -0.00091546 -4.33834e-06)
(0.000439624 -0.00079594 -3.83802e-06)
(0.000384947 -0.000685039 -3.36074e-06)
(0.00033304 -0.000583226 -2.9076e-06)
(0.000283955 -0.000490292 -2.47912e-06)
(0.000237971 -0.000405774 -2.07772e-06)
(0.000195416 -0.000329343 -1.70626e-06)
(0.000156503 -0.000260806 -1.36658e-06)
(0.000121335 -0.000200019 -1.05957e-06)
(8.99837e-05 -0.000146891 -7.85874e-07)
(6.25974e-05 -0.000101399 -5.46778e-07)
(3.93893e-05 -6.363e-05 -3.44147e-07)
(2.0831e-05 -3.38457e-05 -1.82088e-07)
(7.37281e-06 -1.25662e-05 -6.45851e-08)
(2.61814e-07 -6.13674e-07 -3.44129e-09)
(0.00116139 -0.00273172 -1.01371e-05)
(0.00111264 -0.00253284 -9.71177e-06)
(0.00105931 -0.00233795 -9.24644e-06)
(0.00100287 -0.00214812 -8.75391e-06)
(0.000944095 -0.00196455 -8.24095e-06)
(0.000883301 -0.00178827 -7.71035e-06)
(0.000820758 -0.00161984 -7.16449e-06)
(0.000756969 -0.00145949 -6.60775e-06)
(0.000692659 -0.00130727 -6.04647e-06)
(0.000628628 -0.00116325 -5.48762e-06)
(0.000565639 -0.00102746 -4.93786e-06)
(0.000504335 -0.000899828 -4.4028e-06)
(0.000445282 -0.000780506 -3.88736e-06)
(0.000388916 -0.000670012 -3.39536e-06)
(0.000335505 -0.000568862 -2.92912e-06)
(0.000285272 -0.0004768 -2.49063e-06)
(0.000238481 -0.00039328 -2.08219e-06)
(0.000195375 -0.000317909 -1.70592e-06)
(0.000156107 -0.000250461 -1.36313e-06)