/*--------------------------------*- C++ -*----------------------------------*\
| =========                 |                                                 |
| \\      /  F ield         | OpenFOAM: The Open Source CFD Toolbox           |
|  \\    /   O peration     | Version:  v2012                                 |
|   \\  /    A nd           | Website:  www.openfoam.com                      |
|    \\/     M anipulation  |                                                 |
\*---------------------------------------------------------------------------*/
FoamFile
{
    version     2.0;
    format      ascii;
    class       volVectorField;
    location    "0.1";
    object      U;
}
// * * * * * * * * * * * * * * * * * * * * * * * * * * * * * * * * * * * * * //

dimensions      [0 1 -1 0 0 0 0];


internalField   nonuniform List<vector> 
20000
(
(-8.46972e-10 -6.79951e-07 7.55879e-12)
(3.06503e-09 -4.69914e-06 -2.63536e-11)
(2.40486e-08 -1.31246e-05 -2.09172e-10)
(6.76011e-08 -2.6258e-05 -5.88959e-10)
(1.39279e-07 -4.44399e-05 -1.21417e-09)
(2.42312e-07 -6.79932e-05 -2.11307e-09)
(3.82497e-07 -9.72368e-05 -3.33613e-09)
(5.67081e-07 -0.000132489 -4.94662e-09)
(7.99048e-07 -0.000174054 -6.97086e-09)
(1.08418e-06 -0.000222242 -9.45894e-09)
(1.42876e-06 -0.000277347 -1.24656e-08)
(1.84279e-06 -0.00033966 -1.60783e-08)
(2.33235e-06 -0.00040946 -2.03504e-08)
(2.9078e-06 -0.000487021 -2.53718e-08)
(3.57762e-06 -0.000572593 -3.12167e-08)
(4.35e-06 -0.000666419 -3.79565e-08)
(5.23397e-06 -0.000768717 -4.56701e-08)
(6.23781e-06 -0.000879689 -5.44295e-08)
(7.37019e-06 -0.000999518 -6.4311e-08)
(8.64161e-06 -0.00112836 -7.54058e-08)
(1.00606e-05 -0.00126633 -8.77881e-08)
(1.16326e-05 -0.00141353 -1.01506e-07)
(1.33639e-05 -0.00157003 -1.16615e-07)
(1.52607e-05 -0.00173586 -1.33167e-07)
(1.73271e-05 -0.001911 -1.512e-07)
(1.95651e-05 -0.0020954 -1.7073e-07)
(2.19744e-05 -0.00228899 -1.91755e-07)
(2.45516e-05 -0.0024916 -2.14246e-07)
(2.72902e-05 -0.00270305 -2.38146e-07)
(3.01797e-05 -0.0029231 -2.63364e-07)
(3.32052e-05 -0.00315144 -2.89769e-07)
(3.63471e-05 -0.0033877 -3.17189e-07)
(3.95799e-05 -0.00363145 -3.45405e-07)
(4.2872e-05 -0.00388214 -3.74138e-07)
(4.61841e-05 -0.00413916 -4.03047e-07)
(4.94694e-05 -0.00440178 -4.31723e-07)
(5.26733e-05 -0.00466911 -4.5969e-07)
(5.57345e-05 -0.00494016 -4.86413e-07)
(5.85858e-05 -0.00521367 -5.11309e-07)
(6.11521e-05 -0.00548815 -5.33789e-07)
(6.33523e-05 -0.00576182 -5.53007e-07)
(6.51003e-05 -0.00603251 -5.68278e-07)
(6.6309e-05 -0.00629755 -5.78843e-07)
(6.68933e-05 -0.0065537 -5.83958e-07)
(6.67734e-05 -0.00679689 -5.82928e-07)
(6.58791e-05 -0.00702222 -5.75139e-07)
(6.41547e-05 -0.00722358 -5.60104e-07)
(6.15657e-05 -0.00739349 -5.37521e-07)
(5.81051e-05 -0.00752282 -5.07326e-07)
(5.38007e-05 -0.00760043 -4.69765e-07)
(4.87204e-05 -0.00761292 -4.25427e-07)
(4.29778e-05 -0.00754414 -3.75305e-07)
(3.67362e-05 -0.00737497 -3.2082e-07)
(3.0207e-05 -0.00708293 -2.63818e-07)
(2.36454e-05 -0.00664188 -2.06527e-07)
(1.73426e-05 -0.00602191 -1.51489e-07)
(1.16024e-05 -0.00518922 -1.01357e-07)
(6.72056e-06 -0.00410628 -5.87153e-08)
(2.95017e-06 -0.002732 -2.57893e-08)
(4.2406e-07 -0.0010223 -4.04504e-09)
(-2.91993e-10 -6.90214e-07 2.66982e-12)
(4.4627e-10 -4.7603e-06 -3.47608e-12)
(1.15299e-08 -1.32714e-05 -1.0001e-10)
(3.81007e-08 -2.65112e-05 -3.31618e-10)
(8.78049e-08 -4.48099e-05 -7.65053e-10)
(1.79508e-07 -6.84896e-05 -1.56504e-09)
(3.06659e-07 -9.78656e-05 -2.67442e-09)
(4.78873e-07 -0.000133261 -4.17702e-09)
(7.04096e-07 -0.000174976 -6.14219e-09)
(9.86497e-07 -0.000223325 -8.60672e-09)
(1.33545e-06 -0.000278597 -1.16519e-08)
(1.75455e-06 -0.000341086 -1.53092e-08)
(2.2546e-06 -0.000411066 -1.96729e-08)
(2.8406e-06 -0.000488811 -2.47866e-08)
(3.5239e-06 -0.000574571 -3.07496e-08)
(4.31126e-06 -0.000668588 -3.76203e-08)
(5.21145e-06 -0.000771078 -4.54758e-08)
(6.23152e-06 -0.000882243 -5.43774e-08)
(7.38135e-06 -0.00100226 -6.44112e-08)
(8.67257e-06 -0.00113128 -7.56795e-08)
(1.0114e-05 -0.00126943 -8.82592e-08)
(1.17075e-05 -0.0014168 -1.02165e-07)
(1.346e-05 -0.00157346 -1.17458e-07)
(1.53789e-05 -0.00173943 -1.34204e-07)
(1.74689e-05 -0.00191471 -1.52443e-07)
(1.97322e-05 -0.00209924 -1.72195e-07)
(2.21681e-05 -0.00229293 -1.93453e-07)
(2.47731e-05 -0.00249562 -2.16187e-07)
(2.75402e-05 -0.00270713 -2.40335e-07)
(3.04586e-05 -0.00292722 -2.65805e-07)
(3.35132e-05 -0.00315556 -2.92463e-07)
(3.66845e-05 -0.0033918 -3.20139e-07)
(3.99475e-05 -0.00363548 -3.48617e-07)
(4.32706e-05 -0.00388608 -3.77619e-07)
(4.6614e-05 -0.00414296 -4.06799e-07)
(4.99292e-05 -0.0044054 -4.35734e-07)
(5.31601e-05 -0.00467252 -4.63934e-07)
(5.62451e-05 -0.00494331 -4.90861e-07)
(5.91179e-05 -0.00521652 -5.1594e-07)
(6.17039e-05 -0.00549066 -5.38589e-07)
(6.39204e-05 -0.00576396 -5.57945e-07)
(6.56796e-05 -0.00603423 -5.73309e-07)
(6.68932e-05 -0.00629884 -5.83912e-07)
(6.74759e-05 -0.00655452 -5.89009e-07)
(6.73475e-05 -0.00679723 -5.87901e-07)
(6.64378e-05 -0.00702208 -5.79973e-07)
(6.469e-05 -0.00722297 -5.64733e-07)
(6.20694e-05 -0.00739244 -5.41873e-07)
(5.85685e-05 -0.00752136 -5.11328e-07)
(5.42156e-05 -0.00759861 -4.73346e-07)
(4.90792e-05 -0.0076108 -4.28523e-07)
(4.32744e-05 -0.00754181 -3.77864e-07)
(3.69661e-05 -0.00737253 -3.22805e-07)
(3.03679e-05 -0.00708049 -2.65211e-07)
(2.37379e-05 -0.00663954 -2.07335e-07)
(1.7371e-05 -0.00601978 -1.51749e-07)
(1.15748e-05 -0.0051874 -1.01139e-07)
(6.65025e-06 -0.00410485 -5.81328e-08)
(2.85519e-06 -0.00273101 -2.50016e-08)
(3.46938e-07 -0.00102182 -3.53532e-09)
(-5.76067e-10 -6.85642e-07 5.13942e-12)
(2.97083e-10 -4.73571e-06 -2.38631e-12)
(8.80878e-09 -1.3221e-05 -7.64668e-11)
(3.08372e-08 -2.64532e-05 -2.68477e-10)
(7.25482e-08 -4.47584e-05 -6.32158e-10)
(1.48822e-07 -6.84651e-05 -1.29748e-09)
(2.56206e-07 -9.78872e-05 -2.23428e-09)
(4.09387e-07 -0.00013334 -3.5707e-09)
(6.15169e-07 -0.000175125 -5.36611e-09)
(8.77092e-07 -0.000223551 -7.65168e-09)
(1.20684e-06 -0.000278914 -1.05291e-08)
(1.60989e-06 -0.0003415 -1.40462e-08)
(2.0972e-06 -0.000411589 -1.82985e-08)
(2.67349e-06 -0.000489451 -2.33275e-08)
(3.35124e-06 -0.00057534 -2.9242e-08)
(4.13831e-06 -0.000669494 -3.61099e-08)
(5.04256e-06 -0.000772131 -4.40007e-08)
(6.07252e-06 -0.000883451 -5.29886e-08)
(7.23989e-06 -0.00100363 -6.31754e-08)
(8.55129e-06 -0.00113282 -7.46197e-08)
(1.00136e-05 -0.00127114 -8.73814e-08)
(1.16326e-05 -0.0014187 -1.0151e-07)
(1.34163e-05 -0.00157555 -1.17076e-07)
(1.53715e-05 -0.00174171 -1.34139e-07)
(1.75028e-05 -0.00191718 -1.52739e-07)
(1.98125e-05 -0.00210189 -1.72895e-07)
(2.22995e-05 -0.00229576 -1.946e-07)
(2.49601e-05 -0.00249862 -2.17819e-07)
(2.77865e-05 -0.00271029 -2.42486e-07)
(3.07674e-05 -0.00293053 -2.68502e-07)
(3.38874e-05 -0.003159 -2.95732e-07)
(3.71268e-05 -0.00339534 -3.24003e-07)
(4.04609e-05 -0.0036391 -3.53102e-07)
(4.38578e-05 -0.00388975 -3.82749e-07)
(4.72764e-05 -0.00414666 -4.12586e-07)
(5.06663e-05 -0.00440907 -4.42174e-07)
(5.39689e-05 -0.00467614 -4.71e-07)
(5.71214e-05 -0.00494682 -4.98517e-07)
(6.00581e-05 -0.00521988 -5.24154e-07)
(6.2704e-05 -0.00549383 -5.47326e-07)
(6.49739e-05 -0.00576688 -5.67149e-07)
(6.6777e-05 -0.00603686 -5.82896e-07)
(6.80228e-05 -0.00630114 -5.93779e-07)
(6.86246e-05 -0.00655645 -5.99042e-07)
(6.85013e-05 -0.00679875 -5.97977e-07)
(6.75814e-05 -0.00702317 -5.89959e-07)
(6.58069e-05 -0.00722362 -5.74482e-07)
(6.31412e-05 -0.00739264 -5.51227e-07)
(5.95764e-05 -0.00752111 -5.20122e-07)
(5.5141e-05 -0.00759796 -4.81417e-07)
(4.99045e-05 -0.00760979 -4.35719e-07)
(4.3984e-05 -0.0075405 -3.84048e-07)
(3.75475e-05 -0.00737099 -3.2787e-07)
(3.08132e-05 -0.00707881 -2.69087e-07)
(2.40445e-05 -0.00663783 -2.10001e-07)
(1.75441e-05 -0.00601814 -1.53251e-07)
(1.16276e-05 -0.00518594 -1.01593e-07)
(6.60849e-06 -0.00410365 -5.77632e-08)
(2.75525e-06 -0.00273013 -2.41272e-08)
(2.85066e-07 -0.00102138 -2.9944e-09)
(-7.04177e-10 -6.95909e-07 6.22082e-12)
(2.71972e-09 -4.7834e-06 -2.34528e-11)
(1.1382e-08 -1.33403e-05 -9.89183e-11)
(3.17382e-08 -2.66474e-05 -2.76306e-10)
(7.8577e-08 -4.50392e-05 -6.84907e-10)
(1.53157e-07 -6.88364e-05 -1.33548e-09)
(2.60126e-07 -9.83523e-05 -2.26872e-09)
(4.11771e-07 -0.000133907 -3.59179e-09)
(6.14647e-07 -0.000175802 -5.36199e-09)
(8.68969e-07 -0.000224346 -7.58095e-09)
(1.19378e-06 -0.000279832 -1.0415e-08)
(1.59225e-06 -0.000342547 -1.38922e-08)
(2.07483e-06 -0.000412769 -1.81033e-08)
(2.64583e-06 -0.000490767 -2.30864e-08)
(3.32101e-06 -0.000576796 -2.89786e-08)
(4.10853e-06 -0.000671091 -3.58502e-08)
(5.0162e-06 -0.000773872 -4.37705e-08)
(6.0537e-06 -0.000885336 -5.28244e-08)
(7.23346e-06 -0.00100566 -6.31197e-08)
(8.56138e-06 -0.00113499 -7.47081e-08)
(1.00442e-05 -0.00127346 -8.76481e-08)
(1.16885e-05 -0.00142116 -1.01997e-07)
(1.35033e-05 -0.00157814 -1.17834e-07)
(1.54958e-05 -0.00174444 -1.35222e-07)
(1.76713e-05 -0.00192004 -1.54207e-07)
(2.00323e-05 -0.00210487 -1.74812e-07)
(2.2578e-05 -0.00229885 -1.97028e-07)
(2.53042e-05 -0.00250182 -2.2082e-07)
(2.82027e-05 -0.00271358 -2.46115e-07)
(3.12616e-05 -0.00293389 -2.72811e-07)
(3.4465e-05 -0.00316242 -3.00769e-07)
(3.77931e-05 -0.0033988 -3.29814e-07)
(4.12212e-05 -0.00364258 -3.59733e-07)
(4.47169e-05 -0.00389322 -3.90243e-07)
(4.82377e-05 -0.00415009 -4.20972e-07)
(5.17305e-05 -0.00441243 -4.51458e-07)
(5.51338e-05 -0.00467939 -4.81163e-07)
(5.83833e-05 -0.00494993 -5.09527e-07)
(6.14129e-05 -0.00522282 -5.35976e-07)
(6.41465e-05 -0.00549655 -5.59916e-07)
(6.64958e-05 -0.00576934 -5.80433e-07)
(6.8366e-05 -0.00603903 -5.96766e-07)
(6.96632e-05 -0.00630298 -6.08099e-07)
(7.02986e-05 -0.00655793 -6.13657e-07)
(7.01893e-05 -0.00679985 -6.12714e-07)
(6.92614e-05 -0.00702386 -6.04628e-07)
(6.74548e-05 -0.00722389 -5.88872e-07)
(6.47308e-05 -0.00739249 -5.65108e-07)
(6.10803e-05 -0.00752058 -5.33255e-07)
(5.65316e-05 -0.00759706 -4.93563e-07)
(5.11557e-05 -0.00760856 -4.46647e-07)
(4.50722e-05 -0.00753901 -3.93554e-07)
(3.84534e-05 -0.00736932 -3.35784e-07)
(3.15235e-05 -0.00707704 -2.75294e-07)
(2.45542e-05 -0.00663606 -2.14455e-07)
(1.78592e-05 -0.00601647 -1.56006e-07)
(1.17662e-05 -0.00518446 -1.02806e-07)
(6.60771e-06 -0.00410246 -5.77581e-08)
(2.66851e-06 -0.00272929 -2.33695e-08)
(2.35348e-07 -0.00102099 -2.52509e-09)
(9.901e-09 -6.92094e-07 -8.64784e-11)
(2.03536e-08 -4.78463e-06 -1.77472e-10)
(2.32316e-09 -1.33017e-05 -1.98631e-11)
(2.37379e-08 -2.66256e-05 -2.0677e-10)
(5.21253e-08 -4.50219e-05 -4.54186e-10)
(1.21898e-07 -6.88736e-05 -1.06289e-09)
(2.15357e-07 -9.84338e-05 -1.87822e-09)
(3.51334e-07 -0.000134069 -3.06458e-09)
(5.39557e-07 -0.000176047 -4.7069e-09)
(7.79855e-07 -0.000224696 -6.80339e-09)
(1.09389e-06 -0.000280292 -9.5434e-09)
(1.48204e-06 -0.000343133 -1.29303e-08)
(1.95867e-06 -0.000413491 -1.70895e-08)
(2.52604e-06 -0.000491637 -2.20408e-08)
(3.20242e-06 -0.00057782 -2.79432e-08)
(3.99647e-06 -0.000672279 -3.48719e-08)
(4.91604e-06 -0.00077523 -4.28963e-08)
(5.97216e-06 -0.00088687 -5.21129e-08)
(7.17666e-06 -0.00100737 -6.26237e-08)
(8.53481e-06 -0.00113689 -7.44756e-08)
(1.00535e-05 -0.00127555 -8.7729e-08)
(1.17403e-05 -0.00142343 -1.02449e-07)
(1.36043e-05 -0.0015806 -1.18716e-07)
(1.56532e-05 -0.00174707 -1.36596e-07)
(1.78928e-05 -0.00192283 -1.56141e-07)
(2.03264e-05 -0.00210783 -1.77379e-07)
(2.29529e-05 -0.00230196 -2.003e-07)
(2.5768e-05 -0.00250507 -2.24867e-07)
(2.87629e-05 -0.00271695 -2.51004e-07)
(3.19252e-05 -0.00293736 -2.78603e-07)
(3.52387e-05 -0.00316597 -3.07521e-07)
(3.86832e-05 -0.00340241 -3.37581e-07)
(4.22338e-05 -0.00364621 -3.6857e-07)
(4.58577e-05 -0.00389685 -4.00198e-07)
(4.95105e-05 -0.00415367 -4.32079e-07)
(5.31361e-05 -0.00441595 -4.63724e-07)
(5.66698e-05 -0.0046828 -4.94567e-07)
(6.00451e-05 -0.00495318 -5.24029e-07)
(6.31953e-05 -0.00522588 -5.51531e-07)
(6.60427e-05 -0.00549937 -5.76466e-07)
(6.84949e-05 -0.00577189 -5.97881e-07)
(7.04523e-05 -0.00604126 -6.14976e-07)
(7.18172e-05 -0.00630485 -6.269e-07)
(7.24975e-05 -0.00655942 -6.3285e-07)
(7.24077e-05 -0.00680093 -6.32079e-07)
(7.14712e-05 -0.00702451 -6.23918e-07)
(6.96248e-05 -0.00722411 -6.07815e-07)
(6.68272e-05 -0.00739228 -5.8341e-07)
(6.30677e-05 -0.00751995 -5.50607e-07)
(5.83746e-05 -0.00759605 -5.09654e-07)
(5.282e-05 -0.00760723 -4.6118e-07)
(4.65272e-05 -0.00753741 -4.0626e-07)
(3.96736e-05 -0.00736754 -3.46441e-07)
(3.24915e-05 -0.00707517 -2.83749e-07)
(2.52627e-05 -0.00663419 -2.20646e-07)
(1.83154e-05 -0.00601472 -1.59994e-07)
(1.19934e-05 -0.00518293 -1.04794e-07)
(6.65387e-06 -0.00410123 -5.81644e-08)
(2.60231e-06 -0.00272844 -2.27922e-08)
(1.92763e-07 -0.00102062 -2.12489e-09)
(-4.14545e-09 -6.95094e-07 3.61151e-11)
(4.36045e-08 -4.82e-06 -3.80967e-10)
(6.2622e-08 -1.33799e-05 -5.45752e-10)
(2.1627e-08 -2.6762e-05 -1.88118e-10)
(7.4849e-08 -4.52192e-05 -6.53105e-10)
(1.3551e-07 -6.91389e-05 -1.18176e-09)
(2.50783e-07 -9.87752e-05 -2.18749e-09)
(3.72309e-07 -0.000134497 -3.24782e-09)
(5.68297e-07 -0.000176569 -4.95791e-09)
(8.01769e-07 -0.000225326 -6.9951e-09)
(1.11585e-06 -0.000281035 -9.73575e-09)
(1.4949e-06 -0.000344 -1.30429e-08)
(1.9676e-06 -0.000414488 -1.71676e-08)
(2.53054e-06 -0.000492772 -2.20802e-08)
(3.20581e-06 -0.000579098 -2.79728e-08)
(4.00172e-06 -0.000673706 -3.49178e-08)
(4.92792e-06 -0.000776812 -4.3e-08)
(5.99715e-06 -0.000888611 -5.23307e-08)
(7.22157e-06 -0.00100928 -6.30154e-08)
(8.60592e-06 -0.00113897 -7.50959e-08)
(1.01585e-05 -0.00127779 -8.86444e-08)
(1.18884e-05 -0.00142584 -1.03741e-07)
(1.38047e-05 -0.00158318 -1.20464e-07)
(1.59153e-05 -0.00174982 -1.38882e-07)
(1.82267e-05 -0.00192575 -1.59054e-07)
(2.07429e-05 -0.0021109 -1.81013e-07)
(2.34629e-05 -0.00230518 -2.0475e-07)
(2.6382e-05 -0.00250842 -2.30225e-07)
(2.94909e-05 -0.00272043 -2.57356e-07)
(3.27765e-05 -0.00294094 -2.86031e-07)
(3.62219e-05 -0.00316963 -3.161e-07)
(3.98065e-05 -0.00340613 -3.47384e-07)
(4.35053e-05 -0.00364997 -3.79666e-07)
(4.72842e-05 -0.0039006 -4.12647e-07)
(5.10968e-05 -0.0041574 -4.45923e-07)
(5.48837e-05 -0.0044196 -4.78975e-07)
(5.85762e-05 -0.00468634 -5.11204e-07)
(6.21053e-05 -0.00495657 -5.42009e-07)
(6.54032e-05 -0.00522907 -5.708e-07)
(6.83896e-05 -0.00550232 -5.96952e-07)
(7.09676e-05 -0.00577456 -6.19465e-07)
(7.30319e-05 -0.00604361 -6.37493e-07)
(7.448e-05 -0.00630683 -6.50144e-07)
(7.52161e-05 -0.006561 -6.56581e-07)
(7.5151e-05 -0.00680208 -6.56026e-07)
(7.4205e-05 -0.00702522 -6.47782e-07)
(7.23109e-05 -0.00722436 -6.31264e-07)
(6.94245e-05 -0.00739209 -6.06084e-07)
(6.5533e-05 -0.00751932 -5.72129e-07)
(6.06646e-05 -0.00759502 -5.29647e-07)
(5.48931e-05 -0.00760585 -4.7928e-07)
(4.83456e-05 -0.00753575 -4.22138e-07)
(4.12062e-05 -0.00736568 -3.59824e-07)
(3.37166e-05 -0.00707321 -2.94449e-07)
(2.61713e-05 -0.00663224 -2.28583e-07)
(1.89161e-05 -0.00601289 -1.65242e-07)
(1.23143e-05 -0.00518132 -1.076e-07)
(6.75289e-06 -0.00409995 -5.9032e-08)
(2.5615e-06 -0.00272757 -2.24368e-08)
(1.5644e-07 -0.00102026 -1.78765e-09)
(-3.91384e-09 -6.95185e-07 3.40935e-11)
(4.37998e-08 -4.79755e-06 -3.82816e-10)
(5.8422e-08 -1.34275e-05 -5.09135e-10)
(5.79501e-09 -2.68777e-05 -4.98482e-11)
(4.85316e-08 -4.52446e-05 -4.23529e-10)
(1.02493e-07 -6.92241e-05 -8.93834e-10)
(2.08191e-07 -9.891e-05 -1.81597e-09)
(3.21877e-07 -0.00013473 -2.80791e-09)
(5.10141e-07 -0.000176878 -4.45043e-09)
(7.39151e-07 -0.000225755 -6.44873e-09)
(1.05549e-06 -0.000281577 -9.20909e-09)
(1.43456e-06 -0.00034468 -1.25165e-08)
(1.91444e-06 -0.000415308 -1.67039e-08)
(2.48476e-06 -0.000493746 -2.16808e-08)
(3.17281e-06 -0.000580233 -2.76849e-08)
(3.98322e-06 -0.000675013 -3.47564e-08)
(4.9297e-06 -0.000778296 -4.30156e-08)
(6.02539e-06 -0.000890279 -5.25771e-08)
(7.28299e-06 -0.00101114 -6.35512e-08)
(8.70776e-06 -0.00114101 -7.59844e-08)
(1.03088e-05 -0.00128003 -8.99565e-08)
(1.2096e-05 -0.00142828 -1.05552e-07)
(1.40786e-05 -0.0015858 -1.22854e-07)
(1.62653e-05 -0.00175263 -1.41937e-07)
(1.86641e-05 -0.00192874 -1.62871e-07)
(2.12793e-05 -0.00211407 -1.85694e-07)
(2.411e-05 -0.0023085 -2.10396e-07)
(2.71515e-05 -0.00251189 -2.3694e-07)
(3.0394e-05 -0.00272403 -2.65237e-07)
(3.38239e-05 -0.00294466 -2.9517e-07)
(3.74235e-05 -0.00317344 -3.26586e-07)
(4.1172e-05 -0.00341 -3.593e-07)
(4.50437e-05 -0.00365387 -3.93091e-07)
(4.90036e-05 -0.00390451 -4.27651e-07)
(5.30027e-05 -0.00416127 -4.62555e-07)
(5.69779e-05 -0.0044234 -4.9725e-07)
(6.08563e-05 -0.00469003 -5.31102e-07)
(6.45658e-05 -0.00496011 -5.63482e-07)
(6.80368e-05 -0.0052324 -5.93784e-07)
(7.11863e-05 -0.00550541 -6.21362e-07)
(7.39117e-05 -0.00577735 -6.45163e-07)
(7.61014e-05 -0.00604606 -6.64286e-07)
(7.76474e-05 -0.0063089 -6.77792e-07)
(7.84492e-05 -0.00656266 -6.84803e-07)
(7.84136e-05 -0.00680329 -6.84507e-07)
(7.74566e-05 -0.00702597 -6.76167e-07)
(7.55069e-05 -0.00722464 -6.59164e-07)
(7.25165e-05 -0.00739189 -6.33077e-07)
(6.84705e-05 -0.00751867 -5.97775e-07)
(6.33967e-05 -0.00759396 -5.535e-07)
(5.73708e-05 -0.00760442 -5.00914e-07)
(5.05247e-05 -0.00753402 -4.41165e-07)
(4.30498e-05 -0.00736374 -3.75923e-07)
(3.51991e-05 -0.00707117 -3.07396e-07)
(2.7282e-05 -0.0066302 -2.38285e-07)
(1.96646e-05 -0.00601097 -1.71783e-07)
(1.27336e-05 -0.00517964 -1.11265e-07)
(6.90963e-06 -0.00409861 -6.04039e-08)
(2.54938e-06 -0.00272668 -2.23322e-08)
(1.26427e-07 -0.00101991 -1.51203e-09)
(-3.23441e-09 -6.98853e-07 2.81537e-11)
(1.32093e-08 -4.82136e-06 -1.15612e-10)
(-2.6559e-08 -1.3483e-05 2.30701e-10)
(2.23283e-07 -2.69749e-05 -1.95018e-09)
(3.29114e-07 -4.53927e-05 -2.86868e-09)
(1.1414e-07 -6.94304e-05 -9.95512e-10)
(2.32869e-07 -9.91909e-05 -2.03376e-09)
(3.41742e-07 -0.000135096 -2.98137e-09)
(5.5307e-07 -0.000177338 -4.82472e-09)
(7.63541e-07 -0.000226319 -6.66167e-09)
(1.09686e-06 -0.000282255 -9.57046e-09)
(1.46859e-06 -0.000345487 -1.28138e-08)
(1.95778e-06 -0.000416249 -1.70823e-08)
(2.52942e-06 -0.000494836 -2.20708e-08)
(3.22763e-06 -0.000581478 -2.81636e-08)
(4.0481e-06 -0.000676422 -3.53228e-08)
(5.01228e-06 -0.000779877 -4.37363e-08)
(6.13243e-06 -0.00089204 -5.3511e-08)
(7.42341e-06 -0.00101308 -6.47762e-08)
(8.89052e-06 -0.00114315 -7.75789e-08)
(1.05439e-05 -0.00128237 -9.20073e-08)
(1.23944e-05 -0.00143081 -1.08156e-07)
(1.44515e-05 -0.00158853 -1.26108e-07)
(1.67243e-05 -0.00175555 -1.45943e-07)
(1.92218e-05 -0.00193185 -1.67738e-07)
(2.19492e-05 -0.00211735 -1.91539e-07)
(2.49057e-05 -0.00231196 -2.1734e-07)
(2.80866e-05 -0.00251551 -2.451e-07)
(3.14814e-05 -0.00272778 -2.74726e-07)
(3.50758e-05 -0.00294853 -3.06095e-07)
(3.88515e-05 -0.00317741 -3.39048e-07)
(4.2787e-05 -0.00341404 -3.73393e-07)
(4.6856e-05 -0.00365795 -4.08906e-07)
(5.10221e-05 -0.0039086 -4.45267e-07)
(5.52338e-05 -0.00416533 -4.82025e-07)
(5.94236e-05 -0.00442739 -5.18593e-07)
(6.35141e-05 -0.0046939 -5.54297e-07)
(6.74297e-05 -0.00496381 -5.88475e-07)
(7.10985e-05 -0.0052359 -6.20504e-07)
(7.44339e-05 -0.00550865 -6.49709e-07)
(7.73273e-05 -0.00578028 -6.74977e-07)
(7.96601e-05 -0.00604864 -6.95349e-07)
(8.13178e-05 -0.00631109 -7.0983e-07)
(8.21945e-05 -0.00656441 -7.17497e-07)
(8.21924e-05 -0.00680458 -7.17493e-07)
(8.12226e-05 -0.00702676 -7.09042e-07)
(7.92089e-05 -0.00722494 -6.91482e-07)
(7.60993e-05 -0.0073917 -6.64355e-07)
(7.18763e-05 -0.007518 -6.27508e-07)
(6.65673e-05 -0.00759285 -5.81182e-07)
(6.02504e-05 -0.00760292 -5.26055e-07)
(5.30623e-05 -0.00753221 -4.63322e-07)
(4.52033e-05 -0.00736171 -3.94729e-07)
(3.69392e-05 -0.00706901 -3.22593e-07)
(2.85962e-05 -0.00662805 -2.49764e-07)
(2.05637e-05 -0.00600895 -1.79638e-07)
(1.32547e-05 -0.00517787 -1.1582e-07)
(7.12737e-06 -0.00409721 -6.23088e-08)
(2.56761e-06 -0.00272575 -2.24932e-08)
(1.02361e-07 -0.00101956 -1.29456e-09)
(-3.0646e-09 -6.98831e-07 2.67065e-11)
(1.72455e-08 -4.82136e-06 -1.50992e-10)
(-2.55045e-08 -1.34626e-05 2.21518e-10)
(2.06552e-07 -2.68939e-05 -1.80399e-09)
(3.01794e-07 -4.56596e-05 -2.63002e-09)
(7.62415e-08 -6.9837e-05 -6.6396e-10)
(1.84402e-07 -9.9391e-05 -1.61031e-09)
(2.94553e-07 -0.000135384 -2.56969e-09)
(5.11421e-07 -0.000177713 -4.46154e-09)
(7.3019e-07 -0.000226812 -6.3707e-09)
(1.07222e-06 -0.000282858 -9.35531e-09)
(1.45324e-06 -0.000346231 -1.26799e-08)
(1.96074e-06 -0.000417135 -1.71083e-08)
(2.54856e-06 -0.000495885 -2.2238e-08)
(3.27232e-06 -0.000582695 -2.85536e-08)
(4.11728e-06 -0.00067782 -3.59266e-08)
(5.11355e-06 -0.000781462 -4.46202e-08)
(6.27004e-06 -0.000893821 -5.47121e-08)
(7.60598e-06 -0.00101507 -6.63693e-08)
(9.12852e-06 -0.00114535 -7.96556e-08)
(1.08479e-05 -0.00128477 -9.466e-08)
(1.27743e-05 -0.00143342 -1.11471e-07)
(1.49183e-05 -0.00159135 -1.30181e-07)
(1.72905e-05 -0.00175858 -1.50883e-07)
(1.9901e-05 -0.00193507 -1.73665e-07)
(2.2756e-05 -0.00212077 -1.9858e-07)
(2.5855e-05 -0.00231556 -2.25624e-07)
(2.91931e-05 -0.00251928 -2.54755e-07)
(3.27594e-05 -0.00273171 -2.85879e-07)
(3.65389e-05 -0.00295258 -3.18863e-07)
(4.05125e-05 -0.00318157 -3.53542e-07)
(4.4658e-05 -0.00341828 -3.89721e-07)
(4.89484e-05 -0.00366224 -4.27166e-07)
(5.33458e-05 -0.00391289 -4.65545e-07)
(5.77956e-05 -0.00416959 -5.04381e-07)
(6.22259e-05 -0.00443158 -5.43049e-07)
(6.65542e-05 -0.00469797 -5.80827e-07)
(7.0701e-05 -0.00496772 -6.17024e-07)
(7.45915e-05 -0.00523959 -6.50988e-07)
(7.8135e-05 -0.00551206 -6.82015e-07)
(8.12165e-05 -0.00578338 -7.08924e-07)
(8.37091e-05 -0.00605136 -7.30692e-07)
(8.54915e-05 -0.0063134 -7.46263e-07)
(8.64519e-05 -0.00656626 -7.5466e-07)
(8.64867e-05 -0.00680594 -7.54979e-07)
(8.55016e-05 -0.00702761 -7.46396e-07)
(8.34153e-05 -0.00722526 -7.28202e-07)
(8.0171e-05 -0.0073915 -6.99901e-07)
(7.57485e-05 -0.00751731 -6.61313e-07)
(7.01748e-05 -0.00759168 -6.12677e-07)
(6.35302e-05 -0.00760135 -5.54692e-07)
(5.59575e-05 -0.00753031 -4.88603e-07)
(4.76666e-05 -0.00735956 -4.16239e-07)
(3.89374e-05 -0.00706674 -3.40045e-07)
(3.01153e-05 -0.00662578 -2.63033e-07)
(2.16154e-05 -0.00600681 -1.88826e-07)
(1.38801e-05 -0.00517601 -1.21286e-07)
(7.40808e-06 -0.00409574 -6.47642e-08)
(2.6167e-06 -0.00272479 -2.29244e-08)
(8.36427e-08 -0.00101921 -1.13016e-09)
(-1.52097e-09 -7.02031e-07 1.32057e-11)
(9.27476e-09 -4.84085e-06 -8.11571e-11)
(-1.60914e-08 -1.35112e-05 1.39954e-10)
(4.92456e-08 -2.69798e-05 -4.31195e-10)
(3.32923e-08 -4.57911e-05 -2.94304e-10)
(5.77781e-07 -7.00281e-05 -5.04546e-09)
(7.5764e-07 -9.965e-05 -6.60283e-09)
(3.37099e-07 -0.000135729 -2.94104e-09)
(5.63371e-07 -0.000178143 -4.91979e-09)
(7.78168e-07 -0.000227358 -6.79004e-09)
(1.14294e-06 -0.000283531 -9.97231e-09)
(1.51453e-06 -0.000347039 -1.32149e-08)
(2.0417e-06 -0.00041809 -1.78151e-08)
(2.63557e-06 -0.000497 -2.29973e-08)
(3.38315e-06 -0.00058398 -2.95208e-08)
(4.24908e-06 -0.000679286 -3.70768e-08)
(5.27757e-06 -0.00078312 -4.60516e-08)
(6.47145e-06 -0.000895679 -5.64697e-08)
(7.85621e-06 -0.00101713 -6.85529e-08)
(9.44016e-06 -0.00114763 -8.2375e-08)
(1.12328e-05 -0.00128726 -9.80185e-08)
(1.32441e-05 -0.00143614 -1.15571e-07)
(1.54859e-05 -0.00159429 -1.35135e-07)
(1.79699e-05 -0.00176174 -1.56812e-07)
(2.07073e-05 -0.00193845 -1.80701e-07)
(2.3705e-05 -0.00212435 -2.06861e-07)
(2.69629e-05 -0.00231934 -2.35292e-07)
(3.04763e-05 -0.00252324 -2.65953e-07)
(3.42335e-05 -0.00273583 -2.98742e-07)
(3.82187e-05 -0.00295684 -3.33522e-07)
(4.24123e-05 -0.00318594 -3.7012e-07)
(4.67909e-05 -0.00342274 -4.08334e-07)
(5.13269e-05 -0.00366675 -4.47922e-07)
(5.59805e-05 -0.00391742 -4.88537e-07)
(6.06939e-05 -0.00417409 -5.29674e-07)
(6.53904e-05 -0.004436 -5.70664e-07)
(6.99819e-05 -0.00470227 -6.10741e-07)
(7.43846e-05 -0.00497184 -6.49171e-07)
(7.85204e-05 -0.00524349 -6.85277e-07)
(8.22939e-05 -0.00551568 -7.18316e-07)
(8.55826e-05 -0.00578665 -7.47035e-07)
(8.82515e-05 -0.00605425 -7.70342e-07)
(9.01712e-05 -0.00631585 -7.87111e-07)
(9.12232e-05 -0.00656823 -7.96309e-07)
(9.12979e-05 -0.0068074 -7.96977e-07)
(9.02948e-05 -0.00702853 -7.88239e-07)
(8.81267e-05 -0.00722562 -7.69332e-07)
(8.4732e-05 -0.00739131 -7.39719e-07)
(8.00873e-05 -0.00751658 -6.99193e-07)
(7.42192e-05 -0.00759046 -6.47987e-07)
(6.72107e-05 -0.00759969 -5.86826e-07)
(5.92109e-05 -0.00752829 -5.1701e-07)
(5.04404e-05 -0.00735729 -4.40461e-07)
(4.1195e-05 -0.00706434 -3.59761e-07)
(3.18409e-05 -0.00662337 -2.78105e-07)
(2.28216e-05 -0.00600454 -1.99364e-07)
(1.46116e-05 -0.00517403 -1.27679e-07)
(7.75295e-06 -0.00409419 -6.77802e-08)
(2.6965e-06 -0.00272379 -2.36244e-08)
(6.96514e-08 -0.00101885 -1.01318e-09)
(-4.26706e-10 -7.02499e-07 3.65616e-12)
(1.67134e-08 -4.84774e-06 -1.46251e-10)
(-9.83422e-09 -1.35251e-05 8.52596e-11)
(4.21843e-08 -2.70196e-05 -3.69581e-10)
(8.58281e-09 -4.57173e-05 -7.80793e-11)
(5.48196e-07 -6.98825e-05 -4.78653e-09)
(7.16923e-07 -0.000100251 -6.24699e-09)
(3.13156e-07 -0.000136534 -2.73026e-09)
(5.4666e-07 -0.000178554 -4.77195e-09)
(7.45818e-07 -0.000227877 -6.50742e-09)
(1.13802e-06 -0.000284174 -9.92977e-09)
(1.5345e-06 -0.000347831 -1.33891e-08)
(2.08852e-06 -0.000419041 -1.82234e-08)
(2.70932e-06 -0.000498122 -2.36407e-08)
(3.49293e-06 -0.000585285 -3.04787e-08)
(4.39411e-06 -0.000680787 -3.83424e-08)
(5.46769e-06 -0.000784827 -4.77108e-08)
(6.71195e-06 -0.000897601 -5.85686e-08)
(8.15775e-06 -0.00101928 -7.11843e-08)
(9.81491e-06 -0.00115 -8.56451e-08)
(1.16924e-05 -0.00128987 -1.02029e-07)
(1.38004e-05 -0.00143898 -1.20425e-07)
(1.61528e-05 -0.00159737 -1.40954e-07)
(1.87627e-05 -0.00176505 -1.6373e-07)
(2.1642e-05 -0.00194199 -1.88857e-07)
(2.47987e-05 -0.00212811 -2.16405e-07)
(2.82331e-05 -0.00232331 -2.46376e-07)
(3.19403e-05 -0.0025274 -2.78729e-07)
(3.59084e-05 -0.00274016 -3.13358e-07)
(4.01206e-05 -0.00296133 -3.50119e-07)
(4.45564e-05 -0.00319056 -3.88831e-07)
(4.91917e-05 -0.00342744 -4.29285e-07)
(5.39976e-05 -0.00367151 -4.71229e-07)
(5.89326e-05 -0.0039222 -5.14299e-07)
(6.39351e-05 -0.00417884 -5.57959e-07)
(6.89233e-05 -0.00444068 -6.01496e-07)
(7.38035e-05 -0.00470682 -6.44092e-07)
(7.84868e-05 -0.00497621 -6.84972e-07)
(8.28912e-05 -0.00524762 -7.23422e-07)
(8.69161e-05 -0.00551951 -7.58661e-07)
(9.04312e-05 -0.00579013 -7.89357e-07)
(9.32922e-05 -0.00605732 -8.14341e-07)
(9.53613e-05 -0.00631846 -8.32416e-07)
(9.65126e-05 -0.00657033 -8.42481e-07)
(9.66297e-05 -0.00680895 -8.4352e-07)
(9.56054e-05 -0.00702951 -8.34597e-07)
(9.3346e-05 -0.00722602 -8.14895e-07)
(8.97847e-05 -0.00739112 -7.83829e-07)
(8.48947e-05 -0.00751582 -7.41163e-07)
(7.87023e-05 -0.00758918 -6.87128e-07)
(7.12933e-05 -0.00759794 -6.22472e-07)
(6.2824e-05 -0.00752616 -5.48558e-07)
(5.35265e-05 -0.00735489 -4.67409e-07)
(4.37137e-05 -0.00706178 -3.81757e-07)
(3.37749e-05 -0.00662081 -2.94997e-07)
(2.4184e-05 -0.00600213 -2.11266e-07)
(1.54506e-05 -0.00517192 -1.35011e-07)
(8.1626e-06 -0.00409254 -7.13624e-08)
(2.80646e-06 -0.00272273 -2.45886e-08)
(5.98034e-08 -0.00101849 -9.38293e-10)
(-4.9699e-10 -7.04991e-07 4.22683e-12)
(1.27848e-08 -4.86622e-06 -1.11876e-10)
(6.66434e-09 -1.35748e-05 -5.87051e-11)
(4.52896e-08 -2.71102e-05 -3.96008e-10)
(1.73313e-08 -4.58592e-05 -1.52506e-10)
(1.40473e-07 -7.0088e-05 -1.22954e-09)
(1.86683e-07 -0.000100528 -1.63628e-09)
(1.14489e-06 -0.000136896 -9.99642e-09)
(1.48479e-06 -0.000179017 -1.29431e-08)
(8.29047e-07 -0.000228455 -7.23158e-09)
(1.21627e-06 -0.000284884 -1.06168e-08)
(1.60682e-06 -0.000348685 -1.40206e-08)
(2.19372e-06 -0.000420055 -1.91409e-08)
(2.83246e-06 -0.000499309 -2.47153e-08)
(3.65139e-06 -0.000586659 -3.18619e-08)
(4.58634e-06 -0.000682361 -4.002e-08)
(5.70723e-06 -0.000786614 -4.98011e-08)
(7.00699e-06 -0.000899611 -6.11432e-08)
(8.5204e-06 -0.00102152 -7.4349e-08)
(1.02582e-05 -0.00115248 -8.95135e-08)
(1.22297e-05 -0.0012926 -1.06717e-07)
(1.44459e-05 -0.00144196 -1.26057e-07)
(1.69219e-05 -0.0016006 -1.47665e-07)
(1.96716e-05 -0.00176852 -1.71661e-07)
(2.27081e-05 -0.00194571 -1.9816e-07)
(2.60402e-05 -0.00213207 -2.27239e-07)
(2.96687e-05 -0.00232749 -2.58904e-07)
(3.35891e-05 -0.00253178 -2.93116e-07)
(3.77885e-05 -0.00274474 -3.29764e-07)
(4.22494e-05 -0.00296607 -3.68696e-07)
(4.69504e-05 -0.00319543 -4.09723e-07)
(5.18662e-05 -0.00343242 -4.52624e-07)
(5.69669e-05 -0.00367656 -4.97141e-07)
(6.22087e-05 -0.00392726 -5.42889e-07)
(6.75261e-05 -0.00418388 -5.89298e-07)
(7.2832e-05 -0.00444564 -6.35607e-07)
(7.80264e-05 -0.00471165 -6.80945e-07)
(8.3015e-05 -0.00498085 -7.24489e-07)
(8.77113e-05 -0.005252 -7.65489e-07)
(9.20091e-05 -0.00552358 -8.03115e-07)
(9.57693e-05 -0.00579383 -8.35952e-07)
(9.8838e-05 -0.00606059 -8.6275e-07)
(0.000101068 -0.00632124 -8.82233e-07)
(0.000102326 -0.00657257 -8.93229e-07)
(0.000102488 -0.00681061 -8.94657e-07)
(0.000101439 -0.00703056 -8.85518e-07)
(9.9078e-05 -0.00722645 -8.64934e-07)
(9.53335e-05 -0.00739093 -8.3227e-07)
(9.01748e-05 -0.00751503 -7.8726e-07)
(8.36278e-05 -0.00758783 -7.30131e-07)
(7.57815e-05 -0.00759609 -6.61659e-07)
(6.67997e-05 -0.00752391 -5.83273e-07)
(5.69274e-05 -0.00735234 -4.97107e-07)
(4.64959e-05 -0.00705907 -4.06054e-07)
(3.59192e-05 -0.00661809 -3.13726e-07)
(2.57044e-05 -0.00599957 -2.24548e-07)
(1.63982e-05 -0.00516968 -1.43292e-07)
(8.63731e-06 -0.00409078 -7.55132e-08)
(2.94588e-06 -0.00272161 -2.58106e-08)
(5.35677e-08 -0.00101811 -9.00537e-10)
(-6.6864e-10 -7.05857e-07 5.78943e-12)
(1.61762e-08 -4.8721e-06 -1.4164e-10)
(1.36907e-08 -1.35959e-05 -1.20178e-10)
(4.65308e-08 -2.71745e-05 -4.06897e-10)
(1.80674e-09 -4.59567e-05 -1.67932e-11)
(1.26559e-07 -7.02568e-05 -1.10819e-09)
(1.66753e-07 -0.000100399 -1.46215e-09)
(1.14367e-06 -0.000136714 -9.98395e-09)
(1.48894e-06 -0.000179456 -1.29771e-08)
(8.16843e-07 -0.000229013 -7.1246e-09)
(1.23594e-06 -0.000285604 -1.07887e-08)
(1.6601e-06 -0.000349552 -1.44853e-08)
(2.28083e-06 -0.000421096 -1.99006e-08)
(2.95527e-06 -0.000500532 -2.57869e-08)
(3.81863e-06 -0.000588084 -3.33213e-08)
(4.79888e-06 -0.000683998 -4.18747e-08)
(5.97696e-06 -0.000788478 -5.2155e-08)
(7.34277e-06 -0.000901714 -6.40735e-08)
(8.93386e-06 -0.00102387 -7.79569e-08)
(1.07637e-05 -0.00115509 -9.39239e-08)
(1.28419e-05 -0.00129547 -1.1206e-07)
(1.51794e-05 -0.00144509 -1.32459e-07)
(1.77928e-05 -0.001604 -1.55265e-07)
(2.0697e-05 -0.00177219 -1.8061e-07)
(2.39067e-05 -0.00194963 -2.0862e-07)
(2.74315e-05 -0.00213624 -2.39381e-07)
(3.12729e-05 -0.0023319 -2.72903e-07)
(3.54262e-05 -0.00253642 -3.09148e-07)