/*--------------------------------*- C++ -*----------------------------------*\
| =========                 |                                                 |
| \\      /  F ield         | OpenFOAM: The Open Source CFD Toolbox           |
|  \\    /   O peration     | Version:  v2012                                 |
|   \\  /    A nd           | Website:  www.openfoam.com                      |
|    \\/     M anipulation  |                                                 |
\*---------------------------------------------------------------------------*/
FoamFile
{
    version     2.0;
    format      ascii;
    class       surfaceScalarField;
    location    "0.35";
    object      phi;
}
// * * * * * * * * * * * * * * * * * * * * * * * * * * * * * * * * * * * * * //

dimensions      [0 3 -1 0 0 0 0];
oriented        oriented;


internalField   nonuniform List<scalar> 
8145
(
-2.34341e-08
8.26046e-08
1.44954e-16
-1.98974e-08
8.69028e-08
-2.36765e-16
-1.62297e-08
8.91069e-08
-8.88095e-17
-1.2533e-08
8.8608e-08
-4.19106e-18
-8.94081e-09
8.47115e-08
8.3901e-17
-5.62664e-09
7.66326e-08
2.34738e-16
-2.81762e-09
6.34134e-08
-8.5654e-18
-8.10852e-10
4.39859e-08
1.46827e-17
1.69974e-08
-3.87656e-18
-3.23352e-08
5.93568e-08
-6.22349e-16
-2.9596e-08
6.68939e-08
-2.72969e-16
-2.65544e-08
7.36694e-08
-6.23426e-18
-2.32513e-08
7.93014e-08
1.29486e-16
-1.97424e-08
8.33939e-08
-2.47092e-16
-1.61035e-08
8.54681e-08
-9.94334e-17
-1.24359e-08
8.49404e-08
-1.19469e-17
-8.87227e-09
8.11479e-08
7.91504e-17
-5.5844e-09
7.33447e-08
2.35617e-16
-2.79731e-09
6.06263e-08
-5.27835e-18
-8.05509e-10
4.19941e-08
1.92716e-17
1.61919e-08
3.38943e-18
-2.03976e-09
-2.97366e-08
-7.3638e-15
-3.75059e-09
-3.1846e-08
-6.65215e-15
-5.43853e-09
-3.342e-08
-6.42526e-15
-7.12491e-09
-3.47014e-08
-5.20383e-15
-8.83998e-09
-3.58643e-08
-4.71087e-15
-1.06036e-08
-3.69773e-08
-4.04684e-15
-1.2425e-08
-3.80545e-08
-3.83216e-15
-1.43041e-08
-3.90623e-08
-3.63267e-15
-1.62344e-08
-3.99647e-08
-3.35977e-15
-1.82055e-08
-4.07103e-08
-3.00993e-15
-2.02044e-08
-4.12561e-08
-2.80899e-15
-2.22166e-08
-4.15584e-08
-2.69242e-15
-2.42262e-08
-4.15738e-08
-2.53408e-15
-2.62167e-08
-4.1273e-08
-2.41205e-15
-2.81706e-08
-4.06144e-08
-2.3096e-15
-3.00695e-08
-3.9571e-08
-2.28962e-15
-3.18949e-08
-3.8113e-08
-2.02513e-15
-3.36274e-08
-3.62121e-08
-1.85731e-15
-3.52466e-08
-3.38443e-08
-1.76479e-15
-3.6732e-08
-3.09874e-08
-1.67537e-15
-3.80621e-08
-2.76238e-08
-1.59233e-15
-3.92153e-08
-2.37381e-08
-1.49549e-15
-4.01703e-08
-1.9322e-08
-1.38025e-15
-4.09046e-08
-1.43718e-08
-1.25712e-15
-4.13974e-08
-8.89097e-09
-1.11382e-15
-4.16267e-08
-2.89862e-09
-9.72361e-16
-4.15732e-08
3.5843e-09
-8.30869e-16
-4.12176e-08
1.05186e-08
-6.92191e-16
-4.05438e-08
1.78478e-08
-5.57327e-16
-3.95381e-08
2.5493e-08
-4.25967e-16
-3.81888e-08
3.33769e-08
-2.89348e-16
-3.64913e-08
4.13512e-08
-7.0285e-17
-3.44445e-08
4.92834e-08
-3.10811e-16
-3.20558e-08
5.69682e-08
-6.06391e-16
-2.93412e-08
6.41791e-08
-2.88705e-16
-2.6326e-08
7.06543e-08
-5.11662e-17
-2.3051e-08
7.60264e-08
1.08707e-16
-1.9572e-08
7.99148e-08
-2.58089e-16
-1.59643e-08
8.18604e-08
-1.09072e-16
-1.23285e-08
8.13047e-08
-1.8843e-17
-8.7961e-09
7.76154e-08
7.50535e-17
-5.53722e-09
7.00858e-08
2.35961e-16
-2.77447e-09
5.78635e-08
-2.20081e-18
-7.9943e-10
4.0019e-08
2.43354e-17
1.53925e-08
1.04318e-17
-2.08126e-09
-2.80749e-08
-6.18976e-15
-3.75388e-09
-3.01734e-08
-5.91985e-15
-5.41605e-09
-3.17579e-08
-5.89002e-15
-7.07912e-09
-3.30383e-08
-5.15677e-15
-8.76796e-09
-3.41755e-08
-4.72721e-15
-1.05011e-08
-3.52442e-08
-3.93144e-15
-1.22886e-08
-3.62669e-08
-3.60913e-15
-1.41319e-08
-3.7219e-08
-3.39208e-15
-1.60262e-08
-3.80704e-08
-3.15933e-15
-1.79621e-08
-3.87744e-08
-2.86211e-15
-1.99277e-08
-3.92905e-08
-2.73627e-15
-2.19089e-08
-3.95772e-08
-2.65123e-15
-2.38902e-08
-3.95925e-08
-2.54148e-15
-2.58555e-08
-3.93078e-08
-2.44057e-15
-2.77873e-08
-3.86827e-08
-2.34783e-15
-2.96673e-08
-3.76908e-08
-2.38079e-15
-3.1477e-08
-3.63032e-08
-2.09051e-15
-3.31968e-08
-3.44923e-08
-1.9034e-15
-3.48063e-08
-3.22347e-08
-1.79087e-15
-3.6285e-08
-2.95088e-08
-1.68941e-15
-3.76111e-08
-2.62977e-08
-1.59664e-15
-3.8763e-08
-2.25861e-08
-1.49427e-15
-3.97191e-08
-1.83659e-08
-1.37725e-15
-4.04569e-08
-1.36337e-08
-1.25285e-15
-4.09554e-08
-8.39277e-09
-1.11159e-15
-4.11926e-08
-2.66123e-09
-9.70716e-16
-4.11489e-08
3.54055e-09
-8.29346e-16
-4.08052e-08
1.0175e-08
-6.90905e-16
-4.01451e-08
1.71877e-08
-5.56112e-16
-3.91549e-08
2.45026e-08
-4.24508e-16
-3.7823e-08
3.20453e-08
-2.87521e-16
-3.6145e-08
3.9673e-08
-7.03124e-17
-3.41195e-08
4.72581e-08
-3.02364e-16
-3.17543e-08
5.46031e-08
-5.86534e-16
-2.90653e-08
6.149e-08
-3.00947e-16
-2.60779e-08
6.7667e-08
-8.9105e-17
-2.28329e-08
7.27814e-08
8.43913e-17
-1.93859e-08
7.64678e-08
-2.698e-16
-1.58118e-08
7.82863e-08
-1.18454e-16
-1.22104e-08
7.77033e-08
-2.5134e-17
-8.71205e-09
7.41171e-08
7.1673e-17
-5.48492e-09
6.68587e-08
2.34987e-16
-2.74899e-09
5.51276e-08
1.3733e-18
-7.92579e-10
3.80626e-08
3.02173e-17
1.45999e-08
1.85277e-17
-2.13586e-09
-2.6472e-08
-6.33457e-15
-3.76845e-09
-2.85408e-08
-5.80792e-15
-5.40268e-09
-3.01236e-08
-5.6796e-15
-7.04203e-09
-3.13989e-08
-4.658e-15
-8.70561e-09
-3.25119e-08
-4.63538e-15
-1.04099e-08
-3.354e-08
-4.09098e-15
-1.21653e-08
-3.45115e-08
-3.88542e-15
-1.39742e-08
-3.54101e-08
-3.70547e-15
-1.58332e-08
-3.62114e-08
-3.43105e-15
-1.77341e-08
-3.68735e-08
-3.0525e-15
-1.96658e-08
-3.73588e-08
-2.8499e-15
-2.1615e-08
-3.7628e-08
-2.70022e-15
-2.35668e-08
-3.76407e-08
-2.57532e-15
-2.55051e-08
-3.73695e-08
-2.46259e-15
-2.74127e-08
-3.67751e-08
-2.34774e-15
-2.92716e-08
-3.58319e-08
-2.40473e-15
-3.1063e-08
-3.45117e-08
-2.1243e-15
-3.27676e-08
-3.27878e-08
-1.9311e-15
-3.43648e-08
-3.06375e-08
-1.80763e-15
-3.5834e-08
-2.80398e-08
-1.69782e-15
-3.71535e-08
-2.49781e-08
-1.59865e-15
-3.83014e-08
-2.14379e-08
-1.49248e-15
-3.92562e-08
-1.74112e-08
-1.37403e-15
-3.99952e-08
-1.28945e-08
-1.24903e-15
-4.04972e-08
-7.89101e-09
-1.10868e-15
-4.07402e-08
-2.41795e-09
-9.67891e-16
-4.07048e-08
3.50498e-09
-8.26048e-16
-4.03715e-08
9.8418e-09
-6.87394e-16
-3.9724e-08
1.65401e-08
-5.52417e-16
-3.87486e-08
2.3527e-08
-4.20573e-16
-3.74338e-08
3.07307e-08
-2.83742e-16
-3.5775e-08
3.80141e-08
-6.78551e-17
-3.37713e-08
4.52545e-08
-2.92342e-16
-3.14302e-08
5.22621e-08
-5.65181e-16
-2.87679e-08
5.88275e-08
-3.10552e-16
-2.58098e-08
6.4709e-08
-1.23379e-16
-2.25966e-08
6.95681e-08
6.27979e-17
-1.91837e-08
7.30549e-08
-2.7967e-16
-1.56456e-08
7.47483e-08
-1.25561e-16
-1.20814e-08
7.41391e-08
-2.96162e-17
-8.61988e-09
7.06555e-08
6.93394e-17
-5.4273e-09
6.36661e-08
2.34223e-16
-2.72077e-09
5.24211e-08
4.2657e-18
-7.84917e-10
3.61268e-08
3.51628e-17
1.3815e-08
2.51367e-17
-2.20719e-09
-2.49266e-08
-6.23929e-15
-3.79783e-09
-2.69501e-08
-5.16268e-15
-5.40151e-09
-2.852e-08
-5.31455e-15
-7.01558e-09
-2.97849e-08
-5.11786e-15
-8.65362e-09
-3.08738e-08
-4.88049e-15
-1.03297e-08
-3.18638e-08
-4.11249e-15
-1.20539e-08
-3.27873e-08
-3.82249e-15
-1.38293e-08
-3.36347e-08
-3.6507e-15
-1.56535e-08
-3.43872e-08
-3.4006e-15
-1.75195e-08
-3.50075e-08
-3.02861e-15
-1.9417e-08
-3.54612e-08
-2.8479e-15
-2.13334e-08
-3.57115e-08
-2.69864e-15
-2.32543e-08
-3.57199e-08
-2.58624e-15
-2.51641e-08
-3.54598e-08
-2.47343e-15
-2.70457e-08
-3.48935e-08
-2.34017e-15
-2.88812e-08
-3.39963e-08
-2.41821e-15
-3.06521e-08
-3.27407e-08
-2.14403e-15
-3.23389e-08
-3.1101e-08
-1.94837e-15
-3.39213e-08
-2.90551e-08
-1.81762e-15
-3.53784e-08
-2.65827e-08
-1.70105e-15
-3.66886e-08
-2.36679e-08
-1.59665e-15
-3.78301e-08
-2.02963e-08
-1.48731e-15
-3.8781e-08
-1.64603e-08
-1.36775e-15
-3.95188e-08
-1.21565e-08
-1.24274e-15
-4.00222e-08
-7.38783e-09
-1.10349e-15
-4.02693e-08
-2.1707e-09
-9.63176e-16
-4.02403e-08
3.47591e-09
-8.2117e-16
-3.9916e-08
9.51762e-09
-6.82521e-16
-3.928e-08
1.59041e-08
-5.47516e-16
-3.83186e-08
2.25655e-08
-4.15546e-16
-3.70205e-08
2.94328e-08
-2.78893e-16
-3.5381e-08
3.63745e-08
-6.4484e-17
-3.33993e-08
4.32729e-08
-2.83563e-16
-3.10831e-08
4.9946e-08
-5.48755e-16
-2.84485e-08
5.61929e-08
-3.1892e-16
-2.55212e-08
6.17818e-08
-1.49495e-16
-2.23416e-08
6.63886e-08
3.97377e-17
-1.8965e-08
6.96783e-08
-2.90369e-16
-1.54654e-08
7.12487e-08
-1.33422e-16
-1.19411e-08
7.06148e-08
-3.45636e-17
-8.5193e-09
6.72338e-08
6.6561e-17
-5.36418e-09
6.0511e-08
2.33374e-16
-2.68969e-09
4.97466e-08
6.12113e-18
-7.76403e-10
3.42135e-08
3.94992e-17
1.30386e-08
3.13726e-17
-2.29807e-09
-2.34378e-08
-5.84765e-15
-3.84482e-09
-2.54034e-08
-4.76604e-15
-5.41512e-09
-2.69497e-08
-5.25117e-15
-7.00157e-09
-2.81984e-08
-4.74842e-15
-8.61285e-09
-2.92626e-08
-4.53483e-15
-1.02605e-08
-3.02162e-08
-3.97063e-15
-1.19537e-08
-3.10941e-08
-3.73163e-15
-1.3696e-08
-3.18925e-08
-3.60721e-15
-1.54857e-08
-3.25975e-08
-3.39346e-15
-1.73167e-08
-3.31765e-08
-3.04372e-15
-1.91796e-08
-3.35983e-08
-2.86352e-15
-2.10624e-08
-3.38286e-08
-2.70007e-15
-2.29514e-08
-3.3831e-08
-2.58772e-15
-2.48311e-08
-3.35801e-08
-2.47181e-15
-2.66849e-08
-3.30398e-08
-2.32813e-15
-2.8495e-08
-3.2186e-08
-2.4193e-15
-3.02431e-08
-3.09925e-08
-2.14801e-15
-3.19098e-08
-2.94343e-08
-1.95346e-15
-3.34748e-08
-2.74901e-08
-1.81902e-15
-3.49174e-08
-2.51403e-08
-1.69772e-15
-3.62158e-08
-2.23694e-08
-1.58971e-15
-3.73482e-08
-1.91637e-08
-1.4781e-15
-3.82929e-08
-1.55157e-08
-1.35799e-15
-3.90273e-08
-1.1422e-08
-1.23349e-15
-3.953e-08
-6.88536e-09
-1.09563e-15
-3.9779e-08
-1.92141e-09
-9.56338e-16
-3.97549e-08
3.45165e-09
-8.14699e-16
-3.94382e-08
9.20104e-09
-6.76482e-16
-3.88126e-08
1.52786e-08
-5.41745e-16
-3.78645e-08
2.16172e-08
-4.09911e-16
-3.65825e-08
2.81511e-08
-2.73489e-16
-3.49623e-08
3.47541e-08
-6.02433e-17
-3.3003e-08
4.13137e-08
-2.76807e-16
-3.07123e-08
4.76554e-08
-5.38146e-16
-2.81066e-08
5.35871e-08
-3.26753e-16
-2.52115e-08
5.88867e-08
-1.74364e-16
-2.20674e-08
6.32445e-08
2.04261e-17
-1.87294e-08
6.63402e-08
-2.99454e-16
-1.52708e-08
6.77902e-08
-1.40007e-16
-1.17891e-08
6.71331e-08
-3.88355e-17
-8.41003e-09
6.38547e-08
6.37901e-17
-5.29534e-09
5.73963e-08
2.31036e-16
-2.65561e-09
4.71068e-08
6.37669e-18
-7.66992e-10
3.23249e-08
4.2404e-17
1.22716e-08
3.59914e-17
-2.41022e-09
-2.20048e-08
-5.77312e-15
-3.9112e-09
-2.39024e-08
-4.49776e-15
-5.44518e-09
-2.54157e-08
-5.1217e-15
-7.00124e-09
-2.66423e-08
-4.71113e-15
-8.58389e-09
-2.76799e-08
-4.49043e-15
-1.02022e-08
-2.85979e-08
-3.96086e-15
-1.18641e-08
-2.94321e-08
-3.71562e-15
-1.35731e-08
-3.01835e-08
-3.60317e-15
-1.53283e-08
-3.08424e-08
-3.4073e-15
-1.71241e-08
-3.13806e-08
-3.07032e-15
-1.8952e-08
-3.17704e-08
-2.87982e-15
-2.08005e-08
-3.198e-08
-2.7044e-15
-2.26564e-08
-3.19752e-08
-2.58649e-15
-2.45046e-08
-3.17318e-08
-2.46248e-15
-2.6329e-08
-3.12155e-08
-2.31082e-15
-2.81118e-08
-3.04031e-08
-2.40273e-15
-2.9835e-08
-2.92693e-08
-2.13492e-15
-3.14793e-08
-2.779e-08
-1.9462e-15
-3.30245e-08
-2.59449e-08
-1.8113e-15
-3.445e-08
-2.37149e-08
-1.68736e-15
-3.57341e-08
-2.10853e-08
-1.57729e-15
-3.68551e-08
-1.80426e-08
-1.46453e-15
-3.77911e-08
-1.45797e-08
-1.34471e-15
-3.85197e-08
-1.06932e-08
-1.22131e-15
-3.90196e-08
-6.38572e-09
-1.08524e-15
-3.92688e-08
-1.67198e-09
-9.47486e-16
-3.92478e-08
3.43053e-09
-8.06768e-16
-3.89373e-08
8.89065e-09
-6.69467e-16
-3.8321e-08
1.46623e-08
-5.35415e-16
-3.73854e-08
2.06814e-08
-4.04069e-16
-3.61193e-08
2.68852e-08
-2.67859e-16
-3.45183e-08
3.3153e-08
-5.55796e-17
-3.25817e-08
3.93771e-08
-2.71805e-16
-3.03173e-08
4.53912e-08
-5.31325e-16
-2.77417e-08
5.10113e-08
-3.32953e-16
-2.48803e-08
5.60254e-08
-1.91764e-16
-2.17736e-08
6.01377e-08
6.85379e-20
-1.84763e-08
6.30429e-08
-3.08964e-16
-1.50613e-08
6.43753e-08
-1.4741e-16
-1.16251e-08
6.36968e-08
-4.38639e-17
-8.29176e-09
6.05214e-08
6.02757e-17
-5.22055e-09
5.43251e-08
2.28206e-16
-2.6184e-09
4.45047e-08
5.58579e-18
-7.56636e-10
3.04632e-08
4.46441e-17
1.1515e-08
4.0236e-17
-2.54372e-09
-2.06268e-08
-5.37708e-15
-3.99729e-09
-2.24488e-08
-4.15263e-15
-5.49212e-09
-2.39208e-08
-4.93278e-15
-7.01493e-09
-2.51195e-08
-4.48017e-15
-8.56676e-09
-2.61281e-08
-4.32475e-15
-1.01543e-08
-2.70103e-08
-3.93264e-15
-1.17842e-08
-2.78022e-08
-3.67212e-15
-1.34597e-08
-2.8508e-08
-3.54168e-15
-1.51801e-08
-2.9122e-08
-3.35381e-15
-1.69404e-08
-2.96202e-08
-3.03096e-15
-1.87327e-08
-2.99781e-08
-2.85415e-15
-2.05461e-08
-3.01665e-08
-2.67826e-15
-2.23678e-08
-3.01535e-08
-2.55906e-15
-2.41833e-08
-2.99164e-08
-2.42848e-15
-2.59765e-08
-2.94223e-08
-2.27327e-15
-2.77302e-08
-2.86493e-08
-2.36021e-15
-2.94264e-08
-2.7573e-08
-2.10415e-15
-3.10461e-08
-2.61704e-08
-1.92631e-15
-3.25692e-08
-2.44218e-08
-1.79435e-15
-3.39751e-08
-2.23091e-08
-1.67001e-15
-3.52425e-08
-1.98179e-08
-1.55951e-15
-3.63495e-08
-1.69355e-08
-1.44688e-15
-3.72745e-08
-1.36547e-08
-1.32819e-15
-3.79952e-08
-9.9724e-09
-1.20645e-15
-3.84902e-08
-5.89098e-09
-1.07256e-15
-3.87376e-08
-1.4243e-09
-9.36793e-16
-3.87181e-08
3.41091e-09
-7.97473e-16
-3.84124e-08
8.58509e-09
-6.61503e-16
-3.78044e-08
1.40543e-08
-5.285e-16
-3.68806e-08
1.97575e-08
-3.97978e-16
-3.56299e-08
2.56347e-08
-2.62134e-16
-3.40481e-08
3.15711e-08
-5.04236e-17
-3.21346e-08
3.74638e-08
-2.66881e-16
-2.98975e-08
4.31541e-08
-5.24055e-16
-2.7353e-08
4.84667e-08
-3.37028e-16
-2.45269e-08
5.31994e-08
-2.07804e-16
-2.14595e-08
5.70703e-08
-1.34864e-17
-1.82053e-08
5.97886e-08
-3.16294e-16
-1.48366e-08
6.10067e-08
-1.53394e-16
-1.14487e-08
6.0309e-08
-4.82724e-17
-8.1642e-09
5.72369e-08
5.6719e-17
-5.13959e-09
5.13004e-08
2.2423e-16
-2.57793e-09
4.1943e-08
3.78913e-18
-7.45283e-10
2.86305e-08
4.59054e-17
1.07697e-08
4.33333e-17
-2.69699e-09
-1.93032e-08
-5.2847e-15
-4.10184e-09
-2.10439e-08
-4.15261e-15
-5.55508e-09
-2.24676e-08
-5.02931e-15
-7.04193e-09
-2.36326e-08
-4.33051e-15
-8.56076e-09
-2.46092e-08
-4.20404e-15
-1.0116e-08
-2.54551e-08
-3.8492e-15
-1.1713e-08
-2.62052e-08
-3.57846e-15
-1.33545e-08
-2.68665e-08
-3.46027e-15
-1.50397e-08
-2.74368e-08
-3.29186e-15
-1.67641e-08
-2.78958e-08
-2.99535e-15
-1.85202e-08
-2.8222e-08
-2.82413e-15
-2.02977e-08
-2.83889e-08
-2.64669e-15
-2.20842e-08
-2.83671e-08
-2.51944e-15
-2.38655e-08
-2.81351e-08
-2.37678e-15
-2.5626e-08
-2.76619e-08
-2.21385e-15
-2.73487e-08
-2.69265e-08
-2.30047e-15
-2.90159e-08
-2.59057e-08
-2.05796e-15
-3.06088e-08
-2.45775e-08
-1.89477e-15
-3.21074e-08
-2.29231e-08
-1.76883e-15
-3.34915e-08
-2.09251e-08
-1.64621e-15
-3.47397e-08
-1.85696e-08
-1.53689e-15
-3.58304e-08
-1.58446e-08
-1.42552e-15
-3.67421e-08
-1.2743e-08
-1.30877e-15
-3.74526e-08
-9.2618e-09
-1.18923e-15
-3.79406e-08
-5.40321e-09
-1.05789e-15
-3.81845e-08
-1.18023e-09
-9.24466e-16
-3.81648e-08
3.39118e-09
-7.86939e-16
-3.78626e-08
8.28303e-09
-6.52651e-16
-3.72619e-08
1.34535e-08
-5.21044e-16
-3.63492e-08
1.88446e-08
-3.91701e-16
-3.51136e-08
2.43994e-08
-2.56225e-16
-3.3551e-08
3.00084e-08
-4.43078e-17
-3.16611e-08
3.55739e-08
-2.62206e-16
-2.94519e-08
4.09449e-08
-5.15795e-16
-2.69399e-08
4.59546e-08
-3.38702e-16
-2.41507e-08
5.04104e-08
-2.16923e-16
-2.11247e-08
5.40443e-08
-2.23987e-17
-1.79159e-08
5.65798e-08
-3.23144e-16
-1.45961e-08
5.76869e-08
-1.59699e-16
-1.12596e-08
5.69724e-08
-5.3196e-17
-8.02701e-09
5.40043e-08
5.25723e-17
-5.0522e-09
4.83256e-08
2.20111e-16
-2.53405e-09
3.94249e-08
1.60555e-18
-7.32877e-10
2.68294e-08
4.68317e-17
1.00368e-08
4.63142e-17
-2.86679e-09
-1.80329e-08
-4.93813e-15
-4.22216e-09
-1.96885e-08
-3.86787e-15
-5.63192e-09
-2.10578e-08
-4.76594e-15
-7.08061e-09
-2.21839e-08
-4.01658e-15
-8.56452e-09
-2.31253e-08
-3.96065e-15
-1.00861e-08
-2.39335e-08
-3.72267e-15
-1.16493e-08
-2.4642e-08
-3.46988e-15
-1.32561e-08
-2.52598e-08
-3.35472e-15
-1.49056e-08
-2.57872e-08
-3.19093e-15
-1.65936e-08
-2.62077e-08
-2.91185e-15
-1.8313e-08
-2.65026e-08
-2.76314e-15
-2.00537e-08
-2.66482e-08
-2.58939e-15
-2.18038e-08
-2.6617e-08
-2.4593e-15
-2.35497e-08
-2.63892e-08
-2.30915e-15
-2.52758e-08
-2.59357e-08
-2.14601e-15
-2.69657e-08
-2.52365e-08
-2.22718e-15
-2.86019e-08
-2.42694e-08
-2.00403e-15
-3.01658e-08
-2.30137e-08
-1.85488e-15
-3.16378e-08
-2.14511e-08
-1.7364e-15
-3.29977e-08
-1.95653e-08
-1.61692e-15
-3.42243e-08
-1.73429e-08
-1.51012e-15
-3.52964e-08
-1.47724e-08
-1.40094e-15
-3.61925e-08
-1.18469e-08
-1.28684e-15
-3.68906e-08
-8.56358e-09
-1.16994e-15
-3.73696e-08
-4.92442e-09
-1.04147e-15
-3.7608e-08
-9.41575e-10
-9.10674e-16
-3.75867e-08
3.36974e-09
-7.75266e-16
-3.72867e-08
7.98316e-09
-6.42958e-16
-3.66922e-08
1.2859e-08
-5.13062e-16
-3.579e-08
1.79422e-08
-3.85136e-16
-3.45692e-08
2.31789e-08
-2.50096e-16
-3.30261e-08
2.84651e-08
-3.73633e-17
-3.11602e-08
3.37082e-08
-2.5688e-16
-2.89799e-08
3.87647e-08
-5.07325e-16
-2.65016e-08
4.34762e-08
-3.38504e-16
-2.37511e-08
4.766e-08
-2.24958e-16
-2.07685e-08
5.10616e-08
-3.48752e-17
-1.76075e-08
5.34188e-08
-3.27291e-16
-1.43394e-08
5.44189e-08
-1.64395e-16
-1.10572e-08
5.36903e-08
-5.73871e-17
-7.87986e-09
5.08269e-08
4.85005e-17
-4.95815e-09
4.54039e-08
2.15277e-16
-2.48659e-09
3.69533e-08
-9.2404e-19
-7.1936e-10
2.50621e-08
4.71678e-17
9.31744e-09
4.85227e-17
-3.04882e-09
-1.68147e-08
-4.69795e-15
-4.35456e-09
-1.83828e-08
-3.60814e-15
-5.7197e-09
-1.96927e-08
-4.53305e-15
-7.12867e-09
-2.07749e-08
-3.94428e-15
-8.57618e-09
-2.16778e-08
-3.86625e-15
-1.00629e-08
-2.24467e-08
-3.62098e-15
-1.15915e-08
-2.31135e-08
-3.35662e-15
-1.3163e-08
-2.36882e-08
-3.24599e-15
-1.47764e-08
-2.41738e-08
-3.10361e-15
-1.64275e-08
-2.45566e-08
-2.83083e-15
-1.81093e-08
-2.48208e-08
-2.6912e-15
-1.98124e-08
-2.49451e-08
-2.5174e-15
-2.1525e-08
-2.49044e-08
-2.38364e-15
-2.3234e-08
-2.46803e-08
-2.23102e-15
-2.49243e-08
-2.42455e-08
-2.07973e-15
-2.65796e-08
-2.35811e-08
-2.15535e-15
-2.81828e-08
-2.26662e-08
-1.94782e-15
-2.97156e-08
-2.14809e-08
-1.80976e-15
-3.11586e-08
-2.00081e-08
-1.69847e-15
-3.2492e-08
-1.82321e-08
-1.58316e-15
-3.36948e-08
-1.61401e-08
-1.47979e-15
-3.47459e-08
-1.37211e-08
-1.37357e-15
-3.56241e-08
-1.09687e-08
-1.26266e-15
-3.63077e-08
-7.87987e-09
-1.14879e-15
-3.67758e-08
-4.45658e-09
-1.02346e-15
-3.7007e-08
-7.10121e-10
-8.95537e-16
-3.69825e-08
3.34508e-09
-7.62533e-16
-3.66834e-08
7.68423e-09
-6.3246e-16
-3.60942e-08
1.22697e-08
-5.04489e-16
-3.52019e-08
1.70497e-08
-3.78289e-16
-3.39958e-08
2.1973e-08
-2.43763e-16
-3.24722e-08
2.69414e-08
-2.95116e-17
-3.0631e-08
3.18671e-08
-2.52281e-16
-2.84805e-08
3.66143e-08
-4.99277e-16
-2.60374e-08
4.1033e-08
-3.36916e-16
-2.33273e-08
4.495e-08
-2.27695e-16
-2.03902e-08
4.81245e-08
-4.78495e-17
-1.72796e-08
5.03081e-08
-3.30537e-16
-1.4066e-08
5.12053e-08
-1.6896e-16
-1.08413e-08
5.04656e-08
-6.17173e-17
-7.72242e-09
4.77081e-08
4.41348e-17
-4.85718e-09
4.25387e-08
2.0974e-16
-2.43541e-09
3.45315e-08
-3.19751e-18
-7.04668e-10
2.33314e-08
4.74243e-17
8.61278e-09
5.07363e-17
-3.23869e-09
-1.56472e-08
-4.52509e-15
-4.49517e-09
-1.71263e-08
-3.42366e-15
-5.81525e-09
-1.83726e-08
-4.33374e-15
-7.18357e-09
-1.94066e-08
-3.68035e-15
-8.5937e-09
-2.02677e-08
-3.65639e-15
-1.00448e-08
-2.09956e-08
-3.50234e-15
-1.1538e-08
-2.16202e-08
-3.26722e-15
-1.30737e-08
-2.21525e-08
-3.16309e-15
-1.46505e-08
-2.2597e-08
-3.02268e-15
-1.62641e-08
-2.29431e-08
-2.755e-15
-1.79077e-08
-2.31772e-08
-2.61498e-15
-1.95721e-08
-2.32806e-08
-2.43932e-15
-2.12461e-08
-2.32304e-08
-2.30428e-15
-2.29169e-08
-2.30096e-08
-2.15452e-15
-2.45696e-08
-2.25928e-08
-2.02546e-15
-2.61885e-08
-2.19621e-08
-2.10454e-15
-2.77567e-08
-2.10979e-08
-1.89894e-15
-2.92563e-08
-1.99814e-08
-1.76461e-15
-3.06681e-08
-1.85963e-08
-1.65789e-15
-3.19727e-08
-1.69276e-08
-1.54633e-15
-3.31493e-08
-1.49634e-08
-1.44658e-15
-3.41772e-08
-1.26931e-08
-1.34377e-15
-3.50353e-08
-1.01105e-08
-1.23646e-15
-3.57023e-08
-7.21277e-09
-1.1259e-15
-3.61574e-08
-4.00165e-09
-1.00394e-15
-3.63798e-08
-4.87593e-10
-8.79103e-16
-3.63505e-08
3.31572e-09
-7.48769e-16
-3.60512e-08
7.38507e-09
-6.2118e-16
-3.54665e-08
1.1685e-08
-4.9539e-16
-3.45835e-08
1.61666e-08
-3.7113e-16
-3.3392e-08
2.07817e-08
-2.37378e-16
-3.18882e-08
2.54376e-08
-2.2122e-17
-3.00724e-08
3.00513e-08
-2.48034e-16
-2.79529e-08
3.44948e-08
-4.9236e-16
-2.55464e-08
3.86264e-08
-3.34479e-16
-2.28786e-08
4.22823e-08
-2.30291e-16
-1.99893e-08
4.52352e-08
-5.45505e-17
-1.69316e-08
4.72504e-08
-3.31424e-16
-1.37754e-08
4.80491e-08
-1.71901e-16
-1.06113e-08
4.73015e-08
-6.51925e-17
-7.55435e-09
4.46511e-08
4.00255e-17
-4.74903e-09
3.97333e-08
2.03751e-16
-2.38032e-09
3.21628e-08
-5.12363e-18
-6.88737e-10
2.16398e-08
4.74348e-17
7.92404e-09
5.24079e-17
-3.43258e-09
-1.45292e-08
-4.05375e-15
-4.64053e-09
-1.59183e-08
-3.18982e-15
-5.91565e-09
-1.70975e-08
-4.02813e-15
-7.24297e-09
-1.80793e-08
-3.54278e-15
-8.61518e-09
-1.88955e-08
-3.53013e-15
-1.003e-08
-1.95808e-08
-3.38159e-15
-1.14874e-08
-2.01628e-08
-3.14404e-15
-1.29869e-08
-2.06531e-08
-3.04568e-15
-1.45264e-08
-2.10575e-08
-2.90828e-15
-1.61018e-08
-2.13677e-08
-2.65097e-15
-1.77063e-08
-2.15726e-08
-2.51503e-15
-1.93311e-08
-2.16557e-08
-2.34333e-15
-2.09653e-08
-2.15962e-08
-2.21386e-15
-2.25963e-08
-2.13786e-08
-2.07478e-15
-2.42099e-08
-2.09792e-08
-1.97034e-15
-2.57905e-08
-2.03814e-08
-2.07348e-15
-2.73217e-08
-1.95666e-08
-1.85982e-15
-2.87859e-08
-1.85172e-08
-1.72183e-15
-3.01644e-08
-1.72178e-08
-1.61617e-15
-3.14378e-08
-1.56543e-08
-1.50728e-15
-3.2586e-08
-1.38152e-08
-1.41107e-15
-3.35883e-08
-1.16906e-08
-1.31186e-15
-3.44242e-08
-9.27461e-09
-1.20833e-15
-3.50725e-08
-6.56435e-09
-1.10127e-15
-3.55128e-08
-3.5615e-09
-9.82902e-16
-3.57246e-08
-2.75669e-10
-8.61344e-16
-3.56892e-08
3.28023e-09
-7.33944e-16
-3.53885e-08
7.08455e-09
-6.09093e-16
-3.48075e-08
1.11039e-08
-4.85731e-16
-3.39335e-08
1.52924e-08
-3.63668e-16
-3.27564e-08
1.96049e-08
-2.31155e-16
-3.12729e-08
2.39539e-08
-1.58687e-17
-2.94832e-08
2.82617e-08
-2.45157e-16
-2.73959e-08
3.24076e-08
-4.86076e-16
-2.50276e-08
3.6258e-08
-3.31455e-16
-2.24042e-08
3.9659e-08
-2.29467e-16
-1.95651e-08
4.23961e-08
-5.87543e-17
-1.6563e-08
4.42483e-08
-3.31254e-16
-1.34672e-08
4.49533e-08
-1.74265e-16
-1.0367e-08
4.42013e-08
-6.83749e-17
-7.37531e-09
4.16594e-08
3.59974e-17
-4.63343e-09
3.69915e-08
1.97671e-16
-2.32117e-09
2.98505e-08
-6.27071e-18
-6.71498e-10
1.99902e-08
4.75455e-17
7.25254e-09
5.41011e-17
-3.6278e-09
-1.34594e-08
-4.08869e-15
-4.78813e-09
-1.4758e-08
-3.09762e-15
-6.01876e-09
-1.58669e-08
-3.842e-15
-7.30509e-09
-1.67929e-08
-3.26969e-15
-8.63911e-09
-1.75614e-08
-3.27724e-15
-1.00173e-08
-1.82026e-08
-3.18482e-15
-1.14384e-08
-1.87417e-08
-2.98161e-15
-1.2901e-08
-1.91905e-08
-2.91184e-15
-1.44027e-08
-1.95557e-08
-2.79049e-15
-1.59391e-08
-1.98313e-08
-2.54942e-15
-1.75036e-08
-2.00081e-08
-2.42039e-15
-1.90877e-08
-2.00716e-08
-2.25216e-15
-2.06806e-08
-2.00033e-08
-2.12993e-15
-2.22704e-08
-1.97889e-08
-2.00351e-15
-2.38431e-08
-1.94066e-08
-1.92129e-15
-2.53835e-08
-1.88408e-08
-2.06302e-15
-2.68757e-08
-1.80743e-08
-1.83189e-15
-2.83024e-08
-1.70906e-08
-1.68323e-15
-2.96452e-08
-1.5875e-08
-1.57485e-15
-3.08852e-08
-1.44144e-08
-1.46693e-15
-3.20026e-08
-1.26978e-08
-1.37371e-15
-3.29771e-08
-1.07159e-08
-1.27797e-15
-3.37886e-08
-8.46312e-09
-1.17838e-15
-3.44162e-08
-5.93664e-09
-1.07481e-15
-3.48399e-08
-3.13798e-09
-9.60236e-16
-3.50394e-08
-7.59649e-11
-8.42149e-16
-3.49966e-08
3.23728e-09
-7.17976e-16
-3.46936e-08
6.78164e-09
-5.96141e-16
-3.41155e-08
1.05258e-08
-4.75463e-16
-3.32502e-08
1.44269e-08
-3.55869e-16
-3.20877e-08
1.84426e-08
-2.25217e-16
-3.0625e-08
2.2491e-08
-7.11752e-18
-2.88623e-08
2.64992e-08
-2.41969e-16
-2.68085e-08
3.03538e-08
-4.80554e-16
-2.44802e-08
3.39297e-08
-3.27961e-16
-2.19032e-08
3.7082e-08
-2.28802e-16
-1.91168e-08
3.96096e-08
-6.07816e-17
-1.61732e-08
4.13047e-08
-3.28908e-16
-1.31408e-08
4.1921e-08
-1.75034e-16
-1.01078e-08
4.11684e-08
-7.05973e-17
-7.18498e-09
3.87366e-08
3.24381e-17
-4.51015e-09
3.43166e-08
1.91629e-16
-2.25779e-09
2.75982e-08
-6.75446e-18
-6.52879e-10
1.83853e-08
4.76239e-17
6.59966e-09
5.5401e-17
-3.8229e-09
-1.2437e-08
-3.98145e-15
-4.93656e-09
-1.36443e-08
-3.03279e-15
-6.12332e-09
-1.46801e-08
-3.76788e-15
-7.36883e-09
-1.55474e-08
-3.06545e-15
-8.66447e-09
-1.62658e-08
-3.12199e-15
-1.00056e-08
-1.68615e-08
-3.07388e-15
-1.13898e-08
-1.73575e-08
-2.87266e-15
-1.28149e-08
-1.77654e-08
-2.79949e-15
-1.42779e-08
-1.80926e-08
-2.67125e-15
-1.57744e-08
-1.83348e-08
-2.43265e-15
-1.72978e-08
-1.84847e-08
-2.30816e-15
-1.88398e-08
-1.85296e-08
-2.14873e-15
-2.03901e-08
-1.8453e-08
-2.0405e-15
-2.1937e-08
-1.8242e-08
-1.93227e-15
-2.3467e-08
-1.78766e-08
-1.87051e-15
-2.49653e-08
-1.73424e-08
-2.05293e-15
-2.64164e-08
-1.66232e-08
-1.80801e-15
-2.78033e-08
-1.57036e-08
-1.64733e-15
-2.91082e-08
-1.45701e-08
-1.53385e-15
-3.03125e-08
-1.32101e-08
-1.42551e-15
-3.13969e-08
-1.16135e-08
-1.33473e-15
-3.23414e-08
-9.77126e-09
-1.24206e-15
-3.31263e-08
-7.67819e-09
-1.14633e-15
-3.37312e-08
-5.33163e-09
-1.04641e-15
-3.41365e-08
-2.7329e-09
-9.35792e-16
-3.43222e-08
1.09968e-10
-8.21355e-16
-3.42707e-08
3.1856e-09
-7.00748e-16
-3.39643e-08
6.4754e-09
-5.82224e-16
-3.33887e-08
9.95018e-09
-4.64521e-16
-3.25318e-08
1.35699e-08
-3.47692e-16
-3.13842e-08
1.72952e-08
-2.19536e-16
-2.99428e-08
2.10496e-08
1.2903e-19
-2.82083e-08
2.47648e-08
-2.3966e-16
-2.61895e-08
2.83351e-08
-4.74648e-16
-2.39032e-08
3.16433e-08
-3.23921e-16
-2.13749e-08
3.45538e-08
-2.25887e-16
-1.86437e-08
3.68784e-08
-6.2263e-17
-1.57615e-08
3.84225e-08
-3.25178e-16
-1.27958e-08
3.89553e-08
-1.74805e-16
-9.83346e-09
3.8206e-08
-7.21051e-17
-6.98304e-09
3.58862e-08
2.93489e-17
-4.37891e-09
3.17125e-08
1.85803e-16
-2.19001e-09
2.54092e-08
-6.46886e-18
-6.32806e-10
1.68281e-08
4.78138e-17
5.96686e-09
5.66647e-17
-4.01748e-09
-1.14611e-08
-3.91357e-15
-5.08546e-09
-1.25764e-08
-3.04023e-15
-6.22893e-09
-1.35366e-08
-3.6986e-15
-7.43373e-09
-1.43426e-08
-2.90172e-15
-8.6907e-09
-1.50088e-08
-2.87212e-15
-9.99414e-09
-1.55581e-08
-2.82692e-15
-1.13406e-08
-1.6011e-08
-2.67408e-15
-1.27273e-08
-1.63787e-08
-2.64849e-15
-1.41507e-08
-1.66692e-08
-2.54685e-15
-1.56061e-08
-1.68794e-08
-2.32967e-15
-1.70871e-08
-1.70036e-08
-2.21137e-15
-1.85856e-08
-1.70311e-08
-2.05655e-15
-2.00917e-08
-1.6947e-08
-1.95912e-15
-2.15939e-08
-1.67398e-08
-1.86586e-15
-2.30793e-08
-1.63913e-08
-1.81611e-15
-2.45334e-08
-1.58881e-08
-2.03641e-15
-2.59412e-08
-1.52154e-08
-1.78379e-15
-2.72862e-08
-1.43587e-08
-1.61223e-15
-2.85508e-08
-1.33054e-08
-1.49264e-15
-2.97172e-08
-1.20439e-08
-1.38292e-15
-3.07661e-08
-1.05644e-08
-1.29386e-15
-3.16784e-08
-8.85883e-09
-1.204e-15
-3.24347e-08
-6.92194e-09
-1.11199e-15
-3.30149e-08
-4.75127e-09
-1.01587e-15
-3.34001e-08
-2.34797e-09
-9.09395e-16
-3.35706e-08
2.80654e-10
-7.98891e-16
-3.35091e-08
3.12403e-09
-6.82141e-16
-3.31986e-08
6.16502e-09
-5.67241e-16
-3.26249e-08
9.3765e-09
-4.5281e-16
-3.17765e-08
1.27213e-08
-3.39032e-16
-3.06441e-08
1.6163e-08
-2.13994e-16
-2.92249e-08
1.96303e-08
4.45899e-18
-2.75198e-08
2.30598e-08
-2.37037e-16
-2.55377e-08
2.6353e-08
-4.68202e-16
-2.32954e-08
2.94008e-08
-3.19057e-16
-2.08183e-08
3.20768e-08
-2.22776e-16
-1.81452e-08
3.42053e-08
-6.22891e-17
-1.53274e-08
3.56047e-08
-3.19698e-16
-1.24317e-08
3.60596e-08
-1.73179e-16
-9.54353e-09
3.53179e-08
-7.26353e-17
-6.76919e-09
3.31118e-08
2.68843e-17
-4.23951e-09
2.91828e-08
1.80235e-16
-2.11765e-09
2.32874e-08
-5.58057e-18
-6.11205e-10
1.53216e-08
4.80523e-17
5.35566e-09
5.76217e-17
-4.2119e-09
-1.05309e-08
-3.01959e-15
-5.23509e-09
-1.15532e-08
-2.56739e-15
-6.33573e-09
-1.2436e-08
-3.07923e-15
-7.49974e-09
-1.31786e-08
-2.81423e-15
-8.71748e-09
-1.37911e-08
-2.82677e-15
-9.98234e-09
-1.42932e-08
-2.75318e-15
-1.12901e-08
-1.47033e-08
-2.57941e-15
-1.2637e-08
-1.50318e-08
-2.53479e-15
-1.40194e-08
-1.52868e-08
-2.4162e-15
-1.54324e-08
-1.54664e-08
-2.20471e-15
-1.68695e-08
-1.55665e-08
-2.09279e-15
-1.83229e-08
-1.55776e-08
-1.95062e-15
-1.9783e-08
-1.54869e-08
-1.8705e-15
-2.12387e-08
-1.52841e-08
-1.7958e-15
-2.26775e-08
-1.49526e-08
-1.75187e-15
-2.40853e-08
-1.44801e-08
-2.009e-15
-2.54476e-08
-1.38531e-08
-1.75482e-15
-2.67483e-08
-1.30581e-08
-1.57493e-15
-2.79703e-08
-1.20833e-08
-1.44982e-15
-2.90963e-08
-1.0918e-08
-1.33858e-15
-3.01076e-08
-9.55312e-09
-1.25085e-15
-3.09854e-08
-7.98087e-09
-1.1636e-15
-3.17109e-08
-6.19646e-09
-1.07529e-15
-3.22646e-08
-4.19745e-09
-9.82951e-16
-3.26279e-08
-1.98489e-09
-8.80838e-16
-3.27818e-08
4.34704e-10
-7.74575e-16
-3.27093e-08
3.05148e-09
-6.62031e-16
-3.2394e-08
5.84977e-09
-5.51074e-16
-3.18219e-08
8.80448e-09
-4.40242e-16
-3.09821e-08
1.18813e-08
-3.29799e-16
-2.98654e-08
1.50465e-08
-2.08393e-16
-2.84695e-08
1.82342e-08
6.79893e-18
-2.67952e-08
2.13856e-08
-2.34538e-16
-2.48517e-08
2.44095e-08
-4.60007e-16
-2.26557e-08
2.72047e-08
-3.13212e-16
-2.02324e-08
2.96536e-08
-2.18167e-16
-1.76204e-08
3.15932e-08
-6.15802e-17
-1.48703e-08
3.28546e-08
-3.12878e-16
-1.20481e-08
3.32374e-08
-1.70323e-16
-9.23767e-09
3.25075e-08
-7.21301e-17
-6.54316e-09
3.04173e-08
2.5192e-17
-4.09171e-09
2.67313e-08
1.75105e-16
-2.04058e-09
2.12362e-08
-4.08407e-18
-5.88002e-10
1.38691e-08
4.83539e-17
4.76765e-09
5.84324e-17
-4.4068e-09
-9.64535e-09
-2.96348e-15
-5.38603e-09
-1.05739e-08
-2.55453e-15
-6.44402e-09
-1.1378e-08
-2.92005e-15
-7.56686e-09
-1.20557e-08
-2.61487e-15
-8.74444e-09
-1.26135e-08
-2.59318e-15
-9.96949e-09
-1.30682e-08
-2.49423e-15
-1.1237e-08
-1.34358e-08
-2.37069e-15
-1.25427e-08
-1.37261e-08
-2.37062e-15
-1.38825e-08
-1.3947e-08
-2.28103e-15
-1.52514e-08
-1.40976e-08
-2.09407e-15
-1.66429e-08
-1.41749e-08
-1.99044e-15
-1.80494e-08
-1.41711e-08
-1.85492e-15
-1.94616e-08
-1.40748e-08
-1.78561e-15
-2.08688e-08
-1.3877e-08
-1.7237e-15
-2.22588e-08
-1.35626e-08
-1.68568e-15
-2.36181e-08
-1.31207e-08
-1.96961e-15
-2.49325e-08
-1.25386e-08
-1.71823e-15
-2.61865e-08
-1.18041e-08
-1.53327e-15
-2.73636e-08
-1.09062e-08
-1.40413e-15
-2.84467e-08
-9.83491e-09
-1.29173e-15
-2.9418e-08
-8.58181e-09
-1.20523e-15
-3.02591e-08
-7.13961e-09
-1.12058e-15
-3.09518e-08
-5.5038e-09
-1.03596e-15
-3.14771e-08
-3.67204e-09
-9.4751e-16
-3.1817e-08
-1.64522e-09
-8.49955e-16
-3.19529e-08
5.70827e-10
-7.48254e-16
-3.18686e-08
2.96703e-09
-6.40298e-16
-3.15478e-08
5.52912e-09
-5.33633e-16
-3.09773e-08
8.23399e-09