/*--------------------------------*- C++ -*----------------------------------*\
| =========                 |                                                 |
| \\      /  F ield         | OpenFOAM: The Open Source CFD Toolbox           |
|  \\    /   O peration     | Version:  v2012                                 |
|   \\  /    A nd           | Website:  www.openfoam.com                      |
|    \\/     M anipulation  |                                                 |
\*---------------------------------------------------------------------------*/
FoamFile
{
    version     2.0;
    format      ascii;
    class       volScalarField;
    location    "0.75";
    object      alpha.water;
}
// * * * * * * * * * * * * * * * * * * * * * * * * * * * * * * * * * * * * * //

dimensions      [0 0 0 0 0 0 0];


internalField   nonuniform List<scalar> 
2664
(
2.82801e-17
2.31918e-17
1.87565e-17
1.49301e-17
1.16808e-17
9.00438e-18
6.87429e-18
5.20309e-18
3.88602e-18
2.9775e-18
2.43352e-18
1.87832e-18
1.00288e-18
1.9695e-19
1.29608e-21
2.29533e-30
2.34278e-30
6.8633e-29
3.6838e-32
1.48623e-42
5.02845e-39
6.42559e-42
9.19623e-53
9.19622e-53
6.89516e-52
-9.64975e-74
3.36824e-59
2.78317e-63
-3.93598e-101
2.24464e-71
0
-2.59394e-75
-3.18521e-77
-2.88538e-79
-1.49226e-81
-2.37203e-84
-7.29965e-88
3.31315e-17
2.69186e-17
2.15726e-17
1.70314e-17
1.32149e-17
1.00797e-17
7.5967e-18
5.6817e-18
4.19562e-18
3.14333e-18
2.53046e-18
2.00508e-18
1.1971e-18
3.10328e-19
9.73426e-21
2.29533e-30
2.31224e-30
2.20464e-28
1.73698e-31
1.48631e-42
6.29865e-38
2.33929e-41
9.19623e-53
9.19623e-53
3.85251e-51
-2.95171e-83
1.95457e-58
1.81843e-62
-2.36758e-107
2.04892e-70
1.41291e-74
-1.91592e-137
9.78993e-84
-2.38884e-83
-3.43979e-85
-1.24192e-87
-6.46414e-91
3.88449e-17
3.1254e-17
2.47917e-17
1.93843e-17
1.49083e-17
1.12589e-17
8.37884e-18
6.18529e-18
4.51547e-18
3.31761e-18
2.62161e-18
2.1073e-18
1.36379e-18
4.36304e-19
2.5765e-20
2.29533e-30
2.34614e-30
4.01401e-28
7.3295e-31
1.48638e-42
4.03299e-37
1.28939e-40
9.19624e-53
9.19623e-53
1.74748e-50
2.93324e-56
8.54825e-58
1.43686e-65
1.43687e-65
1.42982e-69
8.16732e-78
8.16733e-78
4.64591e-82
1.16654e-87
-9.03592e-89
-7.92078e-91
-5.69807e-94
4.55539e-17
3.62833e-17
2.84712e-17
2.20178e-17
1.67645e-17
1.25357e-17
9.21654e-18
6.71123e-18
4.84012e-18
3.49532e-18
2.70804e-18
2.19059e-18
1.50269e-18
5.64743e-19
5.02925e-20
2.29533e-30
2.34483e-30
2.98519e-30
3.11246e-30
1.48645e-42
1.52513e-36
5.88028e-40
9.19624e-53
9.19624e-53
6.31883e-50
3.64204e-57
3.6421e-57
3.48681e-61
6.41932e-69
6.41932e-69
6.2681e-73
1.96631e-81
1.9663e-81
3.75962e-86
2.85181e-91
-5.45529e-94
-5.00747e-97
5.34319e-17
4.20914e-17
3.26589e-17
2.49591e-17
1.8789e-17
1.39018e-17
1.01009e-17
7.25403e-18
5.16386e-18
3.67016e-18
2.78861e-18
2.25843e-18
1.61606e-18
6.87529e-19
8.2561e-20
2.29533e-30
2.32011e-30
2.6609e-30
9.43955e-30
3.78615e-33
5.09452e-40
5.09434e-40
7.63598e-43
9.19624e-53
1.96505e-49
1.0168e-53
2.51297e-64
2.51297e-64
2.51218e-64
3.20897e-68
2.25077e-76
2.25077e-76
7.1052e-81
1.09062e-85
8.61973e-91
2.43542e-96
-3.025e-100
6.27058e-17
4.87818e-17
3.73929e-17
2.82242e-17
2.0984e-17
1.53471e-17
1.10192e-17
7.80473e-18
5.47991e-18
3.83516e-18
2.86033e-18
2.31243e-18
1.70695e-18
7.99238e-19
1.20366e-19
1.50897e-22
2.30796e-30
2.51027e-30
2.2044e-29
1.22191e-32
5.0948e-40
3.3898e-39
2.13214e-42
9.19624e-53
4.96496e-49
3.40998e-53
2.51297e-64
2.51297e-64
8.55645e-64
1.33153e-67
5.52887e-72
6.55916e-76
1.70874e-80
2.50664e-85
1.89725e-90
5.93595e-96
3.89533e-102
7.35989e-17
5.6483e-17
4.27115e-17
3.18147e-17
2.33422e-17
1.68581e-17
1.19552e-17
8.35087e-18
5.77976e-18
3.98301e-18
2.91893e-18
2.353e-18
1.77838e-18
8.9699e-19
1.59621e-19
1.71094e-21
2.30796e-30
2.43176e-30
4.31174e-29
2.81699e-32
5.09503e-40
9.49739e-39
5.05006e-42
9.19625e-53
1.09592e-48
1.25409e-52
2.51297e-64
2.17641e-60
2.4455e-63
2.08369e-67
3.18307e-71
1.35147e-75
3.27017e-80
4.57537e-85
3.29153e-90
9.61121e-96
6.65164e-102
8.62515e-17
6.53073e-17
4.86563e-17
3.57208e-17
2.58421e-17
1.84131e-17
1.28886e-17
8.87664e-18
6.05281e-18
4.1065e-18
2.9603e-18
2.38035e-18
1.83323e-18
9.79915e-19
1.98304e-19
3.88447e-21
2.30796e-30
2.38889e-30
7.28336e-29
5.38339e-32
5.09528e-40
2.0489e-38
1.02768e-41
9.19625e-53
2.14281e-48
3.67208e-52
2.51297e-64
2.40866e-59
7.95053e-63
8.20228e-67
5.87254e-71
2.18784e-75
5.01559e-80
6.65447e-85
4.49061e-90
1.2052e-95
8.45037e-102
1.00734e-16
7.52937e-17
5.52495e-17
3.99237e-17
2.8448e-17
1.99805e-17
1.37936e-17
9.36289e-18
6.28673e-18
4.1991e-18
2.98298e-18
2.3954e-18
1.87423e-18
1.0485e-18
2.34201e-19
6.47442e-21
2.30796e-30
2.36218e-30
1.0873e-28
8.91841e-32
5.09552e-40
3.70475e-38
1.84652e-41
9.19625e-53
3.78438e-48
9.07126e-52
2.51297e-64
8.50568e-59
1.63985e-62
1.4802e-66
8.14523e-71
2.86478e-75
6.19961e-80
7.71661e-85
4.79593e-90
1.16226e-95
8.7087e-102
1.17146e-16
8.64019e-17
6.24577e-17
4.43856e-17
3.1111e-17
2.15167e-17
1.46377e-17
9.7873e-18
6.46908e-18
4.25674e-18
2.99072e-18
2.40042e-18
1.90329e-18
1.10339e-18
2.65749e-19
9.22057e-21
2.30796e-30
2.3449e-30
1.4654e-28
1.30773e-31
5.09577e-40
5.79829e-38
2.97931e-41
9.19626e-53
6.17681e-48
1.95105e-51
6.11665e-56
1.69755e-58
2.30763e-62
1.80503e-66
9.25056e-71
3.05471e-75
6.1901e-80
7.13244e-85
4.00921e-90
8.56254e-96
6.607e-102
1.35649e-16
9.85603e-17
7.0177e-17
4.90309e-17
3.37651e-17
2.29665e-17
1.53819e-17
1.01261e-17
6.59032e-18
4.28204e-18
2.99212e-18
2.40081e-18
1.92063e-18
1.14298e-18
2.90853e-19
1.179e-20
2.30796e-30
2.33505e-30
1.81052e-28
1.72534e-31
5.09602e-40
8.0357e-38
4.32099e-41
9.19626e-53
9.48532e-48
3.8061e-51
8.77669e-55
2.31288e-58
2.51479e-62
1.80368e-66
8.65921e-71
2.67322e-75
5.01608e-80
5.25381e-85
2.60767e-90
4.74974e-96
3.3984e-102
1.56347e-16
1.11682e-16
7.82461e-17
5.37314e-17
3.63191e-17
2.42632e-17
1.59839e-17
1.03589e-17
6.6502e-18
4.28909e-18
2.97929e-18
2.39462e-18
1.92642e-18
1.16351e-18
3.05435e-19
1.36079e-20
2.30796e-30
2.33483e-30
2.04257e-28
2.04237e-31
5.09626e-40
9.95356e-38
5.7491e-41
9.19627e-53
1.42531e-47
6.83135e-51
1.5104e-54
2.29417e-58
2.25585e-62
1.51101e-66
6.75457e-71
1.92672e-75
3.29299e-80
3.06258e-85
1.30735e-90
1.94057e-96
1.39063e-102
1.79135e-16
1.256e-16
8.64519e-17
5.83037e-17
3.86497e-17
2.53317e-17
1.64054e-17
1.04778e-17
6.66779e-18
4.26416e-18
2.94808e-18
2.37825e-18
1.9246e-18
1.16806e-18
3.09119e-19
1.43819e-20
2.30796e-30
2.34515e-30
2.12513e-28
2.16092e-31
5.09651e-40
1.11587e-37
7.09546e-41
9.19627e-53
2.18523e-47
7.43246e-51
1.41576e-54
1.88075e-58
1.71054e-62
1.06375e-66
4.39434e-71
1.1443e-75
1.74815e-80
1.40634e-85
4.96629e-91
5.60404e-97
4.83725e-103
2.03653e-16
1.39965e-16
9.44986e-17
6.25111e-17
4.06082e-17
2.60998e-17
1.66284e-17
1.05101e-17
6.64438e-18
4.19474e-18
2.89379e-18
2.3517e-18
1.91234e-18
1.16102e-18
3.04775e-19
1.42378e-20
2.30797e-30
2.3371e-30
2.0398e-28
2.07981e-31
5.09676e-40
1.15885e-37
8.28535e-41
1.48511e-44
2.2889e-47
6.07332e-51
1.05684e-54
1.28909e-58
1.09098e-62
6.2815e-67
2.37469e-71
5.55783e-76
7.4117e-81
4.99646e-86
1.38131e-91
1.0819e-97
1.52681e-103
2.29305e-16
1.54198e-16
1.01966e-16
6.60743e-17
4.20453e-17
2.65263e-17
1.66961e-17
1.05254e-17
6.53495e-18
4.06259e-18
2.81737e-18
2.31722e-18
1.88981e-18
1.13503e-18
2.88496e-19
1.2918e-20
2.30797e-30
2.33919e-30
1.76603e-28
1.79602e-31
5.097e-40
1.1288e-37
9.36832e-41
4.47476e-44
1.79734e-47
4.07199e-51
6.49274e-55
7.38105e-59
5.79248e-63
3.06349e-67
1.04746e-71
2.16333e-76
2.4485e-81
1.32391e-86
2.64016e-92
1.35386e-98
4.2662e-104
2.55157e-16
1.675e-16
1.08314e-16
6.8704e-17
4.28658e-17
2.66744e-17
1.67315e-17
1.03376e-17
6.29856e-18
3.87627e-18
2.72733e-18
2.27692e-18
1.85617e-18
1.08832e-18
2.60426e-19
1.06479e-20
2.30797e-30
2.34136e-30
1.35351e-28
1.39196e-31
5.09725e-40
1.0652e-37
8.98504e-41
3.66486e-44
1.06835e-47
2.21163e-51
3.28205e-55
3.46273e-59
2.50329e-63
1.20319e-67
3.65821e-72
6.49773e-77
6.02551e-82
2.43655e-87
3.18157e-93
1.3386e-99
9.74724e-105
2.79732e-16
1.78885e-16
1.12967e-16
7.01978e-17
4.31691e-17
2.67483e-17
1.64459e-17
9.97164e-18
5.96524e-18
3.64937e-18
2.6299e-18
2.23173e-18
1.80952e-18
1.01865e-18
2.21948e-19
7.85069e-21
2.30797e-30
2.34315e-30
8.98751e-29
9.67057e-32
5.09749e-40
9.02341e-38
5.1812e-41
1.8953e-44
5.0482e-48
9.69347e-52
1.33594e-55
1.29962e-59
8.55799e-64
3.67841e-68
9.73113e-73
1.43711e-77
1.03159e-82
2.83651e-88
2.43398e-94
1.7525e-100
1.54295e-105
3.00887e-16
1.87224e-16
1.15529e-16
7.07376e-17
4.33142e-17
2.63169e-17
1.58548e-17
9.42183e-18
5.53325e-18
3.39427e-18
2.53247e-18
2.18234e-18
1.74652e-18
9.23674e-19
1.76039e-19
5.07941e-21
2.30797e-30
2.30797e-30
5.08151e-29
6.05787e-32
5.38504e-35
4.92767e-38
2.29467e-41
7.68833e-45
1.89254e-48
3.37415e-52
4.28802e-56
3.80412e-60
2.24867e-64
8.46621e-69
1.88742e-73
2.2152e-78
1.12716e-83
1.95429e-89
1.6487e-95
2.65971e-101
8.81162e-107
3.15937e-16
1.91636e-16
1.16407e-16
7.09982e-17
4.26445e-17
2.53405e-17
1.49375e-17
8.69265e-18
5.02316e-18
3.1323e-18
2.44084e-18
2.1279e-18
1.66174e-18
8.02278e-19
1.27386e-19
2.8184e-21
2.30797e-30
4.35056e-27
2.36243e-29
2.89507e-32
3.21156e-35
1.85087e-38
7.85475e-42
2.42742e-45
5.53984e-49
9.09995e-53
1.05483e-56
8.41792e-61
4.3785e-65
1.4056e-69
2.53432e-74
2.19725e-79
7.1685e-85
9.32484e-91
1.50343e-96
3.73943e-102
1.92937e-109
3.22992e-16
1.92985e-16
1.16892e-16
6.98886e-17
4.09517e-17
2.37682e-17
1.37055e-17
7.81274e-18
4.46749e-18
2.88565e-18
2.35764e-18
2.06568e-18
1.54765e-18
6.56775e-19
8.19547e-20
1.31431e-21
2.30797e-30
5.17892e-27
1.20327e-29
1.4061e-32
1.00907e-35
5.27566e-39
2.0562e-42
5.87648e-46
1.23266e-49
1.84408e-53
1.92189e-57
1.35229e-61
6.03663e-66
1.58937e-70
2.18537e-75
1.27156e-80
2.77638e-86
4.54987e-92
1.43212e-97
4.05987e-103
-8.79451e-107
3.24574e-16
1.93887e-16
1.14999e-16
6.68469e-17
3.81534e-17
2.16389e-17
1.22163e-17
6.82941e-18
3.90804e-18
2.67288e-18
2.28199e-18
1.99003e-18
1.39494e-18
4.95114e-19
4.53518e-20
5.11734e-22
6.4591e-25
2.86961e-27
4.13412e-30
3.65663e-33
2.37103e-36
1.13433e-39
4.06973e-43
1.06501e-46
2.02851e-50
2.72256e-54
2.50184e-58
1.51533e-62
5.60942e-67
1.15215e-71
1.10966e-76
4.15444e-82
8.33907e-88
2.55886e-93
1.08673e-98
1.60063e-105
-3.96509e-107
3.26413e-16
1.90358e-16
1.09417e-16
6.17502e-17
3.43602e-17
1.90779e-17
1.05535e-17
5.80159e-18
3.39087e-18
2.50373e-18
2.20997e-18
1.89072e-18
1.19494e-18
3.32535e-19
2.07253e-20
1.71022e-22
4.52261e-25
8.1575e-28
8.78193e-31
7.01115e-34
4.14422e-37
1.81184e-40
5.92218e-44
1.40083e-47
2.38453e-51
2.81594e-55
2.22795e-59
1.1266e-63
3.30219e-68
4.91002e-73
3.0753e-78
8.94104e-84
2.68238e-89
1.29987e-94
5.58309e-100
1.0584e-106
-7.82666e-108
3.19221e-16
1.79544e-16
1.00026e-16
5.48744e-17
2.98463e-17
1.6251e-17
8.8093e-18
4.79807e-18
2.9587e-18
2.37634e-18
2.13489e-18
1.7513e-18
9.45838e-19
1.90139e-19
7.50094e-21
4.78781e-23
1.04634e-25
1.40421e-28
1.36211e-31
9.8525e-35
5.28206e-38
2.0859e-41
6.12512e-45
1.28784e-48
1.92067e-52
1.94829e-56
1.289e-60
5.20981e-65
1.13507e-69
1.12602e-74
5.01971e-80
1.68863e-85
8.19264e-91
5.02131e-96
2.2488e-101
4.00807e-108
-4.43823e-109
2.96897e-16
1.61714e-16
8.75324e-17
4.68083e-17
2.49491e-17
1.33241e-17
7.08048e-18
3.89748e-18
2.63839e-18
2.27876e-18
2.0452e-18
1.54932e-18
6.62848e-19
8.72208e-20
2.01889e-21
8.41239e-24
1.4625e-26
1.74481e-29
1.51746e-32
9.85984e-36
4.73249e-39
1.66359e-42
4.30919e-46
7.88221e-50
1.00447e-53
8.50062e-58
4.51691e-62
1.38064e-66
2.06967e-71
1.3948e-76
5.89492e-82
2.98438e-87
1.96944e-92
1.3789e-97
6.3946e-103
1.07766e-109
-7.4622e-111
2.61977e-16
1.38805e-16
7.31603e-17
3.82172e-17
1.99822e-17
1.04508e-17
5.47702e-18
3.17813e-18
2.42803e-18
2.19436e-18
1.91898e-18
1.26376e-18
3.86588e-19
2.93677e-20
3.5495e-22
9.81315e-25
1.4447e-27
1.51838e-30
1.17105e-33
6.73238e-37
2.83875e-40
8.7116e-44
1.94398e-47
3.01379e-51
3.18577e-55
2.16404e-59
8.7635e-64
1.87809e-68
1.87376e-73
1.06976e-78
6.05275e-84
4.1671e-89
3.34543e-94
2.53201e-99
1.33697e-104
1.13277e-110
-5.74163e-113
2.1919e-16
1.13177e-16
5.81251e-17
2.96974e-17
1.52195e-17
7.78918e-18
4.1271e-18
2.68798e-18
2.29663e-18
2.10394e-18
1.71901e-18
8.9643e-19
1.70239e-19
6.41719e-21
3.89529e-23
7.73049e-26
9.6738e-29
8.85864e-32
5.9532e-35
2.96403e-38
1.07385e-41
2.80376e-45
5.24195e-49
6.67261e-53
5.623e-57
2.90682e-61
8.32949e-66
1.18141e-70
9.3348e-76
6.27819e-81
4.68541e-86
4.06107e-91
3.71753e-96
2.95562e-101
1.66797e-106
4.54874e-112
-2.71687e-115
1.72871e-16
8.70061e-17
4.35504e-17
2.17777e-17
1.09126e-17
5.51814e-18
3.14869e-18
2.40988e-18
2.20187e-18
1.97615e-18
1.39729e-18
5.00314e-19
4.92805e-20
7.99281e-22
2.55325e-24
3.91072e-27
4.14536e-30
3.24324e-33
1.8542e-36
7.78426e-40
2.35936e-43
5.07745e-47
7.67683e-51
7.68909e-55
4.88502e-59
1.78372e-63
3.34573e-68
3.54695e-73
2.95419e-78
2.56441e-83
2.40656e-88
2.5077e-93
2.50248e-98
2.0632e-103
1.20907e-108
3.28971e-114
-6.65422e-118
1.27401e-16
6.24295e-17
3.04578e-17
1.48837e-17
7.30187e-18
3.82244e-18
2.57887e-18
2.26633e-18
2.105e-18
1.74458e-18
9.33971e-19
1.87958e-19
7.683e-21
4.88322e-23
9.56468e-26
1.17338e-28
1.0338e-31
6.72054e-35
3.16672e-38
1.08619e-41
2.65751e-45
4.52718e-49
5.27007e-53
3.89333e-57
1.71046e-61
3.9706e-66
5.21492e-71
5.53902e-76
6.02032e-81
6.33905e-86
7.35688e-91
8.79189e-96
9.32282e-101
7.96221e-106
4.84462e-111
1.26042e-116
-3.15411e-121
8.66354e-17
4.12067e-17
1.95724e-17
9.33224e-18
4.62835e-18
2.80737e-18
2.31883e-18
2.16913e-18
1.94204e-18
1.31747e-18
4.31427e-19
3.69171e-20
4.94997e-22
1.3327e-24
1.84609e-27
1.80282e-30
1.27508e-33
6.60783e-37
2.45113e-40
6.54773e-44
1.21966e-47
1.52857e-51
1.24029e-55
5.80846e-60
1.38165e-64
1.69457e-69
2.2402e-74
3.8828e-79
5.18778e-84
7.18231e-89
1.05005e-93
1.40602e-98
1.58431e-103
1.42511e-108
9.24362e-114
2.35651e-119
-3.05792e-125
5.3073e-17
2.44466e-17
1.13143e-17
5.38912e-18
3.03021e-18
2.3602e-18
2.19974e-18
2.04169e-18
1.57804e-18
7.01187e-19
1.01125e-19
2.54303e-21
9.73043e-24
1.43404e-26
1.46446e-29
1.08127e-32
5.71682e-36
2.16671e-39
5.7503e-43
1.04676e-46
1.2074e-50
7.55405e-55
9.56056e-60
-4.28764e-82
-1.20987e-135
-2.0136e-113
-9.01358e-124
-8.04234e-121
0
1.26883e-92
3.28285e-97
5.48671e-102
7.31145e-107
7.87221e-112
6.12297e-117
1.71293e-122
-3.79726e-130
2.84837e-17
1.26897e-17
5.79955e-18
3.13028e-18
2.3723e-18
2.20745e-18
2.08433e-18
1.71756e-18
9.01643e-19
1.77884e-19
6.75425e-21
3.2544e-23
4.02256e-26
3.54879e-29
2.19394e-32
8.51783e-36
1.49785e-39
-3.11621e-117
-6.83588e-115
0
-3.763e-79
-1.85728e-103
-2.85992e-81
-5.78209e-91
6.69633e-114
-4.84472e-90
0
2.89611e-209
-1.38864e-160
0
-1.04265e-136
-9.00234e-188
-6.7414e-125
0
-4.68227e-135
1.90302e-126
-3.28034e-129
1.24227e-17
5.5218e-18
3.00302e-18
2.33289e-18
2.19498e-18
2.0894e-18
1.75126e-18
9.69294e-19
2.12193e-19
8.98858e-21
3.52325e-23
-1.29269e-51
-6.36193e-53
-1.22227e-114
-1.28684e-81
-1.21764e-105
-4.27799e-61
-3.29538e-120
0
-1.96836e-77
-1.90127e-104
-4.82187e-86
-1.20773e-127
-8.42795e-89
-4.7907e-102
-6.55504e-92
1.47182e-319
-2.61958e-121
-9.64554e-108
-5.09095e-155
-1.7478e-143
-7.33683e-138
-1.06765e-148
0
0
-9.59789e-129
-6.1849e-132
4.48022e-18
2.66162e-18
2.2484e-18
2.16569e-18
2.05286e-18
1.66033e-18
8.52039e-19
1.5608e-19
4.49854e-21
-7.84915e-48
-5.55243e-51
-6.94736e-85
-1.50505e-77
-1.39712e-53
-3.6033e-79
-8.28392e-61
-2.01647e-64
-4.41837e-111
-9.42432e-77
-4.89677e-111
-6.64701e-85
-4.24865e-89
-1.42704e-93
-1.02092e-111
-2.52578e-106
-3.60625e-95
-1.69088e-99
-1.26158e-130
-5.82089e-114
2.37072e-104
5.74489e-109
6.10561e-114
-1.45443e-143
8.05861e-170
7.67976e-320
-1.25311e-130
-4.66234e-135
2.26143e-18
2.16417e-18
2.11023e-18
1.91061e-18
1.34506e-18
4.68006e-19
3.76706e-20
-1.74461e-46
-5.54253e-48
-1.14976e-46
-4.00526e-53
-4.88636e-70
-1.62834e-46
-6.00927e-51
-2.89464e-87
-3.18527e-87
-1.44841e-103
-3.85763e-95
-2.15607e-105
-1.11208e-104
-1.66348e-120
-4.13398e-104
1.05493e-95
2.08534e-95
-3.77358e-161
-4.44579e-123
-1.59487e-106
0
-1.76768e-138
-3.30505e-119
1.37411e-176
7.33189e-150
3.54179e-182
1.03206e-156
1.0776e-135
-7.853e-134
-1.50993e-138
2.07993e-18
1.94519e-18
1.35333e-18
4.25305e-19
2.83214e-20
-1.59936e-41
-5.33685e-47
-3.66828e-115
-1.43974e-74
0
1.17242e-51
2.35043e-51
1.15556e-51
7.77031e-55
9.36029e-53
2.14749e-56
3.66943e-60
4.70703e-64
4.44771e-68
3.22539e-72
1.91031e-76
7.54812e-81
2.15321e-85
4.6427e-90
8.63487e-95
1.48522e-99
-1.36068e-149
1.34832e-169
4.263e-319
-2.16097e-178
-2.59989e-160
6.2015e-140
1.28402e-139
2.17595e-141
1.0152e-136
-1.42084e-137
-1.92985e-142
3.49392e-19
5.20296e-20
3.91315e-21
4.34351e-39
4.34349e-39
4.34354e-39
8.74367e-39
1.74518e-38
1.74517e-38
1.70373e-41
9.87569e-45
4.86766e-48
2.32115e-51
7.04134e-55
2.36119e-58
4.83945e-62
7.36311e-66
8.60813e-70
7.44858e-74
4.87531e-78
2.31575e-82
8.1426e-87
2.13695e-91
4.74415e-96
1.01338e-100
2.6728e-105
7.22288e-110
3.1221e-114
9.9536e-119
1.9405e-123
3.66665e-128
3.77114e-133
2.50124e-138
4.35116e-141
5.25735e-141
-5.63816e-142
-5.40225e-147
2.82801e-17
2.31918e-17
1.87565e-17
1.49301e-17
1.16808e-17
9.00438e-18
6.87429e-18
5.20309e-18
3.88602e-18
2.97749e-18
2.43353e-18
1.87841e-18
1.00305e-18
1.97041e-19
1.30055e-21
2.29533e-30
2.34276e-30
6.87116e-29
3.68918e-32
1.48631e-42
5.04438e-39
6.43316e-42
9.19623e-53
9.19655e-53
6.90707e-52
-8.23883e-81
3.37199e-59
2.78847e-63
0
2.16526e-71
-2.49673e-89
-1.19189e-75
-1.57165e-77
-1.46292e-79
-7.64046e-82
-1.22328e-84
-3.78686e-88
3.31315e-17
2.69186e-17
2.15726e-17
1.70314e-17
1.32149e-17
1.00797e-17
7.5967e-18
5.6817e-18
4.19562e-18
3.14332e-18
2.53046e-18
2.00515e-18
1.19726e-18
3.10446e-19
9.74591e-21
2.29533e-30
2.31222e-30
2.20644e-28
1.73972e-31
1.48638e-42
6.31148e-38
2.34102e-41
9.19624e-53
9.19623e-53
3.85893e-51
2.93323e-83
1.95685e-58
1.82159e-62
-1.32697e-103
2.05282e-70
1.42631e-74
-1.71969e-97
1.98105e-83
-1.21398e-83
-1.77794e-85
-6.45783e-88
-3.37489e-91
3.88449e-17
3.1254e-17
2.47917e-17
1.93843e-17
1.49083e-17
1.12589e-17
8.37884e-18
6.18529e-18
4.51547e-18
3.3176e-18
2.62161e-18
2.10735e-18
1.36394e-18
4.36443e-19
2.57873e-20
2.29533e-30
2.35211e-30
4.01401e-28
7.34173e-31
1.48645e-42
4.03936e-37
1.29965e-40
9.19624e-53
9.19624e-53
1.75014e-50
2.94273e-56
8.55684e-58
1.43686e-65
1.43851e-65
1.56508e-69
8.16732e-78
8.18512e-78
4.69262e-82
1.66775e-87
-4.49653e-89
-4.13855e-91
-2.98861e-94
4.55539e-17
3.62833e-17
2.84712e-17
2.20178e-17
1.67645e-17
1.25357e-17
9.21654e-18
6.71123e-18
4.84013e-18
3.49531e-18
2.70803e-18
2.19063e-18
1.50282e-18
5.64896e-19
5.03278e-20
2.29533e-30
2.34464e-30
2.97654e-30
3.11784e-30
1.48652e-42
1.52711e-36
5.88863e-40
9.19624e-53
9.19624e-53
6.32903e-50
3.64204e-57
3.64654e-57
4.01821e-61
6.41933e-69
6.43606e-69
6.32737e-73
1.96631e-81
1.97137e-81
3.76531e-86
2.93263e-91
-2.62639e-94
-2.62715e-97
5.34319e-17
4.20914e-17
3.26589e-17
2.49591e-17
1.8789e-17
1.39018e-17
1.01009e-17
7.25402e-18
5.16386e-18
3.67016e-18
2.7886e-18
2.25845e-18
1.61618e-18
6.87686e-19
8.26102e-20
2.29533e-30
2.30796e-30
2.6608e-30
9.4518e-30
3.79817e-33
5.0948e-40
5.13881e-40
8.00405e-43
9.19624e-53
1.96804e-49
1.01834e-53
2.51297e-64
2.51297e-64
2.51531e-64
3.22782e-68
2.25078e-76
2.25503e-76
7.11636e-81
1.09227e-85
8.63278e-91
2.60721e-96
-1.11083e-100
6.27058e-17
4.87818e-17
3.73929e-17
2.82242e-17
2.0984e-17
1.53471e-17
1.10192e-17
7.80473e-18
5.47991e-18
3.83516e-18
2.86032e-18
2.31244e-18
1.70705e-18
7.99394e-19
1.20426e-19
1.52647e-22
2.30796e-30
2.51026e-30
2.20698e-29
1.22359e-32
5.09503e-40
3.3956e-39
2.13746e-42
9.19625e-53
4.97302e-49
3.45202e-53
2.51297e-64
2.51297e-64
8.56164e-64
1.33206e-67
5.54731e-72
6.56885e-76
1.71135e-80
2.51049e-85
1.90022e-90
5.94522e-96
4.0414e-102
7.35989e-17
5.6483e-17
4.27115e-17
3.18147e-17
2.33422e-17
1.68581e-17
1.19552e-17
8.35086e-18
5.77977e-18
3.98301e-18
2.91892e-18
2.35301e-18
1.77846e-18
8.97136e-19
1.5969e-19
1.71408e-21
2.30796e-30
2.43175e-30
4.31631e-29
2.82077e-32
5.09528e-40
9.51228e-39
5.05595e-42
9.19625e-53
1.09751e-48
1.25582e-52
2.51297e-64
2.18274e-60
2.44873e-63
2.087e-67
3.18773e-71
1.35348e-75
3.2751e-80
4.58234e-85
3.29669e-90
9.62684e-96
6.67299e-102
8.62515e-17
6.53073e-17
4.86563e-17
3.57208e-17
2.58421e-17
1.84132e-17
1.28887e-17
8.87663e-18
6.05281e-18
4.1065e-18
2.96029e-18
2.38036e-18
1.8333e-18
9.80049e-19
1.98376e-19
3.88903e-21
2.30796e-30
2.38888e-30
7.29025e-29
5.39023e-32
5.09552e-40
2.05186e-38
1.02976e-41
9.19625e-53
2.14631e-48
3.67924e-52
2.51297e-64
2.41382e-59
7.96183e-63
8.21367e-67
5.88094e-71
2.19102e-75
5.02301e-80
6.66443e-85
4.49751e-90
1.20715e-95
8.47435e-102
1.00734e-16
7.52938e-17
5.52495e-17
3.99237e-17
2.8448e-17
1.99805e-17
1.37936e-17
9.36288e-18
6.28673e-18
4.1991e-18
2.98298e-18
2.3954e-18
1.87428e-18
1.04862e-18
2.34273e-19
6.48011e-21
2.30796e-30
2.36219e-30
1.0882e-28
8.92887e-32
5.09577e-40
3.7096e-38
1.84869e-41
9.19626e-53
3.78932e-48
9.08344e-52
2.51297e-64
8.51709e-59
1.642e-62
1.48217e-66
8.15639e-71
2.86878e-75
6.20844e-80
7.72776e-85
4.8031e-90
1.16408e-95
8.72137e-102
1.17146e-16
8.64019e-17
6.24577e-17
4.43856e-17
3.1111e-17
2.15167e-17
1.46377e-17
9.78729e-18
6.46908e-18
4.25674e-18
2.99072e-18
2.40043e-18
1.90334e-18
1.10348e-18
2.65816e-19
9.22686e-21
2.30796e-30
2.3449e-30
1.46644e-28
1.30908e-31
5.09602e-40
5.80489e-38
2.98238e-41
9.19626e-53
6.18395e-48
1.95338e-51
6.12178e-56
1.69959e-58
2.31041e-62
1.80727e-66
9.26239e-71
3.05871e-75
6.19841e-80
7.14217e-85
4.01489e-90
8.57541e-96
6.61599e-102
1.35649e-16
9.85603e-17
7.0177e-17
4.90309e-17
3.37651e-17
2.29665e-17
1.53819e-17
1.01261e-17
6.59032e-18
4.28204e-18
2.99211e-18
2.40082e-18
1.92066e-18
1.14306e-18
2.9091e-19
1.1796e-20
2.30796e-30
2.33506e-30
1.81158e-28
1.72675e-31
5.09626e-40
8.04312e-38
4.3252e-41
9.19627e-53
9.49502e-48
3.81009e-51
8.78571e-55
2.31534e-58
2.51752e-62
1.80569e-66
8.66928e-71
2.67641e-75
5.02224e-80
5.26041e-85
2.61107e-90
4.75638e-96
3.40259e-102
1.56347e-16
1.11682e-16
7.82461e-17
5.37314e-17
3.63191e-17
2.42632e-17
1.59839e-17
1.03589e-17
6.6502e-18
4.28909e-18
2.97929e-18
2.39463e-18
1.92644e-18
1.16356e-18
3.05476e-19
1.36126e-20
2.30796e-30
2.33484e-30
2.04345e-28
2.04168e-31
5.09651e-40
9.95571e-38
5.75286e-41
9.19627e-53
1.42641e-47
6.83688e-51
1.51173e-54
2.29625e-58
2.25796e-62
1.51247e-66
6.76141e-71
1.92874e-75
3.29655e-80
3.06598e-85
1.30886e-90
1.943e-96
1.39247e-102
1.79135e-16
1.256e-16
8.64519e-17
5.83037e-17
3.86497e-17
2.53317e-17
1.64054e-17
1.04778e-17
6.66779e-18
4.26416e-18
2.94808e-18
2.37826e-18
1.92462e-18
1.1681e-18
3.09149e-19
1.43856e-20
2.30796e-30
2.34755e-30
2.12513e-28
2.16201e-31
5.09676e-40
1.1165e-37
7.09955e-41
9.19627e-53
2.18655e-47
7.43726e-51
1.41674e-54
1.88211e-58
1.71183e-62
1.06458e-66
4.39799e-71
1.14529e-75
1.74972e-80
1.40764e-85
4.97113e-91
5.61007e-97
4.84823e-103
2.03653e-16
1.39965e-16
9.44986e-17
6.25111e-17
4.06082e-17
2.60998e-17
1.66284e-17
1.051e-17
6.64438e-18
4.19474e-18
2.89379e-18
2.3517e-18
1.91235e-18
1.16104e-18
3.04794e-19
1.424e-20
2.30796e-30
2.33711e-30
2.04095e-28
2.07996e-31
5.097e-40
1.15908e-37
8.28817e-41
1.48586e-44
2.28982e-47
6.07607e-51
1.05736e-54
1.28977e-58
1.09158e-62
6.28516e-67
2.37618e-71
5.56147e-76
7.41681e-81
5.00006e-86
1.38236e-91
1.08284e-97
1.53426e-103
2.29305e-16
1.54198e-16
1.01966e-16
6.60743e-17
4.20453e-17
2.65263e-17
1.66961e-17
1.05254e-17
6.53495e-18
4.06259e-18
2.81737e-18
2.31722e-18
1.88981e-18
1.13504e-18
2.88504e-19
1.29189e-20
2.30797e-30
2.3392e-30
1.76625e-28
1.79636e-31
5.09725e-40
1.1291e-37
9.37046e-41
4.47579e-44
1.79778e-47
4.07314e-51
6.49483e-55
7.3836e-59
5.79456e-63
3.06466e-67
1.0479e-71
2.16428e-76
2.44964e-81
1.32456e-86
2.64156e-92
1.35463e-98
4.3031e-104
2.55157e-16
1.675e-16
1.08314e-16
6.8704e-17
4.28658e-17
2.66744e-17
1.67315e-17
1.03376e-17
6.29856e-18
3.87627e-18
2.72733e-18
2.27692e-18
1.85617e-18
1.08832e-18
2.60427e-19
1.0648e-20
2.30797e-30
2.34137e-30
1.35357e-28
1.39206e-31
5.09749e-40
1.0653e-37
8.98596e-41
3.66523e-44
1.06847e-47
2.21194e-51
3.2826e-55
3.46337e-59
2.50377e-63
1.20344e-67
3.65905e-72
6.49934e-77
6.02709e-82
2.43724e-87
3.18251e-93
1.33881e-99
9.96332e-105
2.79732e-16
1.78885e-16
1.12967e-16
7.01978e-17
4.31691e-17
2.67483e-17
1.64459e-17
9.97164e-18
5.96524e-18
3.64937e-18
2.6299e-18
2.23173e-18
1.80952e-18
1.01864e-18
2.21944e-19
7.85044e-21
2.30797e-30
2.34315e-30
8.9873e-29
9.67043e-32
5.09774e-40
9.0234e-38
5.18124e-41
1.89531e-44
5.04821e-48
9.69373e-52
1.336e-55
1.2997e-59
8.55849e-64
3.67864e-68
9.73193e-73
1.43724e-77
1.0317e-82
2.83684e-88
2.4342e-94
1.75192e-100
1.82438e-105
3.00887e-16
1.87224e-16
1.15529e-16
7.07376e-17
4.33142e-17
2.6317e-17
1.58548e-17
9.42183e-18
5.53325e-18
3.39427e-18
2.53247e-18
2.18234e-18
1.74652e-18
9.23664e-19
1.76034e-19
5.0791e-21
2.30797e-30
2.30797e-30
5.08115e-29
6.05743e-32
5.38474e-35
4.92739e-38
2.29455e-41
7.68787e-45
1.89241e-48
3.37398e-52
4.28789e-56
3.80403e-60
2.2486e-64
8.46592e-69
1.88738e-73
2.21516e-78
1.12715e-83
1.95427e-89
1.64835e-95
2.86313e-101
2.60781e-106
3.15937e-16
1.91636e-16
1.16407e-16
7.09982e-17
4.26445e-17
2.53405e-17
1.49375e-17
8.69264e-18
5.02316e-18
3.1323e-18
2.44084e-18
2.1279e-18
1.66174e-18
8.02267e-19
1.27382e-19
2.8182e-21
2.30797e-30
4.35068e-27
2.36221e-29
2.89483e-32
3.21128e-35
1.85071e-38
7.8541e-42
2.42719e-45
5.53923e-49
9.09909e-53
1.05475e-56
8.41727e-61
4.3781e-65
1.40547e-69
2.5341e-74
2.19705e-79
7.16795e-85
9.32361e-91
1.50264e-96
4.11423e-102
2.65243e-107
3.22992e-16
1.92985e-16
1.16892e-16
6.98886e-17
4.09517e-17
2.37682e-17
1.37055e-17
7.81273e-18
4.46749e-18
2.88565e-18
2.35764e-18
2.06568e-18
1.54764e-18
6.56767e-19
8.19521e-20
1.31422e-21
2.30797e-30
5.17892e-27
1.20318e-29
1.40598e-32
1.00898e-35
5.27519e-39
2.05602e-42
5.87587e-46
1.23251e-49
1.84388e-53
1.92171e-57
1.35215e-61
6.03594e-66
1.58918e-70
2.18512e-75
1.27143e-80
2.77606e-86
4.54821e-92
1.43118e-97
4.57125e-103
6.93415e-109
3.24574e-16
1.93887e-16
1.14999e-16
6.68469e-17
3.81534e-17
2.16389e-17
1.22163e-17
6.82941e-18
3.90804e-18
2.67288e-18
2.282e-18
1.99003e-18
1.39494e-18
4.95109e-19
4.53508e-20
5.11708e-22
6.45859e-25
2.86914e-27
4.13385e-30
3.65638e-33
2.37086e-36
1.13425e-39
4.06942e-43
1.06491e-46
2.02829e-50
2.72229e-54
2.50163e-58
1.5152e-62
5.60884e-67
1.15203e-71
1.10954e-76
4.15404e-82
8.33761e-88
2.55728e-93
1.11511e-98
3.78205e-104
5.79613e-110
3.26413e-16
1.90358e-16
1.09417e-16
6.17501e-17
3.43602e-17
1.90779e-17
1.05535e-17
5.80158e-18
3.39087e-18
2.50373e-18
2.20997e-18
1.89072e-18
1.19494e-18
3.32534e-19
2.07251e-20
1.71018e-22
4.52248e-25
8.15723e-28
8.78161e-31
7.01088e-34
4.14404e-37
1.81176e-40
5.92191e-44
1.40075e-47
2.38434e-51
2.81575e-55
2.22782e-59
1.12653e-63
3.30195e-68
4.90965e-73
3.07514e-78
8.94052e-84
2.68146e-89
1.29884e-94
6.47502e-100
2.2681e-105
3.49185e-111
3.19221e-16
1.79544e-16
1.00026e-16
5.48744e-17
2.98463e-17
1.6251e-17
8.8093e-18
4.79807e-18
2.9587e-18
2.37634e-18
2.13489e-18
1.75131e-18
9.45843e-19
1.90141e-19
7.501e-21
4.78784e-23
1.04635e-25
1.40421e-28
1.36211e-31
9.85245e-35
5.28203e-38
2.08588e-41
6.12507e-45
1.28781e-48
1.92059e-52
1.94824e-56
1.28898e-60
5.20975e-65
1.13505e-69
1.12601e-74
5.01976e-80
1.68845e-85
8.18816e-91
5.0167e-96
2.68552e-101
9.61453e-107
1.53695e-112
2.96897e-16
1.61714e-16
8.75324e-17
4.68083e-17
2.49491e-17
1.33241e-17
7.08048e-18
3.89747e-18
2.63839e-18
2.27876e-18
2.04521e-18
1.54933e-18
6.62856e-19
8.72227e-20
2.01895e-21
8.41269e-24
1.46255e-26
1.74487e-29
1.51751e-32
9.86014e-36
4.73263e-39
1.66365e-42
4.30933e-46
7.88237e-50
1.00447e-53
8.50078e-58
4.51708e-62
1.3807e-66
2.06975e-71
1.39487e-76
5.89513e-82
2.98352e-87
1.96804e-92
1.37751e-97
7.67945e-103
2.79469e-108
4.58687e-114
2.61977e-16
1.38804e-16
7.31603e-17
3.82172e-17
1.99822e-17
1.04508e-17
5.47702e-18
3.17813e-18
2.42803e-18
2.19436e-18
1.91898e-18
1.26377e-18
3.86596e-19
2.93687e-20
3.54969e-22
9.81374e-25
1.44479e-27
1.51847e-30
1.17112e-33
6.73281e-37
2.83894e-40
8.7122e-44
1.94412e-47
3.01398e-51
3.18592e-55
2.16418e-59
8.76429e-64
1.87829e-68
1.87397e-73
1.06991e-78
6.05267e-84
4.16517e-89
3.34258e-94
2.52926e-99
1.44984e-104
5.35955e-110
8.99623e-116
2.1919e-16
1.13177e-16
5.81251e-17
2.96974e-17
1.52195e-17
7.78918e-18
4.1271e-18
2.68798e-18
2.29663e-18
2.10394e-18
1.71902e-18
8.96442e-19
1.70244e-19
6.41754e-21
3.89557e-23
7.73109e-26
9.67458e-29
8.85936e-32
5.9537e-35
2.96429e-38
1.07395e-41
2.80403e-45
5.24249e-49
6.67325e-53
5.62345e-57
2.90713e-61
8.33066e-66
1.18161e-70
9.33624e-76
6.27888e-81
4.68442e-86
4.05826e-91
3.71381e-96
2.95214e-101
1.73197e-106
6.52084e-112
1.11924e-117
1.72871e-16
8.7006e-17
4.35504e-17
2.17777e-17
1.09126e-17
5.51814e-18
3.14869e-18
2.40988e-18
2.20187e-18
1.97616e-18
1.3973e-18
5.00325e-19
4.92826e-20
7.99335e-22
2.55346e-24
3.91106e-27
4.14573e-30
3.24354e-33
1.85438e-36
7.78504e-40
2.35961e-43
5.07802e-47
7.67775e-51
7.68999e-55
4.88549e-59
1.78395e-63
3.34635e-68
3.54773e-73
2.95464e-78
2.56416e-83
2.40535e-88
2.50537e-93
2.49959e-98
2.06052e-103
1.23817e-108
4.7854e-114
8.46069e-120
1.27401e-16
6.24294e-17
3.04578e-17
1.48837e-17
7.30187e-18
3.82244e-18
2.57887e-18
2.26633e-18
2.105e-18
1.74459e-18
9.33981e-19
1.87963e-19
7.68341e-21
4.88359e-23
9.56548e-26
1.17348e-28
1.0339e-31
6.72116e-35
3.16703e-38
1.0863e-41
2.6578e-45
4.5277e-49
5.27074e-53
3.89382e-57
1.71062e-61
3.9712e-66
5.21599e-71
5.53994e-76
6.02026e-81
6.33682e-86
7.35095e-91
8.78171e-96
9.31047e-101
7.95082e-106
4.93545e-111
1.98528e-116
3.66763e-122
8.66353e-17
4.12067e-17
1.95724e-17
9.33224e-18
4.62835e-18
2.80737e-18
2.31883e-18
2.16913e-18
1.94204e-18
1.31748e-18
4.31433e-19
3.69184e-20
4.95026e-22
1.3328e-24
1.84623e-27
1.80295e-30
1.27517e-33
6.60835e-37
2.45133e-40
6.54831e-44
1.21977e-47
1.52872e-51
1.24043e-55
5.80909e-60
1.38173e-64
1.69481e-69
2.24041e-74
3.88238e-79
5.18573e-84
7.17604e-89
1.04878e-93
1.40399e-98
1.58187e-103
1.42282e-108
9.4294e-114
4.09202e-119
8.18546e-125
5.30729e-17
2.44466e-17
1.13143e-17
5.38912e-18
3.03021e-18
2.3602e-18
2.19974e-18
2.04169e-18
1.57804e-18
7.0119e-19
1.01127e-19
2.54311e-21
9.73084e-24
1.4341e-26
1.46452e-29
1.08131e-32
5.71703e-36
2.16678e-39
5.75046e-43
1.04678e-46
1.20741e-50
7.55376e-55
9.55476e-60
-4.28764e-82
-2.38501e-139
-3.67408e-97