/*--------------------------------*- C++ -*----------------------------------*\
| =========                 |                                                 |
| \\      /  F ield         | OpenFOAM: The Open Source CFD Toolbox           |
|  \\    /   O peration     | Version:  v2012                                 |
|   \\  /    A nd           | Website:  www.openfoam.com                      |
|    \\/     M anipulation  |                                                 |
\*---------------------------------------------------------------------------*/
FoamFile
{
    version     2.0;
    format      ascii;
    class       surfaceScalarField;
    location    "0.75";
    object      phi;
}
// * * * * * * * * * * * * * * * * * * * * * * * * * * * * * * * * * * * * * //

dimensions      [0 3 -1 0 0 0 0];
oriented        oriented;


internalField   nonuniform List<scalar> 
6514
(
8.68805e-11
-2.02058e-10
5.15745e-19
8.97471e-11
-2.04647e-10
1.28986e-18
9.19254e-11
-2.05925e-10
9.30428e-19
9.33729e-11
-2.05884e-10
1.40634e-18
9.40648e-11
-2.04519e-10
1.36254e-18
9.3992e-11
-2.01909e-10
1.71733e-18
9.31632e-11
-1.98078e-10
1.52027e-18
9.16026e-11
-1.93131e-10
4.3198e-18
8.93512e-11
-1.87166e-10
4.26084e-18
8.64627e-11
-1.80287e-10
4.55981e-18
8.30015e-11
-1.72618e-10
4.9034e-18
7.90416e-11
-1.64279e-10
5.1317e-18
7.46622e-11
-1.55399e-10
5.35503e-18
6.99468e-11
-1.46091e-10
5.4325e-18
6.49805e-11
-1.36469e-10
5.47647e-18
5.98462e-11
-1.26631e-10
5.39626e-18
5.46268e-11
-1.16644e-10
5.28784e-18
4.93953e-11
-1.06645e-10
5.09423e-18
4.42249e-11
-9.66254e-11
4.87725e-18
3.91773e-11
-8.66896e-11
4.61171e-18
3.43109e-11
-7.68344e-11
4.33275e-18
2.96758e-11
-6.7092e-11
4.02871e-18
2.53113e-11
-5.75214e-11
3.70118e-18
2.12546e-11
-4.80806e-11
3.18723e-18
1.75322e-11
-3.88206e-11
3.4137e-18
1.41655e-11
-2.97427e-11
3.70923e-18
1.11689e-11
-2.08838e-11
3.43584e-18
8.54975e-12
-1.22954e-11
3.2261e-18
6.31078e-12
-4.05005e-12
2.94444e-18
4.44759e-12
3.72078e-12
3.01811e-18
2.94937e-12
1.08267e-11
2.74396e-18
1.79873e-12
1.69782e-11
2.45131e-18
9.70274e-13
2.17476e-11
2.11948e-18
4.29112e-13
2.45129e-11
1.70512e-18
1.29186e-13
2.43597e-11
1.31793e-18
1.07859e-14
1.99486e-11
8.13944e-19
9.32426e-12
2.69279e-19
9.11314e-11
-2.05436e-10
1.07824e-18
9.38133e-11
-2.07328e-10
8.70135e-19
9.57474e-11
-2.07859e-10
1.35266e-18
9.68979e-11
-2.07034e-10
1.32557e-18
9.72481e-11
-2.04869e-10
1.59042e-18
9.67983e-11
-2.01459e-10
1.71482e-18
9.55674e-11
-1.96847e-10
1.50622e-18
9.35906e-11
-1.91155e-10
4.53434e-18
9.09194e-11
-1.84495e-10
4.29032e-18
8.76175e-11
-1.76985e-10
4.58997e-18
8.37587e-11
-1.68759e-10
4.838e-18
7.9425e-11
-1.59945e-10
5.09985e-18
7.4702e-11
-1.50676e-10
5.24161e-18
6.96785e-11
-1.41067e-10
5.35124e-18
6.44431e-11
-1.31233e-10
5.34208e-18
5.90807e-11
-1.21269e-10
5.29084e-18
5.36748e-11
-1.11237e-10
5.15656e-18
4.82977e-11
-1.01269e-10
4.98822e-18
4.30212e-11
-9.13487e-11
4.76449e-18
3.79046e-11
-8.15731e-11
4.51978e-18
3.3003e-11
-7.19328e-11
4.24305e-18
2.83633e-11
-6.24522e-11
3.95355e-18
2.40213e-11
-5.31796e-11
3.62895e-18
2.00106e-11
-4.40697e-11
3.12135e-18
1.63538e-11
-3.51639e-11
3.35532e-18
1.30693e-11
-2.64582e-11
3.64164e-18
1.01682e-11
-1.79826e-11
3.37475e-18
7.65483e-12
-9.78212e-12
3.17204e-18
5.5293e-12
-1.9245e-12
2.89626e-18
3.78461e-12
5.46548e-12
2.95976e-18
2.40738e-12
1.22039e-11
2.69137e-18
1.3774e-12
1.80082e-11
2.40725e-18
6.65962e-13
2.2459e-11
2.08247e-18
2.33738e-13
2.49451e-11
1.67336e-18
2.83059e-14
2.45651e-11
1.29284e-18
-1.98126e-14
1.99968e-11
8.02103e-19
9.30446e-12
2.69057e-19
9.55309e-11
-2.0865e-10
3.68703e-19
9.79824e-11
-2.0978e-10
1.28226e-18
9.96251e-11
-2.09502e-10
1.04441e-18
1.00431e-10
-2.07841e-10
1.54123e-18
1.00394e-10
-2.04831e-10
1.47792e-18
9.95241e-11
-2.00589e-10
1.74419e-18
9.78528e-11
-1.95175e-10
1.37612e-18
9.54266e-11
-1.88729e-10
4.74439e-18
9.23084e-11
-1.81377e-10
4.33086e-18
8.85724e-11
-1.73249e-10
4.55046e-18
8.43017e-11
-1.64488e-10
4.83733e-18
7.95861e-11
-1.55229e-10
5.02217e-18
7.45174e-11
-1.45608e-10
5.20151e-18
6.91888e-11
-1.35739e-10
5.24934e-18
6.36917e-11
-1.25736e-10
5.26739e-18
5.81123e-11
-1.1569e-10
5.17664e-18
5.25337e-11
-1.05658e-10
5.06033e-18
4.7027e-11
-9.5762e-11
4.87093e-18
4.16614e-11
-8.59829e-11
4.6603e-18
3.64932e-11
-7.64051e-11
4.40772e-18
3.15741e-11
-6.70136e-11
4.1412e-18
2.69469e-11
-5.78248e-11
3.85156e-18
2.26435e-11
-4.88763e-11
3.53381e-18
1.86935e-11
-4.01197e-11
3.0326e-18
1.5116e-11
-3.15864e-11
3.26885e-18
1.19256e-11
-2.32678e-11
3.5481e-18
9.13037e-12
-1.51874e-11
3.29333e-18
6.73175e-12
-7.38353e-12
3.10004e-18
4.72706e-12
8.0209e-14
2.83645e-18
3.10683e-12
7.08571e-12
2.89074e-18
1.85526e-12
1.34555e-11
2.63302e-18
9.49478e-13
1.8914e-11
2.35663e-18
3.57578e-13
2.30509e-11
2.03986e-18
3.6034e-14
2.52667e-11
1.64364e-18
-7.37354e-14
2.46749e-11
1.26325e-18
-5.08012e-14
1.99739e-11
7.85985e-19
9.25366e-12
2.64184e-19
1.00068e-10
-2.11652e-10
9.11907e-19
1.02238e-10
-2.1195e-10
8.58813e-19
1.03537e-10
-2.10801e-10
1.33295e-18
1.03947e-10
-2.08251e-10
1.36635e-18
1.03473e-10
-2.04357e-10
1.56306e-18
1.02139e-10
-1.99255e-10
1.64365e-18
9.9988e-11
-1.93024e-10
1.24669e-18
9.70796e-11
-1.85821e-10
4.65465e-18
9.34885e-11
-1.77786e-10
4.31516e-18
8.92997e-11
-1.6906e-10
4.56958e-18
8.46055e-11
-1.59794e-10
4.77748e-18
7.95031e-11
-1.50126e-10
5.00845e-18
7.40898e-11
-1.40195e-10
5.11153e-18
6.84626e-11
-1.30112e-10
5.19306e-18
6.27146e-11
-1.19988e-10
5.15772e-18
5.69323e-11
-1.09908e-10
5.09066e-18
5.11977e-11
-9.99235e-11
4.94227e-18
4.55797e-11
-9.01443e-11
4.76804e-18
4.01442e-11
-8.05473e-11
4.5411e-18
3.49439e-11
-7.12049e-11
4.29803e-18
3.00261e-11
-6.20958e-11
4.02589e-18
2.54294e-11
-5.3228e-11
3.7433e-18
2.11814e-11
-4.46285e-11
3.42633e-18
1.73075e-11
-3.62457e-11
2.9328e-18
1.38229e-11
-2.81019e-11
3.16605e-18
1.07387e-11
-2.01836e-11
3.43626e-18
8.05957e-12
-1.25082e-11
3.19742e-18
5.78426e-12
-5.10824e-12
3.01664e-18
3.90742e-12
1.95707e-12
2.76755e-18
2.4172e-12
8.57593e-12
2.81315e-18
1.29548e-12
1.45772e-11
2.5683e-18
5.16897e-13
1.96926e-11
2.30151e-18
4.65553e-14
2.35213e-11
1.99516e-18
-1.63062e-13
2.54763e-11
1.61176e-18
-1.76446e-13
2.46883e-11
1.23235e-18
-8.20287e-14
1.98795e-11
7.70143e-19
9.17165e-12
2.63389e-19
1.04728e-10
-2.14386e-10
3.25186e-19
1.06558e-10
-2.1378e-10
1.13929e-18
1.07456e-10
-2.11698e-10
1.0406e-18
1.07414e-10
-2.0821e-10
1.43854e-18
1.06452e-10
-2.03395e-10
1.42373e-18
1.04608e-10
-1.9741e-10
1.56908e-18
1.01938e-10
-1.90354e-10
1.07304e-18
9.85153e-11
-1.82399e-10
4.62257e-18
9.44275e-11
-1.73698e-10
4.33754e-18
8.97701e-11
-1.64403e-10
4.51013e-18
8.46442e-11
-1.54668e-10
4.77615e-18
7.91537e-11
-1.44635e-10
4.92311e-18
7.34009e-11
-1.34442e-10
5.0664e-18
6.74852e-11
-1.24197e-10
5.08134e-18
6.15007e-11
-1.14003e-10
5.07521e-18
5.55331e-11
-1.03941e-10
4.96762e-18
4.96624e-11
-9.40523e-11
4.83728e-18
4.39539e-11
-8.4436e-11
4.6417e-18
3.84699e-11
-7.50631e-11
4.42709e-18
3.32584e-11
-6.59935e-11
4.17507e-18
2.83621e-11
-5.71995e-11
3.91131e-18
2.38148e-11
-4.86806e-11
3.62715e-18
1.96396e-11
-4.04534e-11
3.31666e-18
1.58574e-11
-3.24634e-11
2.828e-18
1.24795e-11
-2.4724e-11
3.05828e-18
9.51325e-12
-1.72174e-11
3.3215e-18
6.96031e-12
-9.95524e-12
3.09366e-18
4.81655e-12
-2.9645e-12
2.92554e-18
3.07411e-12
3.69951e-12
2.69092e-18
1.71892e-12
9.93112e-12
2.72852e-18
7.30701e-13
1.55654e-11
2.49742e-18
8.17632e-14
2.03415e-11
2.24184e-18
-2.6556e-13
2.38686e-11
1.94647e-18
-3.62538e-13
2.55733e-11
1.57746e-18
-2.79293e-13
2.46051e-11
1.19933e-18
-1.13331e-13
1.97135e-11
7.49767e-19
9.05832e-12
2.5688e-19
1.09489e-10
-2.1679e-10
4.94372e-19
1.10916e-10
-2.15206e-10
7.43248e-19
1.11349e-10
-2.12131e-10
1.05159e-18
1.10797e-10
-2.07658e-10
1.23995e-18
1.09293e-10
-2.01891e-10
1.32168e-18
1.06891e-10
-1.95007e-10
1.43633e-18
1.03663e-10
-1.87126e-10
8.29118e-19
9.96967e-11
-1.78433e-10
4.6691e-18
9.50911e-11
-1.69093e-10
4.25902e-18
8.99528e-11
-1.59264e-10
4.51674e-18
8.4391e-11
-1.49106e-10
4.68654e-18
7.85157e-11
-1.3876e-10
4.89568e-18
7.24327e-11
-1.28359e-10
4.9524e-18
6.62431e-11
-1.18007e-10
5.00673e-18
6.00405e-11
-1.07801e-10
4.94376e-18
5.39088e-11
-9.78091e-11
4.86344e-18
4.79245e-11
-8.80678e-11
4.70221e-18
4.21492e-11
-7.86609e-11
4.52461e-18
3.664e-11
-6.95538e-11
4.29532e-18
3.14399e-11
-6.07936e-11
4.05529e-18
2.65865e-11
-5.2346e-11
3.78684e-18
2.21083e-11
-4.42023e-11
3.51093e-18
1.80237e-11
-3.63689e-11
3.20159e-18
1.43489e-11
-2.87886e-11
2.72676e-18
1.10914e-11
-2.14665e-11
2.94714e-18
8.25481e-12
-1.43809e-11
3.19713e-18
5.83766e-12
-7.53807e-12
2.98812e-18
3.8332e-12
-9.60066e-13
2.83192e-18
2.23119e-12
5.30153e-12
2.61325e-18
1.01547e-12
1.11468e-11
2.64135e-18
1.6379e-13
1.64171e-11
2.42632e-18
-3.53663e-13
2.0859e-11
2.18034e-18
-5.7711e-13
2.40921e-11
1.89664e-18
-5.61309e-13
2.55575e-11
1.54352e-18
-3.81704e-13
2.44255e-11
1.16533e-18
-1.4453e-13
1.94763e-11
7.30254e-19
8.9138e-12
2.51071e-19
1.14325e-10
-2.18792e-10
1.42041e-19
1.15276e-10
-2.16158e-10
7.5418e-19
1.15177e-10
-2.12031e-10
8.8545e-19
1.14051e-10
-2.06533e-10
1.11111e-18
1.1195e-10
-1.9979e-10
1.21841e-18
1.08944e-10
-1.92001e-10
1.2164e-18
1.05121e-10
-1.83303e-10
6.3457e-19
1.00583e-10
-1.73895e-10
4.58411e-18
9.5443e-11
-1.63952e-10
4.26488e-18
8.9816e-11
-1.53637e-10
4.40389e-18
8.38191e-11
-1.43109e-10
4.67024e-18
7.75672e-11
-1.32508e-10
4.77596e-18
7.11684e-11
-1.2196e-10
4.88765e-18
6.4724e-11
-1.11563e-10
4.8677e-18
5.83259e-11
-1.01403e-10
4.84031e-18
5.20548e-11
-9.15381e-11
4.71805e-18
4.59829e-11
-8.19956e-11
4.58e-18
4.01667e-11
-7.28449e-11
4.38181e-18
3.46577e-11
-6.40446e-11
4.16819e-18
2.94932e-11
-5.56292e-11
3.92076e-18
2.47049e-11
-4.75578e-11
3.6627e-18
2.03162e-11
-3.98134e-11
3.38753e-18
1.63402e-11
-3.2393e-11
3.0867e-18
1.27888e-11
-2.52371e-11
2.62152e-18
9.66506e-12
-1.83428e-11
2.83365e-18
6.9694e-12
-1.16853e-11
3.07348e-18
4.6972e-12
-5.26586e-12
2.87763e-18
2.83923e-12
8.97885e-13
2.73339e-18
1.38304e-12
6.75773e-12
2.52999e-18
3.10579e-13
1.22193e-11
2.54929e-18
-4.02186e-13
1.71299e-11
2.34984e-18
-7.86976e-13
2.12437e-11
2.11614e-18
-8.86332e-13
2.41914e-11
1.84509e-18
-7.58221e-13
2.54294e-11
1.50676e-18
-4.83069e-13
2.41503e-11
1.13174e-18
-1.75435e-13
1.91687e-11
7.10532e-19
8.73838e-12
2.44565e-19
1.19197e-10
-2.20312e-10
-2.11669e-19
1.19597e-10
-2.16557e-10
5.11844e-19
1.18892e-10
-2.11327e-10
5.6538e-19
1.17127e-10
-2.04769e-10
9.78263e-19
1.14373e-10
-1.97035e-10
9.06431e-19
1.10716e-10
-1.88344e-10
1.09765e-18
1.06264e-10
-1.7885e-10
2.30752e-19
1.01132e-10
-1.68764e-10
4.6233e-18
9.5445e-11
-1.58265e-10
4.10352e-18
8.93271e-11
-1.47519e-10
4.39421e-18
8.29018e-11
-1.36684e-10
4.52808e-18
7.62872e-11
-1.25893e-10
4.72716e-18
6.95924e-11
-1.15265e-10
4.73605e-18
6.29172e-11
-1.04888e-10
4.77027e-18
5.63507e-11
-9.48359e-11
4.68064e-18
4.99687e-11
-8.51564e-11
4.5938e-18
4.38383e-11
-7.58649e-11
4.42367e-18
3.80096e-11
-6.70164e-11
4.24809e-18
3.2528e-11
-5.85628e-11
4.02226e-18
2.74245e-11
-5.05258e-11
3.78991e-18
2.27247e-11
-4.2858e-11
3.52945e-18
1.84461e-11
-3.55348e-11
3.26451e-18
1.4597e-11
-2.8544e-11
2.9673e-18
1.11844e-11
-2.18245e-11
2.51626e-18
8.20772e-12
-1.53662e-11
2.71815e-18
5.66372e-12
-9.14129e-12
2.94549e-18
3.54501e-12
-3.14713e-12
2.76508e-18
1.84005e-12
2.60283e-12
2.63465e-18
5.34359e-13
8.06341e-12
2.44804e-18
-3.91781e-13
1.31454e-11
2.45789e-18
-9.63975e-13
1.77021e-11
2.2725e-18
-1.21563e-12
2.14954e-11
2.05075e-18
-1.19136e-12
2.41672e-11
1.79177e-18
-9.52054e-13
2.51901e-11
1.46893e-18
-5.82741e-13
2.3781e-11
1.09581e-18
-2.05842e-13
1.87918e-11
6.88435e-19
8.53254e-12
2.38891e-19
1.24063e-10
-2.21263e-10
-9.17959e-20
1.23825e-10
-2.1632e-10
2.61274e-19
1.22439e-10
-2.0994e-10
6.64677e-19
1.19968e-10
-2.02298e-10
6.65353e-19
1.16503e-10
-1.9357e-10
9.27913e-19
1.12154e-10
-1.83995e-10
7.45305e-19
1.07042e-10
-1.73739e-10
5.83128e-20
1.01299e-10
-1.63021e-10
4.44454e-18
9.50581e-11
-1.52025e-10
4.10867e-18
8.84537e-11
-1.40915e-10
4.21377e-18
8.16131e-11
-1.29843e-10
4.49262e-18
7.46561e-11
-1.18936e-10
4.55956e-18
6.7691e-11
-1.083e-10
4.64722e-18
6.08145e-11
-9.80118e-11
4.59576e-18
5.4111e-11
-8.81323e-11
4.55438e-18
4.76506e-11
-7.86962e-11
4.42278e-18
4.14936e-11
-6.97076e-11
4.28246e-18
3.56834e-11
-6.12063e-11
4.08787e-18
3.02581e-11
-5.31374e-11
3.88127e-18
2.5242e-11
-4.55098e-11
3.64399e-18
2.06544e-11
-3.82704e-11
3.39744e-18
1.6507e-11
-3.13872e-11
3.13443e-18
1.28028e-11
-2.484e-11
2.8482e-18
9.54443e-12
-1.8566e-11
2.41152e-18
6.72732e-12
-1.25491e-11
2.60012e-18
4.34509e-12
-6.75908e-12
2.8118e-18
2.38766e-12
-1.18971e-12
2.64914e-18
8.41442e-13
4.14904e-12
2.53083e-18
-3.09852e-13
9.2147e-12
2.36227e-18
-1.0874e-12
1.3923e-11
2.36315e-18
-1.51815e-12
1.81328e-11
2.1914e-18
-1.63696e-12
2.16142e-11
1.98119e-18
-1.49025e-12
2.40205e-11
1.73603e-18
-1.14153e-12
2.48414e-11
1.42848e-18
-6.80037e-13
2.33195e-11
1.0584e-18
-2.35536e-13
1.83473e-11
6.66663e-19
8.29702e-12
2.3142e-19
1.28863e-10
-2.21546e-10
-9.44951e-19
1.27899e-10
-2.15356e-10
3.01467e-19
1.2575e-10
-2.07791e-10
4.29586e-20
1.22506e-10
-1.99054e-10
6.90305e-19
1.18279e-10
-1.89343e-10
4.27864e-19
1.13197e-10
-1.78913e-10
6.97883e-19
1.07401e-10
-1.67942e-10
-5.00587e-19
1.01035e-10
-1.56655e-10
4.49707e-18
9.42424e-11
-1.45232e-10
3.8623e-18
8.71636e-11
-1.33836e-10
4.19289e-18
7.99284e-11
-1.22608e-10
4.28904e-18
7.26565e-11
-1.11663e-10
4.48827e-18
6.54531e-11
-1.01097e-10
4.45223e-18
5.84103e-11
-9.09692e-11
4.47487e-18
5.1606e-11
-8.13279e-11
4.36407e-18
4.51032e-11
-7.21936e-11
4.27799e-18
3.89546e-11
-6.35587e-11
4.10487e-18
3.31956e-11
-5.54475e-11
3.93859e-18
2.78569e-11
-4.77986e-11
3.72111e-18
2.29557e-11
-4.06086e-11
3.50231e-18
1.85045e-11
-3.38192e-11
3.25471e-18
1.45091e-11
-2.73918e-11
3.00538e-18
1.09677e-11
-2.12987e-11
2.72462e-18
7.87818e-12
-1.54765e-11
2.30476e-18
5.23256e-12
-9.90349e-12
2.47891e-18
3.02139e-12
-4.54793e-12
2.67681e-18
1.23221e-12
5.9947e-13
2.53248e-18
-1.50419e-13
5.53167e-12
2.4289e-18
-1.14431e-12
1.02086e-11
2.27784e-18
-1.77187e-12
1.45505e-11
2.27007e-18
-2.06113e-12
1.84221e-11
2.1109e-18
-2.04816e-12
2.16013e-11
1.91262e-18
-1.78096e-12
2.37533e-11
1.68025e-18
-1.3253e-12
2.43857e-11
1.3876e-18
-7.74244e-13
2.27685e-11
1.02006e-18
-2.6429e-13
1.78374e-11
6.44319e-19
8.03274e-12
2.23443e-19
1.3353e-10
-2.21057e-10
-3.70618e-19
1.31744e-10
-2.13571e-10
-2.27671e-19
1.28751e-10
-2.04798e-10
4.55693e-19
1.24667e-10
-1.94969e-10
2.08705e-19
1.19627e-10
-1.84303e-10
6.18916e-19
1.13781e-10
-1.73066e-10
2.17547e-19
1.07284e-10
-1.61445e-10
-6.6697e-19
1.00292e-10
-1.49663e-10
4.21349e-18
9.29587e-11
-1.37899e-10
3.87576e-18
8.54264e-11
-1.26303e-10
3.94055e-18
7.78258e-11
-1.15007e-10
4.23513e-18
7.02738e-11
-1.04111e-10
4.26796e-18
6.28709e-11
-9.36937e-11
4.33986e-18
5.57022e-11
-8.38008e-11
4.26464e-18
4.88379e-11
-7.44635e-11
4.21582e-18
4.23325e-11
-6.56884e-11
4.08207e-18
3.62297e-11
-5.74557e-11
3.94609e-18
3.05568e-11
-4.97747e-11
3.76086e-18
2.53361e-11
-4.25778e-11
3.56787e-18
2.05775e-11
-3.58501e-11
3.34587e-18
1.62868e-11
-2.95286e-11
3.11374e-18
1.24642e-11
-2.35691e-11
2.8682e-18
9.10266e-12
-1.79372e-11
2.6011e-18
6.19601e-12
-1.25699e-11
2.19936e-18
3.73289e-12
-7.44039e-12
2.35645e-18
1.70112e-12
-2.51618e-12
2.53724e-18
8.61433e-14
2.21444e-12
2.41156e-18
-1.12903e-12
6.74684e-12
2.32182e-18
-1.96349e-12
1.1043e-11
2.18903e-18
-2.44058e-12
1.50276e-11
2.17255e-18
-2.58919e-12
1.85707e-11
2.02754e-18
-2.44636e-12
2.14584e-11
1.84075e-18
-2.06138e-12
2.33683e-11
1.62151e-18
-1.50199e-12
2.38263e-11
1.34447e-18
-8.64617e-13
2.21311e-11
9.80337e-19
-2.91862e-13
1.72647e-11
6.19422e-19
7.74088e-12
2.14891e-19
1.37977e-10
-2.19683e-10
-1.43555e-18
1.35272e-10
-2.10865e-10
2.82201e-19
1.31354e-10
-2.0088e-10
-3.30529e-19
1.26367e-10
-1.89982e-10
4.85876e-19
1.20472e-10
-1.78408e-10
-1.05422e-20
1.13836e-10
-1.6643e-10
2.93938e-19
1.06631e-10
-1.5424e-10
-1.29086e-18
9.9023e-11
-1.42055e-10
4.29686e-18
9.11691e-11
-1.30045e-10
3.54419e-18
8.32141e-11
-1.18348e-10
3.91111e-18
7.52863e-11
-1.07079e-10
3.96781e-18
6.74974e-11
-9.63219e-11
4.1752e-18
5.99404e-11
-8.61367e-11
4.10068e-18
5.26921e-11
-7.65527e-11
4.12145e-18
4.58129e-11
-6.75843e-11
3.99639e-18
3.93478e-11
-5.92234e-11
3.91853e-18
3.33307e-11
-5.14384e-11
3.74893e-18
2.77799e-11
-4.42241e-11
3.59787e-18
2.27094e-11
-3.75071e-11
3.39424e-18
1.81214e-11
-3.12622e-11
3.19387e-18
1.40153e-11
-2.54224e-11
2.96365e-18
1.03853e-11
-1.9939e-11
2.73349e-18
7.21998e-12
-1.4772e-11
2.474e-18
4.50916e-12
-9.85903e-12
2.09256e-18
2.23846e-12
-5.16972e-12
2.2323e-18
3.93313e-13
-6.71052e-13
2.3965e-18
-1.04263e-12
3.65037e-12
2.29064e-18
-2.08758e-12
7.79178e-12
2.21645e-18
-2.76161e-12
1.1717e-11
2.10244e-18
-3.08874e-12
1.53548e-11
2.07495e-18
-3.09848e-12
1.85805e-11
1.94468e-18
-2.82858e-12
2.11885e-11
1.76911e-18
-2.32934e-12
2.2869e-11
1.56139e-18
-1.67017e-12
2.31672e-11
1.30119e-18
-9.50387e-13
2.14113e-11
9.40226e-19
-3.18004e-13
1.66323e-11
5.94315e-19
7.42289e-12
2.05831e-19
1.42106e-10
-2.17305e-10
-2.13715e-19
1.38381e-10
-2.0714e-10
-3.66734e-19
1.3346e-10
-1.95959e-10
4.50555e-19
1.27515e-10
-1.84038e-10
-1.05985e-19
1.20731e-10
-1.71623e-10
3.77928e-19
1.13293e-10
-1.58992e-10
-2.64973e-19
1.05385e-10
-1.46332e-10
-1.28469e-18
9.71799e-11
-1.33851e-10
3.93086e-18
8.88385e-11
-1.21704e-10
3.56658e-18
8.05027e-11
-1.10012e-10
3.58479e-18
7.22956e-11
-9.88721e-11
3.89591e-18
6.43211e-11
-8.83471e-11
3.90189e-18
5.66626e-11
-7.84782e-11
3.96601e-18
4.93862e-11
-6.92764e-11
3.87626e-18
4.25414e-11
-6.07394e-11
3.82924e-18
3.61624e-11
-5.28445e-11
3.7002e-18
3.02727e-11
-4.55485e-11
3.57555e-18
2.48812e-11
-3.88327e-11
3.40591e-18
1.99931e-11
-3.2619e-11
3.23e-18
1.56035e-11
-2.68727e-11
3.02823e-18
1.17051e-11
-2.15241e-11
2.8161e-18
8.28683e-12
-1.65207e-11
2.59138e-18
5.33299e-12
-1.18183e-11
2.34702e-18
2.82972e-12
-7.35576e-12
1.98642e-18
7.60085e-13
-3.10011e-12
2.10751e-18
-8.92507e-13
9.81525e-13
2.25403e-18
-2.14582e-12
4.90367e-12
2.16834e-18
-3.01898e-12
8.66493e-12
2.10657e-18
-3.5327e-12
1.22308e-11
2.01167e-18
-3.71145e-12
1.55335e-11
1.97464e-18
-3.58506e-12
1.84541e-11
1.8578e-18
-3.19176e-12
2.07952e-11
1.69434e-18
-2.58262e-12
2.22599e-11
1.50021e-18
-1.82838e-12
2.24129e-11
1.25603e-18
-1.03076e-12
2.06137e-11
8.99973e-19
-3.42454e-13
1.5944e-11
5.69246e-19
7.08044e-12
1.95871e-19
1.45795e-10
-2.13802e-10
-1.54563e-18
1.40953e-10
-2.02298e-10
4.56323e-19
1.34959e-10
-1.89964e-10
-5.38663e-19
1.2801e-10
-1.7709e-10
3.51318e-19
1.20316e-10
-1.63928e-10
-3.94932e-19
1.12076e-10
-1.50752e-10
-8.18301e-20
1.03485e-10
-1.37741e-10
-1.98413e-18
9.47189e-11
-1.25085e-10
4.04402e-18
8.59359e-11
-1.12921e-10
3.1505e-18
7.72732e-11
-1.01349e-10
3.54162e-18
6.88451e-11
-9.0444e-11
3.56368e-18
6.07449e-11
-8.02466e-11
3.78622e-18
5.3044e-11
-7.07773e-11
3.68475e-18
4.57962e-11
-6.20288e-11
3.71402e-18
3.90387e-11
-5.39819e-11
3.58357e-18
3.27938e-11
-4.65998e-11
3.52233e-18
2.70745e-11
-3.9829e-11
3.36163e-18
2.18798e-11
-3.36381e-11
3.23106e-18
1.72064e-11
-2.79455e-11
3.04512e-18
1.30421e-11
-2.27085e-11
2.86841e-18
9.37361e-12
-1.78556e-11
2.65884e-18
6.18473e-12
-1.33318e-11
2.45129e-18
3.45608e-12
-9.08965e-12
2.21565e-18
1.1706e-12
-5.07029e-12
1.87944e-18
-6.90807e-13
-1.23872e-12
1.9824e-18
-2.14635e-12
2.43705e-12
2.11407e-18
-3.21481e-12
5.97212e-12
2.04688e-18
-3.91588e-12
9.366e-12
1.99906e-18
-4.27064e-12
1.25855e-11
1.92327e-18
-4.30368e-12
1.55665e-11
1.87527e-18
-4.04491e-12
1.81953e-11
1.77211e-18
-3.53282e-12
2.02832e-11
1.61925e-18
-2.81898e-12
2.15461e-11
1.43783e-18
-1.97512e-12
2.15691e-11
1.20955e-18
-1.10492e-12
1.97435e-11
8.59089e-19
-3.64944e-13
1.5204e-11
5.4298e-19
6.71551e-12
1.85422e-19
1.48907e-10
-2.09054e-10
-2.54374e-19
1.42858e-10
-1.9625e-10
-5.43384e-19
1.35729e-10
-1.82835e-10
3.70505e-19
1.27747e-10
-1.69108e-10
-4.47227e-19
1.19138e-10
-1.55319e-10
9.02896e-20
1.10116e-10
-1.4173e-10
-7.51004e-19
1.00878e-10
-1.28503e-10
-1.88517e-18
9.1601e-11
-1.15808e-10
3.58316e-18
8.24371e-11
-1.03757e-10
3.17051e-18
7.35137e-11
-9.2426e-11
3.13951e-18
6.49333e-11
-8.18635e-11
3.46905e-18
5.67754e-11
-7.20885e-11
3.46082e-18
4.90976e-11
-6.30995e-11
3.52947e-18
4.19396e-11
-5.48709e-11
3.43771e-18
3.53251e-11
-4.73673e-11
3.4021e-18
2.92642e-11
-4.0539e-11
3.28599e-18
2.37587e-11
-3.43233e-11
3.17752e-18
1.8798e-11
-2.86776e-11
3.02756e-18
1.43706e-11
-2.3518e-11
2.87337e-18
1.04574e-11
-1.87953e-11
2.69429e-18
7.03945e-12
-1.44376e-11
2.50567e-18
4.09607e-12
-1.03884e-11
2.30378e-18
1.60465e-12
-6.59826e-12
2.08647e-18
-4.54537e-13
-3.01112e-12
1.77311e-18
-2.10223e-12
4.08957e-13
1.85862e-18
-3.35781e-12
3.69262e-12
1.97339e-18
-4.2407e-12
6.85498e-12
1.92389e-18
-4.77077e-12
9.89607e-12
1.88884e-18
-4.96916e-12
1.27839e-11
1.83382e-18
-4.86031e-12
1.54577e-11
1.7717e-18
-4.47398e-12
1.7809e-11
1.68301e-18
-3.84864e-12
1.96578e-11
1.54296e-18
-3.03613e-12
2.07336e-11
1.37422e-18
-2.10888e-12
2.06418e-11
1.16133e-18
-1.17205e-12
1.88067e-11
8.16822e-19
-3.85194e-13
1.44172e-11
5.15531e-19
6.33032e-12
1.74433e-19
1.51279e-10
-2.02948e-10
-1.95105e-18
1.43946e-10
-1.88917e-10
4.05309e-19
1.35641e-10
-1.7453e-10
-8.42772e-19
1.26614e-10
-1.60081e-10
1.14101e-19
1.17107e-10
-1.45812e-10
-8.22494e-19
1.07341e-10
-1.31963e-10
-5.00161e-19
9.75139e-11
-1.18675e-10
-2.65065e-18
8.77946e-11
-1.06089e-10
3.68521e-18
7.83257e-11
-9.42884e-11
2.66566e-18
6.92209e-11
-8.33211e-11
3.07532e-18
6.0567e-11
-7.32096e-11
3.07448e-18
5.24276e-11
-6.39488e-11
3.32262e-18
4.48439e-11
-5.55159e-11
3.20987e-18
3.78404e-11
-4.78676e-11
3.25933e-18
3.14267e-11
-4.09536e-11
3.13509e-18
2.56004e-11
-3.47128e-11
3.097e-18
2.03519e-11
-2.90746e-11
2.95186e-18
1.56617e-11
-2.39875e-11
2.8456e-18
1.151e-11
-1.93663e-11
2.68066e-18
7.87183e-12
-1.51572e-11
2.529e-18
4.72305e-12
-1.12889e-11
2.34321e-18
2.03918e-12
-7.70453e-12
2.16046e-18
-2.05028e-13
-4.35408e-12
1.95371e-18
-2.03136e-12
-1.18481e-12
1.66692e-18
-3.46172e-12
1.8393e-12
1.73369e-18
-4.51617e-12
4.74706e-12
1.83404e-18
-5.21436e-12
7.55314e-12
1.80252e-18
-5.57598e-12
1.02577e-11
1.78073e-18
-5.62192e-12
1.28298e-11
1.74808e-18
-5.3762e-12
1.52119e-11
1.67112e-18
-4.86817e-12
1.7301e-11
1.59463e-18
-4.13609e-12
1.89257e-11
1.46679e-18
-3.23182e-12
1.98293e-11
1.31085e-18
-2.22818e-12
1.96382e-11
1.11196e-18
-1.23131e-12
1.78098e-11
7.74357e-19
-4.0292e-13
1.35888e-11
4.88835e-19
5.92741e-12
1.62918e-19
1.52737e-10
-1.95379e-10
-4.05972e-19
1.4406e-10
-1.8024e-10
-7.51005e-19
1.34558e-10
-1.65027e-10
2.11403e-19
1.245e-10
-1.50023e-10
-8.0726e-19
1.14137e-10
-1.3545e-10
-2.43389e-19
1.03691e-10
-1.21517e-10
-1.25738e-18
9.33521e-11
-1.08336e-10
-2.50987e-18
8.32786e-11
-9.60158e-11
3.10316e-18
7.35966e-11
-8.46065e-11
2.66467e-18
6.44022e-11
-7.41266e-11
2.60092e-18
5.57635e-11
-6.45709e-11
2.95536e-18
4.77253e-11
-5.59104e-11
2.95126e-18
4.03114e-11
-4.81019e-11
3.03624e-18
3.35298e-11
-4.10861e-11
2.95806e-18
2.73758e-11
-3.47995e-11
2.94194e-18
2.18342e-11
-2.91713e-11
2.84734e-18
1.68848e-11
-2.41251e-11
2.75996e-18
1.24995e-11
-1.96022e-11
2.63389e-18
8.65132e-12
-1.55181e-11
2.50332e-18
5.3097e-12
-1.18156e-11
2.35021e-18
2.44629e-12
-8.42547e-12
2.18663e-18
3.35157e-14
-5.29177e-12
2.01107e-18
-1.95583e-12
-2.36475e-12
1.82284e-18
-3.54498e-12
4.04309e-13
1.56231e-18
-4.75643e-12
3.05073e-12
1.61093e-18
-5.61045e-12
5.60107e-12
1.69393e-18
-6.1265e-12
8.06915e-12
1.67985e-18
-6.32376e-12
1.0455e-11
1.66945e-18
-6.22255e-12
1.27286e-11
1.65632e-18
-5.84619e-12
1.48356e-11
1.56705e-18
-5.22343e-12
1.66782e-11
1.50568e-18
-4.39207e-12
1.80944e-11
1.38775e-18
-3.40378e-12
1.8841e-11
1.2464e-18
-2.33149e-12
1.85659e-11
1.06137e-18
-1.28187e-12
1.67602e-11
7.30752e-19
-4.1783e-13
1.27248e-11
4.61465e-19
5.50958e-12
1.51399e-19
1.53077e-10
-1.86275e-10
-2.16374e-18
1.43028e-10
-1.7019e-10
3.84808e-19
1.32339e-10
-1.54339e-10
-1.11135e-18
1.21296e-10
-1.38979e-10
-1.41176e-19
1.10149e-10
-1.24303e-10
-1.2369e-18
9.91131e-11
-1.1048e-10
-9.45439e-19
8.83654e-11
-9.75885e-11
-3.32824e-18
7.80451e-11
-8.56958e-11
3.1602e-18
6.8258e-11
-7.48194e-11
2.07555e-18
5.9078e-11
-6.49465e-11
2.50903e-18
5.05516e-11
-5.60445e-11
2.50534e-18
4.27032e-11
-4.80618e-11
2.7912e-18
3.55377e-11
-4.09364e-11
2.68588e-18
2.90465e-11
-3.45951e-11
2.76635e-18
2.32105e-11
-2.89634e-11
2.65961e-18
1.80025e-11
-2.39634e-11
2.65116e-18
1.33922e-11
-1.95147e-11
2.52611e-18
9.34363e-12
-1.55538e-11
2.44648e-18
5.82365e-12
-1.19981e-11
2.306e-18
2.79717e-12
-8.78917e-12
2.18113e-18
2.32394e-13
-5.86072e-12
2.02127e-18
-1.90052e-12
-3.15889e-12
1.86571e-18
-3.62998e-12
-6.35294e-13
1.68974e-18
-4.98004e-12
1.75432e-12
1.45814e-18
-5.9732e-12
4.04389e-12
1.48783e-18
-6.62949e-12
6.25736e-12
1.55529e-18
-6.96776e-12
8.40738e-12
1.55727e-18
-7.00633e-12
1.04935e-11
1.55872e-18
-6.76466e-12
1.24869e-11
1.56062e-18
-6.26517e-12
1.43361e-11
1.46474e-18
-5.53573e-12
1.59488e-11
1.41743e-18
-4.61352e-12
1.71722e-11
1.31069e-18
-3.54981e-12
1.77773e-11
1.18124e-18
-2.41736e-12
1.74335e-11
1.0114e-18
-1.32289e-12
1.56657e-11
6.87719e-19
-4.2963e-13
1.18315e-11
4.3282e-19
5.07996e-12
1.40138e-19
1.52099e-10
-1.75583e-10
-6.19146e-19
1.40678e-10
-1.5877e-10
-9.45898e-19
1.28852e-10
-1.42512e-10
1.84081e-20
1.16904e-10
-1.27032e-10
-1.15369e-18
1.05079e-10
-1.12477e-10
-5.94504e-19
9.35734e-11
-9.89744e-11
-1.75292e-18
8.25435e-11
-8.65583e-11
-3.12403e-18
7.21038e-11
-7.52563e-11
2.45861e-18
6.23341e-11
-6.50498e-11
2.03895e-18
5.3283e-11
-5.58953e-11
1.97039e-18
4.49731e-11
-4.77345e-11
2.35949e-18
3.74066e-11
-4.04952e-11
2.38134e-18
3.05696e-11
-3.40994e-11
2.49659e-18
2.44369e-11
-2.84625e-11
2.44621e-18
1.89755e-11
-2.3502e-11
2.4583e-18
1.41471e-11
-1.91351e-11
2.39248e-18
9.91247e-12
-1.528e-11
2.33048e-18
6.22904e-12
-1.18704e-11
2.23071e-18
3.05838e-12
-8.82745e-12
2.12573e-18
3.62021e-13
-6.09283e-12
2.00029e-18
-1.89425e-12
-3.60447e-12
1.86215e-18
-3.7417e-12
-1.31148e-12
1.71539e-18
-5.20916e-12
8.32171e-13
1.56e-18
-6.32083e-12
2.86595e-12
1.35582e-18
-7.09869e-12
4.82174e-12
1.36593e-18
-7.56204e-12
6.72071e-12
1.41581e-18
-7.72874e-12
8.57402e-12
1.43411e-18
-7.61593e-12
1.03807e-11
1.44482e-18
-7.24196e-12
1.21129e-11
1.46052e-18
-6.62808e-12
1.37222e-11
1.36013e-18
-5.80114e-12
1.51219e-11
1.32683e-18
-4.79747e-12
1.61685e-11
1.2318e-18
-3.66775e-12
1.66476e-11
1.11469e-18
-2.48435e-12
1.62501e-11
9.58502e-19
-1.35357e-12
1.4535e-11
6.44115e-19
-4.38024e-13
1.0916e-11
4.04695e-19
4.64194e-12
1.2721e-19
1.49567e-10
-1.63312e-10
-2.42277e-18
1.36835e-10
-1.46038e-10
2.94802e-19
1.23969e-10
-1.29646e-10
-1.33608e-18
1.11243e-10
-1.14306e-10
-3.92311e-19
9.88823e-11
-1.00117e-10
-1.60686e-18
8.70584e-11
-8.71503e-11
-1.37094e-18
7.5898e-11
-7.53977e-11
-3.91576e-18
6.54847e-11
-6.48433e-11
2.44419e-18
5.58683e-11
-5.54335e-11
1.37435e-18
4.70691e-11
-4.7096e-11
1.84509e-18
3.90841e-11
-3.97495e-11
1.86541e-18
3.18935e-11
-3.33044e-11
2.20063e-18
2.54642e-11
-2.76701e-11
2.12407e-18
1.97555e-11
-2.27539e-11
2.24447e-18
1.47217e-11
-1.84682e-11
2.16744e-18
1.03149e-11
-1.47283e-11
2.19283e-18
6.48802e-12
-1.14531e-11
2.09276e-18
3.19347e-12
-8.57587e-12
2.04191e-18
3.88845e-13
-6.02284e-12
1.92659e-18
-1.96655e-12
-3.73746e-12
1.82962e-18
-3.90831e-12
-1.66274e-12
1.69594e-18
-5.46819e-12
2.48348e-13
1.56933e-18
-6.67469e-12
2.03868e-12
1.42824e-18
-7.55149e-12
3.74269e-12
1.25351e-18
-8.11951e-12
5.38976e-12
1.24502e-18
-8.39688e-12
6.99808e-12
1.27748e-18
-8.40012e-12
8.57721e-12
1.31189e-18
-8.14492e-12
1.01255e-11
1.33303e-18
-7.64826e-12
1.16162e-11
1.36171e-18
-6.93001e-12
1.30039e-11
1.25741e-18
-6.01583e-12
1.42077e-11
1.23799e-18
-4.94105e-12
1.50937e-11
1.15379e-18
-3.75556e-12
1.54621e-11
1.04873e-18
-2.53107e-12
1.50256e-11
9.06291e-19
-1.37312e-12
1.3377e-11
6.01649e-19
-4.42718e-13
9.98562e-12
3.77378e-19
4.19923e-12
1.15404e-19
1.45287e-10
-1.49512e-10
-7.23136e-19
1.31351e-10
-1.32102e-10
-9.97318e-19
1.17591e-10
-1.15886e-10
-1.02875e-19
1.04258e-10
-1.00973e-10
-1.40226e-18
9.15435e-11
-8.74025e-11
-8.92204e-19
7.95835e-11
-7.51901e-11
-2.15972e-18
6.84673e-11
-6.42813e-11
-3.6169e-18
5.82426e-11
-5.46188e-11
1.60432e-18
4.89255e-11
-4.61164e-11
1.28413e-18
4.05064e-11
-3.86768e-11
1.25435e-18
3.29564e-11
-3.21995e-11
1.69209e-18
2.6234e-11
-2.65818e-11
1.76471e-18
2.02883e-11
-2.17244e-11
1.92216e-18
1.50645e-11
-1.75302e-11
1.91438e-18
1.05061e-11
-1.39098e-11
1.96255e-18
6.55699e-12
-1.07792e-11
1.93193e-18
3.16441e-12
-8.06055e-12
1.89628e-18
2.7704e-13
-5.68852e-12
1.82506e-18
-2.14997e-12
-3.59586e-12
1.74509e-18
-4.15828e-12
-1.72915e-12
1.64669e-18
-5.78378e-12
-3.72699e-14
1.53663e-18
-7.05779e-12
1.5223e-12
1.419e-18
-8.0077e-12
2.98861e-12
1.29852e-18
-8.65609e-12
4.39101e-12
1.15113e-18
-9.0223e-12
5.75598e-12
1.12394e-18
-9.1229e-12
7.09868e-12
1.13922e-18
-8.97274e-12
8.427e-12
1.18906e-18
-8.58582e-12
9.73863e-12
1.22005e-18
-7.97752e-12
1.10079e-11
1.26212e-18
-7.16621e-12
1.21926e-11
1.15322e-18
-6.17616e-12
1.32177e-11
1.14757e-18
-5.04153e-12
1.39591e-11
1.07387e-18
-3.81127e-12
1.42318e-11
9.80627e-19
-2.55625e-12
1.37706e-11
8.54e-19
-1.38078e-12
1.22016e-11
5.57801e-19
-4.43423e-13
9.04828e-12
3.48965e-19
3.75582e-12
1.03514e-19
1.39035e-10
-1.34337e-10
-2.51807e-18
1.24086e-10
-1.17152e-10
2.59371e-19
1.09646e-10
-1.01446e-10
-1.48691e-18
9.59293e-11
-8.72559e-11
-6.08502e-19
8.30837e-11
-7.45566e-11
-1.89073e-18
7.11992e-11
-6.33054e-11
-1.71558e-18
6.03221e-11
-5.34041e-11
-4.32761e-18
5.04602e-11
-4.47571e-11
1.42219e-18
4.15944e-11
-3.72506e-11
5.41431e-19
3.36848e-11
-3.07671e-11
1.08985e-18
2.66776e-11
-2.51923e-11
1.16864e-18
2.05111e-11
-2.04152e-11
1.56703e-18
1.51187e-11
-1.6332e-11
1.53898e-18
1.04338e-11
-1.28454e-11
1.70867e-18
6.39118e-12
-9.86712e-12
1.66929e-18
2.92884e-12
-7.3169e-12
1.732e-18
-9.89055e-15
-5.12183e-12
1.65937e-18
-2.47817e-12
-3.22025e-12
1.63655e-18
-4.52181e-12
-1.55226e-12
1.54614e-18
-6.18213e-12
-6.88349e-14
1.47644e-18
-7.49423e-12
1.2748e-12
1.37005e-18
-8.48812e-12
2.51611e-12
1.27284e-18
-9.18937e-12
3.68989e-12