/*--------------------------------*- C++ -*----------------------------------*\
| =========                 |                                                 |
| \\      /  F ield         | OpenFOAM: The Open Source CFD Toolbox           |
|  \\    /   O peration     | Version:  v2012                                 |
|   \\  /    A nd           | Website:  www.openfoam.com                      |
|    \\/     M anipulation  |                                                 |
\*---------------------------------------------------------------------------*/
FoamFile
{
    version     2.0;
    format      ascii;
    class       volVectorField;
    location    "0.75";
    object      U;
}
// * * * * * * * * * * * * * * * * * * * * * * * * * * * * * * * * * * * * * //

dimensions      [0 1 -1 0 0 0 0];


internalField   nonuniform List<vector> 
2664
(
(0.00416238 -0.00851646 -3.63301e-05)
(0.00406493 -0.00787108 -3.54799e-05)
(0.00394214 -0.00723911 -3.44084e-05)
(0.00379648 -0.00662502 -3.31374e-05)
(0.00363081 -0.00603283 -3.16917e-05)
(0.00344824 -0.00546603 -3.00984e-05)
(0.00325205 -0.0049275 -2.83864e-05)
(0.00304564 -0.00441956 -2.65849e-05)
(0.00283234 -0.00394382 -2.47233e-05)
(0.00261541 -0.00350131 -2.28301e-05)
(0.00239793 -0.00309245 -2.0932e-05)
(0.00218274 -0.00271709 -1.90538e-05)
(0.00197235 -0.00237461 -1.72175e-05)
(0.00176898 -0.00206394 -1.54424e-05)
(0.00157446 -0.00178368 -1.37445e-05)
(0.00139027 -0.00153217 -1.21368e-05)
(0.00121758 -0.00130756 -1.06294e-05)
(0.00105717 -0.00110786 -9.22923e-06)
(0.000909541 -0.00093102 -7.94054e-06)
(0.000774907 -0.000775017 -6.76529e-06)
(0.00065325 -0.000637865 -5.70329e-06)
(0.000544365 -0.000517692 -4.75278e-06)
(0.000447841 -0.000412706 -3.91014e-06)
(0.000363156 -0.000321284 -3.17085e-06)
(0.000289687 -0.000241969 -2.52945e-06)
(0.000226729 -0.00017347 -1.9798e-06)
(0.000173528 -0.000114683 -1.51532e-06)
(0.000129288 -6.46842e-05 -1.12906e-06)
(9.3201e-05 -2.27596e-05 -8.13975e-07)
(6.44537e-05 1.15928e-05 -5.62959e-07)
(4.22265e-05 3.8653e-05 -3.68863e-07)
(2.57038e-05 5.8439e-05 -2.24569e-07)
(1.40756e-05 7.06705e-05 -1.23005e-07)
(6.51995e-06 7.46956e-05 -5.70008e-08)
(2.21709e-06 6.94163e-05 -1.93996e-08)
(2.94005e-07 5.307e-05 -2.58376e-09)
(-9.23877e-08 2.31519e-05 8.03518e-10)
(0.00437319 -0.00866302 -3.81702e-05)
(0.00425628 -0.00797892 -3.71502e-05)
(0.00411317 -0.00731216 -3.59014e-05)
(0.00394681 -0.00666733 -3.44497e-05)
(0.0037605 -0.00604854 -3.28238e-05)
(0.00355775 -0.00545924 -3.10545e-05)
(0.00334224 -0.00490218 -2.91738e-05)
(0.00311765 -0.00437947 -2.72137e-05)
(0.00288758 -0.00389245 -2.52057e-05)
(0.00265549 -0.00344182 -2.31801e-05)
(0.00242455 -0.00302764 -2.11645e-05)
(0.00219767 -0.00264939 -1.91842e-05)
(0.00197736 -0.00230608 -1.72613e-05)
(0.00176577 -0.00199627 -1.54145e-05)
(0.00156466 -0.00171822 -1.36591e-05)
(0.00137539 -0.00146993 -1.2007e-05)
(0.00119896 -0.0012493 -1.0467e-05)
(0.00103602 -0.00105406 -9.04462e-06)
(0.000886882 -0.000881976 -7.74279e-06)
(0.000751618 -0.000730842 -6.56203e-06)
(0.00063005 -0.000598535 -5.5008e-06)
(0.000521831 -0.000483074 -4.55608e-06)
(0.000426419 -0.000382586 -3.72315e-06)
(0.00034318 -0.000295392 -2.99647e-06)
(0.00027139 -0.000219996 -2.36973e-06)
(0.000210262 -0.000155085 -1.83604e-06)
(0.000158971 -9.95444e-05 -1.38824e-06)
(0.000116665 -5.24498e-05 -1.01886e-06)
(8.24921e-05 -1.30924e-05 -7.20477e-07)
(5.56006e-05 1.90203e-05 -4.8566e-07)
(3.51417e-05 4.4156e-05 -3.06999e-07)
(2.02737e-05 6.23198e-05 -1.77149e-07)
(1.01603e-05 7.322e-05 -8.88092e-08)
(3.95247e-06 7.61951e-05 -3.45709e-08)
(7.88175e-07 7.01412e-05 -6.91099e-09)
(-2.52879e-07 5.32926e-05 2.20551e-09)
(-1.25062e-07 2.3141e-05 1.17819e-09)
(0.00459227 -0.0088036 -4.00826e-05)
(0.00445338 -0.00807879 -3.88706e-05)
(0.00428759 -0.00737578 -3.7424e-05)
(0.00409839 -0.00669932 -3.5773e-05)
(0.00388955 -0.00605351 -3.39504e-05)
(0.00366503 -0.00544168 -3.19911e-05)
(0.00342889 -0.00486641 -2.99304e-05)
(0.00318513 -0.00432951 -2.78029e-05)
(0.00293759 -0.00383199 -2.56424e-05)
(0.00268987 -0.00337415 -2.34803e-05)
(0.00244526 -0.00295564 -2.13454e-05)
(0.00220667 -0.00257551 -1.9263e-05)
(0.0019766 -0.00223235 -1.72548e-05)
(0.00175708 -0.00192433 -1.53388e-05)
(0.00154976 -0.00164933 -1.35291e-05)
(0.00135584 -0.00140505 -1.18364e-05)
(0.00117616 -0.00118905 -1.0268e-05)
(0.00101117 -0.000998859 -8.82779e-06)
(0.000861017 -0.000832012 -7.51706e-06)
(0.000725587 -0.00068614 -6.33483e-06)
(0.000604541 -0.00055899 -5.27815e-06)
(0.000497382 -0.000448483 -4.34268e-06)
(0.000403436 -0.000352676 -3.52253e-06)
(0.00032195 -0.000269841 -2.81115e-06)
(0.000252105 -0.000198455 -2.20138e-06)
(0.000193031 -0.000137187 -1.68562e-06)
(0.000143836 -8.49225e-05 -1.25611e-06)
(0.000103616 -4.0741e-05 -9.04935e-07)
(7.14769e-05 -3.944e-06 -6.24305e-07)
(4.65349e-05 2.59477e-05 -4.06503e-07)
(2.79145e-05 4.91869e-05 -2.43891e-07)
(1.47527e-05 6.57648e-05 -1.28934e-07)
(6.18994e-06 7.53778e-05 -5.41311e-08)
(1.35357e-06 7.73563e-05 -1.18664e-08)
(-6.56921e-07 7.05933e-05 5.71907e-09)
(-8.06351e-07 5.33267e-05 7.05247e-09)
(-1.58505e-07 2.30535e-05 1.56078e-09)
(0.00481923 -0.00893627 -4.20637e-05)
(0.00465557 -0.00816879 -4.06357e-05)
(0.00446456 -0.00742823 -3.89689e-05)
(0.00425023 -0.00671939 -3.70985e-05)
(0.00401689 -0.00604632 -3.50622e-05)
(0.00376898 -0.00541217 -3.28987e-05)
(0.00351093 -0.00481923 -3.06466e-05)
(0.00324704 -0.00426894 -2.83435e-05)
(0.00298139 -0.0037619 -2.60249e-05)
(0.0027177 -0.00329793 -2.37234e-05)
(0.00245931 -0.00287622 -2.14682e-05)
(0.00220913 -0.00249534 -1.92845e-05)
(0.00196954 -0.00215341 -1.71933e-05)
(0.0017425 -0.00184818 -1.52115e-05)
(0.00152945 -0.00157715 -1.33519e-05)
(0.00133141 -0.00133766 -1.16232e-05)
(0.00114903 -0.001127 -1.00312e-05)
(0.000982544 -0.000942431 -8.57795e-06)
(0.000831906 -0.000781297 -7.26298e-06)
(0.000696812 -0.00064107 -6.08367e-06)
(0.000576748 -0.000519377 -5.03555e-06)
(0.000471062 -0.000414051 -4.11293e-06)
(0.000378945 -0.000323089 -3.30874e-06)
(0.000299528 -0.000244729 -2.61542e-06)
(0.000231895 -0.000177425 -2.02495e-06)
(0.000175097 -0.000119843 -1.52906e-06)
(0.000128181 -7.08702e-05 -1.11943e-06)
(9.01927e-05 -2.95994e-05 -7.87739e-07)
(6.02014e-05 4.65358e-06 -5.25858e-07)
(3.72952e-05 3.23511e-05 -3.25828e-07)
(2.0577e-05 5.37288e-05 -1.79819e-07)
(9.16548e-06 6.87624e-05 -8.01412e-08)
(2.18261e-06 7.71363e-05 -1.91303e-08)
(-1.2645e-06 7.81745e-05 1.10058e-08)
(-2.11126e-06 7.07701e-05 1.84299e-08)
(-1.36371e-06 5.31704e-05 1.19335e-08)
(-1.9255e-07 2.28888e-05 1.9494e-09)
(0.00505348 -0.00905883 -4.41085e-05)
(0.004862 -0.00824682 -4.24377e-05)
(0.004643 -0.00746756 -4.05266e-05)
(0.00440114 -0.00672582 -3.84159e-05)
(0.00414127 -0.0060255 -3.61481e-05)
(0.00386833 -0.00536948 -3.37661e-05)
(0.00358712 -0.00475966 -3.13119e-05)
(0.00330224 -0.00419702 -2.88255e-05)
(0.00301794 -0.00368164 -2.63441e-05)
(0.00273805 -0.00321283 -2.39013e-05)
(0.00246592 -0.0027892 -2.15261e-05)
(0.00220437 -0.00240882 -1.92432e-05)
(0.00195569 -0.0020693 -1.70725e-05)
(0.00172162 -0.00176794 -1.50294e-05)
(0.00150342 -0.00150183 -1.31248e-05)
(0.00130189 -0.00126797 -1.13656e-05)
(0.00111744 -0.00106334 -9.75552e-06)
(0.000950073 -0.000884975 -8.29455e-06)
(0.000799533 -0.000730023 -6.98042e-06)
(0.000665312 -0.000595809 -5.80872e-06)
(0.000546716 -0.000479853 -4.77341e-06)
(0.000442934 -0.000379915 -3.8674e-06)
(0.000353018 -0.000293945 -3.08242e-06)
(0.000275988 -0.000220154 -2.40993e-06)
(0.000210834 -0.000156988 -1.84109e-06)
(0.000156532 -0.000103118 -1.36698e-06)
(0.000112071 -5.74398e-05 -9.78783e-07)
(7.6453e-05 -1.90653e-05 -6.67783e-07)
(4.8716e-05 1.26702e-05 -4.25578e-07)
(2.79243e-05 3.82088e-05 -2.44005e-07)
(1.31636e-05 5.77665e-05 -1.15084e-07)
(3.53915e-06 7.13026e-05 -3.10065e-08)
(-1.84188e-06 7.84898e-05 1.60205e-08)
(-3.88855e-06 7.86467e-05 3.39302e-08)
(-3.56734e-06 7.06701e-05 3.11561e-08)
(-1.92203e-06 5.28233e-05 1.68228e-08)
(-2.27017e-07 2.26463e-05 2.34197e-09)
(0.00529414 -0.00916876 -4.62094e-05)
(0.00507153 -0.00831053 -4.42668e-05)
(0.00482159 -0.00749163 -4.20857e-05)
(0.00454967 -0.00671675 -3.97127e-05)
(0.00426121 -0.00598949 -3.71953e-05)
(0.00396162 -0.00531234 -3.45806e-05)
(0.00365608 -0.00468672 -3.19141e-05)
(0.00334945 -0.00411303 -2.92379e-05)
(0.00304612 -0.00359076 -2.65903e-05)
(0.00274996 -0.00311857 -2.40054e-05)
(0.00246428 -0.00269448 -2.15119e-05)
(0.00219176 -0.00231597 -1.91332e-05)
(0.00193451 -0.00198013 -1.68878e-05)
(0.00169406 -0.00168378 -1.47889e-05)
(0.00147141 -0.00142359 -1.28455e-05)
(0.00126711 -0.00119619 -1.10621e-05)
(0.00108129 -0.000998306 -9.44006e-06)
(0.000913725 -0.000826715 -7.9773e-06)
(0.000763912 -0.000678397 -6.66951e-06)
(0.000631136 -0.000550545 -5.51041e-06)
(0.000514516 -0.000440587 -4.49233e-06)
(0.000413079 -0.00034622 -3.60679e-06)
(0.000325745 -0.000265365 -2.84434e-06)
(0.000251422 -0.000196218 -2.19547e-06)
(0.00018901 -0.000137228 -1.65057e-06)
(0.000137416 -8.70766e-05 -1.2001e-06)
(9.55787e-05 -4.46818e-05 -8.34801e-07)
(6.24618e-05 -9.17687e-06 -5.45629e-07)
(3.70761e-05 2.0078e-05 -3.23949e-07)
(1.84683e-05 4.35012e-05 -1.61439e-07)
(5.71172e-06 6.12873e-05 -5.0013e-08)
(-2.0974e-06 7.3378e-05 1.82177e-08)
(-5.86236e-06 7.94344e-05 5.11364e-08)
(-6.50443e-06 7.87715e-05 5.67833e-08)
(-5.01712e-06 7.02932e-05 4.38271e-08)
(-2.47814e-06 5.22856e-05 2.16929e-08)
(-2.61701e-07 2.23262e-05 2.7362e-09)
(0.00554006 -0.00926321 -4.83561e-05)
(0.00528271 -0.00835729 -4.61104e-05)
(0.00499871 -0.00749815 -4.3632e-05)
(0.00469412 -0.00669019 -4.09738e-05)
(0.00437499 -0.00593666 -3.81887e-05)
(0.00404721 -0.00523949 -3.5328e-05)
(0.00371629 -0.00459946 -3.24399e-05)
(0.00338731 -0.00401633 -2.95685e-05)
(0.00306473 -0.00348883 -2.6753e-05)
(0.00275242 -0.00301494 -2.40271e-05)
(0.00245355 -0.00259201 -2.14184e-05)
(0.00217063 -0.00221689 -1.8949e-05)
(0.00190552 -0.00188608 -1.66349e-05)
(0.00165947 -0.00159592 -1.44871e-05)
(0.0014332 -0.00134267 -1.2512e-05)
(0.00122693 -0.0011226 -1.07114e-05)
(0.00104054 -0.00093216 -9.08435e-06)
(0.000873505 -0.000767901 -7.62625e-06)
(0.000725091 -0.00062665 -6.33065e-06)
(0.00059436 -0.000505483 -5.18939e-06)
(0.000480242 -0.000401753 -4.19315e-06)
(0.000381604 -0.000313115 -3.33203e-06)
(0.000297234 -0.000237473 -2.59545e-06)
(0.000225934 -0.000173022 -1.97296e-06)
(0.000166521 -0.000118224 -1.45424e-06)
(0.000117841 -7.17835e-05 -1.0292e-06)
(7.87861e-05 -3.26445e-05 -6.88192e-07)
(4.82896e-05 3.01612e-08 -4.21893e-07)
(2.53418e-05 2.68515e-05 -2.21494e-07)
(8.97688e-06 4.82114e-05 -7.85632e-08)
(-1.73872e-06 6.42807e-05 1.50463e-08)
(-7.7133e-06 7.49831e-05 6.72619e-08)
(-9.85629e-06 7.99682e-05 8.60207e-08)
(-9.09711e-06 7.85494e-05 7.94338e-08)
(-6.45201e-06 6.96412e-05 5.63681e-08)
(-3.02866e-06 5.15588e-05 2.6514e-08)
(-2.96378e-07 2.19288e-05 3.12956e-09)
(0.00578963 -0.00933898 -5.05348e-05)
(0.00549369 -0.00838424 -4.79522e-05)
(0.00517237 -0.0074846 -4.51481e-05)
(0.00483246 -0.00664409 -4.21817e-05)
(0.00448065 -0.00586535 -3.91112e-05)
(0.00412324 -0.00514965 -3.59919e-05)
(0.00376606 -0.004497 -3.28746e-05)
(0.00341432 -0.00390632 -2.98046e-05)
(0.00307251 -0.00337554 -2.68211e-05)
(0.00274438 -0.00290186 -2.39571e-05)
(0.00243291 -0.00248186 -2.12384e-05)
(0.00214036 -0.00211173 -1.86848e-05)
(0.00186826 -0.0017874 -1.63097e-05)
(0.00161754 -0.00150468 -1.41212e-05)
(0.00138858 -0.0012594 -1.21226e-05)
(0.00118127 -0.00104752 -1.03129e-05)
(0.000995161 -0.000865203 -8.6883e-06)
(0.000829455 -0.000708812 -7.24176e-06)
(0.000683153 -0.000575028 -5.96458e-06)
(0.000555093 -0.000460836 -4.84663e-06)
(0.000444018 -0.000363536 -3.87694e-06)
(0.000348636 -0.000280755 -3.04424e-06)
(0.000267611 -0.000210395 -2.33685e-06)
(0.000199644 -0.000150667 -1.74346e-06)
(0.000143479 -0.000100056 -1.25308e-06)
(9.7907e-05 -5.72992e-05 -8.55171e-07)
(6.17814e-05 -2.13734e-05 -5.3973e-07)
(3.40128e-05 8.52305e-06 -2.97243e-07)
(1.35775e-05 3.29684e-05 -1.18776e-07)
(-4.9676e-07 5.23251e-05 4.15834e-09)
(-9.14526e-06 6.6739e-05 7.97226e-08)
(-1.32759e-05 7.61149e-05 1.15841e-07)
(-1.37999e-05 8.00918e-05 1.20466e-07)
(-1.16507e-05 7.79829e-05 1.01743e-07)
(-7.86295e-06 6.87169e-05 6.86997e-08)
(-3.56998e-06 5.06454e-05 3.12545e-08)
(-3.30801e-07 2.14552e-05 3.51929e-09)
(0.00604084 -0.00939248 -5.27279e-05)
(0.00570221 -0.00838823 -4.97727e-05)
(0.0053402 -0.00744835 -4.66133e-05)
(0.00496235 -0.00657628 -4.33157e-05)
(0.00457592 -0.00577391 -3.99432e-05)
(0.00418764 -0.00504163 -3.65544e-05)
(0.00380354 -0.00437852 -3.32021e-05)
(0.0034289 -0.00378254 -2.99321e-05)
(0.00306813 -0.00325071 -2.67831e-05)
(0.00272477 -0.00277933 -2.37861e-05)
(0.00240153 -0.0023642 -2.09647e-05)
(0.00210032 -0.0020008 -1.83355e-05)
(0.0018223 -0.00168443 -1.59087e-05)
(0.00156801 -0.00141041 -1.36889e-05)
(0.00133742 -0.00117416 -1.16761e-05)
(0.00113009 -0.000971311 -9.86618e-06)
(0.000945201 -0.000797773 -8.25222e-06)
(0.000781667 -0.000649747 -6.82463e-06)
(0.000638222 -0.000523795 -5.57238e-06)
(0.000513479 -0.000416833 -4.48338e-06)
(0.000405996 -0.000326125 -3.54503e-06)
(0.000314329 -0.000249294 -2.74475e-06)
(0.000237022 -0.000184256 -2.06982e-06)
(0.00017269 -0.000129252 -1.50815e-06)
(0.000120009 -8.28018e-05 -1.04818e-06)
(7.77242e-05 -4.36814e-05 -6.78966e-07)
(4.46609e-05 -1.09106e-05 -3.90256e-07)
(1.97137e-05 1.62725e-05 -1.72397e-07)
(1.85209e-06 3.84096e-05 -1.63972e-08)
(-9.89637e-06 5.58314e-05 8.62341e-08)
(-1.64631e-05 6.86572e-05 1.43625e-07)
(-1.87509e-05 7.67731e-05 1.63655e-07)
(-1.76682e-05 7.98077e-05 1.54253e-07)
(-1.41485e-05 7.70764e-05 1.23565e-07)
(-9.24039e-06 6.75254e-05 8.07386e-08)
(-4.09829e-06 4.95493e-05 3.5881e-08)
(-3.647e-07 2.09069e-05 3.90238e-09)
(0.00629106 -0.00941979 -5.49123e-05)
(0.00590549 -0.00836588 -5.15474e-05)
(0.00549938 -0.0073866 -4.80032e-05)
(0.00508105 -0.00648458 -4.43522e-05)
(0.00465829 -0.0056607 -4.06625e-05)
(0.00423813 -0.00491429 -3.69954e-05)
(0.00382676 -0.00424332 -3.3405e-05)
(0.00342939 -0.00364465 -2.99366e-05)
(0.00305023 -0.00311427 -2.66271e-05)
(0.00269253 -0.00264751 -2.35049e-05)
(0.00235862 -0.00223933 -2.05903e-05)
(0.00204997 -0.00188446 -1.78961e-05)
(0.00176729 -0.00157761 -1.54286e-05)
(0.00151067 -0.00131357 -1.31885e-05)
(0.00127966 -0.00108738 -1.1172e-05)
(0.00107341 -0.00089437 -9.37148e-06)
(0.000890752 -0.000730235 -7.77696e-06)
(0.000730281 -0.00059103 -6.37609e-06)
(0.000590466 -0.00047323 -5.15551e-06)
(0.000469701 -0.000373706 -4.10122e-06)
(0.00036636 -0.000289714 -3.19902e-06)
(0.000278859 -0.000218889 -2.43511e-06)
(0.000205636 -0.000159183 -1.79581e-06)
(0.000145225 -0.000108874 -1.26837e-06)
(9.62468e-05 -6.65332e-05 -8.40727e-07)
(5.7413e-05 -3.0984e-05 -5.01637e-07)
(2.75283e-05 -1.29413e-06 -2.40674e-07)
(5.47999e-06 2.32532e-05 -4.81214e-08)
(-9.76155e-06 4.31598e-05 8.50069e-08)
(-1.91627e-05 5.87226e-05 1.67147e-07)
(-2.36454e-05 7.00337e-05 2.06344e-07)
(-2.41024e-05 7.696e-05 2.10392e-07)
(-2.14353e-05 7.91212e-05 1.87157e-07)
(-1.65732e-05 7.58364e-05 1.44748e-07)
(-1.05744e-05 6.60731e-05 9.23976e-08)
(-4.60957e-06 4.82755e-05 4.03584e-08)
(-3.9778e-07 2.02859e-05 4.27559e-09)
(0.00653709 -0.00941658 -5.70602e-05)
(0.00610018 -0.00831358 -5.32472e-05)
(0.00564662 -0.00729649 -4.92889e-05)
(0.00518545 -0.0063668 -4.52639e-05)
(0.00472491 -0.00552419 -4.12444e-05)
(0.00427223 -0.00476666 -3.72934e-05)
(0.0038336 -0.00409088 -3.34651e-05)
(0.00341404 -0.0034925 -2.9803e-05)
(0.00301745 -0.00296633 -2.63412e-05)
(0.00264664 -0.00250671 -2.31045e-05)
(0.00230345 -0.00210768 -2.01089e-05)
(0.00198882 -0.00176324 -1.73625e-05)
(0.00170295 -0.00146746 -1.48671e-05)
(0.00144542 -0.00121468 -1.2619e-05)
(0.00121531 -0.000999558 -1.06103e-05)
(0.00101134 -0.000817153 -8.82967e-06)
(0.000831974 -0.000662987 -7.26389e-06)
(0.000675495 -0.000533005 -5.89785e-06)
(0.000540103 -0.000423622 -4.71587e-06)
(0.000423977 -0.000331696 -3.70208e-06)
(0.000325325 -0.000254497 -2.8408e-06)
(0.000242431 -0.000189697 -2.11709e-06)
(0.000173639 -0.000135294 -1.51648e-06)
(0.000117416 -8.96263e-05 -1.02559e-06)
(7.23419e-05 -5.13193e-05 -6.32026e-07)
(3.71027e-05 -1.92559e-05 -3.24315e-07)
(1.0494e-05 7.44278e-06 -9.19492e-08)
(-8.59539e-06 2.94442e-05 7.47735e-08)
(-2.11868e-05 4.72076e-05 1.84767e-07)
(-2.82338e-05 6.09947e-05 2.46355e-07)
(-3.06433e-05 7.08697e-05 2.67454e-07)
(-2.92933e-05 7.66809e-05 2.55726e-07)
(-2.50741e-05 7.80398e-05 2.1894e-07)
(-1.89067e-05 7.42716e-05 1.65135e-07)
(-1.18545e-05 6.43684e-05 1.03586e-07)
(-5.0996e-06 4.68304e-05 4.46498e-08)
(-4.2972e-07 1.95948e-05 4.63539e-09)
(0.00677485 -0.00937821 -5.9136e-05)
(0.00628224 -0.00822758 -5.48368e-05)
(0.00577809 -0.00717512 -5.04368e-05)
(0.00527204 -0.00622087 -4.60201e-05)
(0.00477266 -0.00536298 -4.16616e-05)
(0.00428727 -0.00459793 -3.74251e-05)
(0.00382186 -0.0039209 -3.33629e-05)
(0.00338112 -0.00332614 -2.95158e-05)
(0.00296846 -0.00280723 -2.59138e-05)
(0.00258613 -0.00235742 -2.25765e-05)
(0.00223536 -0.00196985 -1.95147e-05)
(0.00191649 -0.00163776 -1.67312e-05)
(0.00162911 -0.00135463 -1.42226e-05)
(0.00137224 -0.00111434 -1.19803e-05)
(0.00114446 -0.000911239 -9.99188e-06)
(0.000944049 -0.000740148 -8.24233e-06)
(0.000769098 -0.000596456 -6.71505e-06)
(0.000617565 -0.000476031 -5.39216e-06)
(0.000487397 -0.000375271 -4.25578e-06)
(0.000376572 -0.000291047 -3.28824e-06)
(0.000283141 -0.00022067 -2.47254e-06)
(0.000205275 -0.000161868 -1.79272e-06)
(0.000141239 -0.000112708 -1.23362e-06)
(8.94494e-05 -7.15941e-05 -7.81433e-07)
(4.84553e-05 -3.72224e-05 -4.23482e-07)
(1.69318e-05 -8.54019e-06 -1.48208e-07)
(-6.32475e-06 1.52723e-05 5.48956e-08)
(-2.24148e-05 3.48296e-05 1.95435e-07)
(-3.23436e-05 5.05464e-05 2.82184e-07)
(-3.70452e-05 6.26479e-05 3.23298e-07)
(-3.74063e-05 7.11704e-05 3.26513e-07)
(-3.42853e-05 7.59441e-05 2.99322e-07)
(-2.8557e-05 7.6574e-05 2.49362e-07)
(-2.11306e-05 7.23931e-05 1.84564e-07)
(-1.307e-05 6.24216e-05 1.1421e-07)
(-5.564e-06 4.52217e-05 4.87167e-08)
(-4.60172e-07 1.88369e-05 4.97799e-09)
(0.0069996 -0.00929972 -6.10983e-05)
(0.00644702 -0.00810401 -5.62756e-05)
(0.00588941 -0.00701964 -5.1409e-05)
(0.00533688 -0.00604484 -4.65866e-05)
(0.00479817 -0.00517593 -4.18847e-05)
(0.00428042 -0.00440759 -3.73656e-05)
(0.00378927 -0.00373332 -3.30787e-05)
(0.00332887 -0.00314588 -2.906e-05)
(0.00290198 -0.00263751 -2.53337e-05)
(0.00251013 -0.00220035 -2.19133e-05)
(0.00215384 -0.0018266 -1.88032e-05)
(0.00183272 -0.00150879 -1.60001e-05)
(0.00154571 -0.00123984 -1.34947e-05)
(0.00129123 -0.00101324 -1.12732e-05)
(0.00106732 -0.000823032 -9.31857e-06)
(0.00087182 -0.000663885 -7.61185e-06)
(0.000702434 -0.000531088 -6.13312e-06)
(0.000556815 -0.000420483 -4.86185e-06)
(0.000432669 -0.000328481 -3.77803e-06)
(0.000327788 -0.000252001 -2.86237e-06)
(0.00024009 -0.000188423 -2.09671e-06)
(0.000167647 -0.00013555 -1.46422e-06)
(0.000108665 -9.15321e-05 -9.49238e-07)
(6.15239e-05 -5.48576e-05 -5.3763e-07)
(2.47592e-05 -2.42983e-05 -2.16599e-07)
(-2.9532e-06 1.12647e-06 2.54056e-08)
(-2.2805e-05 2.21726e-05 1.98786e-07)
(-3.58765e-05 3.9399e-05 3.12974e-07)
(-4.3149e-05 5.31741e-05 3.76534e-07)
(-4.55308e-05 6.36862e-05 3.97395e-07)
(-4.38827e-05 7.09442e-05 3.83069e-07)
(-3.90391e-05 7.47612e-05 3.4084e-07)
(-3.18556e-05 7.47367e-05 2.78174e-07)
(-2.32259e-05 7.02141e-05 2.0287e-07)
(-1.421e-05 6.02448e-05 1.24174e-07)
(-5.99822e-06 4.34587e-05 5.25194e-08)
(-4.88759e-07 1.8016e-05 5.29932e-09)
(0.00720535 -0.00917604 -6.28948e-05)
(0.00658895 -0.00793906 -5.75151e-05)
(0.0059756 -0.0068274 -5.21618e-05)
(0.00537567 -0.00583706 -4.69256e-05)
(0.0047978 -0.0049622 -4.18819e-05)
(0.00424876 -0.00419544 -3.70896e-05)
(0.00373357 -0.00352845 -3.25929e-05)
(0.00325563 -0.00295235 -2.8421e-05)
(0.00281686 -0.002458 -2.45909e-05)
(0.00241794 -0.0020364 -2.11087e-05)
(0.00205851 -0.00167887 -1.79712e-05)
(0.00173741 -0.00137724 -1.51682e-05)
(0.00145285 -0.00112395 -1.26842e-05)
(0.00120262 -0.000912122 -1.04997e-05)
(0.000984222 -0.000735595 -8.59317e-06)
(0.000795022 -0.000588921 -6.94147e-06)
(0.000632374 -0.000467349 -5.52154e-06)
(0.000493635 -0.000366738 -4.31032e-06)
(0.000376292 -0.000283555 -3.28587e-06)
(0.000277975 -0.000214798 -2.42751e-06)
(0.000196488 -0.000157939 -1.71606e-06)
(0.000129829 -0.000110879 -1.13406e-06)
(7.61629e-05 -7.18686e-05 -6.65485e-07)
(3.38536e-05 -3.94876e-05 -2.96052e-07)
(1.43632e-06 -1.25941e-05 -1.29727e-08)
(-2.23981e-05 9.71509e-06 1.95179e-07)
(-3.88182e-05 2.81286e-05 3.38601e-07)
(-4.88748e-05 4.31477e-05 4.26469e-07)
(-5.35175e-05 5.50938e-05 4.6707e-07)
(-5.36225e-05 6.41185e-05 4.68054e-07)
(-5.00195e-05 7.02037e-05 4.36661e-07)
(-4.35148e-05 7.31468e-05 3.7993e-07)
(-3.49413e-05 7.25437e-05 3.05127e-07)
(-2.51734e-05 6.77503e-05 2.19884e-07)
(-1.52633e-05 5.7852e-05 1.3338e-07)
(-6.39757e-06 4.15519e-05 5.60167e-08)
(-5.15072e-07 1.71367e-05 5.59497e-09)
(0.00738545 -0.0090019 -6.44675e-05)
(0.00670187 -0.00772902 -5.85013e-05)
(0.00603119 -0.00659602 -5.26476e-05)
(0.00538375 -0.00559626 -4.69967e-05)
(0.00476777 -0.00472139 -4.16202e-05)
(0.00418934 -0.00396174 -3.65713e-05)
(0.00365257 -0.00330697 -3.18861e-05)
(0.00315988 -0.0027465 -2.75854e-05)
(0.00271214 -0.00226979 -2.3677e-05)
(0.00230902 -0.00186673 -2.01581e-05)
(0.0019492 -0.00152779 -1.70171e-05)
(0.00163065 -0.00124417 -1.42363e-05)
(0.00135081 -0.00100789 -1.17935e-05)
(0.00110681 -0.000811812 -9.66338e-06)
(0.000895608 -0.000649628 -7.81964e-06)
(0.000714137 -0.00051584 -6.23539e-06)
(0.000559399 -0.000405715 -4.8845e-06)
(0.000428488 -0.000315178 -3.7416e-06)
(0.000318698 -0.000240792 -2.78308e-06)
(0.000227524 -0.000179666 -1.98707e-06)
(0.000152684 -0.000129391 -1.33365e-06)
(9.21279e-05 -8.79833e-05 -8.04919e-07)
(4.39998e-05 -5.38065e-05 -3.84685e-07)
(6.6661e-06 -2.55445e-05 -5.86863e-08)
(-2.13209e-05 -2.1478e-06 1.85718e-07)
(-4.1242e-05 1.7205e-05 3.59706e-07)
(-5.42314e-05 3.31327e-05 4.73178e-07)
(-6.13012e-05 4.60777e-05 5.34971e-07)
(-6.33617e-05 5.63143e-05 5.53029e-07)
(-6.12511e-05 6.3958e-05 5.34669e-07)
(-5.57632e-05 6.89651e-05 4.8682e-07)
(-4.76723e-05 7.11189e-05 4.1624e-07)
(-3.77849e-05 7.00137e-05 3.29966e-07)
(-2.69535e-05 6.50197e-05 2.35438e-07)
(-1.62183e-05 5.52594e-05 1.41728e-07)
(-6.75723e-06 3.95134e-05 5.91664e-08)
(-5.3867e-07 1.62042e-05 5.86025e-09)
(0.0075316 -0.00877237 -6.5744e-05)
(0.00677855 -0.00747062 -5.91714e-05)
(0.0060501 -0.00632365 -5.28133e-05)
(0.00535618 -0.00532173 -4.67565e-05)
(0.00470423 -0.00445364 -4.1066e-05)
(0.00409927 -0.00370723 -3.57855e-05)
(0.00354425 -0.00307003 -3.09409e-05)
(0.00304031 -0.00252969 -2.65419e-05)
(0.0025871 -0.00207432 -2.25857e-05)
(0.00218312 -0.00169274 -1.90592e-05)
(0.00182599 -0.00137466 -1.59417e-05)
(0.00151275 -0.00111075 -1.32072e-05)
(0.00124004 -0.000892695 -1.08266e-05)
(0.00100434 -0.000713188 -8.76893e-06)
(0.000802076 -0.000565861 -7.00317e-06)
(0.000629762 -0.000445238 -5.49884e-06)
(0.000484083 -0.000346663 -4.22702e-06)
(0.000361909 -0.000266178 -3.16037e-06)
(0.000260373 -0.000200482 -2.2739e-06)
(0.00017687 -0.000146824 -1.54485e-06)
(0.000109061 -0.000102938 -9.52805e-07)
(5.48741e-05 -6.69749e-05 -4.79676e-07)
(1.24581e-05 -3.74227e-05 -1.09306e-07)
(-1.97991e-05 -1.30771e-05 1.72377e-07)
(-4.33116e-05 7.01323e-06 3.77719e-07)
(-5.93184e-05 2.35848e-05 5.17535e-07)
(-6.89079e-05 3.7185e-05 6.01325e-07)
(-7.30447e-05 4.81975e-05 6.37511e-07)
(-7.25928e-05 5.68499e-05 6.33635e-07)
(-6.83466e-05 6.32228e-05 5.96631e-07)
(-6.10599e-05 6.72489e-05 5.33077e-07)
(-5.14712e-05 6.8699e-05 4.49419e-07)
(-4.03577e-05 6.71679e-05 3.52439e-07)
(-2.8547e-05 6.20426e-05 2.4936e-07)
(-1.70639e-05 5.24849e-05 1.49118e-07)
(-7.07229e-06 3.73566e-05 6.19256e-08)
(-5.59076e-07 1.52244e-05 6.09011e-09)
(0.00763511 -0.00848264 -6.66482e-05)
(0.00681138 -0.00716107 -5.94586e-05)
(0.00602599 -0.00600911 -5.26035e-05)
(0.00528793 -0.00501347 -4.61613e-05)
(0.00460337 -0.0041598 -4.01861e-05)
(0.00397588 -0.00343328 -3.47088e-05)
(0.00340687 -0.00281928 -2.97419e-05)
(0.00289596 -0.00230371 -2.52821e-05)
(0.00244137 -0.00187335 -2.13138e-05)
(0.0020403 -0.00151609 -1.78127e-05)
(0.00168926 -0.00122097 -1.47482e-05)
(0.00138428 -0.000978272 -1.20859e-05)
(0.00112125 -0.00077947 -9.78959e-06)
(0.000895965 -0.000617173 -7.82289e-06)
(0.000704376 -0.000485047 -6.15029e-06)
(0.000542615 -0.000377716 -4.73807e-06)
(0.000407097 -0.000290663 -3.55494e-06)
(0.000294505 -0.0002201 -2.57195e-06)
(0.000201858 -0.000162894 -1.76306e-06)
(0.000126487 -0.00011647 -1.10499e-06)
(6.60298e-05 -7.87217e-05 -5.77122e-07)
(1.84199e-05 -4.79502e-05 -1.61409e-07)
(-1.81638e-05 -2.27785e-05 1.58047e-07)
(-4.52919e-05 -2.12054e-06 3.94953e-07)
(-6.43281e-05 1.48733e-05 5.61217e-07)
(-7.64562e-05 2.88529e-05 6.6717e-07)
(-8.27082e-05 4.02944e-05 7.21823e-07)
(-8.39928e-05 4.95227e-05 7.33109e-07)
(-8.11212e-05 5.67208e-05 7.08108e-07)
(-7.48392e-05 6.19362e-05 6.53328e-07)
(-6.58558e-05 6.50795e-05 5.74961e-07)
(-5.48714e-05 6.59119e-05 4.79117e-07)
(-4.26308e-05 6.40306e-05 3.72295e-07)
(-2.99345e-05 5.88417e-05 2.61484e-07)
(-1.77884e-05 4.95484e-05 1.55451e-07)
(-7.33776e-06 3.50966e-05 6.42506e-08)
(-5.75773e-07 1.42039e-05 6.27915e-09)
(0.00768519 -0.008129 -6.70862e-05)
(0.00679167 -0.00679864 -5.92872e-05)
(0.00595209 -0.00565218 -5.1959e-05)
(0.00517395 -0.00467238 -4.51669e-05)
(0.00446165 -0.0038415 -3.89493e-05)
(0.00381686 -0.00314197 -3.3321e-05)
(0.00323912 -0.00255696 -2.82779e-05)
(0.00272629 -0.00207076 -2.38012e-05)
(0.002275 -0.00166897 -1.98616e-05)
(0.00188104 -0.00133865 -1.64225e-05)
(0.00153972 -0.00106837 -1.34429e-05)
(0.00124613 -0.000848157 -1.088e-05)
(0.000995361 -0.000669385 -8.6907e-06)
(0.000782624 -0.000524716 -6.83348e-06)
(0.000603412 -0.000407942 -5.2689e-06)
(0.000453539 -0.000313864 -3.96045e-06)
(0.000329204 -0.000238169 -2.87494e-06)
(0.000226959 -0.000177281 -1.98225e-06)
(0.000143751 -0.000128277 -1.25577e-06)
(7.68907e-05 -8.87788e-05 -6.71996e-07)
(2.40296e-05 -5.68612e-05 -2.10436e-07)
(-1.68632e-05 -3.09856e-05 1.46639e-07)
(-4.75549e-05 -9.91825e-06 4.14657e-07)
(-6.95537e-05 7.30472e-06 6.06785e-07)
(-8.41571e-05 2.14293e-05 7.3435e-07)
(-9.2481e-05 3.30187e-05 8.0709e-07)
(-9.5491e-05 4.24783e-05 8.3344e-07)
(-9.40323e-05 5.00767e-05 8.20774e-07)
(-8.88575e-05 5.59537e-05 7.75665e-07)
(-8.06588e-05 6.01262e-05 7.04151e-07)
(-7.00978e-05 6.24857e-05 6.12008e-07)
(-5.78333e-05 6.27859e-05 5.04987e-07)
(-4.4576e-05 6.0629e-05 3.89288e-07)
(-3.10972e-05 5.54421e-05 2.71643e-07)
(-1.83807e-05 4.64716e-05 1.60629e-07)
(-7.54864e-06 3.27498e-05 6.60976e-08)
(-5.88209e-07 1.315e-05 6.42164e-09)
(0.00767146 -0.00770841 -6.69672e-05)
(0.00671092 -0.00638261 -5.85831e-05)
(0.00582189 -0.00525381 -5.08231e-05)
(0.00500957 -0.00430046 -4.37325e-05)
(0.00427598 -0.00350133 -3.73291e-05)
(0.00362044 -0.00283611 -3.16068e-05)
(0.00304028 -0.00228591 -2.65424e-05)
(0.00253135 -0.00183353 -2.20997e-05)
(0.00208856 -0.00146359 -1.82343e-05)
(0.00170623 -0.00116255 -1.48967e-05)
(0.00137849 -0.000918669 -1.20356e-05)
(0.00109949 -0.000721883 -9.59989e-06)
(0.000863589 -0.000563643 -7.5404e-06)
(0.000665472 -0.000436773 -5.81078e-06)
(0.000500254 -0.000335289 -4.36835e-06)
(0.000363502 -0.00025425 -3.17443e-06)
(0.000251263 -0.000189603 -2.1945e-06)
(0.000160017 -0.000138029 -1.39784e-06)
(8.66953e-05 -9.68483e-05 -7.5765e-07)
(2.86302e-05 -6.38983e-05 -2.50654e-07)
(-1.6476e-05 -3.74505e-05 1.43206e-07)
(-5.05877e-05 -1.61355e-05 4.41082e-07)
(-7.53931e-05 1.13292e-06 6.57713e-07)
(-9.23193e-05 1.51945e-05 8.05556e-07)
(-0.000102582 2.66918e-05 8.95223e-07)
(-0.000107217 3.61027e-05 9.35758e-07)
(-0.000107115 4.37639e-05 9.34937e-07)
(-0.00010305 4.98903e-05 8.99523e-07)
(-9.57127e-05 5.45814e-05 8.35529e-07)
(-8.57367e-05 5.78264e-05 7.48497e-07)
(-7.37335e-05 5.95004e-05 6.43762e-07)
(-6.03184e-05 5.93526e-05 5.26694e-07)
(-4.61659e-05 5.69927e-05 4.03178e-07)
(-3.20167e-05 5.18709e-05 2.79678e-07)
(-1.88298e-05 4.32782e-05 1.64555e-07)
(-7.69994e-06 3.0334e-05 6.74229e-08)
(-5.95787e-07 1.2071e-05 6.51143e-09)
(0.00758114 -0.00722014 -6.61797e-05)
(0.00655981 -0.00591423 -5.72649e-05)
(0.00562889 -0.00481654 -4.9139e-05)
(0.0047906 -0.00390103 -4.18216e-05)
(0.00404402 -0.00314296 -3.53046e-05)
(0.00338567 -0.00251939 -2.95577e-05)
(0.0028104 -0.00200959 -2.45359e-05)
(0.0023119 -0.00159514 -2.01842e-05)
(0.00188325 -0.00125993 -1.64422e-05)
(0.00151734 -0.000990078 -1.32478e-05)
(0.00120713 -0.000773749 -1.05397e-05)
(0.000945918 -0.000600981 -8.25924e-06)
(0.000727413 -0.000463453 -6.35162e-06)
(0.000545877 -0.000354277 -4.76673e-06)
(0.000396135 -0.000267798 -3.4594e-06)
(0.000273592 -0.000199398 -2.38951e-06)
(0.000174221 -0.000145344 -1.5219e-06)
(9.44935e-05 -0.000102612 -8.25787e-07)
(3.13812e-05 -6.87861e-05 -2.74726e-07)
(-1.77146e-05 -4.19417e-05 1.53968e-07)
(-5.50033e-05 -2.05543e-05 4.79582e-07)
(-8.23529e-05 -3.42914e-06 7.18425e-07)
(-0.000101349 1.03709e-05 8.84341e-07)
(-0.000113319 2.15622e-05 9.88917e-07)
(-0.000119383 3.06858e-05 1.04193e-06)
(-0.000120487 3.81371e-05 1.05163e-06)
(-0.000117438 4.41878e-05 1.02508e-06)
(-0.000110935 4.90022e-05 9.68377e-07)
(-0.000101599 5.26431e-05 8.86936e-07)
(-9.00055e-05 5.50753e-05 7.85779e-07)
(-7.67121e-05 5.61609e-05 6.69778e-07)
(-6.22893e-05 5.56472e-05 5.4391e-07)
(-4.73742e-05 5.31543e-05 4.13735e-07)
(-3.26754e-05 4.81576e-05 2.85434e-07)
(-1.91251e-05 3.99934e-05 1.67137e-07)
(-7.78675e-06 2.78684e-05 6.81836e-08)
(-5.97869e-07 1.09755e-05 6.54199e-09)
(0.00740369 -0.00666485 -6.46316e-05)
(0.00633052 -0.0053964 -5.52641e-05)
(0.00536787 -0.00434457 -4.68612e-05)
(0.00451406 -0.00347883 -3.94081e-05)
(0.00376454 -0.00277116 -3.28653e-05)
(0.00311266 -0.00219631 -2.71747e-05)
(0.0025505 -0.00173206 -2.22674e-05)
(0.00206952 -0.00135912 -1.80685e-05)
(0.001661 -0.00106097 -1.45021e-05)
(0.0013164 -0.000823676 -1.14937e-05)
(0.00102767 -0.000635566 -8.97303e-06)
(0.00078733 -0.000486984 -6.87481e-06)
(0.000588602 -0.000369991 -5.13982e-06)
(0.000425424 -0.000278117 -3.71518e-06)
(0.000292449 -0.000206119 -2.5542e-06)