/*--------------------------------*- C++ -*----------------------------------*\
| =========                 |                                                 |
| \\      /  F ield         | OpenFOAM: The Open Source CFD Toolbox           |
|  \\    /   O peration     | Version:  v2012                                 |
|   \\  /    A nd           | Website:  www.openfoam.com                      |
|    \\/     M anipulation  |                                                 |
\*---------------------------------------------------------------------------*/
FoamFile
{
    version     2.0;
    format      ascii;
    class       volScalarField;
    location    "0.1";
    object      alpha.water;
}
// * * * * * * * * * * * * * * * * * * * * * * * * * * * * * * * * * * * * * //

dimensions      [0 0 0 0 0 0 0];


internalField   nonuniform List<scalar> 
2664
(
-2.28165e-49
-4.74609e-52
-4.93711e-55
-1.32946e-58
-3.29408e-62
-4.08898e-66
-4.36797e-70
-3.90777e-74
-2.47348e-78
-2.38277e-82
-1.75334e-86
-2.12582e-76
-2.68762e-76
-1.34287e-76
-4.02592e-77
-8.25496e-78
-1.22972e-78
-1.37631e-79
-1.18188e-80
-7.88997e-82
-4.13049e-83
-1.70474e-84
-5.55749e-86
-1.43151e-87
-2.90583e-89
-4.62659e-91
-5.73489e-93
-5.47488e-95
-3.96883e-97
-2.14321e-99
-8.40106e-102
-2.30767e-104
-4.22602e-107
-4.78961e-110
-2.98045e-113
-8.15349e-117
-5.68046e-121
1.10164e-40
2.77188e-43
2.70687e-46
1.22865e-49
2.69891e-53
4.03617e-57
5.32299e-61
5.41932e-65
4.76448e-69
4.15378e-73
2.60626e-77
-4.80292e-87
-7.09317e-76
-5.32546e-76
-1.87554e-76
-4.24342e-77
-6.79404e-78
-8.06183e-79
-7.28113e-80
-5.08495e-81
-2.7738e-82
-1.18907e-83
-4.0154e-85
-1.06884e-86
-2.23739e-88
-3.66647e-90
-4.66941e-92
-4.57251e-94
-3.39493e-96
-1.87504e-98
-7.5074e-101
-2.10382e-103
-3.92611e-106
-4.53005e-109
-2.86754e-112
-7.9753e-116
-5.64735e-120
3.49497e-37
9.25465e-40
9.55572e-43
4.60686e-46
1.14054e-49
1.84193e-53
2.63344e-57
2.91703e-61
2.79966e-65
2.673e-69
1.84165e-73
1.01798e-77
-1.43276e-87
-1.57921e-75
-7.67293e-76
-1.99482e-76
-3.49088e-77
-4.42733e-78
-4.22345e-79
-3.09334e-80
-1.76107e-81
-7.84998e-83
-2.74813e-84
-7.56373e-86
-1.63332e-87
-2.75538e-89
-3.60552e-91
-3.6213e-93
-2.75313e-95
-1.55462e-97
-6.35459e-100
-1.81548e-102
-3.44961e-105
-4.04789e-108
-2.60317e-111
-7.34926e-115
-5.27968e-119
1.07271e-33
3.00038e-36
3.28783e-39
1.68999e-42
4.75979e-46
8.33408e-50
1.29687e-53
1.56907e-57
1.65033e-61
1.73214e-65
1.31533e-69
8.03224e-74
5.2356e-78
0
-2.47705e-75
-8.31462e-76
-1.64682e-76
-2.26546e-77
-2.29865e-78
-1.77207e-79
-1.05514e-80
-4.89709e-82
-1.77885e-83
-5.0654e-85
-1.12882e-86
-1.96075e-88
-2.63631e-90
-2.71547e-92
-2.11339e-94
-1.21959e-96
-5.08639e-99
-1.48038e-101
-2.86135e-104
-3.41075e-107
-2.2253e-110
-6.36649e-114
-4.63051e-118
3.18891e-30
9.45754e-33
1.10416e-35
6.07486e-39
1.90518e-42
3.74605e-46
6.37037e-50
8.45255e-54
9.78138e-58
1.13294e-61
9.51807e-66
6.4447e-70
4.66811e-74
-8.45601e-90
-2.56807e-75
-2.81777e-75
-6.93115e-76
-1.0672e-76
-1.16697e-77
-9.52703e-79
-5.95122e-80
-2.88096e-81
-1.08703e-82
-3.20468e-84
-7.37311e-86
-1.31894e-87
-1.8222e-89
-1.92458e-91
-1.5329e-93
-9.03612e-96
-3.84269e-98
-1.13843e-100
-2.23604e-103
-2.70419e-106
-1.78724e-109
-5.17209e-113
-3.8e-117
2.39859e-23
1.95117e-26
3.62361e-32
2.14268e-35
7.25485e-39
1.67446e-42
3.12577e-46
4.56766e-50
5.8395e-54
7.49448e-58
6.99261e-62
5.26916e-66
4.2569e-70
3.32628e-74
-2.20191e-85
-5.01461e-75
-2.40512e-75
-4.50311e-76
-5.46284e-77
-4.77921e-78
-3.14875e-79
-1.5941e-80
-6.25668e-82
-1.91129e-83
-4.54209e-85
-8.36962e-87
-1.18818e-88
-1.2866e-90
-1.04838e-92
-6.3096e-95
-2.73409e-97
-8.23768e-100
-1.64239e-102
-2.01243e-105
-1.34513e-108
-3.92953e-112
-2.90915e-116
6.43466e-20
3.39544e-22
3.19082e-25
7.38643e-32
2.71972e-35
7.29445e-39
1.51188e-42
2.45077e-46
3.48271e-50
4.98593e-54
5.18894e-58
4.36575e-62
3.952e-66
3.46715e-70
2.12881e-74
-9.8441e-100
-4.86959e-75
-1.57607e-75
-2.29566e-76
-2.21193e-77
-1.55378e-78
-8.26502e-80
-3.38197e-81
-1.07174e-82
-2.63239e-84
-4.99803e-86
-7.29121e-88
-8.09295e-90
-6.74411e-92
-4.14174e-94
-1.82738e-96
-5.59401e-99
-1.13076e-101
-1.40171e-104
-9.45845e-108
-2.78309e-111
-2.07046e-115
5.9263e-18
1.57478e-19
6.5264e-22
7.58905e-25
7.02652e-29
2.8495e-35
6.85996e-39
1.26105e-42
2.0242e-46
3.28629e-50
3.84579e-54
3.63226e-58
3.71641e-62
3.69167e-66
2.55529e-70
1.20959e-74
0
-3.22888e-75
-8.00309e-76
-9.19348e-77
-7.06997e-78
-3.99125e-79
-1.70974e-80
-5.63121e-82
-1.43081e-83
-2.80029e-85
-4.1982e-87
-4.77582e-89
-4.0686e-91
-2.54814e-93
-1.14381e-95
-3.55388e-98
-7.27384e-101
-9.10762e-104
-6.19185e-107
-1.83062e-110
-1.36445e-114
8.58375e-17
8.71266e-18
1.57466e-19
4.98738e-22
6.53044e-25
3.1707e-28
4.71587e-34
5.84336e-39
1.10806e-42
2.02415e-46
2.83183e-50
3.03523e-54
3.55741e-58
3.71636e-62
3.17564e-66
1.69657e-70
9.12422e-75
-1.057e-90
-1.46697e-75
-3.1384e-76
-2.88284e-77
-1.77398e-78
-8.03173e-80
-2.7596e-81
-7.26476e-83
-1.46655e-84
-2.25993e-86
-2.63453e-88
-2.29359e-90
-1.46403e-92
-6.6803e-95
-2.10433e-97
-4.35496e-100
-5.49818e-103
-3.75796e-106
-1.11339e-109
-8.28751e-114
3.52648e-16
9.71292e-17
6.97462e-18
7.97347e-20
1.98187e-22
2.70563e-25
2.36851e-28
1.02713e-31
3.96731e-36
1.10806e-42
2.00111e-46
2.49903e-50
3.03523e-54
3.55741e-58
4.04383e-62
2.48575e-66
1.52236e-70
9.12422e-75
0
-2.73467e-76
-9.34881e-77
-7.02375e-78
-3.46048e-79
-1.25217e-80
-3.42705e-82
-7.14508e-84
-1.13221e-85
-1.35251e-87
-1.20287e-89
-7.82056e-92
-3.62421e-94
-1.15608e-96
-2.41553e-99
-3.06914e-102
-2.10396e-105
-6.22881e-109
-4.61296e-113
6.84839e-16
3.54163e-16
7.41574e-17
3.29071e-18
2.24571e-20
4.62433e-23
6.34616e-26
6.56075e-29
5.05567e-32
2.66587e-35
7.16464e-39
3.26434e-43
2.49903e-50
3.44605e-54
4.56079e-58
3.72484e-62
2.48575e-66
1.52236e-70
1.149e-74
-4.92205e-100
0
-2.08919e-77
-1.31316e-78
-5.18127e-80
-1.48935e-81
-3.21761e-83
-5.24848e-85
-6.42602e-87
-5.83669e-89
-3.86284e-91
-1.8164e-93
-5.86018e-96
-1.23422e-98
-1.57498e-101
-1.0801e-104
-3.18504e-108
-2.33711e-112
9.12589e-16
6.61462e-16
2.81572e-16
3.83138e-17
9.05383e-19
3.69418e-21
6.64705e-24
8.97369e-27
9.63943e-30
8.21962e-33
5.51812e-36
2.88028e-39
1.14137e-42
3.25059e-46
5.58131e-50
3.38005e-54
2.52348e-60
2.63342e-66
2.29986e-70
1.97248e-74
1.35563e-78
0
-3.52957e-78
-1.85518e-79
-5.85221e-81
-1.32567e-82
-2.23356e-84
-2.80536e-86
-2.6022e-88
-1.75215e-90
-8.35242e-93
-2.72195e-95
-5.76868e-98
-7.37715e-101
-5.0466e-104
-1.47692e-107
-1.06871e-111
1.02948e-15
8.74676e-16
5.61782e-16
1.69627e-16
1.2369e-17
1.37782e-19
3.67081e-22
5.98492e-25
7.72851e-28
8.05474e-31
6.79627e-34
4.67147e-37
2.63565e-40
1.22316e-43
4.67743e-47
1.46574e-50
3.6963e-54
7.49526e-58
1.1739e-61
1.39378e-65
1.16537e-69
5.88717e-74
1.25261e-78
-4.35569e-79
-1.94484e-80
-4.88322e-82
-8.61789e-84
-1.11441e-85
-1.05642e-87
-7.23485e-90
-3.49333e-92
-1.14845e-94
-2.44482e-97
-3.12576e-100
-2.12642e-103
-6.15253e-107
-4.36633e-111
1.08603e-15
9.8553e-16
7.85677e-16
3.94977e-16
6.88147e-17
2.18885e-18
1.12771e-20
2.26665e-23
3.36342e-26
4.019e-29
3.89357e-32
3.08296e-35
2.01688e-38
1.09689e-41
4.97821e-45
1.88882e-48
5.94376e-52
1.56562e-55
3.37103e-59
5.98336e-63
8.59126e-67
9.90091e-71
9.22762e-75
6.47738e-79
-4.04143e-80
-1.4989e-81
-2.93823e-83
-3.96842e-85
-3.85809e-87
-2.68864e-89
-1.31416e-91
-4.35294e-94
-9.29061e-97
-1.18455e-99
-7.98694e-103
-2.27481e-106
-1.5733e-110
1.11973e-15
1.03664e-15
9.18423e-16
6.25046e-16
2.01903e-16
1.58294e-17
1.88646e-19
5.2724e-22
8.86556e-25
1.17802e-27
1.26449e-30
1.10511e-33
7.95731e-37
4.75662e-40
2.3722e-43
9.87492e-47
3.41685e-50
9.92546e-54
2.36767e-57
4.68538e-61
7.56487e-65
9.91321e-69
1.06538e-72
9.08256e-77
4.66099e-81
-3.33851e-81
-8.46288e-83
-1.23709e-84
-1.24576e-86
-8.85596e-89
-4.38201e-91
-1.46085e-93
-3.12028e-96
-3.95679e-99
-2.63474e-102
-7.3507e-106
-4.91752e-110
1.15309e-15
1.06085e-15
9.86057e-16
7.96702e-16
3.90263e-16
6.23228e-17
1.73246e-18
8.03672e-21
1.56348e-23
2.26731e-26
2.63806e-29
2.48484e-32
1.91815e-35
1.22436e-38
6.50109e-42
2.8728e-45
1.05261e-48
3.23427e-52
8.15618e-56
1.70622e-59
2.91422e-63
4.04587e-67
4.61591e-71
4.19554e-75
3.02023e-79
-5.48361e-81
-2.02081e-82
-3.29462e-84
-3.47838e-86
-2.53311e-88
-1.27e-90
-4.2583e-93
-9.0868e-96
-1.1429e-98
-7.48717e-102
-2.03482e-105
-1.3056e-109
1.20214e-15
1.07616e-15
1.01903e-15
9.04195e-16
5.81676e-16
1.59802e-16
9.54328e-18
8.48761e-20
2.05884e-22
3.24043e-25
4.03114e-28
4.03211e-31
3.28323e-34
2.19861e-37
1.21957e-40
5.6105e-44
2.13182e-47
6.77587e-51
1.76388e-54
3.80229e-58
6.68374e-62
9.54263e-66
1.11914e-69
1.04589e-73
7.85009e-78
2.46674e-82
-3.68251e-82
-7.25727e-84
-8.16126e-86
-6.12214e-88
-3.11539e-90
-1.05043e-92
-2.23615e-95
-2.78213e-98
-1.78606e-101
-4.69803e-105
-2.8639e-109
1.27648e-15
1.09344e-15
1.03652e-15
9.65784e-16
7.39155e-16
3.04734e-16
3.52147e-17
6.45117e-19
2.23899e-21
3.89883e-24
5.17441e-27
5.47328e-30
4.67513e-33
3.26129e-36
1.87379e-39
8.8854e-43
3.46297e-46
1.12482e-49
2.98242e-53
6.52831e-57
1.16218e-60
1.67647e-64
1.98207e-68
1.86388e-72
1.40799e-76
7.98985e-81
-5.38e-82
-1.29183e-83
-1.55824e-85
-1.20679e-87
-6.23823e-90
-2.115e-92
-4.48642e-95
-5.50823e-98
-3.45097e-101
-8.72291e-105
-4.99827e-109
1.37285e-15
1.12055e-15
1.04851e-15
1.00037e-15
8.51499e-16
4.70724e-16
9.42592e-17
3.55705e-18
2.08259e-20
4.26454e-23
6.12465e-26
6.92372e-29
6.26627e-32
4.59482e-35
2.75538e-38
1.35498e-41
5.44013e-45
1.81115e-48
4.89988e-52
1.08978e-55
1.9638e-59
2.8573e-63
3.39517e-67
3.19774e-71
2.41084e-75
1.41932e-79
-2.99635e-82
-1.69935e-83
-2.27346e-85
-1.8325e-87
-9.6543e-90
-3.29625e-92
-6.9673e-95
-8.42976e-98
-5.13289e-101
-1.23775e-104
-6.58711e-109
1.47477e-15
1.15876e-15
1.06015e-15
1.02128e-15
9.2376e-16
6.22805e-16
1.91564e-16
1.38617e-17
1.52269e-19
4.07069e-22
6.50712e-25
8.01734e-28
7.84654e-31
6.17738e-34
3.95031e-37
2.05815e-40
8.69415e-44
3.02915e-47
8.54297e-51
1.97413e-54
3.68648e-58
5.54636e-62
6.80053e-66
6.59744e-70
5.11282e-74
3.10206e-78
1.34398e-82
-1.2819e-83
-2.21059e-85
-1.9331e-87
-1.0552e-89
-3.65733e-92
-7.73352e-95
-9.22941e-98
-5.44666e-101
-1.24439e-104
-6.07486e-109
1.56249e-15
1.19943e-15
1.07413e-15
1.03626e-15
9.66799e-16
7.36269e-16
3.06608e-16
3.72237e-17
7.49116e-19
2.84897e-21
5.17723e-24
6.99657e-27
7.46534e-30
6.37734e-33
4.4034e-36
2.4648e-39
1.11344e-42
4.12654e-46
1.2354e-49
3.02665e-53
5.99065e-57
9.55709e-61
1.24347e-64
1.28196e-68
1.05738e-72
6.84226e-77
3.43134e-81
3.50685e-86
-1.08112e-85
-1.17532e-87
-6.97343e-90
-2.51168e-92
-5.38294e-95
-6.37674e-98
-3.65245e-101
-7.86825e-105
-3.47499e-109
1.62207e-15
1.23072e-15
1.09038e-15
1.04871e-15
9.90193e-16
8.0429e-16
4.03421e-16
6.96073e-17
2.22129e-18
1.18192e-20
2.42352e-23
3.5281e-26
4.04008e-29
3.69756e-32
2.72809e-35
1.62652e-38
7.8022e-42
3.05863e-45
9.67436e-49
2.50204e-52
5.2269e-56
8.80258e-60
1.20939e-63
1.31779e-67
1.14983e-71
7.88026e-76
4.20385e-80
1.70252e-84
-1.7769e-86
-3.09842e-88
-2.16358e-90
-8.41213e-93
-1.86675e-95
-2.22221e-98
-1.24264e-101
-2.52198e-105
-9.9513e-110
1.64878e-15
1.24694e-15
1.10548e-15
1.05841e-15
9.99902e-16
8.3235e-16
4.56101e-16
9.4529e-17
3.89741e-18
2.56133e-20
5.68494e-23
8.64098e-26
1.03219e-28
9.86171e-32
7.59057e-35
4.71395e-38
2.3517e-41
9.56846e-45
3.14045e-48
8.42733e-52
1.82727e-55
3.19551e-59
4.56155e-63
5.17039e-67
4.69917e-71
3.36079e-75
1.87516e-79
8.07964e-84
2.47576e-88
-1.22355e-89
-1.31007e-91
-6.12577e-94
-1.50491e-96
-1.89016e-99
-1.06967e-102
-2.09652e-106
-7.47755e-111
1.65184e-15
1.2506e-15
1.1146e-15
1.0634e-15
1.00144e-15
8.35879e-16
4.67166e-16
1.01391e-16
4.46626e-18
3.10439e-20
7.03435e-23
1.07981e-25
1.30338e-28
1.25963e-31
9.80648e-35
6.15636e-38
3.10381e-41
1.27617e-44
4.23666e-48
1.1514e-51
2.53288e-55
4.50383e-59
6.55478e-63
7.60423e-67
7.10717e-71
5.25941e-75
3.05966e-79
1.38751e-83
4.75754e-88
1.17149e-92
-1.56077e-94
-1.39513e-96
-4.67424e-99
-7.16373e-102
-4.65332e-105
-1.0073e-108
-3.60107e-113
1.62102e-15
1.24183e-15
1.1167e-15
1.06428e-15
9.96099e-16
8.22638e-16
4.50897e-16
9.41026e-17
3.88922e-18
2.53314e-20
5.55739e-23
8.36208e-26
9.90647e-29
9.39332e-32
7.16765e-35
4.40738e-38
2.17708e-41
8.78472e-45
2.86786e-48
7.68536e-52
1.67334e-55
2.9593e-59
4.31029e-63
5.04664e-67
4.80976e-71
3.676e-75
2.24161e-79
1.08322e-83
4.02677e-88
1.12696e-92
2.23434e-97
5.86033e-103
-3.43971e-103
-1.21898e-105
-1.65719e-108
-7.39668e-112
-3.36275e-116
1.54197e-15
1.21796e-15
1.11434e-15
1.05875e-15
9.79392e-16
7.85501e-16
4.00187e-16
7.22319e-17
2.4221e-18
1.31803e-20
2.69571e-23
3.90495e-26
4.46434e-29
4.08109e-32
2.9975e-35
1.77253e-38
8.42318e-42
3.2776e-45
1.03458e-48
2.69136e-52
5.72169e-56
9.95907e-60
1.44274e-63
1.70329e-67
1.6634e-71
1.32647e-75
8.59781e-80
4.49224e-84
1.82773e-88
5.60887e-93
1.23843e-97
1.84628e-102
4.34123e-108
-1.15612e-109
-3.45521e-112
-3.33195e-115
-1.88013e-119
1.43341e-15
1.18865e-15
1.1038e-15
1.04444e-15
9.49619e-16
7.22492e-16
3.20331e-16
4.42879e-17
1.0364e-18
4.30328e-21
7.9995e-24
1.09574e-26
1.18783e-29
1.02867e-32
7.15021e-36
4.00257e-39
1.80413e-42
6.68925e-46
2.02196e-49
5.07233e-53
1.04995e-56
1.80177e-60
2.61307e-64
3.1432e-68
3.18365e-72
2.67682e-76
1.85301e-80
1.04056e-84
4.54338e-89
1.49328e-93
3.53773e-98
5.64849e-103
5.54152e-108
2.13378e-113
-4.88296e-116
-1.11879e-118
-7.57785e-123
1.32353e-15
1.15623e-15
1.0847e-15
1.02039e-15
9.03534e-16
6.28844e-16
2.22239e-16
2.04834e-17
2.91412e-19
8.88856e-22
1.48423e-24
1.88674e-27
1.90184e-30
1.5307e-33
9.89249e-37
5.16132e-40
2.17861e-43
7.62481e-47
2.19463e-50
5.3026e-54
1.07253e-57
1.82895e-61
2.68275e-65
3.31932e-69
3.506e-73
3.10392e-77
2.27215e-81
1.34965e-85
6.26558e-90
2.21352e-94
5.69331e-99
9.92127e-104
1.06622e-108
6.19977e-114
1.03084e-119
-2.90922e-122
-2.32769e-126
1.23157e-15
1.12154e-15
1.05769e-15
9.84716e-16
8.31612e-16
4.95315e-16
1.22044e-16
6.27759e-18
4.829e-20
1.09877e-22
1.63552e-25
1.89172e-28
1.73735e-31
1.27516e-34
7.53906e-38
3.62029e-41
1.42119e-44
4.67919e-48
1.28522e-51
3.01381e-55
6.02685e-59
1.03448e-62
1.55008e-66
1.97954e-70
2.16805e-74
1.99357e-78
1.51514e-82
9.40274e-87
4.58766e-91
1.70575e-95
4.58785e-100
8.26793e-105
9.00181e-110
5.09259e-115
1.22848e-120
-5.41075e-127
-5.19637e-130
1.16013e-15
1.08302e-15
1.022e-15
9.30654e-16
7.14539e-16
3.21882e-16
4.50612e-17
1.04067e-18
4.158e-21
7.42857e-24
9.73002e-27
1.00088e-29
8.19535e-33
5.38757e-36
2.87673e-39
1.26281e-42
4.61058e-46
1.43702e-49
3.81169e-53
8.80153e-57
1.76218e-60
3.06233e-64
4.67238e-68
6.09615e-72
6.83375e-76
6.4629e-80
5.09625e-84
3.29825e-88
1.6824e-92
6.52871e-97
1.82712e-101
3.40241e-106
3.74972e-111
2.0732e-116
5.2718e-122
5.51656e-128
-6.2737e-135
1.10116e-15
1.04009e-15
9.73804e-16
8.37193e-16
5.22632e-16
1.41686e-16
8.25609e-18
6.93346e-20
1.59349e-22
2.32786e-25
2.62294e-28
2.33853e-31
1.67264e-34
9.7242e-38
4.67118e-41
1.8861e-44
6.48284e-48
1.94419e-51
5.05697e-55
1.16153e-58
2.33701e-62
4.11283e-66
6.4044e-70
8.61646e-74
1.0085e-77
1.00568e-81
8.41345e-86
5.77846e-90
3.11232e-94
1.26201e-98
3.63115e-103
6.74759e-108
7.12716e-113
3.74204e-118
9.61544e-124
1.00602e-129
2.56888e-136
1.04545e-15
9.89047e-16
8.91572e-16
6.50619e-16
2.5577e-16
2.73434e-17
4.318e-19
1.31525e-21
2.08989e-24
2.49192e-27
2.34084e-30
1.7633e-33
1.08504e-36
5.55525e-40
2.41501e-43
9.08799e-47
2.98226e-50
8.70463e-54
2.23709e-57
5.14023e-61
1.04668e-64
1.88569e-68
3.03453e-72
4.23525e-76
5.12428e-80
5.22391e-84
4.39274e-88
2.97467e-92
1.54838e-96
5.9648e-101
1.60471e-105
2.76625e-110
2.76367e-115
1.56545e-120
4.48058e-126
5.04668e-132
1.3526e-138
9.85955e-16
9.03379e-16
6.96107e-16
3.16284e-16
4.31089e-17
8.81498e-19
3.02353e-21
4.86555e-24
5.7777e-27
5.39882e-30
4.07338e-33
2.5388e-36
1.34008e-39
6.10859e-43
2.4476e-46
8.7115e-50
2.76029e-53
7.91709e-57
2.031e-60
4.71049e-64
9.72596e-68
1.76916e-71
2.83843e-75
3.87993e-79
4.51178e-83
4.35197e-87
3.42699e-91
2.16796e-95
1.05973e-99
3.87517e-104
1.00585e-108
1.71101e-113
1.75566e-118
1.02904e-123
2.59002e-129
2.42765e-135
5.55008e-142
8.73699e-16
6.50974e-16
2.64109e-16
2.72677e-17
3.70704e-19
9.54923e-22
1.33198e-24
1.4113e-27
1.19918e-30
8.42932e-34
5.06315e-37
2.67937e-40
1.28119e-43
5.60763e-47
2.24908e-50
8.17504e-54
2.64272e-57
7.59458e-61
1.89683e-64
4.14838e-68
7.85242e-72
1.28409e-75
1.83633e-79
2.24257e-83
2.35452e-87
2.08144e-91
1.52386e-95
9.04458e-100
4.15825e-104
1.42371e-108
3.42173e-113
5.32474e-118
5.03446e-123
2.44121e-128
4.78627e-134
3.37186e-140
1.02989e-145
4.18003e-16
7.35288e-17
1.83278e-18
6.03198e-21
3.63252e-24
3.6514e-28
3.27567e-32
1.1839e-35
7.61376e-39
4.32493e-42
2.10701e-45
9.05126e-49
3.50835e-52
1.24672e-55
4.07198e-59
1.20298e-62
3.16704e-66
7.42749e-70
1.51353e-73
2.70221e-77
4.21463e-81
5.93373e-85
7.60343e-89
8.3972e-93
8.0872e-97
6.7186e-101
4.75951e-105
2.81967e-109
1.37356e-113
5.18827e-118
1.44636e-122
2.82638e-127
4.24599e-132
3.64619e-137
9.96422e-143
9.66971e-146
3.53766e-149
6.20036e-19
2.58212e-21
5.64495e-25
9.80728e-29
4.14709e-32
1.38369e-35
1.0209e-38
6.49941e-42
3.38229e-45
1.56388e-48
6.27758e-52
2.22794e-55
7.16687e-59
2.11888e-62
5.7632e-66
1.4253e-69
3.14898e-73
6.21349e-77
1.07187e-80
1.63026e-84
2.16592e-88
2.59311e-92
2.87422e-96
2.82644e-100
2.46524e-104
1.88225e-108
1.23053e-112
6.76637e-117
2.9879e-121
1.02988e-125
4.58064e-129
7.02021e-134
6.5869e-139
1.02796e-142
9.24978e-146
1.87667e-149
2.34276e-153
-1.42765e-49
-2.96198e-52
-3.08638e-55
-7.53495e-59
-2.05669e-62
-2.55968e-66
-2.75565e-70
-2.48153e-74
-6.47536e-79
-1.53662e-82
-1.13859e-86
-6.58918e-91
-2.154e-81
-2.35797e-81
-1.01977e-81
-2.65917e-82
-4.91853e-83
-6.50795e-84
-6.55635e-85
-5.06036e-86
-3.04281e-87
-1.43427e-88
-5.29071e-90
-1.53269e-91
-3.47986e-93
-6.16338e-95
-8.45729e-97
-8.89434e-99
-7.07353e-101
-4.17415e-103
-1.78107e-105
-5.30556e-108
-1.04963e-110
-1.28041e-113
-8.54507e-117
-2.49864e-120
-1.85471e-124
1.1065e-40
2.78495e-43
2.71956e-46
1.23442e-49
2.7136e-53
4.05787e-57
5.35163e-61
5.45037e-65
4.7919e-69
4.17809e-73
2.62276e-77
1.31723e-81
-1.46138e-91
-5.90565e-81
-4.08026e-81
-1.27523e-81
-2.6241e-82
-3.73864e-83
-3.99954e-84
-3.24984e-85
-2.04586e-86
-1.00557e-87
-3.85503e-89
-1.15744e-90
-2.7168e-92
-4.96381e-94
-7.01204e-96
-7.57768e-98
-6.18168e-100
-3.73593e-102
-1.63015e-104
-4.95934e-107
-1.00084e-109
-1.24412e-112
-8.4539e-116
-2.51546e-119
-1.89952e-123
3.51036e-37
9.29827e-40
9.60055e-43
4.62849e-46
1.14675e-49
1.85183e-53
2.6476e-57
2.93375e-61
2.81577e-65
2.68865e-69
1.85326e-73
1.02445e-77
6.02886e-82
1.26004e-97
-1.15934e-80
-5.33996e-81
-1.28505e-81
-2.00614e-82
-2.29706e-83
-1.97269e-84
-1.30306e-85
-6.68805e-87
-2.66715e-88
-8.30458e-90
-2.01611e-91
-3.80079e-93
-5.52788e-95
-6.13802e-97
-5.13524e-99
-3.17741e-101
-1.41718e-103
-4.40037e-106
-9.05127e-109
-1.14541e-111
-7.91496e-115
-2.39291e-118
-1.83498e-122
1.07743e-33
3.01452e-36
3.30326e-39
1.69792e-42
4.78571e-46
8.37888e-50
1.30384e-53
1.57806e-57
1.65983e-61
1.74228e-65
1.32362e-69
8.08258e-74
5.26738e-78
3.30896e-82
-1.45167e-92
-1.65758e-80
-5.55565e-81
-9.89592e-82
-1.23201e-82
-1.12622e-83
-7.83468e-85
-4.20788e-86
-1.74792e-87
-5.64899e-89
-1.41925e-90
-2.76172e-92
-4.13602e-94
-4.71866e-96
-4.04798e-98
-2.56347e-100
-1.16813e-102
-3.69945e-105
-7.74939e-108
-9.97257e-111
-6.9986e-114
-2.14636e-117
-1.66807e-121
3.20296e-30
9.50212e-33
1.10934e-35
6.10338e-39
1.91491e-42
3.76618e-46
6.40465e-50
8.50099e-54
9.83767e-58
1.13957e-61
9.5781e-66
6.4851e-70
4.69633e-74
3.28565e-78
-7.59423e-89
-1.17449e-93
-1.85964e-80
-4.33895e-81
-6.08918e-82
-6.00795e-83
-4.4293e-84
-2.4972e-85
-1.08241e-86
-3.63494e-88
-9.4577e-90
-1.90036e-91
-2.93113e-93
-3.4359e-95
-3.02191e-97
-1.95796e-99
-9.11069e-102
-2.94086e-104
-6.26772e-107
-8.19276e-110
-5.83082e-113
-1.81081e-116
-1.42315e-120
2.4133e-23
1.96983e-26
3.64061e-32
2.15274e-35
7.29191e-39
1.68345e-42
3.14258e-46
4.59383e-50
5.8731e-54
7.53834e-58
7.0367e-62
5.30218e-66
4.28219e-70
3.3471e-74
1.83329e-78
-2.62866e-104
2.29201e-109
-1.50387e-80
-2.68795e-81
-2.95792e-82
-2.34023e-83
-1.39259e-84
-6.31528e-86
-2.20692e-87
-5.95164e-89
-1.23546e-90
-1.96302e-92
-2.36431e-94
-2.13153e-96
-1.41248e-98
-6.70767e-101
-2.20514e-103
-4.77688e-106
-6.33435e-109
-4.56492e-112
-1.43281e-115
-1.13603e-119
6.45337e-20
3.40981e-22
3.20719e-25
7.42094e-32
2.73359e-35
7.33369e-39
1.52001e-42
2.46483e-46
3.50277e-50
5.01515e-54
5.22172e-58
4.39316e-62
3.9755e-66
3.48859e-70
2.14363e-74
9.0368e-79
-1.29029e-94
-3.90479e-81
-9.44251e-81
-1.30322e-81
-1.14177e-82
-7.25332e-84
-3.4578e-85
-1.26022e-86
-3.52662e-88
-7.56757e-90
-1.23899e-91
-1.53335e-93
-1.41675e-95
-9.59814e-98
-4.64896e-100
-1.55527e-102
-3.42072e-105
-4.59539e-108
-3.34772e-111
-1.05975e-114
-8.4543e-119
5.93709e-18
1.5795e-19
6.55311e-22
7.62562e-25
7.09455e-29
2.86459e-35
6.89653e-39
1.26827e-42
2.03584e-46
3.30554e-50
3.87013e-54
3.6551e-58
3.73851e-62
3.71451e-66
2.57296e-70
1.2181e-74
5.7819e-79
7.51045e-105
0
-4.51252e-81
-4.98044e-82
-3.4858e-83
-1.76553e-84
-6.73871e-86
-1.96046e-87
-4.35253e-89
-7.34579e-91
-9.34177e-93
-8.8444e-95
-6.12328e-97
-3.02309e-99
-1.02825e-101
-2.29364e-104
-3.11702e-107
-2.29117e-110
-7.29803e-114
-5.84137e-118
8.59264e-17
8.73003e-18
1.57976e-19
5.0079e-22
6.5599e-25
3.18952e-28
4.76514e-34
5.87684e-39
1.11445e-42
2.03579e-46
2.84987e-50
3.05442e-54
3.5786e-58
3.73846e-62
3.19768e-66
1.70844e-70
9.18275e-75
5.7819e-79
-7.51045e-105
-6.43563e-99
-1.66551e-81
-1.49139e-82
-8.29711e-84
-3.35114e-85
-1.01736e-86
-2.34046e-88
-4.07427e-90
-5.32508e-92
-5.16515e-94
-3.65291e-96
-1.83702e-98
-6.34674e-101
-1.434e-103
-1.96827e-106
-1.45688e-109
-4.65772e-113
-3.72882e-117
3.52829e-16
9.72435e-17
6.99041e-18
8.0013e-20
1.99005e-22
2.71749e-25
2.37967e-28
1.03299e-31
4.02087e-36
1.11444e-42
2.01386e-46
2.51482e-50
3.05442e-54
3.5786e-58
4.06891e-62
2.50317e-66
1.53198e-70
9.18275e-75
6.06271e-79
0
0
-4.74645e-82
-3.44337e-83
-1.52711e-84
-4.88954e-86
-1.16966e-87
-2.10281e-89
-2.8257e-91
-2.80782e-93
-2.02765e-95
-1.03795e-97
-3.63892e-100
-8.31707e-103
-1.15101e-105
-8.56019e-109
-2.73946e-112
-2.18578e-116
6.84992e-16
3.5438e-16
7.42622e-17
3.29925e-18
2.25401e-20
4.64326e-23
6.3731e-26
6.58977e-29
5.07951e-32
2.67962e-35
7.21071e-39
3.30244e-43
2.51482e-50
3.46648e-54
4.58904e-58
3.75093e-62
2.50317e-66
1.53198e-70
1.15588e-74
8.64485e-79
5.2158e-83
-7.87528e-99
-1.02124e-82
-6.06177e-84
-2.13828e-85
-5.38195e-87
-1.00272e-88
-1.38677e-90
-1.41188e-92
-1.04075e-94
-5.41935e-97
-1.92603e-99
-4.4469e-102
-6.19358e-105
-4.61715e-108
-1.47464e-111
-1.168e-115
9.12668e-16
6.61652e-16
2.81795e-16
3.83802e-17
9.08052e-19
3.70819e-21
6.67363e-24
9.01074e-27
9.68088e-30
8.25619e-33
5.54361e-36
2.89421e-39
1.14723e-42
3.26887e-46
5.619e-50
3.41303e-54
2.56525e-60
2.64999e-66
2.31339e-70
1.98437e-74
1.36436e-78
6.52326e-83
-7.87528e-99
-1.59517e-83
-7.96379e-85
-2.22993e-86
-4.36702e-88
-6.23917e-90
-6.51388e-92
-4.90087e-94
-2.59431e-96
-9.33727e-99
-2.17457e-101
-3.04217e-104
-2.26729e-107
-7.20226e-111
-5.63747e-115
1.02951e-15
8.74786e-16
5.62012e-16
1.69807e-16
1.23953e-17
1.38231e-19
3.6846e-22
6.00828e-25
7.75983e-28
8.0883e-31
6.82535e-34
4.692e-37
2.64755e-40
1.22885e-43
4.69984e-47
1.473e-50
3.71532e-54
7.53554e-58
1.18055e-61
1.40225e-65
1.17322e-69
5.9372e-74
1.27703e-78
1.33829e-84
-1.59275e-84
-7.60957e-86
-1.68911e-87
-2.53648e-89
-2.72676e-91
-2.09545e-93
-1.12724e-95
-4.10467e-98
-9.62814e-101
-1.3501e-103
-1.00314e-106
-3.1581e-110
-2.43014e-114
1.08604e-15
9.85581e-16
7.85835e-16
3.95218e-16
6.89128e-17
2.19443e-18
1.13156e-20
2.27498e-23
3.37629e-26
4.03484e-29
3.90934e-32
3.09576e-35
2.02546e-38
1.10167e-41
5.00038e-45
1.89742e-48
5.97138e-52
1.57305e-55
3.3874e-59
6.01307e-63
8.63493e-67
9.9525e-71
9.28282e-75
6.76488e-79
3.83828e-83
-6.69335e-86
-5.20947e-87
-9.02102e-89
-1.01748e-90
-8.01989e-93
-4.38653e-95
-1.61486e-97
-3.8095e-100
-5.34272e-103
-3.94563e-106
-1.22613e-109
-9.21944e-114
1.11974e-15
1.03666e-15
9.1851e-16
6.25255e-16
2.02085e-16
1.58586e-17
1.89188e-19
5.29017e-22
8.89715e-25
1.18237e-27
1.2693e-30
1.10944e-33
7.98933e-37
4.77625e-40
2.38223e-43
9.91757e-47
3.43192e-50
9.97013e-54
2.37854e-57
4.7073e-61
7.60094e-65
9.96136e-69
1.07066e-72
9.14163e-77
6.25637e-81
3.25953e-85
-1.04317e-86
-2.62525e-88
-3.28025e-90
-2.68985e-92
-1.50084e-94
-5.58627e-97
-1.32366e-99
-1.85258e-102
-1.3555e-105
-4.1391e-109
-3.0196e-113
1.1531e-15
1.06086e-15
9.86102e-16
7.96841e-16
3.90472e-16
6.24e-17
1.73626e-18
8.06009e-21
1.56845e-23
2.27483e-26
2.64716e-29
2.49373e-32
1.92525e-35
1.22903e-38
6.52661e-42
2.88439e-45
1.05696e-48
3.24796e-52
8.19149e-56
1.71376e-59
2.92738e-63
4.06453e-67
4.63764e-71
4.21592e-75
3.08323e-79
1.77456e-83
4.27113e-88
-5.81142e-88
-8.82077e-90
-7.68243e-92
-4.4003e-94
-1.65813e-96
-3.94338e-99
-5.4961e-102
-3.97124e-105
-1.18553e-108
-8.32468e-113
1.20215e-15
1.07617e-15
1.01906e-15
9.04277e-16
5.81848e-16
1.59923e-16
9.55747e-18
8.50652e-20
2.06419e-22
3.24934e-25
4.04278e-28
4.0443e-31
3.29358e-34
2.20582e-37
1.22373e-40
5.63029e-44
2.13959e-47
6.80131e-51
1.7707e-54
3.81741e-58
6.71106e-62
9.58269e-66
1.12396e-69
1.0505e-73
7.90308e-78
4.69268e-82
2.08458e-86
-1.00887e-87
-1.91592e-89
-1.8028e-91
-1.06701e-93
-4.07911e-96
-9.73505e-99
-1.34874e-101
-9.59299e-105
-2.78354e-108
-1.86484e-112
1.2765e-15
1.09345e-15
1.03653e-15
9.65829e-16
7.39267e-16
3.04857e-16
3.52448e-17
6.46023e-19
2.243e-21
3.90639e-24
5.18505e-27
5.48518e-30
4.68585e-33
3.26916e-36
1.87853e-39
8.90897e-43
3.47256e-46
1.12807e-49
2.99138e-53
6.5487e-57
1.16596e-60
1.68212e-64
1.98901e-68
1.87064e-72
1.41355e-76
8.41807e-81
3.90297e-85
-7.67208e-88
-3.17502e-89
-3.30726e-91
-2.03391e-93
-7.9031e-96
-1.89295e-98
-2.60354e-101
-1.81708e-104
-5.09316e-108
-3.22399e-112
1.37288e-15
1.12056e-15
1.04852e-15
1.0004e-15
8.51561e-16
4.7081e-16
9.42951e-17
3.55933e-18
2.08442e-20
4.26869e-23
6.13099e-26
6.93134e-29
6.27358e-32
4.6005e-35
2.759e-38
1.35686e-41
5.44811e-45
1.81395e-48
4.90789e-52
1.09166e-55
1.96737e-59
2.86279e-63
3.40207e-67
3.20459e-71
2.41634e-75
1.43025e-79
6.58655e-84
1.92978e-88
-3.49208e-89
-4.33317e-91
-2.79931e-93
-1.10942e-95
-2.67152e-98
-3.64897e-101
-2.49285e-104
-6.71204e-108
-3.9725e-112
1.47481e-15
1.15878e-15
1.06016e-15
1.02129e-15
9.23793e-16
6.22848e-16
1.91585e-16
1.38635e-17
1.52291e-19
4.07123e-22
6.50792e-25
8.01829e-28
7.84743e-31
6.17808e-34
3.95076e-37
2.05839e-40
8.6952e-44
3.02954e-47
8.54413e-51
1.97441e-54
3.68705e-58
5.54727e-62
6.80173e-66
6.59863e-70
5.11378e-74
3.10376e-78
1.46217e-82
5.26041e-87
-1.40552e-89
-3.22234e-91
-2.33529e-93
-9.67117e-96
-2.36736e-98
-3.22861e-101
-2.16096e-104
-5.5699e-108
-3.05354e-112
1.56252e-15
1.19945e-15
1.07414e-15
1.03627e-15
9.66817e-16
7.36287e-16
3.06608e-16
3.72204e-17
7.48955e-19
2.84805e-21
5.1753e-24
6.99367e-27
7.46194e-30
6.37419e-33
4.40105e-36
2.46339e-39
1.11276e-42
4.12386e-46
1.23455e-49
3.02444e-53
5.98603e-57
9.54928e-61
1.24239e-64
1.28077e-68
1.05633e-72
6.83523e-77
3.43889e-81
1.3312e-85
3.71361e-90
-7.81028e-92
-8.31284e-94
-3.89757e-96
-1.00402e-98
-1.39193e-101
-9.22021e-105
-2.28164e-108
-1.15068e-112
1.62211e-15
1.23075e-15
1.09039e-15
1.04872e-15
9.90205e-16
8.04298e-16
4.03412e-16
6.95992e-17
2.22072e-18
1.18147e-20
2.42245e-23
3.52642e-26
4.03799e-29
3.69551e-32
2.72647e-35
1.62549e-38
7.79698e-42
3.05647e-45
9.66717e-49
2.50009e-52
5.22263e-56
8.79504e-60
1.2083e-63
1.31654e-67
1.14868e-71
7.87217e-76
4.19966e-80
1.72604e-84
5.28763e-89
1.04427e-93
-5.60013e-95
-3.81155e-97
-1.12864e-99
-1.66788e-102
-1.12753e-105
-2.7331e-109
-1.2751e-113
1.64881e-15
1.24695e-15
1.10549e-15
1.05842e-15
9.99911e-16
8.32356e-16
4.56095e-16
9.45221e-17
3.89678e-18
2.56071e-20
5.68333e-23
8.63833e-26
1.03185e-28
9.85824e-32
7.58773e-35
4.71208e-38
2.35072e-41
9.56427e-45
3.13902e-48
8.42332e-52
1.82637e-55
3.19388e-59
4.55916e-63
5.16754e-67
4.69648e-71
3.35888e-75
1.87411e-79
8.07684e-84
2.60406e-88
6.25217e-93
9.73768e-97
5.82738e-99
1.38337e-101
1.27174e-104
3.60753e-108
-8.18289e-113
-3.06007e-116
1.65187e-15
1.25061e-15
1.11461e-15
1.06341e-15
1.00144e-15
8.35885e-16
4.67164e-16
1.01387e-16
4.4659e-18
3.10401e-20
7.03338e-23
1.07966e-25
1.30318e-28
1.25942e-31
9.80484e-35
6.1553e-38
3.10326e-41
1.27594e-44
4.23589e-48
1.15119e-51
2.53243e-55
4.50304e-59
6.55369e-63
7.60294e-67
7.10599e-71
5.25872e-75
3.05938e-79
1.38742e-83
4.75808e-88
1.21093e-92
2.20851e-97
2.95046e-102
2.09017e-105
3.71747e-108
1.92012e-111
-2.50317e-116
-2.89103e-119
1.62105e-15
1.24184e-15
1.11671e-15
1.06428e-15
9.96106e-16
8.22643e-16
4.50899e-16
9.41023e-17
3.88918e-18
2.53311e-20
5.55733e-23
8.36199e-26
9.90638e-29
9.39327e-32
7.16764e-35
4.4074e-38
2.1771e-41
8.78489e-45
2.86795e-48
7.68568e-52
1.67344e-55
2.95953e-59
4.31072e-63
5.04721e-67
4.81041e-71
3.67669e-75
2.24216e-79
1.08354e-83
4.02814e-88
1.12743e-92
2.26915e-97
3.08186e-102
2.59928e-107
2.48558e-113
-5.92271e-116
-5.79836e-119
-1.79327e-122
1.54199e-15
1.21797e-15
1.11435e-15
1.05876e-15
9.79397e-16
7.85506e-16
4.00193e-16
7.22343e-17
2.42226e-18
1.31815e-20
2.69598e-23
3.90536e-26
4.46484e-29
4.08159e-32
2.99788e-35
1.77277e-38
8.42445e-42
3.27814e-45
1.03476e-48
2.6919e-52
5.72297e-56
9.96157e-60
1.44315e-63
1.70381e-67
1.66396e-71
1.327e-75
8.60181e-80
4.49456e-84
1.82875e-88
5.61228e-93
1.23922e-97
1.8476e-102
1.70752e-107
8.67426e-113
1.35586e-118
-4.65184e-122
-8.8486e-126
1.43342e-15
1.18866e-15
1.1038e-15
1.04445e-15
9.49623e-16
7.22498e-16
3.2034e-16
4.42906e-17
1.03652e-18
4.30393e-21
8.00083e-24
1.09593e-26
1.18804e-29
1.02887e-32
7.15169e-36
4.00345e-39
1.80455e-42
6.69092e-46
2.02251e-49
5.07382e-53
1.05029e-56
1.8024e-60
2.61408e-64
3.1445e-68
3.18507e-72
2.67816e-76
1.85405e-80
1.04118e-84
4.54627e-89
1.49429e-93
3.54031e-98
5.65279e-103
5.54409e-108
2.96063e-113
7.15549e-119
3.42954e-125
-2.91384e-129
1.32353e-15
1.15623e-15
1.0847e-15
1.02039e-15
9.03537e-16
6.28852e-16
2.22247e-16
2.0485e-17
2.91454e-19
8.89014e-22
1.48451e-24
1.88712e-27
1.90224e-30
1.53104e-33
9.89483e-37
5.16261e-40
2.17919e-43
7.62698e-47
2.1953e-50
5.30434e-54
1.07291e-57
1.82965e-61
2.68388e-65
3.32078e-69
3.50761e-73
3.10549e-77
2.27341e-81
1.35044e-85
6.26937e-90
2.21493e-94