/*--------------------------------*- C++ -*----------------------------------*\
| =========                 |                                                 |
| \\      /  F ield         | OpenFOAM: The Open Source CFD Toolbox           |
|  \\    /   O peration     | Version:  v2012                                 |
|   \\  /    A nd           | Website:  www.openfoam.com                      |
|    \\/     M anipulation  |                                                 |
\*---------------------------------------------------------------------------*/
FoamFile
{
    version     2.0;
    format      ascii;
    class       surfaceScalarField;
    location    "0.1";
    object      phi;
}
// * * * * * * * * * * * * * * * * * * * * * * * * * * * * * * * * * * * * * //

dimensions      [0 3 -1 0 0 0 0];
oriented        oriented;


internalField   nonuniform List<scalar> 
6514
(
1.1329e-10
-2.25852e-10
-6.34184e-17
1.20174e-10
-2.35577e-10
-3.71492e-17
1.26465e-10
-2.44191e-10
-1.75321e-17
1.32058e-10
-2.51607e-10
4.99871e-18
1.36866e-10
-2.57738e-10
8.57567e-18
1.40816e-10
-2.62597e-10
1.58262e-17
1.43851e-10
-2.66127e-10
2.08413e-17
1.45934e-10
-2.68379e-10
2.69229e-17
1.47048e-10
-2.69393e-10
3.09507e-17
1.47192e-10
-2.69229e-10
3.66529e-17
1.46382e-10
-2.67975e-10
4.40099e-17
1.44652e-10
-2.65727e-10
5.02236e-17
1.42044e-10
-2.62602e-10
5.43132e-17
1.38617e-10
-2.587e-10
5.82846e-17
1.34435e-10
-2.54143e-10
6.22674e-17
1.29568e-10
-2.49033e-10
6.52116e-17
1.24093e-10
-2.43417e-10
6.66557e-17
1.18084e-10
-2.37515e-10
6.83385e-17
1.11619e-10
-2.31243e-10
6.9176e-17
1.04772e-10
-2.24782e-10
6.9423e-17
9.76174e-11
-2.18068e-10
6.76181e-17
9.02271e-11
-2.1111e-10
6.58792e-17
8.26638e-11
-2.04027e-10
6.36832e-17
7.4997e-11
-1.96585e-10
6.01611e-17
6.72864e-11
-1.88836e-10
5.28109e-17
5.9595e-11
-1.80594e-10
4.92144e-17
5.19853e-11
-1.71725e-10
4.39205e-17
4.45191e-11
-1.62064e-10
3.79903e-17
3.72681e-11
-1.51284e-10
3.17449e-17
3.03092e-11
-1.3915e-10
2.69256e-17
2.37298e-11
-1.25393e-10
2.11887e-17
1.7634e-11
-1.09778e-10
1.6187e-17
1.21445e-11
-9.22454e-11
1.12137e-17
7.40919e-12
-7.30075e-11
6.80729e-18
3.6156e-12
-5.24962e-11
2.84633e-18
1.01915e-12
-3.1317e-11
-1.34758e-18
-9.82682e-12
-5.93683e-18
1.20484e-10
-2.33344e-10
-1.86218e-17
1.27409e-10
-2.42502e-10
-2.10942e-17
1.33653e-10
-2.50436e-10
7.00964e-18
1.39116e-10
-2.57071e-10
1.87816e-17
1.43714e-10
-2.62336e-10
2.29705e-17
1.47379e-10
-2.66262e-10
2.78119e-17
1.50065e-10
-2.68813e-10
3.13589e-17
1.51743e-10
-2.70058e-10
3.96735e-17
1.52409e-10
-2.70059e-10
4.13376e-17
1.52073e-10
-2.68893e-10
4.86372e-17
1.50765e-10
-2.66666e-10
5.12915e-17
1.48528e-10
-2.63489e-10
5.7743e-17
1.45417e-10
-2.59491e-10
5.80328e-17
1.41498e-10
-2.54782e-10
6.25424e-17
1.36845e-10
-2.49491e-10
6.40419e-17
1.31535e-10
-2.43724e-10
6.74052e-17
1.25651e-10
-2.37532e-10
6.74065e-17
1.19268e-10
-2.31132e-10
6.90327e-17
1.12469e-10
-2.24443e-10
6.86808e-17
1.05328e-10
-2.17641e-10
6.84912e-17
9.79203e-11
-2.1066e-10
6.59808e-17
9.03169e-11
-2.03506e-10
6.38782e-17
8.25789e-11
-1.96289e-10
6.12452e-17
7.47742e-11
-1.88779e-10
5.74138e-17
6.696e-11
-1.81022e-10
5.09987e-17
5.91972e-11
-1.72831e-10
4.73691e-17
5.15455e-11
-1.64073e-10
4.22164e-17
4.40642e-11
-1.54583e-10
3.66153e-17
3.68223e-11
-1.44042e-10
3.07055e-17
2.98939e-11
-1.32222e-10
2.6192e-17
2.33634e-11
-1.18863e-10
2.07465e-17
1.73311e-11
-1.03745e-10
1.59186e-17
1.19153e-11
-8.68297e-11
1.11456e-17
7.25732e-12
-6.83496e-11
6.794e-18
3.53613e-12
-4.87751e-11
2.91e-18
9.95355e-13
-2.87763e-11
-1.27718e-18
-8.8316e-12
-5.65882e-18
1.28121e-10
-2.40924e-10
-3.91346e-17
1.3504e-10
-2.49422e-10
-1.33982e-17
1.41186e-10
-2.56583e-10
1.95042e-18
1.46461e-10
-2.62346e-10
2.43274e-17
1.50786e-10
-2.66662e-10
2.53507e-17
1.54105e-10
-2.69581e-10
3.16899e-17
1.5638e-10
-2.71088e-10
3.74231e-17
1.57596e-10
-2.71275e-10
4.43203e-17
1.57759e-10
-2.70223e-10
4.96929e-17
1.56895e-10
-2.68029e-10
5.30726e-17
1.55045e-10
-2.64816e-10
5.78269e-17
1.52265e-10
-2.60709e-10
5.97682e-17
1.48621e-10
-2.55847e-10
6.18697e-17
1.44188e-10
-2.5035e-10
6.33362e-17
1.3905e-10
-2.44352e-10
6.6443e-17
1.33287e-10
-2.37962e-10
6.79759e-17
1.26989e-10
-2.31232e-10
6.91083e-17
1.20233e-10
-2.24377e-10
6.94828e-17
1.13106e-10
-2.17315e-10
6.95107e-17
1.05679e-10
-2.10215e-10
6.83044e-17
9.80292e-11
-2.03009e-10
6.58277e-17
9.02254e-11
-1.95702e-10
6.30172e-17
8.23269e-11
-1.88391e-10
6.02188e-17
7.43991e-11
-1.80851e-10
5.60113e-17
6.64968e-11
-1.7312e-10
4.99404e-17
5.8678e-11
-1.65012e-10
4.61152e-17
5.09995e-11
-1.56394e-10
4.10024e-17
4.35179e-11
-1.47101e-10
3.55045e-17
3.62993e-11
-1.36824e-10
2.98228e-17
2.94149e-11
-1.25337e-10
2.55228e-17
2.2946e-11
-1.12394e-10
2.03406e-17
1.69894e-11
-9.77887e-11
1.57232e-17
1.16583e-11
-8.14986e-11
1.11487e-17
7.08767e-12
-6.37791e-11
6.92038e-18
3.44744e-12
-4.5135e-11
3.1575e-18
9.68726e-13
-2.62978e-11
-9.58017e-19
-7.86301e-12
-5.18821e-18
1.36214e-10
-2.48546e-10
1.59445e-17
1.43073e-10
-2.56282e-10
2.52703e-18
1.4906e-10
-2.62569e-10
3.04987e-17
1.5408e-10
-2.67368e-10
3.80426e-17
1.58066e-10
-2.70648e-10
3.94261e-17
1.6097e-10
-2.72485e-10
4.17219e-17
1.62768e-10
-2.72886e-10
4.42772e-17
1.63458e-10
-2.71966e-10
5.32678e-17
1.63063e-10
-2.69828e-10
5.43455e-17
1.6162e-10
-2.66587e-10
6.055e-17
1.59185e-10
-2.62382e-10
6.0081e-17
1.55827e-10
-2.5735e-10
6.43587e-17
1.51623e-10
-2.51643e-10
6.24808e-17
1.46657e-10
-2.45385e-10
6.61352e-17
1.4102e-10
-2.38714e-10
6.67355e-17
1.34799e-10
-2.31741e-10
6.99076e-17
1.28086e-10
-2.24519e-10
6.96397e-17
1.20962e-10
-2.17254e-10
7.08975e-17
1.13513e-10
-2.09866e-10
6.99499e-17
1.05812e-10
-2.02514e-10
6.89481e-17
9.7933e-11
-1.9513e-10
6.58141e-17
8.99438e-11
-1.87712e-10
6.29139e-17
8.19007e-11
-1.80348e-10
5.96789e-17
7.38665e-11
-1.72817e-10
5.51619e-17
6.58928e-11
-1.65146e-10
4.93401e-17
5.80344e-11
-1.57153e-10
4.53275e-17
5.03452e-11
-1.48704e-10
4.01338e-17
4.28786e-11
-1.39635e-10
3.46901e-17
3.56981e-11
-1.29643e-10
2.90809e-17
2.88716e-11
-1.18511e-10
2.49089e-17
2.24775e-11
-1.06e-10
1.98834e-17
1.66085e-11
-9.19198e-11
1.54138e-17
1.13733e-11
-7.62635e-11
1.09867e-17
6.90014e-12
-5.9306e-11
6.85016e-18
3.34947e-12
-4.15844e-11
3.15747e-18
9.39232e-13
-2.38877e-11
-8.97969e-19
-6.92391e-12
-5.06296e-18
1.44777e-10
-2.56154e-10
-3.01083e-17
1.51511e-10
-2.63017e-10
-2.82407e-19
1.57266e-10
-2.68325e-10
2.28544e-17
1.61958e-10
-2.72061e-10
4.31509e-17
1.65528e-10
-2.74218e-10
4.40978e-17
1.67943e-10
-2.74899e-10
4.65461e-17
1.69193e-10
-2.74136e-10
5.21022e-17
1.69293e-10
-2.72067e-10
5.70904e-17
1.68279e-10
-2.68815e-10
6.24942e-17
1.66208e-10
-2.64515e-10
6.28748e-17
1.63146e-10
-2.5932e-10
6.5971e-17
1.59177e-10
-2.53381e-10
6.49249e-17
1.54388e-10
-2.46854e-10
6.61932e-17
1.48872e-10
-2.3987e-10
6.61967e-17
1.42727e-10
-2.32568e-10
6.91434e-17
1.36044e-10
-2.25059e-10
7.00611e-17
1.28919e-10
-2.17393e-10
7.13984e-17
1.21434e-10
-2.09769e-10
7.12774e-17
1.13675e-10
-2.02106e-10
7.10645e-17
1.05713e-10
-1.94553e-10
6.90922e-17
9.76212e-11
-1.87038e-10
6.62038e-17
8.94637e-11
-1.79554e-10
6.26427e-17
8.1294e-11
-1.72179e-10
5.93458e-17
7.31715e-11
-1.64694e-10
5.44858e-17
6.51443e-11
-1.57119e-10
4.87958e-17
5.72639e-11
-1.49273e-10
4.45389e-17
4.95809e-11
-1.41021e-10
3.93097e-17
4.21455e-11
-1.322e-10
3.38369e-17
3.50181e-11
-1.22515e-10
2.83423e-17
2.82638e-11
-1.11756e-10
2.4267e-17
2.19576e-11
-9.9694e-11
1.94063e-17
1.61886e-11
-8.61509e-11
1.50861e-17
1.10605e-11
-7.11355e-11
1.08144e-17
6.69476e-12
-5.49404e-11
6.80335e-18
3.24222e-12
-3.8132e-11
3.22114e-18
9.06859e-13
-2.15525e-11
-7.29323e-19
-6.01718e-12
-4.75575e-18
1.53815e-10
-2.63679e-10
3.16382e-17
1.60349e-10
-2.69551e-10
3.08714e-17
1.65791e-10
-2.73768e-10
5.62108e-17
1.7007e-10
-2.7634e-10
6.51289e-17
1.73141e-10
-2.77289e-10
6.08419e-17
1.74986e-10
-2.76744e-10
6.14178e-17
1.75612e-10
-2.74763e-10
5.93481e-17
1.75053e-10
-2.71508e-10
6.79251e-17
1.73363e-10
-2.67125e-10
6.5659e-17
1.70612e-10
-2.61764e-10
7.05422e-17
1.66883e-10
-2.55592e-10
6.66867e-17
1.62272e-10
-2.48769e-10
6.97834e-17
1.56877e-10
-2.41458e-10
6.60409e-17
1.50798e-10
-2.33792e-10
6.93692e-17
1.44139e-10
-2.25909e-10
6.89949e-17
1.36996e-10
-2.17916e-10
7.21667e-17
1.29466e-10
-2.09862e-10
7.16268e-17
1.21631e-10
-2.01934e-10
7.27828e-17
1.13576e-10
-1.9405e-10
7.14195e-17
1.0537e-10
-1.86347e-10
6.99352e-17
9.70838e-11
-1.78751e-10
6.6367e-17
8.87775e-11
-1.71247e-10
6.28773e-17
8.0501e-11
-1.63902e-10
5.91274e-17
7.23099e-11
-1.56502e-10
5.40315e-17
6.42485e-11
-1.49058e-10
4.85647e-17
5.63647e-11
-1.41389e-10
4.40998e-17
4.87055e-11
-1.33361e-10
3.8723e-17
4.13179e-11
-1.24812e-10
3.32221e-17
3.42593e-11
-1.15457e-10
2.77167e-17
2.75915e-11
-1.05088e-10
2.36909e-17
2.13866e-11
-9.34891e-11
1.89098e-17
1.57298e-11
-8.04941e-11
1.46993e-17
1.07199e-11
-6.61258e-11
1.0531e-17
6.47165e-12
-5.06922e-11
6.61086e-18
3.12574e-12
-3.47862e-11
3.09428e-18
8.7161e-13
-1.92985e-11
-7.86507e-19
-5.1457e-12
-4.73984e-18
1.63331e-10
-2.71041e-10
3.11922e-17
1.69574e-10
-2.75794e-10
3.65532e-17
1.74611e-10
-2.78805e-10
6.39552e-17
1.78383e-10
-2.80112e-10
7.10699e-17
1.80862e-10
-2.79768e-10
7.22047e-17
1.8205e-10
-2.77932e-10
6.57895e-17
1.81975e-10
-2.74687e-10
7.02553e-17
1.80687e-10
-2.70221e-10
7.01036e-17
1.7826e-10
-2.64698e-10
7.47208e-17
1.74781e-10
-2.58285e-10
7.07615e-17
1.70348e-10
-2.51159e-10
7.29294e-17
1.65068e-10
-2.43489e-10
6.90318e-17
1.59049e-10
-2.35439e-10
7.01799e-17
1.52399e-10
-2.27143e-10
6.87419e-17
1.45226e-10
-2.18735e-10
7.16846e-17
1.37628e-10
-2.10319e-10
7.18914e-17
1.29704e-10
-2.01937e-10
7.34816e-17
1.21533e-10
-1.93764e-10
7.29154e-17
1.13201e-10
-1.85716e-10
7.26148e-17
1.04771e-10
-1.77918e-10
7.0071e-17
9.63114e-11
-1.7029e-10
6.69561e-17
8.7878e-11
-1.62813e-10
6.27877e-17
7.95165e-11
-1.55541e-10
5.90486e-17
7.12782e-11
-1.48263e-10
5.36095e-17
6.32032e-11
-1.40983e-10
4.8366e-17
5.53355e-11
-1.33521e-10
4.36201e-17
4.77185e-11
-1.25744e-10
3.8151e-17
4.03959e-11
-1.1749e-10
3.25394e-17
3.34218e-11
-1.08482e-10
2.70867e-17
2.68553e-11
-9.85218e-11
2.30818e-17
2.0765e-11
-8.7399e-11
1.84095e-17
1.52326e-11
-7.49618e-11
1.42961e-17
1.03521e-11
-6.12453e-11
1.02427e-17
6.23108e-12
-4.65713e-11
6.42084e-18
3.00014e-12
-3.15554e-11
2.9835e-18
8.33507e-13
-1.7132e-11
-8.14404e-19
-4.31232e-12
-4.68008e-18
1.73316e-10
-2.78142e-10
8.13594e-17
1.79166e-10
-2.81644e-10
8.71726e-17
1.83692e-10
-2.83331e-10
9.16769e-17
1.86852e-10
-2.83274e-10
1.01377e-16
1.88642e-10
-2.81557e-10
8.53112e-17
1.89081e-10
-2.78371e-10
8.48336e-17
1.88222e-10
-2.73827e-10
7.44115e-17
1.86134e-10
-2.68134e-10
8.27389e-17
1.82912e-10
-2.61476e-10
7.4936e-17
1.78659e-10
-2.54031e-10
7.90403e-17
1.73488e-10
-2.45988e-10
7.14901e-17
1.67517e-10
-2.37517e-10
7.43489e-17
1.60862e-10
-2.28784e-10
6.8762e-17
1.53638e-10
-2.19919e-10
7.22338e-17
1.45954e-10
-2.11052e-10
7.07855e-17
1.37913e-10
-2.02278e-10
7.41088e-17
1.2961e-10
-1.93632e-10
7.32235e-17
1.21124e-10
-1.85279e-10
7.44027e-17
1.12535e-10
-1.77127e-10
7.2703e-17
1.03905e-10
-1.69289e-10
7.09314e-17
9.52956e-11
-1.61681e-10
6.70728e-17
8.67593e-11
-1.54276e-10
6.31117e-17
7.83365e-11
-1.47118e-10
5.88799e-17
7.00737e-11
-1.4e-10
5.32533e-17
6.20069e-11
-1.32916e-10
4.829e-17
5.41758e-11
-1.2569e-10
4.33397e-17
4.662e-11
-1.18188e-10
3.7685e-17
3.938e-11
-1.1025e-10
3.20066e-17
3.25066e-11
-1.01609e-10
2.65027e-17
2.6056e-11
-9.20712e-11
2.2505e-17
2.00938e-11
-8.14368e-11
1.78848e-17
1.46979e-11
-6.9566e-11
1.38642e-17
9.95756e-12
-5.65051e-11
9.90371e-18
5.97344e-12
-4.25873e-11
6.1835e-18
2.86562e-12
-2.84477e-11
2.81464e-18
7.92597e-13
-1.50591e-11
-9.04659e-19
-3.51985e-12
-4.68075e-18
1.83753e-10
-2.84869e-10
9.32036e-17
1.89091e-10
-2.86983e-10
7.21911e-17
1.92988e-10
-2.87227e-10
1.09048e-16
1.95423e-10
-2.8571e-10
9.73888e-17
1.96416e-10
-2.82549e-10
1.01369e-16
1.96011e-10
-2.77966e-10
8.31382e-17
1.94284e-10
-2.72099e-10
8.76423e-17
1.91327e-10
-2.65179e-10
8.04417e-17
1.87254e-10
-2.57403e-10
8.50698e-17
1.82185e-10
-2.48963e-10
7.59801e-17
1.76247e-10
-2.4005e-10
7.83715e-17
1.69568e-10
-2.30837e-10
7.15671e-17
1.62271e-10
-2.21487e-10
7.3302e-17
1.54475e-10
-2.12124e-10
7.03809e-17
1.46293e-10
-2.02869e-10
7.36341e-17
1.37823e-10
-1.93809e-10
7.30899e-17
1.29162e-10
-1.8497e-10
7.50499e-17
1.20384e-10
-1.76501e-10
7.40757e-17
1.11564e-10
-1.68307e-10
7.38395e-17
1.02761e-10
-1.60485e-10
7.08736e-17
9.40291e-11
-1.52949e-10
6.7694e-17
8.54164e-11
-1.45662e-10
6.30293e-17
7.69577e-11
-1.3866e-10
5.88932e-17
6.86949e-11
-1.31737e-10
5.29136e-17
6.06591e-11
-1.2488e-10
4.82473e-17
5.28858e-11
-1.17917e-10
4.30025e-17
4.54108e-11
-1.10713e-10
3.72404e-17
3.82714e-11
-1.0311e-10
3.14142e-17
3.15151e-11
-9.48526e-11
2.59271e-17
2.51951e-11
-8.57512e-11
2.19109e-17
1.93743e-11
-7.5616e-11
1.73664e-17
1.41268e-11
-6.43187e-11
1.34241e-17
9.53724e-12
-5.19156e-11
9.56399e-18
5.6993e-12
-3.87495e-11
5.94871e-18
2.72246e-12
-2.5471e-11
2.6584e-18
7.48951e-13
-1.30858e-11
-9.63569e-19
-2.77103e-12
-4.64531e-18
1.94608e-10
-2.91091e-10
1.0436e-16
1.99302e-10
-2.91677e-10
1.34024e-16
2.02439e-10
-2.90363e-10
1.16852e-16
2.04026e-10
-2.87297e-10
1.32535e-16
2.04109e-10
-2.82631e-10
1.03234e-16
2.02761e-10
-2.76618e-10
1.05166e-16
2.00082e-10
-2.6942e-10
8.4642e-17
1.96188e-10
-2.61286e-10
9.49192e-17
1.91213e-10
-2.52427e-10
8.04319e-17
1.85292e-10
-2.43042e-10
8.53156e-17
1.78565e-10
-2.33323e-10
7.38303e-17
1.71168e-10
-2.2344e-10
7.7545e-17
1.6323e-10
-2.13549e-10
6.9984e-17
1.54873e-10
-2.03767e-10
7.41427e-17
1.46208e-10
-1.94204e-10
7.15791e-17
1.37333e-10
-1.84934e-10
7.5319e-17
1.2834e-10
-1.75976e-10
7.40642e-17
1.19298e-10
-1.67459e-10
7.54261e-17
1.10278e-10
-1.59286e-10
7.34926e-17
1.01331e-10
-1.51538e-10
7.1617e-17
9.2506e-11
-1.44124e-10
6.76078e-17
8.38455e-11
-1.37001e-10
6.33114e-17
7.53784e-11
-1.30193e-10
5.8661e-17
6.71411e-11
-1.23499e-10
5.25511e-17
5.91602e-11
-1.16899e-10
4.81686e-17
5.14667e-11
-1.10223e-10
4.27497e-17
4.40927e-11
-1.03338e-10
3.67977e-17
3.7072e-11
-9.60897e-11
3.09044e-17
3.04491e-11
-8.82297e-11
2.53522e-17
2.42746e-11
-7.95767e-11
2.13234e-17
1.86081e-11
-6.99497e-11
1.68181e-17
1.35208e-11
-5.92314e-11
1.29623e-17
9.09221e-12
-4.74871e-11
9.19751e-18
5.40939e-12
-3.50668e-11
5.69217e-18
2.57103e-12
-2.26327e-11
2.48784e-18
7.0267e-13
-1.12175e-11
-1.03687e-18
-2.06848e-12
-4.61056e-18
2.05836e-10
-2.96654e-10
1.52703e-16
2.09735e-10
-2.95576e-10
9.99964e-17
2.11968e-10
-2.92596e-10
1.4618e-16
2.12574e-10
-2.87903e-10
1.14598e-16
2.1163e-10
-2.81686e-10
1.24843e-16
2.09239e-10
-2.74226e-10
9.37738e-17
2.05527e-10
-2.65707e-10
1.01035e-16
2.00633e-10
-2.56393e-10
8.58311e-17
1.9471e-10
-2.46504e-10
9.24544e-17
1.87908e-10
-2.3624e-10
7.77095e-17
1.80378e-10
-2.25792e-10
8.18551e-17
1.72262e-10
-2.15323e-10
7.19706e-17
1.63693e-10
-2.04979e-10
7.50704e-17
1.54792e-10
-1.94867e-10
7.05796e-17
1.45669e-10
-1.85081e-10
7.45642e-17
1.36417e-10
-1.75683e-10
7.3268e-17
1.27124e-10
-1.66681e-10
7.57742e-17
1.17852e-10
-1.58188e-10
7.44434e-17
1.08664e-10
-1.50098e-10
7.44354e-17
9.96069e-11
-1.42481e-10
7.11801e-17
9.07218e-11
-1.35238e-10
6.80851e-17
8.20443e-11
-1.28323e-10
6.3047e-17
7.35978e-11
-1.21747e-10
5.85952e-17
6.54131e-11
-1.15314e-10
5.21326e-17
5.75118e-11
-1.08998e-10
4.80717e-17
4.99208e-11
-1.02632e-10
4.23721e-17
4.26682e-11
-9.60856e-11
3.63388e-17
3.57845e-11
-8.9206e-11
3.03036e-17
2.93115e-11
-8.17566e-11
2.47693e-17
2.32968e-11
-7.3562e-11
2.07082e-17
1.77976e-11
-6.44506e-11
1.62719e-17
1.28816e-11
-5.43154e-11
1.24902e-17
8.62387e-12
-4.32295e-11
8.82685e-18
5.10462e-12
-3.15476e-11
5.43315e-18
2.41179e-12
-1.994e-11
2.31553e-18
6.53887e-13
-9.45978e-12
-1.09092e-18
-1.41472e-12
-4.55469e-18
2.17364e-10
-3.01389e-10
1.18595e-16
2.20302e-10
-2.98513e-10
1.64589e-16
2.21477e-10
-2.93771e-10
1.27419e-16
2.20964e-10
-2.87391e-10
1.52709e-16
2.18874e-10
-2.79595e-10
1.10464e-16
2.15341e-10
-2.70693e-10
1.19236e-16
2.10519e-10
-2.60884e-10
8.75995e-17
2.04569e-10
-2.50444e-10
1.03165e-16
1.97661e-10
-2.39596e-10
8.11138e-17
1.89959e-10
-2.28538e-10
8.89901e-17
1.81621e-10
-2.17454e-10
7.3215e-17
1.72795e-10
-2.06496e-10
7.90576e-17
1.63613e-10
-1.95797e-10
6.92915e-17
1.54194e-10
-1.85449e-10
7.47632e-17
1.44645e-10
-1.75531e-10
7.10524e-17
1.35052e-10
-1.66091e-10
7.55216e-17
1.25496e-10
-1.57124e-10
7.38877e-17
1.16032e-10
-1.48724e-10
7.5601e-17
1.06716e-10
-1.40781e-10
7.35149e-17
9.75844e-11
-1.3335e-10
7.16969e-17
8.86739e-11
-1.26327e-10
6.76525e-17
8.00123e-11
-1.1966e-10
6.31494e-17
7.16168e-11
-1.13352e-10
5.81706e-17
6.35127e-11
-1.07209e-10
5.16629e-17
5.57167e-11
-1.01202e-10
4.78309e-17
4.82512e-11
-9.51668e-11
4.20068e-17
4.11406e-11
-8.89747e-11
3.58139e-17
3.44124e-11
-8.24779e-11
2.97401e-17
2.81055e-11
-7.54496e-11
2.41571e-17
2.2265e-11
-6.77215e-11
2.00884e-17
1.69455e-11
-5.91312e-11
1.56936e-17
1.22115e-11
-4.95815e-11
1.19987e-17
8.13392e-12
-3.9152e-11
8.43472e-18
4.78612e-12
-2.81999e-11
5.16169e-18
2.24534e-12
-1.73993e-11
2.14312e-18
6.02771e-13
-7.81734e-12
-1.14176e-18
-8.12065e-13
-4.47697e-18
2.291e-10
-3.05099e-10
1.76e-16
2.30894e-10
-3.00306e-10
1.08494e-16
2.30846e-10
-2.93723e-10
1.65912e-16
2.29071e-10
-2.85616e-10
1.18014e-16
2.25717e-10
-2.7624e-10
1.38978e-16
2.20948e-10
-2.65923e-10
9.48448e-17
2.14945e-10
-2.54881e-10
1.08974e-16
2.07893e-10
-2.43392e-10
8.49505e-17
1.99974e-10
-2.31678e-10
9.65403e-17
1.91365e-10
-2.19928e-10
7.55647e-17
1.82227e-10
-2.08316e-10
8.32854e-17
1.7271e-10
-1.96978e-10
7.00054e-17
1.62944e-10
-1.86031e-10
7.53484e-17
1.53044e-10
-1.75549e-10
6.91559e-17
1.43108e-10
-1.65595e-10
7.4338e-17
1.33217e-10
-1.562e-10
7.22774e-17
1.23441e-10
-1.47347e-10
7.55167e-17
1.13828e-10
-1.39111e-10
7.38626e-17
1.04425e-10
-1.31377e-10
7.42178e-17
9.52599e-11
-1.24185e-10
7.07722e-17
8.63615e-11
-1.17429e-10
6.78737e-17
7.77506e-11
-1.11049e-10
6.25736e-17
6.94381e-11
-1.05039e-10
5.79106e-17
6.14437e-11
-9.92141e-11
5.1053e-17
5.3779e-11
-9.35369e-11
4.75287e-17
4.64623e-11
-8.78501e-11
4.14538e-17
3.95145e-11
-8.20267e-11
3.52337e-17
3.29601e-11
-7.59235e-11
2.90532e-17
2.68353e-11
-6.93246e-11
2.35128e-17
2.11828e-11
-6.20691e-11
1.94267e-17
1.60549e-11
-5.40034e-11
1.51063e-17
1.15132e-11
-4.50398e-11
1.14941e-17
7.62437e-12
-3.52633e-11
8.0349e-18
4.45523e-12
-2.50309e-11
4.88468e-18
2.07237e-12
-1.50166e-11
1.9643e-18
5.49532e-13
-6.29463e-12
-1.18472e-18
-2.6265e-13
-4.39602e-18
2.40916e-10
-3.07573e-10
1.12423e-16
2.41372e-10
-3.00762e-10
1.73526e-16
2.39931e-10
-2.92281e-10
1.23354e-16
2.3675e-10
-2.82435e-10
1.62177e-16
2.32016e-10
-2.71505e-10
1.06127e-16
2.25926e-10
-2.59832e-10
1.27002e-16
2.18685e-10
-2.47639e-10
8.24462e-17
2.10496e-10
-2.35203e-10
1.07663e-16
2.01555e-10
-2.22737e-10
7.68706e-17
1.92044e-10
-2.10417e-10
9.03853e-17
1.82128e-10
-1.98399e-10
6.96787e-17
1.71952e-10
-1.86802e-10
7.90186e-17
1.61642e-10
-1.75721e-10
6.67177e-17
1.51306e-10
-1.65213e-10
7.41479e-17
1.41033e-10
-1.55322e-10
6.92214e-17
1.30893e-10
-1.46061e-10
7.47156e-17
1.20947e-10
-1.374e-10
7.26716e-17
1.11233e-10
-1.29397e-10
7.48664e-17
1.01789e-10
-1.21932e-10
7.26719e-17
9.2633e-11
-1.15029e-10
7.10207e-17
8.37864e-11
-1.08582e-10
6.70118e-17
7.52626e-11
-1.02524e-10
6.24111e-17
6.70662e-11
-9.6843e-11
5.72022e-17
5.9211e-11
-9.13585e-11
5.04008e-17
5.17043e-11
-8.603e-11
4.70082e-17
4.45599e-11
-8.07057e-11
4.0873e-17
3.77956e-11
-7.52621e-11
3.45394e-17
3.1433e-11
-6.95609e-11
2.8366e-17
2.55058e-11
-6.33974e-11
2.28134e-17
2.00548e-11
-5.66181e-11
1.87424e-17
1.51298e-11
-4.90785e-11
1.44814e-17
1.07899e-11
-4.06999e-11
1.09689e-17
7.09761e-12
-3.15711e-11
7.61934e-18
4.11354e-12
-2.20469e-11
4.59993e-18
1.89374e-12
-1.27969e-11
1.78991e-18
4.94425e-13
-4.89545e-12
-1.22041e-18
2.31661e-13
-4.28264e-18
2.52657e-10
-3.08575e-10
1.77737e-16
2.51568e-10
-2.99672e-10
1.04586e-16
2.48559e-10
-2.89272e-10
1.75017e-16
2.43833e-10
-2.77709e-10
1.10232e-16
2.37613e-10
-2.65284e-10
1.47144e-16
2.30128e-10
-2.52346e-10
8.70848e-17
2.21606e-10
-2.39116e-10
1.13234e-16
2.12263e-10
-2.25861e-10
7.83563e-17
2.02305e-10
-2.12779e-10
9.83956e-17
1.91915e-10
-2.00027e-10
7.0034e-17
1.81256e-10
-1.8774e-10
8.32272e-17
1.70467e-10
-1.76013e-10
6.59817e-17
1.59666e-10
-1.6492e-10
7.44579e-17
1.4895e-10
-1.54497e-10
6.63412e-17
1.38397e-10
-1.44768e-10
7.31478e-17
1.28066e-10
-1.3573e-10
7.02579e-17
1.18006e-10
-1.27339e-10
7.43665e-17
1.08244e-10
-1.19635e-10
7.23759e-17
9.88068e-11
-1.12495e-10
7.31661e-17
8.97062e-11
-1.05929e-10
6.95778e-17
8.09531e-11
-9.98282e-11
6.69414e-17
7.25541e-11
-9.41246e-11
6.14614e-17
6.45076e-11
-8.87966e-11
5.66874e-17
5.68219e-11
-8.36724e-11
4.95398e-17
4.94996e-11
-7.87077e-11
4.64092e-17
4.25511e-11
-7.37571e-11
4.0067e-17
3.59906e-11
-6.87014e-11
3.37707e-17
2.98374e-11
-6.34076e-11
2.75368e-17
2.41229e-11
-5.76828e-11
2.20644e-17
1.8886e-11
-5.13811e-11
1.79989e-17
1.41746e-11
-4.43672e-11
1.38386e-17
1.00451e-11
-3.65705e-11
1.04211e-17
6.55635e-12
-2.80825e-11
7.1892e-18
3.76287e-12
-1.92535e-11
4.30128e-18
1.71041e-12
-1.07445e-11
1.60579e-18
4.37753e-13
-3.62291e-12
-1.25319e-18
6.69304e-13
-4.17385e-18
2.64114e-10
-3.07861e-10
1.07177e-16
2.61271e-10
-2.96828e-10
1.79342e-16
2.56525e-10
-2.84525e-10
1.11355e-16
2.50124e-10
-2.71309e-10
1.70005e-16
2.42329e-10
-2.57488e-10
9.32584e-17
2.33395e-10
-2.43411e-10
1.32813e-16
2.23568e-10
-2.29289e-10
7.11729e-17
2.13075e-10
-2.15369e-10
1.10688e-16
2.02124e-10
-2.01828e-10
6.88388e-17
1.90896e-10
-1.88799e-10
9.06914e-17
1.79547e-10
-1.7639e-10
6.39399e-17
1.68206e-10
-1.64672e-10
7.80687e-17
1.5698e-10
-1.53693e-10
6.27736e-17
1.4595e-10
-1.43468e-10
7.27146e-17
1.35184e-10
-1.34001e-10
6.64446e-17
1.24725e-10
-1.25272e-10
7.31526e-17
1.14612e-10
-1.17225e-10
7.06264e-17
1.04859e-10
-1.09882e-10
7.33463e-17
9.5483e-11
-1.03118e-10
7.10266e-17
8.64852e-11
-9.6931e-11
6.95818e-17
7.78688e-11
-9.12114e-11
6.56336e-17
6.96333e-11
-8.58884e-11
6.10072e-17
6.1771e-11
-8.09344e-11
5.56569e-17
5.42851e-11
-7.6186e-11
4.86714e-17
4.7174e-11
-7.15965e-11
4.55564e-17
4.04444e-11
-6.70274e-11
3.92205e-17
3.41076e-11
-6.23644e-11
3.28592e-17
2.81808e-11
-5.74808e-11
2.66862e-17
2.26934e-11
-5.21953e-11
2.12461e-17
1.76825e-11
-4.63702e-11
1.72279e-17
1.31943e-11
-3.98791e-11
1.31553e-17
9.28289e-12
-3.26591e-11
9.85541e-18
6.00371e-12
-2.48034e-11
6.74343e-18
3.40533e-12
-1.66552e-11
4.00132e-18
1.52352e-12
-8.86284e-12
1.4264e-18
3.79871e-13
-2.47938e-12
-1.27727e-18
1.04907e-12
-4.03478e-18
2.75049e-10
-3.0517e-10
1.92998e-16
2.70241e-10
-2.9202e-10
9.80518e-17
2.63597e-10
-2.7788e-10
1.89428e-16
2.55408e-10
-2.6312e-10
9.50327e-17
2.45968e-10
-2.48048e-10
1.5646e-16
2.35554e-10
-2.32996e-10
7.26108e-17
2.24424e-10
-2.18158e-10
1.17357e-16
2.12809e-10
-2.03754e-10
6.76343e-17
2.00913e-10
-1.89932e-10
9.99253e-17
1.88909e-10
-1.76795e-10
6.22687e-17
1.76941e-10
-1.64422e-10
8.27349e-17
1.65126e-10
-1.52855e-10
6.0702e-17
1.53552e-10
-1.42119e-10
7.30893e-17
1.42287e-10
-1.32204e-10
6.27333e-17
1.31382e-10
-1.23096e-10
7.14587e-17
1.20868e-10
-1.14758e-10
6.75941e-17
1.10768e-10
-1.07124e-10
7.26049e-17
1.01085e-10
-1.00199e-10
7.01989e-17
9.18246e-11
-9.38568e-11
7.14066e-17
8.29793e-11
-8.80856e-11
6.76636e-17
7.45441e-11
-8.27758e-11
6.52922e-17
6.65113e-11
-7.7855e-11
5.96818e-17
5.88678e-11
-7.32911e-11
5.48726e-17
5.16119e-11
-6.89296e-11
4.75385e-17
4.4738e-11
-6.47225e-11
4.46378e-17
3.82497e-11
-6.0539e-11
3.81322e-17
3.21559e-11
-5.62704e-11
3.18761e-17
2.64717e-11
-5.17966e-11
2.56885e-17
2.12248e-11
-4.69483e-11
2.03708e-17
1.64509e-11
-4.15963e-11
1.63917e-17
1.21946e-11
-3.56229e-11
1.24442e-17
8.50799e-12
-2.89726e-11
9.25792e-18
5.4432e-12
-2.17387e-11
6.2788e-18
3.04328e-12
-1.42554e-11
3.67969e-18
1.33436e-12
-7.15402e-12
1.23037e-18
3.21188e-13
-1.46632e-12
-1.30473e-18
1.37015e-12
-3.90501e-18
2.85151e-10
-3.00253e-10
9.3666e-17
2.78185e-10
-2.85054e-10
1.98491e-16
2.69506e-10
-2.692e-10
8.97386e-17
2.59444e-10
-2.53059e-10
1.8443e-16
2.48321e-10
-2.36924e-10
7.2848e-17
2.36428e-10
-2.21102e-10
1.41177e-16
2.24027e-10
-2.05756e-10
5.53583e-17
2.11345e-10
-1.91073e-10
1.14777e-16
1.98578e-10
-1.77164e-10
5.85908e-17
1.85883e-10
-1.641e-10
9.13951e-17
1.73387e-10
-1.51926e-10
5.7166e-17
1.61189e-10
-1.40657e-10
7.71403e-17
1.4936e-10
-1.30289e-10
5.83401e-17
1.37949e-10
-1.20794e-10
7.11354e-17
1.26989e-10
-1.12136e-10
6.33334e-17
1.16497e-10
-1.04266e-10
7.12748e-17
1.06481e-10
-9.71064e-11
6.81318e-17
9.69311e-11
-9.06498e-11
7.12996e-17
8.7844e-11
-8.47691e-11
6.87765e-17
7.92022e-11
-7.94437e-11
6.74966e-17
7.09929e-11
-7.45661e-11
6.35857e-17
6.32022e-11
-7.00636e-11
5.89578e-17
5.58117e-11
-6.59007e-11
5.35299e-17
4.88152e-11
-6.19327e-11
4.64614e-17
4.2204e-11
-5.81111e-11
4.3448e-17
3.59787e-11
-5.43137e-11
3.70139e-17
3.01462e-11
-5.04376e-11
3.07382e-17
2.47197e-11
-4.63702e-11
2.46628e-17
1.97257e-11
-4.19543e-11
1.94183e-17
1.51986e-11
-3.70692e-11
1.5519e-17
1.11818e-11
-3.16062e-11
1.16872e-17
7.72547e-12
-2.55163e-11
8.63742e-18
4.87869e-12
-1.8892e-11
5.79458e-18
2.67935e-12
-1.20562e-11
3.35375e-18
1.14435e-12
-5.61913e-12
1.03983e-18
2.62171e-13
-5.84254e-13
-1.32376e-18
1.63222e-12
-3.7463e-18
2.94085e-10
-2.92857e-10
2.12217e-16
2.84783e-10
-2.75752e-10
6.29457e-17
2.73959e-10
-2.58375e-10
2.10579e-16
2.61975e-10
-2.41075e-10
6.62054e-17
2.49168e-10
-2.24116e-10
1.70418e-16
2.35833e-10
-2.07766e-10
5.17411e-17
2.22229e-10
-1.92151e-10
1.2439e-16
2.08569e-10
-1.77414e-10
5.44037e-17
1.95032e-10
-1.63627e-10
1.02973e-16
1.81755e-10
-1.50823e-10
5.37366e-17
1.68843e-10
-1.39014e-10
8.30055e-17
1.56372e-10
-1.28185e-10
5.52857e-17
1.44392e-10
-1.18309e-10
7.21137e-17
1.32933e-10
-1.09335e-10
5.91654e-17
1.22009e-10
-1.01212e-10
6.98884e-17
1.11621e-10
-9.38777e-11
6.48363e-17
1.01763e-10
-8.72474e-11
7.06308e-17
9.24139e-11
-8.13008e-11
6.76604e-17
8.35586e-11
-7.59131e-11
6.91641e-17
7.51716e-11
-7.10567e-11
6.52004e-17
6.7233e-11
-6.66272e-11
6.30329e-17
5.97231e-11
-6.2553e-11
5.73057e-17
5.2619e-11
-5.87966e-11
5.25081e-17
4.59106e-11
-5.52238e-11
4.50794e-17
3.95863e-11
-5.17867e-11
4.22294e-17
3.36445e-11
-4.83718e-11
3.56587e-17
2.80903e-11
-4.48831e-11
2.95398e-17
2.29356e-11
-4.12155e-11
2.34924e-17
1.82057e-11
-3.72243e-11
1.84108e-17
1.3934e-11
-3.27976e-11
1.45789e-17
1.0163e-11
-2.78353e-11
1.08985e-17
6.94096e-12
-2.22944e-11
7.98614e-18
4.31446e-12
-1.62656e-11
5.28838e-18
2.31644e-12
-1.00583e-11
3.00388e-18
9.55113e-13
-4.25791e-12
8.29843e-19
2.03347e-13
1.67405e-13
-1.35529e-18
1.83548e-12
-3.6032e-18
3.01415e-10
-2.82784e-10
3.5842e-17
2.89655e-10
-2.63991e-10
2.34179e-16
2.7663e-10
-2.45349e-10
4.75543e-17
2.62724e-10
-2.27169e-10
2.09106e-16
2.48281e-10
-2.09672e-10
4.38456e-17
2.33589e-10
-1.93073e-10
1.55193e-16
2.1889e-10
-1.77452e-10
3.68245e-17
2.04377e-10
-1.62902e-10
1.21957e-16
1.90202e-10
-1.49452e-10
4.78911e-17
1.76476e-10
-1.37097e-10
9.38207e-17
1.63279e-10
-1.25816e-10
5.07546e-17
1.50661e-10
-1.15566e-10
7.7199e-17
1.38647e-10
-1.06295e-10
5.44762e-17
1.27247e-10
-9.79354e-11
7.015e-17
1.16457e-10
-9.04219e-11
6.06234e-17
1.0626e-10
-8.36809e-11
6.95908e-17
9.66372e-11
-7.76235e-11
6.56512e-17
8.75558e-11
-7.22195e-11
6.90548e-17
7.89911e-11
-6.73478e-11
6.61925e-17
7.091e-11
-6.29754e-11
6.49558e-17
6.3286e-11
-5.90028e-11
6.10183e-17
5.60945e-11
-5.53608e-11
5.63683e-17
4.93088e-11
-5.2011e-11
5.09009e-17
4.29156e-11
-4.88302e-11
4.3827e-17
3.69011e-11
-4.57721e-11
4.07472e-17
3.12618e-11
-4.27324e-11
3.42989e-17
2.60014e-11
-3.96225e-11
2.81959e-17
2.1131e-11
-3.63451e-11
2.22989e-17
1.6675e-11
-3.27683e-11
1.73239e-17
1.2666e-11
-2.87886e-11
1.36041e-17
9.14548e-12
-2.43149e-11
1.00653e-17
6.16054e-12
-1.93095e-11
7.31042e-18
3.75511e-12
-1.38603e-11
4.76487e-18
1.9577e-12
-8.26095e-12
2.64684e-18
7.68391e-13
-3.0687e-12
6.18176e-19
1.453e-13
7.90393e-13
-1.37842e-18
1.98069e-12
-3.43777e-18
3.06716e-10
-2.69851e-10
2.83437e-16
2.92414e-10
-2.49689e-10
6.26669e-18
2.77185e-10
-2.3012e-10
2.53514e-16
2.61417e-10
-2.11401e-10
2.56625e-17
2.45442e-10
-1.93696e-10
1.94229e-16
2.29527e-10
-1.77157e-10
2.67268e-17
2.13886e-10
-1.6181e-10
1.36647e-16
1.98682e-10
-1.47698e-10
4.06646e-17
1.84033e-10
-1.34803e-10
1.08857e-16
1.70018e-10
-1.23083e-10
4.60319e-17
1.56687e-10
-1.12484e-10
8.50011e-17
1.4406e-10
-1.02939e-10
5.0946e-17
1.3214e-10
-9.43747e-11
7.23317e-17
1.20914e-10
-8.67094e-11
5.65224e-17
1.10359e-10
-7.98663e-11
6.9038e-17
1.00442e-10
-7.37645e-11
6.25605e-17
9.11324e-11
-6.83128e-11
6.88531e-17
8.23862e-11
-6.34734e-11
6.51217e-17
7.41702e-11
-5.91311e-11
6.67055e-17
6.64444e-11
-5.52495e-11
6.24079e-17
5.91773e-11
-5.17354e-11
6.03327e-17
5.23399e-11
-4.85227e-11
5.44702e-17
4.59027e-11
-4.55738e-11
4.96968e-17
3.98499e-11
-4.2777e-11
4.22465e-17
3.41661e-11
-4.00882e-11
3.92868e-17
2.88465e-11
-3.74127e-11
3.27206e-17
2.38938e-11
-3.46696e-11
2.68123e-17
1.93187e-11
-3.177e-11
2.09757e-17
1.51447e-11
-2.85942e-11
1.61886e-17
1.1404e-11
-2.5048e-11
1.2565e-17
8.13741e-12
-2.10483e-11
9.19939e-18
5.3907e-12
-1.65629e-11
6.59947e-18
3.20559e-12
-1.16753e-11
4.21547e-18
1.60653e-12
-6.66198e-12
2.26622e-18
5.86085e-13
-2.04836e-12
3.87044e-19
8.86732e-14
1.28771e-12
-1.41751e-18
2.06927e-12
-3.2893e-18
3.09433e-10
-2.54003e-10
-4.18971e-17
2.92612e-10
-2.32867e-10
3.14617e-16
2.75269e-10
-2.12776e-10
-7.52908e-18
2.57777e-10
-1.9391e-10
2.51459e-16
2.40443e-10
-1.76361e-10
9.91354e-18
2.23498e-10
-1.60211e-10
1.77239e-16
2.07119e-10
-1.4543e-10
1.82397e-17
1.91424e-10
-1.32004e-10
1.33172e-16
1.76495e-10
-1.19874e-10
3.85693e-17
1.62374e-10
-1.08961e-10
9.86551e-17
1.49076e-10
-9.91853e-11
4.606e-17
1.36593e-10
-9.04552e-11
7.89134e-17
1.24902e-10
-8.26834e-11
5.21856e-17
1.13968e-10
-7.57762e-11
7.03579e-17
1.03752e-10
-6.96496e-11
5.89941e-17
9.42061e-11
-6.42187e-11
6.85402e-17
8.52866e-11
-5.93923e-11
6.36194e-17
7.69415e-11
-5.51284e-11
6.69186e-17
6.913e-11
-5.13189e-11
6.35615e-17
6.18068e-11
-4.79263e-11
6.21753e-17
5.49362e-11
-4.48643e-11
5.81198e-17
4.8486e-11
-4.20719e-11
5.33914e-17
4.24249e-11