/*--------------------------------*- C++ -*----------------------------------*\
| =========                 |                                                 |
| \\      /  F ield         | OpenFOAM: The Open Source CFD Toolbox           |
|  \\    /   O peration     | Version:  v2012                                 |
|   \\  /    A nd           | Website:  www.openfoam.com                      |
|    \\/     M anipulation  |                                                 |
\*---------------------------------------------------------------------------*/
FoamFile
{
    version     2.0;
    format      ascii;
    class       volVectorField;
    location    "0.1";
    object      U;
}
// * * * * * * * * * * * * * * * * * * * * * * * * * * * * * * * * * * * * * //

dimensions      [0 1 -1 0 0 0 0];


internalField   nonuniform List<vector> 
2664
(
(0.00535885 -0.00944315 -4.67705e-05)
(0.00537309 -0.00898887 -4.68951e-05)
(0.00535237 -0.00851669 -4.67146e-05)
(0.00529766 -0.00803272 -4.62375e-05)
(0.00521059 -0.00754291 -4.54781e-05)
(0.00509336 -0.00705283 -4.44553e-05)
(0.00494859 -0.00656766 -4.31923e-05)
(0.00477931 -0.00609205 -4.17151e-05)
(0.00458878 -0.00563003 -4.00524e-05)
(0.00438044 -0.00518501 -3.82344e-05)
(0.0041578 -0.00475976 -3.62914e-05)
(0.00392431 -0.00435637 -3.42537e-05)
(0.00368332 -0.0039763 -3.21506e-05)
(0.00343799 -0.00362043 -3.00094e-05)
(0.00319121 -0.00328907 -2.78557e-05)
(0.00294562 -0.0029821 -2.57123e-05)
(0.00270355 -0.002699 -2.35995e-05)
(0.00246697 -0.00243885 -2.15347e-05)
(0.00223755 -0.00220053 -1.95322e-05)
(0.00201666 -0.00198269 -1.76042e-05)
(0.00180536 -0.00178385 -1.57599e-05)
(0.00160451 -0.00160246 -1.40069e-05)
(0.00141467 -0.00143689 -1.23498e-05)
(0.00123624 -0.0012855 -1.07924e-05)
(0.00106948 -0.00114668 -9.33671e-06)
(0.00091448 -0.00101882 -7.98376e-06)
(0.000771296 -0.000900358 -6.7339e-06)
(0.000639883 -0.000789769 -5.58677e-06)
(0.000520203 -0.00068564 -4.54206e-06)
(0.000412244 -0.000586733 -3.59962e-06)
(0.000316027 -0.000492084 -2.75967e-06)
(0.000231633 -0.00040119 -2.02291e-06)
(0.0001593 -0.000314191 -1.39141e-06)
(9.92688e-05 -0.000231933 -8.67267e-07)
(5.22035e-05 -0.000155761 -4.56273e-07)
(1.85589e-05 -8.69145e-05 -1.62532e-07)
(7.47778e-07 -2.56453e-05 -9.43092e-09)
(0.00570773 -0.00975933 -4.98155e-05)
(0.00570528 -0.00925668 -4.97946e-05)
(0.0056654 -0.00873857 -4.94469e-05)
(0.00558955 -0.00821164 -4.87854e-05)
(0.00547989 -0.00768224 -4.78287e-05)
(0.00533912 -0.00715625 -4.66005e-05)
(0.00517041 -0.00663901 -4.51285e-05)
(0.00497724 -0.00613524 -4.3443e-05)
(0.00476334 -0.00564894 -4.15763e-05)
(0.0045325 -0.0051834 -3.95618e-05)
(0.00428856 -0.00474118 -3.7433e-05)
(0.00403521 -0.00432411 -3.5222e-05)
(0.00377598 -0.00393336 -3.29596e-05)
(0.00351413 -0.00356947 -3.06743e-05)
(0.00325261 -0.00323245 -2.83918e-05)
(0.00299405 -0.00292182 -2.61351e-05)
(0.00274072 -0.00263676 -2.39241e-05)
(0.00249453 -0.00237605 -2.17753e-05)
(0.00225703 -0.0021383 -1.97023e-05)
(0.00202945 -0.00192193 -1.7716e-05)
(0.00181274 -0.00172524 -1.58245e-05)
(0.00160762 -0.00154652 -1.4034e-05)
(0.0014145 -0.00138398 -1.23483e-05)
(0.00123364 -0.00123587 -1.07697e-05)
(0.00106518 -0.00110047 -9.29923e-06)
(0.000909113 -0.00097612 -7.93692e-06)
(0.000765376 -0.000861199 -6.68224e-06)
(0.000633836 -0.000754152 -5.53399e-06)
(0.000514373 -0.000653551 -4.49117e-06)
(0.000406902 -0.000558154 -3.55299e-06)
(0.000311376 -0.000467004 -2.71906e-06)
(0.000227817 -0.000379614 -1.98958e-06)
(0.000156395 -0.000296143 -1.36604e-06)
(9.72884e-05 -0.000217471 -8.49967e-07)
(5.10766e-05 -0.000144993 -4.46425e-07)
(1.81295e-05 -8.00631e-05 -1.58772e-07)
(7.26027e-07 -2.31436e-05 -9.17239e-09)
(0.00607912 -0.0100801 -5.30572e-05)
(0.00605674 -0.00952525 -5.28623e-05)
(0.00599445 -0.00895798 -5.23191e-05)
(0.00589429 -0.00838548 -5.14454e-05)
(0.00575902 -0.0078145 -5.02653e-05)
(0.00559194 -0.00725116 -4.88074e-05)
(0.00539676 -0.00670095 -4.71044e-05)
(0.0051775 -0.00616857 -4.51911e-05)
(0.00493832 -0.00565792 -4.31039e-05)
(0.00468343 -0.0051721 -4.08794e-05)
(0.00441694 -0.00471337 -3.85538e-05)
(0.00414279 -0.00428327 -3.61611e-05)
(0.00386464 -0.0038826 -3.37336e-05)
(0.00358583 -0.00351153 -3.13003e-05)
(0.00330934 -0.00316968 -2.88871e-05)
(0.00303774 -0.00285623 -2.65166e-05)
(0.00277324 -0.00256999 -2.42081e-05)
(0.00251761 -0.00230946 -2.19769e-05)
(0.00227228 -0.00207296 -1.98356e-05)
(0.00203834 -0.00185865 -1.77937e-05)
(0.00181656 -0.00166464 -1.58579e-05)
(0.00160752 -0.00148904 -1.40332e-05)
(0.00141146 -0.00132991 -1.23219e-05)
(0.00122853 -0.00118539 -1.07251e-05)
(0.00105871 -0.00105369 -9.24278e-06)
(0.000901884 -0.000933067 -7.87384e-06)
(0.000757883 -0.000821863 -6.61684e-06)
(0.000626479 -0.000718498 -5.46977e-06)
(0.000507471 -0.000621533 -4.43091e-06)
(0.000400699 -0.000529727 -3.49884e-06)
(0.000306054 -0.000442135 -2.6726e-06)
(0.000223496 -0.000358286 -1.95186e-06)
(0.000153132 -0.000278358 -1.33754e-06)
(9.50743e-05 -0.000203261 -8.30626e-07)
(4.98196e-05 -0.000134443 -4.35439e-07)
(1.76496e-05 -7.33685e-05 -1.54571e-07)
(7.01029e-07 -2.07043e-05 -8.87711e-09)
(0.00647395 -0.0104038 -5.65034e-05)
(0.00642794 -0.00979264 -5.61024e-05)
(0.00633958 -0.0091729 -5.53317e-05)
(0.0062116 -0.00855225 -5.42152e-05)
(0.00604742 -0.00793778 -5.27828e-05)
(0.00585101 -0.00733582 -5.1069e-05)
(0.00562669 -0.00675191 -4.91117e-05)
(0.00537903 -0.00619067 -4.69505e-05)
(0.00511266 -0.00565581 -4.46258e-05)
(0.00483215 -0.00515013 -4.21778e-05)
(0.0045419 -0.00467558 -3.96447e-05)
(0.00424606 -0.00423328 -3.70628e-05)
(0.0039484 -0.0038236 -3.4465e-05)
(0.0036523 -0.0034463 -3.18807e-05)
(0.0033607 -0.00310058 -2.93356e-05)
(0.0030761 -0.00278522 -2.68516e-05)
(0.00280059 -0.00249868 -2.44469e-05)
(0.0025358 -0.00223911 -2.21358e-05)
(0.00228298 -0.00200455 -1.99291e-05)
(0.00204305 -0.00179293 -1.78348e-05)
(0.0018166 -0.00160214 -1.58583e-05)
(0.00160404 -0.00143011 -1.40029e-05)
(0.00140545 -0.00127478 -1.22694e-05)
(0.00122081 -0.00113418 -1.06578e-05)
(0.00105 -0.00100644 -9.16674e-06)
(0.000892744 -0.000889748 -7.79407e-06)
(0.000748782 -0.000782429 -6.5374e-06)
(0.000617788 -0.000682878 -5.39392e-06)
(0.000499481 -0.00058965 -4.36116e-06)
(0.000393628 -0.00050151 -3.43711e-06)
(0.000300057 -0.000417527 -2.62024e-06)
(0.000218668 -0.000337247 -1.9097e-06)
(0.000149509 -0.000260871 -1.3059e-06)
(9.26255e-05 -0.000189337 -8.09235e-07)
(4.84317e-05 -0.000124138 -4.2331e-07)
(1.7119e-05 -6.68478e-05 -1.49924e-07)
(6.72651e-07 -1.83347e-05 -8.54396e-09)
(0.00689306 -0.0107282 -6.01617e-05)
(0.00681918 -0.0100565 -5.95174e-05)
(0.00670064 -0.00938101 -5.84833e-05)
(0.00654093 -0.00870968 -5.70899e-05)
(0.00634426 -0.00804996 -5.53739e-05)
(0.0061153 -0.0074083 -5.33761e-05)
(0.00585904 -0.00679018 -5.114e-05)
(0.0055806 -0.00620006 -4.87101e-05)
(0.00528508 -0.00564138 -4.61311e-05)
(0.00497743 -0.00511654 -4.34461e-05)
(0.00466229 -0.00462705 -4.06958e-05)
(0.00434397 -0.00417356 -3.79177e-05)
(0.00402632 -0.00375597 -3.51453e-05)
(0.00371269 -0.00337354 -3.2408e-05)
(0.00340596 -0.00302502 -2.97309e-05)
(0.00310851 -0.00270875 -2.71347e-05)
(0.00282227 -0.00242282 -2.46363e-05)
(0.00254867 -0.00216506 -2.22482e-05)
(0.00228878 -0.00193318 -1.99798e-05)
(0.0020433 -0.00172488 -1.78371e-05)
(0.00181264 -0.00153785 -1.58238e-05)
(0.00159701 -0.00136986 -1.39416e-05)
(0.00139633 -0.00121871 -1.21899e-05)
(0.00121041 -0.00108234 -1.05671e-05)
(0.00103898 -0.000958805 -9.07059e-06)
(0.000881651 -0.000846258 -7.69726e-06)
(0.000738047 -0.000742983 -6.4437e-06)
(0.000607748 -0.000647368 -5.30627e-06)
(0.000490394 -0.000557968 -4.28184e-06)
(0.000385683 -0.000473561 -3.36775e-06)
(0.000293382 -0.000393229 -2.56196e-06)
(0.000213333 -0.000316543 -1.86311e-06)
(0.000145525 -0.00024372 -1.27111e-06)
(8.99423e-05 -0.000175727 -7.85796e-07)
(4.6913e-05 -0.000114102 -4.10037e-07)
(1.65373e-05 -6.05183e-05 -1.4483e-07)
(6.40798e-07 -1.60419e-05 -8.17199e-09)
(0.00733705 -0.0110506 -6.40372e-05)
(0.0072305 -0.0103143 -6.31078e-05)
(0.00707717 -0.00957961 -6.17701e-05)
(0.00688146 -0.00885522 -6.00625e-05)
(0.00664841 -0.00814868 -5.8029e-05)
(0.00638349 -0.00746648 -5.57173e-05)
(0.00609236 -0.00681394 -5.31768e-05)
(0.00578073 -0.00619524 -5.04573e-05)
(0.00545415 -0.00561339 -4.76071e-05)
(0.00511788 -0.00507034 -4.46724e-05)
(0.00477682 -0.00456705 -4.16958e-05)
(0.00443535 -0.0041036 -3.87156e-05)
(0.00409735 -0.00367935 -3.57655e-05)
(0.00376611 -0.00329303 -3.28745e-05)
(0.00344437 -0.00294288 -3.00663e-05)
(0.00313434 -0.0026268 -2.73603e-05)
(0.00283775 -0.00234248 -2.47715e-05)
(0.0025558 -0.00208738 -2.23106e-05)
(0.00228934 -0.00185896 -1.99847e-05)
(0.00203884 -0.00165463 -1.77982e-05)
(0.00180449 -0.00147192 -1.57527e-05)
(0.0015863 -0.00130842 -1.38482e-05)
(0.00138401 -0.00116183 -1.20823e-05)
(0.00119725 -0.00103 -1.04522e-05)
(0.0010256 -0.000910912 -8.95386e-06)
(0.000868572 -0.000802697 -7.58309e-06)
(0.000725656 -0.000703613 -6.33554e-06)
(0.000596347 -0.000612045 -5.20675e-06)
(0.000480206 -0.000526556 -4.1929e-06)
(0.000376865 -0.000445937 -3.29076e-06)
(0.000286031 -0.000369294 -2.49778e-06)
(0.000207493 -0.000296215 -1.81212e-06)
(0.000141184 -0.000226942 -1.2332e-06)
(8.70266e-05 -0.000162464 -7.60326e-07)
(4.52643e-05 -0.000104359 -3.95629e-07)
(1.59047e-05 -5.43969e-05 -1.39291e-07)
(6.05389e-07 -1.38331e-05 -7.76053e-09)
(0.0078063 -0.011368 -6.81331e-05)
(0.00766164 -0.0105626 -6.68711e-05)
(0.0074684 -0.00976563 -6.51852e-05)
(0.00723201 -0.00898598 -6.31225e-05)
(0.00695842 -0.00823135 -6.07352e-05)
(0.00665394 -0.0075081 -5.80783e-05)
(0.00632495 -0.00682128 -5.52073e-05)
(0.00597771 -0.00617462 -5.21769e-05)
(0.00561819 -0.00557061 -4.90393e-05)
(0.00525197 -0.00501058 -4.58431e-05)
(0.00488407 -0.00449487 -4.26322e-05)
(0.00451895 -0.00402292 -3.94455e-05)
(0.00416041 -0.00359345 -3.63162e-05)
(0.00381162 -0.00320462 -3.32719e-05)
(0.00347514 -0.00285413 -3.0335e-05)
(0.00315294 -0.00253942 -2.75228e-05)
(0.0028465 -0.00225774 -2.48481e-05)
(0.00255677 -0.00200623 -2.23192e-05)
(0.00228433 -0.00178203 -1.99412e-05)
(0.00202941 -0.00158235 -1.7716e-05)
(0.00179196 -0.0014045 -1.56434e-05)
(0.00157177 -0.00124595 -1.37214e-05)
(0.00136837 -0.00110428 -1.19459e-05)
(0.00118125 -0.000977277 -1.03126e-05)
(0.00100983 -0.000862875 -8.8162e-06)
(0.000853482 -0.000759169 -7.45138e-06)
(0.000711599 -0.000664411 -6.21283e-06)
(0.000583583 -0.000576991 -5.09533e-06)
(0.000468921 -0.000495483 -4.09438e-06)
(0.000367179 -0.0004187 -3.2062e-06)
(0.000278011 -0.000345771 -2.42775e-06)
(0.000201156 -0.000276308 -1.75678e-06)
(0.000136492 -0.000210574 -1.19221e-06)
(8.38818e-05 -0.000149577 -7.32854e-07)
(4.34874e-05 -9.49337e-05 -3.801e-07)
(1.52218e-05 -4.85005e-05 -1.3331e-07)
(5.6637e-07 -1.17152e-05 -7.30917e-09)
(0.00830074 -0.0116765 -7.2449e-05)
(0.00811187 -0.0107978 -7.08012e-05)
(0.0078731 -0.00993555 -6.87179e-05)
(0.00759095 -0.00909877 -6.62559e-05)
(0.00727242 -0.00829515 -6.34764e-05)
(0.00692466 -0.00753075 -6.04416e-05)
(0.00655477 -0.00681019 -5.72137e-05)
(0.00616954 -0.0061366 -5.38517e-05)
(0.00577535 -0.00551178 -5.04114e-05)
(0.00537797 -0.00493635 -4.69432e-05)
(0.00498252 -0.00440989 -4.34918e-05)
(0.00459341 -0.00393111 -4.00957e-05)
(0.00421433 -0.00349805 -3.6787e-05)
(0.00384824 -0.00310823 -3.35918e-05)
(0.00349744 -0.0027588 -3.05299e-05)
(0.00316364 -0.00244669 -2.76163e-05)
(0.002848 -0.00216875 -2.48613e-05)
(0.00255118 -0.00192177 -2.22705e-05)
(0.00227346 -0.00170259 -1.98463e-05)
(0.00201479 -0.00150822 -1.75885e-05)
(0.00177488 -0.00133577 -1.54943e-05)
(0.00155329 -0.00118262 -1.35601e-05)
(0.00134935 -0.00104623 -1.17799e-05)
(0.00116238 -0.000924326 -1.01478e-05)
(0.000991632 -0.00081482 -8.65735e-06)
(0.000836369 -0.000715785 -7.302e-06)
(0.000695874 -0.000625474 -6.07556e-06)
(0.000569462 -0.000542287 -4.97205e-06)
(0.000456546 -0.00046482 -3.98635e-06)
(0.000356637 -0.00039191 -3.11415e-06)
(0.000269334 -0.000322712 -2.35199e-06)
(0.00019433 -0.000256866 -1.69718e-06)
(0.000131454 -0.000194651 -1.14822e-06)
(8.05132e-05 -0.000137097 -7.03428e-07)
(4.15852e-05 -8.58496e-05 -3.63476e-07)
(1.44893e-05 -4.28456e-05 -1.26897e-07)
(5.23723e-07 -9.69554e-06 -6.81778e-09)
(0.00881988 -0.0119717 -7.69806e-05)
(0.00857999 -0.0110157 -7.48876e-05)
(0.0082895 -0.0100854 -7.23528e-05)
(0.00795619 -0.00919007 -6.94443e-05)
(0.00758808 -0.00833702 -6.6232e-05)
(0.00719324 -0.00753188 -6.27863e-05)
(0.00677943 -0.0067786 -5.91751e-05)
(0.00635397 -0.00607956 -5.5462e-05)
(0.00592351 -0.00543571 -5.1705e-05)
(0.00549397 -0.00484679 -4.79561e-05)
(0.00507047 -0.00431153 -4.42598e-05)
(0.00465729 -0.00382784 -4.06536e-05)
(0.00425789 -0.003393 -3.71675e-05)
(0.00387496 -0.00300385 -3.38252e-05)
(0.00351048 -0.00265697 -3.06439e-05)
(0.00316579 -0.00234878 -2.76353e-05)
(0.00284174 -0.00207571 -2.48067e-05)
(0.00253862 -0.00183421 -2.21609e-05)
(0.0022564 -0.00162086 -1.96975e-05)
(0.00199475 -0.00143245 -1.74136e-05)
(0.00175309 -0.00126595 -1.53042e-05)
(0.00153076 -0.00111861 -1.33634e-05)
(0.00132688 -0.000987833 -1.15838e-05)
(0.00114058 -0.000871294 -9.95757e-06)
(0.000970991 -0.00076688 -8.47718e-06)
(0.000817232 -0.000672661 -7.13495e-06)
(0.000678489 -0.000586901 -5.92381e-06)
(0.000553997 -0.000508019 -4.83705e-06)
(0.0004431 -0.000434638 -3.86896e-06)
(0.000345255 -0.000365626 -3.01478e-06)
(0.000260015 -0.000300169 -2.27062e-06)
(0.00018703 -0.00023793 -1.63344e-06)
(0.000126084 -0.00017921 -1.10131e-06)
(7.69283e-05 -0.000125053 -6.72111e-07)
(3.95619e-05 -7.71295e-05 -3.45794e-07)
(1.37088e-05 -3.74482e-05 -1.20062e-07)
(4.77439e-07 -7.78083e-06 -6.2865e-09)
(0.00936255 -0.0122485 -8.17176e-05)
(0.00906411 -0.0112113 -7.91136e-05)
(0.00871524 -0.0102109 -7.60693e-05)
(0.00832499 -0.00925604 -7.26639e-05)
(0.00790255 -0.00835373 -6.89773e-05)
(0.00745681 -0.00750884 -6.50874e-05)
(0.0069962 -0.00672444 -6.10676e-05)
(0.00652842 -0.00600193 -5.6985e-05)
(0.00606035 -0.00534125 -5.28998e-05)
(0.00559793 -0.00474114 -4.88638e-05)
(0.00514615 -0.00419935 -4.49207e-05)
(0.00470907 -0.0037129 -4.11058e-05)
(0.00428983 -0.00327826 -3.74466e-05)
(0.00389075 -0.00289158 -3.39633e-05)
(0.00351341 -0.00254882 -3.06697e-05)
(0.00315875 -0.00224591 -2.7574e-05)
(0.00282721 -0.00197888 -2.46801e-05)
(0.00251872 -0.00174382 -2.19874e-05)
(0.0022329 -0.0015371 -1.94925e-05)
(0.0019691 -0.0013553 -1.71898e-05)
(0.00172647 -0.00119526 -1.50719e-05)
(0.0015041 -0.00105413 -1.31308e-05)
(0.00130091 -0.000929282 -1.13571e-05)
(0.00111585 -0.000818341 -9.74171e-06)
(0.000947909 -0.000719193 -8.27569e-06)
(0.000796084 -0.000629917 -6.95034e-06)
(0.000659467 -0.000548793 -5.75775e-06)
(0.000537213 -0.000474273 -4.69052e-06)
(0.000428609 -0.000405011 -3.74244e-06)
(0.000333059 -0.000339911 -2.9083e-06)
(0.000250076 -0.000278191 -2.18385e-06)
(0.000179275 -0.000219544 -1.56571e-06)
(0.000120394 -0.000164285 -1.05162e-06)
(7.31366e-05 -0.000113473 -6.38988e-07)
(3.74226e-05 -6.87957e-05 -3.27098e-07)
(1.28819e-05 -3.23239e-05 -1.12822e-07)
(4.27545e-07 -5.97781e-06 -5.71581e-09)
(0.00992684 -0.0125007 -8.66435e-05)
(0.00956159 -0.0113792 -8.34564e-05)
(0.00914715 -0.010307 -7.98398e-05)
(0.008694 -0.00929254 -7.58853e-05)
(0.00821237 -0.00834187 -7.16821e-05)
(0.00771202 -0.00745892 -6.73155e-05)
(0.00720189 -0.00664562 -6.28635e-05)
(0.00669 -0.00590221 -5.83959e-05)
(0.00618329 -0.00522739 -5.39733e-05)
(0.0056876 -0.00461876 -4.96469e-05)
(0.00520766 -0.00407301 -4.5458e-05)
(0.00474718 -0.00358619 -4.14387e-05)
(0.00430886 -0.00315391 -3.7613e-05)
(0.00389458 -0.0027716 -3.39969e-05)
(0.00350543 -0.00243462 -3.06001e-05)
(0.00314189 -0.00213839 -2.74269e-05)
(0.00280395 -0.00187856 -2.44772e-05)
(0.00249115 -0.00165092 -2.17468e-05)
(0.00220272 -0.0014516 -1.92291e-05)
(0.00193769 -0.00127703 -1.69156e-05)
(0.00169492 -0.00112394 -1.47965e-05)
(0.00147326 -0.000989415 -1.28616e-05)
(0.00127142 -0.00087077 -1.10997e-05)
(0.00108819 -0.000765638 -9.50026e-06)
(0.000922404 -0.000671906 -8.05305e-06)
(0.000772953 -0.000587675 -6.74842e-06)
(0.000638838 -0.000511256 -5.57767e-06)
(0.000519146 -0.000441135 -4.53279e-06)
(0.000413105 -0.000376011 -3.60709e-06)
(0.00032008 -0.000314824 -2.79498e-06)
(0.000239547 -0.000256829 -2.09191e-06)
(0.000171087 -0.000201746 -1.49421e-06)
(0.000114402 -0.00014991 -9.99289e-07)
(6.91501e-05 -0.000102384 -6.04164e-07)
(3.51742e-05 -6.08691e-05 -3.07449e-07)
(1.20114e-05 -2.74872e-05 -1.05198e-07)
(3.74102e-07 -4.29288e-06 -5.10664e-09)
(0.0105097 -0.0127216 -9.17315e-05)
(0.0100687 -0.0115133 -8.78835e-05)
(0.00958123 -0.0103686 -8.36292e-05)
(0.00905901 -0.00929519 -7.90719e-05)
(0.00851345 -0.00829793 -7.43107e-05)
(0.00795496 -0.00737942 -6.94365e-05)
(0.00739293 -0.00654019 -6.45316e-05)
(0.00683551 -0.00577901 -5.96665e-05)
(0.00628955 -0.00509325 -5.49012e-05)
(0.0057606 -0.00447919 -5.02845e-05)
(0.00525301 -0.00393235 -4.58541e-05)
(0.00476997 -0.00344776 -4.1638e-05)
(0.00431368 -0.00302015 -3.76552e-05)
(0.00388541 -0.00264421 -3.39171e-05)
(0.00348574 -0.00231471 -3.04285e-05)
(0.00311461 -0.0020266 -2.71889e-05)
(0.00277153 -0.00177513 -2.41943e-05)
(0.00245559 -0.00155586 -2.14365e-05)
(0.00216565 -0.00136471 -1.89055e-05)
(0.00190038 -0.00119796 -1.659e-05)
(0.00165837 -0.00105228 -1.44775e-05)
(0.00143821 -0.000924688 -1.25557e-05)
(0.00123842 -0.000812503 -1.08117e-05)
(0.00105762 -0.00071336 -9.23341e-06)
(0.000894513 -0.000625168 -7.80958e-06)
(0.000747884 -0.000546061 -6.52958e-06)
(0.000616652 -0.000474393 -5.38399e-06)
(0.000499842 -0.000408695 -4.36427e-06)
(0.000396635 -0.00034771 -3.4633e-06)
(0.000306359 -0.000290424 -2.67518e-06)
(0.00022846 -0.00023613 -1.9951e-06)
(0.000162495 -0.000184578 -1.41918e-06)
(0.00010813 -0.000136115 -9.4451e-07)
(6.49835e-05 -9.18108e-05 -5.67766e-07)
(3.28251e-05 -5.33691e-05 -2.86919e-07)
(1.11001e-05 -2.29518e-05 -9.72191e-08)
(3.17223e-07 -2.73205e-06 -4.46043e-09)
(0.0111071 -0.0129032 -9.69462e-05)
(0.0105808 -0.0116067 -9.23541e-05)
(0.0100124 -0.01039 -8.73935e-05)
(0.00941503 -0.00925944 -8.21801e-05)
(0.00880094 -0.00821837 -7.68207e-05)
(0.00818118 -0.00726771 -7.14117e-05)
(0.00756531 -0.00640627 -6.60367e-05)
(0.00696145 -0.00563116 -6.07662e-05)
(0.00637611 -0.00493816 -5.56572e-05)
(0.00581442 -0.00432215 -5.07546e-05)
(0.00528013 -0.00377739 -4.60911e-05)
(0.00477581 -0.00329784 -4.16892e-05)
(0.00430297 -0.00287734 -3.7562e-05)
(0.00386226 -0.00250985 -3.37151e-05)
(0.0034536 -0.00218956 -3.01481e-05)
(0.00307638 -0.00191099 -2.68553e-05)
(0.00272957 -0.00166905 -2.38281e-05)
(0.00241181 -0.00145907 -2.10543e-05)
(0.00212153 -0.00127679 -1.85205e-05)
(0.0018571 -0.00111842 -1.62122e-05)
(0.00161679 -0.000980552 -1.41145e-05)
(0.00139896 -0.000860205 -1.22131e-05)
(0.00120194 -0.000754697 -1.04932e-05)
(0.00102419 -0.00066169 -8.94162e-06)
(0.000864295 -0.000579133 -7.5458e-06)
(0.000720939 -0.000505206 -6.29436e-06)
(0.000592971 -0.000438312 -5.17725e-06)
(0.000479361 -0.000377039 -4.18547e-06)
(0.000379253 -0.000320181 -3.31154e-06)
(0.000291944 -0.00026677 -2.54932e-06)
(0.000216858 -0.000216143 -1.8938e-06)
(0.000153531 -0.000168076 -1.34091e-06)
(0.000101603 -0.000122931 -8.87507e-07)
(6.06544e-05 -8.17769e-05 -5.29948e-07)
(3.03852e-05 -4.63135e-05 -2.65596e-07)
(1.0152e-05 -1.87301e-05 -8.89171e-08)
(2.57076e-07 -1.30088e-06 -3.77926e-09)
(0.011713 -0.0130371 -0.000102236)
(0.0110916 -0.0116522 -9.68134e-05)
(0.0104345 -0.0103653 -9.10784e-05)
(0.009756 -0.00918061 -8.5157e-05)
(0.00906928 -0.00809971 -7.91636e-05)
(0.00838561 -0.00712134 -7.31968e-05)
(0.0077146 -0.00624228 -6.73404e-05)
(0.00706399 -0.00545772 -6.16617e-05)
(0.0064398 -0.00476173 -5.62135e-05)
(0.00584644 -0.00414762 -5.10345e-05)
(0.00528693 -0.00360837 -4.61508e-05)
(0.00476303 -0.00313684 -4.15779e-05)
(0.00427548 -0.00272599 -3.73223e-05)
(0.00382417 -0.00236908 -3.33828e-05)
(0.00340833 -0.00205975 -2.9753e-05)
(0.00302671 -0.00179211 -2.64219e-05)
(0.00267775 -0.00156082 -2.33758e-05)
(0.00235959 -0.00136099 -2.05986e-05)
(0.00207027 -0.00118826 -1.80731e-05)
(0.0018078 -0.00103876 -1.5782e-05)
(0.00157019 -0.00090908 -1.37078e-05)
(0.00135556 -0.000796234 -1.18342e-05)
(0.00116205 -0.000697577 -1.0145e-05)
(0.000987986 -0.000610818 -8.62555e-06)
(0.000831834 -0.000533957 -7.26242e-06)
(0.000692202 -0.000465237 -6.04349e-06)
(0.000567874 -0.00040312 -4.95815e-06)
(0.000457778 -0.000346254 -3.99703e-06)
(0.000361025 -0.000293492 -3.1524e-06)
(0.000276893 -0.000243918 -2.41791e-06)
(0.00020479 -0.00019691 -1.78842e-06)
(0.000144237 -0.000152275 -1.25975e-06)
(9.48512e-05 -0.000110386 -8.28542e-07)
(5.61832e-05 -7.23035e-05 -4.90889e-07)
(2.78664e-05 -3.97182e-05 -2.43584e-07)
(9.17166e-06 -1.4833e-05 -8.03327e-08)
(1.93894e-07 -4.35864e-09 -3.0659e-09)
(0.0123204 -0.0131134 -0.000107539)
(0.0115936 -0.0116419 -0.000101196)
(0.01084 -0.0102881 -9.46184e-05)
(0.0100749 -0.0090541 -8.79417e-05)
(0.00931204 -0.00793864 -8.12833e-05)
(0.00856265 -0.00693812 -7.47428e-05)
(0.00783595 -0.00604691 -6.84002e-05)
(0.00713909 -0.0052581 -6.23178e-05)
(0.00647726 -0.00456384 -5.6541e-05)
(0.00585399 -0.00395586 -5.11008e-05)
(0.00527131 -0.00342579 -4.60148e-05)
(0.00473005 -0.0029654 -4.12903e-05)
(0.00423002 -0.0025668 -3.69256e-05)
(0.00377028 -0.00222259 -3.29127e-05)
(0.00334932 -0.00192594 -2.92381e-05)
(0.00296522 -0.00167061 -2.58852e-05)
(0.00261584 -0.00145102 -2.28355e-05)
(0.00229883 -0.00126215 -2.00683e-05)
(0.00201184 -0.00109957 -1.75631e-05)
(0.00175253 -0.00095938 -1.52995e-05)
(0.00151865 -0.000838189 -1.32579e-05)
(0.00130809 -0.000733051 -1.14199e-05)
(0.00111885 -0.000641375 -9.7679e-06)
(0.000949107 -0.000560935 -8.28615e-06)
(0.000797236 -0.000489801 -6.96039e-06)
(0.000661775 -0.000426285 -5.77786e-06)
(0.000541458 -0.000368921 -4.72753e-06)
(0.000435179 -0.000316425 -3.79974e-06)
(0.00034203 -0.000267712 -2.98656e-06)
(0.000261274 -0.00022192 -2.28154e-06)
(0.000192313 -0.000178474 -1.67947e-06)
(0.000134657 -0.000137208 -1.17609e-06)
(8.79095e-05 -9.85024e-05 -7.67914e-07)
(5.15937e-05 -6.34089e-05 -4.50797e-07)
(2.52825e-05 -3.35968e-05 -2.21002e-07)
(8.16447e-06 -1.12698e-05 -7.15134e-08)
(1.27985e-07 1.15323e-06 -2.32395e-09)
(0.0129192 -0.0131223 -0.000112766)
(0.0120771 -0.0115678 -0.000105417)
(0.0112199 -0.0101526 -9.79353e-05)
(0.0103636 -0.00887549 -9.04623e-05)
(0.00952206 -0.00773226 -8.31173e-05)
(0.00870607 -0.00671628 -7.59953e-05)
(0.00792417 -0.00581932 -6.91708e-05)
(0.00718248 -0.0050321 -6.2697e-05)
(0.00648512 -0.0043448 -5.661e-05)
(0.00583441 -0.00374748 -5.09302e-05)
(0.00523125 -0.00323044 -4.56654e-05)
(0.00467534 -0.00278439 -4.0813e-05)
(0.0041655 -0.00240066 -3.63626e-05)
(0.00369985 -0.00207126 -3.2298e-05)
(0.0032761 -0.00178894 -2.85991e-05)
(0.00289162 -0.00154719 -2.52429e-05)
(0.00254369 -0.00134029 -2.22058e-05)
(0.0022295 -0.0011631 -1.94631e-05)
(0.00194627 -0.00101119 -1.69907e-05)
(0.00169136 -0.000880678 -1.47656e-05)
(0.00146227 -0.000768222 -1.27657e-05)
(0.0012567 -0.000670942 -1.09712e-05)
(0.00107248 -0.000586328 -9.36313e-06)
(0.000907697 -0.000512236 -7.92465e-06)
(0.000760637 -0.000446822 -6.64089e-06)
(0.000629785 -0.000388479 -5.49859e-06)
(0.000513838 -0.00033582 -4.4864e-06)
(0.000411669 -0.000287635 -3.59448e-06)
(0.000322359 -0.000242906 -2.81481e-06)
(0.000245165 -0.00020083 -2.14089e-06)
(0.000179491 -0.000160875 -1.56751e-06)
(0.000124844 -0.000122904 -1.09039e-06)
(8.08169e-05 -8.73035e-05 -7.05969e-07)
(4.6913e-05 -5.51086e-05 -4.09907e-07)
(2.26492e-05 -2.79602e-05 -1.97989e-07)
(7.13676e-06 -8.04804e-06 -6.25145e-08)
(5.97461e-08 2.16841e-06 -1.55789e-09)
(0.0134979 -0.0130526 -0.000117819)
(0.0125309 -0.0114216 -0.000109379)
(0.0115638 -0.0099527 -0.000100938)
(0.0106129 -0.00864084 -9.26389e-05)
(0.00969131 -0.00747812 -8.45954e-05)
(0.0088092 -0.00645464 -7.68962e-05)
(0.00797375 -0.0055592 -6.96042e-05)
(0.00718979 -0.00478007 -6.27614e-05)
(0.00645993 -0.00410535 -5.63905e-05)
(0.0057851 -0.00352346 -5.05002e-05)
(0.00516481 -0.0030234 -4.50858e-05)
(0.00459755 -0.00259492 -4.01342e-05)
(0.00408098 -0.00222864 -3.56251e-05)
(0.00361229 -0.00191607 -3.15339e-05)
(0.00318832 -0.00164965 -2.78329e-05)
(0.00280575 -0.00142268 -2.44934e-05)
(0.0024613 -0.00122932 -2.14866e-05)
(0.00215166 -0.00106444 -1.87836e-05)
(0.00187369 -0.000923628 -1.63572e-05)
(0.00162447 -0.000803082 -1.41816e-05)
(0.00140125 -0.000699531 -1.2233e-05)
(0.00120156 -0.000610198 -1.04899e-05)
(0.00102313 -0.000532673 -8.9323e-06)
(0.000863931 -0.000464916 -7.54259e-06)
(0.0007222 -0.000405177 -6.30534e-06)
(0.000596381 -0.000351945 -5.20696e-06)
(0.000485148 -0.000303917 -4.23593e-06)
(0.000387365 -0.000259963 -3.3823e-06)
(0.000302113 -0.000219136 -2.63805e-06)
(0.000228655 -0.000180692 -1.99673e-06)
(0.000166397 -0.000144147 -1.45318e-06)
(0.000114856 -0.000109388 -1.00317e-06)
(7.36175e-05 -7.68067e-05 -6.43091e-07)
(4.21715e-05 -4.74149e-05 -3.68487e-07)
(1.99845e-05 -2.28164e-05 -1.74701e-07)
(6.09581e-06 -5.17273e-06 -5.33997e-08)
(-1.03324e-08 3.03865e-06 -7.73253e-10)
(0.0140411 -0.0128937 -0.000122561)
(0.0129411 -0.0111955 -0.000112961)
(0.0118596 -0.00968311 -0.000103521)
(0.0108122 -0.00834683 -9.43798e-05)
(0.00981117 -0.0071746 -8.56424e-05)
(0.00886491 -0.00615273 -7.73832e-05)
(0.00797909 -0.00526696 -6.96514e-05)
(0.00715661 -0.00450294 -6.24722e-05)
(0.00639839 -0.00384674 -5.58538e-05)
(0.00570362 -0.00328519 -4.97892e-05)
(0.0050703 -0.00280611 -4.4261e-05)
(0.00449551 -0.00239839 -3.92437e-05)
(0.00397576 -0.00205204 -3.47068e-05)
(0.00350719 -0.0017582 -3.06166e-05)
(0.00308582 -0.0015091 -2.69383e-05)
(0.00270762 -0.00129794 -2.36369e-05)
(0.00236877 -0.00111887 -2.06789e-05)
(0.00206549 -0.000966802 -1.80315e-05)
(0.00179434 -0.000837422 -1.56645e-05)
(0.00155209 -0.000727029 -1.35498e-05)
(0.00133582 -0.000632478 -1.16619e-05)
(0.00114293 -0.000551113 -9.9781e-06)
(0.000971023 -0.00048065 -8.47742e-06)
(0.000818022 -0.000419167 -7.14181e-06)
(0.000682119 -0.000365021 -5.95543e-06)
(0.000561737 -0.000316805 -4.90451e-06)
(0.000455542 -0.000273308 -3.97746e-06)
(0.000362404 -0.000233484 -3.16437e-06)
(0.000281411 -0.000196459 -2.45729e-06)
(0.00021184 -0.000161551 -1.84991e-06)
(0.000153113 -0.000128321 -1.33718e-06)
(0.000104757 -9.6683e-05 -9.14979e-07)
(6.63602e-05 -6.70262e-05 -5.79707e-07)
(3.74031e-05 -4.03363e-05 -3.26831e-07)
(1.73084e-05 -1.81703e-05 -1.51314e-07)
(5.04986e-06 -2.64662e-06 -4.42411e-08)
(-8.16524e-08 3.7625e-06 2.33412e-11)
(0.0145322 -0.0126343 -0.000126849)
(0.0132927 -0.010882 -0.00011603)
(0.0120939 -0.00933926 -0.000105568)
(0.0109505 -0.00799124 -9.55877e-05)
(0.00987233 -0.006821 -8.61771e-05)
(0.00886594 -0.00581104 -7.73928e-05)
(0.00793446 -0.00494377 -6.92625e-05)
(0.00707872 -0.00420233 -6.17929e-05)
(0.0062974 -0.00357079 -5.49726e-05)
(0.00558783 -0.00303455 -4.87788e-05)
(0.00494627 -0.00258037 -4.31786e-05)
(0.00436836 -0.00219643 -3.8134e-05)
(0.00384936 -0.00187233 -3.36035e-05)
(0.0033844 -0.00159895 -2.95448e-05)
(0.00296864 -0.00136841 -2.59155e-05)
(0.00259742 -0.00117393 -2.26749e-05)
(0.00226636 -0.00100973 -1.9785e-05)
(0.00197132 -0.000870856 -1.72095e-05)
(0.00170853 -0.000753114 -1.49155e-05)
(0.00147456 -0.000652966 -1.2873e-05)
(0.00126632 -0.000567423 -1.10552e-05)
(0.0010811 -0.000493979 -9.43832e-06)
(0.000916437 -0.000430494 -8.0009e-06)
(0.00077022 -0.000375175 -6.7245e-06)
(0.000640617 -0.000326502 -5.59311e-06)
(0.00052605 -0.000283176 -4.59296e-06)
(0.000425195 -0.000244084 -3.71251e-06)
(0.000336934 -0.000208267 -2.942e-06)
(0.00026038 -0.000174928 -2.27367e-06)
(0.00019483 -0.000143445 -1.70139e-06)
(0.000139728 -0.000113424 -1.22031e-06)
(9.46185e-05 -8.48051e-05 -8.26445e-07)
(5.90988e-05 -5.79719e-05 -5.16286e-07)
(3.26449e-05 -3.38773e-05 -2.85265e-07)
(1.4643e-05 -1.4023e-05 -1.28021e-07)
(4.00814e-06 -4.6968e-07 -3.51196e-08)
(-1.535e-07 4.33976e-06 8.24062e-10)
(0.0149487 -0.0122653 -0.000130486)
(0.0135667 -0.0104752 -0.000118424)
(0.0122517 -0.00891827 -0.000106946)
(0.0110153 -0.00757313 -9.61546e-05)
(0.0098653 -0.00641802 -8.61166e-05)
(0.00880484 -0.00543114 -7.68602e-05)
(0.00783448 -0.00459181 -6.83903e-05)
(0.00695216 -0.00388064 -6.06885e-05)
(0.00615428 -0.00327996 -5.37237e-05)
(0.00543596 -0.00277386 -4.74534e-05)
(0.0047917 -0.00234832 -4.18296e-05)
(0.00421559 -0.00199098 -3.68006e-05)
(0.00370166 -0.00169119 -3.23144e-05)
(0.00324403 -0.00143974 -2.83195e-05)
(0.00283707 -0.00122879 -2.47671e-05)
(0.00247551 -0.00105167 -2.16109e-05)
(0.00215452 -0.000902753 -1.88087e-05)
(0.00186959 -0.000777279 -1.63215e-05)
(0.00161672 -0.000671257 -1.4114e-05)
(0.0013923 -0.00058134 -1.21549e-05)
(0.00119313 -0.000504726 -1.04163e-05)
(0.00101642 -0.000439083 -8.87373e-06)
(0.000859695 -0.00038243 -7.50555e-06)
(0.000720812 -0.00033312 -6.29316e-06)
(0.000597948 -0.000289761 -5.2206e-06)
(0.000489543 -0.000251168 -4.27424e-06)
(0.000394297 -0.000216329 -3.44275e-06)
(0.000311123 -0.000184377 -2.71664e-06)
(0.000239162 -0.000154589 -2.08841e-06)
(0.000177743 -0.000126405 -1.55219e-06)
(0.000126338 -9.9478e-05 -1.10339e-06)
(8.45178e-05 -7.37667e-05 -7.38237e-07)
(5.18912e-05 -4.96488e-05 -4.53335e-07)
(2.79375e-05 -2.8038e-05 -2.44141e-07)
(1.20126e-05 -1.03718e-05 -1.05032e-07)
(2.98085e-06 1.36111e-06 -2.61245e-08)
(-2.25037e-07 4.7716e-06 1.61981e-09)
(0.0152692 -0.0117774 -0.000133285)
(0.0137447 -0.00997087 -0.000119979)
(0.012317 -0.00841872 -0.000107517)
(0.0109945 -0.00709343 -9.59737e-05)
(0.00978046 -0.00596774 -8.53768e-05)
(0.00867471 -0.00501599 -7.5725e-05)
(0.00767407 -0.00421428 -6.69906e-05)
(0.0067736 -0.00354114 -5.91303e-05)
(0.00596687 -0.00297731 -5.20881e-05)
(0.00524683 -0.00250597 -4.58028e-05)
(0.00460606 -0.00211246 -4.02093e-05)
(0.00403716 -0.00178421 -3.52432e-05)
(0.00353292 -0.00151046 -3.08415e-05)
(0.00308654 -0.00128213 -2.69449e-05)
(0.00269169 -0.00109152 -2.3498e-05)
(0.00234254 -0.000932192 -2.04501e-05)
(0.00203387 -0.000798777 -1.77555e-05)
(0.00176091 -0.00068676 -1.53728e-05)
(0.00151947 -0.000592402 -1.32651e-05)
(0.00130583 -0.000512589 -1.14001e-05)