/*--------------------------------*- C++ -*----------------------------------*\
| =========                 |                                                 |
| \\      /  F ield         | OpenFOAM: The Open Source CFD Toolbox           |
|  \\    /   O peration     | Version:  v2012                                 |
|   \\  /    A nd           | Website:  www.openfoam.com                      |
|    \\/     M anipulation  |                                                 |
\*---------------------------------------------------------------------------*/
FoamFile
{
    version     2.0;
    format      ascii;
    class       volVectorField;
    location    "0.15";
    object      U;
}
// * * * * * * * * * * * * * * * * * * * * * * * * * * * * * * * * * * * * * //

dimensions      [0 1 -1 0 0 0 0];


internalField   nonuniform List<vector> 
3326
(
(-0.330646 0.379467 0.00288696)
(-0.273842 0.371544 0.00239113)
(-0.21901 0.354556 0.0019125)
(-0.167111 0.328091 0.00145945)
(-0.119316 0.291739 0.0010422)
(-0.0769058 0.245138 0.000671932)
(-0.0416316 0.188029 0.000363906)
(-0.0151402 0.12039 0.000132617)
(-0.000643227 0.0425458 7.99507e-06)
(-0.500999 0.338648 0.00437382)
(-0.443384 0.354993 0.00387094)
(-0.385521 0.363655 0.0033659)
(-0.328044 0.364306 0.00286418)
(-0.271683 0.356599 0.00237222)
(-0.217277 0.340158 0.00189732)
(-0.165781 0.314597 0.00144781)
(-0.118362 0.27954 0.00103385)
(-0.0762902 0.234663 0.000666539)
(-0.0413001 0.179764 0.000361)
(-0.0150225 0.114899 0.000131583)
(-0.000639576 0.0404859 7.94505e-06)
(-0.865309 -2.70469 0.00755217)
(-0.899468 -2.62451 0.00785031)
(-0.931381 -2.53157 0.00812888)
(-0.963427 -2.42572 0.00840857)
(-0.992495 -2.30918 0.0086623)
(-1.01903 -2.18525 0.00889393)
(-1.04227 -2.0569 0.00909679)
(-1.06237 -1.92662 0.00927225)
(-1.07926 -1.79626 0.00941971)
(-1.09306 -1.66711 0.00954023)
(-1.10384 -1.53999 0.00963431)
(-1.11165 -1.41542 0.00970252)
(-1.11651 -1.29371 0.00974502)
(-1.11842 -1.17503 0.00976172)
(-1.11734 -1.0595 0.0097523)
(-1.1132 -0.947236 0.00971621)
(-1.10593 -0.838326 0.00965283)
(-1.09547 -0.7329 0.00956155)
(-1.08174 -0.631102 0.00944174)
(-1.06468 -0.533099 0.00929288)
(-1.04424 -0.439075 0.00911456)
(-1.0204 -0.349228 0.00890656)
(-0.993159 -0.263764 0.00866882)
(-0.962528 -0.182896 0.00840153)
(-0.92856 -0.10685 0.00810511)
(-0.89133 -0.0358359 0.00778022)
(-0.850941 0.0299319 0.00742787)
(-0.807535 0.0902313 0.00704907)
(-0.761287 0.144848 0.00664546)
(-0.712421 0.193554 0.006219)
(-0.661189 0.236136 0.00577188)
(-0.607893 0.272363 0.00530675)
(-0.552897 0.301995 0.00482675)
(-0.496612 0.324779 0.00433543)
(-0.439521 0.340448 0.00383715)
(-0.382169 0.348716 0.00333657)
(-0.325187 0.349269 0.00283922)
(-0.269307 0.341775 0.00235146)
(-0.215363 0.325878 0.0018806)
(-0.16431 0.301215 0.00143495)
(-0.117305 0.267441 0.0010246)
(-0.0756054 0.224276 0.000660551)
(-0.04093 0.17157 0.000357763)
(-0.0148906 0.109455 0.000130426)
(-0.000635331 0.0384428 7.88773e-06)
(-0.86049 -2.59097 0.00751015)
(-0.891535 -2.51315 0.0077811)
(-0.920812 -2.42472 0.00803665)
(-0.950784 -2.32447 0.00829824)
(-0.978197 -2.21417 0.00853752)
(-1.00349 -2.09665 0.00875828)
(-1.02581 -1.97465 0.00895312)
(-1.04528 -1.85052 0.00912307)
(-1.06177 -1.72604 0.00926703)
(-1.07537 -1.60246 0.00938576)
(-1.0861 -1.48065 0.00947947)
(-1.094 -1.36114 0.00954848)
(-1.09907 -1.24427 0.00959278)
(-1.10129 -1.13025 0.00961214)
(-1.10059 -1.01921 0.00960613)
(-1.09691 -0.911287 0.00957407)
(-1.09017 -0.806582 0.00951526)
(-1.08028 -0.705224 0.009429)
(-1.06717 -0.607359 0.00931457)
(-1.05076 -0.513147 0.00917138)
(-1.03099 -0.422766 0.00899894)
(-1.00785 -0.336406 0.00879696)
(-0.981302 -0.254264 0.00856533)
(-0.951373 -0.176546 0.00830416)
(-0.918104 -0.103467 0.00801384)
(-0.881565 -0.0352294 0.00769498)
(-0.841857 0.0279606 0.00734847)
(-0.799118 0.0858904 0.0069755)
(-0.753522 0.138353 0.00657758)
(-0.705292 0.18513 0.00615667)
(-0.654678 0.226014 0.00571494)
(-0.601984 0.260785 0.00525507)
(-0.547574 0.28921 0.0047802)
(-0.49186 0.311048 0.00429393)
(-0.435327 0.32604 0.00380052)
(-0.378519 0.333913 0.0033047)
(-0.32207 0.334366 0.00281199)
(-0.266707 0.327081 0.00232876)
(-0.213266 0.311724 0.00186229)
(-0.162694 0.287953 0.00142083)
(-0.116139 0.255454 0.00101442)
(-0.0748489 0.213987 0.00065394)
(-0.0405199 0.163454 0.000354177)
(-0.0147437 0.104063 0.000129139)
(-0.000630442 0.0364185 7.82247e-06)
(-0.853854 -2.48173 0.00745226)
(-0.881767 -2.40566 0.00769587)
(-0.908546 -2.32123 0.00792961)
(-0.93651 -2.2261 0.00817367)
(-0.96237 -2.12159 0.0083994)
(-0.9865 -2.01009 0.00861002)
(-1.00799 -1.89412 0.00879766)
(-1.02692 -1.77585 0.00896286)
(-1.0431 -1.657 0.00910412)
(-1.05658 -1.5388 0.00922182)
(-1.06735 -1.42212 0.00931586)
(-1.07543 -1.30752 0.00938635)
(-1.08077 -1.19536 0.00943307)
(-1.08336 -1.08588 0.00945564)
(-1.0831 -0.979246 0.00945349)
(-1.07993 -0.875581 0.00942585)
(-1.07375 -0.775009 0.00937193)
(-1.06447 -0.677659 0.00929094)
(-1.05199 -0.583673 0.00918209)
(-1.03624 -0.493208 0.00904471)
(-1.01717 -0.406433 0.00887827)
(-0.994721 -0.32353 0.00868239)
(-0.968884 -0.244688 0.00845693)
(-0.939664 -0.170101 0.00820196)
(-0.907103 -0.0999747 0.00791781)
(-0.871265 -0.0345023 0.00760507)
(-0.832249 0.0261177 0.00726459)
(-0.790191 0.0816834 0.00689755)
(-0.745263 0.131996 0.00650547)
(-0.697686 0.176845 0.00609026)
(-0.647713 0.216034 0.00565412)
(-0.595646 0.24935 0.00519972)
(-0.541849 0.276569 0.00473021)
(-0.486737 0.29746 0.0042492)
(-0.430795 0.311776 0.00376094)
(-0.374566 0.319253 0.00327018)
(-0.318685 0.319605 0.00278244)
(-0.263879 0.312529 0.00230407)
(-0.21098 0.297707 0.00184232)
(-0.160928 0.274823 0.00140541)
(-0.114863 0.243589 0.00100328)
(-0.0740182 0.203804 0.000646682)
(-0.0400681 0.155424 0.000350229)
(-0.0145812 0.0987275 0.000127715)
(-0.000624849 0.0344151 7.74862e-06)
(-0.845179 -2.37705 0.00737657)
(-0.869972 -2.3021 0.00759294)
(-0.894435 -2.22113 0.00780646)
(-0.920478 -2.13061 0.00803376)
(-0.94491 -2.03146 0.00824702)
(-0.967981 -1.92559 0.00844839)
(-0.988758 -1.8153 0.00862976)
(-1.00724 -1.7026 0.00879111)
(-1.02321 -1.58913 0.00893054)
(-1.03667 -1.47611 0.00904805)
(-1.04758 -1.36438 0.00914324)
(-1.0559 -1.25454 0.00921594)
(-1.0616 -1.14698 0.00926574)
(-1.06462 -1.04194 0.0092921)
(-1.06487 -0.9396 0.00929431)
(-1.06225 -0.840116 0.0092715)
(-1.05667 -0.743608 0.0092228)
(-1.04802 -0.650206 0.00914734)
(-1.0362 -0.56005 0.00904426)
(-1.02114 -0.47329 0.00891285)
(-1.00276 -0.390086 0.00875251)
(-0.981024 -0.310612 0.00856283)
(-0.955902 -0.235045 0.00834361)
(-0.927399 -0.163569 0.00809489)
(-0.895552 -0.0963806 0.00781698)
(-0.860423 -0.0336619 0.00751043)
(-0.822109 0.0243977 0.00717608)
(-0.780745 0.0776065 0.0068151)
(-0.7365 0.125775 0.00642897)
(-0.689597 0.168701 0.00601964)
(-0.640285 0.206198 0.00558928)
(-0.588869 0.23806 0.00514056)
(-0.535714 0.264076 0.00467665)
(-0.481235 0.284022 0.00420117)
(-0.425916 0.297662 0.00371835)
(-0.370302 0.304745 0.00323296)
(-0.315028 0.304996 0.00275051)
(-0.260818 0.298127 0.00227734)
(-0.208499 0.283838 0.00182066)
(-0.159008 0.261834 0.00138864)
(-0.113472 0.231855 0.000991129)
(-0.0731105 0.193737 0.000638752)
(-0.039573 0.147488 0.000345901)
(-0.0144023 0.0934554 0.000126148)
(-0.000618485 0.0324348 7.66543e-06)
(-0.834205 -2.27694 0.00728081)
(-0.855938 -2.2025 0.00747048)
(-0.878308 -2.12443 0.00766573)
(-0.902546 -2.03803 0.00787726)
(-0.925699 -1.94377 0.00807936)
(-0.947832 -1.84313 0.00827254)
(-0.968017 -1.73817 0.00844874)
(-0.986178 -1.63074 0.00860727)
(-1.00206 -1.52241 0.00874588)
(-1.0156 -1.41435 0.00886415)
(-1.02674 -1.30741 0.00896136)
(-1.03541 -1.20219 0.00903708)
(-1.04155 -1.09909 0.00909067)
(-1.04507 -0.998383 0.00912143)
(-1.04587 -0.900264 0.00912852)
(-1.04386 -0.804886 0.00911098)
(-1.03891 -0.712378 0.00906784)
(-1.03093 -0.622871 0.00899817)
(-1.0198 -0.536497 0.00890107)
(-1.00543 -0.453401 0.00877577)
(-0.987769 -0.373736 0.00862164)
(-0.966749 -0.297661 0.00843823)
(-0.942349 -0.225345 0.00822531)
(-0.914569 -0.156961 0.0079829)
(-0.883443 -0.0926942 0.00771128)
(-0.849031 -0.0327158 0.00741099)
(-0.81143 0.0227946 0.00708285)
(-0.770771 0.0736554 0.00672803)
(-0.727225 0.119686 0.00634801)
(-0.681012 0.160696 0.0059447)
(-0.632384 0.196506 0.00552031)
(-0.581645 0.22692 0.0050775)
(-0.52916 0.251735 0.00461943)
(-0.475344 0.27074 0.00414974)
(-0.420682 0.283708 0.00367266)
(-0.36572 0.290398 0.00319295)
(-0.31109 0.290548 0.00271613)
(-0.257515 0.283886 0.0022485)
(-0.205818 0.270127 0.00179725)
(-0.156929 0.248997 0.00137049)
(-0.111963 0.220263 0.000977946)
(-0.072123 0.183797 0.000630125)
(-0.0390327 0.139653 0.000341178)
(-0.0142062 0.0882519 0.000124431)
(-0.000611272 0.0304799 7.57207e-06)
(-0.820683 -2.18134 0.00716282)
(-0.839469 -2.10684 0.00732676)
(-0.859983 -2.03111 0.0075058)
(-0.88256 -1.94833 0.00770284)
(-0.904608 -1.85851 0.00789528)
(-0.925949 -1.76268 0.00808155)
(-0.945692 -1.6627 0.00825389)
(-0.963667 -1.56025 0.00841079)
(-0.979583 -1.45681 0.00854973)
(-0.993339 -1.3535 0.00866982)
(-1.00482 -1.25117 0.00877003)
(-1.01393 -1.15043 0.00884964)
(-1.02059 -1.05168 0.00890778)
(-1.02469 -0.95521 0.0089436)
(-1.02612 -0.861226 0.00895611)
(-1.02476 -0.769885 0.00894427)
(-1.02049 -0.681319 0.00890703)
(-1.0132 -0.595655 0.00884342)
(-1.00277 -0.513021 0.00875248)
(-0.989127 -0.433552 0.00863343)
(-0.972183 -0.357392 0.00848559)
(-0.951889 -0.284689 0.00830852)
(-0.928217 -0.2156 0.00810196)
(-0.901165 -0.150288 0.00786589)
(-0.870765 -0.0889249 0.00760062)
(-0.837078 -0.031672 0.00730665)
(-0.800198 0.0213019 0.00698481)
(-0.760257 0.0698256 0.00663626)
(-0.717425 0.113729 0.00626246)
(-0.671922 0.15283 0.00586535)
(-0.623999 0.186959 0.00544712)
(-0.573962 0.215931 0.00501043)
(-0.522175 0.239552 0.00455846)
(-0.469054 0.257621 0.00409483)
(-0.415085 0.269919 0.00362379)
(-0.360811 0.27622 0.00315009)
(-0.306864 0.276272 0.00267924)
(-0.253965 0.269816 0.00221751)
(-0.202932 0.256585 0.00177205)
(-0.154686 0.236323 0.0013509)
(-0.110331 0.208824 0.000963694)
(-0.0710525 0.173992 0.000620773)
(-0.0384451 0.131929 0.000336042)
(-0.013992 0.0831232 0.000122554)
(-0.000603121 0.0285528 7.46759e-06)
(-0.804368 -2.09025 0.00702044)
(-0.820368 -2.01513 0.00716006)
(-0.839255 -1.94116 0.00732489)
(-0.860349 -1.86149 0.00750899)
(-0.881489 -1.77564 0.0076935)
(-0.902216 -1.68421 0.00787442)
(-0.921693 -1.58886 0.00804442)
(-0.939645 -1.49108 0.00820113)
(-0.955751 -1.39227 0.00834172)
(-0.969854 -1.29351 0.00846483)
(-0.981799 -1.19563 0.00856911)
(-0.991469 -1.09923 0.00865354)
(-0.998741 -1.00472 0.00871705)
(-1.0035 -0.9124 0.00875858)
(-1.00561 -0.822476 0.00877707)
(-1.00495 -0.73511 0.00877136)
(-1.00139 -0.650432 0.00874035)
(-0.994823 -0.568564 0.00868304)
(-0.985126 -0.489629 0.00859845)
(-0.972209 -0.413753 0.00848576)
(-0.955996 -0.341066 0.0083443)
(-0.936434 -0.271708 0.00817361)
(-0.913494 -0.205823 0.00797344)
(-0.887174 -0.143561 0.00774377)
(-0.857506 -0.0850831 0.00748488)
(-0.82455 -0.0305391 0.00719729)
(-0.7884 0.0199127 0.00688183)
(-0.749189 0.0661123 0.00653964)
(-0.707086 0.107899 0.00617221)
(-0.662311 0.145102 0.00578145)
(-0.615116 0.17756 0.00536957)
(-0.565807 0.205098 0.00493924)
(-0.514748 0.227532 0.00449363)
(-0.462355 0.24467 0.00403635)
(-0.409113 0.256305 0.00357166)
(-0.355566 0.26222 0.0031043)
(-0.302343 0.262176 0.00263976)
(-0.25016 0.255928 0.00218429)
(-0.199833 0.243222 0.00174499)
(-0.152274 0.223824 0.00132984)
(-0.108572 0.197548 0.000948333)
(-0.069896 0.164333 0.000610668)
(-0.0378083 0.124325 0.000330476)
(-0.0137586 0.0780757 0.000120511)
(-0.000593931 0.0266561 7.35096e-06)
(-0.785013 -2.00371 0.00685153)
(-0.798416 -1.92738 0.00696849)
(-0.815889 -1.85456 0.00712096)
(-0.835719 -1.77748 0.00729403)
(-0.856179 -1.6951 0.0074726)
(-0.876511 -1.60766 0.00765006)
(-0.89593 -1.51656 0.00781956)
(-0.914053 -1.42315 0.00797775)
(-0.930523 -1.32873 0.00812152)
(-0.945127 -1.23433 0.00824901)
(-0.957673 -1.14074 0.00835854)
(-0.96801 -1.04855 0.00844879)
(-0.975993 -0.958187 0.00851849)
(-0.981482 -0.869933 0.00856643)
(-0.98434 -0.784002 0.00859143)
(-0.984432 -0.700554 0.00859227)
(-0.981627 -0.619716 0.00856781)
(-0.975802 -0.541605 0.00851702)
(-0.966849 -0.466332 0.00843892)
(-0.954673 -0.394014 0.00833269)
(-0.939198 -0.324772 0.00819767)
(-0.920371 -0.258732 0.0080334)
(-0.898166 -0.196026 0.00783965)
(-0.872581 -0.136793 0.00761639)
(-0.843648 -0.0811797 0.00736392)
(-0.81143 -0.0293266 0.00708276)
(-0.776019 0.0186199 0.00677375)
(-0.737549 0.0625103 0.00643803)
(-0.696191 0.102194 0.0060771)
(-0.652164 0.137511 0.00569288)
(-0.60572 0.168309 0.00528755)
(-0.557166 0.194423 0.00486381)
(-0.506866 0.215679 0.00442481)
(-0.455234 0.231894 0.00397419)
(-0.402756 0.242873 0.00351617)
(-0.349975 0.248407 0.00305549)
(-0.297516 0.248272 0.00259762)
(-0.246093 0.242232 0.00214878)
(-0.196516 0.230051 0.00171602)
(-0.149687 0.21151 0.00130724)
(-0.106683 0.186447 0.000931827)
(-0.0686499 0.154831 0.000599783)
(-0.03712 0.116848 0.00032446)
(-0.0135052 0.0731158 0.000118291)
(-0.000583589 0.0247925 7.22098e-06)
(-0.762298 -1.92184 0.00665329)
(-0.773319 -1.84363 0.00674946)
(-0.789593 -1.77128 0.00689147)
(-0.808437 -1.69623 0.00705592)
(-0.828493 -1.61682 0.00723095)
(-0.848702 -1.53294 0.00740734)
(-0.868316 -1.44573 0.00757854)
(-0.886836 -1.35639 0.0077402)
(-0.903871 -1.26612 0.0078889)
(-0.919149 -1.17589 0.00802227)
(-0.932442 -1.08644 0.00813831)
(-0.943568 -0.998362 0.00823544)
(-0.952357 -0.912048 0.00831219)
(-0.958658 -0.827791 0.00836721)
(-0.962322 -0.745795 0.00839924)
(-0.963208 -0.666217 0.00840701)
(-0.961185 -0.589177 0.00838938)
(-0.95613 -0.514784 0.0083453)
(-0.947934 -0.44314 0.00827381)
(-0.936506 -0.374351 0.00817411)
(-0.921772 -0.308525 0.00804557)
(-0.903683 -0.245776 0.00788774)
(-0.882214 -0.186224 0.00770041)
(-0.857365 -0.129996 0.00748358)
(-0.829172 -0.0772265 0.00723756)
(-0.797696 -0.0280439 0.00696288)
(-0.763033 0.0174159 0.0066604)
(-0.725318 0.0590144 0.00633126)
(-0.68472 0.0966116 0.00597697)
(-0.641461 0.130057 0.00559945)
(-0.595793 0.159209 0.0052009)
(-0.548022 0.183911 0.00478399)
(-0.498512 0.203999 0.00435189)
(-0.447678 0.219301 0.00390822)
(-0.396002 0.229631 0.0034572)
(-0.344027 0.234791 0.00300356)
(-0.292375 0.234568 0.00255273)
(-0.241756 0.22874 0.00211091)
(-0.192973 0.217082 0.00168509)
(-0.14692 0.199394 0.00128308)
(-0.104657 0.175533 0.000914135)
(-0.067311 0.145496 0.000588085)
(-0.0363779 0.10951 0.000317974)
(-0.0132306 0.0682506 0.000115886)
(-0.000571967 0.0229648 7.07634e-06)
(-0.735775 -1.84485 0.00642182)
(-0.74467 -1.76394 0.00649943)
(-0.760007 -1.69129 0.00663324)
(-0.778231 -1.61764 0.00679228)
(-0.798231 -1.54065 0.00696683)
(-0.818661 -1.45989 0.00714514)
(-0.838775 -1.37622 0.0073207)
(-0.857961 -1.29068 0.00748816)
(-0.875788 -1.20435 0.00764377)
(-0.891928 -1.11811 0.00778467)
(-0.906123 -1.03269 0.00790858)
(-0.918159 -0.948611 0.00801366)
(-0.927853 -0.866275 0.0080983)
(-0.935039 -0.785955 0.00816105)
(-0.939563 -0.707847 0.00820059)
(-0.941284 -0.632098 0.00821564)
(-0.940068 -0.558821 0.00820506)
(-0.935799 -0.488114 0.00816784)
(-0.928369 -0.420069 0.00810304)
(-0.917693 -0.354779 0.00800991)
(-0.903702 -0.292341 0.00788784)
(-0.88635 -0.232856 0.00773645)
(-0.865616 -0.176434 0.00755553)
(-0.841504 -0.123186 0.00734513)
(-0.814052 -0.0732359 0.00710558)
(-0.783325 -0.0267016 0.00683744)
(-0.749419 0.0162927 0.00654156)
(-0.712471 0.0556191 0.00621912)
(-0.672651 0.0911479 0.00587162)
(-0.630182 0.122739 0.00550099)
(-0.585316 0.15026 0.00510944)
(-0.538358 0.173564 0.00469962)
(-0.489672 0.192497 0.00427472)
(-0.439671 0.206897 0.00383832)
(-0.388838 0.216588 0.00339466)
(-0.33771 0.221382 0.00294841)
(-0.28691 0.221077 0.00250502)
(-0.237141 0.215462 0.00207061)
(-0.189198 0.204328 0.00165212)
(-0.143967 0.187487 0.00125729)
(-0.102491 0.164817 0.000895217)
(-0.0658757 0.13634 0.000575546)
(-0.0355798 0.102319 0.000310998)
(-0.0129336 0.0634872 0.000113285)
(-0.000558923 0.0211762 6.91556e-06)
(-0.704634 -1.77301 0.00615004)
(-0.711854 -1.68834 0.00621301)
(-0.726661 -1.61446 0.00634219)
(-0.744787 -1.54153 0.00650038)
(-0.765193 -1.4664 0.00667847)
(-0.786276 -1.38834 0.00686248)
(-0.807255 -1.30788 0.00704558)
(-0.827417 -1.22588 0.00722156)
(-0.846287 -1.14329 0.00738628)
(-0.863492 -1.06091 0.00753647)
(-0.878747 -0.979403 0.00766963)
(-0.891817 -0.899257 0.00778373)
(-0.902507 -0.82084 0.00787707)
(-0.910645 -0.744411 0.00794813)
(-0.916077 -0.670154 0.00799559)
(-0.918663 -0.598203 0.00801819)
(-0.918275 -0.528659 0.00801483)
(-0.9148 -0.461609 0.00798455)
(-0.908141 -0.397135 0.00792648)
(-0.898217 -0.335317 0.0078399)
(-0.884965 -0.276239 0.0077243)
(-0.868347 -0.219992 0.0075793)
(-0.848345 -0.166671 0.00740477)
(-0.82497 -0.116377 0.0072008)
(-0.798262 -0.0692212 0.00696775)
(-0.768288 -0.0253102 0.00670619)
(-0.735149 0.0152423 0.006417)
(-0.698983 0.052319 0.00610138)
(-0.65996 0.0858003 0.00576084)
(-0.618304 0.115556 0.0053973)
(-0.574266 0.141464 0.00501298)
(-0.528153 0.163387 0.00461054)
(-0.480326 0.18118 0.00419313)
(-0.431199 0.194691 0.00376436)
(-0.381249 0.203753 0.00332841)
(-0.331014 0.20819 0.00288995)
(-0.28111 0.207809 0.00245439)
(-0.232238 0.202411 0.0020278)
(-0.185183 0.1918 0.00161707)
(-0.140822 0.175801 0.00122983)
(-0.10018 0.154311 0.000875034)
(-0.0643405 0.127374 0.000562134)
(-0.0347231 0.0952851 0.000303511)
(-0.0126131 0.0588331 0.000110478)
(-0.000544298 0.0194297 6.73705e-06)
(-0.667523 -1.70637 0.00582614)
(-0.673985 -1.61663 0.00588249)
(-0.688985 -1.54049 0.00601335)
(-0.707782 -1.46755 0.00617739)
(-0.72921 -1.39376 0.00636439)
(-0.751486 -1.31801 0.00655881)
(-0.773757 -1.24047 0.0067532)
(-0.795239 -1.16182 0.0069407)
(-0.815421 -1.08283 0.00711686)
(-0.833898 -1.0042 0.00727815)
(-0.850368 -0.926529 0.00742192)
(-0.864587 -0.850258 0.00754605)
(-0.876355 -0.775721 0.00764879)
(-0.885502 -0.703153 0.00772866)
(-0.891878 -0.632719 0.00778436)
(-0.89535 -0.56454 0.00781471)
(-0.895799 -0.498706 0.00781866)
(-0.893123 -0.435289 0.00779534)
(-0.887231 -0.37436 0.00774396)
(-0.878052 -0.315987 0.0076639)
(-0.865534 -0.260242 0.00755468)
(-0.849643 -0.207204 0.00741604)
(-0.83037 -0.156955 0.00724787)
(-0.807729 -0.109586 0.00705031)
(-0.781767 -0.0651962 0.00682377)
(-0.752554 -0.0238811 0.00656884)
(-0.720193 0.0142562 0.00628644)
(-0.684823 0.0491086 0.00597778)
(-0.646617 0.0805663 0.00564437)
(-0.605799 0.10851 0.00528815)
(-0.56262 0.132825 0.00491132)
(-0.517386 0.153385 0.00451655)
(-0.470457 0.170054 0.00410697)
(-0.422243 0.18269 0.00368618)
(-0.373222 0.191136 0.00325833)
(-0.323925 0.195225 0.00282807)
(-0.274967 0.194776 0.00240075)
(-0.22704 0.1896 0.00198241)
(-0.180923 0.179511 0.00157987)
(-0.137479 0.16435 0.00120064)
(-0.0977196 0.144027 0.000853544)
(-0.062702 0.118609 0.00054782)
(-0.0338056 0.0884195 0.000295492)
(-0.0122678 0.054296 0.000107454)
(-0.000527917 0.0177288 6.53902e-06)
(-0.622477 -1.64435 0.00543297)
(-0.630019 -1.54815 0.00549874)
(-0.646431 -1.46876 0.00564192)
(-0.66698 -1.39518 0.00582124)
(-0.690216 -1.32229 0.00602403)
(-0.714318 -1.24855 0.00623439)
(-0.738357 -1.17374 0.0064442)
(-0.761523 -1.0983 0.00664641)
(-0.783286 -1.02281 0.00683637)
(-0.803234 -0.947877 0.0070105)
(-0.821061 -0.874003 0.00716612)
(-0.836528 -0.80158 0.00730114)
(-0.84944 -0.730902 0.00741387)
(-0.859637 -0.662178 0.0075029)
(-0.866979 -0.595552 0.00756703)
(-0.871346 -0.53113 0.00760519)
(-0.872633 -0.468985 0.00761645)
(-0.870748 -0.409179 0.00760004)
(-0.865614 -0.35177 0.00755527)
(-0.85717 -0.296815 0.00748162)
(-0.845374 -0.244374 0.00737872)
(-0.830202 -0.194514 0.00724634)
(-0.811652 -0.147307 0.00708449)
(-0.789744 -0.102831 0.00689333)
(-0.76453 -0.0611755 0.00667331)
(-0.736084 -0.0224254 0.00642509)
(-0.704513 0.0133263 0.00614958)
(-0.669958 0.0459826 0.00584802)
(-0.632592 0.0754436 0.00552194)
(-0.592639 0.101599 0.00517327)
(-0.550352 0.124345 0.00480422)
(-0.506033 0.143563 0.00441744)
(-0.460042 0.159127 0.00401606)
(-0.412786 0.170904 0.00360362)
(-0.36474 0.178748 0.00318428)
(-0.316431 0.1825 0.00276264)
(-0.268468 0.18199 0.00234401)
(-0.221537 0.177039 0.00193437)
(-0.176408 0.167473 0.00154045)
(-0.133934 0.153145 0.00116968)
(-0.0951053 0.133979 0.000830711)
(-0.0609567 0.110058 0.000532572)
(-0.0328249 0.0817323 0.00028692)
(-0.0118965 0.0498841 0.000104201)
(-0.000509586 0.016077 6.31954e-06)
(-0.567355 -1.5847 0.00495183)
(-0.579085 -1.48134 0.00505415)
(-0.598697 -1.39818 0.00522527)
(-0.622379 -1.32361 0.00543194)
(-0.648339 -1.25141 0.0056585)
(-0.674954 -1.17957 0.0058908)
(-0.701242 -1.1074 0.00612024)
(-0.726444 -1.03512 0.00634021)
(-0.750035 -0.96311 0.00654614)
(-0.771626 -0.891858 0.0067346)
(-0.790926 -0.821777 0.00690308)
(-0.807714 -0.753201 0.00704963)
(-0.821813 -0.686382 0.00717272)
(-0.83308 -0.621499 0.00727109)
(-0.841394 -0.558674 0.00734371)
(-0.846651 -0.497996 0.00738963)
(-0.848762 -0.439525 0.00740809)
(-0.847652 -0.38331 0.00739844)
(-0.843258 -0.329396 0.00736014)
(-0.835533 -0.277831 0.00729277)
(-0.824446 -0.228663 0.00719604)
(-0.809982 -0.181947 0.00706985)
(-0.792147 -0.137747 0.00691424)
(-0.770971 -0.0961299 0.00672946)
(-0.746508 -0.0571741 0.006516)
(-0.718839 -0.020955 0.00627455)
(-0.688072 0.0124443 0.00600607)
(-0.65435 0.0429363 0.00571179)
(-0.61785 0.0704303 0.00539325)
(-0.578793 0.0948262 0.00505241)
(-0.537432 0.116028 0.00469144)
(-0.494068 0.133927 0.004313)
(-0.449059 0.148407 0.00392018)
(-0.402809 0.159343 0.00351652)
(-0.355787 0.166599 0.00310612)
(-0.308518 0.170026 0.00269356)
(-0.261603 0.169463 0.00228407)
(-0.215721 0.164743 0.00188359)
(-0.171634 0.155701 0.00149876)
(-0.13018 0.142201 0.0011369)
(-0.092333 0.124179 0.000806497)
(-0.0591014 0.101732 0.000516365)
(-0.0317787 0.0752345 0.000277777)
(-0.0114978 0.0456056 0.00010071)
(-0.000489097 0.0144782 6.07652e-06)
(-0.502528 -1.52359 0.00438596)
(-0.521717 -1.4138 0.00455338)
(-0.546321 -1.32727 0.00476809)
(-0.574483 -1.2519 0.00501386)
(-0.604026 -1.18051 0.0052717)
(-0.633774 -1.11063 0.00553134)
(-0.66273 -1.04118 0.00578408)
(-0.690259 -0.972096 0.00602437)
(-0.715872 -0.903614 0.00624794)
(-0.739231 -0.836081 0.00645184)
(-0.760079 -0.769824 0.00663383)
(-0.778228 -0.705118 0.00679226)
(-0.793526 -0.642175 0.00692582)
(-0.805859 -0.58114 0.0070335)
(-0.815129 -0.522117 0.00711445)
(-0.821253 -0.465176 0.00716795)
(-0.824163 -0.410364 0.00719338)
(-0.823803 -0.357718 0.00719028)
(-0.820125 -0.307274 0.00715822)
(-0.813098 -0.259067 0.00709694)
(-0.802701 -0.213138 0.00700624)
(-0.788933 -0.169531 0.00688612)
(-0.771807 -0.1283 0.0067367)
(-0.75136 -0.0895023 0.00655829)
(-0.727654 -0.0532075 0.00635143)
(-0.700771 -0.0194813 0.00611684)
(-0.670825 0.0116023 0.00585552)
(-0.63796 0.0399652 0.00556872)
(-0.602353 0.0655255 0.00525798)
(-0.564226 0.0881924 0.00492525)
(-0.523831 0.107878 0.00457271)
(-0.481466 0.124484 0.00420299)
(-0.437486 0.137902 0.00381915)
(-0.392292 0.148017 0.00342471)
(-0.346348 0.154701 0.00302372)
(-0.300173 0.157817 0.0026207)
(-0.254361 0.157211 0.00222084)
(-0.209584 0.152726 0.00183001)
(-0.166593 0.144208 0.00145474)
(-0.126213 0.131531 0.00110225)
(-0.0893989 0.11464 0.000780871)
(-0.0571334 0.0936452 0.000499172)
(-0.0306649 0.0689372 0.000268042)
(-0.0110707 0.0414691 9.6969e-05)
(-0.000466222 0.0129362 5.80772e-06)
(-0.43141 -1.4582 0.00376516)
(-0.460024 -1.34362 0.00401484)
(-0.490822 -1.25487 0.00428364)
(-0.524349 -1.17925 0.00457624)
(-0.558068 -1.10907 0.00487054)
(-0.591366 -1.0414 0.00516116)
(-0.623267 -0.974843 0.00543961)
(-0.653305 -0.909109 0.0057018)
(-0.681049 -0.844255 0.00594398)
(-0.706234 -0.780519 0.00616382)
(-0.728651 -0.718146 0.0063595)
(-0.748153 -0.657355 0.00652975)
(-0.76463 -0.598314 0.00667359)
(-0.777996 -0.541145 0.00679029)
(-0.788183 -0.485927 0.00687926)
(-0.795134 -0.432717 0.00693997)
(-0.798805 -0.381548 0.00697204)
(-0.799158 -0.332449 0.00697517)
(-0.796166 -0.285444 0.00694909)
(-0.789809 -0.240562 0.00689366)
(-0.780084 -0.197832 0.00680883)
(-0.766997 -0.157293 0.00669466)
(-0.750574 -0.118989 0.00655136)
(-0.730856 -0.082968 0.00637932)
(-0.707912 -0.0492912 0.00617911)
(-0.68183 -0.0180158 0.00595151)
(-0.652725 0.010793 0.00569753)
(-0.620743 0.0370655 0.00541843)
(-0.586061 0.0607288 0.00511577)
(-0.548902 0.0817007 0.00479149)
(-0.509515 0.0999022 0.00444775)
(-0.468196 0.115243 0.00408715)
(-0.425297 0.127624 0.00371275)
(-0.381213 0.136938 0.00332799)
(-0.336403 0.143069 0.0029369)
(-0.291381 0.145885 0.00254394)
(-0.246731 0.145246 0.00215423)
(-0.203117 0.141002 0.00177355)
(-0.161279 0.133009 0.00140834)
(-0.122028 0.121148 0.00106571)
(-0.0862999 0.105375 0.000753805)
(-0.0550502 0.0858087 0.000480973)
(-0.0294817 0.0628515 0.000257701)
(-0.0106138 0.0374836 9.29678e-05)
(-0.000440718 0.0114553 5.51074e-06)
(-0.358095 -1.38752 0.00312518)
(-0.39643 -1.26999 0.00345971)
(-0.434049 -1.18041 0.00378806)
(-0.473252 -1.10526 0.00413021)
(-0.511417 -1.03682 0.00446332)
(-0.548423 -0.971711 0.00478633)
(-0.58337 -0.908308 0.00509136)
(-0.61596 -0.846106 0.00537583)
(-0.645841 -0.785025 0.00563665)
(-0.672827 -0.725193 0.00587222)
(-0.696769 -0.666783 0.00608121)
(-0.717571 -0.609961 0.00626281)
(-0.735164 -0.55486 0.0064164)
(-0.7495 -0.501574 0.00654156)
(-0.760542 -0.450166 0.006638)
(-0.768264 -0.400677 0.00670543)
(-0.772643 -0.353133 0.00674369)
(-0.773665 -0.307553 0.00675265)
(-0.77132 -0.263953 0.00673223)
(-0.765605 -0.222355 0.0066824)
(-0.756529 -0.182782 0.00660323)
(-0.744111 -0.145265 0.00649489)
(-0.728384 -0.109839 0.00635767)
(-0.709398 -0.0765471 0.00619201)
(-0.687226 -0.0454406 0.00599855)
(-0.661961 -0.0165694 0.00577808)
(-0.633719 0.0100094 0.00553163)
(-0.602651 0.0342345 0.00526051)
(-0.568931 0.0560409 0.00496624)
(-0.532782 0.0753552 0.00465077)
(-0.49445 0.0921061 0.00431624)
(-0.45423 0.106212 0.00396523)
(-0.412467 0.117582 0.00360075)
(-0.369552 0.12612 0.00322619)
(-0.325937 0.131714 0.00284553)
(-0.282128 0.134247 0.00246317)
(-0.238703 0.133584 0.00208414)
(-0.196314 0.129587 0.00171414)
(-0.155687 0.122118 0.00135952)
(-0.117623 0.111068 0.00102724)
(-0.0830334 0.0963987 0.000725276)
(-0.0528498 0.0782357 0.000461751)
(-0.0282274 0.0569891 0.000246739)
(-0.0101261 0.033658 8.86971e-05)
(-0.000412329 0.0100397 5.18312e-06)
(-0.285944 -1.31117 0.00249533)
(-0.333219 -1.19281 0.00290794)
(-0.377807 -1.10373 0.00329712)
(-0.422496 -1.02985 0.00368716)
(-0.465058 -0.96371 0.00405866)
(-0.505669 -0.90155 0.00441313)
(-0.54357 -0.841591 0.00474395)
(-0.578608 -0.783137 0.00504979)
(-0.610516 -0.725989 0.00532832)
(-0.639194 -0.67018 0.00557865)
(-0.664549 -0.615819 0.00579998)
(-0.686543 -0.563024 0.00599198)
(-0.70515 -0.511897 0.00615442)
(-0.720362 -0.462509 0.00628724)
(-0.732176 -0.414909 0.00639041)
(-0.740594 -0.369128 0.00646392)
(-0.745619 -0.325183 0.00650781)
(-0.747257 -0.283087 0.00652215)
(-0.745516 -0.242851 0.006507)
(-0.740412 -0.204491 0.0064625)
(-0.731963 -0.168025 0.00638881)
(-0.720201 -0.133477 0.00628619)
(-0.705166 -0.100876 0.00615502)
(-0.686916 -0.0702599 0.00599578)
(-0.66553 -0.0416709 0.00580917)
(-0.641102 -0.0151525 0.00559601)
(-0.613753 0.00924591 0.00535735)
(-0.583633 0.0314704 0.0050945)
(-0.550917 0.0514639 0.00480899)
(-0.515824 0.069161 0.00450274)
(-0.4786 0.0844983 0.00417788)
(-0.439535 0.0974021 0.00383695)
(-0.398968 0.107791 0.00348291)
(-0.357285 0.115575 0.00311911)
(-0.314932 0.120654 0.00274945)
(-0.272403 0.122918 0.00237826)
(-0.230267 0.122242 0.00201049)
(-0.189166 0.118495 0.00165173)
(-0.149814 0.11155 0.00130823)
(-0.112993 0.101305 0.000986813)
(-0.079598 0.0877245 0.000695272)
(-0.0505311 0.0709391 0.000441495)
(-0.0269011 0.0513614 0.000235147)
(-0.00960676 0.0300014 8.41489e-05)
(-0.000380787 0.00869397 4.82229e-06)
(-0.217716 -1.22957 0.00189975)
(-0.27263 -1.11254 0.00237906)
(-0.323688 -1.02509 0.00282471)
(-0.373285 -0.953243 0.00325761)
(-0.419889 -0.889921 0.00366438)
(-0.463768 -0.83108 0.00404738)
(-0.504353 -0.774842 0.00440164)
(-0.541593 -0.720344 0.0047267)
(-0.575313 -0.667285 0.00502104)
(-0.605484 -0.615613 0.00528441)
(-0.632076 -0.56538 0.00551654)
(-0.655104 -0.516662 0.00571757)
(-0.674586 -0.469535 0.00588765)
(-0.690552 -0.424051 0.00602704)
(-0.703033 -0.380249 0.00613603)
(-0.712059 -0.338151 0.00621485)
(-0.717656 -0.29777 0.00626374)
(-0.719852 -0.259115 0.00628295)
(-0.718673 -0.222193 0.0062727)
(-0.714145 -0.187017 0.00623324)
(-0.706304 -0.1536 0.00616484)
(-0.695186 -0.121962 0.00606785)
(-0.680844 -0.0921272 0.00594272)
(-0.66334 -0.0641263 0.00578999)
(-0.642756 -0.0379966 0.00561038)
(-0.619191 -0.0137744 0.00540475)
(-0.592768 0.00849757 0.00517417)
(-0.563635 0.0287726 0.00491994)
(-0.531969 0.0470009 0.0046436)
(-0.497986 0.0631249 0.00434703)
(-0.461927 0.0770885 0.00403234)
(-0.424079 0.0888258 0.00370203)
(-0.384774 0.0982635 0.003359)
(-0.344392 0.105321 0.00300656)
(-0.303369 0.109905 0.00264851)
(-0.26219 0.111915 0.0022891)
(-0.221414 0.111236 0.00193319)
(-0.181668 0.107745 0.00158627)
(-0.143654 0.101323 0.00125445)
(-0.108139 0.0918732 0.000944421)
(-0.0759932 0.0793664 0.000663788)
(-0.048094 0.0639317 0.000420204)
(-0.0255024 0.0459797 0.000222922)
(-0.00905505 0.0265231 7.93175e-05)
(-0.000345824 0.00742277 4.4257e-06)
(-0.155014 -1.14415 0.00135241)
(-0.216222 -1.03009 0.00188667)
(-0.272834 -0.94509 0.00238081)
(-0.326561 -0.875912 0.00284976)
(-0.376623 -0.815812 0.00328673)
(-0.423261 -0.760605 0.00369381)
(-0.466111 -0.708323 0.00406784)
(-0.505187 -0.65796 0.00440893)
(-0.540405 -0.609123 0.00471635)
(-0.571796 -0.561681 0.00499037)
(-0.599391 -0.515636 0.00523126)
(-0.623251 -0.471028 0.00543954)
(-0.643435 -0.427909 0.00561575)
(-0.660011 -0.38632 0.00576047)
(-0.673038 -0.34629 0.00587423)
(-0.682573 -0.307838 0.00595749)
(-0.688664 -0.270973 0.00601069)
(-0.691357 -0.235704 0.00603424)
(-0.690693 -0.202037 0.00602849)
(-0.686713 -0.16998 0.00599379)
(-0.679459 -0.139547 0.00593053)
(-0.668981 -0.110752 0.00583912)
(-0.655335 -0.0836168 0.00572006)
(-0.638589 -0.058166 0.00557395)