/*--------------------------------*- C++ -*----------------------------------*\
| =========                 |                                                 |
| \\      /  F ield         | OpenFOAM: The Open Source CFD Toolbox           |
|  \\    /   O peration     | Version:  v2012                                 |
|   \\  /    A nd           | Website:  www.openfoam.com                      |
|    \\/     M anipulation  |                                                 |
\*---------------------------------------------------------------------------*/
FoamFile
{
    version     2.0;
    format      ascii;
    class       volScalarField;
    location    "0.15";
    object      p;
}
// * * * * * * * * * * * * * * * * * * * * * * * * * * * * * * * * * * * * * //

dimensions      [1 -1 -2 0 0 0 0];


internalField   nonuniform List<scalar> 
2619
(
3.09119e+06
3.09105e+06
3.08972e+06
3.09102e+06
3.09638e+06
3.09774e+06
3.09826e+06
3.09846e+06
3.0985e+06
3.09889e+06
3.09927e+06
3.09963e+06
3.09966e+06
3.0997e+06
3.09978e+06
3.0998e+06
3.09417e+06
3.0934e+06
3.09043e+06
3.09031e+06
3.09548e+06
3.09702e+06
3.09718e+06
3.09867e+06
3.09907e+06
3.09911e+06
3.09934e+06
3.09961e+06
3.09974e+06
3.09993e+06
3.09981e+06
3.09983e+06
3.09985e+06
3.09988e+06
3.09527e+06
3.09463e+06
3.09214e+06
3.09284e+06
3.09673e+06
3.09842e+06
3.09816e+06
3.09893e+06
3.09924e+06
3.09985e+06
3.09991e+06
3.09977e+06
3.0998e+06
3.09998e+06
3.09983e+06
3.09987e+06
3.09988e+06
3.09989e+06
3.09995e+06
3.09593e+06
3.0952e+06
3.09396e+06
3.0942e+06
3.09769e+06
3.09939e+06
3.09877e+06
3.09938e+06
3.09951e+06
3.1003e+06
3.10028e+06
3.1001e+06
3.10004e+06
3.10011e+06
3.09991e+06
3.09995e+06
3.09992e+06
3.09993e+06
3.09997e+06
3.09796e+06
3.09851e+06
3.09699e+06
3.09798e+06
3.09737e+06
3.09957e+06
3.09941e+06
3.10043e+06
3.10026e+06
3.10078e+06
3.10066e+06
3.10056e+06
3.10039e+06
3.10029e+06
3.10004e+06
3.10004e+06
3.09999e+06
3.09997e+06
3.09999e+06
3.10388e+06
3.10392e+06
3.10342e+06
3.10047e+06
3.09433e+06
3.09581e+06
3.10101e+06
3.102e+06
3.10144e+06
3.1013e+06
3.10113e+06
3.10093e+06
3.10067e+06
3.10047e+06
3.10018e+06
3.10014e+06
3.10006e+06
3.10002e+06
3.10002e+06
3.11236e+06
3.11713e+06
3.11525e+06
3.11114e+06
3.09378e+06
3.09361e+06
3.09886e+06
3.10141e+06
3.10167e+06
3.10206e+06
3.10177e+06
3.10129e+06
3.10091e+06
3.10064e+06
3.10031e+06
3.10023e+06
3.10012e+06
3.10007e+06
3.10004e+06
3.04395e+06
3.03915e+06
3.04346e+06
3.06318e+06
3.07931e+06
3.0924e+06
3.09564e+06
3.09808e+06
3.10202e+06
3.10297e+06
3.10229e+06
3.10161e+06
3.10106e+06
3.10076e+06
3.1004e+06
3.10029e+06
3.10017e+06
3.1001e+06
3.10006e+06
2.99083e+06
2.80191e+06
2.75365e+06
2.86411e+06
3.04812e+06
3.10576e+06
3.0977e+06
3.09918e+06
3.10263e+06
3.10365e+06
3.1027e+06
3.1017e+06
3.10111e+06
3.10079e+06
3.10041e+06
3.1003e+06
3.10018e+06
3.10011e+06
3.10006e+06
2.70602e+06
2.69065e+06
2.68352e+06
2.81631e+06
3.03095e+06
3.10304e+06
3.09987e+06
3.1003e+06
3.10353e+06
3.10382e+06
3.10272e+06
3.10163e+06
3.10109e+06
3.10077e+06
3.10039e+06
3.10027e+06
3.10017e+06
3.10012e+06
3.10006e+06
2.69959e+06
2.69644e+06
2.6946e+06
2.82804e+06
3.03344e+06
3.10501e+06
3.10058e+06
3.10091e+06
3.10383e+06
3.10377e+06
3.10276e+06
3.10157e+06
3.10106e+06
3.10071e+06
3.10038e+06
3.10028e+06
3.10019e+06
3.10014e+06
3.10008e+06
2.70336e+06
2.69583e+06
2.6926e+06
2.82789e+06
3.04192e+06
3.11336e+06
3.09857e+06
3.09845e+06
3.10185e+06
3.10288e+06
3.10248e+06
3.10141e+06
3.10098e+06
3.10061e+06
3.10037e+06
3.10031e+06
3.10023e+06
3.10018e+06
3.10011e+06
3.10007e+06
3.10006e+06
3.10006e+06
3.10005e+06
2.69232e+06
2.68526e+06
2.67285e+06
2.78501e+06
2.97649e+06
3.05832e+06
3.0801e+06
3.09897e+06
3.10534e+06
3.10513e+06
3.10323e+06
3.10137e+06
3.10091e+06
3.10045e+06
3.10033e+06
3.1003e+06
3.10025e+06
3.10021e+06
3.10015e+06
3.10012e+06
3.10011e+06
3.1001e+06
3.10007e+06
2.73253e+06
2.72782e+06
2.72846e+06
2.74044e+06
2.75144e+06
2.85826e+06
3.04125e+06
3.10952e+06
3.11055e+06
3.10995e+06
3.10383e+06
3.10057e+06
3.10037e+06
3.10004e+06
3.10015e+06
3.10019e+06
3.1002e+06
3.10019e+06
3.10016e+06
3.10014e+06
3.10014e+06
3.10012e+06
3.10009e+06
2.72136e+06
2.71643e+06
2.70566e+06
2.69239e+06
2.67082e+06
2.76454e+06
2.95565e+06
3.05211e+06
3.0899e+06
3.10761e+06
3.10612e+06
3.10279e+06
3.10118e+06
3.10016e+06
3.10007e+06
3.10007e+06
3.10014e+06
3.10015e+06
3.10015e+06
3.10015e+06
3.10015e+06
3.10013e+06
3.10009e+06
2.70372e+06
2.69762e+06
2.69289e+06
2.69605e+06
2.70604e+06
2.72923e+06
2.75757e+06
2.8668e+06
3.04159e+06
3.11311e+06
3.11377e+06
3.10874e+06
3.10322e+06
3.10032e+06
3.09986e+06
3.09982e+06
3.10003e+06
3.1001e+06
3.10014e+06
3.10015e+06
3.10016e+06
3.10013e+06
3.10008e+06
2.68574e+06
2.62088e+06
2.59888e+06
2.62823e+06
2.68038e+06
2.69631e+06
2.69361e+06
2.81063e+06
3.01701e+06
3.10789e+06
3.1149e+06
3.11069e+06
3.10403e+06
3.10052e+06
3.09984e+06
3.09973e+06
3.09998e+06
3.10007e+06
3.10013e+06
3.10016e+06
3.10016e+06
3.10013e+06
3.10008e+06
2.59131e+06
2.58168e+06
2.57342e+06
2.60929e+06
2.67085e+06
2.6921e+06
2.69857e+06
2.81424e+06
3.01403e+06
3.10564e+06
3.11362e+06
3.10995e+06
3.10375e+06
3.10039e+06
3.09977e+06
3.09967e+06
3.09997e+06
3.10006e+06
3.10013e+06
3.10016e+06
3.10017e+06
3.10013e+06
3.10007e+06
2.58679e+06
2.58089e+06
2.57357e+06
2.60984e+06
2.67093e+06
2.69216e+06
2.69953e+06
2.81552e+06
3.01351e+06
3.10486e+06
3.11294e+06
3.10954e+06
3.10358e+06
3.1003e+06
3.09975e+06
3.09967e+06
3.09999e+06
3.10007e+06
3.10015e+06
3.10017e+06
3.10017e+06
3.10014e+06
3.10007e+06
2.58705e+06
2.58023e+06
2.57287e+06
2.6106e+06
2.67442e+06
2.69485e+06
2.69872e+06
2.81464e+06
3.01288e+06
3.10436e+06
3.11251e+06
3.10927e+06
3.10344e+06
3.10022e+06
3.09974e+06
3.09968e+06
3.10002e+06
3.1001e+06
3.10015e+06
3.10017e+06
3.10016e+06
3.10013e+06
3.10006e+06
2.58265e+06
2.57559e+06
2.56575e+06
2.59662e+06
2.65408e+06
2.67729e+06
2.69269e+06
2.81428e+06
3.01305e+06
3.10419e+06
3.11234e+06
3.10906e+06
3.10333e+06
3.10015e+06
3.09969e+06
3.09966e+06
3.10001e+06
3.10011e+06
3.10017e+06
3.10018e+06
3.10016e+06
3.10012e+06
3.10005e+06
2.59423e+06
2.58944e+06
2.58483e+06
2.58241e+06
2.58161e+06
2.61274e+06
2.6821e+06
2.81849e+06
3.01369e+06
3.10415e+06
3.11229e+06
3.10895e+06
3.10338e+06
3.10021e+06
3.09969e+06
3.09965e+06
3.09999e+06
3.10009e+06
3.10015e+06
3.10016e+06
3.10014e+06
3.1001e+06
3.10003e+06
2.59086e+06
2.5862e+06
2.57662e+06
2.56703e+06
2.55718e+06
2.58374e+06
2.65515e+06
2.79968e+06
3.00639e+06
3.10255e+06
3.11211e+06
3.1089e+06
3.10337e+06
3.10019e+06
3.09967e+06
3.09964e+06
3.09997e+06
3.10008e+06
3.10014e+06
3.10015e+06
3.10013e+06
3.10008e+06
3.10001e+06
2.58877e+06
2.58373e+06
2.57715e+06
2.57179e+06
2.57108e+06
2.57389e+06
2.59161e+06
2.74023e+06
2.99213e+06
3.10447e+06
3.11342e+06
3.10958e+06
3.10362e+06
3.10027e+06
3.09976e+06
3.09971e+06
3.09999e+06
3.10009e+06
3.10011e+06
3.10011e+06
3.10009e+06
3.10005e+06
3.09999e+06
2.58543e+06
2.5708e+06
2.55921e+06
2.55983e+06
2.56461e+06
2.56342e+06
2.57175e+06
2.72275e+06
2.98485e+06
3.10278e+06
3.11317e+06
3.10959e+06
3.10364e+06
3.10025e+06
3.09974e+06
3.0997e+06
3.09997e+06
3.10007e+06
3.1001e+06
3.10009e+06
3.10006e+06
3.10002e+06
3.09997e+06
2.56826e+06
2.56327e+06
2.55474e+06
2.55638e+06
2.56242e+06
2.56249e+06
2.57364e+06
2.72434e+06
2.98425e+06
3.10227e+06
3.11294e+06
3.10951e+06
3.10364e+06
3.10022e+06
3.09971e+06
3.09966e+06
3.09992e+06
3.10003e+06
3.10005e+06
3.10005e+06
3.10002e+06
3.09999e+06
3.09994e+06
2.56763e+06
2.56314e+06
2.55434e+06
2.55627e+06
2.56288e+06
2.56291e+06
2.5744e+06
2.72486e+06
2.98415e+06
3.10216e+06
3.11286e+06
3.10945e+06
3.10361e+06
3.10017e+06
3.09966e+06
3.0996e+06
3.09986e+06
3.09998e+06
3.10001e+06
3.10001e+06
3.09998e+06
3.09996e+06
3.09991e+06
2.56705e+06
2.5626e+06
2.55414e+06
2.55675e+06
2.56366e+06
2.56355e+06
2.57466e+06
2.72497e+06
2.98404e+06
3.1021e+06
3.11272e+06
3.10934e+06
3.10354e+06
3.1001e+06
3.0996e+06
3.09954e+06
3.09981e+06
3.09993e+06
3.09996e+06
3.09996e+06
3.09995e+06
3.09993e+06
3.09989e+06
2.5656e+06
2.56045e+06
2.55126e+06
2.5521e+06
2.5598e+06
2.56018e+06
2.57326e+06
2.72477e+06
2.98416e+06
3.10217e+06
3.11264e+06
3.10924e+06
3.10345e+06
3.10003e+06
3.09953e+06
3.09946e+06
3.09974e+06
3.09987e+06
3.09991e+06
3.09992e+06
3.09991e+06
3.0999e+06
3.09987e+06
2.56557e+06
2.56202e+06
2.55457e+06
2.54889e+06
2.54496e+06
2.54684e+06
2.57009e+06
2.72561e+06
2.98511e+06
3.10319e+06
3.11271e+06
3.10912e+06
3.10333e+06
3.09993e+06
3.09942e+06
3.09936e+06
3.09965e+06
3.09979e+06
3.09985e+06
3.09987e+06
3.09988e+06
3.09987e+06
3.09986e+06
2.56305e+06
2.55663e+06
2.54979e+06
2.54238e+06
2.54058e+06
2.54189e+06
2.56456e+06
2.72135e+06
2.98336e+06
3.10253e+06
3.11245e+06
3.10906e+06
3.10318e+06
3.0998e+06
3.09929e+06
3.09925e+06
3.09955e+06
3.09972e+06
3.09979e+06
3.09983e+06
3.09985e+06
3.09985e+06
3.09984e+06
2.59121e+06
2.58836e+06
2.57838e+06
2.56333e+06
2.54993e+06
2.53986e+06
2.55183e+06
2.7095e+06
2.9803e+06
3.10294e+06
3.11342e+06
3.10987e+06
3.1032e+06
3.09966e+06
3.09914e+06
3.09913e+06
3.09944e+06
3.09964e+06
3.09973e+06
3.09978e+06
3.09981e+06
3.09983e+06
3.09983e+06
2.61183e+06
2.67519e+06
2.68445e+06
2.63498e+06
2.56222e+06
2.53289e+06
2.54689e+06
2.7052e+06
2.97837e+06
3.10213e+06
3.11308e+06
3.10968e+06
3.10297e+06
3.09945e+06
3.09895e+06
3.09896e+06
3.09931e+06
3.09955e+06
3.09967e+06
3.09975e+06
3.09979e+06
3.09982e+06
3.09983e+06
2.71868e+06
2.71894e+06
2.7109e+06
2.653e+06
2.5672e+06
2.53224e+06
2.54606e+06
2.70477e+06
2.97775e+06
3.10165e+06
3.11264e+06
3.1093e+06
3.10271e+06
3.09925e+06
3.09874e+06
3.09879e+06
3.09917e+06
3.09945e+06
3.0996e+06
3.0997e+06
3.09977e+06
3.09981e+06
3.09982e+06
2.72161e+06
2.71608e+06
2.7078e+06
2.64869e+06
2.56595e+06
2.53141e+06
2.54573e+06
2.70439e+06
2.97729e+06
3.10114e+06
3.11217e+06
3.10885e+06
3.10236e+06
3.09896e+06
3.09852e+06
3.09865e+06
3.09905e+06
3.09938e+06
3.09956e+06
3.09968e+06
3.09976e+06
3.09981e+06
3.09983e+06
2.71887e+06
2.71561e+06
2.70685e+06
2.64701e+06
2.56135e+06
2.5273e+06
2.54513e+06
2.70395e+06
2.97669e+06
3.10054e+06
3.11171e+06
3.10846e+06
3.10202e+06
3.09872e+06
3.09837e+06
3.09857e+06
3.09898e+06
3.09933e+06
3.09952e+06
3.09966e+06
3.09976e+06
3.09982e+06
3.09984e+06
2.72116e+06
2.71602e+06
2.71143e+06
2.65971e+06
2.58573e+06
2.54781e+06
2.55175e+06
2.7039e+06
2.97591e+06
3.09987e+06
3.11118e+06
3.10805e+06
3.10179e+06
3.0986e+06
3.09827e+06
3.09851e+06
3.09892e+06
3.09931e+06
3.09952e+06
3.09967e+06
3.09977e+06
3.09984e+06
3.09986e+06
2.69585e+06
2.69223e+06
2.68192e+06
2.67194e+06
2.66834e+06
2.62164e+06
2.56201e+06
2.69742e+06
2.97411e+06
3.09904e+06
3.11065e+06
3.10773e+06
3.10187e+06
3.09878e+06
3.09828e+06
3.09851e+06
3.0989e+06
3.09931e+06
3.09953e+06
3.09969e+06
3.09979e+06
3.09986e+06
3.09989e+06
2.6883e+06
2.67412e+06
2.67213e+06
2.67402e+06
2.69905e+06
2.6588e+06
2.59514e+06
2.71942e+06
2.98222e+06
3.10031e+06
3.11042e+06
3.10735e+06
3.10175e+06
3.09884e+06
3.09841e+06
3.09866e+06
3.09899e+06
3.09938e+06
3.09958e+06
3.09972e+06
3.09983e+06
3.0999e+06
3.09992e+06
2.83382e+06
2.84059e+06
2.82433e+06
2.76935e+06
2.71744e+06
2.67471e+06
2.66921e+06
2.78772e+06
2.99752e+06
3.09724e+06
3.10842e+06
3.10625e+06
3.10137e+06
3.09883e+06
3.09865e+06
3.09894e+06
3.09915e+06
3.09949e+06
3.09964e+06
3.09978e+06
3.09988e+06
3.09995e+06
3.09997e+06
2.95393e+06
3.32718e+06
3.42462e+06
3.1735e+06
2.79907e+06
2.66353e+06
2.68835e+06
2.80685e+06
3.00624e+06
3.09947e+06
3.10907e+06
3.1065e+06
3.10162e+06
3.09908e+06
3.09893e+06
3.09921e+06
3.09933e+06
3.09962e+06
3.09974e+06
3.09984e+06
3.09993e+06
3.1e+06
3.10002e+06
3.53916e+06
3.56638e+06
3.5765e+06
3.27671e+06
2.83538e+06
2.66902e+06
2.68418e+06
2.80383e+06
3.00632e+06
3.09989e+06
3.10929e+06
3.10663e+06
3.10178e+06
3.09921e+06
3.09904e+06
3.09932e+06
3.09942e+06
3.09971e+06
3.09981e+06
3.09991e+06
3.09999e+06
3.10006e+06
3.10007e+06
3.55646e+06
3.56136e+06
3.55846e+06
3.25893e+06
2.83401e+06
2.66933e+06
2.68626e+06
2.80561e+06
3.0084e+06
3.10158e+06
3.11049e+06
3.10761e+06
3.10249e+06
3.09969e+06
3.0994e+06
3.09959e+06
3.0996e+06
3.09985e+06
3.09992e+06
3.09999e+06
3.10006e+06
3.10012e+06
3.10013e+06
3.55292e+06
3.5622e+06
3.56208e+06
3.25769e+06
2.81366e+06
2.64959e+06
2.68674e+06
2.80753e+06
3.00998e+06
3.10205e+06
3.11062e+06
3.10777e+06
3.10255e+06
3.09974e+06
3.09949e+06
3.09972e+06
3.09968e+06
3.09993e+06
3.09999e+06
3.10006e+06
3.10013e+06
3.10018e+06
3.10019e+06
3.58203e+06
3.59377e+06
3.61152e+06
3.35713e+06
2.95499e+06
2.7687e+06
2.73277e+06
2.81272e+06
3.00958e+06
3.10167e+06
3.11137e+06
3.10893e+06
3.10344e+06
3.10042e+06
3.09995e+06
3.10005e+06
3.0999e+06
3.1001e+06
3.10011e+06
3.10016e+06
3.10021e+06
3.10026e+06
3.10027e+06
3.50099e+06
3.50039e+06
3.48935e+06
3.44657e+06
3.41648e+06
3.17858e+06
2.8067e+06
2.78225e+06
3.00015e+06
3.09515e+06
3.10985e+06
3.10921e+06
3.10359e+06
3.10057e+06
3.09997e+06
3.10007e+06
3.09992e+06
3.10014e+06
3.10017e+06
3.10022e+06
3.10029e+06
3.10034e+06
3.10034e+06
3.53848e+06
3.55072e+06
3.55492e+06
3.5643e+06
3.59114e+06
3.37924e+06
2.99542e+06
2.91384e+06
3.05359e+06
3.10664e+06
3.11088e+06
3.10848e+06
3.10376e+06
3.10113e+06
3.10052e+06
3.10051e+06
3.1002e+06
3.10033e+06
3.1003e+06
3.10033e+06
3.10039e+06
3.10043e+06
3.10043e+06
3.43713e+06
3.43155e+06
3.43752e+06
3.45454e+06
3.47464e+06
3.44105e+06
3.39853e+06
3.28964e+06
3.14628e+06
3.09262e+06
3.09783e+06
3.09904e+06
3.10017e+06
3.10015e+06
3.10032e+06
3.10054e+06
3.10021e+06
3.10035e+06
3.10034e+06
3.10038e+06
3.10046e+06
3.10051e+06
3.1005e+06
3.39558e+06
3.2141e+06
3.16155e+06
3.28804e+06
3.47689e+06
3.5429e+06
3.54837e+06
3.42e+06
3.20623e+06
3.10915e+06
3.10156e+06
3.09936e+06
3.10085e+06
3.10092e+06
3.101e+06
3.10103e+06
3.10051e+06
3.10054e+06
3.10047e+06
3.10048e+06
3.10055e+06
3.10059e+06
3.10057e+06
3.09177e+06
3.0712e+06
3.07096e+06
3.22075e+06
3.45307e+06
3.53159e+06
3.52752e+06
3.40162e+06
3.20657e+06
3.10809e+06
3.1006e+06
3.09783e+06
3.0997e+06
3.10006e+06
3.10047e+06
3.1007e+06
3.10032e+06
3.10044e+06
3.10044e+06
3.10049e+06
3.10059e+06
3.10064e+06
3.10062e+06
3.13575e+06
3.12528e+06
3.12697e+06
3.27184e+06
3.48691e+06
3.55309e+06
3.54305e+06
3.40996e+06
3.21672e+06
3.11519e+06
3.10626e+06
3.10116e+06
3.10182e+06
3.10126e+06
3.1012e+06
3.1011e+06
3.10052e+06
3.10054e+06
3.1005e+06
3.10054e+06
3.10063e+06
3.10068e+06
3.10066e+06
3.11338e+06
3.08661e+06
3.10216e+06
3.23137e+06
3.46102e+06
3.51565e+06
3.52652e+06
3.39043e+06
3.2073e+06
3.10647e+06
3.10242e+06
3.0981e+06
3.1e+06
3.09988e+06
3.10042e+06
3.1006e+06
3.10018e+06
3.10033e+06
3.10042e+06
3.1005e+06
3.10062e+06
3.10068e+06
3.10068e+06
3.22071e+06
3.20795e+06
3.202e+06
3.32943e+06
3.55724e+06
3.54984e+06
3.55502e+06
3.40314e+06
3.2173e+06
3.11149e+06
3.10674e+06
3.1008e+06
3.10167e+06
3.10069e+06
3.10095e+06
3.10087e+06
3.10027e+06
3.10034e+06
3.10044e+06
3.10049e+06
3.1006e+06
3.10068e+06
3.10069e+06
3.18118e+06
3.10857e+06
3.15146e+06
3.20307e+06
3.44205e+06
3.41567e+06
3.52158e+06
3.37139e+06
3.20507e+06
3.10024e+06
3.10256e+06
3.09803e+06
3.0999e+06
3.09934e+06
3.10033e+06
3.10051e+06
3.10001e+06
3.10017e+06
3.10036e+06
3.10045e+06
3.10058e+06
3.10066e+06
3.10069e+06
3.28889e+06
3.52888e+06
3.49309e+06
3.54559e+06
3.55136e+06
3.85516e+06
3.26333e+06
3.53047e+06
3.40637e+06
3.45827e+06
4.00012e+06
3.59704e+06
3.86054e+06
3.79292e+06
3.83969e+06
4.00115e+06
4.00084e+06
4.00083e+06
4.00113e+06
4.00171e+06
4.00174e+06
4.00166e+06
4.00167e+06
4.00178e+06
4.00194e+06
4.00189e+06
4.00187e+06
4.00189e+06
4.00193e+06
4.00262e+06
4.00202e+06
4.00201e+06
4.00291e+06
4.00201e+06
4.00199e+06
8.75328e+06
5.77418e+06
4.00169e+06
4.34697e+06
4.17952e+06
5.61618e+06
4.00241e+06
4.11016e+06
4.00202e+06
4.00202e+06
4.00218e+06
4.41961e+06
4.00239e+06
4.2307e+06
4.15536e+06
4.03127e+06
4.00195e+06
4.37173e+06
4.19669e+06
4.24989e+06
4.00206e+06
4.27954e+06
4.31744e+06
4.59506e+06
4.2955e+06
4.00203e+06
4.00217e+06
4.00202e+06
4.19689e+06
4.00233e+06
4.00204e+06
4.00206e+06
4.96338e+06
6.97294e+06
4.00942e+06
4.00207e+06
4.00208e+06
4.00235e+06
4.00233e+06
4.00201e+06
4.00211e+06
4.002e+06
4.002e+06
4.00204e+06
4.00199e+06
4.002e+06
4.002e+06
4.88015e+06
4.00208e+06
4.002e+06
4.00198e+06
4.00246e+06
4.00302e+06
4.00203e+06
4.00199e+06
4.00195e+06
4.00183e+06
4.00189e+06
4.002e+06
4.00201e+06
4.00333e+06
4.00401e+06
4.00265e+06
4.00151e+06
4.00127e+06
4.00314e+06
4.00293e+06
4.00237e+06
4.00289e+06
4.00329e+06
4.00193e+06
4.00275e+06
4.00224e+06
4.00077e+06
4.00065e+06
4.0025e+06
4.00317e+06
4.00267e+06
4.00027e+06
3.99966e+06
3.08835e+06
3.09119e+06
3.09105e+06
3.08972e+06
3.09102e+06
3.09638e+06
3.09774e+06
3.09826e+06
3.09845e+06
3.0985e+06
3.09889e+06
3.09927e+06
3.09963e+06
3.09965e+06
3.0997e+06
3.09978e+06
3.0998e+06
3.09417e+06
3.0934e+06
3.09043e+06
3.09031e+06
3.09547e+06
3.09702e+06
3.09718e+06
3.09866e+06
3.09907e+06
3.09911e+06
3.09934e+06
3.09961e+06
3.09974e+06
3.09992e+06
3.09981e+06
3.09983e+06
3.09984e+06
3.09988e+06
3.09527e+06
3.09463e+06
3.09214e+06
3.09284e+06
3.09673e+06
3.09842e+06
3.09816e+06
3.09892e+06
3.09924e+06
3.09985e+06
3.09991e+06
3.09978e+06
3.0998e+06
3.09998e+06
3.09983e+06
3.09987e+06
3.09988e+06
3.09989e+06
3.09995e+06
3.09593e+06
3.0952e+06
3.09396e+06
3.0942e+06
3.09769e+06
3.09939e+06
3.09877e+06
3.09938e+06
3.09951e+06
3.1003e+06
3.10028e+06
3.1001e+06
3.10004e+06
3.1001e+06
3.09992e+06
3.09995e+06
3.09992e+06
3.09993e+06
3.09997e+06
3.09796e+06
3.09851e+06
3.09699e+06
3.09798e+06
3.09738e+06
3.09957e+06
3.09941e+06
3.10042e+06
3.10026e+06
3.10078e+06
3.10066e+06
3.10056e+06
3.10039e+06
3.10029e+06
3.10004e+06
3.10004e+06
3.09999e+06
3.09997e+06
3.09999e+06
3.10388e+06
3.10392e+06
3.10342e+06
3.10047e+06
3.09433e+06
3.09582e+06
3.10101e+06
3.102e+06
3.10144e+06
3.1013e+06
3.10113e+06
3.10093e+06
3.10067e+06
3.10047e+06
3.10018e+06
3.10014e+06
3.10006e+06
3.10002e+06
3.10002e+06
3.11236e+06
3.11713e+06
3.11525e+06
3.11114e+06
3.09379e+06
3.09361e+06
3.09886e+06
3.10141e+06
3.10168e+06
3.10206e+06
3.10177e+06
3.10129e+06
3.10091e+06
3.10064e+06
3.10031e+06
3.10023e+06
3.10012e+06
3.10007e+06
3.10004e+06
3.04395e+06
3.03915e+06
3.04346e+06
3.06317e+06
3.07932e+06
3.0924e+06
3.09564e+06
3.09808e+06
3.10201e+06
3.10297e+06
3.10229e+06
3.10161e+06
3.10106e+06
3.10076e+06
3.1004e+06
3.10029e+06
3.10017e+06
3.1001e+06
3.10006e+06
2.99083e+06
2.80191e+06
2.75365e+06
2.86412e+06
3.04811e+06
3.10575e+06
3.09771e+06
3.09918e+06
3.10263e+06
3.10365e+06
3.1027e+06
3.1017e+06
3.10111e+06
3.10079e+06
3.10041e+06
3.1003e+06
3.10018e+06
3.10011e+06
3.10006e+06
2.70602e+06
2.69065e+06
2.68352e+06
2.81632e+06
3.03094e+06
3.10305e+06
3.09988e+06
3.1003e+06
3.10353e+06
3.10382e+06
3.10271e+06
3.10163e+06
3.10109e+06
3.10077e+06
3.10039e+06
3.10027e+06
3.10017e+06
3.10012e+06
3.10006e+06
2.69959e+06
2.69644e+06
2.6946e+06
2.82805e+06
3.03344e+06
3.10501e+06
3.10058e+06
3.10091e+06
3.10383e+06
3.10377e+06
3.10276e+06
3.10157e+06
3.10106e+06
3.10071e+06
3.10038e+06
3.10028e+06
3.10019e+06
3.10014e+06
3.10008e+06
2.70336e+06
2.69583e+06
2.6926e+06
2.8279e+06
3.04191e+06
3.11336e+06
3.09858e+06
3.09846e+06
3.10185e+06
3.10288e+06
3.10248e+06
3.10141e+06
3.10098e+06
3.10061e+06
3.10037e+06
3.10031e+06
3.10023e+06
3.10018e+06
3.10011e+06
3.10007e+06
3.10006e+06
3.10006e+06
3.10005e+06
2.69232e+06
2.68526e+06
2.67285e+06
2.78501e+06
2.97647e+06
3.05832e+06
3.0801e+06
3.09896e+06
3.10533e+06
3.10513e+06
3.10323e+06
3.10138e+06
3.1009e+06
3.10045e+06
3.10033e+06
3.1003e+06
3.10025e+06
3.10021e+06
3.10015e+06
3.10012e+06
3.10011e+06
3.1001e+06
3.10007e+06
2.73253e+06
2.72782e+06
2.72846e+06
2.74044e+06
2.75144e+06
2.85828e+06
3.04123e+06
3.10952e+06
3.11055e+06
3.10996e+06
3.10383e+06
3.10057e+06
3.10036e+06
3.10004e+06
3.10015e+06
3.10019e+06
3.1002e+06
3.10019e+06
3.10016e+06
3.10014e+06
3.10014e+06
3.10012e+06
3.10009e+06
2.72136e+06
2.71643e+06
2.70566e+06
2.69239e+06
2.67082e+06
2.76455e+06
2.95563e+06
3.0521e+06
3.08989e+06
3.10762e+06
3.10612e+06
3.10278e+06
3.10118e+06
3.10016e+06
3.10007e+06
3.10007e+06
3.10014e+06
3.10015e+06
3.10015e+06
3.10015e+06
3.10015e+06
3.10013e+06
3.10009e+06
2.70372e+06
2.69762e+06
2.69289e+06
2.69605e+06
2.70604e+06
2.72923e+06
2.75758e+06
2.86682e+06
3.04158e+06
3.11312e+06
3.11377e+06
3.10875e+06
3.10322e+06
3.10032e+06
3.09986e+06
3.09982e+06
3.10003e+06
3.1001e+06
3.10014e+06
3.10015e+06
3.10016e+06
3.10013e+06
3.10008e+06
2.68574e+06
2.62088e+06
2.59888e+06
2.62824e+06
2.68038e+06
2.69631e+06
2.69361e+06
2.81064e+06
3.017e+06
3.10789e+06
3.1149e+06
3.1107e+06
3.10403e+06
3.10052e+06
3.09984e+06
3.09973e+06
3.09998e+06
3.10007e+06
3.10013e+06
3.10016e+06
3.10016e+06
3.10013e+06
3.10008e+06
2.59131e+06
2.58168e+06
2.57342e+06
2.60929e+06
2.67085e+06
2.6921e+06
2.69856e+06
2.81425e+06
3.01402e+06
3.10565e+06
3.11361e+06
3.10997e+06
3.10375e+06
3.10038e+06
3.09977e+06
3.09968e+06
3.09997e+06
3.10006e+06
3.10013e+06
3.10016e+06
3.10017e+06
3.10013e+06
3.10007e+06
2.58679e+06
2.58089e+06
2.57357e+06
2.60985e+06
2.67093e+06
2.69216e+06
2.69953e+06
2.81553e+06
3.0135e+06
3.10486e+06
3.11293e+06
3.10955e+06
3.10357e+06
3.10029e+06
3.09975e+06
3.09967e+06
3.09998e+06
3.10007e+06
3.10015e+06
3.10017e+06
3.10017e+06
3.10014e+06
3.10007e+06
2.58705e+06
2.58023e+06
2.57287e+06
2.6106e+06
2.67442e+06
2.69485e+06
2.69872e+06
2.81466e+06
3.01287e+06
3.10436e+06
3.11251e+06
3.10928e+06
3.10344e+06
3.10022e+06
3.09974e+06
3.09969e+06
3.10001e+06
3.1001e+06
3.10015e+06
3.10017e+06
3.10016e+06
3.10013e+06
3.10006e+06
2.58265e+06
2.57559e+06
2.56575e+06
2.59662e+06
2.65408e+06
2.6773e+06
2.6927e+06
2.81429e+06
3.01304e+06
3.10419e+06
3.11234e+06
3.10907e+06
3.10333e+06
3.10015e+06
3.09969e+06
3.09966e+06
3.10001e+06
3.10011e+06
3.10017e+06
3.10018e+06
3.10016e+06
3.10012e+06
3.10005e+06
2.59423e+06
2.58944e+06
2.58483e+06
2.58241e+06
2.58161e+06
2.61275e+06
2.68209e+06
2.81851e+06
3.01367e+06
3.10416e+06
3.11229e+06
3.10896e+06
3.10337e+06
3.1002e+06
3.09969e+06
3.09965e+06
3.09998e+06
3.10009e+06
3.10015e+06
3.10016e+06
3.10014e+06
3.1001e+06
3.10003e+06
2.59086e+06
2.5862e+06
2.57662e+06
2.56703e+06
2.55718e+06
2.58375e+06
2.65514e+06
2.7997e+06
3.00637e+06
3.10256e+06
3.11211e+06
3.10892e+06
3.10337e+06
3.10018e+06
3.09967e+06
3.09964e+06
3.09997e+06
3.10008e+06
3.10014e+06
3.10015e+06
3.10013e+06
3.10008e+06
3.10001e+06
2.58877e+06
2.58373e+06
2.57715e+06
2.5718e+06
2.57107e+06
2.5739e+06
2.59161e+06
2.74026e+06
2.99211e+06
3.10448e+06
3.11341e+06
3.10959e+06
3.10362e+06
3.10027e+06
3.09976e+06
3.09971e+06
3.09999e+06
3.10008e+06
3.10011e+06
3.10011e+06
3.10009e+06
3.10005e+06
3.09999e+06
2.58543e+06
2.5708e+06
2.55921e+06
2.55983e+06
2.56461e+06
2.56343e+06
2.57175e+06
2.72277e+06
2.98483e+06
3.10278e+06
3.11317e+06
3.1096e+06
3.10364e+06
3.10025e+06
3.09974e+06
3.0997e+06
3.09997e+06
3.10007e+06
3.1001e+06
3.10009e+06
3.10006e+06
3.10002e+06
3.09997e+06
2.56826e+06
2.56326e+06
2.55474e+06
2.55638e+06
2.56242e+06
2.56249e+06
2.57364e+06
2.72436e+06
2.98422e+06
3.10227e+06
3.11294e+06
3.10952e+06
3.10363e+06
3.10022e+06
3.09971e+06
3.09966e+06
3.09992e+06
3.10003e+06
3.10005e+06
3.10005e+06
3.10002e+06
3.09999e+06
3.09994e+06
2.56763e+06
2.56314e+06
2.55435e+06
2.55627e+06
2.56287e+06
2.56292e+06
2.5744e+06
2.72488e+06
2.98413e+06
3.10217e+06
3.11285e+06
3.10947e+06
3.10361e+06
3.10017e+06
3.09966e+06
3.0996e+06
3.09986e+06
3.09998e+06
3.10001e+06
3.10001e+06
3.09998e+06
3.09996e+06
3.09991e+06
2.56705e+06
2.5626e+06
2.55414e+06
2.55675e+06
2.56366e+06
2.56356e+06
2.57466e+06
2.72499e+06
2.98402e+06
3.10211e+06
3.11272e+06
3.10935e+06
3.10354e+06
3.1001e+06
3.0996e+06
3.09954e+06
3.09981e+06
3.09993e+06
3.09996e+06
3.09996e+06
3.09995e+06
3.09993e+06
3.09989e+06
2.5656e+06
2.56045e+06
2.55126e+06
2.5521e+06
2.5598e+06
2.56018e+06
2.57325e+06
2.72479e+06
2.98413e+06
3.10218e+06
3.11264e+06
3.10925e+06
3.10344e+06
3.10002e+06
3.09953e+06
3.09946e+06
3.09974e+06
3.09987e+06
3.09991e+06
3.09992e+06
3.09991e+06
3.0999e+06
3.09987e+06
2.56557e+06
2.56202e+06
2.55457e+06
2.5489e+06
2.54496e+06
2.54685e+06
2.57009e+06
2.72563e+06
2.98508e+06
3.10319e+06
3.11271e+06
3.10914e+06
3.10332e+06
3.09993e+06
3.09942e+06
3.09936e+06
3.09964e+06
3.09979e+06
3.09985e+06
3.09987e+06
3.09988e+06
3.09987e+06
3.09986e+06
2.56305e+06
2.55663e+06
2.54979e+06
2.54238e+06
2.54057e+06
2.54189e+06
2.56456e+06
2.72138e+06
2.98333e+06
3.10254e+06
3.11245e+06
3.10907e+06
3.10317e+06
3.09979e+06
3.09929e+06
3.09925e+06
3.09955e+06
3.09972e+06
3.09979e+06
3.09983e+06
3.09985e+06
3.09985e+06
3.09984e+06
2.59121e+06
2.58836e+06
2.57838e+06
2.56333e+06
2.54993e+06
2.53986e+06
2.55183e+06
2.70952e+06
2.98028e+06
3.10295e+06
3.11341e+06
3.10987e+06
3.1032e+06
3.09966e+06
3.09914e+06
3.09913e+06
3.09944e+06
3.09964e+06
3.09973e+06
3.09978e+06
3.09981e+06
3.09983e+06
3.09983e+06
2.61183e+06
2.67519e+06
2.68445e+06
2.63498e+06
2.56221e+06
2.53289e+06
2.54689e+06
2.70522e+06
2.97835e+06
3.10214e+06
3.11308e+06
3.10969e+06
3.10297e+06
3.09944e+06
3.09895e+06
3.09897e+06
3.09931e+06
3.09955e+06
3.09967e+06
3.09975e+06
3.09979e+06
3.09982e+06
3.09983e+06
2.71868e+06
2.71894e+06
2.7109e+06
2.653e+06
2.5672e+06
2.53225e+06
2.54606e+06
2.70479e+06
2.97773e+06
3.10166e+06
3.11264e+06
3.1093e+06
3.10271e+06
3.09924e+06
3.09874e+06
3.0988e+06
3.09917e+06
3.09945e+06
3.0996e+06
3.0997e+06
3.09977e+06
3.09981e+06
3.09982e+06
2.72161e+06
2.71608e+06
2.7078e+06
2.64869e+06
2.56595e+06
2.53141e+06
2.54572e+06
2.70441e+06
2.97726e+06
3.10115e+06
3.11217e+06
3.10886e+06
3.10235e+06
3.09896e+06
3.09852e+06
3.09865e+06
3.09905e+06
3.09938e+06
3.09956e+06
3.09968e+06
3.09976e+06
3.09981e+06
3.09983e+06
2.71887e+06
2.71561e+06
2.70685e+06
2.64701e+06
2.56135e+06
2.5273e+06
2.54512e+06
2.70398e+06
2.97667e+06
3.10054e+06
3.11171e+06
3.10847e+06
3.10202e+06
3.09871e+06
3.09837e+06
3.09857e+06
3.09898e+06
3.09933e+06
3.09952e+06
3.09966e+06
3.09976e+06
3.09982e+06
3.09984e+06
2.72116e+06
2.71602e+06
2.71143e+06
2.65971e+06
2.58572e+06
2.54782e+06
2.55174e+06
2.70392e+06
2.97588e+06
3.09987e+06
3.11118e+06
3.10806e+06
3.10179e+06
3.09859e+06
3.09827e+06
3.09851e+06
3.09892e+06
3.09931e+06
3.09952e+06
3.09967e+06
3.09977e+06
3.09984e+06
3.09986e+06
2.69585e+06
2.69223e+06
2.68192e+06
2.67194e+06
2.66834e+06
2.62164e+06
2.56202e+06
2.69744e+06
2.97408e+06
3.09905e+06
3.11065e+06
3.10774e+06
3.10187e+06
3.09877e+06
3.09828e+06
3.09851e+06
3.0989e+06
3.09931e+06
3.09953e+06
3.09969e+06
3.09979e+06
3.09986e+06
3.09989e+06
2.6883e+06
2.67412e+06
2.67213e+06
2.67402e+06
2.69904e+06
2.6588e+06
2.59515e+06
2.71944e+06
2.9822e+06
3.10031e+06
3.11042e+06
3.10737e+06
3.10175e+06
3.09883e+06
3.09841e+06
3.09866e+06
3.09899e+06
3.09938e+06
3.09958e+06
3.09972e+06
3.09983e+06
3.0999e+06
3.09992e+06
2.83382e+06
2.8406e+06
2.82433e+06
2.76935e+06
2.71744e+06
2.67471e+06
2.66921e+06
2.78773e+06
2.9975e+06
3.09725e+06
3.10842e+06
3.10626e+06
3.10137e+06
3.09882e+06
3.09865e+06
3.09894e+06
3.09915e+06
3.09949e+06
3.09964e+06
3.09978e+06
3.09988e+06
3.09994e+06
3.09997e+06
2.95393e+06
3.32718e+06
3.42462e+06
3.17351e+06
2.79907e+06
2.66354e+06
2.68834e+06
2.80687e+06
3.00622e+06
3.09948e+06
3.10907e+06
3.10652e+06
3.10162e+06
3.09907e+06
3.09893e+06
3.09921e+06
3.09933e+06
3.09962e+06
3.09974e+06
3.09984e+06
3.09993e+06
3.1e+06
3.10002e+06
3.53916e+06
3.56638e+06
3.5765e+06
3.27671e+06
2.83538e+06
2.66902e+06
2.68417e+06
2.80385e+06
3.0063e+06
3.09989e+06
3.10929e+06
3.10664e+06
3.10178e+06
3.0992e+06
3.09904e+06
3.09932e+06
3.09942e+06
3.09971e+06
3.09981e+06
3.09991e+06
3.09999e+06
3.10006e+06
3.10007e+06
3.55646e+06
3.56136e+06
3.55846e+06
3.25893e+06
2.83401e+06
2.66933e+06
2.68625e+06
2.80562e+06
3.00838e+06
3.10159e+06
3.11049e+06
3.10762e+06
3.10248e+06
3.09968e+06
3.0994e+06
3.09959e+06
3.0996e+06
3.09985e+06
3.09992e+06
3.09999e+06
3.10006e+06
3.10012e+06
3.10013e+06
3.55292e+06
3.5622e+06
3.56208e+06
3.2577e+06
2.81366e+06
2.6496e+06
2.68674e+06
2.80754e+06
3.00996e+06
3.10205e+06
3.11062e+06
3.10778e+06
3.10255e+06
3.09973e+06
3.09949e+06
3.09971e+06
3.09968e+06
3.09993e+06
3.09999e+06
3.10006e+06
3.10013e+06
3.10018e+06
3.10019e+06
3.58203e+06
3.59377e+06
3.61152e+06
3.35713e+06
2.955e+06
2.7687e+06
2.73277e+06
2.81274e+06
3.00957e+06
3.10168e+06
3.11137e+06
3.10894e+06
3.10344e+06
3.10042e+06
3.09995e+06
3.10005e+06
3.0999e+06
3.1001e+06
3.10011e+06
3.10016e+06
3.10021e+06
3.10026e+06
3.10027e+06
3.50099e+06
3.50039e+06
3.48935e+06
3.44658e+06
3.41647e+06
3.17858e+06
2.80671e+06
2.78226e+06
3.00012e+06
3.09515e+06
3.10985e+06
3.10922e+06
3.10359e+06
3.10056e+06
3.09997e+06
3.10007e+06
3.09992e+06
3.10014e+06
3.10017e+06
3.10022e+06
3.10029e+06
3.10034e+06
3.10034e+06
3.53848e+06
3.55072e+06
3.55492e+06
3.5643e+06
3.59113e+06
3.37923e+06
2.99543e+06
2.91387e+06
3.05358e+06
3.10664e+06
3.11088e+06
3.10849e+06
3.10376e+06
3.10113e+06
3.10053e+06
3.10051e+06
3.1002e+06
3.10033e+06
3.1003e+06
3.10033e+06
3.10039e+06
3.10043e+06
3.10043e+06
3.43713e+06
3.43155e+06
3.43752e+06
3.45455e+06
3.47464e+06
3.44105e+06
3.39852e+06
3.28964e+06
3.14627e+06
3.09261e+06
3.09783e+06
3.09904e+06
3.10017e+06
3.10015e+06
3.10032e+06
3.10054e+06
3.10021e+06
3.10035e+06
3.10034e+06
3.10038e+06
3.10046e+06
3.10051e+06
3.1005e+06
3.39558e+06
3.2141e+06
3.16155e+06
3.28803e+06
3.47689e+06
3.5429e+06
3.54838e+06
3.42001e+06
3.20623e+06
3.10914e+06
3.10155e+06
3.09936e+06
3.10085e+06
3.10092e+06
3.101e+06
3.10103e+06
3.10051e+06
3.10054e+06
3.10047e+06
3.10048e+06
3.10055e+06
3.10059e+06
3.10057e+06
3.09177e+06
3.0712e+06
3.07096e+06
3.22074e+06
3.45307e+06
3.53159e+06
3.52752e+06
3.40163e+06
3.20657e+06
3.10809e+06
3.1006e+06
3.09783e+06
3.0997e+06
3.10006e+06
3.10047e+06
3.1007e+06
3.10032e+06
3.10044e+06
3.10044e+06
3.10049e+06
3.10059e+06
3.10064e+06
3.10062e+06
3.13575e+06
3.12528e+06
3.12697e+06
3.27184e+06
3.48691e+06
3.55309e+06
3.54305e+06
3.40997e+06
3.21672e+06
3.11519e+06
3.10626e+06
3.10116e+06
3.10182e+06
3.10126e+06
3.10121e+06
3.1011e+06
3.10052e+06
3.10054e+06
3.1005e+06
3.10054e+06
3.10063e+06
3.10068e+06
3.10066e+06
3.11338e+06
3.08661e+06
3.10216e+06
3.23136e+06
3.46102e+06
3.51565e+06
3.52652e+06
3.39044e+06
3.20729e+06
3.10646e+06
3.10242e+06
3.0981e+06
3.1e+06
3.09988e+06