/*--------------------------------*- C++ -*----------------------------------*\
| =========                 |                                                 |
| \\      /  F ield         | OpenFOAM: The Open Source CFD Toolbox           |
|  \\    /   O peration     | Version:  v2012                                 |
|   \\  /    A nd           | Website:  www.openfoam.com                      |
|    \\/     M anipulation  |                                                 |
\*---------------------------------------------------------------------------*/
FoamFile
{
    version     2.0;
    format      ascii;
    class       surfaceScalarField;
    location    "0.15";
    object      phi;
}
// * * * * * * * * * * * * * * * * * * * * * * * * * * * * * * * * * * * * * //

dimensions      [0 3 -1 0 0 0 0];
oriented        oriented;


internalField   nonuniform List<scalar> 
6347
(
8.44293e-14
-5.30158e-13
-1.65425e-15
2.06228e-13
-1.55969e-12
2.76896e-15
4.54024e-13
-3.06594e-12
2.12409e-15
6.17088e-13
-4.98955e-12
-3.05893e-14
1.31084e-12
-7.23726e-12
3.66525e-14
1.71114e-12
-9.88685e-12
1.49367e-15
2.40783e-12
-1.31613e-11
3.40935e-15
3.28598e-12
-1.68329e-11
4.04841e-14
4.04696e-12
-2.09327e-11
1.33642e-14
5.07102e-12
-2.55647e-11
2.1969e-14
6.20256e-12
-3.05651e-11
1.96251e-14
8.11874e-12
-3.60299e-11
1.07968e-13
9.74476e-12
-4.23538e-11
2.48193e-14
1.15479e-11
-4.8873e-11
1.91715e-14
1.38921e-11
-5.59469e-11
4.22148e-14
-6.36609e-11
-2.263e-14
2.04929e-14
-3.77229e-14
-6.79364e-18
9.00031e-14
-6.0399e-13
-4.78202e-16
2.45705e-13
-1.71298e-12
6.31127e-16
3.66679e-13
-3.28933e-12
-1.30184e-14
7.5779e-13
-5.24202e-12
1.71285e-14
1.25857e-12
-7.70142e-12
3.07213e-15
1.55752e-12
-1.05874e-11
-4.61444e-14
2.4917e-12
-1.38215e-11
3.30971e-14
3.47724e-12
-1.75746e-11
2.88111e-14
4.3644e-12
-2.19955e-11
-1.62866e-14
5.46798e-12
-2.67944e-11
-1.22861e-14
6.92569e-12
-3.18049e-11
2.69228e-14
8.27071e-12
-3.75508e-11
-1.32463e-14
1.06684e-11
-4.38114e-11
1.0504e-13
1.23996e-11
-5.06285e-11
1.1077e-15
1.47424e-11
-5.80517e-11
2.67784e-14
1.71538e-11
-6.59533e-11
1.25845e-14
-7.43079e-11
-9.64297e-15
2.06248e-14
-5.87933e-14
-9.02163e-17
1.02431e-13
-6.82159e-13
7.56361e-16
2.63326e-13
-1.86966e-12
9.00509e-16
4.79147e-13
-3.52555e-12
-3.85107e-15
8.50565e-13
-5.63144e-12
-1.66603e-15
1.399e-12
-8.18195e-12
7.64795e-15
1.75947e-12
-1.11665e-11
-2.60009e-14
2.63444e-12
-1.46074e-11
9.91552e-15
3.33048e-12
-1.85101e-11
-2.74819e-14
4.72877e-12
-2.30063e-11
4.40394e-14
6.19276e-12
-2.79538e-11
3.29182e-14
7.45417e-12
-3.33887e-11
-3.4151e-14
8.77535e-12
-3.93947e-11
-5.79301e-14
1.13654e-11
-4.57911e-11
6.91276e-14
1.30655e-11
-5.28432e-11
-5.45369e-14
1.56574e-11
-6.04553e-11
1.90695e-14
1.82791e-11
-6.85146e-11
5.91601e-15
2.09329e-11
-7.70908e-11
-1.33519e-14
-8.61474e-11
2.86737e-15
2.36528e-14
-8.16326e-14
-5.7162e-18
1.07864e-13
-7.6933e-13
-1.83228e-16
2.86822e-13
-2.04157e-12
1.28064e-15
5.05006e-13
-3.82311e-12
-1.01364e-14
8.95132e-13
-6.01948e-12
2.71685e-16
1.54046e-12
-8.772e-12
5.64096e-15
1.91877e-12
-1.17907e-11
-2.83193e-14
2.86181e-12
-1.55004e-11
6.92337e-15
3.37535e-12
-1.9587e-11
-6.5766e-14
5.03401e-12
-2.41902e-11
5.43814e-14
6.5739e-12
-2.93237e-11
1.97339e-14
7.9694e-12
-3.50574e-11
-2.99115e-14
9.50548e-12
-4.12834e-11
-3.94119e-14
1.2104e-11
-4.78911e-11
5.69083e-14
1.38767e-11
-5.51619e-11
-5.84521e-14
1.67401e-11
-6.29514e-11
3.84713e-14
1.94762e-11
-7.12545e-11
-5.61387e-16
2.23099e-11
-8.00491e-11
-1.37525e-14
-8.93174e-11
7.7523e-15
2.42603e-14
-1.06631e-13
-1.17419e-16
1.13895e-13
-8.62848e-13
-1.59242e-16
3.15154e-13
-2.23285e-12
1.70674e-15
7.95749e-13
-4.08432e-12
2.3566e-14
8.67423e-13
-6.41206e-12
-3.68094e-14
1.55541e-12
-9.198e-12
2.99901e-14
2.00788e-12
-1.25598e-11
-3.59806e-14
3.16612e-12
-1.64386e-11
2.6672e-14
3.80227e-12
-2.07208e-11
-5.70869e-14
5.46575e-12
-2.5419e-11
5.05966e-14
6.9216e-12
-3.08127e-11
-1.83825e-15
8.63488e-12
-3.6678e-11
1.05551e-14
1.03921e-11
-4.31332e-11
-1.03856e-14
1.29647e-11
-5.00381e-11
4.8903e-14
1.48559e-11
-5.75851e-11
-5.80357e-14
1.78903e-11
-6.56099e-11
4.00935e-14
2.07867e-11
-7.41655e-11
-2.22217e-15
2.38266e-11
-8.31999e-11
-1.25217e-14
-9.26927e-11
8.44817e-15
2.82846e-14
-1.33766e-13
6.35518e-17
1.29493e-13
-9.68913e-13
-5.07041e-16
3.49434e-13
-2.44992e-12
5.14887e-16
8.58877e-13
-4.49887e-12
1.08192e-14
1.16296e-12
-6.8381e-12
-1.42951e-14
1.47147e-12
-9.76145e-12
-2.9857e-14
2.44084e-12
-1.31864e-11
3.92392e-14
3.33814e-12
-1.73861e-11
-6.28922e-15
4.25e-12
-2.16894e-11
-8.39699e-15
5.6752e-12
-2.68535e-11
-4.16506e-16
7.36579e-12
-3.24892e-11
2.53676e-15
9.21887e-12
-3.85189e-11
1.4199e-15
1.11899e-11
-4.51756e-11
-8.24616e-15
1.38153e-11
-5.23848e-11
3.17288e-14
1.59123e-11
-6.01742e-11
-5.42278e-14
1.91168e-11
-6.84562e-11
3.83451e-14
2.21999e-11
-7.72663e-11
-2.67708e-15
2.54425e-11
-8.65344e-11
-1.04838e-14
-9.62382e-11
1.42799e-14
2.64326e-14
-1.60678e-13
-7.01227e-17
1.38936e-13
-1.08277e-12
5.95877e-17
4.02138e-13
-2.72347e-12
-1.04248e-15
1.46085e-12
-5.26485e-12
3.35165e-14
1.26344e-12
-6.94612e-12
-3.52564e-14
1.49259e-12
-1.02925e-11
-3.55415e-14
2.29417e-12
-1.40991e-11
-1.1674e-14
3.34807e-12
-1.82851e-11
1.86091e-14
4.34832e-12
-2.29903e-11
-3.5129e-14
6.15207e-12
-2.83943e-11
2.76494e-14
8.11338e-12
-3.41564e-11
3.24258e-14
9.93856e-12
-4.052e-11
-1.96907e-14
1.20174e-11
-4.73475e-11
-1.13995e-14
1.47791e-11
-5.48507e-11
3.31861e-14
1.70641e-11
-6.29151e-11
-5.02749e-14
2.04436e-11
-7.14705e-11
3.91217e-14
2.37301e-11
-8.05573e-11
-1.25448e-15
2.72134e-11
-9.00874e-11
-7.85782e-15
-1.00012e-10
1.43845e-14
3.66781e-14
-1.97169e-13
9.56263e-17
1.07574e-13
-1.15187e-12
9.27053e-16
-5.57978e-14
-2.48903e-12
1.02992e-14
-6.26256e-14
-4.97905e-12
3.30042e-14
-1.25224e-13
-7.10123e-12
-2.58734e-14
1.13983e-12
-1.17092e-11
-1.88306e-14
2.39737e-12
-1.53157e-11
8.04364e-16
3.51188e-12
-1.97137e-11
-3.82208e-14
5.34239e-12
-2.43106e-11
6.24276e-14
6.86364e-12
-2.98538e-11
1.17831e-14
8.76884e-12
-3.59852e-11
1.00793e-14
1.08159e-11
-4.25023e-11
9.60255e-15
1.28728e-11
-4.96401e-11
-2.58041e-14
1.58228e-11
-5.73845e-11
4.69145e-14
1.83008e-11
-6.58071e-11
-4.52536e-14
2.18709e-11
-7.46346e-11
4.36167e-14
2.53724e-11
-8.40203e-11
3.58543e-15
2.9118e-11
-9.38374e-11
-7.67907e-16
-1.0402e-10
1.13554e-14
4.1985e-14
-2.27526e-13
1.63397e-15
1.79124e-13
-1.30585e-12
-3.07589e-15
9.07516e-13
-3.21741e-12
-6.73779e-15
1.02901e-12
-6.03676e-12
-1.1531e-13
2.90535e-12
-7.99552e-12
1.30588e-13
3.30687e-12
-1.169e-11
4.15772e-14
2.77972e-12
-1.61368e-11
-1.55174e-13
3.99898e-12
-2.06332e-11
3.16801e-14
5.61651e-12
-2.58213e-11
1.782e-14
7.4539e-12
-3.14134e-11
3.20567e-14
9.64385e-12
-3.78651e-11
3.35867e-14
1.15971e-11
-4.47467e-11
-3.07679e-14
1.38082e-11
-5.22101e-11
-4.18235e-14
1.69193e-11
-6.02214e-11
3.00968e-14
1.96343e-11
-6.89772e-11
-4.97682e-14
2.3411e-11
-7.8079e-11
3.54402e-14
2.71251e-11
-8.77889e-11
-6.53612e-15
3.11752e-11
-9.78856e-11
-8.20032e-17
-1.08314e-10
6.97169e-15
4.52389e-14
-2.72738e-13
-2.62979e-17
2.02051e-13
-1.46471e-12
-3.98092e-16
4.82525e-13
-3.42557e-12
3.45384e-15
-3.44739e-13
-6.06029e-12
-1.04477e-13
1.65645e-12
-9.08947e-12
1.20187e-13
2.59002e-12
-1.28257e-11
-3.11088e-14
3.30611e-12
-1.70861e-11
-2.80015e-14
4.39947e-12
-2.19996e-11
-3.24935e-14
6.21098e-12
-2.74078e-11
2.83459e-14
7.71945e-12
-3.33789e-11
-5.22319e-14
1.02535e-11
-4.00991e-11
3.36357e-14
1.2483e-11
-4.72377e-11
-2.59084e-14
1.48459e-11
-5.51434e-11
-6.86706e-14
1.7933e-11
-6.34484e-11
-1.98165e-14
2.09468e-11
-7.24331e-11
-4.99163e-14
2.50011e-11
-8.18505e-11
3.10291e-14
2.89899e-11
-9.18758e-11
-1.09731e-14
3.33993e-11
-1.02235e-10
6.32052e-15
-1.12932e-10
-2.36994e-15
3.96151e-14
-3.12164e-13
1.49805e-17
1.80815e-13
-1.61512e-12
-1.17846e-15
5.00198e-13
-3.67537e-12
3.27341e-15
1.80219e-13
-6.38858e-12
-8.08208e-14
1.77927e-12
-9.97955e-12
9.77843e-14
2.9263e-12
-1.41615e-11
-2.83906e-14
3.53246e-12
-1.80568e-11
-4.30269e-14
4.83919e-12
-2.30474e-11
2.80016e-14
6.92632e-12
-2.8648e-11
9.89382e-14
8.31557e-12
-3.51343e-11
-4.20965e-14
1.12305e-11
-4.22738e-11
8.25489e-14
1.34896e-11
-4.98192e-11
-3.10681e-14
1.61651e-11
-5.82318e-11
-5.13841e-14
1.93445e-11
-6.68798e-11
-3.14448e-14
2.2634e-11
-7.60994e-11
-4.20152e-14
2.68961e-11
-8.58481e-11
2.9954e-14
3.11207e-11
-9.62286e-11
-1.23894e-14
3.58593e-11
-1.06832e-10
1.57782e-14
-1.17765e-10
1.70678e-15
4.58328e-14
-3.5825e-13
-4.27168e-17
2.04199e-13
-1.77755e-12
-5.7699e-16
5.02163e-13
-3.93379e-12
-4.15463e-16
-1.73658e-13
-6.42678e-12
-8.7752e-14
1.9001e-12
-1.13112e-11
1.01664e-13
4.81924e-12
-1.66866e-11
3.52614e-14
3.93028e-12
-1.81928e-11
-1.14816e-13
5.19089e-12
-2.51349e-11
-9.47995e-14
7.04412e-12
-3.0755e-11
-2.38265e-14
8.77442e-12
-3.68706e-11
3.49771e-15
1.20387e-11
-4.51884e-11
3.69833e-14
1.42017e-11
-5.28031e-11
-9.00097e-14
1.74713e-11
-6.15925e-11
-1.40592e-14
2.09019e-11
-7.0567e-11
-2.81033e-14
2.4427e-11
-8.0153e-11
-6.12405e-14
2.87616e-11
-9.02364e-11
-9.08018e-15
3.33395e-11
-1.00851e-10
-4.38526e-15
3.84616e-11
-1.11743e-10
2.33752e-14
4.36113e-11
-1.22907e-10
2.01854e-15
4.89384e-11
-1.34213e-10
-1.91602e-16
5.43823e-11
-1.45624e-10
-5.6401e-16
5.99743e-11
-1.56974e-10
9.52669e-15
-1.68219e-10
2.02849e-15
5.20625e-14
-4.11523e-13
-9.02903e-17
2.8264e-13
-2.00681e-12
8.19355e-17
9.83032e-13
-4.58545e-12
9.73656e-16
8.69611e-13
-6.97656e-12
-7.9118e-14
1.01866e-12
-1.03911e-11
1.46864e-13
-7.53415e-13
-1.49492e-11
-1.10995e-14
-5.04163e-13
-1.82639e-11
1.86331e-14
4.64084e-12
-2.89881e-11
1.48848e-13
8.46148e-12
-3.21459e-11
2.88218e-13
1.05806e-11
-3.86417e-11
5.30583e-14
1.3788e-11
-4.74749e-11
1.01017e-13
1.55964e-11
-5.50168e-11
-4.37987e-14
1.92615e-11
-6.46449e-11
6.22544e-14
2.26161e-11
-7.41805e-11
-2.58094e-14
2.65264e-11
-8.42981e-11
-2.92778e-14
3.10837e-11
-9.47772e-11
-3.62679e-16
3.60169e-11
-1.057e-10
1.16226e-14
4.14349e-11
-1.16881e-10
3.26422e-14
4.68357e-11
-1.28268e-10
5.66835e-15
5.24052e-11
-1.39777e-10
5.11075e-16
5.81272e-11
-1.51308e-10
3.46608e-15
6.39444e-11
-1.62719e-10
7.68411e-15
-1.73941e-10
8.29524e-15
5.33798e-14
-4.65916e-13
-1.04872e-16
2.08853e-13
-2.16769e-12
-5.1774e-16
3.34409e-13
-4.67012e-12
4.50573e-15
9.33688e-13
-7.52648e-12
-9.53632e-16
2.95438e-12
-1.26037e-11
-4.5591e-14
2.75983e-12
-1.71384e-11
-2.78096e-13
9.86919e-12
-2.3354e-11
2.66256e-13
1.27913e-11
-3.35575e-11
-2.03254e-13
9.44442e-12
-3.08181e-11
-2.20815e-13
8.50843e-12
-4.06677e-11
-3.74447e-13
1.18288e-11
-4.9544e-11
1.53738e-13
1.55531e-11
-5.78723e-11
1.18478e-13
2.03808e-11
-6.90497e-11
4.02296e-14
2.42596e-11
-7.86038e-11
-5.66083e-14
2.87839e-11
-8.89387e-11
-1.64798e-14
3.35539e-11
-9.96156e-11
-8.40698e-15
3.88823e-11
-1.10827e-10
2.53447e-14
4.45863e-11
-1.22278e-10
3.69789e-14
5.03287e-11
-1.33904e-10
1.28845e-14
5.62154e-11
-1.45608e-10
6.27769e-15
6.22385e-11
-1.5725e-10
8.85537e-15
6.82937e-11
-1.68708e-10
7.64007e-15
-1.79884e-10
9.46685e-15
6.21132e-14
-5.28009e-13
-9.30387e-17
3.15079e-13
-2.41132e-12
1.16531e-15
8.82679e-13
-5.25876e-12
-2.62794e-15
2.465e-12
-9.14314e-12
-7.57102e-15
4.04434e-12
-1.40869e-11
-2.56534e-15
1.00708e-12
-1.68322e-11
-3.02947e-13
2.91573e-12
-2.21351e-11
4.03552e-13
8.85123e-13
-2.83713e-11
3.4042e-13
1.52111e-12
-2.91595e-11
2.64195e-13
6.14867e-12
-4.84438e-11
-3.81869e-13
1.31092e-11
-5.39144e-11
3.11673e-13
1.82729e-11
-6.17603e-11
1.79645e-13
2.29967e-11
-7.35432e-11
2.75376e-14
2.69816e-11
-8.25776e-11
7.07261e-15
3.1558e-11
-9.33401e-11
1.52584e-14
3.63217e-11
-1.04398e-10
-3.20323e-15
4.20566e-11
-1.16131e-10
5.06994e-14
4.80472e-11
-1.27956e-10
3.87466e-14
5.41078e-11
-1.39898e-10
9.77363e-15
6.02926e-11
-1.5178e-10
2.6454e-15
6.65974e-11
-1.63492e-10
7.11089e-15
7.28994e-11
-1.74939e-10
8.05756e-15
-1.86013e-10
1.40705e-14
6.80894e-14
-5.97619e-13
-1.73138e-16
3.07065e-13
-2.63675e-12
1.62373e-15
5.83896e-13
-5.53554e-12
1.07987e-16
6.60566e-13
-9.42884e-12
-2.32387e-14
3.82013e-13
-1.34407e-11
3.88739e-14
1.57508e-12
-1.79783e-11
-2.57982e-14
7.60312e-12
-2.82085e-11
-5.3327e-14
1.15925e-11
-3.76499e-11
-5.67459e-13
1.99811e-11
-3.57592e-11
2.65329e-13
1.79458e-11
-4.69338e-11
-1.25319e-13
1.80464e-11
-5.55886e-11
-1.66237e-13
1.69763e-11
-6.50796e-11
-5.49523e-13
2.18495e-11
-7.71654e-11
1.45493e-13
2.82423e-11
-8.76879e-11
1.64749e-13
3.36394e-11
-9.88559e-11
-1.76952e-14
3.88202e-11
-1.10287e-10
-8.026e-14
4.52962e-11
-1.22154e-10
5.0469e-14
5.16675e-11
-1.34147e-10
2.45974e-14
5.8176e-11
-1.46224e-10
2.11342e-14
6.47334e-11
-1.58226e-10
1.28078e-14
7.13395e-11
-1.69996e-10
1.13168e-14
7.78853e-11
-1.81423e-10
6.85733e-15
-1.92382e-10
1.04858e-14
7.56776e-14
-6.72143e-13
4.17337e-16
3.43289e-13
-2.91116e-12
-9.69041e-16
1.02158e-12
-6.19083e-12
3.98461e-16
1.82137e-12
-1.04259e-11
-2.72257e-14
3.34628e-12
-1.49583e-11
7.04137e-15
6.19667e-12
-2.06882e-11
-1.7359e-15
5.92033e-12
-2.81626e-11
-6.21486e-14
1.63823e-12
-3.58438e-11
-2.50225e-13
1.14728e-11
-4.2009e-11
4.56195e-13
1.46026e-11
-5.06412e-11
-1.22422e-13
1.87409e-11
-5.99129e-11
-5.95056e-15
1.95915e-11
-6.99634e-11
-4.99574e-13
2.45983e-11
-8.12815e-11
1.16197e-13
3.1392e-11
-9.25994e-11
2.35269e-13
3.69098e-11
-1.04227e-10
1.11525e-14
4.2157e-11
-1.16153e-10
-7.13318e-14
4.90952e-11
-1.28364e-10
8.05724e-14
5.57688e-11
-1.40627e-10
2.71047e-14
6.26234e-11
-1.52902e-10
2.1255e-14
6.95032e-11
-1.65004e-10
1.24146e-14
7.63908e-11
-1.76788e-10
1.04404e-14
8.31783e-11
-1.88144e-10
7.14602e-15
-1.98928e-10
1.31984e-14
8.53549e-14
-7.58388e-13
9.85635e-17
3.8383e-13
-3.21538e-12
-7.29718e-16
9.73025e-13
-6.73414e-12
3.34569e-15
1.50728e-12
-1.11697e-11
-2.64381e-14
3.06682e-12
-1.64372e-11
1.35521e-14
4.94955e-12
-2.25357e-11
-1.23881e-14
6.89341e-12
-2.95876e-11
2.16832e-14
5.40044e-12
-3.74057e-11
-3.27317e-13
1.23524e-11
-4.54946e-11
4.52897e-13
1.5425e-11
-5.45579e-11
-1.54474e-13
1.9926e-11
-6.43034e-11
3.41826e-14
2.08322e-11
-7.49083e-11
-4.93497e-13
2.67027e-11
-8.62588e-11
1.1602e-13
3.42007e-11
-9.79766e-11
2.64447e-13
4.02243e-11
-1.10053e-10
1.77859e-14
4.57621e-11
-1.22402e-10
-8.12022e-14
5.32019e-11
-1.34949e-10
9.5047e-14
6.02099e-11
-1.47484e-10
2.32499e-14
6.74578e-11
-1.59938e-10
2.5161e-14
7.46881e-11
-1.7213e-10
1.29244e-14
8.18607e-11
-1.83905e-10
6.64441e-15
8.88775e-11
-1.95154e-10
1.07694e-15
-2.05715e-10
7.33649e-15
9.23848e-14
-8.50841e-13
9.37578e-17
4.24064e-13
-3.54619e-12
2.2455e-17
1.06061e-12
-7.35433e-12
1.68764e-16
1.70489e-12
-1.21458e-11
-4.10949e-14
3.36593e-12
-1.78641e-11
3.19544e-14
5.26229e-12
-2.44851e-11
-2.20402e-14
7.48515e-12
-3.16129e-11
-1.35855e-14
7.07864e-12
-3.97624e-11
-2.91384e-13
1.37176e-11
-4.86513e-11
4.55894e-13
1.68796e-11
-5.8368e-11
-1.31481e-13
2.15139e-11
-6.86906e-11
4.96918e-14
2.27362e-11
-7.98209e-11
-4.54971e-13
2.92543e-11
-9.15383e-11
1.53164e-13
3.72135e-11
-1.03713e-10
2.77432e-13
4.37934e-11
-1.16239e-10
3.89998e-14
4.97271e-11
-1.29013e-10
-7.67911e-14
5.76843e-11
-1.41909e-10
1.11039e-13
6.50793e-11
-1.54704e-10
2.73893e-14
7.27025e-11
-1.67257e-10
3.48827e-14
8.02629e-11
-1.79479e-10
2.41445e-14
8.7706e-11
-1.91194e-10
1.63319e-14
9.49439e-11
-2.02272e-10
1.22969e-14
-2.12542e-10
1.99436e-14
1.02997e-13
-9.54541e-13
4.21488e-17
4.67711e-13
-3.90907e-12
2.32704e-16
1.14799e-12
-8.0192e-12
-2.52484e-16
1.79893e-12
-1.30557e-11
-3.19957e-14
3.75922e-12
-1.95328e-11
3.89562e-14
6.32041e-12
-2.6974e-11
-9.40878e-15
8.30321e-12
-3.36589e-11
-4.28782e-14
8.13361e-12
-4.28255e-11
-3.45408e-13
1.50661e-11
-5.23503e-11
4.27477e-13
1.85585e-11
-6.25278e-11
-1.33712e-13
2.34027e-11
-7.34784e-11
2.90816e-14
2.49827e-11
-8.50668e-11
-4.53443e-13
3.20723e-11
-9.72743e-11
1.67304e-13
4.05112e-11
-1.09942e-10
2.76583e-13
4.76306e-11
-1.22866e-10
5.02003e-14
5.40022e-11
-1.36023e-10
-7.24256e-14
6.24894e-11
-1.49211e-10
1.32342e-13
7.03702e-11
-1.62304e-10
3.89084e-14
7.83593e-11
-1.75106e-10
1.93899e-14
8.6271e-11
-1.87373e-10
4.86122e-15
9.39905e-11
-1.98945e-10
-2.39642e-15
1.01438e-10
-2.0975e-10
-2.97788e-15
-2.19626e-10
7.84444e-15
1.1597e-13
-1.0707e-12
1.5026e-16
5.40708e-13
-4.33122e-12
2.2905e-16
1.40974e-12
-8.88928e-12
-2.00051e-15
2.31028e-12
-1.42553e-11
-3.51049e-14
3.8777e-12
-2.06102e-11
6.52989e-14
5.07884e-12
-2.82408e-11
-2.62303e-14
7.68927e-12
-3.6088e-11
-1.56352e-14
9.05651e-12
-4.69621e-11
-2.90407e-13
1.67962e-11
-5.62957e-11
4.92084e-13
2.04532e-11
-6.7e-11
-1.49171e-13
2.57651e-11
-7.86131e-11
4.0937e-14
2.7617e-11
-9.08055e-11
-4.7726e-13
3.52569e-11
-1.03656e-10
1.56018e-13
4.42298e-11
-1.16855e-10
2.60317e-13
5.18475e-11
-1.30172e-10
2.9724e-14
5.87219e-11
-1.43685e-10
-8.88034e-14
6.76836e-11
-1.57099e-10
1.20672e-13
7.60308e-11
-1.70331e-10
4.47864e-14
8.44924e-11
-1.83083e-10
5.49912e-14
9.27843e-11
-1.9529e-10
4.20812e-14
1.00756e-10
-2.06742e-10
1.84722e-14
1.08383e-10
-2.17297e-10
7.72974e-15
-2.26762e-10
1.111e-14
1.28036e-13
-1.19936e-12
1.47007e-17
5.64285e-13
-4.76953e-12
-1.86293e-16
1.33677e-12
-9.63049e-12
3.71309e-15
2.52209e-12
-1.5532e-11
-1.39163e-14
4.87619e-12
-2.28881e-11
-1.84192e-15
6.51605e-12
-3.0999e-11
-1.41328e-13
1.17746e-11
-4.01295e-11
1.14817e-13
1.24261e-11
-5.13391e-11
-4.13819e-13
1.8953e-11
-5.91353e-11
4.86774e-13
2.24488e-11
-7.15731e-11
-1.80623e-13
2.82838e-11
-8.40929e-11
6.20065e-14
3.04256e-11
-9.69965e-11
-4.95328e-13
3.8801e-11
-1.10374e-10
2.01759e-13
4.84518e-11
-1.24061e-10
3.04575e-13
5.65172e-11
-1.37908e-10
3.2978e-14
6.39567e-11
-1.51838e-10
-8.14043e-14
7.33785e-11
-1.65538e-10
1.10696e-13
8.22675e-11
-1.78963e-10
3.63473e-14
9.11036e-11
-1.91821e-10
1.59651e-14
9.97383e-11
-2.03918e-10
4.3707e-15
1.07965e-10
-2.15091e-10
-1.16842e-14
1.1577e-10
-2.25224e-10
-1.27692e-14
-2.34122e-10
-3.26621e-15
1.43884e-13
-1.34416e-12
-6.10603e-17
6.72061e-13
-5.28148e-12
1.90425e-15
1.6612e-12
-1.06407e-11
-2.05771e-15
3.26798e-12
-1.73213e-11
-2.3222e-14
5.79029e-12
-2.51113e-11
2.78505e-14
6.75568e-12
-3.31993e-11
-1.49776e-13
1.0687e-11
-4.25668e-11
1.51477e-13
9.84792e-12
-5.32357e-11
-3.03509e-13
1.79595e-11
-6.26821e-11
5.84155e-13
2.35984e-11
-7.85319e-11
-2.04575e-13
3.09838e-11
-9.09976e-11
7.39674e-14
3.37866e-11
-1.04275e-10
-5.41961e-13
4.28296e-11
-1.18036e-10
1.69235e-13
5.30499e-11
-1.32159e-10
2.68944e-13
6.16642e-11
-1.46507e-10
-2.46962e-15
6.97333e-11
-1.60794e-10
-1.00534e-13
7.96148e-11
-1.74666e-10
8.54342e-14
8.90224e-11
-1.88101e-10
3.83138e-14
9.83034e-11
-2.00748e-10
4.07954e-14
1.07275e-10
-2.12596e-10
3.29817e-14
1.15728e-10
-2.23426e-10
1.22875e-14
1.23677e-10
-2.33073e-10
9.46204e-15
-2.4134e-10
1.42532e-14
1.61242e-13
-1.50638e-12
1.18438e-16
7.30969e-13
-5.84165e-12
1.57584e-15
1.73202e-12
-1.16433e-11
-1.72212e-16
2.99133e-12
-1.88524e-11
-3.31418e-14
5.08287e-12
-2.67736e-11
4.82501e-14
7.64338e-12
-3.60216e-11
-5.5834e-14
1.32138e-11
-4.76434e-11
4.14163e-16
1.44608e-11
-5.99877e-11
-5.92632e-13
2.56873e-11
-6.90558e-11
6.31765e-13
2.89544e-11
-8.29595e-11
-2.1259e-13
3.5516e-11
-9.68931e-11
1.07692e-13
3.81228e-11
-1.11246e-10
-5.32522e-13
4.74673e-11
-1.25882e-10
1.83633e-13
5.81238e-11
-1.40648e-10
2.73999e-13
6.74052e-11
-1.55408e-10
3.87656e-14
7.61984e-11
-1.7e-10
-4.72721e-14
8.6559e-11
-1.84109e-10
1.052e-13
9.65428e-11
-1.97643e-10
5.63568e-14
1.06134e-10
-2.10307e-10
9.13917e-15
1.15384e-10
-2.21886e-10
-1.22846e-15
1.24031e-10
-2.32213e-10
-1.42456e-14
1.32079e-10
-2.41193e-10
-7.69852e-15
-2.48657e-10
2.52947e-15
1.82275e-13
-1.68999e-12
-2.51266e-16
8.30378e-13
-6.48152e-12
3.33029e-17
2.05177e-12
-1.28734e-11
-1.74557e-15
3.88927e-12
-2.06773e-11
5.44373e-15
6.61338e-12
-2.94462e-11
5.3723e-15
9.95235e-12
-3.96994e-11
-6.18317e-14
1.40034e-11
-5.10507e-11
2.58304e-14
1.28712e-11
-6.35266e-11
-5.02801e-13
2.53323e-11
-7.59206e-11
7.14585e-13
3.07587e-11
-8.97814e-11
-2.36054e-13
3.88725e-11
-1.04306e-10
1.10057e-13
4.24318e-11
-1.19353e-10
-5.51824e-13
5.25786e-11
-1.34651e-10
1.68814e-13
6.38521e-11
-1.49991e-10
2.47485e-13
7.38078e-11
-1.65165e-10
1.83027e-14
8.3266e-11
-1.80008e-10
-6.158e-14
9.414e-11
-1.94223e-10
8.79372e-14
1.04635e-10
-2.0767e-10
6.01092e-14
1.14654e-10
-2.20044e-10
3.41051e-14
1.24195e-10
-2.31217e-10
2.39784e-14
1.32982e-10
-2.40995e-10
-2.93151e-17
1.41053e-10
-2.49256e-10
-2.45921e-16
-2.5584e-10
3.7882e-15
2.06958e-13
-1.89709e-12
-2.13897e-17
9.28224e-13
-7.20015e-12
2.18288e-16
2.25888e-12
-1.42052e-11
-1.21872e-15
4.24727e-12
-2.26649e-11
2.86247e-15
7.20594e-12
-3.23766e-11
2.67906e-15
1.0568e-11
-4.34213e-11
-6.21916e-14
1.5679e-11
-5.54446e-11
3.0935e-14
1.59927e-11
-6.86538e-11
-5.21615e-13
2.80878e-11
-8.24341e-11
7.16363e-13
3.39384e-11
-9.72014e-11
-2.56996e-13
4.28479e-11
-1.12508e-10
1.12142e-13
4.72122e-11
-1.28273e-10
-5.53462e-13
5.82735e-11
-1.44191e-10
1.85368e-13
7.02728e-11
-1.60056e-10
2.47481e-13
8.09626e-11
-1.75629e-10
2.12533e-14
9.10833e-11
-1.90684e-10
-6.29814e-14
1.02505e-10
-2.04956e-10
7.96427e-14
1.1352e-10
-2.18265e-10
5.37102e-14
1.23886e-10
-2.30334e-10
1.31491e-14
1.33662e-10
-2.40969e-10
4.6214e-15
1.42538e-10
-2.50013e-10
-1.51511e-14
1.50567e-10
-2.57372e-10
-1.01914e-14
-2.62908e-10
-3.83839e-15
2.35325e-13
-2.13272e-12
1.32415e-17
1.0583e-12
-8.01398e-12
8.19163e-16
2.55712e-12
-1.57218e-11
-3.58206e-15
4.78465e-12
-2.49734e-11
-6.25041e-15
8.13507e-12
-3.5572e-11
1.78561e-14
1.18749e-11
-4.75225e-11
-6.33795e-14
1.76264e-11
-6.04817e-11
3.24057e-14
1.87761e-11
-7.46404e-11
-5.23869e-13
3.13336e-11
-8.95013e-11
7.05747e-13
3.78963e-11
-1.05231e-10
-2.44471e-13
4.75817e-11
-1.21419e-10
1.18634e-13
5.27708e-11
-1.37952e-10
-5.45242e-13
6.47532e-11
-1.54546e-10
1.96308e-13
7.7507e-11
-1.70952e-10
2.39626e-13
8.89816e-11
-1.86899e-10
1.77718e-14
9.97513e-11
-2.02109e-10
-7.38144e-14
1.1173e-10
-2.16324e-10
7.0378e-14
1.23213e-10
-2.29334e-10
5.33374e-14
1.33919e-10
-2.40877e-10
2.11619e-14
1.43876e-10
-2.50815e-10
1.32217e-14
1.52771e-10
-2.58987e-10
-8.99184e-15
1.60668e-10
-2.65306e-10
-5.1509e-15
-2.69662e-10
-1.93014e-15
2.66679e-13
-2.39987e-12
-3.76025e-17
1.19372e-12
-8.93338e-12
5.38688e-16
2.88071e-12
-1.74218e-11
-2.85424e-15
5.39717e-12
-2.74973e-11
2.61323e-15
9.16876e-12
-3.921e-11
1.481e-14
1.34621e-11
-5.22563e-11
-7.26909e-14
1.9819e-11
-6.60407e-11
4.23242e-14
2.17231e-11
-8.13639e-11
-5.22138e-13
3.49322e-11
-9.73845e-11
6.88176e-13
4.2411e-11
-1.14077e-10
-2.34876e-13
5.29375e-11
-1.31245e-10
1.11713e-13
5.90661e-11
-1.48555e-10
-5.44814e-13
7.20001e-11
-1.65813e-10
2.01835e-13
8.55921e-11
-1.82703e-10
2.36838e-13
9.79107e-11
-1.98922e-10
2.83055e-14
1.09361e-10
-2.14178e-10
-7.01494e-14
1.21907e-10
-2.28217e-10
7.51915e-14
1.33842e-10
-2.40816e-10
5.70817e-14
1.44801e-10
-2.51741e-10
1.45722e-14
1.54853e-10
-2.60813e-10
7.04455e-15
1.63666e-10
-2.67914e-10
-1.27105e-14
1.71319e-10
-2.73001e-10
-5.73576e-15
-2.76002e-10
-1.49605e-15
3.08175e-13
-2.70783e-12
-5.79264e-17
1.37609e-12
-9.99027e-12
1.26966e-15
3.33079e-12
-1.93948e-11
-3.41555e-15
6.10834e-12
-3.04535e-11
-1.71883e-14
1.03492e-11
-4.31512e-11
3.55507e-14
1.49625e-11
-5.72694e-11
-7.08075e-14
2.19963e-11
-7.23184e-11
3.71375e-14
2.49421e-11
-8.91304e-11
-5.22541e-13
3.92233e-11
-1.06326e-10
6.86399e-13
4.77361e-11
-1.24211e-10
-2.62918e-13
5.9202e-11
-1.42127e-10
9.58443e-14
6.63307e-11
-1.60154e-10
-5.43686e-13
8.0229e-11
-1.78079e-10
1.96947e-13
9.47771e-11
-1.95393e-10
2.39581e-13
1.07936e-10
-2.11789e-10
2.74932e-14
1.20068e-10
-2.26962e-10
-7.34828e-14
1.33143e-10
-2.40663e-10
7.20204e-14
1.4545e-10
-2.52664e-10
5.8111e-14
1.56599e-10
-2.62746e-10
1.92417e-14
1.66643e-10
-2.70764e-10
1.10616e-14
1.7525e-10
-2.76623e-10
-1.14363e-14
1.8252e-10
-2.80311e-10
-5.33876e-15
-2.81799e-10
-2.61753e-15
3.5106e-13
-3.05953e-12
-1.22016e-16
1.56129e-12
-1.11902e-11
1.27817e-15
3.74806e-12
-2.15951e-11
-1.40939e-15
6.9287e-12
-3.37676e-11
-1.64808e-14
1.19314e-11
-4.78712e-11
2.8739e-14
1.75288e-11
-6.32108e-11
-5.07664e-14
2.54386e-11
-7.98643e-11
-9.41617e-15
2.8978e-11
-9.77583e-11
-5.58148e-13
4.40752e-11
-1.15525e-10
7.60984e-13
5.42655e-11
-1.34566e-10
-9.27444e-14
6.6282e-11
-1.53827e-10
6.75675e-14
7.44777e-11
-1.72847e-10
-5.50258e-13
8.93999e-11
-1.91373e-10
1.97391e-13
1.05039e-10
-2.09002e-10
2.57105e-13
1.19041e-10
-2.25483e-10
3.02927e-14
1.31879e-10
-2.40443e-10
-7.34255e-14
1.45445e-10
-2.53638e-10
6.79805e-14
1.58071e-10
-2.6485e-10
5.56377e-14
1.69312e-10
-2.73881e-10
1.54468e-14
1.79231e-10
-2.80606e-10
9.31312e-15
1.87494e-10
-2.84986e-10
-1.15143e-14
1.94225e-10
-2.87061e-10
-3.20361e-15
-2.86851e-10
-2.67384e-16
4.11753e-13
-3.47112e-12
1.4552e-16
1.80807e-12
-1.25854e-11
1.13837e-16
4.37512e-12
-2.41432e-11
1.89608e-15
7.89592e-12
-3.75182e-11
-2.63863e-14
1.37048e-11
-5.3313e-11
3.92228e-14
2.01231e-11
-6.97457e-11
-2.4993e-14
2.85692e-11
-8.79557e-11
-8.96558e-15
3.26592e-11
-1.07143e-10
-5.89211e-13
4.92833e-11
-1.26321e-10
7.49376e-13
6.09628e-11
-1.4724e-10
-1.85854e-13
7.43548e-11
-1.67677e-10
-2.57841e-14
8.41001e-11
-1.87451e-10
-5.91504e-13
1.00036e-10
-2.06067e-10
1.50445e-13
1.16738e-10
-2.23741e-10
2.49277e-13
1.31566e-10
-2.40095e-10
1.93323e-14
1.45072e-10
-2.54622e-10
-7.63472e-14
1.5903e-10
-2.67064e-10
6.11803e-14
1.71859e-10
-2.77223e-10
5.72938e-14
1.83037e-10
-2.84919e-10
1.85311e-14
1.92648e-10
-2.90119e-10
1.11697e-14
2.00375e-10
-2.92821e-10
-1.23186e-14
2.06375e-10
-2.93102e-10
-5.71495e-15
-2.9104e-10
-5.26022e-15
4.71684e-13
-3.94231e-12
-2.65737e-16
2.10497e-12
-1.42067e-11
1.02518e-15
5.18427e-12
-2.72518e-11
-4.47435e-15
9.65391e-12
-4.21207e-11
-1.38882e-14
1.60224e-11
-5.93837e-11
3.3207e-14
2.28739e-11
-7.71168e-11
-8.32288e-14
3.28871e-11
-9.73551e-11
1.65612e-14
3.90382e-11
-1.18193e-10
-5.17722e-13
5.71398e-11
-1.3875e-10
7.31119e-13
6.89696e-11
-1.60275e-10
-2.22453e-13
8.3945e-11
-1.81571e-10
1.64165e-13
9.56837e-11
-2.02071e-10
-3.58703e-13
1.12042e-10
-2.21538e-10
1.15151e-13
1.29714e-10
-2.39412e-10
2.50513e-13
1.45367e-10
-2.55479e-10
2.53748e-14
1.59538e-10
-2.69329e-10
-6.20071e-14
1.73808e-10
-2.8077e-10
6.51053e-14
1.8675e-10
-2.89638e-10
6.47659e-14
1.97688e-10
-2.95796e-10
1.08525e-14
2.06811e-10
-2.99204e-10
5.0222e-15
2.13809e-10
-2.99947e-10
-1.46575e-14
2.18875e-10
-2.9819e-10
-3.72202e-15
-2.94081e-10
-2.05094e-15
5.61279e-13
-4.5044e-12
-1.26899e-16
2.45051e-12
-1.60901e-11
1.86088e-15
5.68565e-12
-3.05248e-11
-1.49722e-15
1.06705e-11
-4.70711e-11
5.92258e-15
1.76535e-11
-6.61731e-11
1.45416e-14
2.60426e-11
-8.62341e-11
-1.0032e-13
3.77553e-11
-1.07779e-10
9.13476e-14
4.46727e-11
-1.30157e-10
-5.36743e-13
6.46547e-11
-1.52839e-10
7.53188e-13
7.82482e-11
-1.75524e-10
-2.71625e-13
9.49929e-11
-1.97723e-10
1.05118e-13
1.08376e-10
-2.18808e-10
-4.10761e-13
1.25926e-10
-2.38584e-10
6.79849e-14
1.44666e-10
-2.56328e-10
2.29964e-13
1.61044e-10
-2.71777e-10
3.22574e-15
1.75707e-10
-2.84633e-10
-7.38174e-14
1.90074e-10
-2.94713e-10
4.96448e-14
2.0289e-10
-3.01909e-10
6.67741e-14
2.13371e-10
-3.06124e-10
2.00713e-14
2.21741e-10
-3.07453e-10
1.33257e-14
2.27734e-10
-3.06028e-10
-1.0155e-14
2.31607e-10
-3.02066e-10
-1.4574e-15
-2.95781e-10
-2.58058e-15
6.48847e-13
-5.15244e-12
-2.37631e-16
2.84754e-12
-1.82727e-11
2.34339e-15
6.7875e-12
-3.45389e-11
-6.31905e-15
1.29967e-11
-5.31703e-11
1.54402e-14
2.09483e-11
-7.4019e-11
4.6589e-15
3.01561e-11
-9.6263e-11
-1.12262e-13
4.31883e-11
-1.19901e-10
4.83777e-14
5.1954e-11
-1.44045e-10
-5.47984e-13
7.34974e-11
-1.68442e-10
7.61406e-13
8.88511e-11
-1.92381e-10
-2.56449e-13
1.07311e-10
-2.15505e-10
1.15323e-13
1.22201e-10
-2.37082e-10
-4.15626e-13
1.41197e-10
-2.56827e-10
9.68295e-14
1.61159e-10
-2.74112e-10
2.69237e-13
1.78198e-10
-2.88738e-10
3.63473e-15
1.9329e-10
-3.00316e-10
-6.89006e-14
2.07599e-10
-3.08697e-10
3.81573e-14
2.20114e-10
-3.13884e-10
6.54076e-14
2.29873e-10
-3.15875e-10
5.21893e-15
2.37232e-10
-3.14792e-10
3.09123e-15
2.41966e-10
-3.10887e-10
-1.40703e-14
2.44389e-10
-3.04474e-10
6.38184e-16
-2.95843e-10
1.06058e-15
7.89373e-13
-5.94022e-12
-4.07267e-17
3.4186e-12
-2.08995e-11
7.7824e-16
8.14233e-12
-3.92888e-11
-1.04129e-15
1.52456e-11
-6.02301e-11
7.52843e-15
2.47016e-11
-8.32998e-11
1.28577e-14
3.55099e-11
-1.07789e-10
-9.96894e-14
5.04903e-11
-1.33844e-10
6.21033e-14
6.13081e-11
-1.60004e-10
-5.49311e-13
8.49011e-11
-1.86083e-10
7.61862e-13
1.02215e-10
-2.11318e-10
-2.69983e-13
1.22536e-10
-2.35271e-10
1.00315e-13
1.38995e-10
-2.57159e-10
-4.42937e-13
1.59294e-10
-2.7661e-10
6.88171e-14
1.80179e-10
-2.93095e-10
2.37764e-13
1.97698e-10
-3.06453e-10
-2.75348e-14
2.12959e-10
-3.16282e-10
-8.21308e-14
2.26842e-10
-3.22456e-10
1.57556e-14
2.38659e-10
-3.25159e-10
6.52295e-14
2.47322e-10
-3.24463e-10
1.1716e-14
2.53276e-10
-3.20663e-10
8.85599e-15
2.56376e-10
-3.14085e-10
-1.11625e-14
2.57015e-10
-3.05102e-10
1.82864e-17
-2.94074e-10
-4.10486e-15
9.23163e-13
-6.86228e-12
-1.11489e-16
4.0061e-12
-2.39732e-11
1.48253e-15
9.53979e-12
-4.48472e-11
-2.865e-16
1.79322e-11
-6.85623e-11
9.10124e-15
2.86877e-11
-9.39619e-11
2.81772e-15
4.07469e-11
-1.20717e-10
-1.17338e-13
5.83555e-11
-1.50327e-10
7.24413e-14
7.15287e-11
-1.78129e-10
-5.27639e-13
9.73514e-11
-2.05864e-10
7.72713e-13
1.16761e-10
-2.32376e-10
-2.73105e-13
1.3918e-10
-2.5688e-10
1.2997e-13
1.57396e-10
-2.78773e-10
-4.18249e-13
1.79029e-10
-2.97621e-10
8.02944e-14
2.00786e-10
-3.12901e-10
2.43681e-13
2.18744e-10
-3.24394e-10
-4.01701e-15
2.34094e-10
-3.31914e-10
-3.48842e-14
2.4726e-10
-3.35482e-10
1.81184e-14
2.58088e-10
-3.35324e-10
7.81537e-14
2.65275e-10
-3.31663e-10
3.0264e-15
2.69474e-10
-3.24844e-10
2.75516e-15
2.70616e-10
-3.15329e-10
-1.17628e-14
2.69173e-10
-3.03603e-10
4.99904e-15
-2.90099e-10
2.10351e-15
1.14199e-12
-8.002e-12
2.80865e-17
4.88438e-12
-2.77126e-11
8.85996e-16
1.1474e-11
-5.14327e-11
2.33921e-15
2.11416e-11
-7.83843e-11
-1.73589e-14
3.4888e-11
-1.07518e-10
1.16221e-14
5.11638e-11
-1.37656e-10
-9.2967e-14
7.08933e-11
-1.69122e-10
4.9481e-14
8.54691e-11
-1.97865e-10
-5.51963e-13
1.13626e-10
-2.28271e-10
7.3744e-13
1.355e-10
-2.56049e-10
-2.91631e-13
1.60078e-10
-2.80847e-10
1.06856e-13
1.79838e-10
-3.02359e-10
-4.67941e-13
2.02637e-10
-3.2017e-10
3.8742e-14
2.25058e-10
-3.3366e-10
2.10689e-13
2.42812e-10
-3.42548e-10
-5.01694e-14