/*--------------------------------*- C++ -*----------------------------------*\
| =========                 |                                                 |
| \\      /  F ield         | OpenFOAM: The Open Source CFD Toolbox           |
|  \\    /   O peration     | Version:  v2012                                 |
|   \\  /    A nd           | Website:  www.openfoam.com                      |
|    \\/     M anipulation  |                                                 |
\*---------------------------------------------------------------------------*/
FoamFile
{
    version     2.0;
    format      ascii;
    class       volScalarField;
    location    "0.3";
    object      p;
}
// * * * * * * * * * * * * * * * * * * * * * * * * * * * * * * * * * * * * * //

dimensions      [1 -1 -2 0 0 0 0];


internalField   nonuniform List<scalar> 
3332
(
3.4593e+06
3.44225e+06
3.45671e+06
3.44588e+06
3.45182e+06
3.44615e+06
3.44672e+06
3.44419e+06
3.45562e+06
3.44087e+06
3.45339e+06
3.4439e+06
3.44902e+06
3.4443e+06
3.44488e+06
3.44294e+06
3.4426e+06
3.44263e+06
3.44251e+06
3.44315e+06
3.44291e+06
3.44137e+06
3.4344e+06
3.45213e+06
3.44023e+06
3.45053e+06
3.44266e+06
3.44674e+06
3.44294e+06
3.44335e+06
3.44191e+06
3.44161e+06
3.4417e+06
3.44152e+06
3.44209e+06
3.44182e+06
3.44036e+06
3.43397e+06
3.44897e+06
3.43995e+06
3.44799e+06
3.44177e+06
3.44478e+06
3.44182e+06
3.442e+06
3.44097e+06
3.44066e+06
3.4408e+06
3.44056e+06
3.44108e+06
3.44079e+06
3.43938e+06
3.43359e+06
3.44602e+06
3.43971e+06
3.4456e+06
3.44098e+06
3.44299e+06
3.4408e+06
3.44073e+06
3.44004e+06
3.43969e+06
3.43985e+06
3.43958e+06
3.44005e+06
3.43978e+06
3.43839e+06
3.43322e+06
3.44322e+06
3.43954e+06
3.44332e+06
3.44019e+06
3.44127e+06
3.43977e+06
3.43947e+06
3.43904e+06
3.43865e+06
3.43882e+06
3.43855e+06
3.439e+06
3.43875e+06
3.43736e+06
3.43287e+06
3.44047e+06
3.43918e+06
3.44105e+06
3.43933e+06
3.43959e+06
3.4387e+06
3.43818e+06
3.43796e+06
3.43753e+06
3.4377e+06
3.43745e+06
3.4379e+06
3.43769e+06
3.43629e+06
3.43255e+06
3.43788e+06
3.43872e+06
3.43888e+06
3.43838e+06
3.43795e+06
3.43755e+06
3.43688e+06
3.43679e+06
3.43633e+06
3.4365e+06
3.4363e+06
3.43674e+06
3.4366e+06
3.43518e+06
3.43226e+06
3.43561e+06
3.43807e+06
3.43686e+06
3.43733e+06
3.43638e+06
3.43635e+06
3.43558e+06
3.43557e+06
3.43508e+06
3.43525e+06
3.43512e+06
3.43556e+06
3.43549e+06
3.43406e+06
3.43206e+06
3.43372e+06
3.43722e+06
3.43509e+06
3.43619e+06
3.43494e+06
3.43513e+06
3.43432e+06
3.43433e+06
3.43383e+06
3.43401e+06
3.43396e+06
3.43439e+06
3.43438e+06
3.43298e+06
3.43199e+06
3.4323e+06
3.43616e+06
3.43359e+06
3.43499e+06
3.43364e+06
3.43393e+06
3.43314e+06
3.43315e+06
3.43266e+06
3.43284e+06
3.43286e+06
3.43328e+06
3.43332e+06
3.43199e+06
3.43209e+06
3.43129e+06
3.43496e+06
3.43238e+06
3.43379e+06
3.4325e+06
3.4328e+06
3.43208e+06
3.43207e+06
3.43159e+06
3.43178e+06
3.43186e+06
3.43227e+06
3.43233e+06
3.43117e+06
3.43241e+06
3.43056e+06
3.43367e+06
3.43137e+06
3.43263e+06
3.43152e+06
3.43178e+06
3.43114e+06
3.43114e+06
3.43066e+06
3.43088e+06
3.43098e+06
3.43138e+06
3.43147e+06
3.43058e+06
3.43298e+06
3.42993e+06
3.43225e+06
3.43048e+06
3.43157e+06
3.4307e+06
3.43091e+06
3.43035e+06
3.43037e+06
3.42987e+06
3.43013e+06
3.43022e+06
3.43065e+06
3.43076e+06
3.43029e+06
3.43385e+06
3.42955e+06
3.4312e+06
3.42988e+06
3.43071e+06
3.43008e+06
3.43022e+06
3.42973e+06
3.42977e+06
3.42922e+06
3.42954e+06
3.42959e+06
3.4301e+06
3.43024e+06
3.4304e+06
3.43504e+06
3.42934e+06
3.43044e+06
3.42951e+06
3.4301e+06
3.42968e+06
3.42974e+06
3.42931e+06
3.42934e+06
3.42869e+06
3.42911e+06
3.42908e+06
3.42975e+06
3.42999e+06
3.43101e+06
3.43658e+06
3.42933e+06
3.43008e+06
3.42947e+06
3.42985e+06
3.4296e+06
3.42953e+06
3.42912e+06
3.42908e+06
3.42831e+06
3.42884e+06
3.42871e+06
3.42964e+06
3.43009e+06
3.43221e+06
3.43849e+06
3.429e+06
3.43006e+06
3.4298e+06
3.43003e+06
3.42992e+06
3.42965e+06
3.42926e+06
3.42904e+06
3.42814e+06
3.42876e+06
3.42856e+06
3.42984e+06
3.43072e+06
3.43412e+06
3.44079e+06
3.43001e+06
3.43085e+06
3.43077e+06
3.43075e+06
3.43075e+06
3.43021e+06
3.42983e+06
3.4293e+06
3.42834e+06
3.42894e+06
3.42882e+06
3.43047e+06
3.4321e+06
3.43676e+06
3.44347e+06
3.43188e+06
3.43241e+06
3.43243e+06
3.43215e+06
3.43222e+06
3.43136e+06
3.43099e+06
3.43001e+06
3.42909e+06
3.42951e+06
3.42974e+06
3.43178e+06
3.43447e+06
3.44012e+06
3.44651e+06
3.43465e+06
3.43481e+06
3.4349e+06
3.4344e+06
3.4345e+06
3.43327e+06
3.43293e+06
3.43138e+06
3.4307e+06
3.43061e+06
3.43157e+06
3.43403e+06
3.43796e+06
3.44408e+06
3.44987e+06
3.43789e+06
3.4377e+06
3.43816e+06
3.43763e+06
3.43772e+06
3.43615e+06
3.43581e+06
3.43364e+06
3.43333e+06
3.43247e+06
3.43451e+06
3.43746e+06
3.44254e+06
3.44851e+06
3.45348e+06
3.44296e+06
3.44244e+06
3.44276e+06
3.44206e+06
3.44204e+06
3.44017e+06
3.43982e+06
3.43701e+06
3.43722e+06
3.43537e+06
3.43863e+06
3.44209e+06
3.44799e+06
3.45321e+06
3.45724e+06
3.44927e+06
3.44845e+06
3.44853e+06
3.44774e+06
3.44756e+06
3.44552e+06
3.44516e+06
3.44164e+06
3.44259e+06
3.43969e+06
3.44398e+06
3.44783e+06
3.45398e+06
3.45804e+06
3.46105e+06
3.45663e+06
3.45578e+06
3.4555e+06
3.45471e+06
3.4543e+06
3.45223e+06
3.45177e+06
3.44804e+06
3.44955e+06
3.44576e+06
3.45056e+06
3.45444e+06
3.46021e+06
3.46287e+06
3.46484e+06
3.46305e+06
3.46374e+06
3.46335e+06
3.46281e+06
3.46218e+06
3.46028e+06
3.45978e+06
3.4561e+06
3.45815e+06
3.45372e+06
3.4584e+06
3.46167e+06
3.46648e+06
3.46762e+06
3.46853e+06
3.47212e+06
3.47297e+06
3.47214e+06
3.47183e+06
3.47097e+06
3.46947e+06
3.46899e+06
3.46569e+06
3.46832e+06
3.46343e+06
3.46738e+06
3.4693e+06
3.47272e+06
3.48161e+06
3.48246e+06
3.48129e+06
3.48134e+06
3.48034e+06
3.47946e+06
3.47901e+06
3.47653e+06
3.47959e+06
3.47424e+06
3.47682e+06
3.47693e+06
3.47869e+06
3.49108e+06
3.49196e+06
3.49052e+06
3.49089e+06
3.48987e+06
3.48972e+06
3.48931e+06
3.48809e+06
3.4909e+06
3.48601e+06
3.48702e+06
3.48505e+06
3.48447e+06
3.4991e+06
3.50057e+06
3.49925e+06
3.49999e+06
3.49911e+06
3.49977e+06
3.49953e+06
3.4999e+06
3.50196e+06
3.49891e+06
3.49836e+06
3.49371e+06
3.49017e+06
3.50712e+06
3.50835e+06
3.50711e+06
3.50813e+06
3.50752e+06
3.509e+06
3.50914e+06
3.51124e+06
3.5126e+06
3.51205e+06
3.50971e+06
3.50198e+06
3.49515e+06
3.51346e+06
3.51447e+06
3.51344e+06
3.51472e+06
3.51441e+06
3.51659e+06
3.51716e+06
3.52079e+06
3.52168e+06
3.52357e+06
3.51952e+06
3.50962e+06
3.49928e+06
3.51788e+06
3.51875e+06
3.51786e+06
3.51927e+06
3.51917e+06
3.52172e+06
3.52253e+06
3.52703e+06
3.52735e+06
3.53104e+06
3.5253e+06
3.51526e+06
3.50154e+06
3.52007e+06
3.52109e+06
3.52027e+06
3.52168e+06
3.52165e+06
3.52415e+06
3.52489e+06
3.52943e+06
3.52879e+06
3.53356e+06
3.52752e+06
3.5192e+06
3.50374e+06
3.5207e+06
3.5218e+06
3.52093e+06
3.5222e+06
3.52207e+06
3.52409e+06
3.52443e+06
3.52821e+06
3.52673e+06
3.53078e+06
3.52515e+06
3.51956e+06
3.50423e+06
3.52018e+06
3.52132e+06
3.52035e+06
3.52137e+06
3.52103e+06
3.52226e+06
3.52208e+06
3.52448e+06
3.52235e+06
3.52627e+06
3.52263e+06
3.52006e+06
3.50745e+06
3.51915e+06
3.52026e+06
3.51924e+06
3.51999e+06
3.51947e+06
3.5199e+06
3.51922e+06
3.5194e+06
3.51595e+06
3.51893e+06
3.51167e+06
3.5141e+06
3.5045e+06
3.51831e+06
3.51933e+06
3.5184e+06
3.51903e+06
3.51857e+06
3.51886e+06
3.51856e+06
3.51851e+06
3.51769e+06
3.51836e+06
3.51748e+06
3.51825e+06
3.51747e+06
3.51798e+06
3.51762e+06
3.51788e+06
3.51775e+06
3.51785e+06
3.51773e+06
3.51796e+06
3.51671e+06
3.51721e+06
3.51665e+06
3.51703e+06
3.5168e+06
3.51704e+06
3.51704e+06
3.51721e+06
3.51724e+06
3.51731e+06
3.51593e+06
3.51608e+06
3.51574e+06
3.51598e+06
3.51586e+06
3.5161e+06
3.51619e+06
3.5164e+06
3.51648e+06
3.51652e+06
3.51499e+06
3.51483e+06
3.51472e+06
3.51485e+06
3.51484e+06
3.51507e+06
3.51524e+06
3.51547e+06
3.51557e+06
3.51561e+06
3.51387e+06
3.51345e+06
3.51352e+06
3.51356e+06
3.51367e+06
3.5139e+06
3.51412e+06
3.51437e+06
3.51449e+06
3.51453e+06
3.51245e+06
3.51197e+06
3.51212e+06
3.51214e+06
3.51235e+06
3.51259e+06
3.51284e+06
3.51311e+06
3.51324e+06
3.51329e+06
3.51084e+06
3.51028e+06
3.51053e+06
3.51055e+06
3.51084e+06
3.51108e+06
3.51138e+06
3.51167e+06
3.51183e+06
3.51187e+06
3.50886e+06
3.50839e+06
3.50879e+06
3.50882e+06
3.50913e+06
3.50939e+06
3.50973e+06
3.51006e+06
3.51023e+06
3.51028e+06
3.50677e+06
3.50637e+06
3.5068e+06
3.50686e+06
3.50722e+06
3.5075e+06
3.5079e+06
3.50825e+06
3.50845e+06
3.5085e+06
3.50442e+06
3.50414e+06
3.5046e+06
3.50468e+06
3.50512e+06
3.5054e+06
3.50586e+06
3.50623e+06
3.50645e+06
3.50651e+06
3.50198e+06
3.50176e+06
3.50224e+06
3.50231e+06
3.50281e+06
3.50309e+06
3.5036e+06
3.50399e+06
3.50423e+06
3.50429e+06
3.4994e+06
3.49916e+06
3.49969e+06
3.49972e+06
3.5003e+06
3.50054e+06
3.5011e+06
3.50151e+06
3.50176e+06
3.50184e+06
3.49671e+06
3.49635e+06
3.49698e+06
3.49689e+06
3.49756e+06
3.49774e+06
3.49836e+06
3.49878e+06
3.49904e+06
3.49912e+06
3.49384e+06
3.49321e+06
3.49406e+06
3.4938e+06
3.49456e+06
3.49467e+06
3.49534e+06
3.49576e+06
3.49604e+06
3.49613e+06
3.49084e+06
3.48982e+06
3.4909e+06
3.49042e+06
3.49127e+06
3.49131e+06
3.492e+06
3.49243e+06
3.49271e+06
3.49281e+06
3.48756e+06
3.48605e+06
3.48741e+06
3.4867e+06
3.48764e+06
3.48761e+06
3.48831e+06
3.48876e+06
3.48903e+06
3.48915e+06
3.48392e+06
3.48195e+06
3.48356e+06
3.48263e+06
3.48363e+06
3.48356e+06
3.48425e+06
3.48473e+06
3.48499e+06
3.48513e+06
3.47972e+06
3.47741e+06
3.47922e+06
3.47816e+06
3.4792e+06
3.47911e+06
3.47976e+06
3.4803e+06
3.48055e+06
3.4807e+06
3.47493e+06
3.47246e+06
3.47434e+06
3.47324e+06
3.47425e+06
3.47421e+06
3.47483e+06
3.47543e+06
3.47568e+06
3.47585e+06
3.4694e+06
3.46703e+06
3.46883e+06
3.46783e+06
3.46876e+06
3.46882e+06
3.4694e+06
3.47009e+06
3.47034e+06
3.47052e+06
3.46309e+06
3.46111e+06
3.46267e+06
3.4619e+06
3.4627e+06
3.4629e+06
3.46344e+06
3.46423e+06
3.46448e+06
3.46468e+06
3.45597e+06
3.45467e+06
3.45582e+06
3.45539e+06
3.45604e+06
3.45641e+06
3.45691e+06
3.45779e+06
3.45805e+06
3.45828e+06
3.44814e+06
3.44767e+06
3.44833e+06
3.44831e+06
3.44877e+06
3.4493e+06
3.44977e+06
3.45073e+06
3.45101e+06
3.45125e+06
3.43973e+06
3.44013e+06
3.44025e+06
3.44066e+06
3.44089e+06
3.44154e+06
3.44198e+06
3.44298e+06
3.44327e+06
3.44353e+06
3.43074e+06
3.43208e+06
3.4316e+06
3.43239e+06
3.43242e+06
3.4331e+06
3.4335e+06
3.43447e+06
3.43477e+06
3.43506e+06
3.42143e+06
3.42357e+06
3.42255e+06
3.42357e+06
3.42342e+06
3.42398e+06
3.42431e+06
3.42511e+06
3.42541e+06
3.42573e+06
3.41213e+06
3.41479e+06
3.41331e+06
3.41433e+06
3.41396e+06
3.4142e+06
3.41439e+06
3.41483e+06
3.41509e+06
3.41545e+06
3.40315e+06
3.40599e+06
3.40417e+06
3.40491e+06
3.40426e+06
3.40386e+06
3.40377e+06
3.40353e+06
3.4037e+06
3.40409e+06
3.39512e+06
3.39772e+06
3.39565e+06
3.39573e+06
3.39464e+06
3.39322e+06
3.39252e+06
3.39111e+06
3.3911e+06
3.39153e+06
3.38886e+06
3.39086e+06
3.38853e+06
3.38755e+06
3.38571e+06
3.38268e+06
3.38084e+06
3.37748e+06
3.37711e+06
3.37753e+06
3.38574e+06
3.38678e+06
3.3841e+06
3.38163e+06
3.37849e+06
3.37312e+06
3.36924e+06
3.36268e+06
3.36166e+06
3.362e+06
3.38792e+06
3.38783e+06
3.38447e+06
3.38009e+06
3.37479e+06
3.36625e+06
3.35894e+06
3.3468e+06
3.34454e+06
3.34461e+06
3.39863e+06
3.39733e+06
3.39282e+06
3.38597e+06
3.37728e+06
3.36449e+06
3.35118e+06
3.33075e+06
3.32582e+06
3.32529e+06
3.42247e+06
3.42003e+06
3.41379e+06
3.4037e+06
3.39021e+06
3.37152e+06
3.34878e+06
3.31687e+06
3.30583e+06
3.30423e+06
3.46539e+06
3.46194e+06
3.4535e+06
3.43957e+06
3.42031e+06
3.39397e+06
3.35889e+06
3.31223e+06
3.28737e+06
3.28392e+06
3.53441e+06
3.53028e+06
3.51962e+06
3.50211e+06
3.47722e+06
3.44294e+06
3.39523e+06
3.32915e+06
3.27522e+06
3.26901e+06
3.634e+06
3.62964e+06
3.61736e+06
3.59701e+06
3.56694e+06
3.52512e+06
3.46405e+06
3.37168e+06
3.26979e+06
3.25956e+06
3.76446e+06
3.76008e+06
3.74641e+06
3.72351e+06
3.68929e+06
3.63904e+06
3.56088e+06
3.44731e+06
3.3125e+06
3.27332e+06
3.91686e+06
3.9144e+06
3.90519e+06
3.8892e+06
3.86469e+06
3.82265e+06
3.75497e+06
3.64515e+06
3.39586e+06
3.04603e+06
4.09004e+06
4.09019e+06
4.08852e+06
4.08648e+06
4.08481e+06
4.08127e+06
4.08339e+06
4.07964e+06
3.99939e+06
3.94897e+06
4.24029e+06
4.36815e+06
4.43007e+06
4.45929e+06
4.47555e+06
4.48473e+06
4.49035e+06
4.20079e+06
4.20154e+06
4.20186e+06
4.20289e+06
4.20477e+06
4.20754e+06
4.21491e+06
4.22529e+06
4.23723e+06
4.29214e+06
4.37926e+06
4.41771e+06
4.44871e+06
4.46675e+06
4.47873e+06
4.48621e+06
4.49108e+06
4.30352e+06
4.30456e+06
4.306e+06
4.30884e+06
4.31301e+06
4.31866e+06
4.32752e+06
4.33732e+06
4.347e+06
4.37275e+06
4.41143e+06
4.43868e+06
4.45902e+06
4.47247e+06
4.48165e+06
4.48776e+06
4.49188e+06
4.36192e+06
4.36294e+06
4.36467e+06
4.36782e+06
4.37227e+06
4.37834e+06
4.3865e+06
4.39679e+06
4.40972e+06
4.42661e+06
4.444e+06
4.45812e+06
4.4698e+06
4.47849e+06
4.48496e+06
4.48959e+06
4.49289e+06
4.40843e+06
4.40916e+06
4.41041e+06
4.41271e+06
4.41588e+06
4.42012e+06
4.42557e+06
4.43206e+06
4.43977e+06
4.44944e+06
4.45979e+06
4.46897e+06
4.47675e+06
4.4829e+06
4.48764e+06
4.4912e+06
4.49383e+06
4.43542e+06
4.43606e+06
4.43711e+06
4.43903e+06
4.44159e+06
4.44494e+06
4.44907e+06
4.45398e+06
4.45956e+06
4.46566e+06
4.47177e+06
4.47741e+06
4.48241e+06
4.48659e+06
4.48999e+06
4.49266e+06
4.49472e+06
4.45537e+06
4.45592e+06
4.45658e+06
4.45784e+06
4.4595e+06
4.46171e+06
4.46439e+06
4.46755e+06
4.47113e+06
4.47506e+06
4.47907e+06
4.48289e+06
4.48635e+06
4.48934e+06
4.49184e+06
4.49388e+06
4.4955e+06
4.46767e+06
4.46815e+06
4.46865e+06
4.4696e+06
4.47082e+06
4.47244e+06
4.47437e+06
4.47662e+06
4.4791e+06
4.48173e+06
4.4844e+06
4.48698e+06
4.48937e+06
4.49151e+06
4.49336e+06
4.49491e+06
4.49618e+06
4.47672e+06
4.47698e+06
4.47729e+06
4.47793e+06
4.47875e+06
4.47985e+06
4.48115e+06
4.48268e+06
4.48437e+06
4.48618e+06
4.48804e+06
4.48987e+06
4.49159e+06
4.49316e+06
4.49456e+06
4.49575e+06
4.49675e+06
4.48259e+06
4.48278e+06
4.48301e+06
4.48349e+06
4.48408e+06
4.48489e+06
4.48583e+06
4.48692e+06
4.48812e+06
4.48941e+06
4.49073e+06
4.49204e+06
4.49329e+06
4.49446e+06
4.49552e+06
4.49644e+06
4.49723e+06
4.48687e+06
4.48701e+06
4.48716e+06
4.4875e+06
4.48792e+06
4.48849e+06
4.48915e+06
4.48993e+06
4.49079e+06
4.49172e+06
4.49268e+06
4.49365e+06
4.49459e+06
4.49547e+06
4.49628e+06
4.49701e+06
4.49764e+06
4.49817e+06
4.49862e+06
4.48985e+06
4.48997e+06
4.49007e+06
4.49033e+06
4.49064e+06
4.49106e+06
4.49155e+06
4.49213e+06
4.49276e+06
4.49345e+06
4.49416e+06
4.49488e+06
4.49559e+06
4.49627e+06
4.4969e+06
4.49747e+06
4.49798e+06
4.49841e+06
4.49878e+06
4.49208e+06
4.49217e+06
4.49224e+06
4.49243e+06
4.49266e+06
4.49297e+06
4.49333e+06
4.49376e+06
4.49423e+06
4.49474e+06
4.49528e+06
4.49583e+06
4.49637e+06
4.4969e+06
4.49739e+06
4.49785e+06
4.49826e+06
4.49861e+06
4.49892e+06
4.4937e+06
4.49378e+06
4.49383e+06
4.49397e+06
4.49415e+06
4.49438e+06
4.49466e+06
4.49498e+06
4.49534e+06
4.49573e+06
4.49614e+06
4.49657e+06
4.49699e+06
4.4974e+06
4.4978e+06
4.49816e+06
4.49849e+06
4.49878e+06
4.49903e+06
4.49495e+06
4.49501e+06
4.49505e+06
4.49516e+06
4.49528e+06
4.49546e+06
4.49567e+06
4.49592e+06
4.4962e+06
4.4965e+06
4.49682e+06
4.49715e+06
4.49748e+06
4.49781e+06
4.49812e+06
4.49842e+06
4.49869e+06
4.49893e+06
4.49914e+06
4.49589e+06
4.49594e+06
4.49597e+06
4.49606e+06
4.49615e+06
4.49629e+06
4.49645e+06
4.49665e+06
4.49686e+06
4.4971e+06
4.49735e+06
4.49761e+06
4.49788e+06
4.49814e+06
4.49839e+06
4.49863e+06
4.49885e+06
4.49905e+06
4.49922e+06
4.49663e+06
4.49667e+06
4.49669e+06
4.49676e+06
4.49683e+06
4.49694e+06
4.49707e+06
4.49722e+06
4.49739e+06
4.49758e+06
4.49778e+06
4.49798e+06
4.49819e+06
4.4984e+06
4.49861e+06
4.4988e+06
4.49898e+06
4.49915e+06
4.49929e+06
4.4972e+06
4.49723e+06
4.49725e+06
4.4973e+06
4.49736e+06
4.49745e+06
4.49755e+06
4.49767e+06
4.49781e+06
4.49796e+06
4.49811e+06
4.49828e+06
4.49845e+06
4.49862e+06
4.49879e+06
4.49895e+06
4.4991e+06
4.49923e+06
4.49936e+06
4.49766e+06
4.49768e+06
4.49769e+06
4.49774e+06
4.49779e+06
4.49785e+06
4.49793e+06
4.49803e+06
4.49814e+06
4.49826e+06
4.49839e+06
4.49852e+06
4.49866e+06
4.4988e+06
4.49894e+06
4.49907e+06
4.49919e+06
4.49931e+06
4.49941e+06
4.49802e+06
4.49804e+06
4.49805e+06
4.49808e+06
4.49812e+06
4.49818e+06
4.49824e+06
4.49832e+06
4.49841e+06
4.49851e+06
4.49861e+06
4.49872e+06
4.49883e+06
4.49895e+06
4.49906e+06
4.49917e+06
4.49927e+06
4.49937e+06
4.49945e+06
4.49832e+06
4.49833e+06
4.49834e+06
4.49836e+06
4.49839e+06
4.49844e+06
4.49849e+06
4.49856e+06
4.49863e+06
4.49871e+06
4.49879e+06
4.49888e+06
4.49897e+06
4.49907e+06
4.49916e+06
4.49925e+06
4.49934e+06
4.49942e+06
4.49949e+06
4.49855e+06
4.49857e+06
4.49857e+06
4.49859e+06
4.49861e+06
4.49865e+06
4.49869e+06
4.49875e+06
4.4988e+06
4.49887e+06
4.49894e+06
4.49901e+06
4.49909e+06
4.49917e+06
4.49924e+06
4.49932e+06
4.49939e+06
4.49946e+06
4.49952e+06
4.49874e+06
4.49876e+06
4.49876e+06
4.49877e+06
4.49879e+06
4.49882e+06
4.49886e+06
4.4989e+06
4.49895e+06
4.499e+06
4.49906e+06
4.49912e+06
4.49918e+06
4.49925e+06
4.49931e+06
4.49938e+06
4.49944e+06
4.49949e+06
4.49954e+06
4.49889e+06
4.49891e+06
4.49891e+06
4.49892e+06
4.49894e+06
4.49896e+06
4.49899e+06
4.49903e+06
4.49907e+06
4.49911e+06
4.49916e+06
4.49921e+06
4.49926e+06
4.49932e+06
4.49937e+06
4.49942e+06
4.49947e+06
4.49952e+06
4.49956e+06
4.49902e+06
4.49903e+06
4.49903e+06
4.49905e+06
4.49906e+06
4.49908e+06
4.4991e+06
4.49913e+06
4.49917e+06
4.4992e+06
4.49924e+06
4.49928e+06
4.49933e+06
4.49937e+06
4.49942e+06
4.49946e+06
4.4995e+06
4.49954e+06
4.49958e+06
4.49912e+06
4.49914e+06
4.49914e+06
4.49915e+06
4.49916e+06
4.49917e+06
4.49919e+06
4.49922e+06
4.49925e+06
4.49928e+06
4.49931e+06
4.49934e+06
4.49938e+06
4.49942e+06
4.49945e+06
4.49949e+06
4.49953e+06
4.49956e+06
4.49959e+06
4.49921e+06
4.49922e+06
4.49922e+06
4.49923e+06
4.49924e+06
4.49925e+06
4.49927e+06
4.49929e+06
4.49931e+06
4.49934e+06
4.49936e+06
4.49939e+06
4.49942e+06
4.49945e+06
4.49949e+06
4.49952e+06
4.49955e+06
4.49957e+06
4.4996e+06
4.49928e+06
4.49929e+06
4.49929e+06
4.4993e+06
4.49931e+06
4.49932e+06
4.49933e+06
4.49935e+06
4.49937e+06
4.49939e+06
4.49941e+06
4.49943e+06
4.49946e+06
4.49948e+06
4.49951e+06
4.49954e+06
4.49956e+06
4.49958e+06
4.49961e+06
4.49934e+06
4.49934e+06
4.49935e+06
4.49935e+06
4.49936e+06
4.49937e+06
4.49938e+06
4.49939e+06
4.49941e+06
4.49943e+06
4.49945e+06
4.49947e+06
4.49949e+06
4.49951e+06
4.49953e+06
4.49955e+06
4.49957e+06
4.49959e+06
4.49961e+06
4.49938e+06
4.49939e+06
4.49939e+06
4.4994e+06
4.4994e+06
4.49941e+06
4.49942e+06
4.49943e+06
4.49945e+06
4.49946e+06
4.49948e+06
4.49949e+06
4.49951e+06
4.49953e+06
4.49955e+06
4.49956e+06
4.49958e+06
4.4996e+06
4.49961e+06
4.49942e+06
4.49943e+06
4.49943e+06
4.49944e+06
4.49944e+06
4.49945e+06
4.49945e+06
4.49946e+06
4.49947e+06
4.49949e+06
4.4995e+06
4.49951e+06
4.49953e+06
4.49954e+06
4.49956e+06
4.49957e+06
4.49959e+06
4.4996e+06
4.49961e+06
4.49946e+06
4.49946e+06
4.49946e+06
4.49947e+06
4.49947e+06
4.49947e+06
4.49948e+06
4.49949e+06
4.4995e+06
4.49951e+06
4.49952e+06
4.49953e+06
4.49954e+06
4.49955e+06
4.49957e+06
4.49958e+06
4.49959e+06
4.4996e+06
4.49961e+06
4.49948e+06
4.49949e+06
4.49949e+06
4.49949e+06
4.49949e+06
4.4995e+06
4.4995e+06
4.49951e+06
4.49952e+06
4.49952e+06
4.49953e+06
4.49954e+06
4.49955e+06
4.49956e+06
4.49957e+06
4.49958e+06
4.49959e+06
4.4996e+06
4.49961e+06
4.4995e+06
4.49951e+06
4.49951e+06
4.49951e+06
4.49951e+06
4.49952e+06
4.49952e+06
4.49953e+06
4.49953e+06
4.49954e+06
4.49955e+06
4.49955e+06
4.49956e+06
4.49957e+06
4.49958e+06
4.49959e+06
4.4996e+06
4.4996e+06
4.49961e+06
4.49952e+06
4.49952e+06
4.49952e+06
4.49953e+06
4.49953e+06
4.49953e+06
4.49953e+06
4.49954e+06
4.49954e+06
4.49955e+06
4.49956e+06
4.49956e+06
4.49957e+06
4.49958e+06
4.49958e+06
4.49959e+06
4.4996e+06
4.4996e+06
4.49961e+06
4.49954e+06
4.49954e+06
4.49954e+06
4.49954e+06
4.49954e+06
4.49954e+06
4.49955e+06
4.49955e+06
4.49955e+06
4.49956e+06
4.49956e+06
4.49957e+06
4.49957e+06
4.49958e+06
4.49958e+06
4.49959e+06
4.49959e+06
4.4996e+06
4.4996e+06
4.49955e+06
4.49955e+06
4.49955e+06
4.49955e+06
4.49955e+06
4.49955e+06
4.49956e+06
4.49956e+06
4.49956e+06
4.49957e+06
4.49957e+06
4.49957e+06
4.49958e+06
4.49958e+06
4.49959e+06
4.49959e+06
4.49959e+06
4.4996e+06
4.4996e+06
4.49956e+06
4.49956e+06
4.49956e+06
4.49956e+06
4.49956e+06
4.49957e+06
4.49957e+06
4.49957e+06
4.49957e+06
4.49957e+06
4.49957e+06
4.49958e+06
4.49958e+06
4.49958e+06
4.49958e+06
4.49959e+06
4.49959e+06
4.49959e+06
4.49959e+06
4.49957e+06
4.49957e+06
4.49957e+06
4.49957e+06
4.49957e+06
4.49957e+06
4.49957e+06
4.49957e+06
4.49957e+06
4.49958e+06
4.49958e+06
4.49958e+06
4.49958e+06
4.49958e+06
4.49958e+06
4.49959e+06
4.49959e+06
4.49959e+06
4.49959e+06
4.49959e+06
4.49958e+06
4.49958e+06
4.49958e+06
4.49958e+06
4.49958e+06
4.49959e+06
4.49959e+06
4.49959e+06
4.49959e+06
4.49959e+06
4.49959e+06
4.49959e+06
4.49959e+06
4.49959e+06
4.49959e+06
4.49959e+06
4.49959e+06
4.49959e+06
3.4593e+06
3.44225e+06
3.45671e+06
3.44588e+06
3.45182e+06
3.44615e+06
3.44672e+06
3.44419e+06
3.45562e+06
3.44087e+06
3.45339e+06
3.4439e+06
3.44902e+06
3.4443e+06
3.44488e+06
3.44294e+06
3.4426e+06
3.44263e+06
3.44251e+06
3.44315e+06
3.44291e+06
3.44137e+06
3.4344e+06
3.45213e+06
3.44023e+06
3.45053e+06
3.44266e+06
3.44674e+06
3.44294e+06
3.44335e+06
3.44191e+06
3.44161e+06
3.4417e+06
3.44152e+06
3.44209e+06
3.44182e+06
3.44036e+06
3.43397e+06
3.44897e+06
3.43995e+06
3.44799e+06
3.44177e+06
3.44478e+06
3.44182e+06
3.442e+06
3.44097e+06
3.44066e+06
3.4408e+06
3.44056e+06
3.44108e+06
3.44079e+06
3.43938e+06
3.43359e+06
3.44602e+06
3.43971e+06
3.4456e+06
3.44098e+06
3.44299e+06
3.4408e+06
3.44073e+06
3.44004e+06
3.43969e+06
3.43985e+06
3.43958e+06
3.44005e+06
3.43978e+06
3.43839e+06
3.43322e+06
3.44322e+06
3.43954e+06
3.44332e+06
3.44019e+06
3.44127e+06
3.43977e+06
3.43947e+06
3.43904e+06
3.43865e+06
3.43882e+06
3.43855e+06
3.439e+06
3.43875e+06
3.43736e+06
3.43287e+06
3.44047e+06
3.43918e+06
3.44105e+06
3.43933e+06
3.43959e+06
3.4387e+06
3.43818e+06
3.43796e+06
3.43753e+06
3.4377e+06
3.43745e+06
3.4379e+06
3.43769e+06
3.43629e+06
3.43255e+06
3.43788e+06
3.43872e+06
3.43888e+06
3.43838e+06
3.43795e+06
3.43755e+06
3.43688e+06
3.43679e+06
3.43633e+06
3.4365e+06
3.4363e+06
3.43674e+06
3.4366e+06
3.43518e+06
3.43226e+06
3.43561e+06
3.43807e+06
3.43686e+06
3.43733e+06
3.43638e+06
3.43635e+06
3.43558e+06
3.43557e+06
3.43508e+06
3.43525e+06
3.43512e+06
3.43556e+06
3.43549e+06
3.43406e+06
3.43206e+06
3.43372e+06
3.43722e+06
3.43509e+06
3.43619e+06
3.43494e+06
3.43513e+06
3.43432e+06
3.43433e+06
3.43383e+06
3.43401e+06
3.43396e+06
3.43439e+06
3.43438e+06
3.43298e+06
3.43199e+06
3.4323e+06
3.43616e+06
3.43359e+06
3.43499e+06
3.43364e+06
3.43393e+06
3.43314e+06
3.43315e+06
3.43266e+06
3.43284e+06
3.43286e+06
3.43328e+06
3.43332e+06
3.43199e+06
3.43209e+06
3.43129e+06
3.43496e+06
3.43238e+06
3.43379e+06
3.4325e+06
3.4328e+06
3.43208e+06
3.43207e+06
3.43159e+06
3.43178e+06
3.43186e+06
3.43227e+06
3.43233e+06
3.43117e+06
3.43241e+06
3.43056e+06
3.43367e+06
3.43137e+06
3.43263e+06
3.43152e+06
3.43178e+06
3.43114e+06
3.43114e+06
3.43066e+06
3.43088e+06
3.43098e+06
3.43138e+06
3.43147e+06
3.43058e+06
3.43298e+06
3.42993e+06
3.43225e+06
3.43048e+06
3.43157e+06
3.4307e+06
3.43091e+06
3.43035e+06
3.43037e+06
3.42987e+06
3.43013e+06
3.43022e+06
3.43065e+06
3.43076e+06
3.43029e+06
3.43385e+06
3.42955e+06
3.4312e+06
3.42988e+06
3.43071e+06
3.43008e+06
3.43022e+06
3.42973e+06
3.42977e+06
3.42922e+06
3.42954e+06
3.42959e+06
3.4301e+06
3.43024e+06
3.4304e+06
3.43504e+06
3.42934e+06
3.43044e+06
3.42951e+06
3.4301e+06
3.42968e+06
3.42974e+06
3.42931e+06
3.42934e+06
3.42869e+06
3.42911e+06
3.42908e+06
3.42975e+06
3.42999e+06
3.43101e+06
3.43658e+06
3.42933e+06
3.43008e+06
3.42947e+06
3.42985e+06
3.4296e+06
3.42953e+06
3.42912e+06
3.42908e+06
3.42831e+06
3.42884e+06
3.42871e+06
3.42964e+06
3.43009e+06
3.43221e+06
3.43849e+06
3.429e+06
3.43006e+06
3.4298e+06
3.43003e+06
3.42992e+06
3.42965e+06
3.42926e+06
3.42904e+06
3.42814e+06
3.42876e+06
3.42856e+06
3.42984e+06
3.43072e+06
3.43412e+06
3.44079e+06
3.43001e+06
3.43085e+06
3.43077e+06
3.43075e+06
3.43075e+06
3.43021e+06
3.42983e+06
3.4293e+06
3.42834e+06
3.42894e+06
3.42882e+06
3.43047e+06
3.4321e+06
3.43676e+06
3.44347e+06
3.43188e+06
3.43241e+06
3.43243e+06
3.43215e+06
3.43222e+06
3.43136e+06
3.43099e+06
3.43001e+06
3.42909e+06
3.42951e+06
3.42974e+06
3.43178e+06
3.43447e+06
3.44012e+06
3.44651e+06
3.43465e+06
3.43481e+06
3.4349e+06
3.4344e+06
3.4345e+06
3.43327e+06
3.43293e+06
3.43138e+06
3.4307e+06
3.43061e+06
3.43157e+06
3.43403e+06
3.43796e+06
3.44408e+06
3.44987e+06
3.43789e+06
3.4377e+06
3.43816e+06
3.43763e+06
3.43772e+06
3.43615e+06
3.43581e+06
3.43364e+06
3.43333e+06
3.43247e+06
3.43451e+06
3.43746e+06
3.44254e+06
3.44851e+06
3.45348e+06
3.44296e+06
3.44244e+06
3.44276e+06
3.44206e+06
3.44204e+06
3.44017e+06
3.43982e+06
3.43701e+06
3.43722e+06
3.43537e+06
3.43863e+06
3.44209e+06
3.44799e+06
3.45321e+06
3.45724e+06
3.44927e+06
3.44845e+06
3.44853e+06
3.44774e+06
3.44756e+06
3.44552e+06
3.44516e+06
3.44164e+06
3.44259e+06
3.43969e+06
3.44398e+06
3.44783e+06
3.45398e+06
3.45804e+06
3.46105e+06
3.45663e+06
3.45578e+06
3.4555e+06
3.45471e+06
3.4543e+06
3.45223e+06
3.45177e+06
3.44804e+06
3.44955e+06
3.44576e+06
3.45056e+06
3.45444e+06
3.46021e+06
3.46287e+06
3.46484e+06
3.46305e+06
3.46374e+06
3.46335e+06
3.46281e+06
3.46218e+06
3.46028e+06
3.45978e+06
3.4561e+06
3.45815e+06
3.45372e+06
3.4584e+06
3.46167e+06
3.46648e+06
3.46762e+06
3.46853e+06
3.47212e+06
3.47297e+06
3.47214e+06
3.47183e+06
3.47097e+06
3.46947e+06
3.46899e+06
3.46569e+06
3.46832e+06
3.46343e+06
3.46738e+06
3.4693e+06
3.47272e+06
3.48161e+06
3.48246e+06
3.48129e+06
3.48134e+06
3.48034e+06
3.47946e+06
3.47901e+06
3.47653e+06
3.4796e+06
3.47424e+06
3.47682e+06
3.47693e+06
3.47869e+06
3.49108e+06
3.49196e+06
3.49052e+06
3.49089e+06
3.48987e+06
3.48972e+06
3.48931e+06
3.48809e+06
3.4909e+06
3.48601e+06
3.48702e+06
3.48505e+06
3.48447e+06
3.4991e+06
3.50057e+06
3.49925e+06
3.49999e+06
3.49911e+06
3.49977e+06
3.49953e+06
3.4999e+06
3.50196e+06
3.49891e+06
3.49836e+06
3.49371e+06
3.49017e+06
3.50712e+06
3.50835e+06
3.50711e+06
3.50813e+06
3.50752e+06
3.509e+06
3.50914e+06
3.51124e+06
3.5126e+06
3.51205e+06
3.50971e+06
3.50198e+06
3.49515e+06
3.51346e+06
3.51447e+06
3.51344e+06
3.51472e+06
3.51441e+06
3.51659e+06
3.51716e+06
3.52079e+06
3.52168e+06
3.52357e+06
3.51952e+06
3.50962e+06
3.49928e+06
3.51788e+06
3.51875e+06
3.51786e+06
3.51927e+06
3.51917e+06
3.52172e+06
3.52253e+06
3.52703e+06
3.52735e+06
3.53104e+06
3.5253e+06
3.51526e+06
3.50154e+06
3.52007e+06
3.52109e+06
3.52027e+06
3.52168e+06
3.52165e+06
3.52415e+06
3.52489e+06
3.52943e+06
3.52879e+06
3.53356e+06
3.52752e+06
3.5192e+06
3.50374e+06
3.5207e+06
3.5218e+06
3.52093e+06
3.5222e+06
3.52207e+06
3.52409e+06
3.52443e+06
3.52821e+06
3.52673e+06
3.53078e+06
3.52515e+06
3.51956e+06
3.50423e+06
3.52018e+06
3.52132e+06
3.52035e+06
3.52137e+06
3.52103e+06
3.52226e+06
3.52208e+06
3.52448e+06
3.52235e+06
3.52627e+06
3.52263e+06
3.52006e+06
3.50745e+06
3.51915e+06
3.52026e+06
3.51924e+06
3.51999e+06
3.51947e+06
3.5199e+06
3.51922e+06
3.5194e+06
3.51595e+06
3.51893e+06
3.51167e+06
3.5141e+06
3.5045e+06
3.51831e+06
3.51933e+06
3.5184e+06
3.51903e+06
3.51857e+06
3.51886e+06
3.51856e+06
3.51851e+06
3.51769e+06
3.51836e+06
3.51748e+06
3.51825e+06
3.51747e+06
3.51798e+06
3.51762e+06
3.51788e+06
3.51775e+06
3.51785e+06
3.51773e+06
3.51796e+06
3.51671e+06
3.51721e+06
3.51665e+06
3.51703e+06
3.5168e+06
3.51704e+06
3.51704e+06
3.51721e+06
3.51724e+06
3.51731e+06
3.51593e+06
3.51608e+06
3.51574e+06
3.51598e+06
3.51586e+06
3.5161e+06
3.51619e+06
3.5164e+06
3.51648e+06
3.51652e+06
3.51499e+06
3.51483e+06
3.51472e+06
3.51485e+06
3.51484e+06
3.51507e+06
3.51524e+06
3.51547e+06
3.51557e+06
3.51561e+06
3.51387e+06
3.51345e+06
3.51352e+06
3.51356e+06
3.51367e+06
3.5139e+06
3.51412e+06
3.51437e+06
3.51449e+06
3.51453e+06
3.51245e+06
3.51197e+06
3.51212e+06
3.51214e+06
3.51235e+06
3.51259e+06
3.51284e+06
3.51311e+06
3.51324e+06
3.51329e+06
3.51084e+06
3.51028e+06
3.51053e+06
3.51055e+06
3.51084e+06
3.51108e+06
3.51138e+06
3.51167e+06
3.51183e+06
3.51187e+06
3.50886e+06
3.50839e+06
3.50879e+06
3.50882e+06
3.50913e+06
3.50939e+06
3.50973e+06
3.51006e+06
3.51023e+06
3.51028e+06
3.50677e+06
3.50637e+06
3.5068e+06
3.50686e+06
3.50722e+06
3.5075e+06
3.5079e+06
3.50825e+06
3.50845e+06
3.5085e+06
3.50442e+06
3.50414e+06
3.5046e+06
3.50468e+06
3.50512e+06
3.5054e+06
3.50586e+06
3.50623e+06
3.50645e+06
3.50651e+06
3.50198e+06
3.50176e+06
3.50224e+06
3.50231e+06
3.50281e+06
3.50309e+06
3.5036e+06
3.50399e+06
3.50423e+06
3.50429e+06
3.4994e+06
3.49916e+06
3.49969e+06
3.49972e+06
3.5003e+06
3.50054e+06
3.5011e+06
3.50151e+06
3.50176e+06
3.50184e+06
3.49671e+06
3.49635e+06
3.49698e+06
3.49689e+06
3.49756e+06
3.49774e+06
3.49836e+06
3.49878e+06
3.49904e+06
3.49912e+06
3.49384e+06
3.49321e+06
3.49406e+06
3.4938e+06
3.49456e+06
3.49467e+06
3.49534e+06
3.49576e+06
3.49604e+06
3.49613e+06
3.49084e+06
3.48982e+06
3.4909e+06
3.49042e+06
3.49127e+06
3.49131e+06
3.492e+06
3.49243e+06
3.49271e+06
3.49281e+06
3.48756e+06
3.48605e+06
3.48741e+06
3.4867e+06
3.48764e+06
3.48761e+06
3.48831e+06
3.48876e+06
3.48903e+06
3.48915e+06
3.48392e+06
3.48195e+06
3.48356e+06
3.48263e+06
3.48363e+06
3.48356e+06
3.48425e+06
3.48473e+06
3.48499e+06
3.48513e+06
3.47972e+06
3.47741e+06
3.47922e+06
3.47816e+06
3.4792e+06
3.47911e+06
3.47976e+06
3.4803e+06
3.48055e+06
3.4807e+06
3.47493e+06
3.47246e+06
3.47434e+06
3.47324e+06
3.47425e+06
3.47421e+06
3.47483e+06
3.47543e+06
3.47568e+06
3.47585e+06
3.4694e+06
3.46703e+06
3.46883e+06
3.46783e+06
3.46876e+06
3.46882e+06
3.4694e+06
3.47009e+06
3.47034e+06
3.47052e+06
3.46309e+06
3.46111e+06
3.46267e+06
3.4619e+06
3.4627e+06
3.4629e+06
3.46344e+06
3.46423e+06
3.46448e+06
3.46468e+06
3.45597e+06
3.45467e+06
3.45582e+06
3.45539e+06
3.45604e+06
3.45641e+06
3.45691e+06
3.45779e+06
3.45805e+06
3.45828e+06
3.44814e+06
3.44767e+06
3.44833e+06
3.44831e+06
3.44877e+06
3.4493e+06
3.44977e+06
3.45073e+06
3.45101e+06
3.45125e+06
3.43973e+06
3.44013e+06
3.44025e+06
3.44066e+06
3.44089e+06
3.44154e+06
3.44198e+06
3.44298e+06
3.44327e+06
3.44353e+06
3.43074e+06
3.43208e+06
3.4316e+06
3.43239e+06
3.43242e+06
3.4331e+06
3.4335e+06