/*--------------------------------*- C++ -*----------------------------------*\
| =========                 |                                                 |
| \\      /  F ield         | OpenFOAM: The Open Source CFD Toolbox           |
|  \\    /   O peration     | Version:  v2012                                 |
|   \\  /    A nd           | Website:  www.openfoam.com                      |
|    \\/     M anipulation  |                                                 |
\*---------------------------------------------------------------------------*/
FoamFile
{
    version     2.0;
    format      ascii;
    class       volScalarField;
    location    "0.3";
    object      p_rgh;
}
// * * * * * * * * * * * * * * * * * * * * * * * * * * * * * * * * * * * * * //

dimensions      [1 -1 -2 0 0 0 0];


internalField   nonuniform List<scalar> 
3332
(
3.45948e+06
3.44242e+06
3.45688e+06
3.44606e+06
3.452e+06
3.44632e+06
3.44689e+06
3.44437e+06
3.4558e+06
3.44104e+06
3.45357e+06
3.44407e+06
3.4492e+06
3.44448e+06
3.44505e+06
3.44312e+06
3.44277e+06
3.4428e+06
3.44268e+06
3.44332e+06
3.44308e+06
3.44152e+06
3.43447e+06
3.45231e+06
3.44041e+06
3.45071e+06
3.44284e+06
3.44692e+06
3.44312e+06
3.44353e+06
3.44209e+06
3.44179e+06
3.44188e+06
3.4417e+06
3.44227e+06
3.44199e+06
3.44052e+06
3.43404e+06
3.44915e+06
3.44013e+06
3.44817e+06
3.44195e+06
3.44497e+06
3.442e+06
3.44218e+06
3.44115e+06
3.44084e+06
3.44098e+06
3.44074e+06
3.44126e+06
3.44097e+06
3.43954e+06
3.43366e+06
3.4462e+06
3.4399e+06
3.44578e+06
3.44116e+06
3.44318e+06
3.44098e+06
3.44091e+06
3.44022e+06
3.43988e+06
3.44003e+06
3.43976e+06
3.44024e+06
3.43996e+06
3.43855e+06
3.43329e+06
3.44341e+06
3.43972e+06
3.44351e+06
3.44038e+06
3.44146e+06
3.43996e+06
3.43965e+06
3.43923e+06
3.43884e+06
3.43901e+06
3.43874e+06
3.43918e+06
3.43894e+06
3.43752e+06
3.43294e+06
3.44066e+06
3.43937e+06
3.44124e+06
3.43952e+06
3.43978e+06
3.43889e+06
3.43837e+06
3.43815e+06
3.43772e+06
3.43789e+06
3.43764e+06
3.43808e+06
3.43788e+06
3.43645e+06
3.43262e+06
3.43807e+06
3.43891e+06
3.43907e+06
3.43857e+06
3.43814e+06
3.43774e+06
3.43707e+06
3.43698e+06
3.43652e+06
3.43669e+06
3.43649e+06
3.43693e+06
3.43679e+06
3.43534e+06
3.43233e+06
3.4358e+06
3.43826e+06
3.43705e+06
3.43752e+06
3.43657e+06
3.43655e+06
3.43577e+06
3.43576e+06
3.43527e+06
3.43544e+06
3.43531e+06
3.43575e+06
3.43568e+06
3.43422e+06
3.43213e+06
3.43391e+06
3.43741e+06
3.43528e+06
3.43638e+06
3.43513e+06
3.43532e+06
3.43452e+06
3.43452e+06
3.43403e+06
3.4342e+06
3.43415e+06
3.43459e+06
3.43457e+06
3.43313e+06
3.43206e+06
3.4325e+06
3.43636e+06
3.43379e+06
3.43519e+06
3.43383e+06
3.43413e+06
3.43334e+06
3.43334e+06
3.43285e+06
3.43303e+06
3.43306e+06
3.43348e+06
3.43351e+06
3.43215e+06
3.43216e+06
3.43149e+06
3.43516e+06
3.43258e+06
3.43399e+06
3.4327e+06
3.433e+06
3.43227e+06
3.43227e+06
3.43179e+06
3.43198e+06
3.43206e+06
3.43246e+06
3.43253e+06
3.43132e+06
3.43247e+06
3.43076e+06
3.43387e+06
3.43157e+06
3.43283e+06
3.43172e+06
3.43198e+06
3.43134e+06
3.43134e+06
3.43086e+06
3.43108e+06
3.43118e+06
3.43158e+06
3.43166e+06
3.43072e+06
3.43304e+06
3.43013e+06
3.43245e+06
3.43068e+06
3.43178e+06
3.43091e+06
3.43111e+06
3.43055e+06
3.43057e+06
3.43007e+06
3.43033e+06
3.43042e+06
3.43085e+06
3.43095e+06
3.43043e+06
3.4339e+06
3.42975e+06
3.4314e+06
3.43008e+06
3.43091e+06
3.43028e+06
3.43042e+06
3.42993e+06
3.42997e+06
3.42942e+06
3.42975e+06
3.42979e+06
3.4303e+06
3.43044e+06
3.43053e+06
3.43509e+06
3.42954e+06
3.43065e+06
3.42972e+06
3.4303e+06
3.42989e+06
3.42995e+06
3.42951e+06
3.42954e+06
3.4289e+06
3.42932e+06
3.42928e+06
3.42996e+06
3.43018e+06
3.43113e+06
3.43663e+06
3.42953e+06
3.43029e+06
3.42967e+06
3.43005e+06
3.42981e+06
3.42974e+06
3.42933e+06
3.42929e+06
3.42851e+06
3.42905e+06
3.42891e+06
3.42985e+06
3.43028e+06
3.43233e+06
3.43854e+06
3.42921e+06
3.43027e+06
3.43001e+06
3.43024e+06
3.43013e+06
3.42986e+06
3.42947e+06
3.42925e+06
3.42835e+06
3.42897e+06
3.42877e+06
3.43005e+06
3.43091e+06
3.43423e+06
3.44083e+06
3.43022e+06
3.43107e+06
3.43098e+06
3.43097e+06
3.43096e+06
3.43042e+06
3.43004e+06
3.42952e+06
3.42855e+06
3.42915e+06
3.42903e+06
3.43068e+06
3.43228e+06
3.43686e+06
3.44351e+06
3.4321e+06
3.43262e+06
3.43264e+06
3.43236e+06
3.43244e+06
3.43157e+06
3.43121e+06
3.43023e+06
3.42931e+06
3.42972e+06
3.42995e+06
3.43198e+06
3.43464e+06
3.44021e+06
3.44655e+06
3.43487e+06
3.43503e+06
3.43512e+06
3.43461e+06
3.43471e+06
3.43349e+06
3.43314e+06
3.4316e+06
3.43092e+06
3.43083e+06
3.43179e+06
3.43424e+06
3.43812e+06
3.44416e+06
3.44991e+06
3.43811e+06
3.43792e+06
3.43838e+06
3.43785e+06
3.43794e+06
3.43637e+06
3.43603e+06
3.43386e+06
3.43355e+06
3.43269e+06
3.43473e+06
3.43766e+06
3.44269e+06
3.44858e+06
3.45351e+06
3.44319e+06
3.44266e+06
3.44298e+06
3.44228e+06
3.44226e+06
3.44039e+06
3.44005e+06
3.43723e+06
3.43744e+06
3.43559e+06
3.43885e+06
3.44229e+06
3.44812e+06
3.45327e+06
3.45727e+06
3.4495e+06
3.44867e+06
3.44875e+06
3.44796e+06
3.44779e+06
3.44575e+06
3.44539e+06
3.44186e+06
3.44281e+06
3.43991e+06
3.4442e+06
3.44802e+06
3.4541e+06
3.45809e+06
3.46108e+06
3.45685e+06
3.456e+06
3.45572e+06
3.45494e+06
3.45453e+06
3.45245e+06
3.452e+06
3.44826e+06
3.44977e+06
3.44599e+06
3.45077e+06
3.45462e+06
3.46032e+06
3.46292e+06
3.46487e+06
3.46328e+06
3.46397e+06
3.46358e+06
3.46304e+06
3.46241e+06
3.4605e+06
3.46e+06
3.45632e+06
3.45838e+06
3.45394e+06
3.45861e+06
3.46185e+06
3.46659e+06
3.46767e+06
3.46857e+06
3.47235e+06
3.4732e+06
3.47237e+06
3.47206e+06
3.4712e+06
3.4697e+06
3.46922e+06
3.46592e+06
3.46855e+06
3.46366e+06
3.4676e+06
3.46947e+06
3.47281e+06
3.48184e+06
3.48269e+06
3.48152e+06
3.48157e+06
3.48057e+06
3.47969e+06
3.47924e+06
3.47676e+06
3.47983e+06
3.47446e+06
3.47703e+06
3.47709e+06
3.47878e+06
3.49131e+06
3.49219e+06
3.49075e+06
3.49113e+06
3.4901e+06
3.48995e+06
3.48954e+06
3.48832e+06
3.49113e+06
3.48624e+06
3.48723e+06
3.48521e+06
3.48456e+06
3.49933e+06
3.5008e+06
3.49949e+06
3.50022e+06
3.49934e+06
3.5e+06
3.49977e+06
3.50014e+06
3.50219e+06
3.49914e+06
3.49858e+06
3.49387e+06
3.49026e+06
3.50735e+06
3.50859e+06
3.50735e+06
3.50837e+06
3.50775e+06
3.50924e+06
3.50938e+06
3.51147e+06
3.51284e+06
3.51229e+06
3.50993e+06
3.50215e+06
3.49524e+06
3.5137e+06
3.5147e+06
3.51368e+06
3.51496e+06
3.51465e+06
3.51682e+06
3.5174e+06
3.52103e+06
3.52192e+06
3.5238e+06
3.51974e+06
3.50978e+06
3.49937e+06
3.51812e+06
3.51899e+06
3.5181e+06
3.51951e+06
3.51942e+06
3.52196e+06
3.52277e+06
3.52727e+06
3.52759e+06
3.53128e+06
3.52553e+06
3.51544e+06
3.50163e+06
3.52032e+06
3.52133e+06
3.52052e+06
3.52193e+06
3.52189e+06
3.52439e+06
3.52514e+06
3.52967e+06
3.52903e+06
3.5338e+06
3.52776e+06
3.51938e+06
3.50384e+06
3.52095e+06
3.52204e+06
3.52117e+06
3.52245e+06
3.52232e+06
3.52433e+06
3.52467e+06
3.52845e+06
3.52698e+06
3.53102e+06
3.5254e+06
3.51976e+06
3.50434e+06
3.52043e+06
3.52157e+06
3.5206e+06
3.52162e+06
3.52128e+06
3.52251e+06
3.52232e+06
3.52473e+06
3.52259e+06
3.52652e+06
3.52288e+06
3.52027e+06
3.50757e+06
3.5194e+06
3.52051e+06
3.51949e+06
3.52024e+06
3.51972e+06
3.52014e+06
3.51947e+06
3.51965e+06
3.5162e+06
3.51918e+06
3.51191e+06
3.5143e+06
3.50464e+06
3.51856e+06
3.51958e+06
3.51865e+06
3.51929e+06
3.51883e+06
3.51912e+06
3.51882e+06
3.51876e+06
3.51794e+06
3.51861e+06
3.51773e+06
3.5185e+06
3.51773e+06
3.51823e+06
3.51787e+06
3.51813e+06
3.518e+06
3.5181e+06
3.51798e+06
3.51822e+06
3.51696e+06
3.51747e+06
3.51691e+06
3.51729e+06
3.51706e+06
3.5173e+06
3.5173e+06
3.51746e+06
3.5175e+06
3.51757e+06
3.51618e+06
3.51634e+06
3.51599e+06
3.51623e+06
3.51612e+06
3.51636e+06
3.51645e+06
3.51666e+06
3.51674e+06
3.51678e+06
3.51525e+06
3.51509e+06
3.51498e+06
3.51511e+06
3.5151e+06
3.51533e+06
3.5155e+06
3.51573e+06
3.51583e+06
3.51587e+06
3.51414e+06
3.51372e+06
3.51378e+06
3.51383e+06
3.51393e+06
3.51416e+06
3.51438e+06
3.51463e+06
3.51475e+06
3.51479e+06
3.51272e+06
3.51223e+06
3.51239e+06
3.5124e+06
3.51262e+06
3.51285e+06
3.5131e+06
3.51337e+06
3.51351e+06
3.51355e+06
3.5111e+06
3.51054e+06
3.5108e+06
3.51082e+06
3.5111e+06
3.51135e+06
3.51165e+06
3.51194e+06
3.51209e+06
3.51214e+06
3.50913e+06
3.50866e+06
3.50906e+06
3.50909e+06
3.5094e+06
3.50966e+06
3.51e+06
3.51033e+06
3.5105e+06
3.51055e+06
3.50705e+06
3.50664e+06
3.50707e+06
3.50713e+06
3.50749e+06
3.50777e+06
3.50817e+06
3.50852e+06
3.50872e+06
3.50877e+06
3.5047e+06
3.50441e+06
3.50487e+06
3.50496e+06
3.50539e+06
3.50567e+06
3.50613e+06
3.5065e+06
3.50672e+06
3.50678e+06
3.50226e+06
3.50204e+06
3.50251e+06
3.50258e+06
3.50309e+06
3.50336e+06
3.50387e+06
3.50426e+06
3.5045e+06
3.50457e+06
3.49968e+06
3.49944e+06
3.49997e+06
3.49999e+06
3.50057e+06
3.50082e+06
3.50138e+06
3.50178e+06
3.50204e+06
3.50211e+06
3.49699e+06
3.49662e+06
3.49726e+06
3.49717e+06
3.49783e+06
3.49802e+06
3.49864e+06
3.49905e+06
3.49932e+06
3.4994e+06
3.49412e+06
3.49349e+06
3.49434e+06
3.49408e+06
3.49484e+06
3.49496e+06
3.49562e+06
3.49604e+06
3.49632e+06
3.49641e+06
3.49112e+06
3.4901e+06
3.49118e+06
3.4907e+06
3.49155e+06
3.49159e+06
3.49228e+06
3.49272e+06
3.49299e+06
3.4931e+06
3.48785e+06
3.48634e+06
3.4877e+06
3.48699e+06
3.48792e+06
3.48789e+06
3.4886e+06
3.48905e+06
3.48932e+06
3.48944e+06
3.48421e+06
3.48224e+06
3.48385e+06
3.48292e+06
3.48392e+06
3.48384e+06
3.48453e+06
3.48502e+06
3.48528e+06
3.48541e+06
3.48001e+06
3.4777e+06
3.47951e+06
3.47845e+06
3.47949e+06
3.4794e+06
3.48005e+06
3.48059e+06
3.48084e+06
3.48099e+06
3.47522e+06
3.47275e+06
3.47463e+06
3.47353e+06
3.47454e+06
3.4745e+06
3.47512e+06
3.47572e+06
3.47597e+06
3.47614e+06
3.46969e+06
3.46732e+06
3.46912e+06
3.46812e+06
3.46906e+06
3.46912e+06
3.46969e+06
3.47038e+06
3.47063e+06
3.47082e+06
3.46339e+06
3.4614e+06
3.46297e+06
3.46219e+06
3.463e+06
3.4632e+06
3.46373e+06
3.46452e+06
3.46477e+06
3.46498e+06
3.45627e+06
3.45497e+06
3.45612e+06
3.45569e+06
3.45634e+06
3.45671e+06
3.4572e+06
3.45809e+06
3.45835e+06
3.45857e+06
3.44844e+06
3.44797e+06
3.44863e+06
3.44861e+06
3.44907e+06
3.4496e+06
3.45007e+06
3.45103e+06
3.45131e+06
3.45155e+06
3.44003e+06
3.44043e+06
3.44055e+06
3.44096e+06
3.4412e+06
3.44184e+06
3.44228e+06
3.44328e+06
3.44357e+06
3.44384e+06
3.43105e+06
3.43238e+06
3.4319e+06
3.43269e+06
3.43273e+06
3.43341e+06
3.43381e+06
3.43477e+06
3.43507e+06
3.43536e+06
3.42174e+06
3.42387e+06
3.42285e+06
3.42388e+06
3.42372e+06
3.42429e+06
3.42462e+06
3.42542e+06
3.42571e+06
3.42603e+06
3.41243e+06
3.4151e+06
3.41361e+06
3.41464e+06
3.41427e+06
3.4145e+06
3.4147e+06
3.41514e+06
3.4154e+06
3.41576e+06
3.40346e+06
3.4063e+06
3.40448e+06
3.40522e+06
3.40457e+06
3.40417e+06
3.40408e+06
3.40384e+06
3.40401e+06
3.4044e+06
3.39543e+06
3.39803e+06
3.39596e+06
3.39605e+06
3.39496e+06
3.39353e+06
3.39283e+06
3.39143e+06
3.39141e+06
3.39184e+06
3.38917e+06
3.39118e+06
3.38884e+06
3.38786e+06
3.38602e+06
3.383e+06
3.38115e+06
3.3778e+06
3.37743e+06
3.37785e+06
3.38606e+06
3.3871e+06
3.38441e+06
3.38195e+06
3.37881e+06
3.37344e+06
3.36955e+06
3.36299e+06
3.36197e+06
3.36231e+06
3.38824e+06
3.38815e+06
3.38479e+06
3.38041e+06
3.37511e+06
3.36657e+06
3.35926e+06
3.34712e+06
3.34486e+06
3.34493e+06
3.39895e+06
3.39765e+06
3.39315e+06
3.38629e+06
3.3776e+06
3.36481e+06
3.3515e+06
3.33107e+06
3.32614e+06
3.32562e+06
3.42279e+06
3.42035e+06
3.41411e+06
3.40402e+06
3.39053e+06
3.37185e+06
3.3491e+06
3.3172e+06
3.30616e+06
3.30455e+06
3.46571e+06
3.46226e+06
3.45382e+06
3.43989e+06
3.42063e+06
3.39429e+06
3.35921e+06
3.31255e+06
3.2877e+06
3.28425e+06
3.53474e+06
3.5306e+06
3.51995e+06
3.50243e+06
3.47755e+06
3.44327e+06
3.39556e+06
3.32948e+06
3.27555e+06
3.26933e+06
3.63433e+06
3.62997e+06
3.61769e+06
3.59733e+06
3.56727e+06
3.52545e+06
3.46438e+06
3.37201e+06
3.27012e+06
3.25989e+06
3.76479e+06
3.76041e+06
3.74675e+06
3.72384e+06
3.68962e+06
3.63937e+06
3.56121e+06
3.44764e+06
3.31283e+06
3.27365e+06
3.9172e+06
3.91473e+06
3.90553e+06
3.88954e+06
3.86502e+06
3.82298e+06
3.7553e+06
3.64549e+06
3.39619e+06
3.04636e+06
4.09038e+06
4.09053e+06
4.08885e+06
4.08682e+06
4.08514e+06
4.0816e+06
4.08373e+06
4.07997e+06
3.99972e+06
3.94931e+06
4.24063e+06
4.36848e+06
4.43041e+06
4.45963e+06
4.47588e+06
4.48507e+06
4.49069e+06
4.20112e+06
4.20188e+06
4.2022e+06
4.20323e+06
4.20511e+06
4.20788e+06
4.21525e+06
4.22563e+06
4.23757e+06
4.29247e+06
4.3796e+06
4.41805e+06
4.44905e+06
4.46709e+06
4.47907e+06
4.48655e+06
4.49142e+06
4.30386e+06
4.3049e+06
4.30634e+06
4.30918e+06
4.31335e+06
4.319e+06
4.32786e+06
4.33766e+06
4.34734e+06
4.37309e+06
4.41177e+06
4.43902e+06
4.45936e+06
4.47281e+06
4.48199e+06
4.4881e+06
4.49222e+06
4.36226e+06
4.36328e+06
4.36501e+06
4.36816e+06
4.37262e+06
4.37869e+06
4.38684e+06
4.39713e+06
4.41006e+06
4.42695e+06
4.44435e+06
4.45846e+06
4.47014e+06
4.47883e+06
4.4853e+06
4.48993e+06
4.49323e+06
4.40877e+06
4.4095e+06
4.41075e+06
4.41306e+06
4.41622e+06
4.42046e+06
4.42591e+06
4.4324e+06
4.44011e+06
4.44978e+06
4.46013e+06
4.46932e+06
4.4771e+06
4.48324e+06
4.48799e+06
4.49154e+06
4.49417e+06
4.43577e+06
4.4364e+06
4.43746e+06
4.43938e+06
4.44193e+06
4.44529e+06
4.44942e+06
4.45432e+06
4.4599e+06
4.466e+06
4.47211e+06
4.47776e+06
4.48275e+06
4.48694e+06
4.49034e+06
4.49301e+06
4.49507e+06
4.45572e+06
4.45627e+06
4.45693e+06
4.45819e+06
4.45985e+06
4.46206e+06
4.46474e+06
4.4679e+06
4.47148e+06
4.47541e+06
4.47942e+06
4.48323e+06
4.48669e+06
4.48969e+06
4.49219e+06
4.49423e+06
4.49585e+06
4.46802e+06
4.4685e+06
4.469e+06
4.46995e+06
4.47117e+06
4.47279e+06
4.47472e+06
4.47697e+06
4.47945e+06
4.48208e+06
4.48475e+06
4.48733e+06
4.48972e+06
4.49186e+06
4.49371e+06
4.49526e+06
4.49653e+06
4.47708e+06
4.47733e+06
4.47764e+06
4.47829e+06
4.47911e+06
4.4802e+06
4.48151e+06
4.48303e+06
4.48472e+06
4.48653e+06
4.48839e+06
4.49022e+06
4.49194e+06
4.49352e+06
4.49491e+06
4.4961e+06
4.4971e+06
4.48294e+06
4.48314e+06
4.48336e+06
4.48384e+06
4.48444e+06
4.48524e+06
4.48618e+06
4.48727e+06
4.48848e+06
4.48976e+06
4.49108e+06
4.49239e+06
4.49365e+06
4.49482e+06
4.49587e+06
4.4968e+06
4.49759e+06
4.48723e+06
4.48737e+06
4.48752e+06
4.48786e+06
4.48828e+06
4.48885e+06
4.48951e+06
4.49029e+06
4.49115e+06
4.49208e+06
4.49304e+06
4.494e+06
4.49494e+06
4.49583e+06
4.49664e+06
4.49736e+06
4.49799e+06
4.49853e+06
4.49898e+06
4.49021e+06
4.49032e+06
4.49043e+06
4.49069e+06
4.491e+06
4.49142e+06
4.49191e+06
4.49249e+06
4.49312e+06
4.4938e+06
4.49452e+06
4.49524e+06
4.49595e+06
4.49663e+06
4.49726e+06
4.49783e+06
4.49833e+06
4.49877e+06
4.49914e+06
4.49245e+06
4.49253e+06
4.4926e+06
4.49279e+06
4.49302e+06
4.49333e+06
4.49369e+06
4.49412e+06
4.49459e+06
4.4951e+06
4.49564e+06
4.49619e+06
4.49673e+06
4.49726e+06
4.49775e+06
4.49821e+06
4.49862e+06
4.49897e+06
4.49928e+06
4.49407e+06
4.49414e+06
4.49419e+06
4.49434e+06
4.49451e+06
4.49475e+06
4.49502e+06
4.49534e+06
4.4957e+06
4.49609e+06
4.49651e+06
4.49693e+06
4.49735e+06
4.49777e+06
4.49816e+06
4.49852e+06
4.49885e+06
4.49915e+06
4.4994e+06
4.49531e+06
4.49537e+06
4.49541e+06
4.49552e+06
4.49565e+06
4.49583e+06
4.49604e+06
4.49629e+06
4.49656e+06
4.49686e+06
4.49718e+06
4.49751e+06
4.49785e+06
4.49817e+06
4.49849e+06
4.49878e+06
4.49905e+06
4.49929e+06
4.4995e+06
4.49626e+06
4.49631e+06
4.49633e+06
4.49642e+06
4.49652e+06
4.49666e+06
4.49682e+06
4.49702e+06
4.49723e+06
4.49747e+06
4.49772e+06
4.49798e+06
4.49824e+06
4.4985e+06
4.49876e+06
4.499e+06
4.49922e+06
4.49941e+06
4.49959e+06
4.497e+06
4.49704e+06
4.49706e+06
4.49712e+06
4.4972e+06
4.49731e+06
4.49744e+06
4.49759e+06
4.49776e+06
4.49794e+06
4.49814e+06
4.49835e+06
4.49856e+06
4.49877e+06
4.49898e+06
4.49917e+06
4.49935e+06
4.49952e+06
4.49966e+06
4.49757e+06
4.4976e+06
4.49762e+06
4.49767e+06
4.49773e+06
4.49782e+06
4.49792e+06
4.49804e+06
4.49818e+06
4.49833e+06
4.49849e+06
4.49865e+06
4.49882e+06
4.49899e+06
4.49916e+06
4.49932e+06
4.49947e+06
4.49961e+06
4.49973e+06
4.49803e+06
4.49806e+06
4.49807e+06
4.49811e+06
4.49816e+06
4.49823e+06
4.49831e+06
4.4984e+06
4.49851e+06
4.49863e+06
4.49876e+06
4.4989e+06
4.49904e+06
4.49917e+06
4.49931e+06
4.49944e+06
4.49957e+06
4.49968e+06
4.49978e+06
4.4984e+06
4.49842e+06
4.49843e+06
4.49846e+06
4.4985e+06
4.49855e+06
4.49862e+06
4.4987e+06
4.49878e+06
4.49888e+06
4.49899e+06
4.4991e+06
4.49921e+06
4.49932e+06
4.49944e+06
4.49954e+06
4.49965e+06
4.49974e+06
4.49983e+06
4.4987e+06
4.49871e+06
4.49871e+06
4.49874e+06
4.49877e+06
4.49882e+06
4.49887e+06
4.49893e+06
4.499e+06
4.49908e+06
4.49917e+06
4.49926e+06
4.49935e+06
4.49945e+06
4.49954e+06
4.49963e+06
4.49971e+06
4.49979e+06
4.49986e+06
4.49893e+06
4.49895e+06
4.49894e+06
4.49897e+06
4.49899e+06
4.49903e+06
4.49907e+06
4.49912e+06
4.49918e+06
4.49925e+06
4.49932e+06
4.49939e+06
4.49947e+06
4.49955e+06
4.49962e+06
4.4997e+06
4.49977e+06
4.49984e+06
4.4999e+06
4.49912e+06
4.49914e+06
4.49914e+06
4.49916e+06
4.49917e+06
4.4992e+06
4.49924e+06
4.49928e+06
4.49933e+06
4.49938e+06
4.49944e+06
4.4995e+06
4.49957e+06
4.49963e+06
4.49969e+06
4.49976e+06
4.49982e+06
4.49987e+06
4.49992e+06
4.49928e+06
4.49929e+06
4.49929e+06
4.49931e+06
4.49932e+06
4.49935e+06
4.49938e+06
4.49941e+06
4.49945e+06
4.4995e+06
4.49954e+06
4.49959e+06
4.49965e+06
4.4997e+06
4.49975e+06
4.49981e+06
4.49986e+06
4.4999e+06
4.49995e+06
4.49941e+06
4.49942e+06
4.49942e+06
4.49943e+06
4.49944e+06
4.49946e+06
4.49949e+06
4.49952e+06
4.49955e+06
4.49959e+06
4.49963e+06
4.49967e+06
4.49971e+06
4.49976e+06
4.4998e+06
4.49985e+06
4.49989e+06
4.49993e+06
4.49996e+06
4.49951e+06
4.49952e+06
4.49952e+06
4.49953e+06
4.49955e+06
4.49956e+06
4.49958e+06
4.49961e+06
4.49963e+06
4.49966e+06
4.4997e+06
4.49973e+06
4.49977e+06
4.49981e+06
4.49984e+06
4.49988e+06
4.49991e+06
4.49995e+06
4.49998e+06
4.4996e+06
4.49961e+06
4.49961e+06
4.49962e+06
4.49963e+06
4.49964e+06
4.49966e+06
4.49968e+06
4.4997e+06
4.49973e+06
4.49975e+06
4.49978e+06
4.49981e+06
4.49984e+06
4.49988e+06
4.49991e+06
4.49994e+06
4.49996e+06
4.49999e+06
4.49967e+06
4.49968e+06
4.49968e+06
4.49969e+06
4.4997e+06
4.49971e+06
4.49972e+06
4.49974e+06
4.49976e+06
4.49978e+06
4.4998e+06
4.49982e+06
4.49985e+06
4.49988e+06
4.4999e+06
4.49993e+06
4.49995e+06
4.49998e+06
4.5e+06
4.49973e+06
4.49974e+06
4.49974e+06
4.49975e+06
4.49975e+06
4.49976e+06
4.49977e+06
4.49979e+06
4.4998e+06
4.49982e+06
4.49984e+06
4.49986e+06
4.49988e+06
4.4999e+06
4.49992e+06
4.49995e+06
4.49997e+06
4.49999e+06
4.5e+06
4.49978e+06
4.49979e+06
4.49979e+06
4.49979e+06
4.4998e+06
4.49981e+06
4.49982e+06
4.49983e+06
4.49984e+06
4.49986e+06
4.49987e+06
4.49989e+06
4.49991e+06
4.49992e+06
4.49994e+06
4.49996e+06
4.49998e+06
4.49999e+06
4.50001e+06
4.49982e+06
4.49983e+06
4.49983e+06
4.49983e+06
4.49984e+06
4.49984e+06
4.49985e+06
4.49986e+06
4.49987e+06
4.49988e+06
4.4999e+06
4.49991e+06
4.49993e+06
4.49994e+06
4.49996e+06
4.49997e+06
4.49999e+06
4.5e+06
4.50001e+06
4.49986e+06
4.49986e+06
4.49986e+06
4.49987e+06
4.49987e+06
4.49987e+06
4.49988e+06
4.49989e+06
4.4999e+06
4.49991e+06
4.49992e+06
4.49993e+06
4.49994e+06
4.49996e+06
4.49997e+06
4.49998e+06
4.49999e+06
4.5e+06
4.50001e+06
4.49989e+06
4.49989e+06
4.49989e+06
4.49989e+06
4.4999e+06
4.4999e+06
4.49991e+06
4.49991e+06
4.49992e+06
4.49993e+06
4.49994e+06
4.49995e+06
4.49996e+06
4.49997e+06
4.49998e+06
4.49999e+06
4.5e+06
4.50001e+06
4.50001e+06
4.49991e+06
4.49991e+06
4.49991e+06
4.49991e+06
4.49992e+06
4.49992e+06
4.49992e+06
4.49993e+06
4.49994e+06
4.49994e+06
4.49995e+06
4.49996e+06
4.49997e+06
4.49998e+06
4.49998e+06
4.49999e+06
4.5e+06
4.50001e+06
4.50001e+06
4.49993e+06
4.49993e+06
4.49993e+06
4.49993e+06
4.49994e+06
4.49994e+06
4.49994e+06
4.49995e+06
4.49995e+06
4.49996e+06
4.49996e+06
4.49997e+06
4.49998e+06
4.49998e+06
4.49999e+06
4.5e+06
4.5e+06
4.50001e+06
4.50001e+06
4.49995e+06
4.49995e+06
4.49995e+06
4.49995e+06
4.49995e+06
4.49995e+06
4.49996e+06
4.49996e+06
4.49996e+06
4.49997e+06
4.49997e+06
4.49998e+06
4.49998e+06
4.49999e+06
4.49999e+06
4.5e+06
4.5e+06
4.50001e+06
4.50001e+06
4.49996e+06
4.49996e+06
4.49996e+06
4.49996e+06
4.49996e+06
4.49996e+06
4.49997e+06
4.49997e+06
4.49997e+06
4.49998e+06
4.49998e+06
4.49998e+06
4.49999e+06
4.49999e+06
4.5e+06
4.5e+06
4.5e+06
4.50001e+06
4.50001e+06
4.49998e+06
4.49998e+06
4.49998e+06
4.49998e+06
4.49998e+06
4.49998e+06
4.49998e+06
4.49998e+06
4.49998e+06
4.49998e+06
4.49999e+06
4.49999e+06
4.49999e+06
4.49999e+06
4.5e+06
4.5e+06
4.5e+06
4.50001e+06
4.50001e+06
4.49998e+06
4.49998e+06
4.49998e+06
4.49998e+06
4.49998e+06
4.49998e+06
4.49998e+06
4.49999e+06
4.49999e+06
4.49999e+06
4.49999e+06
4.49999e+06
4.5e+06
4.5e+06
4.5e+06
4.5e+06
4.5e+06
4.5e+06
4.50001e+06
4.5e+06
4.5e+06
4.5e+06
4.5e+06
4.5e+06
4.5e+06
4.5e+06
4.5e+06
4.5e+06
4.5e+06
4.5e+06
4.5e+06
4.5e+06
4.5e+06
4.5e+06
4.5e+06
4.5e+06
4.5e+06
4.5e+06
3.45948e+06
3.44242e+06
3.45688e+06
3.44606e+06
3.452e+06
3.44632e+06
3.44689e+06
3.44437e+06
3.4558e+06
3.44104e+06
3.45357e+06
3.44407e+06
3.4492e+06
3.44448e+06
3.44505e+06
3.44312e+06
3.44277e+06
3.4428e+06
3.44268e+06
3.44332e+06
3.44308e+06
3.44152e+06
3.43447e+06
3.45231e+06
3.44041e+06
3.45071e+06
3.44284e+06
3.44692e+06
3.44312e+06
3.44353e+06
3.44209e+06
3.44179e+06
3.44188e+06
3.4417e+06
3.44227e+06
3.44199e+06
3.44052e+06
3.43404e+06
3.44915e+06
3.44013e+06
3.44817e+06
3.44195e+06
3.44497e+06
3.442e+06
3.44218e+06
3.44115e+06
3.44084e+06
3.44098e+06
3.44074e+06
3.44126e+06
3.44097e+06
3.43954e+06
3.43366e+06
3.4462e+06
3.4399e+06
3.44578e+06
3.44116e+06
3.44318e+06
3.44098e+06
3.44091e+06
3.44022e+06
3.43988e+06
3.44003e+06
3.43976e+06
3.44024e+06
3.43996e+06
3.43855e+06
3.43329e+06
3.44341e+06
3.43972e+06
3.44351e+06
3.44038e+06
3.44146e+06
3.43996e+06
3.43965e+06
3.43923e+06
3.43884e+06
3.43901e+06
3.43874e+06
3.43918e+06
3.43894e+06
3.43752e+06
3.43294e+06
3.44066e+06
3.43937e+06
3.44124e+06
3.43952e+06
3.43978e+06
3.43889e+06
3.43837e+06
3.43815e+06
3.43772e+06
3.43789e+06
3.43764e+06
3.43808e+06
3.43788e+06
3.43645e+06
3.43262e+06
3.43807e+06
3.43891e+06
3.43907e+06
3.43857e+06
3.43814e+06
3.43774e+06
3.43707e+06
3.43698e+06
3.43652e+06
3.43669e+06
3.43649e+06
3.43693e+06
3.43679e+06
3.43534e+06
3.43233e+06
3.4358e+06
3.43826e+06
3.43705e+06
3.43752e+06
3.43657e+06
3.43655e+06
3.43577e+06
3.43576e+06
3.43527e+06
3.43544e+06
3.43531e+06
3.43575e+06
3.43568e+06
3.43422e+06
3.43213e+06
3.43391e+06
3.43741e+06
3.43528e+06
3.43638e+06
3.43513e+06
3.43532e+06
3.43452e+06
3.43452e+06
3.43403e+06
3.4342e+06
3.43415e+06
3.43459e+06
3.43457e+06
3.43313e+06
3.43206e+06
3.4325e+06
3.43636e+06
3.43379e+06
3.43519e+06
3.43383e+06
3.43413e+06
3.43334e+06
3.43334e+06
3.43285e+06
3.43303e+06
3.43306e+06
3.43348e+06
3.43351e+06
3.43215e+06
3.43216e+06
3.43149e+06
3.43516e+06
3.43258e+06
3.43399e+06
3.4327e+06
3.433e+06
3.43227e+06
3.43227e+06
3.43179e+06
3.43198e+06
3.43206e+06
3.43246e+06
3.43253e+06
3.43132e+06
3.43247e+06
3.43076e+06
3.43387e+06
3.43157e+06
3.43283e+06
3.43172e+06
3.43198e+06
3.43134e+06
3.43134e+06
3.43086e+06
3.43108e+06
3.43118e+06
3.43158e+06
3.43166e+06
3.43072e+06
3.43304e+06
3.43013e+06
3.43245e+06
3.43068e+06
3.43178e+06
3.43091e+06
3.43111e+06
3.43055e+06
3.43057e+06
3.43007e+06
3.43033e+06
3.43042e+06
3.43085e+06
3.43095e+06
3.43043e+06
3.4339e+06
3.42975e+06
3.4314e+06
3.43008e+06
3.43091e+06
3.43028e+06
3.43042e+06
3.42993e+06
3.42997e+06
3.42942e+06
3.42975e+06
3.42979e+06
3.4303e+06
3.43044e+06
3.43053e+06
3.43509e+06
3.42954e+06
3.43065e+06
3.42972e+06
3.4303e+06
3.42989e+06
3.42995e+06
3.42951e+06
3.42954e+06
3.4289e+06
3.42932e+06
3.42928e+06
3.42996e+06
3.43018e+06
3.43113e+06
3.43663e+06
3.42953e+06
3.43029e+06
3.42967e+06
3.43005e+06
3.42981e+06
3.42974e+06
3.42933e+06
3.42929e+06
3.42851e+06
3.42905e+06
3.42891e+06
3.42985e+06
3.43028e+06
3.43233e+06
3.43854e+06
3.42921e+06
3.43027e+06
3.43001e+06
3.43024e+06
3.43013e+06
3.42986e+06
3.42947e+06
3.42925e+06
3.42835e+06
3.42897e+06
3.42877e+06
3.43005e+06
3.43091e+06
3.43423e+06
3.44083e+06
3.43022e+06
3.43107e+06
3.43098e+06
3.43097e+06
3.43096e+06
3.43042e+06
3.43004e+06
3.42952e+06
3.42855e+06
3.42915e+06
3.42903e+06
3.43068e+06
3.43228e+06
3.43686e+06
3.44351e+06
3.4321e+06
3.43262e+06
3.43264e+06
3.43236e+06
3.43244e+06
3.43157e+06
3.43121e+06
3.43023e+06
3.42931e+06
3.42972e+06
3.42995e+06
3.43198e+06
3.43464e+06
3.44021e+06
3.44655e+06
3.43487e+06
3.43503e+06
3.43512e+06
3.43461e+06
3.43471e+06
3.43349e+06
3.43314e+06
3.4316e+06
3.43092e+06
3.43083e+06
3.43179e+06
3.43424e+06
3.43812e+06
3.44416e+06
3.44991e+06
3.43811e+06
3.43792e+06
3.43838e+06
3.43785e+06
3.43794e+06
3.43637e+06
3.43603e+06
3.43386e+06
3.43355e+06
3.43269e+06
3.43473e+06
3.43766e+06
3.44269e+06
3.44858e+06
3.45351e+06
3.44319e+06
3.44266e+06
3.44298e+06
3.44228e+06
3.44226e+06
3.44039e+06
3.44005e+06
3.43723e+06
3.43744e+06
3.43559e+06
3.43885e+06
3.44229e+06
3.44812e+06
3.45327e+06
3.45727e+06
3.4495e+06
3.44867e+06
3.44875e+06
3.44796e+06
3.44779e+06
3.44575e+06
3.44539e+06
3.44186e+06
3.44281e+06
3.43991e+06
3.4442e+06
3.44802e+06
3.4541e+06
3.45809e+06
3.46108e+06
3.45685e+06
3.456e+06
3.45572e+06
3.45494e+06
3.45453e+06
3.45245e+06
3.452e+06
3.44826e+06
3.44977e+06
3.44599e+06
3.45077e+06
3.45462e+06
3.46032e+06
3.46292e+06
3.46487e+06
3.46328e+06
3.46397e+06
3.46358e+06
3.46304e+06
3.46241e+06
3.4605e+06
3.46e+06
3.45632e+06
3.45838e+06
3.45394e+06
3.45861e+06
3.46185e+06
3.46659e+06
3.46767e+06
3.46857e+06
3.47235e+06
3.4732e+06
3.47237e+06
3.47206e+06
3.4712e+06
3.4697e+06
3.46922e+06
3.46592e+06
3.46855e+06
3.46366e+06
3.4676e+06
3.46947e+06
3.47281e+06
3.48184e+06
3.48269e+06
3.48152e+06
3.48157e+06
3.48057e+06
3.47969e+06
3.47924e+06
3.47676e+06
3.47983e+06
3.47446e+06
3.47703e+06
3.47709e+06
3.47878e+06
3.49131e+06
3.49219e+06
3.49075e+06
3.49113e+06
3.4901e+06
3.48995e+06
3.48954e+06
3.48832e+06
3.49113e+06
3.48624e+06
3.48723e+06
3.48521e+06
3.48456e+06
3.49933e+06
3.5008e+06
3.49949e+06
3.50022e+06
3.49934e+06
3.5e+06
3.49977e+06
3.50014e+06
3.50219e+06
3.49914e+06
3.49858e+06
3.49387e+06
3.49026e+06
3.50735e+06
3.50859e+06
3.50735e+06
3.50837e+06
3.50775e+06
3.50924e+06
3.50938e+06
3.51147e+06
3.51284e+06
3.51229e+06
3.50993e+06
3.50215e+06
3.49524e+06
3.5137e+06
3.5147e+06
3.51368e+06
3.51496e+06
3.51465e+06
3.51682e+06
3.5174e+06
3.52103e+06
3.52192e+06
3.5238e+06
3.51974e+06
3.50978e+06
3.49937e+06
3.51812e+06
3.51899e+06
3.5181e+06
3.51951e+06
3.51942e+06
3.52196e+06
3.52277e+06
3.52727e+06
3.52759e+06
3.53128e+06
3.52553e+06
3.51544e+06
3.50163e+06
3.52032e+06
3.52133e+06
3.52052e+06
3.52193e+06
3.52189e+06
3.52439e+06
3.52514e+06
3.52967e+06
3.52903e+06
3.5338e+06
3.52776e+06
3.51938e+06
3.50384e+06
3.52095e+06
3.52204e+06
3.52117e+06
3.52245e+06
3.52232e+06
3.52433e+06
3.52467e+06
3.52845e+06
3.52698e+06
3.53102e+06
3.5254e+06
3.51976e+06
3.50434e+06
3.52043e+06
3.52157e+06
3.5206e+06
3.52162e+06
3.52128e+06
3.52251e+06
3.52232e+06
3.52473e+06
3.52259e+06
3.52652e+06
3.52288e+06
3.52027e+06
3.50757e+06
3.5194e+06
3.52051e+06
3.51949e+06
3.52024e+06
3.51972e+06
3.52014e+06
3.51947e+06
3.51965e+06
3.5162e+06
3.51918e+06
3.51191e+06
3.5143e+06
3.50464e+06
3.51856e+06
3.51958e+06
3.51865e+06
3.51929e+06
3.51883e+06
3.51912e+06
3.51882e+06
3.51876e+06
3.51794e+06
3.51861e+06
3.51773e+06
3.5185e+06
3.51773e+06
3.51823e+06
3.51787e+06
3.51813e+06
3.518e+06
3.5181e+06
3.51798e+06
3.51822e+06
3.51696e+06
3.51747e+06
3.51691e+06
3.51729e+06
3.51706e+06
3.5173e+06
3.5173e+06
3.51746e+06
3.5175e+06
3.51757e+06
3.51618e+06
3.51634e+06
3.51599e+06
3.51623e+06
3.51612e+06
3.51636e+06
3.51645e+06
3.51666e+06
3.51674e+06
3.51678e+06
3.51525e+06
3.51509e+06
3.51498e+06
3.51511e+06
3.5151e+06
3.51533e+06
3.5155e+06
3.51573e+06
3.51583e+06
3.51587e+06
3.51414e+06
3.51372e+06
3.51378e+06
3.51383e+06
3.51393e+06
3.51416e+06
3.51438e+06
3.51463e+06
3.51475e+06
3.51479e+06
3.51272e+06
3.51223e+06
3.51239e+06
3.5124e+06
3.51262e+06
3.51285e+06
3.5131e+06
3.51337e+06
3.51351e+06
3.51355e+06
3.5111e+06
3.51054e+06
3.5108e+06
3.51082e+06
3.5111e+06
3.51135e+06
3.51165e+06
3.51194e+06
3.51209e+06
3.51214e+06
3.50913e+06
3.50866e+06
3.50906e+06
3.50909e+06
3.5094e+06
3.50966e+06
3.51e+06
3.51033e+06
3.5105e+06
3.51055e+06
3.50705e+06
3.50664e+06
3.50707e+06
3.50713e+06
3.50749e+06
3.50777e+06
3.50817e+06
3.50852e+06
3.50872e+06
3.50877e+06
3.5047e+06
3.50441e+06
3.50487e+06
3.50496e+06
3.50539e+06
3.50567e+06
3.50613e+06
3.5065e+06
3.50672e+06
3.50678e+06
3.50226e+06
3.50204e+06
3.50251e+06
3.50258e+06
3.50309e+06
3.50336e+06
3.50387e+06
3.50426e+06
3.5045e+06
3.50457e+06
3.49968e+06
3.49944e+06
3.49997e+06
3.49999e+06
3.50057e+06
3.50082e+06
3.50138e+06
3.50178e+06
3.50204e+06
3.50211e+06
3.49699e+06
3.49662e+06
3.49726e+06
3.49717e+06
3.49783e+06
3.49802e+06
3.49864e+06
3.49905e+06
3.49932e+06
3.4994e+06
3.49412e+06
3.49349e+06
3.49434e+06
3.49408e+06
3.49484e+06
3.49496e+06
3.49562e+06
3.49604e+06
3.49632e+06
3.49641e+06
3.49112e+06
3.4901e+06
3.49118e+06
3.4907e+06
3.49155e+06
3.49159e+06
3.49228e+06
3.49272e+06
3.49299e+06
3.4931e+06
3.48785e+06
3.48634e+06
3.4877e+06
3.48699e+06
3.48792e+06
3.48789e+06
3.4886e+06
3.48905e+06
3.48932e+06
3.48944e+06
3.48421e+06
3.48224e+06
3.48385e+06
3.48292e+06
3.48392e+06
3.48384e+06
3.48453e+06
3.48502e+06
3.48528e+06
3.48541e+06
3.48001e+06
3.4777e+06
3.47951e+06
3.47845e+06
3.47949e+06
3.4794e+06
3.48005e+06
3.48059e+06
3.48084e+06
3.48099e+06
3.47522e+06
3.47275e+06
3.47463e+06
3.47353e+06
3.47454e+06
3.4745e+06
3.47512e+06
3.47572e+06
3.47597e+06
3.47614e+06
3.46969e+06
3.46732e+06
3.46912e+06
3.46812e+06
3.46906e+06
3.46912e+06
3.46969e+06
3.47038e+06
3.47063e+06
3.47082e+06
3.46339e+06
3.4614e+06
3.46297e+06
3.46219e+06
3.463e+06
3.4632e+06
3.46373e+06
3.46452e+06
3.46477e+06
3.46498e+06
3.45627e+06
3.45497e+06
3.45612e+06
3.45569e+06
3.45634e+06
3.45671e+06
3.4572e+06
3.45809e+06
3.45835e+06
3.45857e+06
3.44844e+06
3.44797e+06
3.44863e+06
3.44861e+06
3.44907e+06
3.4496e+06
3.45007e+06
3.45103e+06
3.45131e+06
3.45155e+06
3.44003e+06
3.44043e+06
3.44055e+06
3.44096e+06
3.4412e+06
3.44184e+06
3.44228e+06
3.44328e+06
3.44357e+06
3.44384e+06
3.43105e+06
3.43238e+06
3.4319e+06
3.43269e+06
3.43273e+06
3.43341e+06
3.43381e+06
3.43477e+06
3.43507e+06
3.43536e+06
3.42174e+06
3.42387e+06
3.42285e+06
3.42388e+06
3.42372e+06
3.42429e+06
3.42462e+06
3.42542e+06
3.42571e+06
3.42603e+06
3.41243e+06
3.4151e+06
3.41361e+06