/*--------------------------------*- C++ -*----------------------------------*\
| =========                 |                                                 |
| \\      /  F ield         | OpenFOAM: The Open Source CFD Toolbox           |
|  \\    /   O peration     | Version:  v2012                                 |
|   \\  /    A nd           | Website:  www.openfoam.com                      |
|    \\/     M anipulation  |                                                 |
\*---------------------------------------------------------------------------*/
FoamFile
{
    version     2.0;
    format      ascii;
    class       volVectorField;
    location    "0.3";
    object      U;
}
// * * * * * * * * * * * * * * * * * * * * * * * * * * * * * * * * * * * * * //

dimensions      [0 1 -1 0 0 0 0];


internalField   nonuniform List<vector> 
3332
(
(-0.00328788 -47.7446 2.86116e-05)
(-0.020284 -46.3519 0.000176889)
(-0.0211939 -39.9895 0.000185498)
(0.823469 -45.6733 -0.00718632)
(0.580612 -48.1198 -0.00506805)
(0.779872 -48.4356 -0.00680681)
(0.605206 -46.2025 -0.0052829)
(0.644641 -39.7689 -0.0056269)
(0.0332632 -47.7304 -0.00029039)
(-0.0815111 -46.2868 0.000711272)
(0.0835406 -40.8841 -0.000728564)
(0.744605 -46.3457 -0.00649825)
(0.527354 -48.388 -0.00460323)
(0.672915 -48.5984 -0.00587334)
(0.53969 -46.3086 -0.00471099)
(0.568126 -39.7473 -0.00495904)
(0.381776 -28.82 -0.0033336)
(0.225656 -16.9493 -0.00197031)
(-0.0137365 -7.43996 0.000120067)
(0.109244 -1.89076 -0.000955611)
(0.0642339 -2.43171 -0.000626173)
(-0.0610321 -2.78016 0.000504231)
(-0.173848 -2.84597 0.0015087)
(0.0628447 -47.7159 -0.000548568)
(-0.12956 -46.2518 0.00113056)
(0.160817 -41.7798 -0.001403)
(0.667178 -46.8941 -0.00582267)
(0.486379 -48.6039 -0.00424559)
(0.582972 -48.7381 -0.00508836)
(0.491507 -46.4128 -0.00429036)
(0.510245 -39.7376 -0.00445383)
(0.358654 -28.6604 -0.00313179)
(0.203581 -16.729 -0.00177766)
(-0.0230988 -7.33987 0.00020109)
(0.0792576 -1.95916 -0.000694033)
(0.03584 -2.33812 -0.000378517)
(-0.0824534 -2.63307 0.000692308)
(-0.188824 -2.69242 0.00163966)
(0.08578 -47.7031 -0.00074874)
(-0.165118 -46.2364 0.00144082)
(0.215498 -42.6538 -0.00188025)
(0.590599 -47.3456 -0.00515445)
(0.450749 -48.7815 -0.00393459)
(0.506952 -48.865 -0.00442488)
(0.456159 -46.5203 -0.00398175)
(0.46797 -39.742 -0.00408484)
(0.346081 -28.5172 -0.00302207)
(0.190385 -16.5148 -0.00166247)
(-0.0290037 -7.23365 0.000251709)
(0.0529658 -2.00808 -0.000464849)
(0.0068863 -2.24435 -0.000125993)
(-0.104193 -2.49137 0.000883386)
(-0.204393 -2.54462 0.0017758)
(0.102041 -47.6926 -0.000890659)
(-0.188533 -46.2351 0.00164514)
(0.252903 -43.4877 -0.00220674)
(0.515805 -47.7182 -0.00450178)
(0.418041 -48.9326 -0.00364908)
(0.443432 -48.9882 -0.00387049)
(0.430757 -46.6358 -0.00375996)
(0.438446 -39.7612 -0.00382712)
(0.340545 -28.3869 -0.00297358)
(0.181667 -16.3031 -0.0015862)
(-0.033285 -7.11795 0.00028818)
(0.0280655 -2.03586 -0.000247946)
(-0.0228404 -2.14932 0.000133533)
(-0.126563 -2.35462 0.00108012)
(-0.220839 -2.40233 0.00191963)
(0.111489 -47.6858 -0.000973118)
(-0.199498 -46.2475 0.0017408)
(0.276689 -44.2678 -0.00241439)
(0.444096 -48.0256 -0.00387601)
(0.387542 -49.0676 -0.00338284)
(0.391801 -49.115 -0.00341985)
(0.413133 -46.7621 -0.00360604)
(0.419013 -39.7942 -0.00365747)
(0.338797 -28.2651 -0.00295803)
(0.174269 -16.0898 -0.00152136)
(-0.0386594 -6.98777 0.000334625)
(0.00303117 -2.04448 -3.00217e-05)
(-0.0536785 -2.05254 0.000403328)
(-0.149866 -2.2227 0.00128511)
(-0.23836 -2.26537 0.00207288)
(0.113704 -47.6835 -0.000992443)
(-0.197638 -46.2768 0.00172455)
(0.288598 -44.9824 -0.00251839)
(0.377675 -48.2797 -0.00329637)
(0.359252 -49.1956 -0.00313587)
(0.351765 -49.251 -0.0030704)
(0.401302 -46.9001 -0.00350269)
(0.40691 -39.8386 -0.0035518)
(0.337914 -28.1465 -0.00295013)
(0.165642 -15.8711 -0.00144576)
(-0.0480864 -6.84244 0.000417324)
(-0.0247542 -2.0357 0.000211766)
(-0.0856401 -1.95385 0.000683681)
(-0.174246 -2.09536 0.00149958)
(-0.257079 -2.13357 0.0022366)
(0.108973 -47.6863 -0.000951143)
(-0.183683 -46.3272 0.00160277)
(0.288974 -45.6227 -0.00252174)
(0.318715 -48.4921 -0.00278184)
(0.333106 -49.3236 -0.00290762)
(0.322576 -49.3997 -0.00281561)
(0.393159 -47.0486 -0.00343156)
(0.399194 -39.8906 -0.00348443)
(0.33558 -28.0257 -0.00292974)
(0.153108 -15.6429 -0.00133609)
(-0.0621368 -6.68286 0.000540957)
(-0.0565282 -2.00859 0.000488177)
(-0.118972 -1.85507 0.00097702)
(-0.199747 -1.97249 0.00172389)
(-0.277028 -2.00677 0.00241108)
(0.0985549 -47.6946 -0.000860215)
(-0.160186 -46.4009 0.00139774)
(0.278361 -46.1841 -0.00242918)
(0.268932 -48.675 -0.00234738)
(0.309322 -49.4569 -0.00269998)
(0.302794 -49.5619 -0.00264294)
(0.386676 -47.2045 -0.00337494)
(0.393138 -39.9457 -0.00343156)
(0.330204 -27.8973 -0.0028828)
(0.135388 -15.4022 -0.00118117)
(-0.0813221 -6.50959 0.00070936)
(-0.0926327 -1.96449 0.000802212)
(-0.153449 -1.75782 0.00128156)
(-0.226342 -1.85417 0.00195778)
(-0.298127 -1.88484 0.00259562)
(0.0847054 -47.7084 -0.000739332)
(-0.13147 -46.4955 0.00114715)
(0.258393 -46.6668 -0.00225498)
(0.228905 -48.8395 -0.00199805)
(0.288186 -49.5988 -0.00251547)
(0.29009 -49.736 -0.00253203)
(0.380124 -47.364 -0.00331774)
(0.386515 -39.9996 -0.00337375)
(0.321072 -27.757 -0.00280306)
(0.112476 -15.1461 -0.000980914)
(-0.105764 -6.32337 0.000923221)
(-0.132591 -1.90562 0.00114961)
(-0.18875 -1.66339 0.00159441)
(-0.253897 -1.7405 0.00220001)
(-0.320185 -1.76768 0.00278855)
(0.0701324 -47.7272 -0.000612141)
(-0.102535 -46.6049 0.000894643)
(0.232226 -47.0768 -0.00202666)
(0.198308 -48.9951 -0.001731)
(0.270224 -49.7506 -0.00235866)
(0.281818 -49.9184 -0.00245981)
(0.372576 -47.5228 -0.00325184)
(0.378036 -40.0488 -0.00329975)
(0.308609 -27.6019 -0.00269428)
(0.0854361 -14.8725 -0.000744368)
(-0.135041 -6.12494 0.00117875)
(-0.175359 -1.8347 0.00152111)
(-0.224581 -1.57257 0.00191276)
(-0.282192 -1.63163 0.00244864)
(-0.342928 -1.65529 0.00298748)
(0.0571366 -47.7501 -0.000498715)
(-0.0774065 -46.7202 0.000675364)
(0.203909 -47.4245 -0.00177956)
(0.17614 -49.1487 -0.00153751)
(0.255894 -49.9113 -0.00223356)
(0.275567 -50.1045 -0.00240523)
(0.364 -47.6779 -0.00317699)
(0.367523 -40.0913 -0.00320799)
(0.294084 -27.4309 -0.00256758)
(0.056367 -14.5805 -0.000489833)
(-0.169224 -5.91423 0.00147676)
(-0.219574 -1.7546 0.00190484)
(-0.260712 -1.48559 0.00223428)
(-0.310938 -1.52772 0.00270113)
(-0.366021 -1.54769 0.00318949)
(0.0473664 -47.7765 -0.000413442)
(-0.0584548 -46.8336 0.000509983)
(0.177369 -47.7238 -0.00154797)
(0.161014 -49.3049 -0.00140547)
(0.245355 -50.0788 -0.00214157)
(0.269726 -50.29 -0.00235425)
(0.355194 -47.8273 -0.00310014)
(0.355615 -40.1261 -0.00310406)
(0.278972 -27.2444 -0.00243578)
(0.0280796 -14.2685 -0.000241942)
(-0.20798 -5.68889 0.00181447)
(-0.264775 -1.66863 0.00229683)
(-0.296932 -1.40246 0.0025567)
(-0.339817 -1.42897 0.00295467)
(-0.389102 -1.44497 0.00339141)
(0.0411548 -47.8063 -0.000359226)
(-0.0459536 -46.9389 0.000400892)
(0.155946 -47.9888 -0.00136102)
(0.151879 -49.4656 -0.00132572)
(0.238753 -50.2498 -0.00208395)
(0.263786 -50.4716 -0.0023024)
(0.34743 -47.9703 -0.00303238)
(0.343117 -40.1537 -0.00299498)
(0.264977 -27.0434 -0.0023137)
(0.00178408 -13.934 -1.10672e-05)
(-0.252233 -5.44586 0.00220048)
(-0.310446 -1.58073 0.00269299)
(-0.333009 -1.32334 0.00287763)
(-0.368472 -1.33562 0.00320617)
(-0.411788 -1.34724 0.00358991)
(0.0378387 -47.8394 -0.000330283)
(-0.0383372 -47.0349 0.000334429)
(0.141246 -48.2329 -0.00123273)
(0.147511 -49.6313 -0.00128759)
(0.23581 -50.4216 -0.00205826)
(0.257644 -50.6481 -0.0022488)
(0.341599 -48.1068 -0.00298151)
(0.330157 -40.175 -0.00288188)
(0.252923 -26.8292 -0.0022086)
(-0.0226528 -13.5736 0.000203979)
(-0.303342 -5.18062 0.00264739)
(-0.356296 -1.49597 0.00309232)
(-0.368613 -1.2487 0.00319397)
(-0.396518 -1.24793 0.00345227)
(-0.433696 -1.25463 0.00378161)
(0.0360614 -47.8759 -0.000314768)
(-0.0329637 -47.1246 0.000287541)
(0.134333 -48.4672 -0.0011724)
(0.147322 -49.801 -0.00128593)
(0.23625 -50.5916 -0.00206211)
(0.251356 -50.8187 -0.00219392)
(0.33799 -48.2367 -0.00295004)
(0.315766 -40.1905 -0.0027563)
(0.242995 -26.6021 -0.00212211)
(-0.047227 -13.183 0.000420707)
(-0.362251 -4.88879 0.0031636)
(-0.401735 -1.42052 0.00349165)
(-0.403243 -1.17935 0.00350127)
(-0.423531 -1.16611 0.00368928)
(-0.454437 -1.16726 0.00396314)
(0.0343351 -47.9166 -0.000299693)
(-0.0271438 -47.2154 0.000236762)
(0.134824 -48.6995 -0.00117669)
(0.150165 -49.973 -0.00131074)
(0.238839 -50.7575 -0.00208471)
(0.244025 -50.9826 -0.00212995)
(0.335488 -48.3589 -0.00292824)
(0.297415 -40.2004 -0.00259615)
(0.23478 -26.3616 -0.00205064)
(-0.0764143 -12.7571 0.000678251)
(-0.428095 -4.56904 0.00374205)
(-0.445645 -1.36059 0.00388144)
(-0.436277 -1.11635 0.00379406)
(-0.449056 -1.0903 0.00391323)
(-0.473632 -1.08514 0.00413116)
(0.0315764 -47.9618 -0.000275609)
(-0.0188829 -47.3175 0.000164685)
(0.141754 -48.9342 -0.00123718)
(0.155056 -50.1444 -0.00135344)
(0.242106 -50.9165 -0.00211325)
(0.234169 -51.1379 -0.00204394)
(0.331786 -48.4711 -0.00289597)
(0.271697 -40.204 -0.00237171)
(0.22762 -26.1063 -0.00198847)
(-0.116548 -12.2904 0.00103165)
(-0.496549 -4.22691 0.00434619)
(-0.486542 -1.31979 0.00424549)
(-0.467023 -1.06074 0.0040662)
(-0.472596 -1.02046 0.00411977)
(-0.490907 -1.00821 0.0042824)
(0.0270116 -48.0119 -0.00023577)
(-0.00764443 -47.4408 6.66274e-05)
(0.152886 -49.1731 -0.00133434)
(0.159876 -50.3111 -0.00139553)
(0.243285 -51.0649 -0.00212356)
(0.219368 -51.2809 -0.00191478)
(0.323315 -48.5698 -0.00282207)
(0.235115 -40.1998 -0.00205243)
(0.220345 -25.8349 -0.00192553)
(-0.173846 -11.7778 0.00153481)
(-0.560096 -3.87766 0.00491268)
(-0.52303 -1.29708 0.00456866)
(-0.49474 -1.013 0.00431111)
(-0.493607 -0.956395 0.00430412)
(-0.505915 -0.936306 0.00441381)
(0.0210245 -48.0669 -0.000183517)
(0.0059518 -47.5926 -5.20118e-05)
(0.165874 -49.4144 -0.0014477)
(0.162864 -50.4669 -0.00142164)
(0.239401 -51.1975 -0.00208968)
(0.197508 -51.4063 -0.00172402)
(0.306225 -48.6505 -0.00267293)
(0.185396 -40.1862 -0.00161842)
(0.211521 -25.5477 -0.0018495)
(-0.249631 -11.2146 0.00219933)
(-0.610595 -3.54503 0.00536934)
(-0.553658 -1.28704 0.00483811)
(-0.518608 -0.972449 0.0045216)
(-0.511487 -0.897662 0.00446099)
(-0.518323 -0.86909 0.00452249)
(0.014652 -48.1265 -0.000127901)
(0.0199087 -47.776 -0.000173804)
(0.177489 -49.6542 -0.00154909)
(0.161333 -50.6043 -0.0014083)
(0.2267 -51.3077 -0.00197885)
(0.166651 -51.5077 -0.00145473)
(0.276518 -48.7086 -0.00241367)
(0.122 -40.1613 -0.00106503)
(0.199522 -25.2483 -0.0017462)
(-0.336175 -10.602 0.00295775)
(-0.64491 -3.25497 0.00568145)
(-0.577164 -1.28196 0.00504365)
(-0.537899 -0.937358 0.0046914)
(-0.525702 -0.843601 0.00458571)
(-0.527859 -0.806105 0.00460602)
(0.0086655 -48.1902 -7.56544e-05)
(0.0326015 -47.9868 -0.000284573)
(0.185412 -49.8856 -0.00161826)
(0.153855 -50.7143 -0.00134308)
(0.202833 -51.3882 -0.00177058)
(0.1263 -51.5781 -0.00110261)
(0.231351 -48.74 -0.00201947)
(0.0474777 -40.1232 -0.000414633)
(0.179374 -24.9517 -0.00157218)
(-0.421413 -9.94418 0.00370382)
(-0.663831 -3.0239 0.00584926)
(-0.592863 -1.27557 0.00518011)
(-0.551997 -0.90548 0.00481533)
(-0.535816 -0.793374 0.0046745)
(-0.534272 -0.746783 0.00466225)
(0.00423163 -48.257 -3.69597e-05)
(0.0420329 -48.2167 -0.000366875)
(0.186639 -50.1007 -0.00162899)
(0.138359 -50.7879 -0.00120787)
(0.165545 -51.4318 -0.00144517)
(0.0761578 -51.6113 -0.000665019)
(0.168655 -48.7414 -0.00147229)
(-0.0355693 -40.0708 0.000310107)
(0.144389 -24.6755 -0.0012691)
(-0.490224 -9.25537 0.00430377)
(-0.670538 -2.85099 0.00590089)
(-0.600928 -1.26538 0.00524951)
(-0.560513 -0.87492 0.00489016)
(-0.541541 -0.74608 0.00472486)
(-0.537341 -0.690512 0.00468924)
(0.00151179 -48.326 -1.32224e-05)
(0.0479342 -48.454 -0.000418379)
(0.180219 -50.2896 -0.00157298)
(0.114145 -50.8156 -0.00099659)
(0.114692 -51.4313 -0.00100137)
(0.0172029 -51.6009 -0.000150518)
(0.087916 -48.7096 -0.000767624)
(-0.122564 -40.003 0.00106933)
(0.091785 -24.4394 -0.000812121)
(-0.532614 -8.56229 0.00466829)
(-0.666925 -2.72141 0.00585753)
(-0.601682 -1.25086 0.00525483)
(-0.56312 -0.844342 0.00491318)
(-0.542635 -0.700829 0.0047347)
(-0.536809 -0.636679 0.00468475)
(0.000499286 -48.3962 -4.38391e-06)
(0.050227 -48.6849 -0.000438395)
(0.164819 -50.441 -0.0014386)
(0.0803094 -50.7891 -0.000701322)
(0.0518281 -51.3817 -0.000452732)
(-0.0479216 -51.5427 0.00041783)
(-0.0100335 -48.6436 8.72812e-05)
(-0.208865 -39.9173 0.00182253)
(0.0271227 -24.2616 -0.000248835)
(-0.548347 -7.89422 0.00479395)
(-0.653924 -2.6175 0.00573156)
(-0.595167 -1.23174 0.00519658)
(-0.559529 -0.812854 0.00488195)
(-0.538863 -0.656785 0.004702)
(-0.532399 -0.584702 0.00464637)
(0.00111149 -48.4664 -9.73018e-06)
(0.0499222 -48.8963 -0.000435749)
(0.141138 -50.543 -0.00123195)
(0.0389976 -50.7039 -0.000340802)
(-0.0182416 -51.2811 0.000158798)
(-0.116003 -51.4349 0.00101199)
(-0.113727 -48.5447 0.00099232)
(-0.287802 -39.8182 0.00251152)
(-0.0495101 -24.1518 0.000420483)
(-0.535907 -7.27733 0.00467047)
(-0.630372 -2.52505 0.00551495)
(-0.580546 -1.20737 0.00506752)
(-0.549301 -0.779704 0.00479268)
(-0.529892 -0.61314 0.00462384)
(-0.5238 -0.534007 0.00457139)
(0.00199167 -48.536 -1.7414e-05)
(0.0479883 -49.0771 -0.000418887)
(0.109818 -50.5861 -0.000958629)
(-0.00748737 -50.561 6.48787e-05)
(-0.0896154 -51.131 0.000781718)
(-0.180982 -51.2814 0.00157909)
(-0.215257 -48.4176 0.00187851)
(-0.349386 -39.7094 0.00304905)
(-0.131567 -24.1089 0.00113822)
(-0.499957 -6.73542 0.00433565)
(-0.595047 -2.43059 0.00519723)
(-0.556577 -1.17539 0.00485693)
(-0.531851 -0.743609 0.00464029)
(0.00324468 -48.6045 -2.83498e-05)
(0.0451704 -49.2191 -0.000394315)
(0.0739122 -50.5649 -0.000645288)
(-0.054 -50.3667 0.000470811)
(-0.154952 -50.9391 0.00135195)
(-0.234655 -51.0914 0.00204753)
(-0.30506 -48.2715 0.00266236)
(-0.382029 -39.5935 0.00333396)
(-0.215114 -24.1313 0.00186978)
(-0.451364 -6.28923 0.00387099)
(-0.549262 -2.33093 0.00478923)
(-0.523445 -1.13468 0.00456648)
(-0.507079 -0.703137 0.00442395)
(0.00484312 -48.6717 -4.23005e-05)
(0.0413783 -49.3176 -0.000361238)
(0.0364599 -50.4802 -0.000318447)
(-0.0963906 -50.1331 0.000840783)
(-0.207418 -50.7185 0.00180987)
(-0.27202 -50.8779 0.00237367)
(-0.373225 -48.1191 0.00325732)
(-0.377946 -39.4744 0.00329836)
(-0.307989 -24.2001 0.0026838)
(-0.387572 -5.9362 0.00327025)
(-0.487211 -2.22526 0.00424161)
(-0.479212 -1.08429 0.00417906)
(-0.473914 -0.657178 0.00413428)
(0.00685436 -48.7372 -5.986e-05)
(0.0365797 -49.372 -0.000319378)
(0.00213739 -50.3407 -1.89188e-05)
(-0.129717 -49.8765 0.00113166)
(-0.240487 -50.4844 0.00209852)
(-0.289215 -50.6564 0.00252379)
(-0.409982 -47.9708 0.00357813)
(-0.342464 -39.3554 0.00298872)
(-0.395468 -24.2475 0.00344963)
(-0.299136 -5.73062 0.00248126)
(-0.40378 -2.11194 0.0035081)
(-0.421352 -1.01842 0.00367249)
(-0.431502 -0.602279 0.00376374)
(0.00896574 -48.7999 -7.82868e-05)
(0.030599 -49.3858 -0.000267191)
(-0.0249206 -50.1611 0.000217218)
(-0.150173 -49.6159 0.00131022)
(-0.248915 -50.2552 0.00217211)
(-0.281824 -50.4444 0.00245933)
(-0.405767 -47.8382 0.00354134)
(-0.277676 -39.2464 0.00242333)
(-0.438934 -24.2671 0.00383006)
(-0.16731 -5.70076 0.00133934)
(-0.298702 -1.97264 0.00258248)
(-0.351067 -0.930713 0.00305692)
(-0.380859 -0.535359 0.00332121)
(0.0108255 -48.8596 -9.45183e-05)
(0.0245165 -49.3685 -0.000214115)
(-0.0411136 -49.9626 0.000358538)
(-0.154624 -49.374 0.0013491)
(-0.229927 -50.0528 0.00200643)
(-0.247032 -50.2644 0.00215574)
(-0.355345 -47.7395 0.00310128)
(-0.181392 -39.1684 0.00158306)
(-0.410622 -24.2638 0.0035834)
(0.0104837 -5.86068 -0.000174128)
(-0.178919 -1.77147 0.00152462)
(-0.274167 -0.812546 0.00238297)
(-0.32388 -0.453156 0.00282327)
(0.0116473 -48.9151 -0.000101692)
(0.0197264 -49.3332 -0.00017231)
(-0.0457659 -49.7671 0.000399145)
(-0.144001 -49.1717 0.00125643)
(-0.187675 -49.8973 0.00163772)
(-0.189944 -50.1381 0.00165757)
(-0.265664 -47.6947 0.00231859)
(-0.0624073 -39.1472 0.000544762)
(-0.309642 -24.2809 0.00270232)
(0.207556 -6.16725 -0.00186596)
(-0.0514374 -1.49333 0.000394885)
(-0.195931 -0.665075 0.00169697)
(-0.262022 -0.359458 0.00228264)
(0.0105454 -48.9658 -9.20767e-05)
(0.0179424 -49.2958 -0.000156736)
(-0.0411691 -49.5921 0.000359034)
(-0.12322 -49.0219 0.00107511)
(-0.133299 -49.7994 0.00116319)
(-0.124406 -50.0769 0.00108563)
(-0.158364 -47.7128 0.00138213)
(0.0521876 -39.1926 -0.000455236)
(-0.166971 -24.3319 0.0014572)
(0.345682 -6.52248 -0.00305216)
(0.0642622 -1.128 -0.000629916)
(-0.117682 -0.485933 0.001012)
(-0.193578 -0.255659 0.00168472)
(0.00710674 -49.0113 -6.20665e-05)
(0.0199156 -49.2687 -0.000173947)
(-0.0329921 -49.4448 0.000287674)
(-0.0995357 -48.9258 0.00086844)
(-0.0807666 -49.7575 0.000704739)
(-0.0660618 -50.0781 0.000576463)
(-0.0582866 -47.7881 0.000508699)
(0.13281 -39.2975 -0.00115882)
(-0.026754 -24.406 0.000233599)
(0.44421 -6.90497 -0.00389958)
(0.17657 -0.788845 -0.00160633)
(-0.0352591 -0.305395 0.000292074)
(-0.116257 -0.157571 0.00100958)
(0.00146483 -49.0509 -1.28268e-05)
(0.0244688 -49.2575 -0.000213675)
(-0.0275095 -49.3217 0.000239825)
(-0.0799584 -48.874 0.000697606)
(-0.0428066 -49.7584 0.000373461)
(-0.0280846 -50.1254 0.000245035)
(0.0130908 -47.9017 -0.000114292)
(0.169448 -39.4445 -0.00147865)
(0.0557756 -24.4982 -0.000486838)
(0.424621 -7.19319 -0.00371406)
(0.217998 -0.394143 -0.00193427)
(0.0463785 -0.108503 -0.000414656)
(-0.0255464 -0.0601208 0.000218972)
(-0.0059231 -49.0821 5.16506e-05)
(0.0292533 -49.2587 -0.000255422)
(-0.0286986 -49.2117 0.000250199)
(-0.0686405 -48.8495 0.000598848)
(-0.0252973 -49.7808 0.000220657)
(-0.0141848 -50.191 0.000123718)
(0.0437065 -48.0241 -0.000381452)
(0.157324 -39.6044 -0.00137261)
(0.108754 -24.5902 -0.000948982)
(0.427258 -7.61155 -0.00367769)
(0.180873 -0.308792 -0.00159177)
(0.0543195 -0.0267266 -0.000474959)
(0.0287673 -0.00372287 -0.000251825)
(-0.0134579 -49.0999 0.00011741)
(0.0335377 -49.264 -0.000292809)
(-0.0347325 -49.1022 0.000302854)
(-0.0632111 -48.8343 0.000551475)
(-0.0231939 -49.8026 0.000202289)
(-0.0171008 -50.2439 0.000149104)
(0.0331261 -48.1211 -0.000289107)
(0.0941649 -39.708 -0.000821946)
(0.0958205 -24.5108 -0.000836549)
(-0.0481384 -7.66644 0.0004862)
(-0.0191326 -49.1075 0.000166934)
(0.0371682 -49.2709 -0.000324494)
(-0.0413663 -48.9922 0.000360747)
(-0.0568738 -48.8267 0.000496185)
(-0.0199757 -49.823 0.000174203)
(-0.0119674 -50.2869 0.0001043)
(0.0335794 -48.2058 -0.00029303)
(0.09617 -39.7849 -0.00083934)
(0.106737 -24.4341 -0.000931929)
(-0.0028372 -7.61592 2.21706e-05)
(-0.0222079 -49.1091 0.000193773)
(0.0384864 -49.2758 -0.000336005)
(-0.0484502 -48.884 0.000422571)
(-0.0509512 -48.8289 0.000444515)
(-0.0170605 -49.8466 0.000148759)
(-0.00682862 -50.3312 5.94435e-05)
(0.0362502 -48.2953 -0.00031636)
(0.100354 -39.8658 -0.000875863)
(0.115256 -24.3863 -0.00100625)
(0.00777808 -7.53792 -7.03407e-05)
(-0.0225285 -49.1065 0.00019657)
(0.0368858 -49.2732 -0.000322047)
(-0.0550704 -48.7786 0.000480352)
(-0.0447208 -48.84 0.000390161)
(-0.0130192 -49.8723 0.00011349)
(-6.83512e-05 -50.3755 4.38661e-07)
(0.0412401 -48.3853 -0.000359961)
(0.108061 -39.9482 -0.00094314)
(0.122598 -24.3379 -0.00107035)
(0.0114253 -7.45146 -0.000102491)
(-0.0203734 -49.1029 0.00017776)
(0.0325349 -49.26 -0.00028409)
(-0.060487 -48.6802 0.000527634)
(-0.0382191 -48.8614 0.000333442)
(-0.00793729 -49.9023 6.91373e-05)
(0.00720594 -50.4224 -6.30532e-05)
(0.0475358 -48.479 -0.000414952)
(0.116276 -40.0336 -0.00101484)
(0.13029 -24.2887 -0.00113751)
(0.013501 -7.35876 -0.000120855)
(-0.0164506 -49.0994 0.000143521)
(0.0260372 -49.2332 -0.000227396)
(-0.0641397 -48.5908 0.000559527)
(-0.0310856 -48.8927 0.000271211)
(-0.00167804 -49.9359 1.45095e-05)
(0.0150789 -50.4716 -0.00013177)
(0.0548887 -48.5753 -0.000479132)
(0.125133 -40.1213 -0.00109214)
(0.13851 -24.2359 -0.00120927)
(0.0152181 -7.25917 -0.00013608)
(-0.0115659 -49.0971 0.000100887)
(0.0187361 -49.1934 -0.000163689)
(-0.0651062 -48.5139 0.000567981)
(-0.0227738 -48.9344 0.000198692)
(0.00596457 -49.9737 -5.21881e-05)
(0.023693 -50.5236 -0.000206954)
(0.063378 -48.675 -0.000553194)
(0.134688 -40.2113 -0.00117553)
(0.147477 -24.1796 -0.00128755)
(0.016915 -7.15294 -0.00015112)
(-0.00680308 -49.0969 5.93181e-05)
(0.0121683 -49.1435 -0.000106381)
(-0.0628138 -48.4518 0.000547996)
(-0.0128982 -48.986 0.00011252)
(0.01523 -50.0154 -0.000133055)
(0.0333717 -50.5785 -0.000291429)
(0.0731478 -48.7779 -0.00063844)
(0.145105 -40.3035 -0.00126645)
(0.157356 -24.1193 -0.0013738)
(0.0186766 -7.03913 -0.000166759)
(-0.0030031 -49.0994 2.61522e-05)
(0.00788192 -49.0893 -6.89774e-05)
(-0.0567238 -48.4071 0.000494866)
(-0.000980036 -49.0473 8.52153e-06)
(0.0261407 -50.0609 -0.00022829)
(0.0442825 -50.6366 -0.000386658)
(0.0842843 -48.8841 -0.000735634)
(0.15645 -40.398 -0.00136547)
(0.168241 -24.0544 -0.00146883)
(0.0204827 -6.91722 -0.000182803)
(-0.000727368 -49.1054 6.28951e-06)
(0.00677135 -49.0386 -5.92843e-05)
(-0.0468973 -48.3816 0.000409123)
(0.0133824 -49.118 -0.000116814)
(0.0387974 -50.1101 -0.000338769)
(0.0565483 -50.698 -0.000493715)
(0.0968928 -48.9938 -0.000845677)
(0.168777 -40.4947 -0.00147306)
(0.180254 -23.9846 -0.00157371)
(0.0223345 -6.78638 -0.000199271)
(-0.000315289 -49.1156 2.69162e-06)
(0.00948954 -49.0001 -8.30013e-05)
(-0.0336221 -48.3767 0.000293278)
(0.0300868 -49.1973 -0.000262598)
(0.05297 -50.1627 -0.000462477)
(0.0700154 -50.763 -0.000611257)
(0.110938 -49.1072 -0.000968272)
(0.181977 -40.5935 -0.00158828)
(0.193426 -23.9093 -0.0016887)
(0.0241612 -6.64584 -0.00021554)
(-0.00163553 -49.1308 1.4213e-05)
(0.0157821 -48.9823 -0.000137909)
(-0.0177654 -48.3933 0.000154896)
(0.0486752 -49.2851 -0.000424828)
(0.0683377 -50.2188 -0.000596616)
(0.0844102 -50.8319 -0.000736897)
(0.126345 -49.2245 -0.00110275)
(0.195902 -40.6944 -0.00170982)
(0.207815 -23.8281 -0.00181431)
(0.0259316 -6.49487 -0.000231336)
(-0.0041721 -49.1519 3.63498e-05)
(0.0247913 -48.9913 -0.000216523)
(-0.000394143 -48.4317 3.29101e-06)
(0.0683761 -49.3808 -0.000596774)
(0.0844501 -50.2781 -0.000737255)
(0.0992442 -50.9048 -0.000866369)
(0.142939 -49.3459 -0.00124758)
(0.21032 -40.7975 -0.00183566)
(0.223456 -23.7408 -0.00195086)
(0.0276194 -6.33274 -0.00024643)
(-0.00695539 -49.1798 6.06397e-05)
(0.0348018 -49.0304 -0.000303877)
(0.0172353 -48.4916 -0.000150569)
(0.0881495 -49.4843 -0.000769359)
(0.100796 -50.3409 -0.000879936)
(0.113996 -50.9822 -0.00099512)
(0.160559 -49.4719 -0.00140137)
(0.224978 -40.9031 -0.00196359)
(0.240329 -23.6469 -0.00209816)
(0.0292196 -6.15845 -0.000260776)
(-0.00866393 -49.2154 7.5549e-05)
(0.0434606 -49.0988 -0.000379439)
(0.0341167 -48.5729 -0.000297898)
(0.106832 -49.5952 -0.000932426)
(0.117033 -50.4073 -0.00102166)
(0.128113 -51.0645 -0.00111833)
(0.179002 -49.6033 -0.00156234)
(0.239623 -41.0115 -0.00209143)
(0.258307 -23.5467 -0.00225511)
(0.0306746 -5.97169 -0.00027386)
(-0.00784499 -49.2595 6.83993e-05)
(0.0481714 -49.1909 -0.000420552)
(0.049445 -48.6757 -0.000431664)
(0.123098 -49.7132 -0.0010744)
(0.132873 -50.478 -0.00115991)
(0.140875 -51.1525 -0.00122971)
(0.197992 -49.7405 -0.00172809)
(0.254107 -41.1232 -0.00221787)
(0.277376 -23.44 -0.00242157)
(0.0320757 -5.77183 -0.000286497)
(-0.00336387 -49.3128 2.92865e-05)
(0.0469269 -49.2977 -0.000409702)
(0.0629715 -48.8001 -0.000549694)
(0.136021 -49.8381 -0.00118719)
(0.148293 -50.5538 -0.0012945)
(0.152085 -51.2466 -0.00132754)
(0.217564 -49.8843 -0.0018989)
(0.268414 -41.2387 -0.00234273)
(0.297523 -23.3269 -0.00259744)
(0.0335251 -5.55784 -0.000299577)
(0.00541249 -49.3756 -4.73144e-05)
(0.0386174 -49.4079 -0.000337203)
(0.0748458 -48.9469 -0.000653294)
(0.144993 -49.9697 -0.0012655)
(0.163398 -50.6356 -0.00142634)
(0.161557 -51.3476 -0.0014102)
(0.237651 -50.0356 -0.00207421)
(0.282627 -41.3588 -0.00246678)
(0.318709 -23.2078 -0.00278238)
(0.035126 -5.32934 -0.000313999)
(0.018309 -49.4485 -0.000159876)
(0.0235711 -49.5101 -0.000205915)
(0.0858006 -49.1166 -0.000748858)
(0.150146 -50.1078 -0.00131047)
(0.178507 -50.7245 -0.0015582)
(0.169527 -51.4564 -0.00147975)
(0.258342 -50.1952 -0.00225479)
(0.296966 -41.4842 -0.00259193)
(0.34098 -23.0827 -0.00297678)
(0.0369936 -5.08537 -0.000330781)
(0.0344066 -49.5318 -0.000300375)
(0.00345582 -49.5957 -3.03925e-05)
(0.0968153 -49.3096 -0.000844941)
(0.151961 -50.2521 -0.0013263)
(0.193818 -50.8216 -0.00169182)
(0.176594 -51.5738 -0.00154141)
(0.279841 -50.3639 -0.00244241)
(0.311773 -41.6155 -0.00272117)
(0.364465 -22.9519 -0.00318179)
(0.0392688 -4.82505 -0.000351164)
(0.0520551 -49.626 -0.000454412)
(-0.0187415 -49.6606 0.000163301)
(0.109036 -49.5255 -0.000951546)
(0.151637 -50.4026 -0.00132346)
(0.20983 -50.9276 -0.00183156)
(0.183338 -51.7004 -0.00160027)
(0.30231 -50.5425 -0.0026385)
(0.32746 -41.7535 -0.0028581)
(0.389311 -22.8153 -0.00339867)
(0.0420622 -4.54717 -0.000376119)
(0.0691906 -49.7316 -0.000603972)
(-0.0393894 -49.7064 0.000343477)
(0.12344 -49.7633 -0.00107722)
(0.150539 -50.5592 -0.00131386)
(0.226783 -51.0432 -0.00197951)
(0.190554 -51.8374 -0.00166325)
(0.326001 -50.7318 -0.00284526)
(0.344406 -41.8987 -0.00300601)
(0.415776 -22.6728 -0.00362968)
(0.045458 -4.25038 -0.000406383)
(0.083674 -49.8493 -0.000730388)
(-0.0547519 -49.741 0.000477533)
(0.140724 -50.0206 -0.00122804)
(0.150145 -50.7215 -0.00131042)
(0.244745 -51.1688 -0.00213626)
(0.19889 -51.9854 -0.00173601)
(0.351025 -50.9323 -0.00306365)
(0.362822 -42.0519 -0.00316675)
(0.444171 -22.5242 -0.00387754)
(0.0494946 -3.93308 -0.000442269)
(0.0935071 -49.9796 -0.000816217)
(-0.0615277 -49.7774 0.000536659)
(0.16107 -50.2944 -0.0014056)
(0.151577 -50.8891 -0.00132292)
(0.263424 -51.3045 -0.00229927)
(0.208684 -52.1453 -0.00182149)
(0.377275 -51.1448 -0.00329273)
(0.382614 -42.2136 -0.00333948)
(0.47484 -22.3695 -0.00414524)
(0.0541569 -3.59341 -0.000483639)
(0.0972295 -50.1233 -0.000848715)
(-0.0575158 -49.8323 0.000501647)
(0.18379 -50.5804 -0.00160389)
(0.155373 -51.0615 -0.00135606)
(0.281926 -51.4498 -0.00246074)
(0.219674 -52.3178 -0.0019174)
(0.404247 -51.3697 -0.00352812)
(0.403208 -42.3848 -0.00351922)
(0.508127 -22.2087 -0.0044358)
(0.0593625 -3.22937 -0.000529958)
(0.0941186 -50.2803 -0.000821577)
(-0.0420704 -49.9231 0.000366861)
(0.207002 -50.8731 -0.00180649)
(0.161365 -51.2373 -0.00140838)
(0.298708 -51.604 -0.0026072)
(0.230737 -52.5031 -0.00201395)
(0.430789 -51.6076 -0.00375977)
(0.42335 -42.5668 -0.003695)
(0.544317 -22.0425 -0.00475169)
(0.0650686 -2.83875 -0.000580827)
(0.0841711 -50.4493 -0.000734775)
(-0.01651 -50.0644 0.000143807)
(0.227767 -51.1654 -0.00198774)
(0.167797 -51.4144 -0.00146454)
(0.311038 -51.7654 -0.00271481)
(0.239592 -52.7011 -0.00209122)
(0.454649 -51.8591 -0.00396802)
(0.440781 -42.7615 -0.0038471)
(0.583595 -21.8727 -0.00509452)
(0.0713662 -2.41942 -0.000636754)
(0.0681903 -50.6273 -0.000595319)
(0.0155665 -50.2643 -0.00013611)
(0.241712 -51.4485 -0.00210947)
(0.17137 -51.5892 -0.00149575)
(0.314851 -51.9309 -0.00274808)
(0.242358 -52.9106 -0.00211535)
(0.471961 -52.1244 -0.00411911)
(0.451824 -42.9724 -0.00394341)
(0.625931 -21.7034 -0.00546404)
(0.0784766 -1.9687 -0.000699799)
(0.047492 -50.8073 -0.000414695)
(0.0483768 -50.5198 -0.000422429)
(0.243114 -51.7106 -0.00212173)
(0.166684 -51.7556 -0.00145489)
(0.303979 -52.0957 -0.0026532)
(0.232763 -53.1286 -0.00203158)
(0.476101 -52.4036 -0.00415519)
(0.450625 -43.2046 -0.00393283)
(0.670749 -21.5421 -0.0058552)
(0.0875342 -1.48523 -0.000779905)
(0.0235132 -50.9766 -0.000205445)
(0.0739856 -50.8137 -0.0006459)
(0.224826 -51.9356 -0.00196215)
(0.145774 -51.9034 -0.00127242)
(0.269325 -52.2508 -0.00235076)
(0.201029 -53.3487 -0.0017546)
(0.455925 -52.6954 -0.00397905)
(0.427798 -43.4664 -0.0037334)
(0.715938 -21.4019 -0.00624957)
(0.100031 -0.96378 -0.000889228)
(-0.00288108 -51.1136 2.48794e-05)
(0.0826505 -51.1115 -0.000721506)
(0.178141 -52.1011 -0.00155473)
(0.0971868 -52.015 -0.000848386)
(0.197355 -52.3814 -0.00172263)
(0.131949 -53.5592 -0.00115165)
(0.393097 -52.9971 -0.00343064)
(0.368614 -43.7707 -0.00321656)
(0.757204 -21.3067 -0.00660963)
(0.121643 -0.409062 -0.00108097)
(-0.0323677 -51.1827 0.000282186)
(0.0631883 -51.3583 -0.000551654)
(0.0922725 -52.174 -0.000805343)
(0.00480855 -52.0611 -4.21591e-05)
(0.0681169 -52.4612 -0.000594682)
(0.00223862 -53.7373 -1.9565e-05)
(0.257981 -53.3008 -0.00225124)
(0.249108 -44.1365 -0.00217308)
(0.782937 -21.2958 -0.00683382)
(0.157337 0.193573 -0.00139565)
(-0.0671396 -51.1286 0.000585609)
(0.00311504 -51.4774 -2.73895e-05)
(-0.045902 -52.1054 0.00040055)
(-0.153242 -51.994 0.00133723)
(-0.146117 -52.4456 0.00127507)
(-0.223026 -53.8404 0.00194645)
(0.00241887 -53.5882 -2.05633e-05)
(0.0291705 -44.5904 -0.000252756)
(0.770084 -21.4366 -0.00672089)
(0.22202 0.818614 -0.0019615)
(-0.111399 -50.8709 0.000971824)
(-0.110885 -51.3678 0.000967507)
(-0.252552 -51.8236 0.00220407)
(-0.406826 -51.7418 0.00355039)
(-0.479713 -52.2613 0.00418656)
(-0.592571 -53.7948 0.0051716)
(-0.448369 -53.8316 0.00391406)
(-0.362115 -45.1636 0.0031634)
(0.666688 -21.8365 -0.00581732)
(0.323691 1.47771 -0.00285104)
(-0.172654 -50.2976 0.00150636)
(-0.291117 -50.9005 0.00254043)
(-0.549396 -51.2236 0.00479476)
(-0.793869 -51.1985 0.0069283)
(-0.979137 -51.797 0.00854527)
(-1.17998 -53.4807 0.0102981)
(-1.18703 -53.953 0.0103611)
(-1.03049 -45.8922 0.00899833)
(0.362672 -22.6521 -0.00316182)
(0.468353 2.05809 -0.00411449)
(-0.260262 -49.2591 0.00227087)
(-0.548245 -49.917 0.00478446)
(-0.960811 -50.1571 0.00838536)
(-1.35315 -50.2107 0.0118094)
(-1.69919 -50.8844 0.0148295)
(-2.0691 -52.7092 0.0180577)
(-2.31787 -53.7708 0.0202305)
(-2.14995 -46.7808 0.0187706)
(-0.356635 -24.0408 0.00311991)
(0.71215 2.45291 -0.00624118)
(-0.379783 -47.5701 0.00331391)
(-0.884785 -48.23 0.00772156)
(-1.49906 -48.4336 0.0130829)
(-2.10539 -48.5724 0.0183745)
(-2.67806 -49.2926 0.0233725)
(-3.3147 -51.1929 0.0289284)
(-3.92383 -52.9436 0.0342455)
(-3.97045 -47.7054 0.0346614)
(-1.9003 -26.3082 0.0165998)
(1.21003 2.3594 -0.0105769)
(-0.528848 -45.0486 0.00461477)