/*--------------------------------*- C++ -*----------------------------------*\
| =========                 |                                                 |
| \\      /  F ield         | OpenFOAM: The Open Source CFD Toolbox           |
|  \\    /   O peration     | Version:  v2006                                 |
|   \\  /    A nd           | Website:  www.openfoam.com                      |
|    \\/     M anipulation  |                                                 |
\*---------------------------------------------------------------------------*/
FoamFile
{
    version     2.0;
    format      ascii;
    class       volScalarField;
    location    "0.03";
    object      p_rgh;
}
// * * * * * * * * * * * * * * * * * * * * * * * * * * * * * * * * * * * * * //

dimensions      [1 -1 -2 0 0 0 0];


internalField   nonuniform List<scalar> 
3596
(
102701
102704
102703
102730
102763
102762
102851
103108
102695
103170
102604
102994
102567
103769
103133
102717
103996
103670
103820
103237
102787
102701
103271
102604
102590
101821
102644
101813
102273
101784
102646
103023
101878
102648
102628
102647
102633
102630
102700
102706
102744
102694
103029
102697
103050
102623
103054
103054
103028
102728
102709
102697
102716
102689
103170
103356
103194
103326
103118
103191
102700
101998
103368
103488
103455
102477
103001
102635
103298
103166
103070
103279
103283
102712
103023
102790
102734
103065
103126
104527
102936
103205
103024
103183
103079
103404
103194
103112
103120
102695
103363
103314
103912
103183
102700
102685
102969
102627
102586
102685
102350
103086
102746
103340
102843
102640
102664
102642
103196
102668
102665
102670
102667
102687
102698
102695
102637
102641
102565
103061
103067
103383
102752
102572
103040
102566
103072
103137
102904
103137
103143
103068
103094
103203
103518
104021
103042
103014
102698
102571
102645
103014
103231
102590
101773
102576
102554
102282
103990
103757
103914
102968
103936
102697
102612
104299
102269
104221
102743
102664
102699
102705
102710
102877
102647
102648
102625
102631
102536
102584
102653
102610
102778
103446
103214
103319
103183
103195
102827
103010
102571
102829
102577
103235
102607
103184
102688
103082
102672
102382
102733
103001
102406
103261
103221
103444
103606
100762
101198
102825
103267
98594.7
103214
103087
102655
102730
102706
102554
102456
102463
102698
103137
101805
103031
102699
102464
102695
102678
102628
102715
102713
102716
102717
102537
102567
102587
102844
103062
102691
102689
101879
102693
102952
102686
102689
102687
102687
102689
102692
102564
102566
102587
102262
102592
102589
102691
103190
103186
103045
102773
103190
102081
103188
102894
103035
103027
102695
103029
102665
103037
103031
102687
103688
102648
102645
103010
102693
103302
103583
103484
103480
103466
102098
103227
102669
103131
100077
102664
102718
102720
102684
102560
102823
102811
102688
102581
102484
103140
103081
103112
102698
102703
103194
103193
103124
102675
103197
103197
103804
102874
102583
103526
102688
103660
103772
103076
102795
102702
102606
102075
102635
103130
102768
102282
102935
102648
102943
103965
102923
102917
103133
103127
103174
102658
104061
102676
102696
103352
102153
102714
102699
102576
102661
102988
102654
102664
102695
102634
102766
102638
102690
102820
102885
103107
103117
103296
103484
102605
101518
102345
102643
102694
103150
103253
103266
103229
102666
102758
102562
102259
102641
102713
102929
101941
103124
102793
102782
102792
102650
102604
102544
102968
103051
103204
103275
103198
103201
103195
103200
101860
102718
102595
102816
102778
102408
102619
103313
102892
102668
102666
102833
102861
103181
103211
102676
103195
103204
102670
103179
102591
102655
103062
103168
103516
103566
103065
103415
102677
102593
103323
103302
99111.8
102453
102704
102696
103030
103045
103047
103371
103015
102665
102695
102690
102672
103250
103245
102759
102703
102672
102722
102703
102703
102802
101977
102658
102758
102060
102290
103023
102228
102313
103285
102311
102816
102988
102672
102695
102686
102696
102697
102420
102689
103320
103386
103326
103395
103352
103536
102638
102579
102677
103210
103155
103226
103129
102708
102706
102897
102701
101826
102690
102739
102797
102608
102697
102068
102191
102218
103403
102228
102785
103047
102710
103516
102932
102725
102672
102562
103251
102642
102644
102762
102795
103039
102689
102530
102688
102650
102644
102646
101812
102795
102588
102615
103218
102699
102688
102681
102692
102691
102684
103475
102566
102545
102668
103261
103071
103193
103186
103176
103549
103186
103463
103361
103142
103309
102814
102325
103492
102729
102217
103434
102811
102788
103344
102472
102724
102264
102615
102569
102249
103326
103304
103312
102670
101414
102837
103014
103155
103062
103180
102759
102905
103675
102697
102800
102754
102725
102707
102707
102942
102960
102939
102950
102541
102689
103821
102945
102705
100537
102588
102641
103499
100825
102026
102674
102516
102617
102691
102643
102685
102721
102646
102673
102585
102551
102687
102596
102653
102669
102575
103029
102726
102588
102610
101334
101534
102193
103310
102913
102916
104006
103492
103307
103619
101909
103003
102373
102618
102718
102722
102722
101910
102601
102592
102691
102652
102690
102515
102510
102534
102530
103240
102559
102555
102724
102669
103068
102982
103044
102991
102420
102430
102393
102391
102447
102439
102961
103141
103111
103123
102661
103117
103152
103145
102451
103185
102242
102225
102158
103190
103208
102695
102677
102413
103259
103303
103299
102257
102701
102763
103162
103278
103088
103248
103762
102693
102698
102566
102687
102681
102099
102673
102685
102689
103239
102779
102798
103217
103227
103238
102633
102643
102545
102847
102534
102809
102575
103118
103123
102679
102434
102696
102668
103347
102687
102692
102669
102697
102713
102581
103290
102689
102541
102677
100824
102561
103118
102602
99928.2
103184
103113
103128
103149
102698
103155
103136
102700
102606
102628
100997
102283
103892
103720
103479
103400
101468
102775
102783
102837
103162
102649
102753
102682
102216
102360
102952
102059
102297
102686
102696
100828
103005
103096
102957
102617
101855
102696
103183
102683
102670
102646
102651
102719
102721
102903
102401
98329.3
102680
102398
102745
101211
102681
100675
104072
99766
99642.7
102612
102841
99558.4
103217
99136.1
102725
102673
102862
103224
103174
102702
102845
103175
103243
102637
102636
103195
102630
102694
102697
103207
103190
102668
102628
102663
103196
102931
102633
102651
102566
102692
102659
102637
102954
102649
102674
102803
102623
102678
103259
102661
103229
102675
103272
102878
102874
103094
103013
102578
102740
102669
102919
102979
103306
100992
103193
103196
102653
102647
102648
102424
102589
102603
102441
102615
102598
103119
103114
102481
102508
102717
102759
102952
102590
102845
102668
103256
102011
102073
102734
102741
102849
102812
102789
102746
102758
102733
102722
102689
102713
102697
102702
102721
103109
102970
102492
103082
103309
103299
102039
103064
102695
102690
102693
102697
102693
102801
102879
102866
102851
102853
102048
102674
102634
103213
102655
101910
102642
103351
101857
102939
101879
103229
102887
103879
102976
101846
102687
102684
102683
102684
102615
102588
102599
102592
102575
103175
103175
103178
103178
102700
102694
102696
102701
102691
103172
102689
102700
100361
103139
103155
102672
102888
102777
103016
103119
103303
104304
103114
102843
103831
103104
102063
103833
103763
102211
102112
102549
102942
103479
102902
102608
102588
103184
103231
102717
102639
102698
102672
102691
102529
102686
102597
102554
102786
102604
102714
103133
103187
103078
103117
102972
103194
102972
102960
102672
102639
103214
102663
102710
102711
103227
102696
102626
102650
102605
102648
102658
102642
102643
102866
102628
102617
102661
102662
103101
103136
103093
103099
102666
103233
103175
102559
102704
102634
102664
102650
102702
102662
102760
102635
102923
103590
102661
102732
102701
102670
102656
102996
102657
102657
103010
102692
103109
102635
102690
102898
103151
102902
103070
103119
103167
103175
103133
103142
103169
99542
102001
103166
102882
103000
103160
101798
102785
103537
102688
103158
103168
103163
102703
101859
103279
103254
103255
103298
103289
103289
102699
102700
97924.1
98077.9
102705
102690
98670.7
102758
99157.1
103143
103087
102643
102653
102650
102658
102713
102736
102692
102686
102619
102605
102606
102575
102740
102701
102740
102701
103093
102703
103215
102697
102809
103189
103534
103176
102706
102197
103017
102965
103146
103106
102691
102694
102738
103110
102802
102702
102904
102879
102579
102569
102589
103180
103151
102975
102911
102871
102903
102905
102922
103167
103140
102813
99789.1
103140
103190
103142
102789
103197
103191
102636
103206
103021
103279
103516
103499
102219
101985
103192
103757
102741
103195
102663
103736
102700
102678
102640
102690
102696
102711
103392
102672
103218
102717
103231
102799
102950
103112
102879
103180
103209
102877
102910
102820
103232
103240
103309
101600
101595
103000
102649
102713
102704
102747
102730
102575
102518
102622
102634
102657
102715
102735
102684
102661
102893
102732
102677
102685
102645
102629
102708
102635
102856
102661
102611
103188
103476
102622
103206
103166
103139
103091
102504
102778
102581
102683
103110
103102
103064
99501.3
102052
102710
102787
102699
102705
102298
102972
102585
102417
103055
103244
103179
100273
102674
101142
99830.9
99455.5
102335
102784
102450
101505
99181.2
100231
99590.3
102835
102544
101477
102101
101875
103287
102652
103266
102971
102469
103266
103239
103260
103252
103029
103007
103084
103079
102704
102693
102684
102690
103113
102594
102695
102597
103085
102720
103100
103090
102757
102703
102222
102455
102935
103536
102706
102650
102617
102747
102534
102735
102720
103205
102432
102722
102713
103218
103223
103203
103178
103224
102787
102692
103024
103012
102947
103191
103166
103394
102124
101958
101861
101840
103114
103120
102206
102588
103490
103029
102912
103967
102170
102892
103109
102816
102734
102766
103080
103091
102643
102688
102715
102589
102589
102874
103774
102656
102694
102704
102691
102692
102691
102702
102360
102260
103125
102646
102693
103131
103222
103900
102706
102681
102677
102677
102634
102679
102741
102707
102682
102697
102700
102680
102665
102581
102648
102747
102711
103021
103177
103175
103171
103168
102711
102817
102355
103214
102359
102492
102687
103257
103293
102526
102625
102817
102690
102736
102690
102708
102580
102562
103075
103069
102562
102585
102616
103036
101608
103751
102628
102648
102653
103557
102654
103039
103088
103083
103213
103238
103204
103220
102948
102599
100125
103188
102677
102576
102639
102615
103266
102548
102566
102598
102682
102658
102775
102579
102119
102677
102679
102735
102673
102682
102684
102605
102620
102623
102614
102940
103292
103077
103010
103002
103008
102999
103188
102124
102337
104234
103169
103169
103184
103183
103310
98755.6
103520
103053
103187
102659
103186
102680
102914
104041
102681
102682
102590
103081
103256
103201
103168
103240
102565
102674
102909
102593
102614
102577
103178
103179
103185
102713
102711
102679
102463
102581
102666
103048
103231
103088
104639
102705
102701
102679
104021
102726
103207
103566
102648
102662
101506
102664
102656
102661
102535
102844
102750
102616
102702
102391
102425
102192
102647
103214
102738
102713
102606
102706
102705
102555
102860
102584
102733
103129
103114
103123
102685
102730
102677
102560
102701
102698
102698
102857
102424
102312
103418
102761
102733
102767
103236
102748
102688
102119
102407
102783
103152
102668
102685
102701
103132
103139
102697
102684
102383
102903
103011
102309
102465
102991
103105
103960
103960
104026
102964
102685
102667
102686
102691
102691
102691
102690
102682
102626
102666
102697
102700
102632
102667
103037
103062
103187
103195
103196
103192
102679
102678
102680
102596
102621
102576
101645
102573
103181
103166
103299
103124
103146
103746
102211
101881
101994
103922
103858
104006
102889
102764
102780
98573.5
102727
102481
102435
102714
103062
103137
102807
101748
103688
102315
102693
102874
102691
102669
102713
102677
102692
102560
101501
102541
103000
103182
102702
102699
102700
102702
102700
102701
103341
102913
103712
103678
101164
100382
102854
101812
102680
103146
102653
103148
103158
102712
102694
102544
102551
103161
102819
103440
103365
102466
102948
102878
103248
102580
102720
102917
103091
102600
102691
103151
102695
102696
102713
103099
102722
103171
103288
102512
102702
103078
103026
103113
103203
103213
102980
102962
102699
102638
103159
103182
102692
102699
103482
102689
103177
102318
103170
103430
103172
103181
102611
103177
102901
101787
101810
102699
102767
102699
102692
102690
101777
102690
102701
102716
102757
102774
102762
102711
102822
102506
102319
102693
102678
102701
103066
102701
102573
103280
103230
103203
103545
102840
104656
103811
103162
102727
99435.7
102876
98390.5
101245
102863
103130
103241
103134
103129
99841.4
103158
102710
102691
102724
102744
102961
102657
102928
102978
102653
97982.7
102742
102576
102832
102573
103178
102765
102700
103115
102890
102392
102833
102653
103056
103182
102701
103058
103189
102687
103296
102655
102747
102745
103056
100963
103126
102236
102243
103390
103180
103243
103195
102646
103203
103121
103195
103044
103002
103338
102699
102691
103238
102693
103290
102612
102677
102705
102847
102812
102858
102280
102186
103371
102717
102762
102661
102677
102480
100515
102643
103192
103184
103193
102653
102691
102707
102636
102646
102670
102773
102733
102801
102717
102631
102817
103114
103167
103138
103128
103343
103340
103334
103394
103352
103335
102689
103362
102647
103346
102626
104044
102636
103513
103731
102605
103808
103136
103477
104043
103089
102676
102667
102663
102571
102770
103009
102676
102587
103063
102690
103085
102692
102476
103125
102512
102532
103201
102698
102701
102662
103225
102759
102673
102626
103348
102868
103299
103340
103072
103185
103154
103196
102672
102676
102599
102578
102578
102578
103184
103151
102971
103150
103169
103169
103204
103159
103254
103343
103445
103107
103016
102997
102977
104008
103899
103006
102401
103819
102993
103383
102644
102638
102686
102597
102590
102678
102700
102707
102676
102662
102583
102467
102628
102651
102716
102745
102634
102981
102610
103153
103082
103191
103274
103096
103251
103322
103374
103373
103339
103452
103398
103241
103129
102954
102215
103264
103273
103285
103271
103701
102200
102720
102679
102692
102703
102699
102695
102712
102615
102583
102606
102610
103194
103140
103264
103189
102595
103197
102696
102457
102472
102537
102533
102670
102665
103259
102692
102695
102686
103117
102984
102732
102862
102844
103449
102812
103085
103842
102933
102987
102957
102643
102820
102100
102639
102642
102644
102645
102653
103281
103147
102663
102653
102602
103154
103126
102293
102288
102869
98061.6
101029
101960
100991
101482
102096
98096.1
102669
102785
102697
98041.9
98430.9
103102
101020
102596
102685
102511
102584
102984
103143
103211
102635
102963
101164
101526
101729
101775
101694
103261
103194
102571
102590
103130
101989
102601
102634
102573
102401
101851
102657
100733
103278
103235
100978
102533
102042
102675
102700
102709
102710
102687
102074
102503
102306
102465
102600
102615
102576
102206
102512
103084
103208
103209
103241
102384
102208
102114
102696
102590
102574
102694
102811
102681
102730
102759
102381
102228
102725
103199
103205
103217
102654
102674
102703
102674
102553
102523
103494
103120
102713
102712
102729
102695
102708
102696
102697
101949
102638
103171
102651
103060
102760
102715
103276
103782
103530
102736
102804
102785
102683
102689
102712
102691
102696
102695
102374
102732
103105
103100
101334
102913
103111
103296
103031
102994
103066
103196
103011
103142
103198
102519
102462
102676
102620
102726
102704
102627
102591
102595
102876
102437
103186
102968
103071
103243
102710
102746
103108
103133
103125
102648
102710
103168
101960
102940
102371
102681
103058
101807
102896
102687
102692
103182
102704
102684
103188
103178
103187
102713
102694
102731
102637
102656
103209
102696
103193
103230
103240
102662
102003
103150
102650
102007
100687
102690
102707
102647
102121
103201
103392
102985
102662
103341
102703
102632
102609
102607
103018
103147
103103
102639
103146
102650
102617
102622
103276
102609
102613
103072
103271
103267
102635
103273
103339
102895
102709
103260
101163
99903
103239
102621
102746
102765
102784
103096
102836
103056
102807
102827
103742
103055
103098
103106
103102
103132
103152
103097
103142
102620
102627
102684
102688
102686
102693
102550
101450
102444
103193
103272
103172
103147
103494
103167
103133
103199
102921
103574
103897
102820
102613
102510
102456
102798
102699
102637
102638
102648
102631
102828
103211
103221
102642
102623
103192
103190
102657
102644
102650
102620
103161
103147
103078
99974.9
102616
102204
101145
103356
102182
102468
102665
102616
101929
102947
102898
103303
103128
102707
102703
102699
103104
103030
102642
102984
102635
102698
102822
103123
103106
102694
103095
102926
102891
102883
103330
102840
103339
103038
103167
102695
102698
102593
102691
102702
102659
102645
102675
103193
102535
102713
102567
102602
103257
103191
102590
102569
103047
103271
102689
102706
102670
102701
102686
98511.5
103039
103049
103412
103277
103282
103103
103045
102947
102840
102825
102899
102922
103555
103388
103055
103062
102720
103327
102737
103202
103278
103282
102502
102690
102833
102583
102612
102670
102169
102665
102672
102663
102599
102948
102964
102950
102924
102662
102932
102920
102713
102350
102650
102649
102594
102136
102630
102671
102663
102711
102392
102707
102660
102640
102748
102744
102732
102816
102697
103356
102510
102993
103180
102490
103365
102462
103377
104320
99030.6
102046
98405.5
104577
102499
102725
102628
103217
102657
103228
103081
102641
102649
103294
103075
103305
103229
102699
103296
103344
103306
103296
103306
100804
102577
103302
103285
102215
102461
103301
102672
102666
102684
102688
102695
102697
102575
102673
102665
102668
102771
103165
102605
102706
103162
102714
103521
103189
102589
102683
102684
102679
102688
103207
103185
102695
102699
102681
103004
103003
102960
103021
102897
102992
102674
102670
102751
103186
102684
102677
102651
102656
102799
102663
102580
102535
102655
102582
102683
102661
102876
102736
102740
102701
102497
102488
102245
102651
99385.9
102699
102700
102696
103174
103219
103214
103133
98391.4
102667
103124
103134
103219
102695
103255
103258
102698
102696
102799
103336
102313
102886
103740
102283
102696
103052
103176
103476
102636
102596
102862
102764
102856
103175
102654
102702
103180
102576
102573
102581
102683
102690
103300
103274
103282
101053
102286
102081
101488
101735
103056
102908
102839
103257
102866
103232
102461
102180
102722
102863
102074
101448
103251
102685
103209
102780
103216
103131
102438
103214
103224
102070
103092
101982
102688
102675
103128
102093
103087
103286
103069
102668
102683
103286
102583
102492
103128
102936
102709
102789
103209
102697
102928
102600
102291
102757
102618
103163
103217
103274
103180
103117
103148
103195
103137
102703
102820
102796
102674
102679
102681
102730
102578
102697
102992
103185
103176
103172
103087
103108
103182
103096
102722
102692
102682
103117
102695
102676
102804
102676
103184
103236
103105
103311
102828
102377
102689
103102
102660
102658
102612
102594
99898.6
103242
102676
102599
102618
102638
103239
102683
103170
103216
103149
103189
102690
102692
102693
102396
102453
103015
103032
102973
102969
102362
102301
103156
103163
102582
103138
102543
103140
102545
102767
103410
103462
103187
103182
103076
103155
103210
103359
103249
103136
103224
101404
101500
103152
102652
103159
103218
103266
103245
102648
102656
103396
103380
103315
102282
102683
103660
103835
102690
102689
102690
102690
102481
102539
102499
102089
102694
103936
102727
102707
103206
103274
103213
103267
103432
101979
102945
103061
102804
102715
99019.3
98486.2
99456.3
102705
102539
102543
102051
102480
101850
102791
101999
102904
102529
102304
102656
102671
102581
103052
102593
102873
102719
102721
102715
102519
102449
102562
102676
102526
102684
102685
102673
102572
102539
102579
102523
102683
102825
102835
102900
102973
103188
103143
103181
103150
103156
102690
102692
103241
102696
102908
102842
102698
102860
102685
102695
103223
102900
102815
103227
103227
103222
103219
103223
103530
103247
102696
102696
102608
102556
102630
102761
103252
103068
103740
103337
103331
103389
103351
102991
103446
103255
103209
102679
103071
102688
103056
102593
102695
102582
102692
103265
103256
102971
103162
103148
102983
102204
101636
102660
102695
102696
102684
102643
102606
103193
102671
102682
101318
102734
102727
102729
102723
102511
102997
102972
103073
103071
102848
102864
103048
102907
102237
102885
102311
102867
102876
103178
103329
103387
103456
102977
102713
102966
103122
101991
101829
103169
102601
102728
102638
102698
102719
102300
102676
102657
102650
102654
102937
102787
103151
102656
102701
102696
102697
102697
102568
102910
103190
102890
103129
103123
103156
103118
102673
102669
103209
102672
102671
102982
102588
102690
100502
102579
102580
103200
102637
102680
102682
102578
102576
103190
103192
103195
103147
103150
103158
103155
101989
102591
102623
101785
102647
101115
100244
102616
100944
101976
102796
102391
103101
103087
103037
103179
102680
102724
103200
103372
103096
102771
102649
102277
102227
103041
103147
103163
103149
101133
101382
102660
102688
102688
102667
102663
103138
102578
102598
102590
102836
102673
103020
103019
103181
103191
102689
102684
102675
102690
103690
103192
103688
102968
103188
103207
103078
103442
103190
102465
102679
103295
103403
103182
103069
102757
102966
103307
102737
103268
103585
102709
102635
102464
103444
103447
103451
102502
102032
102432
102342
102441
102643
102691
102686
102685
102755
102478
102686
103072
103173
103156
102684
102688
102670
102699
102696
102538
102607
103282
102927
103271
102869
98197.5
102902
97897.2
99191.7
99094.3
103137
102182
102109
102686
102690
102684
102683
102570
102738
102665
102338
102441
102860
103092
102266
102629
102578
102584
102581
102961
103113
103193
103349
103056
103700
103179
103173
103172
103167
103351
103234
103504
102759
102207
102677
102663
102686
102796
102550
102661
102833
102723
102400
102381
102389
102705
103247
102876
103180
103171
103172
103175
103186
103182
103281
102995
102575
103163
102974
102770
103156
100621
102709
102762
102083
99776.1
99604.3
102339
102281
101922
102283
102689
102696
103183
102695
103157
102693
103103
103177
102691
101853
99974.9
99917.7
102695
102694
102688
101819
101701
102663
102669
103287
102744
102810
102803
103345
102931
102677
102667
102748
102743
102710
102731
102544
102476
102540
102886
102683
102948
102882
102948
102910
102577
102602
102611
101867
101890
101797
103080
103206
102738
102708
102712
102436
102700
102635
102657
102948
103331
102617
103226
103077
103047
103246
97902
101759
102687
102918
103169
102515
103325
102632
102640
102636
102704
102701
102683
102680
102686
102743
102708
102702
102767
102783
102698
102682
102679
102393
102779
102695
102832
102896
102642
102780
102616
102838
102620
103161
103155
103512
102616
102717
102707
103417
102725
102748
102789
102697
103205
103270
102812
102806
102714
103263
102677
102680
102674
102694
102603
102527
102608
102783
103144
103133
103060
102982
103042
103254
103217
102929
103233
103489
101812
103849
101802
102026
102416
103263
102871
102797
102918
102783
102700
102760
103100
103135
103093
102815
102874
102197
102686
102875
103015
103231
102810
103215
103216
102909
103064
102963
103045
103069
103084
102998
103296
102700
102669
102806
103874
102698
103201
103211
103865
103050
103222
103007
103019
102541
102680
102707
103296
103206
103241
103144
103146
102623
103213
102615
103194
103122
103167
103170
103159
102751
102683
102665
103062
102971
103056
102704
102707
102707
102682
102661
102431
102481
102663
102698
102704
102691
102701
102683
102691
103291
103288
102494
103313
103282
102534
102796
102721
103013
103001
102663
103009
102778
102761
103204
103729
103949
103283
103190
103187
102347
103192
102901
102404
102099
102761
102647
102571
102620
102340
102874
102776
102771
102403
102679
103163
103274
102769
102629
102664
103189
103168
103095
103163
103161
103100
103008
103195
103210
103144
103265
103191
103246
103168
103248
102691
102711
103234
102643
102661
102665
102733
102730
102675
102668
103054
103036
103776
101817
102227
102728
103179
103111
102699
102699
102849
102699
103760
102599
103195
103103
103786
103077
103185
103174
102360
102466
101458
102126
102617
102626
102694
102709
102603
103106
102616
103111
103247
102704
102694
103270
102923
102655
102902
102885
102663
102600
102914
102592
102589
102929
103147
103159
102980
103004
103458
103197
103405
102333
101882
102040
102686
103268
102705
102723
103191
102847
102755
102426
102480
103030
103060
102656
103040
103223
103049
103179
102607
102613
102588
103195
103102
103142
103105
103114
102460
103162
102371
102088
102116
103185
102665
102808
102842
102672
102752
102667
102762
102709
102705
102696
102778
102912
102564
103159
103098
102556
102395
102567
103210
103130
103175
102432
100956
102258
101963
101506
101207
102695
102407
101582
102621
102711
102703
102701
102704
102560
102683
101809
103158
102681
102678
102679
103160
103161
102698
103218
103199
102699
102701
102699
102699
102596
102600
102594
102592
102779
102789
102696
102698
102695
102697
102699
102775
102658
102658
102746
102667
102751
102794
102693
102693
102883
102705
103146
103199
103195
102233
102387
103045
103033
103203
103206
103204
103211
103207
103208
102689
102251
102539
103131
103138
103181
103104
102465
100705
101389
100569
99967.5
103183
103199
103202
103207
102495
102721
102711
102734
102687
102677
102675
102692
102630
102820
99751.7
98810.8
99110.7
103158
102576
102028
101873
102223
103280
103274
103374
102310
102067
102724
102733
102724
102744
102738
102742
102867
104320
104070
101848
103058
103136
103145
103130
103319
103048
103099
103179
102517
102685
101598
103271
103168
102592
102176
102843
103635
102779
102678
103336
103248
104029
102634
102643
102763
102619
102728
103097
103116
)
;

boundaryField
{
    Inlet
    {
        type            prghTotalPressure;
        p0              nonuniform List<scalar> 0();
        value           nonuniform List<scalar> 0();
    }
    Outlet
    {
        type            fixedValue;
        value           nonuniform List<scalar> 0();
    }
    Symmetric
    {
        type            symmetry;
    }
    Wall
    {
        type            fixedFluxPressure;
        gradient        uniform 0;
        value           nonuniform List<scalar> 
213
(
102630
102651
102667
102679
102689
102696
102699
102696
102689
102673
102650
102623
102600
102589
102599
102638
102701
102780
102860
102932
102996
103049
103091
103124
103151
103172
103188
102632
102652
102668
102679
102690
102695
102699
102699
102688
102672
102648
102626
102593
102590
102602
102648
102709
102787
102862
102937
103001
103054
103094
103128
103154
103175
103190
102647
102641
102646
102663
102660
102662
102677
102674
102676
102685
102684
102688
102694
102693
102696
102696
102698
102699
102695
102698
102696
102689
102694
102684
102673
102682
102676
102650
102663
102657
102617
102637
102643
102594
102612
102594
102571
102592
102573
102575
102590
102580
102614
102614
102612
102672
102667
102690
102752
102740
102764
102836
102820
102844
102913
102897
102919
102981
102965
102984
103038
103024
103039
103084
103071
103087
103118
103109
103118
103147
103138
103147
103169
103162
103168
103186
103181
103186
103195
102636
102655
102643
102669
102661
102682
102674
102688
102684
102700
102693
102699
102699
102690
102699
102685
102697
102666
102681
102648
102661
102599
102630
102608
102617
102575
102592
102593
102593
102645
102621
102716
102665
102801
102739
102883
102822
102952
102901
103014
102970
103062
103029
103106
103075
103133
103111
103158
103142
103177
103165
103192
103183
102636
102656
102670
102682
102691
102695
102696
102692
102683
102663
102637
102606
102579
102569
102589
102642
102712
102796
102876
102948
103011
103062
103103
103133
103159
103178
103193
)
;
    }
    procBoundary3to1
    {
        type            processor;
        value           nonuniform List<scalar> 
32
(
103109
102624
102626
102889
103105
102651
102628
102627
102784
102875
102910
102625
102635
102748
102806
102689
103010
102625
102965
102921
102731
102251
102630
102925
102642
103000
102631
103117
102624
102675
103219
102992
)
;
    }
    procBoundary3to2
    {
        type            processor;
        value           nonuniform List<scalar> 
34
(
103200
103203
103695
103248
103249
103198
103249
103710
103176
103209
103197
103215
103212
103254
103224
103492
103207
103201
103199
103228
103235
103197
103222
103363
103235
103220
103337
103257
103244
103363
103464
103197
103271
103197
)
;
    }
}


// ************************************************************************* //
