/*--------------------------------*- C++ -*----------------------------------*\
| =========                 |                                                 |
| \\      /  F ield         | OpenFOAM: The Open Source CFD Toolbox           |
|  \\    /   O peration     | Version:  v2006                                 |
|   \\  /    A nd           | Website:  www.openfoam.com                      |
|    \\/     M anipulation  |                                                 |
\*---------------------------------------------------------------------------*/
FoamFile
{
    version     2.0;
    format      ascii;
    class       volVectorField;
    location    "0.03";
    object      U;
}
// * * * * * * * * * * * * * * * * * * * * * * * * * * * * * * * * * * * * * //

dimensions      [0 1 -1 0 0 0 0];


internalField   nonuniform List<vector> 
3596
(
(-0.0245045 -0.000753887 0.139353)
(-0.0318587 0.00171278 0.141243)
(-0.0257302 0.00325309 0.143086)
(0.0608629 0.00523636 0.266471)
(0.0542142 -0.000727827 0.259233)
(0.0683032 0.00701576 0.255615)
(-0.335336 0.00784496 -0.0370794)
(0.0239739 -0.00175667 0.0284442)
(-0.0108044 -0.00102991 0.129778)
(0.0138026 -0.00371073 -0.0334123)
(0.157232 0.0411757 -1.61474)
(0.375084 0.0280396 0.0663679)
(0.574215 0.0228497 -2.15643)
(-0.264272 0.0277313 -13.0902)
(0.00223955 0.000562675 0.0129968)
(-0.21865 -0.0147787 0.118903)
(-0.0994724 0.0365301 -11.5718)
(-0.478782 -0.0187797 -2.32873)
(-0.28992 -0.024392 -0.830857)
(0.16798 -0.00290075 -0.233761)
(0.0166979 -0.0128181 0.210253)
(0.0899469 0.00381526 0.287576)
(0.515841 0.0395288 -0.329106)
(0.027642 -0.00338572 0.310485)
(-0.0123109 -0.0383653 0.258768)
(-0.153903 0.0270032 -3.16372)
(-0.00234555 -0.00106178 0.107614)
(0.303166 -0.0399109 -3.78979)
(-0.0115976 0.0420378 -3.19653)
(0.0768901 0.0509782 -3.12815)
(-0.0351083 -0.0002275 0.224941)
(-0.458563 -0.0171266 -2.89595)
(0.461946 -0.018569 -3.81448)
(-0.0213895 -0.0668605 0.205317)
(-0.00546952 -0.00843721 0.107998)
(0.00212374 0.0170492 0.0695782)
(-0.0043121 -0.00538941 0.111205)
(-0.00530344 0.00446898 0.123276)
(-0.00420949 0.00235205 0.1336)
(-0.0474032 -0.00769462 0.150934)
(-0.0466573 -0.00430599 0.122329)
(-0.0128947 0.000675347 0.126043)
(0.0563606 -0.00733554 0.0949674)
(-0.00341698 0.000549884 0.125288)
(0.03584 0.00657701 0.0772922)
(-0.0110191 0.00541082 0.259606)
(0.00232513 0.00326903 0.0665211)
(0.0658831 0.00492437 0.0683128)
(0.0534183 -0.000950549 0.0959615)
(0.0239789 -0.0130147 0.268494)
(0.0255516 0.00297143 0.278914)
(0.00491963 0.0384643 0.130424)
(0.00930543 -0.000363806 0.241608)
(0.0204678 0.000464894 0.290562)
(0.0589311 0.00368981 -0.0334599)
(0.215968 0.0544964 -1.35186)
(0.0855431 -0.00158621 -0.0734479)
(0.254436 0.0226242 -0.157215)
(0.000730191 0.00488237 0.00989968)
(0.191934 0.015073 -0.166937)
(-0.0237976 -0.00095031 0.142605)
(-1.14601 -0.0458604 -2.05409)
(0.362001 -0.0111461 -0.158194)
(-0.0375708 0.0239991 -0.476517)
(0.499681 0.0187899 -0.223818)
(-0.0713139 0.00321639 0.374808)
(0.00703493 0.0106526 0.110796)
(0.125762 0.00801082 0.326109)
(0.193564 0.0098077 -0.22769)
(0.00389362 0.00592839 -0.031138)
(0.198724 0.00796312 0.0499208)
(0.16774 0.0121824 -0.261425)
(0.24472 0.003552 -0.21185)
(-0.36564 0.0238136 -13.3554)
(-0.168533 0.033927 -11.715)
(0.237354 -0.0745388 -3.7805)
(-0.304043 0.0593468 -0.694595)
(0.268623 -0.0310294 -2.29735)
(0.0943222 0.00939314 -0.389671)
(-0.174663 0.0349787 -11.4264)
(0.0352606 0.0015891 0.144682)
(0.0673917 0.00506108 -0.0790359)
(0.0693327 -0.00259162 0.0893983)
(0.00368401 -0.00343911 -0.0370973)
(0.0727264 0.00802659 0.0406853)
(0.0382419 -0.0248891 -0.0236623)
(0.40522 0.0144759 0.142605)
(0.268751 0.023225 -1.04383)
(0.248679 -0.0190074 -0.915323)
(-0.0100684 -0.00140367 0.118023)
(0.326042 -0.032485 -1.31822)
(0.327905 -0.00541454 -0.0846245)
(-0.493146 -0.0138167 -1.4376)
(0.123337 0.00584345 -0.0814124)
(0.0100938 0.00559359 0.0906566)
(-0.0585764 0.00539407 0.190294)
(0.0294786 -0.00227099 0.1273)
(-0.0154619 -0.0398012 0.239666)
(0.0111222 0.0288551 0.348787)
(0.0139026 0.0161795 0.148599)
(-0.977781 0.0160041 0.166299)
(0.0220926 -0.000493656 0.036415)
(0.0265014 0.0137047 0.280522)
(0.32726 0.026091 -0.0332498)
(0.318741 0.00322713 0.18221)
(-0.0541926 0.00321288 0.238441)
(-0.00471514 -0.0132382 0.0809931)
(-0.0220424 -0.0141511 0.237527)
(0.0511927 0.0026559 -0.0586645)
(0.00767875 0.00213048 0.116089)
(-0.0231499 0.0235808 0.0941707)
(-0.00250231 -0.0155078 0.114919)
(0.00152282 0.00171392 0.12909)
(-0.0151505 0.0075386 0.184444)
(-0.00816968 0.01104 0.150304)
(-0.0184846 0.00725002 0.164387)
(-0.0287034 -0.00644122 0.243373)
(-0.0401956 0.00452783 0.233666)
(-0.0281478 -0.00270495 0.317885)
(0.0265854 -0.00241853 0.065852)
(0.0230854 0.00186232 0.0659021)
(0.221998 -0.0302011 -2.76938)
(0.0158724 0.0242689 0.219354)
(-0.036559 0.00422659 0.303914)
(0.108221 0.00673155 0.0553555)
(-0.0484311 -0.0053962 0.304449)
(0.0405387 0.00690798 0.0558736)
(0.00914113 -0.000347836 0.00204643)
(0.13583 0.00477884 0.17697)
(0.00424189 0.00815246 0.000839683)
(0.0147369 0.00978072 -0.00528821)
(0.0396036 0.00410412 0.0547052)
(0.0316229 -0.00041542 0.0339387)
(0.0293039 0.000285688 -0.0643249)
(0.109971 -0.0191117 -2.73013)
(-0.192327 0.0265054 -1.90789)
(0.155651 -0.0193408 -2.93241)
(-0.192336 0.0824876 -2.46345)
(-0.0105147 -0.00203962 0.114503)
(-0.0746582 0.00280476 0.308967)
(0.00689659 0.00430022 0.260124)
(0.00214816 0.00583739 0.102033)
(0.1021 0.00206029 -0.0996376)
(0.169487 -0.0245018 -3.70486)
(0.358563 -0.0789289 -1.15191)
(0.0264667 0.0938462 -1.54749)
(-0.278538 0.0272738 -12.3691)
(0.542504 0.0542842 -2.96871)
(-0.136728 -0.0175238 -1.23348)
(-0.322326 -0.000727221 -1.40585)
(-0.460868 -0.0132033 -1.30841)
(-0.143864 0.0112343 -0.0867832)
(-0.275437 -0.0087037 -1.18304)
(0.0137886 0.00569306 0.0917918)
(-0.0108004 0.0324264 0.207692)
(-0.0487701 0.0216226 -0.919202)
(0.269557 -0.00257508 0.842644)
(-0.130319 0.110676 -0.926436)
(-0.141145 -0.0157381 0.131643)
(-0.00664299 -0.000830691 0.110735)
(-0.00154033 -0.0244242 0.10495)
(-0.0188452 0.00184933 0.132957)
(-0.0237759 0.0013022 0.134062)
(-0.497201 0.0100848 -0.2479)
(-0.00162983 -0.00696283 0.292622)
(-0.0582042 0.00100594 0.232711)
(-0.0593225 -0.00312735 0.24962)
(-0.0517473 0.00169311 0.24567)
(-0.298191 -0.0457448 0.26252)
(0.00279959 0.0432447 0.326323)
(-0.0560198 0.000468041 0.22696)
(-0.0274555 -0.00579959 0.256436)
(0.0931207 0.00210798 0.247308)
(0.3762 0.0270062 -0.643396)
(0.0593136 0.000904425 -0.0859522)
(0.972529 0.0795687 -0.646384)
(-0.00153309 -0.00528293 -0.0251046)
(0.0213773 0.00506915 -0.0521395)
(-1.25289 -0.0145496 -0.72536)
(0.0686003 0.0024016 0.090133)
(0.00586364 0.0323131 0.242681)
(0.115015 0.00376147 0.212362)
(0.0164737 0.0170353 0.298739)
(0.0997191 -0.00129321 -0.100965)
(0.0145057 0.00930064 0.310515)
(0.0846802 0.00665637 -0.0561241)
(-0.03442 -0.00784897 0.193966)
(0.00328874 -0.000281972 0.033969)
(-0.0204966 0.0372333 0.116842)
(-0.576394 0.015545 -0.573313)
(0.247066 -0.0829575 -4.37778)
(-0.211633 0.0526176 -0.913819)
(0.173835 0.0448186 -2.58049)
(0.0916511 0.00327754 -0.0987115)
(0.0773915 0.00677902 -0.0879476)
(0.296909 0.0311047 -0.0378674)
(0.318884 0.0258742 -1.41484)
(0.396329 0.0336594 -3.4891)
(-0.154595 0.00399686 -3.46768)
(-0.305692 0.0293056 -12.5181)
(0.233802 0.0212665 -0.606509)
(1.13102 -0.0322525 -2.34853)
(0.38807 0.00177705 -0.201445)
(0.0595907 -0.0440741 -0.428241)
(0.274722 -0.0625431 -3.83088)
(-0.0900836 -4.92744e-05 0.0207382)
(0.250695 -0.0806228 -3.94932)
(-0.0368896 -0.00725054 0.326624)
(-0.52351 0.0183556 -2.75469)
(-0.286503 -0.0232462 -3.49564)
(-0.0100016 0.00794878 0.0887841)
(0.00890511 -0.000960291 -0.00500154)
(0.25376 -0.0109351 -4.00467)
(0.0131361 3.60617e-06 0.0907004)
(-0.00815231 -0.0309611 0.125491)
(-0.108243 -0.0121617 0.373093)
(0.000954587 0.00201545 0.0870905)
(2.89917e-05 -0.00169239 0.0913624)
(0.00535752 0.0259555 0.24782)
(-0.0171407 -0.000413746 0.129582)
(-0.0256261 8.28341e-05 0.130312)
(-0.0456095 0.00707555 0.105044)
(-0.0404142 0.00637264 0.114472)
(-0.102976 0.00604122 0.325435)
(-0.271829 -0.021717 0.246549)
(-0.154882 0.0129481 0.26572)
(0.00209534 0.0140022 0.194599)
(0.0740497 0.00388901 0.0559234)
(-0.000996586 0.0160456 0.0698715)
(0.010993 0.00600324 0.0927021)
(0.260178 0.0494735 -3.20755)
(0.00820096 0.00681602 0.0861704)
(0.054374 0.00265114 0.126769)
(0.00179766 0.00150362 0.11816)
(-0.00246736 -0.00144679 0.122336)
(0.000817167 -0.00131086 0.120114)
(0.00732768 -0.00410031 0.114343)
(-0.00945665 -0.00494083 0.115063)
(-0.00965181 -0.00151864 0.125122)
(-0.00543836 0.00178063 0.332488)
(-0.0014785 -0.000206102 0.324733)
(-0.00720327 0.00983502 0.329974)
(2.14997 0.0976885 -1.7547)
(-0.000428163 0.0164197 0.334903)
(-0.00532814 0.00348337 0.34059)
(-0.0143556 -0.00139551 0.112272)
(0.0142543 -0.00127051 -0.042467)
(0.00179362 -0.00575483 -0.0256382)
(0.0923901 0.00324582 0.059984)
(0.57018 -0.00475259 -0.244353)
(0.00965917 0.000479809 -0.0451445)
(0.276428 0.073183 -1.97711)
(0.124823 0.0419998 -0.02425)
(-0.0275126 0.0451849 0.00616671)
(0.0770223 0.000703602 0.0684069)
(0.0885039 0.00219926 0.0723332)
(0.0171501 0.00306561 0.0919518)
(0.0965787 0.00439609 0.0636951)
(-0.0100904 -0.0251015 0.0964143)
(0.0699573 0.00124576 0.0839158)
(0.0711018 -0.00120436 0.0819052)
(-0.0118265 -0.0139998 0.131335)
(0.473106 -0.0106957 -0.758212)
(-0.00593806 -0.0141421 0.272928)
(0.0285115 -0.000297606 0.321186)
(0.298187 0.0241801 0.0676177)
(0.00258411 0.0134869 0.0676253)
(-0.475452 0.0375851 -0.0935035)
(-0.0692231 -0.100908 0.0558007)
(0.415082 -0.00737852 -0.20412)
(0.379329 0.0715401 -0.374182)
(0.0498763 0.0130736 -0.450858)
(0.873108 -0.0310318 -1.11972)
(0.0999201 0.00637474 -0.082889)
(0.105121 0.00185256 0.306138)
(-0.255712 0.0371848 -2.97896)
(-1.2512 -0.0238344 0.108241)
(-0.00358424 0.00107137 0.112952)
(-0.0226998 0.00622883 0.114211)
(-0.0189984 0.00114237 0.120179)
(0.00444369 0.00410323 0.119026)
(-0.185118 -0.0290241 0.254908)
(-1.04098 -0.0309305 -0.106806)
(0.0787634 0.00846703 0.233904)
(-0.0164905 0.0148822 0.0819945)
(0.285795 0.0119058 0.388941)
(0.0713388 0.0107344 0.381964)
(0.120607 0.00825087 -0.00644016)
(0.11827 0.000493496 0.0314712)
(0.127569 -0.000438877 0.0111772)
(0.00366198 -0.00176912 0.111761)
(-0.0178975 0.000463032 0.109027)
(0.0259737 0.00446673 -0.0519342)
(0.0195428 -0.00307531 -0.0457534)
(0.0262814 0.000353204 0.010476)
(-0.00192276 -0.0286951 0.0945851)
(0.0365654 0.00329651 -0.0570079)
(0.0289458 -0.00305613 -0.0501061)
(-0.161122 -0.0231624 -0.982292)
(0.156319 0.00514569 0.195684)
(-0.0587297 0.0052415 0.301469)
(-0.0234632 -0.00534284 -1.03984)
(0.00722173 0.000207139 0.109788)
(0.0707335 0.0236267 -0.522339)
(-0.255483 0.00205296 -1.13148)
(0.107196 0.00923538 0.0391673)
(0.966342 0.0041541 -1.52619)
(-0.0202726 -0.00150076 0.166074)
(-0.200452 0.0036909 0.0600718)
(-0.109749 -0.0575696 0.5826)
(-0.0132364 -0.00041824 0.126533)
(0.0284523 -0.00711138 0.00779251)
(-0.00738498 -0.00250404 0.0676295)
(-0.161361 -0.0309965 0.620682)
(0.0964035 -0.00846956 0.151451)
(-0.0163832 0.0314778 0.201769)
(0.118788 0.0112739 0.1581)
(-0.461559 0.00137633 -1.90287)
(0.140057 0.00526622 0.167441)
(0.155525 0.007779 0.169392)
(0.0312127 0.00307419 0.0136668)
(0.0271706 0.000635727 0.0124117)
(0.0797204 0.00355543 -0.0341006)
(-0.0303239 -0.0351399 0.174086)
(-0.151029 -0.0432922 -1.91594)
(-0.0229901 0.0413961 0.140042)
(0.00734116 -0.0358028 0.123621)
(-1.00254 -0.0475317 -1.06592)
(-0.348476 0.0127978 0.282777)
(-0.0208208 0.00105664 0.134709)
(-0.00454558 -0.00474708 0.118823)
(-0.0263893 -0.00573786 0.325108)
(0.0180814 -0.00107849 0.0910434)
(0.0497849 0.0217174 0.117229)
(0.0307267 -0.0022787 0.316388)
(0.00099967 -0.014088 0.103336)
(-0.0111586 0.00233979 0.129004)
(-0.0049722 0.00296946 0.330945)
(-0.0224129 -0.0351085 0.090312)
(0.0264046 0.00624258 0.323506)
(0.329977 0.0160624 0.289004)
(0.350197 0.00414254 0.19999)
(0.230518 -0.0761158 -4.02886)
(0.112444 0.00925348 0.0185794)
(0.145732 0.0155969 0.00674331)
(0.256914 0.0429107 -0.0590797)
(0.129646 0.0208569 -0.418561)
(-0.0253924 0.0116334 0.275844)
(0.537479 0.000839621 -3.55983)
(0.500851 0.0275409 -3.31305)
(0.0246513 0.00228022 0.316106)
(-0.0157006 0.00812007 0.109672)
(0.0105665 0.00492055 -0.0180884)
(0.229072 0.00686856 -0.250823)
(0.208261 0.011599 -0.277514)
(0.136737 0.0135833 -0.178404)
(0.00923942 -0.00251411 0.118609)
(0.224876 0.00371195 0.246987)
(0.054149 0.00243369 0.340795)
(-0.83376 -0.134319 0.106524)
(-0.227805 0.00248414 0.214863)
(-0.00270422 -0.000742879 0.0732657)
(0.084575 0.00464572 0.150487)
(0.294152 0.0950319 -1.7256)
(-0.000345659 -0.0023085 0.00808623)
(-0.00486026 -0.00915629 -0.0253634)
(0.0100344 0.00105934 0.00963472)
(-0.504122 -0.0258533 -0.150567)
(-0.00228064 0.000905128 0.115797)
(0.318985 0.00645059 0.330775)
(0.0291626 -0.000133166 0.349548)
(0.370936 0.0166439 0.0846139)
(0.173884 0.0105484 0.0590318)
(0.0405666 0.0032275 -0.0594468)
(-0.245457 -0.00958758 -0.21464)
(0.0394345 0.00323505 -0.0565545)
(0.0390499 0.00269863 -0.0599205)
(0.0289584 -0.00202923 -0.0482763)
(0.0318394 -0.00310302 -0.0542978)
(-1.36402 -0.0411157 -0.10714)
(-0.0183647 0.0124359 0.105751)
(-0.270287 0.0294837 0.373889)
(-0.0644093 0.00728936 0.0704622)
(-0.389075 -0.00660631 0.018612)
(-1.2956 -0.116727 -1.21827)
(-1.29959 -0.0658038 -0.373831)
(0.301916 0.00888447 -0.433027)
(-1.21264 -0.00386868 -0.397726)
(-0.0608797 -0.00806864 0.212549)
(-0.0721684 0.00262202 0.215758)
(0.649853 0.0605579 0.172284)
(0.558503 0.0289986 0.166485)
(0.223062 0.00173824 -0.0842557)
(0.298141 0.00561979 0.0610057)
(-0.0691456 0.00436422 0.206513)
(0.221269 0.018523 -0.0566876)
(0.245078 0.0190834 -0.127337)
(-0.0695858 0.0019552 0.212)
(0.0777236 0.00137212 -0.0426468)
(-0.0735298 -0.00208661 0.287929)
(0.00823164 0.000946413 0.127481)
(0.00319158 0.00628574 0.0577241)
(0.157413 0.00578314 -0.0572982)
(-0.311974 0.0200919 0.181826)
(-0.123739 0.125722 -0.352328)
(-0.0124589 0.0969036 -0.76608)
(0.244957 0.0240627 0.191193)
(-0.0871375 -0.0109867 0.204933)
(0.100652 0.000785905 0.336297)
(0.217806 0.0183589 -0.178885)
(0.220869 0.0158725 -0.204715)
(1.58356 0.153408 -1.64918)
(-0.66808 0.008802 0.136299)
(-0.0186068 -0.00216001 0.144654)
(-0.00277138 0.00153218 0.129892)
(0.070088 0.00265493 0.0930858)
(0.0918464 0.00419545 0.0683951)
(0.0984265 0.0111267 0.050289)
(0.414249 0.00898089 -0.458591)
(0.0731145 0.0065269 0.0806702)
(-0.0050422 0.0133892 0.0956373)
(-0.0274259 -0.00232607 0.085684)
(-0.00649102 0.0015616 0.0929904)
(-0.0893321 0.0196591 0.0988202)
(0.138633 0.0134163 -0.104681)
(0.125709 0.000935838 -0.123294)
(-0.0471595 -0.0103099 0.098359)
(-0.0158249 0.00300909 0.153029)
(0.00551177 -0.00215728 0.100916)
(-0.0497335 -7.88011e-05 0.133074)
(-0.023716 0.00260174 0.146857)
(-0.010203 0.00112166 0.155121)
(0.0458463 -0.00135166 0.240828)
(-0.24694 -0.0207466 -0.118205)
(0.00795848 -0.000771228 0.122039)
(-0.0749839 -0.00611751 0.101848)
(-0.450571 0.03007 0.213834)
(-0.276646 -0.0276032 0.128478)
(-0.329936 0.000494003 -0.225869)
(-0.414633 -0.0546909 0.295598)
(-0.345722 -0.00926086 0.326316)
(0.213407 0.00510446 -0.20533)
(-0.357982 -0.0463121 0.367165)
(0.028439 0.00992034 0.228569)
(0.0175035 -0.0011492 0.120125)
(-0.0196653 0.0245774 0.105381)
(-0.00327388 0.0126474 0.0813084)
(0.00615676 -0.00470133 0.0941352)
(-0.00923351 -0.0239141 0.0981599)
(0.0584368 0.00496437 0.277759)
(-0.128144 0.0111622 0.397691)
(-0.39074 0.024036 -2.74643)
(0.245918 -0.00658584 0.019332)
(-0.0376667 -0.00175341 0.0292822)
(-0.0196593 -0.0223723 0.004299)
(-0.220588 -0.0158317 0.0267517)
(0.0906227 -0.00303975 0.0407942)
(-0.303727 0.0672148 -1.15417)
(0.040332 0.00418181 0.302074)
(-0.0433196 -0.00699567 0.308262)
(0.00181215 -1.3411e-05 0.0933848)
(0.0485167 0.00198721 -0.0822133)
(0.0070319 -0.0031573 -0.0199591)
(0.0600375 0.00838294 -0.102806)
(0.00408212 -0.000723305 0.000354989)
(-0.0830015 -0.000745937 0.162581)
(-0.0458857 0.00103312 0.0839229)
(-0.105732 -0.034149 -0.0490968)
(-0.00911281 -0.00134032 0.155352)
(-0.299212 0.0795841 0.698845)
(-0.00789771 -0.0107209 0.1292)
(-0.0154391 0.0199966 0.263448)
(0.129588 0.0114245 0.230708)
(-0.0230392 0.00302618 0.229442)
(-0.0214637 -0.000834459 0.0927695)
(-0.102062 -0.057153 0.56127)
(-0.0735792 -0.00824686 0.491557)
(-0.327912 0.0427658 0.429769)
(-0.0226558 0.0408962 -0.193854)
(-0.439598 -0.116224 0.49018)
(-0.111451 -0.00566718 0.100048)
(0.103767 -0.000109687 -0.108473)
(-0.00762477 0.030913 0.110403)
(0.405116 0.111338 -0.311264)
(-0.00307159 0.00889129 0.13919)
(-0.0134622 -0.0148353 0.009242)
(0.010303 0.0316046 0.240515)
(-0.242844 0.0319541 -12.3031)
(0.189757 0.00237863 -0.211962)
(-0.00717266 -0.00506478 0.126616)
(-0.00520933 -0.00692219 0.122837)
(0.177325 0.0131871 0.256978)
(-0.160722 -0.000810594 0.0836201)
(0.0223973 0.0411214 -2.44563)
(0.140286 0.0107636 0.297562)
(-0.105375 0.00737661 0.327734)
(0.0105062 0.0127304 0.1473)
(-0.00381006 -0.000526592 0.119137)
(-0.00353888 -0.00226605 0.127281)
(-0.00630206 -0.00201092 0.123558)
(0.187109 0.0599136 -2.98994)
(-0.048481 0.00868398 0.0574535)
(0.00152208 0.02025 0.295894)
(-0.00403122 -0.0415612 0.118311)
(-0.817996 -0.045108 -0.278153)
(-0.0132133 -0.0244644 0.110352)
(0.00725078 0.0130754 0.0855419)
(0.0119352 0.00218143 0.122572)
(0.0120998 0.00493333 0.0862543)
(0.0100818 0.00385951 0.0787511)
(-0.0143135 4.71365e-05 0.0955826)
(0.734932 0.0216398 -1.25584)
(-0.0191569 0.000789921 0.320945)
(0.07703 0.00569402 0.360122)
(0.0208884 0.0174374 0.306511)
(0.212417 0.0118915 0.167323)
(0.000284542 -0.000826715 0.0594988)
(-0.00273718 -0.00724962 -0.0355585)
(0.00682124 0.000316876 -0.0431582)
(0.0720437 0.00771577 -0.0298682)
(0.60843 0.0138595 -0.972407)
(0.00699122 -0.00163113 -0.0409619)
(0.886888 0.0133722 -0.835872)
(1.04598 0.0286501 -1.0934)
(0.000684754 -0.00350461 0.0031543)
(0.343763 0.0110064 -0.108214)
(0.246971 0.0221996 0.215694)
(0.253985 0.0197662 -3.41628)
(0.0100401 0.116746 -0.733761)
(0.27534 0.0084791 0.277657)
(0.175121 0.0207148 -3.43732)
(0.077241 -0.0168771 -0.753521)
(0.207867 0.0114112 0.229522)
(0.196922 0.00629598 0.240881)
(-0.173492 0.032615 -11.737)
(-0.356114 0.0239889 -13.3514)
(0.00772892 0.00345075 0.0593838)
(-0.219233 -0.0123834 0.734703)
(0.0198108 -0.0142221 0.299503)
(0.0651991 0.0807441 -2.30034)
(0.159869 -0.0366652 -4.90723)
(-0.0629888 -0.0271147 -0.0132218)
(0.244129 0.0261149 -0.106676)
(0.298815 0.00393808 -0.1146)
(-0.034017 0.00039527 0.195523)
(0.337857 0.121474 1.16994)
(-0.0418344 -0.0149906 0.054748)
(0.345718 -0.05843 -3.16521)
(0.215646 0.00557051 -0.0230794)
(0.0081454 0.00504541 0.0626593)
(0.123678 -0.0218353 -1.11365)
(-0.327325 -0.0374682 0.278806)
(0.0188479 0.00552604 0.18019)
(-0.614979 -0.0246268 -0.747777)
(-0.0302304 0.00095204 0.119352)
(-0.792099 -0.0662855 -0.106167)
(-0.181018 -0.00213122 0.0959968)
(-0.0398592 0.00831779 0.104773)
(-0.0948043 -0.00135627 0.170278)
(-0.00941303 -0.00532894 0.141582)
(0.0723303 0.00595224 0.138315)
(0.0346288 -0.00318239 0.120619)
(0.0122873 -0.00139345 0.148465)
(0.00200323 -0.0101905 0.140082)
(0.114247 0.00740984 0.376506)
(0.00177675 0.0285844 0.115699)
(-0.632862 -0.0271323 -1.47005)
(0.242893 0.014272 0.138345)
(0.0064675 -0.00218114 0.0760867)
(-0.525355 -0.0281842 -3.06129)
(-0.0202008 -0.0133404 0.287073)
(-0.00159498 0.0130628 0.0714076)
(-0.516297 -0.00272978 -2.44979)
(-0.769663 -0.0378255 -2.96568)
(-0.65083 -0.0248058 -3.00576)
(-0.0139909 -0.000236934 0.1261)
(0.181211 0.0190946 0.39823)
(0.163957 0.0019712 0.334504)
(-0.00955528 -0.000327654 0.0790509)
(0.173454 0.00759142 0.312904)
(0.0080266 0.00387844 0.108093)
(-0.0875717 -0.0119011 0.14915)
(-0.0233092 -0.0217517 0.224107)
(-0.0157822 -0.00479194 0.179293)
(0.169447 0.00371451 0.355257)
(0.205797 0.0102141 0.387468)
(-0.0127451 -0.0020809 0.0799359)
(0.209749 0.0158341 0.361277)
(0.0439782 0.00447074 0.30056)
(0.197536 0.0136855 0.299186)
(-0.0268035 -0.00119924 0.322156)
(0.00418863 0.00505069 0.0863672)
(-0.0338479 0.00414127 0.120137)
(0.0712172 0.00330399 0.331068)
(0.0778379 0.00324498 0.315455)
(-0.316356 -0.0121365 -3.2607)
(-0.534025 -0.0101944 -3.13319)
(2.11719 0.0450206 -2.52698)
(-0.0281911 -0.00387819 -0.0402035)
(0.0084881 0.0117333 0.146346)
(0.00705697 -0.0137519 0.155757)
(-0.196897 0.0333539 -12.2812)
(-0.347518 -0.00866546 -0.403476)
(-0.219484 0.00100927 0.134467)
(0.0576717 0.0571278 -0.717928)
(0.545368 -0.089014 -1.23901)
(0.514134 0.00465937 0.169061)
(0.112761 -0.00716539 0.464948)
(0.649883 0.0052224 -3.30702)
(-0.0408517 -0.00214838 0.106638)
(-0.0614203 0.000789086 0.114438)
(-0.0499664 -7.13711e-05 0.106403)
(-0.244302 0.0641471 0.776233)
(-0.00052183 0.0092935 0.340594)
(0.0232021 0.00645773 0.309781)
(0.0395387 -0.00233489 0.287962)
(0.051698 0.00432346 0.292833)
(-0.0191949 0.0167097 0.252054)
(-0.0326537 -0.00400051 0.352314)
(-0.0293811 -0.00500728 0.350665)
(-0.0415892 0.00396795 0.335471)
(-0.0283012 0.00406326 0.33154)
(0.0980681 0.00278253 -0.944531)
(-0.0335879 -0.00614655 0.319281)
(-0.0140779 -0.00363791 0.333194)
(-0.0597678 -0.000826277 0.113621)
(-0.0222134 -0.0238675 0.155322)
(0.110718 0.00799653 0.0418245)
(0.0319549 -0.00177966 0.112494)
(0.0246213 0.00540041 0.0839317)
(0.0252583 -0.00880586 0.115438)
(-0.0218468 -0.00533999 0.394162)
(0.00119637 -0.00796346 0.393655)
(0.0195662 0.0126377 0.431596)
(0.0233694 0.00664675 0.426993)
(0.0132622 -0.00170072 0.389114)
(0.0288635 0.0082567 0.396235)
(0.0113362 0.00355887 0.156089)
(0.0628692 0.0032449 -0.0144404)
(0.0545412 0.002177 0.0105555)
(0.0605582 0.00763649 0.00623405)
(-0.0198616 0.0394465 0.141297)
(0.0557478 0.000144439 0.00934322)
(0.0788585 0.00842512 -0.0286119)
(0.0745007 0.00852035 -0.0186409)
(0.192327 0.0229611 0.438892)
(0.0119795 0.00180205 -0.0426197)
(-0.0429514 -0.00464682 0.463361)
(-0.144006 -0.0321489 0.467911)
(-0.124109 -0.0526176 0.516904)
(0.020202 0.00415911 -0.0437722)
(0.0659834 0.004058 -0.0779805)
(0.107561 -0.000353308 0.295946)
(-0.052574 -0.00895235 0.203362)
(-0.250931 0.027831 -2.7663)
(0.181184 0.015018 -0.222912)
(0.195087 0.00367991 -0.225195)
(0.232173 0.00195681 -0.195354)
(-0.372664 0.000203589 0.605989)
(0.00599517 0.0115064 0.101017)
(-0.00404448 -0.0561782 0.00232817)
(0.000448885 -0.00593008 -0.0161091)
(0.197438 0.0104271 0.115152)
(0.0380821 0.000198943 0.0430023)
(0.316122 0.022551 -0.239462)
(-0.373441 0.0321204 -1.92083)
(-0.00276962 0.00110958 0.0992082)
(-0.00447034 -0.000496104 0.095134)
(-0.0631625 -0.00385365 0.301852)
(0.00218603 -0.00284741 0.101)
(-0.0173059 0.0360544 0.103812)
(0.185886 -0.0726307 -5.24367)
(-0.00501274 -0.000366369 0.118571)
(0.00266399 -0.000694348 0.116544)
(-0.00556204 -0.00112704 0.104973)
(0.114684 0.00557815 -0.093973)
(0.122652 0.0147986 0.246321)
(0.17336 0.00292587 0.239936)
(0.0528587 0.0035771 -0.0960424)
(0.0885012 -0.000670556 -0.0863664)
(0.110753 0.0053509 -0.09002)
(0.00604488 0.0105665 0.0857284)
(-0.00922192 0.022038 0.0618142)
(-0.0181751 -0.0314246 0.222978)
(0.100495 -0.0118545 0.0516482)
(-0.00337429 -0.0102929 0.449733)
(0.0190892 -0.00277479 0.22382)
(-0.0187767 0.000136856 0.207263)
(0.00170367 0.00358757 0.0268532)
(0.00875958 0.000995976 0.018603)
(0.0053488 -0.00344621 0.119085)
(0.155854 -0.0442072 -4.11729)
(0.00558933 0.0100418 0.0730976)
(0.0126088 -0.0023649 0.11962)
(0.89801 -0.00793163 -0.935854)
(-0.0142517 0.0133949 0.0963194)
(-0.0132922 0.00371859 0.0865921)
(-0.0346006 0.0186082 0.114164)
(-0.13131 0.00716692 0.184373)
(-0.0491802 0.00382468 0.10692)
(-0.0159235 0.00869038 0.307552)
(-0.295796 0.0321957 -12.2832)
(-0.00107993 0.00311927 0.089438)
(-0.418378 -0.0931369 0.172344)
(0.00586002 -0.00836364 0.11911)
(1.98701 0.0282595 -1.96733)
(-0.0263134 -0.00263064 0.320162)
(-0.370382 0.00302991 -0.207488)
(-0.00659285 -0.0399333 0.279359)
(-0.351272 -0.0101883 -3.08995)
(0.023461 -0.00203974 -0.0382418)
(0.0637996 -0.000779857 0.0112399)
(0.0943877 0.0120144 0.00169228)
(0.10206 0.00305764 -0.0218605)
(-0.0421936 -0.00174401 0.115114)
(0.116595 0.0133621 -0.0264145)
(0.0350109 -0.00267557 -0.00138264)
(-0.0318035 0.00196531 0.121037)
(-0.271219 -0.0524767 0.222558)
(-1.29007 -0.0344419 -1.00211)
(-1.03778 0.0786107 0.602784)
(-1.06127 -0.041592 -2.24029)
(-0.586956 -0.00220388 -1.3614)
(-0.573906 -0.037532 -1.95689)
(-0.488828 -0.0197163 -0.309341)
(-0.394564 -0.0187334 -0.271792)
(-0.514015 0.0915852 1.01491)
(0.00569233 -0.0070847 0.0213465)
(0.0135552 0.00827774 -0.00204319)
(0.0255127 -0.00851296 0.00322398)
(0.255267 0.0207944 -1.08782)
(-0.00179336 -0.00378676 0.11376)
(-0.0468913 -0.0056424 0.0905762)
(0.00195959 -0.00314261 0.101705)
(0.554956 0.0672504 -1.97284)
(-0.091557 -0.0349896 0.497196)
(-0.300008 -0.0318249 -0.171414)
(0.221262 -0.0488756 -4.65357)
(0.101516 0.0149194 0.507024)
(0.000524025 0.00668213 0.124416)
(-0.0219577 0.00618579 0.111479)
(-0.91495 -0.121483 0.740286)
(0.0622048 -0.000889458 0.0817927)
(0.0493734 0.00362995 0.0315442)
(0.0170834 -0.00116695 0.130271)
(-0.0404763 -0.00152073 0.17644)
(1.99509 0.0598729 0.368529)
(-0.0399296 0.0189209 0.0862884)
(0.283545 0.0198021 -0.10729)
(-0.0291022 -0.0130077 0.0799452)
(-0.066868 0.0129782 0.0576063)
(-0.0591014 -0.0377541 0.0425367)
(-0.0410512 -0.014048 0.148832)
(-0.0395007 -0.0025211 0.100508)
(-0.0171518 0.0050798 0.101124)
(0.0530385 0.0431372 0.00327806)
(-0.396273 0.0124853 0.395309)
(0.382696 -0.0319944 -2.53431)
(-0.0124069 0.00357155 0.109062)
(-1.33125 -0.0522263 -0.669452)
(0.000745458 0.00491069 0.0140014)
(-0.45305 -0.0907471 1.21359)
(-0.0105288 0.0011691 0.108389)
(-0.528059 0.00105218 1.58268)
(-0.191289 -0.0200612 -1.78858)
(-0.422974 -0.0163502 1.39887)
(-0.749213 0.0230608 1.11378)
(0.0228169 -0.0435404 0.285914)
(0.0698072 0.000515225 0.216977)
(0.422365 0.0751459 1.43021)
(0.316153 0.00195252 -0.180421)
(-0.0504176 0.0397191 1.08877)
(-0.00858976 -0.00103851 0.0667157)
(0.0104258 0.00309463 0.110758)
(-0.0124715 0.00225731 -0.0320242)
(0.0818328 0.00398333 -0.0945822)
(0.191935 0.0137171 -0.0689154)
(-0.114395 -0.00167027 -0.0390001)
(-0.0360483 0.00569203 -0.0357072)
(0.129047 -0.00333613 -0.0613464)
(0.124584 0.000361083 -0.0909853)
(-0.00650095 -0.00722638 0.0947396)
(-0.011997 0.0248211 0.0791041)
(0.187703 -0.0076717 -0.0934561)
(-0.00245125 0.0123994 0.065893)
(-0.00145252 -0.016964 0.124939)
(-0.00109604 0.00192992 0.11497)
(0.245108 -0.00215697 -0.0271842)
(0.284037 0.000999825 0.00875412)
(-0.013274 0.0228009 0.0603198)
(-0.0253912 -0.00289518 0.255006)
(-0.00271849 0.0314082 0.161863)
(0.199274 0.00970487 -0.0627922)
(-0.00304141 -0.00754714 -0.0699238)
(-0.352521 0.0235807 -13.2089)
(0.00244761 0.00347479 0.126249)
(0.572544 0.00879036 0.385583)
(-0.0104309 8.02201e-05 0.122015)
(-0.034805 -0.002188 0.210069)
(-0.00371218 0.0376706 0.171802)
(0.5762 0.026661 0.0287157)
(-0.039717 0.00872503 0.223673)
(0.00557909 0.00323935 0.110234)
(0.939988 0.0204122 0.114869)
(-0.0220984 0.0245497 0.207237)
(-0.0131503 0.000966721 0.107041)
(0.145794 0.000711534 -0.0777488)
(-0.026906 -0.0129995 0.198037)
(0.0950899 -0.00160882 -0.0964233)
(-0.00469598 0.00217787 0.109052)
(0.383012 0.0142731 -0.114875)
(-0.269058 0.0591257 -0.302683)
(-0.373887 0.00609579 -0.0950027)
(-0.00210627 0.00352119 0.0327902)
(-0.135961 -0.00706234 -0.14976)
(0.964139 -0.00283175 -2.38088)
(-0.100479 -0.00081939 0.145918)
(0.00908835 -0.0383687 0.287037)
(-0.00261176 0.00665856 0.156783)
(0.0145751 0.000439443 0.125681)
(0.250196 0.0230237 -0.0549991)
(0.638137 -0.0230496 1.58789)
(0.00102697 -0.00452444 -0.0449448)
(0.00174751 0.000188794 -0.0500726)
(0.0105319 0.00273496 0.116367)
(-0.00217195 -0.00787364 0.0942094)
(-0.00314026 0.00460338 0.11658)
(-0.503951 -0.0974765 0.289056)
(0.011444 -0.0391054 0.292091)
(-0.025714 0.00424193 0.278883)
(-0.36969 -0.0124375 0.34324)
(-0.0172827 -0.0141695 0.248783)
(0.0176314 0.0222199 0.270996)
(0.0150267 -4.70068e-06 0.0174878)
(0.00682617 -0.00339409 0.00424608)
(-0.444676 -0.0519426 0.284018)
(-0.363318 0.0405061 0.287457)
(0.114817 6.42032e-05 0.28498)
(0.146093 0.000508858 0.264087)
(-0.00334565 0.0064882 0.139888)
(-0.00422022 0.00333104 0.343777)
(0.0324176 0.00298462 0.206363)
(0.0526721 0.0042251 0.287347)
(-0.331169 -0.0376759 -0.228799)
(0.397709 0.0659459 0.110899)
(-0.289965 0.0263012 -12.6476)
(0.135828 -0.000175946 0.278398)
(0.104811 0.00971675 0.268761)
(-0.0807311 -0.0100066 0.0641788)
(-0.264884 -0.0103622 0.0423792)
(-0.23705 -0.000397293 0.0824215)
(-0.0603404 -0.00733695 0.0976519)
(-0.2293 -0.0102045 0.0855265)
(-0.0568962 -0.00386971 0.100928)
(-0.183269 -0.000679292 0.13932)
(0.00221546 0.0217318 0.11532)
(-0.0175821 -0.00266798 0.13593)
(-0.0178483 -0.00105246 0.0822631)
(0.0945978 0.0076042 0.286008)
(0.0969018 0.00968485 0.278254)
(1.48039 0.0452822 -1.76553)
(0.00377892 0.0111133 0.128637)
(-0.187414 -0.0129346 0.324718)
(0.0516179 0.00686309 0.037463)
(1.00408 0.0792553 -1.62251)
(0.287334 0.0191214 -0.406848)
(-0.205701 -0.111377 -0.328311)
(0.203769 0.0121232 0.0181158)
(0.00414545 -0.0245818 0.172036)
(0.022623 -0.0301376 0.135288)
(0.0234617 -0.018493 0.175706)
(0.0124285 -0.00790007 0.106682)
(0.00415509 0.0286343 0.125659)
(0.0122035 -0.00463717 0.217004)
(0.0107106 -0.0154153 0.178401)
(0.0191195 -0.0113576 0.194348)
(0.0155954 -0.00228564 0.209939)
(0.0176208 0.0102412 0.22894)
(-0.329537 -0.0989454 -0.301933)
(-0.0101404 0.0247108 0.0675422)
(-0.00255819 -0.000943495 0.121951)
(0.287288 -0.0319654 -0.353673)
(0.00926466 0.00775397 0.119843)
(-0.34947 0.0199887 -13.4225)
(0.00732531 0.0242688 0.223863)
(0.263343 -0.0140144 -0.164203)
(-0.228657 0.0480583 -0.75313)
(0.0388961 -0.00611015 0.139834)
(-0.270459 0.0792042 -0.854671)
(0.0998524 0.000243636 -0.109519)
(0.111865 0.00719717 0.192045)
(0.16032 -0.0483569 -3.62884)
(0.179366 0.0179354 0.120581)
(-0.43349 0.0454912 -0.822445)
(0.00217362 0.00360197 0.078236)
(0.00266438 -0.0123894 0.089878)
(0.00335796 -0.0226195 0.0922964)