/*--------------------------------*- C++ -*----------------------------------*\
| =========                 |                                                 |
| \\      /  F ield         | OpenFOAM: The Open Source CFD Toolbox           |
|  \\    /   O peration     | Version:  v2012                                 |
|   \\  /    A nd           | Website:  www.openfoam.com                      |
|    \\/     M anipulation  |                                                 |
\*---------------------------------------------------------------------------*/
FoamFile
{
    version     2.0;
    format      ascii;
    class       surfaceScalarField;
    location    "0.45";
    object      phi;
}
// * * * * * * * * * * * * * * * * * * * * * * * * * * * * * * * * * * * * * //

dimensions      [0 3 -1 0 0 0 0];
oriented        oriented;


internalField   nonuniform List<scalar> 
6347
(
1.61497e-13
-3.27552e-12
7.19387e-16
3.79634e-13
-5.9314e-12
-2.55011e-16
6.86667e-13
-8.91786e-12
4.38761e-16
1.09302e-12
-1.23057e-11
-1.51594e-15
1.63927e-12
-1.60174e-11
1.10272e-15
2.37082e-12
-2.01898e-11
3.13772e-16
3.20555e-12
-2.46625e-11
2.63235e-16
4.18676e-12
-2.96094e-11
1.42973e-16
5.35841e-12
-3.49414e-11
-2.76618e-16
6.67541e-12
-4.07178e-11
5.72188e-16
8.17965e-12
-4.69239e-11
1.09938e-15
9.84281e-12
-5.35516e-11
1.32709e-15
1.16833e-11
-6.06695e-11
-3.53032e-16
1.37054e-11
-6.81396e-11
1.87765e-17
1.59233e-11
-7.61305e-11
6.05138e-16
-8.44553e-11
3.63521e-16
4.07643e-14
-1.03873e-12
-1.09858e-17
1.70705e-13
-3.40576e-12
4.54427e-17
3.9691e-13
-6.15801e-12
1.22357e-16
7.38711e-13
-9.26139e-12
-6.07769e-16
1.22981e-12
-1.27926e-11
6.50439e-16
1.80628e-12
-1.65956e-11
-4.66048e-17
2.52156e-12
-2.09055e-11
-1.45093e-16
3.40154e-12
-2.5542e-11
4.02077e-16
4.44118e-12
-3.06474e-11
-2.33079e-18
5.65314e-12
-3.61531e-11
1.12368e-16
7.04565e-12
-4.21093e-11
-2.39905e-16
8.62132e-12
-4.84975e-11
2.90221e-16
1.03985e-11
-5.53272e-11
6.4121e-16
1.23746e-11
-6.26415e-11
1.18997e-15
1.45492e-11
-7.03148e-11
-1.28228e-16
1.68998e-11
-7.84802e-11
3.23939e-16
1.94466e-11
-8.70027e-11
2.50327e-16
-9.5931e-11
2.87867e-17
4.33838e-14
-1.08221e-12
3.13901e-17
1.80381e-13
-3.5428e-12
-5.00734e-18
4.28728e-13
-6.40644e-12
-5.34957e-17
7.94733e-13
-9.62967e-12
-3.06991e-16
1.26431e-12
-1.32599e-11
2.75592e-16
1.93974e-12
-1.72689e-11
3.75465e-16
2.71995e-12
-2.16848e-11
-1.18293e-16
3.68143e-12
-2.65052e-11
-3.65593e-17
4.7888e-12
-3.17551e-11
-8.75468e-17
6.08791e-12
-3.74525e-11
1.4242e-16
7.55529e-12
-4.35787e-11
2.7159e-16
9.23833e-12
-5.01779e-11
-9.90598e-17
1.11195e-11
-5.72063e-11
-6.16596e-17
1.31846e-11
-6.47037e-11
8.97722e-16
1.54785e-11
-7.26115e-11
-3.15561e-16
1.7962e-11
-8.09628e-11
-3.70517e-16
2.06558e-11
-8.96978e-11
2.56764e-16
2.35325e-11
-9.8807e-11
3.08797e-17
-1.08248e-10
2.02941e-16
4.65263e-14
-1.12873e-12
1.49061e-17
1.98268e-13
-3.69457e-12
1.04121e-17
4.47223e-13
-6.65573e-12
7.02899e-17
8.58568e-13
-1.0043e-11
-3.36193e-16
1.34906e-12
-1.37477e-11
2.41501e-16
2.0096e-12
-1.79286e-11
2.9521e-16
2.81654e-12
-2.24941e-11
-6.59516e-17
3.83435e-12
-2.75213e-11
-1.31622e-16
5.01057e-12
-3.29301e-11
7.23483e-17
6.43979e-12
-3.88833e-11
2.17146e-16
8.017e-12
-4.51569e-11
-3.64795e-16
9.84525e-12
-5.20035e-11
3.19087e-16
1.18494e-11
-5.92083e-11
-1.93931e-16
1.40741e-11
-6.69262e-11
9.19933e-16
1.6505e-11
-7.50449e-11
-3.52715e-16
1.91409e-11
-8.3598e-11
-1.99654e-16
2.19822e-11
-9.25395e-11
-1.62365e-17
2.50156e-11
-1.0184e-10
1.79686e-16
-1.11462e-10
1.09257e-17
4.98504e-14
-1.1786e-12
3.24542e-17
2.08445e-13
-3.8533e-12
-1.50296e-17
4.87978e-13
-6.93568e-12
4.75754e-17
9.12392e-13
-1.04692e-11
-2.82035e-16
1.47824e-12
-1.43094e-11
1.73643e-16
2.274e-12
-1.87212e-11
5.88481e-16
3.19794e-12
-2.34186e-11
-4.81156e-17
4.27768e-12
-2.86015e-11
1.35744e-16
5.55234e-12
-3.42058e-11
2.59608e-16
6.99451e-12
-4.03268e-11
-2.73073e-16
8.62966e-12
-4.67928e-11
-1.20332e-15
1.05243e-11
-5.38967e-11
5.32151e-16
1.26216e-11
-6.13064e-11
8.22872e-16
1.49763e-11
-6.92775e-11
4.53899e-16
1.75493e-11
-7.76206e-11
-3.4348e-16
2.03531e-11
-8.64012e-11
-2.93059e-16
2.33642e-11
-9.55518e-11
2.52303e-16
2.6579e-11
-1.05054e-10
-1.13648e-16
-1.14856e-10
1.59986e-16
5.36456e-14
-1.23222e-12
9.61335e-18
2.23584e-13
-4.02341e-12
5.04882e-17
5.25975e-13
-7.238e-12
-3.78912e-17
9.71023e-13
-1.09135e-11
8.9039e-17
1.54869e-12
-1.48899e-11
1.30438e-16
2.27808e-12
-1.94627e-11
-1.70577e-15
3.16949e-12
-2.42967e-11
1.14106e-15
4.23019e-12
-2.96626e-11
3.46696e-16
5.68294e-12
-3.56566e-11
3.60773e-16
7.23046e-12
-4.18754e-11
-5.16106e-16
9.11418e-12
-4.868e-11
2.63558e-16
1.1187e-11
-5.59671e-11
7.43832e-18
1.3472e-11
-6.35906e-11
-1.56467e-17
1.60026e-11
-7.18056e-11
9.34936e-16
1.87343e-11
-8.03542e-11
-7.40925e-16
2.17034e-11
-8.93707e-11
9.03095e-18
2.48823e-11
-9.87318e-11
9.07908e-17
2.82716e-11
-1.08442e-10
1.96688e-17
-1.18429e-10
-1.40203e-17
5.74893e-14
-1.28968e-12
1.77937e-17
2.43038e-13
-4.20889e-12
-2.51284e-17
5.69782e-13
-7.56506e-12
1.639e-18
1.09644e-12
-1.14412e-11
1.11478e-16
1.68785e-12
-1.54782e-11
9.91702e-17
2.5819e-12
-2.03695e-11
-2.00461e-15
3.67388e-12
-2.53728e-11
1.93314e-15
4.97883e-12
-3.09605e-11
1.96001e-15
6.50343e-12
-3.71754e-11
6.48738e-16
8.03919e-12
-4.34114e-11
-3.35114e-16
9.95512e-12
-5.05982e-11
4.42213e-16
1.20498e-11
-5.80593e-11
-3.27399e-16
1.44223e-11
-6.5962e-11
-2.07032e-16
1.70732e-11
-7.44543e-11
8.07796e-16
1.99665e-11
-8.32504e-11
-3.52232e-16
2.31126e-11
-9.25167e-11
-3.25255e-16
2.64838e-11
-1.02105e-10
2.38547e-16
3.00709e-11
-1.12028e-10
-1.65831e-16
-1.222e-10
2.21358e-16
6.19378e-14
-1.35173e-12
4.43635e-17
2.59282e-13
-4.40631e-12
2.68994e-17
5.71616e-13
-7.87761e-12
-4.2284e-16
1.05703e-12
-1.19288e-11
-6.16965e-17
1.72198e-12
-1.61416e-11
6.52431e-16
2.64704e-12
-2.12938e-11
2.96001e-16
3.65724e-12
-2.63887e-11
-1.30603e-16
4.88095e-12
-3.22139e-11
-4.98796e-15
6.42875e-12
-3.87043e-11
2.13549e-15
8.31874e-12
-4.53024e-11
7.82396e-16
1.04055e-11
-5.2682e-11
-4.42827e-16
1.27635e-11
-6.04182e-11
2.07127e-16
1.53818e-11
-6.85814e-11
4.13343e-16
1.82226e-11
-7.72921e-11
5.60257e-16
2.13257e-11
-8.63559e-11
-3.39691e-16
2.46636e-11
-9.58544e-11
-1.63577e-16
2.82309e-11
-1.05673e-10
1.48304e-17
3.20172e-11
-1.15814e-10
1.08796e-16
-1.26172e-10
4.97284e-18
6.64562e-14
-1.41807e-12
-8.71366e-17
2.74218e-13
-4.61411e-12
4.61196e-18
6.84661e-13
-8.28911e-12
4.76581e-16
1.25418e-12
-1.24914e-11
5.93113e-16
2.06206e-12
-1.69514e-11
-9.77635e-16
2.92026e-12
-2.21553e-11
2.76266e-16
4.17276e-12
-2.7642e-11
3.14541e-16
5.65195e-12
-3.37155e-11
-3.83722e-15
7.25231e-12
-4.02813e-11
2.46896e-15
9.20322e-12
-4.72532e-11
1.2456e-15
1.13384e-11
-5.48137e-11
7.38841e-16
1.37668e-11
-6.28476e-11
-1.90454e-16
1.64977e-11
-7.13118e-11
-2.83378e-16
1.94917e-11
-8.02836e-11
6.33066e-16
2.27734e-11
-8.96406e-11
-4.44892e-17
2.63089e-11
-9.93896e-11
-3.6085e-16
3.00871e-11
-1.09453e-10
2.09815e-16
3.40929e-11
-1.19819e-10
-9.72095e-17
-1.30361e-10
1.61296e-16
7.2185e-14
-1.49022e-12
-5.60291e-17
2.98751e-13
-4.84096e-12
3.50247e-17
7.01554e-13
-8.6929e-12
8.50338e-17
1.23443e-12
-1.3019e-11
3.75722e-16
2.11311e-12
-1.78328e-11
-5.8763e-16
3.11046e-12
-2.31526e-11
7.50931e-16
4.36996e-12
-2.89048e-11
-4.5963e-17
5.85389e-12
-3.52177e-11
-3.38455e-15
7.6343e-12
-4.20347e-11
2.4232e-15
9.72057e-12
-4.93434e-11
1.3626e-15
1.20627e-11
-5.71559e-11
5.63029e-16
1.47048e-11
-6.54857e-11
-9.89558e-16
1.7644e-11
-7.42514e-11
-1.50382e-16
2.08498e-11
-8.349e-11
9.77975e-16
2.43494e-11
-9.31422e-11
-5.43378e-16
2.81136e-11
-1.03154e-10
-4.47229e-16
3.21135e-11
-1.13454e-10
3.23166e-17
3.63438e-11
-1.24048e-10
-2.01285e-16
-1.34772e-10
6.16165e-17
7.72806e-14
-1.56741e-12
-7.2424e-17
3.23137e-13
-5.08699e-12
-3.87715e-17
7.53575e-13
-9.12425e-12
2.32404e-16
1.39066e-12
-1.36512e-11
5.38159e-16
2.2444e-12
-1.86891e-11
-7.80417e-16
3.30955e-12
-2.42189e-11
4.46377e-16
4.64429e-12
-3.02429e-11
8.28864e-17
6.28386e-12
-3.68792e-11
-3.51705e-15
8.1784e-12
-4.39052e-11
2.82118e-15
1.04094e-11
-5.1579e-11
1.19204e-15
1.29255e-11
-5.96708e-11
-5.56797e-16
1.5753e-11
-6.83114e-11
-4.15689e-16
1.88883e-11
-7.73887e-11
3.21875e-16
2.2318e-11
-8.69206e-11
6.30894e-16
2.60309e-11
-9.68571e-11
-8.85632e-16
3.00217e-11
-1.07145e-10
-4.84821e-16
3.42602e-11
-1.17695e-10
-1.50479e-16
3.87345e-11
-1.28522e-10
-4.02687e-16
-1.39429e-10
1.87346e-16
8.35524e-14
-1.65092e-12
-6.30869e-17
3.45753e-13
-5.34932e-12
-1.19329e-17
8.22076e-13
-9.60152e-12
1.76102e-16
1.46954e-12
-1.42935e-11
5.22544e-16
2.49127e-12
-1.97137e-11
-4.50886e-16
3.88713e-12
-2.5616e-11
2.30793e-16
5.21275e-12
-3.1568e-11
-2.92203e-16
7.06884e-12
-3.87618e-11
-2.85636e-15
9.05413e-12
-4.58634e-11
2.2634e-15
1.14524e-11
-5.3981e-11
-1.4262e-16
1.40568e-11
-6.22738e-11
8.33756e-16
1.70501e-11
-7.13065e-11
-4.01462e-16
2.03296e-11
-8.06722e-11
4.71476e-16
2.3973e-11
-9.05605e-11
-4.62882e-16
2.79078e-11
-1.00792e-10
3.07118e-16
3.21483e-11
-1.11384e-10
9.46342e-16
3.66395e-11
-1.22188e-10
-3.52328e-17
4.13539e-11
-1.33235e-10
-1.41923e-16
4.62533e-11
-1.4433e-10
1.33876e-16
5.12856e-11
-1.55454e-10
-4.94141e-17
5.64024e-11
-1.66456e-10
-3.30363e-17
6.15379e-11
-1.77255e-10
1.79563e-16
-1.87706e-10
-2.79642e-17
9.06958e-14
-1.74154e-12
-7.41617e-17
3.77269e-13
-5.63596e-12
2.93887e-17
8.99622e-13
-1.01246e-11
2.29368e-16
1.61647e-12
-1.50069e-11
-1.52411e-16
2.50439e-12
-2.06043e-11
-9.88311e-16
3.53603e-12
-2.66541e-11
1.73492e-15
4.92089e-12
-3.29542e-11
3.81344e-17
6.9743e-12
-4.08371e-11
-2.77045e-15
9.06875e-12
-4.79312e-11
3.65119e-15
1.17825e-11
-5.66963e-11
-3.41426e-15
1.46786e-11
-6.51743e-11
2.24386e-15
1.8016e-11
-7.46458e-11
-8.91381e-17
2.16276e-11
-8.42854e-11
-1.14183e-15
2.55982e-11
-9.45297e-11
7.27585e-16
2.98299e-11
-1.05024e-10
-8.50877e-17
3.43571e-11
-1.1591e-10
1.21322e-15
3.91353e-11
-1.26968e-10
-2.79895e-16
4.41295e-11
-1.38227e-10
-9.89046e-17
4.93022e-11
-1.49503e-10
2.85523e-16
5.45925e-11
-1.60744e-10
-2.31278e-16
5.99446e-11
-1.71808e-10
1.44258e-16
6.52913e-11
-1.82601e-10
-2.79727e-18
-1.92976e-10
1.35921e-16
9.76564e-14
-1.83924e-12
-3.24965e-17
4.06217e-13
-5.9445e-12
-6.36985e-17
9.39619e-13
-1.06582e-11
-2.23328e-16
1.74458e-12
-1.58134e-11
4.47072e-16
3.00106e-12
-2.18562e-11
1.24588e-15
4.44413e-12
-2.80813e-11
5.77815e-16
6.56262e-12
-3.5096e-11
6.93329e-16
8.86568e-12
-4.31525e-11
-8.6794e-15
1.09192e-11
-4.99437e-11
2.32979e-16
1.36609e-11
-5.94601e-11
1.29203e-14
1.65364e-11
-6.8046e-11
-4.95357e-15
1.99275e-11
-7.803e-11
-2.99732e-15
2.36198e-11
-8.79843e-11
2.12652e-15
2.77147e-11
-9.86215e-11
-1.1971e-15
3.21411e-11
-1.09452e-10
9.00533e-16
3.68964e-11
-1.20663e-10
1.442e-16
4.19247e-11
-1.31998e-10
-1.19828e-16
4.71804e-11
-1.43481e-10
-3.92685e-16
5.26118e-11
-1.54935e-10
3.09323e-16
5.81538e-11
-1.66285e-10
2.69494e-17
6.37401e-11
-1.77394e-10
1.52959e-16
6.92961e-11
-1.88156e-10
2.05775e-16
-1.98422e-10
1.07836e-16
1.06629e-13
-1.94595e-12
-2.25726e-17
4.36972e-13
-6.27516e-12
1.02641e-16
1.04014e-12
-1.12614e-11
-1.68294e-16
1.76996e-12
-1.65418e-11
3.95056e-16
3.13862e-12
-2.32272e-11
-1.14008e-16
4.25657e-12
-2.91842e-11
1.76778e-15
5.96508e-12
-3.68279e-11
6.68298e-16
7.52122e-12
-4.47416e-11
-6.58192e-15
9.9116e-12
-5.22943e-11
-2.21955e-15
1.33533e-11
-6.292e-11
8.43331e-15
1.67606e-11
-7.14573e-11
-2.0641e-15
2.07055e-11
-8.19654e-11
-7.21277e-15
2.49178e-11
-9.22079e-11
2.28421e-15
2.94772e-11
-1.03179e-10
-1.05691e-15
3.43241e-11
-1.14301e-10
1.68043e-16
3.94624e-11
-1.258e-10
9.08362e-16
4.48407e-11
-1.37378e-10
-4.05935e-16
5.0423e-11
-1.49062e-10
-1.72061e-16
5.61533e-11
-1.60666e-10
3.39745e-16
6.19694e-11
-1.721e-10
-2.54116e-17
6.77993e-11
-1.83223e-10
2.51137e-16
7.35665e-11
-1.93922e-10
1.07739e-16
-2.04041e-10
2.25784e-16
1.15317e-13
-2.06094e-12
-1.54417e-16
4.7532e-13
-6.63402e-12
-6.15313e-16
1.20351e-12
-1.19871e-11
-9.29731e-16
2.20298e-12
-1.75407e-11
1.29328e-15
3.52665e-12
-2.45545e-11
2.49621e-16
4.9969e-12
-3.06528e-11
-1.04035e-15
7.45755e-12
-3.9286e-11
7.29354e-16
1.02113e-11
-4.74863e-11
2.05974e-15
1.32822e-11
-5.53683e-11
5.42281e-15
1.58965e-11
-6.55245e-11
-6.19721e-15
1.94269e-11
-7.49846e-11
-2.68325e-15
2.31659e-11
-8.57099e-11
1.1573e-14
2.7426e-11
-9.64718e-11
-3.76632e-15
3.20752e-11
-1.07819e-10
-2.39807e-15
3.7114e-11
-1.19344e-10
1.75351e-15
4.24738e-11
-1.31157e-10
1.1547e-16
4.81221e-11
-1.43029e-10
8.85039e-17
5.39849e-11
-1.54922e-10
-4.94415e-16
5.99977e-11
-1.66679e-10
4.29385e-16
6.60815e-11
-1.78184e-10
1.1194e-16
7.21535e-11
-1.89295e-10
1.46199e-16
7.81271e-11
-1.99895e-10
1.99054e-16
-2.09824e-10
6.92371e-17
1.25647e-13
-2.18659e-12
2.68316e-17
5.33381e-13
-7.04452e-12
1.30922e-15
1.11805e-12
-1.2579e-11
3.59725e-15
2.12383e-12
-1.8544e-11
-4.54166e-15
3.31051e-12
-2.57235e-11
-5.82398e-15
5.40007e-12
-3.27552e-11
5.77433e-15
7.19898e-12
-4.10737e-11
-2.16617e-15
9.30729e-12
-4.96068e-11
6.03499e-15
1.27119e-11
-5.87715e-11
2.9953e-15
1.60324e-11
-6.88385e-11
-7.93332e-15
2.0088e-11
-7.90438e-11
-1.51199e-15
2.43831e-11
-9.00062e-11
7.471e-15
2.91684e-11
-1.01266e-10
-2.47455e-15
3.42979e-11
-1.1294e-10
-3.0706e-15
3.97826e-11
-1.24833e-10
1.3347e-15
4.55556e-11
-1.36928e-10
6.30164e-16
5.15825e-11
-1.49058e-10
-1.71746e-16
5.77952e-11
-1.61133e-10
-3.47447e-16
6.41252e-11
-1.73009e-10
4.31593e-16
7.04932e-11
-1.8455e-10
7.14757e-18
7.68111e-11
-1.95612e-10
2.62727e-16
8.29881e-11
-2.06071e-10
1.01876e-16
-2.15762e-10
1.95631e-16
1.35567e-13
-2.3222e-12
1.03739e-16
5.70222e-13
-7.47944e-12
1.59572e-16
1.30609e-12
-1.33203e-11
3.18197e-15
2.612e-12
-1.98476e-11
-3.40071e-15
3.89878e-12
-2.69958e-11
-4.31063e-15
5.88518e-12
-3.47557e-11
4.34714e-15
8.1919e-12
-4.33727e-11
-1.81514e-15
1.09866e-11
-5.24126e-11
3.8192e-15
1.43254e-11
-6.21103e-11
2.05897e-15
1.79362e-11
-7.24439e-11
-5.10581e-15
2.21383e-11
-8.32409e-11
-3.45788e-15
2.67104e-11
-9.45819e-11
7.11515e-15
3.17196e-11
-1.06285e-10
-2.33835e-15
3.71452e-11
-1.18357e-10
-3.58895e-15
4.2934e-11
-1.30628e-10
1.81369e-15
4.90398e-11
-1.43031e-10
2.44016e-16
5.54034e-11
-1.55424e-10
-1.49195e-16
6.19489e-11
-1.67678e-10
-3.80558e-16
6.85938e-11
-1.79655e-10
3.30238e-16
7.52464e-11
-1.91203e-10
1.22017e-16
8.18085e-11
-2.02174e-10
9.41525e-17
8.818e-11
-2.12442e-10
1.59161e-16
-2.21839e-10
3.02176e-17
1.49671e-13
-2.472e-12
1.1822e-16
6.24891e-13
-7.95489e-12
3.21646e-16
1.44093e-12
-1.41423e-11
3.0997e-15
2.66675e-12
-2.10717e-11
-3.5095e-15
4.32505e-12
-2.86375e-11
-4.78366e-15
6.4621e-12
-3.69066e-11
4.54565e-15
9.04256e-12
-4.59417e-11
-1.72069e-15
1.19502e-11
-5.53287e-11
3.89183e-15
1.55533e-11
-6.57133e-11
2.80174e-15
1.94568e-11
-7.63424e-11
-5.56694e-15
2.3949e-11
-8.77306e-11
-1.98811e-15
2.88733e-11
-9.9509e-11
6.61106e-15
3.42602e-11
-1.1168e-10
-2.48553e-15
4.00928e-11
-1.2418e-10
-3.24055e-15
4.6287e-11
-1.36827e-10
1.93619e-15
5.27945e-11
-1.49537e-10
1.6483e-16
5.95435e-11
-1.62176e-10
-3.16915e-17
6.64489e-11
-1.74581e-10
-4.71202e-16
7.34201e-11
-1.86626e-10
5.12221e-16
8.03588e-11
-1.9814e-10
4.31241e-17
8.71586e-11
-2.08973e-10
2.89249e-16
9.37129e-11
-2.18995e-10
1.12956e-16
-2.28036e-10
1.89255e-16
1.63469e-13
-2.63557e-12
1.31498e-16
6.80574e-13
-8.47259e-12
2.62839e-16
1.56337e-12
-1.50306e-11
3.17775e-15
2.9844e-12
-2.24901e-11
-3.49187e-15
4.56102e-12
-3.01997e-11
-4.50555e-15
6.30722e-12
-3.86703e-11
6.18175e-15
9.3913e-12
-4.90164e-11
-2.25425e-15
1.23212e-11
-5.82602e-11
3.48206e-15
1.64119e-11
-6.9806e-11
1.80612e-15
2.06902e-11
-8.06155e-11
-4.42331e-15
2.57125e-11
-9.27555e-11
-3.92564e-15
3.11477e-11
-1.04941e-10
8.37425e-15
3.70256e-11
-1.17563e-10
-2.50737e-15
4.33187e-11
-1.30467e-10
-3.04574e-15
4.99605e-11
-1.43473e-10
1.64558e-15
5.68918e-11
-1.56467e-10
5.22312e-16
6.40467e-11
-1.69332e-10
-1.95335e-16
7.13267e-11
-1.8186e-10
-1.70729e-16
7.86369e-11
-1.93937e-10
2.12724e-16
8.58651e-11
-2.05368e-10
7.09201e-17
9.28974e-11
-2.16005e-10
3.77844e-17
9.96182e-11
-2.25716e-10
1.4046e-16
-2.34329e-10
2.78293e-17
1.78792e-13
-2.81446e-12
9.86265e-17
7.47776e-13
-9.04181e-12
2.60797e-16
1.68319e-12
-1.59719e-11
2.96941e-15
3.19099e-12
-2.39883e-11
-5.51856e-15
5.43828e-12
-3.24262e-11
-7.2078e-15
8.38157e-12
-4.16345e-11
9.81664e-15
1.18364e-11
-5.24659e-11
-1.63786e-15
1.49224e-11
-6.13528e-11
1.79754e-15
1.93276e-11
-7.42164e-11
1.86824e-15
2.35761e-11
-8.48526e-11
-4.79278e-15
2.87774e-11
-9.79543e-11
-2.51569e-15
3.43163e-11
-1.10479e-10
7.33082e-15
4.04459e-11
-1.23699e-10
-1.20912e-15
4.70736e-11
-1.3709e-10
-3.99443e-15
5.40902e-11
-1.50495e-10
2.08611e-15
6.14313e-11
-1.63806e-10
2.41383e-17
6.89854e-11
-1.76889e-10
-1.68766e-17
7.66407e-11
-1.89513e-10
-4.20783e-16
8.42842e-11
-2.0158e-10
5.5151e-16
9.17918e-11
-2.12874e-10
6.03943e-17
9.90399e-11
-2.23252e-10
2.72943e-16
1.05905e-10
-2.3258e-10
6.5559e-17
-2.40689e-10
1.18945e-16
1.97722e-13
-3.01218e-12
9.48459e-17
8.18995e-13
-9.66313e-12
3.67546e-17
1.94239e-12
-1.70956e-11
5.74627e-16
3.53316e-12
-2.55859e-11
3.62118e-15
5.23919e-12
-3.41548e-11
8.90866e-15
7.86734e-12
-4.42328e-11
-1.73119e-14
1.01723e-11
-5.47481e-11
-8.08405e-15
1.34312e-11
-6.46579e-11
2.48169e-14
1.8756e-11
-7.95285e-11
-5.60357e-15
2.38509e-11
-8.99394e-11
-5.58658e-15
3.0103e-11
-1.04197e-10
-3.27148e-15
3.65006e-11
-1.16885e-10
8.65799e-15
4.34665e-11
-1.30672e-10
-3.60971e-15
5.07973e-11
-1.44412e-10
-3.53564e-15
5.84136e-11
-1.58116e-10
1.59592e-15
6.62942e-11
-1.71686e-10
1.06849e-15
7.43173e-11
-1.84914e-10
-5.28687e-16
8.23878e-11
-1.97583e-10
2.67508e-18
9.03849e-11
-2.09579e-10
9.36425e-17
9.81737e-11
-2.20663e-10
4.59087e-17
1.05625e-10
-2.30704e-10
-5.17575e-17
1.12607e-10
-2.39562e-10
3.96968e-17
-2.47077e-10
-7.01266e-17
2.16739e-13
-3.2288e-12
1.48449e-17
9.07459e-13
-1.03533e-11
-1.33996e-16
2.07631e-12
-1.8265e-11
2.72385e-16
3.95409e-12
-2.74663e-11
3.42241e-16
6.01467e-12
-3.62257e-11
7.02432e-15
9.74327e-12
-4.79225e-11
-1.97883e-14
1.36465e-11
-5.86254e-11
-1.0259e-14
1.9188e-11
-7.02618e-11
3.40401e-14
2.45125e-11
-8.48593e-11
-7.60158e-16
2.8913e-11
-9.43251e-11
-5.90201e-15
3.48859e-11
-1.10166e-10
-3.54861e-15
4.10128e-11
-1.23014e-10
8.13012e-15
4.80201e-11
-1.37687e-10
-2.48385e-15
5.55653e-11
-1.51947e-10
-4.15662e-15
6.35192e-11
-1.66075e-10
2.55752e-15
7.1806e-11
-1.79972e-10
4.78073e-16
8.02363e-11
-1.93348e-10
-1.55034e-17
8.86883e-11
-2.06033e-10
-3.06543e-16
9.70073e-11
-2.17898e-10
3.49818e-16
1.05049e-10
-2.28703e-10
-1.77388e-17
1.12669e-10
-2.38323e-10
2.22336e-16
1.19729e-10
-2.46621e-10
7.70487e-17
-2.53447e-10
1.29751e-16
2.39842e-13
-3.46932e-12
3.32759e-16
9.97701e-13
-1.1114e-11
1.38187e-15
2.2224e-12
-1.94947e-11
2.16723e-15
4.08235e-12
-2.93232e-11
-2.07574e-15
6.65575e-12
-3.87963e-11
-6.20993e-16
1.00223e-11
-5.13148e-11
1.32013e-14
1.29379e-11
-6.15719e-11
1.40961e-14
1.67304e-11
-7.39837e-11
-4.23957e-14
2.14217e-11
-8.95112e-11
-9.46911e-15
2.86356e-11
-1.01602e-10
3.00698e-14
3.5545e-11
-1.17038e-10
-1.26151e-14
4.34276e-11
-1.3091e-10
8.71962e-15
5.15274e-11
-1.45787e-10
-3.09132e-15
6.0001e-11
-1.60421e-10
-3.56309e-15
6.87361e-11
-1.74816e-10
1.1786e-15
7.76419e-11
-1.88878e-10
2.07431e-16
8.65985e-11
-2.02307e-10
-5.02554e-16
9.54888e-11
-2.14923e-10
4.21178e-18
1.04152e-10
-2.26562e-10
7.01236e-18
1.12442e-10
-2.36995e-10
1.39646e-16
1.20206e-10
-2.46088e-10
-7.9304e-17
1.27302e-10
-2.53717e-10
4.18609e-17
-2.59743e-10
-3.27982e-17
2.6614e-13
-3.73591e-12
1.98326e-16
1.09398e-12
-1.19353e-11
-3.00831e-15
2.69723e-12
-2.10788e-11
-9.82846e-15
4.82361e-12
-3.14629e-11
1.01728e-14
7.91008e-12
-4.19197e-11
1.57796e-14
1.09771e-11
-5.43541e-11
-1.13591e-14
1.59597e-11
-6.65923e-11
1.66303e-14
2.2181e-11
-8.01445e-11
-3.51059e-14
2.71529e-11
-9.44655e-11
-4.91952e-15
3.39564e-11
-1.08463e-10
3.0487e-14
4.07917e-11
-1.23841e-10
-1.30987e-14
4.86095e-11
-1.38735e-10
8.44091e-15
5.69037e-11
-1.54082e-10
-2.94516e-15
6.57116e-11
-1.69226e-10
-3.77969e-15
7.48829e-11
-1.83993e-10
1.84233e-15
8.42591e-11
-1.98253e-10
-2.66463e-16
9.36639e-11
-2.11715e-10
-4.27773e-17
1.02944e-10
-2.24201e-10
-2.14736e-16
1.11908e-10
-2.35526e-10
2.26642e-16
1.204e-10
-2.45487e-10
7.50024e-17
1.28255e-10
-2.53943e-10
7.50647e-17
1.35327e-10
-2.60788e-10
-3.09619e-17
-2.65899e-10
-1.70158e-18
2.9718e-13
-4.03322e-12
-4.27397e-17
1.22125e-12
-1.28585e-11
-3.85779e-16
2.88425e-12
-2.27261e-11
-8.48844e-15
4.99419e-12
-3.3584e-11
8.41298e-15
8.36797e-12
-4.53252e-11
1.19644e-14
1.22248e-11
-5.81846e-11
-1.02457e-14
1.69396e-11
-7.13453e-11
1.93367e-14
2.25714e-11
-8.57253e-11
-2.87678e-14
2.87747e-11
-1.00639e-10
-6.71756e-15
3.61424e-11
-1.15889e-10
2.88702e-14
4.40481e-11
-1.31715e-10
-1.35448e-14
5.27675e-11
-1.47463e-10
9.18489e-15
6.19754e-11
-1.63293e-10
-3.84848e-15
7.15874e-11
-1.78833e-10
-3.10404e-15
8.14632e-11
-1.93874e-10
1.53562e-15
9.14428e-11
-2.08232e-10
3.58071e-16
1.01355e-10
-2.21632e-10
-2.96169e-16
1.11037e-10
-2.33882e-10
1.16505e-16
1.20294e-10
-2.44784e-10
-3.44726e-17
1.28954e-10
-2.54148e-10
7.83789e-17
1.36847e-10
-2.61837e-10
-1.17872e-16
1.43824e-10
-2.67767e-10
-5.31071e-17
-2.71832e-10
-1.14988e-16
3.30279e-13
-4.36352e-12
-6.58419e-17
1.36411e-12
-1.38914e-11
-6.339e-16
3.18503e-12
-2.45308e-11
-8.46623e-15
5.7866e-12
-3.61936e-11
8.25827e-15
9.22268e-12
-4.87972e-11
1.32251e-14
1.35164e-11
-6.24514e-11
-1.00373e-14
1.87329e-11
-7.66056e-11
1.76253e-14
2.51617e-11
-9.21052e-11
-2.94636e-14
3.2094e-11
-1.07546e-10
-7.99045e-15
4.01287e-11
-1.23981e-10
2.88983e-14
4.87751e-11
-1.40332e-10
-1.44926e-14
5.81393e-11
-1.56833e-10
9.36016e-15
6.8039e-11
-1.73195e-10
-2.9536e-15
7.83148e-11
-1.89105e-10
-3.87384e-15
8.88303e-11
-2.04398e-10
1.64171e-15
9.93917e-11
-2.18792e-10
1.31532e-16
1.09796e-10
-2.3204e-10
-2.03392e-16
1.19856e-10
-2.43941e-10
8.7954e-18
1.29362e-10
-2.54291e-10
6.86902e-17
1.3813e-10
-2.62917e-10
3.87517e-17
1.45988e-10
-2.69696e-10
-1.42373e-17
1.52787e-10
-2.74566e-10
-3.87076e-17
-2.7745e-10
-4.30169e-17
3.69285e-13
-4.73283e-12
-9.62472e-17
1.52211e-12
-1.50429e-11
-5.24897e-16
3.57822e-12
-2.65716e-11
-8.4915e-15
6.36451e-12
-3.89905e-11
8.23537e-15
1.04946e-11
-5.29566e-11
1.18711e-14
1.60087e-11
-6.79319e-11
-1.36264e-14
2.1447e-11
-8.2089e-11
2.11906e-14
2.879e-11
-9.94026e-11
-3.0569e-14
3.62092e-11
-1.14939e-10
-5.21158e-15
4.49071e-11
-1.32734e-10
2.73981e-14
5.42081e-11
-1.49594e-10
-1.25688e-14
6.42464e-11
-1.66886e-10
8.22479e-15
7.48712e-11
-1.83825e-10
-3.8542e-15
8.58608e-11
-2.0009e-10
-3.20711e-15
9.70401e-11
-2.15585e-10
1.23543e-15
1.08184e-10
-2.29935e-10
2.02828e-16
1.19061e-10
-2.42921e-10
-2.93429e-16
1.29462e-10
-2.54341e-10
6.12978e-17
1.39161e-10
-2.63991e-10
3.15492e-17
1.47965e-10
-2.71722e-10
4.85238e-17
1.55698e-10
-2.7743e-10
-7.20438e-17
1.62215e-10
-2.81083e-10
-4.9428e-17
-2.82639e-10
-1.00584e-16
4.16748e-13
-5.14961e-12
-3.8843e-17
1.71273e-12
-1.63381e-11
-5.80856e-16
4.05435e-12
-2.88978e-11
-8.01916e-15
7.24378e-12
-4.22041e-11
1.44258e-14
1.12034e-11
-5.69654e-11
1.93529e-14
1.60179e-11
-7.26923e-11
-2.5187e-14
2.19685e-11
-8.80748e-11
1.74053e-14
3.01562e-11
-1.07546e-10
-2.43849e-14
3.8489e-11
-1.23234e-10
-9.19436e-15
4.85892e-11
-1.42904e-10
3.37163e-14
5.90843e-11
-1.6005e-10
-1.63728e-14
7.04164e-11
-1.78228e-10
9.02873e-15
8.2153e-11
-1.95566e-10
-4.12453e-15
9.40873e-11
-2.12013e-10
-3.42418e-15
1.06073e-10
-2.27578e-10
1.99335e-15
1.1785e-10
-2.4171e-10
-3.9745e-17
1.29203e-10
-2.54278e-10
6.84525e-18
1.39906e-10
-2.65042e-10
-7.96607e-19
1.4973e-10
-2.73815e-10
5.94616e-17
1.58477e-10
-2.8047e-10
4.55987e-17
1.65974e-10
-2.84928e-10
-7.68984e-17
1.72086e-10
-2.87196e-10
-7.49667e-17
-2.87271e-10
-1.1516e-16
4.67175e-13
-5.61682e-12
-9.47465e-17
1.92805e-12
-1.77987e-11
-5.04834e-17
4.42331e-12
-3.13921e-11
-1.24491e-15
8.08351e-12
-4.58455e-11
-9.21323e-15
1.35119e-11
-6.23396e-11
-2.44623e-14
1.96303e-11
-7.8895e-11
4.74775e-14
2.81218e-11
-9.66379e-11
2.96767e-14
3.74323e-11
-1.16719e-10
-7.48262e-14
4.59378e-11
-1.31775e-10
1.82644e-14
5.64242e-11
-1.53425e-10
1.418e-14
6.70821e-11
-1.70694e-10
-5.67339e-15
7.88979e-11
-1.90042e-10
8.28354e-15
9.11311e-11
-2.078e-10
-3.04235e-15
1.03664e-10
-2.24546e-10
-2.75767e-15
1.16274e-10
-2.40194e-10
1.03443e-15
1.28577e-10
-2.54011e-10
6.31691e-17
1.40331e-10
-2.66034e-10
-1.3884e-16
1.51254e-10
-2.75963e-10
2.78108e-17
1.61103e-10
-2.83664e-10
1.62871e-16
1.69675e-10
-2.89042e-10
1.0948e-16
1.76802e-10
-2.92056e-10
-2.90736e-17
1.82366e-10
-2.92761e-10
-7.15342e-17
-2.91197e-10
-1.15795e-16
5.32995e-13
-6.14993e-12
-1.25287e-17
2.18929e-12
-1.94557e-11
5.98567e-17
5.10263e-12
-3.43043e-11
-4.93778e-16
9.18079e-12
-4.99153e-11
-1.77626e-15
1.49695e-11
-6.8103e-11
-1.65844e-14
2.07974e-11
-8.48212e-11
5.27403e-14
2.85079e-11
-1.04426e-10
3.38089e-14
3.64048e-11
-1.24421e-10
-1.0489e-13
4.64996e-11
-1.41872e-10
9.60178e-15
5.95089e-11
-1.66497e-10
2.55627e-14
7.23165e-11
-1.83465e-10
-1.27938e-14
8.62574e-11
-2.03997e-10
1.5894e-14
1.00094e-10
-2.2163e-10
-6.09102e-15
1.13892e-10
-2.38344e-10
-1.83366e-15
1.2743e-10
-2.53736e-10
1.22063e-15
1.40373e-10
-2.66951e-10
-4.04074e-16
1.52507e-10
-2.78171e-10
2.3603e-16
1.63566e-10
-2.8702e-10
-1.77473e-16
1.73317e-10
-2.93416e-10
2.05638e-16
1.81566e-10
-2.97291e-10
1.02256e-16
1.88161e-10
-2.98651e-10
-1.34577e-18
1.93004e-10
-2.97605e-10
4.21078e-17
-2.94245e-10
-1.37329e-17
6.0328e-13
-6.75269e-12
-2.62248e-16
2.48113e-12
-2.13312e-11
-1.147e-15
5.81213e-12
-3.76316e-11
-1.82102e-15
1.0559e-11
-5.46592e-11
1.97016e-15
1.66954e-11
-7.42419e-11
-1.75614e-15
2.43466e-11
-9.24185e-11
-2.60563e-14
3.47958e-11
-1.1483e-10
-2.07732e-14
4.63753e-11
-1.36132e-10
7.7838e-14
5.90651e-11
-1.54601e-10
8.1109e-15
7.0484e-11
-1.77828e-10
-4.33729e-14
8.39281e-11
-1.96964e-10
1.90562e-14
9.74624e-11
-2.17507e-10
-8.71481e-15
1.11696e-10
-2.35883e-10
3.56564e-15
1.26047e-10
-2.5268e-10
-2.48521e-15
1.40058e-10
-2.6775e-10
1.49581e-15
1.53439e-10
-2.80332e-10
6.00023e-16
1.65803e-10
-2.90537e-10
-1.1331e-16
1.76859e-10
-2.98075e-10
6.16834e-17
1.86358e-10
-3.02914e-10
1.60763e-16
1.94108e-10
-3.0504e-10
1.77193e-17
1.99982e-10
-3.04525e-10
5.23317e-17
2.03914e-10
-3.01537e-10
8.70085e-18
-2.96229e-10
-2.05635e-17
6.94679e-13
-7.44677e-12
-2.61456e-16
2.86617e-12
-2.35082e-11
2.48892e-15
6.4676e-12
-4.12496e-11
8.06591e-15
1.18775e-11
-6.00625e-11
-8.41371e-15
1.8666e-11
-8.09955e-11
-1.31444e-14
2.79278e-11
-1.01697e-10
6.01803e-15
3.74713e-11
-1.24335e-10
-1.5609e-14
4.78933e-11
-1.46633e-10
4.64753e-14
6.21647e-11
-1.68884e-10
1.69812e-15
7.61628e-11
-1.91759e-10
-3.75769e-14
9.18737e-11
-2.12712e-10
1.41669e-14
1.07617e-10
-2.33243e-10
-1.50675e-15
1.23514e-10
-2.51788e-10
7.15883e-16
1.39125e-10
-2.68281e-10
-1.35023e-15
1.53982e-10
-2.8261e-10
1.3936e-15
1.67842e-10
-2.9419e-10
2.0034e-16
1.80345e-10
-3.0304e-10
8.96974e-17
1.91227e-10
-3.08956e-10
-1.53245e-16
2.00262e-10
-3.1195e-10
2.3935e-16
2.07287e-10
-3.12065e-10
9.80347e-17
2.12207e-10
-3.09446e-10
9.751e-18
2.14998e-10
-3.04329e-10
2.53731e-17
-2.96934e-10
-7.58847e-17
7.92338e-13
-8.23898e-12
3.43408e-17
3.26841e-12
-2.59847e-11
3.18473e-16
7.48278e-12
-4.54781e-11
7.03715e-15
1.38358e-11
-6.64082e-11
-7.13678e-15
2.16502e-11
-8.87775e-11
-1.04566e-14
3.16988e-11
-1.11764e-10
6.6424e-15
4.34999e-11
-1.36091e-10
-2.26495e-14
5.68183e-11
-1.60012e-10
3.43916e-14
7.18331e-11
-1.83941e-10
9.85901e-15
8.74613e-11
-2.07309e-10
-3.9648e-14
1.04105e-10
-2.29401e-10
1.73199e-14
1.20863e-10
-2.49987e-10
-2.98275e-15
1.37671e-10
-2.68605e-10
2.59816e-15
1.54024e-10
-2.8463e-10
-1.9055e-15
1.69454e-10
-2.98042e-10
1.09287e-15
1.83589e-10
-3.08325e-10
1.66186e-16
1.96058e-10
-3.15509e-10
-2.02623e-18
2.06569e-10
-3.19467e-10
-2.14532e-16
2.14916e-10
-3.20297e-10
2.31743e-16
2.20969e-10
-3.18117e-10
-5.59493e-17
2.24682e-10
-3.1316e-10
2.03072e-17
2.26089e-10
-3.05737e-10
-6.35553e-17
-2.96137e-10
-8.9929e-17
9.26746e-13
-9.16564e-12
4.30343e-17
3.80491e-12
-2.88638e-11
5.20331e-16
8.74309e-12
-5.04299e-11
7.08596e-15
1.58691e-11
-7.35288e-11
-6.91248e-15
2.51596e-11
-9.8034e-11
-1.13155e-14
3.65992e-11
-1.23224e-10
6.33754e-15
4.99571e-11
-1.49399e-10
-1.97146e-14
6.47665e-11
-1.74882e-10
3.69489e-14
8.14655e-11
-2.00672e-10
9.93807e-15
9.89581e-11
-2.24725e-10
-3.835e-14
1.17299e-10
-2.4778e-10
1.8106e-14
1.35662e-10
-2.68339e-10
-3.35454e-15
1.53736e-10
-2.86685e-10
1.64325e-15
1.70966e-10
-3.01851e-10
-1.58825e-15
1.86883e-10
-3.13959e-10
1.43767e-15
2.01078e-10
-3.22519e-10
-2.70184e-17
2.13217e-10
-3.27648e-10
2.45885e-17
2.23026e-10
-3.29274e-10
-2.52392e-16
2.30344e-10
-3.27615e-10
2.3463e-16
2.35091e-10
-3.22865e-10
1.17126e-16
2.37284e-10
-3.15353e-10
1.97816e-17
2.37021e-10
-3.05474e-10
5.29776e-17
-2.93586e-10
-7.9506e-17
1.07e-12
-1.02355e-11
5.7204e-17
4.39706e-12
-3.2192e-11
4.12771e-16
1.00714e-11
-5.61175e-11
7.08888e-15
1.83612e-11
-8.18118e-11
-6.96312e-15
2.87837e-11
-1.08428e-10
-1.04916e-14
4.1241e-11
-1.35705e-10
9.63772e-15
5.67921e-11
-1.64902e-10
-2.35254e-14
7.33794e-11
-1.91526e-10
3.80934e-14
9.22334e-11
-2.19559e-10
8.75339e-15
1.117e-10
-2.44117e-10
-3.81889e-14
1.31936e-10
-2.68064e-10
1.67091e-14
1.51928e-10
-2.88313e-10
-1.97912e-15
1.71298e-10
-3.06059e-10
1.66914e-15
1.89379e-10
-3.19925e-10
-1.25035e-15
2.05712e-10
-3.30292e-10
1.45881e-15
2.19826e-10
-3.36632e-10
-3.3478e-17
2.31429e-10
-3.3925e-10
2.2714e-16
2.40267e-10
-3.38112e-10
-9.60685e-17
2.46249e-10
-3.33597e-10
9.26449e-17
2.49368e-10
-3.25984e-10
-2.21984e-16
2.49727e-10
-3.15712e-10
-2.51212e-17
2.47508e-10
-3.03257e-10
-7.81973e-17
-2.8904e-10
-8.46189e-17
1.27053e-12
-1.1506e-11
2.44347e-17
5.20911e-12
-3.61312e-11
4.69339e-16
1.18944e-11
-6.28157e-11
6.6746e-15
2.1577e-11
-9.14749e-11
-1.17276e-14
3.43623e-11
-1.21168e-10
-1.65252e-14
4.99661e-11
-1.51351e-10
1.79999e-14
6.79585e-11
-1.82854e-10
-1.91212e-14
8.68778e-11
-2.10498e-10
3.18791e-14
1.08095e-10
-2.40815e-10
1.14784e-14
1.2944e-10
-2.65382e-10
-4.01208e-14
1.51385e-10
-2.90053e-10
1.71441e-14
1.7255e-10
-3.09463e-10
-2.44568e-15
1.92739e-10
-3.26253e-10
2.85427e-15
2.11136e-10
-3.38319e-10
-2.13543e-15
2.27297e-10
-3.46454e-10
1.61784e-15
2.40742e-10