/*--------------------------------*- C++ -*----------------------------------*\
| =========                 |                                                 |
| \\      /  F ield         | OpenFOAM: The Open Source CFD Toolbox           |
|  \\    /   O peration     | Version:  v2012                                 |
|   \\  /    A nd           | Website:  www.openfoam.com                      |
|    \\/     M anipulation  |                                                 |
\*---------------------------------------------------------------------------*/
FoamFile
{
    version     2.0;
    format      ascii;
    class       volVectorField;
    location    "0.45";
    object      U;
}
// * * * * * * * * * * * * * * * * * * * * * * * * * * * * * * * * * * * * * //

dimensions      [0 1 -1 0 0 0 0];


internalField   nonuniform List<vector> 
2619
(
(0.000102621 -0.0064959 -8.9634e-07)
(0.000164349 -0.00672172 -1.43474e-06)
(0.000277044 -0.00688266 -2.41914e-06)
(0.00028144 -0.00702765 -2.45522e-06)
(0.000390695 -0.00712627 -3.40427e-06)
(0.000488914 -0.00721989 -4.2668e-06)
(0.000560115 -0.00727924 -4.88992e-06)
(0.000650926 -0.00733944 -5.68033e-06)
(0.000743032 -0.00737029 -6.48441e-06)
(0.000826134 -0.00739586 -7.20706e-06)
(0.000921115 -0.00739981 -8.0363e-06)
(0.00100763 -0.0073908 -8.79602e-06)
(0.00109944 -0.00737197 -9.59771e-06)
(0.001179 -0.00733103 -1.02875e-05)
(0.00126892 -0.00728203 -1.10729e-05)
(0.00135424 -0.00721533 -1.18199e-05)
(4.48824e-05 -0.00645211 -3.91867e-07)
(0.000110456 -0.00675384 -9.63961e-07)
(0.000194147 -0.00698156 -1.69458e-06)
(0.000244619 -0.00714276 -2.13429e-06)
(0.000344458 -0.00731254 -3.00372e-06)
(0.000454223 -0.0073768 -3.96478e-06)
(0.000499767 -0.00748989 -4.36401e-06)
(0.000604466 -0.00754002 -5.27438e-06)
(0.000690404 -0.00758858 -6.02396e-06)
(0.000782525 -0.00761959 -6.82838e-06)
(0.00087438 -0.00763309 -7.63008e-06)
(0.000971187 -0.00763696 -8.47465e-06)
(0.00106107 -0.00762013 -9.25853e-06)
(0.00116116 -0.00760191 -1.0134e-05)
(0.0012563 -0.00755107 -1.09647e-05)
(0.00134281 -0.00750113 -1.17181e-05)
(0.00143951 -0.00742697 -1.25628e-05)
(0.00152118 -0.00734197 -1.32762e-05)
(5.58257e-05 -0.00671858 -4.87074e-07)
(0.000103021 -0.00701645 -8.98998e-07)
(0.000207243 -0.00725696 -1.80903e-06)
(0.000285436 -0.00740949 -2.49054e-06)
(0.000337365 -0.00755926 -2.94267e-06)
(0.00048942 -0.00765125 -4.27141e-06)
(0.000529677 -0.00775373 -4.62363e-06)
(0.000665212 -0.00780911 -5.80367e-06)
(0.0007389 -0.00786595 -6.44772e-06)
(0.00084649 -0.00789261 -7.38723e-06)
(0.000937591 -0.00791118 -8.18396e-06)
(0.00104267 -0.00790572 -9.09995e-06)
(0.00113455 -0.00788762 -9.89893e-06)
(0.00124084 -0.00785275 -1.08283e-05)
(0.00133617 -0.00780122 -1.16616e-05)
(0.00142765 -0.00773693 -1.24574e-05)
(0.00152965 -0.00765521 -1.33486e-05)
(0.00161519 -0.00755902 -1.40961e-05)
(0.00170486 -0.00744709 -1.48789e-05)
(5.5955e-05 -0.00700484 -4.88493e-07)
(0.000118409 -0.00731401 -1.03361e-06)
(0.000221423 -0.00755051 -1.93285e-06)
(0.000291788 -0.00772633 -2.54596e-06)
(0.000380018 -0.00786771 -3.31394e-06)
(0.000504777 -0.00798494 -4.40555e-06)
(0.000550004 -0.00805448 -4.80146e-06)
(0.000685402 -0.00812352 -5.97906e-06)
(0.000775887 -0.00815812 -6.77118e-06)
(0.00088827 -0.0081847 -7.7527e-06)
(0.000994718 -0.00818612 -8.68128e-06)
(0.00110981 -0.00818334 -9.68508e-06)
(0.00120939 -0.00815386 -1.0553e-05)
(0.00132279 -0.00811703 -1.15439e-05)
(0.00142668 -0.00805829 -1.24514e-05)
(0.00152162 -0.00798522 -1.32783e-05)
(0.00162893 -0.00789534 -1.42151e-05)
(0.00171806 -0.00778871 -1.4994e-05)
(0.00181115 -0.00766598 -1.58065e-05)
(6.45783e-05 -0.0073072 -5.63726e-07)
(0.000119006 -0.00762696 -1.03856e-06)
(0.000235392 -0.00783783 -2.05476e-06)
(0.000329089 -0.00805712 -2.87076e-06)
(0.000384663 -0.00813682 -3.35337e-06)
(0.000574619 -0.00827585 -5.01527e-06)
(0.000634026 -0.00834537 -5.53718e-06)
(0.000765633 -0.00841072 -6.68121e-06)
(0.000863667 -0.00844554 -7.5375e-06)
(0.000975482 -0.00849141 -8.51311e-06)
(0.0010742 -0.00847709 -9.37282e-06)
(0.00118676 -0.00848099 -1.03548e-05)
(0.00129262 -0.00844209 -1.12802e-05)
(0.00140597 -0.00839792 -1.22712e-05)
(0.00151818 -0.00833086 -1.325e-05)
(0.00161813 -0.0082484 -1.41206e-05)
(0.0017314 -0.00814816 -1.51096e-05)
(0.00182616 -0.00803071 -1.59376e-05)
(0.00192361 -0.00789622 -1.67879e-05)
(5.64796e-05 -0.00763827 -4.93045e-07)
(0.000150766 -0.00796069 -1.31565e-06)
(0.000237523 -0.00818982 -2.07211e-06)
(0.000332733 -0.00840584 -2.90386e-06)
(0.000481933 -0.00848901 -4.20954e-06)
(0.000519833 -0.00863577 -4.53528e-06)
(0.00063436 -0.00871833 -5.52491e-06)
(0.000778062 -0.00877752 -6.79277e-06)
(0.000851802 -0.00880274 -7.43834e-06)
(0.00100341 -0.00882835 -8.75193e-06)
(0.00113607 -0.00880985 -9.916e-06)
(0.0012493 -0.00880038 -1.09037e-05)
(0.00138372 -0.00875049 -1.20746e-05)
(0.00150023 -0.00869978 -1.3093e-05)
(0.00162205 -0.00862074 -1.41563e-05)
(0.00172649 -0.00852891 -1.50661e-05)
(0.00184499 -0.00841651 -1.61012e-05)
(0.00194353 -0.00828707 -1.69621e-05)
(0.00204496 -0.00813933 -1.78471e-05)
(7.2242e-05 -0.00798683 -6.30583e-07)
(0.000153148 -0.00830713 -1.33652e-06)
(0.000245164 -0.00854391 -2.13861e-06)
(0.000404534 -0.00873592 -3.53009e-06)
(0.000497189 -0.00884245 -4.34114e-06)
(0.000583827 -0.00901857 -5.0924e-06)
(0.000738976 -0.00903107 -6.43735e-06)
(0.000905912 -0.00908357 -7.91112e-06)
(0.00100026 -0.0091837 -8.73863e-06)
(0.0011331 -0.00913225 -9.88654e-06)
(0.00124056 -0.00915603 -1.08267e-05)
(0.00135667 -0.00913171 -1.18395e-05)
(0.00148478 -0.00907227 -1.29557e-05)
(0.00160004 -0.00901849 -1.39632e-05)
(0.00173091 -0.00892713 -1.51063e-05)
(0.00183873 -0.00882535 -1.60459e-05)
(0.00196439 -0.00870031 -1.71432e-05)
(0.00206808 -0.00855773 -1.80491e-05)
(0.00217416 -0.00839558 -1.89747e-05)
(6.68234e-05 -0.00836592 -5.8316e-07)
(0.000175318 -0.00871166 -1.52963e-06)
(0.000250854 -0.00891598 -2.1881e-06)
(0.000393808 -0.00921053 -3.43598e-06)
(0.000493081 -0.00916219 -4.30102e-06)
(0.000576648 -0.00942661 -5.03352e-06)
(0.000846278 -0.00940674 -7.39621e-06)
(0.000791057 -0.00946038 -6.89845e-06)
(0.00097205 -0.00956683 -8.46213e-06)
(0.00120781 -0.00950123 -1.05457e-05)
(0.00124977 -0.00952852 -1.09126e-05)
(0.00144695 -0.00948913 -1.2621e-05)
(0.00158098 -0.00942456 -1.37975e-05)
(0.00170353 -0.00935773 -1.48679e-05)
(0.00185137 -0.00925512 -1.6158e-05)
(0.00196224 -0.00913992 -1.71241e-05)
(0.0020954 -0.00900088 -1.82865e-05)
(0.00220302 -0.0088437 -1.92267e-05)
(0.00231361 -0.00866557 -2.01918e-05)
(6.34526e-05 -0.00877263 -5.54098e-07)
(0.000192676 -0.0091178 -1.6819e-06)
(0.000220005 -0.00934977 -1.9201e-06)
(0.000537194 -0.00962572 -4.69001e-06)
(0.000685176 -0.00962232 -5.98212e-06)
(0.000506954 -0.00985226 -4.42457e-06)
(0.00101176 -0.00987202 -8.8338e-06)
(0.000899137 -0.00993264 -7.84383e-06)
(0.00112659 -0.00995937 -9.81499e-06)
(0.00134638 -0.00993501 -1.17579e-05)
(0.00136207 -0.0099194 -1.18937e-05)
(0.00157288 -0.00987173 -1.37207e-05)
(0.00169659 -0.00979944 -1.48055e-05)
(0.00182364 -0.00971569 -1.59146e-05)
(0.00197878 -0.00960386 -1.72703e-05)
(0.00209426 -0.00947364 -1.8277e-05)
(0.00223396 -0.00931945 -1.94959e-05)
(0.002347 -0.00914631 -2.04832e-05)
(0.00246241 -0.00895039 -2.14904e-05)
(7.26054e-05 -0.00921204 -6.33775e-07)
(0.000222073 -0.00954446 -1.93792e-06)
(0.000229634 -0.00978751 -2.00407e-06)
(0.000534831 -0.00997143 -4.66918e-06)
(0.000682798 -0.010096 -5.96091e-06)
(0.000539012 -0.010215 -4.70208e-06)
(0.0010805 -0.0102662 -9.43148e-06)
(0.000917467 -0.0103213 -8.00654e-06)
(0.0011787 -0.0103496 -1.02724e-05)
(0.00142067 -0.0103452 -1.24047e-05)
(0.00144508 -0.0103204 -1.26178e-05)
(0.00167603 -0.0102748 -1.46228e-05)
(0.00181686 -0.0101943 -1.58567e-05)
(0.00194928 -0.0100966 -1.70102e-05)
(0.00211598 -0.00997274 -1.84664e-05)
(0.00223976 -0.00982593 -1.95471e-05)
(0.0023855 -0.00965539 -2.08187e-05)
(0.0025034 -0.00946507 -2.18482e-05)
(0.00262356 -0.00925001 -2.28969e-05)
(8.31452e-05 -0.00968326 -7.2577e-07)
(0.000236862 -0.0100298 -2.06718e-06)
(0.000246845 -0.010306 -2.15362e-06)
(0.000590651 -0.0104853 -5.15564e-06)
(0.000736637 -0.0106541 -6.43055e-06)
(0.000582099 -0.0107578 -5.07865e-06)
(0.00113357 -0.0108132 -9.89543e-06)
(0.00099063 -0.010856 -8.64543e-06)
(0.00126511 -0.0108589 -1.10266e-05)
(0.00151799 -0.0108356 -1.32538e-05)
(0.00155001 -0.010787 -1.35317e-05)
(0.00179462 -0.0107205 -1.56556e-05)
(0.00194636 -0.0106247 -1.69881e-05)
(0.00208682 -0.0105086 -1.82124e-05)
(0.0022629 -0.0103687 -1.97489e-05)
(0.00239424 -0.0102043 -2.08951e-05)
(0.00254519 -0.0100134 -2.22122e-05)
(0.00266952 -0.00980375 -2.32978e-05)
(0.00279505 -0.00956659 -2.43937e-05)
(9.05717e-05 -0.0101913 -7.90652e-07)
(0.000250766 -0.0105445 -2.18835e-06)
(0.000282041 -0.0107826 -2.4605e-06)
(0.000623786 -0.0109656 -5.44491e-06)
(0.000768985 -0.0110717 -6.71355e-06)
(0.000718244 -0.0111565 -6.26566e-06)
(0.00128261 -0.011222 -1.1195e-05)
(0.00111467 -0.0112869 -9.73001e-06)
(0.00141733 -0.0112754 -1.23534e-05)
(0.0016682 -0.0112867 -1.45633e-05)
(0.00170027 -0.0112315 -1.48444e-05)
(0.00194245 -0.0111663 -1.69462e-05)
(0.00210068 -0.0110658 -1.83335e-05)
(0.00224359 -0.0109385 -1.95806e-05)
(0.002426 -0.0107837 -2.11719e-05)
(0.00256751 -0.0106023 -2.24077e-05)
(0.00272347 -0.0103911 -2.37688e-05)
(0.00285198 -0.0101601 -2.48903e-05)
(0.00298252 -0.0099 -2.60299e-05)
(0.00309028 -0.00961989 -2.69705e-05)
(0.00318825 -0.00931702 -2.78255e-05)
(0.00326895 -0.00899453 -2.85303e-05)
(0.00333249 -0.00865415 -2.9085e-05)
(9.38318e-05 -0.0107439 -8.19033e-07)
(0.00027963 -0.0110934 -2.44044e-06)
(0.000315295 -0.0114159 -2.75018e-06)
(0.00066555 -0.0115111 -5.81033e-06)
(0.000843977 -0.0117929 -7.36961e-06)
(0.000649718 -0.011935 -5.66643e-06)
(0.00117429 -0.0117979 -1.02454e-05)
(0.0010916 -0.0120383 -9.52309e-06)
(0.00141244 -0.0118603 -1.23117e-05)
(0.00167574 -0.011899 -1.46318e-05)
(0.00178012 -0.0117798 -1.55432e-05)
(0.00203742 -0.0117042 -1.77767e-05)
(0.00222986 -0.0115609 -1.94602e-05)
(0.00239396 -0.0114167 -2.0892e-05)
(0.00259167 -0.0112311 -2.26176e-05)
(0.00274532 -0.0110278 -2.39597e-05)
(0.00290953 -0.0107925 -2.53926e-05)
(0.00304485 -0.0105361 -2.65733e-05)
(0.00318126 -0.0102513 -2.77643e-05)
(0.00329182 -0.0099444 -2.87296e-05)
(0.00339128 -0.00961456 -2.95976e-05)
(0.00347139 -0.00926444 -3.02972e-05)
(0.00353248 -0.00889631 -3.08305e-05)
(0.000120433 -0.0113378 -1.05105e-06)
(0.000260176 -0.0116941 -2.2703e-06)
(0.000395669 -0.0119879 -3.45373e-06)
(0.000719617 -0.0120671 -6.2789e-06)
(0.000632203 -0.0123437 -5.50578e-06)
(0.00117639 -0.012445 -1.02738e-05)
(0.00154563 -0.0122238 -1.3528e-05)
(0.00125855 -0.0124492 -1.09682e-05)
(0.00186658 -0.0123132 -1.6247e-05)
(0.00190505 -0.0124015 -1.66522e-05)
(0.00205524 -0.0122668 -1.79535e-05)
(0.00226062 -0.0122118 -1.97178e-05)
(0.00245398 -0.0120574 -2.14133e-05)
(0.00259601 -0.0119036 -2.26566e-05)
(0.00280015 -0.0117006 -2.44367e-05)
(0.00295119 -0.0114769 -2.57565e-05)
(0.00312092 -0.0112175 -2.72374e-05)
(0.00325799 -0.0109339 -2.84335e-05)
(0.00339817 -0.0106213 -2.96574e-05)
(0.00350946 -0.0102849 -3.06292e-05)
(0.00360938 -0.00992534 -3.15011e-05)
(0.00368769 -0.00954506 -3.2185e-05)
(0.00374557 -0.00914676 -3.26904e-05)
(0.000115371 -0.0119846 -1.00698e-06)
(0.000290452 -0.0123599 -2.53496e-06)
(0.000462314 -0.0126558 -4.03518e-06)
(0.000713928 -0.0128079 -6.22986e-06)
(0.000686537 -0.0130172 -5.98229e-06)
(0.00119233 -0.0128812 -1.04166e-05)
(0.00144133 -0.0131987 -1.26214e-05)
(0.0010576 -0.0133081 -9.20976e-06)
(0.00162082 -0.0128562 -1.40899e-05)
(0.00179239 -0.0131469 -1.56558e-05)
(0.00208 -0.0128655 -1.81698e-05)
(0.0023048 -0.0128144 -2.01076e-05)
(0.00258171 -0.012621 -2.25288e-05)
(0.0027528 -0.0124426 -2.40254e-05)
(0.0029866 -0.012208 -2.60636e-05)
(0.00315543 -0.0119574 -2.7539e-05)
(0.00333875 -0.0116683 -2.91386e-05)
(0.00348383 -0.0113545 -3.04045e-05)
(0.00362951 -0.0110109 -3.16765e-05)
(0.00374294 -0.0106424 -3.2667e-05)
(0.00384273 -0.0102501 -3.35378e-05)
(0.00391883 -0.00983678 -3.42024e-05)
(0.00397226 -0.00940559 -3.4669e-05)
(0.000143542 -0.0126903 -1.25287e-06)
(0.000296939 -0.0130219 -2.59126e-06)
(0.000518684 -0.013432 -4.52722e-06)
(0.000827534 -0.0132931 -7.2245e-06)
(0.000958137 -0.0139846 -8.36518e-06)
(0.00132621 -0.0135273 -1.15694e-05)
(0.00119727 -0.0140006 -1.04303e-05)
(0.00201182 -0.0140021 -1.75737e-05)
(0.00231582 -0.0135684 -2.02488e-05)
(0.00193304 -0.0138209 -1.686e-05)
(0.00257712 -0.0135162 -2.24706e-05)
(0.00255684 -0.0134404 -2.23297e-05)
(0.00287373 -0.0132195 -2.50893e-05)
(0.00300475 -0.0130131 -2.62217e-05)
(0.00324063 -0.0127493 -2.82788e-05)
(0.00340016 -0.0124675 -2.96751e-05)
(0.00358859 -0.0121464 -3.13188e-05)
(0.00373354 -0.0117986 -3.2584e-05)
(0.00388193 -0.0114205 -3.38795e-05)
(0.00399512 -0.0110164 -3.4868e-05)
(0.00409373 -0.0105883 -3.57286e-05)
(0.00416609 -0.010139 -3.63605e-05)
(0.00421396 -0.00967214 -3.67786e-05)
(0.000192153 -0.0134471 -1.6778e-06)
(0.000278612 -0.013794 -2.43283e-06)
(0.0007262 -0.0141537 -6.33762e-06)
(0.000605325 -0.0140476 -5.27093e-06)
(0.000638039 -0.0145839 -5.55401e-06)
(0.00178369 -0.0142611 -1.55658e-05)
(0.001005 -0.0144717 -8.76628e-06)
(0.00199383 -0.0143635 -1.74127e-05)
(0.00209953 -0.0143432 -1.83527e-05)
(0.00191069 -0.014334 -1.6653e-05)
(0.00265645 -0.0141777 -2.31616e-05)
(0.0026553 -0.014048 -2.3191e-05)
(0.0030504 -0.0138379 -2.66321e-05)
(0.00320724 -0.0136019 -2.79901e-05)
(0.00347113 -0.013319 -3.02904e-05)
(0.00364715 -0.0130039 -3.18307e-05)
(0.00384823 -0.0126511 -3.35849e-05)
(0.00400036 -0.0122666 -3.49127e-05)
(0.00415243 -0.0118511 -3.62404e-05)
(0.00426617 -0.0114081 -3.72337e-05)
(0.00436249 -0.0109406 -3.80744e-05)
(0.00443024 -0.010452 -3.86661e-05)
(0.00447093 -0.00994631 -3.90216e-05)
(0.000197416 -0.0142724 -1.72306e-06)
(0.000284213 -0.0146895 -2.48045e-06)
(0.00077724 -0.0149792 -6.78341e-06)
(0.00077726 -0.0152043 -6.77282e-06)
(0.000875486 -0.0153366 -7.62733e-06)
(0.00190951 -0.0153785 -1.6668e-05)
(0.00113291 -0.0154598 -9.88651e-06)
(0.00232138 -0.0154089 -2.02653e-05)
(0.00239607 -0.015287 -2.09363e-05)
(0.00216571 -0.0151814 -1.88841e-05)
(0.00293706 -0.0149951 -2.56098e-05)
(0.00292419 -0.0147936 -2.55336e-05)
(0.00332351 -0.0145436 -2.90142e-05)
(0.00348087 -0.0142633 -3.03783e-05)
(0.00375173 -0.0139396 -3.27389e-05)
(0.00393054 -0.0135828 -3.43041e-05)
(0.00413756 -0.013189 -3.611e-05)
(0.00429241 -0.0127621 -3.74616e-05)
(0.00444619 -0.0123038 -3.88043e-05)
(0.00455873 -0.0118176 -3.97873e-05)
(0.0046516 -0.0113067 -4.05977e-05)
(0.0047129 -0.0107752 -4.11332e-05)
(0.00474485 -0.0102273 -4.14125e-05)
(0.000196676 -0.0151759 -1.71686e-06)
(0.000322638 -0.0155763 -2.81585e-06)
(0.000874969 -0.0158144 -7.6363e-06)
(0.000781374 -0.0160018 -6.80928e-06)
(0.000956335 -0.0160705 -8.33331e-06)
(0.00207083 -0.0161011 -1.80739e-05)
(0.00130156 -0.0161597 -1.13555e-05)
(0.00251138 -0.0160836 -2.19225e-05)
(0.00258172 -0.0160362 -2.25597e-05)
(0.00237792 -0.0159092 -2.07387e-05)
(0.00317182 -0.0157408 -2.76599e-05)
(0.00316758 -0.0155259 -2.7659e-05)
(0.00358713 -0.0152567 -3.13143e-05)
(0.00376119 -0.0149477 -3.28239e-05)
(0.00404612 -0.0145899 -3.53081e-05)
(0.0042356 -0.0141927 -3.69666e-05)
(0.00445013 -0.0137565 -3.88381e-05)
(0.00460944 -0.0132839 -4.02287e-05)
(0.00476381 -0.012779 -4.15765e-05)
(0.00487422 -0.0122453 -4.25408e-05)
(0.00496166 -0.0116868 -4.3304e-05)
(0.00501491 -0.0111083 -4.37693e-05)
(0.00503594 -0.0105145 -4.39532e-05)
(0.000217649 -0.0161707 -1.89968e-06)
(0.000360893 -0.0165898 -3.14947e-06)
(0.000907872 -0.0168856 -7.92344e-06)
(0.00090143 -0.0171285 -7.8569e-06)
(0.0011045 -0.017269 -9.62516e-06)
(0.00203672 -0.0173578 -1.77787e-05)
(0.00130239 -0.0173458 -1.13627e-05)
(0.00261347 -0.0171979 -2.281e-05)
(0.00266485 -0.0171212 -2.32894e-05)
(0.00255421 -0.016872 -2.22779e-05)
(0.00337198 -0.0166691 -2.94047e-05)
(0.00342381 -0.0163829 -2.98951e-05)
(0.00387176 -0.0160601 -3.37997e-05)
(0.00406583 -0.0157009 -3.54826e-05)
(0.00437002 -0.0152932 -3.81348e-05)
(0.00456858 -0.0148455 -3.98729e-05)
(0.00479082 -0.0143592 -4.18116e-05)
(0.00495352 -0.0138344 -4.32318e-05)
(0.00510775 -0.0132773 -4.45784e-05)
(0.00521455 -0.0126909 -4.55113e-05)
(0.0052951 -0.0120801 -4.62144e-05)
(0.00533795 -0.0114503 -4.6589e-05)
(0.00534587 -0.0108067 -4.66585e-05)
(0.000225001 -0.0172473 -1.96383e-06)
(0.000405484 -0.0176801 -3.53886e-06)
(0.00099229 -0.0178488 -8.66056e-06)
(0.000942 -0.0182071 -8.20902e-06)
(0.00124983 -0.0180349 -1.08906e-05)
(0.00247377 -0.0179072 -2.15955e-05)
(0.00191093 -0.0183878 -1.66859e-05)
(0.00310214 -0.0177562 -2.70855e-05)
(0.0031518 -0.0180664 -2.75336e-05)
(0.00303481 -0.0176682 -2.64648e-05)
(0.00375262 -0.0175438 -3.2725e-05)
(0.00381829 -0.0172282 -3.33375e-05)
(0.00423555 -0.0168831 -3.69756e-05)
(0.00442914 -0.0164872 -3.86541e-05)
(0.00473828 -0.0160353 -4.13492e-05)
(0.00494012 -0.0155354 -4.31158e-05)
(0.00516556 -0.0149958 -4.50822e-05)
(0.00533003 -0.0144137 -4.65179e-05)
(0.0054809 -0.0137992 -4.78353e-05)
(0.00558203 -0.0131546 -4.87187e-05)
(0.00565281 -0.0124864 -4.93366e-05)
(0.00568286 -0.0118005 -4.95995e-05)
(0.00567477 -0.0111029 -4.95294e-05)
(0.000226792 -0.0184426 -1.97961e-06)
(0.000508449 -0.01889 -4.43711e-06)
(0.00096301 -0.0190842 -8.40316e-06)
(0.00110034 -0.0195055 -9.60212e-06)
(0.00193762 -0.0193072 -1.69236e-05)
(0.00166633 -0.0192613 -1.45137e-05)
(0.0015023 -0.0198717 -1.30482e-05)
(0.00321307 -0.0192408 -2.80705e-05)
(0.00264929 -0.0194008 -2.31712e-05)
(0.00321805 -0.0188342 -2.8041e-05)
(0.00377853 -0.018658 -3.29611e-05)
(0.00407085 -0.0182213 -3.55471e-05)
(0.00453041 -0.0178197 -3.95501e-05)
(0.00477307 -0.0173551 -4.16549e-05)
(0.00511799 -0.0168383 -4.46624e-05)
(0.00533505 -0.016276 -4.65629e-05)
(0.00556931 -0.0156718 -4.86062e-05)
(0.00573706 -0.0150246 -5.00707e-05)
(0.00588448 -0.0143453 -5.13579e-05)
(0.00597842 -0.013636 -5.21786e-05)
(0.00603729 -0.0129046 -5.26925e-05)
(0.00605148 -0.0121574 -5.2817e-05)
(0.00602434 -0.0114013 -5.25807e-05)
(0.000242412 -0.0197512 -2.11573e-06)
(0.000579517 -0.0201818 -5.05773e-06)
(0.00101657 -0.0204099 -8.87129e-06)
(0.00121884 -0.0206834 -1.06362e-05)
(0.00215772 -0.0205787 -1.88431e-05)
(0.00196802 -0.0210303 -1.71396e-05)
(0.00217014 -0.0203939 -1.88701e-05)
(0.00416211 -0.0199963 -3.63634e-05)
(0.00374616 -0.0207366 -3.27698e-05)
(0.00407952 -0.0196715 -3.55819e-05)
(0.00439897 -0.0197743 -3.83734e-05)
(0.00468032 -0.0191938 -4.08588e-05)
(0.0050091 -0.0187881 -4.37266e-05)
(0.00524805 -0.0182676 -4.57994e-05)
(0.0055773 -0.0176847 -4.86716e-05)
(0.00578846 -0.0170591 -5.05205e-05)
(0.00602178 -0.0163841 -5.25555e-05)
(0.00618555 -0.0156655 -5.39853e-05)
(0.00632432 -0.0149149 -5.5197e-05)
(0.00640704 -0.0141342 -5.59196e-05)
(0.00644977 -0.0133335 -5.62928e-05)
(0.00644457 -0.0125195 -5.62482e-05)
(0.00639452 -0.0117001 -5.58119e-05)
(0.000261568 -0.0211916 -2.28305e-06)
(0.000653531 -0.0216822 -5.70371e-06)
(0.00106431 -0.0217599 -9.28803e-06)
(0.00140106 -0.0223667 -1.22227e-05)
(0.00198714 -0.0216111 -1.73325e-05)
(0.00220335 -0.0224113 -1.92294e-05)
(0.00319527 -0.0215756 -2.79251e-05)
(0.00269662 -0.0212894 -2.34874e-05)
(0.00290608 -0.0219526 -2.52805e-05)
(0.00450484 -0.0208871 -3.93239e-05)
(0.00410611 -0.0209371 -3.58506e-05)
(0.00505894 -0.0203039 -4.41365e-05)
(0.00529536 -0.0198382 -4.62333e-05)
(0.00566746 -0.019249 -4.9462e-05)
(0.00603492 -0.018593 -5.26665e-05)
(0.00626121 -0.0178917 -5.46465e-05)
(0.00650684 -0.017137 -5.67886e-05)
(0.00666879 -0.0163387 -5.8203e-05)
(0.00679931 -0.0155078 -5.93427e-05)
(0.00686896 -0.0146485 -5.99515e-05)
(0.00689242 -0.0137716 -6.01566e-05)
(0.0068638 -0.0128848 -5.99075e-05)
(0.00678669 -0.011997 -5.92351e-05)
(0.000218617 -0.0227951 -1.9067e-06)
(0.00082095 -0.0232916 -7.16242e-06)
(0.000971045 -0.0234457 -8.4749e-06)
(0.00189658 -0.0240063 -1.65775e-05)
(0.00269537 -0.023511 -2.35479e-05)
(0.00195436 -0.0240156 -1.7046e-05)
(0.0039075 -0.0236639 -3.41138e-05)
(0.00344906 -0.0235626 -3.00601e-05)
(0.00403698 -0.0232236 -3.51738e-05)
(0.00535218 -0.0226379 -4.67442e-05)
(0.00479436 -0.0222409 -4.18573e-05)
(0.00573729 -0.0216104 -5.00511e-05)
(0.00585807 -0.0210089 -5.11423e-05)
(0.00623455 -0.0203245 -5.44095e-05)
(0.00658667 -0.0195773 -5.74822e-05)
(0.00680691 -0.018782 -5.94094e-05)
(0.00704918 -0.0179344 -6.15223e-05)
(0.00720156 -0.0170452 -6.28534e-05)
(0.00731739 -0.0161236 -6.38647e-05)
(0.00736793 -0.0151772 -6.43067e-05)
(0.0073668 -0.0142163 -6.42972e-05)
(0.00730974 -0.0132504 -6.38e-05)
(0.00720052 -0.0122889 -6.28474e-05)
(0.000275418 -0.0245857 -2.40383e-06)
(0.000913733 -0.0249852 -7.97457e-06)
(0.00108932 -0.0252237 -9.50698e-06)
(0.00199473 -0.0253197 -1.7432e-05)
(0.00271094 -0.0252705 -2.36807e-05)
(0.00224992 -0.0252576 -1.96196e-05)
(0.00427188 -0.0249303 -3.72891e-05)
(0.00347767 -0.0246932 -3.03202e-05)
(0.00419503 -0.0244538 -3.65581e-05)
(0.00569339 -0.0239606 -4.97155e-05)
(0.00513439 -0.0235113 -4.48302e-05)
(0.00622374 -0.0228873 -5.43004e-05)
(0.00637155 -0.0222081 -5.56241e-05)
(0.00679674 -0.0214479 -5.93157e-05)
(0.00717135 -0.020611 -6.25855e-05)
(0.00739737 -0.0197181 -6.4563e-05)
(0.00763932 -0.0187707 -6.66731e-05)
(0.00778076 -0.0177812 -6.79088e-05)
(0.00787901 -0.0167603 -6.87668e-05)
(0.00790577 -0.0157178 -6.90013e-05)
(0.00787506 -0.0146652 -6.87337e-05)
(0.00778377 -0.0136133 -6.79377e-05)
(0.00763682 -0.0125725 -6.66558e-05)
(0.000317649 -0.0265536 -2.77193e-06)
(0.00102517 -0.0270016 -8.94732e-06)
(0.00118278 -0.0272982 -1.03228e-05)
(0.00227689 -0.0274508 -1.98936e-05)
(0.00303951 -0.0274502 -2.65485e-05)
(0.00250345 -0.0274189 -2.18361e-05)
(0.00466072 -0.0270721 -4.06882e-05)
(0.00390293 -0.0268176 -3.40329e-05)
(0.00474044 -0.0262997 -4.13129e-05)
(0.00626182 -0.0257548 -5.46721e-05)
(0.00572959 -0.0251079 -5.00229e-05)
(0.00685761 -0.0243701 -5.98309e-05)
(0.00701 -0.0235636 -6.11968e-05)
(0.00744943 -0.0226796 -6.50134e-05)
(0.00783039 -0.021727 -6.83378e-05)
(0.0080545 -0.0207157 -7.02984e-05)
(0.0082891 -0.0196519 -7.23443e-05)
(0.00841418 -0.018548 -7.34376e-05)
(0.00848857 -0.0174157 -7.40874e-05)
(0.00848497 -0.0162668 -7.40569e-05)
(0.00841793 -0.015114 -7.34723e-05)
(0.00828585 -0.0139691 -7.23203e-05)
(0.00809467 -0.0128436 -7.06524e-05)
(0.000360381 -0.0287751 -3.14507e-06)
(0.00112092 -0.029188 -9.78318e-06)
(0.00138438 -0.0294045 -1.20828e-05)
(0.00250115 -0.0294286 -2.18514e-05)
(0.00327615 -0.0292963 -2.86145e-05)
(0.00311772 -0.0291121 -2.71931e-05)
(0.00530859 -0.0287716 -4.63431e-05)
(0.00450596 -0.0285114 -3.93003e-05)
(0.00546578 -0.0279348 -4.76363e-05)
(0.00692868 -0.027433 -6.04931e-05)
(0.00644447 -0.0266895 -5.62656e-05)
(0.00756884 -0.0258947 -6.60376e-05)
(0.00773416 -0.0249891 -6.75156e-05)
(0.00818535 -0.0239866 -7.14368e-05)
(0.00856571 -0.0229112 -7.4756e-05)
(0.0087847 -0.0217698 -7.66714e-05)
(0.00900487 -0.0205755 -7.85919e-05)
(0.00910654 -0.0193439 -7.94807e-05)
(0.00914995 -0.0180877 -7.98603e-05)
(0.0091082 -0.0168215 -7.94969e-05)
(0.00899717 -0.015559 -7.85284e-05)
(0.0088165 -0.0143137 -7.69524e-05)
(0.00857372 -0.0130978 -7.48341e-05)
(0.000417198 -0.0312398 -3.64081e-06)
(0.00126106 -0.0316468 -1.10058e-05)
(0.00156049 -0.0320242 -1.36189e-05)
(0.00285114 -0.0318706 -2.49089e-05)
(0.00363623 -0.0320904 -3.17619e-05)
(0.00317959 -0.0320926 -2.77296e-05)
(0.00530991 -0.0310563 -4.63335e-05)
(0.00470951 -0.03128 -4.10606e-05)
(0.00579097 -0.0300598 -5.04812e-05)
(0.00735751 -0.0295975 -6.42452e-05)
(0.00707871 -0.0285799 -6.18058e-05)
(0.00824441 -0.0276293 -7.19358e-05)
(0.00849623 -0.0265648 -7.41653e-05)
(0.00898251 -0.0254007 -7.83927e-05)
(0.00937246 -0.0241748 -8.17967e-05)
(0.00958872 -0.0228815 -8.3689e-05)
(0.00979039 -0.021539 -8.54481e-05)
(0.00986192 -0.0201638 -8.6074e-05)
(0.00986619 -0.0187701 -8.6112e-05)
(0.00977723 -0.017375 -8.53368e-05)
(0.00961306 -0.0159936 -8.39045e-05)
(0.00937497 -0.0146405 -8.18274e-05)
(0.00907223 -0.0133289 -7.91858e-05)
(0.000509706 -0.0340565 -4.44801e-06)
(0.00132064 -0.0344315 -1.15267e-05)
(0.0019247 -0.0347708 -1.67998e-05)
(0.00311029 -0.0344604 -2.71483e-05)
(0.00334704 -0.0346647 -2.91933e-05)
(0.00494635 -0.0344257 -4.32167e-05)
(0.00660495 -0.0331579 -5.77351e-05)
(0.00558186 -0.0332142 -4.86516e-05)
(0.00749539 -0.0320437 -6.5347e-05)
(0.00826595 -0.0316062 -7.21965e-05)
(0.0082884 -0.0304719 -7.23267e-05)
(0.00922719 -0.0294552 -8.05134e-05)
(0.00946879 -0.028233 -8.2658e-05)
(0.00993289 -0.0269088 -8.66862e-05)
(0.0102921 -0.02552 -8.98244e-05)
(0.0104881 -0.0240525 -9.15388e-05)
(0.0106564 -0.0225433 -9.30071e-05)
(0.0106865 -0.0210059 -9.32709e-05)
(0.0106406 -0.0194593 -9.28713e-05)
(0.0104934 -0.0179224 -9.15882e-05)
(0.0102655 -0.0164118 -8.95997e-05)
(0.00995988 -0.0149434 -8.69332e-05)
(0.00958788 -0.0135308 -8.36872e-05)
(0.000589227 -0.0371684 -5.14217e-06)
(0.00148444 -0.0375634 -1.29554e-05)
(0.00223665 -0.0378195 -1.9521e-05)
(0.00353427 -0.0376262 -3.08477e-05)
(0.00381238 -0.0376623 -3.32564e-05)
(0.00540624 -0.0367127 -4.72401e-05)
(0.00675179 -0.0368411 -5.9024e-05)
(0.00550943 -0.0364474 -4.80017e-05)
(0.00735165 -0.0343855 -6.40492e-05)
(0.00852653 -0.034351 -7.44402e-05)
(0.00893821 -0.03261 -7.80038e-05)
(0.00997236 -0.0315374 -8.70273e-05)
(0.0104251 -0.0300615 -9.10097e-05)
(0.0109174 -0.028525 -9.52815e-05)
(0.0112917 -0.026946 -9.8549e-05)
(0.0114786 -0.0252757 -0.000100184)
(0.0116059 -0.0235786 -0.000101295)
(0.0115853 -0.0218603 -0.000101116)
(0.0114763 -0.0201451 -0.000100166)
(0.0112581 -0.0184537 -9.82634e-05)
(0.010954 -0.0168042 -9.56094e-05)
(0.0105691 -0.0152136 -9.22515e-05)
(0.0101174 -0.0136958 -8.83098e-05)
(0.000681739 -0.0408121 -5.94948e-06)
(0.00164224 -0.0411314 -1.43328e-05)
(0.00262429 -0.0415192 -2.2904e-05)
(0.00386675 -0.0409292 -3.37527e-05)
(0.0047049 -0.0415161 -4.10728e-05)
(0.0060487 -0.0400871 -5.2788e-05)
(0.00660349 -0.0402537 -5.75837e-05)
(0.00859352 -0.0395058 -7.50645e-05)
(0.00974164 -0.0373192 -8.51179e-05)
(0.00953931 -0.0370065 -8.32417e-05)
(0.0109063 -0.0350659 -9.51639e-05)
(0.0111319 -0.0337542 -9.71742e-05)
(0.0117679 -0.0320421 -0.000102696)
(0.0121221 -0.0302696 -0.000105798)
(0.0124367 -0.028457 -0.000108544)
(0.012588 -0.0265588 -0.000109866)
(0.0126482 -0.0246452 -0.000110394)
(0.0125612 -0.0227232 -0.000109635)
(0.0123735 -0.0208209 -0.000107998)
(0.0120695 -0.0189607 -0.000105346)
(0.0116751 -0.017162 -0.000101904)
(0.0111983 -0.0154425 -9.77441e-05)
(0.0106557 -0.0138159 -9.30089e-05)
(0.000859071 -0.0448182 -7.49827e-06)
(0.00179209 -0.0451162 -1.56428e-05)
(0.0032002 -0.0453526 -2.79298e-05)
(0.0041455 -0.0447399 -3.61572e-05)
(0.00497321 -0.0448681 -4.33806e-05)
(0.00737113 -0.0436351 -6.43404e-05)
(0.00713489 -0.0430219 -6.22595e-05)
(0.00913621 -0.0418038 -7.97945e-05)
(0.00997309 -0.0406068 -8.70982e-05)
(0.0102457 -0.0393898 -8.93719e-05)
(0.0118912 -0.0377032 -0.000103759)
(0.0122282 -0.0360334 -0.00010675)
(0.0130412 -0.0341188 -0.000113815)
(0.0133969 -0.0321043 -0.000116929)
(0.0136997 -0.0300249 -0.000119569)
(0.0138097 -0.0278789 -0.000120529)
(0.0137944 -0.0257236 -0.000120398)
(0.013622 -0.0235772 -0.000118894)
(0.0133362 -0.0214707 -0.000116401)
(0.0129279 -0.0194287 -0.000112839)
(0.0124265 -0.0174721 -0.000108464)
(0.011843 -0.0156185 -0.000103372)
(0.011197 -0.0138813 -9.77345e-05)
(0.000950515 -0.0496 -8.295e-06)
(0.00204162 -0.0499546 -1.7819e-05)
(0.00365555 -0.0500435 -3.1904e-05)
(0.00480924 -0.049768 -4.19522e-05)
(0.00593064 -0.0493411 -5.17389e-05)
(0.00830458 -0.0484277 -7.24939e-05)
(0.00818212 -0.0475652 -7.14035e-05)
(0.0107949 -0.0462175 -9.42555e-05)
(0.0116479 -0.0445438 -0.000101712)
(0.0118256 -0.0428452 -0.000103169)
(0.013569 -0.0408075 -0.000118391)
(0.0137782 -0.0387046 -0.000120275)
(0.0145869 -0.0364536 -0.000127307)
(0.0148803 -0.0340968 -0.000129877)
(0.015117 -0.0316932 -0.00013194)
(0.0151527 -0.0292485 -0.000132251)
(0.0150405 -0.0268141 -0.000131275)
(0.0147615 -0.0244148 -0.000128841)
(0.0143574 -0.0220834 -0.000125316)
(0.0138257 -0.0198453 -0.000120677)
(0.0131996 -0.0177219 -0.000115213)
(0.0124942 -0.0157303 -0.000109057)
(0.0117321 -0.013882 -0.000102406)
(0.00110322 -0.0548749 -9.6281e-06)
(0.00237627 -0.0551548 -2.07395e-05)
(0.00428109 -0.0551007 -3.73633e-05)
(0.00554883 -0.0546333 -4.84077e-05)
(0.00688333 -0.0539537 -6.00535e-05)
(0.00957458 -0.0528059 -8.35732e-05)
(0.00950713 -0.0516563 -8.29603e-05)
(0.0122975 -0.0499538 -0.000107369)
(0.013171 -0.0482307 -0.000115012)
(0.0134779 -0.0461341 -0.000117596)
(0.0152873 -0.0438985 -0.000133391)
(0.0155178 -0.041432 -0.00013546)
(0.016325 -0.038852 -0.000142476)
(0.0165729 -0.0361425 -0.000144648)
(0.0167233 -0.0333931 -0.000145959)
(0.0166542 -0.0306198 -0.000145357)
(0.0164126 -0.0278813 -0.000143252)
(0.0159937 -0.0252069 -0.000139597)
(0.0154419 -0.0226344 -0.000134782)
(0.0147611 -0.0201894 -0.000128842)
(0.0139887 -0.0178939 -0.000122102)
(0.0131435 -0.0157633 -0.000114725)
(0.0122516 -0.0138065 -0.000106942)
(0.00126587 -0.0613497 -1.10474e-05)
(0.00277241 -0.0615784 -2.41968e-05)
(0.00488939 -0.0614762 -4.26717e-05)
(0.00642258 -0.0609438 -5.60329e-05)
(0.0080567 -0.0601156 -7.0293e-05)
(0.0106892 -0.0588175 -9.33047e-05)
(0.0108643 -0.057264 -9.48051e-05)
(0.013917 -0.0551571 -0.000121498)
(0.0148522 -0.0529824 -0.000129692)
(0.015338 -0.0503169 -0.000133831)
(0.0171712 -0.0476028 -0.000149834)
(0.0174543 -0.0446001 -0.000152362)
(0.0182237 -0.0415355 -0.000159048)
(0.0184185 -0.0383607 -0.000160757)
(0.0184646 -0.0351812 -0.000161159)
(0.0182702 -0.032014 -0.000159463)
(0.0178764 -0.0289252 -0.000156029)
(0.0172937 -0.0259425 -0.000150945)
(0.0165687 -0.0231076 -0.000144619)
(0.0157159 -0.020444 -0.000137177)
(0.0147766 -0.017972 -0.00012898)
(0.0137752 -0.0157036 -0.00012024)
(0.0127408 -0.0136437 -0.000111213)
(0.00149713 -0.0684374 -1.30657e-05)
(0.0032905 -0.0686204 -2.87182e-05)
(0.00577568 -0.0682438 -5.04075e-05)
(0.0075692 -0.0676373 -6.60358e-05)
(0.00955393 -0.0662109 -8.33564e-05)
(0.0127832 -0.0643524 -0.000111584)
(0.0132939 -0.062967 -0.000116029)