/*--------------------------------*- C++ -*----------------------------------*\
| =========                 |                                                 |
| \\      /  F ield         | OpenFOAM: The Open Source CFD Toolbox           |
|  \\    /   O peration     | Version:  v2012                                 |
|   \\  /    A nd           | Website:  www.openfoam.com                      |
|    \\/     M anipulation  |                                                 |
\*---------------------------------------------------------------------------*/
FoamFile
{
    version     2.0;
    format      ascii;
    class       volScalarField;
    location    "0.55";
    object      alpha.water;
}
// * * * * * * * * * * * * * * * * * * * * * * * * * * * * * * * * * * * * * //

dimensions      [0 0 0 0 0 0 0];


internalField   nonuniform List<scalar> 
15860
(
-3.48961e-77
-1.16664e-76
-8.02194e-77
-4.91266e-77
-1.15494e-77
-2.12107e-78
-3.32829e-79
-4.98987e-80
-7.0161e-81
-6.32001e-82
-4.91251e-83
-3.65373e-84
-2.59964e-85
-1.55643e-86
-8.62787e-88
-4.93106e-89
-2.62037e-86
-9.99769e-83
-4.34263e-79
-2.89142e-75
-2.74417e-71
-3.73299e-67
-7.9817e-63
-8.89515e-60
-1.30158e-59
-9.18128e-60
-4.13413e-60
-1.32849e-60
-3.23036e-61
-6.15716e-62
-9.41168e-63
-1.17186e-63
-1.20169e-64
-1.02295e-65
-7.27038e-67
-4.33213e-68
-2.16815e-69
-9.15298e-71
-3.25974e-72
-9.802e-74
-2.48788e-75
-5.32867e-77
-9.61825e-79
-1.4608e-80
-1.86277e-82
-1.98729e-84
-1.76743e-86
-1.30362e-88
-7.92586e-91
-3.94148e-93
-1.58734e-95
-5.11504e-98
-1.2984e-100
-2.54382e-103
-3.74438e-106
-3.98975e-109
-2.91496e-112
-1.34079e-115
-3.32769e-119
-3.03114e-123
-4.23076e-76
-1.29206e-75
-8.26205e-76
-4.85114e-76
-1.10929e-76
-1.96582e-77
-3.02399e-78
-4.42857e-79
-6.19741e-80
-5.46786e-81
-4.21199e-82
-3.12477e-83
-2.17233e-84
-1.28508e-85
-7.08688e-87
-3.90909e-88
-1.25525e-85
-4.90745e-82
-2.26117e-78
-1.65505e-74
-1.7217e-70
-2.52027e-66
-6.0352e-62
-5.97462e-59
-8.9257e-59
-6.43418e-59
-2.96304e-59
-9.74499e-60
-2.42671e-60
-4.73938e-61
-7.42637e-62
-9.48229e-63
-9.97419e-64
-8.71104e-65
-6.35262e-66
-3.88407e-67
-1.99456e-68
-8.63814e-70
-3.1553e-71
-9.72837e-73
-2.53079e-74
-5.55329e-76
-1.02638e-77
-1.59524e-79
-2.08038e-81
-2.26823e-83
-2.06012e-85
-1.55054e-87
-9.61158e-90
-4.86907e-92
-1.99569e-94
-6.53862e-97
-1.68577e-99
-3.3506e-102
-4.99658e-105
-5.38487e-108
-3.97022e-111
-1.83627e-114
-4.54871e-118
-4.03513e-122
-4.90463e-75
-1.37027e-74
-8.14388e-75
-4.63076e-75
-1.01941e-75
-1.73893e-76
-2.64106e-77
-3.8227e-78
-5.2975e-79
-4.56027e-80
-3.44765e-81
-2.55393e-82
-1.72914e-83
-1.0136e-84
-5.56058e-86
-2.9925e-87
-5.48736e-85
-2.21538e-81
-1.09073e-77
-8.88101e-74
-1.02429e-69
-1.62228e-65
-4.38953e-61
-3.87083e-58
-5.9079e-58
-4.35516e-58
-2.05273e-58
-6.91481e-59
-1.76484e-59
-3.53463e-60
-5.68251e-61
-7.44709e-62
-8.04256e-63
-7.21319e-64
-5.40269e-65
-3.39286e-66
-1.78956e-67
-7.9593e-69
-2.98513e-70
-9.44732e-72
-2.52181e-73
-5.67549e-75
-1.07531e-76
-1.71227e-78
-2.28628e-80
-2.55036e-82
-2.36809e-84
-1.82061e-86
-1.15178e-88
-5.94894e-91
-2.48344e-93
-8.27777e-96
-2.16837e-98
-4.37237e-101
-6.6028e-104
-7.18849e-107
-5.33515e-110
-2.4692e-113
-6.04652e-117
-5.14433e-121
-5.46949e-74
-1.39837e-73
-7.74894e-74
-4.21539e-74
-8.92964e-75
-1.50198e-75
-2.23552e-76
-3.1673e-77
-4.36185e-78
-3.67506e-79
-2.73397e-80
-1.98627e-81
-1.32124e-82
-7.68201e-84
-4.19548e-85
-2.21575e-86
-2.16256e-84
-9.11901e-81
-4.85861e-77
-4.46532e-73
-5.78243e-69
-9.9545e-65
-3.06672e-60
-2.41689e-57
-3.77138e-57
-2.84522e-57
-1.37359e-57
-4.74291e-58
-1.24166e-58
-2.55223e-59
-4.21315e-60
-5.67182e-61
-6.29419e-62
-5.80215e-63
-4.46743e-64
-2.88425e-65
-1.564e-66
-7.1505e-68
-2.75624e-69
-8.96274e-71
-2.45739e-72
-5.67816e-74
-1.10399e-75
-1.80293e-77
-2.46731e-79
-2.81887e-81
-2.67856e-83
-2.10559e-85
-1.36071e-87
-7.1718e-90
-3.05168e-92
-1.03548e-94
-2.75719e-97
-5.6415e-100
-8.62565e-103
-9.47965e-106
-7.07082e-109
-3.26465e-112
-7.86065e-116
-6.38155e-120
-5.82103e-73
-1.36071e-72
-7.06445e-73
-3.69062e-73
-7.48025e-74
-1.24112e-74
-1.80757e-75
-2.5123e-76
-3.43221e-77
-2.82565e-78
-2.0685e-79
-1.47789e-80
-9.61963e-82
-5.54427e-83
-3.01472e-84
-1.57185e-85
-7.57932e-84
-3.38289e-80
-1.98726e-76
-2.10311e-72
-3.09864e-68
-5.81663e-64
-2.05536e-59
-1.45329e-56
-2.32006e-56
-1.79253e-56
-8.87024e-57
-3.14186e-57
-8.4431e-58
-1.78251e-58
-3.02378e-59
-4.1848e-60
-4.77586e-61
-4.52869e-62
-3.58749e-63
-2.38317e-64
-1.32973e-65
-6.25492e-67
-2.48023e-68
-8.2946e-70
-2.33812e-71
-5.55213e-73
-1.10882e-74
-1.85897e-76
-2.60995e-78
-3.05688e-80
-2.97542e-82
-2.39373e-84
-1.58159e-86
-8.51354e-89
-3.69528e-91
-1.27725e-93
-3.45883e-96
-7.18351e-99
-1.11207e-101
-1.23327e-104
-9.23581e-108
-4.2462e-111
-1.00249e-114
-7.74705e-119
-5.92046e-72
-1.26169e-71
-6.17334e-72
-3.09527e-72
-5.97616e-73
-9.6836e-74
-1.38663e-74
-1.90906e-75
-2.58749e-76
-2.08483e-77
-1.50084e-78
-1.05406e-79
-6.70844e-81
-3.82992e-82
-2.07159e-83
-1.06864e-84
-2.33257e-83
-1.11313e-79
-7.36079e-76
-9.25439e-72
-1.57356e-67
-3.22623e-63
-1.31924e-58
-8.40732e-56
-1.37411e-55
-1.08807e-55
-5.52298e-56
-2.0082e-56
-5.54375e-57
-1.20301e-57
-2.09865e-58
-2.98814e-59
-3.50967e-60
-3.42606e-61
-2.79451e-62
-1.91165e-63
-1.09844e-64
-5.32055e-66
-2.17212e-67
-7.47729e-69
-2.16888e-70
-5.29756e-72
-1.08771e-73
-1.87377e-75
-2.70139e-77
-3.24656e-79
-3.23988e-81
-2.6699e-83
-1.80515e-85
-9.93203e-88
-4.40079e-90
-1.55053e-92
-4.27278e-95
-9.01116e-98
-1.41276e-100
-1.58082e-103
-1.18805e-106
-5.43391e-110
-1.25647e-113
-9.23611e-118
-5.7319e-71
-1.10705e-70
-5.12381e-71
-2.44336e-71
-4.54747e-72
-7.21657e-73
-1.00831e-73
-1.36316e-74
-1.84218e-75
-1.46045e-76
-1.03418e-77
-7.12835e-79
-4.4394e-80
-2.51625e-81
-1.35114e-82
-6.89959e-84
-6.14299e-83
-3.21576e-79
-2.42669e-75
-3.79045e-71
-7.54421e-67
-1.68959e-62
-8.09519e-58
-4.67449e-55
-7.82757e-55
-6.35696e-55
-3.31232e-55
-1.23728e-55
-3.51129e-56
-7.83768e-57
-1.4071e-57
-2.0627e-58
-2.49521e-59
-2.50937e-60
-2.10907e-61
-1.48684e-62
-8.80499e-64
-4.39513e-65
-1.84885e-66
-6.5565e-68
-1.95858e-69
-4.92481e-71
-1.04048e-72
-1.8433e-74
-2.73116e-76
-3.37092e-78
-3.45191e-80
-2.9163e-82
-2.01934e-84
-1.13655e-86
-5.14477e-89
-1.84903e-91
-5.18825e-94
-1.11168e-96
-1.76572e-99
-1.99394e-102
-1.5038e-105
-6.8415e-109
-1.54954e-112
-1.08467e-116
-5.2574e-70
-9.26308e-70
-4.07794e-70
-1.85697e-70
-3.33423e-71
-5.17318e-72
-7.087e-73
-9.24748e-74
-1.24129e-74
-9.75773e-76
-6.78739e-77
-4.58667e-78
-2.79875e-79
-1.56937e-80
-8.35924e-82
-4.21672e-83
-1.38436e-82
-8.11522e-79
-7.09338e-75
-1.44316e-70
-3.39206e-66
-8.29013e-62
-4.73994e-57
-2.49503e-54
-4.28375e-54
-3.57079e-54
-1.91136e-54
-7.34019e-55
-2.14304e-55
-4.92401e-56
-9.10398e-57
-1.37499e-57
-1.71428e-58
-1.77737e-59
-1.54041e-60
-1.11994e-61
-6.84029e-63
-3.5213e-64
-1.52745e-65
-5.5844e-67
-1.71932e-68
-4.45404e-70
-9.69046e-72
-1.76692e-73
-2.69277e-75
-3.41597e-77
-3.59238e-79
-3.11394e-81
-2.20998e-83
-1.27339e-85
-5.89323e-88
-2.16208e-90
-6.18138e-93
-1.34647e-95
-2.16781e-98
-2.47158e-101
-1.87129e-104
-8.47206e-108
-1.88159e-111
-1.25749e-115
-4.59037e-69
-7.39564e-69
-3.10129e-69
-1.34881e-69
-2.31829e-70
-3.51488e-71
-4.71754e-72
-6.01491e-73
-7.96731e-74
-6.1897e-75
-4.22208e-76
-2.77561e-77
-1.66679e-78
-9.26206e-80
-4.87961e-81
-2.42571e-82
-2.66019e-82
-1.76875e-78
-1.83175e-74
-5.10417e-70
-1.41693e-65
-3.77396e-61
-2.64295e-56
-1.27682e-53
-2.24947e-53
-1.92611e-53
-1.05997e-53
-4.18816e-54
-1.25892e-54
-2.97971e-55
-5.67765e-56
-8.84087e-57
-1.13681e-57
-1.21596e-58
-1.08745e-59
-8.15942e-61
-5.14355e-62
-2.73268e-63
-1.2232e-64
-4.61383e-66
-1.46512e-67
-3.91326e-69
-8.77403e-71
-1.6478e-72
-2.58492e-74
-3.37293e-76
-3.64556e-78
-3.24473e-80
-2.36206e-82
-1.39439e-84
-6.60256e-87
-2.47449e-89
-7.21344e-92
-1.59844e-94
-2.61026e-97
-3.00662e-100
-2.28685e-103
-1.03133e-106
-2.25018e-110
-1.44098e-114
-3.81126e-68
-5.57648e-68
-2.22551e-68
-9.21004e-69
-1.52763e-69
-2.2768e-70
-2.9817e-71
-3.71284e-72
-4.8404e-73
-3.71585e-74
-2.48505e-75
-1.58128e-76
-9.35907e-78
-5.15402e-79
-2.67607e-80
-1.30536e-81
-4.49951e-82
-3.269e-78
-4.18569e-74
-1.65712e-69
-5.43334e-65
-1.57618e-60
-1.40039e-55
-6.256e-53
-1.13192e-52
-9.96419e-53
-5.64217e-53
-2.29553e-53
-7.10966e-54
-1.73474e-54
-3.40893e-55
-5.47643e-56
-7.26764e-57
-8.02523e-58
-7.41097e-59
-5.74266e-60
-3.73886e-61
-2.05145e-62
-9.48231e-64
-3.69264e-65
-1.21027e-66
-3.33519e-68
-7.71183e-70
-1.49281e-71
-2.41222e-73
-3.23992e-75
-3.60159e-77
-3.2939e-79
-2.46135e-81
-1.48972e-83
-7.22246e-86
-2.76712e-88
-8.23081e-91
-1.85676e-93
-3.07772e-96
-3.58437e-99
-2.74148e-102
-1.23324e-105
-2.64965e-109
-1.63304e-113
-3.00725e-67
-3.94995e-67
-1.48847e-67
-5.8459e-68
-9.56389e-69
-1.38144e-69
-1.77385e-70
-2.17206e-71
-2.76932e-72
-2.09661e-73
-1.3705e-74
-8.4278e-76
-4.93604e-77
-2.67961e-78
-1.36444e-79
-6.50545e-81
-7.6225e-82
-5.08223e-78
-8.67143e-74
-4.86978e-69
-1.88569e-64
-5.96591e-60
-7.03486e-55
-2.93027e-52
-5.44993e-52
-4.93663e-52
-2.87875e-52
-1.20702e-52
-3.85502e-53
-9.70397e-54
-1.96802e-54
-3.26407e-55
-4.47353e-56
-5.10312e-57
-4.86939e-58
-3.89937e-59
-2.62384e-60
-1.48782e-61
-7.10624e-63
-2.85899e-64
-9.67795e-66
-2.75352e-67
-6.57041e-69
-1.31182e-70
-2.18499e-72
-3.02287e-74
-3.45843e-76
-3.25235e-78
-2.49639e-80
-1.5502e-82
-7.70068e-85
-3.01825e-87
-9.16742e-90
-2.10694e-92
-3.54786e-95
-4.18162e-98
-3.21989e-101
-1.44722e-104
-3.07038e-108
-1.83013e-112
-2.23653e-66
-2.67005e-66
-9.4442e-67
-3.50027e-67
-5.65877e-68
-7.75082e-69
-9.90424e-70
-1.19897e-70
-1.49901e-71
-1.11294e-72
-7.11249e-74
-4.27463e-75
-2.43639e-76
-1.2916e-77
-6.39429e-79
-2.96528e-80
-1.71896e-81
-6.58012e-78
-1.61055e-73
-1.27179e-68
-5.82837e-64
-2.0203e-59
-3.34201e-54
-1.30988e-51
-2.50676e-51
-2.33876e-51
-1.40583e-51
-6.08008e-52
-2.00419e-52
-5.20884e-53
-1.09101e-53
-1.8694e-54
-2.64775e-55
-3.12231e-56
-3.08053e-57
-2.55106e-58
-1.77531e-59
-1.04104e-60
-5.14146e-62
-2.13843e-63
-7.48129e-65
-2.19901e-66
-5.41853e-68
-1.11655e-69
-1.91821e-71
-2.73526e-73
-3.22286e-75
-3.11851e-77
-2.46039e-79
-1.56862e-81
-7.98946e-84
-3.20579e-86
-9.95006e-89
-2.33166e-91
-3.99211e-94
-4.76677e-97
-3.70013e-100
-1.66478e-103
-3.49813e-107
-2.027e-111
-1.56452e-65
-1.70362e-65
-5.7105e-66
-1.98673e-66
-3.18876e-67
-4.14239e-68
-5.27228e-69
-6.19375e-70
-7.62102e-71
-5.5188e-72
-3.4492e-73
-2.00805e-74
-1.10645e-75
-5.70006e-77
-2.71814e-78
-1.21475e-79
-5.44979e-81
-7.8433e-78
-2.86688e-73
-2.88162e-68
-1.57518e-63
-6.04076e-59
-1.49716e-53
-5.57772e-51
-1.09955e-50
-1.05774e-50
-6.56059e-51
-2.92957e-51
-9.97585e-52
-2.67909e-52
-5.79965e-53
-1.02734e-53
-1.50474e-54
-1.83554e-55
-1.87379e-56
-1.60579e-57
-1.1565e-58
-7.01805e-60
-3.58635e-61
-1.54307e-62
-5.58285e-64
-1.69641e-65
-4.31923e-67
-9.19152e-69
-1.62973e-70
-2.39674e-72
-2.91015e-74
-2.89921e-76
-2.35263e-78
-1.54094e-80
-8.05259e-83
-3.31014e-85
-1.05064e-87
-2.51233e-90
-4.37757e-93
-5.30122e-96
-4.15415e-99
-1.87473e-102
-3.91382e-106
-2.21639e-110
-1.02709e-64
-1.02489e-64
-3.2869e-65
-1.08757e-65
-1.67675e-66
-2.11691e-67
-2.65623e-68
-2.96588e-69
-3.60165e-70
-2.52369e-71
-1.53424e-72
-8.58845e-74
-4.55007e-75
-2.2587e-76
-1.02366e-77
-4.3366e-79
-1.74062e-80
-1.17727e-77
-5.18562e-73
-5.49375e-68
-3.64289e-63
-1.57797e-58
-6.30437e-53
-2.25774e-50
-4.59032e-50
-4.55844e-50
-2.92065e-50
-1.34798e-50
-4.74659e-51
-1.31834e-51
-2.9518e-52
-5.4092e-53
-8.19871e-54
-1.03526e-54
-1.09424e-55
-9.71087e-57
-7.24313e-58
-4.55168e-59
-2.40836e-60
-1.07266e-61
-4.01612e-63
-1.26235e-64
-3.32312e-66
-7.3076e-68
-1.33806e-69
-2.03068e-71
-2.5424e-73
-2.60932e-75
-2.17912e-77
-1.46723e-79
-7.8719e-82
-3.31723e-84
-1.0775e-86
-2.6313e-89
-4.67035e-92
-5.74253e-95
-4.54949e-98
-2.06365e-101
-4.29399e-105
-2.38908e-109
-6.24206e-64
-5.72262e-64
-1.75336e-64
-5.59496e-65
-8.19313e-66
-1.00551e-66
-1.23187e-67
-1.30566e-68
-1.55656e-69
-1.05665e-70
-6.20929e-72
-3.31936e-73
-1.66939e-74
-7.76617e-76
-3.26228e-77
-1.26448e-78
-4.4998e-80
-2.11751e-77
-9.55526e-73
-8.47116e-68
-7.01718e-63
-3.62986e-58
-2.48611e-52
-8.66687e-50
-1.81993e-49
-1.86815e-49
-1.23799e-49
-5.91254e-50
-2.15525e-50
-6.1965e-51
-1.43608e-51
-2.7243e-52
-4.27587e-53
-5.59278e-54
-6.12513e-55
-5.63316e-56
-4.35459e-57
-2.83583e-58
-1.55471e-59
-7.17294e-61
-2.78099e-62
-9.0479e-64
-2.46417e-65
-5.60286e-67
-1.06008e-68
-1.66117e-70
-2.14573e-72
-2.26999e-74
-1.95214e-76
-1.35199e-78
-7.45161e-81
-3.22118e-83
-1.07151e-85
-2.6744e-88
-4.83983e-91
-6.04909e-94
-4.85233e-97
-2.21691e-100
-4.61212e-104
-2.53418e-108
-3.54296e-63
-3.0068e-63
-8.85164e-64
-2.72742e-64
-3.82521e-65
-4.39303e-66
-5.2148e-67
-5.24566e-68
-6.06719e-69
-3.96644e-70
-2.23837e-71
-1.12494e-72
-5.22405e-74
-2.18011e-75
-8.07245e-77
-2.46387e-78
-7.10207e-80
-2.3457e-77
-1.09359e-72
-9.99396e-68
-1.08537e-62
-8.02325e-58
-9.14231e-52
-3.14677e-49
-6.8357e-49
-7.26406e-49
-4.98591e-49
-2.46731e-49
-9.32189e-50
-2.77697e-50
-6.66659e-51
-1.31009e-51
-2.13071e-52
-2.88896e-53
-3.28078e-54
-3.12927e-55
-2.509e-56
-1.69455e-57
-9.63299e-59
-4.60709e-60
-1.8509e-61
-6.23721e-63
-1.75851e-64
-4.13669e-66
-8.09206e-68
-1.31006e-69
-1.74684e-71
-1.90594e-73
-1.68877e-75
-1.20372e-77
-6.81953e-80
-3.02594e-82
-1.03152e-84
-2.63342e-87
-4.86345e-90
-6.18585e-93
-5.03157e-96
-2.32016e-99
-4.84086e-103
-2.6398e-107
-1.88089e-62
-1.4829e-62
-4.1419e-63
-1.22765e-63
-1.66233e-64
-1.80536e-65
-2.0247e-66
-1.95247e-67
-2.12655e-68
-1.31992e-69
-7.00161e-71
-3.21005e-72
-1.28788e-73
-4.14362e-75
-1.18813e-76
-6.30524e-102
1.46967e-83
-1.00393e-77
-7.19546e-73
-8.25061e-68
-1.27737e-62
-2.16078e-57
-3.11942e-51
-1.07733e-48
-2.4256e-48
-2.6731e-48
-1.90346e-48
-9.77456e-49
-3.8329e-49
-1.18429e-49
-2.94724e-50
-6.00378e-51
-1.01251e-51
-1.42414e-52
-1.67836e-53
-1.66165e-54
-1.38301e-55
-9.69513e-57
-5.71933e-58
-2.83764e-59
-1.18217e-60
-4.12897e-62
-1.20588e-63
-2.93663e-65
-5.94277e-67
-9.9454e-69
-1.36969e-70
-1.54213e-72
-1.4086e-74
-1.03389e-76
-6.02419e-79
-2.7454e-81
-9.59725e-84
-2.50798e-86
-4.73099e-89
-6.13027e-92
-5.06352e-95
-2.36128e-98
-4.95525e-102
-2.69426e-106
-9.13586e-62
-6.68087e-62
-1.7698e-62
-5.10819e-63
-6.58695e-64
-6.76631e-65
-7.14535e-66
-6.52611e-67
-6.49729e-68
-3.74895e-69
-1.77277e-70
-6.78759e-72
-1.9598e-73
-1.17744e-93
1.45011e-79
4.03629e-79
5.75977e-79
3.36341e-80
-1.56457e-73
-4.02328e-68
-1.04796e-62
-7.7162e-57
-9.81712e-51
-3.46551e-48
-8.10529e-48
-9.28239e-48
-6.87022e-48
-3.66731e-48
-1.4949e-48
-4.79587e-49
-1.23814e-49
-2.61617e-50
-4.57814e-51
-6.68536e-52
-8.18333e-53
-8.41728e-54
-7.27919e-55
-5.3013e-56
-3.24815e-57
-1.67321e-58
-7.23398e-60
-2.62063e-61
-7.93361e-63
-2.00136e-64
-4.19235e-66
-7.2567e-68
-1.03279e-69
-1.20056e-71
-1.13106e-73
-8.5532e-76
-5.12847e-78
-2.40184e-80
-8.61552e-83
-2.30624e-85
-4.44737e-88
-5.87707e-91
-4.93629e-94
-2.33237e-97
-4.93644e-101
-2.68768e-105
-4.03446e-61
-2.73086e-61
-6.95421e-62
-1.89397e-62
-2.32343e-63
-2.32589e-64
-2.24662e-65
-1.89883e-66
-1.67054e-67
-8.34147e-69
-2.92578e-70
-4.56373e-72
2.41144e-90
1.19158e-75
3.90916e-75
5.39534e-75
3.97122e-75
9.78714e-76
3.42146e-78
-7.46964e-69
-5.06759e-63
-2.64711e-56
-2.82909e-50
-1.04296e-47
-2.54095e-47
-3.03147e-47
-2.33733e-47
-1.29956e-47
-5.51677e-48
-1.83974e-48
-4.9306e-49
-1.08129e-49
-1.9648e-50
-2.98128e-51
-3.79402e-52
-4.05856e-53
-3.65057e-54
-2.76483e-55
-1.76118e-56
-9.42791e-58
-4.23361e-59
-1.592e-60
-4.99948e-62
-1.30732e-63
-2.83645e-65
-5.08109e-67
-7.47731e-69
-8.97877e-71
-8.72925e-73
-6.80456e-75
-4.20067e-77
-2.02285e-79
-7.44999e-82
-2.04418e-84
-4.03306e-87
-5.44072e-90
-4.65295e-93
-2.2315e-96
-4.77537e-100
-2.61373e-104
-1.63706e-60
-1.05795e-60
-2.46919e-61
-6.02925e-62
-7.17009e-63
-6.75917e-64
-6.19524e-65
-4.59574e-66
-3.31419e-67
-1.13596e-68
7.06456e-93
1.19501e-73
2.14748e-72
7.89857e-72
1.59486e-71
2.15092e-71
1.42776e-71
7.36486e-72
4.19407e-73
1.34104e-74
-9.27015e-64
-6.29345e-56
-7.40026e-50
-2.92143e-47
-7.43942e-47
-9.27416e-47
-7.4692e-47
-4.33614e-47
-1.92108e-47
-6.66696e-48
-1.85598e-48
-4.22665e-49
-7.98064e-50
-1.25943e-50
-1.66816e-51
-1.85802e-52
-1.74033e-53
-1.37231e-54
-9.098e-56
-5.06635e-57
-2.36518e-58
-9.24008e-60
-3.01239e-61
-8.17104e-63
-1.83746e-64
-3.40851e-66
-5.18935e-68
-6.44046e-70
-6.46485e-72
-5.19733e-74
-3.30504e-76
-1.63734e-78
-6.19486e-81
-1.74345e-83
-3.52187e-86
-4.85471e-89
-4.23248e-92
-2.06369e-95
-4.47558e-99
-2.47128e-103
-6.10254e-60
-3.72438e-60
-7.81851e-61
-1.81499e-61
-1.90108e-62
-1.72683e-63
-1.36566e-64
-8.11465e-66
-3.68403e-67
-1.58029e-85
2.97056e-70
3.0848e-69
1.34285e-68
3.47264e-68
6.73645e-68
8.78391e-68
7.01777e-68
1.42121e-68
1.89134e-69
3.55996e-70
1.23846e-66
-7.66778e-56
-1.73803e-49
-7.56633e-47
-2.02292e-46
-2.64513e-46
-2.23273e-46
-1.35737e-46
-6.29242e-47
-2.27504e-47
-6.58161e-48
-1.55719e-48
-3.05757e-49
-5.02374e-50
-6.93442e-51
-8.05305e-52
-7.86581e-53
-6.4664e-54
-4.46747e-55
-2.59092e-56
-1.2588e-57
-5.11395e-59
-1.73229e-60
-4.87793e-62
-1.13771e-63
-2.18685e-65
-3.44654e-67
-4.42344e-69
-4.58678e-71
-3.8049e-73
-2.49364e-75
-1.27155e-77
-4.9449e-80
-1.42827e-82
-2.95614e-85
-4.16737e-88
-3.70798e-91
-1.84085e-94
-4.05429e-98
-2.26547e-102
-2.04655e-59
-1.22169e-59
-2.26552e-60
-4.52909e-61
-4.33426e-62
-3.35672e-63
-1.82764e-64
-3.16993e-66
2.02363e-83
1.06718e-67
1.94942e-66
1.86001e-65
9.05925e-65
2.81996e-64
5.34518e-64
7.22212e-64
5.00178e-64
1.59945e-64
1.13162e-65
4.05829e-66
7.18639e-66
-2.63185e-56
-3.61209e-49
-1.79616e-46
-5.07231e-46
-6.99158e-46
-6.21181e-46
-3.96931e-46
-1.93149e-46
-7.28212e-47
-2.18979e-47
-5.3849e-48
-1.10046e-48
-1.88489e-49
-2.71555e-50
-3.29359e-51
-3.36031e-52
-2.88464e-53
-2.07988e-54
-1.25792e-55
-6.36814e-57
-2.69323e-58
-9.4882e-60
-2.77601e-61
-6.72054e-63
-1.33948e-64
-2.18671e-66
-2.90394e-68
-3.11224e-70
-2.66528e-72
-1.8011e-74
-9.45766e-77
-3.78236e-79
-1.12185e-81
-2.38059e-84
-3.43487e-87
-3.12226e-90
-1.58039e-93
-3.54123e-97
-2.00801e-101
-6.04098e-59
-3.47019e-59
-5.04097e-60
-8.75596e-61
-7.72236e-62
-3.67145e-63
2.17023e-89
1.0692e-67
2.31546e-65
3.61235e-64
3.93521e-63
4.0484e-62
1.45542e-61
5.15042e-61
1.03793e-60
1.40562e-60
1.08404e-60
4.54679e-61
2.78426e-62
1.99753e-62
2.83978e-65
5.6362e-57
-6.50155e-49
-3.8603e-46
-1.16156e-45
-1.69937e-45
-1.59832e-45
-1.07864e-45
-5.53162e-46
-2.17577e-46
-6.80017e-47
-1.73877e-47
-3.70223e-48
-6.62114e-49
-9.97542e-50
-1.26619e-50
-1.35215e-51
-1.21441e-52
-9.15429e-54
-5.78295e-55
-3.05471e-56
-1.34656e-57
-4.9392e-59
-1.50292e-60
-3.77987e-62
-7.81781e-64
-1.32289e-65
-1.81889e-67
-2.01591e-69
-1.78319e-71
-1.24311e-73
-6.72526e-76
-2.76729e-78
-8.43289e-81
-1.83577e-83
-2.71298e-86
-2.52166e-89
-1.3029e-92
-2.97506e-96
-1.71598e-100
-1.59096e-58
-8.46178e-59
-1.01531e-59
-1.49132e-60
-7.12066e-62
-5.46197e-84
1.02337e-64
2.86488e-63
1.34057e-61
3.49519e-60
4.72251e-59
3.86268e-58
1.61692e-57
5.66146e-57
1.18041e-56
1.58035e-56
1.20267e-56
1.46553e-57
1.74388e-58
4.37227e-59
1.01208e-61
4.07941e-54
-9.76089e-49
-7.37021e-46
-2.39584e-45
-3.75792e-45
-3.77178e-45
-2.70571e-45
-1.47008e-45
-6.02834e-46
-1.95718e-46
-5.20697e-47
-1.15693e-47
-2.16511e-48
-3.4198e-49
-4.55476e-50
-5.10412e-51
-4.80749e-52
-3.79671e-53
-2.50987e-54
-1.38561e-55
-6.3755e-57
-2.43786e-58
-7.72332e-60
-2.01986e-61
-4.33881e-63
-7.61583e-65
-1.08487e-66
-1.24416e-68
-1.13734e-70
-8.1834e-73
-4.56346e-75
-1.93291e-77
-6.05472e-80
-1.35291e-82
-2.0492e-85
-1.94919e-88
-1.02912e-91
-2.39803e-95
-1.40976e-99
-3.58847e-58
-1.6845e-58
-1.45779e-59
-1.4863e-60
-6.6272e-79
1.72887e-62
4.2086e-61
1.32423e-59
2.24414e-58
5.69789e-57
6.70123e-56
5.56529e-55
3.00564e-54
8.62287e-54
1.68126e-53
2.29781e-53
1.70938e-53
1.36849e-53
8.86015e-55
4.58633e-55
1.93673e-56
1.96967e-52
-1.12296e-48
-1.20898e-45
-4.35388e-45
-7.44196e-45
-8.0686e-45
-6.20991e-45
-3.60041e-45
-1.53386e-45
-5.16761e-46
-1.43261e-46
-3.33058e-47
-6.54322e-48
-1.08727e-48
-1.52474e-49
-1.79887e-50
-1.7821e-51
-1.47833e-52
-1.02496e-53
-5.92528e-55
-2.85051e-56
-1.13791e-57
-3.75807e-59
-1.02313e-60
-2.28473e-62
-4.1634e-64
-6.14888e-66
-7.30145e-68
-6.90175e-70
-5.12811e-72
-2.94907e-74
-1.28639e-76
-4.14401e-79
-9.50931e-82
-1.47708e-84
-1.43884e-87
-7.7697e-91
-1.84974e-94
-1.11021e-98
-6.47277e-58
-1.86042e-58
-7.9358e-60
6.72174e-66
1.66784e-60
1.8652e-58
4.86661e-57
1.4476e-55
2.98465e-54
6.11758e-53
7.65605e-52
7.82556e-51
2.77307e-50
9.36606e-50
2.05055e-49
2.80853e-49
2.26088e-49
6.45188e-50
4.82583e-51
8.27946e-52
8.70049e-53
1.63529e-51
-7.30159e-49
-1.5828e-45
-6.69501e-45
-1.28586e-44
-1.53728e-44
-1.28778e-44
-8.05115e-45
-3.52632e-45
-1.23127e-45
-3.57146e-46
-8.73318e-47
-1.81049e-47
-3.18074e-48
-4.71859e-49
-5.88594e-50
-6.15599e-51
-5.38112e-52
-3.92351e-53
-2.38063e-54
-1.19978e-55
-5.00851e-57
-1.72685e-58
-4.90016e-60
-1.13876e-61
-2.15634e-63
-3.30448e-65
-4.06568e-67
-3.97635e-69
-3.05262e-71
-1.81126e-73
-8.14023e-76
-2.69802e-78
-6.36106e-81
-1.0138e-83
-1.01197e-86
-5.59334e-90
-1.36185e-93
-8.35648e-98
-8.33947e-58
3.57203e-58
5.43377e-75
4.73376e-59
1.68078e-57
1.69194e-55
4.03529e-54
9.81984e-53
7.50653e-51
1.90711e-49
2.56771e-48
2.08854e-47
1.14249e-46
3.27443e-46
6.1696e-46
8.43761e-46
6.25705e-46
2.38318e-46
1.4434e-47
7.80736e-48
9.73584e-49
1.43983e-51
3.05725e-53
-1.30545e-45
-7.94801e-45
-1.84374e-44
-2.53128e-44
-2.36683e-44
-1.62223e-44
-7.09461e-45
-2.5692e-45
-7.88836e-46
-2.05165e-46
-4.52908e-47
-8.47643e-48
-1.33895e-48
-1.77599e-49
-1.97035e-50
-1.82213e-51
-1.40181e-52
-8.95213e-54
-4.73746e-55
-2.0722e-56
-7.47123e-58
-2.21289e-59
-5.35835e-61
-1.05546e-62
-1.6798e-64
-2.14309e-66
-2.17011e-68
-1.72231e-70
-1.05492e-72
-4.88706e-75
-1.66727e-77
-4.0405e-80
-6.61036e-83
-6.76519e-86
-3.82982e-89
-9.54416e-93
-5.99387e-97
-1.40028e-58
6.58828e-57
3.53476e-57
4.25742e-55
9.77098e-54
1.43635e-51
2.44768e-50
4.94684e-49
1.7108e-47
4.42475e-46
4.99251e-45
4.06013e-44
2.07368e-43
6.55092e-43
1.29268e-42
1.8062e-42
1.36661e-42
4.73535e-43
3.49716e-44
1.83876e-44
2.56022e-45
4.97419e-48
6.51927e-49
-2.79157e-56
-5.29166e-45
-1.91578e-44
-3.38153e-44
-3.72687e-44
-2.88504e-44
-1.15654e-44
-4.39258e-45
-1.48163e-45
-4.20784e-46
-1.00621e-46
-2.0307e-47
-3.44818e-48
-4.90138e-49
-5.80418e-50
-5.70725e-51
-4.65187e-52
-3.13721e-53
-1.74815e-54
-8.03064e-56
-3.0337e-57
-9.39429e-59
-2.37352e-60
-4.8691e-62
-8.05625e-64
-1.0667e-65
-1.11916e-67
-9.18836e-70
-5.81277e-72
-2.77708e-74
-9.75627e-77
-2.4313e-79
-4.08486e-82
-4.28814e-85
-2.48766e-88
-6.3494e-92
-4.08457e-96
3.64598e-59
6.02958e-57
6.27312e-52
5.67555e-50
1.68238e-48
1.90655e-46
3.85642e-45
5.34518e-44
9.65638e-43
2.95832e-41
1.96573e-40
1.24242e-39
7.23862e-39
2.59931e-38
5.51927e-38
8.16883e-38
6.0444e-38
1.78787e-38
2.40103e-39
1.53933e-40
1.75405e-41
2.0632e-44
2.78722e-45
3.22662e-47
-9.22012e-54
-1.01232e-45
-2.98862e-44
-4.66627e-44
-4.36434e-44
-1.17546e-44
-4.97367e-45
-2.15999e-45
-7.19897e-46
-1.93273e-46
-4.29506e-47
-7.95557e-48
-1.22481e-48
-1.56091e-49
-1.64259e-50
-1.42577e-51
-1.0196e-52
-6.00244e-54
-2.90382e-55
-1.15196e-56
-3.73663e-58
-9.86649e-60
-2.1108e-61
-3.63495e-63
-4.99981e-65
-5.43965e-67
-4.62307e-69
-3.02251e-71
-1.48994e-73
-5.39251e-76
-1.38242e-78
-2.38613e-81
-2.57035e-84
-1.5287e-87
-3.99817e-91
-2.63627e-95
1.34398e-53
3.1572e-52
1.13589e-48
9.58089e-47
6.96948e-45
3.3122e-43
1.19543e-41
4.55655e-40
2.13439e-38
5.23604e-37
5.9912e-36
4.24172e-35
2.17817e-34
7.00999e-34
1.41028e-33
2.01454e-33
1.58434e-33
6.13128e-34
1.85189e-35
5.35275e-37
5.59858e-38
8.2537e-41
1.16738e-41
1.45174e-43
1.74005e-45
-3.44461e-52
-7.72408e-55
-3.64995e-44
-5.17034e-44
6.73053e-45
7.87343e-47
-1.8269e-45
-9.32796e-46
-3.06862e-46
-7.81436e-47
-1.61511e-47
-2.73511e-48
-3.79446e-49
-4.31003e-50
-4.01005e-51
-3.05626e-52
-1.9085e-53
-9.75457e-55
-4.07448e-56
-1.38745e-57
-3.83573e-59
-8.57104e-61
-1.5382e-62
-2.20033e-64
-2.48468e-66
-2.18765e-68
-1.47906e-70
-7.52681e-73
-2.80774e-75
-7.40751e-78
-1.31399e-80
-1.4529e-83
-8.86178e-87
-2.37583e-90
-1.60635e-94
4.73967e-50
2.67925e-50
3.6306e-47
7.30446e-45
3.7072e-43
2.23403e-41
6.74458e-40
4.83954e-38
2.56849e-36
5.2066e-35
9.37004e-34
7.49588e-33
3.38101e-32
9.70084e-32
1.83906e-31
2.51859e-31
2.08917e-31
1.27875e-31
3.78525e-33
1.20895e-33
1.21606e-34
3.48656e-37
4.85085e-38
6.4048e-40
7.87845e-42
5.52793e-44
1.59058e-46
-2.02646e-54
-3.68485e-44
3.30209e-42
1.71275e-43
1.64952e-46
-6.8257e-46
-3.67274e-46
-1.17233e-46
-2.81285e-47
-5.36556e-48
-8.23567e-49
-1.02139e-49
-1.02717e-50
-8.39609e-52
-5.58847e-53
-3.02939e-54
-1.33648e-55
-4.78978e-57
-1.38935e-58
-3.24834e-60
-6.08429e-62
-9.06236e-64
-1.06324e-65
-9.70643e-68
-6.79113e-70
-3.56983e-72
-1.37317e-74
-3.72968e-77
-6.80136e-80
-7.72168e-83
-4.83125e-86
-1.32805e-89
-9.20971e-94
2.10328e-48
5.6489e-50
3.40622e-47
1.16272e-44
4.17276e-43
3.29922e-41
8.77315e-40
7.54528e-38
5.46837e-36
1.09264e-34
2.13996e-33
2.86943e-32
1.39567e-31
3.89629e-31
7.25932e-31
9.81398e-31
8.36862e-31
6.4277e-29
9.48e-29
2.83286e-29
2.59511e-30
5.56064e-32
2.65847e-34
2.77038e-36
3.49982e-38
2.52918e-40
7.51256e-43
6.93925e-46
-1.70805e-54
6.77086e-41
1.94596e-41
3.32563e-43
1.53004e-46
-2.4484e-46
-1.33384e-46
-4.02252e-47
-8.99982e-48
-1.56871e-48
-2.1598e-49
-2.37426e-50
-2.09825e-51
-1.49762e-52
-8.6503e-54
-4.04558e-55
-1.53049e-56
-4.66929e-58
-1.14456e-59
-2.24121e-61
-3.48078e-63
-4.24796e-65
-4.02477e-67
-2.91635e-69
-1.58452e-71
-6.28813e-74
-1.75904e-76
-3.29869e-79
-3.84619e-82
-2.469e-85
-6.95974e-89
-4.95078e-93
4.52494e-48
8.69377e-43
4.4696e-40
2.20724e-37
5.93632e-36
5.67532e-34
1.33499e-32
1.29144e-30
1.08374e-28
2.00939e-27
3.99496e-26
5.78519e-25
2.69068e-24
7.5145e-24
1.4116e-23
1.9336e-23
1.69995e-23
4.42352e-24
4.44945e-24
1.69674e-24
2.78401e-25
5.52873e-27
2.65228e-28
2.50101e-30
1.52523e-34
1.13617e-36
3.48815e-39
3.34049e-42
2.12806e-45
1.98395e-40
3.94816e-40
4.90703e-41
3.20522e-43
1.42595e-46
-8.91912e-47
-4.10661e-47
-1.18743e-47
-2.53559e-48
-4.00302e-49
-4.89325e-50
-4.72684e-51
-3.64593e-52
-2.25685e-53
-1.12389e-54
-4.50402e-56
-1.44935e-57
-3.73341e-59
-7.65732e-61
-1.24199e-62
-1.57871e-64
-1.55404e-66
-1.16722e-68
-6.55941e-71
-2.68703e-73
-7.74485e-76
-1.49399e-78
-1.78937e-81
-1.17865e-84
-3.40715e-88
-2.48598e-92
6.88146e-41
3.28797e-37
4.70934e-35
3.62059e-33
1.34546e-31
3.3137e-29
2.32104e-27
2.3752e-25
5.02278e-24
4.07477e-23
1.9423e-22
6.23732e-22
1.46828e-21
2.66183e-21
3.85375e-21
4.58003e-21
4.22957e-21
3.31772e-21
2.01331e-21
1.03892e-21
3.74587e-22
8.38208e-23
9.26825e-24
2.88785e-25
6.80036e-28
5.69656e-31
1.59217e-35
1.58248e-38
1.04969e-41
1.92991e-40
1.379e-39
9.66367e-40
4.87716e-41
1.06889e-43
3.7314e-64
1.40788e-51
1.58429e-52
-2.96621e-48
-6.24577e-49
-8.82812e-50
-9.48419e-51
-7.99018e-52
-5.34019e-53
-2.8474e-54
-1.21393e-55
-4.13406e-57
-1.12208e-58
-2.41588e-60
-4.09964e-62
-5.43559e-64
-5.56576e-66
-4.33735e-68
-2.52303e-70
-1.0675e-72
-3.17163e-75
-6.29529e-78
-7.74647e-81
-5.23611e-84
-1.55219e-87
-1.16144e-91
8.52138e-36
3.69123e-34
8.71821e-32
5.52275e-29
8.14009e-27
1.99389e-24
4.4907e-23
4.14646e-22
2.19178e-21
7.76611e-21
2.02503e-20
4.1311e-20
6.92104e-20
9.83986e-20
1.22078e-19
1.3318e-19
1.26706e-19
1.08866e-19
8.24048e-20
5.32899e-20
2.81094e-20
1.10846e-20
2.84964e-21
3.83573e-22
1.84843e-23
1.23146e-25
4.41282e-29
7.37796e-35
5.1017e-38
2.16225e-40
1.36797e-39
3.97154e-39
1.00222e-39
1.05887e-41
3.11514e-45
2.02427e-46
2.35492e-46
1.21121e-48
-6.77263e-49
-1.33949e-49
-1.66438e-50
-1.55757e-51
-1.13568e-52
-6.5305e-54
-2.97757e-55
-1.07749e-56
-3.09145e-58
-7.00481e-60
-1.2462e-61
-1.72634e-63
-1.8412e-65
-1.4903e-67
-8.98085e-70
-3.92711e-72
-1.20324e-74
-2.45815e-77
-3.1081e-80
-2.15588e-83
-6.55292e-87
-5.02687e-91
1.42932e-32
2.55688e-30
5.13403e-27
3.07659e-24
1.17403e-22
1.42484e-21
8.83028e-21
3.43057e-20
9.41434e-20
1.99569e-19
3.47372e-19
5.18438e-19
6.86403e-19
8.25601e-19
9.20192e-19
9.49462e-19
9.18862e-19
8.37369e-19
7.1013e-19
5.51094e-19
3.79697e-19
2.19763e-19
9.75894e-20
2.86654e-20
4.36523e-21
2.32245e-22
2.19301e-24
4.43302e-28
2.44273e-34
1.03101e-37
1.39682e-39
3.95841e-39
4.09782e-39
2.11168e-40
9.35038e-43
1.05178e-41
5.96998e-43
5.61357e-46
8.34751e-50
-1.50766e-49
-2.47155e-50
-2.65455e-51
-2.14558e-52
-1.34394e-53
-6.59881e-55
-2.55022e-56
-7.764e-58
-1.85694e-59
-3.47161e-61
-5.0341e-63
-5.60067e-65
-4.714e-67
-2.94554e-69
-1.33204e-71
-4.21073e-74
-8.8563e-77
-1.15074e-79
-8.19042e-83
-2.55205e-86
-2.00626e-90
3.77738e-28
3.75383e-25
9.00187e-23
2.0277e-21
1.72193e-20
7.82437e-20
2.31466e-19
5.05387e-19
8.85657e-19
1.32471e-18
1.76224e-18
2.14648e-18
2.448e-18
2.65312e-18
2.76364e-18
2.76324e-18
2.68844e-18
2.52937e-18
2.29243e-18
1.98456e-18
1.61394e-18
1.19486e-18
7.62446e-19
3.81266e-19
1.26449e-19
2.08941e-20
1.09404e-21
9.63651e-24
5.26273e-27
1.47119e-31
1.22846e-37
1.45822e-39
1.42067e-39
1.35894e-39
5.71201e-39
2.51564e-39
2.66972e-41
1.23361e-44
3.01135e-48
-9.19032e-50
-2.93912e-50
-3.85158e-51
-3.54471e-52
-2.45503e-53
-1.31043e-54
-5.44377e-56
-1.76687e-57
-4.47636e-59
-8.8181e-61
-1.34131e-62
-1.55917e-64
-1.36635e-66
-8.86084e-69
-4.14676e-71
-1.35301e-73
-2.93043e-76
-3.91301e-79
-2.8574e-82
-9.12385e-86
-7.34665e-90
1.51783e-23
8.46435e-22
1.6042e-20
1.04741e-19
3.69132e-19
8.6818e-19
1.55988e-18
2.33658e-18
3.0888e-18
3.74049e-18
4.25369e-18
4.61925e-18
4.85152e-18
4.9665e-18
4.98e-18
4.90359e-18
4.75368e-18
4.52977e-18
4.23532e-18
3.87145e-18
3.43343e-18
2.90954e-18
2.28981e-18
1.58693e-18
8.75288e-19
3.16943e-19
5.33938e-20
2.47105e-21
1.71398e-23
1.43217e-26
7.6622e-31
1.6555e-37
1.45822e-39
1.40108e-37
7.36043e-37
3.60213e-38
7.21252e-41
3.67956e-44
1.49259e-47
3.14517e-51
-2.46447e-50
-4.54491e-51
-5.0072e-52
-3.92809e-53
-2.31048e-54
-1.04054e-55
-3.62143e-57
-9.75922e-59
-2.03197e-60
-3.24962e-62
-3.95366e-64
-3.61197e-66
-2.43328e-68
-1.17918e-70
-3.97263e-73
-8.86143e-76
-1.21592e-78
-9.10701e-82
-2.97851e-85
-2.45484e-89
6.44643e-21
6.82619e-20
3.82705e-19
1.10324e-18
2.16781e-18
3.35097e-18
4.45899e-18
5.3895e-18
6.11238e-18
6.62508e-18
6.95413e-18