/*--------------------------------*- C++ -*----------------------------------*\
| =========                 |                                                 |
| \\      /  F ield         | OpenFOAM: The Open Source CFD Toolbox           |
|  \\    /   O peration     | Version:  v2012                                 |
|   \\  /    A nd           | Website:  www.openfoam.com                      |
|    \\/     M anipulation  |                                                 |
\*---------------------------------------------------------------------------*/
FoamFile
{
    version     2.0;
    format      ascii;
    class       surfaceScalarField;
    location    "0.8";
    object      alphaPhi0.water;
}
// * * * * * * * * * * * * * * * * * * * * * * * * * * * * * * * * * * * * * //

dimensions      [0 3 -1 0 0 0 0];
oriented        oriented;


internalField   nonuniform List<scalar> 
8162
(
-9.36305e-46
-1.55052e-35
-4.44722e-43
-1.64807e-53
-8.93212e-45
-2.36975e-52
-8.5882e-60
-1.42945e-52
-3.53966e-60
-1.75939e-66
-6.9577e-59
-1.56703e-66
-7.12024e-81
-1.31495e-65
-2.77577e-73
-3.02464e-85
-4.79017e-80
-1.9193e-87
-2.40431e-90
-1.94291e-84
-8.46277e-92
-4.20508e-94
-1.43194e-89
-4.7193e-97
-1.63775e-97
-2.33972e-93
-2.37292e-101
-3.22174e-101
-8.23678e-97
-1.28285e-104
-2.35517e-105
-1.57668e-100
-2.72577e-108
-1.04389e-109
-9.95507e-105
-1.7339e-112
-5.81739e-115
-3.67709e-109
-7.38505e-117
-1.55178e-121
-2.35813e-114
-4.27674e-122
-2.63251e-127
-4.29513e-121
-1.62695e-128
-2.0937e-136
-7.86478e-127
-1.22433e-134
-2.41519e-146
-7.57724e-136
-4.4181e-144
-6.40869e-159
-6.61948e-146
-1.02678e-153
-3.83646e-168
-1.44903e-158
-2.51667e-166
-7.101e-168
-1.38679e-175
-4.30783e-29
-5.14906e-21
-1.75183e-28
-1.86543e-36
-4.27245e-28
-1.35091e-35
-1.17964e-45
-1.76313e-35
-4.82882e-43
-2.04518e-53
-1.0225e-44
-2.56573e-52
-1.09934e-59
-1.62662e-52
-3.92895e-60
-2.25428e-66
-8.21969e-59
-1.8411e-66
-1.02403e-80
-1.56919e-65
-3.33972e-73
-3.88896e-85
-5.8842e-80
-2.76727e-87
-3.10648e-90
-2.34516e-84
-1.05071e-91
-5.56764e-94
-1.74614e-89
-5.89034e-97
-2.08196e-97
-2.93569e-93
-3.02238e-101
-4.74654e-101
-9.97748e-97
-1.56197e-104
-2.9993e-105
-2.24529e-100
-3.91538e-108
-1.11109e-109
-1.21013e-104
-2.20678e-112
-1.06702e-114
-3.73822e-109
-7.73986e-117
-1.62353e-121
-4.07642e-114
-7.45018e-122
-4.55096e-127
-4.47655e-121
-1.68288e-128
-8.35465e-136
-1.32793e-126
-1.94833e-134
-8.00328e-146
-2.72593e-135
-2.51893e-143
-1.20383e-158
-2.03253e-145
-3.34935e-153
-8.90677e-168
-2.6625e-158
-4.6537e-166
-1.61961e-167
-3.17051e-175
2.77089e-11
-7.50159e-09
6.66858e-16
2.60778e-10
-2.33873e-08
1.62687e-15
6.37298e-10
-4.63408e-08
9.74779e-15
-5.93313e-10
-6.49879e-08
-6.19059e-15
-2.86925e-09
-6.88838e-08
-1.00809e-14
-4.95512e-09
-7.77252e-08
2.7412e-15
-6.20787e-09
-9.15135e-08
2.57976e-15
-6.29382e-09
-1.02723e-07
-8.36764e-15
-4.1302e-09
-1.02565e-07
-2.01033e-14
-8.58489e-08
-3.06787e-14
-1.12151e-11
-5.44342e-09
-3.42698e-16
-3.8623e-14
-2.1001e-10
-1.09546e-17
-2.80713e-17
-7.44734e-13
-3.28628e-20
-6.79662e-19
-3.84395e-16
-1.63255e-23
-5.93488e-22
-8.00845e-18
-3.87481e-25
-4.94307e-29
-6.35464e-21
-2.52489e-28
-2.36875e-36
-4.41231e-28
-1.76551e-35
-1.49463e-45
-2.04611e-35
-7.03337e-43
-2.55749e-53
-1.1931e-44
-3.36869e-52
-1.41596e-59
-1.88659e-52
-4.90378e-60
-2.92602e-66
-9.86329e-59
-2.31977e-66
-1.05328e-80
-1.91224e-65
-4.21591e-73
-5.04211e-85
-7.0093e-80
-3.07336e-87
-4.05944e-90
-2.87132e-84
-1.33012e-91
-7.46245e-94
-2.16481e-89
-7.48586e-97
-2.69826e-97
-3.74476e-93
-3.91618e-101
-7.27223e-101
-1.23867e-96
-1.94117e-104
-3.87073e-105
-3.31976e-100
-5.88261e-108
-1.20309e-109
-1.49932e-104
-2.82334e-112
-1.87449e-114
-3.9208e-109
-8.22844e-117
-2.48279e-121
-6.71465e-114
-1.24798e-121
-7.99094e-127
-9.43401e-121
-2.52875e-128
-2.54579e-135
-2.23159e-126
-3.16652e-134
-2.1262e-145
-7.02785e-135
-1.17715e-142
-2.29731e-158
-4.56134e-145
-8.72754e-153
-2.10666e-167
-4.98062e-158
-8.71784e-166
-3.768e-167
-7.37347e-175
2.41511e-11
-7.52574e-09
2.46919e-16
2.23221e-10
-2.35863e-08
-4.92635e-16
5.37317e-10
-4.66549e-08
-5.22741e-15
-1.03466e-09
-6.34159e-08
2.59433e-15
-3.7412e-09
-6.61772e-08
-1.66732e-14
-6.11213e-09
-7.53543e-08
-1.87901e-14
-7.61692e-09
-9.00087e-08
-5.10922e-15
-7.75465e-09
-1.02585e-07
-1.84752e-15
-5.49754e-09
-1.04822e-07
6.72534e-16
-1.64625e-09
-8.97144e-08
7.78997e-16
-2.31504e-09
-8.13344e-08
-4.81021e-15
-5.99983e-10
-4.81226e-08
-3.3055e-15
-2.35052e-11
-8.16204e-09
-4.78365e-16
-9.08342e-14
-3.54508e-10
-1.7621e-17
-4.01324e-17
-1.54523e-12
-6.61048e-20
-9.13289e-19
-4.94577e-16
-2.11552e-23
-8.14539e-22
-9.77081e-18
-4.8886e-25
-5.62972e-29
-7.95367e-21
-2.8688e-28
-3.02266e-36
-4.62831e-28
-1.70952e-35
-1.90523e-45
-2.42227e-35
-7.90048e-43
-3.22414e-53
-1.41839e-44
-3.84492e-52
-1.83472e-59
-2.22976e-52
-5.81022e-60
-3.84655e-66
-1.20139e-58
-2.90341e-66
-1.50828e-80
-2.37812e-65
-5.40541e-73
-6.59057e-85
-8.67289e-80
-4.11776e-87
-5.3652e-90
-3.56457e-84
-1.70934e-91
-1.01183e-93
-2.72815e-89
-9.67865e-97
-3.5761e-97
-4.85213e-93
-5.15526e-101
-1.14328e-100
-1.58066e-96
-2.47016e-104
-5.09616e-105
-5.02371e-100
-9.04338e-108
-1.38502e-109
-1.90697e-104
-3.66773e-112
-3.12267e-114
-4.51935e-109
-9.27096e-117
-1.10715e-120
-1.04922e-113
-1.99808e-121
-1.36413e-126
-5.34285e-120
-9.93486e-128
-5.86623e-135
-3.59881e-126
-5.07388e-134
-4.29343e-145
-1.40709e-134
-3.75042e-142
-4.45412e-158
-7.90868e-145
-1.72999e-152
-5.07097e-167
-9.48654e-158
-1.66059e-165
-8.93196e-167
-1.7467e-174
2.01113e-11
-7.54585e-09
-3.45794e-16
1.81577e-10
-2.37478e-08
-4.61969e-16
4.44097e-10
-4.69175e-08
6.11893e-15
-1.51782e-09
-6.14539e-08
-1.34744e-14
-4.54953e-09
-6.31455e-08
-1.2487e-14
-7.01701e-09
-7.28868e-08
-4.41219e-15
-8.50635e-09
-8.85194e-08
9.09263e-15
-8.2656e-09
-1.02826e-07
-5.17301e-16
-5.58107e-09
-1.07507e-07
-6.84426e-16
-1.26063e-09
-9.40393e-08
1.59626e-14
-2.81047e-09
-8.13433e-08
-2.93687e-15
-9.9223e-10
-5.71899e-08
-3.97104e-15
-4.72113e-11
-1.2233e-08
-7.62322e-16
-2.07715e-13
-6.06388e-10
-3.73452e-17
-5.74185e-17
-3.22398e-12
-1.4175e-19
-1.22706e-18
-6.5546e-16
-3.0332e-23
-1.11095e-21
-1.21982e-17
-6.22077e-25
-6.42286e-29
-1.0087e-20
-3.7256e-28
-3.87782e-36
-4.95386e-28
-1.90292e-35
-2.44382e-45
-2.92289e-35
-9.68979e-43
-4.0987e-53
-1.71665e-44
-4.40163e-52
-2.39078e-59
-2.68431e-52
-6.71038e-60
-5.1187e-66
-1.48407e-58
-3.55329e-66
-1.8954e-80
-3.01513e-65
-6.87468e-73
-8.68247e-85
-1.07908e-79
-5.16353e-87
-7.17082e-90
-4.48451e-84
-2.19422e-91
-1.38666e-93
-3.49351e-89
-1.25928e-96
-4.8606e-97
-6.3792e-93
-6.85504e-101
-1.81846e-100
-2.07863e-96
-3.22014e-104
-6.89836e-105
-7.67426e-100
-1.4069e-107
-1.8841e-109
-2.5099e-104
-4.88211e-112
-4.93414e-114
-6.5591e-109
-1.22501e-116
-6.08161e-120
-1.56019e-113
-3.05879e-121
-2.21251e-126
-2.64194e-119
-4.81506e-127
-1.12926e-134
-5.48952e-126
-7.82193e-134
-7.2442e-145
-2.45404e-134
-9.17604e-142
-8.77543e-158
-1.20214e-144
-2.86932e-152
-1.24099e-166
-1.83953e-157
-3.21805e-165
-2.71509e-174
-2.15515e-166
-4.21038e-174
-3.62829e-174
-8.49861e-182
1.59377e-11
-7.56179e-09
-4.65893e-16
1.40855e-10
-2.38727e-08
5.16131e-16
3.47526e-10
-4.71242e-08
8.51786e-15
-2.00709e-09
-5.90993e-08
-1.40541e-14
-5.26606e-09
-5.98865e-08
-1.93716e-14
-7.77762e-09
-7.03752e-08
-1.21719e-14
-9.09197e-09
-8.7205e-08
-1.85879e-14
-8.24797e-09
-1.0367e-07
-8.48662e-15
-5.06741e-09
-1.10687e-07
-5.63271e-16
-7.22556e-10
-9.8385e-08
1.93344e-14
-3.0078e-09
-7.98586e-08
7.53886e-15
-1.53418e-09
-6.56872e-08
-4.68133e-15
-9.20392e-11
-1.81292e-08
-1.24026e-15
-4.62018e-13
-1.05061e-09
-7.2248e-17
-8.26786e-17
-6.73451e-12
-3.15478e-19
-1.65061e-18
-8.97142e-16
-4.28614e-23
-1.50699e-21
-1.55629e-17
-7.95203e-25
-7.36167e-29
-1.29448e-20
-5.01741e-28
-5.00243e-36
-5.3942e-28
-1.97391e-35
-3.15404e-45
-3.5909e-35
-1.167e-42
-5.25471e-53
-2.11284e-44
-5.4901e-52
-3.13157e-59
-3.28917e-52
-8.59333e-60
-6.88967e-66
-1.85721e-58
-4.69685e-66
-2.27337e-80
-3.89194e-65
-9.26902e-73
-1.15245e-84
-1.3343e-79
-6.82647e-87
-9.68924e-90
-5.71362e-84
-2.89147e-91
-1.91881e-93
-4.54295e-89
-1.67566e-96
-6.79039e-97
-8.49921e-93
-9.26963e-101
-2.89094e-100
-2.8217e-96
-4.32362e-104
-9.67813e-105
-1.1703e-99
-2.18416e-107
-3.46262e-109
-3.4449e-104
-6.67691e-112
-7.43429e-114
-1.32762e-108
-2.1662e-116
-2.34996e-119
-2.22256e-113
-4.49436e-121
-3.39294e-126
-8.59883e-119
-1.71509e-126
-2.02109e-134
-7.93046e-126
-1.14993e-133
-1.16516e-144
-4.17707e-134
-1.94807e-141
-1.75676e-157
-1.87775e-144
-4.54336e-152
-3.08475e-166
-3.62878e-157
-6.34573e-165
-1.10781e-173
-5.28785e-166
-1.03189e-173
-1.46706e-173
-3.42403e-181
1.17717e-11
-7.57357e-09
-2.68648e-17
1.03329e-10
-2.39643e-08
-1.93564e-15
2.19824e-10
-4.72407e-08
2.8534e-15
-2.55301e-09
-5.63264e-08
-1.36896e-14
-6.07507e-09
-5.63643e-08
-1.03455e-14
-8.74733e-09
-6.7703e-08
-2.09673e-14
-9.87946e-09
-8.60729e-08
-9.19273e-15
-8.42579e-09
-1.05123e-07
-1.4579e-14
-4.89972e-09
-1.14213e-07
-5.48531e-15
-7.90059e-10
-1.02495e-07
-3.22742e-15
-2.81904e-09
-7.81437e-08
-1.68653e-15
-2.18564e-09
-7.23962e-08
-7.46069e-15
-1.74473e-10
-2.62075e-08
-1.54064e-15
-9.98095e-13
-1.83817e-09
-1.13153e-16
-1.20562e-16
-1.40228e-11
-5.62768e-19
-2.22447e-18
-1.27359e-15
-5.18127e-23
-2.03365e-21
-2.02554e-17
-1.06655e-24
-8.45745e-29
-1.67822e-20
-7.27678e-28
-6.488e-36
-5.97004e-28
-2.39678e-35
-4.09478e-45
-4.48511e-35
-1.55534e-42
-6.79346e-53
-2.64105e-44
-6.84428e-52
-4.1209e-59
-4.09837e-52
-1.05187e-59
-9.36993e-66
-2.35158e-58
-5.9192e-66
-3.49157e-80
-5.10615e-65
-1.2125e-72
-1.54059e-84
-1.73683e-79
-8.84882e-87
-1.32301e-89
-7.36641e-84
-3.76303e-91
-2.67803e-93
-5.9946e-89
-2.22682e-96
-9.76131e-97
-1.14598e-92
-1.2585e-100
-4.5522e-100
-3.95531e-96
-5.95939e-104
-1.41658e-104
-1.76755e-99
-3.34548e-107
-8.28874e-109
-4.95708e-104
-9.4217e-112
-1.07648e-113
-3.28449e-108
-5.01067e-116
-6.33214e-119
-3.05921e-113
-6.38272e-121
-4.95468e-126
-1.98096e-118
-4.38806e-126
-3.76395e-134
-1.09725e-125
-1.61813e-133
-2.1463e-144
-7.84828e-134
-3.94156e-141
-3.57121e-157
-3.79215e-144
-8.25299e-152
-7.78164e-166
-7.27085e-157
-1.27273e-164
-4.57485e-173
-1.31798e-165
-2.57009e-173
-7.16373e-219
-6.00683e-173
-1.39648e-180
4.23315e-220
-3.86414e-230
7.7146e-12
-7.58129e-09
1.52364e-15
7.04478e-11
-2.4027e-08
-1.18582e-16
1.41823e-11
-4.71844e-08
7.85452e-15
-3.24652e-09
-5.30656e-08
-1.79558e-14
-7.14792e-09
-5.24629e-08
-9.8094e-15
-1.00967e-08
-6.47542e-08
-2.89265e-15
-1.10166e-08
-8.5153e-08
-1.84515e-14
-8.94376e-09
-1.07196e-07
-1.12285e-14
-5.02351e-09
-1.18133e-07
-6.82476e-15
-9.57748e-10
-1.0656e-07
-5.445e-14
-2.05425e-09
-7.71142e-08
-1.26066e-14
-2.78291e-09
-7.61742e-08
-9.45926e-15
-3.1888e-10
-3.63504e-08
-2.61375e-15
-2.08654e-12
-3.22545e-09
-1.92618e-16
-1.79225e-16
-2.89687e-11
-1.04875e-18
-3.0023e-18
-1.88525e-15
-8.13233e-23
-2.7295e-21
-2.68316e-17
-1.39759e-24
-9.75764e-29
-2.19348e-20
-1.00006e-27
-8.45712e-36
-6.714e-28
-2.74291e-35
-5.3453e-45
-5.68585e-35
-2.01866e-42
-8.85496e-53
-3.34768e-44
-8.85176e-52
-5.44453e-59
-5.18704e-52
-1.34904e-59
-1.286e-65
-3.0085e-58
-7.69275e-66
-4.69293e-80
-6.79623e-65
-1.63419e-72
-2.07324e-84
-2.28492e-79
-1.20303e-86
-1.82452e-89
-9.60245e-84
-4.99918e-91
-3.76554e-93
-8.01894e-89
-3.01933e-96
-1.44319e-96
-1.56149e-92
-1.73432e-100
-7.05788e-100
-5.71703e-96
-8.49126e-104
-2.16927e-104
-2.63092e-99
-5.03343e-107
-2.11775e-108
-7.48242e-104
-1.37845e-111
-1.51269e-113
-8.0745e-108
-1.25073e-115
-1.29557e-118
-4.1116e-113
-8.84287e-121
-6.99724e-126
-3.57158e-118
-8.70025e-126
-8.13711e-134
-1.48182e-125
-2.20809e-133
-5.49723e-144
-1.79383e-133
-8.03911e-141
-7.36095e-157
-1.11093e-143
-2.08819e-151
-1.99035e-165
-1.47613e-156
-2.59289e-164
-1.90811e-172
-3.33313e-165
-6.50242e-173
-3.15283e-219
-2.4851e-172
-5.76449e-180
1.65849e-220
-1.68506e-230
3.77149e-12
-7.58506e-09
1.30689e-15
3.96354e-11
-2.40629e-08
-4.68879e-15
-3.20179e-10
-4.68246e-08
-4.71287e-15
-4.13418e-09
-4.92515e-08
-3.00349e-15
-8.46035e-09
-4.81367e-08
-9.11776e-15
-1.16338e-08
-6.15807e-08
-1.19791e-14
-1.21824e-08
-8.46044e-08
-1.40156e-14
-9.33237e-09
-1.10046e-07
-1.04081e-14
-4.67242e-09
-1.22793e-07
-1.02757e-14
3.59922e-11
-1.11268e-07
-8.57045e-14
-6.57815e-11
-7.70225e-08
-2.49912e-14
-3.00544e-09
-7.59182e-08
-1.54807e-14
-5.51942e-10
-4.75226e-08
-4.4966e-15
-4.20181e-12
-5.60212e-09
-3.34086e-16
-2.73432e-16
-5.9061e-11
-2.331e-18
-4.05473e-18
-2.92412e-15
-1.27242e-22
-3.64161e-21
-3.60716e-17
-1.92376e-24
-1.13283e-28
-2.88348e-20
-1.27278e-27
-1.10736e-35
-7.68456e-28
-2.83388e-35
-7.01228e-45
-7.30219e-35
-2.46015e-42
-1.16333e-52
-4.29578e-44
-1.13059e-51
-7.21738e-59
-6.6598e-52
-1.75093e-59
-1.77878e-65
-3.88338e-58
-1.00384e-65
-6.97652e-80
-9.15804e-65
-2.20831e-72
-2.80754e-84
-3.12002e-79
-1.32046e-86
-2.53958e-89
-1.26446e-83
-6.62936e-91
-5.32824e-93
-1.08628e-88
-4.10997e-96
-2.18953e-96
-2.14711e-92
-2.4024e-100
-1.07382e-99
-8.49287e-96
-1.244e-103
-3.46527e-104
-3.84885e-99
-7.34183e-107
-5.02611e-108
-1.17808e-103
-2.0926e-111
-2.08866e-113
-1.78832e-107
-2.91912e-115
-2.17844e-118
-5.47038e-113
-1.20979e-120
-9.78708e-126
-5.42999e-118
-1.43629e-125
-2.08888e-133
-2.00945e-125
-2.9894e-133
-1.72875e-143
-4.7713e-133
-1.6647e-140
-1.53485e-156
-3.43433e-143
-6.49948e-151
-5.15631e-165
-3.02771e-156
-5.35397e-164
-8.02234e-172
-8.5408e-165
-1.66945e-172
-1.3414e-219
-1.03674e-171
-2.40249e-179
6.17772e-221
-7.18242e-231
1.85249e-13
-7.58527e-09
4.23406e-15
8.59319e-12
-2.40713e-08
-3.03372e-15
-7.89852e-10
-4.60262e-08
1.66327e-15
-5.14944e-09
-4.48919e-08
-1.99866e-16
-9.80629e-09
-4.34799e-08
-7.34182e-15
-1.30247e-08
-5.83623e-08
-2.32257e-14
-1.30412e-08
-8.4588e-08
-1.75978e-14
-9.2715e-09
-1.13816e-07
-3.3644e-14
-3.60305e-09
-1.28461e-07
-4.91703e-14
2.32463e-09
-1.17195e-07
-1.00734e-13
3.59891e-09
-7.82979e-08
-3.91381e-14
-2.47795e-09
-7.10152e-08
-1.23049e-14
-8.81936e-10
-5.76906e-08
-5.71288e-15
-8.1151e-12
-9.43846e-09
-6.13509e-16
-4.30493e-16
-1.18105e-10
-5.28553e-18
-5.47343e-18
-4.76388e-15
-1.70089e-22
-4.82606e-21
-4.90384e-17
-2.41024e-24
-1.33044e-28
-3.80204e-20
-1.52357e-27
-1.45559e-35
-8.99957e-28
-3.43539e-35
-9.23908e-45
-9.48121e-35
-3.44879e-42
-1.53983e-52
-5.57053e-44
-1.56113e-51
-9.59318e-59
-8.6624e-52
-2.32101e-59
-2.47604e-65
-5.05009e-58
-1.30998e-65
-7.54212e-80
-1.24674e-64
-3.00713e-72
-3.82413e-84
-4.00976e-79
-2.0705e-86
-3.56516e-89
-1.68052e-83
-8.91569e-91
-7.57924e-93
-1.48844e-88
-5.68264e-96
-3.39503e-96
-2.97532e-92
-3.36718e-100
-1.60078e-99
-1.29034e-95
-1.88185e-103
-5.7241e-104
-5.52773e-99
-1.069e-106
-1.06181e-107
-1.91347e-103
-3.3077e-111
-2.88213e-113
-3.50841e-107
-6.08749e-115
-3.186e-118
-7.34564e-113
-1.66325e-120
-1.40408e-125
-7.31541e-118
-2.08021e-125
-5.6559e-133
-2.8528e-125
-4.16376e-133
-4.87344e-143
-1.25447e-132
-3.38069e-140
-3.22848e-156
-8.56206e-143
-1.81682e-150
-1.3513e-164
-6.25675e-156
-1.11726e-163
-3.39398e-171
-2.21388e-164
-4.34377e-172
-5.51355e-220
-4.35335e-171
-1.0091e-178
2.17763e-221
-2.96729e-231
-3.015e-12
-7.58227e-09
4.82663e-15
-2.68754e-11
-2.40474e-08
-2.86751e-15
-1.34903e-09
-4.4704e-08
-6.25083e-15
-6.13789e-09
-4.0103e-08
3.90243e-16
-1.09536e-08
-3.86641e-08
-1.92654e-14
-1.40838e-08
-5.52321e-08
-2.41472e-14
-1.35811e-08
-8.50907e-08
-2.80815e-14
-9.01133e-09
-1.18386e-07
-2.3942e-14
-2.4311e-09
-1.35041e-07
-4.01647e-14
4.48307e-09
-1.24109e-07
-5.5838e-14
7.59389e-09
-8.14084e-08
-5.05216e-14
-1.07171e-09
-6.27299e-08
-5.16787e-15
-1.25575e-09
-6.45639e-08
-1.10971e-14
-1.49531e-11
-1.50474e-08
-1.07354e-15
-7.01148e-16
-2.29767e-10
-1.2987e-17
-7.37381e-18
-8.13881e-15
-3.72225e-22
-6.34786e-21
-6.71287e-17
-3.5334e-24
-1.59673e-28
-5.01364e-20
-2.39462e-27
-1.91947e-35
-1.09023e-27
-4.39663e-35
-1.22182e-44
-1.24195e-34
-4.50892e-42
-2.05261e-52
-7.28642e-44
-2.07944e-51
-1.27771e-58
-1.13978e-51
-3.08733e-59
-3.46351e-65
-6.6068e-58
-1.71669e-65
-1.39195e-79
-1.71104e-64
-4.12735e-72
-5.23729e-84
-5.71044e-79
-2.82087e-86
-5.04379e-89
-2.25231e-83
-1.21053e-90
-1.08278e-92
-2.0604e-88
-7.95114e-96
-5.35201e-96
-4.14985e-92
-4.76479e-100
-2.33753e-99
-1.99317e-95
-2.92112e-103
-9.65527e-104
-7.79294e-99
-1.52038e-106
-2.00148e-107
-3.16249e-103
-5.42625e-111
-4.07213e-113
-6.1716e-107
-1.13415e-114
-4.21812e-118
-1.024e-112
-2.35193e-120
-2.16802e-125
-9.04725e-118
-2.7441e-125
-1.41157e-132
-4.47651e-125
-6.29975e-133
-1.12229e-142
-2.91268e-132
-6.45292e-140
-6.83271e-156
-1.73755e-142
-4.15621e-150
-3.57716e-164
-1.30032e-155
-2.34973e-163
-1.4426e-170
-5.79621e-164
-1.14355e-171
-3.17733e-195
-1.837e-170
-4.26408e-178
1.0478e-196
-8.57923e-203
-5.64799e-12
-7.57664e-09
5.20848e-15
-6.76007e-11
-2.39855e-08
-9.63765e-16
-1.89794e-09
-4.28737e-08
-5.81737e-15
-6.89174e-09
-3.51091e-08
1.19975e-15
-1.16969e-08
-3.38589e-08
-1.7132e-14
-1.47341e-08
-5.21949e-08
-2.76014e-14
-1.39007e-08
-8.59243e-08
-2.60505e-14
-8.89154e-09
-1.23395e-07
-9.97509e-15
-1.83967e-09
-1.42093e-07
-2.97541e-14
5.16929e-09
-1.31117e-07
-2.40223e-14
9.91237e-09
-8.61513e-08
-3.70366e-14
9.02745e-10
-5.38104e-08
1.56666e-14
-1.52022e-09
-6.69255e-08
-1.75736e-14
-2.60643e-11
-2.21754e-08
-1.6442e-15
-1.17885e-15
-4.2964e-10
-2.31748e-17
-9.89311e-18
-1.44947e-14
-7.12328e-22
-8.2792e-21
-9.20871e-17
-5.20558e-24
-1.99063e-28
-6.59183e-20
-3.32945e-27
-2.53742e-35
-1.39045e-27
-5.45753e-35
-1.62072e-44
-1.63771e-34
-5.7583e-42
-2.75415e-52
-9.59638e-44
-2.71684e-51
-1.70426e-58
-1.51485e-51
-4.1628e-59
-4.86168e-65
-8.68332e-58
-2.31404e-65
-1.42642e-79
-2.36242e-64
-5.84519e-72
-7.2095e-84
-7.39572e-79
-3.44874e-86
-7.18518e-89
-3.0417e-83
-1.66951e-90
-1.55233e-92
-2.87781e-88
-1.12565e-95
-8.52748e-96
-5.81939e-92
-6.79068e-100
-3.34538e-99
-3.11062e-95
-4.6172e-103
-1.64112e-103
-1.07903e-98
-2.10811e-106
-3.41881e-107
-5.2487e-103
-8.90122e-111
-6.09436e-113
-9.90902e-107
-1.90853e-114
-5.22332e-118
-1.54e-112
-3.52995e-120
-3.78001e-125
-1.06004e-117
-3.40385e-125
-3.07821e-132
-8.08237e-125
-1.0993e-132
-2.3033e-142
-5.85259e-132
-1.13149e-139
-1.45257e-155
-3.33224e-142
-8.48755e-150
-9.55201e-164
-2.71783e-155
-4.97138e-163
-6.15219e-170
-1.53096e-163
-3.04108e-171
-2.77757e-192
-7.77921e-170
-1.80973e-177
7.37255e-194
-7.44921e-200
-7.6497e-12
-7.56901e-09
4.75609e-15
-1.10806e-10
-2.38823e-08
-3.02271e-15
-2.31024e-09
-4.06743e-08
-9.09378e-15
-7.199e-09
-3.02203e-08
-6.06427e-15
-1.18187e-08
-2.92392e-08
-2.25929e-14
-1.4781e-08
-4.92326e-08
-3.51756e-14
-1.37954e-08
-8.69101e-08
-1.35171e-14
-8.71829e-09
-1.28472e-07
-1.05414e-14
-1.78165e-09
-1.49029e-07
-1.88976e-14
4.52576e-09
-1.37424e-07
-2.62095e-14
9.95106e-09
-9.15757e-08
4.07391e-14
2.72849e-09
-4.66037e-08
7.23709e-15
-1.50178e-09
-6.53781e-08
-1.43786e-14
-4.25364e-11
-2.98112e-08
-2.22416e-15
-2.03687e-15
-7.59368e-10
-3.98789e-17
-1.31877e-17
-2.6672e-14
-1.00349e-21
-1.06984e-20
-1.25959e-16
-6.04864e-24
-2.63655e-28
-8.61619e-20
-3.17019e-27
-3.36012e-35
-1.90965e-27
-7.26493e-35
-2.15506e-44
-2.16947e-34
-7.99787e-42
-3.71779e-52
-1.27033e-43
-3.67003e-51
-2.27531e-58
-2.03067e-51
-5.47517e-59
-6.83888e-65
-1.14506e-57
-2.9757e-65
-2.76321e-79
-3.27501e-64
-8.02335e-72
-9.97283e-84
-1.07836e-78
-5.56727e-86
-1.02982e-88
-4.13618e-83
-2.31249e-90
-2.23192e-92
-4.0507e-88
-1.61029e-95
-1.36533e-95
-8.1973e-92
-9.75891e-100
-4.69767e-99
-4.87557e-95
-7.3841e-103
-2.77887e-103
-1.46891e-98
-2.8596e-106
-5.37922e-107
-8.65507e-103
-1.46288e-110
-1.00492e-112
-1.47534e-106
-2.94964e-114
-6.26973e-118
-2.59811e-112
-5.80829e-120
-7.48625e-125
-1.22437e-117
-4.11511e-125
-5.92628e-132
-1.63994e-124
-2.2369e-132
-5.06792e-142
-1.04805e-131
-1.82555e-139
-3.10265e-155
-7.74853e-142
-1.86113e-149
-2.57031e-163
-5.72661e-155
-1.05816e-162
-2.62955e-169
-4.07782e-163
-8.15886e-171
-6.52885e-190
-3.30232e-169
-7.70378e-177
1.32103e-191
-1.73975e-197
-8.79807e-12
-7.56022e-09
1.68893e-15
-1.4352e-10
-2.37476e-08
1.48638e-15
-2.45222e-09
-3.83656e-08
-1.35915e-14
-6.83252e-09
-2.584e-08
-6.81679e-15
-1.09856e-08
-2.50861e-08
-2.80932e-14
-1.37308e-08
-4.64874e-08
-1.22372e-14
-1.25706e-08
-8.80703e-08
-1.35268e-14
-7.68316e-09
-1.33359e-07
-5.47956e-15
-1.44956e-09
-1.55263e-07
-1.77549e-14
3.68978e-09
-1.42562e-07
-3.87588e-14
8.47415e-09
-9.63594e-08
7.07456e-14
3.77184e-09
-4.19014e-08
1.77157e-14
-1.17422e-09
-6.16984e-08
-6.80734e-15
-6.42608e-11
-3.66324e-08
-2.51632e-15
-3.59726e-15
-1.24569e-09
-6.28618e-17
-1.74225e-17
-5.02193e-14
-1.94452e-21
-1.36887e-20
-1.70969e-16
-9.26141e-24
-3.79785e-28
-1.11684e-19
-4.65923e-27
-4.45415e-35
-2.88101e-27
-1.06328e-34
-2.87074e-44
-2.88144e-34
-1.00636e-41
-5.04609e-52
-1.68746e-43
-4.75717e-51
-3.03921e-58
-2.7416e-51
-7.50829e-59
-9.62892e-65
-1.51328e-57
-4.05939e-65
-3.06116e-79
-4.55031e-64
-1.14989e-71
-1.38603e-83
-1.4401e-78
-6.98585e-86
-1.48383e-88
-5.66002e-83
-3.22125e-90
-3.21687e-92
-5.73906e-88
-2.30567e-95
-2.18527e-95
-1.15908e-91
-1.40164e-99
-6.48313e-99
-7.63531e-95
-1.1832e-102
-4.64864e-103
-1.96911e-98
-3.81058e-106
-7.90419e-107
-1.40776e-102
-2.41854e-110
-1.87081e-112
-2.06262e-106
-4.25959e-114
-7.73882e-118
-4.97396e-112
-1.06583e-119
-1.58585e-124
-1.50947e-117
-5.15352e-125
-1.04753e-131
-3.43977e-124
-4.93334e-132
-1.5193e-141
-1.75638e-131
-2.76564e-139
-6.67595e-155
-2.74487e-141
-5.5681e-149
-6.96774e-163
-1.22207e-154
-2.27141e-162
-1.12546e-168
-1.09582e-162
-2.20717e-170
-7.90421e-188
-1.40402e-168
-3.28557e-176
1.11342e-189
-2.093e-195
-8.97233e-12
-7.55125e-09
6.98849e-16
-1.49978e-10
-2.36066e-08
3.17243e-15
-2.23533e-09
-3.62802e-08
-1.41102e-14
-5.60789e-09
-2.24675e-08
-1.14175e-14
-8.80837e-09
-2.18856e-08
-6.05603e-15
-1.09078e-08
-4.4388e-08
-8.72551e-15
-9.27525e-09
-8.97029e-08
-7.33463e-15
-4.76461e-09
-1.3787e-07
-1.79554e-14
2.23551e-10
-1.60251e-07
-1.79093e-14
3.78389e-09
-1.46121e-07
-2.98846e-14
6.79041e-09
-9.93652e-08
2.08761e-14
4.02317e-09
-3.91343e-08
2.81502e-14
-6.60081e-10
-5.75367e-08
-7.41448e-16
-1.09513e-10
-4.16705e-08
-2.36984e-15
-6.442e-15
-1.90215e-09
-8.38473e-17
-2.27383e-17
-9.58394e-14
-3.95359e-21
-1.73293e-20
-2.2929e-16
-1.1439e-23
-6.02777e-28
-1.4327e-19
-6.32372e-27
-5.90631e-35
-4.79811e-27
-1.61896e-34
-3.82883e-44
-3.83051e-34
-1.2211e-41
-6.88245e-52
-2.24612e-43
-5.9984e-51
-4.06018e-58
-3.72277e-51
-9.86081e-59
-1.35547e-64
-2.00235e-57
-5.27733e-65
-4.35536e-79
-6.32613e-64
-1.59467e-71
-1.93519e-83
-1.96304e-78
-9.80882e-86
-2.14774e-88
-7.79043e-83
-4.48939e-90
-4.64684e-92
-8.17557e-88
-3.31799e-95
-3.48149e-95
-1.64438e-91
-2.02116e-99
-8.81377e-99
-1.18968e-94
-1.89248e-102
-7.6437e-103
-2.60545e-98
-5.00562e-106
-1.09674e-106
-2.24927e-102
-3.97266e-110
-3.86283e-112
-2.7349e-106
-5.80523e-114
-1.14249e-117
-1.04028e-111
-2.13477e-119
-3.31403e-124
-2.48973e-117
-7.71973e-125
-1.7903e-131
-6.90608e-124
-1.06965e-131
-6.14352e-141
-2.92137e-131
-4.07775e-139
-1.4546e-154
-1.17479e-140
-2.24953e-148
-1.90409e-162
-2.65684e-154
-4.94092e-162
-4.82055e-168
-2.97425e-162
-6.02252e-170
-6.1325e-186
-5.9739e-168
-1.4027e-175
4.98832e-188
-1.61365e-193
-7.99589e-12
-7.54324e-09
-3.58725e-15
-1.18613e-10
-2.3496e-08
1.81247e-15
-1.67467e-09
-3.47241e-08
-1.99862e-14
-3.52845e-09
-2.06137e-08
1.2342e-14
-5.12845e-09
-2.02856e-08
-1.18462e-14
-5.87764e-09
-4.36389e-08
-2.12344e-14
-3.32375e-09
-9.22568e-08
-1.71007e-14
6.15401e-10
-1.41809e-07
-6.18355e-15
3.85172e-09
-1.63487e-07
-9.57897e-15
5.29069e-09
-1.47559e-07
-1.29787e-14
5.88667e-09
-9.99604e-08
-4.44636e-14
4.00738e-09
-3.72549e-08
-2.13089e-14
-1.19513e-10
-5.36197e-08
-2.18302e-15
-1.61094e-10
-4.46217e-08
-1.82917e-15
-1.16024e-14
-2.71328e-09
-1.02006e-16
-2.92392e-17
-1.83737e-13
-7.13106e-21
-2.16931e-20
-3.02716e-16
-1.27354e-23
-1.04658e-27
-1.81622e-19
-7.41363e-27
-7.82974e-35
-8.6768e-27
-3.05997e-34
-5.11053e-44
-5.0894e-34
-1.82023e-41
-9.42742e-52
-2.99211e-43
-8.85206e-51
-5.42379e-58
-5.07772e-51
-1.40021e-58
-1.90596e-64
-2.65067e-57
-7.0277e-65
-5.27334e-79
-8.78809e-64
-2.20117e-71
-2.71444e-83
-2.59233e-78
-1.29435e-85
-3.12073e-88
-1.07813e-82
-6.16796e-90
-6.72755e-92
-1.16985e-87
-4.7272e-95
-5.503e-95
-2.34023e-91
-2.901e-99
-1.18437e-98
-1.83853e-94
-3.00311e-102
-1.23252e-102
-3.4152e-98
-6.48925e-106
-1.45099e-106
-3.52479e-102
-6.46623e-110
-8.35951e-112
-3.47067e-106
-7.55653e-114
-2.73865e-117
-2.22436e-111
-4.44603e-119
-6.50343e-124
-7.47519e-117
-1.78276e-124
-3.1349e-131
-1.28389e-123
-2.15925e-131
-2.34619e-140
-5.13027e-131
-6.17599e-139
-3.23186e-154
-4.07716e-140
-8.59138e-148
-5.25193e-162
-5.91346e-154
-1.09745e-161
-2.06511e-167
-8.16167e-162
-1.65931e-169
-3.40734e-184
-2.5419e-167
-5.99041e-175
8.20085e-187
-8.90854e-192
-5.96322e-12
-7.53728e-09
1.88649e-15
-5.93279e-11
-2.34427e-08
7.46731e-15
-9.56164e-10
-3.38273e-08
-9.30081e-15
-1.05065e-09
-2.05192e-08
1.15972e-14
-5.67656e-10
-2.07686e-08
-2.49948e-15
8.79375e-10
-4.5086e-08
-2.71817e-14
4.67011e-09
-9.60475e-08
-3.38046e-15
7.89221e-09
-1.45031e-07
-2.51968e-14
8.92098e-09
-1.64515e-07
-9.98505e-15
7.74743e-09
-1.46384e-07
2.22821e-15
5.78892e-09
-9.80011e-08
-9.97631e-14
3.94211e-09
-3.54081e-08
-7.50971e-14
3.4701e-10
-5.0123e-08
3.72063e-16
-2.09212e-10
-4.57017e-08
-1.41411e-15
-2.08965e-14
-3.59401e-09
-1.46671e-16
-3.70073e-17
-3.50876e-13
-1.47393e-20
-2.68545e-20
-3.92297e-16
-1.60299e-23
-1.93775e-27
-2.27314e-19
-8.24828e-27
-1.03726e-34
-1.65152e-26
-4.50545e-34
-6.82418e-44
-6.75066e-34
-2.01553e-41
-1.29616e-51
-3.98506e-43
-1.12511e-50
-7.24436e-58
-6.94864e-51
-1.92259e-58
-2.67495e-64
-3.50852e-57
-9.50183e-65
-1.0456e-78
-1.21842e-63
-3.11284e-71
-3.82543e-83
-3.84981e-78
-1.67261e-85
-4.54944e-88
-1.49984e-82
-8.6279e-90
-9.76442e-92
-1.67997e-87
-6.80461e-95
-8.61032e-95
-3.34129e-91
-4.18604e-99
-1.58137e-98
-2.81201e-94
-4.72294e-102
-1.94864e-102
-4.46095e-98
-8.29591e-106
-1.84945e-106
-5.41968e-102
-1.03797e-109
-1.78585e-111
-4.26105e-106
-9.47437e-114
-1.02759e-116
-4.60129e-111
-9.14427e-119
-1.18773e-123
-3.00551e-116
-6.07421e-124
-5.9064e-131
-2.22086e-123
-4.03314e-131
-6.91318e-140
-9.88538e-131
-1.03293e-138
-7.36756e-154
-1.04563e-139
-2.53345e-147
-1.46382e-161
-1.34909e-153
-2.50198e-161
-8.84388e-167
-2.26397e-161
-4.62054e-169
-1.4489e-182
-1.08082e-166
-2.55744e-174
-1.48941e-183
-3.7636e-190
-3.89581e-12
-7.53337e-09
-2.24717e-15
-3.69072e-12
-2.34429e-08
-1.43603e-15
-3.60875e-10
-3.34701e-08
-1.7478e-14
9.57183e-10
-2.18372e-08
1.94226e-14
3.36878e-09
-2.31802e-08
-1.09539e-14
7.53481e-09
-4.9252e-08
-1.81089e-14
1.27429e-08
-1.01256e-07
-1.18102e-14
1.51998e-08
-1.47488e-07
-2.45208e-14
1.38318e-08
-1.63147e-07
-1.08008e-14
1.00008e-08
-1.42552e-07
6.87334e-15
5.80808e-09
-9.38076e-08
-1.20639e-13
3.61153e-09
-3.32114e-08
-8.93495e-14
5.8867e-10
-4.71469e-08
3.99944e-15
-2.47809e-10
-4.54478e-08
-1.44153e-15
-3.75058e-14
-4.41445e-09
-1.71029e-16
-4.61096e-17
-6.61875e-13
-2.81178e-20
-3.28977e-20
-4.98009e-16
-1.88687e-23
-3.70466e-27
-2.80788e-19
-9.8731e-27
-1.37297e-34
-3.20085e-26
-9.50081e-34
-9.11465e-44
-8.93196e-34
-3.02892e-41
-1.78774e-51
-5.30259e-43
-1.63862e-50
-9.67548e-58
-9.53017e-51
-2.68504e-58
-3.74484e-64
-4.64201e-57
-1.23857e-64
-1.1714e-78
-1.68437e-63
-4.1977e-71
-5.41747e-83
-5.20036e-78
-2.67383e-85
-6.65092e-88
-2.09716e-82
-1.18427e-89
-1.42151e-91
-2.41948e-87
-9.70961e-95
-1.33176e-94
-4.78768e-91
-6.0389e-99
-2.1153e-98
-4.25114e-94
-7.35968e-102
-3.02546e-102
-5.86237e-98
-1.05658e-105
-2.30402e-106
-8.19253e-102
-1.64929e-109
-3.62604e-111
-5.146e-106
-1.16346e-113
-3.77509e-116
-8.94905e-111
-1.80158e-118
-2.06113e-123
-1.02006e-115
-2.06381e-123
-1.20319e-130
-3.68867e-123
-7.16634e-131
-1.60845e-139
-2.03672e-130
-2.01511e-138
-1.73163e-153
-2.16511e-139
-5.90192e-147
-4.12267e-161
-3.14837e-153
-5.89526e-161
-3.78415e-166
-6.33413e-161
-1.30013e-168
-4.8864e-181
-4.58981e-166
-1.09078e-173
-1.12348e-181
-1.26076e-188
-2.24973e-12
-7.53111e-09
-2.31881e-15
2.11784e-11
-2.34663e-08
6.26346e-18
-6.18319e-11
-3.33871e-08
-1.04173e-14
1.81472e-09
-2.37138e-08
2.56006e-14
5.39096e-09
-2.67564e-08
-1.5268e-14
1.22406e-08
-5.61016e-08
-1.56836e-14
1.87365e-08
-1.07751e-07
-1.2772e-14
2.02656e-08
-1.49017e-07
-3.53717e-15
1.68137e-08
-1.59694e-07
7.7046e-15
1.09373e-08
-1.36674e-07
-4.76795e-16
5.28717e-09
-8.81567e-08
-1.15943e-13
2.90457e-09
-3.08287e-08
-1.02205e-13
5.88021e-10
-4.48489e-08
-3.6681e-15
-2.77144e-10
-4.43772e-08
-1.80412e-15
-6.68358e-14
-5.06953e-09
-2.03132e-16
-5.658e-17
-1.22243e-12
-5.22809e-20
-3.99205e-20
-6.18545e-16
-2.3151e-23
-7.10734e-27
-3.42361e-19
-1.26459e-26
-1.81576e-34
-6.14868e-26
-1.66743e-33
-1.21762e-43
-1.1783e-33
-3.65441e-41
-2.47233e-51
-7.04577e-43
-2.1155e-50
-1.29249e-57
-1.30877e-50
-3.67967e-58
-5.22732e-64
-6.13858e-57
-1.67626e-64
-1.78747e-78
-2.32009e-63
-5.92502e-71
-7.71142e-83
-7.27228e-78
-3.35628e-85
-9.74709e-88
-2.94726e-82
-1.6727e-89
-2.07732e-91
-3.49259e-87
-1.40618e-94
-2.03492e-94
-6.88926e-91
-8.78694e-99
-2.87164e-98
-6.34887e-94
-1.13509e-101
-4.6268e-102
-7.86996e-98
-1.34573e-105
-2.87523e-106
-1.22164e-101
-2.5872e-109
-6.897e-111
-6.30549e-106
-1.42875e-113
-1.09162e-115
-1.62491e-110
-3.35289e-118
-3.55419e-123
-2.63068e-115
-5.71092e-123
-2.5075e-130
-6.22541e-123
-1.27857e-130
-3.3204e-139
-4.14608e-130
-4.41298e-138
-4.28447e-153
-4.21405e-139
-1.22014e-146
-1.17082e-160
-7.55091e-153
-1.45599e-160
-1.61712e-165
-1.77964e-160
-3.68841e-168
-1.36642e-179
-1.94627e-165
-4.64555e-173
-4.30445e-180
-3.50133e-187
-1.19935e-12
-7.52989e-09
-2.0632e-15
1.35437e-11
-2.34811e-08
-2.06955e-15
-4.13106e-11
-3.33322e-08
-1.36999e-14
1.59996e-09
-2.53551e-08
2.10272e-14
5.86011e-09
-3.10166e-08
-1.06505e-14
1.48429e-08
-6.50844e-08
1.25659e-14
2.16442e-08
-1.14553e-07
-2.33776e-14
2.20155e-08
-1.49388e-07
-5.94968e-15
1.72046e-08
-1.54882e-07
-5.48026e-15
1.03037e-08
-1.29771e-07
-1.7096e-15
4.17137e-09
-8.20235e-08
-1.04628e-13
2.03292e-09
-2.86902e-08
-1.06004e-13
4.24951e-10
-4.32492e-08
3.72059e-15
-3.01219e-10
-4.28607e-08
-9.26502e-16
-1.1754e-13
-5.51866e-09
-1.99616e-16