/*--------------------------------*- C++ -*----------------------------------*\
| =========                 |                                                 |
| \\      /  F ield         | OpenFOAM: The Open Source CFD Toolbox           |
|  \\    /   O peration     | Version:  v2012                                 |
|   \\  /    A nd           | Website:  www.openfoam.com                      |
|    \\/     M anipulation  |                                                 |
\*---------------------------------------------------------------------------*/
FoamFile
{
    version     2.0;
    format      ascii;
    class       volVectorField;
    location    "0.5";
    object      U;
}
// * * * * * * * * * * * * * * * * * * * * * * * * * * * * * * * * * * * * * //

dimensions      [0 1 -1 0 0 0 0];


internalField   nonuniform List<vector> 
3338
(
(-0.0469613 -0.291616 0.000410377)
(-0.0378812 -0.0548962 0.000331081)
(-0.0132865 0.162085 0.000115816)
(-0.0100514 0.35821 8.75396e-05)
(-0.00763946 0.535819 6.67056e-05)
(-0.00671088 0.69381 5.85824e-05)
(-0.00607338 0.832374 5.30246e-05)
(-0.00554609 0.950749 4.84213e-05)
(-0.00504486 1.04826 4.4046e-05)
(-0.00454635 1.12412 3.96944e-05)
(-0.00404154 1.17747 3.52879e-05)
(-0.00352989 1.20731 3.08217e-05)
(-0.0030148 1.21247 2.63254e-05)
(-0.00250241 1.19158 2.18526e-05)
(-0.00200088 1.14307 1.74745e-05)
(-0.00152025 1.0651 1.32787e-05)
(-0.00107327 0.955602 9.37654e-06)
(-0.000674594 0.812189 5.89587e-06)
(-0.000344849 0.632227 3.01657e-06)
(-0.000104753 0.412752 9.20269e-07)
(6.04912e-06 0.150638 -3.44155e-08)
(-0.0508038 -0.295035 0.000443533)
(-0.0440554 -0.061264 0.000384706)
(-0.0317907 0.155705 0.000277652)
(-0.0267133 0.355999 0.000233314)
(-0.0223359 0.534817 0.000195056)
(-0.0199921 0.693343 0.000174543)
(-0.0181908 0.832055 0.00015882)
(-0.0166357 0.950468 0.000145243)
(-0.0151409 1.04797 0.000132193)
(-0.0136483 1.12383 0.000119165)
(-0.0121346 1.17716 0.000105951)
(-0.0105992 1.20699 9.25489e-05)
(-0.00905293 1.21213 7.90513e-05)
(-0.00751465 1.19124 6.5623e-05)
(-0.00600932 1.14273 5.24818e-05)
(-0.00456741 1.06478 3.98939e-05)
(-0.00322761 0.955308 2.81966e-05)
(-0.00203399 0.811934 1.77747e-05)
(-0.00104799 0.632027 9.16382e-06)
(-0.000329864 0.412627 2.89269e-06)
(9.73153e-06 0.150602 -3.63914e-08)
(-0.0573587 -0.296803 0.000500741)
(-0.0527324 -0.0642106 0.000460417)
(-0.0462543 0.153166 0.000403864)
(-0.0413274 0.354256 0.000360845)
(-0.0363625 0.533733 0.000317496)
(-0.0330278 0.692711 0.000288352)
(-0.0302208 0.831589 0.000263849)
(-0.0276947 0.950049 0.000241795)
(-0.0252297 1.04755 0.000220278)
(-0.0227532 1.12337 0.00019866)
(-0.0202348 1.17668 0.000176677)
(-0.0176771 1.20649 0.000154351)
(-0.0150999 1.21162 0.000131854)
(-0.0125356 1.19073 0.00010947)
(-0.0100267 1.14223 8.75677e-05)
(-0.00762469 1.06431 6.65974e-05)
(-0.00539444 0.954875 4.71253e-05)
(-0.00340947 0.811563 2.97931e-05)
(-0.00177104 0.63174 1.54835e-05)
(-0.000575904 0.412447 5.04605e-06)
(4.29887e-06 0.150549 4.18247e-08)
(-0.0655301 -0.297195 0.000572072)
(-0.0626133 -0.0648316 0.000546633)
(-0.0590234 0.152206 0.000515278)
(-0.0547357 0.352902 0.000477869)
(-0.0497564 0.532631 0.000434415)
(-0.0457645 0.691918 0.000399549)
(-0.0421232 0.830924 0.000367763)
(-0.0387005 0.94941 0.000337883)
(-0.0352996 1.04688 0.000308197)
(-0.0318546 1.12267 0.000278125)
(-0.0283386 1.17593 0.000247434)
(-0.0247615 1.2057 0.00021621)
(-0.0211543 1.21081 0.000184722)
(-0.0175643 1.18991 0.000153384)
(-0.014052 1.14144 0.000122722)
(-0.0106905 1.06356 9.33758e-05)
(-0.00757128 0.954191 6.6142e-05)
(-0.00479699 0.810977 4.19177e-05)
(-0.00250777 0.631286 2.19247e-05)
(-0.000834574 0.412161 7.3125e-06)
(-4.53926e-06 0.150458 1.58748e-07)
(-0.0748407 -0.296651 0.000653327)
(-0.0731776 -0.0644421 0.000638826)
(-0.0710701 0.152072 0.000620425)
(-0.0674225 0.35203 0.000588612)
(-0.062643 0.53169 0.000546906)
(-0.058219 0.691081 0.000508278)
(-0.0538882 0.830128 0.000470475)
(-0.049643 0.948595 0.000433418)
(-0.045344 1.04601 0.000395893)
(-0.040949 1.12172 0.000357529)
(-0.0364441 1.17492 0.000318206)
(-0.0318515 1.20464 0.000278117)
(-0.0272157 1.20973 0.000237651)
(-0.0226003 1.18883 0.000197361)
(-0.0180848 1.14037 0.000157942)
(-0.0137642 1.06255 0.000120223)
(-0.00975682 0.953273 8.52345e-05)
(-0.00619433 0.810191 5.4128e-05)
(-0.00325474 0.630675 2.84552e-05)
(-0.00110156 0.411774 9.65167e-06)
(-1.53837e-05 0.150331 2.9547e-07)
(-0.0850167 -0.295321 0.000742141)
(-0.084219 -0.0633512 0.000735194)
(-0.0828714 0.152541 0.000723437)
(-0.0797193 0.351625 0.000695951)
(-0.0751706 0.530967 0.000656262)
(-0.0704423 0.690264 0.000614987)
(-0.0655268 0.829243 0.000572083)
(-0.0605228 0.947628 0.000528404)
(-0.0553615 1.04495 0.000483353)
(-0.050035 1.12056 0.000436859)
(-0.0445504 1.17367 0.000388985)
(-0.0389465 1.20333 0.000340069)
(-0.0332837 1.20837 0.000290638)
(-0.0276432 1.18746 0.0002414)
(-0.0221246 1.13904 0.000193223)
(-0.0168452 1.06129 0.000147133)
(-0.01195 0.952128 0.000104394)
(-0.00759982 0.80921 6.64094e-05)
(-0.00400955 0.629913 3.50539e-05)
(-0.00137421 0.411287 1.20402e-05)
(-2.73731e-05 0.150166 4.43108e-07)
(-0.0958906 -0.293337 0.000837052)
(-0.095661 -0.0617193 0.000835065)
(-0.0946839 0.153476 0.000826549)
(-0.0918546 0.351628 0.000801881)
(-0.0874764 0.530471 0.000763682)
(-0.082498 0.6895 0.000720231)
(-0.0770633 0.828297 0.000672798)
(-0.0713484 0.946526 0.000622916)
(-0.0653548 1.0437 0.000570602)
(-0.0591136 1.11918 0.000516124)
(-0.0526579 1.17218 0.000459774)
(-0.0460465 1.20175 0.000402064)
(-0.0393582 1.20675 0.000343681)
(-0.0326931 1.18583 0.000285498)
(-0.0261712 1.13745 0.000228564)
(-0.0199328 1.05978 0.000174101)
(-0.01415 0.950756 0.000123613)
(-0.00901201 0.808035 7.87492e-05)
(-0.00477028 0.628998 4.17042e-05)
(-0.00165058 0.4107 1.44613e-05)
(-3.98847e-05 0.149964 5.95998e-07)
(-0.107365 -0.29081 0.000937211)
(-0.107482 -0.0596667 0.000938248)
(-0.106648 0.154772 0.000930986)
(-0.10398 0.351971 0.000907727)
(-0.099675 0.530185 0.000870169)
(-0.0944508 0.688801 0.000824577)
(-0.0885287 0.827307 0.000772892)
(-0.0821341 0.945302 0.00071708)
(-0.0753304 1.04227 0.000657696)
(-0.0681876 1.11758 0.000595349)
(-0.060768 1.17044 0.000530586)
(-0.0531523 1.19991 0.000464109)
(-0.0454396 1.20485 0.000396784)
(-0.0377498 1.18393 0.000329657)
(-0.0302243 1.13559 0.000263961)
(-0.0230267 1.05802 0.000201124)
(-0.0163559 0.949156 0.000142883)
(-0.0104297 0.806664 9.11369e-05)
(-0.00553543 0.627931 4.83932e-05)
(-0.00192937 0.410012 1.69034e-05)
(-5.25763e-05 0.149724 7.5091e-07)
(-0.119386 -0.28783 0.00104213)
(-0.119681 -0.0572746 0.00104473)
(-0.118843 0.156354 0.00103744)
(-0.116197 0.352592 0.00101437)
(-0.111858 0.530082 0.000976518)
(-0.106361 0.688166 0.000928547)
(-0.0999565 0.826279 0.000872658)
(-0.0928975 0.943963 0.000811049)
(-0.0852972 1.04067 0.000744713)
(-0.0772618 1.11577 0.000674576)
(-0.068883 1.16847 0.00060144)
(-0.0602651 1.19782 0.000526216)
(-0.0515283 1.20269 0.000449951)
(-0.0428134 1.18176 0.000373876)
(-0.0342838 1.13346 0.000299414)
(-0.0261262 1.056 0.000228197)
(-0.0185669 0.947329 0.000162198)
(-0.0118518 0.805099 0.000103563)
(-0.00630382 0.626711 5.51105e-05)
(-0.0022096 0.409223 1.93583e-05)
(-6.52354e-05 0.149445 9.05783e-07)
(-0.131921 -0.284462 0.00115155)
(-0.132264 -0.0545989 0.00115458)
(-0.131317 0.15817 0.00114634)
(-0.128574 0.353437 0.00112241)
(-0.124095 0.530129 0.00108335)
(-0.11828 0.687585 0.0010326)
(-0.11138 0.825214 0.000972384)
(-0.103658 0.942512 0.000904991)
(-0.095266 1.03891 0.000831747)
(-0.086342 1.11375 0.000753854)
(-0.0770061 1.16625 0.000672365)
(-0.0673865 1.19547 0.000588397)
(-0.0576252 1.20026 0.00050319)
(-0.0478844 1.17931 0.000418159)
(-0.0383496 1.13107 0.000334922)
(-0.0292312 1.05374 0.000255317)
(-0.0207825 0.945273 0.000181553)
(-0.0132776 0.803338 0.000116022)
(-0.00707457 0.625337 6.18484e-05)
(-0.00249062 0.408332 2.18201e-05)
(-7.77521e-05 0.149128 1.05949e-06)
(-0.144953 -0.280759 0.00126532)
(-0.14524 -0.0516812 0.00126786)
(-0.1441 0.160179 0.00125792)
(-0.141157 0.354458 0.00123226)
(-0.136442 0.530294 0.00119113)
(-0.130252 0.687042 0.00113712)
(-0.122829 0.824106 0.00107234)
(-0.114434 0.94095 0.000999074)
(-0.105248 1.03698 0.000918898)
(-0.0954347 1.11153 0.000833243)
(-0.085141 1.1638 0.000743394)
(-0.0745185 1.19285 0.000650672)
(-0.0637312 1.19756 0.000556509)
(-0.052963 1.17659 0.000462508)
(-0.0424216 1.12841 0.000370484)
(-0.0323413 1.05122 0.000282481)
(-0.0230022 0.942989 0.000200943)
(-0.0147062 0.801381 0.000128506)
(-0.00784699 0.623809 6.8601e-05)
(-0.002772 0.407339 2.4285e-05)
(-9.00748e-05 0.148773 1.2115e-06)
(-0.158474 -0.276762 0.00138335)
(-0.158617 -0.0485549 0.00138463)
(-0.15721 0.162347 0.00137237)
(-0.153979 0.355617 0.00134419)
(-0.148938 0.530546 0.00130022)
(-0.142314 0.686519 0.00124242)
(-0.134331 0.822947 0.00117276)
(-0.125245 0.939271 0.00109346)
(-0.115255 1.03488 0.00100627)
(-0.104547 1.10909 0.000912801)
(-0.0932917 1.16111 0.00081456)
(-0.0816634 1.18998 0.000713058)
(-0.0698475 1.19459 0.000609917)
(-0.0580497 1.1736 0.000506929)
(-0.0464999 1.12549 0.000406102)
(-0.0354562 1.04846 0.000309688)
(-0.0252254 0.940477 0.000220364)
(-0.0161374 0.799228 0.000141011)
(-0.00862059 0.622127 7.53638e-05)
(-0.00305344 0.406244 2.67505e-05)
(-0.000102187 0.148379 1.36159e-06)
(-0.172479 -0.272505 0.00150561)
(-0.1724 -0.0452479 0.00150495)
(-0.170661 0.164645 0.00148979)
(-0.167063 0.356878 0.00145841)
(-0.161615 0.530856 0.00141088)
(-0.154495 0.685995 0.00134876)
(-0.145911 0.821724 0.00127384)
(-0.136108 0.93747 0.00118829)
(-0.125298 1.03261 0.00109395)
(-0.113685 1.10645 0.000992588)
(-0.101462 1.15818 0.000885899)
(-0.0888232 1.18685 0.000775575)
(-0.0759752 1.19134 0.000663424)
(-0.0631449 1.17034 0.000551423)
(-0.0505846 1.1223 0.000441774)
(-0.0385756 1.04544 0.000336934)
(-0.0274518 0.937736 0.000239814)
(-0.0175704 0.796878 0.000153533)
(-0.00939501 0.62029 8.21338e-05)
(-0.00333478 0.405046 2.9215e-05)
(-0.000114092 0.147946 1.50979e-06)
(-0.186967 -0.268017 0.00163207)
(-0.186595 -0.0417847 0.00162886)
(-0.184461 0.167048 0.00161026)
(-0.180424 0.358211 0.00157505)
(-0.174494 0.531195 0.00152332)
(-0.166817 0.685449 0.00145633)
(-0.157586 0.820423 0.00137577)
(-0.147036 0.935537 0.0012837)
(-0.135387 1.03016 0.00118203)
(-0.122856 1.10358 0.00107266)
(-0.109656 1.155 0.000957444)
(-0.0960003 1.18346 0.000838243)
(-0.0821153 1.18783 0.000717041)
(-0.068249 1.1668 0.000595996)
(-0.0546755 1.11884 0.000477502)
(-0.0416995 1.04217 0.000364219)
(-0.0296811 0.934766 0.000259288)
(-0.0190051 0.794332 0.000166069)
(-0.01017 0.618298 8.89086e-05)
(-0.00361591 0.403746 3.16778e-05)
(-0.000125806 0.147476 1.65622e-06)
(-0.201936 -0.263323 0.00176275)
(-0.201205 -0.038188 0.0017564)
(-0.198617 0.169533 0.00173384)
(-0.194074 0.359589 0.00169422)
(-0.187593 0.531538 0.00163767)
(-0.179299 0.684862 0.0015653)
(-0.169374 0.81903 0.00147869)
(-0.158042 0.933464 0.00137979)
(-0.14553 1.02752 0.00127059)
(-0.132066 1.1005 0.00115307)
(-0.117878 1.15158 0.00102923)
(-0.103197 1.1798 0.000901079)
(-0.0882688 1.18404 0.000770774)
(-0.0733623 1.16299 0.000640649)
(-0.0587727 1.11511 0.000513284)
(-0.0448274 1.03864 0.000391539)
(-0.0319129 0.931567 0.000278785)
(-0.0204411 0.791589 0.000178617)
(-0.0109453 0.616152 9.56863e-05)
(-0.00389678 0.402343 3.41383e-05)
(-0.000137352 0.146966 1.80108e-06)
(-0.217386 -0.258448 0.00189763)
(-0.216233 -0.0344792 0.00188759)
(-0.213132 0.172076 0.00186055)
(-0.20802 0.360987 0.00181596)
(-0.200922 0.531862 0.00175404)
(-0.191954 0.684212 0.00167578)
(-0.181286 0.817529 0.00158269)
(-0.169137 0.93124 0.00147666)
(-0.155736 1.0247 0.00135969)
(-0.141319 1.0972 0.00123386)
(-0.126129 1.14791 0.00110128)
(-0.110414 1.17588 0.000964096)
(-0.0944364 1.17998 0.00082463)
(-0.078485 1.1589 0.000685384)
(-0.0628759 1.11112 0.00054912)
(-0.0479591 1.03487 0.000418893)
(-0.0341469 0.928137 0.000298301)
(-0.0218781 0.788648 0.000191173)
(-0.0117207 0.61385 0.000102466)
(-0.00417737 0.400837 3.65963e-05)
(-0.000148754 0.146419 1.94458e-06)
(-0.233319 -0.253413 0.00203671)
(-0.23168 -0.0306791 0.00202245)
(-0.228007 0.174657 0.00199042)
(-0.222265 0.362383 0.00194033)
(-0.21449 0.532144 0.00187248)
(-0.20479 0.68348 0.00178785)
(-0.193333 0.815906 0.00168786)
(-0.180329 0.928851 0.00157436)
(-0.16601 1.02168 0.00144939)
(-0.15062 1.09366 0.00131507)
(-0.134414 1.14399 0.00117361)
(-0.117653 1.17169 0.00102731)
(-0.100619 1.17564 0.000878615)
(-0.0836171 1.15454 0.000730201)
(-0.066985 1.10685 0.000585006)
(-0.0510943 1.03083 0.000446277)
(-0.0363827 0.924477 0.000317832)
(-0.0233159 0.78551 0.000203737)
(-0.0124963 0.611392 0.000109245)
(-0.00445767 0.399228 3.90519e-05)
(-0.000160036 0.145833 2.08695e-06)
(-0.249732 -0.248242 0.00217999)
(-0.247546 -0.0268083 0.00216095)
(-0.243243 0.177255 0.00212342)
(-0.236812 0.363753 0.00206732)
(-0.228299 0.532362 0.00199304)
(-0.217815 0.682647 0.00190155)
(-0.205519 0.814143 0.00179425)
(-0.191622 0.926288 0.00167296)
(-0.176356 1.01844 0.00153972)
(-0.159971 1.08989 0.00139671)
(-0.142732 1.13981 0.00124624)
(-0.124915 1.16723 0.00109072)
(-0.106816 1.17102 0.000932728)
(-0.0887584 1.14989 0.000775098)
(-0.0710995 1.10232 0.000620939)
(-0.0542325 1.02655 0.000473687)
(-0.03862 0.920587 0.000337377)
(-0.0247541 0.782174 0.000216304)
(-0.0132717 0.608779 0.000116024)
(-0.00473769 0.397517 4.15049e-05)
(-0.000171223 0.145209 2.2284e-06)
(-0.266624 -0.242954 0.00232746)
(-0.263828 -0.0228874 0.0023031)
(-0.258837 0.179851 0.00225956)
(-0.251659 0.365077 0.00219694)
(-0.242352 0.532497 0.00211573)
(-0.231029 0.681695 0.00201692)
(-0.21785 0.812226 0.0019019)
(-0.203021 0.923537 0.00177249)
(-0.186778 1.01499 0.00163072)
(-0.169375 1.08588 0.00147882)
(-0.151086 1.13536 0.00131918)
(-0.1322 1.16249 0.00115433)
(-0.113027 1.16612 0.000986968)
(-0.0939084 1.14497 0.000820071)
(-0.0752189 1.09751 0.000656915)
(-0.0573731 1.022 0.000501118)
(-0.0408583 0.916465 0.00035693)
(-0.0261925 0.77864 0.000228873)
(-0.0140469 0.606011 0.000122801)
(-0.00501741 0.395703 4.39554e-05)
(-0.000182334 0.144548 2.36911e-06)
(-0.283993 -0.237574 0.00247908)
(-0.280524 -0.0189373 0.00244885)
(-0.274785 0.182422 0.00239879)
(-0.266803 0.366336 0.00232915)
(-0.256647 0.532528 0.00224052)
(-0.244434 0.680606 0.00213395)
(-0.230326 0.81014 0.00201082)
(-0.214527 0.920587 0.00187294)
(-0.197276 1.01132 0.00172237)
(-0.178832 1.08162 0.00156138)
(-0.159476 1.13065 0.00139244)
(-0.139508 1.15747 0.00121814)
(-0.119253 1.16094 0.00104133)
(-0.0990662 1.13976 0.000865114)
(-0.0793423 1.09243 0.000692927)
(-0.0605154 1.0172 0.000528564)
(-0.043097 0.912112 0.000376487)
(-0.0276308 0.774907 0.00024144)
(-0.0148218 0.603086 0.000129575)
(-0.00529684 0.393786 4.64033e-05)
(-0.000193388 0.143848 2.50926e-06)
(-0.301833 -0.232124 0.00263483)
(-0.297628 -0.0149792 0.00259817)
(-0.291082 0.18495 0.00254106)
(-0.282239 0.367508 0.00246391)
(-0.271179 0.532438 0.0023674)
(-0.258027 0.679363 0.00225262)
(-0.242945 0.807869 0.002121)
(-0.22614 0.917425 0.00197433)
(-0.20785 1.00741 0.0018147)
(-0.18834 1.0771 0.00164441)
(-0.1679 1.12567 0.00146599)
(-0.146838 1.15217 0.00128214)
(-0.125491 1.15547 0.0010958)
(-0.104231 1.13428 0.000910215)
(-0.0834687 1.08708 0.000728965)
(-0.0636586 1.01215 0.000556018)
(-0.0453356 0.907527 0.000396042)
(-0.0290684 0.770977 0.000254003)
(-0.0155961 0.600006 0.000136344)
(-0.00557595 0.391766 4.88484e-05)
(-0.000204402 0.14311 2.64899e-06)
(-0.320138 -0.226626 0.00279463)
(-0.315132 -0.011035 0.00275098)
(-0.307719 0.187414 0.00268631)
(-0.297959 0.368574 0.00260115)
(-0.285944 0.532206 0.00249629)
(-0.271803 0.677949 0.00237289)
(-0.255705 0.8054 0.0022324)
(-0.237856 0.914039 0.00207662)
(-0.218498 1.00325 0.00190767)
(-0.1979 1.07232 0.00172787)
(-0.176357 1.12041 0.00153984)
(-0.154187 1.14659 0.00134632)
(-0.13174 1.14972 0.00115037)
(-0.109401 1.1285 0.000955365)
(-0.0875971 1.08145 0.00076502)
(-0.0668018 1.00684 0.000583472)
(-0.0475733 0.90271 0.00041559)
(-0.0305052 0.766848 0.000266557)
(-0.0163696 0.59677 0.000143107)
(-0.0058547 0.389644 5.12904e-05)
(-0.000215387 0.142334 2.7884e-06)
(-0.338898 -0.221106 0.0029584)
(-0.333026 -0.0071269 0.00290719)
(-0.324686 0.189792 0.00283443)
(-0.313954 0.369515 0.00274079)
(-0.300931 0.531816 0.00262714)
(-0.285756 0.676347 0.00249471)
(-0.2686 0.802718 0.00234498)
(-0.249672 0.910418 0.00217978)
(-0.229217 0.998834 0.00200125)
(-0.207507 1.06726 0.00181176)
(-0.184845 1.11487 0.00161394)
(-0.161555 1.14072 0.00141065)
(-0.137999 1.14367 0.00120503)
(-0.114575 1.12244 0.00100055)
(-0.0917258 1.07555 0.000801078)
(-0.0699438 1.00127 0.000610916)
(-0.0498093 0.897662 0.000435124)
(-0.0319404 0.76252 0.000279098)
(-0.0171422 0.593379 0.00014986)
(-0.00613303 0.387419 5.37287e-05)
(-0.000226353 0.14152 2.92759e-06)
(-0.358103 -0.215587 0.00312606)
(-0.351297 -0.00327751 0.0030667)
(-0.341971 0.192064 0.00298534)
(-0.330212 0.370312 0.00288272)
(-0.316131 0.53125 0.00275985)
(-0.299876 0.674542 0.00261799)
(-0.281622 0.79981 0.00245867)
(-0.261581 0.90655 0.00228376)
(-0.240002 0.994157 0.00209541)
(-0.217159 1.06193 0.00189602)
(-0.19336 1.10904 0.00168829)
(-0.168938 1.13455 0.00147512)
(-0.144264 1.13733 0.00125974)
(-0.11975 1.1161 0.00104574)
(-0.0958532 1.06937 0.000837124)
(-0.0730833 0.995441 0.000638337)
(-0.0520427 0.892381 0.000454634)
(-0.0333735 0.757994 0.000291621)
(-0.0179135 0.589832 0.000156603)
(-0.00641088 0.385092 5.61628e-05)
(-0.000237308 0.140668 3.0666e-06)
(-0.377736 -0.210097 0.00329746)
(-0.369931 0.000489997 0.00322938)
(-0.359559 0.19421 0.00313888)
(-0.346719 0.370945 0.00302683)
(-0.331532 0.530491 0.0028943)
(-0.314153 0.672519 0.00274263)
(-0.294763 0.796663 0.0025734)
(-0.273577 0.902426 0.0023885)
(-0.250846 0.989208 0.00219009)
(-0.226848 1.05631 0.00198063)
(-0.201897 1.10292 0.00176283)
(-0.176332 1.12809 0.00153968)
(-0.150533 1.13069 0.00131448)
(-0.124924 1.10946 0.00109093)
(-0.0999772 1.06291 0.000873141)
(-0.0762187 0.989357 0.000665723)
(-0.0542725 0.886869 0.000474113)
(-0.034804 0.753271 0.00030412)
(-0.0186832 0.586131 0.000163332)
(-0.00668816 0.382663 5.85918e-05)
(-0.000248257 0.139778 3.20547e-06)
(-0.397781 -0.20466 0.00347245)
(-0.38891 0.00415214 0.00339507)
(-0.377433 0.196208 0.00329492)
(-0.363458 0.371397 0.00317297)
(-0.347118 0.529521 0.00303037)
(-0.328574 0.670264 0.00286853)
(-0.308012 0.793264 0.00268907)
(-0.28565 0.898033 0.0024939)
(-0.261742 0.983979 0.00228523)
(-0.23657 1.05041 0.00206551)
(-0.210451 1.0965 0.00183753)
(-0.183733 1.12132 0.0016043)
(-0.156803 1.12376 0.00136923)
(-0.130095 1.10253 0.00113608)
(-0.104096 1.05618 0.00090911)
(-0.0793485 0.983014 0.00069306)
(-0.0564974 0.881125 0.00049355)
(-0.036231 0.74835 0.00031659)
(-0.019451 0.582274 0.000170045)
(-0.00696475 0.380131 6.10148e-05)
(-0.000259203 0.138851 3.34421e-06)
(-0.418215 -0.199304 0.00365084)
(-0.408213 0.00768524 0.00356359)
(-0.395571 0.198038 0.00345328)
(-0.380411 0.371648 0.00332098)
(-0.362872 0.528326 0.00316792)
(-0.343124 0.667761 0.00299556)
(-0.321355 0.789602 0.00280557)
(-0.297789 0.893364 0.00259988)
(-0.272681 0.978461 0.00238074)
(-0.246316 1.04421 0.00215061)
(-0.219017 1.08978 0.00191232)
(-0.191136 1.11426 0.00166894)
(-0.163068 1.11653 0.00142393)
(-0.135258 1.09532 0.00118117)
(-0.108206 1.04917 0.000945009)
(-0.0824707 0.976413 0.000720331)
(-0.0587162 0.875149 0.000512933)
(-0.0376538 0.743231 0.000329022)
(-0.0202164 0.578263 0.000176736)
(-0.00724052 0.377498 6.34307e-05)
(-0.000270144 0.137886 3.48279e-06)
(-0.439013 -0.194057 0.00383241)
(-0.427814 0.0110655 0.00373471)
(-0.413952 0.199678 0.00361375)
(-0.397557 0.371681 0.00347067)
(-0.378776 0.526889 0.00330677)
(-0.357786 0.664999 0.00312357)
(-0.334779 0.785664 0.00292277)
(-0.309982 0.888408 0.00270634)
(-0.283653 0.972648 0.00247653)
(-0.25608 1.0377 0.00223586)
(-0.227588 1.08276 0.00198716)
(-0.198535 1.10689 0.00173355)
(-0.169325 1.10899 0.00147857)
(-0.140411 1.08781 0.00122617)
(-0.112306 1.04188 0.000980813)
(-0.0855833 0.969556 0.000747518)
(-0.0609275 0.868943 0.000532251)
(-0.0390714 0.737916 0.00034141)
(-0.0209791 0.574098 0.000183403)
(-0.00751534 0.374764 6.58382e-05)
(-0.00028108 0.136884 3.62119e-06)
(-0.460147 -0.188945 0.00401692)
(-0.447688 0.0142694 0.00390821)
(-0.43255 0.201109 0.00377611)
(-0.414872 0.371478 0.00362184)
(-0.394809 0.525197 0.00344674)
(-0.372542 0.661965 0.0032524)
(-0.348269 0.781442 0.00304054)
(-0.322216 0.883156 0.00281316)
(-0.294647 0.966532 0.00257252)
(-0.26585 1.03089 0.00232117)
(-0.236155 1.07543 0.00206197)
(-0.205925 1.09921 0.00179808)
(-0.175568 1.10116 0.00153309)
(-0.145549 1.08001 0.00127104)
(-0.116392 1.03432 0.0010165)
(-0.0886842 0.962441 0.000774602)
(-0.0631298 0.862507 0.00055149)
(-0.0404831 0.732405 0.000353745)
(-0.0217384 0.56978 0.000190042)
(-0.00778902 0.371929 6.82358e-05)
(-0.000292008 0.135844 3.75935e-06)
(-0.481584 -0.183996 0.00420406)
(-0.467802 0.0172735 0.00408382)
(-0.451336 0.202311 0.00394012)
(-0.43233 0.371023 0.00377426)
(-0.410947 0.523233 0.00358764)
(-0.387372 0.658646 0.00338188)
(-0.361805 0.776925 0.00315873)
(-0.334477 0.877603 0.00292021)
(-0.30565 0.960108 0.0026686)
(-0.275618 1.02377 0.00240645)
(-0.244712 1.06778 0.00213667)
(-0.213298 1.09123 0.00186246)
(-0.181793 1.09302 0.00158745)
(-0.150669 1.07192 0.00131575)
(-0.120461 1.02648 0.00105203)
(-0.0917709 0.95507 0.000801563)
(-0.0653214 0.855841 0.000570635)
(-0.0418877 0.726699 0.000366019)
(-0.022494 0.565309 0.000196647)
(-0.0080614 0.368993 7.06219e-05)
(-0.000302921 0.134767 3.8972e-06)
(-0.503285 -0.179237 0.00439352)
(-0.488122 0.0200553 0.00426122)
(-0.470278 0.203265 0.0041055)
(-0.449905 0.3703 0.00392769)
(-0.427167 0.520987 0.00372925)
(-0.402255 0.655032 0.00351182)
(-0.375371 0.772104 0.00327717)
(-0.346748 0.87174 0.00302735)
(-0.31665 0.953372 0.00276464)
(-0.285372 1.01633 0.00249162)
(-0.253248 1.05983 0.00221121)
(-0.220647 1.08294 0.00192663)
(-0.187993 1.08458 0.00164159)
(-0.155765 1.06353 0.00136025)
(-0.124509 1.01836 0.00108739)
(-0.0948409 0.947443 0.000828377)
(-0.0675006 0.848947 0.000589672)
(-0.0432841 0.720799 0.000378221)
(-0.0232452 0.560687 0.000203214)
(-0.00833227 0.365958 7.29949e-05)
(-0.000313813 0.133653 4.03464e-06)
(-0.525211 -0.174694 0.00458493)
(-0.508612 0.0225927 0.0044401)
(-0.489344 0.203953 0.00427195)
(-0.467564 0.369294 0.00408187)
(-0.443441 0.518444 0.00387133)
(-0.417166 0.651114 0.00364201)
(-0.388946 0.766972 0.0033957)
(-0.359013 0.865561 0.00313443)
(-0.327632 0.946317 0.00286053)
(-0.2951 1.00858 0.00257656)
(-0.261754 1.05155 0.00228548)
(-0.227965 1.07433 0.00199053)
(-0.194162 1.07584 0.00169546)
(-0.160833 1.05486 0.00140451)
(-0.128533 1.00997 0.00112253)
(-0.0978915 0.939563 0.000855023)
(-0.0696656 0.841826 0.000608585)
(-0.0446713 0.714706 0.000390342)
(-0.0239914 0.555913 0.000209737)
(-0.00860143 0.362823 7.53528e-05)
(-0.000324677 0.132502 4.17157e-06)
(-0.547314 -0.170393 0.0047779)
(-0.529229 0.0248652 0.0046201)
(-0.508496 0.204357 0.00443916)
(-0.485276 0.367991 0.0042365)
(-0.45974 0.515595 0.00401363)
(-0.432083 0.646882 0.00377224)
(-0.402509 0.761522 0.00351411)
(-0.371253 0.859061 0.0032413)
(-0.338582 0.938941 0.00295613)
(-0.304791 1.0005 0.00266117)
(-0.27022 1.04296 0.0023594)
(-0.235243 1.06541 0.00205409)
(-0.200294 1.0668 0.00174901)
(-0.165868 1.04589 0.00144848)
(-0.132529 1.0013 0.00115744)
(-0.10092 0.93143 0.000881475)
(-0.0718143 0.83448 0.000627356)
(-0.0460479 0.708421 0.000402371)
(-0.0247319 0.55099 0.000216211)
(-0.00886863 0.35959 7.76936e-05)
(-0.000335502 0.131315 4.30788e-06)
(-0.569547 -0.166358 0.004972)
(-0.549929 0.0268533 0.00480082)
(-0.527696 0.204463 0.00460678)
(-0.503007 0.36638 0.0043913)
(-0.476036 0.51243 0.0041559)
(-0.446977 0.642328 0.00390228)
(-0.416038 0.755748 0.00363223)
(-0.383451 0.852237 0.0033478)
(-0.349483 0.931241 0.00305131)
(-0.314431 0.992105 0.00274535)
(-0.278635 1.03405 0.00243288)
(-0.242473 1.05619 0.00211722)
(-0.206382 1.05745 0.00180217)
(-0.170864 1.03664 0.00149211)
(-0.136493 0.992362 0.00119206)
(-0.103923 0.923046 0.000907707)
(-0.0739448 0.82691 0.000645968)
(-0.0474127 0.701947 0.000414297)
(-0.0254662 0.545919 0.00022263)
(-0.00913365 0.356259 8.00152e-05)
(-0.000346279 0.130091 4.44344e-06)
(-0.591855 -0.16261 0.00516675)
(-0.570666 0.0285396 0.00498187)
(-0.546901 0.204257 0.00477445)
(-0.520719 0.364448 0.00454594)
(-0.492295 0.50894 0.00429786)
(-0.461824 0.637447 0.0040319)
(-0.42951 0.749645 0.00374985)
(-0.395586 0.845085 0.00345375)
(-0.36032 0.923215 0.00314593)
(-0.324007 0.983386 0.00282895)
(-0.286989 1.02483 0.00250582)
(-0.249646 1.04665 0.00217985)
(-0.212419 1.0478 0.00185489)
(-0.175817 1.02709 0.00153536)
(-0.140421 0.983152 0.00122636)
(-0.106898 0.914413 0.000933693)
(-0.076055 0.819118 0.000664402)
(-0.0487645 0.695283 0.000426109)
(-0.0261935 0.5407 0.000228988)
(-0.00939623 0.352831 8.23155e-05)
(-0.000356996 0.128832 4.57811e-06)
(-0.614181 -0.159169 0.00536168)
(-0.59139 0.0299085 0.00516279)
(-0.566067 0.203726 0.00494179)
(-0.538376 0.362188 0.00470009)
(-0.508486 0.505119 0.00443922)
(-0.476593 0.632234 0.00416085)
(-0.4429 0.743211 0.00386676)
(-0.407639 0.837602 0.00355899)
(-0.371075 0.914861 0.00323983)
(-0.333504 0.974343 0.00291188)
(-0.295269 1.01528 0.00257813)
(-0.256752 1.0368 0.0022419)
(-0.218398 1.03786 0.00190709)
(-0.180719 1.01727 0.00157817)
(-0.144308 0.973674 0.00126031)
(-0.109842 0.905533 0.000959404)
(-0.0781427 0.811106 0.000682639)
(-0.0501018 0.688434 0.000437794)
(-0.026913 0.535336 0.000235279)
(-0.00965612 0.349307 8.45922e-05)
(-0.000367642 0.127536 4.71175e-06)
(-0.636467 -0.156054 0.00555624)
(-0.612047 0.0309466 0.00534314)
(-0.585151 0.202861 0.0051084)
(-0.555937 0.359591 0.00485341)
(-0.524575 0.50096 0.00457968)
(-0.491257 0.626685 0.00428888)
(-0.456185 0.736443 0.00398275)
(-0.419588 0.829789 0.00366331)
(-0.381731 0.906181 0.00333287)
(-0.342909 0.964979 0.002994)
(-0.303465 1.00543 0.00264969)
(-0.263783 1.02665 0.00230329)
(-0.22431 1.02761 0.00195872)
(-0.185566 1.00716 0.0016205)
(-0.148151 0.963931 0.00129386)
(-0.112751 0.896409 0.000984814)
(-0.0802056 0.802877 0.000700661)
(-0.0514232 0.6814 0.000449341)
(-0.0276242 0.529828 0.000241496)
(-0.00991304 0.345688 8.68429e-05)
(-0.000378204 0.126206 4.8442e-06)
(-0.658649 -0.153277 0.0057499)
(-0.632585 0.0316433 0.00552244)
(-0.604104 0.201654 0.00527386)
(-0.573362 0.356652 0.00500555)
(-0.540526 0.496462 0.00471895)
(-0.505785 0.620799 0.00441572)
(-0.469338 0.72934 0.00409759)
(-0.431412 0.821645 0.00376655)
(-0.39227 0.897175 0.00342489)
(-0.352207 0.955295 0.00307518)
(-0.311564 0.995255 0.00272041)
(-0.270727 1.01619 0.00236394)
(-0.230148 1.01708 0.00200971)
(-0.190351 0.996766 0.00166229)
(-0.151943 0.953925 0.00132699)
(-0.115622 0.887044 0.00100989)
(-0.0822415 0.794433 0.000718446)
(-0.0527274 0.674184 0.000460737)
(-0.0283261 0.524178 0.000247632)
(-0.0101667 0.341976 8.90653e-05)
(-0.000388668 0.124841 4.9753e-06)
(-0.680663 -0.150851 0.00594208)
(-0.652946 0.0319905 0.0057002)
(-0.622878 0.200099 0.00543777)
(-0.59061 0.353369 0.00515613)
(-0.556305 0.491622 0.00485671)
(-0.520148 0.614574 0.00454112)
(-0.482335 0.721903 0.00421107)
(-0.44309 0.813171 0.00386852)
(-0.402675 0.887844 0.00351574)
(-0.361382 0.945293 0.00315529)
(-0.319554 0.984773 0.00279017)
(-0.277577 1.00543 0.00242375)
(-0.235905 1.00625 0.00205998)
(-0.195068 0.986099 0.00170348)
(-0.155681 0.943659 0.00135963)
(-0.118452 0.877441 0.00103461)
(-0.0842481 0.785778 0.000735976)
(-0.0540129 0.666789 0.00047197)
(-0.029018 0.518387 0.000253681)
(-0.0104169 0.338172 9.12568e-05)
(-0.000399022 0.123441 5.1049e-06)
(-0.702441 -0.148783 0.00613222)
(-0.673073 0.0319834 0.00587593)
(-0.641424 0.198194 0.00559969)
(-0.607638 0.34974 0.0053048)
(-0.571875 0.486441 0.00499264)
(-0.534315 0.608012 0.00466481)
(-0.495149 0.714134 0.00432295)
(-0.4546 0.804371 0.00396901)
(-0.412927 0.878193 0.00360526)
(-0.37042 0.934976 0.00323421)
(-0.327423 0.973985 0.00285888)
(-0.284321 0.994371 0.00248264)
(-0.241573 0.99514 0.00210947)
(-0.199712 0.97516 0.00174404)
(-0.159361 0.933138 0.00139177)
(-0.121237 0.867604 0.00105894)
(-0.0862231 0.776914 0.000753229)
(-0.0552782 0.659217 0.000483026)
(-0.0296992 0.512458 0.000259636)
(-0.0106633 0.334276 9.3415e-05)
(-0.000409251 0.122008 5.23283e-06)
(-0.723917 -0.147078 0.00631971)
(-0.692909 0.03162 0.00604911)
(-0.659692 0.195938 0.00575919)
(-0.624405 0.345765 0.00545119)
(-0.5872 0.480919 0.00512645)
(-0.548254 0.601116 0.00478651)
(-0.507755 0.706037 0.00443301)
(-0.465921 0.795248 0.00406786)
(-0.423008 0.868225 0.00369328)
(-0.379307 0.92435 0.0033118)
(-0.335158 0.962895 0.00292643)
(-0.290951 0.983021 0.00254052)
(-0.247143 0.983746 0.00215811)
(-0.204276 0.963953 0.00178389)
(-0.162977 0.922366 0.00142335)
(-0.123975 0.857536 0.00108285)
(-0.088164 0.767845 0.000770185)
(-0.0565218 0.651471 0.000493893)
(-0.0303688 0.506394 0.00026549)
(-0.0109055 0.330291 9.55374e-05)
(-0.000419343 0.120541 5.35893e-06)
(-0.745022 -0.145735 0.00650397)
(-0.712396 0.0309019 0.00621924)
(-0.677634 0.193334 0.00591583)
(-0.640868 0.341449 0.00559492)
(-0.602245 0.475063 0.0052578)
(-0.561937 0.593891 0.00490597)
(-0.520128 0.697616 0.00454103)
(-0.477031 0.785807 0.00416486)
(-0.432901 0.857945 0.00377966)
(-0.388026 0.913418 0.00338794)
(-0.342748 0.951507 0.0029927)
(-0.297455 0.971382 0.00259732)
(-0.252609 0.972075 0.00220584)
(-0.208753 0.952483 0.00182299)
(-0.166525 0.911347 0.00145434)
(-0.12666 0.847242 0.0011063)
(-0.0900687 0.758574 0.000786823)
(-0.0577423 0.643554 0.000504558)
(-0.0310262 0.500196 0.000271236)
(-0.0111434 0.326218 9.76215e-05)
(-0.000429283 0.119041 5.48304e-06)
(-0.765689 -0.14475 0.0066844)
(-0.731477 0.0298335 0.00638582)
(-0.6952 0.190388 0.00606919)
(-0.656985 0.336798 0.00573563)
(-0.616973 0.468877 0.00538639)
(-0.575333 0.586342 0.00502293)
(-0.53224 0.688877 0.00464679)
(-0.487908 0.776054 0.00425983)
(-0.442587 0.847359 0.00386423)
(-0.396564 0.902188 0.00346249)