/*--------------------------------*- C++ -*----------------------------------*\
| =========                 |                                                 |
| \\      /  F ield         | OpenFOAM: The Open Source CFD Toolbox           |
|  \\    /   O peration     | Version:  v2012                                 |
|   \\  /    A nd           | Website:  www.openfoam.com                      |
|    \\/     M anipulation  |                                                 |
\*---------------------------------------------------------------------------*/
FoamFile
{
    version     2.0;
    format      ascii;
    class       surfaceScalarField;
    location    "0.95";
    object      phi;
}
// * * * * * * * * * * * * * * * * * * * * * * * * * * * * * * * * * * * * * //

dimensions      [0 3 -1 0 0 0 0];
oriented        oriented;


internalField   nonuniform List<scalar> 
8162
(
-1.31268e-08
-1.12155e-07
-3.56471e-15
-1.47056e-08
-1.14453e-07
-3.20992e-15
-1.62784e-08
-1.16319e-07
-3.15425e-15
-1.78376e-08
-1.17653e-07
-3.05661e-15
-1.93762e-08
-1.18413e-07
-2.96918e-15
-2.08876e-08
-1.18538e-07
-2.89079e-15
-2.23654e-08
-1.17995e-07
-2.77069e-15
-2.38032e-08
-1.16742e-07
-2.62761e-15
-2.51943e-08
-1.14726e-07
-2.50371e-15
-2.65316e-08
-1.11921e-07
-2.39922e-15
-2.78075e-08
-1.08256e-07
-2.24354e-15
-2.90133e-08
-1.03693e-07
-2.32782e-15
-3.01404e-08
-9.81744e-08
-2.10092e-15
-3.11788e-08
-9.16432e-08
-1.94955e-15
-3.2118e-08
-8.40468e-08
-1.80376e-15
-3.29466e-08
-7.53331e-08
-1.66796e-15
-3.36525e-08
-6.54576e-08
-1.53844e-15
-3.4223e-08
-5.4377e-08
-1.4166e-15
-3.46452e-08
-4.20623e-08
-1.30311e-15
-2.84936e-08
-1.18971e-15
-1.14911e-08
-1.05219e-07
-4.21334e-15
-1.30489e-08
-1.07978e-07
-4.09345e-15
-1.46119e-08
-1.10592e-07
-3.86564e-15
-1.61722e-08
-1.12893e-07
-3.50015e-15
-1.77228e-08
-1.14769e-07
-3.34649e-15
-1.92567e-08
-1.1612e-07
-3.19298e-15
-2.07678e-08
-1.16902e-07
-3.04677e-15
-2.22501e-08
-1.17056e-07
-2.94422e-15
-2.36979e-08
-1.16547e-07
-2.79899e-15
-2.51051e-08
-1.15335e-07
-2.64346e-15
-2.64654e-08
-1.13365e-07
-2.51225e-15
-2.77722e-08
-1.10614e-07
-2.40435e-15
-2.90176e-08
-1.07011e-07
-2.24065e-15
-3.01935e-08
-1.02517e-07
-2.36169e-15
-3.12909e-08
-9.70769e-08
-2.12425e-15
-3.23e-08
-9.06341e-08
-1.96685e-15
-3.321e-08
-8.31368e-08
-1.81879e-15
-3.40097e-08
-7.45336e-08
-1.68133e-15
-3.46865e-08
-6.47808e-08
-1.55125e-15
-3.52277e-08
-5.38357e-08
-1.42852e-15
-3.562e-08
-4.16701e-08
-1.31261e-15
-2.82642e-08
-1.1966e-15
2.49525e-11
-7.48041e-09
-4.73065e-15
2.17726e-10
-2.21161e-08
4.65705e-15
1.66365e-09
-3.8048e-08
-1.37646e-15
2.64191e-09
-7.28136e-08
-2.19462e-14
1.09969e-09
-9.15585e-08
-8.75726e-15
4.12566e-10
-9.48958e-08
-2.46828e-14
1.45353e-09
-8.09048e-08
-8.71763e-15
9.23348e-10
-7.90392e-08
-1.21356e-14
-1.92843e-11
-8.97318e-08
-1.39543e-14
-9.59041e-08
-1.4589e-14
-5.40392e-09
-9.69352e-08
-8.65248e-15
-6.8731e-09
-9.65434e-08
-7.27956e-15
-8.36267e-09
-9.71703e-08
-5.95625e-15
-9.8729e-09
-9.87467e-08
-5.01647e-15
-1.1401e-08
-1.01022e-07
-4.50608e-15
-1.29427e-08
-1.03678e-07
-4.04863e-15
-1.44916e-08
-1.06429e-07
-3.80113e-15
-1.60408e-08
-1.09043e-07
-3.65919e-15
-1.75832e-08
-1.11351e-07
-3.40815e-15
-1.91122e-08
-1.1324e-07
-3.28121e-15
-2.0622e-08
-1.1461e-07
-3.17119e-15
-2.21068e-08
-1.15417e-07
-3.03515e-15
-2.35615e-08
-1.15601e-07
-2.95384e-15
-2.49807e-08
-1.15128e-07
-2.80936e-15
-2.63588e-08
-1.13957e-07
-2.65254e-15
-2.769e-08
-1.12034e-07
-2.51901e-15
-2.89677e-08
-1.09336e-07
-2.4096e-15
-3.01844e-08
-1.05794e-07
-2.23904e-15
-3.13318e-08
-1.01369e-07
-2.39231e-15
-3.24011e-08
-9.60075e-08
-2.14364e-15
-3.33825e-08
-8.96527e-08
-1.98007e-15
-3.42651e-08
-8.22542e-08
-1.82929e-15
-3.50374e-08
-7.37614e-08
-1.68983e-15
-3.56868e-08
-6.41313e-08
-1.5586e-15
-3.62002e-08
-5.33221e-08
-1.43444e-15
-3.65643e-08
-4.1306e-08
-1.31632e-15
-2.80639e-08
-1.19803e-15
2.20691e-11
-7.50252e-09
-3.65232e-15
2.18467e-10
-2.23125e-08
3.51722e-15
1.51717e-09
-3.93467e-08
5.89549e-16
1.87322e-09
-7.31696e-08
-2.20001e-14
4.49678e-10
-9.01349e-08
-1.18206e-14
-3.90324e-11
-9.44071e-08
-1.8823e-14
9.6345e-10
-8.19073e-08
-2.38204e-14
1.48387e-10
-7.82241e-08
-1.19651e-14
-1.00157e-09
-8.85818e-08
-1.4744e-14
-2.34821e-09
-9.45575e-08
-1.50597e-14
-3.78055e-09
-9.67852e-08
-1.30054e-14
-5.24323e-09
-9.64253e-08
-1.08933e-14
-6.7202e-09
-9.54583e-08
-9.37376e-15
-8.2092e-09
-9.50544e-08
-7.89127e-15
-9.71147e-09
-9.5668e-08
-6.45083e-15
-1.12288e-08
-9.72294e-08
-5.40934e-15
-1.27594e-08
-9.94911e-08
-4.8979e-15
-1.42991e-08
-1.02138e-07
-4.33518e-15
-1.58416e-08
-1.04887e-07
-4.10786e-15
-1.73802e-08
-1.07505e-07
-3.88055e-15
-1.89083e-08
-1.09822e-07
-3.5446e-15
-2.04198e-08
-1.11728e-07
-3.34611e-15
-2.19093e-08
-1.1312e-07
-3.20586e-15
-2.33718e-08
-1.13955e-07
-3.04215e-15
-2.48025e-08
-1.1417e-07
-2.95749e-15
-2.61968e-08
-1.13734e-07
-2.80345e-15
-2.75493e-08
-1.12604e-07
-2.64415e-15
-2.88546e-08
-1.10729e-07
-2.51038e-15
-3.01064e-08
-1.08085e-07
-2.40163e-15
-3.12973e-08
-1.04603e-07
-2.22715e-15
-3.24191e-08
-1.00247e-07
-2.42422e-15
-3.34631e-08
-9.49634e-08
-2.15682e-15
-3.44194e-08
-8.86964e-08
-1.98878e-15
-3.5277e-08
-8.13966e-08
-1.83714e-15
-3.60244e-08
-7.30142e-08
-1.69694e-15
-3.66486e-08
-6.35071e-08
-1.56518e-15
-3.71365e-08
-5.28341e-08
-1.43989e-15
-3.74745e-08
-4.09681e-08
-1.31997e-15
-2.78905e-08
-1.19953e-15
1.86918e-11
-7.52125e-09
-3.04776e-15
2.11012e-10
-2.25048e-08
3.37205e-15
1.31757e-09
-4.04533e-08
2.55752e-15
1.2868e-09
-7.31388e-08
-2.10374e-14
1.68489e-10
-8.90165e-08
-1.72149e-14
-2.79181e-10
-9.39594e-08
-1.43685e-14
6.46599e-10
-8.2833e-08
-6.45445e-15
-5.0957e-10
-7.70679e-08
-1.12578e-14
-1.86765e-09
-8.72237e-08
-1.53984e-14
-3.35471e-09
-9.30704e-08
-1.56132e-14
-4.87808e-09
-9.52618e-08
-1.35481e-14
-6.39145e-09
-9.4912e-08
-1.14768e-14
-7.89898e-09
-9.39507e-08
-9.61326e-15
-9.40659e-09
-9.35468e-08
-7.91839e-15
-1.0922e-08
-9.41526e-08
-6.48882e-15
-1.24482e-08
-9.57031e-08
-5.33065e-15
-1.39846e-08
-9.79547e-08
-5.20773e-15
-1.55266e-08
-1.00596e-07
-4.50253e-15
-1.7068e-08
-1.03345e-07
-4.27456e-15
-1.86019e-08
-1.05971e-07
-4.00958e-15
-2.01218e-08
-1.08303e-07
-3.62681e-15
-2.1622e-08
-1.10228e-07
-3.38935e-15
-2.30973e-08
-1.11645e-07
-3.23653e-15
-2.45435e-08
-1.12508e-07
-3.05557e-15
-2.59561e-08
-1.12758e-07
-2.96784e-15
-2.73308e-08
-1.12359e-07
-2.80506e-15
-2.86629e-08
-1.11272e-07
-2.64131e-15
-2.99471e-08
-1.09445e-07
-2.50461e-15
-3.11774e-08
-1.06854e-07
-2.39298e-15
-3.23468e-08
-1.03434e-07
-2.21165e-15
-3.3447e-08
-9.91469e-08
-2.44372e-15
-3.44694e-08
-9.39409e-08
-2.16485e-15
-3.54041e-08
-8.77618e-08
-1.99491e-15
-3.624e-08
-8.05607e-08
-1.84399e-15
-3.69654e-08
-7.22889e-08
-1.70414e-15
-3.75675e-08
-6.2905e-08
-1.57249e-15
-3.80326e-08
-5.23688e-08
-1.44652e-15
-3.8347e-08
-4.06537e-08
-1.32559e-15
-3.84958e-08
-2.77415e-08
-1.20574e-15
-1.36291e-08
-1.0719e-15
1.50809e-11
-7.53632e-09
2.02204e-15
1.97051e-10
-2.26868e-08
-6.63804e-16
1.09049e-09
-4.13467e-08
1.57259e-15
9.32769e-10
-7.29811e-08
-2.00123e-14
1.84526e-10
-8.82683e-08
-2.27862e-14
-3.30943e-10
-9.34439e-08
1.33129e-14
5.23163e-10
-8.36871e-08
4.75569e-15
-1.02577e-09
-7.5519e-08
-1.20839e-14
-2.58882e-09
-8.56607e-08
-1.60071e-14
-4.20451e-09
-9.14547e-08
-1.58827e-14
-5.81157e-09
-9.36547e-08
-1.40349e-14
-7.37149e-09
-9.33521e-08
-1.19507e-14
-8.90781e-09
-9.24144e-08
-1.0242e-14
-1.04343e-08
-9.20204e-08
-8.19676e-15
-1.19646e-08
-9.26222e-08
-6.7925e-15
-1.35032e-08
-9.41645e-08
-5.55364e-15
-1.50501e-08
-9.64078e-08
-5.40683e-15
-1.66002e-08
-9.90457e-08
-4.59291e-15
-1.81471e-08
-1.01799e-07
-4.2945e-15
-1.96835e-08
-1.04434e-07
-3.97394e-15
-2.12028e-08
-1.06783e-07
-3.56347e-15
-2.26993e-08
-1.08731e-07
-3.31647e-15
-2.41683e-08
-1.10176e-07
-3.17184e-15
-2.56056e-08
-1.11071e-07
-2.99739e-15
-2.70072e-08
-1.11356e-07
-2.92134e-15
-2.83693e-08
-1.10997e-07
-2.7646e-15
-2.96874e-08
-1.09954e-07
-2.60875e-15
-3.09567e-08
-1.08176e-07
-2.47802e-15
-3.21713e-08
-1.0564e-07
-2.36897e-15
-3.33244e-08
-1.02281e-07
-2.18373e-15
-3.44079e-08
-9.80633e-08
-2.44749e-15
-3.54133e-08
-9.29355e-08
-2.16479e-15
-3.63306e-08
-8.68445e-08
-1.99746e-15
-3.71488e-08
-7.97425e-08
-1.84948e-15
-3.7856e-08
-7.15818e-08
-1.71143e-15
-3.84392e-08
-6.23218e-08
-1.58068e-15
-3.88848e-08
-5.19231e-08
-1.45458e-15
-3.91788e-08
-4.03597e-08
-1.33261e-15
-3.93059e-08
-2.76142e-08
-1.21243e-15
-1.36836e-08
-1.086e-15
1.1516e-11
-7.5478e-09
4.62619e-15
1.79038e-10
-2.28543e-08
-3.38703e-15
8.6942e-10
-4.20371e-08
2.24417e-15
7.99342e-10
-7.29111e-08
-1.53947e-14
3.36819e-10
-8.78058e-08
-2.16459e-14
-3.11671e-10
-9.27954e-08
7.46692e-15
5.15428e-10
-8.45142e-08
1.71135e-14
-1.39248e-09
-7.36111e-08
-1.15007e-14
-3.15595e-09
-8.38972e-08
-1.63866e-14
-4.8857e-09
-8.97249e-08
-1.62649e-14
-6.56736e-09
-9.1973e-08
-1.48196e-14
-8.16842e-09
-9.17511e-08
-1.22144e-14
-9.73103e-09
-9.08517e-08
-1.06132e-14
-1.12761e-08
-9.04753e-08
-8.23252e-15
-1.28232e-08
-9.10752e-08
-6.84598e-15
-1.43773e-08
-9.26104e-08
-5.51081e-15
-1.59393e-08
-9.48459e-08
-5.3994e-15
-1.75034e-08
-9.74816e-08
-4.52635e-15
-1.90626e-08
-1.00239e-07
-4.28851e-15
-2.06091e-08
-1.02888e-07
-3.99078e-15
-2.2136e-08
-1.05256e-07
-3.61065e-15
-2.36374e-08
-1.0723e-07
-3.35932e-15
-2.51084e-08
-1.08705e-07
-3.20277e-15
-2.65452e-08
-1.09634e-07
-3.01129e-15
-2.79441e-08
-1.09957e-07
-2.92243e-15
-2.93014e-08
-1.0964e-07
-2.75674e-15
-3.06129e-08
-1.08642e-07
-2.59722e-15
-3.18743e-08
-1.06914e-07
-2.46301e-15
-3.30797e-08
-1.04435e-07
-2.34873e-15
-3.42227e-08
-1.01138e-07
-2.15451e-15
-3.52952e-08
-9.69906e-08
-2.44349e-15
-3.62889e-08
-9.19418e-08
-2.15964e-15
-3.71937e-08
-8.59397e-08
-1.99785e-15
-3.79987e-08
-7.89375e-08
-1.85456e-15
-3.86919e-08
-7.08887e-08
-1.71934e-15
-3.92603e-08
-6.17535e-08
-1.59011e-15
-3.96899e-08
-5.14933e-08
-1.46431e-15
-3.99668e-08
-4.00829e-08
-1.34166e-15
-4.00755e-08
-2.75054e-08
-1.22116e-15
-4.00012e-08
-1.37581e-08
-1.09706e-15
1.1337e-09
-9.58697e-16
8.28507e-12
-7.55602e-09
8.79153e-15
1.57984e-10
-2.30041e-08
-7.72559e-15
6.91811e-10
-4.25709e-08
1.39521e-15
7.99836e-10
-7.30191e-08
-9.099e-15
3.73378e-10
-8.73794e-08
-2.45805e-14
-4.58918e-10
-9.19632e-08
1.8261e-14
3.58195e-10
-8.53312e-08
1.96686e-14
-1.63317e-09
-7.16198e-08
-1.39114e-14
-3.57786e-09
-8.19526e-08
-1.66069e-14
-5.40455e-09
-8.78982e-08
-1.64335e-14
-7.14967e-09
-9.02279e-08
-1.51955e-14
-8.78438e-09
-9.01164e-08
-1.20599e-14
-1.03685e-08
-8.92676e-08
-1.09184e-14
-1.193e-08
-8.89137e-08
-8.3904e-15
-1.34935e-08
-8.95117e-08
-7.01342e-15
-1.50649e-08
-9.1039e-08
-5.52005e-15
-1.66452e-08
-9.32655e-08
-5.42078e-15
-1.82282e-08
-9.58987e-08
-4.49193e-15
-1.98058e-08
-9.86616e-08
-4.2266e-15
-2.13696e-08
-1.01324e-07
-3.88761e-15
-2.29119e-08
-1.03714e-07
-3.50014e-15
-2.44264e-08
-1.05715e-07
-3.2503e-15
-2.59082e-08
-1.07223e-07
-3.10664e-15
-2.73533e-08
-1.08189e-07
-2.92959e-15
-2.87579e-08
-1.08553e-07
-2.85422e-15
-3.01187e-08
-1.08279e-07
-2.70111e-15
-3.14318e-08
-1.07329e-07
-2.55439e-15
-3.26927e-08
-1.05653e-07
-2.42823e-15
-3.38962e-08
-1.03231e-07
-2.31629e-15
-3.50357e-08
-9.99989e-08
-2.11793e-15
-3.61035e-08
-9.59227e-08
-2.43289e-15
-3.70912e-08
-9.0954e-08
-2.1496e-15
-3.7989e-08
-8.50419e-08
-1.99626e-15
-3.87858e-08
-7.81408e-08
-1.85921e-15
-3.94697e-08
-7.02049e-08
-1.72781e-15
-4.00274e-08
-6.11957e-08
-1.60069e-15
-4.04451e-08
-5.10754e-08
-1.47563e-15
-4.07085e-08
-3.98195e-08
-1.35264e-15
-4.08022e-08
-2.74116e-08
-1.23145e-15
-4.07112e-08
-1.38493e-08
-1.10675e-15
8.41688e-10
-9.74827e-16
5.56797e-12
-7.56152e-09
8.26386e-15
1.35015e-10
-2.31335e-08
-5.82955e-15
5.86998e-10
-4.30229e-08
3.56187e-15
7.90129e-10
-7.32222e-08
-9.89835e-15
4.65641e-11
-8.66359e-08
-1.89639e-14
-1.01505e-09
-9.09015e-08
1.8069e-14
-2.79653e-10
-8.60666e-08
8.07523e-15
-1.79397e-09
-7.01055e-08
-1.1837e-14
-3.87058e-09
-7.9876e-08
-1.76753e-14
-5.775e-09
-8.59938e-08
-1.60725e-14
-7.57053e-09
-8.84324e-08
-1.50466e-14
-9.23001e-09
-8.8457e-08
-1.21482e-14
-1.08285e-08
-8.76691e-08
-1.10704e-14
-1.24023e-08
-8.734e-08
-8.3196e-15
-1.39799e-08
-8.79341e-08
-7.09415e-15
-1.55683e-08
-8.94506e-08
-5.55225e-15
-1.71686e-08
-9.16651e-08
-5.29885e-15
-1.87736e-08
-9.42937e-08
-4.38456e-15
-2.03744e-08
-9.70608e-08
-4.15101e-15
-2.19614e-08
-9.97371e-08
-3.83933e-15
-2.35261e-08
-1.0215e-07
-3.49532e-15
-2.50616e-08
-1.0418e-07
-3.24698e-15
-2.65623e-08
-1.05723e-07
-3.09597e-15
-2.8024e-08
-1.06728e-07
-2.91479e-15
-2.9443e-08
-1.07134e-07
-2.83496e-15
-3.08157e-08
-1.06906e-07
-2.68105e-15
-3.21384e-08
-1.06006e-07
-2.536e-15
-3.34068e-08
-1.04385e-07
-2.40807e-15
-3.46158e-08
-1.02022e-07
-2.29071e-15
-3.57589e-08
-9.88558e-08
-2.08335e-15
-3.68286e-08
-9.48528e-08
-2.41217e-15
-3.78165e-08
-8.99659e-08
-2.13694e-15
-3.8713e-08
-8.41455e-08
-1.99375e-15
-3.95069e-08
-7.73469e-08
-1.86391e-15
-4.01863e-08
-6.95256e-08
-1.73692e-15
-4.07379e-08
-6.0644e-08
-1.61235e-15
-4.11479e-08
-5.06653e-08
-1.48836e-15
-4.14019e-08
-3.95656e-08
-1.36527e-15
-4.14841e-08
-2.73291e-08
-1.24354e-15
-4.13797e-08
-1.3954e-08
-1.11738e-15
5.34112e-10
-9.85505e-16
3.39881e-12
-7.56488e-09
4.31062e-15
1.10371e-10
-2.32405e-08
-4.95811e-15
5.50413e-10
-4.34629e-08
2.67994e-16
6.21734e-10
-7.32935e-08
-1.29856e-14
-7.21332e-10
-8.52928e-08
-1.02385e-14
-2.00847e-09
-8.96144e-08
6.66219e-16
-1.43615e-09
-8.66389e-08
-7.37043e-15
-1.90664e-09
-6.96349e-08
9.99702e-16
-4.04347e-09
-7.77391e-08
-1.64302e-14
-6.00837e-09
-8.40289e-08
-1.58054e-14
-7.84234e-09
-8.65984e-08
-1.48967e-14
-9.51871e-09
-8.67807e-08
-1.22183e-14
-1.11239e-08
-8.60639e-08
-1.08835e-14
-1.27045e-08
-8.57594e-08
-8.08476e-15
-1.42923e-08
-8.63464e-08
-6.85557e-15
-1.58958e-08
-8.78471e-08
-5.39164e-15
-1.75159e-08
-9.0045e-08
-5.12058e-15
-1.91444e-08
-9.26652e-08
-4.26819e-15
-2.07715e-08
-9.54336e-08
-4.03329e-15
-2.23863e-08
-9.81223e-08
-3.73182e-15
-2.39792e-08
-1.00557e-07
-3.41189e-15
-2.55422e-08
-1.02617e-07
-3.17492e-15
-2.70692e-08
-1.04196e-07
-3.03306e-15
-2.85554e-08
-1.05241e-07
-2.86042e-15
-2.99967e-08
-1.05692e-07
-2.78548e-15
-3.13894e-08
-1.05513e-07
-2.6376e-15
-3.27297e-08
-1.04666e-07
-2.50111e-15
-3.40134e-08
-1.03101e-07
-2.37791e-15
-3.52353e-08
-1.008e-07
-2.26025e-15
-3.63892e-08
-9.77021e-08
-2.04458e-15
-3.74674e-08
-9.37744e-08
-2.38304e-15
-3.84619e-08
-8.89714e-08
-2.12305e-15
-3.93629e-08
-8.32445e-08
-1.99107e-15
-4.01594e-08
-7.65504e-08
-1.86873e-15
-4.08395e-08
-6.88457e-08
-1.74639e-15
-4.13898e-08
-6.00937e-08
-1.62459e-15
-4.17964e-08
-5.02585e-08
-1.50197e-15
-4.2045e-08
-3.93171e-08
-1.37905e-15
-4.21196e-08
-2.72543e-08
-1.25701e-15
-4.20054e-08
-1.40686e-08
-1.12943e-15
2.14275e-10
-9.9587e-16
1.6638e-12
-7.56654e-09
4.6495e-16
8.54103e-11
-2.33243e-08
-2.2934e-15
5.44259e-10
-4.39217e-08
1.50816e-15
2.35386e-10
-7.29846e-08
-1.63322e-14
-1.72508e-09
-8.33323e-08
-6.20385e-15
-3.15685e-09
-8.81827e-08
-3.62119e-15
-2.73674e-09
-8.7059e-08
-4.69854e-15
-1.95709e-09
-7.04146e-08
-5.74707e-15
-4.09617e-09
-7.56001e-08
-1.21181e-14
-6.10906e-09
-8.2016e-08
-1.61414e-14
-7.97359e-09
-8.47338e-08
-1.51263e-14
-9.66203e-09
-8.50923e-08
-1.18475e-14
-1.12675e-08
-8.44584e-08
-1.10701e-14
-1.28499e-08
-8.4177e-08
-8.57909e-15
-1.44433e-08
-8.4753e-08
-7.14808e-15
-1.6059e-08
-8.62313e-08
-5.79836e-15
-1.76972e-08
-8.84068e-08
-5.28683e-15
-1.93495e-08
-9.10129e-08
-4.48995e-15
-2.10044e-08
-9.37786e-08
-4.03037e-15
-2.265e-08
-9.64768e-08
-3.68387e-15
-2.42753e-08
-9.89314e-08
-3.39888e-15
-2.58713e-08
-1.01021e-07
-3.17211e-15
-2.74309e-08
-1.02636e-07
-3.02935e-15
-2.89484e-08
-1.03724e-07
-2.85629e-15
-3.04192e-08
-1.04222e-07
-2.77781e-15
-3.18394e-08
-1.04093e-07
-2.62797e-15
-3.32049e-08
-1.033e-07
-2.49106e-15
-3.45113e-08
-1.01795e-07
-2.3637e-15
-3.57533e-08
-9.95584e-08
-2.23883e-15
-3.69248e-08
-9.65306e-08
-2.01053e-15
-3.80183e-08
-9.26808e-08
-2.34899e-15
-3.90257e-08
-8.7964e-08
-2.10907e-15
-3.99371e-08
-8.23331e-08
-1.98814e-15
-4.07417e-08
-7.57458e-08
-1.87335e-15
-4.14276e-08
-6.81599e-08
-1.75573e-15
-4.19814e-08
-5.95398e-08
-1.63688e-15
-4.23892e-08
-4.98505e-08
-1.51585e-15
-4.26365e-08
-3.90698e-08
-1.39341e-15
-4.27075e-08
-2.71832e-08
-1.27136e-15
-4.2587e-08
-1.41893e-08
-1.14262e-15
-1.14433e-10
-1.00753e-15
1.22994e-13
-7.5667e-09
-4.05135e-15
6.23636e-11
-2.33865e-08
1.89174e-16
5.21625e-10
-4.4381e-08
-9.32227e-16
-2.83304e-10
-7.21797e-08
-2.36165e-14
-2.57235e-09
-8.10432e-08
1.08087e-15
-4.01433e-09
-8.67407e-08
-1.02313e-14
-3.676e-09
-8.73973e-08
-1.72455e-15
-1.87324e-09
-7.22173e-08
1.95172e-15
-4.02068e-09
-7.34526e-08
-1.14161e-14
-6.0776e-09
-7.9959e-08
-1.63319e-14
-7.97033e-09
-8.28411e-08
-1.52479e-14
-9.66986e-09
-8.33928e-08
-1.17488e-14
-1.12718e-08
-8.28564e-08
-1.05302e-14
-1.28521e-08
-8.25966e-08
-8.46479e-15
-1.4447e-08
-8.31581e-08
-6.99781e-15
-1.60717e-08
-8.46067e-08
-5.66303e-15
-1.77257e-08
-8.67528e-08
-5.1475e-15
-1.94005e-08
-8.93381e-08
-4.43978e-15
-2.10836e-08
-9.20956e-08
-4.02429e-15
-2.27615e-08
-9.47988e-08
-3.73972e-15
-2.44221e-08
-9.72708e-08
-3.48139e-15
-2.60551e-08
-9.93878e-08
-3.23686e-15
-2.76521e-08
-1.01039e-07
-3.06781e-15
-2.92066e-08
-1.02169e-07
-2.87225e-15
-3.07133e-08
-1.02715e-07
-2.77465e-15
-3.21676e-08
-1.02639e-07
-2.61517e-15
-3.35649e-08
-1.01903e-07
-2.47637e-15
-3.49008e-08
-1.00459e-07
-2.34723e-15
-3.61699e-08
-9.82894e-08
-2.21973e-15
-3.73657e-08
-9.53349e-08
-1.98781e-15
-3.84808e-08
-9.15655e-08
-2.31469e-15
-3.95071e-08
-8.69377e-08
-2.09736e-15
-4.04348e-08
-8.14054e-08
-1.98608e-15
-4.1253e-08
-7.49276e-08
-1.87782e-15
-4.19498e-08
-6.74633e-08
-1.76444e-15
-4.25119e-08
-5.89777e-08
-1.64846e-15
-4.29253e-08
-4.9437e-08
-1.52924e-15
-4.31755e-08
-3.88196e-08
-1.40763e-15
-4.32467e-08
-2.71118e-08
-1.286e-15
-4.31236e-08
-1.43127e-08
-1.15652e-15
-4.48584e-10
-1.02036e-15
-1.34305e-12
-7.5654e-09
-4.70522e-15
4.3009e-11
-2.34308e-08
3.92935e-16
4.649e-10
-4.48029e-08
-2.0455e-17
-7.17157e-10
-7.09977e-08
-2.42954e-14
-2.89945e-09
-7.88609e-08
-6.18789e-15
-4.20366e-09
-8.54365e-08
-4.30415e-15
-3.87371e-09
-8.77273e-08
-5.60838e-15
-1.50172e-09
-7.45892e-08
5.40709e-15
-3.79992e-09
-7.11544e-08
-1.49868e-14
-5.91443e-09
-7.78445e-08
-1.53542e-14
-7.83809e-09
-8.09174e-08
-1.42693e-14
-9.55169e-09
-8.16793e-08
-1.19949e-14
-1.11494e-08
-8.12587e-08
-1.04696e-14
-1.27254e-08
-8.10207e-08
-8.52899e-15
-1.43186e-08
-8.15649e-08
-6.89182e-15
-1.5949e-08
-8.29763e-08
-5.4992e-15
-1.76159e-08
-8.50858e-08
-4.99371e-15
-1.93114e-08
-8.76426e-08
-4.37033e-15
-2.10216e-08
-9.03854e-08
-3.89783e-15
-2.27322e-08
-9.30882e-08
-3.57945e-15
-2.44296e-08
-9.55735e-08
-3.36548e-15
-2.6102e-08
-9.77153e-08
-3.16427e-15
-2.774e-08
-9.9401e-08
-3.03435e-15
-2.9336e-08
-1.00574e-07
-2.864e-15
-3.08836e-08
-1.01167e-07
-2.77425e-15
-3.23776e-08
-1.01145e-07
-2.61628e-15
-3.38129e-08
-1.00467e-07
-2.47646e-15
-3.51844e-08
-9.90878e-08
-2.34218e-15
-3.64866e-08
-9.69873e-08
-2.20973e-15
-3.77129e-08
-9.41087e-08
-1.97898e-15
-3.88556e-08
-9.04227e-08
-2.29054e-15
-3.99065e-08
-8.58867e-08
-2.08702e-15
-4.08559e-08
-8.0456e-08
-1.9834e-15
-4.1693e-08
-7.40906e-08
-1.88097e-15
-4.24057e-08
-6.67507e-08
-1.7715e-15
-4.29807e-08
-5.84026e-08
-1.65849e-15
-4.34041e-08
-4.90134e-08
-1.54132e-15
-4.36614e-08
-3.85624e-08
-1.42101e-15
-4.37367e-08
-2.70364e-08
-1.30029e-15
-4.36146e-08
-1.4435e-08
-1.17065e-15
-7.84756e-10
-1.03392e-15
-2.58353e-12
-7.56283e-09
-1.48021e-15
2.86011e-11
-2.34619e-08
1.45871e-15
4.03741e-10
-4.5178e-08
-1.31784e-15
-8.61185e-10
-6.97328e-08
-2.32991e-14
-2.58996e-09
-7.71321e-08
-1.11224e-14
-3.64388e-09
-8.43826e-08
-6.63408e-15
-3.24405e-09
-8.81272e-08
-6.13749e-15
-7.27034e-10
-7.71062e-08
-1.15521e-14
-3.42313e-09
-6.84583e-08
-1.79382e-14
-5.63028e-09
-7.56373e-08
-1.52163e-14
-7.58796e-09
-7.89597e-08
-1.375e-14
-9.32023e-09
-7.9947e-08
-1.19062e-14
-1.09145e-08
-7.96643e-08
-1.06444e-14
-1.24848e-08
-7.94504e-08
-8.46415e-15
-1.40736e-08
-7.99761e-08
-6.70286e-15
-1.57066e-08
-8.13432e-08
-5.52892e-15
-1.73835e-08
-8.3409e-08
-4.9493e-15
-1.9097e-08
-8.59291e-08
-4.43075e-15
-2.08325e-08
-8.86498e-08
-3.95529e-15
-2.25749e-08
-9.13458e-08
-3.68237e-15
-2.43092e-08
-9.38393e-08
-3.50858e-15
-2.60224e-08
-9.6002e-08
-3.29806e-15
-2.77037e-08
-9.77198e-08
-3.13509e-15
-2.93443e-08
-9.89329e-08
-2.92972e-15
-3.09367e-08
-9.95747e-08
-2.80713e-15
-3.2475e-08
-9.96068e-08
-2.62965e-15
-3.39531e-08
-9.8989e-08
-2.48017e-15
-3.53656e-08
-9.76753e-08
-2.33965e-15
-3.67064e-08
-9.56466e-08
-2.20488e-15
-3.79685e-08
-9.28466e-08
-1.97835e-15
-3.91442e-08
-8.92468e-08
-2.27781e-15
-4.02252e-08
-8.48057e-08
-2.0793e-15
-4.12015e-08
-7.94796e-08
-1.98098e-15
-4.20623e-08
-7.32299e-08
-1.88282e-15
-4.27956e-08
-6.60175e-08
-1.77642e-15
-4.33881e-08
-5.78101e-08
-1.66619e-15
-4.38258e-08
-4.85755e-08
-1.55124e-15
-4.40941e-08
-3.82941e-08
-1.43279e-15
-4.41772e-08
-2.69532e-08
-1.31361e-15
-4.40598e-08
-1.45527e-08
-1.18445e-15
-1.11958e-09
-1.04776e-15
-3.3979e-12
-7.55944e-09
4.55292e-17
1.99629e-11
-2.34853e-08
9.55076e-16
3.89706e-10
-4.55477e-08
3.73136e-16
-6.80572e-10
-6.86625e-08
-1.49263e-14
-1.92292e-09
-7.58898e-08
-1.58297e-14
-2.76296e-09
-8.35425e-08
-3.14551e-15
-2.34312e-09
-8.8547e-08
-2.68175e-14
4.89488e-11
-7.94983e-08
-3.39773e-15
-2.92226e-09
-6.54871e-08
-1.78724e-14
-5.25276e-09
-7.33068e-08
-1.43875e-14
-7.24073e-09
-7.69717e-08
-1.28352e-14
-8.99344e-09
-7.81944e-08
-1.17925e-14
-1.05841e-08
-7.80736e-08
-9.40251e-15
-1.21468e-08
-7.78877e-08
-8.32437e-15
-1.37286e-08
-7.83943e-08
-6.41956e-15
-1.5361e-08
-7.97108e-08
-5.29943e-15
-1.70443e-08
-8.17256e-08
-4.6995e-15
-1.87728e-08
-8.42007e-08
-4.14487e-15
-2.0531e-08
-8.68915e-08
-3.7711e-15
-2.23034e-08
-8.95735e-08
-3.50317e-15
-2.40737e-08
-9.2069e-08
-3.3862e-15
-2.58278e-08
-9.42479e-08
-3.22651e-15
-2.75534e-08
-9.59942e-08
-3.10084e-15
-2.92406e-08
-9.72458e-08
-2.91994e-15
-3.08807e-08
-9.79346e-08
-2.80355e-15
-3.24665e-08
-9.80209e-08
-2.6292e-15
-3.39915e-08
-9.7464e-08
-2.48071e-15
-3.54493e-08
-9.62176e-08
-2.33848e-15
-3.68332e-08
-9.42627e-08
-2.20295e-15
-3.8136e-08
-9.15439e-08
-1.97917e-15
-3.93495e-08
-8.80331e-08
-2.26561e-15
-4.04652e-08
-8.36899e-08
-2.07114e-15
-4.14732e-08
-7.84717e-08
-1.97662e-15
-4.23623e-08
-7.23408e-08
-1.8819e-15
-4.31206e-08
-6.52594e-08
-1.77811e-15
-4.37347e-08
-5.71959e-08
-1.67076e-15
-4.41906e-08
-4.81195e-08
-1.55837e-15
-4.44738e-08
-3.8011e-08
-1.44236e-15
-4.45683e-08
-2.68585e-08
-1.32533e-15
-4.4459e-08
-1.46624e-08
-1.19741e-15
-1.44978e-09
-1.06135e-15
-3.61346e-12
-7.55581e-09
1.36208e-15
1.87772e-11
-2.35077e-08
-5.94462e-15
4.54301e-10
-4.59833e-08
-1.91755e-15
-3.49207e-10
-6.78591e-08
-2.14971e-14
-1.46354e-09
-7.47755e-08
-1.60704e-14
-2.34704e-09
-8.2659e-08
-1.61773e-14
-2.19852e-09
-8.86955e-08
-2.66742e-14
-1.21561e-10
-8.15752e-08
-1.71309e-15
-2.38364e-09
-6.32251e-08
-1.16608e-14
-4.80835e-09
-7.08821e-08
-1.44023e-14
-6.81776e-09
-7.49623e-08
-1.24682e-14
-8.58834e-09
-7.64238e-08
-1.20382e-14
-1.01747e-08
-7.64873e-08
-9.42875e-15
-1.17271e-08
-7.63353e-08
-7.85937e-15
-1.32993e-08
-7.68221e-08
-6.04517e-15
-1.49275e-08
-7.80826e-08
-5.34044e-15
-1.6614e-08
-8.00391e-08
-4.67093e-15
-1.83538e-08
-8.24609e-08
-4.10287e-15
-2.01317e-08
-8.51136e-08
-3.75262e-15
-2.19315e-08
-8.77737e-08
-3.50782e-15
-2.37361e-08
-9.02645e-08
-3.42969e-15
-2.55302e-08
-9.24538e-08
-3.28816e-15
-2.73002e-08
-9.42242e-08
-3.15334e-15
-2.90348e-08
-9.55112e-08
-2.96302e-15
-3.07242e-08
-9.62452e-08
-2.82923e-15
-3.23601e-08
-9.6385e-08
-2.64528e-15
-3.39348e-08
-9.58892e-08
-2.49013e-15
-3.54412e-08
-9.47113e-08
-2.34289e-15
-3.68721e-08
-9.2832e-08
-2.20561e-15
-3.82195e-08
-9.01965e-08
-1.98356e-15
-3.94749e-08
-8.67775e-08
-2.25465e-15
-4.06296e-08
-8.25352e-08
-2.06332e-15
-4.16732e-08
-7.7428e-08
-1.97092e-15
-4.25947e-08
-7.14193e-08
-1.87831e-15
-4.3382e-08
-6.44722e-08
-1.77636e-15
-4.40216e-08
-5.65563e-08
-1.67179e-15
-4.44995e-08
-4.76414e-08
-1.56219e-15
-4.48011e-08
-3.77094e-08
-1.44926e-15
-4.49105e-08
-2.67489e-08
-1.33502e-15
-4.48125e-08
-1.47607e-08
-1.20905e-15
-1.77222e-09
-1.07421e-15
-3.34842e-12
-7.55246e-09
1.30858e-15
2.45276e-11
-2.35355e-08
7.48441e-15
5.77363e-10
-4.6536e-08
6.09057e-15
-1.54154e-10
-6.71276e-08
-2.35571e-14
-1.6408e-09
-7.32888e-08
-1.09653e-14
-2.89104e-09
-8.14087e-08
-2.50526e-14
-3.28915e-09
-8.82974e-08
-1.46777e-14
-1.57696e-09
-8.32874e-08
-2.47546e-14
-1.8848e-09
-6.29173e-08
-1.07889e-14
-4.30297e-09
-6.84639e-08
-1.109e-14
-6.32801e-09
-7.29373e-08
-1.1567e-14
-8.11329e-09
-7.46386e-08
-1.08946e-14
-9.69791e-09
-7.49026e-08
-8.25951e-15
-1.12379e-08
-7.47953e-08
-7.81768e-15
-1.27992e-08
-7.52608e-08
-5.75901e-15
-1.44203e-08
-7.64615e-08
-5.21363e-15
-1.61067e-08
-7.83526e-08
-4.4304e-15
-1.78544e-08
-8.07132e-08
-3.8762e-15
-1.96487e-08
-8.33193e-08
-3.58795e-15
-2.1473e-08
-8.59493e-08
-3.38657e-15
-2.33096e-08
-8.8428e-08
-3.36267e-15
-2.5142e-08
-9.06214e-08
-3.23838e-15
-2.69555e-08
-9.24107e-08
-3.09313e-15
-2.87375e-08
-9.37292e-08
-2.91121e-15
-3.04769e-08
-9.45058e-08
-2.78448e-15
-3.21642e-08
-9.46977e-08
-2.61567e-15
-3.37906e-08
-9.42626e-08
-2.47308e-15
-3.53482e-08
-9.31538e-08
-2.33483e-15
-3.68288e-08
-9.13515e-08
-2.20419e-15
-3.82239e-08
-8.88014e-08
-1.98778e-15
-3.95246e-08
-8.54766e-08
-2.24221e-15
-4.07217e-08
-8.13381e-08
-2.05369e-15
-4.18046e-08
-7.63451e-08
-1.96215e-15
-4.2762e-08
-7.04619e-08
-1.87089e-15
-4.35818e-08
-6.36526e-08
-1.77047e-15
-4.42503e-08
-5.58877e-08
-1.66885e-15
-4.47536e-08
-4.7138e-08
-1.56249e-15
-4.50769e-08
-3.7386e-08
-1.45323e-15
-4.52044e-08
-2.66212e-08
-1.34239e-15
-4.51208e-08
-1.48446e-08
-1.21896e-15
-2.08391e-09
-1.08591e-15
-2.73639e-12
-7.54972e-09
4.79455e-16
3.63248e-11
-2.35746e-08
-4.28995e-15
6.99923e-10
-4.71996e-08
-4.91399e-15
-2.82908e-10
-6.61447e-08
-1.24804e-14
-2.38549e-09
-7.11862e-08
-7.99118e-15
-4.10672e-09
-7.96875e-08
-2.88034e-14
-4.99454e-09
-8.74095e-08
2.968e-15
-3.40304e-09
-8.48788e-08
-2.58351e-14
-1.38284e-09
-6.49376e-08
-3.06614e-15
-3.7292e-09
-6.61176e-08
-1.03838e-14
-5.77098e-09
-7.08955e-08
-1.18542e-14
-7.57182e-09
-7.28378e-08
-1.03415e-14
-9.16158e-09
-7.33129e-08
-6.82488e-15
-1.06892e-08
-7.32677e-08
-7.03281e-15
-1.22397e-08
-7.37102e-08
-5.27937e-15
-1.38513e-08
-7.48499e-08
-4.48334e-15
-1.55353e-08
-7.66687e-08
-3.95246e-15
-1.72875e-08
-7.89609e-08
-3.62807e-15
-1.90949e-08
-8.15118e-08
-3.39052e-15
-2.09406e-08
-8.41036e-08
-3.16741e-15
-2.28065e-08
-8.65622e-08
-3.15341e-15
-2.46751e-08
-8.87527e-08
-3.07418e-15
-2.65307e-08
-9.05551e-08
-2.96823e-15
-2.83593e-08
-9.19006e-08
-2.84117e-15
-3.01486e-08
-9.27165e-08
-2.7468e-15
-3.18878e-08
-9.29585e-08
-2.60132e-15
-3.35671e-08
-9.25833e-08
-2.46837e-15
-3.51773e-08
-9.15436e-08
-2.33389e-15
-3.67097e-08
-8.98192e-08
-2.2063e-15
-3.81549e-08
-8.73563e-08
-1.99375e-15
-3.95034e-08
-8.41279e-08
-2.22842e-15
-4.07457e-08
-8.00958e-08
-2.04188e-15
-4.18708e-08
-7.522e-08
-1.95028e-15
-4.28671e-08
-6.94655e-08
-1.85981e-15
-4.37224e-08
-6.27975e-08
-1.76067e-15
-4.44229e-08
-5.51872e-08
-1.66217e-15
-4.49545e-08
-4.66063e-08
-1.55933e-15
-4.53025e-08
-3.7038e-08
-1.45429e-15
-4.5451e-08
-2.64725e-08
-1.34726e-15
-4.53847e-08
-1.49113e-08
-1.22693e-15
-2.38208e-09
-1.09611e-15
-2.16682e-12
-7.54756e-09
-2.80912e-17
5.19165e-11
-2.36287e-08
3.13474e-15
7.57339e-10
-4.7905e-08
2.79998e-15
-6.85488e-10
-6.47021e-08
-4.28639e-14
-3.23057e-09
-6.86411e-08
-1.67427e-14
-5.20768e-09
-7.77103e-08
-1.10956e-14
-6.24585e-09
-8.63715e-08
-1.79591e-14
-4.42951e-09
-8.6695e-08
-8.35482e-15
-6.39107e-10
-6.8728e-08
4.68184e-15
-3.06833e-09
-6.36884e-08
-1.31849e-14
-5.14719e-09
-6.88167e-08
-1.09832e-14
-6.96924e-09
-7.10158e-08
-1.02705e-14
-8.57312e-09
-7.1709e-08
-7.43005e-15
-1.00903e-08
-7.17506e-08
-6.7034e-15
-1.1631e-08
-7.21695e-08
-4.74978e-15
-1.32315e-08
-7.32493e-08
-4.51908e-15
-1.49108e-08
-7.49895e-08
-3.82774e-15
-1.66647e-08
-7.7207e-08
-3.87065e-15
-1.84822e-08
-7.96943e-08
-3.53482e-15
-2.03463e-08
-8.22396e-08
-3.3462e-15
-2.22387e-08
-8.46698e-08
-3.32924e-15
-2.41412e-08
-8.68501e-08
-3.1713e-15
-2.6037e-08
-8.86593e-08
-2.9494e-15
-2.79109e-08
-9.00267e-08
-2.77769e-15
-2.97493e-08
-9.08781e-08
-2.67342e-15
-3.15402e-08
-9.11676e-08
-2.54629e-15
-3.32726e-08
-9.08508e-08
-2.43289e-15
-3.49363e-08
-8.988e-08
-2.31582e-15
-3.65215e-08
-8.8234e-08
-2.20153e-15
-3.80184e-08
-8.58595e-08
-1.99854e-15
-3.94166e-08
-8.27296e-08
-2.21202e-15
-4.0706e-08
-7.88063e-08
-2.02753e-15
-4.18756e-08
-7.40505e-08
-1.93502e-15
-4.29132e-08
-6.84279e-08
-1.84499e-15
-4.38065e-08
-6.19044e-08
-1.74712e-15
-4.45415e-08
-5.44521e-08
-1.6521e-15
-4.51041e-08
-4.60436e-08
-1.5531e-15
-4.54794e-08
-3.66627e-08
-1.45272e-15
-4.56515e-08
-2.63002e-08
-1.34975e-15
-4.56049e-08
-1.49581e-08
-1.23288e-15
-2.66417e-09
-1.10459e-15
-1.64451e-12
-7.54591e-09
1.96245e-15
7.07063e-11
-2.37011e-08
-2.2925e-15
7.2145e-10
-4.85557e-08
-1.21389e-15
-1.15687e-09
-6.28239e-08
-2.32222e-14
-3.77742e-09
-6.60205e-08
-1.24245e-14
-5.72745e-09
-7.57603e-08
-3.73845e-15
-6.56986e-09
-8.55292e-08
-1.04519e-14
-4.41502e-09
-8.88498e-08
-3.95723e-15
4.10899e-10
-7.3554e-08
4.16518e-16
-2.31151e-09
-6.0966e-08
-2.47163e-14
-4.47334e-09
-6.66548e-08
-8.66592e-15
-6.31797e-09
-6.91712e-08
-8.56435e-15
-7.94267e-09
-7.00842e-08
-8.2866e-15
-9.45132e-09
-7.0242e-08
-6.47772e-15
-1.0982e-08
-7.06389e-08
-4.60335e-15
-1.25702e-08
-7.16611e-08
-4.16727e-15
-1.42427e-08
-7.3317e-08
-3.64516e-15
-1.59958e-08
-7.54539e-08
-3.71167e-15
-1.78208e-08
-7.78693e-08
-3.39405e-15
-1.97006e-08
-8.03598e-08
-2.99232e-15
-2.1617e-08
-8.27535e-08
-2.86796e-15
-2.35511e-08
-8.4916e-08
-2.77621e-15
-2.5485e-08
-8.67254e-08
-2.66231e-15
-2.74026e-08
-8.81092e-08
-2.61121e-15
-2.92888e-08
-8.89918e-08
-2.5831e-15
-3.11306e-08
-8.93258e-08
-2.50519e-15
-3.29157e-08
-8.90657e-08
-2.41194e-15
-3.46329e-08
-8.81628e-08
-2.30407e-15
-3.62714e-08
-8.65955e-08
-2.1963e-15
-3.78206e-08
-8.43104e-08
-2.00237e-15
-3.92696e-08
-8.12804e-08
-2.18928e-15