/*--------------------------------*- C++ -*----------------------------------*\
| =========                 |                                                 |
| \\      /  F ield         | OpenFOAM: The Open Source CFD Toolbox           |
|  \\    /   O peration     | Version:  v2012                                 |
|   \\  /    A nd           | Website:  www.openfoam.com                      |
|    \\/     M anipulation  |                                                 |
\*---------------------------------------------------------------------------*/
FoamFile
{
    version     2.0;
    format      ascii;
    class       surfaceScalarField;
    location    "0.1";
    object      phi;
}
// * * * * * * * * * * * * * * * * * * * * * * * * * * * * * * * * * * * * * //

dimensions      [0 3 -1 0 0 0 0];
oriented        oriented;


internalField   nonuniform List<scalar> 
49380
(
3.12311e-19
-1.08068e-16
-5.47887e-20
1.48984e-17
-2.33914e-15
-8.79223e-20
8.013e-17
-1.14199e-14
-3.02532e-20
2.48199e-16
-3.35759e-14
-3.38817e-19
5.93906e-16
-7.67253e-14
2.5239e-20
1.18063e-15
-1.50725e-13
-1.58724e-18
2.14047e-15
-2.67659e-13
1.60436e-18
3.58353e-15
-4.42268e-13
1.77917e-18
5.65859e-15
-6.92126e-13
2.53397e-18
8.54736e-15
-1.03845e-12
1.3401e-18
1.2461e-14
-1.50598e-12
1.82594e-19
1.76641e-14
-2.12405e-12
-1.58079e-19
2.44503e-14
-2.92722e-12
-1.50242e-18
3.3185e-14
-3.95487e-12
-5.38546e-19
4.42521e-14
-5.25367e-12
-1.88196e-18
5.81085e-14
-6.87615e-12
-2.41296e-18
7.52577e-14
-8.88335e-12
-3.54867e-18
9.62635e-14
-1.13449e-11
-4.82617e-18
1.21761e-13
-1.43401e-11
-6.5852e-18
1.52489e-13
-1.7958e-11
-7.09695e-18
1.89181e-13
-2.22997e-11
-6.73913e-18
2.32639e-13
-2.74811e-11
-6.29935e-18
2.83748e-13
-3.36261e-11
-5.0161e-18
3.43439e-13
-4.08817e-11
-3.91794e-18
4.12681e-13
-4.94035e-11
-2.37889e-18
4.92452e-13
-5.93707e-11
-1.61159e-18
5.83736e-13
-7.09796e-11
-9.57212e-19
6.87477e-13
-8.44385e-11
-6.58659e-19
8.04565e-13
-9.99996e-11
-4.79731e-19
9.35766e-13
-1.17906e-10
-3.22142e-19
1.08169e-12
-1.38452e-10
-3.87098e-19
1.24276e-12
-1.61946e-10
-4.50853e-19
1.41907e-12
-1.88718e-10
-3.10603e-19
1.61035e-12
-2.19128e-10
-6.88937e-20
1.81582e-12
-2.5356e-10
2.90739e-19
2.03411e-12
-2.92428e-10
4.79635e-19
2.26321e-12
-3.36153e-10
1.14626e-19
2.50038e-12
-3.8519e-10
1.08536e-19
2.74203e-12
-4.39989e-10
9.19176e-19
2.98356e-12
-5.00886e-10
1.36821e-18
3.21937e-12
-5.68588e-10
8.4817e-19
3.4428e-12
-6.4314e-10
-9.2077e-20
3.64627e-12
-7.2518e-10
-8.17469e-19
3.82136e-12
-8.14617e-10
-1.17452e-18
3.95898e-12
-9.11379e-10
-1.26214e-18
4.04972e-12
-1.0158e-09
-1.1153e-18
4.08427e-12
-1.12637e-09
-8.73626e-19
4.05399e-12
-1.24251e-09
-7.35515e-19
3.95176e-12
-1.36187e-09
-3.86584e-19
3.77283e-12
-1.48165e-09
-1.42746e-19
3.51566e-12
-1.59799e-09
7.12106e-20
3.18324e-12
-1.70417e-09
1.38479e-19
2.78381e-12
-1.79236e-09
1.2359e-19
2.33165e-12
-1.8517e-09
2.63592e-20
1.84757e-12
-1.86724e-09
-1.57955e-19
1.35841e-12
-1.81991e-09
-2.86509e-19
8.95574e-13
-1.68566e-09
-4.23399e-19
4.92793e-13
-1.43319e-09
-4.10473e-19
1.80278e-13
-1.02456e-09
-3.89053e-19
-4.11697e-10
-4.05027e-19
-3.31002e-20
-1.08493e-16
-5.20214e-20
6.45853e-18
-2.34769e-15
-2.41039e-19
4.38926e-17
-1.14594e-14
-1.59834e-19
1.49625e-16
-3.36938e-14
-1.23005e-18
4.10322e-16
-7.69827e-14
-7.19204e-19
9.24261e-16
-1.51206e-13
1.35868e-18
1.76427e-15
-2.68484e-13
2.29229e-19
3.10346e-15
-4.43569e-13
3.59375e-18
5.07654e-15
-6.94071e-13
2.99072e-18
7.89313e-15
-1.04123e-12
4.61833e-18
1.17656e-14
-1.50983e-12
3.53381e-18
1.69566e-14
-2.12924e-12
3.46753e-18
2.37735e-14
-2.93405e-12
2.52257e-18
3.25576e-14
-3.9637e-12
1.16273e-18
4.37317e-14
-5.2649e-12
5.78818e-19
5.77364e-14
-6.89023e-12
-9.11388e-19
7.50629e-14
-8.90082e-12
-3.32038e-18
9.62988e-14
-1.13663e-11
-3.15287e-18
1.22066e-13
-1.43661e-11
-3.6805e-18
1.53179e-13
-1.79892e-11
7.36364e-18
1.90303e-13
-2.23369e-11
8.41309e-18
2.34228e-13
-2.75251e-11
6.16415e-18
2.8587e-13
-3.36778e-11
4.36175e-18
3.46175e-13
-4.09421e-11
2.15989e-18
4.16133e-13
-4.94735e-11
1.76774e-18
4.96726e-13
-5.94514e-11
6.2843e-19
5.88945e-13
-7.10719e-11
4.08447e-19
6.93731e-13
-8.45433e-11
4.91402e-20
8.11972e-13
-1.00118e-10
-6.46867e-20
9.44433e-13
-1.18039e-10
-1.30706e-19
1.09173e-12
-1.38599e-10
-4.89337e-19
1.2543e-12
-1.62109e-10
-6.9809e-19
1.43226e-12
-1.88896e-10
-4.33538e-19
1.62533e-12
-2.19321e-10
1.61437e-19
1.83272e-12
-2.53767e-10
1.09427e-18
2.05298e-12
-2.92649e-10
1.58321e-18
2.28404e-12
-3.36384e-10
7.98659e-19
2.52319e-12
-3.85429e-10
8.50331e-19
2.76685e-12
-4.40232e-10
2.7629e-18
3.01041e-12
-5.01129e-10
3.64851e-18
3.24814e-12
-5.68826e-10
2.04345e-18
3.4733e-12
-6.43365e-10
-3.69743e-19
3.67822e-12
-7.25385e-10
-2.33029e-18
3.85443e-12
-8.14793e-10
-3.31908e-18
3.99279e-12
-9.11517e-10
-3.62946e-18
4.08379e-12
-1.01589e-09
-3.29392e-18
4.11804e-12
-1.1264e-09
-2.65498e-18
4.08676e-12
-1.24248e-09
-2.05286e-18
3.98279e-12
-1.36177e-09
-6.61049e-19
3.80132e-12
-1.48147e-09
4.53215e-19
3.5408e-12
-1.59773e-09
1.38248e-18
3.20427e-12
-1.70383e-09
1.69894e-18
2.80007e-12
-1.79196e-09
1.4795e-18
2.34264e-12
-1.85124e-09
8.72349e-19
1.85305e-12
-1.86675e-09
-9.28811e-20
1.3585e-12
-1.81941e-09
-9.26422e-19
8.90851e-13
-1.68519e-09
-1.76451e-18
4.84488e-13
-1.43278e-09
-2.21495e-18
1.70564e-13
-1.02424e-09
-2.5514e-18
-4.11527e-10
-2.77336e-18
-1.64183e-19
-1.08859e-16
-3.10151e-20
4.86596e-18
-2.35387e-15
-1.27615e-19
3.4899e-17
-1.1491e-14
-1.42375e-19
1.23387e-16
-3.37862e-14
-2.81521e-19
3.39887e-16
-7.71936e-14
2.89833e-19
7.68942e-16
-1.51619e-13
5.64061e-19
1.49346e-15
-2.69203e-13
-6.47231e-19
2.68803e-15
-4.44729e-13
2.31536e-18
4.47986e-15
-6.95834e-13
1.63178e-18
7.08118e-15
-1.0438e-12
3.2425e-18
1.07231e-14
-1.51344e-12
2.1927e-18
1.56757e-14
-2.13416e-12
2.68022e-18
2.22555e-14
-2.94059e-12
3.0107e-18
3.08136e-14
-3.97223e-12
2.66201e-18
4.17958e-14
-5.27585e-12
3.01732e-18
5.56602e-14
-6.90406e-12
3.89907e-18
7.2898e-14
-8.91806e-12
2.37387e-18
9.4161e-14
-1.13876e-11
5.99128e-18
1.20074e-13
-1.4392e-11
5.76836e-18
1.51363e-13
-1.80205e-11
4.99198e-18
1.8876e-13
-2.23744e-11
1.21772e-18
2.33111e-13
-2.75696e-11
-1.22104e-18
2.85351e-13
-3.37302e-11
-1.46233e-18
3.4644e-13
-4.10034e-11
-2.28579e-18
4.17398e-13
-4.95445e-11
-8.44574e-19
4.99223e-13
-5.95332e-11
-1.20063e-18
5.92928e-13
-7.11656e-11
-6.12175e-19
6.99466e-13
-8.46499e-11
-6.023e-19
8.19733e-13
-1.00238e-10
-4.36754e-19
9.54506e-13
-1.18173e-10
-2.10567e-19
1.10442e-12
-1.38749e-10
-5.74026e-19
1.26992e-12
-1.62274e-10
-7.38696e-19
1.45118e-12
-1.89077e-10
-1.94462e-19
1.64791e-12
-2.19518e-10
9.06184e-19
1.85928e-12
-2.53978e-10
2.54849e-18
2.08377e-12
-2.92873e-10
3.41132e-18
2.31921e-12
-3.36619e-10
2.16117e-18
2.5629e-12
-3.85673e-10
2.2512e-18
2.81126e-12
-4.40481e-10
5.34654e-18
3.05961e-12
-5.01377e-10
6.65522e-18
3.30205e-12
-5.69068e-10
3.6114e-18
3.53165e-12
-6.43594e-10
-6.80917e-19
3.74059e-12
-7.25594e-10
-4.25148e-18
3.92026e-12
-8.14973e-10
-6.10961e-18
4.06136e-12
-9.11658e-10
-6.76104e-18
4.1542e-12
-1.01599e-09
-6.20536e-18
4.18915e-12
-1.12644e-09
-5.01574e-18
4.15723e-12
-1.24245e-09
-3.64136e-18
4.05108e-12
-1.36166e-09
-9.55018e-19
3.86576e-12
-1.48128e-09
1.19489e-18
3.59966e-12
-1.59746e-09
2.94381e-18
3.25586e-12
-1.70349e-09
3.50955e-18
2.8428e-12
-1.79155e-09
3.00332e-18
2.37524e-12
-1.85077e-09
1.74804e-18
1.87472e-12
-1.86625e-09
-2.84874e-19
1.36918e-12
-1.81891e-09
-2.12551e-18
8.91468e-13
-1.68472e-09
-4.05566e-18
4.77459e-13
-1.43237e-09
-5.31193e-18
1.61573e-13
-1.02393e-09
-6.35745e-18
-4.11366e-10
-6.94015e-18
2.47156e-19
-1.09664e-16
-5.81235e-20
8.42986e-18
-2.36323e-15
4.10731e-19
3.6984e-17
-1.15248e-14
-5.30249e-19
1.32979e-16
-3.38916e-14
-1.00325e-18
3.55494e-16
-7.74106e-14
6.23211e-19
7.83754e-16
-1.52048e-13
-6.58615e-19
1.50722e-15
-2.69914e-13
-8.09e-20
2.69673e-15
-4.45879e-13
2.66361e-18
4.45267e-15
-6.9757e-13
1.5871e-18
7.00871e-15
-1.04633e-12
2.23296e-18
1.06044e-14
-1.51698e-12
3.42937e-18
1.5512e-14
-2.139e-12
4.38295e-18
2.2019e-14
-2.94706e-12
3.32505e-18
3.05173e-14
-3.98069e-12
3.70133e-18
4.14581e-14
-5.28673e-12
3.7069e-18
5.53214e-14
-6.91785e-12
5.26895e-18
7.25973e-14
-8.9353e-12
2.96617e-18
9.39813e-14
-1.14089e-11
8.37496e-18
1.20098e-13
-1.4418e-11
8.38816e-18
1.51694e-13
-1.8052e-11
1.10918e-17
1.89512e-13
-2.24122e-11
8.50827e-18
2.34436e-13
-2.76146e-11
6.50708e-18
2.8744e-13
-3.37833e-11
5.46525e-18
3.49516e-13
-4.10655e-11
2.76467e-18
4.21731e-13
-4.96168e-11
2.75139e-18
5.05119e-13
-5.96167e-11
6.94267e-19
6.00729e-13
-7.12612e-11
5.22826e-19
7.09539e-13
-8.47587e-11
3.50137e-20
8.32467e-13
-1.00361e-10
2.34068e-20
9.70317e-13
-1.18311e-10
2.68274e-19
1.12375e-12
-1.38903e-10
-2.39796e-19
1.29326e-12
-1.62444e-10
-4.24006e-19
1.47903e-12
-1.89263e-10
4.0908e-19
1.68081e-12
-2.1972e-10
2.04097e-18
1.89772e-12
-2.54195e-10
4.39599e-18
2.12815e-12
-2.93103e-10
5.57474e-18
2.36987e-12
-3.36861e-10
3.73189e-18
2.6201e-12
-3.85923e-10
3.77095e-18
2.87529e-12
-4.40736e-10
8.04459e-18
3.13063e-12
-5.01633e-10
9.83204e-18
3.38001e-12
-5.69317e-10
5.33863e-18
3.61624e-12
-6.43831e-10
-9.39915e-19
3.8313e-12
-7.25809e-10
-6.13103e-18
4.01636e-12
-8.15158e-10
-8.86784e-18
4.16186e-12
-9.11804e-10
-9.81015e-18
4.25783e-12
-1.01608e-09
-8.99938e-18
4.29433e-12
-1.12647e-09
-7.24805e-18
4.26203e-12
-1.24242e-09
-5.20143e-18
4.1533e-12
-1.36155e-09
-1.18599e-18
3.963e-12
-1.48109e-09
2.10882e-18
3.68938e-12
-1.59719e-09
4.83115e-18
3.33552e-12
-1.70314e-09
5.76465e-18
2.91005e-12
-1.79112e-09
4.97714e-18
2.42813e-12
-1.85029e-09
2.96485e-18
1.91197e-12
-1.86574e-09
-3.06737e-19
1.39057e-12
-1.81838e-09
-3.37498e-18
8.98288e-13
-1.68422e-09
-6.61114e-18
4.73206e-13
-1.43194e-09
-8.88693e-18
1.54075e-13
-1.02361e-09
-1.08361e-17
-4.11212e-10
-1.19367e-17
1.36e-17
-1.09299e-16
5.47071e-19
6.64203e-18
-2.37961e-15
-3.33269e-18
2.2262e-17
-1.15424e-14
1.93894e-18
9.02217e-17
-3.39665e-14
-4.71942e-19
2.67322e-16
-7.75713e-14
1.81915e-18
6.38558e-16
-1.52398e-13
2.25387e-18
1.27015e-15
-2.70521e-13
2.08803e-18
2.3402e-15
-4.46909e-13
3.59567e-18
3.95608e-15
-6.9916e-13
2.90373e-18
6.36669e-15
-1.04871e-12
3.44024e-18
9.80083e-15
-1.52037e-12
3.92223e-18
1.45516e-14
-2.14371e-12
4.22935e-18
2.09144e-14
-2.9534e-12
2.90768e-18
2.9292e-14
-3.98907e-12
1.30603e-18
4.01645e-14
-5.29757e-12
1.54809e-18
5.40293e-14
-6.93164e-12
2.6759e-18
7.13954e-14
-8.95262e-12
9.80012e-19
9.29977e-14
-1.14303e-11
7.97437e-18
1.19458e-13
-1.44443e-11
6.94817e-18
1.51546e-13
-1.8084e-11
9.26099e-18
1.90036e-13
-2.24506e-11
6.44135e-18
2.35849e-13
-2.76605e-11
4.88224e-18
2.8999e-13
-3.38375e-11
4.37051e-18
3.53495e-13
-4.11292e-11
1.93354e-18
4.27486e-13
-4.96909e-11
2.54207e-18
5.13036e-13
-5.97023e-11
2.73923e-19
6.11239e-13
-7.13595e-11
1.35183e-19
7.23106e-13
-8.48706e-11
-4.56116e-19
8.49589e-13
-1.00488e-10
-4.6885e-19
9.91524e-13
-1.18453e-10
3.31265e-20
1.14961e-12
-1.39061e-10
-3.90766e-19
1.32438e-12
-1.62619e-10
-3.20571e-19
1.51607e-12
-1.89454e-10
9.90101e-19
1.72444e-12
-2.19928e-10
3.29468e-18
1.94855e-12
-2.54418e-10
6.39817e-18
2.18673e-12
-2.93341e-10
7.86794e-18
2.43661e-12
-3.37111e-10
5.39532e-18
2.6954e-12
-3.86182e-10
5.34703e-18
2.9595e-12
-4.41e-10
1.07808e-17
3.22395e-12
-5.01897e-10
1.30344e-17
3.48239e-12
-5.69575e-10
7.1267e-18
3.72732e-12
-6.44075e-10
-1.0807e-18
3.95044e-12
-7.26032e-10
-7.8724e-18
4.14262e-12
-8.15351e-10
-1.14597e-17
4.294e-12
-9.11955e-10
-1.26908e-17
4.39422e-12
-1.01618e-09
-1.16248e-17
4.43293e-12
-1.12651e-09
-9.33377e-18
4.40038e-12
-1.24238e-09
-6.62109e-18
4.28857e-12
-1.36144e-09
-1.40949e-18
4.09208e-12
-1.4809e-09
2.90353e-18
3.80899e-12
-1.59691e-09
6.48304e-18
3.44237e-12
-1.70277e-09
7.721e-18
3.00108e-12
-1.79068e-09
6.65964e-18
2.50077e-12
-1.84979e-09
3.93728e-18
1.96454e-12
-1.8652e-09
-5.07459e-19
1.42276e-12
-1.81784e-09
-4.75146e-18
9.11736e-13
-1.68371e-09
-9.27113e-18
4.72383e-13
-1.4315e-09
-1.25933e-17
1.48108e-13
-1.02329e-09
-1.55343e-17
-4.11065e-10
-1.71541e-17
2.67113e-18
-1.09632e-16
-1.02016e-18
1.01671e-16
-2.37557e-15
4.76583e-18
4.20355e-17
-1.15845e-14
-9.85124e-18
1.13372e-16
-3.40902e-14
1.32203e-17
3.22098e-16
-7.7757e-14
3.80546e-18
7.37257e-16
-1.52774e-13
4.29868e-18
1.39117e-15
-2.71153e-13
3.339e-18
2.47804e-15
-4.47968e-13
2.84204e-18
4.10398e-15
-7.00754e-13
4.14985e-18
6.52296e-15
-1.0511e-12
4.59939e-18
9.9323e-15
-1.52376e-12
3.93685e-18
1.46454e-14
-2.14841e-12
2.94951e-18
2.09773e-14
-2.95974e-12
2.84555e-18
2.93334e-14
-3.99745e-12
1.85505e-19
4.02127e-14
-5.30843e-12
8.61451e-19
5.41327e-14
-6.94551e-12
1.66281e-18
7.16317e-14
-8.97008e-12
-6.11436e-19
9.34921e-14
-1.14521e-11
7.40828e-18
1.2034e-13
-1.4471e-11
6.25268e-18
1.52976e-13
-1.81165e-11
8.77321e-18
1.92237e-13
-2.24899e-11
8.42086e-18
2.39087e-13
-2.77073e-11
9.0872e-18
2.94567e-13
-3.3893e-11
8.48686e-18
3.59764e-13
-4.11945e-11
4.55311e-18
4.35868e-13
-4.9767e-11
3.8369e-18
5.24006e-13
-5.97904e-11
-3.49378e-20
6.25327e-13
-7.14608e-11
-7.74141e-19
7.40889e-13
-8.49861e-11
-1.60156e-18
8.71684e-13
-1.00619e-10
-1.49865e-18
1.01859e-12
-1.186e-10
-5.91302e-19
1.18235e-12
-1.39225e-10
-8.07197e-19
1.36355e-12
-1.628e-10
-3.71293e-19
1.56248e-12
-1.89653e-10
1.53135e-18
1.77889e-12
-2.20144e-10
4.60181e-18
2.01183e-12
-2.54651e-10
8.50459e-18
2.25948e-12
-2.93589e-10
1.02562e-17
2.5194e-12
-3.37371e-10
7.11169e-18
2.78872e-12
-3.86452e-10
6.9378e-18
3.06378e-12
-4.41275e-10
1.3508e-17
3.33943e-12
-5.02172e-10
1.62499e-17
3.609e-12
-5.69845e-10
8.9715e-18
3.86466e-12
-6.44331e-10
-1.14485e-18
4.09773e-12
-7.26266e-10
-9.49677e-18
4.29875e-12
-8.15552e-10
-1.39051e-17
4.45744e-12
-9.12114e-10
-1.53764e-17
4.563e-12
-1.01629e-09
-1.40338e-17
4.60456e-12
-1.12655e-09
-1.12457e-17
4.57187e-12
-1.24235e-09
-8.03463e-18
4.4565e-12
-1.36133e-09
-1.60591e-18
4.25264e-12
-1.48069e-09
3.84407e-18
3.95819e-12
-1.59661e-09
8.43989e-18
3.57621e-12
-1.70239e-09
1.00973e-17
3.1158e-12
-1.79022e-09
8.78293e-18
2.59321e-12
-1.84927e-09
5.27934e-18
2.03264e-12
-1.86464e-09
-4.54902e-19
1.46612e-12
-1.81728e-09
-6.01747e-18
9.32344e-13
-1.68318e-09
-1.19421e-17
4.75536e-13
-1.43105e-09
-1.641e-17
1.43852e-13
-1.02296e-09
-2.04018e-17
-4.10922e-10
-2.261e-17
2.74427e-18
-1.09952e-16
-9.40272e-19
9.936e-17
-2.37835e-15
3.69391e-18
2.39294e-17
-1.16659e-14
-1.7023e-17
6.46217e-17
-3.43348e-14
-6.5247e-18
2.27811e-16
-7.79132e-14
2.02472e-18
5.93755e-16
-1.531e-13
5.67078e-18
1.18137e-15
-2.71744e-13
8.08609e-19
2.1916e-15
-4.49e-13
-1.70274e-18
3.73655e-15
-7.02318e-13
-2.77085e-19
6.10629e-15
-1.05348e-12
1.76987e-18
9.4659e-15
-1.52713e-12
9.47241e-19
1.41656e-14
-2.15314e-12
3.84527e-19
2.05098e-14
-2.96612e-12
7.36611e-20
2.89294e-14
-4.00593e-12
-2.43359e-18
3.99219e-14
-5.31945e-12
-2.48784e-18
5.40252e-14
-6.95963e-12
-2.89256e-18
7.18215e-14
-8.9879e-12
-5.51282e-18
9.41247e-14
-1.14743e-11
1.96931e-18
1.21574e-13
-1.44984e-11
3.48441e-19
1.55028e-13
-1.81499e-11
5.84374e-18
1.95351e-13
-2.25302e-11
5.38743e-18
2.43559e-13
-2.77556e-11
6.46019e-18
3.00743e-13
-3.39503e-11
6.35979e-18
3.68049e-13
-4.12619e-11
2.92769e-18
4.46748e-13
-4.98458e-11
3.03576e-18
5.38022e-13
-5.98817e-11
-1.14688e-18
6.43088e-13
-7.15658e-11
-2.07071e-18
7.63058e-13
-8.51061e-11
-3.20594e-18
8.98977e-13
-1.00754e-10
-3.20812e-18
1.05178e-12
-1.18753e-10
-1.956e-18
1.22225e-12
-1.39396e-10
-1.91562e-18
1.41106e-12
-1.62989e-10
-9.45501e-19
1.61853e-12
-1.89861e-10
1.70953e-18
1.84442e-12
-2.20369e-10
5.69961e-18
2.08774e-12
-2.54894e-10
1.04939e-17
2.34658e-12
-2.93847e-10
1.25808e-17
2.61835e-12
-3.37643e-10
8.77168e-18
2.90011e-12
-3.86734e-10
8.4605e-18
3.18809e-12
-4.41563e-10
1.61595e-17
3.47697e-12
-5.02461e-10
1.94157e-17
3.75969e-12
-5.70127e-10
1.08078e-17
4.02804e-12
-6.44599e-10
-1.17748e-18
4.27292e-12
-7.26511e-10
-1.10488e-17
4.48443e-12
-8.15764e-10
-1.62356e-17
4.65184e-12
-9.12281e-10
-1.79207e-17
4.76378e-12
-1.0164e-09
-1.62892e-17
4.80883e-12
-1.1266e-09
-1.2997e-17
4.77613e-12
-1.24232e-09
-9.2274e-18
4.65671e-12
-1.36121e-09
-1.7204e-18
4.44437e-12
-1.48048e-09
4.72146e-18
4.13674e-12
-1.5963e-09
1.01953e-17
3.73687e-12
-1.70199e-09
1.21969e-17
3.25414e-12
-1.78974e-09
1.06357e-17
2.70555e-12
-1.84872e-09
6.41558e-18
2.11652e-12
-1.86405e-09
-5.05261e-19
1.52104e-12
-1.81668e-09
-7.27895e-18
9.6058e-13
-1.68262e-09
-1.45178e-17
4.83085e-13
-1.43057e-09
-2.00777e-17
1.41477e-13
-1.02261e-09
-2.51007e-17
-4.10781e-10
-2.78143e-17
1.91546e-18
-1.10209e-16
2.45435e-19
-7.00152e-18
-2.38418e-15
-1.267e-18
7.17035e-17
-1.16446e-14
-1.25518e-17
9.8074e-16
-3.42373e-14
6.38506e-17
4.94223e-16
-7.81888e-14
-5.93361e-17
6.44983e-16
-1.5363e-13
5.07014e-17
1.28334e-15
-2.72384e-13
2.46516e-18
2.36985e-15
-4.50072e-13
-3.86841e-18
3.92362e-15
-7.0395e-13
-6.68964e-18
6.3453e-15
-1.0559e-12
1.82231e-18
9.74132e-15
-1.53055e-12
-2.35772e-19
1.45042e-14
-2.15791e-12
1.19985e-18
2.09141e-14
-2.97257e-12
-5.1979e-19
2.94448e-14
-4.01452e-12
-2.2033e-18
4.05892e-14
-5.33064e-12
-3.03636e-18
5.49169e-14
-6.97401e-12
-4.21627e-18
7.30609e-14
-9.00608e-12
-7.00358e-18
9.58738e-14
-1.1497e-11
3.27258e-20
1.24029e-13
-1.45265e-11
-1.09265e-18
1.5843e-13
-1.81842e-11
4.58816e-18
1.99998e-13
-2.25718e-11
6.27021e-18
2.49802e-13
-2.78055e-11
9.54307e-18
3.08982e-13
-3.40096e-11
9.4343e-18
3.78752e-13
-4.13318e-11
4.48747e-18
4.60468e-13
-4.99276e-11
3.11203e-18
5.55382e-13
-5.99766e-11
-2.92713e-18
6.6479e-13
-7.16751e-11
-4.61636e-18
7.89865e-13
-8.52311e-11
-6.04311e-18
9.31713e-13
-1.00896e-10
-5.85801e-18
1.09133e-12
-1.18913e-10
-4.00945e-18
1.26956e-12
-1.39574e-10
-3.5433e-18
1.46713e-12
-1.63187e-10
-1.94296e-18
1.68443e-12
-1.90078e-10
1.54187e-18
1.92124e-12
-2.20606e-10
6.51328e-18
2.17651e-12
-2.55149e-10
1.22506e-17
2.4482e-12
-2.94119e-10
1.47011e-17
2.7336e-12
-3.37929e-10
1.02457e-17
3.02967e-12
-3.87031e-10
9.80329e-18
3.33254e-12
-4.41866e-10
1.86297e-17
3.63661e-12
-5.02764e-10
2.24329e-17
3.93447e-12
-5.70424e-10
1.25607e-17
4.21741e-12
-6.44882e-10
-1.23793e-18
4.47589e-12
-7.26769e-10
-1.25682e-17
4.69951e-12
-8.15988e-10
-1.84858e-17
4.87698e-12
-9.12459e-10
-2.03377e-17
4.99634e-12
-1.01652e-09
-1.83951e-17
5.04547e-12
-1.12665e-09
-1.46028e-17
5.01286e-12
-1.24229e-09
-1.03123e-17
4.88894e-12
-1.36108e-09
-1.69501e-18
4.66702e-12
-1.48026e-09
5.83228e-18
4.34444e-12
-1.59598e-09
1.23212e-17
3.92422e-12
-1.70157e-09
1.47611e-17
3.41609e-12
-1.78923e-09
1.29753e-17
2.83785e-12
-1.84814e-09
7.98477e-18
2.21636e-12
-1.86343e-09
-2.01105e-19
1.58781e-12
-1.81605e-09
-8.27836e-18
9.96769e-13
-1.68203e-09
-1.68921e-17
4.95279e-13
-1.43007e-09
-2.35844e-17
1.41047e-13
-1.02226e-09
-2.96298e-17
-4.10641e-10
-3.289e-17
2.72434e-18
-1.10489e-16
3.98259e-19
-3.58565e-18
-2.38906e-15
-6.38953e-19
5.7991e-17
-1.16683e-14
-2.00814e-17
9.27088e-16
-3.42734e-14
4.21264e-17
3.84764e-16
-7.87623e-14
-1.06516e-16
5.01156e-16
-1.54738e-13
-3.09663e-17
1.05598e-15
-2.73024e-13
-4.54578e-18
2.12541e-15
-4.51088e-13
1.1067e-17
3.70343e-15
-7.05562e-13
-3.96819e-18
6.14376e-15
-1.05836e-12
-4.1953e-18
9.58662e-15
-1.53405e-12
-6.29296e-18
1.44529e-14
-2.16281e-12
-2.60999e-18
2.10083e-14
-2.97919e-12
-4.76536e-18
2.97758e-14
-4.02335e-12
-3.79154e-18
4.12195e-14
-5.34215e-12
-5.25567e-18
5.59485e-14
-6.98881e-12
-5.52521e-18
7.46237e-14
-9.02483e-12
-9.01121e-18
9.81337e-14
-1.15205e-11
-3.36229e-18
1.27217e-13
-1.45556e-11
-4.45572e-18
1.62849e-13
-1.82198e-11
3.85625e-18
2.05958e-13
-2.26149e-11
4.9311e-18
2.57675e-13
-2.78572e-11
8.39431e-18
3.19213e-13
-3.40712e-11
8.47246e-18
3.91864e-13
-4.14046e-11
3.64681e-18
4.77078e-13
-5.00128e-11
2.64753e-18
5.76187e-13
-6.00757e-11
-4.09939e-18
6.90569e-13
-7.17894e-11
-6.27038e-18
8.21473e-13
-8.53619e-11
-8.25561e-18
9.70073e-13
-1.01045e-10
-8.33393e-18
1.13743e-12
-1.19081e-10
-6.20965e-18
1.32447e-12
-1.39761e-10
-5.50478e-18
1.53197e-12
-1.63395e-10
-3.31488e-18
1.7604e-12
-1.90306e-10
9.96884e-19
2.00956e-12
-2.20855e-10
6.97566e-18
2.27831e-12
-2.55417e-10
1.36761e-17
2.56453e-12
-2.94405e-10
1.65176e-17
2.86534e-12
-3.3823e-10
1.14371e-17
3.17758e-12
-3.87344e-10
1.08788e-17
3.49724e-12
-4.42186e-10
2.08364e-17
3.81847e-12
-5.03085e-10
2.52264e-17
4.1334e-12
-5.70739e-10
1.41731e-17
4.43282e-12
-6.45181e-10
-1.36522e-18
4.70665e-12
-7.27043e-10
-1.40808e-17
4.94395e-12
-8.16225e-10
-2.06654e-17
5.13281e-12
-9.12648e-10
-2.26443e-17
5.26058e-12
-1.01665e-09
-2.03685e-17
5.31438e-12
-1.1267e-09
-1.6041e-17
5.28195e-12
-1.24225e-09
-1.11232e-17
5.15306e-12
-1.36096e-09
-1.50456e-18
4.92047e-12
-1.48003e-09
6.96309e-18
4.58119e-12
-1.59564e-09
1.43136e-17
4.13822e-12
-1.70112e-09
1.71053e-17
3.60165e-12
-1.78869e-09
1.5091e-17
2.99019e-12
-1.84753e-09
9.3981e-18
2.3323e-12
-1.86277e-09
6.62864e-20
1.66662e-12
-1.81539e-09
-9.18378e-18
1.04113e-12
-1.6814e-09
-1.90559e-17
5.1225e-13
-1.42954e-09
-2.67936e-17
1.42551e-13
-1.02189e-09
-3.3804e-17
-4.10499e-10
-3.75348e-17
1.72036e-18
-1.10758e-16
2.0565e-19
-3.30769e-18
-2.3955e-15
-8.05343e-19
2.16513e-17
-1.16958e-14
2.02824e-19
1.08062e-16
-3.4357e-14
-2.14026e-18
5.71851e-16
-7.85847e-14
-2.838e-17
3.50934e-15
-1.54336e-13
2.21284e-16
1.93255e-15
-2.73954e-13
-1.65463e-16
2.28006e-15
-4.52662e-13
1.37615e-16
4.03195e-15
-7.07175e-13
3.54066e-17
6.55481e-15
-1.06081e-12
-8.21703e-18
1.00905e-14
-1.53759e-12
-7.70977e-18
1.50619e-14
-2.16776e-12
-1.401e-18
2.17838e-14
-2.98595e-12
-4.59447e-18
3.07982e-14
-4.03237e-12
-3.07989e-18
4.25694e-14
-5.35398e-12
-5.43894e-18
5.77445e-14
-7.00406e-12
-5.43497e-18
7.70192e-14
-9.04422e-12
-9.64821e-18
1.01321e-13
-1.15448e-11
-5.49501e-18
1.31483e-13
-1.45857e-11
-5.27085e-18
1.68528e-13
-1.82567e-11
4.12671e-18
2.13409e-13
-2.26597e-11
6.48801e-18
2.67325e-13
-2.79112e-11
1.18252e-17
3.31567e-13
-3.41356e-11
1.21055e-17
4.0751e-13
-4.14806e-11
5.89611e-18
4.967e-13
-5.0102e-11
3.33812e-18
6.00557e-13
-6.01796e-11
-5.48812e-18
7.20555e-13
-7.19093e-11
-8.66213e-18
8.58024e-13
-8.54993e-11
-1.11893e-17
1.01421e-12
-1.01201e-10
-1.12591e-17
1.19026e-12
-1.19257e-10
-8.66937e-18
1.38716e-12
-1.39959e-10
-7.63502e-18
1.60579e-12
-1.63613e-10
-4.87062e-18
1.84666e-12
-1.90547e-10
2.32858e-19
2.10958e-12
-2.21117e-10
7.17086e-18
2.39339e-12
-2.557e-10
1.48016e-17
2.6958e-12
-2.94707e-10
1.80089e-17
3.01378e-12
-3.38549e-10
1.23069e-17
3.34404e-12
-3.87675e-10
1.16409e-17
3.68241e-12
-4.42525e-10
2.27309e-17
4.02273e-12
-5.03425e-10
2.77476e-17
4.35664e-12
-5.71072e-10
1.56018e-17
4.6744e-12
-6.45499e-10
-1.59209e-18
4.96533e-12
-7.27335e-10
-1.56091e-17
5.21787e-12
-8.16478e-10
-2.27945e-17
5.41942e-12
-9.1285e-10
-2.48442e-17
5.55655e-12
-1.01678e-09
-2.22093e-17
5.61559e-12
-1.12676e-09
-1.73479e-17
5.58343e-12
-1.24222e-09
-1.18107e-17
5.44908e-12
-1.36082e-09
-1.12677e-18
5.20474e-12
-1.47978e-09
8.38794e-18
4.84703e-12
-1.59528e-09
1.67312e-17
4.37891e-12
-1.70066e-09
1.99586e-17
3.81091e-12
-1.78812e-09
1.7735e-17
3.1627e-12
-1.84688e-09
1.12939e-17
2.46452e-12
-1.86207e-09
7.52974e-19
1.75766e-12
-1.81468e-09
-9.74026e-18
1.0938e-12
-1.68074e-09
-2.0913e-17
5.34049e-13
-1.42898e-09
-2.97149e-17
1.45945e-13
-1.02151e-09
-3.76675e-17
-4.10354e-10
-4.18867e-17
3.74809e-18
-1.11005e-16
4.53879e-19
5.31432e-18
-2.40191e-15
8.80307e-20
2.11711e-17
-1.17236e-14
-3.49166e-19
6.79726e-17
-3.44372e-14
-6.08096e-18
4.97444e-16
-7.87123e-14
-6.98929e-17
3.35717e-15
-1.54559e-13
1.37009e-16
1.73773e-15
-2.75914e-13
-3.14386e-16
2.29658e-15
-4.55796e-13
-5.88011e-17
3.8225e-15
-7.09041e-13
-1.82224e-17
6.40365e-15
-1.06337e-12
1.01309e-17
1.01549e-14
-1.54125e-12
3.84478e-18
1.53399e-14
-2.17291e-12
-1.71136e-18
2.23454e-14
-2.99297e-12
-3.59273e-18
3.17383e-14
-4.04174e-12
-7.90035e-19
4.39884e-14
-5.36626e-12
-3.98836e-18
5.97747e-14
-7.01991e-12
-4.71108e-18
7.98413e-14
-9.06439e-12
-9.16373e-18
1.05148e-13
-1.15701e-11
-7.03495e-18
1.3662e-13
-1.46171e-11
-6.88877e-18
1.75333e-13
-1.82953e-11
2.77264e-18
2.22263e-13
-2.27066e-11
3.14803e-18
2.78702e-13
-2.79677e-11
8.70439e-18
3.46028e-13
-3.4203e-11
9.89445e-18
4.25704e-13
-4.15605e-11
4.53165e-18
5.19379e-13
-5.01958e-11
2.87803e-18
6.28567e-13
-6.02887e-11
-6.31654e-18
7.54847e-13
-7.20355e-11
-9.81466e-18
8.99637e-13
-8.5644e-11
-1.29295e-17
1.06427e-12
-1.01366e-10
-1.33769e-17
1.24998e-12
-1.19443e-10
-1.0684e-17
1.45782e-12
-1.40167e-10
-9.59674e-18
1.68877e-12
-1.63845e-10
-6.41845e-18
1.9434e-12
-1.90802e-10
-6.47305e-19
2.22154e-12
-2.21395e-10
7.16194e-18
2.52196e-12
-2.56e-10
1.56508e-17
2.84224e-12
-2.95027e-10
1.91845e-17
3.17917e-12
-3.38886e-10
1.28524e-17
3.52931e-12
-3.88026e-10
1.20773e-17
3.88831e-12
-4.42884e-10
2.42876e-17
4.24964e-12
-5.03785e-10
2.99641e-17
4.60447e-12
-5.71426e-10
1.68169e-17
4.94241e-12
-6.45836e-10
-1.94553e-18
5.25217e-12
-7.27645e-10
-1.7179e-17
5.52148e-12
-8.16748e-10
-2.48965e-17
5.737e-12
-9.13065e-10
-2.6969e-17
5.88446e-12
-1.01693e-09
-2.3948e-17
5.94927e-12
-1.12682e-09
-1.8513e-17
5.91743e-12
-1.24219e-09
-1.22612e-17
5.77714e-12
-1.36068e-09
-5.79806e-19
5.51995e-12
-1.47953e-09
9.86507e-18
5.14207e-12
-1.59491e-09
1.9057e-17
4.64644e-12
-1.70016e-09
2.26329e-17
4.044e-12
-1.78752e-09
2.01927e-17
3.35553e-12
-1.84619e-09
1.30675e-17
2.61316e-12
-1.86133e-09
1.43152e-18
1.86107e-12
-1.81393e-09
-1.01791e-17
1.1549e-12
-1.68003e-09
-2.25323e-17
5.60683e-13
-1.42839e-09
-3.23118e-17
1.51164e-13
-1.0211e-09
-4.11462e-17
-4.10204e-10
-4.57748e-17
2.91356e-18
-1.11259e-16
3.29333e-19
1.10097e-17
-2.40778e-15
7.11475e-19
4.19261e-17
-1.17536e-14
5.54327e-19
9.05189e-17
-3.45371e-14
-5.84801e-18
2.09648e-16
-7.89235e-14
-1.07827e-17
6.32874e-16
-1.54961e-13
-1.00918e-17
2.14035e-15
-2.75371e-13
-2.92132e-17
9.00158e-15
-4.54901e-13
5.14135e-16
5.88008e-15
-7.107e-13
-4.10898e-16
6.80809e-15
-1.06602e-12
1.49798e-16
1.07164e-14
-1.54514e-12
4.33613e-17
1.61056e-14
-2.17827e-12
-6.2883e-18
2.34137e-14
-3.0003e-12
-7.25983e-18
3.31777e-14
-4.05151e-12
-1.87055e-18
4.59475e-14
-5.37907e-12
-3.31633e-18
6.23886e-14
-7.03644e-12
-7.28558e-18
8.33478e-14
-9.08544e-12
-9.06e-18
1.09796e-13
-1.15966e-11
-8.78816e-18
1.42745e-13
-1.465e-11
-7.56221e-18
1.83326e-13
-1.83358e-11
2.48416e-18
2.32572e-13
-2.27559e-11
4.47102e-18
2.9186e-13
-2.8027e-11
1.2201e-17
3.62654e-13
-3.42739e-11
1.38947e-17
4.46507e-13
-4.16445e-11
7.51938e-18
5.4518e-13
-5.02945e-11
4.5781e-18
6.6029e-13
-6.04038e-11
-6.54874e-18
7.93531e-13
-7.21686e-11
-1.105e-17
9.46419e-13
-8.57968e-11
-1.48395e-17
1.12038e-12
-1.0154e-10
-1.54638e-17
1.31673e-12
-1.19639e-10
-1.25381e-17
1.53663e-12
-1.40387e-10
-1.13607e-17
1.78112e-12
-1.6409e-10
-7.84443e-18
2.05086e-12
-1.91071e-10
-1.50544e-18
2.34569e-12
-2.21689e-10
7.05479e-18
2.66431e-12
-2.56318e-10
1.63056e-17
3.00416e-12
-2.95366e-10
2.0087e-17
3.36184e-12
-3.39245e-10
1.30955e-17
3.73374e-12
-3.88399e-10
1.2194e-17
4.11528e-12
-4.43266e-10
2.54972e-17
4.49957e-12
-5.04169e-10
3.18574e-17
4.87722e-12
-5.71803e-10
1.77975e-17
5.2372e-12
-6.46196e-10
-2.44699e-18
5.5675e-12
-7.27975e-10
-1.88158e-17
5.85512e-12
-8.17036e-10
-2.70028e-17
6.08588e-12
-9.13296e-10
-2.90441e-17
6.2446e-12
-1.01709e-09
-2.56052e-17
6.31572e-12
-1.12689e-09
-1.95997e-17
6.28424e-12
-1.24216e-09
-1.26449e-17
6.13751e-12
-1.36053e-09
1.29432e-19
5.86636e-12
-1.47925e-09
1.16308e-17
5.46656e-12
-1.59451e-09
2.18079e-17
4.94101e-12
-1.69963e-09
2.58165e-17
4.30113e-12
-1.78688e-09
2.31832e-17
3.56888e-12
-1.84546e-09
1.53405e-17
2.77841e-12
-1.86054e-09
2.56074e-18
1.97699e-12
-1.81313e-09
-1.02228e-17
1.22448e-12
-1.67928e-09
-2.37891e-17
5.92133e-13
-1.42776e-09
-3.45596e-17
1.5814e-13
-1.02066e-09
-4.42519e-17
-4.10047e-10
-4.93135e-17
3.54941e-18
-1.11548e-16
4.00207e-19
1.73654e-17
-2.41377e-15
1.38121e-18
4.92445e-17
-1.17846e-14
7.06501e-19
7.39521e-17
-3.46389e-14
-8.72894e-18
1.78126e-16
-7.91385e-14
-9.01481e-18
5.32108e-16
-1.55399e-13
-1.50666e-17
2.05679e-15
-2.75836e-13
-1.68144e-16
9.13727e-15
-4.55603e-13
3.11959e-16
5.79032e-15
-7.12639e-13
-4.67003e-16
6.80924e-15
-1.06881e-12
1.70803e-16
1.09998e-14
-1.54918e-12
5.87968e-17
1.66961e-14
-2.18388e-12
-2.8329e-18
2.43962e-14
-3.00795e-12
-2.59945e-18
3.46597e-14
-4.06171e-12
3.31877e-18
4.80676e-14
-5.39248e-12
3.39012e-19
6.53062e-14
-7.05376e-12
-7.48038e-18
8.73181e-14
-9.10754e-12
-9.11273e-18
1.15092e-13
-1.16244e-11
-1.19369e-17
1.49727e-13
-1.46846e-11
-1.095e-17
1.92438e-13
-1.83783e-11
1.67199e-18
2.44303e-13
-2.28077e-11
3.39164e-18
3.06787e-13
-2.80896e-11
1.14332e-17
3.81445e-13
-3.43487e-11
1.33216e-17
4.69935e-13
-4.17331e-11
7.25627e-18
5.7414e-13
-5.03987e-11
4.90587e-18
6.95788e-13
-6.05254e-11
-6.62537e-18
8.36694e-13
-7.23094e-11
-1.13953e-17
9.9848e-13
-8.59585e-11
-1.573e-17
1.18267e-12
-1.01724e-10
-1.67465e-17
1.39069e-12
-1.19848e-10
-1.38259e-17
1.62377e-12
-1.40621e-10
-1.27616e-17
1.88306e-12
-1.64349e-10
-9.04332e-18
2.16928e-12
-1.91358e-10
-2.27147e-18
2.48229e-12
-2.22001e-10
6.91836e-18
2.82074e-12
-2.56655e-10
1.68215e-17
3.18189e-12
-2.95727e-10
2.07709e-17
3.56214e-12
-3.39626e-10
1.30861e-17
3.9577e-12
-3.88795e-10
1.20266e-17
4.36373e-12
-4.43672e-10
2.63745e-17
4.77295e-12
-5.04578e-10
3.34226e-17
5.17536e-12
-5.72205e-10
1.85298e-17
5.55923e-12
-6.4658e-10
-3.11382e-18
5.9118e-12
-7.28328e-10
-2.05422e-17
6.21926e-12
-8.17344e-10
-2.91404e-17
6.46653e-12
-9.13544e-10
-3.11108e-17
6.63744e-12
-1.01726e-09
-2.72255e-17
6.71537e-12
-1.12697e-09
-2.06059e-17
6.68429e-12
-1.24213e-09
-1.28712e-17
6.53058e-12
-1.36038e-09
9.56262e-19
6.24433e-12
-1.47897e-09
1.34226e-17
5.82083e-12
-1.59408e-09
2.44522e-17
5.26294e-12
-1.69908e-09
2.88132e-17
4.5826e-12
-1.7862e-09
2.59832e-17
3.80298e-12
-1.84468e-09
1.74869e-17
2.96045e-12
-1.8597e-09
3.67849e-18
2.10556e-12
-1.81227e-09
-1.01513e-17
1.30261e-12
-1.67848e-09
-2.48125e-17
6.28366e-13
-1.42708e-09
-3.64872e-17
1.66805e-13
-1.0202e-09
-4.69773e-17
-4.09882e-10
-5.24043e-17
2.93619e-18
-1.11875e-16
3.1512e-19
1.26513e-17
-2.42084e-15
7.02404e-19
4.71154e-17
-1.18173e-14
7.92087e-19
8.89225e-17
-3.47369e-14
-5.93515e-18
2.43029e-16
-7.93589e-14
-5.59788e-18
6.56364e-16
-1.55834e-13
-1.04785e-17
2.23059e-15
-2.76636e-13
-1.34362e-16