/*--------------------------------*- C++ -*----------------------------------*\
| =========                 |                                                 |
| \\      /  F ield         | OpenFOAM: The Open Source CFD Toolbox           |
|  \\    /   O peration     | Version:  v2012                                 |
|   \\  /    A nd           | Website:  www.openfoam.com                      |
|    \\/     M anipulation  |                                                 |
\*---------------------------------------------------------------------------*/
FoamFile
{
    version     2.0;
    format      ascii;
    class       volScalarField;
    location    "0.65";
    object      alpha.water;
}
// * * * * * * * * * * * * * * * * * * * * * * * * * * * * * * * * * * * * * //

dimensions      [0 0 0 0 0 0 0];


internalField   nonuniform List<scalar> 
3352
(
1.00003
1
0.999991
1
1
0.999977
0.9999
0.999859
0.999969
0.996061
0.87099
0.41485
0.0585182
0.00194787
2.65499e-05
2.31246e-07
1.44388e-09
4.06036e-12
1.67037e-16
4.74967e-19
1.13158e-21
2.22909e-24
3.55248e-27
4.4335e-30
4.12116e-33
2.62382e-36
9.67117e-40
1.20956e-43
-2.43817e-59
3.53305e-92
1.23827e-96
1.27728e-100
3.31872e-106
1.61644e-105
1.81904e-102
1.92248e-99
2.96542e-95
1.0186e-93
7.75383e-78
1.00004
0.999999
0.99999
1.00001
1
0.999975
0.999885
0.999825
0.999966
0.998026
0.8964
0.461559
0.0728459
0.00266665
3.78278e-05
3.35778e-07
1.77684e-09
2.0169e-12
3.21739e-16
5.95684e-19
1.43627e-21
2.84748e-24
4.53952e-27
5.62585e-30
5.14136e-33
3.16623e-36
1.08943e-39
1.07036e-43
-2.20944e-61
4.09895e-92
1.26441e-96
1.26716e-100
3.262e-106
1.52182e-112
3.55279e-118
-2.17348e-115
9.15843e-115
1.9989e-93
8.66926e-92
1.00004
1
0.99999
1
1
0.999974
0.999878
0.999804
0.999913
0.998764
0.90894
0.488411
0.0823024
0.00318594
4.59112e-05
4.08784e-07
2.04486e-09
1.91386e-12
1.4392e-15
7.82424e-19
1.90831e-21
3.81142e-24
6.08872e-27
7.50517e-30
6.74488e-33
4.00299e-36
1.26435e-39
8.34074e-44
2.10945e-59
4.26922e-92
1.26801e-96
1.14464e-100
2.78723e-106
1.51972e-112
3.58605e-119
3.29234e-122
3.0378e-122
1.34464e-119
2.10135e-113
1.00004
1
0.999992
1
0.999999
0.999973
0.999868
0.999779
0.999881
0.999383
0.922239
0.519612
0.0942831
0.00389435
5.71432e-05
5.10167e-07
2.42957e-09
2.4106e-12
1.90787e-15
1.04659e-18
2.56733e-21
5.13218e-24
8.15112e-27
9.89184e-30
8.61516e-33
4.80852e-36
1.31774e-39
2.99063e-44
-1.10334e-61
4.49292e-92
1.26837e-96
1.00136e-100
2.3543e-106
1.56376e-112
2.82321e-119
3.4984e-127
3.45468e-125
2.88969e-116
2.09621e-113
1.00004
1
0.999993
1
0.999998
0.999972
0.999857
0.999752
0.999844
0.999748
0.933826
0.550246
0.107335
0.0047357
7.07873e-05
6.32967e-07
2.93535e-09
2.95743e-12
1.59181e-15
1.33626e-18
3.29457e-21
6.5819e-24
1.03606e-26
1.23047e-29
1.02674e-32
5.25692e-36
1.15382e-39
-2.47026e-45
-6.59045e-59
5.02603e-92
1.26304e-96
8.66058e-101
1.98809e-106
1.89865e-112
2.55315e-119
2.76233e-127
1.12157e-126
5.14434e-122
1.97291e-120
1.00004
1
0.999993
1
0.999998
0.999971
0.999845
0.999722
0.999803
0.999886
0.944288
0.58134
0.121997
0.00576834
8.80364e-05
7.87582e-07
3.60225e-09
3.59161e-12
-1.66931e-15
-5.165e-18
-1.1133e-20
-2.13863e-23
-3.56026e-26
-4.95039e-29
-5.46747e-32
-4.45823e-35
-2.24239e-38
-4.77561e-42
1.71556e-88
5.16943e-92
1.24913e-96
7.34905e-101
1.69779e-106
2.61855e-112
2.41527e-119
2.76229e-127
2.54383e-139
7.38876e-143
1.42661e-138
1.00004
1
0.999992
1
0.999998
0.999969
0.999828
0.999688
0.999759
0.999914
0.953618
0.612642
0.138397
0.00703672
0.000110014
9.84412e-07
4.49573e-09
4.31227e-12
-2.45882e-15
-7.55867e-18
-1.63949e-20
-3.18476e-23
-5.33687e-26
-7.39309e-29
-8.02346e-32
-6.06892e-35
-2.72907e-38
-3.45404e-42
1.82904e-88
5.35234e-92
1.22879e-96
6.15274e-101
1.49266e-106
3.55086e-112
2.38307e-119
2.97981e-127
3.34532e-139
7.25473e-143
4.7149e-140
1.00004
0.999999
0.999992
1
0.999997
0.999967
0.999809
0.99965
0.999708
0.999914
0.961947
0.644261
0.156845
0.00860873
0.000138397
1.23819e-06
5.6927e-09
5.11613e-12
-3.23463e-15
-9.93231e-18
-2.19027e-20
-4.29958e-23
-7.22754e-26
-9.94397e-29
-1.01908e-31
-7.13334e-35
-2.68364e-38
-5.61708e-45
1.82941e-88
5.46801e-92
1.20426e-96
5.0989e-101
1.3711e-106
4.45598e-112
2.44881e-119
2.98179e-127
3.42752e-139
7.18129e-145
1.5946e-143
1.00004
0.999998
0.999992
1
0.999997
0.999964
0.999788
0.999608
0.999648
0.999914
0.96939
0.676226
0.177666
0.0105695
0.000175414
1.56862e-06
7.29793e-09
6.04392e-12
-4.36104e-15
-1.24507e-17
-2.78305e-20
-5.50057e-23
-9.24745e-26
-1.21227e-28
-1.1838e-31
-7.47322e-35
-2.02291e-38
4.27362e-71
1.72102e-88
5.51158e-92
1.17736e-96
4.21306e-101
1.31908e-106
5.15406e-112
3.0749e-119
2.87001e-127
3.43549e-139
1.86201e-153
1.11766e-156
1.00004
0.999998
0.999991
1
0.999997
0.99996
0.999768
0.999562
0.99958
0.999914
0.976017
0.708452
0.201185
0.0130256
0.000224034
2.00182e-06
9.44486e-09
7.16281e-12
-5.89543e-15
-1.51808e-17
-3.40305e-20
-6.72501e-23
-1.08874e-25
-1.38605e-28
-1.2564e-31
-6.68025e-35
-8.88481e-39
7.31868e-85
1.92611e-88
5.51736e-92
1.14987e-96
3.51123e-101
1.30712e-106
5.55836e-112
4.46718e-119
2.56424e-127
3.32379e-139
1.97109e-153
4.2749e-158
1.00004
0.999997
0.99999
1
0.999996
0.999958
0.99975
0.999511
0.999506
0.999911
0.981804
0.740645
0.227653
0.0161042
0.000288179
2.57342e-06
1.23179e-08
8.50334e-12
-7.62932e-15
-1.87547e-17
-4.10034e-20
-7.86148e-23
-1.22923e-25
-1.46937e-28
-1.18297e-31
-4.77713e-35
-8.43331e-44
7.18116e-85
1.95756e-88
5.49067e-92
1.12367e-96
3.00185e-101
1.34543e-106
5.70608e-112
6.07027e-119
2.18226e-127
3.13538e-139
2.10573e-153
1.35224e-158
1.00004
0.999997
0.99999
1
0.999995
0.999956
0.999735
0.999455
0.999426
0.999879
0.986678
0.772305
0.257198
0.0199546
0.000373092
3.33302e-06
1.61758e-08
1.03246e-11
-9.19531e-15
-2.19226e-17
-4.63578e-20
-8.51159e-23
-1.26206e-25
-1.37352e-28
-9.28027e-32
-2.32868e-35
9.71741e-73
7.08957e-85
1.99725e-88
5.40458e-92
1.10064e-96
2.68191e-101
1.64791e-106
5.72688e-112
7.29476e-119
1.85072e-127
3.02167e-139
2.27152e-153
4.51832e-159
1.00004
0.999996
0.999989
1
0.999994
0.999954
0.99972
0.999396
0.999339
0.999789
0.990595
0.802838
0.289812
0.0247498
0.000485845
4.35095e-06
2.13892e-08
1.52489e-11
-1.08937e-14
-2.50534e-17
-5.03107e-20
-8.71779e-23
-1.19115e-25
-1.13528e-28
-6.05651e-32
-2.92836e-36
1.21819e-81
7.11431e-85
2.02898e-88
5.26606e-92
1.08257e-96
2.52778e-101
2.35526e-106
5.65643e-112
7.92797e-119
1.63113e-127
2.99746e-139
2.47554e-153
1.53908e-159
1.00004
0.999996
0.999989
1
0.999993
0.999952
0.9997
0.999332
0.999244
0.999689
0.993608
0.831702
0.325386
0.0306906
0.000636022
5.72637e-06
2.8476e-08
3.07331e-11
-1.29861e-14
-2.8542e-17
-5.35024e-20
-8.53701e-23
-1.04237e-25
-8.50428e-29
-2.93278e-32
-1.05111e-44
7.8536e-81
7.23631e-85
2.05636e-88
5.08843e-92
1.07089e-96
2.48492e-101
3.36172e-106
5.38662e-112
8.10705e-119
1.52948e-127
3.1994e-139
2.72666e-153
5.25207e-160
1.00004
0.999994
0.999989
1
0.999992
0.999949
0.999676
0.999261
0.99914
0.999585
0.995853
0.858519
0.363748
0.0380085
0.000836448
7.59495e-06
3.81273e-08
5.97048e-11
-1.49684e-14
-3.27021e-17
-5.56679e-20
-8.05445e-23
-8.68976e-26
-5.45129e-29
-6.7064e-33
2.74115e-77
8.01088e-81
7.31793e-85
2.07888e-88
4.88198e-92
1.06577e-96
2.50543e-101
4.50422e-106
4.95182e-112
8.10897e-119
1.50509e-127
4.37082e-139
3.03606e-153
1.76403e-160
1.00004
0.999993
0.99999
1
0.999991
0.999946
0.999647
0.999183
0.999026
0.99947
0.997474
0.883094
0.404663
0.0469607
0.00110369
1.01314e-05
5.11832e-08
9.53858e-11
-1.61313e-14
-3.73931e-17
-5.76955e-20
-7.4003e-23
-6.61969e-26
-2.78043e-29
-2.42639e-42
2.69985e-77
8.08546e-81
7.42589e-85
2.09713e-88
4.6559e-92
1.06489e-96
2.9553e-101
5.65648e-106
4.44262e-112
7.83867e-119
1.5981e-127
6.27169e-139
3.41791e-153
5.76463e-161
1.00004
0.999992
0.99999
1
0.99999
0.999943
0.999621
0.999099
0.998896
0.99934
0.998573
0.905329
0.447771
0.0578064
0.00145791
1.35394e-05
6.85021e-08
1.33082e-10
-1.75379e-14
-4.20548e-17
-5.86803e-20
-6.54477e-23
-4.57784e-26
-8.67284e-30
3.9084e-74
2.73414e-77
8.17005e-81
7.54491e-85
2.11178e-88
4.4192e-92
1.08334e-96
4.43133e-101
6.70267e-106
3.93502e-112
7.17718e-119
2.35264e-127
8.00603e-139
3.89041e-153
1.84192e-161
1.00004
0.999993
0.99999
1
0.99999
0.999943
0.9996
0.999015
0.998743
0.999199
0.999212
0.925115
0.492475
0.0707568
0.0019214
1.8018e-05
9.06418e-08
1.72354e-10
-1.86364e-14
-4.62267e-17
-5.82241e-20
-5.49434e-23
-2.73059e-26
-1.25647e-40
3.78368e-74
2.73019e-77
8.24834e-81
7.68207e-85
2.12378e-88
4.181e-92
1.12375e-96
7.08103e-101
7.51173e-106
3.48807e-112
6.33513e-119
3.93792e-127
9.11537e-139
4.47723e-153
6.00672e-162
1.00004
0.999992
0.999992
1
0.99999
0.999943
0.999592
0.998938
0.998571
0.999049
0.999455
0.942308
0.537866
0.0859022
0.00251556
2.36987e-05
1.17286e-07
2.08193e-10
-2.21077e-14
-4.94243e-17
-5.57223e-20
-4.31577e-23
-1.2064e-26
3.58534e-59
3.69523e-74
2.73143e-77
8.32704e-81
7.8383e-85
2.13431e-88
3.95064e-92
1.17654e-96
1.06536e-100
7.98091e-106
3.14605e-112
5.5488e-119
5.66253e-127
9.6156e-139
5.20965e-153
2.22104e-162
1.00004
0.999994
0.999993
1
0.99999
0.999944
0.999585
0.998869
0.998395
0.998883
0.999504
0.956758
0.582753
0.103134
0.00325575
3.05525e-05
1.46458e-07
2.26466e-10
-2.89966e-14
-5.15536e-17
-5.22632e-20
-3.13905e-23
-1.33492e-27
3.39624e-59
3.47123e-74
2.7381e-77
8.40735e-81
8.01689e-85
2.14477e-88
3.73777e-92
1.2507e-96
1.48057e-100
8.13808e-106
2.93375e-112
4.97024e-119
6.86515e-127
9.79144e-139
6.12984e-153
1.04662e-162
1.00004
0.999992
0.999994
1
0.99999
0.999945
0.99959
0.998807
0.998212
0.998695
0.999504
0.968417
0.625813
0.122093
0.0041448
3.82813e-05
1.73686e-07
2.23931e-10
-3.52786e-14
-5.34026e-17
-4.81184e-20
-2.06763e-23
3.60013e-54
3.31174e-59
3.26044e-74
2.75175e-77
8.49257e-81
8.2212e-85
2.15683e-88
3.55242e-92
1.35055e-96
1.92044e-100
8.149e-106
2.84359e-112
4.65864e-119
7.38125e-127
9.79663e-139
7.29565e-153
6.22629e-163
1.00004
0.999995
0.999996
1
0.99999
0.999948
0.999601
0.998745
0.998018
0.998494
0.999503
0.977469
0.665812
0.142158
0.0051659
4.62248e-05
1.91906e-07
1.89011e-10
-3.75204e-14
-5.56134e-17
-4.42043e-20
-1.12062e-23
1.6729e-52
3.23095e-59
2.53675e-74
2.77238e-77
8.58623e-81
8.45544e-85
2.17255e-88
3.40476e-92
1.47763e-96
2.35366e-100
8.00892e-106
2.82448e-112
4.56552e-119
7.47459e-127
9.92583e-139
8.78812e-153
4.19851e-163
1.00004
0.999994
0.999997
1
0.99999
0.99995
0.999608
0.998674
0.997812
0.998297
0.999458
0.984275
0.701787
0.162496
0.00627617
5.32694e-05
1.96481e-07
1.19583e-10
-4.06385e-14
-5.81479e-17
-3.99986e-20
-2.49675e-24
1.67848e-52
3.17004e-59
5.10823e-74
2.80197e-77
8.69271e-81
8.72473e-85
2.19435e-88
3.30406e-92
1.63551e-96
2.75012e-100
7.63635e-106
3.06416e-112
4.65339e-119
7.34823e-127
1.12467e-138
1.07228e-152
2.98121e-163
1.00004
0.999995
0.999999
0.999999
0.999989
0.999953
0.999611
0.99859
0.997594
0.998097
0.999363
0.989257
0.733129
0.182129
0.00740121
5.79848e-05
1.83587e-07
5.86619e-11
-4.44187e-14
-6.1106e-17
-3.46061e-20
8.91204e-48
1.6986e-52
3.12723e-59
3.32833e-74
2.84179e-77
8.81719e-81
9.03528e-85
2.22516e-88
3.25275e-92
1.82724e-96
3.07695e-100
7.09173e-106
4.33915e-112
6.32976e-119
6.88701e-127
1.58732e-138
1.32678e-152
2.1866e-163
1.00003
0.999995
0.999999
0.999998
0.999989
0.999954
0.999614
0.998493
0.997361
0.997889
0.999265
0.99283
0.759556
0.199999
0.00842658
5.94487e-05
1.42059e-07
2.33613e-11
-4.95267e-14
-6.1594e-17
-2.69949e-20
4.93924e-46
1.72226e-52
3.10319e-59
3.26438e-74
2.89371e-77
8.96586e-81
9.39469e-85
2.26846e-88
3.23744e-92
2.05541e-96
3.29738e-100
6.46144e-106
6.90433e-112
1.16102e-118
6.42257e-127
2.44503e-138
1.66711e-152
1.67074e-163
1.00003
0.999997
1
0.999998
0.999989
0.999955
0.99961
0.998388
0.99711
0.997669
0.999174
0.995343
0.780978
0.214852
0.00922465
5.74842e-05
9.20319e-08
2.57538e-12
-5.05629e-14
-6.05816e-17
-1.58143e-20
4.84404e-46
1.7538e-52
3.09458e-59
3.61815e-74
2.95984e-77
9.14612e-81
9.81235e-85
2.32845e-88
3.29131e-92
2.32252e-96
3.39542e-100
5.8251e-106
1.04521e-111
2.01093e-118
6.20298e-127
3.45822e-138
2.13051e-152
1.36148e-163
1.00003
0.999996
1
0.999997
0.999988
0.999954
0.999598
0.998274
0.996837
0.99744
0.999092
0.997061
0.797174
0.225416
0.00964492
5.21781e-05
4.35353e-08
2.34832e-12
-5.08541e-14
-5.4028e-17
-9.01346e-22
4.82073e-46
1.79587e-52
3.0999e-59
3.3454e-74
3.04278e-77
9.36685e-81
1.02998e-84
2.41033e-88
3.58881e-92
2.63078e-96
3.4127e-100
5.25709e-106
1.46767e-111
2.9897e-118
6.1677e-127
4.30062e-138
2.77376e-152
1.23068e-163
1.00003
0.999997
1
0.999996
0.999988
0.999952
0.999583
0.998144
0.996541
0.997204
0.999022
0.998181
0.807695
0.230995
0.00980315
4.41625e-05
1.03027e-08
1.88847e-12
-4.78678e-14
-3.98182e-17
1.62963e-38
4.81203e-46
1.84875e-52
3.16066e-59
3.3954e-74
3.14569e-77
9.63878e-81
1.08714e-84
2.52056e-88
4.09009e-92
2.98243e-96
3.38349e-100
4.82316e-106
1.92584e-111
3.90686e-118
7.65866e-127
4.78212e-138
3.68463e-152
1.28446e-163
1.00003
0.999997
1
0.999996
0.999989
0.999949
0.999564
0.99799
0.99622
0.996963
0.99897
0.998741
0.812878
0.233003
0.00981122
3.26863e-05
1.99647e-09
-5.33643e-12
-3.96508e-14
-1.95442e-17
4.57583e-38
4.8427e-46
1.91417e-52
3.24815e-59
3.44848e-74
3.27248e-77
9.97504e-81
1.15451e-84
2.66732e-88
4.81087e-92
3.37998e-96
3.27681e-100
4.56562e-106
2.37769e-111
4.61329e-118
1.60336e-126
4.93393e-138
5.00082e-152
1.5682e-163
1.00003
0.999997
1
0.999995
0.999989
0.999946
0.999541
0.997812
0.99587
0.996719
0.998932
0.998922
0.814562
0.232721
0.00934513
2.12593e-05
6.15871e-10
-1.13329e-11
-2.60572e-14
-4.18109e-19
3.72477e-38
4.94825e-46
1.99461e-52
3.36155e-59
3.53281e-74
3.42802e-77
1.03918e-80
1.23435e-84
2.8611e-88
5.88061e-92
3.82674e-96
3.10448e-100
4.4745e-106
2.77988e-111
5.02272e-118
3.43285e-126
4.93574e-138
6.94132e-152
2.1878e-163
1.00003
0.999997
1
0.999994
0.999989
0.999942
0.999509
0.997607
0.995493
0.996471
0.998904
0.998903
0.813895
0.226566
0.00855021
1.19936e-05
3.62421e-10
-9.33864e-12
-1.14961e-14
8.42603e-29
3.96331e-38
5.08138e-46
2.09287e-52
3.52169e-59
3.64557e-74
3.61838e-77
1.09092e-80
1.32951e-84
3.11548e-88
7.41745e-92
4.32747e-96
2.89059e-100
4.48888e-106
3.10162e-111
5.15727e-118
5.86834e-126
4.89937e-138
9.85881e-152
3.35325e-163
1.00003
0.999997
1
0.999993
0.99999
0.999939
0.999471
0.997375
0.995088
0.996215
0.998874
0.998893
0.807909
0.215953
0.00769435
5.69401e-06
1.58246e-10
-5.20932e-12
-1.04159e-15
9.17261e-29
4.14951e-38
5.26091e-46
2.21255e-52
3.73504e-59
3.79538e-74
3.85128e-77
1.15528e-80
1.44362e-84
3.44821e-88
9.52935e-92
4.88926e-96
2.65881e-100
5.5121e-106
3.33212e-111
5.15844e-118
8.25327e-126
4.96708e-138
1.43279e-151
5.46663e-163
1.00003
0.999996
1
0.999993
0.99999
0.999936
0.999427
0.99713
0.99466
0.995944
0.998828
0.998569
0.797303
0.203247
0.0068817
2.77731e-06
3.42893e-11
-1.64358e-12
1.51249e-21
9.77506e-29
4.40831e-38
5.51143e-46
2.35828e-52
4.01044e-59
3.98933e-74
4.13649e-77
1.23553e-80
1.58134e-84
3.88257e-88
1.23492e-91
5.52283e-96
2.43398e-100
9.54992e-106
3.48111e-111
5.05526e-118
1.00768e-125
7.15871e-138
2.12941e-151
9.2989e-163
1.00003
0.999997
1
0.999992
0.99999
0.999937
0.999374
0.996873
0.99421
0.995649
0.998755
0.997592
0.783501
0.189453
0.00621095
1.77746e-06
-6.98062e-12
3.59082e-14
1.51507e-21
1.05929e-28
4.72517e-38
5.84048e-46
2.53589e-52
4.36417e-59
4.23515e-74
4.48654e-77
1.33587e-80
1.74872e-84
4.44931e-88
1.60225e-91
6.24417e-96
2.24261e-100
1.80467e-105
3.57427e-111
4.94457e-118
1.11643e-125
1.77219e-137
3.23275e-151
1.63483e-162
1.00002
0.999997
1
0.999991
0.99999
0.999937
0.999341
0.996632
0.993747
0.995322
0.998652
0.996422
0.767
0.175592
0.00573687
1.11696e-06
-2.59146e-12
1.00226e-13
1.58434e-21
1.15719e-28
5.12035e-38
6.26423e-46
2.75283e-52
4.81586e-59
4.5495e-74
4.91757e-77
1.46184e-80
1.95359e-84
5.18913e-88
2.0696e-91
7.07708e-96
2.10971e-100
3.2174e-105
3.64609e-111
4.90132e-118
1.16698e-125
4.33405e-137
5.00551e-151
2.95798e-162
1.00002
0.999996
1
0.99999
0.99999
0.999945
0.999326
0.996374
0.993263
0.994959
0.998523
0.994941
0.748357
0.162707
0.00551625
5.86936e-07
2.77811e-10
1.10731e-13
1.73512e-21
1.278e-28
5.61088e-38
6.80779e-46
3.0186e-52
5.39101e-59
4.83792e-74
5.45056e-77
1.62071e-80
2.20628e-84
6.15599e-88
2.65214e-91
8.0569e-96
2.04593e-100
5.29845e-105
3.74375e-111
5.22467e-118
1.19001e-125
8.25598e-137
7.89084e-151
5.49792e-162
1.00002
0.999997
1
0.999989
0.99999
0.999956
0.999324
0.996209
0.99275
0.994561
0.998372
0.993143
0.728314
0.151561
0.00544567
5.83615e-07
3.11388e-10
1.22405e-13
1.96959e-21
1.42632e-28
6.2203e-38
7.50138e-46
3.34536e-52
6.12396e-59
4.99281e-74
6.11289e-77
1.82222e-80
2.52043e-84
7.4216e-88
3.36584e-91
9.23628e-96
2.02812e-100
8.058e-105
3.97107e-111
8.53422e-118
1.21805e-125
1.28721e-136
1.26433e-150
1.04884e-161
1.00002
0.999997
1
0.999989
0.99999
0.999971
0.999422
0.996035
0.992202
0.994127
0.998198
0.991009
0.707629
0.142918
0.00557813
7.92025e-07
3.51282e-10
1.36419e-13
2.35366e-21
1.60926e-28
6.97906e-38
8.38489e-46
3.74879e-52
7.06022e-59
8.78617e-74
6.94063e-77
2.07949e-80
2.91423e-84
9.08132e-88
4.22788e-91
1.06944e-95
2.23212e-100
1.13789e-104
4.60374e-111
2.02566e-117
1.3813e-125
1.80478e-136
2.05632e-150
2.0525e-161
1.00002
0.999998
1
0.999989
0.99999
0.999982
0.999556
0.995996
0.991623
0.993644
0.998
0.988491
0.687548
0.136755
0.00571742
1.06314e-06
3.97472e-10
1.52131e-13
2.98768e-21
1.83568e-28
7.92649e-38
9.51182e-46
4.24908e-52
8.26051e-59
6.76175e-74
7.98147e-77
2.41033e-80
3.41219e-84
1.12621e-87
5.25753e-91
1.25518e-95
3.65405e-100
1.50613e-104
6.34637e-111
4.78242e-117
2.39861e-125
2.53308e-136
3.39268e-150
4.11806e-161
1.00002
0.999998
1
0.999988
0.99999
0.999986
0.99972
0.996178
0.991015
0.993094
0.997777
0.985643
0.669604
0.132628
0.00579704
1.44872e-06
4.49121e-10
1.70279e-13
4.01182e-21
2.11705e-28
9.11374e-38
1.09531e-45
4.87238e-52
9.80615e-59
8.49823e-74
9.29899e-77
2.83914e-80
4.04746e-84
1.41334e-87
6.4773e-91
1.49954e-95
7.81449e-100
1.88749e-104
1.07658e-110
9.55547e-117
6.34638e-125
4.09546e-136
5.6799e-150
8.46595e-161
1.00002
0.999999
1
0.999988
0.999992
0.999988
0.999882
0.99663
0.990383
0.992448
0.997549
0.982865
0.655411
0.129465
0.00588666
1.96168e-06
5.08292e-10
1.91249e-13
5.65675e-21
2.46815e-28
1.06073e-37
1.28036e-45
5.65261e-52
1.18062e-58
9.85765e-74
1.09783e-76
3.39959e-80
4.86541e-84
1.79216e-87
7.91428e-91
1.83191e-95
1.68689e-99
2.25999e-104
2.06403e-110
1.60382e-116
1.58633e-124
8.41566e-136
9.66046e-150
1.78205e-160
1.00002
1
1
0.999989
0.999995
0.999992
0.999888
0.99741
0.98974
0.991713
0.997321
0.980638
0.644887
0.12716
0.00598278
2.65309e-06
5.75602e-10
2.15636e-13
8.2975e-21
2.90801e-28
1.24937e-37
1.51901e-45
6.63386e-52
1.44074e-58
1.19184e-73
1.31342e-76
4.13842e-80
5.92846e-84
2.29298e-87
9.60202e-91
2.29927e-95
3.38143e-99
2.60678e-104
3.96911e-110
2.33518e-116
3.14411e-124
1.89975e-135
1.67228e-149
3.83778e-160
1.00001
1
1
0.99999
0.999996
0.999996
0.999955
0.998233
0.989095
0.990903
0.997072
0.979193
0.637553
0.125744
0.0060942
3.57887e-06
6.52468e-10
2.44086e-13
1.25216e-20
1.00001
1
1
0.999988
0.999997
0.999999
0.999995
0.999113
0.988484
0.990079
0.996762
0.978357
0.632721
0.125048
0.00622294
4.81109e-06
7.40135e-10
0.996406
0.977868
1.00002
1
0.999994
1
1
0.999979
0.999899
0.99986
0.999969
0.996056
0.870989
0.414851
0.0585184
0.00194787
2.65499e-05
2.31246e-07
1.44389e-09
4.06038e-12
1.67038e-16
4.74968e-19
1.13158e-21
2.22909e-24
3.55249e-27
4.4335e-30
4.12116e-33
2.62382e-36
9.67118e-40
1.20956e-43
-3.33295e-61
1.41588e-92
1.00078e-96
1.47488e-100
8.90116e-106
7.03131e-103
7.89255e-100
8.29686e-97
8.5257e-94
4.41986e-91
1.35367e-77
1.00002
1
0.999994
1
1
0.999977
0.999885
0.999826
0.999954
0.998022
0.896399
0.46156
0.0728461
0.00266665
3.78278e-05
3.35778e-07
1.77685e-09
2.0169e-12
3.21722e-16
5.95685e-19
1.43627e-21
2.84748e-24
4.53953e-27
5.62585e-30
5.14136e-33
3.16623e-36
1.08943e-39
1.07036e-43
4.58179e-61
1.36109e-92
1.17536e-96
1.46525e-100
3.27473e-106
1.50735e-112
-5.80406e-116
2.22643e-112
3.15428e-107
9.87594e-109
1.7032e-88
1.00002
1
0.999994
1
1
0.999976
0.999877
0.999805
0.999905
0.99876
0.908939
0.488412
0.0823026
0.00318594
4.59113e-05
4.08784e-07
2.04486e-09
1.91385e-12
1.43918e-15
7.82424e-19
1.90831e-21
3.81142e-24
6.08872e-27
7.50516e-30
6.74487e-33
4.00299e-36
1.26435e-39
8.34074e-44
1.06441e-59
1.81363e-92
1.2786e-96
1.34203e-100
3.23741e-106
1.50131e-112
5.65419e-119
1.16472e-117
2.38371e-119
1.15723e-116
1.07364e-109
1.00002
1
0.999995
1
1
0.999975
0.999867
0.999779
0.999872
0.999378
0.922238
0.519613
0.0942833
0.00389436
5.71432e-05
5.10167e-07
2.42957e-09
2.41059e-12
1.90785e-15
1.04659e-18
2.56733e-21
5.13218e-24
8.15112e-27
9.89184e-30
8.61516e-33
4.80852e-36
1.31774e-39
2.99062e-44
-2.97978e-61
1.61158e-92
1.3908e-96
1.18511e-100
2.75584e-106
1.78049e-112
2.7264e-119
4.68899e-125
3.77565e-122
1.61933e-119
1.55234e-111
1.00002
1
0.999996
1
0.999999
0.999973
0.999856
0.999752
0.999835
0.999745
0.933825
0.550247
0.107335
0.00473571
7.07873e-05
6.32966e-07
2.93535e-09
2.95742e-12
1.5918e-15
1.33626e-18
3.29457e-21
6.58189e-24
1.03606e-26
1.23047e-29
1.02674e-32
5.25691e-36
1.15381e-39
-2.47034e-45
-6.27564e-59
5.00253e-92
1.49285e-96
1.03514e-100
2.34701e-106
2.47262e-112
2.488e-119
2.75641e-127
5.30992e-135
-1.74772e-129
1.38221e-116
1.00002
1
0.999996
1
0.999999
0.999972
0.999843
0.999721
0.999794
0.999885
0.944287
0.581341
0.121997
0.00576835
8.80364e-05
7.87581e-07
3.60224e-09
3.5916e-12
-1.66931e-15
-5.16499e-18
-1.1133e-20
-2.13863e-23
-3.56025e-26
-4.95039e-29
-5.46747e-32
-4.45822e-35
-2.24239e-38
-4.77561e-42
1.37081e-88
2.34811e-92
1.58191e-96
8.86458e-101
2.01056e-106
3.42375e-112
2.34402e-119
2.76648e-127
2.57215e-139
-5.5823e-140
2.49035e-139
1.00002
1
0.999995
1
0.999999
0.99997
0.999827
0.999686
0.999751
0.999914
0.953617
0.612643
0.138398
0.00703673
0.000110014
9.84411e-07
4.49572e-09
4.31226e-12
-2.45883e-15
-7.55865e-18
-1.63949e-20
-3.18476e-23
-5.33687e-26
-7.39309e-29
-8.02346e-32
-6.06891e-35
-2.72907e-38
-3.45404e-42
1.42434e-88
2.5717e-92
1.65002e-96
7.48035e-101
1.75809e-106
4.36007e-112
2.31392e-119
3.02727e-127
3.18643e-139
-7.16329e-141
8.16789e-135
1.00003
1
0.999995
1
0.999998
0.999967
0.999807
0.999648
0.9997
0.999914
0.961947
0.644262
0.156845
0.00860873
0.000138397
1.23819e-06
5.69269e-09
5.11612e-12
-3.23463e-15
-9.9323e-18
-2.19027e-20
-4.29958e-23
-7.22754e-26
-9.94397e-29
-1.01908e-31
-7.13333e-35
-2.68364e-38
-5.61717e-45
1.4498e-88
2.70149e-92
1.69055e-96
6.23329e-101
1.59455e-106
5.06492e-112
2.39393e-119
3.03653e-127
3.42821e-139
1.59062e-145
1.57309e-139
1.00003
0.999999
0.999995
1
0.999998
0.999964
0.999786
0.999606
0.999641
0.999914
0.96939
0.676227
0.177666
0.0105695
0.000175414
1.56862e-06
7.29792e-09
6.04391e-12
-4.36104e-15
-1.24507e-17
-2.78305e-20
-5.50057e-23
-9.24744e-26
-1.21227e-28
-1.1838e-31
-7.47321e-35
-2.02291e-38
2.06908e-91
1.47536e-88
2.84544e-92
1.70533e-96
5.15522e-101
1.51203e-106
5.45368e-112
3.10749e-119
2.95458e-127
3.43067e-139
2.5311e-153
7.61555e-153
1.00003
0.999999
0.999995
1
0.999998
0.99996
0.999766
0.99956
0.999574
0.999914
0.976018
0.708453
0.201185
0.0130256
0.000224033
2.00182e-06
9.44485e-09
7.1628e-12
-5.89542e-15
-1.51808e-17
-3.40304e-20
-6.725e-23
-1.08874e-25
-1.38605e-28
-1.2564e-31
-6.68025e-35
-8.8848e-39
1.36406e-83
1.49587e-88
2.9777e-92
1.70706e-96
4.26679e-101
1.48743e-106
5.58542e-112
4.71977e-119
2.67302e-127
3.32384e-139
2.01072e-153
6.54584e-159
1.00003
0.999998
0.999994
1
0.999997
0.999958
0.999749
0.999509
0.9995
0.999911
0.981806
0.740646
0.227654
0.0161042
0.000288179
2.57342e-06
1.23179e-08
8.50332e-12
-7.62931e-15
-1.87546e-17
-4.10034e-20
-7.86147e-23
-1.22923e-25
-1.46936e-28
-1.18296e-31
-4.77713e-35
-8.43348e-44
5.07533e-85
1.51342e-88
3.09972e-92
1.69648e-96
3.58118e-101
1.49137e-106
5.60083e-112
6.6443e-119
2.28634e-127
3.13577e-139
2.15047e-153
7.64508e-160
1.00003
0.999998
0.999994
1
0.999996
0.999956
0.999733
0.999453
0.99942
0.999878
0.986681
0.772306
0.257198
0.0199546
0.000373092
3.33302e-06
1.61758e-08
1.03246e-11
-9.1953e-15
-2.19226e-17
-4.63577e-20
-8.51158e-23
-1.26206e-25
-1.37352e-28
-9.28026e-32
-2.32868e-35
8.91701e-74
5.26808e-85
1.52663e-88
3.20747e-92
1.66387e-96
3.10296e-101
1.67101e-106
5.50903e-112
8.18246e-119
1.93012e-127
3.01987e-139
2.32194e-153
8.69599e-161
1.00003
0.999997
0.999993
1
0.999996
0.999953
0.999718
0.999394
0.999333
0.999789
0.990597
0.80284
0.289812
0.0247498
0.000485844
4.35095e-06
2.13892e-08
1.52488e-11
-1.08937e-14
-2.50533e-17
-5.03106e-20
-8.71778e-23
-1.19115e-25
-1.13528e-28
-6.0565e-32
-2.92835e-36
5.09404e-85
5.30304e-85
1.53599e-88
3.29889e-92
1.61213e-96
2.82279e-101
2.255e-106
5.19145e-112
9.02934e-119
1.67756e-127
2.99632e-139
2.53238e-153
1.0171e-161
1.00003
0.999997
0.999993
1
0.999995
0.999951
0.999699
0.99933
0.999239
0.99969
0.99361
0.831703
0.325387
0.0306906
0.000636021
5.72637e-06
2.8476e-08
3.07329e-11
-1.29861e-14
-2.8542e-17
-5.35024e-20
-8.537e-23
-1.04237e-25
-8.50427e-29
-2.93278e-32
-1.05116e-44
3.54539e-81
5.37239e-85
1.54161e-88
3.37257e-92
1.54655e-96
2.70446e-101
3.20917e-106
4.69661e-112
9.30205e-119
1.54617e-127
3.19694e-139
2.79087e-153
1.30992e-162
1.00003
0.999996
0.999993
1
0.999994
0.999947
0.999675
0.999259
0.999135
0.999586
0.995855
0.858521
0.363748
0.0380085
0.000836447
7.59495e-06
3.81273e-08
5.97046e-11
-1.49684e-14
-3.2702e-17
-5.56678e-20
-8.05444e-23
-8.68975e-26
-5.45129e-29
-6.7064e-33
9.74911e-78
3.58915e-81
5.43405e-85
1.5438e-88
3.42804e-92
1.47145e-96
2.67723e-101
4.36195e-106
4.12674e-112
9.32544e-119
1.50812e-127
4.37308e-139
3.10886e-153
2.07151e-163
1.00003
0.999996
0.999993
1
0.999993
0.999944
0.999646
0.999181
0.999022
0.999471
0.997476
0.883096
0.404663
0.0469607
0.00110369
1.01314e-05
5.11832e-08
9.53857e-11
-1.61312e-14
-3.73931e-17
-5.76955e-20
-7.40029e-23
-6.61968e-26
-2.78043e-29
-2.42646e-42
2.69942e-77
3.60816e-81
5.51062e-85
1.54384e-88
3.46489e-92
1.39076e-96
2.77927e-101
5.57642e-106
3.56361e-112
9.08523e-119
1.53291e-127
6.27035e-139
3.50091e-153
4.3611e-164
1.00003
0.999995
0.999993
1
0.999993
0.999941
0.99962
0.999097
0.998893
0.999341
0.998575
0.90533
0.447771
0.0578064
0.00145791
1.35394e-05
6.85021e-08
1.33082e-10
-1.75378e-14
-4.20547e-17
-5.86803e-20
-6.54477e-23
-4.57784e-26
-8.67285e-30
1.8946e-74
1.18025e-77
3.63017e-81
5.59577e-85
1.54199e-88
3.48253e-92
1.30829e-96
3.57324e-101
6.75318e-106
3.06898e-112
8.37136e-119
2.01478e-127
8.00522e-139
3.98571e-153
1.26957e-164
1.00003
0.999996
0.999994
1
0.999993
0.99994
0.999599
0.999014
0.99874
0.9992
0.999213
0.925117
0.492476
0.0707569
0.0019214
1.8018e-05
9.06418e-08
1.72354e-10
-1.86363e-14
-4.62267e-17
-5.82241e-20
-5.49434e-23
-2.73059e-26
-1.2565e-40
2.03186e-74
1.17839e-77
3.65071e-81
5.6926e-85
1.5391e-88
3.48577e-92
1.22788e-96
5.56861e-101
7.78925e-106
2.68804e-112
7.37116e-119
3.30974e-127
9.11762e-139
4.58766e-153
5.88896e-165
1.00003
0.999995
0.999995
1
0.999993
0.999941
0.999591
0.998936
0.998569
0.99905
0.999455
0.942309
0.537867
0.0859023
0.00251556
2.36987e-05
1.17286e-07
2.08193e-10
-2.21076e-14
-4.94243e-17
-5.57223e-20
-4.31577e-23
-1.2064e-26
2.60337e-59
2.06775e-74
1.18057e-77
3.6723e-81
5.80215e-85
1.53632e-88
3.47904e-92
1.15342e-96
8.71381e-101
8.56185e-106
2.44564e-112
6.35417e-119
4.92501e-127
9.62625e-139
5.33912e-153
4.79914e-165
1.00003
0.999996
0.999995
0.999999
0.999993
0.999941
0.999585
0.998868
0.998393
0.998884
0.999504
0.956759
0.582754
0.103135
0.00325575
3.05525e-05
1.46458e-07
2.26466e-10
-2.89965e-14
-5.15536e-17
-5.22632e-20
-3.13905e-23
-1.33492e-27
2.7777e-59
2.07742e-74
1.1992e-77
3.69575e-81
5.92625e-85
1.53471e-88
3.46111e-92
1.08887e-96
1.26773e-100
8.98221e-106
2.3352e-112
5.51193e-119
6.20351e-127
9.77331e-139
6.28377e-153
5.43413e-165
1.00002
0.999995
0.999996
0.999999
0.999993
0.999943
0.99959
0.998806
0.998211
0.998695
0.999504
0.968418
0.625815
0.122093
0.0041448
3.82814e-05
1.73686e-07
2.23931e-10
-3.52786e-14
-5.34026e-17
-4.81184e-20
-2.06763e-23
1.70823e-52
3.36143e-59
2.07265e-74
1.22286e-77
3.72265e-81
6.06709e-85
1.53537e-88
3.43636e-92
1.03815e-96
1.71055e-100
9.10216e-106
2.30798e-112
4.95187e-119
6.86574e-127
9.80451e-139
7.48171e-153
6.87981e-165
1.00002
0.999997
0.999997
0.999999
0.999993
0.999946
0.9996
0.998744
0.998017
0.998494
0.999503
0.977471
0.665814
0.142158
0.00516591
4.62249e-05
1.91906e-07
1.89011e-10
-3.75204e-14
-5.56134e-17
-4.42044e-20
-1.12062e-23
1.63352e-52
3.22576e-59
2.03294e-74
1.24759e-77
3.75466e-81
6.2274e-85
1.54074e-88
3.40983e-92
1.00452e-96
2.16666e-100
9.09437e-106
2.43452e-112
4.68777e-119
7.03812e-127
9.92666e-139
9.0172e-153
9.07518e-165
1.00002
0.999997
0.999998
0.999999
0.999992
0.999948
0.999607
0.998673
0.997812
0.998296
0.999459
0.984276
0.701788
0.162496
0.00627618
5.32695e-05
1.96482e-07
1.19582e-10
-4.06385e-14
-5.81479e-17
-3.99986e-20
-2.49675e-24
1.69783e-52
3.17111e-59
1.93356e-74
1.27698e-77
3.79383e-81
6.41051e-85
1.55227e-88
3.38645e-92
9.8829e-97
2.60491e-100
8.9015e-106
3.48475e-112
4.62122e-119
7.01027e-127
1.12361e-138
1.10105e-152
1.22849e-164
1.00002
0.999997
0.999999
0.999998
0.999992
0.99995
0.99961
0.998589
0.997594
0.998097
0.999364
0.989258
0.733131
0.182129
0.00740123
5.79849e-05
1.83587e-07
5.8662e-11
-4.44187e-14
-6.11061e-17
-3.46061e-20
5.01664e-46
1.6916e-52
3.12716e-59
1.7339e-74
1.31275e-77
3.84251e-81
6.62056e-85
1.57227e-88
3.37052e-92
9.83836e-97
2.99497e-100
8.48577e-106
6.12752e-112
4.93183e-119
6.73004e-127
1.5878e-138
1.36359e-152
1.70169e-164
1.00002
0.999997
0.999999
0.999998
0.999992
0.999951
0.999612
0.998493
0.997361
0.997888
0.999267
0.992831
0.759558
0.199999
0.0084266
5.94488e-05
1.42059e-07
2.33612e-11
-4.95268e-14
-6.15941e-17
-2.69949e-20
4.8939e-46
1.72339e-52
3.10328e-59
1.32068e-74
1.35532e-77
3.90352e-81
6.86265e-85
1.60342e-88
3.36412e-92
1.00921e-96
3.30262e-100
7.92559e-106
1.0151e-111
7.66091e-119
6.41981e-127
2.44431e-138
1.71508e-152
2.41092e-164
1.00002
0.999998
0.999999
0.999997
0.999991
0.999952
0.999608
0.998388
0.99711
0.997668
0.999175
0.995344
0.780979
0.214853
0.00922467
5.74843e-05
9.20318e-08
2.57539e-12
-5.0563e-14
-6.05817e-17
-1.58143e-20
4.85168e-46
1.75358e-52
3.09465e-59
1.11423e-75
1.40503e-77
3.98019e-81