/*--------------------------------*- C++ -*----------------------------------*\
| =========                 |                                                 |
| \\      /  F ield         | OpenFOAM: The Open Source CFD Toolbox           |
|  \\    /   O peration     | Version:  v2012                                 |
|   \\  /    A nd           | Website:  www.openfoam.com                      |
|    \\/     M anipulation  |                                                 |
\*---------------------------------------------------------------------------*/
FoamFile
{
    version     2.0;
    format      ascii;
    class       volScalarField;
    location    "0.2";
    object      alpha.water;
}
// * * * * * * * * * * * * * * * * * * * * * * * * * * * * * * * * * * * * * //

dimensions      [0 0 0 0 0 0 0];


internalField   nonuniform List<scalar> 
3332
(
-9.75343e-86
-5.88985e-86
-1.36775e-72
-1.65274e-65
-5.34634e-63
-8.71867e-52
0
2.14739e-44
-1.96292e-82
-1.2255e-81
-2.51846e-72
-6.47544e-65
-4.20804e-57
-1.27994e-47
-4.67565e-45
2.00346e-58
-2.2241e-47
-3.66375e-44
-1.07015e-41
0
-6.95442e-39
-6.83204e-37
-1.18175e-35
-3.13377e-79
-9.02662e-79
-9.11882e-68
4.6429e-65
-2.75861e-64
-9.47392e-47
-2.97522e-50
6.72514e-44
2.47002e-41
6.85634e-39
5.20027e-37
1.26893e-34
1.42441e-33
1.13547e-31
1.61676e-30
-3.88533e-76
-5.06784e-75
-3.9648e-66
-4.80967e-61
-3.37115e-61
-1.9541e-49
-1.30403e-47
3.15459e-41
1.32793e-37
9.89321e-36
5.88365e-34
4.25933e-32
6.81466e-31
3.09418e-29
4.51408e-28
-3.60744e-73
-2.79014e-71
-8.13744e-63
-1.47164e-61
-3.25042e-57
-2.00641e-53
-5.96289e-45
1.05232e-38
2.53389e-35
1.50936e-33
7.42588e-32
4.43042e-30
6.21253e-29
2.43683e-27
3.17789e-26
-2.28033e-70
-1.08136e-67
-1.43262e-59
-2.31399e-59
-7.31772e-56
3.56731e-50
-5.50953e-43
3.46652e-36
4.33828e-33
2.06211e-31
8.36021e-30
4.11533e-28
5.03856e-27
1.71082e-25
1.99435e-24
-1.08097e-67
-2.50864e-64
-1.63089e-56
-1.70224e-56
4.78094e-53
2.26663e-47
-5.72748e-40
3.80197e-33
6.55062e-31
2.49488e-29
8.38223e-28
3.4394e-26
3.68757e-25
1.08872e-23
1.13644e-22
-2.85335e-65
-3.64152e-61
-1.11996e-53
-1.86961e-53
1.26973e-49
1.28784e-44
-1.65591e-37
1.14217e-30
8.8408e-29
2.71565e-27
7.58158e-26
2.59514e-24
2.44163e-23
6.28429e-22
5.88296e-21
-3.3235e-63
-3.69711e-59
-3.09748e-51
-1.58579e-50
1.53947e-46
6.3658e-42
-5.26375e-35
2.31285e-28
1.04759e-26
2.60697e-25
6.07751e-24
1.75604e-22
1.44748e-21
3.26364e-20
2.75115e-19
-6.36031e-74
-1.39533e-55
-5.27824e-50
-9.37285e-48
1.53507e-43
2.76171e-39
-9.38085e-33
3.15874e-26
1.10224e-24
2.23367e-23
4.35338e-22
1.06421e-20
7.71256e-20
1.54641e-18
2.56185e-14
-1.02191e-69
-4.17764e-52
-4.96949e-47
-4.47935e-44
2.85616e-40
3.82666e-36
-4.71504e-31
3.72781e-24
1.01477e-22
1.68388e-21
2.75247e-20
5.72789e-19
4.15303e-18
2.14779e-13
7.59638e-13
-1.35626e-65
-5.77842e-48
-4.61831e-41
5.34748e-43
-2.954e-39
-1.2875e-28
-6.83453e-30
3.83952e-22
8.23815e-21
1.11973e-19
1.66569e-18
9.91218e-14
5.52524e-13
1.04498e-12
1.18237e-12
-1.51184e-61
-2.05837e-45
-1.92397e-40
-3.97264e-42
-4.74823e-37
-1.5113e-28
-2.24261e-25
3.40795e-20
6.08864e-19
2.61366e-14
3.29561e-13
8.32739e-13
1.132e-12
1.24296e-12
1.2397e-12
-1.62982e-56
-3.42405e-42
-3.9926e-39
-1.99657e-43
1.85209e-32
-5.41386e-41
7.72653e-27
1.79299e-14
1.98511e-13
5.78574e-13
8.8686e-13
1.07648e-12
1.1916e-12
1.25107e-12
1.25191e-12
7.60751e-56
-1.87313e-38
-7.4582e-43
2.78364e-36
6.75836e-30
-1.76439e-22
8.0451e-14
3.82481e-13
6.85392e-13
8.58922e-13
9.62874e-13
1.08204e-12
1.13243e-12
1.21892e-12
1.22467e-12
-3.3527e-50
-2.88791e-40
-1.73609e-38
1.99984e-33
2.01547e-27
3.4943e-14
2.62913e-13
5.53121e-13
7.68027e-13
8.82805e-13
9.35259e-13
9.33141e-13
9.75114e-13
1.04145e-12
1.06889e-12
-1.58511e-46
-5.06892e-34
-1.20931e-36
2.0873e-30
4.8191e-25
6.90541e-14
2.85428e-13
5.17983e-13
6.48796e-13
7.01859e-13
7.64736e-13
8.40669e-13
9.24085e-13
9.69036e-13
9.91931e-13
-5.76837e-43
-3.19545e-31
-1.12525e-36
1.07404e-27
7.73743e-23
5.59252e-14
1.65538e-13
2.91837e-13
4.18642e-13
5.42763e-13
6.72948e-13
7.88194e-13
8.80256e-13
9.40051e-13
9.61579e-13
-5.07245e-39
-1.5579e-28
-1.08576e-32
5.98209e-23
7.09331e-21
2.65553e-14
9.44574e-14
2.03918e-13
3.46966e-13
4.74176e-13
6.01632e-13
7.18198e-13
8.15503e-13
9.0518e-13
9.44698e-13
-5.8534e-36
-4.72009e-25
-1.01541e-29
7.73039e-21
4.48041e-19
1.4165e-14
6.63471e-14
1.56456e-13
2.98299e-13
4.34872e-13
5.67558e-13
6.64858e-13
7.66365e-13
8.57934e-13
9.18856e-13
-1.22031e-38
-5.10554e-24
-8.99083e-27
8.01843e-19
2.74706e-17
1.4071e-15
3.97775e-14
1.34238e-13
2.42665e-13
3.93737e-13
5.46828e-13
6.32811e-13
7.42266e-13
8.2158e-13
8.7989e-13
1.68069e-51
-1.50245e-24
-4.60343e-22
5.7323e-17
1.4071e-15
2.13243e-14
8.07438e-14
1.57785e-13
2.45915e-13
3.73123e-13
5.4764e-13
6.10493e-13
7.30877e-13
8.0121e-13
8.48129e-13
1.41875e-31
-1.72394e-29
-2.34553e-19
2.7606e-15
4.29649e-14
4.30707e-13
6.82879e-13
5.41472e-13
5.79523e-13
4.90767e-13
5.65938e-13
6.15817e-13
7.62525e-13
7.9618e-13
8.25848e-13
1.38521e-28
8.56422e-26
-1.14716e-17
9.50291e-14
9.79222e-13
7.68958e-12
8.96771e-12
7.56505e-12
4.03491e-12
1.38297e-12
6.83056e-13
6.76888e-13
7.47772e-13
7.94459e-13
8.14544e-13
9.56228e-26
4.30687e-23
-9.86956e-17
2.26546e-12
1.67648e-11
1.0339e-10
1.6222e-10
1.41909e-10
6.35623e-11
8.69212e-12
1.82627e-12
8.56783e-13
7.89396e-13
7.97596e-13
8.08248e-13
4.43494e-23
-4.91755e-18
3.49518e-12
6.8267e-10
2.55367e-09
9.16989e-09
2.66325e-09
1.49778e-09
6.65878e-10
5.997e-11
1.00812e-11
1.06769e-12
8.2166e-13
8.02648e-13
8.11703e-13
1.43222e-20
-4.8553e-17
4.11713e-09
1.63962e-08
2.53371e-08
6.04485e-08
3.20926e-08
1.17323e-08
6.57069e-09
3.9631e-10
6.60659e-11
3.40669e-12
9.07757e-13
3.4084e-18
-2.03114e-16
5.49268e-08
7.70246e-08
5.3406e-08
3.79356e-07
2.04506e-07
3.62667e-08
3.06255e-08
2.38629e-09
3.96818e-10
1.55587e-11
2.31838e-12
6.31251e-16
9.19863e-14
7.59453e-07
6.79332e-07
9.80384e-07
3.30537e-06
2.45465e-06
2.5995e-07
1.49317e-07
1.23004e-08
2.1393e-09
7.76801e-11
1.06868e-11
9.35426e-14
1.07831e-11
1.08559e-06
1.0265e-06
1.80231e-06
4.07378e-06
1.58752e-05
1.9442e-06
1.10527e-06
5.9329e-08
1.05901e-08
3.75098e-10
5.08376e-11
1.08113e-11
1.05181e-09
1.59748e-05
5.22724e-06
1.11922e-05
3.0078e-05
2.0863e-05
4.69297e-06
5.29083e-06
2.82436e-07
5.06825e-08
1.81414e-09
2.43858e-10
1.05532e-09
0.0204356
0.264151
0.179581
0.0561336
0.0370031
0.000139054
2.14248e-05
1.68203e-05
1.39604e-06
2.41363e-07
8.9843e-09
1.20649e-09
8.47607e-08
0.288503
0.555407
0.535333
0.456658
0.307057
0.0548489
0.000143914
4.0024e-05
7.3517e-06
1.12845e-06
4.75864e-08
6.4475e-09
0.0707086
0.478038
0.747208
0.730126
0.656186
0.502531
0.347633
0.06733
0.000213778
3.88854e-05
6.43442e-06
1.12964e-06
9.85673e-07
0.405927
0.682784
0.856073
0.849956
0.798216
0.681819
0.512049
0.357928
0.0762201
0.000109493
3.89052e-05
6.43803e-06
8.27484e-05
0.52634
0.845754
0.935398
0.932018
0.900308
0.822761
0.703007
0.553394
0.424433
0.244396
0.0771521
4.50839e-05
8.72735e-21
0.747591
0.937623
0.974257
0.973243
0.964093
0.92931
0.865262
0.785185
0.67088
0.607463
0.23025
6.53009e-05
-2.3442e-08
0.937106
0.967299
0.987065
0.990399
0.992419
0.983194
0.966236
0.949222
0.940758
0.999911
1
0.958655
0.989982
0.99624
0.999943
0.998936
0.997248
0.997964
1
1
0.999999
0.850212
0.98793
0.999103
1
1
1
1
1
1
0.973764
0.834289
0.992383
0.999982
1
1
1
1
1
1
1
0.841268
0.999986
1
1
1
1
1
1
1
0.99974
0.961674
1
0.998992
1
1
1
1
1
1
0.980634
0.999477
1
0.999996
1
1
1
1
1
1
0.73149
0.999783
1
1
1
1
1
1
1
1
0.66298
0.992514
1
1
1
1
1
1
1
1
1
1
1
1
1
1
1
1
1
1
1
1
1
1
1
1
1
1
1
1
1
1
1
1
1
1
1
1
1
1
1
1
1
1
1
1
1
1
1
1
1
1
1
1
1
1
1
1
1
1
1
1
1
1
1
1
1
1
1
1
1
1
1
1
1
1
1
1
1
1
1
1
1
1
1
1
1
1
1
1
1
1
1
1
1
1
1
1
1
1
1
1
1
1
1
1
1
1
1
1
1
1
1
1
1
1
1
1
1
1
1
1
1
1
1
1
1
1
1
1
1
1
1
1
1
1
1
1
1
1
1
1
1
1
1
1
1
1
1
1
1
1
1
1
1
1
1
1
1
1
1
1
1
1
1
1
1
1
1
1
1
1
1
1
1
1
1
1
1
1
1
1
1
1
1
1
1
1
1
1
1
1
1
1
1
1
1
1
1
1
1
1
1
1
1
1
1
1
1
1
1
1
1
1
1
1
1
1
1
1
1
1
1
1
1
1
1
1
1
1
1
1
1
1
1
1
1
1
1
1
1
1
1
1
1
1
1
1
1
1
1
1
1
1
1
1
1
1
1
1
1
1
1
1
1
1
1
1
1
1
1
1
1
1
1
1
1
1
1
1
1
1
1
1
1
1
1
1
1
1
1
1
1
1
1
1
1
1
1
1
1
1
1
1
1
1
1
1
1
1
1
1
1
1
1
1
1
1
1
1
1
1
1
1
1
1
1
1
1
1
1
1
1
1
1
1
1
1
1
1
1
1
1
1
1
1
1
1
1
1
1
1
1
1
1
1
1
1
1
1
1
1
1
1
1
1
1
1
1
1
1
1
1
1
1
1
1
1
1
1
1
1
1
1
1
1
1
1
1
1
1
1
1
1
1
1
1
1
1
1
1
1
1
1
1
1
1
1
1
1
1
1
1
1
1
1
1
1
1
1
1
1
1
1
1
1
1
1
1
1
1
1
1
1
1
1
1
1
1
1
1
1
1
1
1
1
1
1
1
1
1
1
1
1
1
1
1
1
1
1
1
1
1
1
1
1
1
1
1
1
1
1
1
1
1
1
1
1
1
1
1
1
1
1
1
1
1
1
1
1
1
1
1
1
1
1
1
1
1
1
1
1
1
1
1
1
1
1
1
1
1
1
1
1
1
1
1
1
1
1
1
1
1
1
1
1
1
1
1
1
1
1
1
1
1
1
1
1
1
1
1
1
1
1
1
1
1
1
1
1
1
1
1
1
1
1
1
1
1
1
1
1
1
1
1
1
1
1
1
1
1
1
1
1
1
1
1
1
1
1
1
1
1
1
1
1
1
1
1
1
1
1
1
1
1
1
1
1
1
1
1
1
1
1
1
1
1
1
1
1
1
1
1
1
1
1
1
1
1
1
1
1
1
1
1
1
1
1
1
1
1
1
1
1
1
1
1
1
1
1
1
1
1
1
1
1
1
1
1
1
1
1
1
1
1
1
1
1
1
1
1
1
1
1
1
1
1
1
1
1
1
1
1
1
1
1
1
1
1
1
1
1
1
1
1
1
1
1
1
1
1
1
1
1
1
1
1
1
1
1
1
1
1
1
1
1
1
1
1
1
1
1
1
1
1
1
1
1
1
1
1
1
1
1
1
1
1
1
1
1
1
1
1
1
1
1
1
1
1
1
1
1
1
1
1
1
1
1
1
1
1
1
1
1
1
1
1
1
1
1
1
1
1
1
1
1
1
1
1
1
1
1
1
1
1
1
1
1
1
1
1
1
1
1
1
1
1
1
1
1
1
1
1
1
1
1
1
1
1
1
1
1
1
1
1
1
1
1
1
1
1
1
1
1
1
1
1
1
1
1
1
1
1
1
1
1
1
1
1
1
1
1
1
1
1
1
1
1
1
1
1
1
1
1
1
1
1
1
1
1
1
1
1
1
1
1
1
1
1
1
1
1
1
1
1
1
1
1
1
1
1
1
1
1
1
1
1
1
1
1
1
1
1
1
1
1
1
1
1
1
1
1
1
1
1
1
1
1
1
1
1
1
1
1
1
1
1
1
1
1
1
1
1
1
1
1
1
1
1
1
1
1
1
1
1
1
1
1
1
1
1
1
1
1
1
1
1
1
1
1
1
1
1
1
1
1
1
1
1
1
1
1
1
1
1
1
1
1
1
1
1
1
1
1
1
1
1
1
1
1
1
1
1
1
1
1
1
1
1
1
1
1
1
1
1
1
1
1
1
1
1
1
1
1
1
1
1
1
1
1
1
1
1
1
1
1
1
1
1
1
1
1
1
1
1
1
1
1
1
1
1
1
1
1
1
1
1
1
1
1
1
1
1
1
1
1
1
1
1
1
1
1
1
1
1
1
1
1
1
1
1
1
1
1
1
1
1
1
1
1
-1.039e-85
-5.8984e-86
-1.65942e-72
-1.97236e-65
-1.63338e-63
-9.03497e-52
0
2.13083e-44
-2.07042e-82
-1.21326e-81
-2.97074e-72
-7.5483e-65
-4.42336e-57
-1.27378e-47
-4.65869e-45
2.00352e-58
-8.10969e-49
-1.64849e-44
-5.87618e-42
0
-3.63922e-39
-4.13379e-37
-6.4475e-36
-3.30785e-79
-9.10099e-79
-1.13595e-67
6.69476e-65
-2.55703e-64
-9.49056e-47
-2.9186e-50
6.72039e-44
2.51208e-41
6.78394e-39
5.1949e-37
1.26917e-34
1.42305e-33
1.13524e-31
1.61699e-30
-4.161e-76
-5.04355e-75
-4.8607e-66
-5.62349e-61
-2.62803e-61
-1.95064e-49
-1.31061e-47
3.15377e-41
1.32674e-37
9.87874e-36
5.88426e-34
4.25971e-32
6.81425e-31
3.0939e-29
4.5144e-28
-3.9888e-73
-2.77062e-71
-9.851e-63
-1.49035e-61
-3.25204e-57
-1.90235e-53
-5.75735e-45
1.05205e-38
2.53301e-35
1.50764e-33
7.42755e-32
4.43071e-30
6.21219e-29
2.43663e-27
3.17796e-26
-2.75857e-70
-1.0693e-67
-1.74048e-59
-2.37262e-59
-4.86953e-56
4.49438e-50
-5.6192e-43
3.58167e-36
4.33512e-33
2.05941e-31
8.36001e-30
4.11526e-28
5.03821e-27
1.71063e-25
1.99445e-24
-1.26569e-67
-2.4984e-64
-1.97908e-56
-1.86247e-56
7.47029e-53
2.8584e-47
-5.71137e-40
3.81344e-33
6.54787e-31
2.49212e-29
8.3823e-28
3.4393e-26
3.68732e-25
1.08859e-23
1.13645e-22
-3.34969e-65
-3.60488e-61
-1.37809e-53
-2.0375e-53
1.62221e-49
1.62273e-44
-1.66446e-37
1.14384e-30
8.83651e-29
2.71272e-27
7.58121e-26
2.59491e-24
2.44144e-23
6.28365e-22
5.88312e-21
-3.91219e-63
-3.6756e-59
-3.80851e-51
-1.69464e-50
1.92269e-46
8.03017e-42
-5.18464e-35
2.30674e-28
1.04714e-26
2.60446e-25
6.07766e-24
1.75591e-22
1.44742e-21
3.2633e-20
2.75115e-19
-6.29184e-74
-1.39069e-55
-6.57074e-50
-1.01128e-47
8.11778e-43
3.47926e-39
-9.42064e-33
3.14961e-26
1.10139e-24
2.23125e-23
4.35292e-22
1.0641e-20
7.71221e-20
1.54629e-18
2.56187e-14
-1.02536e-69
-4.15809e-52
-6.28007e-47
-5.51132e-44
2.98677e-40
4.02274e-36
-4.72561e-31
3.72095e-24
1.01453e-22
1.6826e-21
2.75237e-20
5.72723e-19
4.15283e-18
2.14766e-13
7.59638e-13
-1.36021e-65
-5.76373e-48
-5.7633e-41
3.77696e-43
-2.28038e-39
-1.28688e-28
-6.84762e-30
3.83134e-22
8.23426e-21
1.11873e-19
1.66534e-18
9.91083e-14
5.52503e-13
1.04497e-12
1.18237e-12
-1.5178e-61
-2.05324e-45
-2.43028e-40
-4.61733e-42
-3.64633e-37
-1.44993e-28
-4.06831e-27
3.40079e-20
6.08549e-19
2.61045e-14
3.29522e-13
8.3276e-13
1.13205e-12
1.24296e-12
1.23969e-12
-1.62351e-56
-3.40821e-42
-7.00233e-39
-2.68249e-43
2.21655e-32
-1.06335e-37
6.79869e-27
1.78809e-14
1.98398e-13
5.78504e-13
8.86857e-13
1.07652e-12
1.19167e-12
1.25106e-12
1.2519e-12
1.12436e-56
-1.84523e-38
-5.17033e-43
2.36514e-36
8.08826e-30
-1.1913e-22
8.03914e-14
3.82409e-13
6.8538e-13
8.58936e-13
9.62881e-13
1.08207e-12
1.1325e-12
1.21899e-12
1.22467e-12
-3.34934e-50
-1.16417e-38
-1.53617e-38
1.68999e-33
2.41208e-27
3.49333e-14
2.62923e-13
5.53177e-13
7.68077e-13
8.82851e-13
9.35334e-13
9.33142e-13
9.75136e-13
1.0415e-12
1.06891e-12
-1.57388e-46
-5.09679e-34
-1.12438e-36
2.06781e-30
5.76742e-25
6.90599e-14
2.8554e-13
5.17921e-13
6.48878e-13
7.01979e-13
7.64804e-13
8.40707e-13
9.24112e-13
9.69014e-13
9.91948e-13
-5.62357e-43
-3.16927e-31
-1.02001e-36
1.06524e-27
9.38653e-23
5.5929e-14
1.65986e-13
2.91617e-13
4.18611e-13
5.42755e-13
6.72977e-13
7.88336e-13
8.80294e-13
9.40028e-13
9.61626e-13
-5.09933e-39
-1.64829e-28
-1.24291e-32
5.68977e-23
7.43555e-21
2.6826e-14
9.34887e-14
2.05565e-13
3.47191e-13
4.74141e-13
6.01556e-13
7.1839e-13
8.15622e-13
9.05265e-13
9.44814e-13
-5.54901e-36
-4.89156e-25
-1.16518e-29
1.11326e-20
4.69266e-19
1.5348e-14
6.38039e-14
1.6446e-13
3.001e-13
4.34029e-13
5.67282e-13
6.64533e-13
7.66559e-13
8.58266e-13
9.18848e-13
-7.58337e-39
-5.07263e-24
-1.05571e-26
1.09055e-18
3.78788e-17
6.41106e-15
3.22452e-14
1.30742e-13
2.51036e-13
3.88979e-13
5.4528e-13
6.31774e-13
7.42302e-13
8.22129e-13
8.79289e-13
-2.75355e-47
-1.24066e-24
-2.11651e-22
7.49715e-17
1.98813e-15
9.20201e-15
4.34087e-14
1.18169e-13
2.32373e-13
3.57772e-13
5.43556e-13
6.08516e-13
7.29871e-13
8.01557e-13
8.47574e-13
1.41692e-31
-1.17011e-29
-1.442e-19
3.51346e-15
6.28759e-14
7.97512e-14
3.41329e-13
3.4824e-13
5.55358e-13
5.29516e-13
5.6408e-13
6.13051e-13
7.58386e-13
7.96195e-13
8.27084e-13
1.38389e-28
8.80535e-26
-6.84253e-18
1.19421e-13
1.38008e-12
1.23262e-12
4.36444e-12
2.86949e-12
3.75091e-12
1.96117e-12
6.79212e-13
6.71458e-13
7.4384e-13
7.92266e-13
8.17012e-13
9.48078e-26
4.1819e-23
-7.00848e-17
2.80779e-12
2.2897e-11
1.6615e-11
5.03693e-11
2.88927e-11
5.03633e-11
2.12105e-11
1.8033e-12
9.74343e-13
7.89667e-13
7.97645e-13
8.08494e-13
4.47774e-23
1.42608e-20
-4.42583e-16
1.62669e-09
2.45106e-09
2.64463e-09
2.99183e-09
4.61617e-10
4.24609e-10
2.5129e-10
1.07083e-11
1.88885e-12
8.21075e-13
8.02793e-13
8.12219e-13
1.43329e-20
-4.45013e-16
7.69736e-09
2.59633e-08
2.82539e-08
2.63283e-08
2.74884e-08
6.24836e-09
5.78129e-09
4.57846e-09
7.10926e-11
9.3529e-12
9.03533e-13
3.40492e-18
6.30215e-16
8.26452e-08
1.08829e-07
1.03109e-07
5.2215e-08
5.49382e-08
2.91758e-08
5.11476e-08
1.57654e-08
4.07265e-10
3.2616e-11
2.25934e-12
6.30444e-16
9.34303e-14
1.52127e-06
6.59836e-07
1.01334e-06
2.87166e-07
8.55716e-07
1.33415e-07
2.7444e-07
1.33515e-08
2.10035e-09
7.7356e-11
1.04097e-11
9.3411e-14
1.07985e-11
1.40174e-06
1.05939e-06
1.9163e-06
7.1483e-07
7.05642e-06
7.26108e-07
1.19411e-06
5.8569e-08
1.04422e-08
3.75452e-10
5.02199e-11
1.07954e-11
1.05076e-09
1.58705e-05
6.45811e-06
1.25551e-05
4.07378e-06
1.03009e-05
3.38154e-06
4.62427e-06
2.79051e-07
5.00614e-08
1.82542e-09
2.43532e-10
1.05402e-09
0.0202169
0.256611
0.17825
0.0644395
1.79705e-05
5.15081e-05
2.05902e-05
7.44356e-06
1.37118e-06
2.30581e-07
9.04883e-09
1.20819e-09
8.18887e-08
0.288386
0.556597
0.535641
0.456321
0.2914
0.0488155
0.000194486
3.76532e-05
7.16398e-06
1.08067e-06
4.79416e-08
6.47898e-09
0.0705606
0.477982
0.747131
0.730105
0.656211
0.503132
0.347967
0.067358
0.00021649
3.96952e-05
6.43697e-06
1.08186e-06
6.82821e-07
0.405912
0.682783
0.856087
0.849962
0.798214
0.681772
0.511877
0.357937
0.0767807
0.000105151
3.97663e-05
6.44053e-06
8.26349e-05
0.526404
0.845741
0.935404
0.932017
0.9003
0.822768
0.703031
0.553374
0.424434
0.244917
0.0772012
4.50558e-05
4.3782e-22
0.747505
0.937602
0.974255
0.973227
0.964088
0.929307
0.865261
0.785187
0.670876
0.607458
0.230276
6.52838e-05
-2.38634e-08
0.937079
0.967302
0.987049
0.990377
0.992417
0.983193
0.966237
0.949222
0.940758
0.999911
1
0.958757
0.989957
0.996224
0.999944
0.998935
0.997248
0.997964
1
1
0.999999
0.850257
0.987895
0.999098
1
1
1
1
1
1
0.973745
0.834289
0.99239
0.999982
1
1
1
1
1
1
1
0.841304
0.999986
1
1
1
1
1
1
1
0.999709
0.961725
1
0.998992
1
1
1
1
1
1
0.980754
0.999474
1
0.999998
1
1
1
1
1
1
0.731667
0.999778
1
1
1
1
1
1
1
1
0.663047
0.992485
1
1
1
1
1
1
1
1
1
1
1
1
1
1
1
1
1
1
1
1
1
1
1
1
1
1
1
1
1
1
1
1
1
1
1
1
1
1
1
1
1
1
1
1
1
1
1
1
1
1
1
1
1
1
1
1
1
1
1
1
1
1
1
1
1
1
1
1
1
1
1
1
1
1
1
1
1
1
1
1
1
1
1
1
1
1
1
1
1
1
1
1
1
1
1
1
1
1
1
1
1
1
1
1
1
1
1
1
1
1
1
1
1
1
1
1
1
1
1
1
1
1
1
1
1
1
1
1
1
1
1
1
1
1
1
1
1
1
1
1
1
1
1
1
1
1
1
1
1
1
1
1
1
1
1
1
1
1
1
1
1
1
1
1
1
1
1
1
1
1
1
1
1
1
1
1
1
1
1
1
1
1
1
1
1
1
1
1
1
1
1
1
1
1
1
1
1
1
1
1
1
1
1
1
1
1
1
1
1
1
1
1
1
1
1
1
1
1
1
1
1
1
1
1
1
1
1
1
1
1
1
1
1
1
1
1
1
1
1
1
1
1
1
1
1
1
1
1
1
1
1
1
1
1
1
1
1
1
1
1
1
1
1
1
1
1
1
1
1
1
1
1
1
1
1
1
1
1
1
1
1
1
1
1
1
1
1
1
1
1
1
1
1
1
1
1
1
1
1
1
1
1
1
1
1
1
1
1
1
1
1
1
1
1
1
1
1
1
1
1
1
1
1
1
1
1
1
1
1
1
1
1
1
1
1
1
1
1
1
1
1
1
1
1
1
1
1
1
1
1
1
1
1
1
1
1
1
1
1
1
1
1
1
1
1
1
1
1
1
1
1
1
1
1
1
1
1
1
1
1
1
1
1
1
1
1
1
1
1
1
1
1
1
1
1
1
1
1
1
1
1
1
1
1
1
1
1
1
1
1
1
1
1
1
1
1
1
1
1
1
1
1
1
1
1
1
1
1
1
1
1
1
1
1
1
1
1
1
1
1
1
1
1
1
1
1
1
1
1
1
1
1
1
1
1
1
1
1
1
1
1
1
1
1
1
1
1
1
1
1
1
1
1
1
1
1
1
1
1
1
1
1
1
1
1
1
1
1
1
1
1
1
1
1
1
1
1
1
1
1
1
1
1
1
1
1
1
1
1
1
1
1
1
1
1
1
1
1
1
1
1
1
1
1
1
1
1
1
1
1
1
1
1
1
1
1
1
1
1
1
1
1
1
1
1
1
1
1
1
1
1
1
1
1
1
1
1
1
1
1
1
1
1
1
1
1
1
1
1
1
1
1
1
1
1
1
1
1
1
1
1
1
1
1
1
1
1
1
1
1
1
1
1
1
1
1
1
1
1
1
1
1
1
1
1
1
1
1
1
1
1
1
1
1
1
1
1
1
1
1
1
1
1
1
1
1
1
1
1
1
1
1
1
1
1
1
1
1
1
1
1
1
1
1
1
1
1
1
1
1
1
1
1
1
1
1
1
1
1
1
1
1
1
1
1
1
1
1
1
1
1
1
1
1
1
1
1
1
1
1
1
1
1
1
1
1
1
1
1
1
1
1
1
1
1
1
1
1
1
1
1
1
1
1
1
1
1
1
1
1
1
1
1
1
1
1
1
1
1
1
1
1
1
1
1
1
1
1
1
1
1
1
1
1
1
1
1
1
1
1
1
1
1
1
1
1
1
1
1
1
1
1
1
1
1
1
1
1
1
1
1
1
1
1
1
1
1
1
1
1
1
1
1
1
1
1
1
1
1
1
1
1
1
1
1
1
1
1
1
1
1
1
1
1
1
1
1
1
1
1
1
1
1
1
1
1
1
1
1
1
1
1
1
1
1
1
1
1
1
1
1
1
1
1
1
1
1
1
1
1
1
1
1
1
1
1
1
1
1
1
1
1
1
1
1
1
1
1
1
1
1
1
1
1
1
1
1
1
1
1
1
1
1
1
1
1
1
1
1
1
1
1
1
1
1
1
1
1
1
1
1
1
1
1
1
1
1
1
1
1
1
1
1
1
1
1
1
1
1
1
1
1
1
1
1
1
1
1
1
1
1
1
1
1
1
1
1
1
1
1
1
1
1
1
1
1
1
1
1
1
1
1
1
1
1
1
1
1
1
1
1
1
1
1
1
1
1
1
1
1
1
1
1
1
1
1
1
1
1
1
1
1
1
1
1
1
1
1
1
1
1
1
1
1
1
1
1
1
1
1
1
1
1
1
1
1
1
1
1
1
1
1
1
1
1
1
1
1
1
1
1
1
1
1
1
1
1
1
1
1
1
1
1
1
1
1
1
1
1
1
1
1
1
1
1
1
1
1
1
1
1
1
1
1
1
1
1
1
1
1
1
1
1
1
1
1
1
1
1
1
1
1
1
1
1
1
1
1
)
;

boundaryField
{
    inlet
    {
        type            fixedValue;
        value           uniform 1;
    }
    outlet
    {
        type            inletOutlet;
        inletValue      nonuniform List<scalar> 0();
        value           nonuniform List<scalar> 0();
    }
    walls
    {
        type            zeroGradient;
    }
    side1
    {
        type            cyclic;
    }
    side2
    {
        type            cyclic;
    }
    procBoundary1to0
    {
        type            processor;
        value           nonuniform List<scalar> 
76
(
-2.66639e-35
1.87121e-29
7.58234e-27
4.84537e-25
2.74167e-23
1.41034e-21
6.59965e-20
2.91993e-18
3.94463e-13
1.03324e-12
1.21328e-12
1.25681e-12
1.2595e-12
1.24145e-12
1.12238e-12
1.05227e-12
9.98693e-13
9.7237e-13
9.63244e-13
9.49552e-13
9.07127e-13
8.44162e-13
8.15746e-13
8.11703e-13
8.2166e-13
4.52239e-11
8.18355e-13
8.2166e-13
9.07757e-13
2.31838e-12
1.06872e-11
5.08483e-11
2.40859e-10
1.00792e-09
-1.08951e-12
-1.14212e-11
-1.23557e-09
-1.37225e-08
-2.09206e-35
1.87229e-29
7.58287e-27
4.84565e-25
2.7419e-23
1.41046e-21
6.60033e-20
2.92023e-18
3.94458e-13
1.03322e-12
1.21326e-12
1.25681e-12
1.2595e-12
1.2414e-12
1.1224e-12
1.05235e-12
9.98776e-13
9.72303e-13
9.62778e-13
9.48848e-13
9.10451e-13
8.48067e-13
8.1754e-13
8.12219e-13
8.21075e-13
3.67508e-11
8.19071e-13
8.21075e-13
9.03533e-13
2.2594e-12
1.04103e-11
5.02286e-11
2.39363e-10
1.01076e-09
-1.09626e-12
-1.14443e-11
-1.24621e-09
-1.38759e-08
)
;
    }
    procBoundary1to2
    {
        type            processor;
        value           nonuniform List<scalar> 
84
(
1
1
1
1
1
1
1
1
1
1
1
1
1
1
1
1
1
1
1
1
1
1
1
1
1
1
1
1
1
1
1
1
1
1
1
1
1
1
1
1
1
1
1
1
1
1
1
1
1
1
1
1
1
1
1
1
1
1
1
1
1
1
1
1
1
1
1
1
1
1
1
1
1
1
1
1
1
1
1
1
1
1
1
1
)
;
    }
    procBoundary1to4
    {
        type            processor;
        value           nonuniform List<scalar> 
32
(
-2.9611e-88
-1.38515e-82
-5.2679e-69
-2.65705e-60
-3.6079e-56
-6.9192e-53
-3.55756e-55
-1.53665e-52
-8.76925e-43
-8.76925e-43
-1.51251e-40
-2.46167e-42
-5.40534e-42
-1.79825e-40
-5.69237e-39
-1.23688e-37
-3.05401e-88
-1.38573e-82
-5.27287e-69
-2.65625e-60
-3.5001e-56
-7.00656e-53
-3.55497e-55
0
-8.81165e-43
-8.81165e-43
-1.50056e-40
-2.10056e-42
-3.32869e-42
-1.11518e-40
-3.04167e-39
-7.69066e-38
)
;
    }
}


// ************************************************************************* //
