/*--------------------------------*- C++ -*----------------------------------*\
| =========                 |                                                 |
| \\      /  F ield         | OpenFOAM: The Open Source CFD Toolbox           |
|  \\    /   O peration     | Version:  v2012                                 |
|   \\  /    A nd           | Website:  www.openfoam.com                      |
|    \\/     M anipulation  |                                                 |
\*---------------------------------------------------------------------------*/
FoamFile
{
    version     2.0;
    format      ascii;
    class       volScalarField;
    location    "0.2";
    object      p;
}
// * * * * * * * * * * * * * * * * * * * * * * * * * * * * * * * * * * * * * //

dimensions      [1 -1 -2 0 0 0 0];


internalField   nonuniform List<scalar> 
3332
(
3.5031e+06
3.49984e+06
3.4973e+06
3.49601e+06
3.49621e+06
3.49594e+06
3.49596e+06
3.49605e+06
3.51284e+06
3.50283e+06
3.49754e+06
3.49625e+06
3.49575e+06
3.49554e+06
3.49544e+06
3.49558e+06
3.49569e+06
3.49581e+06
3.49586e+06
3.49562e+06
3.49573e+06
3.49586e+06
3.49594e+06
3.51167e+06
3.50303e+06
3.49808e+06
3.49655e+06
3.49563e+06
3.49542e+06
3.49543e+06
3.49529e+06
3.49513e+06
3.49521e+06
3.49539e+06
3.49526e+06
3.49549e+06
3.49564e+06
3.49573e+06
3.50787e+06
3.50193e+06
3.49782e+06
3.49637e+06
3.49545e+06
3.49518e+06
3.4951e+06
3.49508e+06
3.49487e+06
3.49501e+06
3.49513e+06
3.49501e+06
3.49525e+06
3.49543e+06
3.49554e+06
3.50633e+06
3.50074e+06
3.4974e+06
3.49611e+06
3.49518e+06
3.49495e+06
3.49484e+06
3.49484e+06
3.49468e+06
3.49482e+06
3.49491e+06
3.49479e+06
3.495e+06
3.4952e+06
3.49532e+06
3.50184e+06
3.49942e+06
3.49671e+06
3.49547e+06
3.49463e+06
3.49441e+06
3.49433e+06
3.49437e+06
3.49429e+06
3.49447e+06
3.49461e+06
3.49451e+06
3.49473e+06
3.49495e+06
3.49509e+06
3.49953e+06
3.49696e+06
3.49554e+06
3.49482e+06
3.49412e+06
3.49394e+06
3.49385e+06
3.49392e+06
3.49388e+06
3.4941e+06
3.49429e+06
3.49422e+06
3.49446e+06
3.4947e+06
3.49485e+06
3.48688e+06
3.49217e+06
3.4939e+06
3.49383e+06
3.49353e+06
3.49351e+06
3.49344e+06
3.49353e+06
3.49351e+06
3.49376e+06
3.494e+06
3.49395e+06
3.49423e+06
3.49447e+06
3.49464e+06
3.48379e+06
3.48921e+06
3.49231e+06
3.49282e+06
3.49275e+06
3.49286e+06
3.49297e+06
3.49321e+06
3.49329e+06
3.49355e+06
3.49376e+06
3.49369e+06
3.49394e+06
3.49418e+06
3.49436e+06
3.48447e+06
3.48913e+06
3.49184e+06
3.49224e+06
3.49204e+06
3.49229e+06
3.49253e+06
3.49216e+06
3.49239e+06
3.49277e+06
3.49298e+06
3.49329e+06
3.49358e+06
3.49385e+06
3.49409e+06
3.48073e+06
3.48564e+06
3.48982e+06
3.49095e+06
3.49106e+06
3.49144e+06
3.49188e+06
3.4917e+06
3.49203e+06
3.49242e+06
3.49261e+06
3.49292e+06
3.49319e+06
3.49348e+06
3.49374e+06
3.47144e+06
3.48162e+06
3.48844e+06
3.49014e+06
3.49054e+06
3.49095e+06
3.49136e+06
3.49126e+06
3.49162e+06
3.49203e+06
3.49225e+06
3.49257e+06
3.49288e+06
3.49317e+06
3.49345e+06
3.47279e+06
3.48282e+06
3.48834e+06
3.48961e+06
3.49007e+06
3.49058e+06
3.49088e+06
3.4906e+06
3.49086e+06
3.49133e+06
3.49163e+06
3.49201e+06
3.49238e+06
3.49272e+06
3.49302e+06
3.48896e+06
3.48748e+06
3.48737e+06
3.489e+06
3.48954e+06
3.48911e+06
3.48954e+06
3.49026e+06
3.4904e+06
3.49092e+06
3.49131e+06
3.49163e+06
3.49202e+06
3.49237e+06
3.49266e+06
3.49042e+06
3.48845e+06
3.48733e+06
3.48862e+06
3.48904e+06
3.4886e+06
3.48881e+06
3.4894e+06
3.48943e+06
3.49001e+06
3.49054e+06
3.49089e+06
3.49138e+06
3.49179e+06
3.49206e+06
3.47327e+06
3.48067e+06
3.48506e+06
3.48611e+06
3.48705e+06
3.48818e+06
3.48831e+06
3.48891e+06
3.48906e+06
3.48963e+06
3.4902e+06
3.49034e+06
3.49093e+06
3.49143e+06
3.49172e+06
3.46704e+06
3.46881e+06
3.47783e+06
3.48271e+06
3.48511e+06
3.48673e+06
3.48712e+06
3.48808e+06
3.48849e+06
3.48908e+06
3.49005e+06
3.49013e+06
3.49075e+06
3.49111e+06
3.49106e+06
3.35175e+06
3.43706e+06
3.46958e+06
3.48092e+06
3.48471e+06
3.48641e+06
3.48721e+06
3.48721e+06
3.48764e+06
3.48799e+06
3.48906e+06
3.48852e+06
3.48942e+06
3.49016e+06
3.49016e+06
3.34294e+06
3.43217e+06
3.46813e+06
3.48048e+06
3.4841e+06
3.4855e+06
3.48633e+06
3.48635e+06
3.48687e+06
3.48713e+06
3.4885e+06
3.4879e+06
3.48888e+06
3.48954e+06
3.48926e+06
3.43586e+06
3.46438e+06
3.48393e+06
3.48762e+06
3.48794e+06
3.48848e+06
3.48822e+06
3.48733e+06
3.48747e+06
3.48729e+06
3.48847e+06
3.48748e+06
3.48838e+06
3.48899e+06
3.48864e+06
3.51712e+06
3.56472e+06
3.53154e+06
3.50664e+06
3.49463e+06
3.49041e+06
3.48797e+06
3.48578e+06
3.48552e+06
3.48507e+06
3.48627e+06
3.48531e+06
3.48641e+06
3.48722e+06
3.48706e+06
4.12707e+06
3.74838e+06
3.5599e+06
3.52502e+06
3.49956e+06
3.493e+06
3.49021e+06
3.4869e+06
3.48625e+06
3.48522e+06
3.48611e+06
3.4849e+06
3.48581e+06
3.48644e+06
3.48622e+06
4.20068e+06
3.83687e+06
3.605e+06
3.54517e+06
3.50656e+06
3.4925e+06
3.48683e+06
3.48229e+06
3.48177e+06
3.48048e+06
3.48189e+06
3.48101e+06
3.48253e+06
3.48362e+06
3.48394e+06
4.15369e+06
3.81121e+06
3.61407e+06
3.53668e+06
3.49642e+06
3.49448e+06
3.48575e+06
3.48086e+06
3.4817e+06
3.47958e+06
3.48126e+06
3.48018e+06
3.48177e+06
3.48269e+06
3.48302e+06
4.10967e+06
3.78106e+06
3.59702e+06
3.52653e+06
3.48812e+06
3.48659e+06
3.4788e+06
3.47379e+06
3.47615e+06
3.47339e+06
3.47587e+06
3.47473e+06
3.47701e+06
3.47846e+06
3.47976e+06
4.13096e+06
3.78338e+06
3.59287e+06
3.50972e+06
3.49039e+06
3.47475e+06
3.47706e+06
3.46803e+06
3.47265e+06
3.46922e+06
3.47288e+06
3.47208e+06
3.47468e+06
3.47629e+06
3.47811e+06
3.97127e+06
3.63468e+06
3.49197e+06
3.45628e+06
3.44689e+06
3.44765e+06
3.45337e+06
3.44867e+06
3.45758e+06
3.45485e+06
3.46276e+06
3.46242e+06
3.4678e+06
3.28311e+06
3.38781e+06
3.49455e+06
3.44744e+06
3.48689e+06
3.45082e+06
3.47462e+06
3.44805e+06
3.46417e+06
3.45333e+06
3.46404e+06
3.46041e+06
3.46667e+06
3.00845e+06
3.25433e+06
3.36472e+06
3.39809e+06
3.41926e+06
3.42541e+06
3.4371e+06
3.41648e+06
3.43901e+06
3.42696e+06
3.44696e+06
3.44317e+06
3.45615e+06
2.91217e+06
3.24091e+06
3.53991e+06
3.51395e+06
3.57935e+06
3.47749e+06
3.47764e+06
3.4156e+06
3.43648e+06
3.42506e+06
3.44602e+06
3.43979e+06
3.45497e+06
2.37185e+06
2.78583e+06
2.87601e+06
2.89167e+06
3.14626e+06
3.23876e+06
3.34357e+06
3.297e+06
3.39965e+06
3.36389e+06
3.42004e+06
3.40623e+06
3.43796e+06
4.12494e+06
4.00085e+06
4.00094e+06
4.00025e+06
3.99728e+06
3.99604e+06
3.33561e+06
3.38882e+06
3.36371e+06
3.39605e+06
3.41349e+06
3.41032e+06
3.43946e+06
3.9169e+06
4.00112e+06
4.00107e+06
4.00094e+06
4.00062e+06
3.99988e+06
3.99554e+06
2.73342e+06
3.35614e+06
3.20742e+06
3.39538e+06
3.34122e+06
3.41614e+06
4.00119e+06
4.00116e+06
4.00112e+06
4.00104e+06
4.00088e+06
4.00054e+06
3.99991e+06
3.99637e+06
2.88252e+06
3.37306e+06
3.41215e+06
3.37141e+06
3.42634e+06
4.00119e+06
4.00116e+06
4.00111e+06
4.00104e+06
4.00093e+06
4.00075e+06
4.00046e+06
3.99975e+06
3.99686e+06
2.65659e+06
3.27167e+06
3.16941e+06
3.38817e+06
4.00118e+06
4.00114e+06
4.00108e+06
4.00102e+06
4.00092e+06
4.00081e+06
4.00067e+06
4.00046e+06
4.00012e+06
3.99939e+06
3.99705e+06
3.05621e+06
3.50144e+06
4.00118e+06
4.00113e+06
4.00108e+06
4.00103e+06
4.0009e+06
4.0008e+06
4.00072e+06
4.00062e+06
4.0005e+06
4.00019e+06
3.99967e+06
3.00518e+06
3.48668e+06
4.00117e+06
4.00113e+06
4.00112e+06
4.00111e+06
4.00095e+06
4.00086e+06
4.00082e+06
4.00082e+06
4.00087e+06
4.00376e+06
4.13129e+06
4.0012e+06
4.00119e+06
4.00118e+06
4.00116e+06
4.00105e+06
4.00101e+06
4.00105e+06
4.0033e+06
4.0991e+06
4.02542e+06
4.0012e+06
4.00126e+06
4.00155e+06
4.06767e+06
4.07297e+06
4.08342e+06
4.09019e+06
4.10039e+06
4.10241e+06
4.00121e+06
4.0012e+06
4.00133e+06
4.01494e+06
4.1416e+06
4.10979e+06
4.13642e+06
4.14033e+06
4.1445e+06
4.15753e+06
4.32473e+06
4.0012e+06
4.0552e+06
4.17677e+06
4.12727e+06
4.22914e+06
4.18945e+06
4.2281e+06
4.21824e+06
4.22517e+06
4.00312e+06
4.00124e+06
4.47843e+06
4.00115e+06
4.37812e+06
4.22395e+06
4.28641e+06
4.27809e+06
4.27556e+06
4.28028e+06
4.00125e+06
4.00214e+06
4.25645e+06
4.01944e+06
4.34515e+06
4.29845e+06
4.36582e+06
4.3498e+06
4.35538e+06
4.35107e+06
4.00121e+06
4.00245e+06
4.52296e+06
4.31346e+06
4.48564e+06
4.41543e+06
4.44382e+06
4.41677e+06
4.40939e+06
4.39945e+06
4.0012e+06
4.0012e+06
4.49544e+06
4.44763e+06
4.61888e+06
4.57606e+06
4.58395e+06
4.51583e+06
4.46847e+06
4.41351e+06
4.26585e+06
4.31045e+06
4.5026e+06
4.63941e+06
4.70708e+06
4.70365e+06
4.65865e+06
4.58421e+06
4.50956e+06
4.38275e+06
4.48911e+06
4.54e+06
4.55454e+06
4.55777e+06
4.55642e+06
4.55391e+06
4.55145e+06
4.54872e+06
4.54745e+06
4.52875e+06
4.55926e+06
4.55966e+06
4.55432e+06
4.54969e+06
4.54684e+06
4.54546e+06
4.54507e+06
4.54525e+06
4.54563e+06
4.54613e+06
4.55361e+06
4.55519e+06
4.55237e+06
4.55092e+06
4.54957e+06
4.54827e+06
4.54708e+06
4.54565e+06
4.54507e+06
4.54356e+06
4.55306e+06
4.5516e+06
4.54881e+06
4.54684e+06
4.54559e+06
4.54494e+06
4.54455e+06
4.54435e+06
4.54424e+06
4.54432e+06
4.54919e+06
4.55e+06
4.54768e+06
4.54622e+06
4.54532e+06
4.54486e+06
4.54466e+06
4.54424e+06
4.54398e+06
4.54372e+06
4.54656e+06
4.54628e+06
4.54455e+06
4.54347e+06
4.54285e+06
4.54271e+06
4.54282e+06
4.54276e+06
4.54263e+06
4.54259e+06
4.54343e+06
4.54395e+06
4.54294e+06
4.54211e+06
4.54151e+06
4.5414e+06
4.54155e+06
4.54148e+06
4.54135e+06
4.54126e+06
4.54101e+06
4.54031e+06
4.5399e+06
4.53957e+06
4.53928e+06
4.5393e+06
4.53949e+06
4.53948e+06
4.53938e+06
4.53934e+06
4.53682e+06
4.53801e+06
4.5375e+06
4.53757e+06
4.53793e+06
4.53792e+06
4.53773e+06
4.53759e+06
4.53748e+06
4.53744e+06
4.53433e+06
4.53395e+06
4.53409e+06
4.53471e+06
4.53537e+06
4.53548e+06
4.53531e+06
4.53521e+06
4.53513e+06
4.5351e+06
4.52968e+06
4.53015e+06
4.5312e+06
4.53206e+06
4.53273e+06
4.53291e+06
4.53286e+06
4.53282e+06
4.53279e+06
4.53277e+06
4.52759e+06
4.52634e+06
4.52764e+06
4.52883e+06
4.52974e+06
4.5301e+06
4.53018e+06
4.53023e+06
4.53024e+06
4.53025e+06
4.52521e+06
4.52571e+06
4.52513e+06
4.52591e+06
4.52699e+06
4.52749e+06
4.52766e+06
4.52776e+06
4.52781e+06
4.52783e+06
4.52408e+06
4.52325e+06
4.52257e+06
4.52329e+06
4.52432e+06
4.52485e+06
4.52508e+06
4.52524e+06
4.52532e+06
4.52536e+06
4.52081e+06
4.52123e+06
4.5215e+06
4.52176e+06
4.52205e+06
4.52238e+06
4.52267e+06
4.52286e+06
4.52298e+06
4.52303e+06
4.51926e+06
4.51848e+06
4.51907e+06
4.51951e+06
4.51981e+06
4.52014e+06
4.52043e+06
4.52064e+06
4.52076e+06
4.52082e+06
4.51528e+06
4.51589e+06
4.51654e+06
4.51724e+06
4.51783e+06
4.51821e+06
4.51848e+06
4.51867e+06
4.51879e+06
4.51885e+06
4.51313e+06
4.51251e+06
4.51377e+06
4.51496e+06
4.5158e+06
4.5163e+06
4.51662e+06
4.51682e+06
4.51696e+06
4.51702e+06
4.51007e+06
4.50999e+06
4.51181e+06
4.51315e+06
4.514e+06
4.51454e+06
4.51493e+06
4.51518e+06
4.51534e+06
4.51541e+06
4.50932e+06
4.50852e+06
4.51024e+06
4.51155e+06
4.51243e+06
4.51301e+06
4.51342e+06
4.51367e+06
4.51382e+06
4.5139e+06
4.50957e+06
4.50959e+06
4.50979e+06
4.51052e+06
4.51128e+06
4.51182e+06
4.51202e+06
4.51224e+06
4.51238e+06
4.51244e+06
4.51001e+06
4.50998e+06
4.50956e+06
4.50978e+06
4.51027e+06
4.51067e+06
4.5108e+06
4.51097e+06
4.51108e+06
4.51112e+06
4.51074e+06
4.51075e+06
4.50978e+06
4.50934e+06
4.50949e+06
4.50966e+06
4.50968e+06
4.50979e+06
4.50988e+06
4.50991e+06
4.51054e+06
4.51044e+06
4.5093e+06
4.50864e+06
4.50858e+06
4.50857e+06
4.50848e+06
4.50852e+06
4.50857e+06
4.50859e+06
4.50949e+06
4.50989e+06
4.50862e+06
4.5079e+06
4.50759e+06
4.50745e+06
4.50737e+06
4.50735e+06
4.50734e+06
4.50734e+06
4.50799e+06
4.50775e+06
4.50689e+06
4.50645e+06
4.50623e+06
4.50608e+06
4.50597e+06
4.5059e+06
4.50588e+06
4.50587e+06
4.50514e+06
4.50559e+06
4.50536e+06
4.50513e+06
4.50495e+06
4.50482e+06
4.50473e+06
4.50468e+06
4.50467e+06
4.50466e+06
4.50302e+06
4.50256e+06
4.50294e+06
4.50315e+06
4.50318e+06
4.50316e+06
4.50313e+06
4.50308e+06
4.50307e+06
4.50302e+06
4.50044e+06
4.50125e+06
4.50142e+06
4.50177e+06
4.50203e+06
4.50215e+06
4.50221e+06
4.5022e+06
4.50219e+06
4.50216e+06
4.49854e+06
4.49864e+06
4.49937e+06
4.50003e+06
4.50048e+06
4.50067e+06
4.50073e+06
4.50058e+06
4.50042e+06
4.49997e+06
4.49349e+06
4.49697e+06
4.49873e+06
4.49948e+06
4.49998e+06
4.5003e+06
4.50051e+06
4.50053e+06
4.50055e+06
4.50018e+06
4.50032e+06
4.49997e+06
4.49994e+06
4.49985e+06
4.49982e+06
4.49978e+06
4.49976e+06
4.49353e+06
4.49615e+06
4.49788e+06
4.49871e+06
4.49926e+06
4.49963e+06
4.49986e+06
4.49993e+06
4.49999e+06
4.49984e+06
4.50005e+06
4.4999e+06
4.49989e+06
4.49982e+06
4.4998e+06
4.49977e+06
4.49975e+06
4.49373e+06
4.49619e+06
4.49781e+06
4.4987e+06
4.49926e+06
4.49961e+06
4.49984e+06
4.49992e+06
4.49997e+06
4.49993e+06
4.49997e+06
4.49988e+06
4.49986e+06
4.49981e+06
4.49979e+06
4.49976e+06
4.49974e+06
4.49382e+06
4.49607e+06
4.49759e+06
4.49849e+06
4.49906e+06
4.49941e+06
4.49963e+06
4.49972e+06
4.49979e+06
4.49979e+06
4.49983e+06
4.4998e+06
4.4998e+06
4.49977e+06
4.49976e+06
4.49974e+06
4.49973e+06
4.49471e+06
4.49639e+06
4.49773e+06
4.49857e+06
4.49911e+06
4.49944e+06
4.49964e+06
4.49973e+06
4.49978e+06
4.49979e+06
4.49981e+06
4.49979e+06
4.49978e+06
4.49976e+06
4.49975e+06
4.49973e+06
4.49972e+06
4.49481e+06
4.49674e+06
4.49795e+06
4.49868e+06
4.49913e+06
4.4994e+06
4.49956e+06
4.49964e+06
4.49969e+06
4.49972e+06
4.49974e+06
4.49974e+06
4.49974e+06
4.49973e+06
4.49973e+06
4.49972e+06
4.49971e+06
4.49562e+06
4.49754e+06
4.49865e+06
4.49912e+06
4.49934e+06
4.4995e+06
4.49961e+06
4.49966e+06
4.4997e+06
4.49972e+06
4.49973e+06
4.49973e+06
4.49973e+06
4.49972e+06
4.49972e+06
4.49971e+06
4.4997e+06
4.4959e+06
4.49822e+06
4.49908e+06
4.49937e+06
4.49947e+06
4.49955e+06
4.4996e+06
4.49964e+06
4.49967e+06
4.49969e+06
4.4997e+06
4.4997e+06
4.49971e+06
4.4997e+06
4.4997e+06
4.4997e+06
4.49969e+06
4.49925e+06
4.49925e+06
4.49941e+06
4.49952e+06
4.49958e+06
4.49961e+06
4.49964e+06
4.49967e+06
4.49968e+06
4.49969e+06
4.4997e+06
4.4997e+06
4.4997e+06
4.49969e+06
4.49969e+06
4.49969e+06
4.49969e+06
4.49941e+06
4.49952e+06
4.49954e+06
4.49957e+06
4.4996e+06
4.49962e+06
4.49964e+06
4.49966e+06
4.49967e+06
4.49968e+06
4.49968e+06
4.49968e+06
4.49968e+06
4.49968e+06
4.49968e+06
4.49968e+06
4.49968e+06
4.49954e+06
4.49956e+06
4.49961e+06
4.49962e+06
4.49964e+06
4.49965e+06
4.49966e+06
4.49967e+06
4.49967e+06
4.49968e+06
4.49968e+06
4.49968e+06
4.49968e+06
4.49968e+06
4.49968e+06
4.49967e+06
4.49967e+06
4.49967e+06
4.49967e+06
4.49957e+06
4.49958e+06
4.49961e+06
4.49962e+06
4.49964e+06
4.49965e+06
4.49965e+06
4.49966e+06
4.49966e+06
4.49967e+06
4.49967e+06
4.49967e+06
4.49967e+06
4.49967e+06
4.49967e+06
4.49967e+06
4.49967e+06
4.49967e+06
4.49966e+06
4.4996e+06
4.4996e+06
4.49963e+06
4.49964e+06
4.49965e+06
4.49965e+06
4.49966e+06
4.49966e+06
4.49966e+06
4.49967e+06
4.49967e+06
4.49967e+06
4.49967e+06
4.49967e+06
4.49966e+06
4.49966e+06
4.49966e+06
4.49966e+06
4.49966e+06
4.49962e+06
4.49963e+06
4.49963e+06
4.49964e+06
4.49964e+06
4.49965e+06
4.49965e+06
4.49966e+06
4.49966e+06
4.49966e+06
4.49966e+06
4.49966e+06
4.49966e+06
4.49966e+06
4.49966e+06
4.49966e+06
4.49966e+06
4.49966e+06
4.49966e+06
4.49964e+06
4.49964e+06
4.49965e+06
4.49965e+06
4.49965e+06
4.49965e+06
4.49965e+06
4.49965e+06
4.49966e+06
4.49966e+06
4.49966e+06
4.49966e+06
4.49966e+06
4.49966e+06
4.49966e+06
4.49965e+06
4.49965e+06
4.49965e+06
4.49965e+06
4.49964e+06
4.49964e+06
4.49964e+06
4.49964e+06
4.49965e+06
4.49965e+06
4.49965e+06
4.49965e+06
4.49965e+06
4.49965e+06
4.49965e+06
4.49965e+06
4.49965e+06
4.49965e+06
4.49965e+06
4.49965e+06
4.49965e+06
4.49965e+06
4.49965e+06
4.49965e+06
4.49964e+06
4.49964e+06
4.49964e+06
4.49964e+06
4.49964e+06
4.49965e+06
4.49965e+06
4.49965e+06
4.49965e+06
4.49965e+06
4.49965e+06
4.49965e+06
4.49965e+06
4.49965e+06
4.49965e+06
4.49965e+06
4.49965e+06
4.49964e+06
4.49964e+06
4.49964e+06
4.49964e+06
4.49964e+06
4.49964e+06
4.49964e+06
4.49964e+06
4.49964e+06
4.49964e+06
4.49964e+06
4.49964e+06
4.49964e+06
4.49964e+06
4.49964e+06
4.49964e+06
4.49964e+06
4.49964e+06
4.49964e+06
4.49964e+06
4.49964e+06
4.49963e+06
4.49964e+06
4.49964e+06
4.49964e+06
4.49964e+06
4.49964e+06
4.49964e+06
4.49964e+06
4.49964e+06
4.49964e+06
4.49964e+06
4.49964e+06
4.49964e+06
4.49964e+06
4.49964e+06
4.49964e+06
4.49964e+06
4.49964e+06
4.49963e+06
4.49963e+06
4.49963e+06
4.49963e+06
4.49963e+06
4.49963e+06
4.49963e+06
4.49963e+06
4.49964e+06
4.49964e+06
4.49964e+06
4.49964e+06
4.49964e+06
4.49964e+06
4.49964e+06
4.49964e+06
4.49964e+06
4.49964e+06
4.49963e+06
4.49963e+06
4.49963e+06
4.49963e+06
4.49963e+06
4.49963e+06
4.49963e+06
4.49963e+06
4.49963e+06
4.49963e+06
4.49963e+06
4.49963e+06
4.49963e+06
4.49963e+06
4.49963e+06
4.49963e+06
4.49963e+06
4.49963e+06
4.49963e+06
4.49963e+06
4.49962e+06
4.49962e+06
4.49962e+06
4.49962e+06
4.49963e+06
4.49963e+06
4.49963e+06
4.49963e+06
4.49963e+06
4.49963e+06
4.49963e+06
4.49963e+06
4.49963e+06
4.49963e+06
4.49963e+06
4.49963e+06
4.49963e+06
4.49963e+06
4.49963e+06
4.49962e+06
4.49962e+06
4.49962e+06
4.49962e+06
4.49962e+06
4.49962e+06
4.49963e+06
4.49963e+06
4.49963e+06
4.49963e+06
4.49963e+06
4.49963e+06
4.49963e+06
4.49963e+06
4.49963e+06
4.49963e+06
4.49963e+06
4.49963e+06
4.49963e+06
4.49961e+06
4.49962e+06
4.49962e+06
4.49962e+06
4.49962e+06
4.49962e+06
4.49962e+06
4.49962e+06
4.49962e+06
4.49962e+06
4.49962e+06
4.49962e+06
4.49962e+06
4.49962e+06
4.49962e+06
4.49962e+06
4.49962e+06
4.49962e+06
4.49962e+06
4.49961e+06
4.49961e+06
4.49962e+06
4.49962e+06
4.49962e+06
4.49962e+06
4.49962e+06
4.49962e+06
4.49962e+06
4.49962e+06
4.49962e+06
4.49962e+06
4.49962e+06
4.49962e+06
4.49962e+06
4.49962e+06
4.49962e+06
4.49962e+06
4.49962e+06
4.49961e+06
4.49961e+06
4.49961e+06
4.49961e+06
4.49962e+06
4.49962e+06
4.49962e+06
4.49962e+06
4.49962e+06
4.49962e+06
4.49962e+06
4.49962e+06
4.49962e+06
4.49962e+06
4.49962e+06
4.49962e+06
4.49962e+06
4.49962e+06
4.49962e+06
4.49961e+06
4.49961e+06
4.49961e+06
4.49961e+06
4.49961e+06
4.49961e+06
4.49961e+06
4.49961e+06
4.49962e+06
4.49962e+06
4.49962e+06
4.49962e+06
4.49962e+06
4.49962e+06
4.49962e+06
4.49962e+06
4.49962e+06
4.49962e+06
4.49962e+06
4.4996e+06
4.49961e+06
4.49961e+06
4.49961e+06
4.49961e+06
4.49961e+06
4.49961e+06
4.49961e+06
4.49961e+06
4.49961e+06
4.49961e+06
4.49961e+06
4.49961e+06
4.49961e+06
4.49961e+06
4.49961e+06
4.49961e+06
4.49961e+06
4.49961e+06
4.4996e+06
4.4996e+06
4.49961e+06
4.49961e+06
4.49961e+06
4.49961e+06
4.49961e+06
4.49961e+06
4.49961e+06
4.49961e+06
4.49961e+06
4.49961e+06
4.49961e+06
4.49961e+06
4.49961e+06
4.49961e+06
4.49961e+06
4.49961e+06
4.49961e+06
4.4996e+06
4.4996e+06
4.4996e+06
4.4996e+06
4.49961e+06
4.49961e+06
4.49961e+06
4.49961e+06
4.49961e+06
4.49961e+06
4.49961e+06
4.49961e+06
4.49961e+06
4.49961e+06
4.49961e+06
4.49961e+06
4.49961e+06
4.49961e+06
4.49961e+06
4.4996e+06
4.4996e+06
4.4996e+06
4.4996e+06
4.4996e+06
4.4996e+06
4.4996e+06
4.4996e+06
4.49961e+06
4.49961e+06
4.49961e+06
4.49961e+06
4.49961e+06
4.49961e+06
4.49961e+06
4.49961e+06
4.49961e+06
4.49961e+06
4.49961e+06
4.49959e+06
4.4996e+06
4.4996e+06
4.4996e+06
4.4996e+06
4.4996e+06
4.4996e+06
4.4996e+06
4.4996e+06
4.4996e+06
4.4996e+06
4.4996e+06
4.4996e+06
4.4996e+06
4.4996e+06
4.4996e+06
4.4996e+06
4.4996e+06
4.4996e+06
4.49959e+06
4.49959e+06
4.4996e+06
4.4996e+06
4.4996e+06
4.4996e+06
4.4996e+06
4.4996e+06
4.4996e+06
4.4996e+06
4.4996e+06
4.4996e+06
4.4996e+06
4.4996e+06
4.4996e+06
4.4996e+06
4.4996e+06
4.4996e+06
4.4996e+06
4.49959e+06
4.49959e+06
4.49959e+06
4.49959e+06
4.4996e+06
4.4996e+06
4.4996e+06
4.4996e+06
4.4996e+06
4.4996e+06
4.4996e+06
4.4996e+06
4.4996e+06
4.4996e+06
4.4996e+06
4.4996e+06
4.4996e+06
4.4996e+06
4.4996e+06
4.49959e+06
4.49959e+06
4.49959e+06
4.49959e+06
4.49959e+06
4.49959e+06
4.49959e+06
4.49959e+06
4.4996e+06
4.4996e+06
4.4996e+06
4.4996e+06
4.4996e+06
4.4996e+06
4.4996e+06
4.4996e+06
4.4996e+06
4.4996e+06
4.4996e+06
4.49958e+06
4.49959e+06
4.49959e+06
4.49959e+06
4.49959e+06
4.49959e+06
4.49959e+06
4.49959e+06
4.49959e+06
4.49959e+06
4.49959e+06
4.49959e+06
4.49959e+06
4.49959e+06
4.49959e+06
4.49959e+06
4.49959e+06
4.49959e+06
4.49959e+06
4.49958e+06
4.49958e+06
4.49959e+06
4.49959e+06
4.49959e+06
4.49959e+06
4.49959e+06
4.49959e+06
4.49959e+06
4.49959e+06
4.49959e+06
4.49959e+06
4.49959e+06
4.49959e+06
4.49959e+06
4.49959e+06
4.49959e+06
4.49959e+06
4.49959e+06
4.49958e+06
4.49958e+06
4.49958e+06
4.49959e+06
4.49959e+06
4.49959e+06
4.49959e+06
4.49959e+06
4.49959e+06
4.49959e+06
4.49959e+06
4.49959e+06
4.49959e+06
4.49959e+06
4.49959e+06
4.49959e+06
4.49959e+06
4.49959e+06
4.49959e+06
4.49958e+06
4.49958e+06
4.49958e+06
4.49958e+06
4.49958e+06
4.49958e+06
4.49958e+06
4.49958e+06
4.49958e+06
4.49958e+06
4.49958e+06
4.49959e+06
4.49959e+06
4.49959e+06
4.49959e+06
4.49959e+06
4.49959e+06
4.49959e+06
4.49959e+06
4.49958e+06
4.49958e+06
4.49958e+06
4.49958e+06
4.49958e+06
4.49958e+06
4.49958e+06
4.49958e+06
4.49958e+06
4.49958e+06
4.49958e+06
4.49958e+06
4.49958e+06
4.49958e+06
4.49958e+06
4.49958e+06
4.49958e+06
4.49958e+06
4.49958e+06
3.5031e+06
3.49984e+06
3.4973e+06
3.49601e+06
3.49621e+06
3.49594e+06
3.49596e+06
3.49605e+06
3.51284e+06
3.50283e+06
3.49754e+06
3.49625e+06
3.49575e+06
3.49554e+06
3.49544e+06
3.49558e+06
3.49569e+06
3.49581e+06
3.49586e+06
3.49562e+06
3.49573e+06
3.49586e+06
3.49594e+06
3.51167e+06
3.50303e+06
3.49808e+06
3.49655e+06
3.49563e+06
3.49542e+06
3.49543e+06
3.49529e+06
3.49513e+06
3.49521e+06
3.4954e+06
3.49526e+06
3.49549e+06
3.49564e+06
3.49573e+06
3.50787e+06
3.50193e+06
3.49782e+06
3.49637e+06
3.49545e+06
3.49518e+06
3.4951e+06
3.49508e+06
3.49487e+06
3.49501e+06
3.49513e+06
3.49501e+06
3.49525e+06
3.49543e+06
3.49554e+06
3.50633e+06
3.50074e+06
3.4974e+06
3.49611e+06
3.49518e+06
3.49495e+06
3.49484e+06
3.49484e+06
3.49468e+06
3.49482e+06
3.49492e+06
3.49479e+06
3.495e+06
3.4952e+06
3.49532e+06
3.50184e+06
3.49942e+06
3.49671e+06
3.49547e+06
3.49463e+06
3.49441e+06
3.49433e+06
3.49437e+06
3.49429e+06
3.49447e+06
3.49461e+06
3.49451e+06
3.49473e+06
3.49495e+06
3.49509e+06
3.49953e+06
3.49696e+06
3.49554e+06
3.49481e+06
3.49412e+06
3.49394e+06
3.49385e+06
3.49392e+06
3.49388e+06
3.4941e+06
3.49429e+06
3.49422e+06
3.49446e+06
3.4947e+06
3.49485e+06
3.48688e+06
3.49217e+06
3.4939e+06
3.49383e+06
3.49353e+06
3.49351e+06
3.49344e+06
3.49353e+06
3.49351e+06
3.49376e+06
3.494e+06
3.49395e+06
3.49423e+06
3.49447e+06
3.49464e+06
3.48379e+06
3.48921e+06
3.49231e+06
3.49282e+06
3.49275e+06
3.49286e+06
3.49297e+06
3.49321e+06
3.49329e+06
3.49355e+06
3.49376e+06
3.49369e+06
3.49394e+06
3.49418e+06
3.49436e+06
3.48447e+06
3.48913e+06
3.49184e+06
3.49224e+06
3.49204e+06
3.49229e+06
3.49253e+06
3.49216e+06
3.49239e+06
3.49277e+06
3.49298e+06
3.49329e+06
3.49358e+06
3.49385e+06
3.49409e+06
3.48073e+06
3.48564e+06
3.48982e+06
3.49095e+06
3.49106e+06
3.49144e+06
3.49188e+06
3.4917e+06
3.49203e+06
3.49242e+06
3.49261e+06
3.49292e+06
3.49319e+06
3.49348e+06
3.49374e+06
3.47144e+06
3.48162e+06
3.48844e+06
3.49014e+06
3.49054e+06
3.49095e+06
3.49136e+06
3.49126e+06
3.49162e+06
3.49203e+06
3.49225e+06
3.49257e+06
3.49288e+06
3.49317e+06
3.49345e+06
3.47279e+06
3.48282e+06
3.48834e+06
3.48961e+06
3.49007e+06
3.49058e+06
3.49088e+06
3.4906e+06
3.49086e+06
3.49133e+06
3.49163e+06
3.49201e+06
3.49238e+06
3.49272e+06
3.49302e+06
3.48896e+06
3.48748e+06
3.48737e+06
3.489e+06
3.48954e+06
3.48911e+06
3.48954e+06
3.49026e+06
3.4904e+06
3.49092e+06
3.49131e+06
3.49163e+06
3.49202e+06
3.49237e+06
3.49266e+06
3.49042e+06
3.48845e+06
3.48733e+06
3.48862e+06
3.48904e+06
3.4886e+06
3.48881e+06
3.4894e+06
3.48943e+06
3.49001e+06
3.49054e+06
3.49089e+06
3.49138e+06
3.49179e+06
3.49206e+06
3.47327e+06
3.48067e+06
3.48506e+06
3.48611e+06
3.48705e+06
3.48818e+06
3.48831e+06
3.48891e+06
3.48906e+06
3.48963e+06
3.49021e+06
3.49034e+06
3.49093e+06
3.49143e+06
3.49172e+06
3.46704e+06
3.46881e+06
3.47783e+06
3.48271e+06
3.48511e+06
3.48673e+06
3.48712e+06
3.48808e+06
3.48849e+06
3.48908e+06
3.49005e+06
3.49013e+06
3.49075e+06
3.49111e+06
3.49106e+06
3.35175e+06
3.43706e+06
3.46958e+06
3.48092e+06
3.48471e+06
3.48641e+06
3.48721e+06
3.48721e+06
3.48764e+06
3.48799e+06
3.48906e+06
3.48852e+06
3.48942e+06
3.49016e+06
3.49016e+06
3.34293e+06
3.43217e+06
3.46813e+06
3.48048e+06
3.4841e+06
3.4855e+06
3.48633e+06
3.48635e+06
3.48687e+06
3.48713e+06
3.4885e+06
3.4879e+06
3.48888e+06
3.48954e+06
3.48926e+06
3.43586e+06
3.46437e+06
3.48393e+06
3.48762e+06
3.48794e+06
3.48848e+06
3.48822e+06
3.48733e+06
3.48747e+06
3.48729e+06
3.48847e+06
3.48747e+06
3.48838e+06
3.48899e+06
3.48864e+06
3.51712e+06
3.56472e+06
3.53154e+06
3.50664e+06
3.49463e+06
3.49041e+06
3.48797e+06
3.48578e+06
3.48552e+06
3.48507e+06
3.48628e+06
3.48531e+06
3.48641e+06
3.48722e+06
3.48706e+06
4.12706e+06
3.74838e+06
3.5599e+06
3.52501e+06
3.49956e+06
3.493e+06
3.49021e+06
3.4869e+06
3.48625e+06
3.48522e+06
3.48611e+06
3.48489e+06
3.4858e+06
3.48644e+06
3.48621e+06
4.20068e+06
3.83687e+06
3.605e+06
3.54517e+06
3.50656e+06
3.4925e+06
3.48683e+06
3.48229e+06
3.48177e+06
3.48048e+06
3.4819e+06
3.48101e+06
3.48253e+06
3.48362e+06
3.48394e+06
4.15369e+06
3.81121e+06
3.61408e+06
3.53669e+06
3.49641e+06
3.49448e+06
3.48575e+06
3.48086e+06
3.4817e+06
3.47958e+06
3.48126e+06
3.48018e+06
3.48177e+06
3.48269e+06
3.48302e+06
4.10967e+06
3.78106e+06
3.59702e+06
3.52653e+06
3.48812e+06
3.48659e+06
3.4788e+06
3.47379e+06
3.47615e+06
3.47339e+06
3.47587e+06
3.47473e+06
3.47701e+06
3.47846e+06
3.47976e+06
4.13097e+06
3.78338e+06
3.59287e+06
3.50972e+06
3.49039e+06
3.47475e+06
3.47706e+06
3.46803e+06
3.47265e+06
3.46922e+06
3.47288e+06
3.47208e+06
3.47468e+06
3.47629e+06
3.47811e+06
3.97126e+06
3.63467e+06
3.49197e+06
3.45628e+06
3.44689e+06
3.44765e+06
3.45337e+06
3.44867e+06
3.45758e+06
3.45485e+06
3.46276e+06
3.46242e+06
3.4678e+06
3.2831e+06
3.38781e+06
3.49456e+06
3.44744e+06
3.48689e+06
3.45082e+06
3.47461e+06
3.44805e+06
3.46418e+06
3.45333e+06
3.46405e+06
3.46041e+06
3.46667e+06
3.00843e+06
3.25432e+06
3.36472e+06
3.3981e+06
3.41926e+06
3.42541e+06
3.4371e+06
3.41648e+06
3.43901e+06
3.42696e+06
3.44696e+06
3.44317e+06
3.45615e+06
2.91219e+06
3.24094e+06
3.54e+06
3.51387e+06
3.57927e+06
3.47753e+06
3.47761e+06
3.4156e+06
3.43648e+06
3.42506e+06
3.44602e+06
3.43979e+06
3.45497e+06
2.37191e+06
2.78574e+06
2.87601e+06
2.89164e+06
3.14625e+06
3.23864e+06
3.34352e+06
3.297e+06
3.39964e+06
3.36389e+06
3.42004e+06
3.40623e+06
3.43796e+06
4.12494e+06
4.00084e+06
4.00094e+06
4.00024e+06
3.99779e+06
3.94854e+06
3.33475e+06
3.38886e+06
3.36367e+06
3.39605e+06
3.4135e+06
3.41032e+06
3.43946e+06
3.9169e+06
4.00112e+06
4.00107e+06
4.00093e+06
4.00062e+06
3.99985e+06
3.99481e+06
2.73411e+06
3.35611e+06
3.20742e+06
3.39539e+06
3.34122e+06
3.41614e+06
4.00119e+06
4.00116e+06
4.00112e+06
4.00104e+06
4.00088e+06
4.00054e+06
3.99991e+06
3.99637e+06
2.88257e+06
3.37307e+06
3.41214e+06
3.37141e+06
3.42633e+06
4.00119e+06
4.00116e+06
4.00111e+06
4.00104e+06
4.00093e+06
4.00075e+06
4.00046e+06
3.99975e+06
3.99689e+06
2.65655e+06
3.27168e+06
3.1694e+06
3.38817e+06
4.00118e+06
4.00114e+06
4.00108e+06
4.00102e+06
4.00092e+06
4.00081e+06
4.00067e+06
4.00046e+06
4.00012e+06
3.99939e+06
3.99705e+06
3.05622e+06
3.50143e+06
4.00118e+06
4.00113e+06
4.00108e+06
4.00103e+06
4.0009e+06
4.0008e+06
4.00072e+06
4.00062e+06
4.0005e+06
4.00019e+06
3.99967e+06
3.00519e+06
3.48667e+06
4.00117e+06
4.00113e+06
4.00112e+06
4.00111e+06
4.00095e+06
4.00086e+06
4.00082e+06
4.00082e+06
4.00087e+06
4.00376e+06
4.13128e+06
4.0012e+06
4.00119e+06
4.00118e+06
4.00116e+06
4.00105e+06
4.00101e+06
4.00105e+06
4.0033e+06
4.0991e+06
4.02542e+06
4.0012e+06
4.00126e+06
4.00155e+06
4.06768e+06
4.07297e+06
4.08342e+06
4.09019e+06
4.10039e+06
4.10241e+06
4.00121e+06
4.0012e+06
4.00133e+06
4.01491e+06
4.1416e+06
4.10979e+06
4.13642e+06
4.14033e+06
4.14449e+06
4.15753e+06
4.32474e+06
4.0012e+06
4.05523e+06
4.17677e+06
4.12727e+06
4.22914e+06
4.18945e+06
4.2281e+06
4.21824e+06
4.22517e+06
4.003e+06
4.00124e+06
4.47844e+06
4.00115e+06
4.37813e+06
4.22395e+06
4.2864e+06
4.27809e+06
4.27556e+06
4.28028e+06
4.00125e+06
4.00213e+06
4.25645e+06
4.02039e+06
4.34516e+06
4.29845e+06
4.36582e+06
4.3498e+06
4.35538e+06
4.35107e+06
4.00121e+06
4.00243e+06
4.52296e+06
4.31347e+06
4.48564e+06
4.41543e+06
4.44382e+06
4.41677e+06
4.40939e+06
4.39945e+06
4.0012e+06
4.0012e+06
4.49544e+06
4.44763e+06
4.61887e+06
4.57606e+06
4.58395e+06
4.51583e+06
4.46846e+06
4.41351e+06
4.26588e+06
4.31047e+06
4.5026e+06
4.63941e+06
4.70708e+06
4.70365e+06
4.65865e+06
4.58421e+06
4.50956e+06
4.38275e+06
4.48911e+06
4.54e+06
4.55454e+06
4.55777e+06
4.55642e+06
4.55391e+06
4.55145e+06
4.54872e+06
4.54745e+06
4.52875e+06
4.55926e+06
4.55966e+06
4.55431e+06
4.54969e+06
4.54684e+06
4.54546e+06
4.54507e+06
4.54525e+06
4.54563e+06
4.54613e+06
4.55361e+06
4.55519e+06
4.55237e+06
4.55092e+06
4.54957e+06
4.54827e+06
4.54708e+06
4.54565e+06
4.54507e+06
4.54356e+06
4.55306e+06
4.5516e+06
4.54881e+06
4.54684e+06
4.54559e+06
4.54494e+06
4.54455e+06
4.54435e+06
4.54424e+06
4.54432e+06
4.5492e+06
4.55e+06
4.54768e+06
4.54622e+06
4.54532e+06
4.54486e+06
4.54466e+06
4.54424e+06
4.54398e+06
4.54372e+06
4.54656e+06
4.54628e+06
4.54455e+06
4.54347e+06
4.54285e+06
4.54271e+06
4.54282e+06
4.54276e+06
4.54263e+06
4.54259e+06
4.54343e+06
4.54395e+06
4.54294e+06
4.54211e+06
4.54151e+06
4.5414e+06
4.54155e+06
4.54148e+06
4.54135e+06
4.54126e+06
4.54101e+06
4.54031e+06
4.5399e+06
4.53957e+06
4.53928e+06
4.5393e+06
4.53949e+06
4.53948e+06
4.53938e+06
4.53934e+06
4.53682e+06
4.53801e+06
4.5375e+06
4.53757e+06
4.53793e+06
4.53792e+06
4.53773e+06
4.53759e+06
4.53748e+06
4.53744e+06
4.53433e+06
4.53395e+06
4.53409e+06
4.53471e+06
4.53537e+06
4.53548e+06
4.53531e+06
4.53521e+06
4.53513e+06
4.5351e+06
4.52968e+06
4.53015e+06
4.5312e+06
4.53206e+06
4.53273e+06
4.53291e+06
4.53286e+06
4.53282e+06
4.53279e+06
4.53277e+06
4.52759e+06
4.52634e+06
4.52764e+06
4.52883e+06
4.52974e+06
4.5301e+06
4.53018e+06
4.53023e+06
4.53024e+06
4.53025e+06
4.52521e+06
4.52571e+06
4.52513e+06
4.52591e+06
4.52699e+06
4.52749e+06
4.52766e+06
4.52776e+06
4.52781e+06
4.52783e+06
4.52408e+06
4.52325e+06
4.52257e+06
4.52329e+06
4.52432e+06
4.52485e+06
4.52508e+06
4.52524e+06
4.52532e+06
4.52536e+06
4.52081e+06
4.52123e+06
4.5215e+06
4.52176e+06
4.52205e+06
4.52238e+06
4.52267e+06
4.52286e+06
4.52298e+06
4.52303e+06
4.51926e+06
4.51848e+06
4.51907e+06
4.51951e+06
4.51981e+06
4.52014e+06
4.52043e+06
4.52064e+06