/*--------------------------------*- C++ -*----------------------------------*\
| =========                 |                                                 |
| \\      /  F ield         | OpenFOAM: The Open Source CFD Toolbox           |
|  \\    /   O peration     | Version:  v2006                                 |
|   \\  /    A nd           | Website:  www.openfoam.com                      |
|    \\/     M anipulation  |                                                 |
\*---------------------------------------------------------------------------*/
FoamFile
{
    version     2.0;
    format      ascii;
    class       surfaceScalarField;
    location    "0.03";
    object      phi;
}
// * * * * * * * * * * * * * * * * * * * * * * * * * * * * * * * * * * * * * //

dimensions      [0 3 -1 0 0 0 0];
oriented        oriented;


internalField   nonuniform List<scalar> 
5866
(
-2.41856e-07
-1.06132e-08
2.52469e-07
3.88563e-08
-3.91711e-08
7.08773e-09
-6.77295e-09
3.03273e-08
1.46793e-07
-1.7712e-07
1.22653e-08
-1.19215e-08
-3.43755e-10
2.38244e-09
-7.45272e-09
5.07017e-09
1.7696e-07
-1.82678e-07
5.71873e-09
-1.46016e-07
1.18583e-07
2.74326e-08
2.12334e-07
-1.92134e-07
-2.01998e-08
-7.53644e-08
7.5915e-08
4.15766e-09
-4.70827e-09
5.58832e-10
-4.02351e-10
-1.56516e-10
2.47316e-08
-5.10411e-08
-1.83483e-08
4.46576e-08
1.4961e-07
-1.09254e-08
-1.257e-07
-1.29816e-08
-4.02295e-07
1.91776e-09
4.00378e-07
-3.96002e-07
-6.29294e-09
-2.43406e-07
2.54346e-07
-1.09408e-08
4.78399e-07
8.3312e-09
3.8884e-07
8.3651e-09
-5.00996e-08
-3.47105e-07
1.30256e-08
-1.58826e-08
2.85689e-09
1.47792e-07
-3.27433e-08
-3.41824e-08
2.01159e-09
-1.45782e-09
-1.66703e-08
1.61165e-08
2.29521e-09
-2.17683e-10
-2.07756e-09
3.48876e-09
1.46774e-08
-1.81663e-08
-4.7754e-08
-7.19607e-10
4.84736e-08
5.41333e-08
-5.63428e-08
2.20953e-09
5.78828e-08
-1.67832e-09
2.34445e-09
-5.8549e-08
5.3555e-08
7.26257e-09
-6.68436e-09
-2.22045e-08
2.28766e-08
-6.72194e-10
-1.80197e-08
1.62798e-08
1.73978e-09
2.47368e-08
1.41389e-09
-2.60781e-08
-7.26188e-11
-1.08009e-08
-9.25689e-12
1.08102e-08
9.43479e-09
-9.43479e-09
1.07302e-09
9.32265e-09
-1.03957e-08
2.23225e-08
1.52618e-09
-1.17247e-09
-2.26762e-08
1.68142e-08
-1.60697e-08
-7.44438e-10
-6.11733e-08
-6.68633e-09
6.78596e-08
5.50206e-08
-6.07748e-08
5.75419e-09
-1.7293e-08
-6.50403e-10
1.79434e-08
4.40698e-08
-4.3769e-08
1.08625e-10
-4.0941e-10
1.83605e-08
5.59641e-08
-1.7825e-08
-5.64996e-08
-3.52491e-07
-1.39085e-07
4.91576e-07
9.47839e-10
-7.90371e-10
-5.81886e-08
5.80311e-08
6.25046e-08
-9.19564e-08
3.0107e-08
2.92971e-07
-3.23078e-07
-2.87791e-09
2.70252e-09
1.75342e-10
-3.57624e-08
3.94213e-08
-3.65885e-09
3.55226e-07
-3.71439e-07
4.63197e-08
-4.22556e-08
2.63799e-09
3.96176e-08
4.35053e-08
1.51239e-09
-7.47195e-08
4.29945e-07
-1.3424e-07
2.44847e-08
8.17661e-10
-2.5359e-08
5.66322e-11
4.45441e-09
4.54327e-08
-4.98871e-08
-1.25751e-08
1.25751e-08
6.44939e-08
-9.73766e-09
-6.34827e-08
8.72647e-09
3.72032e-08
-6.66326e-10
2.28492e-10
-3.67653e-08
-2.5239e-09
-2.03774e-08
1.98764e-08
3.02475e-09
6.32835e-09
-5.82797e-08
-3.85551e-09
5.58068e-08
4.95814e-10
-1.61254e-07
1.60758e-07
2.87782e-08
-3.03874e-08
1.60913e-09
2.94913e-08
-7.13107e-10
4.07368e-07
-4.07368e-07
-9.7647e-08
8.58178e-08
1.18291e-08
-1.83104e-08
8.07457e-09
1.02358e-08
1.83456e-08
-1.83456e-08
2.4654e-07
-3.7582e-07
1.2928e-07
6.71907e-09
1.15743e-07
-1.22462e-07
-3.15494e-09
5.671e-08
4.8001e-08
-2.69121e-08
-2.1089e-08
-2.63055e-10
6.95181e-08
-6.9255e-08
-4.64032e-10
6.16453e-11
4.02351e-10
2.10236e-07
5.51714e-08
-2.65408e-07
1.79977e-08
4.59421e-08
-6.39398e-08
-2.93112e-08
-1.16638e-08
1.16539e-08
2.9321e-08
7.48793e-08
-1.03854e-08
-1.37057e-07
8.66807e-09
1.28389e-07
-1.9709e-07
1.73959e-07
2.31311e-08
-9.94552e-08
1.33916e-07
-2.77422e-08
-4.03501e-08
4.15634e-08
-1.08896e-08
9.67627e-09
-3.74004e-10
-1.33273e-10
5.07238e-10
-1.07396e-07
7.9406e-09
-1.56086e-10
4.85622e-08
-5.91057e-08
1.06995e-08
-2.22362e-08
-1.92748e-07
-2.40127e-08
2.38997e-07
-3.73618e-07
1.12157e-07
2.61459e-07
-4.70512e-10
-2.49091e-08
2.46573e-08
7.22261e-10
-2.84373e-08
-8.26612e-09
3.67034e-08
-3.89818e-08
3.36147e-10
3.87741e-08
-1.28438e-10
-4.70134e-08
4.27368e-09
4.27397e-08
1.15198e-09
-8.54545e-10
-2.2502e-08
-1.47174e-08
-6.9966e-10
1.58424e-08
-4.2538e-10
5.83412e-09
-5.83414e-09
1.55453e-08
3.08059e-10
-1.63239e-08
-3.4704e-08
3.45653e-10
3.43583e-08
-4.51107e-09
5.21697e-09
-2.60803e-10
-4.45176e-10
5.65222e-08
-1.61026e-09
-5.49119e-08
3.3856e-08
-3.40633e-08
3.76236e-08
-3.74163e-08
-4.77775e-08
5.65457e-08
-2.67144e-08
2.38874e-08
2.82698e-09
-5.46952e-09
5.46951e-09
5.19662e-10
-6.53265e-09
-1.64883e-09
7.66179e-09
7.18555e-09
-4.24751e-08
-7.09098e-09
4.23805e-08
1.90477e-09
-1.00661e-09
2.2952e-09
5.32635e-09
-3.7953e-09
2.81487e-08
-2.96799e-08
-5.73428e-08
5.56125e-08
1.73033e-09
8.80526e-10
-7.79276e-11
1.80429e-09
-2.60696e-09
2.5599e-09
-4.42224e-08
4.16624e-08
-1.91649e-09
-3.61434e-08
3.80599e-08
-4.3898e-08
3.00668e-09
4.08913e-08
3.66066e-07
-3.58946e-07
-7.12909e-09
3.98933e-08
-4.27869e-08
2.89355e-09
-1.1108e-09
1.50188e-09
6.38463e-08
-6.42374e-08
-8.01046e-09
-7.25628e-08
7.29113e-08
7.66198e-09
-6.80649e-09
5.55549e-08
-4.87484e-08
8.41985e-08
-8.94875e-08
5.28891e-09
-5.02851e-09
-5.13915e-08
5.642e-08
4.49072e-08
1.66305e-08
-6.15377e-08
1.42495e-07
-4.69011e-07
3.26516e-07
-9.7232e-10
-3.76455e-08
1.3776e-10
3.84801e-08
-3.48518e-08
3.76925e-08
-4.51312e-09
1.67247e-09
-9.7573e-09
9.7573e-09
-4.23161e-07
2.64114e-07
1.59046e-07
-5.82081e-08
8.16979e-09
5.71831e-08
-7.14492e-09
2.84906e-08
2.19546e-10
-8.28329e-10
-2.78818e-08
1.67763e-08
-1.5064e-08
-1.71236e-09
2.08488e-08
-3.6073e-07
3.39881e-07
1.86311e-07
5.16652e-09
-1.91478e-07
3.70344e-09
2.03457e-07
4.122e-07
-4.07033e-07
2.3044e-08
5.50616e-08
-7.81056e-08
4.15903e-07
-4.47561e-08
4.46274e-08
1.04921e-09
-9.20518e-10
-5.01753e-11
-5.09343e-09
5.14357e-09
4.0842e-07
4.21318e-09
-4.12633e-07
-1.06305e-08
1.06305e-08
-7.86075e-09
1.55501e-08
-7.68934e-09
4.87261e-07
6.40993e-08
-1.23212e-07
-4.28149e-07
-7.93448e-08
5.66605e-07
-8.16515e-09
1.37647e-09
6.78863e-09
3.16131e-09
-1.89303e-08
1.8581e-08
-2.81203e-09
-9.94786e-09
-3.18969e-09
1.31375e-08
9.25579e-10
-1.43409e-08
1.33651e-08
8.24239e-11
-8.24761e-09
4.24264e-08
-4.59849e-08
4.30585e-08
-3.95e-08
-1.38952e-09
3.31848e-08
-3.17953e-08
8.10328e-09
-9.03957e-09
1.01865e-09
3.00486e-08
-4.73696e-09
6.08778e-09
-3.13995e-08
8.45035e-09
-1.28795e-08
4.42904e-09
1.71459e-08
-1.83417e-08
1.19578e-09
7.59504e-10
6.8143e-08
-6.89025e-08
3.49041e-10
4.11814e-08
-4.26413e-08
-9.89959e-09
1.4986e-08
-5.08643e-09
-5.62612e-08
3.76136e-09
5.24999e-08
1.27573e-08
-2.55185e-09
-1.02055e-08
1.60876e-08
-1.11599e-08
-4.92773e-09
-8.41673e-09
4.91249e-08
9.27231e-09
-4.99805e-08
1.42406e-08
3.6139e-08
-5.03796e-08
6.32057e-08
-5.9261e-08
-3.94475e-09
-2.15961e-08
3.97823e-08
1.49828e-08
-3.3169e-08
-1.13544e-10
2.6944e-10
-1.55935e-10
1.93464e-08
-7.48378e-09
-1.18627e-08
9.66002e-09
-6.67467e-08
5.70867e-08
6.46308e-08
-6.29297e-08
-1.70115e-09
-2.18404e-07
-8.75864e-09
-1.4693e-08
4.58074e-09
4.5354e-08
-5.08389e-09
-4.48509e-08
-2.08187e-09
5.99647e-08
-4.78809e-10
-3.87694e-08
-1.72109e-10
3.94203e-08
-5.11079e-08
4.93269e-08
-3.00808e-10
-6.822e-09
-5.84624e-10
7.4066e-09
-4.54621e-09
4.28691e-08
-3.83229e-08
-1.6319e-08
-3.42732e-08
3.64355e-08
1.41567e-08
5.85402e-09
5.41107e-08
7.54058e-08
-9.2171e-08
1.67652e-08
-8.04155e-08
9.6196e-08
-1.57806e-08
-4.71537e-08
-6.57665e-09
5.43417e-09
4.82962e-08
-1.17454e-08
1.193e-08
3.82922e-08
-3.84769e-08
2.25047e-07
-1.16613e-07
-1.08434e-07
-8.17114e-08
3.45166e-09
-2.15585e-09
-2.20336e-07
-3.3586e-08
2.53922e-07
-5.1983e-08
5.15538e-08
-5.74015e-09
6.16935e-09
-7.25323e-09
6.90062e-09
4.52599e-08
-8.27197e-08
1.00823e-09
7.04219e-09
4.87358e-08
-4.8083e-08
-7.69494e-09
4.33022e-08
5.46617e-09
-4.28962e-08
-5.87218e-09
-6.10967e-08
1.35418e-08
4.75549e-08
-1.40049e-07
2.61883e-08
1.13861e-07
1.56816e-08
-1.64748e-08
7.93201e-10
2.99036e-10
-1.75921e-08
1.19806e-08
9.22703e-09
2.89289e-09
-6.02427e-09
3.13132e-09
-5.01828e-08
3.8463e-08
1.17198e-08
-9.26572e-09
1.99034e-08
-1.87305e-08
8.09276e-09
-4.57408e-10
4.5738e-10
-6.32751e-10
6.32719e-10
-4.166e-10
1.46961e-08
-1.42795e-08
-1.13222e-08
4.33539e-09
6.98678e-09
-2.52042e-09
4.051e-07
-4.02579e-07
7.02602e-08
-7.02447e-08
6.04727e-08
-6.04882e-08
-7.23392e-08
-5.6547e-09
7.79939e-08
-1.26006e-08
-3.32227e-08
1.1837e-08
3.39863e-08
-2.67881e-07
-1.52121e-07
3.17025e-07
1.02978e-07
-2.22203e-07
-1.0836e-07
3.30563e-07
-5.93888e-08
7.30979e-08
-1.37091e-08
-2.3083e-07
1.57645e-08
2.4143e-07
-2.63638e-08
-1.64578e-07
1.15093e-07
2.13132e-07
-1.63647e-07
-2.8501e-07
2.41475e-07
4.35355e-08
1.36115e-07
-2.7729e-08
-1.08386e-07
7.02416e-08
-1.71013e-07
1.00771e-07
1.74173e-07
-2.17971e-07
4.37983e-08
4.90328e-09
-5.39816e-09
-4.01465e-09
4.50943e-09
-1.82953e-09
-3.92342e-07
3.94171e-07
3.80265e-07
-3.64252e-07
-6.34278e-08
4.74143e-08
-7.31469e-09
-7.72282e-10
9.03051e-10
7.18384e-09
-1.6786e-09
-5.63613e-09
-3.86058e-09
3.86056e-09
6.31942e-09
-1.41618e-09
5.84547e-09
-5.59681e-08
5.01226e-08
4.80402e-08
-4.76009e-08
-2.50928e-09
2.06989e-09
-4.31989e-08
-6.95847e-09
5.01573e-08
-1.42996e-09
-5.94857e-08
-3.63117e-09
-3.53276e-08
3.89587e-08
5.13447e-08
-1.19762e-08
1.15161e-08
-5.08846e-08
-3.96845e-08
-2.0331e-08
6.00156e-08
-4.78426e-08
-2.75217e-08
4.59892e-08
-5.57269e-08
4.51903e-08
2.9689e-08
-6.02487e-08
5.33531e-08
6.89553e-09
1.20508e-09
1.08999e-08
-1.2105e-08
1.39844e-08
-4.45081e-09
-9.53363e-09
8.38187e-09
-8.38188e-09
-2.5053e-09
-1.0302e-08
-1.16419e-08
1.06215e-08
-6.0631e-08
7.50438e-08
-1.44128e-08
5.53601e-09
-3.63406e-09
-5.17638e-09
3.27443e-09
-2.30759e-08
-8.11311e-09
9.87979e-09
2.13092e-08
-1.608e-07
1.83401e-07
-2.26012e-08
-5.21134e-08
9.91858e-08
-4.70724e-08
4.68457e-09
-6.79785e-08
6.3294e-08
-9.13655e-10
2.46448e-09
-5.87705e-08
5.72197e-08
6.62433e-08
-6.34403e-08
-2.80306e-09
1.05239e-08
-5.92922e-09
9.4129e-10
-7.04457e-08
2.85516e-11
6.84019e-08
2.01532e-09
5.89443e-08
-1.04449e-08
-4.84994e-08
6.39687e-08
-6.47306e-08
-4.26659e-09
4.52379e-08
7.0059e-08
-1.15297e-07
-1.05827e-08
-4.449e-08
5.50727e-08
-1.32943e-08
1.12684e-08
2.0258e-09
-6.21417e-08
5.59511e-08
6.19062e-09
1.59048e-08
-8.03971e-09
-7.86519e-09
-6.49151e-08
1.34938e-08
6.71787e-08
-1.57574e-08
4.75484e-09
1.50463e-08
-3.89634e-09
-1.1418e-08
1.61728e-08
5.56322e-09
-5.76974e-08
-4.1271e-09
6.40932e-08
-5.853e-08
-2.17964e-09
5.14303e-08
-4.92506e-08
6.46994e-08
-6.86163e-11
-2.52746e-09
3.85419e-09
6.90995e-09
-6.90996e-09
4.71363e-12
-5.47425e-09
-1.89962e-07
-4.45654e-08
6.93937e-08
1.65133e-07
-5.32434e-09
5.32433e-09
-3.22474e-09
3.98053e-08
3.38668e-10
-3.69192e-08
1.47911e-09
-1.47913e-09
-7.64844e-08
9.8972e-08
-3.46119e-07
3.23631e-07
-1.52774e-07
3.00567e-07
-1.10354e-07
7.21635e-08
3.81907e-08
8.14194e-08
-2.76893e-07
1.95473e-07
1.053e-07
6.04825e-08
-1.07584e-07
-5.8198e-08
-6.61756e-08
-3.55952e-07
4.22128e-07
7.07331e-08
-2.38739e-09
3.47423e-09
-7.182e-08
-4.87179e-08
3.34482e-08
2.8321e-08
-1.30512e-08
5.68724e-08
-3.00278e-07
-7.53111e-09
1.18714e-08
2.37289e-08
-2.80693e-08
1.81128e-08
7.98096e-09
-2.60938e-08
2.45406e-09
4.04244e-08
-4.28785e-08
3.98679e-08
3.5349e-09
-4.34028e-08
-7.29135e-08
6.43041e-09
7.11677e-08
2.69213e-08
-2.2461e-07
6.76897e-09
-4.15109e-08
3.47419e-08
1.76773e-07
1.92261e-08
-1.95999e-07
1.89595e-07
2.27383e-08
-1.06708e-08
1.13521e-08
-3.50688e-08
3.43875e-08
8.30876e-08
-1.02629e-07
1.95414e-08
2.01328e-09
-7.95016e-09
5.93681e-09
-1.56107e-08
6.47984e-08
-4.91877e-08
6.75023e-08
1.73514e-07
-2.41016e-07
-6.06106e-09
4.15501e-07
-4.20535e-07
-2.13761e-08
2.64104e-08
-4.12923e-07
-2.26157e-08
4.00615e-07
3.49247e-08
-4.89225e-08
4.78046e-08
-1.30586e-08
1.41765e-08
-1.00437e-08
-2.27408e-08
3.27845e-08
1.04601e-08
-2.30608e-08
-4.43769e-07
3.08458e-08
3.6274e-08
-5.08972e-08
1.46235e-08
-2.15717e-10
6.6888e-09
-6.47316e-09
-2.82681e-08
2.84553e-11
1.0011e-08
-1.00395e-08
5.34302e-10
-2.51398e-08
2.57461e-10
2.4348e-08
-3.94046e-07
4.98549e-10
3.93547e-07
-3.77576e-10
-8.6493e-11
-4.28751e-09
4.28749e-09
-5.27698e-10
5.75812e-08
-5.73166e-08
-6.60644e-08
-2.11678e-10
6.6276e-08
-7.28767e-08
7.64193e-09
6.52348e-08
-1.75078e-08
3.32234e-08
-1.57156e-08
-4.38295e-08
4.29158e-08
7.29163e-09
-4.85859e-08
4.12943e-08
-3.33138e-08
-3.73537e-09
3.70492e-08
4.27672e-08
-3.81864e-08
-3.73069e-08
4.43491e-08
-6.85971e-09
5.49477e-09
-9.91921e-10
1.91047e-08
2.27144e-07
-7.84681e-08
-1.48676e-07
-1.40069e-07
2.08106e-07
1.59106e-07
1.75539e-07
-1.87576e-08
-1.56781e-07
-3.50342e-08
5.19926e-08
-1.69585e-08
3.21074e-07
-3.8725e-07
-3.08681e-08
5.49958e-10
3.03182e-08
3.69904e-08
-4.19814e-09
6.81668e-08
-4.49043e-08
4.2767e-08
7.9828e-09
3.99126e-07
-3.94898e-07
-4.2278e-09
-8.07954e-09
1.09744e-08
3.30036e-08
-3.58986e-08
7.65167e-09
1.44321e-08
-2.20838e-08
-8.53855e-09
-9.77184e-09
-1.1183e-08
-1.14655e-08
2.26485e-08
-1.59293e-08
-2.8733e-08
4.46622e-08
-8.45244e-09
1.91547e-08
-2.0602e-08
1.82615e-08
2.28498e-08
-4.11114e-08
-2.05162e-09
-1.09084e-08
1.29599e-08
-2.76528e-09
4.90029e-08
-4.62376e-08
-3.47659e-09
7.20648e-08
-7.11818e-08
2.59355e-09
-1.27355e-08
4.27841e-08
5.17363e-09
-4.29756e-08
3.7802e-08
-4.63806e-08
3.96868e-08
4.54385e-08
-3.87447e-08
6.99036e-08
-7.67633e-08
3.92304e-08
-3.28346e-08
-6.39581e-09
8.41172e-08
-4.27566e-08
-4.13606e-08
-6.86024e-08
7.88133e-08
-6.40758e-08
7.17178e-08
-2.64725e-09
-9.98425e-08
1.24574e-07
-2.73455e-08
-1.57222e-08
4.30677e-08
-3.62222e-08
4.40178e-08
-7.79566e-09
-1.61692e-08
4.95048e-08
-3.33355e-08
6.92905e-08
-3.59497e-08
-4.95101e-08
1.39872e-07
-6.44679e-08
-7.54038e-08
-7.805e-08
1.4583e-07
7.20927e-08
-5.26994e-10
-2.64571e-08
2.69844e-08
-4.10561e-07
4.11057e-07
-2.03436e-08
2.0059e-07
-1.80247e-07
9.43476e-09
-4.62066e-08
-7.05762e-09
4.60154e-08
3.15746e-10
1.81721e-10
-4.65128e-08
5.58848e-09
-5.82873e-09
4.43147e-08
-4.40745e-08
1.25407e-07
-1.84462e-07
5.90555e-08
4.41006e-08
-4.61918e-08
3.96176e-08
-3.75264e-08
5.32325e-09
3.87773e-08
6.02633e-09
-5.2225e-08
5.15219e-08
-2.00037e-09
4.80157e-08
-2.13002e-08
3.15338e-09
1.81468e-08
-1.93302e-08
-9.25453e-09
1.96812e-08
8.90341e-09
-3.57972e-08
4.77273e-08
3.84314e-08
-5.03615e-08
2.39271e-08
-1.86008e-08
-2.56511e-08
-6.62515e-09
3.22763e-08
-4.6699e-09
2.53846e-08
-2.07147e-08
-5.32191e-08
2.7568e-08
-3.19769e-08
-2.62312e-08
-2.05868e-07
1.6049e-08
-3.05171e-08
2.22115e-08
-1.73313e-08
-4.88026e-09
-1.86691e-09
8.02141e-08
-7.83472e-08
2.91934e-08
-6.47642e-09
-5.0543e-10
-2.78351e-09
-2.18255e-08
-4.14468e-09
2.16838e-09
2.93007e-08
-2.97851e-09
-3.3979e-10
5.84433e-08
-5.85824e-08
-1.44742e-08
-8.05188e-09
7.01808e-09
1.55079e-08
7.5077e-09
1.26813e-08
-2.01891e-08
1.09605e-08
-4.34514e-09
-1.26219e-08
1.6967e-08
-4.29534e-09
4.94014e-08
-4.51061e-08
-2.09973e-07
3.25066e-07
-3.82232e-07
1.14351e-07
-5.47773e-08
5.44376e-08
-2.51477e-08
2.66647e-08
2.80169e-08
-2.95339e-08
-6.16719e-08
1.95603e-09
5.97159e-08
-8.44883e-08
1.1087e-07
-1.14431e-07
8.80488e-08
-3.87667e-08
4.62219e-09
3.41445e-08
-4.46519e-08
5.33833e-08
-5.0486e-08
4.17545e-08
-3.36483e-08
-5.75392e-08
9.11875e-08
5.92897e-09
-8.58134e-09
-5.68673e-08
6.27963e-08
3.09419e-08
-5.81202e-08
7.66562e-09
-7.64133e-08
6.87476e-08
3.07631e-09
-3.5719e-08
3.26426e-08
-4.41984e-08
3.59663e-08
8.23203e-09
-1.67595e-09
2.97009e-09
-5.72622e-08
-1.53101e-07
2.69718e-07
-1.16616e-07
6.68525e-09
-6.42405e-08
-8.63536e-09
6.61906e-08
-1.10116e-08
1.10116e-08
1.4475e-08
1.40036e-09
-1.58754e-08
-7.13181e-09
-1.51739e-08
2.23056e-08
4.14511e-08
-3.27564e-08
3.93064e-08
2.02698e-08
-2.13033e-08
-6.09831e-09
-7.40322e-10
1.33349e-07
-1.13383e-07
-5.33226e-08
7.24248e-09
5.18326e-08
-5.75246e-09
4.85394e-08
-9.98137e-09
-3.8558e-08
3.87359e-08
9.80348e-09
2.25481e-08
4.77121e-08
7.16684e-08
-7.18458e-08
1.77333e-10
-9.31901e-09
-4.40036e-08
-1.41595e-07
-4.76008e-08
1.89196e-07
-1.43354e-08
-3.2086e-08
4.64213e-08
-5.69305e-08
-6.58382e-08
-1.09738e-08
-6.17563e-09
-2.57352e-08
-1.30315e-08
4.52869e-09
-1.89812e-08
1.44524e-08
4.11072e-08
-4.30237e-08
-1.67668e-08
1.54909e-08
1.10027e-09
1.75546e-10
-3.81073e-08
3.64314e-08
-2.76663e-08
-4.2369e-08
1.88639e-08
2.35051e-08
1.06889e-07
-2.2617e-08
-1.14402e-07
3.01305e-08
-6.57281e-08
4.33786e-08
2.23494e-08
1.47729e-08
-1.47729e-08
1.09465e-08
4.8953e-09
-1.58418e-08
7.72177e-08
-6.44065e-08
-1.28112e-08
-1.53777e-10
-1.04922e-08
1.06459e-08
2.25017e-08
-3.72462e-08
1.47444e-08
1.23302e-08
-1.09203e-08
-1.40999e-09
-4.04996e-10
-2.17999e-07
1.25009e-07
-5.26955e-08
-1.38042e-07
2.93096e-08
1.60444e-08
-1.87735e-08
-6.70781e-08
-7.01199e-08
8.4176e-08
5.30219e-08
-1.70245e-07
-1.44823e-07
3.15068e-07
4.48805e-08
3.8221e-08
1.57837e-08
-9.38337e-08
7.90587e-10
-7.90607e-10
1.13995e-09
-4.82413e-09
3.68412e-09
3.99937e-08
-4.42843e-08
4.2906e-09
-2.16902e-08
1.28579e-07
-9.77622e-09
-3.87069e-08
4.84833e-08
2.48079e-09
-1.37617e-10
2.26258e-10
-2.5695e-09
7.52587e-09
-7.52588e-09
-3.68471e-08
2.91521e-08
-9.42104e-09
9.42103e-09
7.39306e-09
-7.39307e-09
-9.15014e-10
-1.93401e-08
2.11486e-08
-8.93469e-10
-5.36949e-08
-2.6479e-09
1.94169e-08
-2.06176e-08
1.20071e-09
2.06273e-08
-1.12135e-09
4.1399e-07
-7.49678e-08
-3.39022e-07
4.19745e-08
-7.67523e-10
2.36479e-07
-4.2844e-07
1.91961e-07
-5.08197e-08
1.07679e-08
4.00518e-08
8.73139e-09
-4.7921e-08
-1.16301e-08
-3.26982e-08
-1.62401e-09
1.00838e-09
4.32315e-08
-3.96002e-07
-1.69169e-09
-5.02913e-08
-3.09956e-08
2.14088e-07
-1.93706e-07
4.80234e-08
6.46752e-10
-5.03618e-08
4.76556e-08
-4.51912e-08
-4.46837e-08
3.91945e-08
5.48913e-09
-5.87113e-09
-4.90442e-08
6.04965e-09
4.88657e-08
-4.38448e-08
3.79737e-08
-2.68461e-09
3.978e-08
-3.70954e-08
-1.931e-09
3.16143e-09
1.27539e-08
-7.21733e-09
-4.53896e-08
7.92328e-09
-4.42714e-08
4.41766e-08
-5.07687e-09
2.07821e-07
-2.38816e-07
-5.95356e-08
-9.25886e-09
6.87945e-08
1.34653e-07
1.46269e-09
1.70966e-08
-1.05825e-07
8.87279e-08
4.82759e-08
-4.22894e-08
3.7392e-08
4.07448e-08
-4.24461e-08
-3.93451e-09
-2.0215e-08
-5.5434e-09
2.57584e-08
6.25527e-08
3.36433e-08
-1.29203e-08
-9.74443e-08
1.10365e-07
-5.41762e-09
-4.05673e-08
-2.51179e-10
1.58343e-10
1.28494e-09
-1.19217e-09
4.30411e-08
-3.35432e-09
-2.53814e-10
7.25718e-10
-4.71939e-10
-2.71885e-08
1.49871e-09
2.58018e-08
-1.12004e-10
-4.92475e-08
5.32468e-09
4.39228e-08
-3.54035e-08
1.90375e-08
1.6366e-08
4.2031e-09
-3.41102e-09
-5.00396e-08
-9.25612e-10
1.7702e-08
7.27774e-08
-7.56443e-08
7.15153e-08
-6.86485e-08
-4.15023e-08
6.2489e-09
3.52534e-08
4.00208e-08
-7.26177e-08
1.9051e-08
5.35667e-08
-1.33621e-07
2.75716e-07
-1.42094e-07
-1.64486e-07
1.21069e-08
-1.14849e-07
-4.96367e-08
5.18572e-08
-1.30009e-08
-3.56818e-08
1.29394e-08
-1.32144e-08
3.59568e-08
-2.37603e-08
-6.39131e-10
2.43994e-08
2.03901e-08
6.20402e-08
-8.24303e-08
1.5581e-07
-4.22799e-09
-1.51582e-07
1.5398e-07
6.19688e-08
-5.21894e-08
-9.77943e-09
-1.81575e-14
-8.46948e-10
1.67487e-09
-1.68424e-09
9.78749e-09
1.99021e-08
-2.32021e-09
-1.7582e-08
-8.38664e-09
1.94498e-08
8.83891e-09
-2.0735e-08
1.12735e-08
9.46141e-09
6.78727e-09
-7.64139e-10
-7.70746e-09
5.09683e-08
-1.07634e-08
-4.02049e-08
-3.41379e-08
1.10619e-08
-3.87965e-09
5.4848e-08
7.46685e-09
-3.79022e-08
4.06278e-08
-2.72563e-09
2.86661e-08
-3.16781e-08
3.01198e-09
6.88212e-08
6.14573e-10
-6.9172e-08
-2.63748e-10
6.12653e-08
-6.17301e-08
-1.71254e-09
2.17738e-09
6.28728e-08
-6.63494e-08
-7.88758e-10
2.10854e-08
-2.02967e-08
-3.41135e-09
2.3924e-10
3.17206e-09
-5.84304e-09
6.15108e-09
-6.15427e-08
6.42054e-08
2.03813e-08
1.8799e-07
-2.63828e-07
7.58383e-08
4.25751e-08
4.0101e-08
-8.26762e-08
3.18057e-08
2.00516e-08
-2.81036e-08
3.19332e-08
-1.9198e-09
-1.9098e-09
-1.31425e-09
5.84234e-08
-5.71091e-08
-5.974e-08
3.0628e-07
1.88752e-08
-1.91521e-08
8.43941e-08
3.69264e-09
-4.17836e-07
4.14143e-07
3.78917e-08
1.75671e-07
-2.13563e-07
4.8779e-09
-4.11789e-08
4.14746e-08
-8.08869e-09
8.16306e-09
-4.39192e-08
-3.71968e-08
-1.59991e-08
3.68884e-08
1.63076e-08
-4.42361e-08
7.03927e-09
-1.11206e-08
-6.52107e-08
7.63313e-08
6.86924e-08
-6.7753e-08
1.84633e-09
-2.78581e-09
1.85123e-08
-1.66638e-10
-2.09415e-08
2.36109e-08
-2.66948e-09
-4.98718e-09
8.78237e-08
2.24213e-07
-3.12037e-07
1.84707e-08
3.62462e-08
-5.47169e-08
5.21217e-08
-5.46217e-08
2.49996e-09
1.94169e-08
4.8725e-08
1.36507e-07
-1.07371e-07
-1.17914e-07
8.87775e-08
-6.90757e-08
2.05583e-07
-2.2698e-07
2.11116e-08
2.1359e-07
1.50023e-07
-2.79771e-07
-8.38422e-08
1.44515e-07
-1.2263e-08
-2.09597e-08
-3.87697e-08
3.31504e-08
5.61921e-09
-5.62114e-09
1.13989e-08
-5.77773e-09
6.27649e-09
-1.85228e-08
1.59539e-08
-2.1792e-08
-2.34974e-08
2.93355e-08
-9.5804e-11
-1.58035e-10
-3.68163e-09
2.91e-09
3.55272e-11
7.36041e-10
2.73527e-08
-1.28129e-08
8.46771e-09
3.18163e-08
1.57442e-07
-1.69162e-07
-2.00958e-08
-1.05442e-08
1.67052e-08
-1.61089e-08
-1.32898e-07
1.2682e-07
6.07814e-09
-1.22647e-08
8.73335e-09
2.59522e-08
-4.67674e-10
-2.78264e-08
2.34181e-09
-2.99874e-08
6.38982e-08
-5.82054e-08
2.42945e-08
7.0464e-09
-3.07191e-07
3.34051e-07
-3.39071e-08
1.05732e-07
-2.57853e-07
-2.64986e-07
3.73816e-08
2.95107e-07
9.32666e-10
-1.1151e-08
1.02183e-08
-2.84642e-08
-1.81925e-09
3.14885e-08
-2.90559e-08
-1.43213e-09
2.0239e-09
-1.37979e-08
-6.8753e-09
2.06732e-08
-3.0359e-10
1.25392e-08
7.19953e-08
-8.45345e-08
-7.01072e-08
6.67621e-08
3.34508e-09
-1.86404e-09
6.26761e-08
-6.08121e-08
3.38777e-07
-3.74369e-07
3.55919e-08
-1.00788e-09
-6.73535e-08
-1.74581e-09
-1.35571e-08
1.35571e-08
-4.17456e-09
7.09367e-08
-1.31186e-09
-1.22453e-08
-4.12329e-08
3.33065e-09
-1.31904e-08
3.12661e-08
-3.40051e-08
-4.16245e-08
-3.15108e-08
3.43656e-08
-2.60851e-08
1.17596e-09
-3.05169e-08
3.28131e-08
-3.60811e-09
1.61136e-08
-1.61136e-08
5.93826e-11
-1.4507e-08
1.34556e-08
-1.10246e-08
1.05917e-08
-6.24967e-08
1.68972e-08
1.04619e-09
-1.79434e-08
3.42319e-08
-1.11085e-08
-3.48322e-08
1.17088e-08
1.31206e-07
-1.53821e-07
9.16173e-10
-1.17171e-08
-5.27863e-08
4.43783e-08
-9.09641e-09
-4.37088e-08
8.42691e-09
-4.26904e-08
6.8932e-09
1.699e-07
-1.91093e-07
5.9084e-08
-3.83273e-08
4.17007e-08
-3.3735e-09
-2.27229e-08
2.41951e-08
-3.99248e-10
5.31042e-08
-8.08331e-08
1.59391e-07
-1.07035e-08
-1.48688e-07
-3.86727e-08
-1.23901e-08
-7.84251e-08
-1.12827e-07
1.91253e-07
2.40331e-08
-2.66151e-07
2.42117e-07
-3.01382e-07
3.63964e-08
-2.193e-08
5.95542e-08
-2.27971e-07
-1.15959e-08
1.70191e-07
-1.58595e-07
5.80012e-08
-1.26677e-08
-4.53335e-08
-1.73722e-07
-2.01582e-07
5.07959e-08
2.13622e-08
-7.21581e-08
5.52624e-08
-5.48443e-08
5.43591e-09
5.71288e-09
1.56748e-09
-3.83597e-08
-1.30569e-10
-2.79169e-10
5.59752e-08
-5.91999e-08
1.16624e-08
4.67809e-08
-5.28213e-08
5.29806e-08
-5.09937e-08
-1.98685e-09
3.7014e-07
-3.63094e-07
-6.18801e-08
2.54878e-08
3.63924e-08
6.17906e-08
2.42431e-08
-2.40649e-08
-1.08677e-08
1.60478e-07
-4.95356e-08
1.27715e-08
3.67641e-08
4.83544e-09
1.08904e-09
-5.92448e-09
-1.73994e-08
-5.64447e-08
2.43085e-08
-4.0092e-08
-1.04998e-09
2.78223e-09
1.24926e-08
-1.26345e-08
-7.34188e-09
-4.0667e-07
4.08739e-07
-2.06938e-09
5.12921e-08
-4.7203e-08
-2.88229e-08
2.47338e-08
3.3602e-07
-2.64087e-07
-7.19331e-08
-7.16556e-08
-5.96761e-10
1.76268e-07
-4.43658e-08
1.59037e-09
-1.1604e-09
4.39358e-08
-9.86174e-09
-4.53526e-08
5.52144e-08
-4.39833e-10
-2.55041e-08
2.57902e-08
-2.75667e-08
4.05115e-08
-1.29448e-08
-6.71895e-08
9.11595e-08
5.32477e-08
-1.20916e-08
1.07671e-08
-2.62421e-08
2.84429e-08
1.20686e-08
2.09751e-08
-1.98777e-08
4.66821e-08
-3.88472e-08
2.49341e-08
-3.70257e-08
3.77454e-08
-3.76253e-08
5.7881e-08
4.82056e-08
-1.96872e-07
2.35689e-07
-3.88166e-08
-3.56208e-09
4.34991e-09
-3.29319e-09
1.04116e-08
-1.53482e-08
4.93649e-09
2.58102e-08
-1.3821e-08
-1.10058e-08
3.6816e-08
-5.30149e-08
5.15807e-08
-6.19802e-09
7.63219e-09
4.42218e-10
-3.2032e-09
4.35204e-09
-1.59112e-09
-2.08176e-07
-1.8804e-08
1.67416e-08
1.57878e-08
-2.46618e-07
-6.28084e-08
-1.09221e-07
1.72029e-07
-1.28528e-07
-6.14333e-08
-7.86439e-08
4.25944e-08
3.60494e-08
1.17965e-08
-1.50062e-08
3.20971e-09
-1.8142e-09
6.80902e-08
1.83161e-07
-5.23259e-07
3.40098e-07
-6.93865e-08
-1.44306e-07
2.13693e-07
-3.66641e-08
-4.95337e-09
-4.10446e-09
9.05781e-09
3.14869e-08
1.05084e-08
-8.84489e-09
3.2624e-09
1.79507e-08
-2.12132e-08
-2.72051e-08
4.3565e-09
2.28486e-08
1.87093e-07
1.57501e-07
-1.39011e-07
-6.73678e-08
1.43529e-08
4.66679e-09
-4.55466e-09
-1.12164e-10
1.99512e-08
1.99079e-08
-3.98591e-08
5.23713e-08
-6.22122e-09
-4.61501e-08
-9.04965e-09
5.1532e-08
9.88894e-09
1.33148e-09
-1.30098e-12
-1.92882e-10
-1.13738e-09
7.83481e-08
1.29424e-07
-1.3753e-07
1.29814e-07
-5.14657e-08
-7.37063e-09
1.36794e-07
-5.94395e-08
2.16102e-08
-1.95135e-08
2.10677e-08
1.01375e-07
-5.52812e-08
2.95298e-08
2.57514e-08
2.48901e-08
4.56038e-10
-2.38354e-08
-1.51072e-09
-6.00058e-08
5.09562e-08
8.97109e-10
5.67701e-11
-1.66959e-08
1.7751e-08
-1.05514e-09
2.21886e-07
-1.96782e-07
-2.76253e-08
-1.83412e-08
1.73689e-08
-6.85645e-09
-5.93706e-08
-1.74483e-08
1.40634e-09
1.6042e-08
-4.17053e-08
3.36257e-08
2.05195e-08
3.39178e-08
-5.44372e-08
2.21553e-07
-3.78578e-08
-1.83695e-07
1.56884e-07
-1.65643e-07
1.79025e-09
3.90079e-08
-1.6752e-09
-3.73327e-08
4.59596e-08
2.27987e-07
-2.73947e-07
9.93875e-11
1.67148e-08
1.57293e-08
1.96254e-08
-1.70932e-08
-5.05183e-08
2.62075e-09
4.78976e-08
3.6143e-08
-4.11041e-08
4.96107e-09
-1.5401e-08
-4.08006e-08
4.14425e-08
1.47592e-08
-1.60697e-08
1.76204e-08
-1.7751e-08
8.66841e-09
7.6638e-10
-1.2716e-08
1.72446e-08
-1.23737e-08
-1.44698e-08
1.10031e-08
1.58403e-08
2.84102e-08
-1.78619e-08
-1.05484e-08
-4.52841e-09
4.38477e-08
-4.36146e-08
1.4769e-07
3.94034e-08
-3.70194e-08
6.08448e-09
3.57651e-08
-4.83027e-09
-2.07591e-08
2.12554e-08
-4.96443e-10
2.9099e-08
-3.07053e-08
1.60639e-09
-3.79501e-08
6.70493e-08
8.75545e-08
-3.13568e-08
-5.61977e-08
-3.19771e-08
5.70811e-08
6.24505e-08
1.33845e-07
1.17317e-08
-1.76934e-07
3.33646e-08
-3.66557e-08
-1.61393e-08
7.68681e-09
1.01868e-07
1.60164e-08
-1.60164e-08
2.70105e-08
-6.639e-08
3.93796e-08
-7.73952e-08
-1.27508e-09
7.86703e-08
8.32187e-09
3.54952e-09
-3.2492e-09
3.034e-08
-2.70909e-08
-4.5404e-08
6.03665e-08
2.13117e-08
1.18061e-07
-1.21838e-07
9.15461e-08
-8.77694e-08
-2.77634e-08
-2.62944e-08
2.71457e-08
6.71097e-08
3.62341e-09
2.62695e-09
-4.40559e-09
3.67047e-08
-2.84869e-09
-4.01834e-08
-9.29931e-09
4.94827e-08
6.3209e-10
-7.4541e-09
4.40964e-08
-1.83412e-08
5.95251e-08
5.44242e-10
-6.00693e-08
-4.13019e-07
2.39297e-07
1.23772e-07
4.24983e-09
-1.2372e-07
-4.30149e-09
7.72393e-08
-7.05541e-08
2.20828e-08
4.15519e-08
-4.27414e-08
-2.08933e-08
1.44754e-08
-1.44754e-08
-1.96179e-08
-8.25703e-08
1.02188e-07
-4.90238e-08
4.09351e-08
-2.93402e-08
3.17837e-08
1.98263e-08
-2.05408e-08
-6.8667e-09
7.58113e-09
3.99126e-07
-7.26492e-08
-1.8383e-07
1.28296e-07
1.28183e-07
1.68039e-08
5.59735e-08
-1.52176e-08
1.19602e-08
-5.20239e-08
-5.64001e-08
-1.06779e-08
3.77668e-08
-6.92875e-08
3.15207e-08
-7.24224e-08
5.37891e-08
3.33365e-07
-1.90871e-07
-4.49259e-08
6.17298e-08
-1.69409e-07
1.13212e-07
-3.93665e-08
2.18441e-08
1.75224e-08
-6.63038e-08
-1.45624e-07
2.11928e-07
-6.88135e-08
-1.56748e-08
-8.22383e-09
5.01656e-09
5.86692e-09
6.20374e-08
-4.91658e-08
1.3112e-07
-1.43991e-07
2.81824e-07
-7.33782e-09
-2.74486e-07
-4.34117e-10
8.68544e-09
-7.91501e-09
-3.36382e-10
-1.8208e-08
2.34372e-08
-5.22926e-09
1.12105e-08
-2.17784e-08
2.23643e-08
2.31e-10
6.55623e-09
3.3446e-09
4.26531e-08
-4.34378e-08
-2.44375e-08
2.50888e-08
-6.45779e-10
-5.56149e-12
1.50372e-08
1.11805e-08
-1.37045e-08
9.66645e-09
-1.01063e-08
-5.48149e-08
2.58369e-08
7.52767e-09
3.19424e-08
-4.73434e-08
4.31073e-08
3.82987e-08
-4.5267e-08
1.38092e-08
2.40964e-08
2.57772e-08
-1.59951e-07
1.34174e-07
6.65963e-08
-1.52516e-08
-5.77168e-09
-3.0884e-08
6.99327e-09
-2.57124e-08
2.43383e-08
-7.26118e-09
5.92971e-08
-6.08909e-08
8.85498e-09
-4.57982e-08
6.57791e-09
3.92203e-08
-1.02246e-09
1.43578e-07
-1.42556e-07
-1.21589e-07
-1.59585e-08
1.36522e-07
-4.59051e-08
-4.11008e-09
5.00151e-08
1.54893e-07
1.99138e-09
1.37918e-08
-1.55415e-08
1.74972e-09
6.65273e-09
2.84181e-08
-2.65044e-08
-8.56648e-09
-3.48742e-08
-8.07629e-10
-2.45972e-08
3.75987e-08
-1.30015e-08
3.02549e-08
-3.95206e-08
-1.09647e-08
-3.08413e-08
4.4703e-10
3.03942e-08
-1.7791e-08
-3.93861e-08
5.71771e-08
-2.82806e-08
-3.65276e-08
6.48082e-08
-3.47571e-08
4.84953e-08
-4.53122e-08
5.27904e-08
-7.27066e-10
-1.5278e-08
1.6005e-08
1.72345e-08
-6.07126e-08
-1.67706e-08
-5.2053e-08
4.95529e-08
3.36216e-09
-5.2915e-08
-2.53283e-08
2.56733e-08
-3.18235e-08
3.14785e-08
4.66042e-08
-1.63341e-08
1.36014e-08
-4.38715e-08
-4.09241e-10
-1.54382e-09
-5.91688e-08
-7.27037e-08
2.49664e-07
6.26615e-08
-3.65392e-09
-6.52934e-08
1.16965e-08
-3.87315e-08
-7.06668e-09
-2.51213e-09
1.94081e-08
-2.01453e-08
-7.53487e-10
-3.95957e-08
4.03492e-08
-2.07232e-07
1.83909e-07
5.12267e-08
-1.89989e-09
-3.73997e-08
3.793e-10
-7.71781e-10
3.77921e-08
4.33029e-08
-3.41872e-09
5.70869e-09
-4.55929e-08
9.10612e-09
-3.67201e-09
-5.43415e-09
-1.99655e-08
-1.09136e-10
2.00746e-08
8.77526e-11
4.56981e-08
-4.50263e-08
-7.59561e-10
-1.98777e-08
4.50284e-08
5.60558e-10
-2.74433e-08
-9.08635e-10
2.83519e-08
2.86788e-08
-2.2734e-08
-5.94484e-09
2.19471e-08
1.29158e-09
-2.13734e-08
-2.32785e-08
2.71108e-08
-3.97641e-08
1.26533e-08
1.53902e-07
-9.18643e-08
-3.13616e-08
4.4301e-08
-2.97779e-07
-2.67492e-08
2.00082e-08
1.16328e-07
-1.09587e-07
-1.15668e-07
1.78827e-07
-6.3159e-08
8.03043e-08
-8.13122e-08
-6.20618e-08
8.34978e-08
-2.1436e-08
-5.4993e-09
5.79533e-09
-5.08144e-08
3.46233e-08
4.60709e-09
3.61939e-09
-6.692e-08
6.33006e-08
2.15431e-08
1.69574e-09
-3.562e-08
1.2381e-08
5.45662e-08
-3.2361e-09
-5.13302e-08
1.37602e-07
-1.47378e-07
1.27227e-07
-6.37006e-08
-6.35258e-08
9.93944e-09
3.55291e-08
-1.08453e-08
-9.91716e-08
3.84326e-08
-4.43957e-08
5.96314e-09
1.2328e-09
-1.52198e-09
1.52197e-09
1.44329e-09
-4.84578e-10
-1.07772e-08
-6.64467e-09
-2.89195e-10
7.30159e-11
-3.4209e-09
3.34785e-09