/*--------------------------------*- C++ -*----------------------------------*\
| =========                 |                                                 |
| \\      /  F ield         | OpenFOAM: The Open Source CFD Toolbox           |
|  \\    /   O peration     | Version:  v2012                                 |
|   \\  /    A nd           | Website:  www.openfoam.com                      |
|    \\/     M anipulation  |                                                 |
\*---------------------------------------------------------------------------*/
FoamFile
{
    version     2.0;
    format      ascii;
    class       volScalarField;
    location    "0.1";
    object      p_rgh;
}
// * * * * * * * * * * * * * * * * * * * * * * * * * * * * * * * * * * * * * //

dimensions      [1 -1 -2 0 0 0 0];


internalField   nonuniform List<scalar> 
3332
(
3.50027e+06
3.50027e+06
3.50027e+06
3.50027e+06
3.50027e+06
3.50027e+06
3.50027e+06
3.50027e+06
3.50028e+06
3.50028e+06
3.50028e+06
3.50028e+06
3.50028e+06
3.50028e+06
3.50028e+06
3.50028e+06
3.50028e+06
3.50028e+06
3.50028e+06
3.50028e+06
3.50028e+06
3.50027e+06
3.50027e+06
3.50029e+06
3.50029e+06
3.50029e+06
3.50029e+06
3.50029e+06
3.50029e+06
3.50029e+06
3.50029e+06
3.50029e+06
3.5003e+06
3.5003e+06
3.50029e+06
3.50029e+06
3.50029e+06
3.50029e+06
3.50031e+06
3.50031e+06
3.50031e+06
3.50031e+06
3.50031e+06
3.50031e+06
3.50031e+06
3.50031e+06
3.50031e+06
3.50031e+06
3.50031e+06
3.50031e+06
3.5003e+06
3.5003e+06
3.5003e+06
3.50033e+06
3.50033e+06
3.50033e+06
3.50033e+06
3.50033e+06
3.50033e+06
3.50033e+06
3.50033e+06
3.50033e+06
3.50033e+06
3.50033e+06
3.50032e+06
3.50032e+06
3.50032e+06
3.50032e+06
3.50035e+06
3.50035e+06
3.50035e+06
3.50035e+06
3.50035e+06
3.50035e+06
3.50035e+06
3.50035e+06
3.50035e+06
3.50035e+06
3.50035e+06
3.50034e+06
3.50034e+06
3.50034e+06
3.50034e+06
3.50037e+06
3.50037e+06
3.50037e+06
3.50037e+06
3.50037e+06
3.50037e+06
3.50037e+06
3.50037e+06
3.50037e+06
3.50037e+06
3.50037e+06
3.50036e+06
3.50036e+06
3.50036e+06
3.50036e+06
3.5004e+06
3.5004e+06
3.5004e+06
3.5004e+06
3.5004e+06
3.5004e+06
3.5004e+06
3.5004e+06
3.5004e+06
3.5004e+06
3.5004e+06
3.50039e+06
3.50039e+06
3.50039e+06
3.50039e+06
3.50042e+06
3.50042e+06
3.50042e+06
3.50042e+06
3.50042e+06
3.50042e+06
3.50042e+06
3.50042e+06
3.50042e+06
3.50042e+06
3.50042e+06
3.50042e+06
3.50042e+06
3.50041e+06
3.50041e+06
3.50046e+06
3.50046e+06
3.50046e+06
3.50046e+06
3.50046e+06
3.50046e+06
3.50046e+06
3.50045e+06
3.50045e+06
3.50045e+06
3.50045e+06
3.50045e+06
3.50045e+06
3.50045e+06
3.50044e+06
3.50048e+06
3.50048e+06
3.50048e+06
3.50048e+06
3.50049e+06
3.50049e+06
3.50049e+06
3.50048e+06
3.50048e+06
3.50048e+06
3.50048e+06
3.50048e+06
3.50048e+06
3.50048e+06
3.50048e+06
3.50054e+06
3.50054e+06
3.50055e+06
3.50055e+06
3.50055e+06
3.50055e+06
3.50055e+06
3.50054e+06
3.50054e+06
3.50054e+06
3.50053e+06
3.50053e+06
3.50053e+06
3.50053e+06
3.50052e+06
3.50057e+06
3.50057e+06
3.50057e+06
3.50057e+06
3.50057e+06
3.50057e+06
3.50058e+06
3.50057e+06
3.50057e+06
3.50057e+06
3.50057e+06
3.50057e+06
3.50057e+06
3.50057e+06
3.50056e+06
3.50066e+06
3.50066e+06
3.50066e+06
3.50067e+06
3.50067e+06
3.50066e+06
3.50066e+06
3.50065e+06
3.50065e+06
3.50065e+06
3.50064e+06
3.50064e+06
3.50064e+06
3.50063e+06
3.50062e+06
3.50068e+06
3.50068e+06
3.50068e+06
3.50069e+06
3.50069e+06
3.50069e+06
3.50069e+06
3.50069e+06
3.50069e+06
3.50069e+06
3.50069e+06
3.50069e+06
3.50069e+06
3.50069e+06
3.50068e+06
3.50083e+06
3.50083e+06
3.50083e+06
3.50083e+06
3.50083e+06
3.50083e+06
3.50083e+06
3.50082e+06
3.50081e+06
3.50081e+06
3.5008e+06
3.50079e+06
3.50078e+06
3.50077e+06
3.50076e+06
3.50083e+06
3.50083e+06
3.50083e+06
3.50084e+06
3.50084e+06
3.50084e+06
3.50085e+06
3.50085e+06
3.50086e+06
3.50086e+06
3.50086e+06
3.50086e+06
3.50085e+06
3.50085e+06
3.50083e+06
3.50107e+06
3.50109e+06
3.50109e+06
3.50109e+06
3.50109e+06
3.50108e+06
3.50108e+06
3.50107e+06
3.50105e+06
3.50104e+06
3.50103e+06
3.50101e+06
3.50099e+06
3.50097e+06
3.50095e+06
3.50103e+06
3.50104e+06
3.50105e+06
3.50105e+06
3.50106e+06
3.50107e+06
3.50107e+06
3.50108e+06
3.50109e+06
3.50109e+06
3.50109e+06
3.50109e+06
3.50108e+06
3.50107e+06
3.50105e+06
3.50147e+06
3.50149e+06
3.5015e+06
3.5015e+06
3.50149e+06
3.50148e+06
3.50146e+06
3.50145e+06
3.50142e+06
3.5014e+06
3.50137e+06
3.50134e+06
3.5013e+06
3.50126e+06
3.50122e+06
3.50132e+06
3.50134e+06
3.50135e+06
3.50136e+06
3.50137e+06
3.50139e+06
3.5014e+06
3.50142e+06
3.50142e+06
3.50143e+06
3.50143e+06
3.50143e+06
3.50141e+06
3.50139e+06
3.50135e+06
3.50213e+06
3.50217e+06
3.50217e+06
3.50217e+06
3.50215e+06
3.50213e+06
3.50209e+06
3.50206e+06
3.50201e+06
3.50196e+06
3.5019e+06
3.50184e+06
3.50176e+06
3.50169e+06
3.50161e+06
3.50177e+06
3.5018e+06
3.50181e+06
3.50184e+06
3.50185e+06
3.50188e+06
3.50189e+06
3.50193e+06
3.50193e+06
3.50195e+06
3.50194e+06
3.50193e+06
3.50189e+06
3.50185e+06
3.50178e+06
3.50327e+06
3.50333e+06
3.50332e+06
3.50333e+06
3.50328e+06
3.50326e+06
3.50317e+06
3.50311e+06
3.50299e+06
3.5029e+06
3.50275e+06
3.50264e+06
3.50248e+06
3.50235e+06
3.5022e+06
3.50248e+06
3.50254e+06
3.50255e+06
3.50261e+06
3.50261e+06
3.50269e+06
3.50269e+06
3.50276e+06
3.50274e+06
3.50279e+06
3.50273e+06
3.50271e+06
3.50262e+06
3.50254e+06
3.5024e+06
3.50534e+06
3.50545e+06
3.50542e+06
3.50545e+06
3.50533e+06
3.50529e+06
3.50509e+06
3.50498e+06
3.5047e+06
3.50453e+06
3.5042e+06
3.50397e+06
3.50363e+06
3.50337e+06
3.50306e+06
3.50377e+06
3.50389e+06
3.50388e+06
3.50402e+06
3.50398e+06
3.50415e+06
3.50408e+06
3.50424e+06
3.50411e+06
3.5042e+06
3.504e+06
3.50397e+06
3.50371e+06
3.50927e+06
3.50952e+06
3.50941e+06
3.50951e+06
3.50921e+06
3.50919e+06
3.50869e+06
3.50853e+06
3.50783e+06
3.50751e+06
3.50669e+06
3.50625e+06
3.50547e+06
3.50638e+06
3.50668e+06
3.50658e+06
3.50691e+06
3.50671e+06
3.50708e+06
3.50675e+06
3.50709e+06
3.50657e+06
3.50675e+06
3.50607e+06
3.50603e+06
3.50533e+06
3.51711e+06
3.51767e+06
3.51739e+06
3.5177e+06
3.51698e+06
3.51706e+06
3.51583e+06
3.51559e+06
3.5138e+06
3.51321e+06
3.51107e+06
3.51023e+06
3.50835e+06
3.51233e+06
3.51307e+06
3.51276e+06
3.5135e+06
3.51282e+06
3.51361e+06
3.51242e+06
3.5131e+06
3.51124e+06
3.51164e+06
3.50932e+06
3.50942e+06
3.5075e+06
3.53357e+06
3.53481e+06
3.53415e+06
3.53492e+06
3.53329e+06
3.5337e+06
3.53067e+06
3.53045e+06
3.52562e+06
3.52463e+06
3.5185e+06
3.51711e+06
3.51245e+06
3.52728e+06
3.52898e+06
3.52813e+06
3.52963e+06
3.52764e+06
3.52914e+06
3.52535e+06
3.5266e+06
3.52031e+06
3.52132e+06
3.51332e+06
3.5146e+06
3.50947e+06
3.56882e+06
3.57125e+06
3.57e+06
3.57171e+06
3.56842e+06
3.56965e+06
3.56271e+06
3.56286e+06
3.54993e+06
3.54884e+06
3.52919e+06
3.52801e+06
3.5166e+06
3.56507e+06
3.56842e+06
3.5666e+06
3.56912e+06
3.56432e+06
3.56646e+06
3.55613e+06
3.55764e+06
3.53808e+06
3.54072e+06
3.51148e+06
3.52071e+06
3.50811e+06
3.64181e+06
3.64531e+06
3.64363e+06
3.6465e+06
3.64155e+06
3.64433e+06
3.63206e+06
3.63421e+06
3.60472e+06
3.60739e+06
3.53317e+06
3.53888e+06
3.51484e+06
3.65224e+06
3.65666e+06
3.65394e+06
3.65667e+06
3.64853e+06
3.65002e+06
3.62971e+06
3.6294e+06
3.57882e+06
3.58085e+06
3.46051e+06
3.52009e+06
3.49793e+06
3.76959e+06
3.77173e+06
3.77052e+06
3.77348e+06
3.77102e+06
3.77563e+06
3.77068e+06
3.77875e+06
3.76998e+06
3.78864e+06
3.80624e+06
3.80815e+06
3.80667e+06
3.80844e+06
3.80544e+06
3.80734e+06
3.8022e+06
3.80469e+06
3.79918e+06
3.80426e+06
3.91779e+06
3.91855e+06
3.91792e+06
3.91922e+06
3.91833e+06
3.92023e+06
3.91894e+06
3.92129e+06
3.91997e+06
3.92193e+06
3.97615e+06
3.97674e+06
3.97614e+06
3.97685e+06
3.97599e+06
3.97685e+06
3.97575e+06
3.97679e+06
3.97604e+06
3.97728e+06
4.06723e+06
4.06731e+06
4.06718e+06
4.06765e+06
4.06762e+06
4.0683e+06
4.06826e+06
4.06885e+06
4.06871e+06
4.06891e+06
4.14687e+06
4.14703e+06
4.14679e+06
4.14693e+06
4.14677e+06
4.14687e+06
4.14669e+06
4.14653e+06
4.14632e+06
4.14602e+06
4.21362e+06
4.21315e+06
4.21354e+06
4.21412e+06
4.21545e+06
4.21645e+06
4.21808e+06
4.21826e+06
4.21904e+06
4.21837e+06
4.3153e+06
4.31529e+06
4.31504e+06
4.31547e+06
4.31657e+06
4.31726e+06
4.31838e+06
4.31709e+06
4.3167e+06
4.31361e+06
4.34435e+06
4.34373e+06
4.34505e+06
4.34881e+06
4.35594e+06
4.36202e+06
4.36958e+06
4.36926e+06
4.37106e+06
4.36374e+06
4.47492e+06
4.46977e+06
4.46703e+06
4.47121e+06
4.48054e+06
4.49079e+06
4.49938e+06
4.49773e+06
4.49451e+06
4.46082e+06
4.47363e+06
4.47699e+06
4.48125e+06
4.48442e+06
4.48778e+06
4.49074e+06
4.49327e+06
4.49367e+06
4.49307e+06
4.47448e+06
4.48922e+06
4.48925e+06
4.48928e+06
4.489e+06
4.4886e+06
4.48803e+06
4.48778e+06
4.4877e+06
4.48813e+06
4.48855e+06
4.48794e+06
4.48754e+06
4.48807e+06
4.4883e+06
4.48895e+06
4.48938e+06
4.49001e+06
4.48968e+06
4.48952e+06
4.48788e+06
4.48908e+06
4.48907e+06
4.48905e+06
4.48895e+06
4.48891e+06
4.48884e+06
4.48886e+06
4.48884e+06
4.48884e+06
4.48886e+06
4.48939e+06
4.4893e+06
4.48939e+06
4.48939e+06
4.48953e+06
4.48956e+06
4.48968e+06
4.48958e+06
4.48956e+06
4.48937e+06
4.4896e+06
4.4896e+06
4.48959e+06
4.48957e+06
4.48958e+06
4.48957e+06
4.4896e+06
4.48959e+06
4.48959e+06
4.48958e+06
4.49008e+06
4.49006e+06
4.49008e+06
4.49007e+06
4.4901e+06
4.49009e+06
4.49012e+06
4.49009e+06
4.49009e+06
4.49006e+06
4.49027e+06
4.49027e+06
4.49027e+06
4.49027e+06
4.49027e+06
4.49027e+06
4.49029e+06
4.49029e+06
4.4903e+06
4.4903e+06
4.49071e+06
4.49071e+06
4.49071e+06
4.4907e+06
4.49072e+06
4.49071e+06
4.49072e+06
4.49071e+06
4.49071e+06
4.4907e+06
4.49096e+06
4.49096e+06
4.49096e+06
4.49096e+06
4.49097e+06
4.49097e+06
4.49098e+06
4.49098e+06
4.49098e+06
4.49098e+06
4.49135e+06
4.49135e+06
4.49135e+06
4.49134e+06
4.49136e+06
4.49135e+06
4.49135e+06
4.49135e+06
4.49135e+06
4.49135e+06
4.49164e+06
4.49164e+06
4.49163e+06
4.49163e+06
4.49165e+06
4.49165e+06
4.49165e+06
4.49165e+06
4.49165e+06
4.49165e+06
4.49201e+06
4.49201e+06
4.492e+06
4.492e+06
4.49201e+06
4.49201e+06
4.49201e+06
4.492e+06
4.492e+06
4.492e+06
4.49232e+06
4.49232e+06
4.4923e+06
4.4923e+06
4.49232e+06
4.49232e+06
4.49232e+06
4.49232e+06
4.49232e+06
4.49232e+06
4.49267e+06
4.49267e+06
4.49267e+06
4.49267e+06
4.49266e+06
4.49266e+06
4.49266e+06
4.49266e+06
4.49266e+06
4.49266e+06
4.49298e+06
4.49298e+06
4.49298e+06
4.49298e+06
4.49298e+06
4.49298e+06
4.49298e+06
4.49298e+06
4.49298e+06
4.49298e+06
4.49333e+06
4.49333e+06
4.49333e+06
4.49333e+06
4.49333e+06
4.49332e+06
4.49332e+06
4.49332e+06
4.49332e+06
4.49332e+06
4.49364e+06
4.49364e+06
4.49364e+06
4.49364e+06
4.49364e+06
4.49364e+06
4.49365e+06
4.49365e+06
4.49365e+06
4.49365e+06
4.49399e+06
4.49399e+06
4.49399e+06
4.49399e+06
4.49399e+06
4.49399e+06
4.49399e+06
4.49399e+06
4.49398e+06
4.49398e+06
4.4943e+06
4.4943e+06
4.4943e+06
4.4943e+06
4.4943e+06
4.4943e+06
4.4943e+06
4.49431e+06
4.49431e+06
4.49431e+06
4.49465e+06
4.49465e+06
4.49465e+06
4.49465e+06
4.49465e+06
4.49465e+06
4.49465e+06
4.49465e+06
4.49465e+06
4.49465e+06
4.49493e+06
4.49493e+06
4.49494e+06
4.49494e+06
4.49494e+06
4.49495e+06
4.49495e+06
4.49496e+06
4.49497e+06
4.49497e+06
4.49532e+06
4.49532e+06
4.49532e+06
4.49532e+06
4.49532e+06
4.49532e+06
4.49532e+06
4.49532e+06
4.49533e+06
4.49533e+06
4.49556e+06
4.49556e+06
4.49556e+06
4.49556e+06
4.49557e+06
4.49558e+06
4.49559e+06
4.4956e+06
4.49561e+06
4.49562e+06
4.49602e+06
4.49602e+06
4.49602e+06
4.49601e+06
4.49601e+06
4.496e+06
4.49601e+06
4.496e+06
4.49601e+06
4.49602e+06
4.49622e+06
4.49622e+06
4.49622e+06
4.49621e+06
4.49622e+06
4.49621e+06
4.49621e+06
4.49619e+06
4.49619e+06
4.49618e+06
4.49683e+06
4.49683e+06
4.49683e+06
4.49682e+06
4.49681e+06
4.49678e+06
4.49676e+06
4.49671e+06
4.49669e+06
4.49668e+06
4.49698e+06
4.49698e+06
4.49698e+06
4.49696e+06
4.49695e+06
4.49688e+06
4.4968e+06
4.49666e+06
4.49657e+06
4.49647e+06
4.49782e+06
4.49781e+06
4.49782e+06
4.49781e+06
4.4978e+06
4.49774e+06
4.49767e+06
4.49753e+06
4.49743e+06
4.4974e+06
4.49792e+06
4.49792e+06
4.49792e+06
4.49789e+06
4.49785e+06
4.4977e+06
4.49753e+06
4.49711e+06
4.49674e+06
4.49592e+06
4.49888e+06
4.49886e+06
4.49887e+06
4.49887e+06
4.49888e+06
4.49887e+06
4.49887e+06
4.49878e+06
4.49881e+06
4.49856e+06
4.49956e+06
4.49957e+06
4.4998e+06
4.49983e+06
4.4999e+06
4.49993e+06
4.49995e+06
4.4989e+06
4.49889e+06
4.49889e+06
4.49889e+06
4.49891e+06
4.49891e+06
4.49895e+06
4.49894e+06
4.49905e+06
4.49903e+06
4.4996e+06
4.49964e+06
4.49981e+06
4.49985e+06
4.4999e+06
4.49992e+06
4.49995e+06
4.49947e+06
4.49946e+06
4.49946e+06
4.49947e+06
4.49948e+06
4.49951e+06
4.49954e+06
4.49954e+06
4.49961e+06
4.4996e+06
4.49977e+06
4.49977e+06
4.49986e+06
4.49988e+06
4.49992e+06
4.49993e+06
4.49995e+06
4.49947e+06
4.49946e+06
4.49946e+06
4.49947e+06
4.49949e+06
4.49952e+06
4.49955e+06
4.49958e+06
4.49964e+06
4.49966e+06
4.49978e+06
4.4998e+06
4.49987e+06
4.49989e+06
4.49992e+06
4.49994e+06
4.49995e+06
4.49975e+06
4.49974e+06
4.49974e+06
4.49974e+06
4.49975e+06
4.49977e+06
4.49979e+06
4.4998e+06
4.49982e+06
4.49983e+06
4.49987e+06
4.49988e+06
4.49991e+06
4.49992e+06
4.49994e+06
4.49995e+06
4.49996e+06
4.49974e+06
4.49973e+06
4.49973e+06
4.49973e+06
4.49974e+06
4.49977e+06
4.49979e+06
4.4998e+06
4.49983e+06
4.49984e+06
4.49987e+06
4.49989e+06
4.49991e+06
4.49993e+06
4.49994e+06
4.49995e+06
4.49996e+06
4.49987e+06
4.49989e+06
4.49989e+06
4.49988e+06
4.49989e+06
4.49989e+06
4.49989e+06
4.4999e+06
4.49991e+06
4.49991e+06
4.49992e+06
4.49993e+06
4.49994e+06
4.49995e+06
4.49996e+06
4.49996e+06
4.49997e+06
4.49986e+06
4.49988e+06
4.49988e+06
4.49988e+06
4.49988e+06
4.49988e+06
4.49989e+06
4.4999e+06
4.49991e+06
4.49991e+06
4.49993e+06
4.49993e+06
4.49994e+06
4.49995e+06
4.49996e+06
4.49997e+06
4.49997e+06
4.49994e+06
4.49994e+06
4.49994e+06
4.49994e+06
4.49994e+06
4.49994e+06
4.49994e+06
4.49994e+06
4.49995e+06
4.49995e+06
4.49995e+06
4.49996e+06
4.49996e+06
4.49996e+06
4.49997e+06
4.49997e+06
4.49998e+06
4.49993e+06
4.49993e+06
4.49993e+06
4.49993e+06
4.49993e+06
4.49994e+06
4.49994e+06
4.49994e+06
4.49995e+06
4.49995e+06
4.49996e+06
4.49996e+06
4.49996e+06
4.49997e+06
4.49997e+06
4.49998e+06
4.49998e+06
4.49996e+06
4.49996e+06
4.49996e+06
4.49996e+06
4.49996e+06
4.49996e+06
4.49996e+06
4.49996e+06
4.49997e+06
4.49997e+06
4.49997e+06
4.49997e+06
4.49997e+06
4.49997e+06
4.49998e+06
4.49998e+06
4.49998e+06
4.49998e+06
4.49999e+06
4.49996e+06
4.49996e+06
4.49996e+06
4.49996e+06
4.49996e+06
4.49996e+06
4.49996e+06
4.49997e+06
4.49997e+06
4.49997e+06
4.49997e+06
4.49997e+06
4.49998e+06
4.49998e+06
4.49998e+06
4.49998e+06
4.49998e+06
4.49999e+06
4.49999e+06
4.49998e+06
4.49998e+06
4.49998e+06
4.49998e+06
4.49998e+06
4.49998e+06
4.49998e+06
4.49998e+06
4.49998e+06
4.49998e+06
4.49998e+06
4.49998e+06
4.49998e+06
4.49998e+06
4.49998e+06
4.49998e+06
4.49999e+06
4.49999e+06
4.49999e+06
4.49998e+06
4.49998e+06
4.49998e+06
4.49998e+06
4.49998e+06
4.49998e+06
4.49998e+06
4.49998e+06
4.49998e+06
4.49998e+06
4.49998e+06
4.49998e+06
4.49998e+06
4.49998e+06
4.49999e+06
4.49999e+06
4.49999e+06
4.49999e+06
4.49999e+06
4.49998e+06
4.49998e+06
4.49998e+06
4.49998e+06
4.49998e+06
4.49998e+06
4.49998e+06
4.49998e+06
4.49998e+06
4.49998e+06
4.49999e+06
4.49999e+06
4.49999e+06
4.49999e+06
4.49999e+06
4.49999e+06
4.49999e+06
4.49999e+06
4.49999e+06
4.49998e+06
4.49998e+06
4.49998e+06
4.49998e+06
4.49998e+06
4.49998e+06
4.49998e+06
4.49999e+06
4.49999e+06
4.49999e+06
4.49999e+06
4.49999e+06
4.49999e+06
4.49999e+06
4.49999e+06
4.49999e+06
4.49999e+06
4.49999e+06
4.49999e+06
4.49999e+06
4.49999e+06
4.49999e+06
4.49999e+06
4.49999e+06
4.49999e+06
4.49999e+06
4.49999e+06
4.49999e+06
4.49999e+06
4.49999e+06
4.49999e+06
4.49999e+06
4.49999e+06
4.49999e+06
4.49999e+06
4.49999e+06
4.49999e+06
4.49999e+06
4.49999e+06
4.49999e+06
4.49999e+06
4.49999e+06
4.49999e+06
4.49999e+06
4.49999e+06
4.49999e+06
4.49999e+06
4.49999e+06
4.49999e+06
4.49999e+06
4.49999e+06
4.49999e+06
4.49999e+06
4.49999e+06
4.49999e+06
4.49999e+06
4.49999e+06
4.49999e+06
4.49999e+06
4.49999e+06
4.49999e+06
4.49999e+06
4.49999e+06
4.49999e+06
4.49999e+06
4.49999e+06
4.49999e+06
4.49999e+06
4.49999e+06
4.49999e+06
4.49999e+06
4.49999e+06
4.49999e+06
4.49999e+06
4.49999e+06
4.49999e+06
4.49999e+06
4.49999e+06
4.49999e+06
4.49999e+06
4.49999e+06
4.49999e+06
4.49999e+06
4.49999e+06
4.49999e+06
4.49999e+06
4.49999e+06
4.49999e+06
4.49999e+06
4.49999e+06
4.49999e+06
4.49999e+06
4.49999e+06
4.49999e+06
4.49999e+06
4.49999e+06
4.49999e+06
4.49999e+06
4.49999e+06
4.49999e+06
4.49999e+06
4.49999e+06
4.49999e+06
4.49999e+06
4.49999e+06
4.49999e+06
4.49999e+06
4.49999e+06
4.49999e+06
4.49999e+06
4.49999e+06
4.49999e+06
4.5e+06
4.5e+06
4.49999e+06
4.49999e+06
4.49999e+06
4.49999e+06
4.49999e+06
4.49999e+06
4.49999e+06
4.49999e+06
4.49999e+06
4.49999e+06
4.49999e+06
4.49999e+06
4.49999e+06
4.49999e+06
4.5e+06
4.5e+06
4.5e+06
4.5e+06
4.5e+06
4.5e+06
4.5e+06
4.49999e+06
4.49999e+06
4.5e+06
4.5e+06
4.5e+06
4.5e+06
4.5e+06
4.5e+06
4.5e+06
4.5e+06
4.5e+06
4.5e+06
4.5e+06
4.5e+06
4.5e+06
4.5e+06
4.5e+06
4.5e+06
4.5e+06
4.5e+06
4.5e+06
4.5e+06
4.5e+06
4.5e+06
4.5e+06
4.5e+06
4.5e+06
4.5e+06
4.5e+06
4.5e+06
4.5e+06
4.5e+06
4.5e+06
4.5e+06
4.5e+06
4.5e+06
4.5e+06
4.5e+06
4.5e+06
4.5e+06
4.5e+06
4.5e+06
4.5e+06
4.5e+06
4.5e+06
4.5e+06
4.5e+06
4.5e+06
4.5e+06
4.5e+06
4.5e+06
4.5e+06
4.5e+06
4.5e+06
4.5e+06
4.5e+06
4.5e+06
4.5e+06
4.5e+06
4.5e+06
4.5e+06
4.5e+06
4.5e+06
4.5e+06
4.5e+06
4.5e+06
4.5e+06
4.5e+06
4.5e+06
4.5e+06
4.5e+06
4.5e+06
4.5e+06
4.5e+06
4.5e+06
4.5e+06
4.5e+06
4.5e+06
4.5e+06
4.5e+06
4.5e+06
4.5e+06
4.5e+06
4.5e+06
4.5e+06
4.5e+06
4.5e+06
4.5e+06
4.5e+06
4.5e+06
4.5e+06
4.5e+06
4.5e+06
4.5e+06
4.5e+06
4.5e+06
4.5e+06
4.5e+06
4.5e+06
4.5e+06
4.5e+06
4.5e+06
4.5e+06
4.5e+06
4.5e+06
4.5e+06
4.5e+06
4.5e+06
4.5e+06
4.5e+06
4.5e+06
4.5e+06
4.5e+06
4.5e+06
4.5e+06
4.5e+06
4.5e+06
4.5e+06
4.5e+06
4.5e+06
4.5e+06
4.5e+06
4.5e+06
4.5e+06
4.5e+06
4.5e+06
4.5e+06
4.5e+06
4.5e+06
4.5e+06
4.5e+06
4.5e+06
4.5e+06
4.5e+06
4.5e+06
4.5e+06
4.5e+06
4.5e+06
4.5e+06
4.5e+06
4.5e+06
4.5e+06
4.5e+06
4.5e+06
4.5e+06
4.5e+06
4.5e+06
4.5e+06
4.5e+06
4.5e+06
4.5e+06
4.5e+06
4.5e+06
4.5e+06
4.5e+06
4.5e+06
4.5e+06
4.5e+06
4.5e+06
4.5e+06
4.5e+06
4.5e+06
4.5e+06
4.5e+06
4.5e+06
4.5e+06
4.5e+06
4.5e+06
4.5e+06
4.5e+06
4.5e+06
4.5e+06
4.5e+06
4.5e+06
4.5e+06
4.5e+06
4.5e+06
4.5e+06
4.5e+06
4.5e+06
4.5e+06
4.5e+06
4.5e+06
4.5e+06
4.5e+06
4.5e+06
4.5e+06
4.5e+06
4.5e+06
4.5e+06
4.5e+06
4.5e+06
4.5e+06
4.5e+06
4.5e+06
4.5e+06
4.5e+06
4.5e+06
4.5e+06
4.5e+06
4.5e+06
4.5e+06
4.5e+06
4.5e+06
4.5e+06
4.5e+06
4.5e+06
4.5e+06
4.5e+06
4.5e+06
4.5e+06
4.5e+06
4.5e+06
4.5e+06
4.5e+06
4.5e+06
4.5e+06
4.5e+06
4.5e+06
4.5e+06
4.5e+06
4.5e+06
4.5e+06
4.5e+06
4.5e+06
4.5e+06
4.5e+06
4.5e+06
4.5e+06
4.5e+06
4.5e+06
4.5e+06
4.5e+06
4.5e+06
4.5e+06
4.5e+06
4.5e+06
4.5e+06
4.5e+06
4.5e+06
4.5e+06
4.5e+06
4.5e+06
4.5e+06
4.5e+06
4.5e+06
4.5e+06
4.5e+06
4.5e+06
4.5e+06
4.5e+06
4.5e+06
4.5e+06
4.5e+06
4.5e+06
4.5e+06
4.5e+06
4.5e+06
4.5e+06
4.5e+06
4.5e+06
4.5e+06
4.5e+06
4.5e+06
4.5e+06
4.5e+06
4.5e+06
4.5e+06
4.5e+06
4.5e+06
4.5e+06
4.5e+06
4.5e+06
4.5e+06
4.5e+06
4.5e+06
4.5e+06
4.5e+06
4.5e+06
4.5e+06
4.5e+06
4.5e+06
4.5e+06
4.5e+06
4.5e+06
4.5e+06
4.5e+06
4.5e+06
4.5e+06
4.5e+06
4.5e+06
4.5e+06
4.5e+06
4.5e+06
4.5e+06
4.5e+06
4.5e+06
4.5e+06
4.5e+06
4.5e+06
4.5e+06
4.5e+06
4.5e+06
4.5e+06
4.5e+06
4.5e+06
4.5e+06
4.5e+06
4.5e+06
4.5e+06
4.5e+06
4.5e+06
4.5e+06
4.5e+06
4.5e+06
4.5e+06
4.5e+06
4.5e+06
4.5e+06
4.5e+06
4.5e+06
4.5e+06
4.5e+06
4.5e+06
4.5e+06
4.5e+06
4.5e+06
4.5e+06
4.5e+06
4.5e+06
4.5e+06
4.5e+06
4.5e+06
4.5e+06
4.5e+06
4.5e+06
4.5e+06
4.5e+06
4.5e+06
4.5e+06
3.50027e+06
3.50027e+06
3.50027e+06
3.50027e+06
3.50027e+06
3.50027e+06
3.50027e+06
3.50027e+06
3.50028e+06
3.50028e+06
3.50028e+06
3.50028e+06
3.50028e+06
3.50028e+06
3.50028e+06
3.50028e+06
3.50028e+06
3.50028e+06
3.50028e+06
3.50028e+06
3.50028e+06
3.50027e+06
3.50027e+06
3.50029e+06
3.50029e+06
3.50029e+06
3.50029e+06
3.50029e+06
3.50029e+06
3.50029e+06
3.50029e+06
3.50029e+06
3.5003e+06
3.5003e+06
3.50029e+06
3.50029e+06
3.50029e+06
3.50029e+06
3.50031e+06
3.50031e+06
3.50031e+06
3.50031e+06
3.50031e+06
3.50031e+06
3.50031e+06
3.50031e+06
3.50031e+06
3.50031e+06
3.50031e+06
3.50031e+06
3.5003e+06
3.5003e+06
3.5003e+06
3.50033e+06
3.50033e+06
3.50033e+06
3.50033e+06
3.50033e+06
3.50033e+06
3.50033e+06
3.50033e+06
3.50033e+06
3.50033e+06
3.50033e+06
3.50032e+06
3.50032e+06
3.50032e+06
3.50032e+06
3.50035e+06
3.50035e+06
3.50035e+06
3.50035e+06
3.50035e+06
3.50035e+06
3.50035e+06
3.50035e+06
3.50035e+06
3.50035e+06
3.50035e+06
3.50034e+06
3.50034e+06
3.50034e+06
3.50034e+06
3.50037e+06
3.50037e+06
3.50037e+06
3.50037e+06
3.50037e+06
3.50037e+06
3.50037e+06
3.50037e+06
3.50037e+06
3.50037e+06
3.50037e+06
3.50036e+06
3.50036e+06
3.50036e+06
3.50036e+06
3.5004e+06
3.5004e+06
3.5004e+06
3.5004e+06
3.5004e+06
3.5004e+06
3.5004e+06
3.5004e+06
3.5004e+06
3.5004e+06
3.5004e+06
3.50039e+06
3.50039e+06
3.50039e+06
3.50039e+06
3.50042e+06
3.50042e+06
3.50042e+06
3.50042e+06
3.50042e+06
3.50042e+06
3.50042e+06
3.50042e+06
3.50042e+06
3.50042e+06
3.50042e+06
3.50042e+06
3.50042e+06
3.50041e+06
3.50041e+06
3.50046e+06
3.50046e+06
3.50046e+06
3.50046e+06
3.50046e+06
3.50046e+06
3.50046e+06
3.50045e+06
3.50045e+06
3.50045e+06
3.50045e+06
3.50045e+06
3.50045e+06
3.50045e+06
3.50044e+06
3.50048e+06
3.50048e+06
3.50048e+06
3.50048e+06
3.50049e+06
3.50049e+06
3.50049e+06
3.50048e+06
3.50048e+06
3.50048e+06
3.50048e+06
3.50048e+06
3.50048e+06
3.50048e+06
3.50048e+06
3.50054e+06
3.50054e+06
3.50055e+06
3.50055e+06
3.50055e+06
3.50055e+06
3.50055e+06
3.50054e+06
3.50054e+06
3.50054e+06
3.50053e+06
3.50053e+06
3.50053e+06
3.50053e+06
3.50052e+06
3.50057e+06
3.50057e+06
3.50057e+06
3.50057e+06
3.50057e+06
3.50057e+06
3.50058e+06
3.50057e+06
3.50057e+06
3.50057e+06
3.50057e+06
3.50057e+06
3.50057e+06
3.50057e+06
3.50056e+06
3.50066e+06
3.50066e+06
3.50066e+06
3.50067e+06
3.50067e+06
3.50066e+06
3.50066e+06
3.50065e+06
3.50065e+06
3.50065e+06
3.50064e+06
3.50064e+06
3.50064e+06
3.50063e+06
3.50062e+06
3.50068e+06
3.50068e+06
3.50068e+06
3.50069e+06
3.50069e+06
3.50069e+06
3.50069e+06
3.50069e+06
3.50069e+06
3.50069e+06
3.50069e+06
3.50069e+06
3.50069e+06
3.50069e+06
3.50068e+06
3.50083e+06
3.50083e+06
3.50083e+06
3.50083e+06
3.50083e+06
3.50083e+06
3.50083e+06
3.50082e+06
3.50081e+06
3.50081e+06
3.5008e+06
3.50079e+06
3.50078e+06
3.50077e+06
3.50076e+06
3.50083e+06
3.50083e+06
3.50083e+06
3.50084e+06
3.50084e+06
3.50084e+06
3.50085e+06
3.50085e+06
3.50086e+06
3.50086e+06
3.50086e+06
3.50086e+06
3.50085e+06
3.50085e+06
3.50083e+06
3.50107e+06
3.50109e+06
3.50109e+06
3.50109e+06
3.50109e+06
3.50108e+06
3.50108e+06
3.50107e+06
3.50105e+06
3.50104e+06
3.50103e+06
3.50101e+06
3.50099e+06
3.50097e+06
3.50095e+06
3.50103e+06
3.50104e+06
3.50105e+06
3.50105e+06
3.50106e+06
3.50107e+06
3.50107e+06
3.50108e+06
3.50109e+06
3.50109e+06
3.50109e+06
3.50109e+06
3.50108e+06
3.50107e+06
3.50105e+06
3.50147e+06
3.50149e+06
3.5015e+06
3.5015e+06
3.50149e+06
3.50148e+06
3.50146e+06
3.50145e+06
3.50142e+06
3.5014e+06
3.50137e+06
3.50134e+06
3.5013e+06
3.50126e+06
3.50122e+06
3.50132e+06
3.50134e+06
3.50135e+06
3.50136e+06
3.50137e+06
3.50139e+06
3.5014e+06
3.50142e+06
3.50142e+06
3.50143e+06
3.50143e+06
3.50143e+06
3.50141e+06
3.50139e+06
3.50135e+06
3.50213e+06
3.50217e+06
3.50217e+06
3.50217e+06
3.50215e+06
3.50213e+06
3.50209e+06
3.50206e+06
3.50201e+06
3.50196e+06
3.5019e+06
3.50184e+06
3.50176e+06
3.50169e+06
3.50161e+06
3.50177e+06
3.5018e+06
3.50181e+06
3.50184e+06
3.50185e+06
3.50188e+06
3.50189e+06
3.50193e+06
3.50193e+06
3.50195e+06
3.50194e+06
3.50193e+06
3.50189e+06
3.50185e+06
3.50178e+06
3.50327e+06
3.50333e+06
3.50332e+06
3.50333e+06
3.50328e+06
3.50326e+06
3.50317e+06
3.50311e+06
3.50299e+06
3.5029e+06
3.50275e+06
3.50264e+06
3.50248e+06
3.50235e+06
3.5022e+06
3.50248e+06
3.50254e+06
3.50255e+06
3.50261e+06
3.50261e+06
3.50269e+06
3.50269e+06
3.50276e+06
3.50274e+06
3.50279e+06
3.50273e+06
3.50271e+06
3.50262e+06
3.50254e+06
3.5024e+06
3.50534e+06
3.50545e+06
3.50542e+06
3.50545e+06
3.50533e+06
3.50529e+06
3.50509e+06
3.50498e+06
3.5047e+06
3.50453e+06
3.5042e+06
3.50397e+06
3.50363e+06
3.50337e+06
3.50306e+06
3.50377e+06
3.50389e+06
3.50388e+06
3.50402e+06
3.50398e+06
3.50415e+06
3.50408e+06
3.50424e+06
3.50411e+06
3.5042e+06
3.504e+06
3.50397e+06
3.50371e+06
3.50927e+06
3.50952e+06
3.50941e+06
3.50951e+06
3.50921e+06
3.50919e+06
3.50869e+06
3.50853e+06
3.50783e+06
3.50751e+06
3.50669e+06
3.50625e+06
3.50547e+06
3.50638e+06
3.50668e+06
3.50658e+06
3.50691e+06
3.50671e+06
3.50708e+06
3.50675e+06
3.50709e+06
3.50657e+06
3.50675e+06
3.50607e+06
3.50603e+06
3.50533e+06
3.51711e+06
3.51767e+06
3.51739e+06
3.5177e+06
3.51698e+06
3.51706e+06
3.51583e+06
3.51559e+06
3.5138e+06
3.51321e+06
3.51107e+06
3.51023e+06
3.50835e+06
3.51233e+06
3.51307e+06
3.51276e+06
3.5135e+06
3.51282e+06
3.51361e+06
3.51242e+06
3.5131e+06
3.51124e+06
3.51164e+06
3.50932e+06
3.50942e+06
3.5075e+06
3.53357e+06
3.53481e+06
3.53415e+06
3.53492e+06
3.53329e+06
3.5337e+06
3.53067e+06
3.53045e+06
3.52562e+06
3.52463e+06
3.5185e+06
3.51711e+06
3.51245e+06
3.52728e+06
3.52898e+06
3.52813e+06
3.52963e+06
3.52764e+06
3.52914e+06
3.52535e+06
3.5266e+06
3.52031e+06
3.52132e+06
3.51332e+06
3.5146e+06
3.50947e+06
3.56882e+06
3.57125e+06
3.57e+06
3.57171e+06
3.56842e+06
3.56965e+06
3.56271e+06
3.56286e+06
3.54993e+06
3.54884e+06
3.52919e+06
3.52801e+06
3.5166e+06
3.56507e+06
3.56842e+06
3.5666e+06
3.56912e+06
3.56432e+06
3.56646e+06
3.55613e+06
3.55764e+06
3.53808e+06
3.54072e+06
3.51148e+06
3.52071e+06
3.50811e+06
3.64181e+06
3.64531e+06
3.64363e+06
3.6465e+06
3.64155e+06
3.64433e+06
3.63206e+06
3.63421e+06
3.60472e+06
3.60739e+06
3.53317e+06
3.53888e+06
3.51484e+06
3.65224e+06
3.65666e+06
3.65394e+06
3.65667e+06
3.64853e+06
3.65002e+06
3.62971e+06
3.6294e+06
3.57882e+06
3.58085e+06
3.46051e+06
3.52009e+06
3.49793e+06
3.76959e+06
3.77173e+06
3.77052e+06
3.77348e+06
3.77102e+06
3.77563e+06
3.77068e+06
3.77875e+06
3.76998e+06
3.78864e+06
3.80624e+06
3.80815e+06
3.80667e+06
3.80844e+06
3.80544e+06
3.80734e+06
3.8022e+06
3.80469e+06
3.79918e+06
3.80426e+06
3.91779e+06
3.91855e+06
3.91792e+06
3.91922e+06
3.91833e+06
3.92023e+06
3.91894e+06
3.92129e+06
3.91997e+06
3.92193e+06
3.97615e+06
3.97674e+06
3.97614e+06
3.97685e+06
3.97599e+06
3.97685e+06
3.97575e+06
3.97679e+06
3.97604e+06
3.97728e+06
4.06723e+06
4.06731e+06
4.06718e+06
4.06765e+06
4.06762e+06
4.0683e+06
4.06826e+06
4.06885e+06
4.06871e+06
4.06891e+06
4.14687e+06
4.14703e+06
4.14679e+06
4.14693e+06
4.14677e+06
4.14687e+06
4.14669e+06
4.14653e+06
4.14632e+06
4.14602e+06
4.21362e+06
4.21315e+06
4.21354e+06
4.21412e+06
4.21545e+06
4.21645e+06
4.21808e+06
4.21826e+06
4.21904e+06
4.21837e+06
4.3153e+06
4.31529e+06
4.31504e+06
4.31547e+06
4.31657e+06
4.31726e+06
4.31838e+06
4.31709e+06
4.3167e+06
4.31361e+06
4.34435e+06
4.34373e+06
4.34505e+06
4.34881e+06
4.35594e+06
4.36202e+06
4.36958e+06
4.36926e+06
4.37106e+06
4.36374e+06
4.47492e+06
4.46977e+06
4.46703e+06
4.47121e+06
4.48054e+06
4.49079e+06
4.49938e+06
4.49773e+06
4.49451e+06
4.46081e+06
4.47363e+06
4.47699e+06
4.48125e+06
4.48442e+06
4.48778e+06
4.49074e+06
4.49327e+06
4.49367e+06
4.49307e+06
4.47448e+06
4.48922e+06
4.48925e+06
4.48928e+06
4.489e+06
4.4886e+06
4.48803e+06
4.48778e+06
4.4877e+06
4.48813e+06
4.48855e+06
4.48794e+06
4.48754e+06
4.48807e+06
4.4883e+06
4.48895e+06
4.48938e+06
4.49001e+06
4.48968e+06
4.48952e+06
4.48788e+06
4.48908e+06
4.48907e+06
4.48905e+06
4.48895e+06
4.48891e+06
4.48884e+06
4.48886e+06
4.48884e+06
4.48884e+06
4.48886e+06
4.48939e+06
4.4893e+06
4.48939e+06
4.48939e+06
4.48953e+06
4.48956e+06
4.48968e+06
4.48958e+06
4.48956e+06
4.48937e+06
4.4896e+06
4.4896e+06
4.48959e+06
4.48957e+06
4.48958e+06
4.48957e+06
4.4896e+06
4.48959e+06
4.48959e+06
4.48958e+06
4.49008e+06
4.49006e+06
4.49008e+06
4.49007e+06
4.4901e+06
4.49009e+06
4.49012e+06
4.49009e+06
4.49009e+06
4.49006e+06
4.49027e+06
4.49027e+06
4.49027e+06
4.49027e+06
4.49027e+06
4.49027e+06
4.49029e+06
4.49029e+06
4.4903e+06
4.4903e+06
4.49071e+06
4.49071e+06
4.49071e+06
4.4907e+06
4.49072e+06
4.49071e+06
4.49072e+06
4.49071e+06
4.49071e+06
4.4907e+06
4.49096e+06
4.49096e+06
4.49096e+06
4.49096e+06
4.49097e+06
4.49097e+06
4.49098e+06
4.49098e+06
4.49098e+06
4.49098e+06
4.49135e+06
4.49135e+06
4.49135e+06
4.49134e+06
4.49136e+06
4.49135e+06
4.49135e+06
4.49135e+06
4.49135e+06
4.49135e+06
4.49164e+06
4.49164e+06
4.49163e+06
4.49163e+06
4.49165e+06
4.49165e+06
4.49165e+06
4.49165e+06
4.49165e+06
4.49165e+06
4.49201e+06
4.49201e+06
4.492e+06
4.492e+06
4.49201e+06
4.49201e+06
4.49201e+06
4.492e+06
4.492e+06
4.492e+06
4.49232e+06
4.49232e+06
4.4923e+06
4.4923e+06
4.49232e+06
4.49232e+06
4.49232e+06
4.49232e+06
4.49232e+06
4.49232e+06
4.49267e+06
4.49267e+06
4.49267e+06
4.49267e+06
4.49266e+06
4.49266e+06
4.49266e+06
4.49266e+06
4.49266e+06
4.49266e+06
4.49298e+06
4.49298e+06
4.49298e+06
4.49298e+06
4.49298e+06
4.49298e+06
4.49298e+06
4.49298e+06
4.49298e+06
4.49298e+06
4.49333e+06
4.49333e+06
4.49333e+06
4.49333e+06
4.49333e+06
4.49332e+06
4.49332e+06
4.49332e+06
4.49332e+06
4.49332e+06
4.49364e+06
4.49364e+06
4.49364e+06
4.49364e+06
4.49364e+06
4.49364e+06
4.49365e+06
4.49365e+06
4.49365e+06
4.49365e+06
4.49399e+06
4.49399e+06
4.49399e+06
4.49399e+06
4.49399e+06
4.49399e+06
4.49399e+06
4.49399e+06
4.49398e+06
4.49398e+06
4.4943e+06
4.4943e+06
4.4943e+06
4.4943e+06
4.4943e+06
4.4943e+06
4.4943e+06
4.49431e+06
4.49431e+06
4.49431e+06
4.49465e+06
4.49465e+06
4.49465e+06
4.49465e+06
4.49465e+06
4.49465e+06
4.49465e+06
4.49465e+06
4.49465e+06
4.49465e+06
4.49493e+06
4.49493e+06
4.49494e+06
4.49494e+06
4.49494e+06
4.49495e+06
4.49495e+06
4.49496e+06
4.49497e+06
4.49497e+06
4.49532e+06
4.49532e+06
4.49532e+06
4.49532e+06
4.49532e+06
4.49532e+06
4.49532e+06
4.49532e+06
4.49533e+06
4.49533e+06
4.49556e+06
4.49556e+06
4.49556e+06
4.49556e+06
4.49557e+06
4.49558e+06
4.49559e+06
4.4956e+06
4.49561e+06
4.49562e+06
4.49602e+06
4.49602e+06
4.49602e+06
4.49601e+06
4.49601e+06
4.496e+06
4.49601e+06
4.496e+06
4.49601e+06
4.49602e+06
4.49622e+06
4.49622e+06
4.49622e+06
4.49621e+06
4.49622e+06
4.49621e+06
4.49621e+06
4.49619e+06
4.49619e+06
4.49618e+06
4.49683e+06
4.49683e+06
4.49683e+06
4.49682e+06
4.49681e+06
4.49678e+06
4.49676e+06
4.49671e+06