/*--------------------------------*- C++ -*----------------------------------*\
| =========                 |                                                 |
| \\      /  F ield         | OpenFOAM: The Open Source CFD Toolbox           |
|  \\    /   O peration     | Version:  v2012                                 |
|   \\  /    A nd           | Website:  www.openfoam.com                      |
|    \\/     M anipulation  |                                                 |
\*---------------------------------------------------------------------------*/
FoamFile
{
    version     2.0;
    format      ascii;
    class       surfaceScalarField;
    location    "0.1";
    object      phi;
}
// * * * * * * * * * * * * * * * * * * * * * * * * * * * * * * * * * * * * * //

dimensions      [0 3 -1 0 0 0 0];
oriented        oriented;


internalField   nonuniform List<scalar> 
8048
(
8.5199e-17
-9.31373e-16
1.36353e-19
1.92452e-15
-2.01498e-14
4.00656e-18
1.07162e-14
-9.82318e-14
-1.67392e-18
3.63302e-14
-2.88011e-13
-2.06081e-17
9.48857e-14
-6.55266e-13
-1.5425e-19
2.08621e-13
-1.28002e-12
-2.35807e-17
4.08736e-13
-2.25672e-12
-1.09311e-16
-3.69636e-12
1.48007e-16
9.50774e-17
-1.02782e-15
-3.02826e-19
2.19492e-15
-2.22308e-14
2.79281e-18
1.23552e-14
-1.08362e-13
6.13582e-18
4.19419e-14
-3.17598e-13
3.55074e-18
1.08835e-13
-7.22291e-13
-1.15842e-17
2.38874e-13
-1.41023e-12
-1.14224e-17
4.66906e-13
-2.48498e-12
-9.23637e-18
8.38075e-13
-4.0677e-12
3.8109e-18
1.40844e-12
-6.29534e-12
7.30077e-17
2.24756e-12
-9.32327e-12
2.33392e-17
3.43992e-12
-1.33193e-11
6.09122e-16
5.061e-12
-1.8465e-11
-3.8216e-16
7.23024e-12
-2.49588e-11
1.85462e-16
1.00607e-11
-3.29956e-11
8.70524e-17
-4.27809e-11
9.16818e-17
1.0544e-16
-1.13643e-15
-5.10421e-19
2.47656e-15
-2.4581e-14
2.07462e-18
1.40799e-14
-1.19819e-13
1.56562e-17
4.78861e-14
-3.51194e-13
2.53614e-17
1.24302e-13
-7.98671e-13
1.26112e-17
2.72989e-13
-1.55891e-12
1.04006e-17
5.33597e-13
-2.74582e-12
-1.05406e-17
9.57741e-13
-4.49206e-12
-2.77805e-18
1.60868e-12
-6.94676e-12
-1.59507e-16
2.56589e-12
-1.0279e-11
-3.04166e-16
3.92459e-12
-1.46698e-11
3.1666e-16
5.76893e-12
-2.03157e-11
-5.77847e-16
8.23246e-12
-2.74248e-11
1.3847e-16
1.14405e-11
-3.62032e-11
4.01417e-17
-4.68642e-11
5.07845e-17
1.25264e-16
-1.26389e-15
-4.11653e-19
2.91156e-15
-2.73368e-14
3.05257e-18
1.64393e-14
-1.33204e-13
1.52735e-17
5.55892e-14
-3.90277e-13
1.06771e-17
1.43906e-13
-8.8713e-13
-5.54446e-18
3.15513e-13
-1.73055e-12
6.14619e-18
6.15711e-13
-3.04627e-12
-1.83709e-17
1.10333e-12
-4.97989e-12
-5.63823e-18
1.85057e-12
-7.69481e-12
-1.06014e-16
2.947e-12
-1.13747e-11
-2.43056e-16
4.49969e-12
-1.62156e-11
3.61612e-16
6.60569e-12
-2.24284e-11
-5.55247e-16
9.41212e-12
-3.02341e-11
1.35943e-16
1.30579e-11
-3.98488e-11
4.30975e-17
-5.14935e-11
4.80361e-17
1.44612e-16
-1.40775e-15
-6.45569e-20
3.29641e-15
-3.04586e-14
2.96251e-18
1.86727e-14
-1.48449e-13
1.40551e-17
6.34566e-14
-4.34984e-13
1.0731e-17
1.64904e-13
-9.88618e-13
2.73644e-18
3.62312e-13
-1.92791e-12
1.36071e-17
7.07849e-13
-3.39202e-12
-1.43788e-17
1.26923e-12
-5.54136e-12
5.88659e-18
2.12909e-12
-8.55523e-12
-7.28461e-17
3.38906e-12
-1.2634e-11
-2.01447e-16
5.16974e-12
-1.79896e-11
3.98685e-16
7.58321e-12
-2.48484e-11
-5.20768e-16
1.07916e-11
-3.34452e-11
1.57417e-16
1.49488e-11
-4.40056e-11
6.79778e-17
-5.67573e-11
7.78215e-17
1.71347e-16
-1.58026e-15
-2.94553e-19
3.9259e-15
-3.41831e-14
3.29792e-18
2.21189e-14
-1.66508e-13
1.49205e-17
7.48448e-14
-4.87602e-13
1.42193e-17
1.93688e-13
-1.10747e-12
5.91997e-18
4.23949e-13
-2.15815e-12
9.94673e-18
8.25773e-13
-3.79412e-12
-2.13629e-17
1.47691e-12
-6.19266e-12
9.82692e-19
2.47205e-12
-9.55098e-12
-7.94118e-17
3.92683e-12
-1.4088e-11
-2.06893e-16
5.97741e-12
-2.00335e-11
3.95136e-16
8.75267e-12
-2.76301e-11
-5.24143e-16
1.24319e-11
-3.7127e-11
1.54549e-16
1.71856e-11
-4.8759e-11
6.7458e-17
-6.27584e-11
9.04334e-17
1.97142e-16
-1.77435e-15
1.78036e-19
4.44757e-15
-3.83943e-14
4.352e-18
2.51787e-14
-1.87096e-13
1.65424e-17
8.57045e-14
-5.48028e-13
1.37233e-17
2.22862e-13
-1.24465e-12
1.96644e-18
4.89506e-13
-2.42476e-12
1.05918e-17
9.55653e-13
-4.26048e-12
-1.32761e-17
1.71129e-12
-6.94844e-12
-8.43651e-19
2.86563e-12
-1.0706e-11
-9.69732e-17
4.5511e-12
-1.57728e-11
-2.32627e-16
6.92197e-12
-2.23976e-11
3.64362e-16
1.01262e-11
-3.08409e-11
-5.42966e-16
1.43621e-11
-4.13656e-11
1.47904e-16
1.98183e-11
-5.42148e-11
6.47212e-17
-6.96233e-11
1.00952e-16
2.41688e-16
-2.01232e-15
2.42609e-19
5.41114e-15
-4.35395e-14
2.60327e-18
3.03788e-14
-2.11991e-13
8.89478e-18
1.02793e-13
-6.20367e-13
1.08696e-17
2.65758e-13
-1.40763e-12
3.69148e-18
5.80736e-13
-2.73965e-12
1.61687e-17
1.129e-12
-4.80889e-12
-6.53109e-18
2.01446e-12
-7.8338e-12
-2.46289e-17
3.36303e-12
-1.2055e-11
-1.50761e-16
5.3264e-12
-1.77347e-11
-2.87953e-16
8.07963e-12
-2.5143e-11
3.22325e-16
1.17926e-11
-3.45602e-11
-5.58242e-16
1.66851e-11
-4.62607e-11
1.49827e-16
2.29657e-11
-6.0495e-11
5.99143e-17
-7.7497e-11
9.99063e-17
2.76102e-16
-2.2779e-15
1.02959e-18
6.10189e-15
-4.93286e-14
4.01138e-18
3.45463e-14
-2.40356e-13
1.00926e-17
1.17929e-13
-7.03687e-13
1.00632e-17
3.0704e-13
-1.59682e-12
-2.5934e-18
6.74371e-13
-3.10691e-12
8.63361e-18
1.31568e-12
-5.45016e-12
3.21575e-18
2.35233e-12
-8.86937e-12
8.94521e-17
3.9313e-12
-1.36324e-11
9.06028e-17
6.22647e-12
-2.00266e-11
4.04351e-18
9.43681e-12
-2.83443e-11
5.71725e-16
1.37595e-11
-3.88878e-11
-3.99762e-16
1.94361e-11
-5.19394e-11
1.46227e-16
2.66959e-11
-6.77545e-11
5.86282e-17
-8.65616e-11
9.71691e-17
3.32031e-16
-2.61656e-15
-6.35176e-19
7.62594e-15
-5.66178e-14
5.14605e-19
4.28207e-14
-2.75496e-13
4.80278e-18
1.44646e-13
-8.05503e-13
1.46231e-18
3.7323e-13
-1.82542e-12
-7.28368e-19
8.13748e-13
-3.5472e-12
-3.519e-17
1.57972e-12
-6.21424e-12
1.27247e-16
2.8069e-12
-1.00996e-11
-2.36309e-16
4.6706e-12
-1.54988e-11
-8.96735e-17
7.36967e-12
-2.27281e-11
-1.81292e-16
1.11269e-11
-3.21041e-11
-1.98425e-16
1.61825e-11
-4.3945e-11
-1.27249e-16
2.2792e-11
-5.85496e-11
-1.63096e-17
3.12081e-11
-7.61703e-11
-1.28598e-17
-9.7024e-11
5.68401e-17
3.76222e-16
-2.98937e-15
5.16309e-19
8.52314e-15
-6.47426e-14
2.48656e-18
4.84879e-14
-3.15405e-13
5.64684e-18
1.65964e-13
-9.22996e-13
-6.08722e-19
4.3267e-13
-2.09225e-12
-1.0372e-17
9.50368e-13
-4.06473e-12
-4.92406e-17
1.85406e-12
-7.11589e-12
1.29618e-16
3.30518e-12
-1.15528e-11
-1.26843e-16
5.50902e-12
-1.77033e-11
1.53879e-16
8.69579e-12
-2.59154e-11
1.12924e-16
1.31207e-11
-3.65304e-11
5.38128e-17
1.90585e-11
-4.9883e-11
3.37235e-17
2.6791e-11
-6.62822e-11
-2.16211e-17
3.65932e-11
-8.59722e-11
-1.82574e-17
-1.09149e-10
5.57609e-17
4.96211e-16
-3.48276e-15
5.4476e-19
1.11082e-14
-7.53729e-14
-2.03239e-18
6.2034e-14
-3.66455e-13
-1.59267e-17
2.09171e-13
-1.07016e-12
-3.52787e-18
5.38191e-13
-2.42128e-12
-8.00179e-19
1.1694e-12
-4.69571e-12
-6.54047e-17
2.26186e-12
-8.20603e-12
1.19179e-16
4.00576e-12
-1.32985e-11
-1.60527e-16
6.63978e-12
-2.03376e-11
1.07887e-16
1.04308e-11
-2.97062e-11
5.92456e-17
1.56713e-11
-4.17713e-11
1.16016e-17
2.26726e-11
-5.68842e-11
2.39241e-17
3.17473e-11
-7.53572e-11
-2.18608e-17
4.31942e-11
-9.74186e-11
-2.06999e-17
-1.23233e-10
6.1898e-17
5.49278e-16
-4.01496e-15
2.15104e-18
1.2231e-14
-8.7045e-14
1.12649e-18
6.97251e-14
-4.24032e-13
-9.89224e-18
2.39584e-13
-1.24008e-12
-6.68619e-18
6.25545e-13
-2.80734e-12
-1.2765e-17
1.37363e-12
-5.44322e-12
-2.26441e-17
2.67538e-12
-9.50486e-12
1.99557e-16
4.75978e-12
-1.53847e-11
-1.49575e-16
7.90835e-12
-2.34866e-11
8.63305e-17
1.24335e-11
-3.42312e-11
3.48534e-17
1.86722e-11
-4.80102e-11
-7.78706e-18
2.69754e-11
-6.51873e-11
1.37215e-17
3.76873e-11
-8.60694e-11
-2.67734e-17
5.11258e-11
-1.10857e-10
-2.3802e-17
-1.39665e-10
6.10057e-17
7.40526e-16
-4.76132e-15
-8.47119e-19
1.67404e-14
-1.03057e-13
2.86986e-18
9.30556e-14
-5.00464e-13
-2.15405e-18
3.12503e-13
-1.45933e-12
-9.54808e-18
8.01002e-13
-3.29494e-12
3.02196e-17
1.73078e-12
-6.37412e-12
-1.02836e-16
3.32969e-12
-1.11046e-11
-9.75595e-18
5.87499e-12
-1.793e-11
6.31427e-18
9.69063e-12
-2.73021e-11
1.40611e-17
1.51405e-11
-3.96811e-11
8.63109e-18
2.26117e-11
-5.54815e-11
-8.5316e-18
3.24992e-11
-7.50748e-11
1.54673e-17
4.51806e-11
-9.87513e-11
-2.58354e-17
6.09915e-11
-1.26667e-10
-2.20356e-17
-1.58869e-10
5.8078e-17
7.98595e-16
-5.5445e-15
1.54703e-18
1.80655e-14
-1.203e-13
7.02093e-18
1.0344e-13
-5.859e-13
5.35418e-18
3.56675e-13
-1.71228e-12
1.29501e-18
9.32684e-13
-3.86989e-12
4.69489e-17
2.04471e-12
-7.48689e-12
-5.68172e-17
3.97161e-12
-1.30316e-11
6.86071e-17
7.05012e-12
-2.10083e-11
2.72807e-17
1.16676e-11
-3.19194e-11
2.13195e-17
1.82524e-11
-4.62658e-11
1.94756e-17
2.72494e-11
-6.44787e-11
-1.53655e-18
3.91009e-11
-8.69262e-11
1.74978e-17
5.42127e-11
-1.13863e-10
-3.43746e-17
7.29257e-11
-1.45379e-10
-2.84161e-17
-1.81422e-10
5.61264e-17
1.17251e-15
-6.71172e-15
5.76424e-19
2.6169e-14
-1.4533e-13
-3.80465e-18
1.44712e-13
-7.0457e-13
-1.48598e-17
4.82939e-13
-2.0506e-12
-1.27143e-17
1.23042e-12
-4.61745e-12
-5.89312e-18
2.64769e-12
-8.90417e-12
-5.93958e-18
5.06687e-12
-1.54505e-11
2.76387e-17
8.88926e-12
-2.48306e-11
9.52194e-18
1.45714e-11
-3.76014e-11
3.09764e-17
2.26116e-11
-5.43061e-11
2.32641e-17
3.35169e-11
-7.53846e-11
-1.91624e-17
4.77792e-11
-1.01188e-10
2.03711e-17
6.58298e-11
-1.31914e-10
-4.52315e-17
8.80065e-11
-1.67555e-10
-3.33151e-17
-2.07925e-10
7.05713e-17
1.22337e-15
-7.89634e-15
4.40147e-18
2.75808e-14
-1.7167e-13
1.8425e-18
1.58791e-13
-8.35854e-13
-8.18709e-18
5.49014e-13
-2.4408e-12
3.5532e-18
1.4361e-12
-5.50445e-12
1.43823e-17
3.14839e-12
-1.06164e-11
-6.62112e-18
6.10022e-12
-1.8402e-11
2.31989e-17
1.07863e-11
-2.95165e-11
1.18593e-17
1.77578e-11
-4.45724e-11
4.22584e-17
2.76033e-11
-6.41515e-11
3.27387e-17
4.09013e-11
-8.86828e-11
9.5168e-18
5.81905e-11
-1.18477e-10
3.99558e-17
7.99096e-11
-1.53633e-10
-1.00895e-17
1.06363e-10
-1.94008e-10
-3.40166e-19
-2.39231e-10
6.64589e-17
1.86754e-15
-9.80682e-15
-4.0518e-18
4.25547e-14
-2.12431e-13
-6.68621e-18
2.34105e-13
-1.02755e-12
-2.03114e-17
7.76637e-13
-2.98348e-12
-2.2588e-17
1.96649e-12
-6.69432e-12
-1.25121e-17
4.20611e-12
-1.28562e-11
-2.58095e-17
7.99677e-12
-2.21924e-11
1.47634e-17
1.39318e-11
-3.54515e-11
-1.91262e-18
2.26607e-11
-5.33011e-11
1.49138e-17
3.4866e-11
-7.63572e-11
-1.51963e-17
5.11962e-11
-1.05013e-10
9.10553e-18
7.22302e-11
-1.39511e-10
-3.21126e-17
9.83994e-11
-1.79803e-10
-1.17022e-17
1.29952e-10
-2.2556e-10
-6.70119e-18
-2.76167e-10
6.83604e-18
1.88103e-15
-1.16787e-14
1.85372e-18
4.37976e-14
-2.54336e-13
2.52255e-18
2.53822e-13
-1.23761e-12
-5.68344e-18
8.80733e-13
-3.61045e-12
-1.09139e-17
2.3046e-12
-8.11818e-12
-1.23072e-17
5.04434e-12
-1.5596e-11
-1.59235e-17
9.73722e-12
-2.68848e-11
3.00802e-17
1.71264e-11
-4.28405e-11
1.29351e-17
2.80013e-11
-6.41756e-11
1.97016e-17
4.31675e-11
-9.15234e-11
-9.09413e-18
6.33469e-11
-1.25192e-10
3.45366e-17
8.9141e-11
-1.65305e-10
-1.73608e-17
1.20924e-10
-2.11587e-10
2.28987e-17
1.5882e-10
-2.63456e-10
2.98236e-17
-3.19973e-10
1.81535e-17
3.228e-15
-1.49359e-14
-2.37728e-18
7.25617e-14
-3.23782e-13
-1.13707e-17
3.9589e-13
-1.56141e-12
-5.55041e-17
1.30545e-12
-4.52035e-12
-4.20797e-17
3.28279e-12
-1.00957e-11
-1.95632e-17
6.97314e-12
-1.92866e-11
-4.3788e-17
1.31542e-11
-3.30656e-11
1.46435e-17
2.27226e-11
-5.2409e-11
-7.28045e-18
3.66032e-11
-7.8056e-11
4.06984e-18
5.57171e-11
-1.10638e-10
-2.21775e-17
8.08368e-11
-1.50312e-10
1.42643e-17
1.12557e-10
-1.97026e-10
-2.14397e-17
1.51147e-10
-2.50177e-10
1.12386e-17
1.9655e-10
-3.08859e-10
2.61261e-17
-3.71712e-10
4.00165e-17
3.15017e-15
-1.80311e-14
7.02817e-18
7.33334e-14
-3.93943e-13
2.66015e-18
4.2637e-13
-1.91473e-12
-3.16283e-17
1.48409e-12
-5.57821e-12
-2.01605e-17
3.87964e-12
-1.24912e-11
-7.06472e-18
8.46605e-12
-2.3873e-11
-1.51777e-17
1.62516e-11
-4.08503e-11
5.13429e-17
2.83771e-11
-6.45341e-11
2.94631e-17
4.59664e-11
-9.56448e-11
2.28706e-17
7.00929e-11
-1.34764e-10
-2.52063e-19
1.01558e-10
-1.81777e-10
1.98349e-17
1.40889e-10
-2.36356e-10
-1.88148e-17
1.88128e-10
-2.97416e-10
8.42354e-18
2.42901e-10
-3.6363e-10
1.54458e-17
-4.33101e-10
2.85076e-17
5.79219e-15
-2.38649e-14
-4.16532e-18
1.29865e-13
-5.18122e-13
-6.70475e-18
7.03375e-13
-2.48868e-12
-4.88279e-17
2.30516e-12
-7.1803e-12
-4.63496e-17
5.7538e-12
-1.59399e-11
-3.18119e-17
1.21284e-11
-3.02481e-11
-6.21277e-17
2.26693e-11
-5.13912e-11
-3.94715e-18
3.87574e-11
-8.06224e-11
-1.60388e-17
6.16817e-11
-1.18569e-10
-1.30037e-17
9.26227e-11
-1.65706e-10
-3.60571e-17
1.32323e-10
-2.21478e-10
2.37479e-18
1.81152e-10
-2.85184e-10
-4.55825e-17
2.38795e-10
-3.5506e-10
-2.6598e-18
3.04449e-10
-4.29284e-10
3.04644e-18
-5.05289e-10
1.26764e-17
5.55534e-15
-2.93219e-14
1.14262e-17
1.30677e-13
-6.43135e-13
1.57186e-17
7.60965e-13
-3.1191e-12
-1.33815e-17
2.65092e-12
-9.07013e-12
4.96174e-19
6.90653e-12
-2.0195e-11
1.65934e-17
1.49931e-11
-3.83344e-11
2.11809e-18
2.85489e-11
-6.49462e-11
6.24813e-17
4.93533e-11
-1.01426e-10
5.05503e-17
7.89446e-11
-1.4816e-10
2.50763e-17
1.18636e-10
-2.05397e-10
2.82813e-18
1.69003e-10
-2.71845e-10
2.85368e-17
2.30092e-10
-3.46271e-10
-1.20986e-17
3.00958e-10
-4.25927e-10
2.73537e-17
3.80106e-10
-5.08431e-10
2.2199e-17
-5.90394e-10
1.49135e-17
1.0914e-14
-4.0288e-14
-5.00388e-18
2.44455e-13
-8.76825e-13
-1.33233e-17
1.31599e-12
-4.19132e-12
-7.89745e-17
4.29218e-12
-1.20468e-11
-6.77577e-17
1.06373e-11
-2.65405e-11
-4.84161e-17
2.22438e-11
-4.99412e-11
-4.88394e-17
4.114e-11
-8.38423e-11
2.78488e-18
6.94689e-11
-1.29755e-10
-1.95509e-17
1.08888e-10
-1.87579e-10
-4.80661e-17
1.60682e-10
-2.57192e-10
-6.54731e-17
2.24986e-10
-3.36149e-10
-1.21561e-17
3.01282e-10
-4.22566e-10
-6.06043e-17
3.87695e-10
-5.12342e-10
-2.04366e-18
4.81861e-10
-6.02597e-10
-1.18772e-17
-6.88984e-10
-1.97748e-17
1.05487e-14
-5.06437e-14
2.25469e-17
2.50261e-13
-1.11634e-12
2.3745e-17
1.4545e-12
-5.39567e-12
-1.65262e-17
5.05706e-12
-1.56491e-11
1.83713e-17
1.30951e-11
-3.4578e-11
3.96173e-17
2.82082e-11
-6.50533e-11
7.11942e-17
5.31161e-11
-1.08748e-10
1.40864e-16
9.05876e-11
-1.67226e-10
1.21712e-16
1.42454e-10
-2.39444e-10
6.43656e-17
2.09905e-10
-3.24643e-10
4.59061e-17
2.92267e-10
-4.1851e-10
3.74853e-17
3.88072e-10
-5.18369e-10
-2.21162e-17
4.93935e-10
-6.18204e-10
-6.8008e-18
6.06212e-10
-7.14873e-10
-9.65462e-18
-8.02933e-10
-2.38482e-17
2.15374e-14
-7.23351e-14
-1.66346e-17
4.84362e-13
-1.57946e-12
-2.84287e-17
2.59882e-12
-7.5112e-12
-1.25238e-16
8.45242e-12
-2.15033e-11
-7.65995e-17
2.08213e-11
-4.6947e-11
-3.61238e-17
4.31948e-11
-8.74276e-11
-9.00527e-17
7.89481e-11
-1.44502e-10
-5.26444e-17
1.31334e-10
-2.19613e-10
-7.09059e-17
2.01917e-10
-3.10028e-10
-1.2543e-16
2.91283e-10
-4.14012e-10
-8.25142e-17
3.97148e-10
-5.24376e-10
-8.61116e-17
5.16561e-10
-6.37781e-10
-8.22835e-17
6.4402e-10
-7.45665e-10
-3.64282e-18
7.74501e-10
-6.03515e-17
-3.36383e-18
2.1612e-14
-9.36959e-14
2.92194e-17
5.174e-13
-2.07495e-12
3.45823e-17
2.99093e-12
-9.98474e-12
-9.92284e-18
1.03445e-11
-2.88559e-11
8.34296e-17
2.6558e-11
-6.31587e-11
1.44682e-16
5.66175e-11
-1.17485e-10
1.42895e-16
1.0507e-10
-1.92952e-10
1.7538e-16
1.7601e-10
-2.90551e-10
1.58441e-16
2.70513e-10
-4.04529e-10
3.2364e-17
3.8814e-10
-5.31638e-10
7.4821e-17
5.23905e-10
-6.6014e-10
2.32663e-18
6.7265e-10
-7.86522e-10
-2.15632e-17
-8.9871e-10
2.97204e-17
4.47156e-14
-1.38607e-13
-2.16523e-17
1.00694e-12
-3.03742e-12
-2.58584e-17
5.40538e-12
-1.43843e-11
-1.32591e-16
1.75797e-11
-4.10309e-11
-7.89965e-17
4.31415e-11
-8.8721e-11
-3.28072e-17
8.8853e-11
-1.63197e-10
-3.84281e-17
1.60301e-10
-2.64401e-10
-1.15415e-16
2.6189e-10
-3.92141e-10
-1.08549e-16
3.92786e-10
-5.35427e-10
-2.00993e-16
5.49997e-10
-6.88853e-10
-1.74254e-16
7.23619e-10
-8.33765e-10
-1.26043e-16
9.05433e-10
-9.68334e-10
-2.01202e-16
-1.07598e-09
-7.10438e-17
4.80096e-14
-1.86133e-13
5.46139e-17
1.14634e-12
-4.13491e-12
8.16048e-17
6.57589e-12
-1.98132e-11
7.4564e-17
2.2567e-11
-5.70201e-11
1.96173e-16
5.73849e-11
-1.23536e-10
2.76778e-16
1.2084e-10
-2.26649e-10
3.33569e-16
2.2031e-10
-3.63869e-10
1.71836e-16
3.60671e-10
-5.32501e-10
2.11366e-16
5.37807e-10
-7.1256e-10
3.74231e-17
7.44629e-10
-8.95676e-10
4.11742e-17
9.63407e-10
-1.05254e-09
3.86078e-17
1.1823e-09
-1.18722e-09
-7.31389e-17
-1.27692e-09
1.16173e-16
9.59495e-14
-2.82292e-13
-4.03746e-17
2.16312e-12
-6.20276e-12
-2.60681e-17
1.16904e-11
-2.93441e-11
-3.9236e-16
3.81769e-11
-8.35074e-11
-8.57126e-17
9.36903e-11
-1.79051e-10
-1.6558e-16
1.91805e-10
-3.24766e-10
-2.10992e-16
3.41261e-10
-5.13328e-10
-4.25133e-16
5.45561e-10
-7.36806e-10
-3.02624e-16
7.92996e-10
-9.59997e-10
-2.5901e-16
1.06803e-09
-1.17072e-09
-4.38049e-16
1.33909e-09
-1.32361e-09
-1.61735e-16
1.59101e-09
-1.43914e-09
-3.46284e-16
-1.4864e-09
6.75969e-17
1.12001e-13
-3.93441e-13
7.76851e-17
2.64451e-12
-8.73423e-12
1.42717e-16
1.50704e-11
-4.17707e-11
-7.61301e-17
5.13034e-11
-1.19737e-10
3.54576e-16
1.29356e-10
-2.57101e-10
3.25258e-16
2.688e-10
-4.64205e-10
4.29857e-16
4.80335e-10
-7.24858e-10
2.07891e-16
7.64826e-10
-1.0213e-09
1.30699e-16
1.09801e-09
-1.29317e-09
2.84684e-17
1.45136e-09
-1.52408e-09
-2.49963e-16
1.7723e-09
-1.64454e-09
6.40698e-17
2.0467e-09
-1.71352e-09
-2.45364e-16
-1.68657e-09
3.70981e-16
2.05078e-13
-5.98972e-13
-6.76104e-17
4.63357e-12
-1.31629e-11
3.83518e-18
2.54083e-11
-6.2548e-11
-2.66306e-16
8.36891e-11
-1.78021e-10
-3.22236e-16
2.06282e-10
-3.79702e-10
-7.13157e-16
4.20339e-10
-6.78269e-10
-5.2521e-16
7.3765e-10
-1.04218e-09
-1.31702e-15
1.1513e-09
-1.43496e-09
-6.5405e-16
1.61341e-09
-1.75529e-09
-1.05568e-15
2.07019e-09
-1.98088e-09
-1.58451e-15
2.43002e-09
-2.00438e-09
-4.73625e-16
2.69115e-09
-1.97464e-09
-1.03544e-15
-1.82539e-09
4.35039e-17
2.58469e-13
-8.56213e-13
1.20274e-16
5.98921e-12
-1.88914e-11
2.52889e-16
3.39866e-11
-9.0544e-11
1.61303e-16
1.14799e-10
-2.58831e-10
2.86489e-16
2.87441e-10
-5.52343e-10
5.06582e-17
5.89294e-10
-9.80121e-10
3.19401e-16
1.03264e-09
-1.48553e-09
-3.11192e-16
1.59762e-09
-1.99993e-09
3.79428e-16
2.20013e-09
-2.35777e-09
5.63259e-16
2.74796e-09
-2.52871e-09
-1.88683e-16
3.09277e-09
-2.34916e-09
1.86068e-15
3.28185e-09
-2.16368e-09
1.11266e-15
-1.85059e-09
1.90742e-15
4.02908e-13
-1.2598e-12
-9.78607e-17
9.09752e-12
-2.75859e-11
5.00162e-17
5.09731e-11
-1.32422e-10
-2.59371e-16
1.69868e-10
-3.77729e-10
-2.20937e-16
4.2182e-10
-8.04306e-10
-1.00559e-15
8.57205e-10
-1.41552e-09
-1.26227e-15
1.49139e-09
-2.11973e-09
-1.61051e-15
2.28462e-09
-2.79321e-09
-2.81057e-15
3.10158e-09
-3.17475e-09
-1.51205e-15
3.77181e-09
-3.199e-09
-3.81472e-15
4.01798e-09
-2.59535e-09
-1.77406e-16
4.01142e-09
-2.15714e-09
-1.09021e-15
-1.64929e-09
-1.5413e-15
5.23996e-13
-1.78222e-12
1.56946e-16
1.17888e-11
-3.88474e-11
3.73529e-16
6.64468e-11
-1.87078e-10
2.55541e-16
2.2178e-10
-5.33057e-10
5.35915e-16
5.50826e-10
-1.13335e-09
1.59126e-16
1.11571e-09
-1.98041e-09
-1.18905e-16
1.93329e-09
-2.9373e-09
2.63345e-16
2.93653e-09
-3.79646e-09
-8.46433e-16
3.92234e-09
-4.16051e-09
1.92579e-15
4.59256e-09
-3.86925e-09
-1.52322e-15
4.50564e-09
-2.50837e-09
4.17595e-15
4.1698e-09
-1.82128e-09
2.34731e-15
-1.20031e-09
1.22313e-15
5.8677e-13
-2.37012e-12
-1.30272e-16
1.32444e-11
-5.15047e-11
4.41655e-17
7.5987e-11
-2.49822e-10
-1.73257e-16
2.55673e-10
-7.12746e-10
-2.81703e-16
6.40136e-10
-1.51783e-09
-1.12328e-15
1.30381e-09
-2.6441e-09
-1.7726e-15
2.28682e-09
-3.92033e-09
-2.00173e-15
3.51629e-09
-5.02599e-09
-4.31903e-15
4.80241e-09
-5.44664e-09
-1.65811e-15
5.57546e-09
-4.64244e-09
-8.10893e-15
4.90687e-09
-1.83975e-09
4.29321e-15
4.00309e-09
-9.17526e-10
1.24604e-15
-4.40838e-10
8.18532e-16
7.04724e-13
-3.07363e-12
1.39732e-16
1.51315e-11
-6.59281e-11
3.61576e-16
8.2993e-11
-3.17679e-10
5.48596e-16
2.68486e-10
-8.98232e-10
6.79811e-16
6.54599e-10
-1.90394e-09
5.57486e-16
1.30472e-09
-3.29421e-09
2.77588e-16
2.25555e-09
-4.87113e-09
2.03646e-15
3.39451e-09
-6.16497e-09
-9.62469e-16
4.48233e-09
-6.53437e-09
4.66106e-15
4.4668e-09
-4.62697e-09
-4.33043e-15
2.62731e-09
1.43903e-14
1.70979e-09
6.89358e-15
4.18119e-15
2.65146e-13
-3.33952e-12
-8.71205e-17
6.3881e-12
-7.20539e-11
-3.34264e-16
3.81216e-11
-3.49415e-10
-2.37711e-16
1.2995e-10
-9.90065e-10
-4.6065e-16
3.20066e-10
-2.09406e-09
-3.38924e-16
6.20348e-10
-3.59452e-09
-2.05841e-15
9.85621e-10
-5.23641e-09
-1.02234e-15
1.25652e-09
-6.43591e-09
-3.1264e-15
1.11746e-09
-6.39533e-09
-4.39024e-16
-3.50962e-09
-6.71723e-15
2.11587e-13
-3.55079e-12
5.92994e-17
4.69945e-12
-7.65407e-11
4.17821e-17
2.48482e-11
-3.69559e-10
4.97819e-16
7.75939e-11
-1.04281e-09
5.41717e-16
1.75975e-10
-2.19243e-09
1.23357e-15
3.15565e-10
-3.7341e-09
6.37601e-16
4.46658e-10
-5.36749e-09
1.71245e-15
4.85362e-10
-6.4746e-09
1.33738e-15
2.91056e-10
-6.20099e-09
2.09921e-15
-3.21854e-09
3.56584e-16
5.422e-14
-3.60585e-12
-1.09805e-16
1.40755e-12
-7.78971e-11
-3.46982e-16
8.12872e-12
-3.76284e-10
-4.80594e-16
2.69399e-11
-1.06162e-09
-5.26476e-17
6.18906e-11
-2.22738e-09
-4.91029e-16
1.10149e-10
-3.78238e-09
-1.52607e-15
1.49001e-10
-5.40635e-09
-8.8999e-16
1.5278e-10
-6.4784e-09
-2.19757e-15
8.15158e-11
-6.12975e-09
-1.34559e-15
-3.13707e-09
-2.94557e-15
3.95324e-14
-3.64522e-12
3.94882e-17
8.92582e-13
-7.87495e-11
1.85819e-17
4.21564e-12
-3.79606e-10
2.16343e-16
1.22823e-11
-1.06968e-09
3.73742e-16
2.51985e-11
-2.24029e-09
9.44202e-16
4.14017e-11
-3.79857e-09
6.34571e-16
5.04144e-11
-5.41535e-09
1.42577e-15
4.55169e-11
-6.47349e-09
1.4036e-15
1.69801e-11
-6.10118e-09
1.22501e-15
-3.12006e-09
1.19398e-15
-1.53995e-14
-3.63076e-12
-7.55805e-17
-2.20476e-13
-7.85477e-11
-3.90479e-16
-8.18027e-13
-3.79012e-10
-4.78783e-16
-1.29453e-12
-1.06921e-09
2.88265e-16
-1.04441e-12
-2.24055e-09
-6.18113e-16
1.50787e-12
-3.80113e-09
-5.46277e-16
4.74791e-12
-5.4186e-09
-7.8812e-16
7.46017e-12
-6.47622e-09
-1.73581e-15
4.52066e-12
-6.09827e-09
-1.20304e-15
-3.11557e-09
-2.19633e-15
1.83179e-15
-3.6325e-12
6.36055e-17
-7.89961e-14
-7.84672e-11
-1.18155e-16
-1.27381e-12
-3.77816e-10
2.68901e-16
-4.64567e-12
-1.06583e-09
3.83138e-16
-9.55025e-12
-2.23564e-09
3.74105e-16
-1.19025e-11
-3.79876e-09
1.47811e-15
-8.99712e-12
-5.4215e-09
4.79789e-16
-2.00089e-12
-6.48321e-09
1.15244e-15
2.87417e-12
-6.10313e-09
6.68767e-16
-3.11269e-09
7.77307e-16
-1.03502e-13
-3.53036e-12
-4.34474e-17
-2.065e-12
-7.65101e-11
-4.87878e-16
-1.00089e-11
-3.69876e-10
-7.08189e-16
-2.6227e-11
-1.04961e-09
-2.77856e-16
-4.63144e-11
-2.21555e-09
5.34103e-17
-5.86002e-11
-3.78648e-09
-3.01747e-16
-5.25986e-11
-5.42751e-09
-2.05607e-16
-3.16574e-11
-6.50417e-09
-1.08655e-15
-7.10713e-12
-6.1277e-09
-8.21036e-16
-3.11981e-09
-7.13702e-16
-1.37843e-14
-3.51714e-12
-1.01279e-18
-1.12794e-12
-7.53973e-11
-2.81787e-16
-9.18555e-12
-3.61816e-10
1.37406e-16
-2.94914e-11
-1.0293e-09
6.47091e-16
-5.64894e-11
-2.18855e-09
7.66486e-16
-7.18662e-11
-3.7711e-09
1.28425e-15
-6.03506e-11
-5.43902e-09
5.87417e-16
-2.57006e-11
-6.5388e-09
5.5758e-16
9.94251e-12
-6.16333e-09
5.94952e-16
-3.10985e-09
7.48252e-16
-6.62503e-14
-3.45256e-12
2.65641e-16
-2.70388e-12
-7.27628e-11
-3.31984e-16
-1.71354e-11
-3.47385e-10
-3.41524e-16
-5.14477e-11
-9.95e-10
-1.42913e-15
-1.02155e-10
-2.13784e-09
8.77998e-16
-1.48887e-10
-3.72436e-09
6.60109e-16
-1.71422e-10
-5.4165e-09
-1.15936e-15
-1.55744e-10
-6.55448e-09
8.5492e-16
-8.85107e-11
-6.2306e-09
-4.20595e-15
-3.19839e-09
-1.74934e-15
6.16665e-12
-9.60804e-12
-5.09475e-15
4.85019e-11
-1.15092e-10
2.12342e-15
1.36333e-10
-4.35204e-10
6.49477e-15
2.27596e-10
-1.08625e-09
-3.16925e-15
2.45425e-10
-2.15572e-09
2.18497e-15
1.19215e-10
-3.59828e-09
-2.53154e-15
-1.83741e-10
-5.11371e-09
-1.56491e-17
-5.07831e-10
-6.23045e-09
-1.49973e-15
-7.13286e-10
-6.02503e-09
-1.56665e-15
-3.91122e-09
4.74904e-15
1.86199e-11
-2.78522e-11
5.10075e-14
2.73523e-10
-3.69696e-10
3.29764e-14
8.50621e-10
-1.01151e-09
9.22051e-14
1.4892e-09
-1.72498e-09
-1.1799e-14
1.76434e-09
-2.43097e-09
-1.45733e-14
1.22199e-09
-3.05749e-09
-1.93449e-13
-3.9386e-10
-3.49953e-09
-2.22149e-13
-2.7535e-09
-3.87153e-09
-1.08976e-13
-4.45661e-09
-4.32478e-09
-2.46484e-13
-8.36221e-09
5.91984e-13
-6.80932e-12
-2.11441e-11
-1.35932e-14
-5.17269e-11
-3.25144e-10
-3.96889e-14
-1.24856e-10
-9.38737e-10
-3.84656e-14
-1.54616e-10
-1.69541e-09
-1.44935e-14
-9.58785e-11
-2.48947e-09
2.37039e-14
5.17571e-11
-3.20424e-09
7.93575e-14
2.74506e-10
-3.72137e-09
7.06047e-14
6.26333e-10
-4.22283e-09
2.46528e-14
1.14448e-09
-4.84326e-09
-2.93257e-14
-7.21927e-09
-3.09297e-15
-1.62777e-11
-4.88831e-12
-2.67579e-15
-2.30402e-10
-1.11028e-10
-1.14132e-15
-6.96526e-10
-4.72622e-10
-1.7388e-15
-1.17748e-09
-1.21448e-09
-8.16066e-15
-1.36401e-09
-2.30297e-09
-4.98868e-15
-9.17632e-10
-3.65093e-09
-2.73972e-14
3.05613e-10
-4.94534e-09
-4.53337e-14
2.12654e-09
-6.04407e-09
8.86598e-15
3.29374e-09
-6.01089e-09
-7.17754e-15
-3.92478e-09
9.08711e-14
2.32793e-13
-5.14556e-12
-2.89946e-15
2.06031e-13
-1.11085e-10
-1.00548e-14
-7.86016e-12
-4.64603e-10
-5.05777e-15
-3.62635e-11
-1.18603e-09
6.24922e-15
-6.12456e-11
-2.27788e-09
1.13586e-14
-2.8499e-11
-3.68353e-09
1.06522e-14
1.17733e-10
-5.09171e-09
-1.37151e-14
2.53005e-10
-6.17967e-09
-2.77616e-14
2.4864e-10
-6.00716e-09
-5.28999e-14
-3.67732e-09
-8.34106e-14
-1.38126e-12
-3.77346e-12
-1.11651e-15
-2.87619e-11
-8.37049e-11
3.30223e-16
-9.71686e-11
-3.96269e-10
-6.60035e-15
-1.79868e-10
-1.10339e-09
-4.72988e-15
-2.04263e-10
-2.2535e-09
1.62587e-14
-1.16608e-10
-3.7719e-09
-5.0543e-14
1.10118e-10
-5.31774e-09
5.83718e-14
3.35136e-10
-6.40405e-09
1.32778e-14
4.23596e-10
-6.09485e-09
4.93027e-14
-3.25258e-09
8.60958e-14
1.11265e-13
-3.88642e-12
-2.52299e-16
9.49346e-13
-8.45497e-11
-1.01824e-15
1.06026e-14
-3.95336e-10
1.67482e-16
-7.99419e-12
-1.09531e-09
1.12952e-14
-1.35863e-11
-2.24782e-09
3.15709e-14
-6.28085e-12
-3.77995e-09
-5.29017e-14
2.84985e-11
-5.35193e-09
3.8403e-14
5.32297e-11
-6.42843e-09
-3.54295e-14
4.70113e-11
-6.0883e-09
-1.89873e-14
-3.20525e-09
-2.84575e-14
-1.55171e-13
-3.73469e-12
-4.81559e-16
-3.65205e-12
-8.10533e-11
-3.29986e-17
-1.20396e-11
-3.87008e-10
-5.01296e-15
-2.28898e-11
-1.08447e-09
2.07169e-15
-2.19507e-11
-2.24877e-09
2.49548e-14
-6.50768e-12
-3.79626e-09
-5.45297e-14
3.12124e-11
-5.38921e-09
3.97126e-14
5.70263e-11
-6.45409e-09
-2.84817e-14
6.1336e-11
-6.0926e-09
-1.03933e-14
-3.144e-09
-1.2687e-14
1.45025e-15
-3.73729e-12
-2.11995e-16
-1.36254e-13
-8.09139e-11
-1.74509e-16
-1.09294e-12
-3.86074e-10
-1.38359e-15
-3.80759e-12
-1.08172e-09
5.68705e-15
-5.2632e-12
-2.24734e-09
2.01295e-14
-4.76481e-12
-3.79765e-09
-6.17978e-14
2.60304e-12
-5.39611e-09
4.42294e-14
6.73991e-12
-6.45811e-09
-2.7345e-14
5.56683e-12
-6.09145e-09
-9.60617e-15
-3.13848e-09
-5.25828e-15
-5.52904e-15
-3.73383e-12
-3.16769e-16
-2.35643e-13
-8.0673e-11
1.17248e-15
-4.49388e-13
-3.85898e-10
8.50218e-16
-9.26039e-13
-1.08142e-09
-7.81782e-15
1.32176e-12
-2.24932e-09
2.91445e-14
4.63242e-12
-3.80093e-09
-1.10959e-14
1.09173e-11
-5.40246e-09
-6.0406e-15
1.32456e-11
-6.46055e-09
-1.31523e-14
1.18329e-11
-6.09012e-09
-1.11217e-14
-3.12667e-09
-6.79533e-15
-1.29561e-14
-3.72149e-12
-1.23009e-16
-2.55298e-13
-8.04195e-11
9.81875e-16
-1.04711e-12
-3.85135e-10
2.07161e-15
-2.57073e-12
-1.08009e-09
-1.04016e-14
-3.20011e-12
-2.24849e-09
1.73042e-14
-3.36785e-12
-3.80074e-09
-2.06149e-14
-2.03156e-12
-5.40379e-09
-1.00528e-15
-1.24342e-12
-6.46138e-09
-1.69766e-15
-9.05341e-13
-6.09048e-09
-3.3481e-15
-3.12755e-09
-1.78898e-15
8.66324e-15
-3.73192e-12
-2.82269e-16
1.60196e-13
-8.05546e-11
1.72903e-15
6.84899e-13
-3.85688e-10
1.88996e-15
1.23241e-12
-1.0808e-09
-7.44787e-15
2.6115e-12
-2.24965e-09
2.4509e-14
3.56804e-12
-3.80172e-09
-1.48368e-14
4.72048e-12
-5.40497e-09
-2.52914e-15
4.58383e-12
-6.4613e-09
-2.98203e-15
3.49931e-12
-6.08946e-09
-4.73758e-15
-3.12409e-09
-6.10757e-15
-1.10113e-14
-3.72263e-12
-2.27422e-16
-1.79472e-13
-8.03822e-11
1.51325e-16
-7.03429e-13
-3.8519e-10
1.82509e-15
-1.59455e-12
-1.08005e-09
-4.72704e-15
-1.8945e-12
-2.2491e-09
2.74635e-14
-2.1419e-12
-3.80146e-09
-1.15573e-14
-1.84914e-12
-5.40523e-09
2.04863e-15
-1.54867e-12
-6.46158e-09
4.76378e-15
-1.14762e-12
-6.08986e-09
2.8204e-15
-3.1252e-09
1.53663e-15
8.97174e-15
-3.73031e-12
-2.55762e-16
1.63438e-13
-8.05044e-11
1.63072e-15
5.20535e-13
-3.856e-10
-1.03327e-15
9.17668e-13
-1.0806e-09
-1.97973e-15
1.77125e-12
-2.2497e-09
2.81725e-14
2.19962e-12
-3.80189e-09
-1.23262e-14
2.48941e-12
-5.40552e-09
-1.63229e-16
2.23523e-12
-6.46134e-09
6.95854e-16
1.54423e-12
-6.0892e-09
-1.28216e-15
-3.12368e-09
-2.88408e-15
-4.34627e-15
-3.72404e-12
-1.47162e-16
-8.20473e-14
-8.03932e-11
1.79087e-15
-4.48746e-13
-3.85305e-10
-3.32909e-15
-1.0491e-12
-1.08022e-09
-1.01297e-14
-1.12705e-12
-2.24939e-09
2.58888e-14
-1.20827e-12
-3.80179e-09
-9.93859e-15
-1.08256e-12
-5.40561e-09
2.21221e-15
-9.17716e-13
-6.46149e-09
3.90962e-15
-6.75733e-13
-6.08943e-09
3.16944e-15
-3.12434e-09
2.19959e-15
5.06526e-15
-3.72954e-12
-9.45763e-17
9.78704e-14
-8.04856e-11
-1.44127e-16
3.76393e-13
-3.85562e-10
1.97566e-15
7.81116e-13
-1.08054e-09
7.56565e-15
1.17028e-12
-2.24975e-09
2.96455e-15
1.38476e-12
-3.80198e-09
2.16804e-15
1.36522e-12
-5.40558e-09
1.88101e-15
1.14114e-12
-6.46124e-09
3.47441e-15
8.1446e-13
-6.08909e-09
2.82416e-15
-3.12352e-09
1.83723e-15
-4.9027e-15
-3.72441e-12
1.38383e-17
-8.9322e-14
-8.03969e-11
3.01141e-16
-3.40522e-13
-3.85307e-10
-2.11519e-16
-6.74563e-13
-1.08019e-09
-5.01663e-16
-9.84117e-13
-2.24943e-09
5.98852e-16
-1.3216e-12
-3.8016e-09
3.27944e-15
-1.67003e-12
-5.40521e-09
2.77816e-15
-1.56317e-12
-6.46131e-09
4.69427e-15
-8.21202e-13
-6.0898e-09
4.78315e-15
-3.12431e-09
4.00919e-15
5.70445e-15
-3.72926e-12
7.32268e-17
9.63759e-14
-8.04749e-11
1.43751e-15
3.10111e-13
-3.85506e-10
1.54267e-15
4.86666e-13
-1.08036e-09
8.68948e-16
3.70412e-13
-2.24929e-09
1.94986e-15
-3.58738e-13
-3.80085e-09
3.24643e-15
-1.38317e-12
-5.40416e-09
3.66087e-15
-1.54033e-12
-6.46113e-09
3.52803e-15
-4.84307e-13
-6.09083e-09
4.0721e-15
-3.12478e-09
3.1425e-15
-6.32538e-15
-3.72218e-12
1.05092e-16
-1.25644e-13
-8.03485e-11
6.99665e-16
-5.05017e-13
-3.85112e-10
1.4728e-15
-1.21679e-12
-1.07963e-09
1.39372e-15
-2.45038e-12
-2.24804e-09
2.36852e-15
-4.4281e-12
-3.79884e-09