/*--------------------------------*- C++ -*----------------------------------*\
| =========                 |                                                 |
| \\      /  F ield         | OpenFOAM: The Open Source CFD Toolbox           |
|  \\    /   O peration     | Version:  v2012                                 |
|   \\  /    A nd           | Website:  www.openfoam.com                      |
|    \\/     M anipulation  |                                                 |
\*---------------------------------------------------------------------------*/
FoamFile
{
    version     2.0;
    format      ascii;
    class       surfaceScalarField;
    location    "0.55";
    object      alphaPhi0.water;
}
// * * * * * * * * * * * * * * * * * * * * * * * * * * * * * * * * * * * * * //

dimensions      [0 3 -1 0 0 0 0];
oriented        oriented;


internalField   nonuniform List<scalar> 
8135
(
-8.30459e-70
-1.57232e-82
-3.9678e-77
-3.05347e-181
-7.42996e-82
-2.89256e-76
-1.26978e-248
4.22523e-179
-2.13081e-180
-3.13064e-314
8.41723e-247
-3.66799e-251
-3.22475e-312
4.43014e-312
-1.3488e-321
-5.85086e-310
7.37439e-310
-1.21219e-319
-1.53651e-307
1.85771e-307
-1.85536e-317
-5.36054e-305
6.32007e-305
-3.7503e-315
-2.38146e-302
2.7524e-302
-1.97004e-312
-1.3171e-299
1.49435e-299
-1.18669e-309
-8.95024e-297
9.97946e-297
-6.72883e-307
-7.41191e-294
8.1424e-294
-4.68334e-304
-7.43376e-291
8.08524e-291
-3.90243e-301
-8.99014e-288
9.75394e-288
-4.95234e-298
-1.30733e-284
1.42985e-284
-6.28081e-295
-2.2827e-281
2.55334e-281
-9.92693e-292
-4.78461e-278
5.58875e-278
-1.88107e-288
-1.20259e-274
1.5177e-274
-4.09875e-285
-3.57678e-271
5.22017e-271
-1.46559e-281
-1.14577e-267
2.35428e-267
-5.68506e-278
1.35065e-263
-4.41998e-274
-1.48445e-82
-1.76106e-102
-4.56507e-85
-3.58941e-153
-2.44563e-102
-6.91772e-84
-2.57246e-246
3.19328e-152
-6.06234e-165
-1.24897e-298
6.91357e-245
-5.96677e-249
-4.64914e-297
6.28457e-297
-8.65103e-306
-2.88356e-295
3.59784e-295
-2.72469e-304
-2.55404e-293
3.06307e-293
-1.42934e-302
-2.99299e-291
3.50333e-291
-1.03203e-300
-4.45748e-289
5.11985e-289
-2.09057e-298
-8.24781e-287
9.31466e-287
-4.36358e-296
-1.8707e-284
2.0807e-284
-8.83872e-294
-5.15797e-282
5.66579e-282
-2.17955e-291
-1.71878e-279
1.87312e-279
-6.46132e-289
-6.89752e-277
7.50792e-277
-2.72266e-286
-3.32834e-274
3.65218e-274
-1.2246e-283
-1.93172e-271
2.16405e-271
-6.84471e-281
-1.35118e-268
1.574e-268
-4.665e-278
-1.14159e-265
1.42482e-265
-3.83691e-275
-1.15689e-262
1.64156e-262
-4.7306e-272
-1.30011e-259
2.48735e-259
-7.72753e-269
4.70918e-256
-2.95107e-265
-1.02273e-105
-1.36102e-102
-1.4038e-106
-9.25988e-153
-2.44658e-102
-1.15003e-108
-1.5619e-244
9.28548e-152
-5.6144e-164
-3.12259e-292
2.80669e-243
-2.90115e-247
-7.40477e-291
9.85895e-291
-2.17293e-299
-2.82679e-289
3.49136e-289
-4.24893e-298
-1.52304e-287
1.81139e-287
-1.34882e-296
-1.08078e-285
1.25565e-285
-5.94137e-295
-9.72192e-284
1.10957e-283
-6.93972e-293
-1.08391e-281
1.21842e-281
-8.58236e-291
-1.47752e-279
1.63936e-279
-1.03832e-288
-2.44217e-277
2.68236e-277
-1.53491e-286
-4.86815e-275
5.31552e-275
-2.70987e-284
-1.16719e-272
1.27445e-272
-6.94495e-282
-3.36518e-270
3.7037e-270
-1.88052e-279
-1.16905e-267
1.31104e-267
-6.32354e-277
-4.91455e-265
5.70504e-265
-2.60521e-274
-2.51409e-262
3.09959e-262
-1.29855e-271
-1.56297e-259
2.15352e-259
-1.01183e-268
-1.10535e-256
1.97458e-256
-1.04473e-265
2.1991e-253
-2.53304e-262
-1.22806e-102
-3.02425e-108
-7.56294e-107
-3.04997e-151
-9.75269e-108
-6.45679e-106
-5.36407e-243
1.67154e-150
-6.38565e-163
-1.85858e-287
7.40754e-242
-8.14945e-246
-3.31401e-286
4.34865e-286
-1.28639e-294
-9.27226e-285
1.13373e-284
-1.86325e-293
-3.62116e-283
4.27175e-283
-4.27468e-292
-1.85288e-281
2.13768e-281
-1.34137e-290
-1.19807e-279
1.35956e-279
-1.05356e-288
-9.57742e-278
1.07216e-277
-9.06744e-287
-9.33904e-276
1.03384e-275
-7.67294e-285
-1.10188e-273
1.20975e-273
-8.03383e-283
-1.56522e-271
1.711e-271
-1.00269e-280
-2.67157e-269
2.92307e-269
-1.87944e-278
-5.48298e-267
6.04687e-267
-3.61037e-276
-1.35742e-264
1.52344e-264
-8.66295e-274
-4.07732e-262
4.72228e-262
-2.55539e-271
-1.49723e-259
1.83106e-259
-9.1485e-269
-6.73133e-257
9.1023e-257
-5.33263e-266
-3.48328e-254
5.97531e-254
-4.07329e-263
4.68661e-251
-7.14126e-260
-2.82701e-108
-4.28344e-124
-6.47294e-111
-9.93338e-154
-6.35214e-124
-6.9723e-110
-1.25514e-241
1.67053e-150
-1.88961e-162
-1.67674e-283
1.42159e-240
-1.59619e-244
-2.43026e-282
3.14444e-282
-1.14833e-290
-5.41995e-281
6.56224e-281
-1.34264e-289
-1.67056e-279
1.95533e-279
-2.4275e-288
-6.71031e-278
7.6916e-278
-5.82387e-287
-3.3947e-276
3.83244e-276
-3.22737e-285
-2.11773e-274
2.36211e-274
-2.09124e-283
-1.60791e-272
1.77642e-272
-1.32804e-281
-1.47435e-270
1.61802e-270
-1.06097e-279
-1.62518e-268
1.77813e-268
-1.00438e-277
-2.15057e-266
2.35702e-266
-1.52704e-275
-3.42123e-264
3.77983e-264
-2.25445e-273
-6.57005e-262
7.38033e-262
-4.18694e-271
-1.53355e-259
1.77387e-259
-9.58182e-269
-4.38973e-257
5.33959e-257
-2.65259e-266
-1.54569e-254
2.06369e-254
-1.27638e-263
-6.30478e-252
1.05314e-251
-7.80437e-261
6.3526e-249
-1.0531e-257
-4.27012e-124
-1.32914e-126
-4.94447e-131
-3.18811e-150
-3.14185e-126
-1.72155e-131
-2.1895e-240
1.2775e-149
-5.30527e-162
-4.74392e-280
2.11087e-239
-2.37359e-243
-5.84313e-279
7.45768e-279
-3.19935e-287
-1.09053e-277
1.30789e-277
-3.17491e-286
-2.78861e-276
3.2398e-276
-4.77007e-285
-9.24528e-275
1.05338e-274
-9.14745e-284
-3.84733e-273
4.32329e-273
-3.75305e-282
-1.96922e-271
2.18944e-271
-1.90865e-280
-1.22413e-269
1.35011e-269
-9.37275e-279
-9.17377e-268
1.00645e-267
-5.8895e-277
-8.25352e-266
9.03776e-266
-4.34419e-275
-8.90655e-264
9.77677e-264
-5.73289e-273
-1.15517e-261
1.27843e-261
-6.74858e-271
-1.80939e-259
2.03478e-259
-1.01074e-268
-3.44919e-257
3.9876e-257
-1.87024e-266
-8.08105e-255
9.79447e-255
-4.14166e-264
-2.33647e-252
3.09177e-252
-1.78238e-261
-7.85614e-250
1.28824e-249
-9.15596e-259
6.29728e-247
-1.00916e-255
-1.22733e-126
-1.77972e-129
-5.58678e-129
-6.95715e-150
-3.70243e-129
-1.93808e-128
-3.0051e-239
3.31234e-149
-2.03895e-161
-6.07073e-277
2.52574e-238
-2.8143e-242
-6.53714e-276
8.23282e-276
-4.0103e-284
-1.0535e-274
1.25195e-274
-3.48734e-283
-2.30881e-273
2.66353e-273
-4.51279e-282
-6.52908e-272
7.39775e-272
-7.23768e-281
-2.30993e-270
2.58481e-270
-2.2828e-279
-1.00268e-268
1.11166e-268
-9.39932e-278
-5.27535e-267
5.80967e-267
-3.62927e-276
-3.34057e-265
3.66408e-265
-1.81248e-274
-2.53643e-263
2.77962e-263
-1.03451e-272
-2.30811e-261
2.5373e-261
-1.26469e-270
-2.52361e-259
2.79747e-259
-1.20268e-268
-3.33313e-257
3.75292e-257
-1.47807e-266
-5.36251e-255
6.1997e-255
-2.24809e-264
-1.06203e-252
1.28427e-252
-3.99114e-262
-2.60142e-250
3.42098e-250
-1.67396e-259
-7.42873e-248
1.20235e-247
-7.46027e-257
4.93128e-245
-7.106e-254
-1.67495e-129
-9.08101e-141
-2.84006e-132
-1.75412e-149
-1.17915e-140
-2.147e-131
-3.36603e-238
7.66896e-149
-4.11169e-161
-4.34465e-274
2.50808e-237
-2.75054e-241
-4.17082e-273
5.18423e-273
-2.79635e-281
-5.93094e-272
6.98572e-272
-2.17697e-280
-1.13952e-270
1.30579e-270
-2.48778e-279
-2.81288e-269
3.17059e-269
-3.46061e-278
-8.66006e-268
9.65335e-268
-8.85163e-277
-3.26347e-266
3.60896e-266
-3.04097e-275
-1.48782e-264
1.63638e-264
-9.42141e-274
-8.15164e-263
8.93948e-263
-3.74751e-272
-5.34908e-261
5.86625e-261
-1.60297e-270
-4.20354e-259
4.62716e-259
-1.92038e-268
-3.96769e-257
4.40518e-257
-1.4621e-266
-4.5246e-255
5.10106e-255
-1.46334e-264
-6.28894e-253
7.27365e-253
-1.8065e-262
-1.07725e-250
1.30092e-250
-2.42364e-260
-2.28577e-248
2.99298e-248
-1.14697e-257
-5.6634e-246
9.08174e-246
-4.52603e-255
3.20322e-243
-3.9254e-252
-6.33449e-141
-5.01322e-142
-2.82957e-149
-4.27157e-149
-5.48189e-142
-1.59164e-146
-2.67665e-221
1.67351e-148
-1.17571e-160
-1.99007e-271
1.79033e-220
-2.60633e-224
-1.72759e-270
2.11969e-270
-1.2424e-278
-2.2021e-269
2.57126e-269
-8.78963e-278
-3.77129e-268
4.29372e-268
-9.02829e-277
-8.26568e-267
9.27119e-267
-1.11757e-275
-2.25304e-265
2.50247e-265
-2.44481e-274
-7.5005e-264
8.27511e-264
-7.2469e-273
-3.01551e-262
3.31266e-262
-1.86816e-271
-1.45496e-260
1.59532e-260
-6.03563e-270
-8.39897e-259
9.21712e-259
-1.89545e-268
-5.80219e-257
6.39482e-257
-2.2991e-266
-4.81273e-255
5.35131e-255
-1.38285e-264
-4.82301e-253
5.44471e-253
-1.09483e-262
-5.8936e-251
6.82096e-251
-1.03361e-260
-8.88235e-249
1.07197e-248
-8.02635e-259
-1.66004e-246
2.16743e-246
-6.12324e-256
-3.62657e-244
5.77768e-244
-2.15844e-253
1.7851e-241
-1.72769e-250
-3.45423e-142
-3.66596e-143
-1.75887e-151
-9.81407e-149
-1.18415e-143
-6.10377e-151
-5.52222e-181
3.46105e-148
-2.10673e-160
-6.39374e-269
3.3481e-180
-3.65947e-192
-5.07404e-268
6.14597e-268
-3.85951e-276
-5.86712e-267
6.79224e-267
-2.50877e-275
-9.07009e-266
1.02619e-265
-2.34545e-274
-1.78821e-264
1.99633e-264
-2.62615e-273
-4.37311e-263
4.84079e-263
-5.14463e-272
-1.30349e-261
1.43492e-261
-1.35648e-270
-4.68455e-260
5.14034e-260
-3.03633e-269
-2.01788e-258
2.2121e-258
-8.29084e-268
-1.03891e-256
1.14077e-256
-1.97666e-266
-6.39683e-255
7.05806e-255
-2.37913e-264
-4.72741e-253
5.26371e-253
-1.13565e-262
-4.22072e-251
4.77105e-251
-6.8704e-261
-4.59616e-249
5.32387e-249
-4.31223e-259
-6.17622e-247
7.45281e-247
1.13378e-257
-1.02994e-244
1.34233e-244
-2.69477e-254
-2.00904e-242
3.18629e-242
-8.3472e-252
8.7473e-240
-6.2017e-249
-8.64301e-144
-1.9633e-143
-5.02321e-152
-2.12425e-148
-3.18746e-145
-1.51985e-151
-2.00374e-179
6.78763e-148
-4.31253e-160
-1.5381e-266
1.10988e-178
-1.32426e-190
-1.12548e-265
1.34585e-265
-8.96049e-274
-1.19163e-264
1.36786e-264
-5.39659e-273
-1.67942e-263
1.88843e-263
-4.63523e-272
-3.00909e-262
3.34399e-262
-4.74774e-271
-6.67178e-261
7.36116e-261
-8.59205e-270
-1.79962e-259
1.97686e-259
-2.0652e-268
-5.84407e-258
6.40549e-258
-4.1645e-267
-2.27197e-256
2.49005e-256
-1.00907e-265
-1.05477e-254
1.15873e-254
-2.02979e-264
-5.85241e-253
6.46377e-253
-2.25572e-262
-3.89605e-251
4.34356e-251
-8.98855e-261
-3.13305e-249
3.54611e-249
-4.25713e-259
-3.07338e-247
3.56342e-247
-1.50324e-257
-3.72166e-245
4.492e-245
3.40301e-255
-5.5954e-243
7.28522e-243
-1.0582e-252
-9.84463e-241
1.55662e-240
-2.74959e-250
3.84036e-238
-1.87208e-247
-7.13445e-145
-1.65966e-143
-1.06072e-152
-4.33422e-148
-1.89021e-145
-3.36226e-152
-3.59479e-178
1.2631e-147
-8.90408e-160
-2.90794e-264
1.83091e-177
-2.36557e-189
-1.97571e-263
2.33241e-263
-1.63331e-271
-1.92988e-262
2.19661e-262
-9.17588e-271
-2.49937e-261
2.79336e-261
-7.29346e-270
-4.10358e-260
4.53989e-260
-6.8895e-269
-8.3193e-259
9.14954e-259
-1.17203e-267
-2.04832e-257
2.24533e-257
-2.60765e-266
-6.06335e-256
6.63826e-256
-4.8462e-265
-2.14638e-254
2.35168e-254
-1.07744e-263
-9.06577e-253
9.96293e-253
-2.00023e-262
-4.57369e-251
5.05583e-251
-1.95002e-260
-2.76743e-249
3.08889e-249
-6.90617e-259
-2.02243e-247
2.29187e-247
-2.79727e-257
-1.80299e-245
2.09262e-245
-6.16966e-256
-1.98461e-243
2.39662e-243
2.67003e-253
-2.7131e-241
3.531e-241
-4.13332e-251
-4.34153e-239
6.85161e-239
-8.04453e-249
1.53313e-236
-4.77056e-246
-5.23929e-145
-1.44696e-143
-2.48846e-153
-8.38124e-148
-1.18621e-145
-7.43547e-153
-4.25951e-177
2.23313e-147
-1.57745e-159
-4.48381e-262
2.00575e-176
-2.7878e-188
-2.84505e-261
3.31572e-261
-2.42676e-269
-2.57983e-260
2.91157e-260
-1.27875e-268
-3.09035e-259
3.43293e-259
-9.46186e-268
-4.68106e-258
5.15578e-258
-8.30845e-267
-8.73812e-257
9.57965e-257
-1.33831e-265
-1.97789e-255
2.16355e-255
-2.78045e-264
-5.3758e-254
5.87855e-254
-4.82703e-263
-1.74554e-252
1.91174e-252
-1.00433e-261
-6.75751e-251
7.42808e-251
-1.80262e-260
-3.12292e-249
3.45465e-249
-1.52387e-258
-1.7303e-247
1.93331e-247
-5.03235e-257
-1.15767e-245
1.31343e-245
-1.90782e-255
-9.44852e-244
1.09778e-243
-4.24514e-254
-9.52247e-242
1.15073e-241
1.43121e-251
-1.19211e-239
1.55152e-239
-1.7066e-249
-1.74714e-237
2.75423e-237
-2.33413e-247
5.63246e-235
-1.06886e-244
-3.7732e-145
-1.30092e-143
-5.52853e-154
-1.5132e-147
-7.99516e-146
-1.74536e-153
-3.75597e-176
3.73452e-147
-4.58917e-159
-2.73747e-259
1.64277e-175
-2.44262e-187
-3.45677e-259
1.87543e-258
-3.0281e-267
-2.92499e-258
3.27305e-258
-1.50247e-266
-3.25859e-257
3.59782e-257
-1.04013e-265
-4.57967e-256
5.02168e-256
-8.53505e-265
-7.91767e-255
8.65252e-255
-1.30476e-263
-1.65749e-253
1.8092e-253
-2.54352e-262
-4.16165e-252
4.54516e-252
-4.15214e-261
-1.24717e-250
1.36525e-250
-8.14517e-260
-4.45294e-249
4.89542e-249
-1.42264e-258
-1.89694e-247
2.0997e-247
-1.06012e-256
-9.68472e-246
1.08309e-245
-3.32527e-255
-5.96943e-244
6.77983e-244
-1.22032e-253
-4.48804e-242
5.21991e-242
-3.16779e-252
-4.16678e-240
5.03935e-240
6.22987e-250
-4.80571e-238
6.2566e-238
-7.38919e-248
-6.48894e-236
1.02243e-235
-7.21037e-246
1.92319e-233
-2.10847e-243
-2.95575e-145
-1.18769e-143
-8.48231e-155
-2.70494e-147
-5.63001e-146
-4.03232e-154
-2.63235e-175
6.03345e-147
-1.41065e-161
-2.45673e-257
1.07369e-174
-1.69953e-186
-3.62477e-257
1.56579e-256
-3.24296e-265
-2.87487e-256
3.18937e-256
-1.52228e-264
-2.99244e-255
3.28372e-255
-9.90035e-264
-3.92093e-254
4.2801e-254
-7.62074e-263
-6.30954e-253
6.87289e-253
-1.10748e-261
-1.22781e-251
1.33724e-251
-2.03362e-260
-2.86266e-250
3.12229e-250
-3.13172e-259
-7.95954e-249
8.70786e-249
-5.81311e-258
-2.63499e-247
2.89682e-247
-9.85896e-257
-1.04025e-245
1.15197e-245
-6.59775e-255
-4.92003e-244
5.50669e-244
-1.97835e-253
-2.80874e-242
3.19318e-242
-7.07597e-252
-1.95561e-240
2.27682e-240
-2.06691e-250
-1.68135e-238
2.03522e-238
2.30196e-248
-1.79576e-236
2.33917e-236
-3.19925e-246
-2.24533e-234
3.53768e-234
-2.53606e-244
6.15416e-232
-4.28075e-242
-2.40033e-145
-1.08028e-143
-2.01541e-156
-5.43395e-147
-3.92042e-146
-9.08408e-155
-1.52906e-174
7.60012e-147
-1.34131e-162
-1.38247e-255
5.83657e-174
-9.79254e-186
-3.34151e-255
8.22652e-255
-3.04e-263
-2.49364e-254
2.74244e-254
-1.35462e-262
-2.43489e-253
2.65532e-253
-8.30546e-262
-2.98676e-252
3.24553e-252
-6.01065e-261
-4.49269e-251
4.87771e-251
-8.31528e-260
-8.16241e-250
8.86965e-250
-1.44392e-258
-1.77508e-248
1.93331e-248
-2.09882e-257
-4.60004e-247
5.02891e-247
-3.68671e-256
-1.41844e-245
1.55918e-245
-6.01971e-255
-5.21341e-244
5.77526e-244
-3.68674e-253
-2.29486e-242
2.57022e-242
-1.05502e-251
-1.21899e-240
1.38706e-240
-3.65328e-250
-7.89601e-239
9.20175e-239
-1.12508e-248
-6.31515e-237
7.65118e-237
7.60812e-247
-6.27407e-235
8.17827e-235
-1.33218e-244
-7.29664e-233
1.14994e-232
-9.24115e-243
1.85878e-230
-9.29925e-241
-1.97203e-145
-9.52105e-144
-1.84847e-156
-7.03722e-147
-2.68079e-146
-2.04583e-155
-7.57873e-174
7.84635e-147
-1.50404e-162
-7.52882e-254
2.71557e-173
-4.81075e-185
-2.74988e-253
4.19598e-253
-2.53471e-261
-1.9374e-252
2.11198e-252
-1.07499e-260
-1.78082e-251
1.92979e-251
-6.23154e-260
-2.05239e-250
2.21988e-250
-4.24355e-259
-2.8965e-249
3.13412e-249
-5.6025e-258
-4.93192e-248
5.34656e-248
-9.23495e-257
-1.0043e-246
1.09214e-246
-1.26807e-255
-2.43524e-245
2.66005e-245
-2.1094e-254
-7.0223e-244
7.71705e-244
-3.29812e-253
-2.41261e-242
2.67314e-242
-1.87416e-251
-9.92363e-241
1.11204e-240
-5.11005e-250
-4.92447e-239
5.60778e-239
-1.70316e-248
-2.97948e-237
3.47529e-237
-5.31649e-247
-2.22556e-235
2.69881e-235
2.29814e-245
-2.06483e-233
2.69358e-233
-5.21931e-243
-2.24225e-231
3.53547e-231
-3.32523e-241
5.3318e-229
-2.65769e-239
-1.79312e-145
-8.04257e-144
-1.82876e-156
-7.41159e-147
-2.25288e-146
-5.42584e-156
-3.27462e-173
7.37242e-147
-1.58642e-162
-4.69167e-252
1.10442e-172
-2.05887e-184
-2.04642e-251
2.45574e-251
-1.90486e-259
-1.36525e-250
1.475e-250
-7.70631e-259
-1.18495e-249
1.27584e-249
-4.23398e-258
-1.28716e-248
1.38562e-248
-2.71628e-257
-1.7099e-247
1.84374e-247
-3.42867e-256
-2.73773e-246
2.96055e-246
-5.38293e-255
-5.23793e-245
5.6867e-245
-6.98529e-254
-1.19255e-243
1.30139e-243
-1.10007e-252
-3.22718e-242
3.54506e-242
-1.63635e-251
-1.04006e-240
1.15244e-240
-8.73617e-250
-4.01168e-239
4.49734e-239
-2.26347e-248
-1.86636e-237
2.12674e-237
-7.21514e-247
-1.05847e-235
1.23561e-235
-2.2159e-245
-7.40995e-234
8.99339e-234
6.74706e-244
-6.44233e-232
8.41085e-232
-1.8722e-241
-6.55479e-230
1.03417e-229
-1.09883e-239
1.46033e-227
-7.50494e-238
-2.06e-145
-6.97475e-144
-1.84553e-156
-6.63425e-147
-3.49687e-146
-2.43534e-156
-1.25388e-172
6.77344e-147
-1.53609e-162
-3.112e-250
3.99008e-172
-7.80436e-184
-1.39238e-249
1.53359e-249
-1.30495e-257
-8.81946e-249
9.44218e-249
-5.04607e-257
-7.24775e-248
7.75263e-248
-2.63329e-256
-7.44139e-247
7.97173e-247
-1.59196e-255
-9.33174e-246
1.00261e-245
-1.92682e-254
-1.4091e-244
1.51985e-244
-2.89038e-253
-2.54064e-243
2.75344e-243
-3.54958e-252
-5.44789e-242
5.93861e-242
-5.29745e-251
-1.3878e-240
1.52369e-240
-7.47511e-250
-4.20862e-239
4.66305e-239
-3.78139e-248
-1.52705e-237
1.71241e-237
-9.29933e-247
-6.68132e-236
7.61766e-236
-2.82486e-245
-3.56288e-234
4.16218e-234
-8.39306e-244
-2.34491e-232
2.84831e-232
1.97652e-242
-1.91634e-230
2.50394e-230
-6.19458e-240
-1.83244e-228
2.89318e-228
-3.36615e-238
3.83741e-226
-2.22234e-236
-1.39337e-144
-5.12592e-144
-1.9626e-156
-5.35984e-147
-3.14189e-145
-1.68399e-156
-4.31061e-172
8.16009e-147
-1.87906e-162
-2.00732e-248
1.29703e-171
-2.65499e-183
-8.74398e-248
9.33364e-248
-8.22958e-256
-5.27113e-247
5.59139e-247
-3.04701e-255
-4.11156e-246
4.36859e-246
-1.5132e-254
-4.00003e-245
4.2638e-245
-8.64321e-254
-4.74748e-244
5.08183e-244
-1.00357e-252
-6.7787e-243
7.29166e-243
-1.44267e-251
-1.1549e-241
1.24926e-241
-1.67793e-250
-2.33872e-240
2.54627e-240
-2.37378e-249
-5.62374e-239
6.17033e-239
-3.16623e-248
-1.60926e-237
1.78266e-237
-1.53024e-246
-5.50806e-236
6.17762e-236
-3.56753e-245
-2.27279e-234
2.59243e-234
-1.02949e-243
-1.14278e-232
1.33585e-232
-2.9186e-242
-7.09051e-231
8.61915e-231
6.04912e-241
-5.46183e-229
7.14223e-229
-1.88894e-238
-4.92181e-227
7.77673e-227
-9.37825e-237
9.71606e-225
-5.434e-235
-3.56074e-144
-9.8232e-145
-3.28983e-155
-6.40647e-147
-3.63314e-146
-5.89091e-159
-1.34466e-171
9.40125e-147
-2.19239e-161
-1.21938e-246
3.83306e-171
-8.19331e-183
-5.11008e-246
5.36037e-246
-4.81876e-254
-2.93816e-245
3.08751e-245
-1.71101e-253
-2.18014e-244
2.30061e-244
-8.10132e-253
-2.01433e-243
2.13619e-243
-4.37877e-252
-2.26793e-242
2.41833e-242
-4.8853e-251
-3.06931e-241
3.29221e-241
-6.74776e-250
-4.95315e-240
5.34699e-240
-7.44586e-249
-9.49569e-239
1.03244e-238
-1.00003e-247
-2.16071e-237
2.36883e-237
-1.26007e-246
-5.84883e-236
6.47683e-236
-5.84847e-245
-1.89315e-234
2.12334e-234
-1.29269e-243
-7.38561e-233
8.42697e-233
-3.53938e-242
-3.51029e-231
4.1055e-231
-9.50493e-241
-2.05839e-229
2.50384e-229
1.89373e-239
-1.49823e-227
1.96065e-227
-5.4021e-237
-1.27545e-225
2.01681e-225
-2.43675e-235
2.37948e-223
-1.26378e-233
-6.35332e-145
-2.64419e-145
-3.58732e-155
-7.92445e-147
-6.59157e-147
-1.17121e-159
-3.83972e-171
1.04262e-146
-1.15848e-160
-6.95127e-245
1.03871e-170
-2.31417e-182
-2.79932e-244
2.89411e-244
-2.6396e-252
-1.5382e-243
1.60101e-243
-9.00094e-252
-1.08794e-242
1.14005e-242
-4.0692e-251
-9.56617e-242
1.00916e-241
-2.0877e-250
-1.02387e-240
1.08743e-240
-2.23786e-249
-1.31618e-239
1.40757e-239
-2.97809e-248
-2.01624e-238
2.17186e-238
-3.12039e-247
-3.66739e-237
3.98153e-237
-3.98124e-246
-7.91444e-236
8.66868e-236
-4.73074e-245
-2.03113e-234
2.24816e-234
-2.12132e-243
-6.23132e-233
6.98831e-233
-4.4454e-242
-2.30358e-231
2.6289e-231
-1.15371e-240
-1.03727e-229
1.21367e-229
-2.9151e-239
-5.76139e-228
7.0123e-228
6.06059e-238
-3.97137e-226
5.20069e-226
-1.45102e-235
-3.20102e-224
5.06535e-224
-5.82474e-234
5.65639e-222
-2.22621e-232
-1.52732e-145
-1.18561e-145
-3.18221e-155
-1.04737e-146
-5.3882e-148
-9.16922e-160
-1.01114e-170
6.97975e-147
-2.0763e-160
-3.73407e-243
2.59982e-170
-6.0275e-182
-1.44665e-242
1.47477e-242
-1.36173e-250
-7.61074e-242
7.84486e-242
-4.46511e-250
-5.14051e-241
5.34826e-241
-1.93008e-249
-4.30965e-240
4.5218e-240
-9.3971e-249
-4.39327e-239
4.64683e-239
-9.70927e-248
-5.3748e-238
5.73015e-238
-1.24792e-246
-7.83133e-237
8.41644e-237
-1.24384e-245
-1.35422e-235
1.46784e-235
-1.51015e-244
-2.77732e-234
3.03875e-234
-1.69309e-243
-6.77137e-233
7.49035e-233
-7.36056e-242
-1.97303e-231
2.21221e-231
-1.46376e-240
-6.92581e-230
7.90449e-230
-3.60208e-239
-2.96062e-228
3.46518e-228
-8.54116e-238
-1.56082e-226
1.90064e-226
1.90936e-236
-1.02097e-224
1.33783e-224
-3.70729e-234
-7.80736e-223
1.2363e-222
-1.31031e-232
1.30937e-220
-3.25008e-231
-7.58576e-146
-5.04158e-146
-2.99314e-155
-7.42275e-147
8.16534e-148
-3.2257e-155
-2.47119e-170
4.00656e-147
-2.20707e-162
-1.90033e-241
6.04749e-170
-1.45705e-181
-7.09329e-241
7.13012e-241
-6.65546e-249
-3.57882e-240
3.65259e-240
-2.10097e-248
-2.31231e-239
2.3882e-239
-8.69242e-248
-1.85155e-238
1.93191e-238
-4.02098e-247
-1.80088e-237
1.89671e-237
-4.01105e-246
-2.10057e-236
2.23218e-236
-4.99202e-245
-2.91636e-235
3.12664e-235
-4.73659e-244
-4.8032e-234
5.19702e-234
-5.47618e-243
-9.37865e-233
1.02492e-232
-5.78692e-242
-2.17636e-231
2.40567e-231
-2.45124e-240
-6.03413e-230
6.7632e-230
-4.62939e-239
-2.01501e-228
2.29965e-228
-1.08056e-237
-8.19265e-227
9.59079e-227
-2.39756e-236
-4.10715e-225
5.00332e-225
5.90832e-235
-2.55418e-223
3.34868e-223
-9.02268e-233
-1.85648e-221
2.94162e-221
-2.72497e-231
2.96033e-219
-4.11646e-231
-3.46836e-146
-2.02908e-146
-1.98015e-156
-4.40457e-147
7.65362e-148
-3.8557e-156
-5.63601e-170
2.03656e-147
-9.38087e-163
-9.20992e-240
1.31438e-169
-3.28717e-181
-3.31699e-239
3.28723e-239
-3.09834e-247
-1.60745e-238
1.62415e-238
-9.42664e-247
-9.95076e-238
1.02006e-237
-3.73713e-246
-7.62245e-237
7.90782e-237
-1.63871e-245
-7.08515e-236
7.42927e-236
-1.58621e-244
-7.8921e-235
8.35811e-235
-1.91576e-243
-1.0458e-233
1.11832e-233
-1.73327e-242
-1.64324e-232
1.7746e-232
-1.91138e-241
-3.05999e-231
3.33955e-231
-1.90546e-240
-6.77005e-230
7.47686e-230
-7.88513e-239
-1.78914e-228
2.00434e-228
-1.41612e-237
-5.69347e-227
6.49662e-227
-3.13918e-236
-2.20547e-225
2.58208e-225
-6.51937e-235
-1.05319e-223
1.28336e-223
1.76154e-233
-6.23746e-222
8.18132e-222
-2.1214e-231
-4.31647e-220
6.84333e-220
-5.33806e-230
6.55514e-218
1.34294e-228
-1.50313e-146
-7.69756e-147
-9.79821e-158
-2.29409e-147
4.66625e-148
-1.5672e-157
-1.2053e-169
9.35763e-148
-6.82985e-163
-4.27111e-238
2.6817e-169
-6.95479e-181
-1.48622e-237
1.45195e-237
-1.38054e-245
-6.92789e-237
6.92859e-237
-4.0524e-245
-4.11502e-236
4.18609e-236
-1.54073e-244
-3.01998e-235
3.11464e-235
-6.40692e-244
-2.68668e-234
2.80433e-234
-6.03111e-243
-2.86226e-233
3.02056e-233
-7.08453e-242
-3.62563e-232
3.86654e-232
-6.11498e-241
-5.44343e-231
5.86662e-231
-6.436e-240
-9.6823e-230
1.05513e-229
-6.04764e-239
-2.04556e-228
2.25686e-228
-2.45581e-237
-5.16079e-227
5.77801e-227
-4.19851e-236
-1.56749e-225
1.78808e-225
-8.84859e-235
-5.79417e-224
6.78337e-224
-1.71945e-233
-2.63976e-222
3.21726e-222
5.0931e-232
-1.49121e-220
1.95661e-220
-4.82634e-230
-9.84054e-219
1.56086e-218
-9.5648e-229
1.42535e-216
6.81987e-227
-6.12255e-147
-2.73454e-147
-1.64683e-158
-1.07335e-147
2.30981e-148
-2.00042e-158
-2.42728e-169
3.91128e-148
-8.98687e-163
-1.90366e-236
5.15751e-169
-1.38585e-180
-6.40811e-236
6.17044e-236
-5.91369e-244
-2.8771e-235
2.84758e-235
-1.67647e-243
-1.64199e-234
1.6573e-234
-6.11945e-243
-1.15611e-233
1.18515e-233
-2.40832e-242
-9.85771e-233
1.02409e-232
-2.21504e-241
-1.00585e-231
1.05756e-231
-2.5349e-240
-1.21967e-230
1.297e-230
-2.09053e-239
-1.75223e-229
1.88435e-229
-2.10307e-238
-2.98134e-228
3.24371e-228
-1.86418e-237
-6.02332e-227
6.63797e-227
-7.44505e-236
-1.45286e-225
1.62542e-225
-1.21335e-234
-4.21792e-224
4.80953e-224
-2.4352e-233
-1.48997e-222
1.74409e-222
-4.43722e-232
-6.48563e-221
7.90504e-221
1.41928e-230
-3.49965e-219
4.59303e-219
-1.0704e-228
-2.20542e-217
3.49947e-217
-1.57891e-227
3.05092e-215
2.17465e-225
-2.3292e-147
-9.04314e-148
-5.10995e-159
-4.55234e-148
9.86737e-149
-5.81565e-159
-4.62044e-169
1.48938e-148
-1.01388e-162
-8.18761e-235
9.38427e-169
-2.61072e-180
-2.66934e-234
2.53308e-234
-2.44533e-242
-1.15579e-233
1.13188e-233
-6.70115e-242
-6.34596e-233
6.354e-233
-2.35028e-241
-4.29224e-232
4.37278e-232
-8.76561e-241
-3.51234e-231
3.63109e-231
-7.88654e-240
-3.43706e-230
3.59994e-230
-8.80888e-239
-3.99495e-229
4.23551e-229
-6.94399e-238
-5.49918e-228
5.90018e-228
-6.6803e-237
-8.96221e-227
9.73396e-227
-5.58052e-236
-1.73387e-225
1.90839e-225
-2.20101e-234
-4.00383e-224
4.47547e-224
-3.4233e-233
-1.11256e-222
1.26792e-222
-6.55204e-232
-3.76081e-221
4.40106e-221
-1.12103e-230
-1.56617e-219
1.90885e-219
3.84314e-229
-8.08338e-218
1.06103e-217
-2.30821e-227
-4.87106e-216
7.73141e-216
-2.22045e-226
6.44378e-214
6.24915e-224
-8.23191e-148
-2.758e-148
-1.52187e-159
-1.75697e-148
3.71771e-149
-1.8198e-159
-8.34159e-169
5.16828e-149
-1.06967e-162
-3.41104e-233
1.62075e-168
-4.66546e-180
-1.07823e-232
1.00821e-232
-9.79808e-241
-4.5076e-232
4.36709e-232
-2.59785e-240
-2.38392e-231
2.36746e-231
-8.76334e-240
-1.55084e-230
1.56988e-230
-3.09268e-239
-1.2194e-229
1.25429e-229
-2.73307e-238
-1.1458e-228
1.19532e-228
-2.98356e-237
-1.27816e-227
1.35087e-227
-2.2511e-236
-1.68793e-226
1.80658e-226
-2.07364e-235
-2.63823e-225
2.86003e-225
-1.63354e-234
-4.89368e-224
5.37871e-224
-6.37503e-233
-1.0832e-222
1.2096e-222
-9.47502e-232
-2.88453e-221
3.28517e-221
-1.73235e-230
-9.34239e-220
1.09286e-219
-2.79245e-229
-3.72685e-218
4.54159e-218
1.00968e-227
-1.84213e-216
2.41806e-216
-4.88585e-226
-1.06281e-214
1.68721e-214
-2.39999e-225
1.34599e-212
1.57615e-222
-2.68138e-148
-7.63103e-149
-3.92542e-160
-6.17529e-149
1.23748e-149
-4.88625e-160
-1.43263e-168
1.63139e-149
-1.10615e-162
-1.38141e-231
2.66482e-168
-7.93297e-180
-4.23798e-231
3.9042e-231
-3.8179e-239
-1.71252e-230
1.64108e-230
-9.80201e-239
-8.73382e-230
8.60123e-230
-3.18231e-238
-5.47105e-229
5.50201e-229
-1.06402e-237
-4.13829e-228
4.23462e-228
-9.24707e-237
-3.73819e-227
3.88362e-227
-9.8818e-236
-4.0068e-226
4.22081e-226
-7.13884e-235
-5.08223e-225
5.42537e-225
-6.29933e-234
-7.62717e-224
8.25176e-224
-4.67442e-233
-1.35806e-222
1.49038e-222
-1.81202e-231
-2.88483e-221
3.21781e-221
-2.57631e-230
-7.37076e-220
8.38788e-220
-4.50634e-229
-2.28996e-218
2.67741e-218
-6.86127e-228
-8.76083e-217
1.06731e-216
2.59145e-226
-4.15195e-215
5.44959e-215
-1.01796e-224
-2.29611e-213
3.64536e-213
-3.57784e-225
2.78683e-211
3.81532e-221
-7.91212e-149
-1.91474e-149
-1.07173e-160
-1.97209e-149
3.59419e-150
-1.16085e-160
-2.34708e-168
4.67016e-150
-9.96639e-163
-5.45669e-230
4.18224e-168
-1.28702e-179
-1.62628e-229
1.47582e-229
-1.45169e-237
-6.35868e-229
6.02597e-229
-3.61179e-237
-3.13058e-228
3.0568e-228
-1.12945e-236
-1.8904e-227
1.88835e-227
-3.57004e-236
-1.37706e-226
1.40157e-226
-3.06544e-235
-1.19715e-225
1.23839e-225
-3.21082e-234
-1.2343e-224
1.29576e-224
-2.2237e-233
-1.50538e-223
1.60263e-223
-1.88176e-232
-2.17163e-222
2.34441e-222
-1.31587e-231
-3.71581e-221
4.07105e-221
-5.07549e-230
-7.58332e-220
8.448e-220
-6.91154e-229
-1.86105e-218
2.11592e-218
-1.1584e-227
-5.55242e-217
6.48777e-217
-1.67254e-226
-2.03944e-215
2.48362e-215
6.48972e-225
-9.27723e-214
1.21743e-213
-2.11486e-223
-4.9231e-212
7.81571e-212
7.36533e-223
5.732e-210
8.61853e-220
-2.08488e-149
-4.90289e-150
-3.2964e-161
-5.71502e-150
9.51244e-151
-3.16835e-161
-3.67709e-168
1.20999e-150
-7.31438e-163
-2.10925e-228
6.28033e-168
-1.99719e-179
-6.11231e-228
5.46319e-228
-5.40405e-236
-2.31474e-227
2.16896e-227
-1.30391e-235
-1.10127e-226
1.06597e-226
-3.92922e-235
-6.41711e-226
6.36606e-226
-1.17444e-234
-4.50647e-225
4.56142e-225
-9.98442e-234
-3.77433e-224
3.887e-224
-1.02659e-232
-3.74719e-223
3.91967e-223
-6.81855e-232
-4.39899e-222
4.66968e-222
-5.53554e-231
-6.10625e-221
6.57697e-221
-3.64336e-230
-1.00509e-219
1.0992e-219
-1.40332e-228
-1.97273e-218
2.19461e-218
-1.83206e-227
-4.65503e-217
5.28701e-217
-2.94654e-226
-1.33507e-215
1.55879e-215
-4.04796e-225
-4.7129e-214
5.73637e-214
1.59465e-223
-2.05989e-212
2.70227e-212
-4.40335e-222
-1.04999e-210
1.66666e-210
2.89771e-221
1.1738e-208
1.90083e-218
-5.54055e-150
-1.19399e-150
-1.12682e-161
-1.49942e-150
2.57714e-151
-9.55231e-162
-5.52125e-168
2.81222e-151
-4.81206e-163
-8.00388e-227
9.04346e-168
-2.9712e-179
-2.25712e-226
1.98668e-226
-1.9759e-234
-8.28674e-226
7.67613e-226
-4.62684e-234
-3.8136e-225
3.65859e-225
-1.34445e-233
-2.14646e-224
2.11437e-224
-3.79038e-233
-1.45462e-223
1.464e-223
-3.20638e-232
-1.17488e-222
1.20438e-222
-3.23971e-231
-1.1243e-221
1.17165e-221
-2.06601e-230
-1.27168e-220
1.34586e-220
-1.61073e-229
-1.70025e-219
1.82686e-219
-9.98033e-229
-2.69485e-218
2.94146e-218
-3.84477e-227
-5.09191e-217
5.65599e-217
-4.81735e-226
-1.15642e-215
1.31187e-215
-7.44504e-225
-3.19139e-214
3.72287e-214
-9.76827e-224
-1.08378e-212
1.31829e-212
3.85165e-222
-4.5558e-211
5.97388e-211
-9.30555e-221
-2.23278e-209
3.54312e-209
7.7494e-220
2.39861e-207
4.01117e-217
-1.40976e-150
-2.46922e-151
-4.25022e-162
-3.53192e-151
6.19441e-152
-3.27671e-162
-7.96181e-168
5.82196e-152
-3.02445e-163
-2.99104e-225
1.25119e-167
-4.24638e-179
-8.2148e-225
7.1192e-225
-7.11873e-233
-2.92647e-224
2.67936e-224
-1.61887e-232
-1.30394e-223
1.23961e-223
-4.53776e-232
-7.09577e-223
6.93917e-223
-1.20661e-231
-4.64484e-222
4.64746e-222
-1.01802e-230
-3.6213e-221
3.69456e-221
-1.0121e-229
-3.34337e-220
3.47064e-220
-6.19972e-229
-3.64707e-219
3.84754e-219
-4.64346e-228
-4.70109e-218
5.03813e-218
-2.70532e-227
-7.18156e-217
7.82242e-217
-1.04578e-225
-1.30753e-215
1.44996e-215
-1.25875e-224
-2.86071e-214
3.24099e-214
-1.87187e-223
-7.6036e-213
8.86078e-213
-2.35337e-222
-2.48633e-211
3.02196e-211
9.20628e-221
-1.00611e-209
1.31852e-209
-2.01352e-219
-4.7453e-208
7.52705e-208
1.72924e-218
4.90251e-206
8.31515e-216
-3.06717e-151
-3.99683e-152
-1.60017e-162
-7.42047e-152
1.15123e-152
-1.20308e-162
-1.10465e-167
1.33121e-152
-1.87587e-163
-1.10427e-223
1.66617e-167
-5.8412e-179
-2.95595e-223
2.52185e-223
-2.53537e-231
-1.02267e-222
9.25268e-223
-5.60301e-231
-4.41569e-222
4.15903e-222
-1.51593e-230
-2.32534e-221
2.25718e-221
-3.79193e-230
-1.47162e-220
1.46359e-220
-3.2068e-229
-1.1085e-219
1.12535e-219
-3.14008e-228
-9.88283e-219
1.02175e-218
-1.84939e-227
-1.04063e-217
1.09417e-217
-1.33192e-226
-1.29437e-216