/*--------------------------------*- C++ -*----------------------------------*\
| =========                 |                                                 |
| \\      /  F ield         | OpenFOAM: The Open Source CFD Toolbox           |
|  \\    /   O peration     | Version:  v2012                                 |
|   \\  /    A nd           | Website:  www.openfoam.com                      |
|    \\/     M anipulation  |                                                 |
\*---------------------------------------------------------------------------*/
FoamFile
{
    version     2.0;
    format      ascii;
    class       surfaceScalarField;
    location    "0.55";
    object      phi;
}
// * * * * * * * * * * * * * * * * * * * * * * * * * * * * * * * * * * * * * //

dimensions      [0 3 -1 0 0 0 0];
oriented        oriented;


internalField   nonuniform List<scalar> 
8135
(
-1.99373e-09
-2.65596e-08
-5.61384e-16
-1.28002e-09
-5.57104e-09
-3.93637e-16
-6.26147e-10
1.71469e-08
-9.39692e-17
-4.73424e-10
4.14713e-08
-4.3725e-17
-4.08961e-10
6.69508e-08
-2.94345e-17
-3.81016e-10
9.34748e-08
-2.17754e-17
-3.61991e-10
1.20928e-07
-1.65718e-17
-3.44515e-10
1.48846e-07
-9.99018e-18
-3.25612e-10
1.76842e-07
-1.78095e-17
-3.04154e-10
2.04268e-07
-2.53878e-17
-2.7968e-10
2.30402e-07
-2.53148e-17
-2.52111e-10
2.54389e-07
-2.42064e-17
-2.21652e-10
2.74971e-07
-2.23247e-17
-1.88738e-10
2.908e-07
-2.48024e-17
-1.54047e-10
3.00164e-07
-2.29191e-17
-1.18559e-10
3.00878e-07
-2.12199e-17
-8.36199e-11
2.90316e-07
-1.91222e-17
-5.11151e-11
2.65348e-07
-1.58535e-17
-2.36428e-11
2.22039e-07
-1.50752e-17
-5.16902e-12
1.55814e-07
-1.13042e-17
6.1067e-08
-7.93552e-18
-2.23319e-09
-2.67526e-08
-5.69575e-16
-1.88991e-09
-5.91429e-09
-4.02474e-16
-1.53661e-09
1.67936e-08
-2.00013e-16
-1.32896e-09
4.12636e-08
-1.22288e-16
-1.20758e-09
6.68295e-08
-8.54089e-17
-1.13836e-09
9.34055e-08
-6.35441e-17
-1.08512e-09
1.20874e-07
-4.85487e-17
-1.03376e-09
1.48795e-07
-3.32419e-17
-9.77444e-10
1.76786e-07
-7.69923e-17
-9.13208e-10
2.04203e-07
-1.08464e-16
-8.39806e-10
2.30328e-07
-1.13775e-16
-7.57045e-10
2.54306e-07
-1.14269e-16
-6.65574e-10
2.7488e-07
-1.11371e-16
-5.66727e-10
2.90701e-07
-1.222e-16
-4.6258e-10
3.0006e-07
-1.18553e-16
-3.56117e-10
3.00771e-07
-1.14278e-16
-2.51457e-10
2.90211e-07
-1.0722e-16
-1.54257e-10
2.65251e-07
-9.39553e-17
-7.23659e-11
2.21957e-07
-8.76178e-17
-1.68233e-11
1.55759e-07
-7.03415e-17
6.10502e-08
-5.55899e-17
-2.60319e-09
-2.68382e-08
-5.94432e-16
-2.46149e-09
-6.05596e-09
-4.41997e-16
-2.28831e-09
1.66204e-08
-2.82432e-16
-2.11369e-09
4.1089e-08
-1.89914e-16
-1.97998e-09
6.66958e-08
-1.353e-16
-1.8858e-09
9.33114e-08
-1.00702e-16
-1.80441e-09
1.20793e-07
-7.65849e-17
-1.72159e-09
1.48712e-07
-5.74617e-17
-1.62893e-09
1.76693e-07
-1.19369e-16
-1.5224e-09
2.04097e-07
-1.61787e-16
-1.40029e-09
2.30206e-07
-1.67002e-16
-1.26241e-09
2.54168e-07
-1.66826e-16
-1.10993e-09
2.74728e-07
-1.6122e-16
-9.45135e-10
2.90536e-07
-1.79437e-16
-7.71564e-10
2.99886e-07
-1.74533e-16
-5.94268e-10
3.00594e-07
-1.68333e-16
-4.20196e-10
2.90037e-07
-1.57941e-16
-2.58823e-10
2.6509e-07
-1.37869e-16
-1.23103e-10
2.21821e-07
-1.31571e-16
-3.06214e-11
1.55666e-07
-1.06525e-16
6.10196e-08
-8.79372e-17
-3.03788e-09
-2.68287e-08
-6.23614e-16
-3.02558e-09
-6.06822e-09
-4.84777e-16
-2.96877e-09
1.65636e-08
-3.47147e-16
-2.847e-09
4.09673e-08
-2.48376e-16
-2.72581e-09
6.65746e-08
-1.81418e-16
-2.62074e-09
9.32063e-08
-1.35779e-16
-2.51809e-09
1.2069e-07
-1.03133e-16
-2.40703e-09
1.48601e-07
-7.79852e-17
-2.27956e-09
1.76566e-07
-1.44753e-16
-2.13149e-09
2.03949e-07
-1.88014e-16
-1.96101e-09
2.30036e-07
-1.88839e-16
-1.76815e-09
2.53975e-07
-1.86549e-16
-1.5547e-09
2.74514e-07
-1.78009e-16
-1.32397e-09
2.90305e-07
-2.03018e-16
-1.08099e-09
2.99643e-07
-1.95902e-16
-8.32948e-10
3.00346e-07
-1.88321e-16
-5.89657e-10
2.89794e-07
-1.76433e-16
-3.64397e-10
2.64865e-07
-1.53005e-16
-1.75078e-10
2.21632e-07
-1.51817e-16
-4.52562e-11
1.55536e-07
-1.24811e-16
6.09743e-08
-1.04513e-16
-3.51552e-09
-2.67394e-08
-6.53867e-16
-3.59108e-09
-5.99262e-09
-5.26041e-16
-3.61369e-09
1.65862e-08
-4.0207e-16
-3.54682e-09
4.09004e-08
-3.01972e-16
-3.44946e-09
6.64773e-08
-2.26891e-16
-3.34343e-09
9.31003e-08
-1.7195e-16
-3.22563e-09
1.20573e-07
-1.30718e-16
-3.08962e-09
1.48465e-07
-9.63159e-17
-2.92908e-09
1.76405e-07
-1.50323e-16
-2.74034e-09
2.0376e-07
-1.86249e-16
-2.52192e-09
2.29817e-07
-1.79029e-16
-2.27426e-09
2.53728e-07
-1.72737e-16
-1.9999e-09
2.7424e-07
-1.59592e-16
-1.70323e-09
2.90009e-07
-1.90908e-16
-1.39086e-09
2.99331e-07
-1.81403e-16
-1.07212e-09
3.00027e-07
-1.73036e-16
-7.59735e-10
2.89482e-07
-1.61539e-16
-4.70744e-10
2.64576e-07
-1.3844e-16
-2.27881e-10
2.21389e-07
-1.4711e-16
-6.0384e-11
1.55369e-07
-1.23647e-16
6.0914e-08
-1.03302e-16
-4.02531e-09
-2.65841e-08
-6.83897e-16
-4.16352e-09
-5.85436e-09
-5.65529e-16
-4.24353e-09
1.66662e-08
-4.51187e-16
-4.22655e-09
4.08835e-08
-3.52064e-16
-4.15672e-09
6.64074e-08
-2.72142e-16
-4.05576e-09
9.29993e-08
-2.09762e-16
-3.92743e-09
1.20444e-07
-1.60256e-16
-3.76938e-09
1.48307e-07
-1.13173e-16
-3.57741e-09
1.76213e-07
-1.48195e-16
-3.3489e-09
2.03532e-07
-1.73083e-16
-3.08299e-09
2.29551e-07
-1.55433e-16
-2.78074e-09
2.53425e-07
-1.42973e-16
-2.44553e-09
2.73905e-07
-1.2378e-16
-2.08293e-09
2.89646e-07
-1.58639e-16
-1.70117e-09
2.98949e-07
-1.44955e-16
-1.31177e-09
2.99638e-07
-1.34676e-16
-9.30344e-10
2.891e-07
-1.23531e-16
-5.77693e-10
2.64223e-07
-1.02253e-16
-2.81258e-10
2.21092e-07
-1.23339e-16
-7.5821e-11
1.55164e-07
-1.06729e-16
6.08381e-08
-8.9196e-17
-4.5614e-09
-2.63743e-08
-7.12614e-16
-4.74695e-09
-5.66876e-09
-6.02048e-16
-4.87054e-09
1.67898e-08
-4.95009e-16
-4.89619e-09
4.09092e-08
-3.97965e-16
-4.85331e-09
6.63646e-08
-3.15559e-16
-4.76035e-09
9.29064e-08
-2.4757e-16
-4.62457e-09
1.20309e-07
-1.90496e-16
-4.44671e-09
1.48129e-07
-1.30749e-16
-4.22474e-09
1.75991e-07
-1.4702e-16
-3.95726e-09
2.03264e-07
-1.61749e-16
-3.64428e-09
2.29238e-07
-1.3285e-16
-3.28761e-09
2.53069e-07
-1.12784e-16
-2.89161e-09
2.73509e-07
-8.56007e-17
-2.46308e-09
2.89218e-07
-1.22745e-16
-2.01191e-09
2.98498e-07
-1.0333e-16
-1.55185e-09
2.99178e-07
-8.98101e-17
-1.10141e-09
2.8865e-07
-7.80694e-17
-6.85109e-10
2.63807e-07
-5.82164e-17
-3.35022e-10
2.20742e-07
-9.15346e-17
-9.14313e-11
1.5492e-07
-8.21077e-17
6.07467e-08
-7.02685e-17
-5.12096e-09
-2.61189e-08
-7.39548e-16
-5.34411e-09
-5.44555e-09
-6.34952e-16
-5.50206e-09
1.69478e-08
-5.33349e-16
-5.563e-09
4.09702e-08
-4.38615e-16
-5.54434e-09
6.6346e-08
-3.55159e-16
-5.46006e-09
9.28221e-08
-2.83109e-16
-5.31848e-09
1.20167e-07
-2.19699e-16
-5.12233e-09
1.47933e-07
-1.48789e-16
-4.87142e-09
1.7574e-07
-1.52404e-16
-4.56561e-09
2.02958e-07
-1.60259e-16
-4.20588e-09
2.28879e-07
-1.2107e-16
-3.79495e-09
2.52658e-07
-9.31535e-17
-3.33819e-09
2.73052e-07
-5.7271e-17
-2.84371e-09
2.88723e-07
-9.56081e-17
-2.3231e-09
2.97978e-07
-6.90981e-17
-1.79234e-09
2.98647e-07
-5.08232e-17
-1.27287e-09
2.8813e-07
-3.68406e-17
-7.92883e-10
2.63327e-07
-1.67026e-17
-3.89043e-10
2.20338e-07
-6.02427e-17
-1.07131e-10
1.54638e-07
-5.63078e-17
6.06396e-08
-5.08704e-17
-5.70268e-09
-2.58249e-08
-7.64743e-16
-5.95684e-09
-5.19132e-09
-6.64392e-16
-6.14259e-09
1.71336e-08
-5.66559e-16
-6.23221e-09
4.10599e-08
-4.73749e-16
-6.2341e-09
6.63479e-08
-3.89898e-16
-6.15769e-09
9.27457e-08
-3.14906e-16
-6.01077e-09
1.2002e-07
-2.46433e-16
-5.79712e-09
1.47719e-07
-1.67457e-16
-5.51792e-09
1.75461e-07
-1.65226e-16
-5.17421e-09
2.02615e-07
-1.70474e-16
-4.76797e-09
2.28472e-07
-1.22591e-16
-4.30284e-09
2.52193e-07
-8.73994e-17
-3.78531e-09
2.72534e-07
-4.30878e-17
-3.22484e-09
2.88163e-07
-8.26409e-17
-2.63472e-09
2.97388e-07
-4.87568e-17
-2.03323e-09
2.98045e-07
-2.50576e-17
-1.44468e-09
2.87542e-07
-7.5586e-18
-9.00934e-10
2.62783e-07
1.49462e-17
-4.43226e-10
2.19881e-07
-3.59138e-17
-1.22862e-10
1.54318e-07
-3.45499e-17
6.05167e-08
-3.26295e-17
-6.30602e-09
-2.54974e-08
-7.88429e-16
-6.58641e-09
-4.91086e-09
-6.90949e-16
-6.79503e-09
1.73422e-08
-5.95526e-16
-6.9076e-09
4.11725e-08
-5.04005e-16
-6.92606e-09
6.63664e-08
-4.19904e-16
-6.85575e-09
9.26754e-08
-3.42678e-16
-6.70307e-09
1.19868e-07
-2.70266e-16
-6.47207e-09
1.47488e-07
-1.85385e-16
-6.16483e-09
1.75154e-07
-1.83408e-16
-5.7834e-09
2.02233e-07
-1.8948e-16
-5.33073e-09
2.2802e-07
-1.34785e-16
-4.8114e-09
2.51673e-07
-9.35383e-17
-4.23305e-09
2.71956e-07
-4.17593e-17
-3.6065e-09
2.87536e-07
-8.32568e-17
-2.9468e-09
2.96728e-07
-4.24077e-17
-2.27448e-09
2.97373e-07
-1.3255e-17
-1.61678e-09
2.86884e-07
8.51514e-18
-1.0092e-09
2.62175e-07
3.51622e-17
-4.97508e-10
2.19369e-07
-2.04617e-17
-1.38592e-10
1.53959e-07
-1.89357e-17
6.03781e-08
-1.75985e-17
-6.93079e-09
-2.51409e-08
-8.10782e-16
-7.23375e-09
-4.60781e-09
-7.1524e-16
-7.46129e-09
1.75698e-08
-6.21264e-16
-7.5919e-09
4.13032e-08
-5.30445e-16
-7.62298e-09
6.63975e-08
-4.46004e-16
-7.55647e-09
9.26089e-08
-3.66929e-16
-7.39694e-09
1.19708e-07
-2.913e-16
-7.14818e-09
1.47239e-07
-2.02174e-16
-6.81278e-09
1.74819e-07
-2.04397e-16
-6.39358e-09
2.01814e-07
-2.13892e-16
-5.89439e-09
2.27521e-07
-1.53697e-16
-5.32077e-09
2.511e-07
-1.07599e-16
-4.68148e-09
2.71317e-07
-4.96035e-17
-3.98872e-09
2.86843e-07
-9.42424e-17
-3.25933e-09
2.95998e-07
-4.74633e-17
-2.5161e-09
2.9663e-07
-1.35293e-17
-1.78916e-09
2.86157e-07
1.25687e-17
-1.11763e-09
2.61504e-07
4.45233e-17
-5.51845e-10
2.18803e-07
-1.39841e-17
-1.54302e-10
1.53561e-07
-9.97007e-18
6.02238e-08
-7.21711e-18
-7.57702e-09
-2.47586e-08
-8.31865e-16
-7.89954e-09
-4.28521e-09
-7.37704e-16
-8.14269e-09
1.78129e-08
-6.44586e-16
-8.28709e-09
4.14477e-08
-5.54061e-16
-8.32706e-09
6.64375e-08
-4.69145e-16
-8.26173e-09
9.25436e-08
-3.88431e-16
-8.09379e-09
1.1954e-07
-3.10174e-16
-7.82642e-09
1.46972e-07
-2.17811e-16
-7.4624e-09
1.74455e-07
-2.25908e-16
-7.00512e-09
2.01357e-07
-2.40071e-16
-6.4592e-09
2.26975e-07
-1.7515e-16
-5.83108e-09
2.50472e-07
-1.25106e-16
-5.13067e-09
2.70616e-07
-6.18879e-17
-4.37156e-09
2.86084e-07
-1.10851e-16
-3.57233e-09
2.95199e-07
-5.92133e-17
-2.75806e-09
2.95816e-07
-2.14023e-17
-1.96177e-09
2.85361e-07
8.61264e-18
-1.2262e-09
2.60768e-07
4.61809e-17
-6.06211e-10
2.18183e-07
-1.42381e-17
-1.69983e-10
1.53125e-07
-6.36931e-18
6.00538e-08
-8.98594e-19
-8.2448e-09
-2.43534e-08
-8.51668e-16
-8.58427e-09
-3.94563e-09
-7.58575e-16
-8.84015e-09
1.80689e-08
-6.65992e-16
-8.99464e-09
4.16022e-08
-5.75525e-16
-9.03998e-09
6.64829e-08
-4.90037e-16
-8.97308e-09
9.24767e-08
-4.07823e-16
-8.79486e-09
1.19362e-07
-3.27338e-16
-8.5077e-09
1.46685e-07
-2.32391e-16
-8.11429e-09
1.74061e-07
-2.46308e-16
-7.61843e-09
2.00861e-07
-2.65364e-16
-7.0254e-09
2.26382e-07
-1.964e-16
-6.34249e-09
2.49789e-07
-1.43144e-16
-5.5807e-09
2.69855e-07
-7.55235e-17
-4.75503e-09
2.85259e-07
-1.29848e-16
-3.8858e-09
2.9433e-07
-7.43685e-17
-3.00037e-09
2.9493e-07
-3.35987e-17
-2.13461e-09
2.84495e-07
-2.42851e-19
-1.33488e-09
2.59968e-07
4.28591e-17
-6.60589e-10
2.17509e-07
-1.89537e-17
-1.8563e-10
1.5265e-07
-6.57547e-18
5.98682e-08
2.02943e-18
-8.93426e-09
-2.3928e-08
-8.70159e-16
-9.28834e-09
-3.59145e-09
-7.77939e-16
-9.55431e-09
1.83349e-08
-6.85718e-16
-9.71559e-09
4.17636e-08
-5.95182e-16
-9.76302e-09
6.65304e-08
-5.09076e-16
-9.69181e-09
9.24055e-08
-4.25465e-16
-9.50123e-09
1.19172e-07
-3.43089e-16
-9.19282e-09
1.46377e-07
-2.46054e-16
-8.76902e-09
1.73638e-07
-2.64878e-16
-8.23388e-09
2.00326e-07
-2.8825e-16
-7.59321e-09
2.25741e-07
-2.15738e-16
-6.85511e-09
2.49051e-07
-1.59546e-16
-6.03165e-09
2.69031e-07
-8.78559e-17
-5.13917e-09
2.84366e-07
-1.4813e-16
-4.19976e-09
2.93391e-07
-8.94809e-17
-3.243e-09
2.93974e-07
-4.64966e-17
-2.30764e-09
2.8356e-07
-1.04316e-17
-1.44365e-09
2.59104e-07
3.77042e-17
-7.14968e-10
2.1678e-07
-2.53255e-17
-2.01246e-10
1.52136e-07
-8.68043e-18
5.9667e-08
3.00091e-18
-9.64554e-09
-2.34845e-08
-8.8731e-16
-1.0012e-08
-3.22487e-09
-7.95821e-16
-1.02856e-08
1.86085e-08
-7.03835e-16
-1.04507e-08
4.19288e-08
-6.13158e-16
-1.04972e-08
6.65769e-08
-5.26404e-16
-1.04189e-08
9.23272e-08
-4.41489e-16
-1.02138e-08
1.18967e-07
-3.57434e-16
-9.88247e-09
1.46045e-07
-2.582e-16
-9.42709e-09
1.73182e-07
-2.81134e-16
-8.85179e-09
1.99751e-07
-3.08574e-16
-8.16285e-09
2.25052e-07
-2.32814e-16
-7.36907e-09
2.48257e-07
-1.73979e-16
-6.48356e-09
2.68146e-07
-9.84838e-17
-5.524e-09
2.83407e-07
-1.65114e-16
-4.51418e-09
2.92381e-07
-1.03686e-16
-3.48594e-09
2.92945e-07
-5.89239e-17
-2.48086e-09
2.82555e-07
-2.05221e-17
-1.55249e-09
2.58176e-07
3.22594e-17
-7.69344e-10
2.15997e-07
-3.21709e-17
-2.16831e-10
1.51584e-07
-1.14353e-17
5.94501e-08
2.84394e-18
-1.03787e-08
-2.30252e-08
-9.03128e-16
-1.07555e-08
-2.84803e-09
-8.12215e-16
-1.10344e-08
1.88875e-08
-7.20361e-16
-1.12005e-08
4.2095e-08
-6.29473e-16
-1.12431e-08
6.66196e-08
-5.42039e-16
-1.11551e-08
9.22392e-08
-4.55878e-16
-1.09332e-08
1.18745e-07
-3.70269e-16
-1.05772e-08
1.45689e-07
-2.68854e-16
-1.00889e-08
1.72694e-07
-2.95307e-16
-9.47246e-09
1.99135e-07
-3.26885e-16
-8.73449e-09
2.24314e-07
-2.47586e-16
-7.88447e-09
2.47407e-07
-1.85944e-16
-6.93649e-09
2.67198e-07
-1.06543e-16
-5.90952e-09
2.8238e-07
-1.79594e-16
-4.82907e-09
2.91301e-07
-1.15517e-16
-3.72917e-09
2.91845e-07
-6.92359e-17
-2.65424e-09
2.8148e-07
-2.88206e-17
-1.6614e-09
2.57183e-07
2.80474e-17
-8.23713e-10
2.1516e-07
-3.85045e-17
-2.32389e-10
1.50992e-07
-1.38015e-17
5.92177e-08
2.61447e-18
-1.11339e-08
-2.25522e-08
-9.17659e-16
-1.15188e-08
-2.46302e-09
-8.27167e-16
-1.18008e-08
1.91695e-08
-7.35313e-16
-1.19653e-08
4.22596e-08
-6.44124e-16
-1.20013e-08
6.66556e-08
-5.55959e-16
-1.1901e-08
9.21389e-08
-4.68593e-16
-1.166e-08
1.18504e-07
-3.81507e-16
-1.12775e-08
1.45307e-07
-2.77278e-16
-1.07549e-08
1.72171e-07
-3.07304e-16
-1.00961e-08
1.98476e-07
-3.43325e-16
-9.30827e-09
2.23526e-07
-2.60608e-16
-8.40137e-09
2.465e-07
-1.96337e-16
-7.39045e-09
2.66187e-07
-1.13092e-16
-6.29574e-09
2.81285e-07
-1.92642e-16
-5.14441e-09
2.90149e-07
-1.25866e-16
-3.97267e-09
2.90674e-07
-7.80268e-17
-2.82776e-09
2.80335e-07
-3.55543e-17
-1.77035e-09
2.56126e-07
2.5237e-17
-8.78072e-10
2.14267e-07
-4.43517e-17
-2.47924e-10
1.50362e-07
-1.53608e-17
5.89698e-08
2.60687e-18
-1.19111e-08
-2.20675e-08
-9.31001e-16
-1.23021e-08
-2.07196e-09
-8.40748e-16
-1.25848e-08
1.94523e-08
-7.48741e-16
-1.27453e-08
4.24202e-08
-6.57139e-16
-1.27721e-08
6.66825e-08
-5.68156e-16
-1.26569e-08
9.20237e-08
-4.79589e-16
-1.23946e-08
1.18242e-07
-3.91012e-16
-1.19837e-08
1.44896e-07
-2.83948e-16
-1.14251e-08
1.71613e-07
-3.17448e-16
-1.07229e-08
1.97774e-07
-3.58258e-16
-9.88429e-09
2.22688e-07
-2.71962e-16
-8.91982e-09
2.45536e-07
-2.0494e-16
-7.84545e-09
2.65112e-07
-1.17684e-16
-6.68262e-09
2.80122e-07
-2.03687e-16
-5.46015e-09
2.88927e-07
-1.34126e-16
-4.21641e-09
2.8943e-07
-8.46993e-17
-3.0014e-09
2.7912e-07
-4.01688e-17
-1.87934e-09
2.55004e-07
2.44524e-17
-9.32418e-10
2.1332e-07
-4.87021e-17
-2.63438e-10
1.49693e-07
-1.57613e-17
5.87064e-08
3.30106e-18
-1.27103e-08
-2.15732e-08
-9.43271e-16
-1.31051e-08
-1.67696e-09
-8.53057e-16
-1.33865e-08
1.97336e-08
-7.60727e-16
-1.35404e-08
4.25742e-08
-6.68583e-16
-1.35555e-08
6.66977e-08
-5.7869e-16
-1.3423e-08
9.18912e-08
-4.88896e-16
-1.31371e-08
1.17956e-07
-3.98857e-16
-1.26959e-08
1.44455e-07
-2.88286e-16
-1.20999e-08
1.71017e-07
-3.25805e-16
-1.13529e-08
1.97027e-07
-3.71805e-16
-1.04626e-08
2.21797e-07
-2.82304e-16
-9.43981e-09
2.44513e-07
-2.12821e-16
-8.30146e-09
2.63974e-07
-1.21664e-16
-7.07014e-09
2.78891e-07
-2.14183e-16
-5.77627e-09
2.87633e-07
-1.41689e-16
-4.46034e-09
2.88114e-07
-9.04493e-17
-3.17511e-09
2.77835e-07
-4.35598e-17
-1.98835e-09
2.53817e-07
2.5228e-17
-9.86746e-10
2.12319e-07
-5.14723e-17
-2.78934e-10
1.48986e-07
-1.5037e-17
5.84274e-08
4.54806e-18
-1.35313e-08
-2.10716e-08
-9.54591e-16
-1.39279e-08
-1.28018e-09
-8.6421e-16
-1.42055e-08
2.00113e-08
-7.71377e-16
-1.43506e-08
4.27194e-08
-6.78549e-16
-1.43515e-08
6.66987e-08
-5.87638e-16
-1.41993e-08
9.17391e-08
-4.9656e-16
-1.38877e-08
1.17645e-07
-4.05019e-16
-1.34143e-08
1.43982e-07
-2.91235e-16
-1.27792e-08
1.70382e-07
-3.32639e-16
-1.19862e-08
1.96234e-07
-3.84223e-16
-1.10431e-08
2.20854e-07
-2.91457e-16
-9.96132e-09
2.43432e-07
-2.19502e-16
-8.75842e-09
2.62771e-07
-1.24385e-16
-7.45822e-09
2.77591e-07
-2.23481e-16
-6.09268e-09
2.86268e-07
-1.48006e-16
-4.7044e-09
2.86726e-07
-9.48966e-17
-3.34887e-09
2.76479e-07
-4.55499e-17
-2.09734e-09
2.52566e-07
2.75897e-17
-1.04105e-09
2.11262e-07
-5.23945e-17
-2.94413e-10
1.48239e-07
-1.32912e-17
5.8133e-08
6.42822e-18
-1.43738e-08
-2.05647e-08
-9.65071e-16
-1.477e-08
-8.83827e-10
-8.74322e-16
-1.50417e-08
2.02831e-08
-7.80809e-16
-1.51756e-08
4.28534e-08
-6.87159e-16
-1.516e-08
6.66832e-08
-5.95108e-16
-1.49858e-08
9.15649e-08
-5.027e-16
-1.46464e-08
1.17306e-07
-4.09714e-16
-1.41388e-08
1.43474e-07
-2.92436e-16
-1.3463e-08
1.69706e-07
-3.38091e-16
-1.26228e-08
1.95394e-07
-3.95581e-16
-1.16259e-08
2.19857e-07
-2.99969e-16
-1.04842e-08
2.4229e-07
-2.25909e-16
-9.21625e-09
2.61503e-07
-1.27026e-16
-7.84677e-09
2.76221e-07
-2.3285e-16
-6.40932e-09
2.8483e-07
-1.54305e-16
-4.94854e-09
2.85265e-07
-9.91254e-17
-3.52263e-09
2.75053e-07
-4.70162e-17
-2.20631e-09
2.51249e-07
3.08397e-17
-1.09532e-09
2.10151e-07
-5.19664e-17
-3.09875e-10
1.47454e-07
-1.07971e-17
5.78232e-08
8.632e-18
-1.52376e-08
-2.00549e-08
-9.74831e-16
-1.56311e-08
-4.90152e-10
-8.83511e-16
-1.58946e-08
2.05468e-08
-7.89151e-16
-1.6015e-08
4.29739e-08
-6.94539e-16
-1.59806e-08
6.6649e-08
-6.01234e-16
-1.57822e-08
9.13665e-08
-5.07425e-16
-1.54128e-08
1.16937e-07
-4.12971e-16
-1.48693e-08
1.42931e-07
-2.93073e-16
-1.41512e-08
1.68988e-07
-3.42316e-16
-1.32624e-08
1.94505e-07
-4.06001e-16
-1.22107e-08
2.18806e-07
-3.07472e-16
-1.10085e-08
2.41088e-07
-2.31344e-16
-9.67482e-09
2.6017e-07
-1.28738e-16
-8.2357e-09
2.74782e-07
-2.4146e-16
-6.72609e-09
2.83321e-07
-1.59904e-16
-5.19269e-09
2.83732e-07
-1.02695e-16
-3.69633e-09
2.73557e-07
-4.78041e-17
-2.3152e-09
2.49868e-07
3.48933e-17
-1.14954e-09
2.08986e-07
-5.04512e-17
-3.25318e-10
1.46629e-07
-7.82401e-18
5.74978e-08
1.10648e-17
-1.61221e-08
-1.95445e-08
-9.83987e-16
-1.65106e-08
-1.01448e-10
-8.91895e-16
-1.67637e-08
2.07999e-08
-7.96526e-16
-1.68683e-08
4.30787e-08
-7.0082e-16
-1.68129e-08
6.65937e-08
-6.06156e-16
-1.65881e-08
9.11417e-08
-5.10884e-16
-1.61867e-08
1.16535e-07
-4.15009e-16
-1.56054e-08
1.42349e-07
-2.92425e-16
-1.48436e-08
1.68227e-07
-3.45451e-16
-1.39049e-08
1.93567e-07
-4.15549e-16
-1.27974e-08
2.17698e-07
-3.14453e-16
-1.15338e-08
2.39825e-07
-2.36589e-16
-1.0134e-08
2.5877e-07
-1.3048e-16
-8.62486e-09
2.73273e-07
-2.50294e-16
-7.04288e-09
2.81739e-07
-1.65714e-16
-5.43674e-09
2.82126e-07
-1.06374e-16
-3.86991e-09
2.7199e-07
-4.85088e-17
-2.424e-09
2.48422e-07
3.92898e-17
-1.2037e-09
2.07765e-07
-4.82564e-17
-3.4074e-10
1.45766e-07
-4.56991e-18
5.71571e-08
1.34875e-17
-1.70268e-08
-1.90358e-08
-9.92637e-16
-1.7408e-08
2.79948e-10
-8.99584e-16
-1.76484e-08
2.10404e-08
-8.03056e-16
-1.7735e-08
4.31654e-08
-7.06133e-16
-1.76564e-08
6.65152e-08
-6.10013e-16
-1.74031e-08
9.08885e-08
-5.13208e-16
-1.69678e-08
1.161e-07
-4.15783e-16
-1.63469e-08
1.41729e-07
-2.90989e-16
-1.55398e-08
1.6742e-07
-3.47493e-16
-1.455e-08
1.92577e-07
-4.24284e-16
-1.33858e-08
2.16534e-07
-3.20484e-16
-1.20601e-08
2.38499e-07
-2.40908e-16
-1.05936e-08
2.57303e-07
-1.3137e-16
-9.01408e-09
2.71694e-07
-2.58487e-16
-7.35955e-09
2.80084e-07
-1.7103e-16
-5.6806e-09
2.80447e-07
-1.09702e-16
-4.04329e-09
2.70353e-07
-4.89672e-17
-2.53265e-09
2.46912e-07
4.39213e-17
-1.25778e-09
2.06491e-07
-4.56744e-17
-3.56138e-10
1.44865e-07
-1.3483e-18
5.6801e-08
1.57375e-17
-1.79509e-08
-1.85314e-08
-1.00084e-15
-1.83225e-08
6.51665e-10
-9.06661e-16
-1.85479e-08
2.12659e-08
-8.08845e-16
-1.86142e-08
4.32319e-08
-7.10602e-16
-1.85102e-08
6.64113e-08
-6.12944e-16
-1.82264e-08
9.06047e-08
-5.14549e-16
-1.77553e-08
1.15629e-07
-4.15516e-16
-1.70933e-08
1.41067e-07
-2.87739e-16
-1.62395e-08
1.66566e-07
-3.48613e-16
-1.51974e-08
1.91535e-07
-4.32314e-16
-1.39755e-08
2.15312e-07
-3.26045e-16
-1.25871e-08
2.37111e-07
-2.4501e-16
-1.10533e-08
2.5577e-07
-1.32211e-16
-9.40319e-09
2.70044e-07
-2.66811e-16
-7.67595e-09
2.78357e-07
-1.76497e-16
-5.92415e-09
2.78695e-07
-1.13161e-16
-4.21641e-09
2.68645e-07
-4.94915e-17
-2.6411e-09
2.45336e-07
4.85989e-17
-1.31175e-09
2.05161e-07
-4.26723e-17
-3.71507e-10
1.43924e-07
1.82593e-18
5.64295e-08
1.77587e-17
-1.88936e-08
-1.80337e-08
-1.00864e-15
-1.92531e-08
1.01132e-09
-9.13194e-16
-1.94612e-08
2.1474e-08
-8.13987e-16
-1.95051e-08
4.32761e-08
-7.1434e-16
-1.93737e-08
6.628e-08
-6.15079e-16
-1.90575e-08
9.02885e-08
-5.15037e-16
-1.85488e-08
1.15121e-07
-4.14205e-16
-1.78441e-08
1.40362e-07
-2.83309e-16
-1.69421e-08
1.65664e-07
-3.48815e-16
-1.58467e-08
1.9044e-07
-4.39675e-16
-1.45662e-08
2.14032e-07
-3.30749e-16
-1.31144e-08
2.35659e-07
-2.48226e-16
-1.1513e-08
2.54168e-07
-1.32227e-16
-9.79197e-09
2.68323e-07
-2.74513e-16
-7.99191e-09
2.76557e-07
-1.81517e-16
-6.16725e-09
2.7687e-07
-1.16379e-16
-4.38916e-09
2.66867e-07
-4.99857e-17
-2.74931e-09
2.43697e-07
5.31775e-17
-1.3656e-09
2.03778e-07
-3.95829e-17
-3.8684e-10
1.42946e-07
4.63333e-18
5.60426e-08
1.93403e-17
-1.98538e-08
-1.75454e-08
-1.01604e-15
-2.01987e-08
1.3565e-09
-9.1923e-16
-2.03873e-08
2.16627e-08
-8.1856e-16
-2.04067e-08
4.32957e-08
-7.17453e-16
-2.02459e-08
6.61193e-08
-6.16533e-16
-1.98954e-08
8.9938e-08
-5.14813e-16
-1.93475e-08
1.14573e-07
-4.12135e-16
-1.85985e-08
1.39613e-07
-2.77211e-16
-1.76472e-08
1.64713e-07
-3.48368e-16
-1.64973e-08
1.8929e-07
-4.46518e-16
-1.51575e-08
2.12692e-07
-3.35068e-16
-1.36417e-08
2.34143e-07
-2.51219e-16
-1.19723e-08
2.52499e-07
-1.32113e-16
-1.01802e-08
2.66531e-07
-2.82202e-16
-8.30724e-09
2.74684e-07
-1.86545e-16
-6.40978e-09
2.74973e-07
-1.19624e-16
-4.56145e-09
2.65019e-07
-5.05383e-17
-2.85721e-09
2.41992e-07
5.76671e-17
-1.41929e-09
2.0234e-07
-3.64549e-17
-4.0213e-10
1.41929e-07
7.23077e-18
5.56405e-08
2.06238e-17
-2.08302e-08
-1.70688e-08
-1.02304e-15
-2.11583e-08
1.68485e-09
-9.24801e-16
-2.13251e-08
2.18295e-08
-8.22632e-16
-2.1318e-08
4.32887e-08
-7.20028e-16
-2.11258e-08
6.59272e-08
-6.17413e-16
-2.07392e-08
8.95515e-08
-5.13984e-16
-2.01505e-08
1.13985e-07
-4.09351e-16
-1.93559e-08
1.38818e-07
-2.705e-16
-1.83541e-08
1.63711e-07
-3.473e-16
-1.71488e-08
1.88085e-07
-4.52861e-16
-1.57489e-08
2.11292e-07
-3.38667e-16
-1.41686e-08
2.32563e-07
-2.53427e-16
-1.24309e-08
2.50761e-07
-1.31248e-16
-1.05675e-08
2.64667e-07
-2.89302e-16
-8.62172e-09
2.72739e-07
-1.91157e-16
-6.65156e-09
2.73003e-07
-1.22682e-16
-4.73316e-09
2.63101e-07
-5.11758e-17
-2.96473e-09
2.40224e-07
6.18187e-17
-1.47278e-09
2.00848e-07
-3.37552e-17
-4.17368e-10
1.40873e-07
9.25306e-18
5.52231e-08
2.13373e-17
-2.18214e-08
-1.66066e-08
-1.02959e-15
-2.21303e-08
1.994e-09
-9.29916e-16
-2.22732e-08
2.19725e-08
-8.26257e-16
-2.22375e-08
4.32532e-08
-7.22152e-16
-2.20122e-08
6.57021e-08
-6.17822e-16
-2.1588e-08
8.91273e-08
-5.12669e-16
-2.0957e-08
1.13354e-07
-4.06094e-16
-2.01154e-08
1.37977e-07
-2.62847e-16
-1.90621e-08
1.62658e-07
-3.45873e-16
-1.78006e-08
1.86824e-07
-4.58862e-16
-1.63399e-08
2.09832e-07
-3.41993e-16
-1.46947e-08
2.30918e-07
-2.55445e-16
-1.28885e-08
2.48955e-07
-1.30221e-16
-1.09538e-08
2.62733e-07
-2.96291e-16
-8.93513e-09
2.7072e-07
-1.95656e-16
-6.89243e-09
2.7096e-07
-1.2566e-16
-4.90418e-09
2.61112e-07
-5.18289e-17
-3.0718e-09
2.38392e-07
6.58081e-17
-1.52606e-09
1.99302e-07
-3.12182e-17
-4.32546e-10
1.3978e-07
1.10092e-17
5.47906e-08
2.17902e-17
-2.28259e-08
-1.61614e-08
-1.03565e-15
-2.31133e-08
2.28167e-09
-9.34587e-16
-2.32303e-08
2.20895e-08
-8.29487e-16
-2.31641e-08
4.31873e-08
-7.23905e-16
-2.2904e-08
6.54421e-08
-6.17854e-16
-2.24405e-08
8.86639e-08
-5.10953e-16
-2.17659e-08
1.1268e-07
-4.02358e-16
-2.08763e-08
1.37087e-07
-2.55013e-16
-1.97704e-08
1.61552e-07
-3.4404e-16
-1.84519e-08
1.85505e-07
-4.64514e-16
-1.693e-08
2.0831e-07
-3.44756e-16
-1.52195e-08
2.29208e-07
-2.56819e-16
-1.33446e-08
2.4708e-07
-1.28558e-16
-1.13385e-08
2.60727e-07
-3.02761e-16
-9.24722e-09
2.68629e-07
-1.99796e-16
-7.1322e-09
2.68845e-07
-1.28504e-16
-5.07438e-09
2.59055e-07
-5.26563e-17
-3.17835e-09
2.36496e-07
6.9276e-17
-1.57907e-09
1.97703e-07
-2.88746e-17
-4.47653e-10
1.38648e-07
1.21101e-17
5.43429e-08
2.1643e-17
-2.38419e-08
-1.57354e-08
-1.0412e-15
-2.41056e-08
2.54566e-09
-9.38831e-16
-2.41946e-08
2.21785e-08
-8.32375e-16
-2.40962e-08
4.30891e-08
-7.25358e-16
-2.37996e-08
6.51457e-08
-6.17597e-16
-2.32956e-08
8.81599e-08
-5.08937e-16
-2.25761e-08
1.1196e-07
-3.9832e-16
-2.16374e-08
1.36149e-07
-2.4649e-16
-2.04782e-08
1.60393e-07
-3.42016e-16
-1.91021e-08
1.84129e-07
-4.69973e-16
-1.75186e-08
2.06726e-07
-3.47358e-16
-1.57426e-08
2.27432e-07
-2.58059e-16
-1.37988e-08
2.45136e-07
-1.26744e-16
-1.17215e-08
2.5865e-07
-3.09067e-16
-9.55773e-09
2.66465e-07
-2.03747e-16
-7.37068e-09
2.66658e-07
-1.3119e-16
-5.24362e-09
2.56927e-07
-5.34565e-17
-3.28428e-09
2.34536e-07
7.25107e-17
-1.63179e-09
1.9605e-07
-2.65096e-17
-4.62677e-10
1.37479e-07
1.29598e-17
5.38802e-08
2.13297e-17
-2.48674e-08
-1.53311e-08
-1.04623e-15
-2.51053e-08
2.78388e-09
-9.42684e-16
-2.51644e-08
2.22377e-08
-8.34975e-16
-2.50322e-08
4.29571e-08
-7.26583e-16
-2.46978e-08
6.48114e-08
-6.17132e-16
-2.41519e-08
8.7614e-08
-5.0669e-16
-2.33865e-08
1.11195e-07
-3.93946e-16
-2.23979e-08
1.3516e-07
-2.3777e-16
-2.11846e-08
1.5918e-07
-3.39707e-16
-1.97505e-08
1.82695e-07
-4.75203e-16
-1.81049e-08
2.05081e-07
-3.49541e-16
-1.62632e-08
2.2559e-07
-2.58792e-16
-1.42507e-08
2.43124e-07
-1.2442e-16
-1.21024e-08
2.56501e-07
-3.14936e-16
-9.86638e-09
2.64229e-07
-2.0741e-16
-7.60765e-09
2.644e-07
-1.33801e-16
-5.41177e-09
2.54732e-07
-5.44964e-17
-3.38952e-09
2.32514e-07
7.50554e-17
-1.68415e-09
1.94345e-07
-2.46673e-17
-4.77607e-10
1.36273e-07
1.30872e-17
5.34026e-08
2.04196e-17
-2.59003e-08
-1.49507e-08
-1.05076e-15
-2.61104e-08
2.99437e-09
-9.46176e-16
-2.6138e-08
2.22653e-08
-8.37344e-16
-2.59704e-08
4.27898e-08
-7.27645e-16
-2.55969e-08
6.44381e-08
-6.16535e-16
-2.50081e-08
8.70252e-08
-5.04297e-16
-2.41959e-08
1.10383e-07
-3.89397e-16
-2.31566e-08
1.34121e-07
-2.28458e-16
-2.18887e-08
1.57912e-07
-3.37312e-16
-2.03962e-08
1.81203e-07
-4.8035e-16
-1.86884e-08
2.03373e-07
-3.51652e-16
-1.6781e-08
2.23683e-07
-2.5944e-16
-1.46999e-08
2.41043e-07
-1.21967e-16
-1.24807e-08
2.54282e-07
-3.2061e-16
-1.01729e-08
2.61921e-07
-2.10841e-16
-7.84291e-09
2.6207e-07
-1.36192e-16
-5.57866e-09
2.52467e-07
-5.54533e-17
-3.49396e-09
2.30429e-07
7.73411e-17
-1.73612e-09
1.92587e-07
-2.3278e-17
-4.92428e-10
1.35029e-07
1.29468e-17
5.29102e-08
1.94537e-17
-2.69382e-08
-1.45962e-08
-1.05483e-15
-2.71189e-08
3.17535e-09
-9.49367e-16
-2.71134e-08
2.22599e-08
-8.39539e-16
-2.69091e-08
4.25858e-08
-7.28607e-16
-2.64953e-08
6.40244e-08
-6.15883e-16
-2.58627e-08
8.63926e-08
-5.0182e-16
-2.5003e-08
1.09524e-07
-3.84678e-16
-2.39125e-08
1.33031e-07
-2.19086e-16
-2.25896e-08
1.5659e-07
-3.34772e-16
-2.10383e-08
1.79652e-07
-4.85362e-16
-1.92683e-08
2.01603e-07
-3.53457e-16
-1.72953e-08
2.2171e-07
-2.59697e-16
-1.51458e-08
2.38893e-07
-1.19119e-16
-1.28562e-08
2.51993e-07
-3.25924e-16
-1.04769e-08
2.59542e-07
-2.14048e-16
-8.07621e-09
2.59669e-07
-1.38553e-16
-5.74414e-09
2.50135e-07
-5.66612e-17
-3.59752e-09
2.28283e-07
7.89289e-17
-1.78766e-09
1.90777e-07
-2.29797e-17
-5.07128e-10
1.33748e-07
1.20684e-17
5.24031e-08
1.79291e-17
-2.79788e-08
-1.42695e-08
-1.05849e-15
-2.81283e-08
3.32524e-09
-9.52308e-16
-2.80884e-08
2.22201e-08
-8.4162e-16
-2.78464e-08
4.23441e-08
-7.29517e-16
-2.73914e-08
6.35697e-08
-6.15206e-16
-2.67142e-08
8.57153e-08
-4.99325e-16
-2.58064e-08
1.08617e-07
-3.79924e-16
-2.46642e-08
1.31888e-07
-2.0941e-16
-2.32861e-08
1.55212e-07
-3.32262e-16
-2.16761e-08
1.78042e-07
-4.90368e-16
-1.98438e-08
1.99771e-07
-3.55245e-16
-1.78055e-08
2.19672e-07
-2.59904e-16
-1.55879e-08
2.36676e-07
-1.16165e-16
-1.32283e-08
2.49633e-07
-3.31025e-16
-1.07781e-08
2.57092e-07
-2.16991e-16
-8.30733e-09
2.57198e-07
-1.40643e-16
-5.90805e-09
2.47736e-07
-5.77054e-17
-3.70009e-09
2.26075e-07
8.02692e-17
-1.8387e-09
1.88916e-07
-2.33238e-17
-5.21692e-10
1.32431e-07
1.09749e-17
5.18814e-08
1.64833e-17
-2.90193e-08
-1.39722e-08
-1.06184e-15
-2.91364e-08
3.44267e-09
-9.55074e-16
-2.90609e-08
2.21447e-08
-8.43634e-16
-2.87802e-08
4.20636e-08
-7.3042e-16
-2.82834e-08
6.3073e-08
-6.14547e-16
-2.7561e-08
8.4993e-08
-4.96845e-16
-2.66047e-08
1.07661e-07
-3.75125e-16
-2.54107e-08
1.30695e-07
-1.99827e-16
-2.39773e-08
1.53779e-07
-3.2971e-16
-2.23085e-08
1.76374e-07
-4.9529e-16
-2.04143e-08
1.97876e-07
-3.56805e-16
-1.8311e-08
2.17569e-07
-2.59801e-16
-1.60257e-08
2.34391e-07
-1.12908e-16
-1.35967e-08
2.47204e-07
-3.35825e-16
-1.10763e-08
2.54572e-07
-2.19761e-16
-8.53603e-09
2.54658e-07
-1.42724e-16
-6.07022e-09
2.4527e-07
-5.89849e-17
-3.80156e-09
2.23806e-07
8.09278e-17
-1.88921e-09
1.87003e-07
-2.49039e-17
-5.36106e-10
1.31078e-07
9.20477e-18
5.13453e-08
1.45425e-17
-3.00571e-08
-1.37056e-08
-1.06495e-15
-3.01406e-08
3.52653e-09
-9.57718e-16
-3.00287e-08
2.20329e-08
-8.45622e-16
-2.97086e-08
4.17438e-08
-7.31336e-16
-2.91694e-08
6.2534e-08
-6.13937e-16
-2.84016e-08
8.42251e-08
-4.9441e-16
-2.73966e-08
1.06656e-07
-3.70378e-16
-2.61506e-08
1.29449e-07
-1.90109e-16
-2.4662e-08
1.5229e-07
-3.27243e-16
-2.29347e-08
1.74647e-07
-5.00217e-16
-2.09789e-08
1.95921e-07
-3.58371e-16
-1.8811e-08
2.15401e-07
-2.59669e-16
-1.64587e-08
2.32038e-07
-1.0957e-16
-1.39608e-08
2.44706e-07
-3.40397e-16
-1.1371e-08
2.51982e-07
-2.2225e-16
-8.76204e-09
2.52049e-07
-1.44495e-16
-6.23048e-09
2.42739e-07
-5.99987e-17
-3.90184e-09
2.21477e-07
8.15184e-17
-1.93912e-09
1.85041e-07
-2.71291e-17
-5.50354e-10
1.2969e-07
7.34954e-18
5.07949e-08
1.28051e-17
-3.10894e-08
-1.34709e-08
-1.06792e-15
-3.11385e-08
3.57597e-09
-9.60304e-16
-3.09895e-08
2.1884e-08
-8.4759e-16
-3.06296e-08
4.13842e-08
-7.32285e-16
-3.00477e-08
6.19523e-08
-6.13391e-16
-2.92342e-08
8.34117e-08
-4.92034e-16
-2.81805e-08
1.05603e-07
-3.65659e-16
-2.68828e-08
1.28151e-07
-1.80554e-16
-2.53392e-08
1.50747e-07