/*--------------------------------*- C++ -*----------------------------------*\
| =========                 |                                                 |
| \\      /  F ield         | OpenFOAM: The Open Source CFD Toolbox           |
|  \\    /   O peration     | Version:  v2012                                 |
|   \\  /    A nd           | Website:  www.openfoam.com                      |
|    \\/     M anipulation  |                                                 |
\*---------------------------------------------------------------------------*/
FoamFile
{
    version     2.0;
    format      ascii;
    class       volScalarField;
    location    "0.15";
    object      p_rgh;
}
// * * * * * * * * * * * * * * * * * * * * * * * * * * * * * * * * * * * * * //

dimensions      [1 -1 -2 0 0 0 0];


internalField   nonuniform List<scalar> 
3332
(
3.50018e+06
3.50018e+06
3.50018e+06
3.50018e+06
3.50018e+06
3.50018e+06
3.50018e+06
3.50018e+06
3.50018e+06
3.50019e+06
3.50019e+06
3.50019e+06
3.50019e+06
3.50019e+06
3.50019e+06
3.50019e+06
3.50019e+06
3.5002e+06
3.5002e+06
3.5002e+06
3.5002e+06
3.5002e+06
3.50021e+06
3.50019e+06
3.50019e+06
3.50019e+06
3.50019e+06
3.50019e+06
3.5002e+06
3.5002e+06
3.5002e+06
3.5002e+06
3.5002e+06
3.50021e+06
3.50021e+06
3.50021e+06
3.50022e+06
3.50022e+06
3.5002e+06
3.5002e+06
3.5002e+06
3.5002e+06
3.50021e+06
3.50021e+06
3.50021e+06
3.50021e+06
3.50021e+06
3.50022e+06
3.50022e+06
3.50022e+06
3.50022e+06
3.50023e+06
3.50023e+06
3.50021e+06
3.50021e+06
3.50021e+06
3.50021e+06
3.50021e+06
3.50022e+06
3.50022e+06
3.50022e+06
3.50022e+06
3.50023e+06
3.50023e+06
3.50023e+06
3.50024e+06
3.50024e+06
3.50024e+06
3.50022e+06
3.50023e+06
3.50023e+06
3.50023e+06
3.50023e+06
3.50023e+06
3.50023e+06
3.50024e+06
3.50024e+06
3.50024e+06
3.50025e+06
3.50025e+06
3.50025e+06
3.50026e+06
3.50026e+06
3.50023e+06
3.50023e+06
3.50023e+06
3.50024e+06
3.50024e+06
3.50024e+06
3.50024e+06
3.50025e+06
3.50025e+06
3.50026e+06
3.50026e+06
3.50026e+06
3.50027e+06
3.50027e+06
3.50028e+06
3.50025e+06
3.50025e+06
3.50026e+06
3.50026e+06
3.50026e+06
3.50026e+06
3.50027e+06
3.50027e+06
3.50027e+06
3.50028e+06
3.50028e+06
3.50029e+06
3.50029e+06
3.50029e+06
3.5003e+06
3.50026e+06
3.50026e+06
3.50026e+06
3.50026e+06
3.50027e+06
3.50027e+06
3.50028e+06
3.50028e+06
3.50029e+06
3.50029e+06
3.5003e+06
3.5003e+06
3.50031e+06
3.50032e+06
3.50032e+06
3.50029e+06
3.50029e+06
3.5003e+06
3.5003e+06
3.5003e+06
3.5003e+06
3.50031e+06
3.50031e+06
3.50032e+06
3.50032e+06
3.50033e+06
3.50033e+06
3.50034e+06
3.50035e+06
3.50035e+06
3.50029e+06
3.50029e+06
3.5003e+06
3.5003e+06
3.50031e+06
3.50031e+06
3.50032e+06
3.50033e+06
3.50033e+06
3.50034e+06
3.50035e+06
3.50036e+06
3.50037e+06
3.50037e+06
3.50038e+06
3.50035e+06
3.50035e+06
3.50035e+06
3.50036e+06
3.50036e+06
3.50036e+06
3.50037e+06
3.50037e+06
3.50038e+06
3.50039e+06
3.50039e+06
3.5004e+06
3.50041e+06
3.50041e+06
3.50042e+06
3.50034e+06
3.50034e+06
3.50034e+06
3.50035e+06
3.50036e+06
3.50036e+06
3.50037e+06
3.50039e+06
3.5004e+06
3.50041e+06
3.50042e+06
3.50043e+06
3.50044e+06
3.50045e+06
3.50046e+06
3.50042e+06
3.50043e+06
3.50043e+06
3.50044e+06
3.50044e+06
3.50045e+06
3.50046e+06
3.50046e+06
3.50047e+06
3.50048e+06
3.50049e+06
3.5005e+06
3.5005e+06
3.50051e+06
3.50052e+06
3.50039e+06
3.5004e+06
3.5004e+06
3.50041e+06
3.50042e+06
3.50043e+06
3.50045e+06
3.50047e+06
3.50048e+06
3.5005e+06
3.50052e+06
3.50054e+06
3.50055e+06
3.50056e+06
3.50057e+06
3.50054e+06
3.50055e+06
3.50056e+06
3.50057e+06
3.50057e+06
3.50058e+06
3.50059e+06
3.5006e+06
3.50061e+06
3.50062e+06
3.50063e+06
3.50064e+06
3.50064e+06
3.50065e+06
3.50065e+06
3.50046e+06
3.50047e+06
3.50048e+06
3.50049e+06
3.50051e+06
3.50053e+06
3.50056e+06
3.50058e+06
3.50061e+06
3.50064e+06
3.50066e+06
3.50068e+06
3.5007e+06
3.50072e+06
3.50072e+06
3.50073e+06
3.50075e+06
3.50076e+06
3.50077e+06
3.50078e+06
3.50079e+06
3.5008e+06
3.50081e+06
3.50082e+06
3.50083e+06
3.50084e+06
3.50085e+06
3.50085e+06
3.50085e+06
3.50085e+06
3.50055e+06
3.50056e+06
3.50058e+06
3.5006e+06
3.50063e+06
3.50067e+06
3.50071e+06
3.50075e+06
3.50079e+06
3.50084e+06
3.50087e+06
3.5009e+06
3.50093e+06
3.50094e+06
3.50094e+06
3.50105e+06
3.50107e+06
3.50109e+06
3.50111e+06
3.50112e+06
3.50114e+06
3.50115e+06
3.50116e+06
3.50117e+06
3.50118e+06
3.50118e+06
3.50118e+06
3.50117e+06
3.50116e+06
3.50113e+06
3.50067e+06
3.50069e+06
3.50072e+06
3.50077e+06
3.50081e+06
3.50088e+06
3.50094e+06
3.50102e+06
3.50108e+06
3.50115e+06
3.50119e+06
3.50124e+06
3.50126e+06
3.50127e+06
3.50126e+06
3.50159e+06
3.50164e+06
3.50166e+06
3.5017e+06
3.50171e+06
3.50174e+06
3.50175e+06
3.50177e+06
3.50176e+06
3.50176e+06
3.50173e+06
3.50171e+06
3.50166e+06
3.50162e+06
3.50156e+06
3.50084e+06
3.50089e+06
3.50094e+06
3.50102e+06
3.5011e+06
3.50122e+06
3.50132e+06
3.50145e+06
3.50154e+06
3.50165e+06
3.5017e+06
3.50176e+06
3.50177e+06
3.50176e+06
3.50172e+06
3.50257e+06
3.50267e+06
3.5027e+06
3.50277e+06
3.50278e+06
3.50284e+06
3.50282e+06
3.50285e+06
3.50279e+06
3.50276e+06
3.50266e+06
3.50259e+06
3.50245e+06
3.50234e+06
3.50219e+06
3.50114e+06
3.50123e+06
3.50132e+06
3.50148e+06
3.50161e+06
3.50184e+06
3.50199e+06
3.50221e+06
3.50232e+06
3.50249e+06
3.50252e+06
3.50259e+06
3.50254e+06
3.5025e+06
3.50238e+06
3.50441e+06
3.50462e+06
3.50466e+06
3.50482e+06
3.50482e+06
3.50494e+06
3.50485e+06
3.50487e+06
3.50467e+06
3.50457e+06
3.50427e+06
3.50407e+06
3.50372e+06
3.50346e+06
3.50311e+06
3.50174e+06
3.50196e+06
3.50211e+06
3.50246e+06
3.50266e+06
3.5031e+06
3.50327e+06
3.50367e+06
3.50372e+06
3.50398e+06
3.50387e+06
3.50393e+06
3.50369e+06
3.50803e+06
3.50849e+06
3.50856e+06
3.50893e+06
3.50886e+06
3.50911e+06
3.50879e+06
3.50881e+06
3.50817e+06
3.50793e+06
3.50706e+06
3.5066e+06
3.50571e+06
3.50328e+06
3.50381e+06
3.50408e+06
3.50483e+06
3.50506e+06
3.50592e+06
3.50593e+06
3.50665e+06
3.5063e+06
3.50669e+06
3.50601e+06
3.50607e+06
3.5053e+06
3.51546e+06
3.5165e+06
3.51665e+06
3.51749e+06
3.5172e+06
3.51777e+06
3.51674e+06
3.51677e+06
3.51486e+06
3.51428e+06
3.51183e+06
3.51089e+06
3.50869e+06
3.50765e+06
3.50898e+06
3.50942e+06
3.51099e+06
3.51103e+06
3.51264e+06
3.51181e+06
3.51301e+06
3.51107e+06
3.51172e+06
3.50909e+06
3.50932e+06
3.50714e+06
3.53144e+06
3.53377e+06
3.53405e+06
3.5359e+06
3.53498e+06
3.5362e+06
3.5332e+06
3.53325e+06
3.52772e+06
3.52664e+06
3.51946e+06
3.51792e+06
3.51252e+06
3.52051e+06
3.52369e+06
3.52423e+06
3.52725e+06
3.52623e+06
3.5289e+06
3.52508e+06
3.52688e+06
3.51964e+06
3.52102e+06
3.51173e+06
3.51362e+06
3.50787e+06
3.56664e+06
3.57134e+06
3.57178e+06
3.57532e+06
3.57293e+06
3.57527e+06
3.56769e+06
3.5681e+06
3.55299e+06
3.5519e+06
3.52906e+06
3.52826e+06
3.5153e+06
3.5568e+06
3.56312e+06
3.56321e+06
3.56787e+06
3.56376e+06
3.56712e+06
3.55542e+06
3.55742e+06
3.5345e+06
3.53816e+06
3.50439e+06
3.51702e+06
3.50324e+06
3.64142e+06
3.64833e+06
3.64868e+06
3.65384e+06
3.64957e+06
3.65365e+06
3.63971e+06
3.64254e+06
3.6083e+06
3.61238e+06
3.52701e+06
3.53633e+06
3.50982e+06
3.64574e+06
3.65356e+06
3.65216e+06
3.65679e+06
3.64833e+06
3.65062e+06
3.62698e+06
3.62694e+06
3.56779e+06
3.5716e+06
3.43232e+06
3.51041e+06
3.48741e+06
3.77408e+06
3.77793e+06
3.77819e+06
3.78276e+06
3.78099e+06
3.7871e+06
3.78172e+06
3.79191e+06
3.78206e+06
3.8061e+06
3.80501e+06
3.80779e+06
3.80699e+06
3.80965e+06
3.80677e+06
3.80945e+06
3.8038e+06
3.80722e+06
3.80136e+06
3.80846e+06
3.92541e+06
3.92638e+06
3.92624e+06
3.92807e+06
3.92748e+06
3.93003e+06
3.92876e+06
3.93184e+06
3.93054e+06
3.93335e+06
3.97781e+06
3.97838e+06
3.97795e+06
3.9789e+06
3.97813e+06
3.97935e+06
3.97829e+06
3.97976e+06
3.9791e+06
3.98087e+06
4.07492e+06
4.07482e+06
4.0748e+06
4.07532e+06
4.07539e+06
4.07619e+06
4.07612e+06
4.07676e+06
4.07652e+06
4.07677e+06
4.14953e+06
4.14922e+06
4.149e+06
4.14911e+06
4.14905e+06
4.14922e+06
4.14906e+06
4.14891e+06
4.14867e+06
4.14847e+06
4.22072e+06
4.21913e+06
4.21984e+06
4.22053e+06
4.2223e+06
4.22326e+06
4.22466e+06
4.22419e+06
4.22448e+06
4.22352e+06
4.31801e+06
4.31594e+06
4.31641e+06
4.31738e+06
4.31928e+06
4.32003e+06
4.32076e+06
4.31841e+06
4.31723e+06
4.31363e+06
4.34555e+06
4.34176e+06
4.34712e+06
4.35479e+06
4.36539e+06
4.37205e+06
4.3781e+06
4.37394e+06
4.37264e+06
4.36278e+06
4.45762e+06
4.45263e+06
4.45912e+06
4.47317e+06
4.48914e+06
4.50078e+06
4.50641e+06
4.49838e+06
4.49008e+06
4.4479e+06
4.46169e+06
4.46925e+06
4.4772e+06
4.48397e+06
4.48986e+06
4.49375e+06
4.4958e+06
4.49466e+06
4.49183e+06
4.46747e+06
4.48916e+06
4.48916e+06
4.48888e+06
4.48787e+06
4.48695e+06
4.4861e+06
4.48597e+06
4.48623e+06
4.4871e+06
4.48782e+06
4.48614e+06
4.48568e+06
4.48653e+06
4.48712e+06
4.48836e+06
4.48902e+06
4.48952e+06
4.4887e+06
4.48808e+06
4.48604e+06
4.4877e+06
4.48776e+06
4.48761e+06
4.48747e+06
4.48741e+06
4.48735e+06
4.48738e+06
4.48735e+06
4.48733e+06
4.48743e+06
4.48805e+06
4.48792e+06
4.48808e+06
4.48811e+06
4.48833e+06
4.48837e+06
4.48845e+06
4.48823e+06
4.48813e+06
4.48789e+06
4.48811e+06
4.48812e+06
4.4881e+06
4.48808e+06
4.48809e+06
4.48809e+06
4.48811e+06
4.48809e+06
4.48808e+06
4.48809e+06
4.48871e+06
4.48868e+06
4.48871e+06
4.4887e+06
4.48873e+06
4.48872e+06
4.48872e+06
4.48867e+06
4.48864e+06
4.48861e+06
4.48879e+06
4.48879e+06
4.48879e+06
4.48879e+06
4.4888e+06
4.48881e+06
4.48881e+06
4.48881e+06
4.48881e+06
4.48881e+06
4.48929e+06
4.48929e+06
4.48929e+06
4.48929e+06
4.48929e+06
4.48928e+06
4.48927e+06
4.48926e+06
4.48925e+06
4.48924e+06
4.48949e+06
4.48949e+06
4.48949e+06
4.48949e+06
4.4895e+06
4.4895e+06
4.4895e+06
4.4895e+06
4.4895e+06
4.4895e+06
4.4899e+06
4.4899e+06
4.4899e+06
4.4899e+06
4.4899e+06
4.4899e+06
4.48989e+06
4.48989e+06
4.48988e+06
4.48988e+06
4.49017e+06
4.49016e+06
4.49017e+06
4.49017e+06
4.49017e+06
4.49017e+06
4.49018e+06
4.49018e+06
4.49018e+06
4.49018e+06
4.49054e+06
4.49054e+06
4.49054e+06
4.49054e+06
4.49054e+06
4.49054e+06
4.49053e+06
4.49053e+06
4.49053e+06
4.49053e+06
4.49083e+06
4.49083e+06
4.49083e+06
4.49083e+06
4.49084e+06
4.49084e+06
4.49084e+06
4.49084e+06
4.49084e+06
4.49084e+06
4.49119e+06
4.49119e+06
4.49119e+06
4.49119e+06
4.49118e+06
4.49118e+06
4.49118e+06
4.49118e+06
4.49118e+06
4.49118e+06
4.49149e+06
4.49149e+06
4.49149e+06
4.49149e+06
4.49149e+06
4.49149e+06
4.4915e+06
4.4915e+06
4.4915e+06
4.4915e+06
4.49183e+06
4.49183e+06
4.49183e+06
4.49183e+06
4.49183e+06
4.49183e+06
4.49183e+06
4.49184e+06
4.49184e+06
4.49184e+06
4.49213e+06
4.49213e+06
4.49213e+06
4.49213e+06
4.49214e+06
4.49214e+06
4.49215e+06
4.49216e+06
4.49216e+06
4.49216e+06
4.49247e+06
4.49247e+06
4.49247e+06
4.49247e+06
4.49247e+06
4.49247e+06
4.49248e+06
4.49249e+06
4.4925e+06
4.4925e+06
4.49275e+06
4.49275e+06
4.49275e+06
4.49276e+06
4.49276e+06
4.49278e+06
4.49279e+06
4.49281e+06
4.49281e+06
4.49282e+06
4.4931e+06
4.4931e+06
4.4931e+06
4.4931e+06
4.49311e+06
4.49312e+06
4.49313e+06
4.49314e+06
4.49315e+06
4.49316e+06
4.49336e+06
4.49336e+06
4.49336e+06
4.49337e+06
4.49338e+06
4.4934e+06
4.49342e+06
4.49344e+06
4.49345e+06
4.49346e+06
4.49376e+06
4.49376e+06
4.49376e+06
4.49376e+06
4.49377e+06
4.49377e+06
4.49378e+06
4.49379e+06
4.4938e+06
4.49381e+06
4.49398e+06
4.49398e+06
4.49399e+06
4.494e+06
4.49401e+06
4.49402e+06
4.49403e+06
4.49403e+06
4.49404e+06
4.49404e+06
4.49451e+06
4.49451e+06
4.49452e+06
4.49451e+06
4.4945e+06
4.49447e+06
4.49445e+06
4.49442e+06
4.49442e+06
4.49443e+06
4.49469e+06
4.4947e+06
4.49471e+06
4.4947e+06
4.49468e+06
4.49463e+06
4.49459e+06
4.49452e+06
4.49449e+06
4.49447e+06
4.49548e+06
4.49549e+06
4.4955e+06
4.49547e+06
4.49542e+06
4.49532e+06
4.49521e+06
4.49508e+06
4.49503e+06
4.49502e+06
4.49563e+06
4.49564e+06
4.49563e+06
4.49558e+06
4.49549e+06
4.49531e+06
4.49512e+06
4.49483e+06
4.49464e+06
4.49445e+06
4.49683e+06
4.49683e+06
4.49683e+06
4.49678e+06
4.4967e+06
4.49653e+06
4.49635e+06
4.49606e+06
4.49586e+06
4.49579e+06
4.49693e+06
4.49694e+06
4.4969e+06
4.49681e+06
4.49666e+06
4.49636e+06
4.49599e+06
4.49523e+06
4.49451e+06
4.493e+06
4.49836e+06
4.49832e+06
4.49832e+06
4.4983e+06
4.49829e+06
4.49824e+06
4.49819e+06
4.49804e+06
4.49799e+06
4.49753e+06
4.49916e+06
4.4993e+06
4.49966e+06
4.49974e+06
4.49985e+06
4.49989e+06
4.49993e+06
4.4984e+06
4.49836e+06
4.49836e+06
4.49835e+06
4.49836e+06
4.49835e+06
4.49838e+06
4.49836e+06
4.49851e+06
4.49848e+06
4.49938e+06
4.49946e+06
4.49971e+06
4.49977e+06
4.49986e+06
4.49989e+06
4.49992e+06
4.49925e+06
4.49922e+06
4.49921e+06
4.49921e+06
4.49923e+06
4.49923e+06
4.49927e+06
4.49927e+06
4.49936e+06
4.49936e+06
4.49962e+06
4.49964e+06
4.49977e+06
4.49981e+06
4.49987e+06
4.4999e+06
4.49993e+06
4.49926e+06
4.49922e+06
4.49923e+06
4.49923e+06
4.49926e+06
4.49928e+06
4.49933e+06
4.49936e+06
4.49945e+06
4.4995e+06
4.49967e+06
4.49971e+06
4.49981e+06
4.49984e+06
4.49989e+06
4.49991e+06
4.49993e+06
4.49967e+06
4.49965e+06
4.49964e+06
4.49964e+06
4.49965e+06
4.49966e+06
4.49968e+06
4.49969e+06
4.49973e+06
4.49974e+06
4.4998e+06
4.49982e+06
4.49986e+06
4.49988e+06
4.49991e+06
4.49993e+06
4.49994e+06
4.49965e+06
4.49964e+06
4.49964e+06
4.49964e+06
4.49965e+06
4.49967e+06
4.49969e+06
4.49971e+06
4.49975e+06
4.49977e+06
4.49982e+06
4.49984e+06
4.49988e+06
4.4999e+06
4.49992e+06
4.49993e+06
4.49995e+06
4.49984e+06
4.49983e+06
4.49983e+06
4.49983e+06
4.49983e+06
4.49983e+06
4.49984e+06
4.49985e+06
4.49986e+06
4.49987e+06
4.49989e+06
4.4999e+06
4.49991e+06
4.49992e+06
4.49994e+06
4.49995e+06
4.49996e+06
4.49983e+06
4.49982e+06
4.49982e+06
4.49982e+06
4.49983e+06
4.49983e+06
4.49984e+06
4.49985e+06
4.49987e+06
4.49988e+06
4.4999e+06
4.49991e+06
4.49992e+06
4.49993e+06
4.49995e+06
4.49995e+06
4.49996e+06
4.49992e+06
4.49991e+06
4.49991e+06
4.49991e+06
4.49991e+06
4.49991e+06
4.49991e+06
4.49992e+06
4.49992e+06
4.49993e+06
4.49993e+06
4.49994e+06
4.49995e+06
4.49995e+06
4.49996e+06
4.49996e+06
4.49997e+06
4.49991e+06
4.49991e+06
4.49991e+06
4.49991e+06
4.49991e+06
4.49991e+06
4.49992e+06
4.49992e+06
4.49993e+06
4.49993e+06
4.49994e+06
4.49994e+06
4.49995e+06
4.49996e+06
4.49996e+06
4.49997e+06
4.49997e+06
4.49995e+06
4.49995e+06
4.49995e+06
4.49995e+06
4.49995e+06
4.49995e+06
4.49995e+06
4.49995e+06
4.49995e+06
4.49995e+06
4.49996e+06
4.49996e+06
4.49996e+06
4.49997e+06
4.49997e+06
4.49997e+06
4.49998e+06
4.49998e+06
4.49998e+06
4.49995e+06
4.49995e+06
4.49995e+06
4.49995e+06
4.49995e+06
4.49995e+06
4.49995e+06
4.49995e+06
4.49996e+06
4.49996e+06
4.49996e+06
4.49996e+06
4.49997e+06
4.49997e+06
4.49997e+06
4.49998e+06
4.49998e+06
4.49998e+06
4.49998e+06
4.49997e+06
4.49997e+06
4.49997e+06
4.49997e+06
4.49997e+06
4.49997e+06
4.49997e+06
4.49997e+06
4.49997e+06
4.49997e+06
4.49997e+06
4.49997e+06
4.49998e+06
4.49998e+06
4.49998e+06
4.49998e+06
4.49998e+06
4.49998e+06
4.49999e+06
4.49997e+06
4.49997e+06
4.49997e+06
4.49997e+06
4.49997e+06
4.49997e+06
4.49997e+06
4.49997e+06
4.49997e+06
4.49997e+06
4.49997e+06
4.49998e+06
4.49998e+06
4.49998e+06
4.49998e+06
4.49998e+06
4.49998e+06
4.49999e+06
4.49999e+06
4.49998e+06
4.49998e+06
4.49998e+06
4.49998e+06
4.49998e+06
4.49998e+06
4.49998e+06
4.49998e+06
4.49998e+06
4.49998e+06
4.49998e+06
4.49998e+06
4.49998e+06
4.49998e+06
4.49998e+06
4.49999e+06
4.49999e+06
4.49999e+06
4.49999e+06
4.49998e+06
4.49998e+06
4.49998e+06
4.49998e+06
4.49998e+06
4.49998e+06
4.49998e+06
4.49998e+06
4.49998e+06
4.49998e+06
4.49998e+06
4.49998e+06
4.49998e+06
4.49999e+06
4.49999e+06
4.49999e+06
4.49999e+06
4.49999e+06
4.49999e+06
4.49999e+06
4.49999e+06
4.49999e+06
4.49999e+06
4.49999e+06
4.49999e+06
4.49999e+06
4.49999e+06
4.49999e+06
4.49999e+06
4.49999e+06
4.49999e+06
4.49999e+06
4.49999e+06
4.49999e+06
4.49999e+06
4.49999e+06
4.49999e+06
4.49999e+06
4.49999e+06
4.49999e+06
4.49999e+06
4.49999e+06
4.49999e+06
4.49999e+06
4.49999e+06
4.49999e+06
4.49999e+06
4.49999e+06
4.49999e+06
4.49999e+06
4.49999e+06
4.49999e+06
4.49999e+06
4.49999e+06
4.49999e+06
4.49999e+06
4.49999e+06
4.49999e+06
4.49999e+06
4.49999e+06
4.49999e+06
4.49999e+06
4.49999e+06
4.49999e+06
4.49999e+06
4.49999e+06
4.49999e+06
4.49999e+06
4.49999e+06
4.49999e+06
4.49999e+06
4.49999e+06
4.49999e+06
4.49999e+06
4.49999e+06
4.49999e+06
4.49999e+06
4.49999e+06
4.49999e+06
4.49999e+06
4.49999e+06
4.49999e+06
4.49999e+06
4.49999e+06
4.49999e+06
4.49999e+06
4.49999e+06
4.49999e+06
4.49999e+06
4.49999e+06
4.49999e+06
4.49999e+06
4.49999e+06
4.49999e+06
4.49999e+06
4.49999e+06
4.49999e+06
4.49999e+06
4.49999e+06
4.49999e+06
4.49999e+06
4.49999e+06
4.49999e+06
4.49999e+06
4.49999e+06
4.49999e+06
4.49999e+06
4.49999e+06
4.49999e+06
4.49999e+06
4.49999e+06
4.49999e+06
4.49999e+06
4.49999e+06
4.49999e+06
4.49999e+06
4.49999e+06
4.49999e+06
4.49999e+06
4.49999e+06
4.49999e+06
4.49999e+06
4.49999e+06
4.49999e+06
4.49999e+06
4.49999e+06
4.49999e+06
4.49999e+06
4.49999e+06
4.49999e+06
4.49999e+06
4.5e+06
4.5e+06
4.49999e+06
4.49999e+06
4.49999e+06
4.49999e+06
4.49999e+06
4.49999e+06
4.49999e+06
4.49999e+06
4.49999e+06
4.49999e+06
4.49999e+06
4.49999e+06
4.49999e+06
4.49999e+06
4.5e+06
4.5e+06
4.5e+06
4.5e+06
4.5e+06
4.5e+06
4.5e+06
4.5e+06
4.5e+06
4.5e+06
4.5e+06
4.5e+06
4.5e+06
4.5e+06
4.5e+06
4.5e+06
4.5e+06
4.5e+06
4.5e+06
4.5e+06
4.5e+06
4.5e+06
4.5e+06
4.5e+06
4.5e+06
4.5e+06
4.5e+06
4.5e+06
4.5e+06
4.5e+06
4.5e+06
4.5e+06
4.5e+06
4.5e+06
4.5e+06
4.5e+06
4.5e+06
4.5e+06
4.5e+06
4.5e+06
4.5e+06
4.5e+06
4.5e+06
4.5e+06
4.5e+06
4.5e+06
4.5e+06
4.5e+06
4.5e+06
4.5e+06
4.5e+06
4.5e+06
4.5e+06
4.5e+06
4.5e+06
4.5e+06
4.5e+06
4.5e+06
4.5e+06
4.5e+06
4.5e+06
4.5e+06
4.5e+06
4.5e+06
4.5e+06
4.5e+06
4.5e+06
4.5e+06
4.5e+06
4.5e+06
4.5e+06
4.5e+06
4.5e+06
4.5e+06
4.5e+06
4.5e+06
4.5e+06
4.5e+06
4.5e+06
4.5e+06
4.5e+06
4.5e+06
4.5e+06
4.5e+06
4.5e+06
4.5e+06
4.5e+06
4.5e+06
4.5e+06
4.5e+06
4.5e+06
4.5e+06
4.5e+06
4.5e+06
4.5e+06
4.5e+06
4.5e+06
4.5e+06
4.5e+06
4.5e+06
4.5e+06
4.5e+06
4.5e+06
4.5e+06
4.5e+06
4.5e+06
4.5e+06
4.5e+06
4.5e+06
4.5e+06
4.5e+06
4.5e+06
4.5e+06
4.5e+06
4.5e+06
4.5e+06
4.5e+06
4.5e+06
4.5e+06
4.5e+06
4.5e+06
4.5e+06
4.5e+06
4.5e+06
4.5e+06
4.5e+06
4.5e+06
4.5e+06
4.5e+06
4.5e+06
4.5e+06
4.5e+06
4.5e+06
4.5e+06
4.5e+06
4.5e+06
4.5e+06
4.5e+06
4.5e+06
4.5e+06
4.5e+06
4.5e+06
4.5e+06
4.5e+06
4.5e+06
4.5e+06
4.5e+06
4.5e+06
4.5e+06
4.5e+06
4.5e+06
4.5e+06
4.5e+06
4.5e+06
4.5e+06
4.5e+06
4.5e+06
4.5e+06
4.5e+06
4.5e+06
4.5e+06
4.5e+06
4.5e+06
4.5e+06
4.5e+06
4.5e+06
4.5e+06
4.5e+06
4.5e+06
4.5e+06
4.5e+06
4.5e+06
4.5e+06
4.5e+06
4.5e+06
4.5e+06
4.5e+06
4.5e+06
4.5e+06
4.5e+06
4.5e+06
4.5e+06
4.5e+06
4.5e+06
4.5e+06
4.5e+06
4.5e+06
4.5e+06
4.5e+06
4.5e+06
4.5e+06
4.5e+06
4.5e+06
4.5e+06
4.5e+06
4.5e+06
4.5e+06
4.5e+06
4.5e+06
4.5e+06
4.5e+06
4.5e+06
4.5e+06
4.5e+06
4.5e+06
4.5e+06
4.5e+06
4.5e+06
4.5e+06
4.5e+06
4.5e+06
4.5e+06
4.5e+06
4.5e+06
4.5e+06
4.5e+06
4.5e+06
4.5e+06
4.5e+06
4.5e+06
4.5e+06
4.5e+06
4.5e+06
4.5e+06
4.5e+06
4.5e+06
4.5e+06
4.5e+06
4.5e+06
4.5e+06
4.5e+06
4.5e+06
4.5e+06
4.5e+06
4.5e+06
4.5e+06
4.5e+06
4.5e+06
4.5e+06
4.5e+06
4.5e+06
4.5e+06
4.5e+06
4.5e+06
4.5e+06
4.5e+06
4.5e+06
4.5e+06
4.5e+06
4.5e+06
4.5e+06
4.5e+06
4.5e+06
4.5e+06
4.5e+06
4.5e+06
4.5e+06
4.5e+06
4.5e+06
4.5e+06
4.5e+06
4.5e+06
4.5e+06
4.5e+06
4.5e+06
4.5e+06
4.5e+06
4.5e+06
4.5e+06
4.5e+06
4.5e+06
4.5e+06
4.5e+06
4.5e+06
4.5e+06
4.5e+06
4.5e+06
4.5e+06
4.5e+06
4.5e+06
4.5e+06
4.5e+06
4.5e+06
4.5e+06
4.5e+06
4.5e+06
4.5e+06
4.5e+06
4.5e+06
4.5e+06
4.5e+06
4.5e+06
4.5e+06
4.5e+06
4.5e+06
4.5e+06
4.5e+06
4.5e+06
4.5e+06
4.5e+06
4.5e+06
4.5e+06
4.5e+06
4.5e+06
4.5e+06
4.5e+06
4.5e+06
4.5e+06
4.5e+06
4.5e+06
4.5e+06
4.5e+06
4.5e+06
4.5e+06
4.5e+06
4.5e+06
4.5e+06
4.5e+06
4.5e+06
4.5e+06
4.5e+06
4.5e+06
4.5e+06
4.5e+06
4.5e+06
4.5e+06
4.5e+06
4.5e+06
3.50018e+06
3.50018e+06
3.50018e+06
3.50018e+06
3.50018e+06
3.50018e+06
3.50018e+06
3.50018e+06
3.50018e+06
3.50019e+06
3.50019e+06
3.50019e+06
3.50019e+06
3.50019e+06
3.50019e+06
3.50019e+06
3.50019e+06
3.5002e+06
3.5002e+06
3.5002e+06
3.5002e+06
3.5002e+06
3.50021e+06
3.50019e+06
3.50019e+06
3.50019e+06
3.50019e+06
3.50019e+06
3.5002e+06
3.5002e+06
3.5002e+06
3.5002e+06
3.5002e+06
3.50021e+06
3.50021e+06
3.50021e+06
3.50022e+06
3.50022e+06
3.5002e+06
3.5002e+06
3.5002e+06
3.5002e+06
3.50021e+06
3.50021e+06
3.50021e+06
3.50021e+06
3.50021e+06
3.50022e+06
3.50022e+06
3.50022e+06
3.50022e+06
3.50023e+06
3.50023e+06
3.50021e+06
3.50021e+06
3.50021e+06
3.50021e+06
3.50021e+06
3.50022e+06
3.50022e+06
3.50022e+06
3.50022e+06
3.50023e+06
3.50023e+06
3.50023e+06
3.50024e+06
3.50024e+06
3.50024e+06
3.50022e+06
3.50023e+06
3.50023e+06
3.50023e+06
3.50023e+06
3.50023e+06
3.50023e+06
3.50024e+06
3.50024e+06
3.50024e+06
3.50025e+06
3.50025e+06
3.50025e+06
3.50026e+06
3.50026e+06
3.50023e+06
3.50023e+06
3.50023e+06
3.50024e+06
3.50024e+06
3.50024e+06
3.50024e+06
3.50025e+06
3.50025e+06
3.50026e+06
3.50026e+06
3.50026e+06
3.50027e+06
3.50027e+06
3.50028e+06
3.50025e+06
3.50025e+06
3.50026e+06
3.50026e+06
3.50026e+06
3.50026e+06
3.50027e+06
3.50027e+06
3.50027e+06
3.50028e+06
3.50028e+06
3.50029e+06
3.50029e+06
3.50029e+06
3.5003e+06
3.50026e+06
3.50026e+06
3.50026e+06
3.50026e+06
3.50027e+06
3.50027e+06
3.50028e+06
3.50028e+06
3.50029e+06
3.50029e+06
3.5003e+06
3.5003e+06
3.50031e+06
3.50032e+06
3.50032e+06
3.50029e+06
3.50029e+06
3.5003e+06
3.5003e+06
3.5003e+06
3.5003e+06
3.50031e+06
3.50031e+06
3.50032e+06
3.50032e+06
3.50033e+06
3.50033e+06
3.50034e+06
3.50035e+06
3.50035e+06
3.50029e+06
3.50029e+06
3.5003e+06
3.5003e+06
3.50031e+06
3.50031e+06
3.50032e+06
3.50033e+06
3.50033e+06
3.50034e+06
3.50035e+06
3.50036e+06
3.50037e+06
3.50037e+06
3.50038e+06
3.50035e+06
3.50035e+06
3.50035e+06
3.50036e+06
3.50036e+06
3.50036e+06
3.50037e+06
3.50037e+06
3.50038e+06
3.50039e+06
3.50039e+06
3.5004e+06
3.50041e+06
3.50041e+06
3.50042e+06
3.50034e+06
3.50034e+06
3.50034e+06
3.50035e+06
3.50036e+06
3.50036e+06
3.50037e+06
3.50039e+06
3.5004e+06
3.50041e+06
3.50042e+06
3.50043e+06
3.50044e+06
3.50045e+06
3.50046e+06
3.50042e+06
3.50043e+06
3.50043e+06
3.50044e+06
3.50044e+06
3.50045e+06
3.50046e+06
3.50046e+06
3.50047e+06
3.50048e+06
3.50049e+06
3.5005e+06
3.5005e+06
3.50051e+06
3.50052e+06
3.50039e+06
3.5004e+06
3.5004e+06
3.50041e+06
3.50042e+06
3.50043e+06
3.50045e+06
3.50047e+06
3.50048e+06
3.5005e+06
3.50052e+06
3.50054e+06
3.50055e+06
3.50056e+06
3.50057e+06
3.50054e+06
3.50055e+06
3.50056e+06
3.50057e+06
3.50057e+06
3.50058e+06
3.50059e+06
3.5006e+06
3.50061e+06
3.50062e+06
3.50063e+06
3.50064e+06
3.50064e+06
3.50065e+06
3.50065e+06
3.50046e+06
3.50047e+06
3.50048e+06
3.50049e+06
3.50051e+06
3.50053e+06
3.50056e+06
3.50058e+06
3.50061e+06
3.50064e+06
3.50066e+06
3.50068e+06
3.5007e+06
3.50072e+06
3.50072e+06
3.50073e+06
3.50075e+06
3.50076e+06
3.50077e+06
3.50078e+06
3.50079e+06
3.5008e+06
3.50081e+06
3.50082e+06
3.50083e+06
3.50084e+06
3.50085e+06
3.50085e+06
3.50085e+06
3.50085e+06
3.50055e+06
3.50056e+06
3.50058e+06
3.5006e+06
3.50063e+06
3.50067e+06
3.50071e+06
3.50075e+06
3.50079e+06
3.50084e+06
3.50087e+06
3.5009e+06
3.50093e+06
3.50094e+06
3.50094e+06
3.50105e+06
3.50107e+06
3.50109e+06
3.50111e+06
3.50112e+06
3.50114e+06
3.50115e+06
3.50116e+06
3.50117e+06
3.50118e+06
3.50118e+06
3.50118e+06
3.50117e+06
3.50116e+06
3.50113e+06
3.50067e+06
3.50069e+06
3.50072e+06
3.50077e+06
3.50081e+06
3.50088e+06
3.50094e+06
3.50102e+06
3.50108e+06
3.50115e+06
3.50119e+06
3.50124e+06
3.50126e+06
3.50127e+06
3.50126e+06
3.50159e+06
3.50164e+06
3.50166e+06
3.5017e+06
3.50171e+06
3.50174e+06
3.50175e+06
3.50177e+06
3.50176e+06
3.50176e+06
3.50173e+06
3.50171e+06
3.50166e+06
3.50162e+06
3.50156e+06
3.50084e+06
3.50089e+06
3.50094e+06
3.50102e+06
3.5011e+06
3.50122e+06
3.50132e+06
3.50145e+06
3.50154e+06
3.50165e+06
3.5017e+06
3.50176e+06
3.50177e+06
3.50176e+06
3.50172e+06
3.50257e+06
3.50267e+06
3.5027e+06
3.50277e+06
3.50278e+06
3.50284e+06
3.50282e+06
3.50285e+06
3.50279e+06
3.50276e+06
3.50266e+06
3.50259e+06
3.50245e+06
3.50234e+06
3.50219e+06
3.50114e+06
3.50123e+06
3.50132e+06
3.50148e+06
3.50161e+06
3.50184e+06
3.50199e+06
3.50221e+06
3.50232e+06
3.50249e+06
3.50252e+06
3.50259e+06
3.50254e+06
3.5025e+06
3.50238e+06
3.50441e+06
3.50462e+06
3.50466e+06
3.50482e+06
3.50482e+06
3.50494e+06
3.50485e+06
3.50487e+06
3.50467e+06
3.50457e+06
3.50427e+06
3.50407e+06
3.50372e+06
3.50346e+06
3.50311e+06
3.50174e+06
3.50196e+06
3.50211e+06
3.50246e+06
3.50266e+06
3.5031e+06
3.50327e+06
3.50367e+06
3.50372e+06
3.50398e+06
3.50387e+06
3.50393e+06
3.50369e+06
3.50803e+06
3.50849e+06
3.50856e+06
3.50893e+06
3.50886e+06
3.50911e+06
3.50879e+06
3.50881e+06
3.50817e+06
3.50793e+06
3.50706e+06
3.5066e+06
3.50571e+06
3.50328e+06
3.50381e+06
3.50408e+06
3.50483e+06
3.50506e+06
3.50592e+06
3.50593e+06
3.50665e+06
3.5063e+06
3.50669e+06
3.50601e+06
3.50607e+06
3.5053e+06
3.51546e+06
3.5165e+06
3.51665e+06
3.51749e+06
3.5172e+06
3.51777e+06
3.51674e+06
3.51677e+06
3.51486e+06
3.51428e+06
3.51183e+06
3.51089e+06
3.50869e+06
3.50765e+06
3.50898e+06
3.50942e+06
3.51099e+06
3.51103e+06
3.51264e+06
3.51181e+06
3.51301e+06
3.51107e+06
3.51172e+06
3.50909e+06
3.50932e+06
3.50714e+06
3.53144e+06
3.53377e+06
3.53405e+06
3.5359e+06
3.53498e+06
3.5362e+06
3.5332e+06
3.53325e+06
3.52772e+06
3.52664e+06
3.51946e+06
3.51792e+06
3.51252e+06
3.52051e+06
3.52369e+06
3.52423e+06
3.52725e+06
3.52623e+06
3.5289e+06
3.52508e+06
3.52688e+06
3.51964e+06
3.52102e+06
3.51173e+06
3.51362e+06
3.50787e+06
3.56664e+06
3.57134e+06
3.57178e+06
3.57532e+06
3.57293e+06
3.57527e+06
3.56769e+06
3.5681e+06
3.55299e+06
3.5519e+06
3.52906e+06
3.52826e+06
3.5153e+06
3.5568e+06
3.56312e+06
3.56321e+06
3.56787e+06
3.56376e+06
3.56712e+06
3.55542e+06
3.55742e+06
3.5345e+06
3.53816e+06
3.50439e+06
3.51702e+06
3.50324e+06
3.64142e+06
3.64833e+06
3.64868e+06
3.65384e+06
3.64957e+06
3.65365e+06
3.63971e+06
3.64254e+06
3.6083e+06
3.61238e+06
3.52701e+06
3.53633e+06
3.50982e+06
3.64574e+06
3.65356e+06
3.65216e+06
3.65679e+06
3.64833e+06
3.65062e+06
3.62698e+06
3.62694e+06
3.56779e+06
3.5716e+06
3.43232e+06
3.51041e+06
3.48741e+06
3.77408e+06
3.77793e+06
3.77819e+06
3.78276e+06
3.78099e+06
3.7871e+06
3.78172e+06
3.79191e+06
3.78206e+06
3.8061e+06
3.80501e+06
3.80779e+06
3.80699e+06
3.80965e+06
3.80677e+06
3.80945e+06
3.8038e+06
3.80722e+06
3.80136e+06
3.80846e+06
3.92541e+06
3.92638e+06
3.92624e+06
3.92807e+06
3.92748e+06
3.93003e+06
3.92876e+06
3.93184e+06
3.93055e+06
3.93335e+06
3.97781e+06
3.97838e+06
3.97795e+06
3.9789e+06
3.97813e+06
3.97935e+06
3.97829e+06
3.97976e+06
3.9791e+06
3.98087e+06
4.07492e+06
4.07482e+06
4.07481e+06
4.07532e+06
4.07539e+06
4.07619e+06
4.07612e+06
4.07676e+06
4.07652e+06
4.07677e+06
4.14953e+06
4.14922e+06
4.149e+06
4.14911e+06
4.14905e+06
4.14922e+06
4.14906e+06
4.14891e+06
4.14867e+06
4.14847e+06
4.22072e+06
4.21913e+06
4.21984e+06
4.22053e+06
4.2223e+06
4.22326e+06
4.22466e+06
4.22419e+06
4.22448e+06
4.22352e+06
4.31801e+06
4.31594e+06
4.31641e+06
4.31738e+06
4.31928e+06
4.32003e+06
4.32076e+06
4.31841e+06
4.31723e+06
4.31363e+06
4.34555e+06
4.34176e+06
4.34712e+06
4.35479e+06
4.36539e+06
4.37205e+06
4.3781e+06
4.37394e+06
4.37265e+06
4.36278e+06
4.45762e+06
4.45263e+06
4.45912e+06
4.47317e+06
4.48914e+06
4.50078e+06
4.50641e+06
4.49838e+06
4.49008e+06
4.4479e+06
4.46169e+06
4.46925e+06
4.4772e+06
4.48397e+06
4.48986e+06
4.49375e+06
4.4958e+06
4.49466e+06
4.49183e+06
4.46747e+06
4.48916e+06
4.48916e+06
4.48888e+06
4.48787e+06
4.48695e+06
4.4861e+06
4.48597e+06
4.48623e+06
4.4871e+06
4.48782e+06
4.48614e+06
4.48568e+06
4.48653e+06
4.48712e+06
4.48836e+06
4.48902e+06
4.48952e+06
4.4887e+06
4.48808e+06
4.48604e+06
4.4877e+06
4.48776e+06
4.48761e+06
4.48747e+06
4.48741e+06
4.48735e+06
4.48738e+06
4.48735e+06
4.48733e+06
4.48743e+06
4.48805e+06
4.48792e+06
4.48808e+06
4.48811e+06
4.48833e+06
4.48837e+06
4.48845e+06
4.48823e+06
4.48813e+06
4.48789e+06
4.48811e+06
4.48812e+06
4.4881e+06
4.48808e+06
4.48809e+06
4.48809e+06
4.48811e+06
4.48809e+06
4.48808e+06
4.48809e+06
4.48871e+06
4.48868e+06
4.48871e+06
4.4887e+06
4.48873e+06
4.48872e+06
4.48872e+06
4.48867e+06
4.48864e+06
4.48861e+06
4.48879e+06
4.48879e+06
4.48879e+06
4.48879e+06
4.4888e+06
4.48881e+06
4.48881e+06
4.48881e+06
4.48881e+06
4.48881e+06
4.48929e+06
4.48929e+06
4.48929e+06
4.48929e+06
4.48929e+06
4.48928e+06
4.48927e+06
4.48926e+06
4.48925e+06
4.48924e+06
4.48949e+06
4.48949e+06
4.48949e+06
4.48949e+06
4.4895e+06
4.4895e+06
4.4895e+06
4.4895e+06
4.4895e+06
4.4895e+06
4.4899e+06
4.4899e+06
4.4899e+06
4.4899e+06
4.4899e+06
4.4899e+06
4.48989e+06
4.48989e+06
4.48988e+06
4.48988e+06
4.49017e+06
4.49016e+06
4.49017e+06
4.49017e+06
4.49017e+06
4.49017e+06
4.49018e+06
4.49018e+06
4.49018e+06
4.49018e+06
4.49054e+06
4.49054e+06
4.49054e+06
4.49054e+06
4.49054e+06
4.49054e+06
4.49053e+06
4.49053e+06
4.49053e+06
4.49053e+06
4.49083e+06
4.49083e+06
4.49083e+06
4.49083e+06
4.49084e+06
4.49084e+06
4.49084e+06
4.49084e+06
4.49084e+06
4.49084e+06
4.49119e+06
4.49119e+06
4.49119e+06
4.49119e+06
4.49118e+06
4.49118e+06
4.49118e+06
4.49118e+06
4.49118e+06
4.49118e+06
4.49149e+06
4.49149e+06
4.49149e+06
4.49149e+06
4.49149e+06
4.49149e+06
4.4915e+06
4.4915e+06
4.4915e+06
4.4915e+06
4.49183e+06
4.49183e+06
4.49183e+06
4.49183e+06
4.49183e+06
4.49183e+06
4.49183e+06
4.49184e+06
4.49184e+06
4.49184e+06
4.49213e+06
4.49213e+06
4.49213e+06
4.49213e+06
4.49214e+06
4.49214e+06
4.49215e+06
4.49216e+06
4.49216e+06
4.49216e+06
4.49247e+06
4.49247e+06
4.49247e+06
4.49247e+06
4.49247e+06
4.49247e+06
4.49248e+06
4.49249e+06
4.4925e+06
4.4925e+06
4.49275e+06
4.49275e+06
4.49275e+06
4.49276e+06
4.49276e+06
4.49278e+06
4.49279e+06
4.49281e+06
4.49281e+06
4.49282e+06
4.4931e+06
4.4931e+06
4.4931e+06
4.4931e+06
4.49311e+06
4.49312e+06
4.49313e+06
4.49314e+06
4.49315e+06
4.49316e+06
4.49336e+06
4.49336e+06
4.49336e+06
4.49337e+06
4.49338e+06
4.4934e+06
4.49342e+06
4.49344e+06
4.49345e+06
4.49346e+06
4.49376e+06
4.49376e+06
4.49376e+06
4.49376e+06
4.49377e+06
4.49377e+06
4.49378e+06
4.49379e+06
4.4938e+06
4.49381e+06
4.49398e+06
4.49398e+06
4.49399e+06
4.494e+06
4.49401e+06
4.49402e+06
4.49403e+06
4.49403e+06
4.49404e+06
4.49404e+06
4.49451e+06
4.49451e+06
4.49452e+06
4.49451e+06
4.4945e+06
4.49447e+06
4.49445e+06
4.49442e+06
4.49442e+06
4.49443e+06
4.49469e+06
4.4947e+06
4.49471e+06
4.4947e+06
4.49468e+06
4.49463e+06
4.49459e+06
4.49452e+06
4.49449e+06
4.49447e+06
4.49548e+06
4.49549e+06
4.4955e+06
4.49547e+06
4.49542e+06