/*--------------------------------*- C++ -*----------------------------------*\
| =========                 |                                                 |
| \\      /  F ield         | OpenFOAM: The Open Source CFD Toolbox           |
|  \\    /   O peration     | Version:  v2012                                 |
|   \\  /    A nd           | Website:  www.openfoam.com                      |
|    \\/     M anipulation  |                                                 |
\*---------------------------------------------------------------------------*/
FoamFile
{
    version     2.0;
    format      ascii;
    class       volVectorField;
    location    "0.15";
    object      U;
}
// * * * * * * * * * * * * * * * * * * * * * * * * * * * * * * * * * * * * * //

dimensions      [0 1 -1 0 0 0 0];


internalField   nonuniform List<vector> 
3332
(
(-6.27936e-08 -1.33488e-05 5.50489e-10)
(1.01104e-06 -8.90996e-05 -8.81624e-09)
(6.87893e-06 -0.000245861 -6.00189e-08)
(2.0924e-05 -0.000485067 -1.82579e-07)
(4.74799e-05 -0.000807904 -4.14309e-07)
(9.05962e-05 -0.0012155 -7.90551e-07)
(0.000155214 -0.00170706 -1.35442e-06)
(0.000246201 -0.00228218 -2.14839e-06)
(-7.27735e-08 -1.4589e-05 6.38463e-10)
(1.19646e-06 -9.7535e-05 -1.04325e-08)
(7.94956e-06 -0.000269707 -6.93576e-08)
(2.4173e-05 -0.000532661 -2.10924e-07)
(5.46758e-05 -0.000887765 -4.77093e-07)
(0.000104144 -0.00133581 -9.08757e-07)
(0.000178058 -0.00187605 -1.55374e-06)
(0.000281893 -0.00250731 -2.45983e-06)
(0.00042143 -0.00322642 -3.67746e-06)
(0.000602348 -0.00402937 -5.25621e-06)
(0.000830016 -0.00490997 -7.24293e-06)
(0.00110949 -0.00586075 -9.68173e-06)
(0.00144499 -0.00687208 -1.26094e-05)
(0.00184008 -0.00793279 -1.60572e-05)
(0.00229677 -0.00902964 -2.00427e-05)
(-9.60404e-08 -1.62758e-05 8.4022e-10)
(1.33363e-06 -0.000108539 -1.16309e-08)
(8.95048e-06 -0.0002993 -7.80926e-08)
(2.74487e-05 -0.000590053 -2.39507e-07)
(6.23058e-05 -0.00098227 -5.43672e-07)
(0.00011904 -0.00147675 -1.03874e-06)
(0.000203753 -0.00207247 -1.77796e-06)
(0.000322801 -0.00276775 -2.8168e-06)
(0.000482632 -0.00355868 -4.21153e-06)
(0.000689532 -0.00444032 -6.017e-06)
(0.000949525 -0.00540528 -8.2858e-06)
(0.00126802 -0.0064445 -1.10652e-05)
(0.00164953 -0.00754654 -1.43944e-05)
(0.00209749 -0.00869817 -1.83035e-05)
(0.00261368 -0.00988394 -2.28081e-05)
(-1.15041e-07 -1.78392e-05 1.00612e-09)
(1.62756e-06 -0.000119365 -1.41962e-08)
(1.05961e-05 -0.000330309 -9.24527e-08)
(3.21881e-05 -0.000652379 -2.80864e-07)
(7.25595e-05 -0.00108713 -6.33148e-07)
(0.00013813 -0.00163499 -1.20532e-06)
(0.000235901 -0.00229465 -2.05849e-06)
(0.000373016 -0.00306357 -3.25499e-06)
(0.000556784 -0.0039371 -4.8586e-06)
(0.000794224 -0.00490883 -6.93057e-06)
(0.00109198 -0.00596992 -9.52892e-06)
(0.00145592 -0.00710929 -1.27048e-05)
(0.00189074 -0.00831341 -1.64993e-05)
(0.00239973 -0.00956653 -2.09411e-05)
(0.00298428 -0.0108506 -2.60422e-05)
(-1.24212e-07 -2.01772e-05 1.08454e-09)
(1.79475e-06 -0.000134442 -1.56569e-08)
(1.19235e-05 -0.000370404 -1.04037e-07)
(3.66477e-05 -0.000729577 -3.19779e-07)
(8.30997e-05 -0.00121367 -7.25122e-07)
(0.000158788 -0.00182298 -1.38559e-06)
(0.000271738 -0.00255585 -2.37121e-06)
(0.000430138 -0.00340892 -3.75344e-06)
(0.000642235 -0.00437644 -5.60426e-06)
(0.000915881 -0.00545046 -7.99218e-06)
(0.00125837 -0.0066202 -1.09809e-05)
(0.00167593 -0.00787228 -1.46247e-05)
(0.00217335 -0.00919053 -1.89655e-05)
(0.00275362 -0.0105563 -2.40293e-05)
(0.00341744 -0.0119484 -2.98223e-05)
(-1.65416e-07 -2.21385e-05 1.44597e-09)
(2.22352e-06 -0.000148376 -1.93957e-08)
(1.43975e-05 -0.000411056 -1.25624e-07)
(4.36467e-05 -0.000812121 -3.80854e-07)
(9.81376e-05 -0.00135315 -8.56346e-07)
(0.000186544 -0.00203389 -1.62779e-06)
(0.000318071 -0.00285196 -2.77552e-06)
(0.000502092 -0.00380284 -4.38133e-06)
(0.000747931 -0.00487927 -6.52659e-06)
(0.00106439 -0.00607127 -9.28815e-06)
(0.00145947 -0.00736565 -1.27358e-05)
(0.00193977 -0.00874612 -1.69271e-05)
(0.00251009 -0.0101933 -2.1904e-05)
(0.00317294 -0.0116849 -2.76885e-05)
(0.0039281 -0.0131963 -3.42785e-05)
(-1.67551e-07 -2.55005e-05 1.4625e-09)
(2.41383e-06 -0.000169682 -2.10587e-08)
(1.61437e-05 -0.00046679 -1.40863e-07)
(4.97739e-05 -0.00091835 -4.3432e-07)
(0.000112916 -0.00152612 -9.85302e-07)
(0.000215787 -0.00228969 -1.88296e-06)
(0.000369047 -0.00320595 -3.22035e-06)
(0.000583495 -0.00426912 -5.09166e-06)
(0.000869685 -0.00547009 -7.58904e-06)
(0.00123744 -0.00679646 -1.07982e-05)
(0.00169543 -0.00823207 -1.47949e-05)
(0.0022505 -0.00975713 -1.96386e-05)
(0.0029072 -0.0113484 -2.53694e-05)
(0.00366721 -0.0129794 -3.20017e-05)
(0.00452891 -0.0146211 -3.95216e-05)
(-2.32306e-07 -2.79307e-05 2.02808e-09)
(3.11354e-06 -0.000187618 -2.71644e-08)
(2.00115e-05 -0.000520614 -1.74614e-07)
(6.04596e-05 -0.00102918 -5.27566e-07)
(0.000135554 -0.00171461 -1.18285e-06)
(0.000257134 -0.0025755 -2.24377e-06)
(0.000437529 -0.00360738 -3.81794e-06)
(0.000689109 -0.00480254 -6.01329e-06)
(0.00102387 -0.00614934 -8.93454e-06)
(0.00145277 -0.00763219 -1.26772e-05)
(0.00198519 -0.0092311 -1.73234e-05)
(0.00262817 -0.0109219 -2.29344e-05)
(0.00338584 -0.0126764 -2.95463e-05)
(0.00425874 -0.0144633 -3.71638e-05)
(0.00524338 -0.0162484 -4.57566e-05)
(-2.24248e-07 -3.29285e-05 1.95492e-09)
(3.30845e-06 -0.000218704 -2.88684e-08)
(2.22875e-05 -0.000600303 -1.94477e-07)
(6.89664e-05 -0.00117912 -6.01796e-07)
(0.000156634 -0.00195668 -1.36679e-06)
(0.000299382 -0.0029313 -2.61243e-06)
(0.000511607 -0.00409722 -4.46435e-06)
(0.000807659 -0.00544462 -7.04778e-06)
(0.00120113 -0.00695881 -1.04813e-05)
(0.00170414 -0.0086203 -1.48708e-05)
(0.00232666 -0.0104044 -2.03032e-05)
(0.00307555 -0.0122817 -2.68384e-05)
(0.003954 -0.0142182 -3.45043e-05)
(0.00496072 -0.0161765 -4.32898e-05)
(0.00608961 -0.0181165 -5.31415e-05)
(-3.45225e-07 -3.58546e-05 3.01601e-09)
(4.48933e-06 -0.000241696 -3.91691e-08)
(2.85247e-05 -0.000672296 -2.48902e-07)
(8.57988e-05 -0.00133026 -7.48681e-07)
(0.000191772 -0.00221603 -1.67342e-06)
(0.000362779 -0.00332599 -3.16565e-06)
(0.000615631 -0.00465191 -5.37209e-06)
(0.000966802 -0.00618066 -8.43651e-06)
(0.00143175 -0.00789326 -1.24938e-05)
(0.00202385 -0.00976502 -1.76607e-05)
(0.00275363 -0.0117652 -2.40291e-05)
(0.0036276 -0.0138575 -3.16559e-05)
(0.00464765 -0.0160008 -4.05575e-05)
(0.00581007 -0.0181507 -5.07017e-05)
(0.00710534 -0.0202599 -6.20055e-05)
(-3.1628e-07 -4.35969e-05 2.75937e-09)
(4.62683e-06 -0.000288698 -4.03733e-08)
(3.14507e-05 -0.000789904 -2.74436e-07)
(9.77937e-05 -0.00154805 -8.53347e-07)
(0.000222479 -0.00256393 -1.94136e-06)
(0.000425274 -0.00383341 -3.71098e-06)
(0.000725956 -0.00534592 -6.33479e-06)
(0.00114375 -0.00708469 -9.98059e-06)
(0.00169609 -0.00902559 -1.48005e-05)
(0.00239756 -0.0111376 -2.09218e-05)
(0.0032588 -0.0133825 -2.84374e-05)
(0.00428523 -0.0157159 -3.73947e-05)
(0.00547635 -0.018088 -4.77893e-05)
(0.00682484 -0.0204459 -5.95574e-05)
(0.00831636 -0.0227344 -7.25739e-05)
(-5.16834e-07 -4.6922e-05 4.51137e-09)
(6.66776e-06 -0.000317853 -5.81812e-08)
(4.1861e-05 -0.000887212 -3.65279e-07)
(0.000125221 -0.00175785 -1.09268e-06)
(0.000278769 -0.00292817 -2.43257e-06)
(0.000525571 -0.0043903 -4.58621e-06)
(0.00088883 -0.00612911 -7.75609e-06)
(0.00139063 -0.00812195 -1.21349e-05)
(0.00205068 -0.0103373 -1.78948e-05)
(0.00288473 -0.0127357 -2.51731e-05)
(0.0039034 -0.0152688 -3.40625e-05)
(0.0051105 -0.0178819 -4.45965e-05)
(0.00650246 -0.0205147 -5.67438e-05)
(0.0080672 -0.0231038 -7.03992e-05)
(0.00978432 -0.025585 -8.53846e-05)
(-4.4402e-07 -5.93776e-05 3.87024e-09)
(6.60923e-06 -0.000391617 -5.76749e-08)
(4.55339e-05 -0.00106682 -3.97327e-07)
(0.00014246 -0.00208441 -1.2431e-06)
(0.000324695 -0.00344327 -2.83331e-06)
(0.000620674 -0.00513454 -5.41607e-06)
(0.0010579 -0.00713872 -9.23141e-06)
(0.00166225 -0.00942681 -1.45051e-05)
(0.00245566 -0.0119583 -2.14288e-05)
(0.00345476 -0.0146832 -3.01474e-05)
(0.00466897 -0.0175413 -4.07433e-05)
(0.00609901 -0.0204653 -5.32228e-05)
(0.00773614 -0.023382 -6.75098e-05)
(0.00956129 -0.0262164 -8.34378e-05)
(0.0115456 -0.0288938 -0.000100755)
(-8.19929e-07 -6.27058e-05 7.15968e-09)
(1.02469e-05 -0.000427834 -8.94023e-08)
(6.34597e-05 -0.00119997 -5.53742e-07)
(0.000188681 -0.00238186 -1.64644e-06)
(0.000418 -0.00396729 -3.64752e-06)
(0.000784773 -0.00594005 -6.84806e-06)
(0.00132139 -0.00827204 -1.15307e-05)
(0.00205746 -0.0109236 -1.79539e-05)
(0.00301744 -0.0138414 -2.63311e-05)
(0.00421835 -0.0169609 -3.68109e-05)
(0.00566797 -0.0202057 -4.94611e-05)
(0.00736267 -0.0234924 -6.42504e-05)
(0.00928718 -0.0267322 -8.10454e-05)
(0.0114136 -0.029836 -9.96023e-05)
(0.0137025 -0.0327179 -0.000119578)
(-6.59995e-07 -8.35781e-05 5.75514e-09)
(9.70346e-06 -0.000548125 -8.46667e-08)
(6.7942e-05 -0.00148446 -5.9285e-07)
(0.000214203 -0.0028888 -1.86913e-06)
(0.000489114 -0.00475552 -4.26803e-06)
(0.000934645 -0.00706635 -8.15582e-06)
(0.00158937 -0.00978476 -1.38691e-05)
(0.00248803 -0.0128596 -2.17112e-05)
(0.00365705 -0.0162216 -3.19126e-05)
(0.00511284 -0.0197886 -4.46166e-05)
(0.00685896 -0.0234647 -5.98543e-05)
(0.00888432 -0.0271473 -7.75293e-05)
(0.0111632 -0.0307291 -9.74169e-05)
(0.0136547 -0.0341058 -0.00011916)
(0.016305 -0.0371787 -0.000142291)
(-1.35407e-06 -8.58769e-05 1.18189e-08)
(1.64087e-05 -0.000591597 -1.43169e-07)
(9.98394e-05 -0.00166974 -8.7119e-07)
(0.000294823 -0.00332189 -2.57265e-06)
(0.000649319 -0.00553149 -5.66604e-06)
(0.00121284 -0.00826582 -1.05834e-05)
(0.00203081 -0.0114716 -1.77213e-05)
(0.00314252 -0.015078 -2.74225e-05)
(0.00457626 -0.0189925 -3.9934e-05)
(0.00634637 -0.0231083 -5.5381e-05)
(0.00845073 -0.027303 -7.37452e-05)
(0.0108683 -0.0314494 -9.48428e-05)
(0.0135602 -0.0354176 -0.000118335)
(0.0164694 -0.0390856 -0.000143724)
(0.0195248 -0.0423422 -0.00017039)
(-1.03175e-06 -0.000122066 8.99175e-09)
(1.48169e-05 -0.000795066 -1.29291e-07)
(0.000105225 -0.00213751 -9.18183e-07)
(0.000334488 -0.00413858 -2.91874e-06)
(0.000764633 -0.00678194 -6.67224e-06)
(0.00145941 -0.0100302 -1.2735e-05)
(0.00247286 -0.0138132 -2.15787e-05)
(0.00385083 -0.0180388 -3.36034e-05)
(0.00562147 -0.0225852 -4.90549e-05)
(0.00779433 -0.0273161 -6.80166e-05)
(0.0103561 -0.0320769 -9.03727e-05)
(0.0132694 -0.0367124 -0.000115797)
(0.0164749 -0.0410667 -0.000143772)
(0.0198924 -0.045 -0.000173597)
(0.0234272 -0.0483889 -0.000204447)
(-2.41678e-06 -0.000121026 2.11088e-08)
(2.74064e-05 -0.000844576 -2.39123e-07)
(0.000163534 -0.00240228 -1.42699e-06)
(0.00047989 -0.00479159 -4.18757e-06)
(0.00104985 -0.00797261 -9.16116e-06)
(0.00194903 -0.0118789 -1.70076e-05)
(0.00324054 -0.0164065 -2.82778e-05)
(0.00497461 -0.0214266 -4.34101e-05)
(0.00717786 -0.0267739 -6.26369e-05)
(0.00985118 -0.0322707 -8.59661e-05)
(0.0129663 -0.0377182 -0.000113151)
(0.0164643 -0.0429259 -0.000143678)
(0.0202608 -0.0477067 -0.000176811)
(0.0242473 -0.0519027 -0.000211603)
(0.028302 -0.0553807 -0.000246991)
(-1.81772e-06 -0.000185912 1.58571e-08)
(2.37632e-05 -0.00120108 -2.07352e-07)
(0.000170422 -0.00320112 -1.48708e-06)
(0.000546388 -0.00615977 -4.76778e-06)
(0.00124851 -0.0100349 -1.08946e-05)
(0.00237665 -0.0147489 -2.0739e-05)
(0.00400469 -0.0201621 -3.49459e-05)
(0.00618982 -0.026105 -5.40143e-05)
(0.0089513 -0.0323579 -7.81126e-05)
(0.0122746 -0.0386936 -0.000107114)
(0.0161047 -0.044861 -0.000140539)
(0.0203486 -0.0506311 -0.000177576)
(0.0248839 -0.0557836 -0.000217157)
(0.0295616 -0.060147 -0.000257982)
(0.0342242 -0.0635833 -0.000298676)
(-4.47663e-06 -0.000176853 3.90844e-08)
(4.80348e-05 -0.00125379 -4.19124e-07)
(0.000280164 -0.00359715 -2.44471e-06)
(0.000817888 -0.00719201 -7.13699e-06)
(0.0017758 -0.0119445 -1.5496e-05)
(0.00327299 -0.0177172 -2.85609e-05)
(0.00539298 -0.0243001 -4.70608e-05)
(0.00819374 -0.0314534 -7.15018e-05)
(0.0116816 -0.0388755 -0.000101939)
(0.0158169 -0.0462698 -0.000138027)
(0.0205091 -0.0533135 -0.000178976)
(0.0256211 -0.0597319 -0.000223589)
(0.0309845 -0.0652669 -0.000270398)
(0.0364039 -0.0697394 -0.000317697)
(0.0416829 -0.0730155 -0.000363772)
(-3.4809e-06 -0.000296456 3.03552e-08)
(4.07982e-05 -0.00189939 -3.56004e-07)
(0.000291612 -0.00501416 -2.54457e-06)
(0.000941638 -0.00957974 -8.21673e-06)
(0.00214459 -0.0154897 -1.87139e-05)
(0.00406176 -0.0225782 -3.54436e-05)
(0.00678569 -0.0305561 -5.92137e-05)
(0.010377 -0.0391055 -9.05539e-05)
(0.0148135 -0.04782 -0.000129269)
(0.0200145 -0.0563243 -0.000174658)
(0.0258295 -0.0642117 -0.000225406)
(0.0320532 -0.0711666 -0.000279722)
(0.0384495 -0.0768963 -0.000335547)
(0.0447579 -0.0812328 -0.000390606)
(0.0507341 -0.0840612 -0.000442767)
(-8.89617e-06 -0.00027072 7.7677e-08)
(8.85467e-05 -0.00195434 -7.72582e-07)
(0.00050394 -0.00565327 -4.39736e-06)
(0.00146713 -0.0113173 -1.28024e-05)
(0.00315844 -0.0187228 -2.75612e-05)
(0.00577132 -0.0275775 -5.03622e-05)
(0.00939952 -0.0374401 -8.20236e-05)
(0.0140902 -0.0478576 -0.000122957)
(0.0197745 -0.058266 -0.000172563)
(0.0263085 -0.0681818 -0.000229586)
(0.0334618 -0.0770854 -0.000292014)
(0.0409429 -0.084621 -0.000357304)
(0.0484385 -0.0904627 -0.000422725)
(0.055618 -0.0944796 -0.000485388)
(0.0621952 -0.096598 -0.000542796)
(-7.57044e-06 -0.000497054 6.60391e-08)
(7.61283e-05 -0.00316103 -6.6426e-07)
(0.000532497 -0.00826503 -4.64645e-06)
(0.00172674 -0.0156654 -1.50675e-05)
(0.00390231 -0.025089 -3.40519e-05)
(0.00732683 -0.0361676 -6.39355e-05)
(0.0120839 -0.048279 -0.000105448)
(0.0182038 -0.060818 -0.000158855)
(0.0255308 -0.073018 -0.000222796)
(0.0338218 -0.0842847 -0.000295153)
(0.0427173 -0.0939721 -0.000372787)
(0.0517975 -0.101718 -0.000452035)
(0.0606396 -0.107184 -0.000529209)
(0.0688195 -0.110331 -0.000600606)
(0.0760075 -0.11116 -0.000663348)
(-1.88216e-05 -0.000440734 1.6431e-07)
(0.000171998 -0.00323819 -1.50074e-06)
(0.000955581 -0.00941842 -8.33837e-06)
(0.00278257 -0.0188292 -2.42811e-05)
(0.00593203 -0.0309218 -5.17643e-05)
(0.0107249 -0.0450512 -9.35892e-05)
(0.0172037 -0.0602556 -0.000150127)
(0.0253409 -0.0756742 -0.000221139)
(0.034842 -0.0902356 -0.000304054)
(0.045316 -0.103206 -0.000395463)
(0.0562323 -0.113774 -0.000490735)
(0.0670156 -0.121613 -0.00058485)
(0.0771328 -0.126387 -0.000673155)
(0.0860747 -0.128229 -0.000751206)
(0.0935056 -0.127258 -0.000816073)
(-1.81468e-05 -0.000879105 1.58303e-07)
(0.000155752 -0.00556389 -1.35905e-06)
(0.0010464 -0.014424 -9.13067e-06)
(0.00338997 -0.0271029 -2.95809e-05)
(0.00755695 -0.0428788 -6.59431e-05)
(0.0139964 -0.0608979 -0.000122136)
(0.0226593 -0.079774 -0.000197734)
(0.0334393 -0.0983591 -0.000291809)
(0.0458003 -0.115193 -0.000399685)
(0.059131 -0.129441 -0.000516026)
(0.0726348 -0.140125 -0.000633883)
(0.0855173 -0.147083 -0.000746323)
(0.097103 -0.150041 -0.000847449)
(0.106781 -0.149446 -0.000931933)
(0.114245 -0.145594 -0.000997092)
(-4.2112e-05 -0.000776249 3.67657e-07)
(0.00035221 -0.00577809 -3.07316e-06)
(0.00191482 -0.0168026 -1.67086e-05)
(0.00559214 -0.0333905 -4.87979e-05)
(0.0117807 -0.0541433 -0.000102802)
(0.0210115 -0.0775819 -0.000183355)
(0.0330401 -0.10155 -0.000288325)
(0.047583 -0.124438 -0.00041524)
(0.0637212 -0.144208 -0.000556082)
(0.0805268 -0.159957 -0.000702753)
(0.0968546 -0.170498 -0.000845261)
(0.11167 -0.176012 -0.000974573)
(0.124203 -0.176339 -0.00108398)
(0.133802 -0.172436 -0.00116777)
(0.140316 -0.164832 -0.00122465)
(-4.62105e-05 -0.00164445 4.03222e-07)
(0.000347919 -0.0103983 -3.03581e-06)
(0.00221658 -0.0267818 -1.93414e-05)
(0.00712353 -0.0498363 -6.21603e-05)
(0.0155544 -0.0775983 -0.00013573)
(0.0282454 -0.108011 -0.000246479)
(0.0445837 -0.137925 -0.00038906)
(0.0640439 -0.165229 -0.00055889)
(0.0850706 -0.187166 -0.000742397)
(0.106296 -0.202968 -0.000927643)
(0.126052 -0.211287 -0.00110008)
(0.143006 -0.213068 -0.00124807)
(0.156321 -0.208374 -0.00136431)
(-9.71331e-05 -0.00150063 8.47914e-07)
(0.000755592 -0.0112074 -6.59288e-06)
(0.00404611 -0.0323146 -3.53062e-05)
(0.0118565 -0.0633907 -0.000103462)
(0.0245968 -0.10076 -0.000214639)
(0.0431003 -0.14092 -0.000376113)
(0.0660714 -0.178993 -0.00057658)
(0.0925352 -0.212133 -0.000807534)
(0.119925 -0.236543 -0.00104658)
(0.146283 -0.251891 -0.00127663)
(0.16925 -0.25665 -0.0014771)
(0.187253 -0.253144 -0.00163426)
(0.19964 -0.241698 -0.0017424)
(-0.000119186 -0.00325268 1.04004e-06)
(0.000829629 -0.020642 -7.23904e-06)
(0.00500687 -0.0529387 -4.36891e-05)
(0.0158189 -0.0973416 -0.000138037)
(0.0335829 -0.148438 -0.000293054)
(0.0594121 -0.201172 -0.000518457)
(0.090819 -0.248424 -0.000792544)
(0.126253 -0.286626 -0.00110178)
(0.161523 -0.310727 -0.00140961)
(0.193956 -0.321579 -0.0016927)
(0.220175 -0.317628 -0.00192157)
(0.238463 -0.303877 -0.00208123)
(0.248668 -0.281013 -0.00217035)
(-0.000224857 -0.00318855 1.96279e-06)
(0.00166944 -0.0235866 -1.45667e-05)
(0.00888289 -0.0667868 -7.75118e-05)
(0.0260269 -0.128201 -0.000227117)
(0.0529088 -0.198081 -0.000461702)
(0.0906857 -0.268068 -0.000791374)
(0.134855 -0.327361 -0.00117684)
(0.182965 -0.371521 -0.00159672)
(0.228212 -0.393757 -0.00199164)
(0.267106 -0.397307 -0.00233114)
(0.29474 -0.380572 -0.00257238)
(0.309687 -0.353274 -0.00270291)
(0.313287 -0.316054 -0.0027344)
(-0.000299451 -0.00675484 2.61327e-06)
(0.00202963 -0.0431548 -1.77098e-05)
(0.011669 -0.110301 -0.000101822)
(0.0358695 -0.199583 -0.000313003)
(0.0735401 -0.296404 -0.000641737)
(0.126166 -0.388515 -0.001101)
(0.185965 -0.460477 -0.00162288)
(0.249564 -0.507157 -0.00217794)
(0.30604 -0.519688 -0.00267089)
(0.351289 -0.505859 -0.00306587)
(0.377954 -0.464229 -0.0032987)
(0.385821 -0.413546 -0.00336747)
(0.379245 -0.353845 -0.00331017)
(-0.000498143 -0.0072881 4.34817e-06)
(0.00365097 -0.0526755 -3.18565e-05)
(0.0194305 -0.145114 -0.00016955)
(0.0564612 -0.270066 -0.000492696)
(0.111883 -0.402648 -0.000976343)
(0.187207 -0.523601 -0.00163369)
(0.269695 -0.610387 -0.00235359)
(0.355026 -0.657484 -0.00309834)
(0.425481 -0.65313 -0.00371333)
(0.476823 -0.613261 -0.00416154)
(0.49655 -0.536374 -0.00433388)
(0.487488 -0.457413 -0.00425494)
(0.46117 -0.372445 -0.00402534)
(-0.00069292 -0.0143774 6.04731e-06)
(0.0047704 -0.0923788 -4.16246e-05)
(0.0261614 -0.234776 -0.000228283)
(0.077406 -0.415738 -0.000675465)
(0.152588 -0.599021 -0.00133156)
(0.254045 -0.756825 -0.00221696)
(0.361697 -0.858458 -0.00315649)
(0.471339 -0.897597 -0.00411343)
(0.554583 -0.858639 -0.0048401)
(0.60883 -0.769903 -0.00531374)
(0.61179 -0.62908 -0.00533985)
(0.57455 -0.504285 -0.005015)
(0.522576 -0.383013 -0.00456149)
(-0.000974843 -0.0169868 8.50902e-06)
(0.00724104 -0.118379 -6.31816e-05)
(0.0383892 -0.314661 -0.000334984)
(0.109607 -0.563828 -0.000956464)
(0.211251 -0.809365 -0.00184348)
(0.346844 -1.01072 -0.00302681)
(0.487449 -1.12568 -0.00425393)
(0.631296 -1.14746 -0.00550944)
(0.732743 -1.05438 -0.00639504)
(0.794704 -0.894458 -0.00693611)
(0.767314 -0.66468 -0.0066975)
(0.677236 -0.495627 -0.00591155)
(0.583978 -0.345034 -0.00509765)
(-0.00133531 -0.0295488 1.16541e-05)
(0.00952414 -0.18963 -8.31043e-05)
(0.0490169 -0.476768 -0.000427723)
(0.138579 -0.823358 -0.00120929)
(0.262686 -1.1541 -0.00229234)
(0.428768 -1.41323 -0.00374175)
(0.596317 -1.54855 -0.00520402)
(0.770986 -1.54601 -0.00672855)
(0.881147 -1.37539 -0.00769029)
(0.94258 -1.09854 -0.00822692)
(0.851291 -0.702568 -0.0074309)
(0.683034 -0.462316 -0.00596257)
(0.556332 -0.280814 -0.00485657)
(-0.00141086 -0.0365913 1.23149e-05)
(0.0105102 -0.242663 -9.17068e-05)
(0.0545893 -0.619024 -0.000476348)
(0.153357 -1.06754 -0.00133825)
(0.288903 -1.48649 -0.00252112)
(0.47285 -1.80216 -0.00412644)
(0.658776 -1.94935 -0.00574909)
(0.867128 -1.90333 -0.00756757)
(0.998008 -1.61814 -0.00871015)
(1.1101 -1.16584 -0.00968906)
(0.93562 -0.545872 -0.00816744)
(0.641967 -0.303455 -0.00560461)
(0.47826 -0.148699 -0.00417527)
(-0.00170026 -0.0515861 1.48397e-05)
(0.0121889 -0.328352 -0.000106358)
(0.0564158 -0.815684 -0.000492291)
(0.153148 -1.38035 -0.00133644)
(0.279471 -1.90546 -0.00243882)
(0.454077 -2.29854 -0.00396262)
(0.620638 -2.49765 -0.00541626)
(0.818806 -2.44545 -0.00714588)
(0.907601 -2.10937 -0.00792119)
(0.993093 -1.42735 -0.00866245)
(0.563629 -0.347551 -0.00491902)
(0.247105 -0.0756704 -0.00215043)
(0.184019 -0.00680108 -0.00160434)
(-0.000932655 -0.0617219 8.14071e-06)
(0.00521695 -0.388156 -4.55195e-05)
(0.0272502 -0.954949 -0.000237783)
(0.0814005 -1.60088 -0.000710331)
(0.150607 -2.19324 -0.00131429)
(0.239999 -2.61995 -0.00209445)
(0.308124 -2.81472 -0.0026891)
(0.358855 -2.6815 -0.0031321)
(0.310745 -2.16837 -0.00271266)
(0.179132 -1.02111 -0.00156155)
(-0.00077591 -0.0614481 6.77201e-06)
(0.00389865 -0.398089 -3.40189e-05)
(0.0164344 -0.994759 -0.000143408)
(0.0472549 -1.67476 -0.000412367)
(0.0834123 -2.28527 -0.000727914)
(0.12712 -2.70216 -0.00110939)
(0.151883 -2.84465 -0.00132558)
(0.155208 -2.62251 -0.00135473)
(0.108896 -1.98545 -0.00095076)
(0.0220524 -0.822886 -0.000195766)
(-0.000344262 -0.0686356 3.00509e-06)
(0.00116316 -0.431433 -1.01485e-05)
(0.00483009 -1.05684 -4.21448e-05)
(0.0168306 -1.76093 -0.000146869)
(0.0305167 -2.3854 -0.000266309)
(0.0474046 -2.80234 -0.000413708)
(0.0549303 -2.92684 -0.000479427)
(0.0527999 -2.6764 -0.000460891)
(0.0337909 -2.00085 -0.00029506)
(0.00410137 -0.826454 -3.63901e-05)
(-0.000245213 -0.0630284 2.14007e-06)
(0.000744278 -0.411327 -6.49472e-06)
(0.00174134 -1.03121 -1.51941e-05)
(0.00621027 -1.73666 -5.41922e-05)
(0.0106113 -2.36095 -9.26002e-05)
(0.016594 -2.77344 -0.000144816)
(0.0183786 -2.88535 -0.000160406)
(0.0162599 -2.62213 -0.000141932)
(0.00854643 -1.9375 -7.46296e-05)
(-0.000872479 -0.785465 7.37697e-06)
(-5.15316e-05 -0.0694819 4.50231e-07)
(-0.000171617 -0.436757 1.49848e-06)
(-0.00137586 -1.06911 1.20084e-05)
(-0.00169005 -1.78141 1.47521e-05)
(-0.00158817 -2.40909 1.38653e-05)
(0.000396116 -2.82267 -3.44989e-06)
(0.00222559 -2.93193 -1.94195e-05)
(0.00331331 -2.66467 -2.89187e-05)
(0.00258697 -1.97281 -2.25887e-05)
(0.000279438 -0.808524 -2.43462e-06)
(-1.95091e-05 -0.0623341 1.70348e-07)
(-0.000186098 -0.408218 1.62367e-06)
(-0.00256466 -1.02696 2.23809e-05)
(-0.00570167 -1.73508 4.97594e-05)
(-0.00772664 -2.36396 6.74378e-05)
(-0.00695298 -2.78092 6.06937e-05)
(-0.00379476 -2.89251 3.31355e-05)
(-0.00054759 -2.62658 4.79248e-06)
(0.00119849 -1.93717 -1.0456e-05)
(0.000428106 -0.785612 -3.78779e-06)
(0.000215982 -0.068884 -1.88435e-06)
(-0.00210792 -0.430952 1.83948e-05)
(-0.0097069 -1.05567 8.471e-05)
(-0.0190349 -1.76714 0.000166123)
(-0.0239925 -2.4013 0.000209404)
(-0.0226389 -2.82466 0.000197611)
(-0.0144981 -2.93954 0.000126576)
(-0.00572506 -2.67144 5.00057e-05)
(0.000469451 -1.97408 -4.07655e-06)
(0.00117825 -0.805743 -1.03899e-05)
(0.000252154 -0.0576147 -2.20035e-06)
(-0.00183736 -0.383132 1.60317e-05)
(-0.0124288 -0.982913 0.000108461)
(-0.0262279 -1.69177 0.000228895)
(-0.033605 -2.33937 0.000293299)
(-0.0319515 -2.78103 0.000278897)
(-0.0199574 -2.90965 0.000174239)
(-0.00755284 -2.64403 6.59712e-05)
(0.00298705 -1.94517 -2.60431e-05)
(0.0033425 -0.780726 -2.92959e-05)
(0.000715103 -0.0651113 -6.24032e-06)
(-0.00294357 -0.400759 2.56855e-05)
(-0.0181263 -0.995221 0.000158182)
(-0.0380936 -1.70674 0.000332449)
(-0.0516225 -2.36837 0.00045054)
(-0.0587862 -2.829 0.000513091)
(-0.0526937 -2.96951 0.000459945)
(-0.0466109 -2.70526 0.000406877)
(-0.0276642 -1.99574 0.000241533)
(-0.0107592 -0.802361 9.47138e-05)
(0.0124937 -0.0529885 -0.00010901)
(0.0714705 -0.33752 -0.000623524)
(0.127055 -0.893963 -0.00110831)
(0.139451 -1.59599 -0.00121607)
(0.101466 -2.26382 -0.00088431)
(0.0180069 -2.7391 -0.000156335)
(-0.0829067 -2.89625 0.000722814)
(-0.182914 -2.65251 0.00159191)
(-0.18782 -1.97905 0.00162926)
(-0.174954 -0.823219 0.00150678)
(-0.0364259 -0.319631 0.000320908)
(0.377916 -0.784907 -0.00325311)
(0.768519 -1.28568 -0.00653795)
(0.896237 -1.79314 -0.00747598)
(0.740077 -2.2423 -0.00599903)
(0.349045 -2.55181 -0.00268433)
(-0.167637 -2.63058 0.0013791)
(-0.725478 -2.46081 0.00538488)
(-0.883112 -1.92169 0.005406)
(-1.44917 -1.28082 0.00858969)
(-0.010314 -0.90347 9.00503e-05)
(-0.0904878 -2.71451 0.00078977)
(-0.150309 -2.84967 0.00131188)
(-0.13233 -2.42298 0.00115502)
(-0.0650373 -1.94836 0.000567729)
(-0.00592326 -1.53811 5.18841e-05)
(0.0988415 -1.2384 -0.000862174)
(0.166413 -1.15709 -0.00145141)
(0.313006 -1.40428 -0.0027315)
(0.321425 -3.15624 -0.00281157)
(0.0227794 -0.0276759 -0.000198839)
(-0.323331 -0.324917 0.00282164)
(-0.642229 -1.02834 0.00560505)
(-0.708351 -1.81188 0.00618259)
(-0.563581 -2.37511 0.00491953)
(-0.278307 -2.72874 0.00243014)
(0.137188 -2.81839 -0.00119592)
(0.468789 -2.67947 -0.00409016)
(0.816804 -2.12838 -0.00712805)
(0.520964 -0.909449 -0.0045891)
(6.35242e-05 -0.129042 -5.45126e-07)
(0.0122344 -0.70765 -0.000106749)
(0.0330124 -1.29488 -0.000288123)
(0.00975648 -1.84876 -8.51887e-05)
(0.00496818 -2.24942 -4.33459e-05)
(0.0145513 -2.5265 -0.000126903)
(0.0496946 -2.58328 -0.000433595)
(0.0785739 -2.44445 -0.000685792)
(0.0519303 -1.92866 -0.000453607)
(0.0210936 -1.0829 -0.000185546)
(0.00944308 -0.0613846 -8.24171e-05)
(-0.0378206 -0.42012 0.000330043)
(-0.0806556 -1.06526 0.000703907)
(-0.107148 -1.77658 0.000935183)
(-0.0791332 -2.37528 0.000690784)
(-0.0244981 -2.77613 0.000214021)
(0.054136 -2.88818 -0.000472255)
(0.105349 -2.66477 -0.000919338)
(0.123599 -2.01978 -0.00107882)
(0.0636216 -0.860516 -0.000560378)
(0.000193601 -0.0706975 -1.69062e-06)
(0.00235281 -0.451052 -2.05343e-05)
(0.00521129 -1.06277 -4.54875e-05)
(-0.00100598 -1.75018 8.77255e-06)
(0.00178581 -2.33696 -1.55752e-05)
(0.00726912 -2.73643 -6.34142e-05)
(0.0172661 -2.84274 -0.000150669)
(0.0232643 -2.61214 -0.000203048)
(0.0151847 -1.95193 -0.000132593)
(0.004081 -0.830388 -3.62833e-05)
(0.00196281 -0.0685487 -1.71305e-05)
(-0.00540881 -0.435027 4.72008e-05)
(-0.00759252 -1.0639 6.62627e-05)
(-0.0108832 -1.76819 9.49882e-05)
(-0.00330129 -2.38403 2.88332e-05)
(0.00625842 -2.79472 -5.45937e-05)
(0.0182448 -2.90623 -0.000159215)
(0.0241914 -2.65504 -0.000211142)
(0.0208223 -1.97904 -0.000181777)
(0.00960061 -0.823431 -8.44198e-05)
(0.00016223 -0.0652908 -1.41712e-06)
(-0.000185501 -0.422214 1.61639e-06)
(2.27655e-05 -1.04347 -2.01909e-07)
(-0.00099333 -1.74962 8.66873e-06)
(0.000769546 -2.36782 -6.71264e-06)
(0.00254714 -2.78037 -2.22233e-05)
(0.00483992 -2.89018 -4.22396e-05)
(0.00578907 -2.63515 -5.05276e-05)
(0.00338931 -1.95263 -2.95909e-05)
(0.000471045 -0.801078 -4.34339e-06)
(0.000374084 -0.0686962 -3.26481e-06)
(-0.000508205 -0.434134 4.43489e-06)
(0.000862326 -1.06133 -7.5263e-06)
(0.00115033 -1.76701 -1.00384e-05)
(0.00342083 -2.38737 -2.98566e-05)
(0.00513193 -2.79847 -4.47901e-05)
(0.00652156 -2.90769 -5.69197e-05)
(0.00662522 -2.64826 -5.78326e-05)
(0.00460487 -1.96436 -4.0208e-05)
(0.0019678 -0.809224 -1.72432e-05)
(0.000102085 -0.0656891 -8.91866e-07)
(-0.000372882 -0.422786 3.25219e-06)
(-0.000556767 -1.04814 4.85691e-06)
(-0.000733578 -1.75673 6.40296e-06)
(-8.71231e-05 -2.37918 7.58707e-07)
(0.000362974 -2.79112 -3.16717e-06)
(0.000718804 -2.90009 -6.27201e-06)
(0.000898275 -2.6395 -7.84002e-06)
(0.000448391 -1.95353 -3.91442e-06)
(-8.82212e-05 -0.79882 6.92009e-07)
(6.0116e-05 -0.0680956 -5.24874e-07)
(0.00014824 -0.431892 -1.29439e-06)
(0.00108108 -1.05942 -9.43629e-06)
(0.00149139 -1.76636 -1.30164e-05)
(0.00206625 -2.38748 -1.8038e-05)
(0.00202319 -2.79775 -1.76616e-05)
(0.0018302 -2.90625 -1.59768e-05)
(0.00166954 -2.64502 -1.45758e-05)
(0.00115114 -1.95931 -1.00529e-05)
(0.000571535 -0.804157 -4.98446e-06)
(5.94803e-05 -0.0663714 -5.19833e-07)
(-0.000252488 -0.425409 2.20186e-06)
(-0.000447372 -1.05232 3.90226e-06)
(-0.000629353 -1.76075 5.49236e-06)
(-0.000779333 -2.38264 6.79744e-06)
(-0.0011388 -2.79335 9.93696e-06)
(-0.00118649 -2.9024 1.03555e-05)
(-0.000803921 -2.64132 7.01774e-06)
(-0.000414067 -1.95503 3.61609e-06)
(-0.000127807 -0.799714 1.09344e-06)
(-1.21363e-06 -0.0676418 1.06771e-08)
(0.000155523 -0.430268 -1.3578e-06)
(0.000587493 -1.05788 -5.12836e-06)
(0.000556331 -1.76485 -4.85658e-06)
(0.000100183 -2.38522 -8.80438e-07)
(-0.000600813 -2.79535 5.23971e-06)
(-0.000723975 -2.90493 6.31735e-06)
(-0.00037166 -2.6443 3.24329e-06)
(-4.18394e-05 -1.95834 3.6473e-07)
(0.000189213 -0.802688 -1.63501e-06)
(3.28975e-05 -0.0667888 -2.87314e-07)
(-0.00017104 -0.426962 1.49165e-06)
(-0.000425475 -1.05399 3.71226e-06)
(-0.00102119 -1.76098 8.91121e-06)
(-0.00202098 -2.38129 1.76332e-05)
(-0.0026747 -2.79237 2.33418e-05)
(-0.00228743 -2.90328 1.99657e-05)
(-0.00145727 -2.64319 1.27213e-05)
(-0.000753974 -1.95706 6.58372e-06)
(-0.000133154 -0.801059 1.16446e-06)
(-8.19319e-06 -0.0673087 7.1586e-08)
(7.61201e-05 -0.428879 -6.64371e-07)
(4.6177e-05 -1.05563 -4.04164e-07)
(-0.000639635 -1.76103 5.57913e-06)
(-0.0019399 -2.38057 1.69267e-05)
(-0.00239959 -2.79277 2.09415e-05)
(-0.00155965 -2.90499 1.36136e-05)
(-0.000723614 -2.64516 6.3165e-06)
(-0.000388984 -1.95909 3.39544e-06)
(4.75195e-06 -0.802798 -2.24647e-08)
(2.64533e-05 -0.0669664 -2.31023e-07)
(-0.000186992 -0.427259 1.63131e-06)
(-0.000759945 -1.05278 6.63085e-06)
(-0.00200436 -1.75708 1.74899e-05)
(-0.00340973 -2.37729 2.97562e-05)
(-0.00296594 -2.79195 2.58879e-05)
(-0.00120706 -2.90547 1.05386e-05)
(-0.000235013 -2.6451 2.05173e-06)
(-0.000370582 -1.95859 3.2338e-06)
(-0.000182959 -0.802349 1.60214e-06)
(-4.32204e-06 -0.0669172 3.78088e-08)
(-4.74733e-06 -0.426837 4.12011e-08)
(-0.000499256 -1.05116 4.35527e-06)
(-0.00190971 -1.75434 1.66633e-05)
(-0.00281115 -2.3763 2.45338e-05)
(-0.000948504 -2.79416 8.28337e-06)
(0.00167271 -2.90811 -1.45953e-05)
(0.00216396 -2.64583 -1.8891e-05)
(0.000635491 -1.95857 -5.55395e-06)
(-0.000113227 -0.802931 9.89712e-07)
(3.63634e-05 -0.0669424 -3.17539e-07)
(-0.000286588 -0.42623 2.50019e-06)
(-0.00125898 -1.04865 1.09851e-05)
(-0.00276378 -1.75147 2.41185e-05)
(-0.00228036 -2.37716 1.99059e-05)
(0.00190114 -2.79874 -1.65822e-05)
(0.00562027 -2.91125 -4.90486e-05)
(0.00538839 -2.64481 -4.70396e-05)
(0.00190411 -1.95603 -1.66347e-05)
(-0.000215595 -0.802132 1.84893e-06)
(-1.97622e-06 -0.0663014 1.72084e-08)
(-2.54638e-05 -0.423527 2.2147e-07)
(-0.000658394 -1.04484 5.74385e-06)
(-0.00133223 -1.74992 1.1627e-05)
(0.00177679 -2.38225 -1.54978e-05)