/*--------------------------------*- C++ -*----------------------------------*\
| =========                 |                                                 |
| \\      /  F ield         | OpenFOAM: The Open Source CFD Toolbox           |
|  \\    /   O peration     | Version:  v2012                                 |
|   \\  /    A nd           | Website:  www.openfoam.com                      |
|    \\/     M anipulation  |                                                 |
\*---------------------------------------------------------------------------*/
FoamFile
{
    version     2.0;
    format      ascii;
    class       surfaceScalarField;
    location    "0.55";
    object      phi;
}
// * * * * * * * * * * * * * * * * * * * * * * * * * * * * * * * * * * * * * //

dimensions      [0 3 -1 0 0 0 0];
oriented        oriented;


internalField   nonuniform List<scalar> 
6434
(
2.87766e-10
-4.54437e-09
-7.70147e-12
-1.36951e-09
-1.32308e-08
9.39647e-12
-4.61987e-09
-1.52905e-08
4.98062e-12
-4.52715e-09
-1.06186e-08
2.69126e-12
2.84395e-10
2.4177e-12
2.30525e-10
-4.37615e-09
-1.65149e-11
-5.09977e-10
-1.2709e-08
1.65487e-11
-1.57336e-09
-1.51685e-08
3.70623e-12
-2.00509e-09
-1.07109e-08
1.27421e-12
-2.17452e-09
1.48732e-12
5.45382e-10
-4.42543e-09
-1.37062e-11
7.7479e-10
-1.28431e-08
1.0159e-11
5.15554e-11
-1.45139e-08
-2.68781e-13
-9.66552e-10
-9.71932e-09
1.87726e-13
-3.15394e-09
9.92557e-13
2.53427e-10
-4.55061e-09
-1.26958e-11
2.35852e-10
-1.27344e-08
1.0197e-11
6.84533e-11
-1.43683e-08
-1.39078e-12
-8.77029e-10
-8.90417e-09
-4.04915e-13
-4.06281e-09
4.90719e-13
-3.54725e-10
-4.78721e-09
3.22984e-12
-1.00242e-10
-1.26668e-08
8.92752e-13
1.18285e-09
-1.53129e-08
-1.45375e-12
6.7266e-10
-8.30107e-09
-1.45335e-12
-3.35528e-09
-1.15809e-14
-1.90383e-10
-4.96723e-09
3.49061e-12
4.83612e-10
-1.29558e-08
1.76534e-12
1.97269e-09
-1.61426e-08
-2.57556e-12
2.26288e-09
-8.28234e-09
-2.28473e-12
-1.01191e-09
-6.18549e-13
-2.67635e-10
-5.08281e-09
1.76336e-12
7.63525e-10
-1.34301e-08
-3.6221e-12
1.46594e-09
-1.58072e-08
-2.57094e-12
1.56553e-09
-7.30379e-09
-2.66511e-12
1.34753e-09
-5.24241e-13
-9.78592e-11
-5.21795e-09
-9.54985e-13
6.78511e-10
-1.37199e-08
-1.0394e-12
1.14391e-10
-1.53164e-08
-4.27921e-12
-8.05749e-10
-4.89138e-09
-2.69868e-12
2.74126e-09
-4.80545e-13
1.64376e-10
-5.38271e-09
8.57155e-12
5.56598e-10
-1.38786e-08
-1.16793e-11
4.0333e-10
-1.56416e-08
-2.63647e-12
-2.85851e-10
-3.34353e-09
-3.43462e-12
3.48499e-09
-5.57852e-13
6.18152e-10
-5.50274e-09
6.50506e-12
1.02581e-09
-1.413e-08
-8.25186e-12
9.40882e-10
-1.58886e-08
-3.35707e-12
1.8509e-09
-5.69314e-09
-4.24235e-12
4.43689e-09
-1.36703e-12
8.03436e-10
-5.4773e-09
-1.34993e-12
1.50475e-09
-1.41682e-08
-1.3187e-11
8.21978e-10
-1.50284e-08
-1.02871e-12
1.83083e-09
-6.54467e-09
-3.09009e-12
5.99266e-09
-1.3927e-12
1.18008e-10
-5.48071e-09
4.55769e-12
3.68965e-10
-1.40097e-08
-6.90969e-12
4.76043e-10
-1.50288e-08
-2.75611e-12
-2.42044e-10
-4.6393e-09
-2.51696e-12
7.52454e-09
-1.27416e-12
-9.81644e-10
-5.69245e-09
1.07076e-11
-6.29894e-10
-1.43555e-08
-1.01039e-11
6.38864e-10
-1.71546e-08
-2.26666e-12
6.27247e-10
-5.54633e-09
-2.31006e-12
7.91981e-09
-1.11701e-12
-5.72781e-10
-5.86592e-09
2.42136e-11
3.27138e-10
-1.49699e-08
-4.55523e-12
1.32771e-09
-1.83163e-08
-3.03525e-12
1.52349e-09
-6.3038e-09
-1.91038e-12
7.97353e-09
-1.17561e-12
-1.77619e-10
-5.89863e-09
9.80021e-12
5.71603e-10
-1.52318e-08
-1.33899e-11
5.95149e-10
-1.74389e-08
-1.73268e-12
1.85771e-10
-4.36203e-09
-1.98651e-12
8.55556e-09
-1.1989e-12
-4.97525e-11
-5.93764e-09
1.92097e-12
1.8772e-10
-1.51626e-08
-2.56987e-12
-6.04202e-11
-1.7141e-08
-3.87562e-12
-3.00499e-10
-3.41145e-09
-2.55676e-12
9.10472e-09
-1.09511e-12
4.00521e-11
-6.00717e-09
1.67439e-11
2.69928e-10
-1.5162e-08
-1.9238e-11
8.29986e-10
-1.84853e-08
-7.8764e-13
1.225e-09
-8.65658e-09
-2.95665e-12
8.64991e-09
-9.94121e-13
2.72881e-10
-6.1169e-09
9.39486e-12
1.41349e-09
-1.53512e-08
-8.90622e-12
3.49173e-09
-1.8817e-08
-4.19663e-12
3.86143e-09
-1.28349e-08
-1.57613e-12
8.06192e-09
-1.21236e-12
3.18251e-10
-6.2138e-09
1.52608e-11
2.06888e-09
-1.51226e-08
-1.82267e-11
2.76873e-09
-1.71292e-08
2.17458e-12
2.09068e-09
-7.97246e-09
-1.82295e-12
8.98723e-09
-9.32781e-13
-9.99533e-11
-6.27907e-09
5.4004e-12
8.55162e-10
-1.51321e-08
-4.63915e-12
-3.6106e-10
-1.63124e-08
-4.75413e-12
-1.46387e-09
-2.71218e-09
-1.16332e-12
1.1177e-08
-1.3142e-12
-2.70806e-10
-6.38834e-09
2.11453e-11
-1.19446e-09
-1.62099e-08
-2.54773e-11
-2.18669e-09
-1.73556e-08
5.81548e-13
-1.63181e-09
-1.08132e-09
-2.12758e-12
1.34382e-08
-1.1003e-12
-2.06402e-10
-6.45824e-09
1.6509e-11
-7.85531e-10
-1.72648e-08
-1.9377e-11
-1.88171e-09
-1.93905e-08
-3.49608e-13
-1.77888e-10
-4.49918e-09
-2.36994e-12
1.44307e-08
-1.00536e-12
1.16696e-10
-6.46281e-09
2.33158e-11
-1.37623e-10
-1.7631e-08
-2.52973e-11
7.97847e-11
-2.04146e-08
8.50197e-13
1.27935e-09
-6.13529e-09
-1.47332e-12
1.39538e-08
-7.5388e-13
-2.09909e-11
-6.48456e-09
1.44523e-11
-7.0541e-10
-1.78454e-08
-1.64742e-11
-2.76758e-09
-2.15878e-08
-7.37505e-13
-1.55375e-09
-3.16472e-09
-2.10775e-12
1.1301e-08
-6.61667e-13
3.02078e-10
-6.54209e-09
3.11704e-11
6.74606e-10
-1.85223e-08
-3.13454e-11
-2.98507e-09
-2.49927e-08
-1.6301e-12
6.68716e-10
-6.91481e-09
-2.34329e-12
8.70876e-09
-6.85078e-13
1.5713e-09
-6.58218e-09
2.98471e-11
5.67402e-09
-1.89819e-08
-2.71858e-11
2.16289e-09
-2.55823e-08
1.70875e-12
1.42064e-09
-1.18659e-08
-2.66113e-12
9.68084e-09
-9.15095e-13
2.44659e-09
-6.44846e-09
1.66056e-11
6.61857e-09
-1.83792e-08
-2.90847e-11
5.12298e-09
-2.26553e-08
1.00985e-12
1.13818e-09
-1.05627e-08
-1.94238e-12
1.05761e-08
-9.61216e-13
1.94701e-09
-6.37228e-09
2.27689e-11
1.36273e-09
-1.79028e-08
-2.75624e-11
6.23064e-10
-2.19941e-08
5.40791e-12
7.18427e-11
-8.16098e-09
-2.93461e-12
1.05854e-08
-6.79216e-13
-3.34669e-10
-6.61808e-09
2.96956e-11
6.01146e-11
-1.84906e-08
-2.73633e-11
8.3283e-10
-2.38679e-08
7.09366e-13
1.35709e-09
-9.65085e-09
-1.96467e-12
1.10777e-08
-5.17387e-13
6.40611e-10
-6.78161e-09
2.17958e-11
2.91801e-09
-1.896e-08
-1.9257e-11
2.96203e-09
-2.35764e-08
-2.63336e-12
2.13733e-09
-1.12608e-08
-1.38214e-12
1.21312e-08
-3.65702e-13
9.86661e-10
-6.69624e-09
2.94451e-11
3.31103e-09
-1.82971e-08
-2.93339e-11
3.29689e-09
-2.02973e-08
2.66545e-12
1.47875e-09
-9.79851e-09
-2.69518e-12
1.32828e-08
-2.54695e-13
7.9227e-10
-6.62842e-09
2.38208e-11
2.60799e-09
-1.69088e-08
-2.15628e-11
3.5263e-09
-1.75907e-08
-1.79883e-12
1.32405e-09
-6.20405e-09
-2.02983e-12
1.44088e-08
-6.45226e-13
1.81485e-10
-6.61232e-09
2.62734e-11
1.89457e-09
-1.61536e-08
-2.74512e-11
3.5479e-09
-1.86142e-08
5.45305e-12
1.92472e-09
-5.62326e-09
-2.73852e-12
1.51746e-08
-9.50664e-13
3.33389e-10
3.45845e-11
1.71589e-09
-2.73659e-11
4.21009e-09
-7.52461e-13
4.05887e-09
-6.18644e-13
-1.44869e-12
-1.49761e-09
-1.38432e-10
8.56574e-16
-1.37066e-09
-1.2693e-10
2.32849e-15
-1.2538e-09
-1.16834e-10
2.37202e-15
-1.14588e-09
-1.07909e-10
2.19228e-15
-1.04591e-09
-9.99591e-11
2.16683e-15
-9.5307e-10
-9.2821e-11
1.94559e-15
-8.66695e-10
-8.63616e-11
1.91806e-15
-7.86206e-10
-8.04708e-11
1.77239e-15
-7.11165e-10
-7.50345e-11
1.68223e-15
-6.41137e-10
-7.00126e-11
1.7895e-15
-5.75838e-10
-6.52911e-11
1.83563e-15
-5.1495e-10
-6.08742e-11
1.76516e-15
-4.5828e-10
-5.66593e-11
1.74789e-15
-4.05535e-10
-5.27359e-11
1.75853e-15
-3.56547e-10
-4.89737e-11
2.25764e-15
-3.11116e-10
-4.54212e-11
4.0083e-15
-2.6903e-10
-4.2072e-11
6.78642e-16
-2.30127e-10
-3.88894e-11
-1.96481e-15
-1.94225e-10
-3.58904e-11
2.47361e-17
-1.61156e-10
-3.30548e-11
9.12499e-16
-1.30834e-10
-3.03082e-11
2.19962e-15
-1.03146e-10
-2.76715e-11
-1.56857e-16
-7.8004e-11
-2.51235e-11
9.22808e-16
-5.55996e-11
-2.23832e-11
1.54392e-15
-3.60918e-11
-1.94838e-11
2.01521e-15
-1.99047e-11
-1.61603e-11
3.16834e-15
-7.88224e-12
-1.19942e-11
3.42438e-15
-1.05502e-12
-6.79815e-12
5.38859e-15
-1.03151e-12
8.91174e-15
-3.57783e-09
-4.3627e-10
-2.78038e-16
-3.29963e-09
-4.05111e-10
2.75589e-15
-3.0392e-09
-3.77241e-10
3.30569e-15
-2.79493e-09
-3.52176e-10
3.23873e-15
-2.56538e-09
-3.29496e-10
3.40227e-15
-2.34937e-09
-3.08802e-10
2.97266e-15
-2.14594e-09
-2.89783e-10
3.14981e-15
-1.95424e-09
-2.72148e-10
2.82138e-15
-1.77366e-09
-2.55609e-10
2.76921e-15
-1.60355e-09
-2.401e-10
3.03155e-15
-1.44354e-09
-2.25301e-10
3.21754e-15
-1.29316e-09
-2.11238e-10
3.21212e-15
-1.15212e-09
-1.97689e-10
3.44314e-15
-1.02e-09
-1.84844e-10
3.38213e-15
-8.96536e-10
-1.72425e-10
4.54424e-15
-7.81462e-10
-1.60486e-10
7.45166e-15
-6.74398e-10
-1.4912e-10
1.62763e-15
-5.75074e-10
-1.38199e-10
-3.82299e-15
-4.83175e-10
-1.27778e-10
-2.68801e-16
-3.98398e-10
-1.17817e-10
1.59247e-15
-3.204e-10
-1.08291e-10
3.44885e-15
-2.4967e-10
-9.83849e-11
-1.08707e-15
-1.85578e-10
-8.91952e-11
6.14371e-16
-1.28814e-10
-7.91242e-11
1.53857e-15
-8.00629e-11
-6.82099e-11
2.29781e-15
-4.05851e-11
-5.56102e-11
3.96674e-15
-1.2567e-11
-3.99826e-11
2.99656e-15
1.20731e-12
-2.05423e-11
5.37654e-15
1.99317e-13
9.47136e-15
-5.15993e-09
-8.17602e-10
-3.99809e-16
-4.797e-09
-7.6802e-10
3.50372e-15
-4.4513e-09
-7.22922e-10
4.12203e-15
-4.1218e-09
-6.81678e-10
3.74245e-15
-3.80753e-09
-6.43747e-10
4.43594e-15
-3.50774e-09
-6.08562e-10
3.79949e-15
-3.22183e-09
-5.75689e-10
4.15825e-15
-2.94925e-09
-5.44694e-10
3.72126e-15
-2.68974e-09
-5.15133e-10
3.62975e-15
-2.44282e-09
-4.86988e-10
4.07686e-15
-2.2084e-09
-4.59723e-10
4.39578e-15
-1.98615e-09
-4.33469e-10
4.25053e-15
-1.77589e-09
-4.07934e-10
4.87811e-15
-1.578e-09
-3.82736e-10
4.87356e-15
-1.39161e-09
-3.58787e-10
6.31586e-15
-1.21675e-09
-3.35344e-10
9.46614e-15
-1.05314e-09
-3.12713e-10
2.26411e-15
-9.00524e-10
-2.90797e-10
-4.62769e-15
-7.58644e-10
-2.69647e-10
-4.18797e-16
-6.27208e-10
-2.49237e-10
2.12165e-15
-5.06146e-10
-2.29339e-10
4.12657e-15
-3.95367e-10
-2.09148e-10
-1.4486e-15
-2.95067e-10
-1.89474e-10
4.29641e-16
-2.06024e-10
-1.68145e-10
1.58408e-15
-1.29522e-10
-1.44686e-10
2.55714e-15
-6.74197e-11
-1.17685e-10
4.48591e-15
-2.29207e-11
-8.44517e-11
2.84261e-15
-3.33604e-13
-4.30992e-11
5.45495e-15
-1.07929e-13
8.14612e-15
-6.31914e-09
-1.23014e-09
4.14847e-17
-5.91912e-09
-1.16803e-09
4.24084e-15
-5.53142e-09
-1.1106e-09
4.82978e-15
-5.15592e-09
-1.05719e-09
4.41588e-15
-4.79242e-09
-1.00722e-09
5.33567e-15
-4.44089e-09
-9.60055e-10
4.16997e-15
-4.10138e-09
-9.15193e-10
5.05677e-15
-3.77392e-09
-8.72122e-10
4.50771e-15
-3.45879e-09
-8.30279e-10
4.11772e-15
-3.15597e-09
-7.89778e-10
4.70217e-15
-2.86584e-09
-7.49857e-10
5.3341e-15
-2.58848e-09
-7.10807e-10
5.12981e-15
-2.32416e-09
-6.7224e-10
6.11403e-15
-2.07298e-09
-6.33921e-10
6.15519e-15
-1.83496e-09
-5.96784e-10
7.70447e-15
-1.61025e-09
-5.60046e-10
1.08311e-14
-1.39872e-09
-5.24226e-10
2.66249e-15
-1.20027e-09
-4.89232e-10
-5.02026e-15
-1.0148e-09
-4.55104e-10
-4.93368e-16
-8.42229e-10
-4.21794e-10
2.37872e-15
-6.82652e-10
-3.88901e-10
4.43795e-15
-5.36039e-10
-3.55744e-10
-1.63128e-15
-4.0278e-10
-3.22712e-10
2.81695e-16
-2.84118e-10
-2.86784e-10
1.58486e-15
-1.81643e-10
-2.47136e-10
2.72889e-15
-9.79862e-11
-2.01314e-10
4.76656e-15
-3.70783e-11
-1.4533e-10
2.75819e-15
-3.97671e-12
-7.61706e-11
5.39692e-15
-4.05955e-12
8.74373e-15
-7.13501e-09
-1.64081e-09
8.98454e-16
-6.72944e-09
-1.57358e-09
4.9609e-15
-6.32964e-09
-1.51039e-09
5.46253e-15
-5.93627e-09
-1.45057e-09
5.1476e-15
-5.54991e-09
-1.39357e-09
6.12086e-15
-5.17122e-09
-1.33871e-09
4.67667e-15
-4.80093e-09
-1.28548e-09
5.88402e-15
-4.43966e-09
-1.23335e-09
4.9364e-15
-4.08831e-09
-1.18165e-09
4.74209e-15
-3.74736e-09
-1.1307e-09
5.36843e-15
-3.41771e-09
-1.07951e-09
6.04893e-15
-3.09988e-09
-1.02861e-09
5.98279e-15
-2.7946e-09
-9.77513e-10
7.08297e-15
-2.50237e-09
-9.26149e-10
7.13363e-15
-2.22353e-09
-8.75599e-10
8.79439e-15
-1.95857e-09
-8.25001e-10
1.168e-14
-1.70763e-09
-7.75153e-10
2.86441e-15
-1.47091e-09
-7.25935e-10
-5.2281e-15
-1.24851e-09
-6.77494e-10
-5.43266e-16
-1.04045e-09
-6.29836e-10
2.56176e-15
-8.4693e-10
-5.82406e-10
4.61234e-15
-6.67976e-10
-5.34682e-10
-1.73974e-15
-5.06004e-10
-4.84663e-10
1.89141e-16
-3.60526e-10
-4.3224e-10
1.57738e-15
-2.34265e-10
-3.73372e-10
2.85429e-15
-1.30368e-10
-3.05183e-10
4.95882e-15
-5.34119e-11
-2.22257e-10
2.79158e-15
-9.05973e-12
-1.20493e-10
5.3583e-15
-1.30943e-11
8.72447e-15
-7.67472e-09
-2.03011e-09
2.04995e-15
-7.28325e-09
-1.96505e-09
5.60727e-15
-6.89088e-09
-1.90275e-09
6.00988e-15
-6.49887e-09
-1.84258e-09
5.78634e-15
-6.10839e-09
-1.78403e-09
6.80577e-15
-5.72067e-09
-1.7264e-09
5.2649e-15
-5.33697e-09
-1.66918e-09
6.65298e-15
-4.95847e-09
-1.61182e-09
5.48341e-15
-4.58656e-09
-1.55358e-09
5.41084e-15
-4.22223e-09
-1.495e-09
6.04126e-15
-3.86685e-09
-1.4349e-09
6.7147e-15
-3.52138e-09
-1.37405e-09
6.75392e-15
-3.18698e-09
-1.3119e-09
7.80188e-15
-2.86458e-09
-1.24856e-09
7.95633e-15
-2.55484e-09
-1.18531e-09
9.59254e-15
-2.25863e-09
-1.12121e-09
1.21569e-14
-1.97639e-09
-1.05737e-09
2.94654e-15
-1.70864e-09
-9.93668e-10
-5.33529e-15
-1.45575e-09
-9.30374e-10
-5.76723e-16
-1.21801e-09
-8.67562e-10
2.6529e-15
-9.95973e-10
-8.0443e-10
4.63759e-15
-7.90289e-10
-7.40349e-10
-1.82754e-15
-6.01828e-10
-6.73103e-10
8.78947e-17
-4.32591e-10
-6.01455e-10
1.53576e-15
-2.84984e-10
-5.20953e-10
2.9177e-15
-1.62556e-10
-4.27584e-10
5.0728e-15
-7.03934e-11
-3.14391e-10
2.82474e-15
-1.47212e-11
-1.76135e-10
5.35183e-15
-2.77909e-11
8.78508e-15
-7.99819e-09
-2.38781e-09
2.89535e-15
-7.63197e-09
-2.33126e-09
6.08302e-15
-7.25886e-09
-2.27584e-09
6.43459e-15
-6.88051e-09
-2.22095e-09
6.32885e-15
-6.49846e-09
-2.16607e-09
7.36661e-15
-6.11435e-09
-2.11048e-09
5.84618e-15
-5.72984e-09
-2.05368e-09
7.32315e-15
-5.34652e-09
-1.99511e-09
6.04486e-15
-4.96619e-09
-1.93394e-09
6.05908e-15
-4.5902e-09
-1.87095e-09
6.66658e-15
-4.22034e-09
-1.80477e-09
7.33238e-15
-3.85794e-09
-1.73642e-09
7.40446e-15
-3.50454e-09
-1.6653e-09
8.37477e-15
-3.16144e-09
-1.59166e-09
8.59033e-15
-2.82964e-09
-1.51708e-09
1.01596e-14
-2.51035e-09
-1.4405e-09
1.23741e-14
-2.20432e-09
-1.36338e-09
2.95264e-15
-1.91237e-09
-1.2856e-09
-5.38203e-15
-1.63517e-09
-1.20757e-09
-6.05453e-16
-1.37328e-09
-1.12943e-09
2.65798e-15
-1.12753e-09
-1.05017e-09
4.62788e-15
-8.98865e-10
-9.68996e-10
-1.90185e-15
-6.88504e-10
-8.83443e-10
1.86083e-18
-4.98596e-10
-7.9134e-10
1.50856e-15
-3.32209e-10
-6.87316e-10
2.96459e-15
-1.93125e-10
-5.66641e-10
5.15472e-15
-8.68982e-11
-4.20589e-10
2.88333e-15
-2.04131e-11
-2.42591e-10
5.38393e-15
-4.81797e-11
8.85759e-15
-8.15769e-09
-2.70946e-09
3.43237e-15
-7.82223e-09
-2.66671e-09
6.39664e-15
-7.47483e-09
-2.62325e-09
6.65628e-15
-7.11733e-09
-2.57846e-09
6.74661e-15
-6.75154e-09
-2.53185e-09
7.77763e-15
-6.37933e-09
-2.48265e-09
6.35005e-15
-6.00264e-09
-2.43036e-09
7.85701e-15
-5.62332e-09
-2.37439e-09
6.53523e-15
-5.24347e-09
-2.31382e-09
6.62875e-15
-4.86471e-09
-2.24967e-09
7.20473e-15
-4.48914e-09
-2.18035e-09
7.8603e-15
-4.11838e-09
-2.10715e-09
7.92068e-15
-3.75426e-09
-2.02941e-09
8.78841e-15
-3.39839e-09
-1.94753e-09
9.05611e-15
-3.05206e-09
-1.86338e-09
1.05487e-14
-2.71676e-09
-1.77579e-09
1.24161e-14
-2.39355e-09
-1.68658e-09
2.91279e-15
-2.08351e-09
-1.59561e-09
-5.3883e-15
-1.78762e-09
-1.50346e-09
-6.45524e-16
-1.50668e-09
-1.41035e-09
2.60896e-15
-1.24181e-09
-1.31502e-09
4.53921e-15
-9.94247e-10
-1.21654e-09
-2.01159e-15
-7.65523e-10
-1.11215e-09
-1.08797e-16
-5.58123e-10
-9.98718e-10
1.44457e-15
-3.75255e-10
-8.7016e-10
2.96183e-15
-2.21447e-10
-7.20423e-10
5.17711e-15
-1.02435e-10
-5.39573e-10
2.93853e-15
-2.58151e-11
-3.19181e-10
5.42024e-15
-7.39708e-11
8.9206e-15
-8.19531e-09
-2.99407e-09
3.72235e-15
-7.89262e-09
-2.96939e-09
6.4909e-15
-7.57384e-09
-2.94203e-09
6.75845e-15
-7.24093e-09
-2.91138e-09
7.01967e-15
-6.89585e-09
-2.87693e-09
7.94432e-15
-6.5406e-09
-2.83786e-09
6.73822e-15
-6.17731e-09
-2.79366e-09
8.24538e-15
-5.80798e-09
-2.74369e-09
6.95198e-15
-5.43488e-09
-2.68695e-09
7.10212e-15
-5.05985e-09
-2.62467e-09
7.63738e-15
-4.68517e-09
-2.55504e-09
8.28027e-15
-4.31266e-09
-2.47963e-09
8.31461e-15
-3.94438e-09
-2.39769e-09
9.01833e-15
-3.58217e-09
-2.30975e-09
9.37347e-15
-3.22752e-09
-2.218e-09
1.07729e-14
-2.88219e-09
-2.12112e-09
1.23225e-14
-2.54745e-09
-2.02129e-09
2.84599e-15
-2.22466e-09
-1.91838e-09
-5.36154e-15
-1.91502e-09
-1.81309e-09
-6.84789e-16
-1.6196e-09
-1.70576e-09
2.57828e-15
-1.33976e-09
-1.59485e-09
4.47237e-15
-1.07702e-09
-1.47927e-09
-2.12463e-15
-8.33197e-10
-1.35594e-09
-2.04461e-16
-6.11069e-10
-1.22082e-09
1.39527e-15
-4.13964e-10
-1.06724e-09
2.95866e-15
-2.47302e-10
-8.87058e-10
5.18243e-15
-1.16746e-10
-6.70102e-10
2.99966e-15
-3.07899e-11
-4.05108e-10
5.46143e-15
-1.04737e-10
8.99525e-15
-8.14306e-09
-3.24253e-09
3.44924e-15
-7.87311e-09
-3.23935e-09
6.42978e-15
-7.5837e-09
-3.23145e-09
6.7452e-15
-7.27689e-09
-3.21821e-09
7.14957e-15
-6.95471e-09
-3.19911e-09
7.86681e-15
-6.61925e-09
-3.17328e-09
7.00186e-15
-6.27272e-09
-3.14018e-09
8.45909e-15
-5.91724e-09
-3.09914e-09
7.26405e-15
-5.55517e-09
-3.04905e-09
7.46812e-15
-5.18845e-09
-2.99135e-09
7.96499e-15
-4.81949e-09
-2.92401e-09
8.58931e-15
-4.45024e-09
-2.84885e-09
8.59129e-15
-4.08288e-09
-2.76504e-09
9.15332e-15
-3.71944e-09
-2.6732e-09
9.56346e-15
-3.36153e-09
-2.57587e-09
1.0867e-14
-3.01111e-09
-2.47154e-09
1.21693e-14
-2.66964e-09
-2.36275e-09
2.77579e-15
-2.33865e-09
-2.24935e-09
-5.30451e-15
-2.01956e-09
-2.13217e-09
-7.30091e-16
-1.71367e-09
-2.01163e-09
2.5444e-15
-1.42256e-09
-1.88594e-09
4.22728e-15
-1.14798e-09
-1.75383e-09
-2.27786e-15
-8.92025e-10
-1.61187e-09
-3.47126e-16
-6.57721e-10
-1.45511e-09
1.29679e-15
-4.48915e-10
-1.27602e-09
2.92213e-15
-2.70641e-10
-1.06531e-09
5.15175e-15
-1.29751e-10
-8.10965e-10
3.04117e-15
-3.53007e-11
-4.9953e-10
5.49731e-15
-1.40015e-10
9.04179e-15
-8.02477e-09
-3.45673e-09
3.12121e-15
-7.78637e-09
-3.47776e-09
6.15749e-15
-7.52582e-09
-3.49199e-09
6.63397e-15
-7.24525e-09
-3.49881e-09
7.13809e-15
-6.94671e-09
-3.49764e-09
7.73297e-15
-6.63236e-09
-3.4876e-09
7.14825e-15
-6.30446e-09
-3.46809e-09
8.35339e-15
-5.96516e-09
-3.43841e-09
7.46376e-15
-5.61688e-09
-3.39737e-09
7.7251e-15
-5.26162e-09
-3.34658e-09
8.18826e-15
-4.90183e-09
-3.28381e-09
8.78921e-15
-4.53955e-09
-3.21112e-09
8.75899e-15
-4.17701e-09
-3.12757e-09
9.20911e-15
-3.81632e-09
-3.0339e-09
9.6464e-15
-3.45922e-09
-2.93294e-09
1.08576e-14
-3.10776e-09
-2.823e-09
1.19723e-14
-2.76352e-09
-2.70696e-09
2.70667e-15
-2.4282e-09
-2.58465e-09
-5.21597e-15
-2.10338e-09
-2.45699e-09
-7.6481e-16
-1.79052e-09
-2.32447e-09
2.42564e-15
-1.4914e-09
-2.18505e-09
4.00487e-15
-1.20796e-09
-2.03725e-09
-2.41587e-15
-9.42548e-10
-1.87727e-09
-4.7376e-16
-6.9838e-10
-1.69925e-09
1.22827e-15
-4.79579e-10
-1.4948e-09
2.90303e-15
-2.91438e-10
-1.25342e-09
5.14759e-15
-1.41426e-10
-9.60951e-10
3.0896e-15
-3.93296e-11
-6.01598e-10
5.5493e-15
-1.79322e-10
9.09451e-15
-7.8581e-09
-3.639e-09
2.73452e-15
-7.64947e-09
-3.6864e-09
5.79014e-15
-7.41657e-09
-3.7249e-09
6.52725e-15
-7.16154e-09
-3.75386e-09
6.98539e-15
-6.88649e-09
-3.77269e-09
7.48169e-15
-6.5936e-09
-3.78046e-09
7.19528e-15
-6.28514e-09
-3.77655e-09
8.18587e-15
-5.9633e-09
-3.76022e-09
7.56507e-15
-5.63051e-09
-3.73019e-09
7.87938e-15
-5.28878e-09
-3.68827e-09
8.31589e-15
-4.94058e-09
-3.63202e-09
8.88665e-15
-4.58794e-09
-3.56373e-09
8.82969e-15
-4.23314e-09
-3.48237e-09
9.19413e-15
-3.87831e-09
-3.38874e-09
9.64036e-15
-3.52523e-09
-3.286e-09
1.0769e-14
-3.176e-09
-3.17223e-09
1.17353e-14
-2.8323e-09
-3.05065e-09
2.63879e-15
-2.4959e-09
-2.92102e-09
-5.10651e-15
-2.16851e-09
-2.78437e-09
-8.01963e-16
-1.85172e-09
-2.64125e-09
2.26097e-15
-1.54745e-09
-2.48931e-09
3.7417e-15
-1.25781e-09
-2.32688e-09
-2.57094e-15
-9.85314e-10
-2.14974e-09
-6.28998e-16
-7.33381e-10
-1.95116e-09
1.11253e-15
-5.06363e-10
-1.72179e-09
2.84506e-15
-3.09888e-10
-1.44987e-09
5.0897e-15
-1.51783e-10
-1.11903e-09
3.11409e-15
-4.28788e-11
-7.10474e-10
5.59625e-15
-2.22178e-10
9.11957e-15
-7.65623e-09
-3.79187e-09
2.09024e-15
-7.47531e-09
-3.86732e-09
5.2638e-15
-7.26846e-09
-3.93176e-09
6.51672e-15
-7.03783e-09
-3.98451e-09
6.68521e-15
-6.78556e-09
-4.02497e-09
7.13322e-15
-6.51385e-09
-4.05214e-09
7.15794e-15
-6.22498e-09
-4.06541e-09
7.9815e-15
-5.92115e-09
-4.06402e-09
7.58058e-15
-5.60478e-09
-4.0466e-09
7.94059e-15
-5.27788e-09
-4.01514e-09
8.35707e-15
-4.94287e-09
-3.96704e-09
8.89308e-15
-4.6018e-09
-3.90478e-09
8.81641e-15
-4.25689e-09
-3.82727e-09
9.11848e-15
-3.91027e-09
-3.73536e-09
9.56165e-15
-3.56372e-09
-3.63252e-09
1.06169e-14
-3.21936e-09
-3.51659e-09
1.14724e-14
-2.87889e-09
-3.3911e-09
2.57925e-15
-2.54413e-09
-3.25576e-09
-4.98949e-15
-2.21686e-09
-3.11164e-09
-8.25636e-16
-1.89874e-09
-2.95934e-09
2.09444e-15
-1.59182e-09
-2.79622e-09
3.52267e-15
-1.29831e-09
-2.62038e-09
-2.68635e-15
-1.02087e-09
-2.42714e-09
-7.38108e-16
-7.63072e-10
-2.20894e-09
1.05139e-15
-5.29461e-10
-1.95538e-09
2.81235e-15
-3.2599e-10
-1.65332e-09
5.04097e-15
-1.60862e-10
-1.28413e-09
3.14743e-15
-4.59677e-11
-8.25341e-10
5.65798e-15
-2.68124e-10
9.14418e-15
-7.42911e-09
-3.91796e-09
1.50895e-15
-7.27372e-09
-4.02273e-09
4.70051e-15
-7.09113e-09
-4.11437e-09
6.31606e-15
-6.8835e-09
-4.19217e-09
6.34178e-15
-6.65297e-09
-4.25549e-09
6.82194e-15
-6.40179e-09
-4.3033e-09
7.04163e-15
-6.13222e-09
-4.33498e-09
7.73084e-15
-5.84647e-09
-4.34974e-09
7.52055e-15
-5.54692e-09
-4.34618e-09
7.91853e-15
-5.23557e-09
-4.32647e-09
8.31803e-15
-4.91479e-09
-4.28782e-09
8.81994e-15
-4.58658e-09
-4.23297e-09
8.72703e-15
-4.25312e-09
-4.16072e-09
8.99082e-15
-3.91649e-09
-4.072e-09
9.42342e-15
-3.57842e-09
-3.97055e-09
1.04151e-14
-3.24102e-09
-3.854e-09
1.11985e-14
-2.90596e-09
-3.72614e-09
2.53598e-15
-2.57509e-09
-3.58661e-09
-4.87308e-15
-2.25019e-09
-3.43653e-09
-8.48217e-16
-1.93299e-09
-3.27653e-09
1.89222e-15
-1.62557e-09
-3.10362e-09
3.28077e-15
-1.33024e-09
-2.91569e-09
-2.80367e-15
-1.04977e-09
-2.7076e-09
-8.57283e-16
-7.87809e-10
-2.47088e-09
9.50769e-16
-5.49088e-10
-2.19408e-09
2.74085e-15
-3.39838e-10
-1.86254e-09
4.96227e-15
-1.68722e-10
-1.45522e-09
3.15799e-15
-4.86234e-11
-9.45412e-10
5.70707e-15
-3.16726e-10
9.13507e-15
-7.1843e-09
-4.01983e-09
8.13096e-16
-7.05223e-09
-4.15481e-09
4.04281e-15
-6.89203e-09
-4.27459e-09
5.84133e-15
-6.70587e-09
-4.37836e-09
6.07156e-15
-6.4959e-09
-4.46546e-09
6.42776e-15
-6.26436e-09
-4.53482e-09
6.85701e-15
-6.01353e-09
-4.58581e-09
7.43074e-15
-5.74559e-09
-4.61765e-09
7.39584e-15
-5.4629e-09
-4.6289e-09
7.82412e-15
-5.16742e-09
-4.62191e-09
8.20499e-15
-4.86148e-09
-4.59378e-09
8.67785e-15
-4.54699e-09
-4.54744e-09
8.57652e-15
-4.22607e-09
-4.48164e-09
8.81692e-15
-3.90073e-09
-4.39735e-09
9.23571e-15
-3.57264e-09
-4.29861e-09
1.01751e-14
-3.24384e-09
-4.18281e-09
1.09056e-14
-2.91595e-09
-4.054e-09
2.51104e-15
-2.59081e-09
-3.91173e-09
-4.73123e-15
-2.27017e-09
-3.75717e-09
-8.52942e-16
-1.95577e-09
-3.5909e-09
1.71146e-15
-1.64973e-09
-3.40965e-09
3.09224e-15
-1.35438e-09
-3.21103e-09
-2.86217e-15
-1.07254e-09
-2.98941e-09
-9.19352e-16
-8.07957e-10
-2.73545e-09
8.97956e-16
-5.65476e-10
-2.43653e-09
2.70392e-15
-3.51595e-10
-2.0764e-09
4.90126e-15
-1.75437e-10
-1.63136e-09
3.19988e-15
-5.08792e-11
-1.06994e-09
5.76415e-15
-3.67585e-10
9.1327e-15
-6.92762e-09
-4.09998e-09
2.04392e-16
-6.81669e-09
-4.26577e-09
3.38427e-15
-6.67701e-09
-4.41428e-09
5.32796e-15
-6.51075e-09
-4.54465e-09
6.00981e-15
-6.32005e-09
-4.65616e-09
6.0369e-15
-6.10714e-09
-4.7477e-09
6.60103e-15
-5.87432e-09
-4.81864e-09
7.07383e-15
-5.62373e-09
-4.86822e-09
7.21693e-15
-5.3577e-09
-4.89496e-09
7.66818e-15
-5.07815e-09
-4.90144e-09
8.03066e-15
-4.78732e-09
-4.88462e-09
8.47957e-15
-4.48708e-09
-4.84766e-09
8.37663e-15
-4.17944e-09
-4.78927e-09
8.60557e-15
-3.86632e-09
-4.71048e-09
9.00717e-15
-3.54932e-09
-4.61558e-09
9.90502e-15
-3.23038e-09
-4.50175e-09
1.06077e-14
-2.91107e-09
-4.37329e-09
2.48017e-15
-2.59314e-09
-4.22964e-09
-4.57415e-15
-2.27833e-09
-4.07197e-09
-8.55389e-16
-1.96834e-09
-3.90087e-09
1.55011e-15
-1.66527e-09
-3.7127e-09
2.87331e-15
-1.37145e-09
-3.50483e-09
-2.90886e-15
-1.08973e-09
-3.2711e-09
-9.87232e-16
-8.23887e-10
-3.00127e-09
8.05442e-16
-5.78875e-10
-2.68152e-09
2.62395e-15
-3.61417e-10
-2.29383e-09
4.81417e-15
-1.80968e-10
-1.81178e-09
3.24297e-15
-5.27729e-11
-1.19811e-09
5.80702e-15
-4.20338e-10
9.09384e-15
-6.6636e-09
-4.16085e-09
-4.36887e-16
-6.57168e-09
-4.35771e-09
2.6867e-15
-6.45069e-09
-4.5353e-09
4.76011e-15
-6.30275e-09
-4.69263e-09
6.11031e-15
-6.13e-09
-4.82891e-09
5.78043e-15
-5.93468e-09
-4.94301e-09
6.25799e-15
-5.71903e-09
-5.03429e-09
6.63408e-15
-5.48521e-09
-5.10202e-09
6.99377e-15
-5.23547e-09
-5.14473e-09
7.45725e-15
-4.9717e-09
-5.16518e-09
7.80475e-15
-4.69607e-09
-5.16027e-09
8.23335e-15
-4.41033e-09
-5.13337e-09
8.13163e-15
-4.11644e-09
-5.08316e-09
8.36066e-15
-3.81619e-09
-5.01073e-09
8.74366e-15
-3.51109e-09
-4.92065e-09
9.60871e-15
-3.20297e-09
-4.80987e-09
1.02836e-14
-2.89332e-09
-4.68293e-09
2.45916e-15
-2.58381e-09
-4.53913e-09
-4.40013e-15
-2.2761e-09
-4.37968e-09
-8.36635e-16
-1.97184e-09
-4.20511e-09
1.44895e-15
-1.67309e-09
-4.01144e-09
2.71371e-15
-1.38215e-09
-3.79575e-09
-2.89213e-15
-1.10185e-09
-3.55138e-09
-9.96976e-16
-8.35977e-10
-3.26712e-09
7.71768e-16
-5.89545e-10
-2.92793e-09
2.59023e-15
-3.69486e-10
-2.51387e-09
4.75687e-15
-1.85833e-10
-1.99541e-09
3.30411e-15
-5.43499e-11
-1.32957e-09
5.85005e-15
-4.74668e-10
9.06413e-15
-6.39581e-09
-4.20475e-09
-1.10995e-15
-6.32086e-09
-4.4327e-09
2.00426e-15
-6.21675e-09
-4.63942e-09
4.2074e-15
-6.0856e-09
-4.82382e-09
5.7483e-15
-5.92951e-09
-4.98501e-09
5.86439e-15
-5.75068e-09
-5.12182e-09
5.94331e-15
-5.55135e-09
-5.23362e-09
6.24055e-15
-5.33362e-09
-5.31972e-09
6.73536e-15
-5.09972e-09
-5.37866e-09
7.19586e-15
-4.85146e-09
-5.41342e-09
7.53424e-15
-4.59092e-09
-5.42082e-09
7.94566e-15
-4.31979e-09
-5.40448e-09
7.84447e-15
-4.03989e-09
-5.36305e-09
8.08076e-15
-3.75293e-09
-5.29771e-09
8.44593e-15
-3.46029e-09
-5.21326e-09
9.29008e-15
-3.16371e-09
-5.10646e-09
9.9447e-15
-2.86455e-09
-4.98206e-09
2.4461e-15
-2.5644e-09
-4.83926e-09
-4.2113e-15
-2.26482e-09
-4.67925e-09
-8.1431e-16
-1.96739e-09
-4.50252e-09
1.34675e-15
-1.6741e-09
-4.30471e-09
2.54001e-15
-1.38719e-09
-4.08265e-09
-2.87102e-15
-1.10944e-09
-3.8291e-09
-1.01655e-15
-8.4461e-10
-3.53194e-09
7.06041e-16
-5.97753e-10
-3.17477e-09
2.50626e-15
-3.75974e-10
-2.73563e-09
4.65324e-15
-1.89754e-10
-2.18161e-09
3.33677e-15
-5.56524e-11
-1.46365e-09
5.87101e-15
-5.30301e-10
8.99206e-15
-6.12707e-09
-4.23391e-09
-1.69025e-15
-6.06711e-09
-4.49268e-09
1.32982e-15
-5.97819e-09
-4.72837e-09
3.64954e-15
-5.86233e-09
-4.93971e-09
5.34395e-15
-5.72162e-09
-5.12573e-09
5.68299e-15
-5.55822e-09
-5.2852e-09
5.72545e-15
-5.37434e-09
-5.41751e-09
5.87259e-15
-5.17202e-09
-5.52202e-09
6.42484e-15
-4.95343e-09
-5.59729e-09
6.88931e-15
-4.72031e-09
-5.64651e-09
7.22461e-15
-4.47466e-09
-5.66648e-09
7.62072e-15
-4.21808e-09
-5.66105e-09
7.51831e-15
-3.95228e-09
-5.62885e-09
7.75865e-15
-3.67884e-09
-5.57116e-09
8.11558e-15
-3.39904e-09
-5.49303e-09
8.94864e-15
-3.11448e-09
-5.39102e-09
9.56975e-15
-2.82644e-09
-5.27009e-09
2.44526e-15
-2.53636e-09
-5.12932e-09
-4.00166e-15
-2.24573e-09
-4.96987e-09
-7.67558e-16
-1.95603e-09
-4.7922e-09
1.28803e-15
-1.66914e-09
-4.59159e-09
2.43653e-15
-1.38723e-09
-4.36455e-09
-2.79303e-15
-1.113e-09
-4.1033e-09
-9.81533e-16
-8.50167e-10
-3.79475e-09
7.03909e-16
-6.03776e-10
-3.42114e-09
2.47857e-15
-3.81072e-10
-2.95831e-09
4.58366e-15
-1.92934e-10
-2.36972e-09
3.37231e-15
-5.6729e-11
-1.59983e-09
5.88486e-15
-5.87012e-10
8.92576e-15
-5.85959e-09
-4.25037e-09
-2.24519e-15
-5.81279e-09
-4.53951e-09
7.1586e-16
-5.73742e-09
-4.80377e-09
3.12373e-15
-5.63544e-09
-5.04172e-09
4.89156e-15
-5.50889e-09
-5.25228e-09
5.31425e-15
-5.3599e-09
-5.43418e-09
5.65885e-15
-5.19059e-09
-5.58682e-09
5.56546e-15
-5.00298e-09
-5.70961e-09
6.07477e-15
-4.79915e-09
-5.80115e-09
6.54062e-15
-4.58076e-09
-5.86487e-09
6.88199e-15
-4.34973e-09
-5.89752e-09
7.26811e-15
-4.10754e-09
-5.90321e-09
7.18208e-15
-3.8558e-09
-5.88058e-09
7.41573e-15
-3.59598e-09
-5.83099e-09
7.7712e-15
-3.32923e-09
-5.75975e-09
8.59077e-15
-3.05702e-09
-5.66323e-09
9.20908e-15
-2.78052e-09
-5.54657e-09
2.46357e-15
-2.50106e-09
-5.40876e-09
-3.77726e-15
-2.22e-09
-5.25092e-09
-7.16844e-16
-1.93872e-09
-5.07346e-09
1.22517e-15
-1.65901e-09
-4.87129e-09
2.31371e-15
-1.38291e-09
-4.64063e-09
-2.72085e-15
-1.11304e-09
-4.37314e-09
-9.64527e-16
-8.5303e-10
-4.05475e-09
6.65595e-16
-6.07894e-10
-3.66625e-09
2.3896e-15
-3.84977e-10
-3.18121e-09
4.45611e-15
-1.95511e-10
-2.55917e-09
3.38351e-15
-5.763e-11
-1.73769e-09
5.86593e-15
-6.44624e-10
8.80699e-15
-5.59517e-09
-4.25609e-09
-2.70122e-15
-5.5598e-09
-4.57492e-09
1.52482e-16
-5.49644e-09
-4.86716e-09
2.61207e-15
-5.40701e-09
-5.13118e-09
4.36949e-15
-5.29348e-09
-5.36583e-09
4.93295e-15
-5.15789e-09
-5.56975e-09
5.78464e-15
-5.00234e-09
-5.74238e-09
5.34998e-15
-4.82874e-09
-5.88319e-09
5.75629e-15
-4.6391e-09
-5.99083e-09
6.21458e-15
-4.435e-09
-6.06894e-09
6.55523e-15
-4.21825e-09
-6.11429e-09
6.92231e-15
-3.99023e-09
-6.13121e-09
6.84487e-15
-3.75243e-09
-6.11838e-09
7.06563e-15
-3.50619e-09
-6.07724e-09
7.42175e-15
-3.25257e-09
-6.01335e-09
8.21652e-15
-2.9929e-09
-5.9229e-09
8.84714e-15
-2.72822e-09
-5.81123e-09
2.49643e-15
-2.45974e-09
-5.67721e-09
-3.5203e-15
-2.18872e-09
-5.52194e-09
-6.39277e-16
-1.9164e-09
-5.34576e-09
1.19213e-15
-1.64447e-09
-5.14321e-09
2.23579e-15
-1.37485e-09
-4.91023e-09
-2.59498e-15
-1.11005e-09
-4.63792e-09
-8.97715e-16
-8.53572e-10
-4.31121e-09
6.83278e-16
-6.10386e-10
-3.90942e-09
2.36203e-15
-3.87887e-10
-3.40368e-09
4.36425e-15
-1.9761e-10
-2.74943e-09
3.40209e-15
-5.8407e-11
-1.87687e-09
5.84446e-15
-7.03015e-10
8.69082e-15
-5.33522e-09
-4.25283e-09
-3.02049e-15
-5.30968e-09
-4.60049e-09
-3.05225e-16
-5.25693e-09
-4.91994e-09
2.15042e-15
-5.17881e-09
-5.20935e-09
3.85231e-15
-5.0772e-09
-5.46744e-09
4.5565e-15
-4.9541e-09
-5.69284e-09
5.47924e-15
-4.81151e-09
-5.88499e-09
5.34055e-15
-4.65125e-09
-6.04343e-09
5.48512e-15
-4.47524e-09
-6.16687e-09
5.92776e-15
-4.28496e-09
-6.25919e-09
6.24155e-15
-4.08212e-09
-6.31715e-09
6.5851e-15
-3.86798e-09
-6.34533e-09