/*--------------------------------*- C++ -*----------------------------------*\
| =========                 |                                                 |
| \\      /  F ield         | OpenFOAM: The Open Source CFD Toolbox           |
|  \\    /   O peration     | Version:  v2012                                 |
|   \\  /    A nd           | Website:  www.openfoam.com                      |
|    \\/     M anipulation  |                                                 |
\*---------------------------------------------------------------------------*/
FoamFile
{
    version     2.0;
    format      ascii;
    class       surfaceScalarField;
    location    "0.2";
    object      alphaPhi0.water;
}
// * * * * * * * * * * * * * * * * * * * * * * * * * * * * * * * * * * * * * //

dimensions      [0 3 -1 0 0 0 0];
oriented        oriented;


internalField   nonuniform List<scalar> 
8145
(
-1.18541e-76
1.47175e-76
3.60002e-86
-3.64786e-74
4.55564e-74
-9.79704e-83
-1.39459e-71
1.74145e-71
-1.78846e-80
-6.81625e-69
8.51003e-69
-3.93885e-78
-6.76943e-66
8.19961e-66
1.25414e-75
-7.61688e-63
9.5797e-63
1.41435e-71
-8.61001e-60
1.40348e-59
-1.21625e-68
-1.66565e-57
5.78101e-57
-4.94301e-66
3.44669e-56
-1.22456e-64
-5.07663e-83
4.71535e-83
-1.96943e-91
-9.67455e-81
9.08601e-81
-2.20024e-89
-2.13927e-78
2.01609e-78
-3.29228e-87
-3.82103e-76
5.2542e-76
1.24631e-85
-1.18838e-73
1.63611e-73
-3.90835e-82
-4.57316e-71
6.29203e-71
-7.2109e-80
-2.38556e-68
3.22821e-68
-1.5558e-77
-2.37043e-65
3.18722e-65
6.43879e-75
-2.26411e-62
3.21958e-62
5.75955e-71
-3.04654e-59
5.44299e-59
-4.75666e-68
-1.69366e-57
8.57282e-57
-7.14081e-66
3.35878e-56
-1.1062e-64
-6.16689e-14
-5.40239e-11
-7.9026e-18
-9.11814e-18
-2.11805e-13
-2.95163e-20
-2.54742e-24
-3.50144e-17
-4.01509e-24
-1.51934e-31
-6.63598e-24
-8.81307e-31
-1.71644e-42
-4.50395e-31
-4.36356e-38
-1.57006e-47
-4.86001e-42
-4.17375e-49
-5.81257e-50
-4.14916e-47
-3.33426e-54
-3.65308e-52
-1.44899e-49
-1.05852e-56
-1.78917e-54
-8.67585e-52
-5.80358e-59
-8.11132e-57
-4.10197e-54
-2.49787e-61
-3.88348e-59
-1.74122e-56
-9.91936e-64
-1.32252e-61
-7.84431e-59
-4.21349e-66
-3.54994e-64
-2.54484e-61
-1.29275e-68
-1.33189e-66
-6.44237e-64
-3.16946e-71
-9.16728e-69
-2.28045e-66
-1.06609e-73
-4.35804e-71
-1.48217e-68
-7.13421e-76
-1.6883e-73
-6.44448e-71
-2.96153e-78
-3.36201e-76
-2.3296e-73
-1.01161e-80
-1.88454e-79
-4.35593e-76
-1.7762e-83
-6.62878e-84
-2.24259e-79
-8.70001e-87
-7.42483e-91
-6.59358e-84
-2.69446e-91
-5.41684e-91
-4.74835e-91
-3.92685e-99
-3.86494e-91
-2.34669e-91
-1.2737e-99
-2.35327e-91
-1.37301e-91
-1.13419e-99
-1.28149e-91
-6.0048e-92
-9.91155e-100
-7.77558e-92
-1.04454e-92
-8.74653e-100
-5.65558e-92
1.07214e-92
-7.44849e-100
-4.6594e-92
2.12893e-92
-5.77006e-100
-4.21262e-92
3.09898e-92
-4.15506e-100
-3.19627e-91
2.9303e-91
-2.35617e-99
-3.74712e-89
3.35846e-89
-1.10283e-97
-5.3108e-87
4.75052e-87
5.14872e-96
-8.22629e-85
7.3395e-85
-1.31563e-93
-8.0622e-83
1.26096e-82
-5.9674e-91
-1.54735e-80
2.43176e-80
-6.54398e-89
-3.43477e-78
5.40011e-78
-9.1765e-87
-8.93246e-76
1.40816e-75
3.25716e-85
-2.80268e-73
4.41407e-73
-1.14001e-81
-1.08621e-70
1.70881e-70
-2.12751e-79
-7.05339e-68
1.02587e-67
-4.72444e-77
-6.10161e-65
9.28155e-65
2.2109e-74
-3.82304e-62
7.03709e-62
1.61642e-70
-7.43225e-59
1.54232e-58
-1.32281e-67
-1.58222e-57
1.12932e-56
-8.60347e-66
2.85078e-56
-9.09142e-65
-7.20046e-14
-4.88751e-11
-6.57439e-18
-1.53689e-17
-2.32354e-13
-3.01352e-20
-2.31046e-24
-5.40433e-17
-6.20479e-24
-2.04744e-31
-5.84017e-24
-7.82234e-31
-2.43937e-42
-5.83445e-31
-5.87844e-38
-2.21783e-47
-6.66271e-42
-5.92609e-49
-8.34219e-50
-5.66564e-47
-4.69823e-54
-5.42163e-52
-2.01218e-49
-1.5181e-56
-2.85883e-54
-1.24312e-51
-8.63903e-59
-1.31343e-56
-6.34483e-54
-4.01117e-61
-6.35443e-59
-2.75158e-56
-1.62791e-63
-2.28019e-61
-1.24901e-58
-7.03616e-66
-6.36866e-64
-4.2723e-61
-2.29293e-68
-2.52665e-66
-1.12621e-63
-5.89887e-71
-1.8727e-68
-4.2218e-66
-2.14537e-73
-9.17496e-71
-2.96531e-68
-1.52219e-75
-3.80943e-73
-1.34164e-70
-6.47495e-78
-8.81999e-76
-5.10887e-73
-2.35305e-80
-6.05365e-79
-1.10875e-75
-4.76697e-83
-1.89285e-83
-7.03372e-79
-2.84609e-86
-1.23206e-90
-1.8274e-83
-7.79694e-91
-6.88699e-91
-8.00166e-91
-1.33888e-98
-5.44051e-91
-2.75162e-91
-1.27656e-99
-4.27192e-91
-1.5697e-91
-1.14651e-99
-3.24206e-91
-7.25077e-92
-9.86807e-100
-2.43451e-91
-1.34287e-92
-8.61032e-100
-1.9646e-91
2.79923e-92
-7.33685e-100
-1.68562e-91
5.86115e-92
-6.01663e-100
-1.55679e-91
9.22896e-92
-5.38797e-100
-6.60254e-91
8.66784e-91
-6.10503e-99
-6.44714e-89
9.61221e-89
-3.16086e-97
-9.12355e-87
1.36229e-86
1.15002e-95
-1.41147e-84
2.10796e-84
-4.2661e-93
-2.41746e-82
3.62235e-82
-1.71807e-90
-4.70709e-80
7.04631e-80
-1.88854e-88
-1.05552e-77
1.57846e-77
-2.55867e-86
-2.77919e-75
4.15185e-75
8.47622e-85
-8.78916e-73
1.31196e-72
-3.25621e-81
-3.43326e-70
5.11991e-70
-6.15422e-79
-2.55761e-67
3.57632e-67
-1.57571e-76
-2.05287e-64
2.97856e-64
7.31996e-74
-9.28016e-62
1.62986e-61
3.82966e-70
-2.11842e-58
4.47866e-58
-3.61088e-67
-1.14017e-57
1.37238e-56
-9.86105e-66
1.59468e-56
-5.67122e-65
-8.23448e-14
-4.3808e-11
-6.63215e-18
-2.36333e-17
-2.48791e-13
-3.3784e-20
-2.17399e-24
-7.6304e-17
-8.93896e-24
-2.77019e-31
-5.40575e-24
-7.26126e-31
-3.48663e-42
-7.58998e-31
-8.14638e-38
-3.15211e-47
-9.18637e-42
-8.73115e-49
-1.20299e-49
-7.78718e-47
-6.90416e-54
-8.01945e-52
-2.80883e-49
-2.26184e-56
-4.55167e-54
-1.77542e-51
-1.31844e-58
-2.16233e-56
-9.7547e-54
-6.55717e-61
-1.05295e-58
-4.41497e-56
-2.75319e-63
-3.97595e-61
-2.01544e-58
-1.19809e-65
-1.16101e-63
-7.24719e-61
-4.12138e-68
-4.89851e-66
-2.00136e-63
-1.11282e-70
-3.9151e-68
-7.99302e-66
-4.34192e-73
-2.03913e-70
-6.04321e-68
-3.3153e-75
-8.85546e-73
-2.94823e-70
-1.49308e-77
-2.34979e-75
-1.1637e-72
-5.63432e-80
-2.0179e-78
-2.85881e-75
-1.29925e-82
-5.59358e-83
-2.29186e-78
-9.65787e-86
-3.18407e-90
-5.21571e-83
-2.33521e-90
-9.17246e-91
-2.43368e-90
-7.40479e-98
-6.47076e-91
-4.22664e-91
-2.79121e-99
-5.10117e-91
-1.98063e-91
-1.14804e-99
-4.01422e-91
-8.76018e-92
-1.04989e-99
-3.11302e-91
-1.58496e-92
-8.56217e-100
-2.47983e-91
3.27573e-92
-7.28742e-100
-2.03243e-91
6.79597e-92
-6.1514e-100
-1.88719e-91
1.50852e-91
-1.57377e-99
-8.949e-90
9.70285e-90
-7.30406e-98
-1.20853e-87
1.29514e-87
-4.11437e-96
-1.73629e-85
1.85945e-85
1.1488e-94
-2.71816e-83
2.91022e-83
-6.10818e-92
-4.72683e-81
5.05999e-81
-2.32732e-89
-9.29318e-79
9.94815e-79
-2.57077e-87
-2.10439e-76
2.25276e-76
-3.39429e-85
-5.59613e-74
5.99079e-74
1.0614e-83
-1.78798e-71
1.91407e-71
-4.44556e-80
-7.05541e-69
7.55265e-69
-8.53921e-78
-5.42115e-66
5.77222e-66
-2.52644e-75
-3.6663e-63
3.9596e-63
1.14094e-72
-2.99042e-60
4.49741e-60
7.36897e-69
-6.44734e-58
1.39637e-57
-1.13691e-66
-4.65815e-58
1.33994e-56
-9.19802e-66
3.78554e-57
-2.06274e-65
-9.1554e-14
-3.88883e-11
-6.34872e-18
-3.34268e-17
-2.57928e-13
-3.3275e-20
-2.13069e-24
-9.9288e-17
-1.1218e-23
-3.76542e-31
-5.15662e-24
-6.9178e-31
-5.01363e-42
-9.92209e-31
-1.08112e-37
-4.51385e-47
-1.2746e-41
-1.21386e-48
-1.74618e-49
-1.07896e-46
-9.59216e-54
-1.18485e-51
-3.9492e-49
-3.2112e-56
-7.19425e-54
-2.53491e-51
-1.92223e-58
-3.607e-56
-1.48622e-53
-1.03055e-60
-1.77154e-58
-7.16268e-56
-4.60497e-63
-7.00743e-61
-3.30393e-58
-2.03661e-65
-2.15623e-63
-1.24148e-60
-7.39632e-68
-9.73811e-66
-3.62444e-63
-2.11858e-70
-8.31564e-68
-1.55229e-65
-8.91766e-73
-4.74174e-70
-1.24566e-67
-7.30401e-75
-2.16207e-72
-6.71868e-70
-3.58889e-77
-6.41649e-75
-2.79975e-72
-1.41248e-79
-6.99975e-78
-7.58044e-75
-3.62104e-82
-1.7439e-82
-7.73471e-78
-3.40456e-85
-1.76526e-89
-1.56518e-82
-7.37018e-90
-1.96708e-90
-1.32853e-89
-5.70288e-97
-1.07261e-90
-1.00316e-90
-1.36552e-98
-7.45828e-91
-3.56612e-91
-3.43108e-99
-5.46061e-91
-1.44752e-91
-1.54267e-99
-4.10896e-91
-2.48257e-92
-8.51429e-100
-3.41635e-91
4.62613e-92
-7.25468e-100
-3.2925e-91
1.04307e-91
-7.13936e-100
-7.56735e-91
6.30461e-91
-8.35202e-99
-5.1591e-89
6.05498e-89
-5.26238e-97
-6.98979e-87
8.23015e-87
-3.07966e-95
-1.01551e-84
1.19423e-84
6.31283e-94
-1.60777e-82
1.88853e-82
-4.92868e-91
-2.82718e-80
3.31727e-80
-1.79401e-88
-5.62064e-78
6.5881e-78
-1.98957e-86
-1.28691e-75
1.5069e-75
-2.57783e-84
-3.46019e-73
4.04753e-73
7.46905e-83
-1.11778e-70
1.30617e-70
-3.43233e-79
-4.90894e-68
5.65256e-68
-6.67131e-77
-3.73267e-65
4.30544e-65
-2.13254e-74
-1.60565e-62
1.99828e-62
8.38059e-72
-2.33277e-59
3.45706e-59
6.57125e-68
-9.86836e-58
2.73226e-57
-2.41146e-66
-7.07939e-59
1.23653e-56
-7.44994e-66
2.09323e-58
-2.77145e-66
-9.84103e-14
-3.41707e-11
-5.42836e-18
-4.37381e-17
-2.58022e-13
-3.2246e-20
-2.15789e-24
-1.1959e-16
-1.38839e-23
-5.1449e-31
-5.17878e-24
-7.00064e-31
-7.25881e-42
-1.3043e-30
-1.49791e-37
-6.52219e-47
-1.78098e-41
-1.76825e-48
-2.55677e-49
-1.50929e-46
-1.39083e-53
-1.75575e-51
-5.60568e-49
-4.71088e-56
-1.12744e-53
-3.63631e-51
-2.85814e-58
-6.06923e-56
-2.24362e-53
-1.62282e-60
-3.03188e-58
-1.16928e-55
-7.80606e-63
-1.24829e-60
-5.5101e-58
-3.52258e-65
-4.08824e-63
-2.14813e-60
-1.33775e-67
-1.98963e-65
-6.70043e-63
-4.09585e-70
-1.78982e-67
-3.09722e-65
-1.86978e-72
-1.13084e-69
-2.59667e-67
-1.62188e-74
-5.58928e-72
-1.55086e-69
-8.79691e-77
-1.83312e-74
-7.11175e-72
-3.73089e-79
-2.52213e-77
-2.11601e-74
-1.05199e-81
-5.98394e-82
-2.68922e-77
-1.24309e-84
-1.50566e-88
-5.19414e-82
-2.55516e-89
-3.58913e-90
-1.0074e-88
-5.45079e-96
-2.21646e-90
-1.61635e-90
-3.32745e-98
-1.48069e-90
-6.96687e-91
-1.12968e-98
-1.05714e-90
-3.1134e-91
-6.65139e-99
-8.34289e-91
-5.89772e-92
-3.79493e-99
-7.27291e-91
1.03799e-91
-2.54929e-99
-6.8835e-91
2.34895e-91
-2.03389e-99
-1.81616e-90
1.93285e-90
-2.95163e-98
-1.51832e-88
2.09832e-88
-1.9212e-96
-2.08839e-86
2.88566e-86
-1.16132e-94
-3.06922e-84
4.22956e-84
1.57782e-93
-4.91461e-82
6.75524e-82
-1.97789e-90
-8.7395e-80
1.19829e-79
-7.02725e-88
-1.75692e-77
2.40312e-77
-7.79429e-86
-4.0676e-75
5.55042e-75
-9.96782e-84
-1.10591e-72
1.50545e-72
2.55117e-82
-3.61277e-70
4.90602e-70
-1.34667e-78
-1.93826e-67
2.49916e-67
-2.88359e-76
-1.34253e-64
1.77125e-64
-9.13656e-74
-5.079e-62
7.06494e-62
2.47168e-71
-7.20226e-59
1.25359e-58
2.75738e-67
-9.50921e-58
3.9673e-57
-3.7393e-66
-2.46807e-60
1.13481e-56
-6.04443e-66
1.56803e-60
-8.68349e-68
-1.02339e-13
-2.97009e-11
-4.93888e-18
-5.31595e-17
-2.50514e-13
-3.11545e-20
-2.96123e-24
-1.33877e-16
-1.60093e-23
-7.07015e-31
-9.24076e-24
-8.88672e-31
-1.05886e-41
-1.72522e-30
-1.91949e-37
-9.52151e-47
-2.50819e-41
-2.43445e-48
-3.7851e-49
-2.13427e-46
-1.95105e-53
-2.62533e-51
-8.05261e-49
-6.79211e-56
-1.75516e-53
-5.27783e-51
-4.20722e-58
-1.02573e-55
-3.36696e-53
-2.50681e-60
-5.28134e-58
-1.91286e-55
-1.31593e-62
-2.24992e-60
-9.34795e-58
-6.15466e-65
-7.92267e-63
-3.75985e-60
-2.43138e-67
-4.18163e-65
-1.26515e-62
-8.0396e-70
-3.92718e-67
-6.34944e-65
-4.00211e-72
-2.72801e-69
-5.52938e-67
-3.64797e-74
-1.52027e-71
-3.593e-69
-2.16598e-76
-5.60526e-74
-1.87953e-71
-1.03111e-78
-9.49756e-77
-6.33056e-74
-3.25753e-81
-2.43379e-81
-9.7208e-77
-4.7292e-84
-2.14683e-87
-2.06394e-81
-1.04776e-88
-6.11753e-90
-2.16512e-87
-7.99846e-95
-4.14932e-90
-2.52459e-90
-6.90228e-98
-2.88308e-90
-1.10641e-90
-2.09389e-98
-2.1453e-90
-4.48472e-91
-1.17201e-98
-1.77878e-90
-7.38209e-92
-5.75304e-99
-1.53003e-90
1.86194e-91
-4.02647e-99
-1.31569e-90
4.63742e-91
-5.31798e-99
-1.08238e-89
1.19046e-89
-2.0486e-97
-1.33162e-87
1.52907e-87
-1.40989e-95
-1.85939e-85
2.13186e-85
-8.81988e-94
-2.76209e-83
3.16268e-83
6.5824e-93
-4.47096e-81
5.11367e-81
-1.60109e-89
-8.03848e-79
9.18468e-79
-5.59302e-87
-1.63413e-76
1.86535e-76
-6.2196e-85
-3.8264e-74
4.36373e-74
-7.94067e-83
-1.05231e-71
1.19896e-71
1.72132e-81
-3.47761e-69
3.95839e-69
-1.0891e-77
-1.97875e-66
2.22554e-66
-2.7623e-75
-1.16366e-63
1.33906e-63
-8.09418e-73
-7.55702e-61
1.01861e-60
3.22125e-70
-1.54234e-58
3.20735e-58
8e-67
-9.08928e-58
5.07497e-57
-4.92849e-66
-1.3421e-62
1.03276e-56
-4.66488e-66
1.33055e-63
-4.1503e-70
-1.0385e-13
-2.55187e-11
-3.8487e-18
-6.0351e-17
-2.39151e-13
-2.82254e-20
-1.03143e-23
-1.40439e-16
-1.77241e-23
-9.77599e-31
-4.25762e-23
-3.12581e-30
-1.55712e-41
-2.29755e-30
-2.6829e-37
-1.40576e-46
-3.56354e-41
-3.56651e-48
-5.678e-49
-3.05373e-46
-2.85707e-53
-3.99224e-51
-1.17319e-48
-1.00887e-55
-2.72947e-53
-7.81772e-51
-6.34721e-58
-1.73667e-55
-5.05956e-53
-3.87082e-60
-9.3561e-58
-3.13047e-55
-2.22188e-62
-4.11332e-60
-1.61079e-57
-1.09092e-64
-1.56981e-62
-6.67728e-60
-4.46264e-67
-9.04092e-65
-2.43928e-62
-1.60336e-69
-8.91694e-67
-1.33683e-64
-8.73792e-72
-6.7087e-69
-1.22562e-66
-8.42795e-74
-4.31951e-71
-8.50694e-69
-5.39088e-76
-1.86448e-73
-5.13054e-71
-2.95787e-78
-3.84204e-76
-2.04143e-73
-1.09221e-80
-1.2862e-80
-3.77582e-76
-1.92624e-83
-7.41029e-86
-1.05966e-80
-5.56916e-88
-1.22602e-88
-9.1007e-86
-2.78058e-93
-6.47003e-90
-1.21076e-88
-3.87679e-96
-4.47744e-90
-1.71198e-90
-6.01293e-98
-2.88763e-90
-7.16768e-91
-2.68878e-98
-2.23184e-90
-9.99625e-92
-1.32094e-98
-1.92219e-90
2.24527e-91
-9.39422e-99
-1.83689e-90
8.48411e-91
-2.41362e-98
-4.82715e-89
5.88367e-89
-1.1632e-96
-6.52948e-87
8.00926e-87
-8.21252e-95
-9.2543e-85
1.13183e-84
-5.30901e-93
-1.3945e-82
1.70113e-82
7.44967e-93
-2.28966e-80
2.78661e-80
-1.0141e-88
-4.17568e-78
5.07083e-78
-3.49717e-86
-8.61056e-76
1.04343e-75
-3.91562e-84
-2.04524e-73
2.47332e-73
-5.01608e-82
-5.70615e-71
6.88635e-71
8.39916e-81
-1.91324e-68
2.3042e-68
-6.9769e-77
-1.21659e-65
1.43738e-65
-1.95934e-74
-4.88624e-63
6.21456e-63
-4.87358e-72
-4.69232e-60
6.87391e-60
2.4469e-69
-2.70486e-58
6.63343e-58
1.8435e-66
-8.62644e-58
6.01196e-57
-5.98265e-66
-1.46501e-65
9.32837e-57
-3.56026e-66
5.22582e-67
-4.03686e-73
-1.04044e-13
-2.16586e-11
-3.72441e-18
-6.46703e-17
-2.26852e-13
-2.90841e-20
-4.75798e-23
-1.40147e-16
-1.93708e-23
-1.36059e-30
-1.7701e-22
-1.35781e-29
-2.3109e-41
-3.08243e-30
-3.54053e-37
-2.09996e-46
-5.11363e-41
-5.09924e-48
-8.64491e-49
-4.42257e-46
-4.17556e-53
-6.22636e-51
-1.73595e-48
-1.51596e-55
-4.28117e-53
-1.19201e-50
-9.81804e-58
-2.94701e-55
-7.70207e-53
-6.04063e-60
-1.68275e-57
-5.13431e-55
-3.75875e-62
-7.65844e-60
-2.81318e-57
-1.96018e-64
-3.18169e-62
-1.20876e-59
-8.31637e-67
-2.01228e-64
-4.8044e-62
-3.25603e-69
-2.13641e-66
-2.89377e-64
-1.95017e-71
-1.74009e-68
-2.88417e-66
-2.03389e-73
-1.30148e-70
-2.15052e-68
-1.40415e-75
-6.8588e-73
-1.48191e-70
-8.94431e-78
-1.75801e-75
-7.17723e-73
-4.03161e-80
-9.5775e-80
-1.65643e-75
-8.84372e-83
-2.72291e-84
-7.56279e-80
-4.15999e-87
-2.04731e-86
-1.90373e-84
-1.02451e-91
-1.71394e-88
-2.09207e-86
-6.70235e-94
-6.8248e-90
-1.68924e-88
-4.77068e-96
-5.08348e-90
-9.74202e-91
-8.05447e-98
-3.75174e-90
-1.62616e-91
-4.96593e-98
-3.68744e-90
4.39869e-91
-3.2098e-98
-5.10337e-90
2.56535e-90
-8.77601e-98
-1.614e-88
2.15056e-88
-4.42134e-96
-2.19756e-86
2.97664e-86
-3.19354e-94
-3.15925e-84
4.26141e-84
-2.13283e-92
-4.82995e-82
6.48899e-82
-8.27773e-92
-8.04621e-80
1.07698e-79
-4.26056e-88
-1.48889e-77
1.98579e-77
-1.43885e-85
-3.11539e-75
4.14074e-75
-1.642e-83
-7.50964e-73
9.94731e-73
-2.13288e-81
-2.12656e-70
2.80729e-70
2.51547e-80
-8.15658e-68
1.04404e-67
-2.9999e-76
-5.19384e-65
6.62375e-65
-9.37489e-74
-1.54215e-62
2.15891e-62
-1.6635e-71
-1.74185e-59
2.85076e-59
1.15919e-68
-4.13236e-58
1.17814e-57
3.62382e-66
-8.14675e-58
6.72249e-57
-6.65273e-66
-1.8207e-68
8.37719e-57
-2.41388e-66
5.64453e-68
-4.05948e-76
-1.02885e-13
-1.81465e-11
-3.15187e-18
-6.64325e-17
-2.10279e-13
-2.76662e-20
-1.522e-22
-1.35533e-16
-1.93087e-23
-1.9066e-30
-4.61504e-22
-4.23703e-29
-3.46505e-41
-4.16854e-30
-4.82884e-37
-3.17366e-46
-7.42201e-41
-7.40023e-48
-1.33684e-48
-6.48149e-46
-6.14131e-53
-1.00286e-50
-2.60964e-48
-2.29511e-55
-6.8641e-53
-1.88188e-50
-1.55656e-57
-5.03396e-55
-1.2059e-52
-9.56452e-60
-3.06838e-57
-8.49085e-55
-6.36534e-62
-1.45965e-59
-4.97338e-57
-3.5518e-64
-6.6108e-62
-2.2427e-59
-1.57764e-66
-4.62544e-64
-9.69619e-62
-6.73478e-69
-5.48139e-66
-6.46933e-64
-4.45956e-71
-5.01242e-68
-7.26451e-66
-5.20388e-73
-4.38696e-70
-6.09861e-68
-4.0302e-75
-2.91669e-72
-4.82647e-70
-3.00764e-77
-9.74987e-75
-2.90547e-72
-1.71236e-79
-1.09963e-78
-8.69328e-75
-4.90361e-82
-2.38333e-82
-9.26276e-79
-4.77819e-86
-3.76979e-84
-2.4064e-82
-8.97273e-90
-4.55883e-86
-3.82629e-84
-1.23522e-91
-1.60562e-88
-4.69402e-86
-1.29995e-93
-1.03163e-89
-1.52833e-88
-3.88729e-96
-8.93836e-90
-3.92991e-91
-1.61392e-97
-8.57124e-90
1.17396e-90
-1.25163e-97
-1.70861e-89
1.23335e-89
-5.03907e-97
-1.23234e-87
1.43593e-87
-2.94117e-95
-1.7367e-85
2.02544e-85
-2.17976e-93
-2.5293e-83
2.94101e-83
-1.50441e-91
-3.91719e-81
4.54366e-81
-1.34897e-90
-6.61199e-79
7.65339e-79
-3.12852e-87
-1.23996e-76
1.43253e-76
-1.03858e-84
-2.63002e-74
3.03305e-74
-1.21845e-82
-6.42791e-72
7.40021e-72
-1.61253e-80
-1.84598e-69
2.1216e-69
1.00832e-79
-7.8993e-67
8.92665e-67
-2.53773e-75
-3.95508e-64
4.61087e-64
-8.09918e-73
-2.04706e-61
2.79383e-61
-1.70444e-70
-4.89239e-59
8.89737e-59
4.03403e-68
-5.6964e-58
1.86263e-57
6.2904e-66
-7.65096e-58
7.17326e-57
-7.00758e-66
-4.11921e-69
7.4699e-57
-1.48378e-66
3.37879e-68
-7.55301e-77
-9.72552e-14
-1.50012e-11
-2.71445e-18
-6.64825e-17
-1.84809e-13
-2.52157e-20
-3.23947e-22
-1.28618e-16
-1.85925e-23
-2.69093e-30
-8.08068e-22
-8.79488e-29
-5.25561e-41
-5.68654e-30
-6.73907e-37
-4.84956e-46
-1.09143e-40
-1.11707e-47
-2.09873e-48
-9.60617e-46
-9.37398e-53
-1.67203e-50
-3.98187e-48
-3.60139e-55
-1.14204e-52
-3.07542e-50
-2.58972e-57
-8.72893e-55
-1.97218e-52
-1.58604e-59
-5.67515e-57
-1.43041e-54
-1.09856e-61
-2.86307e-59
-8.91238e-57
-6.5333e-64
-1.41582e-61
-4.28638e-59
-3.0752e-66
-1.10509e-63
-2.01939e-61
-1.43081e-68
-1.51064e-65
-1.50616e-63
-1.05407e-70
-1.68186e-67
-1.94302e-65
-1.41878e-72
-1.80891e-69
-1.98484e-67
-1.33894e-74
-1.58221e-71
-1.92482e-69
-1.23099e-76
-7.1716e-74
-1.52113e-71
-9.23987e-79
-2.17468e-77
-5.98347e-74
-3.59395e-81
-3.4293e-80
-2.21779e-77
-9.42768e-85
-9.06973e-82
-3.42599e-80
-1.28904e-87
-1.4909e-83
-9.0963e-82
-2.40645e-89
-8.3761e-86
-1.51166e-83
-3.78851e-91
-4.1794e-89
-8.38965e-86
-2.07166e-93
-5.05166e-89
-1.11261e-90
-8.21226e-97
-5.86448e-89
8.82091e-90
-1.07209e-96
-1.1754e-88
8.04104e-89
-3.56945e-96
-7.85788e-87
9.22428e-87
-2.03702e-94
-1.12242e-84
1.32089e-84
-1.5458e-92
-1.6619e-82
1.94874e-82
-1.10178e-90
-2.61742e-80
3.05983e-80
-1.46894e-89
-4.49365e-78
5.23918e-78
-2.38248e-86
-8.57265e-76
9.9704e-76
-7.79614e-84
-1.85005e-73
2.14671e-73
-9.40016e-82
-4.60147e-71
5.32739e-71
-1.27418e-79
-1.3451e-68
1.55388e-68
1.69124e-79
-6.59258e-66
7.4736e-66
-2.2722e-74
-2.00426e-63
2.45967e-63
-5.90725e-72
-1.80525e-60
2.50316e-60
-1.66506e-69
-1.12701e-58
2.2697e-58
1.16099e-67
-7.21301e-58
2.67656e-57
9.91499e-66
-7.14731e-58
7.36485e-57
-6.80657e-66
-2.32948e-69
6.61772e-57
-4.97812e-67
1.80898e-68
-3.69015e-77
-8.68174e-14
-1.22336e-11
-2.4556e-18
-6.55696e-17
-1.53673e-13
-2.22271e-20
-5.01295e-22
-1.19665e-16
-1.76951e-23
-3.82721e-30
-1.06301e-21
-1.31686e-28
-8.07856e-41
-7.83266e-30
-9.22991e-37
-7.48739e-46
-1.62963e-40
-1.6464e-47
-3.3402e-48
-1.43895e-45
-1.39862e-52
-2.8726e-50
-6.15572e-48
-5.58545e-55
-1.9948e-52
-5.1618e-50
-4.36128e-57
-1.55417e-54
-3.3991e-52
-2.72373e-59
-1.06876e-56
-2.48575e-54
-1.92858e-61
-5.80326e-59
-1.62746e-56
-1.21468e-63
-3.15302e-61
-8.46545e-59
-6.15499e-66
-2.76597e-63
-4.38436e-61
-3.14053e-68
-4.47426e-65
-3.6856e-63
-2.59205e-70
-6.81668e-67
-5.48446e-65
-4.12171e-72
-1.0111e-68
-7.43281e-67
-5.33911e-74
-1.25664e-70
-1.0051e-68
-6.7954e-76
-8.03951e-73
-1.16766e-70
-7.27033e-78
-6.4236e-76
-6.49362e-73
-4.00096e-80
-5.25423e-78
-4.54339e-76
-2.77081e-83
-2.15766e-79
-5.15437e-78
-1.96765e-85
-5.78221e-81
-2.13293e-79
-4.96946e-87
-4.87744e-83
-5.81283e-81
-1.17241e-88
-1.50187e-87
-4.89021e-83
-1.2052e-90
-3.44277e-88
-9.03776e-89
-3.19974e-95
-3.39898e-88
4.85465e-89
-6.33211e-96
-5.95276e-88
3.84911e-88
-1.75756e-95
-3.29396e-86
4.17811e-86
-9.43099e-94
-4.7671e-84
6.06977e-84
-7.327e-92
-7.1833e-82
9.0989e-82
-5.3876e-90
-1.15167e-79
1.45208e-79
-9.39039e-89
-2.01309e-77
2.52765e-77
-1.20874e-85
-3.91081e-75
4.89122e-75
-3.94116e-83
-8.59633e-73
1.07109e-72
-4.8668e-81
-2.17826e-70
2.70415e-70
-6.74557e-79
-7.08491e-68
8.62066e-68
-2.69127e-78
-3.69229e-65
4.43352e-65
-1.38648e-73
-1.03654e-62
1.27924e-62
-2.29627e-71
-8.72536e-60
1.31984e-59
-9.80258e-69
-2.21647e-58
4.93257e-58
2.79748e-67
-8.63913e-58
3.55839e-57
1.43895e-65
-6.64735e-58
7.32401e-57
-6.39746e-66
-7.59172e-70
5.79661e-57
2.73582e-67
3.23484e-69
-1.14587e-77
-7.33413e-14
-9.84484e-12
-2.12632e-18
-6.06853e-17
-1.22046e-13
-1.8228e-20
-6.18306e-22
-1.01691e-16
-1.57234e-23
-5.49027e-30
-1.15646e-21
-1.59942e-28
-1.26121e-40
-1.09094e-29
-1.3157e-36
-1.16778e-45
-2.47695e-40
-2.56304e-47
-5.38046e-48
-2.17893e-45
-2.18056e-52
-5.03163e-50
-9.62581e-48
-8.99018e-55
-3.6612e-52
-8.78149e-50
-7.61563e-57
-2.8739e-54
-6.14024e-52
-4.9677e-59
-2.06508e-56
-4.50361e-54
-3.53623e-61
-1.21782e-58
-3.05627e-56
-2.32213e-63
-7.37054e-61
-1.72821e-58
-1.27469e-65
-7.28276e-63
-1.00117e-60
-7.21705e-68
-1.54733e-64
-9.50369e-63
-6.6761e-70
-4.5362e-66
-1.75244e-64
-1.31341e-71
-1.06707e-67
-4.35164e-66
-2.77907e-73
-1.75085e-69
-9.60122e-68
-5.68802e-75
-1.64928e-71
-1.51485e-69
-9.3053e-77
-3.75827e-74
-1.37108e-71
-8.12625e-79
-1.08864e-75
-3.08797e-74
-1.60885e-81
-5.18001e-77
-1.05279e-75
-3.18793e-83
-2.15263e-78
-5.02955e-77
-1.09105e-84
-3.98724e-80
-2.13619e-78
-3.86744e-86
-4.85416e-84
-4.00684e-80
-7.52031e-88
-1.8369e-87
-4.86791e-84
-1.03565e-91
-1.69932e-87
2.55863e-88
-3.33282e-95
-4.96055e-87
3.91462e-87
-1.78671e-94
-4.81416e-85
5.22985e-85
-1.18247e-92
-7.14147e-83
7.74592e-83
-9.45148e-91
-1.0928e-80
1.18169e-80
-7.17478e-89
-1.7797e-78
1.9202e-78
-1.50001e-87
-3.16115e-76
3.40482e-76
-1.67696e-84
-6.24259e-74
6.71403e-74
-5.4884e-82
-1.39533e-71
1.49878e-71
-6.94341e-80
-3.5967e-69
3.85875e-69
-9.89925e-78
-1.35843e-66
1.44176e-66
-8.70318e-77
-4.68776e-64
5.11999e-64
-2.36032e-72
-2.65458e-61
3.43427e-61
-5.91086e-70
-3.11276e-59
5.10447e-59
-4.16118e-68
-3.86441e-58
9.41816e-58
6.02161e-67
-9.84711e-58
4.41087e-57
1.95359e-65
-5.97803e-58
6.97081e-57
-5.52504e-66
-7.57237e-71
4.9223e-57
1.05354e-66
9.29571e-71
-1.06626e-78
-5.91897e-14
-7.82623e-12
-1.77837e-18
-5.11422e-17
-9.36228e-14
-1.44695e-20
-6.58531e-22
-8.0328e-17
-1.30888e-23
-7.95643e-30
-1.12517e-21
-1.69702e-28
-2.00535e-40
-1.53981e-29
-1.89021e-36
-1.84198e-45
-3.84433e-40
-4.0101e-47
-8.76673e-48
-3.34142e-45
-3.38654e-52
-8.87554e-50
-1.52244e-47
-1.4414e-54
-6.96624e-52
-1.4953e-49
-1.32173e-56
-5.55558e-54
-1.13905e-51
-9.28535e-59
-4.13688e-56
-8.53259e-54
-6.71461e-61
-2.64572e-58
-5.96828e-56
-4.56759e-63
-1.81813e-60
-3.64209e-58
-2.71589e-65
-2.00249e-62
-2.40856e-60
-1.74063e-67
-7.60767e-64
-2.54224e-62
-1.78528e-69
-5.2835e-65
-7.64246e-64
-5.03445e-71
-2.14969e-66
-4.68427e-65
-2.41996e-72
-4.99827e-68
-1.83785e-66
-8.92737e-74
-7.04821e-70
-4.17708e-68
-2.08926e-75
-4.72972e-72
-5.80703e-70
-3.16601e-77
-2.12562e-73
-4.5675e-72
-2.00443e-79
-1.28269e-74
-2.02217e-73
-5.49932e-81
-8.0932e-76
-1.21485e-74
-2.55504e-82
-3.33044e-77
-7.83136e-76
-1.36457e-83
-1.99719e-80
-3.38739e-77
-5.05459e-85
-2.10436e-86
-1.99766e-80
-4.25081e-88
-1.99213e-86
3.10981e-87
-3.82167e-94
-4.33462e-86
3.21994e-86
-1.5014e-93
-3.57384e-84
4.09531e-84
-9.55269e-92
-5.39377e-82
6.17095e-82
-7.83009e-90
-8.42156e-80
9.59236e-80
-6.12889e-88
-1.39994e-77
1.5889e-77
-1.47517e-86
-2.5389e-75
2.87294e-75
-1.49503e-83
-5.12062e-73
5.77873e-73
-4.93129e-81
-1.16929e-70
1.31627e-70
-6.38337e-79
-3.71563e-68
4.09132e-68
-9.32695e-77
-1.38863e-65
1.52971e-65
-1.47263e-75
-3.52627e-63
4.0264e-63
-1.79257e-71
-2.48008e-60
3.40969e-60
-6.53144e-69
-8.93565e-59
1.57846e-58
-1.4189e-67
-6.03781e-58
1.59791e-57
1.14238e-66
-1.03157e-57
5.07262e-57
2.48017e-65
-5.49856e-58
6.51952e-57
-4.56684e-66
-1.31652e-72
4.42271e-57
1.63508e-66
2.58238e-73
-1.75755e-80
-4.60006e-14
-6.1584e-12
-1.48309e-18
-4.07088e-17
-6.97265e-14
-1.14121e-20
-6.49475e-22
-6.11932e-17
-1.04399e-23
-1.16772e-29
-1.03092e-21
-1.6645e-28
-3.25776e-40
-2.20939e-29
-2.74193e-36
-2.94784e-45
-6.1137e-40
-6.42527e-47
-1.44766e-47
-5.21119e-45
-5.36855e-52
-1.56457e-49
-2.44304e-47
-2.36024e-54
-1.34452e-51
-2.53489e-49
-2.31107e-56
-1.12016e-53
-2.11725e-51
-1.77279e-58
-8.68023e-56
-1.67772e-53
-1.33597e-60
-5.95289e-58
-1.22274e-55
-9.43012e-63
-4.72426e-60
-7.92529e-58
-5.99172e-65
-5.62138e-62
-6.06463e-60
-4.41614e-67
-4.48096e-63
-6.80996e-62
-4.85912e-69
-6.53424e-64
-4.04847e-63
-2.46192e-70
-5.02515e-65
-5.63465e-64
-2.74146e-71
-2.23605e-66
-4.21826e-65
-1.86215e-72
-5.80539e-68
-1.8437e-66
-7.68954e-74
-8.919e-70
-4.75424e-68
-1.97137e-75
-4.20144e-71
-7.50991e-70
-2.93883e-77
-3.31638e-72
-3.9089e-71
-1.0136e-78
-3.13752e-73
-3.02966e-72
-6.40431e-80
-2.63054e-74
-2.8965e-73
-5.16874e-81
-9.58888e-77
-2.63576e-74
-3.6697e-82
-4.30513e-84
-9.59082e-77
-2.03291e-84
-1.83967e-84
6.46667e-85
-7.79698e-92
-2.37784e-84
6.10828e-85
-2.80976e-92
-8.85838e-83
9.15087e-83
-2.10987e-90
-1.32542e-80
1.3906e-80
-1.77971e-88
-2.10762e-78
2.20451e-78
-1.43698e-86
-3.57155e-76
3.72753e-76
-3.84588e-85
-6.60561e-74
6.88333e-74
-3.67933e-82
-1.35918e-71
1.41463e-71
-1.22804e-79
-3.44369e-69
3.56987e-69
-1.62948e-77
-1.20714e-66
1.2455e-66
-2.90696e-75
-2.67257e-64
2.81579e-64
-5.53766e-74
-1.44132e-61
1.90015e-61
-7.23419e-70
-1.41754e-59
2.06157e-59
-4.39227e-68
-2.1127e-58
4.00508e-58
-3.97491e-67
-7.77064e-58
2.33264e-57
1.95012e-66
-9.58619e-58
5.39044e-57
2.88539e-65
-6.24297e-58
6.45268e-57
-3.61036e-66
-2.80342e-75
5.39695e-57
2.77609e-66
4.7524e-77
1.37305e-83
-3.45007e-14
-4.81061e-12
-1.224e-18
-3.13693e-17
-5.05301e-14
-8.89938e-21
-5.55361e-22
-4.57343e-17
-8.1479e-24
-1.74189e-29
-7.05003e-22
-1.43617e-28
-5.42828e-40
-3.23627e-29
-4.13359e-36
-4.81456e-45
-1.00008e-39
-1.07652e-46
-2.43652e-47
-8.32224e-45
-8.76181e-52
-2.76351e-49
-4.00653e-47
-3.92197e-54
-2.5896e-51
-4.3108e-49
-4.00701e-56
-2.33355e-53
-3.89283e-51
-3.33068e-58
-1.91969e-55
-3.37855e-53
-2.71235e-60
-1.39349e-57
-2.63459e-55
-2.03184e-62
-1.28729e-59
-1.79112e-57
-1.36524e-64
-1.57155e-61
-1.58923e-59
-1.16933e-66
-2.29202e-62
-1.77228e-61
-1.31274e-68
-5.99535e-63
-1.89357e-62
-1.18398e-69
-9.15194e-64
-5.02696e-63
-2.54217e-70
-8.85448e-65
-7.5338e-64
-3.27713e-71
-5.47246e-66
-7.19255e-65
-2.77035e-72
-2.27273e-67
-4.39091e-66
-1.5361e-73
-8.78502e-69
-1.82433e-67
-5.93441e-75
-9.02913e-70
-7.93553e-69
-2.00343e-76
-1.26328e-70
-7.81993e-70
-1.72463e-77
-2.07738e-71
-1.06242e-70
-2.1099e-78
-9.04941e-73
-1.99643e-71
-2.89106e-79
-6.25918e-78
-9.14047e-73
-1.15575e-80
-5.37613e-79
9.16665e-79
-1.12894e-85
-1.58779e-79
1.25071e-79
-5.77372e-87
-7.41088e-80
6.73548e-80
-1.57911e-87
-5.22827e-79
4.76143e-79
-6.28294e-87
-7.1851e-77
7.42313e-77
-5.03262e-85
-1.24404e-74
1.2832e-74
-1.45948e-83
-2.34646e-72
2.41621e-72
-1.35777e-80
-4.94351e-70
5.08376e-70
-4.60292e-78
-1.58528e-67
1.61824e-67
-6.79388e-76
-3.2371e-65
3.35068e-65
-1.36577e-73
-1.16496e-62
1.7776e-62
-3.0202e-72
-2.19875e-60
2.92313e-60
-1.24661e-68
-5.45449e-59
8.4537e-59
-2.04934e-67
-3.56211e-58
7.72362e-58
-8.75816e-67
-7.43599e-58
2.82992e-57
2.72085e-66
-9.36756e-58
5.83668e-57
3.25943e-65
-2.75219e-57
1.25619e-56
-4.2691e-66
-1.07604e-78
3.40321e-56
1.59117e-65
4.18298e-80
2.38491e-84
-2.50273e-14
-3.74399e-12
-9.33321e-19
-2.36628e-17
-3.58853e-14
-6.7828e-21
-3.34396e-22
-3.37327e-17
-6.24484e-24
-2.65374e-29
-3.50095e-22
-8.53051e-29
-9.31736e-40
-4.86431e-29
-6.14924e-36
-8.0911e-45
-1.6897e-39
-1.79675e-46
-4.22017e-47
-1.37299e-44
-1.44258e-51
-4.97425e-49
-6.78985e-47
-6.68021e-54
-4.9882e-51
-7.53371e-49
-7.11676e-56
-4.98653e-53
-7.16081e-51
-6.32414e-58
-4.48063e-55
-6.925e-53
-5.70139e-60
-3.43452e-57
-5.95053e-55
-4.64812e-62
-3.69359e-59
-4.26271e-57
-3.28333e-64
-4.39823e-61
-4.37443e-59
-3.26254e-66
-8.75196e-62
-4.59417e-61
-3.55205e-68
-3.59263e-62
-6.50536e-62
-4.58773e-69
-1.04053e-62
-2.79572e-62
-1.61449e-69
-2.10103e-63
-8.07835e-63
-3.85149e-70
-3.04142e-64
-1.6288e-63
-6.59309e-71
-3.27513e-65
-2.34349e-64
-8.20406e-72
-3.10683e-66
-2.47855e-65
-7.78293e-73
-3.68869e-67
-2.24977e-66
-6.60155e-74
-7.4085e-68
-2.39349e-67
-7.13434e-75
-2.26497e-68
-4.04243e-68
-1.33056e-75
-9.25751e-69
-9.12276e-69
-3.85137e-76
-5.68402e-69
-6.14779e-70
-1.53389e-76
-3.6905e-69
6.6254e-70
-8.35919e-77
-2.22829e-69
9.40639e-70
-4.51562e-77
-1.12268e-69
8.62435e-70
-2.11366e-77
-4.35762e-70
5.7253e-70
-7.77719e-78
-1.45351e-70
2.83271e-70
-1.9875e-78
-5.24412e-71
1.32442e-70
-1.61545e-79
-3.48732e-70
3.00776e-70
-1.77662e-78
-6.43181e-68
6.47799e-68
-6.14013e-76
-1.57803e-65
1.59082e-65
-1.14745e-73
-5.03873e-63
7.92903e-63
-2.40905e-71
-5.14951e-61
6.72132e-61
-1.29783e-70
-1.41779e-59
1.95136e-59
-9.49092e-68
-1.31721e-58
2.24536e-58
-6.29903e-67
-4.21735e-58
1.11917e-57
-1.44289e-66
-6.72225e-58
3.19344e-57
3.4619e-66
-2.58636e-57
9.60839e-57
4.86012e-65
-3.50922e-56
1.09006e-55
-1.84039e-65
-2.69157e-81
4.34173e-55
2.59477e-64
2.09738e-80
1.75369e-87
-1.7712e-14
-2.91508e-12
-7.99516e-19
-1.75785e-17
-2.53038e-14
-5.45788e-21
-1.64051e-22
-2.47833e-17
-4.90496e-24
-4.15265e-29
-1.65984e-22
-4.36524e-29
-1.65603e-39
-7.54386e-29
-9.99939e-36
-1.41197e-44
-2.96223e-39
-3.25686e-46
-7.61275e-47
-2.36005e-44
-2.52132e-51
-9.41324e-49
-1.20339e-46
-1.18376e-53
-9.89018e-51
-1.40563e-48
-1.31221e-55
-1.1018e-52
-1.37511e-50
-1.21577e-57
-1.10629e-54
-1.46673e-52
-1.22063e-59
-9.09644e-57
-1.40943e-54
-1.11204e-61
-1.14032e-58
-1.09016e-56
-8.4187e-64
-1.32471e-60
-1.30025e-58
-9.74684e-66
-2.51189e-61
-1.32141e-60
-1.03026e-67
-1.39624e-61
-1.64714e-61
-1.37747e-68
-6.70671e-62
-9.40114e-62
-6.72427e-69
-2.50019e-62
-4.57722e-62
-2.69458e-69
-7.42058e-63
-1.7189e-62
-8.43433e-70
-1.77029e-63
-5.14448e-63
-2.1198e-70
-3.70177e-64
-1.21351e-63
-4.36992e-71
-8.15804e-65
-2.39352e-64
-8.08379e-72
-2.41992e-65
-4.48157e-65
-1.64524e-72
-1.05622e-65
-9.62299e-66
-4.7015e-73
-6.22031e-66
-2.44078e-66
-1.99919e-73
-4.72808e-66
-1.5921e-67
-1.13874e-73
-4.16188e-66
6.16299e-67
-7.99943e-74