/*--------------------------------*- C++ -*----------------------------------*\
| =========                 |                                                 |
| \\      /  F ield         | OpenFOAM: The Open Source CFD Toolbox           |
|  \\    /   O peration     | Version:  v2012                                 |
|   \\  /    A nd           | Website:  www.openfoam.com                      |
|    \\/     M anipulation  |                                                 |
\*---------------------------------------------------------------------------*/
FoamFile
{
    version     2.0;
    format      ascii;
    class       volScalarField;
    location    "0.65";
    object      p_rgh;
}
// * * * * * * * * * * * * * * * * * * * * * * * * * * * * * * * * * * * * * //

dimensions      [1 -1 -2 0 0 0 0];


internalField   nonuniform List<scalar> 
20000
(
3.4989e+06
3.49938e+06
3.49899e+06
3.49885e+06
3.49905e+06
3.50021e+06
3.5026e+06
3.50016e+06
3.50051e+06
3.50032e+06
3.50005e+06
3.49796e+06
3.49698e+06
3.49798e+06
3.49874e+06
3.49939e+06
3.49988e+06
3.50029e+06
3.5006e+06
3.50083e+06
3.50099e+06
3.50109e+06
3.50115e+06
3.50116e+06
3.50115e+06
3.50111e+06
3.50106e+06
3.50099e+06
3.50091e+06
3.50082e+06
3.50073e+06
3.50063e+06
3.50053e+06
3.50042e+06
3.50031e+06
3.50019e+06
3.50006e+06
3.49992e+06
3.49976e+06
3.49957e+06
3.49907e+06
3.49903e+06
3.49979e+06
3.49985e+06
3.49987e+06
3.49988e+06
3.49988e+06
3.49989e+06
3.49989e+06
3.49989e+06
3.49989e+06
3.4999e+06
3.4999e+06
3.4999e+06
3.4999e+06
3.4999e+06
3.4999e+06
3.4999e+06
3.49989e+06
3.49989e+06
3.50597e+06
3.50465e+06
3.50652e+06
3.50344e+06
3.50713e+06
3.50195e+06
3.50336e+06
3.50342e+06
3.50533e+06
3.50404e+06
3.50404e+06
3.50044e+06
3.4978e+06
3.49853e+06
3.499e+06
3.4993e+06
3.49944e+06
3.49956e+06
3.49964e+06
3.49972e+06
3.4998e+06
3.49987e+06
3.49994e+06
3.5e+06
3.50005e+06
3.50009e+06
3.50012e+06
3.50014e+06
3.50015e+06
3.50014e+06
3.50012e+06
3.5001e+06
3.50006e+06
3.5e+06
3.49994e+06
3.49986e+06
3.49976e+06
3.49965e+06
3.4995e+06
3.49934e+06
3.49892e+06
3.49905e+06
3.49954e+06
3.49959e+06
3.49963e+06
3.49964e+06
3.49965e+06
3.49966e+06
3.49967e+06
3.49967e+06
3.49968e+06
3.49968e+06
3.49968e+06
3.49968e+06
3.49969e+06
3.49969e+06
3.49968e+06
3.49968e+06
3.49967e+06
3.49966e+06
3.50602e+06
3.50384e+06
3.50633e+06
3.5038e+06
3.5067e+06
3.50391e+06
3.50612e+06
3.50536e+06
3.50639e+06
3.50559e+06
3.50519e+06
3.50098e+06
3.49718e+06
3.4976e+06
3.4982e+06
3.49876e+06
3.49913e+06
3.49944e+06
3.49964e+06
3.4998e+06
3.49989e+06
3.49996e+06
3.49999e+06
3.50001e+06
3.50001e+06
3.49999e+06
3.49998e+06
3.49995e+06
3.49992e+06
3.49988e+06
3.49984e+06
3.49979e+06
3.49974e+06
3.49969e+06
3.49962e+06
3.49955e+06
3.49947e+06
3.49938e+06
3.49926e+06
3.49917e+06
3.49893e+06
3.49899e+06
3.49928e+06
3.49933e+06
3.49938e+06
3.4994e+06
3.49942e+06
3.49943e+06
3.49944e+06
3.49945e+06
3.49946e+06
3.49946e+06
3.49947e+06
3.49947e+06
3.49947e+06
3.49947e+06
3.49946e+06
3.49946e+06
3.49945e+06
3.49943e+06
3.50824e+06
3.50575e+06
3.50823e+06
3.5059e+06
3.50781e+06
3.50581e+06
3.50704e+06
3.50685e+06
3.50718e+06
3.50683e+06
3.50611e+06
3.50178e+06
3.49726e+06
3.49747e+06
3.49802e+06
3.4985e+06
3.49881e+06
3.49906e+06
3.49923e+06
3.49936e+06
3.49946e+06
3.49953e+06
3.49958e+06
3.49961e+06
3.49963e+06
3.49963e+06
3.49963e+06
3.49962e+06
3.4996e+06
3.49957e+06
3.49953e+06
3.4995e+06
3.49945e+06
3.4994e+06
3.49934e+06
3.49928e+06
3.4992e+06
3.49913e+06
3.49903e+06
3.49895e+06
3.4988e+06
3.49884e+06
3.49904e+06
3.49909e+06
3.49914e+06
3.49917e+06
3.49919e+06
3.49921e+06
3.49922e+06
3.49923e+06
3.49924e+06
3.49924e+06
3.49925e+06
3.49925e+06
3.49925e+06
3.49925e+06
3.49924e+06
3.49923e+06
3.49922e+06
3.4992e+06
3.50731e+06
3.50524e+06
3.50681e+06
3.50583e+06
3.50644e+06
3.50643e+06
3.50665e+06
3.50711e+06
3.50657e+06
3.50689e+06
3.50571e+06
3.50169e+06
3.49674e+06
3.4969e+06
3.49756e+06
3.49813e+06
3.49852e+06
3.49883e+06
3.49903e+06
3.49917e+06
3.49926e+06
3.49932e+06
3.49935e+06
3.49937e+06
3.49937e+06
3.49936e+06
3.49935e+06
3.49933e+06
3.4993e+06
3.49927e+06
3.49924e+06
3.4992e+06
3.49916e+06
3.49911e+06
3.49906e+06
3.499e+06
3.49894e+06
3.49887e+06
3.49879e+06
3.49873e+06
3.49863e+06
3.49866e+06
3.4988e+06
3.49885e+06
3.49891e+06
3.49894e+06
3.49896e+06
3.49898e+06
3.499e+06
3.49901e+06
3.49902e+06
3.49903e+06
3.49903e+06
3.49903e+06
3.49903e+06
3.49903e+06
3.49902e+06
3.49901e+06
3.49899e+06
3.49897e+06
3.50558e+06
3.50552e+06
3.50515e+06
3.50568e+06
3.50474e+06
3.50659e+06
3.50531e+06
3.50653e+06
3.50526e+06
3.50627e+06
3.50469e+06
3.50133e+06
3.49623e+06
3.49647e+06
3.49723e+06
3.49785e+06
3.49825e+06
3.49856e+06
3.49875e+06
3.49889e+06
3.49898e+06
3.49903e+06
3.49906e+06
3.49908e+06
3.49908e+06
3.49907e+06
3.49905e+06
3.49903e+06
3.499e+06
3.49897e+06
3.49894e+06
3.4989e+06
3.49886e+06
3.49882e+06
3.49878e+06
3.49873e+06
3.49867e+06
3.49862e+06
3.49855e+06
3.49851e+06
3.49844e+06
3.49847e+06
3.49857e+06
3.49862e+06
3.49867e+06
3.49871e+06
3.49874e+06
3.49876e+06
3.49878e+06
3.49879e+06
3.4988e+06
3.49881e+06
3.49882e+06
3.49882e+06
3.49882e+06
3.49881e+06
3.4988e+06
3.49878e+06
3.49877e+06
3.49874e+06
3.50249e+06
3.50517e+06
3.50216e+06
3.50481e+06
3.50226e+06
3.5062e+06
3.50354e+06
3.50541e+06
3.50374e+06
3.50536e+06
3.50348e+06
3.50089e+06
3.49572e+06
3.49601e+06
3.49689e+06
3.49758e+06
3.49802e+06
3.49834e+06
3.49854e+06
3.49867e+06
3.49875e+06
3.49879e+06
3.49881e+06
3.49881e+06
3.4988e+06
3.49878e+06
3.49876e+06
3.49873e+06
3.49871e+06
3.49868e+06
3.49864e+06
3.49861e+06
3.49858e+06
3.49854e+06
3.4985e+06
3.49846e+06
3.49841e+06
3.49837e+06
3.49832e+06
3.49828e+06
3.49825e+06
3.49827e+06
3.49835e+06
3.49839e+06
3.49844e+06
3.49848e+06
3.49851e+06
3.49854e+06
3.49856e+06
3.49857e+06
3.49858e+06
3.49859e+06
3.4986e+06
3.4986e+06
3.4986e+06
3.49859e+06
3.49858e+06
3.49856e+06
3.49854e+06
3.49851e+06
3.49978e+06
3.50621e+06
3.49982e+06
3.50482e+06
3.50055e+06
3.50591e+06
3.50232e+06
3.5046e+06
3.5029e+06
3.50491e+06
3.5029e+06
3.50095e+06
3.49567e+06
3.49579e+06
3.49673e+06
3.49741e+06
3.49784e+06
3.49815e+06
3.49833e+06
3.49844e+06
3.49851e+06
3.49854e+06
3.49855e+06
3.49854e+06
3.49852e+06
3.4985e+06
3.49847e+06
3.49844e+06
3.49841e+06
3.49838e+06
3.49835e+06
3.49832e+06
3.49829e+06
3.49825e+06
3.49822e+06
3.49819e+06
3.49815e+06
3.49812e+06
3.49808e+06
3.49806e+06
3.49804e+06
3.49806e+06
3.49812e+06
3.49817e+06
3.49821e+06
3.49825e+06
3.49829e+06
3.49831e+06
3.49834e+06
3.49835e+06
3.49837e+06
3.49838e+06
3.49838e+06
3.49839e+06
3.49838e+06
3.49837e+06
3.49836e+06
3.49834e+06
3.49832e+06
3.49828e+06
3.49852e+06
3.50791e+06
3.49878e+06
3.50577e+06
3.50041e+06
3.50603e+06
3.50222e+06
3.50487e+06
3.50327e+06
3.50541e+06
3.50341e+06
3.50179e+06
3.49621e+06
3.49583e+06
3.49674e+06
3.49733e+06
3.49773e+06
3.49799e+06
3.49815e+06
3.49824e+06
3.49829e+06
3.4983e+06
3.49829e+06
3.49827e+06
3.49825e+06
3.49821e+06
3.49818e+06
3.49815e+06
3.49812e+06
3.49809e+06
3.49806e+06
3.49803e+06
3.498e+06
3.49797e+06
3.49794e+06
3.49792e+06
3.49789e+06
3.49786e+06
3.49784e+06
3.49783e+06
3.49782e+06
3.49784e+06
3.4979e+06
3.49794e+06
3.49799e+06
3.49803e+06
3.49806e+06
3.49809e+06
3.49812e+06
3.49814e+06
3.49815e+06
3.49816e+06
3.49817e+06
3.49817e+06
3.49817e+06
3.49816e+06
3.49814e+06
3.49812e+06
3.49809e+06
3.49805e+06
3.49913e+06
3.51057e+06
3.49972e+06
3.50786e+06
3.50209e+06
3.50701e+06
3.50377e+06
3.50619e+06
3.50489e+06
3.50691e+06
3.50501e+06
3.50339e+06
3.49734e+06
3.49615e+06
3.49693e+06
3.49736e+06
3.49769e+06
3.49788e+06
3.498e+06
3.49805e+06
3.49807e+06
3.49806e+06
3.49804e+06
3.49801e+06
3.49797e+06
3.49793e+06
3.49789e+06
3.49786e+06
3.49782e+06
3.49779e+06
3.49776e+06
3.49773e+06
3.49771e+06
3.49769e+06
3.49767e+06
3.49765e+06
3.49763e+06
3.49761e+06
3.4976e+06
3.49759e+06
3.4976e+06
3.49762e+06
3.49767e+06
3.49771e+06
3.49776e+06
3.4978e+06
3.49784e+06
3.49787e+06
3.4979e+06
3.49792e+06
3.49793e+06
3.49795e+06
3.49795e+06
3.49796e+06
3.49795e+06
3.49794e+06
3.49792e+06
3.4979e+06
3.49787e+06
3.49782e+06
3.50137e+06
3.51326e+06
3.50202e+06
3.51066e+06
3.50477e+06
3.50875e+06
3.50617e+06
3.5083e+06
3.50724e+06
3.50896e+06
3.5072e+06
3.50542e+06
3.49879e+06
3.49662e+06
3.49723e+06
3.49744e+06
3.49769e+06
3.4978e+06
3.49786e+06
3.49788e+06
3.49786e+06
3.49783e+06
3.49779e+06
3.49774e+06
3.49769e+06
3.49765e+06
3.4976e+06
3.49756e+06
3.49753e+06
3.49749e+06
3.49747e+06
3.49744e+06
3.49742e+06
3.4974e+06
3.49739e+06
3.49737e+06
3.49736e+06
3.49736e+06
3.49735e+06
3.49736e+06
3.49737e+06
3.4974e+06
3.49744e+06
3.49749e+06
3.49753e+06
3.49758e+06
3.49761e+06
3.49765e+06
3.49768e+06
3.4977e+06
3.49772e+06
3.49773e+06
3.49774e+06
3.49774e+06
3.49774e+06
3.49772e+06
3.4977e+06
3.49768e+06
3.49764e+06
3.49759e+06
3.50416e+06
3.51564e+06
3.50483e+06
3.5135e+06
3.5075e+06
3.5107e+06
3.50884e+06
3.5105e+06
3.5096e+06
3.51092e+06
3.50935e+06
3.50738e+06
3.50025e+06
3.49711e+06
3.49756e+06
3.49755e+06
3.49772e+06
3.49773e+06
3.49774e+06
3.49771e+06
3.49766e+06
3.4976e+06
3.49754e+06
3.49747e+06
3.49741e+06
3.49736e+06
3.49731e+06
3.49726e+06
3.49723e+06
3.4972e+06
3.49717e+06
3.49715e+06
3.49713e+06
3.49712e+06
3.49711e+06
3.4971e+06
3.4971e+06
3.4971e+06
3.49711e+06
3.49712e+06
3.49714e+06
3.49717e+06
3.49721e+06
3.49726e+06
3.49731e+06
3.49735e+06
3.49739e+06
3.49743e+06
3.49746e+06
3.49748e+06
3.4975e+06
3.49752e+06
3.49753e+06
3.49753e+06
3.49752e+06
3.49751e+06
3.49749e+06
3.49746e+06
3.49742e+06
3.49736e+06
3.50737e+06
3.5172e+06
3.50751e+06
3.51572e+06
3.50975e+06
3.5126e+06
3.51094e+06
3.51221e+06
3.51132e+06
3.51233e+06
3.51096e+06
3.50893e+06
3.50154e+06
3.49752e+06
3.49786e+06
3.49767e+06
3.49776e+06
3.49767e+06
3.49763e+06
3.49754e+06
3.49746e+06
3.49737e+06
3.49729e+06
3.4972e+06
3.49713e+06
3.49707e+06
3.49701e+06
3.49696e+06
3.49693e+06
3.49689e+06
3.49687e+06
3.49685e+06
3.49684e+06
3.49683e+06
3.49683e+06
3.49683e+06
3.49684e+06
3.49684e+06
3.49686e+06
3.49688e+06
3.4969e+06
3.49694e+06
3.49699e+06
3.49703e+06
3.49708e+06
3.49713e+06
3.49717e+06
3.49721e+06
3.49724e+06
3.49727e+06
3.49729e+06
3.49731e+06
3.49731e+06
3.49731e+06
3.49731e+06
3.49729e+06
3.49727e+06
3.49724e+06
3.4972e+06
3.49714e+06
3.50988e+06
3.51801e+06
3.50995e+06
3.51693e+06
3.51147e+06
3.51396e+06
3.51233e+06
3.51322e+06
3.51223e+06
3.51305e+06
3.51194e+06
3.50999e+06
3.50268e+06
3.49787e+06
3.49815e+06
3.49779e+06
3.49781e+06
3.49763e+06
3.49752e+06
3.49738e+06
3.49726e+06
3.49714e+06
3.49703e+06
3.49693e+06
3.49684e+06
3.49677e+06
3.49671e+06
3.49666e+06
3.49662e+06
3.49659e+06
3.49657e+06
3.49655e+06
3.49655e+06
3.49655e+06
3.49655e+06
3.49656e+06
3.49657e+06
3.49659e+06
3.49661e+06
3.49663e+06
3.49667e+06
3.49671e+06
3.49676e+06
3.49681e+06
3.49686e+06
3.4969e+06
3.49695e+06
3.49699e+06
3.49703e+06
3.49705e+06
3.49708e+06
3.49709e+06
3.4971e+06
3.4971e+06
3.4971e+06
3.49708e+06
3.49705e+06
3.49702e+06
3.49698e+06
3.49691e+06
3.51241e+06
3.51783e+06
3.51223e+06
3.51721e+06
3.51294e+06
3.51476e+06
3.51323e+06
3.51362e+06
3.51271e+06
3.51345e+06
3.51267e+06
3.51085e+06
3.50394e+06
3.49828e+06
3.49846e+06
3.49794e+06
3.49787e+06
3.49759e+06
3.49742e+06
3.49722e+06
3.49705e+06
3.4969e+06
3.49676e+06
3.49665e+06
3.49655e+06
3.49647e+06
3.4964e+06
3.49635e+06
3.49631e+06
3.49628e+06
3.49626e+06
3.49625e+06
3.49625e+06
3.49626e+06
3.49627e+06
3.49628e+06
3.4963e+06
3.49633e+06
3.49635e+06
3.49639e+06
3.49643e+06
3.49647e+06
3.49653e+06
3.49658e+06
3.49663e+06
3.49668e+06
3.49673e+06
3.49677e+06
3.49681e+06
3.49684e+06
3.49686e+06
3.49688e+06
3.49689e+06
3.49689e+06
3.49688e+06
3.49687e+06
3.49684e+06
3.4968e+06
3.49676e+06
3.49669e+06
3.51495e+06
3.51747e+06
3.51471e+06
3.5171e+06
3.51456e+06
3.51527e+06
3.51411e+06
3.51401e+06
3.51334e+06
3.51415e+06
3.51372e+06
3.51204e+06
3.5056e+06
3.49895e+06
3.49889e+06
3.49816e+06
3.49797e+06
3.49757e+06
3.49732e+06
3.49705e+06
3.49684e+06
3.49665e+06
3.49649e+06
3.49635e+06
3.49624e+06
3.49616e+06
3.49609e+06
3.49603e+06
3.49599e+06
3.49597e+06
3.49595e+06
3.49595e+06
3.49595e+06
3.49596e+06
3.49598e+06
3.496e+06
3.49603e+06
3.49607e+06
3.4961e+06
3.49614e+06
3.49619e+06
3.49624e+06
3.49629e+06
3.49635e+06
3.49641e+06
3.49646e+06
3.49651e+06
3.49656e+06
3.49659e+06
3.49663e+06
3.49665e+06
3.49667e+06
3.49668e+06
3.49668e+06
3.49667e+06
3.49665e+06
3.49663e+06
3.49658e+06
3.49654e+06
3.49646e+06
3.51796e+06
3.5173e+06
3.51733e+06
3.5172e+06
3.51656e+06
3.5159e+06
3.51549e+06
3.51497e+06
3.51486e+06
3.51552e+06
3.51547e+06
3.51388e+06
3.50781e+06
3.49998e+06
3.49947e+06
3.49846e+06
3.4981e+06
3.49756e+06
3.49722e+06
3.49687e+06
3.49661e+06
3.49638e+06
3.4962e+06
3.49605e+06
3.49593e+06
3.49583e+06
3.49576e+06
3.49571e+06
3.49567e+06
3.49565e+06
3.49564e+06
3.49564e+06
3.49565e+06
3.49567e+06
3.4957e+06
3.49573e+06
3.49576e+06
3.4958e+06
3.49585e+06
3.4959e+06
3.49595e+06
3.496e+06
3.49606e+06
3.49612e+06
3.49618e+06
3.49624e+06
3.49629e+06
3.49634e+06
3.49638e+06
3.49642e+06
3.49644e+06
3.49646e+06
3.49647e+06
3.49647e+06
3.49646e+06
3.49644e+06
3.49641e+06
3.49637e+06
3.49632e+06
3.49624e+06
3.5207e+06
3.51785e+06
3.51989e+06
3.51795e+06
3.51878e+06
3.51699e+06
3.51751e+06
3.51671e+06
3.51726e+06
3.51763e+06
3.51795e+06
3.51637e+06
3.51045e+06
3.50136e+06
3.50015e+06
3.49883e+06
3.49825e+06
3.49754e+06
3.4971e+06
3.49668e+06
3.49637e+06
3.4961e+06
3.4959e+06
3.49573e+06
3.4956e+06
3.4955e+06
3.49542e+06
3.49537e+06
3.49534e+06
3.49532e+06
3.49532e+06
3.49533e+06
3.49535e+06
3.49537e+06
3.49541e+06
3.49545e+06
3.49549e+06
3.49554e+06
3.49559e+06
3.49565e+06
3.49571e+06
3.49577e+06
3.49583e+06
3.4959e+06
3.49596e+06
3.49602e+06
3.49607e+06
3.49612e+06
3.49617e+06
3.4962e+06
3.49623e+06
3.49625e+06
3.49626e+06
3.49626e+06
3.49625e+06
3.49623e+06
3.4962e+06
3.49615e+06
3.4961e+06
3.49601e+06
3.52307e+06
3.51896e+06
3.52201e+06
3.51932e+06
3.52088e+06
3.51863e+06
3.51987e+06
3.51895e+06
3.52007e+06
3.52006e+06
3.52076e+06
3.51906e+06
3.51325e+06
3.50292e+06
3.50084e+06
3.49921e+06
3.49836e+06
3.4975e+06
3.49694e+06
3.49645e+06
3.49609e+06
3.4958e+06
3.49557e+06
3.49539e+06
3.49525e+06
3.49515e+06
3.49508e+06
3.49503e+06
3.495e+06
3.49499e+06
3.49499e+06
3.49501e+06
3.49504e+06
3.49507e+06
3.49511e+06
3.49516e+06
3.49522e+06
3.49527e+06
3.49533e+06
3.4954e+06
3.49546e+06
3.49553e+06
3.4956e+06
3.49567e+06
3.49574e+06
3.4958e+06
3.49586e+06
3.49591e+06
3.49596e+06
3.49599e+06
3.49602e+06
3.49604e+06
3.49606e+06
3.49606e+06
3.49605e+06
3.49602e+06
3.49599e+06
3.49594e+06
3.49588e+06
3.49579e+06
3.52437e+06
3.52022e+06
3.52333e+06
3.52088e+06
3.52254e+06
3.52038e+06
3.52204e+06
3.52111e+06
3.52265e+06
3.52227e+06
3.52336e+06
3.52145e+06
3.51583e+06
3.50442e+06
3.50141e+06
3.49951e+06
3.4984e+06
3.4974e+06
3.49674e+06
3.49618e+06
3.49578e+06
3.49546e+06
3.49521e+06
3.49502e+06
3.49488e+06
3.49478e+06
3.49471e+06
3.49467e+06
3.49465e+06
3.49465e+06
3.49466e+06
3.49469e+06
3.49472e+06
3.49477e+06
3.49482e+06
3.49488e+06
3.49494e+06
3.49501e+06
3.49507e+06
3.49515e+06
3.49522e+06
3.49529e+06
3.49537e+06
3.49544e+06
3.49551e+06
3.49558e+06
3.49564e+06
3.4957e+06
3.49574e+06
3.49578e+06
3.49582e+06
3.49584e+06
3.49585e+06
3.49585e+06
3.49584e+06
3.49581e+06
3.49578e+06
3.49573e+06
3.49567e+06
3.49557e+06
3.52625e+06
3.52071e+06
3.52361e+06
3.52174e+06
3.52364e+06
3.52167e+06
3.52356e+06
3.52265e+06
3.52448e+06
3.52385e+06
3.52524e+06
3.52316e+06
3.5179e+06
3.50563e+06
3.50175e+06
3.49964e+06
3.4983e+06
3.4972e+06
3.49645e+06
3.49585e+06
3.49542e+06
3.49507e+06
3.49482e+06
3.49463e+06
3.4945e+06
3.4944e+06
3.49434e+06
3.4943e+06
3.49429e+06
3.4943e+06
3.49432e+06
3.49436e+06
3.4944e+06
3.49446e+06
3.49452e+06
3.49459e+06
3.49466e+06
3.49474e+06
3.49482e+06
3.49489e+06
3.49498e+06
3.49506e+06
3.49514e+06
3.49521e+06
3.49529e+06
3.49536e+06
3.49543e+06
3.49548e+06
3.49553e+06
3.49558e+06
3.49561e+06
3.49563e+06
3.49564e+06
3.49564e+06
3.49563e+06
3.49561e+06
3.49557e+06
3.49551e+06
3.49545e+06
3.49535e+06
3.52623e+06
3.51985e+06
3.52333e+06
3.52118e+06
3.52419e+06
3.522e+06
3.52422e+06
3.52328e+06
3.52538e+06
3.52452e+06
3.52616e+06
3.52403e+06
3.5192e+06
3.5064e+06
3.50177e+06
3.49955e+06
3.49804e+06
3.49687e+06
3.49607e+06
3.49544e+06
3.49499e+06
3.49465e+06
3.4944e+06
3.49421e+06
3.49408e+06
3.49399e+06
3.49394e+06
3.49392e+06
3.49392e+06
3.49394e+06
3.49397e+06
3.49402e+06
3.49408e+06
3.49415e+06
3.49422e+06
3.4943e+06
3.49438e+06
3.49447e+06
3.49455e+06
3.49464e+06
3.49473e+06
3.49482e+06
3.4949e+06
3.49499e+06
3.49507e+06
3.49514e+06
3.49521e+06
3.49527e+06
3.49533e+06
3.49537e+06
3.4954e+06
3.49543e+06
3.49544e+06
3.49544e+06
3.49543e+06
3.4954e+06
3.49536e+06
3.4953e+06
3.49524e+06
3.49513e+06
3.52649e+06
3.51647e+06
3.52279e+06
3.51903e+06
3.52418e+06
3.52125e+06
3.524e+06
3.52295e+06
3.5252e+06
3.52433e+06
3.52608e+06
3.52403e+06
3.51964e+06
3.50665e+06
3.50141e+06
3.49918e+06
3.49757e+06
3.49639e+06
3.49557e+06
3.49495e+06
3.4945e+06
3.49416e+06
3.49393e+06
3.49375e+06
3.49364e+06
3.49357e+06
3.49353e+06
3.49352e+06
3.49353e+06
3.49357e+06
3.49362e+06
3.49368e+06
3.49375e+06
3.49383e+06
3.49392e+06
3.49401e+06
3.4941e+06
3.4942e+06
3.49429e+06
3.49439e+06
3.49449e+06
3.49458e+06
3.49467e+06
3.49476e+06
3.49485e+06
3.49493e+06
3.495e+06
3.49506e+06
3.49512e+06
3.49516e+06
3.4952e+06
3.49523e+06
3.49524e+06
3.49524e+06
3.49523e+06
3.4952e+06
3.49516e+06
3.49509e+06
3.49503e+06
3.49492e+06
3.52629e+06
3.51257e+06
3.52256e+06
3.5161e+06
3.52357e+06
3.51964e+06
3.52297e+06
3.52175e+06
3.52412e+06
3.52325e+06
3.52506e+06
3.52315e+06
3.51917e+06
3.50629e+06
3.50062e+06
3.49849e+06
3.49686e+06
3.49574e+06
3.49494e+06
3.49435e+06
3.49393e+06
3.49362e+06
3.49341e+06
3.49326e+06
3.49317e+06
3.49311e+06
3.4931e+06
3.49311e+06
3.49314e+06
3.49319e+06
3.49325e+06
3.49333e+06
3.49342e+06
3.49351e+06
3.49361e+06
3.49371e+06
3.49382e+06
3.49392e+06
3.49403e+06
3.49414e+06
3.49424e+06
3.49434e+06
3.49444e+06
3.49454e+06
3.49463e+06
3.49471e+06
3.49479e+06
3.49485e+06
3.49491e+06
3.49496e+06
3.495e+06
3.49502e+06
3.49504e+06
3.49504e+06
3.49502e+06
3.49499e+06
3.49495e+06
3.49489e+06
3.49481e+06
3.4947e+06
3.52646e+06
3.5081e+06
3.52215e+06
3.51294e+06
3.52229e+06
3.51738e+06
3.52119e+06
3.51978e+06
3.52224e+06
3.52139e+06
3.52316e+06
3.52143e+06
3.5178e+06
3.50526e+06
3.49939e+06
3.49746e+06
3.49592e+06
3.49491e+06
3.49418e+06
3.49365e+06
3.49328e+06
3.49302e+06
3.49284e+06
3.49273e+06
3.49266e+06
3.49264e+06
3.49264e+06
3.49267e+06
3.49273e+06
3.4928e+06
3.49288e+06
3.49298e+06
3.49308e+06
3.49319e+06
3.4933e+06
3.49342e+06
3.49353e+06
3.49365e+06
3.49377e+06
3.49388e+06
3.494e+06
3.49411e+06
3.49421e+06
3.49431e+06
3.49441e+06
3.4945e+06
3.49457e+06
3.49465e+06
3.49471e+06
3.49476e+06
3.4948e+06
3.49482e+06
3.49484e+06
3.49484e+06
3.49482e+06
3.49479e+06
3.49475e+06
3.49468e+06
3.49461e+06
3.49449e+06
3.52588e+06
3.50432e+06
3.52182e+06
3.5099e+06
3.52025e+06
3.5146e+06
3.51868e+06
3.51714e+06
3.51959e+06
3.51878e+06
3.52041e+06
3.51889e+06
3.51553e+06
3.50349e+06
3.49772e+06
3.49608e+06
3.49471e+06
3.49388e+06
3.49327e+06
3.49284e+06
3.49255e+06
3.49235e+06
3.49222e+06
3.49215e+06
3.49212e+06
3.49213e+06
3.49217e+06
3.49223e+06
3.4923e+06
3.4924e+06
3.4925e+06
3.49261e+06
3.49273e+06
3.49286e+06
3.49299e+06
3.49312e+06
3.49325e+06
3.49338e+06
3.49351e+06
3.49363e+06
3.49375e+06
3.49387e+06
3.49398e+06
3.49409e+06
3.49419e+06
3.49428e+06
3.49437e+06
3.49444e+06
3.4945e+06
3.49456e+06
3.4946e+06
3.49462e+06
3.49464e+06
3.49464e+06
3.49462e+06
3.49459e+06
3.49455e+06
3.49448e+06
3.4944e+06
3.49427e+06
3.52472e+06
3.50095e+06
3.52105e+06
3.50707e+06
3.51737e+06
3.51138e+06
3.51545e+06
3.51386e+06
3.51618e+06
3.51538e+06
3.5168e+06
3.51552e+06
3.51235e+06
3.50095e+06
3.49559e+06
3.49433e+06
3.49327e+06
3.49266e+06
3.49222e+06
3.49192e+06
3.49173e+06
3.49161e+06
3.49155e+06
3.49154e+06
3.49156e+06
3.4916e+06
3.49167e+06
3.49176e+06
3.49187e+06
3.49199e+06
3.49211e+06
3.49225e+06
3.49239e+06
3.49253e+06
3.49267e+06
3.49282e+06
3.49296e+06
3.4931e+06
3.49324e+06
3.49338e+06
3.49351e+06
3.49363e+06
3.49375e+06
3.49387e+06
3.49397e+06
3.49407e+06
3.49416e+06
3.49423e+06
3.4943e+06
3.49436e+06
3.4944e+06
3.49443e+06
3.49444e+06
3.49444e+06
3.49443e+06
3.49439e+06
3.49435e+06
3.49427e+06
3.49419e+06
3.49406e+06
3.52201e+06
3.49849e+06
3.51922e+06
3.50439e+06
3.51362e+06
3.50774e+06
3.51158e+06
3.50993e+06
3.51198e+06
3.5112e+06
3.51234e+06
3.51134e+06
3.5083e+06
3.49765e+06
3.49301e+06
3.49225e+06
3.49159e+06
3.49127e+06
3.49103e+06
3.4909e+06
3.49084e+06
3.49082e+06
3.49083e+06
3.49088e+06
3.49095e+06
3.49105e+06
3.49116e+06
3.49128e+06
3.49142e+06
3.49156e+06
3.49172e+06
3.49187e+06
3.49203e+06
3.49219e+06
3.49236e+06
3.49252e+06
3.49267e+06
3.49283e+06
3.49298e+06
3.49313e+06
3.49327e+06
3.4934e+06
3.49353e+06
3.49365e+06
3.49376e+06
3.49386e+06
3.49395e+06
3.49403e+06
3.4941e+06
3.49416e+06
3.4942e+06
3.49423e+06
3.49425e+06
3.49425e+06
3.49423e+06
3.4942e+06
3.49415e+06
3.49407e+06
3.49399e+06
3.49385e+06
3.51743e+06
3.49667e+06
3.5156e+06
3.5016e+06
3.50905e+06
3.50373e+06
3.50701e+06
3.50552e+06
3.50706e+06
3.50631e+06
3.50715e+06
3.50644e+06
3.50347e+06
3.49369e+06
3.49005e+06
3.48988e+06
3.48971e+06
3.48972e+06
3.48973e+06
3.48979e+06
3.48987e+06
3.48996e+06
3.49007e+06
3.49019e+06
3.49032e+06
3.49047e+06
3.49062e+06
3.49079e+06
3.49096e+06
3.49113e+06
3.49131e+06
3.49149e+06
3.49168e+06
3.49186e+06
3.49204e+06
3.49221e+06
3.49239e+06
3.49255e+06
3.49272e+06
3.49287e+06
3.49302e+06
3.49317e+06
3.4933e+06
3.49343e+06
3.49354e+06
3.49365e+06
3.49374e+06
3.49383e+06
3.4939e+06
3.49396e+06
3.49401e+06
3.49404e+06
3.49405e+06
3.49405e+06
3.49404e+06
3.494e+06
3.49395e+06
3.49387e+06
3.49378e+06
3.49365e+06
3.51063e+06
3.49537e+06
3.5101e+06
3.49854e+06
3.5041e+06
3.49961e+06
3.50206e+06
3.50072e+06
3.50161e+06
3.50089e+06
3.50146e+06
3.50099e+06
3.49808e+06
3.48931e+06
3.48689e+06
3.48733e+06
3.48769e+06
3.48805e+06
3.48834e+06
3.4886e+06
3.48883e+06
3.48905e+06
3.48925e+06
3.48946e+06
3.48966e+06
3.48986e+06
3.49007e+06
3.49027e+06
3.49048e+06
3.49069e+06
3.4909e+06
3.49111e+06
3.49131e+06
3.49152e+06
3.49172e+06
3.49191e+06
3.4921e+06
3.49228e+06
3.49246e+06
3.49262e+06
3.49278e+06
3.49293e+06
3.49308e+06
3.49321e+06
3.49333e+06
3.49344e+06
3.49354e+06
3.49363e+06
3.4937e+06
3.49377e+06
3.49381e+06
3.49385e+06
3.49386e+06
3.49386e+06
3.49385e+06
3.49381e+06
3.49375e+06
3.49367e+06
3.49358e+06
3.49344e+06
3.50276e+06
3.49457e+06
3.5035e+06
3.49567e+06
3.49901e+06
3.49571e+06
3.49701e+06
3.49577e+06
3.49594e+06
3.49526e+06
3.49562e+06
3.49529e+06
3.49246e+06
3.48481e+06
3.48368e+06
3.48468e+06
3.48559e+06
3.4863e+06
3.48687e+06
3.48734e+06
3.48774e+06
3.48809e+06
3.4884e+06
3.48869e+06
3.48897e+06
3.48924e+06
3.48949e+06
3.48975e+06
3.49e+06
3.49024e+06
3.49048e+06
3.49072e+06
3.49095e+06
3.49118e+06
3.49139e+06
3.49161e+06
3.49181e+06
3.49201e+06
3.49219e+06
3.49237e+06
3.49254e+06
3.4927e+06
3.49285e+06
3.49299e+06
3.49312e+06
3.49323e+06
3.49334e+06
3.49343e+06
3.49351e+06
3.49357e+06
3.49362e+06
3.49365e+06
3.49367e+06
3.49367e+06
3.49365e+06
3.49362e+06
3.49356e+06
3.49348e+06
3.49338e+06
3.49324e+06
3.49512e+06
3.49396e+06
3.49708e+06
3.49311e+06
3.49432e+06
3.49225e+06
3.49231e+06
3.4909e+06
3.49041e+06
3.48977e+06
3.48995e+06
3.4897e+06
3.487e+06
3.48039e+06
3.48049e+06
3.48201e+06
3.48346e+06
3.48449e+06
3.48535e+06
3.48603e+06
3.48661e+06
3.48709e+06
3.48752e+06
3.4879e+06
3.48826e+06
3.48859e+06
3.48891e+06
3.48921e+06
3.4895e+06
3.48979e+06
3.49006e+06
3.49033e+06
3.49058e+06
3.49083e+06
3.49107e+06
3.4913e+06
3.49152e+06
3.49173e+06
3.49193e+06
3.49212e+06
3.4923e+06
3.49247e+06
3.49263e+06
3.49278e+06
3.49291e+06
3.49303e+06
3.49314e+06
3.49323e+06
3.49331e+06
3.49338e+06
3.49343e+06
3.49347e+06
3.49348e+06
3.49348e+06
3.49347e+06
3.49343e+06
3.49337e+06
3.49328e+06
3.49319e+06
3.49304e+06
3.48931e+06
3.49298e+06
3.49213e+06
3.4908e+06
3.49067e+06
3.48932e+06
3.48833e+06
3.48634e+06
3.48535e+06
3.48469e+06
3.48469e+06
3.48451e+06
3.48196e+06
3.47623e+06
3.47742e+06
3.47939e+06
3.48132e+06
3.48267e+06
3.4838e+06
3.48469e+06
3.48544e+06
3.48606e+06
3.4866e+06
3.48709e+06
3.48752e+06
3.48793e+06
3.48831e+06
3.48866e+06
3.489e+06
3.48932e+06
3.48963e+06
3.48993e+06
3.49022e+06
3.49049e+06
3.49075e+06
3.491e+06
3.49124e+06
3.49146e+06
3.49168e+06
3.49188e+06
3.49207e+06
3.49224e+06
3.49241e+06
3.49256e+06
3.4927e+06
3.49283e+06
3.49294e+06
3.49304e+06
3.49312e+06
3.49319e+06
3.49324e+06
3.49328e+06
3.4933e+06
3.4933e+06
3.49328e+06
3.49324e+06
3.49318e+06
3.49309e+06
3.49299e+06
3.49284e+06
3.48604e+06
3.49164e+06
3.48926e+06
3.48883e+06
3.48847e+06
3.48701e+06
3.48526e+06
3.48234e+06
3.48093e+06
3.48022e+06
3.48001e+06
3.47986e+06
3.4774e+06
3.47239e+06
3.47448e+06
3.47685e+06
3.47921e+06
3.48084e+06
3.48224e+06
3.48332e+06
3.48424e+06
3.485e+06
3.48567e+06
3.48625e+06
3.48677e+06
3.48725e+06
3.48769e+06
3.4881e+06
3.48849e+06
3.48886e+06
3.4892e+06
3.48953e+06
3.48985e+06
3.49014e+06
3.49043e+06
3.4907e+06
3.49095e+06
3.49119e+06
3.49142e+06
3.49163e+06
3.49183e+06
3.49202e+06
3.49219e+06
3.49235e+06
3.4925e+06
3.49263e+06
3.49274e+06
3.49285e+06
3.49293e+06
3.493e+06
3.49306e+06
3.49309e+06
3.49311e+06
3.49311e+06
3.49309e+06
3.49305e+06
3.49299e+06
3.4929e+06
3.4928e+06
3.49264e+06
3.48527e+06
3.49041e+06
3.48845e+06
3.48752e+06
3.48776e+06
3.48549e+06
3.48313e+06
3.47904e+06
3.47722e+06
3.4764e+06
3.47592e+06
3.47581e+06
3.47331e+06
3.46887e+06
3.47168e+06
3.47441e+06
3.47713e+06
3.47903e+06
3.48066e+06
3.48194e+06
3.48302e+06
3.48393e+06
3.48471e+06
3.4854e+06
3.48601e+06
3.48656e+06
3.48707e+06
3.48754e+06
3.48798e+06
3.48839e+06
3.48877e+06
3.48913e+06
3.48948e+06
3.4898e+06
3.49011e+06
3.4904e+06
3.49067e+06
3.49092e+06
3.49116e+06
3.49139e+06
3.4916e+06
3.49179e+06
3.49198e+06
3.49214e+06
3.49229e+06
3.49243e+06
3.49255e+06
3.49266e+06
3.49274e+06
3.49282e+06
3.49287e+06
3.49291e+06
3.49293e+06
3.49293e+06
3.49291e+06
3.49287e+06
3.49281e+06
3.49271e+06
3.49261e+06
3.49244e+06
3.48636e+06
3.49013e+06
3.48906e+06
3.48729e+06
3.48829e+06
3.48501e+06
3.48176e+06
3.4765e+06
3.47415e+06
3.47319e+06
3.47234e+06
3.47231e+06
3.46967e+06
3.46564e+06
3.46899e+06
3.47205e+06
3.47508e+06
3.47723e+06
3.47908e+06
3.48055e+06
3.48179e+06
3.48284e+06
3.48374e+06
3.48453e+06
3.48523e+06
3.48587e+06
3.48644e+06
3.48697e+06
3.48746e+06
3.48792e+06
3.48834e+06
3.48874e+06
3.48911e+06
3.48946e+06
3.48979e+06
3.4901e+06
3.49039e+06
3.49066e+06
3.49091e+06
3.49115e+06
3.49137e+06
3.49157e+06
3.49176e+06
3.49194e+06
3.49209e+06
3.49223e+06
3.49236e+06
3.49247e+06
3.49256e+06
3.49263e+06
3.49269e+06
3.49273e+06
3.49275e+06
3.49275e+06
3.49273e+06
3.49269e+06
3.49262e+06
3.49253e+06
3.49242e+06
3.49225e+06
3.48791e+06
3.49205e+06
3.4899e+06
3.4886e+06
3.48946e+06
3.4857e+06
3.48094e+06
3.4747e+06
3.47159e+06
3.47047e+06
3.46919e+06
3.46928e+06
3.4664e+06
3.46265e+06
3.4664e+06
3.46978e+06
3.47308e+06
3.47545e+06
3.47751e+06
3.47916e+06
3.48056e+06
3.48174e+06
3.48277e+06
3.48366e+06
3.48446e+06
3.48517e+06
3.48581e+06
3.4864e+06
3.48694e+06
3.48744e+06
3.48791e+06
3.48834e+06
3.48874e+06
3.48912e+06
3.48947e+06
3.4898e+06
3.49011e+06
3.49039e+06
3.49066e+06
3.49091e+06
3.49114e+06
3.49136e+06
3.49155e+06
3.49173e+06
3.49189e+06
3.49204e+06
3.49217e+06
3.49228e+06
3.49238e+06
3.49245e+06
3.49251e+06
3.49255e+06
3.49257e+06
3.49257e+06
3.49255e+06
3.49251e+06
3.49244e+06
3.49234e+06
3.49223e+06
3.49206e+06
3.48761e+06
3.49636e+06
3.48924e+06
3.49156e+06
3.49045e+06
3.48727e+06
3.48034e+06
3.47345e+06
3.46941e+06
3.46813e+06
3.46649e+06
3.46665e+06
3.46348e+06
3.45991e+06
3.4639e+06
3.46758e+06
3.47111e+06
3.4737e+06
3.47596e+06
3.47777e+06
3.47933e+06
3.48065e+06
3.48179e+06
3.48279e+06
3.48368e+06
3.48447e+06
3.48518e+06
3.48583e+06
3.48643e+06
3.48698e+06
3.48748e+06
3.48795e+06
3.48838e+06
3.48878e+06
3.48916e+06
3.48951e+06
3.48983e+06
3.49014e+06
3.49042e+06
3.49068e+06
3.49092e+06
3.49114e+06
3.49134e+06
3.49153e+06
3.4917e+06
3.49185e+06
3.49198e+06
3.4921e+06
3.4922e+06
3.49227e+06
3.49234e+06
3.49238e+06
3.4924e+06
3.4924e+06
3.49238e+06
3.49233e+06
3.49226e+06
3.49216e+06
3.49205e+06
3.49187e+06
3.485e+06
3.50138e+06
3.48666e+06
3.49449e+06
3.4902e+06
3.48845e+06
3.47938e+06
3.47238e+06
3.4675e+06
3.46616e+06
3.46427e+06
3.46438e+06
3.46096e+06
3.45739e+06
3.46152e+06
3.46548e+06
3.4692e+06
3.47199e+06
3.47442e+06
3.4764e+06
3.47811e+06
3.47956e+06
3.48082e+06
3.48192e+06
3.4829e+06
3.48377e+06
3.48456e+06
3.48527e+06
3.48592e+06
3.48651e+06
3.48706e+06
3.48756e+06
3.48802e+06
3.48845e+06
3.48885e+06
3.48922e+06
3.48956e+06
3.48988e+06
3.49017e+06
3.49045e+06
3.4907e+06
3.49093e+06
3.49114e+06
3.49133e+06
3.4915e+06
3.49166e+06
3.4918e+06
3.49192e+06
3.49202e+06
3.4921e+06
3.49216e+06
3.4922e+06
3.49222e+06
3.49222e+06
3.4922e+06
3.49215e+06
3.49209e+06
3.49198e+06
3.49187e+06
3.49168e+06
3.47975e+06
3.50327e+06
3.48203e+06
3.49459e+06
3.48712e+06
3.4871e+06
3.47698e+06
3.47091e+06
3.46571e+06
3.46452e+06
3.46265e+06
3.4625e+06
3.45885e+06
3.45511e+06
3.4593e+06
3.46347e+06
3.46735e+06
3.47032e+06
3.47292e+06
3.47505e+06
3.4769e+06
3.47848e+06
3.47986e+06
3.48106e+06
3.48213e+06
3.48309e+06
3.48394e+06
3.48471e+06
3.48542e+06
3.48606e+06
3.48664e+06
3.48718e+06
3.48767e+06
3.48813e+06
3.48855e+06
3.48894e+06
3.4893e+06
3.48963e+06
3.48994e+06
3.49022e+06
3.49048e+06
3.49072e+06
3.49094e+06
3.49114e+06
3.49131e+06
3.49147e+06
3.49162e+06
3.49174e+06
3.49184e+06
3.49192e+06
3.49199e+06
3.49203e+06
3.49205e+06
3.49205e+06
3.49203e+06
3.49198e+06
3.49191e+06
3.49181e+06
3.49169e+06
3.4915e+06
3.4717e+06
3.4981e+06
3.4736e+06
3.48884e+06
3.47889e+06
3.48047e+06
3.47143e+06
3.46818e+06
3.46393e+06
3.46327e+06
3.46171e+06
3.46111e+06
3.4572e+06
3.45311e+06
3.45727e+06
3.46158e+06
3.46558e+06
3.4687e+06
3.47145e+06
3.47373e+06
3.47572e+06
3.47742e+06
3.47891e+06
3.48022e+06
3.48138e+06
3.48241e+06
3.48333e+06
3.48417e+06
3.48492e+06
3.48561e+06
3.48623e+06
3.4868e+06
3.48733e+06
3.48781e+06
3.48825e+06
3.48866e+06
3.48904e+06
3.48938e+06
3.4897e+06
3.49e+06
3.49027e+06
3.49051e+06
3.49074e+06
3.49094e+06
3.49113e+06
3.49129e+06
3.49144e+06
3.49156e+06
3.49167e+06
3.49175e+06
3.49182e+06
3.49186e+06
3.49188e+06