/*--------------------------------*- C++ -*----------------------------------*\
| =========                 |                                                 |
| \\      /  F ield         | OpenFOAM: The Open Source CFD Toolbox           |
|  \\    /   O peration     | Version:  v2012                                 |
|   \\  /    A nd           | Website:  www.openfoam.com                      |
|    \\/     M anipulation  |                                                 |
\*---------------------------------------------------------------------------*/
FoamFile
{
    version     2.0;
    format      ascii;
    class       volVectorField;
    location    "1";
    object      U;
}
// * * * * * * * * * * * * * * * * * * * * * * * * * * * * * * * * * * * * * //

dimensions      [0 1 -1 0 0 0 0];


internalField   nonuniform List<vector> 
3332
(
(0.00221633 -0.0263286 -1.93412e-05)
(0.00241233 -0.026808 -2.10516e-05)
(0.00261198 -0.0272412 -2.27939e-05)
(0.00281396 -0.0276272 -2.45566e-05)
(0.00301707 -0.0279651 -2.63292e-05)
(0.00321974 -0.0282536 -2.80979e-05)
(0.00342048 -0.0284916 -2.98498e-05)
(0.00361739 -0.0286775 -3.15683e-05)
(0.00380867 -0.0288103 -3.32377e-05)
(0.00399211 -0.0288885 -3.48387e-05)
(0.00416568 -0.0289111 -3.63537e-05)
(0.00432696 -0.0288768 -3.77613e-05)
(0.00447377 -0.0287849 -3.90427e-05)
(0.00460357 -0.0286344 -4.01758e-05)
(0.00471418 -0.0284251 -4.11413e-05)
(0.0048031 -0.0281566 -4.19177e-05)
(0.0048683 -0.027829 -4.2487e-05)
(0.00490753 -0.0274424 -4.28297e-05)
(0.00491911 -0.0269976 -4.29312e-05)
(0.00490127 -0.0264952 -4.27761e-05)
(0.001953 -0.0255843 -1.70431e-05)
(0.00214884 -0.0261576 -1.87522e-05)
(0.00235042 -0.026684 -2.05113e-05)
(0.002557 -0.0271634 -2.23141e-05)
(0.00276727 -0.0275951 -2.41491e-05)
(0.00297996 -0.0279782 -2.60052e-05)
(0.0031935 -0.0283115 -2.78688e-05)
(0.00340643 -0.0285938 -2.97271e-05)
(0.0036169 -0.0288237 -3.15639e-05)
(0.00382317 -0.0290002 -3.33641e-05)
(0.00402305 -0.0291217 -3.51085e-05)
(0.00421449 -0.0291871 -3.67794e-05)
(0.00439503 -0.0291951 -3.83552e-05)
(0.00456246 -0.029145 -3.98166e-05)
(0.00471416 -0.0290356 -4.11406e-05)
(0.00484782 -0.0288667 -4.23074e-05)
(0.00496082 -0.0286375 -4.32938e-05)
(0.00505094 -0.0283484 -4.40806e-05)
(0.00511572 -0.0279992 -4.46463e-05)
(0.00515323 -0.0275907 -4.4974e-05)
(0.0051614 -0.0271234 -4.50458e-05)
(0.00513884 -0.0265986 -4.48495e-05)
(5.69931e-06 -0.00396559 -4.97502e-08)
(3.025e-05 -0.00688642 -2.64025e-07)
(7.32435e-05 -0.00930861 -6.39241e-07)
(0.000130269 -0.0113229 -1.13693e-06)
(0.000201533 -0.0130618 -1.75889e-06)
(0.000283055 -0.0145989 -2.47029e-06)
(0.000382549 -0.0159953 -3.33855e-06)
(0.000484695 -0.0172464 -4.23007e-06)
(0.000593069 -0.0184225 -5.17556e-06)
(0.000723865 -0.0195056 -6.31688e-06)
(0.00115577 -0.0223352 -1.0086e-05)
(0.00132122 -0.0231611 -1.15298e-05)
(0.00149626 -0.0239343 -1.30573e-05)
(0.00168078 -0.024657 -1.46676e-05)
(0.0018731 -0.0253299 -1.63459e-05)
(0.002073 -0.0259547 -1.80903e-05)
(0.00228002 -0.026531 -1.98969e-05)
(0.00249291 -0.0270593 -2.17547e-05)
(0.00271066 -0.0275387 -2.3655e-05)
(0.00293217 -0.0279688 -2.55881e-05)
(0.00315592 -0.0283484 -2.75408e-05)
(0.00338046 -0.0286766 -2.95004e-05)
(0.00360396 -0.028952 -3.14509e-05)
(0.00382471 -0.0291734 -3.33774e-05)
(0.00404054 -0.0293394 -3.5261e-05)
(0.00424945 -0.0294488 -3.70843e-05)
(0.00444895 -0.0295002 -3.88255e-05)
(0.00463678 -0.0294929 -4.0465e-05)
(0.00481026 -0.0294255 -4.19792e-05)
(0.00496702 -0.0292978 -4.33474e-05)
(0.00510427 -0.0291089 -4.45454e-05)
(0.00521966 -0.0288589 -4.55528e-05)
(0.00531053 -0.0285477 -4.63461e-05)
(0.00537473 -0.0281759 -4.69068e-05)
(0.0054099 -0.027744 -4.72142e-05)
(0.00541437 -0.0272532 -4.72536e-05)
(0.00538634 -0.0267047 -4.70096e-05)
(6.26852e-06 -0.00402332 -5.47168e-08)
(3.25577e-05 -0.00699055 -2.84154e-07)
(7.7315e-05 -0.00945131 -6.7476e-07)
(0.000137122 -0.0114975 -1.19669e-06)
(0.000210302 -0.0132635 -1.83531e-06)
(0.000296396 -0.0148272 -2.5866e-06)
(0.00039353 -0.0162367 -3.43431e-06)
(0.000504461 -0.0175277 -4.40239e-06)
(0.000627896 -0.0187121 -5.47955e-06)
(0.000764037 -0.0198128 -6.66747e-06)
(0.000909572 -0.0208375 -7.93744e-06)
(0.00106087 -0.0217943 -9.25788e-06)
(0.00123004 -0.0226879 -1.07341e-05)
(0.00140451 -0.0235247 -1.22567e-05)
(0.00159 -0.0243073 -1.38754e-05)
(0.00178549 -0.0250377 -1.55812e-05)
(0.00198913 -0.0257171 -1.73583e-05)
(0.00220054 -0.0263466 -1.92033e-05)
(0.00241927 -0.0269262 -2.11121e-05)
(0.00264381 -0.0274559 -2.30716e-05)
(0.0028735 -0.0279352 -2.5076e-05)
(0.00310681 -0.0283632 -2.71121e-05)
(0.00334237 -0.0287391 -2.91678e-05)
(0.00357834 -0.0290615 -3.12272e-05)
(0.00381305 -0.0293294 -3.32755e-05)
(0.00404436 -0.0295413 -3.52942e-05)
(0.00427029 -0.029696 -3.7266e-05)
(0.00448837 -0.0297922 -3.91693e-05)
(0.00469633 -0.0298288 -4.09843e-05)
(0.00489142 -0.0298046 -4.26872e-05)
(0.0050712 -0.0297192 -4.42563e-05)
(0.00523278 -0.0295715 -4.56667e-05)
(0.00537369 -0.0293616 -4.68967e-05)
(0.00549106 -0.0290892 -4.79214e-05)
(0.00558257 -0.0287548 -4.87204e-05)
(0.0056456 -0.0283589 -4.92708e-05)
(0.00567818 -0.0279025 -4.95556e-05)
(0.00567819 -0.0273868 -4.95561e-05)
(0.00564428 -0.0268136 -4.92609e-05)
(6.76731e-06 -0.00408549 -5.907e-08)
(3.47772e-05 -0.00710365 -3.03529e-07)
(8.30431e-05 -0.00960805 -7.24744e-07)
(0.000147367 -0.0116915 -1.28609e-06)
(0.000226475 -0.0134898 -1.97644e-06)
(0.000318337 -0.0150816 -2.7781e-06)
(0.000424221 -0.0165164 -3.7021e-06)
(0.000541579 -0.0178237 -4.72629e-06)
(0.0006697 -0.0190293 -5.84435e-06)
(0.000814244 -0.020146 -7.10562e-06)
(0.000968285 -0.0211856 -8.44981e-06)
(0.00112896 -0.0221558 -9.85205e-06)
(0.00130794 -0.023063 -1.1414e-05)
(0.0014932 -0.023911 -1.30306e-05)
(0.00168983 -0.0247033 -1.47465e-05)
(0.00189694 -0.0254417 -1.65539e-05)
(0.00211244 -0.0261277 -1.84345e-05)
(0.00233599 -0.026762 -2.03853e-05)
(0.00256709 -0.0273447 -2.24021e-05)
(0.00280422 -0.0278758 -2.44714e-05)
(0.0030464 -0.0283544 -2.65849e-05)
(0.00329224 -0.02878 -2.87303e-05)
(0.00354003 -0.0291514 -3.08927e-05)
(0.0037881 -0.0294675 -3.30577e-05)
(0.00403434 -0.0297269 -3.52066e-05)
(0.00427679 -0.0299286 -3.73226e-05)
(0.00451301 -0.0300709 -3.93842e-05)
(0.00474073 -0.0301529 -4.13716e-05)
(0.00495717 -0.0301733 -4.32607e-05)
(0.00515983 -0.0301313 -4.50296e-05)
(0.00534573 -0.0300261 -4.66522e-05)
(0.0055123 -0.0298575 -4.81061e-05)
(0.00565649 -0.0296249 -4.93648e-05)
(0.00577581 -0.0293289 -5.04064e-05)
(0.00586739 -0.0289697 -5.1206e-05)
(0.00592903 -0.0285485 -5.17444e-05)
(0.00595826 -0.0280661 -5.2e-05)
(0.00595344 -0.0275244 -5.19584e-05)
(0.00591278 -0.026925 -5.16041e-05)
(0.00583539 -0.0262704 -5.09301e-05)
(7.32329e-06 -0.0041521 -6.39225e-08)
(3.73267e-05 -0.00722361 -3.25777e-07)
(8.86328e-05 -0.00977254 -7.73531e-07)
(0.00015721 -0.0118931 -1.37199e-06)
(0.000241259 -0.0137235 -2.10546e-06)
(0.000339196 -0.0153439 -2.96011e-06)
(0.00045149 -0.0168042 -3.94004e-06)
(0.000576598 -0.0181365 -5.03184e-06)
(0.000713231 -0.0193624 -6.22419e-06)
(0.00086693 -0.0204986 -7.56537e-06)
(0.00103085 -0.0215552 -8.99581e-06)
(0.00120172 -0.0225408 -1.0487e-05)
(0.0013916 -0.0234615 -1.2144e-05)
(0.00158811 -0.0243213 -1.38588e-05)
(0.00179642 -0.0251237 -1.56767e-05)
(0.00201571 -0.0258704 -1.75903e-05)
(0.00224374 -0.0265631 -1.95802e-05)
(0.00248011 -0.0272021 -2.16429e-05)
(0.0027243 -0.0277879 -2.3774e-05)
(0.00297457 -0.0283198 -2.59579e-05)
(0.00323003 -0.0287976 -2.81873e-05)
(0.00348893 -0.0292201 -3.04467e-05)
(0.00374972 -0.0295865 -3.27226e-05)
(0.0040103 -0.0298954 -3.49967e-05)
(0.00426874 -0.0301457 -3.72522e-05)
(0.00452261 -0.0303359 -3.94678e-05)
(0.00476967 -0.030465 -4.1624e-05)
(0.00500711 -0.0305314 -4.36963e-05)
(0.00523243 -0.0305345 -4.56629e-05)
(0.00544256 -0.0304732 -4.74969e-05)
(0.00563481 -0.0303472 -4.91751e-05)
(0.00580603 -0.0301558 -5.06695e-05)
(0.00595355 -0.0298994 -5.19572e-05)
(0.00607427 -0.0295781 -5.30111e-05)
(0.00616577 -0.0291928 -5.38101e-05)
(0.00622528 -0.0287446 -5.43299e-05)
(0.00625084 -0.028235 -5.45535e-05)
(0.00624029 -0.0276657 -5.44619e-05)
(0.00619239 -0.0270391 -5.40444e-05)
(0.00610583 -0.0263574 -5.32899e-05)
(7.9237e-06 -0.00422379 -6.91628e-08)
(4.00592e-05 -0.00735239 -3.49629e-07)
(9.51637e-05 -0.00994928 -8.30517e-07)
(0.000168525 -0.0121099 -1.47073e-06)
(0.000258269 -0.0139748 -2.2539e-06)
(0.000362622 -0.0156256 -3.16454e-06)
(0.000482322 -0.017113 -4.2091e-06)
(0.000616042 -0.0184695 -5.37607e-06)
(0.000760932 -0.0197174 -6.64044e-06)
(0.000923572 -0.0208733 -8.05961e-06)
(0.00109779 -0.0219479 -9.57992e-06)
(0.0012794 -0.0229496 -1.11649e-05)
(0.00148074 -0.0238845 -1.29219e-05)
(0.00168922 -0.0247568 -1.47412e-05)
(0.00191003 -0.0255697 -1.66681e-05)
(0.00214229 -0.0263252 -1.86949e-05)
(0.00238359 -0.0270246 -2.08006e-05)
(0.00263363 -0.0276685 -2.29826e-05)
(0.00289158 -0.028257 -2.52337e-05)
(0.00315583 -0.0287897 -2.75398e-05)
(0.00342513 -0.029266 -2.98899e-05)
(0.00369789 -0.0296851 -3.22702e-05)
(0.00397213 -0.0300457 -3.46635e-05)
(0.00424595 -0.0303467 -3.70532e-05)
(0.00451693 -0.0305867 -3.94181e-05)
(0.00478285 -0.0307646 -4.17388e-05)
(0.0050409 -0.030879 -4.3991e-05)
(0.00528857 -0.0309288 -4.61525e-05)
(0.00552272 -0.0309131 -4.81962e-05)
(0.00574063 -0.0308312 -5.00982e-05)
(0.00593897 -0.0306825 -5.18294e-05)
(0.00611495 -0.0304672 -5.33655e-05)
(0.00626529 -0.030185 -5.46778e-05)
(0.00638733 -0.0298371 -5.57433e-05)
(0.00647802 -0.029424 -5.65352e-05)
(0.00653512 -0.0289474 -5.70341e-05)
(0.0065561 -0.0284089 -5.72176e-05)
(0.00653936 -0.0278108 -5.70721e-05)
(0.00648318 -0.0271554 -5.65824e-05)
(0.00638688 -0.0264457 -5.57426e-05)
(0.00624974 -0.0256845 -5.45473e-05)
(8.56566e-06 -0.00430081 -7.47657e-08)
(4.29938e-05 -0.00749027 -3.75238e-07)
(0.000101824 -0.0101379 -8.8865e-07)
(0.000180262 -0.012341 -1.57316e-06)
(0.000275912 -0.0142423 -2.40787e-06)
(0.000387161 -0.0159253 -3.37867e-06)
(0.000514591 -0.0174413 -4.49069e-06)
(0.000656879 -0.0188238 -5.73243e-06)
(0.000811218 -0.0200953 -7.07925e-06)
(0.000984073 -0.0212721 -8.58757e-06)
(0.00116924 -0.0223657 -1.02034e-05)
(0.00136231 -0.0233843 -1.18883e-05)
(0.00157585 -0.024334 -1.37518e-05)
(0.00179711 -0.0252192 -1.56827e-05)
(0.00203126 -0.026043 -1.7726e-05)
(0.00227721 -0.0268074 -1.98722e-05)
(0.00253266 -0.0275137 -2.21014e-05)
(0.00279706 -0.0281623 -2.44088e-05)
(0.00306965 -0.0287534 -2.67876e-05)
(0.00334855 -0.0292865 -2.92215e-05)
(0.00363258 -0.0297611 -3.17001e-05)
(0.00391975 -0.0301759 -3.42063e-05)
(0.00420828 -0.0305302 -3.67243e-05)
(0.00449577 -0.0308223 -3.92332e-05)
(0.00478 -0.0310512 -4.17138e-05)
(0.0050582 -0.0312154 -4.41417e-05)
(0.00532784 -0.0313141 -4.6495e-05)
(0.00558575 -0.0313457 -4.8746e-05)
(0.00582915 -0.0313099 -5.08704e-05)
(0.00605462 -0.0312056 -5.28384e-05)
(0.00625925 -0.031033 -5.46246e-05)
(0.00643956 -0.0307917 -5.61984e-05)
(0.0065927 -0.0304824 -5.75353e-05)
(0.00671536 -0.0301059 -5.86062e-05)
(0.00680503 -0.0296635 -5.93892e-05)
(0.00685881 -0.0291567 -5.9859e-05)
(0.00687478 -0.028588 -5.9999e-05)
(0.00685078 -0.0279594 -5.97901e-05)
(0.00678576 -0.0272741 -5.92232e-05)
(0.00667852 -0.0265349 -5.8288e-05)
(0.00652909 -0.0257453 -5.69848e-05)
(9.24712e-06 -0.00438362 -8.07156e-08)
(4.62655e-05 -0.00763797 -4.03797e-07)
(0.00010931 -0.0103397 -9.53978e-07)
(0.000193006 -0.0125881 -1.68438e-06)
(0.000295434 -0.0145281 -2.57822e-06)
(0.000413848 -0.0162453 -3.61156e-06)
(0.000549651 -0.0177917 -4.79665e-06)
(0.00070125 -0.0192015 -6.11963e-06)
(0.000865583 -0.0204975 -7.55364e-06)
(0.0010489 -0.0216964 -9.15326e-06)
(0.00124557 -0.02281 -1.08695e-05)
(0.00145117 -0.0238461 -1.26637e-05)
(0.00167765 -0.0248114 -1.46401e-05)
(0.00191246 -0.0257101 -1.66892e-05)
(0.00216066 -0.0265452 -1.88552e-05)
(0.00242118 -0.0273189 -2.11285e-05)
(0.00269154 -0.0280321 -2.34878e-05)
(0.00297125 -0.0286854 -2.59288e-05)
(0.0032592 -0.0292789 -2.84417e-05)
(0.00355368 -0.0298121 -3.10115e-05)
(0.00385305 -0.0302842 -3.36241e-05)
(0.00415555 -0.0306944 -3.6264e-05)
(0.00445887 -0.0310412 -3.89111e-05)
(0.00476084 -0.0313236 -4.15464e-05)
(0.00505867 -0.0315401 -4.41456e-05)
(0.00534984 -0.0316897 -4.66868e-05)
(0.00563117 -0.0317709 -4.91421e-05)
(0.00589985 -0.0317832 -5.14871e-05)
(0.00615237 -0.0317254 -5.3691e-05)
(0.00638572 -0.0315973 -5.57279e-05)
(0.00659624 -0.0313987 -5.75655e-05)
(0.00678094 -0.03113 -5.91776e-05)
(0.00693624 -0.0307916 -6.05334e-05)
(0.00705937 -0.0303849 -6.16084e-05)
(0.0071471 -0.0299112 -6.23746e-05)
(0.00719719 -0.0293728 -6.28123e-05)
(0.00720706 -0.0287719 -6.2899e-05)
(0.00717525 -0.0281115 -6.2622e-05)
(0.00710014 -0.0273946 -6.19671e-05)
(0.00698131 -0.0266248 -6.09307e-05)
(0.00681827 -0.0258055 -5.95087e-05)
(9.99445e-06 -0.00447272 -8.72383e-08)
(4.96603e-05 -0.00779633 -4.33422e-07)
(0.000117036 -0.0105558 -1.02141e-06)
(0.000206628 -0.0128519 -1.80325e-06)
(0.000316004 -0.0148332 -2.75773e-06)
(0.000442194 -0.0165867 -3.85891e-06)
(0.000586778 -0.0181651 -5.12063e-06)
(0.000748303 -0.0196036 -6.53023e-06)
(0.000923442 -0.0209258 -8.05854e-06)
(0.00111815 -0.0221479 -9.75758e-06)
(0.00132726 -0.0232827 -1.15824e-05)
(0.00154597 -0.0243374 -1.3491e-05)
(0.00178612 -0.025319 -1.55866e-05)
(0.00203543 -0.0262317 -1.77623e-05)
(0.00229874 -0.0270785 -2.00601e-05)
(0.0025747 -0.0278614 -2.24682e-05)
(0.00286103 -0.0285817 -2.49669e-05)
(0.00315683 -0.0292396 -2.75483e-05)
(0.00346117 -0.0298353 -3.02042e-05)
(0.00377195 -0.030368 -3.29163e-05)
(0.00408768 -0.0308373 -3.56715e-05)
(0.00440609 -0.0312417 -3.84503e-05)
(0.00472513 -0.0315804 -4.12345e-05)
(0.005042 -0.0318518 -4.39999e-05)
(0.00535421 -0.0320549 -4.67247e-05)
(0.00565855 -0.0321882 -4.93808e-05)
(0.00595221 -0.0322509 -5.19437e-05)
(0.0062316 -0.0322418 -5.43822e-05)
(0.00649364 -0.0321606 -5.66693e-05)
(0.00673454 -0.0320067 -5.87721e-05)
(0.00695114 -0.0317805 -6.06627e-05)
(0.00713962 -0.0314822 -6.23079e-05)
(0.007297 -0.031113 -6.36818e-05)
(0.00741972 -0.030674 -6.47533e-05)
(0.00750521 -0.0301674 -6.54999e-05)
(0.00755049 -0.0295954 -6.58957e-05)
(0.00755374 -0.0289609 -6.59246e-05)
(0.00751284 -0.0282668 -6.55684e-05)
(0.00742698 -0.027517 -6.48197e-05)
(0.00729516 -0.026715 -6.367e-05)
(0.00711777 -0.0258651 -6.21227e-05)
(1.08239e-05 -0.00456848 -9.44763e-08)
(5.35493e-05 -0.00796597 -4.67366e-07)
(0.000125798 -0.0107868 -1.09787e-06)
(0.00022132 -0.013134 -1.93148e-06)
(0.00033794 -0.015159 -2.94915e-06)
(0.000473002 -0.0169509 -4.12777e-06)
(0.00062754 -0.0185634 -5.47634e-06)
(0.000798838 -0.0200329 -6.97121e-06)
(0.000985528 -0.0213829 -8.60033e-06)
(0.00119221 -0.0226296 -1.04039e-05)
(0.00141417 -0.0237861 -1.23407e-05)
(0.00164761 -0.0248597 -1.43779e-05)
(0.0019024 -0.0258584 -1.66013e-05)
(0.00216715 -0.0267856 -1.89117e-05)
(0.00244641 -0.0276444 -2.13486e-05)
(0.00273879 -0.028437 -2.39001e-05)
(0.00304188 -0.0291643 -2.65451e-05)
(0.00335485 -0.0298267 -2.92762e-05)
(0.00367636 -0.0304241 -3.20819e-05)
(0.00400449 -0.0309561 -3.49455e-05)
(0.00433724 -0.0314216 -3.78493e-05)
(0.00467259 -0.0318198 -4.07758e-05)
(0.00500785 -0.0321491 -4.37017e-05)
(0.00534052 -0.0324086 -4.6605e-05)
(0.00566742 -0.0325966 -4.9458e-05)
(0.00598569 -0.0327124 -5.22357e-05)
(0.00629172 -0.0327545 -5.49065e-05)
(0.00658235 -0.0327227 -5.74431e-05)
(0.00685369 -0.0326159 -5.98114e-05)
(0.00710243 -0.0324346 -6.19826e-05)
(0.00732455 -0.0321785 -6.39214e-05)
(0.00751684 -0.0318489 -6.55999e-05)
(0.00767545 -0.0314466 -6.69846e-05)
(0.00779751 -0.0309736 -6.80504e-05)
(0.00787965 -0.0304319 -6.87678e-05)
(0.00791965 -0.0298246 -6.91175e-05)
(0.00791495 -0.0291544 -6.90772e-05)
(0.0078643 -0.0284253 -6.86358e-05)
(0.00776623 -0.0276408 -6.77806e-05)
(0.00762066 -0.0268055 -6.65109e-05)
(0.00742741 -0.0259235 -6.48254e-05)
(1.17012e-05 -0.00467163 -1.02133e-07)
(5.75229e-05 -0.00814796 -5.0204e-07)
(0.000134817 -0.0110344 -1.17658e-06)
(0.0002371 -0.0134357 -2.06918e-06)
(0.000361634 -0.0155072 -3.15592e-06)
(0.000505624 -0.0173396 -4.41243e-06)
(0.000669885 -0.0189883 -5.84584e-06)
(0.000852185 -0.0204908 -7.4367e-06)
(0.00105183 -0.0218677 -9.17892e-06)
(0.00127245 -0.0231402 -1.1104e-05)
(0.00150935 -0.0243217 -1.31712e-05)
(0.00175692 -0.0254148 -1.53317e-05)
(0.00202646 -0.0264317 -1.76839e-05)
(0.00230788 -0.0273741 -2.01398e-05)
(0.00260408 -0.0282454 -2.27245e-05)
(0.00291389 -0.0290478 -2.5428e-05)
(0.00323497 -0.0297822 -2.823e-05)
(0.003566 -0.0304489 -3.11188e-05)
(0.00390586 -0.0310478 -3.40846e-05)
(0.00425213 -0.0315782 -3.71065e-05)
(0.00460302 -0.0320395 -4.01687e-05)
(0.00495593 -0.0324301 -4.32485e-05)
(0.00530844 -0.0327491 -4.63248e-05)
(0.00565735 -0.032995 -4.93698e-05)
(0.0059998 -0.0331669 -5.23586e-05)
(0.00633215 -0.0332632 -5.52591e-05)
(0.0066512 -0.0332834 -5.80436e-05)
(0.00695293 -0.0332265 -6.06771e-05)
(0.00723395 -0.0330926 -6.31299e-05)
(0.00749006 -0.0328813 -6.53655e-05)
(0.00771783 -0.0325937 -6.73537e-05)
(0.00791313 -0.0322302 -6.90584e-05)
(0.00807282 -0.0317929 -7.04525e-05)
(0.00819312 -0.0312835 -7.1503e-05)
(0.00827148 -0.030705 -7.21875e-05)
(0.00830486 -0.03006 -7.24794e-05)
(0.00829157 -0.0293526 -7.23642e-05)
(0.00822965 -0.0285864 -7.18245e-05)
(0.00811858 -0.027766 -7.08559e-05)
(0.00795766 -0.0268957 -6.94523e-05)
(0.0077477 -0.0259805 -6.76209e-05)
(1.26122e-05 -0.00478247 -1.10086e-07)
(6.16489e-05 -0.00834308 -5.38057e-07)
(0.000144591 -0.0112992 -1.26187e-06)
(0.000254178 -0.0137583 -2.21822e-06)
(0.000387415 -0.0158792 -3.3809e-06)
(0.000541156 -0.0177547 -4.7225e-06)
(0.000715529 -0.0194416 -6.24415e-06)
(0.000911869 -0.0209783 -7.95745e-06)
(0.00112606 -0.0223857 -9.82656e-06)
(0.00135465 -0.0236857 -1.18214e-05)
(0.00160702 -0.0248916 -1.40237e-05)
(0.00187395 -0.0260062 -1.6353e-05)
(0.00215878 -0.0270416 -1.88385e-05)
(0.00245849 -0.0279997 -2.1454e-05)
(0.00277284 -0.0288837 -2.41971e-05)
(0.0031012 -0.0296962 -2.70625e-05)
(0.00344123 -0.0304375 -3.00298e-05)
(0.00379154 -0.0311083 -3.30868e-05)
(0.00415061 -0.0317081 -3.62204e-05)
(0.00451624 -0.0322365 -3.94111e-05)
(0.00488601 -0.0326923 -4.26381e-05)
(0.0052576 -0.0330747 -4.5881e-05)
(0.00562789 -0.0333819 -4.91125e-05)
(0.00599401 -0.0336131 -5.23077e-05)
(0.00635229 -0.0337668 -5.54345e-05)
(0.00669949 -0.0338422 -5.84647e-05)
(0.00703152 -0.0338382 -6.13626e-05)
(0.0073449 -0.0337546 -6.40977e-05)
(0.00763523 -0.0335909 -6.66318e-05)
(0.00789895 -0.0333479 -6.89338e-05)
(0.00813163 -0.0330259 -7.0965e-05)
(0.00832988 -0.0326268 -7.26955e-05)
(0.00848957 -0.0321519 -7.40896e-05)
(0.00860777 -0.0316041 -7.51218e-05)
(0.00868098 -0.0309862 -7.57614e-05)
(0.00870712 -0.0303019 -7.59902e-05)
(0.00868367 -0.029555 -7.57863e-05)
(0.00860968 -0.0287502 -7.51414e-05)
(0.00848392 -0.0278918 -7.40446e-05)
(0.00830675 -0.0269854 -7.24991e-05)
(0.00807837 -0.0260356 -7.05071e-05)
(1.36265e-05 -0.00490207 -1.18938e-07)
(6.63222e-05 -0.00855245 -5.78835e-07)
(0.000155225 -0.0115827 -1.35467e-06)
(0.000272622 -0.0141032 -2.37916e-06)
(0.000415079 -0.0162765 -3.62231e-06)
(0.000579192 -0.0181985 -5.0544e-06)
(0.000764586 -0.019926 -6.67221e-06)
(0.000973375 -0.0214986 -8.49413e-06)
(0.00120219 -0.0229401 -1.04909e-05)
(0.00144651 -0.0242693 -1.2623e-05)
(0.00171602 -0.0254986 -1.49748e-05)
(0.0019993 -0.0266363 -1.74468e-05)
(0.00230121 -0.0276906 -2.00814e-05)
(0.00261979 -0.0286647 -2.28614e-05)
(0.00295336 -0.0295621 -2.57724e-05)
(0.00330142 -0.0303844 -2.88097e-05)
(0.00366172 -0.0311328 -3.19539e-05)
(0.00403232 -0.0318072 -3.5188e-05)
(0.00441192 -0.0324076 -3.85007e-05)
(0.00479775 -0.032933 -4.18677e-05)
(0.00518766 -0.0333827 -4.52704e-05)
(0.0055786 -0.0337552 -4.86822e-05)
(0.0059678 -0.0340496 -5.20787e-05)
(0.00635154 -0.0342642 -5.54277e-05)
(0.00672658 -0.0343982 -5.87008e-05)
(0.00708872 -0.0344504 -6.18615e-05)
(0.00743443 -0.0344204 -6.48786e-05)
(0.00775915 -0.0343074 -6.77129e-05)
(0.00805917 -0.0341121 -7.03315e-05)
(0.00832984 -0.0338345 -7.26943e-05)
(0.0085675 -0.0334762 -7.47688e-05)
(0.00876766 -0.0330384 -7.65161e-05)
(0.00892708 -0.0325239 -7.79079e-05)
(0.0090418 -0.0319351 -7.89098e-05)
(0.00910932 -0.0312758 -7.94997e-05)
(0.00912659 -0.0305497 -7.96512e-05)
(0.0090922 -0.0297616 -7.93518e-05)
(0.00900435 -0.0289159 -7.8586e-05)
(0.00886297 -0.0280184 -7.73529e-05)
(0.00866771 -0.027074 -7.56496e-05)
(0.00841994 -0.0260885 -7.34884e-05)
(1.47359e-05 -0.00503067 -1.28616e-07)
(7.11709e-05 -0.00877824 -6.21153e-07)
(0.000165785 -0.0118877 -1.44683e-06)
(0.000291412 -0.014473 -2.54314e-06)
(0.000443492 -0.0167023 -3.87022e-06)
(0.00061886 -0.0186726 -5.40055e-06)
(0.000817781 -0.0204429 -7.13639e-06)
(0.00104059 -0.0220535 -9.08066e-06)
(0.00128509 -0.0235285 -1.12142e-05)
(0.00154478 -0.0248882 -1.34805e-05)
(0.00183154 -0.0261444 -1.59829e-05)
(0.00213345 -0.0273064 -1.86174e-05)
(0.0024544 -0.0283806 -2.14182e-05)
(0.00279284 -0.0293718 -2.43716e-05)
(0.00314687 -0.0302827 -2.74609e-05)
(0.00351596 -0.0311154 -3.06818e-05)
(0.00389753 -0.0318704 -3.40116e-05)
(0.00428982 -0.0325483 -3.7435e-05)
(0.00469092 -0.0331484 -4.09353e-05)
(0.00509833 -0.0336702 -4.44907e-05)
(0.00550916 -0.0341124 -4.80759e-05)
(0.00592072 -0.0344741 -5.16676e-05)
(0.00632935 -0.0347536 -5.52338e-05)
(0.00673177 -0.0349502 -5.87458e-05)
(0.00712377 -0.0350623 -6.2167e-05)
(0.0075017 -0.0350895 -6.54653e-05)
(0.00786089 -0.0350307 -6.86004e-05)
(0.0081975 -0.0348865 -7.15383e-05)
(0.00850665 -0.0346565 -7.42366e-05)
(0.00878446 -0.0343422 -7.66617e-05)
(0.0090261 -0.0339445 -7.87711e-05)
(0.00922802 -0.033466 -8.05337e-05)
(0.00938581 -0.0329088 -8.19114e-05)
(0.00949657 -0.0322768 -8.28787e-05)
(0.00955671 -0.0315733 -8.34043e-05)
(0.00956436 -0.0308035 -8.34719e-05)
(0.00951715 -0.0299717 -8.30606e-05)
(0.0094145 -0.0290837 -8.21657e-05)
(0.00925553 -0.0281448 -8.07791e-05)
(0.00904115 -0.0271613 -7.89091e-05)
(0.00877206 -0.0261385 -7.65618e-05)
(1.58741e-05 -0.0051699 -1.38546e-07)
(7.82512e-05 -0.00901478 -6.82917e-07)
(0.000183088 -0.0122163 -1.59781e-06)
(0.000315772 -0.0148636 -2.7557e-06)
(0.000476552 -0.0171564 -4.1587e-06)
(0.000664405 -0.0191774 -5.79798e-06)
(0.000875747 -0.0209953 -7.6422e-06)
(0.00111282 -0.0226459 -9.71091e-06)
(0.00137321 -0.0241577 -1.19833e-05)
(0.00164989 -0.0255497 -1.43976e-05)
(0.00195539 -0.0268337 -1.70636e-05)
(0.00227669 -0.0280203 -1.98673e-05)
(0.00261821 -0.0291155 -2.28476e-05)
(0.00297786 -0.030124 -2.59861e-05)
(0.003354 -0.0310489 -2.92684e-05)
(0.00374545 -0.0318917 -3.26844e-05)
(0.00414994 -0.0326535 -3.62142e-05)
(0.00456505 -0.0333341 -3.98367e-05)
(0.00498916 -0.0339334 -4.35378e-05)
(0.00541907 -0.0344503 -4.72896e-05)
(0.00585224 -0.0348841 -5.10698e-05)
(0.00628509 -0.0352331 -5.48472e-05)
(0.00671441 -0.0354965 -5.8594e-05)
(0.00713589 -0.0356727 -6.22724e-05)
(0.00754586 -0.0357611 -6.58504e-05)
(0.00793953 -0.0357605 -6.92862e-05)
(0.00831292 -0.035671 -7.25451e-05)
(0.00866095 -0.0354923 -7.55828e-05)
(0.00897956 -0.0352255 -7.83636e-05)
(0.0092636 -0.0348712 -8.08432e-05)
(0.00950919 -0.0344317 -8.29871e-05)
(0.00971153 -0.0339091 -8.47534e-05)
(0.0098673 -0.033307 -8.61135e-05)
(0.00997239 -0.0326286 -8.70314e-05)
(0.0100245 -0.031879 -8.74865e-05)
(0.0100205 -0.0310626 -8.74531e-05)
(0.00995953 -0.0301853 -8.69216e-05)
(0.00983998 -0.0292526 -8.58792e-05)
(0.00966234 -0.028271 -8.43298e-05)
(0.00942674 -0.0272464 -8.22745e-05)
(0.00913523 -0.0261855 -7.97316e-05)
(2.11939e-05 -0.00531926 -1.84988e-07)
(7.97376e-05 -0.00927556 -6.9598e-07)
(0.000181689 -0.0125714 -1.58559e-06)
(0.000343521 -0.0152961 -2.99783e-06)
(0.000498983 -0.0176487 -4.35441e-06)
(0.000707992 -0.0197219 -6.17835e-06)
(0.000933731 -0.0215875 -8.14823e-06)
(0.00119033 -0.0232806 -1.03873e-05)
(0.00146756 -0.0248299 -1.28065e-05)
(0.00176372 -0.0262553 -1.53909e-05)
(0.00208953 -0.0275688 -1.8234e-05)
(0.00243139 -0.0287811 -2.12172e-05)
(0.00279487 -0.029898 -2.43891e-05)
(0.00317709 -0.0309246 -2.77245e-05)
(0.00357639 -0.0318635 -3.1209e-05)
(0.00399174 -0.0327166 -3.48336e-05)
(0.00442025 -0.0334846 -3.85729e-05)
(0.00485978 -0.0341677 -4.24086e-05)
(0.00530796 -0.0347651 -4.63198e-05)
(0.00576196 -0.0352764 -5.02817e-05)
(0.00621829 -0.0356999 -5.42641e-05)
(0.00667384 -0.036035 -5.82397e-05)
(0.00712434 -0.0362799 -6.21713e-05)
(0.00756605 -0.0364339 -6.60262e-05)
(0.0079941 -0.0364957 -6.9762e-05)
(0.00840438 -0.0364653 -7.33428e-05)
(0.00879163 -0.0363419 -7.67227e-05)
(0.00915159 -0.0361264 -7.98645e-05)
(0.00947884 -0.0358192 -8.27209e-05)
(0.00976921 -0.0354224 -8.52557e-05)
(0.0100175 -0.0349377 -8.7423e-05)
(0.0102199 -0.0343686 -8.91904e-05)
(0.010372 -0.0337181 -9.0518e-05)
(0.0104708 -0.0329911 -9.13808e-05)
(0.0105127 -0.0321921 -9.17477e-05)
(0.0104962 -0.0313271 -9.1605e-05)
(0.0104193 -0.0304017 -9.0934e-05)
(0.0102817 -0.0294226 -8.97344e-05)
(0.0100831 -0.028396 -8.80022e-05)
(0.0098251 -0.0273292 -8.57515e-05)
(0.00950897 -0.0262284 -8.29938e-05)
(2.23026e-05 -0.00547986 -1.94651e-07)
(8.63727e-05 -0.00956102 -7.53838e-07)
(0.000202202 -0.0129397 -1.7646e-06)
(0.000385917 -0.0157301 -3.3679e-06)
(0.000557804 -0.0181853 -4.86774e-06)
(0.000771141 -0.0202935 -6.72939e-06)
(0.00100495 -0.0222188 -8.76967e-06)
(0.00127715 -0.0239549 -1.11449e-05)
(0.0015719 -0.0255477 -1.3717e-05)
(0.00188665 -0.027007 -1.64637e-05)
(0.00223322 -0.0283528 -1.94879e-05)
(0.00259721 -0.0295918 -2.26642e-05)
(0.00298421 -0.0307316 -2.60413e-05)
(0.00339053 -0.0317766 -2.9587e-05)
(0.00381493 -0.0327301 -3.32905e-05)
(0.00425562 -0.0335933 -3.71362e-05)
(0.00471003 -0.0343674 -4.11016e-05)
(0.00517524 -0.0350519 -4.51614e-05)
(0.00564923 -0.0356468 -4.92978e-05)
(0.00612828 -0.0361507 -5.34784e-05)
(0.00660938 -0.0365629 -5.76768e-05)
(0.00708831 -0.0368817 -6.18566e-05)
(0.00756139 -0.0371064 -6.59852e-05)
(0.00802361 -0.0372355 -7.00192e-05)
(0.00847082 -0.0372687 -7.39222e-05)
(0.00889753 -0.037205 -7.76464e-05)
(0.00929933 -0.0370452 -8.11532e-05)
(0.00967052 -0.0367893 -8.43931e-05)
(0.0100067 -0.0364391 -8.73272e-05)
(0.0103022 -0.035996 -8.99069e-05)
(0.0105529 -0.0354634 -9.20959e-05)
(0.0107538 -0.0348439 -9.38497e-05)
(0.0109015 -0.0341425 -9.51397e-05)
(0.0109919 -0.0333634 -9.59293e-05)
(0.0110228 -0.0325128 -9.62e-05)
(0.0109915 -0.0315962 -9.59277e-05)
(0.0108974 -0.0306207 -9.51071e-05)
(0.0107394 -0.0295926 -9.37289e-05)
(0.0105186 -0.0285197 -9.1803e-05)
(0.0102358 -0.0274088 -8.93358e-05)
(0.0098938 -0.0262672 -8.63526e-05)
(2.10487e-05 -0.00565353 -1.83707e-07)
(9.30834e-05 -0.00985965 -8.12393e-07)
(0.000245503 -0.0133413 -2.14258e-06)
(0.000370517 -0.0162166 -3.23338e-06)
(0.000550662 -0.0187432 -4.80595e-06)
(0.000852243 -0.0209137 -7.43721e-06)
(0.00105953 -0.0228939 -9.24585e-06)
(0.00136591 -0.0246783 -1.19194e-05)
(0.00167832 -0.0263139 -1.46456e-05)
(0.00201964 -0.0278107 -1.7624e-05)
(0.00238702 -0.0291892 -2.083e-05)
(0.0027764 -0.0304565 -2.42278e-05)
(0.00318832 -0.0316197 -2.78224e-05)
(0.00362052 -0.032684 -3.15939e-05)
(0.00407141 -0.0336519 -3.55286e-05)
(0.00453924 -0.0345254 -3.9611e-05)
(0.0050208 -0.0353048 -4.38135e-05)
(0.00551354 -0.0359904 -4.81135e-05)
(0.00601449 -0.0365812 -5.24851e-05)
(0.00652041 -0.0370767 -5.69002e-05)
(0.00702712 -0.0374753 -6.13223e-05)
(0.00753102 -0.0377763 -6.57198e-05)
(0.00802712 -0.0379779 -7.00494e-05)
(0.00851113 -0.0380799 -7.42735e-05)
(0.00897745 -0.038081 -7.83434e-05)
(0.00942148 -0.0379817 -8.22188e-05)
(0.00983727 -0.0377816 -8.58478e-05)
(0.0102201 -0.0374825 -8.91896e-05)
(0.0105641 -0.0370853 -9.21918e-05)
(0.0108647 -0.0365931 -9.48159e-05)
(0.0111163 -0.0360084 -9.70124e-05)
(0.0113151 -0.0353359 -9.87483e-05)
(0.0114564 -0.0345797 -9.99823e-05)
(0.0115375 -0.033746 -0.000100691)
(0.011555 -0.0328402 -0.000100844)
(0.0115076 -0.0318697 -0.000100432)
(0.0113937 -0.0308412 -9.9439e-05)
(0.0112139 -0.0297626 -9.78708e-05)
(0.0109683 -0.028641 -9.57283e-05)
(0.0106594 -0.0274847 -9.3033e-05)
(0.0102891 -0.0263006 -8.98028e-05)
(2.24922e-05 -0.00584191 -1.96299e-07)
(9.94007e-05 -0.0101807 -8.67489e-07)
(0.000264308 -0.0137778 -2.30669e-06)
(0.000414733 -0.016762 -3.61932e-06)
(0.000614866 -0.0193285 -5.36626e-06)
(0.000922381 -0.0215878 -8.04921e-06)
(0.00114064 -0.0236173 -9.95362e-06)
(0.00146601 -0.0254551 -1.27929e-05)
(0.00179916 -0.0271329 -1.57e-05)
(0.00216247 -0.0286706 -1.88703e-05)
(0.00255381 -0.0300825 -2.22853e-05)
(0.00296875 -0.0313791 -2.59062e-05)
(0.00340769 -0.0325668 -2.97366e-05)
(0.00386742 -0.0336506 -3.37484e-05)
(0.00434697 -0.0346334 -3.79331e-05)
(0.00484357 -0.0355165 -4.22667e-05)
(0.00535446 -0.0363011 -4.67251e-05)
(0.00587613 -0.0369863 -5.12775e-05)
(0.00640603 -0.0375722 -5.59018e-05)
(0.00693987 -0.0380572 -6.05606e-05)
(0.00747402 -0.0384407 -6.52221e-05)
(0.00800355 -0.038721 -6.98434e-05)
(0.00852419 -0.0388975 -7.43871e-05)
(0.00903016 -0.0389689 -7.88029e-05)
(0.00951674 -0.0389354 -8.30496e-05)
(0.0099777 -0.0387964 -8.70727e-05)
(0.0104081 -0.0385532 -9.08296e-05)
(0.0108017 -0.0382065 -9.42646e-05)
(0.0111536 -0.0377592 -9.73361e-05)
(0.0114576 -0.0372134 -9.99909e-05)
(0.0117097 -0.0365737 -0.000102192)
(0.0119044 -0.0358439 -0.000103891)
(0.0120385 -0.03503 -0.000105062)
(0.0121077 -0.0341377 -0.000105668)
(0.0121106 -0.0331743 -0.000105693)
(0.0120444 -0.0321467 -0.000105117)
(0.0119094 -0.0310632 -0.00010394)
(0.0117049 -0.0299312 -0.000102156)
(0.0114331 -0.0287596 -9.97848e-05)
(0.0110952 -0.0275559 -9.68376e-05)
(0.0106953 -0.0263286 -9.33485e-05)
(2.44048e-05 -0.00604456 -2.12985e-07)
(0.000107342 -0.0105264 -9.36793e-07)
(0.000282668 -0.0142373 -2.46688e-06)
(0.000440629 -0.0173147 -3.84528e-06)
(0.000654902 -0.0199667 -5.7156e-06)
(0.000985708 -0.0222992 -8.6018e-06)
(0.00122222 -0.0243912 -1.06655e-05)
(0.0015713 -0.0262832 -1.37117e-05)
(0.00192752 -0.0280091 -1.68201e-05)
(0.00231681 -0.0295886 -2.02171e-05)
(0.00273463 -0.0310363 -2.38632e-05)
(0.00317715 -0.0323637 -2.77246e-05)
(0.0036449 -0.0335766 -3.18065e-05)
(0.0041341 -0.0346807 -3.60754e-05)
(0.00464378 -0.0356783 -4.05231e-05)
(0.00517123 -0.0365712 -4.51259e-05)
(0.00571285 -0.0373598 -4.98524e-05)
(0.00626558 -0.0380441 -5.46759e-05)