/*--------------------------------*- C++ -*----------------------------------*\
| =========                 |                                                 |
| \\      /  F ield         | OpenFOAM: The Open Source CFD Toolbox           |
|  \\    /   O peration     | Version:  v2012                                 |
|   \\  /    A nd           | Website:  www.openfoam.com                      |
|    \\/     M anipulation  |                                                 |
\*---------------------------------------------------------------------------*/
FoamFile
{
    version     2.0;
    format      ascii;
    class       surfaceScalarField;
    location    "0.25";
    object      phi;
}
// * * * * * * * * * * * * * * * * * * * * * * * * * * * * * * * * * * * * * //

dimensions      [0 3 -1 0 0 0 0];
oriented        oriented;


internalField   nonuniform List<scalar> 
49380
(
5.27727e-12
-6.89598e-09
7.7604e-16
3.46885e-12
-2.10565e-08
1.80359e-15
1.18708e-10
-3.50587e-08
-4.93007e-15
2.05628e-10
-4.9782e-08
-1.05558e-14
4.82678e-10
-6.70729e-08
-8.95714e-15
1.1647e-09
-8.53147e-08
-4.913e-15
1.52737e-09
-8.13852e-08
-5.18222e-15
1.65632e-09
-7.14833e-08
1.91771e-15
1.72382e-09
-8.10049e-08
4.66423e-16
1.80912e-09
-9.0755e-08
7.95421e-16
1.88986e-09
-9.82462e-08
6.465e-16
1.9599e-09
-1.03415e-07
4.14467e-16
2.01471e-09
-1.06962e-07
1.73339e-16
2.05241e-09
-1.1011e-07
-2.14514e-16
2.07021e-09
-1.13685e-07
-4.42046e-16
2.06613e-09
-1.17918e-07
-5.16957e-16
2.03863e-09
-1.22716e-07
-6.08723e-16
1.98671e-09
-1.27832e-07
-6.43622e-16
1.90965e-09
-1.32987e-07
-7.03733e-16
1.80714e-09
-1.37925e-07
-7.3848e-16
1.67921e-09
-1.42446e-07
-7.64861e-16
1.52618e-09
-1.46408e-07
-7.83627e-16
1.34866e-09
-1.49672e-07
-8.04425e-16
1.14746e-09
-1.5217e-07
-8.32913e-16
9.23702e-10
-1.53806e-07
-8.34048e-16
6.78776e-10
-1.54523e-07
-8.38877e-16
4.14494e-10
-1.5425e-07
-8.42084e-16
1.33228e-10
-1.52902e-07
-8.41347e-16
-1.6203e-10
-1.50436e-07
-8.39885e-16
-4.67378e-10
-1.46746e-07
-9.18021e-16
-7.77896e-10
-1.41771e-07
-8.00167e-16
-1.08739e-09
-1.3543e-07
-7.20776e-16
-1.3881e-09
-1.27643e-07
-6.93165e-16
-1.67032e-09
-1.18336e-07
-6.60727e-16
-1.92191e-09
-1.0744e-07
-6.23026e-16
-2.12744e-09
-9.48973e-08
-5.80319e-16
-2.26656e-09
-8.06553e-08
-5.31949e-16
-2.3121e-09
-6.46874e-08
-4.7696e-16
-2.22043e-09
-4.69847e-08
-4.1342e-16
-1.94061e-09
-2.76012e-08
-3.35377e-16
-1.24242e-09
-6.67649e-09
-2.40478e-16
-6.06299e-10
1.59611e-08
-5.85126e-17
-4.57468e-10
4.0213e-08
-2.56834e-17
-3.94432e-10
6.56303e-08
-1.69e-17
-3.6698e-10
9.20957e-08
-1.17213e-17
-3.48252e-10
1.1949e-07
-7.21457e-18
-3.31066e-10
1.47351e-07
-1.23818e-18
-3.12514e-10
1.75292e-07
-4.52022e-18
-2.91499e-10
2.02668e-07
-7.27482e-18
-2.6759e-10
2.28764e-07
-5.58104e-18
-2.40743e-10
2.52733e-07
-4.40184e-18
-2.11222e-10
2.73336e-07
-2.70156e-18
-1.79543e-10
2.89245e-07
-5.58123e-18
-1.46485e-10
2.98787e-07
-4.64811e-18
-1.1312e-10
2.99815e-07
-3.84837e-18
-8.08171e-11
2.89741e-07
-2.83492e-18
-5.12592e-11
2.65436e-07
-9.15034e-19
-2.63933e-11
2.22881e-07
-2.66733e-18
-8.42196e-12
1.57226e-07
-1.60355e-18
6.22012e-08
-3.31736e-19
8.42959e-12
-6.9044e-09
1.16337e-15
1.05037e-12
-2.10491e-08
-9.2637e-16
2.13596e-10
-3.52712e-08
-3.29582e-15
2.36777e-10
-4.98052e-08
-1.00748e-14
5.62252e-10
-6.73984e-08
-3.95026e-15
1.35451e-09
-8.6107e-08
-5.79691e-15
1.74843e-09
-8.17791e-08
-7.60817e-15
1.75376e-09
-7.14886e-08
7.64241e-16
1.82665e-09
-8.10778e-08
8.74905e-17
1.93689e-09
-9.08652e-08
1.06145e-16
2.03553e-09
-9.83448e-08
1.70515e-16
2.11445e-09
-1.03494e-07
7.94742e-17
2.17138e-09
-1.07019e-07
-1.46272e-16
2.20635e-09
-1.10145e-07
-3.15085e-16
2.21589e-09
-1.13694e-07
-3.87388e-16
2.19819e-09
-1.179e-07
-5.14784e-16
2.15304e-09
-1.22671e-07
-6.54688e-16
2.08137e-09
-1.27761e-07
-7.76925e-16
1.98425e-09
-1.3289e-07
-8.33295e-16
1.86275e-09
-1.37803e-07
-6.59873e-16
1.71774e-09
-1.42301e-07
-6.64429e-16
1.54989e-09
-1.4624e-07
-7.21876e-16
1.35979e-09
-1.49482e-07
-7.81124e-16
1.14805e-09
-1.51958e-07
-8.22454e-16
9.15411e-10
-1.53574e-07
-8.33994e-16
6.62934e-10
-1.5427e-07
-8.53508e-16
3.92094e-10
-1.53979e-07
-8.57687e-16
1.04982e-10
-1.52615e-07
-8.57121e-16
-1.95638e-10
-1.50135e-07
-8.52977e-16
-5.06045e-10
-1.46435e-07
-8.34446e-16
-8.21472e-10
-1.41455e-07
-7.14225e-16
-1.13587e-09
-1.35116e-07
-7.31249e-16
-1.44166e-09
-1.27337e-07
-7.0601e-16
-1.72941e-09
-1.18049e-07
-6.72287e-16
-1.9874e-09
-1.07182e-07
-6.33452e-16
-2.20103e-09
-9.46837e-08
-5.89164e-16
-2.35172e-09
-8.05046e-08
-5.39087e-16
-2.41624e-09
-6.46229e-08
-4.82149e-16
-2.36277e-09
-4.70382e-08
-4.16165e-16
-2.17035e-09
-2.77936e-08
-3.3565e-16
-1.83111e-09
-7.01571e-09
-2.3712e-16
-1.48609e-09
1.56161e-08
-1.16976e-16
-1.28335e-09
4.00102e-08
-7.04782e-17
-1.16449e-09
6.55114e-08
-4.84005e-17
-1.09648e-09
9.20277e-08
-3.36245e-17
-1.04412e-09
1.19438e-07
-1.96391e-17
-9.93663e-10
1.47301e-07
-2.6488e-18
-9.3845e-10
1.75237e-07
-2.23736e-17
-8.75596e-10
2.02606e-07
-3.40824e-17
-8.03939e-10
2.28692e-07
-3.08456e-17
-7.23392e-10
2.52652e-07
-2.88453e-17
-6.34762e-10
2.73247e-07
-2.45119e-17
-5.396e-10
2.8915e-07
-3.42009e-17
-4.40239e-10
2.98688e-07
-3.06789e-17
-3.39877e-10
2.99715e-07
-2.73918e-17
-2.42618e-10
2.89643e-07
-2.29739e-17
-1.53482e-10
2.65347e-07
-1.53147e-17
-7.84479e-11
2.22806e-07
-2.00152e-17
-2.42429e-11
1.57172e-07
-1.54626e-17
6.2177e-08
-1.29983e-17
7.633e-12
-6.91203e-09
1.19508e-15
1.02846e-11
-2.10518e-08
-1.03802e-15
2.80996e-10
-3.5542e-08
-8.25966e-15
2.37267e-10
-4.97614e-08
-5.03759e-15
5.83366e-10
-6.77445e-08
3.92928e-15
1.2694e-09
-8.6793e-08
7.60921e-16
1.7747e-09
-8.22844e-08
-1.47382e-15
1.88433e-09
-7.15982e-08
-1.97767e-15
1.97502e-09
-8.11684e-08
-4.11046e-16
2.07611e-09
-9.09663e-08
-2.6602e-16
2.15877e-09
-9.84275e-08
-1.7221e-16
2.22461e-09
-1.03559e-07
-3.37163e-16
2.27691e-09
-1.07072e-07
-4.45007e-16
2.3141e-09
-1.10182e-07
-4.98801e-16
2.32763e-09
-1.13708e-07
-5.57553e-16
2.31139e-09
-1.17884e-07
-5.17177e-16
2.26313e-09
-1.22623e-07
-6.87784e-16
2.18376e-09
-1.27681e-07
-7.47565e-16
2.07537e-09
-1.32781e-07
-7.21987e-16
1.94036e-09
-1.37668e-07
-7.09639e-16
1.78077e-09
-1.42142e-07
-7.30384e-16
1.59814e-09
-1.46058e-07
-7.70161e-16
1.39363e-09
-1.49278e-07
-8.21146e-16
1.1681e-09
-1.51732e-07
-8.58553e-16
9.22398e-10
-1.53328e-07
-8.6481e-16
6.57517e-10
-1.54005e-07
-8.74052e-16
3.74821e-10
-1.53696e-07
-8.7261e-16
7.62539e-11
-1.52317e-07
-8.68251e-16
-2.35572e-10
-1.49823e-07
-8.63096e-16
-5.57088e-10
-1.46114e-07
-8.7551e-16
-8.83684e-10
-1.41129e-07
-7.51004e-16
-1.20951e-09
-1.3479e-07
-7.37927e-16
-1.52723e-09
-1.2702e-07
-7.11288e-16
-1.82786e-09
-1.17748e-07
-6.77368e-16
-2.10043e-09
-1.0691e-07
-6.38623e-16
-2.33172e-09
-9.44524e-08
-5.94416e-16
-2.50593e-09
-8.03303e-08
-5.44871e-16
-2.60545e-09
-6.45233e-08
-4.88936e-16
-2.61162e-09
-4.7032e-08
-4.24914e-16
-2.52457e-09
-2.78806e-08
-3.48451e-16
-2.3821e-09
-7.15816e-09
-2.59537e-16
-2.21166e-09
1.54457e-08
-1.6499e-16
-2.04062e-09
3.98392e-08
-1.10129e-16
-1.90944e-09
6.53803e-08
-7.75354e-17
-1.81685e-09
9.19351e-08
-5.47915e-17
-1.73682e-09
1.19358e-07
-3.32713e-17
-1.65549e-09
1.4722e-07
-1.05671e-17
-1.5647e-09
1.75146e-07
-4.35306e-17
-1.46052e-09
2.02501e-07
-6.18639e-17
-1.34135e-09
2.28573e-07
-5.59178e-17
-1.20719e-09
2.52518e-07
-5.25266e-17
-1.05943e-09
2.73099e-07
-4.55757e-17
-9.00674e-10
2.88991e-07
-6.15454e-17
-7.34803e-10
2.98522e-07
-5.47912e-17
-5.67128e-10
2.99547e-07
-4.90087e-17
-4.04467e-10
2.89481e-07
-4.14881e-17
-2.55201e-10
2.65198e-07
-2.93323e-17
-1.29425e-10
2.2268e-07
-3.7302e-17
-3.88866e-11
1.57081e-07
-3.0263e-17
6.21381e-08
-2.81864e-17
8.88266e-12
-6.92091e-09
1.50577e-15
1.95684e-11
-2.10624e-08
7.0789e-16
3.31691e-10
-3.58541e-08
-6.59538e-16
2.18192e-10
-4.96479e-08
-8.08314e-15
6.1333e-10
-6.81396e-08
1.97666e-15
1.31177e-09
-8.74915e-08
-3.46154e-17
1.86536e-09
-8.2838e-08
-4.56274e-15
1.94276e-09
-7.16756e-08
-3.47898e-15
2.05427e-09
-8.128e-08
-7.97923e-16
2.17051e-09
-9.10826e-08
-6.389e-16
2.26296e-09
-9.85199e-08
-6.65384e-16
2.33661e-09
-1.03633e-07
-7.76921e-16
2.39717e-09
-1.07132e-07
-5.92482e-16
2.44268e-09
-1.10228e-07
-6.51805e-16
2.46204e-09
-1.13727e-07
-6.70135e-16
2.44675e-09
-1.17868e-07
-5.62898e-16
2.39352e-09
-1.2257e-07
-7.88153e-16
2.30371e-09
-1.27591e-07
-7.7255e-16
2.18078e-09
-1.32658e-07
-8.07061e-16
2.02874e-09
-1.37516e-07
-7.65059e-16
1.85103e-09
-1.41964e-07
-7.75098e-16
1.65018e-09
-1.45857e-07
-8.0735e-16
1.42795e-09
-1.49056e-07
-8.50444e-16
1.18546e-09
-1.5149e-07
-8.80503e-16
9.23577e-10
-1.53066e-07
-8.82811e-16
6.43185e-10
-1.53725e-07
-8.92245e-16
3.45462e-10
-1.53398e-07
-8.89353e-16
3.21514e-11
-1.52003e-07
-8.84141e-16
-2.94335e-10
-1.49497e-07
-8.78151e-16
-6.30619e-10
-1.45777e-07
-8.8742e-16
-9.72289e-10
-1.40787e-07
-7.60371e-16
-1.31373e-09
-1.34449e-07
-7.48284e-16
-1.64795e-09
-1.26685e-07
-7.20713e-16
-1.96649e-09
-1.1743e-07
-6.85947e-16
-2.25927e-09
-1.06617e-07
-6.46694e-16
-2.51466e-09
-9.4197e-08
-6.02089e-16
-2.71976e-09
-8.01252e-08
-5.52623e-16
-2.86209e-09
-6.4381e-08
-4.9749e-16
-2.93261e-09
-4.69615e-08
-4.35487e-16
-2.93956e-09
-2.78737e-08
-3.63193e-16
-2.92432e-09
-7.17336e-09
-2.82896e-16
-2.86731e-09
1.53887e-08
-2.01873e-16
-2.74765e-09
3.97196e-08
-1.43976e-16
-2.62858e-09
6.52612e-08
-1.04368e-16
-2.52527e-09
9.18318e-08
-7.52712e-17
-2.42441e-09
1.19257e-07
-4.76865e-17
-2.31545e-09
1.47111e-07
-1.92954e-17
-2.19064e-09
1.75021e-07
-6.05222e-17
-2.04591e-09
2.02357e-07
-8.35587e-17
-1.87961e-09
2.28407e-07
-7.47386e-17
-1.69198e-09
2.52331e-07
-6.99259e-17
-1.48511e-09
2.72892e-07
-6.02466e-17
-1.26268e-09
2.88769e-07
-8.29751e-17
-1.03013e-09
2.9829e-07
-7.4023e-17
-7.94886e-10
2.99312e-07
-6.65297e-17
-5.66485e-10
2.89252e-07
-5.68377e-17
-3.56702e-10
2.64988e-07
-4.08869e-17
-1.79871e-10
2.22503e-07
-5.33678e-17
-5.31032e-11
1.56954e-07
-4.50259e-17
6.2085e-08
-4.32972e-17
9.58475e-12
-6.93049e-09
1.48951e-15
2.90725e-11
-2.10819e-08
-2.49104e-15
3.46855e-10
-3.6172e-08
-2.06508e-15
1.61719e-10
-4.94627e-08
-1.13755e-14
6.0588e-10
-6.85838e-08
3.62068e-15
1.2927e-09
-8.81783e-08
2.46971e-15
1.91788e-09
-8.34632e-08
-3.62759e-15
2.00965e-09
-7.17674e-08
-1.53065e-15
2.11982e-09
-8.13901e-08
-9.34515e-16
2.23756e-09
-9.12003e-08
-8.83762e-16
2.33339e-09
-9.86158e-08
-9.264e-16
2.41174e-09
-1.03711e-07
-1.01246e-15
2.47896e-09
-1.07199e-07
-7.86983e-16
2.53265e-09
-1.10281e-07
-8.86923e-16
2.56025e-09
-1.13755e-07
-8.22954e-16
2.55089e-09
-1.17859e-07
-7.28433e-16
2.49937e-09
-1.22518e-07
-9.30334e-16
2.40622e-09
-1.27498e-07
-8.1169e-16
2.27514e-09
-1.32527e-07
-9.18065e-16
2.11101e-09
-1.37352e-07
-8.59409e-16
1.91839e-09
-1.41771e-07
-8.49849e-16
1.70085e-09
-1.45639e-07
-8.73033e-16
1.46096e-09
-1.48816e-07
-9.0699e-16
1.20039e-09
-1.51229e-07
-9.2602e-16
9.20327e-10
-1.52786e-07
-9.16427e-16
6.21776e-10
-1.53426e-07
-9.18211e-16
3.05917e-10
-1.53082e-07
-9.10566e-16
-2.55808e-11
-1.51672e-07
-9.02822e-16
-3.70422e-10
-1.49152e-07
-8.95746e-16
-7.25367e-10
-1.45422e-07
-9.05755e-16
-1.08618e-09
-1.40426e-07
-7.73345e-16
-1.44748e-09
-1.34088e-07
-7.60454e-16
-1.80262e-09
-1.2633e-07
-7.32118e-16
-2.14368e-09
-1.17088e-07
-6.96497e-16
-2.46151e-09
-1.06299e-07
-6.56682e-16
-2.74602e-09
-9.39125e-08
-6.11592e-16
-2.98682e-09
-7.98844e-08
-5.62059e-16
-3.17529e-09
-6.41925e-08
-5.07539e-16
-3.30803e-09
-4.68288e-08
-4.47359e-16
-3.39446e-09
-2.77873e-08
-3.78674e-16
-3.46639e-09
-7.10139e-09
-3.04384e-16
-3.48748e-09
1.54098e-08
-2.31566e-16
-3.42162e-09
3.96538e-08
-1.73256e-16
-3.32597e-09
6.51656e-08
-1.29052e-16
-3.22183e-09
9.17276e-08
-9.48795e-17
-3.10623e-09
1.19141e-07
-6.23235e-17
-2.97296e-09
1.46977e-07
-2.87134e-17
-2.8159e-09
1.74864e-07
-7.01019e-17
-2.63153e-09
2.02172e-07
-9.42849e-17
-2.41856e-09
2.28194e-07
-8.09897e-17
-2.17768e-09
2.5209e-07
-7.40375e-17
-1.91173e-09
2.72626e-07
-6.16344e-17
-1.62556e-09
2.88483e-07
-9.14445e-17
-1.32618e-09
2.9799e-07
-8.08769e-17
-1.02315e-09
2.99009e-07
-7.26411e-17
-7.28725e-10
2.88958e-07
-6.20083e-17
-4.58126e-10
2.64717e-07
-4.37614e-17
-2.30024e-10
2.22275e-07
-6.22421e-17
-6.70974e-11
1.56791e-07
-5.38867e-17
6.20179e-08
-5.2451e-17
1.0129e-11
-6.94061e-09
1.81629e-15
4.04978e-11
-2.11123e-08
-1.18925e-15
3.3282e-10
-3.64643e-08
6.8234e-16
9.66819e-11
-4.92266e-08
-1.27282e-14
5.9498e-10
-6.90821e-08
1.29519e-15
1.27985e-09
-8.88632e-08
-1.99515e-16
1.95519e-09
-8.41385e-08
-2.8777e-15
2.03808e-09
-7.18503e-08
-5.89221e-16
2.15352e-09
-8.15056e-08
-1.40909e-15
2.27931e-09
-9.13261e-08
-1.24418e-15
2.38529e-09
-9.87217e-08
-1.216e-15
2.47355e-09
-1.038e-07
-1.28175e-15
2.5496e-09
-1.07275e-07
-1.01723e-15
2.61065e-09
-1.10342e-07
-1.08311e-15
2.64409e-09
-1.13788e-07
-9.62635e-16
2.63828e-09
-1.17853e-07
-8.87265e-16
2.58707e-09
-1.22467e-07
-1.09677e-15
2.4904e-09
-1.27402e-07
-9.17097e-16
2.35195e-09
-1.32389e-07
-1.03151e-15
2.17705e-09
-1.37177e-07
-9.35492e-16
1.97092e-09
-1.41565e-07
-8.97822e-16
1.73786e-09
-1.45406e-07
-9.10591e-16
1.48104e-09
-1.48559e-07
-9.39154e-16
1.20255e-09
-1.50951e-07
-9.57008e-16
9.03853e-10
-1.52487e-07
-9.43963e-16
5.861e-10
-1.53109e-07
-9.44429e-16
2.50517e-10
-1.52747e-07
-9.34782e-16
-1.01238e-10
-1.5132e-07
-9.25375e-16
-4.66922e-10
-1.48786e-07
-9.17094e-16
-8.43373e-10
-1.45046e-07
-9.2659e-16
-1.22647e-09
-1.40043e-07
-7.88221e-16
-1.61102e-09
-1.33703e-07
-7.74569e-16
-1.99067e-09
-1.25951e-07
-7.45306e-16
-2.358e-09
-1.16721e-07
-7.08646e-16
-2.70466e-09
-1.05952e-07
-6.68138e-16
-3.02183e-09
-9.35953e-08
-6.22461e-16
-3.30107e-09
-7.96052e-08
-5.72745e-16
-3.53623e-09
-6.39574e-08
-5.18709e-16
-3.72644e-09
-4.66385e-08
-4.60184e-16
-3.87906e-09
-2.76346e-08
-3.94646e-16
-4.01384e-09
-6.96656e-09
-3.24889e-16
-4.09198e-09
1.54879e-08
-2.5714e-16
-4.07544e-09
3.96373e-08
-1.99133e-16
-4.00709e-09
6.50973e-08
-1.51805e-16
-3.90821e-09
9.16287e-08
-1.13683e-16
-3.78257e-09
1.19016e-07
-7.731e-17
-3.62794e-09
1.46823e-07
-3.86771e-17
-3.44034e-09
1.74677e-07
-7.54369e-17
-3.21728e-09
2.01949e-07
-9.84436e-17
-2.95813e-09
2.27935e-07
-7.91599e-17
-2.6642e-09
2.51796e-07
-6.8842e-17
-2.33924e-09
2.72301e-07
-5.28605e-17
-1.98927e-09
2.88133e-07
-8.92609e-17
-1.62293e-09
2.97624e-07
-7.69563e-17
-1.25191e-09
2.98638e-07
-6.82631e-17
-8.91231e-10
2.88597e-07
-5.73657e-17
-5.59575e-10
2.64386e-07
-3.78599e-17
-2.80042e-10
2.21995e-07
-6.34886e-17
-8.09754e-11
1.56592e-07
-5.6094e-17
6.19369e-08
-5.57587e-17
1.06091e-11
-6.95122e-09
1.62016e-15
5.01541e-11
-2.11519e-08
-2.76929e-15
2.82869e-10
-3.6697e-08
-6.41414e-16
2.251e-11
-4.89662e-08
-1.2521e-14
5.67478e-10
-6.9627e-08
1.97473e-15
1.25246e-09
-8.95482e-08
2.88717e-15
1.97365e-09
-8.48597e-08
-4.75834e-16
2.06739e-09
-7.19441e-08
-1.01813e-15
2.18103e-09
-8.16192e-08
-1.85623e-15
2.30842e-09
-9.14535e-08
-1.65274e-15
2.41939e-09
-9.88327e-08
-1.60799e-15
2.51313e-09
-1.03893e-07
-1.61374e-15
2.59393e-09
-1.07356e-07
-1.30125e-15
2.65869e-09
-1.10407e-07
-1.30255e-15
2.69535e-09
-1.13825e-07
-1.14218e-15
2.69196e-09
-1.1785e-07
-1.032e-15
2.64166e-09
-1.22417e-07
-1.22042e-15
2.5435e-09
-1.27303e-07
-9.9469e-16
2.40059e-09
-1.32246e-07
-1.09902e-15
2.2181e-09
-1.36995e-07
-1.06901e-15
2.00144e-09
-1.41349e-07
-1.02437e-15
1.75527e-09
-1.4516e-07
-1.00924e-15
1.48318e-09
-1.48287e-07
-1.00715e-15
1.18767e-09
-1.50655e-07
-1.00627e-15
8.70492e-10
-1.5217e-07
-9.79314e-16
5.33017e-10
-1.52771e-07
-9.73224e-16
1.76603e-10
-1.5239e-07
-9.60205e-16
-1.97012e-10
-1.50946e-07
-9.49009e-16
-5.85555e-10
-1.48398e-07
-9.39828e-16
-9.85868e-10
-1.44646e-07
-9.49085e-16
-1.39387e-09
-1.39635e-07
-8.04691e-16
-1.80449e-09
-1.33292e-07
-7.90244e-16
-2.21159e-09
-1.25544e-07
-7.60017e-16
-2.60814e-09
-1.16325e-07
-7.2221e-16
-2.98642e-09
-1.05574e-07
-6.80876e-16
-3.33855e-09
-9.32432e-08
-6.34506e-16
-3.65738e-09
-7.92863e-08
-5.84471e-16
-3.93808e-09
-6.36767e-08
-5.30726e-16
-4.18025e-09
-4.63964e-08
-4.73573e-16
-4.38801e-09
-2.74269e-08
-4.10629e-16
-4.57082e-09
-6.78369e-09
-3.44262e-16
-4.69281e-09
1.56099e-08
-2.79688e-16
-4.7188e-09
3.96633e-08
-2.22059e-16
-4.67746e-09
6.50559e-08
-1.72565e-16
-4.58691e-09
9.15382e-08
-1.31366e-16
-4.45438e-09
1.18883e-07
-9.21262e-17
-4.28071e-09
1.46649e-07
-4.90928e-17
-4.06405e-09
1.7446e-07
-7.81313e-17
-3.80317e-09
2.01688e-07
-9.88177e-17
-3.49829e-09
2.2763e-07
-7.2897e-17
-3.15152e-09
2.51449e-07
-5.84454e-17
-2.7676e-09
2.71917e-07
-3.82489e-17
-2.35379e-09
2.87719e-07
-8.07616e-17
-1.92037e-09
2.97191e-07
-6.64305e-17
-1.48119e-09
2.98199e-07
-5.71997e-17
-1.05404e-09
2.8817e-07
-4.61621e-17
-6.61134e-10
2.63993e-07
-2.58731e-17
-3.30042e-10
2.21664e-07
-5.86908e-17
-9.48225e-11
1.56357e-07
-5.27328e-17
6.18421e-08
-5.34955e-17
1.10863e-11
-6.9623e-09
1.73826e-15
5.89501e-11
-2.11997e-08
-1.11218e-15
2.09103e-10
-3.68471e-08
-4.19962e-15
-4.01297e-11
-4.8717e-08
-1.44053e-14
5.37443e-10
-7.02046e-08
3.65004e-15
1.22292e-09
-9.02336e-08
3.65617e-15
1.96883e-09
-8.56056e-08
-3.098e-15
2.07605e-09
-7.20513e-08
-2.48185e-15
2.19261e-09
-8.17358e-08
-2.80116e-15
2.32265e-09
-9.15835e-08
-2.14184e-15
2.43805e-09
-9.89481e-08
-2.10899e-15
2.53584e-09
-1.03991e-07
-2.01601e-15
2.61917e-09
-1.0744e-07
-1.66494e-15
2.68473e-09
-1.10473e-07
-1.6346e-15
2.7214e-09
-1.13862e-07
-1.41437e-15
2.7176e-09
-1.17846e-07
-1.22716e-15
2.66632e-09
-1.22365e-07
-1.37709e-15
2.566e-09
-1.27203e-07
-1.12557e-15
2.41915e-09
-1.32099e-07
-1.20932e-15
2.23046e-09
-1.36806e-07
-1.11703e-15
2.00513e-09
-1.41123e-07
-1.05617e-15
1.74778e-09
-1.44903e-07
-1.0488e-15
1.46214e-09
-1.48001e-07
-1.05041e-15
1.15087e-09
-1.50344e-07
-1.05192e-15
8.15917e-10
-1.51835e-07
-1.02122e-15
4.58826e-10
-1.52414e-07
-1.01161e-15
8.1114e-11
-1.52013e-07
-9.94562e-16
-3.15351e-10
-1.5055e-07
-9.79682e-16
-7.28189e-10
-1.47985e-07
-9.67796e-16
-1.15416e-09
-1.4422e-07
-9.75578e-16
-1.58914e-09
-1.392e-07
-8.23949e-16
-2.02808e-09
-1.32853e-07
-8.07872e-16
-2.46495e-09
-1.25107e-07
-7.7621e-16
-2.89295e-09
-1.15897e-07
-7.36991e-16
-3.30479e-09
-1.05162e-07
-6.94691e-16
-3.69319e-09
-9.28548e-08
-6.47501e-16
-4.0517e-09
-7.89278e-08
-5.97023e-16
-4.3759e-09
-6.33525e-08
-5.4337e-16
-4.6647e-09
-4.61075e-08
-4.87263e-16
-4.91886e-09
-2.71727e-08
-4.26309e-16
-5.14023e-09
-6.56227e-09
-3.62341e-16
-5.29722e-09
1.57669e-08
-2.99686e-16
-5.3588e-09
3.97249e-08
-2.42317e-16
-5.34201e-09
6.50392e-08
-1.91186e-16
-5.26065e-09
9.14568e-08
-1.47564e-16
-5.12299e-09
1.18746e-07
-1.06122e-16
-4.9319e-09
1.46458e-07
-5.94662e-17
-4.68732e-09
1.74216e-07
-8.1338e-17
-4.38931e-09
2.01391e-07
-1.00089e-16
-4.03909e-09
2.2728e-07
-6.73996e-17
-3.63966e-09
2.5105e-07
-4.80756e-17
-3.19681e-09
2.71475e-07
-2.27358e-17
-2.71909e-09
2.87241e-07
-7.04567e-17
-2.21848e-09
2.9669e-07
-5.33212e-17
-1.71098e-09
2.97691e-07
-4.29475e-17
-1.2172e-09
2.87676e-07
-3.13718e-17
-7.62865e-10
2.63538e-07
-9.98386e-18
-3.801e-10
2.21282e-07
-4.9925e-17
-1.08688e-10
1.56086e-07
-4.49879e-17
6.17334e-08
-4.68678e-17
1.16325e-11
-6.97393e-09
1.92341e-15
6.40707e-11
-2.12522e-08
-1.81147e-15
1.17308e-10
-3.69004e-08
-6.29256e-15
-8.85964e-11
-4.85111e-08
-1.06174e-14
5.02205e-10
-7.07954e-08
5.55951e-15
1.1896e-09
-9.0921e-08
1.84749e-15
1.94536e-09
-8.63613e-08
1.49914e-17
2.07722e-09
-7.21831e-08
-2.15597e-15
2.19566e-09
-8.18542e-08
-3.56451e-15
2.32488e-09
-9.17127e-08
-2.79643e-15
2.44017e-09
-9.90634e-08
-2.71457e-15
2.53741e-09
-1.04088e-07
-2.60292e-15
2.61909e-09
-1.07521e-07
-2.12812e-15
2.68195e-09
-1.10535e-07
-2.03978e-15
2.71589e-09
-1.13896e-07
-1.73173e-15
2.70986e-09
-1.1784e-07
-1.39764e-15
2.6568e-09
-1.22312e-07
-1.53705e-15
2.55453e-09
-1.27101e-07
-1.22799e-15
2.40479e-09
-1.31949e-07
-1.27377e-15
2.21154e-09
-1.36613e-07
-1.21227e-15
1.97947e-09
-1.40891e-07
-1.13749e-15
1.71289e-09
-1.44636e-07
-1.11361e-15
1.41538e-09
-1.47704e-07
-1.09961e-15
1.08963e-09
-1.50018e-07
-1.09355e-15
7.37703e-10
-1.51483e-07
-1.05665e-15
3.6127e-10
-1.52038e-07
-1.04407e-15
-3.79772e-11
-1.51614e-07
-1.02522e-15
-4.57994e-10
-1.5013e-07
-1.00869e-15
-8.9623e-10
-1.47547e-07
-9.95769e-16
-1.34928e-09
-1.43767e-07
-1.00425e-15
-1.8129e-09
-1.38736e-07
-8.43938e-16
-2.28193e-09
-1.32384e-07
-8.26497e-16
-2.75035e-09
-1.24638e-07
-7.93421e-16
-3.21144e-09
-1.15435e-07
-7.52708e-16
-3.65811e-09
-1.04716e-07
-7.09312e-16
-4.08334e-09
-9.24296e-08
-6.61207e-16
-4.4809e-09
-7.85302e-08
-6.10161e-16
-4.8462e-09
-6.29872e-08
-5.56428e-16
-5.17684e-09
-4.57769e-08
-5.01067e-16
-5.47062e-09
-2.68789e-08
-4.41575e-16
-5.72406e-09
-6.30876e-09
-3.79194e-16
-5.90975e-09
1.59526e-08
-3.17573e-16
-6.00061e-09
3.98159e-08
-2.60201e-16
-6.00494e-09
6.50436e-08
-2.07718e-16
-5.93212e-09
9.1384e-08
-1.62088e-16
-5.78995e-09
1.18603e-07
-1.18881e-16
-5.58232e-09
1.4625e-07
-6.90451e-17
-5.31056e-09
1.73944e-07
-8.59156e-17
-4.97593e-09
2.01056e-07
-1.04055e-16
-4.58064e-09
2.26884e-07
-6.53092e-17
-4.12866e-09
2.50598e-07
-4.11694e-17
-3.62687e-09
2.70973e-07
-1.04214e-17
-3.08519e-09
2.867e-07
-6.28919e-17
-2.51725e-09
2.96122e-07
-4.24045e-17
-1.9413e-09
2.97115e-07
-3.02671e-17
-1.38071e-09
2.87116e-07
-1.74384e-17
-8.64812e-10
2.63023e-07
5.64553e-18
-4.30272e-10
2.20847e-07
-4.03376e-17
-1.22606e-10
1.55778e-07
-3.57357e-17
6.16108e-08
-3.80571e-17
1.22946e-11
-6.98622e-09
1.57893e-15
6.51475e-11
-2.1305e-08
-4.77824e-16
2.18178e-11
-3.68571e-08
-8.00536e-15
-1.14807e-10
-4.83744e-08
-8.01828e-15
4.67273e-10
-7.13775e-08
3.78205e-15
1.15536e-09
-9.16091e-08
-2.95547e-15
1.90379e-09
-8.71097e-08
1.51658e-15
2.0613e-09
-7.23406e-08
-4.57751e-15
2.18325e-09
-8.19761e-08
-4.94662e-15
2.31084e-09
-9.18403e-08
-3.80352e-15
2.4235e-09
-9.91761e-08
-3.45291e-15
2.51729e-09
-1.04182e-07
-3.31267e-15
2.5945e-09
-1.07598e-07
-2.68155e-15
2.65221e-09
-1.10593e-07
-2.43989e-15
2.68132e-09
-1.13925e-07
-2.08974e-15
2.67144e-09
-1.1783e-07
-1.62194e-15
2.61556e-09
-1.22257e-07
-1.83378e-15
2.51099e-09
-1.26996e-07
-1.48231e-15
2.35869e-09
-1.31797e-07
-1.4393e-15
2.16178e-09
-1.36416e-07
-1.30153e-15
1.92421e-09
-1.40654e-07
-1.20676e-15
1.64977e-09
-1.44362e-07
-1.18205e-15
1.34171e-09
-1.47396e-07
-1.16242e-15
1.00255e-09
-1.49679e-07
-1.15218e-15
6.34333e-10
-1.51115e-07
-1.10826e-15
2.38837e-10
-1.51642e-07
-1.08978e-15
-1.82096e-10
-1.51193e-07
-1.06558e-15
-6.26214e-10
-1.49686e-07
-1.04423e-15
-1.09074e-09
-1.47082e-07
-1.02751e-15
-1.57203e-09
-1.43285e-07
-1.03106e-15
-2.06561e-09
-1.38243e-07
-8.63439e-16
-2.56615e-09
-1.31884e-07
-8.45984e-16
-3.06747e-09
-1.24137e-07
-8.11467e-16
-3.5628e-09
-1.1494e-07
-7.69096e-16
-4.04502e-09
-1.04233e-07
-7.245e-16
-4.5071e-09
-9.19675e-08
-6.75377e-16
-4.94268e-09
-7.80946e-08
-6.23668e-16
-5.34658e-09
-6.25833e-08
-5.69705e-16
-5.71492e-09
-4.54085e-08
-5.14845e-16
-6.04299e-09
-2.65509e-08
-4.56383e-16
-6.32379e-09
-6.02789e-09
-3.94986e-16
-6.53337e-09
1.61622e-08
-3.33757e-16
-6.648e-09
3.99306e-08
-2.76112e-16
-6.66968e-09
6.50653e-08
-2.22376e-16
-6.6038e-09
9.13182e-08
-1.74983e-16
-6.45681e-09
1.18457e-07
-1.30154e-16
-6.23289e-09
1.46027e-07
-7.77219e-17
-5.9343e-09
1.73645e-07
-9.24266e-17
-5.5633e-09
2.00685e-07
-1.11762e-16
-5.12308e-09
2.26444e-07
-6.76934e-17
-4.61858e-09
2.50093e-07
-3.89495e-17
-4.05782e-09
2.70412e-07
-2.61711e-18
-3.45207e-09
2.86094e-07
-5.94539e-17
-2.8167e-09
2.95487e-07
-3.50817e-17
-2.17213e-09
2.96471e-07
-2.05637e-17
-1.5446e-09
2.86488e-07
-5.77655e-18
-9.67008e-10
2.62445e-07
1.99926e-17
-4.80595e-10
2.20361e-07
-3.16644e-17
-1.36596e-10
1.55434e-07
-2.60389e-17
6.14742e-08
-2.81494e-17
1.30419e-11
-6.99926e-09
1.94988e-15
6.19018e-11
-2.13539e-08
-3.54623e-16
-6.38302e-11
-3.67314e-08
-1.25023e-14
-1.226e-10
-4.83156e-08
-1.9237e-15
4.31598e-10
-7.19317e-08
5.11149e-15
1.11919e-09
-9.22968e-08
-4.13967e-15
1.85038e-09
-8.78409e-08
3.88108e-15
2.03166e-09
-7.25219e-08
2.51931e-15
2.15511e-09
-8.20996e-08
-5.04871e-15
2.27847e-09
-9.19637e-08
-4.85516e-15
2.385e-09
-9.92826e-08
-4.43892e-15
2.47205e-09
-1.04269e-07
-4.10528e-15
2.54207e-09
-1.07668e-07
-3.36896e-15
2.59275e-09
-1.10644e-07
-2.89421e-15
2.61584e-09
-1.13948e-07
-2.46075e-15
2.60151e-09
-1.17816e-07
-1.86597e-15
2.54269e-09
-1.22198e-07
-2.04503e-15
2.43613e-09
-1.2689e-07
-1.62363e-15
2.28192e-09
-1.31643e-07
-1.55307e-15
2.08227e-09
-1.36216e-07
-1.4299e-15
1.84028e-09
-1.40412e-07
-1.31183e-15
1.55904e-09
-1.44081e-07
-1.26223e-15
1.24136e-09
-1.47078e-07
-1.22059e-15
8.89503e-10
-1.49327e-07
-1.19872e-15
5.0542e-10
-1.50731e-07
-1.14742e-15
9.09354e-11
-1.51228e-07
-1.12528e-15
-3.51947e-10
-1.5075e-07
-1.09909e-15
-8.20743e-10
-1.49217e-07
-1.07582e-15
-1.31239e-09
-1.4659e-07
-1.05756e-15
-1.82295e-09
-1.42775e-07
-1.05923e-15
-2.34762e-09
-1.37718e-07
-8.87386e-16
-2.8808e-09
-1.31351e-07
-8.66384e-16
-3.41605e-09
-1.23602e-07
-8.30017e-16
-3.94637e-09
-1.1441e-07
-7.85904e-16
-4.46446e-09
-1.03715e-07
-7.40012e-16
-4.96305e-09
-9.14689e-08
-6.898e-16
-5.43537e-09
-7.76223e-08
-6.37327e-16
-5.87544e-09
-6.21432e-08
-5.83019e-16
-6.2779e-09
-4.5006e-08
-5.28459e-16
-6.63604e-09
-2.61927e-08
-4.70713e-16
-6.94051e-09
-5.72333e-09
-4.09871e-16
-7.17009e-09
1.63918e-08
-3.48609e-16
-7.30373e-09
4.00643e-08
-2.90458e-16
-7.33898e-09
6.51006e-08
-2.35499e-16
-7.27786e-09
9.1257e-08
-1.86438e-16
-7.12509e-09
1.18304e-07
-1.40012e-16
-6.88458e-09
1.45786e-07
-8.51258e-17
-6.55912e-09
1.7332e-07
-1.00551e-16
-6.15176e-09
2.00278e-07
-1.2283e-16
-5.6666e-09
2.25959e-07
-7.45137e-17
-5.10952e-09
2.49536e-07
-4.18742e-17
-4.48969e-09
2.69792e-07
-3.3334e-19
-3.81975e-09
2.85424e-07
-6.16318e-17
-3.1168e-09
2.94784e-07
-3.32166e-17
-2.40349e-09
2.95758e-07
-1.59348e-17
-1.70888e-09
2.85793e-07
1.42536e-18
-1.06947e-09
2.61806e-07
3.07093e-17
-5.31089e-10
2.19822e-07
-2.52839e-17
-1.50667e-10
1.55054e-07
-1.79091e-17
6.13236e-08
-1.90544e-17
1.37805e-11
-7.01305e-09
1.39636e-15
5.70345e-11
-2.13971e-08
9.47985e-16
-1.24358e-10
-3.655e-08
-1.13744e-14
-1.19705e-10
-4.83203e-08
-4.09918e-15
3.96196e-10
-7.24475e-08
5.09254e-15
1.08028e-09
-9.29808e-08
-1.47873e-15
1.78935e-09
-8.85499e-08
-2.43239e-15
1.98421e-09
-7.27168e-08
-9.4717e-15
2.10644e-09
-8.22218e-08
-5.3724e-15
2.22325e-09
-9.20805e-08
-5.43912e-15
2.32118e-09
-9.93805e-08
-5.31812e-15
2.39959e-09
-1.04348e-07
-4.78036e-15
2.46118e-09
-1.0773e-07
-4.01368e-15
2.50426e-09
-1.10687e-07
-3.4547e-15
2.52121e-09
-1.13965e-07
-2.84842e-15
2.5026e-09
-1.17797e-07
-2.19721e-15
2.44118e-09
-1.22136e-07
-2.27865e-15
2.33311e-09
-1.26782e-07
-1.79442e-15
2.17757e-09
-1.31487e-07
-1.6948e-15
1.9758e-09
-1.36015e-07
-1.53714e-15
1.73e-09
-1.40166e-07
-1.39366e-15
1.44253e-09
-1.43793e-07
-1.33481e-15
1.11567e-09
-1.46751e-07
-1.28378e-15
7.51349e-10
-1.48963e-07
-1.25641e-15
3.51394e-10
-1.50331e-07
-1.19831e-15
-8.23367e-11
-1.50794e-07
-1.17054e-15
-5.47675e-10
-1.50284e-07
-1.13942e-15
-1.04187e-09
-1.48723e-07
-1.11168e-15
-1.56154e-09
-1.46071e-07
-1.0901e-15
-2.10235e-09
-1.42234e-07
-1.0889e-15
-2.65913e-09
-1.37161e-07
-9.10936e-16
-3.2259e-09
-1.30784e-07
-8.87171e-16
-3.79585e-09
-1.23032e-07
-8.4883e-16
-4.36164e-09
-1.13844e-07
-8.02871e-16
-4.91562e-09
-1.03161e-07
-7.55632e-16
-5.45012e-09
-9.09344e-08
-7.04266e-16
-5.95778e-09
-7.71146e-08
-6.50968e-16
-6.43173e-09
-6.16693e-08
-5.96209e-16
-6.86522e-09
-4.45725e-08
-5.41782e-16
-7.24994e-09
-2.5808e-08
-4.84513e-16
-7.57504e-09
-5.39815e-09
-4.23949e-16
-7.82134e-09
1.66381e-08
-3.62388e-16
-7.96984e-09
4.02128e-08
-3.0358e-16
-8.01503e-09
6.51458e-08
-2.47394e-16
-7.95619e-09
9.11982e-08
-1.96708e-16
-7.79617e-09
1.18144e-07
-1.48566e-16
-7.53832e-09
1.45528e-07
-9.14223e-17
-7.1856e-09
1.72967e-07
-1.09468e-16
-6.74167e-09
1.99834e-07
-1.35982e-16
-6.2114e-09
2.25429e-07
-8.4221e-17
-5.60159e-09
2.48927e-07
-4.83245e-17
-4.92253e-09
2.69113e-07
-1.97805e-18
-4.18825e-09
2.8469e-07
-6.79531e-17
-3.41757e-09
2.94013e-07
-3.55083e-17
-2.63537e-09
2.94975e-07
-1.53185e-17
-1.87355e-09
2.85032e-07
4.96673e-18
-1.17222e-09
2.61104e-07
3.83465e-17
-5.81765e-10
2.19232e-07
-2.1137e-17
-1.64824e-10
1.54637e-07
-1.12994e-17
6.11587e-08
-1.08784e-17
1.44018e-11
-7.02745e-09
1.44981e-15
5.27084e-11
-2.14355e-08
7.00111e-16
-1.58309e-10
-3.6339e-08
-1.47559e-14
-1.21201e-10
-4.83574e-08
-7.30733e-16
3.56967e-10
-7.29257e-08
3.46675e-15
1.03586e-09
-9.36597e-08
-1.35815e-15
1.72356e-09
-8.92377e-08
-3.43996e-15
1.92052e-09
-7.29137e-08
-6.27894e-15
2.03598e-09
-8.23373e-08
-5.93264e-15
2.14284e-09
-9.21874e-08
-6.50935e-15
2.22964e-09
-9.94673e-08
-6.33697e-15
2.29805e-09
-1.04416e-07
-5.53649e-15
2.35088e-09
-1.07783e-07
-4.67694e-15
2.38683e-09
-1.10723e-07
-3.8777e-15
2.39855e-09
-1.13977e-07
-3.19049e-15
2.37676e-09
-1.17775e-07
-2.46752e-15
2.31382e-09
-1.22073e-07
-2.49269e-15
2.20516e-09
-1.26673e-07
-1.93301e-15
2.04903e-09
-1.31331e-07
-1.81724e-15
1.84569e-09
-1.35811e-07
-1.65786e-15
1.59642e-09
-1.39917e-07
-1.48395e-15
1.30286e-09
-1.43499e-07
-1.40064e-15
9.66733e-10
-1.46415e-07
-1.33249e-15
5.89659e-10
-1.48586e-07
-1.29772e-15
1.73337e-10
-1.49915e-07
-1.23505e-15
-2.80326e-10
-1.5034e-07
-1.20491e-15
-7.68968e-10
-1.49796e-07
-1.1723e-15
-1.28954e-09
-1.48202e-07
-1.14284e-15
-1.83826e-09
-1.45522e-07
-1.11986e-15
-2.41038e-09
-1.41662e-07
-1.11702e-15
-3.00026e-09
-1.36571e-07
-9.3353e-16
-3.60146e-09
-1.30183e-07
-9.07751e-16
-4.20672e-09
-1.22426e-07
-8.67552e-16
-4.80824e-09
-1.13243e-07
-8.19783e-16
-5.39793e-09
-1.02572e-07
-7.71166e-16
-5.96757e-09
-9.03648e-08
-7.18619e-16
-6.50912e-09
-7.6573e-08
-6.64422e-16
-7.0148e-09
-6.11636e-08
-6.09131e-16
-7.47659e-09
-4.41107e-08
-5.54683e-16
-7.88495e-09
-2.53997e-08
-4.97712e-16
-8.22801e-09
-5.05499e-09
-4.37249e-16
-8.48813e-09
1.68983e-08
-3.75243e-16
-8.64783e-09
4.03726e-08
-3.15695e-16
-8.69953e-09
6.51976e-08
-2.58293e-16
-8.64032e-09
9.1139e-08
-2.05989e-16
-8.47129e-09
1.17975e-07
-1.56031e-16
-8.19499e-09
1.45252e-07
-9.64082e-17
-7.81434e-09
1.72587e-07
-1.1863e-16
-7.33339e-09
1.99353e-07
-1.50151e-16
-6.75768e-09
2.24853e-07
-9.58024e-17
-6.09488e-09
2.48264e-07
-5.74324e-17
-5.35639e-09
2.68375e-07
-6.90911e-18
-4.55757e-09
2.83891e-07
-7.80261e-17
-3.719e-09