/*--------------------------------*- C++ -*----------------------------------*\
| =========                 |                                                 |
| \\      /  F ield         | OpenFOAM: The Open Source CFD Toolbox           |
|  \\    /   O peration     | Version:  v2006                                 |
|   \\  /    A nd           | Website:  www.openfoam.com                      |
|    \\/     M anipulation  |                                                 |
\*---------------------------------------------------------------------------*/
FoamFile
{
    version     2.0;
    format      ascii;
    class       surfaceScalarField;
    location    "0.01";
    object      phi;
}
// * * * * * * * * * * * * * * * * * * * * * * * * * * * * * * * * * * * * * //

dimensions      [0 3 -1 0 0 0 0];
oriented        oriented;


internalField   nonuniform List<scalar> 
5860
(
-1.00431e-08
3.89446e-09
6.14866e-09
6.47869e-10
-1.05124e-08
6.51241e-10
9.21349e-09
-1.37611e-08
1.7783e-09
1.19829e-08
-4.8301e-08
3.71419e-08
1.11184e-08
4.05368e-11
-1.8507e-09
-1.01323e-08
1.1983e-08
9.24034e-09
1.84349e-09
-6.93163e-09
-4.15223e-09
9.28891e-08
-2.90221e-08
-6.38671e-08
4.49277e-09
7.92178e-11
-2.03854e-09
-2.53361e-09
-2.62437e-09
-5.54745e-10
3.17903e-09
9.2527e-10
4.36642e-11
-1.07466e-09
1.05642e-10
1.00018e-07
1.10386e-07
-2.10404e-07
2.98996e-09
-2.06475e-09
-1.69181e-09
1.73542e-09
-1.32625e-09
-3.86974e-09
-1.14393e-08
5.4922e-09
9.81684e-09
-3.18695e-10
-3.55105e-09
-1.80677e-09
-2.09354e-09
3.90032e-09
9.87124e-09
-7.20381e-09
-2.66745e-09
4.17096e-09
-1.26202e-08
8.44922e-09
-2.15284e-08
1.51836e-08
6.3447e-09
-5.47635e-09
1.3461e-09
-1.67172e-09
5.80199e-09
8.76718e-10
-1.71419e-08
1.62652e-08
-1.56623e-08
-1.80289e-08
1.01221e-08
2.35687e-08
-1.91001e-08
2.24441e-07
-2.05342e-07
5.89807e-07
-5.59257e-07
-3.05507e-08
-7.86619e-08
1.61326e-08
6.85572e-08
-6.03437e-09
2.96435e-09
-2.40059e-09
-5.63739e-10
-4.58926e-07
-8.56424e-09
4.6749e-07
-2.74616e-08
1.17993e-08
8.50868e-09
-2.65376e-08
-6.63199e-09
-7.34048e-08
1.75585e-08
5.58454e-08
4.26484e-08
-2.46038e-07
2.03389e-07
1.58103e-07
-2.09183e-07
5.1079e-08
1.09325e-07
-1.20294e-07
1.09695e-08
-5.14819e-08
2.07147e-08
-1.65826e-08
-3.48994e-08
-2.40978e-09
2.40976e-09
-9.41368e-08
1.18142e-07
1.63582e-08
-4.03638e-08
2.19517e-09
-2.63933e-09
-1.17857e-09
1.62269e-09
-9.92843e-08
5.14748e-09
-4.40036e-07
5.40054e-07
-1.34957e-08
1.95414e-08
-6.04571e-09
1.54692e-09
-3.67653e-09
2.12963e-09
-4.02191e-09
6.16352e-09
-2.14158e-09
-1.0792e-07
2.82395e-09
1.05096e-07
-1.73265e-08
7.13651e-09
1.019e-08
2.32511e-08
-4.78377e-07
4.55125e-07
1.02217e-08
2.7862e-08
-1.94604e-07
1.66746e-07
7.04394e-09
-6.51409e-10
-6.39245e-09
7.21449e-08
4.76123e-09
-7.69066e-08
-4.78218e-08
-1.5572e-07
3.65675e-09
1.94454e-09
-5.60128e-09
2.1876e-07
-1.86114e-07
7.77404e-08
-6.04061e-07
1.8444e-09
-2.50196e-09
6.57525e-10
-1.26387e-08
1.55515e-08
-2.91282e-09
2.71953e-09
4.61023e-09
-4.94095e-09
-2.38892e-09
-1.11788e-09
1.11785e-09
-7.24823e-09
7.08622e-10
7.36223e-09
-8.22743e-10
-7.36968e-09
1.27066e-09
6.09899e-09
-4.10366e-09
6.98195e-09
-2.87833e-09
1.02001e-08
-5.69874e-09
-4.50137e-09
-1.29213e-08
1.19949e-08
-2.0602e-08
2.45836e-09
-4.93821e-09
3.6595e-09
-1.17974e-09
-6.16155e-10
-2.8795e-09
3.49561e-09
-5.22149e-10
3.24066e-09
-3.31845e-09
5.99842e-10
1.10263e-08
-1.513e-08
-4.8848e-09
3.31447e-09
1.57035e-09
-1.19284e-08
-4.4706e-09
1.23771e-08
-8.11504e-09
2.50064e-09
5.61442e-09
-2.78306e-09
2.50461e-09
2.7847e-10
-7.07332e-10
-1.3894e-09
2.09677e-09
-3.32857e-09
2.02048e-09
4.01203e-09
-2.70398e-09
-8.14953e-10
6.3968e-09
-5.58181e-09
6.76578e-09
-9.67519e-09
2.90936e-09
-7.98053e-09
-2.9965e-10
8.28014e-09
-2.22564e-09
2.22564e-09
6.05491e-09
2.03562e-10
1.30417e-09
-7.56261e-09
8.30277e-09
-6.65063e-09
-1.65218e-09
-1.03284e-08
2.2134e-09
-7.07947e-09
9.63844e-10
5.47337e-09
6.42272e-10
4.72607e-09
1.03523e-08
-1.50783e-08
-2.29334e-07
4.29912e-09
2.25034e-07
-2.1387e-09
-1.62705e-08
-2.06499e-08
3.90598e-08
-1.32262e-08
-8.26737e-10
6.9433e-09
7.10971e-09
5.36715e-09
3.00447e-09
-8.37161e-09
-3.2581e-08
1.79988e-08
1.45817e-08
-1.38949e-09
1.12209e-08
-9.83138e-09
-1.17566e-08
5.48243e-10
1.1208e-08
-2.82875e-09
-7.88389e-09
4.68351e-09
6.02919e-09
2.57328e-09
-1.09632e-08
8.38998e-09
-7.22862e-10
-6.64575e-10
1.38739e-09
-2.47924e-08
-6.53003e-09
3.13202e-08
-1.32243e-09
2.05789e-09
-3.63107e-09
2.89552e-09
-4.90181e-08
5.12425e-09
8.61947e-09
6.79825e-09
-1.54182e-08
6.56787e-09
2.54881e-09
-9.11675e-09
-5.55962e-10
-4.90113e-09
5.45668e-09
3.32817e-08
1.31279e-07
-1.64561e-07
5.06258e-09
-6.20119e-09
1.13855e-09
-2.05961e-08
7.36992e-09
-5.05109e-09
9.15313e-09
4.70283e-09
-8.80492e-09
3.67056e-09
-1.39627e-09
-2.27437e-09
4.58554e-09
-9.15336e-10
-3.67025e-09
3.11437e-09
-5.76218e-10
-2.53806e-09
6.16402e-11
1.61237e-10
-2.22889e-10
2.65424e-09
1.2498e-08
-1.51522e-08
1.66774e-08
-1.29242e-08
-3.75321e-09
3.71479e-09
-5.38741e-10
-4.2496e-09
1.07339e-09
1.33865e-09
-1.33864e-09
5.01717e-08
-7.80735e-08
2.79006e-08
-4.7885e-09
-5.94891e-09
-5.49152e-09
7.77682e-09
-7.93003e-09
5.64459e-09
7.6804e-09
-5.12698e-09
2.36605e-09
-4.91951e-09
-7.44778e-09
-9.96133e-10
8.44387e-09
2.12504e-09
-8.4081e-09
3.50003e-09
2.33856e-09
-4.22383e-09
1.88518e-09
4.40114e-09
-1.13054e-09
-3.27052e-09
7.80734e-09
-6.8921e-09
-9.15213e-10
6.07806e-10
-1.37247e-09
7.64602e-10
-1.99405e-09
3.42829e-09
-1.28543e-09
-1.48911e-10
-1.16415e-08
-7.55666e-09
1.17718e-08
3.04972e-09
-4.80639e-09
-2.37439e-10
2.70343e-10
4.68412e-09
-2.73287e-09
-2.22171e-09
3.70847e-09
-7.07602e-09
3.36749e-09
-1.52449e-09
1.52446e-09
2.19816e-09
-5.55039e-10
-1.64317e-09
3.92015e-09
-4.75034e-09
8.30134e-10
-2.06514e-09
5.56683e-10
4.5581e-09
-2.41891e-09
-1.96031e-09
4.37912e-09
7.24213e-11
-2.50107e-09
2.42863e-09
1.53269e-09
5.56468e-09
-7.09737e-09
7.89321e-10
-6.48845e-09
2.90987e-09
2.78915e-09
3.82168e-09
-1.83133e-09
-4.06843e-09
2.07798e-09
-4.3744e-09
-2.1547e-09
-1.99535e-10
6.72879e-09
-1.20991e-08
2.00756e-08
-7.97655e-09
-2.71135e-09
-4.44145e-10
2.03736e-09
1.11818e-09
-5.11259e-09
-8.37018e-09
7.66064e-10
7.60404e-09
-1.56579e-09
-2.0815e-09
3.64731e-09
1.81726e-07
-1.82212e-07
4.85213e-10
-4.16021e-09
2.10285e-07
-2.06125e-07
-5.02787e-10
-4.54832e-09
5.16485e-10
-1.16598e-08
1.2038e-08
6.42923e-10
-1.26809e-08
1.32404e-08
-9.70846e-09
-3.53201e-09
-5.94519e-10
-1.42749e-10
7.37268e-10
2.9057e-09
3.74367e-10
-3.28009e-09
3.7254e-09
-3.76009e-09
1.60791e-07
-1.40304e-07
-1.67211e-08
-1.94526e-07
1.90766e-07
1.73047e-08
-1.64279e-08
3.80252e-08
1.12912e-08
-8.28835e-08
3.35687e-08
1.0926e-08
-1.95592e-08
1.27172e-08
2.73193e-08
-4.00364e-08
-3.84256e-09
-2.01073e-07
2.04915e-07
2.17774e-08
9.79564e-11
-2.18751e-08
-7.56992e-09
4.30361e-09
-1.58235e-09
4.84858e-09
2.21304e-09
-4.62345e-08
4.40213e-08
4.58331e-07
-4.58331e-07
3.54993e-08
-2.17184e-08
-1.37812e-08
-1.73084e-08
1.98085e-08
3.29991e-08
1.47467e-08
-3.2055e-08
-1.38265e-07
1.58074e-07
5.19499e-09
-1.28714e-07
4.7403e-09
-5.90156e-09
1.16127e-09
2.6805e-08
-1.77538e-09
-2.50296e-08
8.03285e-08
1.9956e-08
-7.34794e-08
-1.93267e-09
1.3813e-09
-1.55933e-10
-6.99704e-10
5.88749e-09
-5.18776e-09
-2.60698e-09
3.27665e-09
-6.69733e-10
-1.0434e-08
3.68541e-09
-1.08239e-09
7.83098e-09
1.5289e-09
-4.35762e-09
-8.85073e-11
6.20183e-10
1.31706e-09
-1.84883e-09
-1.79212e-09
1.79208e-09
-3.34893e-10
3.74812e-09
-3.41331e-09
-1.66166e-08
1.49478e-08
1.66888e-09
2.55109e-09
3.49477e-09
-5.43608e-09
-6.09862e-10
5.46709e-09
-6.5418e-09
-4.40036e-07
1.28422e-08
-7.48851e-09
-5.35373e-09
-5.36589e-09
5.8907e-09
-5.24801e-10
6.36153e-10
-2.3888e-09
-3.05381e-09
-1.76441e-09
-1.85446e-09
3.61882e-09
1.61702e-09
-5.40603e-09
3.78896e-09
-9.98987e-10
2.34827e-09
2.67667e-10
-1.62047e-09
-1.83733e-09
-7.6226e-09
8.87311e-09
5.86717e-10
-4.57379e-09
-1.20783e-09
5.78161e-09
5.81994e-09
3.33317e-09
-1.62829e-09
-4.89974e-10
2.11827e-09
-6.02652e-10
3.6351e-09
-3.03253e-09
1.31153e-08
-2.44715e-09
-1.06682e-08
9.49172e-10
-4.15885e-09
-4.82243e-09
-3.16517e-09
7.98761e-09
4.64603e-09
3.52292e-09
-8.16892e-09
4.30971e-10
2.16967e-10
-1.31223e-09
3.67499e-09
-2.3628e-09
1.52517e-09
-1.31129e-09
2.94115e-09
-3.15494e-09
-2.512e-09
7.85273e-10
4.25591e-09
-5.04116e-09
-3.2604e-09
-6.53025e-09
9.79067e-09
-5.46695e-10
-4.21886e-09
6.48673e-09
-1.72116e-09
5.56855e-09
1.44e-09
-4.19944e-09
-2.80906e-09
2.59798e-10
-4.63187e-09
4.03198e-09
3.39986e-10
3.76268e-09
2.19651e-09
-5.95921e-09
-5.05182e-09
8.97194e-09
7.72751e-10
1.05593e-08
-5.18946e-09
-6.14268e-09
-6.59632e-09
9.55263e-09
-2.95628e-09
-5.45346e-09
4.53069e-09
9.22819e-10
-4.91908e-09
-3.83707e-09
8.75621e-09
9.81482e-09
1.26895e-08
-9.98417e-09
-1.25202e-08
-4.29398e-09
-1.65893e-09
-6.14615e-09
5.33056e-09
-9.62452e-09
7.11239e-09
-6.70087e-09
-1.81488e-07
1.8922e-07
1.5514e-08
5.10522e-08
-3.17384e-08
-2.05589e-08
1.2389e-09
5.05461e-09
-2.3439e-07
6.40073e-08
1.54752e-07
-2.11018e-08
-3.15505e-09
-8.32512e-09
-2.74177e-09
1.03413e-08
-2.30835e-10
-7.3688e-09
2.25034e-08
-2.17547e-08
2.32583e-08
-2.40041e-08
1.99053e-07
-2.09792e-07
1.07394e-08
-5.0817e-09
1.10921e-08
-6.01036e-09
4.94805e-10
7.50576e-09
-8.00056e-09
3.98772e-08
2.82154e-08
-4.43916e-08
-2.37019e-08
4.81047e-10
-5.15456e-09
9.75154e-10
3.69837e-09
7.73948e-09
3.99168e-09
-8.90758e-09
6.10356e-09
-3.17294e-09
-2.00889e-09
-9.21844e-10
9.75855e-10
2.3115e-09
2.29371e-08
-2.52486e-08
1.97797e-09
-1.97799e-09
-4.80554e-09
-8.5227e-10
5.65784e-09
-4.40103e-09
2.65596e-09
1.02215e-09
2.25052e-09
1.11025e-09
-3.36084e-09
-1.04783e-08
5.3237e-09
-8.00664e-10
-7.45944e-11
8.75207e-10
-9.88502e-10
4.41817e-10
-2.78611e-09
2.26842e-10
2.55924e-09
-8.94922e-10
6.57454e-10
-3.61095e-09
-4.80079e-09
3.99609e-09
4.41554e-09
6.87127e-09
-2.42995e-09
-3.57737e-10
-4.08361e-09
1.81912e-08
3.19734e-10
-1.85108e-08
-3.81588e-09
-8.37852e-09
2.6721e-09
9.52228e-09
-7.81102e-09
4.00185e-11
7.771e-09
-7.7555e-09
9.50871e-09
4.76092e-09
-6.51422e-09
2.8009e-10
-8.0911e-09
-1.11749e-08
1.03668e-08
4.57069e-09
1.02651e-09
3.76278e-09
-4.78921e-09
-3.80707e-09
-2.45605e-09
6.26316e-09
6.23446e-09
-8.02082e-09
1.78628e-09
1.25884e-08
-5.30093e-09
1.31089e-08
-2.03966e-08
1.71421e-07
-1.91186e-07
1.97658e-08
-4.87572e-09
4.87572e-09
6.03304e-09
7.04423e-11
-4.64456e-09
-5.92858e-09
8.80867e-09
-4.94653e-09
3.01928e-10
-4.08157e-09
-3.48839e-09
3.12694e-09
-7.32131e-09
4.19433e-09
-4.1839e-09
-4.75364e-09
8.93758e-09
9.8718e-09
8.94459e-09
-1.66199e-08
-4.23681e-09
3.11243e-09
3.58488e-09
-2.46053e-09
-4.46213e-09
-6.01614e-09
-5.04558e-09
-2.55963e-09
7.6052e-09
-5.65898e-07
5.65898e-07
1.81975e-09
-8.10436e-10
-5.25695e-09
4.24753e-09
2.39931e-08
-2.91453e-09
9.95082e-09
-3.10296e-08
3.58522e-08
-1.06643e-08
-2.5188e-08
-1.35724e-07
7.90301e-09
1.27821e-07
2.75904e-09
-1.95735e-08
3.08202e-09
1.37322e-08
-1.30233e-08
1.60359e-08
-1.43575e-08
1.13451e-08
7.19235e-09
1.36269e-08
-1.39363e-08
-7.3857e-09
1.42432e-08
7.07877e-09
-5.23951e-10
2.57878e-09
6.7501e-09
-4.78257e-09
-4.54645e-09
5.8973e-09
-2.47354e-09
-3.42385e-09
-3.25252e-09
9.14976e-09
-1.66698e-09
-3.08343e-09
-1.44523e-09
-1.26609e-09
-2.46243e-09
-1.75146e-09
2.7687e-09
2.01798e-10
-2.6642e-09
-1.98869e-10
-1.54362e-09
1.74248e-09
-3.14793e-08
4.66382e-08
-1.51588e-08
4.53335e-09
2.59561e-09
-7.12902e-09
-4.44492e-08
-1.13807e-08
2.43507e-08
-9.0644e-09
-3.53848e-08
-3.2164e-08
2.07852e-08
-1.33648e-08
-5.12669e-08
7.37703e-08
-8.61966e-12
-3.78411e-09
3.79262e-09
1.95939e-09
5.34261e-09
-7.30209e-09
-6.01152e-09
1.05758e-08
7.89493e-09
-1.24593e-08
4.77481e-09
-3.36898e-09
3.12745e-09
-3.5954e-09
-5.55477e-09
4.55493e-09
1.94958e-09
5.88461e-10
1.17036e-09
-4.09273e-09
-9.20283e-09
1.32955e-08
1.5117e-08
-3.76973e-09
-1.13472e-08
5.02077e-09
-4.05691e-09
-5.20175e-09
4.23792e-09
1.06943e-08
1.34375e-09
2.05777e-09
-6.17372e-09
4.11588e-09
1.01425e-08
2.52407e-10
2.99425e-10
1.50566e-09
-1.59422e-09
3.30687e-09
-2.43856e-09
-8.68339e-10
-1.08772e-09
2.15504e-09
4.42189e-09
-5.48931e-09
-1.28032e-09
1.14228e-08
8.08751e-09
-7.83507e-09
8.06586e-09
-4.24423e-09
8.4186e-09
-1.61137e-09
-5.90861e-09
3.89555e-09
2.01302e-09
-5.78619e-09
8.91311e-09
5.56587e-08
-5.37784e-08
-1.88038e-09
2.37481e-11
9.84803e-09
8.12336e-08
-4.24462e-08
-3.87876e-08
-3.88668e-09
7.46285e-09
-3.57615e-09
8.18467e-09
-4.3468e-09
1.12791e-08
-3.74372e-09
-1.29288e-08
2.13982e-08
-8.46943e-09
1.05037e-08
-1.15834e-08
1.07973e-09
1.14911e-08
-6.08781e-09
-9.17303e-09
1.20525e-08
-2.42864e-08
-7.67347e-09
1.99073e-08
1.12154e-08
-8.97708e-09
-4.48611e-10
-1.78961e-09
1.26391e-08
-1.42374e-09
1.12291e-08
1.67651e-08
6.97699e-08
-9.77639e-08
5.78769e-10
-3.83918e-09
-1.81459e-08
-1.21621e-08
3.03079e-08
7.74738e-09
4.13602e-08
-1.71897e-08
-2.41706e-08
-2.62228e-09
2.28584e-09
-1.16366e-09
1.50002e-09
-2.77362e-08
5.00265e-08
-2.22904e-08
-6.19574e-09
2.78382e-09
2.08245e-09
1.32942e-09
2.57255e-08
-2.35127e-08
9.09885e-10
4.6378e-09
-6.40198e-09
8.54304e-10
2.51836e-07
-2.35481e-07
-1.63546e-08
-2.18611e-09
-1.29922e-08
3.90746e-09
1.12708e-08
-1.47563e-08
1.25701e-08
-3.17742e-09
-2.06684e-09
1.93201e-09
-1.59754e-09
-3.34445e-10
3.65928e-08
-2.2831e-08
-2.93722e-08
1.56098e-08
4.29962e-09
-9.10514e-09
2.19815e-09
1.84438e-09
1.82288e-09
-7.83779e-09
1.01859e-08
-8.19413e-09
5.02867e-09
3.16546e-09
2.61349e-08
-7.21994e-10
-7.41446e-09
-4.16512e-09
1.41776e-09
2.74735e-09
-8.15155e-10
-3.02747e-10
5.41175e-10
-7.9037e-08
6.1413e-08
1.70816e-08
-1.29849e-07
1.3039e-07
1.67366e-08
-9.57738e-08
-1.27659e-07
1.45469e-08
-5.37556e-09
7.87848e-09
-2.50298e-09
-7.9578e-09
2.95518e-09
-3.72998e-10
5.87585e-09
-9.1111e-09
7.52796e-09
-4.29275e-09
1.42684e-08
-5.62247e-09
-8.64599e-09
-1.06099e-08
3.13244e-08
-2.55256e-08
3.80714e-09
1.26069e-08
1.48102e-08
-2.74174e-08
-6.6802e-08
5.70644e-08
9.7374e-09
2.17183e-09
3.50428e-09
-5.67607e-09
-1.25174e-09
-6.32592e-10
-4.60416e-09
-7.41678e-08
-1.81599e-08
6.02946e-09
4.20919e-09
-1.02387e-08
-9.35011e-10
-8.59126e-09
9.52631e-09
2.20154e-09
1.44696e-09
-3.64854e-09
1.21392e-08
6.34689e-09
-9.8859e-09
-8.60025e-09
6.69668e-09
1.64657e-09
-4.64832e-10
3.91874e-09
2.77787e-09
-1.44793e-08
4.34951e-09
1.01298e-08
6.44522e-08
-1.12698e-08
-5.31823e-08
-2.16986e-09
3.94017e-09
-1.77037e-09
1.04162e-08
-3.30181e-08
2.26022e-08
-1.93206e-08
5.47785e-08
-3.5458e-08
5.44794e-08
-9.34782e-09
8.30806e-09
-1.35793e-07
1.27485e-07
3.35639e-09
-2.61685e-09
-7.39584e-10
2.24642e-09
-1.23145e-08
1.0068e-08
2.47597e-09
-2.23383e-10
-2.25262e-09
-3.37838e-08
5.67684e-08
4.91595e-08
-1.55544e-10
-6.17092e-10
4.37669e-10
1.63398e-09
1.22917e-09
4.18083e-09
-7.35588e-10
-1.5964e-09
2.33204e-09
-8.5626e-09
1.00587e-09
-9.87377e-10
1.09283e-08
-1.24104e-08
2.4694e-09
1.07352e-09
1.71178e-08
-6.50122e-09
-3.58127e-10
6.85972e-09
-2.29975e-07
2.12274e-07
1.77018e-08
3.73593e-09
-2.94531e-09
-7.90705e-10
2.53418e-09
7.66592e-09
-2.54364e-09
5.26311e-09
-1.71178e-07
1.69183e-07
1.99484e-09
-1.02604e-08
1.24272e-08
-1.62456e-08
1.40786e-08
1.18147e-08
-2.20751e-08
2.74845e-08
-5.10962e-09
-2.2375e-08
-1.13124e-09
8.05117e-09
-6.91996e-09
5.16296e-09
-1.52792e-09
-1.29739e-08
7.04533e-09
6.49244e-09
-6.62688e-09
1.34392e-10
-1.1428e-08
9.16359e-10
1.19993e-08
-7.53318e-09
-5.38252e-09
-5.71053e-09
1.02478e-08
-7.49254e-09
-2.75532e-09
1.88213e-08
-1.60656e-09
-1.72147e-08
-4.65637e-09
1.05322e-08
-4.2708e-09
6.06204e-10
1.49467e-09
-1.14557e-09
-1.20961e-10
1.26649e-09
2.62718e-09
-8.63873e-09
-6.27314e-09
-4.16095e-09
2.49759e-09
-4.24796e-10
-5.09851e-09
3.02566e-09
4.21948e-10
2.0756e-09
1.2315e-08
-1.12082e-08
-1.10679e-09
1.83261e-10
1.69493e-09
-7.66524e-09
5.78704e-09
-1.0319e-08
5.27342e-09
9.07666e-09
-2.15245e-09
-2.27817e-09
-8.75091e-09
1.13314e-08
-2.58061e-09
1.29964e-09
-4.15844e-09
2.85888e-09
-1.44222e-09
-2.84332e-10
1.72658e-09
-3.50917e-09
1.32356e-08
7.78301e-09
-1.75093e-08
2.45452e-08
-2.46368e-09
-2.20816e-08
-8.72131e-10
4.59677e-09
-3.72458e-09
-9.05026e-09
-2.38904e-09
-8.74516e-09
5.40357e-08
-4.52906e-08
-1.28712e-08
1.27588e-07
-1.14717e-07
-4.57797e-09
8.81035e-08
-1.0972e-07
1.54507e-09
-4.64108e-09
7.12616e-09
-4.03015e-09
2.25063e-08
-1.6093e-09
-2.0897e-08
8.18162e-10
-2.44645e-09
-3.86818e-09
-3.20789e-09
-8.29922e-10
-7.3642e-09
2.79615e-09
-7.97369e-10
-1.99883e-09
2.22032e-09
1.39572e-09
-3.61613e-09
3.55914e-09
-4.07716e-10
-9.88337e-09
6.73189e-09
-4.2958e-09
7.20149e-09
-1.37086e-08
2.57611e-08
-1.04026e-08
5.47327e-09
4.92928e-09
5.89807e-07
-1.04022e-08
-1.0086e-09
3.58733e-09
-3.94264e-09
2.00218e-10
3.25471e-09
4.87718e-10
1.37185e-08
3.29201e-08
2.47209e-08
-1.35969e-09
-2.33612e-08
-3.81007e-08
3.38096e-08
4.29109e-09
-4.69985e-09
-2.71427e-08
3.18426e-08
1.26739e-07
3.13342e-08
-3.23839e-10
2.53065e-09
-2.20685e-09
5.17639e-09
-6.6984e-09
1.52193e-09
1.22854e-08
-1.07599e-08
-1.52558e-09
-2.87227e-09
-8.63516e-10
4.09004e-09
-3.54242e-10
-2.76718e-09
1.868e-10
-1.69109e-09
4.27149e-09
-1.11086e-09
2.06e-09
-2.28743e-08
1.0102e-08
1.27722e-08
2.33858e-08
-5.01763e-07
8.24674e-09
5.70494e-09
1.22182e-09
-6.92695e-09
-1.08605e-09
2.01766e-09
-1.27604e-09
3.44378e-10
1.3016e-09
-1.74248e-09
4.40863e-10
-2.07796e-10
-5.56176e-10
7.63958e-10
-2.16421e-09
2.50611e-09
-3.4188e-10
2.25766e-09
-2.25766e-09
-1.75626e-07
-3.47779e-08
-4.1279e-07
-1.0331e-08
4.23121e-07
3.30656e-08
-1.24458e-08
5.13243e-09
-2.57523e-08
4.39583e-09
-1.35391e-09
-3.56595e-09
4.1177e-07
-4.1177e-07
-4.50618e-07
2.26857e-08
-2.79779e-08
5.29187e-09
5.43399e-09
-1.49664e-09
-2.81702e-09
-1.12033e-09
-2.00886e-08
5.01808e-09
1.50704e-08
4.58366e-09
-5.00849e-09
9.72851e-09
-9.43408e-09
9.77439e-09
-1.00689e-08
3.33439e-09
-3.74185e-09
-1.61791e-09
2.02531e-09
-9.66405e-09
5.08379e-09
4.58025e-09
3.39207e-08
1.37573e-07
-1.71494e-07
3.65186e-09
5.34192e-09
-4.67576e-10
-4.94396e-09
-4.72011e-09
2.21131e-09
-4.53447e-10
-6.70185e-09
9.64287e-09
-8.00127e-09
3.99012e-10
-2.04061e-09
3.36948e-09
-1.5873e-09
-1.78216e-09
-8.81911e-10
1.21111e-08
3.24806e-08
-5.38066e-08
2.13261e-08
1.18085e-08
-8.1231e-09
-1.05494e-08
9.70482e-09
8.4456e-10
-3.88345e-08
6.28709e-09
3.2547e-08
-1.05792e-08
1.01709e-08
4.08033e-10
-5.94445e-09
-8.6918e-09
1.46361e-08
9.66079e-09
-1.16208e-08
5.98315e-08
3.11672e-08
-6.99466e-09
2.99926e-08
-2.29981e-08
5.83689e-10
3.16732e-09
-3.75096e-09
2.07318e-09
-1.82378e-10
9.03497e-10
-2.79439e-09
-1.02097e-09
-1.16587e-09
2.38441e-09
-1.97701e-10
-5.16323e-10
2.64397e-09
-2.57111e-09
4.43389e-10
7.5976e-09
-7.47807e-10
-6.26607e-09
-1.95382e-09
7.16962e-10
1.49143e-08
-1.56313e-08
7.87403e-09
-1.43016e-10
1.91966e-09
-2.71062e-10
2.009e-09
8.08278e-10
-2.81728e-09
1.39335e-09
-7.88347e-09
6.49007e-09
-1.89212e-08
6.92095e-09
1.20002e-08
9.75464e-09
-9.65833e-09
-9.62888e-11
-1.80136e-08
-1.49022e-08
3.29158e-08
1.28095e-09
1.12155e-09
-2.40252e-09
2.48268e-09
2.7738e-09
1.7752e-10
-6.25124e-10
1.0268e-08
3.37554e-09
-3.15246e-09
-3.66183e-10
-3.44366e-08
-1.66403e-11
1.2849e-09
-2.20403e-10
-1.0479e-09
2.7464e-08
-4.36973e-08
1.6232e-08
-1.1308e-09
1.13081e-09
-3.16996e-08
2.47258e-08
1.15557e-08
-1.86238e-08
-3.66294e-08
-2.01439e-08
-4.16852e-09
1.83681e-09
3.97886e-09
-1.64712e-09
-2.15369e-10
-3.23405e-09
-9.34447e-10
4.47336e-08
-6.59425e-07
6.14695e-07
-2.00397e-07
2.47727e-07
-4.73279e-08
-1.09379e-08
-1.73224e-07
1.84161e-07
4.44787e-07
-4.44787e-07
-7.94492e-10
-1.2707e-09
3.27273e-09
-1.39066e-07
7.01451e-10
-7.01463e-10
-4.67249e-09
2.47762e-09
2.37813e-09
4.16404e-09
-6.93121e-09
1.65674e-09
-9.55297e-10
-2.22857e-09
2.29021e-09
-3.35046e-09
4.65565e-09
-4.9534e-09
3.64827e-09
-4.18121e-09
8.27071e-09
-4.08941e-09
-8.19012e-09
2.97255e-09
5.21755e-09
1.58977e-08
2.78119e-08
-4.37097e-08
9.35603e-09
-7.53314e-09
-4.66291e-09
-2.2764e-09
6.93906e-09
3.64614e-09
-7.1979e-09
3.55176e-09
2.30029e-09
1.07519e-09
-3.33871e-09
6.67126e-09
-3.3325e-09
1.51928e-07
1.93583e-07
-1.87972e-07
-1.5754e-07
-1.01694e-09
1.52944e-07
2.10687e-08
2.9278e-08
-5.03468e-08
-2.16899e-08
-2.85859e-09
2.45482e-08
-2.17538e-07
2.44926e-07
-5.95542e-09
-2.14346e-08
2.14005e-07
-2.04219e-08
-3.05051e-08
-3.20296e-08
6.25346e-08
-8.252e-09
1.34005e-08
-3.28851e-08
-7.22957e-10
-1.37279e-08
-1.60544e-08
-1.74692e-09
6.0505e-09
5.67363e-07
-5.67363e-07
-2.33676e-08
2.52338e-08
-1.86628e-09
2.8544e-09
2.03564e-09
-4.89009e-09
1.09064e-07
2.60645e-10
1.62087e-07
-8.668e-09
-1.53419e-07
-8.91054e-09
4.55515e-10
8.45502e-09
9.08947e-09
-1.06719e-08
2.47595e-09
-3.09572e-09
4.25418e-09
-1.15851e-09
-3.46861e-09
2.41041e-09
1.05809e-09
9.37469e-09
-1.4698e-10
-9.22774e-09
-6.80852e-09
1.8235e-10
6.62619e-09
-3.62552e-09
5.83364e-09
-4.9512e-09
2.74299e-09
2.75226e-10
-3.90077e-09
-4.27278e-09
1.70487e-09
5.42226e-09
1.87373e-09
1.43857e-09
-3.31226e-09
2.54775e-09
-2.25907e-09
-7.67033e-09
-1.72505e-09
2.69999e-09
1.40051e-08
-2.77871e-11
-1.53204e-08
5.12338e-09
1.01969e-08
-1.87226e-08
2.64621e-08
4.52247e-10
4.24433e-08
-4.28944e-08
1.40137e-09
-1.53627e-09
4.31051e-08
-4.29681e-08
1.47962e-08
-1.33943e-08
-2.6506e-08
2.49701e-08
6.15867e-09
5.52848e-09
3.10956e-09
2.60411e-08
-4.62147e-08
2.65984e-08
-6.42348e-09
2.35406e-09
1.1961e-09
-3.55019e-09
-8.66923e-08
6.77818e-08
1.89104e-08
2.11232e-09
5.49799e-09
-3.87447e-09
-1.98987e-09
-7.60625e-10
2.2828e-09
-3.36973e-09
8.34457e-09
-4.97482e-09
2.63624e-09
-2.63624e-09
-4.41837e-10
1.96705e-09
1.08654e-09
7.45631e-09
-8.54289e-09
1.12394e-08
-8.97519e-09
7.11047e-09
5.50447e-09
4.10144e-09
-9.60587e-09
-5.10287e-09
-5.15199e-09
1.60853e-09
-2.66018e-09
1.05161e-09
-7.38691e-10
1.00416e-08
-9.30293e-09
3.82133e-09
8.1701e-10
-8.56804e-09
7.75063e-09
2.71923e-09
2.26116e-09
-4.98076e-09
1.32848e-08
-7.4471e-09
-5.838e-09
-3.87889e-10
-1.68325e-10
2.96721e-10
2.6018e-09
-2.89856e-09
2.88056e-09
1.36834e-09
-4.05333e-09
2.68503e-09
-2.44675e-08
-5.3479e-07
-3.22853e-09
-5.80917e-09
-8.4219e-09
7.76463e-09
2.37397e-08
-2.30826e-08
-3.35028e-09
7.11427e-10
2.63884e-09
-2.13603e-09
2.9005e-09
-7.64541e-10
-3.23152e-09
1.24718e-08
3.05456e-09
2.52292e-10
1.79523e-10
8.37494e-09
-8.55451e-09
-7.98344e-09
6.85226e-09
1.13114e-09
-3.52659e-09
2.44417e-09
1.73393e-09
-6.62883e-09
4.89482e-09
1.39638e-08
-1.77798e-08
3.52981e-09
-4.7358e-09
1.20596e-09
-6.05757e-09
-1.02534e-08
1.63109e-08
-1.28674e-08
1.23008e-08
1.68317e-08
9.69061e-09
-6.07471e-09
-3.61586e-09
-4.96287e-09
8.49267e-09
-8.98767e-09
-4.88574e-09
-1.36934e-09
3.70286e-10
-7.00931e-09
1.08146e-08
1.45124e-08
-1.47466e-08
2.3424e-10
-6.30281e-09
1.70519e-09
5.70437e-09
-1.10676e-09
6.98864e-09
-2.06282e-07
1.99291e-07
-6.76255e-07
7.00627e-07
-2.4371e-08
1.46469e-09
3.17866e-09
4.44607e-09
-1.03832e-09
-3.42648e-09
1.52445e-08
-1.18182e-08
2.76317e-09
-1.15051e-09
-1.20929e-09
-4.03355e-10
3.12536e-09
-3.64171e-09
-5.64939e-10
-4.42012e-09
2.29446e-09
2.69052e-09
1.28812e-09
-1.28815e-09
-1.65245e-09
4.32937e-09
-1.02515e-09
-1.65181e-09
-6.87868e-10
6.87829e-10
-8.94939e-10
-1.5595e-09
-1.64389e-09
3.20337e-09
1.25959e-07
-1.29908e-07
3.94919e-09
7.33404e-09
-3.10137e-11
-7.09289e-09
-2.10161e-10
-1.28095e-09
-6.40244e-10
1.92118e-09
7.69086e-09
-2.19961e-10
-7.47094e-09
-9.06633e-09
4.75112e-10
-7.4269e-10
-1.5241e-09
-1.10291e-09
-4.01204e-09
4.01204e-09
2.87063e-08
2.445e-08
-5.31565e-08
4.26213e-09
-7.21065e-10
-3.54112e-09
3.09172e-09
-1.18709e-08
8.77918e-09
-5.07591e-09
9.77868e-09
-5.33057e-09
-2.50721e-09
1.35394e-08
7.87748e-09
-1.03906e-08
-4.30751e-09
4.16049e-09
-1.69749e-07
-2.48505e-08
-1.88499e-08
6.46038e-09
1.23896e-08
-1.11717e-09
2.00309e-10
9.16889e-10
-4.98037e-09
3.51339e-11
-3.50318e-10
5.2956e-09
4.97508e-09
-6.37481e-09
2.82606e-10
2.26489e-09
-1.12419e-08
-1.36862e-10
-1.64184e-09
1.77875e-09
-6.68914e-09
3.24983e-08
-9.3373e-08
2.68872e-08
-2.02068e-08
5.49296e-09
-6.21597e-09
1.0817e-09
-1.05732e-08
3.54526e-09
7.02786e-09
-5.95652e-09
8.65561e-09
-2.69917e-09
-8.01967e-09
1.0084e-08
-2.0644e-09
-3.07579e-10
1.27636e-09
-9.68785e-10
-2.63619e-09
-1.52047e-09
4.15658e-09
-1.36936e-09
9.66228e-09
-7.50763e-09
1.90956e-08
2.51669e-09
-2.16125e-08
6.76958e-09
-8.60697e-09
-4.19913e-09
-6.20303e-09
2.1999e-08
-2.67509e-08
4.75181e-09
5.78467e-09
-1.44182e-09
-9.07867e-09
-1.48756e-07
1.36847e-07
1.19077e-08
7.67144e-09
-8.00028e-09
-1.10798e-09
4.26117e-09
-3.15324e-09
-1.58444e-09
3.29674e-09
2.74763e-09
-4.46e-09
-6.17304e-09
-3.38667e-08
9.71879e-09
2.41477e-08
-6.03968e-09
-3.95238e-09
9.99205e-09
-6.55363e-09
-9.58494e-09
6.24902e-09
9.88952e-09
-4.25462e-09
-3.22765e-09
1.42571e-08
-2.48191e-08
2.09785e-08
-1.02157e-08
2.23227e-09
-7.29226e-09
-3.95239e-09
4.84032e-09
6.40423e-09
3.90542e-10
-2.15097e-09
4.11446e-09
-2.69032e-08
-2.26927e-09
2.91728e-08
-1.20133e-09
3.92814e-09
-2.72686e-09
1.42269e-08
-3.30092e-08
1.87827e-08
1.02297e-08
-7.52977e-09
-4.56944e-08
2.71787e-09
3.877e-10
1.94107e-08
-2.3767e-08
-5.88793e-09
1.02441e-08
-6.70754e-09
-1.55815e-07
1.62523e-07
2.1516e-09
1.72591e-08
9.43609e-09
1.91072e-09
-2.60603e-09
-8.74085e-09
-3.63988e-09
4.10815e-10
3.22904e-09
-4.72539e-09
7.05258e-10
4.02009e-09
2.57828e-09
-5.77739e-09
3.19909e-09
9.30118e-10
3.25045e-09
-1.53121e-09
-2.64939e-09
8.01305e-09
-6.76118e-09
-1.2519e-09
7.3691e-09
-6.01733e-09
-1.35182e-09
8.94124e-09
-5.22401e-09
3.7453e-10
1.13685e-08
1.0882e-10
-1.18517e-08
1.56202e-08
-1.58948e-08
2.74585e-10
2.04885e-09
1.35714e-08
1.99209e-08
1.0705e-08
-1.75904e-08
-1.30356e-08
-3.04064e-10
3.33696e-08
9.42454e-09
-8.88032e-09
-5.44472e-10
1.76827e-08
-7.55798e-09
-1.01248e-08
-6.6249e-09
5.38636e-09
7.01499e-08
-7.11667e-08
-6.89936e-08
8.30686e-08
3.03241e-08
-4.43995e-08
2.6967e-08
6.59219e-08
-8.99438e-10
8.1228e-08
1.02678e-09
8.39563e-10
-5.59813e-09
5.76391e-09
-1.72918e-09
-4.03478e-09
-1.58023e-09
-9.2928e-09
1.08729e-08
1.2137e-08
-3.36145e-09
4.33962e-09
2.97522e-08
2.32079e-09
-9.68094e-09
-1.72134e-09
1.14023e-08
1.29203e-08
-6.35259e-09
2.99508e-08
-2.95589e-08
8.70839e-09
-9.10043e-09
8.24601e-09
7.05633e-09
-2.38221e-09
1.23313e-08
6.03146e-09
-3.85035e-09
2.68741e-09
9.64393e-09
-1.54206e-08
8.42713e-09
-9.38917e-09
1.58759e-09
-1.89948e-08
1.74072e-08
1.51735e-08
2.3117e-09
3.20128e-08
-2.89308e-08
-1.2545e-08
1.39925e-08
-1.76123e-08
1.61646e-08
-3.66559e-09
-8.87953e-09
-5.44903e-09
6.26589e-09
4.81948e-09
-1.09754e-09
-3.15705e-09
-5.76045e-09
4.17648e-09
9.7329e-10
6.1055e-10
-1.99838e-09
4.36744e-10
-5.79622e-10
2.14116e-09
1.43241e-09
-3.54763e-09
4.6971e-09
-2.58197e-09
-3.35028e-09
-5.87734e-09
-2.28372e-09
4.92951e-09
-5.44959e-09
7.06277e-09
-9.01776e-10
-5.20199e-11
9.61904e-10
-8.93649e-09
-1.01269e-08
2.21778e-08
-4.55044e-09
4.55043e-09
-5.41845e-09
-4.5891e-10
7.00398e-09
-6.80149e-09
-2.02522e-10
-1.68171e-10
4.73356e-09
-2.0988e-09
1.70053e-08
-1.49066e-08
-2.71822e-09
1.30595e-08
-2.0587e-09
-1.80613e-08
-2.76634e-09
4.24702e-09
1.65805e-08
2.07853e-09
-2.01398e-08
-1.06627e-09
3.15621e-09
-2.08992e-09
2.79163e-09
4.2454e-09
-7.03708e-09
-1.56952e-08
6.53229e-09
8.32311e-09
-4.30254e-09
-1.05529e-08
-2.50865e-09
6.3433e-09
-3.24706e-09
-5.87663e-10
-7.54809e-09
4.83653e-09
2.7115e-09
8.14775e-10
-1.12758e-08
1.0461e-08
-1.57155e-08
1.69852e-09
-2.62817e-09
1.48804e-09
-5.58312e-10
2.24605e-09
-6.59283e-09
3.25125e-09
-4.11085e-09
-5.03337e-09
5.89292e-09
6.3244e-09
3.34102e-09
-1.39063e-10
1.17024e-08
-6.03208e-09
-4.62868e-09
6.32726e-09
-3.15129e-09
5.32633e-09
-2.17501e-09
-1.33381e-09
3.32364e-09
-1.9898e-09
-9.13218e-09
-1.05166e-08
5.99173e-09
1.23989e-08
-9.61263e-09
-4.37587e-09
1.39884e-08
7.42255e-10
-8.70011e-09
1.15342e-08
-8.57333e-09
-1.00931e-08
5.16272e-09
1.35036e-08
3.99129e-09
-4.12326e-09
1.32055e-10
1.15193e-08
4.29171e-08
-3.16254e-08
2.33153e-08
-1.93237e-08
1.9291e-09
-2.36833e-08
4.30228e-10
-6.45212e-09
6.02184e-09
-1.3596e-11
-2.02842e-10
2.97961e-09
3.35638e-09
-5.24229e-09
9.7144e-10
8.40509e-09
-9.54709e-09
-1.14968e-08
-2.725e-10
1.20259e-09
-5.79656e-10
-3.60521e-09
1.00518e-08
4.82632e-09
-6.09829e-10
9.97342e-10
-2.64503e-08
2.54529e-08
7.42135e-09
-4.08697e-09
-3.26552e-09
-4.05454e-09
1.05788e-09
2.99665e-09
-4.55125e-07
4.51053e-07
4.0728e-09
9.44779e-09
-4.32089e-09
-5.12694e-09
2.70038e-09
-3.90891e-09
1.20849e-09
-1.86213e-08
-4.34777e-10
1.54935e-08
3.56273e-09
2.98496e-08
-7.56979e-09
-2.47327e-09
-4.75685e-09
1.65527e-09
-1.86802e-09
3.39459e-09
6.68557e-10
-4.60808e-08
8.48915e-08
-3.88117e-08
4.5253e-09
-3.68893e-08
2.28878e-08
-2.66868e-09
-2.02189e-08
9.86456e-09
-3.60489e-09
6.89681e-10
3.97851e-09
6.77173e-10
-3.52696e-09
2.99332e-10
-7.85575e-09
9.64774e-09
-3.55862e-09
1.76665e-09
-1.68301e-08
-1.12059e-09
8.39315e-09
-4.9391e-09
-4.84389e-09
1.38989e-09
-1.13907e-08
8.19105e-09
3.19964e-09
2.77019e-09
-4.6033e-09
3.15811e-09
-9.07645e-10
-5.11234e-09
2.26925e-09
8.1472e-09
2.35386e-09
-8.44337e-09
1.16422e-09
1.74244e-09
-2.90672e-09
2.25964e-09
6.18959e-09
-1.03327e-09
9.4417e-10
-2.18714e-09
1.24293e-09
-4.64241e-09
-5.6839e-09
-4.07887e-09
7.7412e-10
-1.33118e-08
-3.95038e-08
1.78137e-08
3.95631e-08
-3.32937e-08
-6.26958e-09
2.1986e-09
3.73643e-08
-7.26801e-07
7.26801e-07
-8.86633e-09
1.08189e-08
-1.95271e-09
-3.49449e-08
4.89374e-08
6.55085e-08
3.32475e-08
-9.87562e-08
-8.36128e-08
1.01299e-07
-4.75862e-10
-3.26602e-09
7.7541e-09
-9.33859e-09
4.00813e-09
-7.59512e-09
1.68917e-08
-1.33048e-08
-1.21496e-08
1.4254e-07
4.38006e-07
-4.44157e-07
6.15148e-09
1.04119e-08
-1.48373e-07
1.37961e-07
-8.39517e-09
-1.08548e-08
1.92497e-08
5.22151e-09
-6.92689e-09
3.75193e-08
-1.64346e-08
-2.10848e-08
2.32113e-09
3.44275e-09
5.63203e-07
1.77167e-09
3.07265e-08
-1.43561e-07
1.38119e-08
-1.99571e-08
6.14511e-09
-1.88662e-08
-5.85747e-09
3.65914e-10
-7.57207e-09
3.38819e-09
-2.95352e-09
-4.14616e-09
2.72372e-09
-3.74567e-09
-8.99632e-09
7.63914e-09
-8.99376e-09
8.09973e-09
-2.82527e-09
6.42382e-08
6.30076e-09
-5.90731e-09
-4.44801e-09
7.30058e-09
2.4828e-08
-3.21282e-08
-7.32413e-09
5.23809e-09
-3.7002e-09
-1.15598e-09
-2.62563e-09
-3.11338e-09
5.73898e-09
-1.17993e-08
-1.35514e-08
2.53507e-08
-1.9022e-09
7.83012e-09
-1.0591e-08