/*--------------------------------*- C++ -*----------------------------------*\
| =========                 |                                                 |
| \\      /  F ield         | OpenFOAM: The Open Source CFD Toolbox           |
|  \\    /   O peration     | Version:  v2006                                 |
|   \\  /    A nd           | Website:  www.openfoam.com                      |
|    \\/     M anipulation  |                                                 |
\*---------------------------------------------------------------------------*/
FoamFile
{
    version     2.0;
    format      ascii;
    class       volVectorField;
    location    "0.01";
    object      U;
}
// * * * * * * * * * * * * * * * * * * * * * * * * * * * * * * * * * * * * * //

dimensions      [0 1 -1 0 0 0 0];


internalField   nonuniform List<vector> 
3585
(
(0.00948835 0.000194173 -0.0276317)
(0.0269045 0.00790254 -0.000379418)
(0.0256889 0.00885575 -0.0530335)
(-0.271541 0.0137219 -0.0847846)
(0.00605278 0.00340867 0.0362966)
(0.0160286 0.00509299 -0.0182325)
(0.305513 -0.0861598 0.776926)
(-0.00829074 0.0132975 0.00876078)
(0.000525762 0.00323858 -0.00855121)
(0.00184292 -0.00196393 -0.000936045)
(-0.498791 -0.0232755 -5.44218)
(0.00514606 -0.00608831 -0.0113322)
(-0.0102318 0.00326632 -0.00141375)
(-0.00709689 0.00522192 -0.00621187)
(0.00927085 -0.0213706 0.0227962)
(-0.000566054 -0.0246704 0.00917475)
(0.0123735 0.0108047 0.00739339)
(0.0127207 0.00478094 0.0221337)
(0.0325794 0.011489 0.0343009)
(-0.045353 0.0028687 -0.0587167)
(0.00566809 -0.000557278 0.0123297)
(0.0242238 0.0144527 0.141142)
(-0.0545535 0.00887314 0.0750757)
(-0.48826 0.0427012 -2.33522)
(-0.837096 0.00113111 -15.9145)
(-0.594956 -0.0369676 0.116556)
(-0.0026983 -0.00871713 0.00671126)
(-0.358202 0.0251571 -13.0832)
(-0.138795 -0.00999894 0.167972)
(-0.0338306 -0.0201618 0.190787)
(-0.11953 -0.0140528 0.154813)
(0.284385 0.0617178 -0.559028)
(0.562726 -0.114328 -2.74341)
(0.843395 0.0660531 -4.51053)
(-0.00296118 -0.0885387 -2.22252)
(0.589728 0.129001 -1.09406)
(0.427756 0.0937197 -0.757922)
(0.00642755 -0.00950673 0.00825198)
(0.327947 0.0438842 -1.73483)
(-0.000209954 0.0137366 0.00698286)
(0.0590174 -0.0887869 -0.838154)
(-0.719524 0.00809303 -13.1504)
(0.0234081 0.00284695 -0.044918)
(0.016138 0.00999322 -0.00234083)
(0.00557857 0.00135426 0.0161508)
(-0.0266418 -0.0953584 -1.05424)
(0.0401486 0.00769141 0.0375078)
(0.364826 -0.0372216 -13.7574)
(0.0150192 -0.0904394 -2.20728)
(0.444603 0.0797377 -1.2166)
(0.00851661 0.00500624 0.0220032)
(0.228254 0.0494773 -1.26079)
(-0.0956639 -0.103274 -2.25222)
(-0.0103506 -0.00941663 0.0436487)
(0.328017 0.0155656 -3.52906)
(-0.559537 0.0209216 -13.419)
(0.00328635 -0.0108937 -0.0128243)
(-0.0404822 -0.00703947 -0.045204)
(-0.00922361 0.00229512 -0.016757)
(0.00106348 0.00466853 0.000781664)
(-0.00438983 -0.0117114 -0.0307644)
(0.00482355 -0.000974824 0.00809826)
(0.0126642 0.0132041 0.0192114)
(0.0137582 0.0110787 0.024288)
(-0.035428 -0.00790686 -0.0721275)
(0.0154775 0.0102949 0.00356798)
(-0.0113381 -0.00613765 0.00513569)
(-0.00698907 -0.0122941 -0.00837262)
(0.0200536 0.00546611 0.0383588)
(0.0104711 -0.00131394 -0.00837211)
(0.0162663 -0.0026053 0.0262549)
(0.00462468 -0.0027534 -0.0169409)
(0.00294909 0.00197077 -0.00651209)
(0.0064989 0.00138507 0.00358256)
(-0.015076 0.00467677 -0.00020507)
(0.0160764 0.000825227 -0.0162674)
(0.00346065 0.00744284 0.0199515)
(-0.000431619 0.00432417 0.0175353)
(-0.00480641 0.0158149 0.0065051)
(0.00276749 -0.00427928 0.0211659)
(-0.0425129 -0.00731646 0.0130549)
(0.0114097 -0.00208476 -0.0207794)
(0.00314313 -0.00201825 0.0263999)
(0.0275548 -0.000125795 -0.0321348)
(0.012532 -0.0524841 -7.78286)
(0.255134 -0.0836456 0.408147)
(0.0497104 -0.0140232 0.0160449)
(-0.00675625 -0.00559334 0.0239874)
(-0.388034 -0.0375793 -0.0382789)
(0.0153365 0.00335179 -0.0371639)
(-0.0612651 -0.00400538 0.00131142)
(0.0198476 0.0153526 0.0193973)
(0.00907419 -0.00450402 0.0300935)
(0.0148242 0.0117501 0.0215768)
(-0.0422175 -0.091772 -0.253997)
(0.00981088 0.00141796 -0.00998546)
(-0.0501068 -0.102097 -0.206213)
(-0.000465951 0.00147247 0.108854)
(-0.0363082 -0.0181718 0.00553072)
(-0.0395813 0.0271516 0.0657886)
(-0.86502 0.0233201 -2.52077)
(0.022104 -0.00317579 -0.0106353)
(0.0448334 0.00103337 0.0389272)
(-0.0232922 -0.00720478 0.020014)
(0.00936125 0.00457173 -0.00982333)
(0.00498722 -0.00862014 0.0102155)
(0.025166 -0.0297056 0.0455902)
(0.00681663 0.0090038 0.00433409)
(0.0306812 0.00058092 -0.0407692)
(-0.0061403 -0.000741587 -0.040044)
(-0.014193 0.00680665 -0.00683108)
(0.00286345 0.0103583 0.0133828)
(-0.127388 -0.0250835 0.510421)
(0.00286487 0.00016415 -0.0298751)
(0.0189305 -0.00469848 -0.0121203)
(-0.0330915 -0.00630811 0.00181957)
(-0.0228472 0.00273986 0.0308104)
(-0.00811601 0.00785316 -0.0163755)
(0.00961065 0.00372535 -0.0142381)
(0.0181531 0.00585213 0.00800233)
(0.00928597 -0.0138537 0.0246416)
(0.0178915 0.00963462 0.010599)
(-0.00572901 0.000199367 -0.0103824)
(0.0290245 -0.00428948 0.0285455)
(-0.010409 -0.0139622 -0.0171594)
(-0.00924263 -0.00826688 0.00140372)
(0.0112389 0.00611085 0.015156)
(-0.00720235 -0.0180765 -0.017866)
(0.00816058 9.40052e-05 -0.0143279)
(-0.0243821 -0.00225825 -0.00254423)
(-0.0125001 -0.00212232 -0.00686827)
(-0.0163772 0.0085389 -0.00653059)
(-0.000742506 -0.0259398 0.00679025)
(0.00377424 -0.0147497 0.0248916)
(-0.00522369 0.0112675 0.0178406)
(-0.00902159 0.000179267 -0.0137942)
(-0.00903174 -0.0101185 0.00652233)
(-0.0696652 -0.0228772 0.0139223)
(-0.00848096 -0.00464935 -0.00445692)
(-0.0368667 0.00172603 -0.00331537)
(0.0362317 0.00599657 -0.0160197)
(-0.0107949 -0.0110688 -0.00583619)
(0.0543461 -0.036444 -4.77005)
(0.414655 -0.067093 -7.39369)
(-0.00757725 -0.00915661 0.00453918)
(0.0127178 1.53835e-06 -0.0203787)
(0.0190064 0.00110994 -0.0328499)
(-0.0312298 -0.000417434 -0.0152425)
(0.000311956 0.00254063 -0.00576176)
(-0.0101577 -0.00156709 -0.00902763)
(0.0110855 0.00334859 -0.0145277)
(-0.514282 0.135138 -2.38432)
(0.126469 -0.0472547 -4.97349)
(0.103635 0.0203192 0.0872611)
(0.0471443 -0.0291128 0.473955)
(0.00687711 0.00955209 0.0863656)
(-0.19883 -0.0329044 0.434573)
(-0.296032 0.0603978 -2.10148)
(0.0654893 -0.00545947 -0.0674155)
(0.0167953 0.00459115 -0.0234097)
(0.189491 0.0204256 0.130095)
(-0.163253 -0.0450097 -14.8814)
(-0.533898 0.00586442 0.00461174)
(-0.0863861 -0.064542 -0.439937)
(0.170934 -0.0512519 -0.768149)
(-0.470049 0.00321825 -1.64272)
(-0.532614 0.0876781 -2.21872)
(0.0279303 -0.00378315 0.000275823)
(-0.10236 -0.0598543 0.0031354)
(0.145724 0.0528257 0.740147)
(-0.00409086 -0.00659186 -0.00467154)
(0.00440327 0.0121838 0.0193115)
(-0.00259098 -0.0115769 0.00577627)
(0.0222108 -0.00285586 -0.0201695)
(0.0107751 0.0110147 0.018895)
(-0.000758233 0.00700549 0.00166667)
(0.00944982 -0.00164519 -0.00992087)
(-0.00203986 0.00147105 -0.0139625)
(0.0579091 0.00946655 0.0165848)
(-0.020359 -0.00584247 -0.0126042)
(0.031768 -0.00193904 0.000732317)
(-0.46331 0.0120205 -14.2935)
(0.0258215 -0.00014862 -0.0315547)
(-0.0255172 -0.00791866 0.0124662)
(0.00262296 -0.0117144 -0.016587)
(-0.00860231 -0.00959243 -0.004364)
(0.00419051 -0.0058231 -0.0164513)
(0.00746985 0.0181655 -0.00156705)
(0.0165361 -0.0103364 0.0248355)
(-0.0103545 -0.00994467 -0.0291627)
(0.00761869 0.00510739 0.0121545)
(-0.0149258 0.00229567 0.0268492)
(0.0119236 0.00764691 0.0220269)
(0.0197356 0.00480578 0.00166341)
(-0.0478813 0.00479522 0.0133428)
(0.0217929 -0.0061753 0.00419544)
(-0.018977 -0.00284179 0.0144862)
(0.0137539 -0.0211313 0.0294262)
(-0.013083 0.000556599 -0.0057915)
(0.0145776 0.00483936 -0.0206411)
(0.0106478 -0.0023757 0.00523537)
(0.0194294 -0.00773507 0.0111687)
(-0.0019838 0.00150054 0.0137017)
(0.0269746 -0.00394692 -0.0222771)
(-0.0134169 -0.0184268 0.000765495)
(0.0226523 0.00485426 0.0103111)
(0.0016906 -0.00488949 -0.0160146)
(0.0231331 -0.0247576 0.0178267)
(-0.0289717 0.00743742 0.00882804)
(-0.0205229 -0.0104768 0.0208092)
(0.016887 -0.00868726 0.00180419)
(0.00031872 0.00183948 -0.0256552)
(0.0028085 -0.00264222 -0.0370333)
(0.00173751 -0.0133928 0.0339549)
(-0.0368746 0.00498559 -0.0522674)
(0.0149036 0.0135997 -0.0453563)
(-0.0134878 0.00464466 -0.0400891)
(-0.0226267 -0.00339886 -0.0255148)
(0.68806 0.149928 -6.39344)
(0.302097 0.0281677 -0.266817)
(0.0109159 -0.0311419 -6.15976)
(0.223501 0.0694178 -6.87638)
(-0.194242 0.015567 -0.0847444)
(0.0196547 -0.000959235 -0.0118417)
(0.15785 0.0407718 0.376876)
(0.243414 -0.0422889 -5.30658)
(0.0167233 -0.00622512 0.0271155)
(-0.00436926 0.0176479 0.021938)
(-0.180552 -0.0244538 0.156611)
(0.0157889 -0.00488421 0.00628939)
(0.0757871 -0.0369578 0.0399935)
(-0.00780953 -0.0162502 -0.00514888)
(-0.000643987 -0.00403703 0.000997637)
(-0.0243382 -6.4934e-06 -0.0855407)
(0.0004388 0.0107021 0.00532591)
(-0.00255348 -0.00470933 0.0161083)
(0.0151892 0.00953012 0.00110416)
(-0.0146052 0.0072043 0.00641426)
(0.0212957 -0.0112104 -0.0126974)
(0.0108932 0.000230076 0.00193852)
(-0.000868294 0.000411644 0.0014308)
(0.0129796 -0.0170056 0.0424967)
(0.0058989 0.0107884 0.00468677)
(-0.0223491 -0.0122639 0.00399542)
(0.00792512 0.00475891 0.0122641)
(0.0435016 0.00219065 -0.0753718)
(0.0218824 0.00266798 0.0354145)
(-0.00689597 0.0136944 0.0259678)
(-0.0178518 -0.00822376 -0.0233013)
(-0.00108017 0.0039229 0.0301377)
(0.0189132 -0.00956106 0.0289899)
(-0.00606463 -0.0190097 -0.00399307)
(0.0217737 0.000375084 0.000386123)
(0.00384015 -0.000629814 0.0151646)
(-0.0577398 -0.0236615 -0.00468575)
(0.0305603 -0.0276439 -6.4742)
(-0.000994016 0.00223659 0.0309638)
(-0.0267348 -0.00586792 -2.87703e-05)
(-0.0137589 -0.0103447 -0.017756)
(-0.0123178 -0.00262666 -0.00843912)
(0.0199453 0.00471257 -0.0133226)
(0.0124798 0.0154084 0.0396458)
(-0.0163058 -0.00267698 0.0208819)
(0.0367908 -0.0232545 0.0211563)
(0.00949114 0.00658168 0.010505)
(0.0202813 -0.00289854 -0.0157559)
(-0.0421141 0.0193371 0.0213599)
(-0.531694 0.019531 -18.0787)
(-0.0117005 -0.00553566 -0.0106129)
(0.0282528 -0.011963 -0.0921247)
(0.123686 -0.00535869 -0.425082)
(0.0983757 -0.0213916 -3.29636)
(0.0023585 0.00747576 -0.124137)
(0.0823996 0.00283086 -0.0223884)
(0.0361818 0.00959164 -0.0744506)
(-0.0360266 0.00249747 0.0307835)
(0.0512447 0.00414705 0.00890014)
(-0.0199271 -0.00229866 0.00748204)
(-0.0185145 -0.00230697 0.00749676)
(-0.0286346 -0.00764463 0.0206023)
(-0.0140789 0.00304989 -0.000319025)
(-0.0112009 -0.00450844 -9.99339e-05)
(-0.0101781 -0.00125466 0.00128575)
(-0.0143478 -0.00239231 0.00321244)
(0.017137 0.00853905 0.0132071)
(-0.112167 0.0294864 0.300586)
(0.00338747 -0.00780893 -0.0178648)
(0.362039 0.02474 0.0421103)
(0.642685 -0.00662883 -0.0128573)
(0.223367 -0.000381799 -0.157741)
(0.351379 0.0420546 -0.284227)
(0.471106 0.0126346 0.402194)
(0.0132522 0.00861768 0.00731827)
(-0.0212731 -0.00888443 -0.0204997)
(-0.044245 -0.00561248 -0.00498281)
(0.016009 -0.00188001 -0.0265779)
(0.0259481 0.00504322 -0.0218445)
(0.00574084 0.00415519 -0.0192465)
(0.00909508 0.0101619 0.00526135)
(-0.00306561 -0.00173042 -0.043021)
(0.030015 -0.00113892 0.0375662)
(-0.000913223 0.00166296 0.0172775)
(0.0171494 0.00148589 -0.0311173)
(0.00898358 -0.0100376 -0.0149399)
(0.0136615 0.00199989 -0.0275895)
(0.00992501 0.00251928 0.00500493)
(-0.0109428 0.00549595 -0.0101916)
(-0.00600896 0.0014518 -0.0141126)
(0.0111303 0.000546931 -0.0283517)
(0.0171956 -0.000712657 -0.0237074)
(-0.0172821 -0.002066 -0.0167834)
(0.0109991 -0.000304213 -0.0243137)
(-0.0161725 -0.0127668 0.014239)
(0.000822173 0.00951081 0.0387023)
(-0.00927079 -0.0121474 0.3868)
(0.0150813 -0.0162946 0.0215325)
(-0.306177 -0.0594124 0.334926)
(0.000521267 -0.0197285 0.0266534)
(0.0243053 -0.00339506 0.0321952)
(0.0394598 -0.00307512 0.0227553)
(-0.076393 -0.0136359 -0.0368314)
(0.0176657 0.00180124 -0.031414)
(0.0162068 0.00420311 0.0276764)
(-0.0876222 -0.0220906 -0.0218791)
(0.0117442 0.00677703 -0.0317462)
(0.0154988 0.00220647 -0.0370482)
(0.00937066 -0.00933897 0.601696)
(0.00788502 -0.00735802 -0.00914119)
(-0.209576 -0.00555505 0.16494)
(0.0323035 -0.00322581 0.0207434)
(0.0671287 0.00374229 -0.171519)
(-0.00702656 0.0282149 -0.00231435)
(0.0502514 0.0457619 0.261458)
(-0.0134063 -0.0142818 -0.00495026)
(0.178343 0.049284 0.113733)
(0.00646622 -0.00616805 0.0160593)
(-0.464621 -0.0312024 -6.51992)
(0.0150621 -0.0068203 0.0296303)
(0.0100379 -0.00226626 0.0490639)
(-0.00433709 -0.0024711 0.0281105)
(0.00271827 -0.00458845 0.0374922)
(-0.00402614 -0.0265389 -0.0095775)
(-0.0934143 -0.0292185 0.123262)
(-0.0166756 -0.000954828 0.0221503)
(0.00624987 -0.000476837 -0.0129529)
(0.0018317 -0.00940232 -0.0219944)
(0.0251259 0.00933204 0.0177643)
(-0.0249412 0.00454973 0.020454)
(0.00869314 -0.007536 0.112033)
(0.0164648 0.00135851 0.00902006)
(0.00988828 0.00751974 0.0142241)
(0.0607586 0.0147098 0.892084)
(0.0108702 -0.0392333 1.12634)
(0.173201 0.0155086 0.87272)
(0.136803 -0.0308694 0.97293)
(-0.0335538 0.00207869 0.0202563)
(-0.0330585 0.00749419 -0.000173117)
(-0.0205355 0.00113187 0.0277346)
(0.0112059 0.0059134 -0.0537437)
(0.0399835 -0.0580791 0.181467)
(-0.361936 -0.0221916 0.0706428)
(-0.120716 0.00354801 -0.194279)
(-0.0663407 0.0154746 0.650645)
(-0.029418 -0.00346393 -0.00011758)
(-0.00833854 -0.00146477 0.0191291)
(-0.0929573 0.00605865 0.740718)
(-0.0614378 -0.00869221 -0.0242859)
(0.0166556 -0.0162742 0.0146527)
(0.011641 -0.0154328 0.015552)
(0.00272478 0.00128585 0.0357788)
(-0.00899309 -0.0241846 0.00418418)
(-0.0176765 -0.00763967 0.021085)
(-0.0268169 -0.00478118 0.0264978)
(0.0460816 -0.072469 -0.336799)
(0.016977 -0.0065565 -0.00782365)
(0.139307 0.0520015 -0.0679678)
(-0.38571 -0.000847456 -0.144225)
(-0.641301 -0.0864714 -0.324259)
(-0.00454449 -0.0524336 -4.84153)
(0.00921648 -0.00569271 -0.0156667)
(0.0391606 -0.00267436 -0.0178732)
(0.0110511 -0.00211001 -0.0140961)
(0.231617 -0.0663644 -1.18146)
(0.0016002 -0.00317982 -0.00108148)
(0.00347381 0.00829154 0.011502)
(-0.00225796 0.0175101 0.000758851)
(0.00435205 0.00256878 0.02652)
(0.0338172 -0.0022864 0.024561)
(0.0374163 0.000247081 -0.0607212)
(0.013817 0.0099561 0.0167893)
(0.376251 -0.0429945 -5.78859)
(0.0124217 0.0119374 -0.00754806)
(0.00806355 -0.005728 0.0316271)
(-0.0215519 0.0129105 -0.0108845)
(0.585939 0.0960266 -6.94774)
(0.0527472 0.00666262 -0.08913)
(0.0510343 0.00888567 -0.0608738)
(0.157845 -0.0159649 -0.100667)
(-0.00530077 -0.00639626 0.0237729)
(0.00962499 0.00245199 -0.0113067)
(-0.02541 -0.00623397 -0.0327897)
(-0.0176793 0.00548513 -0.00609757)
(-0.0340123 0.00218713 -0.0215913)
(-0.0324807 -0.000959824 -0.0179658)
(-0.0318683 0.0157468 -0.0139439)
(-0.0245987 0.000502124 -0.025319)
(-0.122299 -0.0446856 0.0572601)
(-0.0210389 0.0026067 0.0238969)
(0.00129446 0.0154677 -0.0115955)
(0.012222 0.00275782 0.00259302)
(-0.0294299 -0.00514388 0.00443792)
(0.0230967 0.00367999 -0.0354232)
(-0.00986373 0.0121826 0.00963125)
(-0.00197348 0.00171139 0.00988617)
(0.00603295 -0.00658318 0.038438)
(-0.00554836 -0.00144785 0.0197541)
(-0.0337182 0.00891808 0.037304)
(0.00535785 -0.0190552 0.0179947)
(-0.0401854 -0.000439222 -0.0305967)
(0.00644761 0.00604672 0.00317504)
(-0.00307 0.00593454 0.00412136)
(0.0539936 0.00720389 0.0195228)
(0.0603397 0.0201539 0.0299908)
(0.0248754 -0.00973147 0.0156139)
(0.0283863 0.00616523 0.0268781)
(-0.268843 -0.0567036 0.504653)
(0.0686157 0.0156247 0.989277)
(0.000461325 -0.00788461 -0.0212213)
(0.0951865 0.00491618 1.17445)
(0.0172198 0.0105348 0.0260453)
(-0.021201 0.00152425 -0.0630988)
(0.00578752 0.0118266 0.0173534)
(0.012278 0.00678258 0.0149484)
(-0.0417871 0.000382934 0.0126094)
(-0.0044174 -0.0013157 0.00666482)
(0.00388984 -0.0225769 0.0101737)
(-0.0422974 0.00633247 0.0199521)
(-0.0244019 -0.00290344 9.79923e-05)
(-0.100439 -0.0214164 -0.044478)
(-0.033583 -0.00597316 -0.020005)
(-1.12494 0.0034699 -18.753)
(0.0100647 -0.00817515 0.0218695)
(-0.00836228 -0.00946619 -0.000963304)
(-0.016903 0.000829788 -0.00875978)
(-0.474678 -0.0261366 0.299129)
(-0.148167 -0.0177769 0.08804)
(-0.218217 -7.51239e-05 -0.168045)
(-0.080987 0.0342318 0.212283)
(-0.796726 0.0203367 -2.41012)
(-0.00125503 0.00152151 -0.0105807)
(0.0269057 -0.0216968 -0.000889186)
(-0.0499236 0.0174983 -0.057611)
(0.00281542 0.00579495 0.0102983)
(0.00281945 0.00887772 0.0160572)
(-0.00317721 -0.00986812 0.00144768)
(0.0588885 0.00133842 -0.0672901)
(0.219179 -0.0484431 -14.4752)
(-0.0330833 0.00885201 0.0265689)
(-0.00828531 0.0196465 -0.0584051)
(-0.00139851 0.0219886 -0.00180968)
(0.00698494 0.0105835 0.0178804)
(0.00364546 0.00574021 -0.014456)
(0.010585 -0.00382629 0.0216667)
(0.00276199 0.00887618 0.0180971)
(-0.0838518 0.00706016 -6.08476)
(0.419831 0.0706392 -13.1332)
(-0.117626 -0.0151749 -0.111997)
(0.0210128 -0.00169901 0.00384363)
(-0.0844908 -0.0281154 -14.3095)
(-0.458998 0.0315537 -13.7296)
(0.0894715 -0.00252296 -0.431879)
(0.00178874 0.0195311 0.0192582)
(0.0344836 0.0147485 -0.0399829)
(-0.000464909 -0.00182644 0.0134143)
(-0.0445187 0.00195841 -0.0122559)
(-0.00155771 0.00339952 -0.00926067)
(0.00867193 0.0234913 0.0202447)
(0.593284 0.0339224 -4.13459)
(0.014344 0.0142976 -0.0199239)
(0.00130189 -0.00716529 0.000502571)
(0.0232124 0.00746682 0.0217547)
(0.0113704 0.00617829 0.0236334)
(0.00668988 0.00862653 0.023654)
(0.0134437 0.0130593 0.00888111)
(0.246551 0.0590585 -0.085101)
(0.0878172 0.0519829 -0.143982)
(0.0230231 -0.00398769 -0.0414331)
(0.0108445 -0.00753905 -0.0343751)
(-0.067068 0.0157456 0.255318)
(-0.0603663 -0.0293677 -0.0431017)
(-0.0762516 0.0077427 -0.0441426)
(-0.0726346 -0.0184941 -0.0155244)
(-0.0689551 -0.0380707 0.345093)
(-0.104862 -0.0468038 0.226324)
(-0.0190112 0.0100001 -0.126124)
(-0.0115908 0.00371319 0.00258918)
(0.00153606 -0.00780335 -0.00721055)
(-0.00531533 -0.00437392 -0.0104752)
(0.00342992 0.00912733 -0.00970975)
(0.0216996 0.0122254 -0.00599076)
(0.0167446 0.000555266 0.00790637)
(0.0433465 -0.000355676 -0.0366691)
(-0.019021 -0.00911637 -0.0165732)
(0.00343283 -0.00115642 -0.00399238)
(0.00507106 0.0139105 0.0192079)
(-0.00163101 0.00899884 0.0249094)
(-0.0083207 -0.0305905 0.187118)
(-0.00574003 -0.00781604 0.0288387)
(-0.146429 -0.0128723 0.0939912)
(0.00703508 0.0136645 0.0286987)
(0.0102578 0.0137008 0.0192215)
(-0.00527081 -0.0019262 0.0348357)
(0.00017729 0.0200822 -0.0104984)
(-0.445622 -0.0423415 0.212577)
(0.000738885 -0.0176366 0.00162421)
(-0.594196 -0.0541002 -0.0265474)
(0.0111274 0.00050483 0.0127382)
(-0.310168 -0.0234901 0.0568437)
(-0.187654 0.0271348 0.244528)
(-0.234665 0.0241239 -0.0460453)
(-0.013843 -0.00788239 -0.00830263)
(0.435591 0.0243773 -0.363894)
(-0.016123 -0.000676511 0.00266098)
(0.819599 -0.0247487 -18.0389)
(1.68663 -0.0338391 -8.67163)
(0.557195 0.00313616 -6.2783)
(-0.182434 -0.0446933 -14.437)
(0.00591167 -0.00443854 -0.0064829)
(-0.00192006 -0.0295211 -3.45898)
(0.00221401 0.00823639 0.00608898)
(-0.90781 -0.00288941 -11.8989)
(0.00597713 -0.013593 0.0112777)
(0.0159364 0.0089425 0.0139468)
(0.00308696 0.000444609 0.010302)
(0.0156857 0.000777244 0.00790414)
(-0.0175489 -0.000753525 0.0065684)
(0.0448043 0.00980484 0.00606166)
(-0.0430041 0.00129043 -0.00324459)
(0.0254497 0.0549598 0.184222)
(0.0178384 0.00165083 0.0306903)
(0.010619 0.0104567 0.0305987)
(0.0215776 -0.00484623 -0.0149609)
(0.0147457 0.00603284 0.00175897)
(-0.0142821 -0.0015572 0.0126828)
(0.322803 0.0387913 -3.64791)
(-0.304824 0.173888 -1.00179)
(0.400885 -0.0293334 -0.0811725)
(0.378642 0.0212639 0.212657)
(-0.357386 0.11883 -3.49044)
(0.503296 -0.0353508 -7.95814)
(0.270688 -0.018637 0.368066)
(0.0647522 0.0177036 0.131694)
(0.126202 -0.0119198 0.272933)
(0.0225395 0.00662251 -0.0114625)
(-0.307056 0.0358645 -18.0641)
(0.00483045 -0.0066626 -0.112197)
(0.00227852 -0.00628062 -0.00915122)
(-0.0623319 -0.101625 -1.12306)
(0.478069 0.00594505 -5.59322)
(-0.0397392 0.00499829 0.00777583)
(0.00640501 -0.00993279 -0.0386262)
(0.00776471 -0.00123379 -0.0137512)
(0.0127837 -0.00046732 0.00657217)
(0.000735321 0.00534636 -0.0188313)
(-0.0317348 -0.00399645 0.0116543)
(-0.023282 -0.00893616 0.00802666)
(0.0253854 0.00278658 0.0172651)
(-0.0222382 -0.00943642 0.0105939)
(0.0102696 -0.0012765 0.00596091)
(0.00551555 -0.00780599 0.0262263)
(0.0167092 0.00772608 -0.0121281)
(0.166612 0.0151365 0.921897)
(0.0101833 -0.00150671 0.0132567)
(-0.00534877 -0.0136148 -0.042665)
(-0.0449531 -0.00234798 -0.0167692)
(0.227289 0.00200866 -0.254053)
(-0.103363 -0.0739727 0.155228)
(0.0358773 -0.0129879 0.219966)
(-0.00499961 -0.00846407 0.125132)
(-0.0769266 -0.0225794 0.184746)
(-0.00714529 -0.0184703 0.00373907)
(-0.240638 -0.0702522 0.131296)
(0.00895769 -0.000868003 -0.0113117)
(0.200684 0.0150973 0.602746)
(0.012926 0.00597545 -0.00959861)
(-0.0159859 -8.715e-05 0.00303822)
(0.010926 0.00208379 0.0169232)
(0.0106373 0.00366087 0.0213985)
(-0.00621333 -0.00077911 0.00401437)
(-0.00963878 0.000277513 0.0253041)
(-0.0349706 0.00239234 0.0158957)
(0.030215 -0.0105606 -0.00305798)
(-0.00140918 8.62107e-05 -0.0326103)
(0.0170819 -0.0028934 -0.00227171)
(0.00991126 0.00546927 0.0339964)
(0.00894175 0.0110121 0.026341)
(-0.0362328 -0.00777302 -0.0214368)
(0.0417078 -0.0320141 0.0417277)
(0.0301865 0.0140926 0.0952208)
(-0.0580534 -0.00798231 0.000640361)
(0.0103864 0.0154407 0.0269358)
(-0.0165105 -0.00588506 -0.0111407)
(0.0144634 -0.0013279 -0.0118288)
(-0.746798 0.0347272 -16.3673)
(0.0120968 0.0191373 0.0751726)
(-0.15579 -0.015292 -0.156364)
(0.00703264 -0.0158233 0.0259979)
(-0.0108204 -0.00209841 -0.00536831)
(0.0325911 0.00176883 -0.0164115)
(-0.000233237 -0.00442611 -0.00743736)
(0.00509095 0.00420875 -0.0335763)
(-0.00318255 -0.00148035 -0.0246707)
(0.0141126 0.00723925 -0.00903414)
(0.0372853 0.00178187 -0.00677107)
(0.0315366 0.00984541 0.0412547)
(-0.0215263 -0.00743612 0.00168293)
(-0.0868755 0.0106156 -0.0443488)
(0.0572695 -0.00424758 0.0913732)
(-0.0132511 0.00476335 0.0195201)
(-0.033377 -0.00143538 0.00185703)
(-0.0218423 0.00777793 0.0162491)
(-0.00239132 0.00582262 -0.00301615)
(0.0201159 -0.00881884 0.0317123)
(0.0229288 -0.00251942 -0.0374033)
(0.000997867 -0.000300042 0.0229101)
(-0.314829 0.0749891 -2.23531)
(-1.22835 -0.0933403 -21.2371)
(0.00546525 -0.0190161 -0.0233541)
(-0.00886604 -0.00685501 0.00235633)
(-0.0587284 -0.0192589 -0.0309881)
(0.00371861 -0.0147362 0.00468738)
(0.00886677 0.0141457 -0.0208707)
(0.00596423 -0.0190601 -0.018176)
(0.00466351 -0.00742302 -0.0195077)
(0.00580857 -0.0169284 0.0128531)
(0.00340365 0.013186 -0.0146272)
(0.00155876 0.00699084 -0.0144139)
(0.0168194 0.00743351 0.0248308)
(0.081943 -0.0192815 -4.6108)
(-0.000965929 0.00321559 0.0300996)
(0.00864477 0.0176001 0.00681104)
(-0.00152762 -0.00382436 0.0218989)
(0.0343644 -0.0180399 0.0215952)
(-0.00601968 0.00296878 0.00271463)
(0.000498143 0.013212 0.0184663)
(0.171601 0.0102913 0.330094)
(-0.00533705 -0.00184639 0.00950902)
(0.0237502 -0.00469741 0.0228836)
(-0.0145996 0.00287893 0.0229587)
(0.0333521 0.00668456 0.0138306)
(0.014317 0.0108014 0.0328545)
(-0.0203935 -0.00192783 0.00738501)
(0.836933 -0.0958536 -3.70189)
(0.677464 0.0944448 -6.03916)
(0.0494762 -0.0103028 -0.00204027)
(0.00367427 -0.00744609 -0.0061184)
(-0.00274696 -0.000523637 0.0181361)
(-0.00120491 -0.00559193 0.0208915)
(0.0160813 0.00159124 -0.0339733)
(0.000243812 -0.00373361 0.00726766)
(-0.00712773 -0.00504797 0.0108198)
(0.142202 0.0124506 0.252707)
(0.217893 -0.00309219 0.551235)
(-0.0521231 -0.0351553 0.129165)
(-0.00156534 0.00441524 0.012475)
(-0.0340978 -0.0226034 -0.0300822)
(-0.0283273 -0.00638973 -0.0164264)
(-0.0343141 0.0029616 0.00054087)
(0.00631996 0.00374403 0.0266693)
(0.00208016 -0.0131574 0.0114707)
(0.00247277 -0.00211476 0.0064458)
(-0.00545534 0.017209 0.0282536)
(-0.219107 0.0426729 0.243181)
(-0.0140503 -0.00576742 -0.0248104)
(0.00878629 0.00399022 0.0200572)
(0.017117 -0.000257304 -0.0944426)
(-0.0155182 -0.00530989 0.0138179)
(-0.0828941 -0.0556302 -5.24856)
(-0.00617434 -0.00798047 0.0262488)
(-0.000540062 0.00244892 0.013219)
(-0.0129869 0.0074259 0.0077353)
(0.0759728 -0.0167301 -0.0949127)
(0.115998 -0.0233218 -0.445548)
(0.00964465 0.00211055 0.0273989)
(-0.0131957 -0.00664386 -0.0373209)
(-0.00402235 -0.00707054 0.0106218)
(0.0821794 0.0267652 -0.0534439)
(0.00984891 -0.00788633 -0.0308942)
(0.0101424 0.00957398 0.019132)
(0.0159085 -1.85236e-05 0.00133939)
(0.113302 0.0292496 -0.0714943)
(0.020747 0.00205381 -0.0177038)
(0.130528 -0.00200076 0.0943167)
(-0.00459136 -0.00956213 -0.0464205)
(0.205485 0.0287941 -0.0354102)
(-0.00215042 -0.00994914 -0.00924406)
(-0.0888091 -0.0186864 -0.0243622)
(-0.131729 -0.0326979 -4.11916)
(-0.0809996 0.0171386 0.0219827)
(0.0483835 0.00513968 -0.0303877)
(-0.00919028 0.00721226 -0.00900225)
(-0.0084656 0.000627227 -0.0112537)
(-0.0257924 0.00544841 -0.0221955)
(-0.0018764 -0.00745367 -0.000838579)
(-0.0167878 0.000485652 0.00707216)
(-0.0332016 0.00415172 -0.011381)
(-0.0253073 -0.00401119 0.0137833)
(0.0208412 -0.000514266 -0.0389663)
(0.032102 0.000784195 -0.0541384)
(0.0266399 0.00185339 -0.047427)
(-0.0451309 0.0104494 -0.091679)
(-0.241766 0.0240683 -0.124675)
(-0.0763999 0.00560903 -0.0699194)
(-0.100245 -0.00708833 0.0853748)
(-0.022442 -0.0106392 0.0927165)
(0.193736 0.0843573 -1.59388)
(-0.147269 0.0474035 0.624266)
(0.061937 -0.0320385 0.781205)
(0.149952 0.075863 0.650558)
(-0.0136738 -0.0188079 -0.0521912)
(-0.0607742 0.0176322 0.0197278)
(-0.0113215 0.0016103 -0.0124333)
(-0.020557 0.0115926 -0.00727857)
(-0.0472742 -0.00602939 0.000485054)
(-0.201503 -0.0179026 0.23261)
(0.0105696 -0.000383241 -0.0150192)
(0.0359815 0.0128228 -0.00887187)
(-0.0572728 -0.00610753 -0.028164)
(-0.0311792 -0.0195004 -0.116653)
(-0.0437005 0.0171483 0.0230321)
(0.0231476 0.00315219 -0.0265116)
(0.0141169 0.000426658 -0.0250526)
(0.0270662 0.0072905 -0.0226266)
(0.0413918 0.00214912 -0.0273221)
(-0.0287708 -0.00915187 -0.141803)
(0.0115726 0.00737828 -0.0461435)
(0.0192383 0.00277458 -0.194748)
(-0.0495701 -0.00867766 0.131624)
(-0.0938263 8.72982e-05 -0.0324423)
(-0.00820376 -0.0272361 0.0476936)
(-0.0330983 -0.0189001 0.0310505)
(0.00704413 -0.00631282 0.0109289)
(0.0201776 -0.010241 0.00300862)
(-0.00513746 -0.011398 -0.0144145)
(0.00681025 -0.00950175 -0.0196277)
(0.00632628 -0.00957978 0.0170771)
(0.0196465 0.00183208 -0.0270003)
(-0.00173619 0.00379968 0.0210185)
(0.00476404 0.00540112 -0.00639538)
(-0.0405094 -0.00797885 -0.00349303)
(0.00255366 -0.0092962 0.0295099)
(-0.00551387 0.00195875 -0.0163851)
(0.0333362 0.00142013 -0.0156459)
(0.00395767 0.00429842 -0.0144481)
(-0.0718133 0.011665 -0.0175287)
(0.0331687 0.00373335 -0.0211015)
(-0.00781875 0.00194703 0.0181404)
(-0.0636127 -0.00860968 -0.0196131)
(-0.0699333 -0.0066366 -0.038468)
(0.0135799 -0.00290696 0.0250943)
(0.0160353 0.00147785 -0.020336)
(-0.0466399 -0.0178409 -0.0165714)
(-0.0314382 -0.00743137 -0.00530394)
(-0.00133737 0.00131335 -0.0101733)
(-0.01078 0.00222299 -0.0188531)
(-0.00513031 0.000831068 -0.0289975)
(-0.0497229 -0.000438149 -0.0235104)
(0.00901919 0.000715104 0.00778799)
(0.0160892 0.00304858 0.0143019)
(-0.0171838 -0.0020924 0.0197668)
(0.00788121 -0.00916599 0.0183862)
(0.0304181 0.00219748 -0.0214266)
(0.0179515 0.000585907 0.00909927)
(-0.0110434 0.00602459 -0.0198882)
(-0.0150619 0.0019545 0.00120834)
(-0.0398033 0.00169074 -0.00633748)
(-0.039911 -0.000381081 -0.0206973)
(-0.015026 -0.0105175 -0.0317728)
(-0.042164 -0.00624734 -0.0187146)
(-0.00155126 0.00115576 -0.0268221)
(-0.0305235 0.000685571 -0.0162303)
(0.0122898 0.000796398 0.00196396)
(-0.0167338 -0.0271392 0.278493)
(-0.197456 -0.00022502 0.280625)
(0.289569 -0.000354499 -0.128003)
(-0.1081 0.0263098 0.110387)
(-0.0316536 0.0111282 0.00791701)
(-0.00211774 -0.00267523 0.00855365)
(0.00940973 -0.00895024 -0.0348006)
(-0.0108747 0.00544097 -0.0152527)
(-0.041526 -0.00619547 -0.0418653)
(0.0088376 0.00432086 -0.0034684)
(-0.00213894 0.00140294 -0.0084957)
(0.0270469 0.0274668 -0.0130427)
(0.0193843 -0.0063307 -0.0658124)
(-0.0374063 -0.00924487 0.0057884)
(-0.0261039 0.00449268 -0.000914168)
(0.00612795 -0.00715929 0.00320434)
(-0.116069 -0.0533083 -13.7035)
(0.0229277 -0.011676 0.0174964)
(0.00307927 -0.00324343 -0.0085531)
(0.0353368 0.00846296 -0.0512853)
(-0.0302353 -0.0461359 0.0271302)
(0.00922428 0.000661596 -0.0278088)
(-0.0172913 -0.00679647 0.000592017)
(0.00267969 -0.000259335 0.0111472)
(-0.252687 0.0290687 0.524329)
(-0.239844 -0.00436264 0.387428)
(0.0852469 0.000676119 -0.0508366)
(0.0601299 0.00125025 -0.0296106)
(0.0101668 0.00738315 -0.00940873)
(-0.0147988 0.00853295 0.00438853)
(-0.00175188 0.00787527 0.00846633)
(-0.0321783 -0.00281197 -0.00156957)
(0.03871 0.00921049 0.0315321)
(-0.017849 0.0147547 0.010894)
(0.0369533 -0.00197516 -0.00909247)
(0.0134562 0.00842639 0.00790118)
(0.0100814 -0.00206389 0.0051511)
(0.285094 0.0265863 -1.74089)
(-0.0160919 -0.00766846 -0.0296209)
(0.0107667 0.000633227 -0.0199555)
(-0.00870928 0.0119161 -0.00324993)
(0.0287938 0.007749 0.0221179)
(0.00709013 0.00570935 0.0147787)
(0.00559146 0.00830746 0.000767741)
(0.0162719 0.0168837 0.0248348)
(-0.0239961 -0.00359738 0.00306544)
(0.0453772 0.00569985 0.0132776)
(0.707522 0.0768956 0.0385006)
(0.0392234 -0.0561462 -0.194819)
(-0.00385468 -0.341755 -0.906701)
(-0.478711 -0.0511886 -22.6519)
(0.00448766 -0.00565747 -0.0385973)
(-0.144164 -0.0153776 0.33861)
(-0.596591 -0.159141 0.978469)
(-0.538316 -0.106126 0.572487)
(-0.0103301 0.00541973 -0.00597272)
(-0.00811376 0.00456862 0.0219098)
(0.0494101 0.000386813 -0.0622469)
(-0.103206 -0.0444576 0.933787)
(-0.024095 -0.0488995 -12.6764)
(-0.206076 0.0311883 -2.46854)
(-0.128215 0.01262 -0.0622573)
(-0.0222794 0.00763771 0.00342733)
(-0.0651137 0.0141821 -0.12155)
(-0.00918012 -0.00719333 -0.0099888)
(-0.221272 0.0416136 -16.9417)
(0.188681 -0.0287506 0.00329789)
(-0.150897 -0.0293098 -3.72175)
(-0.0445343 -0.0072743 -0.0729417)
(0.0761364 0.00647777 -0.0553879)
(0.0333565 0.010201 -0.00362358)
(-0.018476 0.00769631 0.0229763)
(-0.0200352 -0.000925551 -0.0178175)
(0.00493001 0.00082159 -0.034926)
(0.00593114 0.000581385 -0.0304486)
(0.0431443 0.0249243 0.633039)