/*--------------------------------*- C++ -*----------------------------------*\
| =========                 |                                                 |
| \\      /  F ield         | OpenFOAM: The Open Source CFD Toolbox           |
|  \\    /   O peration     | Version:  v2012                                 |
|   \\  /    A nd           | Website:  www.openfoam.com                      |
|    \\/     M anipulation  |                                                 |
\*---------------------------------------------------------------------------*/
FoamFile
{
    version     2.0;
    format      ascii;
    class       surfaceScalarField;
    location    "0.8";
    object      phi;
}
// * * * * * * * * * * * * * * * * * * * * * * * * * * * * * * * * * * * * * //

dimensions      [0 3 -1 0 0 0 0];
oriented        oriented;


internalField   nonuniform List<scalar> 
6347
(
1.69906e-13
-4.09283e-12
3.39795e-18
3.92187e-13
-7.14501e-12
-4.79744e-18
7.14608e-13
-1.04595e-11
6.14112e-18
1.14357e-12
-1.40435e-11
-7.7731e-19
1.68513e-12
-1.79023e-11
6.49356e-18
2.34516e-12
-2.20433e-11
-4.44281e-18
3.12901e-12
-2.64722e-11
2.29515e-18
4.04147e-12
-3.11898e-11
-3.43308e-18
5.0865e-12
-3.62025e-11
9.99225e-19
6.26708e-12
-4.15028e-11
-1.04824e-18
7.58494e-12
-4.70878e-11
2.53817e-18
9.04046e-12
-5.29558e-11
2.18333e-18
1.06322e-11
-5.9085e-11
9.89222e-19
1.23571e-11
-6.54681e-11
1.15388e-18
1.42096e-11
-7.20757e-11
2.25852e-18
-7.88845e-11
3.38206e-18
4.40893e-14
-1.34736e-12
1.09248e-18
1.81071e-13
-4.22981e-12
-2.03074e-18
4.17858e-13
-7.3818e-12
2.98493e-18
7.61186e-13
-1.08028e-11
-2.30551e-18
1.21773e-12
-1.45e-11
4.60081e-18
1.79388e-12
-1.84784e-11
-1.04757e-18
2.4957e-12
-2.27451e-11
3.79263e-18
3.32871e-12
-2.73053e-11
-3.0595e-18
4.29777e-12
-3.21589e-11
1.19394e-18
5.40688e-12
-3.73117e-11
-2.23257e-18
6.65882e-12
-4.27547e-11
8.65106e-19
8.05515e-12
-4.8484e-11
6.93439e-19
9.59583e-12
-5.44964e-11
2.40711e-18
1.12789e-11
-6.0768e-11
3.43421e-18
1.31005e-11
-6.72897e-11
2.37504e-18
1.50543e-11
-7.40295e-11
2.31517e-18
1.71315e-11
-8.09617e-11
2.65191e-18
-8.80523e-11
3.78013e-18
4.70389e-14
-1.3944e-12
3.51045e-19
1.93118e-13
-4.37589e-12
-4.3271e-20
4.4552e-13
-7.63421e-12
4.28009e-19
8.1132e-13
-1.11686e-11
9.45293e-19
1.29754e-12
-1.49863e-11
-7.48686e-19
1.91081e-12
-1.90917e-11
1.57839e-18
2.65747e-12
-2.34917e-11
-1.53268e-19
3.54318e-12
-2.8191e-11
1.84076e-18
4.57285e-12
-3.31885e-11
-2.36563e-19
5.75045e-12
-3.84893e-11
1.1743e-18
7.07862e-12
-4.40829e-11
-5.96491e-19
8.55859e-12
-4.9964e-11
1.47645e-18
1.01899e-11
-5.61277e-11
3.57331e-19
1.197e-11
-6.2548e-11
3.95138e-18
1.38941e-11
-6.92139e-11
1.47621e-18
1.59548e-11
-7.60903e-11
2.2669e-18
1.81423e-11
-8.31491e-11
1.53927e-18
2.04435e-11
-9.03534e-11
4.78525e-18
-9.76601e-11
4.42301e-18
5.02116e-14
-1.44461e-12
-3.09794e-19
2.06089e-13
-4.53177e-12
1.1171e-18
4.75317e-13
-7.90343e-12
-6.59944e-19
8.65323e-13
-1.15586e-11
1.87609e-18
1.38347e-12
-1.55044e-11
-7.63178e-19
2.03668e-12
-1.97449e-11
5.86386e-19
2.83151e-12
-2.42865e-11
3.9131e-19
3.77376e-12
-2.91333e-11
1.37104e-18
4.86841e-12
-3.42832e-11
1.16906e-18
6.11934e-12
-3.97402e-11
2.92736e-19
7.52899e-12
-4.54926e-11
5.31699e-19
9.09821e-12
-5.15331e-11
4.1136e-19
1.0826e-11
-5.78555e-11
2.92672e-19
1.27091e-11
-6.44311e-11
3.06747e-18
1.47418e-11
-7.12466e-11
1.87829e-18
1.69157e-11
-7.82641e-11
2.49835e-18
1.92193e-11
-8.54527e-11
2.09215e-18
2.16382e-11
-9.27722e-11
5.57538e-18
-1.00176e-10
4.54828e-18
5.3648e-14
-1.49826e-12
4.39401e-19
2.20119e-13
-4.69824e-12
-3.39375e-19
5.07507e-13
-8.19083e-12
1.31638e-18
9.23625e-13
-1.19747e-11
-8.25771e-19
1.47618e-12
-1.6057e-11
1.89942e-18
2.1724e-12
-2.04411e-11
-1.43614e-18
3.01905e-12
-2.51332e-11
1.61701e-18
4.02208e-12
-3.01363e-11
3.66969e-19
5.18647e-12
-3.54476e-11
2.29579e-18
6.51599e-12
-4.10698e-11
-2.01004e-19
8.01282e-12
-4.69894e-11
1.14353e-18
9.67737e-12
-5.31976e-11
-4.47771e-19
1.1508e-11
-5.96862e-11
-1.15464e-19
1.35006e-11
-6.64236e-11
1.27533e-18
1.56485e-11
-7.33945e-11
5.53943e-19
1.79419e-11
-8.05575e-11
1.11676e-18
2.03678e-11
-8.78786e-11
1.0716e-18
2.29101e-11
-9.53144e-11
5.56815e-18
-1.02815e-10
5.02021e-18
5.73676e-14
-1.55563e-12
1.74365e-19
2.35292e-13
-4.87617e-12
5.17316e-19
5.42303e-13
-8.49784e-12
-3.05227e-19
9.86616e-13
-1.24191e-11
1.45784e-18
1.57631e-12
-1.66467e-11
-7.70226e-19
2.31887e-12
-2.11837e-11
1.58597e-18
3.22135e-12
-2.60356e-11
-6.07121e-19
4.28977e-12
-3.12047e-11
2.51495e-18
5.52909e-12
-3.66869e-11
-6.47024e-19
6.94293e-12
-4.24836e-11
1.39898e-18
8.53315e-12
-4.85796e-11
-8.95035e-19
1.02996e-11
-5.4964e-11
7.96617e-19
1.224e-11
-6.16266e-11
-8.50882e-19
1.43492e-11
-6.85328e-11
2.1797e-18
1.66192e-11
-7.56645e-11
-4.2127e-19
1.90389e-11
-8.29772e-11
1.18269e-18
2.15937e-11
-9.04333e-11
2.90719e-19
2.42653e-11
-9.79859e-11
5.91851e-18
-1.05582e-10
5.15348e-18
6.13933e-14
-1.61702e-12
3.4433e-19
2.51723e-13
-5.0665e-12
-2.41942e-19
5.79986e-13
-8.8261e-12
1.35683e-18
1.05481e-12
-1.28939e-11
-1.87593e-18
1.68465e-12
-1.72765e-11
3.57496e-18
2.4773e-12
-2.19764e-11
-2.00354e-18
3.44001e-12
-2.69983e-11
4.81795e-18
4.5789e-12
-3.23436e-11
-7.92162e-19
5.89885e-12
-3.80068e-11
3.11992e-18
7.4033e-12
-4.39881e-11
-2.06823e-18
9.09366e-12
-5.027e-11
1.15296e-18
1.09692e-11
-5.68395e-11
-1.89221e-18
1.30267e-11
-6.36841e-11
2.39969e-20
1.526e-11
-7.0766e-11
5.41071e-19
1.76597e-11
-7.80643e-11
-1.20811e-19
2.0213e-11
-8.55305e-11
4.89255e-19
2.29034e-11
-9.31237e-11
4.5716e-19
2.57105e-11
-1.00793e-10
5.52056e-18
-1.08481e-10
5.18771e-18
6.57648e-14
-1.68278e-12
-7.6476e-19
2.69548e-13
-5.27029e-12
2.46468e-18
6.20841e-13
-9.17739e-12
-2.47371e-18
1.1287e-12
-1.34017e-11
3.66491e-18
1.80199e-12
-1.79498e-11
-3.08168e-18
2.6488e-12
-2.28232e-11
4.63078e-18
3.67655e-12
-2.8026e-11
-1.52278e-18
4.89139e-12
-3.35585e-11
1.6236e-18
6.29826e-12
-3.94136e-11
1.03217e-18
7.90017e-12
-4.559e-11
1.2294e-18
9.69806e-12
-5.20679e-11
-1.62476e-18
1.16905e-11
-5.88319e-11
-5.08796e-20
1.38731e-11
-6.58668e-11
-2.28664e-18
1.62386e-11
-7.31315e-11
1.47609e-18
1.87761e-11
-8.06017e-11
-1.91568e-18
2.14707e-11
-8.82251e-11
9.90522e-19
2.43039e-11
-9.59569e-11
-7.18536e-19
2.7253e-11
-1.03742e-10
5.49696e-18
-1.11519e-10
5.17144e-18
7.05227e-14
-1.75331e-12
1.20125e-18
2.88938e-13
-5.4887e-12
-2.25353e-18
6.65252e-13
-9.55372e-12
3.37363e-18
1.20898e-12
-1.39455e-11
-4.74533e-18
1.92942e-12
-1.86702e-11
5.07751e-18
2.83494e-12
-2.37287e-11
-1.49473e-18
3.93309e-12
-2.91242e-11
5.67569e-18
5.23009e-12
-3.48555e-11
-2.73449e-18
6.73071e-12
-4.09142e-11
5.34545e-18
8.4376e-12
-4.72969e-11
-2.82775e-18
1.03511e-11
-5.39814e-11
9.69072e-19
1.24688e-11
-6.09495e-11
-2.5225e-18
1.47853e-11
-6.81834e-11
-1.10756e-18
1.72918e-11
-7.56379e-11
-8.85528e-19
1.99755e-11
-8.32855e-11
-2.17226e-18
2.28196e-11
-9.10693e-11
-3.33195e-19
2.58031e-11
-9.89404e-11
-1.01654e-18
2.89008e-11
-1.0684e-10
4.84163e-18
-1.14701e-10
4.64025e-18
7.56941e-14
-1.829e-12
-2.19483e-19
3.10018e-13
-5.72303e-12
8.97821e-19
7.13538e-13
-9.95724e-12
-7.06471e-19
1.29624e-12
-1.45282e-11
7.90545e-19
2.06784e-12
-1.94418e-11
-4.2451e-19
3.03698e-12
-2.46978e-11
2.73259e-18
4.21142e-12
-3.02986e-11
5.96662e-19
5.5973e-12
-3.62415e-11
-2.44313e-20
7.19921e-12
-4.2516e-11
1.68349e-18
9.01932e-12
-4.9117e-11
-2.58267e-19
1.10572e-11
-5.60193e-11
-1.98875e-18
1.33094e-11
-6.32017e-11
-6.32373e-19
1.57693e-11
-7.06433e-11
-2.45874e-18
1.84261e-11
-7.82947e-11
-7.62825e-19
2.12653e-11
-8.61247e-11
-3.68267e-18
2.42677e-11
-9.40716e-11
-1.35669e-19
2.74094e-11
-1.02082e-10
-2.24987e-18
3.06624e-11
-1.10093e-10
4.21573e-18
-1.18032e-10
3.80475e-18
8.13524e-14
-1.91036e-12
-2.01241e-19
3.33055e-13
-5.97473e-12
5.25794e-19
7.66266e-13
-1.03905e-11
-6.85288e-20
1.39146e-12
-1.51534e-11
-4.20098e-19
2.21879e-12
-2.02692e-11
1.29803e-18
3.25717e-12
-2.57362e-11
8.82248e-19
4.51447e-12
-3.15559e-11
2.39297e-18
5.99675e-12
-3.77238e-11
-2.72367e-18
7.70828e-12
-4.42275e-11
2.2051e-18
9.65066e-12
-5.10594e-11
-2.89315e-18
1.18225e-11
-5.81912e-11
-1.99707e-18
1.42193e-11
-6.55984e-11
-2.40361e-18
1.68327e-11
-7.32568e-11
-2.93005e-18
1.96501e-11
-8.11121e-11
-2.27887e-18
2.26545e-11
-8.91292e-11
-4.55317e-18
2.58242e-11
-9.72413e-11
-6.37954e-19
2.91323e-11
-1.0539e-10
-2.977e-18
3.25474e-11
-1.13508e-10
2.78185e-18
-1.21518e-10
2.03221e-18
8.75202e-14
-1.99788e-12
4.42849e-19
3.58181e-13
-6.24539e-12
-8.7894e-19
8.23762e-13
-1.0856e-11
1.71252e-18
1.49527e-12
-1.58249e-11
-2.06163e-18
2.38328e-12
-2.11572e-11
2.57092e-18
3.49697e-12
-2.68498e-11
-5.92998e-19
4.8443e-12
-3.29032e-11
3.18291e-18
6.43119e-12
-3.93108e-11
-3.41509e-18
8.2615e-12
-4.60578e-11
2.22084e-18
1.03361e-11
-5.3134e-11
-3.4474e-18
1.26526e-11
-6.05077e-11
-1.79282e-18
1.52049e-11
-6.81507e-11
-2.55307e-18
1.79829e-11
-7.60349e-11
-3.99765e-18
2.09718e-11
-8.4101e-11
-2.74158e-18
2.4152e-11
-9.23095e-11
-4.55331e-18
2.74987e-11
-1.00588e-10
-3.63967e-20
3.09818e-11
-1.08873e-10
-4.11102e-18
3.45661e-11
-1.17092e-10
5.8405e-19
3.82116e-11
-1.25164e-10
6.57632e-19
4.18736e-11
-1.32998e-10
1.36807e-18
4.55033e-11
-1.40506e-10
3.93923e-18
4.90491e-11
-1.47609e-10
4.80882e-18
-1.54193e-10
6.02827e-18
9.43048e-14
-2.09218e-12
-3.7914e-19
3.85778e-13
-6.53687e-12
8.40355e-19
8.86865e-13
-1.13571e-11
-8.02476e-19
1.6091e-12
-1.65472e-11
1.08685e-18
2.5635e-12
-2.21115e-11
4.83301e-19
3.75945e-12
-2.80458e-11
3.51386e-18
5.20498e-12
-3.43488e-11
9.15653e-19
6.90573e-12
-4.10117e-11
-2.34222e-18
8.86503e-12
-4.80171e-11
-1.47978e-18
1.10829e-11
-5.53519e-11
-4.47183e-18
1.35555e-11
-6.29804e-11
-5.17458e-18
1.62753e-11
-7.08704e-11
-3.04591e-18
1.92299e-11
-7.89896e-11
-6.20358e-18
2.2402e-11
-8.72731e-11
-2.22104e-18
2.57691e-11
-9.56766e-11
-5.53309e-18
2.93028e-11
-1.04122e-10
4.90891e-19
3.29695e-11
-1.1254e-10
-5.20948e-18
3.673e-11
-1.20853e-10
-3.68036e-19
4.054e-11
-1.28974e-10
-9.64036e-19
4.43506e-11
-1.36809e-10
7.47655e-19
4.81092e-11
-1.44265e-10
2.33932e-18
5.176e-11
-1.5126e-10
3.76809e-18
-1.57679e-10
5.08659e-18
1.01725e-13
-2.19391e-12
6.2172e-20
4.15977e-13
-6.85112e-12
-3.46554e-19
9.5591e-13
-1.18971e-11
8.36811e-19
1.73363e-12
-1.73249e-11
-8.14865e-19
2.76053e-12
-2.31385e-11
2.25602e-18
4.04622e-12
-2.93315e-11
-3.98866e-18
5.59881e-12
-3.59013e-11
7.01847e-18
7.42349e-12
-4.28364e-11
-7.82949e-18
9.52301e-12
-5.01165e-11
5.93952e-18
1.18962e-11
-5.7725e-11
-9.37793e-19
1.45378e-11
-6.5622e-11
-5.24746e-18
1.74381e-11
-7.37707e-11
-3.59351e-18
2.05824e-11
-8.21341e-11
-4.54305e-18
2.39505e-11
-9.06411e-11
-2.75158e-18
2.75164e-11
-9.92425e-11
-4.38754e-18
3.1248e-11
-1.07853e-10
-5.11945e-19
3.51073e-11
-1.164e-10
-5.2086e-18
3.90509e-11
-1.24796e-10
-1.68148e-18
4.30299e-11
-1.32953e-10
-1.13497e-18
4.69909e-11
-1.4077e-10
2.30055e-20
5.08768e-11
-1.48151e-10
2.01328e-18
5.46279e-11
-1.55011e-10
2.5121e-18
-1.61234e-10
3.56076e-18
1.09934e-13
-2.30384e-12
3.72891e-20
4.49345e-13
-7.19053e-12
1.55106e-19
1.03212e-12
-1.24798e-11
-3.12463e-19
1.87093e-12
-1.81637e-11
1.90559e-18
2.97758e-12
-2.42451e-11
-2.97437e-19
4.36182e-12
-3.07158e-11
5.68472e-19
6.03164e-12
-3.75711e-11
4.19408e-18
7.99173e-12
-4.47966e-11
-2.81593e-18
1.0244e-11
-5.23686e-11
1.86702e-18
1.2786e-11
-6.02669e-11
2.34744e-19
1.56105e-11
-6.84466e-11
-1.01915e-17
1.87056e-11
-7.68658e-11
-3.12754e-18
2.20537e-11
-8.54823e-11
-8.04184e-18
2.56312e-11
-9.42186e-11
-1.80216e-18
2.94083e-11
-1.0302e-10
-6.41621e-18
3.33486e-11
-1.11794e-10
1.52905e-20
3.74095e-11
-1.20461e-10
-6.90231e-18
4.15427e-11
-1.28929e-10
-1.76622e-18
4.56944e-11
-1.37104e-10
-2.72375e-18
4.98062e-11
-1.44882e-10
-7.74589e-19
5.38166e-11
-1.52161e-10
3.24827e-20
5.76616e-11
-1.58856e-10
1.14594e-18
-1.6485e-10
1.91111e-18
1.18958e-13
-2.4228e-12
4.48098e-19
4.86009e-13
-7.55758e-12
-9.15186e-19
1.11582e-12
-1.31096e-11
1.64144e-18
2.02163e-12
-1.90695e-11
-1.28353e-18
3.2157e-12
-2.54392e-11
3.1169e-18
4.70787e-12
-3.2208e-11
-2.19186e-18
6.50584e-12
-3.93691e-11
3.8428e-18
8.61372e-12
-4.69047e-11
-1.49439e-17
1.10326e-11
-5.47873e-11
1.08701e-17
1.3758e-11
-6.29924e-11
-4.72235e-18
1.6781e-11
-7.14695e-11
3.76634e-19
2.00867e-11
-8.01713e-11
2.71398e-18
2.36541e-11
-8.90499e-11
-7.45943e-18
2.74558e-11
-9.80204e-11
-2.53201e-18
3.14577e-11
-1.07022e-10
-5.29118e-18
3.56184e-11
-1.15954e-10
-8.69725e-19
3.98902e-11
-1.24732e-10
-6.43832e-18
4.42194e-11
-1.33259e-10
-2.88683e-18
4.85468e-11
-1.41432e-10
-2.40334e-18
5.28089e-11
-1.49144e-10
-1.59199e-18
5.69393e-11
-1.56291e-10
-1.63316e-19
6.08697e-11
-1.62787e-10
-4.09324e-20
-1.68513e-10
1.31482e-18
1.29024e-13
-2.55182e-12
-5.29751e-19
5.2681e-13
-7.95537e-12
1.72967e-18
1.20882e-12
-1.37916e-11
-1.86996e-18
2.18888e-12
-2.00496e-11
2.98169e-18
3.47961e-12
-2.673e-11
-1.31701e-18
5.09086e-12
-3.38193e-11
3.0494e-18
7.02995e-12
-4.13083e-11
8.09321e-19
9.30013e-12
-4.91751e-11
-9.00147e-18
1.19011e-11
-5.73881e-11
8.04482e-18
1.48266e-11
-6.59178e-11
-1.87508e-18
1.80649e-11
-7.47078e-11
-3.77968e-18
2.15981e-11
-8.37042e-11
3.61205e-18
2.54013e-11
-9.28532e-11
-1.09201e-17
2.94425e-11
-1.02062e-10
-1.34981e-18
3.36828e-11
-1.11262e-10
-7.26591e-18
3.80754e-11
-1.20347e-10
3.17894e-19
4.25668e-11
-1.29224e-10
-7.61687e-18
4.70974e-11
-1.37789e-10
-2.25743e-18
5.16022e-11
-1.45937e-10
-3.78572e-18
5.60122e-11
-1.53554e-10
-2.07561e-18
6.02559e-11
-1.60535e-10
-1.49677e-18
6.42608e-11
-1.66792e-10
-4.98683e-19
-1.72208e-10
7.74448e-19
1.40096e-13
-2.69192e-12
3.92423e-19
5.71729e-13
-8.38701e-12
-1.45271e-19
1.31121e-12
-1.45311e-11
9.96738e-19
2.37297e-12
-2.11113e-11
-4.56743e-19
3.76997e-12
-2.8127e-11
2.23344e-18
5.512e-12
-3.55613e-11
-9.70495e-19
7.60592e-12
-4.34022e-11
4.24524e-18
1.00539e-11
-5.16234e-11
-1.2599e-17
1.28541e-11
-6.01881e-11
1.10969e-17
1.59978e-11
-6.90614e-11
-4.83326e-18
1.94702e-11
-7.81803e-11
-1.21968e-18
2.32498e-11
-8.74836e-11
1.95701e-18
2.7307e-11
-9.69106e-11
-8.63008e-18
3.1605e-11
-1.0636e-10
-2.15619e-18
3.60989e-11
-1.15756e-10
-5.76175e-18
4.07358e-11
-1.24984e-10
-4.8248e-19
4.54558e-11
-1.33944e-10
-6.67893e-18
5.01928e-11
-1.42526e-10
-2.34873e-18
5.48757e-11
-1.5062e-10
-2.3212e-18
5.94295e-11
-1.58108e-10
-2.00176e-18
6.37775e-11
-1.64883e-10
-1.21915e-18
6.78431e-11
-1.70858e-10
-1.48275e-18
-1.75917e-10
6.23481e-19
1.52501e-13
-2.84442e-12
3.68227e-19
6.22027e-13
-8.85653e-12
2.0658e-19
1.42578e-12
-1.53349e-11
3.89178e-19
2.57872e-12
-2.22642e-11
8.56495e-19
4.0941e-12
-2.96423e-11
7.00245e-19
5.98139e-12
-3.74486e-11
9.82401e-19
8.24675e-12
-4.56676e-11
2.28147e-18
1.08909e-11
-5.42678e-11
-1.07818e-17
1.39098e-11
-6.32069e-11
9.02043e-18
1.72921e-11
-7.24437e-11
-3.1878e-18
2.10194e-11
-8.19075e-11
-3.15902e-18
2.50655e-11
-9.15294e-11
3.43242e-18
2.93959e-11
-1.01241e-10
-9.84761e-18
3.39678e-11
-1.10932e-10
-7.03312e-19
3.87299e-11
-1.20518e-10
-6.51372e-18
4.36226e-11
-1.29877e-10
8.00219e-19
4.85788e-11
-1.389e-10
-7.1536e-18
5.35255e-11
-1.47473e-10
-1.16462e-18
5.83846e-11
-1.55479e-10
-2.91288e-18
6.30752e-11
-1.62798e-10
-1.92815e-18
6.75154e-11
-1.69323e-10
-1.90887e-18
7.16244e-11
-1.74967e-10
-1.6395e-18
-1.79619e-10
-7.3187e-20
1.66226e-13
-3.01064e-12
4.77485e-20
6.77625e-13
-9.36794e-12
9.33781e-19
1.55234e-12
-1.62096e-11
-4.3877e-19
2.80587e-12
-2.35178e-11
1.69093e-18
4.45173e-12
-3.12882e-11
3.80008e-19
6.49901e-12
-3.94959e-11
8.43457e-19
8.95298e-12
-4.81216e-11
2.65172e-18
1.18126e-11
-5.71277e-11
-1.13256e-17
1.50716e-11
-6.64656e-11
1.00021e-17
1.87148e-11
-7.60869e-11
-3.91859e-18
2.27199e-11
-8.59125e-11
-1.97355e-18
2.70553e-11
-9.58646e-11
2.79743e-18
3.16806e-11
-1.05867e-10
-8.83097e-18
3.6546e-11
-1.15797e-10
-1.24304e-18
4.1593e-11
-1.25565e-10
-5.37909e-18
4.67541e-11
-1.35038e-10
1.08586e-18
5.19543e-11
-1.44101e-10
-6.14733e-18
5.71131e-11
-1.52632e-10
-5.67999e-19
6.21452e-11
-1.60511e-10
-1.02884e-18
6.69632e-11
-1.67616e-10
-1.35282e-18
7.148e-11
-1.7384e-10
-1.46412e-18
7.56113e-11
-1.79098e-10
-2.3648e-18
-1.83286e-10
-2.92713e-19
1.81753e-13
-3.1924e-12
4.51474e-19
7.40488e-13
-9.92667e-12
6.12103e-20
1.69529e-12
-1.71644e-11
7.86254e-19
3.06212e-12
-2.48846e-11
1.08286e-19
4.85451e-12
-3.30806e-11
1.55857e-18
7.08088e-12
-4.17223e-11
-3.1923e-19
9.7451e-12
-5.07859e-11
3.2807e-18
1.28439e-11
-6.02267e-11
-1.17402e-17
1.63677e-11
-6.99892e-11
1.04282e-17
2.02974e-11
-8.00166e-11
-3.3355e-18
2.46053e-11
-9.02204e-11
-1.57036e-18
2.92539e-11
-1.00513e-10
3.04476e-18
3.41959e-11
-1.10809e-10
-9.15226e-18
3.93737e-11
-1.20975e-10
-1.26864e-18
4.47205e-11
-1.30912e-10
-6.29917e-18
5.01603e-11
-1.40477e-10
1.70919e-18
5.56096e-11
-1.4955e-10
-6.38795e-18
6.09795e-11
-1.58002e-10
3.4798e-19
6.61772e-11
-1.65709e-10
-1.32776e-18
7.11088e-11
-1.72548e-10
-1.26791e-18
7.56822e-11
-1.78413e-10
-1.79644e-18
7.98097e-11
-1.83226e-10
-2.39793e-18
-1.86887e-10
-8.87307e-19
1.99002e-13
-3.3914e-12
3.255e-19
8.10179e-13
-1.05379e-11
3.97098e-19
1.85359e-12
-1.82078e-11
1.65884e-19
3.34563e-12
-2.63766e-11
1.20314e-18
5.29988e-12
-3.50349e-11
1.43863e-19
7.7239e-12
-4.41463e-11
9.22989e-19
1.062e-11
-5.3682e-11
1.50191e-18
1.39822e-11
-6.35892e-11
-1.06938e-17
1.77972e-11
-7.38041e-11
8.9201e-18
2.20412e-11
-8.42604e-11
-2.86655e-18
2.66801e-11
-9.48593e-11
-1.31074e-18
3.16695e-11
-1.05502e-10
3.25834e-18
3.69536e-11
-1.16093e-10
-7.46926e-18
4.24659e-11
-1.26487e-10
1.04342e-19
4.81303e-11
-1.36576e-10
-6.3033e-18
5.38608e-11
-1.46208e-10
1.91287e-18
5.95644e-11
-1.55254e-10
-6.42783e-18
6.51434e-11
-1.63581e-10
7.51589e-19
7.04969e-11
-1.71063e-10
-3.03421e-19
7.55249e-11
-1.77576e-10
-7.77238e-19
8.01304e-11
-1.83018e-10
-1.38985e-18
8.42229e-11
-1.87319e-10
-2.92844e-18
-1.90386e-10
-1.43535e-18
2.18726e-13
-3.61012e-12
7.80405e-20
8.89861e-13
-1.1209e-11
4.79483e-19
2.03442e-12
-1.93524e-11
2.16059e-19
3.66904e-12
-2.80112e-11
5.55449e-19
5.80696e-12
-3.71728e-11
1.1238e-18
8.4543e-12
-4.67937e-11
-4.07586e-19
1.1611e-11
-5.68387e-11
2.79488e-18
1.52675e-11
-6.72459e-11
-1.18476e-17
1.94058e-11
-7.79422e-11
1.04241e-17
2.39957e-11
-8.88503e-11
-3.37023e-18
2.89962e-11
-9.98598e-11
4.33158e-20
3.43543e-11
-1.1086e-10
2.66763e-18
4.00048e-11
-1.21744e-10
-6.98159e-18
4.58714e-11
-1.32354e-10
-1.12796e-18
5.18671e-11
-1.42572e-10
-7.11189e-18
5.78955e-11
-1.52236e-10
1.208e-18
6.38532e-11
-1.61212e-10
-7.28964e-18
6.96332e-11
-1.69361e-10
9.75434e-19
7.51267e-11
-1.76556e-10
-2.95747e-19
8.0227e-11
-1.82676e-10
-5.14098e-19
8.48331e-11
-1.87624e-10
-1.25518e-18
8.88529e-11
-1.91339e-10
-2.55528e-18
-1.9374e-10
-1.37419e-18
2.40629e-13
-3.85075e-12
1.12438e-19
9.78208e-13
-1.19466e-11
9.17034e-20
2.23474e-12
-2.06089e-11
-3.03639e-19
4.02708e-12
-2.98036e-11
7.28133e-19
6.36809e-12
-3.95138e-11
-1.65895e-19
9.26224e-12
-4.96878e-11
3.84306e-19
1.27069e-11
-6.02834e-11
1.48246e-18
1.66883e-11
-7.12275e-11
-9.33928e-18
2.11828e-11
-8.24365e-11
8.7997e-18
2.61532e-11
-9.38207e-11
-2.36222e-18
3.15498e-11
-1.05256e-10
-1.8199e-18
3.73096e-11
-1.16619e-10
2.93326e-18
4.33564e-11
-1.27791e-10
-7.06853e-18
4.96018e-11
-1.38599e-10
-7.34317e-19
5.59467e-11
-1.48917e-10
-5.92366e-18
6.22826e-11
-1.58572e-10
2.85709e-18
6.8495e-11
-1.67424e-10
-6.97063e-18
7.44667e-11
-1.75333e-10
1.76256e-18
8.00807e-11
-1.82171e-10
-3.45043e-19
8.52246e-11
-1.8782e-10
-6.65461e-19
8.97942e-11
-1.92194e-10
-1.16986e-18
9.36968e-11
-1.95242e-10
-2.89842e-18
-1.96898e-10
-2.11617e-18
2.65974e-13
-4.11673e-12
1.56179e-20
1.0806e-12
-1.27612e-11
-4.54298e-19
2.46683e-12
-2.19952e-11
-6.64815e-19
4.44133e-12
-3.1778e-11
3.04806e-19
7.01579e-12
-4.20883e-11
-1.03172e-18
1.01921e-11
-5.28641e-11
-7.88865e-19
1.39636e-11
-6.4055e-11
2.87047e-18
1.83109e-11
-7.5575e-11
-1.03554e-17
2.32031e-11
-8.73284e-11
1.0613e-17
2.8594e-11
-9.92115e-11
-3.18775e-18
3.44236e-11
-1.11086e-10
-1.14468e-19
4.06173e-11
-1.22813e-10
2.68841e-18
4.70862e-11
-1.3426e-10
-5.76444e-18
5.37288e-11
-1.45242e-10
-1.41e-18
6.04328e-11
-1.55621e-10
-5.46801e-18
6.70767e-11
-1.65216e-10
2.52183e-18
7.35342e-11
-1.73882e-10
-7.12056e-18
7.96779e-11
-1.81476e-10
1.88536e-18
8.5383e-11
-1.87876e-10
8.16925e-20
9.05317e-11
-1.92969e-10
-2.01283e-19
9.50178e-11
-1.9668e-10
-9.49425e-19
9.87497e-11
-1.98974e-10
-2.77143e-18
-1.99803e-10
-2.33497e-18
2.94193e-13
-4.41092e-12
-2.91208e-19
1.19421e-12
-1.36612e-11
-5.14262e-19
2.7239e-12
-2.35249e-11
-1.74698e-18
4.89969e-12
-3.39538e-11
6.83481e-19
7.73214e-12
-4.49208e-11
-2.75112e-18
1.12202e-11
-5.63522e-11
3.66122e-19
1.53531e-11
-6.81879e-11
1.27923e-18
2.01046e-11
-8.03268e-11
-8.80753e-18
2.54358e-11
-9.26594e-11
8.39514e-18
3.12899e-11
-1.05066e-10
-2.58594e-18
3.75948e-11
-1.17391e-10
-6.90415e-19
4.42618e-11
-1.29479e-10
3.59219e-18
5.11871e-11
-1.41185e-10
-5.92401e-18
5.82533e-11
-1.52308e-10
-9.01209e-19
6.53328e-11
-1.62701e-10
-5.46693e-18
7.22895e-11
-1.72173e-10
2.85538e-18
7.89842e-11
-1.80576e-10
-7.12577e-18
8.52791e-11
-1.87771e-10
1.84116e-18
9.10417e-11
-1.93639e-10
-1.052e-19
9.61505e-11
-1.98078e-10
-3.8042e-19
1.00499e-10
-2.01028e-10
-9.553e-19
1.03998e-10
-2.02473e-10
-2.89098e-18
-2.02389e-10
-2.90513e-18
3.27626e-13
-4.73855e-12
-5.15404e-19
1.32868e-12
-1.46623e-11
-7.77109e-19
3.02766e-12
-2.52238e-11
-1.59826e-18
5.43993e-12
-3.6366e-11
-1.48424e-19
8.57377e-12
-4.80547e-11
-1.55876e-18
1.24234e-11
-6.02019e-11
-2.91385e-19
1.69714e-11
-7.27359e-11
3.11069e-18
2.21826e-11
-8.55383e-11
-9.42518e-18
2.80071e-11
-9.84837e-11
1.05927e-17
3.4375e-11
-1.11433e-10
-2.21886e-18
4.11992e-11
-1.24215e-10
1.27547e-18
4.83749e-11
-1.36655e-10
3.83194e-18
5.57816e-11
-1.48592e-10
-4.52784e-18
6.32849e-11
-1.59811e-10
-4.39757e-19
7.07406e-11
-1.70156e-10
-4.47635e-18
7.79976e-11
-1.7943e-10
3.17601e-18
8.49039e-11
-1.87483e-10
-6.57992e-18
9.13116e-11
-1.94179e-10
1.96177e-18
9.70819e-11
-1.99409e-10
3.0341e-19
1.02091e-10
-2.03087e-10
1.92382e-19
1.06233e-10
-2.0517e-10
-3.29782e-19
1.09426e-10
-2.05667e-10
-2.23399e-18
-2.04578e-10
-2.48531e-18
3.64583e-13
-5.10313e-12
-7.41359e-19
1.47715e-12
-1.57749e-11
-6.76799e-19
3.36275e-12
-2.71094e-11
-2.53854e-18
6.03561e-12
-3.90388e-11
1.01434e-18
9.50159e-12
-5.15208e-11
-2.37262e-18
1.37498e-11
-6.44502e-11
1.76966e-18
1.87561e-11
-7.77422e-11
1.56164e-18
2.44751e-11
-9.12575e-11
-8.55112e-18
3.08444e-11
-1.04853e-10
1.00927e-17
3.77786e-11
-1.18368e-10
-1.24247e-18
4.51734e-11
-1.3161e-10
3.1912e-19
5.29043e-11
-1.44385e-10
2.76476e-18
6.08306e-11
-1.56519e-10
-4.41906e-18
6.87975e-11
-1.67778e-10
-3.40056e-19
7.66417e-11
-1.78001e-10
-4.01751e-18
8.4195e-11
-1.86983e-10
3.39863e-18
9.12915e-11
-1.94579e-10
-6.08859e-18
9.77737e-11
-2.00661e-10
2.01075e-18
1.03498e-10
-2.05133e-10
1.82363e-19
1.08339e-10
-2.07929e-10
-9.61028e-20
1.12199e-10
-2.0903e-10
-4.35553e-19
1.15004e-10
-2.08472e-10
-2.23609e-18
-2.06286e-10
-2.67439e-18
4.09462e-13
-5.51259e-12
-1.315e-19
1.65712e-12
-1.70225e-11
-2.31289e-18
3.76806e-12
-2.92204e-11
-6.2839e-19
6.75389e-12
-4.20246e-11
-1.58824e-18
1.06159e-11
-5.53828e-11
-1.65596e-18
1.53349e-11
-6.91692e-11
-9.5419e-19
2.08759e-11
-8.32832e-11
2.80023e-18
2.71791e-11
-9.75609e-11
-8.16709e-18
3.41653e-11
-1.11839e-10
1.16452e-17
4.17294e-11
-1.25932e-10
5.5278e-19
4.97461e-11
-1.39627e-10
1.94983e-18
5.80683e-11
-1.52707e-10
4.90354e-18
6.65332e-11
-1.64984e-10
-3.08297e-18
7.49644e-11
-1.76209e-10
-3.16995e-20
8.31793e-11
-1.86216e-10
-3.89873e-18
9.09929e-11
-1.94797e-10
3.89074e-18
9.8227e-11
-2.01814e-10
-5.66311e-18
1.04716e-10
-2.0715e-10
2.35454e-18
1.10314e-10
-2.10731e-10
6.97593e-19
1.14899e-10
-2.12514e-10
5.90957e-19
1.1838e-10
-2.1251e-10
2.09073e-19
1.20697e-10
-2.1079e-10
-1.66115e-18
-2.07416e-10
-2.30967e-18
4.58677e-13
-5.97127e-12
-1.47431e-18
1.85445e-12
-1.84183e-11
2.18612e-20
4.21225e-12
-3.15782e-11
-2.82509e-18
7.5408e-12
-4.53532e-11
4.68006e-20
1.18368e-11
-5.96788e-11
-2.48253e-18
1.70724e-11
-7.44047e-11
4.53942e-18
2.32011e-11
-8.9412e-11
-1.4067e-18
3.01476e-11
-1.04508e-10
-6.04713e-18
3.78137e-11
-1.19505e-10
6.60525e-18
4.60715e-11
-1.3419e-10
-7.39673e-18
5.4771e-11
-1.48326e-10
4.37798e-18
6.37379e-11
-1.61673e-10
3.5991e-18
7.27823e-11
-1.74029e-10
-2.02784e-18
8.17017e-11
-1.85129e-10
-1.8782e-18
9.02905e-11
-1.94805e-10
-3.9207e-18
9.83453e-11
-2.02851e-10
3.72174e-18
1.05675e-10
-2.09143e-10
-5.14599e-18
1.12107e-10
-2.13582e-10
2.30138e-18
1.17496e-10
-2.1612e-10
8.04443e-19
1.21729e-10
-2.16746e-10
3.71777e-19
1.24727e-10
-2.15508e-10
1.02089e-20
1.26449e-10
-2.12513e-10
-1.67346e-18
-2.07862e-10
-2.11663e-18
5.20371e-13
-6.49164e-12
-6.3364e-19
2.10105e-12
-1.9999e-11
-1.15153e-18
4.7657e-12
-3.42428e-11
-2.02809e-18
8.5174e-12
-4.91049e-11
-3.97006e-19
1.33441e-11
-6.45055e-11
-4.78524e-18
1.92037e-11
-8.02642e-11
4.85201e-18
2.60317e-11
-9.62401e-11
-5.71775e-18
3.37292e-11
-1.12205e-10
-5.88405e-18
4.21722e-11
-1.27948e-10
4.87439e-18
5.12033e-11
-1.43221e-10
-4.09517e-18
6.06421e-11
-1.57765e-10
4.0645e-18
7.02837e-11
-1.71314e-10
5.98438e-18
7.99095e-11
-1.83655e-10
-1.89318e-18
8.92908e-11
-1.9451e-10
-2.4095e-20
9.82008e-11
-2.03715e-10
-3.31354e-18
1.0642e-10
-2.1107e-10
4.241e-18
1.13748e-10
-2.16471e-10
-4.97746e-18
1.2001e-10
-2.19845e-10
2.67481e-18
1.25067e-10
-2.21177e-10
1.21379e-18
1.28817e-10
-2.20496e-10
1.0703e-18
1.312e-10
-2.17891e-10
1.06041e-18
1.32201e-10
-2.13513e-10
-5.40844e-19
-2.07504e-10
-1.01339e-18
5.87517e-13
-7.07916e-12
7.67446e-19
2.36916e-12
-2.17806e-11
-4.00203e-18
5.36673e-12
-3.72404e-11
2.86269e-18
9.57724e-12
-5.33154e-11
-5.33395e-18
1.49799e-11
-6.99083e-11
2.8673e-18
2.15177e-11
-8.6802e-11
-3.72677e-18
2.91081e-11
-1.0383e-10
4.56499e-18
3.7627e-11
-1.20724e-10
2.03767e-18
4.69216e-11
-1.37242e-10
6.61979e-19
5.68008e-11
-1.531e-10
-4.46554e-18
6.70488e-11
-1.68013e-10
-2.06722e-18
7.74231e-11
-1.81688e-10
-5.46171e-18
8.76702e-11
-1.93902e-10
-4.36531e-19
9.7529e-11
-2.04368e-10
-1.054e-18
1.06747e-10
-2.12933e-10
-1.70615e-18
1.15087e-10
-2.1941e-10
3.10428e-18
1.22341e-10
-2.23725e-10
-4.71107e-18
1.28335e-10
-2.25839e-10
2.62364e-18
1.32941e-10
-2.25784e-10
1.18106e-18
1.36077e-10
-2.23632e-10
7.47905e-19
1.37711e-10
-2.19525e-10
4.42902e-19
1.37856e-10
-2.13659e-10
-9.93451e-19
-2.06221e-10
-1.14563e-18
6.74817e-13
-7.75397e-12
-1.95678e-18
2.7166e-12
-2.38224e-11
2.81431e-18
6.14302e-12
-4.06668e-11
-5.14995e-18
1.09397e-11
-5.81121e-11
4.7404e-18
1.70698e-11
-7.60385e-11
-5.80651e-18
2.44508e-11
-9.41829e-11
2.63166e-18
3.297e-11
-1.12349e-10
-4.39931e-18
4.24651e-11
-1.3022e-10
3.94176e-18
5.27428e-11
-1.4752e-10
-3.63304e-18
6.35673e-11
-1.63925e-10
-5.23076e-19
7.46799e-11
-1.79126e-10
-3.04887e-18
8.57965e-11
-1.92804e-10
-3.39454e-18
9.66285e-11
-2.04734e-10
-7.48605e-19
1.06885e-10
-2.14625e-10
8.40292e-19
1.16295e-10
-2.22343e-10
-8.85189e-19
1.2461e-10
-2.27725e-10
3.46314e-18
1.31621e-10
-2.30736e-10
-4.40025e-18
1.37166e-10
-2.31384e-10
2.7719e-18
1.41136e-10
-2.29753e-10
1.6951e-18
1.43476e-10
-2.25972e-10
1.13593e-18
1.44187e-10
-2.20235e-10
1.02141e-18
1.4332e-10
-2.12793e-10
-7.43574e-19
-2.03876e-10
-8.09723e-19
7.68779e-13
-8.52275e-12
1.73635e-19
3.08972e-12
-2.61434e-11
-8.60554e-19
6.97508e-12
-4.45522e-11
7.45573e-19
1.23982e-11
-6.35352e-11
-1.31389e-18
1.93062e-11
-8.29465e-11
9.53813e-19
2.75905e-11
-1.02467e-10
-1.93632e-18
3.71086e-11
-1.21867e-10
8.14088e-19
4.76577e-11
-1.40769e-10
1.02244e-18
5.90012e-11
-1.58863e-10
-1.74245e-18
7.08526e-11
-1.75777e-10
-2.5957e-18
8.29037e-11
-1.91177e-10
-1.39783e-18
9.48195e-11
-2.0472e-10
-4.54968e-18
1.06268e-10
-2.16183e-10
-2.52451e-19
1.16921e-10
-2.25278e-10
-2.82047e-19
1.26482e-10
-2.31905e-10
-1.15469e-18
1.34693e-10
-2.35936e-10
3.47955e-18
1.41348e-10
-2.37391e-10
-4.2726e-18
1.46301e-10
-2.36338e-10
2.76082e-18
1.49473e-10
-2.32926e-10
1.1293e-18
1.50848e-10
-2.27346e-10
7.63358e-19
1.50471e-10
-2.19858e-10
1.38359e-19
1.4844e-10
-2.10762e-10
-1.25385e-18
-2.00338e-10
-1.22614e-18
8.96038e-13
-9.41879e-12
9.55488e-19
3.5942e-12
-2.88415e-11
-1.4159e-18
8.09684e-12
-4.90549e-11
1.66911e-18
1.43547e-11
-6.9793e-11
-1.43332e-18
2.22848e-11
-9.08767e-11
5.42409e-19
3.1733e-11
-1.11915e-10
-9.46819e-19
4.25054e-11
-1.3264e-10
1.50707e-19
5.43353e-11
-1.52599e-10
2.44615e-18
6.6923e-11
-1.71451e-10
-1.77353e-18
7.99139e-11
-1.88768e-10
-1.31511e-18
9.29408e-11
-2.04204e-10
-3.22093e-20
1.05614e-10
-2.17393e-10
-3.32652e-18
1.17563e-10
-2.28132e-10
9.09559e-19
1.28432e-10
-2.36147e-10
-7.94323e-19
1.37916e-10
-2.41389e-10
-7.61113e-19
1.4576e-10
-2.4378e-10
3.00156e-18
1.5178e-10
-2.43411e-10
-3.45972e-18
1.55862e-10
-2.4042e-10
2.55099e-18
1.57969e-10
-2.35032e-10
2.09221e-18
1.58132e-10
-2.2751e-10
1.12345e-18
1.56452e-10
-2.18177e-10
8.99298e-19
1.53077e-10
-2.07388e-10
-9.97216e-19
-1.95464e-10
-5.82902e-19
1.03142e-12
-1.04502e-11
-4.79909e-19
4.12824e-12
-3.19384e-11
2.02621e-18
9.27998e-12
-5.42066e-11
-2.20821e-18
1.64126e-11
-7.69257e-11
2.37344e-18
2.54133e-11
-9.98775e-11
-2.94057e-18
3.60817e-11
-1.22584e-10
2.34688e-18
4.81739e-11
-1.44732e-10
-2.30944e-18
6.1357e-11
-1.65782e-10
4.29099e-18
7.52662e-11
-1.8536e-10
-3.46047e-18
8.9471e-11
-2.02973e-10
3.59339e-19
1.03538e-10
-2.18271e-10
-2.31025e-18
1.1701e-10
-2.30864e-10
-2.92784e-18
1.29468e-10
-2.4059e-10
-6.57676e-20
1.40519e-10
-2.47198e-10
1.12234e-19
1.49847e-10
-2.50717e-10
-1.33668e-18
1.572e-10
-2.51133e-10
3.70077e-18
1.62422e-10
-2.48634e-10
-3.38774e-18
1.65444e-10
-2.43441e-10
3.17396e-18
1.66283e-10
-2.35872e-10
6.9734e-19
1.65038e-10
-2.26265e-10
5.89605e-19
1.61874e-10
-2.15012e-10
-2.29698e-19
1.57003e-10
-2.02517e-10
-1.5e-18
-1.89137e-10
-1.49134e-18
1.22425e-12
-1.16745e-11
6.31548e-19
4.88815e-12
-3.56023e-11
-3.79913e-20
1.0959e-11
-6.02775e-11
1.36577e-18
1.93175e-11
-8.52842e-11
-1.52046e-18
2.97942e-11
-1.10354e-10
1.56537e-18
4.21048e-11
-1.34894e-10
-2.01133e-18
5.59169e-11
-1.58544e-10
2.34015e-18
7.07891e-11
-1.80654e-10
9.67433e-19
8.62581e-11
-2.00829e-10
7.32812e-19
1.01791e-10
-2.18506e-10
-2.43593e-18
1.16876e-10
-2.33357e-10
9.49398e-19
1.30992e-10
-2.44979e-10
-4.66642e-18
1.43687e-10
-2.53286e-10
2.3892e-18
1.54558e-10
-2.58069e-10
-1.27039e-18
1.63306e-10
-2.59465e-10