/*--------------------------------*- C++ -*----------------------------------*\
| =========                 |                                                 |
| \\      /  F ield         | OpenFOAM: The Open Source CFD Toolbox           |
|  \\    /   O peration     | Version:  v2012                                 |
|   \\  /    A nd           | Website:  www.openfoam.com                      |
|    \\/     M anipulation  |                                                 |
\*---------------------------------------------------------------------------*/
FoamFile
{
    version     2.0;
    format      ascii;
    class       surfaceScalarField;
    location    "0.95";
    object      phi;
}
// * * * * * * * * * * * * * * * * * * * * * * * * * * * * * * * * * * * * * //

dimensions      [0 3 -1 0 0 0 0];
oriented        oriented;


internalField   nonuniform List<scalar> 
8162
(
3.67806e-11
-4.12108e-10
1.69227e-16
4.27072e-11
-4.64087e-10
4.757e-16
4.92232e-11
-5.20339e-10
4.40884e-16
5.63386e-11
-5.80932e-10
3.95469e-16
6.40567e-11
-6.46073e-10
3.45651e-16
7.23705e-11
-7.15798e-10
3.35798e-16
8.12631e-11
-7.9022e-10
3.19681e-16
9.07051e-11
-8.69376e-10
3.88108e-16
1.00653e-10
-9.53173e-10
3.65396e-16
1.11049e-10
-1.04173e-09
4.05035e-16
1.21817e-10
-1.13475e-09
3.56642e-16
1.32865e-10
-1.23219e-09
4.20133e-16
1.44085e-10
-1.33381e-09
3.4489e-16
1.55346e-10
-1.43928e-09
3.83382e-16
1.66502e-10
-1.54824e-09
2.72683e-16
1.77388e-10
-1.66022e-09
3.18463e-16
1.87821e-10
-1.77475e-09
1.51581e-16
1.97603e-10
-1.89112e-09
1.57774e-16
2.06528e-10
-2.00869e-09
-1.797e-17
-2.12658e-09
2.15397e-18
2.82676e-11
-3.2472e-10
-9.26501e-17
3.33481e-11
-3.69283e-10
-1.71195e-16
3.90088e-11
-4.1777e-10
-5.27202e-17
4.52728e-11
-4.7035e-10
1.73783e-16
5.21555e-11
-5.2722e-10
2.86838e-16
5.96658e-11
-5.88441e-10
2.84965e-16
6.78056e-11
-6.54212e-10
3.61287e-16
7.6566e-11
-7.24556e-10
3.50153e-16
8.59276e-11
-7.99579e-10
4.51429e-16
9.58575e-11
-8.79303e-10
4.65782e-16
1.06308e-10
-9.63621e-10
5.56806e-16
1.17217e-10
-1.05263e-09
4.96718e-16
1.28503e-10
-1.14604e-09
5.68625e-16
1.40066e-10
-1.24375e-09
4.83317e-16
1.51792e-10
-1.34553e-09
5.48301e-16
1.63542e-10
-1.45103e-09
4.06466e-16
1.75161e-10
-1.55985e-09
4.68969e-16
1.86475e-10
-1.67153e-09
3.03388e-16
1.97293e-10
-1.78557e-09
3.50595e-16
2.07409e-10
-1.90124e-09
1.25612e-16
2.16606e-10
-2.01788e-09
1.88929e-16
-2.13463e-09
-4.3131e-17
7.70345e-15
-5.6098e-13
4.16826e-18
5.37852e-14
-3.18455e-12
5.42012e-19
1.67361e-13
-7.66239e-12
-1.56548e-18
3.75019e-13
-1.38421e-11
-7.18895e-18
7.03243e-13
-2.17125e-11
-3.76177e-17
1.17838e-12
-3.13247e-11
-8.5163e-17
1.82862e-12
-4.27605e-11
-4.58141e-16
2.68852e-12
-5.61386e-11
-8.11472e-17
3.78263e-12
-7.15687e-11
-6.97695e-16
-8.92121e-11
-3.44295e-15
1.12116e-11
-1.56906e-10
1.15658e-15
1.40083e-11
-1.84958e-10
1.03009e-15
1.72489e-11
-2.16071e-10
8.32374e-16
2.09758e-11
-2.50403e-10
1.30227e-15
2.52163e-11
-2.88153e-10
6.73462e-16
3.00114e-11
-3.29507e-10
1.00475e-15
3.53888e-11
-3.74653e-10
9.59355e-16
4.13763e-11
-4.2375e-10
8.72215e-16
4.79967e-11
-4.76964e-10
9.03527e-16
5.5266e-11
-5.34483e-10
8.72194e-16
6.31921e-11
-5.96361e-10
8.23673e-16
7.17756e-11
-6.62789e-10
7.79628e-16
8.10051e-11
-7.3378e-10
7.65943e-16
9.08586e-11
-8.09427e-10
7.39102e-16
1.01299e-10
-8.89739e-10
7.9076e-16
1.12276e-10
-9.74592e-10
7.43525e-16
1.2372e-10
-1.06407e-09
7.70196e-16
1.35543e-10
-1.15785e-09
6.82857e-16
1.47641e-10
-1.25585e-09
7.21689e-16
1.59889e-10
-1.35778e-09
5.9871e-16
1.72142e-10
-1.46328e-09
6.25795e-16
1.84236e-10
-1.57195e-09
4.70749e-16
1.95988e-10
-1.68328e-09
5.14649e-16
2.07196e-10
-1.79677e-09
3.15226e-16
2.17645e-10
-1.91169e-09
3.39185e-16
2.27112e-10
-2.02735e-09
1.218e-16
-2.14288e-09
1.78407e-16
8.30023e-15
-5.69292e-13
-1.92093e-18
5.74809e-14
-3.23398e-12
-3.27689e-17
1.78343e-13
-7.78372e-12
-5.25657e-17
4.00096e-13
-1.40636e-11
3.57922e-17
7.50117e-13
-2.20629e-11
-4.28321e-17
1.2584e-12
-3.18328e-11
4.05514e-17
1.95478e-12
-4.34574e-11
-2.38698e-17
2.87101e-12
-5.70539e-11
1.35536e-16
4.03731e-12
-7.27366e-11
-1.3605e-16
5.46912e-12
-9.06666e-11
-2.52129e-15
7.2643e-12
-1.10976e-10
2.64837e-15
9.39671e-12
-1.33836e-10
8.30163e-18
1.19308e-11
-1.59434e-10
7.70977e-16
1.48982e-11
-1.87921e-10
5.41246e-16
1.83359e-11
-2.19506e-10
3.17283e-16
2.22887e-11
-2.54349e-10
9.27406e-16
2.67827e-11
-2.92645e-10
2.26646e-16
3.1862e-11
-3.34581e-10
6.45575e-16
3.75539e-11
-3.80341e-10
5.03941e-16
4.38874e-11
-4.3008e-10
5.23018e-16
5.08852e-11
-4.83957e-10
5.66365e-16
5.8563e-11
-5.42157e-10
6.29402e-16
6.69277e-11
-6.04722e-10
5.88295e-16
7.59783e-11
-6.71836e-10
6.60925e-16
8.57011e-11
-7.43499e-10
6.32991e-16
9.60709e-11
-8.19793e-10
7.40923e-16
1.07047e-10
-9.00711e-10
7.36761e-16
1.18572e-10
-9.86112e-10
8.38076e-16
1.30574e-10
-1.07607e-09
7.63099e-16
1.42957e-10
-1.17023e-09
8.38419e-16
1.55609e-10
-1.26849e-09
7.19105e-16
1.68397e-10
-1.37056e-09
7.82155e-16
1.81167e-10
-1.47604e-09
6.07989e-16
1.93747e-10
-1.58452e-09
6.73479e-16
2.05943e-10
-1.69548e-09
4.74219e-16
2.17545e-10
-1.80837e-09
5.3334e-16
2.28329e-10
-1.92247e-09
2.78968e-16
2.3806e-10
-2.03708e-09
3.52049e-16
-2.15132e-09
1.10602e-16
8.94352e-15
-5.78232e-13
-3.92069e-20
6.16898e-14
-3.28696e-12
-2.85154e-17
1.91409e-13
-7.91353e-12
-9.52663e-18
4.28038e-13
-1.43006e-11
-4.45644e-17
8.01921e-13
-2.2437e-11
-2.78342e-17
1.34374e-12
-3.23742e-11
6.81764e-17
2.08516e-12
-4.41987e-11
7.62003e-18
3.06022e-12
-5.80273e-11
1.99058e-16
4.30124e-12
-7.39782e-11
-9.98641e-18
5.82612e-12
-9.22122e-11
-2.37967e-15
7.73426e-12
-1.12864e-10
2.48443e-15
1.00021e-11
-1.36104e-10
-9.97243e-17
1.26951e-11
-1.62121e-10
7.57272e-16
1.58464e-11
-1.91068e-10
5.24791e-16
1.94946e-11
-2.23153e-10
2.46055e-16
2.36872e-11
-2.58535e-10
8.20088e-16
2.845e-11
-2.97409e-10
-1.79538e-17
3.38297e-11
-3.39958e-10
3.79174e-16
3.98547e-11
-3.86363e-10
4.01678e-16
4.65544e-11
-4.36776e-10
5.1105e-16
5.39511e-11
-4.91349e-10
6.47375e-16
6.20601e-11
-5.5026e-10
7.04747e-16
7.08872e-11
-6.13544e-10
7.36677e-16
8.04295e-11
-6.81373e-10
7.50106e-16
9.06706e-11
-7.53735e-10
7.87271e-16
1.01582e-10
-8.30698e-10
7.93556e-16
1.13118e-10
-9.12242e-10
8.78705e-16
1.25217e-10
-9.98206e-10
8.50484e-16
1.37799e-10
-1.08865e-09
9.08737e-16
1.50764e-10
-1.18319e-09
8.20755e-16
1.63988e-10
-1.28171e-09
8.73491e-16
1.77334e-10
-1.3839e-09
7.36315e-16
1.90636e-10
-1.48934e-09
7.83986e-16
2.03712e-10
-1.5976e-09
6.11777e-16
2.16359e-10
-1.70812e-09
6.7773e-16
2.28358e-10
-1.82037e-09
4.60898e-16
2.39473e-10
-1.93359e-09
5.14477e-16
2.49464e-10
-2.04707e-09
2.7665e-16
2.58075e-10
-2.15993e-09
3.85608e-16
-2.27072e-09
1.79342e-16
9.59246e-15
-5.87849e-13
-3.18571e-18
6.63297e-14
-3.34367e-12
1.14079e-18
2.05296e-13
-8.05219e-12
4.08712e-17
4.58039e-13
-1.45537e-11
-3.76587e-17
8.5698e-13
-2.28363e-11
-3.23062e-17
1.43461e-12
-3.29525e-11
-7.78401e-17
2.22477e-12
-4.49896e-11
-1.08481e-16
3.26458e-12
-5.9066e-11
1.26746e-16
4.58635e-12
-7.53016e-11
-1.51504e-16
6.21066e-12
-9.38579e-11
-2.43304e-15
8.23913e-12
-1.14871e-10
2.45236e-15
1.06496e-11
-1.38515e-10
-1.48318e-16
1.35104e-11
-1.64977e-10
6.6602e-16
1.68568e-11
-1.9441e-10
4.57772e-16
2.07288e-11
-2.27024e-10
1.58084e-16
2.51758e-11
-2.62976e-10
7.73902e-16
3.02245e-11
-3.02459e-10
-1.17581e-16
3.59231e-11
-3.45655e-10
2.51424e-16
4.23011e-11
-3.9274e-10
2.18061e-16
4.93881e-11
-4.43861e-10
3.12658e-16
5.72063e-11
-4.99165e-10
3.86135e-16
6.57704e-11
-5.58822e-10
4.87534e-16
7.50849e-11
-6.22855e-10
4.87677e-16
8.51446e-11
-6.91429e-10
5.97894e-16
9.59301e-11
-7.64517e-10
5.8333e-16
1.07409e-10
-8.42173e-10
7.20123e-16
1.19531e-10
-9.2436e-10
7.21452e-16
1.32229e-10
-1.0109e-09
8.56472e-16
1.45416e-10
-1.10183e-09
7.88289e-16
1.58984e-10
-1.19675e-09
8.93798e-16
1.72802e-10
-1.29553e-09
7.66488e-16
1.86721e-10
-1.39782e-09
8.61198e-16
2.00568e-10
-1.50319e-09
6.84036e-16
2.1415e-10
-1.61117e-09
7.88015e-16
2.27255e-10
-1.72122e-09
5.80716e-16
2.39652e-10
-1.83277e-09
6.83848e-16
2.51096e-10
-1.94503e-09
4.24882e-16
2.61337e-10
-2.05731e-09
5.49378e-16
2.70112e-10
-2.16871e-09
3.18608e-16
-2.27777e-09
5.15839e-16
1.03748e-14
-5.98199e-13
2.62267e-18
7.14215e-14
-3.40451e-12
2.49303e-17
2.1993e-13
-8.20086e-12
-2.06647e-17
4.89685e-13
-1.48244e-11
-1.2387e-16
9.16117e-13
-2.3263e-11
-2.81179e-17
1.53249e-12
-3.35696e-11
-8.1545e-17
2.37522e-12
-4.58331e-11
-1.16109e-16
3.48219e-12
-6.01726e-11
3.3238e-17
4.89019e-12
-7.67106e-11
-9.36627e-17
6.62085e-12
-9.56096e-11
-2.39906e-15
8.77762e-12
-1.17008e-10
2.40784e-15
1.13404e-11
-1.41078e-10
-2.20328e-16
1.43805e-11
-1.68012e-10
7.20946e-16
1.79343e-11
-1.97959e-10
5.13366e-16
2.20442e-11
-2.31132e-10
2.39134e-16
2.67613e-11
-2.67686e-10
8.67893e-16
3.21138e-11
-3.07812e-10
1.02689e-17
3.81508e-11
-3.51689e-10
3.84605e-16
4.49029e-11
-3.9949e-10
4.33221e-16
5.23999e-11
-4.51355e-10
5.03727e-16
6.06637e-11
-5.07425e-10
6.02455e-16
6.97083e-11
-5.67862e-10
6.39681e-16
7.95365e-11
-6.32679e-10
6.89114e-16
9.01407e-11
-7.02029e-10
6.95308e-16
1.01498e-10
-7.7587e-10
7.28692e-16
1.13572e-10
-8.54243e-10
7.23108e-16
1.26307e-10
-9.37091e-10
8.18339e-16
1.3963e-10
-1.02422e-09
7.89886e-16
1.53446e-10
-1.11564e-09
8.7558e-16
1.67639e-10
-1.21094e-09
7.87129e-16
1.8207e-10
-1.30996e-09
8.7085e-16
1.9658e-10
-1.41233e-09
7.35647e-16
2.10986e-10
-1.51759e-09
8.31839e-16
2.25083e-10
-1.62527e-09
6.63808e-16
2.3865e-10
-1.73478e-09
7.8064e-16
2.51444e-10
-1.84556e-09
5.66798e-16
2.63211e-10
-1.9568e-09
6.82242e-16
2.73693e-10
-2.06779e-09
4.53926e-16
2.82618e-10
-2.17764e-09
6.38552e-16
2.89725e-10
-2.28487e-09
4.38691e-16
-2.38974e-09
6.0902e-16
1.11122e-14
-6.09331e-13
-2.87187e-18
7.66394e-14
-3.46963e-12
4.84804e-17
2.35822e-13
-8.35971e-12
4.22862e-17
5.2473e-13
-1.51135e-11
-1.31159e-17
9.80528e-13
-2.37182e-11
7.43776e-17
1.63804e-12
-3.42278e-11
-7.79567e-17
2.53686e-12
-4.67323e-11
-6.88169e-17
3.71683e-12
-6.13524e-11
1.22672e-17
5.21654e-12
-7.82121e-11
-1.88006e-16
7.06037e-12
-9.74752e-11
-2.49558e-15
9.35388e-12
-1.19281e-10
2.41765e-15
1.2079e-11
-1.43804e-10
-2.3065e-16
1.53097e-11
-1.71237e-10
6.60897e-16
1.90844e-11
-2.0173e-10
4.3179e-16
2.34474e-11
-2.35495e-10
1.53752e-16
2.84516e-11
-2.72684e-10
7.88147e-16
3.41266e-11
-3.13489e-10
-8.38927e-17
4.05227e-11
-3.58084e-10
2.68853e-16
4.76711e-11
-4.06637e-10
1.8656e-16
5.56019e-11
-4.59284e-10
2.55495e-16
6.43369e-11
-5.16158e-10
3.17019e-16
7.38887e-11
-5.77412e-10
4.21912e-16
8.42584e-11
-6.43047e-10
4.34745e-16
9.54357e-11
-7.13203e-10
5.48629e-16
1.07394e-10
-7.87826e-10
5.08974e-16
1.20091e-10
-8.66937e-10
6.43309e-16
1.33467e-10
-9.50464e-10
6.2363e-16
1.47441e-10
-1.03819e-09
7.74018e-16
1.61912e-10
-1.13011e-09
6.97341e-16
1.76753e-10
-1.22578e-09
8.31925e-16
1.91817e-10
-1.32502e-09
7.0026e-16
2.06934e-10
-1.42744e-09
8.41676e-16
2.21911e-10
-1.53256e-09
6.73433e-16
2.36531e-10
-1.63989e-09
8.36401e-16
2.50563e-10
-1.74881e-09
6.32777e-16
2.63752e-10
-1.85875e-09
8.00289e-16
2.75836e-10
-1.96888e-09
5.50719e-16
2.86546e-10
-2.0785e-09
7.54037e-16
2.95604e-10
-2.18669e-09
5.36395e-16
3.02741e-10
-2.29201e-09
7.80288e-16
-2.39469e-09
4.55347e-16
1.20248e-14
-6.21321e-13
3.98547e-18
8.20331e-14
-3.53967e-12
-5.32267e-18
2.52802e-13
-8.52996e-12
6.42003e-17
5.61712e-13
-1.54228e-11
-4.93179e-17
1.04898e-12
-2.42049e-11
7.94993e-17
1.75073e-12
-3.49307e-11
-1.32106e-16
2.70964e-12
-4.76918e-11
-8.40783e-17
3.96681e-12
-6.26101e-11
-6.55085e-17
5.56543e-12
-7.98112e-11
-2.21338e-17
7.53079e-12
-9.94608e-11
-2.30881e-15
9.96933e-12
-1.217e-10
2.28505e-15
1.28679e-11
-1.46704e-10
-2.80886e-16
1.63021e-11
-1.74667e-10
6.55077e-16
2.03121e-11
-2.05737e-10
4.15248e-16
2.49445e-11
-2.40127e-10
1.46421e-16
3.02538e-11
-2.77988e-10
7.44289e-16
3.62715e-11
-3.19508e-10
-1.078e-16
4.30486e-11
-3.64859e-10
2.40828e-16
5.06174e-11
-4.14205e-10
2.84839e-16
5.90078e-11
-4.67673e-10
3.46346e-16
6.82411e-11
-5.25389e-10
4.55246e-16
7.83286e-11
-5.87497e-10
4.96447e-16
8.92691e-11
-6.53984e-10
5.71483e-16
1.01049e-10
-7.2498e-10
5.78485e-16
1.13638e-10
-8.00412e-10
6.18353e-16
1.26989e-10
-8.80285e-10
6.00469e-16
1.41035e-10
-9.64507e-10
7.03138e-16
1.55688e-10
-1.05284e-09
6.63581e-16
1.70838e-10
-1.14525e-09
7.72839e-16
1.86351e-10
-1.24129e-09
6.78104e-16
2.02067e-10
-1.34073e-09
8.00757e-16
2.17807e-10
-1.44318e-09
6.69624e-16
2.33366e-10
-1.54812e-09
8.26573e-16
2.48517e-10
-1.65503e-09
6.65288e-16
2.63014e-10
-1.76331e-09
8.44127e-16
2.76596e-10
-1.87232e-09
6.33409e-16
2.88987e-10
-1.98128e-09
8.23071e-16
2.99911e-10
-2.08942e-09
6.08282e-16
3.09081e-10
-2.19586e-09
8.72146e-16
3.16224e-10
-2.29915e-09
6.38672e-16
-2.39953e-09
7.65545e-16
1.28831e-14
-6.34223e-13
-2.45687e-18
8.80516e-14
-3.61468e-12
1.85609e-17
2.71106e-13
-8.71195e-12
1.3096e-16
6.02052e-13
-1.57531e-11
7.82272e-17
1.12328e-12
-2.47243e-11
2.21128e-16
1.87262e-12
-3.56808e-11
-8.16717e-17
2.89613e-12
-4.8715e-11
8.73091e-19
4.23643e-12
-6.39506e-11
-2.90349e-17
5.94015e-12
-8.15153e-11
-1.21183e-17
8.03436e-12
-1.01576e-10
-2.41287e-15
1.06286e-11
-1.24275e-10
2.26254e-15
1.37124e-11
-1.4979e-10
-3.16688e-16
1.73637e-11
-1.78313e-10
6.73714e-16
2.16242e-11
-2.09994e-10
3.90556e-16
2.65436e-11
-2.45046e-10
1.16439e-16
3.21773e-11
-2.83616e-10
6.66645e-16
3.85591e-11
-3.25892e-10
-1.86268e-16
4.57409e-11
-3.72041e-10
1.09808e-16
5.37551e-11
-4.2222e-10
1.61543e-17
6.26321e-11
-4.7655e-10
8.63435e-17
7.23923e-11
-5.35149e-10
1.63657e-16
8.30453e-11
-5.98149e-10
2.9104e-16
9.45876e-11
-6.65525e-10
3.17348e-16
1.07002e-10
-7.37393e-10
4.49689e-16
1.20253e-10
-8.13662e-10
4.00801e-16
1.34289e-10
-8.94319e-10
5.44019e-16
1.49034e-10
-9.79252e-10
5.01063e-16
1.64395e-10
-1.06819e-09
6.65288e-16
1.80251e-10
-1.16111e-09
5.7319e-16
1.96458e-10
-1.25749e-09
7.38842e-16
2.12846e-10
-1.35712e-09
6.01542e-16
2.29224e-10
-1.45955e-09
7.95903e-16
2.45376e-10
-1.56427e-09
6.32809e-16
2.61062e-10
-1.67072e-09
8.58595e-16
2.76026e-10
-1.77827e-09
6.50143e-16
2.89993e-10
-1.88629e-09
8.83139e-16
3.0268e-10
-1.99396e-09
6.33618e-16
3.138e-10
-2.10054e-09
9.19735e-16
3.2306e-10
-2.20512e-09
7.02036e-16
3.30181e-10
-2.30626e-09
9.81403e-16
-2.40424e-09
5.51509e-16
1.3937e-14
-6.48122e-13
4.44142e-18
9.49553e-14
-3.69523e-12
5.69553e-17
2.90591e-13
-8.90732e-12
3.2828e-17
6.44202e-13
-1.61071e-11
-4.52468e-17
1.20158e-12
-2.52801e-11
1.89236e-16
2.002e-12
-3.64822e-11
-1.03172e-16
3.09475e-12
-4.98076e-11
8.18422e-18
4.52418e-12
-6.53806e-11
-8.42541e-17
6.34112e-12
-8.33332e-11
-3.03224e-17
8.57405e-12
-1.03831e-10
-2.46421e-15
1.13348e-11
-1.27017e-10
2.21158e-15
1.46162e-11
-1.53073e-10
-3.39314e-16
1.84985e-11
-1.8219e-10
6.76615e-16
2.30259e-11
-2.14518e-10
3.89703e-16
2.8251e-11
-2.5027e-10
2.00884e-16
3.42299e-11
-2.8959e-10
6.92714e-16
4.09993e-11
-3.32663e-10
-3.33814e-17
4.86106e-11
-3.79651e-10
2.62078e-16
5.7098e-11
-4.30705e-10
3.28306e-16
6.64908e-11
-4.85941e-10
3.84831e-16
7.68084e-11
-5.45463e-10
4.93386e-16
8.80588e-11
-6.09397e-10
5.13924e-16
1.00235e-10
-6.77699e-10
5.72611e-16
1.13317e-10
-7.50472e-10
5.51741e-16
1.27263e-10
-8.27605e-10
5.79596e-16
1.42016e-10
-9.09068e-10
5.29382e-16
1.57492e-10
-9.94727e-10
6.22956e-16
1.73589e-10
-1.08429e-09
5.53966e-16
1.90177e-10
-1.17769e-09
6.80298e-16
2.07102e-10
-1.27442e-09
5.70269e-16
2.24181e-10
-1.3742e-09
7.35694e-16
2.41212e-10
-1.47658e-09
6.01551e-16
2.57965e-10
-1.58102e-09
8.19401e-16
2.7419e-10
-1.68694e-09
6.51174e-16
2.89618e-10
-1.79369e-09
8.87241e-16
3.03963e-10
-1.90063e-09
6.61988e-16
3.16931e-10
-2.00693e-09
9.21108e-16
3.28227e-10
-2.11183e-09
7.04407e-16
3.37551e-10
-2.21444e-09
1.04385e-15
3.4462e-10
-2.31332e-09
7.63504e-16
-2.40877e-09
8.75202e-16
1.49497e-14
-6.63089e-13
-2.09833e-18
1.01968e-13
-3.78159e-12
7.9881e-17
3.1179e-13
-9.11638e-12
9.11652e-17
6.90633e-13
-1.64855e-11
6.53977e-17
1.28704e-12
-2.58739e-11
3.32101e-16
2.14244e-12
-3.73377e-11
-1.71772e-17
3.30962e-12
-5.09736e-11
1.38235e-16
4.83483e-12
-6.6905e-11
1.52588e-17
6.77061e-12
-8.52752e-11
-7.39481e-16
9.1487e-12
-1.06241e-10
-3.50754e-15
1.20887e-11
-1.29936e-10
2.38202e-15
1.55846e-11
-1.56567e-10
1.13693e-16
1.97127e-11
-1.86314e-10
5.85373e-16
2.45253e-11
-2.19327e-10
4.10117e-16
3.00765e-11
-2.5582e-10
2.36236e-16
3.64232e-11
-2.95932e-10
6.37395e-16
4.36047e-11
-3.39846e-10
-8.073e-17
5.16725e-11
-3.87718e-10
1.32533e-16
6.06613e-11
-4.39695e-10
6.13376e-17
7.06002e-11
-4.9588e-10
1.28985e-16
8.15075e-11
-5.5637e-10
1.97676e-16
9.33887e-11
-6.21277e-10
3.18015e-16
1.06234e-10
-6.90543e-10
3.19474e-16
1.20018e-10
-7.64254e-10
4.4502e-16
1.34694e-10
-8.4228e-10
3.61854e-16
1.50196e-10
-9.2457e-10
4.98333e-16
1.66436e-10
-1.01097e-09
4.14132e-16
1.83299e-10
-1.10115e-09
5.85041e-16
2.00646e-10
-1.19504e-09
4.68352e-16
2.18311e-10
-1.29208e-09
6.68036e-16
2.36099e-10
-1.39198e-09
5.21435e-16
2.53797e-10
-1.49428e-09
7.71345e-16
2.7116e-10
-1.59838e-09
5.99491e-16
2.87926e-10
-1.7037e-09
8.82153e-16
3.03813e-10
-1.80958e-09
6.47508e-16
3.18525e-10
-1.91534e-09
9.3748e-16
3.31757e-10
-2.02016e-09
6.66765e-16
3.43205e-10
-2.12328e-09
1.03045e-15
3.52565e-10
-2.2238e-09
7.96671e-16
3.59546e-10
-2.3203e-09
1.11901e-15
-2.4131e-09
5.93797e-16
1.6208e-14
-6.7922e-13
9.27951e-18
1.09806e-13
-3.87438e-12
9.85455e-17
3.35093e-13
-9.3406e-12
1.34055e-16
7.40501e-13
-1.68906e-11
3.62669e-17
1.37824e-12
-2.65093e-11
2.76468e-16
2.29229e-12
-3.82522e-11
-3.85364e-17
3.53905e-12
-5.22188e-11
1.67749e-16
5.15451e-12
-6.85338e-11
-1.46432e-15
7.2332e-12
-8.7336e-11
2.2241e-15
9.79483e-12
-1.08791e-10
1.09855e-15
1.29058e-11
-1.33047e-10
2.39845e-16
1.66244e-11
-1.60285e-10
7.81726e-17
2.10136e-11
-1.90702e-10
1.31374e-16
2.61295e-11
-2.24442e-10
1.76548e-16
3.20284e-11
-2.61718e-10
1.78337e-16
3.87666e-11
-3.02667e-10
4.89508e-16
4.63866e-11
-3.47468e-10
-9.08703e-17
5.49396e-11
-3.96271e-10
9.44483e-17
6.44612e-11
-4.49216e-10
1.86117e-16
7.49794e-11
-5.06397e-10
2.41811e-16
8.65109e-11
-5.679e-10
3.67321e-16
9.90585e-11
-6.33823e-10
4.05092e-16
1.12609e-10
-7.04091e-10
5.00123e-16
1.27131e-10
-7.78774e-10
4.85419e-16
1.42573e-10
-8.57721e-10
5.20298e-16
1.5886e-10
-9.40856e-10
4.48273e-16
1.75896e-10
-1.028e-09
5.46818e-16
1.93555e-10
-1.11881e-09
4.52944e-16
2.11688e-10
-1.21317e-09
6.08027e-16
2.30116e-10
-1.3105e-09
4.84297e-16
2.48632e-10
-1.4105e-09
7.03048e-16
2.67008e-10
-1.51265e-09
5.58158e-16
2.84987e-10
-1.61636e-09
8.33726e-16
3.02294e-10
-1.72101e-09
6.37967e-16
3.18633e-10
-1.82591e-09
9.22045e-16
3.33698e-10
-1.93041e-09
6.59451e-16
3.47173e-10
-2.03363e-09
9.81115e-16
3.58747e-10
-2.13485e-09
7.43572e-16
3.68109e-10
-2.23316e-09
1.15908e-15
3.74966e-10
-2.32715e-09
8.29281e-16
-2.41717e-09
9.49967e-16
1.74116e-14
-6.96601e-13
3.81085e-18
1.18001e-13
-3.97396e-12
1.23148e-16
3.59688e-13
-9.58081e-12
1.83489e-16
7.94175e-13
-1.73242e-11
1.12987e-16
1.47671e-12
-2.71886e-11
3.8413e-16
2.45417e-12
-3.92293e-11
3.67071e-17
3.78663e-12
-5.35484e-11
3.39797e-16
5.51263e-12
-7.02713e-11
-1.31929e-15
7.72814e-12
-8.95391e-11
1.49843e-15
1.04583e-11
-1.11518e-10
1.90173e-16
1.37729e-11
-1.36363e-10
-9.48094e-17
1.77343e-11
-1.64248e-10
-1.13727e-16
2.24063e-11
-1.95373e-10
1.71812e-16
2.78477e-11
-2.29882e-10
1.78879e-16
3.41176e-11
-2.67987e-10
2.23266e-16
4.12734e-11
-3.0982e-10
4.2572e-16
4.93603e-11
-3.55557e-10
-1.32932e-16
5.84294e-11
-4.05342e-10
-2.86277e-17
6.85161e-11
-4.59305e-10
-9.23154e-17
7.9648e-11
-5.17531e-10
-2.12742e-17
9.18397e-11
-5.80093e-10
5.92524e-17
1.05091e-10
-6.47076e-10
2.183e-16
1.19385e-10
-7.18385e-10
2.54843e-16
1.34684e-10
-7.94073e-10
4.13193e-16
1.50929e-10
-8.73965e-10
3.06892e-16
1.68038e-10
-9.57966e-10
4.49995e-16
1.85903e-10
-1.04587e-09
3.31909e-16
2.0439e-10
-1.13729e-09
5.22954e-16
2.23336e-10
-1.23212e-09
3.85577e-16
2.42549e-10
-1.32972e-09
6.31946e-16
2.6181e-10
-1.42976e-09
4.74342e-16
2.80875e-10
-1.53172e-09
7.832e-16
2.99475e-10
-1.63495e-09
5.84123e-16
3.17319e-10
-1.73885e-09
9.16617e-16
3.34101e-10
-1.84269e-09
6.32497e-16
3.49501e-10
-1.9458e-09
9.73964e-16
3.63195e-10
-2.04733e-09
6.62645e-16
3.74865e-10
-2.14652e-09
1.10318e-15
3.84192e-10
-2.24249e-09
8.41365e-16
3.90883e-10
-2.33384e-09
1.2212e-15
-2.42094e-09
6.10102e-16
1.88275e-14
-7.15348e-13
1.02657e-17
1.27168e-13
-4.08094e-12
1.71706e-16
3.86532e-13
-9.83796e-12
2.71674e-16
8.52884e-13
-1.77882e-11
2.69088e-16
1.58273e-12
-2.79164e-11
2.67882e-16
2.62874e-12
-4.02744e-11
1.18541e-16
4.0518e-12
-5.49702e-11
1.34546e-16
5.89415e-12
-7.21276e-11
-1.59686e-15
8.26011e-12
-9.18914e-11
1.68129e-15
1.11732e-11
-1.14429e-10
2.22201e-16
1.47059e-11
-1.39898e-10
-1.69669e-16
1.8926e-11
-1.68469e-10
-9.71381e-17
2.38995e-11
-2.00346e-10
1.2752e-16
2.96879e-11
-2.3567e-10
1.30172e-16
3.63538e-11
-2.74651e-10
2.57179e-16
4.39548e-11
-3.17419e-10
4.17225e-16
5.25394e-11
-3.64142e-10
4.96839e-17
6.21575e-11
-4.1496e-10
1.69266e-16
7.28454e-11
-4.69992e-10
2.66764e-16
8.46286e-11
-5.29313e-10
3.00687e-16
9.75197e-11
-5.92982e-10
4.14702e-16
1.11515e-10
-6.61069e-10
4.56675e-16
1.26592e-10
-7.33459e-10
5.82084e-16
1.42708e-10
-8.10186e-10
5.49742e-16
1.59795e-10
-8.91051e-10
5.56849e-16
1.77763e-10
-9.75932e-10
4.32431e-16
1.96492e-10
-1.0646e-09
5.24012e-16
2.15838e-10
-1.15664e-09
3.93157e-16
2.35624e-10
-1.2519e-09
5.81281e-16
2.55644e-10
-1.34974e-09
4.384e-16
2.75665e-10
-1.44978e-09
7.15938e-16
2.95429e-10
-1.55148e-09
5.45964e-16
3.14651e-10
-1.65418e-09
8.73392e-16
3.33027e-10
-1.75722e-09
6.27573e-16
3.50239e-10
-1.8599e-09
9.55044e-16
3.65954e-10
-1.96152e-09
6.36872e-16
3.79839e-10
-2.06121e-09
1.023e-15
3.91569e-10
-2.15825e-09
7.50894e-16
4.00821e-10
-2.25174e-09
1.24962e-15
4.073e-10
-2.34031e-09
8.69189e-16
-2.42436e-09
1.02086e-15
2.02395e-14
-7.35565e-13
2.73344e-18
1.36037e-13
-4.19638e-12
4.64629e-17
4.13801e-13
-1.01138e-11
2.30442e-16
9.14024e-13
-1.82867e-11
2.21996e-16
1.69438e-12
-2.86951e-11
1.98152e-16
2.81365e-12
-4.13937e-11
2.52526e-17
4.33499e-12
-5.64908e-11
7.82522e-17
6.30511e-12
-7.41111e-11
-1.56646e-15
8.83062e-12
-9.44046e-11
1.5781e-15
1.19386e-11
-1.17536e-10
-2.13263e-17
1.57082e-11
-1.43666e-10
2.11896e-16
2.02085e-11
-1.72966e-10
3.88406e-16
2.55038e-11
-2.05642e-10
5.96429e-17
3.16633e-11
-2.41829e-10
7.61035e-17
3.87515e-11
-2.81739e-10
1.84332e-16
4.68278e-11
-3.25494e-10
3.03022e-16
5.59421e-11
-3.73258e-10
-5.14327e-17
6.61445e-11
-4.25163e-10
1.27228e-17
7.74702e-11
-4.8132e-10
-3.68337e-17
8.99439e-11
-5.41789e-10
2.49948e-17
1.03575e-10
-6.06614e-10
9.58454e-17
1.18356e-10
-6.75851e-10
2.78558e-16
1.34259e-10
-7.49361e-10
3.26612e-16
1.51234e-10
-8.27161e-10
4.93129e-16
1.69204e-10
-9.09021e-10
3.30227e-16
1.8807e-10
-9.94798e-10
4.61539e-16
2.07699e-10
-1.08423e-09
2.92482e-16
2.27935e-10
-1.17687e-09
5.04296e-16
2.48588e-10
-1.27255e-09
3.41475e-16
2.69437e-10
-1.37059e-09
6.42302e-16
2.90232e-10
-1.47058e-09
4.62748e-16
3.10702e-10
-1.57195e-09
8.29891e-16
3.30546e-10
-1.67402e-09
5.80959e-16
3.49446e-10
-1.77612e-09
9.59954e-16
3.67069e-10
-1.87752e-09
6.07891e-16
3.83075e-10
-1.97752e-09
1.00572e-15
3.97119e-10
-2.07526e-09
6.42307e-16
4.0887e-10
-2.16999e-09
1.16805e-15
4.18003e-10
-2.26087e-09
8.69515e-16
4.2422e-10
-2.34652e-09
1.32213e-15
-2.42739e-09
6.27576e-16
2.16543e-14
-7.57388e-13
-2.50352e-17
1.49627e-13
-4.31943e-12
5.59861e-16
4.39432e-13
-1.04108e-11
-8.69152e-16
9.82055e-13
-1.88204e-11
1.19048e-15
1.81869e-12
-2.95247e-11
9.1449e-16
3.02274e-12
-4.25893e-11
9.25818e-16
4.64682e-12
-5.8116e-11
-1.49444e-16
6.75111e-12
-7.6231e-11
-1.67189e-15
9.44823e-12
-9.70861e-11
1.90522e-15
1.27671e-11
-1.20851e-10
4.66886e-16
1.6786e-11
-1.47685e-10
1.54331e-17
2.15826e-11
-1.7776e-10
3.02719e-16
2.72237e-11
-2.11284e-10
-1.96504e-17
3.37812e-11
-2.48387e-10
9.12211e-17
4.13214e-11
-2.89278e-10
1.51264e-16
4.99055e-11
-3.34077e-10
2.71661e-16
5.95848e-11
-3.82939e-10
-7.97793e-17
7.0409e-11
-4.35989e-10
-2.29294e-19
8.24138e-11
-4.93325e-10
1.25013e-16
9.56206e-11
-5.54996e-10
1.74417e-16
1.10036e-10
-6.21029e-10
3.21472e-16
1.25648e-10
-6.91461e-10
3.94966e-16
1.42421e-10
-7.66133e-10
5.59119e-16
1.60299e-10
-8.45036e-10
5.31085e-16
1.79194e-10
-9.27916e-10
5.49281e-16
1.98997e-10
-1.0146e-09
3.9567e-16
2.19563e-10
-1.10479e-09
5.05361e-16
2.40721e-10
-1.19803e-09
3.4691e-16
2.62267e-10
-1.2941e-09
5.88041e-16
2.83964e-10
-1.39228e-09
4.24025e-16
3.05547e-10
-1.49216e-09
7.65065e-16
3.26727e-10
-1.59313e-09
5.5176e-16
3.47189e-10
-1.69448e-09
9.27538e-16
3.666e-10
-1.79553e-09
6.12404e-16
3.84616e-10
-1.89554e-09
9.89087e-16
4.00883e-10
-1.99379e-09
6.05372e-16
4.15049e-10
-2.08943e-09
1.06896e-15
4.26778e-10
-2.18172e-09
7.54187e-16
4.35741e-10
-2.26983e-09
1.34796e-15
4.41642e-10
-2.35241e-09
9.12295e-16
-2.42995e-09
1.11161e-15
2.36026e-14
-7.80976e-13
-1.28071e-17
1.61536e-13
-4.4525e-12
5.61209e-16
4.70033e-13
-1.07304e-11
-1.36621e-15
1.04443e-12
-1.93953e-11
9.91365e-19
1.93347e-12
-3.04195e-11
-6.09782e-16
3.2309e-12
-4.38765e-11
1.12991e-15
4.96872e-12
-5.98615e-11
-9.84609e-16
7.22249e-12
-7.85043e-11
-2.12565e-15
1.01064e-11
-9.99553e-11
1.76744e-15
1.36528e-11
-1.24395e-10
2.57694e-16
1.79442e-11
-1.51977e-10
4.65212e-17
2.30611e-11
-1.82875e-10
1.63119e-16
2.90739e-11
-2.17298e-10
-7.63408e-17
3.60575e-11
-2.55371e-10
-4.3414e-17
4.40809e-11
-2.97303e-10
3.10434e-17
5.32073e-11
-3.43204e-10
1.34113e-16
6.34891e-11
-3.93224e-10
-2.11813e-16
7.49761e-11
-4.47479e-10
-1.69444e-16
8.77017e-11
-5.06054e-10
-2.18502e-16
1.01686e-10
-5.68983e-10
-1.23905e-16
1.16932e-10
-6.36276e-10
-5.72808e-18
1.33421e-10
-7.07952e-10
2.35281e-16
1.51112e-10
-7.83824e-10
2.88795e-16
1.69939e-10
-8.63862e-10
4.8798e-16
1.89804e-10
-9.47782e-10
3.04165e-16
2.10585e-10
-1.03538e-09
4.59639e-16
2.32125e-10
-1.12634e-09
2.55652e-16
2.54237e-10
-1.22014e-09
5.11059e-16
2.76702e-10
-1.31657e-09
3.26671e-16
2.99266e-10
-1.41485e-09
6.92906e-16
3.21646e-10
-1.51454e-09
4.73747e-16
3.43539e-10
-1.61502e-09
8.97415e-16
3.64612e-10
-1.71555e-09
5.75472e-16
3.84519e-10
-1.81544e-09
1.00551e-15
4.02901e-10
-1.91392e-09
5.74553e-16
4.19395e-10
-2.01028e-09
1.04495e-15
4.33642e-10
-2.10367e-09
6.24337e-16
4.45299e-10
-2.19338e-09
1.25096e-15
4.54038e-10
-2.27857e-09
9.0733e-16
4.59563e-10
-2.35793e-09
1.44657e-15
-2.43199e-09
6.63216e-16
2.53172e-14
-8.06421e-13
5.3936e-18
1.69034e-13
-4.59606e-12
-1.38821e-17
5.03511e-13
-1.10728e-11
-1.10362e-15
1.137e-12
-2.00091e-11
2.34901e-15
2.08507e-12
-3.13778e-11
-1.4333e-15
3.46755e-12
-4.52464e-11
1.73514e-15
5.33664e-12
-6.17192e-11
1.55229e-15
7.76181e-12
-8.09251e-11
4.31857e-16
1.08291e-11
-1.0302e-10
4.12823e-16
1.46141e-11
-1.28178e-10
2.34069e-16
1.91931e-11
-1.56558e-10
-1.84034e-16
2.46508e-11
-1.88332e-10
1.84228e-16
3.10619e-11
-2.23709e-10
7.39061e-17
3.85024e-11
-2.62811e-10
2.07037e-16
4.70433e-11
-3.05843e-10
2.32497e-16
5.67498e-11
-3.52908e-10
3.89905e-16
6.7675e-11
-4.0415e-10
9.07066e-17
7.98681e-11
-4.59671e-10
2.09111e-16
9.3362e-11
-5.19547e-10
3.5185e-16
1.08173e-10
-5.83793e-10
4.11065e-16
1.24299e-10
-6.524e-10
5.57903e-16
1.41715e-10
-7.25366e-10
6.00692e-16
1.60373e-10
-8.02479e-10
7.06441e-16
1.80196e-10
-8.83683e-10
6.19736e-16
2.01076e-10
-9.68662e-10
6.27774e-16
2.22878e-10
-1.05718e-09
4.24315e-16
2.45429e-10
-1.14889e-09
5.51064e-16
2.68526e-10
-1.24324e-09
3.52587e-16
2.91935e-10
-1.33997e-09
6.5122e-16
3.15382e-10
-1.43829e-09
4.47005e-16
3.38569e-10
-1.53773e-09
8.44906e-16
3.61173e-10
-1.63763e-09
5.61493e-16
3.82847e-10
-1.73723e-09
9.84976e-16
4.03228e-10
-1.83582e-09
5.85182e-16
4.21947e-10
-1.93264e-09
1.02778e-15
4.38629e-10
-2.02697e-09
5.74619e-16
4.52909e-10
-2.11796e-09
1.1365e-15
4.64441e-10
-2.20491e-09
7.72886e-16
4.72895e-10
-2.28702e-09
1.47574e-15
4.77981e-10
-2.36301e-09
9.7567e-16
-2.43345e-09
1.23488e-15
2.76062e-14
-8.33951e-13
2.02044e-17
1.8368e-13
-4.75088e-12
1.30714e-16
5.41383e-13
-1.14417e-11
-1.49459e-15
1.21255e-12
-2.06693e-11
1.23487e-15
2.22378e-12
-3.24105e-11
-2.76197e-15
3.71467e-12
-4.67203e-11
2.24244e-15
5.71649e-12
-6.37156e-11
8.1164e-16
8.31433e-12
-8.35228e-11
-1.81686e-17
1.15978e-11
-1.06302e-10
3.2994e-16
1.56459e-11
-1.32225e-10
1.99455e-16
2.05399e-11
-1.61454e-10
-1.34432e-16
2.63666e-11
-1.94159e-10
2.74305e-17
3.32059e-11
-2.30549e-10
7.67246e-17
4.11356e-11
-2.70742e-10
2.61802e-17
5.02301e-11
-3.14938e-10
4.92106e-17
6.05566e-11
-3.63235e-10
1.98712e-16
7.21683e-11
-4.15765e-10
-1.11124e-16
8.51144e-11
-4.72619e-10
-1.94242e-17
9.94243e-11
-5.3386e-10
-3.96972e-17
1.15112e-10
-5.99482e-10
8.561e-17
1.32169e-10
-6.69458e-10
1.94803e-16
1.50566e-10
-7.43764e-10
4.3235e-16
1.70243e-10
-8.22155e-10
4.0146e-16
1.91113e-10
-9.04553e-10
5.83715e-16
2.13056e-10
-9.90605e-10
3.4564e-16
2.35921e-10
-1.08005e-09
5.18641e-16
2.59521e-10
-1.17249e-09
2.69772e-16
2.83636e-10
-1.26736e-09
5.76027e-16
3.08011e-10
-1.36435e-09
3.54048e-16
3.32357e-10
-1.46264e-09
7.84252e-16
3.56355e-10
-1.56173e-09
4.94308e-16
3.79665e-10
-1.66094e-09
9.71448e-16
4.01925e-10
-1.75949e-09
5.54576e-16
4.22755e-10
-1.85665e-09
1.04974e-15
4.41776e-10
-1.95165e-09
5.34929e-16
4.58601e-10
-2.04379e-09
1.10253e-15
4.72861e-10
-2.13222e-09
6.21149e-16
4.84208e-10
-2.21625e-09
1.36775e-15
4.92311e-10
-2.29512e-09
9.68186e-16
4.96888e-10
-2.36758e-09
1.60626e-15
-2.43424e-09
7.22617e-16
2.98813e-14
-8.63734e-13
2.51776e-17
1.97338e-13
-4.91737e-12
9.33723e-17
5.83533e-13
-1.18381e-11
-1.36223e-15
1.30785e-12
-2.13796e-11
1.65452e-15
2.39387e-12
-3.35159e-11
-2.52753e-15
3.99045e-12
-4.83012e-11
2.05184e-15
6.13897e-12
-6.58536e-11
1.48249e-15
8.91982e-12
-8.63046e-11
-1.05412e-16
1.24335e-11
-1.09813e-10
3.78994e-16
1.67613e-11
-1.36552e-10
1.15774e-16
2.19917e-11
-1.66686e-10
-6.58632e-17
2.82127e-11
-2.00381e-10
-5.18616e-17
3.55116e-11
-2.37848e-10
7.3319e-17
4.39671e-11
-2.79198e-10
9.08254e-17
5.36559e-11
-3.24629e-10
1.03145e-18
6.46465e-11
-3.74225e-10
1.9217e-16
7.69925e-11
-4.28114e-10
-1.85353e-16
9.07417e-11
-4.86371e-10
-1.30375e-17
1.05922e-10
-5.49041e-10
2.01344e-16
1.22542e-10
-6.16101e-10
3.0998e-16
1.40587e-10
-6.87502e-10
4.76749e-16
1.60019e-10
-7.63194e-10
5.45338e-16
1.80769e-10
-8.42904e-10
6.75252e-16
2.02739e-10