/*--------------------------------*- C++ -*----------------------------------*\
| =========                 |                                                 |
| \\      /  F ield         | OpenFOAM: The Open Source CFD Toolbox           |
|  \\    /   O peration     | Version:  v2012                                 |
|   \\  /    A nd           | Website:  www.openfoam.com                      |
|    \\/     M anipulation  |                                                 |
\*---------------------------------------------------------------------------*/
FoamFile
{
    version     2.0;
    format      ascii;
    class       surfaceScalarField;
    location    "0.65";
    object      phi;
}
// * * * * * * * * * * * * * * * * * * * * * * * * * * * * * * * * * * * * * //

dimensions      [0 3 -1 0 0 0 0];
oriented        oriented;


internalField   nonuniform List<scalar> 
8212
(
1.33369e-15
-1.74262e-13
-2.74486e-18
8.50197e-15
-1.39026e-12
-1.7196e-18
2.40947e-14
-3.8215e-12
-1.87347e-17
5.01596e-14
-7.44223e-12
-1.54789e-18
8.93004e-14
-1.22771e-11
9.73241e-17
1.42036e-13
-1.8381e-11
-7.54589e-17
2.13295e-13
-2.58293e-11
1.00307e-16
3.04636e-13
-3.47178e-11
5.52852e-17
4.20007e-13
-4.51486e-11
1.12449e-16
5.62461e-13
-5.72525e-11
-7.54732e-18
7.36042e-13
-7.11527e-11
-5.95096e-17
9.4535e-13
-8.6999e-11
-4.99433e-17
1.19454e-12
-1.04963e-10
-9.20063e-17
1.48865e-12
-1.25199e-10
-3.26323e-17
1.83227e-12
-1.47911e-10
-1.36517e-17
2.22984e-12
-1.7328e-10
-4.42132e-17
2.6868e-12
-2.01524e-10
-1.20581e-17
3.20725e-12
-2.32869e-10
-1.36987e-16
3.79689e-12
-2.67554e-10
-1.52516e-16
4.46084e-12
-3.0582e-10
-1.65033e-16
5.20388e-12
-3.47927e-10
-1.97552e-16
6.031e-12
-3.94174e-10
-2.00836e-16
6.94676e-12
-4.44787e-10
-1.80956e-16
7.9554e-12
-5.00114e-10
-1.50736e-16
9.0606e-12
-5.60402e-10
-1.081e-16
1.02653e-11
-6.25983e-10
-7.63878e-17
1.15715e-11
-6.97155e-10
-4.56581e-17
1.29799e-11
-7.74143e-10
-2.51323e-17
1.449e-11
-8.5737e-10
-7.89756e-18
1.6099e-11
-9.46953e-10
3.13215e-18
1.78024e-11
-1.04323e-09
1.04273e-17
1.9593e-11
-1.14642e-09
1.31823e-17
2.14608e-11
-1.25667e-09
1.47676e-17
2.33924e-11
-1.37413e-09
1.26112e-17
2.53711e-11
-1.49883e-09
1.0245e-17
2.73758e-11
-1.63083e-09
3.73607e-18
2.93814e-11
-1.76995e-09
-3.3292e-18
3.13584e-11
-1.91602e-09
-1.16845e-17
-2.06865e-09
-1.47909e-17
1.10276e-15
-1.75364e-13
-1.90041e-19
7.81498e-15
-1.39703e-12
-6.70253e-18
2.407e-14
-3.83761e-12
1.82449e-17
5.16881e-14
-7.47048e-12
-7.61619e-17
9.40585e-14
-1.23199e-11
-4.66267e-17
1.53016e-13
-1.84402e-11
-2.68806e-17
2.30738e-13
-2.59075e-11
-5.59833e-17
3.31752e-13
-3.48171e-11
1.92893e-16
4.55862e-13
-4.52726e-11
3.18106e-17
6.0897e-13
-5.74039e-11
2.08882e-16
7.91994e-13
-7.13355e-11
2.78506e-17
1.00985e-12
-8.72172e-11
-2.87396e-17
1.2672e-12
-1.0522e-10
1.13475e-17
1.56761e-12
-1.255e-10
-3.34843e-17
1.91646e-12
-1.4826e-10
-2.68583e-17
2.31831e-12
-1.73682e-10
-2.15666e-17
2.77827e-12
-2.01984e-10
-5.63536e-17
3.30122e-12
-2.33393e-10
-9.86367e-17
3.89245e-12
-2.68147e-10
-1.4132e-16
4.55869e-12
-3.06486e-10
4.17263e-17
5.3039e-12
-3.48671e-10
7.49022e-17
6.13327e-12
-3.95002e-10
9.96061e-17
7.05158e-12
-4.45704e-10
1.1241e-16
8.06315e-12
-5.01125e-10
1.12345e-16
9.17183e-12
-5.6151e-10
1.20725e-16
1.03805e-11
-6.2719e-10
1.12416e-16
1.16911e-11
-6.98465e-10
1.09813e-16
1.31045e-11
-7.75556e-10
1.02434e-16
1.462e-11
-8.58884e-10
9.76543e-17
1.62349e-11
-9.48567e-10
9.26219e-17
1.79443e-11
-1.04494e-09
8.65917e-17
1.97412e-11
-1.14822e-09
8.01278e-17
2.16154e-11
-1.25855e-09
7.30622e-17
2.35534e-11
-1.37606e-09
6.17612e-17
2.55382e-11
-1.50082e-09
5.18659e-17
2.75487e-11
-1.63284e-09
3.25077e-17
2.95595e-11
-1.77196e-09
1.44547e-17
3.15409e-11
-1.918e-09
-8.57903e-18
-2.07057e-09
-1.35988e-17
6.75304e-16
-1.76026e-13
1.82679e-18
5.442e-15
-1.40187e-12
-9.05284e-18
1.82984e-14
-3.85027e-12
2.42195e-17
4.14436e-14
-7.494e-12
-4.52049e-17
7.86974e-14
-1.2357e-11
1.88811e-17
1.31943e-13
-1.84938e-11
-4.30944e-17
2.04073e-13
-2.59804e-11
-9.4633e-17
2.99535e-13
-3.49124e-11
2.27404e-17
4.19224e-13
-4.53932e-11
-1.04817e-16
5.69156e-13
-5.75531e-11
8.93144e-17
7.50343e-13
-7.15171e-11
-4.4233e-17
9.68525e-13
-8.74348e-11
6.16538e-17
1.22705e-12
-1.05479e-10
2.98096e-17
1.53055e-12
-1.25803e-10
2.79721e-17
1.88408e-12
-1.48613e-10
7.12341e-17
2.2918e-12
-1.7409e-10
3.99832e-17
2.75913e-12
-2.02451e-10
4.53827e-17
3.29055e-12
-2.33924e-10
8.58784e-18
3.89136e-12
-2.68748e-10
-5.30765e-17
4.56785e-12
-3.07163e-10
-1.56359e-17
5.32405e-12
-3.49428e-10
-9.50122e-17
6.16555e-12
-3.95845e-10
-8.61328e-17
7.09712e-12
-4.46636e-10
-4.87209e-17
8.12302e-12
-5.02151e-10
-1.56101e-17
9.24714e-12
-5.62634e-10
3.83823e-17
1.04723e-11
-6.28415e-10
6.47516e-17
1.18006e-11
-6.99792e-10
9.71469e-17
1.32326e-11
-7.76987e-10
1.13913e-16
1.47676e-11
-8.60418e-10
1.29294e-16
1.64029e-11
-9.50201e-10
1.3737e-16
1.81335e-11
-1.04667e-09
1.40417e-16
1.99521e-11
-1.15004e-09
1.36677e-16
2.18482e-11
-1.26044e-09
1.30179e-16
2.38082e-11
-1.37802e-09
1.13071e-16
2.58147e-11
-1.50282e-09
9.74779e-17
2.7846e-11
-1.63487e-09
6.43367e-17
2.98765e-11
-1.77399e-09
3.33246e-17
3.1876e-11
-1.92e-09
-5.85355e-18
-2.0725e-09
-1.46457e-17
7.46378e-16
-1.76769e-13
2.29848e-20
6.01218e-15
-1.40706e-12
1.08694e-17
1.93793e-14
-3.86359e-12
8.44969e-18
4.40892e-14
-7.51883e-12
-1.50561e-17
8.25939e-14
-1.23964e-11
-1.02412e-16
1.38875e-13
-1.85503e-11
-3.06039e-17
2.1417e-13
-2.60569e-11
-1.41687e-16
3.13671e-13
-3.50116e-11
3.23211e-17
4.37926e-13
-4.55181e-11
-7.49758e-17
5.92291e-13
-5.77069e-11
8.09906e-17
7.78154e-13
-7.1703e-11
-1.54659e-17
1.00063e-12
-8.76566e-11
7.27217e-17
1.26304e-12
-1.0574e-10
7.26261e-17
1.57053e-12
-1.2611e-10
1.3254e-16
1.92741e-12
-1.48969e-10
1.08279e-16
2.33901e-12
-1.745e-10
1.32215e-16
2.81046e-12
-2.02922e-10
1.11082e-16
3.34651e-12
-2.3446e-10
3.42767e-17
3.95277e-12
-2.69355e-10
-5.22124e-17
4.63648e-12
-3.07845e-10
8.47777e-17
5.40135e-12
-3.50193e-10
2.76773e-17
6.25314e-12
-3.96696e-10
2.33189e-17
7.19687e-12
-4.47579e-10
3.97096e-17
8.23688e-12
-5.0319e-10
5.04914e-17
9.37728e-12
-5.63773e-10
9.43731e-17
1.06208e-11
-6.29657e-10
1.14294e-16
1.19697e-11
-7.0114e-10
1.46347e-16
1.34244e-11
-7.7844e-10
1.65554e-16
1.49841e-11
-8.61976e-10
1.8115e-16
1.6646e-11
-9.51861e-10
1.91989e-16
1.84048e-11
-1.04843e-09
1.93531e-16
2.0253e-11
-1.15188e-09
1.89689e-16
2.21798e-11
-1.26237e-09
1.79481e-16
2.41711e-11
-1.38001e-09
1.5781e-16
2.6209e-11
-1.50486e-09
1.35678e-16
2.82713e-11
-1.63693e-09
9.12064e-17
3.03315e-11
-1.77605e-09
4.76381e-17
3.23591e-11
-1.92203e-09
-5.71827e-18
-2.07446e-09
-1.76839e-17
4.87709e-16
-1.77214e-13
5.80484e-18
4.20703e-15
-1.41074e-12
6.82673e-18
1.47748e-14
-3.87401e-12
1.54736e-17
3.54877e-14
-7.53928e-12
3.63726e-17
6.91538e-14
-1.24299e-11
8.16837e-18
1.1986e-13
-1.86005e-11
5.83948e-17
1.89291e-13
-2.61273e-11
-1.15136e-16
2.83638e-13
-3.51051e-11
1.09287e-16
4.03307e-13
-4.56385e-11
-7.9144e-17
5.54512e-13
-5.78573e-11
9.20634e-17
7.39095e-13
-7.18875e-11
3.07919e-18
9.6182e-13
-8.78791e-11
1.94782e-17
1.22661e-12
-1.06005e-10
-8.36414e-18
1.53881e-12
-1.26421e-10
6.97385e-17
1.90235e-12
-1.49332e-10
4.20536e-17
2.32315e-12
-1.7492e-10
1.52705e-16
2.80537e-12
-2.03403e-10
1.23545e-16
3.35411e-12
-2.35008e-10
9.19974e-17
3.97488e-12
-2.69975e-10
4.0463e-17
4.67447e-12
-3.08544e-10
1.05866e-16
5.45698e-12
-3.50975e-10
4.01503e-17
6.32828e-12
-3.97567e-10
5.27987e-17
7.29346e-12
-4.48543e-10
8.18089e-17
8.35689e-12
-5.04253e-10
8.73238e-17
9.52285e-12
-5.64938e-10
1.28632e-16
1.07942e-11
-6.30927e-10
1.38973e-16
1.2173e-11
-7.02517e-10
1.66707e-16
1.366e-11
-7.79925e-10
1.81999e-16
1.52543e-11
-8.63568e-10
1.9711e-16
1.69528e-11
-9.53558e-10
2.10118e-16
1.875e-11
-1.05022e-09
2.14978e-16
2.06382e-11
-1.15377e-09
2.14278e-16
2.26062e-11
-1.26433e-09
2.06303e-16
2.46394e-11
-1.38204e-09
1.83619e-16
2.67193e-11
-1.50694e-09
1.59515e-16
2.88229e-11
-1.63903e-09
1.06739e-16
3.0923e-11
-1.77815e-09
5.38515e-17
3.29881e-11
-1.92409e-09
-1.06831e-17
-2.07645e-09
-2.44308e-17
6.7378e-16
-1.77776e-13
9.98297e-18
4.41539e-15
-1.41489e-12
-5.62357e-17
1.65916e-14
-3.88526e-12
1.24061e-16
3.79901e-14
-7.56129e-12
-8.40384e-17
7.25958e-14
-1.24647e-11
-1.38405e-17
1.23537e-13
-1.86524e-11
-1.18985e-16
1.95834e-13
-2.61983e-11
1.56316e-16
2.90905e-13
-3.51999e-11
2.97159e-17
4.12992e-13
-4.57598e-11
9.58947e-17
5.65644e-13
-5.80093e-11
9.67162e-17
7.52091e-13
-7.20737e-11
2.85751e-17
9.7634e-13
-8.81037e-11
-4.0553e-17
1.24349e-12
-1.06273e-10
-9.9113e-18
1.55846e-12
-1.26736e-10
3.61498e-17
1.9258e-12
-1.497e-10
1.00808e-17
2.3521e-12
-1.75345e-10
1.62237e-16
2.84097e-12
-2.03891e-10
7.2785e-17
3.39877e-12
-2.35565e-10
7.48987e-17
4.03044e-12
-2.70607e-10
-3.03566e-17
4.74402e-12
-3.09256e-10
1.49384e-16
5.54325e-12
-3.51773e-10
9.26667e-17
6.43408e-12
-3.98457e-10
6.81772e-17
7.42186e-12
-4.49531e-10
6.85814e-17
8.51101e-12
-5.05342e-10
4.82378e-17
9.70594e-12
-5.66132e-10
8.2857e-17
1.10095e-11
-6.3223e-10
9.3887e-17
1.24239e-11
-7.03931e-10
1.29573e-16
1.39496e-11
-7.81449e-10
1.57059e-16
1.55856e-11
-8.65203e-10
1.806e-16
1.73287e-11
-9.55299e-10
2.04981e-16
1.9173e-11
-1.05206e-09
2.14929e-16
2.11104e-11
-1.15571e-09
2.21471e-16
2.31293e-11
-1.26635e-09
2.15417e-16
2.52142e-11
-1.38413e-09
1.95078e-16
2.73461e-11
-1.50907e-09
1.69664e-16
2.95011e-11
-1.64119e-09
1.12253e-16
3.16509e-11
-1.7803e-09
5.21097e-17
3.37628e-11
-1.92621e-09
-2.03917e-17
-2.07849e-09
-3.38417e-17
5.20498e-16
-1.78142e-13
1.83105e-17
3.11982e-15
-1.41809e-12
-7.31309e-17
1.33603e-14
-3.89422e-12
1.75756e-16
3.18782e-14
-7.57919e-12
6.4335e-17
6.22376e-14
-1.24957e-11
-6.12618e-17
1.09703e-13
-1.87014e-11
-1.68352e-16
1.76619e-13
-2.62668e-11
-2.07995e-16
2.69171e-13
-3.52927e-11
-1.92736e-17
3.88304e-13
-4.58792e-11
-4.69139e-17
5.39515e-13
-5.81601e-11
5.3879e-17
7.25768e-13
-7.22603e-11
-5.96244e-17
9.51269e-13
-8.83306e-11
-1.70251e-16
1.22212e-12
-1.06544e-10
-9.52579e-17
1.54251e-12
-1.27057e-10
-9.44664e-17
1.91803e-12
-1.50075e-10
-4.96486e-17
2.35492e-12
-1.75781e-10
1.5012e-16
2.85632e-12
-2.04392e-10
4.34766e-17
3.42961e-12
-2.36137e-10
1.50088e-16
4.0791e-12
-2.71256e-10
2.73391e-17
4.81278e-12
-3.09989e-10
1.14635e-16
5.63505e-12
-3.52595e-10
6.08851e-17
6.55187e-12
-3.99373e-10
6.05549e-17
7.56879e-12
-4.50547e-10
8.51644e-17
8.69026e-12
-5.06463e-10
6.80246e-17
9.92095e-12
-5.67362e-10
1.06567e-16
1.12637e-11
-6.33572e-10
1.07715e-16
1.27209e-11
-7.05387e-10
1.34774e-16
1.4293e-11
-7.8302e-10
1.52135e-16
1.59788e-11
-8.66887e-10
1.69489e-16
1.77749e-11
-9.57093e-10
1.91778e-16
1.96752e-11
-1.05396e-09
2.02562e-16
2.16711e-11
-1.1577e-09
2.12473e-16
2.37503e-11
-1.26843e-09
2.1018e-16
2.58967e-11
-1.38627e-09
1.92723e-16
2.80905e-11
-1.51126e-09
1.69122e-16
3.03066e-11
-1.6434e-09
1.09156e-16
3.25156e-11
-1.78251e-09
4.47351e-17
3.46835e-11
-1.92837e-09
-3.28501e-17
-2.08058e-09
-4.4689e-17
5.50196e-16
-1.78584e-13
1.28066e-17
4.00632e-15
-1.42148e-12
5.52026e-18
1.44267e-14
-3.90425e-12
1.57181e-17
3.32937e-14
-7.59872e-12
-1.28248e-16
6.50138e-14
-1.25287e-11
-6.90615e-17
1.16393e-13
-1.87495e-11
3.57799e-16
1.81887e-13
-2.63332e-11
-5.94826e-17
2.77365e-13
-3.53838e-11
4.69176e-16
3.94767e-13
-4.59982e-11
-1.32123e-16
5.46768e-13
-5.83115e-11
6.85215e-17
7.33938e-13
-7.2448e-11
-4.79298e-17
9.61682e-13
-8.85588e-11
-5.68658e-17
1.23513e-12
-1.06818e-10
-6.50838e-17
1.55961e-12
-1.27382e-10
-1.70858e-17
1.94122e-12
-1.50457e-10
3.82612e-17
2.38637e-12
-1.76224e-10
2.12942e-16
2.89798e-12
-2.04904e-10
-1.26521e-17
3.4849e-12
-2.36724e-10
1.03095e-16
4.15088e-12
-2.71923e-10
-4.80884e-17
4.90511e-12
-3.10742e-10
1.69913e-16
5.75162e-12
-3.5344e-10
1.42789e-16
6.6965e-12
-4.00317e-10
1.137e-16
7.74553e-12
-4.51595e-10
1.12291e-16
8.9032e-12
-5.0762e-10
6.07907e-17
1.01744e-11
-5.68632e-10
8.04723e-17
1.15619e-11
-6.34959e-10
6.73877e-17
1.30682e-11
-7.06892e-10
8.97316e-17
1.46935e-11
-7.84645e-10
1.08936e-16
1.64367e-11
-8.68629e-10
1.28554e-16
1.82939e-11
-9.58949e-10
1.58865e-16
2.02588e-11
-1.05593e-09
1.7377e-16
2.23221e-11
-1.15976e-09
1.92218e-16
2.4471e-11
-1.27057e-09
1.93914e-16
2.66885e-11
-1.38849e-09
1.82524e-16
2.89537e-11
-1.51352e-09
1.60965e-16
3.12405e-11
-1.64569e-09
1.01377e-16
3.3518e-11
-1.78478e-09
3.43211e-17
3.57508e-11
-1.93061e-09
-4.58083e-17
-2.08273e-09
-5.42245e-17
4.39721e-16
-1.78908e-13
1.56788e-17
3.23934e-15
-1.42444e-12
-1.62877e-17
1.27703e-14
-3.91293e-12
7.72606e-17
2.99052e-14
-7.61564e-12
-3.06007e-18
5.80423e-14
-1.25586e-11
-8.88611e-17
1.02408e-13
-1.87952e-11
-1.6613e-16
1.67297e-13
-2.63979e-11
6.64523e-17
2.61468e-13
-3.54742e-11
4.1789e-16
3.79555e-13
-4.61151e-11
1.58945e-16
5.32511e-13
-5.8462e-11
3.12452e-16
7.22111e-13
-7.26363e-11
1.27271e-16
9.52392e-13
-8.87898e-11
-7.75614e-17
1.23146e-12
-1.07097e-10
-1.51547e-17
1.56221e-12
-1.27714e-10
-1.92252e-16
1.95412e-12
-1.50848e-10
3.05958e-17
2.41134e-12
-1.7668e-10
1.17703e-16
2.93807e-12
-2.05431e-10
-6.41369e-17
3.54341e-12
-2.37328e-10
1.30721e-16
4.23118e-12
-2.72611e-10
-3.47068e-18
5.01036e-12
-3.1152e-10
1.13812e-16
5.88582e-12
-3.54315e-10
8.2482e-17
6.86371e-12
-4.01294e-10
7.84894e-17
7.95007e-12
-4.5268e-10
1.0403e-16
9.14946e-12
-5.08819e-10
5.88281e-17
1.0467e-11
-5.69949e-10
8.57436e-17
1.19055e-11
-6.36397e-10
6.59632e-17
1.34676e-11
-7.08454e-10
8.38149e-17
1.51534e-11
-7.8633e-10
9.37686e-17
1.69616e-11
-8.70436e-10
1.07987e-16
1.88881e-11
-9.60874e-10
1.34506e-16
2.0926e-11
-1.05796e-09
1.49174e-16
2.30657e-11
-1.1619e-09
1.69899e-16
2.52935e-11
-1.2728e-09
1.75515e-16
2.75915e-11
-1.39078e-09
1.68282e-16
2.99376e-11
-1.51587e-09
1.50377e-16
3.23043e-11
-1.64805e-09
9.17665e-17
3.46595e-11
-1.78714e-09
2.41585e-17
3.69658e-11
-1.93291e-09
-5.63969e-17
-2.08494e-09
-6.07766e-17
4.7489e-16
-1.79277e-13
1.34439e-17
3.61885e-15
-1.42746e-12
1.8511e-17
1.32556e-14
-3.92156e-12
1.24132e-16
2.97388e-14
-7.63359e-12
-1.96022e-16
6.17214e-14
-1.25898e-11
6.84052e-18
1.10895e-13
-1.88412e-11
1.66661e-16
1.78695e-13
-2.64682e-11
-8.63538e-17
2.69275e-13
-3.55696e-11
-5.53073e-16
3.89795e-13
-4.62335e-11
2.5808e-16
5.4033e-13
-5.86163e-11
-5.01177e-16
7.33203e-13
-7.28271e-11
2.62996e-16
9.65773e-13
-8.9025e-11
-3.13965e-16
1.2496e-12
-1.07381e-10
-5.43665e-17
1.58682e-12
-1.28054e-10
-2.44694e-16
1.98792e-12
-1.51249e-10
3.56949e-17
2.45717e-12
-1.77148e-10
1.42735e-16
2.99863e-12
-2.05973e-10
-9.96393e-17
3.62268e-12
-2.37951e-10
1.19412e-16
4.33251e-12
-2.73321e-10
-8.20827e-17
5.13872e-12
-3.12324e-10
1.97025e-16
6.04571e-12
-3.5522e-10
2.1874e-16
7.0598e-12
-4.02307e-10
1.94426e-16
8.18738e-12
-4.53806e-10
1.97102e-16
9.43305e-12
-5.10063e-10
1.16122e-16
1.08021e-11
-5.71317e-10
1.18229e-16
1.22976e-11
-6.37892e-10
7.447e-17
1.39219e-11
-7.10077e-10
7.68069e-17
1.56752e-11
-7.88082e-10
7.69927e-17
1.7556e-11
-8.72316e-10
8.39963e-17
1.95598e-11
-9.62877e-10
1.10287e-16
2.16793e-11
-1.06008e-09
1.23365e-16
2.39042e-11
-1.16412e-09
1.48814e-16
2.622e-11
-1.27511e-09
1.56504e-16
2.86077e-11
-1.39317e-09
1.55069e-16
3.10441e-11
-1.5183e-09
1.39817e-16
3.35001e-11
-1.65051e-09
8.39234e-17
3.59419e-11
-1.78958e-09
1.66665e-17
3.83303e-11
-1.9353e-09
-6.27553e-17
-2.08723e-09
-6.16435e-17
4.10506e-16
-1.79578e-13
1.46642e-17
3.26221e-15
-1.43025e-12
9.91324e-18
1.28834e-14
-3.92977e-12
1.64746e-16
2.87444e-14
-7.65107e-12
-1.85904e-16
6.02255e-14
-1.26188e-11
2.49728e-16
1.0412e-13
-1.88858e-11
-2.5948e-16
1.67394e-13
-2.65341e-11
3.24836e-17
2.54942e-13
-3.56579e-11
2.96744e-17
3.77885e-13
-4.63537e-11
3.79824e-16
5.31667e-13
-5.8782e-11
-1.33916e-15
7.30346e-13
-7.30266e-11
-1.59128e-16
9.69783e-13
-8.92717e-11
-7.76241e-16
1.2613e-12
-1.07678e-10
-6.33047e-16
1.60833e-12
-1.28407e-10
-6.9465e-16
2.02226e-12
-1.51664e-10
-2.43677e-16
2.50699e-12
-1.77634e-10
-2.79059e-17
3.06716e-12
-2.06535e-10
-2.0991e-16
3.71367e-12
-2.38596e-10
1.13454e-16
4.45026e-12
-2.74058e-10
-4.31352e-17
5.28714e-12
-3.1316e-10
1.20459e-16
6.22965e-12
-3.56161e-10
1.0888e-16
7.28439e-12
-4.03361e-10
1.07794e-16
8.45803e-12
-4.54978e-10
1.47353e-16
9.75528e-12
-5.1136e-10
8.609e-17
1.11817e-11
-5.72743e-10
1.07922e-16
1.27403e-11
-6.3945e-10
6.76297e-17
1.44335e-11
-7.1177e-10
7.43303e-17
1.62615e-11
-7.8991e-10
6.96384e-17
1.82224e-11
-8.74277e-10
7.42481e-17
2.03117e-11
-9.64966e-10
9.60429e-17
2.25213e-11
-1.06229e-09
1.08014e-16
2.48402e-11
-1.16644e-09
1.33414e-16
2.7253e-11
-1.27753e-09
1.43697e-16
2.97398e-11
-1.39565e-09
1.45248e-16
3.22757e-11
-1.52084e-09
1.33527e-16
3.48302e-11
-1.65306e-09
7.98031e-17
3.73675e-11
-1.79212e-09
1.4069e-17
3.98465e-11
-1.93778e-09
-6.288e-17
-2.08961e-09
-5.63685e-17
4.27463e-16
-1.79908e-13
1.27282e-17
3.55757e-15
-1.43308e-12
3.96679e-17
1.27754e-14
-3.93819e-12
9.88127e-17
3.01742e-14
-7.66839e-12
-6.0563e-19
5.77839e-14
-1.26487e-11
-2.7397e-16
1.04897e-13
-1.89323e-11
4.68637e-17
1.74934e-13
-2.66026e-11
2.09421e-17
2.73568e-13
-3.57527e-11
-1.34555e-16
3.94404e-13
-4.64768e-11
1.65596e-16
5.58291e-13
-5.893e-11
1.72935e-15
7.50845e-13
-7.32215e-11
-1.01123e-16
9.98097e-13
-8.95123e-11
6.56086e-16
1.29292e-12
-1.07973e-10
-1.01621e-17
1.65098e-12
-1.28763e-10
2.60611e-16
2.07518e-12
-1.52089e-10
-4.19489e-17
2.5761e-12
-1.78133e-10
2.62587e-16
3.15502e-12
-2.07116e-10
-2.15479e-16
3.82512e-12
-2.39266e-10
7.34921e-17
4.58982e-12
-2.74824e-10
-9.86333e-17
5.46035e-12
-3.14029e-10
1.90995e-16
6.4418e-12
-3.57141e-10
2.25943e-16
7.54109e-12
-4.04458e-10
2.2381e-16
8.76521e-12
-4.562e-10
2.56435e-16
1.0119e-11
-5.12712e-10
1.73838e-16
1.16083e-11
-5.74231e-10
1.78432e-16
1.32361e-11
-6.41077e-10
1.17534e-16
1.5005e-11
-7.13538e-10
1.07148e-16
1.69149e-11
-7.91819e-10
8.88753e-17
1.89637e-11
-8.76325e-10
8.09485e-17
2.11465e-11
-9.67148e-10
9.6894e-17
2.34547e-11
-1.0646e-09
1.02124e-16
2.58766e-11
-1.16886e-09
1.27871e-16
2.83956e-11
-1.28004e-09
1.37075e-16
3.09905e-11
-1.39825e-09
1.42247e-16
3.36352e-11
-1.52348e-09
1.32138e-16
3.62973e-11
-1.65573e-09
8.14029e-17
3.8939e-11
-1.79476e-09
1.74474e-17
4.15169e-11
-1.94036e-09
-5.64188e-17
-2.09207e-09
-4.31986e-17
3.86514e-16
-1.80199e-13
1.28996e-17
3.34345e-15
-1.4358e-12
2.97235e-17
1.25722e-14
-3.94644e-12
1.16138e-16
3.00741e-14
-7.68557e-12
3.43882e-17
5.89805e-14
-1.26786e-11
-1.1149e-16
1.06871e-13
-1.89801e-11
5.03592e-19
1.70404e-13
-2.66702e-11
-5.19213e-16
2.67249e-13
-3.5844e-11
1.29688e-16
3.90247e-13
-4.66068e-11
-3.11242e-16
5.60358e-13
-5.90941e-11
6.79641e-16
7.59293e-13
-7.34298e-11
-9.83763e-16
1.01664e-12
-8.97684e-11
9.28585e-17
1.32144e-12
-1.08285e-10
-7.72858e-16
1.69264e-12
-1.29137e-10
-2.5246e-16
2.13289e-12
-1.52532e-10
-3.97001e-16
2.65342e-12
-1.78653e-10
9.10565e-17
3.25544e-12
-2.0772e-10
-3.43701e-16
3.95307e-12
-2.39963e-10
5.76849e-17
4.75009e-12
-2.75621e-10
-9.16706e-17
5.65794e-12
-3.14935e-10
1.56423e-16
6.68235e-12
-3.58163e-10
1.74544e-16
7.83066e-12
-4.05605e-10
1.88079e-16
9.11018e-12
-4.57478e-10
2.37512e-16
1.0526e-11
-5.14127e-10
1.64733e-16
1.2084e-11
-5.75787e-10
1.85625e-16
1.37875e-11
-6.42779e-10
1.26591e-16
1.56388e-11
-7.15389e-10
1.20618e-16
1.7638e-11
-7.93817e-10
9.74592e-17
1.97826e-11
-8.78469e-10
8.80972e-17
2.20672e-11
-9.69431e-10
9.91269e-17
2.44826e-11
-1.06701e-09
1.03099e-16
2.70163e-11
-1.17139e-09
1.27263e-16
2.96506e-11
-1.28268e-09
1.38111e-16
3.23631e-11
-1.40096e-09
1.44793e-16
3.51258e-11
-1.52624e-09
1.37605e-16
3.79045e-11
-1.6585e-09
8.90923e-17
4.06594e-11
-1.79751e-09
2.76121e-17
4.33446e-11
-1.94305e-09
-4.22229e-17
-2.09464e-09
-2.29798e-17
4.06111e-16
-1.80513e-13
1.2096e-17
3.5781e-15
-1.43862e-12
4.51687e-17
1.30433e-14
-3.95496e-12
1.13846e-16
3.03827e-14
-7.70344e-12
-7.36168e-17
6.10902e-14
-1.27094e-11
-7.23979e-18
1.06977e-13
-1.90285e-11
-2.95813e-16
1.76807e-13
-2.67397e-11
-1.45631e-17
2.79867e-13
-3.59401e-11
3.61679e-16
4.05723e-13
-4.67353e-11
1.47778e-16
5.79782e-13
-5.92603e-11
7.92635e-16
7.84324e-13
-7.36409e-11
-5.90997e-16
1.04944e-12
-9.00309e-11
2.27241e-16
1.36416e-12
-1.08606e-10
-6.55898e-16
1.74932e-12
-1.29523e-10
-7.17689e-17
2.20597e-12
-1.52991e-10
-3.89582e-16
2.74789e-12
-1.79193e-10
2.18599e-16
3.37461e-12
-2.0835e-10
-3.62958e-16
4.10209e-12
-2.4069e-10
6.60164e-17
4.93395e-12
-2.76454e-10
-1.08232e-16
5.88253e-12
-3.15882e-10
1.84879e-16
6.9538e-12
-3.59232e-10
2.38907e-16
8.15554e-12
-4.06804e-10
2.75542e-16
9.49535e-12
-4.58815e-10
3.3203e-16
1.09785e-11
-5.15608e-10
2.51611e-16
1.26113e-11
-5.77418e-10
2.62498e-16
1.43968e-11
-6.44563e-10
1.88757e-16
1.63377e-11
-7.17328e-10
1.67704e-16
1.84336e-11
-7.95912e-10
1.33453e-16
2.06819e-11
-8.80716e-10
1.11733e-16
2.30767e-11
-9.71825e-10
1.17246e-16
2.56081e-11
-1.06954e-09
1.13585e-16
2.82627e-11
-1.17405e-09
1.3715e-16
3.10216e-11
-1.28543e-09
1.45817e-16
3.38609e-11
-1.4038e-09
1.55076e-16
3.67509e-11
-1.52913e-09
1.49018e-16
3.96555e-11
-1.66141e-09
1.03472e-16
4.25323e-11
-1.80039e-09
4.46444e-17
4.53331e-11
-1.94585e-09
-2.12274e-17
-2.09731e-09
5.38489e-18
3.82903e-16
-1.80808e-13
1.19499e-17
3.48459e-15
-1.44143e-12
3.83007e-17
1.30272e-14
-3.96352e-12
1.18061e-16
3.08144e-14
-7.72145e-12
-3.37471e-17
6.2456e-14
-1.27406e-11
5.17564e-17
1.09243e-13
-1.9078e-11
-3.22085e-16
1.80328e-13
-2.68121e-11
-2.12891e-16
2.85715e-13
-3.60408e-11
9.72965e-17
4.15167e-13
-4.68698e-11
-1.21749e-16
5.96019e-13
-5.94347e-11
6.5552e-16
8.08519e-13
-7.38614e-11
-7.73594e-16
1.0841e-12
-9.03052e-11
9.36364e-17
1.41168e-12
-1.0894e-10
-7.80332e-16
1.8131e-12
-1.29926e-10
-9.89812e-17
2.28957e-12
-1.5347e-10
-3.95577e-16
2.85549e-12
-1.79757e-10
2.72303e-16
3.51038e-12
-2.09008e-10
-3.39921e-16
4.27104e-12
-2.4145e-10
9.58733e-17
5.14155e-12
-2.77325e-10
-1.01986e-16
6.13477e-12
-3.16873e-10
1.72137e-16
7.25714e-12
-3.60353e-10
1.96245e-16
8.517e-12
-4.08062e-10
2.29103e-16
9.92227e-12
-4.60217e-10
2.89205e-16
1.14785e-11
-5.17162e-10
2.16785e-16
1.31922e-11
-5.79129e-10
2.51135e-16
1.50665e-11
-6.46436e-10
1.85181e-16
1.71042e-11
-7.19364e-10
1.74244e-16
1.93045e-11
-7.98111e-10
1.3967e-16
2.16647e-11
-8.83075e-10
1.20901e-16
2.41783e-11
-9.74338e-10
1.24856e-16
2.68346e-11
-1.0722e-09
1.22957e-16
2.96193e-11
-1.17683e-09
1.46434e-16
3.25121e-11
-1.28833e-09
1.58025e-16
3.54877e-11
-1.40677e-09
1.6904e-16
3.85145e-11
-1.53215e-09
1.66389e-16
4.15541e-11
-1.66444e-09
1.2347e-16
4.45617e-11
-1.8034e-09
6.77898e-17
4.74862e-11
-1.94877e-09
6.79602e-18
-2.10009e-09
3.95171e-17
4.05714e-16
-1.81124e-13
1.17709e-17
3.66145e-15
-1.44435e-12
4.29641e-17
1.34277e-14
-3.97241e-12
1.05991e-16
3.26749e-14
-7.74005e-12
6.88917e-17
6.43027e-14
-1.27734e-11
-1.39354e-16
1.12995e-13
-1.91293e-11
-3.04858e-16
1.87524e-13
-2.68867e-11
-6.96019e-17
2.97912e-13
-3.61444e-11
3.19403e-16
4.31156e-13
-4.70087e-11
-1.63957e-16
6.20174e-13
-5.96144e-11
1.00455e-15
8.40592e-13
-7.40898e-11
-7.86096e-16
1.12869e-12
-9.05888e-11
4.27897e-16
1.47002e-12
-1.09288e-10
-7.03588e-16
1.88886e-12
-1.30346e-10
-9.3211e-17
2.38727e-12
-1.53971e-10
-2.83461e-16
2.97885e-12
-1.80347e-10
1.9758e-16
3.66483e-12
-2.09696e-10
-3.07799e-16
4.46161e-12
-2.42246e-10
4.98037e-17
5.37429e-12
-2.78239e-10
-1.13788e-16
6.41614e-12
-3.17914e-10
1.63029e-16
7.59406e-12
-3.61529e-10
1.96063e-16
8.91696e-12
-4.09383e-10
2.58659e-16
1.03931e-11
-4.6169e-10
3.33365e-16
1.20283e-11
-5.18795e-10
2.6426e-16
1.38293e-11
-5.80928e-10
2.96002e-16
1.57993e-11
-6.48404e-10
2.25341e-16
1.79411e-11
-7.21504e-10
2.05801e-16
2.02538e-11
-8.00422e-10
1.68093e-16
2.27342e-11
-8.85554e-10
1.41428e-16
2.53754e-11
-9.76977e-10
1.4487e-16
2.81657e-11
-1.07499e-09
1.3815e-16
3.10898e-11
-1.17975e-09
1.63492e-16
3.41261e-11
-1.29136e-09
1.74281e-16
3.72476e-11
-1.40989e-09
1.88765e-16
4.04206e-11
-1.53533e-09
1.88068e-16
4.36044e-11
-1.66763e-09
1.48567e-16
4.67517e-11
-1.80654e-09
9.63402e-17
4.98083e-11
-1.95183e-09
3.96038e-17
-2.10299e-09
8.01398e-17
3.96444e-16
-1.81436e-13
1.13009e-17
3.68029e-15
-1.44733e-12
3.78103e-17
1.37287e-14
-3.98159e-12
1.03468e-16
3.36076e-14
-7.75935e-12
6.23911e-17
6.65188e-14
-1.28073e-11
-1.11222e-16
1.17099e-13
-1.91826e-11
-3.24978e-16
1.94635e-13
-2.69647e-11
-1.05724e-16
3.09488e-13
-3.62527e-11
2.91619e-16
4.48527e-13
-4.71543e-11
-2.6758e-16
6.44968e-13
-5.98035e-11
7.81777e-16
8.76241e-13
-7.43295e-11
-8.45714e-16
1.17726e-12
-9.08869e-11
2.57312e-16
1.53508e-12
-1.09653e-10
-7.42364e-16
1.97443e-12
-1.30785e-10
-9.6715e-18
2.49703e-12
-1.54495e-10
-2.28047e-16
3.11801e-12
-1.80965e-10
3.6096e-16
3.83799e-12
-2.10418e-10
-2.16781e-16
4.67453e-12
-2.43082e-10
1.18278e-16
5.63309e-12
-2.79198e-10
-9.49834e-17
6.72785e-12
-3.19007e-10
1.84237e-16
7.96598e-12
-3.62765e-10
1.94717e-16
9.357e-12
-4.10772e-10
2.47842e-16
1.09096e-11
-4.6324e-10
3.28187e-16
1.26299e-11
-5.20513e-10
2.58336e-16
1.45248e-11
-5.8282e-10
3.02244e-16
1.65978e-11
-6.50475e-10
2.28629e-16
1.88513e-11
-7.23756e-10
2.12592e-16
2.12846e-11
-8.02854e-10
1.71288e-16
2.38938e-11
-8.88162e-10
1.47056e-16
2.66715e-11
-9.79754e-10
1.50378e-16
2.96052e-11
-1.07792e-09
1.48056e-16
3.26783e-11
-1.18282e-09
1.75653e-16
3.58679e-11
-1.29455e-09
1.91655e-16
3.91449e-11
-1.41317e-09
2.09375e-16
4.24738e-11
-1.53865e-09
2.13392e-16
4.58112e-11
-1.67096e-09
1.77396e-16
4.9107e-11
-1.80984e-09
1.28871e-16
5.2304e-11
-1.95502e-09
7.76298e-17
-2.10603e-09
1.24212e-16
4.23814e-16
-1.81769e-13
1.18559e-17
3.88406e-15
-1.45048e-12
4.05955e-17
1.43696e-14
-3.9912e-12
1.06477e-16
3.5002e-14
-7.77962e-12
3.0867e-17
6.96818e-14
-1.28427e-11
-8.91104e-17
1.22904e-13
-1.92383e-11
-2.84731e-16
2.04272e-13
-2.70462e-11
-8.31868e-17
3.23541e-13
-3.63663e-11
1.91125e-16
4.704e-13
-4.73061e-11
-9.88735e-17
6.76085e-13
-6.00009e-11
8.84627e-16
9.18783e-13
-7.45801e-11
-7.69517e-16
1.23455e-12
-9.11988e-11
3.77964e-16
1.61003e-12
-1.10035e-10
-7.4302e-16
2.07162e-12
-1.31247e-10
5.09982e-17
2.62056e-12
-1.55045e-10
-2.46327e-16
3.27339e-12
-1.81614e-10
3.86487e-16
4.03054e-12
-2.11177e-10
-2.3393e-16
4.91032e-12
-2.43961e-10
8.92776e-17
5.91889e-12
-2.80208e-10
-1.12782e-16
7.07105e-12
-3.20157e-10
1.97146e-16
8.37436e-12
-3.64067e-10
2.00654e-16
9.83892e-12
-4.12234e-10
2.61265e-16
1.14739e-11
-4.64872e-10
3.43052e-16
1.32856e-11
-5.22323e-10
2.72453e-16
1.52815e-11
-5.84813e-10
3.11482e-16
1.74647e-11
-6.52657e-10
2.38322e-16
1.9838e-11
-7.26128e-10
2.17404e-16
2.24001e-11
-8.05415e-10
1.80221e-16
2.51471e-11
-8.90908e-10
1.52669e-16
2.80706e-11
-9.82676e-10
1.61571e-16
3.11572e-11
-1.08101e-09
1.58653e-16
3.43891e-11
-1.18606e-09
1.92173e-16
3.77418e-11
-1.2979e-09
2.10199e-16
4.11843e-11
-1.41661e-09
2.3348e-16
4.46788e-11
-1.54214e-09
2.41157e-16
4.81793e-11
-1.67446e-09
2.09436e-16
5.16326e-11
-1.81329e-09
1.65297e-16
5.49784e-11
-1.95837e-09
1.18414e-16
-2.10919e-09
1.73305e-16
4.30995e-16
-1.82109e-13
1.19678e-17
4.01436e-15
-1.45376e-12
3.80061e-17
1.49563e-14
-4.00129e-12
1.03038e-16
3.65642e-14
-7.8009e-12
2.83081e-17
7.30296e-14
-1.28799e-11
-8.56317e-17
1.28973e-13
-1.92969e-11
-3.0885e-16
2.14385e-13
-2.71321e-11
-1.14914e-16
3.39558e-13
-3.64858e-11
2.02549e-16
4.94363e-13
-4.74657e-11
-8.62567e-17
7.10248e-13
-6.02086e-11
8.67524e-16
9.65962e-13
-7.48439e-11
-7.91211e-16
1.29784e-12
-9.15275e-11
3.02892e-16
1.69346e-12
-1.10437e-10
-7.6921e-16
2.17932e-12
-1.31733e-10
5.4827e-19
2.75756e-12
-1.55625e-10
-2.49693e-16
3.44517e-12
-1.82299e-10
4.14634e-16
4.24297e-12
-2.11976e-10
-2.0676e-16
5.16993e-12
-2.44887e-10
1.2689e-16
6.23286e-12
-2.81271e-10
-7.75613e-17
7.44706e-12
-3.2137e-10
1.89339e-16
8.82066e-12
-3.65439e-10
1.73099e-16
1.03644e-11
-4.13776e-10
2.29527e-16
1.20879e-11
-4.66593e-10
3.31299e-16
1.39978e-11
-5.2423e-10
2.58116e-16
1.61017e-11
-5.86914e-10
3.05015e-16
1.8403e-11
-6.54956e-10
2.24897e-16
2.09042e-11
-7.28627e-10
2.06524e-16
2.3604e-11
-8.08113e-10
1.67161e-16
2.64979e-11
-8.93801e-10
1.44855e-16
2.95767e-11
-9.85753e-10
1.57336e-16
3.28261e-11
-1.08425e-09
1.62848e-16
3.62269e-11
-1.18945e-09
2.02082e-16
3.97528e-11
-1.30142e-09
2.28326e-16
4.3371e-11
-1.42022e-09
2.57034e-16
4.7041e-11
-1.54581e-09
2.7104e-16
5.07141e-11
-1.67813e-09
2.44e-16
5.43341e-11
-1.81691e-09
2.04007e-16
5.78369e-11
-1.96187e-09
1.63181e-16
-2.11251e-09
2.23878e-16
4.59999e-16
-1.82476e-13
1.23228e-17
4.26799e-15
-1.45723e-12
4.26214e-17
1.57591e-14
-4.01194e-12
1.02497e-16
3.86898e-14
-7.82333e-12
4.73002e-17
7.68833e-14
-1.29193e-11
-1.39727e-16
1.36106e-13
-1.93587e-11
-3.00113e-16
2.26342e-13
-2.72225e-11
-7.22854e-17
3.5879e-13
-3.66114e-11
3.26975e-16
5.21701e-13
-4.76343e-11
-1.71667e-16
7.49075e-13
-6.04277e-11
8.88166e-16
1.01899e-12
-7.51221e-11
-8.23351e-16
1.36897e-12
-9.18737e-11
3.59901e-16
1.78655e-12
-1.10861e-10
-7.22158e-16
2.29917e-12
-1.32245e-10
8.28602e-17
2.90927e-12
-1.56237e-10
-2.03865e-16
3.63451e-12
-1.8302e-10
4.40452e-16
4.4764e-12
-2.1282e-10
-2.00634e-16
5.45435e-12
-2.45864e-10
1.13934e-16
6.57591e-12
-2.82394e-10
-1.0349e-16
7.85712e-12
-3.22649e-10
2.01064e-16
9.30655e-12
-3.66887e-10
1.80678e-16
1.09354e-11
-4.15403e-10
2.27729e-16
1.27539e-11
-4.68408e-10
3.14797e-16
1.47689e-11
-5.26244e-10
2.34454e-16
1.69883e-11
-5.89132e-10
2.73737e-16
1.94156e-11
-6.57382e-10
1.99902e-16
2.20534e-11
-7.31264e-10
1.81168e-16
2.48999e-11
-8.10958e-10
1.53903e-16
2.79501e-11
-8.9685e-10
1.33684e-16
3.11941e-11
-9.88996e-10
1.57901e-16
3.46164e-11
-1.08767e-09
1.67134e-16
3.81964e-11
-1.19303e-09
2.16149e-16
4.19061e-11
-1.30513e-09
2.47285e-16
4.57102e-11
-1.42402e-09
2.83491e-16
4.95658e-11
-1.54966e-09
3.02804e-16
5.34214e-11
-1.68199e-09
2.80633e-16
5.72171e-11
-1.8207e-09
2.45797e-16
6.08854e-11
-1.96553e-09
2.09086e-16
-2.11597e-09
2.78552e-16
4.68271e-16
-1.82858e-13
1.08465e-17
4.44361e-15
-1.46088e-12
4.30715e-17
1.66086e-14
-4.02325e-12
1.01523e-16
4.08562e-14
-7.84704e-12
5.53579e-17
8.14733e-14
-1.29609e-11
-1.11313e-16
1.44235e-13
-1.9424e-11
-2.94639e-16
2.39612e-13
-2.73182e-11
-1.04439e-16
3.79469e-13
-3.67443e-11
3.45468e-16
5.52134e-13
-4.78124e-11
-1.40216e-16
7.92098e-13
-6.06592e-11
9.23377e-16
1.07788e-12
-7.54163e-11
-8.2835e-16
1.44748e-12
-9.224e-11
3.13948e-16
1.88908e-12
-1.1131e-10
-7.68942e-16
2.4307e-12
-1.32787e-10
2.34424e-17