/*--------------------------------*- C++ -*----------------------------------*\
| =========                 |                                                 |
| \\      /  F ield         | OpenFOAM: The Open Source CFD Toolbox           |
|  \\    /   O peration     | Version:  v2012                                 |
|   \\  /    A nd           | Website:  www.openfoam.com                      |
|    \\/     M anipulation  |                                                 |
\*---------------------------------------------------------------------------*/
FoamFile
{
    version     2.0;
    format      ascii;
    class       volVectorField;
    location    "0.65";
    object      U;
}
// * * * * * * * * * * * * * * * * * * * * * * * * * * * * * * * * * * * * * //

dimensions      [0 1 -1 0 0 0 0];


internalField   nonuniform List<vector> 
3352
(
(9.32108e-07 -0.00109628 -8.14392e-09)
(4.60041e-06 -0.00279693 -4.01533e-08)
(1.02216e-05 -0.0043989 -8.92047e-08)
(1.67891e-05 -0.00582851 -1.46516e-07)
(2.44316e-05 -0.00711939 -2.13213e-07)
(3.27855e-05 -0.0082997 -2.86134e-07)
(4.20074e-05 -0.00939017 -3.66604e-07)
(5.22816e-05 -0.0104059 -4.56273e-07)
(6.35294e-05 -0.0113581 -5.54437e-07)
(7.58379e-05 -0.0122557 -6.61858e-07)
(8.92035e-05 -0.0131054 -7.78498e-07)
(0.000103717 -0.0139125 -9.05162e-07)
(0.00011938 -0.0146814 -1.04186e-06)
(0.000136253 -0.0154155 -1.18911e-06)
(0.000154321 -0.0161175 -1.34679e-06)
(0.000173525 -0.0167896 -1.51439e-06)
(0.000193858 -0.0174335 -1.69185e-06)
(0.000215266 -0.0180505 -1.87869e-06)
(0.000237697 -0.0186416 -2.07446e-06)
(0.000261127 -0.0192077 -2.27894e-06)
(0.000285499 -0.0197489 -2.49165e-06)
(0.000310738 -0.0202655 -2.71192e-06)
(0.000336767 -0.0207575 -2.9391e-06)
(0.000363497 -0.0212245 -3.17239e-06)
(0.000390818 -0.0216662 -3.41085e-06)
(0.000418607 -0.0220818 -3.65338e-06)
(0.000446718 -0.0224705 -3.89874e-06)
(0.000474984 -0.0228314 -4.14545e-06)
(0.000503214 -0.0231631 -4.39185e-06)
(0.000531192 -0.0234645 -4.63606e-06)
(0.000558672 -0.0237338 -4.87593e-06)
(0.000585383 -0.0239696 -5.10908e-06)
(0.000611024 -0.0241699 -5.33291e-06)
(0.000635268 -0.0243327 -5.54454e-06)
(0.000657758 -0.0244558 -5.74089e-06)
(0.000678117 -0.024537 -5.91863e-06)
(0.000695944 -0.0245738 -6.07429e-06)
(0.000710823 -0.0245635 -6.20423e-06)
(0.000722331 -0.0245033 -6.30478e-06)
(6.4398e-07 -0.0011134 -5.62019e-09)
(4.00052e-06 -0.00282577 -3.49181e-08)
(9.7661e-06 -0.00443478 -8.52214e-08)
(1.7095e-05 -0.0058688 -1.49166e-07)
(2.5471e-05 -0.00716291 -2.22278e-07)
(3.50061e-05 -0.00834594 -3.05498e-07)
(4.53999e-05 -0.00943867 -3.9621e-07)
(5.682e-05 -0.0104565 -4.95878e-07)
(6.91259e-05 -0.0114108 -6.03285e-07)
(8.22656e-05 -0.0123103 -7.17964e-07)
(9.63196e-05 -0.0131617 -8.4062e-07)
(0.00011122 -0.0139705 -9.70659e-07)
(0.00012711 -0.0147408 -1.10934e-06)
(0.000144013 -0.0154761 -1.25686e-06)
(0.000161947 -0.0161792 -1.41338e-06)
(0.00018093 -0.0168521 -1.57906e-06)
(0.000200977 -0.0174967 -1.75401e-06)
(0.000222054 -0.0181142 -1.93796e-06)
(0.000244131 -0.0187057 -2.13064e-06)
(0.000267243 -0.0192717 -2.33236e-06)
(0.000291345 -0.0198128 -2.54271e-06)
(0.000316329 -0.0203291 -2.76076e-06)
(0.000342136 -0.0208206 -2.98599e-06)
(0.000368676 -0.021287 -3.21762e-06)
(0.000395842 -0.0217277 -3.45472e-06)
(0.000423506 -0.0221423 -3.69616e-06)
(0.000451518 -0.0225298 -3.94064e-06)
(0.000479707 -0.0228892 -4.18666e-06)
(0.000507876 -0.0232193 -4.43252e-06)
(0.000535806 -0.0235189 -4.6763e-06)
(0.000563246 -0.0237862 -4.91581e-06)
(0.000589922 -0.0240198 -5.14863e-06)
(0.000615529 -0.0242177 -5.37214e-06)
(0.000639735 -0.0243779 -5.58343e-06)
(0.000662182 -0.0244983 -5.77937e-06)
(0.000682487 -0.0245766 -5.95662e-06)
(0.000700247 -0.0246103 -6.11166e-06)
(0.000715043 -0.0245968 -6.24085e-06)
(0.00072645 -0.0245333 -6.34049e-06)
(2.78292e-07 -0.00111026 -2.42665e-09)
(2.5671e-06 -0.00282444 -2.24019e-08)
(7.12914e-06 -0.00443651 -6.22015e-08)
(1.33241e-05 -0.00587345 -1.16258e-07)
(2.08686e-05 -0.00717003 -1.82101e-07)
(2.97315e-05 -0.00835509 -2.59454e-07)
(3.96583e-05 -0.00944967 -3.46091e-07)
(5.07888e-05 -0.0104691 -4.43233e-07)
(6.30032e-05 -0.011425 -5.4983e-07)
(7.62901e-05 -0.012326 -6.65791e-07)
(9.06558e-05 -0.0131791 -7.91169e-07)
(0.00010605 -0.0139894 -9.25517e-07)
(0.000122521 -0.0147614 -1.06927e-06)
(0.000140065 -0.0154984 -1.22238e-06)
(0.0001587 -0.0162031 -1.38502e-06)
(0.000178406 -0.0168777 -1.557e-06)
(0.000199174 -0.0175239 -1.73827e-06)
(0.000220965 -0.018143 -1.92845e-06)
(0.000243739 -0.018736 -2.12721e-06)
(0.000267509 -0.0193035 -2.33466e-06)
(0.000292215 -0.0198459 -2.5503e-06)
(0.000317785 -0.0203634 -2.77346e-06)
(0.00034416 -0.0208559 -3.00366e-06)
(0.000371253 -0.0213232 -3.24011e-06)
(0.000398951 -0.0217647 -3.48186e-06)
(0.000427131 -0.0221797 -3.72781e-06)
(0.000455639 -0.0225676 -3.97662e-06)
(0.000484305 -0.0229271 -4.22682e-06)
(0.00051293 -0.0232571 -4.47666e-06)
(0.000541292 -0.0235562 -4.72421e-06)
(0.000569139 -0.0238229 -4.96726e-06)
(0.00059619 -0.0240556 -5.20337e-06)
(0.000622139 -0.0242523 -5.42986e-06)
(0.000646648 -0.0244111 -5.64379e-06)
(0.000669353 -0.0245298 -5.84199e-06)
(0.000689868 -0.0246061 -6.02107e-06)
(0.000707785 -0.0246376 -6.17748e-06)
(0.000722679 -0.0246216 -6.30751e-06)
(0.000734123 -0.0245553 -6.40748e-06)
(3.46776e-07 -0.00112179 -3.0206e-09)
(2.90153e-06 -0.00284521 -2.53149e-08)
(7.6207e-06 -0.00446375 -6.65026e-08)
(1.41548e-05 -0.00590527 -1.23513e-07)
(2.20252e-05 -0.00720534 -1.92187e-07)
(3.12642e-05 -0.00839313 -2.72825e-07)
(4.16858e-05 -0.00948988 -3.63786e-07)
(5.32565e-05 -0.0105111 -4.64765e-07)
(6.59106e-05 -0.0114684 -5.75203e-07)
(7.95583e-05 -0.0123705 -6.94316e-07)
(9.41945e-05 -0.0132245 -8.22054e-07)
(0.000109773 -0.0140355 -9.58015e-07)
(0.000126346 -0.014808 -1.10266e-06)
(0.000143945 -0.0155455 -1.25625e-06)
(0.000162583 -0.0162505 -1.41892e-06)
(0.000182279 -0.0169254 -1.59081e-06)
(0.000203058 -0.0175717 -1.77216e-06)
(0.000224879 -0.0181909 -1.9626e-06)
(0.000247713 -0.0187838 -2.16189e-06)
(0.000271608 -0.0193512 -2.37044e-06)
(0.000296516 -0.0198934 -2.58782e-06)
(0.000322335 -0.0204107 -2.81316e-06)
(0.000349012 -0.0209028 -3.04598e-06)
(0.000376455 -0.0213696 -3.28549e-06)
(0.000404549 -0.0218106 -3.53069e-06)
(0.000433162 -0.022225 -3.78042e-06)
(0.000462134 -0.022612 -4.03328e-06)
(0.000491285 -0.0229706 -4.28771e-06)
(0.000520409 -0.0232996 -4.5419e-06)
(0.000549273 -0.0235975 -4.79385e-06)
(0.000577617 -0.0238629 -5.04124e-06)
(0.000605151 -0.0240941 -5.28156e-06)
(0.000631557 -0.0242891 -5.51205e-06)
(0.000656488 -0.0244461 -5.72967e-06)
(0.000679572 -0.0245627 -5.93117e-06)
(0.000700411 -0.0246368 -6.11309e-06)
(0.000718586 -0.0246659 -6.27176e-06)
(0.000733665 -0.0246473 -6.40342e-06)
(0.000745213 -0.0245782 -6.50429e-06)
(2.07546e-07 -0.00111969 -1.8289e-09)
(1.93782e-06 -0.00284548 -1.69e-08)
(5.4857e-06 -0.00446754 -4.78468e-08)
(1.11134e-05 -0.00591287 -9.69781e-08)
(1.80659e-05 -0.00721629 -1.57628e-07)
(2.65652e-05 -0.00840715 -2.31814e-07)
(3.6401e-05 -0.00950682 -3.17656e-07)
(4.76125e-05 -0.0105305 -4.15498e-07)
(6.01495e-05 -0.0114903 -5.24914e-07)
(7.38843e-05 -0.0123946 -6.44786e-07)
(8.88407e-05 -0.0132507 -7.75318e-07)
(0.000104913 -0.0140638 -9.15587e-07)
(0.000122102 -0.0148383 -1.06561e-06)
(0.000140452 -0.0155776 -1.22576e-06)
(0.000159921 -0.0162844 -1.39567e-06)
(0.000180517 -0.016961 -1.57543e-06)
(0.000202225 -0.0176089 -1.76489e-06)
(0.000224969 -0.0182295 -1.96338e-06)
(0.000248725 -0.0188237 -2.17072e-06)
(0.000273514 -0.0193922 -2.38707e-06)
(0.000299284 -0.0199354 -2.61198e-06)
(0.000325956 -0.0204534 -2.84476e-06)
(0.000353472 -0.0209461 -3.08491e-06)
(0.000381741 -0.0214133 -3.33164e-06)
(0.000410651 -0.0218544 -3.58395e-06)
(0.000440072 -0.0222688 -3.84073e-06)
(0.000469842 -0.0226556 -4.10056e-06)
(0.000499782 -0.0230137 -4.36187e-06)
(0.000529678 -0.023342 -4.62281e-06)
(0.000559296 -0.023639 -4.88133e-06)
(0.000588366 -0.0239033 -5.13505e-06)
(0.000616591 -0.0241331 -5.3814e-06)
(0.000643644 -0.0243266 -5.61754e-06)
(0.000669168 -0.0244817 -5.84033e-06)
(0.00069278 -0.0245963 -6.04645e-06)
(0.000714072 -0.0246682 -6.23231e-06)
(0.000732612 -0.0246948 -6.39418e-06)
(0.000747959 -0.0246735 -6.52817e-06)
(0.000759667 -0.0246017 -6.63044e-06)
(1.76729e-07 -0.00112742 -1.54456e-09)
(2.43124e-06 -0.00286023 -2.12575e-08)
(6.15638e-06 -0.0044876 -5.36835e-08)
(1.19232e-05 -0.00593717 -1.0402e-07)
(1.92718e-05 -0.0072441 -1.68187e-07)
(2.75555e-05 -0.00843794 -2.40435e-07)
(3.75957e-05 -0.00954002 -3.28087e-07)
(4.904e-05 -0.0105659 -4.27956e-07)
(6.1629e-05 -0.0115273 -5.37831e-07)
(7.55118e-05 -0.0124332 -6.58988e-07)
(9.04988e-05 -0.0132905 -7.89787e-07)
(0.000106622 -0.0141046 -9.30503e-07)
(0.000123847 -0.01488 -1.08083e-06)
(0.000142304 -0.0156201 -1.24192e-06)
(0.00016191 -0.0163276 -1.41303e-06)
(0.000182741 -0.0170047 -1.59483e-06)
(0.000204752 -0.0176532 -1.78693e-06)
(0.000227883 -0.0182743 -1.98881e-06)
(0.000252108 -0.0188689 -2.20023e-06)
(0.000277453 -0.0194378 -2.42143e-06)
(0.000303873 -0.0199812 -2.65201e-06)
(0.000331256 -0.0204994 -2.89101e-06)
(0.000359539 -0.0209922 -3.13785e-06)
(0.000388624 -0.0214593 -3.3917e-06)
(0.00041839 -0.0219003 -3.65149e-06)
(0.000448698 -0.0223143 -3.91601e-06)
(0.000479378 -0.0227007 -4.18377e-06)
(0.000510237 -0.0230582 -4.45311e-06)
(0.000541054 -0.0233856 -4.72208e-06)
(0.00057158 -0.0236816 -4.98853e-06)
(0.000601535 -0.0239447 -5.24998e-06)
(0.000630609 -0.0241731 -5.50375e-06)
(0.000658463 -0.0243649 -5.74687e-06)
(0.000684725 -0.0245181 -5.97611e-06)
(0.000708999 -0.0246307 -6.188e-06)
(0.00073086 -0.0247002 -6.37884e-06)
(0.000749864 -0.0247243 -6.54475e-06)
(0.000765555 -0.0247003 -6.68175e-06)
(0.000777476 -0.0246256 -6.78588e-06)
(3.55317e-08 -0.00112681 -3.11796e-10)
(1.76403e-06 -0.00286219 -1.54278e-08)
(4.80809e-06 -0.0044935 -4.18795e-08)
(9.64736e-06 -0.00594718 -8.41304e-08)
(1.62681e-05 -0.00725717 -1.4201e-07)
(2.40566e-05 -0.00845519 -2.09922e-07)
(3.36988e-05 -0.00955994 -2.94053e-07)
(4.47941e-05 -0.0105889 -3.90913e-07)
(5.75016e-05 -0.0115529 -5.01794e-07)
(7.15074e-05 -0.0124613 -6.24041e-07)
(8.684e-05 -0.013321 -7.57848e-07)
(0.000103398 -0.0141373 -9.02363e-07)
(0.000121214 -0.0149148 -1.05785e-06)
(0.000140378 -0.0156568 -1.2251e-06)
(0.000160784 -0.0163661 -1.4032e-06)
(0.000182512 -0.0170448 -1.59283e-06)
(0.000205457 -0.0176947 -1.79309e-06)
(0.000229561 -0.018317 -2.00345e-06)
(0.000254801 -0.0189128 -2.22374e-06)
(0.000281163 -0.0194826 -2.45381e-06)
(0.000308611 -0.0200268 -2.69337e-06)
(0.00033705 -0.0205455 -2.94157e-06)
(0.000366406 -0.0210387 -3.19778e-06)
(0.000396579 -0.0215061 -3.46112e-06)
(0.000427444 -0.0219471 -3.7305e-06)
(0.000458862 -0.0223609 -4.00471e-06)
(0.000490656 -0.0227469 -4.2822e-06)
(0.000522629 -0.0231038 -4.56126e-06)
(0.00055455 -0.0234304 -4.83987e-06)
(0.000586162 -0.0237255 -5.11579e-06)
(0.00061717 -0.0239872 -5.38644e-06)
(0.000647255 -0.0242141 -5.64902e-06)
(0.000676059 -0.0244042 -5.90044e-06)
(0.000703198 -0.0245555 -6.13733e-06)
(0.000728257 -0.0246659 -6.35608e-06)
(0.000750797 -0.024733 -6.55284e-06)
(0.000770357 -0.0247545 -6.72361e-06)
(0.000786463 -0.0247277 -6.86423e-06)
(0.000798644 -0.02465 -6.97064e-06)
(1.8382e-07 -0.00113208 -1.59437e-09)
(2.2174e-06 -0.00287294 -1.93394e-08)
(4.65933e-06 -0.00450889 -4.06982e-08)
(1.10596e-05 -0.00596647 -9.65695e-08)
(1.74516e-05 -0.00727971 -1.52216e-07)
(2.45569e-05 -0.00848063 -2.14306e-07)
(3.55475e-05 -0.00958856 -3.10212e-07)
(4.60154e-05 -0.0106201 -4.01522e-07)
(5.88176e-05 -0.0115864 -5.13313e-07)
(7.25694e-05 -0.0124968 -6.33288e-07)
(8.78786e-05 -0.0133582 -7.66921e-07)
(0.000104543 -0.0141761 -9.12346e-07)
(0.000122496 -0.014955 -1.06904e-06)
(0.000141893 -0.0156982 -1.23833e-06)
(0.000162628 -0.0164087 -1.41928e-06)
(0.000184825 -0.0170885 -1.61301e-06)
(0.000208313 -0.0177393 -1.818e-06)
(0.000233081 -0.0183626 -2.03417e-06)
(0.000259091 -0.0189591 -2.26116e-06)
(0.000286333 -0.0195296 -2.49892e-06)
(0.000314766 -0.0200743 -2.74707e-06)
(0.000344261 -0.0205935 -3.0045e-06)
(0.000374735 -0.021087 -3.27046e-06)
(0.000406076 -0.0215545 -3.544e-06)
(0.00043815 -0.0219955 -3.82393e-06)
(0.000470806 -0.0224091 -4.10895e-06)
(0.000503858 -0.0227946 -4.39742e-06)
(0.000537096 -0.0231509 -4.68752e-06)
(0.000570278 -0.0234767 -4.97713e-06)
(0.000603131 -0.0237707 -5.26388e-06)
(0.000635348 -0.0240312 -5.54508e-06)
(0.00066659 -0.0242565 -5.81776e-06)
(0.000696486 -0.0244449 -6.07871e-06)
(0.000724631 -0.0245942 -6.32439e-06)
(0.000750594 -0.0247023 -6.55103e-06)
(0.000773915 -0.0247669 -6.75461e-06)
(0.000794114 -0.0247856 -6.93095e-06)
(0.000810699 -0.0247559 -7.07576e-06)
(0.000823182 -0.0246751 -7.18481e-06)
(5.55597e-08 -0.0011324 -4.8192e-10)
(1.76869e-06 -0.00287626 -1.543e-08)
(3.99413e-06 -0.00451615 -3.48556e-08)
(9.92593e-06 -0.0059767 -8.66197e-08)
(1.5646e-05 -0.00729541 -1.36424e-07)
(2.14724e-05 -0.00849984 -1.87394e-07)
(3.18823e-05 -0.00960948 -2.78306e-07)
(4.29051e-05 -0.0106452 -3.74349e-07)
(5.61461e-05 -0.0116138 -4.89969e-07)
(7.02164e-05 -0.012527 -6.1279e-07)
(8.60646e-05 -0.013391 -7.51058e-07)
(0.000103196 -0.0142113 -9.00608e-07)
(0.000121745 -0.0149924 -1.06247e-06)
(0.000141811 -0.0157377 -1.23761e-06)
(0.000163326 -0.01645 -1.42537e-06)
(0.000186423 -0.0171315 -1.62695e-06)
(0.000210863 -0.0177839 -1.84026e-06)
(0.000236668 -0.0184084 -2.06546e-06)
(0.00026379 -0.0190061 -2.30217e-06)
(0.000292191 -0.0195775 -2.55004e-06)
(0.000321829 -0.0201231 -2.80872e-06)
(0.000352589 -0.0206429 -3.07717e-06)
(0.000384374 -0.0211368 -3.35458e-06)
(0.000417067 -0.0216045 -3.63991e-06)
(0.000450522 -0.0220455 -3.9319e-06)
(0.000484585 -0.022459 -4.22919e-06)
(0.000519057 -0.0228441 -4.53006e-06)
(0.000553722 -0.0231997 -4.83261e-06)
(0.00058832 -0.0235247 -5.13458e-06)
(0.000622568 -0.0238175 -5.43351e-06)
(0.000656141 -0.0240767 -5.72655e-06)
(0.000688683 -0.0243005 -6.01058e-06)
(0.000719805 -0.0244869 -6.28223e-06)
(0.00074908 -0.0246341 -6.53777e-06)
(0.000776058 -0.0247399 -6.77327e-06)
(0.000800255 -0.0248019 -6.9845e-06)
(0.000821172 -0.0248178 -7.16711e-06)
(0.000838294 -0.024785 -7.31661e-06)
(0.000851115 -0.0247009 -7.42861e-06)
(1.55411e-07 -0.0011362 -1.34709e-09)
(1.86522e-06 -0.00288464 -1.62701e-08)
(4.63928e-06 -0.00452889 -4.04381e-08)
(1.0018e-05 -0.00599331 -8.73812e-08)
(1.42164e-05 -0.00731556 -1.24199e-07)
(2.51534e-05 -0.0085229 -2.19603e-07)
(3.50646e-05 -0.00963505 -3.05848e-07)
(4.33511e-05 -0.0106735 -3.78399e-07)
(5.84787e-05 -0.0116449 -5.10323e-07)
(7.13428e-05 -0.0125609 -6.22589e-07)
(8.73515e-05 -0.0134272 -7.62332e-07)
(0.000104691 -0.0142497 -9.13623e-07)
(0.000123464 -0.0150327 -1.07749e-06)
(0.000143968 -0.0157798 -1.25642e-06)
(0.000166004 -0.0164938 -1.44875e-06)
(0.000189805 -0.0171767 -1.65646e-06)
(0.000215028 -0.0178305 -1.8766e-06)
(0.000241754 -0.0184562 -2.10985e-06)
(0.000269895 -0.019055 -2.35544e-06)
(0.000299434 -0.0196274 -2.61325e-06)
(0.000330327 -0.0201737 -2.88287e-06)
(0.000362421 -0.0206941 -3.16297e-06)
(0.00039561 -0.0211885 -3.45263e-06)
(0.000429764 -0.0216564 -3.75072e-06)
(0.000464728 -0.0220974 -4.05587e-06)
(0.000500334 -0.0225107 -4.36663e-06)
(0.000536371 -0.0228954 -4.68116e-06)
(0.000572607 -0.0232505 -4.99743e-06)
(0.000608771 -0.0235745 -5.31306e-06)
(0.00064456 -0.0238662 -5.62544e-06)
(0.000679631 -0.024124 -5.93156e-06)
(0.00071361 -0.0243461 -6.22813e-06)
(0.000746085 -0.0245306 -6.51159e-06)
(0.000776609 -0.0246756 -6.77803e-06)
(0.000804705 -0.0247789 -7.02329e-06)
(0.00082987 -0.0248382 -7.24297e-06)
(0.000851576 -0.0248511 -7.43247e-06)
(0.000869289 -0.0248151 -7.58713e-06)
(0.000882479 -0.0247276 -7.70236e-06)
(7.58449e-08 -0.00113707 -6.53322e-10)
(1.62759e-06 -0.00288867 -1.4198e-08)
(4.37108e-06 -0.00453643 -3.8096e-08)
(9.81639e-06 -0.00600522 -8.56224e-08)
(1.37949e-05 -0.00733052 -1.20495e-07)
(2.41652e-05 -0.00854021 -2.10958e-07)
(3.28378e-05 -0.00966 -2.86376e-07)
(4.05367e-05 -0.0107015 -3.53787e-07)
(5.5897e-05 -0.0116736 -4.87893e-07)
(6.9619e-05 -0.0125945 -6.07485e-07)
(8.6753e-05 -0.0134624 -7.57089e-07)
(0.000104716 -0.0142875 -9.13878e-07)
(0.00012436 -0.0150727 -1.08528e-06)
(0.000145623 -0.015822 -1.27088e-06)
(0.000168587 -0.0165379 -1.47127e-06)
(0.000193374 -0.0172227 -1.68761e-06)
(0.000219679 -0.0178781 -1.91718e-06)
(0.000247562 -0.0185053 -2.16053e-06)
(0.000276963 -0.0191054 -2.41713e-06)
(0.000307837 -0.0196789 -2.68658e-06)
(0.000340132 -0.0202261 -2.96844e-06)
(0.000373708 -0.0207473 -3.26147e-06)
(0.00040845 -0.0212421 -3.56469e-06)
(0.000444218 -0.0217104 -3.87685e-06)
(0.00048084 -0.0221515 -4.19648e-06)
(0.000518139 -0.0225646 -4.52202e-06)
(0.00055589 -0.0229489 -4.85151e-06)
(0.000593849 -0.0233033 -5.1828e-06)
(0.000631724 -0.0236264 -5.51338e-06)
(0.000669197 -0.0239169 -5.84046e-06)
(0.000705905 -0.0241732 -6.16087e-06)
(0.000741453 -0.0243935 -6.47113e-06)
(0.000775405 -0.0245761 -6.76748e-06)
(0.000807289 -0.0247187 -7.04579e-06)
(0.000836605 -0.0248194 -7.3017e-06)
(0.00086282 -0.0248758 -7.53055e-06)
(0.000885384 -0.0248857 -7.72755e-06)
(0.000903735 -0.0248463 -7.88777e-06)
(0.000917322 -0.0247552 -8.00647e-06)
(1.18717e-07 -0.00114003 -1.02669e-09)
(1.75443e-06 -0.00289576 -1.52971e-08)
(4.59208e-06 -0.00454767 -4.00416e-08)
(9.61889e-06 -0.00602048 -8.39196e-08)
(1.48202e-05 -0.00734975 -1.29292e-07)
(2.33801e-05 -0.00856309 -2.04035e-07)
(3.05059e-05 -0.00968577 -2.66464e-07)
(4.65584e-05 -0.0107303 -4.06378e-07)
(6.03967e-05 -0.0117052 -5.26911e-07)
(7.05037e-05 -0.012629 -6.15365e-07)
(9.08367e-05 -0.0134994 -7.92706e-07)
(0.000107477 -0.0143271 -9.37945e-07)
(0.000127691 -0.0151146 -1.11438e-06)
(0.000149361 -0.0158661 -1.30348e-06)
(0.000172999 -0.016584 -1.50978e-06)
(0.000198563 -0.0172706 -1.73289e-06)
(0.000225841 -0.0179277 -1.97095e-06)
(0.000254823 -0.0185564 -2.22389e-06)
(0.000285458 -0.0191578 -2.49126e-06)
(0.000317708 -0.0197325 -2.77272e-06)
(0.000351499 -0.0202807 -3.06763e-06)
(0.000386661 -0.0208026 -3.37451e-06)
(0.000423071 -0.021298 -3.69229e-06)
(0.000460573 -0.0217666 -4.01959e-06)
(0.000498987 -0.0222078 -4.35485e-06)
(0.000538117 -0.0226208 -4.69637e-06)
(0.000577725 -0.0230047 -5.04206e-06)
(0.000617547 -0.0233584 -5.38962e-06)
(0.000657277 -0.0236806 -5.73638e-06)
(0.000696574 -0.0239699 -6.07939e-06)
(0.000735055 -0.0242246 -6.41526e-06)
(0.000772299 -0.0244431 -6.74034e-06)
(0.000807847 -0.0246235 -7.05062e-06)
(0.000841201 -0.0247637 -7.34176e-06)
(0.000871831 -0.0248617 -7.60914e-06)
(0.000899178 -0.0249151 -7.84788e-06)
(0.000922662 -0.0249216 -8.0529e-06)
(0.000941695 -0.0248788 -8.21909e-06)
(0.000955699 -0.0247839 -8.34142e-06)
(6.36223e-08 -0.00114124 -5.52494e-10)
(1.59534e-06 -0.00290023 -1.39066e-08)
(4.46058e-06 -0.00455603 -3.88873e-08)
(9.48144e-06 -0.00603269 -8.27513e-08)
(1.49332e-05 -0.00736551 -1.30329e-07)
(2.40916e-05 -0.00858316 -2.10252e-07)
(3.04326e-05 -0.0097078 -2.65699e-07)
(4.5215e-05 -0.0107551 -3.94639e-07)
(5.91162e-05 -0.0117364 -5.15851e-07)
(7.0197e-05 -0.0126613 -6.12603e-07)
(9.17538e-05 -0.0135359 -8.00712e-07)
(0.000109098 -0.0143664 -9.5212e-07)
(0.000130337 -0.0151568 -1.13745e-06)
(0.000152894 -0.0159108 -1.33432e-06)
(0.000177607 -0.0166311 -1.55e-06)
(0.000204304 -0.0173199 -1.78299e-06)
(0.000232832 -0.0179789 -2.03197e-06)
(0.000263144 -0.0186094 -2.29651e-06)
(0.000295221 -0.0192123 -2.57647e-06)
(0.00032901 -0.0197882 -2.87135e-06)
(0.000364426 -0.0203376 -3.18045e-06)
(0.00040131 -0.0208603 -3.50236e-06)
(0.000439526 -0.0213564 -3.83589e-06)
(0.000478906 -0.0218254 -4.17958e-06)
(0.000519252 -0.0222667 -4.53171e-06)
(0.00056036 -0.0226796 -4.89049e-06)
(0.000601969 -0.0230631 -5.25364e-06)
(0.000643801 -0.0234161 -5.61875e-06)
(0.000685527 -0.0237373 -5.98294e-06)
(0.000726788 -0.0240252 -6.34308e-06)
(0.000767175 -0.0242783 -6.69559e-06)
(0.000806243 -0.0244949 -7.03658e-06)
(0.000843505 -0.024673 -7.36182e-06)
(0.000878433 -0.0248107 -7.66671e-06)
(0.00091047 -0.0249058 -7.94637e-06)
(0.000939025 -0.024956 -8.19565e-06)
(0.000963488 -0.0249591 -8.40922e-06)
(0.00098324 -0.0249125 -8.58169e-06)
(0.000997678 -0.0248137 -8.70783e-06)
(1.03197e-07 -0.00114373 -8.94823e-10)
(1.71074e-06 -0.00290669 -1.49182e-08)
(4.65015e-06 -0.00456664 -4.05399e-08)
(9.70229e-06 -0.00604739 -8.46621e-08)
(1.53551e-05 -0.00738416 -1.34015e-07)
(2.44149e-05 -0.00860589 -2.13066e-07)
(3.08892e-05 -0.00973474 -2.69674e-07)
(4.73289e-05 -0.0107854 -4.13124e-07)
(6.17245e-05 -0.0117698 -5.386e-07)
(7.27346e-05 -0.0126975 -6.34752e-07)
(9.47935e-05 -0.0135751 -8.27249e-07)
(0.000112672 -0.0144082 -9.83297e-07)
(0.000134519 -0.0152013 -1.17395e-06)
(0.000157927 -0.0159578 -1.37824e-06)
(0.000183613 -0.0166804 -1.60241e-06)
(0.000211439 -0.0173714 -1.84526e-06)
(0.000241229 -0.0180324 -2.10525e-06)
(0.000272924 -0.0186647 -2.38186e-06)
(0.000306495 -0.0192692 -2.67485e-06)
(0.000341908 -0.0198465 -2.98391e-06)
(0.000379065 -0.020397 -3.3082e-06)
(0.00041779 -0.0209207 -3.64617e-06)
(0.000457941 -0.0214175 -3.99659e-06)
(0.000499331 -0.0218869 -4.35783e-06)
(0.000541751 -0.0223283 -4.72806e-06)
(0.000584976 -0.0227411 -5.10531e-06)
(0.000628731 -0.0231242 -5.4872e-06)
(0.000672716 -0.0234765 -5.8711e-06)
(0.000716582 -0.0237966 -6.25396e-06)
(0.000759944 -0.0240832 -6.63244e-06)
(0.00080237 -0.0243346 -7.00275e-06)
(0.000843386 -0.0245491 -7.36074e-06)
(0.000882476 -0.0247249 -7.70195e-06)
(0.000919082 -0.0248598 -8.02148e-06)
(0.000952614 -0.0249519 -8.31419e-06)
(0.00098245 -0.0249988 -8.57465e-06)
(0.00100795 -0.0249982 -8.79724e-06)
(0.00102845 -0.0249477 -8.97631e-06)
(0.00104334 -0.0248447 -9.10634e-06)
(7.27676e-08 -0.00114521 -6.28838e-10)
(1.62892e-06 -0.00291172 -1.42022e-08)
(4.61517e-06 -0.00457578 -4.02288e-08)
(9.75637e-06 -0.00606077 -8.51344e-08)
(1.56483e-05 -0.00740149 -1.36581e-07)
(2.49193e-05 -0.00862733 -2.17484e-07)
(3.15475e-05 -0.00975967 -2.75435e-07)
(4.82773e-05 -0.0108141 -4.21391e-07)
(6.3042e-05 -0.0118023 -5.50097e-07)
(7.46619e-05 -0.0127336 -6.51579e-07)
(9.75585e-05 -0.0136145 -8.51371e-07)
(0.00011627 -0.0144509 -1.01471e-06)
(0.000139093 -0.015247 -1.21387e-06)
(0.000163553 -0.0160063 -1.42734e-06)
(0.00019045 -0.0167315 -1.66207e-06)
(0.000219584 -0.0174249 -1.91634e-06)
(0.000250803 -0.0180881 -2.1888e-06)
(0.00028404 -0.0187223 -2.47887e-06)
(0.000319253 -0.0193286 -2.78619e-06)
(0.000356436 -0.0199074 -3.11069e-06)
(0.000395461 -0.0204592 -3.45129e-06)
(0.000436164 -0.0209839 -3.80653e-06)
(0.000478387 -0.0214814 -4.17503e-06)
(0.000521932 -0.0219513 -4.55507e-06)
(0.00056657 -0.022393 -4.94466e-06)
(0.000612063 -0.0228056 -5.34171e-06)
(0.000658111 -0.0231883 -5.74361e-06)
(0.000704397 -0.0235398 -6.14758e-06)
(0.000750545 -0.0238589 -6.55037e-06)
(0.000796149 -0.024144 -6.94842e-06)
(0.000840746 -0.0243936 -7.33768e-06)
(0.000883835 -0.024606 -7.71376e-06)
(0.000924868 -0.0247792 -8.07192e-06)
(0.000963253 -0.0249113 -8.40699e-06)
(0.000998367 -0.0250001 -8.71351e-06)
(0.00102955 -0.0250435 -8.98575e-06)
(0.00105613 -0.025039 -9.21781e-06)
(0.00107742 -0.0249844 -9.40372e-06)
(0.00109276 -0.024877 -9.53772e-06)
(8.44655e-08 -0.00114747 -7.29775e-10)
(1.74161e-06 -0.00291798 -1.51848e-08)
(4.78049e-06 -0.00458636 -4.16916e-08)
(1.0193e-05 -0.00607563 -8.89534e-08)
(1.63609e-05 -0.00742054 -1.42781e-07)
(2.5677e-05 -0.00865052 -2.24093e-07)
(3.27872e-05 -0.00978685 -2.86253e-07)
(5.02394e-05 -0.0108451 -4.38516e-07)
(6.55116e-05 -0.011837 -5.71654e-07)
(7.77334e-05 -0.0127717 -6.78387e-07)
(0.000101437 -0.0136561 -8.85228e-07)
(0.000120946 -0.0144957 -1.05551e-06)
(0.000144825 -0.0152949 -1.26389e-06)
(0.000170341 -0.016057 -1.48658e-06)
(0.000198491 -0.016785 -1.73224e-06)
(0.000229005 -0.0174809 -1.99855e-06)
(0.000261728 -0.0181464 -2.28414e-06)
(0.000296634 -0.0187827 -2.58878e-06)
(0.000333597 -0.0193908 -2.91136e-06)
(0.000372678 -0.0199713 -3.25244e-06)
(0.000413714 -0.0205244 -3.61058e-06)
(0.000456532 -0.0210503 -3.98428e-06)
(0.000500975 -0.0215486 -4.37215e-06)
(0.000546818 -0.022019 -4.77226e-06)
(0.000593826 -0.0224609 -5.18252e-06)
(0.000641733 -0.0228734 -5.60064e-06)
(0.000690225 -0.0232556 -6.02387e-06)
(0.000738957 -0.0236064 -6.44921e-06)
(0.000787535 -0.0239243 -6.87319e-06)
(0.000835519 -0.0242079 -7.29202e-06)
(0.000882421 -0.0244556 -7.70139e-06)
(0.000927707 -0.0246657 -8.09665e-06)
(0.000970795 -0.0248362 -8.47275e-06)
(0.00101106 -0.0249653 -8.82422e-06)
(0.00104784 -0.0250507 -9.14528e-06)
(0.00108044 -0.0250903 -9.4299e-06)
(0.00110815 -0.0250817 -9.67182e-06)
(0.00113025 -0.0250227 -9.86482e-06)
(0.00114605 -0.0249106 -1.00028e-05)
(6.1271e-08 -0.00114922 -5.29948e-10)
(1.7075e-06 -0.00292357 -1.48876e-08)
(4.88784e-06 -0.0045964 -4.26258e-08)
(1.04367e-05 -0.00609012 -9.10836e-08)
(1.68923e-05 -0.00743957 -1.4743e-07)
(2.65485e-05 -0.00867386 -2.31706e-07)
(3.4096e-05 -0.00981434 -2.97679e-07)
(5.21037e-05 -0.0108766 -4.54789e-07)
(6.80218e-05 -0.0118726 -5.93563e-07)
(8.09726e-05 -0.0128111 -7.06655e-07)
(0.000105563 -0.0136992 -9.21231e-07)
(0.000126119 -0.0145422 -1.10066e-06)
(0.000151151 -0.0153447 -1.3191e-06)
(0.000177968 -0.01611 -1.55314e-06)
(0.000207554 -0.0168409 -1.81135e-06)
(0.000239618 -0.0175394 -2.09117e-06)
(0.000274021 -0.0182074 -2.39142e-06)
(0.000310724 -0.018846 -2.71174e-06)
(0.000349586 -0.0194561 -3.0509e-06)
(0.000390707 -0.0200383 -3.40978e-06)
(0.000433893 -0.0205929 -3.78669e-06)
(0.000478979 -0.02112 -4.18017e-06)
(0.000525787 -0.0216192 -4.58869e-06)
(0.000574086 -0.0220902 -5.01023e-06)
(0.000623613 -0.0225323 -5.44249e-06)
(0.000674093 -0.0229447 -5.88306e-06)
(0.000725181 -0.0233265 -6.32895e-06)
(0.000776515 -0.0236763 -6.77698e-06)
(0.000827667 -0.023993 -7.22344e-06)
(0.000878175 -0.024275 -7.6643e-06)
(0.000927516 -0.0245207 -8.09497e-06)
(0.000975124 -0.0247284 -8.51048e-06)
(0.00102038 -0.0248961 -8.90551e-06)
(0.00106262 -0.0250219 -9.27424e-06)
(0.00110115 -0.0251037 -9.61057e-06)
(0.00113523 -0.0251393 -9.9081e-06)
(0.00116412 -0.0251265 -1.01603e-05)
(0.00118705 -0.0250628 -1.03605e-05)
(0.0012033 -0.0249458 -1.05025e-05)
(8.5309e-08 -0.00115143 -7.39243e-10)
(1.82775e-06 -0.00293002 -1.59372e-08)
(5.10044e-06 -0.00460753 -4.44793e-08)
(1.09036e-05 -0.00610591 -9.51634e-08)
(1.76542e-05 -0.00745994 -1.54091e-07)
(2.77968e-05 -0.00869872 -2.42598e-07)
(3.59038e-05 -0.00984356 -3.13452e-07)
(5.44837e-05 -0.0109101 -4.75563e-07)
(7.11495e-05 -0.0119102 -6.20861e-07)
(8.50408e-05 -0.0128526 -7.4216e-07)
(0.000110607 -0.0137444 -9.65258e-07)
(0.000132258 -0.0145911 -1.15423e-06)
(0.000158515 -0.015397 -1.38336e-06)
(0.000186687 -0.0161655 -1.62923e-06)
(0.000217797 -0.0168995 -1.90073e-06)
(0.00025151 -0.0176009 -2.19496e-06)
(0.000287721 -0.0182715 -2.51098e-06)
(0.000326354 -0.0189125 -2.84815e-06)
(0.00036727 -0.0195248 -3.20523e-06)
(0.000410582 -0.0201089 -3.58323e-06)
(0.000456085 -0.020665 -3.98036e-06)
(0.000503591 -0.0211933 -4.39497e-06)
(0.000552929 -0.0216935 -4.82556e-06)
(0.000603839 -0.0221651 -5.26989e-06)
(0.00065605 -0.0226075 -5.72557e-06)
(0.000709258 -0.0230198 -6.18995e-06)
(0.000763103 -0.023401 -6.6599e-06)
(0.000817191 -0.02375 -7.13197e-06)
(0.000871071 -0.0240654 -7.60224e-06)
(0.000924247 -0.0243457 -8.06639e-06)
(0.000976164 -0.0245892 -8.51953e-06)
(0.00102622 -0.0247943 -8.95642e-06)
(0.00107375 -0.024959 -9.37135e-06)
(0.00111807 -0.0250814 -9.75819e-06)
(0.00115843 -0.0251593 -1.01105e-05)
(0.00119405 -0.0251907 -1.04215e-05)
(0.00122415 -0.0251733 -1.06843e-05)
(0.00124793 -0.0251047 -1.08919e-05)
(0.00126463 -0.0249825 -1.10378e-05)
(7.07392e-08 -0.00115344 -6.11257e-10)
(1.85371e-06 -0.00293631 -1.6163e-08)
(5.33178e-06 -0.00461868 -4.64936e-08)
(1.13516e-05 -0.00612201 -9.90765e-08)
(1.84911e-05 -0.00748086 -1.61407e-07)
(2.9105e-05 -0.00872439 -2.54023e-07)
(3.77961e-05 -0.00987389 -3.2997e-07)
(5.70992e-05 -0.010945 -4.98392e-07)
(7.46277e-05 -0.0119493 -6.51219e-07)
(8.95116e-05 -0.0128959 -7.81178e-07)
(0.000116171 -0.0137918 -1.01381e-06)
(0.000139058 -0.0146423 -1.21358e-06)
(0.000166678 -0.0154519 -1.45461e-06)
(0.000196378 -0.0162239 -1.71381e-06)
(0.00022915 -0.0169611 -1.99981e-06)
(0.000264685 -0.0176656 -2.30993e-06)
(0.000302852 -0.018339 -2.64302e-06)
(0.000343582 -0.0189825 -2.99849e-06)
(0.000386718 -0.019597 -3.37496e-06)
(0.000432391 -0.0201831 -3.77356e-06)
(0.000480363 -0.020741 -4.19224e-06)
(0.000530462 -0.0212706 -4.62947e-06)
(0.000582489 -0.0217718 -5.08354e-06)
(0.000636184 -0.022244 -5.55217e-06)
(0.000691242 -0.0226867 -6.0327e-06)
(0.00074735 -0.0230989 -6.52239e-06)
(0.000804113 -0.0234796 -7.01781e-06)
(0.000861118 -0.0238276 -7.51534e-06)
(0.000917879 -0.0241416 -8.01076e-06)
(0.000973872 -0.02442 -8.49948e-06)
(0.0010285 -0.0246613 -8.97632e-06)
(0.00108113 -0.0248636 -9.43566e-06)
(0.00113106 -0.0250251 -9.87149e-06)
(0.00117755 -0.0251439 -1.02773e-05)
(0.00121981 -0.0252178 -1.06462e-05)
(0.00125704 -0.0252447 -1.09712e-05)
(0.00128839 -0.0252224 -1.12449e-05)
(0.00131303 -0.0251486 -1.14601e-05)
(0.00133016 -0.0250209 -1.16098e-05)
(7.95434e-08 -0.00115575 -6.86252e-10)
(2.00525e-06 -0.00294326 -1.74861e-08)
(5.60437e-06 -0.00463079 -4.88885e-08)
(1.19997e-05 -0.00613931 -1.04738e-07)
(1.95116e-05 -0.00750322 -1.70301e-07)
(3.06469e-05 -0.00875173 -2.67484e-07)
(4.00144e-05 -0.00990605 -3.4934e-07)
(6.02238e-05 -0.0109818 -5.25657e-07)
(7.86986e-05 -0.0119907 -6.86743e-07)
(9.45973e-05 -0.0129417 -8.25564e-07)
(0.000122468 -0.0138418 -1.06877e-06)
(0.000146693 -0.0146964 -1.28021e-06)
(0.000175827 -0.0155098 -1.53445e-06)
(0.000207171 -0.0162855 -1.808e-06)
(0.000241756 -0.0170261 -2.10982e-06)
(0.000279235 -0.0177338 -2.43691e-06)
(0.000319508 -0.0184101 -2.78838e-06)
(0.000362479 -0.0190563 -3.16341e-06)
(0.000408 -0.0196733 -3.56068e-06)
(0.000456191 -0.0202614 -3.98127e-06)
(0.000506822 -0.0208211 -4.42315e-06)
(0.000559683 -0.0213521 -4.88449e-06)
(0.000614584 -0.0218544 -5.36364e-06)
(0.000671232 -0.0223273 -5.85804e-06)
(0.000729317 -0.0227702 -6.36498e-06)
(0.000788491 -0.0231823 -6.88144e-06)
(0.000848346 -0.0235624 -7.40384e-06)
(0.000908431 -0.0239094 -7.92826e-06)
(0.000968236 -0.0242219 -8.45023e-06)