/*--------------------------------*- C++ -*----------------------------------*\
| =========                 |                                                 |
| \\      /  F ield         | OpenFOAM: The Open Source CFD Toolbox           |
|  \\    /   O peration     | Version:  v2012                                 |
|   \\  /    A nd           | Website:  www.openfoam.com                      |
|    \\/     M anipulation  |                                                 |
\*---------------------------------------------------------------------------*/
FoamFile
{
    version     2.0;
    format      ascii;
    class       volVectorField;
    location    "0.45";
    object      U;
}
// * * * * * * * * * * * * * * * * * * * * * * * * * * * * * * * * * * * * * //

dimensions      [0 1 -1 0 0 0 0];


internalField   nonuniform List<vector> 
3332
(
(-0.772799 -7.19438 0.00674448)
(-0.820746 -6.63211 0.00716305)
(-0.860078 -6.09346 0.00750641)
(-0.891726 -5.58051 0.00778271)
(-0.916643 -5.09417 0.00800025)
(-0.93558 -4.63433 0.0081656)
(-0.94919 -4.20015 0.00828444)
(-0.957997 -3.79036 0.00836136)
(-0.962433 -3.40355 0.00840012)
(-0.962848 -3.03823 0.0084038)
(-0.95953 -2.69302 0.00837491)
(-0.952715 -2.36668 0.00831547)
(-0.9426 -2.0581 0.00822721)
(-0.929355 -1.76636 0.00811166)
(-0.913127 -1.49068 0.00797006)
(-0.894046 -1.23045 0.00780356)
(-0.872231 -0.985158 0.00761321)
(-0.847796 -0.754418 0.00739997)
(-0.820845 -0.537949 0.00716479)
(-0.791486 -0.33556 0.00690861)
(-0.744333 -8.24684 0.00649591)
(-0.807327 -7.65877 0.00704582)
(-0.859607 -7.08821 0.0075022)
(-0.902001 -6.53719 0.0078723)
(-0.935961 -6.00866 0.00816878)
(-0.962461 -5.50478 0.00840014)
(-0.982497 -5.02658 0.00857508)
(-0.996834 -4.57406 0.00870027)
(-1.00613 -4.14649 0.00878149)
(-1.01092 -3.74272 0.0088233)
(-1.01161 -3.36141 0.00882939)
(-1.00855 -3.00115 0.0088027)
(-1.002 -2.6606 0.00874563)
(-0.992188 -2.33857 0.00866003)
(-0.979291 -2.034 0.00854749)
(-0.963459 -1.74598 0.00840935)
(-0.944823 -1.47378 0.00824673)
(-0.923495 -1.21677 0.00806063)
(-0.899582 -0.97448 0.00785195)
(-0.873178 -0.746532 0.00762154)
(-0.844378 -0.532655 0.00737021)
(-0.813277 -0.332666 0.00709882)
(-0.11168 -47.4277 0.000974766)
(0.289286 -45.1465 -0.00252483)
(-0.419109 -35.0724 0.00365836)
(1.07911 -39.2463 -0.00941534)
(1.87694 -49.9038 -0.0163801)
(2.35897 -49.5767 -0.0205901)
(1.43137 -31.3323 -0.0125036)
(1.03945 -29.4546 -0.00907949)
(0.689091 -27.3252 -0.00601568)
(0.305361 -22.9637 -0.00266643)
(-0.341428 -12.377 0.00297879)
(-0.477332 -10.9933 0.00416514)
(-0.588808 -10.0597 0.00513826)
(-0.688023 -9.33762 0.00600429)
(-0.77053 -8.70638 0.00672452)
(-0.840629 -8.11308 0.00733643)
(-0.897828 -7.5393 0.00783577)
(-0.944416 -6.98172 0.00824247)
(-0.98127 -6.44237 0.00856422)
(-1.0099 -5.92424 0.00881418)
(-1.03132 -5.42961 0.0090012)
(-1.04655 -4.95964 0.00913421)
(-1.05638 -4.51449 0.00922001)
(-1.06146 -4.09356 0.0092644)
(-1.06231 -3.6958 0.00927189)
(-1.05935 -3.31996 0.0092461)
(-1.0529 -2.96471 0.00918983)
(-1.04321 -2.62879 0.00910534)
(-1.03048 -2.31104 0.00899432)
(-1.01489 -2.01044 0.0088582)
(-0.996546 -1.72612 0.00869817)
(-0.975576 -1.45734 0.00851518)
(-0.952073 -1.20354 0.00831009)
(-0.926127 -0.964222 0.00808367)
(-0.897819 -0.739044 0.00783663)
(-0.86723 -0.527739 0.00756969)
(-0.834443 -0.330134 0.00728358)
(-0.115756 -47.5484 0.00101033)
(0.274892 -45.0557 -0.00239915)
(-0.362024 -35.7225 0.00316021)
(1.10833 -41.5716 -0.00967079)
(1.69057 -51.5522 -0.0147539)
(2.11372 -49.8111 -0.0184496)
(1.2274 -30.7635 -0.0107508)
(0.862272 -29.1116 -0.0075355)
(0.504095 -26.9093 -0.00440237)
(0.132048 -22.5563 -0.00115407)
(-0.13139 -17.8602 0.00114592)
(-0.327748 -14.3469 0.00285909)
(-0.468353 -12.1524 0.00408665)
(-0.59467 -10.7898 0.00518933)
(-0.698821 -9.87428 0.00609851)
(-0.791408 -9.16941 0.00690669)
(-0.86797 -8.55515 0.00757503)
(-0.932337 -7.97794 0.00813692)
(-0.984008 -7.41909 0.008588)
(-1.02521 -6.87499 0.00894767)
(-1.05685 -6.34767 0.00922391)
(-1.08046 -5.84019 0.00943011)
(-1.0971 -5.35497 0.00957539)
(-1.1078 -4.89334 0.00966887)
(-1.11337 -4.4556 0.00971746)
(-1.11445 -4.04131 0.009727)
(-1.11158 -3.64955 0.00970199)
(-1.10516 -3.27916 0.00964595)
(-1.09549 -2.9289 0.00956159)
(-1.08281 -2.59757 0.00945102)
(-1.06731 -2.28406 0.00931581)
(-1.04914 -1.9874 0.00915722)
(-1.02841 -1.70673 0.00897631)
(-1.00521 -1.44136 0.00877388)
(-0.979633 -1.19072 0.00855066)
(-0.951744 -0.954364 0.00830728)
(-0.921615 -0.731935 0.00804434)
(-0.889313 -0.523185 0.00776245)
(-0.854909 -0.32795 0.00746223)
(-0.106556 -47.6474 0.000930031)
(0.238312 -45.0077 -0.00207985)
(-0.265054 -36.4718 0.00231394)
(1.09135 -43.6209 -0.00952305)
(1.49825 -52.9542 -0.0130758)
(1.84435 -49.914 -0.0160986)
(1.01548 -30.2295 -0.00893073)
(0.679607 -28.7344 -0.00594323)
(0.319446 -26.4658 -0.00279199)
(-0.0366601 -22.1424 0.000318226)
(-0.281088 -17.5333 0.00245235)
(-0.459155 -14.0875 0.00400608)
(-0.588042 -11.9265 0.00513139)
(-0.704088 -10.5843 0.0061444)
(-0.800847 -9.68641 0.00698906)
(-0.886903 -8.99893 0.00774022)
(-0.957934 -8.40205 0.00836029)
(-1.01707 -7.84147 0.00887655)
(-1.06382 -7.29805 0.00928461)
(-1.10022 -6.76787 0.00960244)
(-1.12723 -6.25293 0.00983826)
(-1.14637 -5.75635 0.0100054)
(-1.15872 -5.28071 0.0101132)
(-1.16534 -4.82753 0.0101711)
(-1.16703 -4.39727 0.0101859)
(-1.16448 -3.98965 0.0101637)
(-1.15819 -3.60389 0.0101088)
(-1.14857 -3.23894 0.0100249)
(-1.13593 -2.89365 0.00991461)
(-1.12048 -2.56688 0.00977985)
(-1.1024 -2.25758 0.00962211)
(-1.08183 -1.96482 0.00944255)
(-1.05886 -1.68778 0.00924209)
(-1.03357 -1.42579 0.00902141)
(-1.00604 -1.1783 0.00878113)
(-0.976315 -0.944876 0.00852176)
(-0.944464 -0.725179 0.0082438)
(-0.91054 -0.518969 0.00794775)
(-0.874603 -0.326091 0.00763413)
(-0.83672 -0.146485 0.00730364)
(-0.0875125 -47.7253 0.000763819)
(0.187213 -45.0137 -0.00163384)
(-0.148681 -37.3003 0.00129828)
(1.03289 -45.3665 -0.00901314)
(1.3122 -54.1196 -0.0114523)
(1.57164 -49.8903 -0.0137185)
(0.810888 -29.7319 -0.00716537)
(0.502807 -28.3299 -0.00440169)
(0.145635 -26.0014 -0.00127609)
(-0.192248 -21.7254 0.00167607)
(-0.418279 -17.21 0.00364967)
(-0.578574 -13.8301 0.00504845)
(-0.696168 -11.7005 0.00607519)
(-0.80224 -10.3776 0.00700115)
(-0.892077 -9.49669 0.00778536)
(-0.972143 -8.82647 0.00848425)
(-1.03835 -8.24714 0.00906219)
(-1.09302 -7.70356 0.00953947)
(-1.13564 -7.17598 0.00991156)
(-1.16805 -6.66012 0.0101945)
(-1.19119 -6.15789 0.0103965)
(-1.20656 -5.67248 0.0105308)
(-1.21526 -5.20662 0.0106068)
(-1.21837 -4.76201 0.010634)
(-1.2167 -4.33932 0.0106195)
(-1.21096 -3.93842 0.0105694)
(-1.20166 -3.55868 0.0104882)
(-1.1892 -3.19918 0.0103795)
(-1.17388 -2.85884 0.0102459)
(-1.15593 -2.53662 0.0100893)
(-1.13551 -2.23152 0.00991108)
(-1.11274 -1.94265 0.00971236)
(-1.08771 -1.66922 0.00949396)
(-1.0605 -1.41059 0.00925646)
(-1.03115 -1.16623 0.00900039)
(-0.999731 -0.935723 0.00872616)
(-0.966276 -0.718744 0.0084342)
(-0.930835 -0.515063 0.0081249)
(-0.893459 -0.324533 0.00779872)
(-0.854209 -0.147099 0.00745621)
(-0.0637361 -47.7834 0.000556299)
(0.131499 -45.0737 -0.00114757)
(-0.0354223 -38.1717 0.000309767)
(0.943168 -46.8119 -0.00823048)
(1.14276 -55.0762 -0.00997363)
(1.32054 -49.7558 -0.0115271)
(0.629981 -29.2704 -0.00558731)
(0.339256 -27.9046 -0.00297556)
(-0.0107876 -25.5232 8.82613e-05)
(-0.330025 -21.3083 0.00287843)
(-0.538895 -16.8909 0.00470237)
(-0.683065 -13.5752 0.00596053)
(-0.790225 -11.4752 0.00689619)
(-0.887184 -10.1704 0.0077426)
(-0.97082 -9.30553 0.00847268)
(-1.04567 -8.65222 0.00912603)
(-1.10788 -8.0904 0.00966908)
(-1.15897 -7.56404 0.0101151)
(-1.19838 -7.05263 0.0104591)
(-1.22768 -6.55144 0.010715)
(-1.24781 -6.06224 0.0108908)
(-1.26022 -5.58826 0.0109991)
(-1.26601 -5.1324 0.0110498)
(-1.26627 -4.69653 0.0110521)
(-1.26184 -4.28152 0.0110135)
(-1.25343 -3.88743 0.0109401)
(-1.24157 -3.51376 0.0108367)
(-1.22668 -3.15973 0.0107067)
(-1.20905 -2.82437 0.0105528)
(-1.1889 -2.5067 0.0103771)
(-1.16641 -2.2058 0.0101808)
(-1.14169 -1.9208 0.00996505)
(-1.11482 -1.65097 0.00973054)
(-1.08586 -1.39569 0.00947786)
(-1.05487 -1.15446 0.00920743)
(-1.02189 -0.92686 0.00891963)
(-0.986965 -0.712592 0.0086148)
(-0.950124 -0.511434 0.00829328)
(-0.911415 -0.323245 0.00795546)
(-0.870891 -0.14798 0.00760181)
(-0.828611 0.0143753 0.00723294)
(-0.0400816 -47.8244 0.000349845)
(0.079568 -45.1782 -0.000694336)
(0.0572689 -39.0436 -0.000499264)
(0.83714 -47.9937 -0.0073054)
(1.0052 -55.8648 -0.00877309)
(1.11054 -49.5484 -0.0096946)
(0.47749 -28.8316 -0.00426196)
(0.191395 -27.4585 -0.00168655)
(-0.148167 -25.0368 0.00128658)
(-0.44885 -20.8931 0.00391538)
(-0.641817 -16.5764 0.00560067)
(-0.771748 -13.3231 0.00673464)
(-0.869413 -11.2511 0.00758741)
(-0.958258 -9.96305 0.00836299)
(-1.03643 -9.1133 0.00904538)
(-1.10687 -8.47636 0.00966019)
(-1.16589 -7.93186 0.0101755)
(-1.21427 -7.42279 0.0105978)
(-1.25138 -6.92775 0.0109218)
(-1.2785 -6.44151 0.0111586)
(-1.29652 -5.96564 0.0113159)
(-1.3068 -5.50337 0.0114057)
(-1.31046 -5.05774 0.0114378)
(-1.30859 -4.6308 0.0114215)
(-1.30204 -4.22362 0.0113644)
(-1.29154 -3.83644 0.0112727)
(-1.27763 -3.46893 0.0111514)
(-1.26074 -3.12043 0.011004)
(-1.24118 -2.79009 0.0108334)
(-1.21919 -2.477 0.0106415)
(-1.19493 -2.1803 0.0104298)
(-1.16852 -1.89919 0.0101992)
(-1.14003 -1.63297 0.00995066)
(-1.10954 -1.38104 0.00968457)
(-1.07709 -1.14293 0.00940137)
(-1.04272 -0.918239 0.0091014)
(-1.00646 -0.706681 0.00878494)
(-0.968344 -0.508043 0.00845232)
(-0.928415 -0.322195 0.00810385)
(-0.886721 -0.149097 0.00773998)
(-0.843314 0.0112601 0.0073612)
(-0.0196263 -47.8505 0.000171313)
(0.0362429 -45.3113 -0.000316228)
(0.121922 -39.8803 -0.00106359)
(0.728186 -48.9784 -0.00635469)
(0.917908 -56.5226 -0.00801133)
(0.932926 -49.2959 -0.00814473)
(0.343632 -28.3581 -0.00311233)
(0.0592608 -26.9978 -0.000534752)
(-0.26723 -24.5482 0.00232522)
(-0.549816 -20.4824 0.00479648)
(-0.727886 -16.267 0.0063519)
(-0.845186 -13.0744 0.0073757)
(-0.934132 -11.0287 0.00815234)
(-1.01574 -9.75619 0.00886471)
(-1.08906 -8.92047 0.0095048)
(-1.15579 -8.29919 0.0100872)
(-1.21234 -7.77162 0.0105809)
(-1.25881 -7.27973 0.0109866)
(-1.29445 -6.80116 0.0112977)
(-1.32025 -6.33007 0.011523)
(-1.33701 -5.86778 0.0116694)
(-1.346 -5.41748 0.0117479)
(-1.34832 -4.98232 0.0117682)
(-1.34504 -4.56452 0.0117396)
(-1.33702 -4.16534 0.0116697)
(-1.32502 -3.78522 0.011565)
(-1.30959 -3.42398 0.0114303)
(-1.29117 -3.08109 0.0112697)
(-1.27011 -2.75583 0.0110858)
(-1.24663 -2.44737 0.010881)
(-1.22092 -2.15492 0.0106566)
(-1.1931 -1.87772 0.0104138)
(-1.16325 -1.61512 0.0101533)
(-1.13144 -1.36656 0.00987574)
(-1.09772 -1.13158 0.00958146)
(-1.06213 -0.909807 0.00927081)
(-1.02469 -0.700964 0.00894407)
(-0.985436 -0.504852 0.00860152)
(-0.944409 -0.321348 0.00824347)
(-0.901653 -0.15042 0.00787033)
(-0.857218 0.00793573 0.00748256)
(-0.00306577 -47.8645 2.67736e-05)
(0.00179556 -45.4556 -1.56075e-05)
(0.158942 -40.6574 -0.00138671)
(0.62965 -49.8492 -0.00549478)
(0.893696 -57.0768 -0.00780006)
(0.776355 -48.9644 -0.00677855)
(0.238595 -27.8811 -0.00220651)
(-0.0570089 -26.5233 0.000477973)
(-0.370028 -24.0609 0.00322171)
(-0.635487 -20.078 0.00554411)
(-0.799206 -15.9637 0.00697441)
(-0.904905 -12.8298 0.007897)
(-0.985563 -10.8089 0.00860128)
(-1.06052 -9.55052 0.00925561)
(-1.12942 -8.72765 0.00985708)
(-1.19297 -8.12113 0.0104117)
(-1.24762 -7.6099 0.0108888)
(-1.29285 -7.13492 0.0112837)
(-1.32776 -6.67276 0.0115884)
(-1.35301 -6.21693 0.0118089)
(-1.3693 -5.76841 0.0119512)
(-1.37778 -5.3303 0.0120253)
(-1.3795 -4.90584 0.0120403)
(-1.3755 -4.49741 0.0120055)
(-1.36667 -4.10643 0.0119284)
(-1.35374 -3.73353 0.0118157)
(-1.33732 -3.37869 0.0116724)
(-1.31785 -3.04154 0.0115025)
(-1.2957 -2.72144 0.0113092)
(-1.27111 -2.41768 0.0110947)
(-1.24428 -2.12952 0.0108605)
(-1.21534 -1.85628 0.0106079)
(-1.18438 -1.59734 0.0103378)
(-1.15149 -1.35218 0.0100507)
(-1.1167 -1.12035 0.0097471)
(-1.08006 -0.901506 0.00942733)
(-1.0416 -0.695391 0.00909169)
(-1.00135 -0.501815 0.00874046)
(-0.959356 -0.320666 0.00837394)
(-0.915652 -0.151917 0.00799253)
(-0.870291 0.00443164 0.00759667)
(0.009845 -47.8681 -8.59102e-05)
(-0.0244254 -45.5966 0.000213211)
(0.174007 -41.3691 -0.00151819)
(0.557637 -50.6971 -0.00486625)
(0.935012 -57.5484 -0.00816072)
(0.642918 -48.5548 -0.00561428)
(0.15905 -27.3828 -0.00152698)
(-0.157798 -26.024 0.00135526)
(-0.459033 -23.5761 0.00399771)
(-0.708247 -19.6813 0.006179)
(-0.858095 -15.6677 0.00748845)
(-0.952624 -12.5903 0.00831359)
(-1.02516 -10.5928 0.00894699)
(-1.09377 -9.34695 0.00954592)
(-1.15851 -8.53558 0.010111)
(-1.21925 -7.9427 0.0106412)
(-1.27243 -7.44704 0.0111054)
(-1.31696 -6.9885 0.0114941)
(-1.35174 -6.54255 0.0117977)
(-1.37711 -6.10197 0.0120192)
(-1.39362 -5.66733 0.0121634)
(-1.40227 -5.24161 0.012239)
(-1.40407 -4.82807 0.0122548)
(-1.40001 -4.42921 0.0122194)
(-1.39096 -4.04664 0.0121405)
(-1.37768 -3.68115 0.0120246)
(-1.36077 -3.33287 0.0118771)
(-1.34072 -3.00158 0.0117021)
(-1.31789 -2.68677 0.0115029)
(-1.29256 -2.38779 0.0112818)
(-1.26493 -2.10401 0.0110408)
(-1.23517 -1.83478 0.010781)
(-1.20337 -1.57955 0.0105035)
(-1.16961 -1.33781 0.0102089)
(-1.13396 -1.10916 0.00989781)
(-1.09646 -0.893278 0.00957054)
(-1.05715 -0.689912 0.00922744)
(-1.01606 -0.49889 0.00886881)
(-0.97322 -0.320109 0.00849496)
(-0.928687 -0.153551 0.0081063)
(-0.882505 0.000778176 0.00770329)
(0.0196556 -47.8633 -0.000171536)
(-0.0436072 -45.7254 0.000380598)
(0.173368 -42.0297 -0.00151259)
(0.52487 -51.6134 -0.00458016)
(1.03479 -57.9387 -0.0090317)
(0.513737 -48.0359 -0.00448714)
(0.0966085 -26.8682 -0.000997152)
(-0.242841 -25.503 0.00209542)
(-0.535081 -23.0941 0.00466073)
(-0.769208 -19.2934 0.00671092)
(-0.906101 -15.3802 0.00790749)
(-0.989684 -12.3575 0.00863714)
(-1.05427 -10.3816 0.00920106)
(-1.11668 -9.14647 0.00974592)
(-1.17743 -8.34506 0.0102762)
(-1.23564 -7.76452 0.0107842)
(-1.28767 -7.28345 0.0112384)
(-1.3319 -6.84071 0.0116245)
(-1.36703 -6.41062 0.0119312)
(-1.39306 -5.98516 0.0121584)
(-1.41037 -5.56444 0.0123096)
(-1.4198 -5.15124 0.012392)
(-1.42227 -4.7488 0.0124136)
(-1.41872 -4.35973 0.0123827)
(-1.41001 -3.98578 0.0123068)
(-1.39689 -3.62788 0.0121923)
(-1.37998 -3.28634 0.0120447)
(-1.35977 -2.96107 0.0118684)
(-1.33666 -2.65165 0.0116667)
(-1.31095 -2.35757 0.0114424)
(-1.28285 -2.07825 0.0111972)
(-1.25255 -1.81311 0.0109328)
(-1.22017 -1.56164 0.0106501)
(-1.18579 -1.32338 0.0103501)
(-1.14949 -1.09795 0.0100333)
(-1.11131 -0.885063 0.00970013)
(-1.07131 -0.684473 0.00935101)
(-1.02952 -0.496029 0.00898628)
(-0.985974 -0.319638 0.00860628)
(-0.94073 -0.155288 0.00821143)
(-0.893836 -0.00299328 0.0078022)
(0.0264615 -47.8517 -0.000230936)
(-0.0557621 -45.838 0.000486659)
(0.162383 -42.6677 -0.0014167)
(0.541752 -52.6749 -0.00472736)
(1.16325 -58.2207 -0.010153)
(0.368606 -47.389 -0.00322056)
(0.0540276 -26.3555 -0.000640471)
(-0.311529 -24.9589 0.00269234)
(-0.597381 -22.6141 0.00520363)
(-0.818447 -18.9144 0.00714049)
(-0.943673 -15.102 0.00823548)
(-1.01686 -12.1322 0.00887444)
(-1.07382 -10.1762 0.00937179)
(-1.13027 -8.94998 0.00986455)
(-1.18725 -8.15682 0.0103619)
(-1.24315 -7.58715 0.0108498)
(-1.2943 -7.11956 0.0112963)
(-1.33857 -6.69182 0.0116827)
(-1.37442 -6.27711 0.0119957)
(-1.40154 -5.86655 0.0122324)
(-1.42011 -5.45969 0.0123946)
(-1.43081 -5.05908 0.0124881)
(-1.43445 -4.6679 0.0125199)
(-1.43192 -4.2888 0.0124979)
(-1.42403 -3.92366 0.0124291)
(-1.41153 -3.57355 0.0123201)
(-1.39504 -3.23894 0.0121762)
(-1.37508 -2.91983 0.012002)
(-1.35206 -2.61596 0.0118012)
(-1.3263 -2.3269 0.0115764)
(-1.29805 -2.05213 0.0113298)
(-1.26749 -1.79117 0.0110631)
(-1.23477 -1.54353 0.0107776)
(-1.19999 -1.30881 0.0104741)
(-1.16324 -1.08666 0.0101533)
(-1.12458 -0.876801 0.00981591)
(-1.08405 -0.679024 0.00946223)
(-1.04171 -0.493187 0.0090927)
(-0.997595 -0.319211 0.00870772)
(-0.951764 -0.157092 0.00830774)
(-0.904268 -0.00685083 0.00789326)
(0.0300847 -47.8354 -0.000262555)
(-0.0610341 -45.9357 0.000532658)
(0.144728 -43.3228 -0.00126259)
(0.608982 -53.9153 -0.005314)
(1.26259 -58.338 -0.0110204)
(0.188657 -46.6075 -0.00165006)
(0.0258584 -25.8856 -0.000400913)
(-0.362267 -24.3923 0.00313259)
(-0.644872 -22.1352 0.00561721)
(-0.855132 -18.5435 0.00746044)
(-0.97078 -14.833 0.00847211)
(-1.03456 -11.915 0.00902899)
(-1.0846 -9.97724 0.00946589)
(-1.13549 -8.75812 0.00991012)
(-1.18902 -7.97146 0.0103774)
(-1.24287 -7.41111 0.0108473)
(-1.29338 -6.95576 0.0112882)
(-1.33794 -6.54214 0.0116772)
(-1.37479 -6.14223 0.0119989)
(-1.40331 -5.74623 0.0122479)
(-1.4235 -5.3531 0.0124242)
(-1.43585 -4.9651 0.0125321)
(-1.44107 -4.58528 0.0125777)
(-1.43995 -4.21632 0.012568)
(-1.43329 -3.86017 0.0125099)
(-1.4218 -3.51805 0.0124097)
(-1.40612 -3.19053 0.0122729)
(-1.38677 -2.87776 0.012104)
(-1.36417 -2.57959 0.0119069)
(-1.33868 -2.29566 0.0116844)
(-1.31055 -2.02557 0.0114389)
(-1.28 -1.76887 0.0111723)
(-1.24718 -1.52515 0.0108859)
(-1.21223 -1.29404 0.0105809)
(-1.17522 -1.07521 0.0102579)
(-1.13625 -0.868436 0.00991779)
(-1.09536 -0.673513 0.00956098)
(-1.05262 -0.490319 0.00918796)
(-1.00807 -0.318788 0.00879917)
(-0.961774 -0.158927 0.00839512)
(-0.913786 -0.0107625 0.00797635)
(0.0307093 -47.816 -0.000268004)
(-0.0602168 -46.0214 0.000525513)
(0.126683 -44.0347 -0.00110508)
(0.711168 -55.2907 -0.00620583)
(1.26386 -58.2151 -0.0110319)
(-0.0299457 -45.7183 0.000258014)
(0.00478291 -25.5161 -0.000212458)
(-0.393863 -23.8084 0.00340554)
(-0.676105 -21.6567 0.00588884)
(-0.878036 -18.1794 0.0076601)
(-0.986934 -14.5724 0.00861313)
(-1.04285 -11.7057 0.00910143)
(-1.08716 -9.78496 0.0094883)
(-1.13316 -8.57121 0.00988986)
(-1.18374 -7.78935 0.0103313)
(-1.23584 -7.23678 0.0107861)
(-1.28596 -6.79243 0.0112235)
(-1.331 -6.39197 0.0116166)
(-1.36906 -6.0062 0.0119489)
(-1.39921 -5.62436 0.0122121)
(-1.42126 -5.24478 0.0124047)
(-1.43554 -4.86934 0.0125293)
(-1.44262 -4.50094 0.0125912)
(-1.44324 -4.14224 0.0125967)
(-1.43813 -3.79524 0.0125522)
(-1.42799 -3.46127 0.0124637)
(-1.41343 -3.14102 0.0123367)
(-1.39499 -2.83476 0.0121758)
(-1.37311 -2.54242 0.0119849)
(-1.34816 -2.26377 0.0117672)
(-1.32042 -1.99847 0.0115251)
(-1.29012 -1.74614 0.0112606)
(-1.25743 -1.50642 0.0109754)
(-1.22251 -1.27898 0.0106706)
(-1.18544 -1.06356 0.0103471)
(-1.14633 -0.859913 0.0100058)
(-1.10525 -0.66789 0.00964725)
(-1.06225 -0.48738 0.009272)
(-1.0174 -0.31833 0.00888055)
(-0.970753 -0.160757 0.00847349)
(-0.922383 -0.0146964 0.00805138)
(0.029483 -47.7968 -0.0002573)
(-0.0570731 -46.1003 0.00049807)
(0.116549 -44.8328 -0.00101661)
(0.814403 -56.673 -0.00710697)
(1.12267 -57.7884 -0.00980016)
(-0.266312 -44.7842 0.00232132)
(-0.00914462 -25.3123 -7.43684e-05)
(-0.406153 -23.2147 0.00350932)
(-0.690458 -21.1782 0.0060132)
(-0.886621 -17.8204 0.00773475)
(-0.992009 -14.3187 0.00865744)
(-1.04209 -11.5034 0.00909481)
(-1.08222 -9.59892 0.00944524)
(-1.12423 -8.38919 0.00981196)
(-1.17248 -7.61063 0.010233)
(-1.22318 -7.06441 0.0106755)
(-1.27313 -6.62984 0.0111115)
(-1.3188 -6.24158 0.0115101)
(-1.35819 -5.86926 0.011854)
(-1.39009 -5.50114 0.0121325)
(-1.41415 -5.13485 0.0123426)
(-1.43052 -4.77188 0.0124855)
(-1.43968 -4.41491 0.0125655)
(-1.44225 -4.06655 0.0125881)
(-1.43893 -3.72884 0.0125591)
(-1.43038 -3.40317 0.0124845)
(-1.4172 -3.09035 0.0123696)
(-1.39994 -2.79075 0.012219)
(-1.37904 -2.5044 0.0120366)
(-1.35487 -2.23115 0.0118257)
(-1.32775 -1.97076 0.0115891)
(-1.29792 -1.7229 0.0113287)
(-1.26557 -1.48727 0.0110464)
(-1.23086 -1.26359 0.0107435)
(-1.19392 -1.05163 0.0104211)
(-1.15484 -0.851179 0.0100801)
(-1.11371 -0.662109 0.0097211)
(-1.0706 -0.484328 0.00934485)
(-1.02557 -0.317798 0.00895189)
(-0.978698 -0.162548 0.00854284)
(-0.930054 -0.0186213 0.00811834)
(0.0289607 -47.7784 -0.000252746)
(-0.0571651 -46.1765 0.00049888)
(0.125183 -45.7231 -0.00109189)
(0.877773 -57.886 -0.00766034)
(0.856454 -57.0449 -0.00747716)
(-0.489559 -43.9196 0.00427013)
(-0.0101993 -25.2979 -3.78836e-05)
(-0.400246 -22.6183 0.00345281)
(-0.688368 -20.6997 0.00599402)
(-0.881299 -17.4648 0.00768798)
(-0.986448 -14.07 0.00860889)
(-1.03295 -11.3067 0.00901511)
(-1.07067 -9.41831 0.00934441)
(-1.10972 -8.21172 0.00968532)
(-1.1563 -7.43526 0.0100919)
(-1.20598 -6.89415 0.0105254)
(-1.25595 -6.46823 0.0109616)
(-1.30234 -6.09125 0.0113665)
(-1.34311 -5.73168 0.0117224)
(-1.3768 -5.37679 0.0120164)
(-1.40292 -5.0235 0.0122445)
(-1.42146 -4.67284 0.0124064)
(-1.4328 -4.32728 0.0125054)
(-1.43747 -3.98931 0.0125462)
(-1.43609 -3.66098 0.0125343)
(-1.42931 -3.34375 0.0124752)
(-1.41772 -3.0385 0.0123741)
(-1.40183 -2.74569 0.0122354)
(-1.38211 -2.46546 0.0120634)
(-1.35894 -2.19775 0.0118612)
(-1.33264 -1.94238 0.0116317)
(-1.30347 -1.69909 0.0113772)
(-1.27165 -1.46765 0.0110995)
(-1.23734 -1.24781 0.0108001)
(-1.20069 -1.03938 0.0104802)
(-1.1618 -0.842188 0.0101408)
(-1.12076 -0.656125 0.00978268)
(-1.07767 -0.481121 0.00940661)
(-1.03259 -0.317155 0.00901321)
(-0.985611 -0.164266 0.00860318)
(-0.936799 -0.022507 0.00817722)
(0.0334718 -47.7622 -0.000292112)
(-0.0681132 -46.2569 0.000594475)
(0.158923 -46.6823 -0.00138626)
(0.863175 -58.7767 -0.00753333)
(0.535472 -56.04 -0.00467604)
(-0.680773 -43.2102 0.00593948)
(0.00385027 -25.4712 -0.000135728)
(-0.378292 -22.0231 0.00325405)
(-0.671843 -20.2214 0.00584877)
(-0.863877 -17.1108 0.00753553)
(-0.971626 -13.8241 0.0084795)
(-1.01678 -11.1141 0.00887404)
(-1.05374 -9.24215 0.0091967)
(-1.09085 -8.03831 0.00952065)
(-1.1364 -7.26308 0.00991818)
(-1.18536 -6.72607 0.0103454)
(-1.2355 -6.30781 0.010783)
(-1.28263 -5.94124 0.0111944)
(-1.32474 -5.59374 0.011562)
(-1.36016 -5.25158 0.0118712)
(-1.3883 -4.91095 0.0121169)
(-1.40901 -4.57243 0.0122977)
(-1.42254 -4.23818 0.0124159)
(-1.42935 -3.91061 0.0124754)
(-1.43002 -3.59173 0.0124813)
(-1.42513 -3.28302 0.0124387)
(-1.41525 -2.98545 0.0123525)
(-1.40089 -2.69957 0.0122272)
(-1.38251 -2.42559 0.0120669)
(-1.36051 -2.16353 0.0118749)
(-1.3352 -1.91328 0.0116541)
(-1.30688 -1.67468 0.0114069)
(-1.27575 -1.44751 0.0111352)
(-1.242 -1.23159 0.0108407)
(-1.20579 -1.02676 0.0105247)
(-1.16723 -0.832896 0.0101882)
(-1.12644 -0.649898 0.00983219)
(-1.08349 -0.477724 0.00945742)
(-1.03849 -0.316366 0.00906463)
(-0.991502 -0.165879 0.00865459)
(-0.942624 -0.026324 0.00822805)
(0.0445833 -47.749 -0.000389088)
(-0.0917797 -46.3467 0.000801069)
(0.215357 -47.6564 -0.00187881)
(0.754224 -59.2678 -0.0065829)
(0.242159 -54.8848 -0.00211616)
(-0.825507 -42.6769 0.00720328)
(0.0385681 -25.829 -0.00041554)
(-0.342261 -21.4279 0.00292938)
(-0.643608 -19.7429 0.00560119)
(-0.836813 -16.7569 0.0072988)
(-0.949466 -13.5791 0.00828604)
(-0.995277 -10.9241 0.00868637)
(-1.03286 -9.0694 0.0090145)
(-1.06892 -7.86842 0.00932928)
(-1.11395 -7.09391 0.00972223)
(-1.16241 -6.56022 0.0101452)
(-1.21277 -6.14876 0.0105847)
(-1.26058 -5.79183 0.011002)
(-1.30393 -5.45574 0.0113803)
(-1.34095 -5.12579 0.0117035)
(-1.371 -4.79748 0.0119658)
(-1.39376 -4.47085 0.0121646)
(-1.40944 -4.14781 0.0123015)
(-1.41839 -3.83059 0.0123797)
(-1.42111 -3.52117 0.0124035)
(-1.41816 -3.22106 0.0123778)
(-1.41007 -2.93126 0.0123073)
(-1.39735 -2.6524 0.0121963)
(-1.38044 -2.38477 0.0120488)
(-1.35974 -2.12846 0.0118682)
(-1.33558 -1.88345 0.0116573)
(-1.30823 -1.64961 0.0114187)
(-1.27794 -1.42681 0.0111544)
(-1.2449 -1.21489 0.0108661)
(-1.20927 -1.01374 0.0105551)
(-1.17119 -0.823265 0.0102227)
(-1.13075 -0.643393 0.00986988)
(-1.08808 -0.4741 0.00949747)
(-1.04326 -0.3154 0.0091063)
(-0.996381 -0.167357 0.00869718)
(-0.947536 -0.0300447 0.00827093)
(0.061496 -47.7376 -0.000536697)
(-0.124778 -46.4475 0.00108909)
(0.280476 -48.5705 -0.0024473)
(0.558992 -59.368 -0.00487938)
(0.0369545 -53.7188 -0.000325035)
(-0.914881 -42.3028 0.00798388)
(0.104336 -26.3489 -0.000969166)
(-0.294105 -20.8241 0.0024947)
(-0.606772 -19.2628 0.00527834)
(-0.803008 -16.4017 0.00700317)
(-0.92229 -13.3334 0.00804877)
(-0.970378 -10.7352 0.00846907)
(-1.00959 -8.8992 0.00881142)
(-1.04529 -7.70161 0.00912301)
(-1.09011 -6.92759 0.00951414)
(-1.13819 -6.39667 0.00993371)
(-1.1887 -5.9913 0.0103746)
(-1.23705 -5.64329 0.0107966)
(-1.28143 -5.31798 0.011184)
(-1.31986 -4.99975 0.0115195)
(-1.35162 -4.68335 0.0117967)
(-1.3763 -4.36836 0.0120122)
(-1.39399 -4.05635 0.0121667)
(-1.40499 -3.74941 0.0122627)
(-1.40974 -3.44944 0.0123042)
(-1.40873 -3.15795 0.0122955)
(-1.40247 -2.87597 0.012241)
(-1.39145 -2.60421 0.0121448)
(-1.37609 -2.34301 0.0120108)
(-1.35679 -2.09255 0.0118425)
(-1.33388 -1.85286 0.0116425)
(-1.30765 -1.62388 0.0114136)
(-1.27833 -1.40552 0.0111577)
(-1.24612 -1.19768 0.0108767)
(-1.2112 -1.00029 0.0105719)
(-1.1737 -0.813262 0.0102447)
(-1.13376 -0.636575 0.00989608)
(-1.09147 -0.470219 0.00952702)
(-1.04694 -0.314225 0.00913839)
(-1.00026 -0.168672 0.00873107)
(-0.951547 -0.0336427 0.00830594)
(0.0807454 -47.7284 -0.0007047)
(-0.159537 -46.558 0.00139245)
(0.336268 -49.3467 -0.00293441)
(0.313214 -59.1635 -0.0027346)
(-0.0517292 -52.6685 0.000449309)
(-0.937679 -42.0641 0.00818316)
(0.207483 -26.993 -0.00185306)
(-0.235833 -20.197 0.00196638)
(-0.56441 -18.7782 0.00490697)
(-0.765401 -16.0439 0.0066743)
(-0.892409 -13.0855 0.00778786)
(-0.943979 -10.5465 0.00823866)
(-0.985419 -8.73084 0.00860042)
(-1.0212 -7.53751 0.00891274)
(-1.06592 -6.76406 0.00930302)
(-1.11359 -6.23554 0.00971903)
(-1.1641 -5.83567 0.0101599)
(-1.21276 -5.49595 0.0105846)
(-1.25792 -5.18081 0.0109788)
(-1.29749 -4.87378 0.0113242)
(-1.33072 -4.56889 0.0116143)
(-1.35709 -4.26524 0.0118445)
(-1.37663 -3.96407 0.0120151)
(-1.38955 -3.66728 0.012128)
(-1.39624 -3.37669 0.0121864)
(-1.39713 -3.0938 0.0121942)
(-1.3927 -2.81967 0.0121556)
(-1.3834 -2.55505 0.0120745)
(-1.36965 -2.30036 0.0119546)
(-1.35183 -2.05582 0.0117991)
(-1.33026 -1.82152 0.0116109)
(-1.30523 -1.59747 0.0113925)
(-1.27699 -1.38363 0.011146)
(-1.24573 -1.17995 0.0108732)
(-1.21163 -0.986366 0.0105756)
(-1.17484 -0.80286 0.0102546)
(-1.13548 -0.629416 0.00991113)
(-1.09368 -0.466053 0.00954635)
(-1.04954 -0.312816 0.00916114)
(-1.00317 -0.169798 0.00875645)
(-0.954673 -0.0370934 0.00833322)
(0.0973434 -47.7198 -0.000849563)
(-0.18594 -46.6704 0.00162287)
(0.362774 -49.9257 -0.00316587)
(0.0770404 -58.7964 -0.000673479)
(-0.028359 -51.8279 0.00024578)
(-0.885054 -41.936 0.00772398)
(0.335986 -27.7103 -0.00296201)
(-0.170643 -19.529 0.00137162)
(-0.519413 -18.2848 0.0045123)
(-0.726939 -15.6822 0.00633785)
(-0.862029 -12.8344 0.00752256)
(-0.917921 -10.3573 0.00801122)
(-0.961719 -8.56388 0.00839357)
(-0.997782 -7.37597 0.00870836)
(-1.04229 -6.60333 0.00909676)
(-1.08939 -6.07701 0.00950787)
(-1.13963 -5.68213 0.00994628)
(-1.18831 -5.35012 0.0103712)
(-1.23393 -5.04457 0.0107694)
(-1.27433 -4.74822 0.011122)
(-1.30874 -4.45443 0.0114224)
(-1.33655 -4.16177 0.0116652)
(-1.35773 -3.87119 0.0118501)
(-1.37241 -3.58438 0.0119783)
(-1.38091 -3.30308 0.0120526)
(-1.38363 -3.02875 0.0120764)
(-1.38099 -2.76246 0.0120534)
(-1.37341 -2.505 0.0119873)
(-1.36129 -2.25684 0.0118816)
(-1.345 -2.01827 0.0117395)
(-1.32484 -1.78943 0.0115636)
(-1.3011 -1.57038 0.0113564)
(-1.27402 -1.36113 0.0111201)
(-1.2438 -1.16166 0.0108564)
(-1.21062 -0.97196 0.0105669)
(-1.17464 -0.792033 0.0102528)
(-1.13598 -0.621892 0.00991542)
(-1.09476 -0.461575 0.00955576)
(-1.05111 -0.311146 0.00917478)
(-1.00513 -0.170711 0.00877351)
(-0.956931 -0.0403741 0.00835292)
(0.105422 -47.7123 -0.000920073)
(-0.193454 -46.7751 0.00168843)
(0.346463 -50.2994 -0.00302364)
(-0.0670361 -58.4317 0.00058402)
(0.0682029 -51.2379 -0.000596567)
(-0.761165 -41.8948 0.00664277)
(0.46412 -28.4416 -0.0040708)
(-0.101175 -18.8102 0.00073388)
(-0.474639 -17.7781 0.00411938)
(-0.690318 -15.3157 0.00601732)
(-0.83306 -12.5794 0.00726955)
(-0.893788 -10.167 0.00780057)
(-0.939601 -8.3981 0.00820052)
(-0.97593 -7.21697 0.00851764)
(-1.01989 -6.44555 0.00890124)
(-1.06617 -5.92133 0.0093052)
(-1.11576 -5.53101 0.00973798)
(-1.16412 -5.20615 0.01016)
(-1.20983 -4.90963 0.0105591)
(-1.25074 -4.62345 0.0109161)
(-1.28601 -4.34029 0.011224)
(-1.315 -4.05827 0.0114771)
(-1.33759 -3.77799 0.0116743)
(-1.35384 -3.50096 0.0118162)
(-1.36402 -3.2288 0.0119051)
(-1.36846 -2.96293 0.011944)
(-1.36755 -2.70444 0.0119361)
(-1.36167 -2.45413 0.0118848)
(-1.35119 -2.21252 0.0117934)
(-1.33645 -1.97995 0.0116648)
(-1.31775 -1.75662 0.0115017)
(-1.29536 -1.54262 0.0113063)
(-1.26952 -1.338 0.0110808)
(-1.24043 -1.14281 0.0108269)
(-1.20825 -0.957053 0.0105462)
(-1.17316 -0.780764 0.0102399)
(-1.13528 -0.613982 0.00990938)
(-1.09474 -0.456766 0.0095556)
(-1.05166 -0.309195 0.00917961)
(-1.00616 -0.17139 0.00878247)
(-0.958341 -0.0434641 0.00836523)
(0.101636 -47.7065 -0.000887029)
(-0.177207 -46.8619 0.00154659)
(0.288129 -50.5385 -0.00251459)
(-0.0382444 -58.212 0.000332885)
(0.156895 -50.853 -0.00137041)
(-0.584101 -41.9085 0.00509746)
(0.518581 -29.135 -0.00453833)
(-0.0307495 -18.0577 8.4615e-05)
(-0.433021 -17.2543 0.00375413)
(-0.657916 -14.9436 0.00573346)
(-0.807063 -12.3202 0.00704244)
(-0.872825 -9.97582 0.00761758)
(-0.919859 -8.2336 0.00802821)
(-0.956256 -7.06069 0.00834593)
(-0.999142 -6.29097 0.0087202)
(-1.04427 -5.7688 0.00911402)
(-1.09278 -5.38265 0.00953744)
(-1.14044 -5.06442 0.00995343)
(-1.18588 -4.77635 0.01035)
(-1.22694 -4.49979 0.0107084)
(-1.26277 -4.22679 0.0110212)
(-1.29266 -3.95501 0.0112821)
(-1.31641 -3.68471 0.0114895)
(-1.33405 -3.41722 0.0116435)
(-1.34575 -3.15402 0.0117457)
(-1.35181 -2.8965 0.0117986)
(-1.35256 -2.64572 0.0118052)
(-1.34834 -2.40253 0.0117684)
(-1.33948 -2.16746 0.0116912)
(-1.32631 -1.9409 0.0115763)
(-1.30911 -1.72309 0.0114262)
(-1.28812 -1.51418 0.0112431)
(-1.26358 -1.31426 0.0110289)
(-1.23568 -1.12339 0.0107855)
(-1.20459 -0.941634 0.0105142)
(-1.17047 -0.769039 0.0102165)
(-1.13346 -0.60567 0.00989342)
(-1.09367 -0.451606 0.00954623)
(-1.05124 -0.306944 0.00917592)
(-1.00628 -0.171815 0.00878359)
(-0.958926 -0.0463445 0.00837033)
(0.0875234 -47.7048 -0.000763864)
(-0.142988 -46.9249 0.00124791)
(0.213268 -50.806 -0.00186121)
(0.200169 -58.1896 -0.00174778)
(0.140184 -50.5376 -0.00122467)