/*--------------------------------*- C++ -*----------------------------------*\
| =========                 |                                                 |
| \\      /  F ield         | OpenFOAM: The Open Source CFD Toolbox           |
|  \\    /   O peration     | Version:  v2012                                 |
|   \\  /    A nd           | Website:  www.openfoam.com                      |
|    \\/     M anipulation  |                                                 |
\*---------------------------------------------------------------------------*/
FoamFile
{
    version     2.0;
    format      ascii;
    class       volScalarField;
    location    "0.8";
    object      p;
}
// * * * * * * * * * * * * * * * * * * * * * * * * * * * * * * * * * * * * * //

dimensions      [1 -1 -2 0 0 0 0];


internalField   nonuniform List<scalar> 
3332
(
3.48727e+06
3.48694e+06
3.48671e+06
3.48657e+06
3.48652e+06
3.48652e+06
3.48659e+06
3.4867e+06
3.48684e+06
3.48702e+06
3.48721e+06
3.48743e+06
3.48765e+06
3.48788e+06
3.48812e+06
3.48835e+06
3.48858e+06
3.48881e+06
3.48903e+06
3.48925e+06
3.48827e+06
3.4875e+06
3.48693e+06
3.48652e+06
3.48624e+06
3.48608e+06
3.48602e+06
3.48603e+06
3.48611e+06
3.48624e+06
3.4864e+06
3.4866e+06
3.48682e+06
3.48705e+06
3.4873e+06
3.48755e+06
3.4878e+06
3.48805e+06
3.4883e+06
3.48854e+06
3.48877e+06
3.489e+06
3.56396e+06
3.56508e+06
3.56305e+06
3.56095e+06
3.56002e+06
3.55772e+06
3.55547e+06
3.55303e+06
3.55025e+06
3.55088e+06
3.49936e+06
3.49736e+06
3.49338e+06
3.49164e+06
3.48968e+06
3.48841e+06
3.48736e+06
3.48663e+06
3.48611e+06
3.48577e+06
3.48559e+06
3.48551e+06
3.48553e+06
3.48563e+06
3.48577e+06
3.48596e+06
3.48618e+06
3.48642e+06
3.48668e+06
3.48695e+06
3.48722e+06
3.48749e+06
3.48775e+06
3.48802e+06
3.48827e+06
3.48852e+06
3.48876e+06
3.57636e+06
3.57446e+06
3.5754e+06
3.57124e+06
3.572e+06
3.56901e+06
3.5674e+06
3.56606e+06
3.56344e+06
3.56697e+06
3.56059e+06
3.53961e+06
3.50656e+06
3.5014e+06
3.49578e+06
3.49303e+06
3.49034e+06
3.48862e+06
3.48727e+06
3.48635e+06
3.4857e+06
3.48531e+06
3.48508e+06
3.485e+06
3.48503e+06
3.48514e+06
3.48531e+06
3.48552e+06
3.48576e+06
3.48603e+06
3.48631e+06
3.48659e+06
3.48688e+06
3.48717e+06
3.48746e+06
3.48774e+06
3.48801e+06
3.48826e+06
3.48851e+06
3.58928e+06
3.58272e+06
3.58771e+06
3.58069e+06
3.58368e+06
3.57951e+06
3.57873e+06
3.57786e+06
3.57563e+06
3.58082e+06
3.57342e+06
3.55533e+06
3.51516e+06
3.50521e+06
3.49844e+06
3.4944e+06
3.49105e+06
3.48882e+06
3.48715e+06
3.48603e+06
3.48528e+06
3.48481e+06
3.48457e+06
3.48448e+06
3.48452e+06
3.48464e+06
3.48483e+06
3.48507e+06
3.48534e+06
3.48563e+06
3.48593e+06
3.48624e+06
3.48656e+06
3.48686e+06
3.48716e+06
3.48746e+06
3.48774e+06
3.48801e+06
3.48827e+06
3.48852e+06
3.60048e+06
3.5893e+06
3.59882e+06
3.58901e+06
3.59403e+06
3.58854e+06
3.58838e+06
3.58694e+06
3.58484e+06
3.58989e+06
3.58213e+06
3.56903e+06
3.52554e+06
3.50833e+06
3.50115e+06
3.49555e+06
3.49167e+06
3.4889e+06
3.48696e+06
3.48565e+06
3.4848e+06
3.48428e+06
3.48402e+06
3.48394e+06
3.48399e+06
3.48414e+06
3.48435e+06
3.48462e+06
3.48492e+06
3.48523e+06
3.48556e+06
3.4859e+06
3.48623e+06
3.48656e+06
3.48687e+06
3.48718e+06
3.48748e+06
3.48777e+06
3.48804e+06
3.4883e+06
3.60944e+06
3.59497e+06
3.60782e+06
3.59612e+06
3.60235e+06
3.59595e+06
3.59608e+06
3.59358e+06
3.59197e+06
3.59542e+06
3.58932e+06
3.58087e+06
3.5389e+06
3.51092e+06
3.50378e+06
3.49633e+06
3.49206e+06
3.48876e+06
3.48662e+06
3.48515e+06
3.48423e+06
3.48369e+06
3.48343e+06
3.48336e+06
3.48344e+06
3.48362e+06
3.48387e+06
3.48416e+06
3.48449e+06
3.48484e+06
3.48519e+06
3.48555e+06
3.4859e+06
3.48625e+06
3.48659e+06
3.48691e+06
3.48722e+06
3.48752e+06
3.48781e+06
3.48807e+06
3.48832e+06
3.6141e+06
3.59952e+06
3.61261e+06
3.60144e+06
3.60752e+06
3.60117e+06
3.60121e+06
3.59805e+06
3.59779e+06
3.59982e+06
3.59599e+06
3.59137e+06
3.55375e+06
3.51321e+06
3.50573e+06
3.49657e+06
3.49202e+06
3.4883e+06
3.48604e+06
3.48449e+06
3.48355e+06
3.48302e+06
3.48278e+06
3.48275e+06
3.48287e+06
3.48308e+06
3.48337e+06
3.4837e+06
3.48407e+06
3.48444e+06
3.48482e+06
3.48521e+06
3.48558e+06
3.48595e+06
3.4863e+06
3.48665e+06
3.48697e+06
3.48728e+06
3.48758e+06
3.48785e+06
3.48811e+06
3.61347e+06
3.6033e+06
3.61121e+06
3.60403e+06
3.60793e+06
3.6027e+06
3.60222e+06
3.59925e+06
3.60094e+06
3.60188e+06
3.60065e+06
3.59765e+06
3.56633e+06
3.51511e+06
3.50583e+06
3.49602e+06
3.49124e+06
3.4874e+06
3.48513e+06
3.48361e+06
3.48273e+06
3.48225e+06
3.48207e+06
3.4821e+06
3.48227e+06
3.48253e+06
3.48287e+06
3.48324e+06
3.48364e+06
3.48405e+06
3.48446e+06
3.48486e+06
3.48526e+06
3.48565e+06
3.48602e+06
3.48638e+06
3.48672e+06
3.48705e+06
3.48735e+06
3.48764e+06
3.48791e+06
3.60314e+06
3.60305e+06
3.60233e+06
3.60199e+06
3.60206e+06
3.59868e+06
3.59737e+06
3.59525e+06
3.5985e+06
3.59754e+06
3.59998e+06
3.59458e+06
3.57301e+06
3.51621e+06
3.50295e+06
3.49445e+06
3.48945e+06
3.48598e+06
3.48383e+06
3.48249e+06
3.48173e+06
3.48137e+06
3.48129e+06
3.4814e+06
3.48164e+06
3.48197e+06
3.48235e+06
3.48277e+06
3.48321e+06
3.48365e+06
3.48409e+06
3.48453e+06
3.48495e+06
3.48536e+06
3.48575e+06
3.48612e+06
3.48648e+06
3.48681e+06
3.48713e+06
3.48743e+06
3.4877e+06
3.58511e+06
3.59778e+06
3.58636e+06
3.59383e+06
3.58899e+06
3.5877e+06
3.58555e+06
3.585e+06
3.58861e+06
3.58558e+06
3.59091e+06
3.5826e+06
3.57083e+06
3.51728e+06
3.49682e+06
3.4918e+06
3.48658e+06
3.48402e+06
3.48211e+06
3.48113e+06
3.48056e+06
3.48039e+06
3.48043e+06
3.48065e+06
3.48098e+06
3.48138e+06
3.48183e+06
3.4823e+06
3.48278e+06
3.48326e+06
3.48373e+06
3.48419e+06
3.48464e+06
3.48507e+06
3.48548e+06
3.48587e+06
3.48624e+06
3.48658e+06
3.48691e+06
3.48722e+06
3.4875e+06
3.56024e+06
3.58427e+06
3.56363e+06
3.57771e+06
3.56816e+06
3.56872e+06
3.56628e+06
3.56846e+06
3.57186e+06
3.5683e+06
3.57427e+06
3.56535e+06
3.56078e+06
3.51731e+06
3.48833e+06
3.48806e+06
3.48281e+06
3.48156e+06
3.48003e+06
3.47953e+06
3.47924e+06
3.4793e+06
3.47952e+06
3.47987e+06
3.4803e+06
3.48078e+06
3.48129e+06
3.48182e+06
3.48235e+06
3.48287e+06
3.48337e+06
3.48386e+06
3.48433e+06
3.48478e+06
3.48521e+06
3.48562e+06
3.486e+06
3.48636e+06
3.4867e+06
3.48701e+06
3.48731e+06
3.53198e+06
3.56154e+06
3.53586e+06
3.55281e+06
3.53934e+06
3.5408e+06
3.53934e+06
3.54608e+06
3.55082e+06
3.54952e+06
3.55419e+06
3.54713e+06
3.547e+06
3.51285e+06
3.47952e+06
3.48298e+06
3.47852e+06
3.47865e+06
3.47769e+06
3.47775e+06
3.4778e+06
3.47813e+06
3.47854e+06
3.47905e+06
3.47959e+06
3.48017e+06
3.48076e+06
3.48134e+06
3.48192e+06
3.48248e+06
3.48302e+06
3.48354e+06
3.48403e+06
3.48451e+06
3.48495e+06
3.48537e+06
3.48577e+06
3.48614e+06
3.48649e+06
3.48681e+06
3.48712e+06
3.49947e+06
3.52816e+06
3.50424e+06
3.51973e+06
3.50344e+06
3.5042e+06
3.50543e+06
3.5191e+06
3.52861e+06
3.53223e+06
3.53521e+06
3.53141e+06
3.53286e+06
3.50495e+06
3.47265e+06
3.47683e+06
3.47426e+06
3.47543e+06
3.47522e+06
3.47584e+06
3.47628e+06
3.47691e+06
3.47753e+06
3.4782e+06
3.47888e+06
3.47955e+06
3.48022e+06
3.48087e+06
3.48149e+06
3.4821e+06
3.48267e+06
3.48322e+06
3.48374e+06
3.48423e+06
3.4847e+06
3.48513e+06
3.48554e+06
3.48593e+06
3.48629e+06
3.48662e+06
3.48693e+06
3.46836e+06
3.49042e+06
3.47252e+06
3.48285e+06
3.4647e+06
3.46285e+06
3.46807e+06
3.49043e+06
3.5078e+06
3.51753e+06
3.51973e+06
3.51899e+06
3.51965e+06
3.49712e+06
3.46792e+06
3.47046e+06
3.47038e+06
3.47209e+06
3.47276e+06
3.47388e+06
3.47473e+06
3.47566e+06
3.47651e+06
3.47735e+06
3.47816e+06
3.47894e+06
3.47968e+06
3.48039e+06
3.48107e+06
3.48172e+06
3.48233e+06
3.48291e+06
3.48345e+06
3.48397e+06
3.48445e+06
3.4849e+06
3.48532e+06
3.48572e+06
3.48609e+06
3.48643e+06
3.48674e+06
3.44297e+06
3.45693e+06
3.44611e+06
3.45074e+06
3.43218e+06
3.4273e+06
3.43564e+06
3.46581e+06
3.49083e+06
3.50533e+06
3.50752e+06
3.50857e+06
3.50775e+06
3.48999e+06
3.46369e+06
3.46437e+06
3.46674e+06
3.46879e+06
3.47036e+06
3.47191e+06
3.47319e+06
3.4744e+06
3.47548e+06
3.4765e+06
3.47744e+06
3.47832e+06
3.47915e+06
3.47993e+06
3.48066e+06
3.48135e+06
3.482e+06
3.4826e+06
3.48317e+06
3.48371e+06
3.48421e+06
3.48467e+06
3.48511e+06
3.48551e+06
3.48589e+06
3.48624e+06
3.48657e+06
3.43016e+06
3.43912e+06
3.43252e+06
3.43439e+06
3.41753e+06
3.41276e+06
3.4193e+06
3.45226e+06
3.47952e+06
3.49495e+06
3.49693e+06
3.49868e+06
3.49701e+06
3.48311e+06
3.45885e+06
3.45891e+06
3.46322e+06
3.46565e+06
3.46805e+06
3.47e+06
3.47168e+06
3.47317e+06
3.47447e+06
3.47566e+06
3.47673e+06
3.47772e+06
3.47863e+06
3.47947e+06
3.48026e+06
3.48099e+06
3.48167e+06
3.48231e+06
3.4829e+06
3.48345e+06
3.48397e+06
3.48445e+06
3.4849e+06
3.48532e+06
3.4857e+06
3.48606e+06
3.48639e+06
3.43263e+06
3.44097e+06
3.43411e+06
3.43782e+06
3.42383e+06
3.42304e+06
3.42451e+06
3.45167e+06
3.47355e+06
3.48556e+06
3.4867e+06
3.48863e+06
3.48701e+06
3.47603e+06
3.4536e+06
3.45428e+06
3.45981e+06
3.46278e+06
3.46586e+06
3.46819e+06
3.47024e+06
3.47198e+06
3.4735e+06
3.47484e+06
3.47604e+06
3.47713e+06
3.47812e+06
3.47903e+06
3.47987e+06
3.48064e+06
3.48136e+06
3.48202e+06
3.48264e+06
3.48321e+06
3.48374e+06
3.48424e+06
3.4847e+06
3.48513e+06
3.48552e+06
3.48589e+06
3.48622e+06
3.44335e+06
3.45315e+06
3.44481e+06
3.45174e+06
3.44188e+06
3.44588e+06
3.44212e+06
3.45789e+06
3.47e+06
3.4766e+06
3.47681e+06
3.47882e+06
3.47771e+06
3.46875e+06
3.44854e+06
3.45049e+06
3.45666e+06
3.46023e+06
3.46382e+06
3.46651e+06
3.46888e+06
3.47085e+06
3.47256e+06
3.47406e+06
3.47538e+06
3.47656e+06
3.47763e+06
3.4786e+06
3.47949e+06
3.4803e+06
3.48105e+06
3.48174e+06
3.48238e+06
3.48297e+06
3.48352e+06
3.48403e+06
3.4845e+06
3.48494e+06
3.48534e+06
3.48572e+06
3.48606e+06
3.4568e+06
3.46514e+06
3.45787e+06
3.46484e+06
3.45961e+06
3.46513e+06
3.45839e+06
3.46288e+06
3.46632e+06
3.4685e+06
3.4682e+06
3.47026e+06
3.46949e+06
3.46211e+06
3.44421e+06
3.4475e+06
3.45386e+06
3.45804e+06
3.46197e+06
3.46499e+06
3.46762e+06
3.4698e+06
3.47168e+06
3.47331e+06
3.47475e+06
3.47602e+06
3.47716e+06
3.47819e+06
3.47912e+06
3.47998e+06
3.48076e+06
3.48148e+06
3.48214e+06
3.48275e+06
3.48331e+06
3.48383e+06
3.48431e+06
3.48476e+06
3.48517e+06
3.48555e+06
3.4859e+06
3.46809e+06
3.47059e+06
3.46892e+06
3.47138e+06
3.47277e+06
3.47301e+06
3.46776e+06
3.46405e+06
3.4622e+06
3.46203e+06
3.46157e+06
3.46356e+06
3.46276e+06
3.4566e+06
3.44076e+06
3.44517e+06
3.45149e+06
3.45618e+06
3.46033e+06
3.46363e+06
3.46646e+06
3.46882e+06
3.47086e+06
3.47261e+06
3.47415e+06
3.4755e+06
3.47671e+06
3.4778e+06
3.47878e+06
3.47967e+06
3.48048e+06
3.48122e+06
3.4819e+06
3.48253e+06
3.48311e+06
3.48364e+06
3.48413e+06
3.48459e+06
3.48501e+06
3.48539e+06
3.48575e+06
3.47757e+06
3.47161e+06
3.47731e+06
3.47266e+06
3.48183e+06
3.47398e+06
3.47056e+06
3.46274e+06
3.45832e+06
3.45738e+06
3.45687e+06
3.45866e+06
3.4576e+06
3.45239e+06
3.4381e+06
3.44333e+06
3.44951e+06
3.4546e+06
3.45888e+06
3.46241e+06
3.46541e+06
3.46793e+06
3.47009e+06
3.47196e+06
3.47359e+06
3.47502e+06
3.47629e+06
3.47742e+06
3.47845e+06
3.47937e+06
3.48021e+06
3.48098e+06
3.48168e+06
3.48232e+06
3.48291e+06
3.48346e+06
3.48396e+06
3.48442e+06
3.48485e+06
3.48524e+06
3.4856e+06
3.48143e+06
3.47153e+06
3.48057e+06
3.47251e+06
3.48415e+06
3.4736e+06
3.46864e+06
3.46039e+06
3.45504e+06
3.45413e+06
3.45356e+06
3.45506e+06
3.45376e+06
3.44918e+06
3.43597e+06
3.4418e+06
3.44785e+06
3.45324e+06
3.45761e+06
3.46133e+06
3.46446e+06
3.46712e+06
3.46939e+06
3.47136e+06
3.47307e+06
3.47457e+06
3.47589e+06
3.47707e+06
3.47814e+06
3.47909e+06
3.47996e+06
3.48075e+06
3.48147e+06
3.48212e+06
3.48273e+06
3.48328e+06
3.48379e+06
3.48426e+06
3.48469e+06
3.48509e+06
3.48545e+06
3.47754e+06
3.47273e+06
3.47677e+06
3.4729e+06
3.47816e+06
3.47213e+06
3.46412e+06
3.45743e+06
3.45221e+06
3.45159e+06
3.45097e+06
3.45217e+06
3.45077e+06
3.44639e+06
3.43415e+06
3.44046e+06
3.44642e+06
3.45205e+06
3.45649e+06
3.46037e+06
3.46361e+06
3.46638e+06
3.46876e+06
3.4708e+06
3.47259e+06
3.47415e+06
3.47552e+06
3.47675e+06
3.47784e+06
3.47883e+06
3.47972e+06
3.48053e+06
3.48126e+06
3.48194e+06
3.48255e+06
3.48312e+06
3.48363e+06
3.48411e+06
3.48455e+06
3.48495e+06
3.48532e+06
3.46843e+06
3.47503e+06
3.4689e+06
3.47449e+06
3.46921e+06
3.46923e+06
3.45925e+06
3.45418e+06
3.44956e+06
3.44913e+06
3.44849e+06
3.44947e+06
3.44814e+06
3.44372e+06
3.43248e+06
3.43919e+06
3.44515e+06
3.45098e+06
3.4555e+06
3.45951e+06
3.46285e+06
3.46572e+06
3.46818e+06
3.4703e+06
3.47215e+06
3.47376e+06
3.47518e+06
3.47645e+06
3.47758e+06
3.47859e+06
3.4795e+06
3.48032e+06
3.48108e+06
3.48176e+06
3.48238e+06
3.48296e+06
3.48348e+06
3.48396e+06
3.48441e+06
3.48481e+06
3.48518e+06
3.46103e+06
3.4779e+06
3.46249e+06
3.4767e+06
3.46352e+06
3.46583e+06
3.45533e+06
3.45079e+06
3.44676e+06
3.44633e+06
3.44575e+06
3.44661e+06
3.44551e+06
3.44093e+06
3.43081e+06
3.43793e+06
3.44398e+06
3.45e+06
3.45461e+06
3.45874e+06
3.46217e+06
3.46513e+06
3.46766e+06
3.46985e+06
3.47175e+06
3.47341e+06
3.47487e+06
3.47617e+06
3.47733e+06
3.47836e+06
3.47929e+06
3.48014e+06
3.4809e+06
3.48159e+06
3.48223e+06
3.48281e+06
3.48334e+06
3.48382e+06
3.48427e+06
3.48468e+06
3.48505e+06
3.45768e+06
3.4778e+06
3.45944e+06
3.47658e+06
3.46135e+06
3.46187e+06
3.45206e+06
3.44714e+06
3.44364e+06
3.4431e+06
3.44267e+06
3.44354e+06
3.44271e+06
3.43794e+06
3.42916e+06
3.43667e+06
3.44291e+06
3.4491e+06
3.45382e+06
3.45806e+06
3.46156e+06
3.4646e+06
3.46719e+06
3.46944e+06
3.47139e+06
3.4731e+06
3.47459e+06
3.47592e+06
3.4771e+06
3.47816e+06
3.4791e+06
3.47996e+06
3.48074e+06
3.48144e+06
3.48208e+06
3.48267e+06
3.4832e+06
3.48369e+06
3.48414e+06
3.48456e+06
3.48493e+06
3.45738e+06
3.47197e+06
3.45843e+06
3.4715e+06
3.45946e+06
3.45666e+06
3.44865e+06
3.4432e+06
3.44025e+06
3.43966e+06
3.43944e+06
3.44038e+06
3.43977e+06
3.43488e+06
3.42759e+06
3.43547e+06
3.44195e+06
3.44829e+06
3.45312e+06
3.45746e+06
3.46103e+06
3.46414e+06
3.46679e+06
3.46909e+06
3.47108e+06
3.47282e+06
3.47435e+06
3.4757e+06
3.4769e+06
3.47797e+06
3.47893e+06
3.4798e+06
3.48058e+06
3.4813e+06
3.48194e+06
3.48254e+06
3.48308e+06
3.48357e+06
3.48402e+06
3.48444e+06
3.48482e+06
3.45747e+06
3.4616e+06
3.45704e+06
3.46239e+06
3.45602e+06
3.45046e+06
3.44488e+06
3.43919e+06
3.43687e+06
3.43632e+06
3.43632e+06
3.43735e+06
3.43686e+06
3.43195e+06
3.4262e+06
3.4344e+06
3.44111e+06
3.44759e+06
3.45253e+06
3.45694e+06
3.46058e+06
3.46375e+06
3.46644e+06
3.46878e+06
3.4708e+06
3.47257e+06
3.47413e+06
3.4755e+06
3.47672e+06
3.4778e+06
3.47878e+06
3.47966e+06
3.48045e+06
3.48117e+06
3.48182e+06
3.48241e+06
3.48296e+06
3.48345e+06
3.48391e+06
3.48432e+06
3.48471e+06
3.45641e+06
3.4498e+06
3.45439e+06
3.45199e+06
3.45135e+06
3.44414e+06
3.44101e+06
3.43549e+06
3.43381e+06
3.4334e+06
3.43352e+06
3.43467e+06
3.43415e+06
3.42938e+06
3.4251e+06
3.43351e+06
3.44043e+06
3.44701e+06
3.45203e+06
3.45651e+06
3.46021e+06
3.46342e+06
3.46615e+06
3.46852e+06
3.47057e+06
3.47237e+06
3.47394e+06
3.47533e+06
3.47656e+06
3.47766e+06
3.47864e+06
3.47953e+06
3.48032e+06
3.48105e+06
3.4817e+06
3.4823e+06
3.48285e+06
3.48334e+06
3.4838e+06
3.48422e+06
3.4846e+06
3.45405e+06
3.43919e+06
3.45079e+06
3.44257e+06
3.44641e+06
3.43854e+06
3.43743e+06
3.43241e+06
3.43133e+06
3.43111e+06
3.43133e+06
3.43239e+06
3.43187e+06
3.42726e+06
3.42432e+06
3.43285e+06
3.43993e+06
3.44656e+06
3.45166e+06
3.45618e+06
3.45991e+06
3.46315e+06
3.46591e+06
3.46831e+06
3.47038e+06
3.47219e+06
3.47378e+06
3.47518e+06
3.47643e+06
3.47753e+06
3.47852e+06
3.47941e+06
3.48021e+06
3.48094e+06
3.4816e+06
3.4822e+06
3.48274e+06
3.48324e+06
3.4837e+06
3.48412e+06
3.4845e+06
3.45085e+06
3.4311e+06
3.44691e+06
3.43527e+06
3.4419e+06
3.43408e+06
3.43442e+06
3.43009e+06
3.42951e+06
3.42947e+06
3.42969e+06
3.43064e+06
3.43007e+06
3.42567e+06
3.42387e+06
3.43242e+06
3.43961e+06
3.44624e+06
3.45139e+06
3.45593e+06
3.45969e+06
3.46295e+06
3.46573e+06
3.46815e+06
3.47024e+06
3.47206e+06
3.47366e+06
3.47507e+06
3.47632e+06
3.47743e+06
3.47842e+06
3.47931e+06
3.48012e+06
3.48084e+06
3.4815e+06
3.4821e+06
3.48265e+06
3.48315e+06
3.48361e+06
3.48402e+06
3.48441e+06
3.44714e+06
3.4257e+06
3.44322e+06
3.43028e+06
3.43814e+06
3.43086e+06
3.43205e+06
3.42849e+06
3.42827e+06
3.42838e+06
3.42855e+06
3.42933e+06
3.42873e+06
3.42451e+06
3.4237e+06
3.4322e+06
3.43945e+06
3.44606e+06
3.45123e+06
3.45578e+06
3.45955e+06
3.46282e+06
3.46561e+06
3.46803e+06
3.47013e+06
3.47196e+06
3.47357e+06
3.47498e+06
3.47623e+06
3.47734e+06
3.47834e+06
3.47923e+06
3.48003e+06
3.48076e+06
3.48142e+06
3.48202e+06
3.48256e+06
3.48306e+06
3.48352e+06
3.48394e+06
3.48432e+06
3.4436e+06
3.42279e+06
3.43998e+06
3.42727e+06
3.43513e+06
3.4287e+06
3.43023e+06
3.42741e+06
3.42742e+06
3.42764e+06
3.42773e+06
3.42832e+06
3.42774e+06
3.42368e+06
3.42374e+06
3.43217e+06
3.43944e+06
3.446e+06
3.45118e+06
3.45571e+06
3.45949e+06
3.46276e+06
3.46555e+06
3.46797e+06
3.47007e+06
3.4719e+06
3.4735e+06
3.47492e+06
3.47617e+06
3.47728e+06
3.47827e+06
3.47916e+06
3.47996e+06
3.48069e+06
3.48134e+06
3.48194e+06
3.48249e+06
3.48298e+06
3.48344e+06
3.48385e+06
3.48423e+06
3.44017e+06
3.42164e+06
3.43714e+06
3.42568e+06
3.43273e+06
3.4273e+06
3.4288e+06
3.42664e+06
3.42674e+06
3.42704e+06
3.42704e+06
3.42749e+06
3.42694e+06
3.42304e+06
3.42391e+06
3.43226e+06
3.43955e+06
3.44605e+06
3.45122e+06
3.45573e+06
3.4595e+06
3.46276e+06
3.46554e+06
3.46796e+06
3.47005e+06
3.47188e+06
3.47348e+06
3.47488e+06
3.47613e+06
3.47724e+06
3.47823e+06
3.47911e+06
3.47991e+06
3.48063e+06
3.48128e+06
3.48187e+06
3.48242e+06
3.48291e+06
3.48336e+06
3.48378e+06
3.48416e+06
3.43696e+06
3.42163e+06
3.43468e+06
3.42498e+06
3.43075e+06
3.42633e+06
3.42757e+06
3.42593e+06
3.42604e+06
3.4264e+06
3.42635e+06
3.42671e+06
3.4262e+06
3.42248e+06
3.42418e+06
3.43246e+06
3.43976e+06
3.44619e+06
3.45135e+06
3.45583e+06
3.45958e+06
3.46282e+06
3.46559e+06
3.46799e+06
3.47007e+06
3.47189e+06
3.47348e+06
3.47488e+06
3.47612e+06
3.47721e+06
3.4782e+06
3.47907e+06
3.47987e+06
3.48058e+06
3.48123e+06
3.48182e+06
3.48235e+06
3.48285e+06
3.4833e+06
3.48371e+06
3.48408e+06
3.43387e+06
3.42214e+06
3.43244e+06
3.42471e+06
3.42904e+06
3.42557e+06
3.42643e+06
3.42517e+06
3.42522e+06
3.42565e+06
3.4256e+06
3.42592e+06
3.42545e+06
3.42198e+06
3.42452e+06
3.43276e+06
3.44007e+06
3.44643e+06
3.45157e+06
3.45601e+06
3.45974e+06
3.46295e+06
3.4657e+06
3.46808e+06
3.47014e+06
3.47194e+06
3.47351e+06
3.4749e+06
3.47613e+06
3.47721e+06
3.47818e+06
3.47905e+06
3.47984e+06
3.48054e+06
3.48119e+06
3.48177e+06
3.4823e+06
3.48279e+06
3.48323e+06
3.48364e+06
3.48402e+06
3.43117e+06
3.42287e+06
3.4304e+06
3.42456e+06
3.42751e+06
3.42487e+06
3.42531e+06
3.42429e+06
3.42428e+06
3.4248e+06
3.42478e+06
3.42513e+06
3.42466e+06
3.42155e+06
3.42494e+06
3.43315e+06
3.44048e+06
3.44677e+06
3.45188e+06
3.45628e+06
3.45996e+06
3.46314e+06
3.46586e+06
3.46821e+06
3.47025e+06
3.47202e+06
3.47358e+06
3.47495e+06
3.47616e+06
3.47723e+06
3.47819e+06
3.47905e+06
3.47982e+06
3.48052e+06
3.48115e+06
3.48173e+06
3.48226e+06
3.48274e+06
3.48318e+06
3.48358e+06
3.48395e+06
3.42875e+06
3.4235e+06
3.4285e+06
3.42438e+06
3.42612e+06
3.4242e+06
3.42425e+06
3.42337e+06
3.42331e+06
3.42394e+06
3.42398e+06
3.42438e+06
3.4239e+06
3.42125e+06
3.42547e+06
3.43365e+06
3.441e+06
3.44721e+06
3.45228e+06
3.45662e+06
3.46026e+06
3.46339e+06
3.46607e+06
3.46839e+06
3.4704e+06
3.47215e+06
3.47368e+06
3.47502e+06
3.47621e+06
3.47727e+06
3.47821e+06
3.47906e+06
3.47982e+06
3.48051e+06
3.48113e+06
3.4817e+06
3.48222e+06
3.48269e+06
3.48313e+06
3.48353e+06
3.4839e+06
3.42676e+06
3.42401e+06
3.42679e+06
3.42414e+06
3.42489e+06
3.42357e+06
3.42328e+06
3.42252e+06
3.42243e+06
3.4232e+06
3.42327e+06
3.42373e+06
3.42325e+06
3.42116e+06
3.42616e+06
3.4343e+06
3.44164e+06
3.44776e+06
3.45278e+06
3.45705e+06
3.46064e+06
3.46372e+06
3.46635e+06
3.46862e+06
3.47059e+06
3.47231e+06
3.47381e+06
3.47513e+06
3.47629e+06
3.47733e+06
3.47825e+06
3.47908e+06
3.47983e+06
3.4805e+06
3.48112e+06
3.48168e+06
3.48219e+06
3.48266e+06
3.48309e+06
3.48348e+06
3.48384e+06
3.42478e+06
3.4241e+06
3.42515e+06
3.42385e+06
3.42382e+06
3.42304e+06
3.42248e+06
3.42181e+06
3.42172e+06
3.42267e+06
3.42273e+06
3.42326e+06
3.42277e+06
3.42135e+06
3.42704e+06
3.43512e+06
3.44242e+06
3.44843e+06
3.45338e+06
3.45757e+06
3.46109e+06
3.4641e+06
3.46668e+06
3.4689e+06
3.47083e+06
3.4725e+06
3.47397e+06
3.47526e+06
3.4764e+06
3.47741e+06
3.47831e+06
3.47912e+06
3.47985e+06
3.48051e+06
3.48111e+06
3.48166e+06
3.48216e+06
3.48262e+06
3.48305e+06
3.48344e+06
3.4838e+06
3.42126e+06
3.42237e+06
3.42239e+06
3.42298e+06
3.42253e+06
3.42184e+06
3.42812e+06
3.43613e+06
3.44334e+06
3.44922e+06
3.45409e+06
3.45818e+06
3.46162e+06
3.46456e+06
3.46707e+06
3.46923e+06
3.4711e+06
3.47274e+06
3.47416e+06
3.47541e+06
3.47652e+06
3.47751e+06
3.47839e+06
3.47917e+06
3.47989e+06
3.48053e+06
3.48112e+06
3.48165e+06
3.48215e+06
3.4826e+06
3.48302e+06
3.4834e+06
3.48375e+06
3.48727e+06
3.48694e+06
3.48671e+06
3.48657e+06
3.48652e+06
3.48652e+06
3.48659e+06
3.4867e+06
3.48684e+06
3.48702e+06
3.48721e+06
3.48743e+06
3.48765e+06
3.48788e+06
3.48812e+06
3.48835e+06
3.48858e+06
3.48881e+06
3.48903e+06
3.48925e+06
3.48827e+06
3.4875e+06
3.48693e+06
3.48652e+06
3.48624e+06
3.48608e+06
3.48602e+06
3.48603e+06
3.48611e+06
3.48624e+06
3.4864e+06
3.4866e+06
3.48682e+06
3.48705e+06
3.4873e+06
3.48755e+06
3.4878e+06
3.48805e+06
3.4883e+06
3.48854e+06
3.48877e+06
3.489e+06
3.56396e+06
3.56508e+06
3.56305e+06
3.56095e+06
3.56002e+06
3.55772e+06
3.55547e+06
3.55303e+06
3.55025e+06
3.55088e+06
3.49936e+06
3.49736e+06
3.49338e+06
3.49164e+06
3.48968e+06
3.48841e+06
3.48736e+06
3.48663e+06
3.48611e+06
3.48577e+06
3.48559e+06
3.48551e+06
3.48553e+06
3.48563e+06
3.48577e+06
3.48596e+06
3.48618e+06
3.48642e+06
3.48668e+06
3.48695e+06
3.48722e+06
3.48749e+06
3.48775e+06
3.48802e+06
3.48827e+06
3.48852e+06
3.48876e+06
3.57636e+06
3.57446e+06
3.5754e+06
3.57124e+06
3.572e+06
3.56901e+06
3.5674e+06
3.56606e+06
3.56344e+06
3.56697e+06
3.56059e+06
3.53961e+06
3.50656e+06
3.5014e+06
3.49578e+06
3.49303e+06
3.49034e+06
3.48862e+06
3.48727e+06
3.48635e+06
3.4857e+06
3.48531e+06
3.48508e+06
3.485e+06
3.48503e+06
3.48514e+06
3.48531e+06
3.48552e+06
3.48576e+06
3.48603e+06
3.48631e+06
3.48659e+06
3.48688e+06
3.48717e+06
3.48746e+06
3.48774e+06
3.48801e+06
3.48826e+06
3.48851e+06
3.58928e+06
3.58272e+06
3.58771e+06
3.58069e+06
3.58368e+06
3.57951e+06
3.57873e+06
3.57786e+06
3.57563e+06
3.58082e+06
3.57342e+06
3.55533e+06
3.51516e+06
3.50521e+06
3.49844e+06
3.4944e+06
3.49105e+06
3.48882e+06
3.48715e+06
3.48603e+06
3.48528e+06
3.48481e+06
3.48457e+06
3.48448e+06
3.48452e+06
3.48464e+06
3.48483e+06
3.48507e+06
3.48534e+06
3.48563e+06
3.48593e+06
3.48624e+06
3.48656e+06
3.48686e+06
3.48716e+06
3.48746e+06
3.48774e+06
3.48801e+06
3.48827e+06
3.48852e+06
3.60048e+06
3.5893e+06
3.59882e+06
3.58901e+06
3.59403e+06
3.58854e+06
3.58838e+06
3.58694e+06
3.58484e+06
3.58989e+06
3.58213e+06
3.56903e+06
3.52554e+06
3.50833e+06
3.50115e+06
3.49555e+06
3.49167e+06
3.4889e+06
3.48696e+06
3.48565e+06
3.4848e+06
3.48428e+06
3.48402e+06
3.48394e+06
3.48399e+06
3.48414e+06
3.48435e+06
3.48462e+06
3.48492e+06
3.48523e+06
3.48556e+06
3.4859e+06
3.48623e+06
3.48656e+06
3.48687e+06
3.48718e+06
3.48748e+06
3.48777e+06
3.48804e+06
3.4883e+06
3.60944e+06
3.59497e+06
3.60782e+06
3.59612e+06
3.60235e+06
3.59595e+06
3.59608e+06
3.59358e+06
3.59197e+06
3.59542e+06
3.58932e+06
3.58087e+06
3.5389e+06
3.51092e+06
3.50378e+06
3.49633e+06
3.49206e+06
3.48876e+06
3.48662e+06
3.48515e+06
3.48423e+06
3.48369e+06
3.48343e+06
3.48336e+06
3.48344e+06
3.48362e+06
3.48387e+06
3.48416e+06
3.48449e+06
3.48484e+06
3.48519e+06
3.48555e+06
3.4859e+06
3.48625e+06
3.48659e+06
3.48691e+06
3.48722e+06
3.48752e+06
3.48781e+06
3.48807e+06
3.48832e+06
3.6141e+06
3.59952e+06
3.61261e+06
3.60144e+06
3.60752e+06
3.60117e+06
3.60121e+06
3.59805e+06
3.59779e+06
3.59982e+06
3.59599e+06
3.59137e+06
3.55375e+06
3.51321e+06
3.50573e+06
3.49657e+06
3.49202e+06
3.4883e+06
3.48604e+06
3.48449e+06
3.48355e+06
3.48302e+06
3.48278e+06
3.48275e+06
3.48287e+06
3.48308e+06
3.48337e+06
3.4837e+06
3.48407e+06
3.48444e+06
3.48482e+06
3.48521e+06
3.48558e+06
3.48595e+06
3.4863e+06
3.48665e+06
3.48697e+06
3.48728e+06
3.48758e+06
3.48785e+06
3.48811e+06
3.61347e+06
3.6033e+06
3.61121e+06
3.60403e+06
3.60793e+06
3.6027e+06
3.60222e+06
3.59925e+06
3.60094e+06
3.60188e+06
3.60065e+06
3.59765e+06
3.56633e+06
3.51511e+06
3.50583e+06
3.49602e+06
3.49124e+06
3.4874e+06
3.48513e+06
3.48361e+06
3.48273e+06
3.48225e+06
3.48207e+06
3.4821e+06
3.48227e+06
3.48253e+06
3.48287e+06
3.48324e+06
3.48364e+06
3.48405e+06
3.48446e+06
3.48486e+06
3.48526e+06
3.48565e+06
3.48602e+06
3.48638e+06
3.48672e+06
3.48705e+06
3.48735e+06
3.48764e+06
3.48791e+06
3.60314e+06
3.60305e+06
3.60233e+06
3.60199e+06
3.60206e+06
3.59868e+06
3.59737e+06
3.59525e+06
3.5985e+06
3.59754e+06
3.59998e+06
3.59458e+06
3.57301e+06
3.51621e+06
3.50295e+06
3.49445e+06
3.48945e+06
3.48598e+06
3.48383e+06
3.48249e+06
3.48173e+06
3.48137e+06
3.48129e+06
3.4814e+06
3.48164e+06
3.48197e+06
3.48235e+06
3.48277e+06
3.48321e+06
3.48365e+06
3.48409e+06
3.48453e+06
3.48495e+06
3.48536e+06
3.48575e+06
3.48612e+06
3.48648e+06
3.48681e+06
3.48713e+06
3.48743e+06
3.4877e+06
3.58511e+06
3.59778e+06
3.58636e+06
3.59383e+06
3.58899e+06
3.5877e+06
3.58555e+06
3.585e+06
3.58861e+06
3.58558e+06
3.59091e+06
3.5826e+06
3.57083e+06
3.51728e+06
3.49682e+06
3.4918e+06
3.48658e+06
3.48402e+06
3.48211e+06
3.48113e+06
3.48056e+06
3.48039e+06
3.48043e+06
3.48065e+06
3.48098e+06
3.48138e+06
3.48183e+06
3.4823e+06
3.48278e+06
3.48326e+06
3.48373e+06
3.48419e+06
3.48464e+06
3.48507e+06
3.48548e+06
3.48587e+06
3.48624e+06
3.48658e+06
3.48691e+06
3.48722e+06
3.4875e+06
3.56024e+06
3.58427e+06
3.56363e+06
3.57771e+06
3.56816e+06
3.56872e+06
3.56628e+06
3.56846e+06
3.57186e+06
3.5683e+06
3.57427e+06
3.56535e+06
3.56078e+06
3.51731e+06
3.48833e+06
3.48806e+06
3.48281e+06
3.48156e+06
3.48003e+06
3.47953e+06
3.47924e+06
3.4793e+06
3.47952e+06
3.47987e+06
3.4803e+06
3.48078e+06
3.48129e+06
3.48182e+06
3.48235e+06
3.48287e+06
3.48337e+06
3.48386e+06
3.48433e+06
3.48478e+06
3.48521e+06
3.48562e+06
3.486e+06
3.48636e+06
3.4867e+06
3.48701e+06
3.48731e+06
3.53198e+06
3.56154e+06
3.53586e+06
3.55281e+06
3.53934e+06
3.5408e+06
3.53934e+06
3.54608e+06
3.55082e+06
3.54952e+06
3.55419e+06
3.54713e+06
3.547e+06
3.51285e+06
3.47952e+06
3.48298e+06
3.47852e+06
3.47865e+06
3.47769e+06
3.47775e+06
3.4778e+06
3.47813e+06
3.47854e+06
3.47905e+06
3.47959e+06
3.48017e+06
3.48076e+06
3.48134e+06
3.48192e+06
3.48248e+06
3.48302e+06
3.48354e+06
3.48403e+06
3.48451e+06
3.48495e+06
3.48537e+06
3.48577e+06
3.48614e+06
3.48649e+06
3.48681e+06
3.48712e+06
3.49947e+06
3.52816e+06
3.50424e+06
3.51973e+06
3.50344e+06
3.5042e+06
3.50543e+06
3.5191e+06
3.52861e+06
3.53223e+06
3.53521e+06
3.53141e+06
3.53286e+06
3.50495e+06
3.47265e+06
3.47683e+06
3.47426e+06
3.47543e+06
3.47522e+06
3.47584e+06
3.47628e+06
3.47691e+06
3.47753e+06
3.4782e+06
3.47888e+06
3.47955e+06
3.48022e+06
3.48087e+06
3.48149e+06
3.4821e+06
3.48267e+06
3.48322e+06
3.48374e+06
3.48423e+06
3.4847e+06
3.48513e+06
3.48554e+06
3.48593e+06
3.48629e+06
3.48662e+06
3.48693e+06
3.46836e+06
3.49042e+06
3.47252e+06
3.48285e+06
3.4647e+06
3.46285e+06
3.46807e+06
3.49043e+06
3.5078e+06
3.51753e+06
3.51973e+06
3.51899e+06
3.51965e+06
3.49712e+06
3.46792e+06
3.47046e+06
3.47038e+06
3.47209e+06
3.47276e+06
3.47388e+06
3.47473e+06
3.47566e+06
3.47651e+06
3.47735e+06
3.47816e+06
3.47894e+06
3.47968e+06
3.48039e+06
3.48107e+06
3.48172e+06
3.48233e+06
3.48291e+06
3.48345e+06
3.48397e+06
3.48445e+06
3.4849e+06
3.48532e+06
3.48572e+06
3.48609e+06
3.48643e+06
3.48674e+06
3.44297e+06
3.45693e+06
3.44611e+06
3.45074e+06
3.43218e+06
3.4273e+06
3.43564e+06
3.46581e+06
3.49083e+06
3.50533e+06
3.50752e+06
3.50857e+06
3.50775e+06
3.48999e+06
3.46369e+06
3.46437e+06
3.46674e+06
3.46879e+06
3.47036e+06
3.47191e+06
3.47319e+06
3.4744e+06
3.47548e+06
3.4765e+06
3.47744e+06
3.47832e+06
3.47915e+06
3.47993e+06
3.48066e+06
3.48135e+06
3.482e+06
3.4826e+06
3.48317e+06
3.48371e+06
3.48421e+06
3.48467e+06
3.48511e+06
3.48551e+06
3.48589e+06
3.48624e+06
3.48657e+06
3.43016e+06
3.43912e+06
3.43252e+06
3.43439e+06
3.41753e+06
3.41276e+06
3.4193e+06
3.45226e+06
3.47952e+06
3.49495e+06
3.49693e+06
3.49868e+06
3.49701e+06
3.48311e+06
3.45885e+06
3.45891e+06
3.46322e+06
3.46565e+06
3.46805e+06
3.47e+06
3.47168e+06
3.47317e+06
3.47447e+06
3.47566e+06
3.47673e+06
3.47772e+06
3.47863e+06
3.47947e+06
3.48026e+06
3.48099e+06
3.48167e+06
3.48231e+06
3.4829e+06
3.48345e+06
3.48397e+06
3.48445e+06
3.4849e+06
3.48532e+06
3.4857e+06
3.48606e+06
3.48639e+06
3.43263e+06
3.44097e+06
3.43411e+06
3.43782e+06
3.42383e+06
3.42304e+06
3.42451e+06
3.45167e+06
3.47355e+06
3.48556e+06
3.4867e+06
3.48863e+06
3.48701e+06
3.47603e+06
3.4536e+06
3.45428e+06
3.45981e+06
3.46278e+06
3.46586e+06
3.46819e+06
3.47024e+06
3.47198e+06
3.4735e+06
3.47484e+06
3.47604e+06
3.47713e+06
3.47812e+06
3.47903e+06
3.47987e+06
3.48064e+06
3.48136e+06
3.48202e+06
3.48264e+06
3.48321e+06
3.48374e+06
3.48424e+06
3.4847e+06
3.48513e+06
3.48552e+06
3.48589e+06
3.48622e+06
3.44335e+06
3.45315e+06
3.44481e+06
3.45174e+06
3.44188e+06
3.44588e+06
3.44212e+06
3.45789e+06
3.47e+06
3.4766e+06
3.47681e+06
3.47882e+06
3.47771e+06
3.46875e+06
3.44854e+06
3.45049e+06
3.45666e+06
3.46023e+06
3.46382e+06
3.46651e+06
3.46888e+06
3.47085e+06
3.47256e+06
3.47406e+06
3.47538e+06
3.47656e+06
3.47763e+06
3.4786e+06
3.47949e+06
3.4803e+06
3.48105e+06
3.48174e+06
3.48238e+06
3.48297e+06
3.48352e+06
3.48403e+06
3.4845e+06
3.48494e+06
3.48534e+06
3.48572e+06
3.48606e+06
3.4568e+06
3.46514e+06
3.45787e+06
3.46484e+06
3.45961e+06
3.46513e+06
3.45839e+06
3.46288e+06
3.46632e+06
3.4685e+06
3.4682e+06
3.47026e+06
3.46949e+06
3.46211e+06
3.44421e+06
3.4475e+06
3.45386e+06
3.45804e+06
3.46197e+06
3.46499e+06
3.46762e+06
3.4698e+06
3.47168e+06
3.47331e+06
3.47475e+06
3.47602e+06
3.47716e+06
3.47819e+06
3.47912e+06
3.47998e+06
3.48076e+06
3.48148e+06
3.48214e+06
3.48275e+06
3.48331e+06
3.48383e+06
3.48431e+06
3.48476e+06
3.48517e+06
3.48555e+06
3.4859e+06
3.46809e+06
3.47059e+06
3.46892e+06
3.47138e+06
3.47277e+06
3.47301e+06
3.46776e+06
3.46405e+06
3.4622e+06
3.46203e+06
3.46157e+06
3.46356e+06
3.46276e+06
3.4566e+06