/*--------------------------------*- C++ -*----------------------------------*\
| =========                 |                                                 |
| \\      /  F ield         | OpenFOAM: The Open Source CFD Toolbox           |
|  \\    /   O peration     | Version:  v2012                                 |
|   \\  /    A nd           | Website:  www.openfoam.com                      |
|    \\/     M anipulation  |                                                 |
\*---------------------------------------------------------------------------*/
FoamFile
{
    version     2.0;
    format      ascii;
    class       surfaceScalarField;
    location    "0.8";
    object      phi;
}
// * * * * * * * * * * * * * * * * * * * * * * * * * * * * * * * * * * * * * //

dimensions      [0 3 -1 0 0 0 0];
oriented        oriented;


internalField   nonuniform List<scalar> 
8162
(
-1.29102e-08
-1.14331e-07
-3.45119e-15
-1.43362e-08
-1.15976e-07
-3.21906e-15
-1.57777e-08
-1.17377e-07
-3.04091e-15
-1.72277e-08
-1.18407e-07
-2.87344e-15
-1.86788e-08
-1.18989e-07
-2.72778e-15
-2.01234e-08
-1.19024e-07
-2.6389e-15
-2.15535e-08
-1.18445e-07
-2.51278e-15
-2.29607e-08
-1.17182e-07
-2.40732e-15
-2.43364e-08
-1.15161e-07
-2.31855e-15
-2.56717e-08
-1.12345e-07
-2.23094e-15
-2.69567e-08
-1.08653e-07
-2.08777e-15
-2.81815e-08
-1.04042e-07
-2.16604e-15
-2.93355e-08
-9.84558e-08
-1.98792e-15
-3.04076e-08
-9.18382e-08
-1.85888e-15
-3.13858e-08
-8.4139e-08
-1.73961e-15
-3.22577e-08
-7.53092e-08
-1.62311e-15
-3.30101e-08
-6.53075e-08
-1.51936e-15
-3.36294e-08
-5.40936e-08
-1.41667e-15
-3.41018e-08
-4.16408e-08
-1.32422e-15
-2.7931e-08
-1.23237e-15
-1.13781e-08
-1.09387e-07
-4.08254e-15
-1.27564e-08
-1.11168e-07
-3.52874e-15
-1.41578e-08
-1.1293e-07
-3.28171e-15
-1.55776e-08
-1.14557e-07
-3.04278e-15
-1.70101e-08
-1.15944e-07
-2.98576e-15
-1.84488e-08
-1.16968e-07
-2.8767e-15
-1.98872e-08
-1.17551e-07
-2.7716e-15
-2.13178e-08
-1.17593e-07
-2.70222e-15
-2.2733e-08
-1.17029e-07
-2.57304e-15
-2.41247e-08
-1.1579e-07
-2.45542e-15
-2.54844e-08
-1.13802e-07
-2.3567e-15
-2.68032e-08
-1.11026e-07
-2.26171e-15
-2.80715e-08
-1.07384e-07
-2.10606e-15
-2.92789e-08
-1.02834e-07
-2.22401e-15
-3.04152e-08
-9.73195e-08
-2.02918e-15
-3.1469e-08
-9.07844e-08
-1.89491e-15
-3.24281e-08
-8.31799e-08
-1.77004e-15
-3.32802e-08
-7.44573e-08
-1.64889e-15
-3.40117e-08
-6.4576e-08
-1.54055e-15
-3.46088e-08
-5.34963e-08
-1.43493e-15
-3.50576e-08
-4.1192e-08
-1.33978e-15
-2.76453e-08
-1.24585e-15
2.77308e-11
-7.50206e-09
4.5044e-16
2.59328e-10
-2.34058e-08
2.15226e-15
6.27501e-10
-4.63948e-08
9.85285e-15
-6.7815e-10
-6.46446e-08
-7.02354e-15
-3.06617e-09
-6.82614e-08
-1.05631e-14
-5.24145e-09
-7.71539e-08
4.60418e-16
-6.57935e-09
-9.12108e-08
1.38492e-15
-6.71866e-09
-1.02857e-07
-1.2233e-14
-4.57808e-09
-1.0354e-07
-2.26546e-14
-8.73181e-08
-2.2806e-14
-5.82108e-09
-9.82283e-08
-7.59131e-15
-7.186e-09
-1.01277e-07
-6.55312e-15
-8.5041e-09
-1.03203e-07
-5.89943e-15
-9.82554e-09
-1.04769e-07
-5.15354e-15
-1.11651e-08
-1.06341e-07
-5.86057e-15
-1.25273e-08
-1.08024e-07
-4.90389e-15
-1.39114e-08
-1.09784e-07
-4.55568e-15
-1.53148e-08
-1.11526e-07
-4.15903e-15
-1.67332e-08
-1.13138e-07
-3.37124e-15
-1.81616e-08
-1.14516e-07
-3.15059e-15
-1.95943e-08
-1.15536e-07
-2.97501e-15
-2.10248e-08
-1.1612e-07
-2.84449e-15
-2.24462e-08
-1.16172e-07
-2.76812e-15
-2.3851e-08
-1.15625e-07
-2.6246e-15
-2.52314e-08
-1.1441e-07
-2.49492e-15
-2.6579e-08
-1.12454e-07
-2.38774e-15
-2.78849e-08
-1.0972e-07
-2.28883e-15
-2.91396e-08
-1.0613e-07
-2.13203e-15
-3.03328e-08
-1.01641e-07
-2.26625e-15
-3.14541e-08
-9.61982e-08
-2.06191e-15
-3.2492e-08
-8.97465e-08
-1.92332e-15
-3.34344e-08
-8.22374e-08
-1.79318e-15
-3.42687e-08
-7.36231e-08
-1.66706e-15
-3.49813e-08
-6.38634e-08
-1.55479e-15
-3.55582e-08
-5.29192e-08
-1.44641e-15
-3.59852e-08
-4.0765e-08
-1.34988e-15
-2.73832e-08
-1.25573e-15
2.41464e-11
-7.52622e-09
1.92885e-16
2.21079e-10
-2.36028e-08
-2.00731e-16
5.25869e-10
-4.66997e-08
-4.98574e-15
-1.14009e-09
-6.29785e-08
1.19711e-15
-3.93736e-09
-6.54641e-08
-1.59154e-14
-6.34028e-09
-7.4751e-08
-1.65437e-14
-7.85031e-09
-8.97007e-08
-4.0206e-15
-7.89444e-09
-1.02813e-07
-1.39272e-15
-5.53915e-09
-1.05895e-07
3.39714e-15
-1.46922e-09
-9.1388e-08
3.21819e-15
-3.25474e-09
-8.50441e-08
-6.93303e-15
-4.98203e-09
-9.18148e-08
-6.8215e-15
-6.59087e-09
-9.66195e-08
-6.55132e-15
-8.0574e-09
-9.98107e-08
-6.38089e-15
-9.43288e-09
-1.01828e-07
-5.71501e-15
-1.0793e-08
-1.03409e-07
-5.0661e-15
-1.21585e-08
-1.04975e-07
-5.96679e-15
-1.35401e-08
-1.06643e-07
-4.38494e-15
-1.49381e-08
-1.08386e-07
-4.16983e-15
-1.63515e-08
-1.10113e-07
-3.9687e-15
-1.77767e-08
-1.11713e-07
-3.27064e-15
-1.92092e-08
-1.13083e-07
-3.20337e-15
-2.06435e-08
-1.14101e-07
-3.08766e-15
-2.20736e-08
-1.1469e-07
-2.95749e-15
-2.34926e-08
-1.14753e-07
-2.86744e-15
-2.48934e-08
-1.14224e-07
-2.70173e-15
-2.62683e-08
-1.13035e-07
-2.55121e-15
-2.76091e-08
-1.11113e-07
-2.42937e-15
-2.8907e-08
-1.08422e-07
-2.32198e-15
-3.01526e-08
-1.04884e-07
-2.15251e-15
-3.13356e-08
-1.00458e-07
-2.29811e-15
-3.24455e-08
-9.50882e-08
-2.09023e-15
-3.34709e-08
-8.87211e-08
-1.94814e-15
-3.43996e-08
-8.13087e-08
-1.81359e-15
-3.52189e-08
-7.28039e-08
-1.68306e-15
-3.5915e-08
-6.31673e-08
-1.56743e-15
-3.64739e-08
-5.23602e-08
-1.45646e-15
-3.68813e-08
-4.03576e-08
-1.35885e-15
-2.71424e-08
-1.26487e-15
2.00716e-11
-7.5463e-09
-3.84426e-16
1.79208e-10
-2.37619e-08
-2.21931e-16
4.29288e-10
-4.69498e-08
6.26458e-15
-1.62529e-09
-6.0924e-08
-1.4675e-14
-4.70912e-09
-6.23803e-08
-1.2323e-14
-7.17351e-09
-7.22865e-08
-3.94386e-16
-8.59795e-09
-8.82762e-08
5.11781e-15
-8.16752e-09
-1.03243e-07
-1.31196e-15
-5.33747e-09
-1.08725e-07
2.20772e-15
-9.90453e-10
-9.57349e-08
1.90824e-14
-3.38445e-09
-8.26501e-08
-3.90742e-15
-5.37379e-09
-8.98255e-08
-6.98325e-15
-7.1316e-09
-9.48616e-08
-7.30272e-15
-8.71694e-09
-9.82253e-08
-7.88826e-15
-1.0163e-08
-1.00382e-07
-5.85411e-15
-1.15731e-08
-1.01998e-07
-5.43127e-15
-1.29755e-08
-1.03573e-07
-5.99394e-15
-1.43873e-08
-1.05231e-07
-4.45781e-15
-1.58103e-08
-1.06963e-07
-4.25199e-15
-1.72447e-08
-1.08678e-07
-3.93977e-15
-1.86874e-08
-1.1027e-07
-3.01109e-15
-2.01342e-08
-1.11636e-07
-3.0217e-15
-2.15799e-08
-1.12656e-07
-3.02761e-15
-2.30186e-08
-1.13251e-07
-2.94785e-15
-2.44437e-08
-1.13328e-07
-2.88035e-15
-2.58484e-08
-1.12819e-07
-2.71811e-15
-2.72249e-08
-1.11658e-07
-2.56976e-15
-2.85655e-08
-1.09773e-07
-2.44864e-15
-2.98613e-08
-1.07126e-07
-2.34457e-15
-3.11031e-08
-1.03643e-07
-2.17058e-15
-3.22806e-08
-9.928e-08
-2.32788e-15
-3.33836e-08
-9.39852e-08
-2.11565e-15
-3.44004e-08
-8.77043e-08
-1.97009e-15
-3.5319e-08
-8.03902e-08
-1.83179e-15
-3.61265e-08
-7.19966e-08
-1.69762e-15
-3.68092e-08
-6.24846e-08
-1.5791e-15
-3.73528e-08
-5.18164e-08
-1.46581e-15
-3.77431e-08
-3.99674e-08
-1.36722e-15
-3.79645e-08
-2.69209e-08
-1.2737e-15
-1.26749e-08
-1.1753e-15
1.58609e-11
-7.56218e-09
-2.52092e-16
1.38593e-10
-2.38846e-08
4.57724e-16
3.26206e-10
-4.71374e-08
8.47772e-15
-2.11806e-09
-5.84798e-08
-1.53339e-14
-5.42416e-09
-5.90742e-08
-1.73975e-14
-7.95004e-09
-6.97607e-08
-1.53053e-14
-9.17945e-09
-8.70469e-08
-1.47859e-14
-8.12767e-09
-1.04295e-07
-7.6635e-15
-4.84868e-09
-1.12004e-07
1.85165e-15
-6.11772e-10
-9.99716e-08
2.37668e-14
-3.21458e-09
-8.00473e-08
-2.2527e-15
-5.5119e-09
-8.75282e-08
-8.38875e-15
-7.42377e-09
-9.29497e-08
-7.87517e-15
-9.14065e-09
-9.65085e-08
-8.34833e-15
-1.06717e-08
-9.88506e-08
-5.98968e-15
-1.21434e-08
-1.00527e-07
-5.66768e-15
-1.35955e-08
-1.02121e-07
-5.9686e-15
-1.50499e-08
-1.03777e-07
-4.63977e-15
-1.65104e-08
-1.05502e-07
-4.08006e-15
-1.79783e-08
-1.07211e-07
-3.89734e-15
-1.94505e-08
-1.08798e-07
-3.06697e-15
-2.09231e-08
-1.10164e-07
-3.15836e-15
-2.2391e-08
-1.11188e-07
-3.17917e-15
-2.38486e-08
-1.11794e-07
-3.06735e-15
-2.52893e-08
-1.11887e-07
-2.96847e-15
-2.67066e-08
-1.11402e-07
-2.78002e-15
-2.80929e-08
-1.10272e-07
-2.61345e-15
-2.94405e-08
-1.08425e-07
-2.48011e-15
-3.07409e-08
-1.05826e-07
-2.37026e-15
-3.19849e-08
-1.02399e-07
-2.18874e-15
-3.31625e-08
-9.81023e-08
-2.35729e-15
-3.42633e-08
-9.28843e-08
-2.13719e-15
-3.52761e-08
-8.66916e-08
-1.98806e-15
-3.61885e-08
-7.94777e-08
-1.84721e-15
-3.69879e-08
-7.11973e-08
-1.7104e-15
-3.76604e-08
-6.18121e-08
-1.58974e-15
-3.81918e-08
-5.12848e-08
-1.47459e-15
-3.85678e-08
-3.95915e-08
-1.3752e-15
-3.87726e-08
-2.67159e-08
-1.28196e-15
-1.26562e-08
-1.18481e-15
1.16435e-11
-7.57383e-09
2.36224e-16
1.0113e-10
-2.39741e-08
-2.04431e-15
1.84214e-10
-4.72204e-08
2.92459e-15
-2.68921e-09
-5.56064e-08
-1.35415e-14
-6.28818e-09
-5.54752e-08
-9.26254e-15
-9.00567e-09
-6.70432e-08
-1.97326e-14
-1.00428e-08
-8.60099e-08
-1.63066e-14
-8.39006e-09
-1.05948e-07
-1.27049e-14
-4.79676e-09
-1.15597e-07
-7.78525e-15
-8.27975e-10
-1.0394e-07
-7.75014e-15
-2.74008e-09
-7.81351e-08
-2.48573e-14
-5.36676e-09
-8.49015e-08
-1.10258e-14
-7.45215e-09
-9.08643e-08
-6.48566e-15
-9.31212e-09
-9.46485e-08
-7.16478e-15
-1.09476e-08
-9.72151e-08
-4.96042e-15
-1.24935e-08
-9.89808e-08
-4.92781e-15
-1.40091e-08
-1.00605e-07
-6.20497e-15
-1.5519e-08
-1.02267e-07
-5.1219e-15
-1.70303e-08
-1.03991e-07
-4.42827e-15
-1.85441e-08
-1.05697e-07
-4.15131e-15
-2.00581e-08
-1.07284e-07
-3.08313e-15
-2.15683e-08
-1.08654e-07
-3.11917e-15
-2.30696e-08
-1.09687e-07
-3.15931e-15
-2.45565e-08
-1.10307e-07
-3.04776e-15
-2.60227e-08
-1.10421e-07
-2.95111e-15
-2.74616e-08
-1.09963e-07
-2.76694e-15
-2.88661e-08
-1.08867e-07
-2.60971e-15
-3.02284e-08
-1.07063e-07
-2.48244e-15
-3.15405e-08
-1.04514e-07
-2.37821e-15
-3.27932e-08
-1.01146e-07
-2.19444e-15
-3.39766e-08
-9.69187e-08
-2.37748e-15
-3.50807e-08
-9.17802e-08
-2.15235e-15
-3.60941e-08
-8.56781e-08
-2.00161e-15
-3.70048e-08
-7.85671e-08
-1.8596e-15
-3.78e-08
-7.04022e-08
-1.72148e-15
-3.8466e-08
-6.11461e-08
-1.59952e-15
-3.89885e-08
-5.07621e-08
-1.48313e-15
-3.93531e-08
-3.92269e-08
-1.38315e-15
-3.95442e-08
-2.65247e-08
-1.29028e-15
-3.95468e-08
-1.26539e-08
-1.19298e-15
2.3606e-09
-1.08592e-15
7.53163e-12
-7.58135e-09
2.12184e-15
6.78866e-11
-2.40345e-08
-6.81548e-16
-4.6716e-11
-4.71058e-08
7.36704e-15
-3.42415e-09
-5.22291e-08
-1.47922e-14
-7.42269e-09
-5.14766e-08
-7.68087e-15
-1.04013e-08
-6.40645e-08
-4.39942e-15
-1.11797e-08
-8.52316e-08
-2.17344e-14
-8.88333e-09
-1.08244e-07
-1.27117e-14
-4.83039e-09
-1.1965e-07
-1.53257e-14
-7.65206e-10
-1.08006e-07
-7.58296e-14
-1.67818e-09
-7.7222e-08
-2.47926e-14
-4.88023e-09
-8.16995e-08
-8.17541e-15
-7.20242e-09
-8.85421e-08
-7.68886e-15
-9.223e-09
-9.26279e-08
-6.74384e-15
-1.09892e-08
-9.5449e-08
-4.43293e-15
-1.26242e-08
-9.73458e-08
-5.10296e-15
-1.42182e-08
-9.9011e-08
-6.09965e-15
-1.5796e-08
-1.00689e-07
-5.28647e-15
-1.73703e-08
-1.02417e-07
-4.43158e-15
-1.89419e-08
-1.04125e-07
-4.17554e-15
-2.05092e-08
-1.05717e-07
-3.07915e-15
-2.20679e-08
-1.07095e-07
-3.09973e-15
-2.36133e-08
-1.08141e-07
-3.14705e-15
-2.51396e-08
-1.08781e-07
-3.04581e-15
-2.66407e-08
-1.0892e-07
-2.95638e-15
-2.81102e-08
-1.08493e-07
-2.77609e-15
-2.95411e-08
-1.07436e-07
-2.62054e-15
-3.09259e-08
-1.05678e-07
-2.49133e-15
-3.22567e-08
-1.03183e-07
-2.38405e-15
-3.35246e-08
-9.98782e-08
-2.19101e-15
-3.47199e-08
-9.57233e-08
-2.38888e-15
-3.58326e-08
-9.06674e-08
-2.16184e-15
-3.68517e-08
-8.46591e-08
-2.01059e-15
-3.77651e-08
-7.76536e-08
-1.86891e-15
-3.85603e-08
-6.96071e-08
-1.73079e-15
-3.92235e-08
-6.04828e-08
-1.60851e-15
-3.97406e-08
-5.02449e-08
-1.49161e-15
-4.00971e-08
-3.88705e-08
-1.39135e-15
-4.02773e-08
-2.63443e-08
-1.29915e-15
-4.02664e-08
-1.2665e-08
-1.20174e-15
2.14231e-09
-1.09206e-15
3.55328e-12
-7.58489e-09
1.89745e-15
3.60508e-11
-2.4067e-08
-4.97073e-15
-4.10588e-10
-4.66592e-08
-5.15872e-15
-4.34477e-09
-4.82949e-08
9.61878e-17
-8.74485e-09
-4.70765e-08
-7.55209e-15
-1.18814e-08
-6.0928e-08
-1.66524e-14
-1.22296e-08
-8.48834e-08
-1.31905e-14
-9.12407e-09
-1.11349e-07
-1.46594e-14
-4.26254e-09
-1.24511e-07
-2.31516e-14
6.24022e-10
-1.12892e-07
-8.06932e-14
7.55197e-10
-7.73531e-08
-2.67432e-14
-3.96801e-09
-7.69764e-08
-1.33475e-14
-6.68083e-09
-8.58293e-08
-9.76292e-15
-8.88671e-09
-9.04221e-08
-7.18332e-15
-1.08107e-08
-9.3525e-08
-4.99093e-15
-1.25509e-08
-9.56055e-08
-5.07124e-15
-1.42361e-08
-9.73258e-08
-6.18588e-15
-1.58926e-08
-9.90325e-08
-5.12079e-15
-1.75401e-08
-1.00769e-07
-4.05952e-15
-1.91791e-08
-1.02486e-07
-3.99075e-15
-2.08092e-08
-1.04087e-07
-3.09522e-15
-2.24258e-08
-1.05478e-07
-3.13725e-15
-2.40244e-08
-1.06543e-07
-3.15468e-15
-2.5599e-08
-1.07206e-07
-3.02682e-15
-2.71436e-08
-1.07375e-07
-2.92836e-15
-2.86519e-08
-1.06985e-07
-2.75261e-15
-3.0117e-08
-1.05971e-07
-2.60819e-15
-3.15316e-08
-1.04264e-07
-2.48385e-15
-3.28879e-08
-1.01827e-07
-2.37641e-15
-3.41773e-08
-9.85889e-08
-2.16914e-15
-3.53902e-08
-9.45102e-08
-2.39145e-15
-3.6517e-08
-8.95405e-08
-2.16539e-15
-3.75467e-08
-8.36294e-08
-2.01509e-15
-3.84675e-08
-7.67329e-08
-1.87511e-15
-3.92669e-08
-6.88079e-08
-1.73854e-15
-3.99312e-08
-5.98185e-08
-1.61691e-15
-4.04464e-08
-4.97295e-08
-1.50032e-15
-4.0798e-08
-3.85188e-08
-1.40005e-15
-4.09705e-08
-2.61716e-08
-1.30869e-15
-4.09489e-08
-1.26869e-08
-1.211e-15
1.91038e-09
-1.09889e-15
-3.75238e-14
-7.58482e-09
4.50792e-15
3.45193e-12
-2.40705e-08
-3.49944e-15
-9.02338e-10
-4.57533e-08
1.34706e-15
-5.36029e-09
-4.3837e-08
6.31337e-16
-1.00347e-08
-4.24021e-08
-8.7424e-15
-1.3152e-08
-5.78107e-08
-2.64231e-14
-1.29586e-08
-8.50768e-08
-1.78417e-14
-8.97218e-09
-1.15336e-07
-3.75179e-14
-3.12509e-09
-1.30359e-07
-5.19147e-14
2.99784e-09
-1.19015e-07
-7.41609e-14
4.63133e-09
-7.89866e-08
-3.83925e-14
-2.55976e-09
-6.97854e-08
-1.55339e-14
-5.9261e-09
-8.2463e-08
-1.00456e-14
-8.34615e-09
-8.8002e-08
-7.2894e-15
-1.04453e-08
-9.14259e-08
-5.57649e-15
-1.23039e-08
-9.37469e-08
-4.01373e-15
-1.40878e-08
-9.55419e-08
-5.73087e-15
-1.58299e-08
-9.72904e-08
-4.63225e-15
-1.75569e-08
-9.90422e-08
-4.18698e-15
-1.92698e-08
-1.00773e-07
-4.21734e-15
-2.09693e-08
-1.02388e-07
-3.21675e-15
-2.26508e-08
-1.03797e-07
-3.13714e-15
-2.43095e-08
-1.04884e-07
-3.10914e-15
-2.59396e-08
-1.05576e-07
-2.98867e-15
-2.75349e-08
-1.0578e-07
-2.90272e-15
-2.9089e-08
-1.05431e-07
-2.73695e-15
-3.05951e-08
-1.04465e-07
-2.5997e-15
-3.2046e-08
-1.02813e-07
-2.47651e-15
-3.34341e-08
-1.00439e-07
-2.36889e-15
-3.47509e-08
-9.72722e-08
-2.14626e-15
-3.5987e-08
-9.32739e-08
-2.39875e-15
-3.71331e-08
-8.83944e-08
-2.16637e-15
-3.81782e-08
-8.25843e-08
-2.01601e-15
-3.91108e-08
-7.58004e-08
-1.87876e-15
-3.99184e-08
-6.80004e-08
-1.74492e-15
-4.05877e-08
-5.91492e-08
-1.62486e-15
-4.11045e-08
-4.92125e-08
-1.5092e-15
-4.14546e-08
-3.81688e-08
-1.40927e-15
-4.16224e-08
-2.60036e-08
-1.31889e-15
-4.15931e-08
-1.27165e-08
-1.22067e-15
1.66756e-09
-1.10634e-15
-3.21271e-12
-7.58157e-09
4.85536e-15
-3.39263e-11
-2.40398e-08
-2.68071e-15
-1.46625e-09
-4.4321e-08
-7.58253e-15
-6.30622e-09
-3.8997e-08
3.54734e-16
-1.10839e-08
-3.76244e-08
-1.96637e-14
-1.40999e-08
-5.47947e-08
-2.78014e-14
-1.34525e-08
-8.57242e-08
-2.36783e-14
-8.79331e-09
-1.19995e-07
-2.02648e-14
-2.15614e-09
-1.36996e-07
-3.81711e-14
4.75058e-09
-1.25922e-07
-3.61424e-14
8.23603e-09
-8.24721e-08
-5.31695e-14
-7.21359e-10
-6.08279e-08
6.54609e-15
-4.97047e-09
-7.82139e-08
-1.42045e-14
-7.65631e-09
-8.53162e-08
-7.26998e-15
-9.93485e-09
-8.91473e-08
-6.32746e-15
-1.19224e-08
-9.17593e-08
-5.07047e-15
-1.38055e-08
-9.36589e-08
-5.80214e-15
-1.56357e-08
-9.54602e-08
-5.17111e-15
-1.74435e-08
-9.72345e-08
-4.30589e-15
-1.9233e-08
-9.89837e-08
-4.10813e-15
-2.10051e-08
-1.00616e-07
-3.22619e-15
-2.27554e-08
-1.02046e-07
-3.12713e-15
-2.44789e-08
-1.03161e-07
-3.05964e-15
-2.61695e-08
-1.03885e-07
-2.94229e-15
-2.78207e-08
-1.04128e-07
-2.87573e-15
-2.94261e-08
-1.03826e-07
-2.72122e-15
-3.09788e-08
-1.02912e-07
-2.594e-15
-3.24715e-08
-1.0132e-07
-2.47059e-15
-3.38968e-08
-9.90137e-08
-2.36071e-15
-3.52462e-08
-9.59228e-08
-2.13879e-15
-3.65107e-08
-9.20093e-08
-2.41362e-15
-3.76807e-08
-8.72244e-08
-2.16382e-15
-3.87457e-08
-8.15193e-08
-2.01312e-15
-3.96943e-08
-7.48518e-08
-1.87983e-15
-4.05143e-08
-6.71806e-08
-1.75019e-15
-4.11922e-08
-5.84712e-08
-1.63251e-15
-4.17142e-08
-4.86904e-08
-1.51841e-15
-4.2066e-08
-3.78169e-08
-1.41903e-15
-4.22322e-08
-2.58373e-08
-1.32964e-15
-4.2198e-08
-1.2751e-08
-1.23064e-15
1.41657e-09
-1.11371e-15
-5.80466e-12
-7.57572e-09
4.74389e-15
-7.6222e-11
-2.39694e-08
-9.49789e-16
-1.99546e-09
-4.24018e-08
-7.47047e-15
-6.97759e-09
-3.40148e-08
2.2202e-16
-1.17077e-08
-3.28942e-08
-1.72291e-14
-1.46631e-08
-5.18393e-08
-2.49473e-14
-1.37856e-08
-8.66017e-08
-1.91214e-14
-8.8307e-09
-1.2495e-07
-1.02422e-14
-1.87586e-09
-1.43951e-07
-2.42822e-14
4.90231e-09
-1.327e-07
-7.17732e-15
9.84997e-09
-8.742e-08
-1.07961e-14
1.25794e-09
-5.22357e-08
6.71098e-15
-3.85487e-09
-7.31012e-08
-2.11579e-14
-6.87176e-09
-8.22993e-08
-7.34665e-15
-9.32218e-09
-8.66969e-08
-6.09023e-15
-1.14464e-08
-8.96351e-08
-5.68487e-15
-1.34237e-08
-9.16816e-08
-6.05849e-15
-1.53401e-08
-9.35438e-08
-5.39901e-15
-1.72257e-08
-9.53488e-08
-4.21108e-15
-1.90906e-08
-9.71188e-08
-3.87089e-15
-2.0935e-08
-9.87712e-08
-3.12189e-15
-2.27551e-08
-1.00226e-07
-3.12318e-15
-2.45452e-08
-1.0137e-07
-3.08809e-15
-2.62989e-08
-1.02132e-07
-2.9708e-15
-2.80095e-08
-1.02418e-07
-2.88693e-15
-2.967e-08
-1.02165e-07
-2.7192e-15
-3.12733e-08
-1.01309e-07
-2.58425e-15
-3.28122e-08
-9.97812e-08
-2.45565e-15
-3.42791e-08
-9.75469e-08
-2.34119e-15
-3.56656e-08
-9.45364e-08
-2.10222e-15
-3.69626e-08
-9.07122e-08
-2.40111e-15
-3.81608e-08
-8.60261e-08
-2.15026e-15
-3.92498e-08
-8.04302e-08
-2.00616e-15
-4.02183e-08
-7.38833e-08
-1.8791e-15
-4.10542e-08
-6.63448e-08
-1.75466e-15
-4.17443e-08
-5.77811e-08
-1.64009e-15
-4.22748e-08
-4.81597e-08
-1.52793e-15
-4.26316e-08
-3.74602e-08
-1.42921e-15
-4.27992e-08
-2.56695e-08
-1.34073e-15
-4.2763e-08
-1.27875e-08
-1.24067e-15
1.16015e-09
-1.12083e-15
-7.74243e-12
-7.56795e-09
4.55605e-15
-1.19188e-10
-2.3858e-08
-2.61239e-15
-2.36173e-09
-4.01593e-08
-1.06719e-14
-7.16479e-09
-2.92117e-08
-8.11302e-15
-1.16778e-08
-2.83812e-08
-2.24235e-14
-1.45911e-08
-4.8926e-08
-3.22681e-14
-1.36364e-08
-8.75564e-08
-5.89046e-15
-8.70739e-09
-1.29879e-07
-9.90322e-15
-1.99604e-09
-1.50662e-07
-2.46158e-14
3.98837e-09
-1.38685e-07
-3.16843e-14
9.33537e-09
-9.2767e-08
6.71819e-14
2.8482e-09
-4.57485e-08
3.09156e-15
-2.71022e-09
-6.75428e-08
-1.80542e-14
-6.05657e-09
-7.8953e-08
-7.06749e-15
-8.66135e-09
-8.40921e-08
-5.97103e-15
-1.09156e-08
-8.73809e-08
-4.75792e-15
-1.29781e-08
-8.9619e-08
-5.03654e-15
-1.49734e-08
-9.15484e-08
-4.02498e-15
-1.69301e-08
-9.33921e-08
-4.14686e-15
-1.88655e-08
-9.51834e-08
-3.96595e-15
-2.07787e-08
-9.6858e-08
-3.12705e-15
-2.26667e-08
-9.8338e-08
-3.0203e-15
-2.45227e-08
-9.95144e-08
-2.96158e-15
-2.634e-08
-1.00314e-07
-2.89507e-15
-2.81111e-08
-1.00647e-07
-2.85476e-15
-2.98287e-08
-1.00448e-07
-2.71052e-15
-3.14853e-08
-9.9652e-08
-2.58221e-15
-3.30734e-08
-9.81932e-08
-2.44709e-15
-3.45851e-08
-9.60352e-08
-2.3209e-15
-3.6012e-08
-9.31096e-08
-2.05702e-15
-3.73451e-08
-8.93789e-08
-2.33702e-15
-3.85751e-08
-8.4796e-08
-2.12605e-15
-3.96917e-08
-7.93137e-08
-1.99515e-15
-4.06835e-08
-7.28915e-08
-1.87664e-15
-4.15388e-08
-6.54897e-08
-1.75873e-15
-4.22443e-08
-5.70756e-08
-1.64779e-15
-4.27864e-08
-4.76174e-08
-1.53783e-15
-4.31511e-08
-3.70955e-08
-1.43965e-15
-4.3323e-08
-2.54974e-08
-1.35192e-15
-4.32875e-08
-1.28234e-08
-1.25049e-15
9.00957e-10
-1.12751e-15
-8.79594e-12
-7.55914e-09
1.2635e-15
-1.48439e-10
-2.37183e-08
1.86139e-15
-2.43539e-09
-3.78724e-08
-1.56747e-14
-6.64119e-09
-2.50059e-08
-8.7656e-15
-1.06311e-08
-2.43913e-08
-2.50349e-14
-1.33121e-08
-4.62449e-08
-1.06952e-14
-1.21893e-08
-8.86792e-08
-9.90538e-15
-7.48711e-09
-1.34581e-07
-7.39292e-15
-1.56225e-09
-1.56587e-07
-2.08862e-14
3.23229e-09
-1.43479e-07
-4.09895e-14
7.68742e-09
-9.72222e-08
6.89485e-14
3.62251e-09
-4.16836e-08
2.5145e-14
-1.68208e-09
-6.22382e-08
-1.40803e-14
-5.25727e-09
-7.53778e-08
-6.16762e-15
-7.99752e-09
-8.13518e-08
-4.98304e-15
-1.03609e-08
-8.50175e-08
-4.56505e-15
-1.25001e-08
-8.74799e-08
-5.41885e-15
-1.4563e-08
-8.94855e-08
-4.29771e-15
-1.65819e-08
-9.13732e-08
-4.11564e-15
-1.858e-08
-9.31853e-08
-3.7382e-15
-2.05562e-08
-9.48819e-08
-3.036e-15
-2.25074e-08
-9.63867e-08
-3.02662e-15
-2.44264e-08
-9.75954e-08
-2.98736e-15
-2.63055e-08
-9.84352e-08
-2.9096e-15
-2.81365e-08
-9.88158e-08
-2.84424e-15
-2.99115e-08
-9.86726e-08
-2.68534e-15
-3.16223e-08
-9.79411e-08
-2.55213e-15
-3.32611e-08
-9.65544e-08
-2.41527e-15
-3.48198e-08
-9.44766e-08
-2.28551e-15
-3.62896e-08
-9.16398e-08
-2.01028e-15
-3.76615e-08
-8.80069e-08
-2.29274e-15
-3.89261e-08
-8.35313e-08
-2.10169e-15
-4.00731e-08
-7.81667e-08
-1.98311e-15
-4.10913e-08
-7.18733e-08
-1.87389e-15
-4.19688e-08
-6.46123e-08
-1.76288e-15
-4.26927e-08
-5.63517e-08
-1.65573e-15
-4.32492e-08
-4.70607e-08
-1.548e-15
-4.36247e-08
-3.67201e-08
-1.45017e-15
-4.38036e-08
-2.53183e-08
-1.36297e-15
-4.37714e-08
-1.28558e-08
-1.25988e-15
6.41556e-10
-1.13358e-15
-8.8219e-12
-7.55032e-09
5.13862e-16
-1.48051e-10
-2.35791e-08
2.9437e-15
-2.14198e-09
-3.58785e-08
-1.40349e-14
-5.23811e-09
-2.19097e-08
-1.08353e-14
-8.17466e-09
-2.14547e-08
-6.21805e-15
-1.01247e-08
-4.42948e-08
-8.84051e-15
-8.46659e-09
-9.03374e-08
-1.11388e-14
-4.14985e-09
-1.38898e-07
-1.25141e-14
4.73578e-10
-1.6121e-07
-1.6669e-14
3.65343e-09
-1.46659e-07
-2.95582e-14
6.20122e-09
-9.97701e-08
-6.79363e-15
3.78336e-09
-3.92656e-08
1.85555e-14
-8.27134e-10
-5.76276e-08
3.03386e-15
-4.49223e-09
-7.17127e-08
-3.76394e-15
-7.34777e-09
-7.84963e-08
-3.9179e-15
-9.79899e-09
-8.25662e-08
-4.34971e-15
-1.20101e-08
-8.52687e-08
-4.89261e-15
-1.41296e-08
-8.73661e-08
-4.2036e-15
-1.62021e-08
-8.93006e-08
-3.721e-15
-1.8254e-08
-9.11334e-08
-3.31937e-15
-2.02857e-08
-9.28503e-08
-2.84374e-15
-2.22941e-08
-9.43783e-08
-2.91225e-15
-2.42711e-08
-9.56184e-08
-2.90263e-15
-2.62085e-08
-9.64978e-08
-2.85845e-15
-2.8097e-08
-9.69272e-08
-2.81065e-15
-2.9928e-08
-9.68416e-08
-2.66284e-15
-3.16926e-08
-9.61764e-08
-2.53134e-15
-3.33825e-08
-9.48646e-08
-2.38942e-15
-3.49889e-08
-9.28702e-08
-2.25161e-15
-3.6503e-08
-9.01258e-08
-1.97785e-15
-3.79154e-08
-8.65944e-08
-2.253e-15
-3.92167e-08
-8.223e-08
-2.07641e-15
-4.03964e-08
-7.69871e-08
-1.97036e-15
-4.14433e-08
-7.08264e-08
-1.87098e-15
-4.23456e-08
-6.37101e-08
-1.76747e-15
-4.30903e-08
-5.5607e-08
-1.66404e-15
-4.36639e-08
-4.64869e-08
-1.55841e-15
-4.40526e-08
-3.63315e-08
-1.46064e-15
-4.4241e-08
-2.51296e-08
-1.37364e-15
-4.42148e-08
-1.28823e-08
-1.26864e-15
3.84397e-10
-1.13893e-15
-7.69774e-12
-7.54266e-09
-4.1472e-15
-1.09334e-10
-2.34774e-08
2.07561e-15
-1.52675e-09
-3.44612e-08
-2.05154e-14
-3.02378e-09
-2.04126e-08
1.14977e-14
-4.24655e-09
-2.02319e-08
-1.01931e-14
-4.70219e-09
-4.38392e-08
-2.01032e-14
-2.036e-09
-9.30036e-08
-1.81401e-14
1.70639e-09
-1.4264e-07
-3.22851e-15
4.51866e-09
-1.64023e-07
-1.1082e-14
5.50734e-09
-1.47648e-07
-1.19025e-14
5.6227e-09
-9.98853e-08
-7.23959e-14
3.82239e-09
-3.74654e-08
-3.8314e-14
-1.61117e-10
-5.36441e-08
2.27618e-15
-3.79132e-09
-6.80825e-08
-2.51838e-15
-6.72672e-09
-7.55609e-08
-3.36871e-15
-9.24719e-09
-8.00458e-08
-4.19189e-15
-1.15246e-08
-8.29913e-08
-4.17104e-15
-1.3691e-08
-8.51996e-08
-3.79261e-15
-1.58088e-08
-8.71828e-08
-3.93076e-15
-1.79051e-08
-8.90371e-08
-3.64787e-15
-1.9984e-08
-9.07715e-08
-3.07382e-15
-2.20421e-08
-9.23201e-08
-2.93896e-15
-2.40711e-08
-9.35894e-08
-2.82148e-15
-2.60617e-08
-9.45072e-08
-2.74546e-15
-2.80039e-08
-9.4985e-08
-2.69817e-15
-2.98881e-08
-9.49574e-08
-2.57139e-15
-3.17047e-08
-9.43597e-08
-2.4609e-15
-3.34446e-08
-9.31248e-08
-2.33494e-15
-3.50987e-08
-9.12163e-08
-2.20481e-15
-3.66574e-08
-8.85671e-08
-1.95129e-15
-3.81112e-08
-8.51405e-08
-2.21646e-15
-3.94504e-08
-8.08908e-08
-2.05407e-15
-4.06643e-08
-7.57731e-08
-1.95962e-15
-4.17417e-08
-6.9749e-08
-1.8694e-15
-4.26708e-08
-6.27812e-08
-1.77292e-15
-4.34385e-08
-5.48392e-08
-1.67282e-15
-4.40314e-08
-4.58938e-08
-1.56891e-15
-4.44356e-08
-3.59274e-08
-1.4709e-15
-4.46358e-08
-2.49292e-08
-1.38374e-15
-4.46177e-08
-1.29008e-08
-1.27664e-15
1.31778e-10
-1.1435e-15
-5.61944e-12
-7.53704e-09
1.12827e-15
-4.73559e-11
-2.34356e-08
6.88199e-15
-8.08032e-10
-3.37005e-08
-9.42755e-15
-5.58132e-10
-2.06625e-08
1.52975e-14
3.35593e-10
-2.11256e-08
-8.00221e-15
2.21129e-09
-4.5715e-08
-3.31585e-14
6.1811e-09
-9.69732e-08
-8.43222e-15
9.22385e-09
-1.45683e-07
-1.54595e-14
9.78572e-09
-1.64585e-07
-1.15337e-14
8.11427e-09
-1.45976e-07
1.00029e-14
5.71997e-09
-9.74909e-08
-1.13761e-13
3.78842e-09
-3.55341e-08
-8.79692e-14
2.92299e-10
-5.01479e-08
4.98681e-16
-3.19889e-09
-6.45913e-08
-2.22097e-15
-6.15818e-09
-7.26016e-08
-3.40671e-15
-8.72751e-09
-7.74764e-08
-4.47813e-15
-1.1059e-08
-8.06599e-08
-3.93966e-15
-1.32635e-08
-8.29951e-08
-3.29242e-15
-1.54174e-08
-8.50289e-08
-3.06081e-15
-1.75487e-08
-8.69057e-08
-3.00983e-15
-1.96659e-08
-8.86544e-08
-2.89174e-15
-2.17655e-08
-9.02205e-08
-2.90305e-15
-2.38393e-08
-9.15157e-08
-2.82188e-15
-2.5877e-08
-9.24695e-08
-2.73802e-15
-2.78679e-08
-9.29941e-08
-2.66461e-15
-2.98014e-08
-9.30239e-08
-2.53175e-15
-3.16671e-08
-9.24939e-08
-2.41908e-15
-3.3455e-08
-9.13369e-08
-2.2929e-15
-3.51553e-08
-8.9516e-08
-2.16116e-15
-3.67582e-08
-8.69643e-08
-1.92025e-15
-3.82533e-08
-8.36451e-08
-2.18126e-15
-3.96309e-08
-7.95132e-08
-2.0329e-15
-4.088e-08
-7.45241e-08
-1.95007e-15
-4.19892e-08
-6.86398e-08
-1.86878e-15
-4.29465e-08
-6.1824e-08
-1.7791e-15
-4.37389e-08
-5.40468e-08
-1.68192e-15
-4.43528e-08
-4.52797e-08
-1.57937e-15
-4.47744e-08
-3.55058e-08
-1.48081e-15
-4.49885e-08
-2.47149e-08
-1.3931e-15
-4.49807e-08
-1.29089e-08
-1.28377e-15
-1.14176e-10
-1.14726e-15
-3.6446e-12
-7.53342e-09
-2.27515e-15
4.14235e-12
-2.34434e-08
-2.06197e-15
-2.64388e-10
-3.3432e-08
-1.61036e-14
1.25884e-09
-2.21858e-08
2.27526e-14
3.96028e-09
-2.38271e-08
-1.5598e-14
8.59626e-09
-5.0351e-08
-1.99356e-14
1.40357e-08
-1.02413e-07
-8.5845e-15
1.63135e-08
-1.47961e-07
-1.63369e-14
1.44998e-08
-1.62771e-07
-1.34811e-14
1.02249e-08
-1.41701e-07
9.49563e-15
5.71371e-09
-9.29795e-08
-1.25859e-13
3.41319e-09
-3.32337e-08
-9.11076e-14
4.9946e-10
-4.72341e-08
5.569e-15
-2.74804e-09
-6.13438e-08
-2.06273e-15
-5.6666e-09
-6.9683e-08
-2.9582e-15
-8.25882e-09
-7.48842e-08
-4.33152e-15
-1.06266e-08
-7.8292e-08
-3.44785e-15
-1.28599e-08
-8.07618e-08
-3.11918e-15
-1.50402e-08
-8.28487e-08
-3.22566e-15
-1.71975e-08
-8.47484e-08
-3.28398e-15
-1.93439e-08
-8.6508e-08
-3.06672e-15
-2.14766e-08
-8.80878e-08
-2.88121e-15
-2.35873e-08
-8.9405e-08
-2.71087e-15
-2.56654e-08
-9.03914e-08
-2.60101e-15
-2.76992e-08
-9.09603e-08
-2.53334e-15
-2.96772e-08
-9.1046e-08
-2.43032e-15
-3.15879e-08
-9.0583e-08
-2.34423e-15
-3.34208e-08
-8.95041e-08
-2.2382e-15
-3.51653e-08
-8.77716e-08
-2.11615e-15
-3.68108e-08
-8.53189e-08
-1.89137e-15
-3.83465e-08
-8.21092e-08
-2.1536e-15
-3.97622e-08
-7.80974e-08
-2.01779e-15
-4.10467e-08
-7.32396e-08
-1.94429e-15
-4.21883e-08
-6.74983e-08
-1.87029e-15
-4.31748e-08
-6.08376e-08
-1.78622e-15
-4.39931e-08
-5.32285e-08
-1.69126e-15
-4.46295e-08
-4.46431e-08
-1.58952e-15
-4.50702e-08
-3.50651e-08
-1.49008e-15
-4.53e-08
-2.4485e-08
-1.40158e-15
-4.53042e-08
-1.2905e-08
-1.28996e-15
-3.51526e-10
-1.1502e-15
-2.14757e-12
-7.5313e-09
-2.41607e-15
2.21523e-11
-2.34677e-08
-2.50383e-16
-2.95839e-11
-3.33803e-08
-1.08459e-14
1.86792e-09
-2.40832e-08
2.64044e-14
5.57214e-09
-2.75314e-08
-1.46512e-14
1.28373e-08
-5.76163e-08
-1.45068e-14
1.94806e-08
-1.09056e-07
-1.65224e-14
2.07901e-08
-1.4927e-07
-7.41105e-15
1.69994e-08
-1.5898e-07
3.61773e-15
1.08416e-08
-1.35543e-07
-5.55249e-15
5.04861e-09
-8.71863e-08
-1.12335e-13
2.65228e-09
-3.08376e-08
-9.97416e-14
4.70036e-10
-4.50519e-08
-4.17188e-17
-2.44439e-09
-5.84294e-08
-2.39607e-15
-5.26556e-09
-6.68618e-08
-2.81304e-15
-7.85131e-09
-7.22985e-08
-4.18243e-15
-1.02362e-08
-7.59071e-08
-3.23999e-15
-1.24886e-08
-7.85094e-08
-3.2016e-15
-1.46861e-08
-8.06512e-08
-2.90305e-15
-1.68609e-08
-8.25736e-08
-2.93556e-15
-1.9028e-08
-8.4341e-08
-2.89045e-15
-2.11853e-08
-8.59304e-08
-2.79274e-15
-2.33253e-08
-8.7265e-08
-2.69174e-15
-2.54365e-08
-8.82801e-08
-2.58618e-15
-2.75068e-08
-8.889e-08
-2.50264e-15
-2.95237e-08
-8.90291e-08
-2.3933e-15
-3.1475e-08
-8.86316e-08
-2.30388e-15
-3.33491e-08
-8.763e-08
-2.19856e-15
-3.51347e-08
-8.5986e-08
-2.0762e-15
-3.68206e-08
-8.36331e-08
-1.8599e-15
-3.83954e-08
-8.05342e-08
-2.12789e-15
-3.98484e-08
-7.66444e-08
-2.00422e-15
-4.11679e-08
-7.19201e-08
-1.93994e-15
-4.2342e-08
-6.63242e-08
-1.87274e-15
-4.33582e-08
-5.98215e-08
-1.79372e-15
-4.42032e-08
-5.23835e-08
-1.70044e-15
-4.48632e-08
-4.39829e-08
-1.59911e-15
-4.53243e-08
-3.46041e-08
-1.49855e-15
-4.55711e-08
-2.4238e-08
-1.40905e-15
-4.5589e-08
-1.28873e-08
-1.29513e-15
-5.78538e-10
-1.15238e-15
-1.20219e-12
-7.53011e-09
-1.75172e-15
1.01995e-11
-2.34791e-08
-2.27674e-15
-5.35761e-11
-3.33165e-08
-1.30512e-14
1.50308e-09
-2.56399e-08
1.96374e-14
5.87572e-09
-3.19041e-08
-9.98141e-15
1.51138e-08
-6.68542e-08
1.19582e-14
2.18108e-08
-1.15753e-07
-2.23412e-14
2.19284e-08
-1.49388e-07
-3.53016e-15
1.69321e-08
-1.53984e-07
-4.71803e-15
9.94219e-09
-1.28554e-07
-1.00627e-14
3.83389e-09
-8.10779e-08
-9.52126e-14
1.78471e-09
-2.87886e-08
-1.0199e-13
2.93138e-10
-4.35602e-08
4.49869e-15
-2.26658e-09
-5.58696e-08
-1.21466e-15
-4.95414e-09
-6.41743e-08
-2.39444e-15
-7.50686e-09
-6.97457e-08
-3.75534e-15
-9.89163e-09
-7.35224e-08
-2.74344e-15
-1.2154e-08
-7.6247e-08
-3.1155e-15
-1.43608e-08
-7.84444e-08
-2.68978e-15
-1.65458e-08
-8.03886e-08
-2.82543e-15
-1.87256e-08
-8.21612e-08
-2.87048e-15
-2.08999e-08
-8.37562e-08
-2.76134e-15
-2.30613e-08
-8.51036e-08
-2.6522e-15
-2.51985e-08
-8.61429e-08
-2.53186e-15
-2.72986e-08
-8.67899e-08
-2.44179e-15
-2.93485e-08
-8.69792e-08
-2.34271e-15
-3.13352e-08
-8.66448e-08
-2.26372e-15
-3.32462e-08
-8.57191e-08
-2.16749e-15
-3.50695e-08
-8.41629e-08
-2.04781e-15
-3.67929e-08
-8.19097e-08
-1.83893e-15
-3.84047e-08
-7.89223e-08
-2.10919e-15
-3.98934e-08
-7.51557e-08
-1.996e-15
-4.1247e-08