/*--------------------------------*- C++ -*----------------------------------*\
| =========                 |                                                 |
| \\      /  F ield         | OpenFOAM: The Open Source CFD Toolbox           |
|  \\    /   O peration     | Version:  v2012                                 |
|   \\  /    A nd           | Website:  www.openfoam.com                      |
|    \\/     M anipulation  |                                                 |
\*---------------------------------------------------------------------------*/
FoamFile
{
    version     2.0;
    format      ascii;
    class       volVectorField;
    location    "0.8";
    object      U;
}
// * * * * * * * * * * * * * * * * * * * * * * * * * * * * * * * * * * * * * //

dimensions      [0 1 -1 0 0 0 0];


internalField   nonuniform List<vector> 
3332
(
(-0.774172 -7.23842 0.00675664)
(-0.806778 -6.63554 0.00704127)
(-0.834648 -6.08243 0.00728456)
(-0.858073 -5.56924 0.00748906)
(-0.877286 -5.08905 0.00765679)
(-0.892498 -4.63706 0.00778961)
(-0.903895 -4.20994 0.00788911)
(-0.911645 -3.80535 0.0079568)
(-0.915905 -3.4216 0.00799402)
(-0.916816 -3.05742 0.00800202)
(-0.914507 -2.71179 0.00798192)
(-0.909097 -2.38391 0.00793474)
(-0.900691 -2.07306 0.0078614)
(-0.889386 -1.77864 0.00776278)
(-0.875272 -1.50014 0.00763962)
(-0.858428 -1.2371 0.00749266)
(-0.838934 -0.989129 0.00732255)
(-0.816862 -0.75592 0.00712994)
(-0.792287 -0.537221 0.00691549)
(-0.765286 -0.332851 0.00667989)
(-0.784357 -8.54826 0.0068455)
(-0.821349 -7.80865 0.00716841)
(-0.853192 -7.15019 0.00744638)
(-0.880301 -6.55467 0.00768304)
(-0.903048 -6.00846 0.00788161)
(-0.921707 -5.50176 0.00804451)
(-0.936505 -5.02767 0.00817371)
(-0.947635 -4.58142 0.00827089)
(-0.955262 -4.15971 0.00833749)
(-0.959532 -3.7602 0.0083748)
(-0.960578 -3.38123 0.00838397)
(-0.958518 -3.02154 0.00836603)
(-0.953458 -2.68013 0.00832193)
(-0.945496 -2.35622 0.00825247)
(-0.934717 -2.0491 0.00815842)
(-0.9212 -1.75819 0.00804047)
(-0.905015 -1.48298 0.00789925)
(-0.886229 -1.22303 0.00773532)
(-0.864904 -0.977961 0.00754924)
(-0.841103 -0.747471 0.00734154)
(-0.814887 -0.531316 0.00711277)
(-0.786324 -0.32932 0.00686354)
(0.0709382 -47.4812 -0.000619062)
(0.00795539 -47.1133 -6.93134e-05)
(0.477497 -53.4312 -0.00416713)
(0.187842 -51.3809 -0.00164105)
(-0.79264 -40.4673 0.00691584)
(-1.18732 -35.4663 0.0103614)
(-1.56746 -33.5178 0.0136805)
(-1.31847 -30.9335 0.0115091)
(-1.24695 -25.8313 0.0108845)
(-0.151433 -18.3152 0.00118864)
(-0.574599 -13.877 0.00500935)
(-0.669073 -12.5837 0.00583847)
(-0.733315 -11.3427 0.00639986)
(-0.786948 -10.2371 0.00686804)
(-0.830594 -9.27633 0.00724906)
(-0.868031 -8.44301 0.00757586)
(-0.899597 -7.71233 0.00785141)
(-0.926336 -7.06205 0.00808483)
(-0.948615 -6.47407 0.00827933)
(-0.966848 -5.93487 0.0084385)
(-0.98129 -5.43471 0.00856459)
(-0.992163 -4.96676 0.00865953)
(-0.999642 -4.52626 0.00872485)
(-1.00388 -4.10994 0.00876185)
(-1.005 -3.71549 0.00877167)
(-1.00312 -3.34128 0.00875529)
(-0.998335 -2.98606 0.00871359)
(-0.990742 -2.64886 0.00864737)
(-0.980416 -2.32889 0.00855728)
(-0.967428 -2.02548 0.00844394)
(-0.95184 -1.73806 0.00830793)
(-0.93371 -1.46613 0.00814973)
(-0.91309 -1.20927 0.0079698)
(-0.890032 -0.967095 0.00776859)
(-0.864587 -0.739319 0.00754654)
(-0.836807 -0.525704 0.00730412)
(-0.806752 -0.326079 0.00704186)
(0.0643659 -47.6466 -0.000561706)
(-0.000342663 -47.5493 3.08228e-06)
(0.423239 -53.8158 -0.00369363)
(0.118514 -50.2256 -0.00103616)
(-1.10002 -38.9434 0.00959826)
(-1.44385 -34.4044 0.0126005)
(-1.88562 -32.9711 0.0164572)
(-1.54674 -30.8696 0.0135017)
(-1.49374 -26.371 0.0130389)
(-0.156402 -19.1297 0.0012767)
(-0.339861 -15.8873 0.00288827)
(-0.52834 -14.8628 0.00458658)
(-0.653372 -13.6618 0.00569462)
(-0.754467 -12.4096 0.00658341)
(-0.817555 -11.196 0.00713511)
(-0.868476 -10.1072 0.00757965)
(-0.908081 -9.15931 0.00792541)
(-0.941455 -8.33665 0.00821674)
(-0.968873 -7.6154 0.0084561)
(-0.991635 -6.97358 0.00865481)
(-1.01009 -6.39335 0.00881593)
(-1.0247 -5.86132 0.00894344)
(-1.0357 -5.3678 0.00903951)
(-1.04333 -4.90604 0.00910612)
(-1.04774 -4.47133 0.00914472)
(-1.0491 -4.06044 0.00915656)
(-1.04751 -3.67107 0.0091427)
(-1.04307 -3.30163 0.00910406)
(-1.03589 -2.95088 0.00904144)
(-1.02604 -2.61787 0.00895553)
(-1.01359 -2.30185 0.0088469)
(-0.998603 -2.00215 0.00871607)
(-0.981123 -1.71822 0.00856354)
(-0.961202 -1.44956 0.0083897)
(-0.938883 -1.19578 0.00819495)
(-0.91421 -0.956497 0.00797963)
(-0.887224 -0.731435 0.00774413)
(-0.85797 -0.520359 0.00748885)
(-0.826502 -0.323104 0.00721425)
(0.0680034 -47.7874 -0.000593461)
(-0.0299161 -47.9097 0.000261152)
(0.391614 -54.1359 -0.00341764)
(0.0245663 -48.7629 -0.000216445)
(-1.39422 -37.2135 0.0121658)
(-1.65391 -33.2916 0.0144341)
(-2.10203 -32.4192 0.0183461)
(-1.65542 -30.9108 0.0144507)
(-1.49564 -27.0263 0.0130565)
(-0.0446203 -20.0679 0.000336059)
(-0.334993 -15.5092 0.00278431)
(-0.570369 -14.5678 0.00494406)
(-0.706556 -13.4261 0.00615556)
(-0.817097 -12.2218 0.00712942)
(-0.883085 -11.0423 0.00770703)
(-0.933438 -9.973 0.00814666)
(-0.971305 -9.03961 0.00847724)
(-1.00239 -8.22841 0.00874865)
(-1.02733 -7.51714 0.00896632)
(-1.04753 -6.88417 0.00914273)
(-1.06343 -6.31198 0.00928149)
(-1.0755 -5.78731 0.0093869)
(-1.08402 -5.30061 0.0094613)
(-1.08923 -4.84517 0.00950677)
(-1.09129 -4.41635 0.00952486)
(-1.09038 -4.01095 0.00951688)
(-1.0866 -3.62672 0.00948393)
(-1.08007 -3.26208 0.00942695)
(-1.07087 -2.91583 0.00934675)
(-1.0591 -2.58705 0.00924402)
(-1.0448 -2.27499 0.00911931)
(-1.02805 -1.97901 0.00897311)
(-1.00889 -1.69857 0.00880588)
(-0.987353 -1.43321 0.00861798)
(-0.963491 -1.18251 0.00840974)
(-0.937336 -0.946126 0.0081815)
(-0.908927 -0.723782 0.00793358)
(-0.878303 -0.515251 0.00766633)
(-0.845512 -0.320372 0.00738017)
(-0.81061 -0.139068 0.0070757)
(0.0824764 -47.9014 -0.000719786)
(-0.0790175 -48.1932 0.000689644)
(0.38725 -54.394 -0.00337959)
(-0.108768 -46.9965 0.000947015)
(-1.65072 -35.3562 0.0144045)
(-1.86769 -32.1738 0.0163001)
(-2.27893 -31.9355 0.0198902)
(-1.74012 -31.1358 0.0151906)
(-1.38295 -27.8146 0.0120739)
(0.00632021 -21.0209 -7.7532e-05)
(-0.278634 -15.0081 0.00219436)
(-0.580046 -14.2253 0.00501705)
(-0.733189 -13.169 0.00638361)
(-0.854169 -12.0185 0.00745198)
(-0.92791 -10.8802 0.00809816)
(-0.979817 -9.83339 0.00855146)
(-1.01862 -8.91617 0.00889018)
(-1.04939 -8.11736 0.0091588)
(-1.07373 -7.41672 0.00937132)
(-1.09298 -6.79305 0.00953935)
(-1.10773 -6.22928 0.00966814)
(-1.11849 -5.71228 0.00976215)
(-1.12559 -5.23264 0.00982416)
(-1.1293 -4.78372 0.00985652)
(-1.12981 -4.36095 0.009861)
(-1.1273 -3.96118 0.00983914)
(-1.12192 -3.58219 0.0097922)
(-1.11378 -3.22244 0.00972126)
(-1.103 -2.88076 0.00962723)
(-1.08967 -2.55625 0.00951089)
(-1.07385 -2.24819 0.00937284)
(-1.0556 -1.95597 0.00921362)
(-1.03499 -1.67906 0.00903371)
(-1.01204 -1.417 0.00883349)
(-0.98681 -1.1694 0.00861329)
(-0.959324 -0.935935 0.00837343)
(-0.929621 -0.716321 0.00811422)
(-0.897741 -0.510345 0.00783601)
(-0.863728 -0.317852 0.00753918)
(-0.827637 -0.138768 0.00722424)
(0.106654 -47.9886 -0.000930813)
(-0.14365 -48.4058 0.00125369)
(0.405109 -54.5688 -0.00353553)
(-0.309213 -44.9206 0.00269617)
(-1.90535 -33.3667 0.0166267)
(-2.17765 -31.0032 0.0190055)
(-2.50475 -31.5219 0.0218615)
(-1.90835 -31.5436 0.0166594)
(-1.27809 -28.6807 0.0111593)
(-0.133429 -21.8978 0.0011601)
(-0.176708 -14.5486 0.00121455)
(-0.551227 -13.8314 0.00475172)
(-0.732561 -12.8898 0.00637247)
(-0.863566 -11.7982 0.00753247)
(-0.950915 -10.7079 0.00829876)
(-1.00664 -9.68722 0.00878557)
(-1.04926 -8.78786 0.00915762)
(-1.08177 -8.0025 0.00944144)
(-1.1075 -7.31321 0.00966604)
(-1.12744 -6.69944 0.00984011)
(-1.14251 -6.14454 0.00997175)
(-1.15324 -5.63561 0.0100654)
(-1.16003 -5.16336 0.0101247)
(-1.16318 -4.72125 0.0101523)
(-1.16296 -4.30476 0.0101504)
(-1.15958 -3.9108 0.0101209)
(-1.15321 -3.53721 0.0100653)
(-1.144 -3.18248 0.00998504)
(-1.1321 -2.84547 0.00988115)
(-1.11759 -2.52532 0.00975461)
(-1.10058 -2.22133 0.00960616)
(-1.08113 -1.93292 0.00943645)
(-1.05931 -1.65957 0.00924604)
(-1.03517 -1.40086 0.00903537)
(-1.00875 -1.1564 0.00880482)
(-0.980096 -0.925869 0.00855475)
(-0.949241 -0.709008 0.00828548)
(-0.916227 -0.505605 0.00799737)
(-0.881099 -0.315512 0.00769081)
(-0.843914 -0.13866 0.0073663)
(-0.80473 0.0249956 0.00702446)
(0.136299 -48.0491 -0.00118955)
(-0.214103 -48.5553 0.00186853)
(0.430118 -54.5861 -0.00375394)
(-0.610278 -42.4798 0.00532361)
(-2.20088 -31.1684 0.019206)
(-2.61229 -29.7104 0.022799)
(-2.78949 -31.1765 0.0243471)
(-2.13697 -32.1233 0.0186551)
(-1.19008 -29.6161 0.010391)
(-0.297268 -22.7017 0.00259456)
(0.0382392 -14.2901 -0.000603305)
(-0.475537 -13.3816 0.00406664)
(-0.701982 -12.5841 0.00609807)
(-0.844673 -11.5594 0.00736526)
(-0.951501 -10.5229 0.00830356)
(-1.01406 -9.53318 0.00885027)
(-1.06331 -8.65341 0.00928023)
(-1.09969 -7.88283 0.00959779)
(-1.12869 -7.20571 0.009851)
(-1.15093 -6.60254 0.0100452)
(-1.16774 -6.05709 0.010192)
(-1.17966 -5.55671 0.010296)
(-1.18721 -5.09226 0.0103619)
(-1.19076 -4.6573 0.0103929)
(-1.19062 -4.2474 0.0103918)
(-1.18707 -3.8595 0.0103609)
(-1.18033 -3.49151 0.0103021)
(-1.17059 -3.14197 0.0102171)
(-1.15802 -2.80977 0.0101074)
(-1.14275 -2.49409 0.00997416)
(-1.12489 -2.19427 0.00981833)
(-1.10454 -1.90974 0.00964074)
(-1.08177 -1.64003 0.00944209)
(-1.05666 -1.38471 0.00922293)
(-1.02925 -1.14343 0.00898373)
(-0.999592 -0.915874 0.00872492)
(-0.967731 -0.701795 0.00844688)
(-0.933713 -0.50099 0.00815)
(-0.897584 -0.313318 0.0078347)
(-0.859403 -0.138716 0.0075015)
(-0.819234 0.0228587 0.00715098)
(0.16364 -48.0839 -0.00142819)
(-0.275035 -48.6492 0.00240028)
(0.433039 -54.3041 -0.00377968)
(-1.02901 -39.6112 0.0089779)
(-2.54242 -28.715 0.0221871)
(-3.10732 -28.3045 0.0271195)
(-3.06672 -30.9537 0.0267674)
(-2.32576 -32.9201 0.0203033)
(-1.04489 -30.716 0.0091241)
(-0.317899 -23.6204 0.00277678)
(0.53017 -14.193 -0.00478698)
(-0.338422 -12.7991 0.00281406)
(-0.639742 -12.2386 0.00554342)
(-0.800254 -11.2995 0.00697409)
(-0.930179 -10.3222 0.00811696)
(-1.00375 -9.36971 0.00876022)
(-1.06178 -8.51154 0.00926677)
(-1.10413 -7.75742 0.0096365)
(-1.138 -7.09341 0.00993224)
(-1.164 -6.50166 0.0101592)
(-1.18379 -5.9663 0.010332)
(-1.19801 -5.47504 0.0104562)
(-1.20729 -5.01887 0.0105372)
(-1.2121 -4.59148 0.0105792)
(-1.21282 -4.1885 0.0105855)
(-1.20978 -3.80696 0.010559)
(-1.20326 -3.44483 0.0105022)
(-1.1935 -3.10068 0.0104171)
(-1.18071 -2.77347 0.0103055)
(-1.16507 -2.4624 0.010169)
(-1.14671 -2.16687 0.0100088)
(-1.12576 -1.88633 0.00982596)
(-1.10231 -1.62033 0.00962135)
(-1.07645 -1.36847 0.00939568)
(-1.04825 -1.13042 0.00914957)
(-1.01776 -0.905892 0.00888353)
(-0.985048 -0.694633 0.00859804)
(-0.950158 -0.496458 0.00829355)
(-0.913146 -0.311235 0.00797054)
(-0.874074 -0.138905 0.00762956)
(-0.833011 0.02057 0.00727123)
(0.178202 -48.0942 -0.00155528)
(-0.307536 -48.6873 0.0026839)
(0.389383 -53.5546 -0.00339901)
(-1.52936 -36.2965 0.0133445)
(-2.88892 -26.0505 0.0252114)
(-3.56361 -26.8708 0.0311019)
(-3.28139 -30.9246 0.0286419)
(-2.42315 -33.9928 0.0211539)
(-0.847877 -32.0726 0.00740571)
(-0.218264 -24.815 0.00190911)
(1.25598 -14.3365 -0.0110386)
(-0.10823 -11.8638 0.000685619)
(-0.548294 -11.8232 0.00472942)
(-0.736731 -11.0152 0.00641461)
(-0.889392 -10.1029 0.00776016)
(-0.978896 -9.19528 0.00854316)
(-1.04661 -8.36128 0.00913431)
(-1.09684 -7.62554 0.00957283)
(-1.13669 -6.97569 0.00992068)
(-1.16763 -6.39628 0.0101908)
(-1.19138 -5.87171 0.0103982)
(-1.20883 -5.39018 0.0105505)
(-1.22067 -4.94281 0.010654)
(-1.22749 -4.52343 0.0107135)
(-1.22973 -4.12776 0.0107332)
(-1.22781 -3.75292 0.0107164)
(-1.22205 -3.39692 0.0106662)
(-1.21276 -3.05841 0.0105852)
(-1.20019 -2.73638 0.0104755)
(-1.18455 -2.43011 0.0103391)
(-1.16603 -2.139 0.0101774)
(-1.14476 -1.86256 0.00999185)
(-1.12089 -1.60037 0.00978352)
(-1.09451 -1.35206 0.00955332)
(-1.06571 -1.11732 0.00930202)
(-1.03457 -0.895864 0.00903027)
(-1.00116 -0.687472 0.00873867)
(-0.965533 -0.491968 0.00842775)
(-0.927756 -0.309225 0.00809807)
(-0.8879 -0.139195 0.00775024)
(-0.846036 0.0181571 0.00738492)
(0.172306 -48.0829 -0.00150383)
(-0.300407 -48.6629 0.00262168)
(0.28244 -52.2102 -0.00246605)
(-2.03465 -32.6039 0.0177543)
(-3.17784 -23.2774 0.0277332)
(-3.91667 -25.4823 0.0341836)
(-3.43761 -31.0969 0.0300062)
(-2.46016 -35.3203 0.0214774)
(-0.725569 -33.678 0.00633962)
(-0.0804619 -26.2728 0.000707726)
(1.75425 -14.8288 -0.0153354)
(0.230864 -10.5018 -0.002436)
(-0.426312 -11.2951 0.00364961)
(-0.661983 -10.7021 0.00575568)
(-0.832617 -9.86386 0.00726341)
(-0.943295 -9.0088 0.00823226)
(-1.02045 -8.20231 0.00890595)
(-1.08005 -7.48682 0.00942621)
(-1.12641 -6.8523 0.00983094)
(-1.16314 -6.28609 0.0101516)
(-1.19152 -5.77303 0.0103994)
(-1.21288 -5.30183 0.0105859)
(-1.22793 -4.86379 0.0107173)
(-1.23736 -4.45289 0.0107997)
(-1.24169 -4.06494 0.0108375)
(-1.2414 -3.69715 0.0108351)
(-1.23689 -3.34759 0.0107957)
(-1.22849 -3.01497 0.0107225)
(-1.21653 -2.69836 0.0106181)
(-1.20124 -2.39706 0.0104847)
(-1.18286 -2.11054 0.0103243)
(-1.16156 -1.83834 0.0101385)
(-1.13751 -1.58008 0.00992857)
(-1.11083 -1.33541 0.00969574)
(-1.08163 -1.10405 0.00944094)
(-1.05001 -0.885733 0.00916498)
(-1.01604 -0.680264 0.00886859)
(-0.979816 -0.487475 0.00855242)
(-0.941394 -0.307253 0.00821712)
(-0.90086 -0.139554 0.00786337)
(-0.858292 0.0156475 0.0074919)
(0.144035 -48.0531 -0.00125709)
(-0.253374 -48.5635 0.00221119)
(0.120203 -50.2444 -0.00105051)
(-2.43888 -28.6902 0.0212822)
(-3.34074 -20.493 0.0291553)
(-4.12744 -24.1397 0.0360233)
(-3.53936 -31.3976 0.0308948)
(-2.4685 -36.7951 0.0215506)
(-0.746599 -35.4308 0.00652385)
(0.0274733 -27.7899 -0.000234188)
(1.71285 -15.6557 -0.0149519)
(0.610264 -9.01633 -0.0057716)
(-0.277613 -10.633 0.00233977)
(-0.581348 -10.352 0.00504503)
(-0.764612 -9.60536 0.00666809)
(-0.900299 -8.80929 0.00785676)
(-0.986297 -8.03486 0.00860776)
(-1.05607 -7.34125 0.00921685)
(-1.10907 -6.72331 0.00967954)
(-1.15201 -6.17107 0.0100544)
(-1.18539 -5.67018 0.0103458)
(-1.2111 -5.20987 0.0105703)
(-1.22978 -4.78166 0.0107334)
(-1.24227 -4.37969 0.0108425)
(-1.24912 -3.99987 0.0109023)
(-1.25088 -3.63948 0.0109177)
(-1.24799 -3.29667 0.0108926)
(-1.24086 -2.97023 0.0108304)
(-1.22984 -2.65926 0.0107342)
(-1.21522 -2.36315 0.0106067)
(-1.19726 -2.08139 0.01045)
(-1.17619 -1.81357 0.0102661)
(-1.15219 -1.55936 0.0100567)
(-1.12541 -1.31843 0.00982301)
(-1.096 -1.09054 0.00956633)
(-1.06406 -0.875444 0.0092876)
(-1.02969 -0.67296 0.00898771)
(-0.992994 -0.482939 0.00866745)
(-0.954047 -0.305281 0.00832755)
(-0.91294 -0.139951 0.00796881)
(-0.869762 0.0130691 0.00759203)
(0.0992391 -48.0087 -0.000866124)
(-0.17979 -48.3781 0.00156899)
(-0.0646664 -47.7733 0.000562656)
(-2.63843 -24.7744 0.0230238)
(-3.30422 -17.7765 0.0288369)
(-4.13378 -22.8087 0.0360787)
(-3.51161 -31.7395 0.030653)
(-2.39114 -38.301 0.0208753)
(-0.809201 -37.1889 0.00706995)
(0.0896103 -29.1768 -0.000777063)
(1.30488 -16.6625 -0.0113845)
(0.889987 -7.76289 -0.00805693)
(-0.132615 -9.86287 0.00105068)
(-0.496832 -9.95806 0.00430227)
(-0.693631 -9.32873 0.00604625)
(-0.852516 -8.59639 0.00743947)
(-0.947549 -7.85954 0.0082695)
(-1.02712 -7.18915 0.00896409)
(-1.08665 -6.58905 0.00948378)
(-1.13578 -6.0514 0.00991273)
(-1.17425 -5.56327 0.0102486)
(-1.20449 -5.11434 0.0105125)
(-1.22703 -4.69641 0.0107094)
(-1.24285 -4.30378 0.0108475)
(-1.25251 -3.93246 0.0109319)
(-1.25662 -3.57981 0.0109678)
(-1.25567 -3.24407 0.0109596)
(-1.2501 -2.92407 0.010911)
(-1.2403 -2.61899 0.0108255)
(-1.22661 -2.32826 0.0107061)
(-1.20933 -2.05145 0.0105553)
(-1.1887 -1.78817 0.0103754)
(-1.16496 -1.53814 0.0101682)
(-1.13828 -1.30107 0.00993537)
(-1.10883 -1.07674 0.00967831)
(-1.07673 -0.864947 0.00939819)
(-1.0421 -0.665515 0.00909604)
(-1.00506 -0.478321 0.0087728)
(-0.965706 -0.303275 0.00842932)
(-0.924131 -0.140355 0.0080665)
(-0.880439 0.0104493 0.00768522)
(0.0480009 -47.9546 -0.000418931)
(-0.097488 -48.1144 0.000850711)
(-0.218254 -45.0619 0.00190299)
(-2.54655 -21.1447 0.0222223)
(-2.96596 -15.2485 0.025885)
(-3.81235 -21.5104 0.0332734)
(-3.17224 -32.1026 0.0276909)
(-2.05976 -39.7638 0.0179824)
(-0.702495 -38.813 0.00613737)
(0.180573 -30.3461 -0.00157199)
(0.866236 -17.613 -0.00755538)
(0.984493 -6.91706 -0.00872604)
(-0.0246488 -9.07517 4.53335e-05)
(-0.409671 -9.52661 0.00353973)
(-0.626638 -9.03628 0.00545902)
(-0.801605 -8.37162 0.00699489)
(-0.907246 -7.67725 0.00791765)
(-0.995073 -7.03132 0.00868429)
(-1.061 -6.45011 0.00925991)
(-1.11591 -5.9275 0.00973917)
(-1.15934 -5.45258 0.0101184)
(-1.19404 -5.0154 0.0104213)
(-1.22051 -4.60813 0.0106524)
(-1.23976 -4.22518 0.0108205)
(-1.25241 -3.8627 0.0109309)
(-1.25906 -3.51811 0.0109891)
(-1.26026 -3.18972 0.0109996)
(-1.25647 -2.87642 0.0109666)
(-1.24811 -2.57747 0.0108937)
(-1.23557 -2.29234 0.0107843)
(-1.21917 -2.02065 0.0106412)
(-1.1992 -1.76207 0.0104669)
(-1.1759 -1.51636 0.0102636)
(-1.14949 -1.28327 0.0100332)
(-1.12015 -1.0626 0.00977714)
(-1.08804 -0.854193 0.0094969)
(-1.05329 -0.657888 0.00919366)
(-1.01603 -0.473582 0.0088685)
(-0.976371 -0.301201 0.00852242)
(-0.934431 -0.140736 0.0081564)
(-0.890316 0.0078147 0.00777143)
(0.00204625 -47.8971 -1.78517e-05)
(-0.0245537 -47.8137 0.000214231)
(-0.292285 -42.4877 0.00254924)
(-2.12701 -18.1681 0.0185615)
(-2.2214 -13.1434 0.0193872)
(-3.01603 -20.3974 0.0263235)
(-2.29758 -32.574 0.0200566)
(-1.27073 -41.1379 0.0110947)
(-0.234408 -40.176 0.00204991)
(0.423797 -31.2259 -0.00369642)
(0.625344 -18.2838 -0.00545513)
(0.940745 -6.43373 -0.00826541)
(0.0506178 -8.37625 -0.000721702)
(-0.323442 -9.07542 0.00278729)
(-0.564708 -8.73008 0.00491636)
(-0.748906 -8.13741 0.00653469)
(-0.867007 -7.48862 0.00756635)
(-0.961373 -6.86871 0.00839012)
(-1.03363 -6.30715 0.00902093)
(-1.09366 -5.79993 0.00954494)
(-1.14181 -5.33852 0.00996536)
(-1.18074 -4.91334 0.0103052)
(-1.21103 -4.51699 0.0105696)
(-1.2337 -4.14401 0.0107676)
(-1.24936 -3.79065 0.0109043)
(-1.25866 -3.45439 0.0109855)
(-1.26212 -3.13361 0.0110158)
(-1.26025 -2.82726 0.0109996)
(-1.2535 -2.53466 0.0109408)
(-1.24228 -2.25533 0.0108428)
(-1.22693 -1.98894 0.0107089)
(-1.20777 -1.73522 0.0105418)
(-1.18508 -1.49397 0.0103437)
(-1.15909 -1.26497 0.0101169)
(-1.13001 -1.04808 0.00986317)
(-1.09801 -0.843143 0.00958398)
(-1.06326 -0.650041 0.00928073)
(-1.0259 -0.468688 0.00895466)
(-0.986049 -0.299029 0.00860689)
(-0.94384 -0.141066 0.00823853)
(-0.899391 0.00519075 0.00785065)
(-0.0320861 -47.8428 0.00028005)
(0.0320402 -47.5518 -0.00027963)
(-0.271026 -40.4539 0.00236406)
(-1.44117 -16.2809 0.0125772)
(-1.06745 -11.8372 0.00931654)
(-1.68898 -19.7575 0.0147414)
(-0.781616 -33.3213 0.00682484)
(0.0598059 -42.3636 -0.000519822)
(0.651296 -41.1421 -0.00568312)
(0.881174 -31.7067 -0.0076905)
(0.629721 -18.5401 -0.00549663)
(0.856123 -6.1354 -0.00749866)
(0.117496 -7.7813 -0.00140326)
(-0.245329 -8.62194 0.00210476)
(-0.507167 -8.41271 0.00441275)
(-0.696864 -7.89562 0.00608021)
(-0.827724 -7.29392 0.00722339)
(-0.927426 -6.7021 0.00809378)
(-1.00571 -6.16074 0.00877722)
(-1.07019 -5.66927 0.00934003)
(-1.12268 -5.22152 0.0097983)
(-1.16548 -4.80851 0.0101719)
(-1.19937 -4.42327 0.0104678)
(-1.22531 -4.06046 0.0106943)
(-1.24393 -3.71643 0.0108569)
(-1.25585 -3.38873 0.010961)
(-1.26162 -3.07578 0.0110115)
(-1.26176 -2.7766 0.0110127)
(-1.25672 -2.49055 0.0109688)
(-1.24693 -2.2172 0.0108834)
(-1.23275 -1.95629 0.0107598)
(-1.21454 -1.70759 0.0106008)
(-1.19259 -1.47093 0.0104093)
(-1.16715 -1.24615 0.0101873)
(-1.13845 -1.03313 0.00993686)
(-1.10669 -0.831761 0.00965975)
(-1.07206 -0.641941 0.00935749)
(-1.0347 -0.463609 0.00903143)
(-0.994751 -0.296729 0.00868284)
(-0.952364 -0.141318 0.00831293)
(-0.907668 0.00260158 0.0079229)
(-0.0547915 -47.7998 0.000478231)
(0.0762855 -47.4012 -0.00066575)
(-0.198745 -39.2087 0.00173367)
(-0.684952 -15.8077 0.00597888)
(0.220142 -11.706 -0.00192041)
(-0.0327653 -19.9566 0.000286921)
(1.15963 -34.4999 -0.0101184)
(1.7503 -43.3668 -0.0152765)
(1.79197 -41.5836 -0.0156417)
(1.46328 -31.6487 -0.0127734)
(0.772951 -18.3275 -0.00674985)
(0.768667 -5.86387 -0.00672616)
(0.165477 -7.25679 -0.00184476)
(-0.18344 -8.17951 0.00156268)
(-0.454656 -8.08916 0.00395384)
(-0.648615 -7.64796 0.00565882)
(-0.790213 -7.09383 0.00689592)
(-0.894608 -6.53218 0.00780731)
(-0.978234 -6.01147 0.00853733)
(-1.0465 -5.53611 0.00913327)
(-1.10282 -5.10209 0.00962493)
(-1.14905 -4.70133 0.0100285)
(-1.18622 -4.32729 0.010353)
(-1.2152 -3.97477 0.010606)
(-1.23662 -3.64022 0.0107931)
(-1.25109 -3.32125 0.0109194)
(-1.25915 -3.01632 0.0109898)
(-1.2613 -2.72448 0.0110087)
(-1.25801 -2.44516 0.0109801)
(-1.24972 -2.17797 0.0109078)
(-1.23681 -1.9227 0.0107952)
(-1.21964 -1.67915 0.0106453)
(-1.19853 -1.44722 0.0104611)
(-1.17374 -1.22677 0.0102448)
(-1.14554 -1.01774 0.00999871)
(-1.11413 -0.820018 0.00972461)
(-1.0797 -0.63356 0.00942421)
(-1.04244 -0.458318 0.00909901)
(-1.00249 -0.294277 0.0087504)
(-0.960015 -0.141469 0.00837971)
(-0.915153 6.96569e-05 0.00798823)
(-0.0737572 -47.7713 0.000643752)
(0.117992 -47.3802 -0.00102974)
(-0.155656 -38.691 0.00135796)
(-0.0883345 -16.6595 0.000772776)
(1.11386 -12.8545 -0.00971978)
(1.45653 -21.4133 -0.0127101)
(2.98977 -36.1664 -0.0260914)
(3.36144 -44.1604 -0.0293402)
(2.83148 -41.4131 -0.024717)
(1.95507 -30.991 -0.0170679)
(0.894581 -17.6662 -0.00781374)
(0.653134 -5.52902 -0.00571381)
(0.176726 -6.8023 -0.00191804)
(-0.141584 -7.76049 0.00119603)
(-0.409349 -7.76647 0.00355856)
(-0.606412 -7.39667 0.00529024)
(-0.755348 -6.88973 0.00659157)
(-0.863997 -6.35966 0.0075401)
(-0.951965 -5.86003 0.00830802)
(-1.02343 -5.40103 0.00893185)
(-1.08297 -4.98074 0.00945164)
(-1.13215 -4.59223 0.00988097)
(-1.17221 -4.22938 0.0102307)
(-1.20392 -3.88721 0.0105076)
(-1.22793 -3.56223 0.0107172)
(-1.24479 -3.2521 0.0108644)
(-1.25504 -2.95532 0.0109539)
(-1.25916 -2.67099 0.01099)
(-1.25762 -2.39854 0.0109766)
(-1.25086 -2.13767 0.0109177)
(-1.23926 -1.88816 0.0108165)
(-1.2232 -1.64991 0.0106764)
(-1.203 -1.42282 0.0105002)
(-1.17896 -1.20683 0.0102904)
(-1.15133 -1.00187 0.0100493)
(-1.12036 -0.807893 0.00977899)
(-1.08624 -0.624874 0.00948123)
(-1.04916 -0.452791 0.00915765)
(-1.00929 -0.291649 0.00880976)
(-0.966807 -0.141497 0.00843899)
(-0.921855 -0.00238439 0.00804673)
(-0.0947339 -47.754 0.000826826)
(0.162611 -47.4325 -0.00141917)
(-0.183589 -38.5877 0.00160194)
(0.22529 -18.1996 -0.00196431)
(1.28501 -14.8434 -0.011213)
(2.39621 -24.1452 -0.0209097)
(4.2745 -38.4503 -0.0373039)
(4.4229 -44.7282 -0.0386058)
(3.42624 -40.67 -0.0299099)
(2.16528 -29.8199 -0.018904)
(0.882981 -16.6704 -0.00771383)
(0.492209 -5.1352 -0.00430696)
(0.156582 -6.44294 -0.00169591)
(-0.118545 -7.37836 0.000995458)
(-0.373079 -7.45175 0.0032428)
(-0.57108 -7.14459 0.00498169)
(-0.723853 -6.68333 0.00631664)
(-0.836219 -6.18528 0.00729762)
(-0.927463 -5.70707 0.00809414)
(-1.00156 -5.26461 0.00874102)
(-1.0637 -4.85798 0.00928345)
(-1.11534 -4.48164 0.0097342)
(-1.15785 -4.12993 0.0101054)
(-1.19195 -3.79808 0.0104031)
(-1.21827 -3.4827 0.0106329)
(-1.23733 -3.18148 0.0107993)
(-1.24963 -2.89294 0.0109067)
(-1.25563 -2.61621 0.0109592)
(-1.25579 -2.35077 0.0109607)
(-1.25054 -2.09632 0.0109149)
(-1.24028 -1.85272 0.0108254)
(-1.22536 -1.61988 0.0106952)
(-1.20613 -1.39775 0.0105274)
(-1.18289 -1.1863 0.0103247)
(-1.15591 -0.985513 0.0100893)
(-1.12544 -0.79537 0.00982337)
(-1.0917 -0.615867 0.00952891)
(-1.05488 -0.44701 0.00920763)
(-1.01518 -0.288827 0.00886112)
(-0.972756 -0.141383 0.00849091)
(-0.927786 -0.00474191 0.00809849)
(-0.115873 -47.7444 0.00101132)
(0.202223 -47.4793 -0.00176492)
(-0.253425 -38.5727 0.00221141)
(0.268085 -19.6478 -0.00233792)
(0.939498 -17.1778 -0.00819674)
(2.99462 -28.0146 -0.0261307)
(4.88941 -41.0359 -0.0426712)
(4.76692 -44.9679 -0.0416093)
(3.48737 -39.5118 -0.0304443)
(2.0723 -28.3514 -0.0180929)
(0.738347 -15.5269 -0.00645157)
(0.321065 -4.75835 -0.00281129)
(0.120701 -6.19097 -0.00133509)
(-0.110227 -7.04118 0.000925045)
(-0.346022 -7.15031 0.00300778)
(-0.542396 -6.89455 0.00473125)
(-0.696138 -6.47627 0.00607473)
(-0.811522 -6.00978 0.00708205)
(-0.905086 -5.55322 0.00789881)
(-0.981314 -5.12733 0.00856425)
(-1.04545 -4.73428 0.00912409)
(-1.09905 -4.36999 0.00959204)
(-1.14358 -4.0293 0.00998078)
(-1.1797 -3.7077 0.0102961)
(-1.20803 -3.40189 0.0105435)
(-1.22904 -3.10958 0.010727)
(-1.24321 -2.82934 0.0108507)
(-1.25097 -2.56028 0.0109185)
(-1.25275 -2.30193 0.0109341)
(-1.24897 -2.05401 0.0109012)
(-1.24001 -1.81641 0.0108231)
(-1.22625 -1.58908 0.010703)
(-1.20801 -1.37201 0.0105439)
(-1.18562 -1.1652 0.0103485)
(-1.15934 -0.968673 0.0101192)
(-1.12944 -0.782441 0.00985825)
(-1.09614 -0.606525 0.00956766)
(-1.05965 -0.440961 0.00924925)
(-1.02017 -0.285794 0.00890471)
(-0.977882 -0.14111 0.00853566)
(-0.93296 -0.00698636 0.00814366)
(-0.12939 -47.7391 0.00112929)
(0.222642 -47.4803 -0.00194315)
(-0.30018 -38.4423 0.00261925)
(0.0864545 -20.6539 -0.000753362)
(0.679535 -19.9391 -0.00592681)
(3.55111 -32.5423 -0.0309867)
(4.95985 -43.3517 -0.0432875)
(4.55363 -44.8144 -0.0397483)
(3.18685 -38.1552 -0.0278214)
(1.80359 -26.8172 -0.0157473)
(0.539173 -14.409 -0.00471206)
(0.190516 -4.47018 -0.00167012)
(0.086387 -6.02224 -0.000997623)
(-0.111559 -6.74653 0.000939438)
(-0.327401 -6.86478 0.00284638)
(-0.519744 -6.64889 0.00453353)
(-0.672417 -6.26989 0.00586769)
(-0.789957 -5.83385 0.0068938)
(-0.885047 -5.39896 0.0077239)
(-0.962915 -4.98962 0.00840366)
(-1.0285 -4.61006 0.00897619)
(-1.08362 -4.25767 0.00945736)
(-1.12973 -3.92784 0.00985986)
(-1.1675 -3.61637 0.0101896)
(-1.19752 -3.32004 0.0104517)
(-1.22023 -3.03663 0.01065)
(-1.23606 -2.76467 0.0107882)
(-1.24541 -2.50333 0.0108699)
(-1.2487 -2.25212 0.0108987)
(-1.24631 -2.0108 0.010878)
(-1.23862 -1.77928 0.0108109)
(-1.226 -1.55755 0.0107008)
(-1.20877 -1.34562 0.0105504)
(-1.18724 -1.14354 0.0103626)
(-1.1617 -0.951351 0.0101397)
(-1.13241 -0.769102 0.00988416)
(-1.0996 -0.596843 0.00959789)
(-1.0635 -0.434632 0.00928285)
(-1.02431 -0.282539 0.00894079)
(-0.982208 -0.140665 0.00857341)
(-0.937395 -0.00910333 0.00818236)
(-0.127476 -47.737 0.00111258)
(0.21262 -47.4459 -0.00185568)
(-0.286042 -38.0685 0.0024956)
(-0.270474 -21.4192 0.00236116)
(0.92019 -23.5323 -0.00802624)
(3.95766 -36.9435 -0.0345357)
(4.67867 -45.0025 -0.0408354)
(4.04029 -44.3292 -0.0352681)
(2.74838 -36.7929 -0.0239939)
(1.49913 -25.3725 -0.0130891)
(0.35918 -13.4145 -0.00313902)
(0.120435 -4.29124 -0.00105719)
(0.0593975 -5.89299 -0.000733249)
(-0.118543 -6.48521 0.00100263)
(-0.316028 -6.59532 0.00274801)
(-0.502523 -6.40919 0.00438326)
(-0.652777 -6.06526 0.00569628)
(-0.771505 -5.65811 0.00673275)
(-0.867467 -5.24474 0.00757046)
(-0.946503 -4.85185 0.0082604)
(-1.01307 -4.48568 0.00884149)
(-1.06928 -4.14502 0.00933215)
(-1.11655 -3.82587 0.00974482)
(-1.1556 -3.52439 0.0100858)
(-1.18699 -3.23743 0.0103598)
(-1.21112 -2.96283 0.0105705)
(-1.22839 -2.69913 0.0107213)
(-1.23917 -2.4455 0.0108154)
(-1.24383 -2.20146 0.0108562)
(-1.24274 -1.96678 0.0108467)
(-1.23626 -1.74141 0.0107902)
(-1.22473 -1.52533 0.0106897)
(-1.20849 -1.31862 0.010548)
(-1.18783 -1.12133 0.0103678)
(-1.16305 -0.933555 0.0101516)
(-1.13441 -0.755357 0.0099016)
(-1.10214 -0.586817 0.00962001)
(-1.06647 -0.428019 0.00930875)
(-1.02761 -0.279052 0.00896962)
(-0.985758 -0.140036 0.00860439)
(-0.941107 -0.0110806 0.00821476)
(-0.11277 -47.7349 0.000984229)
(0.18279 -47.404 -0.00159534)
(-0.238879 -37.3853 0.00208382)
(-0.598008 -22.3802 0.0052197)
(1.54616 -27.9349 -0.0134892)
(3.99866 -40.5929 -0.0348956)
(4.1966 -45.9472 -0.0366294)
(3.43994 -43.6823 -0.0300282)
(2.31653 -35.5516 -0.0202234)
(1.23909 -24.0892 -0.0108186)
(0.233547 -12.5718 -0.00204029)
(0.099913 -4.19954 -0.000877372)
(0.0376126 -5.76853 -0.000523044)
(-0.128733 -6.246 0.00109315)
(-0.310672 -6.34057 0.0027019)
(-0.490284 -6.17639 0.00427649)
(-0.637203 -5.8632 0.00556036)
(-0.756144 -5.48315 0.00659867)
(-0.852403 -5.0909 0.00743897)
(-0.932141 -4.71432 0.00813504)
(-0.999268 -4.36145 0.00872102)
(-1.05617 -4.03234 0.00921771)
(-1.10422 -3.7237 0.00963722)
(-1.14421 -3.43202 0.00998629)
(-1.17665 -3.15429 0.0102695)
(-1.20193 -2.8884 0.0104902)
(-1.22041 -2.6329 0.0106516)
(-1.23242 -2.38695 0.0107565)
(-1.2383 -2.15007 0.0108079)
(-1.23839 -1.92206 0.0108088)
(-1.23304 -1.70285 0.0107621)
(-1.22256 -1.49249 0.0106708)
(-1.20728 -1.29104 0.0105374)
(-1.18749 -1.09861 0.0103648)
(-1.16348 -0.915303 0.0101552)
(-1.1355 -0.741214 0.0099111)
(-1.10379 -0.576451 0.00963445)
(-1.0686 -0.421118 0.0093273)
(-1.03011 -0.275327 0.00899147)
(-0.988555 -0.139216 0.0086288)
(-0.944116 -0.0129081 0.00824102)
(-0.100599 -47.7304 0.000878007)
(0.165967 -47.3709 -0.00144851)
(-0.22186 -36.5191 0.00193529)
(-0.608372 -23.8994 0.00531062)
(2.20669 -32.5372 -0.0192544)
(3.70922 -43.265 -0.0323716)
(3.63727 -46.3847 -0.0317481)
(2.89558 -43.045 -0.0252768)
(1.95515 -34.4858 -0.0170679)
(1.05023 -22.9866 -0.00916931)
(0.167487 -11.8704 -0.00146221)
(0.109639 -4.15598 -0.000962171)
(0.0188886 -5.63096 -0.000347222)
(-0.140679 -6.02041 0.0011988)
(-0.310247 -6.09858 0.00269866)
(-0.482583 -5.95078 0.00420935)
(-0.625558 -5.66434 0.00545875)
(-0.743819 -5.3095 0.0064911)
(-0.839847 -4.93778 0.00732938)
(-0.919834 -4.57733 0.00802762)
(-0.987145 -4.23763 0.00861521)
(-1.04437 -3.91991 0.00911477)
(-1.09286 -3.62159 0.00953807)
(-1.13345 -3.33952 0.0098924)
(-1.16664 -3.07086 0.0101822)
(-1.19281 -2.81355 0.0104106)
(-1.21226 -2.56615 0.0105805)
(-1.22531 -2.32782 0.0106944)
(-1.23225 -2.09808 0.0107551)
(-1.23341 -1.87672 0.0107653)
(-1.22909 -1.66371 0.0107276)
(-1.2196 -1.45908 0.0106448)
(-1.20523 -1.26294 0.0105196)
(-1.18629 -1.07541 0.0103543)
(-1.16304 -0.896616 0.0101514)
(-1.13573 -0.726686 0.00991314)
(-1.10462 -0.565748 0.00964163)
(-1.06992 -0.41393 0.00933883)
(-1.03185 -0.271361 0.00900663)
(-0.990625 -0.138198 0.00864686)
(-0.946442 -0.0145777 0.00826132)
(-0.107998 -47.7257 0.000942574)
(0.190906 -47.35 -0.00166612)