/*--------------------------------*- C++ -*----------------------------------*\
| =========                 |                                                 |
| \\      /  F ield         | OpenFOAM: The Open Source CFD Toolbox           |
|  \\    /   O peration     | Version:  v2012                                 |
|   \\  /    A nd           | Website:  www.openfoam.com                      |
|    \\/     M anipulation  |                                                 |
\*---------------------------------------------------------------------------*/
FoamFile
{
    version     2.0;
    format      ascii;
    class       surfaceScalarField;
    location    "0.85";
    object      alphaPhi0.water;
}
// * * * * * * * * * * * * * * * * * * * * * * * * * * * * * * * * * * * * * //

dimensions      [0 3 -1 0 0 0 0];
oriented        oriented;


internalField   nonuniform List<scalar> 
8134
(
-3.43354e-08
-7.84942e-09
-3.56784e-15
-2.76129e-08
-6.72247e-09
-3.14702e-15
-2.18181e-08
-5.7948e-09
-2.6468e-15
-1.68134e-08
-5.00472e-09
-2.45123e-15
-1.2495e-08
-4.3184e-09
-2.16675e-15
-8.78279e-09
-3.7122e-09
-2.03247e-15
-5.60987e-09
-3.17292e-09
-1.85604e-15
-2.91852e-09
-2.69136e-09
-1.68469e-15
-6.56531e-10
-2.26199e-09
-1.48181e-15
1.22619e-09
-1.88273e-09
-1.31385e-15
2.77355e-09
-1.54736e-09
-1.14416e-15
4.02714e-09
-1.25358e-09
-1.03008e-15
5.02452e-09
-9.97375e-10
-9.6051e-16
5.80046e-09
-7.75961e-10
1.78776e-16
6.38616e-09
-5.85707e-10
-3.0292e-16
6.80918e-09
-4.2302e-10
-3.97661e-16
7.09371e-09
-2.84531e-10
-3.86412e-16
7.26084e-09
-1.67105e-10
-3.4999e-16
7.32878e-09
-6.79501e-11
-3.6391e-16
7.31283e-09
1.59205e-11
-3.83774e-16
7.2267e-09
8.61328e-11
-3.97264e-16
7.0814e-09
1.45274e-10
-3.94182e-16
6.88612e-09
1.9532e-10
-3.84266e-16
6.64784e-09
2.38245e-10
-3.67983e-16
6.37217e-09
2.75695e-10
-3.50191e-16
6.06266e-09
3.09484e-10
-3.20378e-16
5.72163e-09
3.41028e-10
-2.91388e-16
5.3501e-09
3.71561e-10
-2.53675e-16
4.94785e-09
4.0222e-10
-2.21304e-16
4.51496e-09
4.32908e-10
-2.78058e-16
4.05173e-09
4.63223e-10
-1.46423e-16
3.56054e-09
4.91175e-10
-8.90717e-17
3.04695e-09
5.13605e-10
-1.4451e-16
2.52075e-09
5.26193e-10
-1.37202e-16
1.99713e-09
5.23625e-10
-1.82438e-16
1.49549e-09
5.01642e-10
-8.41375e-17
1.03722e-09
4.58264e-10
7.64964e-18
6.41876e-10
3.95348e-10
1.73964e-16
3.23399e-10
3.18476e-10
2.56323e-16
8.85113e-11
2.34889e-10
-2.07866e-16
-5.47838e-11
1.43297e-10
-6.11686e-16
-8.80239e-11
3.32424e-11
-3.50394e-16
-8.80234e-11
2.77539e-16
-4.38523e-08
-1.51567e-08
-6.68352e-15
-3.71112e-08
-1.34636e-08
-6.17901e-15
-3.08674e-08
-1.20385e-08
-5.58915e-15
-2.50698e-08
-1.08024e-08
-5.31611e-15
-1.96813e-08
-9.70682e-09
-4.93676e-15
-1.46802e-08
-8.71333e-09
-4.67973e-15
-1.00537e-08
-7.79942e-09
-4.38421e-15
-5.797e-09
-6.94803e-09
-4.02229e-15
-1.90907e-09
-6.14991e-09
-3.6345e-15
1.60974e-09
-5.40154e-09
-3.31294e-15
4.75983e-09
-4.69744e-09
-3.00307e-15
7.54398e-09
-4.03772e-09
-2.7703e-15
9.96732e-09
-3.4207e-09
-2.72733e-15
1.20394e-08
-2.84814e-09
-1.30395e-15
1.37742e-08
-2.32046e-09
-1.31665e-15
1.51888e-08
-1.83761e-09
-1.23959e-15
1.63034e-08
-1.39917e-09
-1.16704e-15
1.71405e-08
-1.0041e-09
-1.0818e-15
1.77232e-08
-6.50743e-10
-1.06321e-15
1.80758e-08
-3.3672e-10
-1.07838e-15
1.82208e-08
-5.88672e-11
-1.06773e-15
1.81808e-08
1.85237e-10
-1.0335e-15
1.79757e-08
4.00559e-10
-9.89176e-16
1.76221e-08
5.91695e-10
-9.40166e-16
1.71347e-08
7.63175e-10
-8.91076e-16
1.65237e-08
9.20419e-10
-8.30083e-16
1.57966e-08
1.06815e-09
-7.63946e-16
1.49574e-08
1.21081e-09
-6.98317e-16
1.40067e-08
1.35281e-09
-6.06224e-16
1.29451e-08
1.4946e-09
-7.24193e-16
1.17728e-08
1.63551e-09
-4.68186e-16
1.04948e-08
1.76913e-09
-3.18212e-16
9.12406e-09
1.88437e-09
-4.04387e-16
7.68521e-09
1.96502e-09
-3.54396e-16
6.21894e-09
1.98991e-09
-4.26211e-16
4.78032e-09
1.94027e-09
-2.5865e-16
3.43381e-09
1.80477e-09
-2.7083e-16
2.2431e-09
1.58606e-09
1.97487e-17
1.2587e-09
1.30288e-09
1.67922e-16
5.12262e-10
9.81325e-10
-3.7603e-16
2.95872e-11
6.25973e-10
-3.76028e-16
-1.40376e-10
2.03208e-10
-5.39683e-16
-2.28399e-10
5.44277e-17
-4.2312e-08
-2.10828e-08
-7.95917e-15
-3.66161e-08
-1.91594e-08
-7.58633e-15
-3.11523e-08
-1.75023e-08
-6.96409e-15
-2.59107e-08
-1.60441e-08
-6.68727e-15
-2.08804e-08
-1.4737e-08
-6.29759e-15
-1.60546e-08
-1.35392e-08
-6.04233e-15
-1.14304e-08
-1.24236e-08
-5.75011e-15
-7.01154e-09
-1.13669e-08
-5.36798e-15
-2.80648e-09
-1.0355e-08
-4.97262e-15
1.17112e-09
-9.37914e-09
-4.64156e-15
4.90559e-09
-8.43191e-09
-4.30843e-15
8.37903e-09
-7.51115e-09
-4.03057e-15
1.1573e-08
-6.61461e-09
-3.98478e-15
1.44703e-08
-5.74555e-09
-2.47735e-15
1.7057e-08
-4.90722e-09
-2.30538e-15
1.93229e-08
-4.10343e-09
-2.07152e-15
2.12622e-08
-3.33848e-09
-1.94271e-15
2.28745e-08
-2.61631e-09
-1.82661e-15
2.4164e-08
-1.94028e-09
-1.78679e-15
2.51396e-08
-1.31248e-09
-1.78841e-15
2.58145e-08
-7.33759e-10
-1.76438e-15
2.62032e-08
-2.03577e-10
-1.71099e-15
2.6323e-08
2.80919e-10
-1.63919e-15
2.61903e-08
7.24289e-10
-1.56226e-15
2.5821e-08
1.13259e-09
-1.48589e-15
2.52273e-08
1.51401e-09
-1.40083e-15
2.44187e-08
1.87672e-09
-1.31218e-15
2.34006e-08
2.22904e-09
-1.2198e-15
2.21734e-08
2.57993e-09
-1.06963e-15
2.07367e-08
2.93135e-09
-1.26199e-15
1.90891e-08
3.28308e-09
-9.17173e-16
1.72349e-08
3.6232e-09
-6.75291e-16
1.51901e-08
3.92929e-09
-7.86632e-16
1.29883e-08
4.16669e-09
-6.79389e-16
1.06906e-08
4.28771e-09
-7.76102e-16
8.38415e-09
4.2467e-09
-5.03118e-16
6.17727e-09
4.01162e-09
-4.78843e-16
4.18337e-09
3.57996e-09
-2.78542e-16
2.49901e-09
2.98723e-09
-1.92741e-16
1.19041e-09
2.28992e-09
-3.9946e-16
3.046e-10
1.51179e-09
-4.03504e-16
-9.01238e-11
5.97933e-10
-1.11816e-16
-3.18521e-10
-3.20191e-16
-3.87297e-08
-2.57468e-08
-7.78708e-15
-3.40442e-08
-2.38449e-08
-7.51142e-15
-2.93985e-08
-2.2148e-08
-6.95543e-15
-2.48257e-08
-2.06169e-08
-6.78845e-15
-2.03434e-08
-1.92192e-08
-6.51464e-15
-1.59619e-08
-1.79208e-08
-6.38786e-15
-1.16868e-08
-1.66987e-08
-6.21385e-15
-7.52389e-09
-1.55298e-08
-5.91453e-15
-3.47989e-09
-1.4399e-08
-5.59206e-15
4.34606e-10
-1.32936e-08
-5.31409e-15
4.20931e-09
-1.22066e-08
-5.00642e-15
7.82724e-09
-1.11291e-08
-4.72921e-15
1.12707e-08
-1.00581e-08
-4.60084e-15
1.45188e-08
-8.99369e-09
-3.13251e-15
1.75495e-08
-7.93789e-09
-2.95299e-15
2.03401e-08
-6.89408e-09
-2.72284e-15
2.2869e-08
-5.86737e-09
-2.5967e-15
2.51164e-08
-4.86364e-09
-2.48668e-15
2.70655e-08
-3.88934e-09
-2.44189e-15
2.87032e-08
-2.95039e-09
-2.43939e-15
3.00216e-08
-2.05209e-09
-2.41029e-15
3.1016e-08
-1.1981e-09
-2.34178e-15
3.16866e-08
-3.89466e-10
-2.24717e-15
3.20356e-08
3.7509e-10
-2.14551e-15
3.20683e-08
1.09994e-09
-2.04475e-15
3.17893e-08
1.79296e-09
-1.9377e-15
3.1202e-08
2.46405e-09
-1.8279e-15
3.03067e-08
3.12444e-09
-1.71431e-15
2.9099e-08
3.78746e-09
-1.50546e-15
2.75733e-08
4.45718e-09
-1.75242e-15
2.57218e-08
5.13449e-09
-1.3494e-15
2.3543e-08
5.8019e-09
-1.02144e-15
2.10489e-08
6.42352e-09
-1.1581e-15
1.82748e-08
6.9407e-09
-9.89396e-16
1.5294e-08
7.26857e-09
-1.11145e-15
1.22208e-08
7.31994e-09
-7.46168e-16
9.20632e-09
7.02604e-09
-7.26537e-16
6.41904e-09
6.36724e-09
-4.96165e-16
4.01188e-09
5.39439e-09
-4.63404e-16
2.09627e-09
4.20554e-09
-4.61231e-16
7.45457e-10
2.8626e-09
-7.5342e-16
4.30122e-11
1.30038e-09
6.4598e-17
-2.75508e-10
-1.93199e-17
-3.47627e-08
-2.93226e-08
-7.56881e-15
-3.09947e-08
-2.76128e-08
-7.45335e-15
-2.71214e-08
-2.60213e-08
-6.95672e-15
-2.32025e-08
-2.45359e-08
-6.80317e-15
-1.92788e-08
-2.31428e-08
-6.51781e-15
-1.53789e-08
-2.18207e-08
-6.40863e-15
-1.15214e-08
-2.05562e-08
-6.2668e-15
-7.71986e-09
-1.93313e-08
-6.01794e-15
-3.9845e-09
-1.81343e-08
-5.74662e-15
-3.24404e-10
-1.69537e-08
-5.51403e-15
3.25238e-09
-1.57834e-08
-5.25825e-15
6.7364e-09
-1.46131e-08
-5.0078e-15
1.01167e-08
-1.34384e-08
-4.79074e-15
1.33798e-08
-1.22568e-08
-3.42492e-15
1.65097e-08
-1.10679e-08
-3.3278e-15
1.94878e-08
-9.8721e-09
-3.19927e-15
2.22926e-08
-8.67219e-09
-3.12284e-15
2.4901e-08
-7.472e-09
-3.04593e-15
2.72885e-08
-6.27687e-09
-3.01292e-15
2.94304e-08
-5.09238e-09
-3.01135e-15
3.13031e-08
-3.92475e-09
-2.97753e-15
3.28841e-08
-2.77932e-09
-2.90122e-15
3.41544e-08
-1.65948e-09
-2.79438e-15
3.50965e-08
-5.67192e-10
-2.67778e-15
3.56958e-08
5.00675e-10
-2.55984e-15
3.59391e-08
1.54961e-09
-2.43609e-15
3.58142e-08
2.58894e-09
-2.30916e-15
3.53075e-08
3.63124e-09
-2.18007e-15
3.44016e-08
4.69317e-09
-1.91983e-15
3.30777e-08
5.78124e-09
-2.21396e-15
3.13141e-08
6.89801e-09
-1.76629e-15
2.90948e-08
8.02112e-09
-1.36797e-15
2.64179e-08
9.10052e-09
-1.52609e-15
2.33092e-08
1.00493e-08
-1.2939e-15
1.98424e-08
1.07354e-08
-1.43779e-15
1.61491e-08
1.10132e-08
-9.83782e-16
1.2419e-08
1.07561e-08
-9.78295e-16
8.8783e-09
9.90792e-09
-7.3229e-16
5.74641e-09
8.52628e-09
-6.73596e-16
3.19244e-09
6.75951e-09
-7.76324e-16
1.32421e-09
4.73083e-09
-8.056e-16
2.39505e-10
2.38508e-09
2.9935e-17
-3.60032e-11
8.2407e-17
-3.07306e-08
-3.19706e-08
-7.46495e-15
-2.77817e-08
-3.05617e-08
-7.36951e-15
-2.46247e-08
-2.91783e-08
-6.84084e-15
-2.1331e-08
-2.78297e-08
-6.68003e-15
-1.79548e-08
-2.65189e-08
-6.40878e-15
-1.45375e-08
-2.5238e-08
-6.34624e-15
-1.11094e-08
-2.39843e-08
-6.25605e-15
-7.69332e-09
-2.27474e-08
-6.05515e-15
-4.30599e-09
-2.15217e-08
-5.81738e-15
-9.5983e-10
-2.02999e-08
-5.6042e-15
2.33434e-09
-1.90776e-08
-5.36777e-15
5.57018e-09
-1.78489e-08
-5.11922e-15
8.7406e-09
-1.66088e-08
-4.82042e-15
1.18385e-08
-1.53548e-08
-3.58381e-15
1.48559e-08
-1.40853e-08
-3.58774e-15
1.77827e-08
-1.27989e-08
-3.57156e-15
2.0606e-08
-1.14956e-08
-3.54638e-15
2.33101e-08
-1.0176e-08
-3.50382e-15
2.58755e-08
-8.84222e-09
-3.48462e-15
2.82792e-08
-7.49618e-09
-3.4821e-15
3.04956e-08
-6.14114e-09
-3.4426e-15
3.24961e-08
-4.77995e-09
-3.3633e-15
3.42509e-08
-3.41409e-09
-3.25409e-15
3.57292e-08
-2.04574e-09
-3.13363e-15
3.69001e-08
-6.70044e-10
-3.00844e-15
3.77307e-08
7.1887e-10
-2.87631e-15
3.81883e-08
2.13133e-09
-2.73952e-15
3.82392e-08
3.58055e-09
-2.60138e-15
3.78457e-08
5.08645e-09
-2.30362e-15
3.69677e-08
6.65936e-09
-2.61443e-15
3.55607e-08
8.30486e-09
-2.15559e-15
3.35837e-08
9.99809e-09
-1.70739e-15
3.10082e-08
1.16761e-08
-1.88269e-15
2.78353e-08
1.32222e-08
-1.59187e-15
2.41224e-08
1.44483e-08
-1.75423e-15
2.00026e-08
1.51331e-08
-1.21887e-15
1.5693e-08
1.50657e-08
-1.22603e-15
1.14758e-08
1.41251e-08
-9.65854e-16
7.64437e-09
1.23577e-08
-8.52942e-16
4.43894e-09
9.96495e-09
-9.82119e-16
2.01397e-09
7.15582e-09
-4.76142e-16
4.89028e-10
3.91001e-09
-4.44572e-16
4.53025e-10
1.90065e-16
-2.68734e-08
-3.38829e-08
-7.13822e-15
-2.46115e-08
-3.28235e-08
-7.14313e-15
-2.20831e-08
-3.17068e-08
-6.7373e-15
-1.9358e-08
-3.05548e-08
-6.62489e-15
-1.64939e-08
-2.9383e-08
-6.36289e-15
-1.35379e-08
-2.8194e-08
-6.30185e-15
-1.05273e-08
-2.69949e-08
-6.20725e-15
-7.49152e-09
-2.57831e-08
-6.01885e-15
-4.45354e-09
-2.45596e-08
-5.79251e-15
-1.43069e-09
-2.33227e-08
-5.59926e-15
1.56274e-09
-2.2071e-08
-5.38652e-15
4.51827e-09
-2.08044e-08
-5.15239e-15
7.42898e-09
-1.95195e-08
-4.81558e-15
1.029e-08
-1.82159e-08
-3.72675e-15
1.30977e-08
-1.68929e-08
-3.82325e-15
1.5848e-08
-1.55492e-08
-3.88751e-15
1.85362e-08
-1.41837e-08
-3.89001e-15
2.11555e-08
-1.27953e-08
-3.86648e-15
2.36963e-08
-1.1383e-08
-3.85145e-15
2.61448e-08
-9.94478e-09
-3.8418e-15
2.84831e-08
-8.47943e-09
-3.79541e-15
3.06879e-08
-6.98481e-09
-3.71623e-15
3.2731e-08
-5.45702e-09
-3.61138e-15
3.45797e-08
-3.89463e-09
-3.49579e-15
3.6197e-08
-2.28718e-09
-3.37241e-15
3.75406e-08
-6.24878e-10
-3.24068e-15
3.85628e-08
1.10912e-09
-3.10274e-15
3.92108e-08
2.93273e-09
-2.96308e-15
3.94261e-08
4.87092e-09
-2.64589e-15
3.91439e-08
6.94165e-09
-2.97305e-15
3.82914e-08
9.15731e-09
-2.50722e-15
3.67935e-08
1.14959e-08
-2.02985e-15
3.4583e-08
1.38867e-08
-2.21661e-15
3.16197e-08
1.61854e-08
-1.87686e-15
2.79237e-08
1.81443e-08
-2.05498e-15
2.3607e-08
1.94497e-08
-1.45121e-15
1.88956e-08
1.97771e-08
-1.46859e-15
1.41174e-08
1.89033e-08
-1.19243e-15
9.64243e-09
1.68327e-08
-1.03765e-15
5.79428e-09
1.38131e-08
-1.17295e-15
2.78887e-09
1.01612e-08
-5.99726e-16
7.79413e-10
5.91947e-09
-9.72741e-16
1.23244e-09
2.03365e-16
-2.3294e-08
-3.52221e-08
-6.9345e-15
-2.15933e-08
-3.45241e-08
-6.99941e-15
-1.95997e-08
-3.37005e-08
-6.65337e-15
-1.73753e-08
-3.27792e-08
-6.55326e-15
-1.4975e-08
-3.17833e-08
-6.30619e-15
-1.24464e-08
-3.07227e-08
-6.27325e-15
-9.82893e-09
-2.96124e-08
-6.20126e-15
-7.1559e-09
-2.84562e-08
-6.04223e-15
-4.45415e-09
-2.72614e-08
-5.82326e-15
-1.74508e-09
-2.60318e-08
-5.63541e-15
9.5361e-10
-2.47697e-08
-5.4276e-15
3.63016e-09
-2.3481e-08
-5.19255e-15
6.27557e-09
-2.21649e-08
-4.84491e-15
8.88435e-09
-2.08247e-08
-3.89693e-15
1.14533e-08
-1.94619e-08
-4.05517e-15
1.39809e-08
-1.80767e-08
-4.15657e-15
1.64665e-08
-1.66693e-08
-4.16052e-15
1.89095e-08
-1.52384e-08
-4.13915e-15
2.13084e-08
-1.37819e-08
-4.11765e-15
2.36588e-08
-1.22953e-08
-4.09583e-15
2.59535e-08
-1.07741e-08
-4.04216e-15
2.81795e-08
-9.21095e-09
-3.96494e-15
3.03185e-08
-7.59583e-09
-3.86746e-15
3.23455e-08
-5.92178e-09
-3.76129e-15
3.42281e-08
-4.16969e-09
-3.64593e-15
3.59263e-08
-2.32315e-09
-3.52161e-15
3.73904e-08
-3.55041e-10
-3.38998e-15
3.85591e-08
1.76421e-09
-3.2556e-15
3.93601e-08
4.0697e-09
-2.93823e-15
3.97089e-08
6.59299e-09
-3.26231e-15
3.9506e-08
9.36017e-09
-2.81083e-15
3.86405e-08
1.23613e-08
-2.32396e-15
3.69993e-08
1.55281e-08
-2.51951e-15
3.44867e-08
1.86979e-08
-2.1454e-15
3.10646e-08
2.15664e-08
-2.33764e-15
2.67973e-08
2.3717e-08
-1.68219e-15
2.18923e-08
2.4682e-08
-1.70611e-15
1.6704e-08
2.40917e-08
-1.41108e-15
1.16731e-08
2.18636e-08
-1.22044e-15
7.21511e-09
1.82711e-08
-1.34479e-15
3.62333e-09
1.3753e-08
-8.28316e-16
1.09993e-09
8.44286e-09
-1.24077e-15
2.33237e-09
7.85845e-17
-2.00596e-08
-3.6132e-08
-6.68586e-15
-1.88022e-08
-3.57814e-08
-6.70905e-15
-1.72496e-08
-3.52531e-08
-6.48722e-15
-1.54532e-08
-3.45756e-08
-6.45564e-15
-1.34611e-08
-3.37753e-08
-6.23973e-15
-1.13176e-08
-3.28662e-08
-6.21368e-15
-9.06126e-09
-3.18687e-08
-6.1375e-15
-6.72597e-09
-3.07915e-08
-5.99101e-15
-4.34031e-09
-2.9647e-08
-5.77958e-15
-1.92801e-09
-2.84441e-08
-5.60851e-15
4.90764e-10
-2.71885e-08
-5.42195e-15
2.90147e-09
-2.58917e-08
-5.2076e-15
5.29257e-09
-2.4556e-08
-4.88235e-15
7.65679e-09
-2.31889e-08
-4.07206e-15
9.98962e-09
-2.17947e-08
-4.26619e-15
1.22892e-08
-2.03763e-08
-4.37261e-15
1.45558e-08
-1.8936e-08
-4.36134e-15
1.67915e-08
-1.7474e-08
-4.33133e-15
1.89988e-08
-1.59892e-08
-4.29712e-15
2.11799e-08
-1.44766e-08
-4.26145e-15
2.33358e-08
-1.29299e-08
-4.20099e-15
2.54639e-08
-1.13391e-08
-4.12608e-15
2.7557e-08
-9.68881e-09
-4.03613e-15
2.96023e-08
-7.96719e-09
-3.94026e-15
3.15788e-08
-6.14611e-09
-3.83561e-15
3.34566e-08
-4.20108e-09
-3.72289e-15
3.51949e-08
-2.0933e-09
-3.60249e-15
3.67381e-08
2.21111e-10
-3.47801e-15
3.80126e-08
2.795e-09
-3.17637e-15
3.8926e-08
5.67972e-09
-3.49297e-15
3.93623e-08
8.92378e-09
-3.06173e-15
3.9182e-08
1.25415e-08
-2.58163e-15
3.82278e-08
1.64824e-08
-2.78279e-15
3.63432e-08
2.05825e-08
-2.39033e-15
3.34155e-08
2.44942e-08
-2.59201e-15
2.94348e-08
2.76976e-08
-1.90717e-15
2.4558e-08
2.95588e-08
-1.93487e-15
1.91367e-08
2.9513e-08
-1.61958e-15
1.36665e-08
2.73338e-08
-1.39476e-15
8.6565e-09
2.32811e-08
-1.47377e-15
4.49152e-09
1.7918e-08
-1.01402e-15
1.44032e-09
1.1494e-08
-1.12678e-15
3.77269e-09
-3.68175e-16
-1.71836e-08
-6.74072e-15
-1.62707e-08
-6.82059e-15
-1.50751e-08
-3.64486e-08
-6.60631e-15
-1.36371e-08
-3.60136e-08
-6.49871e-15
-1.19969e-08
-3.54155e-08
-6.24253e-15
-1.01934e-08
-3.46698e-08
-6.20519e-15
-8.26216e-09
-3.37999e-08
-6.13242e-15
-6.23558e-09
-3.2818e-08
-6.0047e-15
-4.14208e-09
-3.17406e-08
-5.80062e-15
-2.00616e-09
-3.058e-08
-5.63384e-15
1.50364e-10
-2.9345e-08
-5.45088e-15
2.31274e-09
-2.80541e-08
-5.24337e-15
4.46579e-09
-2.6709e-08
-4.93921e-15
6.60075e-09
-2.53239e-08
-4.24211e-15
8.71138e-09
-2.39054e-08
-4.44437e-15
1.07944e-08
-2.24593e-08
-4.52967e-15
1.28493e-08
-2.09909e-08
-4.50119e-15
1.4878e-08
-1.95026e-08
-4.45816e-15
1.68843e-08
-1.79955e-08
-4.40976e-15
1.88733e-08
-1.64657e-08
-4.36113e-15
2.08506e-08
-1.49072e-08
-4.29488e-15
2.28205e-08
-1.33091e-08
-4.22144e-15
2.47851e-08
-1.16533e-08
-4.13735e-15
2.67426e-08
-9.92485e-09
-4.05058e-15
2.86851e-08
-8.08847e-09
-3.9564e-15
3.05963e-08
-6.11248e-09
-3.85635e-15
3.24496e-08
-3.94656e-09
-3.74954e-15
3.42036e-08
-1.5327e-09
-3.63675e-15
3.57977e-08
1.20072e-09
-3.36237e-15
3.71447e-08
4.33277e-09
-3.66345e-15
3.81274e-08
7.94103e-09
-3.25941e-15
3.85921e-08
1.20766e-08
-2.7994e-15
3.83495e-08
1.67251e-08
-3.00462e-15
3.71874e-08
2.17445e-08
-2.60988e-15
3.49129e-08
2.67688e-08
-2.82729e-15
3.14219e-08
3.11886e-08
-2.1262e-15
2.6788e-08
3.41927e-08
-2.15435e-15
2.13241e-08
3.49769e-08
-1.81964e-15
1.55542e-08
3.31036e-08
-1.56551e-15
1.00731e-08
2.87622e-08
-1.61095e-15
5.36743e-09
2.26237e-08
-1.15809e-15
1.79041e-09
1.5071e-08
-9.72158e-16
5.5631e-09
-5.84026e-16
-1.30982e-08
-3.73603e-08
-6.1748e-15
-1.19553e-08
-3.71566e-08
-6.30264e-15
-1.06132e-08
-3.67575e-08
-6.15614e-15
-9.10482e-09
-3.61782e-08
-6.14298e-15
-7.46141e-09
-3.54433e-08
-6.06898e-15
-5.71261e-09
-3.45668e-08
-5.95041e-15
-3.88527e-09
-3.35679e-08
-5.75777e-15
-2.0034e-09
-3.24618e-08
-5.60469e-15
-8.8202e-11
-3.12602e-08
-5.43815e-15
1.84289e-09
-2.99852e-08
-5.24966e-15
3.77524e-09
-2.86413e-08
-4.97928e-15
5.69792e-09
-2.72466e-08
-4.38118e-15
7.60319e-09
-2.58107e-08
-4.58118e-15
9.4862e-09
-2.43423e-08
-4.64045e-15
1.13449e-08
-2.28496e-08
-4.59381e-15
1.31801e-08
-2.13378e-08
-4.53732e-15
1.4995e-08
-1.98104e-08
-4.47594e-15
1.67949e-08
-1.82656e-08
-4.41629e-15
1.85871e-08
-1.66994e-08
-4.34501e-15
2.03794e-08
-1.51014e-08
-4.27192e-15
2.21793e-08
-1.34531e-08
-4.19146e-15
2.39932e-08
-1.17389e-08
-4.11151e-15
2.58236e-08
-9.91875e-09
-4.02602e-15
2.76674e-08
-7.95644e-09
-3.93714e-15
2.95131e-08
-5.79222e-09
-3.84311e-15
3.13366e-08
-3.35604e-09
-3.74224e-15
3.30965e-08
-5.59327e-10
-3.5002e-15
3.47237e-08
2.70567e-09
-3.78261e-15
3.61137e-08
6.5509e-09
-3.40593e-15
3.71166e-08
1.10736e-08
-2.97628e-15
3.75295e-08
1.63124e-08
-3.18278e-15
3.71004e-08
2.21735e-08
-2.79937e-15
3.55632e-08
2.83061e-08
-3.02149e-15
3.27108e-08
3.4041e-08
-2.34669e-15
2.85073e-08
3.83961e-08
-2.35996e-15
2.31887e-08
4.02954e-08
-2.01019e-15
1.72724e-08
3.902e-08
-1.73536e-15
1.14207e-08
3.4614e-08
-1.76709e-15
6.22533e-09
2.78191e-08
-1.34999e-15
2.14004e-09
1.91563e-08
-1.16049e-15
7.70315e-09
-7.37972e-16
-1.13248e-08
-3.80492e-08
-6.57517e-15
-1.04217e-08
-3.80596e-08
-6.52391e-15
-9.32897e-09
-3.78503e-08
-6.28049e-15
-8.07323e-09
-3.74339e-08
-6.20215e-15
-6.68125e-09
-3.68353e-08
-6.09165e-15
-5.17915e-09
-3.60689e-08
-5.96877e-15
-3.5914e-09
-3.51556e-08
-5.77572e-15
-1.94049e-09
-3.41127e-08
-5.62287e-15
-2.46624e-10
-3.29541e-08
-5.45711e-15
1.47206e-09
-3.17038e-08
-5.27266e-15
3.20113e-09
-3.03704e-08
-5.02344e-15
4.92849e-09
-2.8974e-08
-4.49794e-15
6.64527e-09
-2.75275e-08
-4.68435e-15
8.34528e-09
-2.60423e-08
-4.71625e-15
1.00251e-08
-2.45294e-08
-4.65278e-15
1.16839e-08
-2.29966e-08
-4.58438e-15
1.33235e-08
-2.145e-08
-4.51231e-15
1.49484e-08
-1.98906e-08
-4.44368e-15
1.65656e-08
-1.83165e-08
-4.36808e-15
1.81835e-08
-1.67194e-08
-4.29425e-15
1.98122e-08
-1.50817e-08
-4.21549e-15
2.14624e-08
-1.33892e-08
-4.14006e-15
2.31436e-08
-1.15998e-08
-4.06092e-15
2.48626e-08
-9.67552e-09
-3.98091e-15
2.66208e-08
-7.55043e-09
-3.89722e-15
2.84104e-08
-5.14555e-09
-3.80657e-15
3.02102e-08
-2.35932e-09
-3.59752e-15
3.19748e-08
9.41195e-10
-3.85641e-15
3.3623e-08
4.90268e-09
-3.50799e-15
3.50236e-08
9.67289e-09
-3.11422e-15
3.59806e-08
1.53555e-08
-3.32073e-15
3.62246e-08
2.19294e-08
-2.96046e-15
3.54343e-08
2.90965e-08
-3.19526e-15
3.33051e-08
3.61702e-08
-2.54176e-15
2.96763e-08
4.20249e-08
-2.55188e-15
2.46733e-08
4.52984e-08
-2.1935e-15
1.87666e-08
4.49267e-08
-1.9101e-15
1.26585e-08
4.07221e-08
-1.94084e-15
7.04052e-09
3.34371e-08
-1.56014e-15
2.47917e-09
2.37176e-08
-1.39126e-15
1.01823e-08
-9.00313e-16
-9.75054e-09
-3.85651e-08
-6.23409e-15
-9.04038e-09
-3.87698e-08
-6.18584e-15
-8.15393e-09
-3.87367e-08
-6.03275e-15
-7.11223e-09
-3.84756e-08
-6.01614e-15
-5.93744e-09
-3.80101e-08
-5.95168e-15
-4.65203e-09
-3.73543e-08
-5.86712e-15
-3.27768e-09
-3.653e-08
-5.70397e-15
-1.83479e-09
-3.55556e-08
-5.57577e-15
-3.42223e-10
-3.44466e-08
-5.43079e-15
1.18276e-09
-3.32288e-08
-5.26568e-15
2.72566e-09
-3.19133e-08
-5.04686e-15
4.27407e-09
-3.05224e-08
-4.58209e-15
5.8184e-09
-2.90718e-08
-4.75593e-15
7.35153e-09
-2.75754e-08
-4.76543e-15
8.86882e-09
-2.60466e-08
-4.68911e-15
1.03682e-08
-2.44959e-08
-4.61118e-15
1.185e-08
-2.29318e-08
-4.53092e-15
1.33171e-08
-2.13578e-08
-4.45503e-15
1.47753e-08
-1.97747e-08
-4.37568e-15
1.62325e-08
-1.81767e-08
-4.30041e-15
1.76989e-08
-1.65479e-08
-4.22193e-15
1.91866e-08
-1.4877e-08
-4.14925e-15
2.07088e-08
-1.3122e-08
-4.07433e-15
2.22785e-08
-1.12453e-08
-4.00078e-15
2.39063e-08
-9.17825e-09
-3.92487e-15
2.55976e-08
-6.83668e-09
-3.84226e-15
2.73485e-08
-4.11036e-09
-3.66346e-15
2.91367e-08
-8.46985e-10
-3.89749e-15
3.09091e-08
3.1302e-09
-3.57294e-15
3.25634e-08
8.01859e-09
-3.21724e-15
3.39267e-08
1.39923e-08
-3.41999e-15
3.47357e-08
2.11202e-08
-3.09064e-15
3.46394e-08
2.91929e-08
-3.3283e-15
3.32535e-08
3.75561e-08
-2.71273e-15
3.02916e-08
4.49867e-08
-2.72708e-15
2.57438e-08
4.98462e-08
-2.3678e-15
1.99946e-08
5.06759e-08
-2.09239e-15
1.3751e-08
4.69656e-08
-2.12751e-15
7.7902e-09
3.9398e-08
-1.78353e-15
2.79818e-09
2.87096e-08
-1.61769e-15
1.29805e-08
-1.08732e-15
-8.36459e-09
-3.8948e-08
-6.61364e-15
-7.80827e-09
-3.93262e-08
-6.47745e-15
-7.09113e-09
-3.94538e-08
-6.25107e-15
-6.22921e-09
-3.93376e-08
-6.15341e-15
-5.24039e-09
-3.89989e-08
-6.03049e-15
-4.14358e-09
-3.84511e-08
-5.91913e-15
-2.95757e-09
-3.7716e-08
-5.73745e-15
-1.70044e-09
-3.68127e-08
-5.59952e-15
-3.89318e-10
-3.57578e-08
-5.44904e-15
9.599e-10
-3.4578e-08
-5.28393e-15
2.33317e-09
-3.32866e-08
-5.08077e-15
3.71824e-09
-3.19075e-08
-4.65245e-15
5.1052e-09
-3.04588e-08
-4.80826e-15
6.48636e-09
-2.89566e-08
-4.79738e-15
7.85626e-09
-2.74166e-08
-4.71098e-15
9.21173e-09
-2.58513e-08
-4.62562e-15
1.05518e-08
-2.42719e-08
-4.5393e-15
1.18781e-08
-2.26841e-08
-4.45756e-15
1.31946e-08
-2.10912e-08
-4.37509e-15
1.45078e-08
-1.949e-08
-4.29805e-15
1.58271e-08
-1.78671e-08
-4.21907e-15
1.71643e-08
-1.62143e-08
-4.14784e-15
1.85335e-08
-1.44911e-08
-4.07554e-15
1.99506e-08
-1.26624e-08
-4.00636e-15
2.14318e-08
-1.06595e-08
-3.93588e-15
2.29915e-08
-8.39621e-09
-3.85935e-15
2.46391e-08
-5.75813e-09
-3.70678e-15
2.63719e-08
-2.57969e-09
-3.91265e-15
2.81633e-08
1.33876e-09
-3.61119e-15
2.99435e-08
6.23831e-09
-3.29235e-15
3.15739e-08
1.2362e-08
-3.48822e-15
3.28165e-08
1.98775e-08
-3.1944e-15
3.33172e-08
2.86922e-08
-3.42587e-15
3.26389e-08
3.82344e-08
-2.87336e-15
3.03823e-08
4.72432e-08
-2.88619e-15
2.63907e-08
5.38378e-08
-2.53679e-15
2.09286e-08
5.61381e-08
-2.28461e-15
1.46698e-08
5.32243e-08
-2.32776e-15
8.45447e-09
4.56134e-08
-2.0271e-15
3.08823e-09
3.40759e-08
-1.86044e-15
1.60687e-08
-1.30688e-15
-7.15237e-09
-3.92297e-08
-6.12552e-15
-6.7179e-09
-3.97606e-08
-6.15744e-15
-6.13882e-09
-4.00329e-08
-6.06849e-15
-5.4269e-09
-4.00495e-08
-6.02739e-15
-4.5962e-09
-3.98296e-08
-5.93287e-15
-3.66232e-09
-3.9385e-08
-5.84737e-15
-2.64125e-09
-3.87371e-08
-5.68618e-15
-1.54876e-09
-3.79052e-08
-5.56507e-15
-4.00035e-10
-3.69065e-08
-5.42798e-15
7.90621e-10
-3.57687e-08
-5.27716e-15
2.01009e-09
-3.4506e-08
-5.0992e-15
3.2466e-09
-3.3144e-08
-4.70194e-15
4.4903e-09
-3.17025e-08
-4.84265e-15
5.73324e-09
-3.01995e-08
-4.81634e-15
6.96945e-09
-2.86528e-08
-4.72337e-15
8.19498e-09
-2.70768e-08
-4.63269e-15
9.40791e-09
-2.54849e-08
-4.54221e-15
1.06084e-08
-2.38847e-08
-4.45564e-15
1.17992e-08
-2.2282e-08
-4.37064e-15
1.29852e-08
-2.0676e-08
-4.29173e-15
1.41741e-08
-1.90559e-08
-4.21194e-15
1.53765e-08
-1.74169e-08
-4.14126e-15
1.66061e-08
-1.57206e-08
-4.07045e-15
1.78792e-08
-1.39356e-08
-4.00404e-15
1.92144e-08
-1.19947e-08
-3.93715e-15
2.06314e-08
-9.81304e-09
-3.86486e-15
2.21486e-08
-7.27545e-09
-3.73342e-15
2.37777e-08
-4.20869e-09
-3.91245e-15
2.55142e-08
-3.97881e-10
-3.62892e-15
2.73196e-08
4.43285e-09
-3.34454e-15
2.90933e-08
1.05884e-08
-3.52864e-15
3.06355e-08
1.83353e-08
-3.27098e-15
3.16128e-08
2.77149e-08
-3.49378e-15
3.15648e-08
3.82825e-08
-3.00889e-15
3.00033e-08
4.88046e-08
-3.02535e-15
2.66269e-08
5.72142e-08
-2.7015e-15
2.15563e-08
6.12087e-08
-2.48524e-15
1.53949e-08
5.93858e-08
-2.53975e-15
9.01713e-09
5.19912e-08
-2.28801e-15
3.34157e-09
3.97514e-08
-2.13018e-15
1.94103e-08
-1.56705e-15
-6.09758e-09
-3.9435e-08
-6.51727e-15
-5.75907e-09
-4.00992e-08
-6.40089e-15
-5.292e-09
-4.04999e-08
-6.26439e-15
-4.70462e-09
-4.06369e-08
-6.18203e-15
-4.00765e-09
-4.05265e-08
-6.03207e-15
-3.21369e-09
-4.0179e-08
-5.90713e-15
-2.33616e-09
-3.96146e-08
-5.72677e-15
-1.38862e-09
-3.88528e-08
-5.59378e-15
-3.8433e-10
-3.79108e-08
-5.44731e-15
6.64083e-10
-3.68171e-08
-5.29433e-15
1.74471e-09
-3.55867e-08
-5.12895e-15
2.84659e-09
-3.42459e-08
-4.75142e-15
3.96021e-09
-3.28161e-08
-4.87112e-15
5.0776e-09
-3.13169e-08
-4.82879e-15
6.19255e-09
-2.97677e-08
-4.73029e-15
7.30065e-09
-2.81849e-08
-4.63556e-15
8.39919e-09
-2.65834e-08
-4.5423e-15
9.48739e-09
-2.49729e-08
-4.45172e-15
1.05666e-08
-2.33612e-08
-4.36469e-15
1.16404e-08
-2.17498e-08
-4.28401e-15
1.27148e-08
-2.01302e-08
-4.2032e-15
1.37988e-08
-1.85009e-08
-4.13266e-15
1.49045e-08
-1.68263e-08
-4.0625e-15
1.60474e-08
-1.50786e-08
-3.99779e-15
1.72465e-08
-1.31938e-08
-3.93311e-15
1.85234e-08
-1.10899e-08
-3.86368e-15
1.99018e-08
-8.65398e-09
-3.749e-15
2.1403e-08
-5.70979e-09
-3.89857e-15
2.30391e-08
-2.03405e-09
-3.6329e-15
2.47977e-08
2.67423e-09
-3.37828e-15
2.6615e-08
8.77117e-09
-3.54714e-15
2.83351e-08
1.66151e-08
-3.32537e-15
2.96627e-08
2.63873e-08
-3.5397e-15
3.01422e-08
3.7803e-08
-3.13067e-15
2.92264e-08
4.97203e-08
-3.14832e-15
2.64842e-08
5.99564e-08
-2.86941e-15
2.18803e-08
6.58125e-08
-2.69813e-15
1.59153e-08
6.53509e-08
-2.76842e-15
9.46637e-09
5.84401e-08
-2.56588e-15
3.55197e-09
4.56658e-08
-2.43517e-15
2.29623e-08
-1.87671e-15
-5.18356e-09
-3.95829e-08
-6.41633e-15
-4.92022e-09
-4.03625e-08
-6.21646e-15
-4.54367e-09
-4.08764e-08
-6.03021e-15
-4.0593e-09
-4.11213e-08
-6.01789e-15
-3.47499e-09
-4.11109e-08
-5.92126e-15
-2.80067e-09
-4.08533e-08
-5.82022e-15
-2.04743e-09
-4.03678e-08
-5.66788e-15
-1.2268e-09
-3.96734e-08
-5.55683e-15
-3.50253e-10
-3.87873e-08
-5.42345e-15
5.71228e-10
-3.77386e-08
-5.28438e-15
1.52709e-09
-3.65425e-08
-5.14125e-15
2.50737e-09
-3.52262e-08
-4.78956e-15
3.50315e-09
-3.38119e-08
-4.89126e-15
4.50668e-09
-3.23204e-08
-4.83548e-15
5.51173e-09
-3.07728e-08
-4.73352e-15
6.51358e-09
-2.91867e-08
-4.63602e-15
7.50907e-09
-2.75789e-08
-4.54132e-15
8.49666e-09
-2.59606e-08
-4.4471e-15
9.47672e-09
-2.43413e-08
-4.35862e-15
1.04515e-08
-2.27246e-08
-4.27622e-15
1.14254e-08
-2.11041e-08
-4.19438e-15
1.2406e-08
-1.94815e-08
-4.12371e-15
1.34034e-08
-1.78237e-08
-4.05377e-15
1.44316e-08
-1.61068e-08
-3.99e-15
1.55084e-08
-1.42706e-08
-3.92645e-15
1.66554e-08
-1.22368e-08
-3.85891e-15
1.78985e-08
-9.89714e-09
-3.75651e-15
1.92643e-08
-7.07557e-09
-3.87985e-15
2.07762e-08
-3.54599e-09
-3.62596e-15
2.24417e-08
1.00869e-09
-3.39366e-15
2.4229e-08
6.98399e-09
-3.53899e-15
2.60261e-08
1.48179e-08
-3.35322e-15
2.75852e-08
2.48282e-08
-3.5768e-15
2.84788e-08
3.69095e-08
-3.20343e-15
2.8132e-08
5.0067e-08
-3.25266e-15
2.60081e-08
6.20803e-08
-3.03783e-15
2.19161e-08
6.99045e-08
-2.92358e-15
1.62288e-08
7.10382e-08
-3.0147e-15
9.79508e-09
6.48739e-08
-2.87385e-15
3.71489e-09
5.17459e-08
-2.78376e-15
2.66772e-08
-2.23338e-15
-4.3941e-09
-3.96884e-08
-6.50035e-15
-4.18939e-09
-4.05672e-08
-6.3864e-15
-3.88577e-09
-4.11801e-08
-6.15344e-15
-3.48636e-09
-4.15207e-08
-6.07616e-15
-2.99669e-09
-4.16005e-08
-5.98373e-15
-2.42435e-09
-4.14256e-08
-5.87028e-15
-1.77834e-09
-4.10138e-08
-5.70429e-15
-1.06834e-09
-4.03834e-08
-5.5824e-15
-3.0421e-10
-3.95515e-08
-5.44327e-15
5.04556e-10
-3.85474e-08
-5.30168e-15
1.34876e-09
-3.73867e-08
-5.16851e-15
2.21959e-09
-3.6097e-08
-4.83257e-15
3.1089e-09
-3.47012e-08
-4.91189e-15
4.00935e-09
-3.32209e-08
-4.84102e-15
4.91484e-09
-3.16782e-08
-4.73539e-15
5.82057e-09
-3.00925e-08
-4.63542e-15
6.72308e-09
-2.84814e-08
-4.54009e-15
7.62032e-09
-2.68578e-08
-4.44245e-15
8.51187e-09
-2.52328e-08
-4.35296e-15
9.39892e-09
-2.36117e-08
-4.269e-15
1.02847e-08
-2.19898e-08
-4.18625e-15
1.1175e-08
-2.03719e-08
-4.11531e-15
1.20784e-08
-1.87269e-08
-4.04528e-15
1.30067e-08
-1.70352e-08
-3.982e-15
1.3976e-08
-1.52399e-08
-3.91895e-15
1.50067e-08
-1.32674e-08
-3.85252e-15
1.61243e-08
-1.10149e-08
-3.75903e-15
1.73579e-08
-8.30917e-09
-3.85363e-15
1.87374e-08
-4.92551e-09
-3.60782e-15
2.02842e-08
-5.38107e-10
-3.38399e-15
2.19917e-08
5.27648e-09
-3.49689e-15
2.37879e-08
1.30216e-08
-3.34854e-15
2.54757e-08
2.31405e-08
-3.57972e-15
2.66714e-08
3.57138e-08
-3.26911e-15
2.68015e-08
4.99369e-08
-3.34682e-15
2.52527e-08
6.36291e-08
-3.2097e-15
2.16895e-08
7.34677e-08
-3.16582e-15
1.63417e-08
7.63861e-08
-3.30804e-15
1.0001e-08
7.12146e-08
-3.22714e-15
3.82769e-09
5.79192e-08
-3.18928e-15
3.05049e-08
-2.65547e-15
-3.71405e-09
-3.97628e-08
-6.47364e-15
-3.55483e-09
-4.07265e-08
-6.38498e-15
-3.30979e-09
-4.14251e-08
-6.1901e-15
-2.98033e-09
-4.18501e-08
-6.04324e-15
-2.57001e-09
-4.20108e-08
-5.92322e-15
-2.08442e-09
-4.19112e-08
-5.83451e-15
-1.53067e-09
-4.15676e-08
-5.67586e-15
-9.16795e-10
-4.09973e-08
-5.55927e-15
-2.51211e-10
-4.0217e-08
-5.42894e-15
4.57909e-10
-3.92565e-08
-5.29662e-15
1.20262e-09
-3.81314e-08
-5.18152e-15
1.97528e-09
-3.68697e-08
-4.86132e-15
2.76862e-09
-3.54946e-08
-4.92322e-15
3.57591e-09
-3.40282e-08
-4.8434e-15
4.39131e-09
-3.24937e-08
-4.73586e-15
5.21008e-09
-3.09112e-08
-4.63419e-15
6.02862e-09
-2.93e-08
-4.53621e-15
6.84454e-09
-2.76738e-08
-4.43817e-15
7.65688e-09
-2.60452e-08
-4.34815e-15
8.46602e-09
-2.44209e-08
-4.26269e-15
9.27413e-09
-2.27979e-08
-4.17919e-15
1.00856e-08
-2.11834e-08
-4.10787e-15
1.09073e-08
-1.95486e-08
-4.03768e-15
1.17492e-08
-1.78772e-08
-3.97448e-15