/*--------------------------------*- C++ -*----------------------------------*\
| =========                 |                                                 |
| \\      /  F ield         | OpenFOAM: The Open Source CFD Toolbox           |
|  \\    /   O peration     | Version:  v2012                                 |
|   \\  /    A nd           | Website:  www.openfoam.com                      |
|    \\/     M anipulation  |                                                 |
\*---------------------------------------------------------------------------*/
FoamFile
{
    version     2.0;
    format      ascii;
    class       surfaceScalarField;
    location    "0.85";
    object      phi;
}
// * * * * * * * * * * * * * * * * * * * * * * * * * * * * * * * * * * * * * //

dimensions      [0 3 -1 0 0 0 0];
oriented        oriented;


internalField   nonuniform List<scalar> 
8134
(
-3.43072e-08
-7.8457e-09
-3.55765e-15
-2.75879e-08
-6.71924e-09
-2.99053e-15
-2.17959e-08
-5.79198e-09
-2.67239e-15
-1.67937e-08
-5.00225e-09
-2.5137e-15
-1.24775e-08
-4.31622e-09
-2.29878e-15
-8.76719e-09
-3.71028e-09
-2.04857e-15
-5.59596e-09
-3.17123e-09
-1.93158e-15
-2.90608e-09
-2.68988e-09
-1.66708e-15
-6.45385e-10
-2.2607e-09
-1.45268e-15
1.23623e-09
-1.88162e-09
-1.23348e-15
2.78263e-09
-1.54639e-09
-1.08383e-15
4.03536e-09
-1.25273e-09
-9.56187e-16
5.03201e-09
-9.9664e-10
-8.98751e-16
5.80731e-09
-7.75317e-10
2.24016e-16
6.39243e-09
-5.85139e-10
-2.49948e-16
6.81495e-09
-4.22515e-10
-3.33125e-16
7.09903e-09
-2.84079e-10
-3.31627e-16
7.26575e-09
-1.66697e-10
-2.86785e-16
7.33333e-09
-6.75804e-11
-3.02739e-16
7.31704e-09
1.62576e-11
-3.0742e-16
7.2306e-09
8.64457e-11
-3.16455e-16
7.08501e-09
1.45562e-10
-3.02355e-16
6.88946e-09
1.95589e-10
-2.91609e-16
6.65093e-09
2.38496e-10
-2.73848e-16
6.37502e-09
2.75932e-10
-2.6221e-16
6.06529e-09
3.09708e-10
-2.41932e-16
5.72405e-09
3.41239e-10
-2.25886e-16
5.35232e-09
3.71761e-10
-2.01445e-16
4.94988e-09
4.0241e-10
-1.7964e-16
4.51681e-09
4.33089e-10
-2.48495e-16
4.0534e-09
4.63395e-10
-1.43054e-16
3.56206e-09
4.91339e-10
-9.6778e-17
3.04831e-09
5.13761e-10
-1.61443e-16
2.52196e-09
5.26342e-10
-1.63833e-16
1.9982e-09
5.23768e-10
-2.18562e-16
1.49642e-09
5.0178e-10
-1.26328e-16
1.03802e-09
4.58397e-10
-3.95755e-17
6.42542e-10
3.95477e-10
1.24606e-16
3.23936e-10
3.18605e-10
2.08916e-16
8.89183e-11
2.35018e-10
-2.54772e-16
-5.451e-11
1.43429e-10
-6.53693e-16
-8.78852e-11
3.33764e-11
-4.05475e-16
-8.78859e-11
2.14826e-16
-4.38196e-08
-1.51502e-08
-6.58534e-15
-3.7081e-08
-1.34579e-08
-5.93769e-15
-3.08394e-08
-1.20335e-08
-5.51875e-15
-2.50438e-08
-1.07979e-08
-5.30158e-15
-1.96571e-08
-9.70281e-09
-5.0116e-15
-1.46577e-08
-8.70974e-09
-4.6584e-15
-1.00327e-08
-7.79619e-09
-4.4399e-15
-5.7775e-09
-6.94513e-09
-3.99198e-15
-1.89089e-09
-6.14731e-09
-3.59439e-15
1.6267e-09
-5.3992e-09
-3.22465e-15
4.77566e-09
-4.69535e-09
-2.93705e-15
7.55876e-09
-4.03583e-09
-2.69042e-15
9.98112e-09
-3.41899e-09
-2.65955e-15
1.20523e-08
-2.84659e-09
-1.23467e-15
1.37862e-08
-2.31904e-09
-1.26041e-15
1.52e-08
-1.83631e-09
-1.1699e-15
1.63139e-08
-1.39798e-09
-1.10726e-15
1.71503e-08
-1.00299e-09
-1.01262e-15
1.77324e-08
-6.49711e-10
-9.96258e-16
1.80843e-08
-3.35758e-10
-9.95464e-16
1.82287e-08
-5.79598e-11
-9.81606e-16
1.81881e-08
1.86083e-10
-9.35635e-16
1.79825e-08
4.01358e-10
-8.90572e-16
1.76284e-08
5.9245e-10
-8.40329e-16
1.71405e-08
7.63889e-10
-7.9821e-16
1.65291e-08
9.21096e-10
-7.46509e-16
1.58016e-08
1.06879e-09
-6.93893e-16
1.4962e-08
1.21142e-09
-6.42243e-16
1.40109e-08
1.35339e-09
-5.61878e-16
1.29489e-08
1.49515e-09
-6.9254e-16
1.17762e-08
1.63603e-09
-4.69016e-16
1.04979e-08
1.76963e-09
-3.31903e-16
9.12685e-09
1.88484e-09
-4.25913e-16
7.68769e-09
1.96547e-09
-3.84215e-16
6.22113e-09
1.99035e-09
-4.64144e-16
4.78222e-09
1.94069e-09
-3.02599e-16
3.43544e-09
1.80517e-09
-3.19381e-16
2.24446e-09
1.58646e-09
-2.95788e-17
1.25979e-09
1.30327e-09
1.21851e-16
5.13092e-10
9.81719e-10
-4.21776e-16
3.01507e-11
6.26372e-10
-4.26676e-16
-1.40094e-10
2.03623e-10
-5.93421e-16
-2.27981e-10
-1.38113e-17
-4.22811e-08
-2.10742e-08
-8.01361e-15
-3.65872e-08
-1.91518e-08
-7.51982e-15
-3.11252e-08
-1.74955e-08
-7.04087e-15
-2.58852e-08
-1.60379e-08
-6.75135e-15
-2.08565e-08
-1.47315e-08
-6.40496e-15
-1.60321e-08
-1.35342e-08
-6.03865e-15
-1.14092e-08
-1.2419e-08
-5.80889e-15
-6.9916e-09
-1.13628e-08
-5.34527e-15
-2.78771e-09
-1.03512e-08
-4.94443e-15
1.18879e-09
-9.3757e-09
-4.56455e-15
4.92223e-09
-8.42878e-09
-4.2484e-15
8.39469e-09
-7.50828e-09
-3.95337e-15
1.15877e-08
-6.61198e-09
-3.91762e-15
1.44842e-08
-5.74312e-09
-2.40834e-15
1.70701e-08
-4.90497e-09
-2.24827e-15
1.93351e-08
-4.10134e-09
-2.00032e-15
2.12737e-08
-3.33652e-09
-1.88177e-15
2.28852e-08
-2.61447e-09
-1.75563e-15
2.4174e-08
-1.93856e-09
-1.7184e-15
2.5149e-08
-1.31086e-09
-1.70396e-15
2.58233e-08
-7.32224e-10
-1.67714e-15
2.62114e-08
-2.02127e-10
-1.61252e-15
2.63306e-08
2.82293e-10
-1.54045e-15
2.61974e-08
7.25592e-10
-1.46244e-15
2.58275e-08
1.13382e-09
-1.39347e-15
2.52333e-08
1.51519e-09
-1.31791e-15
2.44243e-08
1.87783e-09
-1.24275e-15
2.34057e-08
2.2301e-09
-1.16398e-15
2.2178e-08
2.58095e-09
-1.02518e-15
2.07409e-08
2.93232e-09
-1.2299e-15
1.90929e-08
3.284e-09
-9.16132e-16
1.72384e-08
3.62408e-09
-6.86956e-16
1.51932e-08
3.93013e-09
-8.06904e-16
1.29911e-08
4.16749e-09
-7.09098e-16
1.0693e-08
4.28848e-09
-8.14769e-16
8.38627e-09
4.24744e-09
-5.48191e-16
6.17909e-09
4.01234e-09
-5.28549e-16
4.18488e-09
3.58066e-09
-3.29316e-16
2.50023e-09
2.98792e-09
-2.3968e-16
1.19134e-09
2.29061e-09
-4.49523e-16
3.05225e-10
1.51249e-09
-4.5296e-16
-8.98073e-11
5.98655e-10
-1.68644e-16
-3.17788e-10
-3.89902e-16
-3.87012e-08
-2.57366e-08
-7.60835e-15
-3.40172e-08
-2.38357e-08
-7.18715e-15
-2.93729e-08
-2.21397e-08
-6.80665e-15
-2.48015e-08
-2.06094e-08
-6.69635e-15
-2.03206e-08
-1.92124e-08
-6.52308e-15
-1.59403e-08
-1.79145e-08
-6.33229e-15
-1.16664e-08
-1.66929e-08
-6.23402e-15
-7.50463e-09
-1.55245e-08
-5.86671e-15
-3.4617e-09
-1.43941e-08
-5.54949e-15
4.51818e-10
-1.32892e-08
-5.23156e-15
4.2255e-09
-1.22025e-08
-4.9386e-15
7.84251e-09
-1.11253e-08
-4.64574e-15
1.12851e-08
-1.00546e-08
-4.53014e-15
1.45324e-08
-8.99042e-09
-3.05965e-15
1.75622e-08
-7.93484e-09
-2.89231e-15
2.03521e-08
-6.89123e-09
-2.64845e-15
2.28803e-08
-5.86469e-09
-2.53342e-15
2.5127e-08
-4.86111e-09
-2.4131e-15
2.70754e-08
-3.88695e-09
-2.37128e-15
2.87125e-08
-2.94812e-09
-2.35349e-15
3.00302e-08
-2.04994e-09
-2.32251e-15
3.1024e-08
-1.19606e-09
-2.24361e-15
3.16941e-08
-3.87532e-10
-2.14943e-15
3.20426e-08
3.7693e-10
-2.047e-15
3.20748e-08
1.10169e-09
-1.95374e-15
3.17953e-08
1.79463e-09
-1.8561e-15
3.12075e-08
2.46563e-09
-1.75965e-15
3.03118e-08
3.12595e-09
-1.65954e-15
2.91036e-08
3.7889e-09
-1.46169e-15
2.75775e-08
4.45855e-09
-1.7223e-15
2.57256e-08
5.1358e-09
-1.34855e-15
2.35465e-08
5.80315e-09
-1.03284e-15
2.1052e-08
6.42472e-09
-1.17796e-15
1.82776e-08
6.94185e-09
-1.01886e-15
1.52964e-08
7.26967e-09
-1.14997e-15
1.22229e-08
7.321e-09
-7.91222e-16
9.20812e-09
7.02706e-09
-7.76411e-16
6.42054e-09
6.36824e-09
-5.47428e-16
4.01309e-09
5.39538e-09
-5.1433e-16
2.09718e-09
4.20652e-09
-5.06201e-16
7.46076e-10
2.8636e-09
-7.95699e-16
4.3318e-11
1.30141e-09
1.40827e-17
-2.7447e-10
-8.80562e-17
-3.47366e-08
-2.93114e-08
-7.7153e-15
-3.09697e-08
-2.76026e-08
-7.53634e-15
-2.70975e-08
-2.60119e-08
-7.17934e-15
-2.31797e-08
-2.45272e-08
-6.99469e-15
-1.92572e-08
-2.31348e-08
-6.71417e-15
-1.53583e-08
-2.18134e-08
-6.48093e-15
-1.15018e-08
-2.05494e-08
-6.36014e-15
-7.70136e-09
-1.9325e-08
-6.0182e-15
-3.96697e-09
-1.81285e-08
-5.74527e-15
-3.07848e-10
-1.69483e-08
-5.45947e-15
3.26806e-09
-1.57784e-08
-5.20701e-15
6.75121e-09
-1.46084e-08
-4.93249e-15
1.01307e-08
-1.3434e-08
-4.72382e-15
1.3393e-08
-1.22528e-08
-3.35132e-15
1.65221e-08
-1.10641e-08
-3.26354e-15
1.94994e-08
-9.86851e-09
-3.12104e-15
2.23035e-08
-8.6688e-09
-3.0561e-15
2.49113e-08
-7.46879e-09
-2.96915e-15
2.72982e-08
-6.27384e-09
-2.93965e-15
2.94394e-08
-5.0895e-09
-2.92397e-15
3.13115e-08
-3.92201e-09
-2.88938e-15
3.2892e-08
-2.77671e-09
-2.8038e-15
3.41617e-08
-1.657e-09
-2.69821e-15
3.51033e-08
-5.6483e-10
-2.58125e-15
3.57022e-08
5.02927e-10
-2.47102e-15
3.59449e-08
1.55176e-09
-2.35648e-15
3.58196e-08
2.59099e-09
-2.24272e-15
3.53125e-08
3.6332e-09
-2.12679e-15
3.44062e-08
4.69503e-09
-1.87726e-15
3.30818e-08
5.78301e-09
-2.18309e-15
3.13178e-08
6.8997e-09
-1.76558e-15
2.90982e-08
8.02274e-09
-1.37899e-15
2.64209e-08
9.10207e-09
-1.54572e-15
2.33119e-08
1.00508e-08
-1.32329e-15
1.98448e-08
1.07368e-08
-1.47623e-15
1.61512e-08
1.10146e-08
-1.02886e-15
1.24207e-08
1.07575e-08
-1.02826e-15
8.87977e-09
9.90921e-09
-7.84145e-16
5.74759e-09
8.52755e-09
-7.248e-16
3.19334e-09
6.76078e-09
-8.26971e-16
1.32482e-09
4.73212e-09
-8.51841e-16
2.3981e-10
2.38642e-09
-1.99e-17
-3.46609e-11
1.58337e-17
-3.07071e-08
-3.19588e-08
-7.10625e-15
-2.77589e-08
-3.05507e-08
-6.94435e-15
-2.46026e-08
-2.91681e-08
-6.63962e-15
-2.13098e-08
-2.78202e-08
-6.56974e-15
-1.79345e-08
-2.65101e-08
-6.40269e-15
-1.4518e-08
-2.52298e-08
-6.29784e-15
-1.10908e-08
-2.39766e-08
-6.26691e-15
-7.67562e-09
-2.27402e-08
-6.00415e-15
-4.28915e-09
-2.1515e-08
-5.78375e-15
-9.43837e-10
-2.02936e-08
-5.52943e-15
2.34951e-09
-1.90717e-08
-5.30125e-15
5.58455e-09
-1.78435e-08
-5.03317e-15
8.7542e-09
-1.66036e-08
-4.74698e-15
1.18514e-08
-1.535e-08
-3.50375e-15
1.4868e-08
-1.40808e-08
-3.517e-15
1.77941e-08
-1.27946e-08
-3.48826e-15
2.06168e-08
-1.14915e-08
-3.47535e-15
2.33202e-08
-1.01722e-08
-3.42348e-15
2.5885e-08
-8.83857e-09
-3.40842e-15
2.8288e-08
-7.4927e-09
-3.39337e-15
3.05039e-08
-6.13783e-09
-3.35438e-15
3.25038e-08
-4.7768e-09
-3.26694e-15
3.42581e-08
-3.41108e-09
-3.15989e-15
3.5736e-08
-2.04287e-09
-3.03952e-15
3.69063e-08
-6.67304e-10
-2.92222e-15
3.77365e-08
7.21487e-10
-2.79909e-15
3.81936e-08
2.13382e-09
-2.67526e-15
3.82441e-08
3.58294e-09
-2.5499e-15
3.78502e-08
5.08873e-09
-2.26254e-15
3.69718e-08
6.66153e-09
-2.5853e-15
3.55645e-08
8.30693e-09
-2.15527e-15
3.3587e-08
1.00001e-08
-1.71805e-15
3.10112e-08
1.1678e-08
-1.90175e-15
2.78379e-08
1.3224e-08
-1.62054e-15
2.41248e-08
1.445e-08
-1.79185e-15
2.00046e-08
1.51347e-08
-1.26307e-15
1.56947e-08
1.50673e-08
-1.27514e-15
1.14773e-08
1.41267e-08
-1.0171e-15
7.64554e-09
1.23593e-08
-9.03154e-16
4.43983e-09
9.9665e-09
-1.03065e-15
2.01457e-09
7.15739e-09
-5.20674e-16
4.8933e-10
3.91165e-09
-5.0332e-16
4.54668e-10
1.2635e-16
-2.68523e-08
-3.38709e-08
-7.37074e-15
-2.45908e-08
-3.28122e-08
-7.29131e-15
-2.20628e-08
-3.16961e-08
-6.90446e-15
-1.93384e-08
-3.05447e-08
-6.75024e-15
-1.64749e-08
-2.93735e-08
-6.49712e-15
-1.35197e-08
-2.81851e-08
-6.34592e-15
-1.05097e-08
-2.69866e-08
-6.27008e-15
-7.47469e-09
-2.57753e-08
-6.00567e-15
-4.43744e-09
-2.45522e-08
-5.79045e-15
-1.41534e-09
-2.33157e-08
-5.54932e-15
1.57736e-09
-2.20644e-08
-5.33453e-15
4.53217e-09
-2.07983e-08
-5.07432e-15
7.44217e-09
-1.95136e-08
-4.74559e-15
1.03025e-08
-1.82104e-08
-3.64547e-15
1.31095e-08
-1.68877e-08
-3.74849e-15
1.58591e-08
-1.55442e-08
-3.80022e-15
1.85467e-08
-1.41791e-08
-3.81487e-15
2.11654e-08
-1.27909e-08
-3.78266e-15
2.37056e-08
-1.13788e-08
-3.7725e-15
2.61536e-08
-9.94074e-09
-3.75201e-15
2.84913e-08
-8.47557e-09
-3.70731e-15
3.06955e-08
-6.98113e-09
-3.62133e-15
3.27381e-08
-5.4535e-09
-3.51953e-15
3.45864e-08
-3.89127e-09
-3.40458e-15
3.62031e-08
-2.28396e-09
-3.28922e-15
3.75463e-08
-6.21803e-10
-3.16632e-15
3.85681e-08
1.11206e-09
-3.041e-15
3.92157e-08
2.93554e-09
-2.91369e-15
3.94305e-08
4.8736e-09
-2.60651e-15
3.9148e-08
6.94421e-09
-2.94473e-15
3.82951e-08
9.15976e-09
-2.50765e-15
3.67968e-08
1.14982e-08
-2.04031e-15
3.4586e-08
1.38889e-08
-2.23553e-15
3.16223e-08
1.61876e-08
-1.90539e-15
2.7926e-08
1.81464e-08
-2.09235e-15
2.36091e-08
1.94517e-08
-1.49506e-15
1.88973e-08
1.9779e-08
-1.51738e-15
1.41189e-08
1.89052e-08
-1.2434e-15
9.64359e-09
1.68345e-08
-1.08761e-15
5.79516e-09
1.38149e-08
-1.22019e-15
2.78947e-09
1.01631e-08
-6.44242e-16
7.79713e-10
5.92139e-09
-1.01964e-15
1.23438e-09
1.39174e-16
-2.32752e-08
-3.52101e-08
-6.56308e-15
-2.15747e-08
-3.45127e-08
-6.55594e-15
-1.95812e-08
-3.36895e-08
-6.31194e-15
-1.73572e-08
-3.27687e-08
-6.30112e-15
-1.49574e-08
-3.17733e-08
-6.17304e-15
-1.24293e-08
-3.07132e-08
-6.14537e-15
-9.81241e-09
-2.96034e-08
-6.14761e-15
-7.13998e-09
-2.84477e-08
-5.95794e-15
-4.43885e-09
-2.72534e-08
-5.77501e-15
-1.73042e-09
-2.60242e-08
-5.55749e-15
9.67624e-10
-2.47625e-08
-5.35641e-15
3.64353e-09
-2.34742e-08
-5.10233e-15
6.2883e-09
-2.21584e-08
-4.76727e-15
8.89645e-09
-2.08185e-08
-3.80876e-15
1.14648e-08
-1.94561e-08
-3.9745e-15
1.39917e-08
-1.80712e-08
-4.06497e-15
1.64767e-08
-1.6664e-08
-4.08133e-15
1.89192e-08
-1.52333e-08
-4.05223e-15
2.13175e-08
-1.37771e-08
-4.03635e-15
2.36674e-08
-1.22908e-08
-4.00533e-15
2.59615e-08
-1.07697e-08
-3.95456e-15
2.8187e-08
-9.20675e-09
-3.87181e-15
3.03255e-08
-7.59181e-09
-3.7784e-15
3.23521e-08
-5.91794e-09
-3.67335e-15
3.42342e-08
-4.16601e-09
-3.5662e-15
3.59319e-08
-2.31963e-09
-3.45035e-15
3.73956e-08
-3.5167e-10
-3.33106e-15
3.85639e-08
1.76744e-09
-3.20846e-15
3.93645e-08
4.07278e-09
-2.90066e-15
3.97129e-08
6.59594e-09
-3.23589e-15
3.95096e-08
9.36299e-09
-2.81199e-15
3.86438e-08
1.2364e-08
-2.33428e-15
3.70022e-08
1.55306e-08
-2.53797e-15
3.44893e-08
1.87004e-08
-2.17307e-15
3.10669e-08
2.15688e-08
-2.37391e-15
2.67994e-08
2.37193e-08
-1.72474e-15
2.1894e-08
2.46843e-08
-1.75364e-15
1.67054e-08
2.40938e-08
-1.46086e-15
1.16742e-08
2.18657e-08
-1.26937e-15
7.21598e-09
1.82732e-08
-1.39053e-15
3.62392e-09
1.37552e-08
-8.76946e-16
1.10022e-09
8.44508e-09
-1.28644e-15
2.3346e-09
1.17009e-17
-2.00429e-08
-3.61203e-08
-6.75651e-15
-1.87855e-08
-3.57701e-08
-6.72774e-15
-1.7233e-08
-3.5242e-08
-6.54591e-15
-1.54367e-08
-3.4565e-08
-6.55038e-15
-1.34449e-08
-3.37651e-08
-6.37038e-15
-1.13017e-08
-3.28564e-08
-6.27885e-15
-9.04581e-09
-3.18593e-08
-6.20557e-15
-6.71099e-09
-3.07825e-08
-5.98565e-15
-4.32584e-09
-2.96385e-08
-5.78237e-15
-1.91408e-09
-2.84359e-08
-5.5647e-15
5.04142e-10
-2.71807e-08
-5.37054e-15
2.91429e-09
-2.58843e-08
-5.12856e-15
5.30482e-09
-2.45489e-08
-4.80969e-15
7.66847e-09
-2.31822e-08
-3.98426e-15
1.00007e-08
-2.17883e-08
-4.18361e-15
1.22997e-08
-2.03702e-08
-4.27875e-15
1.45658e-08
-1.89301e-08
-4.27922e-15
1.68009e-08
-1.74684e-08
-4.24205e-15
1.90077e-08
-1.59838e-08
-4.21405e-15
2.11883e-08
-1.44715e-08
-4.17081e-15
2.33437e-08
-1.29251e-08
-4.11442e-15
2.54713e-08
-1.13344e-08
-4.03522e-15
2.75639e-08
-9.68431e-09
-3.95028e-15
2.96087e-08
-7.96288e-09
-3.85604e-15
3.15848e-08
-6.14198e-09
-3.7597e-15
3.34622e-08
-4.19712e-09
-3.65515e-15
3.52e-08
-2.08951e-09
-3.54665e-15
3.67429e-08
2.24747e-10
-3.43338e-15
3.8017e-08
2.79848e-09
-3.14088e-15
3.893e-08
5.68304e-09
-3.46774e-15
3.93659e-08
8.92696e-09
-3.06377e-15
3.91853e-08
1.25445e-08
-2.59217e-15
3.82308e-08
1.64853e-08
-2.80126e-15
3.63458e-08
2.05853e-08
-2.41782e-15
3.34178e-08
2.44969e-08
-2.62818e-15
2.94368e-08
2.77002e-08
-1.94929e-15
2.45597e-08
2.95613e-08
-1.98193e-15
1.91381e-08
2.95154e-08
-1.66888e-15
1.36677e-08
2.73362e-08
-1.44319e-15
8.65736e-09
2.32835e-08
-1.51961e-15
4.4921e-09
1.79205e-08
-1.06109e-15
1.44061e-09
1.14966e-08
-1.17525e-15
3.77522e-09
-4.3646e-16
-1.71689e-08
-6.32159e-15
-1.62557e-08
-6.31035e-15
-1.50601e-08
-3.64377e-08
-6.15763e-15
-1.36221e-08
-3.6003e-08
-6.20198e-15
-1.1982e-08
-3.54052e-08
-6.09185e-15
-1.01787e-08
-3.46597e-08
-6.08644e-15
-8.24778e-09
-3.37902e-08
-6.07661e-15
-6.22155e-09
-3.28087e-08
-5.92287e-15
-4.12845e-09
-3.17316e-08
-5.75339e-15
-1.99296e-09
-3.05714e-08
-5.55981e-15
1.63168e-10
-2.93368e-08
-5.3801e-15
2.32499e-09
-2.80461e-08
-5.15274e-15
4.47753e-09
-2.67014e-08
-4.85912e-15
6.61197e-09
-2.53167e-08
-4.14872e-15
8.72209e-09
-2.38985e-08
-4.35809e-15
1.08046e-08
-2.24527e-08
-4.43424e-15
1.2859e-08
-2.09845e-08
-4.41668e-15
1.48872e-08
-1.94966e-08
-4.36731e-15
1.6893e-08
-1.79896e-08
-4.32565e-15
1.88815e-08
-1.64601e-08
-4.27101e-15
2.08583e-08
-1.49018e-08
-4.20978e-15
2.28277e-08
-1.33039e-08
-4.1333e-15
2.47918e-08
-1.16483e-08
-4.05515e-15
2.67489e-08
-9.9201e-09
-3.97044e-15
2.86909e-08
-8.0839e-09
-3.88462e-15
3.06018e-08
-6.1081e-09
-3.7924e-15
3.24547e-08
-3.94236e-09
-3.69705e-15
3.42082e-08
-1.52867e-09
-3.59478e-15
3.58019e-08
1.20457e-09
-3.32897e-15
3.71486e-08
4.33646e-09
-3.64018e-15
3.81309e-08
7.94457e-09
-3.26222e-15
3.85953e-08
1.208e-08
-2.81006e-15
3.83524e-08
1.67283e-08
-3.02258e-15
3.71899e-08
2.17476e-08
-2.63639e-15
3.49151e-08
2.67718e-08
-2.86196e-15
3.14239e-08
3.11915e-08
-2.16693e-15
2.67897e-08
3.41954e-08
-2.19984e-15
2.13255e-08
3.49796e-08
-1.86743e-15
1.55553e-08
3.31063e-08
-1.61253e-15
1.00739e-08
2.87649e-08
-1.65569e-15
5.368e-09
2.26264e-08
-1.20317e-15
1.7907e-09
1.50738e-08
-1.02299e-15
5.56592e-09
-6.48424e-16
-1.30848e-08
-3.73496e-08
-6.12044e-15
-1.19417e-08
-3.7146e-08
-6.24198e-15
-1.05997e-08
-3.67472e-08
-6.14097e-15
-9.09133e-09
-3.61681e-08
-6.11365e-15
-7.44809e-09
-3.54335e-08
-6.06663e-15
-5.69953e-09
-3.45573e-08
-5.90619e-15
-3.87249e-09
-3.35586e-08
-5.73401e-15
-1.99098e-09
-3.24529e-08
-5.54862e-15
-7.62156e-11
-3.12516e-08
-5.3796e-15
1.85452e-09
-2.99769e-08
-5.16762e-15
3.78644e-09
-2.86334e-08
-4.90375e-15
5.70867e-09
-2.72389e-08
-4.28957e-15
7.61348e-09
-2.58033e-08
-4.49547e-15
9.49602e-09
-2.43352e-08
-4.54565e-15
1.13543e-08
-2.28428e-08
-4.50848e-15
1.3189e-08
-2.13312e-08
-4.44602e-15
1.50034e-08
-1.9804e-08
-4.39173e-15
1.68028e-08
-1.82596e-08
-4.32738e-15
1.85946e-08
-1.66936e-08
-4.26199e-15
2.03864e-08
-1.50958e-08
-4.18698e-15
2.21859e-08
-1.34477e-08
-4.11323e-15
2.39994e-08
-1.17337e-08
-4.03571e-15
2.58293e-08
-9.91377e-09
-3.95863e-15
2.76728e-08
-7.95165e-09
-3.87714e-15
2.95181e-08
-5.78763e-09
-3.79405e-15
3.13412e-08
-3.35163e-09
-3.70308e-15
3.31007e-08
-5.55097e-10
-3.46905e-15
3.47275e-08
2.70973e-09
-3.76059e-15
3.61172e-08
6.55478e-09
-3.40965e-15
3.71198e-08
1.10774e-08
-2.98728e-15
3.75323e-08
1.63159e-08
-3.20078e-15
3.71029e-08
2.21769e-08
-2.8256e-15
3.55654e-08
2.83094e-08
-3.05615e-15
3.27128e-08
3.40442e-08
-2.38644e-15
2.85089e-08
3.83992e-08
-2.40491e-15
2.31901e-08
4.02984e-08
-2.05736e-15
1.72735e-08
3.90229e-08
-1.78179e-15
1.14215e-08
3.46169e-08
-1.81121e-15
6.2259e-09
2.7822e-08
-1.39307e-15
2.14033e-09
1.91594e-08
-1.20794e-15
7.70625e-09
-8.0202e-16
-1.13127e-08
-3.80387e-08
-6.14867e-15
-1.04095e-08
-3.80493e-08
-6.15419e-15
-9.31663e-09
-3.784e-08
-6.02459e-15
-8.06087e-09
-3.74239e-08
-6.01214e-15
-6.66895e-09
-3.68254e-08
-5.98277e-15
-5.167e-09
-3.60592e-08
-5.85933e-15
-3.57946e-09
-3.51462e-08
-5.70817e-15
-1.92882e-09
-3.41035e-08
-5.54053e-15
-2.35267e-10
-3.29451e-08
-5.38261e-15
1.48308e-09
-3.16952e-08
-5.18225e-15
3.21178e-09
-3.03621e-08
-4.94308e-15
4.93876e-09
-2.89659e-08
-4.40367e-15
6.65512e-09
-2.75197e-08
-4.59797e-15
8.35471e-09
-2.60348e-08
-4.62226e-15
1.00341e-08
-2.45221e-08
-4.56748e-15
1.16924e-08
-2.29896e-08
-4.49367e-15
1.33316e-08
-2.14433e-08
-4.42895e-15
1.49561e-08
-1.98841e-08
-4.35678e-15
1.65728e-08
-1.83103e-08
-4.2877e-15
1.81903e-08
-1.67134e-08
-4.21294e-15
1.98187e-08
-1.50759e-08
-4.14157e-15
2.14684e-08
-1.33836e-08
-4.06892e-15
2.31492e-08
-1.15944e-08
-3.99809e-15
2.48678e-08
-9.67034e-09
-3.92504e-15
2.66256e-08
-7.54546e-09
-3.85168e-15
2.84149e-08
-5.14077e-09
-3.7703e-15
3.02144e-08
-2.35473e-09
-3.56861e-15
3.19786e-08
9.45597e-10
-3.83647e-15
3.36264e-08
4.9069e-09
-3.5125e-15
3.50267e-08
9.67694e-09
-3.12538e-15
3.59834e-08
1.53594e-08
-3.33817e-15
3.62271e-08
2.19331e-08
-2.98552e-15
3.54365e-08
2.91001e-08
-3.22831e-15
3.3307e-08
3.61736e-08
-2.57998e-15
2.96779e-08
4.20282e-08
-2.59503e-15
2.46747e-08
4.53017e-08
-2.23894e-15
1.87677e-08
4.49299e-08
-1.95506e-15
1.26593e-08
4.07253e-08
-1.98318e-15
7.04107e-09
3.34403e-08
-1.60059e-15
2.47945e-09
2.3721e-08
-1.43606e-15
1.01857e-08
-9.62972e-16
-9.73976e-09
-3.8555e-08
-6.05335e-15
-9.02935e-09
-3.87597e-08
-6.10002e-15
-8.14274e-09
-3.87266e-08
-6.00021e-15
-7.10094e-09
-3.84657e-08
-5.99022e-15
-5.92614e-09
-3.80002e-08
-5.95278e-15
-4.64079e-09
-3.73446e-08
-5.83119e-15
-3.26657e-09
-3.65204e-08
-5.67957e-15
-1.82386e-09
-3.55462e-08
-5.52113e-15
-3.31535e-10
-3.44375e-08
-5.37383e-15
1.19317e-09
-3.32199e-08
-5.18738e-15
2.73576e-09
-3.19046e-08
-4.97309e-15
4.28384e-09
-3.0514e-08
-4.49252e-15
5.82781e-09
-2.90636e-08
-4.67302e-15
7.36056e-09
-2.75675e-08
-4.67454e-15
8.87747e-09
-2.6039e-08
-4.60544e-15
1.03764e-08
-2.44885e-08
-4.52224e-15
1.18578e-08
-2.29247e-08
-4.44931e-15
1.33246e-08
-2.13509e-08
-4.37082e-15
1.47824e-08
-1.97681e-08
-4.29847e-15
1.62392e-08
-1.81702e-08
-4.22309e-15
1.77051e-08
-1.65417e-08
-4.15258e-15
1.91925e-08
-1.4871e-08
-4.08289e-15
2.07143e-08
-1.31162e-08
-4.01618e-15
2.22836e-08
-1.12397e-08
-3.9491e-15
2.39111e-08
-9.17291e-09
-3.8829e-15
2.5602e-08
-6.83154e-09
-3.80889e-15
2.73525e-08
-4.10542e-09
-3.63693e-15
2.91404e-08
-8.42245e-10
-3.87881e-15
3.09125e-08
3.13475e-09
-3.57826e-15
3.25664e-08
8.02295e-09
-3.22869e-15
3.39294e-08
1.39965e-08
-3.43741e-15
3.47382e-08
2.11242e-08
-3.11543e-15
3.46416e-08
2.91968e-08
-3.35878e-15
3.32554e-08
3.75598e-08
-2.7506e-15
3.02932e-08
4.49903e-08
-2.76951e-15
2.57452e-08
4.98497e-08
-2.41249e-15
1.99956e-08
5.06794e-08
-2.13668e-15
1.37519e-08
4.69691e-08
-2.16887e-15
7.79075e-09
3.94015e-08
-1.82248e-15
2.79846e-09
2.87132e-08
-1.66156e-15
1.29842e-08
-1.14884e-15
-8.35495e-09
-3.89383e-08
-6.25151e-15
-7.79835e-09
-3.93163e-08
-6.22116e-15
-7.081e-09
-3.94439e-08
-6.07006e-15
-6.21893e-09
-3.93277e-08
-6.01973e-15
-5.23003e-09
-3.89891e-08
-5.95486e-15
-4.13321e-09
-3.84414e-08
-5.83406e-15
-2.94725e-09
-3.77064e-08
-5.67856e-15
-1.69024e-09
-3.68032e-08
-5.52407e-15
-3.79293e-10
-3.57484e-08
-5.38002e-15
9.69705e-10
-3.45689e-08
-5.20009e-15
2.34273e-09
-3.32777e-08
-5.00422e-15
3.72751e-09
-3.18988e-08
-4.56297e-15
5.11416e-09
-3.04503e-08
-4.72729e-15
6.49499e-09
-2.89484e-08
-4.70962e-15
7.86454e-09
-2.74086e-08
-4.62962e-15
9.21965e-09
-2.58436e-08
-4.53933e-15
1.05594e-08
-2.42644e-08
-4.46033e-15
1.18852e-08
-2.26768e-08
-4.37675e-15
1.32014e-08
-2.10842e-08
-4.30161e-15
1.45142e-08
-1.94832e-08
-4.22511e-15
1.58331e-08
-1.78605e-08
-4.15453e-15
1.71699e-08
-1.62079e-08
-4.08641e-15
1.85388e-08
-1.4485e-08
-4.02209e-15
1.99555e-08
-1.26565e-08
-3.95888e-15
2.14364e-08
-1.06538e-08
-3.89745e-15
2.29957e-08
-8.39073e-09
-3.82886e-15
2.4643e-08
-5.75286e-09
-3.68244e-15
2.63755e-08
-2.57463e-09
-3.89599e-15
2.81665e-08
1.34362e-09
-3.61711e-15
2.99464e-08
6.24298e-09
-3.30384e-15
3.15766e-08
1.23665e-08
-3.50496e-15
3.28188e-08
1.98818e-08
-3.21781e-15
3.33193e-08
2.86963e-08
-3.45333e-15
3.26408e-08
3.82384e-08
-2.90912e-15
3.03839e-08
4.7247e-08
-2.92664e-15
2.6392e-08
5.38416e-08
-2.57951e-15
2.09296e-08
5.61418e-08
-2.32701e-15
1.46706e-08
5.32281e-08
-2.36698e-15
8.45501e-09
4.56171e-08
-2.06379e-15
3.0885e-09
3.40797e-08
-1.90258e-15
1.60727e-08
-1.3634e-15
-7.14376e-09
-3.92203e-08
-5.94558e-15
-6.70899e-09
-3.97511e-08
-6.02936e-15
-6.12967e-09
-4.00233e-08
-5.97454e-15
-5.41756e-09
-4.00398e-08
-5.96279e-15
-4.58673e-09
-3.98199e-08
-5.90905e-15
-3.65278e-09
-3.93754e-08
-5.80127e-15
-2.6317e-09
-3.87274e-08
-5.65172e-15
-1.53927e-09
-3.78957e-08
-5.50702e-15
-3.90658e-10
-3.6897e-08
-5.37148e-15
7.99831e-10
-3.57594e-08
-5.20323e-15
2.01909e-09
-3.44969e-08
-5.02873e-15
3.25537e-09
-3.31351e-08
-4.61832e-15
4.49881e-09
-3.16938e-08
-4.76679e-15
5.74146e-09
-3.0191e-08
-4.7334e-15
6.97735e-09
-2.86445e-08
-4.64557e-15
8.20257e-09
-2.70688e-08
-4.55001e-15
9.41515e-09
-2.5477e-08
-4.46662e-15
1.06153e-08
-2.38771e-08
-4.37886e-15
1.18058e-08
-2.22746e-08
-4.30128e-15
1.29914e-08
-2.06688e-08
-4.2234e-15
1.41799e-08
-1.90489e-08
-4.15228e-15
1.5382e-08
-1.74101e-08
-4.08478e-15
1.66112e-08
-1.57142e-08
-4.02168e-15
1.7884e-08
-1.39293e-08
-3.96072e-15
1.92189e-08
-1.19887e-08
-3.90218e-15
2.06355e-08
-9.80723e-09
-3.83717e-15
2.21524e-08
-7.26986e-09
-3.71139e-15
2.37811e-08
-4.20331e-09
-3.89687e-15
2.55174e-08
-3.92709e-10
-3.63553e-15
2.73225e-08
4.43782e-09
-3.35617e-15
2.90959e-08
1.05931e-08
-3.54528e-15
3.06378e-08
1.83399e-08
-3.29405e-15
3.16149e-08
2.77193e-08
-3.52424e-15
3.15666e-08
3.82867e-08
-3.04671e-15
3.00048e-08
4.88087e-08
-3.065e-15
2.66282e-08
5.72182e-08
-2.74348e-15
2.15573e-08
6.12127e-08
-2.52685e-15
1.53957e-08
5.93897e-08
-2.57791e-15
9.01766e-09
5.19952e-08
-2.32367e-15
3.34184e-09
3.97555e-08
-2.17146e-15
1.94145e-08
-1.61143e-15
-6.08988e-09
-3.94259e-08
-6.26786e-15
-5.75105e-09
-4.009e-08
-6.16811e-15
-5.28372e-09
-4.04906e-08
-6.06175e-15
-4.69613e-09
-4.06274e-08
-6.0285e-15
-3.999e-09
-4.0517e-08
-5.94014e-15
-3.20493e-09
-4.01694e-08
-5.81491e-15
-2.32735e-09
-3.9605e-08
-5.66001e-15
-1.37981e-09
-3.88432e-08
-5.51673e-15
-3.75584e-10
-3.79013e-08
-5.3802e-15
6.72712e-10
-3.68077e-08
-5.2162e-15
1.75318e-09
-3.55774e-08
-5.05728e-15
2.85486e-09
-3.42368e-08
-4.66939e-15
3.96826e-09
-3.28072e-08
-4.79874e-15
5.0854e-09
-3.13081e-08
-4.75038e-15
6.20009e-09
-2.97591e-08
-4.65644e-15
7.30789e-09
-2.81765e-08
-4.55705e-15
8.40613e-09
-2.65753e-08
-4.47067e-15
9.49401e-09
-2.4965e-08
-4.37941e-15
1.05729e-08
-2.33535e-08
-4.29981e-15
1.16464e-08
-2.17423e-08
-4.22048e-15
1.27204e-08
-2.01229e-08
-4.14851e-15
1.38041e-08
-1.84939e-08
-4.08111e-15
1.49094e-08
-1.68195e-08
-4.01837e-15
1.60521e-08
-1.5072e-08
-3.95856e-15
1.72508e-08
-1.31875e-08
-3.90164e-15
1.85274e-08
-1.10837e-08
-3.83874e-15
1.99055e-08
-8.64807e-09
-3.72908e-15
2.14064e-08
-5.70411e-09
-3.88502e-15
2.30422e-08
-2.02858e-09
-3.63992e-15
2.48005e-08
2.67948e-09
-3.38982e-15
2.66175e-08
8.77622e-09
-3.56291e-15
2.83374e-08
1.66199e-08
-3.34694e-15
2.96647e-08
2.6392e-08
-3.56808e-15
3.01439e-08
3.78076e-08
-3.16769e-15
2.92279e-08
4.97247e-08
-3.18577e-15
2.64854e-08
5.99606e-08
-2.90929e-15
2.18813e-08
6.58167e-08
-2.7377e-15
1.5916e-08
6.53551e-08
-2.80426e-15
9.46688e-09
5.84444e-08
-2.59946e-15
3.55223e-09
4.56701e-08
-2.47455e-15
2.29667e-08
-1.90076e-15
-5.17665e-09
-3.95743e-08
-6.26707e-15
-4.913e-09
-4.03536e-08
-6.13429e-15
-4.53619e-09
-4.08674e-08
-5.9808e-15
-4.0516e-09
-4.1112e-08
-5.99318e-15
-3.46711e-09
-4.11015e-08
-5.92529e-15
-2.79265e-09
-4.08439e-08
-5.79618e-15
-2.03932e-09
-4.03583e-08
-5.64383e-15
-1.21865e-09
-3.96639e-08
-5.50707e-15
-3.42118e-10
-3.87778e-08
-5.37425e-15
5.79291e-10
-3.77291e-08
-5.21892e-15
1.53503e-09
-3.65331e-08
-5.07786e-15
2.51515e-09
-3.52169e-08
-4.71412e-15
3.51075e-09
-3.38028e-08
-4.82486e-15
4.51407e-09
-3.23115e-08
-4.76287e-15
5.51888e-09
-3.07639e-08
-4.66446e-15
6.52047e-09
-2.91781e-08
-4.56231e-15
7.51569e-09
-2.75705e-08
-4.47415e-15
8.50299e-09
-2.59523e-08
-4.37964e-15
9.48275e-09
-2.43333e-08
-4.29838e-15
1.04572e-08
-2.27168e-08
-4.21763e-15
1.14308e-08
-2.10965e-08
-4.14466e-15
1.24111e-08
-1.94742e-08
-4.07699e-15
1.34082e-08
-1.78165e-08
-4.01412e-15
1.4436e-08
-1.61e-08
-3.95467e-15
1.55125e-08
-1.42639e-08
-3.89837e-15
1.66593e-08
-1.22304e-08
-3.83658e-15
1.7902e-08
-9.89094e-09
-3.73869e-15
1.92676e-08
-7.0696e-09
-3.86719e-15
2.07792e-08
-3.54025e-09
-3.63344e-15
2.24444e-08
1.01422e-09
-3.40508e-15
2.42314e-08
6.98931e-09
-3.5546e-15
2.60282e-08
1.4823e-08
-3.37454e-15
2.75871e-08
2.48332e-08
-3.60406e-15
2.84805e-08
3.69143e-08
-3.23538e-15
2.81335e-08
5.00716e-08
-3.28929e-15
2.60093e-08
6.20848e-08
-3.07682e-15
2.19171e-08
6.99089e-08
-2.96244e-15
1.62295e-08
7.10426e-08
-3.04977e-15
9.79558e-09
6.48784e-08
-2.90669e-15
3.71514e-09
5.17506e-08
-2.82286e-15
2.66819e-08
-2.26097e-15
-4.38791e-09
-3.96801e-08
-6.3507e-15
-4.18288e-09
-4.05587e-08
-6.24993e-15
-3.87899e-09
-4.11712e-08
-6.02556e-15
-3.47937e-09
-4.15117e-08
-5.9701e-15
-2.98951e-09
-4.15914e-08
-5.9198e-15
-2.41702e-09
-4.14164e-08
-5.7971e-15
-1.77089e-09
-4.10045e-08
-5.64612e-15
-1.06081e-09
-4.03739e-08
-5.51234e-15
-2.96665e-10
-3.95419e-08
-5.38271e-15
5.12071e-10
-3.85378e-08
-5.23167e-15
1.3562e-09
-3.73773e-08
-5.10441e-15
2.22691e-09
-3.60876e-08
-4.75876e-15
3.11606e-09
-3.46919e-08
-4.84911e-15
4.01633e-09
-3.32117e-08
-4.77333e-15
4.92161e-09
-3.16692e-08
-4.67101e-15
5.82712e-09
-3.00836e-08
-4.56672e-15
6.72938e-09
-2.84727e-08
-4.4776e-15
7.62635e-09
-2.68493e-08
-4.38003e-15
8.51763e-09
-2.52245e-08
-4.29753e-15
9.4044e-09
-2.36036e-08
-4.21536e-15
1.02899e-08
-2.19819e-08
-4.14137e-15
1.11799e-08
-2.03643e-08
-4.07326e-15
1.2083e-08
-1.87195e-08
-4.00996e-15
1.3011e-08
-1.7028e-08
-3.95042e-15
1.398e-08
-1.52329e-08
-3.89405e-15
1.50104e-08
-1.32607e-08
-3.83265e-15
1.61277e-08
-1.10084e-08
-3.74305e-15
1.73611e-08
-8.30292e-09
-3.84289e-15
1.87403e-08
-4.91949e-09
-3.61537e-15
2.02868e-08
-5.32311e-10
-3.39516e-15
2.19941e-08
5.28205e-09
-3.5117e-15
2.37901e-08
1.3027e-08
-3.36802e-15
2.54776e-08
2.31457e-08
-3.60498e-15
2.66731e-08
3.57188e-08
-3.2987e-15
2.68029e-08
4.99417e-08
-3.38121e-15
2.52539e-08
6.36339e-08
-3.24638e-15
2.16904e-08
7.34724e-08
-3.20263e-15
1.63424e-08
7.63907e-08
-3.34045e-15
1.00015e-08
7.12193e-08
-3.25806e-15
3.82793e-09
5.7924e-08
-3.22718e-15
3.05098e-08
-2.70128e-15
-3.70848e-09
-3.97549e-08
-6.32947e-15
-3.54896e-09
-4.07182e-08
-6.28784e-15
-3.30365e-09
-4.14165e-08
-6.12298e-15
-2.97396e-09
-4.18413e-08
-5.99897e-15
-2.56346e-09
-4.20019e-08
-5.91093e-15
-2.07772e-09
-4.19021e-08
-5.80138e-15
-1.52384e-09
-4.15584e-08
-5.64551e-15
-9.0987e-10
-4.09879e-08
-5.50895e-15
-2.44233e-10
-4.02076e-08
-5.38234e-15
4.64892e-10
-3.9247e-08
-5.23713e-15
1.20956e-09
-3.81219e-08
-5.12497e-15
1.98213e-09
-3.68602e-08
-4.7935e-15
2.77535e-09
-3.54851e-08
-4.86622e-15
3.58249e-09
-3.40189e-08
-4.78146e-15
4.39771e-09
-3.24845e-08
-4.67658e-15
5.21628e-09
-3.09021e-08
-4.57068e-15
6.0346e-09
-2.92911e-08
-4.47883e-15
6.85029e-09
-2.7665e-08
-4.3809e-15
7.66237e-09
-2.60366e-08
-4.29753e-15
8.47125e-09
-2.44125e-08
-4.21386e-15
9.27909e-09
-2.27897e-08
-4.13899e-15
1.00903e-08
-2.11755e-08
-4.0703e-15
1.09117e-08
-1.95409e-08
-4.00636e-15
1.17533e-08
-1.78697e-08
-3.94641e-15