/*--------------------------------*- C++ -*----------------------------------*\
| =========                 |                                                 |
| \\      /  F ield         | OpenFOAM: The Open Source CFD Toolbox           |
|  \\    /   O peration     | Version:  v2012                                 |
|   \\  /    A nd           | Website:  www.openfoam.com                      |
|    \\/     M anipulation  |                                                 |
\*---------------------------------------------------------------------------*/
FoamFile
{
    version     2.0;
    format      ascii;
    class       volVectorField;
    location    "1";
    object      U;
}
// * * * * * * * * * * * * * * * * * * * * * * * * * * * * * * * * * * * * * //

dimensions      [0 1 -1 0 0 0 0];


internalField   nonuniform List<vector> 
3320
(
(-0.0184046 -0.000475871 0.000160663)
(-0.0141001 -0.000307814 0.000123085)
(-0.0107828 -0.000196205 9.41308e-05)
(-0.00844094 -0.000137675 7.36867e-05)
(-0.00664544 -9.59689e-05 5.80135e-05)
(-0.00529876 -7.06925e-05 4.62572e-05)
(-0.00425274 -5.22043e-05 3.71259e-05)
(-0.00343985 -3.96485e-05 3.00294e-05)
(-0.00279751 -3.03515e-05 2.4422e-05)
(-0.00228681 -2.36144e-05 1.99637e-05)
(-0.00187679 -1.85469e-05 1.63843e-05)
(-0.00154544 -1.47273e-05 1.34917e-05)
(-0.00127582 -1.17917e-05 1.11379e-05)
(-0.00105519 -9.51584e-06 9.21188e-06)
(-0.000873735 -7.72853e-06 7.62776e-06)
(-0.000723846 -6.31183e-06 6.31925e-06)
(-0.000599577 -5.17769e-06 5.23439e-06)
(-0.000496242 -4.2622e-06 4.33229e-06)
(-0.000410115 -3.51717e-06 3.5804e-06)
(-0.000338214 -2.90669e-06 2.95271e-06)
(-0.000278135 -2.40325e-06 2.42822e-06)
(-0.000227924 -1.98597e-06 1.98988e-06)
(-0.000185987 -1.63888e-06 1.62376e-06)
(-0.000150999 -1.34925e-06 1.31832e-06)
(-0.000121866 -1.10749e-06 1.06397e-06)
(-9.76665e-05 -9.05596e-07 8.52708e-07)
(-7.76278e-05 -7.37396e-07 6.77764e-07)
(-6.10949e-05 -5.97773e-07 5.33426e-07)
(-4.75039e-05 -4.82322e-07 4.14772e-07)
(-3.63765e-05 -3.87615e-07 3.17625e-07)
(-2.73043e-05 -3.10373e-07 2.38419e-07)
(-1.99377e-05 -2.47782e-07 1.74104e-07)
(-1.39809e-05 -1.97238e-07 1.22097e-07)
(-9.18899e-06 -1.56397e-07 8.02598e-08)
(-5.3652e-06 -1.22905e-07 4.68737e-08)
(-2.35935e-06 -9.45272e-08 2.06273e-08)
(-6.9141e-08 -6.87795e-08 6.27429e-10)
(1.5622e-06 -4.38062e-08 -1.36222e-08)
(2.5411e-06 -1.68185e-08 -2.2178e-08)
(2.85004e-06 1.16117e-08 -2.48863e-08)
(2.45549e-06 4.25987e-08 -2.145e-08)
(1.44788e-06 6.19892e-08 -1.26663e-08)
(2.93836e-07 5.94131e-08 -2.81027e-09)
(-0.0470673 -0.00823419 0.000410918)
(-0.0368832 -0.0056486 0.000322002)
(-0.0289454 -0.00396883 0.000252705)
(-0.0230179 -0.00283665 0.000200954)
(-0.0183989 -0.00206425 0.000160629)
(-0.0148325 -0.00152598 0.000129493)
(-0.0120225 -0.00114381 0.000104961)
(-0.00980227 -0.000868174 8.55774e-05)
(-0.0080282 -0.000666143 7.00891e-05)
(-0.00660245 -0.000516187 5.76419e-05)
(-0.00544796 -0.00040348 4.75628e-05)
(-0.00450778 -0.000317874 3.93547e-05)
(-0.0037377 -0.000252196 3.26319e-05)
(-0.00310392 -0.000201353 2.70987e-05)
(-0.00257997 -0.000161658 2.25244e-05)
(-0.00214518 -0.000130422 1.87286e-05)
(-0.00178321 -0.000105659 1.55685e-05)
(-0.00148107 -8.58901e-05 1.29307e-05)
(-0.00122835 -7.00054e-05 1.07243e-05)
(-0.00101667 -5.71657e-05 8.87629e-06)
(-0.000839224 -4.67317e-05 7.32712e-06)
(-0.00069046 -3.82135e-05 6.02835e-06)
(-0.00056582 -3.12344e-05 4.94018e-06)
(-0.000461503 -2.54993e-05 4.02944e-06)
(-0.000374353 -2.07791e-05 3.26856e-06)
(-0.000301716 -1.68916e-05 2.63439e-06)
(-0.000241347 -1.36922e-05 2.10733e-06)
(-0.000191347 -1.10645e-05 1.67079e-06)
(-0.000150076 -8.91218e-06 1.31045e-06)
(-0.000116137 -7.15674e-06 1.01414e-06)
(-8.83383e-05 -5.73126e-06 7.71422e-07)
(-6.56565e-05 -4.57851e-06 5.73381e-07)
(-4.72247e-05 -3.64837e-06 4.12448e-07)
(-3.23202e-05 -2.89608e-06 2.8231e-07)
(-2.036e-05 -2.28077e-06 1.77878e-07)
(-1.08943e-05 -1.76462e-06 9.52233e-08)
(-3.60742e-06 -1.31178e-06 3.1589e-08)
(1.68834e-06 -8.91117e-07 -1.46652e-08)
(5.04752e-06 -4.75654e-07 -4.4017e-08)
(6.4599e-06 -6.02475e-08 -5.63765e-08)
(5.88806e-06 3.35115e-07 -5.1413e-08)
(3.60663e-06 5.77821e-07 -3.15494e-08)
(7.24801e-07 4.50421e-07 -7.01871e-09)
(-0.0647212 -0.0184575 0.000565026)
(-0.0522343 -0.013331 0.000456012)
(-0.0420991 -0.00976784 0.000367535)
(-0.0341593 -0.00722005 0.000298218)
(-0.0277828 -0.00539863 0.000242551)
(-0.0227095 -0.00407577 0.00019826)
(-0.018625 -0.00310726 0.000162602)
(-0.0153344 -0.00239002 0.000133874)
(-0.0126646 -0.00185379 0.000110566)
(-0.0104904 -0.00144903 9.15843e-05)
(-0.00871033 -0.0011408 7.60443e-05)
(-0.00724689 -0.000904072 6.32681e-05)
(-0.00603847 -0.0007208 5.27185e-05)
(-0.00503685 -0.000577839 4.3974e-05)
(-0.00420368 -0.000465507 3.67001e-05)
(-0.0035085 -0.000376633 3.06311e-05)
(-0.00292694 -0.000305855 2.55538e-05)
(-0.00243938 -0.000249137 2.12973e-05)
(-0.00202995 -0.000203417 1.77228e-05)
(-0.00168575 -0.000166365 1.47179e-05)
(-0.00139624 -0.000136191 1.21903e-05)
(-0.00115273 -0.000111515 1.00644e-05)
(-0.000948074 -9.12672e-05 8.27765e-06)
(-0.000776262 -7.46093e-05 6.77763e-06)
(-0.000632283 -6.08843e-05 5.52061e-06)
(-0.000511906 -4.95696e-05 4.46964e-06)
(-0.000411539 -4.02482e-05 3.59337e-06)
(-0.000328134 -3.25839e-05 2.86517e-06)
(-0.000259048 -2.62985e-05 2.26199e-06)
(-0.00020203 -2.11638e-05 1.76416e-06)
(-0.000155148 -1.69865e-05 1.35483e-06)
(-0.000116743 -1.36011e-05 1.0195e-06)
(-8.54047e-05 -1.0863e-05 7.45883e-07)
(-5.99541e-05 -8.64306e-06 5.23663e-07)
(-3.94344e-05 -6.8244e-06 3.44494e-07)
(-2.31012e-05 -5.29945e-06 2.01873e-07)
(-1.04215e-05 -3.96801e-06 9.11464e-08)
(-1.06339e-06 -2.74291e-06 9.41439e-09)
(5.10225e-06 -1.55369e-06 -4.4453e-08)
(8.10537e-06 -3.83835e-07 -7.07164e-08)
(7.94409e-06 7.04618e-07 -6.93562e-08)
(5.0683e-06 1.39472e-06 -4.43344e-08)
(1.02504e-06 1.13772e-06 -9.97753e-09)
(-0.0745895 -0.0284258 0.000651153)
(-0.0616608 -0.0213212 0.00053829)
(-0.0508238 -0.0161202 0.00044369)
(-0.0420098 -0.0122409 0.000366746)
(-0.0347381 -0.00936269 0.000303266)
(-0.0287962 -0.00720526 0.000251394)
(-0.0239093 -0.00558306 0.000208731)
(-0.0198948 -0.00435385 0.000173685)
(-0.0165839 -0.00341695 0.000144781)
(-0.0138483 -0.00269788 0.000120899)
(-0.0115806 -0.00214247 0.000101102)
(-0.00969577 -0.00171063 8.46471e-05)
(-0.00812455 -0.00137274 7.09303e-05)
(-0.00681131 -0.00110672 5.94653e-05)
(-0.00571089 -0.000896012 4.98584e-05)
(-0.00478676 -0.00072812 4.17907e-05)
(-0.00400919 -0.000593581 3.50023e-05)
(-0.00335393 -0.000485177 2.92818e-05)
(-0.00280111 -0.000397374 2.44555e-05)
(-0.00233438 -0.000325913 2.03808e-05)
(-0.00194026 -0.000267498 1.694e-05)
(-0.00160756 -0.000219566 1.40354e-05)
(-0.00132696 -0.00018012 1.15857e-05)
(-0.00109061 -0.00014758 9.52216e-06)
(-0.000891886 -0.000120701 7.78723e-06)
(-0.000725197 -9.84919e-05 6.33193e-06)
(-0.000585759 -8.01542e-05 5.11453e-06)
(-0.000469493 -6.50433e-05 4.09944e-06)
(-0.000372853 -5.26236e-05 3.25569e-06)
(-0.000292807 -4.24539e-05 2.55681e-06)
(-0.000226744 -3.41603e-05 1.98001e-06)
(-0.000172415 -2.74213e-05 1.50565e-06)
(-0.000127905 -2.19562e-05 1.11703e-06)
(-9.16039e-05 -1.75139e-05 8.0007e-07)
(-6.21989e-05 -1.38674e-05 5.43321e-07)
(-3.86613e-05 -1.08083e-05 3.37793e-07)
(-2.02409e-05 -8.14379e-06 1.76939e-07)
(-6.4537e-06 -5.70646e-06 5.65285e-08)
(2.92233e-06 -3.36519e-06 -2.5379e-08)
(7.97994e-06 -1.08616e-06 -6.95929e-08)
(8.77229e-06 1.01036e-06 -7.65747e-08)
(5.906e-06 2.37593e-06 -5.16598e-08)
(1.22167e-06 2.02426e-06 -1.19096e-08)
(-0.0772219 -0.0368456 0.000674116)
(-0.0655445 -0.0285098 0.000572182)
(-0.0553336 -0.0221421 0.00048305)
(-0.0466721 -0.0172231 0.000407439)
(-0.0392885 -0.0134507 0.000342985)
(-0.0330703 -0.0105415 0.000288702)
(-0.0278279 -0.00829789 0.000242938)
(-0.0234258 -0.00656004 0.000204508)
(-0.0197268 -0.0052098 0.000172217)
(-0.0166203 -0.00415604 0.000145097)
(-0.0140086 -0.00333017 0.000122298)
(-0.0118109 -0.00267984 0.000103112)
(-0.00995893 -0.00216531 8.69443e-05)
(-0.0083963 -0.00175625 7.33023e-05)
(-0.00707589 -0.00142944 6.1775e-05)
(-0.00595876 -0.00116706 5.20224e-05)
(-0.00501257 -0.000955394 4.3762e-05)
(-0.00421048 -0.000783829 3.67596e-05)
(-0.00353016 -0.000644138 3.08204e-05)
(-0.00295302 -0.000529915 2.57818e-05)
(-0.0024635 -0.000436157 2.15082e-05)
(-0.00204856 -0.000358942 1.78856e-05)
(-0.00169726 -0.000295185 1.48186e-05)
(-0.00140026 -0.000242432 1.22257e-05)
(-0.00114967 -0.00019874 1.00379e-05)
(-0.000938739 -0.000162545 8.19636e-06)
(-0.000761682 -0.000132588 6.65054e-06)
(-0.000613536 -0.000107845 5.35712e-06)
(-0.000489961 -8.74611e-05 4.27821e-06)
(-0.000387233 -7.07309e-05 3.38131e-06)
(-0.000302133 -5.70539e-05 2.6383e-06)
(-0.000231878 -4.59127e-05 2.02489e-06)
(-0.000174089 -3.68544e-05 1.52033e-06)
(-0.000126758 -2.94735e-05 1.10707e-06)
(-8.82401e-05 -2.34034e-05 7.70748e-07)
(-5.72346e-05 -1.83079e-05 5.00015e-07)
(-3.27798e-05 -1.38777e-05 2.8647e-07)
(-1.42358e-05 -9.8441e-06 1.24522e-07)
(-1.27641e-06 -6.00063e-06 1.13204e-08)
(6.26788e-06 -2.28984e-06 -5.46154e-08)
(8.51172e-06 1.10088e-06 -7.42832e-08)
(6.19399e-06 3.36547e-06 -5.41742e-08)
(1.33653e-06 3.00545e-06 -1.30118e-08)
(-0.0764034 -0.0429791 0.000666952)
(-0.0662198 -0.0342142 0.000578062)
(-0.0570258 -0.0272437 0.00049781)
(-0.0489606 -0.0216756 0.000427408)
(-0.0418922 -0.0172684 0.000365708)
(-0.0357788 -0.0137753 0.000312342)
(-0.0305044 -0.0110139 0.000266299)
(-0.0259806 -0.00882794 0.000226808)
(-0.0221079 -0.00709637 0.000193001)
(-0.0188006 -0.00572176 0.000164129)
(-0.0159786 -0.00462806 0.000139495)
(-0.0135726 -0.00375526 0.000118491)
(-0.0115214 -0.00305653 0.000100584)
(-0.00977262 -0.00249518 8.53174e-05)
(-0.0082813 -0.00204252 7.22981e-05)
(-0.00700919 -0.00167609 6.11926e-05)
(-0.00592383 -0.00137832 5.17174e-05)
(-0.00499772 -0.00113538 4.36324e-05)
(-0.00420757 -0.000936432 3.67343e-05)
(-0.00353364 -0.000772916 3.08508e-05)
(-0.00295923 -0.00063808 2.58361e-05)
(-0.00247014 -0.000526578 2.15662e-05)
(-0.00205431 -0.000434174 1.79359e-05)
(-0.00170136 -0.000357468 1.48545e-05)
(-0.00140244 -0.000293744 1.22448e-05)
(-0.0011499 -0.000240811 1.00399e-05)
(-0.000937142 -0.000196888 8.18248e-06)
(-0.000758487 -0.00016052 6.6227e-06)
(-0.000608921 -0.000130489 5.31688e-06)
(-0.000484129 -0.000105781 4.22735e-06)
(-0.000380359 -8.55342e-05 3.32134e-06)
(-0.000294358 -6.90007e-05 2.57046e-06)
(-0.000223333 -5.55252e-05 1.95033e-06)
(-0.000164913 -4.45198e-05 1.44025e-06)
(-0.000117148 -3.54528e-05 1.0232e-06)
(-7.84839e-05 -2.78367e-05 6.85598e-07)
(-4.77564e-05 -2.12244e-05 4.17282e-07)
(-2.41701e-05 -1.52282e-05 2.11305e-07)
(-7.28926e-06 -9.55227e-06 6.38588e-08)
(3.13911e-06 -4.10854e-06 -2.72661e-08)
(7.28868e-06 8.45784e-07 -6.35834e-08)
(6.00202e-06 4.23466e-06 -5.2488e-08)
(1.38566e-06 4.00113e-06 -1.3443e-08)
(-0.0725004 -0.0472691 0.000632869)
(-0.0641885 -0.0385129 0.000560319)
(-0.0563851 -0.0313241 0.000492208)
(-0.0492787 -0.025421 0.000430177)
(-0.0428543 -0.0206205 0.0003741)
(-0.0371369 -0.0167223 0.000324192)
(-0.0320813 -0.01357 0.000280061)
(-0.0276478 -0.0110232 0.00024136)
(-0.0237778 -0.00896785 0.000207577)
(-0.0204145 -0.00730869 0.000178217)
(-0.0175002 -0.00596852 0.000152776)
(-0.0149807 -0.00488447 0.000130782)
(-0.0128062 -0.004006 0.0001118)
(-0.0109318 -0.00329253 9.54368e-05)
(-0.00931765 -0.00271156 8.1345e-05)
(-0.00792856 -0.00223715 6.92185e-05)
(-0.00673402 -0.0018486 5.87903e-05)
(-0.0057075 -0.00152937 4.98288e-05)
(-0.00482606 -0.00126631 4.21337e-05)
(-0.0040699 -0.00104888 3.55324e-05)
(-0.00342197 -0.000868689 2.98759e-05)
(-0.00286759 -0.000719017 2.50361e-05)
(-0.00239412 -0.000594482 2.09026e-05)
(-0.00199054 -0.00049073 1.73792e-05)
(-0.00164735 -0.000404258 1.4383e-05)
(-0.00135629 -0.000332214 1.1842e-05)
(-0.00111016 -0.000272268 9.6931e-06)
(-0.000902707 -0.000222504 7.88189e-06)
(-0.000728382 -0.000181309 6.35991e-06)
(-0.000582382 -0.000147333 5.08523e-06)
(-0.000460514 -0.000119423 4.02121e-06)
(-0.000359115 -9.65768e-05 3.13589e-06)
(-0.000275033 -7.7911e-05 2.40177e-06)
(-0.000205577 -6.26325e-05 1.79534e-06)
(-0.000148522 -5.00231e-05 1.29717e-06)
(-0.00010208 -3.94243e-05 8.91664e-07)
(-6.48964e-05 -3.0233e-05 5.6698e-07)
(-3.60259e-05 -2.1926e-05 3.14864e-07)
(-1.49228e-05 -1.41062e-05 1.30548e-07)
(-1.24953e-06 -6.6461e-06 1.10858e-08)
(5.21772e-06 1.29475e-07 -4.54758e-08)
(5.39379e-06 4.87258e-06 -4.7158e-08)
(1.382e-06 4.94547e-06 -1.33324e-08)
(-0.0677313 -0.049646 0.000591226)
(-0.0609873 -0.0413289 0.000532364)
(-0.0544618 -0.034286 0.000475409)
(-0.0483357 -0.0283445 0.000421938)
(-0.0426494 -0.0233855 0.000372305)
(-0.0374594 -0.0192633 0.000327002)
(-0.0327648 -0.0158564 0.000286024)
(-0.0285606 -0.0130487 0.000249325)
(-0.0248204 -0.0107414 0.000216675)
(-0.0215133 -0.00884789 0.000187807)
(-0.0186025 -0.00729526 0.000162397)
(-0.0160504 -0.00602213 0.000140119)
(-0.0138196 -0.00497765 0.000120646)
(-0.0118747 -0.00411983 0.000103667)
(-0.0101824 -0.00341425 8.88939e-05)
(-0.00871264 -0.00283281 7.6063e-05)
(-0.00743812 -0.00235267 6.49367e-05)
(-0.00633461 -0.00195529 5.53032e-05)
(-0.00538058 -0.00162563 4.69746e-05)
(-0.00455708 -0.00135153 3.97855e-05)
(-0.00384746 -0.00112316 3.35905e-05)
(-0.00323714 -0.000932551 2.82623e-05)
(-0.00271338 -0.000773273 2.36898e-05)
(-0.00226493 -0.000640062 1.97747e-05)
(-0.00188196 -0.000528647 1.64313e-05)
(-0.00155584 -0.000435526 1.35841e-05)
(-0.00127898 -0.000357813 1.1167e-05)
(-0.00104471 -0.000293124 9.1217e-06)
(-0.000847102 -0.000239433 7.39645e-06)
(-0.000680965 -0.000195041 5.94596e-06)
(-0.000541745 -0.000158483 4.73046e-06)
(-0.000425448 -0.000128483 3.71507e-06)
(-0.000328616 -0.000103915 2.86964e-06)
(-0.000248281 -8.37606e-05 2.16822e-06)
(-0.000181975 -6.70985e-05 1.5893e-06)
(-0.000127704 -5.30825e-05 1.11543e-06)
(-8.39353e-05 -4.09384e-05 7.33254e-07)
(-4.95831e-05 -2.99941e-05 4.33277e-07)
(-2.39952e-05 -1.97391e-05 2.09801e-07)
(-6.75353e-06 -9.99649e-06 5.91787e-08)
(2.40243e-06 -1.15222e-06 -2.08654e-08)
(4.42637e-06 5.18077e-06 -3.86842e-08)
(1.33622e-06 5.78181e-06 -1.27857e-08)
(-0.0620593 -0.0507889 0.000541707)
(-0.0568201 -0.0430417 0.00049598)
(-0.0515564 -0.0363175 0.00045004)
(-0.0464417 -0.0305164 0.000405398)
(-0.0415536 -0.0255653 0.000362733)
(-0.0369716 -0.0213634 0.000322739)
(-0.0327286 -0.0178212 0.000285703)
(-0.0288466 -0.0148479 0.000251818)
(-0.0253261 -0.0123621 0.000221087)
(-0.0221584 -0.0102894 0.000193437)
(-0.0193261 -0.00856473 0.000168713)
(-0.0168072 -0.00713141 0.000146724)
(-0.0145767 -0.00594092 0.000127254)
(-0.0126091 -0.00495212 0.000110077)
(-0.0108789 -0.00413041 9.49731e-05)
(-0.00936168 -0.00344693 8.17286e-05)
(-0.00803459 -0.00287772 7.01435e-05)
(-0.00687651 -0.00240298 6.00337e-05)
(-0.00586813 -0.00200641 5.12308e-05)
(-0.00499205 -0.00167461 4.35827e-05)
(-0.00423263 -0.0013966 3.6953e-05)
(-0.0035759 -0.00116338 3.12197e-05)
(-0.00300946 -0.000967599 2.62747e-05)
(-0.00252218 -0.000803187 2.20205e-05)
(-0.00210419 -0.000665164 1.83714e-05)
(-0.00174674 -0.000549414 1.52508e-05)
(-0.00144203 -0.000452517 1.25905e-05)
(-0.00118317 -0.000371626 1.03306e-05)
(-0.00096396 -0.000304306 8.41672e-06)
(-0.000778931 -0.000248498 6.8013e-06)
(-0.000623264 -0.000202424 5.44221e-06)
(-0.000492701 -0.000164522 4.30228e-06)
(-0.000383537 -0.000133407 3.34918e-06)
(-0.000292574 -0.000107826 2.55498e-06)
(-0.000217137 -8.66413e-05 1.89633e-06)
(-0.000155048 -6.88062e-05 1.35422e-06)
(-0.000104619 -5.33628e-05 9.13887e-07)
(-6.46319e-05 -3.94783e-05 5.64711e-07)
(-3.43359e-05 -2.65177e-05 3.00128e-07)
(-1.324e-05 -1.42438e-05 1.15852e-07)
(-1.06389e-06 -3.09277e-06 9.43312e-09)
(3.15027e-06 5.07192e-06 -2.75078e-08)
(1.25698e-06 6.46153e-06 -1.18892e-08)
(-0.0565615 -0.0507626 0.00049371)
(-0.0524862 -0.0437366 0.000458143)
(-0.0482639 -0.037489 0.000421293)
(-0.0440392 -0.0319791 0.000384421)
(-0.0398968 -0.0271748 0.000348265)
(-0.035919 -0.0230157 0.000313546)
(-0.032154 -0.0194429 0.000280683)
(-0.0286387 -0.0163905 0.000249999)
(-0.0253909 -0.0137962 0.00022165)
(-0.0224184 -0.0115995 0.000195704)
(-0.0197188 -0.00974545 0.000172138)
(-0.0172833 -0.00818405 0.000150879)
(-0.0150985 -0.00687124 0.000131808)
(-0.0131482 -0.00576851 0.000114783)
(-0.0114147 -0.00484261 9.96501e-05)
(-0.00987963 -0.00406513 8.62496e-05)
(-0.00852489 -0.00341202 7.44233e-05)
(-0.00733304 -0.00286299 6.40189e-05)
(-0.00628757 -0.00240106 5.48922e-05)
(-0.00537313 -0.00201206 4.69093e-05)
(-0.00457553 -0.0016842 3.99464e-05)
(-0.00388186 -0.0014077 3.38906e-05)
(-0.0032804 -0.00117448 2.86399e-05)
(-0.00276044 -0.000977775 2.41006e-05)
(-0.00231235 -0.000811999 2.01887e-05)
(-0.00192748 -0.000672481 1.68286e-05)
(-0.00159799 -0.000555308 1.39521e-05)
(-0.00131694 -0.000457196 1.14984e-05)
(-0.00107796 -0.000375315 9.41199e-06)
(-0.00087543 -0.000307254 7.64381e-06)
(-0.000704349 -0.000250919 6.15016e-06)
(-0.000560266 -0.00020446 4.8922e-06)
(-0.000439288 -0.000166228 3.83596e-06)
(-0.000338033 -0.000134728 2.95191e-06)
(-0.000253654 -0.000108596 2.2152e-06)
(-0.000183821 -8.65754e-05 1.60547e-06)
(-0.000126706 -6.75158e-05 1.10677e-06)
(-8.09737e-05 -5.04137e-05 7.07433e-07)
(-4.57852e-05 -3.44992e-05 4.00135e-07)
(-2.05869e-05 -1.94625e-05 1.8004e-07)
(-5.09743e-06 -5.77532e-06 4.46876e-08)
(1.60971e-06 4.46938e-06 -1.40167e-08)
(1.1513e-06 6.94315e-06 -1.07131e-08)
(-0.0447128 -0.0380134 0.00039029)
(-0.0413002 -0.0328627 0.000360507)
(-0.0378566 -0.028287 0.000330451)
(-0.0344639 -0.0242549 0.00030084)
(-0.0311793 -0.0207309 0.000272171)
(-0.0280488 -0.0176708 0.000244847)
(-0.0251024 -0.015029 0.000219129)
(-0.0223594 -0.0127592 0.000195186)
(-0.0198292 -0.0108169 0.000173101)
(-0.0175139 -0.00915992 0.000152891)
(-0.0154097 -0.00774996 0.000134523)
(-0.0135089 -0.00655236 0.000117931)
(-0.0118009 -0.00553637 0.000103021)
(-0.0102733 -0.00467509 8.96853e-05)
(-0.00891283 -0.00394523 7.78094e-05)
(-0.00770601 -0.00332675 6.72744e-05)
(-0.00663936 -0.00280256 5.7963e-05)
(-0.00569989 -0.00235817 4.97616e-05)
(-0.00487523 -0.00198135 4.25626e-05)
(-0.00415379 -0.00166182 3.62645e-05)
(-0.00352485 -0.00139097 3.07739e-05)
(-0.00297835 -0.0011615 2.60029e-05)
(-0.00250514 -0.000967317 2.18717e-05)
(-0.00209683 -0.000803294 1.83071e-05)
(-0.00174575 -0.000665075 1.52421e-05)
(-0.00144501 -0.000548982 1.26165e-05)
(-0.00118822 -0.000451812 1.03746e-05)
(-0.000969701 -0.000370822 8.46687e-06)
(-0.000784346 -0.000303608 6.8486e-06)
(-0.000627585 -0.000248037 5.47996e-06)
(-0.000495397 -0.000202197 4.32585e-06)
(-0.000384259 -0.000164346 3.35553e-06)
(-0.000291194 -0.000132889 2.54299e-06)
(-0.000213745 -0.000106356 1.86676e-06)
(-0.000149966 -8.33953e-05 1.30988e-06)
(-9.84211e-05 -6.28252e-05 8.59807e-07)
(-5.81943e-05 -4.37311e-05 5.08522e-07)
(-2.86824e-05 -2.57172e-05 2.50765e-07)
(-9.62316e-06 -9.27318e-06 8.42424e-08)
(-1.56934e-07 3.30642e-06 1.45376e-09)
(1.02467e-06 7.19118e-06 -9.31277e-09)
(-0.0411965 -0.0379863 0.000359592)
(-0.0384606 -0.0332471 0.000335715)
(-0.0356249 -0.0289608 0.000310967)
(-0.032763 -0.0251191 0.000285989)
(-0.0299317 -0.0217061 0.000261278)
(-0.0271793 -0.0186959 0.000237254)
(-0.0245414 -0.0160585 0.000214229)
(-0.0220444 -0.0137604 0.000192434)
(-0.0197055 -0.0117675 0.000172019)
(-0.017535 -0.010046 0.000153073)
(-0.0155367 -0.00856386 0.00013563)
(-0.01371 -0.00729106 0.000119685)
(-0.0120505 -0.00620018 0.000105199)
(-0.0105514 -0.00526661 9.21126e-05)
(-0.00920407 -0.00446851 8.03513e-05)
(-0.0079988 -0.00378672 6.98299e-05)
(-0.00692527 -0.00320457 6.04586e-05)
(-0.00597303 -0.00270768 5.21459e-05)
(-0.00513169 -0.00228374 4.48013e-05)
(-0.00439121 -0.00192223 3.8337e-05)
(-0.00374204 -0.00161422 3.26698e-05)
(-0.00317501 -0.00135206 2.77197e-05)
(-0.00268159 -0.0011293 2.34122e-05)
(-0.00225385 -0.00094041 1.96779e-05)
(-0.00188442 -0.000780688 1.64527e-05)
(-0.00156656 -0.000646102 1.36777e-05)
(-0.001294 -0.00053312 1.12982e-05)
(-0.00106108 -0.000438685 9.26467e-06)
(-0.000862674 -0.000360105 7.53246e-06)
(-0.000694156 -0.000294969 6.06118e-06)
(-0.00055143 -0.000241111 4.81507e-06)
(-0.000430884 -0.00019654 3.76262e-06)
(-0.000329445 -0.000159432 2.87697e-06)
(-0.000244557 -0.0001281 2.13582e-06)
(-0.000174182 -0.000100988 1.52135e-06)
(-0.000116798 -7.67273e-05 1.0203e-06)
(-7.14252e-05 -5.42511e-05 6.24084e-07)
(-3.74245e-05 -3.30631e-05 3.27138e-07)
(-1.45742e-05 -1.36503e-05 1.27513e-07)
(-2.11676e-06 1.52495e-06 1.86154e-08)
(8.81177e-07 7.1756e-06 -7.73097e-09)
(-0.0377493 -0.0375691 0.0003295)
(-0.0355978 -0.0332477 0.000310723)
(-0.0332978 -0.0292765 0.000290651)
(-0.0309148 -0.0256618 0.000269853)
(-0.0285032 -0.0224018 0.000248806)
(-0.026111 -0.0194845 0.000227926)
(-0.0237762 -0.0168924 0.000207547)
(-0.0215291 -0.0146034 0.000187934)
(-0.0193921 -0.0125929 0.000169281)
(-0.017381 -0.0108352 0.000151728)
(-0.0155057 -0.00930446 0.000135358)
(-0.0137709 -0.00797571 0.000120216)
(-0.0121778 -0.00682536 0.000106309)
(-0.0107241 -0.00583158 9.36198e-05)
(-0.00940558 -0.00497456 8.21098e-05)
(-0.00821602 -0.00423648 7.17257e-05)
(-0.00714819 -0.00360154 6.24042e-05)
(-0.00619418 -0.00305589 5.40761e-05)
(-0.00534566 -0.00258741 4.6669e-05)
(-0.00459426 -0.00218563 4.01094e-05)
(-0.00393174 -0.00184153 3.43257e-05)
(-0.00334994 -0.00154727 2.92467e-05)
(-0.00284111 -0.00129616 2.48046e-05)
(-0.00239788 -0.00108241 2.09352e-05)
(-0.0020133 -0.000901016 1.75778e-05)
(-0.00168094 -0.000747669 1.46762e-05)
(-0.00139469 -0.000618546 1.21772e-05)
(-0.00114901 -0.000510312 1.00323e-05)
(-0.000938825 -0.000420005 8.19729e-06)
(-0.000759528 -0.000344956 6.63191e-06)
(-0.000606994 -0.000282749 5.3002e-06)
(-0.000477569 -0.000231156 4.17023e-06)
(-0.000368117 -0.000188125 3.21463e-06)
(-0.000276015 -0.00015175 2.4105e-06)
(-0.000199153 -0.000120269 1.7394e-06)
(-0.000135941 -9.21245e-05 1.18747e-06)
(-8.53502e-05 -6.60876e-05 7.45706e-07)
(-4.67207e-05 -4.15464e-05 4.08349e-07)
(-1.98915e-05 -1.8962e-05 1.73984e-07)
(-4.2418e-06 -9.26023e-07 3.72235e-08)
(7.23941e-07 6.87154e-06 -6e-09)
(-0.0345011 -0.0368391 0.000301144)
(-0.0328241 -0.0329367 0.00028651)
(-0.0309748 -0.0292947 0.000270371)
(-0.0290081 -0.0259303 0.000253207)
(-0.0269726 -0.022852 0.000235442)
(-0.0249125 -0.020059 0.000217462)
(-0.0228653 -0.017544 0.000199594)
(-0.0208625 -0.0152945 0.000182113)
(-0.0189291 -0.0132944 0.000165238)
(-0.0170843 -0.0115252 0.000149136)
(-0.0153419 -0.00996726 0.000133928)
(-0.0137113 -0.00860064 0.000119694)
(-0.0121975 -0.00740575 0.00010648)
(-0.0108023 -0.00636388 9.43017e-05)
(-0.00952518 -0.00545755 8.31532e-05)
(-0.00836313 -0.0046707 7.30095e-05)
(-0.00731181 -0.00398876 6.38321e-05)
(-0.0063657 -0.00339865 5.55731e-05)
(-0.00551855 -0.00288881 4.81779e-05)
(-0.00476366 -0.00244902 4.1588e-05)
(-0.00409417 -0.00207039 3.57436e-05)
(-0.00350304 -0.00174506 3.05831e-05)
(-0.00298338 -0.00146621 2.60466e-05)
(-0.00252849 -0.00122791 2.20753e-05)
(-0.00213192 -0.00102495 1.86133e-05)
(-0.00178763 -0.000852801 1.56076e-05)
(-0.00148978 -0.000707396 1.30073e-05)
(-0.001233 -0.000585162 1.07656e-05)
(-0.00101236 -0.000482894 8.8393e-06)
(-0.000823306 -0.000397684 7.18873e-06)
(-0.00066174 -0.000326882 5.77817e-06)
(-0.000524005 -0.00026803 4.57566e-06)
(-0.000406943 -0.000218854 3.55363e-06)
(-0.000307891 -0.000177235 2.68883e-06)
(-0.000224689 -0.000141204 1.96239e-06)
(-0.000155697 -0.000109012 1.36e-06)
(-9.9852e-05 -7.92598e-05 8.72364e-07)
(-5.64873e-05 -5.12043e-05 4.93669e-07)
(-2.55231e-05 -2.52551e-05 2.23201e-07)
(-6.50854e-06 -4.09029e-06 5.70723e-08)
(5.55473e-07 6.25767e-06 -4.14624e-09)
(-0.0314447 -0.0359024 0.000274464)
(-0.0301654 -0.0323979 0.000263301)
(-0.0287004 -0.0290808 0.000250516)
(-0.0270957 -0.0259742 0.000236511)
(-0.0253941 -0.0230934 0.000221661)
(-0.0236358 -0.0204453 0.000206315)
(-0.0218561 -0.0180305 0.000190783)
(-0.020086 -0.015844 0.000175333)
(-0.0183515 -0.0138769 0.000160195)
(-0.0166738 -0.0121172 0.000145551)
(-0.0150691 -0.0105509 0.000131545)
(-0.0135498 -0.00916287 0.000118283)
(-0.0121241 -0.00793742 0.000105838)
(-0.0107971 -0.00685913 9.42552e-05)
(-0.00957115 -0.00591308 8.35538e-05)
(-0.0084462 -0.00508515 7.3734e-05)
(-0.00742041 -0.00436226 6.47797e-05)
(-0.00649053 -0.00373243 5.66625e-05)
(-0.00565227 -0.00318482 4.93449e-05)
(-0.00490057 -0.00270972 4.2783e-05)
(-0.00422997 -0.00229851 3.69289e-05)
(-0.00363456 -0.00194348 3.17312e-05)
(-0.00310839 -0.00163784 2.71378e-05)
(-0.00264548 -0.00137559 2.30966e-05)
(-0.00223998 -0.00115142 1.95566e-05)
(-0.00188628 -0.000960632 1.64688e-05)
(-0.00157889 -0.000798982 1.37852e-05)
(-0.0013127 -0.000662693 1.14613e-05)
(-0.00108292 -0.000548351 9.45532e-06)
(-0.000885152 -0.000452832 7.72866e-06)
(-0.000715357 -0.000373268 6.24627e-06)
(-0.000569917 -0.000306985 4.9765e-06)
(-0.000445682 -0.000251497 3.89186e-06)
(-0.000339978 -0.000204476 2.96899e-06)
(-0.000250617 -0.00016375 2.18878e-06)
(-0.000175926 -0.000127376 1.53665e-06)
(-0.000114823 -9.3778e-05 1.00312e-06)
(-6.66492e-05 -6.20656e-05 5.82441e-07)
(-3.1424e-05 -3.25691e-05 2.7477e-07)
(-8.89772e-06 -8.00497e-06 7.79929e-08)
(3.77426e-07 5.31527e-06 -2.18711e-09)
(-0.0286289 -0.0348121 0.000249884)
(-0.027668 -0.0316847 0.000241499)
(-0.0265203 -0.0286834 0.000231484)
(-0.0252229 -0.025835 0.000220163)
(-0.0238121 -0.0231594 0.000207851)
(-0.0223228 -0.0206689 0.000194852)
(-0.0207871 -0.0183701 0.000181449)
(-0.0192342 -0.0162642 0.000167896)
(-0.0176897 -0.014348 0.000154416)
(-0.0161752 -0.0126152 0.000141197)
(-0.0147085 -0.0110566 0.000128396)
(-0.0133038 -0.00966159 0.000116135)
(-0.0119716 -0.00841833 0.000104506)
(-0.0107194 -0.00731455 9.35759e-05)
(-0.00955192 -0.00633796 8.33853e-05)
(-0.00847156 -0.00547656 7.39548e-05)
(-0.00747867 -0.00471891 6.52878e-05)
(-0.00657204 -0.00405428 5.73737e-05)
(-0.00574916 -0.00347277 5.01905e-05)
(-0.00500656 -0.00296534 4.3708e-05)
(-0.00434011 -0.00252382 3.78902e-05)
(-0.00374505 -0.00214077 3.26955e-05)
(-0.00321637 -0.00180955 2.80803e-05)
(-0.00274888 -0.00152421 2.39992e-05)
(-0.00233735 -0.00127939 2.04066e-05)
(-0.00197668 -0.00107033 1.72579e-05)
(-0.00166176 -0.000892633 1.45087e-05)
(-0.00138779 -0.000742373 1.21168e-05)
(-0.00115022 -0.000615958 1.00428e-05)
(-0.000944779 -0.000510076 8.24921e-06)
(-0.000767577 -0.000421662 6.70217e-06)
(-0.000615059 -0.00034784 5.37062e-06)
(-0.000484115 -0.000285924 4.22741e-06)
(-0.000372085 -0.000233386 3.24932e-06)
(-0.000276776 -0.000187855 2.4172e-06)
(-0.0001965 -0.000147194 1.71631e-06)
(-0.000130166 -0.000109644 1.13712e-06)
(-7.71396e-05 -7.41512e-05 6.7408e-07)
(-3.75554e-05 -4.0936e-05 3.28354e-07)
(-1.1394e-05 -1.27019e-05 9.98509e-08)
(1.90664e-07 4.02813e-06 -1.32994e-10)
(-0.026032 -0.033633 0.000227216)
(-0.0253329 -0.0308527 0.000221116)
(-0.0244504 -0.0281497 0.000213415)
(-0.0234145 -0.0255519 0.000204376)
(-0.0222557 -0.0230816 0.000194263)
(-0.0210041 -0.0207546 0.00018334)
(-0.0196883 -0.0185818 0.000171856)
(-0.0183351 -0.0165686 0.000160047)
(-0.0169688 -0.0147169 0.000148122)
(-0.0156108 -0.0130247 0.000136269)
(-0.0142793 -0.0114872 0.000124648)
(-0.0129894 -0.0100977 0.000113389)
(-0.0117531 -0.00884794 0.000102598)
(-0.0105797 -0.00772865 9.23559e-05)
(-0.00947582 -0.00673015 8.27203e-05)
(-0.00844567 -0.00584258 7.37283e-05)
(-0.00749152 -0.00505624 6.53995e-05)
(-0.00661388 -0.0043618 5.77385e-05)
(-0.00581188 -0.00375041 5.07376e-05)
(-0.00508348 -0.00321384 4.43792e-05)
(-0.00442584 -0.0027445 3.86383e-05)
(-0.0038353 -0.00233534 3.34831e-05)
(-0.00330778 -0.00197999 2.88781e-05)
(-0.0028389 -0.00167262 2.47849e-05)
(-0.00242408 -0.00140792 2.11636e-05)
(-0.00205875 -0.0011811 1.79743e-05)
(-0.00173824 -0.000987703 1.51762e-05)
(-0.00145808 -0.000823681 1.27305e-05)
(-0.00121401 -0.000685304 1.05996e-05)
(-0.00100195 -0.000569094 8.74834e-06)
(-0.000818171 -0.000471816 7.14387e-06)
(-0.000659215 -0.00039041 5.75612e-06)
(-0.000522045 -0.000322001 4.55857e-06)
(-0.000404039 -0.000263872 3.52832e-06)
(-0.000303019 -0.00021346 2.64635e-06)
(-0.000217298 -0.000168436 1.89793e-06)
(-0.000145792 -0.000126852 1.27359e-06)
(-8.78989e-05 -8.7474e-05 7.68067e-07)
(-4.38845e-05 -5.03814e-05 3.83664e-07)
(-1.39856e-05 -1.82081e-05 1.22544e-07)
(-4.62638e-09 2.38195e-06 2.01286e-09)
(-0.0236656 -0.0323983 0.00020656)
(-0.0231738 -0.0299378 0.000202269)
(-0.0225076 -0.0275145 0.000196456)
(-0.0216905 -0.0251566 0.000189327)
(-0.0207473 -0.0228875 0.000181096)
(-0.0197033 -0.0207253 0.000171984)
(-0.0185833 -0.0186835 0.00016221)
(-0.0174114 -0.0167712 0.000151983)
(-0.0162101 -0.0149936 0.000141498)
(-0.0149997 -0.0133525 0.000130934)
(-0.0137981 -0.0118469 0.000120446)
(-0.0126208 -0.0104734 0.000110171)
(-0.0114807 -0.00922692 0.000100219)
(-0.0103881 -0.00810103 9.06821e-05)
(-0.0093509 -0.00708851 8.16291e-05)
(-0.00837494 -0.00618164 7.31102e-05)
(-0.00746392 -0.00537247 6.51581e-05)
(-0.00661986 -0.00465312 5.77902e-05)
(-0.00584327 -0.00401591 5.10113e-05)
(-0.00513341 -0.00345349 4.48148e-05)
(-0.00448863 -0.00295897 3.91862e-05)
(-0.0039063 -0.00252579 3.41028e-05)
(-0.00338326 -0.00214792 2.95369e-05)
(-0.00291591 -0.00181975 2.54571e-05)
(-0.00250033 -0.00153609 2.18292e-05)
(-0.00213251 -0.0012922 1.86182e-05)
(-0.00180825 -0.00108358 1.57874e-05)
(-0.00152345 -0.00090612 1.33011e-05)
(-0.00127413 -0.000755987 1.11245e-05)
(-0.00105649 -0.000629571 9.22445e-06)
(-0.00086695 -0.000523485 7.56971e-06)
(-0.000702201 -0.000434507 6.1314e-06)
(-0.0005593 -0.000359588 4.88383e-06)
(-0.000435686 -0.000295835 3.80463e-06)
(-0.000329215 -0.0002405 2.87508e-06)
(-0.000238216 -0.000191064 2.08058e-06)
(-0.000161621 -0.000145388 1.41183e-06)
(-9.88747e-05 -0.00010204 8.63945e-07)
(-5.03837e-05 -6.09247e-05 4.4046e-07)
(-1.66643e-05 -2.45468e-05 1.45999e-07)
(-2.08896e-07 3.63742e-07 4.2534e-09)
(-0.0215056 -0.0311459 0.000187705)
(-0.0211815 -0.0289748 0.000184878)
(-0.0206934 -0.0268096 0.00018062)
(-0.0200598 -0.0246775 0.000175091)
(-0.0193005 -0.0226018 0.000168466)
(-0.0184367 -0.0206016 0.000160928)
(-0.0174899 -0.0186923 0.000152665)
(-0.0164811 -0.0168851 0.000143861)