/*--------------------------------*- C++ -*----------------------------------*\
| =========                 |                                                 |
| \\      /  F ield         | OpenFOAM: The Open Source CFD Toolbox           |
|  \\    /   O peration     | Version:  v2012                                 |
|   \\  /    A nd           | Website:  www.openfoam.com                      |
|    \\/     M anipulation  |                                                 |
\*---------------------------------------------------------------------------*/
FoamFile
{
    version     2.0;
    format      ascii;
    class       volScalarField;
    location    "1";
    object      alpha.water;
}
// * * * * * * * * * * * * * * * * * * * * * * * * * * * * * * * * * * * * * //

dimensions      [0 0 0 0 0 0 0];


internalField   nonuniform List<scalar> 
2619
(
-1.70329e-31
-1.03968e-57
-2.35937e-32
-6.41605e-60
-4.6449e-34
6.0068e-19
1.26154e-18
3.18977e-18
3.21771e-18
3.1896e-18
3.1115e-18
3.03585e-18
2.97259e-18
2.71329e-18
2.51827e-18
2.52472e-18
-6.9781e-33
-3.42756e-32
-1.58255e-31
-2.00345e-30
-3.41757e-46
3.80524e-18
3.7765e-18
3.79919e-18
3.05233e-18
3.05974e-18
3.05244e-18
3.03477e-18
3.03477e-18
3.14178e-18
3.15112e-18
3.10179e-18
2.99881e-18
2.86712e-18
0
-3.27146e-31
1.8825e-18
3.63635e-18
5.0823e-18
3.03477e-18
3.03477e-18
3.03477e-18
3.03477e-18
3.03477e-18
3.03477e-18
3.03477e-18
3.03477e-18
3.06446e-18
3.18902e-18
3.30549e-18
3.31322e-18
3.1882e-18
2.96647e-18
3.04158e-18
5.09345e-18
5.90895e-18
5.7642e-18
5.96219e-18
5.02803e-18
6.26748e-18
6.44068e-18
6.25594e-18
6.06531e-18
6.06811e-18
6.08517e-18
6.02028e-18
5.29806e-18
4.80642e-18
4.5189e-18
4.33047e-18
4.17454e-18
3.9859e-18
6.35006e-18
6.16829e-18
5.91911e-18
6.31626e-18
6.47669e-18
7.42694e-18
6.88938e-18
7.17044e-18
7.23325e-18
7.28164e-18
7.27208e-18
7.2163e-18
7.04248e-18
6.70209e-18
6.41361e-18
5.68735e-18
5.03936e-18
4.76326e-18
4.56565e-18
6.36065e-18
6.21665e-18
5.91911e-18
6.32814e-18
6.52656e-18
7.4669e-18
6.91472e-18
7.22326e-18
7.3014e-18
7.37254e-18
7.37954e-18
7.35295e-18
7.22548e-18
7.6576e-18
7.60898e-18
7.20031e-18
6.71751e-18
5.94387e-18
5.38337e-18
5.91911e-18
5.91911e-18
5.91911e-18
5.91911e-18
5.91911e-18
5.91911e-18
5.91912e-18
5.91912e-18
5.91912e-18
5.91912e-18
5.91913e-18
5.91913e-18
5.91913e-18
7.83501e-18
7.82321e-18
7.98176e-18
8.04128e-18
7.46692e-18
6.73092e-18
1.09159e-17
1.23364e-17
1.37945e-17
1.43025e-17
1.53185e-17
1.4149e-17
1.42339e-17
1.37764e-17
1.33451e-17
1.30477e-17
9.18748e-18
7.79385e-18
7.12564e-18
7.1262e-18
7.12705e-18
8.17056e-18
8.37995e-18
8.47975e-18
8.22575e-18
1.6554e-17
1.68482e-17
1.72379e-17
1.74705e-17
1.76559e-17
1.76106e-17
1.75423e-17
1.75611e-17
1.75134e-17
1.7088e-17
1.81921e-17
1.82553e-17
1.78124e-17
1.44553e-17
8.73735e-18
8.17021e-18
8.17023e-18
8.79747e-18
8.74613e-18
1.65652e-17
1.68566e-17
1.72478e-17
1.7495e-17
1.76653e-17
1.76294e-17
1.75722e-17
1.76004e-17
1.75634e-17
1.71478e-17
1.88942e-17
1.89879e-17
1.87087e-17
1.80278e-17
1.86757e-17
1.6679e-17
1.03486e-17
8.73799e-18
8.73799e-18
1.65676e-17
1.65676e-17
1.65676e-17
1.65676e-17
1.65676e-17
1.65676e-17
1.65677e-17
1.65689e-17
1.65677e-17
1.65677e-17
1.89754e-17
1.90358e-17
1.87922e-17
1.81337e-17
1.97829e-17
1.94706e-17
1.98751e-17
1.75531e-17
1.07372e-17
1.65676e-17
1.71837e-17
1.78942e-17
1.86043e-17
1.70627e-17
1.65676e-17
1.65676e-17
1.65676e-17
1.65676e-17
2.39868e-17
1.82064e-17
1.81337e-17
1.81337e-17
1.81336e-17
1.99043e-17
1.9566e-17
2.10577e-17
2.03685e-17
1.99554e-17
1.46766e-17
9.77195e-18
9.30026e-18
9.56903e-18
4.59429e-17
4.66839e-17
4.74574e-17
4.77303e-17
4.83367e-17
4.78308e-17
4.65114e-17
4.49436e-17
4.41569e-17
3.37201e-17
1.82064e-17
2.72741e-17
3.12429e-17
2.13915e-17
1.95573e-17
1.95573e-17
2.11884e-17
2.04172e-17
2.14787e-17
2.09516e-17
1.87083e-17
1.26469e-17
9.62679e-18
4.65033e-17
4.67116e-17
4.74763e-17
4.78092e-17
4.83641e-17
4.78849e-17
4.85158e-17
4.85201e-17
4.7248e-17
3.24246e-17
5.09036e-17
4.7333e-17
3.21888e-17
4.02213e-17
3.76366e-17
2.4573e-17
2.0371e-17
2.0371e-17
2.16228e-17
2.20593e-17
2.1346e-17
1.92457e-17
1.4031e-17
4.6504e-17
4.67118e-17
4.74763e-17
4.78169e-17
4.83641e-17
4.78896e-17
4.85215e-17
4.85215e-17
4.72597e-17
4.77949e-17
5.30231e-17
4.37722e-17
3.21875e-17
4.03242e-17
3.86404e-17
4.16329e-17
3.80862e-17
2.0371e-17
2.0371e-17
2.21846e-17
2.16165e-17
2.12816e-17
1.95134e-17
4.6504e-17
4.6504e-17
4.6504e-17
4.6504e-17
4.6504e-17
4.65098e-17
4.65201e-17
4.65117e-17
4.65098e-17
6.5471e-17
5.30203e-17
4.35868e-17
5.3621e-17
3.86387e-17
3.86387e-17
4.16484e-17
4.72227e-17
4.70295e-17
3.23827e-17
2.13116e-17
2.13116e-17
2.15685e-17
2.12635e-17
9.89625e-17
1.00619e-16
1.00717e-16
9.92846e-17
9.90869e-17
4.65098e-17
4.65098e-17
4.65098e-17
4.65098e-17
6.54848e-17
5.23128e-17
7.07598e-17
7.42654e-17
6.6106e-17
4.56041e-17
4.16474e-17
4.69917e-17
4.7818e-17
4.77732e-17
4.34912e-17
2.13116e-17
2.13116e-17
2.14309e-17
1.33142e-16
1.33642e-16
1.33629e-16
1.33513e-16
1.31676e-16
1.52022e-16
1.50022e-16
1.47804e-16
1.12114e-16
5.23128e-17
5.23128e-17
7.87858e-17
7.42654e-17
8.58346e-17
8.51831e-17
5.99639e-17
4.69623e-17
4.7818e-17
4.7801e-17
4.89208e-17
4.88367e-17
2.81155e-17
2.05237e-17
1.33143e-16
1.33642e-16
1.3363e-16
1.33513e-16
1.31676e-16
1.52454e-16
1.55403e-16
1.55197e-16
1.50465e-16
1.51536e-16
1.73612e-16
7.4186e-17
7.4186e-17
8.58575e-17
8.30836e-17
9.12342e-17
7.87167e-17
4.76289e-17
4.76289e-17
4.89085e-17
5.00437e-17
4.94956e-17
3.36948e-17
1.31676e-16
1.31676e-16
1.31676e-16
1.31676e-16
1.31676e-16
1.52454e-16
1.55403e-16
1.55201e-16
1.50666e-16
1.78576e-16
1.78576e-16
1.74051e-16
1.38867e-16
8.30813e-17
8.30813e-17
9.12355e-17
1.05917e-16
1.05686e-16
5.21088e-17
4.89078e-17
5.00437e-17
5.00437e-17
4.71962e-17
2.29428e-16
2.31953e-16
2.30037e-16
2.29842e-16
2.23565e-16
1.50806e-16
1.50806e-16
1.50806e-16
1.50806e-16
1.78576e-16
1.60841e-16
2.01644e-16
1.99314e-16
1.9454e-16
1.33849e-16
9.12329e-17
1.05917e-16
1.00328e-16
1.0605e-16
7.69619e-17
4.68625e-17
4.68627e-17
4.72213e-17
3.96663e-16
3.96663e-16
3.95655e-16
3.95655e-16
3.90379e-16
3.72393e-16
2.84768e-16
2.97881e-16
1.50806e-16
1.50806e-16
1.50806e-16
2.01645e-16
1.92917e-16
2.20734e-16
2.20738e-16
1.69549e-16
1.0031e-16
1.0031e-16
1.06077e-16
1.08657e-16
9.18615e-17
4.12473e-17
4.12482e-17
3.96663e-16
3.96139e-16
3.95866e-16
3.80539e-16
3.78112e-16
4.63002e-16
4.63002e-16
4.42037e-16
4.67464e-16
4.65709e-16
2.70724e-16
1.92917e-16
1.92917e-16
2.20735e-16
2.09146e-16
2.27184e-16
2.22739e-16
1.0031e-16
1.0031e-16
1.08348e-16
1.10337e-16
1.09079e-16
3.89454e-17
3.78112e-16
3.78112e-16
3.78112e-16
3.78112e-16
3.78112e-16
4.63002e-16
4.63002e-16
4.42037e-16
5.21772e-16
5.21772e-16
5.2091e-16
4.98196e-16
1.92917e-16
1.92917e-16
2.00241e-16
2.26896e-16
2.73725e-16
2.73726e-16
1.14038e-16
1.08347e-16
1.10337e-16
1.10337e-16
1.08375e-16
5.59864e-16
5.61969e-16
5.50128e-16
5.49751e-16
5.70665e-16
4.42037e-16
4.42037e-16
4.42037e-16
5.21772e-16
5.2164e-16
4.89395e-16
5.76791e-16
5.76791e-16
4.35908e-16
2.00243e-16
2.00247e-16
2.2882e-16
2.74783e-16
2.74783e-16
1.49298e-16
1.04284e-16
1.04284e-16
1.08375e-16
1.34533e-15
1.34533e-15
1.34336e-15
1.34336e-15
1.34336e-15
1.27027e-15
4.42037e-16
8.00429e-16
4.8986e-16
4.8986e-16
4.89861e-16
5.76791e-16
5.58536e-16
6.8069e-16
6.80698e-16
2.15456e-16
2.15458e-16
2.63602e-16
2.74783e-16
2.74783e-16
1.51964e-16
9.54472e-17
9.54458e-17
1.34533e-15
1.34336e-15
1.34336e-15
1.25878e-15
1.24567e-15
1.59301e-15
1.59301e-15
1.59156e-15
1.61805e-15
5.41839e-16
4.8986e-16
4.8986e-16
4.8986e-16
5.95125e-16
7.33239e-16
7.33239e-16
4.89459e-16
2.63547e-16
2.74781e-16
2.74783e-16
2.74783e-16
1.46601e-16
8.45015e-17
1.24567e-15
1.24567e-15
1.24567e-15
1.24567e-15
1.24567e-15
1.59301e-15
1.56791e-15
1.47062e-15
1.7944e-15
1.77477e-15
1.80989e-15
8.30755e-16
4.8986e-16
5.06196e-16
7.33239e-16
7.33239e-16
7.33239e-16
3.57431e-16
2.55986e-16
2.55986e-16
2.69794e-16
2.66152e-16
1.1433e-16
2.31762e-15
2.30399e-15
2.30592e-15
2.02216e-15
2.11223e-15
1.47062e-15
1.47062e-15
1.47062e-15
1.7944e-15
1.73259e-15
1.91808e-15
2.03059e-15
1.09991e-15
5.06196e-16
5.96654e-16
7.33239e-16
7.22974e-16
8.04048e-16
5.92331e-16
2.38168e-16
2.38166e-16
2.6615e-16
2.61581e-16
4.94893e-15
4.95698e-15
4.95698e-15
4.95698e-15
4.95698e-15
4.53997e-15
1.47062e-15
2.75365e-15
1.73259e-15
1.73259e-15
1.73259e-15
2.0234e-15
2.59529e-15
2.17553e-15
5.96654e-16
6.87803e-16
6.87803e-16
8.04058e-16
8.04058e-16
3.7587e-16
2.34607e-16
2.34603e-16
2.61578e-16
4.94893e-15
4.95698e-15
4.95698e-15
4.75663e-15
4.61839e-15
6.00283e-15
6.00283e-15
6.00283e-15
5.21528e-15
1.73259e-15
1.73259e-15
1.97474e-15
2.59529e-15
2.59529e-15
2.09522e-15
6.87803e-16
6.88786e-16
8.04058e-16
7.56859e-16
8.06006e-16
5.1282e-16
1.32219e-16
1.73834e-16
4.61839e-15
4.61839e-15
4.61839e-15
4.61839e-15
4.61839e-15
6.00228e-15
5.95238e-15
5.51863e-15
6.85571e-15
6.85571e-15
4.82538e-15
1.97474e-15
2.59529e-15
2.5249e-15
3.16483e-15
3.07837e-15
6.88786e-16
7.29207e-16
7.29207e-16
8.06106e-16
8.06113e-16
1.32217e-16
1.32216e-16
1.0816e-14
1.0983e-14
9.1731e-15
9.73766e-15
5.07446e-15
5.07446e-15
5.51863e-15
5.51863e-15
6.85571e-15
6.32342e-15
7.64505e-15
7.26589e-15
2.50351e-15
2.50351e-15
3.16483e-15
3.1215e-15
3.13344e-15
7.29207e-16
7.29207e-16
8.06113e-16
8.06113e-16
7.39368e-16
1.30781e-16
2.3784e-14
2.43521e-14
2.43521e-14
2.43521e-14
2.43521e-14
2.43373e-14
5.51863e-15
5.51863e-15
5.51863e-15
5.51863e-15
5.92771e-15
1.03365e-14
1.03367e-14
3.38191e-15
2.95802e-15
2.95802e-15
3.30331e-15
3.30332e-15
8.94972e-16
7.29943e-16
7.72436e-16
7.81781e-16
4.25731e-16
2.31337e-14
2.40449e-14
2.43521e-14
2.41362e-14
2.30751e-14
3.00591e-14
3.0059e-14
3.02018e-14
1.66831e-14
5.51863e-15
5.51863e-15
8.0743e-15
1.06907e-14
1.06587e-14
2.95802e-15
2.95802e-15
3.30332e-15
3.30332e-15
2.88306e-15
7.29943e-16
7.81778e-16
7.81781e-16
7.81781e-16
2.31337e-14
2.31337e-14
2.31337e-14
2.31337e-14
2.30751e-14
3.00591e-14
3.00591e-14
2.99305e-14
4.02055e-14
4.02055e-14
1.14908e-14
8.07429e-15
1.06907e-14
1.06587e-14
1.08285e-14
4.80582e-15
2.85167e-15
2.86436e-15
2.88307e-15
2.37274e-15
4.63362e-16
4.63361e-16
5.18226e-16
5.90823e-14
1.1252e-13
2.31368e-14
2.31337e-14
2.32209e-14
2.31337e-14
2.31337e-14
2.31337e-14
3.03098e-14
4.02055e-14
4.02055e-14
2.64987e-14
9.52384e-15
9.52384e-15
1.22604e-14
1.22604e-14
2.85167e-15
2.85167e-15
2.85402e-15
2.85402e-15
8.03406e-16
2.38826e-16
2.38825e-16
1.1884e-13
1.12825e-13
1.59528e-13
1.58284e-13
1.58284e-13
7.95033e-14
2.31337e-14
2.31337e-14
2.31337e-14
2.31337e-14
3.81429e-14
4.80636e-14
3.99736e-14
9.52384e-15
1.22604e-14
1.22539e-14
1.24977e-14
2.94351e-15
1.43377e-15
1.43377e-15
2.06194e-15
9.98138e-16
2.377e-16
1.12824e-13
1.12825e-13
1.59528e-13
1.59528e-13
1.52565e-13
2.07015e-13
2.17883e-13
2.08007e-13
2.31337e-14
2.31337e-14
2.66948e-14
4.80636e-14
4.80636e-14
4.5694e-14
1.00859e-14
1.00859e-14
1.33954e-14
9.6712e-15
1.43377e-15
2.58381e-15
2.0621e-15
3.45422e-16
3.4881e-16
3.41094e-13
1.12824e-13
1.13219e-13
1.13219e-13
1.13219e-13
1.55359e-13
2.17883e-13
2.17883e-13
2.17883e-13
1.88239e-13
2.66948e-14
2.66948e-14
4.80636e-14
4.80636e-14
1.00859e-14
2.26976e-14
1.33954e-14
4.5712e-15
5.28231e-15
3.49074e-15
6.89488e-16
7.6245e-16
7.62451e-16
7.46938e-13
1.12824e-13
1.12824e-13
3.17603e-13
1.55357e-13
1.55357e-13
1.68747e-13
2.17883e-13
2.17883e-13
2.17219e-13
2.21941e-13
9.33494e-14
4.05152e-14
4.05152e-14
7.03394e-14
3.71107e-14
7.8501e-15
8.38185e-15
6.95557e-15
1.17813e-15
1.24047e-15
1.24047e-15
3.5526e-16
1.12824e-13
1.12824e-13
1.41311e-12
1.51198e-12
1.51198e-12
1.55357e-13
1.60999e-13
1.60999e-13
2.01541e-13
1.97086e-13
2.70667e-13
2.13447e-13
4.05152e-14
8.30193e-14
7.19885e-14
1.75036e-14
1.7704e-14
9.85068e-15
2.46975e-15
2.78243e-15
2.42986e-15
3.0712e-16
3.55494e-16
3.0594e-12
3.73857e-12
3.38223e-12
1.51067e-12
1.51067e-12
1.90451e-12
2.01482e-12
9.97152e-13
2.01511e-13
2.8922e-13
2.70664e-13
1.78135e-13
2.65431e-13
1.51614e-13
3.29282e-14
3.64458e-14
2.70691e-14
4.29581e-15
4.60711e-15
4.60711e-15
5.03498e-16
3.0712e-16
3.07594e-16
3.77215e-12
3.73857e-12
1.51067e-12
1.51067e-12
1.51067e-12
2.41165e-12
2.01482e-12
2.27172e-12
2.27173e-12
4.16037e-13
2.67064e-13
4.48484e-13
3.69387e-13
6.67804e-14
6.75633e-14
3.98e-14
9.5988e-15
1.03533e-14
8.78534e-15
1.15138e-15
1.31603e-15
1.316e-15
1.22048e-16
1.51067e-12
1.51067e-12
1.51067e-12
1.51067e-12
7.05381e-12
2.41165e-12
1.9649e-12
2.27172e-12
2.22875e-12
4.16034e-13
1.33981e-12
7.40289e-13
1.59427e-13
1.86785e-13
1.12616e-13
1.747e-14
1.83953e-14
1.83953e-14
1.70708e-15
1.15138e-15
1.37675e-15
4.75263e-16
1.22048e-16
1.51067e-12
2.66576e-11
2.05415e-11
2.20412e-11
7.13875e-12
2.41131e-12
8.44577e-12
2.03847e-12
2.03847e-12
4.11377e-12
2.38195e-12
3.04611e-13
3.13962e-13
2.47705e-13
2.6831e-14
2.69263e-14
2.69263e-14
4.53648e-15
1.70708e-15
1.8855e-15
1.4054e-15
1.7701e-16
1.77016e-16
2.51859e-11
2.79148e-11
2.79148e-11
2.30892e-11
7.13875e-12
2.87479e-11
1.99323e-11
2.03847e-12
8.95854e-12
5.31836e-12
8.19324e-13
9.00964e-13
5.28137e-13
7.61305e-14
8.03858e-14
5.95671e-14
7.06653e-15
8.80852e-15
5.24752e-15
5.87178e-16
5.90326e-16
4.44489e-16
5.45116e-17
1.86474e-11
1.86474e-11
1.86474e-11
1.86474e-11
7.9721e-11
3.92058e-11
1.62487e-11
3.62366e-11
1.91973e-11
1.73852e-12
1.8352e-12
1.38775e-12
1.49702e-13
1.51328e-13
9.71804e-14
1.28526e-14
1.29919e-14
8.80898e-15
9.56819e-16
9.59524e-16
6.39079e-16
8.06511e-17
8.09406e-17
1.86474e-11
6.37427e-10
4.12357e-10
4.36777e-10
3.70913e-11
3.70913e-11
8.42141e-11
5.67438e-11
4.81928e-12
4.9355e-12
2.02942e-12
4.29689e-13
4.4386e-13
2.40124e-13
2.43547e-14
2.45784e-14
1.6234e-14
1.49035e-15
1.50111e-15
9.43186e-16
1.05018e-16
1.05198e-16
7.22207e-17
8.93407e-10
8.90462e-10
8.90462e-10
4.88331e-10
3.70913e-11
3.76239e-10
3.35977e-10
1.10918e-11
1.10918e-11
1.14093e-11
3.80618e-13
7.83997e-13
7.83997e-13
4.67387e-16
3.40139e-14
3.40139e-14
1.7366e-16
2.05519e-15
1.56711e-15
2.43235e-17
1.2501e-16
8.26039e-17
6.8827e-18
4.37372e-10
4.34179e-10
4.34179e-10
4.34179e-10
8.92806e-10
8.93546e-10
2.02883e-11
1.10918e-11
2.45729e-11
1.14093e-11
3.80618e-13
7.83997e-13
1.74951e-13
3.51174e-16
3.15024e-14
7.27767e-15
1.7366e-16
1.1006e-15
2.79064e-16
2.43216e-17
5.10979e-17
2.12105e-17
6.88233e-18
3.80704e-08
1.20247e-08
2.0212e-08
5.72274e-09
1.45171e-11
1.45171e-11
2.02883e-11
3.42124e-11
2.45729e-11
3.80618e-13
3.80618e-13
3.93046e-13
3.13124e-14
3.50993e-16
3.50872e-16
1.59423e-15
1.86119e-16
1.40611e-16
7.3541e-17
2.43203e-17
1.07243e-17
5.05159e-18
2.78656e-18
3.80704e-08
3.79509e-08
3.79509e-08
1.28306e-08
1.45171e-11
1.45171e-11
6.99131e-11
3.42124e-11
3.61029e-14
4.22934e-12
1.23442e-12
2.07802e-18
3.93812e-14
1.45981e-14
2.03069e-18
4.28887e-16
1.86969e-16
3.12968e-17
1.33499e-17
4.65015e-18
2.27579e-18
1.95922e-18
2.06308e-18
4.47636e-09
4.47636e-09
4.47636e-09
4.47636e-09
4.47638e-09
1.45174e-11
1.5858e-11
4.94121e-12
3.61029e-14
3.65487e-14
1.37064e-15
2.07803e-18
2.07099e-18
2.14774e-18
2.0307e-18
2.02249e-18
2.02261e-18
1.97773e-18
1.97773e-18
1.97773e-18
1.86919e-18
1.41394e-18
8.81671e-19
4.47636e-09
1.86263e-06
1.56517e-06
4.47636e-09
4.47636e-09
4.76536e-06
5.85765e-06
5.85765e-06
2.02727e-06
4.47636e-09
4.76536e-06
3.21739e-06
-1.87482e-29
-8.98106e-41
2.78606e-07
-1.28545e-24
-3.77658e-23
-8.51327e-25
-9.39674e-23
-6.45038e-07
2.93737e-05
-6.38168e-08
-2.87849e-09
-5.65999e-07
0.105993
1
0.411726
0.365472
0.940833
1
1
1
1
1
1
1
1
1
0.999959
1
0.950261
1
1
0.999868
0.999966
0.877114
1
1
1
1
0.877114
0.999478
0.996272
1
0.987521
0.877114
1
1
1
1
0.941141
0.999999
1
1
1
0.999768
0.980057
0.999996
0.835748
0.95401
0.999989
1
0.866432
0.835748
0.835748
0.9071
1
0.866432
0.92283
0.835748
0.9071
0.994888
0.866432
0.939354
0.835748
0.999973
0.941052
0.976951
0.916819
0.924599
1
0.999991
1
1
0.999979
1
1
1
1
1
1
1
1
1
1
1
1
1
1
1
1
1
1
1
1
-8.62813e-31
-1.56669e-86
-1.77493e-31
-1.26913e-32
-2.02152e-32
0
6.00676e-19
1.26154e-18
3.18962e-18
3.21771e-18
3.18961e-18
3.11151e-18
3.03585e-18
2.9726e-18
2.71325e-18
2.51813e-18
2.52463e-18
0
0
-1.47452e-31
-1.52265e-30
-1.53834e-46
3.80524e-18
3.7765e-18
3.79919e-18
3.05234e-18
3.05974e-18
3.05244e-18
3.03477e-18
3.03477e-18
3.1418e-18
3.15113e-18
3.10179e-18
2.99882e-18
2.86713e-18
0
-2.19842e-32
1.88249e-18
3.63636e-18
5.08225e-18
3.03477e-18
3.03477e-18
3.03477e-18
3.03477e-18
3.03477e-18
3.03477e-18
3.03477e-18
3.03477e-18
3.0645e-18
3.18903e-18
3.30547e-18
3.31322e-18
3.1882e-18
2.96648e-18
3.04177e-18
5.09357e-18
5.90894e-18
5.76403e-18
5.96218e-18
5.02802e-18
6.26735e-18
6.44056e-18
6.25601e-18
6.0653e-18
6.06808e-18
6.08512e-18
6.02021e-18
5.29801e-18
4.80644e-18
4.51893e-18
4.33047e-18
4.17453e-18
3.98589e-18
6.35006e-18
6.1682e-18
5.9191e-18
6.31648e-18
6.47675e-18
7.42693e-18
6.88948e-18
7.17047e-18
7.23318e-18
7.28161e-18
7.27207e-18
7.21626e-18
7.04241e-18
6.702e-18
6.41356e-18
5.6875e-18
5.03941e-18
4.76326e-18
4.56564e-18
6.36065e-18
6.21656e-18
5.9191e-18
6.32837e-18
6.52662e-18
7.4669e-18
6.91483e-18
7.22329e-18
7.30134e-18
7.37252e-18
7.37954e-18
7.35292e-18
7.22544e-18
7.65757e-18
7.60893e-18
7.20026e-18
6.71745e-18
5.94396e-18
5.38343e-18
5.91911e-18
5.91911e-18
5.9191e-18
5.91911e-18
5.91911e-18
5.91911e-18
5.91911e-18
5.91912e-18
5.91912e-18
5.91912e-18
5.91912e-18
5.91913e-18
5.91913e-18
7.83501e-18
7.82317e-18
7.98141e-18
8.04123e-18
7.46692e-18
6.73093e-18
1.0916e-17
1.23364e-17
1.37945e-17
1.43021e-17
1.53183e-17
1.41488e-17
1.42334e-17
1.37759e-17
1.33448e-17
1.30475e-17
9.18716e-18
7.79367e-18
7.12566e-18
7.12623e-18
7.12708e-18
8.17015e-18
8.37996e-18
8.47955e-18
8.22563e-18
1.6554e-17
1.68482e-17
1.72379e-17
1.74706e-17
1.76559e-17
1.76106e-17
1.75424e-17
1.75611e-17
1.75134e-17
1.7088e-17
1.81922e-17
1.8255e-17
1.78119e-17
1.44548e-17
8.73792e-18
8.17017e-18
8.17021e-18
8.79727e-18
8.74603e-18
1.65652e-17
1.68566e-17
1.72479e-17
1.74951e-17
1.76653e-17
1.76294e-17
1.75722e-17
1.76004e-17
1.75634e-17
1.71478e-17
1.88943e-17
1.89879e-17
1.87086e-17
1.80276e-17
1.86748e-17
1.66789e-17
1.03489e-17
8.73799e-18
8.73799e-18
1.65676e-17
1.65676e-17
1.65676e-17
1.65676e-17
1.65676e-17
1.65676e-17
1.65677e-17
1.65689e-17
1.65677e-17
1.65677e-17
1.89755e-17
1.90358e-17
1.87921e-17
1.81336e-17
1.97825e-17
1.94705e-17
1.9875e-17
1.75533e-17
1.07375e-17
1.65676e-17
1.71836e-17
1.78941e-17
1.86023e-17
1.70624e-17
1.65676e-17
1.65676e-17
1.65676e-17
1.65676e-17
2.39896e-17
1.82064e-17
1.81337e-17
1.81336e-17
1.81336e-17
1.99041e-17
1.95659e-17
2.10576e-17
2.03684e-17
1.99551e-17
1.46768e-17
9.77316e-18
9.30026e-18
9.56889e-18
4.59429e-17
4.6684e-17
4.74574e-17
4.77311e-17
4.83368e-17
4.78302e-17
4.6511e-17
4.49422e-17
4.41557e-17
3.37152e-17
1.82064e-17
2.72735e-17
3.12414e-17
2.13928e-17
1.95573e-17
1.95573e-17
2.11884e-17
2.04172e-17
2.14785e-17
2.09513e-17
1.87077e-17
1.26474e-17
9.62766e-18
4.65033e-17
4.67116e-17
4.74763e-17
4.781e-17
4.83641e-17
4.78853e-17
4.85158e-17
4.85203e-17
4.72477e-17
3.24246e-17
5.09027e-17
4.73311e-17
3.21862e-17
4.022e-17
3.76371e-17
2.45748e-17
2.0371e-17
2.0371e-17
2.16226e-17
2.2059e-17
2.13458e-17
1.92452e-17
1.40308e-17
4.6504e-17
4.67118e-17
4.74763e-17
4.78178e-17
4.83641e-17
4.789e-17
4.85215e-17
4.85215e-17
4.72595e-17
4.78019e-17
5.30231e-17
4.3772e-17
3.21867e-17
4.03229e-17
3.86387e-17
4.16319e-17
3.81124e-17
2.0371e-17
2.0371e-17
2.21842e-17
2.16164e-17
2.12813e-17
1.95127e-17
4.6504e-17
4.6504e-17
4.6504e-17
4.6504e-17
4.6504e-17
4.65098e-17
4.65206e-17
4.65118e-17
4.65098e-17
6.54716e-17
5.30231e-17
4.35868e-17
5.36267e-17
3.86387e-17
3.86387e-17
4.16474e-17
4.72227e-17
4.7029e-17
3.2359e-17
2.13116e-17
2.13116e-17
2.15682e-17
2.12633e-17
9.89626e-17
1.00619e-16
1.00717e-16
9.9286e-17
9.9082e-17
4.65098e-17
4.65098e-17
4.65098e-17
4.65098e-17
6.54854e-17
5.23128e-17
7.07689e-17
7.42654e-17
6.61097e-17
4.5608e-17
4.16474e-17
4.69623e-17
4.7818e-17
4.77638e-17
4.35233e-17
2.13116e-17
2.13116e-17
2.14309e-17
1.33142e-16
1.33642e-16
1.33629e-16
1.33513e-16
1.31676e-16
1.52021e-16
1.5002e-16
1.47811e-16
1.11978e-16
5.23128e-17
5.23128e-17
7.87858e-17
7.42654e-17
8.58332e-17
8.51816e-17
5.99704e-17
4.69623e-17
4.77534e-17
4.78027e-17
4.89275e-17
4.88445e-17
2.81131e-17
2.05237e-17
1.33142e-16
1.33642e-16
1.3363e-16
1.33513e-16
1.31676e-16
1.52456e-16
1.55403e-16
1.55192e-16
1.50537e-16
1.51576e-16
1.73563e-16
7.4186e-17
7.4186e-17
8.58561e-17
8.30835e-17
9.12316e-17
7.87739e-17
4.76289e-17
4.76289e-17
4.89078e-17
5.00437e-17
4.94948e-17
3.36979e-17
1.31676e-16
1.31676e-16
1.31676e-16
1.31676e-16
1.31676e-16
1.52457e-16
1.55403e-16
1.55197e-16
1.50738e-16
1.78576e-16
1.78576e-16
1.74051e-16
1.38863e-16
8.30813e-17
8.30813e-17
9.12329e-17
1.05917e-16
1.05685e-16
5.21116e-17
4.89078e-17
5.00429e-17
5.00437e-17
4.7195e-17
2.29428e-16
2.31953e-16
2.30036e-16
2.29842e-16
2.23566e-16
1.50806e-16
1.50806e-16
1.50806e-16
1.50877e-16
1.78576e-16
1.60842e-16
2.01644e-16
1.99315e-16
1.94539e-16
1.33844e-16
9.12329e-17
1.05916e-16
1.00327e-16
1.0605e-16
7.69651e-17
4.68625e-17
4.68625e-17
4.72213e-17
3.96663e-16
3.96663e-16
3.95655e-16
3.95655e-16
3.90379e-16
3.7239e-16
2.84786e-16
2.97857e-16
1.50806e-16
1.50806e-16
1.50806e-16
2.01645e-16
1.92917e-16
2.20738e-16
2.20738e-16
1.69551e-16
1.0031e-16
1.0031e-16
1.06077e-16
1.08657e-16
9.18676e-17
4.12473e-17
4.12473e-17
3.96663e-16
3.96139e-16
3.95867e-16
3.80537e-16
3.78112e-16
4.63002e-16
4.63002e-16
4.42037e-16
4.674e-16
4.65659e-16
2.70763e-16
1.92917e-16
1.92917e-16
2.20739e-16
2.09146e-16
2.27184e-16
2.22739e-16
1.0031e-16
1.0031e-16
1.08347e-16
1.10337e-16
1.09079e-16
3.8947e-17
3.78112e-16
3.78112e-16
3.78112e-16
3.78112e-16
3.78112e-16
4.63002e-16
4.63002e-16
4.42037e-16
5.21772e-16
5.21772e-16
5.20911e-16
4.98151e-16
1.92917e-16
1.92917e-16
2.00239e-16
2.26896e-16
2.73724e-16
2.73726e-16
1.14039e-16
1.08347e-16
1.10336e-16
1.10337e-16
1.08375e-16
5.59864e-16
5.61969e-16
5.50125e-16
5.49752e-16
5.70676e-16
4.42037e-16
4.42037e-16
4.42037e-16
5.21772e-16
5.2164e-16
4.89395e-16
5.76791e-16
5.76791e-16
4.35877e-16
2.00241e-16
2.00245e-16
2.28816e-16
2.74783e-16
2.74783e-16
1.49299e-16
1.04284e-16
1.04284e-16
1.08374e-16
1.34533e-15
1.34533e-15
1.34336e-15
1.34336e-15
1.34336e-15
1.27028e-15
4.42037e-16
8.00435e-16
4.8986e-16
4.8986e-16
4.8986e-16
5.76791e-16
5.58601e-16
6.8069e-16
6.80698e-16
2.15464e-16
2.15462e-16
2.63602e-16
2.74783e-16
2.74783e-16
1.51965e-16
9.54474e-17
9.54459e-17
1.34533e-15
1.34336e-15
1.34336e-15
1.25877e-15
1.24567e-15
1.59301e-15
1.59301e-15
1.59156e-15
1.61805e-15
5.41828e-16
4.8986e-16
4.8986e-16
4.8986e-16
5.95135e-16
7.33239e-16
7.33239e-16
4.89464e-16
2.63547e-16
2.7478e-16
2.74783e-16
2.74783e-16
1.46596e-16
8.45008e-17
1.24567e-15
1.24567e-15
1.24567e-15
1.24567e-15
1.24567e-15
1.59301e-15
1.5679e-15
1.47062e-15
1.7944e-15
1.77476e-15
1.80989e-15
8.30753e-16
4.8986e-16
5.06196e-16
7.33239e-16
7.33239e-16
7.33239e-16
3.57429e-16
2.55986e-16
2.55985e-16
2.69793e-16
2.66151e-16
1.14327e-16
2.31762e-15
2.30399e-15
2.30592e-15
2.02216e-15
2.11223e-15
1.47062e-15
1.47062e-15
1.47062e-15
1.7944e-15
1.73259e-15
1.91806e-15
2.03059e-15
1.09983e-15
5.06196e-16
5.96654e-16
7.33239e-16
7.22975e-16
8.04048e-16
5.92338e-16
2.38169e-16
2.38166e-16
2.66149e-16
2.6158e-16
4.94893e-15
4.95698e-15
4.95698e-15
4.95698e-15
4.95698e-15
4.53998e-15
1.47062e-15
2.75367e-15
1.73259e-15
1.73259e-15
1.73259e-15
2.02339e-15
2.59529e-15
2.17556e-15
5.96654e-16
6.87804e-16
6.87803e-16
8.04058e-16
8.04058e-16
3.75865e-16
2.34608e-16
2.34604e-16
2.61577e-16
4.94893e-15
4.95698e-15
4.95698e-15
4.75662e-15
4.61839e-15
6.00283e-15
6.00283e-15
6.00283e-15
5.21527e-15
1.73259e-15
1.73259e-15
1.97474e-15
2.59529e-15
2.59529e-15
2.09523e-15
6.87803e-16
6.88786e-16
8.04058e-16
7.56861e-16
8.06006e-16
5.12811e-16
1.32219e-16
1.73828e-16
4.61839e-15
4.61839e-15
4.61839e-15
4.61839e-15
4.61839e-15
6.00227e-15
5.95235e-15
5.51863e-15
6.85571e-15
6.85571e-15
4.82543e-15
1.97474e-15
2.59529e-15
2.5249e-15
3.16483e-15
3.07838e-15
6.88786e-16
7.29207e-16
7.29207e-16
8.06106e-16
8.06113e-16
1.32217e-16
1.32216e-16
1.0816e-14
1.0983e-14
9.17309e-15
9.73765e-15
5.07448e-15
5.07446e-15
5.51863e-15
5.51863e-15
6.85571e-15
6.32338e-15
7.64505e-15
7.26591e-15
2.50351e-15
2.50351e-15
3.16483e-15
3.1215e-15
3.13346e-15
7.29207e-16
7.29207e-16
8.06113e-16
8.06113e-16
7.39382e-16
1.30781e-16
2.3784e-14
2.43521e-14
2.43521e-14
2.43521e-14
2.43521e-14
2.43362e-14
5.51863e-15
5.51863e-15
5.51863e-15
5.51863e-15
5.92765e-15
1.03365e-14
1.03367e-14
3.38189e-15
2.95802e-15
2.95802e-15
3.30331e-15
3.30332e-15
8.94996e-16
7.29943e-16
7.72436e-16
7.81781e-16
4.25735e-16
2.31337e-14
2.40449e-14
2.43521e-14
2.41361e-14
2.30751e-14
3.00591e-14
3.0059e-14
3.02018e-14
1.66829e-14
5.51863e-15
5.51863e-15
8.0743e-15
1.06907e-14
1.06587e-14
2.95802e-15
2.95802e-15
3.30332e-15
3.30332e-15
2.88306e-15
7.29943e-16
7.81779e-16
7.81781e-16
7.81781e-16
2.31337e-14
2.31337e-14
2.31337e-14
2.31337e-14
2.30751e-14
3.00591e-14
3.00591e-14
2.99307e-14
4.02055e-14
4.02055e-14
1.14916e-14
8.07429e-15
1.06907e-14
1.06587e-14
1.08285e-14
4.80584e-15
2.85167e-15
2.86436e-15
2.88307e-15
2.37274e-15
4.63362e-16
4.63361e-16
5.18213e-16
5.90824e-14
1.12519e-13
2.31368e-14
2.31337e-14
2.32209e-14
2.31337e-14
2.31337e-14
2.31337e-14
3.03109e-14
4.02055e-14
4.02055e-14
2.6499e-14
9.52384e-15
9.52384e-15
1.22604e-14
1.22604e-14
2.85167e-15
2.85167e-15
2.85402e-15
2.85402e-15
8.03419e-16
2.38826e-16
2.38825e-16
1.1884e-13
1.12824e-13
1.59528e-13
1.58284e-13
1.58284e-13
7.95011e-14
2.31337e-14
2.31337e-14
2.31337e-14
2.31337e-14
3.81422e-14
4.80636e-14
3.99738e-14
9.52384e-15
1.22604e-14
1.22539e-14
1.24977e-14
2.94347e-15
1.43377e-15
1.43377e-15
2.06194e-15
9.98143e-16
2.377e-16
1.12824e-13
1.12824e-13
1.59528e-13
1.59528e-13
1.52564e-13
2.07017e-13
2.17883e-13
2.08005e-13
2.31337e-14
2.31337e-14
2.66948e-14
4.80636e-14
4.80636e-14
4.56942e-14
1.00859e-14
1.00859e-14
1.33953e-14
9.67122e-15
1.43377e-15
2.58378e-15
2.06209e-15
3.45422e-16
3.48808e-16
3.41094e-13
1.12824e-13
1.13219e-13
1.13219e-13
1.13219e-13
1.55357e-13
2.17883e-13
2.17883e-13
2.17883e-13
1.88238e-13
2.66948e-14
2.66948e-14
4.80636e-14
4.80636e-14
1.00859e-14
2.26976e-14
1.33953e-14
4.5712e-15
5.28233e-15
3.49075e-15
6.89488e-16
7.62451e-16
7.62451e-16
7.46938e-13
1.12824e-13
1.12824e-13
3.17605e-13
1.55359e-13
1.55357e-13
1.68749e-13
2.17883e-13
2.17883e-13
2.17219e-13
2.21941e-13
9.33476e-14
4.05152e-14
4.05152e-14
7.03395e-14
3.71107e-14
7.8501e-15
8.38185e-15
6.95558e-15
1.17813e-15
1.24047e-15
1.24047e-15
3.55257e-16
1.12824e-13
1.12824e-13
1.41311e-12
1.51198e-12
1.51198e-12
1.55357e-13
1.61e-13
1.60999e-13
2.01541e-13
1.97086e-13
2.70667e-13
2.13447e-13
4.05152e-14
8.30193e-14
7.19886e-14
1.75036e-14
1.7704e-14
9.85067e-15
2.46975e-15
2.78243e-15
2.42986e-15
3.0712e-16
3.55494e-16
3.05941e-12
3.73857e-12
3.38223e-12
1.51067e-12
1.51067e-12
1.90453e-12
2.01482e-12
9.97139e-13
2.01511e-13
2.89223e-13
2.70667e-13
1.78135e-13
2.65431e-13
1.51614e-13
3.29282e-14
3.64457e-14
2.7069e-14
4.29581e-15
4.60711e-15
4.60711e-15
5.03509e-16
3.0712e-16
3.07594e-16
3.77215e-12
3.73857e-12
1.51067e-12
1.51067e-12
1.51067e-12
2.41164e-12
2.01482e-12
2.27173e-12
2.27173e-12
4.16034e-13
2.67064e-13
4.48484e-13
3.69388e-13
6.67804e-14
6.75633e-14
3.97998e-14
9.5988e-15
1.03533e-14
8.7854e-15
1.15138e-15
1.31602e-15
1.31599e-15
1.22048e-16
1.51067e-12
1.51067e-12
1.51067e-12
1.51067e-12
7.05395e-12
2.41164e-12
1.9649e-12
2.27173e-12
2.22876e-12
4.16034e-13
1.33981e-12
7.40288e-13
1.59427e-13
1.86786e-13
1.12616e-13
1.747e-14
1.83953e-14
1.83953e-14
1.70708e-15
1.15138e-15
1.37674e-15
4.75278e-16
1.22048e-16
1.51067e-12
2.66576e-11
2.05415e-11
2.20412e-11
7.13878e-12
2.41131e-12
8.44577e-12
2.03847e-12
2.03847e-12
4.11377e-12
2.38195e-12
3.04611e-13
3.13964e-13
2.47706e-13
2.6831e-14
2.69263e-14
2.69263e-14
4.53648e-15
1.70708e-15
1.8855e-15
1.4054e-15
1.7701e-16
1.77016e-16
2.5186e-11
2.79148e-11
2.79148e-11
2.3089e-11
7.13875e-12
2.87479e-11
1.99323e-11
2.03847e-12
8.95855e-12
5.31836e-12
8.19324e-13
9.00965e-13
5.28138e-13
7.61305e-14
8.03857e-14
5.9567e-14
7.06653e-15
8.80854e-15
5.24754e-15
5.87178e-16
5.90326e-16
4.44491e-16
5.45116e-17
1.86474e-11
1.86474e-11
1.86474e-11
1.86474e-11
7.9721e-11
3.92058e-11
1.62487e-11
3.62366e-11
1.91973e-11
1.73852e-12
1.8352e-12
1.38775e-12
1.49702e-13
1.51328e-13
9.71804e-14
1.28526e-14
1.29919e-14
8.809e-15
9.56819e-16
9.59524e-16
6.39078e-16
8.06511e-17
8.09406e-17
1.86474e-11
6.37427e-10
4.12357e-10
4.36777e-10
3.70913e-11
3.70913e-11
8.42144e-11
5.67438e-11
4.81928e-12
4.9355e-12
2.02945e-12
4.29689e-13
4.4386e-13
2.40123e-13
2.43547e-14
2.45784e-14
1.6234e-14
1.49035e-15
1.50111e-15
9.43184e-16
1.05018e-16
1.05198e-16
7.22204e-17
8.93407e-10
8.90462e-10
8.90462e-10
4.88331e-10
3.70913e-11
3.76239e-10
3.35976e-10
1.10918e-11
1.10918e-11
1.14093e-11
3.80618e-13
7.83997e-13
7.83997e-13
4.67388e-16
3.40139e-14
3.40139e-14
1.7366e-16
2.05519e-15
1.56711e-15
2.43234e-17
1.2501e-16
8.26036e-17
6.88272e-18
4.37372e-10
4.34179e-10
4.34179e-10
4.34179e-10
8.92806e-10
8.93546e-10
2.02883e-11
1.10918e-11
2.45729e-11
1.14092e-11
3.80618e-13
7.83997e-13
1.74952e-13
3.51175e-16
3.15024e-14
7.27768e-15
1.7366e-16
1.1006e-15
2.79064e-16
2.43215e-17
5.10976e-17
2.12105e-17
6.88235e-18
3.80704e-08
1.20247e-08
2.0212e-08
5.72274e-09
1.45171e-11
1.45171e-11
2.02883e-11
3.42124e-11
2.45727e-11
3.80618e-13
3.80618e-13
3.93046e-13
3.13131e-14
3.50993e-16
3.50873e-16
1.59423e-15
1.86119e-16
1.40611e-16
7.3541e-17
2.43202e-17
1.07243e-17
5.0516e-18
2.78656e-18
3.80704e-08
3.79509e-08
3.79509e-08
1.28306e-08
1.45171e-11
1.45171e-11
6.99131e-11
3.42124e-11
3.61029e-14
4.22931e-12
1.23442e-12
2.07802e-18
3.93811e-14
1.45981e-14
2.03069e-18
4.28886e-16
1.86968e-16
3.12967e-17
1.33498e-17
4.65016e-18
2.27577e-18
1.95921e-18
2.06307e-18
4.47636e-09
4.47636e-09
4.47636e-09
4.47636e-09
4.47636e-09
1.45171e-11
1.5858e-11
4.94119e-12
3.61029e-14
3.65489e-14
1.37066e-15
2.07802e-18
2.07099e-18
2.14772e-18
2.03069e-18
2.02249e-18
2.0226e-18
1.97773e-18
1.97772e-18
1.97772e-18
1.86912e-18