/*--------------------------------*- C++ -*----------------------------------*\
| =========                 |                                                 |
| \\      /  F ield         | OpenFOAM: The Open Source CFD Toolbox           |
|  \\    /   O peration     | Version:  v2012                                 |
|   \\  /    A nd           | Website:  www.openfoam.com                      |
|    \\/     M anipulation  |                                                 |
\*---------------------------------------------------------------------------*/
FoamFile
{
    version     2.0;
    format      ascii;
    class       volVectorField;
    location    "0.15";
    object      U;
}
// * * * * * * * * * * * * * * * * * * * * * * * * * * * * * * * * * * * * * //

dimensions      [0 1 -1 0 0 0 0];


internalField   nonuniform List<vector> 
3320
(
(-3.05453 -0.270436 0.0266573)
(-2.38385 -0.195807 0.0208042)
(-1.86014 -0.14261 0.0162338)
(-1.45003 -0.103982 0.0126547)
(-1.12747 -0.0756688 0.00983955)
(-0.873717 -0.0548398 0.00762504)
(-0.674246 -0.0395306 0.00588423)
(-0.51781 -0.0283227 0.004519)
(-0.395502 -0.0201658 0.00345162)
(-0.300239 -0.0142729 0.00262026)
(-0.226353 -0.0100474 0.00197546)
(-0.169305 -0.00703891 0.00147761)
(-0.12547 -0.00491047 0.00109506)
(-0.0919623 -0.00341246 0.000802631)
(-0.0664933 -0.00236234 0.000580354)
(-0.0472577 -0.00162853 0.000412476)
(-0.0328364 -0.00111702 0.000286611)
(-0.0221177 -0.000761329 0.000193059)
(-0.0142331 -0.000514625 0.00012424)
(-0.00850692 -0.000343979 7.42595e-05)
(-0.00441389 -0.000226075 3.8533e-05)
(-0.00154769 -0.000146174 1.35138e-05)
(0.000400939 -9.24581e-05 -3.49607e-06)
(0.00167297 -5.48998e-05 -1.46008e-05)
(0.00245228 -3.01932e-05 -2.1404e-05)
(0.00287612 -1.41654e-05 -2.51048e-05)
(0.00304901 -3.90646e-06 -2.66146e-05)
(0.0030487 2.43179e-06 -2.66124e-05)
(0.00293265 6.17834e-06 -2.56001e-05)
(0.00274293 8.08778e-06 -2.39442e-05)
(0.00250994 8.91815e-06 -2.19108e-05)
(0.00225505 9.05549e-06 -1.96859e-05)
(0.00199287 8.80751e-06 -1.73975e-05)
(0.00173295 8.34466e-06 -1.51288e-05)
(0.00148125 7.78272e-06 -1.29317e-05)
(0.00124097 7.21696e-06 -1.08343e-05)
(0.00101346 6.69086e-06 -8.84841e-06)
(0.000798817 6.24547e-06 -6.97485e-06)
(0.000597432 5.79658e-06 -5.21695e-06)
(0.000409663 5.389e-06 -3.57779e-06)
(0.000241175 4.56421e-06 -2.10657e-06)
(9.9126e-05 3.17931e-06 -8.6651e-07)
(1.26581e-05 1.29258e-06 -1.26534e-07)
(-3.88405 -0.858363 0.033907)
(-3.19431 -0.665207 0.0278858)
(-2.62481 -0.519961 0.0229144)
(-2.15325 -0.408254 0.0187979)
(-1.76108 -0.321153 0.0153744)
(-1.4345 -0.252506 0.0125235)
(-1.16249 -0.198091 0.0101489)
(-0.936324 -0.154845 0.00817454)
(-0.748866 -0.120491 0.00653805)
(-0.594186 -0.0932699 0.00518769)
(-0.467275 -0.071791 0.00407973)
(-0.363829 -0.05493 0.00317662)
(-0.280135 -0.0417696 0.00244593)
(-0.212969 -0.0315591 0.00185953)
(-0.159537 -0.0236838 0.00139303)
(-0.117429 -0.0176456 0.00102539)
(-0.0845803 -0.0130433 0.000738588)
(-0.0592391 -0.00955666 0.000517327)
(-0.0399289 -0.00693166 0.000348719)
(-0.0254195 -0.00496849 0.000222026)
(-0.0146939 -0.00351021 0.00012837)
(-0.00692145 -0.00243735 6.04967e-05)
(-0.00143074 -0.00165491 1.25475e-05)
(0.00232044 -0.00108787 -2.02136e-05)
(0.00476104 -0.000682572 -4.15302e-05)
(0.00622882 -0.000397838 -5.43527e-05)
(0.00698688 -0.000200767 -6.09771e-05)
(0.00723773 -6.74879e-05 -6.31722e-05)
(0.00713571 1.98635e-05 -6.22859e-05)
(0.00679699 7.51024e-05 -5.93321e-05)
(0.00630791 0.000107558 -5.50647e-05)
(0.00573088 0.000124564 -5.00289e-05)
(0.00511031 0.000131409 -4.46129e-05)
(0.00447649 0.000131834 -3.90809e-05)
(0.00384926 0.000128503 -3.36061e-05)
(0.0032406 0.00012325 -2.82931e-05)
(0.00265701 0.000117188 -2.31991e-05)
(0.0021014 0.000110858 -1.83492e-05)
(0.00157689 0.000103976 -1.37706e-05)
(0.00108688 9.5691e-05 -9.49317e-06)
(0.000647186 8.31671e-05 -5.65425e-06)
(0.000277277 6.26933e-05 -2.42529e-06)
(4.14138e-05 2.98042e-05 -4.04933e-07)
(-3.7441 -1.28339 0.0326843)
(-3.15216 -1.01985 0.0275172)
(-2.65081 -0.817022 0.0231408)
(-2.22559 -0.658171 0.0194289)
(-1.86383 -0.532062 0.016271)
(-1.55552 -0.430722 0.0135797)
(-1.29245 -0.348552 0.0112832)
(-1.06802 -0.281501 0.00932406)
(-0.876846 -0.22659 0.00765518)
(-0.71447 -0.181571 0.00623768)
(-0.577151 -0.144704 0.00503891)
(-0.461676 -0.1146 0.00403082)
(-0.365233 -0.0901274 0.00318887)
(-0.285331 -0.0703447 0.00249131)
(-0.219725 -0.0544574 0.00191854)
(-0.166393 -0.0417907 0.00145292)
(-0.123508 -0.0317692 0.0010785)
(-0.0894304 -0.023905 0.000780964)
(-0.062701 -0.0177859 0.000547582)
(-0.0420354 -0.0130672 0.000367138)
(-0.0263154 -0.00946178 0.000229873)
(-0.0145821 -0.00673526 0.000127415)
(-0.00602328 -0.0046946 5.26741e-05)
(4.43072e-05 -0.00318454 -3.15683e-07)
(0.00418139 -0.00207905 -3.64482e-05)
(0.00684639 -0.00128407 -5.97272e-05)
(0.00840788 -0.000720547 -7.33696e-05)
(0.00915729 -0.000329303 -7.99205e-05)
(0.00932376 -6.46251e-05 -8.13808e-05)
(0.00908348 0.000108849 -7.92886e-05)
(0.00857054 0.000216888 -7.48146e-05)
(0.00788498 0.000279375 -6.88326e-05)
(0.00709965 0.000310996 -6.19793e-05)
(0.00626595 0.000322427 -5.4703e-05)
(0.00541885 0.000321364 -4.73094e-05)
(0.00458094 0.000313168 -3.99955e-05)
(0.00376596 0.000301209 -3.28819e-05)
(0.00298187 0.000287123 -2.60378e-05)
(0.00223641 0.000270471 -1.95306e-05)
(0.00153788 0.000248802 -1.34329e-05)
(0.000911548 0.0002157 -7.96454e-06)
(0.000388198 0.000162307 -3.39609e-06)
(5.50796e-05 8.08806e-05 -5.42286e-07)
(-3.41468 -1.62199 0.0298082)
(-2.92042 -1.31246 0.0254939)
(-2.49149 -1.06813 0.0217497)
(-2.12057 -0.873145 0.0185119)
(-1.80005 -0.716024 0.015714)
(-1.52316 -0.588206 0.0132969)
(-1.28391 -0.483389 0.0112085)
(-1.07721 -0.396863 0.00940412)
(-0.898752 -0.325091 0.00784627)
(-0.744915 -0.26538 0.00650334)
(-0.612662 -0.21565 0.00534882)
(-0.499408 -0.174261 0.00436014)
(-0.402928 -0.139898 0.00351789)
(-0.321277 -0.111481 0.00280508)
(-0.252713 -0.0881078 0.00220651)
(-0.195665 -0.0690096 0.00170846)
(-0.148688 -0.0535229 0.00129833)
(-0.110451 -0.0410707 0.000964493)
(-0.0797251 -0.0311488 0.000696224)
(-0.055385 -0.0233197 0.000483705)
(-0.0364101 -0.017205 0.000318024)
(-0.0218867 -0.0124819 0.000191207)
(-0.0110087 -0.00887494 9.62179e-05)
(-0.003069 -0.00615394 2.68822e-05)
(0.00253235 -0.00412804 -2.20362e-05)
(0.00630527 -0.00264157 -5.499e-05)
(0.00867366 -0.00156876 -7.56793e-05)
(0.00998136 -0.000809287 -8.71065e-05)
(0.010507 -0.000283869 -9.17043e-05)
(0.0104703 6.88045e-05 -9.13912e-05)
(0.0100427 0.000296368 -8.76633e-05)
(0.00935486 0.000435071 -8.16628e-05)
(0.00850454 0.000512267 -7.4243e-05)
(0.00756248 0.000548258 -6.60215e-05)
(0.00657837 0.000557864 -5.74325e-05)
(0.00558576 0.000551527 -4.87685e-05)
(0.0046064 0.000535948 -4.02202e-05)
(0.00365431 0.000514452 -3.19097e-05)
(0.00274262 0.000486597 -2.39517e-05)
(0.00188519 0.000447898 -1.64669e-05)
(0.00111554 0.000387682 -9.74735e-06)
(0.000474122 0.000290753 -4.14839e-06)
(6.42172e-05 0.000145535 -6.3655e-07)
(-3.0531 -1.86693 0.0266514)
(-2.64654 -1.53631 0.0231027)
(-2.28459 -1.26823 0.0199432)
(-1.965 -1.04969 0.0171536)
(-1.68426 -0.870531 0.014703)
(-1.43853 -0.722767 0.012558)
(-1.22393 -0.600211 0.0106847)
(-1.03684 -0.498048 0.00905157)
(-0.873966 -0.412535 0.00762977)
(-0.732392 -0.340742 0.0063939)
(-0.609585 -0.280364 0.00532186)
(-0.503352 -0.229568 0.00439449)
(-0.411799 -0.18688 0.00359527)
(-0.333287 -0.151097 0.00290988)
(-0.266374 -0.121221 0.00232573)
(-0.209778 -0.0964091 0.00183164)
(-0.162341 -0.07594 0.0014175)
(-0.122998 -0.0591852 0.00107402)
(-0.0907592 -0.0455916 0.000792553)
(-0.0647006 -0.0346686 0.000565036)
(-0.0439597 -0.0259827 0.000383942)
(-0.0277407 -0.019153 0.000242324)
(-0.0153172 -0.0138466 0.000133844)
(-0.00603034 -0.00977521 5.27468e-05)
(0.000700586 -0.0066958 -6.03372e-06)
(0.00538486 -0.00439814 -4.6945e-05)
(0.00845931 -0.00271317 -7.37997e-05)
(0.0102902 -0.00150031 -8.97954e-05)
(0.0111819 -0.000646114 -9.75904e-05)
(0.0113809 -6.07044e-05 -9.93367e-05)
(0.0110843 0.000326816 -9.67541e-05)
(0.0104459 0.000571524 -9.11858e-05)
(0.00958328 0.000715653 -8.36592e-05)
(0.00858362 0.000791075 -7.49355e-05)
(0.00750989 0.00082135 -6.55647e-05)
(0.00640598 0.000823278 -5.59295e-05)
(0.00530168 0.000807822 -4.62909e-05)
(0.00421733 0.000780564 -3.68262e-05)
(0.00317169 0.000741278 -2.76989e-05)
(0.00218415 0.000683274 -1.90783e-05)
(0.00129519 0.000591282 -1.13173e-05)
(0.000553178 0.000443197 -4.84052e-06)
(7.32967e-05 0.000221944 -7.29855e-07)
(-2.69209 -2.04308 0.0234998)
(-2.364 -1.70741 0.020636)
(-2.06376 -1.42813 0.0180154)
(-1.79256 -1.19548 0.0156481)
(-1.54988 -1.00127 0.0135298)
(-1.33424 -0.838705 0.0116474)
(-1.14363 -0.702223 0.00998363)
(-0.975838 -0.587308 0.00851893)
(-0.828596 -0.490309 0.00723361)
(-0.699734 -0.408269 0.00610873)
(-0.587246 -0.338794 0.00512677)
(-0.48931 -0.279936 0.00427185)
(-0.404309 -0.2301 0.00352982)
(-0.330817 -0.187976 0.00288826)
(-0.267582 -0.152473 0.00233623)
(-0.213501 -0.122675 0.00186411)
(-0.167596 -0.0978023 0.00146335)
(-0.128981 -0.0771791 0.00112624)
(-0.0968482 -0.0602159 0.000845699)
(-0.0704432 -0.0463901 0.000615163)
(-0.0490576 -0.0352342 0.000428447)
(-0.0320252 -0.0263311 0.000279731)
(-0.0187238 -0.0193102 0.000163589)
(-0.0085737 -0.0138434 7.49572e-05)
(-0.00104782 -0.00964621 9.23708e-06)
(0.00432957 -0.00647001 -3.77253e-05)
(0.0079796 -0.00410627 -6.96055e-05)
(0.0102662 -0.00237924 -8.95808e-05)
(0.0115003 -0.00114364 -0.000100365)
(0.01194 -0.000281846 -0.000104214)
(0.011797 0.000300604 -0.000102973)
(0.0112402 0.000678434 -9.81179e-05)
(0.0104019 0.000909907 -9.08043e-05)
(0.0093823 0.00103968 -8.19073e-05)
(0.00825561 0.00110119 -7.20746e-05)
(0.00707497 0.00111858 -6.17701e-05)
(0.00587775 0.00110782 -5.13207e-05)
(0.00469051 0.00107727 -4.0958e-05)
(0.00353756 0.00102717 -3.08941e-05)
(0.00244354 0.000948633 -2.13442e-05)
(0.00145481 0.000821658 -1.27121e-05)
(0.000626146 0.000616922 -5.4793e-06)
(8.23308e-05 0.000309612 -8.22249e-07)
(-2.35207 -2.16025 0.0205314)
(-2.09044 -1.8313 0.0182478)
(-1.84457 -1.55084 0.0161017)
(-1.61738 -1.31221 0.0141187)
(-1.41013 -1.10935 0.0123097)
(-1.223 -0.936901 0.0106763)
(-1.05539 -0.790227 0.00921318)
(-0.906209 -0.665389 0.00791101)
(-0.774137 -0.559064 0.00675813)
(-0.657712 -0.468457 0.00574183)
(-0.555461 -0.391232 0.00484924)
(-0.465956 -0.325425 0.00406791)
(-0.387863 -0.269395 0.00338621)
(-0.319968 -0.221762 0.00279351)
(-0.261175 -0.181363 0.00228026)
(-0.210516 -0.147214 0.00183802)
(-0.167131 -0.118479 0.00145927)
(-0.130257 -0.0944369 0.00113736)
(-0.0992059 -0.0744589 0.000866266)
(-0.0733484 -0.057994 0.000640515)
(-0.0521009 -0.0445517 0.000455008)
(-0.0349124 -0.0336914 0.000304935)
(-0.0212623 -0.025018 0.00018575)
(-0.010656 -0.0181768 9.31378e-05)
(-0.00263376 -0.0128543 2.30861e-05)
(0.00322944 -0.00877389 -2.81168e-05)
(0.00732095 -0.00569647 -6.38509e-05)
(0.00998524 -0.00341723 -8.71237e-05)
(0.0115246 -0.00176318 -0.000100574)
(0.0121968 -0.00059152 -0.000106453)
(0.0122181 0.00021457 -0.000106646)
(0.0117654 0.00074912 -0.000102701)
(0.0109802 0.00108664 -9.58515e-05)
(0.00997223 0.00128509 -8.70566e-05)
(0.00882459 0.00138849 -7.70415e-05)
(0.0075983 0.00142894 -6.63389e-05)
(0.00633758 0.00142804 -5.53354e-05)
(0.00507483 0.00139733 -4.43138e-05)
(0.0038396 0.00133776 -3.35318e-05)
(0.00266145 0.00123838 -2.32476e-05)
(0.00159165 0.00107446 -1.39078e-05)
(0.000690317 0.000809195 -6.04105e-06)
(9.05173e-05 0.000407576 -9.05909e-07)
(-2.04015 -2.2341 0.0178084)
(-1.83373 -1.91828 0.0160067)
(-1.63459 -1.64299 0.0142686)
(-1.44639 -1.40408 0.012626)
(-1.27137 -1.19743 0.0110983)
(-1.11071 -1.01908 0.00969594)
(-0.964775 -0.865406 0.00842212)
(-0.833361 -0.733166 0.00727501)
(-0.715871 -0.619486 0.00624943)
(-0.611458 -0.521857 0.00533799)
(-0.519142 -0.438101 0.00453214)
(-0.437881 -0.366333 0.00382278)
(-0.366633 -0.304926 0.00320083)
(-0.304401 -0.25248 0.00265757)
(-0.250252 -0.207792 0.00218487)
(-0.20334 -0.169828 0.00177534)
(-0.162908 -0.137701 0.00142238)
(-0.128281 -0.110646 0.00112008)
(-0.0988562 -0.0879965 0.000863196)
(-0.0740944 -0.0691718 0.000647014)
(-0.0535023 -0.0536579 0.000467233)
(-0.0366221 -0.040997 0.000319853)
(-0.0230209 -0.0307773 0.0002011)
(-0.0122835 -0.0226258 0.000107345)
(-0.00401775 -0.0162098 3.51693e-05)
(0.00214537 -0.0112325 -1.86508e-05)
(0.00655006 -0.00743276 -5.71184e-05)
(0.0095107 -0.00458328 -8.29779e-05)
(0.0113106 -0.00248829 -9.87032e-05)
(0.0121976 -0.000983301 -0.000106456)
(0.0123845 6.85745e-05 -0.000108097)
(0.0120498 0.000779403 -0.000105182)
(0.0113394 0.00123941 -9.89858e-05)
(0.0103688 0.00151983 -9.05178e-05)
(0.00922763 0.00167543 -8.05595e-05)
(0.00798322 0.00174669 -6.96991e-05)
(0.00668563 0.00176116 -5.8374e-05)
(0.00537257 0.0017339 -4.69134e-05)
(0.00407838 0.00166685 -3.5617e-05)
(0.00283708 0.00154715 -2.47816e-05)
(0.00170406 0.00134538 -1.489e-05)
(0.000744006 0.00101699 -6.51103e-06)
(9.73708e-05 0.000514366 -9.76071e-07)
(-1.76078 -2.27519 0.0153696)
(-1.59891 -1.976 0.0139569)
(-1.43881 -1.70987 0.0125595)
(-1.28419 -1.47466 0.01121)
(-1.13768 -1.26786 0.00993122)
(-1.00099 -1.08679 0.00873808)
(-0.875067 -0.928807 0.00763895)
(-0.760296 -0.791369 0.00663712)
(-0.656622 -0.672119 0.00573216)
(-0.563681 -0.568896 0.00492087)
(-0.480906 -0.479753 0.00419831)
(-0.407595 -0.40294 0.00355835)
(-0.342983 -0.336902 0.00299433)
(-0.286288 -0.280265 0.00249942)
(-0.236745 -0.231817 0.00206693)
(-0.193634 -0.190498 0.00169058)
(-0.156293 -0.155385 0.0013646)
(-0.124126 -0.125673 0.00108378)
(-0.096601 -0.100663 0.000843489)
(-0.0732446 -0.0797429 0.000639581)
(-0.0536306 -0.0623754 0.000468342)
(-0.0373707 -0.0480844 0.00032638)
(-0.024104 -0.0364455 0.00021055)
(-0.0134838 -0.0270729 0.000117821)
(-0.00517958 -0.0196205 4.53108e-05)
(0.00112356 -0.0137775 -9.73021e-06)
(0.00572426 -0.00926731 -4.9908e-05)
(0.00890146 -0.00584615 -7.76575e-05)
(0.010913 -0.00330051 -9.52302e-05)
(0.0119902 -0.00144815 -0.000104644)
(0.0123363 -0.000134887 -0.000107675)
(0.012126 0.000767501 -0.000105846)
(0.0115051 0.00136382 -0.000100431)
(0.0105918 0.00173802 -9.24635e-05)
(0.00947963 0.00195549 -8.27589e-05)
(0.00824062 0.00206512 -7.19459e-05)
(0.00692957 0.00210063 -6.05036e-05)
(0.00558875 0.0020808 -4.88009e-05)
(0.00425678 0.00200875 -3.71748e-05)
(0.00297157 0.00186992 -2.59563e-05)
(0.00179204 0.00163028 -1.56587e-05)
(0.000786716 0.00123724 -6.88491e-06)
(0.000102736 0.000628335 -1.03119e-06)
(-1.51389 -2.29332 0.0132144)
(-1.38759 -2.01182 0.0121121)
(-1.25961 -1.75686 0.0109951)
(-1.1334 -1.52777 0.00989365)
(-1.01163 -1.3233 0.00883079)
(-0.896198 -1.14186 0.00782324)
(-0.78838 -0.981664 0.00688215)
(-0.688916 -0.840845 0.00601396)
(-0.598125 -0.717557 0.00522146)
(-0.515995 -0.610011 0.00450454)
(-0.442278 -0.51652 0.00386106)
(-0.376558 -0.435511 0.00328737)
(-0.318308 -0.365536 0.0027789)
(-0.266948 -0.30528 0.00233055)
(-0.221872 -0.25355 0.00193706)
(-0.182485 -0.209285 0.00159322)
(-0.148224 -0.171541 0.00129414)
(-0.11857 -0.139486 0.00103526)
(-0.0930534 -0.11239 0.0008125)
(-0.0712555 -0.0896144 0.000622201)
(-0.0528033 -0.0705983 0.000461107)
(-0.0373614 -0.0548468 0.00032629)
(-0.0246244 -0.0419222 0.000215085)
(-0.0143023 -0.0314294 0.000124962)
(-0.00611885 -0.0230125 5.35078e-05)
(0.000192405 -0.0163509 -1.60245e-06)
(0.00488654 -0.0111571 -4.25948e-05)
(0.00820594 -0.00717598 -7.1585e-05)
(0.0103798 -0.00418076 -9.05735e-05)
(0.0116185 -0.00197532 -0.000101397)
(0.0121117 -0.000391232 -0.000105712)
(0.0120259 0.000713699 -0.000104971)
(0.0115033 0.00145733 -0.000100415)
(0.0106618 0.00193542 -9.30739e-05)
(0.00959656 0.00222347 -8.37791e-05)
(0.00838257 0.00237865 -7.31847e-05)
(0.00707819 0.00244079 -6.18009e-05)
(0.00572947 0.00243254 -5.00294e-05)
(0.00437864 0.00235834 -3.82389e-05)
(0.00306702 0.00220211 -2.67899e-05)
(0.00185638 0.00192529 -1.62209e-05)
(0.000818588 0.00146691 -7.16393e-06)
(0.000106627 0.000747828 -1.07142e-06)
(-1.09797 -1.78843 0.00958412)
(-0.995433 -1.56678 0.0086892)
(-0.894763 -1.36624 0.00781055)
(-0.797869 -1.18608 0.00696483)
(-0.706144 -1.02525 0.00616423)
(-0.620523 -0.882489 0.00541688)
(-0.541552 -0.756434 0.00472756)
(-0.469461 -0.645658 0.00409829)
(-0.404239 -0.548743 0.00352896)
(-0.345688 -0.464308 0.00301786)
(-0.293482 -0.391035 0.00256214)
(-0.247209 -0.327687 0.00215821)
(-0.206411 -0.273118 0.00180206)
(-0.170613 -0.226279 0.00148956)
(-0.139348 -0.186223 0.00121662)
(-0.112171 -0.152102 0.000979374)
(-0.0886736 -0.123166 0.000774248)
(-0.0684886 -0.0987495 0.000598031)
(-0.0512872 -0.0782717 0.000447859)
(-0.0367766 -0.0612195 0.000321174)
(-0.0246944 -0.0471411 0.000215689)
(-0.0147963 -0.0356317 0.000129268)
(-0.00685135 -0.0263291 5.98986e-05)
(-0.000636278 -0.0189052 5.62951e-06)
(0.00406514 -0.0130651 -3.54252e-05)
(0.00746051 -0.00854548 -6.50777e-05)
(0.00974945 -0.00511038 -8.50706e-05)
(0.0111197 -0.00255329 -9.70421e-05)
(0.0117443 -0.000694481 -0.000102503)
(0.0117786 0.000619861 -0.00010281)
(0.0113583 0.00151894 -9.91475e-05)
(0.0105984 0.00210914 -9.25199e-05)
(0.00959388 0.00247539 -8.3755e-05)
(0.00842092 0.00268266 -7.3519e-05)
(0.00714032 0.00277682 -6.2343e-05)
(0.00580098 0.00278433 -5.06536e-05)
(0.00444811 0.00271105 -3.88454e-05)
(0.00312583 0.00253954 -2.73034e-05)
(0.00189827 0.00222679 -1.65868e-05)
(0.000840068 0.00170315 -7.35198e-06)
(0.000109134 0.000871245 -1.0976e-06)
(-0.953739 -1.80835 0.00832507)
(-0.870707 -1.59467 0.0076004)
(-0.787827 -1.39895 0.00687703)
(-0.706886 -1.22115 0.00617057)
(-0.62927 -1.06082 0.00549312)
(-0.555986 -0.917225 0.00485347)
(-0.487706 -0.789422 0.00425747)
(-0.424812 -0.676326 0.00370848)
(-0.367455 -0.576782 0.00320782)
(-0.315601 -0.489602 0.00275518)
(-0.269076 -0.413606 0.00234906)
(-0.227613 -0.347652 0.00198712)
(-0.190876 -0.290649 0.00166643)
(-0.1585 -0.241579 0.00138379)
(-0.130105 -0.199503 0.00113592)
(-0.105322 -0.163569 0.000919572)
(-0.0838018 -0.13301 0.000731701)
(-0.0652233 -0.107146 0.000569511)
(-0.0492993 -0.085375 0.000430492)
(-0.0357736 -0.0671684 0.000312409)
(-0.0244188 -0.0520607 0.000213275)
(-0.0150265 -0.039637 0.00013127)
(-0.00740319 -0.0295288 6.4711e-05)
(-0.00136294 -0.0214034 1.19699e-05)
(0.00327643 -0.0149604 -2.85416e-05)
(0.00669096 -0.00993068 -5.83605e-05)
(0.00905218 -0.00607201 -7.89837e-05)
(0.0105244 -0.00317051 -9.18449e-05)
(0.0112627 -0.00103792 -9.82985e-05)
(0.0114095 0.000488959 -9.95869e-05)
(0.0110918 0.00154885 -9.68204e-05)
(0.0104198 0.00225749 -9.09594e-05)
(0.00948613 0.00270826 -8.28136e-05)
(0.00836704 0.00297346 -7.30481e-05)
(0.00712453 0.00310463 -6.22047e-05)
(0.00580948 0.00313199 -5.07276e-05)
(0.00446937 0.00306283 -3.90309e-05)
(0.00315059 0.00287845 -2.75196e-05)
(0.00191909 0.00253145 -1.67687e-05)
(0.000851772 0.00194324 -7.45446e-06)
(0.000110375 0.000997079 -1.11089e-06)
(-0.826129 -1.81967 0.00721113)
(-0.759037 -1.61393 0.00662558)
(-0.691011 -1.42343 0.00603187)
(-0.623653 -1.24864 0.00544398)
(-0.558265 -1.08958 0.00487326)
(-0.495847 -0.945958 0.00432845)
(-0.437118 -0.817196 0.00381584)
(-0.382546 -0.702517 0.0033395)
(-0.332387 -0.60101 0.00290166)
(-0.286719 -0.511673 0.00250303)
(-0.245484 -0.433466 0.00214309)
(-0.208526 -0.365342 0.00182047)
(-0.175613 -0.306277 0.00153316)
(-0.14647 -0.25529 0.00127876)
(-0.120802 -0.211462 0.00105468)
(-0.0983044 -0.173942 0.000858291)
(-0.0786857 -0.14196 0.000687024)
(-0.0616713 -0.11482 0.000538489)
(-0.0470116 -0.0919089 0.000410509)
(-0.0344837 -0.072681 0.000301137)
(-0.02389 -0.056659 0.00020865)
(-0.0150513 -0.043418 0.000131481)
(-0.00780493 -0.0325831 6.82123e-05)
(-0.00199574 -0.0238179 1.74905e-05)
(0.00252796 -0.0168183 -2.201e-05)
(0.00591484 -0.0113112 -5.15865e-05)
(0.00831082 -0.00705009 -7.25124e-05)
(0.0098574 -0.003816 -8.60224e-05)
(0.0106914 -0.00141456 -9.33106e-05)
(0.010941 0.000324657 -9.54971e-05)
(0.0107235 0.00154819 -9.36047e-05)
(0.0101424 0.00237968 -8.85375e-05)
(0.00928689 0.00292003 -8.10736e-05)
(0.00823171 0.00324814 -7.18661e-05)
(0.00703907 0.00342087 -6.14582e-05)
(0.00576103 0.00347194 -5.03042e-05)
(0.00444664 0.0034101 -3.88322e-05)
(0.00314399 0.00321542 -2.74619e-05)
(0.00192037 0.00283619 -1.67799e-05)
(0.000854417 0.00218463 -7.47763e-06)
(0.000110479 0.00112393 -1.11256e-06)
(-0.713946 -1.82477 0.00623186)
(-0.659808 -1.62663 0.00575938)
(-0.604098 -1.4414 0.00527317)
(-0.548213 -1.26992 0.00478542)
(-0.493329 -1.11262 0.00430638)
(-0.440387 -0.969537 0.0038443)
(-0.390106 -0.84041 0.00340542)
(-0.342986 -0.72473 0.00299413)
(-0.299344 -0.621806 0.00261318)
(-0.259331 -0.53081 0.00226392)
(-0.222975 -0.450833 0.00194657)
(-0.190199 -0.380928 0.00166047)
(-0.160856 -0.320135 0.00140432)
(-0.134748 -0.267517 0.00117641)
(-0.111648 -0.222181 0.000974756)
(-0.0913133 -0.183286 0.000797245)
(-0.0735043 -0.15006 0.000641777)
(-0.0579899 -0.121803 0.000506338)
(-0.0445569 -0.0978881 0.000389069)
(-0.0330127 -0.0777592 0.000288285)
(-0.0231864 -0.0609279 0.0002025)
(-0.014924 -0.0469599 0.000130363)
(-0.00808741 -0.0354734 7.06728e-05)
(-0.00254747 -0.026129 2.23025e-05)
(0.00182128 -0.0186198 -1.58439e-05)
(0.00514354 -0.0126706 -4.48548e-05)
(0.00754245 -0.00803115 -6.58057e-05)
(0.00913861 -0.00447966 -7.97479e-05)
(0.0100507 -0.00181753 -8.77175e-05)
(0.0103927 0.000131015 -9.07099e-05)
(0.010271 0.00151868 -8.96534e-05)
(0.00978154 0.00247568 -8.53862e-05)
(0.00900879 0.00310936 -7.86452e-05)
(0.0080251 0.00350449 -7.00618e-05)
(0.00689188 0.00372275 -6.01727e-05)
(0.00566155 0.00380115 -4.94353e-05)
(0.0043841 0.00374973 -3.82859e-05)
(0.0031088 0.00354742 -2.71543e-05)
(0.00190376 0.00313819 -1.66346e-05)
(0.000848779 0.00242499 -7.42831e-06)
(0.000109576 0.0012505 -1.10391e-06)
(-0.615816 -1.8255 0.00537527)
(-0.572164 -1.63441 0.00499432)
(-0.526614 -1.45426 0.00459678)
(-0.480357 -1.28619 0.00419306)
(-0.43443 -1.13091 0.00379222)
(-0.38969 -0.988739 0.00340172)
(-0.346817 -0.859678 0.00302751)
(-0.306311 -0.743445 0.00267395)
(-0.268515 -0.639542 0.00234405)
(-0.233628 -0.547299 0.00203952)
(-0.201728 -0.465931 0.00176107)
(-0.172804 -0.394581 0.00150859)
(-0.146769 -0.332357 0.00128133)
(-0.123487 -0.278367 0.00107809)
(-0.102789 -0.231745 0.000897408)
(-0.0844865 -0.191666 0.000737635)
(-0.0683853 -0.157361 0.000597076)
(-0.0542949 -0.128129 0.00047407)
(-0.0420358 -0.103335 0.000367049)
(-0.0314439 -0.0824142 0.000274581)
(-0.0223729 -0.0648688 0.000195389)
(-0.0146905 -0.0502565 0.000128318)
(-0.00827963 -0.0381893 7.23457e-05)
(-0.00303259 -0.0283235 2.65325e-05)
(0.0011542 -0.0203513 -1.00236e-05)
(0.00438371 -0.0139955 -3.82237e-05)
(0.00675959 -0.00900385 -5.89729e-05)
(0.00838375 -0.00515253 -7.31588e-05)
(0.00935766 -0.00224034 -8.16676e-05)
(0.00978121 -8.77819e-05 -8.53714e-05)
(0.00974962 0.0014625 -8.51016e-05)
(0.00935076 0.00254602 -8.1625e-05)
(0.00866346 0.00327554 -7.56298e-05)
(0.00775677 0.00374091 -6.77186e-05)
(0.00669052 0.00400809 -5.84143e-05)
(0.0055168 0.00411705 -4.81711e-05)
(0.00428591 0.004079 -3.74282e-05)
(0.00304778 0.00387172 -2.66213e-05)
(0.0018709 0.00343492 -1.63475e-05)
(0.00083566 0.00266217 -7.3135e-06)
(0.000107792 0.00137565 -1.0862e-06)
(-0.530301 -1.82325 0.00462881)
(-0.495121 -1.63856 0.00432179)
(-0.457921 -1.46318 0.00399713)
(-0.419708 -1.29844 0.00366363)
(-0.381377 -1.14529 0.00332909)
(-0.34369 -1.00426 0.00300015)
(-0.307268 -0.875562 0.00268225)
(-0.272588 -0.759111 0.00237956)
(-0.239998 -0.654575 0.00209509)
(-0.209716 -0.561422 0.00183077)
(-0.181858 -0.478977 0.00158759)
(-0.156452 -0.406472 0.00136583)
(-0.133459 -0.343077 0.00116512)
(-0.112791 -0.287944 0.0009847)
(-0.0943255 -0.240237 0.000823509)
(-0.0779193 -0.199147 0.000680292)
(-0.0634188 -0.163914 0.000553708)
(-0.0506696 -0.133837 0.000442411)
(-0.0395231 -0.108277 0.000345104)
(-0.0298415 -0.0866626 0.000260584)
(-0.0215011 -0.0684898 0.000187771)
(-0.0143895 -0.0533088 0.000125683)
(-0.00840747 -0.040726 7.34566e-05)
(-0.00346534 -0.0303939 3.03058e-05)
(0.000522038 -0.0220031 -4.50852e-06)
(0.00363866 -0.0152759 -3.17223e-05)
(0.00597128 -0.00995899 -5.20924e-05)
(0.00760513 -0.00582688 -6.63625e-05)
(0.00862622 -0.00267705 -7.52828e-05)
(0.00912079 -0.000327653 -7.9606e-05)
(0.00917304 0.00138204 -8.00679e-05)
(0.00886239 0.00259164 -7.73611e-05)
(0.00826154 0.00341834 -7.21206e-05)
(0.00743559 0.00395629 -6.49142e-05)
(0.00644213 0.00427517 -5.62452e-05)
(0.00533226 0.00441753 -4.65595e-05)
(0.00415608 0.00439559 -3.62943e-05)
(0.0029637 0.00418595 -2.58867e-05)
(0.00182349 0.00372406 -1.59331e-05)
(0.000815861 0.00289423 -7.14021e-06)
(0.000105246 0.00149832 -1.06061e-06)
(-0.455993 -1.81907 0.00398018)
(-0.427651 -1.64011 0.00373285)
(-0.397301 -1.46909 0.00346797)
(-0.365786 -1.30752 0.00319292)
(-0.333869 -1.15648 0.00291437)
(-0.302216 -1.0167 0.0026381)
(-0.271379 -0.888567 0.00236895)
(-0.241802 -0.772142 0.00211079)
(-0.213814 -0.667237 0.0018665)
(-0.187643 -0.573443 0.00163806)
(-0.163422 -0.490184 0.00142664)
(-0.141207 -0.416769 0.00123273)
(-0.120992 -0.352427 0.00105627)
(-0.102726 -0.296354 0.000896821)
(-0.0863226 -0.24774 0.000753634)
(-0.0716762 -0.205796 0.000625779)
(-0.0586673 -0.169771 0.000512218)
(-0.0471733 -0.138966 0.000411878)
(-0.0370733 -0.112742 0.000323708)
(-0.0282538 -0.0905248 0.000246715)
(-0.0206115 -0.0718031 0.000179997)
(-0.0140524 -0.0561221 0.000122734)
(-0.0084931 -0.0430836 7.41988e-05)
(-0.00385903 -0.0323363 3.37386e-05)
(-8.08536e-05 -0.0235693 7.50482e-07)
(0.00290966 -0.0165049 -2.5361e-05)
(0.00518374 -0.0108893 -4.52189e-05)
(0.00681234 -0.00649621 -5.94428e-05)
(0.00786782 -0.00312239 -6.86627e-05)
(0.00842354 -0.000584717 -7.35194e-05)
(0.00855309 0.00127978 -7.46557e-05)
(0.00832737 0.00261377 -7.26901e-05)
(0.00781272 0.00353792 -6.82019e-05)
(0.0070698 0.00414996 -6.17203e-05)
(0.00615341 0.00452268 -5.37241e-05)
(0.00511319 0.00470086 -4.46464e-05)
(0.00399851 0.00469752 -3.4918e-05)
(0.00285922 0.004488 -2.49741e-05)
(0.00176316 0.0040036 -1.54059e-05)
(0.000790161 0.00311945 -6.91527e-06)
(0.000102043 0.00161759 -1.02822e-06)
(-0.39156 -1.81371 0.00341775)
(-0.368741 -1.63982 0.00321862)
(-0.344006 -1.47274 0.00300275)
(-0.318056 -1.31408 0.00277628)
(-0.291538 -1.16508 0.00254484)
(-0.265026 -1.02659 0.00231344)
(-0.239004 -0.899138 0.00208633)
(-0.21387 -0.782908 0.00186695)
(-0.18993 -0.677835 0.001658)
(-0.167406 -0.583613 0.00146139)
(-0.146438 -0.499753 0.00127837)
(-0.127098 -0.425634 0.00110955)
(-0.109405 -0.360537 0.000955104)
(-0.0933311 -0.303698 0.000814798)
(-0.0788217 -0.254335 0.000688142)
(-0.0657989 -0.211676 0.000574462)
(-0.0541725 -0.174981 0.000472969)
(-0.0438466 -0.143556 0.000382828)
(-0.0347251 -0.116762 0.000303201)
(-0.026716 -0.0940226 0.000233282)
(-0.0197349 -0.0748232 0.000172338)
(-0.0137041 -0.0587049 0.000119687)
(-0.00855479 -0.0452652 7.4732e-05)
(-0.00422543 -0.03415 3.69333e-05)
(-0.000659947 -0.0250466 5.80202e-06)
(0.00219649 -0.0176776 -1.91379e-05)
(0.00440114 -0.0117893 -3.8389e-05)
(0.00601284 -0.00715524 -5.24643e-05)
(0.00709177 -0.00357181 -6.18886e-05)
(0.00769968 -0.000855407 -6.72005e-05)
(0.00790001 0.00115819 -6.89544e-05)
(0.00775541 0.0026138 -6.76967e-05)
(0.00732573 0.00363475 -6.39501e-05)
(0.00666692 0.00432159 -5.82026e-05)
(0.00583062 0.0047497 -5.09055e-05)
(0.00486453 0.00496568 -4.24749e-05)
(0.00381691 0.00498314 -3.33319e-05)
(0.00273695 0.00477609 -2.3906e-05)
(0.00169152 0.00427174 -1.47799e-05)
(0.000759308 0.00333629 -6.64523e-06)
(9.82823e-05 0.00173267 -9.90026e-07)
(-0.335776 -1.80772 0.00293082)
(-0.317423 -1.63826 0.00277067)
(-0.297294 -1.47469 0.002595)
(-0.275965 -1.31869 0.00240885)
(-0.253982 -1.1716 0.002217)
(-0.231835 -1.03438 0.00202371)
(-0.209947 -0.90766 0.00183267)
(-0.188666 -0.791739 0.00164693)
(-0.16827 -0.686645 0.0014689)
(-0.148965 -0.59216 0.00130039)
(-0.13089 -0.507871 0.00114263)
(-0.114127 -0.433217 0.000996312)
(-0.0987081 -0.367528 0.000861716)
(-0.0846255 -0.310075 0.00073879)
(-0.0718451 -0.2601 0.000627228)
(-0.0603125 -0.21685 0.000526557)
(-0.0499608 -0.179595 0.000436192)
(-0.0407166 -0.147646 0.000355495)
(-0.0325051 -0.120366 0.000283812)
(-0.0252534 -0.0971787 0.000220507)
(-0.0188939 -0.0775665 0.000164989)
(-0.0133636 -0.0610675 0.000116709)
(-0.00860716 -0.0472765 7.51841e-05)
(-0.0045744 -0.0358368 3.99756e-05)
(-0.00122037 -0.0264342 1.06912e-05)
(0.00149801 -0.0187912 -1.30436e-05)
(0.00362634 -0.0126552 -3.16275e-05)
(0.00521236 -0.00779982 -4.54773e-05)
(0.00630562 -0.00402143 -5.50266e-05)
(0.00695778 -0.00113654 -6.07243e-05)
(0.00722269 0.00101962 -6.30416e-05)
(0.00715508 0.00259322 -6.24558e-05)
(0.00680845 0.00370948 -5.94339e-05)
(0.00623385 0.00447113 -5.44215e-05)
(0.00547953 0.00495561 -4.78399e-05)
(0.00459092 0.00521095 -4.00856e-05)
(0.0036148 0.00525109 -3.15668e-05)
(0.00259936 0.00504869 -2.27041e-05)
(0.00161009 0.00452693 -1.40683e-05)
(0.00072401 0.00354342 -6.33627e-06)
(9.40489e-05 0.00184285 -9.46915e-07)
(-0.287534 -1.80147 0.00250973)
(-0.2728 -1.63586 0.00238116)
(-0.256453 -1.47539 0.0022385)
(-0.238962 -1.32179 0.00208585)
(-0.220785 -1.17646 0.00192721)
(-0.202339 -1.04044 0.00176622)
(-0.183988 -0.91447 0.00160605)
(-0.166036 -0.798925 0.00144937)
(-0.148728 -0.693914 0.0012983)
(-0.132251 -0.599293 0.00115448)
(-0.116739 -0.514712 0.00101908)
(-0.102273 -0.439663 0.000892821)
(-0.0888952 -0.373518 0.000776044)
(-0.0766105 -0.315578 0.000668812)
(-0.0654006 -0.265112 0.00057096)
(-0.0552288 -0.221379 0.000482168)
(-0.0460467 -0.183661 0.000402015)
(-0.0377996 -0.151274 0.000330023)
(-0.0304305 -0.123585 0.000265694)
(-0.023883 -0.100016 0.000208536)
(-0.0181044 -0.0800495 0.000158091)
(-0.0130452 -0.0632215 0.000113924)
(-0.00866154 -0.0491244 7.5654e-05)
(-0.00491386 -0.0373999 4.2935e-05)
(-0.00176665 -0.0277325 1.5457e-05)
(0.000813176 -0.0198445 -7.0684e-06)
(0.0028613 -0.0134844 -2.4951e-05)
(0.00441525 -0.00842674 -3.85201e-05)
(0.00551559 -0.00446808 -4.81306e-05)
(0.00620505 -0.00142533 -5.41537e-05)
(0.00652875 0.000866274 -5.69838e-05)
(0.00653393 0.00255352 -5.70331e-05)