/*--------------------------------*- C++ -*----------------------------------*\
| =========                 |                                                 |
| \\      /  F ield         | OpenFOAM: The Open Source CFD Toolbox           |
|  \\    /   O peration     | Version:  v2006                                 |
|   \\  /    A nd           | Website:  www.openfoam.com                      |
|    \\/     M anipulation  |                                                 |
\*---------------------------------------------------------------------------*/
FoamFile
{
    version     2.0;
    format      ascii;
    class       volScalarField;
    location    "0.02";
    object      p_rgh;
}
// * * * * * * * * * * * * * * * * * * * * * * * * * * * * * * * * * * * * * //

dimensions      [1 -1 -2 0 0 0 0];


internalField   nonuniform List<scalar> 
14347
(
100010
100285
100312
2.00037e+06
2.00037e+06
99830.8
6777.11
100320
2.00037e+06
2.00037e+06
100248
99844.8
100150
2.00037e+06
99840.5
100034
2.00037e+06
2.00037e+06
2.0002e+06
100116
2.00038e+06
2.00038e+06
2.00037e+06
100120
2.00032e+06
100122
100154
2.00038e+06
2.00038e+06
100000
100154
100152
2.00038e+06
100148
2.00038e+06
98007.8
2.00038e+06
2.00038e+06
2.00029e+06
98562.5
100153
100153
99768.5
2.00032e+06
100154
99571.3
2.00038e+06
100148
2.00038e+06
2.00038e+06
100234
100234
100236
99765.8
100234
100252
2311.1
2.00037e+06
2.00037e+06
2.00037e+06
100207
2.00037e+06
101231
2.00037e+06
2.00037e+06
100117
2.00038e+06
99983.2
99611.9
100005
2.00037e+06
2.00037e+06
2.00038e+06
100478
100541
2.00031e+06
100035
2.00033e+06
2.0003e+06
100106
99519.9
99997.1
2865.93
2573.51
2.00037e+06
2381.29
99981.2
2.00037e+06
99987.3
100423
100431
100375
100169
99668
100363
99669
101464
3254.55
98805.5
100148
98877.9
99997.8
99157.8
99220
99866.9
100308
100195
100119
2.00038e+06
100217
100026
95514.7
100119
95978.8
100236
99437.3
100206
99563.3
100017
94665.1
97544.5
2.00038e+06
99329
98812.1
99053.4
98925.3
103533
100117
2.00038e+06
2.00037e+06
100148
100238
93724.2
100092
106469
100972
99367
99755.4
100238
99613.7
99110.1
99272.5
101111
2.00037e+06
99223.3
99610.8
2.00035e+06
2.00038e+06
99990.1
100051
99610.2
99617.3
100856
99776.8
99593.2
100226
99679.5
99862.9
99593
100237
98596
93873
2.00036e+06
99577.7
99595.6
99645.7
2.00037e+06
99572.7
99649.2
99417.8
100179
100828
99400.4
2.00034e+06
99441
99667.8
99415.4
1.97518e+06
100946
100746
99560.4
99984
100251
99562.8
99590
2458.76
99583.3
99439.2
99780.7
100756
99427.8
2.00034e+06
101442
99439.2
98793.6
99980.5
101081
99452.9
99621.6
99506.4
99460.3
99448
99690.8
99828.3
99938.1
99922.4
99762.9
100145
99797.4
100146
101190
93271
99685.7
100005
100146
100148
99442.7
100145
101429
100110
100108
99869.6
100110
101369
99663.6
99599
2.00037e+06
100186
100212
100104
100147
100182
100389
2.00037e+06
100145
99399.5
100119
100148
100398
99393.8
99815.6
2.00037e+06
100237
100235
99527
100011
100237
100201
100111
99973.7
100204
2.00037e+06
100201
2.00038e+06
100039
100198
100236
99567.1
100023
100064
100239
100014
100143
100123
100045
100202
100226
100032
100185
100148
100221
100240
100162
100228
100233
2.00037e+06
100228
100151
100236
100024
100105
100069
100559
100432
2.00038e+06
100256
2.00033e+06
101305
98407.8
98073.8
97991.4
2.00036e+06
101735
99481.7
254034
100245
100356
101241
101083
1.99987e+06
2.00037e+06
101157
2.00037e+06
2.00038e+06
97649.4
100480
2.00037e+06
2.00037e+06
-477.586
2.0002e+06
98722.2
2.00037e+06
99578.6
2.00038e+06
2.00038e+06
98329
2.00038e+06
2.00037e+06
2.00038e+06
99678.6
99996.2
2.00037e+06
2.00037e+06
2.00037e+06
2.00037e+06
100138
2.00038e+06
99376.9
2.00038e+06
2.00038e+06
2.00037e+06
100141
2.00037e+06
2.00038e+06
99678.3
2.00037e+06
2.00037e+06
2.00037e+06
2.00037e+06
97854.5
2.00037e+06
2.00037e+06
100219
2.00037e+06
2.00037e+06
100055
2.00037e+06
2284
2420.08
2611.22
2186.43
94716
4456.27
99658.7
2.00038e+06
2.00038e+06
2.00037e+06
2.00038e+06
100146
2.00012e+06
2.00038e+06
2.00037e+06
2.00017e+06
100149
100149
2.0003e+06
99529.3
2.00029e+06
99446.4
2.00026e+06
101091
98384.2
99599.3
2.00016e+06
2.00037e+06
2.00005e+06
2196.64
2.00009e+06
99508.5
100084
2.00038e+06
99467.5
99390.7
100152
2.00038e+06
2.00038e+06
2.00038e+06
2.00038e+06
100103
2.00038e+06
2.00013e+06
2.00038e+06
2.00037e+06
2.00037e+06
100361
100170
100331
2220.99
99564.9
100167
100170
100276
100219
100260
2.00017e+06
100749
100720
91395.1
99771
100136
99793.4
100225
100984
99573.4
99789.3
99564.7
90085.4
99404.2
2321.7
98539.5
98356.5
100152
97262.5
100261
99279
99392
99874.8
99957.1
99564
97582.1
96876.3
81790.9
100141
100231
97614.2
89835.9
83791.2
99669.2
99993.4
100065
99920.5
97131.4
2.00037e+06
2.00037e+06
100240
100164
2.00037e+06
99458.5
100219
100270
2.00037e+06
100234
99664.1
99537.2
99770.4
100027
99648.2
100002
100147
100166
100113
99663.2
99666.6
2.00037e+06
99667.9
100191
99433.3
99588.3
99587.5
2.00037e+06
99677.5
99591.6
99676.6
99671.3
100236
99541.6
98596.7
1.99361e+06
100088
99443.5
99607.9
99648.6
2.00038e+06
99538
100128
99570.3
99645.3
99422.1
99658.7
115928
100153
99989.4
99629
100002
99540.6
99540.5
99363.7
99533.4
99550.5
2.00038e+06
2.00037e+06
99378.3
99576.3
99988.1
100147
100143
99527.6
99587.4
99606
99560.2
99931
100245
99872.7
99892.9
99993
99988.3
100059
100147
100453
100147
100942
100116
855563
2455.2
2313.06
2.00037e+06
100042
2.00038e+06
2.00037e+06
100149
100038
2.00038e+06
100147
100237
100054
100160
100148
100229
100157
100139
100148
100148
100147
100148
2.00037e+06
100154
100209
2112.58
100150
100148
100207
100212
100220
1.99994e+06
100164
100209
100214
100208
2.00038e+06
99521.8
100184
100225
100225
100216
2.00037e+06
98748.1
111678
100188
99992.4
99893.3
100200
2317.72
99424
99999.5
100183
100097
100771
97987.3
2229.92
100265
100239
100028
100035
2.00016e+06
100810
100218
100237
2.00037e+06
100229
98976.5
100029
2.00037e+06
100758
100798
100161
2.00038e+06
99617.1
99300.4
2.00038e+06
2.00038e+06
100451
2.00037e+06
2.00037e+06
2.00038e+06
99422
100438
2.00037e+06
101477
2.00038e+06
99769.2
101523
1.99142e+06
100026
101602
2.00037e+06
102228
2.00038e+06
2.00038e+06
2.00038e+06
2.00038e+06
99519.4
102135
2.00029e+06
99986.1
98678.4
100095
1693.01
99979.7
2.00038e+06
2.00024e+06
2.00025e+06
2.00001e+06
2.00004e+06
2.00038e+06
100456
2.00038e+06
100597
99414.2
100144
100131
99404.4
100185
2.00038e+06
2.00038e+06
99919.7
2.00038e+06
2.00037e+06
99653.9
2.00037e+06
2.00037e+06
2.00037e+06
101150
100418
99934.9
101187
2.00038e+06
101174
100990
99953.2
2.00038e+06
99951.3
100883
99913.5
245973
99643.2
99623.8
99800.1
101613
101629
1.99989e+06
2.00037e+06
99696.4
1.61106e+06
99129.5
2.00037e+06
99748.1
99731.1
2.00038e+06
99467.9
99462.5
100001
2.00037e+06
100245
2.00037e+06
2.00037e+06
2.00037e+06
99596.6
99786.9
99505.8
99577.9
2.00038e+06
100204
99634.1
100247
99636.7
99654
100179
99581
99690.8
100133
99819.7
99669.9
2.00037e+06
99582.1
100015
99702.8
99574.7
98969.9
99546.5
99478.5
99543.8
99602
99576
99575.9
99655
99561.6
100238
2.00037e+06
99640
99549.7
100052
99439
99566.6
2.00038e+06
99581.1
99456.7
98952.1
100156
99971.8
99445.4
2.00038e+06
100207
100171
99463.1
98005.9
99373
99580.4
99409
99581.1
99675.9
99395.8
98956.6
100245
99851.1
99584.7
99542.7
96136.6
99825
99861.1
99358.5
99353.8
100001
100090
99052.4
99984.6
100001
99996.9
96421.3
100030
95937.3
100177
99622
100044
99379.6
99979.9
100012
100127
100384
100140
97522.1
99344
100305
100149
100149
2.00038e+06
99372.7
100152
99969.5
108528
100115
2.00038e+06
100234
100205
2.0003e+06
100145
2.00038e+06
100202
2.00038e+06
99402.9
100196
100197
2.00038e+06
100218
100190
2.00038e+06
100236
99677.6
100240
100045
100123
2.00038e+06
99399.9
3398.05
100182
100262
100181
100242
100239
100282
100181
100073
100111
100131
2.00037e+06
100097
99371.2
100111
100099
2.00038e+06
100132
2.00038e+06
100042
100181
2.00036e+06
2.00037e+06
99432.3
99574
100238
2.00037e+06
99572.8
2.00037e+06
100215
100130
100082
99570.8
2.00037e+06
99455.4
100235
100147
99942.1
100241
2.00038e+06
99964.8
99357.4
99926.1
99599.9
100147
100229
99950.6
99591.5
2.00038e+06
99870.6
2.00038e+06
99832.8
99889
99907.6
100689
100101
100620
98816.2
100316
100137
99569.9
100662
99755
100055
100699
100106
101097
100124
101142
100118
100326
99589.9
99564.1
100135
100130
100081
99891.4
101877
100068
100156
100249
100178
99510.5
101689
100288
100238
100210
2.00037e+06
101275
101297
2.00037e+06
92376.6
100123
85614.4
100174
99514.1
100237
101311
100062
100340
100345
101015
84844.4
100238
100152
99584.1
99467.4
94520.2
2.00038e+06
100148
100826
100169
100912
100173
99582.5
100126
96350.4
100196
100820
100111
2.00037e+06
100216
100876
2.00037e+06
99469.7
100414
100208
100200
2.00037e+06
100145
101042
2.00037e+06
99859.4
2.00037e+06
2.00037e+06
99568.3
100584
2.00037e+06
2.00037e+06
2.00038e+06
100232
101476
99565.8
2.00037e+06
99739
99568.4
2.00038e+06
99636.4
2.00037e+06
100247
99567.8
100231
99761.8
100176
100231
2.00038e+06
100236
99685.6
99684.4
2.00038e+06
99431.6
99531.1
99552.7
99552.9
99426.7
99392.6
99416
2.00038e+06
99046
2.00038e+06
100050
99506.9
99352.1
99628
100064
99993.3
100048
99593.4
99671.2
99871.7
99863.6
99864
100241
100292
99869.3
106457
100035
100025
2.00037e+06
100019
100036
2.00017e+06
2.00028e+06
2.00025e+06
2.00001e+06
100126
99569.4
99371.7
99567.5
100148
99569.6
99744
99443.5
100156
99736.7
99524.9
99692.4
100202
98994.7
100597
2.00024e+06
100200
100182
100334
99537.7
99620.8
99530
100246
99765.2
99522.8
100234
99521.8
2.00037e+06
99548.3
100239
2935.95
99549.6
99471.7
100141
100156
100130
2301.16
99481.9
99463.9
99446.1
99450.4
99700.8
99604.1
100246
99578.9
99561.1
99456.1
99554.5
1955.77
99554
2.00038e+06
100815
5756.93
99573.1
100192
99572.2
2.00038e+06
2.00038e+06
99583.8
99707.3
2.00037e+06
99450.8
2.00037e+06
99716.8
99698.4
2.00037e+06
99686.5
99577.5
99710.7
2.00037e+06
99676.7
99730.6
100073
1.99838e+06
99673
100124
2.00038e+06
99698.1
99509.2
100077
99982
98894.5
100315
100095
100070
100320
100242
99674.8
100073
100073
99722.9
100147
100148
100149
100148
100845
100148
99331.7
100223
100636
99393.6
99601
100224
2.00037e+06
100083
100013
100147
100224
100214
100147
100876
99537.1
100149
100418
97490.4
98819.5
98457.9
99585.5
100307
100147
2.00037e+06
100146
100197
100192
99551.6
99914.6
99925
100187
100231
100094
2.00037e+06
98488.4
2.00037e+06
2.00035e+06
100033
100087
2.00035e+06
100179
100089
100094
100163
2.00037e+06
100031
2.00037e+06
2.00037e+06
100031
2.00037e+06
100048
2.00037e+06
99981
99821.3
100225
99757.5
2.00037e+06
2593.7
99661.4
100192
99564.4
98792
5767.28
99932.7
99684.2
100035
100256
2.00038e+06
99669.3
100019
100041
100180
100341
99540.1
99778.2
100133
99552.9
99238.3
2.00038e+06
100181
100122
96757.6
99556.7
100180
99492.9
99628.4
100207
99345.6
100095
100220
100292
100052
100319
100782
99376.6
99244.9
99494.6
96151.3
2.00038e+06
100715
99877.7
99884.5
100294
100169
99586
100880
99664
99685.9
100240
2.00037e+06
2.00037e+06
2.00037e+06
100025
99660
99991.7
100095
102155
100127
99713
2.00037e+06
2.00037e+06
100138
100105
99565.4
100153
100153
100024
100155
100161
100027
100157
100160
100155
100029
2.00037e+06
99798.4
99660.4
100037
2.00037e+06
2.00037e+06
1936.32
100189
2313.52
99801.5
2.00037e+06
100037
100250
100243
100146
100147
100148
99633.6
100146
99467.6
99801.6
2.00038e+06
100147
2.00037e+06
2.00037e+06
100238
99462.2
100367
2.00037e+06
2.00038e+06
100031
2.00038e+06
2.00038e+06
100240
2.00038e+06
2.00038e+06
2.00037e+06
99583.4
2.00038e+06
2.00037e+06
2.00038e+06
2.00038e+06
100239
2.00038e+06
100140
100029
2.00038e+06
2.00038e+06
100270
100002
99691.9
99667
100239
100288
99510.9
99990.5
99559.8
2.00036e+06
99742.4
99618.3
99994.6
99716.7
99194.7
100114
99894.1
99616.6
99411.2
99385.4
100151
100514
99895.1
100239
99978.5
99360.2
100027
99456.9
100221
100091
99658.5
99916.2
2.00037e+06
100148
2.00037e+06
100082
100241
100087
100087
100256
2.00032e+06
99385
100296
99624.3
99340.4
99553.5
100141
2.00037e+06
99753.6
99899.8
99984.1
100226
100142
2.00037e+06
99943.7
2.00037e+06
100226
96916.2
100486
99318.6
99702.1
99653.6
100141
99535.2
99648.7
100141
99688.7
100148
99603.9
99698.3
99598.8
100148
99772.5
100147
99506.5
99971
99510.9
99490.5
99702.2
99606.6
99679.3
99456.5
98905.7
100227
100227
99297.2
100228
99403.3
99940.8
99507.4
100228
2.00037e+06
2.00037e+06
99872.4
99900.6
100551
99886.4
99806.5
99501.3
100043
99462.2
100047
99270.8
100144
100092
95290.1
99245.1
100408
99393.3
99570.9
100238
100211
100180
99765.4
100091
100252
99939.6
100092
100241
2305.66
100377
99653.1
100237
99896
100147
100049
100153
100211
101379
2.00012e+06
2.00037e+06
1.88032e+06
99994.1
100153
100158
2.00038e+06
100229
100023
100039
100147
100141
100207
100020
100188
100194
100197
100247
100324
99285.9
100332
96331.6
100153
100095
99614.7
99621.5
100297
99411.7
99933.6
99684.5
99975.5
100188
99469.5
99666.4
100419
2.00037e+06
2.00037e+06
99663
99748.7
2.00038e+06
100214
99392.3
2.00037e+06
2.00037e+06
99666
2.00037e+06
99670.4
100001
2.00038e+06
2.00038e+06
2.00037e+06
2.00038e+06
100243
2.00038e+06
99625.2
2.00037e+06
2.00037e+06
2.00037e+06
2.00036e+06
2.00037e+06
100245
100253
100246
2.00037e+06
2.00037e+06
2.00037e+06
2.00038e+06
2.00037e+06
2.00037e+06
100194
100192
2.00037e+06
100148
100221
100230
100197
99625.3
99531
100140
100097
100037
99607.9
100011
99677.8
2.00038e+06
99407.8
99650.6
100140
2.00038e+06
96382.7
100516
100148
99094
99027.5
99629
2.00038e+06
100007
2.00038e+06
2.00038e+06
2.00037e+06
100252
96862.5
99172.3
101131
95797.6
99372.4
99541.7
99460.1
99293.4
100151
100142
99212.3
99256.1
2.00037e+06
99628.8
99618.3
99409.8
2.00037e+06
100090
100887
101101
99271.3
100171
2535.13
100168
100145
100160
99576.8
100188
99740.1
99590.8
100523
99668.1
99691.6
100807
100971
99410.4
99556.5
99403.8
99636.8
100147
99546.5
100171
99986.4
100227
100087
100149
100244
99681
99942.9
100146
100146
100466
100147
100147
99024.1
100035
2.00019e+06
99872.1
99485.9
100167
100003
99565.3
99419
99422.1
3962.33
2.00037e+06
99986.6
100237
99418.6
100186
100008
2.00037e+06
99993.6
100045
2.00038e+06
99987
100066
100074
2.00038e+06
99469.9
2.00038e+06
100285
99974.4
2.00037e+06
2.00037e+06
100013
99969.1
100231
99976.3
99497.8
100174
99156.1
99404.7
2.00033e+06
100169
99072.6
100159
99660.4
100183
100149
99967.6
100174
99568.3
100178
99971.5
100202
99761.5
100146
100201
99914.5
99487.3
100200
100198
100199
100201
100020
2.00033e+06
99506.8
99390.3
100270
100249
100151
100201
99623.5
99636.9
100256
100146
100155
99491.6
2.00034e+06
100129
100230
100229
100250
100224
2.00034e+06
100247
100088
100240
100263
2.00037e+06
100251
2.00038e+06
100247
99635
100269
100242
100239
100234
100320
100269
100033
2.00038e+06
2.00037e+06
100176
99341.4
101230
2.00038e+06
100099
99578.9
100289
99971.4
100249
99593.1
100110
100195
99598
100140
-5213.77
100171
99514.8
94075.2
99576.9
98304.6
100261
99644
99399.9
2.00037e+06
99541.5
99502
100037
99551
99860.4
2.00037e+06
2.00037e+06
99513.5
2.00037e+06
99615.8
99779.8
2.00037e+06
100146
100147
100149
2.00038e+06
99415
2.00038e+06
100352
2.00038e+06
100147
99672.6
2.00037e+06
2.00037e+06
99751.4
98612.5
99306.7
100121
2.00038e+06
2.00037e+06
99629.6
99105.5
99566.7
99829.7
99619.5
99537.9
98352.5
99659.6
99649.1
99207.8
99905.9
99590.3
97955.2
100221
2.00038e+06
98911.3
100239
2.00038e+06
2.00038e+06
100220
2.00037e+06
2.00038e+06
99366.8
99347.1
100120
100121
99932.8
2.00037e+06
2.00037e+06
100147
100239
100232
100289
100247
2.00038e+06
99383.6
99854.1
2.00038e+06
100442
100235
99506.6
100222
2.00038e+06
99903.4
2.00037e+06
2.00037e+06
2.00037e+06
2.00037e+06
2.00037e+06
100240
5465.26
66076
2.00037e+06
99433.3
2.00037e+06
99845.5
100019
99861
99688.3
100124
100388
100353
100404
99383.7
100518
99949.5
99557.6
99563.1
99343.7
99515.9
99629.2
99937.6
99782.4
100465
99559.8
100637
99674.3
99323.8
99994.8
99671.1
100684
99676.3
99673.6
100500
99589.2
99745.4
100175
100165
100533
100149
100336
99453.1
100125
2.00034e+06
100142
100200
94834.3
100228
99621.7
2.00034e+06
2.00033e+06
99790
99720.1
99773.1
99424.8
100179
100101
101217
99430
101392
100112
2.00035e+06
2.00035e+06
100241
100607
100227
100230
2.00037e+06
100228
101020
99332.8
99325.3
100143
100181
2.00037e+06
100057
101415
101444
100247
100266
2.00037e+06
2.00038e+06
100149
99418.5
99530.2
99527.1
2.00037e+06
100087
99632.8
95545.3
100086
2.00038e+06
99621.8
2.00037e+06
100237
100066
2.00037e+06
2.00037e+06
100061
100080
98887.1
2.00038e+06
99004.6
99616.9
96845.2
99617.6
2.00037e+06
2.00036e+06
2.00035e+06
100098
2.00036e+06
2.00036e+06
100111
99621.8
2.00037e+06
2.00037e+06
2.00037e+06
2.00038e+06
2.00037e+06
2.00038e+06
2.00037e+06
2.00038e+06
99632.1
2.00037e+06
99624.4
99625.7
100230
100197
99674.2
2.00037e+06
2.00037e+06
2.00037e+06
99408.1
2.00038e+06
98983.9
98849
99590.3
2.00037e+06
99626.7
99641.3
2.00038e+06
100221
2.00037e+06
100036
99636.4
2.00038e+06
99378.7
2.00038e+06
96755.2
99877.8
100236
99383.1
95693.1
99754.8
98702.8
100150
100155
2298.02
98951.7
100236
99677.2
39627.8
99358.9
95653.7
100236
100238
100212
98871.6
78359
99687.1
98026.5
98641.4
99568.2
2.00037e+06
2.00037e+06
99679.3
100143
2.00037e+06
99580
99643.1
99635.6
99246.3
99632
100148
100136
100131
100147
2.00037e+06
99334.4
100165
99426.9
100148
100175
2.00009e+06
99955.3
100298
100168
99840
99995.1
100154
99853.1
100091
96997.6
100164
99908.3
100112
100130
100143
99712.3
99682.7
2.00037e+06
100033
99558.3
100231
100161
100159
99792.2
2.00038e+06
100167
100230
100236
99913.7
100084
100125
100200
99985.7
100157
100238
98044.8
100085
100236
100381
100229
99882.3
100235
100237
100237
100157
100334
100236
100087
100058
2.00037e+06
100241
2.00037e+06
100110
100030
2.00037e+06
100055
100270
99968.6
100241
99577.1
99636.5
100255
100205
100057
100163
100201
100237
99622.8
100096
100235
99847
100137
100056
100101
100400
99677.1
100203
99464
99461.7
100134
99582.5
101411
99982.8
100447
100127
100691
2.00037e+06
100039
2.00037e+06
2.00037e+06
2.00037e+06
99572.4
99868.1
2.00037e+06
99565.9
2890.84
2.00038e+06
2.00037e+06
99904.1
99481.1
100207
2.00037e+06
2.00037e+06
2.00037e+06
2.00037e+06
2.00037e+06
99475.8
99665.2
99472.8
2.00038e+06
99580.3
99436.1
100235
99595
99496
2.00038e+06
100711
99969.7
2.00035e+06
100041
100003
99590.2
2.00035e+06
100624
99613.1
99581.2
2.00038e+06
99687
100223
100227
99696.5
99379.1
99685.4
2.00038e+06
99418.1
99672.7
99681.8
2.00038e+06
100235
99678.5
99385.9
99357.1
99478.8
99525.1
99511.6
99483
99957.4
2.00038e+06
95082.6
2.00038e+06
99837.7
99630.5
99721.6
99655.2
99543.7
99667.4
99571
2.00037e+06
2.00037e+06
99582.2
2.00037e+06
2.00038e+06
2.00038e+06
99171.1
2.00038e+06
100370
100070
100104
100098
100090
100147
100151
100149
100146
1725.72
100360
100149
99522.8
2.00037e+06
2.00037e+06
2.00038e+06
100234
2.00038e+06
100169
100254
100326
2.00037e+06
100330
100230
100154
100251
100217
100178
2.00037e+06
100148
2.00037e+06
100099
100157
100172
100890
100567
100609
2.00037e+06
100130
98317.4
99942.7
100882
2.00037e+06
99993.3
2.00035e+06
99938.6
100590
100017
100184
100402
100099
99570.7
100180
99581.3
100146
100130
2.00037e+06
2.00037e+06
2.00035e+06
99550.7
99669.2
2.00037e+06
99546.5
100147
99646.2
99284.9
100182
99692.3
100139
100137
99533.6
101302
100394
100750
2.00035e+06
99418.7
99207.6
100240
100186
2.00029e+06
100190
2.0003e+06
100205
2.00036e+06
100252
100240
2.00037e+06
2.00037e+06
100272
2.00037e+06
100240
100077
2.00037e+06
100240
2.00037e+06
2.00037e+06
2.00037e+06
101109
100604
2.00037e+06
100408
2.00037e+06
2.00038e+06
2.00038e+06
100240
99590.7
100060
100181
2.00038e+06
100066
2.00038e+06
100100
97534.3
100182
100266
100092
99957.9
100125
100183
2.00037e+06
92868.6
27245.8
99980
99602
99619.1
100168
99645.3
99638.7
100247
2692.49
100299
100166
99871.2
100147
100459
100061
99505.2
99493.1
99446.8
98671.6
99316.2
99551.5
99642.9
99646.5
99663.1
99364.6
100135
100562
99298.6
99359.5
99457.5
1808
99337.9
99888.3
99355.7
99771
100001
99277.4
99990.9
99664.5
99749.2
91694.8
100239
99885.1
99961.5
2329.54
99874.5
99869.6
100141
100141
100138
100139
100109
2255.31
99909.2
2540.2
100169
92237.7
2.00037e+06
2.00037e+06
100155
2.00037e+06
2.00037e+06
2.00037e+06
100213
100093
100170
2.00038e+06
99725
100151
96011.6
100279
100238
100261
94324.5
99708.2
95407.9
95663.3
100077
100248
96454.7
100241
100074
100001
2.00037e+06
99581.8
100216
100238
99574.3
100237
92697.8
95725.9
99492.1
99652
100225
100196
100204
100120
100195
100221
100035
99495.5
99651.8
2.00037e+06
2.00037e+06
100103
99634.1
99051.6
99655.1
99637.2
99801.6
2.00037e+06
101481
100713
100711
99638.9
99630.2
99627.9
2.00038e+06
2.00038e+06
99643.2
2.00038e+06
100224
100156
2.00038e+06
2.00038e+06
99640.4
2.00038e+06
2.00038e+06
100047
99525.6
99521.7
2.00037e+06
99571.2
2.00036e+06
2.00037e+06
100879
99514.6
99387.9
2.00037e+06
99523.5
2.00037e+06
2.00037e+06
99380.5
99683.2
99692
99703.4
99984.7
99670.9
99380.9
100552
100207
99395
99613.4
100123
100127
99599.6
100129
99653.3
2.00038e+06
99658.4
99439.7
99953.9
99585.4
99682.9
100753
99400.6
99983.6
99576.2
99952.6
99386
100125
100128
99605.5
100130
100344
100101
100133
100058
100145
99894.5
100104
100106
100234
100127
100102
100393
100166
100153
100162
100143
99676.9
99647.7
100151
100134
100077
100187
100247
100239
100308
99978.2
100238
100239
100240
100197
100243
99698.2
2.00031e+06
100064
100136
100237
2.00036e+06
100136
100071
100100
99312.1
100188
100191
99960.1
100264
100038
100159
99668.3
99560.4
100118
100365
99561.4
100144
99697.2
99515.1
99021.9
99296.9
2.00038e+06
2.00038e+06
99339.8
99272.4
100167
100165
100168
100191
100110
2.00036e+06
2295.74
100402
2.00037e+06
2.00037e+06
2.00037e+06
2.00037e+06
91945.1
99860.4
2.00035e+06
1.99994e+06
100202
2.00037e+06
2.00038e+06
2.00037e+06
2.00021e+06
100206
99874.8
2.00037e+06
2.00037e+06
99872.9
100096
96182.2
2.00037e+06
100080
97217.9
100084
100108
100104
99989.7
100100
100066
100236
100071
100066
99872.4
100070
99202.6
97168.2
100331
100059
100237
100235
100071
99582.9
2.00037e+06
100235
99575
2.00036e+06
99585.9
99878.2
99414.3
99393.7
99415.9
100247
99405.2
99655.9
2.00037e+06
99956.6
90431
100150
100143
100209
100237
100146
100143
99907.9
100237
100245
100241
2.00037e+06
100256
100236
100239
99611.1
2.00037e+06
102195
100579
2.00037e+06
100221
1.59972e+06
100054
100088
2.00037e+06
100060
100075
99551.6
99867.4
97800
2.00037e+06
100078
94342.8
1.9995e+06
2.00026e+06
2.00038e+06
2.00024e+06
1.99987e+06
2.00032e+06
100094
100090
100088
100092
99688.6
99530.2
99983.1
100156
99702.2
100167
3636.94
99905.2
2.00037e+06
99867.2
2.00017e+06
2.00036e+06
100019
91372.5
100237
2.00037e+06
99413.5
99584.5
2320.46
97177.4
99970.8
99435.9
2.00036e+06
100146
100179
100187
2.00038e+06
2.00038e+06
100235
100230
100140
2.00038e+06
100185
100150
100149
2374.94
2.00037e+06
100150
99965.4
100149
100150
100150
100123
100130
100148
100082
99436.6
100098
100074
100079
100145
100140
100190
100124
99535.2
99958.1
100236
100132
100239
99670.8
2.00037e+06
99721.9
100235
100207
2.00038e+06
99704.4
99906.8
2.0002e+06
2.00038e+06
99667.2
2.00038e+06
2.00038e+06
100215
2.00038e+06
2.00037e+06
99649.5
99959
99755.6
100197
99229.1
2.00037e+06
2.00037e+06
2.00037e+06
100209
2.00037e+06
100238
99223.2
97875.8
100132
99232.6
99247.9
100330
2162.44
99246.9
99393.9
2.00037e+06
99196.1
2.00037e+06
2.00037e+06
97580.7
97090.8
97329.7
2.00037e+06
99570.5
2.00037e+06
99593.5
100209
2431.38
2.00037e+06
2425.79
2.00037e+06
99187.4
99183.9
2.00037e+06
6208.33
100102
2316.45
2.00037e+06
2.00038e+06
1473.48
2.00037e+06
2.00038e+06
99853.9
2.00038e+06
99554.8
100052
1.99994e+06
2.00038e+06
99556.6
99306.3
2.00037e+06
96091.2
2.00037e+06
100151
100240
96085
100236
95922.8
99870.7
100148
100089
99735.3
100156
99151
100167
100148
98633.1
100224
2557.99
96518.2
99694.7
99467.5
100303
100357
99163.5
2.00037e+06
99672.1
98675.8
93918.9
2.00037e+06
100165
2.00037e+06
97932.3
99706.4
99659.5
2.00037e+06
99729.2
100215
99552.3
100278
99648.1
99757.7
2.00032e+06
99559.3
100196
100291
99591.3
99312.9
99561.3
100148
2.00033e+06
99566.1
100444
100454
100620
99535.2
100622
100231
100224
100227
100226
100231
100203
99329.9
100033
99394.2
99562.6
100233
99565.5
99392.8
99997.8
99893.3
101431
99894.6
100228
100277
99470.9
99516.6
99560.6
99472.8
99662.4
99934.9
99416.9
99707.3
2.00038e+06
99508.9
100536
100318
100351
100357
101054
99722
99862
100264
98042.9
99665.9
100060
99253.7
99588.6
99573.4
99690.2
100326
100332
100607
99680.6
100127
100148
100129
100135
100277
100266
100356
97929.8
100138
2.00037e+06
100077
99563.3
99705.7
100142
99667.7
99690.7
1742.69
99750.5
99552.4
100133
2602.53
100128
100274
99400.5
99424
99470.4
2.00037e+06
100161
100276
2348
99496.8
100061
100059
99613.7
2.00037e+06
2306.66
55655.6
99703.7
2330.87
100092
99666.1
99687.3
100204
2.00031e+06
99742
100068
100070
100094
99684.4
100131
99465.1
100122
100151
100145
100087
99865.5
99958
99990.7
100240
100238
100244
100277
100098
2.00036e+06
100148
2.00033e+06
2.00038e+06
100148
2.00038e+06
2.00036e+06
2.00033e+06
2.00038e+06
95657.2
2.00038e+06
2.00038e+06
100152
2.00037e+06
100155
2001.71
100153
95101.8
96494.5
100234
99707.3
99606.2
95954.7
99595.3
100152
99506.4
100233
99490.3
98254.3
100225
99663.5
100404
100267
100230
99779.7
100151
99512.9
100157
99556.3
99527.5
2.00037e+06
2.00037e+06
99678.5
100158
99680.3
99675.6
99632.1
100257
100141
100099
100262
100255
100128
99514.6
99498.6
100207
100262
99876.3
100221
99651
100220
99534.9
99975.6
100209
99826.5
100205
100256
99546.3
99483.7
100159
99751.1
99281.3
100262
99705.5
99852.3
99987.1
100241
99852.3
100245
100044
100244
99397.7
100155
100265
2.00037e+06
2.00037e+06
2.00037e+06
100239
99757.7
99659.5
100028
99640.2
100285
100249
2.00037e+06
2.00037e+06
100063
100198
100199
99988.9
100071
100193
100196
100152
100158
100217
100284
100146
98859.3
99487.8
100150
99993.8
99625.5
100217
100152
100152
100164
99891.1
100152
100149
2.00037e+06
100171
99785.2
2.00037e+06
2.00037e+06
100150
2.00038e+06
2.00038e+06
100244
100223
2.00037e+06
2.00038e+06
100005
100028
2.00037e+06
2.00037e+06
100159
100160
2.00038e+06
2.00037e+06
100020
100223
99979.4
100229
100237
2.00037e+06
2.00038e+06
100088
2.00037e+06
100605
100214
100239
100374
99989.6
99721.3
100241
99596.3
100015
100239
100209
2.00038e+06
2.00038e+06
99619.9
99751
99656
2.00038e+06
2.00038e+06
2.00037e+06
2.00038e+06
103500
99129.4
2.00038e+06
2.00038e+06
100145
2.00033e+06
2.00033e+06
2.00037e+06
2.00038e+06
97241.1
2.00038e+06
2.00038e+06
99302.8
2.00037e+06
2.00038e+06
99311.3
99165.3
99312.6
82512.6
4082.61
2.00037e+06
99943.8
99965.8
2390.92
100080
2.00037e+06
2.00037e+06
2.00037e+06
100134
2.00031e+06
95964.2
2.00034e+06
96865.7
94842.2
98992.2
99954.3
99644.7
98922.9
99475
99685.6
2.00037e+06
2.00037e+06
99580.6
99612.9
99654
100061
99689.1
99579.2
100059
99075.5
99645.7
99655
99610.9
99563.5
2.00037e+06
98779.6
99647.9
99698.9
100503
99709.1
99733.4
99642.4
99775.4
99900.3
100284
99553.7
99703.2
100318
100138
99719.4
99443.8
99926.6
99638.1
99524.6
99616.9
100491
100169
100234
99998.6
96209.6
100394
100116
97393.5
99710
99671.1
99767.9
100099
100098
100147
100148
100188
100255
96387
100244
100127
100140
100091
100167
99760.9
100192
100162
100209
100249
100249
100158
99681.8
99546.3
100249
2.00034e+06
100183
99562
99627.8
99559.3
2.00035e+06
100246
99603.7
100079
99611.9
99574.2
100210
2287.25
100010
2.00026e+06
100196
2.00037e+06
100033
100006
100069
2.00038e+06
2.00037e+06
100333
2.00037e+06
2.00037e+06
2.00037e+06
100041
100290
99476.4
99326.4
98726.6
99340.4
100144
100260
100042
97768.1
99627.9
2.00037e+06
99996.5
2.00038e+06
100220
100214
100100
98965
100099
99492.4
99264.8
99026.6
100293
99882.6
99862.5
99911.9
100073
99812.6
100318
99768.9
100177
100211
99592.2
99997.3
99716
99732.4
98882.8
99660.6
99553.3
99020.9
99612.6
2.00037e+06
99336.1
100107
99606.7
2.00037e+06
99661.5
99682.6
99408.3
99721.4
100118
98886.6
100127
100311
100115
99582.5
100086
99572.2
100129
99768.8
100150
100193
100213
100145
99238.7
100149
100505
99927.8
99586
99712.3
100197
99542.1
98619
100094
99467.1
100146
100135
99468.9
99461.3
100232
100193
100158
99472.5
100001
99638.1
98799.8
100005
100152
100125
99479.8
99484.6
99135.3
98635.6
100120
100238
100602
100243
99410.5
100205
100247
100151
100211
99467.4
100217
100177
99792.3
100175
100210
99789.8
100206
100153
100212
100159
99596.6
99996.2
99962.2
100156
100026
99733.6
98962.8
99501.1
100159
99728.3
99971.5
99984.6
99099.7
100183
99727.4
99980.8
99558.1
99636
99723.6
99440.2
100186
100002
99591.1
100114
99967.8
100210
100213
100133
100301
99572.5
99782.3
100131
100800
99507.9
99577
99658.3
99306
2.00037e+06
99511.8
100003
2.00037e+06
97451
2.00037e+06
100147
100010
99745.6
99787.8
99467.3
2.00037e+06
99300.9
99339.6
99331.1
100527
2.00038e+06
99962.6
99556
99551.3
99565
2.00038e+06
99521.8
100098
99553.9
100135
100142
100105
99627.8
100150
100232
100227
99323.3
100152
99645.8
100257
99447.6
100152
99321.1
99811.4
99649
99823.6
99551.6
100149
2.00037e+06
2.00038e+06
2.00037e+06
100149
2.00035e+06
100193
100112
99844.3
99524.4
99697.8
99681.4
99832
100114
99510.4
99501.6
100143
100043
100036
100020
100041
99275.8
100207
100227
100227
100089
100018
100019
100227
100225
100227
100148
100234
2.00037e+06
2.00037e+06
100202
100148
100218
100242
100035
100201
100033
100203
100209
100236
100243
100201
100232
100023
100233
100241
100291
100235
100209
100240
100202
100126
99594
100130
99533.9
99586.3
100137
100137
100117
99593.3
100139
100077
100128
100107
100353
99615.7
100282
96063.9
91591.5
96267
99982.3
96945.7
100287
100320
99371.7
101204
99381.1
100240
100129
99390.4
100239
100124
99373.7
98442.9
99440.7
99999.4
99996.8
99933.7
99999.6
99899.7
99994.1
99915.7
99877.2
99844.6
2.00038e+06
2296
100121
100123
100240
100441
100089
2296
100141
100040
99575.9
99577.2
100148
100164
100176
100170
100174
99572.4
99571.5
99429.2
2.00036e+06
2.00038e+06
100231
100237
2.00023e+06
2.00036e+06
2.00038e+06
100236
2.00038e+06
2.00038e+06
2335.67
99568.2
100350
99570.2
2.00038e+06
2.00038e+06
2258.05
2.00037e+06
2.00037e+06
2.00037e+06
2.00037e+06
100242
100245
2.00037e+06
2.00037e+06