/*--------------------------------*- C++ -*----------------------------------*\
| =========                 |                                                 |
| \\      /  F ield         | OpenFOAM: The Open Source CFD Toolbox           |
|  \\    /   O peration     | Version:  v2012                                 |
|   \\  /    A nd           | Website:  www.openfoam.com                      |
|    \\/     M anipulation  |                                                 |
\*---------------------------------------------------------------------------*/
FoamFile
{
    version     2.0;
    format      ascii;
    class       volScalarField;
    location    "0.35";
    object      alpha.water;
}
// * * * * * * * * * * * * * * * * * * * * * * * * * * * * * * * * * * * * * //

dimensions      [0 0 0 0 0 0 0];


internalField   nonuniform List<scalar> 
3326
(
5.89894e-32
1.85642e-36
3.01131e-40
1.34022e-43
4.17872e-47
8.51815e-51
9.91955e-55
5.39268e-59
3.38896e-62
1.19424e-28
7.97691e-28
2.57393e-29
1.33149e-33
2.08206e-37
1.2626e-40
5.61559e-44
1.74845e-47
3.55893e-51
4.14826e-55
2.24739e-59
8.293e-63
8.84432e-15
4.74472e-15
4.7355e-15
4.73793e-15
4.73975e-15
4.74595e-15
4.76184e-15
4.7937e-15
5.62664e-15
1.57806e-14
2.17294e-14
2.18687e-14
2.20268e-14
2.20744e-14
2.20715e-14
1.84983e-14
6.77766e-15
6.72958e-15
1.05061e-14
1.1773e-14
8.65461e-15
7.23411e-15
7.34915e-15
9.17549e-16
8.47074e-19
4.62972e-22
1.75704e-24
1.4545e-26
3.30193e-27
3.23895e-29
1.90067e-29
6.73994e-29
1.62086e-26
1.30833e-25
5.58674e-27
4.28601e-31
7.07666e-35
5.49728e-38
3.3444e-41
1.47686e-44
4.56982e-48
9.30028e-52
1.07003e-55
5.72365e-60
1.60661e-63
4.82787e-15
4.71693e-15
4.73566e-15
4.73753e-15
4.73699e-15
4.73702e-15
4.73889e-15
4.75253e-15
4.76724e-15
5.00843e-15
8.41036e-15
1.01708e-14
1.46742e-14
2.19647e-14
2.20552e-14
2.20339e-14
1.3978e-14
6.83105e-15
1.07668e-14
1.17802e-14
8.46829e-15
7.05063e-15
5.27885e-15
3.2182e-16
1.71224e-19
1.24695e-22
1.1013e-24
4.125e-25
7.28778e-27
2.49435e-27
9.56528e-27
1.48459e-24
1.38445e-23
7.71398e-25
8.69527e-29
1.50521e-32
1.44763e-35
1.14701e-38
6.88721e-42
3.01825e-45
9.32223e-49
1.86097e-52
2.11636e-56
1.11389e-60
2.36378e-64
8.22064e-15
4.71288e-15
4.71776e-15
4.73631e-15
4.737e-15
4.78658e-15
4.88039e-15
4.78578e-15
4.76817e-15
4.80294e-15
4.83285e-15
5.05251e-15
8.10872e-15
1.96422e-14
2.2009e-14
2.20217e-14
2.16768e-14
1.2131e-14
9.1291e-15
1.20759e-14
1.17767e-14
7.69899e-15
3.29401e-15
3.04268e-17
8.27163e-20
3.19065e-23
1.30983e-23
2.56893e-24
3.50656e-25
3.05959e-25
8.77058e-23
9.4641e-22
6.87573e-23
1.14226e-26
1.99507e-30
2.35989e-33
2.35685e-36
1.84665e-39
1.09989e-42
4.7913e-46
1.45467e-49
2.86305e-53
3.19828e-57
1.65148e-61
2.55369e-65
1.06742e-14
4.73321e-15
4.71064e-15
4.71897e-15
4.73588e-15
7.13428e-15
1.57589e-14
1.14407e-14
6.23592e-15
4.93415e-15
4.81852e-15
4.87592e-15
9.12492e-15
1.65008e-14
1.94017e-14
2.19098e-14
2.19306e-14
1.83074e-14
7.98202e-15
1.06034e-14
1.25738e-14
1.15489e-14
8.59606e-15
3.49865e-15
1.10823e-17
1.25255e-21
3.19065e-23
1.82064e-23
2.34571e-22
4.84161e-21
4.04298e-20
3.89765e-21
9.71184e-25
1.6681e-28
2.32334e-31
3.07583e-34
2.89336e-37
2.34478e-40
1.32848e-43
5.72046e-47
1.70314e-50
3.28201e-54
3.59229e-58
1.81418e-62
1.90092e-66
5.41226e-15
4.6947e-15
4.95288e-15
4.85564e-15
4.74237e-15
9.94435e-15
4.31875e-14
4.64676e-14
4.1362e-14
1.49434e-14
4.90497e-15
4.83959e-15
1.14859e-14
1.66047e-14
1.62212e-14
1.55899e-14
1.87156e-14
1.60081e-14
7.88904e-15
1.01031e-14
1.25694e-14
1.24298e-14
1.24118e-14
9.24681e-15
4.99791e-17
7.4358e-21
7.2249e-22
1.3826e-19
7.2183e-19
8.99214e-19
1.29368e-19
5.36006e-23
8.20994e-27
1.30166e-29
2.10688e-32
2.50078e-35
2.46064e-38
1.8874e-41
1.09101e-44
4.59719e-48
1.34593e-51
2.54513e-55
2.72162e-59
1.34038e-63
1.43431e-67
4.6947e-15
4.6947e-15
5.02325e-15
8.37815e-15
5.73301e-15
8.75986e-15
3.78815e-14
4.95544e-14
4.96612e-14
3.76507e-14
5.3931e-15
4.8411e-15
5.67659e-15
1.6229e-14
1.63255e-14
8.93336e-15
8.53767e-15
9.61527e-15
1.15758e-14
1.18454e-14
1.25725e-14
1.25845e-14
1.25846e-14
9.23011e-15
4.97246e-17
2.21803e-19
1.59272e-20
2.65991e-17
1.96685e-17
1.24467e-18
3.12188e-22
1.01607e-25
2.13265e-28
4.02069e-31
5.96913e-34
7.88111e-37
7.10843e-40
5.50158e-43
3.05257e-46
1.26347e-49
3.61044e-53
6.64622e-57
6.9168e-61
3.3205e-65
1.17448e-67
4.72784e-15
4.71519e-15
4.70561e-15
1.00278e-14
3.80429e-14
1.66565e-14
1.29332e-14
4.57801e-14
4.92918e-14
3.41385e-14
5.3266e-15
4.84855e-15
5.04163e-15
7.78119e-15
7.46182e-15
7.60668e-15
7.98973e-15
2.15007e-14
2.69141e-14
1.43507e-14
1.18603e-14
1.25762e-14
1.25812e-14
8.42893e-15
5.6195e-17
3.05467e-17
7.29575e-17
4.59745e-17
2.1921e-17
3.80934e-20
3.75697e-24
6.05915e-27
1.5783e-29
2.47703e-32
3.74965e-35
4.48407e-38
4.24873e-41
3.1421e-44
1.74948e-47
7.04739e-51
1.9659e-54
3.52263e-58
3.55508e-62
3.93898e-66
1.12587e-67
7.12095e-15
4.895e-15
4.68112e-15
4.97927e-15
7.04374e-14
1.68668e-13
1.10544e-13
3.86652e-14
3.49875e-14
1.84387e-14
5.28241e-15
4.88235e-15
5.03459e-15
5.828e-15
6.02086e-15
1.09895e-14
2.64699e-14
3.55336e-14
2.93245e-14
1.1285e-14
1.11598e-14
1.22612e-14
1.14863e-14
8.37101e-15
3.08429e-15
4.77217e-15
3.62208e-15
1.36049e-17
1.34802e-21
3.26983e-24
9.98601e-27
2.52357e-29
5.40439e-32
9.49755e-35
1.36759e-37
1.59434e-40
1.45448e-43
1.03253e-46
5.52381e-50
2.13397e-53
1.91237e-56
1.00422e-60
1.00696e-64
4.10132e-66
3.69088e-68
1.34172e-14
4.70947e-15
4.70706e-15
4.71853e-15
2.86241e-14
2.21185e-13
2.39684e-13
1.22907e-13
2.30205e-14
2.00064e-14
2.99103e-14
1.76091e-14
5.65526e-15
5.35879e-15
1.35903e-14
3.41471e-14
3.55843e-14
3.55844e-14
2.71767e-14
1.12499e-14
1.11055e-14
1.09031e-14
8.44827e-15
7.35398e-15
7.7977e-15
7.87365e-15
4.48734e-15
1.26555e-17
1.80171e-21
4.32693e-24
1.29933e-26
3.22797e-29
6.77647e-32
1.16592e-34
1.6405e-37
1.86493e-40
1.65695e-43
1.14304e-46
5.92986e-50
2.21575e-53
5.72478e-57
9.486e-61
8.72338e-64
6.31823e-69
1.02995e-68
6.31573e-15
4.7327e-15
7.13949e-15
5.07517e-15
7.13225e-15
6.64806e-14
2.43532e-13
2.50268e-13
1.5171e-13
1.16436e-13
1.7522e-13
1.68438e-13
3.41545e-14
5.25712e-15
1.88391e-14
3.53887e-14
3.55809e-14
3.55397e-14
3.14266e-14
1.14284e-14
1.09832e-14
1.07407e-14
8.19992e-15
7.77627e-15
7.9737e-15
7.97093e-15
1.81669e-15
2.14941e-18
5.02202e-22
1.52903e-24
4.5951e-27
1.13552e-29
2.36876e-32
4.03608e-35
5.61072e-38
6.28862e-41
5.49042e-44
3.71415e-47
1.88478e-50
6.89727e-54
2.71304e-57
2.82504e-61
3.35057e-65
1.55235e-69
1.99227e-69
4.67625e-15
4.70034e-15
1.64323e-14
1.64727e-14
7.37199e-15
9.63916e-15
6.40019e-14
2.45275e-13
2.57557e-13
2.52427e-13
2.22271e-13
1.97038e-13
7.62162e-14
5.76603e-15
6.44232e-15
3.33406e-14
3.55774e-14
3.54414e-14
3.41633e-14
1.22774e-14
1.05047e-14
1.09961e-14
1.02799e-14
7.80626e-15
7.99354e-15
7.30335e-15
5.88152e-16
2.88141e-19
1.41546e-22
4.88881e-25
1.44658e-27
3.51314e-30
7.18509e-33
1.19774e-35
1.62534e-38
1.77407e-41
1.50528e-44
9.87074e-48
4.84281e-51
1.7033e-54
4.12425e-58
6.35676e-62
1.26672e-64
5.69028e-70
3.74631e-70
4.67706e-15
4.67625e-15
1.31944e-14
3.08492e-14
8.98927e-15
8.45051e-15
1.26784e-14
8.19102e-14
2.53125e-13
2.61244e-13
2.54059e-13
1.64462e-13
2.30978e-14
5.16498e-15
5.09684e-15
1.20202e-14
3.50539e-14
3.53643e-14
1.82453e-14
7.74028e-15
9.70738e-15
1.20992e-14
1.07154e-14
7.81029e-15
7.99408e-15
7.02395e-15
2.8471e-16
8.80537e-20
7.24092e-23
2.44391e-25
7.0484e-28
1.66892e-30
3.31859e-33
5.37106e-36
7.06281e-39
7.45468e-42
6.10555e-45
3.85527e-48
1.81678e-51
6.12549e-55
1.41036e-58
3.51307e-62
1.70579e-66
2.99397e-70
2.45275e-70
4.68699e-15
4.70701e-15
4.89797e-15
1.39165e-14
1.19625e-14
1.49073e-14
1.2131e-14
1.453e-14
1.31764e-13
2.58608e-13
2.5948e-13
7.26846e-14
5.70721e-15
5.36639e-15
5.60566e-15
5.77353e-15
2.16645e-14
1.86676e-14
6.83751e-15
7.673e-15
1.56329e-14
1.29943e-14
9.84716e-15
7.81272e-15
7.98593e-15
6.93433e-15
2.29089e-16
6.19418e-20
5.75967e-23
1.90792e-25
5.38595e-28
1.24553e-30
2.41285e-33
3.79599e-36
4.84066e-39
4.94257e-42
3.90659e-45
2.37402e-48
1.07352e-51
3.46466e-55
7.60605e-59
1.05821e-62
8.13151e-67
2.41479e-70
2.22965e-70
4.85194e-15
4.86696e-15
4.83946e-15
4.96627e-15
6.74121e-15
2.13411e-14
1.33163e-14
1.01735e-14
1.37633e-14
2.08488e-13
2.54112e-13
6.73765e-14
6.16539e-15
9.25411e-15
9.81702e-15
6.72299e-15
5.80395e-15
5.93998e-15
6.7006e-15
2.1415e-14
1.82944e-14
1.11308e-14
1.0055e-14
7.81929e-15
7.94464e-15
6.7527e-15
1.76921e-16
4.20773e-20
4.34824e-23
1.40456e-25
3.86014e-28
8.67639e-31
1.63084e-33
2.48484e-36
3.07046e-39
3.02842e-42
2.30511e-45
1.34479e-48
5.81839e-52
1.79158e-55
3.73141e-59
4.90495e-63
3.54284e-67
2.05992e-70
1.98353e-70
4.86301e-15
4.87018e-15
4.86079e-15
4.84779e-15
4.8468e-15
6.73031e-15
1.6729e-14
8.0292e-15
8.26658e-15
4.09081e-14
8.74949e-14
5.26645e-14
6.03933e-15
9.78387e-15
9.81062e-15
6.68201e-15
5.12234e-15
5.45501e-15
3.25633e-14
3.03245e-14
1.23167e-14
1.09042e-14
1.09054e-14
8.33107e-15
7.74938e-15
6.52448e-15
1.65899e-16
3.89191e-20
3.97069e-23
1.25132e-25
3.3462e-28
7.30162e-31
1.32863e-33
1.95495e-36
2.31989e-39
2.19317e-42
1.59664e-45
8.8839e-49
3.65406e-52
1.06661e-55
2.84876e-59
2.59848e-63
1.74513e-67
1.90629e-70
1.85405e-70
4.82436e-15
4.86491e-15
4.86884e-15
4.89879e-15
4.9064e-15
4.87981e-15
5.76297e-15
7.58439e-15
3.25471e-14
1.32989e-14
1.099e-14
7.09389e-15
5.99857e-15
7.75886e-15
5.31333e-15
5.17017e-15
5.19126e-15
3.12695e-14
4.02922e-14
3.40472e-14
1.07075e-14
1.13276e-14
9.94321e-15
7.65064e-15
7.6398e-15
6.65727e-15
2.10645e-16
5.31005e-20
4.84735e-23
1.48441e-25
3.84342e-28
8.10159e-31
1.41975e-33
2.00688e-36
2.27545e-39
2.05145e-42
1.42127e-45
7.50427e-49
2.91924e-52
8.03421e-56
1.81601e-59
1.71465e-63
1.06674e-67
3.35638e-70
1.83462e-70
4.81921e-15
4.8431e-15
4.86397e-15
5.75607e-15
6.012e-15
5.37448e-15
5.62287e-15
6.21074e-14
7.20095e-14
9.71169e-15
6.20835e-15
6.17007e-15
5.83402e-15
6.47925e-15
2.41717e-14
1.82224e-14
2.10273e-14
4.34306e-14
4.00918e-14
1.69001e-14
1.04106e-14
1.13649e-14
9.33678e-15
7.65553e-15
8.13838e-15
6.99419e-15
2.05488e-16
4.66819e-20
4.51439e-23
1.31508e-25
3.26233e-28
6.60387e-31
1.11117e-33
1.50577e-36
1.63837e-39
1.41347e-42
9.33947e-46
4.68554e-49
1.72581e-52
4.47723e-56
7.9607e-60
8.18882e-64
4.68142e-68
1.84663e-70
1.83462e-70
4.82368e-15
4.84527e-15
6.30274e-15
1.06228e-13
1.65093e-13
8.26671e-14
2.78116e-14
1.13286e-13
7.14731e-14
7.64778e-15
6.25881e-15
6.20835e-15
6.07839e-14
1.09648e-13
8.349e-14
7.83917e-14
7.04257e-14
4.77119e-14
4.52505e-15
8.12613e-15
1.12204e-14
1.04695e-14
8.62595e-15
8.61557e-15
8.65815e-15
4.2594e-15
1.05245e-17
1.6312e-21
4.07578e-24
1.15702e-26
2.76691e-29
5.36587e-32
8.62317e-35
1.11319e-37
1.15125e-40
9.41319e-44
5.87579e-47
2.78564e-50
9.66211e-54
2.35871e-57
2.55199e-59
4.66627e-64
1.45698e-68
7.09522e-69
4.06995e-70
4.85256e-15
5.08402e-15
1.02472e-13
1.33661e-12
1.58075e-12
1.18263e-12
1.3133e-13
5.50853e-14
1.54386e-14
1.53407e-14
6.70907e-15
6.42347e-14
2.68108e-13
2.53718e-13
8.4707e-14
7.40823e-14
6.2669e-14
6.6006e-16
6.84972e-16
1.07671e-14
1.18305e-14
9.87168e-15
8.62557e-15
8.74255e-15
8.74251e-15
3.21186e-15
5.80967e-18
1.06922e-21
2.78438e-24
7.5572e-27
1.72359e-29
3.18167e-32
4.85467e-35
5.93654e-38
5.80022e-41
4.46703e-44
2.62708e-47
4.32938e-50
4.01153e-54
1.07105e-57
2.36415e-58
3.36903e-60
5.73233e-66
9.4009e-68
3.17347e-69
5.12524e-15
1.8513e-14
5.87301e-13
1.7534e-12
1.82953e-12
1.77066e-12
4.59871e-13
2.28202e-14
1.63403e-14
1.53692e-14
5.37194e-14
2.39229e-13
2.74788e-13
1.45106e-13
-7.68882e-23
-1.05263e-14
-1.3829e-14
-1.11264e-14
-2.0536e-15
1.1027e-14
1.17741e-14
9.3188e-15
8.68951e-15
8.77307e-15
8.65037e-15
2.23628e-15
2.80436e-18
6.21189e-22
1.66996e-24
4.3187e-27
9.36803e-30
1.64089e-32
2.37077e-35
2.73827e-38
2.52308e-41
1.82765e-44
1.00979e-47
3.70251e-50
1.4881e-54
6.82439e-58
4.19308e-58
8.69297e-60
1.54389e-65
9.39129e-67
5.1391e-69
7.37327e-15
9.34918e-14
6.55673e-13
1.23735e-12
1.81665e-12
1.7853e-12
4.79531e-13
2.91291e-14
2.0585e-14
6.02125e-14
2.10858e-13
2.39107e-13
9.33861e-14
-2.93217e-14
-1.13421e-13
-1.21603e-13
-9.18029e-14
-5.21293e-14
-1.6404e-14
4.01377e-15
1.17398e-14
9.23442e-15
8.78868e-15
8.74523e-15
7.76264e-15
1.6322e-15
1.6418e-18
3.6618e-22
1.06283e-24
2.60637e-27
5.34552e-30
8.83118e-33
1.19983e-35
1.29948e-38
1.11729e-41
7.51885e-45
3.83965e-48
2.30692e-50
5.46586e-55
1.03709e-57
1.08975e-57
2.41614e-59
3.86161e-65
2.86289e-66
1.94548e-68
5.23903e-14
1.00957e-13
2.70208e-13
5.12795e-13
1.68196e-12
7.90092e-13
8.16794e-14
6.48412e-14
3.16762e-13
2.41926e-13
1.92603e-13
6.62883e-14
-1.24616e-13
-3.29092e-13
-4.1101e-13
-3.6658e-13
-2.5852e-13
-1.43401e-13
-5.66394e-14
-9.65035e-15
9.00658e-15
9.45847e-15
8.61368e-15
7.33553e-15
6.82891e-15
2.75778e-15
4.72476e-18
7.06685e-22
1.5398e-24
3.55e-27
6.82457e-30
1.05447e-32
1.33608e-35
1.34606e-38
1.07145e-41
6.67122e-45
3.1405e-48
1.13395e-50
3.45871e-55
2.17562e-58
1.69053e-58
1.21635e-60
1.17934e-66
6.94162e-68
6.9416e-68
2.15335e-13
2.70208e-13
1.34137e-12
3.28921e-12
1.16791e-12
2.39537e-13
2.32398e-13
1.68781e-12
1.00158e-12
2.45964e-14
-4.31229e-14
-2.83313e-13
-6.79607e-13
-9.73024e-13
-1.01474e-12
-8.41373e-13
-5.72455e-13
-3.15786e-13
-1.33244e-13
-3.66905e-14
-1.31339e-15
9.21198e-15
8.03011e-15
6.77312e-15
6.77114e-15
2.83818e-15
4.70672e-18
6.88835e-22
1.30326e-24
2.80125e-27
5.00757e-30
7.18732e-33
8.44723e-36
7.88056e-39
5.80639e-42
3.32755e-45
1.43263e-48
5.40413e-51
1.56018e-52
9.50623e-58
2.81609e-62
3.5585e-63
3.53398e-63
8.25245e-66
3.20726e-67
2.56131e-12
1.56705e-11
3.04507e-11
9.51513e-12
4.41558e-13
6.59188e-13
5.69312e-12
3.74794e-12
1.40904e-13
-9.08249e-14
-5.25063e-13
-1.1732e-12
-1.84214e-12
-2.20426e-12
-2.11164e-12
-1.67132e-12
-1.10461e-12
-6.01621e-13
-2.59619e-13
-8.16615e-14
-1.33583e-14
6.61057e-15
8.02133e-15
7.34646e-15
6.45303e-15
4.71509e-16
1.60325e-19
7.3429e-23
1.67747e-25
3.36141e-28
5.59145e-31
7.44205e-34
8.08802e-37
6.95303e-40
4.70379e-43
2.46481e-46
1.37188e-49
4.39008e-50
1.932e-51
1.66406e-56
1.31824e-60
1.05057e-59
3.29019e-62
1.80855e-64
1.85524e-66
7.32283e-11
1.62825e-10
6.90385e-11
3.73256e-12
2.30244e-12
1.41458e-11
1.03689e-11
5.17382e-13
-2.89295e-21
-7.17276e-13
-1.76102e-12
-2.99712e-12
-4.02172e-12
-4.3903e-12
-3.97208e-12
-3.01936e-12
-1.93401e-12
-1.03023e-12
-4.42442e-13
-1.44519e-13
-3.00504e-14
2.44622e-15
8.01209e-15
7.98981e-15
2.7836e-15
3.98942e-18
6.63195e-22
1.37569e-24
3.07357e-27
5.64699e-30
8.61259e-33
1.04872e-35
1.04386e-38
8.25033e-42
5.03958e-45
1.4588e-47
1.07983e-48
8.54199e-50
2.05088e-54
1.45706e-56
1.45685e-56
4.25971e-58
6.55914e-64
6.55897e-64
1.06209e-65
4.1213e-14
4.25674e-11
2.808e-10
2.35778e-10
2.85701e-11
4.37049e-12
2.97556e-11
2.75324e-11
3.05647e-12
2.72955e-29
-7.36372e-13
-2.26264e-12
-4.33695e-12
-6.48437e-12
-7.94797e-12
-8.11814e-12
-6.97807e-12
-5.0836e-12
-3.13691e-12
-1.61779e-12
-6.78004e-13
-2.19785e-13
-4.85609e-14
-1.16347e-15
7.78664e-15
7.19333e-15
3.6697e-16
9.83967e-20
5.88796e-23
1.39839e-25
2.84071e-28
4.74408e-31
6.56217e-34
7.3065e-37
1.94139e-38
7.14186e-41
8.43473e-45
3.36678e-44
4.91423e-45
1.81955e-49
2.41767e-54
1.53966e-55
1.6447e-55
3.34459e-57
1.78773e-63
1.11696e-63
3.91581e-65
9.06236e-11
1.10446e-10
2.49282e-10
8.34468e-11
1.76736e-11
3.10943e-11
4.25018e-11
1.51795e-11
3.85618e-13
-3.35042e-13
-2.48587e-12
-5.63607e-12
-9.44686e-12
-1.29001e-11
-1.473e-11
-1.41876e-11
-1.15896e-11
-8.05958e-12
-4.75881e-12
-2.35289e-12
-9.48151e-13
-2.97575e-13
-6.51559e-14
-3.71081e-15
7.4498e-15
4.03456e-15
8.72583e-18
1.11188e-21
1.99733e-24
4.45705e-27
8.25322e-30
9.65922e-32
1.83978e-35
1.7886e-38
2.527e-39
2.11729e-43
7.94772e-45
4.56785e-44
9.4947e-45
4.17459e-49
3.79759e-54
1.90582e-55
2.2979e-55
3.80821e-57
1.30171e-63
1.30857e-63
9.03558e-65
1.14662e-08
6.05213e-10
7.91777e-11
1.90135e-11
1.76736e-11
5.54369e-11
4.62531e-11
4.09253e-12
1.73992e-30
-2.29271e-12
-6.71215e-12
-1.27715e-11
-1.93153e-11
-2.43821e-11
-2.60581e-11
-2.36682e-11
-1.83125e-11
-1.20871e-11
-6.7769e-12
-3.18003e-12
-1.21563e-12
-3.62281e-13
-7.58894e-14
-5.31026e-15
7.22461e-15
1.48193e-15
1.16191e-18
2.57831e-22
5.21079e-25
1.03936e-27
1.43974e-29
1.48447e-31
7.59366e-36
4.82815e-39
3.23272e-42
9.1597e-45
7.91836e-45
7.46341e-45
9.78326e-46
2.47564e-50
3.5855e-55
1.60568e-55
1.65378e-55
1.98572e-57
7.49378e-64
1.13163e-63
1.11137e-64
2.7284e-08
2.07332e-09
1.43373e-10
3.99583e-11
5.85841e-11
9.7893e-11
3.53185e-11
1.02648e-12
-1.02943e-12
-7.03097e-12
-1.62265e-11
-2.75298e-11
-3.81362e-11
-4.46232e-11
-4.45287e-11
-3.79348e-11
-2.7602e-11
-1.71506e-11
-9.04414e-12
-3.98036e-12
-1.42133e-12
-3.9385e-13
-7.58052e-14
-3.17841e-15
3.58087e-15
3.49087e-16
1.27978e-19
4.26201e-23
8.19368e-26
1.42551e-28
2.83778e-31
2.60814e-34
3.16394e-35
6.87992e-36
8.34895e-40
3.22798e-44
1.93929e-44
1.93639e-44
2.98606e-45
7.33563e-50
5.10197e-54
5.82325e-56
5.81912e-56
5.67727e-58
4.67239e-65
4.89411e-64
3.04201e-65
6.55578e-11
6.92219e-11
9.21836e-11
8.11793e-11
1.31293e-10
1.21108e-10
1.94362e-11
8.23463e-14
-5.6378e-12
-1.89406e-11
-3.77835e-11
-5.80653e-11
-7.38688e-11
-7.98815e-11
-7.39027e-11
-5.8484e-11
-3.95939e-11
-2.29026e-11
-1.12174e-11
-4.55897e-12
-1.49089e-12
-3.73883e-13
-6.23542e-14
-2.34603e-15
9.85791e-16
5.39108e-17
1.10839e-20
4.64531e-24
7.95832e-27
2.223e-29
6.51067e-31
6.01095e-35
9.43772e-35
4.17956e-35
9.85678e-39
1.57739e-43
3.86627e-47
3.48359e-48
2.28933e-49
5.21138e-49
4.2749e-50
1.97168e-55
4.13649e-57
1.61597e-63
2.74523e-66
1.24785e-64
2.67277e-66
7.02711e-11
7.02712e-11
7.02571e-11
8.25564e-11
2.58942e-10
1.19597e-10
5.10048e-12
-8.5976e-13
-1.97899e-11
-5.02375e-11
-8.79315e-11
-1.22211e-10
-1.41927e-10
-1.40422e-10
-1.18866e-10
-8.61332e-11
-5.34864e-11
-2.83722e-11
-1.26755e-11
-4.64878e-12
-1.35187e-12
-2.94495e-13
-4.09085e-14
-2.3342e-15
6.32663e-17
7.29283e-18
2.20757e-21
4.84379e-25
6.49496e-28
7.90359e-31
8.31193e-34
2.06287e-35
4.72182e-35
2.53306e-35
6.01893e-39
7.05665e-44
1.86555e-47
1.93795e-47
2.96852e-49
5.28639e-50
1.51753e-51
2.65922e-57
6.25319e-58
4.5684e-64
1.02232e-66
1.23377e-65
3.22498e-71
7.05809e-11
7.02712e-11
1.75212e-10
8.08035e-10
4.993e-10
3.86937e-11
2.02596e-14
-1.84695e-11
-6.67965e-11
-1.36854e-10
-2.09438e-10
-2.59858e-10
-2.70953e-10
-2.40603e-10
-1.82634e-10
-1.18883e-10
-6.64551e-11
-3.16127e-11
-1.25017e-11
-3.97963e-12
-9.8046e-13
-1.74985e-13
-2.02638e-14
-1.33477e-15
-4.32672e-17
-5.2108e-19
8.15748e-22
3.51498e-23
2.75778e-27
2.70506e-31
2.59096e-33
2.78942e-51
3.08835e-36
1.01195e-36
1.21308e-40
1.60056e-45
6.99018e-48
3.25271e-47
1.85607e-48
1.07722e-53
8.14904e-59
8.59671e-63
1.43277e-59
1.18281e-61
1.28714e-67
1.2899e-67
3.00641e-71
9.75691e-11
7.59265e-11
2.71994e-09
2.02268e-09
1.93561e-10
1.30109e-12
-6.51761e-12
-9.27029e-11
-2.32492e-10
-3.9296e-10
-5.1605e-10
-5.56728e-10
-5.05935e-10
-3.91068e-10
-2.58806e-10
-1.47525e-10
-7.20635e-11
-2.94512e-11
-9.71928e-12
-2.49704e-12
-4.78849e-13
-6.49919e-14
-5.93696e-15
-3.54328e-16
-1.3732e-17
-3.4911e-19
-5.92833e-21
-6.85626e-23
-5.50126e-25
-3.10787e-27
-1.25005e-29
-3.60446e-32
-7.4564e-35
-8.78025e-38
1.1767e-41
5.61125e-44
2.49372e-49
4.01908e-49
1.71812e-50
5.98996e-56
3.84204e-61
6.50722e-63
5.70504e-67
2.36391e-64
1.52131e-67
1.06146e-73
9.80697e-74
2.80638e-10
3.20852e-10
5.60514e-09
1.63757e-09
5.60398e-11
2.36238e-29
-1.43337e-10
-4.73219e-10
-8.72158e-10
-1.18802e-09
-1.28978e-09
-1.1557e-09
-8.7126e-10
-5.60068e-10
-3.10731e-10
-1.48121e-10
-5.87099e-11
-1.84967e-11
-4.45905e-12
-7.97689e-13
-1.02909e-13
-9.3557e-15
-5.92219e-16
-2.60792e-17
-8.0405e-19
-1.75241e-20
-2.72778e-22
-3.05856e-24
-2.48775e-26
-1.47362e-28
-6.3652e-31
-2.00082e-33
-4.54664e-36
-7.36553e-39
-8.24965e-42
-6.13177e-45
-2.9059e-48
-6.80915e-52
4.25117e-54
8.77793e-58
4.09889e-64
2.74436e-66
8.42797e-74
5.64103e-72
1.15101e-69
1.90257e-73
1.80683e-81
1.52997e-09
1.0667e-08
4.58941e-09
1.61863e-10
1.29642e-12
-1.43849e-10
-1.33348e-09
-2.81673e-09
-3.75867e-09
-3.80538e-09
-3.07597e-09
-2.03277e-09
-1.14569e-09
-5.65731e-10
-2.34772e-10
-7.61048e-11
-1.83427e-11
-3.21651e-12
-4.06846e-13
-3.69853e-14
-2.41548e-15
-1.1362e-16
-3.8678e-18
-9.58624e-20
-1.74059e-21
-2.32814e-23
-2.30422e-25
-1.69113e-27
-9.20943e-30
-3.71243e-32
-1.10229e-34
-2.39146e-37
-3.75222e-40
-4.19806e-43
-3.30763e-46
-1.79132e-49
-6.43292e-53
-1.49966e-56
-2.14588e-60
-1.71903e-64
-8.35545e-69
-1.23372e-74
3.15149e-75
1.22502e-78
4.65895e-77
1.24416e-76
5.72346e-82
3.37534e-09
5.19031e-09
4.40805e-10
8.49517e-12
1.14138e-13
-3.42465e-09
-1.53467e-08
-2.21846e-08
-1.60835e-08
-7.61191e-09
-2.71683e-09
-7.37738e-10
-1.46835e-10
-2.11894e-11
-2.29291e-12
-2.02839e-13
-1.64479e-14
-1.26573e-15
-8.4676e-17
-4.39021e-18
-1.64961e-19
-4.40505e-21
-8.44619e-23
-1.20014e-24
-1.27112e-26
-1.0052e-28
-5.92834e-31
-2.59986e-33
-8.41001e-36
-2.02664e-38
-3.67345e-41
-4.98974e-44
-5.05744e-47
-3.82835e-50
-2.15114e-53
-8.92533e-57
-2.64306e-60
-5.21979e-64
-6.31483e-68
-8.6093e-71
-1.27114e-74
2.57717e-76
5.89318e-78
1.77276e-79
2.11977e-82
4.62757e-85
3.9302e-85
5.90041e-32
1.85695e-36
3.01205e-40
1.34053e-43
4.17972e-47
8.5201e-51
9.92194e-55
5.39406e-59
3.39157e-62
1.1943e-28
7.97758e-28
2.57424e-29
1.33167e-33
2.0823e-37
1.26277e-40
5.61621e-44
1.74865e-47
3.5593e-51
4.14876e-55
2.24768e-59
8.29338e-63
9.70648e-15
4.83516e-15
4.73554e-15
4.73811e-15
4.73881e-15
4.77682e-15
4.96155e-15
5.02516e-15
5.19403e-15
9.30174e-15
2.16511e-14
2.19265e-14
2.19281e-14
2.1935e-14
2.19599e-14
2.06511e-14
8.27411e-15
6.72368e-15
1.02233e-14
1.17862e-14
8.73206e-15
7.2021e-15
7.30286e-15
8.4549e-16
7.25043e-19
4.15997e-22
1.54288e-24
1.38988e-26
3.26994e-27
2.04308e-29
1.89311e-29
6.74111e-29
1.6208e-26
1.30835e-25
5.58701e-27
4.28631e-31
7.07691e-35
5.49752e-38
3.34462e-41
1.47693e-44
4.57003e-48
9.30055e-52
1.07008e-55
5.72399e-60
1.60658e-63
4.72825e-15
4.71676e-15
4.73703e-15
4.74261e-15
4.73723e-15
4.73867e-15
4.74061e-15
4.89298e-15
5.11808e-15
5.1701e-15
9.78048e-15
2.13968e-14
2.19771e-14
2.19834e-14
2.19838e-14
2.18257e-14
1.8469e-14
6.93969e-15
1.04502e-14
1.18285e-14
8.60986e-15
7.00779e-15
5.12249e-15
2.30038e-16
9.87003e-20
9.33743e-23
9.82375e-25
4.44634e-25
7.55365e-27
2.43063e-27
9.56019e-27
1.48466e-24
1.38441e-23
7.71385e-25
8.69526e-29
1.50519e-32
1.44758e-35
1.14699e-38
6.8872e-42
3.0182e-45
9.32217e-49
1.86093e-52
2.11633e-56
1.11389e-60
2.36369e-64
5.366e-15
4.70642e-15
4.72731e-15
4.91801e-15
4.79939e-15
4.7387e-15
4.7387e-15
5.07988e-15
5.22615e-15
5.07583e-15
4.91687e-15
7.90243e-15
2.0264e-14
2.18356e-14
2.19961e-14
2.1834e-14
1.93312e-14
7.57995e-15
8.42272e-15
1.21124e-14
1.18689e-14
7.8558e-15
3.17915e-15
3.15712e-17
9.31435e-20
3.2229e-23
1.25897e-23
2.38009e-24
3.77204e-25
3.06053e-25
8.78574e-23
9.46401e-22
6.87556e-23
1.14222e-26
1.99505e-30
2.35983e-33
2.35675e-36
1.84662e-39
1.09988e-42
4.79119e-46
1.45464e-49
2.86295e-53
3.19819e-57
1.65146e-61
2.55345e-65
8.77807e-15
4.71152e-15
4.71064e-15
4.9907e-15
6.76717e-15
4.90942e-15
4.76347e-15
5.06188e-15
5.21939e-15
4.94738e-15
4.81852e-15
4.84895e-15
6.08322e-15
1.15904e-14
1.91526e-14
2.17135e-14
1.78719e-14
7.59459e-15
7.81353e-15
1.21049e-14
1.25738e-14
1.16177e-14
8.8835e-15
3.70304e-15
1.19592e-17
1.38046e-21
3.2229e-23
1.84546e-23
2.73238e-22
4.92986e-21
4.04154e-20
3.89738e-21
9.71348e-25
1.66805e-28
2.32309e-31
3.07615e-34
2.89312e-37
2.34524e-40
1.32842e-43
5.72005e-47
1.70304e-50
3.28178e-54
3.59207e-58
1.81408e-62
1.89594e-66
6.62367e-15
4.69948e-15
5.15711e-15
4.95356e-15
7.98192e-15
8.46861e-15
5.01253e-15
4.89167e-15
4.97202e-15
4.83314e-15
4.83294e-15
4.83946e-15
4.91579e-15
5.20462e-15
8.82247e-15
2.06663e-14
2.0511e-14
7.99129e-15
7.80276e-15
1.11665e-14
1.25738e-14
1.24471e-14
1.24256e-14
9.32745e-15
5.0821e-17
7.53694e-21
7.31491e-22
1.3951e-19
7.8249e-19
8.93702e-19
1.29045e-19
5.36301e-23
8.19224e-27
1.29822e-29
2.10212e-32
2.49428e-35
2.45425e-38
1.8826e-41
1.08825e-44
4.58558e-48
1.34255e-51
2.53875e-55
2.71485e-59
1.33707e-63
1.41727e-67
4.69699e-15
4.69783e-15
5.48505e-15
1.08662e-14
6.53125e-15
9.63454e-15
4.99707e-15
4.86869e-15
4.84089e-15
4.83474e-15
4.83989e-15
4.84051e-15
5.22999e-15
2.02317e-14
1.84246e-14
1.68933e-14
2.37964e-14
2.50978e-14
8.42303e-15
1.02173e-14
1.2567e-14
1.25846e-14
1.25846e-14
9.35002e-15
5.1036e-17
2.23812e-19
2.28708e-20
2.6852e-17
1.9758e-17
1.20755e-18
2.95115e-22
9.83929e-26
2.071e-28
3.88898e-31
5.79471e-34
7.63564e-37
6.90055e-40
5.34223e-43
2.96348e-46
1.22656e-49
3.50499e-53
6.45208e-57
6.71483e-61
3.22392e-65
1.17501e-67
4.75591e-15
4.67579e-15
4.83893e-15
1.29952e-14
4.53005e-14
3.6978e-14
1.44725e-14
8.72136e-15
5.29146e-15
4.84589e-15
4.84283e-15
4.84156e-15
7.00459e-15
3.18303e-14
3.35178e-14
2.3207e-14
2.13204e-14
3.19451e-14
2.30488e-14
1.03629e-14
1.22414e-14
1.25841e-14
1.25813e-14
7.78486e-15
5.20677e-17
3.27025e-17
8.83538e-17
4.64326e-17
2.16065e-17
3.66799e-20
3.66898e-24
5.97684e-27
1.55637e-29
2.44326e-32
3.70098e-35
4.42208e-38
4.192e-41
3.09868e-44
1.72542e-47
6.95026e-51
1.93878e-54
3.47394e-58
3.50592e-62
3.91114e-66
1.12622e-67
4.75776e-15
4.6748e-15
4.67672e-15
5.70457e-15
5.69126e-14
2.06796e-13
2.04243e-13
1.33253e-13
3.87973e-14
7.24096e-15
6.13615e-15
5.2134e-15
6.92941e-15
3.02047e-14
3.48547e-14
3.42386e-14
2.85631e-14
3.23215e-14
3.05565e-14
1.16205e-14
1.1538e-14
1.25195e-14
1.15392e-14
7.46652e-15
3.30384e-15
4.93925e-15
3.64202e-15
1.33052e-17
1.33493e-21
3.28902e-24
1.00443e-26
2.53821e-29
5.43559e-32
9.55241e-35
1.37546e-37
1.60344e-40
1.46275e-43
1.03839e-46
5.55519e-50
2.14604e-53
1.93618e-56
1.01074e-60
1.01222e-64
4.04688e-66
3.68904e-68
4.67478e-15
4.67478e-15
4.67869e-15
5.50019e-15
3.17247e-14
2.1299e-13
2.5428e-13
2.33886e-13
1.63966e-13
1.00637e-13
8.03592e-14
3.44007e-14
5.73014e-15
7.19967e-15
3.41673e-14
3.53585e-14
3.37996e-14
3.35754e-14
3.18403e-14
1.32201e-14
1.09695e-14
1.11265e-14
8.86752e-15
7.35398e-15
7.80321e-15
7.87947e-15
4.46227e-15
1.25044e-17
1.78877e-21
4.30238e-24
1.29196e-26
3.20965e-29
6.73803e-32
1.15934e-34
1.63124e-37
1.8544e-40
1.64759e-43
1.1366e-46
5.89661e-50
2.20332e-53
5.69168e-57
9.4319e-61
9.04372e-64
6.32123e-69
1.03395e-68
4.67481e-15
4.67478e-15
6.46282e-15
7.1667e-14
7.80905e-14
1.59847e-13
2.5395e-13
2.56966e-13
2.29284e-13
2.21079e-13
2.13006e-13
1.09662e-13
6.3588e-15
5.11481e-15
1.34216e-14
3.52088e-14
3.52276e-14
3.0116e-14
2.89955e-14
1.41375e-14
1.06629e-14
1.0927e-14
8.66973e-15
7.67162e-15
7.96168e-15
7.96959e-15
1.77695e-15
2.05976e-18
4.88189e-22
1.4926e-24
4.48692e-27
1.10892e-29
2.31371e-32
3.94303e-35
5.48223e-38
6.14557e-41
5.36603e-44
3.63048e-47
1.84256e-50
6.74445e-54
2.7441e-57
2.76604e-61
4.13467e-65
1.52934e-69
1.99484e-69
4.67514e-15
4.67481e-15
3.4266e-14
3.10733e-13
3.41172e-13
2.70197e-13
2.26302e-13
2.55757e-13
2.60445e-13
2.58263e-13
2.30512e-13
4.89727e-14
5.28199e-15
5.101e-15
5.23176e-15
2.83652e-14
3.5535e-14
3.07405e-14
1.58134e-14
8.69259e-15
1.06198e-14
1.11816e-14
1.05631e-14
7.82534e-15
7.98954e-15
7.29487e-15
5.70669e-16
2.73549e-19
1.3772e-22
4.75502e-25
1.40643e-27
3.41494e-30
6.98248e-33
1.16374e-35
1.5789e-38
1.72304e-41
1.46174e-44
9.58394e-48
4.70155e-51
1.6534e-54
4.00178e-58
6.16867e-62
1.27307e-64
5.63216e-70
3.69717e-70
4.71906e-15
4.67514e-15
3.82431e-14
3.12464e-13
3.53711e-13
3.53837e-13
2.80543e-13
2.37012e-13
2.60595e-13
2.61244e-13
2.30264e-13
1.71097e-14
5.10435e-15
5.09609e-15
5.09609e-15
7.93495e-15
3.47001e-14
3.35232e-14
1.17783e-14
8.29459e-15
1.05e-14
1.15487e-14
1.08287e-14
7.90205e-15
7.9953e-15
7.01591e-15
2.81129e-16
8.61795e-20
7.12748e-23
2.40681e-25
6.94453e-28
1.64489e-30
3.27194e-33
5.29724e-36
6.96761e-39
7.35592e-42
6.02588e-45
3.80575e-48
1.79378e-51
6.04886e-55
1.39292e-58
3.48469e-62
1.68567e-66
2.98884e-70
2.45901e-70
4.84047e-15
4.74837e-15
4.74809e-15
3.69163e-14
2.9563e-13
3.52391e-13
3.4672e-13
2.445e-13
2.34788e-13
2.57749e-13
2.29989e-13
1.96022e-14
5.18008e-15
5.12891e-15
5.10471e-15
5.12193e-15
1.54721e-14
1.68774e-14
8.63456e-15
1.52434e-14
1.57085e-14
1.22074e-14
9.65813e-15
7.81418e-15
7.98451e-15
6.91282e-15
2.21306e-16
5.88906e-20
5.55188e-23
1.84027e-25
5.19796e-28
1.20255e-30
2.33045e-33
3.66751e-36
4.67795e-39
4.77734e-42
3.77654e-45
2.2953e-48
1.03803e-51
3.35034e-55
7.34939e-59
1.02257e-62
7.86005e-67
2.40969e-70
2.22995e-70
4.84319e-15
4.86546e-15
4.83868e-15
4.83625e-15
2.10381e-14
2.52628e-13
3.41806e-13
3.06657e-13
6.89001e-14
1.44139e-13
2.24861e-13
7.97412e-14
5.98614e-15
5.86736e-15
5.24476e-15
5.11255e-15
5.27587e-15
6.02966e-15
6.65525e-15
2.14022e-14
1.73012e-14
1.06595e-14
9.60262e-15
7.81605e-15
7.9288e-15
6.76337e-15
1.80204e-16
4.3373e-20
4.44372e-23
1.43433e-25
3.93963e-28
8.8738e-31
1.67087e-33
2.54834e-36
3.14236e-39
3.09465e-42
2.35303e-45
1.37162e-48
5.93051e-52
1.82506e-55
3.79831e-59
4.98888e-63
3.60319e-67
2.06504e-70
1.98367e-70
4.88286e-15
4.85816e-15
4.84538e-15
4.84366e-15
4.84547e-15
8.74188e-15
2.03946e-13
1.9557e-13
4.02681e-14
4.00345e-14
1.09132e-13
8.68971e-14
7.19045e-15
5.96692e-15
5.23505e-15
5.11117e-15
5.11117e-15
5.37656e-15
3.18682e-14
2.83516e-14
1.13994e-14
1.1276e-14
1.10055e-14
8.06947e-15
7.823e-15
6.64785e-15
1.76707e-16
4.18573e-20
4.18278e-23
1.3248e-25
3.55861e-28
7.75069e-31
1.40627e-33
2.06512e-36
2.44812e-39
2.31335e-42
1.684e-45
9.38783e-49
3.86759e-52
1.13028e-55
2.98665e-59
2.76161e-63
1.85496e-67
1.90951e-70
1.8541e-70
7.67843e-15
4.88562e-15
4.85816e-15
4.84584e-15
4.85239e-15
4.86124e-15
9.32525e-15
1.51374e-14
2.34253e-14
1.30336e-13
1.22473e-13
4.45103e-14
5.55947e-15
5.1466e-15
5.11308e-15
5.11224e-15
5.11117e-15
2.45629e-14
4.02784e-14
2.31598e-14
1.04332e-14
1.13631e-14
1.11845e-14
8.11104e-15
7.79119e-15
6.66491e-15
2.01132e-16
5.08773e-20
4.58241e-23
1.39504e-25
3.59626e-28
7.57239e-31
1.32834e-33
1.87991e-36
2.14114e-39
1.9378e-42
1.34672e-45
7.12996e-49
2.78037e-52
7.66619e-56
1.67471e-59
1.6282e-63
1.01603e-67
2.78204e-70
1.83462e-70
5.92889e-15
5.29545e-15
4.99433e-15
4.86148e-15
4.86124e-15
4.87981e-15
5.12346e-15
1.4375e-14
4.57755e-13
1.24638e-12
8.33122e-13
2.82558e-14
5.57718e-15
5.12723e-15
5.11356e-15
5.12069e-15
5.81268e-15
3.25943e-14
4.0188e-14
1.7149e-14