/*--------------------------------*- C++ -*----------------------------------*\
| =========                 |                                                 |
| \\      /  F ield         | OpenFOAM: The Open Source CFD Toolbox           |
|  \\    /   O peration     | Version:  v2012                                 |
|   \\  /    A nd           | Website:  www.openfoam.com                      |
|    \\/     M anipulation  |                                                 |
\*---------------------------------------------------------------------------*/
FoamFile
{
    version     2.0;
    format      ascii;
    class       surfaceScalarField;
    location    "0.35";
    object      phi;
}
// * * * * * * * * * * * * * * * * * * * * * * * * * * * * * * * * * * * * * //

dimensions      [0 3 -1 0 0 0 0];
oriented        oriented;


internalField   nonuniform List<scalar> 
8145
(
3.87059e-10
-1.79121e-09
-2.4333e-15
3.184e-10
-1.66961e-09
-3.14198e-15
2.52451e-10
-1.53202e-09
-3.21084e-15
1.90311e-10
-1.37523e-09
-3.60351e-15
1.33316e-10
-1.19644e-09
-3.80075e-15
8.31262e-11
-9.9436e-10
-3.79143e-15
4.18965e-11
-7.69251e-10
-4.02256e-15
1.26263e-11
-5.20999e-10
-3.76077e-15
-2.31773e-10
-3.4428e-15
6.02071e-10
-2.01116e-09
-3.67185e-16
5.29467e-10
-1.9233e-09
-6.64968e-16
4.5727e-10
-1.82723e-09
-1.98036e-15
3.86276e-10
-1.72025e-09
-2.3021e-15
3.17291e-10
-1.60066e-09
-3.11801e-15
2.51232e-10
-1.46601e-09
-3.08516e-15
1.89164e-10
-1.31321e-09
-3.50635e-15
1.32379e-10
-1.13971e-09
-3.60918e-15
8.24841e-11
-9.44526e-10
-3.63684e-15
4.15676e-11
-7.28399e-10
-3.74177e-15
1.25425e-11
-4.92036e-10
-3.46807e-15
-2.19284e-10
-3.04321e-15
3.0478e-10
-8.39012e-10
5.54441e-15
3.63135e-10
-9.626e-10
1.06098e-15
4.26331e-10
-1.09156e-09
5.39478e-15
4.9374e-10
-1.22447e-09
9.37691e-15
5.64576e-10
-1.35976e-09
7.99559e-15
6.37963e-10
-1.49573e-09
8.73998e-15
7.12849e-10
-1.63072e-09
6.91402e-15
7.88084e-10
-1.76268e-09
4.27727e-15
8.62479e-10
-1.89004e-09
3.78029e-15
9.3479e-10
-2.0109e-09
4.36695e-15
1.00377e-09
-2.12375e-09
4.33485e-15
1.06821e-09
-2.22717e-09
4.27631e-15
1.12699e-09
-2.31971e-09
3.27691e-15
1.17908e-09
-2.40081e-09
3.54762e-15
1.22359e-09
-2.46933e-09
1.64033e-15
1.2598e-09
-2.52513e-09
1.33107e-15
1.28718e-09
-2.56806e-09
-6.8134e-16
1.30538e-09
-2.59819e-09
-1.96349e-16
1.31422e-09
-2.61595e-09
-1.48664e-15
1.31373e-09
-2.62195e-09
-1.32496e-15
1.30407e-09
-2.61705e-09
-2.07768e-15
1.28558e-09
-2.60207e-09
-1.1731e-15
1.25873e-09
-2.57809e-09
-1.75067e-15
1.22406e-09
-2.54607e-09
-7.89475e-16
1.18223e-09
-2.50649e-09
-1.88724e-15
1.13389e-09
-2.46165e-09
-1.4017e-15
1.07983e-09
-2.41076e-09
-2.28227e-15
1.02074e-09
-2.35584e-09
-1.97508e-15
9.57419e-10
-2.29636e-09
-2.40392e-15
8.90611e-10
-2.23261e-09
-1.96561e-15
8.21005e-10
-2.16605e-09
-2.20499e-15
7.49365e-10
-2.0945e-09
-1.39393e-15
6.76368e-10
-2.01885e-09
-8.3351e-16
6.02719e-10
-1.93751e-09
-2.22036e-17
5.29102e-10
-1.84969e-09
-7.82975e-16
4.56187e-10
-1.75435e-09
-1.88154e-15
3.84746e-10
-1.64884e-09
-2.48288e-15
3.15558e-10
-1.53152e-09
-3.04135e-15
2.4951e-10
-1.40001e-09
-3.12541e-15
1.87628e-10
-1.25138e-09
-3.37059e-15
1.31163e-10
-1.0833e-09
-3.52742e-15
8.16636e-11
-8.95085e-10
-3.47272e-15
4.11468e-11
-6.87943e-10
-3.53089e-15
1.24308e-11
-4.63377e-10
-3.16679e-15
-2.069e-10
-2.70352e-15
3.36438e-10
-8.96785e-10
6.6512e-16
3.9964e-10
-1.02579e-09
2.14946e-15
4.67768e-10
-1.15963e-09
5.35621e-15
5.40018e-10
-1.29672e-09
1.96452e-15
6.15509e-10
-1.43527e-09
-4.32197e-16
6.93252e-10
-1.57345e-09
3.60772e-15
7.72071e-10
-1.7095e-09
5.72934e-15
8.50692e-10
-1.84126e-09
4.96663e-15
9.27827e-10
-1.96713e-09
5.75205e-15
1.00215e-09
-2.08516e-09
5.93337e-15
1.07235e-09
-2.1939e-09
6.00479e-15
1.13719e-09
-2.29196e-09
4.80422e-15
1.19552e-09
-2.378e-09
4.12711e-15
1.24636e-09
-2.45161e-09
3.02203e-15
1.28885e-09
-2.5118e-09
2.08367e-15
1.32234e-09
-2.55861e-09
5.18334e-16
1.34638e-09
-2.5921e-09
-1.53849e-16
1.36073e-09
-2.61254e-09
-1.15668e-15
1.36533e-09
-2.62056e-09
-1.11369e-15
1.3603e-09
-2.61693e-09
-2.46986e-15
1.34595e-09
-2.60271e-09
-1.81543e-15
1.3227e-09
-2.57884e-09
-2.39875e-15
1.29114e-09
-2.54653e-09
-1.40809e-15
1.25189e-09
-2.50684e-09
-1.78469e-15
1.20569e-09
-2.46029e-09
-1.2523e-15
1.15326e-09
-2.40924e-09
-1.87786e-15
1.09541e-09
-2.35293e-09
-1.46726e-15
1.03291e-09
-2.29336e-09
-2.09402e-15
9.66532e-10
-2.23e-09
-1.60821e-15
8.97056e-10
-2.16315e-09
-2.05359e-15
8.25163e-10
-2.09418e-09
-1.6469e-15
7.51613e-10
-2.02096e-09
-1.58304e-15
6.77067e-10
-1.94431e-09
-5.21521e-16
6.02213e-10
-1.86266e-09
-2.80652e-16
5.2771e-10
-1.7752e-09
-7.96915e-16
4.54209e-10
-1.68088e-09
-2.21907e-15
3.8245e-10
-1.57712e-09
-2.61541e-15
3.13188e-10
-1.4623e-09
-3.24339e-15
2.47273e-10
-1.33414e-09
-3.12256e-15
1.85697e-10
-1.18986e-09
-3.41089e-15
1.29663e-10
-1.02732e-09
-3.45628e-15
8.06621e-11
-8.46141e-10
-3.43573e-15
4.06325e-11
-6.47973e-10
-3.37264e-15
1.22909e-11
-4.35089e-10
-2.97554e-15
-1.94653e-10
-2.43115e-15
3.71797e-10
-9.59672e-10
3.22248e-15
4.40221e-10
-1.09425e-09
-2.94567e-15
5.13595e-10
-1.23295e-09
4.47343e-15
5.91001e-10
-1.37404e-09
8.71321e-15
6.71374e-10
-1.51559e-09
4.28386e-15
7.53592e-10
-1.65561e-09
4.46857e-15
8.3636e-10
-1.79221e-09
4.47828e-15
9.18285e-10
-1.92315e-09
2.56827e-15
9.97977e-10
-2.04679e-09
2.54232e-15
1.07403e-09
-2.16118e-09
3.187e-15
1.14509e-09
-2.26492e-09
2.83318e-15
1.20988e-09
-2.35673e-09
3.03978e-15
1.26727e-09
-2.43537e-09
1.82523e-15
1.31632e-09
-2.50063e-09
2.35382e-15
1.35622e-09
-2.55169e-09
4.42157e-16
1.38641e-09
-2.58881e-09
6.13414e-16
1.40655e-09
-2.61225e-09
-1.45796e-15
1.41652e-09
-2.62251e-09
-7.43603e-16
1.41638e-09
-2.62043e-09
-2.41727e-15
1.40638e-09
-2.60695e-09
-2.06312e-15
1.38695e-09
-2.5833e-09
-3.16645e-15
1.35863e-09
-2.55055e-09
-2.04744e-15
1.3221e-09
-2.51002e-09
-2.59729e-15
1.27808e-09
-2.46284e-09
-1.3288e-15
1.22739e-09
-2.40961e-09
-2.06034e-15
1.1708e-09
-2.35266e-09
-1.18044e-15
1.10915e-09
-2.2913e-09
-1.90542e-15
1.04324e-09
-2.22746e-09
-1.28043e-15
9.73869e-10
-2.16064e-09
-1.83632e-15
9.01807e-10
-2.0911e-09
-1.41924e-15
8.27734e-10
-2.02013e-09
-1.90345e-15
7.52393e-10
-1.94564e-09
-1.27883e-15
6.7643e-10
-1.86835e-09
-9.16428e-16
6.00506e-10
-1.78675e-09
-3.11294e-16
5.25259e-10
-1.69996e-09
-1.35332e-15
4.51309e-10
-1.60696e-09
-2.446e-15
3.79371e-10
-1.50522e-09
-3.02549e-15
3.10168e-10
-1.39315e-09
-3.32774e-15
2.44515e-10
-1.26854e-09
-3.30438e-15
1.83367e-10
-1.12876e-09
-3.41464e-15
1.27878e-10
-9.7189e-10
-3.52644e-15
7.94775e-11
-7.978e-10
-3.41487e-15
4.00238e-11
-6.08578e-10
-3.33095e-15
1.21221e-11
-4.0724e-10
-2.84168e-15
-1.82573e-10
-2.27579e-15
4.11352e-10
-1.02811e-09
4.07296e-15
4.85438e-10
-1.16834e-09
5.77336e-16
5.6441e-10
-1.31188e-09
2.60931e-15
6.472e-10
-1.45683e-09
-7.07571e-17
7.32633e-10
-1.60104e-09
-1.1952e-15
8.19411e-10
-1.74238e-09
1.07684e-15
9.06102e-10
-1.87889e-09
2.15251e-15
9.9119e-10
-2.00823e-09
8.71005e-18
1.07319e-09
-2.12878e-09
9.20622e-16
1.15062e-09
-2.2386e-09
1.13107e-15
1.22209e-09
-2.33637e-09
2.10198e-15
1.28632e-09
-2.42094e-09
1.54291e-15
1.3422e-09
-2.49123e-09
1.78959e-15
1.38883e-09
-2.54724e-09
9.7199e-16
1.4255e-09
-2.58836e-09
6.78539e-16
1.45177e-09
-2.61508e-09
-7.76171e-16
1.46741e-09
-2.62791e-09
-1.03617e-15
1.47244e-09
-2.62755e-09
-2.13687e-15
1.46704e-09
-2.61505e-09
-1.92013e-15
1.45163e-09
-2.59156e-09
-3.44287e-15
1.42674e-09
-2.55844e-09
-2.64864e-15
1.39305e-09
-2.51689e-09
-3.35718e-15
1.35133e-09
-2.46831e-09
-2.02746e-15
1.30238e-09
-2.41391e-09
-2.40526e-15
1.2471e-09
-2.35433e-09
-1.36241e-15
1.18629e-09
-2.29187e-09
-1.8651e-15
1.12085e-09
-2.22587e-09
-1.10342e-15
1.05159e-09
-2.15821e-09
-1.62676e-15
9.79297e-10
-2.08836e-09
-1.08835e-15
9.04759e-10
-2.01656e-09
-1.68781e-15
8.28629e-10
-1.94402e-09
-1.43698e-15
7.51638e-10
-1.86866e-09
-1.68974e-15
6.74403e-10
-1.79113e-09
-8.55361e-16
5.97561e-10
-1.70992e-09
-9.42959e-16
5.21718e-10
-1.62414e-09
-1.6553e-15
4.4747e-10
-1.53276e-09
-3.00638e-15
3.75496e-10
-1.43329e-09
-3.23543e-15
3.0649e-10
-1.32419e-09
-3.5982e-15
2.41231e-10
-1.20333e-09
-3.33877e-15
1.80634e-10
-1.06822e-09
-3.5101e-15
1.25804e-10
-9.17118e-10
-3.51194e-15
7.81089e-11
-7.50163e-10
-3.4491e-15
3.932e-11
-5.69848e-10
-3.26776e-15
1.19244e-11
-3.79896e-10
-2.77604e-15
-1.7069e-10
-2.15784e-15
4.55566e-10
-1.1026e-09
-1.92449e-16
5.35753e-10
-1.24851e-09
2.645e-15
6.20669e-10
-1.39677e-09
3.56271e-15
7.09142e-10
-1.54524e-09
7.30809e-15
7.99796e-10
-1.69165e-09
3.63614e-15
8.91168e-10
-1.83372e-09
1.87972e-15
9.81693e-10
-1.96939e-09
1.14528e-15
1.06974e-09
-2.09627e-09
-6.67708e-16
1.15371e-09
-2.21276e-09
-7.65306e-16
1.23208e-09
-2.31697e-09
6.19832e-17
1.30343e-09
-2.40771e-09
-1.82802e-16
1.36647e-09
-2.48398e-09
7.04795e-16
1.42017e-09
-2.54492e-09
-3.77813e-16
1.4637e-09
-2.59075e-09
6.98222e-16
1.49646e-09
-2.62111e-09
-1.23524e-15
1.51813e-09
-2.63675e-09
-5.15909e-16
1.52862e-09
-2.63842e-09
-2.72066e-15
1.52811e-09
-2.62705e-09
-1.58409e-15
1.51695e-09
-2.60391e-09
-3.48126e-15
1.49568e-09
-2.57031e-09
-2.74747e-15
1.46498e-09
-2.52776e-09
-4.05024e-15
1.42563e-09
-2.47757e-09
-2.62705e-15
1.3785e-09
-2.42121e-09
-3.22007e-15
1.32449e-09
-2.35992e-09
-1.65233e-15
1.26455e-09
-2.29439e-09
-2.25019e-15
1.19952e-09
-2.22686e-09
-1.02349e-15
1.13033e-09
-2.15668e-09
-1.65131e-15
1.05778e-09
-2.08567e-09
-7.61369e-16
9.82689e-10
-2.01328e-09
-1.42189e-15
9.05803e-10
-1.93969e-09
-1.01569e-15
8.27768e-10
-1.86601e-09
-1.77593e-15
7.49283e-10
-1.79019e-09
-1.3987e-15
6.7094e-10
-1.71281e-09
-1.41006e-15
5.93342e-10
-1.63234e-09
-1.12608e-15
5.17067e-10
-1.5479e-09
-2.36001e-15
4.42675e-10
-1.45841e-09
-3.25511e-15
3.70816e-10
-1.36148e-09
-3.66861e-15
3.02148e-10
-1.25558e-09
-3.68182e-15
2.37417e-10
-1.13865e-09
-3.53037e-15
1.77496e-10
-1.00835e-09
-3.51422e-15
1.23442e-10
-8.63121e-10
-3.59595e-15
7.6556e-11
-7.03336e-10
-3.44436e-15
3.85209e-11
-5.31871e-10
-3.27205e-15
1.16974e-11
-3.53124e-10
-2.71666e-15
-1.59033e-10
-2.10499e-15
5.05168e-10
-1.18362e-09
-1.9349e-17
5.91869e-10
-1.33519e-09
4.16278e-15
6.83076e-10
-1.48797e-09
9.81378e-16
7.77426e-10
-1.63961e-09
-1.41202e-15
8.734e-10
-1.78764e-09
-2.28654e-15
9.69342e-10
-1.92968e-09
-2.59626e-15
1.06354e-09
-2.0636e-09
-1.85571e-15
1.15424e-09
-2.18699e-09
-3.99372e-15
1.23976e-09
-2.29831e-09
-2.85349e-15
1.31853e-09
-2.39575e-09
-3.04446e-15
1.38911e-09
-2.4783e-09
-1.50212e-15
1.45027e-09
-2.54516e-09
-1.87454e-15
1.50104e-09
-2.59569e-09
-7.92647e-16
1.54069e-09
-2.6304e-09
-1.4873e-15
1.56877e-09
-2.6492e-09
-1.07348e-15
1.58511e-09
-2.6531e-09
-2.4273e-15
1.58978e-09
-2.64312e-09
-2.1652e-15
1.58314e-09
-2.62043e-09
-3.31788e-15
1.56569e-09
-2.58648e-09
-2.71711e-15
1.53813e-09
-2.54277e-09
-4.25503e-15
1.50126e-09
-2.49092e-09
-3.13248e-15
1.45599e-09
-2.43233e-09
-3.92063e-15
1.40329e-09
-2.36853e-09
-2.27185e-15
1.34413e-09
-2.30078e-09
-2.71381e-15
1.27949e-09
-2.22975e-09
-1.30055e-15
1.21027e-09
-2.15765e-09
-1.75629e-15
1.13739e-09
-2.08382e-09
-7.08845e-16
1.06168e-09
-2.00996e-09
-1.20471e-15
9.83917e-10
-1.93552e-09
-6.09361e-16
9.04845e-10
-1.86062e-09
-1.34798e-15
8.25071e-10
-1.78626e-09
-1.24889e-15
7.45272e-10
-1.7104e-09
-1.83424e-15
6.65998e-10
-1.63355e-09
-1.32403e-15
5.87823e-10
-1.55419e-09
-1.80399e-15
5.11284e-10
-1.47139e-09
-2.61823e-15
4.36914e-10
-1.38409e-09
-3.7701e-15
3.65325e-10
-1.28995e-09
-3.81529e-15
2.97143e-10
-1.18745e-09
-3.93631e-15
2.33075e-10
-1.07463e-09
-3.5378e-15
1.73956e-10
-9.49287e-10
-3.59442e-15
1.20793e-10
-8.10016e-10
-3.56061e-15
7.48198e-11
-6.57423e-10
-3.47291e-15
3.76266e-11
-4.94736e-10
-3.22386e-15
1.14413e-11
-3.2699e-10
-2.70138e-15
-1.47632e-10
-2.05957e-15
5.60643e-10
-1.27175e-09
-1.58394e-15
6.54325e-10
-1.42887e-09
2.48549e-15
7.52177e-10
-1.58581e-09
1.13954e-15
8.52643e-10
-1.74005e-09
1.70678e-15
9.54003e-10
-1.88897e-09
1.58878e-15
1.05442e-09
-2.03008e-09
9.11536e-16
1.15204e-09
-2.16121e-09
-2.67539e-16
1.24499e-09
-2.27995e-09
-2.08879e-15
1.33152e-09
-2.38486e-09
-2.87513e-15
1.41002e-09
-2.47427e-09
-2.22385e-15
1.47909e-09
-2.54738e-09
-2.84414e-15
1.53755e-09
-2.60364e-09
-1.55994e-15
1.58454e-09
-2.64269e-09
-2.77556e-15
1.61947e-09
-2.66534e-09
-1.22065e-15
1.64205e-09
-2.67179e-09
-3.22409e-15
1.65227e-09
-2.66335e-09
-1.86098e-15
1.65044e-09
-2.64131e-09
-4.12903e-15
1.63704e-09
-2.60706e-09
-2.45877e-15
1.61278e-09
-2.56225e-09
-4.44047e-15
1.57851e-09
-2.50852e-09
-3.15223e-15
1.53516e-09
-2.4476e-09
-4.53702e-15
1.48375e-09
-2.38096e-09
-2.74827e-15
1.42535e-09
-2.31015e-09
-3.4261e-15
1.36097e-09
-2.23642e-09
-1.5995e-15
1.29165e-09
-2.16044e-09
-2.18768e-15
1.2183e-09
-2.08432e-09
-6.86077e-16
1.14186e-09
-2.00738e-09
-1.30774e-15
1.06312e-09
-1.93123e-09
-2.45232e-16
9.82864e-10
-1.85527e-09
-1.03071e-15
9.01787e-10
-1.77955e-09
-6.22766e-16
8.20473e-10
-1.70496e-09
-1.63261e-15
7.39553e-10
-1.6295e-09
-1.47451e-15
6.59545e-10
-1.55357e-09
-1.87432e-15
5.80978e-10
-1.47565e-09
-1.88907e-15
5.04359e-10
-1.39481e-09
-3.2266e-15
4.30181e-10
-1.30997e-09
-3.88296e-15
3.59022e-10
-1.21884e-09
-4.17982e-15
2.91474e-10
-1.11996e-09
-3.97674e-15
2.28208e-10
-1.01142e-09
-3.71312e-15
1.70017e-10
-8.91152e-10
-3.5727e-15
1.17859e-10
-7.57916e-10
-3.62367e-15
7.29019e-11
-6.12524e-10
-3.44777e-15
3.66383e-11
-4.5853e-10
-3.23242e-15
1.11559e-11
-3.01559e-10
-2.67129e-15
-1.36516e-10
-2.05909e-15
6.22985e-10
-1.36745e-09
2.71112e-15
7.24062e-10
-1.52989e-09
7.46004e-15
8.28829e-10
-1.69058e-09
-1.7694e-15
9.35531e-10
-1.84679e-09
-2.77481e-15
1.04223e-09
-1.99571e-09
-4.2452e-15
1.14692e-09
-2.1348e-09
-4.33394e-15
1.24759e-09
-2.26189e-09
-1.93746e-15
1.34225e-09
-2.37464e-09
-3.3864e-15
1.42912e-09
-2.47174e-09
-1.90301e-15
1.50657e-09
-2.55173e-09
-3.07872e-15
1.57325e-09
-2.61407e-09
-1.82524e-15
1.62808e-09
-2.65849e-09
-3.07647e-15
1.67034e-09
-2.68496e-09
-1.98906e-15
1.69961e-09
-2.69462e-09
-3.22751e-15
1.7158e-09
-2.68799e-09
-2.43986e-15
1.71912e-09
-2.6667e-09
-3.90952e-15
1.71004e-09
-2.63227e-09
-3.11601e-15
1.68928e-09
-2.58633e-09
-4.33876e-15
1.65771e-09
-2.53071e-09
-3.22184e-15
1.61634e-09
-2.46717e-09
-4.68942e-15
1.56623e-09
-2.39752e-09
-3.13635e-15
1.50851e-09
-2.32328e-09
-3.99289e-15
1.44432e-09
-2.24597e-09
-2.0565e-15
1.37471e-09
-2.16684e-09
-2.61515e-15
1.30078e-09
-2.0865e-09
-9.33344e-16
1.22341e-09
-2.00697e-09
-1.42661e-15
1.14356e-09
-1.92752e-09
-1.94028e-16
1.06197e-09
-1.84965e-09
-7.67118e-16
9.79416e-10
-1.77271e-09
-1.54334e-16
8.96551e-10
-1.69668e-09
-1.03116e-15
8.13909e-10
-1.62234e-09
-1.0555e-15
7.32086e-10
-1.54769e-09
-1.92437e-15
6.5155e-10
-1.47305e-09
-1.71231e-15
5.72795e-10
-1.39692e-09
-2.49225e-15
4.96283e-10
-1.31834e-09
-3.32264e-15
4.22476e-10
-1.23622e-09
-4.28434e-15
3.51911e-10
-1.14833e-09
-4.22287e-15
2.85147e-10
-1.05325e-09
-4.20361e-15
2.22821e-10
-9.49152e-10
-3.69785e-15
1.65685e-10
-8.34072e-10
-3.64248e-15
1.14646e-10
-7.06935e-10
-3.56565e-15
7.08056e-11
-5.68742e-10
-3.4628e-15
3.55569e-11
-4.23338e-10
-3.18456e-15
1.08417e-11
-2.76894e-10
-2.68215e-15
-1.25715e-10
-2.05566e-15
6.9267e-10
-1.47142e-09
-2.74608e-15
8.01616e-10
-1.6388e-09
5.21747e-15
9.1363e-10
-1.80258e-09
8.87582e-16
1.0267e-09
-1.95984e-09
2.23309e-16
1.13865e-09
-2.10767e-09
-3.886e-15
1.24731e-09
-2.24348e-09
-4.50399e-15
1.35053e-09
-2.36513e-09
-4.13142e-15
1.44624e-09
-2.47038e-09
-4.02933e-15
1.53262e-09
-2.55814e-09
-4.15707e-15
1.60808e-09
-2.62722e-09
-2.92013e-15
1.67135e-09
-2.67736e-09
-3.87259e-15
1.7215e-09
-2.70867e-09
-2.29431e-15
1.75799e-09
-2.72146e-09
-4.057e-15
1.7806e-09
-2.71725e-09
-2.2489e-15
1.78946e-09
-2.69688e-09
-4.61461e-15
1.78502e-09
-2.66229e-09
-2.73777e-15
1.76798e-09
-2.61526e-09
-5.14213e-15
1.73926e-09
-2.55763e-09
-2.94969e-15
1.69991e-09
-2.49138e-09
-4.96423e-15
1.65109e-09
-2.41837e-09
-3.06396e-15
1.59399e-09
-2.34046e-09
-4.49068e-15
1.52984e-09
-2.25915e-09
-2.33941e-15
1.45982e-09
-2.17597e-09
-3.15206e-15
1.38504e-09
-2.09208e-09
-1.11972e-15
1.3066e-09
-2.00805e-09
-1.79753e-15
1.22538e-09
-1.92576e-09
-1.13886e-16
1.1423e-09
-1.84444e-09
-8.32365e-16
1.0581e-09
-1.76545e-09
2.96955e-16
9.73476e-10
-1.68809e-09
-6.56905e-16
8.89058e-10
-1.61226e-09
-2.61803e-16
8.05331e-10
-1.53863e-09
-1.49164e-15
7.22835e-10
-1.46521e-09
-1.50652e-15
6.41998e-10
-1.39224e-09
-2.25921e-15
5.63263e-10
-1.31822e-09
-2.46573e-15
4.87058e-10
-1.24218e-09
-3.81808e-15
4.13802e-10
-1.16302e-09
-4.26249e-15
3.44e-10
-1.07859e-09
-4.51826e-15
2.78173e-10
-9.87487e-10
-4.20907e-15
2.16925e-10
-8.8796e-10
-3.87362e-15
1.60968e-10
-7.78172e-10
-3.61575e-15
1.1116e-10
-6.57186e-10
-3.62296e-15
6.85348e-11
-5.26175e-10
-3.42786e-15
3.43848e-11
-3.89246e-10
-3.19995e-15
1.0499e-11
-2.5306e-10
-2.6744e-15
-1.15258e-10
-2.09199e-15
7.71109e-10
-1.5841e-09
1.29937e-16
8.88255e-10
-1.75591e-09
4.141e-15
1.00765e-09
-1.922e-09
-4.11629e-15
1.12702e-09
-2.07927e-09
-5.53499e-15
1.24396e-09
-2.22469e-09
-7.9169e-15
1.35611e-09
-2.35569e-09
-8.29292e-15
1.4612e-09
-2.47025e-09
-4.15371e-15
1.5571e-09
-2.5663e-09
-4.59871e-15
1.642e-09
-2.64305e-09
-1.40198e-15
1.71436e-09
-2.69959e-09
-2.59867e-15
1.77306e-09
-2.73607e-09
-9.99879e-16
1.81736e-09
-2.75297e-09
-2.93092e-15
1.84692e-09
-2.75103e-09
-1.93946e-15
1.86178e-09
-2.73213e-09
-3.86575e-15
1.86235e-09
-2.69747e-09
-2.92444e-15
1.84929e-09
-2.64927e-09
-4.69534e-15
1.82357e-09
-2.58958e-09
-3.46262e-15
1.78632e-09
-2.5204e-09
-4.81983e-15
1.73875e-09
-2.44385e-09
-3.16983e-15
1.68219e-09
-2.36183e-09
-4.56115e-15
1.61793e-09
-2.27623e-09
-2.57116e-15
1.54728e-09
-2.18853e-09
-3.51805e-15
1.47148e-09
-2.10017e-09
-1.35533e-15
1.39164e-09
-2.01226e-09
-2.08455e-15
1.30885e-09
-1.92526e-09
-2.4027e-16
1.22399e-09
-1.8409e-09
-8.63085e-16
1.13793e-09
-1.75838e-09
4.44663e-16
1.05137e-09
-1.67889e-09
-2.93547e-16
9.64948e-10
-1.60168e-09
2.84715e-16
8.79249e-10
-1.52656e-09
-7.44046e-16
7.94695e-10
-1.45409e-09
-8.74192e-16
7.1178e-10
-1.38231e-09
-1.97919e-15
6.30876e-10
-1.31137e-09
-2.04277e-15
5.52385e-10
-1.23977e-09
-3.02348e-15
4.76689e-10
-1.16653e-09
-3.79457e-15
4.04173e-10
-1.09056e-09
-4.58776e-15
3.35301e-10
-1.00978e-09
-4.47772e-15
2.70566e-10
-9.22812e-10
-4.41813e-15
2.10532e-10
-8.27984e-10
-3.85335e-15
1.55877e-10
-7.23573e-10
-3.69619e-15
1.0741e-10
-6.08777e-10
-3.56354e-15
6.60951e-11
-4.84919e-10
-3.44655e-15
3.31242e-11
-3.56332e-10
-3.16413e-15
1.01285e-11
-2.30117e-10
-2.7144e-15
-1.05173e-10
-2.12675e-15
8.58667e-10
-1.70622e-09
-4.83634e-15
9.84475e-10
-1.88169e-09
3.91213e-15
1.11145e-09
-2.04898e-09
-1.32647e-15
1.23708e-09
-2.20486e-09
2.72893e-15
1.35868e-09
-2.34629e-09
-1.95133e-15
1.47372e-09
-2.47074e-09
-4.30418e-15
1.57983e-09
-2.57639e-09
-4.86955e-15
1.67488e-09
-2.66138e-09
-4.6311e-15
1.7571e-09
-2.72529e-09
-4.41969e-15
1.82508e-09
-2.7676e-09
-2.49624e-15
1.8779e-09
-2.7889e-09
-3.7e-15
1.91503e-09
-2.79013e-09
-1.7178e-15
1.93642e-09
-2.77244e-09
-4.20323e-15
1.9424e-09
-2.73813e-09
-2.21738e-15
1.93366e-09
-2.68874e-09
-5.14686e-15
1.91113e-09
-2.62679e-09
-2.90768e-15
1.87604e-09
-2.55452e-09
-5.52828e-15
1.82971e-09
-2.4741e-09
-2.87619e-15
1.77356e-09
-2.38772e-09
-4.90679e-15
1.70904e-09
-2.29733e-09
-2.4217e-15
1.63753e-09
-2.20475e-09
-3.88399e-15
1.5604e-09
-2.11142e-09
-1.4142e-15
1.47891e-09
-2.01869e-09
-2.40537e-15
1.39419e-09
-1.92754e-09
-2.37385e-16
1.30729e-09
-1.83835e-09
-1.09246e-15
1.21905e-09
-1.75267e-09
6.65347e-16
1.1303e-09
-1.66962e-09
-2.39956e-16
1.04167e-09
-1.59026e-09
8.68292e-16
9.53762e-10
-1.51376e-09
-2.90403e-16
8.67071e-10
-1.43987e-09
6.45059e-17
7.81975e-10
-1.36901e-09
-1.36177e-15
6.98906e-10
-1.29926e-09
-1.5143e-15
6.18186e-10
-1.23067e-09
-2.59172e-15
5.40166e-10
-1.16179e-09
-2.92131e-15
4.65191e-10
-1.09161e-09
-4.2257e-15
3.93604e-10
-1.01904e-09
-4.47747e-15
3.25836e-10
-9.42072e-10
-4.72508e-15
2.62342e-10
-8.59381e-10
-4.39606e-15
2.03659e-10
-7.6936e-10
-4.03627e-15
1.50426e-10
-6.70397e-10
-3.67793e-15
1.03405e-10
-5.61814e-10
-3.63031e-15
6.34929e-11
-4.45065e-10
-3.41787e-15
3.17787e-11
-3.24676e-10
-3.19818e-15
9.73085e-12
-2.08123e-10
-2.73583e-15
-9.54865e-11
-2.20113e-15
9.5736e-10
-1.83808e-09
-2.27554e-15
1.09199e-09
-2.01623e-09
8.8221e-15
1.22644e-09
-2.18343e-09
-2.23415e-15
1.35793e-09
-2.33634e-09
6.19085e-16
1.48353e-09
-2.47193e-09
-4.95873e-15
1.60055e-09
-2.58783e-09
-9.19718e-15
1.70658e-09
-2.68245e-09
-4.60403e-15
1.79949e-09
-2.75432e-09
-5.09655e-15
1.87763e-09
-2.80342e-09
-3.91896e-16
1.93976e-09
-2.82973e-09
-1.78822e-15
1.98521e-09
-2.83434e-09
1.90087e-16
2.01375e-09
-2.81867e-09
-2.23768e-15
2.02564e-09
-2.78434e-09
-1.36222e-15
2.02155e-09
-2.73405e-09
-3.86952e-15
2.00246e-09
-2.66967e-09
-2.87372e-15
1.96964e-09
-2.59399e-09
-4.9557e-15
1.92452e-09
-2.50944e-09
-3.34556e-15
1.86867e-09
-2.41828e-09
-4.81148e-15
1.80364e-09
-2.32272e-09
-2.63991e-15
1.73101e-09
-2.22471e-09
-3.93987e-15
1.65225e-09
-2.126e-09
-1.54135e-15
1.56874e-09
-2.02793e-09
-2.58193e-15
1.48176e-09
-1.93171e-09
-2.55108e-16
1.3924e-09
-1.83819e-09
-1.18857e-15
1.30168e-09
-1.74762e-09
7.16342e-16
1.21039e-09
-1.66137e-09
-1.13467e-16
1.11928e-09
-1.57851e-09
1.1705e-15
1.02893e-09
-1.4999e-09
2.12032e-16
9.39852e-10
-1.42468e-09
7.08786e-16
8.52493e-10
-1.3525e-09
-4.84997e-16
7.67154e-10
-1.28368e-09
-7.11355e-16
6.84214e-10
-1.21633e-09
-2.00587e-15
6.03935e-10
-1.15043e-09
-2.3167e-15
5.26627e-10
-1.08452e-09
-3.44429e-15
4.52585e-10
-1.01762e-09
-4.12151e-15
3.8212e-10
-9.48631e-10
-4.75885e-15
3.15625e-10
-8.75639e-10
-4.61854e-15
2.53527e-10
-7.97346e-10
-4.58345e-15
1.96327e-10
-7.1222e-10
-4.00811e-15
1.44632e-10
-6.1876e-10
-3.77025e-15
9.9158e-11
-5.16398e-10
-3.57823e-15
6.07366e-11
-4.06703e-10
-3.45074e-15
3.03519e-11
-2.94349e-10
-3.18425e-15
9.30731e-12
-1.87133e-10
-2.81087e-15
-8.62259e-11
-2.27721e-15
1.06722e-09
-1.98048e-09
-9.78436e-15
1.21102e-09
-2.15997e-09
6.93118e-15
1.35296e-09
-2.32537e-09
-2.04503e-15
1.48995e-09
-2.47329e-09
3.62591e-15
1.61883e-09
-2.60083e-09
-4.84068e-15
1.73679e-09
-2.70585e-09
-8.02406e-15
1.84142e-09
-2.78713e-09
-7.71561e-15
1.93067e-09
-2.84362e-09
-5.93044e-15
2.00309e-09
-2.87586e-09
-4.51041e-15
2.0577e-09
-2.88436e-09
-1.68575e-15
2.09413e-09
-2.87078e-09
-3.07199e-15
2.11253e-09
-2.83708e-09
-6.89641e-16
2.11353e-09
-2.78535e-09
-3.93359e-15
2.09814e-09
-2.71869e-09
-1.83289e-15
2.06772e-09
-2.63927e-09
-5.33934e-15
2.0238e-09
-2.55011e-09
-2.82295e-15
1.96809e-09
-2.45376e-09
-5.61041e-15
1.90232e-09
-2.35254e-09
-2.52537e-15
1.82823e-09
-2.24866e-09
-4.49578e-15
1.74746e-09
-2.14395e-09
-1.46614e-15
1.66154e-09
-2.04009e-09
-2.92103e-15
1.57185e-09
-1.93825e-09
-1.71615e-16
1.47964e-09
-1.8395e-09
-1.33638e-15
1.38597e-09
-1.74452e-09
9.10804e-16
1.2918e-09
-1.65343e-09
-1.6771e-16
1.19783e-09
-1.5674e-09
1.57256e-15
1.10476e-09
-1.48542e-09
4.26062e-16
1.01306e-09
-1.40819e-09
1.44985e-15
9.23181e-10
-1.33479e-09
6.71371e-17
8.35491e-10
-1.26481e-09
3.53435e-16
7.50232e-10
-1.19844e-09
-1.24431e-15
6.67713e-10
-1.13383e-09
-1.49623e-15
5.88148e-10
-1.07089e-09
-2.84191e-15
5.11791e-10
-1.0082e-09
-3.26612e-15
4.38902e-10
-9.44779e-10
-4.50201e-15
3.69751e-10
-8.79542e-10
-4.58095e-15
3.04701e-10
-8.1065e-10
-4.82431e-15
2.44145e-10
-7.36854e-10
-4.52646e-15
1.88559e-10
-6.56695e-10
-4.18327e-15
1.38515e-10
-5.68774e-10
-3.75241e-15
9.46845e-11
-4.72626e-10
-3.65315e-15
5.78356e-11
-3.69913e-10
-3.43361e-15
2.88491e-11
-2.65422e-10
-3.24244e-15
8.85892e-12
-1.67199e-10
-2.86612e-15
-7.74162e-11
-2.3923e-15
1.19126e-09
-2.13343e-09
-5.46052e-15
1.34398e-09
-2.31265e-09
4.65776e-15
1.49283e-09
-2.47423e-09
-1.45099e-15
1.63439e-09
-2.61484e-09
-5.36039e-16
1.76531e-09
-2.7318e-09
-5.37763e-15
1.88272e-09
-2.82332e-09
-9.71139e-15
1.98425e-09
-2.88869e-09
-4.02548e-15
2.06801e-09
-2.92739e-09
-4.72694e-15
2.13279e-09
-2.94062e-09
1.09605e-15
2.17798e-09
-2.92953e-09
-7.57055e-16
2.20359e-09
-2.89638e-09
1.22033e-15
2.21019e-09
-2.84369e-09
-1.63278e-15
2.19884e-09
-2.77401e-09
-1.03932e-15
2.17096e-09
-2.69082e-09
-3.95546e-15
2.12823e-09
-2.59656e-09
-2.98849e-15
2.0725e-09
-2.49442e-09
-5.22304e-15
2.00571e-09
-2.38701e-09
-3.26808e-15
1.92979e-09
-2.27664e-09
-4.69559e-15
1.84656e-09
-2.16544e-09
-2.01649e-15
1.75774e-09
-2.05514e-09
-3.15216e-15
1.66485e-09
-1.94721e-09
-3.70142e-16
1.56929e-09
-1.84269e-09
-1.45141e-15
1.47222e-09
-1.74243e-09
1.00772e-15
1.37466e-09
-1.64695e-09
-1.09228e-16
1.27746e-09
-1.55622e-09
1.79123e-15
1.18126e-09
-1.47119e-09
7.27082e-16
1.08664e-09
-1.39078e-09
1.92074e-15
9.94008e-10
-1.31554e-09
7.2469e-16
9.03718e-10
-1.2445e-09
1.10457e-15
8.16068e-10
-1.17715e-09
-2.5692e-16
7.3122e-10
-1.1136e-09
-5.70182e-16
6.49432e-10
-1.05206e-09
-1.99496e-15
5.70853e-10
-9.92349e-10
-2.4893e-15
4.95697e-10
-9.33092e-10
-3.73457e-15
4.24177e-10
-8.73313e-10
-4.3218e-15
3.56535e-10
-8.11961e-10
-4.82187e-15
2.93097e-10
-7.47274e-10
-4.65564e-15
2.34231e-10
-6.78052e-10
-4.67654e-15
1.80384e-10
-6.02908e-10
-4.12792e-15
1.32097e-10
-5.20546e-10
-3.83977e-15
9.0001e-11
-4.3059e-10
-3.60297e-15
5.48013e-11
-3.34772e-10
-3.48121e-15
2.72756e-11
-2.37956e-10
-3.25407e-15
8.38751e-12
-1.4837e-10
-2.97865e-15
-6.90808e-11
-2.51183e-15
1.3286e-09
-2.29774e-09
-1.11975e-14
1.49044e-09
-2.47449e-09
9.18366e-16
1.6459e-09
-2.62967e-09
-1.238e-15
1.7912e-09
-2.76014e-09
-7.76044e-17
1.92287e-09
-2.86353e-09
-8.74627e-15
2.03806e-09
-2.93859e-09
-9.39267e-15
2.13454e-09
-2.98522e-09
-7.90431e-15
2.21069e-09
-3.0036e-09
-5.31006e-15
2.2657e-09
-2.99564e-09
-3.31039e-15
2.29937e-09
-2.96321e-09
-4.26571e-16
2.31223e-09
-2.90924e-09
-2.39176e-15
2.30531e-09
-2.83678e-09
-5.47363e-17
2.28015e-09
-2.74886e-09
-3.99434e-15
2.23859e-09
-2.64927e-09
-1.91637e-15
2.18268e-09
-2.54068e-09
-5.80156e-15
2.11454e-09
-2.42633e-09
-3.0502e-15
2.03634e-09
-2.30884e-09
-5.82843e-15
1.95013e-09
-2.19046e-09
-2.33195e-15
1.85783e-09
-2.07316e-09
-4.11535e-15
1.76117e-09
-1.95848e-09
-5.97597e-16
1.66167e-09
-1.84771e-09
-1.95641e-15
1.56063e-09
-1.74165e-09
1.04726e-15
1.45919e-09
-1.64097e-09
-2.20677e-16
1.35822e-09
-1.54597e-09
2.08482e-15
1.2585e-09
-1.45648e-09
8.05597e-16
1.16055e-09
-1.37322e-09
2.48164e-15
1.06487e-09
-1.29507e-09
1.0937e-15
9.71749e-10
-1.22241e-09
1.99848e-15
8.81469e-10
-1.1542e-09
3.96329e-16
7.94236e-10
-1.08991e-09
5.9319e-16
7.10153e-10
-1.02953e-09
-1.14211e-15
6.29405e-10
-9.71328e-10
-1.445e-15
5.52097e-10
-9.15074e-10
-2.96419e-15
4.78388e-10
-8.59429e-10
-3.46873e-15
4.08461e-10
-8.03439e-10
-4.64105e-15
3.42517e-10
-7.46078e-10
-4.57765e-15
2.80857e-10
-6.85677e-10
-4.81607e-15
2.23822e-10
-6.21081e-10
-4.57129e-15
1.71834e-10
-5.50982e-10
-4.2702e-15
1.25405e-10
-4.74175e-10
-3.80281e-15
8.5128e-11
-3.90372e-10
-3.67504e-15
5.16467e-11
-3.01351e-10
-3.47446e-15
2.56385e-11
-2.12009e-10
-3.33807e-15
7.89476e-12
-1.30688e-10
-3.07037e-15
-6.12415e-11
-2.6697e-15
1.48404e-09
-2.47275e-09
-3.08666e-15
1.65403e-09
-2.64445e-09
3.5892e-15
1.81467e-09
-2.79028e-09
8.21772e-16
1.9619e-09
-2.9074e-09
-4.46361e-15
2.09219e-09
-2.99392e-09
-1.07008e-14
2.2028e-09
-3.04928e-09
-1.17521e-14
2.29174e-09
-3.07417e-09
-2.72647e-15
2.35776e-09
-3.06961e-09
-2.74088e-15
2.40051e-09
-3.03836e-09
3.29904e-15
2.42037e-09
-2.98303e-09
7.43408e-16
2.41838e-09
-2.90724e-09
1.95016e-15
2.39618e-09
-2.81458e-09
-1.28044e-15
2.35578e-09
-2.70847e-09
-1.27757e-15
2.29946e-09
-2.59296e-09
-4.36426e-15
2.2296e-09
-2.47085e-09
-3.58047e-15
2.14861e-09
-2.34538e-09
-5.71902e-15
2.05882e-09
-2.21909e-09
-3.53593e-15
1.96239e-09
-2.09406e-09
-4.7479e-15
1.86125e-09
-1.97205e-09
-1.6576e-15
1.75714e-09
-1.85437e-09
-2.54611e-15
1.65148e-09
-1.74206e-09
5.64084e-16
1.54552e-09
-1.63569e-09
-4.67531e-16
1.44025e-09
-1.53569e-09
2.11619e-15
1.33646e-09
-1.44216e-09
8.96806e-16
1.23479e-09
-1.35478e-09
2.77822e-15
1.13565e-09
-1.27406e-09
1.51993e-15
1.03941e-09
-1.19881e-09
2.60082e-15
9.46284e-10
-1.12926e-09
1.19082e-15
8.56447e-10
-1.06436e-09
1.43625e-15
7.70036e-10
-1.00349e-09
-7.72499e-17
6.87073e-10
-9.46584e-10
-4.61128e-16
6.07691e-10
-8.91961e-10
-1.94289e-15
5.31934e-10
-8.3935e-10
-2.52995e-15
4.59926e-10
-7.87465e-10
-3.86391e-15
3.91805e-10
-7.35373e-10
-4.38017e-15
3.27749e-10
-6.82082e-10
-4.77079e-15
2.68028e-10
-6.26017e-10
-4.58495e-15
2.12961e-10
-5.66077e-10
-4.66636e-15
1.62945e-10
-5.01028e-10
-4.16467e-15
1.1847e-10
-4.29758e-10
-3.8629e-15
8.0088e-11
-3.52049e-10
-3.61693e-15
4.83874e-11
-2.69711e-10
-3.53457e-15
2.39456e-11
-1.8763e-10
-3.37814e-15
7.38327e-12
-1.1419e-10
-3.22294e-15
-5.39175e-11
-2.83543e-15
1.6547e-09
-2.65919e-09
-1.2933e-14
1.83271e-09
-2.82254e-09
-6.77601e-15
1.99772e-09
-2.95526e-09
-2.95775e-16
2.14539e-09
-3.05509e-09
-8.77916e-16
2.27226e-09
-3.12088e-09
-1.21162e-14
2.37581e-09
-3.15293e-09
-1.12484e-14
2.45448e-09
-3.15289e-09
-6.82526e-15
2.50759e-09
-3.12275e-09
-3.04817e-15
2.53541e-09
-3.06617e-09
-5.69439e-16
2.53899e-09
-2.98661e-09
1.57143e-15
2.52006e-09
-2.8883e-09
-1.09044e-15
2.48082e-09
-2.77536e-09
4.19596e-16
2.42384e-09
-2.65151e-09
-4.04009e-15
2.3518e-09
-2.52095e-09
-2.35203e-15
2.26743e-09
-2.38651e-09
-6.36854e-15
2.17334e-09
-2.25134e-09
-3.55991e-15
2.072e-09
-2.11779e-09
-6.18631e-15
1.96559e-09
-1.98768e-09
-2.43303e-15
1.85605e-09
-1.86252e-09
-3.96416e-15
1.74502e-09
-1.74334e-09
-1.09333e-16
1.63384e-09
-1.63088e-09
-1.29966e-15
1.5236e-09
-1.52545e-09
1.90595e-15
1.41519e-09
-1.42725e-09
6.42781e-16
1.30923e-09
-1.33619e-09
3.01112e-15
1.20624e-09
-1.25176e-09
1.61901e-15
1.10649e-09
-1.1743e-09
3.23343e-15
1.01026e-09
-1.10256e-09
1.65985e-15
9.17635e-10
-1.03662e-09
2.4404e-15
8.28706e-10
-9.75416e-10
6.51102e-16
7.43523e-10
-9.18304e-10
7.52224e-16
6.62051e-10
-8.65124e-10
-1.07145e-15
5.84353e-10
-8.14279e-10
-1.36879e-15
5.10437e-10
-7.65466e-10
-2.94677e-15
4.40374e-10
-7.17448e-10
-3.51043e-15
3.74277e-10
-6.69329e-10
-4.6263e-15
3.12292e-10
-6.20156e-10
-4.45981e-15
2.54667e-10
-5.68451e-10
-4.6943e-15
2.01698e-10
-5.1317e-10
-4.50003e-15
1.53763e-10
-4.53154e-10
-4.24902e-15
1.11325e-10
-3.87379e-10
-3.78739e-15
7.49078e-11
-3.15691e-10
-3.67532e-15
4.50406e-11