/*--------------------------------*- C++ -*----------------------------------*\
| =========                 |                                                 |
| \\      /  F ield         | OpenFOAM: The Open Source CFD Toolbox           |
|  \\    /   O peration     | Version:  v2012                                 |
|   \\  /    A nd           | Website:  www.openfoam.com                      |
|    \\/     M anipulation  |                                                 |
\*---------------------------------------------------------------------------*/
FoamFile
{
    version     2.0;
    format      ascii;
    class       surfaceScalarField;
    location    "0.5";
    object      alphaPhi0.water;
}
// * * * * * * * * * * * * * * * * * * * * * * * * * * * * * * * * * * * * * //

dimensions      [0 3 -1 0 0 0 0];
oriented        oriented;


internalField   nonuniform List<scalar> 
8135
(
-3.8339e-63
-4.90668e-75
-1.72722e-70
-6.83023e-169
-2.38e-74
-1.25523e-69
-8.03538e-218
3.58537e-165
-1.65723e-166
-5.71644e-301
5.22193e-216
-3.10972e-220
-5.88167e-299
7.98086e-299
-2.12588e-308
-1.06478e-296
1.33257e-296
-1.85345e-306
-2.79404e-294
3.35839e-294
-2.79089e-304
-9.77367e-292
1.14372e-291
-5.99723e-302
-4.36931e-289
5.00067e-289
-1.29202e-299
-2.43677e-286
2.73485e-286
-4.41017e-297
-1.66883e-283
1.84329e-283
-7.64785e-295
-1.38793e-280
1.51699e-280
2.33265e-292
-1.38964e-277
1.51419e-277
1.09731e-288
-1.66514e-274
1.82561e-274
-4.60155e-286
-2.38047e-271
2.65565e-271
-6.17671e-284
-4.05884e-268
4.67228e-268
2.34857e-280
-8.27611e-265
1.0018e-264
1.1357e-276
-2.02871e-261
2.65842e-261
9.37401e-273
-5.99176e-258
8.96886e-258
-3.64844e-269
-2.05013e-254
4.03376e-254
-1.75528e-265
2.42076e-250
3.97482e-261
-4.60569e-75
-5.26203e-94
-1.32292e-77
-1.24331e-138
-7.62394e-94
-1.97644e-76
-1.60986e-215
1.07117e-137
-9.73789e-151
-2.27042e-285
4.24723e-214
-4.60865e-218
-8.44716e-284
1.12799e-283
-1.35266e-292
-5.23141e-282
6.47862e-282
-4.14352e-291
-4.63262e-280
5.52122e-280
-2.12899e-289
-5.44333e-278
6.32457e-278
-1.40646e-287
-8.15191e-276
9.27954e-276
-3.87743e-286
-1.51905e-273
1.69937e-273
2.57457e-284
-3.46732e-271
3.82618e-271
2.85085e-281
-9.59152e-269
1.04937e-268
1.0422e-278
-3.19037e-266
3.48364e-266
4.0758e-276
-1.26994e-263
1.39527e-263
1.10328e-273
-6.03879e-261
6.74189e-261
5.88883e-271
-3.43451e-258
3.94457e-258
3.44693e-268
-2.34687e-255
2.81954e-255
2.44565e-265
-1.9414e-252
2.50344e-252
2.34932e-262
-1.95457e-249
2.8386e-249
1.74328e-259
-2.3002e-246
4.29167e-246
3.48923e-256
8.41174e-243
2.09713e-252
-3.1943e-97
-4.11101e-94
-5.09733e-98
-3.20147e-138
-7.62682e-94
-4.33889e-100
-9.15839e-214
3.11271e-137
-3.8866e-151
-5.24494e-279
1.61719e-212
-2.07645e-216
-1.24392e-277
1.63589e-277
-3.23948e-286
-4.74543e-276
5.81367e-276
-6.25902e-285
-2.55781e-274
3.02124e-274
-1.96613e-283
-1.81993e-272
2.09868e-272
-7.432e-282
-1.64497e-270
1.86183e-270
-1.49087e-280
-1.84461e-268
2.05639e-268
-7.42785e-281
-2.52702e-266
2.7852e-266
2.71643e-276
-4.18674e-264
4.58361e-264
6.69184e-274
-8.3309e-262
9.11223e-262
1.69757e-271
-1.9838e-259
2.18304e-259
2.84551e-269
-5.65096e-257
6.30918e-257
9.35431e-267
-1.93092e-254
2.21056e-254
3.42167e-264
-7.96471e-252
9.4859e-252
1.52212e-261
-4.00468e-249
5.07502e-249
9.25507e-259
-2.47266e-246
3.4818e-246
4.79841e-256
-1.79372e-243
3.18537e-243
6.07665e-253
3.63373e-240
1.70189e-249
-3.69051e-94
-3.14419e-99
-2.77346e-98
-1.05308e-136
-1.04282e-98
-2.33807e-97
-2.88196e-212
5.60196e-136
-1.07009e-148
-2.82479e-274
3.91432e-211
-5.32324e-215
-5.04049e-273
6.53255e-273
-1.76833e-281
-1.41025e-271
1.70963e-271
-2.56038e-280
-5.51222e-270
6.45561e-270
-5.86407e-279
-2.82794e-268
3.23846e-268
-1.60333e-277
-1.83632e-266
2.0676e-266
-3.65439e-276
-1.47513e-264
1.63906e-264
-1.33977e-274
-1.44427e-262
1.58949e-262
9.54614e-273
-1.70713e-260
1.86895e-260
2.57701e-270
-2.42101e-258
2.65024e-258
5.42832e-268
-4.10827e-256
4.52451e-256
6.20596e-266
-8.34642e-254
9.31666e-254
1.61349e-263
-2.03784e-251
2.32738e-251
4.46552e-261
-6.02401e-249
7.13142e-249
1.49306e-258
-2.17942e-246
2.73012e-246
6.81568e-256
-9.72624e-244
1.34281e-243
2.68303e-253
-5.10554e-241
8.79129e-241
2.5936e-250
7.01218e-238
5.19072e-247
-2.90794e-99
-9.20182e-115
-6.19871e-102
-2.97361e-139
-1.41517e-114
-6.58755e-101
-6.11954e-211
5.59898e-136
-5.8596e-151
-2.28068e-270
6.82243e-210
-9.40934e-214
-3.30971e-269
4.22947e-269
-1.42172e-277
-7.38522e-268
8.86296e-268
-1.67365e-276
-2.279e-266
2.64765e-266
-3.04939e-275
-9.17782e-265
1.04431e-264
-6.69371e-274
-4.66055e-263
5.22284e-263
-1.7362e-272
-2.91951e-261
3.23428e-261
-7.63842e-271
-2.22415e-259
2.44439e-259
-1.22976e-269
-2.04229e-257
2.23559e-257
1.37505e-267
-2.24782e-255
2.46217e-255
3.96185e-265
-2.95953e-253
3.26171e-253
2.82387e-263
-4.66734e-251
5.21017e-251
7.55616e-261
-8.85683e-249
1.01002e-248
1.82121e-258
-2.03889e-246
2.40392e-246
5.13609e-256
-5.75928e-244
7.15745e-244
1.97423e-253
-2.0119e-241
2.74042e-241
6.14335e-251
-8.26568e-239
1.39386e-238
5.01907e-248
8.50534e-236
8.30746e-245
-9.12911e-115
-7.11428e-117
-2.31031e-121
-1.09836e-135
-1.66461e-116
-8.31191e-122
-9.65202e-210
4.28009e-135
-3.52371e-148
-5.73299e-267
9.16597e-209
-1.25579e-212
-7.07317e-266
8.91662e-266
-3.51374e-274
-1.32137e-264
1.57055e-264
-3.52349e-273
-3.38368e-263
3.90157e-263
-5.37214e-272
-1.12458e-261
1.27215e-261
-9.99869e-271
-4.69555e-260
5.23989e-260
-2.72434e-269
-2.41191e-258
2.66493e-258
-1.15304e-267
-1.50351e-256
1.65042e-256
-3.41742e-266
-1.12796e-254
1.23464e-254
-7.71468e-265
-1.01336e-252
1.11069e-252
7.78024e-263
-1.08866e-250
1.20078e-250
-1.14881e-261
-1.40125e-248
1.5648e-248
1.14348e-258
-2.17201e-246
2.47507e-246
3.14296e-256
-4.0899e-244
4.80926e-244
8.56517e-254
-9.46642e-242
1.16995e-241
3.0681e-251
-2.71398e-239
3.66154e-239
7.72013e-249
-9.14596e-237
1.51956e-236
5.79713e-246
7.48372e-234
8.45527e-243
-6.23759e-117
-1.90568e-119
-2.61668e-119
-2.39484e-135
-4.09487e-119
-8.97948e-119
-1.1971e-208
1.1097e-134
-5.92016e-147
-6.48252e-264
9.91677e-208
-1.3371e-211
-6.99451e-263
8.70153e-263
-3.87967e-271
-1.12866e-261
1.3292e-261
-3.41393e-270
-2.47737e-260
2.83654e-260
-4.4991e-269
-7.02203e-259
7.90117e-259
-7.34727e-268
-2.49168e-257
2.77005e-257
-1.99667e-266
-1.08483e-255
1.19587e-255
-7.73979e-265
-5.72065e-254
6.27328e-254
-2.41029e-263
-3.62532e-252
3.96824e-252
-8.29027e-262
-2.74873e-250
3.01475e-250
-1.34345e-260
-2.49117e-248
2.75016e-248
-3.58911e-258
-2.7052e-246
3.0228e-246
-7.35825e-257
-3.53967e-244
4.03274e-244
1.92369e-254
-5.6318e-242
6.61146e-242
7.66894e-252
-1.10275e-239
1.3577e-239
2.99679e-249
-2.67719e-237
3.58741e-237
6.02048e-247
-7.63479e-235
1.25499e-234
4.56827e-244
5.16912e-232
5.94321e-241
-1.7683e-119
-5.25439e-126
-2.80155e-122
-6.03248e-135
-6.65558e-126
-2.08184e-121
-1.24333e-207
2.56897e-134
-1.27485e-146
-4.08061e-261
9.13589e-207
-1.19404e-210
-3.92609e-260
4.8214e-260
-2.37848e-268
-5.59132e-259
6.52682e-259
-1.87473e-267
-1.07601e-257
1.22389e-257
-2.1847e-266
-2.66179e-256
2.98033e-256
-3.17588e-265
-8.21601e-255
9.10269e-255
-8.29905e-264
-3.10395e-253
3.41467e-253
-2.90706e-262
-1.41768e-251
1.55329e-251
-8.63764e-261
-7.77096e-250
8.50662e-250
-3.02105e-259
-5.09181e-248
5.58846e-248
-9.10154e-258
-3.98623e-246
4.40482e-246
-1.137e-255
-3.73909e-244
4.18139e-244
-5.45844e-254
-4.22753e-242
4.81737e-242
-2.02393e-252
-5.8159e-240
6.8215e-240
2.86663e-250
-9.85483e-238
1.21024e-237
2.01797e-247
-2.07164e-235
2.76268e-235
2.99192e-245
-5.11224e-233
8.33866e-233
2.67467e-242
2.94608e-230
3.16263e-239
-3.4577e-126
-4.63337e-127
-5.17408e-135
-1.46944e-134
-5.08125e-127
-3.04536e-134
-1.4241e-190
5.60888e-134
-3.19087e-146
-1.63733e-258
1.62723e-187
-1.14414e-189
-1.42476e-257
1.72749e-257
-9.28773e-266
-1.81906e-256
2.1053e-256
-6.65569e-265
-3.1203e-255
3.52694e-255
-6.96932e-264
-6.85216e-254
7.63697e-254
-9.13718e-263
-1.87185e-252
2.06735e-252
-2.24341e-261
-6.24438e-251
6.85667e-251
-7.0898e-260
-2.514e-249
2.75238e-249
-1.9507e-258
-1.21319e-247
1.32817e-247
-6.44744e-257
-6.99235e-246
7.67967e-246
-2.06294e-255
-4.81293e-244
5.32349e-244
-2.00476e-253
-3.96881e-242
4.44234e-242
-1.02322e-251
-3.94561e-240
4.49833e-240
-5.7566e-250
-4.77493e-238
5.59872e-238
-1.71703e-248
-7.12132e-236
8.73172e-236
9.85796e-246
-1.31806e-233
1.75194e-233
7.64075e-244
-2.86207e-231
4.64265e-231
1.22635e-240
1.43383e-228
1.37977e-237
-3.12951e-127
-2.93366e-128
-4.68239e-137
-3.36615e-134
-2.83289e-128
-2.75328e-136
-5.28915e-150
1.15863e-133
-8.15862e-146
-4.59072e-256
9.98679e-150
-8.20346e-163
-3.65213e-255
4.37252e-255
-2.53278e-263
-4.23007e-254
4.85488e-254
-1.66875e-262
-6.54941e-253
7.3584e-253
-1.59021e-261
-1.29345e-251
1.43533e-251
-1.89233e-260
-3.16896e-250
3.4896e-250
-4.31315e-259
-9.4611e-249
1.03707e-248
-1.23387e-257
-3.40353e-247
3.72359e-247
-3.11613e-256
-1.46586e-245
1.60495e-245
-9.54476e-255
-7.53423e-244
8.28031e-244
-2.9529e-253
-4.62243e-242
5.11772e-242
-2.45817e-251
-3.39695e-240
3.80599e-240
-1.20951e-249
-3.00986e-238
3.43389e-238
-6.99543e-248
-3.24729e-236
3.80789e-236
-3.62272e-246
-4.31903e-234
5.29123e-234
3.49762e-244
-7.13032e-232
9.45703e-232
-1.63657e-242
-1.38027e-229
2.23033e-229
4.56696e-239
6.10987e-227
5.14702e-236
-1.97925e-128
-2.14602e-129
-3.97676e-139
-7.33737e-134
-1.11829e-129
-2.18786e-138
-3.29209e-152
2.28018e-133
-1.68688e-145
-9.60294e-254
9.95376e-150
-1.65477e-162
-7.0442e-253
8.32831e-253
-5.14713e-261
-7.47072e-252
8.50371e-252
-3.14478e-260
-1.05438e-250
1.17768e-250
-2.75329e-259
-1.89194e-249
2.09068e-249
-3.00195e-258
-4.20097e-248
4.61296e-248
-6.30045e-257
-1.13452e-246
1.24153e-246
-1.64044e-255
-3.68639e-245
4.03024e-245
-3.78902e-254
-1.43248e-243
1.56851e-243
-1.06715e-252
-6.63783e-242
7.29965e-242
-3.08691e-251
-3.6698e-240
4.06682e-240
-2.2965e-249
-2.42969e-238
2.72502e-238
-1.05711e-247
-1.93952e-236
2.21462e-236
-5.85247e-246
-1.88547e-234
2.21186e-234
-3.23944e-244
-2.26005e-232
2.76795e-232
8.28792e-243
-3.3628e-230
4.45434e-230
-3.04278e-240
-5.86413e-228
9.45102e-228
1.41352e-237
2.32337e-225
1.67421e-234
-8.89415e-130
-8.25203e-130
-1.76127e-142
-1.46387e-133
-1.38418e-131
-7.59032e-140
-2.75133e-150
4.20655e-133
-8.32556e-145
-1.5732e-251
1.38398e-149
-2.17974e-162
-1.07148e-250
1.251e-250
-8.17802e-259
-1.04831e-249
1.18352e-249
-4.66459e-258
-1.35937e-248
1.5096e-248
-3.78145e-257
-2.23454e-247
2.45919e-247
-3.79909e-256
-4.53514e-246
4.96621e-246
-7.33496e-255
-1.11751e-244
1.22091e-244
-1.74907e-253
-3.30863e-243
3.61465e-243
-3.69937e-252
-1.17031e-241
1.28147e-241
-9.57338e-251
-4.93278e-240
5.42761e-240
-2.55827e-249
-2.47945e-238
2.75014e-238
-1.74023e-247
-1.49212e-236
1.67518e-236
-7.41878e-246
-1.08256e-234
1.23726e-234
-3.84452e-244
-9.56549e-233
1.12285e-232
-2.07512e-242
-1.04226e-230
1.27662e-230
6.48545e-242
-1.40965e-228
1.86602e-228
-2.02278e-238
-2.23348e-226
3.59372e-226
3.69186e-236
8.00308e-224
4.88269e-233
-3.38025e-131
-7.13817e-130
-5.40354e-143
-3.06829e-133
-8.59794e-132
-1.8711e-140
-3.49845e-150
7.68969e-133
-2.28594e-147
-9.5047e-244
1.80857e-149
-3.51507e-162
-1.33231e-248
6.96986e-243
-5.65858e-247
-1.20992e-247
1.35485e-247
-5.6422e-256
-1.45093e-246
1.60206e-246
-4.25977e-255
-2.19977e-245
2.41114e-245
-3.96628e-254
-4.10935e-244
4.48769e-244
-7.05613e-253
-9.30537e-243
1.01496e-242
-1.55107e-251
-2.52866e-241
2.76044e-241
-3.01027e-250
-8.20151e-240
8.98001e-240
-7.16131e-249
-3.16765e-238
3.48707e-238
-1.75653e-247
-1.45833e-236
1.61887e-236
-1.11013e-245
-8.03594e-235
9.03081e-235
-4.3656e-244
-5.33788e-233
6.10666e-233
-2.09876e-242
-4.31814e-231
5.07284e-231
-1.06848e-240
-4.30766e-229
5.27846e-229
-4.54863e-240
-5.33359e-227
7.05928e-227
-9.75128e-237
-7.73315e-225
1.24316e-224
8.14342e-235
2.52756e-222
1.29987e-231
-2.62389e-131
-6.33857e-130
-2.06886e-143
-6.66302e-133
-5.85363e-132
-5.79966e-141
-5.53327e-150
1.01051e-132
-1.38354e-148
-2.64521e-207
2.39136e-149
-5.50941e-162
-1.39298e-246
1.79746e-206
-1.21089e-218
-1.1803e-245
1.31086e-245
-5.72451e-254
-1.31607e-244
1.44485e-244
-4.0449e-253
-1.85076e-243
2.02042e-243
-3.50445e-252
-3.20096e-242
3.48611e-242
-5.77166e-251
-6.70103e-241
7.29671e-241
-1.17715e-249
-1.68153e-239
1.83415e-239
-2.10416e-248
-5.03196e-238
5.50886e-238
-4.61372e-247
-1.79196e-236
1.97343e-236
-1.03724e-245
-7.60328e-235
8.44659e-235
-6.1547e-244
-3.86023e-233
4.34225e-233
-2.23164e-242
-2.36215e-231
2.70504e-231
-9.92118e-241
-1.76022e-229
2.0697e-229
-4.69227e-239
-1.6174e-227
1.98316e-227
-3.53908e-238
-1.84437e-225
2.44168e-225
-3.95422e-235
-2.46197e-223
3.95642e-223
1.49368e-233
7.39234e-221
3.23326e-230
-2.03985e-131
-5.74972e-130
-9.67042e-144
-1.00416e-132
-4.02487e-132
-1.69344e-141
-3.3227e-152
1.11924e-132
-1.72404e-148
-1.73192e-205
2.38804e-149
-6.84414e-162
-1.25265e-244
1.09506e-204
-7.87386e-217
-9.94687e-244
1.09561e-243
-4.98425e-252
-1.03604e-242
1.13087e-242
-3.30916e-251
-1.35793e-241
1.47639e-241
-2.65631e-250
-2.18523e-240
2.37329e-240
-4.10402e-249
-4.2508e-239
4.62061e-239
-7.81369e-248
-9.90131e-238
1.07903e-237
-1.29123e-246
-2.74811e-236
3.00787e-236
-2.61689e-245
-9.07138e-235
9.99288e-235
-5.3917e-244
-3.56619e-233
3.96434e-233
-3.02865e-242
-1.67706e-231
1.88815e-231
-1.01347e-240
-9.5038e-230
1.08941e-229
-4.16329e-239
-6.55783e-228
7.71811e-228
-1.81497e-237
-5.57923e-226
6.84629e-226
-1.36714e-236
-5.88979e-224
7.80109e-224
-1.40627e-233
-7.27583e-222
1.16933e-221
2.16266e-232
2.019e-219
7.63925e-229
-1.60701e-131
-5.22077e-130
-6.24774e-144
-1.10774e-132
-2.78674e-132
-5.11357e-142
-1.92822e-148
1.11407e-132
-1.87704e-148
-5.62959e-204
1.73585e-148
-3.77718e-161
-9.86893e-243
3.3239e-203
-2.53699e-215
-7.37227e-242
8.05266e-242
-3.79493e-250
-7.20153e-241
7.8149e-241
-2.37522e-249
-8.83386e-240
9.56484e-240
-1.78635e-248
-1.32835e-238
1.43857e-238
-2.58246e-247
-2.41157e-237
2.6166e-237
-4.61781e-246
-5.23745e-236
5.702e-236
-7.08416e-245
-1.35436e-234
1.48189e-234
-1.33179e-243
-4.16297e-233
4.5867e-233
-2.51946e-242
-1.52329e-231
1.69431e-231
-1.34753e-240
-6.66572e-230
7.51086e-230
-4.17044e-239
-3.51422e-228
4.03213e-228
-1.5845e-237
-2.25561e-226
2.65727e-226
-6.3406e-236
-1.78482e-224
2.19209e-224
-3.69704e-235
-1.7521e-222
2.32228e-222
-4.49732e-232
-2.01208e-220
3.23495e-220
2.12897e-231
5.18643e-218
1.74188e-227
-1.29132e-131
-4.61389e-130
-5.18028e-144
-1.12661e-132
-1.90388e-132
-1.70055e-142
-1.15351e-150
1.0167e-132
-1.91497e-148
-1.21251e-202
1.72432e-148
-4.53275e-161
-6.91704e-241
6.70621e-202
-5.40804e-214
-4.87731e-240
5.2825e-240
-2.56656e-248
-4.48381e-239
4.83692e-239
-1.5186e-247
-5.16605e-238
5.56999e-238
-1.0769e-246
-7.28578e-237
7.8672e-237
-1.45961e-245
-1.23917e-235
1.34194e-235
-2.46366e-244
-2.51902e-234
2.73944e-234
-3.52276e-243
-6.093e-233
6.66377e-233
-6.16564e-242
-1.75086e-231
1.92922e-231
-1.07373e-240
-5.98703e-230
6.6623e-230
-5.49342e-239
-2.44754e-228
2.75989e-228
-1.5767e-237
-1.20524e-226
1.38411e-226
-5.55081e-236
-7.22439e-225
8.51907e-225
-2.03671e-234
-5.33774e-223
6.56188e-223
1.08878e-234
-4.89175e-221
6.48899e-221
-1.30756e-230
-5.24277e-219
8.43431e-219
7.0788e-231
1.26083e-216
3.87294e-226
-1.0942e-131
-3.90088e-130
-4.81879e-144
-1.05853e-132
-1.43898e-132
-6.36723e-143
-6.21968e-149
8.58055e-133
-1.8223e-148
-1.94849e-201
2.07435e-148
-6.0663e-161
-4.36886e-239
1.0123e-200
-8.59077e-213
-2.9164e-238
3.13164e-238
-1.56233e-246
-2.53097e-237
2.71383e-237
-8.76122e-246
-2.74763e-236
2.94971e-236
-5.83246e-245
-3.64624e-235
3.92529e-235
-7.50035e-244
-5.82929e-234
6.29998e-234
-1.20047e-242
-1.11296e-232
1.20887e-232
-1.60593e-241
-2.52675e-231
2.7619e-231
-2.62628e-240
-6.81164e-230
7.50518e-230
-4.22364e-239
-2.18431e-228
2.43153e-228
-2.07468e-237
-8.37166e-227
9.44609e-227
-5.54018e-236
-3.86402e-225
4.44117e-225
-1.81232e-234
-2.17056e-223
2.56194e-223
-6.1015e-233
-1.50266e-221
1.84905e-221
4.29206e-232
-1.29007e-219
1.71285e-219
-3.51413e-229
-1.29488e-217
2.08474e-217
-1.3632e-229
2.91637e-215
8.41512e-225
-1.11491e-131
-3.39554e-130
-4.73789e-144
-8.11738e-133
-2.03081e-132
-2.26e-143
-7.21948e-149
7.05625e-133
-1.45252e-148
-2.49417e-200
2.40858e-148
-7.80939e-161
-2.51403e-237
1.22016e-199
-1.08597e-211
-1.59301e-236
1.69571e-236
-8.65677e-245
-1.30864e-235
1.39455e-235
-4.61105e-244
-1.34236e-234
1.43471e-234
-2.88635e-243
-1.68104e-233
1.804e-233
-3.53893e-242
-2.53366e-232
2.73238e-232
-5.39274e-241
-4.55705e-231
4.94316e-231
-6.77414e-240
-9.74043e-230
1.06396e-229
-1.03889e-238
-2.47102e-228
2.72216e-228
-1.54831e-237
-7.45399e-227
8.29963e-227
-7.32353e-236
-2.68668e-225
3.03314e-225
-1.82579e-234
-1.16594e-223
1.34111e-223
-5.56727e-233
-6.15687e-222
7.27351e-222
-1.72297e-231
-4.00609e-220
4.93425e-220
2.19692e-230
-3.23187e-218
4.29506e-218
-8.83961e-228
-3.0474e-216
4.91054e-216
4.76538e-228
6.44913e-214
1.79228e-223
-6.28432e-131
-2.55839e-130
-1.49117e-142
-5.71121e-133
-1.89834e-131
-8.99542e-146
-9.28186e-149
8.64927e-133
-3.14092e-146
-2.65152e-199
2.76266e-148
-1.06697e-160
-1.33051e-235
1.22409e-198
-1.13928e-210
-8.0219e-235
8.46356e-235
-4.40837e-243
-6.25318e-234
6.62179e-234
-2.23458e-242
-6.07607e-233
6.46445e-233
-1.31715e-241
-7.199e-232
7.70031e-232
-1.5465e-240
-1.02562e-230
1.10355e-230
-2.25175e-239
-1.74244e-229
1.88731e-229
-2.6641e-238
-3.51599e-228
3.83744e-228
-3.8434e-237
-8.41684e-227
9.26958e-227
-5.32463e-236
-2.39506e-225
2.6671e-225
-2.43252e-234
-8.14098e-224
9.19483e-224
-5.68118e-233
-3.33099e-222
3.834e-222
-1.62025e-231
-1.6581e-220
1.96044e-220
-4.62136e-230
-1.01682e-218
1.25355e-218
7.61935e-229
-7.7295e-217
1.02821e-216
-2.10767e-226
-6.86568e-215
1.10735e-214
4.43905e-226
1.36924e-212
3.71041e-222
-1.64925e-130
-6.42946e-131
-4.12734e-140
-7.57502e-133
-3.6059e-132
-2.52025e-145
-5.61473e-151
1.01919e-132
-3.25823e-148
-2.41032e-198
2.75705e-148
-1.18553e-160
-6.52932e-234
1.05214e-197
-1.02149e-209
-3.75386e-233
3.92491e-233
-2.08054e-241
-2.78285e-232
2.92791e-232
-1.00541e-240
-2.56725e-231
2.71851e-231
-5.58791e-240
-2.88447e-230
3.07482e-230
-6.3069e-239
-3.89362e-229
4.17943e-229
-8.80237e-238
-6.2634e-228
6.77331e-228
-9.8372e-237
-1.19607e-226
1.30418e-226
-1.33914e-235
-2.70853e-225
2.98169e-225
-1.73018e-234
-7.2884e-224
8.11624e-224
-7.65206e-233
-2.34212e-222
2.64618e-222
-1.67987e-231
-9.05788e-221
1.04317e-220
-4.49598e-230
-4.26086e-219
5.04159e-219
-1.18521e-228
-2.46874e-217
3.04617e-217
2.34813e-227
-1.77271e-215
2.36033e-215
-4.79622e-225
-1.48698e-213
2.40059e-213
1.90503e-224
2.80181e-211
7.49077e-221
-4.34311e-131
-1.34904e-131
-5.32312e-140
-8.96368e-133
-8.21474e-133
-6.83468e-146
-1.13243e-148
1.02277e-132
-2.5122e-148
-1.91471e-197
3.03122e-148
-1.28099e-160
-2.99254e-232
7.91687e-197
-8.00105e-209
-1.64385e-231
1.70301e-231
-9.167e-240
-1.16128e-230
1.21375e-230
-4.2301e-239
-1.01922e-229
1.07404e-229
-2.22393e-238
-1.08825e-228
1.15595e-228
-2.41638e-237
-1.39482e-227
1.49341e-227
-3.2427e-236
-2.12915e-226
2.2985e-226
-3.42942e-235
-3.85627e-225
4.20031e-225
-4.41513e-234
-8.27922e-224
9.10918e-224
-5.33219e-233
-2.11152e-222
2.35106e-222
-2.28964e-231
-6.42935e-221
7.26555e-221
-4.73939e-230
-2.35549e-219
2.71403e-219
-1.19429e-228
-1.04945e-217
1.24257e-217
-2.92e-227
-5.75789e-216
7.11036e-216
6.6447e-226
-3.91427e-214
5.21645e-214
-1.05043e-223
-3.10761e-212
5.02165e-212
5.76445e-223
5.54494e-210
1.45934e-219
-8.86131e-132
-4.0729e-132
-4.74864e-140
-1.06519e-132
-6.31799e-134
-3.55987e-144
-1.23506e-148
6.24968e-133
-1.97827e-148
-1.35192e-196
3.24426e-148
-1.53563e-160
-1.28913e-230
5.30335e-196
-5.56961e-208
-6.77822e-230
6.95671e-230
-3.79535e-238
-4.57152e-229
4.74578e-229
-1.67498e-237
-3.82437e-228
4.00992e-228
-8.3445e-237
-3.88791e-227
4.11451e-227
-8.75047e-236
-4.7409e-226
5.06236e-226
-1.13222e-234
-6.8808e-225
7.41417e-225
-1.13533e-233
-1.18437e-223
1.28846e-223
-1.38553e-232
-2.41565e-222
2.65599e-222
-1.5681e-231
-5.85102e-221
6.51314e-221
-6.55118e-230
-1.69155e-219
1.91173e-219
-1.28225e-228
-5.8828e-218
6.78073e-218
-3.05152e-227
-2.4875e-216
2.94695e-216
-6.94152e-226
-1.29501e-214
1.60036e-214
1.75579e-224
-8.35164e-213
1.11394e-212
-2.219e-222
-6.28844e-211
1.01708e-210
1.50515e-221
1.06473e-208
2.76416e-218
-2.02255e-132
-2.32741e-132
-4.48945e-140
-6.7905e-133
-5.2228e-135
-4.56452e-140
-3.02474e-148
3.53361e-133
-1.29346e-148
-8.602e-196
3.06356e-148
-2.24286e-160
-5.2493e-229
3.20612e-195
-3.49396e-207
-2.64634e-228
2.69024e-228
-1.48511e-236
-1.70687e-227
1.75965e-227
-6.27609e-236
-1.3634e-226
1.42217e-226
-2.96884e-235
-1.32203e-225
1.39369e-225
-3.00994e-234
-1.53643e-224
1.63597e-224
-3.76436e-233
-2.12408e-223
2.28411e-223
-3.58389e-232
-3.48098e-222
3.78179e-222
-4.15263e-231
-6.75733e-221
7.42356e-221
-4.41012e-230
-1.5573e-219
1.73287e-219
-1.79808e-228
-4.28269e-218
4.84001e-218
-3.33607e-227
-1.41649e-216
1.63311e-216
-7.5195e-226
-5.6951e-215
6.75019e-215
-1.59762e-224
-2.81858e-213
3.48541e-213
4.37702e-223
-1.72762e-211
2.30606e-211
-4.56079e-221
-1.23601e-209
2.00081e-209
3.362e-220
1.9895e-207
5.03372e-217
-1.03272e-132
-1.50653e-132
-3.87677e-141
-3.93235e-133
8.99925e-135
-7.18704e-141
-1.81994e-150
1.88144e-133
-7.77071e-149
-4.98927e-195
3.04536e-148
-2.37354e-160
-2.03084e-227
1.76919e-194
-1.9984e-206
-9.83141e-227
9.89786e-227
-5.52096e-235
-6.07391e-226
6.21726e-226
-2.23663e-234
-4.63992e-225
4.81415e-225
-1.00405e-233
-4.29828e-224
4.51313e-224
-9.87991e-233
-4.76883e-223
5.06263e-223
-1.19641e-231
-6.2903e-222
6.74959e-222
-1.08388e-230
-9.83143e-221
1.0665e-220
-1.19488e-229
-1.81951e-219
1.99699e-219
-1.19299e-228
-3.99661e-218
4.44491e-218
-4.75655e-227
-1.0473e-216
1.18341e-216
-8.38395e-226
-3.29997e-215
3.80514e-215
-1.79427e-224
-1.26371e-213
1.49838e-213
-3.57237e-223
-5.95579e-212
7.36885e-212
1.0394e-221
-3.47552e-210
4.64237e-210
-9.20374e-220
-2.36669e-208
3.8341e-208
6.89339e-219
3.6275e-206
8.91995e-216
-9.384e-133
-7.14773e-133
-1.93944e-142
-2.13416e-133
2.01346e-134
-3.44192e-142
-2.03474e-148
8.40601e-134
-4.00741e-149
-2.6639e-194
4.48196e-148
-2.74904e-160
-7.4995e-226
8.99789e-194
-1.05252e-205
-3.49137e-225
3.48035e-225
-1.95913e-233
-2.06911e-224
2.10252e-224
-7.61433e-233
-1.51389e-223
1.5621e-223
-3.24421e-232
-1.34184e-222
1.40303e-222
-3.10673e-231
-1.42339e-221
1.50634e-221
-3.64875e-230
-1.79413e-220
1.92068e-220
-3.1507e-229
-2.67849e-219
2.90082e-219
-3.30933e-228
-4.73338e-218
5.1894e-218
-3.10842e-227
-9.92505e-217
1.10312e-216
-1.21589e-225
-2.48217e-215
2.80396e-215
-2.03986e-224
-7.4627e-214
8.60525e-214
-4.15488e-223
-2.72629e-212
3.23337e-212
-7.78169e-222
-1.22549e-210
1.51692e-210
2.36398e-220
-6.81924e-209
9.11406e-209
-1.84572e-218
-4.42676e-207
7.17651e-207
1.23953e-217
6.47076e-205
1.51722e-214
-5.55834e-133
-2.60359e-133
-1.20046e-143
-9.67995e-134
2.1237e-134
-1.76855e-143
-2.60474e-148
3.39716e-134
-1.83099e-149
-1.32046e-193
5.53201e-148
-3.47098e-160
-2.65473e-224
4.25318e-193
-5.14858e-205
-1.19012e-223
1.17446e-223
-6.66498e-232
-6.77502e-223
6.83305e-223
-2.4872e-231
-4.75436e-222
4.87796e-222
-1.00419e-230
-4.03767e-221
4.20353e-221
-9.39895e-230
-4.10088e-220
4.32558e-220
-1.07246e-228
-4.94656e-219
5.28241e-219
-8.84241e-228
-7.06406e-218
7.63673e-218
-8.86464e-227
-1.19374e-216
1.30713e-216
-7.84445e-226
-2.39292e-215
2.65751e-215
-3.01635e-224
-5.71979e-214
6.45864e-214
-4.82446e-223
-1.64326e-212
1.89463e-212
-9.37085e-222
-5.73527e-211
6.80291e-211
-1.65609e-220
-2.46246e-209
3.04906e-209
5.18861e-219
-1.3085e-207
1.7497e-207
-3.66485e-217
-8.10937e-206
1.31546e-205
2.04e-216
1.13202e-203
2.51592e-213
-2.22434e-133
-8.0598e-134
-1.64496e-144
-4.00345e-134
7.04199e-135
-2.10779e-144
-2.7513e-148
1.29444e-134
-7.6309e-150
-6.1216e-193
5.53358e-148
-4.11146e-160
-9.04375e-223
1.88218e-192
-2.35666e-204
-3.90903e-222
3.81822e-222
-2.1825e-230
-2.14034e-221
2.14217e-221
-7.82548e-230
-1.44246e-220
1.47131e-220
-2.9949e-229
-1.1753e-219
1.21807e-219
-2.74564e-228
-1.14444e-218
1.20298e-218
-3.0494e-227
-1.3228e-217
1.40891e-217
-2.40279e-226
-1.80945e-216
1.95234e-216
-2.30144e-225
-2.92794e-215
3.20162e-215
-1.919e-224
-5.61854e-214
6.23405e-214
-7.27715e-223
-1.28534e-212
1.45058e-212
-1.11134e-221
-3.53342e-211
4.07296e-211
-2.06263e-220
-1.17979e-209
1.39943e-209
-3.45234e-219
-4.84494e-208
6.00036e-208
1.10247e-217
-2.46184e-206
3.29316e-206
-7.22845e-216
-1.45855e-204
2.36718e-204
2.74745e-215
1.94685e-202
3.99352e-212
-7.3834e-134
-2.35159e-134
-2.96904e-145
-1.61761e-134
2.53146e-135
-3.59544e-145
-2.26711e-148
5.10812e-135
-3.09433e-150
-2.67137e-192
4.3462e-148
-4.10364e-160
-2.97587e-221
7.84778e-192
-1.01594e-203
-1.24165e-220
1.20019e-220
-6.90496e-229
-6.54689e-220
6.50115e-220
-2.38081e-228
-4.24257e-219
4.30135e-219
-8.62716e-228
-3.32058e-218
3.42535e-218
-7.77474e-227
-3.10386e-217
3.25081e-217
-8.41847e-226
-3.44208e-216
3.65597e-216
-6.3475e-225
-4.51564e-215
4.86206e-215
-5.81693e-224
-7.0056e-214
7.6487e-214
-4.57469e-223
-1.28855e-212
1.42818e-212
-1.71384e-221
-2.82481e-211
3.18577e-211
-2.50285e-220
-7.43989e-210
8.57274e-210
-4.44594e-219
-2.3795e-208
2.82216e-208
-7.06672e-218
-9.3581e-207
1.15909e-206
2.28247e-216
-4.55276e-205
6.09171e-205
-1.40198e-214
-2.58186e-203
4.19191e-203
2.80844e-214
3.29904e-201
6.18467e-211
-2.35625e-134
-6.99097e-135
-5.89915e-146
-6.95767e-135
8.9863e-136
-6.64184e-146
-1.79217e-148
2.26082e-135
-1.34382e-150
-1.10346e-191
2.73339e-148
-3.89708e-160
-9.49137e-220
3.09996e-191
-4.14783e-203
-3.82703e-219
3.66008e-219
-2.11808e-227
-1.94544e-218
1.91635e-218
-7.0275e-227
-1.21364e-217
1.22281e-217
-2.41262e-226
-9.13535e-217
9.37794e-217
-2.1406e-225
-8.20662e-216
8.56264e-216
-2.26346e-224
-8.74208e-215
9.25807e-215
-1.63409e-223
-1.10122e-213
1.18304e-213
-1.43387e-222
-1.63993e-212
1.78747e-212
-1.06319e-221
-2.89462e-211
3.20441e-211
-3.94712e-220
-6.08821e-210
6.8605e-210
-5.52033e-219
-1.5381e-208
1.77139e-208
-9.40286e-218
-4.71768e-207
5.5939e-207
-1.42425e-216
-1.77894e-205
2.2033e-205
4.61186e-215
-8.29615e-204
1.1102e-203
-2.64492e-213
-4.50862e-202
7.32219e-202
-3.65639e-214
5.52084e-200
9.089e-210
-7.49712e-135
-2.47191e-135
-1.47289e-146
-3.22362e-135
3.33531e-136
-1.47548e-146
-1.29222e-148
1.01016e-135
-6.42703e-151
-4.33508e-191
1.95467e-148
-3.54235e-160
-2.94401e-218
1.16555e-190
-1.61143e-202
-1.14836e-217
1.08643e-217
-6.32052e-226
-5.6341e-217
5.50427e-217
-2.01931e-225
-3.3873e-216
3.3911e-216
-6.558e-225
-2.45484e-215
2.50737e-215
-5.75032e-224
-2.12177e-214
2.20506e-214
-5.9462e-223
-2.17353e-213
2.29468e-213
-4.11525e-222
-2.63192e-212
2.82066e-212
-3.4618e-221
-3.76646e-211
4.09778e-211
-2.42164e-220
-6.38699e-210
7.0609e-210
-8.92317e-219
-1.2903e-208
1.45255e-208
-1.19685e-217
-3.1303e-207
3.60273e-207
-1.95753e-216
-9.2181e-206
1.09259e-205
-2.83258e-215
-3.33649e-204
4.13167e-204
9.14983e-214
-1.49319e-202
1.9982e-202
-4.97164e-212
-7.78529e-201
1.26454e-200
-1.1047e-211
9.14466e-199
1.29525e-208
-2.79837e-135
-6.80517e-136
-4.57478e-147
-1.25963e-135
1.27878e-136
-4.64552e-147
-1.06032e-148
3.06995e-136
-2.54712e-151
-1.6263e-190
1.6406e-148
-3.16579e-160
-8.90946e-217
4.18777e-190
-5.98066e-202
-3.36535e-216
3.1489e-216
-1.84072e-224
-1.59521e-215
1.54534e-215
-5.66521e-224
-9.25251e-215
9.20195e-215
-1.7404e-223
-6.46281e-214
6.56677e-214
-1.51119e-222
-5.38012e-213
5.56825e-213
-1.53069e-221
-5.30562e-212
5.58305e-212
-1.01608e-220
-6.18231e-211
6.60866e-211
-8.19897e-220
-8.51107e-210
9.24131e-210
-5.40745e-219
-1.38804e-208
1.53217e-208
-1.98426e-217
-2.69621e-207
3.03184e-207
-2.5554e-216
-6.28796e-206
7.23115e-206
-4.02e-215
-1.77965e-204
2.10822e-204
-5.57521e-214
-6.18949e-203
7.66217e-203
1.78279e-212
-2.66102e-201
3.5605e-201
-9.2484e-211
-1.33246e-199
2.16427e-199
-4.22697e-210
1.5027e-197
1.70433e-207
-7.84174e-136
-1.3728e-136
-1.1995e-147
-3.05873e-136
2.94242e-137
-1.30254e-147
-9.62636e-149
4.61034e-137
-6.20222e-152
-5.8452e-190
1.4815e-148
-2.83795e-160
-2.63907e-215
1.44253e-189
-2.12732e-201
-9.66231e-215
8.93984e-215
-5.24852e-223
-4.42935e-214
4.25395e-214
-1.55686e-222
-2.48103e-213
2.45076e-213
-4.51369e-222
-1.67195e-212
1.68969e-212
-3.89823e-221
-1.34193e-211
1.38287e-211
-3.87323e-220
-1.27523e-210
1.3373e-210
-2.46868e-219
-1.43137e-209
1.52589e-209
-1.91304e-218
-1.89756e-208
2.05592e-208
-1.19026e-217
-2.97926e-207
3.28309e-207
-4.35791e-216
-5.56994e-206
6.25525e-206
-5.39306e-215
-1.24998e-204
1.4361e-204
-8.16932e-214
-3.40355e-203
4.02915e-203
-1.08829e-212
-1.13857e-201
1.4088e-201
3.42819e-211
-4.70709e-200
6.29632e-200
-1.72255e-209
-2.26588e-198
3.67983e-198
-1.15804e-208
2.45554e-196
2.09474e-206
-1.56796e-136
-2.57794e-137
-2.47137e-148
-4.24766e-137
5.0691e-138
-2.73301e-148
-9.18011e-149
4.4425e-138
-8.72338e-153
-2.01817e-189
1.37638e-148
-2.58564e-160
-7.67585e-214
4.77632e-189
-7.27096e-201
-2.72648e-213
2.49391e-213
-1.46987e-221
-1.20988e-212
1.15173e-212
-4.20321e-221
-6.55091e-212
6.42589e-212
-1.1494e-220
-4.26329e-211
4.2845e-211
-9.90072e-220
-3.30223e-210
3.3877e-210
-9.66101e-219
-3.02694e-209
3.16277e-209
-5.91512e-218
-3.27592e-208
3.48209e-208
-4.40425e-217
-4.18606e-207
4.52485e-207
-2.58316e-216
-6.33333e-206
6.96631e-206
-9.47124e-215
-1.14073e-204
1.27922e-204
-1.12725e-213
-2.46575e-203
2.8297e-203
-1.64653e-212
-6.46538e-202
7.64723e-202
-2.11371e-211
-2.08229e-200
2.57488e-200
6.5056e-210
-8.28605e-199
1.10786e-198
-3.19318e-208
-3.83815e-197
6.23127e-197
-2.87313e-207
4.00004e-195
2.07946e-205
-2.97676e-137
-4.82698e-138
-4.5528e-149
-5.57302e-138
9.75205e-139
-4.9585e-149
-8.8969e-149
6.99007e-139
-1.15586e-153
-6.70816e-189
1.28461e-148
-2.39567e-160
-2.19933e-212
1.52335e-188
-2.3929e-200
-7.58556e-212
6.85813e-212
-4.05629e-220
-3.26142e-211
3.07666e-211
-1.11863e-219
-1.70858e-210
1.66395e-210
-2.87655e-219
-1.07482e-209
1.07393e-209
-2.48216e-218
-8.04189e-209
8.2114e-209
-2.38301e-217
-7.117e-208
7.40806e-208
-1.40309e-216
-7.43354e-207
7.87694e-207
-1.0049e-215
-9.16431e-206
9.88117e-206
-5.5579e-215
-1.33733e-204
1.46801e-204
-2.04415e-213
-2.32273e-203
2.6005e-203
-2.34205e-212
-4.84034e-202
5.54759e-202
-3.30232e-211