/*--------------------------------*- C++ -*----------------------------------*\
| =========                 |                                                 |
| \\      /  F ield         | OpenFOAM: The Open Source CFD Toolbox           |
|  \\    /   O peration     | Version:  v2012                                 |
|   \\  /    A nd           | Website:  www.openfoam.com                      |
|    \\/     M anipulation  |                                                 |
\*---------------------------------------------------------------------------*/
FoamFile
{
    version     2.0;
    format      ascii;
    class       surfaceScalarField;
    location    "0.5";
    object      phi;
}
// * * * * * * * * * * * * * * * * * * * * * * * * * * * * * * * * * * * * * //

dimensions      [0 3 -1 0 0 0 0];
oriented        oriented;


internalField   nonuniform List<scalar> 
8135
(
-2.02363e-09
-2.68059e-08
-5.34599e-16
-1.29799e-09
-5.86039e-09
-3.76635e-16
-6.32942e-10
1.68234e-08
-8.86703e-17
-4.76725e-10
4.11049e-08
-3.97669e-17
-4.10542e-10
6.65313e-08
-2.65196e-17
-3.81709e-10
9.29956e-08
-1.92172e-17
-3.62129e-10
1.20384e-07
-1.46853e-17
-3.44273e-10
1.48233e-07
-1.11907e-17
-3.25089e-10
1.76154e-07
-1.2099e-17
-3.03411e-10
2.03497e-07
-1.3477e-17
-2.78752e-10
2.29541e-07
-1.07016e-17
-2.51016e-10
2.53427e-07
-8.7167e-18
-2.20397e-10
2.739e-07
-6.69883e-18
-1.87331e-10
2.89609e-07
-9.28275e-18
-1.5251e-10
2.98851e-07
-7.71083e-18
-1.16957e-10
2.99452e-07
-6.72146e-18
-8.2089e-11
2.88813e-07
-5.6344e-18
-4.98799e-11
2.63845e-07
-3.88298e-18
-2.29831e-11
2.20674e-07
-4.88446e-18
-5.14796e-12
1.54801e-07
-3.27037e-18
6.06744e-08
-7.14742e-19
-2.264e-09
-2.70051e-08
-5.39664e-16
-1.91321e-09
-6.21116e-09
-3.82784e-16
-1.55089e-09
1.64611e-08
-1.8633e-16
-1.33708e-09
4.08911e-08
-1.11572e-16
-1.21181e-09
6.6406e-08
-7.81649e-17
-1.14022e-09
9.2924e-08
-5.77002e-17
-1.0854e-09
1.20329e-07
-4.46447e-17
-1.03293e-09
1.48181e-07
-3.37085e-17
-9.75789e-10
1.76097e-07
-3.51284e-17
-9.10909e-10
2.03432e-07
-3.83062e-17
-8.36974e-10
2.29467e-07
-2.87518e-17
-7.5374e-10
2.53344e-07
-2.16345e-17
-6.61829e-10
2.73808e-07
-1.44137e-17
-5.62578e-10
2.8951e-07
-2.25789e-17
-4.58108e-10
2.98747e-07
-1.7747e-17
-3.51517e-10
2.99346e-07
-1.48955e-17
-2.4711e-10
2.88709e-07
-1.19073e-17
-1.50769e-10
2.63749e-07
-6.35404e-18
-7.04392e-11
2.20593e-07
-1.09429e-17
-1.66034e-11
1.54748e-07
-5.2114e-18
6.06578e-08
1.10964e-18
-2.63458e-09
-2.7096e-08
-5.59611e-16
-2.48726e-09
-6.35845e-09
-4.18624e-16
-2.30678e-09
1.62806e-08
-2.64494e-16
-2.12533e-09
4.07097e-08
-1.77351e-16
-1.98651e-09
6.62672e-08
-1.28668e-16
-1.88882e-09
9.28264e-08
-9.69445e-17
-1.80496e-09
1.20245e-07
-7.54027e-17
-1.72034e-09
1.48096e-07
-5.52265e-17
-1.62634e-09
1.76003e-07
-5.42721e-17
-1.51875e-09
2.03325e-07
-5.80813e-17
-1.39577e-09
2.29344e-07
-4.20301e-17
-1.25713e-09
2.53206e-07
-2.95507e-17
-1.10396e-09
2.73655e-07
-1.59398e-17
-9.38554e-10
2.89344e-07
-2.86609e-17
-7.64521e-10
2.98573e-07
-2.05355e-17
-5.87081e-10
2.99168e-07
-1.51349e-17
-4.13451e-10
2.88535e-07
-9.75534e-18
-2.53405e-10
2.63589e-07
-4.33848e-20
-1.19982e-10
2.2046e-07
-8.49206e-18
-2.99325e-11
1.54657e-07
-1.37818e-19
6.06278e-08
4.6121e-18
-3.06934e-09
-2.7091e-08
-5.82814e-16
-3.05245e-09
-6.37531e-09
-4.56243e-16
-2.98944e-09
1.62176e-08
-3.25497e-16
-2.86089e-09
4.05811e-08
-2.34777e-16
-2.73403e-09
6.61404e-08
-1.76188e-16
-2.62468e-09
9.2717e-08
-1.35308e-16
-2.51885e-09
1.2014e-07
-1.0579e-16
-2.4054e-09
1.47983e-07
-7.64272e-17
-2.27611e-09
1.75873e-07
-7.40017e-17
-2.1266e-09
2.03175e-07
-7.75276e-17
-1.95494e-09
2.29172e-07
-5.45844e-17
-1.76105e-09
2.53012e-07
-3.69344e-17
-1.54669e-09
2.7344e-07
-1.74678e-17
-1.31518e-09
2.89113e-07
-3.43582e-17
-1.07164e-09
2.98329e-07
-2.16594e-17
-8.23477e-10
2.9892e-07
-1.31685e-17
-5.8082e-10
2.88292e-07
-5.02901e-18
-3.57292e-10
2.63365e-07
8.40532e-18
-1.70858e-10
2.20274e-07
-3.73101e-18
-4.40998e-11
1.54531e-07
7.41681e-18
6.05837e-08
1.29845e-17
-3.54666e-09
-2.70059e-08
-6.0687e-16
-3.61815e-09
-6.30377e-09
-4.91091e-16
-3.63528e-09
1.62348e-08
-3.7517e-16
-3.56196e-09
4.05079e-08
-2.85039e-16
-3.45874e-09
6.60372e-08
-2.20241e-16
-3.34796e-09
9.26062e-08
-1.72073e-16
-3.22644e-09
1.20018e-07
-1.35245e-16
-3.08756e-09
1.47844e-07
-9.67564e-17
-2.92478e-09
1.75711e-07
-9.34288e-17
-2.73426e-09
2.02985e-07
-9.74144e-17
-2.51437e-09
2.28952e-07
-6.82416e-17
-2.26545e-09
2.52763e-07
-4.571e-17
-1.98999e-09
2.73165e-07
-2.02626e-17
-1.69241e-09
2.88815e-07
-4.11168e-17
-1.37943e-09
2.98016e-07
-2.36697e-17
-1.06062e-09
2.98601e-07
-1.17915e-17
-7.49055e-10
2.87981e-07
-6.89024e-19
-4.62156e-10
2.63078e-07
1.64455e-17
-2.22672e-10
2.20034e-07
8.02238e-19
-5.87918e-11
1.54367e-07
1.4621e-17
6.0525e-08
2.34112e-17
-4.05585e-09
-2.68546e-08
-6.31195e-16
-4.1902e-09
-6.16938e-09
-5.23716e-16
-4.26517e-09
1.63097e-08
-4.17508e-16
-4.24214e-09
4.04849e-08
-3.29067e-16
-4.16647e-09
6.59615e-08
-2.60389e-16
-4.06051e-09
9.25003e-08
-2.06556e-16
-3.9281e-09
1.19886e-07
-1.63277e-16
-3.76679e-09
1.47682e-07
-1.16075e-16
-3.57224e-09
1.75516e-07
-1.13686e-16
-3.34165e-09
2.02754e-07
-1.19205e-16
-3.07401e-09
2.28685e-07
-8.48372e-17
-2.7703e-09
2.52459e-07
-5.80267e-17
-2.43384e-09
2.72829e-07
-2.67657e-17
-2.07023e-09
2.88452e-07
-5.14382e-17
-1.68783e-09
2.97634e-07
-2.89064e-17
-1.29843e-09
2.98212e-07
-1.3192e-17
-9.18029e-10
2.87601e-07
1.27625e-18
-5.67798e-10
2.62728e-07
2.23584e-17
-2.7517e-10
2.19741e-07
3.54428e-18
-7.38339e-11
1.54165e-07
2.00381e-17
6.04511e-08
3.24225e-17
-4.59119e-09
-2.66487e-08
-6.55167e-16
-4.77286e-09
-5.98765e-09
-5.54059e-16
-4.89167e-09
1.64286e-08
-4.54419e-16
-4.9116e-09
4.05049e-08
-3.67785e-16
-4.86302e-09
6.5913e-08
-2.96676e-16
-4.76495e-09
9.24022e-08
-2.38458e-16
-4.62485e-09
1.19746e-07
-1.89567e-16
-4.44346e-09
1.47501e-07
-1.34846e-16
-4.21862e-09
1.75291e-07
-1.35675e-16
-3.9488e-09
2.02484e-07
-1.43973e-16
-3.63388e-09
2.2837e-07
-1.04931e-16
-3.27559e-09
2.52101e-07
-7.40969e-17
-2.87821e-09
2.72431e-07
-3.71015e-17
-2.44861e-09
2.88022e-07
-6.55508e-17
-1.99681e-09
2.97182e-07
-3.78083e-17
-1.53684e-09
2.97752e-07
-1.80439e-17
-1.08763e-09
2.87151e-07
5.44679e-20
-6.74055e-10
2.62314e-07
2.53216e-17
-3.28157e-10
2.19396e-07
3.68822e-18
-8.90949e-11
1.53926e-07
2.29026e-17
6.0362e-08
3.65382e-17
-5.14989e-09
-2.63975e-08
-6.78419e-16
-5.36901e-09
-5.76847e-09
-5.82178e-16
-5.52228e-09
1.65818e-08
-4.87151e-16
-5.57777e-09
4.05604e-08
-4.02131e-16
-5.55356e-09
6.58888e-08
-3.29462e-16
-5.46416e-09
9.23128e-08
-2.67853e-16
-5.31812e-09
1.196e-07
-2.14259e-16
-5.11823e-09
1.47301e-07
-1.53014e-16
-4.86423e-09
1.75037e-07
-1.58701e-16
-4.55588e-09
2.02176e-07
-1.70598e-16
-4.19405e-09
2.28008e-07
-1.27744e-16
-3.78135e-09
2.51688e-07
-9.35284e-17
-3.32314e-09
2.71973e-07
-5.12252e-17
-2.82755e-09
2.87526e-07
-8.36646e-17
-2.30634e-09
2.96661e-07
-5.06982e-17
-1.7758e-09
2.97221e-07
-2.67189e-17
-1.25777e-09
2.86633e-07
-4.6791e-18
-7.80796e-10
2.61837e-07
2.53396e-17
-3.81491e-10
2.18996e-07
1.12863e-18
-1.04489e-10
1.53649e-07
2.31461e-17
6.02575e-08
3.63365e-17
-5.73068e-09
-2.61079e-08
-7.00782e-16
-5.98056e-09
-5.51852e-09
-6.08287e-16
-6.16162e-09
1.67629e-08
-5.16604e-16
-6.24596e-09
4.06448e-08
-4.3293e-16
-6.24245e-09
6.58853e-08
-3.59224e-16
-6.16095e-09
9.22313e-08
-2.94933e-16
-6.00951e-09
1.19448e-07
-2.37352e-16
-5.79199e-09
1.47084e-07
-1.70965e-16
-5.50955e-09
1.74755e-07
-1.82234e-16
-5.16314e-09
2.0183e-07
-1.98214e-16
-4.75466e-09
2.27599e-07
-1.51746e-16
-4.28767e-09
2.51221e-07
-1.14394e-16
-3.76863e-09
2.71454e-07
-6.71054e-17
-3.20705e-09
2.86965e-07
-1.0388e-16
-2.6164e-09
2.9607e-07
-6.5969e-17
-2.01525e-09
2.9662e-07
-3.79646e-17
-1.42835e-09
2.86046e-07
-1.20176e-17
-8.87912e-10
2.61297e-07
2.30292e-17
-4.35063e-10
2.18543e-07
-3.67005e-18
-1.19954e-10
1.53334e-07
2.1196e-17
6.01376e-08
3.46378e-17
-6.33301e-09
-2.57854e-08
-7.22147e-16
-6.60882e-09
-5.24263e-09
-6.32598e-16
-6.81264e-09
1.69668e-08
-5.43411e-16
-6.92003e-09
4.07523e-08
-4.60828e-16
-6.93321e-09
6.58986e-08
-3.86387e-16
-6.85787e-09
9.2156e-08
-3.19952e-16
-6.70066e-09
1.19291e-07
-2.59092e-16
-6.46571e-09
1.46849e-07
-1.88624e-16
-6.15513e-09
1.74444e-07
-2.05126e-16
-5.7709e-09
2.01446e-07
-2.2507e-16
-5.31589e-09
2.27144e-07
-1.7535e-16
-4.79463e-09
2.507e-07
-1.35319e-16
-4.21474e-09
2.70874e-07
-8.35455e-17
-3.58711e-09
2.86337e-07
-1.25124e-16
-2.92696e-09
2.9541e-07
-8.26443e-17
-2.25515e-09
2.95948e-07
-5.08807e-17
-1.59932e-09
2.85391e-07
-2.11274e-17
-9.95319e-10
2.60693e-07
1.7728e-17
-4.88796e-10
2.18037e-07
-9.92362e-18
-1.35451e-10
1.52981e-07
1.76214e-17
6.00021e-08
3.19189e-17
-6.95668e-09
-2.54341e-08
-7.42444e-16
-7.25471e-09
-4.94451e-09
-6.55256e-16
-7.4773e-09
1.71894e-08
-5.67984e-16
-7.60275e-09
4.08778e-08
-4.86269e-16
-7.62865e-09
6.59245e-08
-4.1127e-16
-7.55718e-09
9.20845e-08
-3.43076e-16
-7.39312e-09
1.19127e-07
-2.79363e-16
-7.14039e-09
1.46596e-07
-2.07449e-16
-6.80159e-09
1.74106e-07
-2.26598e-16
-6.37951e-09
2.01024e-07
-2.50303e-16
-5.87794e-09
2.26643e-07
-1.97124e-16
-5.30235e-09
2.50125e-07
-1.54451e-16
-4.66153e-09
2.70233e-07
-9.84591e-17
-3.96775e-09
2.85644e-07
-1.45293e-16
-3.23801e-09
2.9468e-07
-9.87334e-17
-2.49546e-09
2.95206e-07
-6.37051e-17
-1.77062e-09
2.84666e-07
-3.05462e-17
-1.10295e-09
2.60025e-07
1.16488e-17
-5.42632e-10
2.17477e-07
-1.65575e-17
-1.50954e-10
1.52589e-07
1.31841e-17
5.98512e-08
2.83592e-17
-7.60166e-09
-2.50575e-08
-7.6162e-16
-7.91891e-09
-4.62717e-09
-6.76356e-16
-8.15693e-09
1.74274e-08
-5.9058e-16
-8.29615e-09
4.10171e-08
-5.09551e-16
-8.33099e-09
6.59594e-08
-4.34084e-16
-8.26076e-09
9.20143e-08
-3.644e-16
-8.08834e-09
1.18955e-07
-2.98293e-16
-7.817e-09
1.46325e-07
-2.23559e-16
-7.44955e-09
1.73738e-07
-2.4617e-16
-6.98937e-09
2.00563e-07
-2.73305e-16
-6.44104e-09
2.26095e-07
-2.16595e-16
-5.81096e-09
2.49494e-07
-1.71387e-16
-5.10904e-09
2.69531e-07
-1.11419e-16
-4.34898e-09
2.84883e-07
-1.63881e-16
-3.54955e-09
2.93881e-07
-1.13624e-16
-2.73615e-09
2.94392e-07
-7.57269e-17
-1.9422e-09
2.83872e-07
-3.95499e-17
-1.21076e-09
2.59294e-07
7.12117e-18
-5.96532e-10
2.16862e-07
-2.29764e-17
-1.66449e-10
1.52159e-07
8.44974e-18
5.96847e-08
2.43944e-17
-8.26802e-09
-2.46586e-08
-7.79647e-16
-8.60188e-09
-4.29321e-09
-6.95971e-16
-8.85242e-09
1.7678e-08
-6.11377e-16
-9.00168e-09
4.11664e-08
-5.30867e-16
-9.04193e-09
6.59997e-08
-4.54964e-16
-8.9702e-09
9.19426e-08
-3.83968e-16
-8.78755e-09
1.18772e-07
-3.15709e-16
-8.49644e-09
1.46034e-07
-2.37885e-16
-8.09962e-09
1.73341e-07
-2.63647e-16
-7.60086e-09
2.00065e-07
-2.93966e-16
-7.00543e-09
2.25499e-07
-2.33413e-16
-6.32058e-09
2.4881e-07
-1.8553e-16
-5.55736e-09
2.68768e-07
-1.21618e-16
-4.73083e-09
2.84057e-07
-1.79957e-16
-3.86156e-09
2.93012e-07
-1.26331e-16
-2.97719e-09
2.93508e-07
-8.59848e-17
-2.11402e-09
2.83009e-07
-4.72286e-17
-1.31871e-09
2.58499e-07
4.08189e-18
-6.50469e-10
2.16194e-07
-2.87726e-17
-1.81925e-10
1.51691e-07
4.01052e-18
5.95028e-08
2.04913e-17
-8.95583e-09
-2.42397e-08
-7.96533e-16
-9.30397e-09
-3.94496e-09
-7.14173e-16
-9.56441e-09
1.79384e-08
-6.30496e-16
-9.7204e-09
4.13225e-08
-5.50355e-16
-9.76276e-09
6.60421e-08
-4.74012e-16
-9.68678e-09
9.18666e-08
-4.01811e-16
-9.49183e-09
1.18578e-07
-3.31614e-16
-9.17953e-09
1.45721e-07
-2.5049e-16
-8.75236e-09
1.72914e-07
-2.79131e-16
-8.21435e-09
1.99527e-07
-3.12573e-16
-7.57132e-09
2.24856e-07
-2.48045e-16
-6.83134e-09
2.4807e-07
-1.97402e-16
-6.00652e-09
2.67943e-07
-1.2953e-16
-5.11332e-09
2.83164e-07
-1.93882e-16
-4.17402e-09
2.92072e-07
-1.37051e-16
-3.21855e-09
2.92553e-07
-9.44973e-17
-2.28605e-09
2.82076e-07
-5.34719e-17
-1.42676e-09
2.57639e-07
2.20865e-18
-7.04423e-10
2.15472e-07
-3.41596e-17
-1.97379e-10
1.51184e-07
5.59876e-20
5.93054e-08
1.68901e-17
-9.66518e-09
-2.38032e-08
-8.12316e-16
-1.00254e-08
-3.58459e-09
-7.31031e-16
-1.02933e-08
1.82064e-08
-6.48049e-16
-1.04531e-08
4.14823e-08
-5.68133e-16
-1.04945e-08
6.60836e-08
-4.91317e-16
-1.04115e-08
9.17836e-08
-4.17973e-16
-1.02021e-08
1.18368e-07
-3.45934e-16
-9.86696e-09
1.45386e-07
-2.61447e-16
-9.40827e-09
1.72456e-07
-2.92741e-16
-8.83016e-09
1.98949e-07
-3.29407e-16
-8.13893e-09
2.24165e-07
-2.60767e-16
-7.34335e-09
2.47274e-07
-2.07234e-16
-6.4566e-09
2.67057e-07
-1.35298e-16
-5.49645e-09
2.82204e-07
-2.05723e-16
-4.48694e-09
2.91063e-07
-1.45776e-16
-3.46022e-09
2.91526e-07
-1.01179e-16
-2.45827e-09
2.81074e-07
-5.80865e-17
-1.53489e-09
2.56716e-07
2.92988e-19
-7.58382e-10
2.14695e-07
-3.90567e-17
-2.1281e-10
1.50638e-07
-3.10553e-18
5.90926e-08
1.38965e-17
-1.03961e-08
-2.33511e-08
-8.27062e-16
-1.07664e-08
-3.21419e-09
-7.46641e-16
-1.10395e-08
1.84795e-08
-6.6415e-16
-1.12002e-08
4.16431e-08
-5.84312e-16
-1.12377e-08
6.61212e-08
-5.0697e-16
-1.11451e-08
9.1691e-08
-4.32515e-16
-1.0919e-08
1.18142e-07
-3.58765e-16
-1.05593e-08
1.45027e-07
-2.70971e-16
-1.00678e-08
1.71964e-07
-3.04832e-16
-9.44859e-09
1.9833e-07
-3.44936e-16
-8.70842e-09
2.23425e-07
-2.72154e-16
-7.8567e-09
2.46423e-07
-2.15663e-16
-6.90761e-09
2.66108e-07
-1.39576e-16
-5.88023e-09
2.81176e-07
-2.16092e-16
-4.80029e-09
2.89983e-07
-1.53032e-16
-3.70215e-09
2.90428e-07
-1.06449e-16
-2.63063e-09
2.80003e-07
-6.13529e-17
-1.64309e-09
2.55728e-07
-4.14834e-19
-8.12336e-10
2.13864e-07
-4.31748e-17
-2.28218e-10
1.50054e-07
-5.51079e-18
5.88644e-08
1.14679e-17
-1.11487e-08
-2.28855e-08
-8.40853e-16
-1.1527e-08
-2.83579e-09
-7.61095e-16
-1.1803e-08
1.87555e-08
-6.78908e-16
-1.19621e-08
4.18023e-08
-5.99004e-16
-1.19931e-08
6.61523e-08
-5.21063e-16
-1.18882e-08
9.15861e-08
-4.45506e-16
-1.16431e-08
1.17897e-07
-3.70105e-16
-1.1257e-08
1.44641e-07
-2.78972e-16
-1.07312e-08
1.71439e-07
-3.15535e-16
-1.00699e-08
1.97668e-07
-3.59397e-16
-9.27993e-09
2.22635e-07
-2.82542e-16
-8.37147e-09
2.45514e-07
-2.2309e-16
-7.35958e-09
2.65096e-07
-1.42789e-16
-6.26464e-09
2.80081e-07
-2.25412e-16
-5.11404e-09
2.88832e-07
-1.59192e-16
-3.94433e-09
2.89258e-07
-1.10611e-16
-2.80312e-09
2.78862e-07
-6.34538e-17
-1.75132e-09
2.54677e-07
3.53574e-19
-8.66278e-10
2.12979e-07
-4.61415e-17
-2.43604e-10
1.49431e-07
-7.02304e-18
5.86208e-08
9.73923e-18
-1.19229e-08
-2.24083e-08
-8.53785e-16
-1.23071e-08
-2.45143e-09
-7.74496e-16
-1.25838e-08
1.90323e-08
-6.92433e-16
-1.27388e-08
4.19575e-08
-6.12321e-16
-1.27607e-08
6.61742e-08
-5.33711e-16
-1.26411e-08
9.14665e-08
-4.57022e-16
-1.23748e-08
1.17631e-07
-3.79981e-16
-1.19604e-08
1.44226e-07
-2.85405e-16
-1.13988e-08
1.70877e-07
-3.25028e-16
-1.06941e-08
1.96964e-07
-3.73061e-16
-9.85356e-09
2.21794e-07
-2.92197e-16
-8.88768e-09
2.44548e-07
-2.29815e-16
-7.81252e-09
2.64021e-07
-1.45274e-16
-6.64966e-09
2.78919e-07
-2.34057e-16
-5.42815e-09
2.87611e-07
-1.6465e-16
-4.1867e-09
2.88017e-07
-1.14062e-16
-2.97569e-09
2.77651e-07
-6.48035e-17
-1.85957e-09
2.5356e-07
2.23325e-18
-9.20202e-10
2.1204e-07
-4.80006e-17
-2.58969e-10
1.4877e-07
-7.88495e-18
5.83618e-08
8.43969e-18
-1.27186e-08
-2.19217e-08
-8.65966e-16
-1.31067e-08
-2.06316e-09
-7.86957e-16
-1.3382e-08
1.93077e-08
-7.04843e-16
-1.35306e-08
4.21061e-08
-6.24374e-16
-1.35408e-08
6.61846e-08
-5.45015e-16
-1.3404e-08
9.13297e-08
-4.67167e-16
-1.31143e-08
1.17342e-07
-3.88457e-16
-1.26697e-08
1.43782e-07
-2.90003e-16
-1.20708e-08
1.70278e-07
-3.33367e-16
-1.13215e-08
1.96215e-07
-3.86021e-16
-1.04294e-08
2.20902e-07
-3.01329e-16
-9.40535e-09
2.43525e-07
-2.36146e-16
-8.26638e-09
2.62882e-07
-1.47384e-16
-7.03524e-09
2.77688e-07
-2.42406e-16
-5.74258e-09
2.86318e-07
-1.69763e-16
-4.42923e-09
2.86703e-07
-1.17122e-16
-3.14832e-09
2.7637e-07
-6.566e-17
-1.96782e-09
2.5238e-07
5.00951e-18
-9.741e-10
2.11046e-07
-4.88076e-17
-2.74315e-10
1.4807e-07
-8.12908e-18
5.80875e-08
7.71613e-18
-1.35356e-08
-2.14276e-08
-8.77505e-16
-1.39255e-08
-1.67306e-09
-7.98582e-16
-1.41973e-08
1.95795e-08
-7.16251e-16
-1.4337e-08
4.22461e-08
-6.35284e-16
-1.43333e-08
6.61809e-08
-5.55082e-16
-1.41769e-08
9.11733e-08
-4.76028e-16
-1.38616e-08
1.17027e-07
-3.95603e-16
-1.3385e-08
1.43305e-07
-2.93046e-16
-1.27472e-08
1.69641e-07
-3.40654e-16
-1.19521e-08
1.9542e-07
-3.98347e-16
-1.10073e-08
2.19957e-07
-3.09926e-16
-9.92442e-09
2.42442e-07
-2.42031e-16
-8.72112e-09
2.61678e-07
-1.49088e-16
-7.42133e-09
2.76388e-07
-2.50487e-16
-6.05727e-09
2.84954e-07
-1.74644e-16
-4.67186e-09
2.85318e-07
-1.19966e-16
-3.32097e-09
2.75019e-07
-6.62615e-17
-2.07604e-09
2.51135e-07
8.28025e-18
-1.02796e-09
2.09998e-07
-4.90693e-17
-2.89642e-10
1.47332e-07
-8.08117e-18
5.77979e-08
7.1491e-18
-1.43738e-08
-2.09281e-08
-8.88496e-16
-1.47634e-08
-1.28325e-09
-8.09481e-16
-1.50294e-08
1.98455e-08
-7.26769e-16
-1.51581e-08
4.23749e-08
-6.45164e-16
-1.5138e-08
6.61609e-08
-5.64021e-16
-1.49598e-08
9.09951e-08
-4.83712e-16
-1.46168e-08
1.16684e-07
-4.01562e-16
-1.41062e-08
1.42795e-07
-2.94585e-16
-1.34279e-08
1.68962e-07
-3.46988e-16
-1.25857e-08
1.94578e-07
-4.101e-16
-1.15873e-08
2.18959e-07
-3.18156e-16
-1.04448e-08
2.41299e-07
-2.47717e-16
-9.17665e-09
2.6041e-07
-1.50676e-16
-7.80783e-09
2.75019e-07
-2.5858e-16
-6.37213e-09
2.83519e-07
-1.79535e-16
-4.91453e-09
2.8386e-07
-1.22782e-16
-3.49358e-09
2.73598e-07
-6.6747e-17
-2.18421e-09
2.49826e-07
1.20315e-17
-1.08178e-09
2.08896e-07
-4.91156e-17
-3.0495e-10
1.46555e-07
-7.7521e-18
5.74929e-08
6.85983e-18
-1.52327e-08
-2.04255e-08
-8.99026e-16
-1.56199e-08
-8.95906e-10
-8.19744e-16
-1.58779e-08
2.01035e-08
-7.36499e-16
-1.59933e-08
4.24905e-08
-6.54115e-16
-1.59546e-08
6.61223e-08
-5.71933e-16
-1.57523e-08
9.07929e-08
-4.90308e-16
-1.53796e-08
1.16311e-07
-4.06472e-16
-1.48332e-08
1.42248e-07
-2.95694e-16
-1.41129e-08
1.68242e-07
-3.5251e-16
-1.32222e-08
1.93687e-07
-4.21295e-16
-1.21693e-08
2.17906e-07
-3.25865e-16
-1.09664e-08
2.40097e-07
-2.52945e-16
-9.63284e-09
2.59077e-07
-1.51893e-16
-8.19463e-09
2.73581e-07
-2.66478e-16
-6.68706e-09
2.82011e-07
-1.84333e-16
-5.15715e-09
2.82331e-07
-1.25574e-16
-3.66611e-09
2.72107e-07
-6.72263e-17
-2.29229e-09
2.48452e-07
1.58146e-17
-1.13555e-09
2.07739e-07
-4.92239e-17
-3.20237e-10
1.4574e-07
-7.4461e-18
5.71727e-08
6.51055e-18
-1.61119e-08
-1.99219e-08
-9.09173e-16
-1.64944e-08
-5.13234e-10
-8.29464e-16
-1.67422e-08
2.03514e-08
-7.45537e-16
-1.68421e-08
4.25905e-08
-6.62244e-16
-1.67826e-08
6.60628e-08
-5.78923e-16
-1.65542e-08
9.05645e-08
-4.95916e-16
-1.61497e-08
1.15907e-07
-4.10504e-16
-1.55658e-08
1.41664e-07
-2.96395e-16
-1.48019e-08
1.67478e-07
-3.5745e-16
-1.38616e-08
1.92747e-07
-4.3294e-16
-1.27531e-08
2.16798e-07
-3.33223e-16
-1.14891e-08
2.38833e-07
-2.57977e-16
-1.00896e-08
2.57677e-07
-1.53004e-16
-8.58161e-09
2.72073e-07
-2.74409e-16
-7.00197e-09
2.80432e-07
-1.89204e-16
-5.39965e-09
2.80728e-07
-1.28438e-16
-3.83849e-09
2.70546e-07
-6.77198e-17
-2.40026e-09
2.47014e-07
1.96904e-17
-1.18924e-09
2.06528e-07
-4.9384e-17
-3.35501e-10
1.44886e-07
-7.08058e-18
5.68372e-08
6.26153e-18
-1.70109e-08
-1.94197e-08
-9.19012e-16
-1.73864e-08
-1.375e-10
-8.38718e-16
-1.76219e-08
2.05869e-08
-7.53971e-16
-1.7704e-08
4.26729e-08
-6.69641e-16
-1.76216e-08
6.59805e-08
-5.85079e-16
-1.73649e-08
9.03079e-08
-5.00608e-16
-1.69268e-08
1.15469e-07
-4.13587e-16
-1.63036e-08
1.41041e-07
-2.96616e-16
-1.54946e-08
1.66669e-07
-3.61537e-16
-1.45034e-08
1.91756e-07
-4.44532e-16
-1.33384e-08
2.15633e-07
-3.39987e-16
-1.20126e-08
2.37507e-07
-2.62465e-16
-1.05466e-08
2.56211e-07
-1.53657e-16
-8.96859e-09
2.70495e-07
-2.82089e-16
-7.31671e-09
2.7878e-07
-1.93952e-16
-5.64192e-09
2.79053e-07
-1.313e-16
-4.01065e-09
2.68914e-07
-6.82902e-17
-2.50806e-09
2.45511e-07
2.33868e-17
-1.24284e-09
2.05263e-07
-4.88998e-17
-3.50739e-10
1.43994e-07
-6.95174e-18
5.64864e-08
5.78008e-18
-1.79289e-08
-1.89212e-08
-9.28588e-16
-1.82952e-08
2.28998e-10
-8.47569e-16
-1.8516e-08
2.08077e-08
-7.61877e-16
-1.85783e-08
4.27353e-08
-6.76389e-16
-1.84707e-08
6.5873e-08
-5.90487e-16
-1.81839e-08
9.00211e-08
-5.04466e-16
-1.77102e-08
1.14995e-07
-4.15741e-16
-1.70461e-08
1.40377e-07
-2.95307e-16
-1.61906e-08
1.65814e-07
-3.64858e-16
-1.51475e-08
1.90713e-07
-4.54108e-16
-1.3925e-08
2.1441e-07
-3.46371e-16
-1.25367e-08
2.36119e-07
-2.66717e-16
-1.10038e-08
2.54678e-07
-1.54162e-16
-9.3554e-09
2.68847e-07
-2.89755e-16
-7.63113e-09
2.77056e-07
-1.9872e-16
-5.88384e-09
2.77306e-07
-1.34211e-16
-4.18251e-09
2.67213e-07
-6.89108e-17
-2.61565e-09
2.43944e-07
2.69494e-17
-1.29633e-09
2.03944e-07
-4.87725e-17
-3.65947e-10
1.43064e-07
-6.90576e-18
5.61205e-08
5.30763e-18
-1.88651e-08
-1.84288e-08
-9.37949e-16
-1.92198e-08
5.83933e-10
-8.56069e-16
-1.94237e-08
2.10117e-08
-7.6932e-16
-1.9464e-08
4.27758e-08
-6.82563e-16
-1.93294e-08
6.57385e-08
-5.95221e-16
-1.90104e-08
8.97022e-08
-5.07557e-16
-1.84994e-08
1.14485e-07
-4.16968e-16
-1.77928e-08
1.39671e-07
-2.9291e-16
-1.68895e-08
1.64911e-07
-3.67333e-16
-1.57932e-08
1.89617e-07
-4.62204e-16
-1.45125e-08
2.1313e-07
-3.521e-16
-1.3061e-08
2.34667e-07
-2.70369e-16
-1.14608e-08
2.53078e-07
-1.54151e-16
-9.74182e-09
2.67128e-07
-2.97111e-16
-7.94507e-09
2.75259e-07
-2.03313e-16
-6.12528e-09
2.75486e-07
-1.37092e-16
-4.35398e-09
2.65442e-07
-6.96546e-17
-2.72298e-09
2.42313e-07
3.00336e-17
-1.34969e-09
2.0257e-07
-4.90872e-17
-3.81118e-10
1.42095e-07
-7.21851e-18
5.57394e-08
4.50947e-18
-1.98183e-08
-1.79451e-08
-9.47113e-16
-2.01591e-08
9.24965e-10
-8.64257e-16
-2.0344e-08
2.11967e-08
-7.76346e-16
-2.03602e-08
4.27921e-08
-6.88224e-16
-2.01965e-08
6.5575e-08
-5.9935e-16
-1.98436e-08
8.93492e-08
-5.09957e-16
-1.92937e-08
1.13935e-07
-4.17416e-16
-1.85431e-08
1.3892e-07
-2.89192e-16
-1.75908e-08
1.63959e-07
-3.69097e-16
-1.64403e-08
1.88466e-07
-4.69823e-16
-1.51005e-08
2.1179e-07
-3.57424e-16
-1.35853e-08
2.33152e-07
-2.73772e-16
-1.19174e-08
2.5141e-07
-1.53972e-16
-1.01276e-08
2.65338e-07
-3.0441e-16
-8.25833e-09
2.7339e-07
-2.07869e-16
-6.36612e-09
2.73594e-07
-1.39973e-16
-4.52497e-09
2.63601e-07
-7.04449e-17
-2.82999e-09
2.40618e-07
3.28427e-17
-1.40289e-09
2.01143e-07
-4.99267e-17
-3.96246e-10
1.41088e-07
-7.65236e-18
5.53431e-08
3.69636e-18
-2.07876e-08
-1.74725e-08
-9.56104e-16
-2.11121e-08
1.24976e-09
-8.72159e-16
-2.12758e-08
2.13604e-08
-7.82997e-16
-2.12658e-08
4.27824e-08
-6.93423e-16
-2.10712e-08
6.53805e-08
-6.0293e-16
-2.06825e-08
8.89606e-08
-5.11721e-16
-2.00921e-08
1.13345e-07
-4.17105e-16
-1.92963e-08
1.38124e-07
-2.84809e-16
-1.82937e-08
1.62956e-07
-3.70132e-16
-1.70881e-08
1.87261e-07
-4.77453e-16
-1.56885e-08
2.1039e-07
-3.62103e-16
-1.41091e-08
2.31573e-07
-2.76572e-16
-1.23732e-08
2.49674e-07
-1.5326e-16
-1.05125e-08
2.63478e-07
-3.11355e-16
-8.57071e-09
2.71448e-07
-2.12212e-16
-6.60618e-09
2.7163e-07
-1.42806e-16
-4.69537e-09
2.6169e-07
-7.13671e-17
-2.93661e-09
2.3886e-07
3.52597e-17
-1.45589e-09
1.99663e-07
-5.09418e-17
-4.11324e-10
1.40044e-07
-8.46326e-18
5.49318e-08
2.52498e-18
-2.17714e-08
-1.70135e-08
-9.64915e-16
-2.20774e-08
1.55599e-09
-8.79791e-16
-2.22177e-08
2.15007e-08
-7.89298e-16
-2.21796e-08
4.27445e-08
-6.98189e-16
-2.19522e-08
6.51533e-08
-6.06005e-16
-2.15263e-08
8.85347e-08
-5.12913e-16
-2.08939e-08
1.12713e-07
-4.16173e-16
-2.00515e-08
1.37282e-07
-2.79371e-16
-1.89976e-08
1.61903e-07
-3.70618e-16
-1.77361e-08
1.86e-07
-4.8488e-16
-1.62761e-08
2.0893e-07
-3.6645e-16
-1.46321e-08
2.29929e-07
-2.79147e-16
-1.28279e-08
2.4787e-07
-1.52374e-16
-1.08963e-08
2.61546e-07
-3.18178e-16
-8.88199e-09
2.69434e-07
-2.16469e-16
-6.8453e-09
2.69593e-07
-1.45595e-16
-4.86506e-09
2.5971e-07
-7.23029e-17
-3.04278e-09
2.37037e-07
3.76069e-17
-1.50867e-09
1.98128e-07
-5.22008e-17
-4.26341e-10
1.38962e-07
-9.3575e-18
5.45055e-08
1.3551e-18
-2.27683e-08
-1.65706e-08
-9.73537e-16
-2.30534e-08
1.8414e-09
-8.87152e-16
-2.31683e-08
2.16156e-08
-7.9527e-16
-2.31002e-08
4.26767e-08
-7.02556e-16
-2.28385e-08
6.48917e-08
-6.08613e-16
-2.23737e-08
8.80699e-08
-5.13566e-16
-2.1698e-08
1.12037e-07
-4.14605e-16
-2.08078e-08
1.36392e-07
-2.73435e-16
-1.97017e-08
1.60797e-07
-3.70511e-16
-1.83836e-08
1.84682e-07
-4.9182e-16
-1.68626e-08
2.07409e-07
-3.70213e-16
-1.51537e-08
2.28221e-07
-2.8114e-16
-1.32811e-08
2.45998e-07
-1.50964e-16
-1.12785e-08
2.59543e-07
-3.24591e-16
-9.19192e-09
2.67347e-07
-2.20493e-16
-7.08331e-09
2.67485e-07
-1.48329e-16
-5.03391e-09
2.5766e-07
-7.33773e-17
-3.14842e-09
2.35152e-07
3.96744e-17
-1.56119e-09
1.96541e-07
-5.35963e-17
-4.41289e-10
1.37842e-07
-1.06266e-17
5.40642e-08
-1.72958e-19
-2.37765e-08
-1.61463e-08
-9.81939e-16
-2.40386e-08
2.10379e-09
-8.94232e-16
-2.4126e-08
2.17031e-08
-8.00919e-16
-2.40263e-08
4.25771e-08
-7.06538e-16
-2.37285e-08
6.4594e-08
-6.10774e-16
-2.32235e-08
8.7565e-08
-5.13714e-16
-2.25034e-08
1.11318e-07
-4.12501e-16
-2.15644e-08
1.35453e-07
-2.66572e-16
-2.04053e-08
1.59638e-07
-3.6996e-16
-1.90299e-08
1.83307e-07
-4.98389e-16
-1.74476e-08
2.05827e-07
-3.73702e-16
-1.56734e-08
2.26447e-07
-2.82944e-16
-1.37324e-08
2.44057e-07
-1.49399e-16
-1.16589e-08
2.5747e-07
-3.30833e-16
-9.50023e-09
2.65189e-07
-2.24409e-16
-7.32001e-09
2.65304e-07
-1.50999e-16
-5.20181e-09
2.55542e-07
-7.44508e-17
-3.25344e-09
2.33204e-07
4.16666e-17
-1.61341e-09
1.94901e-07
-5.535e-17
-4.56157e-10
1.36684e-07
-1.19706e-17
5.3608e-08
-1.6598e-18
-2.47942e-08
-1.57429e-08
-9.90096e-16
-2.50312e-08
2.34106e-09
-9.01008e-16
-2.50893e-08
2.17613e-08
-8.06237e-16
-2.49562e-08
4.24442e-08
-7.10143e-16
-2.4621e-08
6.4259e-08
-6.12507e-16
-2.40745e-08
8.70185e-08
-5.13359e-16
-2.33088e-08
1.10552e-07
-4.09794e-16
-2.23203e-08
1.34464e-07
-2.59286e-16
-2.11074e-08
1.58425e-07
-3.68867e-16
-1.96743e-08
1.81874e-07
-5.04529e-16
-1.80302e-08
2.04183e-07
-3.76644e-16
-1.61908e-08
2.24607e-07
-2.84194e-16
-1.41814e-08
2.42047e-07
-1.47355e-16
-1.20372e-08
2.55326e-07
-3.36738e-16
-9.80667e-09
2.62958e-07
-2.28114e-16
-7.55518e-09
2.63053e-07
-1.53626e-16
-5.36859e-09
2.53356e-07
-7.56787e-17
-3.35776e-09
2.31193e-07
4.33295e-17
-1.66528e-09
1.93209e-07
-5.74028e-17
-4.70932e-10
1.3549e-07
-1.37001e-17
5.31371e-08
-3.4899e-18
-2.58192e-08
-1.53626e-08
-9.97955e-16
-2.60291e-08
2.55124e-09
-9.07458e-16
-2.60562e-08
2.17885e-08
-8.11207e-16
-2.58882e-08
4.22764e-08
-7.13368e-16
-2.55143e-08
6.38853e-08
-6.13819e-16
-2.49253e-08
8.64295e-08
-5.12521e-16
-2.41132e-08
1.0974e-07
-4.0656e-16
-2.30743e-08
1.33426e-07
-2.51108e-16
-2.18072e-08
1.57158e-07
-3.67368e-16
-2.03159e-08
1.80382e-07
-5.10312e-16
-1.861e-08
2.02477e-07
-3.79335e-16
-1.67052e-08
2.22703e-07
-2.85275e-16
-1.46275e-08
2.3997e-07
-1.45196e-16
-1.24129e-08
2.53111e-07
-3.42587e-16
-1.01109e-08
2.60656e-07
-2.31721e-16
-7.78863e-09
2.60731e-07
-1.5618e-16
-5.53412e-09
2.51101e-07
-7.69045e-17
-3.4613e-09
2.2912e-07
4.48809e-17
-1.71677e-09
1.91464e-07
-5.98027e-17
-4.85602e-10
1.34259e-07
-1.55073e-17
5.26515e-08
-5.2354e-18
-2.68494e-08
-1.50075e-08
-1.00548e-15
-2.70303e-08
2.7325e-09
-9.13548e-16
-2.70249e-08
2.17832e-08
-8.15811e-16
-2.68207e-08
4.20725e-08
-7.16201e-16
-2.64069e-08
6.34717e-08
-6.147e-16
-2.57744e-08
8.57971e-08
-5.11203e-16
-2.49151e-08
1.08881e-07
-4.02742e-16
-2.38253e-08
1.32336e-07
-2.4253e-16
-2.25036e-08
1.55837e-07
-3.65342e-16
-2.09539e-08
1.78833e-07
-5.15645e-16
-1.91861e-08
2.00709e-07
-3.81486e-16
-1.72161e-08
2.20733e-07
-2.85828e-16
-1.50704e-08
2.37824e-07
-1.42605e-16
-1.27857e-08
2.50827e-07
-3.48135e-16
-1.04127e-08
2.58284e-07
-2.35136e-16
-8.02012e-09
2.58338e-07
-1.58697e-16
-5.69825e-09
2.48779e-07
-7.82914e-17
-3.56395e-09
2.26986e-07
4.60542e-17
-1.76782e-09
1.89668e-07
-6.24538e-17
-5.00155e-10
1.32991e-07
-1.7677e-17
5.21513e-08
-7.29848e-18
-2.78822e-08
-1.46796e-08
-1.01261e-15
-2.80326e-08
2.8832e-09
-9.19224e-16
-2.79932e-08
2.17439e-08
-8.20017e-16
-2.77516e-08
4.18311e-08
-7.18631e-16
-2.72971e-08
6.30173e-08
-6.15144e-16
-2.66204e-08
8.51204e-08
-5.09421e-16
-2.57133e-08
1.07975e-07
-3.9843e-16
-2.45722e-08
1.31195e-07
-2.33123e-16
-2.31956e-08
1.5446e-07
-3.62862e-16
-2.15875e-08
1.77225e-07
-5.20594e-16
-1.97578e-08
1.9888e-07
-3.83384e-16
-1.77228e-08
2.18698e-07
-2.86222e-16
-1.55094e-08
2.3561e-07
-1.39925e-16
-1.31551e-08
2.48472e-07
-3.53579e-16
-1.07117e-08
2.5584e-07
-2.38446e-16
-8.24943e-09
2.55876e-07
-1.61135e-16
-5.8608e-09
2.46391e-07
-7.96773e-17
-3.66562e-09
2.2479e-07
4.70792e-17
-1.81839e-09
1.87821e-07
-6.54251e-17
-5.14576e-10
1.31687e-07
-1.99032e-17
5.16368e-08
-9.23259e-18
-2.89152e-08
-1.43805e-08
-1.01933e-15
-2.90336e-08
3.00194e-09
-9.24462e-16
-2.89591e-08
2.16695e-08
-8.23803e-16
-2.86792e-08
4.15515e-08
-7.20637e-16
-2.81832e-08
6.25214e-08
-6.1515e-16
-2.74617e-08
8.43989e-08
-5.07173e-16
-2.65064e-08
1.0702e-07
-3.93582e-16
-2.53138e-08
1.30002e-07
-2.23394e-16
-2.38822e-08
1.53029e-07
-3.59816e-16
-2.22158e-08
1.75559e-07
-5.25077e-16
-2.03244e-08
1.96988e-07
-3.84753e-16
-1.82248e-08
2.16599e-07
-2.86117e-16
-1.59441e-08
2.3333e-07
-1.36833e-16
-1.35208e-08
2.46049e-07
-3.58667e-16
-1.10076e-08
2.53327e-07
-2.41555e-16
-8.4763e-09
2.53345e-07
-1.63537e-16
-6.02162e-09
2.43936e-07
-8.12258e-17
-3.7662e-09
2.22535e-07
4.76949e-17
-1.86843e-09
1.85923e-07
-6.87259e-17
-5.28851e-10
1.30348e-07
-2.24649e-17
5.11079e-08
-1.14484e-17
-2.99457e-08
-1.41117e-08
-1.02562e-15
-3.00309e-08
3.08752e-09
-9.29254e-16
-2.99204e-08
2.1559e-08
-8.27148e-16
-2.96014e-08
4.12329e-08
-7.22202e-16
-2.90633e-08
6.19835e-08
-6.14706e-16
-2.82966e-08
8.36322e-08
-5.04473e-16
-2.7293e-08
1.06016e-07
-3.88301e-16
-2.60488e-08
1.28758e-07
-2.12964e-16
-2.45623e-08
1.51542e-07
-3.56383e-16
-2.28377e-08
1.73834e-07
-5.29216e-16
-2.08851e-08
1.95036e-07
-3.85904e-16
-1.87213e-08
2.14435e-07
-2.85885e-16
-1.6374e-08
2.30983e-07
-1.33678e-16
-1.38822e-08
2.43558e-07
-3.63608e-16
-1.13e-08
2.50745e-07
-2.44545e-16
-8.7005e-09
2.50745e-07
-1.65845e-16
-6.18053e-09
2.41416e-07
-8.27597e-17
-3.8656e-09
2.2022e-07
4.81544e-17
-1.91789e-09
1.83975e-07
-7.24229e-17
-5.42966e-10
1.28973e-07
-2.5056e-17
5.05649e-08
-1.34929e-17
-3.09708e-08
-1.38743e-08
-1.03149e-15
-3.10219e-08
3.13901e-09
-9.33609e-16
-3.08746e-08
2.14118e-08
-8.30048e-16
-3.05161e-08
4.08747e-08
-7.23316e-16
-2.99356e-08
6.14032e-08
-6.13809e-16
-2.91236e-08
8.28203e-08
-5.01328e-16
-2.80717e-08
1.04965e-07
-3.82558e-16
-2.6776e-08
1.27462e-07
-2.02352e-16