/*--------------------------------*- C++ -*----------------------------------*\
| =========                 |                                                 |
| \\      /  F ield         | OpenFOAM: The Open Source CFD Toolbox           |
|  \\    /   O peration     | Version:  v2012                                 |
|   \\  /    A nd           | Website:  www.openfoam.com                      |
|    \\/     M anipulation  |                                                 |
\*---------------------------------------------------------------------------*/
FoamFile
{
    version     2.0;
    format      ascii;
    class       volScalarField;
    location    "0.35";
    object      alpha.water;
}
// * * * * * * * * * * * * * * * * * * * * * * * * * * * * * * * * * * * * * //

dimensions      [0 0 0 0 0 0 0];


internalField   nonuniform List<scalar> 
15860
(
-1.33422e-99
-2.89091e-97
-3.03856e-96
-1.01037e-95
-5.7858e-96
-2.02001e-96
-4.34397e-97
-8.70437e-98
-1.20973e-98
-9.66477e-100
-6.67512e-101
-4.34544e-102
-2.50876e-103
-1.16653e-104
-5.1095e-106
-2.22975e-107
-3.42932e-104
-5.63389e-100
-9.4806e-96
-1.78221e-91
-6.31777e-87
-4.43737e-82
-4.07044e-77
-4.20769e-72
-3.38828e-72
-1.29658e-72
-3.12779e-73
-5.32613e-74
-6.7977e-75
-6.74519e-76
-5.33049e-77
-3.4114e-78
-1.78941e-79
-7.76119e-81
-2.80174e-82
-8.45869e-84
-2.13818e-85
-4.55903e-87
-8.1935e-89
-1.24273e-90
-1.59072e-92
-1.71837e-94
-1.56471e-96
-1.19926e-98
-7.72049e-101
-4.15984e-103
-1.86914e-105
-6.96703e-108
-2.14088e-110
-5.38066e-113
-1.09489e-115
-1.78181e-118
-2.28248e-121
-2.25438e-124
-1.67065e-127
-8.94788e-131
-3.27989e-134
-7.5531e-138
-9.36618e-142
-4.25073e-146
-7.52217e-98
-1.27971e-95
-1.10797e-94
-3.21643e-94
-1.69168e-94
-5.5702e-95
-1.13627e-95
-2.11373e-96
-2.85518e-97
-2.23287e-98
-1.51749e-99
-9.65027e-101
-5.4545e-102
-2.47977e-103
-1.07191e-104
-4.47798e-106
-2.74903e-103
-4.52467e-99
-7.64032e-95
-1.51245e-90
-6.75051e-86
-6.18013e-81
-6.25509e-76
-6.5495e-71
-5.35355e-71
-2.08142e-71
-5.1057e-72
-8.84729e-73
-1.14983e-73
-1.1625e-74
-9.36532e-76
-6.11279e-77
-3.27142e-78
-1.44813e-79
-5.33659e-81
-1.64501e-82
-4.24619e-84
-9.24488e-86
-1.69648e-87
-2.62696e-89
-3.43227e-91
-3.78356e-93
-3.51453e-95
-2.7468e-97
-1.80235e-99
-9.89303e-102
-4.52591e-104
-1.71655e-106
-5.36352e-109
-1.36972e-111
-2.82982e-114
-4.6717e-117
-6.06503e-120
-6.06452e-123
-4.54407e-126
-2.45681e-129
-9.07061e-133
-2.09643e-136
-2.58985e-140
-1.14247e-144
-4.04728e-96
-5.1816e-94
-3.91059e-93
-1.02091e-92
-4.74119e-93
-1.44638e-93
-2.84675e-94
-5.1431e-95
-6.64907e-96
-5.04677e-97
-3.35281e-98
-2.11686e-99
-1.13865e-100
-5.08525e-102
-2.16558e-103
-8.86096e-105
-1.90525e-102
-3.15669e-98
-5.40227e-94
-1.16196e-89
-7.51599e-85
-8.89432e-80
-9.55271e-75
-9.84567e-70
-8.17501e-70
-3.23166e-70
-8.06697e-71
-1.42359e-71
-1.88549e-72
-1.94388e-73
-1.59778e-74
-1.06453e-75
-5.81775e-77
-2.6307e-78
-9.90571e-80
-3.12056e-81
-8.23331e-83
-1.83225e-84
-3.43659e-86
-5.43851e-88
-7.26074e-90
-8.17641e-92
-7.75624e-94
-6.18818e-96
-4.14311e-98
-2.3192e-100
-1.08138e-102
-4.17739e-105
-1.32849e-107
-3.45021e-110
-7.24256e-113
-1.21363e-115
-1.5974e-118
-1.61711e-121
-1.22459e-124
-6.67565e-128
-2.47639e-131
-5.71684e-135
-6.96861e-139
-2.94481e-143
-2.08143e-94
-2.04709e-92
-1.30308e-91
-2.92676e-91
-1.27597e-91
-3.66358e-92
-6.85887e-93
-1.20514e-93
-1.4905e-94
-1.09961e-95
-7.08455e-97
-4.30227e-98
-2.29098e-99
-1.00791e-100
-4.23579e-102
-1.69998e-103
-1.11925e-101
-1.88308e-97
-3.31958e-93
-8.17473e-89
-9.06471e-84
-1.30076e-78
-1.43232e-73
-1.42847e-68
-1.20572e-68
-4.84991e-69
-1.23293e-69
-2.21751e-70
-2.99544e-71
-3.15158e-72
-2.64508e-73
-1.80033e-74
-1.00554e-75
-4.64858e-77
-1.79003e-78
-5.76796e-80
-1.55689e-81
-3.54461e-83
-6.80152e-85
-1.10107e-86
-1.50351e-88
-1.7313e-90
-1.67885e-92
-1.36869e-94
-9.35944e-97
-5.34823e-99
-2.5441e-101
-1.00195e-103
-3.24597e-106
-8.58028e-109
-1.83142e-111
-3.11695e-114
-4.16126e-117
-4.26585e-120
-3.26432e-123
-1.79296e-126
-6.67223e-130
-1.53387e-133
-1.83512e-137
-7.38848e-142
-1.01664e-92
-7.74054e-91
-4.16377e-90
-8.15466e-90
-3.31744e-90
-8.83445e-91
-1.59922e-91
-2.72386e-92
-3.18333e-93
-2.31454e-94
-1.45485e-95
-8.54251e-97
-4.43584e-98
-1.92713e-99
-7.98127e-101
-3.15421e-102
-5.43629e-101
-9.43911e-97
-1.76206e-92
-5.42081e-88
-1.17365e-82
-1.87416e-77
-2.07275e-72
-1.9989e-67
-1.71636e-67
-7.03e-68
-1.82137e-68
-3.34119e-69
-4.60652e-70
-4.94983e-71
-4.24514e-72
-2.95399e-73
-1.68751e-74
-7.98196e-76
-3.14572e-77
-1.03764e-78
-2.86771e-80
-6.68509e-82
-1.31344e-83
-2.17699e-85
-3.04311e-87
-3.58641e-89
-3.55831e-91
-2.967e-93
-2.07416e-95
-1.21101e-97
-5.88234e-100
-2.3639e-102
-7.80812e-105
-2.10243e-107
-4.56635e-110
-7.89838e-113
-1.07009e-115
-1.1112e-118
-8.59279e-122
-4.75367e-125
-1.77292e-128
-4.05135e-132
-4.74411e-136
-1.81505e-140
-4.70121e-91
-2.78882e-89
-1.27441e-88
-2.14571e-88
-8.23853e-89
-2.02569e-89
-3.52826e-90
-5.87044e-91
-6.48278e-92
-4.68191e-93
-2.86776e-94
-1.62733e-95
-8.20546e-97
-3.54218e-98
-1.44625e-99
-5.65144e-101
-2.11805e-100
-3.89958e-96
-8.09436e-92
-3.56991e-87
-1.54795e-81
-2.57408e-76
-2.84262e-71
-2.69564e-66
-2.3563e-66
-9.83445e-67
-2.59861e-67
-4.86555e-68
-6.85165e-69
-7.52449e-70
-6.59909e-71
-4.6981e-72
-2.74704e-73
-1.33043e-74
-5.37028e-76
-1.81475e-77
-5.1391e-79
-1.22761e-80
-2.47156e-82
-4.1976e-84
-6.01159e-86
-7.2572e-88
-7.37333e-90
-6.29343e-92
-4.50159e-94
-2.68777e-96
-1.33426e-98
-5.47585e-101
-1.84562e-103
-5.06614e-106
-1.12049e-108
-1.97101e-111
-2.71145e-114
-2.85332e-117
-2.2302e-120
-1.2426e-123
-4.64255e-127
-1.05359e-130
-1.20622e-134
-4.38169e-139
-2.06589e-89
-9.53387e-88
-3.67994e-87
-5.33495e-87
-1.96166e-87
-4.58975e-88
-7.64352e-89
-1.3385e-89
-1.29183e-90
-9.11409e-92
-5.43789e-93
-2.97637e-94
-1.46543e-95
-6.2958e-97
-2.53331e-98
-9.73322e-100
-6.53457e-100
-1.30925e-95
-3.28064e-91
-2.48954e-86
-1.96057e-80
-3.27622e-75
-3.63451e-70
-3.50032e-65
-3.11696e-65
-1.32657e-65
-3.57749e-66
-6.84175e-67
-9.84759e-68
-1.10607e-68
-9.92662e-70
-7.23543e-71
-4.3333e-72
-2.15039e-73
-8.89652e-75
-3.08206e-76
-8.9496e-78
-2.19225e-79
-4.52614e-81
-7.88255e-83
-1.15748e-84
-1.43239e-86
-1.49145e-88
-1.30414e-90
-9.55217e-93
-5.8371e-95
-2.96374e-97
-1.24318e-99
-4.27897e-102
-1.1983e-104
-2.7008e-107
-4.8349e-110
-6.75768e-113
-7.21017e-116
-5.69849e-119
-3.1984e-122
-1.1971e-125
-2.69773e-129
-3.02009e-133
-1.04277e-137
-8.54455e-88
-3.1052e-86
-1.03237e-85
-1.27036e-85
-4.4694e-86
-9.73691e-87
-1.57013e-87
-2.53719e-88
-2.44703e-89
-1.69214e-90
-9.84046e-92
-5.23074e-93
-2.49695e-94
-1.06727e-95
-4.23774e-97
-1.6066e-98
-1.87841e-99
-3.60786e-95
-1.21961e-90
-1.89288e-85
-2.27948e-79
-3.77564e-74
-4.27871e-69
-4.37208e-64
-3.96903e-64
-1.72376e-64
-4.74783e-65
-9.28087e-66
-1.36633e-66
-1.57066e-67
-1.44348e-68
-1.07795e-69
-6.61693e-71
-3.3668e-72
-1.42861e-73
-5.07723e-75
-1.51277e-76
-3.80251e-78
-8.05624e-80
-1.43973e-81
-2.16914e-83
-2.75371e-85
-2.94054e-87
-2.63607e-89
-1.9786e-91
-1.23836e-93
-6.43596e-96
-2.7613e-98
-9.71316e-101
-2.77715e-103
-6.3832e-106
-1.16372e-108
-1.65364e-111
-1.78998e-114
-1.43124e-117
-8.09598e-121
-3.03681e-124
-6.79922e-128
-7.45154e-132
-2.45192e-136
-3.35932e-86
-9.57228e-85
-2.6961e-84
-2.96519e-84
-9.89616e-85
-1.9335e-85
-3.08682e-86
-4.80619e-87
-4.4146e-88
-3.00782e-89
-1.7028e-90
-8.83713e-92
-4.09505e-93
-1.73854e-94
-6.81893e-96
-2.53441e-97
-1.07017e-98
-8.76863e-95
-4.28669e-90
-1.50587e-84
-2.35597e-78
-3.86166e-73
-4.612e-68
-5.24761e-63
-4.86009e-63
-2.15549e-63
-6.068e-64
-1.21325e-64
-1.82822e-65
-2.15242e-66
-2.02705e-67
-1.5519e-68
-9.77047e-70
-5.10061e-71
-2.22122e-72
-8.10356e-74
-2.47906e-75
-6.39838e-77
-1.39199e-78
-2.55432e-80
-3.95121e-82
-5.14908e-84
-5.64281e-86
-5.18959e-88
-3.99444e-90
-2.56238e-92
-1.36408e-94
-5.99043e-97
-2.15504e-99
-6.29534e-102
-1.47665e-104
-2.74349e-107
-3.96621e-110
-4.35848e-113
-3.52803e-116
-2.01259e-119
-7.57136e-123
-1.68589e-126
-1.8122e-130
-5.70375e-135
-1.24989e-84
-2.80137e-83
-6.69824e-83
-6.62523e-83
-2.06271e-83
-3.8265e-84
-5.73798e-85
-8.78906e-86
-7.57396e-87
-5.06532e-88
-2.81959e-89
-1.43442e-90
-6.44556e-92
-2.71404e-93
-1.05166e-94
-3.82057e-96
-1.33433e-97
-2.10504e-94
-1.37841e-89
-1.1528e-83
-2.10795e-77
-3.43671e-72
-4.5852e-67
-6.04495e-62
-5.71607e-62
-2.59081e-62
-7.46004e-63
-1.52679e-63
-2.35654e-64
-2.84347e-65
-2.74593e-66
-2.1567e-67
-1.39353e-68
-7.46875e-70
-3.34012e-71
-1.25166e-72
-3.93394e-74
-1.04319e-75
-2.33184e-77
-4.39636e-79
-6.98652e-81
-9.35187e-83
-1.05243e-84
-9.93609e-87
-7.84768e-89
-5.16308e-91
-2.81725e-93
-1.26722e-95
-4.66546e-98
-1.39341e-100
-3.33778e-103
-6.32416e-106
-9.30808e-109
-1.03916e-111
-8.52189e-115
-4.90664e-118
-1.85311e-121
-4.10948e-125
-4.34319e-129
-1.31339e-133
-4.33996e-83
-7.70077e-82
-1.56522e-81
-1.39972e-81
-4.0986e-82
-7.28254e-83
-1.02184e-83
-1.50149e-84
-1.23557e-85
-8.17614e-87
-4.48062e-88
-2.19982e-89
-9.73405e-91
-4.01492e-92
-1.53611e-93
-5.5009e-95
-1.86005e-96
-4.80007e-94
-3.65185e-89
-7.80463e-83
-1.58958e-76
-2.60432e-71
-4.34989e-66
-6.67527e-61
-6.44959e-61
-2.98978e-61
-8.81207e-62
-1.84743e-62
-2.92278e-63
-3.61702e-64
-3.58419e-65
-2.8899e-66
-1.91764e-67
-1.05584e-68
-4.85203e-70
-1.86874e-71
-6.03778e-73
-1.64596e-74
-3.78246e-76
-7.33124e-78
-1.1976e-79
-1.64755e-81
-1.9051e-83
-1.84748e-85
-1.4982e-87
-1.01154e-89
-5.6609e-92
-2.60972e-94
-9.83926e-97
-3.00644e-99
-7.35939e-102
-1.423e-104
-2.13382e-107
-2.42196e-110
-2.01389e-113
-1.17144e-116
-4.44689e-120
-9.83812e-124
-1.0252e-127
-2.99352e-132
-1.42235e-81
-1.99802e-80
-3.45335e-80
-2.82596e-80
-7.74032e-81
-1.34306e-81
-1.7498e-82
-2.44183e-83
-1.92256e-84
-1.25294e-85
-6.7442e-87
-3.28461e-88
-1.41451e-89
-5.69819e-91
-2.13405e-92
-7.5098e-94
-2.49244e-95
-8.12076e-94
-6.92283e-89
-4.32789e-82
-9.78267e-76
-1.63648e-70
-4.24507e-65
-7.05649e-60
-6.97207e-60
-3.30817e-60
-9.98853e-61
-2.14672e-61
-3.48388e-62
-4.42499e-63
-4.50251e-64
-3.72932e-65
-2.54305e-66
-1.43931e-67
-6.8008e-69
-2.69368e-70
-8.95179e-72
-2.51017e-73
-5.93365e-75
-1.18297e-76
-1.98751e-78
-2.81168e-80
-3.34247e-82
-3.3313e-84
-2.77529e-86
-1.92405e-88
-1.10499e-90
-5.224e-93
-2.01818e-95
-6.31288e-98
-1.58018e-100
-3.1202e-103
-4.77025e-106
-5.50902e-109
-4.64875e-112
-2.73467e-115
-1.04483e-118
-2.31048e-122
-2.38125e-126
-6.74935e-131
-4.4049e-80
-4.93797e-79
-7.21716e-79
-5.38584e-79
-1.37311e-79
-2.21232e-80
-2.71845e-81
-3.71473e-82
-2.83437e-83
-1.80538e-84
-9.62491e-86
-4.56572e-87
-1.94323e-88
-7.64175e-90
-2.80096e-91
-9.68411e-93
-3.14389e-94
-7.37804e-94
-7.76169e-89
-1.80645e-81
-4.7022e-75
-8.23201e-70
-4.67201e-64
-7.13112e-59
-7.21109e-59
-3.50512e-59
-1.08503e-59
-2.39246e-60
-3.98585e-61
-5.1998e-62
-5.43677e-63
-4.62911e-64
-3.246e-65
-1.88971e-66
-9.18636e-68
-3.74406e-69
-1.28053e-70
-3.69551e-72
-8.99067e-74
-1.84468e-75
-3.18926e-77
-4.64198e-79
-5.67615e-81
-5.81712e-83
-4.98125e-85
-3.54788e-87
-2.09211e-89
-1.01487e-91
-4.01977e-94
-1.28796e-96
-3.2987e-99
-6.65599e-102
-1.0382e-104
-1.2209e-107
-1.04647e-110
-6.23247e-114
-2.40009e-117
-5.3159e-121
-5.43597e-125
-1.50372e-129
-1.27103e-78
-1.14479e-77
-1.42921e-77
-1.04384e-77
-2.36847e-78
-3.45177e-79
-4.14978e-80
-5.64726e-81
-4.07328e-82
-2.54403e-83
-1.32757e-84
-6.14989e-86
-2.56703e-87
-9.80867e-89
-3.50956e-90
-1.18234e-91
-3.74475e-93
-2.50439e-94
-3.42606e-89
-4.99233e-81
-1.65023e-74
-3.15035e-69
-5.92437e-63
-6.8789e-58
-7.12534e-58
-3.55103e-58
-1.12794e-58
-2.55371e-59
-4.37103e-60
-5.86136e-61
-6.30209e-62
-5.51987e-63
-3.98289e-64
-2.38656e-65
-1.19434e-66
-5.01183e-68
-1.76512e-69
-5.24549e-71
-1.31411e-72
-2.77629e-74
-4.94182e-76
-7.40411e-78
-9.31722e-80
-9.82344e-82
-8.65053e-84
-6.33306e-86
-3.83638e-88
-1.91051e-90
-7.76266e-93
-2.5491e-95
-6.68408e-98
-1.37905e-100
-2.19616e-103
-2.63187e-106
-2.29347e-109
-1.38446e-112
-5.38173e-116
-1.19641e-119
-1.21784e-123
-3.30564e-128
-3.43665e-77
-2.53965e-76
-2.61489e-76
-1.68608e-76
-3.72877e-77
-5.06958e-78
-5.91312e-79
-7.05271e-80
-5.31888e-81
-3.26263e-82
-1.64797e-83
-7.5178e-85
-3.20124e-86
-1.18565e-87
-4.2139e-89
-1.4245e-90
-4.14818e-92
-1.19436e-93
-3.17079e-95
-6.81522e-81
-3.74772e-74
-8.45241e-69
-8.07893e-62
-6.32397e-57
-6.71595e-57
-3.4347e-57
-1.12045e-57
-2.60695e-58
-4.58816e-59
-6.32917e-60
-7.00317e-61
-6.31454e-62
-4.6917e-63
-2.89545e-64
-1.49264e-65
-6.4528e-67
-2.34153e-68
-7.16932e-70
-1.85046e-71
-4.02753e-73
-7.3846e-75
-1.13945e-76
-1.47631e-78
-1.60207e-80
-1.45148e-82
-1.09276e-84
-6.80346e-87
-3.47995e-89
-1.45117e-91
-4.88649e-94
-1.31253e-96
-2.77063e-99
-4.50777e-102
-5.50932e-105
-4.88544e-108
-2.99253e-111
-1.17601e-114
-2.62967e-118
-2.67306e-122
-7.15709e-127
-8.68545e-76
-5.13086e-75
-4.57872e-75
-2.65895e-75
-5.50643e-76
-7.28543e-77
-8.02273e-78
-9.42894e-79
-6.70543e-80
-4.04127e-81
-2.00612e-82
-9.01191e-84
-3.72271e-85
-1.32116e-86
-4.55736e-88
-1.50023e-89
-4.28293e-91
-1.19394e-92
-3.03725e-94
-4.81043e-96
-4.11727e-74
-1.36207e-68
-1.09879e-60
-5.53157e-56
-6.02835e-56
-3.16674e-56
-1.06189e-56
-2.54134e-57
-4.60295e-58
-6.5373e-59
-7.44994e-60
-6.92038e-61
-5.29844e-62
-3.37009e-63
-1.79076e-64
-7.98031e-66
-2.98536e-67
-9.42274e-69
-2.50706e-70
-5.62428e-72
-1.06276e-73
-1.68961e-75
-2.25494e-77
-2.51975e-79
-2.34979e-81
-1.82003e-83
-1.16513e-85
-6.12388e-88
-2.62217e-90
-9.05847e-93
-2.49373e-95
-5.38887e-98
-8.96314e-101
-1.11802e-103
-1.00976e-106
-6.28334e-110
-2.5e-113
-5.63467e-117
-5.73751e-121
-1.52299e-125
-2.0405e-74
-9.95708e-74
-7.55778e-74
-4.01031e-74
-7.85105e-75
-9.9724e-76
-1.0197e-76
-1.13391e-77
-7.83719e-79
-4.66555e-80
-2.28387e-81
-9.86446e-83
-4.00302e-84
-1.37656e-85
-4.58457e-87
-1.47563e-88
-4.04706e-90
-1.08826e-91
-2.64016e-93
-2.53982e-95
2.2022e-83
-8.38178e-69
-1.43297e-59
-4.59538e-55
-5.14425e-55
-2.77836e-55
-9.58596e-56
-2.36192e-56
-4.40653e-57
-6.44895e-58
-7.57546e-59
-7.25534e-60
-5.72835e-61
-3.7578e-62
-2.05957e-63
-9.46707e-65
-3.65318e-66
-1.18932e-67
-3.26363e-69
-7.55032e-71
-1.47102e-72
-2.41078e-74
-3.31562e-76
-3.81674e-78
-3.66512e-80
-2.9218e-82
-1.92406e-84
-1.03959e-86
-4.57272e-89
-1.62137e-91
-4.57691e-94
-1.01305e-96
-1.72359e-99
-2.19578e-102
-2.02158e-105
-1.27929e-108
-5.16088e-112
-1.1748e-115
-1.20185e-119
-3.17773e-124
-4.53317e-73
-1.73913e-72
-1.20817e-72
-5.64972e-73
-1.04656e-73
-1.28016e-74
-1.22915e-75
-1.28277e-76
-8.76453e-78
-5.12278e-79
-2.46942e-80
-1.0233e-81
-4.02313e-83
-1.34179e-84
-4.27009e-86
-1.33049e-87
-3.47927e-89
-8.92902e-91
-2.03079e-92
0
-4.97751e-109
9.19162e-69
-1.76604e-58
-3.61913e-54
-4.16571e-54
-2.31548e-54
-8.22812e-55
-2.08929e-55
-4.01885e-56
-6.06624e-57
-7.3516e-58
-7.26541e-59
-5.92001e-60
-4.00826e-61
-2.26747e-62
-1.07576e-63
-4.28463e-65
-1.43957e-66
-4.07649e-68
-9.73054e-70
-1.95563e-71
-3.30528e-73
-4.68664e-75
-5.55999e-77
-5.50007e-79
-4.51455e-81
-3.05931e-83
-1.69994e-85
-7.68417e-88
-2.79771e-90
-8.10188e-93
-1.83769e-95
-3.20009e-98
-4.16645e-101
-3.91343e-104
-2.52113e-107
-1.03265e-110
-2.37864e-114
-2.45158e-118
-6.48518e-123
-9.06909e-72
-2.94953e-71
-1.74015e-71
-7.51233e-72
-1.41875e-72
-1.48079e-73
-1.43557e-74
-1.32113e-75
-9.01215e-77
-5.06385e-78
-2.33757e-79
-9.69287e-81
-3.77528e-82
-1.20086e-83
-3.66242e-85
-1.08193e-86
-2.65946e-88
-6.41365e-90
-1.3279e-91
1.05418e-93
0
9.66493e-68
-2.04557e-57
-2.69664e-53
-3.19481e-53
-1.82954e-53
-6.703e-54
-1.75584e-54
-3.48571e-55
-5.43189e-56
-6.79756e-57
-6.93805e-58
-5.83909e-59
-4.08359e-60
-2.38606e-61
-1.16918e-62
-4.80939e-64
-1.66863e-65
-4.87874e-67
-1.20218e-68
-2.49358e-70
-4.34835e-72
-6.3593e-74
-7.77825e-76
-7.92944e-78
-6.70404e-80
-4.67677e-82
-2.67351e-84
-1.2424e-86
-4.64658e-89
-1.38099e-91
-3.21148e-94
-5.7268e-97
-7.62495e-100
-7.31219e-103
-4.80027e-106
-1.99887e-109
-4.66742e-113
-4.85885e-117
-1.29115e-121
-1.72493e-70
-4.4773e-70
-2.29466e-70
-9.18839e-71
-1.5895e-71
-1.5825e-72
-1.50903e-73
-1.32162e-74
-8.55308e-76
-4.66986e-77
-2.12472e-78
-8.35806e-80
-3.13863e-81
-9.70917e-83
-2.81862e-84
-7.74562e-86
-1.75283e-87
-3.88816e-89
-6.88334e-91
1.33954e-88
4.30414e-96
9.53744e-67
-2.21905e-56
-1.89697e-52
-2.31575e-52
-1.36777e-52
-5.17233e-53
-1.39923e-53
-2.86985e-54
-4.62171e-55
-5.97814e-56
-6.30746e-57
-5.48759e-58
-3.96728e-59
-2.39614e-60
-1.21349e-61
-5.15875e-63
-1.84942e-64
-5.58629e-66
-1.42176e-67
-3.0451e-69
-5.48125e-71
-8.27138e-73
-1.04348e-74
-1.09666e-76
-9.55368e-79
-6.86331e-81
-4.03779e-83
-1.9297e-85
-7.41631e-88
-2.26302e-90
-5.39777e-93
-9.86158e-96
-1.34351e-98
-1.31636e-101
-8.81386e-105
-3.73567e-108
-8.85694e-112
-9.33448e-116
-2.50064e-120
-3.07401e-69
-6.53994e-69
-2.91794e-69
-1.048e-69
-1.70297e-70
-1.6338e-71
-1.49971e-72
-1.24244e-73
-7.71329e-75
-3.99707e-76
-1.758e-77
-6.68388e-79
-2.39611e-80
-6.96383e-82
-1.89742e-83
-4.74596e-85
-9.34448e-87
-1.81751e-88
-2.24789e-90
1.00736e-84
1.9604e-92
8.82199e-66
-2.24649e-55
-1.25697e-51
-1.58291e-51
-9.65403e-52
-3.77256e-52
-1.05518e-52
-2.23846e-53
-3.72946e-54
-4.99135e-55
-5.44921e-56
-4.90545e-57
-3.66923e-58
-2.29254e-59
-1.20084e-60
-5.27949e-62
-1.95697e-63
-6.11048e-65
-1.60716e-66
-3.55607e-68
-6.61035e-70
-1.02972e-71
-1.34038e-73
-1.4528e-75
-1.30454e-77
-9.65427e-80
-5.84717e-82
-2.87476e-84
-1.13571e-86
-3.55929e-89
-8.71102e-92
-1.63124e-94
-2.27513e-97
-2.27901e-100
-1.55763e-103
-6.72704e-107
-1.62184e-110
-1.73407e-114
-4.69805e-119
-4.92217e-68
-9.38886e-68
-3.40589e-68
-1.15417e-68
-1.74987e-69
-1.5284e-70
-1.37699e-71
-1.01853e-72
-6.10187e-74
-3.09663e-75
-1.27361e-76
-4.63e-78
-1.58821e-79
-4.26477e-81
-1.06177e-82
-2.33169e-84
-3.28046e-86
-4.77289e-88
1.49973e-106
1.16639e-82
7.21962e-89
7.60976e-65
-2.11399e-54
-7.82621e-51
-1.0179e-50
-6.41832e-51
-2.59502e-51
-7.51374e-52
-1.65063e-52
-2.8484e-53
-3.94874e-54
-4.46533e-55
-4.16332e-56
-3.22491e-57
-2.08615e-58
-1.13108e-59
-5.14654e-61
-1.97381e-62
-6.37491e-64
-1.73374e-65
-3.96512e-67
-7.61531e-69
-1.22509e-70
-1.64606e-72
-1.84065e-74
-1.70421e-76
-1.29964e-78
-8.10587e-81
-4.10104e-83
-1.66596e-85
-5.36405e-88
-1.3475e-90
-2.5874e-93
-3.69616e-96
-3.78744e-99
-2.64432e-102
-1.1648e-105
-2.85943e-109
-3.10738e-113
-8.53751e-118
-7.35307e-67
-1.07882e-66
-3.67747e-67
-1.15341e-67
-1.49981e-68
-1.34529e-69
-1.03307e-70
-8.04306e-72
-4.59959e-73
-2.26249e-74
-8.77843e-76
-2.90616e-77
-8.21672e-79
-1.95843e-80
-3.77031e-82
-6.12411e-84
-2.23349e-108
5.30968e-91
1.30392e-90
1.0295e-81
2.70526e-85
6.06771e-64
-1.84082e-53
-4.56659e-50
-6.14197e-50
-4.00923e-50
-1.67938e-50
-5.04032e-51
-1.14811e-51
-2.05459e-52
-2.95381e-53
-3.4637e-54
-3.34827e-55
-2.68845e-56
-1.8022e-57
-1.01224e-58
-4.7705e-60
-1.8944e-61
-6.3329e-63
-1.78195e-64
-4.2146e-66
-8.36704e-68
-1.39066e-69
-1.92949e-71
-2.22675e-73
-2.12653e-75
-1.67163e-77
-1.07398e-79
-5.59313e-82
-2.33694e-84
-7.73279e-87
-1.99452e-89
-3.92836e-92
-5.75009e-95
-6.03039e-98
-4.30375e-101
-1.93526e-104
-4.84299e-108
-5.35775e-112
-1.49635e-116
-9.99633e-66
-1.23889e-65
-3.76087e-66
-9.42652e-67
-1.18698e-67
-1.13534e-68
-7.81306e-70
-5.27386e-71
-3.02532e-72
-1.37284e-73
-4.87211e-75
-1.43674e-76
-3.51695e-78
-5.84029e-80
-1.18947e-104
4.78125e-86
1.63258e-85
2.04572e-85
1.53333e-84
1.27321e-81
6.49572e-82
4.41829e-63
-1.47575e-52
-2.49001e-49
-3.46783e-49
-2.34667e-49
-1.01982e-49
-3.17717e-50
-7.51443e-51
-1.39641e-51
-2.08459e-52
-2.53783e-53
-2.54639e-54
-2.12159e-55
-1.47518e-56
-8.5909e-58
-4.19709e-59
-1.72708e-60
-5.98006e-62
-1.74199e-63
-4.26317e-65
-8.75278e-67
-1.50369e-68
-2.15525e-70
-2.56795e-72
-2.53033e-74
-2.05093e-76
-1.35771e-78
-7.28021e-81
-3.12949e-83
-1.06447e-85
-2.81981e-88
-5.69856e-91
-8.54989e-94
-9.18116e-97
-6.70159e-100
-3.07855e-103
-7.86149e-107
-8.86589e-111
-2.52222e-115
-1.25794e-64
-1.29949e-64
-3.51229e-65
-8.13378e-66
-9.50104e-67
-8.40964e-68
-5.62249e-69
-3.45301e-70
-1.81025e-71
-7.56783e-73
-2.26155e-74
-5.5755e-76
-9.43689e-78
-4.26932e-101
4.30171e-82
1.2794e-81
7.66396e-82
7.32345e-82
4.22002e-81
6.57015e-82
3.54929e-80
2.89769e-62
-1.08275e-51
-1.26476e-48
-1.8265e-48
-1.28326e-48
-5.79474e-49
-1.87681e-49
-4.61591e-50
-8.9202e-51
-1.38463e-51
-1.75235e-52
-1.82722e-53
-1.58151e-54
-1.14178e-55
-6.90068e-57
-3.49815e-58
-1.49286e-59
-5.35782e-61
-1.61678e-62
-4.09646e-64
-8.70246e-66
-1.54602e-67
-2.2901e-69
-2.81816e-71
-2.86611e-73
-2.39608e-75
-1.63485e-77
-9.02819e-80
-3.99365e-82
-1.3967e-84
-3.80081e-87
-7.88327e-90
-1.21273e-92
-1.33392e-95
-9.96313e-99
-4.67858e-102
-1.22018e-105
-1.4044e-109
-4.07646e-114
-1.43252e-63
-1.23872e-63
-2.97199e-64
-6.49584e-65
-6.86486e-66
-5.4841e-67
-3.37437e-68
-1.99738e-69
-8.90773e-71
-3.07832e-72
-6.77759e-74
-8.02264e-76
-2.52399e-98
2.09549e-78
5.09473e-78
8.69276e-78
5.73193e-78
4.38608e-78
5.75449e-77
3.54929e-80
2.10496e-70
1.69316e-61
-7.21982e-51
-5.96338e-48
-8.94404e-48
-6.53487e-48
-3.07136e-48
-1.03588e-48
-2.65359e-49
-5.34115e-50
-8.63359e-51
-1.13746e-51
-1.2342e-52
-1.11107e-53
-8.33774e-55
-5.23501e-56
-2.75648e-57
-1.22106e-58
-4.54574e-60
-1.42193e-61
-3.7322e-63
-8.20824e-65
-1.50868e-66
-2.31058e-68
-2.9378e-70
-3.08484e-72
-2.66077e-74
-1.87162e-76
-1.06471e-78
-4.84768e-81
-1.74353e-83
-4.87505e-86
-1.03798e-88
-1.63765e-91
-1.84564e-94
-1.41113e-97
-6.77732e-101
-1.80643e-104
-2.12396e-108
-6.29872e-113
-1.48403e-62
-1.05138e-62
-2.27302e-63
-4.41088e-64
-4.4053e-65
-3.50412e-66
-1.8922e-67
-9.873e-69
-3.56893e-70
-9.32463e-72
1.68848e-91
3.42458e-78
2.05033e-75
7.1571e-75
1.70058e-74
2.87103e-74
1.52956e-74
1.84707e-74
3.19854e-72
1.52065e-76
1.33296e-67
8.85393e-61
-4.33822e-50
-2.59967e-47
-4.05651e-47
-3.08791e-47
-1.51331e-47
-5.32458e-48
-1.42324e-48
-2.98888e-49
-5.03933e-50
-6.92219e-51
-7.827e-52
-7.33839e-53
-5.73076e-54
-3.74213e-55
-2.04913e-56
-9.43077e-58
-3.64458e-59
-1.18258e-60
-3.21754e-62
-7.33014e-64
-1.39462e-65
-2.20935e-67
-2.90355e-69
-3.14901e-71
-2.80314e-73
-2.03331e-75
-1.19181e-77
-5.58638e-80
-2.06665e-82
-5.9384e-85
-1.29818e-87
-2.101e-90
-2.4267e-93
-1.89986e-96
-9.33606e-100
-2.54459e-103
-3.05862e-107
-9.27687e-112
-1.39388e-61
-8.15943e-62
-1.53964e-62
-2.68858e-63
-2.44541e-64
-1.84536e-65
-9.1519e-67
-3.7687e-68
-9.11126e-70
-3.85399e-93
1.54649e-73
1.17942e-72
6.84686e-72
2.59323e-71
6.41215e-71
1.12265e-70
7.87634e-71
5.97642e-71
2.69281e-69
1.74228e-72
1.83115e-66
4.29023e-60
-2.32395e-49
-1.04289e-46
-1.69665e-46
-1.34846e-46
-6.9051e-47
-2.53973e-47
-7.09745e-48
-1.55805e-48
-2.74492e-49
-3.93782e-50
-4.64719e-51
-4.54442e-52
-3.6978e-53
-2.51428e-54
-1.43385e-55
-6.86203e-57
-2.75507e-58
-9.28014e-60
-2.61913e-61
-6.18472e-63
-1.21871e-64
-1.99804e-66
-2.71528e-68
-3.04264e-70
-2.79609e-72
-2.09204e-74
-1.26374e-76
-6.09931e-79
-2.32127e-81
-6.85555e-84
-1.53895e-86
-2.55527e-89
-3.02528e-92
-2.42581e-95
-1.22005e-98
-3.40174e-102
-4.18264e-106
-1.29847e-110
-1.19594e-60
-5.76151e-61
-9.5492e-62
-1.449e-62
-1.20843e-63
-7.8813e-65
-3.32284e-66
-9.65797e-68
-5.53185e-87
1.48058e-69
1.68563e-68
1.08719e-67
6.36169e-67
2.46732e-66
6.10927e-66
1.06425e-65
7.47661e-66
3.73929e-67
4.35588e-67
4.89343e-67
2.38845e-65
1.96559e-59
-1.09393e-48
-3.82744e-46
-6.51055e-46
-5.41676e-46
-2.90527e-46
-1.11959e-46
-3.27835e-47
-7.5384e-48
-1.39046e-48
-2.08711e-49
-2.57522e-50
-2.63078e-51
-2.23352e-52
-1.58524e-53
-9.42152e-55
-4.69178e-56
-1.95876e-57
-6.85517e-59
-2.00848e-60
-4.91931e-62
-1.00457e-63
-1.70531e-65
-2.39746e-67
-2.77678e-69
-2.63516e-71
-2.03422e-73
-1.26666e-75
-6.29585e-78
-2.46529e-80
-7.48423e-83
-1.7254e-85
-2.93944e-88
-3.56764e-91
-2.93033e-94
-1.5087e-97
-4.30443e-101
-5.416e-105
-1.72185e-109
-9.0573e-60
-3.606e-60
-5.15018e-61
-7.02467e-62
-5.17062e-63
-2.62133e-64
-7.91896e-66
-2.76127e-68
2.51692e-67
5.31378e-66
5.95322e-65
3.9315e-64
2.07749e-63
7.26737e-63
1.68887e-62
2.85243e-62
1.67272e-62
3.0727e-62
8.96427e-64
1.53774e-63
4.21474e-64
6.56597e-59
-4.42757e-48
-1.27502e-45
-2.27728e-45
-1.99048e-45
-1.12154e-45
-4.54048e-46
-1.39661e-46
-3.37147e-47
-6.52461e-48
-1.02679e-48
-1.32717e-49
-1.41893e-50
-1.25998e-51
-9.34167e-53
-5.79093e-54
-3.00527e-55
-1.30624e-56
-4.75465e-58
-1.44742e-59
-3.67985e-61
-7.79262e-63
-1.37044e-64
-1.9941e-66
-2.38813e-68
-2.34113e-70
-1.8651e-72
-1.19737e-74
-6.13002e-77
-2.46998e-79
-7.70852e-82
-1.82515e-84
-3.1905e-87
-3.96994e-90
-3.34037e-93
-1.76072e-96
-5.14112e-100
-6.62107e-104
-2.15635e-108
-5.86305e-59
-1.93676e-59
-2.29694e-60
-2.34529e-61
-1.50531e-62
-5.91545e-64
-3.2741e-67
2.52728e-67
1.91704e-65
3.08884e-64
3.54794e-63
2.51942e-62
1.25762e-61
4.04197e-61
8.81662e-61
1.44226e-60
7.59676e-61
5.0767e-59
6.85092e-59
9.65107e-60
1.05033e-62
5.68674e-58
-1.48231e-47
-3.8116e-45
-7.1977e-45
-6.64451e-45
-3.94893e-45
-1.68503e-45
-5.46053e-46
-1.38716e-46
-2.82292e-47
-4.66822e-48
-6.3346e-49
-7.10253e-50
-6.60697e-51
-5.12515e-52
-3.32004e-53
-1.79828e-54
-8.1479e-56
-3.08801e-57
-9.77667e-59
-2.58212e-60
-5.6742e-62
-1.03441e-63
-1.55858e-65
-1.9308e-67
-1.95592e-69
-1.60852e-71
-1.06488e-73
-5.61615e-76
-2.3288e-78
-7.47192e-81
-1.817e-83
-3.25914e-86
-4.15753e-89
-3.58358e-92
-1.93386e-95
-5.7791e-99
-7.61848e-103
-2.54206e-107
-3.10308e-58
-8.87994e-59
-8.93134e-60
-7.27701e-61
-2.93712e-62
-1.59696e-66
0
2.83497e-66
1.31769e-64
1.57088e-63
1.97065e-62
1.44293e-61
7.31115e-61
2.02274e-60
4.14453e-60
6.31419e-60
2.65344e-60
1.98204e-57
1.11713e-55
3.8792e-56
2.86463e-59
8.23375e-54
-3.75374e-47
-1.00404e-44
-2.02925e-44
-1.99593e-44
-1.25875e-44
-5.68608e-45
-1.9483e-45
-5.21996e-46
-1.11962e-46
-1.95054e-47
-2.78592e-48
-3.28393e-49
-3.20748e-50
-2.60868e-51
-1.76922e-52
-1.00183e-53
-4.7387e-55
-1.87226e-56
-6.17128e-58
-1.69473e-59
-3.86754e-61
-7.31323e-63
-1.14163e-64
-1.46359e-66
-1.53262e-68
-1.30144e-70
-8.88658e-73
-4.82877e-75
-2.06075e-77
-6.79775e-80
-1.69778e-82
-3.12463e-85
-4.0861e-88
-3.60769e-91
-1.99303e-94
-6.09514e-98
-8.22426e-102
-2.81131e-106
-1.46887e-57
-3.386e-58
-2.55231e-59
-1.24802e-60
2.78404e-81
1.3773e-62
2.52628e-60
8.62416e-59
3.16543e-57
3.92749e-56
4.25417e-55
3.43418e-54
1.56687e-53
4.48025e-53
8.62689e-53
1.33029e-52
5.13498e-53
4.48522e-57
4.15449e-54
6.74712e-53
1.10435e-55
4.19313e-49
-5.11041e-47
-2.25565e-44
-4.99655e-44
-5.31884e-44
-3.59607e-44
-1.73089e-44
-6.30036e-45
-1.78264e-45
-4.03824e-46
-7.43437e-47
-1.12136e-47
-1.39404e-48
-1.4338e-49
-1.22584e-50
-8.72443e-52
-5.17524e-53
-2.55996e-54
-1.05599e-55
-3.62831e-57
-1.0371e-58
-2.46e-60
-4.82842e-62
-7.81373e-64
-1.03715e-65
-1.12309e-67
-9.85018e-70
-6.93875e-72
-3.88512e-74
-1.70656e-76
-5.78766e-79
-1.48456e-81
-2.80316e-84
-3.7574e-87
-3.39769e-90
-1.9212e-93
-6.0117e-97
-8.30093e-101
-2.90623e-105
-7.83895e-58
-7.75598e-58
-4.1027e-59
2.16531e-79
4.67258e-60
4.88954e-58
6.10777e-56
2.12924e-54
7.27465e-53
9.00055e-52
1.04308e-50
8.39015e-50
3.90638e-49
1.12584e-48
2.24277e-48
3.41976e-48
3.02076e-48
6.4625e-50
1.15138e-53
6.62835e-49
1.58277e-50
3.65974e-46
9.43652e-47
-4.02569e-44
-1.03357e-43
-1.22738e-43
-9.06914e-44
-4.70287e-44
-1.8309e-44
-5.45895e-45
-1.30792e-45
-2.55567e-46
-4.09106e-47
-5.3882e-48
-5.85927e-49
-5.28461e-50
-3.95909e-51
-2.46673e-52
-1.27889e-53
-5.518e-55
-1.97936e-56
-5.8962e-58
-1.45514e-59
-2.96707e-61
-4.98082e-63
-6.84863e-65
-7.67207e-67
-6.95204e-69
-5.05322e-71
-2.91589e-73
-1.31837e-75
-4.59687e-78
-1.21089e-80
-2.34551e-83
-3.22205e-86
-2.98341e-89
-1.72623e-92
-5.52529e-96
-7.80472e-100
-2.79757e-104
-1.06587e-57
-1.59673e-57
1.39976e-78
1.11935e-59
1.71233e-56
1.81796e-54
2.15462e-52
7.92572e-51
2.56347e-49
3.30323e-48
4.01749e-47
3.10478e-46
1.43248e-45
4.15999e-45
8.17846e-45
1.23512e-44
1.07272e-44
7.85373e-45
1.84188e-46
1.01128e-45
5.3054e-47
1.50064e-44
1.57665e-45
-4.55164e-44
-1.64883e-43
-2.33998e-43
-1.96703e-43
-1.12274e-43
-4.7279e-44
-1.46453e-44
-3.71436e-45
-7.771e-46
-1.3323e-46
-1.87319e-47
-2.16691e-48
-2.07233e-49
-1.64135e-50
-1.07806e-51
-5.87582e-53
-2.6583e-54
-9.97458e-56
-3.10135e-57
-7.97327e-59
-1.69057e-60
-2.94619e-62
-4.19894e-64
-4.86836e-66
-4.55931e-68
-3.42037e-70
-2.0343e-72
-9.46798e-75
-3.39399e-77
-9.18036e-80
-1.82393e-82
-2.56723e-85
-2.43339e-88
-1.4403e-91
-4.71384e-95
-6.80857e-99
-2.49729e-103
1.31125e-57
-6.53587e-58
-1.99341e-75
3.35223e-56
6.05045e-53
6.37996e-51
7.70984e-49
3.09245e-47
9.70433e-46
1.20481e-44
8.28841e-44
6.99768e-43
3.25493e-42
9.32559e-42
1.80912e-41
2.67249e-41
2.30792e-41
1.71691e-41
8.95659e-42
2.54175e-42
5.87142e-43
1.33947e-44
1.34842e-45
-1.06953e-53
-1.54145e-43
-3.30292e-43
-3.4746e-43
-2.29265e-43
-1.06738e-43
-3.24045e-44
-8.73695e-45
-2.01087e-45
-3.7715e-46
-5.74495e-47
-7.14462e-48
-7.30356e-49
-6.15531e-50
-4.28451e-51
-2.46543e-52
-1.1735e-53
-4.6182e-55
-1.50184e-56
-4.02854e-58
-8.89292e-60
-1.61037e-61
-2.3806e-63
-2.85819e-65
-2.7675e-67
-2.14334e-69
-1.31412e-71
-6.29613e-74
-2.32028e-76
-6.44387e-79
-1.31288e-81
-1.89291e-84
-1.83612e-87
-1.11129e-90
-3.71713e-94
-5.48687e-98
-2.05794e-102
3.73817e-54
3.64337e-60
1.86607e-56
1.18038e-52
2.1158e-49
2.46883e-47
2.7004e-45
6.34402e-44
2.10451e-42
2.53051e-41
4.31142e-40
3.94369e-39
1.8121e-38
5.31182e-38
1.08853e-37
1.74694e-37
1.63043e-37
1.21452e-37
6.12369e-38
1.5173e-38
1.73679e-39
3.26327e-42
8.18392e-44
2.25043e-45
-2.8121e-52
-2.21845e-43
-4.21544e-43
-3.77484e-43
-2.05072e-43
-4.73953e-44
-1.39432e-44
-4.0337e-45
-8.81743e-46
-1.50471e-46
-2.05223e-47
-2.27285e-48
-2.05903e-49
-1.53106e-50
-9.36018e-52
-4.71031e-53
-1.95142e-54
-6.65603e-56
-1.86675e-57
-4.29697e-59
-8.09475e-61
-1.24228e-62
-1.54546e-64
-1.54785e-66
-1.23791e-68
-7.82536e-71
-3.8598e-73
-1.46226e-75
-4.16897e-78
-8.70846e-81
-1.28576e-83
-1.27581e-86
-7.89202e-90
-2.69643e-93
-4.06492e-97
-1.55778e-101
2.44335e-52
4.08163e-56
6.78253e-53
3.64677e-49
7.72732e-46
4.88599e-44
6.14822e-42
2.80682e-40
1.13022e-38
1.47094e-37
1.7516e-36
1.27767e-35
5.72065e-35
1.62207e-34
3.04838e-34
4.33846e-34
3.59432e-34
2.71183e-34
1.42471e-34
4.67639e-35
3.30253e-36
1.07301e-38
2.83814e-40
8.17003e-42
5.15603e-44
-2.14205e-51
-1.11946e-53
-4.08044e-43
-3.16681e-43
1.28629e-45
5.04026e-47
-4.56555e-45
-1.51734e-45
-3.17397e-46
-4.94907e-47
-6.08208e-48
-6.0213e-49
-4.8428e-50
-3.17559e-51