/*--------------------------------*- C++ -*----------------------------------*\
| =========                 |                                                 |
| \\      /  F ield         | OpenFOAM: The Open Source CFD Toolbox           |
|  \\    /   O peration     | Version:  v2012                                 |
|   \\  /    A nd           | Website:  www.openfoam.com                      |
|    \\/     M anipulation  |                                                 |
\*---------------------------------------------------------------------------*/
FoamFile
{
    version     2.0;
    format      ascii;
    class       surfaceScalarField;
    location    "0.35";
    object      phi;
}
// * * * * * * * * * * * * * * * * * * * * * * * * * * * * * * * * * * * * * //

dimensions      [0 3 -1 0 0 0 0];
oriented        oriented;


internalField   nonuniform List<scalar> 
39020
(
4.97325e-15
-2.96804e-13
2.18687e-16
2.82708e-14
-1.11931e-12
-7.56061e-16
6.68253e-14
-1.98571e-12
8.94259e-16
1.69416e-13
-3.61617e-12
-1.36994e-16
2.60288e-13
-4.35554e-12
-4.89595e-16
4.99753e-13
-7.0373e-12
8.45615e-16
6.69699e-13
-7.67536e-12
1.43669e-15
9.86022e-13
-1.11506e-11
2.07266e-16
1.20925e-12
-1.21251e-11
3.54509e-16
1.49825e-12
-1.59813e-11
-5.83667e-15
1.70751e-12
-1.77776e-11
5.38633e-16
1.94594e-12
-2.17856e-11
2.11234e-15
2.14987e-12
-2.46173e-11
-9.52093e-16
2.40245e-12
-2.88507e-11
1.12404e-16
2.67345e-12
-3.27093e-11
-6.37254e-17
3.02226e-12
-3.7385e-11
1.35191e-18
3.43382e-12
-4.21737e-11
-4.04731e-17
3.93272e-12
-4.74827e-11
1.6806e-16
4.50891e-12
-5.31231e-11
-5.24757e-16
5.16626e-12
-5.91891e-11
-1.37194e-16
5.8947e-12
-6.56598e-11
3.87559e-17
6.69242e-12
-7.25516e-11
-2.19608e-16
7.5504e-12
-7.98613e-11
-1.17974e-16
8.46565e-12
-8.75965e-11
-4.00766e-17
9.43298e-12
-9.57468e-11
-1.50505e-16
1.04492e-11
-1.04307e-10
8.2808e-18
1.15098e-11
-1.13262e-10
-1.09517e-16
1.26101e-11
-1.2258e-10
1.35631e-17
1.37439e-11
-1.32253e-10
-6.13611e-17
1.49038e-11
-1.42222e-10
2.35305e-17
1.60808e-11
-1.5246e-10
-1.37881e-17
1.72649e-11
-1.62915e-10
3.42146e-17
1.8445e-11
-1.73524e-10
1.22921e-17
1.9608e-11
-1.84221e-10
3.25682e-17
2.07391e-11
-1.94931e-10
1.85057e-17
2.18212e-11
-2.05578e-10
1.65677e-17
2.28361e-11
-2.16065e-10
1.30518e-17
2.37651e-11
-2.26302e-10
1.25956e-17
2.45887e-11
-2.36183e-10
1.12713e-17
2.52876e-11
-2.45543e-10
1.06307e-17
2.58422e-11
-2.54405e-10
9.71618e-18
2.62338e-11
-2.62488e-10
9.22574e-18
2.6444e-11
-2.69814e-10
8.69711e-18
2.64561e-11
-2.76147e-10
8.42733e-18
2.62549e-11
-2.81355e-10
8.17794e-18
2.58271e-11
-2.85493e-10
7.95918e-18
2.51633e-11
-2.88178e-10
7.15748e-18
2.4256e-11
-2.89459e-10
7.25879e-18
2.31027e-11
-2.89087e-10
6.96942e-18
2.17047e-11
-2.8695e-10
6.59975e-18
2.00677e-11
-2.82948e-10
6.37463e-18
1.82037e-11
-2.7675e-10
5.76447e-18
1.61305e-11
-2.68196e-10
5.70778e-18
1.38727e-11
-2.57001e-10
5.2146e-18
1.14651e-11
-2.42662e-10
4.68571e-18
8.95567e-12
-2.24397e-10
4.01291e-18
6.41002e-12
-2.00781e-10
3.28559e-18
3.93028e-12
-1.68861e-10
2.78573e-18
1.64281e-12
-1.23207e-10
2.18818e-18
-5.33434e-11
1.00694e-18
5.28092e-15
-3.03538e-13
7.41226e-16
2.52206e-14
-1.13821e-12
-5.77512e-16
7.03036e-14
-2.01914e-12
-5.71256e-15
7.67432e-14
-3.6326e-12
4.73681e-15
1.21033e-13
-4.4031e-12
2.49799e-15
7.18339e-14
-6.98672e-12
-1.20116e-15
1.33301e-13
-7.73634e-12
-5.93814e-16
1.0891e-13
-1.11275e-11
1.56555e-16
1.73638e-13
-1.21878e-11
1.78939e-15
3.36603e-13
-1.61385e-11
-4.64423e-15
5.0262e-13
-1.79364e-11
3.52086e-15
8.63677e-13
-2.21521e-11
2.20118e-15
1.20111e-12
-2.49469e-11
-9.84524e-16
1.71022e-12
-2.93635e-11
-1.75273e-16
2.1896e-12
-3.31895e-11
-2.38139e-16
2.76955e-12
-3.79653e-11
4.93455e-18
3.34308e-12
-4.27481e-11
-2.11777e-16
3.97401e-12
-4.81129e-11
9.59218e-17
4.62677e-12
-5.3776e-11
3.067e-16
5.33126e-12
-5.98931e-11
-1.70318e-16
6.08027e-12
-6.64082e-11
-2.43224e-16
6.88355e-12
-7.33549e-11
2.83583e-17
7.73978e-12
-8.07173e-11
-1.3733e-16
8.65055e-12
-8.85076e-11
-2.26567e-17
9.61335e-12
-9.67098e-11
-1.10247e-16
1.06259e-11
-1.0532e-10
-2.70909e-17
1.1684e-11
-1.14321e-10
-8.66301e-17
1.27826e-11
-1.23679e-10
-2.24291e-17
1.39154e-11
-1.33386e-10
-4.51543e-17
1.50744e-11
-1.43382e-10
3.81889e-18
1.62504e-11
-1.53637e-10
4.19932e-18
1.74333e-11
-1.64098e-10
3.21635e-17
1.86115e-11
-1.74702e-10
3.18414e-17
1.9772e-11
-1.85381e-10
3.50742e-17
2.08997e-11
-1.96058e-10
2.61484e-17
2.19778e-11
-2.06656e-10
2.11119e-17
2.2988e-11
-2.17075e-10
1.72409e-17
2.39117e-11
-2.27226e-10
1.4617e-17
2.47293e-11
-2.37001e-10
1.24651e-17
2.54215e-11
-2.46235e-10
1.04291e-17
2.59688e-11
-2.54952e-10
9.03552e-18
2.63524e-11
-2.62872e-10
8.21661e-18
2.65539e-11
-2.70016e-10
7.73612e-18
2.65568e-11
-2.7615e-10
7.85238e-18
2.63459e-11
-2.81144e-10
8.06582e-18
2.5908e-11
-2.85055e-10
8.10872e-18
2.52337e-11
-2.87504e-10
7.96039e-18
2.43157e-11
-2.88541e-10
8.04333e-18
2.31516e-11
-2.87923e-10
7.71278e-18
2.17428e-11
-2.85541e-10
7.00075e-18
2.0095e-11
-2.813e-10
6.48682e-18
1.82204e-11
-2.74875e-10
6.03347e-18
1.61365e-11
-2.66113e-10
5.94186e-18
1.38681e-11
-2.54733e-10
5.46692e-18
1.14498e-11
-2.40244e-10
4.92869e-18
8.92922e-12
-2.21876e-10
4.32986e-18
6.37163e-12
-1.98224e-10
3.62996e-18
3.87874e-12
-1.66368e-10
3.23922e-18
1.57987e-12
-1.20908e-10
2.49442e-18
-5.17636e-11
1.29712e-18
7.18478e-15
-3.10812e-13
5.09688e-17
8.26741e-15
-1.1418e-12
1.25918e-15
9.69935e-14
-2.13005e-12
1.09773e-14
7.59245e-14
-3.59087e-12
-1.07571e-14
4.11441e-13
-4.70697e-12
-1.54939e-14
4.16476e-13
-7.0289e-12
1.88257e-14
7.94031e-13
-8.10559e-12
-6.07875e-15
1.02117e-12
-1.13556e-11
1.69503e-15
1.33083e-12
-1.24915e-11
-1.19566e-16
1.65498e-12
-1.64723e-11
2.55491e-15
1.87716e-12
-1.8151e-11
5.20074e-16
2.20288e-12
-2.24859e-11
-4.39177e-15
2.38426e-12
-2.51238e-11
1.32043e-15
2.70817e-12
-2.96933e-11
8.40152e-16
2.96257e-12
-3.34435e-11
-8.6214e-16
3.35559e-12
-3.83593e-11
4.04356e-16
3.76162e-12
-4.31553e-11
-1.70951e-16
4.28084e-12
-4.86306e-11
1.34428e-16
4.85671e-12
-5.4351e-11
-1.38614e-16
5.5164e-12
-6.05536e-11
1.59451e-16
6.24082e-12
-6.71336e-11
2.19412e-16
7.03693e-12
-7.41511e-11
-1.49075e-16
7.89403e-12
-8.1575e-11
7.91847e-17
8.81189e-12
-8.94257e-11
-5.96983e-17
9.78462e-12
-9.76829e-11
2.36165e-17
1.08089e-11
-1.06344e-10
-3.95013e-17
1.18793e-11
-1.15391e-10
1.5735e-17
1.29904e-11
-1.2479e-10
-1.74743e-17
1.41352e-11
-1.3453e-10
2.15988e-17
1.53056e-11
-1.44552e-10
1.48509e-17
1.64919e-11
-1.54823e-10
4.00201e-17
1.76838e-11
-1.6529e-10
4.08342e-17
1.88691e-11
-1.75887e-10
4.8594e-17
2.00345e-11
-1.86546e-10
3.99317e-17
2.11649e-11
-1.97188e-10
3.24596e-17
2.22436e-11
-2.07734e-10
2.45568e-17
2.32524e-11
-2.18084e-10
1.9631e-17
2.41728e-11
-2.28146e-10
1.6015e-17
2.49851e-11
-2.37813e-10
1.27283e-17
2.56701e-11
-2.4692e-10
9.64671e-18
2.62081e-11
-2.5549e-10
7.76855e-18
2.65804e-11
-2.63244e-10
6.84565e-18
2.67688e-11
-2.70204e-10
6.5827e-18
2.67566e-11
-2.76138e-10
7.31955e-18
2.65291e-11
-2.80916e-10
8.3131e-18
2.60731e-11
-2.84599e-10
8.95616e-18
2.53796e-11
-2.8681e-10
9.26698e-18
2.44415e-11
-2.87603e-10
9.68142e-18
2.32565e-11
-2.86738e-10
9.12842e-18
2.18264e-11
-2.84111e-10
8.00714e-18
2.01569e-11
-2.7963e-10
7.25248e-18
1.82605e-11
-2.72979e-10
6.6647e-18
1.61549e-11
-2.64007e-10
6.50437e-18
1.38648e-11
-2.52443e-10
5.94841e-18
1.14248e-11
-2.37804e-10
5.2976e-18
8.88248e-12
-2.19334e-10
4.57418e-18
6.30322e-12
-1.95644e-10
3.79055e-18
3.79096e-12
-1.63856e-10
3.32292e-18
1.49643e-12
-1.18613e-10
2.48695e-18
-5.02671e-11
1.31894e-18
7.56756e-15
-3.18515e-13
7.50523e-17
1.59304e-14
-1.15065e-12
1.89634e-16
7.50203e-14
-2.20541e-12
8.30238e-15
1.74242e-14
-3.51653e-12
-8.90954e-15
2.14863e-13
-4.8798e-12
-1.11992e-14
6.59575e-15
-6.85115e-12
1.60173e-14
1.78384e-13
-8.26563e-12
-8.11619e-15
7.10797e-14
-1.1246e-11
-8.81895e-16
2.11797e-13
-1.26257e-11
-1.76131e-15
3.43336e-13
-1.66053e-11
5.28931e-17
5.25138e-13
-1.83264e-11
6.72408e-16
9.19596e-13
-2.28893e-11
-3.46762e-15
1.2469e-12
-2.54454e-11
9.95761e-16
1.80991e-12
-3.02612e-11
6.87436e-17
2.30084e-12
-3.39345e-11
-8.45547e-16
2.93437e-12
-3.89946e-11
2.67177e-17
3.53634e-12
-4.37596e-11
-4.83189e-16
4.21263e-12
-4.93059e-11
6.16415e-17
4.8972e-12
-5.50365e-11
1.8622e-16
5.63368e-12
-6.12901e-11
-1.71952e-16
6.40743e-12
-6.7907e-11
-2.52111e-16
7.2344e-12
-7.49786e-11
8.30021e-17
8.11259e-12
-8.24532e-11
-1.33832e-16
9.04657e-12
-9.03599e-11
-1.75189e-17
1.00336e-11
-9.867e-11
-5.54653e-17
1.1072e-11
-1.07383e-10
5.91363e-18
1.21567e-11
-1.16476e-10
-8.00051e-18
1.32824e-11
-1.25915e-10
3.32801e-17
1.44417e-11
-1.35689e-10
2.46618e-17
1.56262e-11
-1.45736e-10
5.34289e-17
1.6826e-11
-1.56022e-10
4.87563e-17
1.80299e-11
-1.66493e-10
6.13675e-17
1.92253e-11
-1.77082e-10
5.38142e-17
2.03984e-11
-1.87719e-10
5.10951e-17
2.15338e-11
-1.98323e-10
3.7593e-17
2.26147e-11
-2.08815e-10
2.84001e-17
2.36232e-11
-2.19092e-10
2.16574e-17
2.45405e-11
-2.29064e-10
1.71086e-17
2.53469e-11
-2.3862e-10
1.30743e-17
2.60231e-11
-2.47596e-10
9.0289e-18
2.65493e-11
-2.56017e-10
6.69816e-18
2.69069e-11
-2.63601e-10
5.50706e-18
2.70776e-11
-2.70375e-10
5.2538e-18
2.70451e-11
-2.76105e-10
6.33952e-18
2.67948e-11
-2.80666e-10
7.82171e-18
2.63138e-11
-2.84119e-10
8.81073e-18
2.55934e-11
-2.8609e-10
9.33867e-18
2.46269e-11
-2.86636e-10
9.6515e-18
2.34123e-11
-2.85523e-10
8.70279e-18
2.19517e-11
-2.8265e-10
7.18083e-18
2.02513e-11
-2.7793e-10
6.12212e-18
1.83237e-11
-2.71051e-10
5.49068e-18
1.61869e-11
-2.6187e-10
5.37567e-18
1.38659e-11
-2.50122e-10
4.92768e-18
1.13954e-11
-2.35333e-10
4.3363e-18
8.82346e-12
-2.16762e-10
3.69672e-18
6.21698e-12
-1.93038e-10
2.93047e-18
3.6854e-12
-1.61324e-10
2.57046e-18
1.41054e-12
-1.16338e-10
1.82591e-18
-4.88566e-11
6.03169e-19
7.4948e-15
-3.26306e-13
1.60253e-16
1.39026e-14
-1.15805e-12
4.34646e-16
1.04483e-13
-2.31294e-12
8.50463e-15
8.20217e-14
-3.47728e-12
-8.34408e-15
4.05183e-13
-5.17886e-12
-1.1521e-14
3.91293e-13
-6.87769e-12
1.91798e-14
7.58534e-13
-8.62932e-12
-5.18903e-15
9.89683e-13
-1.14879e-11
7.31601e-15
1.32756e-12
-1.29363e-11
-9.03335e-15
1.62001e-12
-1.69125e-11
6.7472e-15
1.96584e-12
-1.8664e-11
-1.00711e-15
2.28672e-12
-2.32193e-11
-8.88631e-16
2.57719e-12
-2.57282e-11
8.22345e-16
2.91543e-12
-3.06065e-11
8.15683e-16
3.23166e-12
-3.425e-11
-9.57805e-16
3.64359e-12
-3.94101e-11
4.10796e-16
4.08015e-12
-4.41992e-11
-5.59302e-16
4.62114e-12
-4.98462e-11
4.18357e-16
5.22045e-12
-5.56356e-11
-4.07194e-16
5.90491e-12
-6.19758e-11
1.34311e-17
6.65548e-12
-6.86588e-11
8.81017e-17
7.48011e-12
-7.58038e-11
-2.33451e-16
8.36716e-12
-8.33411e-11
-3.81787e-17
9.31732e-12
-9.13105e-11
-9.1981e-17
1.03239e-11
-9.96767e-11
-1.79549e-17
1.13836e-11
-1.08442e-10
-8.39924e-18
1.24902e-11
-1.17582e-10
3.3415e-17
1.36375e-11
-1.27062e-10
3.76931e-17
1.4818e-11
-1.36869e-10
6.25043e-17
1.60228e-11
-1.4694e-10
6.36936e-17
1.72414e-11
-1.5724e-10
7.38865e-17
1.84623e-11
-1.67714e-10
6.74827e-17
1.96723e-11
-1.78291e-10
6.57004e-17
2.0857e-11
-1.88903e-10
5.41153e-17
2.20006e-11
-1.99467e-10
4.26552e-17
2.30862e-11
-2.099e-10
3.02523e-17
2.40957e-11
-2.20102e-10
2.21268e-17
2.50103e-11
-2.29978e-10
1.71616e-17
2.58103e-11
-2.3942e-10
1.25386e-17
2.64762e-11
-2.48262e-10
8.02439e-18
2.69881e-11
-2.56529e-10
5.37532e-18
2.73274e-11
-2.63941e-10
4.12605e-18
2.74762e-11
-2.70524e-10
3.90698e-18
2.74181e-11
-2.76047e-10
5.38232e-18
2.7139e-11
-2.80387e-10
7.35591e-18
2.66263e-11
-2.83606e-10
8.74885e-18
2.58717e-11
-2.85335e-10
9.57134e-18
2.48689e-11
-2.85633e-10
9.9116e-18
2.36165e-11
-2.84271e-10
8.75741e-18
2.2117e-11
-2.81151e-10
6.82986e-18
2.03771e-11
-2.7619e-10
5.64801e-18
1.84097e-11
-2.69084e-10
5.00364e-18
1.62333e-11
-2.59694e-10
4.97316e-18
1.38733e-11
-2.47762e-10
4.61233e-18
1.13651e-11
-2.32825e-10
4.07756e-18
8.75772e-12
-2.14155e-10
3.45834e-18
6.12111e-12
-1.90401e-10
2.7339e-18
3.57284e-12
-1.58776e-10
2.39083e-18
1.32638e-12
-1.14092e-10
1.6236e-18
-4.75302e-11
4.4617e-19
8.52167e-15
-3.35003e-13
9.39051e-17
1.33988e-14
-1.16339e-12
2.24516e-16
1.18189e-13
-2.43419e-12
8.15167e-15
8.07962e-14
-3.40971e-12
-1.51683e-14
4.34659e-13
-5.48654e-12
-2.25215e-14
3.23786e-13
-6.80128e-12
1.5745e-14
6.61845e-13
-8.96624e-12
-4.38601e-15
5.36006e-13
-1.1404e-11
2.63609e-14
7.90664e-13
-1.31959e-11
5.58588e-15
7.07085e-13
-1.68399e-11
2.03701e-15
1.01949e-12
-1.89821e-11
2.10526e-16
1.23196e-12
-2.3435e-11
-1.35738e-15
1.62721e-12
-2.61153e-11
1.45805e-15
2.07881e-12
-3.10675e-11
1.25787e-15
2.60524e-12
-3.47772e-11
-7.12784e-16
3.20297e-12
-4.00125e-11
4.72508e-16
3.83657e-12
-4.48368e-11
-6.86659e-16
4.52894e-12
-5.05377e-11
2.38545e-16
5.25271e-12
-5.63609e-11
2.37621e-16
6.02875e-12
-6.27525e-11
-3.54092e-16
6.84812e-12
-6.94787e-11
-2.88414e-16
7.72185e-12
-7.66788e-11
5.05471e-19
8.6481e-12
-8.4268e-11
-1.58671e-16
9.63076e-12
-9.22937e-11
-5.40518e-17
1.06667e-11
-1.00713e-10
-4.17119e-17
1.1754e-11
-1.0953e-10
4.6819e-18
1.28874e-11
-1.18715e-10
2.90827e-17
1.40609e-11
-1.28235e-10
5.35574e-17
1.52668e-11
-1.38074e-10
6.60981e-17
1.64957e-11
-1.48168e-10
7.97254e-17
1.7737e-11
-1.58481e-10
7.93577e-17
1.89785e-11
-1.68955e-10
7.69437e-17
2.02065e-11
-1.79519e-10
6.71439e-17
2.14059e-11
-1.90102e-10
5.90882e-17
2.25606e-11
-2.00621e-10
4.45378e-17
2.36531e-11
-2.10993e-10
3.03266e-17
2.46651e-11
-2.21114e-10
2.12407e-17
2.55776e-11
-2.3089e-10
1.60566e-17
2.63707e-11
-2.40213e-10
1.15658e-17
2.70248e-11
-2.48916e-10
6.68654e-18
2.75201e-11
-2.57024e-10
4.06667e-18
2.7838e-11
-2.64259e-10
2.72209e-18
2.79606e-11
-2.70646e-10
2.59901e-18
2.78721e-11
-2.75958e-10
4.34641e-18
2.75584e-11
-2.80073e-10
6.74511e-18
2.70077e-11
-2.83055e-10
8.44749e-18
2.62119e-11
-2.84539e-10
9.49338e-18
2.51656e-11
-2.84587e-10
9.87911e-18
2.38677e-11
-2.82973e-10
8.30143e-18
2.23214e-11
-2.79604e-10
6.05346e-18
2.05339e-11
-2.74403e-10
4.59481e-18
1.85189e-11
-2.67068e-10
3.92671e-18
1.62953e-11
-2.5747e-10
3.9698e-18
1.38893e-11
-2.45356e-10
3.71697e-18
1.13371e-11
-2.30273e-10
3.27824e-18
8.68982e-12
-2.11507e-10
2.76899e-18
6.02165e-12
-1.87733e-10
2.10905e-18
3.45998e-12
-1.56214e-10
1.8724e-18
1.24661e-12
-1.11879e-10
1.2332e-18
-4.62836e-11
-5.37667e-20
6.99512e-15
-3.42538e-13
2.77285e-16
2.40752e-14
-1.18052e-12
-6.71383e-17
8.97529e-14
-2.50159e-12
8.63153e-16
1.89567e-14
-3.35042e-12
6.17088e-15
2.70611e-13
-5.75792e-12
1.0319e-14
-4.02111e-14
-6.50912e-12
9.27717e-15
5.03516e-13
-9.55867e-12
2.15372e-14
3.55683e-13
-1.10932e-11
-7.52407e-14
1.19154e-12
-1.39925e-11
-1.90774e-14
1.04615e-12
-1.68014e-11
5.41832e-14
1.82508e-12
-1.96952e-11
-2.95984e-14
1.89788e-12
-2.3539e-11
8.60987e-15
2.53946e-12
-2.67386e-11
-4.46329e-15
2.78989e-12
-3.13275e-11
1.29276e-15
3.33799e-12
-3.53244e-11
-1.92917e-15
3.77014e-12
-4.04459e-11
-7.06826e-16
4.33939e-12
-4.5411e-11
-4.92578e-16
4.93588e-12
-5.11336e-11
1.5238e-16
5.6157e-12
-5.70406e-11
-8.12902e-16
6.35802e-12
-6.34962e-11
4.25128e-16
7.1691e-12
-7.02903e-11
1.42334e-16
8.04976e-12
-7.75593e-11
-2.35084e-16
8.99332e-12
-8.52118e-11
7.07489e-18
1.00002e-11
-9.33005e-11
-5.17179e-17
1.10642e-11
-1.01777e-10
5.89857e-19
1.21815e-11
-1.10647e-10
2.96032e-17
1.33456e-11
-1.19879e-10
4.86463e-17
1.45496e-11
-1.29438e-10
6.70127e-17
1.57853e-11
-1.39309e-10
7.8023e-17
1.70427e-11
-1.49425e-10
8.7152e-17
1.83105e-11
-1.59748e-10
8.65609e-17
1.95762e-11
-1.7022e-10
7.90689e-17
2.08253e-11
-1.80767e-10
6.89894e-17
2.20423e-11
-1.91319e-10
5.82156e-17
2.32104e-11
-2.01789e-10
4.38298e-17
2.43115e-11
-2.12094e-10
2.88095e-17
2.53271e-11
-2.22129e-10
1.87673e-17
2.62379e-11
-2.31801e-10
1.44233e-17
2.70236e-11
-2.40999e-10
9.97136e-18
2.76646e-11
-2.49557e-10
5.31855e-18
2.81409e-11
-2.57501e-10
2.73202e-18
2.84343e-11
-2.64552e-10
1.52991e-18
2.85268e-11
-2.70739e-10
1.45041e-18
2.84031e-11
-2.75835e-10
3.4658e-18
2.80496e-11
-2.79719e-10
6.2012e-18
2.74547e-11
-2.82461e-10
8.20609e-18
2.66114e-11
-2.83696e-10
9.46303e-18
2.55146e-11
-2.8349e-10
9.84788e-18
2.4164e-11
-2.81622e-10
8.12848e-18
2.25637e-11
-2.78004e-10
5.49454e-18
2.07213e-11
-2.72561e-10
3.94549e-18
1.86514e-11
-2.64999e-10
3.25634e-18
1.63738e-11
-2.55192e-10
3.37878e-18
1.39155e-11
-2.42898e-10
3.22212e-18
1.13143e-11
-2.27672e-10
2.87709e-18
8.62368e-12
-2.08817e-10
2.44231e-18
5.92336e-12
-1.85033e-10
1.88968e-18
3.35139e-12
-1.53642e-10
1.73584e-18
1.1733e-12
-1.09701e-10
1.08035e-18
-4.51103e-11
-1.34321e-19
8.61018e-15
-3.51808e-13
3.31476e-16
1.4466e-14
-1.18719e-12
2.91311e-16
1.44393e-13
-2.63216e-12
4.61163e-16
8.40855e-14
-3.28884e-12
-3.33515e-16
4.41347e-13
-6.11181e-12
-1.31081e-15
1.90312e-13
-6.26908e-12
5.59788e-15
8.02685e-13
-1.02233e-11
2.246e-14
5.07848e-13
-1.06726e-11
-5.75074e-14
1.37722e-12
-1.48604e-11
-5.04425e-15
9.59748e-13
-1.64775e-11
4.95557e-14
1.76589e-12
-2.0441e-11
-2.86683e-14
1.65691e-12
-2.34564e-11
7.99491e-15
2.33677e-12
-2.74011e-11
-3.46171e-15
2.54282e-12
-3.15433e-11
1.21543e-15
3.1786e-12
-3.59604e-11
-1.54782e-15
3.65344e-12
-4.09211e-11
-5.04325e-16
4.32381e-12
-4.60852e-11
-4.72614e-16
4.99178e-12
-5.18001e-11
1.3809e-16
5.75214e-12
-5.78016e-11
1.97552e-16
6.56068e-12
-6.43053e-11
-2.01461e-16
7.43331e-12
-7.1163e-11
-4.11051e-16
8.36438e-12
-7.84914e-11
1.67063e-16
9.35442e-12
-8.62021e-11
-1.0963e-16
1.04031e-11
-9.43492e-11
1.06287e-17
1.15065e-11
-1.0288e-10
2.30012e-17
1.26616e-11
-1.11801e-10
4.58348e-17
1.38624e-11
-1.21079e-10
7.26382e-17
1.5102e-11
-1.30677e-10
7.68444e-17
1.63719e-11
-1.40578e-10
9.04333e-17
1.76619e-11
-1.50714e-10
9.14109e-17
1.896e-11
-1.61046e-10
9.04054e-17
2.02532e-11
-1.71512e-10
7.8079e-17
2.15264e-11
-1.8204e-10
6.66898e-17
2.27635e-11
-1.92555e-10
5.53428e-17
2.3947e-11
-2.02972e-10
4.15373e-17
2.50583e-11
-2.13205e-10
2.52325e-17
2.60783e-11
-2.23149e-10
1.57423e-17
2.69873e-11
-2.3271e-10
1.18305e-17
2.77649e-11
-2.41776e-10
8.24105e-18
2.83913e-11
-2.50183e-10
3.68241e-18
2.88464e-11
-2.57956e-10
1.5481e-18
2.91121e-11
-2.64818e-10
4.01865e-19
2.91707e-11
-2.70798e-10
4.70049e-19
2.90073e-11
-2.75671e-10
2.65725e-18
2.86088e-11
-2.7932e-10
5.68394e-18
2.79642e-11
-2.81816e-10
7.85877e-18
2.70672e-11
-2.82798e-10
9.36269e-18
2.59134e-11
-2.82337e-10
9.74476e-18
2.45035e-11
-2.80213e-10
7.67132e-18
2.28423e-11
-2.76343e-10
4.80029e-18
2.09384e-11
-2.70657e-10
2.99433e-18
1.88071e-11
-2.62867e-10
2.31148e-18
1.64694e-11
-2.52855e-10
2.5024e-18
1.39534e-11
-2.40382e-10
2.47152e-18
1.12989e-11
-2.25017e-10
2.25978e-18
8.56242e-12
-2.0608e-10
1.98173e-18
5.82987e-12
-1.823e-10
1.54797e-18
3.25007e-12
-1.51063e-10
1.52867e-18
1.10752e-12
-1.07558e-10
1.0466e-18
-4.40028e-11
-3.2291e-19
1.06669e-14
-3.6171e-13
-3.16397e-16
-2.38786e-15
-1.17828e-12
1.77264e-15
1.56689e-13
-2.78831e-12
-1.43749e-15
-4.18331e-14
-3.08667e-12
-8.43881e-16
4.20042e-13
-6.577e-12
1.9058e-15
-3.30376e-14
-5.8339e-12
8.07146e-15
5.96345e-13
-1.09112e-11
2.61034e-14
1.71202e-13
-1.01361e-11
-5.00349e-14
1.02775e-12
-1.57011e-11
-1.04656e-14
5.14607e-13
-1.60735e-11
5.74499e-14
1.46981e-12
-2.1335e-11
-3.00059e-14
1.34189e-12
-2.33582e-11
1.19935e-14
2.23204e-12
-2.82728e-11
-5.09164e-15
2.46759e-12
-3.17917e-11
4.17204e-15
3.27128e-12
-3.67621e-11
-2.40585e-15
3.79331e-12
-4.1446e-11
6.39801e-16
4.55363e-12
-4.68489e-11
-5.27109e-16
5.25618e-12
-5.25027e-11
7.40046e-16
6.06062e-12
-5.86047e-11
-8.38033e-16
6.8939e-12
-6.51387e-11
4.85406e-16
7.79501e-12
-7.20636e-11
3.02737e-16
8.75596e-12
-7.94511e-11
-9.16149e-17
9.77877e-12
-8.72242e-11
1.25973e-16
1.08629e-11
-9.54326e-11
5.72084e-17
1.20042e-11
-1.0402e-10
8.38871e-17
1.31983e-11
-1.12994e-10
9.88218e-17
1.44386e-11
-1.22319e-10
9.04594e-17
1.57174e-11
-1.31955e-10
9.91214e-17
1.70254e-11
-1.41885e-10
9.26085e-17
1.83517e-11
-1.52039e-10
9.71785e-17
1.96837e-11
-1.62377e-10
8.67382e-17
2.10075e-11
-1.72836e-10
7.57655e-17
2.23076e-11
-1.8334e-10
6.04728e-17
2.3567e-11
-1.93814e-10
5.06055e-17
2.47677e-11
-2.04172e-10
3.64044e-17
2.58903e-11
-2.14327e-10
2.14074e-17
2.69153e-11
-2.24174e-10
1.15595e-17
2.78225e-11
-2.33617e-10
9.25827e-18
2.8591e-11
-2.42545e-10
6.03377e-18
2.92011e-11
-2.50793e-10
2.1795e-18
2.96326e-11
-2.58387e-10
3.32845e-19
2.98675e-11
-2.65052e-10
-5.02321e-19
2.98885e-11
-2.70819e-10
-3.46156e-19
2.96809e-11
-2.75464e-10
1.98278e-18
2.92324e-11
-2.78872e-10
5.21136e-18
2.85327e-11
-2.81117e-10
7.58722e-18
2.75761e-11
-2.81842e-10
9.13125e-18
2.63594e-11
-2.8112e-10
9.55634e-18
2.48839e-11
-2.78737e-10
7.35637e-18
2.31555e-11
-2.74614e-10
4.17094e-18
2.11839e-11
-2.68685e-10
2.32461e-18
1.89855e-11
-2.60669e-10
1.6059e-18
1.65822e-11
-2.50452e-10
1.88797e-18
1.4004e-11
-2.37804e-10
1.9723e-18
1.12926e-11
-2.22306e-10
1.905e-18
8.50844e-12
-2.03296e-10
1.75692e-18
5.74378e-12
-1.79536e-10
1.50604e-18
3.15785e-12
-1.48477e-10
1.62003e-18
1.04952e-12
-1.0545e-10
1.13791e-18
-4.29533e-11
-1.56832e-19
1.41356e-14
-3.7053e-13
-2.68263e-15
3.627e-14
-1.20476e-12
2.43444e-15
7.65004e-14
-2.866e-12
1.81813e-14
1.57283e-13
-3.1352e-12
-1.47808e-14
4.47749e-13
-6.85855e-12
-5.37012e-15
5.95326e-13
-6.00164e-12
9.91837e-15
1.07973e-12
-1.14418e-11
2.05395e-14
1.29132e-12
-1.02323e-11
-5.27851e-14
2.19882e-12
-1.65818e-11
-1.43149e-14
1.97612e-12
-1.59711e-11
5.87704e-14
2.96207e-12
-2.22718e-11
-2.8083e-14
2.77354e-12
-2.32068e-11
1.45485e-14
3.54778e-12
-2.90341e-11
-5.09377e-15
3.55269e-12
-3.18036e-11
3.40935e-15
4.167e-12
-3.73737e-11
-1.21108e-15
4.47067e-12
-4.17512e-11
4.78664e-16
5.09394e-12
-4.74744e-11
-2.44435e-16
5.68774e-12
-5.30955e-11
6.05205e-16
6.4446e-12
-5.93614e-11
4.25057e-16
7.26396e-12
-6.5957e-11
-1.79903e-16
8.18181e-12
-7.29802e-11
-2.04546e-16
9.17113e-12
-8.04404e-11
3.43789e-16
1.02335e-11
-8.82859e-11
3.24785e-17
1.13605e-11
-9.65589e-11
1.33672e-16
1.25468e-11
-1.05206e-10
1.18413e-16
1.37862e-11
-1.14233e-10
1.13617e-16
1.50713e-11
-1.23603e-10
1.22095e-16
1.63939e-11
-1.33277e-10
1.02851e-16
1.77442e-11
-1.43235e-10
1.04921e-16
1.91107e-11
-1.53405e-10
9.27648e-17
2.04799e-11
-1.63746e-10
8.61111e-17
2.18375e-11
-1.74193e-10
6.6964e-17
2.3167e-11
-1.84669e-10
5.41274e-17
2.44508e-11
-1.95098e-10
4.26966e-17
2.56701e-11
-2.05391e-10
3.15065e-17
2.68051e-11
-2.15462e-10
1.59546e-17
2.78352e-11
-2.25204e-10
7.66523e-18
2.87401e-11
-2.34522e-10
6.00101e-18
2.94986e-11
-2.43303e-10
3.99463e-18
3.00906e-11
-2.51384e-10
4.69517e-19
3.04959e-11
-2.58793e-10
-6.74655e-19
3.06969e-11
-2.65253e-10
-1.33498e-18
3.06764e-11
-2.70799e-10
-9.84225e-19
3.04204e-11
-2.75208e-10
1.44895e-18
2.99171e-11
-2.78368e-10
4.82488e-18
2.91569e-11
-2.80357e-10
7.21145e-18
2.81353e-11
-2.8082e-10
9.03997e-18
2.68497e-11
-2.79834e-10
9.29914e-18
2.53029e-11
-2.7719e-10
6.85648e-18
2.35016e-11
-2.72813e-10
3.52776e-18
2.14566e-11
-2.6664e-10
1.43387e-18
1.91857e-11
-2.58398e-10
7.75975e-19
1.67122e-11
-2.47978e-10
1.12772e-18
1.40678e-11
-2.3516e-10
1.36985e-18
1.12968e-11
-2.19535e-10
1.4782e-18
8.46344e-12
-2.00463e-10
1.5392e-18
5.66683e-12
-1.76739e-10
1.45337e-18
3.07569e-12
-1.45886e-10
1.73136e-18
9.99158e-13
-1.03373e-10
1.43659e-18
-4.19542e-11
-4.29944e-20
6.85281e-15
-3.76761e-13
-3.03906e-16
9.49713e-14
-1.2827e-12
-5.09038e-15
1.77729e-14
-2.72186e-12
-3.30581e-14
3.1046e-13
-3.49252e-12
3.26118e-14
-2.31958e-13
-6.41203e-12
4.78258e-14
1.29175e-13
-6.26433e-12
-5.00415e-14
-2.29343e-13
-1.11632e-11
4.17688e-14
-2.14875e-13
-1.01498e-11
-4.92888e-14
-3.57927e-15
-1.67816e-11
-1.10183e-14
-2.72415e-13
-1.57889e-11
4.93016e-14
4.26158e-13
-2.29112e-11
-2.82389e-14
4.77467e-13
-2.32578e-11
-8.10428e-16
1.45362e-12
-3.00028e-11
-2.6415e-15
1.87368e-12
-3.22396e-11
6.54143e-15
2.93037e-12
-3.84213e-11
-5.01575e-15
3.65828e-12
-4.2483e-11
1.02148e-15
4.66083e-12
-4.8478e-11
-8.18727e-16
5.54296e-12
-5.39776e-11
5.58682e-16
6.52571e-12
-6.03413e-11
-1.30984e-15
7.49576e-12
-6.69278e-11
1.13444e-15
8.52326e-12
-7.40065e-11
3.89805e-16
9.59272e-12
-8.1508e-11
-5.10831e-17
1.07185e-11
-8.94105e-11
2.26103e-16
1.19004e-11
-9.77395e-11
1.42755e-16
1.31381e-11
-1.06442e-10
1.45426e-16
1.44271e-11
-1.15521e-10
1.53043e-16
1.57611e-11
-1.24936e-10
1.19633e-16
1.71314e-11
-1.34646e-10
1.16774e-16
1.85277e-11
-1.4463e-10
9.43024e-17
1.99378e-11
-1.54814e-10
9.16357e-17
2.13476e-11
-1.65155e-10
7.3458e-17
2.27416e-11
-1.75586e-10
5.95736e-17
2.41029e-11
-1.8603e-10
4.26894e-17
2.5413e-11
-1.96408e-10
3.53719e-17
2.66523e-11
-2.0663e-10
2.41616e-17
2.78001e-11
-2.1661e-10
1.11247e-17
2.88355e-11
-2.2624e-10
2.86714e-18
2.97375e-11
-2.35424e-10
3.11742e-18
3.04846e-11
-2.44051e-10
1.57951e-18
3.10565e-11
-2.51956e-10
-1.01704e-18
3.14331e-11
-2.5917e-10
-1.75413e-18
3.15969e-11
-2.65417e-10
-1.99728e-18
3.15311e-11
-2.70733e-10
-1.49271e-18
3.12222e-11
-2.74899e-10
9.88285e-19
3.06593e-11
-2.77805e-10
4.45881e-18
2.98336e-11
-2.79531e-10
6.9583e-18
2.87416e-11
-2.79728e-10
8.62124e-18
2.73818e-11
-2.78475e-10
8.9536e-18
2.57581e-11
-2.75567e-10
6.38135e-18
2.38785e-11
-2.70933e-10
2.80448e-18
2.17551e-11
-2.64517e-10
7.41538e-19
1.9407e-11
-2.5605e-10
2.70294e-20
1.68591e-11
-2.4543e-10
5.03601e-19
1.41451e-11
-2.32446e-10
8.96481e-19
1.13121e-11
-2.16702e-10
1.22131e-18
8.42858e-12
-1.97579e-10
1.48126e-18
5.6001e-12
-1.73911e-10
1.64146e-18
3.00393e-12
-1.43289e-10
2.08639e-18
9.56014e-13
-1.01325e-10
1.8121e-18
-4.09982e-11
3.99865e-19
9.49448e-15
-3.84984e-13
-6.39251e-16
8.5153e-14
-1.35567e-12
-1.21418e-15
8.84855e-14
-2.67526e-12
-2.5334e-14
4.92412e-13
-3.95109e-12
2.88906e-14
2.79593e-13
-6.27472e-12
3.71796e-14
1.22737e-12
-7.12896e-12
-4.4176e-14
1.31939e-12
-1.13394e-11
4.45565e-14
2.21371e-12
-1.09549e-11
-4.24585e-14
2.78665e-12
-1.73334e-11
-9.3971e-15
3.07798e-12
-1.61903e-11
5.38705e-14
3.86282e-12
-2.36484e-11
-2.59388e-14
3.90208e-12
-2.33015e-11
3.55787e-15
4.59164e-12
-3.06802e-11
-3.01411e-15
4.56392e-12
-3.22279e-11
6.18219e-15
5.10654e-12
-3.89566e-11
-4.21999e-15
5.32841e-12
-4.2706e-11
5.90368e-16
5.90436e-12
-4.90542e-11
-4.39245e-16
6.46155e-12
-5.4533e-11
-1.1301e-17
7.22754e-12
-6.11073e-11
4.84276e-16
8.07698e-12
-6.77762e-11
-1.3897e-16
9.05595e-12
-7.49837e-11
-3.03291e-16
1.01204e-11
-8.25721e-11
4.95419e-16
1.12721e-11
-9.0561e-11
1.04702e-16
1.24943e-11
-9.89607e-11
1.96026e-16
1.37804e-11
-1.07727e-10
1.81309e-16
1.51209e-11
-1.1686e-10
1.46464e-16
1.65071e-11
-1.26321e-10
1.44395e-16
1.79289e-11
-1.36067e-10
1.05516e-16
1.9375e-11
-1.46076e-10
9.82427e-17
2.08322e-11
-1.56271e-10
7.66218e-17
2.22856e-11
-1.66608e-10
6.61565e-17
2.37189e-11
-1.77019e-10
4.43585e-17
2.51142e-11
-1.87425e-10
3.27399e-17
2.64521e-11
-1.97745e-10
2.44458e-17
2.77123e-11
-2.0789e-10
1.77414e-17
2.88735e-11
-2.17771e-10
4.77907e-18
2.99139e-11
-2.2728e-10
-1.27931e-18
3.08121e-11
-2.36322e-10
-3.38916e-19
3.15462e-11
-2.44785e-10
-5.16416e-19
3.20959e-11
-2.52506e-10
-2.70662e-18
3.2441e-11
-2.59515e-10
-2.6502e-18
3.25642e-11
-2.6554e-10
-2.64453e-18
3.24492e-11
-2.70618e-10
-1.8937e-18
3.20832e-11
-2.74533e-10
6.55858e-19
3.1456e-11
-2.77178e-10
4.15551e-18
3.05598e-11
-2.78635e-10
6.51275e-18
2.93922e-11
-2.7856e-10
8.48325e-18
2.7953e-11
-2.77035e-10
8.41473e-18
2.62472e-11
-2.73861e-10
5.70339e-18
2.42844e-11
-2.6897e-10
2.09711e-18
2.20778e-11
-2.62311e-10
-1.96715e-19
1.96483e-11
-2.53621e-10
-7.71479e-19
1.70224e-11
-2.42804e-10
-1.99014e-19
1.42359e-11
-2.2966e-10
4.15249e-19
1.13391e-11
-2.13806e-10
9.86671e-19
8.40457e-12
-1.94645e-10
1.50928e-18
5.54414e-12
-1.7105e-10
1.87846e-18
2.9425e-12
-1.40688e-10
2.50403e-18
9.19557e-13
-9.93024e-11
2.41424e-18
-4.00786e-11
7.90858e-19
9.44814e-15
-3.92343e-13
-1.05886e-15
9.18793e-14
-1.43366e-12
-2.06998e-15
6.40951e-15
-2.53903e-12
-2.55134e-14
3.11814e-13
-4.30893e-12
2.67602e-14
-2.10708e-13
-5.82575e-12
3.68833e-14
1.83789e-13
-7.41869e-12
-5.45819e-14
-1.97308e-13
-1.1023e-11
3.3935e-14
-1.76768e-13
-1.08453e-11
-6.35097e-14
-1.26117e-13
-1.74194e-11
1.69686e-14
-1.61841e-13
-1.62243e-11
2.99888e-14
1.1833e-13
-2.3901e-11
-1.6926e-14
4.23525e-13
-2.36073e-11
-8.08447e-17
1.18047e-12
-3.14326e-11
-1.36826e-15
1.84451e-12
-3.29057e-11
6.26452e-15
2.90554e-12
-4.00118e-11
-3.55623e-15
3.8409e-12
-4.36428e-11
1.26153e-15
4.96527e-12
-5.01775e-11
-6.33664e-16
6.00906e-12
-5.55791e-11
1.58043e-15
7.1288e-12
-6.22235e-11
-1.51615e-15
8.23171e-12
-6.88799e-11
9.94268e-16
9.38515e-12
-7.6136e-11
2.35433e-16
1.05736e-11
-8.37592e-11
7.75793e-17
1.18168e-11
-9.18032e-11
2.03364e-16
1.31126e-11
-1.00256e-10
1.65305e-16
1.44637e-11
-1.09077e-10
1.51506e-16
1.58645e-11
-1.1826e-10
1.52081e-16
1.73087e-11
-1.27765e-10
1.09287e-16
1.87863e-11
-1.37544e-10
9.9103e-17
2.0286e-11
-1.47575e-10
7.02378e-17
2.17936e-11
-1.57778e-10
6.43791e-17
2.32935e-11
-1.68108e-10
4.44435e-17
2.47684e-11
-1.78494e-10
3.13025e-17
2.61996e-11
-1.88856e-10
1.70695e-17
2.75668e-11
-1.99113e-10
1.4663e-17
2.88488e-11
-2.09172e-10
8.70651e-18
3.00234e-11
-2.18946e-10
-7.98563e-19
3.10683e-11
-2.28326e-10
-6.37413e-18
3.19616e-11
-2.37215e-10
-3.31562e-18
3.26811e-11
-2.45505e-10
-2.97102e-18
3.32061e-11
-2.53031e-10
-4.14645e-18
3.35167e-11
-2.59826e-10
-3.66837e-18
3.35958e-11
-2.65619e-10
-3.19097e-18
3.34277e-11
-2.7045e-10
-2.21132e-18
3.30002e-11
-2.74105e-10
3.22095e-19
3.2304e-11
-2.76482e-10
3.8415e-18
3.13324e-11
-2.77664e-10
6.23664e-18
3.00843e-11
-2.77312e-10
7.84044e-18
2.85606e-11
-2.75512e-10
7.80762e-18
2.6768e-11
-2.72068e-10
4.9766e-18
2.47172e-11
-2.6692e-10
1.19216e-18
2.24233e-11
-2.60017e-10
-9.71664e-19
1.99085e-11
-2.51106e-10
-1.58725e-18
1.72014e-11
-2.40097e-10
-8.18387e-19
1.43401e-11
-2.26798e-10
5.06337e-21
1.1378e-11
-2.10843e-10
8.77766e-19
8.39173e-12
-1.91659e-10
1.66842e-18
5.49912e-12
-1.68158e-10
2.34132e-18
2.89109e-12
-1.3808e-10
3.14571e-18
8.89193e-13
-9.73005e-11
3.08934e-18
-3.91894e-11
1.49622e-18
9.68288e-15
-4.00552e-13
-7.38307e-16
8.88969e-14
-1.50964e-12
-1.58497e-15
3.48438e-14
-2.43795e-12
-2.34737e-14
3.12931e-13
-4.68125e-12
4.6956e-14
-1.4945e-13
-5.50115e-12
6.98819e-14
4.21965e-13
-7.9102e-12
-4.22876e-14
2.9254e-13
-1.09567e-11
3.17689e-14
1.3095e-12
-1.16167e-11
-1.28704e-13
1.81068e-12
-1.7864e-11
-2.71163e-14
2.87257e-12
-1.73769e-11
4.48137e-14
3.44235e-12
-2.4403e-11
-2.65445e-14
4.14542e-12
-2.43221e-11
1.70664e-16