/*--------------------------------*- C++ -*----------------------------------*\
| =========                 |                                                 |
| \\      /  F ield         | OpenFOAM: The Open Source CFD Toolbox           |
|  \\    /   O peration     | Version:  v2012                                 |
|   \\  /    A nd           | Website:  www.openfoam.com                      |
|    \\/     M anipulation  |                                                 |
\*---------------------------------------------------------------------------*/
FoamFile
{
    version     2.0;
    format      ascii;
    class       volVectorField;
    location    "0.3";
    object      U;
}
// * * * * * * * * * * * * * * * * * * * * * * * * * * * * * * * * * * * * * //

dimensions      [0 1 -1 0 0 0 0];


internalField   nonuniform List<vector> 
2650
(
(0.148879 -43.7221 -0.00122986)
(-0.0763234 -40.0203 0.000696363)
(0.304161 -34.9879 -0.0026329)
(-1.30343 -16.9781 0.0114143)
(0.155604 2.19891 -0.00132741)
(0.0265482 -44.0118 -0.000178068)
(-0.132753 -40.8032 0.00117921)
(-0.777378 -33.8349 0.00681071)
(-1.31378 -16.9826 0.0115021)
(0.221318 2.05998 -0.0018873)
(0.0666809 -43.8732 -0.000534386)
(-0.107955 -41.8089 0.000956902)
(-1.74094 -33.4612 0.0152222)
(-0.355794 -19.6989 0.00313577)
(1.9128 0.49239 -0.0166528)
(-0.20737 -44.2187 0.00186558)
(0.40299 -43.472 -0.00350923)
(-1.81592 -35.2571 0.0158669)
(0.156597 -25.7193 -0.00134733)
(3.13435 -8.36446 -0.0273096)
(-0.293077 -44.6812 0.00257619)
(-0.268323 -44.5824 0.00234014)
(-4.51596 -37.0797 0.0394207)
(-1.80791 -30.2381 0.0157953)
(-0.425644 -15.0673 0.00378549)
(-0.332733 -45.1333 0.00290653)
(-2.19815 -45.7429 0.0191822)
(-7.94718 -37.065 0.0693759)
(-0.104935 -31.4262 0.000936463)
(-1.22036 -13.9126 0.0106938)
(-0.308345 -45.7415 0.00267948)
(-1.62337 -46.5388 0.0141678)
(-4.92835 -38.0252 0.0430299)
(1.59247 -34.9749 -0.0138761)
(0.0225436 -15.8149 -0.000171603)
(0.0840248 -46.7742 -0.000744133)
(-0.38583 -45.5355 0.00336615)
(-1.09621 -39.5557 0.00957551)
(2.28108 -36.9816 -0.0198879)
(-0.140042 -15.9383 0.00122969)
(0.747494 -47.8799 -0.00655931)
(-0.160801 -44.0259 0.00139624)
(0.0017081 -41.0517 -2.32642e-05)
(2.42525 -37.5208 -0.0211716)
(0.105623 -12.478 -0.000922145)
(0.891631 -48.6689 -0.0078085)
(-1.21285 -42.8839 0.0105738)
(0.814614 -44.222 -0.00711406)
(1.39367 -38.6303 -0.0121637)
(0.0413638 -11.3726 -0.000349437)
(0.885744 -48.7741 -0.00774527)
(-1.66949 -42.3899 0.0145632)
(1.85032 -47.3178 -0.0161557)
(-0.292463 -37.525 0.0025438)
(0.110139 -10.8234 -0.000945524)
(0.436403 -48.0589 -0.0038041)
(-1.00875 -42.5368 0.00879501)
(1.4806 -48.3426 -0.0129334)
(-1.50987 -35.4304 0.0131775)
(0.330759 -11.274 -0.00287238)
(-0.437355 -47.3168 0.00380555)
(-1.36807 -42.8948 0.0119386)
(0.6059 -47.477 -0.00529293)
(-1.70822 -34.8967 0.0149118)
(1.0568 -12.7319 -0.00922708)
(-0.639322 -45.7276 0.00557659)
(0.0915519 -42.3901 -0.0007979)
(-0.513862 -46.1494 0.00447787)
(-0.445018 -36.5785 0.00389854)
(2.08971 -11.7997 -0.0182647)
(-1.30522 -44.0662 0.0114018)
(0.427336 -43.1705 -0.00372792)
(-1.75261 -45.7278 0.0152937)
(0.605582 -40.2111 -0.00526889)
(1.06897 -11.6057 -0.00935814)
(-1.50899 -40.239 0.0131803)
(-0.00628706 -41.4894 5.17822e-05)
(-2.85641 -44.0673 0.0249304)
(-0.932325 -40.2941 0.0081387)
(-3.16835 -6.37235 0.0277221)
(-1.4764 -37.0731 0.0128858)
(-2.45314 -39.4406 0.0214119)
(-4.99143 -42.7026 0.0435661)
(-5.94696 -40.4552 0.051903)
(-8.81765 -23.7986 0.0770252)
(-1.84041 -26.5602 0.0160612)
(-5.33827 -27.6128 0.0465907)
(-9.41146 -29.3561 0.0821344)
(-15.39 -26.2905 0.13431)
(-19.5181 -17.0426 0.170309)
(-15.5351 -1.82831 0.135643)
(-9.38585 -2.89076 0.081934)
(-7.01088 -1.38095 0.0611818)
(-4.75396 -0.924396 0.041492)
(-3.62857 -0.577286 0.0316674)
(-2.63244 -0.376609 0.0229747)
(-2.04247 -0.247534 0.0178252)
(-1.55043 -0.166372 0.0135315)
(-1.21687 -0.111925 0.0106201)
(-0.952462 -0.0768521 0.00831262)
(-0.755612 -0.0538959 0.00659476)
(-0.601275 -0.0380698 0.00524812)
(-0.486364 -0.0255413 0.00424508)
(-0.39147 -0.0180183 0.00341687)
(-0.322012 -0.0128518 0.00281063)
(-0.262919 -0.00906068 0.0022949)
(-0.218009 -0.00654179 0.00190289)
(-0.180944 -0.00469371 0.0015794)
(-0.151335 -0.00340836 0.00132097)
(-0.127119 -0.00251403 0.0011096)
(-0.107342 -0.00185062 0.000936989)
(-0.0910178 -0.001384 0.00079451)
(-0.0775126 -0.00103272 0.000676629)
(-0.0662371 -0.000779668 0.000578217)
(-0.0567913 -0.000591834 0.000495784)
(-0.0488282 -0.000450305 0.000426196)
(-1.2581 -13.8635 0.0109788)
(-2.99994 -12.7321 0.0261789)
(-5.4817 -12.4376 0.0478377)
(-8.31035 -12.4292 0.0725296)
(-10.1571 -11.4581 0.0886504)
(-8.6725 -6.5092 0.0757)
(-6.29379 -4.2056 0.0549399)
(-5.67297 -2.53795 0.0495175)
(-4.33733 -1.77692 0.0378628)
(-3.72765 -1.18381 0.0325391)
(-2.99565 -0.861538 0.0261505)
(-2.52685 -0.616355 0.0220576)
(-2.08692 -0.46071 0.0182177)
(-1.75554 -0.343632 0.0153246)
(-1.47113 -0.262856 0.012842)
(-1.24083 -0.201007 0.010832)
(-1.04882 -0.153694 0.00915626)
(-0.891631 -0.117667 0.00778386)
(-0.755585 -0.092189 0.00659613)
(-0.646918 -0.0716213 0.00564748)
(-0.551531 -0.0562861 0.0048148)
(-0.47361 -0.0442846 0.00413452)
(-0.406744 -0.0350229 0.00355083)
(-0.350566 -0.027802 0.0030604)
(-0.302751 -0.0221987 0.00264298)
(-0.262134 -0.0177889 0.00228842)
(-0.227442 -0.0143565 0.00198557)
(-0.197762 -0.0116365 0.00172648)
(-0.172258 -0.00949105 0.00150385)
(-0.150291 -0.00778235 0.00131208)
(-0.131286 -0.00642091 0.00114605)
(-0.841935 -12.4213 0.007347)
(-1.51218 -12.1371 0.0131951)
(-2.74059 -11.5431 0.0239171)
(-3.48242 -9.5496 0.0303917)
(-4.94443 -6.83559 0.0431534)
(-5.19501 -4.13559 0.0453448)
(-4.70306 -3.46392 0.0410514)
(-4.25771 -2.32112 0.0371635)
(-3.6337 -1.83191 0.0317181)
(-3.19503 -1.3275 0.0278894)
(-2.72131 -1.03198 0.0237546)
(-2.36917 -0.783022 0.0206807)
(-2.03682 -0.61368 0.0177797)
(-1.76877 -0.479064 0.0154396)
(-1.53261 -0.380932 0.0133783)
(-1.33268 -0.302903 0.0116334)
(-1.15988 -0.242135 0.0101255)
(-1.01201 -0.193835 0.00883449)
(-0.880907 -0.156846 0.00768993)
(-0.771904 -0.12678 0.00673839)
(-0.673724 -0.103083 0.00588138)
(-0.590714 -0.0839376 0.0051567)
(-0.517535 -0.0685637 0.00451792)
(-0.454263 -0.0561422 0.00396558)
(-0.399 -0.0461156 0.00348316)
(-0.35087 -0.0379901 0.00306302)
(-0.308812 -0.0314197 0.00269589)
(-0.272043 -0.0260819 0.00237492)
(-0.239814 -0.0217445 0.00209358)
(-0.211526 -0.0182042 0.00184663)
(-0.186631 -0.0153108 0.00162917)
(-0.674804 -5.80045 0.00588841)
(-1.49145 -5.39848 0.0130145)
(-2.61574 -5.36975 0.0228267)
(-3.36149 -5.30241 0.0293361)
(-3.82199 -4.80275 0.0333574)
(-3.58639 -3.73397 0.0313037)
(-3.34129 -3.02517 0.0291649)
(-3.12863 -2.28039 0.0273075)
(-2.78865 -1.80288 0.0243407)
(-2.5561 -1.38399 0.0223117)
(-2.26685 -1.09848 0.0197872)
(-2.04112 -0.864027 0.0178167)
(-1.81323 -0.694957 0.0158277)
(-1.61833 -0.558289 0.0141261)
(-1.43989 -0.455065 0.0125686)
(-1.28138 -0.37088 0.0111854)
(-1.14039 -0.304013 0.00995518)
(-1.01573 -0.249776 0.0088668)
(-0.901771 -0.206643 0.00787192)
(-0.804511 -0.171095 0.00702291)
(-0.714617 -0.142215 0.00623823)
(-0.636772 -0.118378 0.00555867)
(-0.566595 -0.0987599 0.0049461)
(-0.504581 -0.0825383 0.00440476)
(-0.449291 -0.0691307 0.00392212)
(-0.400168 -0.0580292 0.00349333)
(-0.356431 -0.0488497 0.00311155)
(-0.317501 -0.0412422 0.00277172)
(-0.282798 -0.0349346 0.00246878)
(-0.251845 -0.0296943 0.00219856)
(-0.224193 -0.0253367 0.00195706)
(-0.324042 -5.17064 0.00282768)
(-0.632826 -4.80345 0.00552166)
(-1.08775 -4.515 0.00949138)
(-1.50525 -4.04222 0.0131348)
(-1.99888 -3.40112 0.0174442)
(-2.20944 -2.71656 0.0192836)
(-2.28824 -2.3056 0.0199728)
(-2.27482 -1.83346 0.0198548)
(-2.15874 -1.52264 0.0188416)
(-2.04875 -1.23135 0.0178829)
(-1.88671 -1.01982 0.0164687)
(-1.74246 -0.836468 0.0152096)
(-1.58864 -0.696666 0.013867)
(-1.44697 -0.577876 0.0126302)
(-1.31397 -0.483867 0.0114693)
(-1.18979 -0.404175 0.0103857)
(-1.07696 -0.339108 0.0094013)
(-0.974411 -0.284715 0.00850597)
(-0.878115 -0.24005 0.00766529)
(-0.794632 -0.202617 0.00693655)
(-0.71557 -0.171419 0.00624645)
(-0.645961 -0.145188 0.00563879)
(-0.582007 -0.123164 0.00508057)
(-0.524515 -0.104615 0.00457871)
(-0.47238 -0.0889981 0.00412362)
(-0.425298 -0.0758447 0.00371266)
(-0.382714 -0.0647773 0.00334094)
(-0.344227 -0.0554576 0.00300499)
(-0.309415 -0.0476068 0.0027011)
(-0.277926 -0.0409864 0.0024262)
(-0.249416 -0.0353999 0.00217723)
(-0.29731 -2.55008 0.00259479)
(-0.637301 -2.40366 0.00556237)
(-1.01502 -2.32981 0.00885701)
(-1.35537 -2.25808 0.0118273)
(-1.60375 -2.16616 0.0139966)
(-1.71328 -1.94154 0.0149533)
(-1.75558 -1.74154 0.0153237)
(-1.76489 -1.49339 0.0154041)
(-1.70197 -1.28254 0.0148541)
(-1.64962 -1.08668 0.0143987)
(-1.55395 -0.9261 0.0135638)
(-1.46517 -0.784092 0.0127888)
(-1.36532 -0.669454 0.0119175)
(-1.26677 -0.569043 0.011057)
(-1.17252 -0.486569 0.0102344)
(-1.07903 -0.414626 0.00941861)
(-0.992402 -0.354687 0.00866302)
(-0.911197 -0.303237 0.00795405)
(-0.832209 -0.260111 0.00726446)
(-0.762777 -0.223163 0.0066584)
(-0.695076 -0.19174 0.00606746)
(-0.634553 -0.164808 0.00553914)
(-0.577876 -0.141796 0.00504445)
(-0.52612 -0.122096 0.00459266)
(-0.478457 -0.10525 0.00417662)
(-0.434785 -0.0908532 0.00379543)
(-0.394731 -0.0785652 0.00344581)
(-0.358042 -0.0680773 0.00312555)
(-0.324425 -0.0591248 0.0028321)
(-0.293635 -0.0514787 0.00256332)
(-0.265424 -0.0449448 0.00231696)
(-0.153993 -2.03103 0.00134383)
(-0.32851 -1.91246 0.0028669)
(-0.531487 -1.79007 0.00463846)
(-0.734854 -1.66246 0.00641293)
(-0.935127 -1.54968 0.0081603)
(-1.10317 -1.39692 0.00962753)
(-1.20443 -1.27312 0.0105132)
(-1.29013 -1.13217 0.0112606)
(-1.29885 -1.005 0.011335)
(-1.30855 -0.888061 0.0114213)
(-1.27041 -0.784541 0.0110886)
(-1.22742 -0.689326 0.0107133)
(-1.1698 -0.607014 0.0102106)
(-1.10475 -0.531291 0.00964267)
(-1.04084 -0.465619 0.0090848)
(-0.971644 -0.405788 0.00848109)
(-0.905986 -0.354277 0.00790852)
(-0.842286 -0.30834 0.00735241)
(-0.778 -0.269047 0.00679117)
(-0.720907 -0.234323 0.00629283)
(-0.663621 -0.204252 0.00579282)
(-0.611741 -0.177926 0.00533995)
(-0.562284 -0.155053 0.00490828)
(-0.516467 -0.135156 0.00450835)
(-0.473669 -0.117894 0.00413477)
(-0.433928 -0.102942 0.0037879)
(-0.397012 -0.0900148 0.00346568)
(-0.362781 -0.0788473 0.00316688)
(-0.331046 -0.0692021 0.00288987)
(-0.301651 -0.06087 0.00263326)
(-0.274424 -0.053669 0.00239551)
(-0.136944 -0.929085 0.00119503)
(-0.30369 -0.899758 0.00265024)
(-0.473706 -0.867062 0.0041338)
(-0.636891 -0.843009 0.00555763)
(-0.772121 -0.85963 0.00673765)
(-0.895882 -0.850963 0.00781813)
(-0.963866 -0.838967 0.00841295)
(-1.03766 -0.805942 0.00905696)
(-1.04937 -0.755246 0.00915713)
(-1.07215 -0.70426 0.00935764)
(-1.0549 -0.647599 0.00920744)
(-1.03413 -0.590876 0.00902609)
(-1.00135 -0.535388 0.00874016)
(-0.958902 -0.481514 0.00836961)
(-0.917057 -0.431541 0.00800428)
(-0.867045 -0.384148 0.00756797)
(-0.818827 -0.342101 0.00714761)
(-0.770404 -0.302834 0.00672487)
(-0.719364 -0.268888 0.00627927)
(-0.673557 -0.237647 0.00587945)
(-0.626043 -0.210111 0.00546475)
(-0.582326 -0.185406 0.00508313)
(-0.539829 -0.163553 0.00471222)
(-0.499837 -0.144221 0.00436314)
(-0.461924 -0.127201 0.00403221)
(-0.426242 -0.11226 0.00372077)
(-0.392677 -0.0991819 0.0034278)
(-0.361183 -0.0877523 0.0031529)
(-0.331659 -0.0777709 0.00289519)
(-0.30402 -0.0690553 0.00265392)
(-0.278161 -0.0614426 0.00242811)
(-0.0828331 -0.556892 0.000722812)
(-0.19368 -0.549102 0.00169024)
(-0.298737 -0.523522 0.00260698)
(-0.413589 -0.510433 0.00360902)
(-0.506274 -0.515789 0.00441762)
(-0.613372 -0.530484 0.00535221)
(-0.67781 -0.536937 0.00591655)
(-0.762583 -0.545294 0.00665676)
(-0.798088 -0.533918 0.00696424)
(-0.847591 -0.524785 0.00739802)
(-0.856759 -0.504452 0.00747844)
(-0.860266 -0.480958 0.00750887)
(-0.850671 -0.45084 0.00742527)
(-0.828961 -0.419144 0.00723575)
(-0.805565 -0.385975 0.00703141)
(-0.772076 -0.352443 0.00673921)
(-0.73802 -0.320812 0.00644231)
(-0.701691 -0.289617 0.0061251)
(-0.66178 -0.261562 0.00577663)
(-0.625252 -0.234755 0.00545777)
(-0.58626 -0.21045 0.00511745)
(-0.549772 -0.188103 0.00479893)
(-0.513634 -0.167925 0.00448352)
(-0.479084 -0.149753 0.00418195)
(-0.445838 -0.133504 0.00389176)
(-0.414118 -0.119041 0.00361491)
(-0.383899 -0.10622 0.00335114)
(-0.355208 -0.0948824 0.00310071)
(-0.328014 -0.0848709 0.00286334)
(-0.302294 -0.0760351 0.00263883)
(-0.277997 -0.0682359 0.00242666)
(-0.070495 -0.0102647 0.000615245)
(-0.15877 -0.0325815 0.0013858)
(-0.254073 -0.0539181 0.00221744)
(-0.337418 -0.0818832 0.00294487)
(-0.42433 -0.140816 0.00370304)
(-0.494457 -0.211415 0.00431423)
(-0.559387 -0.255438 0.00488494)
(-0.612459 -0.305975 0.00534712)
(-0.650358 -0.323348 0.00567501)
(-0.697066 -0.353507 0.0060839)
(-0.713423 -0.368847 0.00622703)
(-0.725609 -0.374416 0.00633324)
(-0.726638 -0.366618 0.00634238)
(-0.716551 -0.354632 0.0062544)
(-0.704724 -0.336526 0.00615107)
(-0.682897 -0.315894 0.00596063)
(-0.660008 -0.293845 0.00576122)
(-0.634476 -0.270895 0.00553829)
(-0.604309 -0.248729 0.00527489)
(-0.576514 -0.22685 0.00503229)
(-0.545342 -0.206217 0.00476023)
(-0.515597 -0.186746 0.00450058)
(-0.485383 -0.168736 0.00423689)
(-0.455939 -0.152194 0.00397988)
(-0.427103 -0.137144 0.0037282)
(-0.399168 -0.123543 0.00348439)
(-0.372187 -0.11132 0.00324888)
(-0.34625 -0.100374 0.00302249)
(-0.321387 -0.0905942 0.00280548)
(-0.297629 -0.0818649 0.00259809)
(-0.27497 -0.0740752 0.00240023)
(-0.0402451 0.208793 0.000351264)
(-0.100425 0.179329 0.000876638)
(-0.154131 0.151065 0.00134546)
(-0.221485 0.125628 0.0019336)
(-0.27594 0.0659086 0.00240841)
(-0.352051 -0.00182559 0.00307248)
(-0.412057 -0.0638169 0.00359583)
(-0.470641 -0.133085 0.00410686)
(-0.517098 -0.157616 0.00451307)
(-0.553386 -0.207618 0.00483019)
(-0.581248 -0.242599 0.00507337)
(-0.601243 -0.269014 0.0052477)
(-0.613208 -0.279866 0.00535223)
(-0.614923 -0.284842 0.00536727)
(-0.613703 -0.281232 0.00535652)
(-0.602918 -0.273063 0.00526244)
(-0.589395 -0.261209 0.00514478)
(-0.572728 -0.246667 0.00499924)
(-0.550545 -0.231029 0.00480556)
(-0.529949 -0.21449 0.00462579)
(-0.505378 -0.198027 0.00441135)
(-0.48149 -0.18188 0.00420283)
(-0.456527 -0.166459 0.00398497)
(-0.431702 -0.151935 0.00376829)
(-0.406922 -0.13844 0.00355201)
(-0.382518 -0.126022 0.00333902)
(-0.358596 -0.114683 0.00313023)
(-0.335297 -0.104382 0.00292686)
(-0.312698 -0.0950554 0.00272961)
(-0.290873 -0.0866271 0.0025391)
(-0.269858 -0.0790159 0.0023556)
(-0.0357223 0.453744 0.000311789)
(-0.0824809 0.418152 0.000719977)
(-0.135061 0.383328 0.00117892)
(-0.183586 0.342304 0.00160262)
(-0.231731 0.290426 0.00202274)
(-0.288897 0.215581 0.00252166)
(-0.335915 0.140257 0.00293199)
(-0.391484 0.0544504 0.00341686)
(-0.428186 -0.0106061 0.00373743)
(-0.46172 -0.080684 0.00403007)
(-0.486295 -0.131105 0.00424451)
(-0.508464 -0.174257 0.00443785)
(-0.522551 -0.200404 0.00456087)
(-0.529453 -0.219078 0.00462116)
(-0.533654 -0.227603 0.00465775)
(-0.529913 -0.229861 0.00462513)
(-0.523509 -0.226819 0.0045696)
(-0.514411 -0.219803 0.00449016)
(-0.499209 -0.210372 0.0043574)
(-0.485148 -0.199028 0.00423468)
(-0.466531 -0.186832 0.00407223)
(-0.447962 -0.174194 0.00391014)
(-0.427766 -0.161616 0.00373389)
(-0.407153 -0.14938 0.00355398)
(-0.386093 -0.137707 0.00337017)
(-0.364951 -0.126726 0.00318565)
(-0.343882 -0.116505 0.00300177)
(-0.323066 -0.107061 0.00282008)
(-0.302622 -0.0983759 0.00264164)
(-0.28266 -0.0904143 0.00246739)
(-0.26325 -0.0831266 0.00229791)
(-0.025703 0.602011 0.000224283)
(-0.0642163 0.56526 0.000560496)
(-0.101256 0.521469 0.000883768)
(-0.140629 0.476393 0.00122747)
(-0.17638 0.418366 0.00153948)
(-0.215644 0.345943 0.00188212)
(-0.255113 0.266967 0.00222676)
(-0.293157 0.179449 0.00255886)
(-0.329176 0.106141 0.00287345)
(-0.365012 0.0285692 0.00318598)
(-0.392189 -0.0310565 0.00342313)
(-0.420261 -0.0850221 0.00366806)
(-0.438973 -0.122794 0.00383143)
(-0.453128 -0.15276 0.00395498)
(-0.462923 -0.171985 0.0040404)
(-0.465952 -0.183806 0.00406683)
(-0.465399 -0.189439 0.00406236)
(-0.462223 -0.189823 0.00403461)
(-0.452597 -0.186779 0.00395053)
(-0.443742 -0.180777 0.00387323)
(-0.430033 -0.173048 0.00375361)
(-0.415939 -0.164115 0.00363059)
(-0.399857 -0.154592 0.00349025)
(-0.38295 -0.144862 0.00334269)
(-0.365216 -0.135227 0.00318792)
(-0.347034 -0.125889 0.00302923)
(-0.328585 -0.116977 0.00286822)
(-0.310075 -0.108564 0.00270666)
(-0.291653 -0.100678 0.00254587)
(-0.273457 -0.0933222 0.00238705)
(-0.255587 -0.0864813 0.00223101)
(-0.0228189 0.750006 0.000199122)
(-0.0516438 0.712247 0.000450612)
(-0.0882474 0.663893 0.000770153)
(-0.117017 0.609374 0.00102118)
(-0.151077 0.550439 0.00131892)
(-0.181751 0.473333 0.00158637)
(-0.215984 0.389805 0.00188503)
(-0.24962 0.297477 0.00217864)
(-0.27907 0.213944 0.00243595)
(-0.312525 0.129384 0.00272776)
(-0.33445 0.0596262 0.00291911)
(-0.361058 -0.00333005 0.00315129)
(-0.377607 -0.0518183 0.00329577)
(-0.392754 -0.0911131 0.00342793)
(-0.403963 -0.119389 0.00352572)
(-0.410381 -0.13904 0.00358171)
(-0.413678 -0.15194 0.00361086)
(-0.415047 -0.158812 0.00362279)
(-0.409918 -0.161628 0.00357796)
(-0.405414 -0.160708 0.00353864)
(-0.395896 -0.157384 0.00345562)
(-0.385663 -0.152201 0.00336629)
(-0.37316 -0.145836 0.00325719)
(-0.359504 -0.138743 0.00313801)
(-0.344718 -0.131289 0.00300897)
(-0.329186 -0.123741 0.00287342)
(-0.31311 -0.116284 0.00273312)
(-0.296712 -0.109039 0.00259)
(-0.280162 -0.102079 0.00244555)
(-0.26362 -0.0954456 0.00230117)
(-0.247207 -0.0891547 0.00215784)
(-0.0171895 0.851436 0.000150034)
(-0.0412622 0.814475 0.000360176)
(-0.068691 0.760059 0.00059951)
(-0.0931644 0.702881 0.000813153)
(-0.121253 0.640071 0.00105847)
(-0.143893 0.564472 0.00125571)
(-0.173813 0.480281 0.0015169)
(-0.199638 0.388589 0.00174247)
(-0.22634 0.300047 0.00197568)
(-0.256296 0.211734 0.00223707)
(-0.276881 0.136128 0.00241666)
(-0.303905 0.0671858 0.00265244)
(-0.321189 0.012222 0.00280332)
(-0.339104 -0.0336892 0.00295964)
(-0.35283 -0.0687319 0.0030794)
(-0.362663 -0.0948742 0.00316518)
(-0.369142 -0.114213 0.00322208)
(-0.373922 -0.1271 0.0032638)
(-0.372249 -0.135493 0.00324915)
(-0.371038 -0.139521 0.00323857)
(-0.364811 -0.140474 0.00318427)
(-0.357636 -0.138973 0.00312163)
(-0.348055 -0.135766 0.00303804)
(-0.337132 -0.131357 0.00294272)
(-0.324888 -0.126165 0.00283587)
(-0.311689 -0.120504 0.00272068)
(-0.297735 -0.114605 0.0025989)
(-0.283251 -0.108631 0.00247249)
(-0.268418 -0.102697 0.00234303)
(-0.253409 -0.0968776 0.00221203)
(-0.23836 -0.0912212 0.00208061)
(-0.0152558 0.944059 0.00013316)
(-0.0340269 0.908424 0.000297038)
(-0.0602502 0.853017 0.00052595)
(-0.0797709 0.792102 0.000696329)
(-0.105497 0.726764 0.000920925)
(-0.124196 0.647257 0.00108383)
(-0.149925 0.562183 0.00130834)
(-0.172452 0.468544 0.00150517)
(-0.194806 0.376978 0.00170041)
(-0.222774 0.285917 0.00194436)
(-0.239886 0.206331 0.00209365)
(-0.26599 0.132644 0.00232141)
(-0.281359 0.0722146 0.00245558)
(-0.299345 0.0204681 0.00261258)
(-0.313081 -0.0203237 0.00273244)
(-0.32401 -0.0522011 0.00282779)
(-0.33191 -0.0771691 0.00289708)
(-0.338522 -0.0953977 0.00295477)
(-0.339082 -0.108952 0.00295962)
(-0.340125 -0.117521 0.00296874)
(-0.336345 -0.122633 0.00293578)
(-0.331649 -0.124769 0.00289479)
(-0.324535 -0.124705 0.00283274)
(-0.315949 -0.122998 0.00275781)
(-0.305903 -0.120102 0.00267014)
(-0.294743 -0.11638 0.00257275)
(-0.282668 -0.112104 0.00246737)
(-0.269901 -0.107475 0.00235594)
(-0.256627 -0.102639 0.0022401)
(-0.243025 -0.097706 0.00212137)
(-0.229242 -0.0927512 0.00200101)
(-0.0126544 1.01652 0.000110455)
(-0.0288801 0.982628 0.000252115)
(-0.0510913 0.924754 0.000445983)
(-0.067924 0.861172 0.000592901)
(-0.0905743 0.793229 0.000790701)
(-0.105393 0.71419 0.000919715)
(-0.128676 0.629854 0.00112288)
(-0.14861 0.537018 0.001297)
(-0.168468 0.442848 0.00147062)
(-0.195809 0.350301 0.00170917)
(-0.212186 0.267459 0.00185207)
(-0.237343 0.190452 0.00207152)
(-0.251698 0.126071 0.00219686)
(-0.269527 0.0700403 0.00235254)
(-0.282675 0.0245882 0.00246728)
(-0.293782 -0.012194 0.00256413)
(-0.3018 -0.0420956 0.00263435)
(-0.308845 -0.0650083 0.00269578)
(-0.3106 -0.0830808 0.00271105)
(-0.313 -0.0958021 0.002732)
(-0.311083 -0.104678 0.0027153)
(-0.308129 -0.110167 0.0026895)
(-0.30285 -0.113073 0.00264345)
(-0.296112 -0.11397 0.00258465)
(-0.287885 -0.113337 0.00251285)
(-0.278471 -0.11156 0.0024307)
(-0.268041 -0.108936 0.00233968)
(-0.256801 -0.105695 0.00224159)
(-0.244933 -0.102009 0.002138)
(-0.232614 -0.0980144 0.00203048)
(-0.219997 -0.0938126 0.00192031)
(-0.011215 1.08279 9.7886e-05)
(-0.0241385 1.05119 0.000210738)
(-0.0446993 0.993745 0.000390227)
(-0.0599811 0.927858 0.000523588)
(-0.0812403 0.856567 0.000709154)
(-0.0942705 0.77505 0.000822561)
(-0.114939 0.691479 0.00100326)
(-0.129586 0.598313 0.001131)
(-0.14707 0.50443 0.00128392)
(-0.171622 0.41293 0.00149797)
(-0.185932 0.325613 0.00162285)
(-0.210007 0.245133 0.00183287)
(-0.223102 0.176193 0.00194721)
(-0.240807 0.115862 0.00210185)
(-0.253538 0.0659631 0.00221296)
(-0.26501 0.0247085 0.002313)
(-0.273524 -0.00938879 0.00238753)
(-0.28137 -0.0364283 0.00245594)
(-0.284348 -0.0582256 0.0024819)
(-0.287941 -0.0746132 0.00251325)
(-0.287489 -0.086809 0.00250934)
(-0.286131 -0.0953673 0.00249747)
(-0.282543 -0.101077 0.00246619)
(-0.277454 -0.104473 0.00242178)
(-0.270826 -0.106052 0.00236395)
(-0.262936 -0.106202 0.00229509)
(-0.253948 -0.105237 0.00221666)
(-0.244059 -0.103406 0.00213036)
(-0.233447 -0.100901 0.00203774)
(-0.222288 -0.0978811 0.00194034)
(-0.210738 -0.0944696 0.00183949)
(-0.00898566 1.13524 7.84397e-05)
(-0.0201489 1.10598 0.000175927)
(-0.0367374 1.04981 0.000320702)
(-0.0498299 0.984738 0.000435047)
(-0.0679405 0.911204 0.00059308)
(-0.0811963 0.828227 0.000708517)
(-0.0994396 0.741381 0.000867828)
(-0.113007 0.647242 0.000986067)
(-0.128737 0.555086 0.00112389)
(-0.148409 0.463902 0.00129536)
(-0.1612 0.375182 0.001407)
(-0.182474 0.29358 0.00159254)
(-0.195233 0.222107 0.00170394)
(-0.213026 0.158902 0.00185937)
(-0.225948 0.105502 0.00197214)
(-0.238389 0.0603162 0.00208063)
(-0.247644 0.0224227 0.00216161)
(-0.256455 -0.00837263 0.00223845)
(-0.260597 -0.0336779 0.00227458)
(-0.265321 -0.0534152 0.00231582)
(-0.266224 -0.0688337 0.00232372)
(-0.266152 -0.0804058 0.00232309)
(-0.263873 -0.0888218 0.00230323)
(-0.260091 -0.0946557 0.00227022)
(-0.254783 -0.0983952 0.0022239)
(-0.248184 -0.100445 0.00216632)
(-0.240442 -0.10113 0.00209876)
(-0.23174 -0.100713 0.00202281)
(-0.222244 -0.099405 0.00193994)
(-0.212129 -0.0973807 0.00185166)
(-0.201549 -0.0947835 0.00175927)
(-0.00775575 1.18002 6.77007e-05)
(-0.0163957 1.15316 0.000143156)
(-0.0319977 1.09758 0.00027933)
(-0.041366 1.03205 0.000361164)
(-0.0571548 0.958726 0.00049898)
(-0.0673416 0.877027 0.000587784)
(-0.0841665 0.788978 0.000734623)
(-0.0962915 0.694898 0.000840223)
(-0.111554 0.601187 0.000974011)
(-0.128681 0.507984 0.00112319)
(-0.140028 0.419432 0.0012222)
(-0.160117 0.336998 0.00139741)
(-0.17188 0.264019 0.00150009)
(-0.18944 0.198692 0.00165346)
(-0.201892 0.1424 0.00176214)
(-0.214754 0.0938912 0.00187432)
(-0.224403 0.0526595 0.00195873)
(-0.233972 0.018487 0.00204219)
(-0.23905 -0.0100358 0.00208649)
(-0.244644 -0.0329054 0.00213532)
(-0.246614 -0.051254 0.00215255)
(-0.247625 -0.0655725 0.00216136)
(-0.246509 -0.0765329 0.00215165)
(-0.243889 -0.0846819 0.00212879)
(-0.239716 -0.090507 0.00209238)
(-0.234228 -0.0944103 0.0020445)
(-0.227562 -0.0967209 0.00198633)
(-0.219892 -0.0977099 0.00191939)
(-0.21138 -0.0976001 0.00184511)
(-0.202196 -0.0965804 0.00176495)
(-0.192493 -0.0948104 0.00168022)
(-0.00638892 1.21639 5.57642e-05)
(-0.01397 1.19298 0.000121975)
(-0.0276638 1.1376 0.000241477)
(-0.0361475 1.0709 0.000315566)
(-0.0497352 0.996118 0.000434242)
(-0.0569527 0.915233 0.000497198)
(-0.071624 0.827308 0.000625243)
(-0.0813326 0.734757 0.000709749)
(-0.0951032 0.640748 0.000830506)
(-0.110904 0.547564 0.000968016)
(-0.122041 0.459383 0.00106519)
(-0.14118 0.376816 0.00123218)
(-0.15237 0.302795 0.00132987)
(-0.169647 0.235855 0.00148072)
(-0.181476 0.177209 0.00158396)
(-0.194561 0.125959 0.00169809)
(-0.204315 0.0817836 0.0017834)
(-0.214289 0.0445997 0.0018704)
(-0.220003 0.0131004 0.00192025)
(-0.226219 -0.0126794 0.0019745)
(-0.228996 -0.0338285 0.00199876)
(-0.230823 -0.0507922 0.0020147)
(-0.230595 -0.0642288 0.00201274)
(-0.228877 -0.0746315 0.00199776)
(-0.225632 -0.0824864 0.00196945)
(-0.221069 -0.0881992 0.00192963)
(-0.215317 -0.0921046 0.00187944)
(-0.208538 -0.0944808 0.00182028)
(-0.200888 -0.0955597 0.00175352)
(-0.19253 -0.0955423 0.00168058)
(-0.183616 -0.0946022 0.00160274)
(-0.00555816 1.24809 4.85154e-05)
(-0.0113173 1.22843 9.87821e-05)
(-0.0246146 1.17474 0.00021484)
(-0.0314832 1.107 0.000274832)
(-0.0454833 1.02988 0.000397125)
(-0.050614 0.949022 0.000441836)
(-0.0645315 0.860731 0.000563393)
(-0.0721405 0.76967 0.000629533)
(-0.0845084 0.676288 0.000738063)
(-0.0994237 0.583842 0.000867819)
(-0.109668 0.496005 0.000957196)
(-0.127911 0.413515 0.00111641)
(-0.137701 0.338393 0.00120188)
(-0.154107 0.270073 0.00134507)
(-0.164686 0.209375 0.0014374)
(-0.177391 0.155956 0.00154821)
(-0.186846 0.109222 0.0016309)
(-0.196944 0.0694398 0.00171899)
(-0.203032 0.0352345 0.0017721)
(-0.209633 0.00680371 0.00182971)
(-0.213023 -0.0169189 0.00185933)
(-0.215477 -0.0363368 0.00188074)
(-0.215965 -0.0520788 0.00188503)
(-0.214994 -0.0646338 0.00187657)
(-0.212506 -0.0744434 0.00185487)
(-0.208705 -0.0819091 0.00182171)
(-0.203718 -0.0873677 0.00177819)
(-0.197698 -0.0911016 0.00172566)
(-0.190794 -0.0933496 0.00166541)
(-0.183164 -0.0943225 0.00159881)
(-0.174954 -0.0942058 0.00152713)
(-0.00449087 1.27371 3.92075e-05)
(-0.00942296 1.25771 8.22858e-05)
(-0.0203844 1.20701 0.000177919)
(-0.0280087 1.13935 0.000244552)
(-0.0410268 1.06052 0.000358143)
(-0.0458148 0.97926 0.00039988)
(-0.0595963 0.890444 0.000520263)
(-0.0655583 0.801272 0.00057205)
(-0.0771827 0.708343 0.00067409)
(-0.0901441 0.617299 0.00078686)
(-0.0995599 0.529425 0.000868991)
(-0.116432 0.446804 0.00101625)
(-0.125179 0.370681 0.00109261)
(-0.140806 0.301294 0.00122898)
(-0.150549 0.239037 0.00131401)
(-0.162952 0.184018 0.00142218)
(-0.172098 0.135215 0.00150216)
(-0.182079 0.0932221 0.00158923)
(-0.188364 0.0565889 0.00164408)
(-0.195103 0.0257103 0.0017029)
(-0.198861 -0.000448872 0.00173572)
(-0.201691 -0.0222097 0.00176042)
(-0.202651 -0.040165 0.00176882)
(-0.202206 -0.0547755 0.00176495)
(-0.200301 -0.0664685 0.00174833)
(-0.197108 -0.0756261 0.00172048)
(-0.192749 -0.0825881 0.00168245)
(-0.187368 -0.0876416 0.00163549)
(-0.181105 -0.0910301 0.00158084)
(-0.174113 -0.0929724 0.00151981)
(-0.166533 -0.0936644 0.00145362)
(-0.00394971 1.29526 3.4485e-05)
(-0.00778164 1.28234 6.79614e-05)
(-0.0177438 1.23636 0.000154879)
(-0.0246231 1.16959 0.000214987)
(-0.0376609 1.09138 0.000328755)
(-0.043211 1.00784 0.000377178)
(-0.0568817 0.919109 0.000496548)
(-0.0620143 0.829751 0.000541153)
(-0.0732223 0.737172 0.000639533)
(-0.0846223 0.6472 0.000738605)
(-0.0928883 0.559932 0.000810701)
(-0.108522 0.477489 0.000947153)
(-0.116097 0.400772 0.0010133)
(-0.130884 0.330552 0.00114235)
(-0.139708 0.266925 0.00121937)
(-0.151447 0.210499 0.00132175)
(-0.160029 0.159739 0.0013968)
(-0.169562 0.115805 0.00147996)
(-0.175731 0.0768771 0.0015338)
(-0.182312 0.0437687 0.00159125)
(-0.18621 0.0153573 0.00162529)
(-0.189227 -0.00857934 0.00165162)
(-0.190501 -0.0286081 0.00166277)
(-0.190432 -0.0451607 0.00166218)
(-0.188966 -0.0586466 0.0016494)
(-0.18625 -0.0694269 0.0016257)
(-0.182397 -0.0778345 0.00159209)
(-0.177546 -0.0841609 0.00154975)
(-0.171829 -0.0886532 0.00149987)
(-0.165392 -0.0915363 0.00144369)
(-0.15837 -0.093015 0.00138237)
(-0.00353427 1.31384 3.08596e-05)
(-0.00672428 1.3036 5.87264e-05)
(-0.0155988 1.26169 0.000136168)
(-0.021704 1.1977 0.000189502)
(-0.0348086 1.11981 0.00030384)
(-0.0399847 1.0368 0.000348972)
(-0.053981 0.94646 0.000471196)
(-0.0608009 0.857992 0.000530525)
(-0.0717162 0.764414 0.000626426)
(-0.083492 0.675144 0.000728791)
(-0.0914954 0.58776 0.000798625)
(-0.105846 0.505589 0.000923873)
(-0.11233 0.428298 0.000980492)
(-0.125831 0.357429 0.00109835)
(-0.133347 0.292629 0.00116396)
(-0.143939 0.234901 0.00125633)
(-0.151434 0.182511 0.00132184)
(-0.159779 0.136811 0.00139461)
(-0.165466 0.0959641 0.00144425)
(-0.171433 0.060852 0.00149632)
(-0.175176 0.0304155 0.00152901)
(-0.17811 0.0044739 0.00155461)
(-0.179484 -0.0174877 0.00156661)
(-0.179613 -0.0358646 0.00156774)
(-0.178439 -0.0510448 0.00155751)
(-0.176079 -0.0633722 0.00153693)
(-0.172628 -0.0731628 0.00150681)
(-0.168214 -0.0807099 0.00146829)
(-0.16296 -0.0862632 0.00142245)
(-0.157006 -0.0900522 0.00137048)
(-0.150481 -0.0922898 0.0013135)
(-0.0031125 1.33047 2.71772e-05)
(-0.00573346 1.32242 5.00816e-05)
(-0.0133015 1.28501 0.000116111)
(-0.0197146 1.22372 0.000172108)
(-0.0305393 1.1481 0.000266655)
(-0.0377706 1.06472 0.000329801)
(-0.0499722 0.975351 0.000436086)
(-0.0564675 0.887343 0.000492626)
(-0.0678372 0.793025 0.000592553)
(-0.0788226 0.704916 0.000687974)
(-0.086811 0.615392 0.000757702)
(-0.100181 0.53305 0.000874391)
(-0.106203 0.454366 0.000926975)
(-0.118927 0.382573 0.0010381)
(-0.125786 0.316461 0.00109798)
(-0.135659 0.257321 0.00118408)
(-0.142569 0.20356 0.00124446)
(-0.150286 0.156172 0.00131174)
(-0.155686 0.113759 0.00135888)
(-0.161285 0.076856 0.00140775)
(-0.164945 0.044632 0.0014397)
(-0.167838 0.0168761 0.00146494)
(-0.1693 -0.00686235 0.00147772)
(-0.169584 -0.0269409 0.00148021)
(-0.168631 -0.0437158 0.0014719)
(-0.166548 -0.0575103 0.00145373)
(-0.163415 -0.0686185 0.0014264)
(-0.159358 -0.0773303 0.00139099)
(-0.154497 -0.0838972 0.00134857)
(-0.148962 -0.0885524 0.00130026)
(-0.142878 -0.0915159 0.00124714)
(-0.00276811 1.34413 2.41732e-05)
(-0.00449555 1.33818 3.92752e-05)
(-0.0115401 1.30443 0.000100748)
(-0.0160977 1.24709 0.000140539)
(-0.0269579 1.17322 0.000235358)
(-0.0339065 1.09011 0.000295966)
(-0.0448746 1.00153 0.000391707)