/*--------------------------------*- C++ -*----------------------------------*\
| =========                 |                                                 |
| \\      /  F ield         | OpenFOAM: The Open Source CFD Toolbox           |
|  \\    /   O peration     | Version:  v2012                                 |
|   \\  /    A nd           | Website:  www.openfoam.com                      |
|    \\/     M anipulation  |                                                 |
\*---------------------------------------------------------------------------*/
FoamFile
{
    version     2.0;
    format      ascii;
    class       surfaceScalarField;
    location    "0.8";
    object      alphaPhi0.water;
}
// * * * * * * * * * * * * * * * * * * * * * * * * * * * * * * * * * * * * * //

dimensions      [0 3 -1 0 0 0 0];
oriented        oriented;


internalField   nonuniform List<scalar> 
8134
(
-3.38078e-08
-7.77606e-09
-3.63565e-15
-2.71493e-08
-6.65842e-09
-3.22405e-15
-2.1411e-08
-5.73838e-09
-2.7077e-15
-1.64562e-08
-4.95481e-09
-2.22786e-15
-1.21819e-08
-4.27425e-09
-1.97188e-15
-8.50865e-09
-3.67325e-09
-1.69922e-15
-5.36992e-09
-3.13873e-09
-1.4945e-15
-2.70838e-09
-2.66154e-09
-1.36929e-15
-4.72306e-10
-2.23607e-09
-1.21199e-15
1.38848e-09
-1.86079e-09
-1.14763e-15
2.91675e-09
-1.52827e-09
-1.09053e-15
4.15391e-09
-1.23716e-09
-1.03473e-15
5.13729e-09
-9.83377e-10
-1.61106e-15
5.90124e-09
-7.63968e-10
1.74572e-16
6.4766e-09
-5.75373e-10
-4.10528e-16
6.89066e-09
-4.14061e-10
-5.40908e-16
7.16737e-09
-2.76709e-10
-5.31882e-16
7.32762e-09
-1.60224e-10
-4.47281e-16
7.38948e-09
-6.18703e-11
-4.07807e-16
7.36809e-09
2.13558e-11
-3.71221e-16
7.27705e-09
9.10517e-11
-3.47503e-16
7.12731e-09
1.49709e-10
-3.28028e-16
6.92798e-09
1.9937e-10
-3.14433e-16
6.68599e-09
2.41953e-10
-3.10688e-16
6.40691e-09
2.79106e-10
-3.08297e-16
6.09425e-09
3.12632e-10
-3.06888e-16
5.75032e-09
3.43935e-10
-3.20715e-16
5.3761e-09
3.74246e-10
-2.97986e-16
4.97137e-09
4.04696e-10
-2.8303e-16
4.5362e-09
4.35184e-10
-3.4401e-16
4.07089e-09
4.65306e-10
-2.60471e-16
3.57781e-09
4.93072e-10
-1.82118e-16
3.06249e-09
5.15327e-10
-2.18966e-16
2.53472e-09
5.27759e-10
-1.87405e-16
2.00967e-09
5.25061e-10
-2.11476e-16
1.50668e-09
5.02989e-10
-7.90129e-17
1.04711e-09
4.59573e-10
4.52658e-17
6.50426e-10
3.9668e-10
2.65044e-16
3.30546e-10
3.1988e-10
3.60041e-16
9.41186e-11
2.36429e-10
-1.74986e-16
-5.09123e-11
1.45034e-10
-5.52651e-16
-8.60577e-11
3.51488e-11
-2.90059e-16
-8.60563e-11
3.13412e-16
-4.32203e-08
-1.50303e-08
-6.99574e-15
-3.65265e-08
-1.33522e-08
-6.42913e-15
-3.03254e-08
-1.19395e-08
-5.76991e-15
-2.45666e-08
-1.07137e-08
-5.1379e-15
-1.92139e-08
-9.62693e-09
-4.7279e-15
-1.42458e-08
-8.64133e-09
-4.29097e-15
-9.65001e-09
-7.73451e-09
-3.94247e-15
-5.42193e-09
-6.88961e-09
-3.63226e-15
-1.56059e-09
-6.09741e-09
-3.30704e-15
1.93343e-09
-5.35481e-09
-3.09787e-15
5.06029e-09
-4.65511e-09
-2.90346e-15
7.82285e-09
-3.99971e-09
-2.70585e-15
1.02261e-08
-3.38664e-09
-2.62725e-15
1.22796e-08
-2.81746e-09
-4.16141e-16
1.39968e-08
-2.29267e-09
-1.29978e-15
1.53951e-08
-1.81231e-09
-1.35111e-15
1.64944e-08
-1.37603e-09
-1.30971e-15
1.73171e-08
-9.82849e-10
-1.17895e-15
1.78864e-08
-6.31166e-10
-1.09041e-15
1.82263e-08
-3.18617e-10
-1.03354e-15
1.83593e-08
-4.19438e-11
-9.88293e-16
1.83081e-08
2.00825e-10
-9.42329e-16
1.80924e-08
4.1513e-10
-9.01039e-16
1.7729e-08
6.05284e-10
-8.7152e-16
1.72323e-08
7.75854e-10
-8.42954e-16
1.66126e-08
9.3225e-10
-8.12068e-16
1.58774e-08
1.07917e-09
-7.83485e-16
1.50307e-08
1.22107e-09
-7.3683e-16
1.40729e-08
1.36233e-09
-6.63006e-16
1.30048e-08
1.50338e-09
-7.81128e-16
1.18265e-08
1.64358e-09
-5.85276e-16
1.0543e-08
1.77651e-09
-3.98434e-16
9.1673e-09
1.89108e-09
-4.71718e-16
7.72392e-09
1.97112e-09
-3.97476e-16
6.2535e-09
1.99549e-09
-4.4837e-16
4.81102e-09
1.94547e-09
-2.41039e-16
3.4608e-09
1.80978e-09
-2.11507e-16
2.26639e-09
1.5911e-09
1.47146e-16
1.27813e-09
1.30814e-09
3.0297e-16
5.27533e-10
9.87027e-10
-3.73202e-16
4.02656e-11
6.32304e-10
-3.40381e-16
-1.34972e-10
2.10391e-10
-4.67572e-16
-2.21027e-10
1.0044e-16
-4.17132e-08
-2.09165e-08
-7.91002e-15
-3.6054e-08
-1.90113e-08
-7.48897e-15
-3.0624e-08
-1.73695e-08
-6.91431e-15
-2.54135e-08
-1.59242e-08
-6.36369e-15
-2.04121e-08
-1.46283e-08
-6.03471e-15
-1.56132e-08
-1.34403e-08
-5.6535e-15
-1.10143e-08
-1.23333e-08
-5.34782e-15
-6.6194e-09
-1.12845e-08
-5.00764e-15
-2.43704e-09
-1.02798e-08
-4.66709e-15
1.51918e-09
-9.31103e-09
-4.42633e-15
5.23251e-09
-8.36844e-09
-4.19024e-15
8.68611e-09
-7.4533e-09
-3.92205e-15
1.18611e-08
-6.56157e-09
-3.73847e-15
1.47402e-08
-5.69669e-09
-1.19209e-15
1.73095e-08
-4.86199e-09
-2.15212e-15
1.95586e-08
-4.06137e-09
-2.11544e-15
2.14818e-08
-3.29922e-09
-2.06597e-15
2.30786e-08
-2.57956e-09
-1.92217e-15
2.43532e-08
-1.90581e-09
-1.80918e-15
2.53146e-08
-1.2801e-09
-1.72888e-15
2.59759e-08
-7.03262e-10
-1.66566e-15
2.63516e-08
-1.74933e-10
-1.60527e-15
2.6459e-08
3.07881e-10
-1.54175e-15
2.63145e-08
7.49639e-10
-1.48702e-15
2.5934e-08
1.15638e-09
-1.43265e-15
2.53299e-08
1.53632e-09
-1.37581e-15
2.45115e-08
1.89758e-09
-1.32082e-15
2.34842e-08
2.24849e-09
-1.24771e-15
2.22484e-08
2.59798e-09
-1.11521e-15
2.08038e-08
2.948e-09
-1.30701e-15
1.9149e-08
3.29833e-09
-1.02605e-15
1.72884e-08
3.63706e-09
-7.45152e-16
1.52378e-08
3.9418e-09
-8.42884e-16
1.30309e-08
4.17794e-09
-7.13666e-16
1.07286e-08
4.29786e-09
-7.90897e-16
8.41801e-09
4.25602e-09
-4.77833e-16
6.20728e-09
4.02049e-09
-4.22397e-16
4.20955e-09
3.58884e-09
-1.67661e-16
2.52113e-09
2.99655e-09
-1.00823e-16
1.20803e-09
2.30014e-09
-4.53964e-16
3.17018e-10
1.52332e-09
-3.24342e-16
-8.36895e-11
6.111e-10
-1.35986e-16
-3.04714e-10
-2.70447e-16
-3.81746e-08
-2.5551e-08
-7.80446e-15
-3.35177e-08
-2.36681e-08
-7.44584e-15
-2.88996e-08
-2.19876e-08
-7.03289e-15
-2.43531e-08
-2.04708e-08
-6.63842e-15
-1.98958e-08
-1.90855e-08
-6.41585e-15
-1.5538e-08
-1.77981e-08
-6.1028e-15
-1.12855e-08
-1.65858e-08
-5.85402e-15
-7.14425e-09
-1.54258e-08
-5.54121e-15
-3.12098e-09
-1.4303e-08
-5.24819e-15
7.74843e-10
-1.32069e-08
-5.04866e-15
4.52886e-09
-1.21225e-08
-4.84348e-15
8.12822e-09
-1.10527e-08
-4.5729e-15
1.15538e-08
-9.9871e-09
-4.31269e-15
1.47846e-08
-8.92754e-09
-1.80521e-15
1.77985e-08
-7.87599e-09
-2.7093e-15
2.05731e-08
-6.83591e-09
-2.69173e-15
2.30864e-08
-5.81253e-09
-2.68693e-15
2.53187e-08
-4.8118e-09
-2.56981e-15
2.72531e-08
-3.84027e-09
-2.45609e-15
2.88768e-08
-2.90389e-09
-2.36855e-15
3.01816e-08
-2.00799e-09
-2.29918e-15
3.11628e-08
-1.15633e-09
-2.22483e-15
3.18208e-08
-3.49916e-10
-2.14197e-15
3.21578e-08
4.1251e-10
-2.06573e-15
3.21791e-08
1.13522e-09
-1.98906e-15
3.18891e-08
1.82614e-09
-1.90901e-15
3.12915e-08
2.49515e-09
-1.82888e-15
3.03867e-08
3.15348e-09
-1.73119e-15
2.91701e-08
3.81442e-09
-1.53672e-15
2.76362e-08
4.482e-09
-1.79424e-15
2.57773e-08
5.15716e-09
-1.44504e-15
2.35919e-08
5.82237e-09
-1.0797e-15
2.1092e-08
6.44182e-09
-1.20076e-15
1.83129e-08
6.95692e-09
-1.01259e-15
1.53279e-08
7.28292e-09
-1.11584e-15
1.22511e-08
7.33283e-09
-7.12518e-16
9.23348e-09
7.03808e-09
-6.66491e-16
6.44313e-09
6.37919e-09
-3.91899e-16
4.03265e-09
5.40703e-09
-3.6357e-16
2.11314e-09
4.21965e-09
-4.04144e-16
7.57573e-10
2.87889e-09
-6.77976e-16
4.92052e-11
1.31947e-09
8.5578e-17
-2.55508e-10
-5.95899e-18
-3.42544e-08
-2.91074e-08
-7.9568e-15
-3.0507e-08
-2.74154e-08
-7.52828e-15
-2.66548e-08
-2.58398e-08
-7.08172e-15
-2.27571e-08
-2.43686e-08
-6.69004e-15
-1.88543e-08
-2.29882e-08
-6.50369e-15
-1.49748e-08
-2.16776e-08
-6.2412e-15
-1.11373e-08
-2.04233e-08
-6.04218e-15
-7.35537e-09
-1.92078e-08
-5.75619e-15
-3.6393e-09
-1.80191e-08
-5.48623e-15
-9.42231e-13
-1.68452e-08
-5.30298e-15
3.56112e-09
-1.56845e-08
-5.09639e-15
7.0281e-09
-1.45196e-08
-4.84076e-15
1.03915e-08
-1.33505e-08
-4.50256e-15
1.36382e-08
-1.21743e-08
-2.19668e-15
1.67522e-08
-1.099e-08
-3.05073e-15
1.97148e-08
-9.79849e-09
-3.11786e-15
2.25047e-08
-8.60237e-09
-3.17978e-15
2.50986e-08
-7.40564e-09
-3.10619e-15
2.7472e-08
-6.2137e-09
-3.01285e-15
2.96001e-08
-5.03219e-09
-2.9321e-15
3.14596e-08
-3.86738e-09
-2.86083e-15
3.30278e-08
-2.72467e-09
-2.77904e-15
3.42855e-08
-1.60747e-09
-2.68455e-15
3.52156e-08
-5.17743e-10
-2.59376e-15
3.58034e-08
5.4757e-10
-2.50138e-15
3.60355e-08
1.59388e-09
-2.40405e-15
3.59001e-08
2.63056e-09
-2.30406e-15
3.53835e-08
3.6702e-09
-2.18782e-15
3.44684e-08
4.72938e-09
-1.93833e-15
3.31359e-08
5.8146e-09
-2.24158e-15
3.13645e-08
6.92842e-09
-1.84716e-15
2.91384e-08
8.04847e-09
-1.41049e-15
2.64555e-08
9.12475e-09
-1.55307e-15
2.33419e-08
1.00705e-08
-1.30513e-15
1.98711e-08
1.07537e-08
-1.43187e-15
1.61748e-08
1.10292e-08
-9.42524e-16
1.24421e-08
1.07707e-08
-9.13858e-16
8.89923e-09
9.9221e-09
-6.28884e-16
5.7649e-09
8.54137e-09
-5.7284e-16
3.20784e-09
6.77672e-09
-7.1292e-16
1.33552e-09
4.75122e-09
-7.52628e-16
2.45508e-10
2.40948e-09
6.19883e-17
-9.99806e-12
1.06751e-16
-3.02703e-08
-3.17445e-08
-7.50806e-15
-2.73348e-08
-3.0351e-08
-7.17252e-15
-2.41927e-08
-2.89819e-08
-6.86543e-15
-2.09149e-08
-2.76464e-08
-6.59004e-15
-1.75553e-08
-2.63478e-08
-6.46643e-15
-1.41549e-08
-2.5078e-08
-6.23104e-15
-1.07437e-08
-2.38345e-08
-6.04478e-15
-7.34455e-09
-2.2607e-08
-5.76544e-15
-3.97393e-09
-2.13897e-08
-5.50973e-15
-6.43605e-10
-2.01755e-08
-5.33733e-15
2.63346e-09
-1.89616e-08
-5.15354e-15
5.85321e-09
-1.77394e-08
-4.91375e-15
9.00788e-09
-1.65052e-08
-4.52689e-15
1.20904e-08
-1.52568e-08
-2.5005e-15
1.50928e-08
-1.39924e-08
-3.31579e-15
1.80049e-08
-1.27106e-08
-3.46728e-15
2.08141e-08
-1.14115e-08
-3.57472e-15
2.35043e-08
-1.00958e-08
-3.53521e-15
2.60562e-08
-8.76558e-09
-3.46691e-15
2.84467e-08
-7.42287e-09
-3.39788e-15
3.06504e-08
-6.07098e-09
-3.3277e-15
3.26384e-08
-4.71282e-09
-3.24284e-15
3.4381e-08
-3.34992e-09
-3.14418e-15
3.58476e-08
-1.98446e-09
-3.04724e-15
3.70069e-08
-6.11654e-10
-2.94664e-15
3.78263e-08
7.74333e-10
-2.83943e-15
3.82732e-08
2.18369e-09
-2.72777e-15
3.83138e-08
3.62975e-09
-2.60054e-15
3.79106e-08
5.13235e-09
-2.3109e-15
3.70236e-08
6.70176e-09
-2.63319e-15
3.56084e-08
8.34356e-09
-2.21924e-15
3.36239e-08
1.00329e-08
-1.73115e-15
3.1042e-08
1.17068e-08
-1.89282e-15
2.78638e-08
1.32486e-08
-1.58943e-15
2.41468e-08
1.44707e-08
-1.73682e-15
2.0024e-08
1.5152e-08
-1.16907e-15
1.57123e-08
1.50823e-08
-1.15587e-15
1.14935e-08
1.41409e-08
-8.61982e-16
7.66044e-09
1.23745e-08
-7.48821e-16
4.45271e-09
9.98446e-09
-8.83216e-16
2.02434e-09
7.1796e-09
-4.04599e-16
4.94637e-10
3.93918e-09
-1.4957e-16
4.8464e-10
2.8422e-16
-2.64602e-08
-3.36525e-08
-7.52244e-15
-2.42055e-08
-3.26056e-08
-7.18562e-15
-2.16865e-08
-3.1501e-08
-6.86807e-15
-1.89725e-08
-3.03604e-08
-6.56914e-15
-1.61208e-08
-2.91995e-08
-6.43692e-15
-1.31781e-08
-2.80207e-08
-6.22584e-15
-1.01814e-08
-2.68312e-08
-6.0731e-15
-7.15984e-09
-2.56285e-08
-5.80785e-15
-4.13622e-09
-2.44133e-08
-5.55367e-15
-1.12761e-09
-2.31841e-08
-5.37485e-15
1.85094e-09
-2.19401e-08
-5.18608e-15
4.7919e-09
-2.06803e-08
-4.94922e-15
7.68821e-09
-1.94015e-08
-4.53939e-15
1.0535e-08
-1.81037e-08
-2.80766e-15
1.33287e-08
-1.67861e-08
-3.57821e-15
1.60653e-08
-1.54472e-08
-3.77529e-15
1.87401e-08
-1.40863e-08
-3.89337e-15
2.13465e-08
-1.27021e-08
-3.86962e-15
2.38745e-08
-1.12936e-08
-3.81859e-15
2.63105e-08
-9.85901e-09
-3.75703e-15
2.86366e-08
-8.39709e-09
-3.68766e-15
3.08295e-08
-6.90576e-09
-3.60254e-15
3.28609e-08
-5.38117e-09
-3.5058e-15
3.46982e-08
-3.82191e-09
-3.40943e-15
3.63042e-08
-2.21759e-09
-3.30799e-15
3.76369e-08
-5.58463e-10
-3.199e-15
3.86484e-08
1.17222e-09
-3.08422e-15
3.9286e-08
2.99234e-09
-2.95403e-15
3.94913e-08
4.9268e-09
-2.64339e-15
3.91997e-08
6.99353e-09
-2.97341e-15
3.83382e-08
9.20488e-09
-2.55398e-15
3.68322e-08
1.15388e-08
-2.0369e-15
3.46147e-08
1.39245e-08
-2.21132e-15
3.16453e-08
1.62178e-08
-1.86168e-15
2.79447e-08
1.81714e-08
-2.02676e-15
2.36248e-08
1.94719e-08
-1.39303e-15
1.89114e-08
1.97957e-08
-1.39245e-15
1.4132e-08
1.89203e-08
-1.08807e-15
9.65601e-09
1.68505e-08
-9.29874e-16
5.80631e-09
1.38342e-08
-1.05095e-15
2.79822e-09
1.01877e-08
-4.88393e-16
7.84633e-10
5.95276e-09
-7.5661e-16
1.26927e-09
3.27778e-16
-2.29255e-08
-3.49924e-08
-7.18924e-15
-2.12272e-08
-3.4304e-08
-6.93907e-15
-1.92383e-08
-3.34899e-08
-6.71309e-15
-1.70207e-08
-3.2578e-08
-6.49106e-15
-1.46289e-08
-3.15912e-08
-6.39634e-15
-1.21102e-08
-3.05395e-08
-6.20232e-15
-9.50365e-09
-2.94378e-08
-6.05531e-15
-6.84227e-09
-2.82898e-08
-5.78832e-15
-4.15263e-09
-2.7103e-08
-5.53654e-15
-1.45597e-09
-2.58808e-08
-5.36229e-15
1.22987e-09
-2.4626e-08
-5.18445e-15
3.89345e-09
-2.33439e-08
-4.96679e-15
6.5259e-09
-2.20339e-08
-4.57602e-15
9.1217e-09
-2.06995e-08
-3.11176e-15
1.16778e-08
-1.93422e-08
-3.83868e-15
1.41926e-08
-1.79621e-08
-4.0438e-15
1.66657e-08
-1.65594e-08
-4.14398e-15
1.90965e-08
-1.51329e-08
-4.12e-15
2.14834e-08
-1.36805e-08
-4.0755e-15
2.38221e-08
-1.21978e-08
-4.01495e-15
2.61052e-08
-1.06802e-08
-3.94462e-15
2.83199e-08
-9.12059e-09
-3.86075e-15
3.04478e-08
-7.50889e-09
-3.7688e-15
3.24639e-08
-5.83816e-09
-3.67727e-15
3.43358e-08
-4.08938e-09
-3.5805e-15
3.60234e-08
-2.24619e-09
-3.47571e-15
3.74772e-08
-2.81555e-10
-3.36524e-15
3.86356e-08
1.8341e-09
-3.23889e-15
3.94265e-08
4.1356e-09
-2.92664e-15
3.97656e-08
6.65458e-09
-3.25665e-15
3.95534e-08
9.41701e-09
-2.84281e-15
3.86793e-08
1.24128e-08
-2.31745e-15
3.70302e-08
1.55737e-08
-2.49931e-15
3.45108e-08
1.87371e-08
-2.11658e-15
3.10833e-08
2.15989e-08
-2.29331e-15
2.68123e-08
2.3743e-08
-1.61425e-15
2.1905e-08
2.47029e-08
-1.62263e-15
1.67155e-08
2.41097e-08
-1.30507e-15
1.16841e-08
2.18819e-08
-1.10919e-15
7.22527e-09
1.8293e-08
-1.22644e-15
3.63154e-09
1.37814e-08
-6.63033e-16
1.10469e-09
8.4796e-09
-1.09684e-15
2.37397e-09
2.45034e-16
-1.97325e-08
-3.59064e-08
-7.09341e-15
-1.84738e-08
-3.55626e-08
-6.89784e-15
-1.69223e-08
-3.50414e-08
-6.68251e-15
-1.51291e-08
-3.43712e-08
-6.41791e-15
-1.31421e-08
-3.35781e-08
-6.30242e-15
-1.10053e-08
-3.26763e-08
-6.13509e-15
-8.75709e-09
-3.1686e-08
-6.03674e-15
-6.43095e-09
-3.0616e-08
-5.80345e-15
-4.05523e-09
-2.94787e-08
-5.56627e-15
-1.65345e-09
-2.82825e-08
-5.39148e-15
7.54323e-10
-2.70337e-08
-5.21174e-15
3.15365e-09
-2.57432e-08
-5.00389e-15
5.53324e-09
-2.44135e-08
-4.64574e-15
7.88574e-09
-2.30521e-08
-3.4068e-15
1.02068e-08
-2.16633e-08
-4.07793e-15
1.24946e-08
-2.02499e-08
-4.26232e-15
1.47496e-08
-1.88144e-08
-4.32987e-15
1.69738e-08
-1.7357e-08
-4.29691e-15
1.91698e-08
-1.58765e-08
-4.251e-15
2.13399e-08
-1.43679e-08
-4.18698e-15
2.34849e-08
-1.28252e-08
-4.11486e-15
2.56022e-08
-1.1238e-08
-4.03266e-15
2.76849e-08
-9.59137e-09
-3.94628e-15
2.97198e-08
-7.87325e-09
-3.86086e-15
3.16862e-08
-6.05565e-09
-3.77118e-15
3.3554e-08
-4.11411e-09
-3.67439e-15
3.52824e-08
-2.00991e-09
-3.57269e-15
3.68158e-08
3.00869e-10
-3.45487e-15
3.80805e-08
2.87064e-09
-3.15714e-15
3.89843e-08
5.75093e-09
-3.47319e-15
3.94112e-08
8.99003e-09
-3.07938e-15
3.92218e-08
1.26021e-08
-2.56165e-15
3.82591e-08
1.65365e-08
-2.74949e-15
3.63669e-08
2.06293e-08
-2.34945e-15
3.34329e-08
2.4533e-08
-2.54552e-15
2.94476e-08
2.77283e-08
-1.83389e-15
2.4568e-08
2.95825e-08
-1.84465e-15
1.91455e-08
2.95322e-08
-1.51136e-15
1.3675e-08
2.73523e-08
-1.27972e-15
8.6647e-09
2.33034e-08
-1.35243e-15
4.49849e-09
1.79477e-08
-8.36437e-16
1.44457e-09
1.15335e-08
-1.06293e-15
3.81854e-09
-7.29717e-17
-1.68942e-08
-6.66436e-15
-1.59774e-08
-6.64797e-15
-1.47801e-08
-3.62386e-08
-6.60157e-15
-1.33425e-08
-3.58089e-08
-6.43032e-15
-1.17045e-08
-3.52161e-08
-6.34698e-15
-9.9049e-09
-3.44759e-08
-6.17359e-15
-7.97917e-09
-3.36117e-08
-6.05664e-15
-5.95941e-09
-3.26357e-08
-5.81227e-15
-3.87376e-09
-3.15643e-08
-5.56869e-15
-1.74644e-09
-3.04099e-08
-5.39091e-15
4.01371e-10
-2.91815e-08
-5.21723e-15
2.55337e-09
-2.78952e-08
-5.03071e-15
4.69619e-09
-2.65563e-08
-4.72029e-15
6.82068e-09
-2.51766e-08
-3.66124e-15
8.92067e-09
-2.37633e-08
-4.27835e-15
1.0993e-08
-2.23222e-08
-4.42525e-15
1.30371e-08
-2.08586e-08
-4.46008e-15
1.50551e-08
-1.9375e-08
-4.41455e-15
1.70508e-08
-1.78722e-08
-4.36329e-15
1.90294e-08
-1.63466e-08
-4.29386e-15
2.09964e-08
-1.47922e-08
-4.21989e-15
2.29562e-08
-1.31979e-08
-4.1391e-15
2.49108e-08
-1.15459e-08
-4.0573e-15
2.68586e-08
-9.82117e-09
-3.9774e-15
2.87915e-08
-7.98843e-09
-3.8948e-15
3.06933e-08
-6.01606e-09
-3.80703e-15
3.25372e-08
-3.85381e-09
-3.71604e-15
3.4282e-08
-1.4437e-09
-3.60823e-15
3.58667e-08
1.28567e-09
-3.33629e-15
3.72045e-08
4.41327e-09
-3.6404e-15
3.81779e-08
8.01655e-09
-3.26404e-15
3.86335e-08
1.21464e-08
-2.76635e-15
3.8382e-08
1.67881e-08
-2.95824e-15
3.72117e-08
2.17995e-08
-2.55637e-15
3.493e-08
2.68147e-08
-2.76074e-15
3.14335e-08
3.12249e-08
-2.04356e-15
2.67959e-08
3.42199e-08
-2.05611e-15
2.13304e-08
3.49978e-08
-1.70708e-15
1.55603e-08
3.31225e-08
-1.44331e-15
1.00793e-08
2.87843e-08
-1.47705e-15
5.37311e-09
2.26539e-08
-9.5424e-16
1.79411e-09
1.51125e-08
-8.25119e-16
5.61265e-09
-3.99007e-16
-1.28333e-08
-3.71541e-08
-6.5967e-15
-1.16885e-08
-3.69536e-08
-6.36506e-15
-1.03464e-08
-3.65582e-08
-6.25515e-15
-8.83957e-09
-3.59827e-08
-6.10547e-15
-7.19937e-09
-3.52519e-08
-6.02392e-15
-5.45524e-09
-3.43799e-08
-5.81863e-15
-3.63385e-09
-3.33857e-08
-5.59709e-15
-1.75886e-09
-3.22848e-08
-5.42099e-15
1.48384e-10
-3.10888e-08
-5.24531e-15
2.07138e-09
-2.98182e-08
-5.06753e-15
3.99488e-09
-2.84798e-08
-4.79653e-15
5.90837e-09
-2.70901e-08
-3.87951e-15
7.80413e-09
-2.5659e-08
-4.4328e-15
9.67739e-09
-2.41955e-08
-4.53912e-15
1.15262e-08
-2.27074e-08
-4.54584e-15
1.33515e-08
-2.12002e-08
-4.48832e-15
1.51565e-08
-1.96772e-08
-4.43091e-15
1.69466e-08
-1.81367e-08
-4.35611e-15
1.87291e-08
-1.65747e-08
-4.28047e-15
2.05118e-08
-1.49807e-08
-4.20022e-15
2.23024e-08
-1.33363e-08
-4.1214e-15
2.41071e-08
-1.1626e-08
-4.04533e-15
2.59284e-08
-9.80967e-09
-3.96832e-15
2.77633e-08
-7.85111e-09
-3.88811e-15
2.96002e-08
-5.69069e-09
-3.80667e-15
3.1415e-08
-3.25836e-09
-3.70863e-15
3.31662e-08
-4.6566e-10
-3.46767e-15
3.47846e-08
2.79497e-09
-3.74793e-15
3.61657e-08
6.63529e-09
-3.39837e-15
3.71597e-08
1.11523e-08
-2.93122e-15
3.75636e-08
1.63842e-08
-3.12541e-15
3.7126e-08
2.22371e-08
-2.73516e-15
3.55808e-08
2.83599e-08
-2.94791e-15
3.2722e-08
3.40837e-08
-2.24789e-15
2.85139e-08
3.84279e-08
-2.25558e-15
2.31931e-08
4.03186e-08
-1.89245e-15
1.72764e-08
3.90392e-08
-1.60259e-15
1.14251e-08
3.46357e-08
-1.61486e-15
6.22972e-09
2.78493e-08
-1.13294e-15
2.14316e-09
1.9199e-08
-9.4777e-16
7.75582e-09
-5.34423e-16
-1.10873e-08
-3.7848e-08
-6.41766e-15
-1.01809e-08
-3.78601e-08
-6.32954e-15
-9.08636e-09
-3.76527e-08
-6.28396e-15
-7.83035e-09
-3.72387e-08
-6.1461e-15
-6.43961e-09
-3.66426e-08
-6.0286e-15
-4.94027e-09
-3.58792e-08
-5.83768e-15
-3.35667e-09
-3.49693e-08
-5.60791e-15
-1.71114e-09
-3.39304e-08
-5.42674e-15
-2.40923e-11
-3.27758e-08
-5.25247e-15
1.68821e-09
-3.15305e-08
-5.0864e-15
3.40981e-09
-3.02014e-08
-4.86034e-15
5.12917e-09
-2.88095e-08
-4.05132e-15
6.83752e-09
-2.73674e-08
-4.54429e-15
8.52876e-09
-2.58867e-08
-4.61636e-15
1.01995e-08
-2.43782e-08
-4.60017e-15
1.18492e-08
-2.28498e-08
-4.53256e-15
1.34797e-08
-2.13077e-08
-4.46952e-15
1.50954e-08
-1.97525e-08
-4.38996e-15
1.67034e-08
-1.81827e-08
-4.31294e-15
1.83123e-08
-1.65897e-08
-4.23243e-15
1.99322e-08
-1.49561e-08
-4.1551e-15
2.15736e-08
-1.32675e-08
-4.08096e-15
2.32462e-08
-1.14822e-08
-4.00752e-15
2.49568e-08
-9.56178e-09
-3.93254e-15
2.67067e-08
-7.44063e-09
-3.85803e-15
2.84882e-08
-5.03971e-09
-3.76782e-15
3.02799e-08
-2.25753e-09
-3.5578e-15
3.20363e-08
1.03867e-09
-3.8234e-15
3.36761e-08
4.9954e-09
-3.48734e-15
3.50682e-08
9.7601e-09
-3.0569e-15
3.60165e-08
1.54361e-08
-3.25184e-15
3.62518e-08
2.20017e-08
-2.88456e-15
3.54531e-08
2.91586e-08
-3.10773e-15
3.33166e-08
3.62202e-08
-2.42671e-15
2.96823e-08
4.20621e-08
-2.43906e-15
2.46763e-08
4.53246e-08
-2.06819e-15
1.87687e-08
4.49467e-08
-1.75967e-15
1.26611e-08
4.07433e-08
-1.76503e-15
7.04364e-09
3.34668e-08
-1.32345e-15
2.48171e-09
2.37609e-08
-1.15312e-15
1.02375e-08
-6.61701e-16
-9.53804e-09
-3.83698e-08
-6.394e-15
-8.82343e-09
-3.85747e-08
-6.28977e-15
-7.93395e-09
-3.85422e-08
-6.24556e-15
-6.89057e-09
-3.82821e-08
-6.12281e-15
-5.71546e-09
-3.78177e-08
-6.04668e-15
-4.43115e-09
-3.71635e-08
-5.85243e-15
-3.05931e-09
-3.63412e-08
-5.64042e-15
-1.62024e-09
-3.53694e-08
-5.45876e-15
-1.32498e-10
-3.42636e-08
-5.27979e-15
1.38673e-09
-3.30497e-08
-5.11468e-15
2.92329e-09
-3.1738e-08
-4.91437e-15
4.4648e-09
-3.0351e-08
-4.19134e-15
6.00174e-09
-2.89043e-08
-4.62356e-15
7.52705e-09
-2.7412e-08
-4.66684e-15
9.03621e-09
-2.58874e-08
-4.63295e-15
1.05272e-08
-2.43408e-08
-4.55783e-15
1.20005e-08
-2.2781e-08
-4.49026e-15
1.34591e-08
-2.12112e-08
-4.40698e-15
1.49088e-08
-1.96323e-08
-4.32861e-15
1.63574e-08
-1.80384e-08
-4.24735e-15
1.78153e-08
-1.64139e-08
-4.1703e-15
1.92948e-08
-1.47471e-08
-4.0966e-15
2.08089e-08
-1.29962e-08
-4.02486e-15
2.23706e-08
-1.11236e-08
-3.95288e-15
2.39906e-08
-9.06064e-09
-3.88271e-15
2.56742e-08
-6.72317e-09
-3.79827e-15
2.74175e-08
-4.00098e-09
-3.61679e-15
2.91981e-08
-7.41916e-10
-3.85928e-15
3.09628e-08
3.23065e-09
-3.53912e-15
3.26091e-08
8.11376e-09
-3.14804e-15
3.39641e-08
1.40812e-08
-3.34093e-15
3.47646e-08
2.12011e-08
-3.00461e-15
3.46597e-08
2.92636e-08
-3.2337e-15
3.3266e-08
3.7614e-08
-2.59734e-15
3.02977e-08
4.50303e-08
-2.60614e-15
2.5746e-08
4.98764e-08
-2.23362e-15
1.99952e-08
5.06974e-08
-1.91612e-15
1.37521e-08
4.69864e-08
-1.92418e-15
7.79215e-09
3.94268e-08
-1.51674e-15
2.80016e-09
2.87529e-08
-1.34536e-15
1.30377e-08
-8.06445e-16
-8.17445e-09
-3.87593e-08
-6.31315e-15
-7.61302e-09
-3.91361e-08
-6.26247e-15
-6.89203e-09
-3.92632e-08
-6.23017e-15
-6.02743e-09
-3.91467e-08
-6.10484e-15
-5.0371e-09
-3.88081e-08
-6.02256e-15
-3.94005e-09
-3.82606e-08
-5.85177e-15
-2.75512e-09
-3.75261e-08
-5.63687e-15
-1.50041e-09
-3.66241e-08
-5.45754e-15
-1.92825e-10
-3.55712e-08
-5.2823e-15
1.15178e-09
-3.43944e-08
-5.12547e-15
2.51978e-09
-3.3106e-08
-4.95917e-15
3.89895e-09
-3.17302e-08
-4.30029e-15
5.27949e-09
-3.02849e-08
-4.67982e-15
6.65375e-09
-2.87863e-08
-4.69965e-15
8.01635e-09
-2.725e-08
-4.65211e-15
9.36422e-09
-2.56887e-08
-4.5715e-15
1.06965e-08
-2.41133e-08
-4.50039e-15
1.20148e-08
-2.25295e-08
-4.41418e-15
1.33233e-08
-2.09408e-08
-4.33469e-15
1.46286e-08
-1.93437e-08
-4.25219e-15
1.59398e-08
-1.77251e-08
-4.17484e-15
1.72692e-08
-1.60765e-08
-4.10057e-15
1.86306e-08
-1.43576e-08
-4.02911e-15
2.00402e-08
-1.25332e-08
-3.95832e-15
2.1514e-08
-1.05345e-08
-3.89021e-15
2.30664e-08
-8.27546e-09
-3.80964e-15
2.47069e-08
-5.64163e-09
-3.6526e-15
2.64326e-08
-2.46756e-09
-3.85907e-15
2.82169e-08
1.44634e-09
-3.56257e-15
2.99897e-08
6.34084e-09
-3.2108e-15
3.16124e-08
1.24586e-08
-3.39793e-15
3.28468e-08
1.99666e-08
-3.09687e-15
3.33392e-08
2.87713e-08
-3.32759e-15
3.26526e-08
3.83006e-08
-2.77113e-15
3.0389e-08
4.72939e-08
-2.75728e-15
2.63925e-08
5.38729e-08
-2.38896e-15
2.09282e-08
5.61617e-08
-2.0755e-15
1.46696e-08
5.3245e-08
-2.09154e-15
8.45535e-09
4.56411e-08
-1.72064e-15
3.08967e-09
3.41185e-08
-1.54361e-15
1.61274e-08
-9.7355e-16
-6.98215e-09
-3.90478e-08
-6.34266e-15
-6.54218e-09
-3.95761e-08
-6.29435e-15
-5.95875e-09
-3.98466e-08
-6.26515e-15
-5.24352e-09
-3.9862e-08
-6.12881e-15
-4.41049e-09
-3.96411e-08
-6.02805e-15
-3.47534e-09
-3.91957e-08
-5.86438e-15
-2.45419e-09
-3.85472e-08
-5.65703e-15
-1.36287e-09
-3.77154e-08
-5.47921e-15
-2.16526e-10
-3.67175e-08
-5.30236e-15
9.70614e-10
-3.55815e-08
-5.14693e-15
2.18577e-09
-3.43211e-08
-5.0352e-15
3.41732e-09
-3.29617e-08
-4.4093e-15
4.6555e-09
-3.15231e-08
-4.72322e-15
5.89238e-09
-3.00232e-08
-4.72108e-15
7.1221e-09
-2.84797e-08
-4.6625e-15
8.34077e-09
-2.69073e-08
-4.57799e-15
9.54656e-09
-2.53191e-08
-4.50421e-15
1.07398e-08
-2.37228e-08
-4.41576e-15
1.19231e-08
-2.21241e-08
-4.33522e-15
1.31016e-08
-2.05222e-08
-4.25138e-15
1.42829e-08
-1.89063e-08
-4.17329e-15
1.54779e-08
-1.72716e-08
-4.09786e-15
1.67002e-08
-1.55798e-08
-4.02578e-15
1.7966e-08
-1.37991e-08
-3.95489e-15
1.92943e-08
-1.18627e-08
-3.88713e-15
2.07043e-08
-9.68543e-09
-3.80896e-15
2.22148e-08
-7.15225e-09
-3.67175e-15
2.38373e-08
-4.08997e-09
-3.84639e-15
2.55673e-08
-2.83705e-10
-3.5671e-15
2.73659e-08
4.54214e-09
-3.25168e-15
2.91325e-08
1.06921e-08
-3.42795e-15
3.0667e-08
1.8432e-08
-3.1636e-15
3.16362e-08
2.78022e-08
-3.37546e-15
3.15799e-08
3.8357e-08
-2.89003e-15
3.00108e-08
4.88629e-08
-2.88997e-15
2.66288e-08
5.72549e-08
-2.53441e-15
2.15553e-08
6.12352e-08
-2.24205e-15
1.53937e-08
5.94067e-08
-2.26791e-15
9.01707e-09
5.20178e-08
-1.94355e-15
3.34254e-09
3.9793e-08
-1.76088e-15
1.94699e-08
-1.16765e-15
-5.94505e-09
-3.92599e-08
-6.34895e-15
-5.60083e-09
-3.99204e-08
-6.17252e-15
-5.12914e-09
-4.03183e-08
-6.17155e-15
-4.53807e-09
-4.0453e-08
-6.08023e-15
-3.83827e-09
-4.03409e-08
-6.0051e-15
-3.04234e-09
-3.99916e-08
-5.83445e-15
-2.16383e-09
-3.94258e-08
-5.64246e-15
-1.21643e-09
-3.86628e-08
-5.47105e-15
-2.13465e-10
-3.77205e-08
-5.30076e-15
8.32448e-10
-3.66274e-08
-5.15317e-15
1.90967e-09
-3.53983e-08
-5.07021e-15
3.00743e-09
-3.40595e-08
-4.50163e-15
4.11633e-09
-3.2632e-08
-4.75343e-15
5.22847e-09
-3.11353e-08
-4.73449e-15
6.33769e-09
-2.95889e-08
-4.66739e-15
7.43963e-09
-2.80092e-08
-4.58014e-15
8.53169e-09
-2.64111e-08
-4.50427e-15
9.61317e-09
-2.48043e-08
-4.4139e-15
1.06855e-08
-2.31965e-08
-4.33251e-15
1.17523e-08
-2.1589e-08
-4.24731e-15
1.28196e-08
-1.99736e-08
-4.16829e-15
1.38965e-08
-1.83486e-08
-4.09139e-15
1.49953e-08
-1.66784e-08
-4.01815e-15
1.61314e-08
-1.49352e-08
-3.9464e-15
1.73237e-08
-1.30551e-08
-3.87787e-15
1.85941e-08
-1.09557e-08
-3.80102e-15
1.99662e-08
-8.52442e-09
-3.67906e-15
2.14612e-08
-5.58487e-09
-3.82187e-15
2.30911e-08
-1.91374e-09
-3.55698e-15
2.48435e-08
2.78973e-09
-3.27298e-15
2.66543e-08
8.88135e-09
-3.43326e-15
2.83674e-08
1.67188e-08
-3.20616e-15
2.96873e-08
2.64823e-08
-3.42262e-15
3.01587e-08
3.78857e-08
-2.99247e-15
2.9235e-08
4.97864e-08
-3.00279e-15
2.64865e-08
6.00034e-08
-2.6723e-15
2.18791e-08
6.58426e-08
-2.41574e-15
1.59133e-08
6.53725e-08
-2.45393e-15
9.46553e-09
5.84656e-08
-2.19156e-15
3.55251e-09
4.5706e-08
-2.00334e-15
2.30224e-08
-1.39485e-15
-5.0467e-09
-3.94147e-08
-6.49777e-15
-4.77757e-09
-4.01895e-08
-6.22777e-15
-4.39627e-09
-4.06996e-08
-6.146e-15
-3.90805e-09
-4.09413e-08
-6.07208e-15
-3.32064e-09
-4.09283e-08
-6.00376e-15
-2.64394e-09
-4.06683e-08
-5.83719e-15
-1.88909e-09
-4.01806e-08
-5.65134e-15
-1.06778e-09
-3.94841e-08
-5.4832e-15
-1.91642e-10
-3.85966e-08
-5.31453e-15
7.28266e-10
-3.75473e-08
-5.16922e-15
1.68157e-09
-3.63516e-08
-5.07866e-15
2.6585e-09
-3.50365e-08
-4.56314e-15
3.65029e-09
-3.36238e-08
-4.77443e-15
4.6493e-09
-3.21343e-08
-4.74292e-15
5.64931e-09
-3.05889e-08
-4.66885e-15
6.64569e-09
-2.90056e-08
-4.5794e-15
7.63533e-09
-2.74008e-08
-4.50178e-15
8.61677e-09
-2.57858e-08
-4.40989e-15
9.59047e-09
-2.41701e-08
-4.3278e-15
1.05587e-08
-2.25573e-08
-4.2414e-15
1.15261e-08
-2.09409e-08
-4.16126e-15
1.25e-08
-1.93226e-08
-4.08293e-15
1.34908e-08
-1.76692e-08
-4.00827e-15
1.45125e-08
-1.5957e-08
-3.93533e-15
1.55828e-08
-1.41255e-08
-3.86534e-15
1.67237e-08
-1.20965e-08
-3.78899e-15
1.79607e-08
-9.76155e-09
-3.67833e-15
1.93207e-08
-6.9448e-09
-3.7923e-15
2.08269e-08
-3.41997e-09
-3.53647e-15
2.24866e-08
1.12991e-09
-3.27355e-15
2.4268e-08
7.10009e-09
-3.40993e-15
2.60587e-08
1.4928e-08
-3.22217e-15
2.76107e-08
2.49303e-08
-3.43881e-15
2.84965e-08
3.69999e-08
-3.07119e-15
2.81418e-08
5.0141e-08
-3.09614e-15
2.60112e-08
6.2134e-08
-2.80597e-15
2.19149e-08
6.99388e-08
-2.59659e-15
1.62264e-08
7.10611e-08
-2.64695e-15
9.79364e-09
6.48984e-08
-2.4323e-15
3.71506e-09
5.17846e-08
-2.27546e-15
2.67375e-08
-1.66143e-15
-4.27119e-09
-3.95271e-08
-6.45262e-15
-4.06065e-09
-4.04001e-08
-6.24242e-15
-3.75222e-09
-4.1008e-08
-6.10636e-15
-3.3489e-09
-4.13446e-08
-5.99425e-15
-2.85605e-09
-4.14211e-08
-5.96692e-15
-2.28114e-09
-4.12433e-08
-5.80283e-15
-1.63315e-09
-4.08286e-08
-5.63625e-15
-9.21896e-10
-4.01954e-08
-5.47288e-15
-1.57428e-10
-3.93611e-08
-5.3107e-15
6.50589e-10
-3.83553e-08
-5.17174e-15
1.49303e-09
-3.71941e-08
-5.09799e-15
2.36123e-09
-3.59047e-08
-4.60881e-15
3.24722e-09
-3.45098e-08
-4.78607e-15
4.1438e-09
-3.30309e-08
-4.74659e-15
5.0449e-09
-3.149e-08
-4.6677e-15
5.94578e-09
-2.99065e-08
-4.57657e-15
6.84304e-09
-2.8298e-08
-4.49798e-15
7.73469e-09
-2.66775e-08
-4.40457e-15
8.62039e-09
-2.50558e-08
-4.32189e-15
9.50141e-09
-2.34384e-08
-4.23434e-15
1.03811e-08
-2.18205e-08
-4.15312e-15
1.12651e-08
-2.02068e-08
-4.07341e-15
1.21622e-08
-1.85663e-08
-3.99736e-15
1.30844e-08
-1.68792e-08
-3.92304e-15
1.40476e-08
-1.50887e-08
-3.85158e-15
1.50724e-08
-1.31212e-08
-3.77493e-15
1.61842e-08
-1.08735e-08
-3.67184e-15
1.74124e-08
-8.17285e-09
-3.75667e-15
1.87864e-08
-4.7941e-09
-3.50156e-15
2.03279e-08
-4.11576e-10
-3.24308e-15
2.203e-08
5.398e-09
-3.35627e-15
2.38204e-08
1.31376e-08
-3.20172e-15
2.55017e-08
2.32491e-08
-3.43871e-15
2.66901e-08
3.58115e-08
-3.11315e-15
2.68125e-08
5.00186e-08
-3.1743e-15
2.52567e-08
6.36899e-08
-2.94043e-15
2.16886e-08
7.35069e-08
-2.78706e-15
1.6339e-08
7.64107e-08
-2.84234e-15
9.99908e-09
7.12383e-08
-2.69693e-15
3.82757e-09
5.79561e-08
-2.58573e-15
3.05651e-08
-1.96357e-15
-3.6036e-09
-3.96083e-08
-6.60124e-15
-3.43855e-09
-4.05651e-08
-6.33701e-15
-3.18867e-09
-4.12579e-08
-6.21352e-15
-2.85528e-09
-4.1678e-08
-6.01035e-15
-2.44179e-09
-4.18346e-08
-5.93284e-15
-1.95361e-09
-4.17314e-08
-5.79337e-15
-1.39774e-09
-4.13845e-08
-5.63369e-15
-7.82271e-10
-4.08108e-08
-5.47428e-15
-1.15788e-10
-4.00276e-08
-5.31631e-15
5.93272e-10
-3.90644e-08
-5.18158e-15
1.33695e-09
-3.79377e-08
-5.10257e-15
2.10765e-09
-3.66754e-08
-4.6445e-15
2.8983e-09
-3.53004e-08
-4.79755e-15
3.7023e-09
-3.38349e-08
-4.74831e-15
4.5139e-09
-3.23016e-08
-4.66516e-15
5.32841e-09
-3.07209e-08
-4.57252e-15
6.14226e-09
-2.91119e-08
-4.49274e-15
6.95313e-09
-2.74884e-08
-4.39839e-15
7.76012e-09
-2.58628e-08
-4.31526e-15
8.56369e-09
-2.4242e-08
-4.22655e-15
9.36608e-09
-2.26228e-08
-4.14438e-15
1.01717e-08
-2.10125e-08
-4.06343e-15
1.09875e-08
-1.9382e-08
-3.98602e-15
1.18236e-08
-1.77153e-08
-3.91032e-15