/*--------------------------------*- C++ -*----------------------------------*\
| =========                 |                                                 |
| \\      /  F ield         | OpenFOAM: The Open Source CFD Toolbox           |
|  \\    /   O peration     | Version:  v2012                                 |
|   \\  /    A nd           | Website:  www.openfoam.com                      |
|    \\/     M anipulation  |                                                 |
\*---------------------------------------------------------------------------*/
FoamFile
{
    version     2.0;
    format      ascii;
    class       volScalarField;
    location    "0.9";
    object      alpha.water;
}
// * * * * * * * * * * * * * * * * * * * * * * * * * * * * * * * * * * * * * //

dimensions      [0 0 0 0 0 0 0];


internalField   nonuniform List<scalar> 
20000
(
-2.53877e-137
-6.02898e-129
-2.53004e-119
-1.888e-105
-8.07223e-100
-3.55501e-92
-7.36557e-87
-1.94594e-80
-6.332e-76
-1.05644e-73
-9.89097e-72
-1.12533e-69
-3.96034e-67
-1.42561e-65
-1.71425e-63
-3.82928e-62
-4.54277e-60
-1.90006e-57
-2.18961e-55
-1.66616e-54
-5.31748e-54
-9.94517e-54
-1.25563e-53
-1.15488e-53
-8.09589e-54
-4.45932e-54
-2.05818e-54
-1.65257e-54
-3.80885e-54
-7.67752e-54
-2.38224e-52
-1.95872e-50
-8.22141e-50
-1.46983e-49
-1.51513e-49
-1.0214e-49
-4.80551e-50
-1.63957e-50
-4.15724e-51
-7.71996e-52
-1.13775e-52
-1.28624e-53
-1.11652e-54
-7.44176e-56
-3.80089e-57
-1.4803e-58
-4.3685e-60
-9.68188e-62
-1.59463e-63
-1.92751e-65
-1.68497e-67
-1.048e-69
-4.55061e-72
-1.34902e-74
-2.65723e-77
-3.35751e-80
-2.5886e-83
-1.12523e-86
-2.38295e-90
-1.70142e-94
-7.11427e-136
-1.51683e-127
-7.25972e-118
-5.23809e-104
-1.9706e-98
-6.88809e-91
-1.29404e-85
-2.76962e-79
-7.35649e-75
-1.10679e-72
-9.36566e-71
-9.70592e-69
-3.18304e-66
-1.06876e-64
-1.19002e-62
-2.50491e-61
-2.73272e-59
-1.0899e-56
-1.20608e-54
-8.90311e-54
-2.7734e-53
-5.08123e-53
-6.30214e-53
-5.70832e-53
-3.94987e-53
-2.15189e-53
-9.77244e-54
-7.0656e-54
-1.50015e-53
-2.98176e-53
-9.4682e-52
-8.0559e-50
-3.41687e-49
-6.16974e-49
-6.42786e-49
-4.38439e-49
-2.08975e-49
-7.23261e-50
-1.86275e-50
-3.52045e-51
-5.28403e-52
-6.09178e-53
-5.39988e-54
-3.6803e-55
-1.9247e-56
-7.6851e-58
-2.32783e-59
-5.30062e-61
-8.97621e-63
-1.11601e-64
-1.0034e-66
-6.41466e-69
-2.85911e-71
-8.68136e-74
-1.74614e-76
-2.2439e-79
-1.75056e-82
-7.64961e-86
-1.61234e-89
-1.12082e-93
-1.56088e-134
-3.64578e-126
-2.31716e-116
-1.45539e-102
-4.74985e-97
-1.33466e-89
-2.24214e-84
-3.88224e-78
-8.41101e-74
-1.14114e-71
-8.72373e-70
-8.23136e-68
-2.51551e-65
-7.88042e-64
-8.12176e-62
-1.61085e-60
-1.61617e-58
-6.14581e-56
-6.53052e-54
-4.67733e-53
-1.42238e-52
-2.55324e-52
-3.11139e-52
-2.77585e-52
-1.89623e-52
-1.02198e-52
-4.57259e-53
-2.9985e-53
-5.81952e-53
-1.13837e-52
-3.69869e-51
-3.25917e-49
-1.3975e-48
-2.54965e-48
-2.68569e-48
-1.85417e-48
-8.95624e-49
-3.14545e-49
-8.23145e-50
-1.58381e-50
-2.42188e-51
-2.84835e-52
-2.57926e-53
-1.7983e-54
-9.634e-56
-3.94574e-57
-1.22743e-58
-2.87341e-60
-5.00669e-62
-6.40813e-64
-5.93153e-66
-3.9018e-68
-1.78715e-70
-5.5641e-73
-1.14374e-75
-1.49515e-78
-1.17909e-81
-5.16184e-85
-1.07382e-88
-7.10104e-93
-2.65423e-133
-8.35401e-125
-7.98401e-115
-4.01379e-101
-1.13054e-95
-2.60631e-88
-3.83036e-83
-5.34506e-77
-9.46134e-73
-1.15752e-70
-7.9905e-69
-6.86129e-67
-1.95389e-64
-5.7125e-63
-5.44728e-61
-1.01793e-59
-9.39326e-58
-3.40537e-55
-3.47462e-53
-2.41505e-52
-7.17077e-52
-1.26137e-51
-1.51053e-51
-1.32762e-51
-8.95509e-52
-4.77549e-52
-2.10754e-52
-1.26308e-52
-2.22399e-52
-4.2711e-52
-1.41968e-50
-1.29665e-48
-5.62337e-48
-1.03702e-47
-1.10485e-47
-7.72323e-48
-3.78196e-48
-1.34827e-48
-3.58631e-49
-7.02751e-50
-1.09516e-50
-1.31441e-51
-1.21631e-52
-8.67848e-54
-4.76464e-55
-2.00255e-56
-6.40085e-58
-1.54141e-59
-2.76536e-61
-3.64653e-63
-3.47808e-65
-2.35659e-67
-1.11047e-69
-3.54918e-72
-7.46378e-75
-9.9322e-78
-7.91657e-81
-3.46627e-84
-7.08676e-88
-4.44852e-92
-4.25051e-132
-1.81888e-123
-2.86379e-113
-1.08873e-99
-2.65621e-94
-5.13695e-87
-6.44878e-82
-7.21889e-76
-1.04683e-71
-1.15489e-69
-7.19561e-68
-5.62015e-66
-1.49131e-63
-4.07029e-62
-3.58964e-60
-6.31956e-59
-5.36385e-57
-1.85368e-54
-1.81611e-52
-1.2252e-51
-3.55258e-51
-6.12484e-51
-7.20918e-51
-6.24323e-51
-4.15899e-51
-2.19489e-51
-9.56412e-52
-5.28016e-52
-8.37518e-52
-1.57448e-51
-5.35239e-50
-5.07137e-48
-2.22554e-47
-4.15019e-47
-4.47386e-47
-3.16767e-47
-1.57307e-47
-5.69449e-48
-1.54009e-48
-3.07445e-49
-4.88441e-50
-5.98428e-51
-5.66093e-52
-4.13494e-53
-2.32734e-54
-1.00421e-55
-3.29964e-57
-8.17818e-59
-1.5116e-60
-2.05508e-62
-2.02155e-64
-1.41223e-66
-6.85404e-69
-2.25152e-71
-4.84988e-74
-6.57639e-77
-5.3007e-80
-2.32023e-83
-4.65361e-87
-2.77085e-91
-1.06473e-130
-3.75392e-122
-1.04222e-111
-2.89404e-98
-6.16081e-93
-1.01792e-85
-1.06973e-80
-9.56707e-75
-1.13895e-70
-1.13304e-68
-6.3684e-67
-4.52194e-65
-1.11802e-62
-2.84951e-61
-2.32319e-59
-3.85283e-58
-3.00807e-56
-9.90857e-54
-9.32139e-52
-6.10496e-51
-1.729e-50
-2.92214e-50
-3.38127e-50
-2.8858e-50
-1.89891e-50
-9.91951e-51
-4.27146e-51
-2.18973e-51
-3.10907e-51
-5.70127e-51
-1.9814e-49
-1.9493e-47
-8.66026e-47
-1.63376e-46
-1.78267e-46
-1.27893e-46
-6.44309e-47
-2.36915e-47
-6.5169e-48
-1.32578e-48
-2.14791e-49
-2.6872e-50
-2.5994e-51
-1.94437e-52
-1.12235e-53
-4.97358e-55
-1.68066e-56
-4.28934e-58
-8.17272e-60
-1.14633e-61
-1.16388e-63
-8.39108e-66
-4.19914e-68
-1.41953e-70
-3.1362e-73
-4.33909e-76
-3.5405e-79
-1.55018e-82
-3.04989e-86
-1.72081e-90
-3.53244e-129
-7.31778e-121
-3.79039e-110
-7.55856e-97
-1.41014e-91
-2.01372e-84
-1.74771e-79
-1.24606e-73
-1.21824e-69
-1.09283e-67
-5.53826e-66
-3.573e-64
-8.2307e-62
-1.95954e-60
-1.47626e-58
-2.30607e-57
-1.65623e-55
-5.19943e-53
-4.69656e-51
-2.98679e-50
-8.26362e-50
-1.36935e-49
-1.55798e-49
-1.31067e-49
-8.52069e-50
-4.40656e-50
-1.8766e-50
-9.00343e-51
-1.13826e-50
-2.02739e-50
-7.19946e-49
-7.36097e-47
-3.31242e-46
-6.3243e-46
-6.98772e-46
-5.08143e-46
-2.59791e-46
-9.70636e-47
-2.71645e-47
-5.63347e-48
-9.31011e-49
-1.18974e-49
-1.1772e-50
-9.02018e-52
-5.34145e-53
-2.43181e-54
-8.45437e-56
-2.22281e-57
-4.36816e-59
-6.32506e-61
-6.63331e-63
-4.93994e-65
-2.55173e-67
-8.88853e-70
-2.01707e-72
-2.85186e-75
-2.35933e-78
-1.03479e-81
-1.99987e-85
-1.07063e-89
-1.0589e-127
-1.34304e-119
-1.36789e-108
-1.95369e-95
-3.18477e-90
-3.95107e-83
-2.81151e-78
-1.59833e-72
-1.28069e-68
-1.03594e-66
-4.73094e-65
-2.77142e-63
-5.94765e-61
-1.32313e-59
-9.20693e-58
-1.35453e-56
-8.94932e-55
-2.67725e-52
-2.32201e-50
-1.43418e-49
-3.8771e-49
-6.30045e-49
-7.04975e-49
-5.84701e-49
-3.75611e-49
-1.92346e-49
-8.10649e-50
-3.66752e-50
-4.11212e-50
-7.07851e-50
-2.56664e-48
-2.72983e-46
-1.24488e-45
-2.40656e-45
-2.6936e-45
-1.98619e-45
-1.03086e-45
-3.91482e-46
-1.11505e-46
-2.35801e-47
-3.97635e-48
-5.19182e-49
-5.25615e-50
-4.12684e-51
-2.50778e-52
-1.17335e-53
-4.19829e-55
-1.13758e-56
-2.30676e-58
-3.45014e-60
-3.74001e-62
-2.87951e-64
-1.53695e-66
-5.52357e-69
-1.28944e-71
-1.86628e-74
-1.56847e-77
-6.9059e-81
-1.31445e-84
-6.69944e-89
-2.85453e-126
-2.31071e-118
-4.881e-107
-5.02101e-94
-7.09465e-89
-7.65243e-82
-4.45177e-77
-2.02285e-71
-1.3229e-67
-9.6492e-66
-3.96868e-64
-2.10965e-62
-4.2174e-60
-8.76967e-59
-5.63375e-57
-7.80498e-56
-4.74396e-54
-1.35222e-51
-1.12607e-49
-6.75641e-49
-1.785e-48
-2.84516e-48
-3.13148e-48
-2.56108e-48
-1.62604e-48
-8.24664e-49
-3.44158e-49
-1.47874e-49
-1.46684e-49
-2.42605e-49
-8.97402e-48
-9.93839e-46
-4.59539e-45
-8.99892e-45
-1.02074e-44
-7.63496e-45
-4.02423e-45
-1.55388e-45
-4.5058e-46
-9.71931e-47
-1.67287e-47
-2.23232e-48
-2.313e-49
-1.86135e-50
-1.16104e-51
-5.58449e-53
-2.05713e-54
-5.74671e-56
-1.20296e-57
-1.85944e-59
-2.08481e-61
-1.6608e-63
-9.16908e-66
-3.40406e-68
-8.18734e-71
-1.21536e-73
-1.03996e-76
-4.60913e-80
-8.67046e-84
-4.22808e-88
-6.92762e-125
-3.71076e-117
-1.71979e-105
-1.28106e-92
-1.55858e-87
-1.45935e-80
-6.93556e-76
-2.5285e-70
-1.34232e-66
-8.8283e-65
-3.26827e-63
-1.57537e-61
-2.93325e-59
-5.70322e-58
-3.3809e-56
-4.41004e-55
-2.46595e-53
-6.69642e-51
-5.35423e-49
-3.12144e-48
-8.06092e-48
-1.2605e-47
-1.36494e-47
-1.10099e-47
-6.91002e-48
-3.47139e-48
-1.4353e-48
-5.89557e-49
-5.17007e-49
-8.16102e-49
-3.07595e-47
-3.55062e-45
-1.66558e-44
-3.30548e-44
-3.80131e-44
-2.88532e-44
-1.54498e-44
-6.06778e-45
-1.79181e-45
-3.94368e-46
-6.93011e-47
-9.45394e-48
-1.0028e-48
-8.27344e-50
-5.29871e-51
-2.62072e-52
-9.94175e-54
-2.86425e-55
-6.19191e-57
-9.89593e-59
-1.14828e-60
-9.4717e-63
-5.41405e-65
-2.07893e-67
-5.15975e-70
-7.87098e-73
-6.87421e-76
-3.07638e-79
-5.74375e-83
-2.69611e-87
-1.52294e-123
-5.5322e-116
-5.97871e-104
-3.22844e-91
-3.37537e-86
-2.73702e-79
-1.06264e-74
-3.12143e-69
-1.33755e-65
-7.9317e-64
-2.64142e-62
-1.15364e-60
-2.00031e-58
-3.63794e-57
-1.9891e-55
-2.44244e-54
-1.25644e-52
-3.25003e-50
-2.49501e-48
-1.41363e-47
-3.56911e-47
-5.47642e-47
-5.83554e-47
-4.64337e-47
-2.88135e-47
-1.4341e-47
-5.8772e-48
-2.32167e-48
-1.80187e-48
-2.69418e-48
-1.03311e-46
-1.24428e-44
-5.92491e-44
-1.19224e-43
-1.39067e-43
-1.07158e-43
-5.83132e-44
-2.33021e-44
-7.00981e-45
-1.57468e-45
-2.82597e-46
-3.94216e-47
-4.28186e-48
-3.62267e-49
-2.38278e-50
-1.21216e-51
-4.7368e-53
-1.40785e-54
-3.14418e-56
-5.19789e-58
-6.24538e-60
-5.33793e-62
-3.16189e-64
-1.25726e-66
-3.22497e-69
-5.06563e-72
-4.52728e-75
-2.05283e-78
-3.82196e-82
-1.73884e-86
-3.06598e-122
-7.61162e-115
-2.05013e-102
-8.01456e-90
-7.20372e-85
-5.04515e-78
-1.60062e-73
-3.80307e-68
-1.3084e-64
-6.99522e-63
-2.0943e-61
-8.28115e-60
-1.33688e-57
-2.27509e-56
-1.14677e-54
-1.32531e-53
-6.27196e-52
-1.54518e-49
-1.1389e-47
-6.27273e-47
-1.54869e-46
-2.33222e-46
-2.446e-46
-1.92034e-46
-1.17839e-46
-5.81176e-47
-2.36172e-47
-9.02029e-48
-6.2139e-48
-8.7282e-48
-3.39842e-46
-4.27533e-44
-2.06773e-43
-4.2209e-43
-4.99596e-43
-3.90967e-43
-2.163e-43
-8.79741e-44
-2.69685e-44
-6.18524e-45
-1.13393e-45
-1.61794e-46
-1.79997e-47
-1.56204e-48
-1.05541e-49
-5.5237e-51
-2.22404e-52
-6.82118e-54
-1.57429e-55
-2.69316e-57
-3.35235e-59
-2.97081e-61
-1.82514e-63
-7.52355e-66
-1.99752e-68
-3.23722e-71
-2.96853e-74
-1.36872e-77
-2.55395e-81
-1.13459e-85
-5.7112e-121
-9.59577e-114
-6.93206e-101
-1.95948e-88
-1.51446e-83
-9.13631e-77
-2.36951e-72
-4.56872e-67
-1.25607e-63
-6.05417e-62
-1.62847e-60
-5.82465e-59
-8.75283e-57
-1.39434e-55
-6.47604e-54
-7.04253e-53
-3.06598e-51
-7.19297e-49
-5.09014e-47
-2.72591e-46
-6.58258e-46
-9.73098e-46
-1.0047e-45
-7.78418e-46
-4.7245e-46
-2.30933e-46
-9.30873e-47
-3.45372e-47
-2.12171e-47
-2.77493e-47
-1.09435e-45
-1.43964e-43
-7.07641e-43
-1.46615e-42
-1.76175e-42
-1.40077e-42
-7.88179e-43
-3.264e-43
-1.01996e-43
-2.38908e-44
-4.47551e-45
-6.53343e-46
-7.44654e-47
-6.62997e-48
-4.60271e-49
-2.47884e-50
-1.02862e-51
-3.25628e-53
-7.76869e-55
-1.37574e-56
-1.7749e-58
-1.63179e-60
-1.04057e-62
-4.45154e-65
-1.22509e-67
-2.05246e-70
-1.93626e-73
-9.11139e-77
-1.71278e-80
-7.48771e-85
-9.90221e-120
-1.09921e-112
-2.31081e-99
-4.71725e-87
-3.13499e-82
-1.62485e-75
-3.44575e-71
-5.4049e-66
-1.18288e-62
-5.13981e-61
-1.2413e-59
-4.01243e-58
-5.61109e-56
-8.3706e-55
-3.58052e-53
-3.663e-52
-1.46696e-50
-3.27681e-48
-2.22629e-46
-1.15953e-45
-2.73927e-45
-3.97597e-45
-4.0421e-45
-3.09118e-45
-1.85601e-45
-8.99291e-46
-3.59687e-46
-1.30167e-46
-7.17591e-47
-8.65892e-47
-3.44792e-45
-4.74862e-43
-2.37377e-42
-4.9945e-42
-6.09565e-42
-4.9264e-42
-2.82034e-42
-1.18962e-42
-3.79072e-43
-9.07095e-44
-1.73688e-44
-2.59479e-45
-3.03062e-46
-2.76897e-47
-1.97554e-48
-1.09507e-49
-4.68412e-51
-1.53091e-52
-3.77651e-54
-6.92513e-56
-9.26378e-58
-8.84049e-60
-5.85577e-62
-2.60233e-64
-7.43364e-67
-1.28988e-69
-1.25514e-72
-6.0498e-76
-1.15171e-79
-4.99387e-84
-1.59986e-118
-1.13249e-111
-7.59212e-98
-1.11792e-85
-6.38685e-81
-2.83683e-74
-4.91991e-70
-6.28953e-65
-1.09234e-61
-4.2787e-60
-9.27177e-59
-2.70586e-57
-3.52024e-55
-4.91984e-54
-1.93721e-52
-1.86389e-51
-6.86618e-50
-1.46008e-47
-9.52372e-46
-4.82544e-45
-1.11546e-44
-1.59002e-44
-1.59199e-44
-1.20195e-44
-7.14065e-45
-3.43022e-45
-1.36173e-45
-4.82363e-46
-2.40448e-46
-2.65253e-46
-1.06227e-44
-1.5335e-42
-7.80129e-42
-1.66783e-41
-2.06849e-41
-1.69998e-41
-9.90622e-42
-4.25757e-42
-1.38389e-42
-3.38418e-43
-6.62517e-44
-1.01316e-44
-1.21291e-45
-1.13747e-46
-8.3419e-48
-4.7602e-49
-2.09935e-50
-7.08518e-52
-1.80762e-53
-3.43333e-55
-4.76383e-57
-4.72117e-59
-3.25044e-61
-1.50195e-63
-4.45893e-66
-8.02774e-69
-8.07751e-72
-4.00218e-75
-7.75543e-79
-3.36158e-83
-2.40606e-117
-1.03634e-110
-2.45782e-96
-2.60738e-84
-1.27997e-79
-4.86027e-73
-6.894e-69
-7.19179e-64
-9.88728e-61
-3.49108e-59
-6.78333e-58
-1.78541e-56
-2.16015e-54
-2.82956e-53
-1.02512e-51
-9.27341e-51
-3.14208e-49
-6.3597e-47
-3.98255e-45
-1.96352e-44
-4.44236e-44
-6.22008e-44
-6.1348e-44
-4.57368e-44
-2.689e-44
-1.2809e-44
-5.04826e-45
-1.7556e-45
-7.98113e-46
-7.97995e-46
-3.19845e-44
-4.84593e-42
-2.51061e-41
-5.45693e-41
-6.88094e-41
-5.75335e-41
-3.41396e-41
-1.49563e-41
-4.96068e-42
-1.24011e-42
-2.48288e-43
-3.88775e-44
-4.77166e-45
-4.59415e-46
-3.46397e-47
-2.03528e-48
-9.25625e-50
-3.22648e-51
-8.51519e-53
-1.67565e-54
-2.41237e-56
-2.48386e-58
-1.77853e-60
-8.55207e-63
-2.64176e-65
-4.94308e-68
-5.15531e-71
-2.6346e-74
-5.22242e-78
-2.28005e-82
-3.34518e-116
-8.2903e-110
-7.83757e-95
-5.98322e-83
-2.522e-78
-8.16785e-72
-9.47563e-68
-8.07306e-63
-8.7682e-60
-2.79059e-58
-4.85875e-57
-1.15209e-55
-1.29579e-53
-1.59157e-52
-5.30274e-51
-4.50864e-50
-1.40498e-48
-2.7063e-46
-1.627e-44
-7.80768e-44
-1.72927e-43
-2.37889e-43
-2.31174e-43
-1.7022e-43
-9.90588e-44
-4.67981e-44
-1.83152e-44
-6.26892e-45
-2.62304e-45
-2.35883e-45
-9.40596e-44
-1.49763e-41
-7.90766e-41
-1.74851e-40
-2.24283e-40
-1.9088e-40
-1.15388e-40
-5.15478e-41
-1.74527e-41
-4.46158e-42
-9.13827e-43
-1.46549e-43
-1.84451e-44
-1.82361e-45
-1.41395e-46
-8.55565e-48
-4.01321e-49
-1.44508e-50
-3.94592e-52
-8.04665e-54
-1.20232e-55
-1.28664e-57
-9.5866e-60
-4.80061e-62
-1.54466e-64
-3.00849e-67
-3.25942e-70
-1.72356e-73
-3.51115e-77
-1.55521e-81
-4.22411e-115
-5.67841e-109
-2.461e-93
-1.35043e-81
-4.88298e-77
-1.3458e-70
-1.27685e-66
-8.88919e-62
-7.61469e-59
-2.1843e-57
-3.40564e-56
-7.26606e-55
-7.5938e-53
-8.74997e-52
-2.67983e-50
-2.14078e-49
-6.1347e-48
-1.1244e-45
-6.4896e-44
-3.03201e-43
-6.57563e-43
-8.88945e-43
-8.51322e-43
-6.19242e-43
-3.56764e-43
-1.67187e-43
-6.4988e-44
-2.19394e-44
-8.52868e-45
-6.85519e-45
-2.69989e-43
-4.52384e-41
-2.43634e-40
-5.48385e-40
-7.15951e-40
-6.20518e-40
-3.82308e-40
-1.74231e-40
-6.02385e-41
-1.57527e-41
-3.30172e-42
-5.42436e-43
-7.00291e-44
-7.11117e-45
-5.67099e-46
-3.53449e-47
-1.71028e-48
-6.36273e-50
-1.79791e-51
-3.80013e-53
-5.89458e-55
-6.55835e-57
-5.08716e-59
-2.65474e-61
-8.90619e-64
-1.80814e-66
-2.03912e-69
-1.11901e-72
-2.35291e-76
-1.06446e-80
-4.68705e-114
-3.23711e-108
-7.60627e-92
-2.99689e-80
-9.28468e-76
-2.17301e-69
-1.68591e-65
-9.59375e-61
-6.47274e-58
-1.67337e-56
-2.3348e-55
-4.47641e-54
-4.34486e-52
-4.69888e-51
-1.3223e-49
-9.92067e-49
-2.614e-47
-4.5581e-45
-2.5256e-43
-1.14916e-42
-2.44095e-42
-3.24356e-42
-3.06189e-42
-2.2006e-42
-1.2554e-42
-5.83656e-43
-2.25382e-43
-7.51757e-44
-2.74024e-44
-1.96013e-44
-7.55912e-43
-1.33482e-40
-7.33832e-40
-1.68254e-39
-2.2371e-39
-1.97555e-39
-1.24111e-39
-5.77257e-40
-2.03883e-40
-5.45595e-41
-1.17056e-41
-1.97065e-42
-2.61022e-43
-2.72298e-44
-2.23391e-45
-1.43436e-46
-7.16092e-48
-2.75288e-49
-8.05095e-51
-1.76408e-52
-2.84131e-54
-3.28768e-56
-2.65598e-58
-1.44525e-60
-5.05971e-63
-1.07211e-65
-1.26088e-68
-7.20019e-72
-1.56884e-75
-7.2941e-80
-4.31527e-113
-1.47421e-107
-2.31305e-90
-6.53695e-79
-1.73271e-74
-3.43662e-68
-2.1799e-64
-1.01421e-59
-5.38263e-57
-1.25401e-55
-1.56476e-54
-2.69219e-53
-2.42541e-51
-2.46318e-50
-6.36634e-49
-4.48392e-48
-1.08617e-46
-1.80164e-44
-9.58366e-43
-4.24796e-42
-8.83965e-42
-1.15485e-41
-1.07482e-41
-7.63419e-42
-4.31324e-42
-1.98978e-42
-7.63436e-43
-2.51954e-43
-8.68751e-44
-5.51864e-44
-2.06284e-42
-3.84472e-40
-2.15956e-39
-5.04729e-39
-6.83859e-39
-6.15656e-39
-3.94579e-39
-1.87383e-39
-6.7636e-40
-1.85281e-40
-4.07033e-41
-7.0238e-42
-9.54734e-43
-1.02342e-43
-8.63893e-45
-5.71546e-46
-2.94444e-47
-1.16984e-48
-3.54146e-50
-8.04568e-52
-1.34584e-53
-1.61995e-55
-1.36347e-57
-7.74038e-60
-2.83003e-62
-6.2657e-65
-7.6975e-68
-4.58514e-71
-1.03898e-74
-4.99215e-79
-2.93303e-112
-5.02705e-107
-6.9175e-89
-1.40091e-77
-3.17163e-73
-5.32044e-67
-2.75863e-63
-1.04956e-58
-4.37659e-56
-9.18753e-55
-1.0246e-53
-1.57961e-52
-1.32e-50
-1.25953e-49
-2.98879e-48
-1.97521e-47
-4.39795e-46
-6.93826e-44
-3.54326e-42
-1.53044e-41
-3.12076e-41
-4.00939e-41
-3.67988e-41
-2.58358e-41
-1.44592e-41
-6.61972e-42
-2.52395e-42
-8.25141e-43
-2.71316e-43
-1.53108e-43
-5.48275e-42
-1.08028e-39
-6.20537e-39
-1.47948e-38
-2.044e-38
-1.87702e-38
-1.22789e-38
-5.95655e-39
-2.19814e-39
-6.16644e-40
-1.38754e-40
-2.45491e-41
-3.4253e-42
-3.77371e-43
-3.2783e-44
-2.23519e-45
-1.18842e-46
-4.88043e-48
-1.52957e-49
-3.60345e-51
-6.26105e-53
-7.8413e-55
-6.8782e-57
-4.07556e-59
-1.55723e-61
-3.60603e-64
-4.6344e-67
-2.88583e-70
-6.82229e-74
-3.40453e-78
-1.1106e-111
-1.14073e-106
-2.03354e-87
-2.94846e-76
-5.69048e-72
-8.05861e-66
-3.41455e-62
-1.06257e-57
-3.47752e-55
-6.57703e-54
-6.55127e-53
-9.03568e-52
-6.99844e-50
-6.27767e-49
-1.36722e-47
-8.47378e-47
-1.73389e-45
-2.60136e-43
-1.27541e-41
-5.36985e-41
-1.07327e-40
-1.35632e-40
-1.22788e-40
-8.52312e-41
-4.72585e-41
-2.14752e-41
-8.13792e-42
-2.63797e-42
-8.33185e-43
-4.18858e-43
-1.41813e-41
-2.95889e-39
-1.73986e-38
-4.2349e-38
-5.96999e-38
-5.59543e-38
-3.73811e-38
-1.85324e-38
-6.9951e-39
-2.01032e-39
-4.63479e-40
-8.40996e-41
-1.20482e-41
-1.36455e-42
-1.2202e-43
-8.57522e-45
-4.70619e-46
-1.99793e-47
-6.48332e-49
-1.58405e-50
-2.85929e-52
-3.72659e-54
-3.40764e-56
-2.10828e-58
-8.42329e-61
-2.0419e-63
-2.74881e-66
-1.79277e-69
-4.43413e-73
-2.30821e-77
-2.50092e-111
-1.29192e-106
-5.87291e-86
-6.09145e-75
-1.00005e-70
-1.19343e-64
-4.13122e-61
-1.05171e-56
-2.69862e-54
-4.59756e-53
-4.0879e-52
-5.0354e-51
-3.61173e-49
-3.04736e-48
-6.08968e-47
-3.53758e-46
-6.65039e-45
-9.48774e-43
-4.46607e-41
-1.83348e-40
-3.59291e-40
-4.46722e-40
-3.98998e-40
-2.73876e-40
-1.50478e-40
-6.78823e-41
-2.55696e-41
-8.22468e-42
-2.51112e-42
-1.13037e-42
-3.5665e-41
-7.89407e-39
-4.75663e-38
-1.18298e-37
-1.70284e-37
-1.62997e-37
-1.11267e-37
-5.6404e-38
-2.17854e-38
-6.41659e-39
-1.51624e-39
-2.82251e-40
-4.15283e-41
-4.83628e-42
-4.45245e-43
-3.22581e-44
-1.82767e-45
-8.02202e-47
-2.69561e-48
-6.83121e-50
-1.28115e-51
-1.73793e-53
-1.65701e-55
-1.07079e-57
-4.47568e-60
-1.13661e-62
-1.60456e-65
-1.09789e-68
-2.84794e-72
-1.55233e-76
-1.28924e-135
-1.45227e-108
-1.66539e-84
-1.23478e-73
-1.72017e-69
-1.72686e-63
-4.88239e-60
-1.01703e-55
-2.04406e-53
-3.13627e-52
-2.48778e-51
-2.73175e-50
-1.81274e-48
-1.43951e-47
-2.63886e-46
-1.43593e-45
-2.47938e-44
-3.3633e-42
-1.52007e-40
-6.08694e-40
-1.1698e-39
-1.43136e-39
-1.26159e-39
-8.56507e-40
-4.66405e-40
-2.08898e-40
-7.82246e-41
-2.49825e-41
-7.41341e-42
-3.00938e-42
-8.71317e-41
-2.04976e-38
-1.26707e-37
-3.22262e-37
-4.7402e-37
-4.63698e-37
-3.2363e-37
-1.67834e-37
-6.63642e-38
-2.0041e-38
-4.85552e-39
-9.27552e-40
-1.40199e-40
-1.67926e-41
-1.59201e-42
-1.18929e-43
-6.95731e-45
-3.15761e-46
-1.09884e-47
-2.88859e-49
-5.62922e-51
-7.94904e-53
-7.90379e-55
-5.3362e-57
-2.33438e-59
-6.2144e-62
-9.20854e-65
-6.61969e-68
-1.80474e-71
-1.03339e-75
-5.03055e-135
-5.75615e-107
-4.63437e-83
-2.45494e-72
-2.89352e-68
-2.43956e-62
-5.63241e-59
-9.60185e-55
-1.51028e-52
-2.08639e-51
-1.47566e-50
-1.4416e-49
-8.8402e-48
-6.61112e-47
-1.11159e-45
-5.66203e-45
-8.97641e-44
-1.15775e-41
-5.02436e-40
-1.96313e-39
-3.70103e-39
-4.45776e-39
-3.87811e-39
-2.60466e-39
-1.40595e-39
-6.25299e-40
-2.32799e-40
-7.38535e-41
-2.13973e-41
-7.90057e-42
-2.06578e-40
-5.17552e-38
-3.28604e-37
-8.55505e-37
-1.28691e-36
-1.28742e-36
-9.19239e-37
-4.87964e-37
-1.97629e-37
-6.12171e-38
-1.52124e-38
-2.98315e-39
-4.63346e-40
-5.70939e-41
-5.57504e-42
-4.29506e-43
-2.5947e-44
-1.21783e-45
-4.38944e-47
-1.19705e-48
-2.42421e-50
-3.56382e-52
-3.69596e-54
-2.60759e-56
-1.19429e-58
-3.33459e-61
-5.19082e-64
-3.92513e-67
-1.12672e-70
-6.79605e-75
-1.34203e-133
-2.25679e-105
-1.26474e-81
-4.78436e-71
-4.75588e-67
-3.36231e-61
-6.33773e-58
-8.84351e-54
-1.08785e-51
-1.35261e-50
-8.52582e-50
-7.39419e-49
-4.18472e-47
-2.9491e-46
-4.54775e-45
-2.16679e-44
-3.15273e-43
-3.86627e-41
-1.61127e-39
-6.14501e-39
-1.13681e-38
-1.34818e-38
-1.15793e-38
-7.69506e-39
-4.11802e-39
-1.81889e-39
-6.73316e-40
-2.12255e-40
-6.02655e-41
-2.04337e-41
-4.74784e-40
-1.26955e-37
-8.28998e-37
-2.21146e-36
-3.40494e-36
-3.4861e-36
-2.54814e-36
-1.38536e-36
-5.74983e-37
-1.82774e-37
-4.66032e-38
-9.38447e-39
-1.49827e-39
-1.89976e-40
-1.9111e-41
-1.51868e-42
-9.47574e-44
-4.59992e-45
-1.71735e-46
-4.85901e-48
-1.02267e-49
-1.5653e-51
-1.69336e-53
-1.24868e-55
-5.98924e-58
-1.75469e-60
-2.87136e-63
-2.28623e-66
-6.92028e-70
-4.40718e-74
-9.43841e-132
-8.77749e-104
-3.38279e-80
-9.13473e-70
-7.63252e-66
-4.51854e-60
-6.94972e-57
-7.93885e-53
-7.63412e-51
-8.53942e-50
-4.79484e-49
-3.68304e-48
-1.92086e-46
-1.27646e-45
-1.80535e-44
-8.03956e-44
-1.07307e-42
-1.25128e-40
-5.00845e-39
-1.86509e-38
-3.38675e-38
-3.95565e-38
-3.35489e-38
-2.20642e-38
-1.17081e-38
-5.13628e-39
-1.89065e-39
-5.92385e-40
-1.65324e-40
-5.19851e-41
-1.05657e-39
-3.02239e-37
-2.03259e-36
-5.56187e-36
-8.77305e-36
-9.19982e-36
-6.88875e-36
-3.83815e-36
-1.63335e-36
-5.33067e-37
-1.39519e-37
-2.886e-38
-4.73761e-39
-6.18315e-40
-6.40947e-41
-5.2547e-42
-3.38681e-43
-1.70066e-44
-6.57746e-46
-1.93092e-47
-4.22386e-49
-6.73156e-51
-7.59705e-53
-5.85593e-55
-2.94212e-57
-9.04767e-60
-1.55725e-62
-1.30669e-65
-4.17603e-69
-2.81338e-73
-7.16329e-130
-3.39937e-102
-8.86171e-79
-1.70766e-68
-1.19488e-64
-5.9154e-59
-7.41977e-56
-6.9398e-52
-5.21611e-50
-5.24595e-49
-2.62297e-48
-1.77993e-47
-8.54004e-46
-5.3549e-45
-6.94717e-44
-2.88909e-43
-3.53533e-42
-3.92041e-40
-1.50741e-38
-5.48316e-38
-9.77601e-38
-1.12482e-37
-9.42236e-38
-6.1337e-38
-3.22772e-38
-1.40652e-38
-5.1484e-39
-1.60357e-39
-4.40918e-40
-1.29827e-40
-2.27368e-39
-6.97561e-37
-4.83888e-36
-1.35977e-35
-2.19946e-35
-2.36433e-35
-1.81495e-35
-1.03698e-35
-4.52729e-36
-1.51777e-36
-4.07932e-37
-8.67119e-38
-1.46408e-38
-1.96734e-39
-2.10194e-40
-1.77818e-41
-1.18409e-42
-6.15117e-44
-2.46473e-45
-7.50803e-47
-1.70707e-48
-2.83286e-50
-3.33548e-52
-2.68782e-54
-1.41476e-56
-4.56798e-59
-8.27315e-62
-7.32091e-65
-2.47283e-68
-1.76509e-72
-5.90211e-128
-1.31693e-100
-2.27208e-77
-3.12379e-67
-1.82313e-63
-7.53727e-58
-7.70762e-55
-5.90417e-51
-3.46837e-49
-3.13375e-48
-1.39476e-47
-8.33852e-47
-3.67324e-45
-2.17476e-44
-2.58867e-43
-1.00442e-42
-1.12603e-41
-1.18773e-39
-4.38806e-38
-1.5597e-37
-2.73119e-37
-3.09645e-37
-2.5624e-37
-1.65131e-37
-8.61837e-38
-3.73068e-38
-1.35795e-38
-4.20484e-39
-1.14111e-39
-3.17484e-40
-4.72449e-39
-1.55892e-36
-1.11733e-35
-3.22852e-35
-5.36082e-35
-5.9126e-35
-4.65663e-35
-2.73022e-35
-1.22359e-35
-4.21602e-36
-1.16414e-36
-2.54386e-37
-4.41925e-38
-6.11578e-39
-6.73646e-40
-5.88175e-41
-4.04718e-42
-2.17534e-43
-9.03135e-45
-2.85489e-46
-6.7471e-48
-1.16593e-49
-1.43229e-51
-1.20668e-53
-6.65489e-56
-2.25653e-58
-4.30193e-61
-4.01676e-64
-1.43517e-67
-1.08677e-71
-5.21919e-126
-5.12888e-99
-5.69732e-76
-5.58809e-66
-2.70852e-62
-9.33879e-57
-7.78247e-54
-4.88347e-50
-2.24279e-48
-1.81882e-47
-7.20404e-47
-3.78307e-46
-1.52652e-44
-8.53954e-44
-9.32983e-43
-3.37426e-42
-3.46265e-41
-3.47513e-39
-1.23402e-37
-4.28777e-37
-7.37654e-37
-8.24254e-37
-6.73948e-37
-4.30012e-37
-2.22604e-37
-9.57236e-38
-3.46472e-38
-1.06655e-38
-2.86038e-39
-7.58053e-40
-9.46375e-39
-3.36902e-36
-2.49958e-35
-7.43688e-35
-1.26909e-34
-1.43753e-34
-1.16255e-34
-6.99964e-35
-3.22224e-35
-1.14176e-35
-3.24043e-36
-7.28215e-37
-1.30209e-37
-1.85638e-38
-2.10861e-39
-1.90056e-40
-1.35158e-41
-7.51754e-43
-3.23414e-44
-1.06097e-45
-2.60648e-47
-4.69037e-49
-6.01172e-51
-5.2954e-53
-3.06019e-55
-1.08986e-57
-2.18767e-60
-2.15624e-63
-8.15478e-67
-6.55757e-71
-4.85011e-124
-2.01756e-97
-1.39611e-74
-9.76919e-65
-3.91414e-61
-1.12409e-55
-7.63039e-53
-3.92304e-49
-1.4096e-47
-1.02486e-46
-3.61175e-46
-1.66052e-45
-6.12116e-44
-3.23766e-43
-3.24842e-42
-1.09394e-41
-1.02654e-40
-9.80649e-39
-3.34839e-37
-1.1378e-36
-1.92366e-36
-2.119e-36
-1.71217e-36
-1.08172e-36
-5.55433e-37
-2.37264e-37
-8.53885e-38
-2.6128e-38
-6.93081e-39
-1.76169e-39
-1.82404e-38
-7.0303e-36
-5.41077e-35
-1.66015e-34
-2.91516e-34
-3.39489e-34
-2.82173e-34
-1.74605e-34
-8.26191e-35
-3.01236e-35
-8.79177e-36
-2.03278e-36
-3.74248e-37
-5.49853e-38
-6.44237e-39
-5.99571e-40
-4.40749e-41
-2.53715e-42
-1.13118e-43
-3.85138e-45
-9.83571e-47
-1.84316e-48
-2.46488e-50
-2.27007e-52
-1.37471e-54
-5.14273e-57
-1.08712e-59
-1.13145e-62
-4.53167e-66
-3.87283e-70
-4.63935e-122
-8.04379e-96
-3.34055e-73
-1.66789e-63
-5.49656e-60
-1.31315e-54
-7.2571e-52
-3.05766e-48
-8.60614e-47
-5.60201e-46
-1.75636e-45
-7.04451e-45
-2.36483e-43
-1.18348e-42
-1.0912e-41
-3.41797e-41
-2.92926e-40
-2.66509e-38
-8.75472e-37
-2.91055e-36
-4.83737e-36
-5.25408e-36
-4.19583e-36
-2.62489e-36
-1.33685e-36
-5.67228e-37
-2.02943e-37
-6.1714e-38
-1.61991e-38
-3.97133e-39
-3.37526e-38
-1.41419e-35
-1.13176e-34
-3.58713e-34
-6.49049e-34
-7.78002e-34
-6.65263e-34
-4.23429e-34
-2.0609e-34
-7.73705e-35
-2.32334e-35
-5.52949e-36
-1.0486e-36
-1.58821e-37
-1.91999e-38
-1.84546e-39
-1.40258e-40
-8.35732e-42
-3.86189e-43
-1.36476e-44
-3.62329e-46
-7.07087e-48
-9.86608e-50
-9.50022e-52
-6.02879e-54
-2.36919e-56
-5.27482e-59
-5.79843e-62
-2.4604e-65
-2.23601e-69
-4.49765e-120
-3.25448e-94
-7.79794e-72
-2.77885e-62
-7.49263e-59
-1.48724e-53
-6.68807e-51
-2.30971e-47
-5.10157e-46
-2.96814e-45
-8.27879e-45
-2.88548e-44
-8.78852e-43
-4.16421e-42
-3.53141e-41
-1.0277e-40
-8.03164e-40
-6.9643e-38
-2.20252e-36
-7.16729e-36
-1.17135e-35
-1.25469e-35
-9.90359e-36
-6.13483e-36
-3.09867e-36
-1.30571e-36
-4.64304e-37
-1.40269e-37
-3.6436e-38
-8.65237e-39
-5.98041e-38
-2.73695e-35
-2.28391e-34
-7.49222e-34
-1.39903e-33
-1.72833e-33
-1.52206e-33
-9.97374e-34
-4.99721e-34
-1.93302e-34
-5.97564e-35
-1.46461e-35
-2.86214e-36
-4.47046e-37
-5.57779e-38
-5.53842e-39
-4.3528e-40
-2.68509e-41
-1.28614e-42
-4.71789e-44
-1.30218e-45
-2.64641e-47
-3.85271e-49
-3.87875e-51
-2.57935e-53
-1.06481e-55
-2.49709e-58
-2.89965e-61
-1.30387e-64
-1.26064e-68
-4.37448e-118
-1.33445e-92
-1.77419e-70
-4.51442e-61
-9.90341e-58
-1.63128e-52
-5.96587e-50
-1.68898e-46
-2.93473e-45
-1.52316e-44
-3.77988e-44
-1.13997e-43
-3.13644e-42
-1.40798e-41
-1.09935e-40
-2.96893e-40
-2.11191e-39
-1.74683e-37
-5.32355e-36
-1.69649e-35
-2.72709e-35
-2.88119e-35
-2.24787e-35
-1.37862e-35
-6.90428e-36
-2.88838e-36
-1.02042e-36
-3.06104e-37
-7.86612e-38
-1.81471e-38
-1.01132e-37
-5.08462e-35
-4.43879e-34
-1.5104e-33
-2.91574e-33
-3.71765e-33
-3.37582e-33
-2.27972e-33
-1.17682e-33
-4.69385e-34
-1.49466e-34
-3.77461e-35
-7.60459e-36
-1.22536e-36
-1.57844e-37
-1.61951e-38
-1.31648e-39
-8.40864e-41
-4.17547e-42
-1.59002e-43
-4.56265e-45
-9.65667e-47
-1.46679e-48
-1.54389e-50
-1.07583e-52
-4.66545e-55
-1.15244e-57
-1.41376e-60
-6.73803e-64
-6.93285e-68
-4.24122e-116
-5.52502e-91
-3.93051e-69
-7.14493e-60
-1.26775e-56
-1.73084e-51
-5.14483e-49
-1.19417e-45
-1.63758e-44
-7.56476e-44
-1.67058e-43
-4.33941e-43
-1.07289e-41
-4.56593e-41
-3.28641e-40
-8.22663e-40
-5.31422e-39
-4.19744e-37
-1.23412e-35
-3.85353e-35
-6.09449e-35
-6.35143e-35
-4.89754e-35
-2.97308e-35
-1.47576e-35
-6.12646e-36
-2.14912e-36
-6.3967e-37
-1.62496e-37
-3.64782e-38
-1.62548e-37
-9.04249e-35
-8.29124e-34
-2.93398e-33
-5.86713e-33
-7.73332e-33
-7.25038e-33
-5.05143e-33
-2.68906e-33
-1.10681e-33
-3.63263e-34
-9.4576e-35
-1.96528e-35
-3.26822e-36
-4.34788e-37
-4.61082e-38
-3.87753e-39
-2.56485e-40
-1.32052e-41
-5.22054e-43
-1.55756e-44
-3.43307e-46
-5.44058e-48
-5.98692e-50
-4.37137e-52
-1.9913e-54
-5.18101e-57
-6.71478e-60
-3.39237e-63
-3.71528e-67
-4.08161e-114
-2.29783e-89
-8.46972e-68
-1.10062e-58
-1.5698e-55
-1.77434e-50
-4.28411e-48
-8.15341e-45
-8.85958e-44
-3.63337e-43
-7.14278e-43
-1.58995e-42
-3.51064e-41
-1.41719e-40
-9.41639e-40
-2.18231e-39
-1.27655e-38
-9.64087e-37
-2.73892e-35
-8.38513e-35
-1.30503e-34
-1.3416e-34
-1.02224e-34
-6.13981e-35
-3.01881e-35
-1.24274e-35
-4.32515e-36
-1.27599e-36
-3.20011e-37
-6.99158e-38
-2.46967e-37
-1.53413e-34
-1.48487e-33
-5.48105e-33
-1.13805e-32
-1.55355e-32
-1.50609e-32
-1.08389e-32
-5.95618e-33
-2.53197e-33
-8.57104e-34
-2.30187e-34
-4.93609e-35
-8.4752e-36
-1.16484e-36
-1.27714e-37
-1.11137e-38
-7.61446e-40
-4.06522e-41
-1.66867e-42
-5.17647e-44
-1.18824e-45
-1.96464e-47
-2.26012e-49
-1.72905e-51
-8.27308e-54
-2.26715e-56
-3.1042e-59
-1.66247e-62
-1.93818e-66
-3.88676e-112
-9.54462e-88
-1.77332e-66
-1.64838e-57
-1.87778e-54
-1.7551e-49
-3.44019e-47
-5.36864e-44
-4.64536e-43
-1.6865e-42
-2.95278e-42
-5.60182e-42
-1.09634e-40
-4.20038e-40
-2.58042e-39
-5.53068e-39
-2.91921e-38
-2.11123e-36
-5.80714e-35
-1.74442e-34
-2.67233e-34
-2.7097e-34
-2.03946e-34
-1.21118e-34
-5.89339e-35
-2.40328e-35
-8.28874e-36
-2.42018e-36
-5.98009e-37
-1.26966e-37
-3.52035e-37
-2.47201e-34
-2.542e-33
-9.82464e-33
-2.12398e-32
-3.00939e-32
-3.02186e-32
-2.24951e-32
-1.27746e-32
-5.6138e-33
-1.96141e-33
-5.43721e-34
-1.20385e-34
-2.13506e-35
-3.03273e-36
-3.43879e-37
-3.09726e-38
-2.19844e-39
-1.21727e-40
-5.18834e-42
-1.6736e-43
-4.00096e-45
-6.90161e-47
-8.29979e-49
-6.65237e-51
-3.34306e-53
-9.64848e-56
-1.39559e-58
-7.92291e-62
-9.83317e-66
-3.65304e-110
-3.93767e-86
-3.60341e-65
-2.39756e-56
-2.16686e-53
-1.67283e-48
-2.66035e-46
-3.40434e-43
-2.35956e-42
-7.56041e-42
-1.17961e-41
-1.89611e-41
-3.25944e-40
-1.18575e-39
-6.7464e-39
-1.33597e-38
-6.33428e-38
-4.39465e-36
-1.17343e-34
-3.46197e-34
-5.22119e-34
-5.22078e-34
-3.87922e-34
-2.27563e-34
-1.09433e-34
-4.4139e-35
-1.50603e-35
-4.34306e-36
-1.05402e-36
-2.16653e-37
-4.65616e-37
-3.76031e-34