/*--------------------------------*- C++ -*----------------------------------*\
| =========                 |                                                 |
| \\      /  F ield         | OpenFOAM: The Open Source CFD Toolbox           |
|  \\    /   O peration     | Version:  v2012                                 |
|   \\  /    A nd           | Website:  www.openfoam.com                      |
|    \\/     M anipulation  |                                                 |
\*---------------------------------------------------------------------------*/
FoamFile
{
    version     2.0;
    format      ascii;
    class       surfaceScalarField;
    location    "0.4";
    object      alphaPhi0.water;
}
// * * * * * * * * * * * * * * * * * * * * * * * * * * * * * * * * * * * * * //

dimensions      [0 3 -1 0 0 0 0];
oriented        oriented;


internalField   nonuniform List<scalar> 
8134
(
-3.68239e-08
-8.03198e-09
-2.24326e-15
-2.9958e-08
-6.86591e-09
-2.05698e-15
-2.40521e-08
-5.90585e-09
-1.61972e-15
-1.89638e-08
-5.08838e-09
-1.75029e-15
-1.45851e-08
-4.37864e-09
-1.63121e-15
-1.08326e-08
-3.7525e-09
-1.43796e-15
-7.63606e-09
-3.19656e-09
-1.25517e-15
-4.93455e-09
-2.70151e-09
-1.13118e-15
-2.67269e-09
-2.26186e-09
-8.36246e-16
-7.99287e-10
-1.87339e-09
-7.57268e-16
7.34112e-10
-1.5334e-09
-5.56337e-16
1.97117e-09
-1.23705e-09
-4.64812e-16
2.95174e-09
-9.80565e-10
-2.73213e-16
3.71224e-09
-7.60519e-10
-1.87321e-16
4.28551e-09
-5.73274e-10
-2.85752e-16
4.70053e-09
-4.15019e-10
-2.70765e-16
4.98273e-09
-2.82198e-10
-2.85701e-16
5.15428e-09
-1.71537e-10
-3.23074e-16
5.23435e-09
-8.00759e-11
-3.37992e-16
5.23932e-09
-4.9931e-12
-3.33716e-16
5.18332e-09
5.60004e-11
-3.25678e-16
5.07802e-09
1.05278e-10
-3.08107e-16
4.93307e-09
1.44986e-10
-2.86218e-16
4.75587e-09
1.77176e-10
-2.61465e-16
4.55223e-09
2.03652e-10
-2.37398e-16
4.32588e-09
2.26336e-10
-2.14989e-16
4.07909e-09
2.46787e-10
-1.95683e-16
3.81268e-09
2.66427e-10
-1.22775e-16
3.52615e-09
2.86511e-10
2.28657e-16
3.21885e-09
3.07303e-10
1.45698e-15
2.88996e-09
3.28872e-10
4.2411e-15
2.54082e-09
3.491e-10
6.06668e-15
2.17597e-09
3.64847e-10
3.14701e-15
1.80292e-09
3.73054e-10
3.97371e-16
1.43322e-09
3.69716e-10
-2.99195e-15
1.08158e-09
3.51649e-10
-4.30485e-15
7.63805e-10
3.17778e-10
-3.02587e-15
4.92923e-10
2.70885e-10
-1.36891e-15
2.75908e-10
2.17016e-10
-1.87627e-16
1.11179e-10
1.64731e-10
-3.59075e-16
-2.03711e-12
1.13218e-10
-1.4963e-16
-4.88942e-11
4.68584e-11
4.14804e-17
-4.88937e-11
2.8312e-16
-4.67863e-08
-1.54268e-08
-4.0696e-15
-3.99905e-08
-1.36616e-08
-3.8784e-15
-3.37223e-08
-1.2174e-08
-3.42094e-15
-2.79282e-08
-1.08826e-08
-3.49225e-15
-2.25694e-08
-9.73741e-09
-3.29209e-15
-1.76224e-08
-8.69947e-09
-2.98043e-15
-1.3073e-08
-7.746e-09
-2.73282e-15
-8.91435e-09
-6.86011e-09
-2.44271e-15
-5.14327e-09
-6.03295e-09
-2.00015e-15
-1.75736e-09
-5.25929e-09
-1.80221e-15
1.24696e-09
-4.53771e-09
-1.48135e-15
3.87607e-09
-3.86616e-09
-1.23636e-15
6.13992e-09
-3.2444e-09
-9.58973e-16
8.05248e-09
-2.67311e-09
-4.88779e-16
9.63212e-09
-2.15293e-09
-6.25013e-16
1.09007e-08
-1.68361e-09
-5.25417e-16
1.18829e-08
-1.26442e-09
-5.15575e-16
1.26053e-08
-8.93912e-10
-5.80889e-16
1.30953e-08
-5.7001e-10
-6.11095e-16
1.33801e-08
-2.89839e-10
-6.19122e-16
1.34859e-08
-4.97948e-11
-6.01889e-16
1.34376e-08
1.53511e-10
-5.73397e-16
1.32573e-08
3.25331e-10
-5.35439e-16
1.29636e-08
4.70764e-10
-4.89262e-16
1.25724e-08
5.9497e-10
-4.39798e-16
1.20947e-08
7.03933e-10
-3.88047e-16
1.15385e-08
8.03007e-10
-3.27128e-16
1.09076e-08
8.97384e-10
-2.58578e-16
1.02021e-08
9.91989e-10
2.05776e-17
9.42092e-09
1.08848e-09
1.29064e-15
8.56234e-09
1.1874e-09
5.7899e-15
7.6288e-09
1.2826e-09
7.98205e-15
6.63022e-09
1.36344e-09
3.11057e-15
5.58615e-09
1.41712e-09
3.85511e-16
4.52878e-09
1.4271e-09
-2.4667e-15
3.50122e-09
1.37921e-09
-3.52614e-15
2.5517e-09
1.26729e-09
-2.94583e-15
1.72301e-09
1.09958e-09
-1.37455e-15
1.0415e-09
8.98532e-10
-8.11573e-16
5.12157e-10
6.94076e-10
-4.60866e-16
1.35774e-10
4.89603e-10
2.50189e-17
-5.24332e-11
2.35067e-10
1.34484e-16
-1.01326e-10
2.62553e-16
-4.51137e-08
-2.13914e-08
-5.2288e-15
-3.94039e-08
-1.93714e-08
-5.15634e-15
-3.39514e-08
-1.76265e-08
-4.47811e-15
-2.87466e-08
-1.60874e-08
-4.4338e-15
-2.37787e-08
-1.47052e-08
-4.15747e-15
-1.9041e-08
-1.34373e-08
-3.82529e-15
-1.45306e-08
-1.22564e-08
-3.55846e-15
-1.02512e-08
-1.11395e-08
-3.23953e-15
-6.211e-09
-1.00731e-08
-2.80691e-15
-2.42249e-09
-9.04779e-09
-2.56622e-15
1.09904e-09
-8.05924e-09
-2.2027e-15
4.33807e-09
-7.10519e-09
-1.86613e-15
7.27929e-09
-6.18562e-09
-1.50523e-15
9.90968e-09
-5.30353e-09
-8.05237e-16
1.22202e-08
-4.46347e-09
-9.93507e-16
1.42066e-08
-3.67003e-09
-8.43663e-16
1.58702e-08
-2.928e-09
-8.19993e-16
1.7218e-08
-2.24161e-09
-8.94716e-16
1.82621e-08
-1.61415e-09
-9.42818e-16
1.90194e-08
-1.04729e-09
-9.51782e-16
1.95108e-08
-5.41101e-10
-9.2901e-16
1.9758e-08
-9.38522e-11
-8.97783e-16
1.9785e-08
2.98497e-10
-8.54617e-16
1.96136e-08
6.4206e-10
-8.00009e-16
1.92642e-08
9.44394e-10
-7.39643e-16
1.87528e-08
1.21534e-09
-6.7709e-16
1.8091e-08
1.46472e-09
-6.07547e-16
1.72858e-08
1.70272e-09
-5.11315e-16
1.63379e-08
1.93974e-09
-2.04737e-16
1.52462e-08
2.18023e-09
5.56761e-16
1.40076e-08
2.42599e-09
3.10501e-15
1.26235e-08
2.66667e-09
3.26174e-15
1.11054e-08
2.88152e-09
4.76238e-16
9.48112e-09
3.0414e-09
-1.26625e-15
7.80038e-09
3.10786e-09
-2.15029e-15
6.13335e-09
3.04624e-09
-1.49508e-15
4.56237e-09
2.83826e-09
-1.2252e-15
3.1649e-09
2.49705e-09
-1.48754e-15
1.9936e-09
2.06984e-09
-1.06696e-15
1.0671e-09
1.62058e-09
-8.28684e-16
3.90123e-10
1.16658e-09
-2.01743e-16
1.15349e-11
6.13655e-10
1.72247e-16
-8.97911e-11
2.58517e-16
-4.1318e-08
-2.60621e-08
-4.89459e-15
-3.66413e-08
-2.4048e-08
-5.11369e-15
-3.2023e-08
-2.22447e-08
-4.58014e-15
-2.74983e-08
-2.06122e-08
-4.69062e-15
-2.30861e-08
-1.91173e-08
-4.51714e-15
-1.87977e-08
-1.77257e-08
-4.25906e-15
-1.46396e-08
-1.64145e-08
-4.03285e-15
-1.06184e-08
-1.51607e-08
-3.7005e-15
-6.74177e-09
-1.39498e-08
-3.26757e-15
-3.01963e-09
-1.27699e-08
-3.01317e-15
5.34334e-10
-1.16132e-08
-2.63942e-15
3.90572e-09
-1.04766e-08
-2.26402e-15
7.07578e-09
-9.35566e-09
-1.80611e-15
1.00252e-08
-8.25302e-09
-1.13027e-15
1.27342e-08
-7.17249e-09
-1.34353e-15
1.51838e-08
-6.1196e-09
-1.18221e-15
1.73574e-08
-5.10154e-09
-1.15046e-15
1.92419e-08
-4.12608e-09
-1.22241e-15
2.0829e-08
-3.20129e-09
-1.2686e-15
2.21157e-08
-2.33413e-09
-1.2711e-15
2.31049e-08
-1.53025e-09
-1.2407e-15
2.38038e-08
-7.92853e-10
-1.19724e-15
2.42244e-08
-1.21987e-10
-1.14231e-15
2.43807e-08
4.85683e-10
-1.07604e-15
2.42883e-08
1.03689e-09
-1.00296e-15
2.39607e-08
1.54282e-09
-9.28034e-16
2.34089e-08
2.0165e-09
-8.49649e-16
2.2639e-08
2.4728e-09
-7.43377e-16
2.16505e-08
2.92811e-09
-4.45379e-16
2.044e-08
3.3908e-09
-8.63021e-17
1.90008e-08
3.86514e-09
1.1788e-15
1.73305e-08
4.33691e-09
1.32624e-15
1.54383e-08
4.77371e-09
-1.38401e-16
1.3355e-08
5.12471e-09
-1.25312e-15
1.11429e-08
5.31998e-09
-1.89337e-15
8.89624e-09
5.29291e-09
-1.32188e-15
6.73209e-09
5.00238e-09
-8.51672e-16
4.76815e-09
4.46099e-09
-1.46975e-15
3.09197e-09
3.74602e-09
-1.37655e-15
1.74341e-09
2.96914e-09
-9.63835e-16
7.3447e-10
2.17553e-09
-5.17013e-16
1.19585e-10
1.22854e-09
1.42226e-16
2.97944e-11
3.02649e-16
-3.71219e-08
-2.96186e-08
-5.22714e-15
-3.3381e-08
-2.77889e-08
-5.32165e-15
-2.95468e-08
-2.60789e-08
-4.67066e-15
-2.56823e-08
-2.44767e-08
-4.71412e-15
-2.18307e-08
-2.29689e-08
-4.50482e-15
-1.8022e-08
-2.15344e-08
-4.28798e-15
-1.42763e-08
-2.01602e-08
-4.13746e-15
-1.06081e-08
-1.88289e-08
-3.83006e-15
-7.02856e-09
-1.75293e-08
-3.43989e-15
-3.54706e-09
-1.62514e-08
-3.21152e-15
-1.74418e-10
-1.49858e-08
-2.84978e-15
3.08207e-09
-1.37331e-08
-2.4846e-15
6.2078e-09
-1.24814e-08
-1.94136e-15
9.18955e-09
-1.12348e-08
-1.42632e-15
1.20109e-08
-9.99382e-09
-1.6671e-15
1.46532e-08
-8.76196e-09
-1.52509e-15
1.70967e-08
-7.545e-09
-1.49837e-15
1.93209e-08
-6.35023e-09
-1.55794e-15
2.13061e-08
-5.1865e-09
-1.58796e-15
2.30346e-08
-4.06274e-09
-1.57485e-15
2.44923e-08
-2.98795e-09
-1.53079e-15
2.56687e-08
-1.96939e-09
-1.47409e-15
2.65584e-08
-1.01144e-09
-1.4066e-15
2.71593e-08
-1.1537e-10
-1.32884e-15
2.74728e-08
7.23491e-10
-1.24401e-15
2.75014e-08
1.51403e-09
-1.15771e-15
2.72478e-08
2.27017e-09
-1.06985e-15
2.67109e-08
3.00985e-09
-9.63643e-16
2.5884e-08
3.75478e-09
-6.86438e-16
2.47571e-08
4.51784e-09
-4.83434e-16
2.33154e-08
5.30673e-09
8.13225e-17
2.15478e-08
6.10441e-09
3.9151e-16
1.94554e-08
6.8662e-09
-3.03337e-16
1.70645e-08
7.51556e-09
-1.01226e-15
1.44429e-08
7.94166e-09
-1.63015e-15
1.17036e-08
8.03215e-09
-1.15633e-15
8.99763e-09
7.70837e-09
-1.23207e-15
6.48673e-09
6.97189e-09
-1.20185e-15
4.30235e-09
5.93039e-09
-1.38055e-15
2.51483e-09
4.75667e-09
-1.05673e-15
1.1485e-09
3.54187e-09
-6.71025e-16
2.63097e-10
2.11394e-09
3.84607e-17
2.92892e-10
3.70911e-16
-3.28647e-08
-3.22272e-08
-5.1809e-15
-2.99578e-08
-3.06957e-08
-5.25295e-15
-2.68499e-08
-2.91868e-08
-4.68701e-15
-2.36158e-08
-2.77108e-08
-4.76151e-15
-2.03127e-08
-2.6272e-08
-4.58754e-15
-1.69842e-08
-2.4863e-08
-4.4016e-15
-1.3662e-08
-2.34824e-08
-4.26717e-15
-1.03701e-08
-2.21207e-08
-3.9524e-15
-7.12611e-09
-2.07733e-08
-3.55752e-15
-3.94313e-09
-1.94344e-08
-3.32108e-15
-8.3166e-10
-1.80973e-08
-2.98016e-15
2.19984e-09
-1.67646e-08
-2.62916e-15
5.1441e-09
-1.54256e-08
-2.04127e-15
7.9932e-09
-1.40839e-08
-1.68495e-15
1.07378e-08
-1.27385e-08
-1.95121e-15
1.33666e-08
-1.13907e-08
-1.83771e-15
1.58655e-08
-1.00439e-08
-1.81729e-15
1.8218e-08
-8.70264e-09
-1.85995e-15
2.04047e-08
-7.37331e-09
-1.86767e-15
2.24049e-08
-6.06302e-09
-1.83646e-15
2.41971e-08
-4.7801e-09
-1.77879e-15
2.57598e-08
-3.53222e-09
-1.71046e-15
2.70737e-08
-2.32515e-09
-1.6321e-15
2.81214e-08
-1.16317e-09
-1.54508e-15
2.88884e-08
-4.34984e-11
-1.4519e-15
2.93604e-08
1.04198e-09
-1.35761e-15
2.95252e-08
2.10534e-09
-1.26276e-15
2.93688e-08
3.16646e-09
-1.15846e-15
2.88721e-08
4.25126e-09
-9.01951e-16
2.80123e-08
5.37774e-09
-8.55824e-16
2.67609e-08
6.55801e-09
-3.26991e-16
2.50914e-08
7.77393e-09
-7.43683e-17
2.29883e-08
8.96931e-09
-5.0577e-16
2.04644e-08
1.00394e-08
-8.92007e-16
1.75822e-08
1.08239e-08
-1.39356e-15
1.4465e-08
1.11494e-08
-1.05188e-15
1.12932e-08
1.08801e-08
-1.12068e-15
8.27487e-09
9.99027e-09
-1.48277e-15
5.59292e-09
8.61233e-09
-9.58325e-16
3.35863e-09
6.99097e-09
-1.25781e-15
1.61598e-09
5.28452e-09
-7.40647e-16
4.3244e-10
3.29748e-09
-1.38898e-16
7.25332e-10
4.11732e-16
-2.87928e-08
-3.4085e-08
-5.17631e-15
-2.65849e-08
-3.29035e-08
-5.3146e-15
-2.41139e-08
-3.16579e-08
-4.72261e-15
-2.14531e-08
-3.03716e-08
-4.765e-15
-1.86633e-08
-2.90617e-08
-4.55021e-15
-1.5794e-08
-2.77323e-08
-4.35694e-15
-1.28843e-08
-2.63921e-08
-4.21445e-15
-9.96502e-09
-2.504e-08
-3.94667e-15
-7.05986e-09
-2.36785e-08
-3.58795e-15
-4.18677e-09
-2.23074e-08
-3.36758e-15
-1.35932e-09
-2.09248e-08
-3.05791e-15
1.41242e-09
-1.95363e-08
-2.72086e-15
4.12197e-09
-1.81352e-08
-2.12635e-15
6.76423e-09
-1.67262e-08
-1.92227e-15
9.33474e-09
-1.5309e-08
-2.18622e-15
1.18286e-08
-1.38846e-08
-2.09179e-15
1.42396e-08
-1.24549e-08
-2.07196e-15
1.6559e-08
-1.10219e-08
-2.09466e-15
1.87747e-08
-9.58907e-09
-2.08007e-15
2.08713e-08
-8.15973e-09
-2.0336e-15
2.283e-08
-6.73881e-09
-1.96599e-15
2.46286e-08
-5.33092e-09
-1.88976e-15
2.6243e-08
-3.9393e-09
-1.80469e-15
2.76476e-08
-2.56794e-09
-1.71275e-15
2.88164e-08
-1.21223e-09
-1.61555e-15
2.9723e-08
1.35279e-10
-1.51816e-15
3.03384e-08
1.49e-09
-1.42046e-15
3.06328e-08
2.87219e-09
-1.31809e-15
3.05714e-08
4.31246e-09
-1.07725e-15
3.01139e-08
5.8353e-09
-1.15177e-15
2.92127e-08
7.45918e-09
-6.8393e-16
2.78185e-08
9.16803e-09
-3.68709e-16
2.58911e-08
1.08968e-08
-7.01132e-16
2.34177e-08
1.25127e-08
-8.4829e-16
2.04423e-08
1.37993e-08
-1.25718e-15
1.70855e-08
1.45062e-08
-9.32802e-16
1.35484e-08
1.44172e-08
-1.04168e-15
1.00834e-08
1.34554e-08
-1.36412e-15
6.93056e-09
1.17651e-08
-1.0499e-15
4.25253e-09
9.669e-09
-1.01192e-15
2.12232e-09
7.41475e-09
-8.29615e-16
6.20407e-10
4.79938e-09
-3.2692e-16
1.34574e-09
4.49112e-16
-2.50135e-08
-3.53597e-08
-5.20062e-15
-2.33754e-08
-3.45416e-08
-5.22116e-15
-2.14456e-08
-3.35877e-08
-4.63024e-15
-1.92893e-08
-3.25279e-08
-4.71677e-15
-1.69643e-08
-3.13867e-08
-4.53505e-15
-1.45207e-08
-3.0176e-08
-4.3723e-15
-1.2e-08
-2.89128e-08
-4.23588e-15
-9.43689e-09
-2.76031e-08
-3.99124e-15
-6.85924e-09
-2.62561e-08
-3.63702e-15
-4.28894e-09
-2.48777e-08
-3.40919e-15
-1.74301e-09
-2.34707e-08
-3.11484e-15
7.65882e-10
-2.20452e-08
-2.78857e-15
3.22956e-09
-2.05988e-08
-2.20238e-15
5.64271e-09
-1.91394e-08
-2.13716e-15
8.00247e-09
-1.76688e-08
-2.36446e-15
1.03073e-08
-1.61894e-08
-2.27401e-15
1.25561e-08
-1.47037e-08
-2.24884e-15
1.4747e-08
-1.32128e-08
-2.25105e-15
1.6876e-08
-1.17181e-08
-2.2175e-15
1.89361e-08
-1.02199e-08
-2.15974e-15
2.09163e-08
-8.71902e-09
-2.08625e-15
2.28009e-08
-7.21557e-09
-2.00633e-15
2.45694e-08
-5.70773e-09
-1.91869e-15
2.61974e-08
-4.19603e-09
-1.82658e-15
2.7656e-08
-2.67079e-09
-1.73029e-15
2.89128e-08
-1.12157e-09
-1.63414e-15
2.99303e-08
4.72469e-10
-1.53771e-15
3.06652e-08
2.13744e-09
-1.43841e-15
3.1068e-08
3.90947e-09
-1.20925e-15
3.10806e-08
5.82285e-09
-1.35673e-15
3.06336e-08
7.90606e-09
-9.63679e-16
2.9651e-08
1.01505e-08
-6.2678e-16
2.80599e-08
1.24881e-08
-8.75928e-16
2.5811e-08
1.47614e-08
-8.52635e-16
2.29147e-08
1.66957e-08
-1.19126e-15
1.94719e-08
1.7949e-08
-8.46372e-16
1.56904e-08
1.81986e-08
-9.85658e-16
1.18599e-08
1.72858e-08
-1.03889e-15
8.28009e-09
1.5345e-08
-1.3466e-15
5.17367e-09
1.27754e-08
-3.80608e-16
2.6535e-09
9.93492e-09
-1.01736e-15
8.20851e-10
6.63203e-09
-3.95709e-16
2.16659e-09
4.65255e-16
-2.15953e-08
-3.61992e-08
-5.18499e-15
-2.04061e-08
-3.57308e-08
-5.18211e-15
-1.89218e-08
-3.5072e-08
-4.72926e-15
-1.71963e-08
-3.42534e-08
-4.7802e-15
-1.52803e-08
-3.33027e-08
-4.52876e-15
-1.32202e-08
-3.22361e-08
-4.33849e-15
-1.10569e-08
-3.10761e-08
-4.19479e-15
-8.82581e-09
-2.98341e-08
-3.95162e-15
-6.55669e-09
-2.85252e-08
-3.63325e-15
-4.27388e-09
-2.71605e-08
-3.42218e-15
-1.99695e-09
-2.57476e-08
-3.14936e-15
2.58868e-10
-2.4301e-08
-2.84311e-15
2.4836e-09
-2.28236e-08
-2.27744e-15
4.66976e-09
-2.13256e-08
-2.32847e-15
6.81411e-09
-1.98131e-08
-2.48964e-15
8.91565e-09
-1.8291e-08
-2.39255e-15
1.09754e-08
-1.67634e-08
-2.35641e-15
1.29952e-08
-1.52326e-08
-2.33863e-15
1.4977e-08
-1.36998e-08
-2.28945e-15
1.69207e-08
-1.21637e-08
-2.22379e-15
1.8824e-08
-1.06223e-08
-2.14697e-15
2.06799e-08
-9.07153e-09
-2.06604e-15
2.24765e-08
-7.50418e-09
-1.97895e-15
2.41962e-08
-5.91595e-09
-1.88963e-15
2.58154e-08
-4.28981e-09
-1.79776e-15
2.73035e-08
-2.60978e-09
-1.70634e-15
2.86227e-08
-8.46727e-10
-1.6145e-15
2.97252e-08
1.03506e-09
-1.51996e-15
3.05524e-08
3.08206e-09
-1.30275e-15
3.10329e-08
5.34249e-09
-1.48256e-15
3.10786e-08
7.86031e-09
-1.15631e-15
3.05867e-08
1.06423e-08
-8.26653e-16
2.94483e-08
1.36266e-08
-1.02107e-15
2.75695e-08
1.66401e-08
-8.83069e-16
2.49127e-08
1.93526e-08
-1.17497e-15
2.15406e-08
2.13211e-08
-8.02754e-16
1.76489e-08
2.20903e-08
-9.34768e-16
1.35518e-08
2.1383e-08
-9.07747e-16
9.60521e-09
1.92915e-08
-1.14723e-15
6.09872e-09
1.62819e-08
-4.2734e-16
3.19585e-09
1.28378e-08
-9.34176e-16
1.02816e-09
8.79972e-09
-3.95696e-16
3.19475e-09
4.71261e-16
-1.85524e-08
-5.29517e-15
-1.77104e-08
-5.08111e-15
-1.65857e-08
-3.61967e-08
-4.641e-15
-1.52203e-08
-3.56188e-08
-4.69224e-15
-1.36565e-08
-3.48666e-08
-4.4608e-15
-1.19349e-08
-3.39576e-08
-4.30106e-15
-1.00934e-08
-3.29177e-08
-4.17258e-15
-8.16587e-09
-3.17616e-08
-3.96806e-15
-6.18213e-09
-3.0509e-08
-3.66026e-15
-4.16741e-09
-2.91752e-08
-3.44539e-15
-2.14273e-09
-2.77723e-08
-3.18375e-15
-1.2502e-10
-2.63187e-08
-2.89082e-15
1.87415e-09
-2.48227e-08
-2.37417e-15
3.84508e-09
-2.32965e-08
-2.47108e-15
5.78313e-09
-2.17512e-08
-2.56848e-15
7.68639e-09
-2.01942e-08
-2.46119e-15
9.5558e-09
-1.86328e-08
-2.41187e-15
1.13945e-08
-1.70713e-08
-2.37597e-15
1.3207e-08
-1.55123e-08
-2.31384e-15
1.49979e-08
-1.39546e-08
-2.24217e-15
1.6771e-08
-1.23953e-08
-2.16299e-15
1.85272e-08
-1.08278e-08
-2.08205e-15
2.02636e-08
-9.24047e-09
-1.99671e-15
2.19722e-08
-7.62467e-09
-1.91136e-15
2.36382e-08
-5.95568e-09
-1.82483e-15
2.52391e-08
-4.21077e-09
-1.73986e-15
2.67434e-08
-2.35105e-09
-1.65451e-15
2.81076e-08
-3.28989e-10
-1.5661e-15
2.92731e-08
1.91639e-09
-1.36463e-15
3.01632e-08
4.4525e-09
-1.54924e-15
3.06785e-08
7.34494e-09
-1.27647e-15
3.06953e-08
1.06253e-08
-9.71305e-16
3.00714e-08
1.42507e-08
-1.13228e-15
2.86652e-08
1.80462e-08
-9.24467e-16
2.63811e-08
2.16369e-08
-1.18758e-15
2.32259e-08
2.44762e-08
-7.93541e-16
1.93617e-08
2.59545e-08
-9.1091e-16
1.51085e-08
2.56362e-08
-7.8954e-16
1.08699e-08
2.35301e-08
-4.01843e-16
7.00438e-09
2.01474e-08
-8.43621e-16
3.73597e-09
1.61062e-08
-4.86888e-16
1.23703e-09
1.12986e-08
-3.99953e-16
4.43178e-09
4.65217e-16
-1.44597e-08
-3.70368e-08
-4.55384e-15
-1.339e-08
-3.66886e-08
-4.71196e-15
-1.2124e-08
-3.61325e-08
-4.46712e-15
-1.06961e-08
-3.53855e-08
-4.28604e-15
-9.13933e-09
-3.44744e-08
-4.14382e-15
-7.48495e-09
-3.3416e-08
-3.94368e-15
-5.76125e-09
-3.22327e-08
-3.64666e-15
-3.99309e-09
-3.09434e-08
-3.44449e-15
-2.20185e-09
-2.95636e-08
-3.20065e-15
-4.0484e-10
-2.81157e-08
-2.92567e-15
1.38388e-09
-2.66115e-08
-2.45343e-15
3.15438e-09
-2.5067e-08
-2.58116e-15
4.90008e-09
-2.34969e-08
-2.61645e-15
6.61764e-09
-2.19118e-08
-2.49964e-15
8.30694e-09
-2.03221e-08
-2.43396e-15
9.9707e-09
-1.87351e-08
-2.38184e-15
1.16139e-08
-1.71555e-08
-2.3088e-15
1.32431e-08
-1.55839e-08
-2.23193e-15
1.48655e-08
-1.40178e-08
-2.15016e-15
1.64875e-08
-1.24499e-08
-2.06891e-15
1.81132e-08
-1.08661e-08
-1.9849e-15
1.97435e-08
-9.25505e-09
-1.90288e-15
2.13733e-08
-7.58536e-09
-1.82093e-15
2.29905e-08
-5.82807e-09
-1.74159e-15
2.45738e-08
-3.93432e-09
-1.66267e-15
2.60895e-08
-1.84458e-09
-1.58005e-15
2.74876e-08
5.18087e-10
-1.39785e-15
2.86952e-08
3.24497e-09
-1.57339e-15
2.96115e-08
6.42859e-09
-1.33907e-15
3.01019e-08
1.01349e-08
-1.06774e-15
2.99989e-08
1.43538e-08
-1.20713e-15
2.91177e-08
1.89273e-08
-9.67354e-16
2.73007e-08
2.34539e-08
-1.21015e-15
2.44857e-08
2.72912e-08
-8.08278e-16
2.07794e-08
2.96607e-08
-9.12574e-16
1.64855e-08
2.993e-08
-7.15762e-16
1.20402e-08
2.79755e-08
-3.55673e-16
7.86804e-09
2.43196e-08
-1.13124e-15
4.26086e-09
1.97134e-08
-4.3726e-16
1.44235e-09
1.41171e-08
-4.90594e-16
5.87413e-09
4.4757e-16
-1.25498e-08
-3.76548e-08
-4.55075e-15
-1.17192e-08
-3.75192e-08
-4.66103e-15
-1.07016e-08
-3.71501e-08
-4.42793e-15
-9.52479e-09
-3.65624e-08
-4.28546e-15
-8.21667e-09
-3.57825e-08
-4.15492e-15
-6.80482e-09
-3.48278e-08
-3.9991e-15
-5.31512e-09
-3.37224e-08
-3.67834e-15
-3.77113e-09
-3.24873e-08
-3.46757e-15
-2.19371e-09
-3.1141e-08
-3.22854e-15
-6.00198e-10
-2.97092e-08
-2.9627e-15
9.94731e-10
-2.82064e-08
-2.53023e-15
2.58029e-09
-2.66526e-08
-2.66536e-15
4.14868e-09
-2.50653e-08
-2.64387e-15
5.69524e-09
-2.34583e-08
-2.51681e-15
7.21848e-09
-2.18454e-08
-2.43632e-15
8.71997e-09
-2.02365e-08
-2.37018e-15
1.0204e-08
-1.86396e-08
-2.28794e-15
1.16772e-08
-1.70571e-08
-2.20621e-15
1.31482e-08
-1.54887e-08
-2.1215e-15
1.46261e-08
-1.39278e-08
-2.0391e-15
1.61195e-08
-1.23595e-08
-1.95522e-15
1.76357e-08
-1.07713e-08
-1.87506e-15
1.9178e-08
-9.12759e-09
-1.79609e-15
2.07443e-08
-7.3945e-09
-1.72085e-15
2.23246e-08
-5.51454e-09
-1.64682e-15
2.38971e-08
-3.41705e-09
-1.56928e-15
2.54252e-08
-1.01008e-09
-1.40681e-15
2.68475e-08
1.8227e-09
-1.56536e-15
2.80712e-08
5.20487e-09
-1.3577e-15
2.89621e-08
9.24384e-09
-1.11493e-15
2.93401e-08
1.39759e-08
-1.24848e-15
2.89872e-08
1.92801e-08
-1.00561e-15
2.76878e-08
2.47534e-08
-1.23159e-15
2.53038e-08
2.96752e-08
-8.38937e-16
2.18689e-08
3.30955e-08
-9.32873e-16
1.76467e-08
3.41523e-08
-7.76109e-16
1.30858e-08
3.25364e-08
-3.95797e-16
8.66861e-09
2.87368e-08
-1.42562e-15
4.75822e-09
2.36238e-08
-4.74299e-16
1.63925e-09
1.72361e-08
-5.83122e-16
7.51338e-09
4.19175e-16
-1.08515e-08
-3.81019e-08
-4.53441e-15
-1.02121e-08
-3.81586e-08
-4.63432e-15
-9.39913e-09
-3.7963e-08
-4.38586e-15
-8.43436e-09
-3.75272e-08
-4.23611e-15
-7.34077e-09
-3.68761e-08
-4.114e-15
-6.14184e-09
-3.60268e-08
-3.96169e-15
-4.86048e-09
-3.50037e-08
-3.653e-15
-3.51827e-09
-3.38295e-08
-3.45694e-15
-2.13491e-09
-3.25244e-08
-3.23453e-15
-7.27246e-10
-3.11169e-08
-2.98715e-15
6.90165e-10
-2.96238e-08
-2.59427e-15
2.10606e-09
-2.80685e-08
-2.74446e-15
3.51194e-09
-2.64712e-08
-2.66054e-15
4.90211e-09
-2.48485e-08
-2.52251e-15
6.27386e-09
-2.32171e-08
-2.42869e-15
7.62747e-09
-2.15901e-08
-2.35045e-15
8.96606e-09
-1.99782e-08
-2.26028e-15
1.02955e-08
-1.83866e-08
-2.17384e-15
1.1624e-08
-1.68173e-08
-2.08575e-15
1.29617e-08
-1.52655e-08
-2.0014e-15
1.43195e-08
-1.37172e-08
-1.91661e-15
1.57085e-08
-1.21604e-08
-1.83683e-15
1.71378e-08
-1.05569e-08
-1.7592e-15
1.86135e-08
-8.87026e-09
-1.68635e-15
2.01354e-08
-7.03642e-09
-1.61556e-15
2.1694e-08
-4.97552e-09
-1.5417e-15
2.32665e-08
-2.5827e-09
-1.39792e-15
2.48076e-08
2.81695e-10
-1.53546e-15
2.62393e-08
3.77307e-09
-1.34682e-15
2.74384e-08
8.04461e-09
-1.13016e-15
2.82252e-08
1.31892e-08
-1.26131e-15
2.83628e-08
1.91425e-08
-1.03193e-15
2.75885e-08
2.55277e-08
-1.25012e-15
2.56896e-08
3.15741e-08
-8.75936e-16
2.26153e-08
3.61698e-08
-9.64301e-16
1.85666e-08
3.8201e-08
-8.72235e-16
1.39818e-08
3.71211e-08
-4.59445e-16
9.3873e-09
3.33313e-08
-1.59744e-15
5.21669e-09
2.77944e-08
-5.96749e-16
1.82316e-09
2.06296e-08
-5.68223e-16
9.33654e-09
3.81468e-16
-9.3535e-09
-3.84188e-08
-4.55135e-15
-8.86532e-09
-3.86468e-08
-4.65901e-15
-8.21924e-09
-3.86091e-08
-4.43479e-15
-7.43185e-09
-3.83145e-08
-4.30573e-15
-6.52151e-09
-3.77865e-08
-4.16284e-15
-5.50771e-09
-3.70406e-08
-4.00726e-15
-4.41015e-09
-3.61013e-08
-3.69747e-15
-3.24802e-09
-3.49917e-08
-3.48865e-15
-2.03939e-09
-3.3733e-08
-3.26339e-15
-8.0019e-10
-3.23561e-08
-3.01995e-15
4.55563e-10
-3.08796e-08
-2.65215e-15
1.71657e-09
-2.93295e-08
-2.79423e-15
2.97406e-09
-2.77287e-08
-2.66995e-15
4.22167e-09
-2.60961e-08
-2.52193e-15
5.45577e-09
-2.44512e-08
-2.41635e-15
6.67549e-09
-2.28098e-08
-2.32786e-15
7.88271e-09
-2.11854e-08
-2.23085e-15
9.08208e-09
-1.9586e-08
-2.13991e-15
1.0281e-08
-1.80162e-08
-2.04829e-15
1.14892e-08
-1.64737e-08
-1.96154e-15
1.2718e-08
-1.4946e-08
-1.87498e-15
1.39805e-08
-1.3423e-08
-1.79441e-15
1.52893e-08
-1.18656e-08
-1.71677e-15
1.66558e-08
-1.02368e-08
-1.64478e-15
1.80875e-08
-8.46811e-09
-1.57554e-15
1.95851e-08
-6.47309e-09
-1.5039e-15
2.11389e-08
-4.13665e-09
-1.37657e-15
2.272e-08
-1.29925e-09
-1.48985e-15
2.4269e-08
2.22402e-09
-1.31635e-15
2.56807e-08
6.63283e-09
-1.12407e-15
2.67874e-08
1.20826e-08
-1.25157e-15
2.73487e-08
1.85811e-08
-1.04408e-15
2.70704e-08
2.5806e-08
-1.26101e-15
2.56744e-08
3.29702e-08
-9.1211e-16
2.30208e-08
3.88233e-08
-9.96648e-16
1.92312e-08
4.19906e-08
-8.74629e-16
1.47097e-08
4.16427e-08
-4.97256e-16
1.00084e-08
3.80326e-08
-1.21169e-15
5.62626e-09
3.21766e-08
-9.82791e-16
1.98992e-09
2.42659e-08
-5.01922e-16
1.13265e-08
3.37668e-16
-8.04066e-09
-3.86379e-08
-4.31515e-15
-7.67105e-09
-3.90164e-08
-4.53812e-15
-7.15995e-09
-3.91202e-08
-4.36318e-15
-6.51966e-09
-3.89548e-08
-4.2534e-15
-5.76451e-09
-3.85416e-08
-4.11512e-15
-4.91033e-09
-3.78947e-08
-3.97123e-15
-3.97362e-09
-3.7038e-08
-3.68012e-15
-2.97099e-09
-3.59943e-08
-3.48161e-15
-1.91859e-09
-3.47854e-08
-3.2681e-15
-8.31119e-10
-3.34436e-08
-3.0384e-15
2.78233e-10
-3.19889e-08
-2.69722e-15
1.3985e-09
-3.04497e-08
-2.82945e-15
2.52092e-09
-2.88511e-08
-2.67459e-15
3.63887e-09
-2.72141e-08
-2.51842e-15
4.74809e-09
-2.55605e-08
-2.40266e-15
5.84681e-09
-2.39085e-08
-2.3054e-15
6.93583e-09
-2.22744e-08
-2.20223e-15
8.0186e-09
-2.06688e-08
-2.10719e-15
9.10136e-09
-1.9099e-08
-2.01202e-15
1.01928e-08
-1.75651e-08
-1.92257e-15
1.13039e-08
-1.6057e-08
-1.83377e-15
1.2448e-08
-1.45671e-08
-1.7517e-15
1.36392e-08
-1.30568e-08
-1.67303e-15
1.4892e-08
-1.14897e-08
-1.60064e-15
1.62192e-08
-9.79532e-09
-1.53159e-15
1.76292e-08
-7.883e-09
-1.46076e-15
1.91229e-08
-5.63041e-09
-1.34659e-15
2.06857e-08
-2.86198e-09
-1.43477e-15
2.22773e-08
6.32334e-10
-1.27232e-15
2.38142e-08
5.09587e-09
-1.10199e-15
2.5149e-08
1.07479e-08
-1.22325e-15
2.60515e-08
1.76785e-08
-1.04156e-15
2.62134e-08
2.56442e-08
-1.25862e-15
2.53056e-08
3.38781e-08
-9.41452e-16
2.31038e-08
4.1025e-08
-1.02533e-15
1.96384e-08
4.5456e-08
-8.51029e-16
1.52579e-08
4.60232e-08
-5.24503e-16
1.05199e-08
4.27706e-08
-6.43661e-16
5.97858e-09
3.67179e-08
-1.15431e-15
2.1359e-09
2.81086e-08
-5.17118e-16
1.34624e-08
2.9201e-16
-6.89599e-09
-3.87843e-08
-4.41169e-15
-6.61863e-09
-3.92938e-08
-4.64256e-15
-6.21594e-09
-3.95229e-08
-4.45196e-15
-5.69677e-09
-3.9474e-08
-4.3341e-15
-5.0721e-09
-3.91663e-08
-4.17198e-15
-4.35453e-09
-3.86123e-08
-4.02272e-15
-3.55758e-09
-3.78349e-08
-3.71662e-15
-2.69529e-09
-3.68566e-08
-3.50965e-15
-1.78174e-09
-3.56989e-08
-3.2918e-15
-8.30135e-10
-3.43952e-08
-3.06396e-15
1.47299e-10
-3.29663e-08
-2.74482e-15
1.14023e-09
-3.14427e-08
-2.86242e-15
2.14013e-09
-2.9851e-08
-2.67693e-15
3.14039e-09
-2.82143e-08
-2.51344e-15
4.1364e-09
-2.65565e-08
-2.38893e-15
5.12578e-09
-2.48979e-08
-2.2843e-15
6.10846e-09
-2.32571e-08
-2.17576e-15
7.08686e-09
-2.16472e-08
-2.0768e-15
8.066e-09
-2.00781e-08
-1.97821e-15
9.05341e-09
-1.85526e-08
-1.88606e-15
1.00592e-08
-1.70627e-08
-1.79481e-15
1.10959e-08
-1.56039e-08
-1.71082e-15
1.2178e-08
-1.41389e-08
-1.63054e-15
1.33214e-08
-1.2633e-08
-1.55694e-15
1.45415e-08
-1.10155e-08
-1.48703e-15
1.5852e-08
-9.1934e-09
-1.41585e-15
1.72615e-08
-7.04006e-09
-1.31147e-15
1.87673e-08
-4.36768e-09
-1.37329e-15
2.03457e-08
-9.46138e-10
-1.21871e-15
2.19353e-08
3.50627e-09
-1.06669e-15
2.34133e-08
9.26989e-09
-1.17889e-15
2.45703e-08
1.65214e-08
-1.02575e-15
2.51001e-08
2.51144e-08
-1.24269e-15
2.46409e-08
3.43373e-08
-9.63304e-16
2.28945e-08
4.27713e-08
-1.05024e-15
1.97966e-08
4.85539e-08
-8.60376e-16
1.56225e-08
5.01972e-08
-5.73386e-16
1.09139e-08
4.74793e-08
-6.25743e-16
6.26727e-09
4.13646e-08
-1.14669e-15
2.25815e-09
3.21177e-08
-5.60604e-16
1.57205e-08
2.47593e-16
-5.90206e-09
-3.88773e-08
-4.26626e-15
-5.69596e-09
-3.94999e-08
-4.47612e-15
-5.37984e-09
-3.9839e-08
-4.35844e-15
-4.95983e-09
-3.9894e-08
-4.26017e-15
-4.44417e-09
-3.96819e-08
-4.12365e-15
-3.84275e-09
-3.92137e-08
-3.97909e-15
-3.16648e-09
-3.85112e-08
-3.6931e-15
-2.42692e-09
-3.75961e-08
-3.49718e-15
-1.63609e-09
-3.64898e-08
-3.28984e-15
-8.05568e-10
-3.52257e-08
-3.07382e-15
5.34907e-11
-3.38254e-08
-2.78137e-15
9.31765e-10
-3.2321e-08
-2.88743e-15
1.82088e-09
-3.07401e-08
-2.67631e-15
2.71453e-09
-2.9108e-08
-2.50759e-15
3.60801e-09
-2.74499e-08
-2.37591e-15
4.49855e-09
-2.57884e-08
-2.26502e-15
5.38549e-09
-2.41441e-08
-2.1518e-15
6.27034e-09
-2.25321e-08
-2.04924e-15
7.15712e-09
-2.09649e-08
-1.94747e-15
8.05218e-09
-1.94477e-08
-1.85263e-15
8.96442e-09
-1.79749e-08
-1.75891e-15
9.90548e-09
-1.6545e-08
-1.67286e-15
1.08891e-08
-1.51225e-08
-1.59069e-15
1.19312e-08
-1.36752e-08
-1.51541e-15
1.30486e-08
-1.21329e-08
-1.44401e-15
1.42576e-08
-1.04023e-08
-1.37162e-15
1.55722e-08
-8.35469e-09
-1.27363e-15
1.6998e-08
-5.79343e-09
-1.31176e-15
1.8525e-08
-2.47319e-09
-1.1577e-15
2.01116e-08
1.91966e-09
-1.01442e-15
2.16608e-08
7.72071e-09
-1.11434e-15
2.29902e-08
1.5192e-08
-9.96637e-16
2.38093e-08
2.42954e-08
-1.21322e-15
2.37419e-08
3.44048e-08
-9.77075e-16
2.24318e-08
4.40813e-08
-1.07017e-15
1.97232e-08
5.12625e-08
-8.85151e-16
1.58062e-08
5.41142e-08
-6.37186e-16
1.11868e-08
5.20987e-08
-6.75287e-16
6.48806e-09
4.60633e-08
-1.09897e-15
2.3545e-09
3.62512e-08
-6.13778e-16
1.8075e-08
2.06972e-16
-5.04182e-09
-3.89315e-08
-4.55177e-15
-4.89042e-09
-3.96513e-08
-4.53557e-15
-4.64311e-09
-4.00863e-08
-4.40573e-15
-4.3039e-09
-4.02332e-08
-4.27882e-15
-3.87886e-09
-4.0107e-08
-4.13571e-15
-3.37565e-09
-3.97169e-08
-3.99021e-15
-2.80296e-09
-3.90839e-08
-3.70583e-15
-2.17016e-09
-3.82289e-08
-3.50936e-15
-1.48725e-09
-3.71727e-08
-3.30259e-15
-7.64156e-10
-3.59488e-08
-3.09045e-15
-1.08862e-11
-3.45787e-08
-2.80979e-15
7.64522e-10
-3.30964e-08
-2.90114e-15
1.5538e-09
-3.15294e-08
-2.67477e-15
2.3511e-09
-2.99053e-08
-2.5015e-15
3.15181e-09
-2.82506e-08
-2.3639e-15
3.95302e-09
-2.65896e-08
-2.2477e-15
4.75361e-09
-2.49447e-08
-2.13036e-15
5.55447e-09
-2.3333e-08
-2.02449e-15
6.35873e-09
-2.17691e-08
-1.91977e-15
7.17169e-09
-2.02607e-08
-1.82244e-15
8.00111e-09
-1.88043e-08
-1.72638e-15
8.85744e-09
-1.74014e-08
-1.63832e-15
9.7534e-09
-1.60184e-08
-1.55415e-15
1.07042e-08
-1.4626e-08
-1.477e-15
1.17265e-08
-1.31552e-08
-1.4037e-15
1.2838e-08
-1.15137e-08
-1.32957e-15
1.40553e-08
-9.57207e-09
-1.23494e-15
1.53899e-08
-7.12802e-09
-1.24399e-15
1.68419e-08
-3.92521e-09
-1.08492e-15
1.8386e-08
3.75494e-10
-9.26247e-16
1.99495e-08
6.15729e-09
-1.02277e-15
2.13793e-08
1.37621e-08
-9.51397e-16
2.24105e-08
2.32642e-08
-1.17134e-15
2.26691e-08
3.41461e-08
-9.84133e-16
2.1759e-08
4.49913e-08
-1.08527e-15
1.94423e-08
5.35792e-08
-9.14704e-16
1.58178e-08
5.77386e-08
-7.04001e-16
1.13389e-08
5.65777e-08
-7.18929e-16
6.63894e-09
5.07633e-08
-9.74562e-16
2.4236e-09
4.04665e-08
-6.72865e-16
2.04986e-08
1.70444e-16
-4.2992e-09
-3.89581e-08
-4.45363e-15
-4.18953e-09
-3.9761e-08
-4.48503e-15
-3.99671e-09
-4.02791e-08
-4.37842e-15
-3.72314e-09
-4.05068e-08
-4.26601e-15
-3.37313e-09
-4.0457e-08
-4.12056e-15
-2.95257e-09
-4.01375e-08
-3.96507e-15
-2.46832e-09
-3.95682e-08
-3.6919e-15
-1.9279e-09
-3.87693e-08
-3.5002e-15
-1.33942e-09
-3.77612e-08
-3.29924e-15
-7.11205e-10
-3.6577e-08
-3.09573e-15
-5.16444e-11
-3.52382e-08
-2.8331e-15
6.313e-10
-3.37793e-08
-2.90658e-15
1.33083e-09
-3.22289e-08
-2.6709e-15
2.04124e-09
-3.06157e-08
-2.49508e-15
2.75814e-09
-2.89675e-08
-2.35283e-15
3.4786e-09
-2.731e-08
-2.23224e-15
4.20126e-09
-2.56673e-08
-2.11123e-15
4.92653e-09
-2.40583e-08
-2.00242e-15
5.65683e-09
-2.24994e-08
-1.89499e-15
6.39659e-09
-2.10004e-08
-1.79537e-15
7.15251e-09
-1.95601e-08
-1.69715e-15
7.93385e-09
-1.81828e-08
-1.60721e-15
8.7521e-09
-1.68367e-08
-1.52111e-15
9.62135e-09
-1.54953e-08
-1.44206e-15
1.05576e-08
-1.40915e-08
-1.36673e-15