/*--------------------------------*- C++ -*----------------------------------*\
| =========                 |                                                 |
| \\      /  F ield         | OpenFOAM: The Open Source CFD Toolbox           |
|  \\    /   O peration     | Version:  v2012                                 |
|   \\  /    A nd           | Website:  www.openfoam.com                      |
|    \\/     M anipulation  |                                                 |
\*---------------------------------------------------------------------------*/
FoamFile
{
    version     2.0;
    format      ascii;
    class       volVectorField;
    location    "0.4";
    object      U;
}
// * * * * * * * * * * * * * * * * * * * * * * * * * * * * * * * * * * * * * //

dimensions      [0 1 -1 0 0 0 0];


internalField   nonuniform List<vector> 
3320
(
(-2.9486 -0.287739 0.0257325)
(-2.23975 -0.208737 0.0195464)
(-1.6861 -0.152096 0.0147145)
(-1.25298 -0.110686 0.0109346)
(-0.91327 -0.080122 0.00796985)
(-0.647514 -0.0574918 0.00565054)
(-0.440529 -0.0407779 0.00384416)
(-0.280525 -0.0285154 0.0024478)
(-0.158073 -0.0196051 0.00137918)
(-0.0655675 -0.0132101 0.000571903)
(0.00314822 -0.00870099 -2.77537e-05)
(0.0530614 -0.00554762 -0.000463325)
(0.088246 -0.00337854 -0.000770365)
(0.111971 -0.00191885 -0.000977401)
(0.126851 -0.00095792 -0.00110726)
(0.134995 -0.000339268 -0.00117832)
(0.138071 4.72242e-05 -0.00120517)
(0.137397 0.000278305 -0.00119929)
(0.134009 0.000406815 -0.00116972)
(0.128712 0.000466639 -0.00112349)
(0.12213 0.000486935 -0.00106604)
(0.114739 0.000479028 -0.00100154)
(0.106897 0.000456428 -0.000933095)
(0.0988605 0.000426892 -0.000862954)
(0.0908112 0.000395174 -0.000792701)
(0.0828672 0.000364425 -0.000723366)
(0.0750963 0.000336385 -0.000655542)
(0.0675305 0.000311895 -0.000589507)
(0.0601726 0.000290961 -0.000525287)
(0.053012 0.00027302 -0.00046279)
(0.0460397 0.000258838 -0.000401935)
(0.0392472 0.000243091 -0.000342646)
(0.0326888 0.000221807 -0.000285399)
(0.0264335 0.000198059 -0.000230797)
(0.0205924 0.000171878 -0.000179809)
(0.0153032 0.0001433 -0.000133636)
(0.0107131 0.000112261 -9.35616e-05)
(0.00693267 8.17399e-05 -6.0554e-05)
(0.00400539 5.41879e-05 -3.4994e-05)
(0.00185958 3.49453e-05 -1.62562e-05)
(0.000409808 1.84078e-05 -3.59039e-06)
(-0.000472994 -1.05034e-06 4.13864e-06)
(-0.000405156 -5.90489e-05 3.6406e-06)
(-3.66363 -0.948558 0.0319835)
(-2.92487 -0.742308 0.0255345)
(-2.31337 -0.586047 0.0201965)
(-1.80592 -0.464709 0.0157667)
(-1.38323 -0.369001 0.0120768)
(-1.03109 -0.292555 0.00900273)
(-0.738181 -0.231051 0.00644573)
(-0.49562 -0.181388 0.0043282)
(-0.296164 -0.141284 0.00258695)
(-0.133793 -0.108991 0.00116941)
(-0.00338581 -0.0831548 3.08961e-05)
(0.0994817 -0.0625691 -0.000867215)
(0.17877 -0.0462988 -0.00155949)
(0.23798 -0.0335537 -0.00207649)
(0.280238 -0.0236718 -0.0024455)
(0.308369 -0.0160901 -0.00269119)
(0.324882 -0.0103405 -0.00283545)
(0.331994 -0.00603818 -0.00289762)
(0.331636 -0.00286902 -0.00289459)
(0.325477 -0.000580368 -0.0028409)
(0.314922 0.00103313 -0.00274883)
(0.301152 0.00214563 -0.00262868)
(0.285131 0.00288119 -0.00248888)
(0.267615 0.00334411 -0.00233602)
(0.249188 0.0036175 -0.0021752)
(0.230281 0.0037659 -0.00201019)
(0.211187 0.00383761 -0.00184354)
(0.192094 0.00386729 -0.0016769)
(0.173098 0.00387689 -0.0015111)
(0.154239 0.00387592 -0.0013465)
(0.135542 0.003863 -0.00118331)
(0.117033 0.00382 -0.00102176)
(0.098847 0.00372193 -0.000863028)
(0.0811942 0.00354745 -0.000708944)
(0.0644078 0.00327823 -0.000562419)
(0.0489202 0.00290762 -0.00042722)
(0.0352106 0.00245147 -0.00030753)
(0.0236716 0.00195122 -0.000206781)
(0.0145128 0.00146158 -0.000126804)
(0.00763004 0.00103587 -6.66972e-05)
(0.00282029 0.00066638 -2.46824e-05)
(-0.000225007 0.000265332 1.93835e-06)
(-0.000735127 -0.000203102 6.58555e-06)
(-3.49808 -1.45106 0.0305375)
(-2.85433 -1.16805 0.0249181)
(-2.30682 -0.948485 0.0201388)
(-1.84053 -0.774802 0.0160684)
(-1.44227 -0.635258 0.0125919)
(-1.10167 -0.521524 0.00961867)
(-0.810265 -0.427788 0.00707493)
(-0.561327 -0.349872 0.00490182)
(-0.349402 -0.284752 0.00305181)
(-0.170054 -0.230176 0.00148615)
(-0.0195951 -0.184471 0.000172656)
(0.105054 -0.146213 -0.000915546)
(0.206654 -0.114336 -0.00180256)
(0.287655 -0.087921 -0.00250976)
(0.350282 -0.0662134 -0.00305657)
(0.396659 -0.0485457 -0.00346155)
(0.4288 -0.0343271 -0.00374224)
(0.448625 -0.0230318 -0.00391543)
(0.457958 -0.0141903 -0.00399701)
(0.458511 -0.00738339 -0.00400196)
(0.451873 -0.00224355 -0.00394412)
(0.439478 0.00156524 -0.003836)
(0.422595 0.00432068 -0.00368871)
(0.402326 0.00626667 -0.00351184)
(0.379581 0.00761059 -0.00331336)
(0.355087 0.0085241 -0.0030996)
(0.329392 0.00914459 -0.00287535)
(0.302891 0.00957769 -0.00264406)
(0.275831 0.00989707 -0.0024079)
(0.248363 0.0101429 -0.00216816)
(0.220586 0.0103231 -0.00192573)
(0.192601 0.0104025 -0.00168148)
(0.164605 0.0103176 -0.00143713)
(0.13694 0.0100033 -0.00119567)
(0.110161 0.00939927 -0.000961918)
(0.0850114 0.00847696 -0.000742385)
(0.062344 0.00727016 -0.000544499)
(0.0429195 0.00589062 -0.000374905)
(0.0272106 0.0044984 -0.000237736)
(0.0151908 0.00324643 -0.000132768)
(0.00659591 0.00214546 -5.76948e-05)
(0.000967579 0.000989196 -8.51664e-06)
(-0.000761321 -0.000287692 6.67955e-06)
(-3.18043 -1.86696 0.0277641)
(-2.63667 -1.5334 0.0230176)
(-2.16217 -1.26777 0.0188757)
(-1.74947 -1.05351 0.0152732)
(-1.39077 -0.878655 0.0121421)
(-1.07916 -0.734306 0.00942201)
(-0.8085 -0.613932 0.00705935)
(-0.573579 -0.512669 0.00500865)
(-0.370014 -0.426891 0.00323165)
(-0.194161 -0.353858 0.00169654)
(-0.0429566 -0.291513 0.000376586)
(0.0860461 -0.238164 -0.000749576)
(0.195007 -0.192556 -0.0017008)
(0.285765 -0.153648 -0.00249313)
(0.359861 -0.120615 -0.00314004)
(0.418739 -0.0927554 -0.0036541)
(0.463735 -0.0694565 -0.00404699)
(0.496141 -0.0501747 -0.00432999)
(0.51723 -0.0344135 -0.0045142)
(0.528269 -0.0217112 -0.00461068)
(0.530518 -0.0116341 -0.00463042)
(0.525212 -0.00377812 -0.00458421)
(0.513543 0.00223965 -0.00448245)
(0.496619 0.00676854 -0.0043348)
(0.475452 0.010131 -0.00415012)
(0.450919 0.0126116 -0.00393605)
(0.42374 0.0144516 -0.00369887)
(0.394479 0.015849 -0.00344351)
(0.363533 0.0169525 -0.00317343)
(0.331169 0.0178534 -0.00289099)
(0.29758 0.0185813 -0.00259784)
(0.262936 0.0190916 -0.00229549)
(0.227501 0.0192774 -0.00198622)
(0.191726 0.0190049 -0.00167397)
(0.15636 0.0181414 -0.00136529)
(0.122461 0.0166106 -0.00106939)
(0.0912846 0.0144567 -0.000797232)
(0.0640485 0.0118826 -0.000559445)
(0.0416174 0.00920478 -0.000363585)
(0.024168 0.00673447 -0.000211206)
(0.0114446 0.00454179 -0.000100076)
(0.00286324 0.00228888 -2.51174e-05)
(-0.000599664 -0.000151034 4.96245e-06)
(-2.83835 -2.18113 0.0247774)
(-2.38765 -1.82404 0.0208434)
(-1.98394 -1.53181 0.0173195)
(-1.62512 -1.29092 0.0141874)
(-1.30773 -1.09083 0.0114169)
(-1.02795 -0.923287 0.00897475)
(-0.781931 -0.781912 0.0068272)
(-0.566015 -0.661776 0.00494243)
(-0.376889 -0.559063 0.0032915)
(-0.211619 -0.470804 0.00184881)
(-0.0675905 -0.394682 0.000591517)
(0.057307 -0.328893 -0.000498779)
(0.164986 -0.271863 -0.00143878)
(0.257105 -0.22248 -0.00224296)
(0.334944 -0.179788 -0.0029225)
(0.399651 -0.143012 -0.00348742)
(0.452206 -0.111496 -0.00394627)
(0.49348 -0.0846812 -0.00430665)
(0.524281 -0.0620701 -0.00457562)
(0.545395 -0.0432095 -0.00476002)
(0.55761 -0.0276724 -0.00486675)
(0.561737 -0.0150479 -0.00490288)
(0.558609 -0.00493233 -0.00487568)
(0.549078 0.00306645 -0.00479258)
(0.533958 0.00931783 -0.0046607)
(0.514038 0.0141892 -0.0044869)
(0.490023 0.0180052 -0.00427735)
(0.462512 0.0210495 -0.00403729)
(0.43196 0.0235506 -0.00377067)
(0.398694 0.0256616 -0.00348038)
(0.362951 0.0274448 -0.00316845)
(0.324933 0.0288529 -0.00283666)
(0.284929 0.0297318 -0.00248754)
(0.243448 0.0298582 -0.0021255)
(0.201379 0.0289925 -0.00175833)
(0.160058 0.0269741 -0.00139767)
(0.121172 0.0238343 -0.00105821)
(0.08646 0.0198692 -0.000755174)
(0.0573104 0.0155966 -0.00050066)
(0.0342528 0.0115534 -0.000299313)
(0.0171364 0.00792964 -0.000149821)
(0.00528761 0.00426873 -4.6342e-05)
(-0.000317616 0.000306091 2.06879e-06)
(-2.49638 -2.41793 0.0217918)
(-2.13013 -2.05459 0.0185951)
(-1.79304 -1.74945 0.0156528)
(-1.48654 -1.49238 0.0129775)
(-1.21031 -1.27492 0.0105663)
(-0.963009 -1.09006 0.00840761)
(-0.742738 -0.93215 0.00648487)
(-0.54734 -0.796595 0.00477923)
(-0.374597 -0.679718 0.00327133)
(-0.222359 -0.578557 0.0019424)
(-0.0885787 -0.490716 0.000774594)
(0.0285457 -0.414339 -0.000247831)
(0.13069 -0.34767 -0.0011395)
(0.219368 -0.289506 -0.00191362)
(0.295814 -0.238755 -0.00258098)
(0.361103 -0.194537 -0.00315095)
(0.41613 -0.156112 -0.00363135)
(0.461631 -0.122856 -0.00402861)
(0.498216 -0.0942359 -0.00434803)
(0.526402 -0.069782 -0.00459415)
(0.546653 -0.0490701 -0.004771)
(0.559409 -0.0317013 -0.00488244)
(0.565121 -0.017288 -0.0049324)
(0.564263 -0.00543924 -0.004925)
(0.557344 0.00422939 -0.0048647)
(0.544847 0.0120834 -0.0047557)
(0.527264 0.0185057 -0.00460232)
(0.505054 0.0238334 -0.00440854)
(0.478581 0.0283568 -0.00417753)
(0.448108 0.0322851 -0.00391164)
(0.413815 0.0357152 -0.00361239)
(0.375844 0.0385989 -0.00328103)
(0.334418 0.0407297 -0.00291951)
(0.290003 0.0417745 -0.0025319)
(0.243531 0.0413472 -0.00212632)
(0.196534 0.0391509 -0.00171613)
(0.151099 0.0351589 -0.00131953)
(0.109543 0.0297473 -0.000956756)
(0.0738852 0.0236628 -0.000645428)
(0.0451704 0.0177421 -0.000394691)
(0.02348 0.0123729 -0.000205258)
(0.00811206 0.00701156 -7.10666e-05)
(4.6239e-05 0.00115784 -1.62953e-06)
(-2.17372 -2.58748 0.0189749)
(-1.87965 -2.23054 0.0164082)
(-1.60185 -1.92331 0.0139835)
(-1.34357 -1.65893 0.0117292)
(-1.10635 -1.43115 0.00965852)
(-0.890551 -1.23452 0.00777489)
(-0.695751 -1.06435 0.00607451)
(-0.521006 -0.916691 0.00454917)
(-0.365074 -0.788243 0.00318803)
(-0.226557 -0.676254 0.0019789)
(-0.103995 -0.578426 0.000909023)
(0.00402659 -0.492895 -3.39302e-05)
(0.0988799 -0.417937 -0.000861942)
(0.181901 -0.352257 -0.00158667)
(0.254251 -0.294677 -0.00221827)
(0.316972 -0.244229 -0.0027658)
(0.370964 -0.200079 -0.00323715)
(0.416973 -0.161516 -0.00363881)
(0.4556 -0.12793 -0.00397604)
(0.487309 -0.0987987 -0.00425288)
(0.51245 -0.0736611 -0.00447241)
(0.531289 -0.0521032 -0.00463691)
(0.544035 -0.0337389 -0.00474826)
(0.550881 -0.0181906 -0.00480808)
(0.55201 -0.00507344 -0.00481802)
(0.54763 0.0059767 -0.00477987)
(0.537907 0.0153341 -0.00469509)
(0.523023 0.023364 -0.00456527)
(0.503122 0.0303918 -0.00439164)
(0.478273 0.0366657 -0.00417484)
(0.448473 0.0423096 -0.00391483)
(0.413678 0.0472709 -0.00361121)
(0.373916 0.0512838 -0.00326425)
(0.329472 0.0538847 -0.00287641)
(0.281163 0.0544955 -0.00245482)
(0.230576 0.0526163 -0.00201332)
(0.180104 0.048093 -0.00157277)
(0.132637 0.04134 -0.00115841)
(0.0909131 0.0333443 -0.000794146)
(0.0566441 0.02531 -0.000494921)
(0.0302955 0.0179161 -0.000264815)
(0.0112288 0.0105813 -9.83483e-05)
(0.000466433 0.00245596 -5.88361e-06)
(-1.87759 -2.70628 0.0163897)
(-1.64387 -2.3627 0.0143498)
(-1.41739 -2.06032 0.0123731)
(-1.20216 -1.79488 0.0104945)
(-1.00071 -1.56218 0.00873617)
(-0.814468 -1.35824 0.00711055)
(-0.644016 -1.17945 0.00562272)
(-0.489321 -1.02261 0.00427241)
(-0.349921 -0.88493 0.0030556)
(-0.225069 -0.763983 0.00196576)
(-0.113841 -0.657683 0.000994837)
(-0.0152179 -0.564263 0.000133929)
(0.071838 -0.482084 -0.00062601)
(0.148423 -0.409847 -0.00129456)
(0.215573 -0.346341 -0.00188075)
(0.274242 -0.290548 -0.0023929)
(0.325314 -0.241563 -0.00283875)
(0.369559 -0.198594 -0.003225)
(0.407625 -0.160952 -0.00355731)
(0.440026 -0.128034 -0.00384018)
(0.467141 -0.0993155 -0.00407691)
(0.489225 -0.0743305 -0.00426973)
(0.506426 -0.0526615 -0.00441993)
(0.518811 -0.0339147 -0.00452809)
(0.526388 -0.0177103 -0.0045943)
(0.529131 -0.00366062 -0.00461831)
(0.526989 0.00859953 -0.00459969)
(0.519845 0.0194354 -0.00453741)
(0.507564 0.0291904 -0.0044303)
(0.489947 0.0381373 -0.00427663)
(0.466717 0.0464193 -0.00407397)
(0.437533 0.0539766 -0.00381934)
(0.402099 0.0604797 -0.00351017)
(0.360355 0.0653159 -0.00314593)
(0.312816 0.0676698 -0.0027311)
(0.260922 0.0667596 -0.00227822)
(0.207203 0.0622081 -0.00180937)
(0.155042 0.0543928 -0.00135406)
(0.107935 0.0445249 -0.0009428)
(0.0683843 0.0342296 -0.000597474)
(0.0374044 0.0245796 -0.000326934)
(0.014541 0.0150216 -0.000127339)
(0.000924458 0.00423954 -1.05105e-05)
(-1.61252 -2.7858 0.0140757)
(-1.42789 -2.45942 0.0124643)
(-1.24462 -2.16628 0.0108648)
(-1.06674 -1.90419 0.00931225)
(-0.897171 -1.67063 0.00783218)
(-0.737875 -1.46297 0.00644178)
(-0.590054 -1.27862 0.00515151)
(-0.454292 -1.11515 0.00396648)
(-0.330705 -0.970334 0.00288771)
(-0.219058 -0.842146 0.00191315)
(-0.118877 -0.728771 0.00103866)
(-0.0294953 -0.628604 0.000258437)
(0.0498009 -0.540159 -0.00043376)
(0.11985 -0.462163 -0.00104524)
(0.181528 -0.393442 -0.00158367)
(0.235651 -0.332961 -0.00205613)
(0.283033 -0.27978 -0.00246976)
(0.324427 -0.233056 -0.00283111)
(0.360502 -0.192032 -0.00314604)
(0.391828 -0.156031 -0.00341952)
(0.418859 -0.124452 -0.0036555)
(0.441919 -0.0967629 -0.00385682)
(0.461206 -0.0724854 -0.00402521)
(0.4768 -0.0511804 -0.00416137)
(0.488677 -0.0324369 -0.00426509)
(0.496723 -0.015853 -0.00433536)
(0.500754 -0.00103056 -0.00437061)
(0.500497 0.0124073 -0.00436844)
(0.495578 0.024819 -0.00432558)
(0.485543 0.0365006 -0.00423808)
(0.469821 0.0476172 -0.00410095)
(0.44773 0.0581089 -0.00390824)
(0.418561 0.0675883 -0.00365377)
(0.381778 0.0752879 -0.00333284)
(0.337402 0.0801168 -0.00294566)
(0.28649 0.0809293 -0.00250138)
(0.231474 0.0770082 -0.00202124)
(0.176064 0.0685819 -0.0015376)
(0.124476 0.0570309 -0.00108725)
(0.0800922 0.0444339 -0.00069974)
(0.0446283 0.0323568 -0.000390056)
(0.0179579 0.0203547 -0.000157245)
(0.00140526 0.00653256 -1.53592e-05)
(-1.37864 -2.83666 0.012034)
(-1.23352 -2.52873 0.0107675)
(-1.08607 -2.24711 0.00948059)
(-0.940021 -1.99111 0.00820591)
(-0.798295 -1.75952 0.00696891)
(-0.663059 -1.55082 0.00578854)
(-0.535832 -1.36334 0.00467805)
(-0.417576 -1.19536 0.00364584)
(-0.308802 -1.04523 0.00269638)
(-0.209657 -0.911324 0.00183096)
(-0.120016 -0.792145 0.00104849)
(-0.0395159 -0.686284 0.000345795)
(0.0322889 -0.592454 -0.000281003)
(0.0959923 -0.509418 -0.000837089)
(0.152294 -0.436093 -0.00132857)
(0.201854 -0.371455 -0.00176121)
(0.245382 -0.314564 -0.00214119)
(0.283563 -0.264553 -0.00247449)
(0.317046 -0.22062 -0.00276679)
(0.346421 -0.182036 -0.00302322)
(0.372191 -0.148134 -0.00324819)
(0.394761 -0.118311 -0.00344522)
(0.414414 -0.0920211 -0.00361679)
(0.431316 -0.0687631 -0.00376435)
(0.445503 -0.0480713 -0.00388821)
(0.456891 -0.0295013 -0.00398765)
(0.46528 -0.0126174 -0.00406092)
(0.470358 0.00300433 -0.00410529)
(0.471652 0.0177586 -0.00411664)
(0.468535 0.0319804 -0.00408952)
(0.460212 0.0458743 -0.00401696)
(0.44569 0.0594031 -0.00389032)
(0.423844 0.0721468 -0.00369977)
(0.393594 0.0831978 -0.00343589)
(0.354326 0.0911723 -0.0030933)
(0.306483 0.0944892 -0.00267585)
(0.252127 0.0919637 -0.00220151)
(0.195052 0.0835292 -0.00170337)
(0.14007 0.0706362 -0.00122342)
(0.0914679 0.0558155 -0.000799099)
(0.0517907 0.0412124 -0.000452638)
(0.0213929 0.0265811 -0.000187309)
(0.0018952 0.00934529 -2.02932e-05)
(-0.942907 -2.30785 0.00823081)
(-0.823569 -2.05949 0.00718926)
(-0.70577 -1.83172 0.00616112)
(-0.591653 -1.62391 0.0051651)
(-0.482844 -1.43516 0.00421538)
(-0.380499 -1.26441 0.00332206)
(-0.285371 -1.11048 0.00249173)
(-0.19787 -0.972187 0.00172796)
(-0.118128 -0.848341 0.0010319)
(-0.0460341 -0.737757 0.00040259)
(0.0186538 -0.639335 -0.000162078)
(0.076323 -0.551933 -0.000665488)
(0.127486 -0.474562 -0.00111211)
(0.172665 -0.406237 -0.0015065)
(0.212444 -0.34604 -0.00185375)
(0.247418 -0.293103 -0.00215906)
(0.278179 -0.246607 -0.00242759)
(0.305291 -0.205788 -0.00266426)
(0.329273 -0.169934 -0.00287361)
(0.350574 -0.138383 -0.00305957)
(0.369556 -0.110529 -0.00322527)
(0.386473 -0.0858035 -0.00337295)
(0.401464 -0.0636779 -0.00350382)
(0.414535 -0.0436484 -0.00361793)
(0.42556 -0.0252244 -0.00371419)
(0.434266 -0.00792475 -0.00379022)
(0.440219 0.00871549 -0.00384222)
(0.442747 0.0250964 -0.00386435)
(0.44094 0.0414914 -0.00384865)
(0.433605 0.0579238 -0.00378473)
(0.419274 0.0739864 -0.00365977)
(0.396355 0.0886736 -0.00345988)
(0.363533 0.100324 -0.00317357)
(0.320466 0.106875 -0.00279784)
(0.268577 0.106553 -0.00234507)
(0.21145 0.0988264 -0.00184651)
(0.154285 0.0850727 -0.00134753)
(0.102221 0.0682289 -0.000893014)
(0.0587199 0.0510833 -0.000513179)
(0.0247632 0.0336801 -0.000216805)
(0.00238113 0.0126751 -2.51812e-05)
(-0.815198 -2.35285 0.00711594)
(-0.718034 -2.11279 0.00626794)
(-0.620545 -1.88992 0.00541707)
(-0.524721 -1.68432 0.00458072)
(-0.432158 -1.49568 0.00377282)
(-0.344072 -1.32347 0.00300398)
(-0.261342 -1.16701 0.00228187)
(-0.18454 -1.02545 0.0016115)
(-0.113979 -0.897933 0.000995583)
(-0.0497352 -0.783493 0.000434804)
(0.00826926 -0.681201 -7.15188e-05)
(0.0602545 -0.590061 -0.000525309)
(0.106574 -0.509163 -0.000929644)
(0.147622 -0.437583 -0.00128797)
(0.183861 -0.374442 -0.00160432)
(0.215786 -0.318887 -0.00188301)
(0.243913 -0.270101 -0.00212854)
(0.268754 -0.227303 -0.0023454)
(0.290807 -0.189754 -0.00253791)
(0.31053 -0.156753 -0.00271008)
(0.328325 -0.127643 -0.00286542)
(0.344518 -0.101801 -0.00300677)
(0.359337 -0.0786364 -0.00313613)
(0.372896 -0.0575818 -0.00325449)
(0.38518 -0.0380824 -0.00336172)
(0.396018 -0.0195906 -0.00345634)
(0.405068 -0.00156005 -0.00353536)
(0.411746 0.0165057 -0.0035937)
(0.415153 0.0349811 -0.00362349)
(0.414027 0.0539935 -0.00361375)
(0.4067 0.0732078 -0.00354991)
(0.391171 0.0915888 -0.00341452)
(0.365468 0.107249 -0.00319036)
(0.328385 0.117639 -0.00286688)
(0.280483 0.1203 -0.00244894)
(0.224831 0.114062 -0.0019633)
(0.166745 0.100045 -0.00145632)
(0.112083 0.0814967 -0.000979139)
(0.0652529 0.0618792 -0.000570256)
(0.0279898 0.0416101 -0.000245041)
(0.00285015 0.0165069 -2.98951e-05)
(-0.702367 -2.38565 0.00613096)
(-0.623455 -2.15397 0.00544227)
(-0.543035 -1.93654 0.00474039)
(-0.462884 -1.73394 0.00404085)
(-0.384487 -1.54637 0.0033566)
(-0.309032 -1.37374 0.00269802)
(-0.237436 -1.21573 0.0020731)
(-0.170354 -1.07185 0.00148757)
(-0.108213 -0.941505 0.000945166)
(-0.0512261 -0.823965 0.000447733)
(0.000562352 -0.718465 -4.32528e-06)
(0.0472401 -0.624154 -0.000411783)
(0.0890291 -0.540213 -0.000776569)
(0.126216 -0.465783 -0.00110118)
(0.159151 -0.400033 -0.00138869)
(0.188235 -0.342139 -0.00164258)
(0.2139 -0.291297 -0.00186662)
(0.236595 -0.246725 -0.00206474)
(0.256773 -0.207671 -0.00224088)
(0.274873 -0.173411 -0.00239888)
(0.291303 -0.143254 -0.00254231)
(0.306426 -0.116533 -0.00267432)
(0.320535 -0.0926054 -0.00279747)
(0.333834 -0.0708482 -0.00291355)
(0.346414 -0.0506423 -0.00302336)
(0.358229 -0.0313698 -0.0031265)
(0.369064 -0.0124017 -0.00322108)
(0.378475 0.00686755 -0.00330325)
(0.385684 0.0269417 -0.00336621)
(0.389491 0.0480922 -0.0033995)
(0.388179 0.0701179 -0.00338816)
(0.379509 0.0920378 -0.00331262)
(0.360978 0.111824 -0.00315106)
(0.330539 0.126482 -0.00288558)
(0.28776 0.132815 -0.00251239)
(0.234924 0.128849 -0.00205136)
(0.177153 0.115245 -0.00154717)
(0.120819 0.0954178 -0.00105542)
(0.0712405 0.0734865 -0.000622565)
(0.0309993 0.0503106 -0.000271377)
(0.0032897 0.020814 -3.43108e-05)
(-0.603418 -2.40913 0.00526719)
(-0.539441 -2.18553 0.00470885)
(-0.473261 -1.97368 0.00413126)
(-0.406423 -1.77452 0.00354792)
(-0.340262 -1.58865 0.00297047)
(-0.275887 -1.41632 0.0024086)
(-0.21419 -1.25754 0.0018701)
(-0.155853 -1.1121 0.00136091)
(-0.101364 -0.979638 0.000885296)
(-0.0510233 -0.859649 0.000445886)
(-0.00496712 -0.751527 4.38691e-05)
(0.036791 -0.654556 -0.000320642)
(0.0743694 -0.568013 -0.000648669)
(0.107965 -0.49111 -0.000941933)
(0.137832 -0.423067 -0.00120266)
(0.164288 -0.363095 -0.0014336)
(0.187683 -0.310411 -0.00163783)
(0.208402 -0.264244 -0.00181869)
(0.22684 -0.223838 -0.00197965)
(0.2434 -0.18846 -0.0021242)
(0.258472 -0.157398 -0.00225577)
(0.272426 -0.129954 -0.00237757)
(0.285588 -0.105448 -0.00249246)
(0.298221 -0.0832096 -0.00260273)
(0.310505 -0.0625644 -0.00270994)
(0.322503 -0.0428288 -0.00281467)
(0.334133 -0.0232938 -0.00291618)
(0.345104 -0.00324851 -0.00301195)
(0.354818 0.0179541 -0.00309677)
(0.362231 0.0407576 -0.00316151)
(0.365718 0.0651482 -0.00319203)
(0.362978 0.0902843 -0.00316824)
(0.351165 0.114105 -0.0030653)
(0.327511 0.133258 -0.00285905)
(0.290566 0.143807 -0.00253681)
(0.241622 0.142851 -0.00210978)
(0.185304 0.130374 -0.00161831)
(0.128238 0.109777 -0.0011202)
(0.0765527 0.0857726 -0.00066897)
(0.0337254 0.0597041 -0.000295233)
(0.00368788 0.0255586 -3.83115e-05)
(-0.517158 -2.42556 0.00451419)
(-0.465345 -2.20951 0.00406201)
(-0.410976 -2.00311 0.00358751)
(-0.355368 -1.80757 0.0031022)
(-0.299695 -1.62378 0.00261629)
(-0.244957 -1.45226 0.00213854)
(-0.191988 -1.29328 0.00167622)
(-0.141453 -1.14687 0.00123514)
(-0.0938595 -1.01289 0.000819719)
(-0.0495596 -0.891008 0.000433042)
(-0.00874965 -0.780773 7.68215e-05)
(0.0284794 -0.681596 -0.000248152)
(0.062166 -0.592852 -0.000542204)
(0.0924367 -0.513821 -0.000806443)
(0.119466 -0.44378 -0.00104239)
(0.143495 -0.381975 -0.00125215)
(0.164807 -0.327652 -0.00143819)
(0.18372 -0.280053 -0.00160329)
(0.200574 -0.238431 -0.00175042)
(0.215725 -0.202048 -0.00188267)
(0.229531 -0.170184 -0.00200319)
(0.242348 -0.142123 -0.00211507)
(0.254509 -0.117157 -0.00222121)
(0.266307 -0.0945803 -0.00232418)
(0.277978 -0.0736753 -0.00242605)
(0.289672 -0.0537021 -0.00252812)
(0.30142 -0.0338801 -0.00263066)
(0.313077 -0.0134018 -0.0027324)
(0.324228 0.00851737 -0.00282974)
(0.33404 0.0325071 -0.00291541)
(0.341081 0.0587765 -0.00297692)
(0.343143 0.0866981 -0.00299502)
(0.337241 0.114292 -0.00294367)
(0.320078 0.137968 -0.00279407)
(0.28926 0.153105 -0.00252532)
(0.244977 0.155797 -0.00213901)
(0.191092 0.145156 -0.0016688)
(0.134201 0.124354 -0.00117226)
(0.0810828 0.0985913 -0.000708539)
(0.0361113 0.0696989 -0.000316109)
(0.00403394 0.0306933 -4.17922e-05)
(-0.442306 -2.43673 0.00386078)
(-0.400371 -2.22759 0.00349482)
(-0.355758 -2.02634 0.00310548)
(-0.309574 -1.8344 0.00270241)
(-0.262831 -1.65286 0.00229445)
(-0.216417 -1.48248 0.00188936)
(-0.171087 -1.32373 0.00149371)
(-0.127462 -1.17683 0.00111295)
(-0.0860388 -1.0418 0.00075139)
(-0.0471914 -0.918485 0.000412309)
(-0.0111503 -0.806572 9.77179e-05)
(0.0219353 -0.705587 -0.000191084)
(0.0520437 -0.614999 -0.000453899)
(0.079249 -0.534157 -0.000691377)
(0.103658 -0.462387 -0.000904446)
(0.125452 -0.39898 -0.0010947)
(0.144853 -0.343207 -0.00126405)
(0.162119 -0.294332 -0.00141477)
(0.177538 -0.251618 -0.00154937)
(0.191418 -0.214331 -0.00167054)
(0.20408 -0.181749 -0.00178106)
(0.21585 -0.153144 -0.00188381)
(0.227051 -0.127795 -0.00198157)
(0.237982 -0.10497 -0.00207698)
(0.24891 -0.0839179 -0.00217235)
(0.260039 -0.0638555 -0.00226948)
(0.271486 -0.043942 -0.00236939)
(0.283227 -0.0232863 -0.00247186)
(0.295011 -0.00098022 -0.00257472)
(0.306228 0.0237876 -0.00267263)
(0.315686 0.0514657 -0.00275523)
(0.321391 0.0816942 -0.0028051)
(0.320402 0.112679 -0.00279661)
(0.309113 0.14073 -0.00269828)
(0.284347 0.160645 -0.00248235)
(0.245179 0.167494 -0.00214071)
(0.194509 0.159352 -0.0016986)
(0.138626 0.138939 -0.00121088)
(0.0847514 0.111789 -0.00074058)
(0.0381108 0.0801923 -0.000333604)
(0.00431883 0.0361624 -4.46644e-05)
(-0.377591 -2.444 0.00329587)
(-0.343664 -2.24108 0.0029998)
(-0.307085 -2.0446 0.00268057)
(-0.268776 -1.85613 0.00234624)
(-0.2296 -1.67689 0.00200433)
(-0.190332 -1.50784 0.0016616)
(-0.151643 -1.34959 0.00132393)
(-0.114098 -1.20254 0.000996239)
(-0.0781619 -1.06685 0.000682578)
(-0.0442063 -0.942495 0.000386199)
(-0.0124748 -0.829273 0.000109227)
(0.0168418 -0.726829 -0.000146673)
(0.0436767 -0.63471 -0.000380911)
(0.0680671 -0.552337 -0.000593816)
(0.0900643 -0.479087 -0.000785833)
(0.109801 -0.41429 -0.000958121)
(0.127447 -0.357246 -0.00111216)
(0.14321 -0.307242 -0.00124975)
(0.157329 -0.263553 -0.001373)
(0.170067 -0.225455 -0.0014842)
(0.181704 -0.192226 -0.00158578)
(0.192536 -0.163138 -0.00168033)
(0.202859 -0.137457 -0.00177043)
(0.212966 -0.114439 -0.00185864)
(0.223129 -0.0933073 -0.00194735)
(0.233582 -0.0732459 -0.00203858)
(0.244499 -0.053367 -0.00213385)
(0.255945 -0.0327103 -0.00223374)
(0.267805 -0.010262 -0.00233725)
(0.279664 0.0149535 -0.00244076)
(0.290588 0.0436227 -0.00253614)
(0.29886 0.0756829 -0.0026084)
(0.301732 0.109609 -0.00263358)
(0.295503 0.141751 -0.0025794)
(0.27642 0.166462 -0.00241307)
(0.242526 0.177828 -0.00211748)
(0.195639 0.17277 -0.00170842)
(0.141486 0.153336 -0.00123583)
(0.0875087 0.125211 -0.000764657)
(0.0396906 0.0910742 -0.000347425)
(0.00453559 0.0419039 -4.68609e-05)
(-0.3218 -2.44844 0.00280887)
(-0.294357 -2.25104 0.00256938)
(-0.264383 -2.05891 0.0023078)
(-0.232635 -1.87369 0.00203073)
(-0.199845 -1.69672 0.00174455)
(-0.166681 -1.52907 0.00145511)
(-0.133734 -1.37152 0.00116756)
(-0.101508 -1.22457 0.000886289)
(-0.070423 -1.08851 0.000614977)
(-0.0408319 -0.963422 0.000356696)
(-0.0129774 -0.849198 0.000113568)
(0.0129279 -0.7456 -0.000112553)
(0.0367849 -0.652221 -0.000320795)
(0.0586002 -0.568568 -0.000511219)
(0.0783844 -0.494061 -0.000683917)
(0.0962304 -0.428067 -0.000839698)
(0.112264 -0.369918 -0.000979663)
(0.126652 -0.318922 -0.00110526)
(0.139589 -0.27437 -0.00121819)
(0.151298 -0.235549 -0.00132039)
(0.16202 -0.201741 -0.00141399)
(0.172016 -0.17222 -0.00150124)
(0.181555 -0.146248 -0.0015845)
(0.190909 -0.123071 -0.00166614)
(0.200344 -0.101897 -0.00174849)
(0.210102 -0.0818867 -0.00183365)
(0.220387 -0.0621162 -0.0019234)
(0.231322 -0.0415706 -0.00201884)
(0.242897 -0.0191493 -0.00211986)
(0.254854 0.00626488 -0.00222422)
(0.266501 0.0355795 -0.00232588)
(0.27642 0.0690354 -0.0024125)
(0.282147 0.105435 -0.00246259)
(0.280076 0.141289 -0.00244468)
(0.266104 0.170666 -0.00232295)
(0.237391 0.186758 -0.00207259)
(0.194638 0.185266 -0.00169963)
(0.14281 0.167372 -0.00124736)
(0.089335 0.138707 -0.0007806)
(0.0408304 0.102231 -0.000357396)
(0.00467977 0.0478512 -4.83383e-05)
(-0.273808 -2.45084 0.00238994)
(-0.251615 -2.25831 0.00219627)
(-0.227064 -2.07009 0.00198202)
(-0.200774 -1.88786 0.00175259)
(-0.173358 -1.71304 0.00151332)
(-0.145388 -1.54682 0.00126921)
(-0.117381 -1.39007 0.00102478)
(-0.089781 -1.2434 0.000783886)
(-0.0629625 -1.1072 0.000549813)
(-0.0372446 -0.981621 0.000325341)
(-0.0128659 -0.866657 0.000112555)
(0.00996493 -0.76215 -8.67287e-05)
(0.0311286 -0.667753 -0.000271459)
(0.0505959 -0.583039 -0.000441386)
(0.0683556 -0.507473 -0.00059641)
(0.0844669 -0.440459 -0.000737047)
(0.0990214 -0.381357 -0.000864096)
(0.112148 -0.329497 -0.000978682)
(0.124007 -0.284188 -0.0010822)
(0.134783 -0.244726 -0.00117626)
(0.144683 -0.210404 -0.00126268)
(0.153935 -0.180496 -0.00134344)
(0.162777 -0.154266 -0.00142062)
(0.171458 -0.130953 -0.00149638)
(0.180226 -0.109758 -0.0015729)
(0.189317 -0.0898221 -0.00165224)
(0.198944 -0.0701973 -0.00173626)
(0.209268 -0.0498264 -0.00182635)
(0.220343 -0.0275394 -0.00192301)
(0.232037 -0.00210198 -0.00202507)
(0.243859 0.0275887 -0.00212826)
(0.254681 0.0620656 -0.00222274)
(0.262373 0.100487 -0.00228996)
(0.263561 0.139627 -0.00230047)
(0.254008 0.173424 -0.0022173)
(0.230187 0.194306 -0.00200963)
(0.191721 0.196748 -0.00167411)
(0.142672 0.180904 -0.00124613)
(0.0902397 0.152136 -0.000788491)
(0.0415239 0.113549 -0.000363462)
(0.00474963 0.0539357 -4.90799e-05)
(-0.232591 -2.45181 0.00203016)
(-0.214649 -2.26353 0.00187359)
(-0.194553 -2.07879 0.00169821)
(-0.172799 -1.89928 0.00150837)
(-0.149897 -1.72649 0.0013085)
(-0.126334 -1.56165 0.00110286)
(-0.10256 -1.40574 0.000895371)
(-0.0789651 -1.25947 0.000689439)
(-0.055879 -1.12328 0.000487945)
(-0.0335844 -0.997415 0.000293354)
(-0.0123025 -0.881926 0.000107601)
(0.0077685 -0.776716 -6.75909e-05)
(0.0264994 -0.681508 -0.000231085)
(0.0438362 -0.595925 -0.000382413)
(0.0597499 -0.519476 -0.000521322)
(0.0742733 -0.451599 -0.000648097)
(0.0874706 -0.391683 -0.000763296)
(0.0994407 -0.339077 -0.000867785)
(0.110312 -0.293108 -0.000962682)
(0.120239 -0.253085 -0.00104933)
(0.129396 -0.218308 -0.00112927)
(0.137981 -0.188058 -0.0012042)
(0.146203 -0.161599 -0.00127596)
(0.154283 -0.138169 -0.00134649)
(0.162449 -0.116962 -0.00141775)
(0.170922 -0.0971101 -0.0014917)
(0.179911 -0.0776444 -0.00157015)
(0.18959 -0.0574772 -0.00165461)
(0.200056 -0.0353849 -0.00174595)
(0.211264 -0.0100384 -0.00184376)
(0.222881 0.0198306 -0.00194515)
(0.234039 0.0550227 -0.00204256)
(0.242952 0.0950573 -0.00212041)
(0.246565 0.137043 -0.00215207)
(0.240695 0.174933 -0.00210104)
(0.221337 0.200545 -0.00193232)
(0.187142 0.207173 -0.00163408)
(0.141188 0.193819 -0.00123314)
(0.0902591 0.165371 -0.000788647)
(0.0417781 0.124918 -0.000365683)
(0.00474618 0.0600887 -4.90956e-05)
(-0.197234 -2.45178 0.00172152)
(-0.182738 -2.2672 0.00159504)
(-0.1663 -2.08553 0.00145159)
(-0.148317 -1.90847 0.00129465)
(-0.129204 -1.73754 0.00112785)
(-0.109375 -1.57403 0.000954796)
(-0.089217 -1.41898 0.000778871)
(-0.0690744 -1.27316 0.000603073)
(-0.0492375 -1.1371 0.00042994)
(-0.0299535 -1.0111 0.000261628)
(-0.0114199 -0.895252 9.98643e-05)
(0.00618271 -0.789517 -5.37796e-05)
(0.022724 -0.693673 -0.000198159)
(0.0381339 -0.607387 -0.000332667)
(0.0523696 -0.530208 -0.000456927)
(0.0654432 -0.461609 -0.000571045)
(0.077397 -0.401002 -0.000675389)
(0.0883056 -0.347758 -0.00077061)
(0.0982711 -0.30122 -0.000857598)
(0.10742 -0.260709 -0.000937461)
(0.115901 -0.225535 -0.00101149)
(0.123882 -0.194985 -0.00108115)
(0.131547 -0.168325 -0.00114805)
(0.139091 -0.144793 -0.00121389)
(0.146716 -0.123581 -0.00128044)
(0.154625 -0.103811 -0.00134947)
(0.163014 -0.0845038 -0.00142268)
(0.172056 -0.0645466 -0.00150159)
(0.18187 -0.0426755 -0.00158723)
(0.192466 -0.0174868 -0.0016797)
(0.203633 0.0124245 -0.00177716)
(0.214717 0.0480942 -0.00187391)
(0.224258 0.0893896 -0.00195723)
(0.229567 0.133795 -0.00200367)
(0.226658 0.175403 -0.00197846)
(0.211252 0.205583 -0.00184422)
(0.181173 0.216534 -0.00158193)