/*--------------------------------*- C++ -*----------------------------------*\
| =========                 |                                                 |
| \\      /  F ield         | OpenFOAM: The Open Source CFD Toolbox           |
|  \\    /   O peration     | Version:  v2012                                 |
|   \\  /    A nd           | Website:  www.openfoam.com                      |
|    \\/     M anipulation  |                                                 |
\*---------------------------------------------------------------------------*/
FoamFile
{
    version     2.0;
    format      ascii;
    class       surfaceScalarField;
    location    "0.2";
    object      phi;
}
// * * * * * * * * * * * * * * * * * * * * * * * * * * * * * * * * * * * * * //

dimensions      [0 3 -1 0 0 0 0];
oriented        oriented;


internalField   nonuniform List<scalar> 
6347
(
1.07509e-13
-1.26049e-12
-1.6104e-16
2.64293e-13
-2.72738e-12
2.73566e-16
5.08738e-13
-4.61358e-12
2.63898e-17
8.50428e-13
-6.89876e-12
-2.96005e-16
1.30482e-12
-9.59039e-12
1.20183e-16
1.87803e-12
-1.26823e-11
1.98727e-16
2.58878e-12
-1.62017e-11
-5.10451e-16
3.44115e-12
-2.01471e-11
5.81143e-16
4.45277e-12
-2.45448e-11
-5.0508e-16
5.62804e-12
-2.9397e-11
3.61075e-16
6.98007e-12
-3.47207e-11
-2.62679e-16
8.51441e-12
-4.05269e-11
1.31632e-16
1.02389e-11
-4.68161e-11
-1.4495e-16
1.21575e-11
-5.35971e-11
8.51748e-17
1.42725e-11
-6.08605e-11
-8.50176e-17
-6.86017e-11
8.31785e-17
2.5629e-14
-3.04071e-13
4.15166e-17
1.15396e-13
-1.35031e-12
2.57337e-17
2.84474e-13
-2.8965e-12
2.46725e-17
5.46257e-13
-4.87475e-12
-3.07069e-16
9.13994e-13
-7.2671e-12
3.13858e-16
1.39858e-12
-1.00749e-11
-2.90104e-17
2.01628e-12
-1.32993e-11
-2.63994e-16
2.77466e-12
-1.69611e-11
3.90313e-16
3.69034e-12
-2.10619e-11
-4.46032e-16
4.77014e-12
-2.56254e-11
3.51727e-16
6.02802e-12
-3.06544e-11
-3.01423e-16
7.47078e-12
-3.61638e-11
1.71704e-16
9.10814e-12
-4.21641e-11
-1.49958e-16
1.09451e-11
-4.86531e-11
7.81177e-17
1.29868e-11
-5.56387e-11
-9.25903e-17
1.52343e-11
-6.31081e-11
7.01451e-17
1.76867e-11
-7.1054e-11
-4.9643e-17
-7.94601e-11
7.08806e-17
2.78413e-14
-3.3189e-13
-1.09827e-17
1.24939e-13
-1.44727e-12
-6.3498e-17
3.07013e-13
-3.07852e-12
-2.15677e-17
5.88257e-13
-5.15648e-12
2.07623e-16
9.83984e-13
-7.66259e-12
-7.34481e-17
1.50597e-12
-1.05967e-11
-1.57382e-16
2.16739e-12
-1.39612e-11
2.79969e-16
2.98283e-12
-1.77758e-11
-3.47232e-16
3.96141e-12
-2.2041e-11
3.63654e-16
5.11839e-12
-2.67819e-11
-3.33595e-16
6.46166e-12
-3.19982e-11
1.96894e-16
8.00336e-12
-3.77052e-11
-1.76161e-16
9.74953e-12
-4.39106e-11
7.93872e-17
1.17079e-11
-5.06113e-11
-7.61375e-17
1.38808e-11
-5.78117e-11
5.54915e-17
1.62701e-11
-6.54973e-11
-4.42585e-17
1.88729e-11
-7.36568e-11
6.17504e-17
2.16839e-11
-8.22708e-11
-3.63111e-17
-9.1311e-11
5.49121e-17
3.0103e-14
-3.62016e-13
1.23285e-17
1.34869e-13
-1.55197e-12
-2.78854e-17
3.31474e-13
-3.27509e-12
-8.2156e-18
6.34746e-13
-5.45981e-12
1.62218e-18
1.05966e-12
-8.08755e-12
4.95386e-17
1.6204e-12
-1.11575e-11
-1.48414e-17
2.33105e-12
-1.46717e-11
-4.18684e-17
3.20482e-12
-1.86497e-11
9.37018e-17
4.25525e-12
-2.3091e-11
-1.39303e-16
5.49336e-12
-2.80205e-11
1.25738e-16
6.93165e-12
-3.34362e-11
-1.59282e-16
8.57873e-12
-3.93525e-11
7.94474e-17
1.04435e-11
-4.57753e-11
-1.07474e-16
1.25314e-11
-5.26993e-11
5.88614e-17
1.48456e-11
-6.01259e-11
-5.71911e-17
1.73863e-11
-6.80379e-11
5.11681e-17
2.015e-11
-7.64204e-11
-3.41954e-17
2.3129e-11
-8.52498e-11
4.77234e-17
-9.44939e-11
-2.64606e-17
3.26024e-14
-3.94633e-13
9.05991e-18
1.45799e-13
-1.66502e-12
-6.32944e-17
3.58049e-13
-3.48705e-12
-1.33561e-16
6.83952e-13
-5.78652e-12
3.60148e-16
1.14113e-12
-8.54459e-12
-7.39047e-18
1.74533e-12
-1.17611e-11
-2.72679e-16
2.50814e-12
-1.54348e-11
2.12506e-16
3.44739e-12
-1.95887e-11
-1.67042e-16
4.57334e-12
-2.42172e-11
1.74665e-16
5.9015e-12
-2.93482e-11
-1.90614e-16
7.44088e-12
-3.49758e-11
1.67739e-16
9.20303e-12
-4.11145e-11
-1.64846e-16
1.11947e-11
-4.77673e-11
5.66408e-17
1.34224e-11
-5.49269e-11
-6.99597e-17
1.58876e-11
-6.25914e-11
2.64541e-17
1.85902e-11
-7.07405e-11
-3.36636e-17
2.15248e-11
-7.93551e-11
3.81523e-17
2.46827e-11
-8.84075e-11
-2.89162e-17
-9.78611e-11
4.25395e-17
3.53731e-14
-4.30013e-13
5.82276e-18
1.57837e-13
-1.7874e-12
-3.14996e-17
3.86811e-13
-3.71611e-12
4.82815e-17
7.40034e-13
-6.1395e-12
-1.32383e-16
1.23321e-12
-9.03794e-12
1.235e-16
1.88253e-12
-1.24106e-11
-3.59562e-17
2.70352e-12
-1.62561e-11
1.0395e-16
3.71182e-12
-2.05967e-11
-7.72277e-17
4.92139e-12
-2.54266e-11
-3.16745e-17
6.34474e-12
-3.07718e-11
1.07175e-16
7.99504e-12
-3.66255e-11
-1.14207e-16
9.88007e-12
-4.3e-11
5.41842e-17
1.20093e-11
-4.98965e-11
-9.53407e-17
1.43867e-11
-5.73044e-11
3.04753e-17
1.70142e-11
-6.5219e-11
-5.01042e-17
1.98897e-11
-7.3616e-11
2.47316e-17
2.30069e-11
-8.24722e-11
-2.36526e-17
2.63545e-11
-9.17552e-11
2.98148e-17
-1.01423e-10
-2.175e-17
3.83363e-14
-4.68383e-13
1.97374e-17
1.70894e-13
-1.91983e-12
-5.28544e-17
4.18542e-13
-3.96362e-12
-5.78178e-17
7.98796e-13
-6.52014e-12
1.74964e-16
1.33005e-12
-9.56926e-12
8.89305e-17
2.03015e-12
-1.31103e-11
-1.53333e-16
2.9141e-12
-1.714e-11
4.98328e-17
3.99859e-12
-2.16812e-11
-2.48758e-17
5.29834e-12
-2.67264e-11
5.5249e-17
6.82711e-12
-3.23002e-11
-9.86769e-17
8.59641e-12
-3.83947e-11
1.12829e-16
1.06158e-11
-4.50194e-11
-1.12652e-16
1.28929e-11
-5.21739e-11
1.98921e-17
1.54319e-11
-5.98436e-11
-4.02116e-17
1.82335e-11
-6.80209e-11
-1.64495e-17
2.12943e-11
-7.66769e-11
-1.3793e-17
2.46059e-11
-8.57839e-11
1.09896e-17
2.81553e-11
-9.53044e-11
-1.28996e-17
-1.05192e-10
3.42081e-17
4.1809e-14
-5.10112e-13
-3.66034e-17
1.85547e-13
-2.0635e-12
-2.93298e-17
4.53706e-13
-4.23177e-12
-3.20474e-18
8.65519e-13
-6.93229e-12
1.75442e-16
1.43983e-12
-1.01432e-11
-1.99777e-16
2.1962e-12
-1.38669e-11
5.45949e-17
3.14856e-12
-1.80927e-11
1.73432e-16
4.31658e-12
-2.28489e-11
-1.51802e-16
5.71374e-12
-2.81236e-11
8.89652e-17
7.35532e-12
-3.39419e-11
-2.92218e-17
9.2532e-12
-4.02924e-11
-1.41285e-17
1.14168e-11
-4.71831e-11
-1.85289e-17
1.38534e-11
-5.46105e-11
-1.70637e-17
1.65661e-11
-6.25564e-11
-2.79591e-17
1.95543e-11
-7.10094e-11
-2.23146e-17
2.28132e-11
-7.99358e-11
9.96271e-19
2.63321e-11
-8.9303e-11
-4.34715e-18
3.00956e-11
-9.90679e-11
2.30726e-17
-1.09178e-10
-5.44365e-18
4.51358e-14
-5.5533e-13
4.24268e-17
2.00685e-13
-2.21907e-12
1.36395e-17
4.90525e-13
-4.5214e-12
-1.08274e-16
9.35593e-13
-7.3774e-12
-8.11253e-17
1.55705e-12
-1.0765e-11
3.12131e-16
2.3715e-12
-1.46811e-11
-1.7274e-16
3.40114e-12
-1.91217e-11
-8.18302e-17
4.65857e-12
-2.41068e-11
2.01659e-16
6.16403e-12
-2.96286e-11
-1.08601e-16
7.92912e-12
-3.57071e-11
2.67124e-17
9.96763e-12
-4.23308e-11
8.77793e-19
1.22881e-11
-4.95036e-11
-2.3872e-17
1.48976e-11
-5.72198e-11
1.42539e-17
1.77975e-11
-6.54566e-11
-2.73314e-17
2.09866e-11
-7.41987e-11
-3.42187e-17
2.44577e-11
-8.3407e-11
6.17248e-18
2.8198e-11
-9.30434e-11
-1.5616e-18
3.21889e-11
-1.03059e-10
5.5809e-18
-1.13394e-10
2.65758e-17
4.93407e-14
-6.04612e-13
-3.0019e-17
2.1837e-13
-2.38821e-12
4.68692e-17
5.32745e-13
-4.83572e-12
-4.05866e-17
1.01542e-12
-7.85988e-12
-1.71672e-16
1.68742e-12
-1.14373e-11
2.60785e-16
2.56763e-12
-1.55613e-11
-1.65075e-16
3.67882e-12
-2.02328e-11
5.30931e-17
5.03536e-12
-2.54636e-11
8.00611e-17
6.65718e-12
-3.12501e-11
-9.2562e-17
8.55654e-12
-3.76067e-11
7.73418e-17
1.07475e-11
-4.45214e-11
-6.83015e-17
1.32377e-11
-5.19939e-11
2.0967e-17
1.60338e-11
-6.00157e-11
-4.53055e-18
1.91358e-11
-6.85589e-11
-3.54346e-17
2.25406e-11
-7.76039e-11
-2.64782e-17
2.62392e-11
-8.71056e-11
-1.73604e-17
3.02157e-11
-9.702e-11
-6.42385e-19
3.44482e-11
-1.07291e-10
9.99159e-18
-1.17854e-10
6.6694e-18
5.37659e-14
-6.58347e-13
-1.60343e-17
2.37671e-13
-2.57217e-12
2.581e-17
5.79552e-13
-5.17732e-12
-1.49977e-16
1.10265e-12
-8.38342e-12
1.61118e-16
1.83066e-12
-1.21652e-11
6.05133e-17
2.78444e-12
-1.65149e-11
-1.67804e-16
3.98493e-12
-2.14332e-11
1.3869e-16
5.45005e-12
-2.69287e-11
-9.08834e-17
7.19797e-12
-3.29982e-11
7.43316e-17
9.2442e-12
-3.96527e-11
-7.27557e-17
1.16001e-11
-4.68772e-11
7.01766e-17
1.42748e-11
-5.46684e-11
-5.61712e-17
1.72727e-11
-6.30134e-11
2.36676e-17
2.0593e-11
-7.18796e-11
-3.08542e-17
2.42304e-11
-8.12415e-11
-6.39332e-17
2.81728e-11
-9.10481e-11
1.01057e-17
3.24013e-11
-1.01249e-10
-2.93616e-17
3.68902e-11
-1.1178e-10
1.52702e-17
-1.2257e-10
1.99678e-17
5.86597e-14
-7.16973e-13
-1.73173e-17
2.58933e-13
-2.77254e-12
4.47616e-17
6.30484e-13
-5.54882e-12
-3.20692e-17
1.19955e-12
-8.95221e-12
-1.76913e-16
1.98921e-12
-1.29551e-11
2.17082e-16
3.0218e-12
-1.75478e-11
-3.63524e-17
4.32087e-12
-2.27318e-11
-2.91844e-17
5.90361e-12
-2.85117e-11
1.05703e-16
7.79071e-12
-3.48849e-11
-1.26462e-16
9.9962e-12
-4.18584e-11
1.11004e-16
1.25327e-11
-4.94134e-11
-7.64952e-17
1.54077e-11
-5.75435e-11
-7.97336e-18
1.86247e-11
-6.62302e-11
1.86191e-17
2.21809e-11
-7.5436e-11
-1.01782e-16
2.60683e-11
-8.51292e-11
8.18316e-18
3.0272e-11
-9.52519e-11
-5.87043e-17
3.47691e-11
-1.05746e-10
1.97644e-17
3.95301e-11
-1.16541e-10
-9.9201e-18
4.45166e-11
-1.27556e-10
1.11739e-17
4.96829e-11
-1.38695e-10
1.63911e-17
5.49753e-11
-1.49856e-10
-1.10785e-18
6.03337e-11
-1.60945e-10
3.31077e-17
-1.71826e-10
-5.62948e-18
6.42013e-14
-7.81118e-13
-2.77406e-17
2.82761e-13
-2.99115e-12
2.70137e-17
6.87872e-13
-5.95371e-12
-1.16202e-16
1.30572e-12
-9.57085e-12
3.1593e-16
2.16285e-12
-1.38122e-11
3.94354e-17
3.28521e-12
-1.86691e-11
-5.66799e-16
4.69085e-12
-2.41379e-11
4.54103e-16
6.40532e-12
-3.02263e-11
-1.678e-16
8.44412e-12
-3.69239e-11
1.78655e-17
1.08255e-11
-4.42394e-11
-1.11923e-17
1.35587e-11
-5.21463e-11
1.70411e-17
1.66516e-11
-6.06365e-11
-1.46206e-18
2.01061e-11
-6.96844e-11
-7.63795e-17
2.39168e-11
-7.92473e-11
2.61125e-17
2.80737e-11
-8.92861e-11
-1.37693e-16
3.25573e-11
-9.97357e-11
5.09805e-17
3.7341e-11
-1.1053e-10
-7.39604e-17
4.239e-11
-1.2159e-10
2.96671e-17
4.76606e-11
-1.32827e-10
-7.24888e-18
5.31014e-11
-1.44135e-10
7.72273e-18
5.8653e-11
-1.55408e-10
1.80824e-17
6.42492e-11
-1.66541e-10
-5.44495e-18
-1.77394e-10
2.16289e-17
7.01213e-14
-8.51218e-13
-1.09532e-17
3.08289e-13
-3.22948e-12
7.89611e-17
7.49073e-13
-6.39469e-12
8.91505e-17
1.42198e-12
-1.0243e-11
-4.51091e-16
2.35425e-12
-1.47441e-11
-1.07844e-16
3.57232e-12
-1.98888e-11
6.3117e-16
5.09866e-12
-2.56633e-11
-5.29024e-16
6.95829e-12
-3.20863e-11
2.56651e-16
9.16384e-12
-3.91293e-11
-7.04648e-17
1.17371e-11
-4.68124e-11
1.84897e-17
1.46848e-11
-5.50937e-11
8.8194e-17
1.80156e-11
-6.39672e-11
-1.55247e-16
2.17275e-11
-7.33963e-11
1.20412e-16
2.58145e-11
-8.33344e-11
-2.04445e-16
3.0261e-11
-9.37331e-11
6.31131e-17
3.50452e-11
-1.0452e-10
-1.24854e-16
4.01341e-11
-1.15619e-10
3.41717e-17
4.54884e-11
-1.26944e-10
-4.8467e-17
5.10579e-11
-1.38396e-10
1.23582e-17
5.6785e-11
-1.49862e-10
-5.76561e-18
6.26034e-11
-1.61226e-10
-5.96203e-18
6.84405e-11
-1.72379e-10
1.50032e-17
-1.83171e-10
-8.95613e-18
7.71271e-14
-9.28191e-13
-7.70314e-17
3.3774e-13
-3.49033e-12
1.15052e-16
8.19529e-13
-6.8769e-12
2.04782e-16
1.55474e-12
-1.09777e-11
-3.19286e-16
2.57055e-12
-1.57593e-11
-2.6751e-16
3.89939e-12
-2.12184e-11
4.79128e-16
5.55766e-12
-2.73211e-11
-2.58399e-16
7.57692e-12
-3.41054e-11
-2.32631e-16
9.96597e-12
-4.15194e-11
3.45298e-16
1.27494e-11
-4.95949e-11
-1.87834e-16
1.59322e-11
-5.82761e-11
1.11602e-16
1.95205e-11
-6.75558e-11
1.99126e-17
2.35126e-11
-7.7388e-11
-1.29331e-16
2.78967e-11
-8.7719e-11
6.61826e-17
3.26556e-11
-9.8492e-11
-1.75046e-16
3.77605e-11
-1.09625e-10
5.91711e-17
4.31746e-11
-1.21033e-10
-1.05433e-16
4.88509e-11
-1.3262e-10
2.46189e-17
5.47333e-11
-1.44279e-10
-3.28321e-17
6.07566e-11
-1.55886e-10
-1.08016e-18
6.68479e-11
-1.67317e-10
4.26947e-18
7.29274e-11
-1.78458e-10
-5.84362e-18
-1.89153e-10
1.90463e-17
8.45892e-14
-1.01267e-12
-5.77128e-17
3.70317e-13
-3.77562e-12
-2.32048e-16
8.96569e-13
-7.40276e-12
-2.19463e-16
1.69601e-12
-1.17784e-11
5.53745e-16
2.80002e-12
-1.68635e-11
7.12331e-17
4.245e-12
-2.26628e-11
-5.0564e-16
6.04668e-12
-2.9123e-11
4.97552e-17
8.23934e-12
-3.62981e-11
2.82072e-16
1.08348e-11
-4.41141e-11
-4.40309e-16
1.3852e-11
-5.26124e-11
2.57045e-16
1.72958e-11
-6.17194e-11
2.65915e-17
2.11705e-11
-7.14303e-11
-1.41859e-16
2.54686e-11
-8.16863e-11
1.27804e-16
3.01778e-11
-9.24282e-11
-2.03821e-16
3.52736e-11
-1.03588e-10
6.24567e-17
4.07238e-11
-1.15075e-10
-1.34636e-16
4.6484e-11
-1.26793e-10
2.66105e-17
5.2501e-11
-1.38637e-10
-6.163e-17
5.87108e-11
-1.50489e-10
5.02353e-18
6.50408e-11
-1.62216e-10
-1.93146e-17
7.14101e-11
-1.73686e-10
-6.41881e-18
7.77315e-11
-1.8478e-10
1.13154e-17
-1.95335e-10
-2.64621e-18
9.27805e-14
-1.10542e-12
-2.75969e-17
4.05798e-13
-4.08981e-12
5.84542e-16
9.80885e-13
-7.98051e-12
1.34665e-15
1.8625e-12
-1.26554e-11
-2.30427e-15
3.07758e-12
-1.8077e-11
-8.37195e-16
4.64478e-12
-2.42348e-11
2.31609e-15
6.6189e-12
-3.10931e-11
-1.98611e-15
8.99978e-12
-3.86804e-11
8.47857e-16
1.18212e-11
-4.69351e-11
-3.64957e-16
1.50904e-11
-5.58817e-11
1.1306e-16
1.88174e-11
-6.5446e-11
-6.36303e-18
2.29994e-11
-7.56125e-11
1.69369e-17
2.76298e-11
-8.63164e-11
-1.0089e-16
3.2688e-11
-9.74869e-11
3.22544e-17
3.8147e-11
-1.09047e-10
-1.37678e-16
4.39656e-11
-1.20894e-10
2.91647e-17
5.00936e-11
-1.32921e-10
-9.38338e-17
5.6469e-11
-1.45013e-10
9.81865e-18
6.30198e-11
-1.5704e-10
-3.8962e-17
6.96647e-11
-1.68861e-10
-8.01046e-18
7.63147e-11
-1.80336e-10
-5.26043e-18
8.28747e-11
-1.9134e-10
-6.32234e-18
-2.01706e-10
1.41522e-17
1.02139e-13
-1.20765e-12
3.12714e-17
4.46998e-13
-4.43495e-12
1.22892e-16
1.07786e-12
-8.61351e-12
1.06681e-15
2.04097e-12
-1.36156e-11
-1.50541e-15
3.36856e-12
-1.94032e-11
-7.28108e-16
5.08366e-12
-2.59537e-11
1.7614e-15
7.23672e-12
-3.3243e-11
-1.69574e-15
9.83275e-12
-4.12781e-11
1.00163e-15
1.29033e-11
-5.00045e-11
-6.88022e-16
1.64539e-11
-5.94329e-11
3.54723e-16
2.04935e-11
-6.94849e-11
-1.03483e-16
2.50159e-11
-8.01351e-11
-2.01021e-17
3.0009e-11
-9.13097e-11
-1.74611e-18
3.54485e-11
-1.02926e-10
-1.06268e-16
4.1299e-11
-1.14898e-10
4.56268e-19
4.75133e-11
-1.27108e-10
-9.31301e-17
5.40319e-11
-1.3944e-10
-2.89129e-18
6.07845e-11
-1.51765e-10
-5.4705e-17
6.76895e-11
-1.63945e-10
-7.12727e-18
7.46567e-11
-1.75828e-10
-2.24902e-17
8.1588e-11
-1.87268e-10
-9.42139e-18
8.83803e-11
-1.98132e-10
3.64702e-18
-2.08254e-10
-2.36737e-18
1.12985e-13
-1.32062e-12
-2.64046e-17
4.9297e-13
-4.81525e-12
1.36296e-16
1.18769e-12
-9.31058e-12
1.16291e-15
2.24748e-12
-1.46724e-11
-1.47773e-15
3.70422e-12
-2.0858e-11
-9.98609e-16
5.58528e-12
-2.78389e-11
1.91035e-15
7.93896e-12
-3.55938e-11
-1.56328e-15
1.07731e-11
-4.4113e-11
5.67011e-16
1.41175e-11
-5.33487e-11
-1.45932e-16
1.79778e-11
-6.32932e-11
-1.52342e-16
2.23595e-11
-7.38669e-11
2.09867e-16
2.72534e-11
-8.50287e-11
-2.1955e-16
3.26418e-11
-9.66984e-11
8.29669e-17
3.84935e-11
-1.08778e-10
-1.16194e-16
4.47661e-11
-1.21171e-10
-2.30538e-17
5.14027e-11
-1.33745e-10
-4.79769e-17
5.83352e-11
-1.46373e-10
-4.76098e-17
6.54826e-11
-1.58913e-10
-2.44367e-17
7.27538e-11
-1.71216e-10
-3.44301e-17
8.0048e-11
-1.83122e-10
-1.73068e-17
8.72579e-11
-1.94477e-10
-1.17851e-17
9.42719e-11
-2.05147e-10
-6.81845e-18
-2.14959e-10
7.91806e-18
1.24959e-13
-1.44558e-12
-1.39272e-17
5.44469e-13
-5.23512e-12
1.56564e-16
1.30995e-12
-1.00784e-11
1.14523e-15
2.47387e-12
-1.58334e-11
-1.50562e-15
4.07353e-12
-2.24565e-11
-6.34855e-16
6.13805e-12
-2.99069e-11
1.49603e-15
8.71644e-12
-3.81689e-11
-1.68664e-15
1.18176e-11
-4.72162e-11
1.16757e-15
1.54703e-11
-5.69993e-11
-1.02052e-15
1.96745e-11
-6.74992e-11
7.30811e-16
2.44365e-11
-7.86276e-11
-5.97993e-16
2.97381e-11
-9.03311e-11
3.9095e-16
3.55588e-11
-1.02519e-10
-3.40832e-16
4.18575e-11
-1.15077e-10
1.4642e-16
4.85844e-11
-1.27897e-10
-1.67349e-16
5.5672e-11
-1.40833e-10
8.48052e-18
6.30419e-11
-1.53742e-10
-6.9418e-17
7.06015e-11
-1.66473e-10
-3.09341e-17
7.82484e-11
-1.78863e-10
-3.14892e-17
8.58713e-11
-1.90745e-10
-2.26252e-17
9.33532e-11
-2.01959e-10
-1.35157e-17
1.00574e-10
-2.12367e-10
-3.41407e-18
-2.21799e-10
-2.08185e-18
1.38649e-13
-1.58424e-12
-8.4723e-18
6.02757e-13
-5.69959e-12
1.53681e-16
1.44821e-12
-1.09259e-11
1.02387e-15
2.73292e-12
-1.71137e-11
-2.25975e-15
4.49463e-12
-2.42158e-11
-1.23102e-15
6.76059e-12
-3.21812e-11
4.05768e-15
9.59215e-12
-4.09947e-11
-3.01681e-15
1.29902e-11
-5.06157e-11
7.68542e-16
1.6981e-11
-6.09907e-11
2.73019e-16
2.15697e-11
-7.20865e-11
-9.04636e-16
2.67473e-11
-8.38072e-11
8.98545e-16
3.25005e-11
-9.60825e-11
-8.38714e-16
3.87919e-11
-1.08811e-10
5.61884e-16
4.5578e-11
-1.21862e-10
-4.58779e-16
5.27938e-11
-1.35114e-10
2.11206e-16
6.03632e-11
-1.48402e-10
-2.00682e-16
6.81938e-11
-1.61573e-10
3.36739e-17
7.61818e-11
-1.7446e-10
-7.87121e-17
8.42122e-11
-1.86894e-10
-2.11476e-17
9.21621e-11
-1.98695e-10
-3.07732e-17
9.99043e-11
-2.09701e-10
-1.67653e-17
1.0731e-10
-2.19774e-10
-9.73701e-18
-2.28743e-10
-2.2446e-18
1.53969e-13
-1.73814e-12
-5.09967e-17
6.6974e-13
-6.21534e-12
-4.65743e-17
1.60998e-12
-1.18668e-11
2.81115e-16
3.03046e-12
-1.85354e-11
5.45905e-16
4.97307e-12
-2.61605e-11
1.13322e-15
7.4862e-12
-3.46887e-11
-2.96496e-15
1.05954e-11
-4.41053e-11
5.6288e-16
1.43219e-11
-5.43434e-11
8.62693e-16
1.86972e-11
-6.53629e-11
-1.58134e-15
2.37038e-11
-7.70965e-11
1.49754e-15
2.93481e-11
-8.94488e-11
-1.43729e-15
3.55887e-11
-1.02325e-10
1.10667e-15
4.23971e-11
-1.15618e-10
-9.25775e-16
4.97058e-11
-1.29172e-10
5.33036e-16
5.74473e-11
-1.42854e-10
-4.26591e-16
6.55265e-11
-1.56482e-10
1.69712e-16
7.38406e-11
-1.69887e-10
-1.62081e-16
8.22699e-11
-1.8289e-10
1.34054e-17
9.06871e-11
-1.95311e-10
-6.08934e-17
9.89568e-11
-2.06965e-10
-1.89742e-17
1.06941e-10
-2.17685e-10
-1.97432e-17
1.14504e-10
-2.27337e-10
-1.04261e-17
-2.35753e-10
-4.4226e-18
1.71705e-13
-1.90999e-12
5.18413e-17
7.44955e-13
-6.78851e-12
-7.99564e-17
1.78712e-12
-1.2909e-11
-1.75931e-17
3.35913e-12
-2.01072e-11
-2.10758e-16
5.50419e-12
-2.83076e-11
1.03323e-15
8.27272e-12
-3.74539e-11
-1.67215e-15
1.17019e-11
-4.75322e-11
-1.19545e-15
1.57971e-11
-5.84456e-11
3.60416e-15
2.06011e-11
-7.01614e-11
-2.8673e-15
2.60852e-11
-8.25825e-11
8.16312e-16
3.22401e-11
-9.56046e-11
3.4855e-16
3.90315e-11
-1.09115e-10
-9.21734e-16
4.64014e-11
-1.2299e-10
8.20957e-16
5.42854e-11
-1.37055e-10
-7.43448e-16
6.25903e-11
-1.5116e-10
4.20581e-16
7.12135e-11
-1.65104e-10
-3.33117e-16
8.00323e-11
-1.78706e-10
1.13777e-16
8.89146e-11
-1.91772e-10
-1.23707e-16
9.77177e-11
-2.04114e-10
-4.60802e-18
1.06294e-10
-2.15542e-10
-4.21186e-17
1.14496e-10
-2.25887e-10
-1.75774e-17
1.22179e-10
-2.3502e-10
-1.20231e-17
-2.42782e-10
-9.29705e-18
1.91646e-13
-2.10158e-12
-4.25391e-17
8.30561e-13
-7.42769e-12
9.59098e-17
1.99234e-12
-1.40717e-11
4.07982e-16
3.74466e-12
-2.18583e-11
-6.599e-16
6.13568e-12
-3.06978e-11
-3.29251e-16
9.20826e-12
-4.05296e-11
1.47905e-15
1.29988e-11
-5.13232e-11
1.69453e-16
1.75289e-11
-6.29704e-11
-2.53721e-15
2.27987e-11
-7.54339e-11
1.51173e-15
2.88019e-11
-8.85865e-11
1.12738e-16
3.5523e-11
-1.02324e-10
-1.08051e-15
4.29022e-11
-1.16496e-10
1.11975e-15
5.08883e-11
-1.30974e-10
-1.04095e-15
5.93839e-11
-1.45552e-10
6.51443e-16
6.82928e-11
-1.60068e-10
-5.11717e-16
7.74859e-11
-1.74298e-10
2.05478e-16
8.68287e-11
-1.88048e-10
-1.98578e-16
9.61692e-11
-2.01113e-10
2.8878e-17
1.05351e-10
-2.13296e-10
-7.47431e-17
1.14213e-10
-2.24404e-10
-1.3007e-17
1.22597e-10
-2.34271e-10
-2.3455e-17
1.30353e-10
-2.42776e-10
-1.40005e-17
-2.49772e-10
-5.96588e-18
2.15733e-13
-2.31746e-12
6.65726e-17
9.32456e-13
-8.14417e-12
-1.32884e-16
2.23431e-12
-1.53717e-11
-9.53265e-16
4.1808e-12
-2.38067e-11
8.86332e-16
6.83497e-12
-3.33535e-11
7.44192e-16
1.02496e-11
-4.3942e-11
-1.12102e-15
1.44423e-11
-5.55171e-11
6.59593e-16
1.94431e-11
-6.7971e-11
7.56535e-17
2.5252e-11
-8.12411e-11
-6.13648e-16
3.18462e-11
-9.51822e-11
4.74209e-16
3.91972e-11
-1.09675e-10
-1.23398e-16
4.72415e-11
-1.24539e-10
-3.71295e-16
5.5898e-11
-1.39632e-10
3.9514e-16
6.50649e-11
-1.54718e-10
-4.71851e-16
7.46167e-11
-1.6962e-10
2.75664e-16
8.44119e-11
-1.84093e-10
-2.82639e-16
9.42928e-11
-1.97929e-10
8.64563e-17
1.04092e-10
-2.10912e-10
-1.18839e-16
1.13637e-10
-2.22841e-10
-5.06788e-18
1.22753e-10
-2.3352e-10
-4.29773e-17
1.31274e-10
-2.42792e-10
-1.65307e-17
1.39045e-10
-2.50547e-10
-1.36466e-17
-2.56653e-10
-1.31555e-17
2.42437e-13
-2.55977e-12
-6.03985e-17
1.04579e-12
-8.94771e-12
9.28338e-17
2.50212e-12
-1.68271e-11
-4.60543e-16
4.67963e-12
-2.5985e-11
3.0144e-16
7.6424e-12
-3.63176e-11
6.71823e-16
1.14403e-11
-4.77381e-11
-8.45151e-16
1.60968e-11
-6.01756e-11
9.16589e-16
2.16365e-11
-7.35088e-11
-6.95311e-16
2.80472e-11
-8.76511e-11
-2.00082e-16
3.53008e-11
-1.02438e-10
7.45456e-16
4.3354e-11
-1.17726e-10
-9.15476e-16
5.21229e-11
-1.33309e-10
6.32728e-16
6.15147e-11
-1.49022e-10
-5.83342e-16
7.14001e-11
-1.64604e-10
3.16186e-16
8.16376e-11
-1.79857e-10
-2.80247e-16
9.20595e-11
-1.94515e-10
9.18611e-17
1.0249e-10
-2.0836e-10
-1.33518e-16
1.12741e-10
-2.21163e-10
1.14778e-17
1.22623e-10
-2.32723e-10
-6.79258e-17
1.31951e-10
-2.42849e-10
-1.02192e-17
1.40551e-10
-2.51392e-10
-2.44467e-17
1.48263e-10
-2.58259e-10
-1.29471e-17
-2.63342e-10
-6.42901e-18
2.74177e-13
-2.83396e-12
8.48845e-18
1.1804e-12
-9.85408e-12
6.44483e-17
2.81944e-12
-1.84649e-11
-6.35932e-16
5.26484e-12
-2.84313e-11
4.16039e-16
8.58499e-12
-3.96391e-11
6.41017e-16
1.2827e-11
-5.19784e-11
-7.70359e-16
1.80157e-11
-6.5366e-11
7.69399e-16
2.41652e-11
-7.96568e-11
-5.35611e-16
3.12578e-11
-9.47433e-11
-2.08032e-16
3.92503e-11
-1.10431e-10
4.70267e-16
4.8082e-11
-1.26557e-10
-4.33138e-16
5.76515e-11
-1.42879e-10
3.44876e-17
6.78401e-11
-1.59212e-10
-3.43643e-17
7.84985e-11
-1.75262e-10
-1.57241e-16
8.94566e-11
-1.90815e-10
8.66528e-17
1.00525e-10
-2.05584e-10
-1.61861e-16
1.11504e-10
-2.19338e-10
4.15696e-17
1.22186e-10
-2.31845e-10
-9.20131e-17
1.32365e-10
-2.42903e-10
-3.16279e-18
1.41846e-10
-2.5233e-10
-4.19735e-17
1.50448e-10
-2.59994e-10
-1.08027e-17
1.58013e-10
-2.65824e-10
-1.53306e-17
-2.69739e-10
-1.41598e-17
3.10155e-13
-3.14415e-12
2.30159e-17
1.33353e-12
-1.08775e-11
3.8584e-17
3.18065e-12
-2.03107e-11
-6.68856e-16
5.93086e-12
-3.11824e-11
3.90276e-16
9.65624e-12
-4.33656e-11
6.61517e-16
1.44044e-11
-5.67249e-11
-8.34548e-16
2.01962e-11
-7.11597e-11
9.22276e-16
2.70368e-11
-8.64954e-11
-7.12898e-16
3.48981e-11
-1.02604e-10
-2.60836e-17
4.37197e-11
-1.19254e-10
4.30828e-16
5.34196e-11
-1.36256e-10
-5.24818e-16
6.38722e-11
-1.53332e-10
2.2942e-16
7.49321e-11
-1.70272e-10
-2.71208e-16
8.64208e-11
-1.8675e-10
8.99379e-17
9.81409e-11
-2.02535e-10
-1.2527e-16
1.09874e-10
-2.17318e-10
2.05944e-17
1.21397e-10
-2.30861e-10
-9.04233e-17
1.3248e-10
-2.42929e-10
1.11597e-17
1.42905e-10
-2.53328e-10
-6.63623e-17
1.52464e-10
-2.6189e-10
-1.47779e-18
1.60977e-10
-2.68506e-10
-2.79519e-17
1.68287e-10
-2.73135e-10
-1.0806e-17
-2.75729e-10
-7.0384e-18
3.54426e-13
-3.49847e-12
-5.20143e-17
1.51984e-12
-1.20431e-11
6.93294e-17
3.61719e-12
-2.24073e-11
-3.83544e-16
6.7315e-12
-3.42983e-11
7.35651e-16
1.09388e-11
-4.75748e-11
9.82096e-16
1.62823e-11
-6.20637e-11
-2.11929e-15
2.27762e-11
-7.76567e-11
1.39305e-15
3.04115e-11
-9.41297e-11
-3.51123e-16
3.91488e-11
-1.1134e-10
-7.4925e-16
4.89006e-11
-1.29008e-10
1.05626e-15
5.95646e-11
-1.46918e-10
-9.471e-16
7.09824e-11
-1.64751e-10
4.64879e-16
8.29795e-11
-1.82269e-10
-3.58642e-16
9.53445e-11
-1.99115e-10
6.3089e-17
1.07848e-10
-2.15038e-10
-3.23572e-17
1.20243e-10
-2.29713e-10
-9.27146e-17
1.32279e-10
-2.42897e-10
2.58647e-17
1.43709e-10
-2.54358e-10
-8.08489e-17
1.54298e-10
-2.63918e-10
6.37635e-18
1.63836e-10
-2.71428e-10
-4.41066e-17
1.72141e-10
-2.7681e-10
-5.16941e-18
1.79068e-10
-2.80063e-10
-1.61141e-17
-2.81175e-10
-1.68336e-17
4.0421e-13
-3.90275e-12
3.83367e-17
1.73041e-12
-1.33694e-11
3.75279e-17
4.11021e-12
-2.47871e-11
-2.37945e-17
7.63797e-12
-3.78248e-11
-6.75124e-16
1.23933e-11
-5.23278e-11
-1.08251e-15
1.84011e-11
-6.80774e-11
2.43807e-15
2.56925e-11
-8.49473e-11
-1.07195e-16
3.42346e-11
-1.02669e-10
-1.04826e-15
4.39573e-11
-1.21064e-10
8.2513e-16
5.47597e-11
-1.3981e-10
-3.24555e-16
6.64978e-11
-1.58656e-10
2.01188e-16
7.89846e-11
-1.77237e-10
-3.11411e-16
9.20026e-11
-1.95288e-10
8.91947e-17
1.05305e-10
-2.12417e-10
-1.28569e-16
1.18623e-10
-2.28357e-10
5.30707e-18
1.31679e-10
-2.42769e-10
-3.05106e-17
1.44196e-10
-2.55414e-10
-6.06952e-17
1.55907e-10
-2.66069e-10
1.09183e-17
1.66567e-10
-2.74578e-10
-6.51802e-17
1.75964e-10
-2.80824e-10
1.57603e-18
1.83924e-10
-2.8477e-10
-2.91523e-17
1.90317e-10
-2.86457e-10
-1.52501e-17
-2.85922e-10
-5.13593e-18
4.67013e-13
-4.3697e-12
-2.76317e-17
1.99329e-12
-1.4896e-11
1.62973e-16
4.72283e-12
-2.75171e-11
2.64695e-16
8.75427e-12
-4.18553e-11
-4.62438e-16
1.41714e-11
-5.77434e-11
-7.6798e-16
2.09873e-11
-7.48976e-11
1.86985e-15
2.9218e-11
-9.31792e-11
9.19511e-16
3.8814e-11
-1.12257e-10
-3.24573e-15
4.96655e-11
-1.3192e-10
1.97703e-15
6.16462e-11
-1.51791e-10
1.26647e-17
7.45741e-11
-1.71582e-10
-7.17495e-16
8.82142e-11
-1.90879e-10
6.3806e-16
1.02314e-10
-2.09387e-10
-5.57647e-16
1.16577e-10
-2.26681e-10
2.2415e-16
1.30702e-10
-2.42481e-10
-1.25228e-16
1.44374e-10
-2.56441e-10
-2.9865e-17
1.57291e-10
-2.68331e-10
3.90637e-18
1.69171e-10
-2.77949e-10
-6.49472e-17
1.79763e-10
-2.85171e-10
2.13955e-19
1.88859e-10
-2.89921e-10
-3.95242e-17
1.963e-10
-2.92211e-10
-1.42775e-17
2.01981e-10
-2.92137e-10
-1.22392e-17
-2.89792e-10
-3.0532e-17
5.37336e-13
-4.90728e-12
1.2827e-16
2.29021e-12
-1.66493e-11
2.44722e-16
5.41599e-12
-3.06436e-11
3.70268e-16
1.00207e-11
-4.64579e-11
-1.09729e-15
1.61813e-11
-6.39045e-11
4.07071e-16
2.39064e-11
-8.26221e-11
-2.71477e-16
3.32025e-11
-1.02474e-10
-1.00107e-15
4.39697e-11
-1.23031e-10
2.50452e-15
5.61106e-11
-1.44055e-10
-1.77952e-15
6.94207e-11
-1.65103e-10
6.06461e-16
8.36763e-11
-1.85838e-10
2.06658e-16
9.85956e-11
-2.05797e-10
-4.282e-16
1.13864e-10
-2.24656e-10
2.55687e-16
1.29142e-10
-2.41959e-10
-2.22861e-16
1.44081e-10
-2.5742e-10
6.29918e-17
1.58332e-10
-2.70692e-10
-6.26444e-17
1.71568e-10
-2.81568e-10
-3.20593e-17
1.83495e-10
-2.89876e-10
-1.42409e-18
1.93863e-10
-2.95539e-10
-5.18222e-17
2.02477e-10
-2.98535e-10
-1.64926e-17
2.09203e-10
-2.98937e-10
-1.86236e-17
2.13969e-10
-2.96904e-10
-3.42415e-17
-2.92587e-10
3.89463e-18
6.28396e-13
-5.53548e-12
-9.93306e-17
2.66675e-12
-1.8687e-11
-3.97752e-16
6.28793e-12
-3.42637e-11
-6.4984e-16
1.1603e-11
-5.17753e-11
1.21168e-15
1.86757e-11
-7.09781e-11
3.0324e-16
2.75273e-11
-9.14715e-11
-1.14126e-15
3.80885e-11
-1.13038e-10
1.33607e-15
5.02693e-11
-1.35209e-10
-1.33784e-15
6.38781e-11
-1.57664e-10
8.19779e-16
7.86886e-11
-1.79913e-10
-1.52831e-17
9.44019e-11
-2.0155e-10
-1.63555e-16
1.1068e-10
-2.22076e-10
1.88549e-16
1.27153e-10
-2.41129e-10
-2.22945e-16
1.43426e-10
-2.58232e-10
4.73563e-17
1.59107e-10
-2.73101e-10
-4.16789e-17
1.73815e-10
-2.85401e-10
-5.4116e-17
1.87205e-10
-2.94958e-10
4.23492e-18
1.98979e-10
-3.01649e-10
-4.52214e-17
2.08897e-10
-3.05458e-10
-2.64542e-17
2.1679e-10
-3.06428e-10
-1.77213e-17
2.22558e-10
-3.04705e-10
-4.32953e-17
2.26172e-10
-3.00518e-10
4.76352e-18
-2.94085e-10
-5.51538e-17
7.30087e-13
-6.26561e-12
7.69049e-18
3.09462e-12
-2.10513e-11
-1.74252e-16
7.28497e-12
-3.8453e-11
-6.04933e-16
1.34129e-11
-5.79045e-11
5.83257e-16
2.15364e-11
-7.91024e-11
4.4165e-16
3.16509e-11
-1.01584e-10
-7.53355e-16
4.36606e-11
-1.2505e-10
3.67021e-16
5.74177e-11
-1.48966e-10
-1.41713e-16
7.26883e-11
-1.72933e-10
2.45666e-16
8.91683e-11
-1.96393e-10
1.81818e-17
1.06495e-10
-2.18877e-10
1.68883e-16
1.24254e-10
-2.39835e-10
-1.41038e-16
1.42004e-10
-2.5888e-10
-1.09512e-17
1.59289e-10
-2.75517e-10
-7.89082e-17
1.75669e-10
-2.89481e-10
-4.07137e-18
1.9073e-10
-3.00462e-10
-4.0641e-17
2.04115e-10
-3.08343e-10
-1.4603e-17
2.15528e-10
-3.13063e-10
-3.57178e-17
2.24758e-10
-3.14687e-10
-1.65885e-17
2.31669e-10
-3.13339e-10
-5.75172e-17
2.36214e-10
-3.09249e-10
1.17511e-17
2.3842e-10
-3.02724e-10
-6.9048e-17
-2.94052e-10
2.61811e-17
8.68237e-13
-7.13391e-12
1.63974e-17
3.66013e-12
-2.3843e-11
-1.16306e-16
8.5813e-12
-4.33732e-11
-5.72543e-16
1.57376e-11
-6.50615e-11
3.74827e-16
2.51748e-11
-8.85412e-11
6.95394e-16
3.68495e-11
-1.13257e-10
-9.31918e-16
5.06145e-11
-1.38817e-10
6.41037e-16
6.62561e-11
-1.64608e-10
-3.03361e-16
8.34549e-11
-1.9013e-10
1.71708e-16
1.01822e-10
-2.14761e-10
2.19477e-16
1.20905e-10
-2.37959e-10
-7.79748e-17
1.40203e-10
-2.59133e-10
3.33671e-17
1.59202e-10
-2.7788e-10
-1.36629e-16
1.77387e-10
-2.93702e-10
-1.40719e-17
1.94276e-10
-3.06371e-10
-4.21428e-17
2.09437e-10
-3.15623e-10
-1.64857e-17
2.22515e-10
-3.21421e-10
-5.39785e-17
2.33238e-10
-3.23786e-10
1.08242e-17
2.41433e-10
-3.22883e-10
-9.56701e-17
2.47021e-10
-3.18928e-10
2.7258e-17
2.50019e-10
-3.12247e-10
-9.64016e-17
2.50523e-10
-3.03229e-10
3.76679e-17
-2.92231e-10
-9.21266e-17
1.02039e-12
-8.15433e-12
7.23473e-18
4.2963e-12
-2.71187e-11
-1.46182e-16
1.0052e-11
-4.91276e-11
-7.29054e-16
1.83875e-11
-7.33987e-11
7.08863e-16
2.93232e-11
-9.94777e-11
4.12746e-16
4.27709e-11
-1.26702e-10
-8.28654e-16
5.85232e-11
-1.54571e-10
6.93968e-16
7.62792e-11
-1.82363e-10
-4.76639e-16
9.56328e-11
-2.09483e-10
5.1488e-16
1.16085e-10
-2.35213e-10
-1.45445e-16
1.3708e-10
-2.58954e-10
2.10955e-16
1.58015e-10
-2.80067e-10
-1.83709e-16
1.78288e-10
-2.98155e-10
5.25745e-17
1.97317e-10
-3.1273e-10
-1.30333e-16
2.1458e-10
-3.23634e-10
7.81489e-17
2.29628e-10
-3.30671e-10
-1.60892e-16
2.42124e-10
-3.33917e-10
7.55127e-17
2.51836e-10
-3.33498e-10
-1.26448e-16
2.58653e-10
-3.297e-10
5.15419e-17
2.62572e-10
-3.22847e-10
-1.31742e-16
2.63693e-10
-3.13369e-10
6.3941e-17
2.62199e-10
-3.01734e-10
-1.17123e-16
-2.8837e-10
6.23196e-17
1.23611e-12
-9.3905e-12
1.93657e-17
5.16876e-12
-3.10514e-11
-7.62896e-17
1.20338e-11
-5.5992e-11
-3.66224e-16
2.19112e-11
-8.32771e-11
4.78563e-16
3.47805e-11
-1.12349e-10
9.02828e-16
5.04754e-11
-1.42393e-10
-2.00516e-15
6.86878e-11
-1.72787e-10
1.26827e-15
8.89926e-11
-2.02668e-10
-3.26595e-16
1.10857e-10
-2.31345e-10
-6.30497e-17
1.33632e-10
-2.5799e-10
4.86962e-16
1.56648e-10
-2.81969e-10
-3.75669e-16
1.79179e-10
-3.02598e-10
2.72086e-16
2.00551e-10
-3.19527e-10