/*--------------------------------*- C++ -*----------------------------------*\
| =========                 |                                                 |
| \\      /  F ield         | OpenFOAM: The Open Source CFD Toolbox           |
|  \\    /   O peration     | Version:  v2012                                 |
|   \\  /    A nd           | Website:  www.openfoam.com                      |
|    \\/     M anipulation  |                                                 |
\*---------------------------------------------------------------------------*/
FoamFile
{
    version     2.0;
    format      ascii;
    class       volVectorField;
    location    "0.2";
    object      U;
}
// * * * * * * * * * * * * * * * * * * * * * * * * * * * * * * * * * * * * * //

dimensions      [0 1 -1 0 0 0 0];


internalField   nonuniform List<vector> 
2619
(
(6.93569e-05 -0.00246137 -6.05645e-07)
(0.000116127 -0.00305779 -1.01342e-06)
(0.000179055 -0.00352607 -1.56285e-06)
(0.000237099 -0.00390971 -2.06907e-06)
(0.000308822 -0.00423656 -2.69497e-06)
(0.000376166 -0.00451466 -3.28339e-06)
(0.000453775 -0.00475824 -3.96023e-06)
(0.000529574 -0.00496949 -4.62199e-06)
(0.000611747 -0.00515447 -5.33913e-06)
(0.000694136 -0.00531476 -6.05823e-06)
(0.000779945 -0.00545292 -6.8071e-06)
(0.000866408 -0.00556993 -7.56173e-06)
(0.000954543 -0.00566694 -8.33077e-06)
(0.00104286 -0.00574458 -9.10157e-06)
(0.00113131 -0.00580328 -9.87343e-06)
(0.00121882 -0.00584343 -1.06372e-05)
(2.79806e-05 -0.0018435 -2.4427e-07)
(7.08376e-05 -0.00263655 -6.17886e-07)
(0.000128978 -0.00324695 -1.12583e-06)
(0.000188336 -0.00372541 -1.64362e-06)
(0.000258761 -0.0041161 -2.25815e-06)
(0.000327795 -0.00444883 -2.8616e-06)
(0.000406465 -0.00473111 -3.54736e-06)
(0.000484566 -0.00497848 -4.22914e-06)
(0.00056934 -0.00519205 -4.96909e-06)
(0.000654692 -0.00537854 -5.714e-06)
(0.000744194 -0.00553912 -6.49526e-06)
(0.000834657 -0.00567665 -7.28472e-06)
(0.000927401 -0.00579202 -8.09407e-06)
(0.00102057 -0.00588641 -8.90715e-06)
(0.0011145 -0.00596056 -9.7268e-06)
(0.00120796 -0.00601482 -1.05425e-05)
(0.00130054 -0.00604966 -1.13504e-05)
(0.00139129 -0.00606539 -1.21425e-05)
(2.94114e-05 -0.00201218 -2.56807e-07)
(7.85993e-05 -0.00282468 -6.85683e-07)
(0.000137379 -0.00344864 -1.1986e-06)
(0.000205205 -0.00393672 -1.79063e-06)
(0.000276189 -0.00433811 -2.41119e-06)
(0.000355293 -0.00467552 -3.10075e-06)
(0.000435351 -0.00496436 -3.79963e-06)
(0.000522429 -0.00521466 -4.55953e-06)
(0.000610544 -0.00543076 -5.32857e-06)
(0.000703342 -0.00561826 -6.13869e-06)
(0.000797672 -0.00577896 -6.96195e-06)
(0.000894733 -0.0059155 -7.8091e-06)
(0.000992911 -0.00602889 -8.66588e-06)
(0.00109224 -0.00612032 -9.53262e-06)
(0.00119159 -0.00619043 -1.03996e-05)
(0.00129074 -0.0062397 -1.12649e-05)
(0.00138829 -0.00626856 -1.21163e-05)
(0.00148403 -0.00627735 -1.29518e-05)
(0.00157671 -0.00626632 -1.37607e-05)
(3.26122e-05 -0.00219626 -2.8482e-07)
(8.36325e-05 -0.00302866 -7.29611e-07)
(0.000149706 -0.00366778 -1.30589e-06)
(0.000220111 -0.0041681 -1.92087e-06)
(0.00029927 -0.00457634 -2.6123e-06)
(0.000380836 -0.00492126 -3.32388e-06)
(0.000469777 -0.00521375 -4.10005e-06)
(0.000560396 -0.00546799 -4.89088e-06)
(0.000656812 -0.00568598 -5.7324e-06)
(0.000754573 -0.00587479 -6.58571e-06)
(0.000856354 -0.0060353 -7.47415e-06)
(0.00095914 -0.00617071 -8.37121e-06)
(0.00106417 -0.00628168 -9.28783e-06)
(0.00116937 -0.00636967 -1.02059e-05)
(0.00127504 -0.00643516 -1.11279e-05)
(0.0013798 -0.0064788 -1.20422e-05)
(0.00148298 -0.00650093 -1.29427e-05)
(0.00158365 -0.00650199 -1.38213e-05)
(0.00168102 -0.00648225 -1.46711e-05)
(3.48491e-05 -0.00239418 -3.04411e-07)
(9.13561e-05 -0.00324813 -7.97044e-07)
(0.000160732 -0.00390299 -1.40187e-06)
(0.000238779 -0.00441359 -2.08368e-06)
(0.000320807 -0.00483236 -2.80081e-06)
(0.000411585 -0.00518348 -3.59222e-06)
(0.000504621 -0.00548222 -4.4039e-06)
(0.000603761 -0.00573998 -5.26946e-06)
(0.000705586 -0.00596028 -6.15814e-06)
(0.000811283 -0.00614982 -7.08065e-06)
(0.000919319 -0.0063099 -8.02367e-06)
(0.0010295 -0.00644358 -8.9853e-06)
(0.00114104 -0.00655169 -9.95865e-06)
(0.00125314 -0.00663559 -1.09369e-05)
(0.00136504 -0.00669583 -1.19134e-05)
(0.0014761 -0.00673304 -1.28826e-05)
(0.00158487 -0.00674765 -1.38319e-05)
(0.00169095 -0.00674007 -1.47577e-05)
(0.00179298 -0.00671071 -1.56482e-05)
(3.82907e-05 -0.00260985 -3.34506e-07)
(9.83177e-05 -0.00348587 -8.57891e-07)
(0.000174662 -0.00415779 -1.52392e-06)
(0.000256903 -0.00468155 -2.24196e-06)
(0.000348557 -0.00510818 -3.04141e-06)
(0.000442897 -0.00546791 -3.86504e-06)
(0.000545317 -0.00577019 -4.75962e-06)
(0.000649443 -0.00603218 -5.66814e-06)
(0.00076023 -0.00625404 -6.63495e-06)
(0.000872093 -0.00644453 -7.61147e-06)
(0.000988457 -0.00660375 -8.62707e-06)
(0.00110548 -0.0067355 -9.6483e-06)
(0.00122471 -0.00684014 -1.06889e-05)
(0.00134364 -0.0069194 -1.17267e-05)
(0.00146259 -0.00697359 -1.27648e-05)
(0.00157997 -0.00700358 -1.37892e-05)
(0.00169492 -0.0070097 -1.47924e-05)
(0.0018064 -0.00699249 -1.57654e-05)
(0.00191344 -0.00695238 -1.66996e-05)
(4.14745e-05 -0.0028428 -3.61969e-07)
(0.000106589 -0.00374311 -9.30121e-07)
(0.000188964 -0.00443245 -1.64844e-06)
(0.000277959 -0.00496846 -2.4254e-06)
(0.000375541 -0.00540619 -3.27759e-06)
(0.000478063 -0.00577165 -4.17196e-06)
(0.000587635 -0.00608085 -5.12875e-06)
(0.000700137 -0.00634582 -6.11023e-06)
(0.000818448 -0.0065702 -7.14321e-06)
(0.000938895 -0.00676073 -8.1945e-06)
(0.00106307 -0.006919 -9.27812e-06)
(0.00118835 -0.00704796 -1.03716e-05)
(0.00131531 -0.00714863 -1.14795e-05)
(0.00144197 -0.00722233 -1.25849e-05)
(0.00156811 -0.00726969 -1.36856e-05)
(0.00169245 -0.00729143 -1.47708e-05)
(0.00181366 -0.00728805 -1.58287e-05)
(0.00193098 -0.00726006 -1.68525e-05)
(0.00204297 -0.00720804 -1.783e-05)
(4.53963e-05 -0.0030964 -3.96284e-07)
(0.000115962 -0.00402148 -1.01163e-06)
(0.000204858 -0.00472998 -1.78714e-06)
(0.000301335 -0.00527979 -2.63024e-06)
(0.000406667 -0.00572637 -3.54947e-06)
(0.000517447 -0.00610164 -4.51545e-06)
(0.000635305 -0.00641469 -5.54375e-06)
(0.000756105 -0.00668394 -6.59893e-06)
(0.000883218 -0.00690963 -7.70817e-06)
(0.00101187 -0.00710045 -8.83118e-06)
(0.00114491 -0.00725696 -9.9925e-06)
(0.00127852 -0.0073828 -1.11584e-05)
(0.001414 -0.0074786 -1.23408e-05)
(0.00154866 -0.007546 -1.3516e-05)
(0.00168261 -0.00758547 -1.46849e-05)
(0.00181408 -0.00759792 -1.58323e-05)
(0.00194204 -0.00758381 -1.69491e-05)
(0.00206523 -0.0075438 -1.80243e-05)
(0.00218249 -0.0074785 -1.90477e-05)
(4.94353e-05 -0.00337193 -4.31122e-07)
(0.000124483 -0.00432413 -1.0872e-06)
(0.000222713 -0.00505227 -1.94512e-06)
(0.000324326 -0.00561629 -2.8306e-06)
(0.000441245 -0.00607382 -3.85084e-06)
(0.000557887 -0.00645679 -4.86893e-06)
(0.00068699 -0.00677529 -5.99508e-06)
(0.000815951 -0.00704755 -7.12084e-06)
(0.000953265 -0.00727486 -8.31962e-06)
(0.00109115 -0.0074652 -9.52311e-06)
(0.00123384 -0.00761965 -1.07685e-05)
(0.00137669 -0.00774154 -1.20152e-05)
(0.00152127 -0.00783175 -1.32769e-05)
(0.00166463 -0.00789181 -1.45281e-05)
(0.0018068 -0.00792237 -1.57688e-05)
(0.00194596 -0.00792428 -1.69833e-05)
(0.00208086 -0.00789815 -1.81607e-05)
(0.0022103 -0.00784466 -1.92904e-05)
(0.00233278 -0.00776459 -2.03594e-05)
(5.41375e-05 -0.00366977 -4.72416e-07)
(0.00013589 -0.00465072 -1.18642e-06)
(0.0002418 -0.00539954 -2.11162e-06)
(0.000352367 -0.00597941 -3.07585e-06)
(0.000478425 -0.00644977 -4.17532e-06)
(0.000604365 -0.0068391 -5.2745e-06)
(0.000743429 -0.00716495 -6.48756e-06)
(0.000882214 -0.00743991 -7.69936e-06)
(0.00103005 -0.00766871 -8.98973e-06)
(0.00117791 -0.00785797 -1.02803e-05)
(0.001331 -0.00800957 -1.16165e-05)
(0.00148373 -0.00812662 -1.29494e-05)
(0.00163812 -0.00821014 -1.42968e-05)
(0.00179071 -0.00826174 -1.56285e-05)
(0.00194169 -0.00828202 -1.69461e-05)
(0.00208888 -0.008272 -1.82307e-05)
(0.00223118 -0.00823229 -1.94726e-05)
(0.00236696 -0.00816373 -2.06577e-05)
(0.00249489 -0.00806718 -2.17743e-05)
(5.89849e-05 -0.00399684 -5.14363e-07)
(0.000148094 -0.00500815 -1.29282e-06)
(0.000262933 -0.00577883 -2.29583e-06)
(0.000383457 -0.00637463 -3.34687e-06)
(0.000518582 -0.00685595 -4.52616e-06)
(0.000656196 -0.00725383 -5.72637e-06)
(0.000805315 -0.00758527 -7.02792e-06)
(0.00095559 -0.00786291 -8.33966e-06)
(0.00111408 -0.0080927 -9.72306e-06)
(0.00127324 -0.00828036 -1.11125e-05)
(0.00143723 -0.00842846 -1.25436e-05)
(0.00160077 -0.00853976 -1.39711e-05)
(0.0017656 -0.00861556 -1.54095e-05)
(0.00192813 -0.0086574 -1.68279e-05)
(0.00208845 -0.00866599 -1.8227e-05)
(0.00224419 -0.00864245 -1.95863e-05)
(0.00239412 -0.00858751 -2.08948e-05)
(0.00253654 -0.00850206 -2.21378e-05)
(0.00266984 -0.00838721 -2.33012e-05)
(6.42337e-05 -0.00435114 -5.60307e-07)
(0.00016177 -0.00539474 -1.4123e-06)
(0.000285935 -0.0061892 -2.49656e-06)
(0.000417266 -0.00680232 -3.64211e-06)
(0.00056405 -0.00729665 -4.9223e-06)
(0.000712359 -0.00770286 -6.21679e-06)
(0.000873771 -0.00804007 -7.62529e-06)
(0.00103549 -0.00832045 -9.03719e-06)
(0.00120642 -0.00855038 -1.05291e-05)
(0.00137743 -0.00873601 -1.20216e-05)
(0.0015535 -0.00887941 -1.35587e-05)
(0.00172869 -0.00898398 -1.50875e-05)
(0.00190478 -0.00905059 -1.66244e-05)
(0.00207801 -0.0090812 -1.81361e-05)
(0.00224824 -0.00907639 -1.96219e-05)
(0.00241293 -0.00903751 -2.10591e-05)
(0.00257087 -0.00896533 -2.24375e-05)
(0.00272 -0.00886096 -2.37391e-05)
(0.00285882 -0.00872561 -2.49507e-05)
(0.00298541 -0.00856061 -2.60556e-05)
(0.00309829 -0.0083676 -2.70408e-05)
(0.00319586 -0.0081484 -2.78925e-05)
(0.00327685 -0.0079051 -2.85996e-05)
(7.04097e-05 -0.00474023 -6.14336e-07)
(0.000176876 -0.0058185 -1.54388e-06)
(0.000311943 -0.00663761 -2.72317e-06)
(0.000455308 -0.00726861 -3.97409e-06)
(0.000612653 -0.0077749 -5.34752e-06)
(0.000775364 -0.00818914 -6.76665e-06)
(0.000948801 -0.00853198 -8.27997e-06)
(0.00112402 -0.00881419 -9.80975e-06)
(0.00130829 -0.00904427 -1.14181e-05)
(0.00149232 -0.00922682 -1.30245e-05)
(0.00168167 -0.0093648 -1.4677e-05)
(0.00186916 -0.0094613 -1.63138e-05)
(0.00205757 -0.0095174 -1.79578e-05)
(0.00224194 -0.00953508 -1.95671e-05)
(0.00242281 -0.00951509 -2.11455e-05)
(0.00259685 -0.00945881 -2.26645e-05)
(0.00276307 -0.00936722 -2.41151e-05)
(0.00291908 -0.00924161 -2.54767e-05)
(0.00306321 -0.00908339 -2.67346e-05)
(0.0031936 -0.00889417 -2.78727e-05)
(0.00330853 -0.00867582 -2.88759e-05)
(0.00340651 -0.00843046 -2.97312e-05)
(0.00348608 -0.0081605 -3.04258e-05)
(7.66447e-05 -0.00516451 -6.68764e-07)
(0.000193608 -0.00627893 -1.6897e-06)
(0.000339199 -0.00712514 -2.96141e-06)
(0.000496329 -0.00777476 -4.33218e-06)
(0.000666779 -0.00829365 -5.81944e-06)
(0.000843962 -0.00871854 -7.36696e-06)
(0.00103086 -0.00906518 -8.99724e-06)
(0.00122218 -0.00935097 -1.0666e-05)
(0.00142003 -0.00957882 -1.23929e-05)
(0.00161918 -0.00975798 -1.41314e-05)
(0.00182209 -0.0098885 -1.59026e-05)
(0.00202357 -0.00997552 -1.7661e-05)
(0.00222471 -0.010019 -1.94169e-05)
(0.00242142 -0.0100218 -2.11335e-05)
(0.00261333 -0.00998427 -2.28085e-05)
(0.00279733 -0.00990823 -2.44142e-05)
(0.00297204 -0.0097947 -2.59391e-05)
(0.00313499 -0.00964527 -2.73612e-05)
(0.00328441 -0.00946152 -2.86654e-05)
(0.00341823 -0.00924537 -2.98333e-05)
(0.00353477 -0.00899899 -3.08506e-05)
(0.00363235 -0.00872486 -3.17024e-05)
(0.00370968 -0.00842572 -3.23774e-05)
(8.49129e-05 -0.00562912 -7.40995e-07)
(0.000211941 -0.00678236 -1.84998e-06)
(0.000371689 -0.00765701 -3.24501e-06)
(0.000542528 -0.00832498 -4.73566e-06)
(0.000728899 -0.00885912 -6.3624e-06)
(0.000920922 -0.00929347 -8.03933e-06)
(0.0011252 -0.00964403 -9.82081e-06)
(0.00133083 -0.00993183 -1.16145e-05)
(0.00154605 -0.0101566 -1.34924e-05)
(0.00175928 -0.0103308 -1.53542e-05)
(0.00197861 -0.010453 -1.72683e-05)
(0.00219367 -0.0105288 -1.91457e-05)
(0.00240936 -0.010558 -2.10282e-05)
(0.00261841 -0.0105437 -2.28529e-05)
(0.0028223 -0.0104862 -2.46323e-05)
(0.00301638 -0.0103878 -2.63262e-05)
(0.00319985 -0.0102495 -2.79274e-05)
(0.00336967 -0.0100733 -2.94096e-05)
(0.00352407 -0.00986099 -3.07571e-05)
(0.00366087 -0.0096149 -3.19512e-05)
(0.00377824 -0.00933753 -3.29756e-05)
(0.0038746 -0.00903174 -3.38168e-05)
(0.00394854 -0.00870065 -3.44623e-05)
(9.29464e-05 -0.00614054 -8.11064e-07)
(0.000232742 -0.00733396 -2.03146e-06)
(0.000407136 -0.0082398 -3.55465e-06)
(0.00059288 -0.00892974 -5.17517e-06)
(0.000794004 -0.00947472 -6.93114e-06)
(0.00100294 -0.00992302 -8.75497e-06)
(0.0012247 -0.0102737 -1.06895e-05)
(0.00144733 -0.0105645 -1.26327e-05)
(0.00168101 -0.0107843 -1.4672e-05)
(0.00191241 -0.0109522 -1.66901e-05)
(0.00214869 -0.0110636 -1.87528e-05)
(0.00238065 -0.011126 -2.07774e-05)
(0.00261136 -0.0111382 -2.27911e-05)
(0.00283459 -0.0111039 -2.47396e-05)
(0.00305086 -0.0110236 -2.66272e-05)
(0.00325577 -0.0108996 -2.84156e-05)
(0.00344812 -0.0107333 -3.00944e-05)
(0.00362478 -0.010527 -3.16362e-05)
(0.00378386 -0.0102828 -3.30246e-05)
(0.00392301 -0.0100034 -3.42391e-05)
(0.00404044 -0.00969177 -3.52642e-05)
(0.00413444 -0.00935113 -3.60848e-05)
(0.00420379 -0.00898508 -3.66902e-05)
(0.000104806 -0.00670039 -9.15039e-07)
(0.000250409 -0.00793615 -2.18572e-06)
(0.00045168 -0.00887266 -3.94243e-06)
(0.000641697 -0.0095833 -5.59733e-06)
(0.000882155 -0.0101437 -7.69979e-06)
(0.00109238 -0.0106012 -9.53714e-06)
(0.001345 -0.0109577 -1.17399e-05)
(0.00157997 -0.0112494 -1.37911e-05)
(0.00183679 -0.0114653 -1.60311e-05)
(0.00208387 -0.0116255 -1.81868e-05)
(0.00234004 -0.0117242 -2.04227e-05)
(0.00258775 -0.0117706 -2.25848e-05)
(0.00283534 -0.011763 -2.47459e-05)
(0.00307262 -0.0117057 -2.68171e-05)
(0.00330222 -0.0115992 -2.8821e-05)
(0.00351799 -0.0114461 -3.07043e-05)
(0.00371936 -0.0112481 -3.24617e-05)
(0.00390258 -0.0110079 -3.40609e-05)
(0.00406576 -0.010728 -3.54852e-05)
(0.00420648 -0.0104115 -3.67134e-05)
(0.00432283 -0.0100619 -3.7729e-05)
(0.00441323 -0.00968291 -3.85182e-05)
(0.00447642 -0.00927864 -3.90699e-05)
(0.000114515 -0.0073166 -9.99488e-07)
(0.00027714 -0.00860472 -2.41849e-06)
(0.000495974 -0.00957527 -4.32928e-06)
(0.000705448 -0.0103084 -6.15428e-06)
(0.000964253 -0.0108864 -8.4165e-06)
(0.00119697 -0.011347 -1.04498e-05)
(0.00147072 -0.0117099 -1.28376e-05)
(0.00172716 -0.0119965 -1.50756e-05)
(0.00200584 -0.0122071 -1.75068e-05)
(0.00227358 -0.0123554 -1.98425e-05)
(0.00254998 -0.0124395 -2.22551e-05)
(0.00281663 -0.0124666 -2.45824e-05)
(0.00308176 -0.0124363 -2.68966e-05)
(0.00333483 -0.0123523 -2.91056e-05)
(0.00357816 -0.0122158 -3.12295e-05)
(0.0038054 -0.0120295 -3.32128e-05)
(0.00401572 -0.0117957 -3.50484e-05)
(0.0042052 -0.0115173 -3.67022e-05)
(0.00437184 -0.0111974 -3.81567e-05)
(0.00451309 -0.0108397 -3.93895e-05)
(0.00462711 -0.0104481 -4.03849e-05)
(0.00471229 -0.0100269 -4.11285e-05)
(0.00476759 -0.00958079 -4.16113e-05)
(0.000127113 -0.00799672 -1.10916e-06)
(0.000305836 -0.00933199 -2.66919e-06)
(0.000546655 -0.010336 -4.77193e-06)
(0.000777323 -0.0110923 -6.78183e-06)
(0.00106104 -0.0116866 -9.26132e-06)
(0.0013157 -0.0121577 -1.14864e-05)
(0.0016149 -0.0125251 -1.40961e-05)
(0.00189337 -0.0128103 -1.65264e-05)
(0.00219638 -0.0130134 -1.917e-05)
(0.0024857 -0.0131494 -2.16939e-05)
(0.00278439 -0.0132155 -2.4301e-05)
(0.0030708 -0.0132203 -2.68007e-05)
(0.00335497 -0.0131629 -2.92811e-05)
(0.0036244 -0.0130481 -3.16329e-05)
(0.00388221 -0.0128769 -3.38832e-05)
(0.00412098 -0.0126528 -3.59672e-05)
(0.00434012 -0.0123782 -3.78798e-05)
(0.00453527 -0.0120568 -3.95831e-05)
(0.00470441 -0.0116921 -4.10594e-05)
(0.00484494 -0.0112883 -4.2286e-05)
(0.00495498 -0.0108502 -4.32466e-05)
(0.0050331 -0.0103826 -4.39286e-05)
(0.00507836 -0.00989082 -4.4324e-05)
(0.00014068 -0.00874899 -1.22769e-06)
(0.000338074 -0.0101428 -2.95058e-06)
(0.000603444 -0.0111866 -5.26785e-06)
(0.000856658 -0.0119697 -7.47434e-06)
(0.00116685 -0.0125789 -1.01852e-05)
(0.00144672 -0.0130545 -1.26299e-05)
(0.00177401 -0.0134237 -1.54852e-05)
(0.00207761 -0.0137003 -1.81346e-05)
(0.00240873 -0.0138938 -2.10235e-05)
(0.00272178 -0.014012 -2.37546e-05)
(0.00304559 -0.0140574 -2.65807e-05)
(0.00335331 -0.0140353 -2.92666e-05)
(0.0036581 -0.013947 -3.19268e-05)
(0.00394477 -0.0137964 -3.44292e-05)
(0.00421759 -0.0135857 -3.68103e-05)
(0.00446799 -0.0133183 -3.89959e-05)
(0.00469556 -0.0129976 -4.09821e-05)
(0.0048956 -0.0126276 -4.27282e-05)
(0.00506602 -0.0122126 -4.42156e-05)
(0.00520416 -0.0117577 -4.54214e-05)
(0.0053083 -0.0112681 -4.63305e-05)
(0.00537707 -0.0107494 -4.6931e-05)
(0.00540989 -0.0102078 -4.72177e-05)
(0.000155943 -0.00958126 -1.36081e-06)
(0.000375341 -0.0110301 -3.2762e-06)
(0.000666749 -0.0121108 -5.82035e-06)
(0.000947479 -0.012917 -8.26762e-06)
(0.00128786 -0.0135461 -1.12417e-05)
(0.00159578 -0.0140303 -1.39321e-05)
(0.0019514 -0.0144024 -1.70329e-05)
(0.00228719 -0.0146752 -1.99647e-05)
(0.0026441 -0.0148546 -2.3078e-05)
(0.00298731 -0.0149543 -2.60722e-05)
(0.00333544 -0.0149732 -2.91106e-05)
(0.00366841 -0.01492 -3.20165e-05)
(0.00399409 -0.0147947 -3.48594e-05)
(0.0042998 -0.0146026 -3.75277e-05)
(0.00458781 -0.014346 -4.00417e-05)
(0.00484999 -0.0140291 -4.233e-05)
(0.00508537 -0.0136559 -4.43845e-05)
(0.00528924 -0.013231 -4.61638e-05)
(0.00545935 -0.0127597 -4.76487e-05)
(0.00559315 -0.0122477 -4.88166e-05)
(0.00568898 -0.0117011 -4.96533e-05)
(0.00574578 -0.0111264 -5.01492e-05)
(0.00576321 -0.0105303 -5.03018e-05)
(0.000172306 -0.0105073 -1.50351e-06)
(0.000418307 -0.0120214 -3.65153e-06)
(0.000739318 -0.0131458 -6.45506e-06)
(0.00105548 -0.0139821 -9.21212e-06)
(0.00142264 -0.0146257 -1.24147e-05)
(0.00176804 -0.0151144 -1.54293e-05)
(0.00216009 -0.0154838 -1.88554e-05)
(0.00252111 -0.0157434 -2.20058e-05)
(0.00291598 -0.0159069 -2.54516e-05)
(0.00328406 -0.0159806 -2.86622e-05)
(0.0036643 -0.0159698 -3.1981e-05)
(0.00402016 -0.0158788 -3.50868e-05)
(0.00437026 -0.0157112 -3.81425e-05)
(0.00469409 -0.0154708 -4.09692e-05)
(0.00499811 -0.0151616 -4.36227e-05)
(0.00527123 -0.0147881 -4.60067e-05)
(0.00551358 -0.0143551 -4.81218e-05)
(0.00571967 -0.0138683 -4.99208e-05)
(0.00588745 -0.0133338 -5.13852e-05)
(0.00601438 -0.0127582 -5.24932e-05)
(0.00609903 -0.0121486 -5.32324e-05)
(0.00614065 -0.0115123 -5.3596e-05)
(0.00613937 -0.010857 -5.35851e-05)
(0.000191705 -0.0115327 -1.67326e-06)
(0.000467192 -0.013116 -4.07777e-06)
(0.000820125 -0.0142858 -7.16008e-06)
(0.00117202 -0.0151517 -1.02302e-05)
(0.00157488 -0.0158084 -1.37441e-05)
(0.00195624 -0.0163011 -1.70723e-05)
(0.00238463 -0.01667 -2.0815e-05)
(0.0027852 -0.0169153 -2.43109e-05)
(0.00321185 -0.0170598 -2.80336e-05)
(0.00361936 -0.0171042 -3.15892e-05)
(0.00402685 -0.0170562 -3.51452e-05)
(0.00441458 -0.0169211 -3.85293e-05)
(0.00478725 -0.016703 -4.17821e-05)
(0.00513284 -0.0164067 -4.47985e-05)
(0.005452 -0.0160365 -4.75844e-05)
(0.00573627 -0.0155981 -5.00655e-05)
(0.00598409 -0.0150972 -5.22286e-05)
(0.00619059 -0.0145404 -5.4031e-05)
(0.00635346 -0.0139349 -5.54527e-05)
(0.0064705 -0.0132885 -5.64744e-05)
(0.00654051 -0.0126092 -5.70858e-05)
(0.00656321 -0.0119055 -5.72843e-05)
(0.00653927 -0.0111858 -5.70758e-05)
(0.000213206 -0.0126863 -1.86107e-06)
(0.00052274 -0.0143394 -4.56351e-06)
(0.000912104 -0.0155551 -7.96204e-06)
(0.00130906 -0.0164525 -1.14246e-05)
(0.0017529 -0.0171237 -1.52997e-05)
(0.00218351 -0.0176189 -1.9057e-05)
(0.00264782 -0.0179823 -2.3107e-05)
(0.00309476 -0.0182088 -2.70087e-05)
(0.00355985 -0.0183271 -3.10696e-05)
(0.00399923 -0.0183349 -3.49041e-05)
(0.00444335 -0.0182427 -3.87807e-05)
(0.00485701 -0.0180551 -4.23908e-05)
(0.00525711 -0.0177779 -4.5883e-05)
(0.00562171 -0.0174161 -4.90655e-05)
(0.00595686 -0.0169755 -5.19907e-05)
(0.00625023 -0.0164624 -5.45514e-05)
(0.00650191 -0.0158841 -5.67481e-05)
(0.00670607 -0.015248 -5.85302e-05)
(0.00686084 -0.0145629 -5.98812e-05)
(0.0069642 -0.0138376 -6.07837e-05)
(0.00701542 -0.0130814 -6.1231e-05)
(0.00701478 -0.0123037 -6.12259e-05)
(0.00696364 -0.0115142 -6.078e-05)
(0.00023946 -0.0139621 -2.08968e-06)
(0.000589202 -0.0157012 -5.14246e-06)
(0.0010214 -0.0169735 -8.91705e-06)
(0.00146931 -0.0179042 -1.28274e-05)
(0.0019489 -0.0185889 -1.70059e-05)
(0.00243584 -0.0190864 -2.12588e-05)
(0.00294198 -0.0194334 -2.5676e-05)
(0.00343777 -0.0196343 -3.00009e-05)
(0.00394354 -0.0197188 -3.44184e-05)
(0.00442858 -0.0196806 -3.86518e-05)
(0.00490615 -0.0195368 -4.28198e-05)
(0.00535574 -0.019287 -4.67438e-05)
(0.00578101 -0.0189413 -5.04555e-05)
(0.00616825 -0.0185035 -5.38355e-05)
(0.00651751 -0.0179818 -5.6884e-05)
(0.00681933 -0.0173833 -5.95184e-05)
(0.00707203 -0.0167168 -6.17242e-05)
(0.00727068 -0.0159913 -6.34581e-05)
(0.00741325 -0.0152169 -6.47028e-05)
(0.00749837 -0.0144038 -6.54461e-05)
(0.00752581 -0.0135627 -6.5686e-05)
(0.00749662 -0.0127044 -6.54318e-05)
(0.00741303 -0.0118393 -6.47027e-05)
(0.000269052 -0.0154238 -2.34794e-06)
(0.000662248 -0.0172371 -5.78068e-06)
(0.00114376 -0.0185601 -9.98424e-06)
(0.00164541 -0.0195149 -1.43626e-05)
(0.00218069 -0.0202135 -1.90297e-05)
(0.0027217 -0.0207094 -2.37541e-05)
(0.00328077 -0.0210403 -2.8632e-05)
(0.0038295 -0.0212143 -3.34202e-05)
(0.00438436 -0.0212565 -3.82659e-05)
(0.00491396 -0.0211657 -4.2888e-05)
(0.00543317 -0.0209571 -4.74197e-05)
(0.00591634 -0.0206337 -5.16365e-05)
(0.00637075 -0.0202054 -5.56026e-05)
(0.00677853 -0.0196783 -5.91619e-05)
(0.0071418 -0.0190618 -6.23327e-05)
(0.00744922 -0.0183646 -6.50161e-05)
(0.00769996 -0.0175972 -6.72048e-05)
(0.0078888 -0.0167703 -6.88533e-05)
(0.0080143 -0.0158956 -6.9949e-05)
(0.00807566 -0.0149849 -7.0485e-05)
(0.00807343 -0.0140505 -7.0466e-05)
(0.00800965 -0.0131042 -6.99099e-05)
(0.00788757 -0.0121576 -6.88449e-05)
(0.000303705 -0.0170346 -2.65098e-06)
(0.000749836 -0.0189511 -6.54469e-06)
(0.00128828 -0.0203378 -1.12453e-05)
(0.00185438 -0.0213279 -1.61871e-05)
(0.00245018 -0.0220369 -2.13824e-05)
(0.00305632 -0.0225241 -2.66735e-05)
(0.00367373 -0.022829 -3.2062e-05)
(0.00428348 -0.0229619 -3.73822e-05)
(0.00489024 -0.0229512 -4.26809e-05)
(0.00547183 -0.0227936 -4.77571e-05)
(0.00603262 -0.0225089 -5.26513e-05)
(0.00655389 -0.0220977 -5.7201e-05)
(0.00703593 -0.0215736 -6.1408e-05)
(0.00746468 -0.0209428 -6.51505e-05)
(0.00783885 -0.0202171 -6.84165e-05)
(0.00814879 -0.0194069 -7.11219e-05)
(0.00839264 -0.0185248 -7.32505e-05)
(0.00856619 -0.0175834 -7.47656e-05)
(0.00866824 -0.0165965 -7.56568e-05)
(0.00869904 -0.0155777 -7.59261e-05)
(0.00866006 -0.0145407 -7.55865e-05)
(0.00855457 -0.0134989 -7.46664e-05)
(0.00838708 -0.0124647 -7.32052e-05)
(0.000343237 -0.0189005 -2.9956e-06)
(0.000848781 -0.0209028 -7.40806e-06)
(0.00145339 -0.0223463 -1.26865e-05)
(0.00209171 -0.0233601 -1.82585e-05)
(0.00275722 -0.0240781 -2.4061e-05)
(0.003436 -0.0245501 -2.99885e-05)
(0.00412156 -0.024825 -3.59689e-05)
(0.00479823 -0.0249098 -4.1875e-05)
(0.00546534 -0.0248345 -4.77002e-05)
(0.00610287 -0.0245969 -5.32643e-05)
(0.00671113 -0.0242186 -5.85734e-05)
(0.00727187 -0.023702 -6.3467e-05)
(0.00778367 -0.0230627 -6.79343e-05)
(0.00823194 -0.0223091 -7.18468e-05)
(0.00861523 -0.0214555 -7.51927e-05)
(0.00892344 -0.0205143 -7.7883e-05)
(0.00915533 -0.0195008 -7.99074e-05)
(0.00930702 -0.0184297 -8.12318e-05)
(0.00937833 -0.017317 -8.18548e-05)
(0.00937062 -0.0161782 -8.17881e-05)
(0.00928671 -0.0150288 -8.10564e-05)
(0.00913139 -0.0138835 -7.97014e-05)
(0.00891065 -0.0127557 -7.77755e-05)
(0.000391932 -0.020968 -3.42076e-06)
(0.000970353 -0.0230903 -8.46924e-06)
(0.00165296 -0.0246044 -1.44286e-05)
(0.00237833 -0.0256518 -2.07595e-05)
(0.00312511 -0.0263715 -2.72691e-05)
(0.00388999 -0.0268219 -3.39485e-05)
(0.00465276 -0.0270516 -4.06086e-05)
(0.00540554 -0.0270706 -4.71727e-05)
(0.00613891 -0.0269145 -5.3579e-05)
(0.00683736 -0.0265784 -5.96747e-05)
(0.00749457 -0.0260885 -6.54104e-05)
(0.00809583 -0.0254472 -7.06586e-05)
(0.00863487 -0.0246733 -7.5363e-05)
(0.0090996 -0.0237771 -7.94198e-05)
(0.00948612 -0.0227759 -8.27935e-05)
(0.00978603 -0.0216848 -8.54118e-05)
(0.00999755 -0.020522 -8.72584e-05)
(0.0101184 -0.0193048 -8.83142e-05)
(0.0101493 -0.0180518 -8.85839e-05)
(0.0100931 -0.0167807 -8.80949e-05)
(0.00995444 -0.0155087 -8.68849e-05)
(0.00973973 -0.0142519 -8.50117e-05)
(0.00945687 -0.0130247 -8.25436e-05)
(0.000447322 -0.0233934 -3.90403e-06)
(0.00110608 -0.0256169 -9.65327e-06)
(0.00188034 -0.0271932 -1.64097e-05)
(0.00270011 -0.028258 -2.35634e-05)
(0.00354422 -0.028976 -3.09375e-05)
(0.00440304 -0.0293865 -3.84302e-05)
(0.00525114 -0.0295631 -4.5822e-05)
(0.00609457 -0.0294994 -5.31906e-05)
(0.0069004 -0.0292427 -6.02228e-05)
(0.00766898 -0.0287849 -6.69325e-05)
(0.00837951 -0.0281572 -7.31343e-05)
(0.00902443 -0.027364 -7.87625e-05)
(0.00959147 -0.0264277 -8.37124e-05)
(0.0100702 -0.0253618 -8.78905e-05)
(0.0104558 -0.0241871 -9.12574e-05)
(0.0107405 -0.022922 -9.3742e-05)
(0.0109234 -0.021588 -9.53394e-05)
(0.0110034 -0.0202055 -9.60389e-05)
(0.0109831 -0.0187958 -9.58622e-05)
(0.0108673 -0.0173787 -9.48526e-05)
(0.0106627 -0.0159734 -9.30671e-05)
(0.010378 -0.0145971 -9.05829e-05)
(0.0100231 -0.013265 -8.74862e-05)
(0.000515997 -0.0260943 -4.50297e-06)
(0.00127922 -0.0284543 -1.11644e-05)
(0.00216001 -0.030105 -1.88514e-05)
(0.00310266 -0.0311941 -2.70756e-05)
(0.00405395 -0.0318995 -3.53837e-05)
(0.00503266 -0.0322665 -4.39236e-05)
(0.00597805 -0.0323643 -5.21653e-05)
(0.00692319 -0.0322001 -6.042e-05)
(0.00780958 -0.031816 -6.81604e-05)
(0.00865022 -0.0312111 -7.54939e-05)
(0.0094156 -0.0304196 -8.21771e-05)
(0.0101004 -0.0294471 -8.8154e-05)
(0.0106895 -0.028321 -9.32954e-05)
(0.011174 -0.0270579 -9.75248e-05)
(0.0115477 -0.0256831 -0.000100787)
(0.011805 -0.0242191 -0.000103034)
(0.0119455 -0.0226912 -0.000104261)
(0.0119707 -0.0211233 -0.000104481)
(0.0118846 -0.0195398 -0.000103731)
(0.011695 -0.017963 -0.000102078)
(0.011411 -0.0164139 -9.95993e-05)
(0.0110438 -0.0149105 -9.63953e-05)
(0.0106059 -0.0134686 -9.25738e-05)
(0.000595301 -0.0293145 -5.19468e-06)
(0.00146919 -0.0317911 -1.28213e-05)
(0.00248229 -0.0335046 -2.16646e-05)
(0.00355213 -0.0345939 -3.10007e-05)
(0.00463943 -0.0352782 -4.04857e-05)
(0.00573527 -0.0355651 -5.00532e-05)
(0.00680603 -0.0355676 -5.94044e-05)
(0.00785359 -0.0352651 -6.85416e-05)
(0.00883556 -0.0347217 -7.711e-05)
(0.00975902 -0.0339299 -8.51753e-05)
(0.0105839 -0.0329337 -9.23716e-05)
(0.0113129 -0.0317403 -9.87358e-05)
(0.0119222 -0.0303835 -0.000104055)
(0.0124076 -0.0288845 -0.000108291)
(0.0127614 -0.0272738 -0.000111381)
(0.0129799 -0.0255785 -0.000113288)
(0.0130648 -0.0238285 -0.000114031)
(0.0130201 -0.0220516 -0.000113641)
(0.0128529 -0.0202751 -0.000112183)
(0.0125741 -0.0185238 -0.000109751)
(0.0121959 -0.0168199 -0.000106451)
(0.0117328 -0.0151824 -0.00010241)
(0.0111999 -0.0136268 -9.77594e-05)
(0.000692269 -0.0329109 -6.04104e-06)
(0.00172472 -0.0355454 -1.50525e-05)
(0.00287342 -0.0373314 -2.50796e-05)
(0.00413353 -0.0384271 -3.60789e-05)
(0.00534898 -0.0390647 -4.66846e-05)
(0.00662503 -0.0392596 -5.78166e-05)
(0.00781462 -0.0391361 -6.82024e-05)
(0.00900072 -0.0386701 -7.85533e-05)
(0.0100783 -0.0379317 -8.79586e-05)
(0.0110882 -0.0369187 -9.67737e-05)
(0.0119689 -0.0356778 -0.00010446)
(0.0127323 -0.0342245 -0.000111124)
(0.0133487 -0.0325977 -0.000116505)
(0.0138181 -0.0308249 -0.000120603)
(0.0141322 -0.028943 -0.000123345)
(0.0142909 -0.0269843 -0.000124732)
(0.0142981 -0.0249844 -0.000124795)
(0.0141616 -0.0229749 -0.000123606)
(0.0138921 -0.0209867 -0.000121254)
(0.0135044 -0.0190467 -0.000117872)
(0.0130143 -0.0171786 -0.000113595)
(0.0124397 -0.0154013 -0.000108581)
(0.0117988 -0.0137298 -0.000102988)
(0.000806998 -0.0372802 -7.04269e-06)
(0.00199925 -0.0400325 -1.74493e-05)
(0.00333702 -0.041874 -2.91255e-05)
(0.00477988 -0.0429535 -4.17206e-05)
(0.00618136 -0.0435104 -5.39478e-05)
(0.00762571 -0.043583 -6.655e-05)
(0.00897577 -0.0432748 -7.83356e-05)
(0.0102983 -0.0425897 -8.98784e-05)
(0.011492 -0.041592 -0.000100296)
(0.0125922 -0.0402922 -0.0001099)
(0.0135336 -0.0387418 -0.000118117)
(0.0143296 -0.0369646 -0.000125066)
(0.0149474 -0.0350073 -0.000130459)
(0.0153897 -0.032905 -0.00013432)
(0.0156492 -0.0307021 -0.000136586)
(0.0157297 -0.0284374 -0.00013729)
(0.0156385 -0.026152 -0.000136496)
(0.0153888 -0.0238818 -0.000134318)
(0.0149953 -0.0216609 -0.000130884)
(0.0144783 -0.0195177 -0.000126374)
(0.0138577 -0.0174762 -0.000120958)
(0.0131556 -0.0155549 -0.000114831)
(0.0123932 -0.013767 -0.000108177)
(0.000963134 -0.0421691 -8.40499e-06)
(0.00237157 -0.0451071 -2.06989e-05)
(0.00393837 -0.0470143 -3.43734e-05)
(0.00562125 -0.0480586 -4.90628e-05)
(0.00723856 -0.0485124 -6.31743e-05)
(0.00889912 -0.0484132 -7.76639e-05)
(0.0104275 -0.0478857 -9.10059e-05)
(0.011914 -0.0469301 -0.000103979)
(0.0132283 -0.0456241 -0.00011545)
(0.0144203 -0.0439819 -0.000125855)
(0.0154101 -0.0420661 -0.000134495)
(0.0162197 -0.0399085 -0.000141562)
(0.0168118 -0.0375668 -0.000146731)
(0.0171957 -0.0350842 -0.000150084)
(0.0173661 -0.0325152 -0.000151572)
(0.0173328 -0.029905 -0.000151283)
(0.0171085 -0.027302 -0.000149327)
(0.0167123 -0.0247459 -0.00014587)
(0.0161649 -0.0222741 -0.000141095)
(0.0154921 -0.0199158 -0.000135223)
(0.0147186 -0.017695 -0.000128474)
(0.0138706 -0.0156284 -0.000121073)
(0.0129726 -0.0137266 -0.000113235)
(0.00113311 -0.0482905 -9.88865e-06)
(0.00278518 -0.0513241 -2.43084e-05)
(0.00462105 -0.0532494 -4.03311e-05)
(0.00657567 -0.054206 -5.73929e-05)
(0.00844838 -0.0544962 -7.3733e-05)
(0.0103468 -0.0541609 -9.02978e-05)
(0.0120834 -0.0533205 -0.000105458)
(0.0137468 -0.0520002 -0.000119975)
(0.0151963 -0.0502776 -0.000132625)
(0.016484 -0.0481868 -0.000143867)
(0.0175215 -0.0457992 -0.000152923)
(0.0183364 -0.0431619 -0.000160037)
(0.0188878 -0.0403442 -0.000164851)
(0.0191926 -0.0374012 -0.000167514)
(0.0192481 -0.0343975 -0.000167999)
(0.0190727 -0.0313866 -0.000166471)
(0.0186846 -0.028423 -0.000163085)
(0.0181124 -0.02555 -0.000158092)
(0.0173825 -0.0228067 -0.000151723)
(0.0165286 -0.020222 -0.000144272)
(0.0155804 -0.0178177 -0.000135997)
(0.0145692 -0.0156071 -0.000127172)
(0.0135221 -0.0135968 -0.000118033)
(0.00138138 -0.0551082 -1.20549e-05)
(0.00335897 -0.0583546 -2.93168e-05)
(0.00554923 -0.0603139 -4.84322e-05)
(0.00785222 -0.0611585 -6.85324e-05)