/*--------------------------------*- C++ -*----------------------------------*\
| =========                 |                                                 |
| \\      /  F ield         | OpenFOAM: The Open Source CFD Toolbox           |
|  \\    /   O peration     | Version:  v2012                                 |
|   \\  /    A nd           | Website:  www.openfoam.com                      |
|    \\/     M anipulation  |                                                 |
\*---------------------------------------------------------------------------*/
FoamFile
{
    version     2.0;
    format      ascii;
    class       volScalarField;
    location    "0.3";
    object      p_rgh;
}
// * * * * * * * * * * * * * * * * * * * * * * * * * * * * * * * * * * * * * //

dimensions      [1 -1 -2 0 0 0 0];


internalField   nonuniform List<scalar> 
3332
(
3.49817e+06
3.49757e+06
3.49757e+06
3.49765e+06
3.49755e+06
3.49755e+06
3.49751e+06
3.49754e+06
3.49744e+06
3.49721e+06
3.49708e+06
3.49721e+06
3.4973e+06
3.49735e+06
3.49733e+06
3.49739e+06
3.49741e+06
3.49746e+06
3.49749e+06
3.49749e+06
3.49755e+06
3.49759e+06
3.49762e+06
3.49727e+06
3.49715e+06
3.49701e+06
3.49706e+06
3.49717e+06
3.49722e+06
3.49726e+06
3.4973e+06
3.4973e+06
3.49733e+06
3.49739e+06
3.49738e+06
3.49744e+06
3.49748e+06
3.49751e+06
3.49706e+06
3.49689e+06
3.49674e+06
3.49691e+06
3.49699e+06
3.49705e+06
3.49711e+06
3.49716e+06
3.49717e+06
3.49721e+06
3.49728e+06
3.49726e+06
3.49733e+06
3.49737e+06
3.4974e+06
3.49667e+06
3.49662e+06
3.49653e+06
3.49666e+06
3.49673e+06
3.49679e+06
3.49688e+06
3.49695e+06
3.49698e+06
3.49703e+06
3.49711e+06
3.4971e+06
3.49719e+06
3.49724e+06
3.49728e+06
3.49665e+06
3.49641e+06
3.49631e+06
3.49642e+06
3.4965e+06
3.4966e+06
3.49668e+06
3.49676e+06
3.4968e+06
3.49685e+06
3.49693e+06
3.49694e+06
3.49704e+06
3.4971e+06
3.49714e+06
3.49615e+06
3.4961e+06
3.49609e+06
3.49614e+06
3.4962e+06
3.4963e+06
3.49639e+06
3.49649e+06
3.49655e+06
3.49663e+06
3.49673e+06
3.49675e+06
3.49687e+06
3.49693e+06
3.49699e+06
3.49587e+06
3.49584e+06
3.49573e+06
3.49582e+06
3.49589e+06
3.49599e+06
3.49607e+06
3.4962e+06
3.49629e+06
3.49639e+06
3.49651e+06
3.49655e+06
3.49667e+06
3.49675e+06
3.49681e+06
3.49515e+06
3.49545e+06
3.49552e+06
3.49554e+06
3.49555e+06
3.49566e+06
3.49577e+06
3.49593e+06
3.49606e+06
3.49616e+06
3.49629e+06
3.49634e+06
3.49647e+06
3.49654e+06
3.49661e+06
3.4958e+06
3.49501e+06
3.49496e+06
3.49518e+06
3.49519e+06
3.49533e+06
3.49546e+06
3.49555e+06
3.49568e+06
3.49582e+06
3.49595e+06
3.49607e+06
3.49621e+06
3.49631e+06
3.49639e+06
3.49485e+06
3.49457e+06
3.49475e+06
3.49487e+06
3.49481e+06
3.49495e+06
3.49509e+06
3.49522e+06
3.4954e+06
3.49554e+06
3.49568e+06
3.49581e+06
3.49595e+06
3.49606e+06
3.49615e+06
3.49425e+06
3.49414e+06
3.49417e+06
3.49434e+06
3.49429e+06
3.49443e+06
3.49459e+06
3.49473e+06
3.49497e+06
3.49514e+06
3.49532e+06
3.49549e+06
3.49564e+06
3.49576e+06
3.49588e+06
3.49348e+06
3.49367e+06
3.49385e+06
3.49389e+06
3.49372e+06
3.49392e+06
3.49411e+06
3.49428e+06
3.49455e+06
3.49475e+06
3.49495e+06
3.49513e+06
3.4953e+06
3.49544e+06
3.49557e+06
3.49322e+06
3.49254e+06
3.49265e+06
3.49283e+06
3.49291e+06
3.49324e+06
3.49348e+06
3.49374e+06
3.49402e+06
3.49426e+06
3.49449e+06
3.49468e+06
3.49488e+06
3.49505e+06
3.49521e+06
3.49223e+06
3.492e+06
3.49227e+06
3.49222e+06
3.4922e+06
3.4926e+06
3.49292e+06
3.49321e+06
3.49352e+06
3.49378e+06
3.49401e+06
3.49422e+06
3.49445e+06
3.49464e+06
3.49482e+06
3.49117e+06
3.49088e+06
3.49084e+06
3.49116e+06
3.49132e+06
3.49171e+06
3.49205e+06
3.49239e+06
3.49278e+06
3.49312e+06
3.4934e+06
3.49364e+06
3.49393e+06
3.49414e+06
3.49435e+06
3.48935e+06
3.48992e+06
3.49042e+06
3.49066e+06
3.49074e+06
3.49111e+06
3.49144e+06
3.49182e+06
3.49223e+06
3.49259e+06
3.49289e+06
3.49312e+06
3.49343e+06
3.49363e+06
3.49384e+06
3.49009e+06
3.48856e+06
3.48866e+06
3.48933e+06
3.4894e+06
3.4899e+06
3.49031e+06
3.49074e+06
3.49125e+06
3.49163e+06
3.49198e+06
3.4921e+06
3.49249e+06
3.4928e+06
3.49307e+06
3.48738e+06
3.48752e+06
3.48834e+06
3.48894e+06
3.48896e+06
3.48941e+06
3.48975e+06
3.49017e+06
3.49065e+06
3.49102e+06
3.49137e+06
3.49146e+06
3.49186e+06
3.49216e+06
3.49243e+06
3.48434e+06
3.48539e+06
3.48568e+06
3.48665e+06
3.48691e+06
3.48731e+06
3.48778e+06
3.48832e+06
3.489e+06
3.48951e+06
3.49001e+06
3.49022e+06
3.49076e+06
3.49116e+06
3.49153e+06
3.48264e+06
3.48429e+06
3.48502e+06
3.48608e+06
3.48632e+06
3.48675e+06
3.48723e+06
3.48772e+06
3.48838e+06
3.48881e+06
3.48928e+06
3.48944e+06
3.48997e+06
3.49035e+06
3.49074e+06
3.48037e+06
3.47837e+06
3.47909e+06
3.48057e+06
3.48198e+06
3.4829e+06
3.48378e+06
3.48459e+06
3.48559e+06
3.48628e+06
3.48699e+06
3.48739e+06
3.48819e+06
3.4888e+06
3.4894e+06
3.47723e+06
3.47732e+06
3.47894e+06
3.47989e+06
3.48145e+06
3.48227e+06
3.48341e+06
3.48407e+06
3.48506e+06
3.48557e+06
3.48623e+06
3.48651e+06
3.48726e+06
3.48781e+06
3.48841e+06
3.47072e+06
3.47036e+06
3.46978e+06
3.47186e+06
3.47439e+06
3.47567e+06
3.47736e+06
3.47836e+06
3.48006e+06
3.48101e+06
3.48234e+06
3.48311e+06
3.48439e+06
3.48535e+06
3.48637e+06
3.46393e+06
3.46794e+06
3.47112e+06
3.47182e+06
3.47534e+06
3.4756e+06
3.47786e+06
3.47833e+06
3.48014e+06
3.48063e+06
3.48189e+06
3.48231e+06
3.48344e+06
3.48419e+06
3.48518e+06
3.47812e+06
3.45649e+06
3.45713e+06
3.45807e+06
3.46222e+06
3.46287e+06
3.46649e+06
3.4673e+06
3.47051e+06
3.47192e+06
3.47454e+06
3.47615e+06
3.47848e+06
3.4801e+06
3.48195e+06
3.46627e+06
3.45043e+06
3.46384e+06
3.45807e+06
3.46725e+06
3.46384e+06
3.4699e+06
3.46857e+06
3.4725e+06
3.47253e+06
3.47526e+06
3.47596e+06
3.47809e+06
3.44533e+06
3.42819e+06
3.43826e+06
3.42853e+06
3.44174e+06
3.43805e+06
3.44755e+06
3.44685e+06
3.45447e+06
3.45612e+06
3.46235e+06
3.46475e+06
3.46955e+06
3.43384e+06
3.4117e+06
3.46253e+06
3.4232e+06
3.45558e+06
3.43846e+06
3.45792e+06
3.45015e+06
3.46132e+06
3.45928e+06
3.46658e+06
3.46648e+06
3.47111e+06
3.05913e+06
3.32537e+06
3.41056e+06
3.35581e+06
3.40839e+06
3.38496e+06
3.41506e+06
3.40755e+06
3.42686e+06
3.42694e+06
3.44347e+06
3.44563e+06
3.45646e+06
4.00041e+06
3.16221e+06
3.47575e+06
3.34244e+06
3.43555e+06
3.38818e+06
3.44064e+06
3.41624e+06
3.44078e+06
3.43623e+06
3.45693e+06
3.45272e+06
3.46319e+06
4.00059e+06
2.96647e+06
3.38409e+06
3.15307e+06
3.31906e+06
3.25514e+06
3.35136e+06
3.3209e+06
3.37364e+06
3.36888e+06
3.41608e+06
3.41188e+06
3.43742e+06
4.00049e+06
3.03187e+06
3.43437e+06
3.2804e+06
3.43296e+06
3.3833e+06
3.43816e+06
3.3949e+06
3.42665e+06
3.41927e+06
3.45311e+06
3.43083e+06
3.45499e+06
3.99994e+06
2.2909e+06
3.19418e+06
2.71287e+06
2.97046e+06
2.9828e+06
3.16244e+06
3.1468e+06
3.25806e+06
3.25477e+06
3.37539e+06
3.3469e+06
3.41474e+06
3.99682e+06
3.12227e+06
3.37253e+06
3.24725e+06
3.67343e+06
3.58911e+06
3.6462e+06
3.62322e+06
3.63658e+06
3.56225e+06
3.53524e+06
3.38806e+06
3.46157e+06
3.79953e+06
1.32893e+06
3.99002e+06
-765774
1.12197e+06
2.18142e+06
2.38055e+06
2.41991e+06
2.55288e+06
2.70093e+06
3.25565e+06
3.10496e+06
3.37157e+06
4.00123e+06
4.0011e+06
4.00089e+06
4.00071e+06
4.00062e+06
4.00057e+06
4.00054e+06
4.00048e+06
4.00012e+06
3.99997e+06
3.99711e+06
3.21353e+06
3.52338e+06
4.00132e+06
4.00115e+06
4.00103e+06
4.00093e+06
4.00074e+06
4.0007e+06
4.00068e+06
4.00071e+06
4.00077e+06
4.00079e+06
4.00136e+06
4.00118e+06
4.00103e+06
4.00093e+06
4.00091e+06
4.00089e+06
4.00092e+06
4.001e+06
4.00115e+06
4.00132e+06
4.00138e+06
4.00119e+06
4.00108e+06
4.00102e+06
4.00099e+06
4.00098e+06
4.001e+06
4.00108e+06
4.00125e+06
4.00143e+06
4.00141e+06
4.00139e+06
4.00145e+06
4.00129e+06
4.00126e+06
4.00125e+06
4.00133e+06
4.01146e+06
4.03483e+06
4.04891e+06
4.18554e+06
4.00373e+06
4.1723e+06
4.08128e+06
4.14858e+06
4.10818e+06
4.13744e+06
4.123e+06
4.13353e+06
4.13117e+06
4.22396e+06
4.00145e+06
4.21466e+06
4.14295e+06
4.19601e+06
4.16945e+06
4.18877e+06
4.17958e+06
4.18883e+06
4.18796e+06
4.18567e+06
4.00177e+06
4.3386e+06
4.21862e+06
4.31325e+06
4.2602e+06
4.29042e+06
4.26544e+06
4.27211e+06
4.26466e+06
4.00501e+06
4.37546e+06
4.34329e+06
4.36023e+06
4.36898e+06
4.35683e+06
4.35892e+06
4.34388e+06
4.34012e+06
4.33247e+06
4.40647e+06
4.36611e+06
4.48105e+06
4.45138e+06
4.4918e+06
4.45576e+06
4.45266e+06
4.41049e+06
4.3881e+06
4.35057e+06
4.35063e+06
4.45289e+06
4.55879e+06
4.58967e+06
4.59069e+06
4.57362e+06
4.54815e+06
4.51162e+06
4.47419e+06
4.39463e+06
4.4741e+06
4.49587e+06
4.50214e+06
4.50157e+06
4.50116e+06
4.50068e+06
4.50024e+06
4.49956e+06
4.49993e+06
4.48882e+06
4.49838e+06
4.49767e+06
4.49733e+06
4.49744e+06
4.49749e+06
4.49774e+06
4.498e+06
4.49827e+06
4.49855e+06
4.49879e+06
4.49707e+06
4.49818e+06
4.49894e+06
4.49931e+06
4.49939e+06
4.49921e+06
4.49906e+06
4.49855e+06
4.49855e+06
4.49762e+06
4.4979e+06
4.49778e+06
4.49797e+06
4.49811e+06
4.49818e+06
4.49824e+06
4.49834e+06
4.4984e+06
4.49847e+06
4.49854e+06
4.49831e+06
4.49845e+06
4.49867e+06
4.49882e+06
4.49891e+06
4.49882e+06
4.4988e+06
4.49866e+06
4.49869e+06
4.49857e+06
4.49805e+06
4.49815e+06
4.49835e+06
4.49849e+06
4.49855e+06
4.49852e+06
4.4986e+06
4.49862e+06
4.49866e+06
4.49867e+06
4.49854e+06
4.4987e+06
4.4987e+06
4.49887e+06
4.49891e+06
4.49884e+06
4.49888e+06
4.49885e+06
4.49886e+06
4.49885e+06
4.49841e+06
4.49864e+06
4.49867e+06
4.49884e+06
4.49888e+06
4.49882e+06
4.49886e+06
4.49888e+06
4.49888e+06
4.49889e+06
4.49876e+06
4.49891e+06
4.49897e+06
4.49907e+06
4.49911e+06
4.49904e+06
4.49907e+06
4.49903e+06
4.49904e+06
4.49902e+06
4.49872e+06
4.49894e+06
4.49902e+06
4.49912e+06
4.49916e+06
4.4991e+06
4.49913e+06
4.49911e+06
4.49911e+06
4.4991e+06
4.49898e+06
4.49921e+06
4.49921e+06
4.49933e+06
4.49936e+06
4.49929e+06
4.49933e+06
4.49929e+06
4.49928e+06
4.49926e+06
4.49903e+06
4.49933e+06
4.49932e+06
4.49942e+06
4.49945e+06
4.49937e+06
4.4994e+06
4.49936e+06
4.49935e+06
4.49934e+06
4.49944e+06
4.49949e+06
4.4995e+06
4.49958e+06
4.49959e+06
4.4995e+06
4.49953e+06
4.49948e+06
4.49947e+06
4.49946e+06
4.49956e+06
4.49977e+06
4.49967e+06
4.49966e+06
4.49963e+06
4.49955e+06
4.49958e+06
4.49954e+06
4.49953e+06
4.49952e+06
4.50001e+06
4.50001e+06
4.49989e+06
4.49983e+06
4.49974e+06
4.49967e+06
4.49965e+06
4.49962e+06
4.49961e+06
4.4996e+06
4.50007e+06
4.50017e+06
4.49996e+06
4.49985e+06
4.49975e+06
4.49969e+06
4.49967e+06
4.49966e+06
4.49965e+06
4.49964e+06
4.50011e+06
4.5002e+06
4.50001e+06
4.4999e+06
4.49981e+06
4.49975e+06
4.49973e+06
4.49971e+06
4.4997e+06
4.49969e+06
4.50009e+06
4.50013e+06
4.49993e+06
4.49983e+06
4.49978e+06
4.49975e+06
4.49973e+06
4.49971e+06
4.49971e+06
4.49971e+06
4.50001e+06
4.50002e+06
4.49995e+06
4.49983e+06
4.49976e+06
4.49974e+06
4.49975e+06
4.49973e+06
4.49972e+06
4.49972e+06
4.49994e+06
4.49987e+06
4.49979e+06
4.49973e+06
4.4997e+06
4.4997e+06
4.49971e+06
4.4997e+06
4.49971e+06
4.49971e+06
4.49986e+06
4.50008e+06
4.4998e+06
4.49972e+06
4.49968e+06
4.49971e+06
4.49972e+06
4.49971e+06
4.4997e+06
4.49969e+06
4.49975e+06
4.49977e+06
4.4996e+06
4.49962e+06
4.49962e+06
4.49965e+06
4.49967e+06
4.49966e+06
4.49966e+06
4.49966e+06
4.49948e+06
4.49962e+06
4.49967e+06
4.49964e+06
4.49959e+06
4.49963e+06
4.49965e+06
4.49964e+06
4.49964e+06
4.49963e+06
4.4994e+06
4.49934e+06
4.4995e+06
4.49953e+06
4.4995e+06
4.49954e+06
4.49957e+06
4.49956e+06
4.49956e+06
4.49956e+06
4.49935e+06
4.49941e+06
4.49946e+06
4.49952e+06
4.49956e+06
4.49958e+06
4.49959e+06
4.49957e+06
4.49957e+06
4.49956e+06
4.49932e+06
4.49928e+06
4.49934e+06
4.4994e+06
4.49943e+06
4.49945e+06
4.49947e+06
4.49946e+06
4.49946e+06
4.49945e+06
4.49936e+06
4.4993e+06
4.4994e+06
4.49944e+06
4.49946e+06
4.49948e+06
4.49949e+06
4.49948e+06
4.49949e+06
4.49948e+06
4.49931e+06
4.4992e+06
4.49928e+06
4.4993e+06
4.49932e+06
4.49932e+06
4.49933e+06
4.49932e+06
4.49932e+06
4.4993e+06
4.4994e+06
4.49935e+06
4.49941e+06
4.49943e+06
4.49947e+06
4.49948e+06
4.49949e+06
4.49949e+06
4.49949e+06
4.49948e+06
4.49935e+06
4.49929e+06
4.49932e+06
4.49932e+06
4.49935e+06
4.49934e+06
4.49933e+06
4.49927e+06
4.49923e+06
4.49906e+06
4.49944e+06
4.49949e+06
4.49953e+06
4.49958e+06
4.49961e+06
4.49962e+06
4.49967e+06
4.49967e+06
4.49973e+06
4.4997e+06
4.49996e+06
4.4999e+06
4.49997e+06
4.49996e+06
4.49998e+06
4.49999e+06
4.49999e+06
4.49943e+06
4.49946e+06
4.49948e+06
4.49955e+06
4.4996e+06
4.4996e+06
4.49965e+06
4.49966e+06
4.4997e+06
4.49971e+06
4.49989e+06
4.49989e+06
4.49995e+06
4.49996e+06
4.49998e+06
4.49998e+06
4.49999e+06
4.49958e+06
4.49963e+06
4.49967e+06
4.49971e+06
4.49974e+06
4.4998e+06
4.49983e+06
4.49984e+06
4.49989e+06
4.49989e+06
4.49995e+06
4.49994e+06
4.49997e+06
4.49997e+06
4.49998e+06
4.49998e+06
4.49999e+06
4.49957e+06
4.4996e+06
4.49964e+06
4.4997e+06
4.49974e+06
4.49979e+06
4.49983e+06
4.49983e+06
4.49987e+06
4.49988e+06
4.49993e+06
4.49993e+06
4.49996e+06
4.49997e+06
4.49998e+06
4.49998e+06
4.49999e+06
4.49973e+06
4.49971e+06
4.49974e+06
4.49982e+06
4.49985e+06
4.49989e+06
4.49991e+06
4.49992e+06
4.49994e+06
4.49994e+06
4.49996e+06
4.49996e+06
4.49998e+06
4.49998e+06
4.49998e+06
4.49999e+06
4.49999e+06
4.4997e+06
4.49971e+06
4.49975e+06
4.49982e+06
4.49985e+06
4.49989e+06
4.49992e+06
4.49992e+06
4.49994e+06
4.49994e+06
4.49996e+06
4.49996e+06
4.49997e+06
4.49998e+06
4.49998e+06
4.49999e+06
4.49999e+06
4.49976e+06
4.49989e+06
4.49991e+06
4.49992e+06
4.49993e+06
4.49993e+06
4.49995e+06
4.49995e+06
4.49997e+06
4.49997e+06
4.49998e+06
4.49998e+06
4.49998e+06
4.49998e+06
4.49999e+06
4.49999e+06
4.49999e+06
4.49973e+06
4.4999e+06
4.49992e+06
4.49993e+06
4.49993e+06
4.49994e+06
4.49995e+06
4.49996e+06
4.49997e+06
4.49997e+06
4.49998e+06
4.49998e+06
4.49998e+06
4.49999e+06
4.49999e+06
4.49999e+06
4.49999e+06
4.49997e+06
4.49996e+06
4.49996e+06
4.49997e+06
4.49997e+06
4.49997e+06
4.49997e+06
4.49998e+06
4.49998e+06
4.49998e+06
4.49999e+06
4.49999e+06
4.49999e+06
4.49999e+06
4.49999e+06
4.49999e+06
4.49999e+06
4.49996e+06
4.49996e+06
4.49996e+06
4.49996e+06
4.49997e+06
4.49997e+06
4.49998e+06
4.49998e+06
4.49998e+06
4.49998e+06
4.49999e+06
4.49999e+06
4.49999e+06
4.49999e+06
4.49999e+06
4.49999e+06
4.49999e+06
4.49997e+06
4.49997e+06
4.49998e+06
4.49998e+06
4.49998e+06
4.49998e+06
4.49998e+06
4.49999e+06
4.49999e+06
4.49999e+06
4.49999e+06
4.49999e+06
4.49999e+06
4.49999e+06
4.49999e+06
4.49999e+06
4.5e+06
4.5e+06
4.5e+06
4.49997e+06
4.49997e+06
4.49998e+06
4.49998e+06
4.49998e+06
4.49998e+06
4.49998e+06
4.49999e+06
4.49999e+06
4.49999e+06
4.49999e+06
4.49999e+06
4.49999e+06
4.49999e+06
4.49999e+06
4.5e+06
4.5e+06
4.5e+06
4.5e+06
4.49998e+06
4.49998e+06
4.49999e+06
4.49999e+06
4.49999e+06
4.49999e+06
4.49999e+06
4.49999e+06
4.49999e+06
4.49999e+06
4.49999e+06
4.49999e+06
4.49999e+06
4.5e+06
4.5e+06
4.5e+06
4.5e+06
4.5e+06
4.5e+06
4.49999e+06
4.49999e+06
4.49999e+06
4.49999e+06
4.49999e+06
4.49999e+06
4.49999e+06
4.49999e+06
4.49999e+06
4.49999e+06
4.49999e+06
4.49999e+06
4.5e+06
4.5e+06
4.5e+06
4.5e+06
4.5e+06
4.5e+06
4.5e+06
4.49999e+06
4.49999e+06
4.49999e+06
4.49999e+06
4.49999e+06
4.49999e+06
4.5e+06
4.5e+06
4.5e+06
4.5e+06
4.5e+06
4.5e+06
4.5e+06
4.5e+06
4.5e+06
4.5e+06
4.5e+06
4.5e+06
4.5e+06
4.49999e+06
4.49999e+06
4.49999e+06
4.49999e+06
4.49999e+06
4.49999e+06
4.5e+06
4.5e+06
4.5e+06
4.5e+06
4.5e+06
4.5e+06
4.5e+06
4.5e+06
4.5e+06
4.5e+06
4.5e+06
4.5e+06
4.5e+06
4.5e+06
4.5e+06
4.5e+06
4.5e+06
4.5e+06
4.5e+06
4.5e+06
4.5e+06
4.5e+06
4.5e+06
4.5e+06
4.5e+06
4.5e+06
4.5e+06
4.5e+06
4.5e+06
4.5e+06
4.5e+06
4.5e+06
4.5e+06
4.5e+06
4.5e+06
4.5e+06
4.5e+06
4.5e+06
4.5e+06
4.5e+06
4.5e+06
4.5e+06
4.5e+06
4.5e+06
4.5e+06
4.5e+06
4.5e+06
4.5e+06
4.5e+06
4.5e+06
4.5e+06
4.5e+06
4.5e+06
4.5e+06
4.5e+06
4.5e+06
4.5e+06
4.5e+06
4.5e+06
4.5e+06
4.5e+06
4.5e+06
4.5e+06
4.5e+06
4.5e+06
4.5e+06
4.5e+06
4.5e+06
4.5e+06
4.5e+06
4.5e+06
4.5e+06
4.5e+06
4.5e+06
4.5e+06
4.5e+06
4.5e+06
4.5e+06
4.5e+06
4.5e+06
4.5e+06
4.5e+06
4.5e+06
4.5e+06
4.5e+06
4.5e+06
4.5e+06
4.5e+06
4.5e+06
4.5e+06
4.5e+06
4.5e+06
4.5e+06
4.5e+06
4.5e+06
4.5e+06
4.5e+06
4.5e+06
4.5e+06
4.5e+06
4.5e+06
4.5e+06
4.5e+06
4.5e+06
4.5e+06
4.5e+06
4.5e+06
4.5e+06
4.5e+06
4.5e+06
4.5e+06
4.5e+06
4.5e+06
4.5e+06
4.5e+06
4.5e+06
4.5e+06
4.5e+06
4.5e+06
4.5e+06
4.5e+06
4.5e+06
4.5e+06
4.5e+06
4.5e+06
4.5e+06
4.5e+06
4.5e+06
4.5e+06
4.5e+06
4.5e+06
4.5e+06
4.5e+06
4.5e+06
4.5e+06
4.5e+06
4.5e+06
4.5e+06
4.5e+06
4.5e+06
4.5e+06
4.5e+06
4.5e+06
4.5e+06
4.5e+06
4.5e+06
4.5e+06
4.5e+06
4.5e+06
4.5e+06
4.5e+06
4.5e+06
4.5e+06
4.5e+06
4.5e+06
4.5e+06
4.5e+06
4.5e+06
4.5e+06
4.5e+06
4.5e+06
4.5e+06
4.5e+06
4.5e+06
4.5e+06
4.5e+06
4.5e+06
4.5e+06
4.5e+06
4.5e+06
4.5e+06
4.5e+06
4.5e+06
4.5e+06
4.5e+06
4.5e+06
4.5e+06
4.5e+06
4.5e+06
4.5e+06
4.5e+06
4.5e+06
4.5e+06
4.5e+06
4.5e+06
4.5e+06
4.5e+06
4.5e+06
4.5e+06
4.5e+06
4.5e+06
4.5e+06
4.5e+06
4.5e+06
4.5e+06
4.5e+06
4.5e+06
4.5e+06
4.5e+06
4.5e+06
4.5e+06
4.5e+06
4.5e+06
4.5e+06
4.5e+06
4.5e+06
4.5e+06
4.5e+06
4.5e+06
4.5e+06
4.5e+06
4.5e+06
4.5e+06
4.5e+06
4.5e+06
4.5e+06
4.5e+06
4.5e+06
4.5e+06
4.5e+06
4.5e+06
4.5e+06
4.5e+06
4.5e+06
4.5e+06
4.5e+06
4.5e+06
4.5e+06
4.5e+06
4.5e+06
4.5e+06
4.5e+06
4.5e+06
4.5e+06
4.5e+06
4.5e+06
4.5e+06
4.5e+06
4.5e+06
4.5e+06
4.5e+06
4.5e+06
4.5e+06
4.5e+06
4.5e+06
4.5e+06
4.5e+06
4.5e+06
4.5e+06
4.5e+06
4.5e+06
4.5e+06
4.5e+06
4.5e+06
4.5e+06
4.5e+06
4.5e+06
4.5e+06
4.5e+06
4.5e+06
4.5e+06
4.5e+06
4.5e+06
4.5e+06
4.5e+06
4.5e+06
4.5e+06
4.5e+06
4.5e+06
4.5e+06
4.5e+06
4.5e+06
4.5e+06
4.5e+06
4.5e+06
4.5e+06
4.5e+06
4.5e+06
4.5e+06
4.5e+06
4.5e+06
4.5e+06
4.50001e+06
4.50001e+06
4.5e+06
4.5e+06
4.5e+06
4.5e+06
4.5e+06
4.5e+06
4.5e+06
4.5e+06
4.5e+06
4.5e+06
4.5e+06
4.5e+06
4.5e+06
4.5e+06
4.5e+06
4.5e+06
4.5e+06
4.50001e+06
4.50001e+06
4.50001e+06
4.50001e+06
4.50001e+06
4.5e+06
4.5e+06
4.5e+06
4.5e+06
4.5e+06
4.5e+06
4.5e+06
4.5e+06
4.5e+06
4.5e+06
4.5e+06
4.5e+06
4.5e+06
4.5e+06
4.50001e+06
4.50001e+06
4.50001e+06
4.50001e+06
4.5e+06
4.5e+06
4.5e+06
4.5e+06
4.5e+06
4.5e+06
4.5e+06
4.5e+06
4.5e+06
4.5e+06
4.5e+06
4.5e+06
4.5e+06
4.5e+06
4.50001e+06
4.50001e+06
4.50001e+06
4.50001e+06
4.50001e+06
4.50001e+06
4.5e+06
4.5e+06
4.5e+06
4.5e+06
4.5e+06
4.5e+06
4.5e+06
4.5e+06
4.5e+06
4.5e+06
4.5e+06
4.5e+06
4.5e+06
4.5e+06
4.50001e+06
4.50001e+06
4.50001e+06
4.50001e+06
4.5e+06
4.5e+06
4.5e+06
4.5e+06
4.5e+06
4.5e+06
4.5e+06
4.5e+06
4.5e+06
4.5e+06
4.5e+06
4.5e+06
4.50001e+06
4.5e+06
4.50001e+06
4.50001e+06
4.50001e+06
4.50001e+06
4.50001e+06
4.50001e+06
4.5e+06
4.5e+06
4.5e+06
4.5e+06
4.5e+06
4.5e+06
4.5e+06
4.5e+06
4.5e+06
4.5e+06
4.5e+06
4.5e+06
4.5e+06
4.50001e+06
4.50001e+06
4.50001e+06
4.50001e+06
4.5e+06
4.5e+06
4.5e+06
4.5e+06
4.5e+06
4.5e+06
4.5e+06
4.5e+06
4.5e+06
4.5e+06
4.5e+06
4.5e+06
4.5e+06
4.5e+06
4.5e+06
4.50001e+06
4.50001e+06
4.50001e+06
4.50001e+06
4.5e+06
4.5e+06
4.5e+06
4.5e+06
4.5e+06
4.5e+06
4.5e+06
4.5e+06
4.5e+06
4.5e+06
4.5e+06
4.5e+06
4.5e+06
4.5e+06
4.5e+06
4.5e+06
4.5e+06
4.5e+06
4.5e+06
4.5e+06
4.5e+06
4.5e+06
4.5e+06
4.5e+06
4.5e+06
4.5e+06
4.5e+06
4.5e+06
4.5e+06
4.5e+06
4.5e+06
4.5e+06
4.5e+06
4.5e+06
4.5e+06
4.5e+06
4.5e+06
4.5e+06
4.5e+06
4.5e+06
4.5e+06
4.5e+06
4.5e+06
4.5e+06
4.5e+06
4.5e+06
4.5e+06
4.5e+06
4.5e+06
4.5e+06
4.5e+06
3.49817e+06
3.49757e+06
3.49757e+06
3.49765e+06
3.49755e+06
3.49755e+06
3.49751e+06
3.49754e+06
3.49744e+06
3.49721e+06
3.49708e+06
3.49721e+06
3.4973e+06
3.49735e+06
3.49733e+06
3.49739e+06
3.49741e+06
3.49746e+06
3.49749e+06
3.49749e+06
3.49755e+06
3.49759e+06
3.49762e+06
3.49727e+06
3.49715e+06
3.49701e+06
3.49706e+06
3.49717e+06
3.49722e+06
3.49726e+06
3.4973e+06
3.4973e+06
3.49733e+06
3.49739e+06
3.49738e+06
3.49744e+06
3.49748e+06
3.49751e+06
3.49706e+06
3.49689e+06
3.49674e+06
3.49691e+06
3.49699e+06
3.49705e+06
3.49711e+06
3.49716e+06
3.49717e+06
3.49721e+06
3.49728e+06
3.49726e+06
3.49733e+06
3.49737e+06
3.4974e+06
3.49667e+06
3.49662e+06
3.49653e+06
3.49666e+06
3.49673e+06
3.49679e+06
3.49688e+06
3.49695e+06
3.49698e+06
3.49703e+06
3.49711e+06
3.4971e+06
3.49719e+06
3.49724e+06
3.49728e+06
3.49665e+06
3.49641e+06
3.49631e+06
3.49642e+06
3.4965e+06
3.4966e+06
3.49668e+06
3.49676e+06
3.4968e+06
3.49685e+06
3.49693e+06
3.49694e+06
3.49704e+06
3.4971e+06
3.49714e+06
3.49615e+06
3.4961e+06
3.49609e+06
3.49614e+06
3.4962e+06
3.4963e+06
3.49639e+06
3.49649e+06
3.49655e+06
3.49663e+06
3.49673e+06
3.49675e+06
3.49687e+06
3.49693e+06
3.49699e+06
3.49587e+06
3.49584e+06
3.49573e+06
3.49582e+06
3.49589e+06
3.49599e+06
3.49607e+06
3.4962e+06
3.49629e+06
3.49639e+06
3.49651e+06
3.49655e+06
3.49667e+06
3.49675e+06
3.49681e+06
3.49515e+06
3.49545e+06
3.49552e+06
3.49554e+06
3.49555e+06
3.49566e+06
3.49577e+06
3.49593e+06
3.49606e+06
3.49616e+06
3.49629e+06
3.49634e+06
3.49646e+06
3.49654e+06
3.49661e+06
3.4958e+06
3.49501e+06
3.49496e+06
3.49518e+06
3.49519e+06
3.49533e+06
3.49546e+06
3.49555e+06
3.49568e+06
3.49582e+06
3.49595e+06
3.49607e+06
3.49621e+06
3.49631e+06
3.49639e+06
3.49485e+06
3.49457e+06
3.49475e+06
3.49487e+06
3.49481e+06
3.49495e+06
3.49509e+06
3.49522e+06
3.4954e+06
3.49554e+06
3.49568e+06
3.49581e+06
3.49595e+06
3.49606e+06
3.49615e+06
3.49425e+06
3.49414e+06
3.49417e+06
3.49434e+06
3.49429e+06
3.49443e+06
3.49459e+06
3.49473e+06
3.49497e+06
3.49514e+06
3.49532e+06
3.49549e+06
3.49564e+06
3.49576e+06
3.49588e+06
3.49348e+06
3.49367e+06
3.49385e+06
3.49389e+06
3.49372e+06
3.49392e+06
3.49411e+06
3.49428e+06
3.49455e+06
3.49475e+06
3.49495e+06
3.49513e+06
3.4953e+06
3.49544e+06
3.49557e+06
3.49322e+06
3.49254e+06
3.49265e+06
3.49283e+06
3.49291e+06
3.49324e+06
3.49348e+06
3.49374e+06
3.49402e+06
3.49426e+06
3.49449e+06
3.49468e+06
3.49488e+06
3.49505e+06
3.49521e+06
3.49223e+06
3.492e+06
3.49227e+06
3.49222e+06
3.4922e+06
3.4926e+06
3.49292e+06
3.49321e+06
3.49352e+06
3.49378e+06
3.49401e+06
3.49422e+06
3.49445e+06
3.49464e+06
3.49482e+06
3.49117e+06
3.49088e+06
3.49084e+06
3.49116e+06
3.49132e+06
3.49171e+06
3.49205e+06
3.49239e+06
3.49278e+06
3.49312e+06
3.4934e+06
3.49364e+06
3.49393e+06
3.49414e+06
3.49435e+06
3.48935e+06
3.48992e+06
3.49042e+06
3.49066e+06
3.49074e+06
3.49111e+06
3.49144e+06
3.49182e+06
3.49223e+06
3.49259e+06
3.49289e+06
3.49312e+06
3.49343e+06
3.49363e+06
3.49384e+06
3.49009e+06
3.48856e+06
3.48866e+06
3.48933e+06
3.4894e+06
3.4899e+06
3.49031e+06
3.49074e+06
3.49125e+06
3.49163e+06
3.49198e+06
3.4921e+06
3.49249e+06
3.4928e+06
3.49307e+06
3.48737e+06
3.48752e+06
3.48834e+06
3.48894e+06
3.48896e+06
3.48941e+06
3.48975e+06
3.49017e+06
3.49065e+06
3.49102e+06
3.49137e+06
3.49146e+06
3.49186e+06
3.49216e+06
3.49243e+06
3.48434e+06
3.48539e+06
3.48568e+06
3.48665e+06
3.48691e+06
3.48731e+06
3.48778e+06
3.48832e+06
3.489e+06
3.48951e+06
3.49001e+06
3.49022e+06
3.49076e+06
3.49116e+06
3.49153e+06
3.48264e+06
3.48429e+06
3.48502e+06
3.48608e+06
3.48632e+06
3.48675e+06
3.48723e+06
3.48772e+06
3.48838e+06
3.48881e+06
3.48928e+06
3.48944e+06
3.48996e+06
3.49035e+06
3.49074e+06
3.48037e+06
3.47837e+06
3.47909e+06
3.48057e+06
3.48198e+06
3.4829e+06
3.48378e+06
3.48459e+06
3.48559e+06
3.48628e+06
3.48699e+06
3.4874e+06
3.48819e+06
3.4888e+06
3.4894e+06
3.47723e+06
3.47732e+06
3.47893e+06
3.47989e+06
3.48145e+06
3.48227e+06
3.48341e+06
3.48407e+06
3.48506e+06
3.48557e+06
3.48623e+06
3.48651e+06
3.48726e+06
3.48781e+06
3.48841e+06
3.47072e+06
3.47036e+06
3.46978e+06
3.47186e+06
3.47439e+06
3.47567e+06
3.47736e+06
3.47836e+06
3.48006e+06
3.48101e+06
3.48234e+06
3.48311e+06
3.48439e+06
3.48535e+06
3.48637e+06
3.46393e+06
3.46794e+06
3.47112e+06
3.47182e+06
3.47534e+06
3.4756e+06
3.47786e+06
3.47833e+06
3.48014e+06
3.48063e+06
3.48189e+06
3.48232e+06
3.48344e+06
3.48419e+06
3.48518e+06
3.47812e+06
3.45649e+06
3.45713e+06
3.45807e+06
3.46222e+06
3.46287e+06
3.46649e+06
3.4673e+06
3.47051e+06
3.47192e+06
3.47454e+06
3.47615e+06
3.47848e+06
3.4801e+06
3.48195e+06
3.46627e+06
3.45043e+06
3.46384e+06
3.45807e+06
3.46725e+06
3.46384e+06
3.4699e+06
3.46857e+06
3.4725e+06
3.47253e+06
3.47526e+06
3.47596e+06
3.47809e+06
3.44533e+06
3.42819e+06
3.43826e+06
3.42853e+06
3.44174e+06
3.43805e+06
3.44755e+06
3.44685e+06
3.45447e+06
3.45611e+06
3.46235e+06
3.46475e+06
3.46955e+06
3.43384e+06
3.41171e+06
3.46253e+06
3.4232e+06
3.45558e+06
3.43846e+06
3.45792e+06
3.45015e+06
3.46132e+06
3.45928e+06
3.46658e+06
3.46648e+06
3.47111e+06
3.05916e+06
3.32538e+06
3.41056e+06
3.35581e+06
3.40838e+06
3.38496e+06
3.41506e+06
3.40755e+06
3.4269e+06
3.42694e+06
3.44347e+06
3.44563e+06
3.45646e+06
4.0004e+06
3.16224e+06
3.47575e+06
3.34244e+06
3.43539e+06
3.38819e+06
3.44064e+06
3.41625e+06
3.44108e+06
3.43623e+06
3.45693e+06
3.45272e+06
3.4632e+06
4.00058e+06
2.96646e+06
3.38407e+06
3.15307e+06
3.31809e+06
3.25515e+06
3.35136e+06
3.32107e+06
3.3749e+06
3.36888e+06
3.41608e+06
3.41188e+06
3.43742e+06
4.00048e+06
3.03181e+06
3.43438e+06
3.28041e+06
3.43313e+06
3.38329e+06
3.43816e+06
3.39491e+06
3.42661e+06
3.41927e+06
3.45312e+06
3.43084e+06
3.455e+06
3.99992e+06
2.29084e+06
3.19411e+06
2.71281e+06
2.97046e+06
2.9828e+06
3.16247e+06
3.14676e+06
3.25737e+06
3.25475e+06
3.3754e+06
3.3469e+06
3.41474e+06
3.99685e+06
3.12207e+06
3.37254e+06
3.24722e+06
3.67346e+06
3.58888e+06
3.64618e+06
3.62328e+06
3.63648e+06
3.5623e+06
3.53519e+06
3.38806e+06
3.46157e+06
3.79968e+06
1.32897e+06
3.9848e+06
-835549
1.12136e+06
2.18148e+06
2.38064e+06
2.41972e+06
2.55303e+06
2.70082e+06
3.24313e+06
3.10497e+06
3.37176e+06
4.00123e+06
4.0011e+06
4.00089e+06
4.00074e+06
4.00062e+06
4.00052e+06
4.00051e+06
4.00048e+06
4.00035e+06
4.00008e+06
3.99451e+06
3.21357e+06
3.52334e+06
4.00132e+06
4.00114e+06
4.00103e+06
4.00089e+06
4.00078e+06
4.00069e+06
4.00067e+06
4.00071e+06
4.00078e+06
4.0008e+06
4.00136e+06
4.00118e+06
4.00103e+06
4.00094e+06
4.00089e+06
4.0009e+06
4.00091e+06
4.001e+06
4.00115e+06
4.00132e+06
4.00138e+06
4.00119e+06
4.00108e+06
4.00102e+06
4.00099e+06
4.00098e+06
4.001e+06
4.00108e+06
4.00125e+06
4.00143e+06
4.00141e+06
4.00139e+06
4.00145e+06
4.00129e+06
4.00125e+06
4.00125e+06
4.00133e+06
4.01146e+06
4.03483e+06
4.04891e+06
4.18554e+06
4.00373e+06
4.1723e+06
4.08128e+06
4.14858e+06
4.10818e+06
4.13744e+06
4.123e+06
4.13353e+06
4.13117e+06
4.22397e+06
4.00145e+06
4.21466e+06
4.14295e+06
4.19601e+06
4.16945e+06
4.18877e+06
4.17958e+06
4.18883e+06
4.18796e+06
4.18579e+06
4.00177e+06
4.33859e+06
4.21862e+06
4.31326e+06
4.2602e+06
4.29042e+06
4.26544e+06
4.27211e+06
4.26466e+06
4.00501e+06
4.37546e+06
4.3433e+06
4.36022e+06
4.36898e+06
4.35683e+06
4.35892e+06
4.34388e+06
4.34012e+06
4.33247e+06
4.40647e+06
4.36611e+06
4.48105e+06
4.45139e+06
4.4918e+06
4.45576e+06
4.45266e+06
4.41049e+06
4.3881e+06
4.35057e+06
4.35063e+06
4.45289e+06
4.55879e+06
4.58967e+06
4.59069e+06
4.57362e+06
4.54815e+06
4.51162e+06
4.47419e+06
4.39463e+06
4.4741e+06
4.49587e+06
4.50214e+06
4.50157e+06
4.50116e+06
4.50068e+06
4.50024e+06
4.49956e+06
4.49993e+06
4.48882e+06
4.49838e+06
4.49767e+06
4.49733e+06
4.49744e+06
4.49749e+06
4.49774e+06
4.498e+06
4.49827e+06
4.49855e+06
4.49879e+06
4.49707e+06
4.49818e+06
4.49894e+06
4.49931e+06
4.49939e+06
4.49921e+06
4.49906e+06
4.49855e+06
4.49855e+06
4.49762e+06
4.4979e+06
4.49778e+06
4.49797e+06
4.49811e+06
4.49818e+06
4.49824e+06
4.49834e+06
4.4984e+06
4.49847e+06
4.49854e+06
4.49831e+06
4.49845e+06
4.49867e+06
4.49882e+06
4.49891e+06
4.49882e+06
4.4988e+06
4.49866e+06
4.49869e+06
4.49857e+06
4.49805e+06
4.49815e+06
4.49835e+06
4.49849e+06
4.49855e+06
4.49852e+06
4.4986e+06
4.49862e+06
4.49866e+06
4.49867e+06
4.49854e+06
4.4987e+06
4.4987e+06
4.49887e+06
4.49891e+06
4.49884e+06
4.49888e+06
4.49885e+06
4.49886e+06
4.49885e+06
4.49841e+06
4.49864e+06
4.49867e+06
4.49884e+06
4.49888e+06
4.49882e+06
4.49886e+06
4.49888e+06
4.49888e+06
4.49889e+06
4.49876e+06
4.49891e+06
4.49897e+06
4.49907e+06
4.49911e+06
4.49904e+06
4.49907e+06
4.49903e+06
4.49904e+06
4.49902e+06
4.49872e+06
4.49894e+06
4.49902e+06
4.49912e+06
4.49916e+06
4.4991e+06
4.49913e+06
4.49911e+06
4.49911e+06
4.4991e+06
4.49898e+06
4.49921e+06
4.49921e+06
4.49933e+06
4.49936e+06
4.49929e+06
4.49933e+06
4.49929e+06
4.49928e+06
4.49926e+06
4.49903e+06
4.49933e+06
4.49932e+06
4.49942e+06
4.49945e+06
4.49937e+06
4.4994e+06
4.49936e+06
4.49935e+06
4.49934e+06
4.49944e+06
4.49949e+06
4.4995e+06
4.49958e+06
4.49959e+06
4.4995e+06
4.49953e+06
4.49948e+06
4.49947e+06
4.49946e+06
4.49956e+06
4.49977e+06
4.49967e+06
4.49966e+06
4.49963e+06
4.49955e+06
4.49958e+06
4.49954e+06
4.49953e+06
4.49952e+06
4.50001e+06
4.50001e+06
4.49989e+06
4.49983e+06
4.49974e+06
4.49967e+06
4.49965e+06
4.49962e+06
4.49961e+06
4.4996e+06
4.50007e+06
4.50017e+06
4.49996e+06
4.49985e+06
4.49975e+06
4.49969e+06
4.49967e+06
4.49966e+06
4.49965e+06
4.49964e+06
4.50011e+06
4.5002e+06
4.50001e+06
4.4999e+06
4.49981e+06
4.49975e+06
4.49973e+06
4.49971e+06
4.4997e+06
4.49969e+06
4.50009e+06
4.50013e+06
4.49993e+06
4.49983e+06
4.49978e+06
4.49975e+06
4.49973e+06
4.49971e+06
4.49971e+06
4.49971e+06
4.50001e+06
4.50002e+06
4.49995e+06
4.49983e+06
4.49976e+06
4.49974e+06
4.49975e+06
4.49973e+06
4.49972e+06
4.49972e+06
4.49994e+06
4.49987e+06
4.49979e+06
4.49973e+06
4.4997e+06
4.4997e+06
4.49971e+06
4.4997e+06
4.49971e+06
4.49971e+06
4.49986e+06
4.50008e+06
4.4998e+06
4.49972e+06
4.49968e+06
4.49971e+06
4.49972e+06
4.49971e+06
4.4997e+06
4.49969e+06
4.49975e+06
4.49977e+06
4.4996e+06
4.49962e+06
4.49962e+06
4.49965e+06
4.49967e+06
4.49966e+06
4.49966e+06
4.49965e+06
4.49948e+06
4.49962e+06
4.49967e+06
4.49964e+06
4.49959e+06
4.49963e+06
4.49965e+06
4.49964e+06
4.49964e+06
4.49963e+06
4.4994e+06
4.49934e+06
4.4995e+06
4.49953e+06
4.4995e+06
4.49954e+06
4.49957e+06
4.49956e+06
4.49956e+06
4.49956e+06
4.49935e+06
4.49941e+06
4.49946e+06
4.49952e+06
4.49956e+06
4.49958e+06
4.49959e+06
4.49957e+06
4.49957e+06
4.49956e+06
4.49932e+06
4.49928e+06
4.49934e+06
4.4994e+06
4.49943e+06
4.49945e+06
4.49947e+06
4.49946e+06
4.49946e+06
4.49945e+06
4.49936e+06
4.4993e+06
4.4994e+06
4.49944e+06
4.49946e+06
4.49948e+06
4.49949e+06
4.49948e+06
4.49949e+06
4.49948e+06
4.49931e+06
4.4992e+06
4.49928e+06
4.4993e+06
4.49932e+06
4.49932e+06
4.49933e+06
4.49932e+06
4.49932e+06
4.4993e+06
4.4994e+06
4.49935e+06
4.49941e+06
4.49943e+06
4.49947e+06
4.49948e+06
4.49949e+06
4.49949e+06
4.49949e+06
4.49948e+06
4.49935e+06
4.49929e+06
4.49932e+06
4.49932e+06
4.49935e+06
4.49934e+06
4.49933e+06
4.49927e+06
4.49923e+06
4.49906e+06
4.49944e+06
4.49949e+06
4.49953e+06
4.49958e+06
4.49961e+06
4.49962e+06
4.49967e+06
4.49967e+06