/*--------------------------------*- C++ -*----------------------------------*\
| =========                 |                                                 |
| \\      /  F ield         | OpenFOAM: The Open Source CFD Toolbox           |
|  \\    /   O peration     | Version:  v2012                                 |
|   \\  /    A nd           | Website:  www.openfoam.com                      |
|    \\/     M anipulation  |                                                 |
\*---------------------------------------------------------------------------*/
FoamFile
{
    version     2.0;
    format      ascii;
    class       volScalarField;
    location    "0.1";
    object      p_rgh;
}
// * * * * * * * * * * * * * * * * * * * * * * * * * * * * * * * * * * * * * //

dimensions      [1 -1 -2 0 0 0 0];


internalField   nonuniform List<scalar> 
3332
(
3.45884e+06
3.46514e+06
3.46048e+06
3.46407e+06
3.46393e+06
3.45544e+06
3.46363e+06
3.44683e+06
3.47275e+06
3.47321e+06
3.47414e+06
3.47268e+06
3.47387e+06
3.46202e+06
3.47061e+06
3.44915e+06
3.44087e+06
3.43209e+06
3.46744e+06
3.47678e+06
3.48455e+06
3.48562e+06
3.48741e+06
3.49531e+06
3.48815e+06
3.49548e+06
3.4878e+06
3.48972e+06
3.47607e+06
3.48151e+06
3.46001e+06
3.45355e+06
3.44214e+06
3.47244e+06
3.482e+06
3.48848e+06
3.48955e+06
3.49054e+06
3.52462e+06
3.51018e+06
3.52346e+06
3.51034e+06
3.51295e+06
3.49961e+06
3.5005e+06
3.48402e+06
3.47728e+06
3.46116e+06
3.48209e+06
3.49068e+06
3.4943e+06
3.49481e+06
3.49449e+06
3.55813e+06
3.53896e+06
3.55619e+06
3.53978e+06
3.54331e+06
3.53232e+06
3.52919e+06
3.52218e+06
3.51369e+06
3.48892e+06
3.49668e+06
3.50263e+06
3.50197e+06
3.50133e+06
3.49921e+06
3.59241e+06
3.57101e+06
3.58973e+06
3.57312e+06
3.5774e+06
3.57078e+06
3.56533e+06
3.56893e+06
3.55739e+06
3.52305e+06
3.51361e+06
3.51685e+06
3.5109e+06
3.5088e+06
3.50456e+06
3.62388e+06
3.60345e+06
3.621e+06
3.60658e+06
3.61034e+06
3.60906e+06
3.60118e+06
3.61619e+06
3.5979e+06
3.55885e+06
3.5283e+06
3.53166e+06
3.52008e+06
3.51677e+06
3.5103e+06
3.65e+06
3.63334e+06
3.64735e+06
3.63626e+06
3.63785e+06
3.63956e+06
3.62766e+06
3.65252e+06
3.62204e+06
3.59062e+06
3.54054e+06
3.546e+06
3.52929e+06
3.52496e+06
3.5163e+06
3.67113e+06
3.66232e+06
3.66911e+06
3.66218e+06
3.66032e+06
3.6608e+06
3.64664e+06
3.67002e+06
3.6295e+06
3.61304e+06
3.55531e+06
3.5595e+06
3.53945e+06
3.5333e+06
3.52266e+06
3.68971e+06
3.69385e+06
3.68893e+06
3.68845e+06
3.68318e+06
3.68221e+06
3.67262e+06
3.68242e+06
3.65421e+06
3.64117e+06
3.58237e+06
3.57416e+06
3.55233e+06
3.54191e+06
3.52953e+06
3.70634e+06
3.72331e+06
3.70721e+06
3.71428e+06
3.70793e+06
3.70949e+06
3.70949e+06
3.71124e+06
3.71053e+06
3.69309e+06
3.62621e+06
3.59118e+06
3.5687e+06
3.55079e+06
3.53689e+06
3.71915e+06
3.74152e+06
3.72124e+06
3.73265e+06
3.72773e+06
3.73298e+06
3.74144e+06
3.74442e+06
3.76166e+06
3.73862e+06
3.67502e+06
3.60441e+06
3.58489e+06
3.5586e+06
3.54387e+06
3.72648e+06
3.74561e+06
3.7283e+06
3.73958e+06
3.73668e+06
3.74297e+06
3.75432e+06
3.75621e+06
3.7786e+06
3.75284e+06
3.71156e+06
3.61242e+06
3.59694e+06
3.5645e+06
3.54953e+06
3.72815e+06
3.74122e+06
3.72935e+06
3.73762e+06
3.73601e+06
3.74137e+06
3.75042e+06
3.75022e+06
3.76749e+06
3.74774e+06
3.72438e+06
3.62822e+06
3.60258e+06
3.56999e+06
3.55337e+06
3.7233e+06
3.73059e+06
3.72453e+06
3.72986e+06
3.72919e+06
3.7334e+06
3.73915e+06
3.73918e+06
3.74872e+06
3.73707e+06
3.7236e+06
3.65109e+06
3.60369e+06
3.57568e+06
3.55547e+06
3.71332e+06
3.71713e+06
3.7153e+06
3.71834e+06
3.7182e+06
3.72131e+06
3.72463e+06
3.72502e+06
3.72967e+06
3.72302e+06
3.71442e+06
3.66307e+06
3.60342e+06
3.57847e+06
3.55594e+06
3.70016e+06
3.70251e+06
3.70284e+06
3.7046e+06
3.70468e+06
3.70714e+06
3.70882e+06
3.70962e+06
3.71113e+06
3.70788e+06
3.70128e+06
3.66474e+06
3.60439e+06
3.57821e+06
3.5554e+06
3.6879e+06
3.68796e+06
3.68821e+06
3.68951e+06
3.68953e+06
3.69194e+06
3.6929e+06
3.69444e+06
3.69438e+06
3.69347e+06
3.68733e+06
3.66093e+06
3.60494e+06
3.57577e+06
3.55374e+06
3.67146e+06
3.67237e+06
3.67159e+06
3.67321e+06
3.67313e+06
3.6759e+06
3.6769e+06
3.67959e+06
3.67921e+06
3.67987e+06
3.67316e+06
3.65368e+06
3.60286e+06
3.57143e+06
3.55057e+06
3.65363e+06
3.6552e+06
3.65329e+06
3.65532e+06
3.65528e+06
3.65851e+06
3.65989e+06
3.66388e+06
3.66359e+06
3.66555e+06
3.65769e+06
3.64311e+06
3.59705e+06
3.56507e+06
3.54567e+06
3.6345e+06
3.63532e+06
3.63339e+06
3.6353e+06
3.63561e+06
3.63897e+06
3.64054e+06
3.64535e+06
3.64458e+06
3.64802e+06
3.63894e+06
3.62842e+06
3.5872e+06
3.5563e+06
3.53893e+06
3.61422e+06
3.61314e+06
3.61253e+06
3.61334e+06
3.61418e+06
3.61687e+06
3.61807e+06
3.62244e+06
3.62026e+06
3.62503e+06
3.61555e+06
3.60879e+06
3.57374e+06
3.5451e+06
3.5305e+06
3.59281e+06
3.58895e+06
3.59089e+06
3.59024e+06
3.59168e+06
3.5929e+06
3.5932e+06
3.59569e+06
3.59187e+06
3.59674e+06
3.58848e+06
3.58483e+06
3.55768e+06
3.53218e+06
3.52087e+06
3.57135e+06
3.56548e+06
3.56964e+06
3.56755e+06
3.56926e+06
3.56876e+06
3.56794e+06
3.56786e+06
3.56315e+06
3.5666e+06
3.56082e+06
3.55934e+06
3.54022e+06
3.51895e+06
3.51073e+06
3.55081e+06
3.54454e+06
3.54965e+06
3.5467e+06
3.54821e+06
3.54636e+06
3.54456e+06
3.5423e+06
3.53766e+06
3.5391e+06
3.53614e+06
3.53596e+06
3.52316e+06
3.50683e+06
3.50092e+06
3.53314e+06
3.52704e+06
3.53163e+06
3.52858e+06
3.52952e+06
3.52694e+06
3.52456e+06
3.5211e+06
3.51717e+06
3.51708e+06
3.51632e+06
3.51666e+06
3.50825e+06
3.49645e+06
3.4922e+06
3.51655e+06
3.51261e+06
3.51593e+06
3.51342e+06
3.51367e+06
3.51095e+06
3.50841e+06
3.50466e+06
3.50171e+06
3.50085e+06
3.50138e+06
3.50161e+06
3.49619e+06
3.50254e+06
3.5009e+06
3.50267e+06
3.50096e+06
3.50063e+06
3.49815e+06
3.49579e+06
3.49233e+06
3.49033e+06
3.4892e+06
3.49036e+06
3.49023e+06
3.48683e+06
3.49107e+06
3.49126e+06
3.49171e+06
3.49078e+06
3.49006e+06
3.48798e+06
3.486e+06
3.48305e+06
3.48185e+06
3.48068e+06
3.48203e+06
3.48156e+06
3.47947e+06
3.48231e+06
3.48326e+06
3.48277e+06
3.4824e+06
3.48151e+06
3.47983e+06
3.47828e+06
3.47584e+06
3.47524e+06
3.47413e+06
3.47548e+06
3.47481e+06
3.47358e+06
3.47509e+06
3.47638e+06
3.47556e+06
3.47543e+06
3.47456e+06
3.47318e+06
3.47201e+06
3.46997e+06
3.46976e+06
3.46863e+06
3.46991e+06
3.46921e+06
3.46855e+06
3.46942e+06
3.47048e+06
3.46973e+06
3.46958e+06
3.46882e+06
3.46767e+06
3.46677e+06
3.46503e+06
3.46509e+06
3.46394e+06
3.46527e+06
3.46456e+06
3.46445e+06
3.46485e+06
3.46539e+06
3.46495e+06
3.46467e+06
3.46405e+06
3.46303e+06
3.46228e+06
3.46076e+06
3.46089e+06
3.45964e+06
3.46092e+06
3.46035e+06
3.46065e+06
3.46134e+06
3.46118e+06
3.46107e+06
3.46058e+06
3.4601e+06
3.45917e+06
3.45845e+06
3.45717e+06
3.45731e+06
3.45616e+06
3.45757e+06
3.45706e+06
3.45789e+06
3.45835e+06
3.45769e+06
3.45793e+06
3.45726e+06
3.45689e+06
3.45601e+06
3.45524e+06
3.45417e+06
3.45402e+06
3.45289e+06
3.45383e+06
3.45397e+06
3.45471e+06
3.45602e+06
3.45501e+06
3.4555e+06
3.45463e+06
3.45432e+06
3.45337e+06
3.45248e+06
3.45161e+06
3.45117e+06
3.45065e+06
3.45182e+06
3.45235e+06
3.45338e+06
3.45435e+06
3.45312e+06
3.45378e+06
3.45277e+06
3.45246e+06
3.45134e+06
3.45016e+06
3.44883e+06
3.44713e+06
3.44671e+06
3.4465e+06
3.44886e+06
3.45025e+06
3.45366e+06
3.45232e+06
3.4531e+06
3.45209e+06
3.45191e+06
3.45089e+06
3.44993e+06
3.4487e+06
3.44732e+06
3.4472e+06
3.45358e+06
3.45234e+06
3.45317e+06
3.45228e+06
3.45227e+06
3.4515e+06
3.45092e+06
3.45018e+06
3.44968e+06
3.44971e+06
3.45411e+06
3.45304e+06
3.45382e+06
3.4531e+06
3.45319e+06
3.45265e+06
3.45231e+06
3.4519e+06
3.45165e+06
3.45166e+06
3.45494e+06
3.45416e+06
3.45484e+06
3.45431e+06
3.45448e+06
3.45413e+06
3.45396e+06
3.45376e+06
3.45365e+06
3.4537e+06
3.45603e+06
3.45556e+06
3.4561e+06
3.45575e+06
3.45594e+06
3.45573e+06
3.45565e+06
3.45559e+06
3.45554e+06
3.45559e+06
3.45728e+06
3.4571e+06
3.45749e+06
3.45731e+06
3.45748e+06
3.45738e+06
3.45736e+06
3.45738e+06
3.45736e+06
3.45743e+06
3.45872e+06
3.45874e+06
3.45898e+06
3.4589e+06
3.45903e+06
3.45899e+06
3.45902e+06
3.45909e+06
3.4591e+06
3.45917e+06
3.46014e+06
3.46032e+06
3.46046e+06
3.46045e+06
3.46056e+06
3.46055e+06
3.4606e+06
3.46071e+06
3.46073e+06
3.4608e+06
3.46164e+06
3.46184e+06
3.46191e+06
3.4619e+06
3.46202e+06
3.46201e+06
3.46207e+06
3.46221e+06
3.46223e+06
3.46231e+06
3.46308e+06
3.46318e+06
3.4633e+06
3.46323e+06
3.46336e+06
3.46334e+06
3.46341e+06
3.46358e+06
3.4636e+06
3.46369e+06
3.46448e+06
3.46437e+06
3.46456e+06
3.4644e+06
3.46454e+06
3.46451e+06
3.46459e+06
3.46478e+06
3.46481e+06
3.4649e+06
3.46565e+06
3.4653e+06
3.46561e+06
3.46536e+06
3.46552e+06
3.46549e+06
3.46558e+06
3.4658e+06
3.46584e+06
3.46592e+06
3.46654e+06
3.46599e+06
3.46641e+06
3.46608e+06
3.46626e+06
3.46624e+06
3.46634e+06
3.46661e+06
3.46665e+06
3.46674e+06
3.46704e+06
3.46639e+06
3.46687e+06
3.46654e+06
3.46671e+06
3.46674e+06
3.46685e+06
3.46718e+06
3.46723e+06
3.46732e+06
3.46715e+06
3.46653e+06
3.46695e+06
3.46669e+06
3.46684e+06
3.46696e+06
3.46707e+06
3.46748e+06
3.46754e+06
3.46764e+06
3.46669e+06
3.46632e+06
3.46661e+06
3.46652e+06
3.46662e+06
3.46687e+06
3.46697e+06
3.46748e+06
3.46755e+06
3.46766e+06
3.46572e+06
3.4658e+06
3.46584e+06
3.46601e+06
3.46601e+06
3.46643e+06
3.46654e+06
3.46715e+06
3.46724e+06
3.46735e+06
3.46421e+06
3.4649e+06
3.4646e+06
3.46511e+06
3.46501e+06
3.4656e+06
3.46572e+06
3.46645e+06
3.46657e+06
3.46668e+06
3.46227e+06
3.46364e+06
3.46291e+06
3.4638e+06
3.46357e+06
3.46436e+06
3.46451e+06
3.46534e+06
3.4655e+06
3.46562e+06
3.45984e+06
3.46192e+06
3.46076e+06
3.46204e+06
3.4617e+06
3.46264e+06
3.46284e+06
3.46378e+06
3.46398e+06
3.46411e+06
3.45703e+06
3.45971e+06
3.45818e+06
3.45976e+06
3.45934e+06
3.46042e+06
3.46069e+06
3.46172e+06
3.46198e+06
3.4621e+06
3.45387e+06
3.45694e+06
3.45515e+06
3.45691e+06
3.45648e+06
3.45762e+06
3.45799e+06
3.45909e+06
3.45942e+06
3.45955e+06
3.45052e+06
3.4536e+06
3.45168e+06
3.45345e+06
3.45305e+06
3.45419e+06
3.45468e+06
3.45584e+06
3.45623e+06
3.45636e+06
3.44668e+06
3.44946e+06
3.44769e+06
3.44928e+06
3.44901e+06
3.45006e+06
3.45069e+06
3.45187e+06
3.45233e+06
3.45247e+06
3.44244e+06
3.44456e+06
3.44313e+06
3.44435e+06
3.44427e+06
3.44515e+06
3.44593e+06
3.4471e+06
3.44762e+06
3.44777e+06
3.43762e+06
3.43877e+06
3.4379e+06
3.43862e+06
3.43877e+06
3.4394e+06
3.4403e+06
3.44141e+06
3.44198e+06
3.44215e+06
3.4322e+06
3.43219e+06
3.43197e+06
3.43208e+06
3.43248e+06
3.43276e+06
3.43374e+06
3.4347e+06
3.43529e+06
3.43549e+06
3.42611e+06
3.42494e+06
3.42538e+06
3.42483e+06
3.4254e+06
3.42522e+06
3.42617e+06
3.42684e+06
3.4274e+06
3.42764e+06
3.41957e+06
3.41736e+06
3.41833e+06
3.41707e+06
3.41766e+06
3.41685e+06
3.41758e+06
3.41769e+06
3.41816e+06
3.41845e+06
3.41298e+06
3.41e+06
3.41123e+06
3.40925e+06
3.40958e+06
3.40785e+06
3.40804e+06
3.40714e+06
3.40738e+06
3.40772e+06
3.40712e+06
3.40373e+06
3.4049e+06
3.4021e+06
3.40173e+06
3.39864e+06
3.39776e+06
3.39509e+06
3.39493e+06
3.39532e+06
3.40361e+06
3.40015e+06
3.4007e+06
3.39687e+06
3.39518e+06
3.39004e+06
3.38714e+06
3.38147e+06
3.38054e+06
3.38089e+06
3.40477e+06
3.40152e+06
3.40083e+06
3.39573e+06
3.39171e+06
3.38366e+06
3.37731e+06
3.36653e+06
3.36422e+06
3.36435e+06
3.41412e+06
3.41124e+06
3.40862e+06
3.40174e+06
3.39418e+06
3.38215e+06
3.36994e+06
3.35091e+06
3.34582e+06
3.34534e+06
3.43636e+06
3.43385e+06
3.42869e+06
3.41923e+06
3.40672e+06
3.38901e+06
3.36746e+06
3.33699e+06
3.32603e+06
3.32441e+06
3.47765e+06
3.47535e+06
3.46725e+06
3.45443e+06
3.43593e+06
3.41066e+06
3.37669e+06
3.33148e+06
3.30673e+06
3.30301e+06
3.54515e+06
3.54289e+06
3.53201e+06
3.51586e+06
3.49157e+06
3.45833e+06
3.41161e+06
3.347e+06
3.29321e+06
3.28701e+06
3.64331e+06
3.64103e+06
3.62832e+06
3.60942e+06
3.5799e+06
3.53908e+06
3.47903e+06
3.38825e+06
3.28728e+06
3.27703e+06
3.77254e+06
3.76992e+06
3.75595e+06
3.73439e+06
3.70066e+06
3.65142e+06
3.57437e+06
3.46227e+06
3.32898e+06
3.29038e+06
3.92358e+06
3.92213e+06
3.91265e+06
3.89754e+06
3.87324e+06
3.83187e+06
3.76478e+06
3.65588e+06
3.41013e+06
3.06678e+06
4.0955e+06
4.09599e+06
4.09393e+06
4.09228e+06
4.09042e+06
4.08681e+06
4.08838e+06
4.08397e+06
4.0039e+06
3.95298e+06
4.23876e+06
4.3647e+06
4.42615e+06
4.45547e+06
4.47199e+06
4.4815e+06
4.48744e+06
4.20502e+06
4.20594e+06
4.20582e+06
4.20698e+06
4.20855e+06
4.21107e+06
4.2179e+06
4.2276e+06
4.23847e+06
4.29139e+06
4.37656e+06
4.41438e+06
4.44511e+06
4.46322e+06
4.47539e+06
4.48314e+06
4.48829e+06
4.30683e+06
4.30791e+06
4.30889e+06
4.31166e+06
4.31544e+06
4.32074e+06
4.32906e+06
4.33825e+06
4.34713e+06
4.37176e+06
4.40935e+06
4.43597e+06
4.45603e+06
4.46943e+06
4.4787e+06
4.48497e+06
4.48931e+06
4.36457e+06
4.36559e+06
4.36687e+06
4.36986e+06
4.37392e+06
4.37965e+06
4.38731e+06
4.39705e+06
4.4093e+06
4.42544e+06
4.4422e+06
4.45589e+06
4.46732e+06
4.47592e+06
4.48241e+06
4.48714e+06
4.49058e+06
4.4104e+06
4.4112e+06
4.41207e+06
4.4142e+06
4.41701e+06
4.42094e+06
4.426e+06
4.43207e+06
4.43929e+06
4.44845e+06
4.45834e+06
4.46718e+06
4.47474e+06
4.48077e+06
4.48548e+06
4.48908e+06
4.49181e+06
4.43704e+06
4.43766e+06
4.4384e+06
4.44013e+06
4.44238e+06
4.44547e+06
4.44928e+06
4.45384e+06
4.45906e+06
4.46479e+06
4.47057e+06
4.47596e+06
4.48076e+06
4.48482e+06
4.48817e+06
4.49086e+06
4.49297e+06
4.45661e+06
4.457e+06
4.45746e+06
4.45859e+06
4.46003e+06
4.46203e+06
4.46447e+06
4.46737e+06
4.47067e+06
4.47432e+06
4.47808e+06
4.48169e+06
4.48499e+06
4.48787e+06
4.49032e+06
4.49234e+06
4.49399e+06
4.46867e+06
4.46894e+06
4.46927e+06
4.47012e+06
4.47118e+06
4.47263e+06
4.47436e+06
4.47641e+06
4.47867e+06
4.4811e+06
4.48357e+06
4.48599e+06
4.48824e+06
4.49029e+06
4.49207e+06
4.4936e+06
4.49488e+06
4.47726e+06
4.47751e+06
4.47772e+06
4.47828e+06
4.47898e+06
4.47994e+06
4.48109e+06
4.48245e+06
4.48398e+06
4.48563e+06
4.48734e+06
4.48903e+06
4.49064e+06
4.49213e+06
4.49347e+06
4.49464e+06
4.49564e+06
4.48296e+06
4.48316e+06
4.4833e+06
4.48372e+06
4.48421e+06
4.48491e+06
4.48572e+06
4.48669e+06
4.48776e+06
4.48892e+06
4.49012e+06
4.49132e+06
4.49249e+06
4.49359e+06
4.49459e+06
4.49549e+06
4.49628e+06
4.48711e+06
4.48726e+06
4.48735e+06
4.48764e+06
4.48797e+06
4.48845e+06
4.48902e+06
4.4897e+06
4.49046e+06
4.49129e+06
4.49215e+06
4.49303e+06
4.4939e+06
4.49473e+06
4.4955e+06
4.4962e+06
4.49682e+06
4.49736e+06
4.49783e+06
4.48999e+06
4.49012e+06
4.49018e+06
4.49039e+06
4.49063e+06
4.49099e+06
4.4914e+06
4.4919e+06
4.49245e+06
4.49306e+06
4.4937e+06
4.49435e+06
4.495e+06
4.49563e+06
4.49623e+06
4.49678e+06
4.49727e+06
4.49771e+06
4.4981e+06
4.49214e+06
4.49224e+06
4.49228e+06
4.49244e+06
4.49261e+06
4.49287e+06
4.49317e+06
4.49353e+06
4.49394e+06
4.49439e+06
4.49487e+06
4.49537e+06
4.49586e+06
4.49635e+06
4.49682e+06
4.49726e+06
4.49766e+06
4.49802e+06
4.49833e+06
4.49372e+06
4.4938e+06
4.49382e+06
4.49395e+06
4.49407e+06
4.49427e+06
4.49449e+06
4.49477e+06
4.49508e+06
4.49542e+06
4.49578e+06
4.49617e+06
4.49655e+06
4.49694e+06
4.49731e+06
4.49766e+06
4.49798e+06
4.49827e+06
4.49854e+06
4.49493e+06
4.49499e+06
4.495e+06
4.4951e+06
4.49519e+06
4.49534e+06
4.49551e+06
4.49572e+06
4.49595e+06
4.49622e+06
4.4965e+06
4.4968e+06
4.49711e+06
4.49741e+06
4.4977e+06
4.49799e+06
4.49825e+06
4.49849e+06
4.49871e+06
4.49584e+06
4.49589e+06
4.4959e+06
4.49598e+06
4.49605e+06
4.49617e+06
4.4963e+06
4.49646e+06
4.49664e+06
4.49685e+06
4.49708e+06
4.49731e+06
4.49755e+06
4.4978e+06
4.49804e+06
4.49827e+06
4.49848e+06
4.49868e+06
4.49887e+06
4.49656e+06
4.4966e+06
4.49661e+06
4.49667e+06
4.49673e+06
4.49682e+06
4.49692e+06
4.49705e+06
4.49719e+06
4.49736e+06
4.49754e+06
4.49773e+06
4.49792e+06
4.49812e+06
4.49831e+06
4.4985e+06
4.49868e+06
4.49885e+06
4.499e+06
4.49713e+06
4.49716e+06
4.49717e+06
4.49722e+06
4.49726e+06
4.49733e+06
4.49742e+06
4.49752e+06
4.49764e+06
4.49777e+06
4.49791e+06
4.49806e+06
4.49822e+06
4.49838e+06
4.49854e+06
4.4987e+06
4.49885e+06
4.49899e+06
4.49912e+06
4.49758e+06
4.49761e+06
4.49762e+06
4.49766e+06
4.49769e+06
4.49775e+06
4.49782e+06
4.4979e+06
4.498e+06
4.4981e+06
4.49822e+06
4.49834e+06
4.49847e+06
4.49861e+06
4.49874e+06
4.49887e+06
4.49899e+06
4.49911e+06
4.49922e+06
4.49795e+06
4.49798e+06
4.49798e+06
4.49801e+06
4.49804e+06
4.49809e+06
4.49815e+06
4.49821e+06
4.49829e+06
4.49838e+06
4.49848e+06
4.49858e+06
4.49869e+06
4.4988e+06
4.49891e+06
4.49901e+06
4.49912e+06
4.49922e+06
4.49931e+06
4.49825e+06
4.49827e+06
4.49828e+06
4.49831e+06
4.49833e+06
4.49837e+06
4.49842e+06
4.49847e+06
4.49854e+06
4.49861e+06
4.49869e+06
4.49877e+06
4.49886e+06
4.49896e+06
4.49905e+06
4.49914e+06
4.49923e+06
4.49931e+06
4.49939e+06
4.49851e+06
4.49852e+06
4.49853e+06
4.49855e+06
4.49857e+06
4.49861e+06
4.49864e+06
4.49869e+06
4.49874e+06
4.4988e+06
4.49887e+06
4.49894e+06
4.49901e+06
4.49909e+06
4.49917e+06
4.49925e+06
4.49932e+06
4.49939e+06
4.49946e+06
4.49872e+06
4.49873e+06
4.49873e+06
4.49875e+06
4.49877e+06
4.4988e+06
4.49883e+06
4.49887e+06
4.49891e+06
4.49897e+06
4.49902e+06
4.49908e+06
4.49914e+06
4.49921e+06
4.49927e+06
4.49934e+06
4.4994e+06
4.49946e+06
4.49952e+06
4.49889e+06
4.49891e+06
4.49891e+06
4.49892e+06
4.49894e+06
4.49896e+06
4.49899e+06
4.49902e+06
4.49906e+06
4.4991e+06
4.49915e+06
4.4992e+06
4.49925e+06
4.49931e+06
4.49936e+06
4.49942e+06
4.49947e+06
4.49953e+06
4.49957e+06
4.49904e+06
4.49905e+06
4.49906e+06
4.49907e+06
4.49908e+06
4.4991e+06
4.49913e+06
4.49915e+06
4.49919e+06
4.49922e+06
4.49926e+06
4.4993e+06
4.49935e+06
4.4994e+06
4.49944e+06
4.49949e+06
4.49954e+06
4.49958e+06
4.49962e+06
4.49917e+06
4.49918e+06
4.49918e+06
4.49919e+06
4.4992e+06
4.49922e+06
4.49924e+06
4.49927e+06
4.49929e+06
4.49932e+06
4.49936e+06
4.49939e+06
4.49943e+06
4.49947e+06
4.49951e+06
4.49955e+06
4.49959e+06
4.49963e+06
4.49967e+06
4.49928e+06
4.49929e+06
4.49929e+06
4.4993e+06
4.49931e+06
4.49932e+06
4.49934e+06
4.49936e+06
4.49939e+06
4.49941e+06
4.49944e+06
4.49947e+06
4.4995e+06
4.49954e+06
4.49957e+06
4.49961e+06
4.49964e+06
4.49967e+06
4.4997e+06
4.49938e+06
4.49939e+06
4.49938e+06
4.49939e+06
4.4994e+06
4.49941e+06
4.49943e+06
4.49945e+06
4.49947e+06
4.49949e+06
4.49951e+06
4.49954e+06
4.49957e+06
4.4996e+06
4.49963e+06
4.49966e+06
4.49968e+06
4.49971e+06
4.49974e+06
4.49946e+06
4.49947e+06
4.49947e+06
4.49947e+06
4.49948e+06
4.49949e+06
4.4995e+06
4.49952e+06
4.49954e+06
4.49956e+06
4.49958e+06
4.4996e+06
4.49962e+06
4.49965e+06
4.49967e+06
4.4997e+06
4.49972e+06
4.49975e+06
4.49977e+06
4.49954e+06
4.49954e+06
4.49954e+06
4.49955e+06
4.49955e+06
4.49956e+06
4.49957e+06
4.49959e+06
4.4996e+06
4.49962e+06
4.49963e+06
4.49965e+06
4.49967e+06
4.4997e+06
4.49972e+06
4.49974e+06
4.49976e+06
4.49978e+06
4.4998e+06
4.4996e+06
4.49961e+06
4.4996e+06
4.49961e+06
4.49961e+06
4.49962e+06
4.49963e+06
4.49964e+06
4.49966e+06
4.49967e+06
4.49969e+06
4.4997e+06
4.49972e+06
4.49974e+06
4.49975e+06
4.49977e+06
4.49979e+06
4.49981e+06
4.49982e+06
4.49966e+06
4.49966e+06
4.49966e+06
4.49967e+06
4.49967e+06
4.49968e+06
4.49969e+06
4.49969e+06
4.49971e+06
4.49972e+06
4.49973e+06
4.49974e+06
4.49976e+06
4.49977e+06
4.49979e+06
4.4998e+06
4.49982e+06
4.49983e+06
4.49985e+06
4.49971e+06
4.49971e+06
4.49971e+06
4.49972e+06
4.49972e+06
4.49973e+06
4.49973e+06
4.49974e+06
4.49975e+06
4.49976e+06
4.49977e+06
4.49978e+06
4.4998e+06
4.49981e+06
4.49982e+06
4.49983e+06
4.49985e+06
4.49986e+06
4.49987e+06
4.49976e+06
4.49976e+06
4.49976e+06
4.49976e+06
4.49977e+06
4.49977e+06
4.49978e+06
4.49978e+06
4.49979e+06
4.4998e+06
4.49981e+06
4.49982e+06
4.49983e+06
4.49984e+06
4.49985e+06
4.49986e+06
4.49987e+06
4.49988e+06
4.49989e+06
4.4998e+06
4.4998e+06
4.4998e+06
4.49981e+06
4.49981e+06
4.49981e+06
4.49982e+06
4.49982e+06
4.49983e+06
4.49984e+06
4.49984e+06
4.49985e+06
4.49986e+06
4.49987e+06
4.49988e+06
4.49988e+06
4.49989e+06
4.4999e+06
4.49991e+06
4.49984e+06
4.49984e+06
4.49985e+06
4.49985e+06
4.49985e+06
4.49985e+06
4.49986e+06
4.49986e+06
4.49986e+06
4.49987e+06
4.49987e+06
4.49988e+06
4.49989e+06
4.49989e+06
4.4999e+06
4.49991e+06
4.49991e+06
4.49992e+06
4.49993e+06
4.49987e+06
4.49988e+06
4.49988e+06
4.49988e+06
4.49988e+06
4.49989e+06
4.49989e+06
4.49989e+06
4.4999e+06
4.4999e+06
4.4999e+06
4.49991e+06
4.49991e+06
4.49992e+06
4.49992e+06
4.49993e+06
4.49993e+06
4.49994e+06
4.49994e+06
4.49992e+06
4.49992e+06
4.49992e+06
4.49992e+06
4.49992e+06
4.49992e+06
4.49993e+06
4.49993e+06
4.49993e+06
4.49993e+06
4.49993e+06
4.49994e+06
4.49994e+06
4.49994e+06
4.49995e+06
4.49995e+06
4.49995e+06
4.49996e+06
4.49996e+06
4.49994e+06
4.49994e+06
4.49994e+06
4.49994e+06
4.49995e+06
4.49995e+06
4.49995e+06
4.49995e+06
4.49995e+06
4.49996e+06
4.49996e+06
4.49996e+06
4.49996e+06
4.49997e+06
4.49997e+06
4.49997e+06
4.49997e+06
4.49997e+06
4.49998e+06
4.49999e+06
4.49999e+06
4.49999e+06
4.5e+06
4.49999e+06
4.49999e+06
4.49999e+06
4.49999e+06
4.49999e+06
4.5e+06
4.5e+06
4.5e+06
4.5e+06
4.5e+06
4.5e+06
4.5e+06
4.5e+06
4.5e+06
4.5e+06
3.45884e+06
3.46514e+06
3.46048e+06
3.46407e+06
3.46393e+06
3.45544e+06
3.46363e+06
3.44683e+06
3.47275e+06
3.47321e+06
3.47414e+06
3.47268e+06
3.47387e+06
3.46202e+06
3.47061e+06
3.44915e+06
3.44087e+06
3.43209e+06
3.46744e+06
3.47678e+06
3.48455e+06
3.48562e+06
3.48741e+06
3.49531e+06
3.48815e+06
3.49548e+06
3.4878e+06
3.48972e+06
3.47607e+06
3.48151e+06
3.46001e+06
3.45355e+06
3.44214e+06
3.47244e+06
3.482e+06
3.48848e+06
3.48955e+06
3.49054e+06
3.52462e+06
3.51018e+06
3.52346e+06
3.51034e+06
3.51295e+06
3.49961e+06
3.5005e+06
3.48402e+06
3.47728e+06
3.46116e+06
3.48209e+06
3.49068e+06
3.4943e+06
3.49481e+06
3.49449e+06
3.55813e+06
3.53896e+06
3.55619e+06
3.53978e+06
3.54331e+06
3.53232e+06
3.52919e+06
3.52218e+06
3.51369e+06
3.48892e+06
3.49668e+06
3.50263e+06
3.50197e+06
3.50133e+06
3.49921e+06
3.59241e+06
3.57101e+06
3.58973e+06
3.57312e+06
3.5774e+06
3.57078e+06
3.56533e+06
3.56893e+06
3.55739e+06
3.52305e+06
3.51361e+06
3.51685e+06
3.5109e+06
3.5088e+06
3.50456e+06
3.62388e+06
3.60345e+06
3.621e+06
3.60658e+06
3.61034e+06
3.60906e+06
3.60118e+06
3.61619e+06
3.5979e+06
3.55885e+06
3.5283e+06
3.53166e+06
3.52008e+06
3.51677e+06
3.5103e+06
3.65e+06
3.63334e+06
3.64735e+06
3.63626e+06
3.63785e+06
3.63956e+06
3.62766e+06
3.65252e+06
3.62204e+06
3.59062e+06
3.54054e+06
3.546e+06
3.52929e+06
3.52496e+06
3.5163e+06
3.67113e+06
3.66232e+06
3.66911e+06
3.66218e+06
3.66032e+06
3.6608e+06
3.64664e+06
3.67002e+06
3.6295e+06
3.61304e+06
3.55531e+06
3.5595e+06
3.53945e+06
3.5333e+06
3.52266e+06
3.68971e+06
3.69385e+06
3.68893e+06
3.68845e+06
3.68318e+06
3.68221e+06
3.67262e+06
3.68242e+06
3.65421e+06
3.64117e+06
3.58237e+06
3.57416e+06
3.55233e+06
3.54191e+06
3.52953e+06
3.70634e+06
3.72331e+06
3.70721e+06
3.71428e+06
3.70793e+06
3.70949e+06
3.70949e+06
3.71124e+06
3.71053e+06
3.69309e+06
3.62621e+06
3.59118e+06
3.5687e+06
3.55079e+06
3.53689e+06
3.71915e+06
3.74152e+06
3.72124e+06
3.73265e+06
3.72773e+06
3.73298e+06
3.74144e+06
3.74442e+06
3.76166e+06
3.73862e+06
3.67502e+06
3.60441e+06
3.58489e+06
3.5586e+06
3.54387e+06
3.72648e+06
3.74561e+06
3.7283e+06
3.73958e+06
3.73668e+06
3.74297e+06
3.75432e+06
3.75621e+06
3.7786e+06
3.75284e+06
3.71156e+06
3.61242e+06
3.59694e+06
3.5645e+06
3.54953e+06
3.72815e+06
3.74122e+06
3.72935e+06
3.73762e+06
3.73601e+06
3.74137e+06
3.75042e+06
3.75022e+06
3.76749e+06
3.74774e+06
3.72438e+06
3.62822e+06
3.60258e+06
3.56999e+06
3.55337e+06
3.7233e+06
3.73059e+06
3.72453e+06
3.72986e+06
3.72919e+06
3.7334e+06
3.73915e+06
3.73918e+06
3.74872e+06
3.73707e+06
3.7236e+06
3.65109e+06
3.60369e+06
3.57568e+06
3.55547e+06
3.71332e+06
3.71713e+06
3.7153e+06
3.71834e+06
3.7182e+06
3.72131e+06
3.72463e+06
3.72502e+06
3.72967e+06
3.72302e+06
3.71442e+06
3.66307e+06
3.60342e+06
3.57847e+06
3.55594e+06
3.70016e+06
3.70251e+06
3.70284e+06
3.7046e+06
3.70468e+06
3.70714e+06
3.70882e+06
3.70962e+06
3.71113e+06
3.70788e+06
3.70128e+06
3.66474e+06
3.60439e+06
3.57821e+06
3.5554e+06
3.6879e+06
3.68796e+06
3.68821e+06
3.68951e+06
3.68953e+06
3.69194e+06
3.6929e+06
3.69444e+06
3.69438e+06
3.69347e+06
3.68733e+06
3.66093e+06
3.60494e+06
3.57577e+06
3.55374e+06
3.67146e+06
3.67237e+06
3.67159e+06
3.67321e+06
3.67313e+06
3.6759e+06
3.6769e+06
3.67959e+06
3.67921e+06
3.67987e+06
3.67316e+06
3.65368e+06
3.60286e+06
3.57143e+06
3.55057e+06
3.65363e+06
3.6552e+06
3.65329e+06
3.65533e+06
3.65528e+06
3.65851e+06
3.65989e+06
3.66388e+06
3.66359e+06
3.66555e+06
3.65769e+06
3.64311e+06
3.59705e+06
3.56507e+06
3.54567e+06
3.6345e+06
3.63532e+06
3.63339e+06
3.6353e+06
3.63561e+06
3.63897e+06
3.64054e+06
3.64535e+06
3.64458e+06
3.64802e+06
3.63894e+06
3.62842e+06
3.5872e+06
3.5563e+06
3.53893e+06
3.61422e+06
3.61314e+06
3.61253e+06
3.61334e+06
3.61418e+06
3.61687e+06
3.61807e+06
3.62244e+06
3.62026e+06
3.62503e+06
3.61555e+06
3.60879e+06
3.57374e+06
3.5451e+06
3.5305e+06
3.59281e+06
3.58895e+06
3.59089e+06
3.59024e+06
3.59168e+06
3.5929e+06
3.5932e+06
3.59569e+06
3.59187e+06
3.59674e+06
3.58848e+06
3.58483e+06
3.55768e+06
3.53218e+06
3.52087e+06
3.57135e+06
3.56548e+06
3.56964e+06
3.56755e+06
3.56926e+06
3.56876e+06
3.56794e+06
3.56786e+06
3.56315e+06
3.5666e+06
3.56082e+06
3.55934e+06
3.54022e+06
3.51895e+06
3.51073e+06
3.55081e+06
3.54454e+06
3.54965e+06
3.5467e+06
3.54821e+06
3.54636e+06
3.54456e+06
3.5423e+06
3.53766e+06
3.5391e+06
3.53614e+06
3.53596e+06
3.52316e+06
3.50683e+06
3.50092e+06
3.53314e+06
3.52704e+06
3.53163e+06
3.52858e+06
3.52952e+06
3.52694e+06
3.52456e+06
3.5211e+06
3.51717e+06
3.51708e+06
3.51632e+06
3.51666e+06
3.50825e+06
3.49645e+06
3.4922e+06
3.51655e+06
3.51261e+06
3.51593e+06
3.51342e+06
3.51367e+06
3.51095e+06
3.50841e+06
3.50466e+06
3.50171e+06
3.50085e+06
3.50138e+06
3.50161e+06
3.49619e+06
3.50254e+06
3.5009e+06
3.50267e+06
3.50096e+06
3.50063e+06
3.49815e+06
3.49579e+06
3.49233e+06
3.49033e+06
3.4892e+06
3.49036e+06
3.49023e+06
3.48683e+06
3.49107e+06
3.49126e+06
3.49171e+06
3.49078e+06
3.49006e+06
3.48798e+06
3.486e+06
3.48305e+06
3.48185e+06
3.48068e+06
3.48203e+06
3.48156e+06
3.47947e+06
3.48231e+06
3.48326e+06
3.48277e+06
3.4824e+06
3.48151e+06
3.47983e+06
3.47828e+06
3.47584e+06
3.47524e+06
3.47413e+06
3.47548e+06
3.47481e+06
3.47358e+06
3.47509e+06
3.47638e+06
3.47556e+06
3.47543e+06
3.47456e+06
3.47318e+06
3.47201e+06
3.46997e+06
3.46976e+06
3.46863e+06
3.46991e+06
3.46921e+06
3.46855e+06
3.46942e+06
3.47048e+06
3.46973e+06
3.46958e+06
3.46882e+06
3.46767e+06
3.46677e+06
3.46503e+06
3.46509e+06
3.46394e+06
3.46527e+06
3.46456e+06
3.46445e+06
3.46485e+06
3.46539e+06
3.46495e+06
3.46467e+06
3.46405e+06
3.46303e+06
3.46228e+06
3.46076e+06
3.46089e+06
3.45964e+06
3.46092e+06
3.46035e+06
3.46065e+06
3.46134e+06
3.46118e+06
3.46107e+06
3.46058e+06
3.4601e+06
3.45917e+06
3.45845e+06
3.45717e+06
3.45731e+06
3.45616e+06
3.45757e+06
3.45706e+06
3.45789e+06
3.45835e+06
3.45769e+06
3.45793e+06
3.45726e+06
3.45689e+06
3.45601e+06
3.45524e+06
3.45417e+06
3.45402e+06
3.45289e+06
3.45383e+06
3.45397e+06
3.45471e+06
3.45602e+06
3.45501e+06
3.4555e+06
3.45463e+06
3.45432e+06
3.45337e+06
3.45248e+06
3.45161e+06
3.45117e+06
3.45065e+06
3.45182e+06
3.45235e+06
3.45338e+06
3.45435e+06
3.45312e+06
3.45378e+06
3.45277e+06
3.45246e+06
3.45134e+06
3.45016e+06
3.44883e+06
3.44713e+06
3.44671e+06
3.4465e+06
3.44886e+06
3.45025e+06
3.45366e+06
3.45232e+06
3.4531e+06
3.45209e+06
3.45191e+06
3.45089e+06
3.44993e+06
3.4487e+06
3.44732e+06
3.4472e+06
3.45358e+06
3.45234e+06
3.45317e+06
3.45228e+06
3.45227e+06
3.4515e+06
3.45092e+06
3.45018e+06
3.44968e+06
3.44971e+06
3.45411e+06
3.45304e+06
3.45382e+06
3.4531e+06
3.45319e+06
3.45265e+06
3.45231e+06
3.4519e+06
3.45165e+06
3.45166e+06
3.45494e+06
3.45416e+06
3.45484e+06
3.45431e+06
3.45448e+06
3.45413e+06
3.45396e+06
3.45376e+06
3.45365e+06
3.4537e+06
3.45603e+06
3.45556e+06
3.4561e+06
3.45575e+06
3.45594e+06
3.45573e+06
3.45565e+06
3.45559e+06
3.45554e+06
3.45559e+06
3.45728e+06
3.4571e+06
3.45749e+06
3.45731e+06
3.45748e+06
3.45738e+06
3.45736e+06
3.45738e+06
3.45736e+06
3.45743e+06
3.45872e+06
3.45874e+06
3.45898e+06
3.4589e+06
3.45903e+06
3.45899e+06
3.45902e+06
3.45909e+06
3.4591e+06
3.45917e+06
3.46014e+06
3.46032e+06
3.46046e+06
3.46045e+06
3.46056e+06
3.46055e+06
3.4606e+06
3.46071e+06
3.46073e+06
3.4608e+06
3.46164e+06
3.46184e+06
3.46191e+06
3.4619e+06
3.46202e+06
3.46201e+06
3.46207e+06
3.46221e+06
3.46223e+06
3.46231e+06
3.46308e+06
3.46318e+06
3.4633e+06
3.46323e+06
3.46336e+06
3.46334e+06
3.46341e+06
3.46358e+06
3.4636e+06
3.46369e+06
3.46448e+06
3.46437e+06
3.46456e+06
3.4644e+06
3.46454e+06
3.46451e+06
3.46459e+06
3.46478e+06
3.46481e+06
3.4649e+06
3.46565e+06
3.4653e+06
3.46561e+06
3.46536e+06
3.46552e+06
3.46549e+06
3.46558e+06
3.4658e+06
3.46584e+06
3.46592e+06
3.46654e+06
3.46599e+06
3.46641e+06
3.46608e+06
3.46626e+06
3.46624e+06
3.46634e+06
3.46661e+06
3.46665e+06
3.46674e+06
3.46704e+06
3.46639e+06
3.46687e+06
3.46654e+06
3.46671e+06
3.46674e+06
3.46685e+06
3.46718e+06
3.46723e+06
3.46732e+06
3.46715e+06
3.46653e+06
3.46695e+06
3.46669e+06
3.46684e+06
3.46696e+06
3.46707e+06
3.46748e+06
3.46754e+06
3.46764e+06
3.46669e+06
3.46632e+06
3.46661e+06
3.46652e+06
3.46662e+06
3.46687e+06
3.46697e+06
3.46748e+06
3.46755e+06
3.46766e+06
3.46572e+06
3.4658e+06
3.46584e+06
3.46601e+06
3.46601e+06
3.46643e+06
3.46654e+06
3.46715e+06
3.46724e+06
3.46735e+06
3.46421e+06
3.4649e+06
3.4646e+06
3.46511e+06
3.46501e+06
3.4656e+06
3.46572e+06
3.46645e+06
3.46657e+06
3.46668e+06
3.46227e+06
3.46364e+06
3.46291e+06
3.4638e+06
3.46357e+06
3.46436e+06
3.46451e+06
3.46534e+06
3.4655e+06
3.46562e+06
3.45984e+06
3.46192e+06
3.46076e+06
3.46204e+06
3.4617e+06
3.46264e+06
3.46284e+06
3.46378e+06
3.46398e+06
3.46411e+06
3.45703e+06
3.45971e+06
3.45818e+06
3.45976e+06
3.45934e+06
3.46042e+06
3.46069e+06
3.46172e+06
3.46198e+06
3.4621e+06
3.45387e+06
3.45694e+06
3.45515e+06
3.45691e+06
3.45648e+06
3.45762e+06
3.45799e+06
3.45909e+06
3.45942e+06
3.45955e+06
3.45052e+06
3.4536e+06
3.45168e+06
3.45345e+06
3.45305e+06
3.45419e+06
3.45468e+06
3.45584e+06
3.45623e+06
3.45636e+06
3.44668e+06
3.44946e+06
3.44769e+06
3.44928e+06
3.44901e+06
3.45006e+06
3.45069e+06
3.45187e+06
3.45233e+06
3.45247e+06
3.44244e+06
3.44456e+06
3.44313e+06
3.44435e+06
3.44427e+06
3.44515e+06
3.44593e+06
3.4471e+06
3.44762e+06
3.44777e+06
3.43762e+06
3.43877e+06
3.4379e+06
3.43862e+06
3.43877e+06
3.4394e+06
3.4403e+06
3.44141e+06
3.44198e+06
3.44215e+06
3.4322e+06
3.43219e+06
3.43197e+06