/*--------------------------------*- C++ -*----------------------------------*\
| =========                 |                                                 |
| \\      /  F ield         | OpenFOAM: The Open Source CFD Toolbox           |
|  \\    /   O peration     | Version:  v2012                                 |
|   \\  /    A nd           | Website:  www.openfoam.com                      |
|    \\/     M anipulation  |                                                 |
\*---------------------------------------------------------------------------*/
FoamFile
{
    version     2.0;
    format      ascii;
    class       surfaceScalarField;
    location    "0.95";
    object      phi;
}
// * * * * * * * * * * * * * * * * * * * * * * * * * * * * * * * * * * * * * //

dimensions      [0 3 -1 0 0 0 0];
oriented        oriented;


internalField   nonuniform List<scalar> 
6514
(
7.30311e-11
-1.71085e-10
-1.43468e-18
7.56566e-11
-1.73717e-10
-1.51184e-17
7.77478e-11
-1.75322e-10
-2.16206e-17
7.92663e-11
-1.75883e-10
-1.96297e-17
8.01865e-11
-1.75388e-10
-1.15959e-17
8.04946e-11
-1.73893e-10
-7.80689e-18
8.01899e-11
-1.71405e-10
-4.69672e-18
7.92843e-11
-1.68001e-10
6.54374e-18
7.78027e-11
-1.63749e-10
1.17285e-17
7.5781e-11
-1.58728e-10
8.94402e-18
7.32646e-11
-1.53031e-10
-1.62707e-17
7.03085e-11
-1.46756e-10
-5.00292e-17
6.69724e-11
-1.40003e-10
-6.34422e-17
6.33192e-11
-1.32862e-10
-4.84459e-17
5.94127e-11
-1.2542e-10
1.0603e-17
5.5314e-11
-1.17752e-10
8.67749e-17
5.10858e-11
-1.09907e-10
1.20802e-16
4.67874e-11
-1.02017e-10
1.11711e-16
4.24824e-11
-9.40795e-11
2.50536e-17
3.82283e-11
-8.62072e-11
-9.98169e-17
3.40786e-11
-7.83907e-11
-1.79826e-16
3.0073e-11
-7.06346e-11
-2.35726e-16
2.62376e-11
-6.29645e-11
-2.1492e-16
2.25984e-11
-5.53161e-11
-1.39392e-16
1.91815e-11
-4.77568e-11
-6.74454e-17
1.60185e-11
-4.03052e-11
5.61534e-17
1.31304e-11
-3.29818e-11
6.91979e-17
1.05275e-11
-2.57959e-11
2.9026e-17
8.21657e-12
-1.87588e-11
2.39718e-18
6.20069e-12
-1.1943e-11
-7.15887e-18
4.48031e-12
-5.46254e-12
-8.92906e-18
3.05336e-12
5.01119e-13
-7.1365e-18
1.91412e-12
5.66335e-12
-6.13932e-18
1.05292e-12
9.591e-12
-5.69984e-18
4.56776e-13
1.16295e-11
-5.35437e-18
1.10357e-13
1.07837e-11
-5.01882e-18
5.57493e-12
-4.37588e-18
7.66744e-11
-1.74124e-10
4.34747e-18
7.9179e-11
-1.76221e-10
-6.18628e-18
8.11008e-11
-1.77244e-10
-1.25043e-17
8.24055e-11
-1.77188e-10
-1.29245e-17
8.30736e-11
-1.76056e-10
-1.1283e-17
8.30982e-11
-1.73916e-10
-1.36857e-17
8.24866e-11
-1.70792e-10
-1.16264e-17
8.12583e-11
-1.66772e-10
2.79655e-18
7.94464e-11
-1.61938e-10
1.5498e-17
7.7094e-11
-1.56378e-10
2.02499e-17
7.42543e-11
-1.50196e-10
-3.27181e-18
7.09891e-11
-1.43492e-10
-4.62655e-17
6.7365e-11
-1.36375e-10
-7.89269e-17
6.34502e-11
-1.28937e-10
-7.92003e-17
5.93115e-11
-1.21269e-10
-1.87647e-17
5.50108e-11
-1.13448e-10
8.02647e-17
5.06101e-11
-1.05519e-10
1.53589e-16
4.61673e-11
-9.76037e-11
1.69566e-16
4.17471e-11
-8.96916e-11
8.01928e-17
3.74089e-11
-8.18813e-11
-7.64391e-17
3.32076e-11
-7.41638e-11
-2.08337e-16
2.91806e-11
-6.65508e-11
-2.98041e-16
2.5347e-11
-5.90735e-11
-2.93018e-16
2.17254e-11
-5.16674e-11
-2.21533e-16
1.83385e-11
-4.43784e-11
-1.34192e-16
1.52203e-11
-3.72047e-11
7.23179e-17
1.23918e-11
-3.01624e-11
1.14378e-16
9.86024e-12
-2.32643e-11
5.29426e-17
7.62897e-12
-1.6524e-11
7.72959e-19
5.69832e-12
-1.00098e-11
-1.71904e-17
4.06662e-12
-3.83026e-12
-1.53215e-17
2.72966e-12
1.83755e-12
-8.1609e-18
1.67905e-12
6.71333e-12
-4.43344e-18
9.01378e-13
1.03683e-11
-3.76486e-18
3.78346e-13
1.21523e-11
-4.08899e-18
8.65721e-14
1.10752e-11
-4.34292e-18
5.66115e-12
-3.88352e-18
8.0463e-11
-1.77062e-10
4.62764e-18
8.2812e-11
-1.78569e-10
-5.45698e-18
8.45278e-11
-1.7896e-10
-1.26848e-17
8.55817e-11
-1.78243e-10
-1.3333e-17
8.5961e-11
-1.76436e-10
-1.37151e-17
8.56671e-11
-1.73622e-10
-1.84458e-17
8.47161e-11
-1.69839e-10
-1.7055e-17
8.31365e-11
-1.65191e-10
-1.24105e-18
8.097e-11
-1.59772e-10
1.63154e-17
7.82679e-11
-1.53679e-10
2.78623e-17
7.50907e-11
-1.47023e-10
8.50566e-18
7.15072e-11
-1.39912e-10
-3.72803e-17
6.75897e-11
-1.32455e-10
-8.17961e-17
6.34115e-11
-1.24748e-10
-9.53425e-17
5.90423e-11
-1.16885e-10
-4.05671e-17
5.45451e-11
-1.08944e-10
6.63971e-17
4.99811e-11
-1.00967e-10
1.61668e-16
4.54067e-11
-9.30618e-11
1.97205e-16
4.08857e-11
-8.52084e-11
1.14759e-16
3.64773e-11
-7.74902e-11
-5.14473e-17
3.22359e-11
-6.98971e-11
-2.08091e-16
2.8197e-11
-6.24488e-11
-3.16927e-16
2.43749e-11
-5.51845e-11
-3.25063e-16
2.07822e-11
-4.80416e-11
-2.64888e-16
1.74383e-11
-4.10427e-11
-1.76463e-16
1.43765e-11
-3.41632e-11
7.8103e-17
1.16168e-11
-2.74138e-11
1.40529e-16
9.16404e-12
-2.0812e-11
6.84914e-17
7.01878e-12
-1.43747e-11
4.31893e-19
5.17884e-12
-8.1667e-12
-2.36985e-17
3.64046e-12
-2.29109e-12
-1.98539e-17
2.39726e-12
3.08018e-12
-8.96304e-18
1.43822e-12
7.67161e-12
-3.04634e-18
7.46356e-13
1.10597e-11
-2.00337e-18
2.98138e-13
1.26003e-11
-2.78522e-18
6.22139e-14
1.13109e-11
-3.5697e-18
5.72312e-12
-3.4016e-18
8.43918e-11
-1.79862e-10
5.69764e-18
8.65458e-11
-1.80723e-10
-4.08441e-18
8.80149e-11
-1.80429e-10
-1.02719e-17
8.87771e-11
-1.79006e-10
-9.16668e-18
8.88283e-11
-1.76487e-10
-9.89967e-18
8.81789e-11
-1.72972e-10
-1.65305e-17
8.6855e-11
-1.68514e-10
-1.75106e-17
8.48951e-11
-1.6323e-10
-3.89588e-18
8.23502e-11
-1.57226e-10
1.45633e-17
7.92804e-11
-1.50612e-10
3.01171e-17
7.57535e-11
-1.43501e-10
1.71312e-17
7.18445e-11
-1.36007e-10
-2.41105e-17
6.76309e-11
-1.2824e-10
-7.1438e-17
6.31898e-11
-1.20298e-10
-9.44035e-17
5.85941e-11
-1.12275e-10
-5.26985e-17
5.39078e-11
-1.04249e-10
4.42952e-17
4.9192e-11
-9.62583e-11
1.41952e-16
4.4501e-11
-8.83992e-11
1.88703e-16
3.98957e-11
-8.06393e-11
1.23966e-16
3.54328e-11
-7.30467e-11
-2.55601e-17
3.11643e-11
-6.5609e-11
-1.77231e-16
2.71236e-11
-5.83516e-11
-2.86687e-16
2.33227e-11
-5.13209e-11
-3.04283e-16
1.97707e-11
-4.4457e-11
-2.61547e-16
1.6483e-11
-3.77619e-11
-1.8708e-16
1.34896e-11
-3.11891e-11
7.04284e-17
1.08081e-11
-2.47435e-11
1.42934e-16
8.44147e-12
-1.84462e-11
7.34179e-17
6.38828e-12
-1.23177e-11
1.32667e-18
4.64424e-12
-6.41951e-12
-2.60367e-17
3.2035e-12
-8.49461e-13
-2.21228e-17
2.05751e-12
4.22564e-12
-9.5487e-18
1.19265e-12
8.53568e-12
-2.18367e-18
5.88508e-13
1.16633e-11
-6.26432e-19
2.16497e-13
1.29721e-11
-1.57672e-18
3.73872e-14
1.14898e-11
-2.71476e-18
5.76033e-12
-2.8053e-18
8.84527e-11
-1.82482e-10
3.02487e-18
9.03671e-11
-1.82636e-10
-6.22735e-18
9.15442e-11
-1.81606e-10
-1.21442e-17
9.19704e-11
-1.79434e-10
-9.75756e-18
9.16512e-11
-1.76169e-10
-9.21448e-18
9.06077e-11
-1.71929e-10
-1.45014e-17
8.88768e-11
-1.66782e-10
-1.64491e-17
8.65077e-11
-1.6086e-10
-6.29542e-18
8.35617e-11
-1.5428e-10
9.11981e-18
8.01077e-11
-1.47159e-10
2.52321e-17
7.62209e-11
-1.39619e-10
1.9735e-17
7.19819e-11
-1.31772e-10
-9.9955e-18
6.74723e-11
-1.23731e-10
-5.07652e-17
6.27722e-11
-1.15592e-10
-7.75137e-17
5.79568e-11
-1.07449e-10
-5.3947e-17
5.30915e-11
-9.93744e-11
1.75165e-17
4.82373e-11
-9.14061e-11
9.87864e-17
4.34462e-11
-8.36272e-11
1.46942e-16
3.87749e-11
-7.59958e-11
1.07888e-16
3.42749e-11
-6.85652e-11
-1.54683e-18
2.99936e-11
-6.13179e-11
-1.20447e-16
2.59625e-11
-5.42814e-11
-2.11832e-16
2.21933e-11
-4.75051e-11
-2.33841e-16
1.86939e-11
-4.09321e-11
-2.12627e-16
1.54758e-11
-3.45485e-11
-1.65393e-16
1.25627e-11
-2.82912e-11
5.09918e-17
9.96859e-12
-2.21588e-11
1.21517e-16
7.69532e-12
-1.61739e-11
6.68339e-17
5.74005e-12
-1.03593e-11
2.88554e-18
4.09676e-12
-4.77345e-12
-2.40608e-17
2.75762e-12
4.90572e-13
-2.17077e-17
1.71187e-12
5.27096e-12
-9.70035e-18
9.43414e-13
9.30339e-12
-1.90258e-18
4.28553e-13
1.21777e-11
1.65024e-19
1.33804e-13
1.32666e-11
-6.58907e-19
1.22101e-14
1.16113e-11
-1.92821e-18
5.77239e-12
-2.21864e-18
9.26334e-11
-1.84873e-10
4.02663e-18
9.42583e-11
-1.8426e-10
-6.80544e-18
9.50934e-11
-1.82441e-10
-1.34854e-17
9.51355e-11
-1.79476e-10
-9.99245e-18
9.44013e-11
-1.75435e-10
-6.96869e-18
9.29238e-11
-1.70452e-10
-9.7594e-18
9.07515e-11
-1.64609e-10
-1.2888e-17
8.79453e-11
-1.58053e-10
-8.23415e-18
8.4577e-11
-1.50911e-10
7.72196e-19
8.07245e-11
-1.43307e-10
1.41532e-17
7.64704e-11
-1.35367e-10
1.63375e-17
7.19e-11
-1.27205e-10
2.50709e-18
6.70978e-11
-1.18931e-10
-2.43206e-17
6.2146e-11
-1.10639e-10
-4.92575e-17
5.7121e-11
-1.02417e-10
-4.56131e-17
5.20898e-11
-9.43351e-11
-9.93784e-18
4.71128e-11
-8.64254e-11
4.08176e-17
4.22396e-11
-7.87609e-11
8.14027e-17
3.75215e-11
-7.1293e-11
7.20544e-17
3.30028e-11
-6.40611e-11
1.88246e-17
2.87249e-11
-5.70414e-11
-4.66993e-17
2.47167e-11
-5.02574e-11
-1.05223e-16
2.0991e-11
-4.37562e-11
-1.26805e-16
1.75564e-11
-3.74832e-11
-1.28808e-16
1.44207e-11
-3.14148e-11
-1.15407e-16
1.15992e-11
-2.54786e-11
2.2777e-17
9.10159e-12
-1.96674e-11
8.06578e-17
6.92868e-12
-1.4002e-11
5.03151e-17
5.0769e-12
-8.5055e-12
4.89643e-18
3.53887e-12
-3.23331e-12
-1.82516e-17
2.30485e-12
1.72538e-12
-1.87984e-17
1.36197e-12
6.21357e-12
-9.38743e-18
6.91713e-13
9.97303e-12
-2.12883e-18
2.67269e-13
1.26017e-11
4.15013e-19
5.04708e-14
1.34831e-11
2.02913e-21
-1.31894e-14
1.16748e-11
-1.1659e-18
5.75907e-12
-1.53523e-18
9.6917e-11
-1.86981e-10
3.3262e-18
9.81965e-11
-1.85539e-10
-8.06309e-18
9.8635e-11
-1.82879e-10
-1.5074e-17
9.82414e-11
-1.79083e-10
-1.13098e-17
9.70456e-11
-1.74239e-10
-6.60134e-18
9.50933e-11
-1.68499e-10
-6.53408e-18
9.2446e-11
-1.61962e-10
-9.95264e-18
8.91762e-11
-1.54783e-10
-9.95896e-18
8.53667e-11
-1.47101e-10
-8.48715e-18
8.11044e-11
-1.39044e-10
-1.05012e-19
7.64786e-11
-1.30741e-10
8.19386e-18
7.15788e-11
-1.22306e-10
1.13211e-17
6.64912e-11
-1.13847e-10
2.43845e-18
6.12989e-11
-1.05449e-10
-1.59049e-17
5.60787e-11
-9.71955e-11
-3.05007e-17
5.08976e-11
-8.91487e-11
-3.36186e-17
4.58157e-11
-8.13355e-11
-2.05378e-17
4.08796e-11
-7.38197e-11
6.00347e-18
3.61344e-11
-6.65491e-11
2.54244e-17
3.16165e-11
-5.95517e-11
3.39253e-17
2.73597e-11
-5.27958e-11
3.13295e-17
2.33899e-11
-4.62955e-11
1.36757e-17
1.97212e-11
-4.00895e-11
-3.58372e-18
1.63641e-11
-3.41241e-11
-2.67534e-17
1.33226e-11
-2.83724e-11
-5.11757e-17
1.06031e-11
-2.27612e-11
-7.59253e-18
8.21068e-12
-1.72775e-11
2.99851e-17
6.14492e-12
-1.19372e-11
2.76728e-17
4.40195e-12
-6.76169e-12
6.47515e-18
2.97328e-12
-1.80337e-12
-1.03475e-17
1.84745e-12
2.85185e-12
-1.41918e-17
1.00955e-12
7.05135e-12
-8.63614e-18
4.38824e-13
1.05433e-11
-2.69225e-18
1.05497e-13
1.29346e-11
1.99723e-19
-3.30599e-14
1.36215e-11
3.7758e-19
-3.86729e-14
1.16803e-11
-4.81131e-19
5.72025e-12
-8.45139e-19
1.0128e-10
-1.88743e-10
4.47713e-18
1.02153e-10
-1.86411e-10
-7.53568e-18
1.02135e-10
-1.82861e-10
-1.5642e-17
1.01252e-10
-1.782e-10
-1.23571e-17
9.95459e-11
-1.72534e-10
-5.95042e-18
9.70781e-11
-1.66032e-10
-3.00103e-18
9.39232e-11
-1.58807e-10
-6.37006e-18
9.01659e-11
-1.51027e-10
-1.06761e-17
8.58996e-11
-1.42834e-10
-1.67929e-17
8.12199e-11
-1.34362e-10
-1.45211e-17
7.62219e-11
-1.25741e-10
-2.18902e-18
7.09986e-11
-1.17083e-10
1.56016e-17
6.56372e-11
-1.08489e-10
2.46777e-17
6.02199e-11
-1.00037e-10
1.56441e-17
5.48226e-11
-9.1802e-11
-1.2382e-17
4.95114e-11
-8.38358e-11
-4.98113e-17
4.43448e-11
-7.61587e-11
-7.36041e-17
3.93662e-11
-6.88267e-11
-6.42795e-17
3.46144e-11
-6.17861e-11
-2.19411e-17
3.01172e-11
-5.50562e-11
4.22406e-17
2.59006e-11
-4.85969e-11
9.97297e-17
2.19867e-11
-4.24089e-11
1.22976e-16
1.83903e-11
-3.65168e-11
1.12689e-16
1.51235e-11
-3.08663e-11
7.26747e-17
1.2187e-11
-2.54327e-11
1.6219e-17
9.57919e-12
-2.0149e-11
-3.55991e-17
7.29988e-12
-1.49972e-11
-2.15474e-17
5.34774e-12
-9.98589e-12
3.04344e-18
3.71855e-12
-5.13281e-12
7.49842e-18
2.40292e-12
-4.873e-13
-1.67917e-18
1.38783e-12
3.8674e-12
-8.71766e-18
6.56514e-13
7.78271e-12
-7.55141e-18
1.86123e-13
1.10135e-11
-3.37572e-18
-5.58666e-14
1.31763e-11
-2.53349e-19
-1.16313e-13
1.36817e-11
6.20582e-19
-6.4092e-14
1.16279e-11
2.09413e-19
5.65602e-12
-4.1341e-20
1.05693e-10
-1.90091e-10
4.32538e-18
1.06091e-10
-1.86807e-10
-7.85125e-18
1.05554e-10
-1.82324e-10
-1.60786e-17
1.04123e-10
-1.76769e-10
-1.3125e-17
1.01858e-10
-1.70269e-10
-6.08897e-18
9.88353e-11
-1.63009e-10
-1.26755e-18
9.51427e-11
-1.55115e-10
-4.13349e-18
9.08775e-11
-1.46762e-10
-1.03605e-17
8.61429e-11
-1.38099e-10
-2.18372e-17
8.10426e-11
-1.2926e-10
-2.51124e-17
7.56768e-11
-1.20373e-10
-1.17763e-17
7.01406e-11
-1.11545e-10
1.54216e-17
6.45211e-11
-1.02872e-10
3.85966e-17
5.88988e-11
-9.44221e-11
3.94915e-17
5.33468e-11
-8.62576e-11
4.84854e-18
4.79288e-11
-7.84195e-11
-5.62071e-17
4.27005e-11
-7.09203e-11
-1.09054e-16
3.77012e-11
-6.38076e-11
-1.16639e-16
3.29637e-11
-5.70286e-11
-6.11075e-17
2.85078e-11
-5.05957e-11
4.2647e-17
2.43516e-11
-4.44609e-11
1.46094e-16
2.05126e-11
-3.86091e-11
2.02815e-16
1.7005e-11
-3.30473e-11
2.00682e-16
1.38415e-11
-2.77195e-11
1.51721e-16
1.10202e-11
-2.26064e-11
7.18657e-17
8.53242e-12
-1.7652e-11
-5.56466e-17
6.37364e-12
-1.28347e-11
-6.38146e-17
4.54119e-12
-8.15408e-12
-1.87699e-17
3.03035e-12
-3.62318e-12
7.51856e-18
1.83092e-12
7.11879e-13
5.81103e-18
9.28545e-13
4.77006e-12
-3.51699e-18
3.04851e-13
8.40657e-12
-6.30983e-18
-6.49308e-14
1.13831e-11
-3.96214e-18
-2.15865e-13
1.33271e-11
-7.528e-19
-1.9878e-13
1.36645e-11
7.79261e-19
-8.92875e-14
1.15183e-11
8.69206e-19
5.56658e-12
7.56012e-19
1.10117e-10
-1.90946e-10
6.27557e-18
1.09966e-10
-1.86656e-10
-6.0126e-18
1.08843e-10
-1.81201e-10
-1.49305e-17
1.06806e-10
-1.74732e-10
-1.3127e-17
1.03934e-10
-1.67396e-10
-6.10698e-18
1.00318e-10
-1.59393e-10
-2.25824e-19
9.60607e-11
-1.50859e-10
-2.12415e-18
9.12716e-11
-1.41975e-10
-8.49715e-18
8.60627e-11
-1.3289e-10
-2.28429e-17
8.05442e-11
-1.23739e-10
-3.03757e-17
7.48201e-11
-1.14645e-10
-1.86548e-17
6.89868e-11
-1.05709e-10
1.14742e-17
6.31301e-11
-9.70169e-11
4.25392e-17
5.73272e-11
-8.86266e-11
5.1805e-17
5.16472e-11
-8.05869e-11
1.79514e-17
4.61493e-11
-7.29261e-11
-5.24956e-17
4.08848e-11
-6.56476e-11
-1.21623e-16
3.58883e-11
-5.87906e-11
-1.42862e-16
3.11869e-11
-5.23034e-11
-8.58499e-17
2.67931e-11
-4.61929e-11
3.48477e-17
2.27182e-11
-4.04047e-11
1.62217e-16
1.8974e-11
-3.49074e-11
2.39405e-16
1.55726e-11
-2.96898e-11
2.45402e-16
1.25256e-11
-2.46927e-11
1.96212e-16
9.82866e-12
-1.99038e-11
1.08037e-16
7.46846e-12
-1.52801e-11
-6.52696e-17
5.4369e-12
-1.07978e-11
-9.08976e-17
3.72968e-12
-6.44731e-12
-3.47274e-17
2.34124e-12
-2.23646e-12
6.50962e-18
1.2606e-12
1.79181e-12
1.10788e-17
4.7233e-13
5.55847e-12
7.0236e-19
-4.33159e-14
8.92246e-12
-5.01148e-18
-3.12792e-13
1.16526e-11
-4.23494e-18
-3.73486e-13
1.33876e-11
-1.05416e-18
-2.79925e-13
1.35708e-11
1.02212e-18
-1.14089e-13
1.13523e-11
1.57764e-18
5.45233e-12
1.62978e-18
1.14504e-10
-1.91223e-10
6.47732e-18
1.13726e-10
-1.85876e-10
-5.34664e-18
1.11946e-10
-1.79422e-10
-1.42656e-17
1.09244e-10
-1.72031e-10
-1.29677e-17
1.05717e-10
-1.63869e-10
-6.60498e-18
1.01474e-10
-1.55149e-10
-7.67733e-19
9.66303e-11
-1.46016e-10
-1.70476e-18
9.13071e-11
-1.36653e-10
-6.08588e-18
8.56243e-11
-1.27208e-10
-2.00387e-17
7.96965e-11
-1.1781e-10
-2.94354e-17
7.36303e-11
-1.08576e-10
-2.14895e-17
6.75215e-11
-9.95976e-11
5.00511e-18
6.14534e-11
-9.09496e-11
3.66132e-17
5.54991e-11
-8.26782e-11
5.13293e-17
4.97216e-11
-7.48181e-11
2.48935e-17
4.4174e-11
-6.73842e-11
-4.00939e-17
3.89015e-11
-6.03699e-11
-1.10836e-16
3.39332e-11
-5.3805e-11
-1.40502e-16
2.92905e-11
-4.76383e-11
-9.34746e-17
2.49804e-11
-4.18718e-11
1.97101e-17
2.10076e-11
-3.64461e-11
1.45818e-16
1.73786e-11
-3.1316e-11
2.2774e-16
1.41009e-11
-2.64529e-11
2.40606e-16
1.11831e-11
-2.17947e-11
2.00543e-16
8.61926e-12
-1.73346e-11
1.19849e-16
6.39347e-12
-1.30428e-11
-6.31859e-17
4.49509e-12
-8.89379e-12
-9.89839e-17
2.91797e-12
-4.87043e-12
-4.24274e-17
1.65536e-12
-9.7564e-13
4.64601e-18
6.95459e-13
2.75082e-12
1.32762e-17
2.20309e-14
6.23196e-12
3.27422e-18
-3.85768e-13
9.33052e-12
-3.84158e-18
-5.5584e-13
1.18228e-11
-4.10961e-18
-5.27666e-13
1.33594e-11
-1.04964e-18
-3.59179e-13
1.34022e-11
1.3729e-18
-1.38317e-13
1.11313e-11
2.29033e-18
5.31387e-12
2.45734e-18
1.18793e-10
-1.9083e-10
8.39397e-18
1.17304e-10
-1.84387e-10
-3.27442e-18
1.14797e-10
-1.76914e-10
-1.22781e-17
1.11372e-10
-1.68606e-10
-1.21121e-17
1.07147e-10
-1.59644e-10
-7.27262e-18
1.02247e-10
-1.50248e-10
-2.56799e-18
9.68019e-11
-1.40571e-10
-2.36524e-18
9.0942e-11
-1.30794e-10
-3.2536e-18
8.4793e-11
-1.21059e-10
-1.41898e-17
7.84726e-11
-1.11489e-10
-2.34214e-17
7.20873e-11
-1.02189e-10
-2.05482e-17
6.57311e-11
-9.32389e-11
-2.83635e-18
5.94833e-11
-8.47015e-11
2.29095e-17
5.3411e-11
-7.66096e-11
3.96294e-17
4.75703e-11
-6.89838e-11
2.5393e-17
4.20063e-11
-6.18257e-11
-2.17163e-17
3.67565e-11
-5.51184e-11
-8.05712e-17
3.18436e-11
-4.88808e-11
-1.12777e-16
2.72837e-11
-4.30614e-11
-8.48482e-17
2.3079e-11
-3.76567e-11
-6.61667e-19
1.92293e-11
-3.26041e-11
1.00927e-16
1.5735e-11
-2.78482e-11
1.72299e-16
1.25978e-11
-2.33464e-11
1.9001e-16
9.82188e-12
-1.90343e-11
1.66477e-16
7.39929e-12
-1.49083e-11
1.07283e-16
5.31409e-12
-1.09483e-11
-5.04157e-17
3.55412e-12
-7.12904e-12
-8.85903e-17
2.11119e-12
-3.42755e-12
-4.17513e-17
9.77065e-13
1.57018e-13
2.0042e-18
1.39157e-13
3.58794e-12
1.23127e-17
-4.19379e-13
6.79052e-12
4.09159e-18
-7.20192e-13
9.63156e-12
-2.79024e-18
-7.92384e-13
1.1895e-11
-3.48051e-18
-6.77293e-13
1.32442e-11
-6.1255e-19
-4.35943e-13
1.31607e-11
1.93399e-18
-1.61777e-13
1.0857e-11
3.06809e-18
5.15195e-12
3.31886e-18
1.22912e-10
-1.89667e-10
8.03225e-18
1.20626e-10
-1.82099e-10
-2.63361e-18
1.17319e-10
-1.73608e-10
-1.14174e-17
1.13117e-10
-1.64404e-10
-1.15382e-17
1.08156e-10
-1.54682e-10
-8.03243e-18
1.02577e-10
-1.4467e-10
-4.79061e-18
9.65243e-11
-1.34518e-10
-3.84344e-18
9.01335e-11
-1.24404e-10
-8.1845e-19
8.35352e-11
-1.14462e-10
-7.2108e-18
7.68472e-11
-1.04801e-10
-1.44282e-17
7.01739e-11
-9.55148e-11
-1.6819e-17
6.36052e-11
-8.66685e-11
-1.07087e-17
5.72149e-11
-7.83099e-11
4.69195e-18
5.10629e-11
-7.04583e-11
2.03286e-17
4.51967e-11
-6.31205e-11
2.05719e-17
3.96522e-11
-5.62854e-11
-6.98389e-19
3.4458e-11
-4.99257e-11
-3.7894e-17
2.96296e-11
-4.40487e-11
-6.7289e-17
2.51776e-11
-3.86004e-11
-6.36998e-17
2.11006e-11
-3.35716e-11
-2.3122e-17
1.73942e-11
-2.8898e-11
3.69537e-17
1.40532e-11
-2.45184e-11
8.57751e-17
1.10723e-11
-2.03814e-11
1.05734e-16
8.44986e-12
-1.64211e-11
1.02962e-16
6.17642e-12
-1.26333e-11
7.61879e-17
4.23748e-12
-9.00416e-12
-3.02742e-17
2.62033e-12
-5.5089e-12
-6.33942e-17
1.31479e-12
-2.1219e-12
-3.35906e-17
3.10955e-13
1.16002e-12
-7.51473e-19
-4.04505e-13
4.30295e-12
8.75364e-18
-8.48823e-13
7.23488e-12
3.24563e-18
-1.04419e-12
9.82707e-12
-1.9846e-18
-1.02067e-12
1.18715e-11
-2.46309e-18
-8.2121e-13
1.30447e-11
1.89694e-19
-5.09595e-13
1.2849e-11
2.64888e-18
-1.84269e-13
1.05316e-11
3.85207e-18
4.96756e-12
4.11194e-18
1.26771e-10
-1.87631e-10
9.41731e-18
1.23601e-10
-1.78928e-10
-9.17264e-19
1.19428e-10
-1.69434e-10
-9.36983e-18
1.14399e-10
-1.59375e-10
-1.01334e-17
1.08672e-10
-1.48955e-10
-8.53859e-18
1.02403e-10
-1.384e-10
-7.44357e-18
9.57451e-11
-1.2786e-10
-5.99758e-18
8.88402e-11
-1.17499e-10
9.9828e-19
8.18194e-11
-1.07441e-10
-1.93583e-19
7.47983e-11
-9.7781e-11
-4.52704e-18
6.78765e-11
-8.85935e-11
-1.16667e-17
6.11376e-11
-7.99287e-11
-1.75281e-17
5.46478e-11
-7.18181e-11
-1.41427e-17
4.84585e-11
-6.4267e-11
-1.72217e-18
4.26075e-11
-5.72689e-11
1.26339e-17
3.71206e-11
-5.0801e-11
1.94925e-17
3.20167e-11
-4.48261e-11
8.50535e-18
2.73032e-11
-3.93393e-11
-1.41617e-17
2.29855e-11
-3.42825e-11
-3.54713e-17
1.90587e-11
-2.96399e-11
-4.39149e-17
1.55152e-11
-2.53474e-11
-3.32895e-17
1.23443e-11
-2.13425e-11
-1.37755e-17
9.53378e-12
-1.75703e-11
5.73126e-18
7.07556e-12
-1.39645e-11
2.41601e-17
4.95874e-12
-1.05174e-11
3.22252e-17
3.17122e-12
-7.21621e-12
-6.54667e-18
1.70043e-12
-4.03745e-12
-2.90387e-17
5.34476e-13
-9.55736e-13
-2.02726e-17
-3.38201e-13
2.03266e-12
-3.4152e-18
-9.31597e-13
4.89637e-12
3.43285e-18
-1.26313e-12
7.56651e-12
1.22753e-18
-1.3553e-12
9.91928e-12
-1.3089e-18
-1.2389e-12
1.1755e-11
-1.08307e-18
-9.58225e-13
1.27639e-11
1.33903e-18
-5.79488e-13
1.24702e-11
3.54194e-18
-2.05579e-13
1.01577e-11
4.68591e-18
4.76188e-12
4.92441e-18
1.30268e-10
-1.84614e-10
1.02152e-17
1.26128e-10
-1.74788e-10
8.8822e-20
1.21025e-10
-1.64331e-10
-8.48669e-18
1.1513e-10
-1.53481e-10
-9.35155e-18
1.08619e-10
-1.42444e-10
-8.78735e-18
1.0166e-10
-1.31441e-10
-9.18123e-18
9.44131e-11
-1.20612e-10
-7.648e-18
8.70227e-11
-1.10109e-10
2.10064e-18
7.96176e-11
-1.00037e-10
5.14608e-18
7.23081e-11
-9.04728e-11
3.80903e-18
6.51862e-11
-8.1473e-11
-6.59799e-18
5.83265e-11
-7.3069e-11
-2.22066e-17
5.17858e-11
-6.52752e-11
-2.98433e-17
4.56058e-11
-5.80827e-11
-2.1697e-17
3.98135e-11
-5.14729e-11
3.88746e-18
3.44241e-11
-4.54123e-11
3.56305e-17
2.94463e-11
-3.98547e-11
4.99117e-17
2.48795e-11
-3.47829e-11
3.61079e-17
2.0723e-11
-3.01336e-11
-6.02444e-18
1.69688e-11
-2.58841e-11
-5.92325e-17
1.36064e-11
-2.19717e-11
-9.61229e-17
1.06206e-11
-1.8337e-11
-1.06653e-16
7.99252e-12
-1.49261e-11
-9.00927e-17
5.70806e-12
-1.16745e-11
-5.46353e-17
3.75481e-12
-8.56737e-12
-1.42381e-17
2.12328e-12
-5.58889e-12
1.55055e-17
8.015e-13
-2.71737e-12
6.99214e-18
-2.23771e-13
6.97611e-14
-4.71644e-18
-9.65464e-13
2.77511e-12
-5.2882e-18
-1.43808e-12
5.36953e-12
-2.32643e-18
-1.65906e-12
7.78766e-12
-1.38324e-18
-1.651e-12
9.91115e-12
-8.25151e-19
-1.44522e-12
1.15491e-11
4.11336e-19
-1.08711e-12
1.24057e-11
2.64328e-18
-6.44952e-13
1.2028e-11
4.49651e-18
-2.25484e-13
9.73816e-12
5.50374e-18
4.53633e-12
5.67815e-18
1.33277e-10
-1.80512e-10
1.20766e-17
1.2809e-10
-1.69599e-10
1.38526e-18
1.22005e-10
-1.58246e-10
-7.13567e-18
1.15218e-10
-1.46694e-10
-7.9151e-18
1.07918e-10
-1.35145e-10
-8.22886e-18
1.00284e-10
-1.23807e-10
-1.00222e-17
9.24793e-11
-1.12806e-10
-8.87059e-18
8.46459e-11
-1.02275e-10
2.33961e-18
7.69071e-11
-9.22984e-11
8.31612e-18
6.93646e-11
-8.29316e-11
9.50391e-18
6.20996e-11
-7.42101e-11
-2.34074e-18
5.51758e-11
-6.61457e-11
-2.39435e-17
4.86384e-11
-5.87354e-11
-3.95768e-17
4.25177e-11
-5.19567e-11
-3.58691e-17
3.68298e-11
-4.57794e-11
-3.85668e-18
3.1579e-11
-4.01609e-11
4.49939e-17
2.6764e-11
-3.50472e-11
7.89713e-17
2.23757e-11
-3.04092e-11
7.45111e-17
1.84075e-11
-2.61788e-11
1.95124e-17
1.48478e-11
-2.23258e-11
-6.58814e-17
1.16834e-11
-1.87901e-11
-1.39554e-16
8.89548e-12
-1.55187e-11
-1.75303e-16
6.45983e-12
-1.24627e-11
-1.63751e-16
4.3572e-12
-9.56045e-12
-1.18215e-16
2.57372e-12
-6.78857e-12
-5.62253e-17
1.10199e-12
-4.12501e-12
3.20565e-17
-6.91754e-14
-1.54991e-12
3.81938e-17
-9.53799e-13
9.54537e-13
1.01037e-17
-1.56576e-12
3.38846e-12
-6.1708e-18
-1.91982e-12
5.72457e-12
-7.38747e-18
-2.03329e-12
7.90139e-12
-3.86156e-18
-1.92873e-12
9.80643e-12
-3.71022e-19
-1.63775e-12
1.12579e-11
1.93379e-18
-1.20662e-12
1.19744e-11
4.01032e-18
-7.05302e-13
1.15267e-11
5.49967e-18
-2.43754e-13
9.27661e-12
6.34995e-18
4.29253e-12
6.4771e-18
1.35663e-10
-1.75221e-10
1.15722e-17
1.29358e-10
-1.63294e-10
1.49652e-18
1.22254e-10
-1.51142e-10
-6.86384e-18
1.14564e-10
-1.39004e-10
-7.28701e-18
1.0649e-10
-1.27071e-10
-7.50632e-18
9.82149e-11
-1.15531e-10
-9.70302e-18
8.98996e-11
-1.0449e-10
-9.14583e-18
8.16808e-11
-9.40559e-11
1.89691e-18
7.36721e-11
-8.42898e-11
8.80371e-18
6.59627e-11
-7.52235e-11
1.16917e-17
5.86208e-11
-6.68702e-11
6.17768e-19
5.16961e-11
-5.92218e-11
-2.22145e-17
4.52207e-11
-5.2258e-11
-4.17308e-17
3.92126e-11
-4.59432e-11
-4.21672e-17
3.36764e-11
-4.0237e-11
-9.74893e-18
2.86058e-11
-3.50889e-11
4.57061e-17
2.399e-11
-3.04387e-11
9.0811e-17
1.98118e-11
-2.62471e-11
9.49676e-17
1.60584e-11
-2.24413e-11
3.7517e-17
1.2714e-11
-1.89848e-11
-6.19223e-17
9.76296e-12
-1.58209e-11
-1.55476e-16
7.18346e-12
-1.29042e-11
-2.07452e-16
4.948e-12
-1.01934e-11
-2.02242e-16
3.03363e-12
-7.63107e-12
-1.56091e-16
1.42506e-12
-5.18515e-12
-8.60023e-17
1.15951e-13
-2.82576e-12
3.98245e-17
-9.04113e-13
-5.3481e-13
5.87685e-17
-1.64932e-12
1.69974e-12
2.14186e-17
-2.13391e-12
3.87478e-12
-5.87557e-18
-2.37263e-12
5.96455e-12
-1.07437e-17
-2.38249e-12
7.91159e-12
-5.66563e-18
-2.1859e-12
9.60963e-12
2.98049e-20
-1.81461e-12
1.08863e-11
3.25159e-18
-1.3155e-12
1.14752e-11
5.24472e-18
-7.5984e-13
1.0971e-11
6.43908e-18
-2.6015e-13
8.77695e-12
7.16861e-18
4.03235e-12
7.25363e-18
1.37259e-10
-1.6866e-10
1.28069e-17
1.29789e-10
-1.55822e-10
1.97203e-18
1.2165e-10
-1.43003e-10
-6.49215e-18
1.13071e-10
-1.30425e-10
-6.15595e-18
1.04259e-10
-1.18259e-10
-5.81843e-18
9.53962e-11
-1.06668e-10
-7.99125e-18
8.66372e-11
-9.57302e-11
-8.57913e-18
7.81073e-11
-8.55257e-11
7.5231e-19
6.99058e-11
-7.60883e-11
6.89935e-18
6.21067e-11
-6.74253e-11
1.07871e-17
5.47619e-11
-5.95271e-11
2.5581e-18
4.79054e-11
-5.23662e-11
-1.70211e-17
4.15548e-11
-4.59059e-11
-3.63413e-17
3.57146e-11
-4.00987e-11
-4.05228e-17
3.03781e-11
-3.4895e-11
-1.38617e-17
2.55293e-11
-3.02382e-11
3.70952e-17
2.11483e-11
-2.60636e-11
8.37617e-17
1.72106e-11
-2.23238e-11
9.51103e-17
1.36968e-11
-1.89431e-11
4.62477e-17
1.0587e-11
-1.58798e-11
-4.71782e-17
7.86258e-12
-1.30807e-11
-1.41136e-16
5.50002e-12
-1.05085e-11
-1.98256e-16
3.47041e-12
-8.13017e-12
-2.00006e-16
1.7489e-12
-5.89374e-12
-1.62315e-16
3.18909e-13
-3.7597e-12
-9.92613e-17
-8.25997e-13
-1.69078e-12
3.77833e-17
-1.69573e-12
3.29594e-13
6.56718e-17
-2.30396e-12
2.30777e-12
2.75037e-17
-2.66467e-12
4.23723e-12
-4.40121e-18
-2.79224e-12
6.09346e-12
-1.1713e-17
-2.70328e-12
7.82301e-12
-6.28082e-18
-2.41992e-12
9.32606e-12
5.36824e-19
-1.97389e-12
1.044e-11
4.32688e-18
-1.41247e-12
1.09136e-11
6.29167e-18
-8.07857e-13
1.03664e-11
7.31778e-18
-2.74424e-13
8.24357e-12
8.00775e-18
3.75792e-12
8.10187e-18
1.379e-10
-1.60752e-10
1.30585e-17
1.29236e-10
-1.47157e-10
1.75295e-18
1.20071e-10
-1.33839e-10
-6.58276e-18
1.10642e-10
-1.20996e-10
-5.70923e-18
1.01155e-10
-1.08772e-10
-4.39878e-18
9.17824e-11
-9.72952e-11
-6.0366e-18
8.26667e-11
-8.6614e-11
-7.68929e-18
7.39165e-11
-7.67752e-11
-9.06743e-19
6.56128e-11
-6.77845e-11
3.29137e-18
5.78111e-11
-5.9624e-11
7.59158e-18
5.05448e-11
-5.22618e-11
3.83105e-18
4.38303e-11
-4.56525e-11
-8.9432e-18
3.76697e-11
-3.97447e-11
-2.47645e-17
3.20539e-11
-3.44803e-11
-3.23693e-17
2.69654e-11
-2.98023e-11
-1.67723e-17
2.23788e-11
-2.56495e-11
2.00576e-17
1.82664e-11
-2.19547e-11
5.96095e-17
1.45972e-11
-1.86649e-11
7.64402e-17
1.13456e-11
-1.57042e-11
4.57959e-17
8.48733e-12
-1.30269e-11
-2.34747e-17
6.00071e-12
-1.05838e-11
-9.95999e-17
3.86157e-12
-8.34436e-12
-1.50929e-16
2.04142e-12
-6.2829e-12
-1.59328e-16
5.15367e-13
-4.35385e-12
-1.37691e-16
-7.34162e-13
-2.51317e-12
-9.5193e-17
-1.71487e-12
-7.18229e-13
2.69777e-17
-2.4364e-12
1.04638e-12
5.85713e-17
-2.91134e-12
2.78231e-12
2.75284e-17
-3.15277e-12
4.48009e-12
-2.22798e-18
-3.17439e-12
6.11628e-12
-1.03424e-17
-2.99229e-12
7.64128e-12
-5.63945e-18
-2.6282e-12
8.9618e-12
1.12906e-18
-2.11372e-12
9.9253e-12
5.06688e-18
-1.49627e-12
1.02961e-11
7.05721e-18
-8.48644e-13
9.71886e-12
8.0667e-18
-2.86326e-13
7.68132e-12
8.81469e-18
3.47159e-12
8.93516e-18
1.37384e-10
-1.51471e-10
1.40233e-17
1.27538e-10
-1.3731e-10
2.1436e-18
1.17395e-10
-1.23695e-10
-6.43456e-18
1.07189e-10
-1.10791e-10
-4.78375e-18
9.7119e-11
-9.87022e-11
-2.33665e-18
8.73408e-11
-8.7517e-11
-3.22128e-18
7.79768e-11
-7.72496e-11
-6.33574e-18
6.9114e-11
-6.79124e-11
-2.81219e-18
6.08115e-11
-5.94817e-11
-1.30035e-18
5.31031e-11
-5.19153e-11
3.14996e-18
4.60021e-11
-4.51612e-11
4.81655e-18
3.95066e-11
-3.91576e-11
8.16651e-19
3.36025e-11
-3.38411e-11
-9.51675e-18
2.82676e-11
-2.91449e-11
-2.02301e-17
2.34737e-11
-2.50062e-11
-1.90516e-17
1.91876e-11
-2.13611e-11
-2.76548e-18
1.5375e-11
-1.8142e-11
2.33604e-17
1.19991e-11
-1.52936e-11
4.38416e-17
9.02923e-12
-1.27419e-11
3.77792e-17
6.43643e-12
-1.04398e-11
5.49784e-18
4.19651e-12
-8.34133e-12
-3.91762e-17
2.28525e-12
-6.4207e-12
-7.59386e-17
6.76247e-13
-4.65796e-12
-8.9933e-17
-6.53882e-13
-3.01421e-12
-8.86796e-17
-1.72323e-12
-1.44468e-12
-7.44008e-17
-2.54157e-12
9.51575e-14
9.87105e-18
-3.1185e-12
1.61993e-12
3.96e-17
-3.46507e-12
3.12832e-12
2.19745e-17
-3.59295e-12
4.60885e-12
4.39386e-19
-3.51485e-12
6.03907e-12
-6.76027e-18
-3.24618e-12
7.37296e-12
-3.67691e-18
-2.80821e-12
8.52375e-12
1.92555e-18
-2.23225e-12
9.34918e-12
5.55593e-18
-1.56568e-12
9.62949e-12
7.59514e-18
-8.81496e-13
9.03475e-12
8.7287e-18
-2.95598e-13
7.0955e-12
9.6181e-18
3.17597e-12
9.80103e-18
1.35536e-10
-1.4081e-10
1.19126e-17
1.24553e-10
-1.26326e-10
5.8099e-19
1.13515e-10
-1.12656e-10
-7.11492e-18
1.02642e-10
-9.99183e-11
-4.78593e-18
9.21125e-11
-8.81727e-11
-1.16983e-18
8.20583e-11
-7.74629e-11
-1.24854e-18
7.2575e-11
-6.77663e-11
-5.32418e-18
6.37231e-11
-5.90605e-11
-4.6189e-18
5.55359e-11
-5.1294e-11
-5.64289e-18
4.80237e-11
-4.44023e-11
-1.28173e-18
4.11786e-11
-3.83157e-11
5.65797e-18
3.49801e-11
-3.29597e-11
1.05641e-17
2.93985e-11
-2.8261e-11
6.38296e-18
2.4399e-11
-2.41469e-11
-6.83767e-18
1.9944e-11
-2.05509e-11
-2.07821e-17
1.59934e-11
-1.74081e-11
-2.72208e-17
1.25079e-11
-1.46527e-11
-1.76213e-17
9.44627e-12
-1.223e-11
4.57225e-18
6.77341e-12
-1.00708e-11
2.48282e-17
4.45674e-12
-8.12861e-12
3.47101e-17
2.46976e-12
-6.36015e-12
2.81088e-17
7.88834e-13
-4.74205e-12
1.10556e-17
-6.09289e-13
-3.25757e-12
-6.69204e-18
-1.74526e-12
-1.87449e-12
-2.5783e-17
-2.63712e-12
-5.51451e-13
-4.2757e-17
-3.29698e-12
7.53999e-13
-9.17686e-18
-3.73447e-12
2.05591e-12
1.36373e-17
-3.95886e-12
3.35207e-12
1.23478e-17
-3.98e-12
4.63021e-12
2.84084e-18
-3.8094e-12
5.86894e-12
-1.97851e-18
-3.46165e-12
7.02549e-12
-8.65857e-19
-2.95744e-12
8.01955e-12
2.85868e-18
-2.32767e-12
8.71934e-12
5.84362e-18
-1.61947e-12
8.92131e-12
7.93292e-18
-9.0572e-13
8.3211e-12
9.27979e-18
-3.01984e-13
6.49183e-12
1.03539e-17
2.87395e-12
1.05744e-17
1.32137e-10
-1.28846e-10
1.26578e-17
1.20131e-10
-1.14319e-10
1.22683e-18
1.08336e-10
-1.0086e-10
-6.69695e-18
9.69487e-11
-8.85317e-11
-4.11661e-18
8.61188e-11
-7.73429e-11
2.69702e-19
7.59455e-11
-6.72897e-11
8.64638e-19
6.64919e-11
-5.83128e-11
-4.12875e-18
5.77877e-11
-5.03565e-11
-5.86797e-18
4.98383e-11
-4.3344e-11
-9.13454e-18
4.26293e-11
-3.71921e-11
-5.05589e-18
3.61317e-11
-3.18172e-11
6.15454e-18
3.03071e-11
-2.71355e-11
1.84921e-17
2.51112e-11