/*--------------------------------*- C++ -*----------------------------------*\
| =========                 |                                                 |
| \\      /  F ield         | OpenFOAM: The Open Source CFD Toolbox           |
|  \\    /   O peration     | Version:  v2012                                 |
|   \\  /    A nd           | Website:  www.openfoam.com                      |
|    \\/     M anipulation  |                                                 |
\*---------------------------------------------------------------------------*/
FoamFile
{
    version     2.0;
    format      ascii;
    class       volVectorField;
    location    "0.95";
    object      U;
}
// * * * * * * * * * * * * * * * * * * * * * * * * * * * * * * * * * * * * * //

dimensions      [0 1 -1 0 0 0 0];


internalField   nonuniform List<vector> 
2664
(
(0.00349441 -0.00720752 -3.04998e-05)
(0.00342166 -0.00667743 -2.98651e-05)
(0.00332854 -0.00615877 -2.90527e-05)
(0.00321685 -0.00565478 -2.8078e-05)
(0.00308866 -0.00516842 -2.69594e-05)
(0.00294629 -0.00470231 -2.5717e-05)
(0.00279218 -0.00425862 -2.43722e-05)
(0.0026289 -0.00383912 -2.29471e-05)
(0.002459 -0.0034451 -2.14643e-05)
(0.002285 -0.00307742 -1.99458e-05)
(0.00210935 -0.00273651 -1.84128e-05)
(0.00193434 -0.0024224 -1.68853e-05)
(0.00176205 -0.0021347 -1.53815e-05)
(0.00159432 -0.00187262 -1.39175e-05)
(0.00143267 -0.00163506 -1.25066e-05)
(0.00127834 -0.00142071 -1.11595e-05)
(0.0011323 -0.00122819 -9.88478e-06)
(0.000995287 -0.00105608 -8.68882e-06)
(0.000867887 -0.000902975 -7.57676e-06)
(0.000750514 -0.000767376 -6.55222e-06)
(0.000643376 -0.000647622 -5.61698e-06)
(0.000546421 -0.000541961 -4.77061e-06)
(0.000459302 -0.000448689 -4.01007e-06)
(0.000381557 -0.000366449 -3.33137e-06)
(0.000312737 -0.000294257 -2.73059e-06)
(0.000252471 -0.000231259 -2.20448e-06)
(0.000200355 -0.000176484 -1.74949e-06)
(0.00015583 -0.000128994 -1.36076e-06)
(0.000118287 -8.80647e-05 -1.03298e-06)
(8.71194e-05 -5.31982e-05 -7.60852e-07)
(6.17368e-05 -2.40984e-05 -5.39223e-07)
(4.15659e-05 -6.7613e-07 -3.63091e-07)
(2.60568e-05 1.6924e-05 -2.27655e-07)
(1.46531e-05 2.82576e-05 -1.2806e-07)
(6.84751e-06 3.25113e-05 -5.9875e-08)
(2.07983e-06 2.83231e-05 -1.82271e-08)
(9.01379e-09 1.37173e-05 -3.73382e-10)
(0.00367426 -0.00733853 -3.20697e-05)
(0.00358653 -0.00677705 -3.13043e-05)
(0.00347764 -0.00622997 -3.03542e-05)
(0.00334973 -0.00570065 -2.9238e-05)
(0.00320521 -0.00519213 -2.79769e-05)
(0.00304674 -0.00470701 -2.65939e-05)
(0.00287707 -0.00424742 -2.51133e-05)
(0.00269901 -0.00381497 -2.35593e-05)
(0.00251532 -0.00341077 -2.19561e-05)
(0.00232867 -0.00303544 -2.03271e-05)
(0.00214162 -0.00268916 -1.86945e-05)
(0.00195651 -0.00237165 -1.70789e-05)
(0.0017755 -0.00208225 -1.5499e-05)
(0.0016004 -0.00181992 -1.39707e-05)
(0.00143272 -0.00158332 -1.25071e-05)
(0.00127356 -0.00137089 -1.11178e-05)
(0.00112375 -0.00118101 -9.81021e-06)
(0.000983904 -0.00101202 -8.58949e-06)
(0.000854483 -0.00086227 -7.4598e-06)
(0.000735841 -0.000730112 -6.42417e-06)
(0.000628132 -0.000613812 -5.48396e-06)
(0.00053122 -0.000511621 -4.63794e-06)
(0.000444605 -0.00042183 -3.88178e-06)
(0.000367643 -0.00034301 -3.2099e-06)
(0.000299763 -0.000274046 -2.61732e-06)
(0.000240573 -0.00021398 -2.10061e-06)
(0.00018967 -0.000161849 -1.65622e-06)
(0.000146457 -0.000116755 -1.27894e-06)
(0.000110262 -7.79912e-05 -9.62919e-07)
(8.04323e-05 -4.50654e-05 -7.02465e-07)
(5.63449e-05 -1.76825e-05 -4.92141e-07)
(3.74045e-05 4.24019e-06 -3.2675e-07)
(2.30381e-05 2.05468e-05 -2.0129e-07)
(1.2664e-05 3.07804e-05 -1.10683e-07)
(5.73687e-06 3.41147e-05 -5.01681e-08)
(1.65435e-06 2.91737e-05 -1.4501e-08)
(-1.61182e-08 1.3961e-05 -8.42347e-11)
(0.00386196 -0.00746594 -3.37081e-05)
(0.00375726 -0.00687137 -3.27946e-05)
(0.00363071 -0.00629458 -3.16903e-05)
(0.00348483 -0.00573906 -3.04174e-05)
(0.00332244 -0.00520788 -2.90002e-05)
(0.00314651 -0.00470359 -2.7465e-05)
(0.00296014 -0.00422819 -2.58385e-05)
(0.00276638 -0.00378313 -2.41475e-05)
(0.00256821 -0.00336926 -2.24179e-05)
(0.00236844 -0.00298692 -2.06743e-05)
(0.00216969 -0.00263597 -1.89397e-05)
(0.00197439 -0.0023158 -1.72351e-05)
(0.00178467 -0.00202543 -1.55792e-05)
(0.00160234 -0.00176354 -1.39877e-05)
(0.0014288 -0.00152855 -1.24729e-05)
(0.00126506 -0.00131866 -1.10437e-05)
(0.00111183 -0.00113199 -9.70616e-06)
(0.000969521 -0.00096661 -8.46398e-06)
(0.000838482 -0.000820632 -7.32015e-06)
(0.000718952 -0.000692229 -6.27678e-06)
(0.000610998 -0.000579612 -5.33442e-06)
(0.000514388 -0.000481064 -4.49103e-06)
(0.000428497 -0.000394909 -3.74117e-06)
(0.00035254 -0.000319661 -3.07806e-06)
(0.000285835 -0.000254055 -2.49574e-06)
(0.00022794 -0.000197005 -1.99032e-06)
(0.000178425 -0.000147559 -1.55805e-06)
(0.000136655 -0.000104876 -1.19337e-06)
(0.000101913 -6.82816e-05 -8.90025e-07)
(7.35055e-05 -3.7292e-05 -6.41985e-07)
(5.07822e-05 -1.16139e-05 -4.43567e-07)
(3.31263e-05 8.82929e-06 -2.89389e-07)
(1.99433e-05 2.3871e-05 -1.74259e-07)
(1.06286e-05 3.30421e-05 -9.29008e-08)
(4.60132e-06 3.55063e-05 -4.02434e-08)
(1.21895e-06 2.98771e-05 -1.0688e-08)
(-4.21485e-08 1.41453e-05 2.1445e-10)
(0.00405738 -0.00758831 -3.54139e-05)
(0.00393349 -0.00695894 -3.4333e-05)
(0.00378722 -0.00635123 -3.30566e-05)
(0.00362151 -0.00576876 -3.16105e-05)
(0.00343958 -0.00521456 -3.00229e-05)
(0.00324481 -0.00469108 -2.83231e-05)
(0.00304058 -0.00420014 -2.65408e-05)
(0.00283023 -0.00374295 -2.4705e-05)
(0.00261693 -0.00332007 -2.28433e-05)
(0.00240362 -0.00293149 -2.09815e-05)
(0.00219299 -0.00257669 -1.91432e-05)
(0.00198746 -0.0022547 -1.73493e-05)
(0.00178914 -0.00196417 -1.56183e-05)
(0.00159976 -0.0017035 -1.39653e-05)
(0.00142063 -0.00147083 -1.24018e-05)
(0.00125265 -0.00126411 -1.09355e-05)
(0.00109636 -0.00108121 -9.57119e-06)
(0.000952025 -0.000919932 -8.31129e-06)
(0.000819816 -0.00077814 -7.15725e-06)
(0.000699822 -0.000653833 -6.10981e-06)
(0.000591977 -0.000545164 -5.16839e-06)
(0.000495942 -0.000450454 -4.33002e-06)
(0.000411 -0.000368081 -3.58845e-06)
(0.000336273 -0.000296517 -2.93606e-06)
(0.000270983 -0.000234353 -2.36608e-06)
(0.000214606 -0.00018038 -1.87392e-06)
(0.000166656 -0.000133652 -1.45531e-06)
(0.00012646 -9.3392e-05 -1.10436e-06)
(9.32705e-05 -5.89659e-05 -8.1457e-07)
(6.63656e-05 -2.99017e-05 -5.79644e-07)
(4.50704e-05 -5.9101e-06 -3.93692e-07)
(2.87483e-05 1.30785e-05 -2.51157e-07)
(1.6785e-05 2.68873e-05 -1.46674e-07)
(8.55539e-06 3.50364e-05 -7.4789e-08)
(3.44572e-06 3.66813e-05 -3.01436e-08)
(7.75532e-07 3.04304e-05 -6.80478e-09)
(-6.89888e-08 1.42686e-05 5.21492e-10)
(0.00426025 -0.00770398 -3.71848e-05)
(0.00411472 -0.00703814 -3.5915e-05)
(0.00394648 -0.0063984 -3.44468e-05)
(0.00375893 -0.00578834 -3.28102e-05)
(0.00355576 -0.00521094 -3.10371e-05)
(0.0033407 -0.00466844 -2.91603e-05)
(0.00311748 -0.00416242 -2.72122e-05)
(0.00288968 -0.00369378 -2.52241e-05)
(0.00266066 -0.0032627 -2.32252e-05)
(0.00243348 -0.00286879 -2.12423e-05)
(0.00221085 -0.0025111 -1.92992e-05)
(0.00199517 -0.00218823 -1.74167e-05)
(0.00178845 -0.00189848 -1.56124e-05)
(0.00159232 -0.00163987 -1.39004e-05)
(0.00140796 -0.00141026 -1.22912e-05)
(0.00123612 -0.00120735 -1.07913e-05)
(0.00107721 -0.00102878 -9.4041e-06)
(0.000931321 -0.000872081 -8.13062e-06)
(0.000798429 -0.000734891 -6.97058e-06)
(0.000678425 -0.00061504 -5.92304e-06)
(0.000571072 -0.000510616 -4.98591e-06)
(0.00047591 -0.000419964 -4.15517e-06)
(0.000392159 -0.000341508 -3.42399e-06)
(0.00031889 -0.000273697 -2.78434e-06)
(0.000255254 -0.000215015 -2.22878e-06)
(0.000200617 -0.00016415 -1.75179e-06)
(0.000154405 -0.000120165 -1.34835e-06)
(0.000115911 -8.23372e-05 -1.01225e-06)
(8.43694e-05 -5.0073e-05 -7.36854e-07)
(5.9042e-05 -2.29169e-05 -5.15698e-07)
(3.92337e-05 -5.87504e-07 -3.42725e-07)
(2.42895e-05 1.69765e-05 -2.12218e-07)
(1.35773e-05 2.9588e-05 -1.18657e-07)
(6.45381e-06 3.67579e-05 -5.6429e-08)
(2.27544e-06 3.76362e-05 -1.99153e-08)
(3.26183e-07 3.08312e-05 -2.86963e-09)
(-9.64985e-08 1.433e-05 8.35394e-10)
(0.00447009 -0.00781104 -3.90166e-05)
(0.00430025 -0.00710715 -3.75346e-05)
(0.00410761 -0.0064344 -3.58535e-05)
(0.00389611 -0.00579633 -3.40078e-05)
(0.0036699 -0.00519573 -3.20336e-05)
(0.00343311 -0.00463461 -2.99671e-05)
(0.00318978 -0.00411419 -2.78435e-05)
(0.00294375 -0.00363497 -2.56962e-05)
(0.00269852 -0.0031967 -2.35558e-05)
(0.00245723 -0.00279852 -2.14498e-05)
(0.00222261 -0.00243902 -1.9402e-05)
(0.00199695 -0.00211635 -1.74324e-05)
(0.00178215 -0.00182836 -1.55575e-05)
(0.00157967 -0.00157272 -1.37901e-05)
(0.00139052 -0.00134697 -1.2139e-05)
(0.00121531 -0.00114855 -1.06096e-05)
(0.00105427 -0.000974849 -9.20394e-06)
(0.000907342 -0.000823189 -7.92134e-06)
(0.000774276 -0.000691009 -6.75977e-06)
(0.000654738 -0.000575982 -5.71628e-06)
(0.000548286 -0.000476116 -4.787e-06)
(0.000454328 -0.000389749 -3.96677e-06)
(0.000372034 -0.000315333 -3.24833e-06)
(0.000300465 -0.000251313 -2.62351e-06)
(0.000238714 -0.000196115 -2.08441e-06)
(0.000186026 -0.000148366 -1.62442e-06)
(0.000141719 -0.000107137 -1.23759e-06)
(0.000105048 -7.17446e-05 -9.17417e-07)
(7.52474e-05 -4.16302e-05 -6.57209e-07)
(5.15674e-05 -1.63585e-05 -4.50434e-07)
(3.32987e-05 4.3392e-06 -2.90901e-07)
(1.97706e-05 2.05135e-05 -1.72755e-07)
(1.03352e-05 3.19668e-05 -9.034e-08)
(4.33398e-06 3.82026e-05 -3.79095e-08)
(1.09625e-06 3.83685e-05 -9.60907e-09)
(-1.26824e-07 3.10779e-05 1.09756e-09)
(-1.24525e-07 1.43285e-05 1.15449e-09)
(0.00468625 -0.00790729 -4.09035e-05)
(0.00448915 -0.00716392 -3.91836e-05)
(0.0042695 -0.00645739 -3.72668e-05)
(0.00403182 -0.0057911 -3.51926e-05)
(0.00378074 -0.00516759 -3.30013e-05)
(0.0035208 -0.0045885 -3.07327e-05)
(0.00325633 -0.0040546 -2.84246e-05)
(0.00299137 -0.0035659 -2.6112e-05)
(0.00272955 -0.00312165 -2.38269e-05)
(0.00247405 -0.00272043 -2.15968e-05)
(0.00222755 -0.00236034 -1.94453e-05)
(0.00199223 -0.00203903 -1.73913e-05)
(0.00176978 -0.0017539 -1.54496e-05)
(0.00156146 -0.0015022 -1.36312e-05)
(0.00136808 -0.00128114 -1.19432e-05)
(0.00119006 -0.00108789 -1.03893e-05)
(0.00102747 -0.000919606 -8.97004e-06)
(0.000880048 -0.000773433 -7.68313e-06)
(0.000747336 -0.000646649 -6.52462e-06)
(0.000628753 -0.000536798 -5.48945e-06)
(0.000523634 -0.000441797 -4.5718e-06)
(0.000431243 -0.000359941 -3.76524e-06)
(0.000350705 -0.000289676 -3.06215e-06)
(0.000281088 -0.000229462 -2.45438e-06)
(0.000221447 -0.000177724 -1.93367e-06)
(0.000170899 -0.000133081 -1.49236e-06)
(0.000128649 -9.46087e-05 -1.12348e-06)
(9.39201e-05 -6.16465e-05 -8.20256e-07)
(6.59462e-05 -3.36628e-05 -5.75998e-07)
(4.39777e-05 -1.02452e-05 -3.84164e-07)
(2.72947e-05 8.85705e-06 -2.38473e-07)
(1.52142e-05 2.36809e-05 -1.32964e-07)
(7.07519e-06 3.40187e-05 -6.18663e-08)
(2.20685e-06 3.93678e-05 -1.93261e-08)
(-8.56224e-08 3.88768e-05 7.2058e-10)
(-5.81036e-07 3.11698e-05 5.07531e-09)
(-1.52908e-07 1.42638e-05 1.47697e-09)
(0.00490772 -0.00799026 -4.28368e-05)
(0.00468019 -0.00720618 -4.08513e-05)
(0.00443078 -0.00646536 -3.86748e-05)
(0.00416462 -0.00577095 -3.63519e-05)
(0.00388684 -0.00512511 -3.39276e-05)
(0.00360236 -0.00452899 -3.14448e-05)
(0.00331579 -0.00398282 -2.89439e-05)
(0.00303135 -0.003486 -2.64612e-05)
(0.00275272 -0.00303717 -2.40293e-05)
(0.00248306 -0.00263434 -2.16756e-05)
(0.00222496 -0.00227502 -1.94228e-05)
(0.00198041 -0.00195634 -1.72882e-05)
(0.00175088 -0.00167521 -1.52847e-05)
(0.00153736 -0.00142848 -1.3421e-05)
(0.00134043 -0.00121298 -1.17019e-05)
(0.00116027 -0.0010256 -1.01293e-05)
(0.000996756 -0.000863281 -8.70197e-06)
(0.000849431 -0.000723027 -7.4159e-06)
(0.000717616 -0.000602002 -6.26521e-06)
(0.000600486 -0.000497649 -5.2427e-06)
(0.000497149 -0.00040779 -4.34059e-06)
(0.000406715 -0.000330645 -3.55112e-06)
(0.000328263 -0.000264631 -2.86624e-06)
(0.000260864 -0.000208226 -2.27783e-06)
(0.000203543 -0.000159911 -1.77739e-06)
(0.000155309 -0.000118349 -1.35625e-06)
(0.000115256 -8.26217e-05 -1.00654e-06)
(8.25768e-05 -5.20741e-05 -7.21216e-07)
(5.65109e-05 -2.61937e-05 -4.93616e-07)
(3.63114e-05 -4.59339e-06 -3.17225e-07)
(2.12531e-05 1.29551e-05 -1.85717e-07)
(1.06444e-05 2.64723e-05 -9.30555e-08)
(3.81487e-06 3.57401e-05 -3.33895e-08)
(8.41343e-08 4.02521e-05 -7.81145e-10)
(-1.2635e-06 3.9161e-05 1.10153e-08)
(-1.03382e-06 3.11071e-05 9.04057e-09)
(-1.8147e-07 1.41358e-05 1.80087e-09)
(0.00513322 -0.00805714 -4.48054e-05)
(0.00487184 -0.00723142 -4.25244e-05)
(0.00458977 -0.00645615 -4.00628e-05)
(0.00429278 -0.00573406 -3.74709e-05)
(0.00398649 -0.00506683 -3.47978e-05)
(0.0036762 -0.00445498 -3.20896e-05)
(0.00336673 -0.00389805 -2.93887e-05)
(0.00306242 -0.00339475 -2.67326e-05)
(0.00276694 -0.002943 -2.41535e-05)
(0.00248336 -0.00254015 -2.16784e-05)
(0.0022141 -0.00218309 -1.93282e-05)
(0.00196093 -0.0018684 -1.71183e-05)
(0.00172503 -0.0015925 -1.50592e-05)
(0.00150709 -0.00135179 -1.31568e-05)
(0.00130739 -0.00114274 -1.14136e-05)
(0.00112585 -0.000961934 -9.82888e-06)
(0.000962114 -0.000806136 -8.39963e-06)
(0.000815518 -0.000672221 -7.1199e-06)
(0.000685161 -0.000557287 -5.98192e-06)
(0.000569987 -0.000458709 -4.97647e-06)
(0.00046889 -0.000374223 -4.0939e-06)
(0.000380826 -0.000301955 -3.32512e-06)
(0.000304809 -0.000240268 -2.6615e-06)
(0.000239903 -0.000187672 -2.09486e-06)
(0.000185105 -0.000142741 -1.61643e-06)
(0.000139336 -0.000104226 -1.2168e-06)
(0.000101604 -7.12183e-05 -8.87355e-07)
(7.10749e-05 -4.30572e-05 -6.20792e-07)
(4.69908e-05 -1.92435e-05 -4.10493e-07)
(2.86102e-05 5.83159e-07 -2.49981e-07)
(1.52075e-05 1.66246e-05 -1.32925e-07)
(6.08711e-06 2.88827e-05 -5.32561e-08)
(5.72935e-07 3.71292e-05 -5.07323e-09)
(-2.02172e-06 4.08556e-05 1.76165e-08)
(-2.43027e-06 3.9222e-05 2.12131e-08)
(-1.48236e-06 3.08906e-05 1.29686e-08)
(-2.10022e-07 1.39449e-05 2.12406e-09)
(0.00536098 -0.00810482 -4.67937e-05)
(0.00506214 -0.00723691 -4.41857e-05)
(0.00474444 -0.00642743 -4.14131e-05)
(0.00441428 -0.00567857 -3.85317e-05)
(0.00407777 -0.00499132 -3.55948e-05)
(0.00374053 -0.00436541 -3.26514e-05)
(0.00340756 -0.00379959 -2.97453e-05)
(0.00308319 -0.00329172 -2.69142e-05)
(0.00277105 -0.00283894 -2.41897e-05)
(0.00247402 -0.00243784 -2.1597e-05)
(0.00219426 -0.00208468 -1.91551e-05)
(0.00193325 -0.00177544 -1.68769e-05)
(0.00169185 -0.00150603 -1.47697e-05)
(0.00147039 -0.00127242 -1.28365e-05)
(0.00126881 -0.00107071 -1.10769e-05)
(0.00108674 -0.000897192 -9.48762e-06)
(0.000923567 -0.000748458 -8.06317e-06)
(0.000778372 -0.000621289 -6.79567e-06)
(0.000650053 -0.000512746 -5.67547e-06)
(0.000537346 -0.000420169 -4.69153e-06)
(0.000438952 -0.000341228 -3.83255e-06)
(0.00035368 -0.000273953 -3.08814e-06)
(0.000280459 -0.00021665 -2.44893e-06)
(0.000218321 -0.000167859 -1.90645e-06)
(0.000166236 -0.000126277 -1.4517e-06)
(0.000123068 -9.07675e-05 -1.07478e-06)
(8.77671e-05 -6.04398e-05 -7.66548e-07)
(5.94766e-05 -3.46235e-05 -5.19525e-07)
(3.74388e-05 -1.283e-05 -3.2709e-07)
(2.09183e-05 5.27331e-06 -1.82817e-07)
(9.19336e-06 1.98592e-05 -8.04075e-08)
(1.56953e-06 3.09095e-05 -1.38032e-08)
(-2.63087e-06 3.8186e-05 2.29102e-08)
(-4.09754e-06 4.118e-05 3.57519e-08)
(-3.57839e-06 3.90622e-05 3.12479e-08)
(-1.92364e-06 3.05225e-05 1.68331e-08)
(-2.38356e-07 1.36917e-05 2.44421e-09)
(0.00558885 -0.00812982 -4.8783e-05)
(0.00524874 -0.00721966 -4.58148e-05)
(0.00489237 -0.00637677 -4.27047e-05)
(0.00452677 -0.00560257 -3.95139e-05)
(0.00415849 -0.00489714 -3.62997e-05)
(0.00379339 -0.0042593 -3.31131e-05)
(0.00343655 -0.00368682 -2.99986e-05)
(0.00309224 -0.00317661 -2.69934e-05)
(0.00276389 -0.00272492 -2.41273e-05)
(0.00245411 -0.00232755 -2.14234e-05)
(0.00216473 -0.00198003 -1.88975e-05)
(0.00189687 -0.00167776 -1.65594e-05)
(0.001651 -0.00141615 -1.44131e-05)
(0.00142706 -0.00119072 -1.24583e-05)
(0.00122462 -0.00099722 -1.06912e-05)
(0.00104296 -0.000831697 -9.10545e-06)
(0.000881171 -0.000690559 -7.69312e-06)
(0.000738095 -0.000570523 -6.4441e-06)
(0.000612416 -0.000468635 -5.34694e-06)
(0.000502693 -0.000382233 -4.38904e-06)
(0.000407465 -0.000308947 -3.55769e-06)
(0.000325404 -0.000246728 -2.84129e-06)
(0.000255339 -0.000193835 -2.22963e-06)
(0.00019624 -0.000148844 -1.71368e-06)
(0.000147046 -0.000110579 -1.28417e-06)
(0.000106599 -7.80269e-05 -9.30999e-07)
(7.38252e-05 -5.03251e-05 -6.44824e-07)
(4.78493e-05 -2.67978e-05 -4.18006e-07)
(2.79116e-05 -6.96786e-06 -2.43904e-07)
(1.32824e-05 9.46873e-06 -1.16141e-07)
(3.24795e-06 2.2655e-05 -2.84895e-08)
(-2.8798e-06 3.2552e-05 2.50539e-08)
(-5.77581e-06 3.89122e-05 5.03797e-08)
(-6.1295e-06 4.12284e-05 5.35041e-08)
(-4.69993e-06 3.86852e-05 4.10503e-08)
(-2.35446e-06 3.00057e-05 2.06061e-08)
(-2.66239e-07 1.33777e-05 2.75878e-09)
(0.00581396 -0.00812839 -5.07483e-05)
(0.0054287 -0.00717656 -4.7386e-05)
(0.00503069 -0.00630167 -4.39124e-05)
(0.00462756 -0.00550414 -4.0394e-05)
(0.0042262 -0.00478295 -3.6891e-05)
(0.00383262 -0.00413578 -3.34558e-05)
(0.00345187 -0.00355927 -3.01326e-05)
(0.00308804 -0.00304926 -2.69569e-05)
(0.00274425 -0.00260102 -2.39561e-05)
(0.00242272 -0.00220951 -2.11496e-05)
(0.00212487 -0.0018695 -1.85497e-05)
(0.00185135 -0.00157579 -1.61622e-05)
(0.00160221 -0.00132328 -1.39874e-05)
(0.00137696 -0.0011071 -1.20211e-05)
(0.00117477 -0.000922671 -1.02561e-05)
(0.000994538 -0.000765807 -8.68279e-06)
(0.000835031 -0.000632771 -7.29036e-06)
(0.000694829 -0.000520225 -6.06643e-06)
(0.000572418 -0.000425219 -4.99779e-06)
(0.000466204 -0.000345112 -4.07052e-06)
(0.000374598 -0.000277526 -3.27078e-06)
(0.000296153 -0.000220375 -2.58594e-06)
(0.000229586 -0.000171887 -2.0048e-06)
(0.000173783 -0.000130684 -1.51761e-06)
(0.000127648 -9.57037e-05 -1.11481e-06)
(9.00314e-05 -6.60536e-05 -7.86351e-07)
(5.98652e-05 -4.09094e-05 -5.22943e-07)
(3.62664e-05 -1.96015e-05 -3.16875e-07)
(1.84697e-05 -1.66883e-06 -1.61461e-07)
(5.75162e-06 1.3164e-05 -5.03821e-08)
(-2.58982e-06 2.50106e-05 2.24892e-08)
(-7.23114e-06 3.38119e-05 6.30557e-08)
(-8.84032e-06 3.93117e-05 7.71468e-08)
(-8.10314e-06 4.1006e-05 7.0747e-08)
(-5.78657e-06 3.80963e-05 5.05477e-08)
(-2.77146e-06 2.93443e-05 2.42579e-08)
(-2.93419e-07 1.30043e-05 3.06497e-09)
(0.00603295 -0.00809639 -5.26602e-05)
(0.00559859 -0.00710427 -4.88694e-05)
(0.00515611 -0.00619958 -4.50075e-05)
(0.00471359 -0.00538146 -4.11453e-05)
(0.00427818 -0.00464754 -3.7345e-05)
(0.00385589 -0.00399414 -3.36592e-05)
(0.00345159 -0.00341663 -3.01305e-05)
(0.00306906 -0.00290968 -2.67915e-05)
(0.00271095 -0.0024675 -2.36656e-05)
(0.00237899 -0.00208412 -2.0768e-05)
(0.00207407 -0.00175357 -1.81064e-05)
(0.00179633 -0.00147004 -1.5682e-05)
(0.0015453 -0.00122795 -1.34907e-05)
(0.00132005 -0.00102206 -1.15244e-05)
(0.00111931 -0.000847505 -9.77204e-06)
(0.000941588 -0.000699918 -8.2206e-06)
(0.0007853 -0.000575444 -6.85626e-06)
(0.000648761 -0.000470703 -5.6643e-06)
(0.000530267 -0.000382761 -4.62984e-06)
(0.000428093 -0.000309015 -3.73784e-06)
(0.000340556 -0.000247121 -2.97361e-06)
(0.000266108 -0.000194996 -2.32365e-06)
(0.000203353 -0.000150879 -1.77577e-06)
(0.000151081 -0.000113437 -1.31941e-06)
(0.000108161 -8.17048e-05 -9.44667e-07)
(7.34713e-05 -5.48916e-05 -6.41769e-07)
(4.59807e-05 -3.22231e-05 -4.0172e-07)
(2.48059e-05 -1.30523e-05 -2.16812e-07)
(9.17678e-06 3.05873e-06 -8.03195e-08)
(-1.62299e-06 1.63565e-05 1.40137e-08)
(-8.27969e-06 2.69273e-05 7.21768e-08)
(-1.14537e-05 3.46932e-05 9.99335e-08)
(-1.1802e-05 3.93903e-05 1.03016e-07)
(-1.00035e-05 4.05196e-05 8.73496e-08)
(-6.82962e-06 3.7302e-05 5.96643e-08)
(-3.17107e-06 2.85434e-05 2.77575e-08)
(-3.19614e-07 1.25738e-05 3.35972e-09)
(0.00624143 -0.00802954 -5.44804e-05)
(0.00575425 -0.00699943 -5.02285e-05)
(0.00526476 -0.00606803 -4.59564e-05)
(0.00478143 -0.00523284 -4.17379e-05)
(0.00431147 -0.00448988 -3.7636e-05)
(0.00386074 -0.00383391 -3.37019e-05)
(0.00343374 -0.00325887 -2.9975e-05)
(0.00303376 -0.00275813 -2.64836e-05)
(0.00266286 -0.00232479 -2.3246e-05)
(0.00232214 -0.00195195 -2.0272e-05)
(0.00201186 -0.00163287 -1.75635e-05)
(0.00173155 -0.00136115 -1.51166e-05)
(0.0014802 -0.00113077 -1.29225e-05)
(0.00125639 -0.000936144 -1.09687e-05)
(0.00105838 -0.000772216 -9.24019e-06)
(0.000884292 -0.000634461 -7.72046e-06)
(0.000732194 -0.000518947 -6.39268e-06)
(0.000600131 -0.000422268 -5.23978e-06)
(0.000486216 -0.000341518 -4.24529e-06)
(0.000388616 -0.000274151 -3.39322e-06)
(0.000305577 -0.000217888 -2.66826e-06)
(0.000235474 -0.000170706 -2.05622e-06)
(0.000176808 -0.000130892 -1.54403e-06)
(0.000128274 -9.71652e-05 -1.12028e-06)
(8.87068e-05 -6.86312e-05 -7.74814e-07)
(5.70324e-05 -4.45777e-05 -4.98243e-07)
(3.22712e-05 -2.42905e-05 -2.82024e-07)
(1.35506e-05 -7.16327e-06 -1.1854e-07)
(9.95403e-08 7.20991e-06 -1.0601e-09)
(-8.7884e-06 1.9047e-05 7.65834e-08)
(-1.37801e-05 2.84094e-05 1.20211e-07)
(-1.55159e-05 3.52025e-05 1.35411e-07)
(-1.4638e-05 3.91562e-05 1.27787e-07)
(-1.18151e-05 3.97778e-05 1.03177e-07)
(-7.82011e-06 3.63106e-05 6.83215e-08)
(-3.54959e-06 2.76093e-05 3.10724e-08)
(-3.44516e-07 1.20888e-05 3.63969e-09)
(0.00643452 -0.00792325 -5.61664e-05)
(0.00589096 -0.00685865 -5.14222e-05)
(0.00535236 -0.00590466 -4.67214e-05)
(0.00482732 -0.00505682 -4.21388e-05)
(0.00432292 -0.00430923 -3.77363e-05)
(0.0038446 -0.00365491 -3.35614e-05)
(0.00339633 -0.0030862 -2.96486e-05)
(0.00298067 -0.00259511 -2.60204e-05)
(0.00259895 -0.00217357 -2.26884e-05)
(0.00225151 -0.00181375 -1.96556e-05)
(0.00193787 -0.00150818 -1.69177e-05)
(0.00165688 -0.00124987 -1.44649e-05)
(0.00140695 -0.00103242 -1.22831e-05)
(0.00118612 -0.000849988 -1.03554e-05)
(0.0009922 -0.000697349 -8.66252e-06)
(0.000822915 -0.000569897 -7.18469e-06)
(0.000675995 -0.000463659 -5.90209e-06)
(0.000549231 -0.000375231 -4.79544e-06)
(0.000440562 -0.000301741 -3.84675e-06)
(0.000348062 -0.000240719 -3.03921e-06)
(0.000269928 -0.000189986 -2.35706e-06)
(0.000204479 -0.000147626 -1.78563e-06)
(0.000150136 -0.000112014 -1.31116e-06)
(0.000105513 -8.1931e-05 -9.21555e-07)
(6.94192e-05 -5.6526e-05 -6.06411e-07)
(4.08343e-05 -3.51407e-05 -3.56818e-07)
(1.88409e-05 -1.71289e-05 -1.64765e-07)
(2.58686e-06 -1.94275e-06 -2.28127e-08)
(-8.69282e-06 1.07835e-05 7.57125e-08)
(-1.569e-05 2.1239e-05 1.3685e-07)
(-1.90485e-05 2.94638e-05 1.66219e-07)
(-1.93853e-05 3.5349e-05 1.69205e-07)
(-1.73246e-05 3.86197e-05 1.51254e-07)
(-1.35222e-05 3.87913e-05 1.18091e-07)
(-8.74881e-06 3.51318e-05 7.64387e-08)
(-3.90314e-06 2.65495e-05 3.41687e-08)
(-3.67789e-07 1.15527e-05 3.90128e-09)
(0.00660587 -0.00777307 -5.76626e-05)
(0.00600306 -0.00667876 -5.24013e-05)
(0.00541399 -0.00570743 -4.72599e-05)
(0.00484715 -0.00485229 -4.23124e-05)
(0.00430919 -0.00410524 -3.76168e-05)
(0.0038049 -0.00345734 -3.32151e-05)
(0.00333741 -0.0028992 -2.91346e-05)
(0.00290842 -0.00242142 -2.53899e-05)
(0.00251833 -0.00201477 -2.19848e-05)
(0.0021666 -0.00167049 -1.89145e-05)
(0.00185189 -0.00138042 -1.61673e-05)
(0.00157235 -0.00113707 -1.37271e-05)
(0.00132573 -0.000933694 -1.15742e-05)
(0.00110953 -0.000764272 -9.68681e-06)
(0.00092111 -0.000623489 -8.04196e-06)
(0.000757813 -0.000506711 -6.61639e-06)
(0.000617063 -0.000409972 -5.38764e-06)
(0.000496412 -0.000329897 -4.33435e-06)
(0.000393646 -0.00026367 -3.43719e-06)
(0.000306756 -0.00020891 -2.67861e-06)
(0.000233901 -0.000163571 -2.04255e-06)
(0.00017337 -0.000125881 -1.51405e-06)
(0.000123537 -9.434e-05 -1.07894e-06)
(8.29613e-05 -6.77965e-05 -7.24655e-07)
(5.0439e-05 -4.54255e-05 -4.40691e-07)
(2.50026e-05 -2.66006e-05 -2.1859e-07)
(5.79802e-06 -1.07486e-05 -5.0886e-08)
(-7.99621e-06 2.60625e-06 6.95922e-08)
(-1.71291e-05 1.37821e-05 1.49377e-07)
(-2.22717e-05 2.29398e-05 1.94324e-07)
(-2.40415e-05 3.01009e-05 2.09823e-07)
(-2.30291e-05 3.51447e-05 2.01029e-07)
(-1.9838e-05 3.77936e-05 1.73208e-07)
(-1.51086e-05 3.75728e-05 1.31952e-07)
(-9.60627e-06 3.37772e-05 8.39334e-08)
(-4.22772e-06 2.53726e-05 3.70113e-08)
(-3.89066e-07 1.0969e-05 4.14057e-09)
(0.00674881 -0.0075744 -5.89109e-05)
(0.0060845 -0.00645677 -5.31127e-05)
(0.00544444 -0.00547469 -4.75261e-05)
(0.00483662 -0.00461862 -4.22209e-05)
(0.00426689 -0.00387803 -3.7248e-05)
(0.00373907 -0.00324182 -3.26408e-05)
(0.0032552 -0.00269884 -2.84172e-05)
(0.00281584 -0.00223821 -2.4582e-05)
(0.00242034 -0.00184958 -2.11296e-05)
(0.00206712 -0.00152333 -1.80462e-05)
(0.00175395 -0.00125067 -1.53124e-05)
(0.00147818 -0.00102371 -1.29051e-05)
(0.00123689 -0.000835444 -1.07987e-05)
(0.00102704 -0.000679734 -8.96677e-06)
(0.000845562 -0.000551252 -7.38248e-06)
(0.000689443 -0.000445401 -6.01955e-06)
(0.000555835 -0.000358274 -4.85314e-06)
(0.00044209 -0.000286564 -3.86012e-06)
(0.000345855 -0.000227531 -3.01997e-06)
(0.000265049 -0.000178907 -2.31451e-06)
(0.000197809 -0.000138794 -1.72745e-06)
(0.000142415 -0.000105596 -1.2438e-06)
(9.72307e-05 -7.79633e-05 -8.49268e-07)
(6.07978e-05 -5.48206e-05 -5.31146e-07)
(3.19176e-05 -3.53585e-05 -2.78978e-07)
(9.6683e-06 -1.89686e-05 -8.47032e-08)
(-6.74614e-06 -5.1522e-06 5.86408e-08)
(-1.81074e-05 6.48626e-06 1.57879e-07)
(-2.51366e-05 1.62127e-05 2.19298e-07)
(-2.84766e-05 2.41601e-05 2.48508e-07)
(-2.87149e-05 3.03337e-05 2.50636e-07)
(-2.64139e-05 3.46042e-05 2.30591e-07)
(-2.21541e-05 3.6693e-05 1.9344e-07)
(-1.65582e-05 3.61367e-05 1.44617e-07)
(-1.03829e-05 3.22596e-05 9.07218e-08)
(-4.51921e-06 2.40886e-05 3.95641e-08)
(-4.07949e-07 1.03423e-05 4.35335e-09)
(0.00685471 -0.00732338 -5.98359e-05)
(0.00612811 -0.00619043 -5.3494e-05)
(0.00543792 -0.00520546 -4.74698e-05)
(0.00479122 -0.00435584 -4.1825e-05)
(0.00419267 -0.00362831 -3.66005e-05)
(0.00364474 -0.00300953 -3.18177e-05)
(0.00314812 -0.00248651 -2.74828e-05)
(0.00270204 -0.00204697 -2.35888e-05)
(0.00230458 -0.00167947 -2.01192e-05)
(0.00195306 -0.00137364 -1.70507e-05)
(0.00164429 -0.00112019 -1.43553e-05)
(0.00137478 -0.000910886 -1.20025e-05)
(0.00114095 -0.000738594 -9.96126e-06)
(0.000939229 -0.000597146 -8.20024e-06)
(0.000766138 -0.000481268 -6.68915e-06)
(0.000618365 -0.000386468 -5.39906e-06)
(0.000492836 -0.00030895 -4.30316e-06)
(0.000386739 -0.000245518 -3.37691e-06)
(0.000297614 -0.000193539 -2.59882e-06)
(0.000223321 -0.000150876 -1.95021e-06)
(0.000161983 -0.000115797 -1.41468e-06)
(0.000111895 -8.68916e-05 -9.77349e-07)
(7.14513e-05 -6.29733e-05 -6.24197e-07)
(3.92164e-05 -4.30555e-05 -3.42723e-07)
(1.40166e-05 -2.63451e-05 -1.22682e-07)
(-5.03265e-06 -1.2247e-05 4.36553e-08)
(-1.86784e-05 -3.34765e-07 1.62827e-07)
(-2.76546e-05 9.70569e-06 2.41242e-07)
(-3.26417e-05 1.80869e-05 2.84833e-07)
(-3.42469e-05 2.49141e-05 2.98898e-07)
(-3.30244e-05 3.01788e-05 2.88271e-07)
(-2.95063e-05 3.3745e-05 2.57601e-07)
(-2.42488e-05 3.53352e-05 2.11738e-07)
(-1.78546e-05 3.44996e-05 1.55944e-07)
(-1.10691e-05 3.05938e-05 9.67195e-08)
(-4.77338e-06 2.27085e-05 4.17902e-08)
(-4.24003e-07 9.67736e-06 4.53503e-09)
(0.00691521 -0.00701633 -6.03647e-05)
(0.00612675 -0.00587805 -5.34828e-05)
(0.00538869 -0.00489954 -4.70406e-05)
(0.00470657 -0.00406473 -4.10866e-05)
(0.00408338 -0.00335752 -3.56469e-05)
(0.00351986 -0.00276224 -3.07279e-05)
(0.003015 -0.00226413 -2.6321e-05)
(0.00256648 -0.00184957 -2.24057e-05)
(0.00217103 -0.0015062 -1.89535e-05)
(0.00182475 -0.00122301 -1.59307e-05)
(0.00152345 -0.000990329 -1.33005e-05)
(0.00126283 -0.000799761 -1.10253e-05)
(0.00103865 -0.000644117 -9.06821e-06)
(0.000846832 -0.000517302 -7.39366e-06)
(0.000683552 -0.000414173 -5.9682e-06)
(0.000545245 -0.000330404 -4.76074e-06)
(0.000428668 -0.00026237 -3.74299e-06)
(0.000330897 -0.000207027 -2.8894e-06)
(0.000249392 -0.000161891 -2.17783e-06)
(0.000181976 -0.000124971 -1.58924e-06)
(0.000126769 -9.47052e-05 -1.10724e-06)
(8.2108e-05 -6.98712e-05 -7.17286e-07)
(4.64501e-05 -4.94464e-05 -4.0592e-07)
(1.84262e-05 -3.25427e-05 -1.61209e-07)
(-3.09252e-06 -1.8396e-05 2.66979e-08)
(-1.89602e-05 -6.42966e-06 1.65262e-07)
(-2.98845e-05 3.71585e-06 2.60676e-07)
(-3.65451e-05 1.2279e-05 3.18874e-07)
(-3.95705e-05 1.9421e-05 3.45338e-07)
(-3.95247e-05 2.52205e-05 3.44987e-07)
(-3.69253e-05 2.96561e-05 3.2234e-07)
(-3.22731e-05 3.25873e-05 2.81766e-07)
(-2.60982e-05 3.37401e-05 2.27894e-07)
(-1.89817e-05 3.26801e-05 1.65792e-07)
(-1.16551e-05 2.87959e-05 1.01842e-07)
(-4.98595e-06 2.12447e-05 4.3652e-08)
(-4.36757e-07 8.97982e-06 4.68071e-09)
(0.0069194 -0.00665129 -6.0402e-05)
(0.00607213 -0.00551937 -5.30067e-05)
(0.00529065 -0.0045579 -4.61853e-05)
(0.00457842 -0.00374709 -3.99684e-05)
(0.00393626 -0.00306791 -3.4363e-05)
(0.00336281 -0.00250239 -2.93573e-05)
(0.00285512 -0.00203412 -2.49255e-05)
(0.00240913 -0.0016483 -2.10323e-05)
(0.00202009 -0.00133181 -1.76361e-05)
(0.00168288 -0.0010732 -1.46924e-05)
(0.00139231 -0.0008626 -1.21557e-05)
(0.00114327 -0.000691573 -9.98161e-06)
(0.000930921 -0.000553017 -8.12782e-06)
(0.00075076 -0.000440999 -6.55499e-06)
(0.000598654 -0.000350587 -5.22706e-06)
(0.000470857 -0.000277681 -4.11134e-06)
(0.000364019 -0.000218879 -3.1786e-06)
(0.000275156 -0.000171342 -2.40277e-06)
(0.000201693 -0.000132764 -1.76139e-06)
(0.000141438 -0.000101321 -1.23531e-06)
(9.25292e-05 -7.56221e-05 -8.08294e-07)
(5.33618e-05 -5.4617e-05 -4.66306e-07)
(2.24913e-05 -3.74396e-05 -1.96744e-07)
(-1.35165e-06 -2.33089e-05 1.14654e-08)
(-1.92302e-05 -1.15118e-05 1.67596e-07)
(-3.19711e-05 -1.50262e-06 2.78868e-07)
(-4.02497e-05 7.01877e-06 3.51185e-07)
(-4.46866e-05 1.42266e-05 3.89968e-07)
(-4.58493e-05 2.02366e-05 4.00168e-07)
(-4.42521e-05 2.51019e-05 3.86272e-07)
(-4.03735e-05 2.87888e-05 3.52454e-07)
(-3.46814e-05 3.11542e-05 3.02801e-07)
(-2.76787e-05 3.19296e-05 2.41701e-07)
(-1.99237e-05 3.06983e-05 1.74024e-07)
(-1.21316e-05 2.68838e-05 1.06007e-07)
(-5.15259e-06 1.97107e-05 4.51118e-08)
(-4.45697e-07 8.25582e-06 4.78512e-09)
(0.00685808 -0.00622696 -5.98675e-05)
(0.00595696 -0.00511525 -5.20019e-05)
(0.00513848 -0.00418271 -4.48575e-05)
(0.00440321 -0.00340583 -3.84394e-05)
(0.00374925 -0.00276265 -3.27309e-05)
(0.00317272 -0.00223314 -2.76981e-05)
(0.00266845 -0.00179943 -2.32963e-05)
(0.00223055 -0.00144579 -1.94735e-05)
(0.00185272 -0.00115858 -1.61751e-05)
(0.00152862 -0.000926143 -1.33457e-05)
(0.00125209 -0.00073858 -1.09317e-05)
(0.00101733 -0.000587596 -8.8822e-06)
(0.000818953 -0.000466299 -7.15037e-06)