/*--------------------------------*- C++ -*----------------------------------*\
| =========                 |                                                 |
| \\      /  F ield         | OpenFOAM: The Open Source CFD Toolbox           |
|  \\    /   O peration     | Version:  v2012                                 |
|   \\  /    A nd           | Website:  www.openfoam.com                      |
|    \\/     M anipulation  |                                                 |
\*---------------------------------------------------------------------------*/
FoamFile
{
    version     2.0;
    format      ascii;
    class       volScalarField;
    location    "0.25";
    object      alpha.water;
}
// * * * * * * * * * * * * * * * * * * * * * * * * * * * * * * * * * * * * * //

dimensions      [0 0 0 0 0 0 0];


internalField   nonuniform List<scalar> 
3332
(
-1.17538e-80
-5.22094e-72
-1.41815e-58
-3.19443e-53
-9.90244e-52
-3.21162e-41
2.58529e-41
7.57132e-33
-5.70317e-78
-1.37634e-68
-1.82925e-57
-1.00367e-52
-1.05753e-45
-2.19994e-37
-3.27092e-34
1.7656e-32
1.99757e-29
2.92406e-27
6.66923e-26
7.00899e-24
1.1456e-22
1.01683e-21
3.47151e-20
-2.1573e-75
-4.30436e-66
-1.14638e-53
1.55811e-52
5.57608e-46
-1.96423e-36
-1.84833e-33
8.24582e-30
1.36157e-26
8.52074e-25
2.45927e-23
1.24053e-21
1.80265e-20
2.20777e-19
7.54946e-17
-6.30482e-73
-3.10981e-63
-5.97741e-51
-1.92779e-48
1.98101e-43
-3.54887e-39
4.54303e-32
1.34965e-27
1.23557e-24
6.38229e-23
1.60193e-21
7.39336e-20
4.30983e-18
2.91185e-16
1.11921e-14
-1.36927e-70
-1.01531e-59
-2.38448e-48
-1.19114e-45
-3.68504e-41
-7.31312e-35
7.18918e-30
2.47149e-25
9.93279e-23
4.28644e-21
1.09519e-19
6.9401e-17
2.22501e-15
2.16827e-14
4.25882e-14
-2.10352e-68
-1.97484e-56
-1.40531e-45
1.13264e-43
1.68818e-38
-3.88015e-32
9.2924e-28
2.95359e-23
7.30251e-21
1.01075e-18
1.92736e-16
9.45255e-15
2.99191e-14
4.15431e-14
4.38631e-14
-2.11652e-66
-3.02609e-53
-1.57072e-44
7.72734e-41
4.18628e-36
-2.60691e-32
1.04923e-25
2.80606e-21
6.42678e-18
8.57914e-16
1.53507e-14
3.0435e-14
3.69753e-14
3.63872e-14
3.63727e-14
-1.22073e-64
-7.46558e-49
-8.02568e-42
4.01499e-38
9.07583e-34
-3.43161e-31
1.05037e-23
1.15612e-17
1.95839e-15
1.6661e-14
2.83367e-14
3.01943e-14
2.98206e-14
3.02542e-14
3.18108e-14
-1.94131e-63
-3.27275e-50
-3.83617e-38
7.54647e-35
1.61365e-31
-2.32138e-30
5.08719e-18
1.71888e-15
1.15942e-14
2.14756e-14
2.1143e-14
2.20577e-14
2.67524e-14
8.12522e-14
1.49102e-13
-8.45332e-61
-5.33363e-44
-2.72507e-40
1.24261e-31
1.99768e-29
2.13993e-27
5.6238e-16
4.54938e-15
1.21772e-14
1.26045e-14
1.66209e-14
9.84685e-14
2.32595e-13
3.05466e-13
3.24274e-13
1.26071e-60
-1.35391e-41
-5.49308e-35
3.30929e-29
2.15554e-27
9.18617e-18
9.74634e-16
4.17643e-15
5.71476e-15
5.69314e-14
2.10852e-13
3.1136e-13
3.34499e-13
3.34965e-13
3.35121e-13
-1.24808e-55
-2.1757e-44
-3.17398e-33
5.94332e-27
2.01799e-25
5.72799e-17
5.54044e-16
2.1711e-15
1.05929e-13
2.54681e-13
3.28189e-13
3.28966e-13
3.29468e-13
3.25399e-13
3.3201e-13
-3.47378e-52
-3.9737e-38
4.22615e-34
8.36079e-25
1.63212e-23
6.50784e-17
2.81621e-15
8.679e-14
2.17397e-13
2.62317e-13
2.54888e-13
2.13231e-13
1.82483e-13
2.05816e-13
2.23274e-13
-7.4572e-49
-1.90849e-35
-5.00641e-31
9.52227e-23
1.13331e-21
4.95732e-15
4.29804e-14
1.36198e-13
1.82717e-13
1.47938e-13
7.69377e-14
6.23203e-14
8.68227e-14
1.60898e-13
1.63933e-13
-3.0519e-45
-7.24965e-33
-4.35102e-29
8.94846e-21
6.71505e-20
8.45778e-15
5.28423e-14
6.59422e-14
4.86396e-14
3.16759e-14
3.63664e-14
4.54637e-14
6.32311e-14
1.1645e-13
1.58374e-13
-1.08274e-42
-3.20718e-30
6.79401e-27
7.32617e-19
4.29791e-18
3.37739e-15
1.8998e-14
1.97932e-14
2.21429e-14
2.52642e-14
3.02375e-14
3.84593e-14
4.90028e-14
6.11969e-14
1.23273e-13
3.40643e-40
-1.90086e-28
2.20178e-24
6.72465e-16
6.69404e-15
2.52524e-14
1.83033e-14
1.66683e-14
2.08658e-14
2.34285e-14
2.67396e-14
3.26816e-14
4.24761e-14
5.21348e-14
7.0065e-14
4.31101e-37
-1.73312e-31
6.28374e-16
9.54339e-14
2.93566e-13
3.42943e-13
2.6833e-13
3.71305e-14
2.11352e-14
2.24512e-14
2.5137e-14
2.97296e-14
3.77048e-14
4.95787e-14
5.83792e-14
4.30569e-34
1.85458e-31
7.56725e-14
3.2549e-13
4.43003e-13
4.48908e-13
3.92044e-13
8.15846e-14
2.20255e-14
2.25868e-14
2.47341e-14
2.85174e-14
3.47588e-14
4.51266e-14
5.30617e-14
3.28851e-31
1.89722e-28
1.50337e-13
3.2926e-13
4.11535e-13
4.54824e-13
4.46966e-13
1.03909e-13
2.96141e-14
2.37678e-14
2.70412e-14
2.86767e-14
3.35423e-14
4.07026e-14
4.83151e-14
1.898e-28
9.09406e-16
1.51021e-13
1.52335e-13
1.97705e-13
4.95351e-13
9.84166e-13
2.72657e-13
1.04764e-13
3.6672e-14
5.05716e-14
2.93786e-14
3.28464e-14
3.79511e-14
4.5502e-14
7.99941e-26
3.12564e-14
5.9528e-14
1.63747e-13
3.47325e-13
1.47243e-12
8.05976e-12
2.13747e-12
7.96085e-13
1.59526e-13
2.52905e-13
4.19947e-14
3.39758e-14
3.6816e-14
4.30578e-14
2.43755e-23
3.34813e-14
6.86643e-14
2.46264e-12
3.58483e-12
1.45158e-11
7.9701e-11
1.96111e-11
6.39079e-12
1.19773e-12
1.85817e-12
1.39187e-13
3.59621e-14
3.7319e-14
4.13689e-14
5.2495e-21
1.53484e-14
1.0383e-12
3.82628e-11
4.25044e-11
1.41297e-10
7.00719e-10
1.6068e-10
4.56314e-11
9.04016e-12
1.32587e-11
8.19877e-13
3.78922e-14
3.75533e-14
4.08585e-14
8.07533e-19
8.35566e-13
2.09229e-11
4.77703e-10
4.39529e-10
1.2246e-09
5.35418e-09
1.15691e-09
2.90511e-10
6.21785e-11
8.73685e-11
5.30458e-12
3.82863e-14
3.78922e-14
4.0672e-14
8.95079e-17
2.52751e-11
3.18121e-10
4.93705e-09
3.50773e-09
8.39646e-09
3.48297e-08
7.31723e-09
1.60152e-09
3.86412e-10
5.18416e-10
3.21915e-11
3.84497e-14
3.82863e-14
3.86166e-14
7.53893e-15
5.39611e-10
3.96648e-09
3.84928e-08
2.08466e-08
4.19464e-08
1.75552e-07
3.63162e-08
7.96782e-09
2.17536e-09
2.79806e-09
1.87013e-10
6.50952e-12
4.97417e-13
7.86046e-09
3.74716e-08
2.02637e-07
1.17598e-07
2.24464e-07
7.96163e-07
1.56384e-07
3.03679e-08
1.11438e-08
1.35262e-08
9.87355e-10
4.09373e-11
2.58834e-11
1.02427e-07
2.25407e-07
1.0458e-06
6.2637e-07
1.38041e-06
4.60272e-06
7.89691e-07
6.29728e-08
5.24284e-08
4.79753e-08
5.35035e-09
2.34024e-10
1.07825e-09
1.77221e-06
1.19728e-06
7.83796e-06
2.87586e-06
8.42084e-06
2.58814e-05
4.53402e-06
2.5114e-07
2.2956e-07
1.97002e-07
2.33455e-08
1.30088e-09
3.71832e-08
1.97256e-05
8.68368e-06
4.62113e-05
1.78699e-05
3.711e-05
0.000126214
2.31985e-05
9.80874e-07
9.43944e-07
1.26418e-06
9.06683e-08
7.16426e-09
1.31724e-06
9.58525e-05
6.8367e-05
0.000290979
0.000201021
0.000168048
0.000462794
0.000105912
6.82566e-06
3.84762e-06
6.15828e-06
3.29865e-07
3.44118e-08
3.71512e-05
0.000485677
0.000481344
0.00237985
0.00458967
0.00318681
0.00389269
0.000577395
3.78088e-05
1.94462e-05
3.24377e-05
1.44887e-06
1.61616e-07
0.00419698
0.0116782
0.00806073
0.0148169
0.0375356
0.0364152
0.0223018
0.00129913
0.000375907
0.000134839
3.55127e-05
5.99609e-06
6.22849e-07
0.157295
0.187529
0.1388
0.0811778
0.139454
0.120646
0.0641557
0.00470261
0.00545657
0.00543159
0.000422903
3.12758e-05
2.95485e-05
0.383548
0.580792
0.532387
0.437529
0.371323
0.28736
0.139973
0.0552838
0.131041
0.143342
0.0240795
0.000647804
0.00118328
0.653506
0.709523
0.711598
0.660141
0.580241
0.536648
0.490459
0.479663
0.441416
0.410728
0.157598
0.0333294
0.00303295
0.818577
0.789692
0.87602
0.846208
0.797135
0.75197
0.719423
0.719361
0.752404
0.893128
0.886519
0.829967
0.959183
0.94814
0.925915
0.906874
0.895056
0.900785
0.935822
0.999996
0.90248
0.847744
0.991226
0.990238
0.984265
0.980007
0.978668
0.984106
0.996209
1
0.900341
0.867521
0.998934
1
1
1
1
1
1
1
0.906295
0.944748
0.999635
1
1
1
1
1
1
1
0.917321
0.994297
1
0.999748
1
1
1
1
1
1
0.916019
0.99996
0.999008
1
1
1
1
1
1
1
0.724914
0.999601
0.828171
1
1
1
1
1
1
1
0.723128
0.863368
0.947087
1
1
1
1
1
1
1
1
1
1
1
1
1
1
1
1
1
1
1
1
1
1
1
1
1
1
1
1
1
1
1
1
1
1
1
1
1
1
1
1
1
1
1
1
1
1
1
1
1
1
1
1
1
1
1
1
1
1
1
1
1
1
1
1
1
1
1
1
1
1
1
1
1
1
1
1
1
1
1
1
1
1
1
1
1
1
1
1
1
1
1
1
1
1
1
1
1
1
1
1
1
1
1
1
1
1
1
1
1
1
1
1
1
1
1
1
1
1
1
1
1
1
1
1
1
1
1
1
1
1
1
1
1
1
1
1
1
1
1
1
1
1
1
1
1
1
1
1
1
1
1
1
1
1
1
1
1
1
1
1
1
1
1
1
1
1
1
1
1
1
1
1
1
1
1
1
1
1
1
1
1
1
1
1
1
1
1
1
1
1
1
1
1
1
1
1
1
1
1
1
1
1
1
1
1
1
1
1
1
1
1
1
1
1
1
1
1
1
1
1
1
1
1
1
1
1
1
1
1
1
1
1
1
1
1
1
1
1
1
1
1
1
1
1
1
1
1
1
1
1
1
1
1
1
1
1
1
1
1
1
1
1
1
1
1
1
1
1
1
1
1
1
1
1
1
1
1
1
1
1
1
1
1
1
1
1
1
1
1
1
1
1
1
1
1
1
1
1
1
1
1
1
1
1
1
1
1
1
1
1
1
1
1
1
1
1
1
1
1
1
1
1
1
1
1
1
1
1
1
1
1
1
1
1
1
1
1
1
1
1
1
1
1
1
1
1
1
1
1
1
1
1
1
1
1
1
1
1
1
1
1
1
1
1
1
1
1
1
1
1
1
1
1
1
1
1
1
1
1
1
1
1
1
1
1
1
1
1
1
1
1
1
1
1
1
1
1
1
1
1
1
1
1
1
1
1
1
1
1
1
1
1
1
1
1
1
1
1
1
1
1
1
1
1
1
1
1
1
1
1
1
1
1
1
1
1
1
1
1
1
1
1
1
1
1
1
1
1
1
1
1
1
1
1
1
1
1
1
1
1
1
1
1
1
1
1
1
1
1
1
1
1
1
1
1
1
1
1
1
1
1
1
1
1
1
1
1
1
1
1
1
1
1
1
1
1
1
1
1
1
1
1
1
1
1
1
1
1
1
1
1
1
1
1
1
1
1
1
1
1
1
1
1
1
1
1
1
1
1
1
1
1
1
1
1
1
1
1
1
1
1
1
1
1
1
1
1
1
1
1
1
1
1
1
1
1
1
1
1
1
1
1
1
1
1
1
1
1
1
1
1
1
1
1
1
1
1
1
1
1
1
1
1
1
1
1
1
1
1
1
1
1
1
1
1
1
1
1
1
1
1
1
1
1
1
1
1
1
1
1
1
1
1
1
1
1
1
1
1
1
1
1
1
1
1
1
1
1
1
1
1
1
1
1
1
1
1
1
1
1
1
1
1
1
1
1
1
1
1
1
1
1
1
1
1
1
1
1
1
1
1
1
1
1
1
1
1
1
1
1
1
1
1
1
1
1
1
1
1
1
1
1
1
1
1
1
1
1
1
1
1
1
1
1
1
1
1
1
1
1
1
1
1
1
1
1
1
1
1
1
1
1
1
1
1
1
1
1
1
1
1
1
1
1
1
1
1
1
1
1
1
1
1
1
1
1
1
1
1
1
1
1
1
1
1
1
1
1
1
1
1
1
1
1
1
1
1
1
1
1
1
1
1
1
1
1
1
1
1
1
1
1
1
1
1
1
1
1
1
1
1
1
1
1
1
1
1
1
1
1
1
1
1
1
1
1
1
1
1
1
1
1
1
1
1
1
1
1
1
1
1
1
1
1
1
1
1
1
1
1
1
1
1
1
1
1
1
1
1
1
1
1
1
1
1
1
1
1
1
1
1
1
1
1
1
1
1
1
1
1
1
1
1
1
1
1
1
1
1
1
1
1
1
1
1
1
1
1
1
1
1
1
1
1
1
1
1
1
1
1
1
1
1
1
1
1
1
1
1
1
1
1
1
1
1
1
1
1
1
1
1
1
1
1
1
1
1
1
1
1
1
1
1
1
1
1
1
1
1
1
1
1
1
1
1
1
1
1
1
1
1
1
1
1
1
1
1
1
1
1
1
1
1
1
1
1
1
1
1
1
1
1
1
1
1
1
1
1
1
1
1
1
1
1
1
1
1
1
1
1
1
1
1
1
1
1
1
1
1
1
1
1
1
1
1
1
1
1
1
1
1
1
1
1
1
1
1
1
1
1
1
1
1
1
1
1
1
1
1
1
1
1
1
1
1
1
1
1
1
1
1
1
1
1
1
1
1
1
1
1
1
1
1
1
1
1
1
1
1
1
1
1
1
1
1
1
1
1
1
1
1
1
1
1
1
1
1
-1.4072e-80
-8.37437e-72
-1.35936e-58
-3.12477e-53
-8.43592e-52
-3.11899e-41
2.51072e-41
7.56651e-33
-6.90914e-78
-2.23408e-68
-1.75646e-57
-1.00092e-52
-1.03699e-45
-2.15444e-37
-3.26801e-34
1.78352e-32
2.02079e-29
2.92946e-27
6.6724e-26
7.00759e-24
1.14481e-22
1.01646e-21
3.46978e-20
-2.5918e-75
-6.88901e-66
-1.08827e-53
1.48039e-52
5.10615e-46
-1.92798e-36
-1.84605e-33
8.27761e-30
1.36767e-26
8.5311e-25
2.45951e-23
1.24037e-21
1.80164e-20
2.20705e-19
7.54361e-17
-7.5134e-73
-4.85198e-63
-5.685e-51
-1.86642e-48
1.81642e-43
-3.50058e-39
4.38932e-32
1.31571e-27
1.24094e-24
6.38991e-23
1.60207e-21
7.39224e-20
4.30512e-18
2.91044e-16
1.11874e-14
-1.62056e-70
-1.59182e-59
-2.26686e-48
-1.11552e-45
-3.80856e-41
-7.22859e-35
6.97218e-30
2.44402e-25
9.97383e-23
4.29148e-21
1.09528e-19
6.93874e-17
2.22366e-15
2.16771e-14
4.25853e-14
-2.47788e-68
-3.10833e-56
-1.32464e-45
1.04918e-43
1.54755e-38
-3.82885e-32
9.01723e-28
2.93325e-23
7.33235e-21
1.01265e-18
1.92735e-16
9.45117e-15
2.99175e-14
4.15416e-14
4.38631e-14
-2.48785e-66
-4.77139e-53
-9.30691e-44
6.56028e-41
3.83813e-36
-2.50628e-32
1.01816e-25
2.79248e-21
6.45719e-18
8.58936e-16
1.53507e-14
3.04323e-14
3.69753e-14
3.63922e-14
3.63742e-14
-1.43265e-64
-1.17891e-48
-7.53986e-42
3.73121e-38
8.31665e-34
-3.48813e-31
1.01928e-23
1.14732e-17
1.96606e-15
1.66667e-14
2.83368e-14
3.01913e-14
2.98218e-14
3.02488e-14
3.17992e-14
-2.49903e-63
-1.32093e-49
-3.6343e-38
1.31536e-35
1.54554e-31
-1.59701e-29
5.03979e-18
1.71899e-15
1.16269e-14
2.14756e-14
2.1106e-14
2.20104e-14
2.67981e-14
8.07244e-14
1.48536e-13
-6.19901e-61
-8.57771e-44
-3.73364e-40
1.05535e-31
1.91292e-29
1.86841e-27
5.64555e-16
4.58315e-15
1.2178e-14
1.26009e-14
1.65956e-14
9.80762e-14
2.32925e-13
3.04981e-13
3.22527e-13
8.83568e-61
-2.19379e-41
-5.18917e-35
2.94746e-29
2.06555e-27
8.90304e-18
9.90827e-16
4.19723e-15
5.73165e-15
5.66128e-14
2.10368e-13
3.11451e-13
3.34102e-13
3.34708e-13
3.34505e-13
-9.14e-56
-1.94485e-43
-3.02061e-33
5.37524e-27
1.93373e-25
5.71562e-17
5.81375e-16
2.22731e-15
1.06299e-13
2.54741e-13
3.28356e-13
3.28963e-13
3.29451e-13
3.26879e-13
3.35415e-13
-2.52362e-52
-6.41423e-38
6.56346e-34
7.61715e-25
1.56398e-23
6.27893e-17
2.47716e-15
8.78703e-14
2.17906e-13
2.62317e-13
2.5371e-13
2.21772e-13
1.85965e-13
1.99518e-13
2.94092e-13
-5.37142e-49
-3.05212e-35
-3.69004e-31
8.7094e-23
1.086e-21
5.07185e-15
4.39727e-14
1.36972e-13
1.82155e-13
1.46567e-13
7.50724e-14
6.09728e-14
8.15938e-14
1.52956e-13
2.01226e-13
-2.0544e-45
-1.1353e-32
-5.45639e-30
8.20244e-21
6.43469e-20
9.18878e-15
5.61688e-14
6.65538e-14
4.82312e-14
3.11255e-14
3.64449e-14
4.53654e-14
6.1552e-14
1.44027e-13
1.69653e-13
-7.7843e-43
-3.5066e-29
3.1706e-27
6.35619e-19
3.64058e-18
4.94606e-15
2.04566e-14
2.22164e-14
2.24592e-14
2.4845e-14
3.08839e-14
4.05008e-14
4.99477e-14
6.78187e-14
1.28893e-13
2.42771e-40
-2.9579e-28
-3.33574e-24
5.0725e-16
6.19181e-15
1.26616e-14
1.36733e-14
1.854e-14
2.12616e-14
2.34379e-14
2.73652e-14
3.44633e-14
4.41577e-14
5.33281e-14
6.66118e-14
3.0726e-37
-2.66205e-31
5.11005e-16
8.74861e-14
2.81677e-13
3.14398e-13
1.53512e-13
2.03249e-14
2.11164e-14
2.26991e-14
2.5737e-14
3.05292e-14
3.94027e-14
5.02235e-14
5.7649e-14
3.06881e-34
-1.90926e-31
7.16722e-14
3.64375e-13
4.4184e-13
4.47447e-13
3.39755e-13
3.17986e-14
2.11989e-14
2.28765e-14
2.52553e-14
2.888e-14
3.60112e-14
4.42644e-14
5.35942e-14
2.34378e-31
1.34898e-28
1.64551e-13
3.75287e-13
4.09594e-13
4.52474e-13
3.84689e-13
4.92517e-14
2.16461e-14
2.79516e-14
2.61375e-14
2.79895e-14
3.44439e-14
4.00669e-14
5.05839e-14
1.3527e-28
1.54069e-15
1.64164e-13
1.49484e-13
1.87779e-13
4.32977e-13
5.1858e-13
1.04675e-13
2.54016e-14
8.54051e-14
3.8357e-14
2.88843e-14
3.36518e-14
3.79934e-14
4.57971e-14
5.70114e-26
2.97056e-14
7.56346e-14
9.46107e-14
3.11279e-13
1.02462e-12
3.39974e-12
8.00742e-13
5.86905e-14
6.0709e-13
1.52451e-13
3.21519e-14
3.49673e-14
3.66556e-14
4.44503e-14
1.73723e-23
3.36284e-14
6.88431e-14
5.64354e-13
3.46143e-12
8.97612e-12
3.2694e-11
7.02513e-12
3.48183e-13
4.85588e-12
1.05038e-12
6.28519e-14
3.68148e-14
3.74101e-14
4.15007e-14
3.7413e-21
2.66821e-14
9.58235e-13
8.37618e-12
4.07319e-11
8.83759e-11
2.85156e-10
5.53771e-11
2.5942e-12
3.55051e-11
7.4517e-12
2.70514e-13
3.80323e-14
3.76664e-14
4.09664e-14
5.75525e-19
1.11512e-12
1.73834e-11
1.03923e-10
4.11916e-10
7.6819e-10
2.16132e-09
3.84212e-10
1.80599e-11
2.34446e-10
4.89333e-11
1.67093e-12
3.83906e-14
3.80323e-14
4.06774e-14
6.37917e-17
3.09077e-11
2.50136e-10
1.02791e-09
3.16138e-09
5.43878e-09
1.41244e-08
2.33125e-09
1.12932e-10
1.37375e-09
2.90904e-10
1.04524e-11
3.84128e-14
3.83906e-14
3.86044e-14
5.37297e-15
6.56532e-10
3.05865e-09
7.4359e-09
1.84412e-08
2.99939e-08
7.07688e-08
1.26016e-08
6.34199e-10
7.29844e-09
1.58019e-09
6.16302e-11
4.44075e-13
3.54507e-13
1.08259e-08
2.82889e-08
4.48029e-08
1.08025e-07
1.45475e-07
3.38212e-07
5.60189e-08
3.21743e-09
3.4169e-08
7.72533e-09
3.36152e-10
2.84189e-12
1.8447e-11
1.33099e-07
1.55733e-07
2.76722e-07
5.55198e-07
8.47389e-07
1.43399e-06
2.07862e-07
1.48502e-08
1.41434e-07
3.14028e-08
1.70935e-09
1.60296e-11
7.68464e-10
1.60508e-06
7.31994e-07
1.83194e-06
2.66293e-06
3.82087e-06
5.4619e-06
7.51877e-07
6.33436e-08
5.65504e-07
1.29149e-07
8.1833e-09
8.91396e-11
2.65001e-08
1.77093e-05
5.67721e-06
1.07179e-05
1.67897e-05
1.70735e-05
4.05618e-05
4.25312e-06
2.52599e-07
1.95036e-06
5.57529e-07
3.68725e-08
4.90464e-10
7.30526e-07
9.22912e-05
5.91826e-05
6.0178e-05
0.000203796
8.24817e-05
0.000257862
2.05135e-05
9.91889e-07
6.8358e-06
1.86698e-06
1.61087e-07
2.61147e-09
2.29706e-05
0.000459825
0.000476432
0.000361236
0.00400025
0.00287272
0.00366905
9.17987e-05
4.50843e-06
4.20564e-05
1.81151e-05
8.63093e-07
1.52089e-08
0.00365891
0.0113572
0.00873787
0.00165379
0.0315943
0.0339204
0.0235894
0.000354698
3.24418e-05
0.00022268
0.000103773
5.02795e-06
9.73514e-08
0.157473
0.187733
0.146165
0.0230561
0.140356
0.10895
0.0827507
0.0100528
0.000374642
0.00130642
0.00050406
8.31582e-05
2.82505e-05
0.383494
0.580791
0.531039
0.469142
0.393382
0.271918
0.209265
0.101252
0.00749297
0.0333092
0.0173486
0.000767072
0.00117613
0.653524
0.709567
0.711534
0.654659
0.5802
0.540195
0.485075
0.437419
0.468094
0.450837
0.169528
0.0333463
0.00314806
0.818579
0.78969
0.876052
0.846448
0.796536
0.749958
0.723563
0.721452
0.74674
0.8916
0.886524
0.829945
0.959181
0.948128
0.926019
0.907082
0.894671
0.900938
0.936081
0.999996
0.902479
0.847733
0.991227
0.99024
0.984256
0.980014
0.978663
0.984104
0.996225
1
0.90039
0.867609
0.998935
1
1
1
1
1
1
1
0.906293
0.944999
0.999637
1
1
1
1
1
1
1
0.917292
0.99432
1
0.999748
1
1
1
1
1
1
0.916003
0.99996
0.99901
1
1
1
1
1
1
1
0.724914
0.999602
0.828171
1
1
1
1
1
1
1
0.723128
0.863364
0.94709
1
1
1
1
1
1
1
1
1
1
1
1
1
1
1
1
1
1
1
1
1
1
1
1
1
1
1
1
1
1
1
1
1
1
1
1
1
1
1
1
1
1
1
1
1
1
1
1
1
1
1
1
1
1
1
1
1
1
1
1
1
1
1
1
1
1
1
1
1
1
1
1
1
1
1
1
1
1
1
1
1
1
1
1
1
1
1
1
1
1
1
1
1
1
1
1
1
1
1
1
1
1
1
1
1
1
1
1
1
1
1
1
1
1
1
1
1
1
1
1
1
1
1
1
1
1
1
1
1
1
1
1
1
1
1
1
1
1
1
1
1
1
1
1
1
1
1
1
1
1
1
1
1
1
1
1
1
1
1
1
1
1
1
1
1
1
1
1
1
1
1
1
1
1
1
1
1
1
1
1
1
1
1
1
1
1
1
1
1
1
1
1
1
1
1
1
1
1
1
1
1
1
1
1
1
1
1
1
1
1
1
1
1
1
1
1
1
1
1
1
1
1
1
1
1
1
1
1
1
1
1
1
1
1
1
1
1
1
1
1
1
1
1
1
1
1
1
1
1
1
1
1
1
1
1
1
1
1
1
1
1
1
1
1
1
1
1
1
1
1
1
1
1
1
1
1
1
1
1
1
1
1
1
1
1
1
1
1
1
1
1
1
1
1
1
1
1
1
1
1
1
1
1
1
1
1
1
1
1
1
1
1
1
1
1
1
1
1
1
1
1
1
1
1
1
1
1
1
1
1
1
1
1
1
1
1
1
1
1
1
1
1
1
1
1
1
1
1
1
1
1
1
1
1
1
1
1
1
1
1
1
1
1
1
1
1
1
1
1
1
1
1
1
1
1
1
1
1
1
1
1
1
1
1
1
1
1
1
1
1
1
1
1
1
1
1
1
1
1
1
1
1
1
1
1
1
1
1
1
1
1
1
1
1
1
1
1
1
1
1
1
1
1
1
1
1
1
1
1
1
1
1
1
1
1
1
1
1
1
1
1
1
1
1
1
1
1
1
1
1
1
1
1
1
1
1
1
1
1
1
1
1
1
1
1
1
1
1
1
1
1
1
1
1
1
1
1
1
1
1
1
1
1
1
1
1
1
1
1
1
1
1
1
1
1
1
1
1
1
1
1
1
1
1
1
1
1
1
1
1
1
1
1
1
1
1
1
1
1
1
1
1
1
1
1
1
1
1
1
1
1
1
1
1
1
1
1
1
1
1
1
1
1
1
1
1
1
1
1
1
1
1
1
1
1
1
1
1
1
1
1
1
1
1
1
1
1
1
1
1
1
1
1
1
1
1
1
1
1
1
1
1
1
1
1
1
1
1
1
1
1
1
1
1
1
1
1
1
1
1
1
1
1
1
1
1
1
1
1
1
1
1
1
1
1
1
1
1
1
1
1
1
1
1
1
1
1
1
1
1
1
1
1
1
1
1
1
1
1
1
1
1
1
1
1
1
1
1
1
1
1
1
1
1
1
1
1
1
1
1
1
1
1
1
1
1
1
1
1
1
1
1
1
1
1
1
1
1
1
1
1
1
1
1
1
1
1
1
1
1
1
1
1
1
1
1
1
1
1
1
1
1
1
1
1
1
1
1
1
1
1
1
1
1
1
1
1
1
1
1
1
1
1
1
1
1
1
1
1
1
1
1
1
1
1
1
1
1
1
1
1
1
1
1
1
1
1
1
1
1
1
1
1
1
1
1
1
1
1
1
1
1
1
1
1
1
1
1
1
1
1
1
1
1
1
1
1
1
1
1
1
1
1
1
1
1
1
1
1
1
1
1
1
1
1
1
1
1
1
1
1
1
1
1
1
1
1
1
1
1
1
1
1
1
1
1
1
1
1
1
1
1
1
1
1
1
1
1
1
1
1
1
1
1
1
1
1
1
1
1
1
1
1
1
1
1
1
1
1
1
1
1
1
1
1
1
1
1
1
1
1
1
1
1
1
1
1
1
1
1
1
1
1
1
1
1
1
1
1
1
1
1
1
1
1
1
1
1
1
1
1
1
1
1
1
1
1
1
1
1
1
1
1
1
1
1
1
1
1
1
1
1
1
1
1
1
1
1
1
1
1
1
1
1
1
1
1
1
1
1
1
1
1
1
1
1
1
1
1
1
1
1
1
1
1
1
1
1
1
1
1
1
1
1
1
1
1
1
1
1
1
1
1
1
1
1
1
1
1
1
1
1
1
1
1
1
1
1
1
1
1
1
1
1
1
1
1
1
1
1
1
1
1
1
1
1
1
1
1
1
1
1
1
1
1
1
1
1
1
1
1
1
1
1
1
1
1
1
1
1
1
1
1
1
1
1
1
1
1
1
1
1
1
1
1
1
1
1
1
1
1
1
1
1
1
1
1
1
1
1
1
1
1
1
1
1
1
)
;

boundaryField
{
    inlet
    {
        type            fixedValue;
        value           uniform 1;
    }
    outlet
    {
        type            inletOutlet;
        inletValue      nonuniform List<scalar> 0();
        value           nonuniform List<scalar> 0();
    }
    walls
    {
        type            zeroGradient;
    }
    side1
    {
        type            cyclic;
    }
    side2
    {
        type            cyclic;
    }
    procBoundary1to0
    {
        type            processor;
        value           nonuniform List<scalar> 
76
(
1.41951e-18
1.83368e-15
3.82701e-14
5.16927e-14
4.19837e-14
3.30116e-14
3.37597e-14
1.9905e-13
3.29589e-13
3.35873e-13
3.35412e-13
2.70732e-13
1.64169e-13
1.57454e-13
1.60348e-13
1.39306e-13
7.96725e-14
6.34204e-14
5.60013e-14
5.22812e-14
5.19954e-14
5.3303e-14
5.18574e-14
4.99003e-14
3.86166e-14
5.13419e-14
4.02079e-14
3.86166e-14
2.47704e-12
1.64356e-11
9.0955e-11
5.03441e-10
2.67794e-09
3.16861e-07
2.95997e-07
-4.57998e-20
9.85076e-05
-2.73063e-09
1.41663e-18
1.83208e-15
3.82681e-14
5.17036e-14
4.19953e-14
3.29972e-14
3.37907e-14
1.99543e-13
3.29243e-13
3.35784e-13
3.35772e-13
3.15706e-13
1.86533e-13
1.63118e-13
1.60898e-13
1.19087e-13
7.32038e-14
7.05325e-14
7.29039e-14
7.08898e-14
5.83133e-14
5.41767e-14
5.09115e-14
4.79133e-14
3.85285e-14
4.66059e-14
4.45645e-14
3.85285e-14
4.48427e-13
2.8805e-12
1.63764e-11
9.11961e-11
5.05762e-10
2.68438e-09
1.3284e-08
-5.38381e-17
0.000101722
-3.19602e-09
)
;
    }
    procBoundary1to2
    {
        type            processor;
        value           nonuniform List<scalar> 
84
(
1
1
1
1
1
1
1
1
1
1
1
1
1
1
1
1
1
1
1
1
1
1
1
1
1
1
1
1
1
1
1
1
1
1
1
1
1
1
1
1
1
1
1
1
1
1
1
1
1
1
1
1
1
1
1
1
1
1
1
1
1
1
1
1
1
1
1
1
1
1
1
1
1
1
1
1
1
1
1
1
1
1
1
1
)
;
    }
    procBoundary1to4
    {
        type            processor;
        value           nonuniform List<scalar> 
32
(
-1.86587e-83
-1.67563e-74
-1.95558e-60
-1.60232e-54
-1.90242e-51
-1.56619e-42
-1.67447e-44
-3.56464e-55
-9.63643e-32
-9.63643e-32
-1.35655e-30
-6.0133e-32
-1.54263e-30
-1.89133e-29
-2.03165e-28
-7.29871e-27
-2.1742e-83
-2.05749e-74
-1.63696e-60
-1.35293e-54
-1.66066e-51
-1.52659e-42
-1.64732e-44
-1.18821e-55
-9.64033e-32
-9.64033e-32
-1.35675e-30
-5.18546e-32
-9.44129e-31
-1.22911e-29
-1.23705e-28
-4.41672e-27
)
;
    }
}


// ************************************************************************* //
