/*--------------------------------*- C++ -*----------------------------------*\
| =========                 |                                                 |
| \\      /  F ield         | OpenFOAM: The Open Source CFD Toolbox           |
|  \\    /   O peration     | Version:  v2012                                 |
|   \\  /    A nd           | Website:  www.openfoam.com                      |
|    \\/     M anipulation  |                                                 |
\*---------------------------------------------------------------------------*/
FoamFile
{
    version     2.0;
    format      ascii;
    class       volScalarField;
    location    "0.35";
    object      p;
}
// * * * * * * * * * * * * * * * * * * * * * * * * * * * * * * * * * * * * * //

dimensions      [1 -1 -2 0 0 0 0];


internalField   nonuniform List<scalar> 
3326
(
3.48614e+06
3.48618e+06
3.4862e+06
3.48618e+06
3.48613e+06
3.48605e+06
3.48591e+06
3.48576e+06
3.48551e+06
3.48578e+06
3.4859e+06
3.486e+06
3.48607e+06
3.48612e+06
3.48613e+06
3.48612e+06
3.48607e+06
3.48598e+06
3.48586e+06
3.4857e+06
3.48546e+06
3.44347e+06
3.45005e+06
3.45609e+06
3.4607e+06
3.46452e+06
3.46757e+06
3.47005e+06
3.47207e+06
3.47372e+06
3.4751e+06
3.47625e+06
3.47722e+06
3.47807e+06
3.4788e+06
3.47945e+06
3.48003e+06
3.48056e+06
3.48105e+06
3.4815e+06
3.48192e+06
3.48231e+06
3.48268e+06
3.48303e+06
3.48337e+06
3.48368e+06
3.48398e+06
3.48426e+06
3.48452e+06
3.48477e+06
3.48499e+06
3.4852e+06
3.48539e+06
3.48556e+06
3.48571e+06
3.48583e+06
3.48593e+06
3.48601e+06
3.48605e+06
3.48607e+06
3.48606e+06
3.48601e+06
3.48593e+06
3.4858e+06
3.48565e+06
3.48541e+06
3.44229e+06
3.44873e+06
3.45481e+06
3.45943e+06
3.46334e+06
3.46649e+06
3.46908e+06
3.47121e+06
3.47297e+06
3.47444e+06
3.47568e+06
3.47673e+06
3.47764e+06
3.47843e+06
3.47913e+06
3.47975e+06
3.48031e+06
3.48083e+06
3.4813e+06
3.48174e+06
3.48215e+06
3.48253e+06
3.4829e+06
3.48324e+06
3.48356e+06
3.48387e+06
3.48415e+06
3.48442e+06
3.48468e+06
3.48491e+06
3.48512e+06
3.48532e+06
3.48549e+06
3.48564e+06
3.48576e+06
3.48587e+06
3.48594e+06
3.48599e+06
3.48601e+06
3.486e+06
3.48595e+06
3.48587e+06
3.48575e+06
3.4856e+06
3.48536e+06
3.44135e+06
3.4477e+06
3.45377e+06
3.45839e+06
3.46236e+06
3.46557e+06
3.46825e+06
3.47046e+06
3.4723e+06
3.47385e+06
3.47516e+06
3.47627e+06
3.47724e+06
3.47808e+06
3.47882e+06
3.47948e+06
3.48007e+06
3.48061e+06
3.48111e+06
3.48156e+06
3.48199e+06
3.48239e+06
3.48276e+06
3.48312e+06
3.48345e+06
3.48376e+06
3.48406e+06
3.48433e+06
3.48459e+06
3.48483e+06
3.48504e+06
3.48524e+06
3.48542e+06
3.48557e+06
3.4857e+06
3.4858e+06
3.48588e+06
3.48593e+06
3.48595e+06
3.48595e+06
3.4859e+06
3.48582e+06
3.4857e+06
3.48555e+06
3.48532e+06
3.4406e+06
3.44688e+06
3.45292e+06
3.45754e+06
3.46154e+06
3.46479e+06
3.46753e+06
3.4698e+06
3.47171e+06
3.47332e+06
3.47468e+06
3.47585e+06
3.47687e+06
3.47775e+06
3.47852e+06
3.47922e+06
3.47984e+06
3.4804e+06
3.48092e+06
3.48139e+06
3.48184e+06
3.48225e+06
3.48263e+06
3.483e+06
3.48334e+06
3.48366e+06
3.48396e+06
3.48424e+06
3.4845e+06
3.48475e+06
3.48497e+06
3.48517e+06
3.48535e+06
3.4855e+06
3.48564e+06
3.48575e+06
3.48583e+06
3.48588e+06
3.4859e+06
3.48589e+06
3.48585e+06
3.48578e+06
3.48566e+06
3.48551e+06
3.48528e+06
3.43998e+06
3.44624e+06
3.45223e+06
3.45684e+06
3.46086e+06
3.46414e+06
3.46691e+06
3.46923e+06
3.47119e+06
3.47284e+06
3.47426e+06
3.47547e+06
3.47652e+06
3.47744e+06
3.47825e+06
3.47897e+06
3.47962e+06
3.4802e+06
3.48074e+06
3.48123e+06
3.48169e+06
3.48211e+06
3.48251e+06
3.48288e+06
3.48323e+06
3.48356e+06
3.48387e+06
3.48415e+06
3.48442e+06
3.48467e+06
3.48489e+06
3.4851e+06
3.48528e+06
3.48544e+06
3.48558e+06
3.48569e+06
3.48577e+06
3.48583e+06
3.48585e+06
3.48585e+06
3.48581e+06
3.48573e+06
3.48562e+06
3.48547e+06
3.48524e+06
3.43948e+06
3.44572e+06
3.45167e+06
3.45628e+06
3.4603e+06
3.46359e+06
3.46639e+06
3.46874e+06
3.47073e+06
3.47242e+06
3.47387e+06
3.47512e+06
3.47621e+06
3.47715e+06
3.47799e+06
3.47874e+06
3.4794e+06
3.48001e+06
3.48056e+06
3.48107e+06
3.48154e+06
3.48198e+06
3.48238e+06
3.48277e+06
3.48312e+06
3.48346e+06
3.48377e+06
3.48407e+06
3.48434e+06
3.48459e+06
3.48482e+06
3.48503e+06
3.48522e+06
3.48538e+06
3.48552e+06
3.48564e+06
3.48572e+06
3.48578e+06
3.48581e+06
3.4858e+06
3.48576e+06
3.48569e+06
3.48558e+06
3.48544e+06
3.48521e+06
3.43907e+06
3.44531e+06
3.45123e+06
3.45583e+06
3.45984e+06
3.46314e+06
3.46595e+06
3.46831e+06
3.47033e+06
3.47205e+06
3.47353e+06
3.47481e+06
3.47592e+06
3.47689e+06
3.47775e+06
3.47852e+06
3.4792e+06
3.47983e+06
3.48039e+06
3.48092e+06
3.4814e+06
3.48185e+06
3.48227e+06
3.48266e+06
3.48302e+06
3.48337e+06
3.48369e+06
3.48399e+06
3.48427e+06
3.48452e+06
3.48476e+06
3.48497e+06
3.48516e+06
3.48533e+06
3.48547e+06
3.48559e+06
3.48567e+06
3.48573e+06
3.48576e+06
3.48576e+06
3.48572e+06
3.48566e+06
3.48554e+06
3.48541e+06
3.48518e+06
3.43876e+06
3.445e+06
3.4509e+06
3.45548e+06
3.45948e+06
3.46277e+06
3.46559e+06
3.46796e+06
3.46999e+06
3.47173e+06
3.47323e+06
3.47452e+06
3.47565e+06
3.47665e+06
3.47752e+06
3.47831e+06
3.47901e+06
3.47965e+06
3.48023e+06
3.48077e+06
3.48126e+06
3.48172e+06
3.48215e+06
3.48255e+06
3.48292e+06
3.48327e+06
3.4836e+06
3.48391e+06
3.48419e+06
3.48445e+06
3.48469e+06
3.48491e+06
3.48511e+06
3.48528e+06
3.48542e+06
3.48554e+06
3.48563e+06
3.48569e+06
3.48572e+06
3.48572e+06
3.48569e+06
3.48562e+06
3.48551e+06
3.48538e+06
3.48516e+06
3.43857e+06
3.4448e+06
3.45066e+06
3.45523e+06
3.4592e+06
3.46248e+06
3.46529e+06
3.46767e+06
3.4697e+06
3.47145e+06
3.47296e+06
3.47427e+06
3.47541e+06
3.47642e+06
3.47732e+06
3.47812e+06
3.47883e+06
3.47949e+06
3.48008e+06
3.48063e+06
3.48113e+06
3.4816e+06
3.48204e+06
3.48245e+06
3.48283e+06
3.48319e+06
3.48352e+06
3.48383e+06
3.48412e+06
3.48439e+06
3.48463e+06
3.48486e+06
3.48505e+06
3.48523e+06
3.48537e+06
3.4855e+06
3.48559e+06
3.48565e+06
3.48569e+06
3.48569e+06
3.48566e+06
3.48559e+06
3.48549e+06
3.48535e+06
3.48514e+06
3.4385e+06
3.44471e+06
3.45053e+06
3.45506e+06
3.45901e+06
3.46227e+06
3.46506e+06
3.46743e+06
3.46946e+06
3.47121e+06
3.47273e+06
3.47404e+06
3.4752e+06
3.47622e+06
3.47712e+06
3.47794e+06
3.47867e+06
3.47933e+06
3.47993e+06
3.48049e+06
3.48101e+06
3.48148e+06
3.48193e+06
3.48235e+06
3.48274e+06
3.4831e+06
3.48344e+06
3.48376e+06
3.48406e+06
3.48433e+06
3.48458e+06
3.4848e+06
3.485e+06
3.48518e+06
3.48533e+06
3.48546e+06
3.48555e+06
3.48562e+06
3.48565e+06
3.48566e+06
3.48563e+06
3.48557e+06
3.48546e+06
3.48533e+06
3.48512e+06
3.43856e+06
3.44473e+06
3.45049e+06
3.45498e+06
3.45889e+06
3.46212e+06
3.46489e+06
3.46724e+06
3.46927e+06
3.47101e+06
3.47252e+06
3.47385e+06
3.47501e+06
3.47603e+06
3.47695e+06
3.47777e+06
3.47851e+06
3.47918e+06
3.4798e+06
3.48036e+06
3.48089e+06
3.48137e+06
3.48183e+06
3.48225e+06
3.48265e+06
3.48302e+06
3.48337e+06
3.48369e+06
3.48399e+06
3.48427e+06
3.48452e+06
3.48475e+06
3.48496e+06
3.48514e+06
3.48529e+06
3.48542e+06
3.48552e+06
3.48558e+06
3.48562e+06
3.48563e+06
3.4856e+06
3.48554e+06
3.48544e+06
3.48532e+06
3.48511e+06
3.43873e+06
3.44485e+06
3.45055e+06
3.45499e+06
3.45885e+06
3.46204e+06
3.46478e+06
3.46711e+06
3.46911e+06
3.47085e+06
3.47235e+06
3.47367e+06
3.47483e+06
3.47586e+06
3.47678e+06
3.47761e+06
3.47836e+06
3.47904e+06
3.47966e+06
3.48024e+06
3.48077e+06
3.48126e+06
3.48173e+06
3.48216e+06
3.48256e+06
3.48294e+06
3.48329e+06
3.48362e+06
3.48393e+06
3.48421e+06
3.48447e+06
3.48471e+06
3.48492e+06
3.4851e+06
3.48526e+06
3.48538e+06
3.48548e+06
3.48556e+06
3.48559e+06
3.4856e+06
3.48558e+06
3.48552e+06
3.48542e+06
3.4853e+06
3.4851e+06
3.43903e+06
3.44508e+06
3.4507e+06
3.45507e+06
3.45887e+06
3.46201e+06
3.46472e+06
3.46701e+06
3.469e+06
3.47071e+06
3.47221e+06
3.47352e+06
3.47468e+06
3.47571e+06
3.47663e+06
3.47746e+06
3.47822e+06
3.4789e+06
3.47954e+06
3.48012e+06
3.48066e+06
3.48116e+06
3.48163e+06
3.48207e+06
3.48248e+06
3.48287e+06
3.48323e+06
3.48356e+06
3.48387e+06
3.48416e+06
3.48443e+06
3.48466e+06
3.48488e+06
3.48506e+06
3.48522e+06
3.48535e+06
3.48546e+06
3.48553e+06
3.48557e+06
3.48558e+06
3.48556e+06
3.4855e+06
3.48541e+06
3.48529e+06
3.4851e+06
3.43944e+06
3.44542e+06
3.45094e+06
3.45524e+06
3.45897e+06
3.46205e+06
3.4647e+06
3.46696e+06
3.46892e+06
3.47061e+06
3.47209e+06
3.47339e+06
3.47454e+06
3.47557e+06
3.47649e+06
3.47733e+06
3.47808e+06
3.47878e+06
3.47941e+06
3.48e+06
3.48055e+06
3.48106e+06
3.48154e+06
3.48198e+06
3.4824e+06
3.48279e+06
3.48316e+06
3.4835e+06
3.48382e+06
3.48411e+06
3.48438e+06
3.48462e+06
3.48484e+06
3.48503e+06
3.48519e+06
3.48533e+06
3.48543e+06
3.48551e+06
3.48555e+06
3.48556e+06
3.48554e+06
3.48549e+06
3.4854e+06
3.48528e+06
3.48509e+06
3.43997e+06
3.44587e+06
3.45127e+06
3.45548e+06
3.45913e+06
3.46214e+06
3.46474e+06
3.46695e+06
3.46887e+06
3.47053e+06
3.47199e+06
3.47328e+06
3.47442e+06
3.47545e+06
3.47637e+06
3.4772e+06
3.47796e+06
3.47866e+06
3.4793e+06
3.47989e+06
3.48045e+06
3.48097e+06
3.48145e+06
3.4819e+06
3.48233e+06
3.48273e+06
3.4831e+06
3.48345e+06
3.48377e+06
3.48407e+06
3.48434e+06
3.48459e+06
3.48481e+06
3.485e+06
3.48517e+06
3.4853e+06
3.48541e+06
3.48549e+06
3.48553e+06
3.48555e+06
3.48553e+06
3.48548e+06
3.48539e+06
3.48528e+06
3.48509e+06
3.44063e+06
3.44644e+06
3.45169e+06
3.4558e+06
3.45934e+06
3.46228e+06
3.46481e+06
3.46697e+06
3.46885e+06
3.47048e+06
3.47192e+06
3.47319e+06
3.47432e+06
3.47533e+06
3.47625e+06
3.47708e+06
3.47784e+06
3.47854e+06
3.47919e+06
3.47979e+06
3.48035e+06
3.48087e+06
3.48136e+06
3.48182e+06
3.48226e+06
3.48266e+06
3.48304e+06
3.48339e+06
3.48372e+06
3.48403e+06
3.4843e+06
3.48456e+06
3.48478e+06
3.48498e+06
3.48515e+06
3.48528e+06
3.48539e+06
3.48547e+06
3.48552e+06
3.48553e+06
3.48551e+06
3.48547e+06
3.48538e+06
3.48527e+06
3.4851e+06
3.44141e+06
3.44712e+06
3.4522e+06
3.45619e+06
3.45962e+06
3.46247e+06
3.46493e+06
3.46703e+06
3.46886e+06
3.47045e+06
3.47186e+06
3.47311e+06
3.47422e+06
3.47523e+06
3.47614e+06
3.47697e+06
3.47773e+06
3.47843e+06
3.47908e+06
3.47969e+06
3.48026e+06
3.48079e+06
3.48128e+06
3.48175e+06
3.48219e+06
3.4826e+06
3.48299e+06
3.48335e+06
3.48368e+06
3.48399e+06
3.48427e+06
3.48453e+06
3.48476e+06
3.48496e+06
3.48513e+06
3.48527e+06
3.48538e+06
3.48546e+06
3.48551e+06
3.48552e+06
3.48551e+06
3.48546e+06
3.48538e+06
3.48527e+06
3.48511e+06
3.44233e+06
3.44791e+06
3.45278e+06
3.45664e+06
3.45995e+06
3.4627e+06
3.46508e+06
3.46711e+06
3.46889e+06
3.47044e+06
3.47181e+06
3.47304e+06
3.47414e+06
3.47513e+06
3.47603e+06
3.47686e+06
3.47762e+06
3.47833e+06
3.47898e+06
3.47959e+06
3.48016e+06
3.4807e+06
3.4812e+06
3.48168e+06
3.48212e+06
3.48254e+06
3.48293e+06
3.4833e+06
3.48364e+06
3.48395e+06
3.48424e+06
3.4845e+06
3.48473e+06
3.48494e+06
3.48511e+06
3.48526e+06
3.48537e+06
3.48545e+06
3.4855e+06
3.48552e+06
3.4855e+06
3.48546e+06
3.48538e+06
3.48528e+06
3.48512e+06
3.44339e+06
3.44881e+06
3.45346e+06
3.45716e+06
3.46033e+06
3.46297e+06
3.46525e+06
3.46722e+06
3.46893e+06
3.47044e+06
3.47178e+06
3.47298e+06
3.47406e+06
3.47504e+06
3.47594e+06
3.47676e+06
3.47752e+06
3.47823e+06
3.47888e+06
3.4795e+06
3.48008e+06
3.48062e+06
3.48113e+06
3.48161e+06
3.48206e+06
3.48249e+06
3.48289e+06
3.48326e+06
3.4836e+06
3.48392e+06
3.48422e+06
3.48448e+06
3.48472e+06
3.48492e+06
3.4851e+06
3.48525e+06
3.48536e+06
3.48544e+06
3.48549e+06
3.48551e+06
3.4855e+06
3.48546e+06
3.48538e+06
3.48528e+06
3.48513e+06
3.44461e+06
3.44983e+06
3.45421e+06
3.45775e+06
3.46075e+06
3.46328e+06
3.46546e+06
3.46734e+06
3.46899e+06
3.47045e+06
3.47176e+06
3.47293e+06
3.47399e+06
3.47496e+06
3.47584e+06
3.47666e+06
3.47742e+06
3.47813e+06
3.47879e+06
3.47941e+06
3.47999e+06
3.48054e+06
3.48106e+06
3.48154e+06
3.482e+06
3.48244e+06
3.48284e+06
3.48322e+06
3.48357e+06
3.4839e+06
3.48419e+06
3.48446e+06
3.4847e+06
3.48491e+06
3.48509e+06
3.48524e+06
3.48536e+06
3.48544e+06
3.48549e+06
3.48551e+06
3.4855e+06
3.48546e+06
3.48538e+06
3.48529e+06
3.48515e+06
3.44599e+06
3.45094e+06
3.45504e+06
3.45838e+06
3.46121e+06
3.46361e+06
3.46568e+06
3.46748e+06
3.46907e+06
3.47048e+06
3.47174e+06
3.47288e+06
3.47392e+06
3.47487e+06
3.47575e+06
3.47656e+06
3.47732e+06
3.47803e+06
3.4787e+06
3.47932e+06
3.47991e+06
3.48046e+06
3.48099e+06
3.48148e+06
3.48195e+06
3.48239e+06
3.4828e+06
3.48319e+06
3.48354e+06
3.48387e+06
3.48418e+06
3.48445e+06
3.48469e+06
3.48491e+06
3.48509e+06
3.48524e+06
3.48536e+06
3.48544e+06
3.48549e+06
3.48551e+06
3.4855e+06
3.48546e+06
3.48539e+06
3.4853e+06
3.48516e+06
3.44754e+06
3.45215e+06
3.45594e+06
3.45906e+06
3.46171e+06
3.46396e+06
3.46591e+06
3.46763e+06
3.46914e+06
3.4705e+06
3.47172e+06
3.47283e+06
3.47385e+06
3.47479e+06
3.47566e+06
3.47647e+06
3.47723e+06
3.47794e+06
3.4786e+06
3.47923e+06
3.47983e+06
3.48039e+06
3.48092e+06
3.48142e+06
3.4819e+06
3.48234e+06
3.48276e+06
3.48315e+06
3.48352e+06
3.48385e+06
3.48416e+06
3.48444e+06
3.48469e+06
3.4849e+06
3.48509e+06
3.48524e+06
3.48536e+06
3.48545e+06
3.4855e+06
3.48552e+06
3.48551e+06
3.48547e+06
3.4854e+06
3.48531e+06
3.48518e+06
3.44922e+06
3.45345e+06
3.4569e+06
3.45978e+06
3.46222e+06
3.46432e+06
3.46616e+06
3.46777e+06
3.46922e+06
3.47052e+06
3.4717e+06
3.47279e+06
3.47378e+06
3.47471e+06
3.47557e+06
3.47638e+06
3.47713e+06
3.47784e+06
3.47852e+06
3.47915e+06
3.47975e+06
3.48032e+06
3.48086e+06
3.48137e+06
3.48185e+06
3.4823e+06
3.48273e+06
3.48313e+06
3.4835e+06
3.48384e+06
3.48415e+06
3.48443e+06
3.48469e+06
3.48491e+06
3.48509e+06
3.48525e+06
3.48537e+06
3.48545e+06
3.48551e+06
3.48553e+06
3.48552e+06
3.48548e+06
3.48541e+06
3.48533e+06
3.4852e+06
3.45102e+06
3.4548e+06
3.4579e+06
3.46051e+06
3.46274e+06
3.46469e+06
3.4664e+06
3.46792e+06
3.46929e+06
3.47054e+06
3.47168e+06
3.47273e+06
3.47371e+06
3.47462e+06
3.47548e+06
3.47628e+06
3.47704e+06
3.47775e+06
3.47843e+06
3.47907e+06
3.47968e+06
3.48025e+06
3.4808e+06
3.48132e+06
3.48181e+06
3.48227e+06
3.4827e+06
3.4831e+06
3.48348e+06
3.48383e+06
3.48415e+06
3.48443e+06
3.48469e+06
3.48491e+06
3.4851e+06
3.48526e+06
3.48538e+06
3.48547e+06
3.48552e+06
3.48554e+06
3.48553e+06
3.48549e+06
3.48542e+06
3.48534e+06
3.48523e+06
3.45289e+06
3.45619e+06
3.45891e+06
3.46125e+06
3.46326e+06
3.46504e+06
3.46662e+06
3.46805e+06
3.46935e+06
3.47054e+06
3.47165e+06
3.47267e+06
3.47363e+06
3.47453e+06
3.47538e+06
3.47618e+06
3.47694e+06
3.47766e+06
3.47834e+06
3.47899e+06
3.4796e+06
3.48019e+06
3.48074e+06
3.48127e+06
3.48177e+06
3.48223e+06
3.48267e+06
3.48309e+06
3.48347e+06
3.48382e+06
3.48414e+06
3.48444e+06
3.48469e+06
3.48492e+06
3.48511e+06
3.48527e+06
3.48539e+06
3.48548e+06
3.48553e+06
3.48555e+06
3.48554e+06
3.4855e+06
3.48543e+06
3.48536e+06
3.48525e+06
3.4474e+06
3.45153e+06
3.45477e+06
3.45757e+06
3.45991e+06
3.46196e+06
3.46375e+06
3.46537e+06
3.46682e+06
3.46816e+06
3.46939e+06
3.47053e+06
3.4716e+06
3.4726e+06
3.47355e+06
3.47444e+06
3.47528e+06
3.47608e+06
3.47685e+06
3.47757e+06
3.47826e+06
3.47891e+06
3.47953e+06
3.48013e+06
3.48069e+06
3.48122e+06
3.48173e+06
3.4822e+06
3.48265e+06
3.48307e+06
3.48346e+06
3.48382e+06
3.48415e+06
3.48444e+06
3.48471e+06
3.48494e+06
3.48513e+06
3.48529e+06
3.48541e+06
3.4855e+06
3.48555e+06
3.48557e+06
3.48556e+06
3.48552e+06
3.48545e+06
3.48538e+06
3.48528e+06
3.45078e+06
3.45408e+06
3.45662e+06
3.45891e+06
3.46086e+06
3.46262e+06
3.46421e+06
3.46566e+06
3.467e+06
3.46824e+06
3.46941e+06
3.47051e+06
3.47154e+06
3.47252e+06
3.47346e+06
3.47434e+06
3.47518e+06
3.47598e+06
3.47675e+06
3.47748e+06
3.47817e+06
3.47883e+06
3.47947e+06
3.48007e+06
3.48064e+06
3.48118e+06
3.48169e+06
3.48218e+06
3.48263e+06
3.48306e+06
3.48346e+06
3.48382e+06
3.48415e+06
3.48445e+06
3.48472e+06
3.48495e+06
3.48515e+06
3.48531e+06
3.48544e+06
3.48552e+06
3.48557e+06
3.48559e+06
3.48558e+06
3.48553e+06
3.48547e+06
3.4854e+06
3.4853e+06
3.45404e+06
3.45649e+06
3.45833e+06
3.46014e+06
3.46172e+06
3.46321e+06
3.46459e+06
3.46589e+06
3.46712e+06
3.46829e+06
3.4694e+06
3.47046e+06
3.47147e+06
3.47243e+06
3.47335e+06
3.47423e+06
3.47508e+06
3.47588e+06
3.47665e+06
3.47739e+06
3.47809e+06
3.47876e+06
3.4794e+06
3.48001e+06
3.48059e+06
3.48114e+06
3.48167e+06
3.48216e+06
3.48262e+06
3.48305e+06
3.48346e+06
3.48383e+06
3.48417e+06
3.48447e+06
3.48474e+06
3.48498e+06
3.48518e+06
3.48534e+06
3.48546e+06
3.48555e+06
3.4856e+06
3.48561e+06
3.4856e+06
3.48555e+06
3.48548e+06
3.48541e+06
3.48533e+06
3.45714e+06
3.45872e+06
3.4599e+06
3.46124e+06
3.46247e+06
3.46371e+06
3.4649e+06
3.46607e+06
3.4672e+06
3.46829e+06
3.46936e+06
3.47038e+06
3.47137e+06
3.47232e+06
3.47324e+06
3.47412e+06
3.47496e+06
3.47577e+06
3.47655e+06
3.4773e+06
3.47801e+06
3.47869e+06
3.47934e+06
3.47996e+06
3.48055e+06
3.48111e+06
3.48164e+06
3.48214e+06
3.48261e+06
3.48305e+06
3.48346e+06
3.48384e+06
3.48418e+06
3.48449e+06
3.48477e+06
3.48501e+06
3.48521e+06
3.48537e+06
3.48549e+06
3.48558e+06
3.48563e+06
3.48564e+06
3.48562e+06
3.48557e+06
3.4855e+06
3.48543e+06
3.48535e+06
3.45979e+06
3.46055e+06
3.46118e+06
3.46211e+06
3.46305e+06
3.46408e+06
3.46511e+06
3.46616e+06
3.46722e+06
3.46826e+06
3.46928e+06
3.47028e+06
3.47126e+06
3.4722e+06
3.47312e+06
3.474e+06
3.47485e+06
3.47567e+06
3.47645e+06
3.47721e+06
3.47793e+06
3.47862e+06
3.47928e+06
3.47991e+06
3.48051e+06
3.48108e+06
3.48162e+06
3.48213e+06
3.48261e+06
3.48306e+06
3.48347e+06
3.48386e+06
3.48421e+06
3.48452e+06
3.4848e+06
3.48504e+06
3.48524e+06
3.48541e+06
3.48553e+06
3.48561e+06
3.48566e+06
3.48567e+06
3.48565e+06
3.4856e+06
3.48552e+06
3.48545e+06
3.48537e+06
3.46212e+06
3.46211e+06
3.46226e+06
3.46281e+06
3.4635e+06
3.46433e+06
3.46523e+06
3.46619e+06
3.46718e+06
3.46818e+06
3.46917e+06
3.47016e+06
3.47113e+06
3.47207e+06
3.47299e+06
3.47388e+06
3.47473e+06
3.47556e+06
3.47636e+06
3.47712e+06
3.47785e+06
3.47855e+06
3.47922e+06
3.47986e+06
3.48048e+06
3.48106e+06
3.4816e+06
3.48212e+06
3.48261e+06
3.48307e+06
3.48349e+06
3.48388e+06
3.48423e+06
3.48455e+06
3.48483e+06
3.48508e+06
3.48528e+06
3.48545e+06
3.48557e+06
3.48565e+06
3.4857e+06
3.4857e+06
3.48567e+06
3.48562e+06
3.48554e+06
3.48547e+06
3.48539e+06
3.46367e+06
3.46303e+06
3.46293e+06
3.46321e+06
3.46374e+06
3.46443e+06
3.46524e+06
3.46614e+06
3.46708e+06
3.46806e+06
3.46904e+06
3.47002e+06
3.47098e+06
3.47193e+06
3.47285e+06
3.47375e+06
3.47462e+06
3.47546e+06
3.47626e+06
3.47704e+06
3.47778e+06
3.47849e+06
3.47917e+06
3.47982e+06
3.48045e+06
3.48104e+06
3.48159e+06
3.48212e+06
3.48262e+06
3.48308e+06
3.48351e+06
3.48391e+06
3.48427e+06
3.48459e+06
3.48487e+06
3.48512e+06
3.48533e+06
3.48549e+06
3.48562e+06
3.4857e+06
3.48574e+06
3.48574e+06
3.48571e+06
3.48564e+06
3.48556e+06
3.48548e+06
3.48541e+06
3.46515e+06
3.46386e+06
3.46352e+06
3.4635e+06
3.46388e+06
3.46444e+06
3.46519e+06
3.46603e+06
3.46695e+06
3.4679e+06
3.46888e+06
3.46986e+06
3.47083e+06
3.47179e+06
3.47272e+06
3.47363e+06
3.4745e+06
3.47535e+06
3.47617e+06
3.47696e+06
3.47771e+06
3.47843e+06
3.47913e+06
3.47979e+06
3.48042e+06
3.48102e+06
3.48159e+06
3.48213e+06
3.48263e+06
3.4831e+06
3.48354e+06
3.48394e+06
3.4843e+06
3.48463e+06
3.48492e+06
3.48517e+06
3.48538e+06
3.48554e+06
3.48566e+06
3.48574e+06
3.48578e+06
3.48578e+06
3.48574e+06
3.48567e+06
3.48558e+06
3.4855e+06
3.48543e+06
3.46568e+06
3.46399e+06
3.46373e+06
3.46353e+06
3.46385e+06
3.46434e+06
3.46504e+06
3.46586e+06
3.46677e+06
3.46772e+06
3.4687e+06
3.46969e+06
3.47067e+06
3.47164e+06
3.47258e+06
3.4735e+06
3.47439e+06
3.47525e+06
3.47608e+06
3.47688e+06
3.47765e+06
3.47838e+06
3.47909e+06
3.47976e+06
3.4804e+06
3.48101e+06
3.48159e+06
3.48214e+06
3.48265e+06
3.48313e+06
3.48357e+06
3.48398e+06
3.48435e+06
3.48468e+06
3.48497e+06
3.48522e+06
3.48543e+06
3.4856e+06
3.48572e+06
3.4858e+06
3.48583e+06
3.48582e+06
3.48578e+06
3.4857e+06
3.4856e+06
3.48551e+06
3.48543e+06
3.4673e+06
3.46473e+06
3.46409e+06
3.46359e+06
3.46378e+06
3.46418e+06
3.46486e+06
3.46566e+06
3.46657e+06
3.46753e+06
3.46852e+06
3.46952e+06
3.47052e+06
3.4715e+06
3.47245e+06
3.47338e+06
3.47429e+06
3.47516e+06
3.476e+06
3.47681e+06
3.47759e+06
3.47834e+06
3.47905e+06
3.47974e+06
3.48039e+06
3.48101e+06
3.4816e+06
3.48215e+06
3.48268e+06
3.48316e+06
3.48361e+06
3.48403e+06
3.4844e+06
3.48474e+06
3.48504e+06
3.48529e+06
3.4855e+06
3.48566e+06
3.48578e+06
3.48586e+06
3.48589e+06
3.48587e+06
3.48582e+06
3.48573e+06
3.48562e+06
3.48552e+06
3.48544e+06
3.46909e+06
3.4655e+06
3.46436e+06
3.46346e+06
3.46353e+06
3.46389e+06
3.46457e+06
3.46539e+06
3.46632e+06
3.4673e+06
3.46831e+06
3.46934e+06
3.47035e+06
3.47135e+06
3.47232e+06
3.47327e+06
3.47419e+06
3.47507e+06
3.47593e+06
3.47675e+06
3.47754e+06
3.4783e+06
3.47903e+06
3.47972e+06
3.48039e+06
3.48102e+06
3.48161e+06
3.48218e+06
3.48271e+06
3.4832e+06
3.48366e+06
3.48408e+06
3.48446e+06
3.4848e+06
3.4851e+06
3.48535e+06
3.48556e+06
3.48573e+06
3.48584e+06
3.48592e+06
3.48594e+06
3.48592e+06
3.48586e+06
3.48576e+06
3.48564e+06
3.48552e+06
3.48543e+06
3.48614e+06
3.48618e+06
3.4862e+06
3.48618e+06
3.48613e+06
3.48605e+06
3.48591e+06
3.48576e+06
3.48551e+06
3.48578e+06
3.4859e+06
3.486e+06
3.48607e+06
3.48612e+06
3.48613e+06
3.48612e+06
3.48607e+06
3.48598e+06
3.48586e+06
3.4857e+06
3.48546e+06
3.44347e+06
3.45005e+06
3.45609e+06
3.4607e+06
3.46452e+06
3.46757e+06
3.47005e+06
3.47207e+06
3.47372e+06
3.4751e+06
3.47625e+06
3.47722e+06
3.47807e+06
3.4788e+06
3.47945e+06
3.48003e+06
3.48056e+06
3.48105e+06
3.4815e+06
3.48192e+06
3.48231e+06
3.48268e+06
3.48303e+06
3.48337e+06
3.48368e+06
3.48398e+06
3.48426e+06
3.48452e+06
3.48477e+06
3.48499e+06
3.4852e+06
3.48539e+06
3.48556e+06
3.48571e+06
3.48583e+06
3.48593e+06
3.48601e+06
3.48605e+06
3.48607e+06
3.48606e+06
3.48601e+06
3.48593e+06
3.4858e+06
3.48565e+06
3.48541e+06
3.44229e+06
3.44873e+06
3.45481e+06
3.45943e+06
3.46334e+06
3.46649e+06
3.46908e+06
3.47121e+06
3.47297e+06
3.47444e+06
3.47568e+06
3.47673e+06
3.47764e+06
3.47843e+06
3.47913e+06
3.47975e+06
3.48031e+06
3.48083e+06
3.4813e+06
3.48174e+06
3.48215e+06
3.48253e+06
3.4829e+06
3.48324e+06
3.48356e+06
3.48387e+06
3.48415e+06
3.48442e+06
3.48468e+06
3.48491e+06
3.48512e+06
3.48532e+06
3.48549e+06
3.48564e+06
3.48576e+06
3.48587e+06
3.48594e+06
3.48599e+06
3.48601e+06
3.486e+06
3.48595e+06
3.48587e+06
3.48575e+06
3.4856e+06
3.48536e+06
3.44135e+06
3.4477e+06
3.45377e+06
3.45839e+06
3.46236e+06
3.46557e+06
3.46825e+06
3.47046e+06
3.4723e+06
3.47385e+06
3.47516e+06
3.47627e+06
3.47724e+06
3.47808e+06
3.47882e+06
3.47948e+06
3.48007e+06
3.48061e+06
3.48111e+06
3.48156e+06
3.48199e+06
3.48239e+06
3.48276e+06
3.48312e+06
3.48345e+06
3.48376e+06
3.48406e+06
3.48433e+06
3.48459e+06
3.48483e+06
3.48504e+06
3.48524e+06
3.48542e+06
3.48557e+06
3.4857e+06
3.4858e+06
3.48588e+06
3.48593e+06
3.48595e+06
3.48595e+06
3.4859e+06
3.48582e+06
3.4857e+06
3.48555e+06
3.48532e+06
3.4406e+06
3.44688e+06
3.45292e+06
3.45754e+06
3.46154e+06
3.46479e+06
3.46753e+06
3.4698e+06
3.47171e+06
3.47332e+06
3.47468e+06
3.47585e+06
3.47687e+06
3.47775e+06
3.47852e+06
3.47922e+06
3.47984e+06
3.4804e+06
3.48092e+06
3.48139e+06
3.48184e+06
3.48225e+06
3.48263e+06
3.483e+06
3.48334e+06
3.48366e+06
3.48396e+06
3.48424e+06
3.4845e+06
3.48475e+06
3.48497e+06
3.48517e+06
3.48535e+06
3.4855e+06
3.48564e+06
3.48575e+06
3.48583e+06
3.48588e+06
3.4859e+06
3.48589e+06
3.48585e+06
3.48578e+06
3.48566e+06
3.48551e+06
3.48528e+06
3.43998e+06
3.44624e+06
3.45223e+06
3.45684e+06
3.46086e+06
3.46414e+06
3.46691e+06
3.46923e+06
3.47119e+06
3.47284e+06
3.47426e+06
3.47547e+06
3.47652e+06
3.47744e+06
3.47825e+06
3.47897e+06
3.47962e+06
3.4802e+06
3.48074e+06
3.48123e+06
3.48169e+06
3.48211e+06
3.48251e+06
3.48288e+06
3.48323e+06
3.48356e+06
3.48387e+06
3.48415e+06
3.48442e+06
3.48467e+06
3.48489e+06
3.4851e+06
3.48528e+06
3.48544e+06
3.48558e+06
3.48569e+06
3.48577e+06
3.48583e+06
3.48585e+06
3.48585e+06
3.48581e+06
3.48573e+06
3.48562e+06
3.48547e+06
3.48524e+06
3.43948e+06
3.44572e+06
3.45167e+06
3.45628e+06
3.4603e+06
3.46359e+06
3.46639e+06
3.46874e+06
3.47073e+06
3.47242e+06
3.47387e+06
3.47512e+06
3.47621e+06
3.47715e+06
3.47799e+06
3.47874e+06
3.4794e+06
3.48001e+06
3.48056e+06
3.48107e+06
3.48154e+06
3.48198e+06
3.48238e+06
3.48277e+06
3.48312e+06
3.48346e+06
3.48377e+06
3.48407e+06
3.48434e+06
3.48459e+06
3.48482e+06
3.48503e+06
3.48522e+06
3.48538e+06
3.48552e+06
3.48564e+06
3.48572e+06
3.48578e+06
3.48581e+06
3.4858e+06
3.48576e+06
3.48569e+06
3.48558e+06
3.48544e+06
3.48521e+06
3.43907e+06
3.44531e+06
3.45123e+06
3.45583e+06
3.45984e+06
3.46314e+06
3.46595e+06
3.46831e+06
3.47033e+06
3.47205e+06
3.47353e+06
3.47481e+06
3.47592e+06
3.47689e+06
3.47775e+06
3.47852e+06
3.4792e+06
3.47983e+06
3.48039e+06
3.48092e+06
3.4814e+06
3.48185e+06
3.48227e+06
3.48266e+06
3.48302e+06
3.48337e+06
3.48369e+06
3.48399e+06
3.48427e+06
3.48452e+06
3.48476e+06
3.48497e+06
3.48516e+06
3.48533e+06
3.48547e+06
3.48559e+06
3.48567e+06
3.48573e+06
3.48576e+06
3.48576e+06
3.48572e+06
3.48566e+06
3.48554e+06
3.48541e+06
3.48518e+06
3.43876e+06
3.445e+06
3.4509e+06
3.45548e+06
3.45948e+06
3.46277e+06
3.46559e+06
3.46796e+06
3.46999e+06
3.47173e+06
3.47323e+06
3.47452e+06
3.47565e+06
3.47665e+06
3.47752e+06
3.47831e+06
3.47901e+06
3.47965e+06
3.48023e+06
3.48077e+06
3.48126e+06
3.48172e+06
3.48215e+06
3.48255e+06
3.48292e+06
3.48327e+06
3.4836e+06
3.48391e+06
3.48419e+06
3.48445e+06
3.48469e+06
3.48491e+06
3.48511e+06
3.48528e+06
3.48542e+06
3.48554e+06
3.48563e+06
3.48569e+06
3.48572e+06
3.48572e+06
3.48569e+06
3.48562e+06
3.48551e+06
3.48538e+06
3.48516e+06
3.43857e+06
3.4448e+06
3.45066e+06
3.45523e+06
3.4592e+06
3.46248e+06
3.46529e+06
3.46767e+06
3.4697e+06
3.47145e+06
3.47296e+06
3.47427e+06
3.47541e+06
3.47642e+06
3.47732e+06
3.47812e+06
3.47883e+06
3.47949e+06
3.48008e+06
3.48063e+06
3.48113e+06
3.4816e+06
3.48204e+06
3.48245e+06
3.48283e+06
3.48319e+06
3.48352e+06
3.48383e+06
3.48412e+06
3.48439e+06
3.48463e+06
3.48486e+06
3.48505e+06
3.48523e+06
3.48537e+06
3.4855e+06
3.48559e+06
3.48565e+06
3.48569e+06
3.48569e+06
3.48566e+06
3.48559e+06
3.48549e+06
3.48535e+06
3.48514e+06
3.4385e+06
3.44471e+06
3.45053e+06
3.45506e+06
3.45901e+06
3.46227e+06
3.46506e+06
3.46743e+06
3.46946e+06
3.47121e+06
3.47273e+06
3.47404e+06
3.4752e+06
3.47622e+06
3.47712e+06
3.47794e+06
3.47867e+06
3.47933e+06
3.47993e+06
3.48049e+06
3.48101e+06
3.48148e+06
3.48193e+06
3.48235e+06
3.48274e+06
3.4831e+06
3.48344e+06
3.48376e+06
3.48406e+06
3.48433e+06
3.48458e+06
3.4848e+06
3.485e+06
3.48518e+06
3.48533e+06
3.48546e+06
3.48555e+06
3.48562e+06
3.48565e+06
3.48566e+06
3.48563e+06
3.48557e+06
3.48546e+06
3.48533e+06
3.48512e+06
3.43856e+06
3.44473e+06
3.45049e+06
3.45498e+06
3.45889e+06
3.46212e+06
3.46489e+06
3.46724e+06
3.46927e+06
3.47101e+06
3.47252e+06
3.47385e+06
3.47501e+06
3.47603e+06
3.47695e+06
3.47777e+06
3.47851e+06
3.47918e+06
3.4798e+06
3.48036e+06
3.48089e+06
3.48137e+06
3.48183e+06
3.48225e+06
3.48265e+06
3.48302e+06
3.48337e+06
3.48369e+06
3.48399e+06
3.48427e+06
3.48452e+06
3.48475e+06
3.48496e+06
3.48514e+06
3.48529e+06
3.48542e+06
3.48552e+06
3.48558e+06
3.48562e+06
3.48563e+06
3.4856e+06
3.48554e+06
3.48544e+06
3.48532e+06
3.48511e+06
3.43873e+06
3.44485e+06
3.45055e+06
3.45499e+06
3.45885e+06
3.46204e+06
3.46478e+06
3.46711e+06
3.46911e+06
3.47085e+06
3.47235e+06
3.47367e+06
3.47483e+06
3.47586e+06
3.47678e+06
3.47761e+06
3.47836e+06
3.47904e+06
3.47966e+06
3.48024e+06
3.48077e+06
3.48126e+06
3.48173e+06
3.48216e+06
3.48256e+06
3.48294e+06
3.48329e+06
3.48362e+06
3.48393e+06
3.48421e+06
3.48447e+06
3.48471e+06
3.48492e+06
3.4851e+06
3.48526e+06
3.48538e+06
3.48548e+06
3.48556e+06
3.48559e+06
3.4856e+06
3.48558e+06
3.48552e+06
3.48542e+06
3.4853e+06
3.4851e+06
3.43903e+06
3.44508e+06
3.4507e+06
3.45507e+06
3.45887e+06
3.46201e+06
3.46472e+06
3.46701e+06
3.469e+06
3.47071e+06
3.47221e+06
3.47352e+06
3.47468e+06
3.47571e+06
3.47663e+06
3.47746e+06
3.47822e+06
3.4789e+06
3.47954e+06
3.48012e+06
3.48066e+06
3.48116e+06
3.48163e+06
3.48207e+06
3.48248e+06
3.48287e+06
3.48323e+06
3.48356e+06
3.48387e+06
3.48416e+06
3.48443e+06
3.48466e+06
3.48488e+06
3.48506e+06
3.48522e+06
3.48535e+06
3.48546e+06
3.48553e+06
3.48557e+06
3.48558e+06
3.48556e+06
3.4855e+06
3.48541e+06
3.48529e+06
3.4851e+06
3.43944e+06
3.44542e+06
3.45094e+06
3.45524e+06
3.45897e+06
3.46205e+06
3.4647e+06
3.46696e+06
3.46892e+06
3.47061e+06
3.47209e+06
3.47339e+06
3.47454e+06
3.47557e+06
3.47649e+06
3.47733e+06
3.47808e+06
3.47878e+06
3.47941e+06
3.48e+06
3.48055e+06
3.48106e+06
3.48154e+06
3.48198e+06
3.4824e+06
3.48279e+06
3.48316e+06
3.4835e+06
3.48382e+06
3.48411e+06
3.48438e+06
3.48462e+06
3.48484e+06
3.48503e+06
3.48519e+06
3.48533e+06
3.48543e+06
3.48551e+06
3.48555e+06
3.48556e+06
3.48554e+06
3.48549e+06
3.4854e+06
3.48528e+06
3.48509e+06
3.43997e+06
3.44587e+06
3.45127e+06
3.45548e+06
3.45913e+06
3.46214e+06
3.46474e+06
3.46695e+06
3.46887e+06
3.47053e+06
3.47199e+06
3.47328e+06
3.47442e+06
3.47545e+06
3.47637e+06
3.4772e+06
3.47796e+06
3.47866e+06
3.4793e+06
3.47989e+06
3.48045e+06
3.48097e+06
3.48145e+06
3.4819e+06
3.48233e+06
3.48273e+06
3.4831e+06
3.48345e+06
3.48377e+06
3.48407e+06
3.48434e+06
3.48459e+06
3.48481e+06
3.485e+06
3.48517e+06
3.4853e+06
3.48541e+06
3.48549e+06
3.48553e+06
3.48555e+06
3.48553e+06
3.48548e+06
3.48539e+06
3.48528e+06
3.48509e+06
3.44063e+06
3.44644e+06
3.45169e+06
3.4558e+06
3.45934e+06
3.46228e+06
3.46481e+06
3.46697e+06
3.46885e+06
3.47048e+06
3.47192e+06
3.47319e+06
3.47432e+06
3.47533e+06
3.47625e+06
3.47708e+06
3.47784e+06
3.47854e+06
3.47919e+06
3.47979e+06
3.48035e+06
3.48087e+06
3.48136e+06
3.48182e+06
3.48226e+06
3.48266e+06
3.48304e+06
3.48339e+06
3.48372e+06
3.48403e+06
3.4843e+06
3.48456e+06
3.48478e+06
3.48498e+06
3.48515e+06
3.48528e+06
3.48539e+06
3.48547e+06
3.48552e+06
3.48553e+06
3.48551e+06
3.48547e+06
3.48538e+06
3.48527e+06
3.4851e+06
3.44141e+06
3.44712e+06
3.4522e+06
3.45619e+06
3.45962e+06
3.46247e+06
3.46493e+06
3.46703e+06
3.46886e+06
3.47045e+06
3.47186e+06
3.47311e+06
3.47422e+06
3.47523e+06
3.47614e+06
3.47697e+06
3.47773e+06
3.47843e+06
3.47908e+06
3.47969e+06
3.48026e+06
3.48079e+06
3.48128e+06
3.48175e+06
3.48219e+06
3.4826e+06
3.48299e+06
3.48335e+06
3.48368e+06
3.48399e+06
3.48427e+06
3.48453e+06
3.48476e+06
3.48496e+06
3.48513e+06
3.48527e+06
3.48538e+06
3.48546e+06
3.48551e+06
3.48552e+06
3.48551e+06
3.48546e+06
3.48538e+06
3.48527e+06
3.48511e+06
3.44233e+06