/*--------------------------------*- C++ -*----------------------------------*\
| =========                 |                                                 |
| \\      /  F ield         | OpenFOAM: The Open Source CFD Toolbox           |
|  \\    /   O peration     | Version:  v2012                                 |
|   \\  /    A nd           | Website:  www.openfoam.com                      |
|    \\/     M anipulation  |                                                 |
\*---------------------------------------------------------------------------*/
FoamFile
{
    version     2.0;
    format      ascii;
    class       volVectorField;
    location    "0.7";
    object      U;
}
// * * * * * * * * * * * * * * * * * * * * * * * * * * * * * * * * * * * * * //

dimensions      [0 1 -1 0 0 0 0];


internalField   nonuniform List<vector> 
3352
(
(0.0625688 -43.7485 -0.0005461)
(-0.0882578 -42.6601 0.00077014)
(0.168765 -41.832 -0.00147304)
(-0.0739086 -39.9453 0.000644748)
(0.190159 -43.4971 -0.0016592)
(0.277484 -43.1111 -0.00242196)
(0.184628 -36.1499 -0.00161172)
(0.279193 -26.8572 -0.00243636)
(0.322757 -18.4316 -0.00280841)
(0.273724 -16.9718 -0.00238615)
(0.244409 -16.4286 -0.00213288)
(0.224683 -15.6824 -0.00196099)
(0.208539 -14.7641 -0.0018202)
(0.194668 -13.7452 -0.0016992)
(0.181388 -12.7295 -0.00158331)
(0.168178 -11.7798 -0.00146802)
(0.154912 -10.9142 -0.00135224)
(0.141578 -10.129 -0.00123586)
(0.128176 -9.41229 -0.00111889)
(0.114733 -8.75073 -0.00100156)
(0.101284 -8.13265 -0.000884188)
(0.0878808 -7.54884 -0.000767207)
(0.0745834 -6.99266 -0.000651147)
(0.0614601 -6.45959 -0.000536605)
(0.0485835 -5.94668 -0.000424215)
(0.0360305 -5.45217 -0.000314648)
(0.0238805 -4.975 -0.000208597)
(0.0122173 -4.51466 -0.000106792)
(0.00112865 -4.07087 -9.99936e-06)
(-0.00929132 -3.64354 8.0959e-05)
(-0.01894 -3.23271 0.000165189)
(-0.027705 -2.8384 0.000241707)
(-0.0354607 -2.4607 0.000309421)
(-0.042065 -2.09972 0.000367088)
(-0.0473543 -1.75557 0.000413282)
(-0.0511324 -1.42842 0.000446294)
(-0.0531643 -1.11841 0.000464072)
(-0.0531074 -0.825796 0.00046364)
(-0.0506034 -0.550814 0.00044185)
(0.0779213 -43.8002 -0.000680083)
(-0.103866 -42.7666 0.000906332)
(0.183838 -41.9637 -0.00160465)
(-0.124101 -39.9821 0.00108283)
(0.233606 -44.0927 -0.00203837)
(0.24606 -43.2399 -0.0021476)
(0.229294 -36.2336 -0.00200145)
(0.311342 -27.1262 -0.00271666)
(0.372901 -18.5285 -0.00324872)
(0.293707 -16.951 -0.00256183)
(0.255495 -16.4333 -0.00223031)
(0.233162 -15.6947 -0.0020352)
(0.216026 -14.7762 -0.00188556)
(0.202001 -13.7544 -0.00176321)
(0.18839 -12.7345 -0.00164442)
(0.174469 -11.7809 -0.00152292)
(0.160235 -10.912 -0.00139868)
(0.145834 -10.1242 -0.001273)
(0.131384 -9.40538 -0.00114688)
(0.116986 -8.74218 -0.00102122)
(0.102713 -8.12284 -0.000896646)
(0.0886251 -7.53811 -0.000773689)
(0.0747762 -6.9813 -0.000652817)
(0.0612189 -6.44785 -0.00053449)
(0.0480067 -5.9348 -0.000419172)
(0.0351966 -5.44034 -0.000307365)
(0.0228504 -4.9634 -0.000199605)
(0.0110368 -4.50343 -9.64918e-05)
(-0.000168714 -4.06016 1.31494e-06)
(-0.0106814 -3.63348 9.30767e-05)
(-0.0204063 -3.22341 0.000177965)
(-0.0292369 -2.82996 0.000255048)
(-0.0370534 -2.45324 0.000323283)
(-0.0437193 -2.09333 0.000381478)
(-0.0490794 -1.75037 0.000428279)
(-0.0529499 -1.42452 0.000462082)
(-0.0551211 -1.11595 0.000481057)
(-0.0552941 -0.824963 0.0004826)
(-0.0532465 -0.551899 0.000464747)
(0.0628665 -43.8252 -0.000548685)
(-0.0725548 -42.7704 0.000633066)
(0.126199 -41.9388 -0.00110168)
(-0.113329 -40.0245 0.00098892)
(0.199944 -44.298 -0.00174472)
(0.159448 -43.2992 -0.00139166)
(0.279449 -36.3736 -0.00243877)
(0.334247 -27.2683 -0.00291654)
(0.39201 -18.5652 -0.00341529)
(0.319359 -16.921 -0.00278487)
(0.275482 -16.424 -0.00240442)
(0.247175 -15.6948 -0.00215749)
(0.225652 -14.7792 -0.00196959)
(0.208943 -13.7576 -0.00182381)
(0.193859 -12.7361 -0.00169216)
(0.179086 -11.7808 -0.00156323)
(0.164247 -10.9103 -0.00143372)
(0.14931 -10.1211 -0.00130335)
(0.134315 -9.40119 -0.00117248)
(0.119353 -8.73707 -0.00104189)
(0.104505 -8.11698 -0.000912305)
(0.0898541 -7.53163 -0.000784429)
(0.0754701 -6.97434 -0.000658884)
(0.0614183 -6.44051 -0.000536238)
(0.0477578 -5.9272 -0.000417006)
(0.0345467 -5.43258 -0.000301694)
(0.0218437 -4.95559 -0.000190817)
(0.00971265 -4.49568 -8.49316e-05)
(-0.00177645 -4.05256 1.53527e-05)
(-0.0125448 -3.62615 0.000109348)
(-0.022503 -3.21644 0.000196274)
(-0.0315506 -2.82348 0.000275253)
(-0.0395743 -2.44734 0.000345298)
(-0.0464466 -2.08814 0.000405295)
(-0.0520255 -1.74601 0.000454005)
(-0.0561484 -1.4211 0.00049001)
(-0.0586454 -1.11363 0.000511827)
(-0.0592913 -0.82387 0.000517492)
(-0.0580143 -0.552198 0.000506366)
(0.0499187 -43.8856 -0.000435673)
(-0.0389656 -42.8355 0.000339917)
(0.095765 -41.9328 -0.000836147)
(-0.106618 -40.1092 0.000930379)
(0.1626 -44.5773 -0.00141883)
(0.166359 -43.5012 -0.00145182)
(0.353914 -36.5938 -0.00308859)
(0.356443 -27.4354 -0.00311029)
(0.412147 -18.6329 -0.00359134)
(0.334954 -16.9002 -0.00292069)
(0.289337 -16.4175 -0.0025253)
(0.258885 -15.696 -0.00225971)
(0.23553 -14.7834 -0.00205582)
(0.217382 -13.7621 -0.00189748)
(0.201217 -12.7386 -0.00175639)
(0.185484 -11.7806 -0.00161908)
(0.169725 -10.9078 -0.00148153)
(0.153869 -10.1165 -0.00134315)
(0.137964 -9.39498 -0.00120434)
(0.122121 -8.72964 -0.00106606)
(0.106443 -8.10867 -0.000929227)
(0.0910275 -7.52272 -0.000794678)
(0.0759518 -6.96505 -0.000663096)
(0.0612819 -6.43104 -0.000535056)
(0.0470725 -5.91769 -0.000411033)
(0.033374 -5.42316 -0.000291469)
(0.0202364 -4.94637 -0.000176799)
(0.00771482 -4.48675 -6.75043e-05)
(-0.00412903 -4.04402 3.58764e-05)
(-0.0152236 -3.61807 0.000132719)
(-0.0254863 -3.20891 0.000222304)
(-0.0348233 -2.81656 0.000303809)
(-0.043129 -2.44113 0.000376315)
(-0.050286 -2.08271 0.000438798)
(-0.0561677 -1.74143 0.000490153)
(-0.0606364 -1.41746 0.000529177)
(-0.0635644 -1.111 0.000554756)
(-0.0648017 -0.822293 0.000565582)
(-0.0643877 -0.551676 0.000561991)
(0.0312142 -43.9389 -0.000272425)
(-0.00384464 -42.8656 3.34058e-05)
(0.0461974 -41.8418 -0.000403616)
(-0.0988372 -40.1668 0.0008625)
(0.10043 -44.7889 -0.000876227)
(0.198187 -43.7809 -0.00172945)
(0.401248 -36.8066 -0.00350179)
(0.342893 -27.5424 -0.00299202)
(0.419809 -18.6946 -0.00365865)
(0.346724 -16.8727 -0.003023)
(0.299276 -16.4078 -0.00261199)
(0.267553 -15.6947 -0.00233538)
(0.242934 -14.7854 -0.00212045)
(0.223774 -13.7648 -0.00195328)
(0.206849 -12.7399 -0.00180556)
(0.190477 -11.7798 -0.00166267)
(0.174122 -10.9049 -0.00151992)
(0.157653 -10.1119 -0.00137618)
(0.141096 -9.38888 -0.00123168)
(0.124564 -8.7224 -0.00108739)
(0.108175 -8.10055 -0.000944351)
(0.0920481 -7.51398 -0.000803594)
(0.0762801 -6.95589 -0.000665969)
(0.0609512 -6.42163 -0.000532176)
(0.0461244 -5.90817 -0.000402764)
(0.0318535 -5.41366 -0.000278203)
(0.0181878 -4.937 -0.000158923)
(0.00517924 -4.47762 -4.53773e-05)
(-0.00711503 -4.03522 6.19348e-05)
(-0.0186286 -3.60969 0.000162435)
(-0.0292845 -3.20104 0.000255451)
(-0.0389953 -2.80931 0.000340219)
(-0.0476634 -2.43456 0.000415888)
(-0.0551822 -2.0769 0.000481528)
(-0.0614413 -1.73647 0.000536176)
(-0.0663279 -1.4134 0.000578846)
(-0.0697524 -1.10788 0.000608756)
(-0.0716286 -0.820137 0.000625156)
(-0.0720609 -0.55041 0.00062895)
(0.0139895 -44.0059 -0.000122083)
(0.0303188 -42.9147 -0.000264742)
(0.0144643 -41.734 -0.000126732)
(-0.092517 -40.2162 0.000807344)
(0.0492401 -45.0511 -0.000429397)
(0.279371 -44.1606 -0.0024379)
(0.407046 -36.9703 -0.00355271)
(0.288036 -27.6218 -0.00251333)
(0.411591 -18.7979 -0.00358692)
(0.352075 -16.8526 -0.00306896)
(0.304221 -16.4001 -0.00265501)
(0.27244 -15.6945 -0.00237804)
(0.247604 -14.7883 -0.00216122)
(0.228245 -13.7682 -0.00199231)
(0.211109 -12.7416 -0.00184275)
(0.194422 -11.7791 -0.0016971)
(0.177651 -10.9018 -0.00155073)
(0.16067 -10.1067 -0.00140252)
(0.143526 -9.38203 -0.0012529)
(0.126355 -8.71427 -0.00110303)
(0.109297 -8.09151 -0.000954154)
(0.092493 -7.50431 -0.000807485)
(0.0760551 -6.94584 -0.000664013)
(0.0600751 -6.41139 -0.000524538)
(0.0446235 -5.8979 -0.000389672)
(0.0297576 -5.40348 -0.000259917)
(0.0155279 -4.92702 -0.000135715)
(0.00198603 -4.46792 -1.7514e-05)
(-0.0108126 -4.0259 9.42008e-05)
(-0.0228041 -3.60084 0.000198872)
(-0.0339145 -3.19273 0.000295856)
(-0.044061 -2.80162 0.000384426)
(-0.0531521 -2.42756 0.000463788)
(-0.0610909 -2.07067 0.000533094)
(-0.0677812 -1.73107 0.000591505)
(-0.0731317 -1.40887 0.000638223)
(-0.0770828 -1.10426 0.000672729)
(-0.0795948 -0.817387 0.000694675)
(-0.0807986 -0.548441 0.000705201)
(0.00044905 -44.0746 -3.90179e-06)
(0.0548263 -42.9586 -0.000478609)
(-0.00582098 -41.5851 5.02519e-05)
(-0.109539 -40.2253 0.000955904)
(0.0179142 -45.3859 -0.000155875)
(0.363849 -44.5568 -0.00317523)
(0.341191 -37.0032 -0.00297834)
(0.18051 -27.6737 -0.00157496)
(0.386344 -18.9637 -0.00336622)
(0.353156 -16.8404 -0.00307752)
(0.305478 -16.3923 -0.00266578)
(0.273965 -15.6942 -0.00239138)
(0.249199 -14.791 -0.00217514)
(0.229953 -13.7716 -0.00200722)
(0.212937 -12.7432 -0.0018587)
(0.196253 -11.7783 -0.00171309)
(0.179374 -10.8985 -0.00156577)
(0.162161 -10.1013 -0.00141555)
(0.144681 -9.37492 -0.00126298)
(0.127078 -8.70582 -0.00110935)
(0.109517 -8.08207 -0.000956081)
(0.0921572 -7.4942 -0.000804561)
(0.0751309 -6.9353 -0.000655954)
(0.0585469 -6.40063 -0.000511206)
(0.0424885 -5.88709 -0.000371044)
(0.027023 -5.39275 -0.000236056)
(0.0122077 -4.91648 -0.000106742)
(-0.0019017 -4.45768 1.64116e-05)
(-0.0152472 -4.01605 0.000132899)
(-0.0277638 -3.59146 0.000242155)
(-0.0393782 -3.18392 0.000343538)
(-0.0500095 -2.79343 0.000436339)
(-0.0595705 -2.42009 0.000519802)
(-0.0679716 -2.06397 0.000593143)
(-0.0751278 -1.72519 0.00065562)
(-0.0809648 -1.40385 0.000706584)
(-0.0854437 -1.10009 0.000745695)
(-0.0885538 -0.81405 0.00077286)
(-0.0904259 -0.545829 0.00078922)
(-0.00749231 -44.1502 6.54139e-05)
(0.0691796 -43.0147 -0.000603855)
(-0.00683354 -41.4087 5.90433e-05)
(-0.15432 -40.2003 0.00134672)
(0.0259074 -45.8352 -0.00022551)
(0.411556 -44.8781 -0.00359179)
(0.20562 -36.8718 -0.00179539)
(0.03698 -27.7374 -0.000322304)
(0.348697 -19.2272 -0.00303705)
(0.349719 -16.847 -0.00304663)
(0.303474 -16.3865 -0.00264802)
(0.272546 -15.6947 -0.00237903)
(0.248136 -14.7944 -0.00216587)
(0.22922 -13.7757 -0.00200082)
(0.212565 -12.7454 -0.00185546)
(0.19609 -11.7777 -0.00171167)
(0.179298 -10.8953 -0.00156512)
(0.162036 -10.0958 -0.00141446)
(0.144393 -9.36749 -0.00126047)
(0.126523 -8.69693 -0.00110451)
(0.108607 -8.07211 -0.00094814)
(0.0908182 -7.4835 -0.00079288)
(0.0733061 -6.92414 -0.000640033)
(0.0561935 -6.38923 -0.000490672)
(0.0395777 -5.87563 -0.000345646)
(0.0235382 -5.38137 -0.000205648)
(0.0081424 -4.90531 -7.12676e-05)
(-0.00654533 -4.44682 5.69341e-05)
(-0.0204602 -4.0056 0.000178391)
(-0.0335321 -3.5815 0.000292494)
(-0.0456845 -3.17453 0.000398572)
(-0.0568352 -2.7847 0.000495908)
(-0.0668985 -2.41208 0.000583755)
(-0.0757889 -2.05674 0.000661366)
(-0.0834289 -1.71878 0.000728066)
(-0.0897555 -1.39829 0.000783303)
(-0.094742 -1.09539 0.000826844)
(-0.0983922 -0.810145 0.000858723)
(-0.100821 -0.542639 0.000879945)
(-0.00932188 -44.2284 8.13832e-05)
(0.0720748 -43.0765 -0.000629106)
(0.00422505 -41.1846 -3.75038e-05)
(-0.231968 -40.1437 0.0020244)
(0.0753461 -46.382 -0.00065691)
(0.37675 -45.0169 -0.00328837)
(0.0278032 -36.5857 -0.000243565)
(-0.108734 -27.8502 0.000949552)
(0.309993 -19.5954 -0.00269887)
(0.343876 -16.8742 -0.0029952)
(0.299422 -16.3822 -0.00261244)
(0.268845 -15.6952 -0.00234679)
(0.244717 -14.7977 -0.00213604)
(0.226079 -13.7798 -0.00197341)
(0.209872 -12.7476 -0.00183196)
(0.193736 -11.7773 -0.00169113)
(0.17721 -10.8921 -0.0015469)
(0.160092 -10.0902 -0.00139749)
(0.142485 -9.35988 -0.00124383)
(0.124537 -8.68776 -0.00108718)
(0.106436 -8.06177 -0.000929195)
(0.0883633 -7.47234 -0.000771459)
(0.0704816 -6.91246 -0.000615386)
(0.052928 -6.37726 -0.000462177)
(0.0358153 -5.86355 -0.000312814)
(0.019238 -5.36936 -0.000168123)
(0.00327799 -4.89349 -2.88178e-05)
(-0.0119876 -4.43531 0.000104428)
(-0.0264829 -3.9945 0.000230951)
(-0.0401287 -3.57091 0.000350062)
(-0.0528414 -3.16453 0.000461031)
(-0.0645344 -2.77537 0.0005631)
(-0.0751198 -2.40349 0.000655504)
(-0.0845131 -2.04894 0.000737504)
(-0.0926403 -1.71182 0.000808456)
(-0.0994445 -1.39219 0.000867862)
(-0.104904 -1.09013 0.000915529)
(-0.109026 -0.805702 0.000951527)
(-0.111903 -0.53893 0.000976658)
(-0.00651002 -44.3106 5.68452e-05)
(0.0675172 -43.1464 -0.00058932)
(0.0207635 -40.8988 -0.000181865)
(-0.326712 -40.0837 0.00285136)
(0.165476 -46.9725 -0.00144355)
(0.245196 -44.9099 -0.00214064)
(-0.134808 -36.2259 0.00117569)
(-0.213838 -28.0438 0.00186714)
(0.28267 -20.0495 -0.00246062)
(0.337031 -16.9201 -0.00293591)
(0.293992 -16.379 -0.00256498)
(0.263332 -15.6954 -0.00229877)
(0.239332 -14.8008 -0.00208907)
(0.220838 -13.7841 -0.00192767)
(0.205105 -12.7501 -0.00179035)
(0.189371 -11.7769 -0.00165303)
(0.173231 -10.889 -0.00151216)
(0.156394 -10.0845 -0.00136521)
(0.138979 -9.35212 -0.00121322)
(0.121106 -8.67834 -0.00105723)
(0.102967 -8.05109 -0.000898921)
(0.0847415 -7.46075 -0.00073985)
(0.0666005 -6.90026 -0.000581516)
(0.0486927 -6.3647 -0.000425216)
(0.0311464 -5.85085 -0.00027207)
(0.0140731 -5.35668 -0.00012305)
(-0.00242813 -4.88099 2.09786e-05)
(-0.0182635 -4.42311 0.000159197)
(-0.0333421 -3.98271 0.000290811)
(-0.0475715 -3.55964 0.000415016)
(-0.0608574 -3.15387 0.000530988)
(-0.0731052 -2.7654 0.000637899)
(-0.0842218 -2.39428 0.00073494)
(-0.0941202 -2.04055 0.000821349)
(-0.102726 -1.70429 0.00089648)
(-0.109984 -1.38553 0.000959848)
(-0.115872 -1.08434 0.00101125)
(-0.120393 -0.800749 0.00105074)
(-0.123616 -0.534752 0.00107889)
(-0.00182274 -44.3948 1.59355e-05)
(0.0610894 -43.2195 -0.000533213)
(0.0314039 -40.5377 -0.000274728)
(-0.407045 -40.0648 0.00355262)
(0.288683 -47.5221 -0.002519)
(0.0455088 -44.5605 -0.000398239)
(-0.220263 -35.9109 0.00192174)
(-0.250396 -28.3162 0.00218651)
(0.27654 -20.542 -0.002408)
(0.33081 -16.9742 -0.00288325)
(0.287867 -16.3753 -0.00251174)
(0.256408 -15.6944 -0.0022385)
(0.232231 -14.803 -0.00202713)
(0.213667 -13.7879 -0.00186509)
(0.198384 -12.7524 -0.0017317)
(0.183093 -11.7766 -0.00159824)
(0.167445 -10.8858 -0.00146166)
(0.151018 -10.0788 -0.00131829)
(0.133937 -9.34426 -0.00116922)
(0.116281 -8.66873 -0.00101512)
(0.0982363 -8.04012 -0.000857632)
(0.0799731 -7.44877 -0.000698233)
(0.0616686 -6.88758 -0.000538474)
(0.0434815 -6.35159 -0.000379737)
(0.0255565 -5.83752 -0.000223285)
(0.00802343 -5.34333 -7.02536e-05)
(-0.00899822 -4.86778 7.83161e-05)
(-0.0253948 -4.41019 0.000221431)
(-0.0410564 -3.9702 0.000358134)
(-0.0558743 -3.54766 0.000487476)
(-0.0697399 -3.14251 0.000608508)
(-0.0825475 -2.75476 0.000720305)
(-0.0941957 -2.38442 0.000821985)
(-0.104592 -2.03155 0.000912741)
(-0.113659 -1.69617 0.000991895)
(-0.121339 -1.37832 0.00105894)
(-0.127604 -1.07804 0.00111365)
(-0.132452 -0.795315 0.00115598)
(-0.135926 -0.530149 0.00118633)
(0.000563879 -44.4814 -4.89634e-06)
(0.06117 -43.295 -0.000533914)
(0.0262233 -40.1149 -0.000229483)
(-0.429311 -40.1579 0.00374717)
(0.435266 -47.9508 -0.00379858)
(-0.152206 -44.0475 0.00132703)
(-0.191065 -35.7364 0.00166737)
(-0.215003 -28.6335 0.00187774)
(0.295135 -21.0187 -0.00257162)
(0.325739 -17.0234 -0.00284168)
(0.281288 -16.3689 -0.00245485)
(0.248261 -15.6914 -0.00216762)
(0.223601 -14.8039 -0.00195187)
(0.204782 -13.7911 -0.00178756)
(0.189937 -12.7545 -0.00165797)
(0.175134 -11.7761 -0.00152878)
(0.160074 -10.8826 -0.00139733)
(0.144163 -10.0731 -0.00125847)
(0.127533 -9.33632 -0.00111332)
(0.110202 -8.65895 -0.000962067)
(0.0923517 -8.02888 -0.000806271)
(0.0741365 -7.43642 -0.000647293)
(0.0557386 -6.87442 -0.000486719)
(0.0373257 -6.3379 -0.000326013)
(0.0190596 -5.82355 -0.000166585)
(0.00109079 -5.32929 -9.75098e-06)
(-0.0164386 -4.85384 0.00014325)
(-0.033392 -4.39651 0.000291225)
(-0.0496378 -3.95693 0.000433026)
(-0.0650475 -3.53492 0.000567533)
(-0.0794955 -3.13043 0.000693648)
(-0.0928624 -2.74341 0.000810326)
(-0.105036 -2.3739 0.000916593)
(-0.115916 -2.02191 0.00101157)
(-0.125418 -1.68746 0.00109453)
(-0.133481 -1.37056 0.00116492)
(-0.140069 -1.07122 0.00122244)
(-0.145172 -0.789429 0.001267)
(-0.148811 -0.525158 0.00129879)
(-0.00366264 -44.5699 3.19873e-05)
(0.0747208 -43.3709 -0.00065218)
(-0.0031132 -39.6713 2.66229e-05)
(-0.366046 -40.4492 0.00319527)
(0.586318 -48.2093 -0.00511721)
(-0.273817 -43.4956 0.00238822)
(-0.054386 -35.7296 0.00047504)
(-0.125088 -28.9445 0.00109288)
(0.332635 -21.4336 -0.0029003)
(0.322513 -17.0544 -0.00281696)
(0.274419 -16.3573 -0.00239571)
(0.239049 -15.6855 -0.00208751)
(0.213602 -14.8029 -0.00186467)
(0.194385 -13.7933 -0.00169682)
(0.179984 -12.7562 -0.00157111)
(0.165737 -11.7756 -0.00144675)
(0.151362 -10.8794 -0.00132129)
(0.136068 -10.0673 -0.00118781)
(0.119983 -9.32831 -0.00104743)
(0.10306 -8.64902 -0.000899728)
(0.0854712 -8.01738 -0.000746217)
(0.0673564 -7.42369 -0.000588117)
(0.048903 -6.86078 -0.000427059)
(0.0302893 -6.32364 -0.000264602)
(0.011696 -5.80892 -0.00010232)
(-0.00670346 -5.31451 5.8272e-05)
(-0.0247418 -4.83913 0.000215714)
(-0.0422569 -4.38205 0.000368591)
(-0.0590928 -3.94287 0.000515543)
(-0.075099 -3.52141 0.000655255)
(-0.0901308 -3.11758 0.000786466)
(-0.104053 -2.73134 0.00090799)
(-0.11674 -2.36269 0.00101874)
(-0.128083 -2.01163 0.00111776)
(-0.13799 -1.67816 0.00120425)
(-0.146393 -1.36226 0.00127761)
(-0.153248 -1.06392 0.00133747)
(-0.158536 -0.783116 0.00138364)
(-0.16226 -0.51981 0.00141617)
(-0.0170724 -44.661 0.000149021)
(0.105049 -43.4459 -0.000916869)
(-0.0563022 -39.259 0.000490929)
(-0.228874 -40.9996 0.00199831)
(0.710435 -48.3113 -0.00620075)
(-0.276231 -43.0181 0.00240926)
(0.144341 -35.8647 -0.00125901)
(-0.0120037 -29.201 0.000105598)
(0.375485 -21.7597 -0.00327544)
(0.32139 -17.0591 -0.00281092)
(0.267324 -16.338 -0.00233476)
(0.228936 -15.6759 -0.00199962)
(0.202459 -14.7997 -0.00176752)
(0.182769 -13.7944 -0.00159545)
(0.168846 -12.7574 -0.0014739)
(0.155241 -11.7748 -0.00135515)
(0.141645 -10.8761 -0.00123648)
(0.127049 -10.0616 -0.00110908)
(0.111572 -9.32022 -0.000974008)
(0.0950992 -8.63892 -0.000830243)
(0.0777976 -8.0056 -0.000679241)
(0.0597936 -7.41056 -0.000522109)
(0.0412836 -6.84662 -0.000360559)
(0.0224593 -6.30875 -0.000196264)
(0.00352355 -5.79357 -3.0995e-05)
(-0.0153249 -5.29896 0.000133514)
(-0.033891 -4.8236 0.000295562)
(-0.0519849 -4.36674 0.00045349)
(-0.0694245 -3.92797 0.00060571)
(-0.0860355 -3.50707 0.000750702)
(-0.101653 -3.10394 0.000887024)
(-0.116124 -2.71852 0.00101334)
(-0.12931 -2.35078 0.00112845)
(-0.141092 -2.0007 0.00123129)
(-0.151368 -1.66826 0.00132101)
(-0.160063 -1.35342 0.00139692)
(-0.167127 -1.05615 0.0014586)
(-0.172531 -0.7764 0.00150578)
(-0.176265 -0.514134 0.00153841)
(-0.0395887 -44.7545 0.000345531)
(0.149763 -43.518 -0.00130711)
(-0.125239 -38.9134 0.00109268)
(-0.0547872 -41.7941 0.000479067)
(0.779086 -48.3271 -0.00680008)
(-0.161495 -42.6891 0.00140803)
(0.337596 -36.0688 -0.00294562)
(0.0842923 -29.372 -0.000735317)
(0.400451 -21.9982 -0.00349422)
(0.32159 -17.0387 -0.00281623)
(0.26013 -16.3093 -0.00227293)
(0.218197 -15.662 -0.00190631)
(0.190527 -14.7939 -0.0016635)
(0.170334 -13.7941 -0.00148693)
(0.156938 -12.7581 -0.00136996)
(0.144064 -11.7739 -0.00125759)
(0.131321 -10.8728 -0.00114637)
(0.117471 -10.0558 -0.00102549)
(0.102624 -9.31204 -0.000895908)
(0.0865983 -8.62862 -0.000756044)
(0.0695609 -7.99349 -0.00060735)
(0.0516309 -7.39696 -0.000450865)
(0.0330193 -6.83187 -0.00028843)
(0.0139359 -6.29316 -0.000121875)
(-0.00539041 -5.77745 4.68014e-05)
(-0.0247325 -5.28258 0.000215618)
(-0.0438651 -4.8072 0.00038261)
(-0.0625693 -4.35055 0.000545864)
(-0.0806353 -3.91219 0.000703552)
(-0.0978644 -3.49187 0.000853939)
(-0.11407 -3.08948 0.000995398)
(-0.129083 -2.70492 0.00112644)
(-0.142751 -2.33815 0.00124575)
(-0.154942 -1.98911 0.00135217)
(-0.165548 -1.65776 0.00144477)
(-0.174486 -1.34405 0.0015228)
(-0.181699 -1.04792 0.00158578)
(-0.187151 -0.769303 0.00163339)
(-0.190823 -0.508155 0.00166548)
(-0.0688805 -44.8497 0.000601175)
(0.203908 -43.5878 -0.00177964)
(-0.20075 -38.6465 0.00175179)
(0.123123 -42.7753 -0.00107363)
(0.77978 -48.3312 -0.0068062)
(0.033308 -42.5341 -0.000291943)
(0.450196 -36.2303 -0.00392859)
(0.11709 -29.448 -0.0010221)
(0.380234 -22.1825 -0.0033184)
(0.321304 -17.0108 -0.0028165)
(0.25308 -16.2711 -0.00221206)
(0.2073 -15.6434 -0.00181164)
(0.178365 -14.7854 -0.00155751)
(0.157657 -13.7926 -0.0013763)
(0.144814 -12.7583 -0.00126415)
(0.132731 -11.7729 -0.00115868)
(0.120867 -10.8695 -0.00105512)
(0.107759 -10.0499 -0.00094072)
(0.0935044 -9.30373 -0.000816308)
(0.0778623 -8.61806 -0.000679794)
(0.0610081 -7.98096 -0.0005327)
(0.0430611 -7.38282 -0.00037607)
(0.0242547 -6.81645 -0.000211935)
(0.00482183 -6.2768 -4.23323e-05)
(-0.0149778 -5.76047 0.000130475)
(-0.0348858 -5.26527 0.00030423)
(-0.0546449 -4.78985 0.000476689)
(-0.0740057 -4.33341 0.000645673)
(-0.0927305 -3.89548 0.000809111)
(-0.110596 -3.47578 0.000965053)
(-0.127395 -3.07417 0.00111169)
(-0.142942 -2.69053 0.00124739)
(-0.15707 -2.32479 0.00137072)
(-0.169638 -1.97686 0.00148044)
(-0.180531 -1.64668 0.00157554)
(-0.18966 -1.33417 0.00165524)
(-0.196962 -1.03925 0.00171899)
(-0.202394 -0.761849 0.00176644)
(-0.205935 -0.501896 0.00179738)
(-0.101896 -44.9457 0.00088932)
(0.261363 -43.6567 -0.00228106)
(-0.27239 -38.4551 0.00237708)
(0.278894 -43.8559 -0.00243317)
(0.715425 -48.3812 -0.0062445)
(0.241295 -42.5059 -0.00210703)
(0.423024 -36.2359 -0.00369195)
(0.0552108 -29.4343 -0.000482538)
(0.296133 -22.3705 -0.00258437)
(0.318408 -17.0105 -0.00279226)
(0.2467 -16.2254 -0.00215658)
(0.197035 -15.62 -0.00172247)
(0.166785 -14.7741 -0.00145662)
(0.145507 -13.7896 -0.00127027)
(0.133169 -12.7581 -0.0011625)
(0.121862 -11.7717 -0.0010638)
(0.110819 -10.8662 -0.000967415)
(0.0983726 -10.044 -0.000858787)
(0.0845948 -9.29519 -0.000738542)
(0.069202 -8.60711 -0.000604205)
(0.0523843 -7.96791 -0.000457433)
(0.0342716 -7.368 -0.000299356)
(0.0151262 -6.80022 -0.000132266)
(-0.00478881 -6.25953 4.1544e-05)
(-0.0251793 -5.74251 0.000219507)
(-0.0457527 -5.24696 0.000399069)
(-0.0662184 -4.77148 0.000577694)
(-0.0862961 -4.31525 0.000752936)
(-0.105721 -3.87777 0.000922482)
(-0.124246 -3.45874 0.00108418)
(-0.141644 -3.05797 0.00123605)
(-0.157715 -2.67532 0.00137633)
(-0.17228 -2.31068 0.00150347)
(-0.18519 -1.96395 0.00161618)
(-0.196324 -1.63502 0.00171337)
(-0.205587 -1.32379 0.00179425)
(-0.212915 -1.03017 0.00185823)
(-0.218261 -0.754057 0.00190493)
(-0.221601 -0.495382 0.00193412)
(-0.134612 -45.0412 0.00117485)
(0.314715 -43.7269 -0.00274666)
(-0.330331 -38.3289 0.00288278)
(0.393609 -44.9388 -0.00343443)
(0.606544 -48.4881 -0.0052942)
(0.379076 -42.477 -0.00330956)
(0.22817 -36.0109 -0.00199198)
(-0.0910623 -29.3672 0.000793831)
(0.159722 -22.629 -0.00139326)
(0.313629 -17.0779 -0.00274897)
(0.241973 -16.1767 -0.00211523)
(0.188592 -15.5919 -0.00164915)
(0.156844 -14.7602 -0.00137005)
(0.134837 -13.7854 -0.00117716)
(0.122809 -12.7574 -0.00107207)
(0.112144 -11.7705 -0.000978978)
(0.101752 -10.8628 -0.000888269)
(0.089782 -10.0378 -0.000783805)
(0.076274 -9.2863 -0.000665916)
(0.0609148 -8.59563 -0.000531875)
(0.0439162 -7.95415 -0.000383525)
(0.0254282 -7.35232 -0.000222175)
(0.00574935 -6.78302 -5.04306e-05)
(-0.014822 -6.24121 0.000129106)
(-0.0359534 -5.72345 0.000313535)
(-0.0573163 -5.22751 0.000499988)
(-0.0785864 -4.75198 0.000685633)
(-0.0994532 -4.29599 0.000867763)
(-0.119626 -3.85902 0.00104384)
(-0.138836 -3.44071 0.00121151)
(-0.156839 -3.04086 0.00136867)
(-0.173422 -2.65928 0.00151341)
(-0.188397 -2.29583 0.00164414)
(-0.201609 -1.95037 0.00175948)
(-0.212933 -1.62278 0.00185834)
(-0.222272 -1.31293 0.00193988)
(-0.22956 -1.02069 0.00200352)
(-0.234752 -0.74595 0.00204887)
(-0.237823 -0.488633 0.00207571)
(-0.163088 -45.135 0.00142337)
(0.35751 -43.8011 -0.00312013)
(-0.368213 -38.2514 0.00321335)
(0.4566 -45.9429 -0.00398429)
(0.48002 -48.6063 -0.00419)
(0.383255 -42.2863 -0.00334623)
(-0.0915918 -35.5625 0.000798218)
(-0.260558 -29.3225 0.00227333)
(0.0195721 -23.0035 -0.000169591)
(0.312249 -17.2341 -0.00273267)
(0.240446 -16.1291 -0.00210207)
(0.183475 -15.5594 -0.00160481)
(0.149742 -14.7434 -0.00130828)
(0.126695 -13.7796 -0.00110613)
(0.114582 -12.7562 -0.00100027)
(0.104276 -11.769 -0.000910305)
(0.0942224 -10.8591 -0.00082255)
(0.0824303 -10.0313 -0.000719638)
(0.0688837 -9.27684 -0.000601414)
(0.0532579 -8.5834 -0.000465049)
(0.0357895 -7.93946 -0.0003126)
(0.0166582 -7.33558 -0.000145638)
(-0.00379594 -6.76466 3.28729e-05)
(-0.0252348 -6.22165 0.00021998)
(-0.0472854 -5.70312 0.000412431)
(-0.0695824 -5.2068 0.000607036)
(-0.0917683 -4.73124 0.000800675)
(-0.113504 -4.27555 0.000990392)
(-0.134476 -3.83914 0.00117344)
(-0.154397 -3.42165 0.00134732)
(-0.173009 -3.0228 0.00150979)
(-0.190088 -2.64238 0.00165887)
(-0.205441 -2.28022 0.0017929)
(-0.21891 -1.93614 0.00191048)
(-0.230369 -1.60998 0.00201052)
(-0.239722 -1.30159 0.00209218)
(-0.246903 -1.01082 0.00215489)
(-0.25187 -0.73755 0.00219827)
(-0.254601 -0.481673 0.00222215)
(-0.184027 -45.2257 0.00160611)
(0.385319 -43.8797 -0.0033628)
(-0.388196 -38.1987 0.00338765)
(0.468345 -46.8184 -0.00408693)
(0.355305 -48.6506 -0.00310167)
(0.246078 -41.8271 -0.00214925)
(-0.418942 -35.0058 0.00365502)
(-0.370784 -29.3869 0.0032359)
(-0.0623102 -23.4909 0.000545389)
(0.321523 -17.462 -0.00280928)
(0.244069 -16.0828 -0.00213484)
(0.183109 -15.5223 -0.00160197)
(0.146592 -14.7236 -0.00128104)
(0.122049 -13.7721 -0.00106561)
(0.109258 -12.7543 -0.000953804)
(0.0988805 -11.7671 -0.000863209)
(0.0887136 -10.855 -0.000774469)
(0.0766859 -10.0242 -0.000669502)
(0.062694 -9.26653 -0.000547394)
(0.0464211 -8.57013 -0.000405383)
(0.0281282 -7.92358 -0.00024574)
(0.0080335 -7.31753 -7.03706e-05)
(-0.0134784 -6.7449 0.000117371)
(-0.0360261 -6.20067 0.000314156)
(-0.0591954 -5.68136 0.000516371)
(-0.0825849 -5.18469 0.000720511)
(-0.105806 -4.70916 0.000923185)
(-0.128494 -4.25383 0.00112122)
(-0.150316 -3.81809 0.00131169)
(-0.17097 -3.4015 0.00149197)
(-0.190189 -3.00376 0.00165973)
(-0.207742 -2.62462 0.00181296)
(-0.223436 -2.26385 0.00194996)
(-0.237111 -1.92125 0.00206934)
(-0.248644 -1.59663 0.00217002)
(-0.257942 -1.2898 0.00225121)
(-0.264945 -1.0006 0.00231236)
(-0.269615 -0.728879 0.00235316)
(-0.271935 -0.474525 0.00237346)
(-0.196463 -45.3117 0.00171464)
(0.397473 -43.9572 -0.00346886)
(-0.400669 -38.1426 0.00349638)
(0.444102 -47.5497 -0.00387548)
(0.236279 -48.5394 -0.00206303)
(0.0319371 -41.1293 -0.000280386)
(-0.619908 -34.5174 0.00540923)
(-0.369422 -29.606 0.00322466)
(-0.0570434 -24.0392 0.000499678)
(0.346972 -17.7156 -0.00302983)
(0.254732 -16.0325 -0.00223036)
(0.188408 -15.4799 -0.00164871)
(0.148194 -14.7006 -0.0012953)
(0.121593 -13.7625 -0.00106168)
(0.107408 -12.7513 -0.000937657)
(0.0964093 -11.7643 -0.000841641)
(0.0855649 -10.85 -0.000746989)
(0.0727929 -10.016 -0.000635528)
(0.0578662 -9.25503 -0.000505264)
(0.0404986 -8.55549 -0.000353701)
(0.020973 -7.90619 -0.000183301)
(-0.000445955 -7.29787 3.62553e-06)
(-0.0233275 -6.7235 0.000203321)
(-0.0472454 -6.17803 0.000412065)
(-0.0717452 -5.65797 0.000625892)
(-0.0963913 -5.16101 0.000841)
(-0.120767 -4.6856 0.00105376)
(-0.144489 -4.23075 0.0012608)
(-0.167206 -3.79578 0.00145909)
(-0.188608 -3.38022 0.00164591)
(-0.208423 -2.98372 0.00181888)
(-0.226421 -2.60597 0.00197598)
(-0.242408 -2.24672 0.00211554)
(-0.256231 -1.90572 0.00223621)
(-0.26777 -1.58274 0.00233696)
(-0.276942 -1.27758 0.00241705)
(-0.283691 -0.990043 0.00247599)
(-0.287988 -0.719962 0.00251353)
(-0.289825 -0.467212 0.00252961)
(-0.199271 -45.3917 0.00173916)
(0.394653 -44.0188 -0.00344424)
(-0.41994 -38.061 0.00366443)
(0.40961 -48.1484 -0.00357453)
(0.119531 -48.2464 -0.00104426)
(-0.150543 -40.3595 0.00131242)
(-0.635624 -34.2341 0.00554696)
(-0.256977 -29.9517 0.00224376)
(0.00591119 -24.5752 -4.96631e-05)
(0.38768 -17.9521 -0.0033856)
(0.273317 -15.9693 -0.00239596)
(0.199503 -15.4314 -0.00174617)
(0.154843 -14.6738 -0.00135363)
(0.125615 -13.7506 -0.00109684)
(0.109307 -12.7468 -0.000954243)
(0.0970749 -11.7604 -0.000847454)
(0.0849221 -10.8437 -0.000741387)
(0.0708319 -10.0064 -0.000618421)
(0.0544232 -9.24193 -0.000475226)
(0.0354667 -8.53909 -0.000309795)
(0.0142643 -7.88693 -0.000124763)
(-0.00886459 -7.27629 7.70874e-05)
(-0.0334433 -6.70016 0.000291594)
(-0.0590001 -6.15349 0.000514643)
(-0.0850428 -5.63278 0.000741938)
(-0.111105 -5.13563 0.000969411)
(-0.136749 -4.66045 0.00119323)
(-0.161573 -4.20621 0.0014099)
(-0.185219 -3.77216 0.0016163)
(-0.207372 -3.35777 0.00180968)
(-0.227763 -2.96265 0.00198766)
(-0.246163 -2.58644 0.00214828)
(-0.262387 -2.22883 0.00228991)
(-0.276289 -1.88955 0.00241129)
(-0.287761 -1.56834 0.00251145)
(-0.296727 -1.26495 0.00258974)
(-0.303143 -0.979174 0.00264577)
(-0.306989 -0.710824 0.00267937)
(-0.308266 -0.45976 0.00269057)
(-0.192709 -45.4645 0.00168188)
(0.375756 -44.0371 -0.00327933)
(-0.451377 -37.9496 0.00393871)
(0.392872 -48.6444 -0.00342848)
(0.0108835 -47.8227 -9.61439e-05)
(-0.216118 -39.7151 0.00188513)
(-0.5116 -34.1882 0.00446505)
(-0.0916656 -30.337 0.000801137)
(0.0534372 -25.0371 -0.000464519)
(0.431819 -18.1654 -0.00377136)
(0.298831 -15.8877 -0.00262218)
(0.215825 -15.3758 -0.00188927)
(0.166307 -14.6434 -0.00145399)
(0.133997 -13.7359 -0.00117006)
(0.114915 -12.7404 -0.0010032)
(0.100824 -11.7548 -0.000880188)
(0.0867126 -10.8358 -0.000757026)
(0.0706976 -9.99496 -0.000617263)
(0.0522308 -9.22677 -0.000456107)
(0.0311683 -8.5205 -0.000272297)
(0.00783057 -7.86542 -6.86279e-05)
(-0.0174002 -7.25244 0.000151567)
(-0.0440021 -6.6746 0.000383733)
(-0.0714592 -6.12683 0.000623368)
(-0.0992454 -5.60557 0.000865881)
(-0.126869 -5.10838 0.00110698)
(-0.153875 -4.6336 0.0013427)
(-0.179854 -4.18014 0.00156945)
(-0.204445 -3.74717 0.00178409)
(-0.227336 -3.33413 0.00198391)
(-0.248263 -2.94054 0.00216659)
(-0.26701 -2.56602 0.00233023)
(-0.283402 -2.2102 0.00247334)
(-0.297307 -1.87277 0.00259473)