/*--------------------------------*- C++ -*----------------------------------*\
| =========                 |                                                 |
| \\      /  F ield         | OpenFOAM: The Open Source CFD Toolbox           |
|  \\    /   O peration     | Version:  v2012                                 |
|   \\  /    A nd           | Website:  www.openfoam.com                      |
|    \\/     M anipulation  |                                                 |
\*---------------------------------------------------------------------------*/
FoamFile
{
    version     2.0;
    format      ascii;
    class       surfaceScalarField;
    location    "0.4";
    object      alphaPhi0.water;
}
// * * * * * * * * * * * * * * * * * * * * * * * * * * * * * * * * * * * * * //

dimensions      [0 3 -1 0 0 0 0];
oriented        oriented;


internalField   nonuniform List<scalar> 
8145
(
-1.97062e-102
1.98297e-102
-9.16265e-112
-6.53408e-100
6.57922e-100
-1.58051e-108
-2.67661e-97
2.69627e-97
-3.60042e-106
-1.40229e-94
1.41317e-94
-7.87749e-104
-9.83346e-92
9.91335e-92
2.27621e-101
-9.83081e-89
9.91381e-89
1.67128e-97
-2.8123e-85
2.83739e-85
5.58366e-95
-5.50416e-82
8.80162e-82
8.9439e-91
2.25009e-80
5.72332e-89
-1.39086e-107
1.38402e-107
-8.5549e-116
-2.86691e-105
2.85484e-105
-1.03365e-113
-6.79948e-103
6.77383e-103
-1.31008e-111
-1.87211e-100
1.88614e-100
-8.92385e-110
-6.25539e-98
6.30534e-98
-1.55568e-106
-2.58162e-95
2.60336e-95
-3.51862e-104
-1.3625e-92
1.37452e-92
-7.6409e-102
-9.62343e-90
9.71178e-90
2.58064e-99
-9.68823e-87
9.78016e-87
1.74046e-95
-2.73642e-83
2.76391e-83
6.40352e-93
-5.49807e-80
8.79308e-80
9.03558e-89
2.15278e-78
5.25904e-87
-2.96671e-16
-7.51203e-11
-1.12745e-17
-4.49644e-19
-3.28525e-14
-4.1466e-21
-5.38499e-24
-7.24151e-18
-1.22885e-24
-5.27957e-32
-5.39969e-23
-6.76309e-30
-7.35924e-41
-3.99866e-31
-3.89251e-38
-3.38648e-48
-4.4104e-40
-3.7917e-47
-3.313e-54
-1.6651e-47
-1.26679e-54
-6.8749e-61
-1.46033e-53
-9.54922e-61
-2.1691e-68
-2.68894e-60
-1.57684e-67
-1.76801e-70
-7.36763e-68
-4.18518e-75
-1.15933e-72
-5.39274e-70
-2.88356e-77
-5.50617e-75
-3.26637e-72
-1.6285e-79
-2.25377e-77
-1.43771e-74
-6.65945e-82
-6.91208e-80
-5.3028e-77
-2.38893e-84
-7.88231e-83
-1.50077e-79
-6.44156e-87
-2.9478e-85
-1.57301e-82
-6.24244e-90
-3.80771e-89
-5.53644e-85
-2.03788e-92
-4.56071e-94
-6.79207e-89
-2.34563e-96
-7.91587e-98
-6.76745e-94
-2.51335e-101
-7.27214e-105
-1.10257e-97
-3.9045e-105
-1.60081e-109
-8.55281e-105
-3.22454e-112
-2.19667e-117
-2.17148e-109
-6.35642e-117
-4.72455e-120
-2.26796e-117
-7.79412e-125
-7.28721e-121
-3.77268e-120
-1.48532e-127
-4.82737e-121
-1.65396e-121
-1.70923e-128
-3.57712e-121
-4.51133e-122
-1.0715e-128
-4.89654e-121
2.40397e-121
-4.54876e-128
-7.13965e-119
7.15008e-119
-2.89777e-126
-1.1515e-116
1.14825e-116
-2.19564e-124
-1.66833e-114
1.66051e-114
-1.73923e-122
-2.43083e-112
2.41793e-112
-1.38024e-120
-3.73211e-110
3.71189e-110
-6.72131e-119
-6.21301e-108
6.18041e-108
-2.62539e-116
-1.1313e-105
1.13973e-105
-7.13485e-114
-2.35219e-103
2.37083e-103
-8.74753e-112
-5.62527e-101
5.67238e-101
-1.13994e-109
-1.57838e-98
1.59233e-98
-7.6994e-108
-5.31847e-96
5.36784e-96
-1.36347e-104
-2.21324e-93
2.23473e-93
-3.06757e-102
-1.17771e-90
1.1896e-90
-6.58827e-100
-8.38566e-88
8.47326e-88
2.56457e-97
-8.67341e-85
8.76501e-85
1.61134e-93
-2.34487e-81
2.37173e-81
6.12842e-91
-4.90436e-78
7.84553e-78
8.11306e-87
1.83684e-76
4.28222e-85
-6.35818e-16
-1.22003e-10
-2.03626e-17
-4.70975e-19
-8.36886e-14
-1.02702e-20
-6.55094e-24
-7.54621e-18
-1.31252e-24
-7.65122e-32
-6.40174e-23
-7.89084e-30
-1.09373e-40
-5.73737e-31
-5.46218e-38
-4.94342e-48
-6.47155e-40
-5.51773e-47
-5.45855e-54
-2.38834e-47
-1.83772e-54
-1.22754e-60
-2.35953e-53
-1.57513e-60
-3.59824e-68
-4.78278e-60
-2.84467e-67
-2.95557e-70
-1.20017e-67
-7.04528e-75
-2.05396e-72
-8.81048e-70
-4.92545e-77
-1.05862e-74
-5.62379e-72
-2.954e-79
-4.38858e-77
-2.70566e-74
-1.31513e-81
-1.39047e-79
-1.01945e-76
-4.77634e-84
-1.68615e-82
-2.93934e-79
-1.33348e-86
-6.53434e-85
-3.28661e-82
-1.38196e-89
-1.01296e-88
-1.13356e-84
-4.61488e-92
-1.30875e-93
-1.67255e-88
-6.33333e-96
-2.67073e-97
-1.97196e-93
-7.28354e-101
-3.81808e-104
-3.53878e-97
-1.32469e-104
-1.48946e-108
-4.91811e-104
-1.69842e-111
-2.38346e-116
-1.60462e-108
-5.92177e-116
-4.27896e-118
-2.23807e-116
-8.46407e-124
-1.28745e-119
-4.82187e-118
-1.23021e-125
-3.67434e-120
-9.1417e-120
-3.12452e-127
-3.27253e-120
-1.09272e-120
-8.91276e-128
-1.98195e-119
1.8622e-119
-3.38265e-126
-4.83795e-117
4.90467e-117
-2.05111e-124
-7.84453e-115
7.92341e-115
-1.56628e-122
-1.14651e-112
1.1565e-112
-1.25346e-120
-1.68609e-110
1.70019e-110
-1.00715e-118
-2.61306e-108
2.63503e-108
-5.0309e-117
-4.39079e-106
4.4289e-106
-1.88932e-114
-8.16872e-104
8.24272e-104
-5.22002e-112
-1.71456e-101
1.73082e-101
-6.45631e-110
-4.13878e-99
4.17995e-99
-8.64517e-108
-1.17211e-96
1.1843e-96
-5.71835e-106
-3.98613e-94
4.02935e-94
-1.05377e-102
-1.6741e-91
1.69295e-91
-2.36595e-100
-8.98974e-89
9.09436e-89
-5.00836e-98
-6.45886e-86
6.53616e-86
2.23673e-95
-7.00754e-83
7.08963e-83
1.34595e-91
-1.73012e-79
1.75324e-79
5.16038e-89
-3.87762e-76
6.20559e-76
6.53829e-85
1.38713e-74
3.14346e-83
-1.28693e-15
-1.77152e-10
-3.07268e-17
-4.90249e-19
-1.69522e-13
-2.42993e-20
-7.64629e-24
-7.67908e-18
-1.4934e-24
-1.11916e-31
-7.16659e-23
-1.00806e-29
-1.64226e-40
-8.22442e-31
-8.95339e-38
-7.27654e-48
-9.51725e-40
-9.20784e-47
-8.98539e-54
-3.43853e-47
-2.98833e-54
-2.27334e-60
-3.77816e-53
-2.82862e-60
-6.04812e-68
-8.72925e-60
-5.6572e-67
-4.98707e-70
-1.971e-67
-1.25184e-74
-3.62345e-72
-1.4494e-69
-8.6898e-77
-2.05081e-74
-9.6052e-72
-5.40151e-79
-8.88398e-77
-5.08957e-74
-2.63124e-81
-2.84287e-79
-2.03016e-76
-9.95642e-84
-3.70769e-82
-5.85407e-79
-2.80733e-86
-1.35834e-84
-7.06932e-82
-3.14971e-89
-2.49301e-88
-2.21712e-84
-9.82124e-92
-4.39372e-93
-3.83557e-88
-1.58382e-95
-9.58102e-97
-6.88353e-93
-2.47208e-100
-2.78034e-103
-1.30501e-96
-4.78548e-104
-1.06244e-107
-3.59954e-103
-1.24254e-110
-2.23908e-115
-9.30393e-108
-4.23667e-115
-5.30054e-116
-2.2781e-115
-7.97322e-123
-3.331e-117
-4.69975e-116
-9.64089e-124
-9.66617e-118
-2.04137e-117
-6.44084e-125
-5.36964e-118
-2.37474e-118
-2.00216e-125
-1.45608e-117
9.51671e-118
-1.74021e-124
-2.87482e-115
2.90995e-115
-1.25815e-122
-4.69584e-113
4.74718e-113
-9.73941e-121
-6.92683e-111
6.99685e-111
-7.88856e-119
-1.02889e-108
1.03918e-108
-6.43263e-117
-1.61086e-106
1.62727e-106
-3.28528e-115
-2.7346e-104
2.76341e-104
-1.19719e-112
-5.13974e-102
5.19603e-102
-3.33485e-110
-1.08984e-99
1.10226e-99
-4.15425e-108
-2.65762e-97
2.68916e-97
-5.67229e-106
-7.60314e-95
7.6968e-95
-3.73286e-104
-2.612e-92
2.64531e-92
-7.13113e-101
-1.10814e-89
1.12271e-89
-1.60034e-98
-6.01085e-87
6.09204e-87
-3.32771e-96
-4.36194e-84
4.42221e-84
1.70934e-93
-4.95148e-81
5.01846e-81
1.0093e-89
-1.08988e-77
1.10698e-77
3.77395e-87
-2.69583e-74
4.31698e-74
4.7114e-83
9.19609e-73
2.07641e-81
-2.31462e-15
-2.35685e-10
-4.50418e-17
-5.15375e-19
-2.88547e-13
-4.16313e-20
-8.5118e-24
-7.86812e-18
-1.51373e-24
-1.65003e-31
-7.53539e-23
-1.13051e-29
-2.48942e-40
-1.17801e-30
-1.33485e-37
-1.08585e-47
-1.40292e-39
-1.39689e-46
-1.46941e-53
-5.00188e-47
-4.45719e-54
-4.28378e-60
-5.96644e-53
-4.62578e-60
-1.02711e-67
-1.60089e-59
-1.06808e-66
-8.52773e-70
-3.25328e-67
-2.13275e-74
-6.38274e-72
-2.41211e-69
-1.49579e-76
-3.96486e-74
-1.63492e-71
-9.59563e-79
-1.85493e-76
-9.4882e-74
-5.14717e-81
-5.96513e-79
-4.13929e-76
-2.10765e-83
-8.44369e-82
-1.19844e-78
-5.97874e-86
-2.87362e-84
-1.57463e-81
-7.33981e-89
-6.0549e-88
-4.605e-84
-2.11514e-91
-1.66865e-92
-8.98745e-88
-3.89108e-95
-3.97995e-96
-2.58506e-92
-9.45758e-100
-2.2483e-102
-5.56742e-96
-1.99683e-103
-8.29878e-107
-2.5408e-102
-1.00735e-109
-2.00723e-114
-9.38979e-107
-3.31399e-114
-1.48047e-114
-1.60662e-114
-7.15852e-122
-2.85145e-115
-8.70583e-115
-3.2234e-122
-1.03118e-115
-1.40363e-115
-5.46518e-123
-4.83495e-116
-3.16475e-116
-2.04726e-123
-9.70694e-116
4.9742e-116
-9.11483e-123
-1.47441e-113
1.48981e-113
-6.65835e-121
-2.41909e-111
2.44853e-111
-5.21986e-119
-3.60257e-109
3.64553e-109
-4.28446e-117
-5.40769e-107
5.4731e-107
-3.55036e-115
-8.5588e-105
8.66516e-105
-1.87074e-113
-1.46896e-102
1.48784e-102
-6.57929e-111
-2.7915e-100
2.82866e-100
-1.84863e-108
-5.98473e-98
6.0672e-98
-2.31865e-106
-1.4756e-95
1.49662e-95
-3.2386e-104
-4.26847e-93
4.33117e-93
-2.06443e-102
-1.48274e-90
1.50513e-90
-4.1795e-99
-6.36071e-88
6.45917e-88
-9.39578e-97
-3.4887e-85
3.54385e-85
-1.91756e-94
-2.55974e-82
2.60092e-82
1.12705e-91
-3.04846e-79
3.09632e-79
6.57021e-88
-5.79032e-76
5.89832e-76
2.3357e-85
-1.63403e-72
2.61901e-72
2.98933e-81
5.30569e-71
1.21189e-79
-4.05624e-15
-2.92571e-10
-6.32933e-17
-5.81515e-19
-4.39633e-13
-6.62146e-20
-9.01599e-24
-8.9937e-18
-1.64581e-24
-2.45113e-31
-7.44374e-23
-1.1689e-29
-3.80846e-40
-1.68671e-30
-1.97933e-37
-1.65422e-47
-2.07348e-39
-2.16535e-46
-2.37914e-53
-7.41083e-47
-6.94607e-54
-8.05187e-60
-9.27091e-53
-7.70316e-60
-1.75735e-67
-2.89334e-59
-2.06081e-66
-1.48537e-69
-5.38225e-67
-3.73127e-74
-1.1314e-71
-4.08366e-69
-2.65311e-76
-7.62057e-74
-2.80122e-71
-1.72637e-78
-3.94184e-76
-1.75066e-73
-1.00294e-80
-1.29701e-78
-8.5095e-76
-4.53749e-83
-1.99556e-81
-2.54481e-78
-1.31155e-85
-6.89449e-84
-3.62759e-81
-1.76549e-88
-1.60103e-87
-1.14578e-83
-5.14965e-91
-6.32593e-92
-2.40789e-87
-1.03764e-94
-1.7486e-95
-9.01916e-92
-3.60039e-99
-1.88759e-101
-2.28192e-95
-8.78758e-103
-1.17601e-105
-2.02224e-101
-8.4571e-109
-1.59351e-113
-1.7565e-105
-4.69278e-113
-1.14164e-113
-1.00777e-113
-5.68134e-121
-6.94711e-114
-3.89287e-114
-3.10871e-121
-4.22404e-114
-1.74873e-114
-1.56742e-121
-2.13619e-114
-1.21383e-114
-8.94144e-122
-4.34997e-114
2.22732e-114
-4.07539e-121
-6.42771e-112
6.49518e-112
-2.99803e-119
-1.06052e-109
1.07533e-109
-2.38236e-117
-1.59509e-107
1.61796e-107
-1.98358e-115
-2.42107e-105
2.45693e-105
-1.67264e-113
-3.87639e-103
3.93569e-103
-9.06307e-112
-6.73175e-101
6.83814e-101
-3.11701e-109
-1.2945e-98
1.3156e-98
-8.7851e-107
-2.80854e-96
2.85568e-96
-1.11245e-104
-7.00817e-94
7.12902e-94
-1.57953e-102
-2.05179e-91
2.08804e-91
-9.91163e-101
-7.21403e-89
7.34428e-89
-2.10635e-97
-3.13252e-86
3.19016e-86
-4.74456e-95
-1.73916e-83
1.77166e-83
-9.4906e-93
-1.29164e-80
1.31609e-80
6.36586e-90
-1.80015e-77
1.82957e-77
3.6961e-86
-2.59267e-74
2.65002e-74
1.21234e-83
-8.55643e-71
1.37316e-70
1.65524e-79
2.63913e-69
6.21552e-78
-7.26388e-15
-3.43283e-10
-7.99044e-17
-8.88058e-19
-6.17546e-13
-1.00591e-19
-9.17101e-24
-1.63651e-17
-2.4605e-24
-3.66998e-31
-7.02923e-23
-1.20495e-29
-5.88053e-40
-2.41616e-30
-3.04664e-37
-2.59271e-47
-3.07408e-39
-3.40749e-46
-3.81176e-53
-1.1275e-46
-1.09625e-53
-1.48643e-59
-1.41846e-52
-1.23354e-59
-3.02346e-67
-5.08435e-59
-3.78951e-66
-2.64907e-69
-8.91158e-67
-6.38813e-74
-2.04352e-71
-7.06846e-69
-4.7113e-76
-1.46228e-73
-4.90274e-71
-3.10891e-78
-8.4223e-76
-3.22165e-73
-1.92309e-80
-2.93818e-78
-1.74426e-75
-9.70925e-83
-4.87486e-81
-5.62017e-78
-2.97114e-85
-2.00325e-83
-8.58378e-81
-4.35333e-88
-4.9533e-87
-3.46987e-83
-1.50957e-90
-2.2504e-91
-7.65983e-87
-3.22305e-94
-7.1417e-95
-2.89308e-91
-1.28151e-98
-2.11852e-100
-8.20996e-95
-3.58373e-102
-1.58972e-104
-2.75923e-100
-9.46625e-108
-1.04102e-111
-1.67773e-104
-6.32513e-112
-4.8993e-113
-9.21199e-112
-3.70329e-119
-6.46501e-113
-2.14781e-113
-1.6729e-120
-4.27176e-113
-1.5078e-113
-1.81557e-120
-3.47821e-113
-3.6711e-114
-1.05562e-120
-1.20651e-112
8.45057e-113
-1.53845e-119
-2.36053e-110
2.3911e-110
-1.13887e-117
-3.92317e-108
3.98768e-108
-9.18091e-116
-5.96212e-106
6.06635e-106
-7.76073e-114
-9.15641e-104
9.32373e-104
-6.66339e-112
-1.4842e-101
1.51229e-101
-3.73714e-110
-2.61012e-99
2.66106e-99
-1.25435e-107
-5.08357e-97
5.1855e-97
-3.57443e-105
-1.11721e-94
1.14015e-94
-4.56034e-103
-2.82417e-92
2.88342e-92
-6.60029e-101
-8.37712e-90
8.55617e-90
-3.96834e-99
-2.98443e-87
3.04925e-87
-9.03762e-96
-1.31323e-84
1.34214e-84
-2.0423e-93
-7.38882e-82
7.55323e-82
-4.01017e-91
-5.56119e-79
5.68592e-79
3.04287e-88
-9.17313e-76
9.35038e-76
1.97717e-84
-1.013e-72
1.03865e-72
5.18544e-82
-3.83272e-69
6.16169e-69
7.85993e-78
1.12036e-67
2.73545e-76
-1.31088e-14
-3.84392e-10
-9.9986e-17
-2.47101e-18
-8.17393e-13
-1.46566e-19
-9.14801e-24
-5.13074e-17
-6.46677e-24
-5.54207e-31
-6.35734e-23
-1.16127e-29
-9.16659e-40
-3.46607e-30
-4.49595e-37
-4.2078e-47
-4.57434e-39
-5.23649e-46
-6.06038e-53
-1.77177e-46
-1.76653e-53
-2.67249e-59
-2.14647e-52
-1.96301e-59
-5.22931e-67
-8.63759e-59
-6.83332e-66
-4.85443e-69
-1.47743e-66
-1.11017e-73
-3.81849e-71
-1.254e-68
-8.65921e-76
-2.83755e-73
-8.90816e-71
-5.8226e-78
-1.80156e-75
-6.01357e-73
-3.73786e-80
-6.92273e-78
-3.56305e-75
-2.0823e-82
-1.22386e-80
-1.28373e-77
-7.03126e-85
-6.50905e-83
-2.07367e-80
-1.10287e-87
-1.7231e-86
-1.09471e-82
-4.9345e-90
-8.11694e-91
-2.60523e-86
-1.12238e-93
-2.81947e-94
-1.00197e-90
-4.61284e-98
-3.50559e-99
-3.02971e-94
-1.4093e-101
-1.14457e-103
-4.92908e-99
-1.55896e-106
-1.64398e-109
-7.09396e-104
-4.53225e-111
-9.78326e-112
-1.65155e-109
-5.82562e-117
-1.22972e-111
-1.15459e-111
-3.08586e-119
-3.07218e-112
-8.28809e-112
-3.45104e-119
-2.79881e-112
-2.77804e-113
-7.60017e-120
-2.88146e-111
2.59054e-111
-4.67664e-118
-7.22542e-109
7.34007e-109
-3.60584e-116
-1.20956e-106
1.23368e-106
-2.95252e-114
-1.85823e-104
1.89856e-104
-2.53611e-112
-2.88955e-102
2.95555e-102
-2.21936e-110
-4.74573e-100
4.85803e-100
-1.28299e-108
-8.4592e-98
8.66505e-98
-4.26833e-106
-1.6703e-95
1.71188e-95
-1.22985e-103
-3.72212e-93
3.81654e-93
-1.57856e-101
-9.54203e-91
9.78801e-91
-2.31303e-99
-2.87082e-88
2.94581e-88
-1.35494e-97
-1.03752e-85
1.06492e-85
-3.26917e-94
-4.63193e-83
4.75528e-83
-7.41875e-92
-2.64441e-80
2.71525e-80
-1.42854e-89
-2.01962e-77
2.07392e-77
1.22409e-86
-3.72907e-74
3.82083e-74
9.05417e-83
-3.76151e-71
3.86185e-71
1.90788e-80
-1.45297e-67
2.34157e-67
3.17807e-76
4.01451e-66
1.02923e-74
-2.3126e-14
-4.13998e-10
-1.03248e-16
-8.35472e-18
-1.03686e-12
-1.88022e-19
-8.32335e-24
-1.49371e-16
-1.96086e-23
-8.44646e-31
-4.94699e-23
-1.01385e-29
-1.44299e-39
-4.985e-30
-6.67707e-37
-7.08762e-47
-6.83636e-39
-8.07568e-46
-9.6288e-53
-2.87653e-46
-2.93057e-53
-4.67802e-59
-3.24161e-52
-3.08326e-59
-9.11169e-67
-1.42247e-58
-1.18312e-65
-9.14231e-69
-2.46037e-66
-1.91968e-73
-7.47722e-71
-2.27658e-68
-1.61614e-75
-5.67982e-73
-1.69867e-70
-1.13012e-77
-3.88708e-75
-1.16493e-72
-7.41914e-80
-1.68408e-77
-7.34795e-75
-4.46591e-82
-3.15626e-80
-3.00314e-77
-1.71082e-84
-2.03746e-82
-5.12882e-80
-2.85369e-87
-6.01204e-86
-3.1111e-82
-1.54461e-89
-3.55702e-90
-8.3792e-86
-3.90251e-93
-1.32289e-93
-4.71396e-90
-2.01109e-97
-5.21596e-98
-1.52884e-93
-6.57137e-101
-6.71452e-103
-5.74468e-98
-2.30495e-105
-2.8027e-107
-5.5374e-103
-2.64207e-110
-5.69034e-110
-2.80145e-107
-9.8798e-115
-1.11194e-109
-2.21994e-110
-1.78773e-117
-7.76649e-111
-5.34612e-110
-3.11419e-117
-4.55727e-111
-3.27556e-111
-1.92078e-118
-6.97938e-110
6.73382e-110
-1.20201e-116
-1.82186e-107
1.85678e-107
-9.40894e-115
-3.06855e-105
3.14479e-105
-7.82981e-113
-4.76817e-103
4.89883e-103
-6.8398e-111
-7.51317e-101
7.7304e-101
-6.10271e-109
-1.25138e-98
1.28881e-98
-3.6511e-107
-2.26309e-96
2.33246e-96
-1.20283e-104
-4.535e-94
4.67657e-94
-3.52312e-102
-1.02585e-91
1.05832e-91
-4.555e-100
-2.67012e-89
2.75559e-89
-6.77721e-98
-8.15792e-87
8.42121e-87
-3.77402e-96
-2.99462e-84
3.09184e-84
-9.84458e-93
-1.35818e-81
1.40244e-81
-2.24708e-90
-7.87845e-79
8.13558e-79
-4.25333e-88
-6.11417e-76
6.31359e-76
4.08085e-85
-1.22372e-72
1.26138e-72
3.2766e-81
-1.17607e-69
1.21406e-69
6.49563e-79
-4.60748e-66
7.45075e-66
1.07564e-74
1.19953e-64
3.24459e-73
-3.903e-14
-4.31849e-10
-1.04865e-16
-2.27749e-17
-1.27273e-12
-2.36317e-19
-6.92922e-24
-3.26779e-16
-4.90065e-23
-1.2998e-30
-3.86277e-23
-8.06066e-30
-2.29468e-39
-7.19587e-30
-9.93215e-37
-1.23365e-46
-1.02685e-38
-1.25055e-45
-1.54701e-52
-4.78986e-46
-4.99055e-53
-8.03904e-59
-4.95665e-52
-4.87528e-59
-1.60737e-66
-2.29823e-58
-2.0079e-65
-1.76321e-68
-4.14128e-66
-3.36022e-73
-1.53959e-70
-4.20694e-68
-3.09183e-75
-1.19746e-72
-3.39191e-70
-2.30955e-77
-8.62297e-75
-2.38967e-72
-1.55069e-79
-4.20354e-77
-1.56738e-74
-9.82136e-82
-8.44209e-80
-7.15746e-77
-4.24886e-84
-5.81385e-82
-1.31733e-79
-7.60851e-87
-2.00123e-85
-7.96328e-82
-4.3836e-89
-2.082e-89
-2.53592e-85
-1.28979e-92
-8.59791e-93
-2.87424e-89
-1.16808e-96
-5.47116e-97
-1.0441e-92
-4.23699e-100
-1.43441e-101
-4.66487e-97
-2.39947e-104
-5.11961e-105
-3.51578e-101
-5.60215e-109
-3.39252e-108
-5.0957e-105
-1.79335e-112
-4.16895e-108
-1.65656e-108
-1.06051e-115
-2.62381e-108
-1.30471e-108
-1.03877e-115
-1.63859e-108
-3.91809e-109
-5.69226e-116
-3.38247e-108
1.52129e-108
-2.66858e-115
-3.77467e-106
3.84206e-106
-1.99561e-113
-6.354e-104
6.55425e-104
-1.68813e-111
-9.99118e-102
1.03406e-101
-1.50104e-109
-1.59643e-99
1.65529e-99
-1.36657e-107
-2.69889e-97
2.80155e-97
-8.41538e-106
-4.95671e-95
5.1492e-95
-2.77364e-103
-1.00907e-92
1.04881e-92
-8.20428e-101
-2.31956e-90
2.41178e-90
-1.07715e-98
-6.13684e-88
6.3824e-88
-1.62229e-96
-1.90632e-85
1.98288e-85
-8.71333e-95
-7.11653e-83
7.40277e-83
-2.43713e-91
-3.28322e-80
3.41519e-80
-5.6012e-89
-1.93772e-77
2.01541e-77
-1.04077e-86
-1.53022e-74
1.5913e-74
1.11973e-83
-3.28762e-71
3.41228e-71
9.47202e-80
-3.0496e-68
3.17048e-68
1.83892e-77
-1.20641e-64
1.96035e-64
3.02524e-73
2.94846e-63
8.51674e-72
-6.23104e-14
-4.35944e-10
-1.08487e-16
-4.8709e-17
-1.51022e-12
-2.89185e-19
-6.21861e-24
-5.72025e-16
-9.54696e-23
-2.02024e-30
-3.46259e-23
-6.87672e-30
-3.68763e-39
-1.04347e-29
-1.49653e-36
-2.19386e-46
-1.55126e-38
-1.97066e-45
-2.55618e-52
-8.06658e-46
-8.77258e-53
-1.38125e-58
-7.8251e-52
-7.9892e-59
-2.89282e-66
-3.72801e-58
-3.41977e-65
-3.46298e-68
-7.10809e-66
-6.00355e-73
-3.29972e-70
-7.86295e-68
-6.00274e-75
-2.68883e-72
-6.97449e-70
-4.88421e-77
-2.01625e-74
-5.21242e-72
-3.42558e-79
-1.07951e-76
-3.54931e-74
-2.25186e-81
-2.3835e-79
-1.75026e-76
-1.0685e-83
-1.62186e-81
-3.58092e-79
-2.11226e-86
-6.77287e-85
-2.09208e-81
-1.20588e-88
-1.33093e-88
-8.13605e-85
-4.31267e-92
-6.30178e-92
-1.60124e-88
-7.38837e-96
-5.63883e-96
-6.4809e-92
-3.075e-99
-5.00684e-100
-5.47586e-96
-2.45135e-103
-1.00356e-102
-3.35449e-100
-1.93908e-107
-8.55028e-106
-9.9387e-103
-3.49044e-110
-5.13603e-107
-7.56125e-106
-2.6575e-113
-1.02515e-106
-3.02116e-107
-1.84894e-114
-7.59106e-107
-1.92685e-107
-3.23045e-114
-1.17164e-106
3.50013e-107
-6.03068e-114
-8.63562e-105
8.67706e-105
-4.61294e-112
-1.45654e-102
1.4927e-102
-3.97364e-110
-2.31939e-100
2.38702e-100
-3.59985e-108
-3.76124e-98
3.87986e-98
-3.34549e-106
-6.46001e-96
6.6733e-96
-2.12441e-104
-1.20607e-93
1.2471e-93
-6.99339e-102
-2.49697e-91
2.58366e-91
-2.09068e-99
-5.83931e-89
6.04487e-89
-2.80466e-97
-1.57218e-86
1.62806e-86
-4.2948e-95
-4.97149e-84
5.14927e-84
-2.18121e-93
-1.88985e-81
1.95764e-81
-6.66601e-90
-8.88086e-79
9.19958e-79
-1.54582e-87
-5.3402e-76
5.53149e-76
-2.8291e-85
-4.29747e-73
4.45075e-73
3.38572e-82
-9.54699e-70
9.88396e-70
3.00461e-78
-1.04225e-66
1.17396e-66
7.24285e-76
-2.57057e-63
4.20534e-63
6.94444e-72
5.87094e-62
1.81729e-70
-9.30225e-14
-4.17012e-10
-1.14302e-16
-8.69661e-17
-1.69986e-12
-3.45241e-19
-6.2144e-24
-8.47067e-16
-1.54742e-22
-3.17175e-30
-3.30707e-23
-6.35604e-30
-5.9918e-39
-1.52086e-29
-2.18801e-36
-3.92545e-46
-2.35887e-38
-3.01851e-45
-4.43025e-52
-1.35139e-45
-1.49399e-52
-2.44424e-58
-1.30223e-51
-1.33166e-58
-5.36074e-66
-6.2934e-58
-5.87591e-65
-6.89672e-68
-1.25625e-65
-1.0878e-72
-7.22375e-70
-1.48128e-67
-1.17386e-74
-6.38083e-72
-1.44471e-69
-1.05107e-76
-5.06076e-74
-1.18702e-71
-7.96224e-79
-2.8978e-76
-8.63024e-74
-5.48917e-81
-7.22562e-79
-4.48395e-76
-2.74947e-83
-5.15985e-81
-1.04233e-78
-6.20747e-86
-2.6773e-84
-6.84355e-81
-3.75237e-88
-7.75897e-88
-3.27814e-84
-1.67689e-91
-4.2843e-91
-7.75454e-88
-4.2518e-95
-9.54296e-95
-3.61441e-91
-2.06678e-98
-4.40924e-98
-1.10749e-94
-4.10769e-102
-2.11642e-100
-4.20981e-98
-1.69217e-105
-2.611e-103
-2.08254e-100
-7.30408e-108
-9.20661e-106
-2.62109e-103
-8.06346e-111
-2.30869e-105
-1.7892e-106
-2.54775e-113
-1.82515e-105
-2.12582e-106
-7.81128e-113
-2.6885e-105
6.90452e-106
-1.17525e-112
-1.6364e-103
1.64605e-103
-9.03085e-111
-2.77058e-101
2.85685e-101
-7.92811e-109
-4.47262e-99
4.63513e-99
-7.32458e-107
-7.37047e-97
7.6586e-97
-6.95419e-105
-1.28787e-94
1.34032e-94
-4.53431e-103
-2.44785e-92
2.55005e-92
-1.50415e-100
-5.16195e-90
5.38079e-90
-4.54491e-98
-1.23005e-87
1.28268e-87
-6.23912e-96
-3.37586e-85
3.52101e-85
-9.69794e-94
-1.08855e-82
1.13543e-82
-4.70742e-92
-4.22115e-80
4.40266e-80
-1.56454e-88
-2.0242e-77
2.11092e-77
-3.6646e-86
-1.2425e-74
1.2954e-74
-6.59198e-84
-1.02095e-71
1.06406e-71
8.81262e-81
-2.33017e-68
2.42798e-68
7.92487e-77
-2.85508e-65
3.46066e-65
2.28159e-74
-4.38325e-62
7.24086e-62
1.28849e-70
9.3015e-61
3.13416e-69
-1.27443e-13
-3.85286e-10
-1.08734e-16
-1.33576e-16
-1.76156e-12
-3.6773e-19
-9.03995e-24
-1.06905e-15
-2.09598e-22
-5.02989e-30
-7.01632e-23
-8.80699e-30
-9.8515e-39
-2.2284e-29
-3.38549e-36
-6.96583e-46
-3.61399e-38
-4.88731e-45
-8.17945e-52
-2.22144e-45
-2.62867e-52
-4.63261e-58
-2.31199e-51
-2.43955e-58
-1.03128e-65
-1.15519e-57
-1.10295e-64
-1.39373e-67
-2.30239e-65
-2.07334e-72
-1.5912e-69
-2.82063e-67
-2.33599e-74
-1.5658e-71
-2.97677e-69
-2.26873e-76
-1.3629e-73
-2.74459e-71
-1.89972e-78
-8.3446e-76
-2.22334e-73
-1.41525e-80
-2.37613e-78
-1.2362e-75
-7.35539e-83
-2.11163e-80
-3.25374e-78
-1.94786e-85
-1.35782e-83
-2.90808e-80
-1.48995e-87
-4.87972e-87
-1.69203e-83
-8.32716e-91
-3.45523e-90
-5.22043e-87
-2.6332e-94
-1.8869e-93
-3.68521e-90
-1.64528e-97
-7.51078e-96
-1.21737e-93
-8.0343e-101
-4.8218e-98
-7.16229e-96
-2.85462e-103
-8.69093e-101
-4.70131e-98
-1.65031e-105
-7.54248e-105
-8.70292e-101
-2.66538e-108
-2.2935e-104
-1.41317e-105
-2.07606e-112
-2.06436e-104
-1.08797e-105
-7.85041e-112
-3.51588e-104
1.05694e-104
-1.78573e-111
-2.34627e-102
2.38915e-102
-1.3601e-109
-4.00492e-100
4.1862e-100
-1.21804e-107
-6.56089e-98
6.89848e-98
-1.14881e-105
-1.10006e-95
1.16011e-95
-1.11494e-103
-1.9583e-93
2.06855e-93
-7.47386e-102
-3.79506e-91
4.0123e-91
-2.50237e-99
-8.16437e-89
8.63549e-89
-7.6909e-97
-1.9857e-86
2.10056e-86
-1.07862e-94
-5.56476e-84
5.8862e-84
-1.70705e-92
-1.83304e-81
1.93844e-81
-7.84828e-91
-7.26436e-79
7.67913e-79
-2.86707e-87
-3.56168e-76
3.76317e-76
-6.79996e-85
-2.23619e-73
2.36128e-73
-1.20824e-82
-1.97849e-70
2.08251e-70
1.78643e-79
-4.40656e-67
4.64733e-67
1.6242e-75
-5.85296e-64
7.45185e-64
5.22545e-73
-5.86392e-61
9.8267e-61
1.8928e-69
1.14741e-59
4.24186e-68
-1.58529e-13
-3.48134e-10
-1.03506e-16
-1.77159e-16
-1.67501e-12
-3.69997e-19
-5.76747e-23
-1.1536e-15
-2.49798e-22
-8.05724e-30
-6.39137e-22
-5.21259e-29
-1.64112e-38
-3.28203e-29
-5.09738e-36
-1.21531e-45
-5.58599e-38
-7.714e-45
-1.60888e-51
-3.5604e-45
-4.37859e-52
-9.73501e-58
-4.33918e-51
-4.61072e-58
-2.06682e-65
-2.37266e-57
-2.24219e-64
-2.88049e-67
-4.37754e-65
-4.0571e-72
-3.52995e-69
-5.48661e-67
-4.71142e-74
-3.91219e-71
-6.14638e-69
-4.9029e-76
-3.8806e-73
-6.36253e-71
-4.5897e-78
-2.64786e-75
-5.92779e-73
-3.83644e-80
-8.57808e-78
-3.73936e-75
-2.12567e-82
-1.00572e-79
-1.09879e-77
-6.69695e-85
-8.04421e-83
-1.26952e-79
-6.86594e-87
-4.86704e-86
-9.01563e-83
-4.81678e-90
-5.25305e-89
-6.33803e-86
-2.58111e-93
-9.15361e-92
-7.1531e-89
-2.46591e-96
-1.38121e-93
-7.59046e-92
-3.85166e-99
-1.19211e-95
-1.32075e-93
-5.19547e-101
-3.16866e-98
-1.14741e-95
-4.0443e-103
-2.53673e-102
-3.16759e-98
-9.64565e-106
-3.76902e-103
-2.01641e-102
-6.94123e-110
-2.6589e-103
-3.66632e-103
-9.17583e-111
-4.64585e-103
1.29403e-103
-2.08252e-110
-2.56053e-101
2.63934e-101
-1.55738e-108
-4.36399e-99
4.65027e-99
-1.42438e-106
-7.26166e-97
7.792e-97
-1.37306e-104
-1.24048e-94
1.33546e-94
-1.36359e-102
-2.25316e-92
2.42954e-92
-9.37935e-101
-4.45927e-90
4.81163e-90
-3.1921e-98
-9.8036e-88
1.05795e-87
-1.0007e-95
-2.43799e-85
2.63027e-85
-1.43374e-93
-6.98941e-83
7.53677e-83
-2.31108e-91
-2.35645e-80
2.53916e-80
-1.01376e-89
-9.56307e-78
1.02956e-77
-4.05937e-86
-4.80385e-75
5.16661e-75
-9.76149e-84
-3.09165e-72
3.32139e-72
-1.70943e-81
-3.41654e-69
3.6221e-69
2.95264e-78
-6.42038e-66
6.88155e-66
2.58437e-74
-9.09998e-63
1.20331e-62
9.04315e-72
-6.0027e-60
1.02775e-59
2.16902e-68
1.07102e-58
4.43991e-67
-1.83284e-13
-3.01058e-10
-9.46536e-17
-2.06608e-16
-1.53326e-12
-3.50471e-19
-4.13028e-22
-1.1039e-15
-2.64068e-22
-1.30409e-29
-3.37374e-21
-3.41182e-28
-2.77545e-38
-4.85878e-29
-7.71343e-36
-2.08606e-45
-8.72691e-38
-1.24049e-44
-3.30073e-51
-5.58913e-45
-7.25056e-52
-2.26986e-57
-8.3436e-51
-9.1858e-58
-4.30064e-65
-5.33945e-57
-5.09084e-64
-6.18168e-67
-8.57086e-65
-8.18812e-72
-8.07985e-69
-1.10948e-66
-9.83482e-74
-1.00851e-70
-1.31348e-68
-1.08724e-75
-1.16596e-72
-1.51266e-70
-1.13788e-77
-9.46136e-75
-1.63707e-72
-1.09938e-79
-3.5288e-77
-1.25152e-74
-7.08614e-82
-4.67037e-79
-4.19864e-77
-2.66801e-84
-4.8716e-82
-4.91985e-79
-3.09682e-86
-6.08891e-85
-4.53679e-82
-2.84706e-89
-9.27902e-88
-5.51542e-85
-3.1689e-92
-1.52053e-89
-6.5711e-88
-4.28915e-95
-3.26821e-91
-1.44757e-89
-5.61723e-97
-3.21315e-93
-3.1517e-91
-1.02801e-98
-1.26852e-95
-3.09406e-93
-1.07989e-100
-1.85871e-99
-1.26482e-95
-3.83078e-103
-7.17675e-101
-1.68715e-99
-5.0532e-107
-2.10389e-100
-4.20395e-102
-2.53086e-108
-2.22491e-100
4.04947e-101
-6.38663e-108
-5.63585e-100
2.69577e-100
-1.65771e-107
-3.71531e-98
4.0063e-98
-1.30158e-105
-6.20349e-96
6.82426e-96
-1.28186e-103
-1.08126e-93
1.19383e-93
-1.3039e-101
-2.0074e-91
2.21967e-91
-9.20943e-100
-4.06488e-89
4.49625e-89
-3.19888e-97
-9.15034e-87
1.01178e-86
-1.02589e-94
-2.33145e-84
2.57584e-84
-1.50312e-92
-6.85213e-82
7.56188e-82
-2.47343e-90
-2.36965e-79
2.61152e-79
-1.04611e-88
-9.87006e-77
1.08606e-76
-4.56226e-85
-5.09174e-74
5.59321e-74
-1.11619e-82
-3.36725e-71
3.69211e-71
-1.94261e-80
-4.27094e-68
4.62975e-68
4.4429e-77
-7.35334e-65
8.03697e-65
3.26778e-73
-1.10033e-61
1.51661e-61
1.23352e-70
-4.51193e-59
8.02474e-59
1.88827e-67
7.14822e-58
3.41988e-66
-1.99608e-13
-2.47735e-10
-7.81812e-17
-2.2269e-16
-1.28771e-12
-3.09736e-19
-1.41916e-21
-1.00596e-15
-2.57262e-22
-2.13468e-29
-7.4981e-21
-1.11563e-27
-4.77897e-38
-7.23461e-29
-1.2152e-35
-3.56852e-45
-1.38179e-37
-2.04572e-44
-6.83398e-51
-8.75422e-45
-1.19081e-51
-5.59911e-57
-1.5847e-50
-1.82756e-57
-9.21817e-65
-1.22925e-56
-1.21537e-63
-1.40567e-66
-1.71082e-64
-1.69676e-71
-2.00569e-68
-2.38023e-66
-2.16382e-73
-2.84119e-70
-3.06922e-68
-2.6054e-75
-3.86584e-72
-3.94777e-70
-3.0794e-77
-3.92411e-74
-4.96113e-72
-3.49748e-79
-1.79734e-76
-4.74177e-74
-2.93518e-81
-2.22293e-78
-1.99094e-76
-1.35404e-83
-3.38489e-81
-2.11808e-78
-1.44526e-85
-6.08312e-84
-3.19135e-81
-1.93389e-88
-6.33817e-86
-4.32618e-84
-3.10549e-91
-3.52265e-87
-5.83578e-86
-2.88211e-93
-8.1639e-89
-3.38631e-87
-9.53794e-95
-9.47822e-91
-7.91652e-89
-2.22246e-96
-5.6111e-93
-9.15205e-91
-3.15374e-98
-1.5368e-96
-5.56965e-93
-1.6801e-100
-8.00361e-100
-1.53897e-96
-4.1488e-104
-2.15955e-99
-1.56658e-101
-1.92752e-107
-2.27561e-99
3.97188e-100
-6.54883e-107
-4.90964e-99
1.82693e-99
-1.19625e-106
-2.28106e-97
2.53884e-97
-8.88362e-105
-3.84433e-95
4.40811e-95
-8.95915e-103
-6.85098e-93
7.88635e-93
-9.34717e-101
-1.30302e-90
1.50152e-90
-6.78121e-99
-2.70631e-88
3.11733e-88
-2.41572e-96
-6.25399e-86
7.19452e-86
-7.94847e-94
-1.637e-83
1.87968e-83
-1.19301e-91
-4.94584e-81
5.66625e-81
-2.00976e-89
-1.75944e-78
2.0106e-78
-8.2281e-88
-7.54358e-76
8.59667e-76
-3.90057e-84
-4.00858e-73
4.5548e-73
-9.72625e-82
-3.03965e-70
3.40353e-70
-1.67957e-79
-3.89001e-67
4.34931e-67
4.75038e-76
-6.16256e-64
6.96203e-64
3.16005e-72
-1.01708e-60
1.43866e-60
1.29358e-69
-2.13932e-58
4.03797e-58
1.13572e-66
2.61039e-57
1.68119e-65
-1.92621e-13
-1.92755e-10
-6.43663e-17
-2.25327e-16
-9.7698e-13
-2.47914e-19
-2.55518e-21
-8.13131e-16
-2.26812e-22
-3.54175e-29
-9.01935e-21
-1.7532e-27
-8.41154e-38
-1.08568e-28
-1.77515e-35
-6.25148e-45
-2.22579e-37
-3.22916e-44
-1.39302e-50
-1.41652e-44
-1.92061e-51
-1.37123e-56
-2.91459e-50
-3.48998e-57
-2.02556e-64
-2.71468e-56
-2.83132e-63
-3.45714e-66
-3.47214e-64
-3.55568e-71
-5.79665e-68
-5.49835e-66
-5.08636e-73
-9.76439e-70
-8.33424e-68
-7.19354e-75
-1.58891e-71
-1.26287e-69
-1.01016e-76
-2.04049e-73
-1.8825e-71
-1.37757e-78
-1.27833e-75
-2.22236e-73
-1.53511e-80
-1.50435e-77
-1.30847e-75
-9.75557e-83
-3.98983e-80
-1.69522e-77
-9.64607e-85
-2.46392e-82
-4.59828e-80
-2.23222e-87
-1.48823e-83
-2.2033e-82
-1.23318e-89
-6.97938e-85
-1.3998e-83
-4.34092e-91
-2.14961e-86
-6.68685e-85
-1.77515e-92
-3.79703e-88
-2.08174e-86
-5.27806e-94
-2.7615e-90
-3.69487e-88
-1.01605e-95
-1.4499e-93
-2.7188e-90
-8.19311e-98
-4.7513e-99
-1.45145e-93
-3.88457e-101
-1.49208e-98
-2.82204e-100
-1.13714e-106
-1.55305e-98
2.52413e-99
-4.35499e-106
-3.11441e-98
8.90549e-99
-6.29416e-106
-9.43339e-97
1.11247e-96
-4.30746e-104
-1.59454e-94
1.9723e-94
-4.4544e-102
-2.91377e-92
3.6172e-92
-4.77267e-100
-5.69655e-90
7.07e-90
-3.55648e-98
-1.21789e-87
1.50821e-87
-1.30827e-95
-2.90003e-85
3.57928e-85
-4.42206e-93
-7.82834e-83
9.62239e-83
-6.81269e-91
-2.44093e-80
2.98662e-80
-1.1765e-88
-8.9682e-78
1.09192e-77
-4.84826e-87
-3.97423e-75
4.81387e-75
-2.41849e-83
-2.22855e-72
2.67579e-72
-6.17568e-81
-1.92776e-69
2.26486e-69
-1.17953e-78
-2.50893e-66
2.94144e-66
3.56754e-75
-3.13413e-63
3.82753e-63
2.17745e-71
-6.44755e-60
9.73224e-60
9.8925e-69
-3.88281e-58
9.7615e-58
3.42113e-66
3.08456e-57
3.17811e-65
-1.71477e-13
-1.41378e-10
-4.56602e-17
-1.95992e-16
-6.80369e-13
-1.73834e-19
-3.06242e-21
-5.81718e-16
-1.73655e-22
-5.98078e-29
-8.157e-21
-1.97444e-27
-1.52135e-37
-1.64924e-28
-2.85956e-35
-1.16731e-44
-3.66568e-37
-5.53013e-44
-2.79424e-50
-2.47924e-44
-3.41115e-51
-3.22858e-56
-5.24787e-50
-6.68467e-57
-4.59454e-64
-5.65887e-56
-6.40563e-63
-9.35552e-66
-7.26416e-64
-7.74915e-71
-2.21834e-67
-1.36879e-65
-1.32114e-72
-5.15206e-69
-2.83838e-67
-2.50865e-74
-9.88687e-71
-5.96647e-69
-4.71527e-76
-1.56486e-72
-1.08281e-70
-8.08781e-78