/*--------------------------------*- C++ -*----------------------------------*\
| =========                 |                                                 |
| \\      /  F ield         | OpenFOAM: The Open Source CFD Toolbox           |
|  \\    /   O peration     | Version:  v2012                                 |
|   \\  /    A nd           | Website:  www.openfoam.com                      |
|    \\/     M anipulation  |                                                 |
\*---------------------------------------------------------------------------*/
FoamFile
{
    version     2.0;
    format      ascii;
    class       surfaceScalarField;
    location    "0.4";
    object      phi;
}
// * * * * * * * * * * * * * * * * * * * * * * * * * * * * * * * * * * * * * //

dimensions      [0 3 -1 0 0 0 0];
oriented        oriented;


internalField   nonuniform List<scalar> 
8145
(
-2.33582e-08
8.16816e-08
2.68112e-19
-1.98249e-08
8.59493e-08
-3.27291e-16
-1.61624e-08
8.81077e-08
-1.66446e-16
-1.24734e-08
8.75522e-08
-8.4851e-17
-8.89156e-09
8.36011e-08
1.32281e-17
-5.59042e-09
7.54958e-08
1.79054e-16
-2.79614e-09
6.23269e-08
-5.4203e-17
-8.03264e-10
4.31031e-08
-2.15443e-17
1.65842e-08
-4.90315e-17
-3.22408e-08
5.84465e-08
-4.44285e-16
-2.95028e-08
6.59912e-08
-3.09772e-16
-2.64635e-08
7.27644e-08
-2.38506e-16
-2.31639e-08
7.83819e-08
-4.48241e-18
-1.96601e-08
8.24454e-08
-3.28613e-16
-1.60282e-08
8.44758e-08
-1.68606e-16
-1.237e-08
8.3894e-08
-8.3514e-17
-8.81844e-09
8.00495e-08
1.65525e-17
-5.5452e-09
7.22226e-08
1.86757e-16
-2.77429e-09
5.9556e-08
-4.64213e-17
-7.97456e-10
4.11263e-08
-1.58795e-17
1.57868e-08
-4.3708e-17
-4.97947e-10
-3.20763e-08
-7.53492e-15
-2.3028e-09
-3.33801e-08
-6.55121e-15
-4.06195e-09
-3.44285e-08
-6.08248e-15
-5.84402e-09
-3.55086e-08
-5.10802e-15
-7.67782e-09
-3.66689e-08
-4.54447e-15
-9.5721e-09
-3.78835e-08
-4.08166e-15
-1.15247e-08
-3.90933e-08
-3.84233e-15
-1.35275e-08
-4.02287e-08
-3.55591e-15
-1.557e-08
-4.12357e-08
-3.32351e-15
-1.76397e-08
-4.20581e-08
-3.03673e-15
-1.97234e-08
-4.26536e-08
-2.85027e-15
-2.18072e-08
-4.29826e-08
-2.67628e-15
-2.38765e-08
-4.30062e-08
-2.5607e-15
-2.59161e-08
-4.26998e-08
-2.46149e-15
-2.79099e-08
-4.20256e-08
-2.38435e-15
-2.9841e-08
-4.096e-08
-2.19308e-15
-3.16921e-08
-3.94757e-08
-2.0524e-15
-3.34448e-08
-3.75462e-08
-1.94224e-15
-3.50797e-08
-3.51485e-08
-1.8288e-15
-3.65773e-08
-3.22615e-08
-1.714e-15
-3.79167e-08
-2.88681e-08
-1.59476e-15
-3.90769e-08
-2.49528e-08
-1.47694e-15
-4.00369e-08
-2.05076e-08
-1.35584e-15
-4.0775e-08
-1.55288e-08
-1.2357e-15
-4.12705e-08
-1.00195e-08
-1.11194e-15
-4.15018e-08
-3.9993e-09
-9.7887e-16
-4.14498e-08
2.51159e-09
-8.39051e-16
-4.10955e-08
9.4733e-09
-6.98609e-16
-4.04228e-08
1.68297e-08
-5.53782e-16
-3.94182e-08
2.45017e-08
-4.08242e-16
-3.80703e-08
3.24106e-08
-2.62169e-16
-3.63745e-08
4.04083e-08
-4.28777e-17
-3.43298e-08
4.83604e-08
-2.30031e-16
-3.19438e-08
5.60605e-08
-4.62384e-16
-2.92325e-08
6.32797e-08
-3.20114e-16
-2.62215e-08
6.97535e-08
-2.37424e-16
-2.29519e-08
7.51123e-08
-7.70202e-18
-1.94798e-08
7.89733e-08
-3.29086e-16
-1.58809e-08
8.0877e-08
-1.69983e-16
-1.22563e-08
8.02694e-08
-8.2314e-17
-8.73762e-09
7.65308e-08
1.94784e-17
-5.495e-09
6.898e-08
1.92699e-16
-2.74988e-09
5.68108e-08
-3.97386e-17
-7.90906e-10
3.91673e-08
-1.01668e-17
1.49959e-08
-3.82268e-17
-4.10185e-10
-3.01908e-08
-7.57031e-15
-2.17352e-09
-3.16167e-08
-6.33961e-15
-3.89053e-09
-3.27115e-08
-5.84051e-15
-5.62986e-09
-3.37692e-08
-4.98741e-15
-7.42052e-09
-3.48782e-08
-4.49782e-15
-9.27401e-09
-3.603e-08
-4.04748e-15
-1.11889e-08
-3.71783e-08
-3.81932e-15
-1.3158e-08
-3.82597e-08
-3.54573e-15
-1.51704e-08
-3.92233e-08
-3.31802e-15
-1.72138e-08
-4.00146e-08
-3.03797e-15
-1.92749e-08
-4.05925e-08
-2.85042e-15
-2.13393e-08
-4.09181e-08
-2.6783e-15
-2.33923e-08
-4.09531e-08
-2.55981e-15
-2.54187e-08
-4.06735e-08
-2.45983e-15
-2.74019e-08
-4.00424e-08
-2.38553e-15
-2.93251e-08
-3.90367e-08
-2.20525e-15
-3.11708e-08
-3.763e-08
-2.05192e-15
-3.29204e-08
-3.57966e-08
-1.93744e-15
-3.45546e-08
-3.35143e-08
-1.8238e-15
-3.60535e-08
-3.07627e-08
-1.71016e-15
-3.73962e-08
-2.75253e-08
-1.59267e-15
-3.85618e-08
-2.37871e-08
-1.47584e-15
-3.9529e-08
-1.95404e-08
-1.35487e-15
-4.02761e-08
-1.47816e-08
-1.2342e-15
-4.07822e-08
-9.51366e-09
-1.10955e-15
-4.10258e-08
-3.75548e-09
-9.78104e-16
-4.09877e-08
2.47337e-09
-8.4036e-16
-4.06489e-08
9.1346e-09
-7.01091e-16
-3.99932e-08
1.61741e-08
-5.58449e-16
-3.90072e-08
2.35155e-08
-4.158e-16
-3.76796e-08
3.10832e-08
-2.72547e-16
-3.60057e-08
3.87343e-08
-5.58674e-17
-3.39848e-08
4.63396e-08
-2.47606e-16
-3.16244e-08
5.37003e-08
-4.79382e-16
-2.89408e-08
6.0596e-08
-3.29765e-16
-2.59596e-08
6.67725e-08
-2.35946e-16
-2.2722e-08
7.18746e-08
-1.10893e-17
-1.92837e-08
7.5535e-08
-3.2922e-16
-1.57201e-08
7.73135e-08
-1.71088e-16
-1.21317e-08
7.6681e-08
-8.16075e-17
-8.64888e-09
7.3048e-08
2.14971e-17
-5.43965e-09
6.57707e-08
1.96314e-16
-2.72282e-09
5.4094e-08
-3.47791e-17
-7.83579e-10
3.72281e-08
-5.55084e-18
1.42123e-08
-3.34962e-17
-3.64669e-10
-2.8376e-08
-7.4388e-15
-2.08788e-09
-2.98935e-08
-6.19911e-15
-3.76871e-09
-3.10307e-08
-5.54589e-15
-5.46825e-09
-3.20697e-08
-5.04121e-15
-7.21661e-09
-3.31299e-08
-4.6157e-15
-9.02785e-09
-3.42188e-08
-4.08048e-15
-1.09023e-08
-3.53039e-08
-3.82015e-15
-1.28337e-08
-3.63282e-08
-3.53779e-15
-1.4812e-08
-3.7245e-08
-3.3126e-15
-1.68249e-08
-3.80018e-08
-3.0341e-15
-1.88588e-08
-3.85586e-08
-2.84783e-15
-2.08996e-08
-3.88773e-08
-2.67664e-15
-2.29322e-08
-3.89205e-08
-2.55748e-15
-2.49412e-08
-3.86646e-08
-2.45569e-15
-2.691e-08
-3.80736e-08
-2.38523e-15
-2.88214e-08
-3.71251e-08
-2.23755e-15
-3.0658e-08
-3.57934e-08
-2.05345e-15
-3.24009e-08
-3.40536e-08
-1.93289e-15
-3.40308e-08
-3.18844e-08
-1.81785e-15
-3.55276e-08
-2.92659e-08
-1.70496e-15
-3.68706e-08
-2.61823e-08
-1.58865e-15
-3.80385e-08
-2.26191e-08
-1.47289e-15
-3.90101e-08
-1.85688e-08
-1.35204e-15
-3.97635e-08
-1.4028e-08
-1.23115e-15
-4.02779e-08
-8.99951e-09
-1.10577e-15
-4.05317e-08
-3.50144e-09
-9.75327e-16
-4.05057e-08
2.44726e-09
-8.38876e-16
-4.01809e-08
8.8099e-09
-7.00597e-16
-3.95411e-08
1.55343e-08
-5.5979e-16
-3.8573e-08
2.25472e-08
-4.19743e-16
-3.72651e-08
2.97755e-08
-2.79458e-16
-3.56132e-08
3.70822e-08
-6.65942e-17
-3.36163e-08
4.43429e-08
-2.61154e-16
-3.12823e-08
5.13663e-08
-4.94288e-16
-2.86275e-08
5.79411e-08
-3.38595e-16
-2.56776e-08
6.38227e-08
-2.35961e-16
-2.24736e-08
6.86706e-08
-1.35969e-17
-1.90713e-08
7.21327e-08
-3.28698e-16
-1.55457e-08
7.37879e-08
-1.7169e-16
-1.19962e-08
7.31315e-08
-8.11314e-17
-8.55196e-09
6.96037e-08
2.27294e-17
-5.37897e-09
6.25977e-08
1.97967e-16
-2.69301e-09
5.1408e-08
-3.12928e-17
-7.75438e-10
3.53105e-08
-2.57403e-18
1.34368e-08
-3.07951e-17
-3.49218e-10
-2.66275e-08
-6.99506e-15
-2.03414e-09
-2.82086e-08
-6.1266e-15
-3.68398e-09
-2.93809e-08
-5.24481e-15
-5.3478e-09
-3.04058e-08
-4.9015e-15
-7.05644e-09
-3.14212e-08
-4.51229e-15
-8.82589e-09
-3.24494e-08
-3.96267e-15
-1.06588e-08
-3.3471e-08
-3.71203e-15
-1.25504e-08
-3.44366e-08
-3.45536e-15
-1.44916e-08
-3.53038e-08
-3.25659e-15
-1.64704e-08
-3.6023e-08
-3.00022e-15
-1.84736e-08
-3.65553e-08
-2.82711e-15
-2.0487e-08
-3.68639e-08
-2.66486e-15
-2.24954e-08
-3.69122e-08
-2.54987e-15
-2.44832e-08
-3.66768e-08
-2.44835e-15
-2.64337e-08
-3.61231e-08
-2.37808e-15
-2.83297e-08
-3.5229e-08
-2.25186e-15
-3.01534e-08
-3.39697e-08
-2.05859e-15
-3.18861e-08
-3.23209e-08
-1.93023e-15
-3.35083e-08
-3.02623e-08
-1.81203e-15
-3.49998e-08
-2.77745e-08
-1.6988e-15
-3.63397e-08
-2.48423e-08
-1.58287e-15
-3.75068e-08
-2.14518e-08
-1.46787e-15
-3.84799e-08
-1.75957e-08
-1.34697e-15
-3.92371e-08
-1.32706e-08
-1.22604e-15
-3.97574e-08
-8.47945e-09
-1.10011e-15
-4.00193e-08
-3.23931e-09
-9.70524e-16
-4.00036e-08
2.43144e-09
-8.35201e-16
-3.96912e-08
8.49767e-09
-6.98092e-16
-3.90662e-08
1.49093e-08
-5.59158e-16
-3.8115e-08
2.15958e-08
-4.2163e-16
-3.68265e-08
2.84873e-08
-2.8427e-16
-3.51964e-08
3.5452e-08
-7.52776e-17
-3.32239e-08
4.23705e-08
-2.72374e-16
-3.0917e-08
4.90595e-08
-5.07117e-16
-2.82921e-08
5.5316e-08
-3.465e-16
-2.53749e-08
6.09056e-08
-2.35363e-16
-2.22065e-08
6.55021e-08
-1.71706e-17
-1.88424e-08
6.87685e-08
-3.28575e-16
-1.53571e-08
7.03026e-08
-1.72721e-16
-1.18493e-08
6.96237e-08
-8.12912e-17
-8.4466e-09
6.6201e-08
2.31052e-17
-5.31275e-09
5.94639e-08
1.98198e-16
-2.66032e-09
4.87556e-08
-2.86483e-17
-7.66441e-10
3.34167e-08
-4.87591e-19
1.26704e-08
-2.88148e-17
-3.65747e-10
-2.49446e-08
-6.8384e-15
-2.01136e-09
-2.6563e-08
-6.18553e-15
-3.63144e-09
-2.77608e-08
-5.07876e-15
-5.26202e-09
-2.87753e-08
-4.8804e-15
-6.93318e-09
-2.97501e-08
-4.52871e-15
-8.66187e-09
-3.07207e-08
-3.94391e-15
-1.0453e-08
-3.16798e-08
-3.6795e-15
-1.23036e-08
-3.2586e-08
-3.41612e-15
-1.42056e-08
-3.34018e-08
-3.22372e-15
-1.61478e-08
-3.40807e-08
-2.97296e-15
-1.81173e-08
-3.45858e-08
-2.80395e-15
-2.01e-08
-3.48811e-08
-2.64646e-15
-2.20807e-08
-3.49315e-08
-2.53564e-15
-2.40438e-08
-3.47138e-08
-2.43408e-15
-2.59726e-08
-3.41944e-08
-2.36513e-15
-2.78495e-08
-3.3352e-08
-2.25491e-15
-2.96569e-08
-3.21622e-08
-2.06291e-15
-3.13758e-08
-3.0602e-08
-1.92749e-15
-3.29867e-08
-2.86514e-08
-1.8058e-15
-3.44695e-08
-2.62918e-08
-1.69167e-15
-3.58032e-08
-2.35086e-08
-1.5757e-15
-3.69665e-08
-2.02884e-08
-1.4611e-15
-3.79383e-08
-1.66239e-08
-1.34002e-15
-3.86965e-08
-1.25122e-08
-1.21903e-15
-3.92203e-08
-7.9559e-09
-1.09268e-15
-3.94881e-08
-2.97125e-09
-9.63794e-16
-3.94808e-08
2.42403e-09
-8.29555e-16
-3.91794e-08
8.19638e-09
-6.93895e-16
-3.85679e-08
1.42977e-08
-5.57017e-16
-3.76328e-08
2.06606e-08
-4.22027e-16
-3.63632e-08
2.72179e-08
-2.87517e-16
-3.47549e-08
3.38435e-08
-8.2703e-17
-3.28071e-08
4.04229e-08
-2.81243e-16
-3.0528e-08
4.67805e-08
-5.19534e-16
-2.79341e-08
5.2722e-08
-3.53402e-16
-2.50511e-08
5.80228e-08
-2.35955e-16
-2.19202e-08
6.23711e-08
-2.00652e-17
-1.85965e-08
6.54448e-08
-3.28136e-16
-1.51541e-08
6.68603e-08
-1.73609e-16
-1.16908e-08
6.61604e-08
-8.16904e-17
-8.33254e-09
6.28428e-08
2.28813e-17
-5.24081e-09
5.63721e-08
1.97263e-16
-2.62463e-09
4.61394e-08
-2.67379e-17
-7.56546e-10
3.15486e-08
7.54445e-19
1.19139e-08
-2.75995e-17
-4.19431e-10
-2.33288e-08
-6.23201e-15
-2.02188e-09
-2.49605e-08
-5.80888e-15
-3.60971e-09
-2.61729e-08
-4.79799e-15
-5.20727e-09
-2.71777e-08
-4.66129e-15
-6.84195e-09
-2.81154e-08
-4.32041e-15
-8.53071e-09
-2.90319e-08
-3.76454e-15
-1.02803e-08
-2.99302e-08
-3.54173e-15
-1.20891e-08
-3.07772e-08
-3.31831e-15
-1.39505e-08
-3.15404e-08
-3.15723e-15
-1.58541e-08
-3.21771e-08
-2.92832e-15
-1.77875e-08
-3.26524e-08
-2.77516e-15
-1.97367e-08
-3.29319e-08
-2.62626e-15
-2.16867e-08
-3.29815e-08
-2.52012e-15
-2.36219e-08
-3.27786e-08
-2.41999e-15
-2.55254e-08
-3.22909e-08
-2.3558e-15
-2.73799e-08
-3.14974e-08
-2.25866e-15
-2.91674e-08
-3.03747e-08
-2.06658e-15
-3.08692e-08
-2.89003e-08
-1.92443e-15
-3.24655e-08
-2.70551e-08
-1.7987e-15
-3.39362e-08
-2.48212e-08
-1.68319e-15
-3.52605e-08
-2.21843e-08
-1.56675e-15
-3.6417e-08
-1.91317e-08
-1.45229e-15
-3.73845e-08
-1.56565e-08
-1.33092e-15
-3.81411e-08
-1.17555e-08
-1.20993e-15
-3.86659e-08
-7.43128e-09
-1.0833e-15
-3.89376e-08
-2.69941e-09
-9.55142e-16
-3.89368e-08
2.42318e-09
-8.22053e-16
-3.86448e-08
7.90448e-09
-6.88044e-16
-3.80456e-08
1.36985e-08
-5.53381e-16
-3.71258e-08
1.97407e-08
-4.21015e-16
-3.58747e-08
2.5967e-08
-2.89333e-16
-3.4288e-08
3.22567e-08
-8.85446e-17
-3.23653e-08
3.85003e-08
-2.88973e-16
-3.01147e-08
4.453e-08
-5.31962e-16
-2.75529e-08
5.016e-08
-3.59094e-16
-2.47058e-08
5.51757e-08
-2.3551e-16
-2.16141e-08
5.92794e-08
-2.37903e-17
-1.83331e-08
6.21638e-08
-3.27939e-16
-1.49362e-08
6.34634e-08
-1.74781e-16
-1.15202e-08
6.27444e-08
-8.25364e-17
-8.20948e-09
5.95321e-08
2.20255e-17
-5.16292e-09
5.33256e-08
1.95341e-16
-2.58582e-09
4.35623e-08
-2.54315e-17
-7.45705e-10
2.97085e-08
1.43475e-18
1.11682e-08
-2.67835e-17
-5.11702e-10
-2.17824e-08
-5.07794e-15
-2.06617e-09
-2.34061e-08
-5.11903e-15
-3.61755e-09
-2.46216e-08
-4.58657e-15
-5.18063e-09
-2.56146e-08
-4.52594e-15
-6.77877e-09
-2.65172e-08
-4.23369e-15
-8.42804e-09
-2.73827e-08
-3.7027e-15
-1.01362e-08
-2.8222e-08
-3.48842e-15
-1.1903e-08
-2.90104e-08
-3.26235e-15
-1.3723e-08
-2.97205e-08
-3.10646e-15
-1.55864e-08
-3.03136e-08
-2.88375e-15
-1.74816e-08
-3.07572e-08
-2.73674e-15
-1.93949e-08
-3.10185e-08
-2.59211e-15
-2.13115e-08
-3.10649e-08
-2.49154e-15
-2.32158e-08
-3.08744e-08
-2.39682e-15
-2.5091e-08
-3.04157e-08
-2.34599e-15
-2.69198e-08
-2.96685e-08
-2.26147e-15
-2.86842e-08
-2.86102e-08
-2.06543e-15
-3.03653e-08
-2.72191e-08
-1.91745e-15
-3.19437e-08
-2.54767e-08
-1.78874e-15
-3.33992e-08
-2.33658e-08
-1.67222e-15
-3.47108e-08
-2.08726e-08
-1.55538e-15
-3.58574e-08
-1.7985e-08
-1.441e-15
-3.68178e-08
-1.46961e-08
-1.31944e-15
-3.75702e-08
-1.1003e-08
-1.19855e-15
-3.80936e-08
-6.90804e-09
-1.07186e-15
-3.83669e-08
-2.42595e-09
-9.44497e-16
-3.83708e-08
2.42701e-09
-8.12682e-16
-3.80867e-08
7.62043e-09
-6.80507e-16
-3.74985e-08
1.31104e-08
-5.48216e-16
-3.65933e-08
1.88353e-08
-4.18544e-16
-3.53602e-08
2.4734e-08
-2.89671e-16
-3.37951e-08
3.06915e-08
-9.32031e-17
-3.18979e-08
3.66031e-08
-2.95067e-16
-2.96766e-08
4.23088e-08
-5.4272e-16
-2.71481e-08
4.76314e-08
-3.63387e-16
-2.43382e-08
5.2366e-08
-2.35967e-16
-2.12879e-08
5.6229e-08
-2.66519e-17
-1.80518e-08
5.89277e-08
-3.27133e-16
-1.4703e-08
6.01147e-08
-1.75621e-16
-1.13372e-08
5.93786e-08
-8.34452e-17
-8.07714e-09
5.6272e-08
2.07424e-17
-5.07886e-09
5.03273e-08
1.92539e-16
-2.54375e-09
4.10272e-08
-2.47162e-17
-7.33868e-10
2.78986e-08
1.56451e-18
1.04343e-08
-2.63699e-17
-6.38651e-10
-2.03063e-08
-5.06444e-15
-2.14126e-09
-2.19034e-08
-4.91869e-15
-3.65216e-09
-2.31107e-08
-4.65718e-15
-5.17876e-09
-2.4088e-08
-4.33828e-15
-6.73979e-09
-2.49562e-08
-4.0841e-15
-8.34979e-09
-2.57727e-08
-3.60529e-15
-1.00168e-08
-2.6555e-08
-3.40842e-15
-1.17416e-08
-2.72856e-08
-3.19394e-15
-1.35194e-08
-2.79426e-08
-3.0487e-15
-1.53417e-08
-2.84913e-08
-2.84106e-15
-1.71971e-08
-2.89018e-08
-2.7006e-15
-1.90725e-08
-2.91431e-08
-2.55976e-15
-2.09532e-08
-2.91842e-08
-2.46233e-15
-2.28238e-08
-2.90038e-08
-2.37279e-15
-2.46678e-08
-2.85718e-08
-2.34031e-15
-2.64677e-08
-2.78685e-08
-2.26265e-15
-2.82057e-08
-2.68721e-08
-2.05806e-15
-2.98631e-08
-2.55617e-08
-1.90571e-15
-3.14203e-08
-2.39195e-08
-1.77517e-15
-3.28572e-08
-2.19289e-08
-1.65815e-15
-3.41531e-08
-1.95767e-08
-1.54103e-15
-3.52868e-08
-1.68511e-08
-1.42684e-15
-3.62373e-08
-1.37456e-08
-1.30523e-15
-3.69827e-08
-1.02574e-08
-1.18465e-15
-3.75024e-08
-6.38856e-09
-1.0582e-15
-3.77752e-08
-2.15301e-09
-9.31794e-16
-3.7782e-08
2.43369e-09
-8.01431e-16
-3.75041e-08
7.34271e-09
-6.71283e-16
-3.69259e-08
1.25322e-08
-5.41519e-16
-3.60344e-08
1.79437e-08
-4.14636e-16
-3.48189e-08
2.35187e-08
-2.88604e-16
-3.32755e-08
2.9148e-08
-9.6287e-17
-3.1404e-08
3.47317e-08
-2.99729e-16
-2.92129e-08
4.01178e-08
-5.46809e-16
-2.67189e-08
4.51373e-08
-3.65629e-16
-2.3948e-08
4.95952e-08
-2.3517e-16
-2.09409e-08
5.32219e-08
-2.9998e-17
-1.77522e-08
5.5739e-08
-3.26208e-16
-1.44542e-08
5.68167e-08
-1.76498e-16
-1.11416e-08
5.6066e-08
-8.46007e-17
-7.93521e-09
5.30656e-08
1.8996e-17
-4.98842e-09
4.73805e-08
1.8895e-16
-2.49827e-09
3.8537e-08
-2.4526e-17
-7.20982e-10
2.61213e-08
1.31845e-18
9.7133e-09
-2.61318e-17
-7.92799e-10
-1.88993e-08
-4.78865e-15
-2.24156e-09
-2.04547e-08
-4.58193e-15
-3.70922e-09
-2.1643e-08
-4.45681e-15
-5.19769e-09
-2.25995e-08
-4.13329e-15
-6.72109e-09
-2.34328e-08
-3.92225e-15
-8.29206e-09
-2.42017e-08
-3.49638e-15
-9.91834e-09
-2.49287e-08
-3.32633e-15
-1.16012e-08
-2.56028e-08
-3.12111e-15
-1.33367e-08
-2.62071e-08
-2.98497e-15
-1.5117e-08
-2.67111e-08
-2.78478e-15
-1.69313e-08
-2.70875e-08
-2.64838e-15
-1.87669e-08
-2.73075e-08
-2.50948e-15
-2.06095e-08
-2.73416e-08
-2.41513e-15
-2.2444e-08
-2.71693e-08
-2.32932e-15
-2.42539e-08
-2.6762e-08
-2.3078e-15
-2.6022e-08
-2.61003e-08
-2.24273e-15
-2.77305e-08
-2.51635e-08
-2.03691e-15
-2.93609e-08
-2.39313e-08
-1.88536e-15
-3.08937e-08
-2.23867e-08
-1.75599e-15
-3.23091e-08
-2.05137e-08
-1.63982e-15
-3.35861e-08
-1.82996e-08
-1.52307e-15
-3.4704e-08
-1.57331e-08
-1.40933e-15
-3.56417e-08
-1.2808e-08
-1.28795e-15
-3.63776e-08
-9.52128e-09
-1.16798e-15
-3.68912e-08
-5.87522e-09
-1.04218e-15
-3.71613e-08
-1.8827e-09
-9.16938e-16
-3.71691e-08
2.44141e-09
-7.88296e-16
-3.68961e-08
7.06985e-09
-6.60365e-16
-3.63268e-08
1.19629e-08
-5.33295e-16
-3.54482e-08
1.70649e-08
-4.09295e-16
-3.42499e-08
2.23207e-08
-2.86146e-16
-3.27282e-08
2.76261e-08
-9.81302e-17
-3.0883e-08
3.28867e-08
-3.01269e-16
-2.87229e-08
3.79578e-08
-5.43332e-16
-2.62647e-08
4.26789e-08
-3.65705e-16
-2.35344e-08
4.68651e-08
-2.34828e-16
-2.05727e-08
5.02601e-08
-3.23759e-17
-1.74337e-08
5.26e-08
-3.2445e-16
-1.41892e-08
5.35723e-08
-1.76895e-16
-1.09328e-08
5.28096e-08
-8.56892e-17
-7.78338e-09
4.99163e-08
1.69443e-17
-4.89135e-09
4.44884e-08
1.84617e-16
-2.44925e-09
3.60949e-08
-2.48917e-17
-7.06991e-10
2.43791e-08
6.22887e-19
9.00631e-09
-2.61985e-17
-9.65984e-10
-1.75583e-08
-4.55203e-15
-2.36064e-09
-1.906e-08
-4.29912e-15
-3.78378e-09
-2.02199e-08
-4.25378e-15
-5.23319e-09
-2.11501e-08
-3.98981e-15
-6.71882e-09
-2.19472e-08
-3.80974e-15
-8.25116e-09
-2.26694e-08
-3.40772e-15
-9.83724e-09
-2.33426e-08
-3.24059e-15
-1.14785e-08
-2.39616e-08
-3.04148e-15
-1.31716e-08
-2.4514e-08
-2.91308e-15
-1.49092e-08
-2.49734e-08
-2.72424e-15
-1.66813e-08
-2.53154e-08
-2.59265e-15
-1.84756e-08
-2.55132e-08
-2.45589e-15
-2.02782e-08
-2.5539e-08
-2.36051e-15
-2.20741e-08
-2.53734e-08
-2.27047e-15
-2.38473e-08
-2.49888e-08
-2.24566e-15
-2.55807e-08
-2.43668e-08
-2.19815e-15
-2.72568e-08
-2.34873e-08
-2.00044e-15
-2.88572e-08
-2.2331e-08
-1.85576e-15
-3.03625e-08
-2.08814e-08
-1.73062e-15
-3.17531e-08
-1.91232e-08
-1.61672e-15
-3.30083e-08
-1.70443e-08
-1.50108e-15
-3.41074e-08
-1.46339e-08
-1.38814e-15
-3.50296e-08
-1.18858e-08
-1.26735e-15
-3.57535e-08
-8.79728e-09
-1.14839e-15
-3.62586e-08
-5.37037e-09
-1.02356e-15
-3.6524e-08
-1.61709e-09
-8.99837e-16
-3.65311e-08
2.44839e-09
-7.73187e-16
-3.62615e-08
6.80041e-09
-6.47743e-16
-3.56999e-08
1.14013e-08
-5.23561e-16
-3.48336e-08
1.61984e-08
-4.02569e-16
-3.36522e-08
2.11395e-08
-2.82403e-16
-3.21523e-08
2.61261e-08
-9.8454e-17
-3.0334e-08
3.10684e-08
-3.00674e-16
-2.82058e-08
3.58297e-08
-5.35496e-16
-2.57847e-08
4.02578e-08
-3.63853e-16
-2.30969e-08
4.41773e-08
-2.33108e-16
-2.01826e-08
4.73458e-08
-3.49772e-17
-1.70958e-08
4.95132e-08
-3.22364e-16
-1.39077e-08
5.03842e-08
-1.77148e-16
-1.07105e-08
4.96124e-08
-8.68505e-17
-7.62136e-09
4.68271e-08
1.45948e-17
-4.78742e-09
4.16545e-08
1.7966e-16
-2.39653e-09
3.3704e-08
-2.57042e-17
-6.91835e-10
2.26744e-08
-3.41261e-19
8.31447e-09
-2.63511e-17
-1.15121e-09
-1.62798e-08
-4.2605e-15
-2.49274e-09
-1.77185e-08
-4.03246e-15
-3.87126e-09
-1.88413e-08
-4.01077e-15
-5.28143e-09
-1.97399e-08
-3.74141e-15
-6.72954e-09
-2.0499e-08
-3.60499e-15
-8.22386e-09
-2.11751e-08
-3.27034e-15
-9.7704e-09
-2.1796e-08
-3.13934e-15
-1.13705e-08
-2.23615e-08
-2.95735e-15
-1.30212e-08
-2.28632e-08
-2.8389e-15
-1.47158e-08
-2.32788e-08
-2.65132e-15
-1.64447e-08
-2.35865e-08
-2.52302e-15
-1.81961e-08
-2.37617e-08
-2.38509e-15
-1.99567e-08
-2.37785e-08
-2.28508e-15
-2.17119e-08
-2.36182e-08
-2.18227e-15
-2.34459e-08
-2.32549e-08
-2.13971e-15
-2.51418e-08
-2.26707e-08
-2.1199e-15
-2.67826e-08
-2.18465e-08
-1.94559e-15
-2.83499e-08
-2.07637e-08
-1.81535e-15
-2.98248e-08
-1.94066e-08
-1.69815e-15
-3.11876e-08
-1.77605e-08
-1.58827e-15
-3.2418e-08
-1.58139e-08
-1.47462e-15
-3.34955e-08
-1.35562e-08
-1.363e-15
-3.43995e-08
-1.09818e-08
-1.24327e-15
-3.51088e-08
-8.08788e-09
-1.12572e-15
-3.56031e-08
-4.87627e-09
-1.00229e-15
-3.58618e-08
-1.35818e-09
-8.8044e-16
-3.58664e-08
2.45294e-09
-7.56108e-16
-3.55989e-08
6.533e-09
-6.33431e-16
-3.5044e-08
1.08464e-08
-5.12346e-16
-3.41894e-08
1.53436e-08
-3.94492e-16
-3.30248e-08
1.99751e-08
-2.77416e-16
-3.15468e-08
2.4648e-08
-9.7805e-17
-2.97559e-08
2.92776e-08
-2.98072e-16
-2.76608e-08
3.37346e-08
-5.27091e-16
-2.52783e-08
3.78752e-08
-3.6064e-16
-2.26347e-08
4.15338e-08
-2.31561e-16
-1.97701e-08
4.44811e-08
-3.66507e-17
-1.67381e-08
4.64812e-08
-3.19423e-16
-1.36092e-08
4.72553e-08
-1.76875e-16
-1.04744e-08
4.64776e-08
-8.7856e-17
-7.44882e-09
4.38015e-08
1.20548e-17
-4.67639e-09
3.88821e-08
1.74104e-16
-2.33996e-09
3.13676e-08
-2.69505e-17
-6.75453e-10
2.10099e-08
-1.65747e-18
7.63902e-09
-2.6751e-17
-1.34339e-09
-1.506e-08
-3.858e-15
-2.63351e-09
-1.64283e-08
-3.72277e-15
-3.96811e-09
-1.75067e-08
-3.75678e-15
-5.33944e-09
-1.83686e-08
-3.61841e-15
-6.75056e-09
-1.90879e-08
-3.51041e-15
-8.20756e-09
-1.97181e-08
-3.18355e-15
-9.7152e-09
-2.02883e-08
-3.04475e-15
-1.12745e-08
-2.08022e-08
-2.86532e-15
-1.28828e-08
-2.12549e-08
-2.75011e-15
-1.45339e-08
-2.16278e-08
-2.58363e-15
-1.62186e-08
-2.19017e-08
-2.44927e-15
-1.79258e-08
-2.20545e-08
-2.30993e-15
-1.96426e-08
-2.20617e-08
-2.20077e-15
-2.13549e-08
-2.1906e-08
-2.07499e-15
-2.30471e-08
-2.15626e-08
-1.99294e-15
-2.47031e-08
-2.10147e-08
-2.01763e-15
-2.63057e-08
-2.02438e-08
-1.87781e-15
-2.7837e-08
-1.92323e-08
-1.76637e-15
-2.92784e-08
-1.79652e-08
-1.65925e-15
-3.06105e-08
-1.64285e-08
-1.5546e-15
-3.18133e-08
-1.46111e-08
-1.44361e-15
-3.28664e-08
-1.2503e-08
-1.33386e-15
-3.37495e-08
-1.00987e-08
-1.21563e-15
-3.44417e-08
-7.39553e-09
-1.09985e-15
-3.4923e-08
-4.39515e-09
-9.78322e-16
-3.51731e-08
-1.10794e-09
-8.58752e-16
-3.51737e-08
2.4534e-09
-7.37097e-16
-3.49069e-08
6.26634e-09
-6.17466e-16
-3.43578e-08
1.02973e-08
-4.99694e-16
-3.35142e-08
1.44998e-08
-3.85135e-16
-3.23663e-08
1.88274e-08
-2.71298e-16
-3.09106e-08
2.31923e-08
-9.59586e-17
-2.91479e-08
2.7515e-08
-2.9444e-16
-2.70869e-08
3.16736e-08
-5.18488e-16
-2.47446e-08
3.55329e-08
-3.5621e-16
-2.21472e-08
3.89365e-08
-2.28724e-16
-1.93346e-08
4.16685e-08
-3.83609e-17
-1.63601e-08
4.35066e-08
-3.16061e-16
-1.32933e-08
4.41885e-08
-1.76333e-16
-1.02241e-08
4.34085e-08
-8.87781e-17
-7.26548e-09
4.08429e-08
9.39026e-18
-4.55803e-09
3.61746e-08
1.68139e-16
-2.27939e-09
2.90889e-08
-2.83842e-17
-6.57779e-10
1.93883e-08
-3.11311e-18
6.98124e-09
-2.71792e-17
-1.54053e-09
-1.3896e-08
-3.72844e-15
-2.78095e-09
-1.51879e-08
-3.58407e-15
-4.07253e-09
-1.62151e-08
-3.56018e-15
-5.40554e-09
-1.70356e-08
-3.38468e-15
-6.7802e-09
-1.77132e-08
-3.30479e-15
-8.2004e-09
-1.82979e-08
-3.03602e-15
-9.6696e-09
-1.88191e-08
-2.92615e-15
-1.11884e-08
-1.92834e-08
-2.76469e-15
-1.27542e-08
-1.96891e-08
-2.65664e-15
-1.4361e-08
-2.00209e-08
-2.49764e-15
-1.60006e-08
-2.02622e-08
-2.36554e-15
-1.76621e-08
-2.03929e-08
-2.22272e-15
-1.93333e-08
-2.03906e-08
-2.10441e-15
-2.10005e-08
-2.02388e-08
-1.95674e-15
-2.26487e-08
-1.99145e-08
-1.80306e-15
-2.42619e-08
-1.94014e-08
-1.91185e-15
-2.58236e-08
-1.8682e-08
-1.8056e-15
-2.73162e-08
-1.77398e-08
-1.7117e-15
-2.87212e-08
-1.65602e-08
-1.61482e-15
-3.00197e-08
-1.51301e-08
-1.5159e-15
-3.11919e-08
-1.34388e-08
-1.40814e-15
-3.22179e-08
-1.14769e-08
-1.30074e-15
-3.30776e-08
-9.23902e-09
-1.18449e-15
-3.37504e-08
-6.72261e-09
-1.07085e-15
-3.42166e-08
-3.92916e-09
-9.51724e-16
-3.44561e-08
-8.68227e-10
-8.34822e-16
-3.4451e-08
2.44823e-09
-7.1621e-16
-3.41838e-08
5.99921e-09
-5.99903e-16
-3.36397e-08
9.75325e-09
-4.85668e-16
-3.28068e-08
1.36668e-08
-3.74546e-16
-3.16754e-08
1.76962e-08
-2.64097e-16
-3.02425e-08
2.17593e-08
-9.33614e-17
-2.85088e-08
2.57814e-08
-2.89426e-16
-2.64832e-08
2.96481e-08
-5.09494e-16
-2.41828e-08
3.32324e-08
-3.50837e-16
-2.16336e-08
3.63874e-08
-2.25832e-16
-1.88755e-08
3.89103e-08
-3.92384e-17
-1.59611e-08
4.05923e-08
-3.11894e-16
-1.29595e-08
4.1187e-08
-1.75265e-16
-9.95924e-09
4.04082e-08
-8.94811e-17
-7.07105e-09
3.79548e-08
6.64935e-18
-4.43212e-09
3.35357e-08
1.61764e-16
-2.21465e-09
2.68715e-08
-2.99259e-17
-6.38749e-10
1.78124e-08
-4.78638e-18
6.34249e-09
-2.78045e-17
-1.74308e-09
-1.27853e-08
-3.51127e-15
-2.93518e-09
-1.39958e-08
-3.41712e-15
-4.18443e-09
-1.49659e-08
-3.40615e-15
-5.47941e-09
-1.57406e-08
-3.35318e-15
-6.81779e-09
-1.63749e-08
-3.26817e-15
-8.20134e-09
-1.69144e-08
-2.98775e-15
-9.63213e-09
-1.73883e-08
-2.85605e-15
-1.11102e-08
-1.78054e-08
-2.68747e-15
-1.2633e-08
-1.81663e-08
-2.57507e-15
-1.41949e-08
-1.84589e-08
-2.40574e-15
-1.5788e-08
-1.8669e-08
-2.28299e-15
-1.74023e-08
-1.87785e-08
-2.13755e-15
-1.9026e-08
-1.87669e-08
-2.01166e-15
-2.0646e-08
-1.86189e-08
-1.85504e-15
-2.22477e-08
-1.83128e-08
-1.65781e-15
-2.38157e-08
-1.78333e-08
-1.83789e-15
-2.53338e-08
-1.71639e-08
-1.74129e-15
-2.67847e-08
-1.62888e-08
-1.65582e-15
-2.81506e-08
-1.51944e-08
-1.56644e-15
-2.94126e-08
-1.38681e-08
-1.47285e-15
-3.05516e-08
-1.22998e-08
-1.36849e-15
-3.15478e-08
-1.04806e-08
-1.26375e-15
-3.23816e-08
-8.40528e-09
-1.14997e-15
-3.30326e-08
-6.07143e-09
-1.03889e-15
-3.34816e-08
-3.48037e-09
-9.22612e-16
-3.37088e-08
-6.40842e-10
-8.08765e-16
-3.36966e-08
2.43593e-09
-6.93544e-16
-3.34278e-08
5.73049e-09
-5.80828e-16
-3.2888e-08
9.21341e-09
-4.70342e-16
-3.20654e-08
1.2844e-08
-3.62814e-16
-3.09507e-08
1.65817e-08
-2.55907e-16
-2.95411e-08
2.03495e-08
-8.97961e-17
-2.78374e-08
2.40778e-08
-2.8367e-16
-2.58487e-08
2.76594e-08
-4.99624e-16
-2.3592e-08
3.09756e-08
-3.44442e-16
-2.10933e-08
3.38888e-08
-2.21779e-16
-1.83921e-08
3.62092e-08
-3.99779e-17
-1.55409e-08
3.7741e-08
-3.07197e-16
-1.26076e-08
3.82537e-08
-1.73809e-16
-9.6795e-09
3.74801e-08
-8.99552e-17
-6.86526e-09
3.51405e-08
3.95149e-18
-4.29843e-09
3.09688e-08
1.55205e-16
-2.1456e-09
2.47186e-08
-3.13086e-17
-6.18294e-10
1.62851e-08
-6.46457e-18
5.72419e-09
-2.84069e-17
-1.95281e-09
-1.1726e-08
-3.50184e-15
-3.09768e-09
-1.28509e-08
-3.29981e-15
-4.30492e-09
-1.37586e-08
-3.20302e-15
-5.5617e-09
-1.44838e-08
-3.02575e-15
-6.86344e-09
-1.50731e-08
-2.95979e-15
-8.20986e-09
-1.5568e-08
-2.76892e-15
-9.6017e-09
-1.59965e-08
-2.68712e-15
-1.10384e-08
-1.63687e-08
-2.55458e-15
-1.25173e-08
-1.66875e-08
-2.46249e-15
-1.40331e-08
-1.69431e-08
-2.30259e-15
-1.55784e-08
-1.71236e-08
-2.18643e-15
-1.71438e-08
-1.72131e-08
-2.04325e-15
-1.87181e-08
-1.71927e-08
-1.9173e-15
-2.02886e-08
-1.70484e-08
-1.77065e-15
-2.18415e-08
-1.676e-08
-1.63204e-15
-2.33616e-08
-1.6313e-08
-1.8076e-15
-2.48334e-08
-1.56921e-08
-1.69003e-15
-2.624e-08
-1.48822e-08
-1.60104e-15
-2.75639e-08
-1.38705e-08
-1.51521e-15
-2.87868e-08
-1.26452e-08
-1.42594e-15
-2.98898e-08
-1.11967e-08
-1.32496e-15
-3.08536e-08
-9.51661e-09
-1.22312e-15
-3.1659e-08
-7.59992e-09
-1.11233e-15
-3.22861e-08
-5.44423e-09
-1.00417e-15
-3.27159e-08
-3.05078e-09
-8.91164e-16
-3.2929e-08
-4.27481e-10
-7.80727e-16
-3.29084e-08
2.41516e-09
-6.69213e-16
-3.26369e-08
5.45918e-09
-5.60332e-16
-3.21007e-08
8.67721e-09
-4.53808e-16
-3.12883e-08
1.20315e-08
-3.4999e-16
-3.01906e-08
1.54842e-08
-2.46776e-16
-2.8805e-08
1.89638e-08
-8.54958e-17
-2.71325e-08
2.24054e-08
-2.76826e-16
-2.51822e-08
2.57092e-08
-4.89013e-16
-2.29712e-08
2.87646e-08
-3.37354e-16
-2.05254e-08
3.1443e-08
-2.17444e-16
-1.7884e-08
3.35677e-08
-3.99841e-17
-1.50987e-08
3.49557e-08
-3.01714e-16
-1.2237e-08
3.5392e-08
-1.71828e-16
-9.38459e-09
3.46277e-08
-9.01679e-17
-6.64786e-09
3.24038e-08
1.26276e-18
-4.15677e-09
2.84777e-08
1.48399e-16
-2.0721e-09
2.26339e-08
-3.2546e-17
-5.96347e-10
1.48093e-08
-8.24554e-18
5.12785e-09
-2.91533e-17
-2.17213e-09
-1.07165e-08
-3.15592e-15
-3.27059e-09
-1.17525e-08
-3.02545e-15
-4.43575e-09
-1.25935e-08
-3.05445e-15
-5.65358e-09
-1.32659e-08
-3.02744e-15
-6.91761e-09
-1.38091e-08
-2.9852e-15
-8.22573e-09
-1.42599e-08
-2.77509e-15
-9.5774e-09
-1.46448e-08
-2.65605e-15
-1.09714e-08
-1.49747e-08
-2.50298e-15
-1.2405e-08
-1.52539e-08
-2.39675e-15
-1.38733e-08
-1.54749e-08
-2.22923e-15
-1.53691e-08
-1.56278e-08
-2.10648e-15
-1.68837e-08
-1.56984e-08
-1.95981e-15
-1.84065e-08
-1.567e-08
-1.83248e-15
-1.99253e-08
-1.55296e-08
-1.69831e-15
-2.14269e-08
-1.52584e-08
-1.63109e-15
-2.28967e-08
-1.48431e-08
-1.81731e-15
-2.43196e-08
-1.42692e-08
-1.64724e-15
-2.56791e-08
-1.35226e-08
-1.54692e-15
-2.69583e-08
-1.25914e-08
-1.46149e-15
-2.81393e-08
-1.14643e-08
-1.37548e-15
-2.92037e-08
-1.01323e-08
-1.27788e-15
-3.01326e-08
-8.58757e-09
-1.17919e-15
-3.09072e-08
-6.82531e-09
-1.07168e-15
-3.15081e-08
-4.84318e-09
-9.66918e-16
-3.19168e-08
-2.64228e-09
-8.57592e-16
-3.21143e-08
-2.29746e-10
-7.5089e-16
-3.20839e-08
2.38464e-09
-6.43353e-16
-3.1809e-08
5.18441e-09
-5.38525e-16
-3.1276e-08
8.14419e-09
-4.36154e-16
-3.04738e-08
1.1229e-08
-3.36162e-16
-2.93935e-08
1.44041e-08
-2.36777e-16
-2.80327e-08
1.76029e-08
-8.02839e-17
-2.63927e-08
2.07654e-08
-2.69307e-16
-2.44826e-08
2.37992e-08
-4.77492e-16
-2.23195e-08
2.66014e-08
-3.29335e-16
-1.99291e-08
2.90527e-08
-2.12088e-16
-1.73503e-08
3.09888e-08
-3.96885e-17
-1.46343e-08
3.22397e-08
-2.95576e-16
-1.18475e-08
3.26052e-08
-1.69334e-16
-9.07424e-09
3.18545e-08
-9.00182e-17
-6.41865e-09
2.97482e-08
-1.23814e-18
-4.00697e-09
2.6066e-08
1.41577e-16
-1.99401e-09
2.0621e-08
-3.34936e-17
-5.72841e-10
1.33882e-08
-9.93907e-18
4.555e-09
-2.98421e-17
-2.40337e-09
-9.75517e-09
-3.02333e-15
-3.45601e-09
-1.06998e-08
-2.83087e-15
-4.57857e-09
-1.14709e-08
-2.86494e-15
-5.75611e-09
-1.20884e-08
-2.76925e-15
-6.98066e-09
-1.25845e-08
-2.74618e-15
-8.24856e-09
-1.2992e-08
-2.59387e-15
-9.55816e-09
-1.33351e-08
-2.50029e-15
-1.09076e-08
-1.36252e-08
-2.36738e-15
-1.22941e-08
-1.38673e-08
-2.27468e-15
-1.37129e-08
-1.40561e-08
-2.12129e-15
-1.51574e-08
-1.41833e-08
-2.00533e-15
-1.66191e-08
-1.42366e-08
-1.8647e-15
-1.80882e-08
-1.4201e-08
-1.74292e-15
-1.9553e-08
-1.40647e-08
-1.62204e-15
-2.10009e-08
-1.38106e-08
-1.60267e-15
-2.24178e-08
-1.34261e-08
-1.82945e-15
-2.3789e-08
-1.28979e-08
-1.60155e-15
-2.50988e-08
-1.22129e-08
-1.49072e-15
-2.63305e-08
-1.13597e-08
-1.40516e-15
-2.7467e-08
-1.03279e-08
-1.32166e-15
-2.84901e-08
-9.10917e-09
-1.22738e-15
-2.93816e-08
-7.69594e-09
-1.1322e-15
-3.01232e-08
-6.08376e-09
-1.02849e-15
-3.06959e-08
-4.27036e-09
-9.27387e-16
-3.10817e-08
-2.25667e-09
-8.22116e-16
-3.12621e-08
-4.91221e-11
-7.1944e-16
-3.12208e-08
2.34326e-09
-6.16196e-16
-3.09417e-08
4.90544e-09