/*--------------------------------*- C++ -*----------------------------------*\
| =========                 |                                                 |
| \\      /  F ield         | OpenFOAM: The Open Source CFD Toolbox           |
|  \\    /   O peration     | Version:  v2012                                 |
|   \\  /    A nd           | Website:  www.openfoam.com                      |
|    \\/     M anipulation  |                                                 |
\*---------------------------------------------------------------------------*/
FoamFile
{
    version     2.0;
    format      ascii;
    class       volVectorField;
    location    "0.3";
    object      U;
}
// * * * * * * * * * * * * * * * * * * * * * * * * * * * * * * * * * * * * * //

dimensions      [0 1 -1 0 0 0 0];


internalField   nonuniform List<vector> 
20000
(
(-0.0250788 -43.693 0.000218882)
(0.0662445 -42.7086 -0.000578173)
(-0.0847143 -40.2426 0.00073909)
(0.0311615 -38.5935 -0.000271993)
(-0.0231791 -36.964 0.000202301)
(0.229741 -35.8233 -0.00200477)
(0.308251 -27.1898 -0.00268619)
(0.295924 -22.7384 -0.00257247)
(0.275892 -21.8192 -0.0024052)
(0.261615 -20.5659 -0.00228208)
(0.247234 -18.7833 -0.00215715)
(0.232009 -16.7016 -0.00202429)
(0.217603 -14.7507 -0.00189868)
(0.203943 -13.2191 -0.00177988)
(0.189689 -12.0917 -0.00165571)
(0.174529 -11.2303 -0.00152345)
(0.15909 -10.5186 -0.00138871)
(0.143691 -9.88353 -0.00125432)
(0.12848 -9.28509 -0.00112155)
(0.113541 -8.70443 -0.000991162)
(0.0989235 -8.13488 -0.000863584)
(0.0846689 -7.57564 -0.000739169)
(0.0708059 -7.02826 -0.000618171)
(0.0573608 -6.49478 -0.000500819)
(0.0443585 -5.97691 -0.00038733)
(0.0318283 -5.47588 -0.000277961)
(0.0198059 -4.99237 -0.000173023)
(0.00833804 -4.52669 -7.29234e-05)
(-0.00251706 -4.07889 2.18298e-05)
(-0.0126869 -3.64886 0.000110605)
(-0.0220837 -3.23643 0.000192635)
(-0.0306036 -2.84142 0.000267014)
(-0.038125 -2.46368 0.000332682)
(-0.0445058 -2.10311 0.000388398)
(-0.04958 -1.75966 0.000432716)
(-0.0531472 -1.43336 0.000463886)
(-0.0549664 -1.12427 0.000479808)
(-0.0546877 -0.832568 0.00047744)
(-0.0519464 -0.558458 0.000453579)
(-0.0454732 -0.302746 0.000397374)
(-0.0366056 -0.0657183 0.000319935)
(-0.0128204 0.151416 0.000111755)
(-0.00970703 0.347943 8.45399e-05)
(-0.00737805 0.525979 6.44235e-05)
(-0.00648169 0.684393 5.6582e-05)
(-0.00586537 0.823349 5.1209e-05)
(-0.00535477 0.942091 4.67514e-05)
(-0.00486855 1.03995 4.25072e-05)
(-0.00438427 1.11616 3.82798e-05)
(-0.00389342 1.16988 3.39951e-05)
(-0.0033959 1.20014 2.96523e-05)
(-0.00289564 1.20582 2.52856e-05)
(-0.00239952 1.18562 2.09547e-05)
(-0.00191657 1.13806 1.67387e-05)
(-0.00145768 1.06136 1.27324e-05)
(-0.00103597 0.953501 9.05034e-06)
(-0.000665245 0.812028 5.81301e-06)
(-0.000362102 0.634024 3.16507e-06)
(-0.000139142 0.415856 1.21738e-06)
(-1.14661e-05 0.153053 1.18171e-07)
(-0.0321482 -43.7522 0.00028059)
(0.0950799 -42.685 -0.00082982)
(-0.126348 -40.102 0.00110242)
(0.0756378 -38.6922 -0.000660224)
(-0.0567684 -37.2512 0.000495302)
(0.302533 -36.3819 -0.00263993)
(0.35045 -27.3965 -0.00305363)
(0.321691 -22.7951 -0.00279435)
(0.307282 -21.8731 -0.00267841)
(0.297729 -20.6115 -0.00259683)
(0.280126 -18.8154 -0.00244397)
(0.25944 -16.7231 -0.00226344)
(0.241203 -14.7664 -0.00210444)
(0.225973 -13.2287 -0.00197209)
(0.209485 -12.0945 -0.00182849)
(0.191264 -11.2278 -0.00166952)
(0.172397 -10.5126 -0.00150485)
(0.153818 -9.87531 -0.0013427)
(0.135875 -9.27531 -0.0011861)
(0.118748 -8.69356 -0.00103661)
(0.102439 -8.12328 -0.000894262)
(0.086914 -7.56359 -0.000758759)
(0.0721098 -7.01598 -0.000629545)
(0.0579713 -6.48243 -0.000506143)
(0.0444558 -5.96466 -0.000388177)
(0.0315413 -5.46385 -0.000275456)
(0.0192261 -4.98068 -0.000167965)
(0.00753067 -4.51546 -6.5883e-05)
(-0.00350514 -4.06822 3.04429e-05)
(-0.0138216 -3.63886 0.000120492)
(-0.02334 -3.2272 0.000203578)
(-0.0319639 -2.83306 0.000278857)
(-0.039578 -2.45629 0.000345325)
(-0.046047 -2.0968 0.000401801)
(-0.0512142 -1.75453 0.000446918)
(-0.0548922 -1.42953 0.000479041)
(-0.056867 -1.1219 0.000496301)
(-0.0568335 -0.831834 0.000496042)
(-0.0545663 -0.55966 0.000476271)
(-0.0491473 -0.306091 0.000429073)
(-0.0425428 -0.0719197 0.0003715)
(-0.0306645 0.145293 0.000267819)
(-0.0257908 0.345856 0.000225258)
(-0.0215705 0.52506 0.000188373)
(-0.0193108 0.683993 0.000168596)
(-0.0175708 0.823095 0.000153407)
(-0.0160658 0.941877 0.000140267)
(-0.0146162 1.03974 0.000127613)
(-0.0131667 1.11594 0.000114961)
(-0.0116953 1.16965 0.000102116)
(-0.0102027 1.1999 8.9087e-05)
(-0.00870115 1.20557 7.59802e-05)
(-0.00721161 1.18538 6.29772e-05)
(-0.00576122 1.13783 5.03155e-05)
(-0.00438254 1.06116 3.82792e-05)
(-0.00311469 0.95332 2.72097e-05)
(-0.00199881 0.811883 1.74658e-05)
(-0.00108435 0.633918 9.47908e-06)
(-0.00040969 0.415791 3.5874e-06)
(-2.80606e-05 0.153026 3.07996e-07)
(-0.0299908 -43.8001 0.000261763)
(0.0873065 -42.6643 -0.000761976)
(-0.107208 -40.1102 0.000935474)
(0.169258 -38.7652 -0.00147735)
(-0.0467311 -37.3715 0.000407606)
(0.341852 -36.6857 -0.00298304)
(0.349006 -27.4698 -0.00304034)
(0.352339 -22.8283 -0.00306053)
(0.340918 -21.9084 -0.00297183)
(0.327449 -20.6303 -0.0028563)
(0.300482 -18.8186 -0.00262194)
(0.272322 -16.7232 -0.0023763)
(0.251073 -14.77 -0.00219096)
(0.236663 -13.2325 -0.00206552)
(0.221339 -12.0946 -0.00193198)
(0.203572 -11.2244 -0.00177696)
(0.18406 -10.5071 -0.00160667)
(0.164138 -9.86862 -0.0014328)
(0.144527 -9.26805 -0.00126164)
(0.125709 -8.68603 -0.0010974)
(0.107838 -8.11559 -0.000941406)
(0.0909477 -7.55579 -0.000793984)
(0.0749852 -7.00809 -0.000654657)
(0.0598792 -6.47447 -0.000522806)
(0.0455587 -5.95666 -0.00039781)
(0.0319724 -5.45585 -0.000279222)
(0.019092 -4.97273 -0.000166796)
(0.00691589 -4.50764 -6.05153e-05)
(-0.00453381 -4.0606 3.94255e-05)
(-0.0152113 -3.63153 0.000132628)
(-0.0250493 -3.22026 0.000218505)
(-0.0339608 -2.82661 0.000296296)
(-0.0418404 -2.45044 0.000365082)
(-0.0485638 -2.09165 0.000423779)
(-0.0539895 -1.75022 0.000471152)
(-0.0579534 -1.42618 0.00050577)
(-0.0602835 -1.11964 0.000526129)
(-0.0607504 -0.830818 0.000530233)
(-0.0592829 -0.560049 0.000517443)
(-0.0554 -0.307815 0.000483642)
(-0.0508875 -0.0747945 0.00044431)
(-0.0446202 0.142826 0.000389597)
(-0.0398993 0.344158 0.000348375)
(-0.0351194 0.523992 0.000306642)
(-0.0319074 0.683359 0.00027857)
(-0.0291974 0.822618 0.000254914)
(-0.0267535 0.941442 0.000233578)
(-0.0243638 1.03929 0.000212718)
(-0.0219591 1.11547 0.000191727)
(-0.0195114 1.16915 0.000170362)
(-0.0170253 1.19938 0.00014866)
(-0.0145227 1.20504 0.000126815)
(-0.012039 1.18485 0.000105133)
(-0.00961972 1.1373 8.4013e-05)
(-0.00731893 1.06066 6.39265e-05)
(-0.00520151 0.952873 4.54393e-05)
(-0.00333546 0.8115 2.91455e-05)
(-0.00180314 0.633618 1.57633e-05)
(-0.000670016 0.41559 5.8694e-06)
(-3.80564e-05 0.152946 4.42271e-07)
(-0.0254905 -43.8508 0.000222494)
(0.0826054 -42.652 -0.000720956)
(-0.0931096 -40.1901 0.000812511)
(0.238355 -38.8716 -0.00208048)
(-0.0572896 -37.5629 0.000499684)
(0.395866 -37.1098 -0.00345438)
(0.35891 -27.6039 -0.00312644)
(0.361479 -22.907 -0.00313898)
(0.353935 -21.9707 -0.00308513)
(0.342029 -20.6642 -0.00298342)
(0.313958 -18.8315 -0.00273957)
(0.284451 -16.7314 -0.00248221)
(0.262817 -14.7824 -0.00229351)
(0.249264 -13.2442 -0.00217552)
(0.234813 -12.1 -0.00204957)
(0.217264 -11.2232 -0.00189645)
(0.196994 -10.5011 -0.00171957)
(0.175616 -9.85983 -0.00153299)
(0.154177 -9.2578 -0.00134588)
(0.13347 -8.67515 -0.00116514)
(0.113824 -8.10457 -0.000993666)
(0.0953645 -7.54486 -0.00083255)
(0.0780578 -6.99736 -0.00068149)
(0.0618191 -6.46401 -0.000539751)
(0.0465471 -5.94648 -0.000406451)
(0.0321582 -5.446 -0.000280857)
(0.0185938 -4.96324 -0.000162459)
(0.00582711 -4.49854 -5.10245e-05)
(-0.00613952 -4.05196 5.34286e-05)
(-0.0172761 -3.62339 0.000150638)
(-0.0275278 -3.21269 0.000240127)
(-0.036819 -2.81969 0.000321232)
(-0.045055 -2.44423 0.000393131)
(-0.0521248 -2.08624 0.000454852)
(-0.0579048 -1.74567 0.000505319)
(-0.062258 -1.42257 0.000543336)
(-0.065057 -1.11705 0.000567788)
(-0.0661505 -0.829296 0.000577359)
(-0.0655808 -0.559593 0.000572409)
(-0.0631746 -0.308189 0.000551509)
(-0.06037 -0.0754017 0.000527048)
(-0.0569279 0.141911 0.000496985)
(-0.0528378 0.342863 0.000461299)
(-0.0480562 0.522935 0.000419571)
(-0.0442169 0.682594 0.000386038)
(-0.0407045 0.821973 0.000355377)
(-0.0373948 0.94082 0.000326483)
(-0.0340988 1.03864 0.000297713)
(-0.0307545 1.11477 0.000268521)
(-0.0273378 1.16841 0.000238696)
(-0.0238612 1.1986 0.000208349)
(-0.0203583 1.20425 0.000177772)
(-0.01688 1.18405 0.000147408)
(-0.0134905 1.13653 0.000117818)
(-0.0102656 1.05994 8.9664e-05)
(-0.00729576 0.95222 6.37344e-05)
(-0.00467578 0.810944 4.08574e-05)
(-0.00252121 0.633185 2.20407e-05)
(-0.000925964 0.415303 8.11144e-06)
(-4.66448e-05 0.152834 5.56302e-07)
(-0.0090098 -43.9136 7.86599e-05)
(0.0574352 -42.6364 -0.00050129)
(-0.0496561 -40.3811 0.000433398)
(0.305138 -38.945 -0.00266342)
(-0.0564504 -37.7228 0.000492347)
(0.439824 -37.4973 -0.00383796)
(0.371221 -27.687 -0.00323397)
(0.375731 -22.9612 -0.00326315)
(0.365163 -22.0221 -0.00318315)
(0.352372 -20.6902 -0.0030737)
(0.323139 -18.8374 -0.00281975)
(0.293202 -16.7344 -0.00255869)
(0.271184 -14.7915 -0.00236663)
(0.25774 -13.2545 -0.00224954)
(0.24378 -12.1054 -0.00212784)
(0.226784 -11.2223 -0.00197956)
(0.206574 -10.4955 -0.00180319)
(0.184694 -9.85117 -0.00161224)
(0.162284 -9.24749 -0.00141665)
(0.140334 -8.66413 -0.00122507)
(0.11934 -8.09336 -0.00104183)
(0.0995512 -7.53374 -0.000869105)
(0.0810011 -6.98645 -0.000707192)
(0.0636373 -6.45334 -0.000555631)
(0.0473642 -5.93609 -0.000413591)
(0.0320907 -5.4359 -0.000280275)
(0.0177444 -4.95347 -0.000155053)
(0.00428359 -4.48914 -3.75586e-05)
(-0.00830382 -4.04297 7.23133e-05)
(-0.0200003 -3.61489 0.000174411)
(-0.0307624 -3.20475 0.000268354)
(-0.040525 -2.81238 0.000353574)
(-0.0492047 -2.43763 0.000429345)
(-0.0567042 -2.08042 0.000494816)
(-0.0629186 -1.74071 0.000549074)
(-0.0677381 -1.41853 0.000591159)
(-0.0710759 -1.11397 0.000620312)
(-0.0728466 -0.82718 0.000635791)
(-0.0731596 -0.558375 0.000638543)
(-0.0720151 -0.307631 0.00062866)
(-0.0704859 -0.0750084 0.000615328)
(-0.0685201 0.141807 0.000598164)
(-0.0650702 0.342042 0.000568076)
(-0.0604991 0.522039 0.000528188)
(-0.0562535 0.681793 0.000491118)
(-0.052081 0.821206 0.000454697)
(-0.0479787 0.940031 0.000418887)
(-0.043814 1.03779 0.000382535)
(-0.0395486 1.11386 0.000345303)
(-0.0351718 1.16743 0.000307098)
(-0.0307085 1.19758 0.000268138)
(-0.0262066 1.20319 0.00022884)
(-0.0217334 1.183 0.000189792)
(-0.0173726 1.13551 0.000151722)
(-0.0132217 1.05897 0.000115484)
(-0.00939696 0.951351 8.20902e-05)
(-0.00601988 0.810204 5.26024e-05)
(-0.00323978 0.632608 2.83226e-05)
(-0.00118004 0.414924 1.03372e-05)
(-5.44526e-05 0.152689 6.6258e-07)
(0.0148547 -43.9795 -0.000129617)
(0.0162703 -42.6299 -0.000142039)
(0.018395 -40.6975 -0.000160396)
(0.341392 -38.9926 -0.00297995)
(-0.049795 -37.9071 0.000434291)
(0.470416 -37.9078 -0.00410491)
(0.381051 -27.7741 -0.0033198)
(0.380112 -23.0277 -0.00330097)
(0.36945 -22.0825 -0.00322051)
(0.357715 -20.7236 -0.00312031)
(0.329921 -18.85 -0.00287897)
(0.301455 -16.7428 -0.00263078)
(0.279787 -14.8044 -0.00244178)
(0.26615 -13.2678 -0.00232296)
(0.251989 -12.113 -0.0021995)
(0.234901 -11.2231 -0.0020504)
(0.214421 -10.4905 -0.00187168)
(0.191993 -9.84231 -0.00167595)
(0.168753 -9.23641 -0.00147312)
(0.145783 -8.652 -0.00127264)
(0.123673 -8.08092 -0.00107966)
(0.102754 -7.52138 -0.000897075)
(0.0831134 -6.97436 -0.00072564)
(0.0647273 -6.44162 -0.000565157)
(0.0475118 -5.92476 -0.000414891)
(0.031376 -5.42497 -0.000274049)
(0.0162422 -4.94295 -0.000141952)
(0.00206089 -4.47907 -1.81681e-05)
(-0.011188 -4.0334 9.74782e-05)
(-0.0234947 -3.60585 0.000204902)
(-0.034823 -3.19631 0.000303788)
(-0.0451155 -2.80459 0.000393633)
(-0.0542978 -2.43057 0.000473791)
(-0.0622845 -2.07415 0.000543515)
(-0.0689869 -1.73529 0.000602032)
(-0.0743192 -1.414 0.000648591)
(-0.078226 -1.11035 0.00068271)
(-0.0806708 -0.824452 0.00070407)
(-0.0817902 -0.556438 0.00071386)
(-0.0816633 -0.306283 0.000712866)
(-0.0810388 -0.0739105 0.000707431)
(-0.0798571 0.142302 0.000697122)
(-0.0769156 0.341682 0.000671474)
(-0.0725898 0.521361 0.00063373)
(-0.068065 0.681015 0.000594231)
(-0.0633364 0.820355 0.000552959)
(-0.0585049 0.939095 0.000510786)
(-0.0535073 1.03676 0.000467165)
(-0.0483396 1.11272 0.000422057)
(-0.0430119 1.16621 0.000375553)
(-0.0375662 1.19629 0.000328017)
(-0.0320667 1.20188 0.000280011)
(-0.0265985 1.18168 0.000232277)
(-0.0212653 1.13423 0.000185719)
(-0.0161868 1.05777 0.000141382)
(-0.0115048 0.950262 0.000100504)
(-0.00736794 0.809276 6.43819e-05)
(-0.00395966 0.631885 3.4616e-05)
(-0.00143364 0.414448 1.25589e-05)
(-6.1891e-05 0.15251 7.66022e-07)
(0.0483641 -44.0509 -0.000422073)
(-0.04073 -42.6334 0.00035542)
(0.110979 -41.1221 -0.000968325)
(0.334794 -38.9735 -0.00292251)
(-0.0328313 -38.1041 0.000286326)
(0.479917 -38.3108 -0.0041878)
(0.39797 -27.8454 -0.0034676)
(0.387739 -23.0811 -0.00336747)
(0.374602 -22.1377 -0.00326555)
(0.362141 -20.7554 -0.00315898)
(0.334946 -18.8624 -0.00292288)
(0.307464 -16.751 -0.0026833)
(0.285942 -14.8165 -0.00249557)
(0.271791 -13.2801 -0.00237224)
(0.25714 -12.1202 -0.00224446)
(0.239813 -11.2237 -0.00209328)
(0.219156 -10.4855 -0.00191302)
(0.196461 -9.83339 -0.00171495)
(0.17278 -9.2251 -0.00150828)
(0.149196 -8.63948 -0.00130244)
(0.126337 -8.06794 -0.00110292)
(0.104588 -7.5084 -0.000913091)
(0.0840827 -6.96162 -0.00073411)
(0.0648334 -6.42921 -0.000566093)
(0.0467785 -5.91274 -0.0004085)
(0.0298394 -5.41337 -0.000260646)
(0.0139437 -4.93179 -0.000121899)
(-0.000956708 -4.46838 8.16126e-06)
(-0.0148827 -4.02321 0.000129718)
(-0.0278266 -3.59623 0.000242703)
(-0.0397552 -3.18731 0.000346829)
(-0.0506151 -2.79628 0.000441627)
(-0.0603383 -2.423 0.000526506)
(-0.0688481 -2.06737 0.000600795)
(-0.0760686 -1.72936 0.000663834)
(-0.0819324 -1.40895 0.000715033)
(-0.0864065 -1.10618 0.000754102)
(-0.0894846 -0.821121 0.000780987)
(-0.0913037 -0.553843 0.000796885)
(-0.0919645 -0.304268 0.000802777)
(-0.0919593 -0.0722619 0.00080275)
(-0.091189 0.143265 0.000796039)
(-0.088595 0.341729 0.000773423)
(-0.0844607 0.520911 0.000737354)
(-0.0797124 0.680294 0.000695911)
(-0.0744935 0.819449 0.000650362)
(-0.0689809 0.93803 0.000602247)
(-0.0631809 1.03555 0.000551622)
(-0.0571277 1.11138 0.000498786)
(-0.0508581 1.16475 0.00044406)
(-0.044434 1.19476 0.000387984)
(-0.0379381 1.2003 0.000331281)
(-0.0314748 1.1801 0.00027486)
(-0.0251681 1.13269 0.000219803)
(-0.0191602 1.05632 0.000167353)
(-0.013619 0.948953 0.000118973)
(-0.00872007 0.808159 7.6197e-05)
(-0.00468146 0.631014 4.09261e-05)
(-0.0016877 0.413876 1.47847e-05)
(-6.93643e-05 0.152297 8.69943e-07)
(0.0869455 -44.1247 -0.000758795)
(-0.106752 -42.6591 0.000931611)
(0.218895 -41.6288 -0.00191012)
(0.276234 -38.8789 -0.00241161)
(-0.00599878 -38.3375 5.22669e-05)
(0.463672 -38.7176 -0.00404602)
(0.415652 -27.9247 -0.00362194)
(0.391886 -23.1346 -0.00340347)
(0.378148 -22.1943 -0.00329655)
(0.36496 -20.7899 -0.00318362)
(0.33853 -18.8783 -0.0029542)
(0.311901 -16.7621 -0.00272209)
(0.29049 -14.83 -0.00253532)
(0.275647 -13.293 -0.00240592)
(0.260278 -12.1278 -0.00227187)
(0.242458 -11.2246 -0.00211637)
(0.221485 -10.4807 -0.00193334)
(0.198517 -9.82443 -0.0017329)
(0.174518 -9.21353 -0.00152345)
(0.150524 -8.62651 -0.00131403)
(0.127156 -8.05438 -0.00111008)
(0.104814 -7.49475 -0.000915067)
(0.0836547 -6.94815 -0.000730382)
(0.0637146 -6.41607 -0.000556336)
(0.0449513 -5.9 -0.000392561)
(0.0273011 -5.40105 -0.0002385)
(0.0107025 -4.91993 -9.36186e-05)
(-0.00488466 -4.45701 4.24361e-05)
(-0.0194759 -4.01238 0.000169799)
(-0.0330598 -3.58598 0.000288371)
(-0.0456009 -3.1777 0.000397843)
(-0.057046 -2.78738 0.000497749)
(-0.067329 -2.41486 0.000587513)
(-0.0763782 -2.06005 0.000666512)
(-0.0841264 -1.72289 0.000734156)
(-0.0905183 -1.40335 0.000789963)
(-0.0955337 -1.10145 0.000833756)
(-0.0991819 -0.81721 0.000865618)
(-0.101584 -0.55066 0.000886606)
(-0.102833 -0.301697 0.000897642)
(-0.103232 -0.0701786 0.000901149)
(-0.102655 0.144596 0.000896132)
(-0.100257 0.342119 0.000875221)
(-0.0962232 0.520675 0.000840033)
(-0.0912583 0.679642 0.000796705)
(-0.0855821 0.818503 0.000747167)
(-0.0794204 0.936849 0.000693388)
(-0.0728404 1.03416 0.000635957)
(-0.0659154 1.10982 0.000575511)
(-0.0587112 1.16306 0.000512628)
(-0.0513119 1.19297 0.000448041)
(-0.0438207 1.19845 0.000382649)
(-0.0363618 1.17826 0.000317537)
(-0.0290805 1.13089 0.000253972)
(-0.0221417 1.05462 0.000193394)
(-0.0157393 0.947423 0.000137496)
(-0.0100763 0.806853 8.8048e-05)
(-0.00540553 0.629994 4.72562e-05)
(-0.00194276 0.413207 1.70192e-05)
(-7.70414e-05 0.152049 9.75855e-07)
(0.126327 -44.2004 -0.0011025)
(-0.172255 -42.7114 0.00150328)
(0.32534 -42.1606 -0.00283912)
(0.168247 -38.6956 -0.00146932)
(0.027824 -38.6109 -0.000242761)
(0.421435 -39.1218 -0.00367743)
(0.43615 -28.017 -0.00380079)
(0.396649 -23.1818 -0.00344491)
(0.382336 -22.2474 -0.00333319)
(0.367295 -20.8231 -0.00320407)
(0.340814 -18.8942 -0.0029742)
(0.314203 -16.773 -0.00274225)
(0.292482 -14.8427 -0.00255277)
(0.276695 -13.3047 -0.0024151)
(0.260524 -12.1344 -0.00227403)
(0.242189 -11.225 -0.00211403)
(0.220979 -10.4756 -0.00192894)
(0.197894 -9.81526 -0.00172747)
(0.173798 -9.20174 -0.00151717)
(0.149645 -8.61324 -0.00130637)
(0.126025 -8.04043 -0.00110021)
(0.103328 -7.48062 -0.000902105)
(0.0817239 -6.93413 -0.000713536)
(0.0612644 -6.40231 -0.000534958)
(0.0419267 -5.88659 -0.000366169)
(0.0236647 -5.38804 -0.000206769)
(0.00643256 -4.90737 -5.63578e-05)
(-0.0097968 -4.44495 8.53016e-05)
(-0.0250278 -4.00086 0.000218248)
(-0.03924 -3.57507 0.000342304)
(-0.0523913 -3.16746 0.000457102)
(-0.0644239 -2.77785 0.000562136)
(-0.0752701 -2.40612 0.000656817)
(-0.0848591 -2.05214 0.000740526)
(-0.0931276 -1.71585 0.000812711)
(-0.100026 -1.39719 0.000872944)
(-0.105541 -1.09616 0.000921092)
(-0.109684 -0.812749 0.000957276)
(-0.112555 -0.546948 0.00098235)
(-0.114223 -0.298655 0.000997062)
(-0.114863 -0.0677394 0.00100267)
(-0.114338 0.146226 0.00099811)
(-0.112001 0.342794 0.000977743)
(-0.107967 0.520626 0.000942549)
(-0.102761 0.679061 0.000897123)
(-0.0966347 0.817527 0.000843657)
(-0.0898401 0.935559 0.000784356)
(-0.0824944 1.03262 0.000720242)
(-0.0747069 1.10807 0.00065227)
(-0.0665731 1.16114 0.000581273)
(-0.0582009 1.19093 0.000508193)
(-0.0497146 1.19635 0.000434115)
(-0.0412594 1.17615 0.000360306)
(-0.0330022 1.12884 0.000288222)
(-0.0251309 1.05269 0.000219503)
(-0.0178656 0.945671 0.000156071)
(-0.0114367 0.805358 9.9935e-05)
(-0.0061321 0.628827 5.36081e-05)
(-0.00219911 0.412442 1.92651e-05)
(-8.50106e-05 0.151768 1.08458e-06)
(0.159115 -44.2774 -0.00138867)
(-0.22478 -42.7953 0.00196168)
(0.412004 -42.6564 -0.00359555)
(0.0274441 -38.4358 -0.000240585)
(0.0636161 -38.9287 -0.00055495)
(0.358404 -39.5274 -0.00312742)
(0.453743 -28.1362 -0.00395417)
(0.398599 -23.2287 -0.00346172)
(0.385104 -22.2995 -0.00335744)
(0.368015 -20.856 -0.00321044)
(0.341247 -18.9105 -0.00297805)
(0.314213 -16.7842 -0.0027424)
(0.291985 -14.8549 -0.00254848)
(0.27515 -13.3156 -0.00240164)
(0.258181 -12.1404 -0.00225359)
(0.239345 -11.225 -0.00208922)
(0.217962 -10.4702 -0.00190261)
(0.194864 -9.80593 -0.00170102)
(0.17082 -9.18978 -0.00149118)
(0.146686 -8.59974 -0.00128054)
(0.123007 -8.02615 -0.00107387)
(0.100146 -7.46605 -0.000874337)
(0.0782717 -6.91958 -0.000683409)
(0.0574437 -6.38797 -0.000501616)
(0.0376549 -5.87254 -0.00032889)
(0.0188767 -5.37437 -0.000164986)
(0.00108158 -4.89412 -9.66121e-06)
(-0.0157405 -4.43218 0.000137171)
(-0.0315785 -3.98865 0.000275415)
(-0.0463986 -3.56347 0.000404777)
(-0.0601476 -3.15654 0.000524792)
(-0.0727592 -2.76768 0.000634879)
(-0.0841599 -2.39675 0.0007344)
(-0.0942763 -2.04363 0.000822713)
(-0.103044 -1.70822 0.000899258)
(-0.110416 -1.39047 0.000963621)
(-0.116377 -1.09033 0.00101566)
(-0.120935 -0.807772 0.00105547)
(-0.124164 -0.542762 0.00108368)
(-0.126111 -0.295207 0.00110084)
(-0.126863 -0.0649994 0.00110743)
(-0.126286 0.148102 0.00110241)
(-0.123898 0.343701 0.00108159)
(-0.119762 0.520735 0.00104552)
(-0.114273 0.67854 0.000997616)
(-0.107684 0.81652 0.000940116)
(-0.100259 0.934166 0.000875315)
(-0.092153 1.03091 0.000804568)
(-0.0835076 1.1061 0.000729108)
(-0.0744467 1.15898 0.000650019)
(-0.0651022 1.18864 0.000568453)
(-0.0556203 1.19399 0.000485685)
(-0.0461677 1.17377 0.000403168)
(-0.036933 1.12652 0.000322551)
(-0.0281275 1.05051 0.000245677)
(-0.0199976 0.943699 0.000174695)
(-0.012801 0.803672 0.000111857)
(-0.00686125 0.627511 5.99826e-05)
(-0.0024569 0.41158 2.15235e-05)
(-9.3296e-05 0.151451 1.19639e-06)
(0.179586 -44.3556 -0.00156733)
(-0.253858 -42.9081 0.00221547)
(0.460485 -43.0533 -0.00401879)
(-0.122376 -38.1224 0.00106693)
(0.0933115 -39.2805 -0.000813913)
(0.284625 -39.9341 -0.00248358)
(0.46533 -28.2865 -0.00405509)
(0.3982 -23.2749 -0.00345808)
(0.385989 -22.3491 -0.00336527)
(0.366546 -20.8868 -0.00319772)
(0.339114 -18.9255 -0.00295951)
(0.311252 -16.7942 -0.00271662)
(0.288375 -14.8656 -0.00251702)
(0.270511 -13.3249 -0.00236118)
(0.252886 -12.1451 -0.00220739)
(0.233719 -11.2241 -0.00204012)
(0.212356 -10.4644 -0.00185368)
(0.189441 -9.79636 -0.0016537)
(0.165652 -9.17764 -0.00144607)
(0.141736 -8.58603 -0.00123734)
(0.118187 -8.0116 -0.0010318)
(0.0953356 -7.45113 -0.000832351)
(0.0733432 -6.90459 -0.000640396)
(0.0522757 -6.37308 -0.000456513)
(0.0321408 -5.85789 -0.000280768)
(0.0129289 -5.36003 -0.000113079)
(-0.00536696 -4.88018 4.66155e-05)
(-0.0227363 -4.4187 0.000198224)
(-0.0391488 -3.97571 0.000341482)
(-0.0545534 -3.55115 0.000475946)
(-0.0688822 -3.14492 0.000601021)
(-0.0820569 -2.75683 0.000716023)
(-0.093995 -2.38674 0.000820234)
(-0.104617 -2.0345 0.000912957)
(-0.113854 -1.70001 0.000993597)
(-0.121656 -1.38319 0.00106171)
(-0.128002 -1.08397 0.00111712)
(-0.132895 -0.802311 0.00115985)
(-0.136382 -0.538148 0.00119031)
(-0.138489 -0.291406 0.00120889)
(-0.139248 -0.0620002 0.00121554)
(-0.138534 0.150185 0.00120933)
(-0.135994 0.344795 0.00118719)
(-0.131663 0.520971 0.00114941)
(-0.125836 0.678065 0.00109857)
(-0.118759 0.815478 0.00103681)
(-0.110695 0.932667 0.000966429)
(-0.101827 1.02904 0.000889031)
(-0.0923236 1.10394 0.00080608)
(-0.0823353 1.1566 0.000718896)
(-0.0720174 1.18609 0.000628834)
(-0.0615385 1.19136 0.000537363)
(-0.0510867 1.17113 0.000446124)
(-0.0408728 1.12395 0.000356959)
(-0.0311313 1.04808 0.000271913)
(-0.0221351 0.941504 0.000193368)
(-0.0141694 0.801797 0.000123814)
(-0.00759301 0.626046 6.63797e-05)
(-0.00271616 0.410621 2.37948e-05)
(-0.000101891 0.151099 1.31122e-06)
(0.182567 -44.4357 -0.00159334)
(-0.251593 -43.0432 0.0021957)
(0.458804 -43.3037 -0.00400427)
(-0.256051 -37.7916 0.00223361)
(0.108503 -39.6514 -0.000946302)
(0.212142 -40.3434 -0.00185104)
(0.465786 -28.4695 -0.00405882)
(0.393455 -23.3243 -0.00341665)
(0.383057 -22.3972 -0.0033398)
(0.361527 -20.9153 -0.00315403)
(0.33342 -18.9389 -0.00290989)
(0.304744 -16.8027 -0.00265989)
(0.281365 -14.8747 -0.00245589)
(0.262724 -13.3327 -0.00229324)
(0.244734 -12.1487 -0.00213625)
(0.225499 -11.2226 -0.00196838)
(0.204394 -10.4583 -0.00178419)
(0.181874 -9.78661 -0.00158765)
(0.158529 -9.16539 -0.0013839)
(0.135002 -8.57218 -0.00117856)
(0.111737 -7.99682 -0.000975503)
(0.0890312 -7.43588 -0.000777326)
(0.0670383 -6.88917 -0.000585368)
(0.0458296 -6.35768 -0.000400253)
(0.0254281 -5.84263 -0.000222183)
(0.00584502 -5.34503 -5.12554e-05)
(-0.0129038 -4.86553 0.000112391)
(-0.0307843 -4.40449 0.000268461)
(-0.047744 -3.96203 0.000416494)
(-0.0637114 -3.5381 0.000555869)
(-0.0786005 -3.13258 0.000685836)
(-0.0923186 -2.74529 0.00080558)
(-0.104771 -2.37606 0.000914281)
(-0.115869 -2.02474 0.00101116)
(-0.125537 -1.69121 0.00109557)
(-0.13372 -1.37536 0.00116701)
(-0.140389 -1.07711 0.00122524)
(-0.145536 -0.796398 0.00127018)
(-0.149189 -0.533146 0.00130209)
(-0.151352 -0.287294 0.00132117)
(-0.152027 -0.0587758 0.0013271)
(-0.151105 0.152442 0.00131907)
(-0.148326 0.346037 0.00129484)
(-0.143711 0.521302 0.00125458)
(-0.137489 0.677618 0.00120029)
(-0.129889 0.814392 0.00113397)
(-0.121167 0.931061 0.00105786)
(-0.111528 1.02701 0.000973728)
(-0.101162 1.10158 0.000883244)
(-0.0902424 1.15398 0.000787935)
(-0.0789484 1.1833 0.000689353)
(-0.0674699 1.18847 0.000589157)
(-0.0560166 1.16823 0.000489175)
(-0.0448213 1.12112 0.000391443)
(-0.034142 1.04541 0.00029821)
(-0.0242778 0.939086 0.000212086)
(-0.0155415 0.79973 0.000135804)
(-0.00832729 0.624431 7.2799e-05)
(-0.00297686 0.409565 2.60787e-05)
(-0.000110774 0.150713 1.42889e-06)
(0.166719 -44.5181 -0.00145503)
(-0.216486 -43.1869 0.00188933)
(0.402342 -43.3791 -0.00351168)
(-0.353437 -37.4777 0.00308366)
(0.104022 -40.0237 -0.000907036)
(0.151141 -40.7532 -0.00131868)
(0.453067 -28.6796 -0.00394762)
(0.383955 -23.378 -0.00333411)
(0.375252 -22.4432 -0.00327181)
(0.35204 -20.9409 -0.00307136)
(0.323339 -18.9501 -0.00282198)
(0.294113 -16.8094 -0.00256715)
(0.27057 -14.882 -0.00236171)
(0.2516 -13.3389 -0.00219617)
(0.233675 -12.1513 -0.00203973)
(0.214753 -11.2205 -0.00187459)
(0.194225 -10.4518 -0.00169543)
(0.172357 -9.77673 -0.00150458)
(0.149666 -9.15306 -0.00130654)
(0.126696 -8.55822 -0.00110606)
(0.103849 -7.98185 -0.000906658)
(0.0813969 -7.42033 -0.000710692)
(0.0594889 -6.87333 -0.000519477)
(0.0382054 -6.34175 -0.000333711)
(0.0175885 -5.82677 -0.000153762)
(-0.00232745 -5.32935 2.00698e-05)
(-0.0215003 -4.85015 0.000187416)
(-0.0398698 -4.38953 0.000347753)
(-0.0573583 -3.94759 0.000500402)
(-0.0738713 -3.52429 0.000644539)
(-0.0893029 -3.1195 0.00077924)
(-0.103543 -2.73303 0.000903541)
(-0.116483 -2.3647 0.0010165)
(-0.128024 -2.01435 0.00111725)
(-0.138082 -1.68182 0.00120505)
(-0.146592 -1.36699 0.00127935)
(-0.153518 -1.06977 0.00133982)
(-0.158842 -0.790061 0.00138631)
(-0.162572 -0.527792 0.0014189)
(-0.164702 -0.282906 0.00143771)
(-0.165213 -0.0553552 0.0014422)
(-0.164013 0.154842 0.00143176)
(-0.160916 0.347393 0.00140475)
(-0.155938 0.521701 0.00136132)
(-0.14926 0.677179 0.00130306)
(-0.141095 0.813251 0.00123181)
(-0.131692 0.929339 0.00114974)
(-0.121267 1.02482 0.00105875)
(-0.110028 1.09901 0.000960657)
(-0.0981718 1.15113 0.00085717)
(-0.0858972 1.18025 0.000750027)
(-0.0734154 1.18531 0.000641074)
(-0.0609576 1.16506 0.000532324)
(-0.0487786 1.11802 0.000426004)
(-0.0371594 1.04249 0.000324565)
(-0.0264256 0.936446 0.000230849)
(-0.0169172 0.797473 0.000147825)
(-0.00906399 0.622667 7.92395e-05)
(-0.00323893 0.40841 2.83745e-05)
(-0.000119918 0.150291 1.54912e-06)
(0.133867 -44.6037 -0.00116832)
(-0.153425 -43.3216 0.00133897)
(0.300147 -43.2757 -0.00261996)
(-0.400865 -37.2149 0.00349776)
(0.0795219 -40.3797 -0.000693129)
(0.108917 -41.1599 -0.000950144)
(0.426801 -28.9089 -0.00371835)
(0.368859 -23.437 -0.00320305)
(0.361416 -22.4872 -0.00315128)
(0.337236 -20.9634 -0.00294229)
(0.308256 -18.9589 -0.00269042)
(0.279069 -16.8142 -0.0024359)
(0.255933 -14.8877 -0.00223398)
(0.237272 -13.344 -0.00207112)
(0.219953 -12.1531 -0.00191997)
(0.201798 -11.218 -0.00176152)
(0.182189 -10.4453 -0.00159037)
(0.161232 -9.76685 -0.00140747)
(0.139381 -9.14072 -0.00121677)
(0.117102 -8.54419 -0.00102232)
(0.0947697 -7.9667 -0.000827408)
(0.0726361 -7.40448 -0.000634226)
(0.050857 -6.85706 -0.000444137)
(0.0295273 -6.32528 -0.00025797)
(0.00871245 -5.81026 -7.62945e-05)
(-0.0115257 -5.31296 0.000100348)
(-0.0311157 -4.83401 0.000271335)
(-0.0499686 -4.37378 0.00043589)
(-0.067979 -3.93235 0.000593094)
(-0.0850278 -3.50969 0.000741907)
(-0.100987 -3.10566 0.000881213)
(-0.115728 -2.72005 0.00100989)
(-0.129128 -2.35266 0.00112686)
(-0.141075 -2.00332 0.00123115)
(-0.151476 -1.67184 0.00132195)
(-0.160258 -1.3581 0.00139862)
(-0.167374 -1.06196 0.00146076)
(-0.172799 -0.783329 0.00150813)
(-0.176526 -0.522115 0.00154069)
(-0.17854 -0.278272 0.00155851)
(-0.178814 -0.0517641 0.00156093)
(-0.177272 0.157361 0.0015475)
(-0.173785 0.348832 0.00151709)
(-0.168368 0.52214 0.00146984)
(-0.161174 0.676728 0.00140706)
(-0.152399 0.812041 0.00133049)
(-0.142284 0.927495 0.00124221)
(-0.131053 1.02246 0.0011442)
(-0.118929 1.09624 0.00103837)
(-0.106127 1.14804 0.000926631)
(-0.0928656 1.17695 0.000810873)
(-0.079376 1.1819 0.000693122)
(-0.06591 1.16162 0.000575572)
(-0.0527445 1.11467 0.000460639)
(-0.0401833 1.03933 0.000350977)
(-0.0285781 0.933582 0.000249653)
(-0.0182964 0.795024 0.000159876)
(-0.00980298 0.620754 8.56999e-05)
(-0.00350227 0.407158 3.06815e-05)
(-0.000129294 0.149833 1.67166e-06)
(0.0913195 -44.6927 -0.000796978)
(-0.0765311 -43.4326 0.0006679)
(0.179593 -43.0203 -0.00156799)
(-0.397356 -37.0195 0.00346733)
(0.0405485 -40.7067 -0.000352983)
(0.0875735 -41.5564 -0.000763803)
(0.389473 -29.1458 -0.00339275)
(0.348173 -23.5002 -0.00302351)
(0.341277 -22.5286 -0.00297575)
(0.31685 -20.9823 -0.00276453)
(0.288021 -18.9652 -0.00251388)
(0.259644 -16.8174 -0.00226639)
(0.237622 -14.8923 -0.00207418)
(0.220022 -13.3482 -0.00192057)
(0.203915 -12.1544 -0.00177999)
(0.187016 -11.2154 -0.00163249)
(0.168674 -10.4388 -0.00147241)
(0.148874 -9.75706 -0.00129961)
(0.128023 -9.12843 -0.00111762)
(0.106532 -8.5301 -0.000930062)
(0.0847645 -7.95136 -0.000740078)
(0.0629696 -7.38829 -0.000549855)
(0.0413192 -6.84031 -0.000360891)
(0.019931 -6.30822 -0.000174215)
(-0.0010998 -5.79307 9.34407e-06)
(-0.0216795 -5.29581 0.000188966)
(-0.041704 -4.81707 0.000363744)
(-0.0610527 -4.35719 0.000532626)
(-0.079591 -3.91628 0.000694437)
(-0.0971737 -3.49428 0.000847911)
(-0.11365 -3.09103 0.000991732)
(-0.128873 -2.70632 0.00112461)
(-0.142704 -2.33993 0.00124534)
(-0.155018 -1.99165 0.00135285)
(-0.165714 -1.66129 0.00144621)
(-0.174709 -1.34869 0.00152475)
(-0.181949 -1.05371 0.00158797)
(-0.187401 -0.776227 0.00163558)
(-0.191048 -0.516144 0.00166744)
(-0.192869 -0.273421 0.00168359)
(-0.192835 -0.0480266 0.00168334)
(-0.19089 0.159972 0.00166638)
(-0.186943 0.350328 0.00163196)
(-0.181018 0.522593 0.00158027)