/*--------------------------------*- C++ -*----------------------------------*\
| =========                 |                                                 |
| \\      /  F ield         | OpenFOAM: The Open Source CFD Toolbox           |
|  \\    /   O peration     | Version:  v2012                                 |
|   \\  /    A nd           | Website:  www.openfoam.com                      |
|    \\/     M anipulation  |                                                 |
\*---------------------------------------------------------------------------*/
FoamFile
{
    version     2.0;
    format      ascii;
    class       volScalarField;
    location    "0.2";
    object      alpha.water;
}
// * * * * * * * * * * * * * * * * * * * * * * * * * * * * * * * * * * * * * //

dimensions      [0 0 0 0 0 0 0];


internalField   nonuniform List<scalar> 
15860
(
-1.60335e-147
-1.12498e-141
-4.34396e-136
-1.14565e-131
-9.12585e-130
-5.93157e-129
-9.34955e-129
-6.03619e-129
-1.76905e-129
-1.89589e-130
-1.50668e-131
-1.20065e-132
-4.74158e-134
-1.90688e-135
-6.08767e-137
-1.11357e-137
-2.48079e-133
-4.77055e-129
-1.96259e-124
-9.56976e-120
-8.01989e-115
-1.11577e-109
-2.18928e-105
-3.62735e-97
-1.34066e-97
-2.36942e-98
-2.66107e-99
-2.12985e-100
-1.29168e-101
-6.16501e-103
-2.37494e-104
-7.5171e-106
-1.98069e-107
-4.38766e-109
-8.23323e-111
-1.31618e-112
-1.79043e-114
-2.10245e-116
-2.12354e-118
-1.8473e-120
-1.38354e-122
-8.91415e-125
-4.92925e-127
-2.33276e-129
-9.41613e-132
-3.22888e-134
-9.39465e-137
-2.3309e-139
-5.04547e-142
-1.00595e-144
-1.98653e-147
-3.95485e-150
-7.32523e-153
-1.13024e-155
-1.33379e-158
-1.12804e-161
-6.39762e-165
-2.22116e-168
-4.03118e-172
-2.59435e-176
-3.00821e-145
-9.66367e-139
-2.06449e-133
-2.9981e-129
-1.67619e-127
-8.55213e-127
-1.14311e-126
-6.57475e-127
-1.72414e-127
-1.63371e-128
-1.24583e-129
-9.4879e-131
-3.49434e-132
-1.34986e-133
-4.14298e-135
-3.843e-136
-7.06898e-132
-1.35503e-127
-5.50393e-123
-2.6351e-118
-2.27653e-113
-4.20706e-108
-5.98767e-104
-1.81178e-95
-6.61145e-96
-1.15514e-96
-1.284e-97
-1.01817e-98
-6.1232e-100
-2.90033e-101
-1.10954e-102
-3.48935e-104
-9.1387e-106
-2.01274e-107
-3.75553e-109
-5.97014e-111
-8.07601e-113
-9.43093e-115
-9.47428e-117
-8.20017e-119
-6.11398e-121
-3.92468e-123
-2.16437e-125
-1.02264e-127
-4.12525e-130
-1.41414e-132
-4.10641e-135
-1.00973e-137
-2.12438e-140
-3.95512e-143
-6.9486e-146
-1.21868e-148
-2.0722e-151
-3.07526e-154
-3.58621e-157
-3.03127e-160
-1.72352e-163
-5.99007e-167
-1.0812e-170
-6.75928e-175
-2.6639e-144
-4.88542e-137
-8.98158e-131
-7.22573e-127
-2.9233e-125
-1.1716e-124
-1.33777e-124
-7.01766e-125
-1.62135e-125
-1.38052e-126
-9.94302e-128
-7.12683e-129
-2.48717e-130
-9.20358e-132
-2.72095e-133
-1.47203e-134
-1.90323e-130
-3.63279e-126
-1.46048e-121
-6.86626e-117
-6.18293e-112
-1.58999e-106
-1.55653e-102
-8.88216e-94
-3.20276e-94
-5.53659e-95
-6.09622e-96
-4.79357e-97
-2.86132e-98
-1.3463e-99
-5.11973e-101
-1.60144e-102
-4.17359e-104
-9.14979e-106
-1.69972e-107
-2.69035e-109
-3.62355e-111
-4.21303e-113
-4.214e-115
-3.63192e-117
-2.69738e-119
-1.72569e-121
-9.49221e-124
-4.47758e-126
-1.80499e-128
-6.18751e-131
-1.79598e-133
-4.39856e-136
-9.11171e-139
-1.62427e-141
-2.60628e-144
-4.02199e-147
-6.10907e-150
-8.50002e-153
-9.65498e-156
-8.09708e-159
-4.59345e-162
-1.5894e-165
-2.82626e-169
-1.69064e-173
-4.96698e-141
-3.68874e-134
-3.5859e-128
-1.61517e-124
-4.83121e-123
-1.52806e-122
-1.48993e-122
-7.19725e-123
-1.45503e-123
-1.13017e-124
-7.62287e-126
-5.04171e-127
-1.71012e-128
-6.06351e-130
-1.73368e-131
-6.45684e-133
-4.82277e-129
-9.16176e-125
-3.65638e-120
-1.68917e-115
-1.60628e-110
-6.0224e-105
-3.83897e-101
-4.27176e-92
-1.52335e-92
-2.60776e-93
-2.84673e-94
-2.22161e-95
-1.31738e-96
-6.16292e-98
-2.33188e-99
-7.26197e-101
-1.88519e-102
-4.11834e-104
-7.62541e-106
-1.20315e-107
-1.61539e-109
-1.87217e-111
-1.86648e-113
-1.60339e-115
-1.18703e-117
-7.57239e-120
-4.15536e-122
-1.95691e-124
-7.88248e-127
-2.70212e-129
-7.84497e-132
-1.9188e-134
-3.9445e-137
-6.85625e-140
-1.03384e-142
-1.42845e-145
-1.90878e-148
-2.41804e-151
-2.61984e-154
-2.15624e-157
-1.21335e-160
-4.16072e-164
-7.24718e-168
-4.12648e-172
-1.04666e-137
-2.33828e-131
-1.3064e-125
-3.3904e-122
-7.55119e-121
-1.90067e-120
-1.57401e-120
-7.06908e-121
-1.24629e-121
-8.92313e-123
-5.62246e-124
-3.44138e-125
-1.12922e-126
-3.85098e-128
-1.06517e-129
-3.1765e-131
-1.14851e-127
-2.16968e-123
-8.61477e-119
-3.9157e-114
-3.99274e-109
-2.28465e-103
-8.96731e-100
-2.01454e-90
-7.1106e-91
-1.20635e-91
-1.30668e-92
-1.01292e-93
-5.97204e-95
-2.78017e-96
-1.04759e-97
-3.25103e-99
-8.41461e-101
-1.83358e-102
-3.3874e-104
-5.33363e-106
-7.14664e-108
-8.2656e-110
-8.22261e-112
-7.04747e-114
-5.20531e-116
-3.31313e-118
-1.81448e-120
-8.53216e-123
-3.43385e-125
-1.17699e-127
-3.4185e-130
-8.36105e-133
-1.71322e-135
-2.93792e-138
-4.26238e-141
-5.42048e-144
-6.39814e-147
-7.1985e-150
-7.23981e-153
-5.7527e-156
-3.18449e-159
-1.07707e-162
-1.8307e-166
-9.89398e-171
-4.57858e-135
-1.17524e-128
-4.35778e-123
-6.68873e-120
-1.11402e-118
-2.26177e-118
-1.57749e-118
-6.5945e-119
-1.01774e-119
-6.77055e-121
-3.99574e-122
-2.25291e-123
-7.21281e-125
-2.35064e-126
-6.30558e-128
-1.66192e-129
-2.56987e-126
-4.81885e-122
-1.90485e-117
-8.53233e-113
-9.49624e-108
-8.66744e-102
-1.97956e-98
-9.30987e-89
-3.2552e-89
-5.47772e-90
-5.89197e-91
-4.54046e-92
-2.66381e-93
-1.23506e-94
-4.63844e-96
-1.43566e-97
-3.70819e-99
-8.06716e-101
-1.48843e-102
-2.34111e-104
-3.13386e-106
-3.62097e-108
-3.59823e-110
-3.08017e-112
-2.27187e-114
-1.44388e-116
-7.89617e-119
-3.70847e-121
-1.49133e-123
-5.1106e-126
-1.48486e-128
-3.63337e-131
-7.43781e-134
-1.26712e-136
-1.79821e-139
-2.16351e-142
-2.30386e-145
-2.27941e-148
-2.06774e-151
-1.55014e-154
-8.33721e-158
-2.76436e-161
-4.5706e-165
-2.34145e-169
-4.90591e-132
-4.79314e-126
-1.33332e-120
-1.24127e-117
-1.54701e-116
-2.55807e-116
-1.50537e-116
-5.77107e-117
-7.89344e-118
-4.92599e-119
-2.71992e-120
-1.41087e-121
-4.44585e-123
-1.37458e-124
-3.58221e-126
-8.79369e-128
-5.41025e-125
-1.00284e-120
-3.94245e-116
-1.74371e-111
-2.16193e-106
-3.28192e-100
-4.12083e-97
-4.2133e-87
-1.46059e-87
-2.4398e-88
-2.60808e-89
-1.99955e-90
-1.16824e-91
-5.3987e-93
-2.02249e-94
-6.24846e-96
-1.6119e-97
-3.50399e-99
-6.46244e-101
-1.01631e-102
-1.36044e-104
-1.57194e-106
-1.562e-108
-1.33683e-110
-9.85613e-113
-6.26017e-115
-3.42094e-117
-1.60544e-119
-6.4524e-122
-2.21068e-124
-6.42455e-127
-1.57293e-129
-3.22018e-132
-5.47074e-135
-7.67305e-138
-8.92479e-141
-8.81906e-144
-7.74856e-147
-6.20938e-150
-4.27049e-153
-2.19124e-156
-7.05943e-160
-1.1314e-163
-5.49268e-168
-1.11652e-129
-2.08427e-123
-3.76072e-118
-2.16918e-115
-2.02606e-114
-2.75329e-114
-1.36866e-114
-4.74623e-115
-5.82033e-116
-3.44896e-117
-1.7802e-118
-8.41867e-120
-2.63717e-121
-7.76526e-123
-1.96626e-124
-4.57854e-126
-1.07318e-123
-1.95299e-119
-7.61669e-115
-3.33375e-110
-4.71291e-105
-1.23667e-98
-8.0699e-96
-1.86574e-85
-6.41828e-86
-1.06515e-86
-1.13246e-87
-8.64444e-89
-5.03337e-90
-2.32017e-91
-8.67685e-93
-2.67787e-94
-6.90483e-96
-1.50103e-97
-2.76954e-99
-4.35853e-101
-5.83959e-103
-6.75389e-105
-6.71738e-107
-5.75361e-109
-4.24442e-111
-2.69669e-113
-1.4737e-115
-6.91509e-118
-2.77869e-120
-9.51945e-123
-2.76705e-125
-6.77801e-128
-1.38826e-130
-2.35644e-133
-3.28597e-136
-3.74916e-139
-3.52808e-142
-2.81994e-145
-1.98938e-148
-1.22212e-151
-5.83809e-155
-1.80305e-158
-2.78648e-162
-1.28213e-166
-8.88001e-127
-8.79103e-121
-9.77438e-116
-3.54341e-113
-2.49101e-112
-2.82791e-112
-1.18651e-112
-3.74273e-113
-4.07817e-114
-2.324e-115
-1.11918e-116
-4.79615e-118
-1.49847e-119
-4.23188e-121
-1.03974e-122
-2.31416e-124
-1.99492e-122
-3.55528e-118
-1.36992e-113
-5.94722e-109
-9.842e-104
-4.61947e-97
-1.48319e-94
-8.07661e-84
-2.75978e-84
-4.55412e-85
-4.81962e-86
-3.66569e-87
-2.12872e-88
-9.79491e-90
-3.65934e-91
-1.12899e-92
-2.91191e-94
-6.33515e-96
-1.17029e-97
-1.84449e-99
-2.4755e-101
-2.8683e-103
-2.85801e-105
-2.4522e-107
-1.81175e-109
-1.15252e-111
-6.30412e-114
-2.95986e-116
-1.18978e-118
-4.07703e-121
-1.18544e-123
-2.90511e-126
-5.95336e-129
-1.01049e-131
-1.40543e-134
-1.587e-137
-1.44992e-140
-1.08411e-143
-6.83638e-147
-3.69483e-150
-1.59845e-153
-4.64151e-157
-6.85793e-161
-2.98807e-165
-8.2217e-125
-3.57501e-118
-2.34181e-113
-5.38813e-111
-2.85816e-110
-2.74803e-110
-9.75082e-111
-2.79331e-111
-2.7121e-112
-1.49286e-113
-6.70554e-115
-2.62591e-116
-8.15782e-118
-2.22089e-119
-5.2856e-121
-1.12804e-122
-3.40696e-121
-6.035e-117
-2.28734e-112
-9.87068e-108
-1.96937e-102
-1.70222e-95
-2.55342e-93
-3.41417e-82
-1.16e-82
-1.90515e-83
-2.0086e-84
-1.52335e-85
-8.82918e-87
-4.05815e-88
-1.51564e-89
-4.67791e-91
-1.20773e-92
-2.63152e-94
-4.87058e-96
-7.69373e-98
-1.03515e-99
-1.20253e-101
-1.20142e-103
-1.03352e-105
-7.65452e-108
-4.87986e-110
-2.67403e-112
-1.25725e-114
-5.05898e-117
-1.73483e-119
-5.04701e-122
-1.2375e-124
-2.53733e-127
-4.30792e-130
-5.98545e-133
-6.72263e-136
-6.03867e-139
-4.32531e-142
-2.5026e-145
-1.19405e-148
-4.57266e-152
-1.21779e-155
-1.69697e-159
-6.97906e-164
-8.07869e-122
-1.40572e-115
-5.14734e-111
-7.64637e-109
-3.05651e-108
-2.51617e-108
-7.58449e-109
-1.96124e-109
-1.72035e-110
-9.06975e-112
-3.80778e-113
-1.39375e-114
-4.26035e-116
-1.12332e-117
-2.579e-119
-5.28303e-121
-5.30007e-120
-9.45107e-116
-3.53497e-111
-1.51913e-106
-3.77547e-101
-6.1532e-94
-4.11593e-92
-1.40761e-80
-4.76082e-81
-7.78982e-82
-8.18899e-83
-6.19794e-84
-3.58794e-85
-1.64848e-86
-6.15902e-88
-1.90296e-89
-4.92126e-91
-1.07465e-92
-1.99426e-94
-3.1595e-96
-4.26457e-98
-4.97082e-100
-4.9833e-102
-4.30156e-104
-3.19633e-106
-2.0439e-108
-1.12301e-110
-5.29197e-113
-2.13322e-115
-7.32511e-118
-2.13313e-120
-5.23423e-123
-1.07384e-125
-1.82391e-128
-2.53334e-131
-2.83769e-134
-2.52502e-137
-1.76212e-140
-9.60856e-144
-4.12854e-147
-1.38789e-150
-3.30479e-154
-4.25909e-158
-1.64146e-162
-5.87827e-120
-5.6917e-113
-1.04075e-108
-1.01771e-106
-3.06078e-106
-2.16544e-106
-5.55912e-107
-1.30707e-107
-1.04515e-108
-5.29152e-110
-2.10013e-111
-7.29932e-113
-2.13254e-114
-5.44522e-116
-1.20412e-117
-2.37117e-119
-7.49277e-119
-1.33818e-114
-5.03961e-110
-2.15972e-105
-6.9299e-100
-2.16915e-92
-6.23918e-91
-5.65217e-79
-1.90537e-79
-3.1094e-80
-3.2624e-81
-2.46623e-82
-1.42706e-83
-6.55873e-85
-2.45303e-86
-7.59221e-88
-1.968e-89
-4.30983e-91
-8.02421e-93
-1.27588e-94
-1.72884e-96
-2.02333e-98
-2.03687e-100
-1.76556e-102
-1.31728e-104
-8.45591e-107
-4.66246e-109
-2.20391e-111
-8.90711e-114
-3.06486e-116
-8.93903e-119
-2.1959e-121
-4.50864e-124
-7.66164e-127
-1.06417e-129
-1.19039e-132
-1.05369e-135
-7.24183e-139
-3.80185e-142
-1.51127e-145
-4.50523e-149
-9.4279e-153
-1.09749e-156
-3.91343e-161
-5.45948e-117
-2.18687e-110
-1.93904e-106
-1.27469e-104
-2.89919e-104
-1.75231e-104
-3.87315e-105
-8.18585e-106
-6.03536e-107
-2.941e-108
-1.10731e-109
-3.66398e-111
-1.02266e-112
-2.51784e-114
-5.35769e-116
-1.01729e-117
-9.70544e-118
-1.72617e-113
-6.6019e-109
-2.82358e-104
-1.21607e-98
-7.41404e-91
-9.05327e-90
-2.20701e-77
-7.42547e-78
-1.21003e-78
-1.26844e-79
-9.58627e-81
-5.54912e-82
-2.55306e-83
-9.56521e-85
-2.9675e-86
-7.715e-88
-1.69545e-89
-3.16907e-91
-5.06042e-93
-6.88812e-95
-8.09956e-97
-8.19335e-99
-7.13674e-101
-5.35034e-103
-3.45041e-105
-1.91073e-107
-9.06725e-110
-3.67701e-112
-1.26881e-114
-3.70887e-117
-9.12603e-120
-1.8759e-122
-3.18998e-125
-4.43165e-128
-4.95381e-131
-4.37184e-134
-2.97793e-137
-1.52738e-140
-5.75938e-144
-1.55844e-147
-2.86361e-151
-2.94718e-155
-9.54624e-160
-2.01663e-114
-7.74406e-108
-3.32441e-104
-1.49158e-102
-2.5912e-102
-1.31959e-102
-2.55836e-103
-4.83293e-104
-3.29027e-105
-1.55117e-106
-5.552e-108
-1.76252e-109
-4.68864e-111
-1.10596e-112
-2.26477e-114
-4.15313e-116
-1.1715e-116
-2.0475e-112
-7.90925e-108
-3.37698e-103
-2.0352e-97
-2.44352e-89
-1.32285e-88
-8.3655e-76
-2.81325e-76
-4.58378e-77
-4.80642e-78
-3.63519e-79
-2.10696e-80
-9.71173e-82
-3.64745e-83
-1.13502e-84
-2.96147e-86
-6.53491e-88
-1.22702e-89
-1.96887e-91
-2.69382e-93
-3.18458e-95
-3.2392e-97
-2.83716e-99
-2.1387e-101
-1.38661e-103
-7.71755e-106
-3.67946e-108
-1.49837e-110
-5.189e-113
-1.52129e-115
-3.75184e-118
-7.72471e-121
-1.31495e-123
-1.82759e-126
-2.04228e-129
-1.79913e-132
-1.21894e-135
-6.16416e-139
-2.247e-142
-5.66861e-146
-9.29315e-150
-8.3697e-154
-2.41239e-158
-9.50698e-112
-2.47849e-105
-5.2397e-102
-1.61711e-100
-2.19401e-100
-9.39689e-101
-1.61254e-101
-2.71704e-102
-1.70891e-103
-7.75593e-105
-2.65275e-106
-8.05313e-108
-2.0466e-109
-4.61745e-111
-9.09152e-113
-1.61222e-114
-1.41101e-115
-2.22819e-111
-8.61537e-107
-3.67178e-102
-3.2362e-96
-7.72675e-88
-2.16222e-87
-3.07229e-74
-1.03433e-74
-1.68749e-75
-1.77221e-76
-1.34288e-77
-7.80101e-79
-3.60553e-80
-1.35848e-81
-4.24306e-83
-1.11178e-84
-2.46489e-86
-4.65191e-88
-7.5051e-90
-1.03277e-91
-1.2282e-93
-1.25693e-95
-1.10775e-97
-8.40183e-100
-5.48e-102
-3.06761e-104
-1.47042e-106
-6.01747e-109
-2.09299e-111
-6.15889e-114
-1.52346e-116
-3.14369e-119
-5.35945e-122
-7.4548e-125
-8.33071e-128
-7.33075e-131
-4.94995e-134
-2.48145e-137
-8.85593e-141
-2.13128e-144
-3.19756e-148
-2.53648e-152
-6.40509e-157
-4.21503e-109
-7.12035e-103
-7.64191e-100
-1.63078e-98
-1.7816e-98
-6.42171e-99
-9.72308e-100
-1.45998e-100
-8.41897e-102
-3.66829e-103
-1.19958e-104
-3.5096e-106
-8.50815e-108
-1.82818e-109
-3.45748e-111
-5.8935e-113
-2.02802e-114
-2.19126e-110
-8.47087e-106
-3.60321e-101
-4.8619e-95
-2.33362e-86
-4.42878e-86
-1.091e-72
-3.68323e-73
-6.02626e-74
-6.34754e-75
-4.82485e-76
-2.81228e-77
-1.30458e-78
-4.93525e-80
-1.54835e-81
-4.07692e-83
-9.08699e-85
-1.72474e-86
-2.79931e-88
-3.87646e-90
-4.64021e-92
-4.7807e-94
-4.24199e-96
-3.2392e-98
-2.12676e-100
-1.19814e-102
-5.77798e-105
-2.37784e-107
-8.31257e-110
-2.45692e-112
-6.09996e-115
-1.26241e-117
-2.1567e-120
-3.00369e-123
-3.35802e-126
-2.9532e-129
-1.98968e-132
-9.9189e-136
-3.49311e-139
-8.15462e-143
-1.14888e-146
-8.19349e-151
-1.80804e-155
-1.01209e-106
-1.8244e-100
-1.02334e-97
-1.527e-96
-1.36871e-96
-4.12797e-97
-5.59124e-98
-7.45121e-99
-3.93477e-100
-1.65196e-101
-5.1754e-103
-1.45213e-104
-3.35486e-106
-6.87217e-108
-1.24552e-109
-2.03709e-111
-3.96657e-113
-1.93095e-109
-7.45169e-105
-3.16412e-100
-6.84174e-94
-6.70402e-85
-1.12989e-84
-3.73797e-71
-1.26768e-71
-2.08343e-72
-2.20432e-73
-1.68306e-74
-9.85514e-76
-4.59338e-77
-1.74634e-78
-5.50774e-80
-1.45837e-81
-3.26996e-83
-6.24552e-85
-1.02031e-86
-1.42263e-88
-1.71502e-90
-1.77986e-92
-1.59098e-94
-1.22383e-96
-8.09343e-99
-4.59149e-101
-2.22901e-103
-9.23055e-106
-3.24541e-108
-9.64158e-111
-2.40435e-113
-4.99389e-116
-8.555e-119
-1.19368e-121
-1.33572e-124
-1.17458e-127
-7.9023e-131
-3.92482e-134
-1.37041e-137
-3.13773e-141
-4.23875e-145
-2.79013e-149
-5.45119e-154
-2.36223e-104
-4.15992e-98
-1.25087e-95
-1.32198e-94
-9.83961e-95
-2.51305e-95
-3.04071e-96
-3.58871e-97
-1.73446e-98
-7.01214e-100
-2.10297e-101
-5.66342e-103
-1.24983e-104
-2.43687e-106
-4.2261e-108
-6.61329e-110
-9.94869e-112
-1.50799e-108
-5.80217e-104
-2.46172e-99
-8.89006e-93
-1.82517e-83
-3.22014e-83
-1.23283e-69
-4.20765e-70
-6.9583e-71
-7.40687e-72
-5.6892e-73
-3.35104e-74
-1.57116e-75
-6.00933e-77
-1.90698e-78
-5.08172e-80
-1.14701e-81
-2.20586e-83
-3.62926e-85
-5.09781e-87
-6.19259e-89
-6.47724e-91
-5.83594e-93
-4.52478e-95
-3.01565e-97
-1.72376e-99
-8.42895e-102
-3.51443e-104
-1.24352e-106
-3.71563e-109
-9.31295e-112
-1.94266e-114
-3.33939e-117
-4.67109e-120
-5.23479e-123
-4.60538e-126
-3.09606e-129
-1.53389e-132
-5.32547e-136
-1.20422e-139
-1.58309e-143
-9.85523e-148
-1.74581e-152
-9.85631e-102
-8.48183e-96
-1.3829e-93
-1.05212e-92
-6.58396e-93
-1.43525e-93
-1.564e-94
-1.61827e-95
-7.21451e-97
-2.78841e-98
-8.02708e-100
-2.07107e-101
-4.37917e-103
-8.15025e-105
-1.34975e-106
-2.01017e-108
-2.68845e-110
-1.02922e-107
-3.94787e-103
-1.677e-98
-1.03776e-91
-4.69267e-82
-9.39415e-82
-3.90463e-68
-1.34368e-68
-2.23993e-69
-2.40292e-70
-1.85965e-71
-1.10345e-72
-5.21114e-74
-2.00746e-75
-6.41624e-77
-1.72224e-78
-3.91618e-80
-7.58815e-82
-1.25804e-83
-1.78116e-85
-2.18141e-87
-2.30086e-89
-2.09066e-91
-1.63467e-93
-1.09854e-95
-6.33013e-98
-3.11946e-100
-1.31028e-102
-4.66833e-105
-1.40379e-107
-3.53863e-110
-7.41819e-113
-1.28043e-115
-1.79673e-118
-2.01792e-121
-1.77722e-124
-1.19465e-127
-5.90948e-131
-2.04389e-134
-4.58418e-138
-5.92208e-142
-3.55325e-146
-5.8595e-151
-5.25098e-99
-1.53796e-93
-1.40559e-91
-7.81326e-91
-4.03808e-91
-7.6063e-92
-7.54063e-93
-6.85154e-94
-2.82698e-95
-1.02826e-96
-2.85691e-98
-7.04539e-100
-1.43346e-101
-2.55286e-103
-4.02214e-105
-5.6594e-107
-6.99936e-109
-6.03142e-107
-2.31138e-102
-9.8616e-98
-1.01928e-90
-1.13571e-80
-2.69959e-80
-1.18464e-66
-4.11826e-67
-6.93317e-68
-7.50888e-69
-5.86498e-70
-3.51122e-71
-1.6726e-72
-6.49783e-74
-2.09413e-75
-5.6675e-77
-1.29938e-78
-2.53852e-80
-4.24344e-82
-6.05923e-84
-7.48582e-86
-7.96635e-88
-7.30378e-90
-5.76194e-92
-3.90632e-94
-2.2703e-96
-1.12807e-98
-4.77579e-101
-1.71423e-103
-5.19049e-106
-1.31666e-108
-2.77559e-111
-4.81371e-114
-6.78078e-117
-7.63723e-120
-6.73814e-123
-4.53211e-126
-2.24022e-129
-7.72898e-133
-1.7242e-136
-2.20256e-140
-1.29065e-144
-2.02711e-149
-2.52422e-96
-2.50373e-91
-1.31239e-89
-5.4135e-89
-2.30128e-89
-3.78214e-90
-3.42002e-91
-2.69004e-92
-1.04334e-93
-3.57052e-95
-9.53305e-97
-2.23323e-98
-4.36484e-100
-7.43955e-102
-1.10967e-103
-1.46634e-105
-1.6814e-107
-2.96659e-106
-1.14273e-101
-4.91782e-97
-6.61657e-90
-2.57894e-79
-7.54419e-79
-3.4339e-65
-1.20832e-65
-2.05827e-66
-2.25465e-67
-1.78044e-68
-1.07721e-69
-5.1838e-71
-2.03373e-72
-6.61718e-74
-1.80764e-75
-4.1826e-77
-8.24523e-79
-1.39061e-80
-2.00386e-82
-2.49882e-84
-2.68447e-86
-2.48461e-88
-1.97859e-90
-1.35384e-92
-7.93955e-95
-3.97957e-97
-1.69893e-99
-6.14668e-102
-1.87498e-104
-4.78875e-107
-1.01572e-109
-1.77103e-112
-2.50598e-115
-2.83247e-118
-2.50519e-121
-1.68724e-124
-8.34065e-128
-2.8736e-131
-6.3883e-135
-8.10231e-139
-4.67768e-143
-7.11967e-148
-1.10392e-93
-3.63775e-89
-1.11956e-87
-3.49761e-87
-1.21006e-87
-1.73781e-88
-1.44147e-89
-9.72836e-91
-3.64041e-92
-1.16873e-93
-2.97885e-95
-6.59848e-97
-1.23344e-98
-1.99745e-100
-2.7962e-102
-3.43662e-104
-3.61345e-106
-1.18607e-105
-4.65794e-101
-2.03221e-96
2.7503e-89
-5.47718e-78
-2.04371e-77
-9.48465e-64
-3.38489e-64
-5.84534e-65
-6.48831e-66
-5.18942e-67
-3.17849e-68
-1.5477e-69
-6.14117e-71
-2.02007e-72
-5.5768e-74
-1.30369e-75
-2.59554e-77
-4.41991e-79
-6.43211e-81
-8.10123e-83
-8.7907e-85
-8.21761e-87
-6.60865e-89
-4.56579e-91
-2.70297e-93
-1.36727e-95
-5.88862e-98
-2.14841e-100
-6.60538e-103
-1.69941e-105
-3.62862e-108
-6.36456e-111
-9.05175e-114
-1.02738e-116
-9.11541e-120
-6.15184e-123
-3.04376e-126
-1.04823e-129
-2.32563e-133
-2.93652e-137
-1.67994e-141
-2.50795e-146
-4.11366e-91
-4.73237e-87
-8.76446e-86
-2.08713e-85
-5.94162e-86
-7.44891e-87
-5.59959e-88
-3.26502e-89
-1.20221e-90
-3.5603e-92
-8.58974e-94
-1.81295e-95
-3.20746e-97
-4.87731e-99
-6.32472e-101
-7.09519e-103
-6.66926e-105
-3.64091e-105
-1.51535e-100
-6.74122e-96
2.09558e-87
-1.0844e-76
-5.37243e-76
-2.48926e-62
-9.02829e-63
-1.58369e-63
-1.78472e-64
-1.44844e-65
-8.99712e-67
-4.44043e-68
-1.78484e-69
-5.94418e-71
-1.66062e-72
-3.92674e-74
-7.90331e-76
-1.36e-77
-2.00042e-79
-2.54668e-81
-2.79293e-83
-2.63826e-85
-2.14356e-87
-1.49589e-89
-8.94312e-92
-4.56716e-94
-1.9852e-96
-7.30683e-99
-2.26529e-101
-5.87351e-104
-1.26311e-106
-2.22979e-109
-3.18918e-112
-3.63704e-115
-3.23927e-118
-2.1922e-121
-1.08645e-124
-3.74341e-128
-8.2986e-132
-1.04526e-135
-5.94834e-140
-8.78055e-145
-1.29633e-88
-5.51585e-85
-6.35354e-84
-1.14955e-83
-2.80689e-84
-3.02243e-85
-2.03399e-86
-1.07215e-87
-3.73659e-89
-1.00495e-90
-2.29287e-92
-4.55672e-94
-7.62683e-96
-1.08244e-97
-1.275e-99
-1.25659e-101
-9.91936e-104
-7.28006e-105
-3.74589e-100
-1.71184e-95
5.14352e-86
-1.99449e-75
-1.37696e-74
-6.18977e-61
-2.28623e-61
-4.08187e-62
-4.67931e-63
-3.86081e-64
-2.43656e-65
-1.221e-66
-4.97998e-68
-1.68182e-69
-4.76153e-71
-1.14038e-72
-2.32285e-74
-4.04296e-76
-6.01679e-78
-7.74903e-80
-8.59467e-82
-8.20804e-84
-6.74043e-86
-4.75309e-88
-2.87068e-90
-1.48062e-92
-6.49776e-95
-2.4137e-97
-7.54863e-100
-1.97333e-102
-4.276e-105
-7.60072e-108
-1.0938e-110
-1.25405e-113
-1.12183e-116
-7.6182e-120
-3.78467e-123
-1.30579e-126
-2.89554e-130
-3.64374e-134
-2.0682e-138
-3.03507e-143
-3.43714e-86
-5.73146e-83
-4.21427e-82
-5.84728e-82
-1.23459e-82
-1.14663e-83
-6.88764e-85
-3.28755e-86
-1.06201e-87
-2.62361e-89
-5.59118e-91
-1.04753e-92
-1.63572e-94
-2.13567e-96
-2.21405e-98
-1.79265e-100
-9.744e-103
-1.01343e-115
-6.39498e-100
-3.05934e-95
9.71827e-85
-3.39484e-74
-3.47256e-73
-1.45383e-59
-5.48016e-60
-9.97921e-61
-1.16602e-61
-9.79958e-63
-6.29528e-64
-3.20892e-65
-1.33034e-66
-4.56337e-68
-1.31134e-69
-3.18547e-71
-6.57429e-73
-1.1586e-74
-1.74672e-76
-2.27802e-78
-2.55704e-80
-2.47015e-82
-2.05109e-84
-1.46204e-86
-8.92364e-89
-4.65004e-91
-2.06107e-93
-7.72968e-96
-2.43951e-98
-6.43222e-101
-1.40497e-103
-2.51573e-106
-3.64427e-109
-4.20249e-112
-3.77807e-115
-2.57602e-118
-1.28372e-121
-4.43863e-125
-9.85451e-129
-1.24051e-132
-7.03684e-137
-1.0304e-141
-7.62979e-84
-5.26959e-81
-2.54237e-80
-2.74548e-80
-4.98278e-81
-4.05067e-82
-2.1892e-83
-9.3727e-85
-2.77771e-86
-6.26381e-88
-1.22687e-89
-2.14782e-91
-3.06752e-93
-3.57875e-95
-3.07045e-97
-1.65701e-99
-1.33928e-118
2.01408e-104
-4.89878e-100
-3.03345e-95
1.59019e-83
-5.32349e-73
-8.73289e-72
-3.21519e-58
-1.23957e-58
-2.30702e-59
-2.75317e-60
-2.36152e-61
-1.54717e-62
-8.03695e-64
-3.39282e-65
-1.18414e-66
-3.45939e-68
-8.53642e-70
-1.78726e-71
-3.19288e-73
-4.88404e-75
-6.45694e-77
-7.34026e-79
-7.17645e-81
-6.02812e-83
-4.34531e-85
-2.68125e-87
-1.41208e-89
-6.32352e-92
-2.39512e-94
-7.63084e-97
-2.03008e-99
-4.47143e-102
-8.06847e-105
-1.177e-107
-1.36578e-110
-1.23452e-113
-8.456e-117
-4.22959e-120
-1.46662e-123
-3.2629e-127
-4.11322e-131
-2.33534e-135
-3.42101e-140
-1.42674e-81
-4.26708e-79
-1.38229e-78
-1.1885e-78
-1.83636e-79
-1.33363e-80
-6.40368e-82
-2.44396e-83
-6.62506e-85
-1.36651e-86
-2.41236e-88
-3.88357e-90
-4.86373e-92
-4.70513e-94
-2.65105e-96
-3.05357e-120
1.49887e-100
1.50736e-100
-4.24834e-109
0
2.32594e-82
-7.64683e-72
-2.22084e-70
-6.67239e-57
-2.63706e-57
-5.02721e-58
-6.14027e-59
-5.38616e-60
-3.60588e-61
-1.91247e-62
-8.23621e-64
-2.92993e-65
-8.71674e-67
-2.18848e-68
-4.6541e-70
-8.4391e-72
-1.31244e-73
-1.76069e-75
-2.02848e-77
-2.00835e-79
-1.70749e-81
-1.24529e-83
-7.77151e-86
-4.13804e-88
-1.87286e-90
-7.16656e-93
-2.30567e-95
-6.19095e-98
-1.3755e-100
-2.50208e-103
-3.67688e-106
-4.29492e-109
-3.90489e-112
-2.68822e-115
-1.35033e-118
-4.69862e-122
-1.04828e-125
-1.32453e-129
-7.53611e-134
-1.10648e-138
-2.25455e-79
-3.09454e-77
-6.77849e-77
-4.68468e-77
-6.23669e-78
-4.04518e-79
-1.74978e-80
-5.76617e-82
-1.40734e-83
-2.61133e-85
-4.11949e-87
-5.75543e-89
-6.06368e-91
-3.81346e-93
1.67202e-117
3.87867e-97
6.89936e-97
4.83664e-97
1.48457e-99
7.22896e-96
3.0528e-81
-9.98396e-71
-5.75532e-69
-1.29472e-55
-5.25812e-56
-1.02908e-56
-1.28923e-57
-1.15892e-58
-7.94396e-60
-4.31011e-61
-1.89714e-62
-6.89133e-64
-2.09151e-65
-5.35162e-67
-1.15737e-68
-2.13303e-70
-3.38198e-72
-4.60702e-74
-5.38263e-76
-5.40065e-78
-4.65061e-80
-3.43363e-82
-2.16832e-84
-1.16778e-86
-5.34359e-89
-2.06638e-91
-6.71526e-94
-1.82039e-96
-4.08096e-99
-7.48553e-102
-1.10848e-104
-1.30382e-107
-1.19278e-110
-8.25616e-114
-4.16669e-117
-1.45566e-120
-3.25879e-124
-4.13027e-128
-2.35721e-132
-3.47376e-137
-3.03603e-77
-1.99848e-75
-3.03192e-75
-1.70526e-75
-1.93569e-76
-1.12843e-77
-4.27641e-79
-1.21843e-80
-2.62883e-82
-4.37671e-84
-6.05664e-86
-6.87259e-88
-4.91637e-90
1.15039e-108
4.37815e-93
1.07922e-92
2.56629e-92
3.03593e-93
7.23045e-96
5.85202e-88
3.5792e-80
-1.17173e-69
-1.51339e-67
-2.33985e-54
-9.78976e-55
-1.97174e-55
-2.5394e-56
-2.34434e-57
-1.64873e-58
-9.16911e-60
-4.1328e-61
-1.53577e-62
-4.76345e-64
-1.24432e-65
-2.73926e-67
-5.16472e-69
-8.34105e-71
-1.15319e-72
-1.3674e-74
-1.39173e-76
-1.21492e-78
-9.08753e-81
-5.81044e-83
-3.16663e-85
-1.46553e-87
-5.72896e-90
-1.88109e-92
-5.14943e-95
-1.16508e-97
-2.15548e-100
-3.21728e-103
-3.81164e-106
-3.50972e-109
-2.44337e-112
-1.23936e-115
-4.34901e-119
-9.77459e-123
-1.24343e-126
-7.12376e-131
-1.05479e-135
-3.46886e-75
-1.15201e-73
-1.23373e-73
-5.62333e-74
-5.50449e-75
-2.86548e-76
-9.37478e-78
-2.31699e-79
-4.30945e-81
-6.24448e-83
-7.08502e-85
-5.34577e-87
2.37506e-110
3.15907e-89
1.14977e-88
2.46799e-88
3.96004e-88
1.69186e-88
1.20307e-90
9.62647e-86
3.79984e-79
-1.21791e-68
-3.97755e-66
-3.92171e-53
-1.69505e-53
-3.5224e-54
-4.67481e-55
-4.4422e-56
-3.21215e-57
-1.83479e-58
-8.48516e-60
-3.23179e-61
-1.02629e-62
-2.7418e-64
-6.1763e-66
-1.18902e-67
-1.95446e-69
-2.74953e-71
-3.31484e-73
-3.42706e-75
-3.03613e-77
-2.30275e-79
-1.49177e-81
-8.23136e-84
-3.85453e-86
-1.52369e-88
-5.05617e-91
-1.39802e-93
-3.19296e-96
-5.95932e-99
-8.96746e-102
-1.07034e-104
-9.92201e-108
-6.94912e-111
-3.54374e-114
-1.24946e-117
-2.8204e-121
-3.60282e-125
-2.07321e-129
-3.08661e-134
-3.36049e-73
-5.86963e-72
-4.49411e-72
-1.67286e-72
-1.41723e-73
-6.70801e-75
-1.84324e-76
-3.846e-78
-6.00325e-80
-7.0016e-82
-5.37796e-84
-3.01556e-103
1.79683e-87
8.51575e-87
3.02693e-86
6.25804e-86
9.33451e-86
1.3666e-84
4.31729e-85
2.86825e-84
4.00356e-78
-1.11533e-67
-1.02526e-64
-6.06716e-52
-2.71724e-52
-5.84223e-53
-8.01068e-54
-7.85391e-55
-5.85227e-56
-3.44067e-57
-1.63588e-58
-6.39849e-60
-2.08425e-61
-5.70498e-63
-1.31528e-64
-2.58799e-66
-4.34259e-68
-6.22862e-70
-7.64678e-72
-8.04099e-74
-7.2376e-76
-5.57129e-78
-3.65956e-80
-2.04571e-82
-9.69725e-85
-3.87765e-87
-1.30078e-89
-3.63351e-92
-8.37851e-95
-1.5778e-97
-2.39396e-100
-2.87915e-103
-2.68743e-106
-1.89393e-109
-9.71206e-113
-3.44149e-116
-7.80442e-120
-1.00144e-123
-5.79051e-128
-8.67279e-133
-2.7706e-71
-2.63127e-70
-1.46883e-70
-4.49151e-71
-3.28797e-72
-1.36636e-73
-3.28606e-75
-5.47336e-77
-6.78367e-79
-5.44583e-81
0
2.57202e-87
1.93919e-86
9.34053e-86
3.21946e-85
6.44207e-85
8.90334e-85
2.69682e-82
2.84789e-81
7.0814e-83
5.28053e-77
-1.00614e-66
-2.54921e-63
-8.61823e-51
-4.01289e-51
-8.95466e-52
-1.27213e-52
-1.29017e-53
-9.93019e-55
-6.0224e-56
-2.95e-57
-1.18729e-58
-3.97475e-60
-1.11674e-61
-2.63976e-63
-5.31788e-65
-9.124e-67
-1.33633e-68
-1.67306e-70
-1.7918e-72
-1.64049e-74
-1.28297e-76
-8.55229e-79
-4.8467e-81
-2.32699e-83
-9.41652e-86
-3.19421e-88
-9.01595e-91
-2.09932e-93
-3.9893e-96
-6.10382e-99
-7.39759e-102
-6.95354e-105
-4.93152e-108
-2.54334e-111
-9.05903e-115
-2.06424e-118
-2.66127e-122
-1.54659e-126
-2.33103e-131
-1.97079e-69
-1.01993e-68
-4.16381e-69
-1.0744e-69
-6.86148e-71
-2.39864e-72
-5.11543e-74
-6.37971e-76
-4.57e-78
-4.67902e-100
1.60559e-80
1.16447e-79
7.36728e-79
3.42527e-78
1.14271e-77
2.22787e-77
3.00388e-77
1.84983e-81
5.24471e-79
1.26774e-81
4.01825e-77
-1.45715e-65
-6.04015e-62
-1.11726e-49
-5.42932e-50
-1.26182e-50
-1.86307e-51
-1.96006e-52
-1.5623e-53
-9.79703e-55
-4.95504e-56
-2.05633e-57
-7.08895e-59
-2.04828e-60
-4.97325e-62
-1.02756e-63
-1.8057e-65
-2.70494e-67
-3.45881e-69
-3.77801e-71
-3.52293e-73
-2.80232e-75
-1.89759e-77
-1.09111e-79
-5.30934e-82
-2.17533e-84
-7.46436e-87
-2.12947e-89
-5.00767e-92
-9.60352e-95
-1.48185e-97
-1.8099e-100
-1.7133e-103
-1.22287e-106
-6.34315e-110
-2.27121e-113
-5.20061e-117
-6.73699e-121
-3.93541e-125
-5.96945e-130
-8.84191e-68
-3.30568e-67
-1.05052e-67
-2.29306e-68
-1.12509e-69
-3.45022e-71
-6.24068e-73
-4.90338e-75
3.15408e-96
1.61893e-77
2.33298e-76
1.91201e-75
1.20111e-74
5.60996e-74
1.88354e-73
3.82314e-73
7.05139e-73
5.51715e-74
3.10524e-78
2.4206e-79
1.53601e-73
-3.82017e-64
-1.35118e-60
-1.31271e-48
-6.68682e-49
-1.62507e-49
-2.50265e-50
-2.73986e-51
-2.26792e-52
-1.47427e-53
-7.71693e-55
-3.30939e-56
-1.17724e-57
-3.50496e-59
-8.75765e-61
-1.85919e-62
-3.35201e-64
-5.14425e-66
-6.72893e-68
-7.50728e-70
-7.13956e-72
-5.78354e-74
-3.98262e-76
-2.3256e-78
-1.14778e-80
-4.76418e-83
-1.65438e-85
-4.77173e-88
-1.13348e-90
-2.19397e-93
-3.41421e-96
-4.2025e-99
-4.00629e-102
-2.87774e-105
-1.50131e-108
-5.40369e-112
-1.24337e-115
-1.6184e-119
-9.50232e-124
-1.45064e-128
-4.50389e-66
-9.94457e-66
-2.40901e-66
-4.1036e-67
-1.70023e-68
-4.35482e-70
-5.94054e-72
6.56357e-95
2.40454e-75
6.63871e-74
1.00004e-72
8.08188e-72
5.0133e-71
2.29984e-70
7.60752e-70
1.52269e-69
2.78594e-69
2.12793e-69
8.51208e-71
9.57357e-76
5.78746e-70
-9.85368e-63
-2.82578e-59
-1.38636e-47
-7.44116e-48
-1.89994e-48
-3.06445e-49
-3.50365e-50
-3.02122e-51
-2.04157e-52
-1.10877e-53
-4.92502e-55
-1.81172e-56
-5.56928e-58
-1.43481e-59
-3.13545e-61
-5.81021e-63
-9.1506e-65
-1.2264e-66
-1.39971e-68
-1.35956e-70
-1.12305e-72
-7.87368e-75
-4.67401e-77
-2.34174e-79
-9.85394e-82
-3.4647e-84
-1.0107e-86
-2.42571e-89
-4.73944e-92
-7.43851e-95
-9.22691e-98
-8.85768e-101
-6.40259e-104
-3.35913e-107
-1.21526e-110
-2.80959e-114
-3.67406e-118
-2.16789e-122
-3.33012e-127
-1.93746e-64
-2.63903e-64
-4.89583e-65
-6.46368e-66
-2.24383e-67
-4.27498e-69
-2.49437e-71
1.34639e-73
1.08178e-71
2.84536e-70
4.18114e-69
3.33001e-68
2.01955e-67
9.07829e-67
2.95725e-66
5.82058e-66
1.05919e-65
8.06959e-66
3.9216e-66
3.78121e-72
4.36086e-65
-1.82417e-61
-5.44198e-58
-1.30304e-46
-7.41571e-47
-2.00063e-47
-3.39612e-48
-4.07188e-49
-3.67087e-50
-2.58663e-51
-1.46157e-52
-6.74119e-54
-2.57028e-55
-8.17527e-57
-2.17601e-58
-4.90411e-60
-9.35734e-62
-1.51498e-63
-2.08389e-65
-2.43688e-67
-2.42111e-69
-2.04219e-71
-1.45956e-73
-8.81787e-76
-4.48902e-78
-1.9165e-80
-6.82717e-83
-2.01517e-85
-4.88798e-88
-9.64175e-91
-1.52628e-93
-1.90782e-96
-1.8441e-99
-1.34117e-102
-7.07507e-106
-2.57224e-109
-5.9739e-113
-7.84648e-117
-4.65166e-121
-7.18716e-126
-6.96315e-63
-6.09988e-63
-8.80328e-64
-8.74622e-65
-2.4159e-66
-2.63383e-68
9.8283e-89
1.38351e-69
4.43865e-68
1.12908e-66
1.62109e-65
1.28558e-64
7.68874e-64
3.41539e-63
1.10261e-62
2.1495e-62
3.90156e-62
2.97227e-62
1.44091e-62
1.44607e-68
2.20341e-61
-1.80363e-60
-9.37759e-57
-1.0766e-45
-6.54705e-46
-1.87945e-46
-3.37783e-47
-4.26822e-48