/*--------------------------------*- C++ -*----------------------------------*\
| =========                 |                                                 |
| \\      /  F ield         | OpenFOAM: The Open Source CFD Toolbox           |
|  \\    /   O peration     | Version:  v2012                                 |
|   \\  /    A nd           | Website:  www.openfoam.com                      |
|    \\/     M anipulation  |                                                 |
\*---------------------------------------------------------------------------*/
FoamFile
{
    version     2.0;
    format      ascii;
    class       volScalarField;
    location    "0.1";
    object      p;
}
// * * * * * * * * * * * * * * * * * * * * * * * * * * * * * * * * * * * * * //

dimensions      [1 -1 -2 0 0 0 0];


internalField   nonuniform List<scalar> 
3332
(
3.45867e+06
3.46497e+06
3.4603e+06
3.46389e+06
3.46375e+06
3.45526e+06
3.46346e+06
3.44666e+06
3.47257e+06
3.47304e+06
3.47396e+06
3.47251e+06
3.47369e+06
3.46184e+06
3.47043e+06
3.44898e+06
3.44074e+06
3.43199e+06
3.46736e+06
3.47673e+06
3.48451e+06
3.48559e+06
3.48739e+06
3.49513e+06
3.48798e+06
3.4953e+06
3.48762e+06
3.48954e+06
3.47589e+06
3.48134e+06
3.45984e+06
3.45341e+06
3.44204e+06
3.47236e+06
3.48195e+06
3.48845e+06
3.48953e+06
3.49052e+06
3.52444e+06
3.51e+06
3.52328e+06
3.51016e+06
3.51277e+06
3.49943e+06
3.50032e+06
3.48384e+06
3.47713e+06
3.46106e+06
3.48201e+06
3.49063e+06
3.49427e+06
3.49479e+06
3.49446e+06
3.55795e+06
3.53878e+06
3.55601e+06
3.5396e+06
3.54313e+06
3.53214e+06
3.52901e+06
3.522e+06
3.51353e+06
3.48882e+06
3.49661e+06
3.50258e+06
3.50193e+06
3.5013e+06
3.49919e+06
3.59223e+06
3.57082e+06
3.58955e+06
3.57293e+06
3.57722e+06
3.57059e+06
3.56514e+06
3.56874e+06
3.55722e+06
3.52296e+06
3.51354e+06
3.5168e+06
3.51087e+06
3.50877e+06
3.50454e+06
3.6237e+06
3.60326e+06
3.62082e+06
3.6064e+06
3.61016e+06
3.60887e+06
3.601e+06
3.616e+06
3.59773e+06
3.55875e+06
3.52823e+06
3.53161e+06
3.52005e+06
3.51674e+06
3.51027e+06
3.64981e+06
3.63315e+06
3.64716e+06
3.63607e+06
3.63766e+06
3.63937e+06
3.62747e+06
3.65233e+06
3.62186e+06
3.59052e+06
3.54048e+06
3.54596e+06
3.52926e+06
3.52493e+06
3.51627e+06
3.67094e+06
3.66212e+06
3.66892e+06
3.66199e+06
3.66012e+06
3.66061e+06
3.64644e+06
3.66983e+06
3.62932e+06
3.61292e+06
3.55525e+06
3.55946e+06
3.53942e+06
3.53327e+06
3.52263e+06
3.68952e+06
3.69366e+06
3.68874e+06
3.68826e+06
3.68299e+06
3.68202e+06
3.67242e+06
3.68223e+06
3.65401e+06
3.64104e+06
3.58231e+06
3.57411e+06
3.5523e+06
3.54188e+06
3.5295e+06
3.70614e+06
3.72311e+06
3.70701e+06
3.71408e+06
3.70774e+06
3.7093e+06
3.70929e+06
3.71104e+06
3.71033e+06
3.69293e+06
3.62615e+06
3.59114e+06
3.56867e+06
3.55076e+06
3.53686e+06
3.71896e+06
3.74133e+06
3.72104e+06
3.73245e+06
3.72753e+06
3.73278e+06
3.74124e+06
3.74422e+06
3.76146e+06
3.73844e+06
3.67494e+06
3.60437e+06
3.58486e+06
3.55857e+06
3.54384e+06
3.72628e+06
3.74542e+06
3.7281e+06
3.73938e+06
3.73648e+06
3.74277e+06
3.75412e+06
3.75601e+06
3.7784e+06
3.75265e+06
3.71146e+06
3.61238e+06
3.5969e+06
3.56447e+06
3.5495e+06
3.72795e+06
3.74102e+06
3.72915e+06
3.73741e+06
3.73581e+06
3.74117e+06
3.75022e+06
3.75002e+06
3.76729e+06
3.74754e+06
3.72425e+06
3.62817e+06
3.60254e+06
3.56997e+06
3.55334e+06
3.7231e+06
3.73038e+06
3.72432e+06
3.72965e+06
3.72899e+06
3.73319e+06
3.73894e+06
3.73898e+06
3.74851e+06
3.73687e+06
3.72344e+06
3.65103e+06
3.60366e+06
3.57565e+06
3.55544e+06
3.71312e+06
3.71692e+06
3.71509e+06
3.71813e+06
3.718e+06
3.7211e+06
3.72442e+06
3.72482e+06
3.72947e+06
3.72282e+06
3.71423e+06
3.66298e+06
3.60339e+06
3.57844e+06
3.55591e+06
3.69995e+06
3.7023e+06
3.70263e+06
3.7044e+06
3.70447e+06
3.70693e+06
3.70862e+06
3.70942e+06
3.71093e+06
3.70767e+06
3.70109e+06
3.66463e+06
3.60435e+06
3.57818e+06
3.55537e+06
3.68769e+06
3.68775e+06
3.688e+06
3.6893e+06
3.68932e+06
3.69173e+06
3.69269e+06
3.69423e+06
3.69417e+06
3.69326e+06
3.68713e+06
3.6608e+06
3.60489e+06
3.57573e+06
3.55371e+06
3.67125e+06
3.67216e+06
3.67137e+06
3.673e+06
3.67291e+06
3.67569e+06
3.67669e+06
3.67938e+06
3.679e+06
3.67966e+06
3.67296e+06
3.65353e+06
3.6028e+06
3.5714e+06
3.55055e+06
3.65341e+06
3.65499e+06
3.65308e+06
3.65511e+06
3.65507e+06
3.65829e+06
3.65968e+06
3.66366e+06
3.66337e+06
3.66534e+06
3.65748e+06
3.64295e+06
3.59698e+06
3.56504e+06
3.54564e+06
3.63428e+06
3.6351e+06
3.63317e+06
3.63509e+06
3.6354e+06
3.63875e+06
3.64032e+06
3.64513e+06
3.64436e+06
3.64781e+06
3.63873e+06
3.62825e+06
3.58712e+06
3.55626e+06
3.5389e+06
3.614e+06
3.61292e+06
3.61231e+06
3.61312e+06
3.61396e+06
3.61665e+06
3.61785e+06
3.62223e+06
3.62004e+06
3.62481e+06
3.61533e+06
3.60861e+06
3.57364e+06
3.54506e+06
3.53047e+06
3.59259e+06
3.58873e+06
3.59067e+06
3.59002e+06
3.59146e+06
3.59268e+06
3.59298e+06
3.59546e+06
3.59165e+06
3.59652e+06
3.58826e+06
3.58463e+06
3.55757e+06
3.53214e+06
3.52084e+06
3.57113e+06
3.56526e+06
3.56941e+06
3.56733e+06
3.56904e+06
3.56854e+06
3.56772e+06
3.56764e+06
3.56293e+06
3.56637e+06
3.5606e+06
3.55913e+06
3.54009e+06
3.5189e+06
3.5107e+06
3.55058e+06
3.54432e+06
3.54942e+06
3.54648e+06
3.54798e+06
3.54613e+06
3.54433e+06
3.54208e+06
3.53743e+06
3.53887e+06
3.53592e+06
3.53574e+06
3.52301e+06
3.50678e+06
3.50089e+06
3.53291e+06
3.52682e+06
3.5314e+06
3.52836e+06
3.52929e+06
3.52672e+06
3.52433e+06
3.52087e+06
3.51694e+06
3.51685e+06
3.51609e+06
3.51644e+06
3.50809e+06
3.49639e+06
3.49216e+06
3.51632e+06
3.51238e+06
3.5157e+06
3.51319e+06
3.51344e+06
3.51072e+06
3.50818e+06
3.50443e+06
3.50148e+06
3.50062e+06
3.50115e+06
3.50138e+06
3.49602e+06
3.50231e+06
3.50067e+06
3.50244e+06
3.50073e+06
3.50039e+06
3.49792e+06
3.49556e+06
3.4921e+06
3.4901e+06
3.48897e+06
3.49013e+06
3.49e+06
3.48665e+06
3.49084e+06
3.49102e+06
3.49148e+06
3.49055e+06
3.48983e+06
3.48775e+06
3.48577e+06
3.48281e+06
3.48161e+06
3.48045e+06
3.48179e+06
3.48133e+06
3.47928e+06
3.48207e+06
3.48303e+06
3.48253e+06
3.48216e+06
3.48128e+06
3.4796e+06
3.47805e+06
3.4756e+06
3.475e+06
3.47389e+06
3.47524e+06
3.47458e+06
3.47338e+06
3.47485e+06
3.47614e+06
3.47533e+06
3.4752e+06
3.47432e+06
3.47295e+06
3.47177e+06
3.46973e+06
3.46952e+06
3.46839e+06
3.46968e+06
3.46898e+06
3.46835e+06
3.46918e+06
3.47024e+06
3.46949e+06
3.46934e+06
3.46858e+06
3.46743e+06
3.46653e+06
3.4648e+06
3.46485e+06
3.4637e+06
3.46503e+06
3.46432e+06
3.46425e+06
3.46461e+06
3.46515e+06
3.46471e+06
3.46443e+06
3.46381e+06
3.46279e+06
3.46203e+06
3.46052e+06
3.46065e+06
3.4594e+06
3.46068e+06
3.46011e+06
3.46044e+06
3.46109e+06
3.46094e+06
3.46083e+06
3.46034e+06
3.45986e+06
3.45893e+06
3.45821e+06
3.45693e+06
3.45706e+06
3.45592e+06
3.45732e+06
3.45682e+06
3.45767e+06
3.4581e+06
3.45745e+06
3.45769e+06
3.45701e+06
3.45665e+06
3.45576e+06
3.455e+06
3.45393e+06
3.45377e+06
3.45264e+06
3.45359e+06
3.45373e+06
3.45449e+06
3.45577e+06
3.45476e+06
3.45525e+06
3.45438e+06
3.45407e+06
3.45312e+06
3.45223e+06
3.45136e+06
3.45092e+06
3.4504e+06
3.45157e+06
3.4521e+06
3.45316e+06
3.4541e+06
3.45287e+06
3.45353e+06
3.45252e+06
3.45221e+06
3.45109e+06
3.44991e+06
3.44858e+06
3.44688e+06
3.44646e+06
3.44625e+06
3.44863e+06
3.45006e+06
3.45341e+06
3.45207e+06
3.45285e+06
3.45184e+06
3.45166e+06
3.45064e+06
3.44967e+06
3.44845e+06
3.44707e+06
3.44695e+06
3.45333e+06
3.45209e+06
3.45291e+06
3.45203e+06
3.45202e+06
3.45125e+06
3.45066e+06
3.44993e+06
3.44943e+06
3.44945e+06
3.45385e+06
3.45279e+06
3.45356e+06
3.45284e+06
3.45294e+06
3.4524e+06
3.45206e+06
3.45164e+06
3.45139e+06
3.4514e+06
3.45469e+06
3.4539e+06
3.45458e+06
3.45405e+06
3.45422e+06
3.45387e+06
3.4537e+06
3.4535e+06
3.45339e+06
3.45344e+06
3.45577e+06
3.4553e+06
3.45584e+06
3.45549e+06
3.45568e+06
3.45547e+06
3.45539e+06
3.45533e+06
3.45528e+06
3.45533e+06
3.45701e+06
3.45684e+06
3.45723e+06
3.45705e+06
3.45722e+06
3.45711e+06
3.4571e+06
3.45712e+06
3.4571e+06
3.45717e+06
3.45845e+06
3.45848e+06
3.45871e+06
3.45864e+06
3.45876e+06
3.45872e+06
3.45875e+06
3.45883e+06
3.45883e+06
3.4589e+06
3.45988e+06
3.46006e+06
3.46019e+06
3.46018e+06
3.46029e+06
3.46028e+06
3.46033e+06
3.46044e+06
3.46046e+06
3.46054e+06
3.46137e+06
3.46157e+06
3.46165e+06
3.46163e+06
3.46175e+06
3.46174e+06
3.4618e+06
3.46194e+06
3.46197e+06
3.46205e+06
3.46281e+06
3.46291e+06
3.46303e+06
3.46296e+06
3.46309e+06
3.46307e+06
3.46314e+06
3.46331e+06
3.46333e+06
3.46342e+06
3.46421e+06
3.4641e+06
3.46429e+06
3.46412e+06
3.46427e+06
3.46424e+06
3.46432e+06
3.46451e+06
3.46454e+06
3.46463e+06
3.46537e+06
3.46502e+06
3.46534e+06
3.46508e+06
3.46525e+06
3.46521e+06
3.4653e+06
3.46553e+06
3.46556e+06
3.46565e+06
3.46626e+06
3.46571e+06
3.46613e+06
3.46581e+06
3.46599e+06
3.46596e+06
3.46606e+06
3.46633e+06
3.46637e+06
3.46646e+06
3.46676e+06
3.46611e+06
3.46659e+06
3.46626e+06
3.46643e+06
3.46646e+06
3.46657e+06
3.4669e+06
3.46695e+06
3.46704e+06
3.46687e+06
3.46625e+06
3.46667e+06
3.46641e+06
3.46656e+06
3.46668e+06
3.46679e+06
3.4672e+06
3.46725e+06
3.46736e+06
3.4664e+06
3.46604e+06
3.46633e+06
3.46624e+06
3.46633e+06
3.46659e+06
3.46669e+06
3.4672e+06
3.46727e+06
3.46737e+06
3.46543e+06
3.46551e+06
3.46555e+06
3.46572e+06
3.46573e+06
3.46614e+06
3.46625e+06
3.46687e+06
3.46695e+06
3.46706e+06
3.46392e+06
3.46461e+06
3.46431e+06
3.46483e+06
3.46473e+06
3.46531e+06
3.46544e+06
3.46616e+06
3.46628e+06
3.4664e+06
3.46198e+06
3.46335e+06
3.46262e+06
3.46351e+06
3.46329e+06
3.46407e+06
3.46422e+06
3.46505e+06
3.46521e+06
3.46533e+06
3.45955e+06
3.46162e+06
3.46047e+06
3.46175e+06
3.4614e+06
3.46235e+06
3.46255e+06
3.46349e+06
3.46369e+06
3.46382e+06
3.45673e+06
3.45941e+06
3.45789e+06
3.45946e+06
3.45905e+06
3.46012e+06
3.4604e+06
3.46142e+06
3.46169e+06
3.46181e+06
3.45357e+06
3.45665e+06
3.45486e+06
3.45662e+06
3.45618e+06
3.45733e+06
3.4577e+06
3.4588e+06
3.45912e+06
3.45925e+06
3.45022e+06
3.4533e+06
3.45138e+06
3.45315e+06
3.45275e+06
3.45389e+06
3.45439e+06
3.45554e+06
3.45593e+06
3.45606e+06
3.44638e+06
3.44916e+06
3.44739e+06
3.44898e+06
3.44871e+06
3.44976e+06
3.45039e+06
3.45157e+06
3.45203e+06
3.45217e+06
3.44213e+06
3.44426e+06
3.44282e+06
3.44405e+06
3.44397e+06
3.44485e+06
3.44562e+06
3.44679e+06
3.44732e+06
3.44747e+06
3.43731e+06
3.43846e+06
3.43759e+06
3.43831e+06
3.43847e+06
3.43909e+06
3.44e+06
3.44111e+06
3.44168e+06
3.44185e+06
3.43189e+06
3.43188e+06
3.43166e+06
3.43178e+06
3.43217e+06
3.43245e+06
3.43343e+06
3.4344e+06
3.43498e+06
3.43518e+06
3.42581e+06
3.42463e+06
3.42507e+06
3.42452e+06
3.42509e+06
3.42491e+06
3.42586e+06
3.42653e+06
3.42709e+06
3.42733e+06
3.41926e+06
3.41705e+06
3.41802e+06
3.41676e+06
3.41735e+06
3.41654e+06
3.41727e+06
3.41738e+06
3.41785e+06
3.41814e+06
3.41267e+06
3.40969e+06
3.41092e+06
3.40893e+06
3.40926e+06
3.40754e+06
3.40773e+06
3.40682e+06
3.40707e+06
3.40741e+06
3.4068e+06
3.40342e+06
3.40459e+06
3.40178e+06
3.40141e+06
3.39832e+06
3.39744e+06
3.39477e+06
3.39461e+06
3.39501e+06
3.40329e+06
3.39983e+06
3.40038e+06
3.39656e+06
3.39487e+06
3.38972e+06
3.38683e+06
3.38115e+06
3.38022e+06
3.38057e+06
3.40445e+06
3.4012e+06
3.40051e+06
3.39541e+06
3.39139e+06
3.38334e+06
3.377e+06
3.36621e+06
3.3639e+06
3.36404e+06
3.4138e+06
3.41092e+06
3.4083e+06
3.40142e+06
3.39386e+06
3.38183e+06
3.36962e+06
3.35059e+06
3.3455e+06
3.34502e+06
3.43604e+06
3.43353e+06
3.42836e+06
3.4189e+06
3.4064e+06
3.38869e+06
3.36714e+06
3.33666e+06
3.32571e+06
3.32409e+06
3.47733e+06
3.47503e+06
3.46693e+06
3.45411e+06
3.43561e+06
3.41034e+06
3.37637e+06
3.33115e+06
3.3064e+06
3.30268e+06
3.54482e+06
3.54256e+06
3.53168e+06
3.51553e+06
3.49124e+06
3.458e+06
3.41128e+06
3.34667e+06
3.29288e+06
3.28669e+06
3.64298e+06
3.6407e+06
3.62799e+06
3.60909e+06
3.57957e+06
3.53875e+06
3.4787e+06
3.38792e+06
3.28695e+06
3.2767e+06
3.77221e+06
3.76959e+06
3.75562e+06
3.73406e+06
3.70033e+06
3.65109e+06
3.57404e+06
3.46194e+06
3.32865e+06
3.29005e+06
3.92325e+06
3.9218e+06
3.91231e+06
3.89721e+06
3.87291e+06
3.83154e+06
3.76445e+06
3.65555e+06
3.4098e+06
3.06644e+06
4.09517e+06
4.09565e+06
4.09359e+06
4.09194e+06
4.09009e+06
4.08647e+06
4.08804e+06
4.08363e+06
4.00357e+06
3.95265e+06
4.23843e+06
4.36437e+06
4.42582e+06
4.45513e+06
4.47165e+06
4.48116e+06
4.48711e+06
4.20468e+06
4.2056e+06
4.20548e+06
4.20664e+06
4.20821e+06
4.21074e+06
4.21756e+06
4.22726e+06
4.23813e+06
4.29105e+06
4.37622e+06
4.41404e+06
4.44478e+06
4.46288e+06
4.47505e+06
4.4828e+06
4.48795e+06
4.30649e+06
4.30757e+06
4.30855e+06
4.31132e+06
4.3151e+06
4.3204e+06
4.32872e+06
4.33791e+06
4.34679e+06
4.37142e+06
4.40901e+06
4.43563e+06
4.45569e+06
4.46909e+06
4.47836e+06
4.48464e+06
4.48897e+06
4.36423e+06
4.36525e+06
4.36653e+06
4.36952e+06
4.37358e+06
4.37931e+06
4.38697e+06
4.39671e+06
4.40896e+06
4.4251e+06
4.44186e+06
4.45554e+06
4.46698e+06
4.47558e+06
4.48207e+06
4.4868e+06
4.49024e+06
4.41005e+06
4.41086e+06
4.41173e+06
4.41385e+06
4.41666e+06
4.4206e+06
4.42565e+06
4.43172e+06
4.43895e+06
4.44811e+06
4.458e+06
4.46684e+06
4.47439e+06
4.48042e+06
4.48514e+06
4.48874e+06
4.49146e+06
4.43669e+06
4.43732e+06
4.43805e+06
4.43978e+06
4.44203e+06
4.44512e+06
4.44893e+06
4.4535e+06
4.45871e+06
4.46445e+06
4.47023e+06
4.47561e+06
4.48041e+06
4.48448e+06
4.48783e+06
4.49051e+06
4.49262e+06
4.45626e+06
4.45665e+06
4.45711e+06
4.45824e+06
4.45968e+06
4.46169e+06
4.46412e+06
4.46702e+06
4.47032e+06
4.47398e+06
4.47774e+06
4.48134e+06
4.48464e+06
4.48752e+06
4.48997e+06
4.492e+06
4.49364e+06
4.46832e+06
4.46859e+06
4.46892e+06
4.46977e+06
4.47083e+06
4.47228e+06
4.47401e+06
4.47606e+06
4.47832e+06
4.48075e+06
4.48322e+06
4.48564e+06
4.48789e+06
4.48994e+06
4.49172e+06
4.49325e+06
4.49453e+06
4.4769e+06
4.47716e+06
4.47737e+06
4.47793e+06
4.47862e+06
4.47959e+06
4.48074e+06
4.4821e+06
4.48363e+06
4.48528e+06
4.48698e+06
4.48868e+06
4.49029e+06
4.49178e+06
4.49312e+06
4.49429e+06
4.49529e+06
4.4826e+06
4.4828e+06
4.48295e+06
4.48336e+06
4.48386e+06
4.48455e+06
4.48537e+06
4.48634e+06
4.48741e+06
4.48857e+06
4.48977e+06
4.49097e+06
4.49214e+06
4.49323e+06
4.49424e+06
4.49514e+06
4.49593e+06
4.48675e+06
4.4869e+06
4.48699e+06
4.48728e+06
4.48762e+06
4.4881e+06
4.48866e+06
4.48935e+06
4.4901e+06
4.49093e+06
4.4918e+06
4.49268e+06
4.49354e+06
4.49437e+06
4.49514e+06
4.49584e+06
4.49646e+06
4.49701e+06
4.49747e+06
4.48963e+06
4.48976e+06
4.48982e+06
4.49003e+06
4.49028e+06
4.49063e+06
4.49104e+06
4.49154e+06
4.49209e+06
4.4927e+06
4.49334e+06
4.49399e+06
4.49464e+06
4.49527e+06
4.49587e+06
4.49642e+06
4.49692e+06
4.49736e+06
4.49774e+06
4.49178e+06
4.49188e+06
4.49192e+06
4.49208e+06
4.49225e+06
4.49251e+06
4.49281e+06
4.49317e+06
4.49358e+06
4.49403e+06
4.49451e+06
4.49501e+06
4.4955e+06
4.49599e+06
4.49646e+06
4.4969e+06
4.4973e+06
4.49766e+06
4.49797e+06
4.49336e+06
4.49344e+06
4.49346e+06
4.49358e+06
4.49371e+06
4.4939e+06
4.49413e+06
4.4944e+06
4.49471e+06
4.49506e+06
4.49542e+06
4.4958e+06
4.49619e+06
4.49657e+06
4.49694e+06
4.49729e+06
4.49762e+06
4.49791e+06
4.49817e+06
4.49456e+06
4.49463e+06
4.49464e+06
4.49473e+06
4.49483e+06
4.49497e+06
4.49514e+06
4.49535e+06
4.49559e+06
4.49585e+06
4.49614e+06
4.49644e+06
4.49674e+06
4.49704e+06
4.49734e+06
4.49762e+06
4.49789e+06
4.49813e+06
4.49835e+06
4.49547e+06
4.49553e+06
4.49554e+06
4.49561e+06
4.49568e+06
4.4958e+06
4.49593e+06
4.49609e+06
4.49628e+06
4.49649e+06
4.49671e+06
4.49694e+06
4.49719e+06
4.49743e+06
4.49767e+06
4.4979e+06
4.49812e+06
4.49832e+06
4.4985e+06
4.49619e+06
4.49623e+06
4.49624e+06
4.4963e+06
4.49636e+06
4.49645e+06
4.49655e+06
4.49668e+06
4.49683e+06
4.49699e+06
4.49717e+06
4.49736e+06
4.49755e+06
4.49775e+06
4.49794e+06
4.49813e+06
4.49831e+06
4.49848e+06
4.49863e+06
4.49676e+06
4.49679e+06
4.4968e+06
4.49685e+06
4.49689e+06
4.49696e+06
4.49705e+06
4.49715e+06
4.49727e+06
4.4974e+06
4.49754e+06
4.49769e+06
4.49785e+06
4.49801e+06
4.49817e+06
4.49833e+06
4.49848e+06
4.49862e+06
4.49875e+06
4.49721e+06
4.49724e+06
4.49724e+06
4.49728e+06
4.49732e+06
4.49738e+06
4.49744e+06
4.49753e+06
4.49762e+06
4.49773e+06
4.49785e+06
4.49797e+06
4.4981e+06
4.49823e+06
4.49837e+06
4.4985e+06
4.49862e+06
4.49874e+06
4.49885e+06
4.49757e+06
4.4976e+06
4.4976e+06
4.49764e+06
4.49767e+06
4.49772e+06
4.49777e+06
4.49784e+06
4.49792e+06
4.498e+06
4.4981e+06
4.4982e+06
4.49831e+06
4.49842e+06
4.49853e+06
4.49864e+06
4.49874e+06
4.49884e+06
4.49894e+06
4.49787e+06
4.4979e+06
4.4979e+06
4.49793e+06
4.49795e+06
4.498e+06
4.49804e+06
4.4981e+06
4.49816e+06
4.49823e+06
4.49831e+06
4.4984e+06
4.49849e+06
4.49858e+06
4.49867e+06
4.49876e+06
4.49885e+06
4.49893e+06
4.49901e+06
4.49813e+06
4.49814e+06
4.49815e+06
4.49817e+06
4.49819e+06
4.49823e+06
4.49826e+06
4.49831e+06
4.49836e+06
4.49842e+06
4.49849e+06
4.49856e+06
4.49864e+06
4.49871e+06
4.49879e+06
4.49887e+06
4.49894e+06
4.49901e+06
4.49908e+06
4.49834e+06
4.49835e+06
4.49835e+06
4.49837e+06
4.49839e+06
4.49842e+06
4.49845e+06
4.49849e+06
4.49853e+06
4.49858e+06
4.49864e+06
4.4987e+06
4.49876e+06
4.49883e+06
4.49889e+06
4.49896e+06
4.49902e+06
4.49908e+06
4.49914e+06
4.49851e+06
4.49852e+06
4.49852e+06
4.49854e+06
4.49856e+06
4.49858e+06
4.49861e+06
4.49864e+06
4.49868e+06
4.49872e+06
4.49877e+06
4.49882e+06
4.49887e+06
4.49893e+06
4.49898e+06
4.49904e+06
4.49909e+06
4.49914e+06
4.49919e+06
4.49866e+06
4.49867e+06
4.49867e+06
4.49868e+06
4.4987e+06
4.49872e+06
4.49874e+06
4.49877e+06
4.4988e+06
4.49884e+06
4.49888e+06
4.49892e+06
4.49896e+06
4.49901e+06
4.49906e+06
4.4991e+06
4.49915e+06
4.4992e+06
4.49924e+06
4.49879e+06
4.49879e+06
4.49879e+06
4.49881e+06
4.49882e+06
4.49883e+06
4.49885e+06
4.49888e+06
4.49891e+06
4.49894e+06
4.49897e+06
4.49901e+06
4.49904e+06
4.49908e+06
4.49912e+06
4.49916e+06
4.4992e+06
4.49924e+06
4.49928e+06
4.49889e+06
4.4989e+06
4.4989e+06
4.49891e+06
4.49892e+06
4.49893e+06
4.49895e+06
4.49897e+06
4.499e+06
4.49902e+06
4.49905e+06
4.49908e+06
4.49912e+06
4.49915e+06
4.49918e+06
4.49922e+06
4.49925e+06
4.49928e+06
4.49931e+06
4.49899e+06
4.49899e+06
4.49899e+06
4.499e+06
4.49901e+06
4.49902e+06
4.49904e+06
4.49905e+06
4.49907e+06
4.4991e+06
4.49912e+06
4.49915e+06
4.49918e+06
4.49921e+06
4.49923e+06
4.49926e+06
4.49929e+06
4.49932e+06
4.49935e+06
4.49907e+06
4.49907e+06
4.49907e+06
4.49908e+06
4.49909e+06
4.4991e+06
4.49911e+06
4.49913e+06
4.49914e+06
4.49916e+06
4.49918e+06
4.49921e+06
4.49923e+06
4.49926e+06
4.49928e+06
4.4993e+06
4.49933e+06
4.49935e+06
4.49938e+06
4.49914e+06
4.49915e+06
4.49914e+06
4.49915e+06
4.49916e+06
4.49917e+06
4.49918e+06
4.49919e+06
4.4992e+06
4.49922e+06
4.49924e+06
4.49926e+06
4.49928e+06
4.4993e+06
4.49932e+06
4.49934e+06
4.49936e+06
4.49938e+06
4.4994e+06
4.4992e+06
4.49921e+06
4.49921e+06
4.49921e+06
4.49922e+06
4.49922e+06
4.49923e+06
4.49924e+06
4.49926e+06
4.49927e+06
4.49929e+06
4.4993e+06
4.49932e+06
4.49934e+06
4.49936e+06
4.49937e+06
4.49939e+06
4.49941e+06
4.49943e+06
4.49926e+06
4.49926e+06
4.49926e+06
4.49927e+06
4.49927e+06
4.49928e+06
4.49929e+06
4.49929e+06
4.49931e+06
4.49932e+06
4.49933e+06
4.49934e+06
4.49936e+06
4.49937e+06
4.49939e+06
4.4994e+06
4.49942e+06
4.49943e+06
4.49945e+06
4.49931e+06
4.49931e+06
4.49931e+06
4.49931e+06
4.49932e+06
4.49932e+06
4.49933e+06
4.49934e+06
4.49935e+06
4.49936e+06
4.49937e+06
4.49938e+06
4.49939e+06
4.49941e+06
4.49942e+06
4.49943e+06
4.49944e+06
4.49946e+06
4.49947e+06
4.49936e+06
4.49936e+06
4.49936e+06
4.49936e+06
4.49936e+06
4.49937e+06
4.49937e+06
4.49938e+06
4.49939e+06
4.4994e+06
4.4994e+06
4.49941e+06
4.49942e+06
4.49943e+06
4.49944e+06
4.49946e+06
4.49947e+06
4.49948e+06
4.49949e+06
4.49939e+06
4.4994e+06
4.4994e+06
4.4994e+06
4.4994e+06
4.49941e+06
4.49941e+06
4.49942e+06
4.49942e+06
4.49943e+06
4.49944e+06
4.49944e+06
4.49945e+06
4.49946e+06
4.49947e+06
4.49948e+06
4.49949e+06
4.49949e+06
4.4995e+06
4.49943e+06
4.49944e+06
4.49944e+06
4.49944e+06
4.49944e+06
4.49944e+06
4.49945e+06
4.49945e+06
4.49946e+06
4.49946e+06
4.49947e+06
4.49947e+06
4.49948e+06
4.49949e+06
4.49949e+06
4.4995e+06
4.49951e+06
4.49951e+06
4.49952e+06
4.49946e+06
4.49946e+06
4.49947e+06
4.49947e+06
4.49947e+06
4.49947e+06
4.49948e+06
4.49948e+06
4.49948e+06
4.49949e+06
4.49949e+06
4.4995e+06
4.4995e+06
4.49951e+06
4.49951e+06
4.49952e+06
4.49952e+06
4.49953e+06
4.49953e+06
4.49951e+06
4.49951e+06
4.49951e+06
4.49951e+06
4.49951e+06
4.49951e+06
4.49951e+06
4.49951e+06
4.49952e+06
4.49952e+06
4.49952e+06
4.49952e+06
4.49953e+06
4.49953e+06
4.49953e+06
4.49954e+06
4.49954e+06
4.49954e+06
4.49955e+06
4.49953e+06
4.49953e+06
4.49953e+06
4.49953e+06
4.49953e+06
4.49953e+06
4.49953e+06
4.49954e+06
4.49954e+06
4.49954e+06
4.49954e+06
4.49955e+06
4.49955e+06
4.49955e+06
4.49955e+06
4.49956e+06
4.49956e+06
4.49956e+06
4.49956e+06
4.49957e+06
4.49958e+06
4.49958e+06
4.49958e+06
4.49958e+06
4.49958e+06
4.49958e+06
4.49958e+06
4.49958e+06
4.49958e+06
4.49958e+06
4.49958e+06
4.49958e+06
4.49958e+06
4.49958e+06
4.49958e+06
4.49958e+06
4.49958e+06
4.49958e+06
3.45867e+06
3.46497e+06
3.4603e+06
3.46389e+06
3.46375e+06
3.45526e+06
3.46346e+06
3.44666e+06
3.47257e+06
3.47304e+06
3.47396e+06
3.47251e+06
3.47369e+06
3.46184e+06
3.47043e+06
3.44898e+06
3.44074e+06
3.43199e+06
3.46736e+06
3.47673e+06
3.48451e+06
3.48559e+06
3.48739e+06
3.49513e+06
3.48798e+06
3.4953e+06
3.48762e+06
3.48954e+06
3.47589e+06
3.48134e+06
3.45984e+06
3.45341e+06
3.44204e+06
3.47236e+06
3.48195e+06
3.48845e+06
3.48953e+06
3.49052e+06
3.52444e+06
3.51e+06
3.52328e+06
3.51016e+06
3.51277e+06
3.49943e+06
3.50032e+06
3.48384e+06
3.47713e+06
3.46106e+06
3.48201e+06
3.49063e+06
3.49427e+06
3.49479e+06
3.49446e+06
3.55795e+06
3.53878e+06
3.55601e+06
3.5396e+06
3.54313e+06
3.53214e+06
3.52901e+06
3.522e+06
3.51353e+06
3.48882e+06
3.49661e+06
3.50258e+06
3.50193e+06
3.5013e+06
3.49919e+06
3.59223e+06
3.57082e+06
3.58955e+06
3.57293e+06
3.57722e+06
3.57059e+06
3.56514e+06
3.56874e+06
3.55722e+06
3.52296e+06
3.51354e+06
3.5168e+06
3.51087e+06
3.50877e+06
3.50454e+06
3.6237e+06
3.60326e+06
3.62082e+06
3.6064e+06
3.61016e+06
3.60887e+06
3.601e+06
3.616e+06
3.59773e+06
3.55875e+06
3.52823e+06
3.53161e+06
3.52005e+06
3.51674e+06
3.51027e+06
3.64981e+06
3.63315e+06
3.64716e+06
3.63607e+06
3.63766e+06
3.63937e+06
3.62747e+06
3.65233e+06
3.62186e+06
3.59052e+06
3.54048e+06
3.54596e+06
3.52926e+06
3.52493e+06
3.51627e+06
3.67094e+06
3.66212e+06
3.66892e+06
3.66199e+06
3.66012e+06
3.66061e+06
3.64644e+06
3.66983e+06
3.62932e+06
3.61292e+06
3.55525e+06
3.55946e+06
3.53942e+06
3.53327e+06
3.52263e+06
3.68952e+06
3.69366e+06
3.68874e+06
3.68826e+06
3.68299e+06
3.68202e+06
3.67242e+06
3.68223e+06
3.65401e+06
3.64104e+06
3.58231e+06
3.57411e+06
3.5523e+06
3.54188e+06
3.5295e+06
3.70614e+06
3.72311e+06
3.70701e+06
3.71408e+06
3.70774e+06
3.7093e+06
3.70929e+06
3.71104e+06
3.71033e+06
3.69293e+06
3.62615e+06
3.59114e+06
3.56867e+06
3.55076e+06
3.53686e+06
3.71896e+06
3.74133e+06
3.72104e+06
3.73245e+06
3.72753e+06
3.73278e+06
3.74124e+06
3.74422e+06
3.76146e+06
3.73844e+06
3.67494e+06
3.60437e+06
3.58486e+06
3.55857e+06
3.54384e+06
3.72628e+06
3.74542e+06
3.7281e+06
3.73938e+06
3.73648e+06
3.74277e+06
3.75412e+06
3.75601e+06
3.7784e+06
3.75265e+06
3.71146e+06
3.61238e+06
3.5969e+06
3.56447e+06
3.5495e+06
3.72795e+06
3.74102e+06
3.72915e+06
3.73741e+06
3.73581e+06
3.74117e+06
3.75022e+06
3.75002e+06
3.76729e+06
3.74754e+06
3.72425e+06
3.62817e+06
3.60254e+06
3.56997e+06
3.55334e+06
3.7231e+06
3.73038e+06
3.72432e+06
3.72965e+06
3.72899e+06
3.73319e+06
3.73894e+06
3.73898e+06
3.74851e+06
3.73687e+06
3.72344e+06
3.65103e+06
3.60366e+06
3.57565e+06
3.55544e+06
3.71312e+06
3.71692e+06
3.71509e+06
3.71813e+06
3.718e+06
3.7211e+06
3.72442e+06
3.72482e+06
3.72947e+06
3.72282e+06
3.71423e+06
3.66298e+06
3.60339e+06
3.57844e+06
3.55591e+06
3.69995e+06
3.7023e+06
3.70263e+06
3.7044e+06
3.70447e+06
3.70693e+06
3.70862e+06
3.70942e+06
3.71093e+06
3.70767e+06
3.70109e+06
3.66463e+06
3.60435e+06
3.57818e+06
3.55537e+06
3.68769e+06
3.68775e+06
3.688e+06
3.6893e+06
3.68932e+06
3.69173e+06
3.69269e+06
3.69423e+06
3.69417e+06
3.69326e+06
3.68713e+06
3.6608e+06
3.60489e+06
3.57573e+06
3.55371e+06
3.67125e+06
3.67216e+06
3.67137e+06
3.673e+06
3.67291e+06
3.67569e+06
3.67669e+06
3.67938e+06
3.679e+06
3.67966e+06
3.67296e+06
3.65353e+06
3.6028e+06
3.5714e+06
3.55055e+06
3.65341e+06
3.65499e+06
3.65308e+06
3.65511e+06
3.65507e+06
3.65829e+06
3.65968e+06
3.66366e+06
3.66337e+06
3.66534e+06
3.65748e+06
3.64295e+06
3.59698e+06
3.56504e+06
3.54564e+06
3.63428e+06
3.6351e+06
3.63317e+06
3.63509e+06
3.6354e+06
3.63875e+06
3.64032e+06
3.64513e+06
3.64436e+06
3.64781e+06
3.63873e+06
3.62825e+06
3.58712e+06
3.55626e+06
3.5389e+06
3.614e+06
3.61292e+06
3.61231e+06
3.61312e+06
3.61396e+06
3.61665e+06
3.61785e+06
3.62223e+06
3.62004e+06
3.62481e+06
3.61533e+06
3.60861e+06
3.57364e+06
3.54506e+06
3.53047e+06
3.59259e+06
3.58873e+06
3.59067e+06
3.59002e+06
3.59146e+06
3.59268e+06
3.59298e+06
3.59546e+06
3.59165e+06
3.59652e+06
3.58826e+06
3.58463e+06
3.55757e+06
3.53214e+06
3.52084e+06
3.57113e+06
3.56526e+06
3.56941e+06
3.56733e+06
3.56904e+06
3.56854e+06
3.56772e+06
3.56764e+06
3.56293e+06
3.56637e+06
3.5606e+06
3.55913e+06
3.54009e+06
3.5189e+06
3.5107e+06
3.55058e+06
3.54432e+06
3.54942e+06
3.54648e+06
3.54798e+06
3.54613e+06
3.54433e+06
3.54208e+06
3.53743e+06
3.53887e+06
3.53592e+06
3.53574e+06
3.52301e+06
3.50678e+06
3.50089e+06
3.53291e+06
3.52682e+06
3.5314e+06
3.52836e+06
3.52929e+06
3.52672e+06
3.52433e+06
3.52087e+06
3.51694e+06
3.51685e+06
3.51609e+06
3.51644e+06
3.50809e+06
3.49639e+06
3.49216e+06
3.51632e+06
3.51238e+06
3.5157e+06
3.51319e+06
3.51344e+06
3.51072e+06
3.50818e+06
3.50443e+06
3.50148e+06
3.50062e+06
3.50115e+06
3.50138e+06
3.49602e+06
3.50231e+06
3.50067e+06
3.50244e+06
3.50073e+06
3.50039e+06
3.49792e+06
3.49556e+06
3.4921e+06
3.4901e+06
3.48897e+06
3.49013e+06
3.49e+06
3.48665e+06
3.49084e+06
3.49102e+06
3.49148e+06
3.49055e+06
3.48983e+06
3.48775e+06
3.48577e+06
3.48281e+06
3.48161e+06
3.48045e+06
3.48179e+06
3.48133e+06
3.47928e+06
3.48207e+06
3.48303e+06
3.48253e+06
3.48216e+06
3.48128e+06
3.4796e+06
3.47805e+06
3.4756e+06
3.475e+06
3.47389e+06
3.47524e+06
3.47458e+06
3.47338e+06
3.47485e+06
3.47614e+06
3.47533e+06
3.4752e+06
3.47432e+06
3.47295e+06
3.47177e+06
3.46973e+06
3.46952e+06
3.46839e+06
3.46968e+06
3.46898e+06
3.46835e+06
3.46918e+06
3.47024e+06
3.46949e+06
3.46934e+06
3.46858e+06
3.46743e+06
3.46653e+06
3.4648e+06
3.46485e+06
3.4637e+06
3.46503e+06
3.46432e+06
3.46425e+06
3.46461e+06
3.46515e+06
3.46471e+06
3.46443e+06
3.46381e+06
3.46279e+06
3.46203e+06
3.46052e+06
3.46065e+06
3.4594e+06
3.46068e+06
3.46011e+06
3.46044e+06
3.46109e+06
3.46094e+06
3.46083e+06
3.46034e+06
3.45986e+06
3.45893e+06
3.45821e+06
3.45693e+06
3.45706e+06
3.45592e+06
3.45732e+06
3.45682e+06
3.45767e+06
3.4581e+06
3.45745e+06
3.45769e+06
3.45701e+06
3.45665e+06
3.45576e+06
3.455e+06
3.45393e+06
3.45377e+06
3.45264e+06
3.45359e+06
3.45373e+06
3.45449e+06
3.45577e+06
3.45476e+06
3.45525e+06
3.45438e+06
3.45407e+06
3.45312e+06
3.45223e+06
3.45136e+06
3.45092e+06
3.4504e+06
3.45157e+06
3.4521e+06
3.45316e+06
3.4541e+06
3.45287e+06
3.45353e+06
3.45252e+06
3.45221e+06
3.45109e+06
3.44991e+06
3.44858e+06
3.44688e+06
3.44646e+06
3.44625e+06
3.44863e+06
3.45006e+06
3.45341e+06
3.45207e+06
3.45285e+06
3.45184e+06
3.45166e+06
3.45064e+06
3.44967e+06
3.44845e+06
3.44707e+06
3.44695e+06
3.45333e+06
3.45209e+06
3.45291e+06
3.45203e+06
3.45202e+06
3.45125e+06
3.45066e+06
3.44993e+06
3.44943e+06
3.44945e+06
3.45385e+06
3.45279e+06
3.45356e+06
3.45284e+06
3.45294e+06
3.4524e+06
3.45206e+06
3.45164e+06
3.45139e+06
3.4514e+06
3.45469e+06
3.4539e+06
3.45458e+06
3.45405e+06
3.45422e+06
3.45387e+06
3.4537e+06
3.4535e+06
3.45339e+06
3.45344e+06
3.45577e+06
3.4553e+06
3.45584e+06
3.45549e+06
3.45568e+06
3.45547e+06
3.45539e+06
3.45533e+06
3.45528e+06
3.45533e+06
3.45701e+06
3.45684e+06
3.45723e+06
3.45705e+06
3.45722e+06
3.45711e+06
3.4571e+06
3.45712e+06
3.4571e+06
3.45717e+06
3.45845e+06
3.45848e+06
3.45871e+06
3.45864e+06
3.45876e+06
3.45872e+06
3.45875e+06
3.45883e+06
3.45883e+06
3.4589e+06
3.45988e+06
3.46006e+06
3.46019e+06
3.46018e+06
3.46029e+06
3.46028e+06
3.46033e+06
3.46044e+06
3.46046e+06
3.46054e+06
3.46137e+06
3.46157e+06
3.46165e+06
3.46163e+06
3.46175e+06
3.46174e+06
3.4618e+06
3.46194e+06
3.46197e+06
3.46205e+06
3.46281e+06
3.46291e+06
3.46303e+06
3.46296e+06
3.46309e+06
3.46307e+06
3.46314e+06
3.46331e+06
3.46333e+06
3.46342e+06
3.46421e+06
3.4641e+06
3.46429e+06
3.46412e+06
3.46427e+06
3.46424e+06
3.46432e+06
3.46451e+06
3.46454e+06
3.46463e+06
3.46537e+06
3.46502e+06
3.46534e+06
3.46508e+06
3.46525e+06
3.46521e+06
3.4653e+06
3.46553e+06
3.46556e+06
3.46565e+06
3.46626e+06
3.46571e+06
3.46613e+06
3.46581e+06
3.46599e+06
3.46596e+06
3.46606e+06
3.46633e+06
3.46637e+06
3.46646e+06
3.46676e+06
3.46611e+06
3.46659e+06
3.46626e+06
3.46643e+06
3.46646e+06
3.46657e+06
3.4669e+06
3.46695e+06
3.46704e+06
3.46687e+06
3.46625e+06
3.46667e+06
3.46641e+06
3.46656e+06
3.46668e+06
3.46679e+06
3.4672e+06
3.46725e+06
3.46736e+06
3.4664e+06
3.46604e+06
3.46633e+06
3.46624e+06
3.46633e+06
3.46659e+06
3.46669e+06
3.4672e+06
3.46727e+06
3.46737e+06
3.46543e+06
3.46551e+06
3.46555e+06
3.46572e+06
3.46573e+06
3.46614e+06
3.46625e+06
3.46687e+06
3.46695e+06
3.46706e+06
3.46392e+06
3.46461e+06
3.46431e+06
3.46483e+06
3.46473e+06
3.46531e+06
3.46544e+06
3.46616e+06
3.46628e+06
3.4664e+06
3.46198e+06
3.46335e+06
3.46262e+06
3.46351e+06
3.46329e+06
3.46407e+06
3.46422e+06
3.46505e+06
3.46521e+06
3.46533e+06
3.45955e+06
3.46162e+06
3.46047e+06
3.46175e+06
3.4614e+06
3.46235e+06
3.46255e+06
3.46349e+06
3.46369e+06
3.46382e+06
3.45673e+06
3.45941e+06
3.45789e+06
3.45946e+06
3.45905e+06
3.46012e+06
3.4604e+06
3.46142e+06
3.46169e+06
3.46181e+06
3.45357e+06
3.45665e+06
3.45486e+06
3.45662e+06
3.45618e+06
3.45733e+06
3.4577e+06
3.4588e+06
3.45912e+06
3.45925e+06
3.45022e+06
3.4533e+06
3.45138e+06
3.45315e+06
3.45275e+06
3.45389e+06
3.45439e+06
3.45554e+06
3.45593e+06
3.45606e+06
3.44638e+06
3.44916e+06
3.44739e+06
3.44898e+06
3.44871e+06
3.44976e+06
3.45039e+06
3.45157e+06
3.45203e+06
3.45217e+06
3.44213e+06
3.44426e+06
3.44282e+06
3.44405e+06
3.44397e+06
3.44485e+06
3.44562e+06
3.44679e+06
3.44732e+06
3.44747e+06
3.43731e+06
3.43846e+06
3.43759e+06
3.43831e+06
3.43847e+06
3.43909e+06
3.44e+06
3.44111e+06
3.44168e+06
3.44185e+06