/*--------------------------------*- C++ -*----------------------------------*\
| =========                 |                                                 |
| \\      /  F ield         | OpenFOAM: The Open Source CFD Toolbox           |
|  \\    /   O peration     | Version:  v2012                                 |
|   \\  /    A nd           | Website:  www.openfoam.com                      |
|    \\/     M anipulation  |                                                 |
\*---------------------------------------------------------------------------*/
FoamFile
{
    version     2.0;
    format      ascii;
    class       surfaceScalarField;
    location    "0.55";
    object      phi;
}
// * * * * * * * * * * * * * * * * * * * * * * * * * * * * * * * * * * * * * //

dimensions      [0 3 -1 0 0 0 0];
oriented        oriented;


internalField   nonuniform List<scalar> 
8048
(
6.02747e-14
-7.01171e-13
4.24013e-17
5.85925e-13
-6.56665e-12
-6.79952e-16
2.07145e-12
-1.91807e-11
-1.4047e-16
4.99027e-12
-3.85637e-11
3.28456e-15
9.75808e-12
-6.4782e-11
4.25465e-15
1.67872e-11
-9.79601e-11
3.93802e-15
2.64931e-11
-1.38213e-10
9.06613e-15
-1.85686e-10
2.08518e-14
6.80771e-14
-7.69336e-13
-6.79449e-18
6.64776e-13
-7.16528e-12
-2.33183e-16
2.32552e-12
-2.08561e-11
-1.73829e-15
5.5643e-12
-4.18184e-11
-1.89459e-15
1.08758e-11
-7.00876e-11
6.29624e-16
1.86777e-11
-1.05767e-10
-6.30146e-16
2.9402e-11
-1.48951e-10
-1.24937e-15
4.34455e-11
-1.99749e-10
-1.12076e-15
6.1207e-11
-2.58159e-10
3.65621e-15
8.29726e-11
-3.24222e-10
5.90103e-15
1.09069e-10
-3.97746e-10
1.73305e-14
1.39435e-10
-4.78524e-10
-5.04793e-15
1.74435e-10
-5.66282e-10
5.75516e-15
2.13969e-10
-6.6045e-10
-6.41789e-16
-7.60443e-10
5.39075e-15
7.78433e-14
-8.47357e-13
-2.24333e-17
7.56455e-13
-7.84289e-12
1.11845e-16
2.62984e-12
-2.27414e-11
-1.39952e-15
6.25895e-12
-4.54683e-11
-2.45671e-15
1.21834e-11
-7.60206e-11
-1.04541e-15
2.08662e-11
-1.1447e-10
-2.37099e-15
3.27886e-11
-1.60878e-10
-5.75253e-16
4.83555e-11
-2.15326e-10
-1.14986e-15
6.79554e-11
-2.77766e-10
-5.50151e-16
9.1911e-11
-3.48185e-10
-1.24736e-16
1.20555e-10
-4.26324e-10
7.74012e-15
1.53823e-10
-5.11903e-10
-1.30766e-14
1.92035e-10
-6.04529e-10
-4.02119e-15
2.35059e-10
-7.03531e-10
-6.89461e-15
-8.08215e-10
1.79136e-15
8.92125e-14
-9.36294e-13
3.29021e-17
8.56555e-13
-8.60939e-12
9.2982e-17
2.96412e-12
-2.48613e-11
-1.48712e-15
7.04005e-12
-4.95559e-11
-1.41231e-15
1.36612e-11
-8.26466e-11
-5.98131e-16
2.33457e-11
-1.24168e-10
-1.73341e-15
3.66098e-11
-1.74144e-10
-4.02121e-16
5.38818e-11
-2.32612e-10
-1.86536e-15
7.55622e-11
-2.99462e-10
-1.68095e-15
1.01992e-10
-3.74628e-10
-9.47134e-16
1.33484e-10
-4.57758e-10
6.89358e-15
1.6996e-10
-5.4849e-10
-1.34715e-14
2.11713e-10
-6.46323e-10
-4.7483e-15
2.5857e-10
-7.50446e-10
-7.48645e-15
-8.60056e-10
1.31127e-15
1.02675e-13
-1.03912e-12
-2.05563e-17
9.78865e-13
-9.48437e-12
1.40506e-16
3.37124e-12
-2.72646e-11
-1.30932e-15
7.97182e-12
-5.41666e-11
-1.2327e-15
1.54075e-11
-9.00885e-11
-7.27684e-16
2.62445e-11
-1.35018e-10
-1.56936e-15
4.10425e-11
-1.88932e-10
1.10664e-15
6.02413e-11
-2.51814e-10
-5.50097e-16
8.42792e-11
-3.23495e-10
6.91551e-16
1.13483e-10
-4.03828e-10
9.19176e-16
1.48168e-10
-4.92367e-10
8.51371e-15
1.88221e-10
-5.88636e-10
-1.16378e-14
2.3389e-10
-6.92023e-10
-4.12059e-15
2.84953e-10
-8.01558e-10
-6.46027e-15
-9.16314e-10
1.07917e-15
1.18777e-13
-1.15699e-12
1.07162e-16
1.11433e-12
-1.04792e-11
8.02026e-17
3.82248e-12
-2.99831e-11
-1.23598e-15
9.00252e-12
-5.93613e-11
-1.75651e-15
1.73579e-11
-9.84451e-11
-1.65726e-16
2.94894e-11
-1.4717e-10
-2.41882e-15
4.60144e-11
-2.05449e-10
7.58945e-16
6.73894e-11
-2.73207e-10
-2.32342e-15
9.40765e-11
-3.5019e-10
-8.22783e-16
1.26396e-10
-4.3616e-10
-1.07958e-15
1.64651e-10
-5.3056e-10
7.03031e-15
2.0869e-10
-6.32782e-10
-1.34299e-14
2.58704e-10
-7.42084e-10
-5.72519e-15
3.14404e-10
-8.57313e-10
-7.50738e-15
-9.77399e-10
9.69836e-16
1.38112e-13
-1.29479e-12
3.34251e-17
1.28419e-12
-1.16245e-11
7.81964e-17
4.37948e-12
-3.30868e-11
-1.00456e-15
1.02625e-11
-6.52593e-11
-1.77414e-15
1.97014e-11
-1.0789e-10
-7.61107e-16
3.33504e-11
-1.60842e-10
-2.80132e-15
5.18707e-11
-2.23959e-10
1.20829e-15
7.57353e-11
-2.97086e-10
-1.74062e-15
1.05433e-10
-3.79875e-10
1.58635e-15
1.41263e-10
-4.71982e-10
1.37358e-15
1.8351e-10
-5.72718e-10
1.02204e-14
2.31977e-10
-6.81328e-10
-1.0161e-14
2.86782e-10
-7.9691e-10
-3.00598e-15
3.47556e-10
-9.18118e-10
-4.66144e-15
-1.04371e-09
2.49099e-15
1.59561e-13
-1.4539e-12
5.08429e-17
1.47e-12
-1.29339e-11
1.15465e-16
4.98795e-12
-3.66162e-11
-1.37778e-15
1.1654e-11
-7.19356e-11
-1.24647e-15
2.23044e-11
-1.18541e-10
4.9873e-17
3.76538e-11
-1.76215e-10
-2.82737e-15
5.84234e-11
-2.44712e-10
1.87549e-15
8.50913e-11
-3.23778e-10
-2.89364e-15
1.18182e-10
-4.12953e-10
1.69815e-15
1.57964e-10
-5.11765e-10
3.93452e-16
2.04689e-10
-6.19362e-10
9.19477e-15
2.58117e-10
-7.34836e-10
-1.0186e-14
3.18257e-10
-8.57075e-10
-3.33005e-15
3.84641e-10
-9.84532e-10
-4.68561e-15
-1.11576e-09
2.93055e-15
1.88127e-13
-1.64228e-12
-3.74352e-17
1.71132e-12
-1.44557e-11
1.55273e-16
5.76398e-12
-4.06758e-11
-8.33311e-16
1.33876e-11
-7.95668e-11
-9.00666e-16
2.54947e-11
-1.30651e-10
-2.98157e-16
4.2861e-11
-1.93606e-10
-2.92863e-15
6.62584e-11
-2.68082e-10
3.4317e-15
9.61722e-11
-3.53701e-10
-9.19051e-16
1.33141e-10
-4.49881e-10
4.93141e-15
1.77398e-10
-5.55993e-10
3.91483e-15
2.29148e-10
-6.70995e-10
1.2985e-14
2.88076e-10
-7.93817e-10
-6.97719e-15
3.54079e-10
-9.23083e-10
-8.72038e-16
4.26574e-10
-1.05704e-09
-3.10648e-15
-1.19402e-09
1.83128e-15
2.20678e-13
-1.86117e-12
2.07461e-16
1.97192e-12
-1.62059e-11
1.19025e-16
6.59914e-12
-4.53205e-11
-2.0989e-15
1.52779e-11
-8.82532e-11
-9.0735e-16
2.9006e-11
-1.44381e-10
-1.90077e-16
4.8627e-11
-2.1326e-10
-3.82248e-15
7.49907e-11
-2.9441e-10
3.98913e-15
1.08538e-10
-3.8732e-10
-9.22573e-15
1.49856e-10
-4.91228e-10
-3.71337e-15
1.99143e-10
-6.05329e-10
-6.34179e-15
2.565e-10
-7.2837e-10
-2.03702e-15
3.21642e-10
-8.5901e-10
-7.38235e-15
3.94212e-10
-9.95692e-10
-5.25462e-15
4.73489e-10
-1.13635e-09
-4.57096e-15
-1.27909e-09
-2.59051e-16
2.63968e-13
-2.12436e-12
8.29297e-17
2.32251e-12
-1.8263e-11
1.56565e-16
7.70396e-12
-5.07114e-11
-1.12358e-15
1.77073e-11
-9.82571e-11
-4.25975e-17
3.34203e-11
-1.60097e-10
-2.32164e-16
5.57584e-11
-2.3563e-10
-3.48037e-15
8.56156e-11
-3.24219e-10
5.61399e-15
1.23432e-10
-4.25193e-10
-7.09137e-15
1.69785e-10
-5.37582e-10
-5.36421e-16
2.24809e-10
-6.60372e-10
-2.76001e-15
2.8852e-10
-7.9206e-10
1.89228e-15
3.60506e-10
-9.31019e-10
-3.96734e-15
4.40253e-10
-1.07545e-09
-2.00333e-15
5.26857e-10
-1.22296e-09
-1.85428e-15
-1.3714e-09
9.44586e-16
3.09205e-13
-2.4326e-12
1.03876e-16
2.6888e-12
-2.06403e-11
2.68246e-16
8.87124e-12
-5.69033e-11
-1.16349e-15
2.031e-11
-1.09698e-10
-1.77861e-16
3.81977e-11
-1.77995e-10
-1.06827e-15
6.35469e-11
-2.61011e-10
-3.58133e-15
9.73045e-11
-3.57925e-10
6.13172e-15
1.39912e-10
-4.67865e-10
-8.08412e-15
1.91942e-10
-5.89613e-10
-6.30531e-16
2.53444e-10
-7.219e-10
-3.88244e-15
3.24323e-10
-8.62927e-10
8.59147e-16
4.04024e-10
-1.01074e-09
-4.22801e-15
4.91809e-10
-1.16325e-09
-2.37383e-15
5.86546e-10
-1.31771e-09
-1.81181e-15
-1.47166e-09
1.4792e-15
3.77506e-13
-2.80994e-12
1.19634e-17
3.21189e-12
-2.34705e-11
5.01526e-16
1.04739e-11
-6.41682e-11
-3.60711e-16
2.37712e-11
-1.22991e-10
4.45941e-16
4.44066e-11
-1.98638e-10
-7.44015e-16
7.3465e-11
-2.90097e-10
-2.96735e-15
1.11921e-10
-3.96321e-10
7.00297e-15
1.60199e-10
-5.16198e-10
-6.88352e-15
2.18815e-10
-6.48212e-10
1.69217e-15
2.87714e-10
-7.90804e-10
-1.13806e-15
3.66654e-10
-9.41824e-10
4.28922e-15
4.54879e-10
-1.09896e-09
-6.89829e-16
5.51418e-10
-1.25977e-09
3.52257e-16
6.54874e-10
-1.42114e-09
5.46358e-16
-1.58031e-09
1.5898e-15
4.49994e-13
-3.25511e-12
5.61768e-16
3.73624e-12
-2.67603e-11
-4.95202e-16
1.20961e-11
-7.25618e-11
-4.00706e-15
2.73623e-11
-1.38266e-10
-8.15714e-16
5.09831e-11
-2.22262e-10
-3.622e-16
8.40722e-11
-3.23268e-10
-1.0019e-14
1.27693e-10
-4.39949e-10
-8.59824e-16
1.82322e-10
-5.70893e-10
-8.28699e-15
2.48367e-10
-7.14252e-10
-6.70792e-17
3.25634e-10
-8.68097e-10
-3.55287e-15
4.13699e-10
-1.02986e-09
2.0516e-15
5.11561e-10
-1.19683e-09
-2.27642e-15
6.1793e-10
-1.36614e-09
-1.57173e-15
7.31077e-10
-1.53428e-09
-4.38781e-16
-1.69813e-09
9.41094e-16
5.59922e-13
-3.81124e-12
4.40793e-16
4.53143e-12
-3.07333e-11
-2.27341e-16
1.44638e-11
-8.25221e-11
-3.25711e-15
3.23807e-11
-1.56186e-10
-1.39389e-16
5.98614e-11
-2.49736e-10
7.38309e-16
9.80813e-11
-3.61558e-10
-8.39881e-15
1.48102e-10
-4.89961e-10
9.03706e-16
2.1034e-10
-6.33179e-10
-6.0163e-15
2.85083e-10
-7.88961e-10
3.29927e-15
3.71946e-10
-9.54958e-10
-3.52617e-16
4.70256e-10
-1.12812e-09
4.72471e-15
5.78711e-10
-1.30527e-09
4.37753e-16
6.95659e-10
-1.48309e-09
-1.10271e-15
8.1901e-10
-1.65761e-09
-6.06541e-17
-1.82539e-09
9.28612e-16
6.66146e-13
-4.47309e-12
5.06791e-16
5.29952e-12
-3.53668e-11
-2.38904e-17
1.68069e-11
-9.406e-11
-3.68185e-15
3.74382e-11
-1.76856e-10
-4.59403e-15
6.89582e-11
-2.81291e-10
-4.05022e-15
1.1269e-10
-4.05355e-10
-8.01095e-15
1.69697e-10
-5.46958e-10
8.83453e-16
2.40355e-10
-7.03897e-10
-7.44225e-15
3.24835e-10
-8.7342e-10
1.84879e-15
4.22533e-10
-1.05266e-09
-1.46447e-15
5.3244e-10
-1.23801e-09
1.59712e-15
6.52917e-10
-1.4257e-09
1.67402e-15
7.81797e-10
-1.61197e-09
-2.76584e-15
9.16538e-10
-1.79233e-09
-9.48022e-16
-1.963e-09
-3.99576e-16
8.469e-13
-5.31755e-12
2.76524e-16
6.5286e-12
-4.10481e-11
3.25706e-17
2.03684e-11
-1.07915e-10
-1.80097e-15
4.48452e-11
-2.01351e-10
-2.25246e-15
8.18586e-11
-3.18319e-10
-1.74952e-15
1.3278e-10
-4.56318e-10
-5.0042e-15
1.98613e-10
-6.12755e-10
3.63745e-15
2.79589e-10
-7.84913e-10
-5.14325e-15
3.75648e-10
-9.69431e-10
4.27047e-15
4.85852e-10
-1.16286e-09
-5.31328e-16
6.08768e-10
-1.36093e-09
-2.75468e-15
7.42334e-10
-1.55925e-09
-1.04568e-15
8.83823e-10
-1.75353e-09
-1.03771e-14
1.0302e-09
-1.93875e-09
-8.69018e-15
-2.11081e-09
-2.23272e-15
1.01641e-12
-6.3301e-12
4.51719e-16
7.66207e-12
-4.76899e-11
4.55827e-16
2.37104e-11
-1.24003e-10
-4.80754e-15
5.19995e-11
-2.29652e-10
-1.53406e-15
9.46027e-11
-3.6094e-10
-2.25128e-15
1.5302e-10
-5.14788e-10
-6.68061e-15
2.28252e-10
-6.87993e-10
-1.14071e-15
3.20482e-10
-8.77193e-10
-6.60631e-15
4.29374e-10
-1.07831e-09
6.24154e-16
5.5366e-10
-1.28714e-09
-1.25829e-15
6.91362e-10
-1.49864e-09
-3.54387e-15
8.39815e-10
-1.70773e-09
-7.87637e-15
9.95627e-10
-1.90945e-09
-1.86343e-14
1.15506e-09
-2.09829e-09
-1.75275e-14
-2.26986e-09
-1.25127e-14
1.31943e-12
-7.64915e-12
2.72229e-17
9.59172e-12
-5.5959e-11
3.62458e-16
2.91394e-11
-1.43563e-10
-1.53065e-15
6.30705e-11
-2.63563e-10
2.23125e-15
1.13599e-10
-4.11453e-10
1.58506e-15
1.82233e-10
-5.83435e-10
-1.90919e-15
2.69799e-10
-7.7553e-10
2.59532e-15
3.7619e-10
-9.83602e-10
-3.07369e-15
5.00629e-10
-1.20269e-09
3.74325e-15
6.41277e-10
-1.42776e-09
3.97493e-16
7.95485e-10
-1.65288e-09
-6.62072e-15
9.59905e-10
-1.87217e-09
-9.86085e-15
1.13038e-09
-2.08008e-09
-2.33206e-14
1.30249e-09
-2.27053e-09
-2.39702e-14
-2.439e-09
-1.15102e-14
1.58814e-12
-9.23514e-12
2.30316e-16
1.12428e-11
-6.56066e-11
8.12098e-16
3.39043e-11
-1.66235e-10
-1.40459e-15
7.30871e-11
-3.02764e-10
-2.44368e-15
1.31276e-10
-4.69676e-10
-4.37095e-15
2.10182e-10
-6.62346e-10
-1.33237e-15
3.10543e-10
-8.75863e-10
2.05353e-15
4.32044e-10
-1.10513e-09
-4.77307e-15
5.73494e-10
-1.34411e-09
9.91259e-16
7.32433e-10
-1.58668e-09
-1.4341e-15
9.05392e-10
-1.82591e-09
-1.14602e-14
1.08813e-09
-2.05493e-09
-9.53455e-15
1.27546e-09
-2.26758e-09
-2.70302e-14
1.462e-09
-2.45722e-09
-2.44804e-14
-2.61932e-09
-1.29546e-14
2.09346e-12
-1.13303e-11
-1.81208e-16
1.42806e-11
-7.77765e-11
2.10264e-15
4.22089e-11
-1.94156e-10
5.56179e-16
8.976e-11
-3.50312e-10
-4.29614e-17
1.59557e-10
-5.39485e-10
-1.78433e-15
2.53215e-10
-7.55978e-10
2.1133e-15
3.71108e-10
-9.93691e-10
5.89079e-15
5.12317e-10
-1.24632e-09
-2.181e-16
6.74856e-10
-1.50657e-09
6.38135e-15
8.55263e-10
-1.76702e-09
3.44642e-15
1.04904e-09
-2.01969e-09
-6.06547e-15
1.25081e-09
-2.25666e-09
-5.42007e-15
1.45442e-09
-2.47131e-09
-2.19683e-14
1.65355e-09
-2.65646e-09
-2.38653e-14
-2.80791e-09
-1.12527e-14
2.51461e-12
-1.38209e-11
2.74192e-15
1.65984e-11
-9.18712e-11
-1.81544e-15
4.87274e-11
-2.26419e-10
-1.57604e-14
1.03531e-10
-4.0518e-10
-7.7468e-15
1.84016e-10
-6.19967e-10
-1.14167e-15
2.91772e-10
-8.63792e-10
-8.26847e-15
4.2713e-10
-1.12906e-09
-4.23594e-15
5.88733e-10
-1.40797e-09
-8.14787e-15
7.73846e-10
-1.69166e-09
-3.40337e-15
9.77944e-10
-1.97111e-09
-4.91561e-15
1.19528e-09
-2.2371e-09
-1.7432e-14
1.41904e-09
-2.48043e-09
-1.01422e-14
1.64168e-09
-2.69411e-09
-3.10408e-14
1.85554e-09
-2.87046e-09
-2.49158e-14
-3.00597e-09
-1.69209e-14
3.29838e-12
-1.71028e-11
1.89853e-15
2.12581e-11
-1.09831e-10
-4.80518e-16
6.13858e-11
-2.66662e-10
-1.33947e-14
1.28807e-10
-4.72648e-10
-5.7661e-15
2.26657e-10
-7.17782e-10
2.10256e-15
3.5619e-10
-9.93324e-10
-2.17397e-15
5.16959e-10
-1.28978e-09
2.56374e-15
7.06425e-10
-1.5974e-09
-4.5216e-16
9.20417e-10
-1.90556e-09
4.14963e-15
1.15267e-09
-2.20328e-09
1.84393e-15
1.39581e-09
-2.48025e-09
-8.58055e-15
1.64129e-09
-2.72582e-09
-4.27268e-15
1.88031e-09
-2.93322e-09
-2.10025e-14
2.1041e-09
-3.09431e-09
-2.17886e-14
-3.20705e-09
-1.16565e-14
3.79024e-12
-2.08733e-11
2.24949e-15
2.42588e-11
-1.30296e-10
1.68919e-16
7.0255e-11
-3.12787e-10
-1.59385e-14
1.4772e-10
-5.50303e-10
-2.45119e-14
2.60345e-10
-8.30484e-10
-1.05706e-14
4.09482e-10
-1.14249e-09
-6.15696e-15
5.94271e-10
-1.47453e-09
-2.36061e-15
8.1125e-10
-1.81435e-09
-1.32333e-15
1.05501e-09
-2.14927e-09
-3.94297e-15
1.31751e-09
-2.4657e-09
-3.08591e-16
1.58951e-09
-2.75229e-09
-1.68308e-14
1.8602e-09
-2.99646e-09
-6.85792e-15
2.11902e-09
-3.19217e-09
-3.01372e-14
2.35535e-09
-3.33075e-09
-2.45533e-14
-3.41266e-09
-2.13313e-14
4.89606e-12
-2.57625e-11
6.80589e-16
3.12635e-11
-1.56666e-10
-7.91667e-16
8.96709e-11
-3.71255e-10
-7.77781e-15
1.86667e-10
-6.47407e-10
-1.5308e-14
3.25929e-10
-9.69709e-10
2.1327e-15
5.07913e-10
-1.32436e-09
8.06749e-15
7.30192e-10
-1.69667e-09
8.67541e-15
9.87055e-10
-2.07105e-09
9.78992e-15
1.27059e-09
-2.43271e-09
1.6456e-15
1.56973e-09
-2.76468e-09
5.65131e-15
1.87273e-09
-3.05528e-09
-7.97527e-15
2.166e-09
-3.28961e-09
-3.18566e-15
2.43771e-09
-3.46393e-09
-1.62017e-14
2.676e-09
-3.56905e-09
-1.61458e-14
-3.60969e-09
-1.61773e-14
5.44679e-12
-3.11805e-11
3.20205e-15
3.51066e-11
-1.86301e-10
2.30552e-15
1.01644e-10
-4.3791e-10
-1.54994e-14
2.12941e-10
-7.58761e-10
-1.00522e-14
3.72996e-10
-1.12976e-09
-4.39577e-15
5.82038e-10
-1.53341e-09
-8.03197e-15
8.36928e-10
-1.95165e-09
-2.22532e-14
1.13025e-09
-2.36441e-09
-1.37159e-14
1.45228e-09
-2.75483e-09
-2.4546e-14
1.78875e-09
-3.10115e-09
-1.08191e-14
2.12547e-09
-3.39207e-09
-2.24136e-14
2.44504e-09
-3.60918e-09
-1.2762e-14
2.73385e-09
-3.75281e-09
-1.94431e-14
2.97757e-09
2.51492e-15
1.06411e-15
7.27477e-12
-3.84491e-11
3.30408e-16
4.64307e-11
-2.25458e-10
-1.1086e-15
1.32745e-10
-5.24197e-10
1.47566e-15
2.74829e-10
-9.00714e-10
1.10143e-14
4.76214e-10
-1.33093e-09
2.08934e-14
7.35285e-10
-1.79225e-09
1.96484e-14
1.04593e-09
-2.26221e-09
-7.55104e-16
1.39666e-09
-2.71496e-09
1.04247e-14
1.77365e-09
-3.13178e-09
-6.53373e-15
2.15722e-09
-3.48456e-09
1.02405e-14
2.52921e-09
-3.764e-09
-2.67026e-15
2.86759e-09
-3.94746e-09
3.2965e-15
-4.04321e-09
-4.82776e-15
8.0928e-12
-4.65406e-11
-3.03381e-16
5.18778e-11
-2.69234e-10
-6.57788e-17
1.49833e-10
-6.22095e-10
3.92469e-15
3.11836e-10
-1.06266e-09
1.36285e-15
5.41735e-10
-1.56084e-09
-9.09076e-15
8.37338e-10
-2.08762e-09
1.78688e-14
1.19119e-09
-2.6161e-09
-1.53469e-14
1.58854e-09
-3.11219e-09
5.55273e-15
2.01329e-09
-3.55663e-09
-1.85756e-14
2.44041e-09
-3.91151e-09
1.6125e-14
2.84816e-09
-4.17182e-09
-3.95456e-15
3.20842e-09
-4.30762e-09
7.91508e-15
-4.34043e-09
-7.00156e-15
1.10751e-11
-5.76585e-11
-5.31771e-15
7.03301e-11
-3.28519e-10
-5.10031e-15
1.99982e-10
-7.51455e-10
3.24362e-14
4.10478e-10
-1.27282e-09
3.42477e-14
7.04007e-10
-1.85416e-09
2.02896e-14
1.07492e-09
-2.45806e-09
5.35879e-14
1.51097e-09
-3.05198e-09
1.4404e-14
1.99085e-09
-3.59173e-09
4.65284e-14
2.49271e-09
-4.05841e-09
6.84177e-15
2.98125e-09
-4.39974e-09
5.81004e-14
3.42644e-09
-4.61705e-09
3.8742e-15
3.79136e-09
-4.67243e-09
4.16012e-14
-4.61174e-09
8.42805e-16
1.26487e-11
-7.02738e-11
2.80088e-15
7.88253e-11
-3.94577e-10
1.30832e-14
2.24548e-10
-8.96767e-10
4.61008e-14
4.61362e-10
-1.50928e-09
3.62695e-14
7.91289e-10
-2.18407e-09
1.28265e-15
1.20753e-09
-2.87397e-09
4.07832e-14
1.6966e-09
-3.54119e-09
2.15896e-15
2.23124e-09
-4.12636e-09
1.93203e-14
2.78824e-09
-4.61568e-09
2.92052e-14
3.32313e-09
-4.93431e-09
7.57153e-14
3.79922e-09
-5.0931e-09
7.85418e-14
4.16761e-09
-5.04053e-09
7.11859e-14
-4.86302e-09
1.03706e-13
1.77796e-11
-8.81038e-11
-4.70164e-15
1.08263e-10
-4.85194e-10
-1.82757e-15
3.03026e-10
-1.09081e-09
1.1116e-13
6.12402e-10
-1.81807e-09
7.20203e-14
1.03538e-09
-2.60689e-09
5.06888e-14
1.55811e-09
-3.39633e-09
7.19488e-14
2.16283e-09
-4.14611e-09
3.87283e-14
2.81412e-09
-4.7777e-09
8.61503e-14
3.48686e-09
-5.28834e-09
8.07295e-14
4.11653e-09
-5.56354e-09
1.96988e-13
4.6304e-09
-5.60702e-09
5.43886e-14
4.9649e-09
-5.37483e-09
1.58973e-13
-5.02464e-09
8.2614e-14
2.02306e-11
-1.08162e-10
2.93601e-14
1.1943e-10
-5.84821e-10
-2.93063e-14
3.33525e-10
-1.30356e-09
5.78754e-13
6.69135e-10
-2.15314e-09
1.15086e-13
1.12879e-09
-3.06658e-09
1.05892e-13
1.69591e-09
-3.96284e-09
1.73829e-13
2.35589e-09
-4.80505e-09
2.37442e-13
3.06176e-09
-5.48399e-09
1.18791e-13
3.78565e-09
-6.01186e-09
2.55294e-13
4.46598e-09
-6.24194e-09
2.86081e-13
4.98658e-09
-6.12796e-09
1.58333e-13
5.26806e-09
-5.65583e-09
1.60834e-13
-5.10421e-09
2.53805e-13
2.60654e-11
-1.3437e-10
-2.6838e-14
1.6019e-10
-7.1816e-10
8.31553e-14
4.40345e-10
-1.58027e-09
1.55635e-12
8.75697e-10
-2.58764e-09
1.04513e-13
1.45173e-09
-3.64276e-09
2.55498e-13
2.1409e-09
-4.65064e-09
4.65463e-13
2.93309e-09
-5.59562e-09
6.01249e-13
3.7834e-09
-6.33455e-09
2.49858e-13
4.71836e-09
-6.94612e-09
3.35185e-13
5.64645e-09
-7.16854e-09
4.69208e-13
6.20464e-09
-6.68694e-09
-1.07557e-13
6.33798e-09
-5.78923e-09
1.95499e-13
-4.9353e-09
2.79014e-13
3.9324e-11
-1.73104e-10
1.08215e-13
1.86519e-10
-8.62786e-10
1.87906e-13
4.58931e-10
-1.85013e-09
7.65805e-13
8.90255e-10
-2.98472e-09
-1.62751e-11
1.47046e-09
-4.2019e-09
-9.54132e-12
2.18385e-09
-5.34216e-09
1.03448e-11
3.02203e-09
-6.41007e-09
1.11112e-11
3.89855e-09
-7.20915e-09
4.34422e-13
4.79102e-09
-7.82477e-09
8.26508e-12
5.86201e-09
-7.93441e-09
1.52479e-10
6.33151e-09
-7.15321e-09
3.18794e-13
6.22077e-09
-5.67814e-09
-1.78021e-13
-4.5441e-09
5.98935e-14
1.64988e-11
-1.89842e-10
1.82826e-13
1.43529e-10
-9.90066e-10
3.09257e-13
4.77146e-10
-2.18238e-09
-2.9879e-14
1.06752e-09
-3.5699e-09
-1.80615e-12
1.81228e-09
-4.93898e-09
-2.02432e-12
2.57638e-09
-6.08598e-09
6.21948e-12
3.35632e-09
-7.16901e-09
6.72805e-12
4.15482e-09
-7.99691e-09
-1.84369e-12
5.58394e-09
-9.24283e-09
8.21046e-12
7.95149e-09
-9.15048e-09
5.5996e-10
8.31226e-09
-7.51422e-09
7.72302e-12
7.50005e-09
-4.86513e-09
-1.42516e-12
-3.48626e-09
-2.09912e-13
5.2518e-11
-1.72838e-10
-2.17714e-12
1.2449e-10
-9.9996e-10
1.96409e-12
2.61679e-10
-2.3042e-09
-2.2192e-12
6.17274e-10
-3.90565e-09
-3.83628e-12
1.27059e-09
-5.53255e-09
-1.45472e-11
2.19399e-09
-6.90837e-09
1.76521e-11
3.31925e-09
-8.09097e-09
4.8205e-11
4.43769e-09
-8.97475e-09
-4.63127e-11
5.4126e-09
-1.004e-08
4.82696e-11
6.28343e-09
-9.75288e-09
8.02336e-11
6.58948e-09
-7.08545e-09
-2.94855e-11
5.40661e-09
-3.67458e-09
-4.29424e-13
-2.2397e-09
-1.80264e-12
2.42109e-11
-1.42902e-10
6.76691e-14
1.62998e-10
-8.01393e-10
-1.90518e-13
5.49488e-10
-1.847e-09
7.57313e-13
1.44016e-09
-3.15872e-09
3.37491e-13
2.39164e-09
-4.61232e-09
-2.1175e-11
2.71446e-09
-5.93898e-09
4.38964e-11
1.81389e-09
-6.91566e-09
9.45043e-14
8.64662e-10
-7.38459e-09
2.87717e-12
3.9829e-09
-6.76969e-09
-1.96944e-10
9.12577e-09
-5.16068e-09
-1.90361e-11
8.84474e-09
-5.39368e-10
5.21209e-09
-5.2349e-12
-4.32703e-12
2.00908e-11
-1.21433e-10
-4.36662e-14
9.8769e-11
-6.15742e-10
-8.49421e-14
2.60763e-10
-1.36858e-09
-2.39579e-13
5.39607e-10
-2.27632e-09
-2.37852e-13
8.98072e-10
-3.22471e-09
-1.19445e-13
1.16863e-09
-4.05193e-09
-3.32213e-13
1.26818e-09
-4.54822e-09
-1.41664e-12
1.27313e-09
-4.5699e-09
2.63541e-13
1.15334e-09
-3.6845e-09
8.59195e-13
-1.7423e-09
7.43171e-13
1.49242e-11
-1.13559e-10
-3.99729e-15
7.05831e-11
-5.25062e-10
-6.38172e-14
1.69156e-10
-1.11157e-09
-8.14911e-14
3.08171e-10
-1.78998e-09
-1.49826e-13
4.69318e-10
-2.46514e-09
2.7292e-14
6.06531e-10
-3.01544e-09
-1.28918e-13
6.70152e-10
-3.29524e-09
-3.98084e-13
6.08896e-10
-3.16447e-09
-3.0148e-13
3.40058e-10
-2.452e-09
-7.52275e-16
-1.02864e-09
6.55436e-14
9.92876e-12
-1.12539e-10
-2.34951e-15
4.53156e-11
-4.91838e-10
-5.47317e-15
1.02192e-10
-9.99763e-10
-3.52847e-14
1.74276e-10
-1.56251e-09
-3.34837e-14
2.49049e-10
-2.10467e-09
-8.84567e-14
3.05461e-10
-2.53208e-09
-6.90073e-14
3.18476e-10
-2.73303e-09
-8.6656e-14
2.64603e-10
-2.58721e-09
-5.44747e-14
1.27723e-10
-1.97206e-09
5.09857e-15
-7.9845e-10
2.07781e-15
5.16867e-12
-1.15049e-10
-4.19031e-16
2.42083e-11
-4.93362e-10
-4.72016e-15
5.36224e-11
-9.8213e-10
-5.71241e-15
8.70427e-11
-1.50854e-09
-2.43692e-14
1.15903e-10
-2.00535e-09
-1.77203e-14
1.3054e-10
-2.3928e-09
-3.66133e-14
1.21111e-10
-2.57529e-09
-3.41543e-14
7.67641e-11
-2.4457e-09
-3.33672e-14
1.64611e-11
-1.88775e-09
-1.61004e-14
-7.81983e-10
-5.44523e-15
1.79947e-12
-1.16849e-10
-6.82897e-18
1.00567e-11
-5.01619e-10
-8.80711e-16
2.13058e-11
-9.9338e-10
-2.53709e-15
2.92691e-11
-1.5165e-09
-7.87346e-15
2.87566e-11
-2.00484e-09
-8.30765e-15
1.84809e-11
-2.38252e-09
-1.56915e-14
2.63311e-12
-2.55944e-09
-1.61305e-14
-1.04792e-11
-2.43259e-09
-1.43985e-14
-1.09693e-11
-1.88725e-09
-1.25828e-14
-7.92955e-10
-1.5379e-15
-6.30194e-14
-1.16786e-10
9.1818e-17
1.35943e-12
-5.03042e-10
-1.33428e-16
4.63878e-12
-9.9666e-10
-7.68219e-16
8.57495e-12
-1.52044e-09
-1.98329e-15
1.12784e-11
-2.00754e-09
-4.41348e-15
1.12042e-11
-2.38245e-09
-4.65243e-15
8.26935e-12
-2.5565e-09
-7.2599e-15
3.32097e-12
-2.42764e-09
-6.79126e-15
-7.30447e-13
-1.8832e-09
-2.98598e-15
-7.93681e-10
-2.65538e-15
-2.27939e-12
-1.14507e-10
1.8698e-16
-7.33069e-12
-4.97991e-10
2.2317e-16
-1.13897e-11
-9.92601e-10
-1.65901e-16
-1.18493e-11
-1.51998e-09
-5.4673e-16
-8.12641e-12
-2.01127e-09
-1.06184e-15
-1.30419e-12
-2.38927e-09
-2.32782e-15
6.33104e-12
-2.56414e-09
-2.16583e-15
1.04221e-11
-2.43173e-09
-2.26008e-15
7.75683e-12
-1.88053e-09
-2.84533e-15
-7.85925e-10
3.21853e-16
-5.65483e-12
-1.08852e-10
2.03638e-16
-1.94405e-11
-4.84205e-10
2.65905e-16
-3.24122e-11
-9.7963e-10
1.66021e-16
-3.97616e-11
-1.51263e-09
-6.11753e-18
-3.95433e-11
-2.01148e-09
-2.90326e-16
-3.19063e-11
-2.39691e-09
-4.66334e-16
-1.85587e-11
-2.57749e-09
-8.37254e-16
-4.47871e-12
-2.44581e-09
-1.10676e-15
3.3283e-12
-1.88834e-09
5.90144e-17
-7.82595e-10
-7.08523e-16
-1.35041e-11
-9.53478e-11
1.68427e-16
-4.3732e-11
-4.53977e-10
2.3768e-16
-7.43665e-11
-9.48996e-10
2.10224e-16
-1.0356e-10
-1.48344e-09
1.8627e-16
-1.30033e-10
-1.98501e-09
8.47918e-17
-1.4825e-10
-2.37869e-09
-6.16867e-17
-1.48883e-10
-2.57685e-09
-2.01637e-16
-1.21842e-10
-2.47285e-09
-5.39214e-17
-6.3969e-11
-1.94621e-09
-6.27588e-16
-8.46564e-10
3.14185e-16
1.8404e-12
-9.71882e-11
1.17246e-16
-1.13261e-11
-4.4081e-10
2.43277e-16
-6.60815e-11
-8.9424e-10
2.12735e-16
-1.68949e-10
-1.38057e-09
2.1457e-16
-3.17677e-10
-1.83628e-09
1.44906e-16
-4.89174e-10
-2.20719e-09
4.99234e-17
-6.42719e-10
-2.42331e-09
6.94192e-17
-6.96661e-10
-2.4189e-09
-1.55486e-16
-5.70728e-10
-2.07215e-09
2.2519e-16
-1.41729e-09
1.28755e-17
2.20453e-10
-3.17628e-10
1.69599e-15
3.75378e-10
-5.95664e-10
8.84259e-15
1.93321e-10
-7.12139e-10
5.78575e-15
-1.76979e-10
-1.01011e-09
1.86988e-14
-6.67431e-10
-1.34564e-09
2.32273e-14
-1.25693e-09
-1.61751e-09
2.26866e-14
-1.90956e-09
-1.77054e-09
1.65939e-14
-2.5753e-09
-1.75294e-09
2.77429e-14
-2.88898e-09
-1.75827e-09
2.54151e-14
-4.30595e-09
3.8281e-14
-7.52031e-12
-3.101e-10
2.85728e-15
5.57984e-12
-6.08667e-10
1.29537e-14
1.75896e-11
-7.2403e-10
1.43893e-14
-4.09386e-12
-9.88162e-10
3.25082e-14
-5.40302e-11
-1.29534e-09
4.44898e-14
-1.12577e-10
-1.55846e-09
6.07258e-14
-1.41018e-10
-1.74154e-09
6.43458e-14
-7.44952e-11
-1.81824e-09
1.40184e-13
1.77876e-10
-2.00936e-09
1.46629e-13
-4.12616e-09
2.15066e-13
-1.95997e-10
-1.14087e-10
3.52256e-15
-3.36619e-10
-4.67984e-10
8.17114e-15
-1.89129e-10
-8.71385e-10
1.61361e-14
1.13097e-10
-1.29015e-09
2.81411e-14
5.19431e-10
-1.70132e-09
4.45172e-14
1.03627e-09
-2.07438e-09
1.10855e-13
1.62106e-09
-2.32578e-09
6.16085e-14
2.28571e-09
-2.48122e-09
1.76299e-13
2.50767e-09
-2.22949e-09
1.87981e-13
-1.61571e-09
2.91869e-13
8.62868e-12
-1.22694e-10
3.48552e-15
1.20291e-11
-4.71269e-10
1.43927e-14
3.01303e-11
-8.89352e-10
1.63821e-14
7.96932e-11
-1.33967e-09
5.76892e-15
1.54483e-10
-1.77553e-09
6.72037e-14
2.45273e-10
-2.16384e-09
1.41226e-13
3.30977e-10
-2.41215e-09
-1.13028e-13
3.53485e-10
-2.50326e-09
6.50475e-15
2.64004e-10
-2.14179e-09
-2.72364e-13
-1.3555e-09
-5.02174e-13
-1.39474e-11
-1.08731e-10
2.94226e-15
-1.34917e-11
-4.71633e-10
1.15771e-14
3.10099e-11
-9.3382e-10
3.62897e-15
1.21016e-10
-1.42882e-09
9.96642e-14
2.47317e-10
-1.90007e-09
1.86613e-13
3.78613e-10
-2.29702e-09
-2.51081e-13
4.92754e-10
-2.52378e-09
3.83129e-13
4.99448e-10
-2.51105e-09
-6.87581e-14
3.90999e-10
-2.03288e-09
1.33026e-13
-9.60612e-10
5.07203e-13
1.19286e-12
-1.09903e-10
3.02081e-15
6.40762e-12
-4.76678e-10
2.04165e-14
1.89974e-11
-9.46359e-10
6.02805e-15
3.91234e-11
-1.4483e-09
7.45256e-14
6.46677e-11
-1.9236e-09
2.11274e-13
8.28333e-11
-2.31664e-09
-2.15327e-13
9.33762e-11
-2.53299e-09
2.16212e-13
7.27656e-11
-2.49269e-09
-2.39109e-13
3.82596e-11
-2.00147e-09
-3.23674e-13
-9.24912e-10
-2.67462e-13
1.67587e-12
-1.11548e-10
4.24461e-15
1.10302e-11
-4.86034e-10
-3.19641e-18
3.03356e-11
-9.65475e-10
2.25231e-14
5.91347e-11
-1.47601e-09
1.27478e-13
9.4048e-11
-1.95634e-09
2.30516e-13
1.20192e-10
-2.3436e-09
-1.47778e-13
1.35904e-10
-2.54732e-09
2.13892e-13
1.14334e-10
-2.47288e-09
-1.94978e-13
7.10478e-11
-1.96073e-09
-2.80038e-13
-8.5557e-10
-1.9458e-13
6.72474e-13
-1.12172e-10
5.88276e-15
3.63652e-12
-4.88849e-10
1.77261e-14
9.06028e-12
-9.70661e-10
2.88876e-14
1.5684e-11
-1.48229e-09
3.22709e-14
2.30125e-11
-1.96244e-09
1.05821e-13
2.40807e-11
-2.34641e-09
-2.52809e-13
2.38972e-11
-2.54526e-09
2.73369e-13
1.37301e-11
-2.46323e-09
-5.9679e-14
2.94777e-12
-1.95128e-09
-1.43814e-13
-8.53092e-10
-6.50208e-14
1.67211e-12
-1.13817e-10
3.58713e-15
6.70451e-12
-4.93891e-10
-1.69194e-15
1.53335e-11
-9.78457e-10
9.03118e-14
2.49231e-11
-1.4918e-09
-5.09123e-17
3.51634e-11
-1.97219e-09
9.08871e-14
4.12e-11
-2.35251e-09
-3.96571e-15
4.14595e-11
-2.54697e-09
-1.6812e-13
3.20817e-11
-2.45467e-09
-9.84745e-14
1.76629e-11
-1.93776e-09
-1.0999e-13
-8.3602e-10
-7.33198e-14
5.80233e-13
-1.14356e-10
4.77162e-15
2.0332e-12
-4.95205e-10
1.5712e-14
4.96726e-12
-9.80467e-10
1.00937e-13
6.82458e-12
-1.4942e-09
-7.89255e-14
8.54876e-12
-1.97425e-09
-1.48022e-14
7.87392e-12
-2.35286e-09
-1.19389e-13
5.53966e-12
-2.54578e-09
-1.31437e-13
1.63801e-12
-2.45098e-09
-3.06067e-14
-1.62076e-12
-1.93489e-09
-4.8612e-14
-8.37899e-10
-3.31558e-14
7.75304e-13
-1.15088e-10
5.099e-15
3.04625e-12
-4.97401e-10
8.01317e-15
7.54378e-12
-9.83962e-10
1.10485e-13
1.14105e-11
-1.49829e-09
-3.97613e-14
1.50608e-11
-1.97806e-09
2.2619e-15
1.62406e-11
-2.35495e-09
-1.08686e-13
1.50317e-11
-2.54559e-09
-1.19152e-13
1.13646e-11
-2.44746e-09
-2.01589e-14
6.01852e-12
-1.92981e-09
-3.32906e-14
-8.32104e-10
-2.79197e-14
3.88142e-14
-1.15081e-10
4.88156e-15
7.11543e-13
-4.97978e-10
1.03084e-14
3.06108e-12
-9.85251e-10
1.17717e-13
4.47678e-12
-1.49984e-09
-3.14014e-14
5.5792e-12
-1.97922e-09
1.58193e-14
4.85941e-12
-2.35511e-09
-1.07361e-13
2.83324e-12
-2.54458e-09
-1.18361e-13
6.45264e-13
-2.44548e-09
-2.75427e-14
-1.19799e-12
-1.92833e-09
-4.42035e-14
-8.33578e-10
-3.40001e-14
2.48758e-13
-1.15311e-10
4.40295e-15
1.55808e-12
-4.9927e-10
3.66897e-15
4.68052e-12
-9.87605e-10
7.67326e-14
7.65136e-12
-1.50253e-09
2.02878e-14
9.87391e-12
-1.98143e-09
2.1306e-14
1.00051e-11
-2.35614e-09
-1.07993e-13
8.45012e-12
-2.54396e-09
-1.09529e-13
6.10593e-12
-2.44329e-09
-1.97324e-14
2.96433e-12
-1.92548e-09
-3.64959e-14
-8.30819e-10
-2.58107e-14
7.63452e-14
-1.15329e-10
7.77021e-15
9.34716e-13
-5.00096e-10
3.96939e-15
3.1589e-12
-9.89246e-10
5.17919e-14
5.08236e-12
-1.50438e-09
-3.37416e-15
6.22768e-12
-1.98278e-09
-7.3961e-16
5.86985e-12
-2.35645e-09
-8.20889e-14
3.91631e-12
-2.5429e-09
-1.01934e-13
1.76904e-12
-2.44126e-09
-1.62259e-14
-3.03258e-13
-1.92371e-09
-3.62837e-14
-8.31333e-10
-2.6161e-14
1.93837e-13
-1.15535e-10
-1.21204e-15
1.58488e-12
-5.01578e-10
-1.03538e-14
4.34218e-12
-9.92014e-10
2.15926e-15
7.21038e-12
-1.50748e-09
-2.6877e-14
9.45672e-12
-1.98506e-09
-6.94765e-15
9.6814e-12
-2.35702e-09
-4.05998e-14
8.16967e-12
-2.54175e-09
-4.46994e-14
5.41829e-12
-2.43873e-09
-2.67473e-14
2.30088e-12
-1.92084e-09
-3.09958e-14
-8.29281e-10
-3.06011e-14
1.30737e-13
-1.15651e-10
1.42686e-15
1.59729e-12
-5.03094e-10
-6.26335e-15
4.23254e-12
-9.94806e-10
-1.79083e-14
6.75666e-12
-1.51041e-09
-4.76203e-14
8.52535e-12
-1.98704e-09
-2.46273e-14
8.59631e-12
-2.35711e-09
-3.61402e-15
6.71572e-12
-2.54009e-09
-2.69258e-14
3.7094e-12
-2.43583e-09
-1.36446e-14
7.41238e-13
-1.91804e-09
-2.02152e-14
-8.28708e-10
-2.07934e-14
3.18827e-13
-1.15969e-10
-3.3371e-16
2.51102e-12
-5.05344e-10
-7.25493e-15
6.16988e-12
-9.98521e-10
-6.42683e-15
9.66334e-12
-1.51415e-09
-3.0094e-14
1.17732e-11
-1.98952e-09
-4.44481e-14
1.18584e-11
-2.35752e-09
-3.98111e-14
9.77856e-12
-2.53832e-09
-3.86077e-14
6.23282e-12
-2.43258e-09
-3.51772e-14
2.40462e-12
-1.91455e-09
-4.12148e-14
-8.26729e-10
-5.21488e-14
4.63931e-13
-1.1644e-10
-1.00828e-15
3.10651e-12
-5.08035e-10
-5.97856e-15
7.1595e-12
-1.00255e-09
2.75701e-15
1.07416e-11
-1.51779e-09
-7.10582e-15
1.25718e-11
-1.9915e-09
-1.94327e-14
1.21763e-11
-2.35729e-09
-1.96729e-14
9.61055e-12