/*--------------------------------*- C++ -*----------------------------------*\
| =========                 |                                                 |
| \\      /  F ield         | OpenFOAM: The Open Source CFD Toolbox           |
|  \\    /   O peration     | Version:  v2012                                 |
|   \\  /    A nd           | Website:  www.openfoam.com                      |
|    \\/     M anipulation  |                                                 |
\*---------------------------------------------------------------------------*/
FoamFile
{
    version     2.0;
    format      ascii;
    class       surfaceScalarField;
    location    "0.5";
    object      phi;
}
// * * * * * * * * * * * * * * * * * * * * * * * * * * * * * * * * * * * * * //

dimensions      [0 3 -1 0 0 0 0];
oriented        oriented;


internalField   nonuniform List<scalar> 
8145
(
-2.34719e-08
8.09349e-08
-3.61682e-17
-1.99098e-08
8.52115e-08
-3.74676e-16
-1.62207e-08
8.73403e-08
-2.19043e-16
-1.25079e-08
8.67079e-08
-1.29984e-16
-8.90654e-09
8.26334e-08
-2.87498e-17
-5.59183e-09
7.43815e-08
1.556e-16
-2.7913e-09
6.11098e-08
-3.83444e-17
-7.99312e-10
4.19671e-08
-2.17022e-17
1.59606e-08
-3.1692e-17
-3.24266e-08
5.75133e-08
-4.95225e-16
-2.96574e-08
6.51234e-08
-3.40481e-16
-2.65886e-08
7.19518e-08
-2.47728e-16
-2.32609e-08
7.76072e-08
-3.51703e-17
-1.97307e-08
8.16812e-08
-3.70663e-16
-1.60744e-08
8.3684e-08
-2.15481e-16
-1.23948e-08
8.30283e-08
-1.24774e-16
-8.82605e-09
7.90646e-08
-2.17511e-17
-5.54163e-09
7.1097e-08
1.66076e-16
-2.76673e-09
5.83349e-08
-3.11409e-17
-7.92634e-10
3.9993e-08
-1.5011e-17
1.51679e-08
-2.69338e-17
-6.46778e-09
-3.37895e-08
-7.00974e-15
-7.5666e-09
-3.443e-08
-5.78235e-15
-8.80149e-09
-3.55446e-08
-4.98985e-15
-1.01684e-08
-3.6925e-08
-4.56741e-15
-1.16526e-08
-3.84221e-08
-4.06475e-15
-1.32388e-08
-3.99156e-08
-3.74383e-15
-1.49107e-08
-4.13244e-08
-3.46348e-15
-1.66529e-08
-4.25799e-08
-3.24788e-15
-1.84504e-08
-4.36424e-08
-3.03994e-15
-2.02889e-08
-4.4471e-08
-2.8523e-15
-2.2154e-08
-4.50386e-08
-2.71074e-15
-2.40314e-08
-4.53178e-08
-2.59182e-15
-2.59063e-08
-4.52788e-08
-2.48759e-15
-2.77637e-08
-4.49044e-08
-2.39245e-15
-2.95871e-08
-4.41608e-08
-2.27065e-15
-3.13598e-08
-4.30274e-08
-2.13041e-15
-3.3064e-08
-4.14785e-08
-1.98843e-15
-3.46811e-08
-3.94877e-08
-1.89568e-15
-3.61915e-08
-3.70323e-08
-1.80219e-15
-3.75748e-08
-3.40902e-08
-1.69129e-15
-3.88099e-08
-3.06437e-08
-1.5833e-15
-3.9875e-08
-2.66763e-08
-1.46878e-15
-4.07487e-08
-2.21791e-08
-1.34927e-15
-4.14085e-08
-1.71474e-08
-1.21838e-15
-4.1833e-08
-1.15834e-08
-1.08694e-15
-4.20002e-08
-5.50692e-09
-9.55233e-16
-4.18904e-08
1.0633e-09
-8.24177e-16
-4.14838e-08
8.08687e-09
-6.89055e-16
-4.07638e-08
1.55084e-08
-5.49643e-16
-3.97165e-08
2.32487e-08
-4.0749e-16
-3.83297e-08
3.12282e-08
-2.62401e-16
-3.65984e-08
3.92989e-08
-4.12031e-17
-3.45211e-08
4.73246e-08
-2.47754e-16
-3.21046e-08
5.5097e-08
-5.05326e-16
-2.93648e-08
6.23834e-08
-3.41488e-16
-2.63269e-08
6.8914e-08
-2.41985e-16
-2.30317e-08
7.4312e-08
-3.41927e-17
-1.95356e-08
7.81851e-08
-3.66449e-16
-1.59146e-08
8.00631e-08
-2.11857e-16
-1.2271e-08
7.93846e-08
-1.19883e-16
-8.73764e-09
7.55313e-08
-1.53787e-17
-5.48631e-09
6.78457e-08
1.74187e-16
-2.73953e-09
5.55881e-08
-2.46495e-17
-7.85193e-10
3.80386e-08
-8.58565e-18
1.43827e-08
-2.218e-17
-5.4296e-09
-3.2759e-08
-7.27209e-15
-6.57518e-09
-3.32844e-08
-5.93647e-15
-7.85155e-09
-3.42682e-08
-4.82258e-15
-9.25307e-09
-3.55234e-08
-4.30001e-15
-1.07678e-08
-3.69073e-08
-3.85671e-15
-1.23809e-08
-3.83026e-08
-3.56157e-15
-1.40767e-08
-3.96285e-08
-3.37013e-15
-1.58403e-08
-4.08164e-08
-3.20345e-15
-1.76572e-08
-4.18255e-08
-3.0407e-15
-1.95131e-08
-4.2615e-08
-2.86248e-15
-2.13944e-08
-4.31574e-08
-2.73614e-15
-2.32867e-08
-4.34254e-08
-2.62308e-15
-2.51758e-08
-4.33898e-08
-2.52223e-15
-2.70467e-08
-4.30336e-08
-2.42976e-15
-2.88833e-08
-4.23242e-08
-2.31646e-15
-3.0669e-08
-4.12416e-08
-2.14837e-15
-3.23863e-08
-3.97611e-08
-2.00137e-15
-3.40168e-08
-3.78573e-08
-1.90341e-15
-3.55408e-08
-3.55083e-08
-1.80543e-15
-3.69383e-08
-3.26928e-08
-1.69348e-15
-3.81881e-08
-2.93939e-08
-1.5839e-15
-3.92687e-08
-2.55956e-08
-1.46837e-15
-4.01586e-08
-2.12892e-08
-1.3485e-15
-4.08354e-08
-1.64705e-08
-1.21898e-15
-4.12778e-08
-1.11412e-08
-1.08854e-15
-4.14638e-08
-5.32071e-09
-9.57521e-16
-4.13736e-08
9.7304e-10
-8.26438e-16
-4.09878e-08
7.70118e-09
-6.92279e-16
-4.02897e-08
1.48104e-08
-5.54466e-16
-3.92654e-08
2.22242e-08
-4.14388e-16
-3.79028e-08
2.98658e-08
-2.70869e-16
-3.61971e-08
3.75931e-08
-5.1428e-17
-3.41468e-08
4.52744e-08
-2.59874e-16
-3.17592e-08
5.27094e-08
-5.19983e-16
-2.90499e-08
5.96741e-08
-3.44429e-16
-2.60445e-08
6.59087e-08
-2.38618e-16
-2.27839e-08
7.10513e-08
-3.40274e-17
-1.9324e-08
7.47252e-08
-3.62268e-16
-1.5741e-08
7.64801e-08
-2.08376e-16
-1.21361e-08
7.57797e-08
-1.1554e-16
-8.64107e-09
7.20363e-08
-9.99724e-18
-5.42568e-09
6.46303e-08
1.80115e-16
-2.70962e-09
5.2872e-08
-1.91018e-17
-7.76955e-10
3.6106e-08
-3.28359e-18
1.36058e-08
-1.82974e-17
-4.32119e-09
-3.1638e-08
-7.35433e-15
-5.53287e-09
-3.20727e-08
-6.13085e-15
-6.86544e-09
-3.29356e-08
-4.86446e-15
-8.31257e-09
-3.40763e-08
-4.68743e-15
-9.86617e-09
-3.53537e-08
-4.26156e-15
-1.15121e-08
-3.66568e-08
-3.77571e-15
-1.32362e-08
-3.79044e-08
-3.51913e-15
-1.50242e-08
-3.90284e-08
-3.31359e-15
-1.68624e-08
-3.99873e-08
-3.13109e-15
-1.87371e-08
-4.07403e-08
-2.9262e-15
-2.06351e-08
-4.12595e-08
-2.79449e-15
-2.25424e-08
-4.15179e-08
-2.67113e-15
-2.44452e-08
-4.1487e-08
-2.56246e-15
-2.63289e-08
-4.115e-08
-2.46254e-15
-2.81776e-08
-4.04755e-08
-2.34544e-15
-2.99749e-08
-3.94442e-08
-2.15695e-15
-3.17037e-08
-3.80322e-08
-2.00851e-15
-3.33457e-08
-3.62153e-08
-1.90581e-15
-3.48815e-08
-3.39725e-08
-1.80484e-15
-3.62912e-08
-3.12832e-08
-1.69159e-15
-3.75538e-08
-2.81313e-08
-1.58126e-15
-3.86478e-08
-2.45014e-08
-1.46503e-15
-3.95519e-08
-2.03851e-08
-1.34518e-15
-4.02439e-08
-1.57783e-08
-1.21642e-15
-4.07024e-08
-1.06829e-08
-1.0868e-15
-4.09057e-08
-5.11726e-09
-9.56405e-16
-4.0834e-08
9.01211e-10
-8.25817e-16
-4.04678e-08
7.33518e-09
-6.92876e-16
-3.97908e-08
1.41333e-08
-5.56739e-16
-3.87889e-08
2.12221e-08
-4.18711e-16
-3.74504e-08
2.85276e-08
-2.77033e-16
-3.57705e-08
3.5913e-08
-6.0591e-17
-3.37478e-08
4.32519e-08
-2.68743e-16
-3.13898e-08
5.03515e-08
-5.26327e-16
-2.87124e-08
5.69966e-08
-3.47575e-16
-2.57412e-08
6.29375e-08
-2.36934e-16
-2.2517e-08
6.78271e-08
-3.38605e-17
-1.90958e-08
7.1304e-08
-3.58072e-16
-1.55532e-08
7.29376e-08
-2.05099e-16
-1.19898e-08
7.22163e-08
-1.11789e-16
-8.53609e-09
6.85826e-08
-5.73294e-18
-5.35958e-09
6.14538e-08
1.83961e-16
-2.67687e-09
5.01893e-08
-1.4718e-17
-7.67881e-10
3.4197e-08
6.69851e-19
1.28379e-08
-1.55479e-17
-3.17526e-09
-3.04065e-08
-7.34245e-15
-4.4719e-09
-3.07761e-08
-6.20177e-15
-5.87115e-09
-3.15364e-08
-4.94704e-15
-7.37152e-09
-3.25759e-08
-4.63346e-15
-8.96851e-09
-3.37567e-08
-4.23365e-15
-1.06501e-08
-3.49752e-08
-3.75457e-15
-1.2404e-08
-3.61504e-08
-3.5193e-15
-1.42171e-08
-3.72153e-08
-3.31361e-15
-1.60765e-08
-3.81279e-08
-3.13268e-15
-1.79695e-08
-3.88473e-08
-2.92111e-15
-1.98832e-08
-3.93458e-08
-2.79753e-15
-2.18044e-08
-3.95966e-08
-2.67803e-15
-2.37195e-08
-3.95719e-08
-2.57138e-15
-2.56143e-08
-3.92553e-08
-2.46946e-15
-2.74733e-08
-3.86165e-08
-2.35021e-15
-2.92803e-08
-3.7637e-08
-2.15075e-15
-3.10185e-08
-3.62939e-08
-2.00637e-15
-3.26698e-08
-3.4564e-08
-1.90141e-15
-3.42152e-08
-3.24271e-08
-1.79903e-15
-3.56347e-08
-2.98638e-08
-1.68523e-15
-3.69077e-08
-2.68582e-08
-1.57492e-15
-3.8013e-08
-2.3396e-08
-1.45848e-15
-3.89292e-08
-1.94689e-08
-1.33916e-15
-3.96343e-08
-1.50731e-08
-1.21131e-15
-4.01071e-08
-1.02103e-08
-1.08281e-15
-4.03259e-08
-4.89822e-09
-9.53231e-16
-4.02713e-08
8.46385e-10
-8.23571e-16
-3.99236e-08
6.98771e-09
-6.91913e-16
-3.92668e-08
1.34764e-08
-5.57511e-16
-3.82868e-08
2.0242e-08
-4.21515e-16
-3.69722e-08
2.72132e-08
-2.81766e-16
-3.53182e-08
3.42589e-08
-6.80762e-17
-3.33237e-08
4.12575e-08
-2.75981e-16
-3.09963e-08
4.80241e-08
-5.26657e-16
-2.83519e-08
5.43522e-08
-3.49964e-16
-2.54164e-08
6.00021e-08
-2.35056e-16
-2.22306e-08
6.46412e-08
-3.42854e-17
-1.88504e-08
6.79238e-08
-3.53976e-16
-1.53509e-08
6.94382e-08
-2.01998e-16
-1.18319e-08
6.86973e-08
-1.08433e-16
-8.42244e-09
6.51732e-08
-2.24297e-18
-5.2878e-09
5.83191e-08
1.86297e-16
-2.64117e-09
4.75427e-08
-1.14614e-17
-7.57929e-10
3.23138e-08
3.74382e-18
1.208e-08
-1.33869e-17
-2.03945e-09
-2.90506e-08
-7.05284e-15
-3.43305e-09
-2.93825e-08
-6.13572e-15
-4.90281e-09
-3.00666e-08
-5.00311e-15
-6.45836e-09
-3.10203e-08
-4.73817e-15
-8.0983e-09
-3.21168e-08
-4.27096e-15
-9.81424e-09
-3.32593e-08
-3.71469e-15
-1.15959e-08
-3.43687e-08
-3.47701e-15
-1.34318e-08
-3.53794e-08
-3.28585e-15
-1.53102e-08
-3.62495e-08
-3.12221e-15
-1.7219e-08
-3.69385e-08
-2.9149e-15
-1.91461e-08
-3.74187e-08
-2.79815e-15
-2.10787e-08
-3.76639e-08
-2.68101e-15
-2.30036e-08
-3.7647e-08
-2.5742e-15
-2.4907e-08
-3.7352e-08
-2.46861e-15
-2.67737e-08
-3.67498e-08
-2.3483e-15
-2.85879e-08
-3.58228e-08
-2.13765e-15
-3.03328e-08
-3.45489e-08
-1.99819e-15
-3.19908e-08
-3.2906e-08
-1.89173e-15
-3.3543e-08
-3.08749e-08
-1.78867e-15
-3.49699e-08
-2.8437e-08
-1.67492e-15
-3.62508e-08
-2.55773e-08
-1.56529e-15
-3.73647e-08
-2.22818e-08
-1.44919e-15
-3.82907e-08
-1.8543e-08
-1.33086e-15
-3.90067e-08
-1.43569e-08
-1.20432e-15
-3.94919e-08
-9.72542e-09
-1.0773e-15
-3.97245e-08
-4.66537e-09
-9.48891e-16
-3.96853e-08
8.07041e-10
-8.20414e-16
-3.9355e-08
6.65753e-09
-6.90242e-16
-3.87173e-08
1.28388e-08
-5.57664e-16
-3.77587e-08
1.92832e-08
-4.23709e-16
-3.64677e-08
2.59224e-08
-2.85843e-16
-3.48398e-08
3.26308e-08
-7.53625e-17
-3.28739e-08
3.92918e-08
-2.81205e-16
-3.05779e-08
4.57282e-08
-5.26956e-16
-2.79679e-08
5.17421e-08
-3.51387e-16
-2.50698e-08
5.7104e-08
-2.3359e-16
-2.19244e-08
6.14958e-08
-3.44747e-17
-1.85874e-08
6.45868e-08
-3.49745e-16
-1.51337e-08
6.59844e-08
-1.98963e-16
-1.1662e-08
6.52256e-08
-1.05407e-16
-8.29985e-09
6.18111e-08
5.28503e-19
-5.21015e-09
5.52294e-08
1.87295e-16
-2.6024e-09
4.49349e-08
-9.1428e-18
-7.47057e-10
3.04584e-08
6.04922e-18
1.13329e-08
-1.17306e-17
-9.76114e-10
-2.75671e-08
-6.93785e-15
-2.46408e-09
-2.78945e-08
-6.06628e-15
-3.99891e-09
-2.85318e-08
-4.93634e-15
-5.60343e-09
-2.94158e-08
-4.70495e-15
-7.2798e-09
-3.04404e-08
-4.21769e-15
-9.02396e-09
-3.15151e-08
-3.65504e-15
-1.08277e-08
-3.25649e-08
-3.43243e-15
-1.26812e-08
-3.3526e-08
-3.25262e-15
-1.45738e-08
-3.4357e-08
-3.10176e-15
-1.64941e-08
-3.50181e-08
-2.89738e-15
-1.84306e-08
-3.54822e-08
-2.78324e-15
-2.03709e-08
-3.57236e-08
-2.66752e-15
-2.23021e-08
-3.57157e-08
-2.5613e-15
-2.42107e-08
-3.54434e-08
-2.45489e-15
-2.60819e-08
-3.48787e-08
-2.33905e-15
-2.78999e-08
-3.40046e-08
-2.11716e-15
-2.96486e-08
-3.28002e-08
-1.983e-15
-3.13102e-08
-3.12444e-08
-1.87612e-15
-3.28662e-08
-2.93189e-08
-1.77327e-15
-3.42974e-08
-2.70059e-08
-1.66028e-15
-3.55834e-08
-2.42913e-08
-1.55195e-15
-3.67034e-08
-2.11617e-08
-1.43679e-15
-3.76366e-08
-1.76098e-08
-1.31999e-15
-3.83612e-08
-1.36321e-08
-1.19519e-15
-3.88565e-08
-9.23034e-09
-1.07004e-15
-3.91011e-08
-4.42058e-09
-9.43163e-16
-3.90757e-08
7.81574e-10
-8.1619e-16
-3.87614e-08
6.34334e-09
-6.87659e-16
-3.8142e-08
1.22194e-08
-5.57e-16
-3.72041e-08
1.83451e-08
-4.25141e-16
-3.59365e-08
2.4655e-08
-2.89169e-16
-3.43347e-08
3.10289e-08
-8.14415e-17
-3.2398e-08
3.73552e-08
-2.85835e-16
-3.01343e-08
4.34645e-08
-5.28109e-16
-2.75599e-08
4.91676e-08
-3.51555e-16
-2.47008e-08
5.4245e-08
-2.31487e-16
-2.15978e-08
5.83928e-08
-3.5158e-17
-1.83065e-08
6.12955e-08
-3.45542e-16
-1.49011e-08
6.25791e-08
-1.96004e-16
-1.14797e-08
6.18042e-08
-1.02595e-16
-8.16805e-09
5.84994e-08
2.82707e-18
-5.12641e-09
5.21878e-08
1.8738e-16
-2.56044e-09
4.23689e-08
-7.55126e-18
-7.35217e-10
2.86332e-08
7.94314e-18
1.05977e-08
-1.02185e-17
-4.96333e-11
-2.59713e-08
-6.58146e-15
-1.61185e-09
-2.63323e-08
-5.79809e-15
-3.19586e-09
-2.69478e-08
-4.84468e-15
-4.83466e-09
-2.7777e-08
-4.59343e-15
-6.53502e-09
-2.874e-08
-4.15344e-15
-8.29668e-09
-2.97535e-08
-3.64734e-15
-1.01134e-08
-3.07482e-08
-3.42304e-15
-1.19766e-08
-3.16627e-08
-3.22804e-15
-1.38766e-08
-3.2457e-08
-3.07617e-15
-1.58024e-08
-3.30922e-08
-2.87524e-15
-1.77429e-08
-3.35417e-08
-2.76079e-15
-1.96861e-08
-3.37803e-08
-2.64671e-15
-2.16192e-08
-3.37827e-08
-2.54138e-15
-2.35288e-08
-3.35338e-08
-2.43534e-15
-2.54005e-08
-3.30071e-08
-2.32624e-15
-2.72186e-08
-3.21863e-08
-2.09276e-15
-2.89673e-08
-3.10515e-08
-1.96287e-15
-3.0629e-08
-2.95827e-08
-1.85561e-15
-3.21856e-08
-2.77623e-08
-1.75331e-15
-3.36179e-08
-2.55737e-08
-1.64149e-15
-3.49058e-08
-2.30033e-08
-1.53497e-15
-3.6029e-08
-2.00384e-08
-1.42128e-15
-3.69667e-08
-1.66721e-08
-1.30652e-15
-3.76974e-08
-1.29012e-08
-1.18388e-15
-3.82007e-08
-8.72733e-09
-1.06097e-15
-3.84552e-08
-4.16582e-09
-9.35981e-16
-3.84421e-08
7.68311e-10
-8.10818e-16
-3.81424e-08
6.04379e-09
-6.84083e-16
-3.75402e-08
1.16173e-08
-5.55451e-16
-3.66224e-08
1.74271e-08
-4.25738e-16
-3.53778e-08
2.34106e-08
-2.91654e-16
-3.38023e-08
2.94532e-08
-8.72438e-17
-3.18953e-08
3.54483e-08
-2.88531e-16
-2.96648e-08
4.12341e-08
-5.29118e-16
-2.71273e-08
4.66301e-08
-3.50851e-16
-2.43089e-08
5.14267e-08
-2.29751e-16
-2.12504e-08
5.53343e-08
-3.56456e-17
-1.80072e-08
5.80522e-08
-3.41177e-16
-1.4653e-08
5.9225e-08
-1.93065e-16
-1.12848e-08
5.8436e-08
-1.0003e-16
-8.02674e-09
5.52414e-08
4.58753e-18
-5.03636e-09
4.91974e-08
1.8654e-16
-2.51514e-09
3.98477e-08
-5.85752e-18
-7.22359e-10
2.68404e-08
9.38084e-18
9.87533e-09
-8.96243e-18
6.91416e-10
-2.42983e-08
-7.18922e-15
-9.12304e-10
-2.47286e-08
-5.92702e-15
-2.52101e-09
-2.53391e-08
-5.16266e-15
-4.17314e-09
-2.61249e-08
-4.58047e-15
-5.88068e-09
-2.70325e-08
-4.10217e-15
-7.64583e-09
-2.79883e-08
-3.59461e-15
-9.46387e-09
-2.89301e-08
-3.3613e-15
-1.13271e-08
-2.97995e-08
-3.16933e-15
-1.3226e-08
-3.05581e-08
-3.03284e-15
-1.51502e-08
-3.11681e-08
-2.84035e-15
-1.70883e-08
-3.16035e-08
-2.72767e-15
-1.90285e-08
-3.184e-08
-2.61423e-15
-2.09582e-08
-3.1853e-08
-2.50972e-15
-2.28641e-08
-3.1628e-08
-2.40527e-15
-2.47316e-08
-3.11396e-08
-2.30485e-15
-2.65456e-08
-3.03722e-08
-2.06223e-15
-2.82902e-08
-2.93069e-08
-1.93683e-15
-2.99482e-08
-2.79247e-08
-1.82991e-15
-3.15015e-08
-2.6209e-08
-1.72878e-15
-3.29315e-08
-2.41439e-08
-1.61866e-15
-3.42182e-08
-2.17165e-08
-1.51441e-15
-3.53414e-08
-1.8915e-08
-1.40271e-15
-3.62807e-08
-1.57328e-08
-1.29044e-15
-3.7015e-08
-1.21668e-08
-1.17037e-15
-3.75238e-08
-8.21871e-09
-1.05005e-15
-3.77863e-08
-3.90314e-09
-9.27265e-16
-3.77836e-08
7.65526e-10
-8.04159e-16
-3.74972e-08
5.75748e-09
-6.79439e-16
-3.69113e-08
1.10314e-08
-5.52954e-16
-3.60129e-08
1.65285e-08
-4.25482e-16
-3.47911e-08
2.21891e-08
-2.93398e-16
-3.32419e-08
2.7904e-08
-9.18962e-17
-3.13651e-08
3.35715e-08
-2.90877e-16
-2.91687e-08
3.90378e-08
-5.27516e-16
-2.66695e-08
4.41308e-08
-3.49127e-16
-2.38936e-08
4.86508e-08
-2.27525e-16
-2.08817e-08
5.23223e-08
-3.65971e-17
-1.7689e-08
5.48595e-08
-3.36795e-16
-1.43887e-08
5.59247e-08
-1.90156e-16
-1.10768e-08
5.5124e-08
-9.76141e-17
-7.87563e-09
5.20403e-08
6.00968e-18
-4.93979e-09
4.62616e-08
1.85071e-16
-2.46637e-09
3.73743e-08
-4.58878e-18
-7.0843e-10
2.50825e-08
1.05904e-17
9.1669e-09
-7.71971e-18
1.22902e-09
-2.2596e-08
-6.55802e-15
-3.80342e-10
-2.31192e-08
-5.30603e-15
-1.98617e-09
-2.37332e-08
-4.95567e-15
-3.62906e-09
-2.4482e-08
-4.36912e-15
-5.3256e-09
-2.53359e-08
-3.94285e-15
-7.07918e-09
-2.62348e-08
-3.53016e-15
-8.88601e-09
-2.71233e-08
-3.31026e-15
-1.07386e-08
-2.7947e-08
-3.11536e-15
-1.26274e-08
-2.86692e-08
-2.98046e-15
-1.45418e-08
-2.92536e-08
-2.79568e-15
-1.64705e-08
-2.96748e-08
-2.68304e-15
-1.84014e-08
-2.99091e-08
-2.57209e-15
-2.03218e-08
-2.99326e-08
-2.46978e-15
-2.22185e-08
-2.97314e-08
-2.36822e-15
-2.40769e-08
-2.92812e-08
-2.27712e-15
-2.5882e-08
-2.8567e-08
-2.02753e-15
-2.76181e-08
-2.75708e-08
-1.9061e-15
-2.92681e-08
-2.62747e-08
-1.79963e-15
-3.08143e-08
-2.46628e-08
-1.70002e-15
-3.22382e-08
-2.27201e-08
-1.59196e-15
-3.35201e-08
-2.04346e-08
-1.49041e-15
-3.46401e-08
-1.77949e-08
-1.38116e-15
-3.55781e-08
-1.47948e-08
-1.27178e-15
-3.63132e-08
-1.14316e-08
-1.15465e-15
-3.68252e-08
-7.70691e-09
-1.03726e-15
-3.70935e-08
-3.63462e-09
-9.16941e-16
-3.70996e-08
7.7146e-10
-7.96133e-16
-3.6825e-08
5.48301e-09
-6.73643e-16
-3.62543e-08
1.04607e-08
-5.49448e-16
-3.53746e-08
1.56487e-08
-4.24339e-16
-3.41754e-08
2.09901e-08
-2.94298e-16
-3.26528e-08
2.63813e-08
-9.63548e-17
-3.08068e-08
3.17256e-08
-2.91649e-16
-2.86456e-08
3.68767e-08
-5.24203e-16
-2.6186e-08
4.16711e-08
-3.46723e-16
-2.34543e-08
4.59191e-08
-2.25669e-16
-2.04912e-08
4.93592e-08
-3.73634e-17
-1.73515e-08
5.17198e-08
-3.32564e-16
-1.4108e-08
5.26813e-08
-1.87226e-16
-1.08554e-08
5.18715e-08
-9.53935e-17
-7.71443e-09
4.88993e-08
6.99365e-18
-4.83647e-09
4.33836e-08
1.82844e-16
-2.414e-09
3.49518e-08
-4.23495e-18
-6.93376e-10
2.33619e-08
1.1425e-17
8.47352e-09
-6.69537e-18
1.5744e-09
-2.09142e-08
-6.19858e-15
-9.15984e-12
-2.15356e-08
-4.80838e-15
-1.58718e-09
-2.21552e-08
-4.84545e-15
-3.20111e-09
-2.2868e-08
-4.4598e-15
-4.87026e-09
-2.36668e-08
-4.02851e-15
-6.59845e-09
-2.45066e-08
-3.58372e-15
-8.38223e-09
-2.53395e-08
-3.31654e-15
-1.02138e-08
-2.61155e-08
-3.08896e-15
-1.20834e-08
-2.67996e-08
-2.93818e-15
-1.398e-08
-2.73571e-08
-2.74596e-15
-1.58919e-08
-2.77629e-08
-2.62971e-15
-1.78067e-08
-2.79941e-08
-2.51808e-15
-1.97117e-08
-2.80277e-08
-2.41794e-15
-2.15933e-08
-2.78498e-08
-2.32024e-15
-2.34373e-08
-2.74372e-08
-2.23955e-15
-2.52284e-08
-2.67757e-08
-1.98722e-15
-2.69512e-08
-2.5848e-08
-1.86999e-15
-2.85888e-08
-2.4637e-08
-1.76456e-15
-3.01237e-08
-2.31279e-08
-1.66704e-15
-3.15375e-08
-2.13064e-08
-1.56156e-15
-3.2811e-08
-1.9161e-08
-1.46311e-15
-3.39245e-08
-1.66812e-08
-1.35671e-15
-3.48581e-08
-1.38612e-08
-1.25056e-15
-3.55912e-08
-1.06984e-08
-1.13669e-15
-3.6104e-08
-7.19437e-09
-1.02249e-15
-3.6376e-08
-3.3624e-09
-9.04925e-16
-3.6389e-08
7.84338e-10
-7.86653e-16
-3.61248e-08
5.21898e-09
-6.66601e-16
-3.55683e-08
9.90421e-09
-5.44843e-16
-3.47068e-08
1.4787e-08
-4.22211e-16
-3.353e-08
1.98134e-08
-2.94434e-16
-3.20341e-08
2.48854e-08
-9.97964e-17
-3.02195e-08
2.9911e-08
-2.91873e-16
-2.80945e-08
3.47518e-08
-5.19502e-16
-2.5676e-08
3.92526e-08
-3.43573e-16
-2.29904e-08
4.32336e-08
-2.23373e-16
-2.00783e-08
4.6447e-08
-3.85095e-17
-1.69942e-08
4.86357e-08
-3.28042e-16
-1.38103e-08
4.94974e-08
-1.84286e-16
-1.06204e-08
4.86815e-08
-9.32475e-17
-7.54285e-09
4.58218e-08
7.73845e-18
-4.72619e-09
4.05669e-08
1.80132e-16
-2.35786e-09
3.25835e-08
-4.65145e-18
-6.77137e-10
2.16812e-08
1.21052e-17
7.79639e-09
-5.65366e-18
1.76446e-09
-1.92907e-08
-5.68042e-15
2.27277e-10
-1.99984e-08
-4.34356e-15
-1.30634e-09
-2.06216e-08
-4.64028e-15
-2.87808e-09
-2.12963e-08
-4.19423e-15
-4.50794e-09
-2.20369e-08
-3.77425e-15
-6.20005e-09
-2.28145e-08
-3.42788e-15
-7.95095e-09
-2.35886e-08
-3.20483e-15
-9.7525e-09
-2.43139e-08
-3.00735e-15
-1.15945e-08
-2.49576e-08
-2.8672e-15
-1.34654e-08
-2.54861e-08
-2.68179e-15
-1.53532e-08
-2.58751e-08
-2.56712e-15
-1.72452e-08
-2.61021e-08
-2.45707e-15
-1.91284e-08
-2.61446e-08
-2.35961e-15
-2.0989e-08
-2.59892e-08
-2.26592e-15
-2.28129e-08
-2.56134e-08
-2.19461e-15
-2.45848e-08
-2.50037e-08
-1.94413e-15
-2.62893e-08
-2.41434e-08
-1.83019e-15
-2.79099e-08
-2.30165e-08
-1.72548e-15
-2.94291e-08
-2.16087e-08
-1.63028e-15
-3.08288e-08
-1.99067e-08
-1.52769e-15
-3.20901e-08
-1.78997e-08
-1.43266e-15
-3.31936e-08
-1.55776e-08
-1.32947e-15
-3.41197e-08
-1.29352e-08
-1.22685e-15
-3.48479e-08
-9.96994e-09
-1.11651e-15
-3.53589e-08
-6.68359e-09
-1.00571e-15
-3.56325e-08
-3.08861e-09
-8.91134e-16
-3.56507e-08
8.02388e-10
-7.75627e-16
-3.53956e-08
4.964e-09
-6.5821e-16
-3.48523e-08
9.36088e-09
-5.39057e-16
-3.40083e-08
1.39429e-08
-4.19044e-16
-3.28537e-08
1.8659e-08
-2.93692e-16
-3.1385e-08
2.34165e-08
-1.03087e-16
-2.96024e-08
2.81285e-08
-2.91158e-16
-2.75147e-08
3.26642e-08
-5.15593e-16
-2.5139e-08
3.68767e-08
-3.40213e-16
-2.25014e-08
4.05961e-08
-2.21333e-16
-1.96425e-08
4.35881e-08
-3.93633e-17
-1.66167e-08
4.56099e-08
-3.22992e-16
-1.34954e-08
4.63762e-08
-1.81205e-16
-1.03712e-08
4.55573e-08
-9.12334e-17
-7.36062e-09
4.28112e-08
8.12964e-18
-4.60871e-09
3.7815e-08
1.7682e-16
-2.29783e-09
3.02726e-08
-5.56681e-18
-6.59657e-10
2.0043e-08
1.25142e-17
7.13673e-09
-4.81527e-18
1.84724e-09
-1.77427e-08
-5.26094e-15
3.64175e-10
-1.85154e-08
-3.92521e-15
-1.11908e-09
-1.91383e-08
-4.44329e-15
-2.64313e-09
-1.97722e-08
-4.28841e-15
-4.22746e-09
-2.04526e-08
-3.89457e-15
-5.87677e-09
-2.11652e-08
-3.50189e-15
-7.5877e-09
-2.18776e-08
-3.2097e-15
-9.35197e-09
-2.25496e-08
-2.96605e-15
-1.11591e-08
-2.31504e-08
-2.79902e-15
-1.29973e-08
-2.36479e-08
-2.60251e-15
-1.48541e-08
-2.40183e-08
-2.48568e-15
-1.67166e-08
-2.42395e-08
-2.37749e-15
-1.85715e-08
-2.42898e-08
-2.28582e-15
-2.04052e-08
-2.41556e-08
-2.19887e-15
-2.22032e-08
-2.38155e-08
-2.14139e-15
-2.39505e-08
-2.32563e-08
-1.89784e-15
-2.56316e-08
-2.24622e-08
-1.78658e-15
-2.72303e-08
-2.14178e-08
-1.68255e-15
-2.87294e-08
-2.01097e-08
-1.58994e-15
-3.01109e-08
-1.85253e-08
-1.49061e-15
-3.13562e-08
-1.66543e-08
-1.39925e-15
-3.24461e-08
-1.44875e-08
-1.29958e-15
-3.33615e-08
-1.20199e-08
-1.20069e-15
-3.40821e-08
-9.24916e-09
-1.09413e-15
-3.45888e-08
-6.17707e-09
-9.86904e-16
-3.48619e-08
-2.81539e-09
-8.75531e-16
-3.48834e-08
8.23861e-10
-7.6297e-16
-3.4636e-08
4.71672e-09
-6.48411e-16
-3.4105e-08
8.8298e-09
-5.32006e-16
-3.32781e-08
1.31159e-08
-4.14798e-16
-3.21456e-08
1.75268e-08
-2.92138e-16
-3.07043e-08
2.19751e-08
-1.05503e-16
-2.89546e-08
2.6379e-08
-2.90681e-16
-2.69055e-08
3.06151e-08
-5.11355e-16
-2.4574e-08
3.45452e-08
-3.36482e-16
-2.19865e-08
3.80086e-08
-2.1886e-16
-1.91834e-08
4.07849e-08
-4.03973e-17
-1.62186e-08
4.26451e-08
-3.17315e-16
-1.31629e-08
4.33206e-08
-1.77982e-16
-1.01077e-08
4.25021e-08
-8.92103e-17
-7.16748e-09
3.98709e-08
8.36282e-18
-4.48384e-09
3.51314e-08
1.7312e-16
-2.23375e-09
2.80225e-08
-6.59721e-18
-6.40873e-10
1.84501e-08
1.28283e-17
6.49586e-09
-3.95761e-18
1.86348e-09
-1.62706e-08
-5.32325e-15
4.32845e-10
-1.70847e-08
-3.92041e-15
-1.00235e-09
-1.77031e-08
-4.2605e-15
-2.47932e-09
-1.82953e-08
-4.05315e-15
-4.01671e-09
-1.89152e-08
-3.69006e-15
-5.62005e-09
-1.95619e-08
-3.37538e-15
-7.28646e-09
-2.02112e-08
-3.10722e-15
-9.00801e-09
-2.08281e-08
-2.88154e-15
-1.07743e-08
-2.13841e-08
-2.71688e-15
-1.25734e-08
-2.18488e-08
-2.52257e-15
-1.43928e-08
-2.21989e-08
-2.40529e-15
-1.62195e-08
-2.24128e-08
-2.2976e-15
-1.80399e-08
-2.24693e-08
-2.20946e-15
-1.98406e-08
-2.23549e-08
-2.12772e-15
-2.1607e-08
-2.20492e-08
-2.08323e-15
-2.33241e-08
-2.1539e-08
-1.85345e-15
-2.49769e-08
-2.08094e-08
-1.74184e-15
-2.65489e-08
-1.98458e-08
-1.63707e-15
-2.80232e-08
-1.86354e-08
-1.54672e-15
-2.93823e-08
-1.71663e-08
-1.45071e-15
-3.06077e-08
-1.54289e-08
-1.36314e-15
-3.16806e-08
-1.34145e-08
-1.26719e-15
-3.2582e-08
-1.11185e-08
-1.17218e-15
-3.32921e-08
-8.53887e-09
-1.06951e-15
-3.37921e-08
-5.67728e-09
-9.65977e-16
-3.40625e-08
-2.54483e-09
-8.57984e-16
-3.40858e-08
8.47053e-10
-7.48593e-16
-3.38448e-08
4.47585e-09
-6.37053e-16
-3.33251e-08
8.3101e-09
-5.23624e-16
-3.25148e-08
1.23054e-08
-4.09403e-16
-3.14045e-08
1.64166e-08
-2.8966e-16
-2.9991e-08
2.05615e-08
-1.07762e-16
-2.82753e-08
2.46633e-08
-2.8932e-16
-2.6266e-08
2.8606e-08
-5.05431e-16
-2.39806e-08
3.22597e-08
-3.32546e-16
-2.14453e-08
3.54734e-08
-2.16483e-16
-1.87003e-08
3.80399e-08
-4.11899e-17
-1.57993e-08
3.97441e-08
-3.11512e-16
-1.28124e-08
4.03337e-08
-1.7465e-16
-9.82955e-09
3.95193e-08
-8.7261e-17
-6.96317e-09
3.70046e-08
8.30796e-18
-4.35137e-09
3.25195e-08
1.68898e-16
-2.1655e-09
2.58366e-08
-7.90722e-18
-6.20726e-10
1.69054e-08
1.29241e-17
5.87513e-09
-3.28686e-18
1.83528e-09
-1.48679e-08
-4.9963e-15
4.52121e-10
-1.57015e-08
-3.79954e-15
-9.40385e-10
-1.63106e-08
-4.07534e-15
-2.37372e-09
-1.68619e-08
-4.0916e-15
-3.86541e-09
-1.74235e-08
-3.71264e-15
-5.42181e-09
-1.80055e-08
-3.3388e-15
-7.04096e-09
-1.8592e-08
-3.01326e-15
-8.7157e-09
-1.91534e-08
-2.76361e-15
-1.04361e-08
-1.96637e-08
-2.59224e-15
-1.21905e-08
-2.00943e-08
-2.40362e-15
-1.39666e-08
-2.04228e-08
-2.29526e-15
-1.57514e-08
-2.0628e-08
-2.19589e-15
-1.75314e-08
-2.06893e-08
-2.118e-15
-1.92932e-08
-2.05932e-08
-2.04568e-15
-2.10223e-08
-2.03201e-08
-2.01708e-15
-2.2704e-08
-1.98572e-08
-1.81254e-15
-2.43231e-08
-1.91903e-08
-1.69678e-15
-2.58636e-08
-1.83053e-08
-1.58963e-15
-2.73087e-08
-1.71903e-08
-1.5011e-15
-2.86412e-08
-1.58339e-08
-1.40836e-15
-2.98429e-08
-1.42272e-08
-1.32462e-15
-3.08951e-08
-1.23621e-08
-1.23251e-15
-3.17794e-08
-1.02343e-08
-1.1414e-15
-3.24763e-08
-7.84188e-09
-1.04271e-15
-3.29671e-08
-5.18666e-09
-9.42935e-16
-3.32327e-08
-2.27898e-09
-8.38469e-16
-3.32561e-08
8.70321e-10
-7.32452e-16
-3.30203e-08
4.24015e-09
-6.24087e-16
-3.25112e-08
7.801e-09
-5.13844e-16
-3.17172e-08
1.15113e-08
-4.02827e-16
-3.06292e-08
1.53287e-08
-2.86319e-16
-2.92442e-08
1.91765e-08
-1.09225e-16
-2.75632e-08
2.29824e-08
-2.87926e-16
-2.55954e-08
2.66382e-08
-4.96558e-16
-2.33579e-08
3.00221e-08
-3.28147e-16
-2.0877e-08
3.29926e-08
-2.1363e-16
-1.81929e-08
3.53558e-08
-4.20087e-17
-1.53586e-08
3.69098e-08
-3.05568e-16
-1.24436e-08
3.74186e-08
-1.71087e-16
-9.53648e-09
3.66122e-08
-8.52213e-17
-6.7475e-09
3.42156e-08
8.1625e-18
-4.21113e-09
2.99832e-08
1.64359e-16
-2.09295e-09
2.37184e-08
-9.20471e-18
-5.99153e-10
1.54116e-08
1.29624e-17
5.27598e-09
-2.6025e-18
1.76742e-09
-1.35288e-08
-4.82154e-15
4.28147e-10
-1.43623e-08
-3.7023e-15
-9.25815e-10
-1.49567e-08
-3.86391e-15
-2.31862e-09
-1.54691e-08
-3.80026e-15
-3.76619e-09
-1.59759e-08
-3.4653e-15
-5.27537e-09
-1.64963e-08
-3.18796e-15
-6.8453e-09
-1.70221e-08
-2.89589e-15
-8.46988e-09
-1.75288e-08
-2.66578e-15
-1.01401e-08
-1.79935e-08
-2.49917e-15
-1.18448e-08
-1.83896e-08
-2.31209e-15
-1.35721e-08
-1.86955e-08
-2.20347e-15
-1.53092e-08
-1.88908e-08
-2.10425e-15
-1.70431e-08
-1.89554e-08
-2.0303e-15
-1.87604e-08
-1.8876e-08
-1.96299e-15
-2.04467e-08
-1.86337e-08
-1.93995e-15
-2.20876e-08
-1.82163e-08
-1.80107e-15
-2.3668e-08
-1.76098e-08
-1.65369e-15
-2.51722e-08
-1.68011e-08
-1.54155e-15
-2.65837e-08
-1.57788e-08
-1.45382e-15
-2.78854e-08
-1.45322e-08
-1.36406e-15
-2.90595e-08
-1.30531e-08
-1.28396e-15
-3.00878e-08
-1.13337e-08
-1.19567e-15
-3.09518e-08
-9.37023e-09
-1.10837e-15
-3.16326e-08
-7.16096e-09
-1.01368e-15
-3.21119e-08
-4.70759e-09
-9.17778e-16
-3.23709e-08
-2.01982e-09
-8.16961e-16
-3.23927e-08
8.921e-10
-7.14421e-16
-3.2161e-08
4.00851e-09
-6.09456e-16
-3.16618e-08
7.30181e-09
-5.0263e-16
-3.08839e-08
1.07333e-08
-3.95016e-16
-2.98183e-08
1.42634e-08
-2.82024e-16
-2.84625e-08
1.78205e-08
-1.10437e-16
-2.68176e-08
2.13376e-08
-2.85762e-16
-2.48927e-08
2.47134e-08
-4.86794e-16
-2.27052e-08
2.78345e-08
-3.23567e-16
-2.02812e-08
3.05687e-08
-2.10675e-16
-1.76606e-08
3.27351e-08
-4.25591e-17
-1.48961e-08
3.41453e-08
-2.99257e-16
-1.20562e-08
3.45788e-08
-1.6735e-16
-9.2283e-09
3.37843e-08
-8.31992e-17
-6.52028e-09
3.15076e-08
7.78929e-18
-4.06298e-09
2.75259e-08
1.59371e-16
-2.01597e-09
2.16714e-08
-1.00052e-17
-5.76098e-10
1.39717e-08
1.28417e-17
4.69988e-09
-2.0962e-18
1.65434e-09
-1.2251e-08
-4.47367e-15
3.58722e-10
-1.30666e-08
-3.50808e-15
-9.57481e-10
-1.36405e-08
-3.72531e-15
-2.31064e-09
-1.4116e-08
-3.57521e-15
-3.71437e-09
-1.45722e-08
-3.2509e-15
-5.17549e-09
-1.50352e-08
-2.98847e-15
-6.69412e-09
-1.55034e-08
-2.69608e-15
-8.26539e-09
-1.59575e-08
-2.47891e-15
-9.88127e-09
-1.63777e-08
-2.33265e-15
-1.15316e-08
-1.67393e-08
-2.16717e-15
-1.32049e-08
-1.70222e-08
-2.07706e-15
-1.48891e-08
-1.72065e-08
-1.99147e-15
-1.65714e-08
-1.72731e-08
-1.93073e-15
-1.82387e-08
-1.72088e-08
-1.87388e-15
-1.9877e-08
-1.69955e-08
-1.87001e-15
-2.14719e-08
-1.66212e-08
-1.79526e-15
-2.30088e-08
-1.60728e-08
-1.61286e-15
-2.44721e-08
-1.53378e-08
-1.49278e-15
-2.58456e-08
-1.44053e-08
-1.40508e-15
-2.71126e-08
-1.32654e-08
-1.31801e-15
-2.82554e-08
-1.19102e-08
-1.24128e-15
-2.92562e-08
-1.03328e-08
-1.15673e-15
-3.0097e-08
-8.52947e-09
-1.07325e-15
-3.0759e-08
-6.49877e-09
-9.82487e-16
-3.12244e-08
-4.24236e-09
-8.90511e-16
-3.14749e-08
-1.76924e-09
-7.93449e-16
-3.14938e-08
9.10925e-10
-6.94576e-16
-3.1265e-08
3.77989e-09
-5.93198e-16
-3.07752e-08
6.81196e-09
-4.89965e-16
-3.00133e-08
9.9712e-09
-3.85969e-16
-2.89706e-08
1.32209e-08
-2.76821e-16
-2.76448e-08
1.64946e-08
-1.10815e-16
-2.60372e-08
1.97301e-08
-2.83637e-16
-2.41571e-08
2.28333e-08
-4.77785e-16
-2.20217e-08
2.5699e-08
-3.18743e-16
-1.96572e-08
2.82043e-08
-2.07252e-16
-1.7103e-08
3.01809e-08
-4.29912e-17
-1.44114e-08
3.14536e-08
-2.92519e-16
-1.165e-08
3.18174e-08
-1.63297e-16
-8.90483e-09
3.10392e-08
-8.10102e-17
-6.2814e-09
2.88841e-08
7.38836e-18
-3.9068e-09
2.51513e-08
1.54159e-16
-1.93447e-09
1.96991e-08
-1.02829e-17
-5.51504e-10
1.25888e-08
1.27319e-17
4.14837e-09
-1.57762e-18
1.48815e-09
-1.10348e-08
-3.92883e-15
2.38982e-10
-1.18175e-08
-3.10438e-15
-1.03688e-09
-1.23646e-08
-3.42382e-15
-2.34854e-09
-1.28043e-08
-3.33004e-15
-3.70673e-09
-1.3214e-08
-3.06082e-15
-5.11772e-09
-1.36242e-08
-2.85006e-15
-6.58238e-09
-1.40387e-08
-2.57367e-15
-8.09694e-09
-1.4443e-08
-2.36275e-15
-9.65451e-09
-1.48201e-08
-2.21978e-15
-1.12459e-08
-1.5148e-08
-2.05861e-15
-1.28604e-08
-1.54076e-08
-1.97216e-15
-1.44866e-08
-1.55803e-08
-1.89036e-15
-1.61122e-08
-1.56475e-08
-1.83639e-15
-1.77243e-08
-1.55967e-08
-1.78799e-15
-1.93095e-08
-1.54103e-08
-1.79529e-15
-2.08537e-08
-1.5077e-08
-1.77834e-15
-2.23423e-08
-1.45841e-08
-1.56898e-15
-2.37603e-08
-1.39198e-08
-1.44219e-15
-2.50916e-08
-1.3074e-08
-1.35492e-15
-2.63198e-08
-1.20372e-08
-1.27047e-15
-2.74278e-08
-1.08022e-08
-1.19686e-15
-2.83979e-08
-9.36261e-09
-1.11585e-15
-2.92124e-08
-7.71492e-09
-1.03615e-15
-2.98532e-08
-5.85789e-09
-9.49251e-16
-3.03026e-08
-3.79316e-09
-8.61162e-16
-3.05426e-08
-1.52903e-09
-7.67936e-16
-3.05572e-08
9.25438e-10
-6.72923e-16
-3.03306e-08
3.55339e-09