/*--------------------------------*- C++ -*----------------------------------*\
| =========                 |                                                 |
| \\      /  F ield         | OpenFOAM: The Open Source CFD Toolbox           |
|  \\    /   O peration     | Version:  v2012                                 |
|   \\  /    A nd           | Website:  www.openfoam.com                      |
|    \\/     M anipulation  |                                                 |
\*---------------------------------------------------------------------------*/
FoamFile
{
    version     2.0;
    format      ascii;
    class       volVectorField;
    location    "0.5";
    object      U;
}
// * * * * * * * * * * * * * * * * * * * * * * * * * * * * * * * * * * * * * //

dimensions      [0 1 -1 0 0 0 0];


internalField   nonuniform List<vector> 
3326
(
(-0.321495 0.365623 0.00280706)
(-0.266059 0.357843 0.00232317)
(-0.212558 0.341041 0.00185615)
(-0.161961 0.314933 0.00141448)
(-0.115439 0.2793 0.00100834)
(-0.0742531 0.23401 0.000648757)
(-0.0400985 0.179044 0.000350507)
(-0.0145391 0.114525 0.000127352)
(-0.000609157 0.040609 7.59896e-06)
(-0.486862 0.324375 0.0042504)
(-0.430906 0.341083 0.003762)
(-0.374602 0.350001 0.00327057)
(-0.318606 0.350825 0.00278177)
(-0.263668 0.343253 0.00230224)
(-0.210643 0.326993 0.0018394)
(-0.160498 0.301786 0.00140167)
(-0.114395 0.267437 0.000999197)
(-0.0735835 0.223852 0.000642892)
(-0.0397417 0.171057 0.00034738)
(-0.0144152 0.109237 0.000126264)
(-0.000606401 0.0386326 7.55612e-06)
(-0.51141 -3.3287 0.00446321)
(-0.553618 -3.03287 0.0048316)
(-0.598088 -2.80919 0.00521972)
(-0.644436 -2.62587 0.00562424)
(-0.690938 -2.46481 0.00603011)
(-0.736416 -2.31526 0.00642705)
(-0.779806 -2.17172 0.00680578)
(-0.820366 -2.03154 0.00715982)
(-0.857566 -1.89369 0.00748453)
(-0.891047 -1.75791 0.0077768)
(-0.920573 -1.62436 0.00803454)
(-0.94599 -1.49334 0.00825642)
(-0.967201 -1.36515 0.0084416)
(-0.984146 -1.2401 0.00858955)
(-0.996789 -1.11845 0.00869997)
(-1.00511 -1.00043 0.00877267)
(-1.00911 -0.886223 0.0088076)
(-1.00879 -0.776004 0.00880484)
(-1.00416 -0.669935 0.00876451)
(-0.995256 -0.56817 0.00868686)
(-0.982118 -0.47086 0.00857225)
(-0.964802 -0.378159 0.00842118)
(-0.943381 -0.290226 0.00823427)
(-0.917948 -0.207224 0.00801235)
(-0.888619 -0.129332 0.00775644)
(-0.855533 -0.0567161 0.00746772)
(-0.81885 0.0104439 0.00714771)
(-0.778762 0.0719563 0.00679788)
(-0.735494 0.127631 0.00642029)
(-0.689312 0.177256 0.00601725)
(-0.640506 0.220631 0.00559131)
(-0.589416 0.257532 0.00514544)
(-0.536436 0.287722 0.00468305)
(-0.48201 0.31095 0.00420795)
(-0.426646 0.326953 0.00372474)
(-0.370914 0.335455 0.00323831)
(-0.31547 0.336166 0.00275438)
(-0.261066 0.328797 0.00227951)
(-0.208554 0.313075 0.00182115)
(-0.158897 0.288762 0.00138768)
(-0.113249 0.255687 0.000989182)
(-0.0728464 0.213792 0.000636448)
(-0.0393474 0.163147 0.000343931)
(-0.0142774 0.103999 0.000125056)
(-0.000603063 0.0366737 7.50612e-06)
(-0.421381 -3.23255 0.0036773)
(-0.473518 -2.93603 0.0041324)
(-0.527559 -2.71199 0.00460406)
(-0.581254 -2.52946 0.00507272)
(-0.634174 -2.37061 0.0055346)
(-0.685047 -2.2244 0.00597865)
(-0.733113 -2.08507 0.00639819)
(-0.777726 -1.94965 0.0067876)
(-0.818473 -1.81689 0.00714329)
(-0.855079 -1.6864 0.00746283)
(-0.887377 -1.55819 0.00774477)
(-0.915272 -1.43249 0.00798828)
(-0.938711 -1.30957 0.00819291)
(-0.957675 -1.18967 0.00835848)
(-0.972159 -1.07304 0.00848497)
(-0.98217 -0.959893 0.00857241)
(-0.987726 -0.850401 0.00862094)
(-0.988848 -0.74473 0.0086308)
(-0.985568 -0.643031 0.00860223)
(-0.977926 -0.545453 0.00853559)
(-0.965974 -0.452141 0.00843133)
(-0.949775 -0.363241 0.00829001)
(-0.92941 -0.278907 0.00811233)
(-0.904978 -0.199296 0.00789914)
(-0.876599 -0.124579 0.00765151)
(-0.844415 -0.0549202 0.00737067)
(-0.808591 0.00950728 0.00705806)
(-0.769322 0.0685185 0.00671538)
(-0.726836 0.121928 0.00634461)
(-0.681402 0.16953 0.00594811)
(-0.633313 0.21113 0.00552843)
(-0.582912 0.24651 0.00508857)
(-0.530596 0.275441 0.00463199)
(-0.47681 0.297682 0.00416254)
(-0.422068 0.312977 0.00368476)
(-0.366939 0.321061 0.0032036)
(-0.312083 0.321655 0.0027248)
(-0.258248 0.314487 0.00225491)
(-0.206287 0.299298 0.00180134)
(-0.157156 0.27587 0.00137247)
(-0.111999 0.244059 0.00097826)
(-0.0720398 0.203838 0.0006294)
(-0.0389144 0.155321 0.000340145)
(-0.0141251 0.0988169 0.000123721)
(-0.000599089 0.0347343 7.44832e-06)
(-0.324164 -3.12863 0.00282863)
(-0.3889 -2.83427 0.00339374)
(-0.453931 -2.61093 0.00396133)
(-0.516077 -2.4302 0.00450377)
(-0.576134 -2.27418 0.00502796)
(-0.632898 -2.13181 0.00552342)
(-0.685967 -1.99703 0.00598665)
(-0.734844 -1.86665 0.00641328)
(-0.779272 -1.73921 0.00680109)
(-0.819079 -1.61416 0.00714858)
(-0.854189 -1.49143 0.00745507)
(-0.884571 -1.37116 0.00772029)
(-0.91023 -1.25356 0.0079443)
(-0.931189 -1.13887 0.00812729)
(-0.947481 -1.02731 0.00826956)
(-0.959142 -0.91907 0.0083714)
(-0.966213 -0.814319 0.00843316)
(-0.968737 -0.713214 0.00845525)
(-0.966761 -0.615901 0.00843806)
(-0.960338 -0.522521 0.00838206)
(-0.949531 -0.433214 0.00828781)
(-0.934414 -0.348122 0.00815593)
(-0.915075 -0.267392 0.00798719)
(-0.891616 -0.191176 0.00778251)
(-0.864166 -0.11964 0.00754298)
(-0.83287 -0.0529414 0.00726988)
(-0.797895 0.00875007 0.00696468)
(-0.759443 0.0652565 0.00662913)
(-0.717741 0.116397 0.0062652)
(-0.673062 0.161973 0.00587529)
(-0.625703 0.201795 0.00546198)
(-0.576008 0.235653 0.00502828)
(-0.524378 0.263324 0.00457768)
(-0.471259 0.284576 0.00411408)
(-0.417167 0.299161 0.00364197)
(-0.362674 0.306825 0.00316636)
(-0.308439 0.307302 0.00269298)
(-0.25521 0.300331 0.00222838)
(-0.203837 0.28567 0.00177995)
(-0.155269 0.263121 0.001356)
(-0.110641 0.232563 0.000966402)
(-0.0711614 0.193999 0.000621725)
(-0.038441 0.147586 0.000336007)
(-0.0139577 0.0936948 0.000122255)
(-0.000594419 0.0328163 7.38207e-06)
(-0.222094 -3.01488 0.00193763)
(-0.302645 -2.72594 0.00264078)
(-0.379287 -2.50501 0.00330974)
(-0.450725 -2.32741 0.00393329)
(-0.518232 -2.17509 0.00452252)
(-0.581102 -2.03722 0.00507129)
(-0.639256 -1.90747 0.0055789)
(-0.69242 -1.78247 0.00604296)
(-0.74051 -1.66061 0.00646274)
(-0.783479 -1.5412 0.00683783)
(-0.821345 -1.42408 0.00716837)
(-0.854153 -1.30934 0.00745478)
(-0.881965 -1.19717 0.00769758)
(-0.904853 -1.08775 0.0078974)
(-0.922885 -0.9813 0.00805486)
(-0.936129 -0.878001 0.00817052)
(-0.944651 -0.778016 0.00824494)
(-0.948515 -0.681495 0.00827873)
(-0.947784 -0.58858 0.00827241)
(-0.942527 -0.499407 0.00822659)
(-0.932817 -0.414111 0.00814191)
(-0.918739 -0.332831 0.0080191)
(-0.900387 -0.255707 0.00785898)
(-0.877872 -0.182887 0.00766253)
(-0.851326 -0.114533 0.0074309)
(-0.820899 -0.0507958 0.00716539)
(-0.786763 0.00815942 0.00686751)
(-0.749121 0.0621607 0.00653902)
(-0.708204 0.111032 0.00618195)
(-0.664287 0.154582 0.00579869)
(-0.61767 0.192627 0.00539185)
(-0.568698 0.224962 0.00496447)
(-0.517775 0.251373 0.00452004)
(-0.465349 0.271635 0.00406248)
(-0.411937 0.285511 0.00359631)
(-0.358112 0.292756 0.00312653)
(-0.304533 0.293114 0.00265888)
(-0.251947 0.286338 0.00219989)
(-0.2012 0.272202 0.00175692)
(-0.153234 0.250525 0.00133823)
(-0.109173 0.221208 0.00095358)
(-0.0702087 0.184285 0.000613402)
(-0.0379257 0.139951 0.000331503)
(-0.0137744 0.0886386 0.000120649)
(-0.000588982 0.0309219 7.3066e-06)
(-0.119826 -2.88956 0.0010449)
(-0.218149 -2.60949 0.00190314)
(-0.306349 -2.39361 0.00267303)
(-0.387298 -2.22073 0.00337961)
(-0.462082 -2.07321 0.00403237)
(-0.530905 -1.94057 0.00463311)
(-0.593936 -1.81637 0.00518329)
(-0.651192 -1.69714 0.00568308)
(-0.702758 -1.58112 0.0061332)
(-0.748719 -1.46755 0.00653441)
(-0.789188 -1.3562 0.00688768)
(-0.824284 -1.24711 0.00719405)
(-0.854125 -1.14043 0.00745457)
(-0.878827 -1.03635 0.00767022)
(-0.898495 -0.93506 0.00784197)
(-0.913227 -0.836737 0.00797061)
(-0.923113 -0.741541 0.00805694)
(-0.928236 -0.64962 0.00810172)
(-0.928679 -0.561112 0.00810564)
(-0.924523 -0.476151 0.00806943)
(-0.915853 -0.394869 0.00799383)
(-0.902763 -0.3174 0.00787964)
(-0.885357 -0.243881 0.00772778)
(-0.86375 -0.174456 0.00753926)
(-0.83808 -0.10928 0.00731528)
(-0.808502 -0.048501 0.00705717)
(-0.77519 0.00772136 0.00676649)
(-0.738352 0.0592207 0.00644502)
(-0.69822 0.105827 0.00609479)
(-0.655071 0.147353 0.00571824)
(-0.609207 0.183623 0.00531797)
(-0.560976 0.214438 0.00489705)
(-0.510781 0.239591 0.00445899)
(-0.459074 0.258866 0.0040077)
(-0.406371 0.272034 0.00354772)
(-0.353247 0.27886 0.00308406)
(-0.30036 0.2791 0.00262245)
(-0.248454 0.272519 0.00216939)
(-0.198371 0.258904 0.00173222)
(-0.151047 0.238092 0.00131912)
(-0.107591 0.210005 0.000939764)
(-0.0691794 0.174704 0.000604409)
(-0.037367 0.132424 0.000326619)
(-0.0135745 0.0836537 0.000118898)
(-0.000582703 0.0290533 7.2211e-06)
(-0.0240474 -2.75162 0.000208796)
(-0.139293 -2.48438 0.00121475)
(-0.23833 -2.27673 0.00207927)
(-0.328041 -2.11025 0.00286233)
(-0.40939 -1.96872 0.00357241)
(-0.483568 -1.84207 0.0042199)
(-0.55096 -1.72394 0.00480815)
(-0.611883 -1.61082 0.00533995)
(-0.666569 -1.5009 0.00581731)
(-0.715225 -1.39336 0.00624204)
(-0.758048 -1.28791 0.00661585)
(-0.795219 -1.18457 0.00694034)
(-0.826906 -1.08346 0.00721697)
(-0.853263 -0.984762 0.00744708)
(-0.874428 -0.888666 0.00763189)
(-0.890525 -0.795344 0.00777244)
(-0.901665 -0.704954 0.00786972)
(-0.907952 -0.617643 0.00792466)
(-0.909482 -0.533548 0.00793807)
(-0.90635 -0.4528 0.00791081)
(-0.898655 -0.375529 0.00784371)
(-0.886497 -0.301866 0.00773766)
(-0.869988 -0.231947 0.00759363)
(-0.84925 -0.165909 0.00741269)
(-0.824426 -0.103904 0.00719609)
(-0.795673 -0.0460755 0.00694519)
(-0.763171 0.00742118 0.00666157)
(-0.727129 0.0564252 0.00634705)
(-0.68778 0.100772 0.00600366)
(-0.645405 0.140281 0.00563386)
(-0.600305 0.174781 0.00524027)
(-0.552832 0.204081 0.00482596)
(-0.503388 0.227981 0.00439444)
(-0.452426 0.246273 0.00394966)
(-0.400463 0.258737 0.00349614)
(-0.348073 0.265147 0.00303888)
(-0.295913 0.26527 0.00258362)
(-0.244725 0.258883 0.00213683)
(-0.195346 0.245786 0.0017058)
(-0.148703 0.225832 0.00129865)
(-0.105892 0.198963 0.000924926)
(-0.0680707 0.165266 0.000594723)
(-0.036763 0.125011 0.00032134)
(-0.0133572 0.0787462 0.000116995)
(-0.000575493 0.0272129 7.12466e-06)
(0.0585184 -2.60152 -0.000512009)
(-0.0700228 -2.3516 0.000610061)
(-0.178306 -2.15522 0.00155529)
(-0.275029 -1.99673 0.00239957)
(-0.361711 -1.86225 0.00315621)
(-0.440224 -1.74222 0.00384154)
(-0.511182 -1.63057 0.00446093)
(-0.575139 -1.52384 0.0050192)
(-0.632436 -1.42021 0.00551936)
(-0.683377 -1.31882 0.00596404)
(-0.728216 -1.21937 0.00635546)
(-0.767184 -1.12184 0.00669563)
(-0.800482 -1.02635 0.00698632)
(-0.828295 -0.933081 0.00722914)
(-0.850786 -0.842206 0.00742552)
(-0.868098 -0.753902 0.00757669)
(-0.880364 -0.668327 0.00768379)
(-0.887701 -0.585629 0.00774789)
(-0.89022 -0.505943 0.00776994)
(-0.888028 -0.429402 0.00775088)
(-0.881233 -0.356134 0.00769163)
(-0.869944 -0.286268 0.00759317)
(-0.85428 -0.219936 0.00745651)
(-0.834369 -0.157273 0.00728279)
(-0.810357 -0.0984278 0.00707328)
(-0.782405 -0.0435387 0.00682937)
(-0.750696 0.00724349 0.00655268)
(-0.715441 0.0537629 0.00624502)
(-0.676875 0.0958599 0.00590847)
(-0.635279 0.133361 0.00554546)
(-0.590956 0.166099 0.00515865)
(-0.544256 0.193892 0.0047511)
(-0.495586 0.216546 0.00432634)
(-0.445396 0.233861 0.00388829)
(-0.394203 0.245626 0.00344149)
(-0.342582 0.251623 0.00299094)
(-0.291186 0.251632 0.00254235)
(-0.240755 0.245439 0.00210216)
(-0.192119 0.232858 0.00167763)
(-0.146198 0.213757 0.00127678)
(-0.104073 0.188094 0.000909034)
(-0.06688 0.155981 0.00058432)
(-0.036112 0.117723 0.00031565)
(-0.0131216 0.073922 0.000114931)
(-0.000567258 0.0254031 7.01628e-06)
(0.12334 -2.44178 -0.00107795)
(-0.0135671 -2.2136 0.000117252)
(-0.128519 -2.03071 0.00112069)
(-0.229846 -1.88146 0.00200517)
(-0.320216 -1.75474 0.002794)
(-0.401739 -1.64173 0.00350561)
(-0.475266 -1.5368 0.00414742)
(-0.541467 -1.43662 0.00472529)
(-0.600757 -1.33937 0.00524284)
(-0.653485 -1.2442 0.00570312)
(-0.699938 -1.15079 0.00610862)
(-0.740368 -1.05911 0.00646156)
(-0.775 -0.969267 0.00676389)
(-0.804035 -0.881434 0.00701738)
(-0.827652 -0.795787 0.00722359)
(-0.84601 -0.712503 0.00738388)
(-0.859253 -0.631741 0.00749952)
(-0.867513 -0.553647 0.00757167)
(-0.870911 -0.478361 0.0076014)
(-0.869565 -0.406014 0.00758971)
(-0.863589 -0.336733 0.00753763)
(-0.853102 -0.270647 0.00744616)
(-0.838227 -0.207885 0.00731639)
(-0.819097 -0.148581 0.00714948)
(-0.795862 -0.0928775 0.00694675)
(-0.768686 -0.0409111 0.00670962)
(-0.737753 0.00717229 0.0064397)
(-0.703276 0.0512217 0.00613883)
(-0.665492 0.0910827 0.0058091)
(-0.62468 0.126588 0.00545294)
(-0.581146 0.157576 0.00507302)
(-0.535239 0.183872 0.00467238)
(-0.487365 0.205289 0.00425457)
(-0.437975 0.221635 0.00382351)
(-0.387585 0.232707 0.00338371)
(-0.336766 0.238298 0.00294017)
(-0.286172 0.238195 0.00249857)
(-0.236537 0.232198 0.00206534)
(-0.188686 0.220131 0.00164765)
(-0.143528 0.201876 0.00125346)
(-0.102129 0.177407 0.000892058)
(-0.0656047 0.146858 0.000573178)
(-0.0354122 0.110567 0.000309534)
(-0.0128669 0.0691874 0.0001127)
(-0.000557889 0.0236265 6.89487e-06)
(0.169234 -2.27668 -0.00147869)
(0.0285895 -2.07357 -0.000250722)
(-0.0898309 -1.90534 0.000782987)
(-0.193247 -1.76607 0.00168572)
(-0.28549 -1.64735 0.00249089)
(-0.368599 -1.54147 0.00321634)
(-0.443609 -1.44329 0.0038711)
(-0.511199 -1.34964 0.00446109)
(-0.571803 -1.25876 0.00499012)
(-0.625771 -1.1698 0.00546121)
(-0.673389 -1.08241 0.00587689)
(-0.714914 -0.996569 0.00623938)
(-0.750571 -0.912365 0.00655066)
(-0.780567 -0.829959 0.00681254)
(-0.805089 -0.749529 0.00702664)
(-0.824302 -0.671251 0.0071944)
(-0.838361 -0.595284 0.00731716)
(-0.847405 -0.521777 0.00739616)
(-0.851563 -0.45087 0.00743252)
(-0.850961 -0.382694 0.00742733)
(-0.84572 -0.317377 0.00738165)
(-0.835962 -0.255047 0.00729655)
(-0.821817 -0.195832 0.00717315)
(-0.803421 -0.139863 0.00701265)
(-0.780926 -0.0872789 0.00681638)
(-0.754499 -0.0382136 0.00658579)
(-0.724326 0.00719121 0.00632249)
(-0.690618 0.0487895 0.00602834)
(-0.653615 0.0864319 0.00570542)
(-0.613594 0.119957 0.00535618)
(-0.570862 0.14921 0.00498325)
(-0.525767 0.174021 0.0045897)
(-0.478714 0.194213 0.00417905)
(-0.430153 0.2096 0.00375522)
(-0.380598 0.219988 0.00332271)
(-0.330618 0.225179 0.0028865)
(-0.280864 0.22497 0.00245224)
(-0.232067 0.21917 0.00202631)
(-0.185041 0.207616 0.00161583)
(-0.140689 0.1902 0.00122867)
(-0.100058 0.166913 0.000873968)
(-0.0642419 0.137909 0.000561273)
(-0.0346618 0.103553 0.000302974)
(-0.0125921 0.0645489 0.000110293)
(-0.000547268 0.0218859 6.75921e-06)
(0.197689 -2.11124 -0.0017272)
(0.056939 -1.93457 -0.000498164)
(-0.0617612 -1.78127 0.000537988)
(-0.165098 -1.65209 0.00144002)
(-0.257507 -1.54123 0.00224665)
(-0.340883 -1.44229 0.00297443)
(-0.416333 -1.35068 0.00363302)
(-0.484473 -1.26341 0.00422781)
(-0.54571 -1.17878 0.00476237)
(-0.600359 -1.09593 0.0052394)
(-0.648679 -1.0145 0.00566121)
(-0.690909 -0.934439 0.00602986)
(-0.727264 -0.855825 0.00634722)
(-0.757944 -0.778809 0.00661506)
(-0.783133 -0.703563 0.006835)
(-0.803 -0.630258 0.00700847)
(-0.817702 -0.559054 0.00713683)
(-0.827382 -0.490102 0.00722138)
(-0.832174 -0.423541 0.00726328)
(-0.832209 -0.359505 0.00726365)
(-0.827611 -0.29812 0.00722359)
(-0.818509 -0.239515 0.00714421)
(-0.805033 -0.183816 0.00702665)
(-0.787323 -0.131151 0.00687213)
(-0.765532 -0.0816586 0.006682)
(-0.739827 -0.0354678 0.00645771)
(-0.710396 0.00728362 0.00620089)
(-0.67745 0.0464541 0.0059134)
(-0.641227 0.0818993 0.00559729)
(-0.602006 0.113464 0.00525502)
(-0.56009 0.140999 0.00488921)
(-0.515827 0.164342 0.00450293)
(-0.469621 0.183322 0.00409967)
(-0.421919 0.197761 0.00368334)
(-0.373233 0.207476 0.00325842)
(-0.32413 0.212275 0.00282985)
(-0.275256 0.211965 0.00240327)
(-0.227337 0.206366 0.00198501)
(-0.18118 0.195323 0.00158212)
(-0.137677 0.178742 0.00120236)
(-0.0978558 0.156625 0.000854733)
(-0.0627891 0.129143 0.00054858)
(-0.0338588 0.0966885 0.000295956)
(-0.0122962 0.0600134 0.000107702)
(-0.000535268 0.020184 6.60799e-06)
(0.212306 -1.95005 -0.00185491)
(0.0738619 -1.79899 -0.000645861)
(-0.042739 -1.6602 0.000371977)
(-0.144479 -1.54072 0.00126007)
(-0.235727 -1.43728 0.00205656)
(-0.318311 -1.34491 0.00277742)
(-0.393307 -1.25954 0.00343205)
(-0.461248 -1.17839 0.00402511)
(-0.522487 -1.0998 0.00455967)
(-0.577279 -1.0229 0.00503796)
(-0.625845 -0.947314 0.0054619)
(-0.66839 -0.872937 0.0058333)
(-0.705107 -0.799837 0.00615383)
(-0.736184 -0.728145 0.00642514)
(-0.761795 -0.658024 0.00664876)
(-0.782106 -0.589641 0.00682609)
(-0.79727 -0.523153 0.00695849)
(-0.807432 -0.45871 0.00704725)
(-0.812728 -0.396451 0.00709354)
(-0.813289 -0.336511 0.0070985)
(-0.809243 -0.279018 0.00706326)
(-0.80072 -0.224097 0.00698893)
(-0.787851 -0.171876 0.00687667)
(-0.770777 -0.12248 0.00672772)
(-0.749653 -0.0760439 0.00654341)
(-0.724646 -0.0326952 0.0063252)
(-0.695941 0.00743282 0.00607472)
(-0.66375 0.0442031 0.00579381)
(-0.628309 0.0774766 0.00548453)
(-0.589896 0.107104 0.00514931)
(-0.548812 0.132942 0.00479077)
(-0.505404 0.154835 0.00441194)
(-0.460072 0.172619 0.00401631)
(-0.413261 0.186126 0.00360776)
(-0.36548 0.195178 0.00319073)
(-0.317293 0.199595 0.00277016)
(-0.269341 0.199191 0.00235163)
(-0.222342 0.193795 0.0019414)
(-0.177098 0.183264 0.00154647)
(-0.134486 0.167511 0.0011745)
(-0.0955192 0.146551 0.000834325)
(-0.0612435 0.120571 0.000535077)
(-0.0330014 0.0899842 0.000288462)
(-0.0119784 0.0555876 0.000104918)
(-0.000521744 0.018524 6.43978e-06)
(0.217466 -1.79589 -0.00190004)
(0.082666 -1.66803 -0.000722686)
(-0.0306933 -1.54302 0.000266869)
(-0.130034 -1.43262 0.00113401)
(-0.219304 -1.33609 0.00191324)
(-0.300369 -1.24984 0.00262083)
(-0.374227 -1.17031 0.00326553)
(-0.441353 -1.09496 0.00385147)
(-0.502038 -1.02216 0.00438119)
(-0.556481 -0.951018 0.00485643)
(-0.604858 -0.881103 0.00527873)
(-0.647339 -0.812283 0.00564956)
(-0.684088 -0.744588 0.00597038)
(-0.715275 -0.67813 0.00624264)
(-0.74106 -0.613056 0.00646777)
(-0.7616 -0.549524 0.00664711)
(-0.777043 -0.487687 0.00678194)
(-0.78753 -0.427692 0.00687354)
(-0.793196 -0.369679 0.00692306)
(-0.794172 -0.313782 0.00693164)
(-0.790585 -0.260128 0.0069004)
(-0.782564 -0.208843 0.00683046)
(-0.770241 -0.160053 0.00672297)
(-0.753757 -0.113882 0.00657915)
(-0.733264 -0.0704622 0.00640035)
(-0.708928 -0.0299175 0.00618801)
(-0.680935 0.00762227 0.00594374)
(-0.649494 0.0420249 0.00566937)
(-0.614839 0.0731561 0.00536695)
(-0.577245 0.100873 0.00503888)
(-0.537011 0.125038 0.00468775)
(-0.494482 0.145502 0.00431659)
(-0.450053 0.16211 0.00392885)
(-0.404167 0.174701 0.00352837)
(-0.357329 0.183104 0.00311958)
(-0.310098 0.187148 0.00270735)
(-0.26311 0.186658 0.00229723)
(-0.217077 0.18147 0.00189543)
(-0.17279 0.17145 0.00150885)
(-0.131115 0.15652 0.00114506)
(-0.0930451 0.136705 0.000812716)
(-0.0596027 0.112203 0.000520743)
(-0.0320879 0.0834493 0.000280477)
(-0.0116375 0.0512789 0.000101932)
(-0.000506542 0.016909 6.25302e-06)
(0.216835 -1.6494 -0.00189459)
(0.0862409 -1.54185 -0.000753866)
(-0.0237437 -1.42978 0.000206242)
(-0.120428 -1.32792 0.00105019)
(-0.207359 -1.23788 0.001809)
(-0.286467 -1.15733 0.00249952)
(-0.358708 -1.08329 0.0031301)
(-0.424534 -1.01342 0.00370469)
(-0.484196 -0.946148 0.00422547)
(-0.537852 -0.880532 0.00469384)
(-0.58564 -0.816105 0.00511099)
(-0.627695 -0.752685 0.00547811)
(-0.664157 -0.690265 0.00579642)
(-0.695172 -0.628927 0.00606718)
(-0.720885 -0.5688 0.00629168)
(-0.741441 -0.51003 0.00647116)
(-0.756979 -0.452763 0.00660683)
(-0.767635 -0.397141 0.0066999)
(-0.77354 -0.343304 0.0067515)
(-0.774819 -0.291384 0.00676272)
(-0.771598 -0.241508 0.00673468)
(-0.764005 -0.193801 0.00666846)
(-0.752168 -0.148388 0.00656521)
(-0.736226 -0.105392 0.00642613)
(-0.71633 -0.0649408 0.00625254)
(-0.692645 -0.0271563 0.00604587)
(-0.665351 0.00783572 0.0058077)
(-0.634657 0.0399077 0.00553986)
(-0.600793 0.0689306 0.00524434)
(-0.564031 0.0947673 0.00492353)
(-0.524668 0.117287 0.00458)
(-0.483043 0.136347 0.00421674)
(-0.439549 0.1518 0.00383715)
(-0.394624 0.163491 0.00344506)
(-0.348769 0.171261 0.00304485)
(-0.302537 0.174945 0.00264134)
(-0.256557 0.174377 0.00224002)
(-0.211535 0.169402 0.00184704)
(-0.168251 0.159893 0.00146922)
(-0.127558 0.145781 0.001114)
(-0.0904307 0.127098 0.000789881)
(-0.0578645 0.104051 0.000505557)
(-0.0311164 0.0770934 0.000271986)
(-0.0112727 0.0470947 9.87372e-05)
(-0.000489495 0.0153422 6.04604e-06)
(0.212408 -1.51002 -0.00185597)
(0.0862057 -1.42 -0.000753534)
(-0.0206615 -1.32008 0.00017937)
(-0.114689 -1.2264 0.00100013)
(-0.199171 -1.14261 0.00173756)
(-0.276074 -1.06748 0.00240883)
(-0.346362 -0.998651 0.00302236)
(-0.410507 -0.933994 0.00358227)
(-0.46875 -0.871986 0.00409068)
(-0.521232 -0.811674 0.00454879)
(-0.568064 -0.752538 0.0049576)
(-0.609357 -0.694346 0.00531806)
(-0.645226 -0.637049 0.0056312)
(-0.675799 -0.580699 0.00589809)
(-0.701202 -0.5254 0.00611989)
(-0.721567 -0.471285 0.00629769)
(-0.737022 -0.418489 0.00643264)
(-0.747694 -0.367152 0.00652585)
(-0.753707 -0.317407 0.00657839)
(-0.755181 -0.269387 0.00659132)
(-0.752237 -0.223217 0.00656568)
(-0.744997 -0.179021 0.00650256)
(-0.733589 -0.136923 0.00640305)
(-0.718146 -0.0970428 0.00626832)
(-0.698816 -0.0595068 0.00609967)
(-0.67576 -0.0244327 0.00589849)
(-0.649157 0.00805741 0.00566635)
(-0.619209 0.0378407 0.00540501)
(-0.586144 0.0647933 0.00511647)
(-0.550231 0.0887844 0.00480307)
(-0.511761 0.109689 0.00446733)
(-0.471069 0.127372 0.00411222)
(-0.428545 0.141693 0.00374109)
(-0.38462 0.152506 0.00335773)
(-0.339789 0.159659 0.00296645)
(-0.294601 0.162996 0.00257205)
(-0.249676 0.162359 0.00217994)
(-0.205711 0.157601 0.00179619)
(-0.163477 0.148604 0.00142754)
(-0.123813 0.135305 0.0010813)
(-0.0876734 0.11774 0.000765799)
(-0.0560267 0.0961259 0.000489502)
(-0.0300855 0.0709263 0.000262976)
(-0.0108829 0.0430425 9.53237e-05)
(-0.00047042 0.0138272 5.81707e-06)
(0.204614 -1.37703 -0.00178794)
(0.0829576 -1.30206 -0.000725157)
(-0.0209301 -1.21347 0.000181742)
(-0.112291 -1.1278 0.000979226)
(-0.194261 -1.05015 0.00169473)
(-0.268772 -0.980312 0.00234512)
(-0.336843 -0.9165 0.0029393)
(-0.398988 -0.856836 0.00348175)
(-0.455469 -0.799873 0.00397478)
(-0.506429 -0.744648 0.00441961)
(-0.551971 -0.690601 0.00481716)
(-0.592189 -0.637453 0.00516824)
(-0.627181 -0.585113 0.00547371)
(-0.657054 -0.5336 0.0057345)
(-0.681921 -0.482993 0.0059516)
(-0.701896 -0.433409 0.00612601)
(-0.717096 -0.384973 0.00625873)
(-0.727638 -0.337815 0.00635079)
(-0.733634 -0.292068 0.00640319)
(-0.735199 -0.247859 0.00641691)
(-0.732446 -0.205312 0.00639294)
(-0.725492 -0.164552 0.00633231)
(-0.714458 -0.125697 0.00623606)
(-0.699473 -0.088868 0.00610533)
(-0.680681 -0.0541864 0.00594137)
(-0.658238 -0.0217671 0.00574554)
(-0.632317 0.00827228 0.00551936)
(-0.603119 0.0358135 0.00526456)
(-0.570865 0.0607383 0.0049831)
(-0.535819 0.082922 0.00467726)
(-0.498268 0.102246 0.00434955)
(-0.458542 0.118582 0.00400286)
(-0.417023 0.131797 0.00364051)
(-0.374139 0.141754 0.00326624)
(-0.330378 0.148308 0.0028843)
(-0.28628 0.151312 0.00249941)
(-0.242459 0.150616 0.00211693)
(-0.199601 0.146082 0.00174284)
(-0.158466 0.137597 0.00138377)
(-0.119878 0.125104 0.00104693)
(-0.0847713 0.108644 0.000740452)
(-0.0540877 0.0884384 0.000472563)
(-0.0289937 0.0649581 0.000253434)
(-0.0104673 0.0391301 9.16838e-05)
(-0.000449124 0.0123675 5.56419e-06)
(0.192922 -1.25001 -0.00168585)
(0.0761519 -1.18783 -0.000665723)
(-0.0245488 -1.10976 0.000213357)
(-0.113064 -1.03195 0.000985998)
(-0.192358 -0.960427 0.00167815)
(-0.26426 -0.895838 0.00230577)
(-0.329854 -0.836931 0.00287832)
(-0.389702 -0.782095 0.00340073)
(-0.444107 -0.729983 0.00387563)
(-0.49323 -0.679641 0.00430442)
(-0.537175 -0.630482 0.00468803)
(-0.576029 -0.582186 0.0050272)
(-0.609878 -0.534624 0.00532269)
(-0.638813 -0.487781 0.00557529)
(-0.662929 -0.441715 0.00578585)
(-0.682328 -0.396523 0.00595523)
(-0.697112 -0.352317 0.00608431)
(-0.707384 -0.309222 0.00617402)
(-0.713247 -0.267364 0.00622526)
(-0.714805 -0.226866 0.00623891)
(-0.712163 -0.187851 0.00621591)
(-0.70543 -0.15044 0.0061572)
(-0.694721 -0.114751 0.00606379)
(-0.680159 -0.0808998 0.00593675)
(-0.66188 -0.0490055 0.00577727)
(-0.640036 -0.0191791 0.00558667)
(-0.614796 0.00846606 0.00536642)
(-0.586353 0.0338168 0.00511822)
(-0.554925 0.0567604 0.00484396)
(-0.520768 0.0771787 0.00454588)
(-0.484165 0.0949593 0.00422644)
(-0.445439 0.109981 0.00388848)
(-0.404968 0.12212 0.00353527)
(-0.363169 0.131244 0.00317047)
(-0.320525 0.137218 0.00279828)
(-0.277567 0.139904 0.00242334)
(-0.234899 0.13916 0.00205093)
(-0.193199 0.134856 0.00168695)
(-0.153213 0.126883 0.00133791)
(-0.11575 0.115191 0.00101088)
(-0.0817229 0.0998227 0.000713828)
(-0.0520462 0.0809997 0.000454728)
(-0.02784 0.0591988 0.00024335)
(-0.010025 0.0353654 8.78104e-05)
(-0.000425401 0.010967 5.28542e-06)
(0.176595 -1.12891 -0.00154328)
(0.0652561 -1.07745 -0.000570581)
(-0.0317242 -1.00903 0.00027602)
(-0.117 -0.938877 0.00102039)
(-0.193302 -0.873487 0.00168641)
(-0.2623 -0.814137 0.00228869)
(-0.325124 -0.760064 0.00283707)
(-0.382377 -0.709923 0.00333682)
(-0.434405 -0.662486 0.00379097)
(-0.481395 -0.616831 0.00420115)
(-0.52346 -0.572356 0.00456835)
(-0.560687 -0.528712 0.00489331)
(-0.593149 -0.485737 0.0051767)
(-0.620926 -0.443386 0.00541919)
(-0.644098 -0.401694 0.00562151)
(-0.66275 -0.360739 0.00578435)
(-0.676968 -0.320623 0.0059085)
(-0.686843 -0.281461 0.00599474)
(-0.692465 -0.243371 0.00604386)
(-0.693925 -0.206474 0.00605667)
(-0.691321 -0.170889 0.006034)
(-0.684751 -0.136734 0.00597671)
(-0.674322 -0.104123 0.00588574)
(-0.66015 -0.0731693 0.0057621)
(-0.642365 -0.0439885 0.00560693)
(-0.621112 -0.0166873 0.00542148)
(-0.596553 0.00862549 0.00520718)
(-0.568875 0.0318422 0.00496565)
(-0.53829 0.0528557 0.00469876)
(-0.505049 0.0715545 0.00440867)
(-0.469427 0.0878326 0.00409779)
(-0.431741 0.101576 0.00376891)
(-0.39236 0.112668 0.00342521)
(-0.351695 0.120986 0.0030703)
(-0.310218 0.126402 0.0027083)
(-0.268452 0.128787 0.00234377)
(-0.226992 0.128006 0.00198189)
(-0.186502 0.123936 0.00162848)
(-0.147716 0.116476 0.00128992)
(-0.111428 0.105578 0.00097314)
(-0.0785275 0.0912868 0.00068592)
(-0.0499017 0.0738213 0.000435994)
(-0.0266235 0.0536585 0.000232719)
(-0.00955535 0.0317564 8.36972e-05)
(-0.000399036 0.00962945 4.97868e-06)
(0.155195 -1.01387 -0.00135639)
(0.0499403 -0.971269 -0.00043685)
(-0.0425961 -0.911585 0.000370952)
(-0.124076 -0.848817 0.00108218)
(-0.196933 -0.789499 0.00171815)
(-0.262654 -0.735365 0.00229181)
(-0.322375 -0.686056 0.00281311)
(-0.376723 -0.640484 0.00328751)
(-0.426084 -0.597553 0.00371837)
(-0.470664 -0.556389 0.00410752)
(-0.510592 -0.516391 0.00445605)
(-0.545951 -0.47719 0.00476472)
(-0.576809 -0.438599 0.0050341)
(-0.603231 -0.400549 0.00526476)
(-0.625283 -0.363051 0.00545729)
(-0.643032 -0.326168 0.00561226)
(-0.65655 -0.289987 0.00573029)
(-0.665912 -0.254614 0.00581206)
(-0.671194 -0.220162 0.00585822)
(-0.672477 -0.186746 0.00586947)
(-0.669844 -0.154479 0.00584654)
(-0.663385 -0.123476 0.00579023)
(-0.653198 -0.0938489 0.00570137)
(-0.63939 -0.0657063 0.0055809)
(-0.622084 -0.0391589 0.00542991)
(-0.601417 -0.0143095 0.00524957)
(-0.577544 0.00873838 0.00504126)
(-0.550646 0.0298823 0.00480654)
(-0.520928 0.0490213 0.0045472)
(-0.488633 0.0660503 0.00426537)
(-0.454028 0.0808699 0.00396338)
(-0.417425 0.0933739 0.00364393)
(-0.379181 0.103452 0.00331017)
(-0.339701 0.110992 0.00296559)
(-0.299445 0.115872 0.00261425)
(-0.258928 0.117972 0.00226062)
(-0.218732 0.117165 0.00190977)
(-0.179508 0.113336 0.0015674)
(-0.141975 0.10639 0.00123979)
(-0.106912 0.096279 0.000933703)
(-0.0751853 0.0830486 0.000656729)
(-0.0476541 0.0669141 0.000416359)
(-0.025344 0.0483472 0.000221536)
(-0.00905771 0.0283112 7.93391e-05)
(-0.000369803 0.00835891 4.64188e-06)
(0.128747 -0.905041 -0.00112542)
(0.0302423 -0.869705 -0.000264862)
(-0.0570744 -0.817868 0.000497369)
(-0.134118 -0.762115 0.00116988)
(-0.203004 -0.708736 0.00177117)
(-0.265024 -0.659746 0.00231253)
(-0.321286 -0.615105 0.00280364)
(-0.37242 -0.573964 0.00324998)
(-0.418834 -0.535361 0.00365513)
(-0.460753 -0.498483 0.00402104)
(-0.498311 -0.462745 0.0043489)
(-0.531592 -0.427769 0.00463941)
(-0.560653 -0.393349 0.00489311)
(-0.585548 -0.359395 0.00511044)
(-0.606325 -0.3259 0.00529184)
(-0.623035 -0.292909 0.00543774)
(-0.635735 -0.260498 0.00554863)
(-0.644483 -0.228763 0.00562503)
(-0.649339 -0.197807 0.00566747)
(-0.650372 -0.16774 0.00567654)
(-0.647653 -0.138672 0.00565286)
(-0.641261 -0.110711 0.00559712)
(-0.631283 -0.0839656 0.00551009)
(-0.617819 -0.0585396 0.00539262)
(-0.600982 -0.034539 0.00524571)
(-0.580901 -0.0120618 0.0050705)
(-0.557724 0.00879381 0.00486826)
(-0.531625 0.0279312 0.00464051)
(-0.502801 0.0452553 0.00438897)
(-0.471486 0.0606682 0.0041157)
(-0.437941 0.0740769 0.00382294)
(-0.402466 0.0853827 0.00351335)
(-0.365412 0.0944836 0.00318997)
(-0.327172 0.101274 0.00285622)
(-0.288196 0.105642 0.00251605)
(-0.248987 0.107475 0.00217383)
(-0.210113 0.106654 0.00183453)
(-0.172212 0.103072 0.00150371)
(-0.135989 0.0966371 0.00118752)
(-0.102202 0.0873059 0.000892578)
(-0.0716974 0.0751204 0.000626266)
(-0.0453044 0.0602892 0.000395832)
(-0.0240017 0.0432747 0.000209804)
(-0.00853178 0.0250377 7.47334e-05)
(-0.00033748 0.00715946 4.27291e-06)
(0.0978318 -0.802536 -0.000855448)
(0.00664153 -0.77317 -5.88017e-05)
(-0.0747493 -0.728352 0.000651691)
(-0.146733 -0.679183 0.00128003)
(-0.211119 -0.631529 0.00184204)
(-0.269013 -0.587544 0.0023474)
(-0.321469 -0.547432 0.00280528)
(-0.369098 -0.510554 0.00322103)
(-0.412316 -0.476081 0.00359827)
(-0.451351 -0.443272 0.00393902)
(-0.486342 -0.411565 0.00424445)
(-0.517365 -0.380584 0.00451526)
(-0.544468 -0.350111 0.00475186)
(-0.567688 -0.32004 0.00495458)
(-0.58706 -0.290345 0.00512371)
(-0.602616 -0.261058 0.00525953)
(-0.614395 -0.232241 0.00536238)
(-0.62244 -0.20398 0.00543264)