/*--------------------------------*- C++ -*----------------------------------*\
| =========                 |                                                 |
| \\      /  F ield         | OpenFOAM: The Open Source CFD Toolbox           |
|  \\    /   O peration     | Version:  v2012                                 |
|   \\  /    A nd           | Website:  www.openfoam.com                      |
|    \\/     M anipulation  |                                                 |
\*---------------------------------------------------------------------------*/
FoamFile
{
    version     2.0;
    format      ascii;
    class       volScalarField;
    location    "0.2";
    object      alpha.water;
}
// * * * * * * * * * * * * * * * * * * * * * * * * * * * * * * * * * * * * * //

dimensions      [0 0 0 0 0 0 0];


internalField   nonuniform List<scalar> 
3338
(
9.46051e-16
9.63346e-15
0
1.10934e-99
9.05058e-116
1.059e-195
9.03679e-208
2.51339e-205
9.28388e-203
4.36417e-200
2.54854e-197
1.82802e-194
1.60777e-191
1.74334e-188
2.36065e-185
4.07385e-182
9.21845e-179
2.84366e-175
1.26349e-171
8.84336e-168
1.18909e-163
7.43359e-21
1.19064e-19
1.57063e-42
4.10062e-99
1.40216e-114
7.9063e-194
1.45712e-193
1.35946e-191
1.67988e-189
2.63977e-187
5.15434e-185
1.23686e-182
3.64074e-180
1.32098e-177
5.97847e-175
3.43978e-172
2.58506e-169
2.63592e-166
3.85784e-163
8.90755e-160
4.0499e-156
9.32388e-22
1.15371e-20
3.10787e-42
1.49175e-96
5.13116e-114
1.06153e-189
4.23295e-188
2.38938e-186
1.78065e-184
1.68582e-182
1.98334e-180
2.86884e-178
5.09146e-176
1.11339e-173
3.03269e-171
1.0473e-168
4.70468e-166
2.8533e-163
2.4735e-160
3.38603e-157
9.29674e-154
9.43405e-23
9.88787e-22
7.47436e-41
1.98427e-96
1.0354e-112
1.06153e-189
3.24466e-184
1.32197e-182
7.08489e-181
4.81615e-179
4.06608e-177
4.2196e-175
5.37067e-173
8.41544e-171
1.63983e-168
4.04083e-166
1.29076e-163
5.54396e-161
3.3917e-158
3.27546e-155
6.40534e-152
1.04864e-23
9.48185e-23
2.06864e-56
6.15282e-82
1.00227e-96
5.78616e-126
3.9442e-181
1.26341e-179
5.3027e-178
2.81732e-176
1.85701e-174
1.50339e-172
1.49142e-170
1.81908e-168
2.75397e-166
5.25887e-164
1.29753e-161
4.28917e-159
2.01304e-156
1.48982e-153
2.24475e-150
1.09181e-24
8.70408e-24
5.20993e-40
3.21645e-81
-3.80244e-118
4.51976e-126
1.60282e-178
4.22177e-177
1.45372e-175
6.32787e-174
3.41415e-172
2.26064e-170
1.83237e-168
1.82358e-166
2.24842e-164
3.48826e-162
6.97222e-160
1.86116e-157
7.03343e-155
4.18563e-152
5.08641e-149
1.04932e-25
7.48654e-25
9.83187e-40
1.46461e-80
7.91008e-97
1.13649e-125
6.00006e-177
9.48085e-175
2.60195e-173
9.15697e-172
4.03144e-170
2.19131e-168
1.46361e-166
1.20282e-164
1.2256e-162
1.57082e-160
2.59041e-158
5.6935e-156
1.76724e-153
8.61749e-151
8.55955e-148
8.95597e-27
5.79858e-26
2.17026e-39
1.76524e-79
7.65737e-117
1.79837e-128
7.16512e-145
5.01329e-172
1.11897e-170
3.18224e-169
1.12752e-167
4.91656e-166
2.62546e-164
1.71761e-162
1.38496e-160
1.39294e-158
1.78093e-156
2.98055e-154
6.84309e-152
2.33813e-149
1.40599e-146
6.48566e-28
3.85395e-27
4.64728e-39
1.47034e-96
1.45565e-96
2.83565e-116
1.47332e-144
1.64126e-169
3.2325e-168
8.1873e-167
2.6035e-165
1.0251e-163
4.96712e-162
2.96042e-160
2.18215e-158
2.01254e-156
2.36639e-154
3.65143e-152
7.73386e-150
2.41183e-147
1.3016e-144
3.75879e-29
2.07048e-28
9.50474e-39
2.88173e-55
4.90545e-96
4.40142e-115
1.82302e-144
4.1332e-167
7.81845e-166
1.85448e-164
5.42028e-163
1.93343e-161
8.38728e-160
4.42916e-158
2.86428e-156
2.29382e-154
2.31427e-152
3.01738e-150
5.27645e-148
1.31416e-145
1.85647e-142
1.57821e-30
8.12815e-30
1.84041e-38
7.10306e-77
5.88945e-96
1.08006e-136
5.75577e-144
2.10106e-165
3.80301e-164
8.66001e-163
2.43629e-161
8.38896e-160
3.52752e-158
1.8171e-156
1.15736e-154
9.26239e-153
9.54553e-151
1.31446e-148
2.52418e-146
1.73797e-143
2.23507e-140
4.00171e-32
1.93548e-31
3.37774e-38
5.75102e-56
1.02714e-95
4.81753e-111
2.58014e-145
1.03343e-163
1.65319e-162
3.30085e-161
8.08107e-160
2.40171e-158
8.63415e-157
3.75962e-155
1.99695e-153
1.31162e-151
1.08906e-149
1.18301e-147
7.8233e-146
1.99249e-141
2.32315e-138
1.03658e-33
2.05593e-33
5.88086e-38
6.20609e-56
1.48311e-111
1.45436e-111
4.18308e-144
3.33514e-162
5.05963e-161
9.5947e-160
2.23479e-158
6.33898e-157
2.18719e-155
9.22412e-154
4.81005e-152
3.16048e-150
2.6879e-148
3.00395e-146
6.96154e-146
1.99321e-139
2.1243e-136
5.29306e-34
3.67043e-35
9.71391e-38
7.46002e-56
2.59764e-73
1.50247e-111
5.80663e-144
1.06408e-160
1.46468e-159
2.49503e-158
5.17e-157
1.29176e-155
3.88514e-154
1.41225e-152
6.27089e-151
3.46273e-149
2.43567e-147
9.18891e-146
-1.02414e-144
1.76971e-137
1.73437e-134
5.00834e-34
2.58041e-35
1.52755e-37
1.33502e-70
4.57346e-93
1.76704e-111
1.23457e-143
2.40689e-159
3.11658e-158
5.01057e-157
9.84634e-156
2.35097e-154
6.8345e-153
2.43956e-151
1.08542e-149
6.14375e-148
4.35555e-146
1.4061e-145
-9.85724e-143
1.41274e-135
1.27964e-132
4.93252e-34
2.06252e-35
2.27554e-37
2.11108e-53
2.06304e-75
4.80947e-111
1.9596e-143
5.62218e-158
6.75105e-157
9.9459e-156
1.77171e-154
3.7958e-153
9.80321e-152
3.07703e-150
1.18976e-148
5.74554e-147
1.03031e-145
4.80757e-145
-7.57556e-141
1.02489e-133
8.61801e-131
5.38478e-34
1.8673e-35
3.19257e-37
1.33576e-64
1.98925e-75
2.69995e-124
3.24627e-144
9.43386e-157
1.05295e-155
1.44668e-154
2.41911e-153
4.91929e-152
1.22587e-150
3.79285e-149
1.47912e-147
6.7321e-146
1.74742e-145
2.36491e-143
-5.30499e-139
6.81823e-132
5.34295e-129
6.07087e-34
1.80703e-35
3.8359e-37
1.74638e-54
-2.38547e-96
8.52575e-111
3.47567e-143
1.63967e-155
1.73142e-154
2.2346e-153
3.49167e-152
6.60619e-151
1.52413e-149
4.32923e-148
1.51866e-146
1.21749e-145
9.82336e-145
1.72211e-141
-3.41895e-137
4.19184e-130
3.07167e-127
7.19554e-34
1.84426e-35
4.16581e-37
1.76705e-54
8.1438e-72
1.24422e-110
6.14928e-146
2.18025e-154
2.11237e-153
2.4979e-152
3.58622e-151
6.28252e-150
1.35831e-148
3.66204e-147
9.64541e-146
2.29755e-145
5.5429e-143
1.16733e-139
-2.04234e-135
2.39767e-128
1.64791e-125
8.57888e-34
1.89536e-35
4.22352e-37
1.79961e-54
-1.04838e-92
5.55503e-110
7.6525e-143
2.76898e-153
2.57808e-152
2.94425e-151
4.11677e-150
7.08869e-149
1.51321e-147
3.95108e-146
1.56663e-145
2.79508e-144
3.66013e-141
7.34182e-138
-1.13782e-133
1.28344e-126
8.29598e-124
9.8306e-34
1.74394e-35
4.05519e-37
-1.19271e-72
5.52991e-73
-4.77355e-130
1.10859e-142
3.04068e-152
2.59954e-151
2.71059e-150
3.45089e-149
5.39871e-148
1.04099e-146
1.25186e-145
3.88193e-145
1.65736e-142
2.26095e-139
4.30946e-136
-5.94417e-132
6.46259e-125
3.93825e-122
1.03923e-33
1.07317e-35
3.1572e-37
5.07905e-54
5.56853e-73
2.13872e-108
2.00771e-142
2.83327e-151
2.315e-150
2.34284e-149
2.95185e-148
4.65123e-147
8.5596e-146
2.18707e-145
1.04846e-143
1.00434e-140
1.30734e-137
2.37331e-134
-2.92598e-130
3.07526e-123
1.77065e-120
9.03688e-34
6.81976e-35
3.4654e-37
1.15652e-54
6.6523e-73
4.19337e-108
3.22808e-142
2.52891e-150
1.96598e-149
1.89604e-148
2.2737e-147
3.37934e-146
1.65379e-145
1.09299e-144
6.08087e-142
5.72293e-139
7.11035e-136
1.2321e-132
-1.36294e-128
1.38862e-121
7.5692e-119
7.50845e-34
8.69023e-34
3.78941e-37
1.32626e-53
2.09096e-70
6.52039e-107
2.28221e-137
1.82453e-149
1.31742e-148
1.18965e-147
1.34909e-146
1.37878e-145
3.40127e-145
4.84005e-143
3.41432e-140
3.0747e-137
3.65342e-134
6.0552e-131
-6.03086e-127
5.97186e-120
3.08731e-117
4.65327e-35
7.61135e-35
4.11142e-37
-6.2648e-74
2.47759e-74
3.04845e-127
2.09815e-145
1.24904e-148
8.93768e-148
8.14993e-147
9.22033e-146
2.42928e-145
5.15158e-144
2.66236e-141
1.81259e-138
1.56383e-135
1.78044e-132
2.82775e-129
-2.54378e-125
2.45419e-118
1.20531e-115
4.51969e-36
4.91357e-36
2.82593e-37
7.56405e-54
1.68732e-72
6.44197e-106
4.50318e-139
7.55178e-148
5.16627e-147
4.53699e-146
1.96208e-145
9.16435e-145
2.63132e-142
1.39696e-139
9.12743e-137
7.55751e-134
8.25864e-131
1.25912e-127
-1.02597e-123
9.66691e-117
4.51707e-114
1.88167e-36
1.89259e-36
1.48858e-37
5.05392e-55
1.62959e-72
1.30157e-105
6.09135e-139
3.76511e-147
2.50022e-146
1.69531e-145
3.97588e-145
3.24425e-143
1.36341e-140
6.9664e-138
4.37456e-135
3.48183e-132
3.65793e-129
5.36217e-126
-3.96806e-122
3.65961e-115
1.62925e-112
7.4849e-37
7.705e-37
6.68367e-38
4.29593e-55
1.53536e-72
3.27931e-105
1.65478e-138
1.89908e-146
1.30103e-145
3.07477e-145
5.14409e-144
1.64392e-141
6.73532e-139
3.31178e-136
2.00172e-133
1.53383e-130
1.55155e-127
2.19018e-124
-1.47545e-120
1.33485e-113
5.66925e-111
2.66225e-37
2.80166e-37
2.66549e-38
1.65657e-72
1.51932e-72
8.7105e-105
8.73108e-146
8.57875e-146
2.63514e-145
1.23893e-144
2.40229e-142
8.04575e-140
3.17664e-137
1.5052e-134
8.76944e-132
6.47844e-129
6.31889e-126
8.60176e-123
-5.28671e-119
4.7018e-112
1.90729e-109
8.56253e-38
9.14225e-38
9.56344e-39
4.34128e-55
1.32007e-72
2.32595e-104
1.11377e-128
2.64014e-145
5.97247e-145
4.21966e-143
1.1634e-140
3.76564e-138
1.4342e-135
6.55759e-133
3.68761e-130
2.63e-127
2.47686e-124
3.25584e-121
-1.82931e-117
1.60262e-110
6.21613e-108
2.51451e-38
2.71317e-38
3.10188e-39
2.76271e-55
1.21302e-72
6.12414e-104
5.2912e-144
5.83164e-145
9.18791e-144
2.00422e-141
5.40451e-139
1.68905e-136
6.21351e-134
2.74498e-131
1.49184e-128
1.02849e-125
9.36445e-123
1.19019e-119
-6.12444e-116
5.29604e-109
1.96617e-106
6.73377e-39
7.34499e-39
9.08649e-40
2.29748e-55
1.10419e-72
9.37499e-104
2.24961e-142
7.32382e-144
4.10345e-142
9.24117e-140
2.40867e-137
7.27694e-135
2.58883e-132
1.10639e-129
5.81841e-127
3.88228e-124
3.42163e-121
4.20989e-118
-1.98738e-114
1.69967e-107
6.04545e-105
1.6188e-39
1.79375e-39
2.39029e-40
1.9701e-55
8.21102e-72
3.25553e-103
6.13434e-129
4.17159e-142
1.88598e-140
4.0928e-138
1.03196e-135
3.01745e-133
1.03937e-130
4.30214e-128
2.19183e-125
1.4171e-122
1.21038e-119
1.44334e-116
-6.26052e-113
5.30572e-106
1.80962e-103
3.39472e-40
3.82148e-40
5.6152e-41
1.71079e-55
4.41088e-74
9.0735e-104
4.53047e-139
1.49942e-140
8.26834e-139
1.74369e-136
4.25817e-134
1.20643e-131
4.02809e-129
1.61667e-126
7.98838e-124
5.01017e-121
4.15177e-118
4.80373e-115
-1.9172e-111
1.61321e-104
5.28043e-102
6.35709e-41
7.18022e-41
1.17508e-41
1.32321e-55
1.48518e-73
2.58419e-104
7.77677e-130
8.40109e-139
3.52114e-137
7.15864e-135
1.69499e-132
4.65835e-130
1.50931e-127
5.88007e-125
2.82103e-122
1.71819e-119
1.38287e-116
1.55414e-113
-5.71461e-110
4.7834e-103
1.50379e-100
1.13246e-41
1.26415e-41
2.18097e-42
1.20813e-55
2.60354e-91
1.88734e-104
3.64235e-130
3.57645e-137
1.43903e-135
2.83611e-133
6.51822e-131
1.7396e-128
5.47532e-126
2.07279e-123
9.6655e-121
5.72284e-118
4.47819e-115
4.89354e-112
-1.65974e-108
1.38468e-101
4.1839e-99
1.94347e-42
2.13654e-42
3.59692e-43
9.81827e-56
6.97711e-73
4.77299e-102
2.37358e-130
1.46124e-135
5.67591e-134
1.08571e-131
2.42467e-129
6.29055e-127
1.92536e-124
7.08997e-122
3.21663e-119
1.85332e-116
1.41142e-113
1.50115e-110
-4.70136e-107
3.91678e-100
1.13823e-97
3.13361e-43
3.43375e-43
5.54005e-44
7.77795e-56
3.24517e-93
1.48428e-101
2.35255e-130
5.76191e-134
2.16327e-132
4.02048e-130
8.73383e-128
2.20496e-125
6.56944e-123
2.35549e-120
1.04077e-117
5.84105e-115
4.33348e-112
4.49026e-109
-1.29977e-105
1.08345e-98
3.03004e-96
4.60433e-44
5.21921e-44
9.08847e-45
6.04043e-56
8.02323e-75
2.1616e-102
1.95671e-130
2.19545e-132
7.97451e-131
1.44149e-128
3.0491e-126
7.49832e-124
2.17682e-121
7.60711e-119
3.2766e-116
1.79292e-113
1.29705e-110
1.31058e-107
-3.50936e-104
2.93259e-97
7.89728e-95
5.69442e-45
7.20361e-45
1.83714e-45
4.5862e-56
7.77019e-75
5.52047e-102
1.97084e-130
8.10565e-131
2.84556e-129
5.0076e-127
1.03242e-124
2.47556e-122
7.00943e-120
2.38965e-117
1.00433e-114
5.36313e-112
3.7867e-109
3.73455e-106
-9.2575e-103
7.7706e-96
2.01602e-93
4.84296e-46
7.4084e-46
3.97645e-46
3.40286e-56
-7.57288e-95
8.49242e-102
2.15846e-130
8.3035e-130
9.64181e-128
1.68625e-125
3.39228e-123
7.93868e-121
2.19441e-118
7.30512e-116
2.99851e-113
1.56401e-110
1.07874e-107
1.03932e-104
-2.38659e-101
2.01625e-94
5.04206e-92
4.70515e-47
4.5036e-47
4.52324e-47
2.46815e-56
4.09029e-74
9.51108e-102
8.43907e-130
2.20237e-128
3.21955e-126
5.50721e-124
1.08199e-121
2.47361e-119
6.68129e-117
2.17381e-114
8.72214e-112
4.44769e-109
2.99934e-106
2.82545e-103
-6.01347e-100
5.12365e-93
1.23553e-90
1.62669e-47
3.46355e-48
1.28659e-48
1.753e-56
7.81428e-84
1.04179e-101
2.27918e-128
7.25316e-127
1.04365e-124
1.74463e-122
3.35065e-120
7.49009e-118
1.97865e-115
6.29749e-113
2.47213e-110
1.23348e-107
8.13967e-105
7.50353e-102
-1.48083e-98
1.2751e-91
2.96623e-89
1.19757e-47
1.39576e-48
1.19579e-49
1.22268e-56
4.81201e-76
9.76576e-102
7.34035e-127
2.33e-125
3.27858e-123
5.36096e-121
1.00741e-118
2.20399e-116
5.69942e-114
1.776e-111
6.82682e-109
3.33578e-106
2.15583e-103
1.94639e-100
-3.56301e-97
3.10715e-90
6.9752e-88
1.02329e-47
9.62905e-49
6.95221e-50
8.39777e-57
3.90886e-76
9.16795e-102
2.32031e-125
7.24837e-124
9.97943e-122
1.59764e-119
2.94021e-117
6.30111e-115
1.59645e-112
4.87475e-110
1.83639e-107
8.79465e-105
5.57102e-102
4.93008e-99
-8.37323e-96
7.41108e-89
1.606e-86
9.3303e-48
7.55656e-49
5.12629e-50
5.68886e-57
1.78502e-75
2.0272e-100
3.94841e-124
2.14125e-122
2.9419e-120
4.61617e-118
8.32738e-116
1.7497e-113
4.34702e-111
1.30177e-108
4.80997e-106
2.25955e-103
1.40405e-100
1.21885e-97
-1.92086e-94
1.72939e-87
3.61861e-85
6.35057e-49
3.81819e-50
3.80179e-57
-1.69034e-95
1.99141e-106
2.1552e-122
6.35826e-121
8.39904e-119
1.29255e-116
2.28765e-114
4.71666e-112
1.15005e-109
3.38039e-107
1.22607e-104
5.65414e-102
3.44916e-99
2.93945e-96
-4.29861e-93
3.94567e-86
7.97357e-84
6.11024e-49
3.03661e-50
2.50494e-57
2.23736e-77
1.6716e-102
6.54728e-121
1.79377e-119
2.32001e-117
3.50523e-115
6.0919e-113
1.23355e-110
2.9543e-108
8.5302e-106
3.03947e-103
1.37707e-100
8.25319e-98
6.9102e-95
-9.37623e-92
8.79503e-85
1.71684e-82
2.85651e-50
1.62546e-57
4.54845e-98
1.60339e-102
9.77683e-120
4.79614e-118
6.19563e-116
9.19959e-114
1.57135e-111
3.12753e-109
7.36316e-107
2.09012e-104
7.32209e-102
3.26163e-99
1.92197e-96
1.58218e-93
-1.9915e-90
1.91362e-83
3.60887e-81
2.87615e-50
1.03651e-57
2.25097e-75
1.61228e-102
4.94145e-118
1.28166e-116
1.59891e-114
2.33471e-112
3.92261e-110
7.68039e-108
1.77893e-105
4.96829e-103
1.7125e-100
7.50581e-98
4.3519e-95
3.5249e-92
-4.1145e-89
4.06018e-82
7.39812e-80
3.02416e-50
6.47143e-58
5.16852e-96
1.55118e-102
1.3043e-116
3.24796e-115
3.98222e-113
5.72387e-111
9.46741e-109
1.82503e-106
4.162e-104
1.14452e-101
3.88448e-99
1.67645e-96
9.57101e-94
7.63305e-91
-8.25883e-88
8.39114e-81
1.47734e-78
3.93978e-50
3.94182e-58
2.91798e-77
1.42367e-102
3.28066e-115
7.92584e-114
9.56278e-112
1.35417e-109
2.20684e-107
4.19165e-105
9.41912e-103
2.55232e-100
8.53593e-98
3.63006e-95
2.04212e-92
1.60473e-89
-1.6085e-86
1.68718e-79
2.87017e-77
4.51386e-50
2.34268e-58
2.88657e-77
1.36255e-102
8.01015e-114
1.86182e-112
2.21158e-110
3.088e-108
4.96227e-106
9.29419e-104
2.05949e-101
5.50315e-99
1.8149e-96
7.61084e-94
4.22186e-91
3.27122e-88
-3.03544e-85
3.29614e-78
5.41777e-76
2.16366e-50
1.3716e-58
2.83686e-77
1.22379e-102
1.88127e-112
4.20369e-111
4.91975e-109
6.77889e-107
1.07501e-104
1.98698e-102
4.34503e-100
1.14575e-97
3.72877e-95
1.54302e-92
8.44597e-90
6.45712e-87
-5.54207e-84
6.24821e-77
9.92199e-75
1.51265e-51
8.05342e-59
2.73922e-77
1.61265e-102
4.24694e-111
9.11106e-110
1.05131e-107
1.43066e-105
2.24068e-103
4.09018e-101
8.83306e-99
2.3002e-96
7.39241e-94
3.02077e-91
1.63269e-88
1.23246e-85
-9.77445e-83
1.14757e-75
1.76032e-73
7.7339e-54
4.47572e-59
2.62399e-77
1.1997e-102
9.20347e-110
1.89304e-108
2.15506e-106
2.89868e-104
4.4871e-102
8.09529e-100
1.72777e-97
4.4464e-95
1.41213e-92
5.70208e-90
3.04521e-87
2.27121e-84
-1.66251e-81
2.03899e-74
3.02072e-72
6.63055e-58
1.77823e-59
-2.28008e-97
9.66123e-103
1.91199e-108
3.76511e-107
4.23145e-105
5.62989e-103
8.62017e-101
1.53817e-98
3.24681e-96
8.26323e-94
2.59516e-91
1.03619e-88
5.4716e-86
4.03469e-83
-2.72229e-80
3.49918e-73
5.00539e-71
2.01963e-60
3.16374e-60
3.82595e-77
8.76765e-103
3.80234e-107
7.15747e-106
7.94588e-104
1.04654e-101
1.58614e-99
2.80136e-97
5.85225e-95
1.47396e-92
4.5808e-90
1.80978e-87
9.45535e-85
6.89788e-82
-4.28362e-79
5.79038e-72
7.99498e-70
1.0774e-60
1.23981e-61
6.0386e-78
7.79099e-103
7.22748e-106
1.29839e-104
1.42463e-102
1.85883e-100
2.79072e-98
4.88188e-96
1.01006e-93
2.51929e-91
7.75288e-89
3.0328e-86
1.56876e-83
1.13296e-80
-6.4649e-78
9.22293e-71
1.22872e-68
4.99664e-62
9.0583e-64
2.64412e-77
6.86844e-103
1.31097e-104
2.24375e-103
2.43449e-101
3.14912e-99
4.68668e-97
8.12616e-95
1.66628e-92
4.11848e-90
1.25586e-87
4.86743e-85
2.49432e-82
1.78448e-79
-9.3393e-77
1.41138e-69
1.81346e-67
1.13263e-64
-6.6811e-75
3.78554e-77
8.9511e-103
2.26856e-103
3.68748e-102
3.95776e-100
5.07911e-98
7.4984e-96
1.28954e-93
2.62236e-91
6.42731e-89
1.94328e-86
7.46711e-84
3.79334e-81
2.69002e-78
-1.28871e-75
2.071e-68
2.56499e-66
4.7533e-69
1.21691e-77
5.65688e-77
9.26441e-103
1.46215e-102
5.53646e-101
6.10688e-99
7.78328e-97
1.14065e-94
1.94697e-92
3.92916e-90
9.55582e-88
2.86652e-85
1.09272e-82
5.50643e-80
3.87303e-77
-1.69464e-74
2.90782e-67
3.4693e-65
8.24998e-72
8.98262e-77
1.22726e-76
1.4917e-102
9.51407e-102
8.02995e-100
8.92932e-98
1.13083e-95
1.64621e-93
2.79078e-91
5.59288e-89
1.35056e-86
4.02218e-84
1.52204e-81
7.61292e-79
5.31435e-76
-2.11857e-73
3.89812e-66
4.47694e-64
3.22125e-74
1.8204e-76
2.41253e-76
9.57105e-102
1.21376e-100
1.11515e-98
1.23442e-96
1.55425e-94
2.24907e-92
3.78931e-90
7.54605e-88
1.81046e-85
5.35636e-83
2.01334e-80
1.00018e-77
6.93364e-75
-2.51119e-72
4.97789e-65
5.49866e-63
7.73172e-75
1.35608e-74
2.72982e-76
1.22299e-100
1.59372e-99
1.46117e-97
1.60957e-95
2.01621e-93
2.902e-91
4.86243e-89
9.62812e-87
2.29655e-84
6.75402e-82
2.52326e-79
1.24573e-76
8.58153e-74
-2.81555e-71
6.04108e-64
6.41203e-62
7.4722e-75
7.34814e-75
1.80009e-76
1.60587e-99
1.98054e-98
1.80055e-96
1.97493e-94
2.4628e-92
3.52819e-90
5.88283e-88
1.15898e-85
2.7501e-83
8.04474e-81
2.98905e-78
1.46746e-75
1.00514e-72
-2.98149e-70
6.95067e-63
7.08124e-61
5.25068e-74
2.06345e-76
2.0758e-76
1.99561e-98
2.31012e-97
2.0817e-95
2.275e-93
2.82615e-91
4.03234e-89
6.69489e-87
1.31314e-84
3.10162e-82
9.03022e-80
3.33895e-77
1.6311e-74
1.11155e-71
-2.96348e-69
7.56413e-62
7.38788e-60
3.03848e-74
2.04442e-76
2.04391e-76
2.32769e-97
2.52249e-96
2.25304e-94
2.45486e-92
3.03987e-90
4.32245e-88
7.15058e-86
1.39719e-83
3.28707e-81
9.53084e-79
3.50912e-76
1.70676e-73
1.15791e-70
-2.74256e-68
7.76821e-61
7.26409e-59
1.82309e-75
3.40741e-76
9.46932e-77
2.54172e-96
2.57314e-95
2.27785e-93
2.47601e-91
3.05821e-89
4.33638e-87
7.15211e-85
1.39304e-82
3.26633e-80
9.43761e-78
3.4622e-75
1.67764e-72
1.13377e-69
-2.30858e-67
7.51217e-60
6.71562e-58
1.28175e-76
1.28458e-76
7.2929e-77
2.37539e-95
2.426e-94
2.14661e-92
2.32947e-90
2.87164e-88
4.06298e-86
6.68519e-84
1.29874e-81
3.0369e-79
8.74943e-77
3.20008e-74
1.54577e-71
1.04126e-68
-1.74696e-66
6.82635e-59
5.82455e-57
1.48421e-74
3.03071e-76
4.16034e-77
2.48774e-94
2.16778e-93
1.88229e-91
2.04008e-89
2.51157e-87
3.54798e-85
5.82746e-83
1.12989e-80
2.63646e-78
7.57852e-76
2.76518e-73
1.33235e-70
8.95145e-68
-1.25924e-65
5.81703e-58
4.72865e-56
1.23821e-74
8.80362e-76
2.4005e-77
2.18249e-93
1.77864e-92
1.53072e-90
1.65814e-88
2.0399e-86
2.87892e-84
4.72303e-82
9.14515e-80
2.13068e-77
6.11452e-75
2.22705e-72
1.07103e-69
6.34753e-68
-6.92138e-65
4.63853e-57
3.5849e-55
4.1156e-75
6.92629e-76
7.16094e-78
1.79262e-92
1.35439e-91
1.15374e-89
1.24983e-87
1.53742e-85
2.16903e-83
3.55644e-81
6.88122e-79
1.60179e-76
4.59199e-74
1.67059e-71
8.0241e-69
1.49224e-67
-3.33022e-65
3.45295e-56
2.53101e-54
4.05085e-76
2.82958e-76
5.12015e-79
1.36519e-91
9.53635e-91
8.03404e-89
8.70867e-87
1.07179e-84
1.51249e-82
2.48009e-80
4.79802e-78
1.11656e-75
3.19963e-73
1.16343e-70
5.58471e-68
1.55015e-65
8.16578e-63
2.39273e-55
1.65859e-53
1.29686e-77
2.1484e-77
5.46073e-81
9.61364e-91
6.18465e-90
5.14637e-88
5.58521e-86
6.88131e-84
9.71918e-82
1.59474e-79
3.08672e-77
7.18562e-75
2.05959e-72
7.48985e-70
3.59539e-67
1.23654e-64
1.23589e-61
1.538e-54
1.0046e-52
7.48673e-80
1.31311e-79
4.64155e-83
6.2358e-90
3.6773e-89
3.01699e-87
3.28001e-85
4.04798e-83
5.72574e-81
9.4068e-79
1.82276e-76
4.24734e-74
1.21845e-71
4.43439e-69
2.13014e-66
-2.23768e-64
7.32813e-61
9.13018e-54
5.59461e-52
8.05994e-81
2.36965e-83
2.33882e-83
3.70847e-89
1.99476e-88
1.60983e-86
1.75422e-84
2.16988e-82
3.07556e-80
5.06231e-78
9.8262e-76
2.29335e-73
6.58893e-71
2.4014e-68
1.15514e-65
-1.35898e-62
3.96877e-60
4.97878e-53
2.84592e-51
2.23105e-81
3.78044e-82
1.57963e-83
2.01218e-88
9.83868e-88
7.79007e-86
8.51298e-84
1.05604e-81
1.50082e-79
2.47651e-77
4.81839e-75
1.12711e-72
3.2453e-70
1.18529e-67
5.7135e-65
-4.40544e-62
1.9613e-59
2.47795e-52
1.31176e-50
3.21719e-82
1.41605e-82
6.18286e-84
9.9276e-88
4.37737e-87
3.38493e-85
3.71149e-83
4.62009e-81
6.58744e-79
1.09038e-76
2.12782e-74
4.9918e-72
1.44139e-69
5.27926e-67
2.00227e-64
-3.84413e-62
8.84144e-59
1.11684e-51
5.42316e-50
1.58583e-83
1.54879e-83
1.14806e-84
4.41856e-87
1.73965e-86
1.30506e-84
1.43641e-82
1.79524e-80
2.56956e-78
3.1175e-76
8.36095e-74
1.97112e-71
5.71194e-69
2.09954e-66
5.25401e-64
1.68328e-61
1.61431e-57
4.5102e-51
1.98129e-49
1.92511e-84
2.00861e-84
3.95525e-85
1.75683e-86
6.68084e-86
4.97803e-84
5.50636e-82
6.91612e-80
9.94704e-78
8.68562e-76
3.26347e-73
7.74572e-71
2.25489e-68
8.32627e-66
2.09211e-63
1.19254e-60
5.94176e-55
1.60925e-50
6.17798e-49
5.48083e-85
3.14462e-85
2.05628e-85
6.74988e-86
3.09247e-85
2.45354e-83
1.99822e-81
3.45612e-79
5.01273e-77
4.39341e-75
1.66096e-72
3.97424e-70
1.16349e-67
4.31949e-65
-1.92576e-62
7.39159e-60
1.36623e-53
4.70455e-50
1.45255e-48
3.49319e-85
2.80091e-85
2.31727e-85
2.44003e-85
1.43497e-84
1.2131e-82
7.05388e-81
1.72976e-78
2.45296e-76
2.22595e-74
6.31041e-85
4.80879e-85
4.0464e-85
4.46312e-85
3.85445e-84
3.21596e-82
2.63858e-80
1.53731e-15
1.54037e-14
5.33015e-64
2.00312e-92
4.26144e-108
7.0015e-202
5.97182e-208
1.66093e-205
6.13511e-203
2.884e-200
1.68416e-197
1.20802e-194
1.06247e-191
1.15206e-188
1.55999e-185
2.69214e-182
6.09186e-179
1.87919e-175
8.34959e-172
5.84399e-168
7.85793e-164
1.10478e-17
2.36277e-16
4.48151e-49
8.61713e-108
8.5699e-108
2.22098e-195
1.45712e-193
1.35947e-191
1.67989e-189
2.63978e-187
5.15436e-185
1.23686e-182
3.64075e-180
1.32099e-177
5.97849e-175
3.43978e-172
2.58507e-169
2.63593e-166
3.85785e-163
8.90757e-160
4.04991e-156
7.46989e-22
9.29022e-21
8.97388e-43
4.783e-91
2.9319e-107
2.6126e-189
4.23296e-188
2.38939e-186
1.78066e-184
1.68583e-182
1.98335e-180
2.86885e-178
5.09148e-176
1.11339e-173
3.0327e-171
1.0473e-168
4.70469e-166
2.85331e-163
2.47351e-160
3.38604e-157
9.29676e-154
1.02213e-22
1.06971e-21
2.07975e-41
1.4513e-107
1.46153e-107
1.83707e-189
3.24466e-184
1.32197e-182
7.08492e-181
4.81617e-179
4.06609e-177
4.21961e-175
5.37068e-173
8.41547e-171
1.63983e-168
4.04083e-166
1.29076e-163
5.54398e-161
3.39171e-158
3.27547e-155
6.40535e-152
1.0254e-23
9.27862e-23
1.05273e-59
6.06132e-76
2.7349e-103
1.06471e-118
3.94421e-181
1.26342e-179
5.30272e-178
2.81733e-176
1.85702e-174
1.5034e-172
1.49142e-170
1.81909e-168
2.75397e-166
5.25887e-164
1.29753e-161
4.28918e-159
2.01304e-156
1.48982e-153
2.24476e-150
1.09921e-24
8.75963e-24
1.64167e-40
5.06923e-94
8.78693e-103
2.59096e-119
1.60282e-178
4.22178e-177
1.45372e-175
6.32789e-174
3.41416e-172
2.26064e-170
1.83237e-168
1.82358e-166
2.24842e-164
3.48827e-162
6.97223e-160
1.86117e-157
7.03345e-155
4.18563e-152
5.08642e-149
1.04775e-25
7.47643e-25
9.19664e-40
2.44369e-75
7.98272e-104
2.07259e-119
1.60284e-178
9.48087e-175
2.60196e-173
9.157e-172
4.03144e-170
2.19131e-168
1.46361e-166
1.20282e-164
1.22561e-162
1.57082e-160
2.59041e-158
5.6935e-156
1.76725e-153
8.6175e-151
8.55956e-148
8.96108e-27
5.80155e-26
1.67276e-39
1.94809e-74
9.54778e-103
1.22207e-119
2.02387e-138
3.0629e-170
1.11898e-170
3.18225e-169
1.12753e-167
4.91657e-166
2.62547e-164
1.71761e-162
1.38496e-160
1.39295e-158
1.78094e-156
2.98056e-154
6.84311e-152
2.33813e-149
1.40599e-146
6.48706e-28
3.85472e-27
3.53006e-39
2.78004e-74
7.53351e-102
4.72788e-118
9.48536e-146
1.61544e-168
3.23252e-168
8.18734e-167
2.60351e-165
1.02511e-163
4.96714e-162
2.96043e-160
2.18216e-158
2.01255e-156
2.3664e-154
3.65143e-152
7.73389e-150
2.41183e-147
1.3016e-144
3.76085e-29
2.07149e-28
7.22688e-39
-2.82272e-79
1.34013e-103
2.1318e-121
4.13078e-139
7.67279e-167
7.81848e-166
1.85449e-164
5.42029e-163
1.93343e-161
8.3873e-160
4.42918e-158
2.86429e-156
2.29382e-154
2.31428e-152
3.01739e-150
5.27647e-148
1.31417e-145
1.85648e-142
1.58042e-30
8.13919e-30
1.40586e-38
5.60913e-61
2.4374e-101
2.4165e-116
5.29593e-139
2.68997e-165
3.80302e-164
8.66003e-163
2.43629e-161
8.38897e-160
3.52753e-158
1.81711e-156
1.15736e-154
9.2624e-153
9.54554e-151
1.31447e-148
2.52418e-146
1.73797e-143
2.23508e-140
4.02766e-32
1.94568e-31
2.58981e-38
6.90238e-61
5.9777e-101
4.65806e-134
6.92384e-139
1.10891e-163
1.6532e-162
3.30086e-161
8.08109e-160
2.40171e-158
8.63416e-157
3.75964e-155
1.99695e-153
1.31162e-151
1.08906e-149
1.18301e-147
7.8233e-146
1.99249e-141
2.32316e-138
1.20711e-33
2.11226e-33
4.51861e-38
8.73448e-61
1.29082e-95
1.92062e-116
1.03958e-138
3.41449e-162
5.05965e-161
9.59473e-160
2.2348e-158
6.339e-157
2.18719e-155
9.22415e-154
4.81006e-152
3.16049e-150
2.68791e-148
3.00396e-146
6.96155e-146
1.99321e-139
2.1243e-136
6.67212e-34
4.28121e-35
7.47192e-38
1.32245e-60
2.22242e-79
2.41885e-116
1.72094e-139
1.07118e-160
1.46469e-159
2.49504e-158
5.17001e-157
1.29176e-155
3.88515e-154
1.41226e-152
6.27091e-151
3.46274e-149
2.43568e-147
9.18892e-146
-1.02413e-144
1.76972e-137
1.73437e-134
6.36847e-34
3.1225e-35
1.17179e-37
1.72258e-81
2.25197e-79
4.28806e-116
2.14058e-138
2.4124e-159
3.11659e-158
5.01059e-157
9.84635e-156
2.35097e-154
6.83451e-153
2.43957e-151
1.08542e-149
6.14376e-148
4.35555e-146
1.4061e-145
-9.8572e-143
1.41275e-135
1.27965e-132
6.3063e-34
2.52662e-35
1.74491e-37
2.39215e-56
4.82562e-80
6.51481e-116
2.43294e-138
5.62596e-158
6.75107e-157
9.94593e-156
1.77172e-154
3.7958e-153
9.80323e-152
3.07704e-150
1.18976e-148
5.74556e-147
1.03031e-145
4.80758e-145
-7.57553e-141
1.0249e-133
8.61804e-131
6.95746e-34
2.29626e-35
2.46036e-37
-5.29966e-77
2.15167e-79
1.65447e-136
2.43904e-138
9.43618e-157
1.05295e-155
1.44669e-154
2.41912e-153
4.9193e-152
1.22587e-150
3.79286e-149
1.47912e-147
6.73211e-146
1.74742e-145
2.36491e-143
-5.30497e-139
6.81825e-132
5.34297e-129
7.84095e-34
2.22039e-35
3.35495e-37
4.04941e-57
3.47841e-88
1.58495e-115
2.49636e-138
1.6398e-155
1.73142e-154
2.23461e-153
3.49167e-152
6.6062e-151
1.52413e-149
4.32925e-148
1.51867e-146
1.21749e-145
9.82339e-145
1.72212e-141
-3.41893e-137
4.19185e-130
3.07168e-127
9.23848e-34
2.27198e-35
4.02081e-37
4.32184e-57
8.10899e-78
3.71231e-134
1.60896e-138
2.18032e-154
2.11238e-153
2.49791e-152
3.58622e-151
6.28253e-150
1.35831e-148
3.66205e-147
9.64541e-146
2.29755e-145
5.54292e-143
1.16734e-139
-2.04233e-135
2.39768e-128
1.64792e-125
1.08285e-33
2.44118e-35
4.39233e-37
5.04492e-57
1.12221e-77
3.97802e-115
3.11538e-138
2.76902e-153
2.57809e-152
2.94425e-151
4.11677e-150
7.0887e-149
1.51321e-147
3.95109e-146
1.56663e-145
2.79509e-144
3.66015e-141
7.34185e-138
-1.13781e-133
1.28344e-126
8.29601e-124
1.2028e-33
4.76146e-35
5.13414e-37
2.15521e-65
1.15049e-78
1.10318e-123
3.75718e-138
3.0407e-152
2.59955e-151
2.7106e-150
3.4509e-149
5.39872e-148
1.04099e-146
1.25186e-145
3.88194e-145
1.65736e-142
2.26096e-139
4.30948e-136
-5.94414e-132
6.46261e-125
3.93826e-122
1.22423e-33
1.98538e-34
5.85414e-37
5.42369e-57
4.11245e-78
7.11925e-114
4.92527e-138
2.83328e-151
2.31501e-150
2.34284e-149
2.95186e-148
4.65124e-147
8.55962e-146
2.18707e-145
1.04847e-143
1.00434e-140
1.30735e-137
2.37332e-134
-2.92597e-130
3.07527e-123
1.77065e-120
1.02536e-33
6.68619e-35
6.57815e-37
5.55151e-57
5.13763e-78
3.9685e-108
6.24777e-138
2.52892e-150
1.96599e-149
1.89604e-148
2.2737e-147
3.37934e-146
1.65379e-145
1.09299e-144
6.0809e-142
5.72295e-139
7.11037e-136
1.23211e-132
-1.36294e-128
1.38862e-121
7.56923e-119
7.08326e-34
8.78317e-34
6.58519e-37
5.91351e-57
1.74484e-76
-6.26912e-126
7.16818e-138
1.82453e-149
1.31742e-148
1.18965e-147
1.34909e-146
1.37878e-145
3.40127e-145
4.84006e-143
3.41434e-140
3.07471e-137
3.65344e-134
6.05522e-131
-6.03083e-127
5.97188e-120
3.08732e-117
5.56465e-35
9.4249e-35
6.40863e-37
4.01205e-64
3.05434e-76
6.34367e-113
7.61733e-138
1.24904e-148
8.93771e-148
8.14995e-147
9.22034e-146
2.42928e-145
5.1516e-144
2.66237e-141
1.8126e-138
1.56384e-135
1.78044e-132
2.82776e-129
-2.54377e-125
2.4542e-118
1.20532e-115
3.8389e-36
4.58522e-36
4.04105e-37
6.1389e-57
3.05049e-76
8.11758e-110
7.98782e-138
7.55179e-148
5.16629e-147
4.537e-146
1.96208e-145
9.16437e-145
2.63133e-142
1.39696e-139
9.12747e-137
7.55754e-134
8.25867e-131
1.25912e-127
-1.02597e-123
9.66694e-117
4.51708e-114
1.42927e-36
1.57645e-36
1.91015e-37
-1.55067e-77
2.71255e-77
1.29844e-109
8.66034e-138
3.76512e-147
2.50023e-146
1.69531e-145
3.97589e-145
3.24426e-143
1.36342e-140
6.96642e-138
4.37458e-135
3.48184e-132
3.65795e-129
5.36219e-126
-3.96804e-122
3.65962e-115
1.62925e-112
5.20049e-37
5.85066e-37
7.5575e-38
2.03682e-55
4.75353e-77
1.96041e-109
1.04422e-137
1.89905e-146
1.30102e-145
3.07476e-145
5.14411e-144
1.64393e-141
6.73534e-139
3.31179e-136
2.00173e-133
1.53384e-130
1.55156e-127
2.19019e-124
-1.47544e-120
1.33485e-113
5.66927e-111
1.67148e-37
1.93014e-37
2.61042e-38
1.98895e-65
4.71046e-78
-3.35466e-131
1.29062e-137
8.58508e-146
2.63576e-145
1.23899e-144
2.40231e-142
8.04578e-140
3.17666e-137
1.50521e-134
8.76949e-132
6.47847e-129
6.31892e-126
8.60179e-123
-5.28668e-119
4.70182e-112
1.9073e-109
4.74817e-38
5.59685e-38
7.96654e-39
2.13541e-57
9.85126e-98
3.21576e-109
2.28435e-134
2.64075e-145
5.97309e-145
4.21968e-143
1.16341e-140
3.76565e-138
1.43421e-135
6.55761e-133
3.68763e-130
2.63001e-127
2.47687e-124
3.25585e-121
-1.8293e-117
1.60263e-110
6.21615e-108
1.19657e-38
1.4366e-38
2.14968e-39
1.93505e-57
7.77226e-78
3.97639e-109
2.89698e-134
6.17547e-145
9.21979e-144
2.00426e-141
5.40454e-139
1.68905e-136
6.21353e-134
2.74499e-131
1.49185e-128
1.0285e-125
9.36449e-123
1.19019e-119
-6.12441e-116
5.29606e-109
1.96617e-106
2.64877e-39
3.25211e-39
5.073e-40
1.39082e-56
9.45633e-78
3.87395e-109
2.8212e-134
9.37847e-144