/*--------------------------------*- C++ -*----------------------------------*\
| =========                 |                                                 |
| \\      /  F ield         | OpenFOAM: The Open Source CFD Toolbox           |
|  \\    /   O peration     | Version:  v2012                                 |
|   \\  /    A nd           | Website:  www.openfoam.com                      |
|    \\/     M anipulation  |                                                 |
\*---------------------------------------------------------------------------*/
FoamFile
{
    version     2.0;
    format      ascii;
    class       volVectorField;
    location    "0.2";
    object      U;
}
// * * * * * * * * * * * * * * * * * * * * * * * * * * * * * * * * * * * * * //

dimensions      [0 1 -1 0 0 0 0];


internalField   nonuniform List<vector> 
3338
(
(-0.044846 -0.296833 0.000391895)
(-0.0361158 -0.0596707 0.000315656)
(-0.0126632 0.157503 0.000110385)
(-0.00961414 0.354184 8.37314e-05)
(-0.00732734 0.532418 6.39806e-05)
(-0.0064488 0.691068 5.62948e-05)
(-0.00584325 0.830284 5.10157e-05)
(-0.00534001 0.949315 4.66224e-05)
(-0.00485954 1.04749 4.24283e-05)
(-0.0043802 1.12406 3.82441e-05)
(-0.00389402 1.17817 3.40002e-05)
(-0.00340121 1.20886 2.96985e-05)
(-0.00290585 1.215 2.53744e-05)
(-0.00241473 1.19526 2.10871e-05)
(-0.00193654 1.14809 1.69125e-05)
(-0.00148141 1.07164 1.2939e-05)
(-0.00106126 0.963697 9.2705e-06)
(-0.000688317 0.821609 6.01386e-06)
(-0.000377888 0.642186 3.30259e-06)
(-0.000142709 0.421541 1.24909e-06)
(-8.6926e-06 0.155139 9.82211e-08)
(-0.0485161 -0.300113 0.000423563)
(-0.0420165 -0.0657808 0.000366905)
(-0.0303288 0.1515 0.000264886)
(-0.0255686 0.352158 0.000223316)
(-0.0214316 0.531538 0.000187159)
(-0.0192174 0.690695 0.00016778)
(-0.0175074 0.830053 0.000152854)
(-0.0160238 0.949121 0.0001399)
(-0.0145911 1.0473 0.000127393)
(-0.0131561 1.12385 0.000114867)
(-0.0116983 1.17795 0.000102142)
(-0.0102192 1.20863 8.92309e-05)
(-0.00873151 1.21477 7.62448e-05)
(-0.00725584 1.19503 6.3363e-05)
(-0.00581835 1.14787 5.08138e-05)
(-0.00444951 1.07143 3.88634e-05)
(-0.00318526 0.963509 2.78252e-05)
(-0.00206261 0.821446 1.80225e-05)
(-0.00112823 0.642055 9.86215e-06)
(-0.000421806 0.42145 3.69398e-06)
(-2.33807e-05 0.155099 2.71179e-07)
(-0.0547738 -0.301793 0.000478175)
(-0.0503386 -0.0686035 0.000439517)
(-0.0441904 0.149083 0.000385843)
(-0.0395862 0.350496 0.000345641)
(-0.0349051 0.530491 0.000304771)
(-0.0317573 0.690071 0.00027726)
(-0.029093 0.82958 0.000254003)
(-0.026683 0.948688 0.000232962)
(-0.0243205 1.04685 0.00021234)
(-0.0219395 1.12338 0.000191556)
(-0.0195139 1.17745 0.000170383)
(-0.0170495 1.20811 0.000148871)
(-0.0145688 1.21423 0.000127216)
(-0.0121066 1.1945 0.000105723)
(-0.00970696 1.14735 8.47745e-05)
(-0.00742081 1.07094 6.48158e-05)
(-0.00530836 0.963065 4.63723e-05)
(-0.00343196 0.821066 2.99884e-05)
(-0.00187067 0.641755 1.63534e-05)
(-0.000692892 0.421249 6.0697e-06)
(-3.50462e-05 0.155022 4.16765e-07)
(-0.0625668 -0.302144 0.000546203)
(-0.0598136 -0.0691871 0.000522192)
(-0.0564493 0.148208 0.000492807)
(-0.0524637 0.349245 0.000458032)
(-0.0477823 0.529468 0.000417179)
(-0.0440176 0.68933 0.000384297)
(-0.0405622 0.828952 0.000354134)
(-0.0372967 0.948079 0.000325627)
(-0.0340372 1.04621 0.000297175)
(-0.030725 1.1227 0.000268263)
(-0.0273382 1.17672 0.0002387)
(-0.0238908 1.20735 0.000208607)
(-0.020417 1.21345 0.000178284)
(-0.0169669 1.19371 0.000148167)
(-0.0136028 1.14659 0.000118798)
(-0.0103963 1.07022 9.08048e-05)
(-0.00743235 0.962413 6.49269e-05)
(-0.00479903 0.820505 4.19338e-05)
(-0.00260868 0.641312 2.2805e-05)
(-0.000959545 0.420953 8.4055e-06)
(-4.53863e-05 0.154908 5.48882e-07)
(-0.0714375 -0.301577 0.000623619)
(-0.0699364 -0.0687829 0.000610531)
(-0.0680206 0.148132 0.000593804)
(-0.0646578 0.348461 0.000564475)
(-0.0601805 0.528605 0.000525407)
(-0.0560132 0.688555 0.00048902)
(-0.051905 0.828206 0.00045316)
(-0.047855 0.947306 0.000417807)
(-0.0437348 1.04538 0.000381843)
(-0.0395091 1.1218 0.000344957)
(-0.0351693 1.17576 0.000307075)
(-0.030742 1.20633 0.00026843)
(-0.0262756 1.21241 0.000229442)
(-0.0218365 1.19267 0.000190691)
(-0.0175058 1.14557 0.000152884)
(-0.0133763 1.06926 0.000116833)
(-0.009558 0.961544 8.34961e-05)
(-0.0061651 0.819759 5.38705e-05)
(-0.00334391 0.640723 2.92324e-05)
(-0.00122338 0.42056 1.07167e-05)
(-5.5041e-05 0.154759 6.73951e-07)
(-0.0811246 -0.300232 0.000708165)
(-0.0805069 -0.0676843 0.000702789)
(-0.0793544 0.148645 0.000692735)
(-0.0764817 0.348132 0.000667685)
(-0.0722393 0.527959 0.00063067)
(-0.0677919 0.687804 0.000591847)
(-0.0631314 0.827378 0.000551169)
(-0.0583581 0.946389 0.000509504)
(-0.0534116 1.04436 0.000466329)
(-0.0482901 1.12068 0.000421624)
(-0.043006 1.17455 0.000375501)
(-0.0376026 1.20507 0.000328334)
(-0.0321443 1.21111 0.000280688)
(-0.0267152 1.19137 0.000233295)
(-0.021416 1.1443 0.000187034)
(-0.0163612 1.06806 0.000142904)
(-0.0116859 0.960456 0.000102085)
(-0.00753113 0.818824 6.58069e-05)
(-0.00407759 0.639985 3.56463e-05)
(-0.0014855 0.420069 1.30129e-05)
(-6.42776e-05 0.154573 7.95087e-07)
(-0.0914695 -0.298233 0.000798457)
(-0.0914521 -0.0660437 0.000798323)
(-0.0906939 0.149616 0.000791718)
(-0.0881511 0.348202 0.000769549)
(-0.0840885 0.527536 0.000734105)
(-0.0794138 0.687109 0.000693304)
(-0.0742641 0.826495 0.000648359)
(-0.0688138 0.945345 0.000600787)
(-0.0630701 1.04317 0.000550655)
(-0.057069 1.11935 0.000498273)
(-0.0508488 1.17311 0.000443978)
(-0.0444725 1.20355 0.00038832)
(-0.0380229 1.20954 0.000332021)
(-0.031603 1.1898 0.000275979)
(-0.0253336 1.14277 0.000221247)
(-0.0193513 1.06662 0.000169021)
(-0.0138167 0.959147 0.000120699)
(-0.00889795 0.817699 7.77504e-05)
(-0.00481071 0.639099 4.20554e-05)
(-0.00174677 0.41948 1.53018e-05)
(-7.33495e-05 0.154353 9.14581e-07)
(-0.102382 -0.295686 0.000893707)
(-0.102753 -0.063976 0.000896963)
(-0.102174 0.150948 0.000891925)
(-0.0998106 0.348609 0.000871326)
(-0.0958368 0.527323 0.00083666)
(-0.0909401 0.686483 0.000793927)
(-0.0853325 0.825573 0.000744987)
(-0.0792356 0.944186 0.000691774)
(-0.0727163 1.04181 0.000634873)
(-0.0658484 1.11781 0.000574925)
(-0.0586987 1.17144 0.000512518)
(-0.0513523 1.20178 0.000448392)
(-0.0439119 1.20772 0.000383444)
(-0.0365001 1.18797 0.000318743)
(-0.0292587 1.14099 0.000255527)
(-0.0223468 1.06494 0.000195184)
(-0.0159508 0.957618 0.000139342)
(-0.0102662 0.816385 8.97066e-05)
(-0.00554405 0.638064 4.84664e-05)
(-0.0020078 0.418794 1.75886e-05)
(-8.23908e-05 0.154096 1.03373e-06)
(-0.113813 -0.292677 0.000993484)
(-0.11441 -0.0615586 0.000998724)
(-0.113871 0.152572 0.000994034)
(-0.111557 0.349294 0.000973863)
(-0.107571 0.527294 0.000939096)
(-0.102428 0.685924 0.000894214)
(-0.0963685 0.82462 0.000841333)
(-0.0896403 0.942919 0.000782611)
(-0.0823586 1.04028 0.000719056)
(-0.0746326 1.11608 0.00065162)
(-0.066558 1.16954 0.00058114)
(-0.0582431 1.19976 0.00050856)
(-0.0498116 1.20563 0.000434961)
(-0.0414067 1.18588 0.000361591)
(-0.0331915 1.13895 0.000289874)
(-0.025348 1.06301 0.000221398)
(-0.0180887 0.955867 0.000158018)
(-0.0116366 0.814881 0.000101681)
(-0.0062782 0.63688 5.48845e-05)
(-0.00226906 0.418011 1.98774e-05)
(-9.14926e-05 0.153805 1.15345e-06)
(-0.125736 -0.289269 0.00109756)
(-0.126434 -0.0588456 0.00110368)
(-0.125833 0.154438 0.00109846)
(-0.123456 0.350205 0.00107774)
(-0.11936 0.527418 0.00104201)
(-0.113927 0.685425 0.000994602)
(-0.107404 0.823636 0.000937671)
(-0.100046 0.941549 0.000873457)
(-0.0920071 1.0386 0.000803294)
(-0.083427 1.11414 0.000728404)
(-0.0744296 1.1674 0.000649869)
(-0.0651464 1.19749 0.000568838)
(-0.0557229 1.20329 0.000486579)
(-0.0463233 1.18352 0.000404526)
(-0.0371324 1.13665 0.000324291)
(-0.0283551 1.06083 0.000247663)
(-0.0202306 0.953894 0.000176729)
(-0.0130093 0.813187 0.000113676)
(-0.00701363 0.635547 6.13138e-05)
(-0.00253087 0.41713 2.2171e-05)
(-0.00010071 0.153478 1.27429e-06)
(-0.138139 -0.285512 0.00120583)
(-0.138836 -0.0558775 0.00121194)
(-0.138091 0.156506 0.00120546)
(-0.135554 0.3513 0.00118335)
(-0.131255 0.527666 0.00114585)
(-0.125481 0.684969 0.00109546)
(-0.118467 0.822617 0.00103426)
(-0.110471 0.940075 0.000964473)
(-0.101673 1.03675 0.000887681)
(-0.0922379 1.112 0.000805331)
(-0.0823168 1.16504 0.000718734)
(-0.072064 1.19497 0.00062924)
(-0.0616466 1.20068 0.000538306)
(-0.0512502 1.1809 0.000447551)
(-0.0410814 1.13409 0.000358779)
(-0.0313684 1.05842 0.000273983)
(-0.0223768 0.951699 0.000195478)
(-0.0143849 0.811301 0.000125696)
(-0.00775068 0.634064 6.77573e-05)
(-0.00279347 0.416151 2.44715e-05)
(-0.000110073 0.153116 1.39656e-06)
(-0.151017 -0.281448 0.00131825)
(-0.151624 -0.0526871 0.00132358)
(-0.150666 0.158745 0.00131524)
(-0.147885 0.35254 0.00129099)
(-0.143297 0.528007 0.00125097)
(-0.137124 0.68454 0.00119711)
(-0.129586 0.821554 0.00113132)
(-0.120933 0.938492 0.00105581)
(-0.111366 1.03475 0.000972314)
(-0.101072 1.10966 0.000882459)
(-0.0902234 1.16245 0.000787769)
(-0.078998 1.1922 0.000689785)
(-0.0675839 1.19781 0.00059015)
(-0.056188 1.17802 0.000490671)
(-0.0450389 1.13127 0.000393342)
(-0.034388 1.05575 0.000300357)
(-0.0245275 0.949281 0.000214267)
(-0.0157634 0.809225 0.000137742)
(-0.00848957 0.632432 7.42168e-05)
(-0.00305699 0.415075 2.67801e-05)
(-0.000119597 0.152718 1.52043e-06)
(-0.164369 -0.277111 0.0014348)
(-0.16481 -0.0493021 0.00143868)
(-0.163572 0.161126 0.0014279)
(-0.16047 0.353892 0.00140085)
(-0.155516 0.528414 0.00135764)
(-0.148885 0.684118 0.00129978)
(-0.140782 0.820435 0.00122907)
(-0.131449 0.936796 0.00114762)
(-0.121099 1.03258 0.00105728)
(-0.109935 1.10712 0.000959845)
(-0.0981533 1.15962 0.000857007)
(-0.0859504 1.18918 0.000750491)
(-0.0735357 1.19468 0.000642122)
(-0.0611371 1.17486 0.00053389)
(-0.049005 1.12819 0.000427979)
(-0.0374141 1.05284 0.000326788)
(-0.0266828 0.946639 0.000233095)
(-0.0171451 0.806957 0.000149815)
(-0.00923045 0.63065 8.06938e-05)
(-0.00332152 0.413899 2.90976e-05)
(-0.000129288 0.152284 1.64596e-06)
(-0.178195 -0.272529 0.0015555)
(-0.178399 -0.0457472 0.00155731)
(-0.17682 0.163625 0.00154355)
(-0.173327 0.355327 0.00151309)
(-0.167934 0.528861 0.00146605)
(-0.160787 0.683683 0.00140368)
(-0.152075 0.819247 0.00132766)
(-0.142033 0.934978 0.00124002)
(-0.130879 1.03025 0.00114268)
(-0.118834 1.10438 0.00103754)
(-0.10611 1.15656 0.00092648)
(-0.0929233 1.1859 0.000811375)
(-0.0795031 1.19129 0.000694231)
(-0.066098 1.17145 0.000577212)
(-0.05298 1.12486 0.000462694)
(-0.0404466 1.04969 0.000353275)
(-0.0288428 0.943774 0.000251964)
(-0.0185301 0.804497 0.000161917)
(-0.00997341 0.628717 8.71888e-05)
(-0.00358712 0.412626 3.14244e-05)
(-0.000139144 0.151814 1.77315e-06)
(-0.192498 -0.267729 0.00168036)
(-0.192398 -0.0420454 0.00167952)
(-0.190418 0.166217 0.00166226)
(-0.186468 0.356817 0.00162781)
(-0.180569 0.529321 0.00157635)
(-0.172847 0.683216 0.00150897)
(-0.163481 0.817977 0.00142724)
(-0.152696 0.933028 0.00133311)
(-0.140717 1.02774 0.00122857)
(-0.127775 1.10142 0.0011156)
(-0.114097 1.15327 0.000996217)
(-0.0999185 1.18237 0.000872456)
(-0.085487 1.18763 0.000746483)
(-0.0710711 1.16777 0.00062064)
(-0.0569639 1.12126 0.000497487)
(-0.0434856 1.04628 0.000379819)
(-0.0310074 0.940685 0.000270874)
(-0.0199182 0.801845 0.000174047)
(-0.0107184 0.626633 9.37021e-05)
(-0.00385378 0.411253 3.37605e-05)
(-0.000149161 0.151308 1.90197e-06)
(-0.20728 -0.262735 0.00180939)
(-0.206811 -0.0382184 0.00180534)
(-0.20437 0.16888 0.00178406)
(-0.199901 0.35834 0.00174509)
(-0.193432 0.529773 0.00168864)
(-0.185079 0.682697 0.00161576)
(-0.175012 0.816609 0.00152791)
(-0.163449 0.930937 0.001427)
(-0.15062 1.02505 0.00131502)
(-0.136761 1.09825 0.00119407)
(-0.122117 1.14973 0.00106625)
(-0.106938 1.17858 0.000933745)
(-0.0914882 1.1837 0.000798886)
(-0.0760565 1.16381 0.000664177)
(-0.0609566 1.11739 0.000532357)
(-0.0465309 1.04263 0.000406418)
(-0.0331765 0.937372 0.000289822)
(-0.0213095 0.799 0.000186204)
(-0.0114655 0.624399 0.000100233)
(-0.00412149 0.409782 3.61057e-05)
(-0.000159332 0.150765 2.03232e-06)
(-0.222541 -0.25757 0.00194262)
(-0.221641 -0.0342873 0.0019348)
(-0.21868 0.171595 0.00190899)
(-0.213631 0.359871 0.00186495)
(-0.206531 0.530194 0.001803)
(-0.197492 0.682107 0.00172412)
(-0.186677 0.815128 0.00162975)
(-0.174301 0.928693 0.00152174)
(-0.160592 1.02217 0.00140209)
(-0.145798 1.09486 0.00127297)
(-0.130174 1.14595 0.00113659)
(-0.113982 1.17454 0.000995256)
(-0.0975072 1.17951 0.000851445)
(-0.0810544 1.15959 0.000707822)
(-0.064958 1.11327 0.000567303)
(-0.0495823 1.03874 0.00043307)
(-0.0353499 0.933833 0.000308809)
(-0.0227038 0.795963 0.000198388)
(-0.0122146 0.622014 0.000106782)
(-0.0043902 0.408211 3.84598e-05)
(-0.000169647 0.150187 2.16415e-06)
(-0.238282 -0.252256 0.00208004)
(-0.236887 -0.0302732 0.0020679)
(-0.233349 0.174339 0.00203705)
(-0.227661 0.36139 0.00198743)
(-0.219872 0.530564 0.00191947)
(-0.210092 0.681428 0.00183413)
(-0.198484 0.813519 0.00173283)
(-0.185256 0.926284 0.00161738)
(-0.17064 1.01909 0.00148982)
(-0.154889 1.09124 0.00135234)
(-0.138267 1.14193 0.00120725)
(-0.121053 1.17023 0.00105699)
(-0.103544 1.17504 0.000904161)
(-0.0860646 1.1551 0.000751574)
(-0.0689678 1.10888 0.000602322)
(-0.0526395 1.03459 0.000459772)
(-0.0375273 0.930069 0.00032783)
(-0.024101 0.792732 0.000210596)
(-0.0129655 0.619477 0.000113346)
(-0.00465986 0.406541 4.08222e-05)
(-0.000180099 0.149571 2.29736e-06)
(-0.254502 -0.246816 0.00222163)
(-0.252549 -0.0261969 0.00220463)
(-0.248374 0.177092 0.00216822)
(-0.24199 0.362875 0.00211252)
(-0.233455 0.530862 0.00203805)
(-0.222883 0.680641 0.0019458)
(-0.210436 0.811768 0.00183717)
(-0.196318 0.923698 0.00171396)
(-0.180765 1.01581 0.00157822)
(-0.164034 1.08739 0.00143219)
(-0.146399 1.13765 0.00127826)
(-0.12815 1.16565 0.00111896)
(-0.109599 1.1703 0.000957032)
(-0.0910868 1.15033 0.000795431)
(-0.0729855 1.10423 0.00063741)
(-0.055702 1.03019 0.000486521)
(-0.0397084 0.92608 0.000346883)
(-0.0255006 0.789308 0.000222826)
(-0.0137181 0.616788 0.000119925)
(-0.00493039 0.404771 4.31922e-05)
(-0.000190679 0.148919 2.43185e-06)
(-0.271199 -0.241272 0.00236739)
(-0.268625 -0.0220795 0.00234497)
(-0.263753 0.179834 0.00230248)
(-0.256615 0.364307 0.00224021)
(-0.24728 0.531069 0.00215875)
(-0.235866 0.679728 0.00205914)
(-0.222534 0.809859 0.00194279)
(-0.207489 0.920924 0.0018115)
(-0.19097 1.0123 0.00166732)
(-0.173236 1.0833 0.00151253)
(-0.15457 1.13311 0.0013496)
(-0.135273 1.1608 0.00118116)
(-0.115671 1.16529 0.00101006)
(-0.0961201 1.14529 0.000839386)
(-0.0770104 1.09931 0.000672562)
(-0.0587692 1.02555 0.000513311)
(-0.0418926 0.921864 0.000365964)
(-0.0269025 0.785691 0.000235076)
(-0.0144722 0.613948 0.000126518)
(-0.00520171 0.402902 4.55691e-05)
(-0.000201377 0.14823 2.56754e-06)
(-0.288367 -0.235647 0.00251727)
(-0.285108 -0.0179425 0.00248887)
(-0.279481 0.182545 0.00243978)
(-0.271533 0.365665 0.00237044)
(-0.261344 0.531166 0.00228153)
(-0.249037 0.678674 0.00217413)
(-0.234778 0.807777 0.00204969)
(-0.21877 0.91795 0.00190998)
(-0.201253 1.00858 0.0017571)
(-0.182493 1.07897 0.00159335)
(-0.162779 1.12831 0.00142128)
(-0.142422 1.15568 0.00124358)
(-0.12176 1.16 0.00106322)
(-0.101164 1.13998 0.000883431)
(-0.0810417 1.09413 0.000707769)
(-0.0618403 1.02065 0.000540136)
(-0.0440794 0.917421 0.000385068)
(-0.0283062 0.781879 0.000247341)
(-0.0152275 0.610956 0.000133121)
(-0.00547372 0.400932 4.7952e-05)
(-0.000212185 0.147504 2.70434e-06)
(-0.306 -0.229965 0.0026712)
(-0.301991 -0.0138075 0.00263626)
(-0.29555 0.185204 0.00258006)
(-0.286735 0.36693 0.00250316)
(-0.27564 0.531136 0.00240634)
(-0.262394 0.677461 0.00229074)
(-0.247164 0.805509 0.00215783)
(-0.230157 0.914764 0.0020094)
(-0.211614 1.00462 0.00184756)
(-0.191805 1.07438 0.00167465)
(-0.171025 1.12324 0.00149328)
(-0.149594 1.15029 0.00130621)
(-0.127863 1.15443 0.00111652)
(-0.106216 1.13439 0.000927554)
(-0.0850783 1.08867 0.000743022)
(-0.0649146 1.0155 0.000566988)
(-0.0462682 0.912752 0.000404189)
(-0.0297112 0.777874 0.000259619)
(-0.0159838 0.607811 0.000139733)
(-0.00574631 0.398862 5.034e-05)
(-0.000223093 0.146741 2.84215e-06)
(-0.324089 -0.224248 0.00282912)
(-0.319265 -0.00969671 0.00278706)
(-0.311949 0.18779 0.00272323)
(-0.302214 0.368083 0.00263829)
(-0.290161 0.53096 0.00253311)
(-0.275929 0.676074 0.00240891)
(-0.259688 0.803041 0.00226717)
(-0.241647 0.911354 0.00210971)
(-0.222049 1.00041 0.00193867)
(-0.201168 1.06953 0.0017564)
(-0.179305 1.1179 0.00156558)
(-0.156789 1.14461 0.00136903)
(-0.13398 1.14857 0.00116993)
(-0.111277 1.12851 0.000971743)
(-0.0891188 1.08295 0.000778309)
(-0.0679908 1.0101 0.000593857)
(-0.0484581 0.907856 0.000423319)
(-0.0311171 0.773674 0.000271903)
(-0.0167408 0.604514 0.000146351)
(-0.00601936 0.396691 5.27319e-05)
(-0.000234094 0.14594 2.98084e-06)
(-0.342622 -0.218523 0.00299091)
(-0.336918 -0.00563265 0.00294117)
(-0.328667 0.190284 0.00286918)
(-0.317956 0.369105 0.00277573)
(-0.304897 0.530621 0.00266176)
(-0.289634 0.674497 0.00252857)
(-0.272343 0.80036 0.00237766)
(-0.253234 0.907711 0.00221088)
(-0.232554 0.995957 0.00203038)
(-0.210579 1.06441 0.00183857)
(-0.187617 1.11229 0.00163815)
(-0.164003 1.13865 0.00143202)
(-0.140108 1.14243 0.00122344)
(-0.116342 1.12236 0.00101598)
(-0.0931616 1.07696 0.000813617)
(-0.0710678 1.00445 0.000620732)
(-0.0506482 0.902733 0.000442452)
(-0.0325232 0.769281 0.00028419)
(-0.0174982 0.601065 0.000152971)
(-0.00629273 0.39442 5.51267e-05)
(-0.000245179 0.145103 3.12033e-06)
(-0.361583 -0.212815 0.00315644)
(-0.354933 -0.00163813 0.00309844)
(-0.345689 0.192663 0.00301779)
(-0.333949 0.369978 0.00291535)
(-0.319836 0.530103 0.00279218)
(-0.303499 0.672716 0.00264962)
(-0.28512 0.797452 0.00248921)
(-0.264911 0.903822 0.00231283)
(-0.243122 0.99124 0.00212266)
(-0.220033 1.05903 0.00192112)
(-0.195956 1.10639 0.00171096)
(-0.171232 1.13241 0.00149515)
(-0.146243 1.13601 0.00127702)
(-0.121411 1.11593 0.00106024)
(-0.0972049 1.0707 0.000848929)
(-0.0741442 0.998545 0.000647603)
(-0.0528376 0.897383 0.000461578)
(-0.0339289 0.764693 0.000296473)
(-0.0182555 0.597464 0.000159592)
(-0.00656629 0.392049 5.75232e-05)
(-0.000256339 0.144228 3.26052e-06)
(-0.380954 -0.207149 0.00332555)
(-0.373292 0.0022638 0.00325872)
(-0.362997 0.194909 0.00316889)
(-0.350177 0.370682 0.00305702)
(-0.334962 0.529389 0.00292425)
(-0.317512 0.670715 0.00277195)
(-0.298009 0.794306 0.00260174)
(-0.27667 0.899679 0.0024155)
(-0.253748 0.986254 0.00221543)
(-0.229524 1.05336 0.00200399)
(-0.204317 1.1002 0.00178397)
(-0.178474 1.12587 0.00155838)
(-0.152384 1.12929 0.00133064)
(-0.12648 1.10921 0.00110451)
(-0.101247 1.06416 0.000884227)
(-0.0772184 0.992389 0.000674455)
(-0.0550251 0.891806 0.000480687)
(-0.0353335 0.759911 0.000308747)
(-0.0190124 0.593711 0.000166209)
(-0.00683987 0.389578 5.99198e-05)
(-0.000267565 0.143316 3.40131e-06)
(-0.400714 -0.201552 0.00349805)
(-0.391976 0.00605001 0.00342183)
(-0.380572 0.197 0.00332232)
(-0.366621 0.3712 0.00320058)
(-0.350261 0.528463 0.00305781)
(-0.331657 0.668482 0.00289545)
(-0.310997 0.79091 0.00271514)
(-0.288501 0.895271 0.00251879)
(-0.264422 0.980992 0.00230863)
(-0.239046 1.0474 0.00208713)
(-0.212696 1.09372 0.00185713)
(-0.185723 1.11904 0.00162168)
(-0.158526 1.12229 0.00138427)
(-0.131547 1.10222 0.00114876)
(-0.105285 1.05736 0.000919492)
(-0.0802887 0.98598 0.000701272)
(-0.0572095 0.886002 0.00049977)
(-0.0367361 0.754936 0.000321003)
(-0.0197685 0.589806 0.000172819)
(-0.00711332 0.387006 6.23153e-05)
(-0.000278849 0.142366 3.54263e-06)
(-0.420837 -0.19605 0.00367373)
(-0.410958 0.00969742 0.00358755)
(-0.39839 0.198917 0.00347788)
(-0.38326 0.371515 0.00334585)
(-0.365713 0.527311 0.00319272)
(-0.34592 0.666004 0.00301997)
(-0.324072 0.787253 0.00282929)
(-0.300391 0.89059 0.00262261)
(-0.275135 0.975447 0.00240217)
(-0.248591 1.04116 0.00217047)
(-0.221085 1.08695 0.00193037)
(-0.192974 1.11192 0.001685)
(-0.164664 1.11499 0.00143788)
(-0.136609 1.09493 0.00119296)
(-0.109316 1.05029 0.000954701)
(-0.0833532 0.97932 0.000728038)
(-0.0593895 0.879972 0.000518814)
(-0.038136 0.749768 0.000333234)
(-0.0205233 0.585749 0.000179417)
(-0.00738646 0.384334 6.4708e-05)
(-0.000290179 0.14138 3.68433e-06)
(-0.441293 -0.19067 0.00385231)
(-0.430212 0.0131832 0.00375565)
(-0.416427 0.20064 0.00363535)
(-0.400072 0.371611 0.00349262)
(-0.381298 0.525918 0.00332878)
(-0.360282 0.663269 0.00314536)
(-0.337217 0.783326 0.00294406)
(-0.312329 0.885628 0.00272684)
(-0.285877 0.969612 0.00249595)
(-0.25815 1.03462 0.00225393)
(-0.229477 1.07988 0.00200365)
(-0.200222 1.10449 0.00174829)
(-0.170796 1.1074 0.00149142)
(-0.141661 1.08736 0.00123708)
(-0.113338 1.04294 0.00098983)
(-0.0864099 0.972407 0.000754736)
(-0.0615636 0.873715 0.000537806)
(-0.039532 0.744406 0.000345434)
(-0.0212762 0.581542 0.000185999)
(-0.00765909 0.381562 6.70963e-05)
(-0.000301548 0.140356 3.82631e-06)
(-0.462049 -0.185438 0.00403352)
(-0.449707 0.016485 0.00392584)
(-0.434653 0.202151 0.00379448)
(-0.41703 0.37147 0.00364068)
(-0.396994 0.524271 0.00346581)
(-0.374724 0.660264 0.00327145)
(-0.350417 0.779118 0.0030593)
(-0.324301 0.880376 0.00283136)
(-0.296636 0.963482 0.00258989)
(-0.267713 1.02778 0.00233743)
(-0.237866 1.07251 0.0020769)
(-0.20746 1.09677 0.00181149)
(-0.176914 1.09951 0.00154484)
(-0.1467 1.07951 0.00128108)
(-0.117349 1.03533 0.00102485)
(-0.0894564 0.965243 0.000781346)
(-0.0637302 0.867234 0.000556733)
(-0.0409234 0.738853 0.000357592)
(-0.0220267 0.577183 0.000192561)
(-0.00793102 0.378691 6.94785e-05)
(-0.000312943 0.139294 3.96844e-06)
(-0.483068 -0.180381 0.00421701)
(-0.469407 0.0195813 0.00409783)
(-0.453039 0.20343 0.00395499)
(-0.434108 0.371079 0.00378978)
(-0.412776 0.522358 0.0036036)
(-0.389225 0.656981 0.00339805)
(-0.363653 0.774622 0.00317487)
(-0.336291 0.87483 0.00293604)
(-0.307399 0.957052 0.00268386)
(-0.277271 1.02064 0.00242088)
(-0.246241 1.06483 0.00215003)
(-0.214681 1.08875 0.00187454)
(-0.183015 1.09133 0.00159812)
(-0.151721 1.07137 0.00132494)
(-0.121343 1.02744 0.00105974)
(-0.0924905 0.957829 0.000807847)
(-0.0658877 0.860527 0.000575581)
(-0.0423091 0.733108 0.000369699)
(-0.0227744 0.572674 0.000199096)
(-0.00820205 0.37572 7.18527e-05)
(-0.000324355 0.138196 4.11059e-06)
(-0.504307 -0.175522 0.00440244)
(-0.489277 0.0224515 0.0042713)
(-0.47155 0.204462 0.0041166)
(-0.451277 0.370423 0.00393967)
(-0.428619 0.520166 0.00374192)
(-0.403762 0.65341 0.00352498)
(-0.376907 0.76983 0.00329058)
(-0.348283 0.868981 0.00304075)
(-0.318153 0.950316 0.00277776)
(-0.286811 1.01319 0.00250418)
(-0.254595 1.05685 0.00222297)
(-0.221879 1.08042 0.00193739)
(-0.189091 1.08286 0.00165118)
(-0.15672 1.06295 0.0013686)
(-0.125319 1.01928 0.00109446)
(-0.0955096 0.950165 0.000834217)
(-0.0680345 0.853597 0.000594334)
(-0.0436878 0.727172 0.000381747)
(-0.0235185 0.568016 0.000205601)
(-0.00847194 0.372651 7.42169e-05)
(-0.000335771 0.137061 4.25262e-06)
(-0.525721 -0.170887 0.00458939)
(-0.509275 0.0250763 0.00444589)
(-0.490151 0.20523 0.004279)
(-0.468503 0.369489 0.00409006)
(-0.444494 0.517686 0.00388052)
(-0.418313 0.649542 0.00365201)
(-0.390158 0.764736 0.00340628)
(-0.360261 0.862827 0.00314533)
(-0.328884 0.943272 0.00287146)
(-0.296324 1.00544 0.00258724)
(-0.262918 1.04857 0.00229565)
(-0.229045 1.07179 0.00199996)
(-0.195138 1.07408 0.00170399)
(-0.161693 1.05424 0.00141202)
(-0.129273 1.01086 0.00112899)
(-0.0985111 0.942252 0.000860433)
(-0.0701685 0.846445 0.000612977)
(-0.0450585 0.721047 0.000393724)
(-0.0242584 0.56321 0.00021207)
(-0.00874046 0.369484 7.65692e-05)
(-0.00034718 0.135889 4.39439e-06)
(-0.547262 -0.166496 0.00477745)
(-0.529357 0.0274382 0.00462122)
(-0.508803 0.205721 0.00444184)
(-0.485754 0.368267 0.00424068)
(-0.460374 0.514909 0.00401917)
(-0.432851 0.645371 0.00377895)
(-0.403385 0.759335 0.00352176)
(-0.372206 0.856362 0.00324962)
(-0.339577 0.935917 0.00296482)
(-0.305795 0.997369 0.00266994)
(-0.2712 1.03997 0.00236796)
(-0.236172 1.06286 0.00206219)
(-0.201149 1.06502 0.00175647)
(-0.166635 1.04525 0.00145517)
(-0.1332 1.00216 0.00116329)
(-0.101492 0.934092 0.000886472)
(-0.072288 0.839072 0.000631493)
(-0.0464201 0.714734 0.000405621)
(-0.0249935 0.558256 0.000218496)
(-0.00900738 0.366218 7.89075e-05)
(-0.000358569 0.134681 4.53576e-06)
(-0.568875 -0.162369 0.00496614)
(-0.549477 0.0295213 0.00479687)
(-0.527466 0.205922 0.00460478)
(-0.502995 0.366746 0.0043912)
(-0.476228 0.511828 0.00415758)
(-0.447352 0.640891 0.00390555)
(-0.416567 0.753621 0.00363685)
(-0.384101 0.849584 0.00335347)
(-0.350217 0.928249 0.00305772)
(-0.315213 0.988991 0.00275217)
(-0.27943 1.03107 0.00243982)
(-0.243251 1.05363 0.00212401)
(-0.207117 1.05566 0.00180859)
(-0.171539 1.03598 0.001498)
(-0.137097 0.993205 0.00119733)
(-0.10445 0.925687 0.000912308)
(-0.074391 0.831479 0.000649864)
(-0.0477711 0.708234 0.000417427)
(-0.0257232 0.553155 0.000224875)
(-0.00927246 0.362856 8.12296e-05)
(-0.000369925 0.133436 4.67657e-06)
(-0.590505 -0.158525 0.00515497)
(-0.569586 0.0313121 0.00497243)
(-0.546097 0.205823 0.00476743)
(-0.520188 0.364919 0.00454131)
(-0.492024 0.508435 0.00429549)
(-0.461788 0.636097 0.00403159)
(-0.429679 0.747593 0.00375133)
(-0.395925 0.842491 0.00345671)
(-0.360788 0.920267 0.00315002)
(-0.324565 0.980301 0.00283383)
(-0.287599 1.02186 0.00251115)
(-0.250273 1.0441 0.00218533)
(-0.213036 1.04601 0.00186027)
(-0.176401 1.02643 0.00154047)
(-0.14096 0.983982 0.00123106)
(-0.107382 0.917039 0.000937915)
(-0.0764754 0.823669 0.000668073)
(-0.0491103 0.701549 0.000429129)
(-0.0264467 0.547909 0.0002312)
(-0.00953542 0.359398 8.35332e-05)
(-0.000381236 0.132155 4.81666e-06)
(-0.612093 -0.154977 0.00534344)
(-0.589633 0.0327995 0.00514745)
(-0.564652 0.205415 0.00492943)
(-0.537297 0.36278 0.00469068)
(-0.507729 0.504728 0.00443261)
(-0.476132 0.630988 0.00415682)
(-0.4427 0.741248 0.00386501)
(-0.40766 0.835083 0.00355917)
(-0.371274 0.911971 0.00324157)
(-0.333837 0.971301 0.00291478)
(-0.295694 1.01235 0.00258183)
(-0.25723 1.03427 0.00224608)
(-0.218898 1.03607 0.00191146)
(-0.181216 1.0166 0.00158251)
(-0.144785 0.974498 0.00126447)
(-0.110284 0.908149 0.000963267)
(-0.0785391 0.815644 0.000686101)
(-0.0504365 0.694681 0.000440718)
(-0.0271633 0.542519 0.000237465)
(-0.00979602 0.355844 8.58161e-05)
(-0.000392486 0.130839 4.95587e-06)
(-0.633577 -0.151737 0.00553101)
(-0.609565 0.0339752 0.00532147)
(-0.583085 0.204693 0.00509036)
(-0.554282 0.360324 0.00483897)
(-0.523311 0.500704 0.00456865)
(-0.490355 0.62556 0.004281)
(-0.455605 0.734586 0.00397768)
(-0.419285 0.827359 0.00366067)
(-0.381657 0.903363 0.00333222)
(-0.343015 0.961991 0.00299492)
(-0.303704 1.00253 0.00265178)
(-0.264113 1.02414 0.00230618)
(-0.224695 1.02584 0.00196209)
(-0.185978 1.0065 0.0016241)
(-0.148567 0.964755 0.0012975)
(-0.113155 0.899021 0.000988338)
(-0.0805801 0.807405 0.00070393)
(-0.0517483 0.687631 0.00045218)
(-0.0278723 0.536987 0.000243663)
(-0.010054 0.352196 8.80759e-05)
(-0.000403663 0.129487 5.09405e-06)
(-0.654895 -0.148813 0.00571712)
(-0.629329 0.0348337 0.00549401)
(-0.601352 0.203653 0.00524984)
(-0.571104 0.35755 0.00498583)
(-0.538737 0.496362 0.00470332)
(-0.504429 0.619816 0.00440387)
(-0.468369 0.727609 0.00408913)
(-0.43078 0.819322 0.00376103)
(-0.391921 0.894444 0.00342184)
(-0.352086 0.952375 0.00307412)
(-0.31162 0.992407 0.00272089)
(-0.270913 1.01372 0.00236555)
(-0.230422 1.01533 0.0020121)
(-0.190681 0.996121 0.00166517)
(-0.152302 0.954756 0.00133012)
(-0.11599 0.889658 0.0010131)
(-0.082596 0.798956 0.000721541)
(-0.0530442 0.680401 0.000463504)
(-0.028573 0.531314 0.000249788)
(-0.010309 0.348454 9.03102e-05)
(-0.000414751 0.128099 5.23101e-06)
(-0.675982 -0.14621 0.00590122)
(-0.648869 0.0353725 0.00566461)
(-0.619404 0.202293 0.00540745)
(-0.587723 0.354458 0.00513092)
(-0.553972 0.491702 0.00483634)
(-0.518325 0.613756 0.0045252)
(-0.48097 0.720317 0.00419915)
(-0.442126 0.810973 0.00386009)
(-0.402049 0.885216 0.00351028)
(-0.361035 0.942456 0.00315226)
(-0.319428 0.981989 0.00278907)
(-0.277619 1.003 0.00242411)
(-0.236071 1.00454 0.00206142)
(-0.195319 0.985477 0.00170567)
(-0.155987 0.944505 0.0013623)
(-0.118786 0.880061 0.00103752)
(-0.0845849 0.790299 0.000738915)
(-0.054323 0.672995 0.000474678)
(-0.0292646 0.525502 0.000255835)
(-0.0105609 0.344621 9.25167e-05)
(-0.000425737 0.126678 5.36659e-06)
(-0.696774 -0.143927 0.00608274)
(-0.668131 0.0355923 0.00583278)
(-0.637196 0.200617 0.00556278)
(-0.604099 0.351051 0.0052739)
(-0.568982 0.486728 0.00496739)
(-0.532016 0.607383 0.00464473)
(-0.493383 0.712716 0.00430753)
(-0.453301 0.802316 0.00395766)
(-0.412025 0.875685 0.00359738)
(-0.369849 0.932236 0.00322922)
(-0.327118 0.971277 0.00285622)
(-0.284225 0.992004 0.00248179)
(-0.241634 0.993469 0.00211)
(-0.199887 0.974569 0.00174557)
(-0.159615 0.934005 0.00139399)
(-0.12154 0.870236 0.00106158)
(-0.0865443 0.781437 0.000756033)
(-0.0555832 0.665415 0.00048569)
(-0.0299464 0.519553 0.000261795)
(-0.0108093 0.340696 9.46929e-05)
(-0.000436607 0.125222 5.50063e-06)
(-0.717208 -0.141962 0.00626113)
(-0.68706 0.0354972 0.00599804)
(-0.654681 0.198627 0.00571543)
(-0.620193 0.347332 0.00541441)
(-0.583735 0.481445 0.00509619)
(-0.545472 0.600703 0.00476222)
(-0.505584 0.704809 0.00441405)
(-0.464286 0.793357 0.00405358)
(-0.421832 0.865855 0.003683)
(-0.378514 0.921722 0.00330488)
(-0.334678 0.960276 0.00292223)
(-0.290719 0.980724 0.0025385)
(-0.247103 0.982128 0.00215776)
(-0.20438 0.9634 0.0017848)
(-0.163184 0.92326 0.00142516)
(-0.12425 0.860185 0.00108525)
(-0.0884722 0.772374 0.000772874)
(-0.0568235 0.657663 0.000496527)
(-0.0306176 0.51347 0.000267663)
(-0.011054 0.336682 9.68365e-05)
(-0.000447345 0.123732 5.63294e-06)
(-0.737219 -0.140307 0.00643584)
(-0.705604 0.0350942 0.00615993)
(-0.671814 0.196332 0.00586501)
(-0.635967 0.343308 0.00555213)
(-0.598197 0.475859 0.00522246)
(-0.558666 0.593721 0.00487741)
(-0.51755 0.696603 0.00451852)
(-0.475061 0.784101 0.00414766)
(-0.431453 0.855731 0.00376701)
(-0.387016 0.910919 0.00337911)