/*--------------------------------*- C++ -*----------------------------------*\
| =========                 |                                                 |
| \\      /  F ield         | OpenFOAM: The Open Source CFD Toolbox           |
|  \\    /   O peration     | Version:  v2012                                 |
|   \\  /    A nd           | Website:  www.openfoam.com                      |
|    \\/     M anipulation  |                                                 |
\*---------------------------------------------------------------------------*/
FoamFile
{
    version     2.0;
    format      ascii;
    class       surfaceScalarField;
    location    "0.15";
    object      phi;
}
// * * * * * * * * * * * * * * * * * * * * * * * * * * * * * * * * * * * * * //

dimensions      [0 3 -1 0 0 0 0];
oriented        oriented;


internalField   nonuniform List<scalar> 
8134
(
-1.11999e-09
-2.62107e-10
-8.3117e-16
-9.19926e-10
-2.00061e-10
-1.92296e-16
-7.64798e-10
-1.55126e-10
-1.97317e-16
-6.42769e-10
-1.22035e-10
-3.85253e-16
-5.45407e-10
-9.73685e-11
-4.07563e-16
-4.66633e-10
-7.87815e-11
-4.21899e-16
-4.02118e-10
-6.45209e-11
-3.59136e-16
-3.48671e-10
-5.34523e-11
-3.22691e-16
-3.03952e-10
-4.47233e-11
-2.61605e-16
-2.66191e-10
-3.77635e-11
-2.19521e-16
-2.34051e-10
-3.21427e-11
-1.71659e-16
-2.06487e-10
-2.7565e-11
-1.43538e-16
-1.82691e-10
-2.37972e-11
-1.1581e-16
-1.62017e-10
-2.06734e-11
-1.11225e-16
-1.43954e-10
-1.80633e-11
-1.06413e-16
-1.28087e-10
-1.58665e-11
-1.0614e-16
-1.14082e-10
-1.40049e-11
-1.04826e-16
-1.01665e-10
-1.24166e-11
-1.08344e-16
-9.06121e-11
-1.1053e-11
-1.07472e-16
-8.07374e-11
-9.87402e-12
-1.08734e-16
-7.18889e-11
-8.84836e-12
-1.08472e-16
-6.39384e-11
-7.95013e-12
-1.08674e-16
-5.67815e-11
-7.15724e-12
-1.05327e-16
-5.03246e-11
-6.45671e-12
-1.04805e-16
-4.44941e-11
-5.83079e-12
-1.02367e-16
-3.92223e-11
-5.27195e-12
-9.91642e-17
-3.44533e-11
-4.76926e-12
-9.44479e-17
-3.01376e-11
-4.31624e-12
-8.87764e-17
-2.62277e-11
-3.91018e-12
-8.17144e-17
-2.26847e-11
-3.54348e-12
-7.56429e-17
-1.94697e-11
-3.21541e-12
-7.49234e-17
-1.6548e-11
-2.92218e-12
-6.71082e-17
-1.38865e-11
-2.66196e-12
-5.81515e-17
-1.14542e-11
-2.43274e-12
-5.03078e-17
-9.22486e-12
-2.2297e-12
-4.31872e-17
-7.17727e-12
-2.04793e-12
-3.71519e-17
-5.30003e-12
-1.87752e-12
-3.13991e-17
-3.59678e-12
-1.70349e-12
-2.67008e-17
-2.09923e-12
-1.49773e-12
-2.30274e-17
-8.69932e-13
-1.22945e-12
-2.01147e-17
-3.66061e-14
-8.33444e-13
-1.83041e-17
2.77658e-13
-3.14358e-13
-1.70498e-17
2.77476e-13
-1.61524e-17
-2.44219e-09
-6.70478e-10
-9.62013e-16
-2.09956e-09
-5.42674e-10
-2.44287e-16
-1.81119e-09
-4.4349e-10
-1.62458e-16
-1.56873e-09
-3.64485e-10
-3.22599e-16
-1.36408e-09
-3.02019e-10
-3.39505e-16
-1.19084e-09
-2.5202e-10
-3.62009e-16
-1.04349e-09
-2.11865e-10
-3.11914e-16
-9.17607e-10
-1.79336e-10
-2.96825e-16
-8.09514e-10
-1.52813e-10
-2.43831e-16
-7.16238e-10
-1.31034e-10
-2.02954e-16
-6.35361e-10
-1.13018e-10
-1.57859e-16
-5.64887e-10
-9.80367e-11
-1.33277e-16
-5.03196e-10
-8.54858e-11
-9.87587e-17
-4.48946e-10
-7.49182e-11
-1.19416e-16
-4.01037e-10
-6.59686e-11
-1.12742e-16
-3.58556e-10
-5.83451e-11
-1.16741e-16
-3.20743e-10
-5.18158e-11
-1.14347e-16
-2.86966e-10
-4.6192e-11
-1.10422e-16
-2.56695e-10
-4.13219e-11
-1.18101e-16
-2.29488e-10
-3.70785e-11
-1.11776e-16
-2.04975e-10
-3.33609e-11
-1.20249e-16
-1.82839e-10
-3.00844e-11
-1.152e-16
-1.62821e-10
-2.7175e-11
-1.11741e-16
-1.44685e-10
-2.45913e-11
-1.13549e-16
-1.28245e-10
-2.22711e-11
-1.13838e-16
-1.13326e-10
-2.01907e-11
-1.11191e-16
-9.97838e-11
-1.83115e-11
-1.07862e-16
-8.74894e-11
-1.66114e-11
-1.00833e-16
-7.6317e-11
-1.50823e-11
-9.30071e-17
-6.61647e-11
-1.36964e-11
-8.70249e-17
-5.69281e-11
-1.24524e-11
-8.73182e-17
-4.85142e-11
-1.13365e-11
-7.9151e-17
-4.08345e-11
-1.03423e-11
-6.84292e-17
-3.38049e-11
-9.46276e-12
-5.93583e-17
-2.73557e-11
-8.67946e-12
-5.08015e-17
-2.14306e-11
-7.97353e-12
-4.40361e-17
-1.6e-11
-7.30854e-12
-3.73586e-17
-1.1078e-11
-6.6259e-12
-3.16487e-17
-6.74818e-12
-5.82792e-12
-2.70247e-17
-3.18644e-12
-4.79157e-12
-2.34688e-17
-6.98335e-13
-3.32191e-12
-2.16158e-17
3.74446e-13
-1.38747e-12
-2.00179e-17
6.51547e-13
-1.87442e-17
-3.08625e-09
-1.04939e-09
-9.73705e-16
-2.7423e-09
-8.86603e-10
-3.68708e-16
-2.4338e-09
-7.51981e-10
-2.39185e-16
-2.15977e-09
-6.3851e-10
-3.40625e-16
-1.91753e-09
-5.44259e-10
-3.21917e-16
-1.70415e-09
-4.65395e-10
-3.27651e-16
-1.5164e-09
-3.99612e-10
-2.75309e-16
-1.35124e-09
-3.44497e-10
-2.63793e-16
-1.2058e-09
-2.98246e-10
-2.11468e-16
-1.07753e-09
-2.59293e-10
-1.7302e-16
-9.64195e-10
-2.26355e-10
-1.30608e-16
-8.63792e-10
-1.98437e-10
-1.0779e-16
-7.74624e-10
-1.74651e-10
-6.73912e-17
-6.95211e-10
-1.54324e-10
-1.14121e-16
-6.24293e-10
-1.36882e-10
-1.01802e-16
-5.60786e-10
-1.21849e-10
-1.10394e-16
-5.0376e-10
-1.08839e-10
-1.07583e-16
-4.52425e-10
-9.75267e-11
-9.86811e-17
-4.06097e-10
-8.76473e-11
-1.12798e-16
-3.64199e-10
-7.89731e-11
-1.02237e-16
-3.26238e-10
-7.13206e-11
-1.16337e-16
-2.91786e-10
-6.45335e-11
-1.0778e-16
-2.6049e-10
-5.84716e-11
-1.05323e-16
-2.32019e-10
-5.30609e-11
-1.08278e-16
-2.06112e-10
-4.81785e-11
-1.0975e-16
-1.82519e-10
-4.3782e-11
-1.08198e-16
-1.61036e-10
-3.97948e-11
-1.06866e-16
-1.41474e-10
-3.61743e-11
-9.89852e-17
-1.23648e-10
-3.29076e-11
-9.15711e-17
-1.07408e-10
-2.99369e-11
-8.60117e-17
-9.25987e-11
-2.72623e-11
-8.75477e-17
-7.90798e-11
-2.48557e-11
-8.00497e-17
-6.67181e-11
-2.27048e-11
-6.93166e-17
-5.53864e-11
-2.07948e-11
-6.00386e-17
-4.49796e-11
-1.90869e-11
-5.14585e-17
-3.54133e-11
-1.75404e-11
-4.50704e-17
-2.66442e-11
-1.6078e-11
-3.80927e-17
-1.86971e-11
-1.45734e-11
-3.22472e-17
-1.16995e-11
-1.2826e-11
-2.75808e-17
-5.91883e-12
-1.05727e-11
-2.38567e-17
-1.79343e-12
-7.44775e-12
-2.19668e-17
1.79314e-13
-3.36058e-12
-2.0362e-17
8.30424e-13
-1.89026e-17
-3.29833e-09
-1.34167e-09
-1.32615e-15
-3.01311e-09
-1.17182e-09
-5.95121e-16
-2.74134e-09
-1.02375e-09
-3.15111e-16
-2.48677e-09
-8.93079e-10
-3.19541e-16
-2.2512e-09
-7.79819e-10
-2.58799e-16
-2.03524e-09
-6.81349e-10
-2.53445e-16
-1.83851e-09
-5.96344e-10
-2.0753e-16
-1.6601e-09
-5.22894e-10
-2.05229e-16
-1.49879e-09
-4.59553e-10
-1.60488e-16
-1.35318e-09
-4.04894e-10
-1.30547e-16
-1.22187e-09
-3.57667e-10
-9.57726e-17
-1.10344e-09
-3.16866e-10
-7.85062e-17
-9.96581e-10
-2.81504e-10
-2.87629e-17
-9.00074e-10
-2.50822e-10
-1.01494e-16
-8.12817e-10
-2.24134e-10
-8.66504e-17
-7.33813e-10
-2.00849e-10
-9.84684e-17
-6.62176e-10
-1.80474e-10
-9.5795e-17
-5.97122e-10
-1.6258e-10
-8.52454e-17
-5.37956e-10
-1.4681e-10
-1.02101e-16
-4.84074e-10
-1.3285e-10
-9.09525e-17
-4.34951e-10
-1.20443e-10
-1.0866e-16
-3.90119e-10
-1.09362e-10
-9.8974e-17
-3.49188e-10
-9.9404e-11
-9.76958e-17
-3.11781e-10
-9.0466e-11
-1.01764e-16
-2.77601e-10
-8.23585e-11
-1.04057e-16
-2.46358e-10
-7.50241e-11
-1.03587e-16
-2.17809e-10
-6.83439e-11
-1.03807e-16
-1.9173e-10
-6.22544e-11
-9.61689e-17
-1.67896e-10
-5.67408e-11
-8.9176e-17
-1.46124e-10
-5.17098e-11
-8.4169e-17
-1.2622e-10
-4.71661e-11
-8.64387e-17
-1.08011e-10
-4.30649e-11
-8.0114e-17
-9.13288e-11
-3.9388e-11
-6.91813e-17
-7.6012e-11
-3.61119e-11
-6.016e-17
-6.19285e-11
-3.31711e-11
-5.13612e-17
-4.89722e-11
-3.04973e-11
-4.53113e-17
-3.70898e-11
-2.79608e-11
-3.85144e-17
-2.63161e-11
-2.53476e-11
-3.23845e-17
-1.68147e-11
-2.23278e-11
-2.76617e-17
-8.9244e-12
-1.84634e-11
-2.40446e-17
-3.18263e-12
-1.319e-11
-2.21888e-17
-1.94636e-13
-6.34898e-12
-2.03489e-17
6.35392e-13
-1.89512e-17
-3.25355e-09
-1.53511e-09
-1.19576e-15
-3.04603e-09
-1.37932e-09
-5.84144e-16
-2.83356e-09
-1.23621e-09
-3.08073e-16
-2.62242e-09
-1.10422e-09
-2.89487e-16
-2.41719e-09
-9.85034e-10
-2.12471e-16
-2.22096e-09
-8.77582e-10
-2.0356e-16
-2.03557e-09
-7.81731e-10
-1.6423e-16
-1.86202e-09
-6.96432e-10
-1.66254e-16
-1.70067e-09
-6.20897e-10
-1.25039e-16
-1.55141e-09
-5.54148e-10
-9.96613e-17
-1.41385e-09
-4.95225e-10
-7.02463e-17
-1.28738e-09
-4.43334e-10
-5.70208e-17
-1.17131e-09
-3.97573e-10
-3.39263e-17
-1.06488e-09
-3.57243e-10
-8.86412e-17
-9.67341e-10
-3.21664e-10
-7.18867e-17
-8.77965e-10
-2.90223e-10
-8.52864e-17
-7.96048e-10
-2.62387e-10
-8.27571e-17
-7.20945e-10
-2.37683e-10
-7.13012e-17
-6.52052e-10
-2.157e-10
-8.8471e-17
-5.88831e-10
-1.96067e-10
-7.92931e-17
-5.30797e-10
-1.78475e-10
-9.73014e-17
-4.77506e-10
-1.6265e-10
-8.92121e-17
-4.28582e-10
-1.4833e-10
-8.94982e-17
-3.83645e-10
-1.354e-10
-9.43291e-17
-3.42401e-10
-1.23604e-10
-9.74178e-17
-3.04544e-10
-1.12879e-10
-9.7934e-17
-2.69823e-10
-1.03065e-10
-9.95191e-17
-2.37997e-10
-9.40817e-11
-9.21317e-17
-2.08819e-10
-8.59174e-11
-8.6039e-17
-1.82089e-10
-7.84405e-11
-8.11106e-17
-1.5759e-10
-7.16659e-11
-8.43077e-17
-1.35123e-10
-6.55315e-11
-7.91056e-17
-1.14498e-10
-6.00139e-11
-6.8345e-17
-9.55287e-11
-5.50816e-11
-5.95835e-17
-7.80625e-11
-5.06379e-11
-5.07549e-17
-6.19776e-11
-4.65827e-11
-4.52084e-17
-4.72143e-11
-4.27244e-11
-3.83916e-17
-3.38163e-11
-3.8746e-11
-3.25563e-17
-2.19764e-11
-3.41682e-11
-2.77059e-17
-1.20868e-11
-2.83535e-11
-2.38163e-17
-4.75909e-12
-2.05181e-11
-2.22843e-17
-6.79059e-13
-1.04294e-11
-2.0236e-17
-4.41468e-14
-1.88831e-17
-3.08438e-09
-1.64979e-09
-1.3636e-15
-2.94632e-09
-1.51737e-09
-6.71168e-16
-2.793e-09
-1.38953e-09
-3.1967e-16
-2.6306e-09
-1.26662e-09
-2.54652e-16
-2.46432e-09
-1.15131e-09
-1.57144e-16
-2.29815e-09
-1.04374e-09
-1.46609e-16
-2.13511e-09
-9.44771e-10
-1.13718e-16
-1.97735e-09
-8.54181e-10
-1.21181e-16
-1.82636e-09
-7.71883e-10
-8.66847e-17
-1.68305e-09
-6.97449e-10
-6.63621e-17
-1.54793e-09
-6.30335e-10
-4.37782e-17
-1.42117e-09
-5.70091e-10
-3.50028e-17
-1.30272e-09
-5.16022e-10
-1.76935e-17
-1.19235e-09
-4.67608e-10
-7.48202e-17
-1.08973e-09
-4.24274e-10
-5.7008e-17
-9.94482e-10
-3.85467e-10
-7.08887e-17
-9.06173e-10
-3.50692e-10
-6.93725e-17
-8.24373e-10
-3.19483e-10
-5.82268e-17
-7.48642e-10
-2.91428e-10
-7.48133e-17
-6.78569e-10
-2.66135e-10
-6.78162e-17
-6.13767e-10
-2.43276e-10
-8.55606e-17
-5.53865e-10
-2.22549e-10
-7.94383e-17
-4.98542e-10
-2.03655e-10
-8.08105e-17
-4.47453e-10
-1.86485e-10
-8.64013e-17
-4.00334e-10
-1.70724e-10
-9.02547e-17
-3.56895e-10
-1.56317e-10
-9.1641e-17
-3.16893e-10
-1.43067e-10
-9.4302e-17
-2.80093e-10
-1.30883e-10
-8.7331e-17
-2.46243e-10
-1.19766e-10
-8.19838e-17
-2.15138e-10
-1.09546e-10
-7.74587e-17
-1.8655e-10
-1.00254e-10
-8.13751e-17
-1.6027e-10
-9.1812e-11
-7.72834e-17
-1.3609e-10
-8.41942e-11
-6.6791e-17
-1.1381e-10
-7.73618e-11
-5.82389e-17
-9.3264e-11
-7.11848e-11
-4.97953e-17
-7.43193e-11
-6.55279e-11
-4.48086e-17
-5.69126e-11
-6.01314e-11
-3.78386e-17
-4.10955e-11
-5.45636e-11
-3.21513e-17
-2.70835e-11
-4.81807e-11
-2.74618e-17
-1.53089e-11
-4.01285e-11
-2.34735e-17
-6.43865e-12
-2.93887e-11
-2.19561e-17
-1.23161e-12
-1.56368e-11
-2.01932e-17
-1.2761e-12
-1.86935e-17
-2.84397e-09
-1.69731e-09
-1.29508e-15
-2.76761e-09
-1.59373e-09
-6.35039e-16
-2.66933e-09
-1.4878e-09
-2.97552e-16
-2.55483e-09
-1.38112e-09
-2.26677e-16
-2.42926e-09
-1.27687e-09
-1.22022e-16
-2.29689e-09
-1.17611e-09
-1.1046e-16
-2.16122e-09
-1.08043e-09
-8.13317e-17
-2.02507e-09
-9.90328e-10
-9.10196e-17
-1.89059e-09
-9.06353e-10
-6.10372e-17
-1.75941e-09
-8.28619e-10
-4.37576e-17
-1.63272e-09
-7.57023e-10
-2.60471e-17
-1.51129e-09
-6.91512e-10
-2.00437e-17
-1.39565e-09
-6.31662e-10
-6.4958e-18
-1.28605e-09
-5.772e-10
-8.00239e-17
-1.18259e-09
-5.27723e-10
-4.49882e-17
-1.08525e-09
-4.82804e-10
-5.77926e-17
-9.93898e-10
-4.42043e-10
-5.71216e-17
-9.08348e-10
-4.05033e-10
-4.62326e-17
-8.28366e-10
-3.71406e-10
-6.19801e-17
-7.53707e-10
-3.40788e-10
-5.66612e-17
-6.84118e-10
-3.12864e-10
-7.39978e-17
-6.19333e-10
-2.8733e-10
-6.9602e-17
-5.59119e-10
-2.63872e-10
-7.20722e-17
-5.03195e-10
-2.42405e-10
-7.83053e-17
-4.51349e-10
-2.22571e-10
-8.2631e-17
-4.03328e-10
-2.04336e-10
-8.48401e-17
-3.58919e-10
-1.87476e-10
-8.83827e-17
-3.17908e-10
-1.71896e-10
-8.2213e-17
-2.80051e-10
-1.57621e-10
-7.74966e-17
-2.45154e-10
-1.44444e-10
-7.31134e-17
-2.12987e-10
-1.32421e-10
-7.79819e-17
-1.83339e-10
-1.2146e-10
-7.4795e-17
-1.55999e-10
-1.11535e-10
-6.47813e-17
-1.30756e-10
-1.02605e-10
-5.65702e-17
-1.07437e-10
-9.45039e-11
-4.84352e-17
-8.59054e-11
-8.70602e-11
-4.41285e-17
-6.60957e-11
-7.99414e-11
-3.73085e-17
-4.80665e-11
-7.25932e-11
-3.16008e-17
-3.20506e-11
-6.41969e-11
-2.70017e-17
-1.85099e-11
-5.36697e-11
-2.31187e-17
-8.15443e-12
-3.97446e-11
-2.19115e-17
-1.81409e-12
-2.19775e-11
-2.00722e-17
-3.09059e-12
-1.8473e-17
-2.58761e-09
-1.69907e-09
-1.38048e-15
-2.55725e-09
-1.62409e-09
-6.79145e-16
-2.50322e-09
-1.54183e-09
-3.18383e-16
-2.42986e-09
-1.45447e-09
-2.23332e-16
-2.34146e-09
-1.36526e-09
-1.07675e-16
-2.24183e-09
-1.27574e-09
-9.43154e-17
-2.13433e-09
-1.18792e-09
-6.36356e-17
-2.02185e-09
-1.10279e-09
-7.14257e-17
-1.90683e-09
-1.02136e-09
-4.4691e-17
-1.79125e-09
-9.44196e-10
-2.64145e-17
-1.67669e-09
-8.71574e-10
-1.22969e-17
-1.56438e-09
-8.03821e-10
-8.51184e-18
-1.45524e-09
-7.40796e-10
1.98463e-18
-1.34994e-09
-6.8249e-10
-7.51621e-17
-1.24895e-09
-6.28709e-10
-3.46648e-17
-1.15256e-09
-5.79191e-10
-4.64712e-17
-1.06093e-09
-5.33666e-10
-4.61199e-17
-9.74134e-10
-4.91829e-10
-3.5612e-17
-8.92148e-10
-4.53388e-10
-5.03843e-17
-8.14908e-10
-4.18022e-10
-4.65524e-17
-7.42314e-10
-3.85456e-10
-6.28785e-17
-6.74226e-10
-3.55414e-10
-6.01182e-17
-6.10517e-10
-3.27583e-10
-6.32747e-17
-5.5099e-10
-3.01929e-10
-7.00465e-17
-4.95502e-10
-2.78059e-10
-7.47423e-17
-4.43855e-10
-2.55981e-10
-7.76785e-17
-3.95881e-10
-2.35451e-10
-8.17786e-17
-3.51398e-10
-2.16381e-10
-7.66361e-17
-3.10185e-10
-1.98832e-10
-7.24227e-17
-2.72068e-10
-1.82563e-10
-6.87711e-17
-2.36826e-10
-1.67663e-10
-7.38228e-17
-2.04256e-10
-1.5403e-10
-7.17873e-17
-1.74147e-10
-1.41645e-10
-6.22679e-17
-1.46289e-10
-1.30464e-10
-5.44879e-17
-1.20507e-10
-1.20287e-10
-4.66395e-17
-9.66616e-11
-1.10906e-10
-4.30831e-17
-7.46899e-11
-1.01913e-10
-3.62869e-17
-5.46564e-11
-9.26272e-11
-3.07929e-17
-3.68067e-11
-8.2047e-11
-2.62486e-17
-2.16241e-11
-6.88527e-11
-2.25006e-17
-9.85401e-12
-5.15152e-11
-2.15637e-17
-2.3999e-12
-2.9432e-11
-1.96558e-17
-5.49089e-12
-1.81959e-17
-2.32402e-09
-1.66454e-09
-1.16977e-15
-2.33094e-09
-1.61717e-09
-5.55882e-16
-2.3137e-09
-1.55906e-09
-2.55981e-16
-2.27562e-09
-1.49254e-09
-1.83971e-16
-2.22018e-09
-1.42068e-09
-7.5924e-17
-2.15065e-09
-1.34527e-09
-6.60837e-17
-2.07009e-09
-1.26848e-09
-3.97061e-17
-1.98123e-09
-1.19164e-09
-5.04304e-17
-1.88653e-09
-1.11606e-09
-2.98076e-17
-1.78807e-09
-1.04264e-09
-1.41052e-17
-1.68766e-09
-9.71983e-10
-4.10612e-18
-1.58675e-09
-9.04722e-10
-2.28685e-18
-1.48657e-09
-8.40976e-10
5.9698e-18
-1.38805e-09
-7.80993e-10
-5.80691e-17
-1.29196e-09
-7.2479e-10
-2.72259e-17
-1.19887e-09
-6.7228e-10
-3.76089e-17
-1.10919e-09
-6.23348e-10
-3.6825e-17
-1.0232e-09
-5.77811e-10
-2.66414e-17
-9.41107e-10
-5.3548e-10
-3.97025e-17
-8.63013e-10
-4.96109e-10
-3.72073e-17
-7.8898e-10
-4.59489e-10
-5.26163e-17
-7.18999e-10
-4.2539e-10
-5.10144e-17
-6.53061e-10
-3.93524e-10
-5.48246e-17
-5.91061e-10
-3.63924e-10
-6.17433e-17
-5.32941e-10
-3.36181e-10
-6.66669e-17
-4.78566e-10
-3.10353e-10
-7.01792e-17
-4.27824e-10
-2.86193e-10
-7.48548e-17
-3.80576e-10
-2.63631e-10
-7.06301e-17
-3.36635e-10
-2.4277e-10
-6.71945e-17
-2.95854e-10
-2.23346e-10
-6.35872e-17
-2.58029e-10
-2.05486e-10
-6.94143e-17
-2.22973e-10
-1.89086e-10
-6.81933e-17
-1.90484e-10
-1.74135e-10
-5.93289e-17
-1.60355e-10
-1.60593e-10
-5.1974e-17
-1.32416e-10
-1.48226e-10
-4.4448e-17
-1.06531e-10
-1.36792e-10
-4.16458e-17
-8.26372e-11
-1.25807e-10
-3.52531e-17
-6.08065e-11
-1.14458e-10
-2.99478e-17
-4.1294e-11
-1.0156e-10
-2.56559e-17
-2.45988e-11
-8.55483e-11
-2.19067e-17
-1.1497e-11
-6.46173e-11
-2.11769e-17
-2.97005e-12
-3.79592e-11
-1.90564e-17
-8.46132e-12
-1.79347e-17
-2.07627e-09
-1.27791e-15
-2.10887e-09
-6.7507e-16
-2.11898e-09
-1.54895e-09
-3.57133e-16
-2.10874e-09
-1.50278e-09
-2.52442e-16
-2.08064e-09
-1.44877e-09
-1.27379e-16
-2.03719e-09
-1.38871e-09
-1.02689e-16
-1.9809e-09
-1.32477e-09
-6.09862e-17
-1.91415e-09
-1.25837e-09
-5.93972e-17
-1.83919e-09
-1.19101e-09
-3.48884e-17
-1.75804e-09
-1.12379e-09
-1.37382e-17
-1.67251e-09
-1.05751e-09
-3.33635e-18
-1.58417e-09
-9.93058e-10
-9.04969e-19
-1.49438e-09
-9.30765e-10
6.44113e-18
-1.40427e-09
-8.71096e-10
-4.49878e-17
-1.31479e-09
-8.14261e-10
-2.20383e-17
-1.22672e-09
-7.60347e-10
-3.06803e-17
-1.14067e-09
-7.09392e-10
-2.92045e-17
-1.05714e-09
-6.61345e-10
-1.90027e-17
-9.76482e-10
-6.16132e-10
-3.07125e-17
-8.98985e-10
-5.73599e-10
-2.88367e-17
-8.24854e-10
-5.33619e-10
-4.29119e-17
-7.54214e-10
-4.96025e-10
-4.25114e-17
-6.87171e-10
-4.60571e-10
-4.63611e-17
-6.23721e-10
-4.27371e-10
-5.34003e-17
-5.6389e-10
-3.96012e-10
-5.85972e-17
-5.07619e-10
-3.66623e-10
-6.26563e-17
-4.54854e-10
-3.38958e-10
-6.75981e-17
-4.05509e-10
-3.12978e-10
-6.43203e-17
-3.59437e-10
-2.88841e-10
-6.17193e-17
-3.16523e-10
-2.66261e-10
-5.8502e-17
-2.76592e-10
-2.45417e-10
-6.43564e-17
-2.39475e-10
-2.26203e-10
-6.43544e-17
-2.04984e-10
-2.08627e-10
-5.58938e-17
-1.72922e-10
-1.92655e-10
-4.91501e-17
-1.43128e-10
-1.7802e-10
-4.20682e-17
-1.15471e-10
-1.6445e-10
-3.99914e-17
-8.98932e-11
-1.51385e-10
-3.37329e-17
-6.6471e-11
-1.37881e-10
-2.88714e-17
-4.54672e-11
-1.22564e-10
-2.46872e-17
-2.7393e-11
-1.03623e-10
-2.10626e-17
-1.30531e-11
-7.89577e-11
-2.06562e-17
-3.51112e-12
-4.75015e-11
-1.85378e-17
-1.19728e-11
-1.73604e-17
-1.92519e-09
-1.51739e-09
-2.0338e-16
-1.93738e-09
-1.49058e-09
-1.69832e-16
-1.93193e-09
-1.45422e-09
-9.25132e-17
-1.91071e-09
-1.40992e-09
-8.40199e-17
-1.87574e-09
-1.35974e-09
-4.75137e-17
-1.82899e-09
-1.3051e-09
-4.79363e-17
-1.77244e-09
-1.24756e-09
-2.95327e-17
-1.70791e-09
-1.1883e-09
-1.07442e-17
-1.63715e-09
-1.12826e-09
-3.04524e-18
-1.56171e-09
-1.0685e-09
-1.74361e-18
-1.48298e-09
-1.00949e-09
4.56203e-18
-1.40219e-09
-9.51876e-10
-3.75198e-17
-1.32041e-09
-8.96033e-10
-1.91429e-17
-1.23855e-09
-8.42198e-10
-2.57648e-17
-1.15739e-09
-7.90554e-10
-2.31089e-17
-1.07756e-09
-7.41178e-10
-1.30587e-17
-9.9957e-10
-6.94115e-10
-2.27937e-17
-9.23855e-10
-6.49308e-10
-2.15193e-17
-8.50751e-10
-6.06721e-10
-3.39424e-17
-7.80508e-10
-5.66263e-10
-3.43616e-17
-7.13342e-10
-5.2774e-10
-3.82512e-17
-6.49346e-10
-4.91362e-10
-4.53657e-17
-5.88637e-10
-4.56723e-10
-5.05056e-17
-5.31225e-10
-4.24032e-10
-5.49477e-17
-4.77125e-10
-3.93058e-10
-6.00941e-17
-4.26306e-10
-3.63799e-10
-5.76877e-17
-3.78664e-10
-3.3648e-10
-5.57592e-17
-3.34124e-10
-3.10802e-10
-5.29773e-17
-2.92541e-10
-2.86999e-10
-5.92847e-17
-2.53769e-10
-2.64975e-10
-6.01338e-17
-2.17642e-10
-2.44756e-10
-5.22767e-17
-1.83976e-10
-2.26321e-10
-4.63237e-17
-1.52623e-10
-2.09375e-10
-3.94691e-17
-1.23456e-10
-1.93616e-10
-3.794e-17
-9.64272e-11
-1.78414e-10
-3.22528e-17
-7.16165e-11
-1.62692e-10
-2.78382e-17
-4.92923e-11
-1.44889e-10
-2.37176e-17
-2.99761e-11
-1.2294e-10
-2.01447e-17
-1.45001e-11
-9.44341e-11
-2.00181e-17
-4.01395e-12
-5.79879e-11
-1.8088e-17
-1.59871e-11
-1.67337e-17
-1.74012e-09
-1.47089e-09
-3.84509e-16
-1.76905e-09
-1.46164e-09
-2.90486e-16
-1.7814e-09
-1.44186e-09
-1.7977e-16
-1.77841e-09
-1.4129e-09
-1.43221e-16
-1.76152e-09
-1.37662e-09
-8.49293e-17
-1.73229e-09
-1.33433e-09
-6.93606e-17
-1.69233e-09
-1.28751e-09
-4.46594e-17
-1.64322e-09
-1.23739e-09
-2.02119e-17
-1.58654e-09
-1.18494e-09
-9.9215e-18
-1.52373e-09
-1.1313e-09
-6.73616e-18
-1.45617e-09
-1.07705e-09
-2.88039e-19
-1.38508e-09
-1.02295e-09
-3.61436e-17
-1.3116e-09
-9.6951e-10
-1.79633e-17
-1.23671e-09
-9.17084e-10
-2.21136e-17
-1.16128e-09
-8.65982e-10
-1.83573e-17
-1.08606e-09
-8.16398e-10
-8.1891e-18
-1.01168e-09
-7.68489e-10
-1.62457e-17
-9.38684e-10
-7.22295e-10
-1.50678e-17
-8.67528e-10
-6.77875e-10
-2.61218e-17
-7.98566e-10
-6.35219e-10
-2.67804e-17
-7.32118e-10
-5.94193e-10
-3.04677e-17
-6.68367e-10
-5.55108e-10
-3.73872e-17
-6.07514e-10
-5.17578e-10
-4.24507e-17
-5.49644e-10
-4.81899e-10
-4.71985e-17
-4.94835e-10
-4.47866e-10
-5.23746e-17
-4.43114e-10
-4.15523e-10
-5.07752e-17
-3.94424e-10
-3.85168e-10
-4.94489e-17
-3.48732e-10
-3.56495e-10
-4.74084e-17
-3.05926e-10
-3.29805e-10
-5.35069e-17
-2.65889e-10
-3.05011e-10
-5.54336e-17
-2.28477e-10
-2.82169e-10
-4.82379e-17
-1.93524e-10
-2.61274e-10
-4.30026e-17
-1.60894e-10
-2.42005e-10
-3.65417e-17
-1.30474e-10
-2.24037e-10
-3.5754e-17
-1.02221e-10
-2.06667e-10
-3.04143e-17
-7.62204e-11
-1.88693e-10
-2.63287e-17
-5.27456e-11
-1.68364e-10
-2.25193e-17
-3.23264e-11
-1.43359e-10
-1.90162e-17
-1.58228e-11
-1.10938e-10
-1.91408e-17
-4.47263e-12
-6.93384e-11
-1.75396e-17
-2.04601e-11
-1.61996e-17
-1.56501e-09
-1.41348e-09
-2.64563e-16
-1.60668e-09
-1.41996e-09
-1.81941e-16
-1.63306e-09
-1.41547e-09
-1.09501e-16
-1.64487e-09
-1.40108e-09
-9.7483e-17
-1.6431e-09
-1.37838e-09
-5.5774e-17
-1.62891e-09
-1.34851e-09
-5.0176e-17
-1.60356e-09
-1.31285e-09
-3.65068e-17
-1.56839e-09
-1.27255e-09
-1.83765e-17
-1.52474e-09
-1.22858e-09
-1.19035e-17
-1.47393e-09
-1.18211e-09
-1.0337e-17
-1.41723e-09
-1.13374e-09
-5.10296e-18
-1.35583e-09
-1.08434e-09
-3.7468e-17
-1.29086e-09
-1.03448e-09
-1.81973e-17
-1.22333e-09
-9.84611e-10
-1.98882e-17
-1.15416e-09
-9.35148e-10
-1.46199e-17
-1.08417e-09
-8.86382e-10
-4.61493e-18
-1.01409e-09
-8.3857e-10
-1.06144e-17
-9.44535e-10
-7.91844e-10
-9.56065e-18
-8.76055e-10
-7.46353e-10
-1.86238e-17
-8.091e-10
-7.02169e-10
-1.97017e-17
-7.44074e-10
-6.59222e-10
-2.30647e-17
-6.81246e-10
-6.17931e-10
-2.95441e-17
-6.20892e-10
-5.77934e-10
-3.45703e-17
-5.63167e-10
-5.39621e-10
-3.93203e-17
-5.08214e-10
-5.02819e-10
-4.44961e-17
-4.56112e-10
-4.67627e-10
-4.37342e-17
-4.06855e-10
-4.34423e-10
-4.31796e-17
-3.60451e-10
-4.029e-10
-4.14836e-17
-3.16824e-10
-3.73431e-10
-4.79313e-17
-2.75888e-10
-3.45947e-10
-5.04718e-17
-2.37524e-10
-3.20535e-10
-4.42186e-17
-2.01585e-10
-2.97212e-10
-3.93936e-17
-1.67952e-10
-2.75638e-10
-3.36388e-17
-1.36525e-10
-2.55464e-10
-3.35092e-17
-1.07267e-10
-2.35925e-10
-2.86731e-17
-8.02708e-11
-2.15689e-10
-2.49165e-17
-5.58125e-11
-1.92822e-10
-2.13149e-17
-3.443e-11
-1.64742e-10
-1.81624e-17
-1.70116e-11
-1.28357e-10
-1.83888e-17
-4.88378e-12
-8.14665e-11
-1.66402e-17
-2.53442e-11
-1.53051e-17
-1.40289e-09
-1.34931e-09
-4.26563e-16
-1.4534e-09
-1.36944e-09
-2.92101e-16
-1.49021e-09
-1.37865e-09
-1.9471e-16
-1.5136e-09
-1.37769e-09
-1.57157e-16
-1.52412e-09
-1.36785e-09
-9.71945e-17
-1.52254e-09
-1.35008e-09
-7.64799e-17
-1.50981e-09
-1.32558e-09
-5.50212e-17
-1.48695e-09
-1.29539e-09
-3.22942e-17
-1.4551e-09
-1.26042e-09
-2.22482e-17
-1.4154e-09
-1.2218e-09
-1.81102e-17
-1.36899e-09
-1.18015e-09
-1.21934e-17
-1.31697e-09
-1.13635e-09
-4.37496e-17
-1.26043e-09
-1.09101e-09
-1.95139e-17
-1.20037e-09
-1.04466e-09
-1.82601e-17
-1.13773e-09
-9.97786e-10
-1.18309e-17
-1.07336e-09
-9.50748e-10
-2.01531e-18
-1.00804e-09
-9.03892e-10
-5.91091e-18
-9.42444e-10
-8.5743e-10
-4.58377e-18
-8.77201e-10
-8.11594e-10
-1.19015e-17
-8.12828e-10
-7.66537e-10
-1.30284e-17
-7.49804e-10
-7.2225e-10
-1.59322e-17
-6.88469e-10
-6.79261e-10
-2.19835e-17
-6.29166e-10
-6.37238e-10
-2.66487e-17
-5.72116e-10
-5.96669e-10
-3.14453e-17
-5.17517e-10
-5.57418e-10
-3.65451e-17
-4.65504e-10
-5.19642e-10
-3.64503e-17
-4.16116e-10
-4.83807e-10
-3.65201e-17
-3.69406e-10
-4.49612e-10
-3.54773e-17
-3.25331e-10
-4.17505e-10
-4.20846e-17
-2.83838e-10
-3.87439e-10
-4.55418e-17
-2.44834e-10
-3.5954e-10
-3.98444e-17
-2.08195e-10
-3.33851e-10
-3.56287e-17
-1.7382e-10
-3.10014e-10
-3.06229e-17
-1.4162e-10
-2.87665e-10
-3.11825e-17
-1.11569e-10
-2.65976e-10
-2.65467e-17
-8.37647e-11
-2.43494e-10
-2.32225e-17
-5.84863e-11
-2.18101e-10
-1.99947e-17
-3.62799e-11
-1.86949e-10
-1.71049e-17
-1.80618e-11
-1.46575e-10
-1.7473e-17
-5.24602e-12
-9.42825e-11
-1.59283e-17
-3.05905e-11
-1.46499e-17
-1.25328e-09
-1.28096e-09
-2.86494e-16
-1.30989e-09
-1.31282e-09
-2.18316e-16
-1.35439e-09
-1.33414e-09
-1.6087e-16
-1.38671e-09
-1.34536e-09
-1.39806e-16
-1.40706e-09
-1.34749e-09
-8.88468e-17
-1.41588e-09
-1.34124e-09
-7.18461e-17
-1.41383e-09
-1.32762e-09
-5.49373e-17
-1.40167e-09
-1.30754e-09
-3.56951e-17
-1.3803e-09
-1.28178e-09
-2.6752e-17
-1.35068e-09
-1.25142e-09
-2.30123e-17
-1.3138e-09
-1.21703e-09
-1.78423e-17
-1.27066e-09
-1.17947e-09
-4.98664e-17
-1.22227e-09
-1.1394e-09
-2.09276e-17
-1.16959e-09
-1.09734e-09
-1.73655e-17
-1.11353e-09
-1.05384e-09
-9.6957e-18
-1.05496e-09
-1.00931e-09
2.04324e-19
-9.94678e-10
-9.64173e-10
-1.77548e-18
-9.33406e-10
-9.18695e-10
-2.78142e-19
-8.71811e-10
-8.73189e-10
-5.7677e-18
-8.10465e-10
-8.27877e-10
-6.72871e-18
-7.49906e-10
-7.82813e-10
-8.91495e-18
-6.90533e-10
-7.38629e-10
-1.43693e-17
-6.32749e-10
-6.95024e-10
-1.87265e-17
-5.76827e-10
-6.52588e-10
-2.3586e-17
-5.23021e-10
-6.11224e-10
-2.85607e-17
-4.71513e-10
-5.71152e-10
-2.94702e-17
-4.22389e-10
-5.32929e-10
-3.0008e-17
-3.75739e-10
-4.96263e-10
-2.93744e-17
-3.3156e-10
-4.61684e-10
-3.6145e-17
-2.89827e-10
-4.29172e-10
-4.01836e-17
-2.50475e-10
-3.98892e-10
-3.54697e-17
-2.13405e-10
-3.70921e-10
-3.20107e-17
-1.78532e-10
-3.44887e-10
-2.74816e-17
-1.45782e-10
-3.20415e-10
-2.88133e-17
-1.1514e-10
-2.96618e-10
-2.46236e-17
-8.67076e-11
-2.71927e-10
-2.14891e-17
-6.07681e-11
-2.44041e-10
-1.88125e-17
-3.78748e-11
-2.09843e-10
-1.60865e-17
-1.89722e-11
-1.65478e-10
-1.67253e-17
-5.55949e-12
-1.07695e-10
-1.52154e-17
-3.61503e-11
-1.39364e-17
-1.11703e-09
-1.21096e-09
-3.68258e-16
-1.1772e-09
-1.25264e-09
-2.85621e-16
-1.2269e-09
-1.28443e-09
-2.20111e-16
-1.26577e-09
-1.30649e-09
-1.84358e-16
-1.29373e-09
-1.31953e-09
-1.22937e-16
-1.31093e-09
-1.32403e-09
-9.51295e-17
-1.31775e-09
-1.3208e-09
-7.10751e-17
-1.31471e-09
-1.31057e-09
-4.91484e-17
-1.3025e-09
-1.29399e-09
-3.65431e-17
-1.28187e-09
-1.27204e-09
-3.04969e-17
-1.25367e-09
-1.24522e-09
-2.44377e-17
-1.21878e-09
-1.21436e-09
-5.72942e-17
-1.1781e-09
-1.18007e-09
-2.25673e-17
-1.13253e-09
-1.14291e-09
-1.66455e-17
-1.08295e-09
-1.10342e-09
-7.91221e-18
-1.03021e-09
-1.06206e-09
1.70123e-18
-9.75102e-10
-1.01928e-09
1.74562e-18
-9.18366e-10
-9.75425e-10
3.73437e-18
-8.60697e-10
-9.30856e-10
1.49637e-20
-8.02706e-10
-8.85863e-10
-6.62662e-19
-7.44971e-10
-8.40551e-10
-2.11279e-18
-6.87939e-10
-7.95656e-10
-6.94695e-18
-6.32058e-10
-7.50907e-10
-1.10307e-17
-5.77651e-10
-7.06993e-10
-1.57869e-17
-5.25015e-10
-6.63858e-10
-2.04452e-17
-4.74379e-10
-6.2179e-10
-2.2155e-17
-4.25868e-10
-5.81438e-10
-2.32008e-17
-3.7961e-10
-5.42521e-10
-2.33976e-17
-3.35637e-10
-5.05657e-10
-2.99163e-17
-2.93955e-10
-4.70853e-10
-3.48513e-17
-2.54526e-10
-4.38322e-10
-3.09853e-17
-2.17273e-10
-4.08174e-10
-2.81647e-17
-1.82132e-10
-3.80029e-10
-2.42932e-17
-1.49043e-10
-3.53503e-10
-2.59403e-17
-1.18001e-10
-3.2766e-10
-2.24956e-17
-8.91124e-11
-3.00816e-10
-1.96889e-17
-6.26648e-11
-2.70489e-10
-1.72623e-17
-3.92184e-11
-2.33289e-10
-1.4922e-17
-1.97453e-11
-1.84952e-10
-1.58201e-17
-5.8256e-12
-1.21615e-10
-1.4295e-17
-4.19761e-11
-1.29505e-17
-9.93122e-10
-1.1409e-09
-3.27314e-16
-1.05508e-09
-1.19069e-09
-2.49308e-16
-1.10809e-09
-1.23142e-09
-1.94658e-16
-1.15159e-09
-1.26299e-09
-1.6682e-16
-1.18527e-09
-1.28584e-09
-1.12182e-16
-1.20907e-09
-1.30023e-09
-8.85108e-17
-1.22312e-09
-1.30674e-09
-6.82442e-17
-1.22773e-09
-1.30595e-09
-5.03418e-17
-1.22338e-09
-1.29833e-09
-3.89549e-17
-1.21066e-09
-1.28476e-09
-3.35831e-17
-1.19025e-09
-1.26563e-09
-2.81072e-17
-1.16289e-09
-1.24171e-09
-5.64624e-17
-1.12939e-09
-1.21356e-09
-2.34673e-17
-1.09057e-09
-1.18172e-09
-1.58386e-17
-1.04725e-09
-1.14673e-09
-6.24042e-18
-1.00024e-09
-1.10907e-09
3.19466e-18
-9.50306e-10
-1.06921e-09
5.13075e-18
-8.98205e-10
-1.02752e-09
7.59542e-18
-8.44633e-10
-9.84427e-10
5.45258e-18
-7.90223e-10
-9.40268e-10
5.30393e-18
-7.35578e-10
-8.95199e-10
4.36266e-18
-6.81181e-10
-8.50048e-10
3.32276e-19
-6.27515e-10
-8.04574e-10
-3.1618e-18
-5.74943e-10
-7.59562e-10
-7.85793e-18
-5.238e-10
-7.15001e-10
-1.25921e-17
-4.74351e-10
-6.71241e-10
-1.47299e-17
-4.2676e-10
-6.29026e-10
-1.66002e-17
-3.8119e-10
-5.88093e-10
-1.70425e-17
-3.37702e-10
-5.49144e-10
-2.37262e-17
-2.96334e-10
-5.1222e-10
-2.94914e-17
-2.57075e-10
-4.77582e-10
-2.63938e-17
-2.1987e-10
-4.4538e-10
-2.44429e-17
-1.84673e-10
-4.15225e-10
-2.09866e-17
-1.51442e-10
-3.86735e-10
-2.34929e-17
-1.20179e-10
-3.58923e-10
-2.02853e-17
-9.09984e-11
-3.29997e-10
-1.80178e-17
-6.41891e-11
-2.97298e-10
-1.59666e-17
-4.03189e-11
-2.5716e-10
-1.37164e-17
-2.0386e-11
-2.04885e-10
-1.48393e-17
-6.04675e-12
-1.35955e-10
-1.36639e-17
-4.80231e-11
-1.219e-17
-8.8143e-10
-1.07224e-09
-3.40493e-16
-9.43576e-10
-1.12854e-09
-2.6597e-16
-9.98244e-10
-1.17674e-09
-2.12309e-16
-1.04471e-09
-1.21652e-09
-1.79918e-16
-1.08248e-09
-1.24806e-09
-1.24146e-16
-1.11129e-09
-1.27141e-09
-9.80209e-17
-1.13109e-09
-1.28694e-09
-7.49187e-17
-1.14199e-09
-1.29503e-09
-5.81027e-17
-1.1443e-09
-1.29602e-09
-4.47573e-17
-1.13841e-09
-1.29064e-09
-3.82203e-17
-1.12488e-09
-1.27916e-09
-3.1582e-17
-1.10432e-09
-1.26226e-09
-4.94873e-17
-1.07741e-09
-1.24046e-09
-2.35623e-17
-1.04489e-09
-1.21424e-09
-1.48046e-17
-1.00752e-09
-1.18411e-09
-4.39648e-18
-9.6604e-10
-1.15054e-09
4.76835e-18
-9.21207e-10
-1.11404e-09
8.33545e-18
-8.73744e-10
-1.07498e-09
1.12838e-17
-8.24347e-10
-1.03382e-09
1.09309e-17
-7.73655e-10
-9.90955e-10
1.1189e-17
-7.22286e-10
-9.46572e-10
1.10198e-17
-6.70745e-10
-9.01585e-10
7.63186e-18
-6.19539e-10
-8.55781e-10
4.49705e-18
-5.69062e-10
-8.10037e-10
-5.798e-20
-5.19679e-10
-7.64383e-10
-4.55e-18
-4.71687e-10
-7.19234e-10
-7.46969e-18
-4.25282e-10
-6.75428e-10
-9.75597e-18
-3.80657e-10
-6.32719e-10
-1.08459e-17
-3.37905e-10
-5.91896e-10
-1.76352e-17
-2.97088e-10
-5.53036e-10
-2.40152e-17
-2.58222e-10
-5.16449e-10
-2.19323e-17
-2.21274e-10
-4.82327e-10
-2.03938e-17
-1.86219e-10
-4.50281e-10
-1.77423e-17
-1.53026e-10
-4.19928e-10
-2.04835e-17
-1.2171e-10
-3.90239e-10
-1.80628e-17
-9.23906e-11
-3.59317e-10
-1.61348e-17
-6.53585e-11
-3.24331e-10
-1.43978e-17
-4.1188e-11
-2.8133e-10
-1.25822e-17
-2.09016e-11
-2.25172e-10
-1.39716e-17
-6.22611e-12
-1.5063e-10
-1.2702e-17
-5.42494e-11
-1.14816e-17
-7.8083e-10
-1.00586e-09
-3.00207e-16
-8.42078e-10
-1.06729e-09