/*--------------------------------*- C++ -*----------------------------------*\
| =========                 |                                                 |
| \\      /  F ield         | OpenFOAM: The Open Source CFD Toolbox           |
|  \\    /   O peration     | Version:  v2012                                 |
|   \\  /    A nd           | Website:  www.openfoam.com                      |
|    \\/     M anipulation  |                                                 |
\*---------------------------------------------------------------------------*/
FoamFile
{
    version     2.0;
    format      ascii;
    class       volVectorField;
    location    "0.15";
    object      U;
}
// * * * * * * * * * * * * * * * * * * * * * * * * * * * * * * * * * * * * * //

dimensions      [0 1 -1 0 0 0 0];


internalField   nonuniform List<vector> 
3320
(
(-0.0891453 -0.0051119 0.000778018)
(-0.0680892 -0.00312761 0.000594265)
(-0.0523121 -0.00193511 0.000456593)
(-0.0409751 -0.00124703 0.000357651)
(-0.032397 -0.000820708 0.000282787)
(-0.0259343 -0.000561201 0.000226381)
(-0.0209416 -0.00039304 0.000182803)
(-0.0170575 -0.000283395 0.0001489)
(-0.0139921 -0.000208566 0.000122142)
(-0.0115516 -0.000156639 0.000100839)
(-0.00958957 -0.000119516 8.37122e-05)
(-0.00799965 -9.25173e-05 6.98333e-05)
(-0.00670144 -7.24964e-05 5.85009e-05)
(-0.00563431 -5.7434e-05 4.91854e-05)
(-0.00475166 -4.59413e-05 4.14803e-05)
(-0.00401748 -3.70671e-05 3.50713e-05)
(-0.00340367 -3.01375e-05 2.9713e-05)
(-0.00288812 -2.46713e-05 2.52125e-05)
(-0.0024533 -2.0318e-05 2.14167e-05)
(-0.00208521 -1.68206e-05 1.82035e-05)
(-0.00177261 -1.39879e-05 1.54747e-05)
(-0.00150642 -1.16758e-05 1.31509e-05)
(-0.00127925 -9.77639e-06 1.11678e-05)
(-0.00108501 -8.2056e-06 9.47214e-06)
(-0.000918701 -6.9005e-06 8.02029e-06)
(-0.000776157 -5.8108e-06 6.77592e-06)
(-0.000653903 -4.89823e-06 5.70867e-06)
(-0.000549024 -4.13247e-06 4.7931e-06)
(-0.000459015 -3.48887e-06 4.00735e-06)
(-0.000381759 -2.94852e-06 3.33292e-06)
(-0.000315436 -2.49524e-06 2.75393e-06)
(-0.000258473 -2.11606e-06 2.25665e-06)
(-0.00020951 -1.79979e-06 1.82921e-06)
(-0.000167367 -1.53678e-06 1.46131e-06)
(-0.000131044 -1.3178e-06 1.14422e-06)
(-9.97045e-05 -1.1344e-06 8.70623e-07)
(-7.26957e-05 -9.75436e-07 6.34832e-07)
(-4.95548e-05 -8.32585e-07 4.328e-07)
(-3.01272e-05 -6.84429e-07 2.63169e-07)
(-1.44848e-05 -5.27662e-07 1.26561e-07)
(-3.34844e-06 -3.06667e-07 2.92598e-08)
(2.67763e-06 -7.34436e-08 -2.34867e-08)
(2.08275e-06 3.64864e-07 -1.88717e-08)
(-0.190672 -0.0358841 0.00166461)
(-0.152533 -0.0250822 0.00133163)
(-0.122208 -0.017842 0.0010669)
(-0.0988032 -0.0128555 0.000862569)
(-0.0802613 -0.00940063 0.000700697)
(-0.065647 -0.00696636 0.000573111)
(-0.0539787 -0.00522809 0.000471245)
(-0.0446315 -0.00396956 0.000389641)
(-0.0370811 -0.0030461 0.000323724)
(-0.0309483 -0.00236039 0.000270184)
(-0.0259344 -0.0018454 0.000226412)
(-0.0218121 -0.00145468 0.000190423)
(-0.0184038 -0.00115542 0.000160669)
(-0.0155715 -0.00092422 0.000135942)
(-0.0132062 -0.000744129 0.000115293)
(-0.0112221 -0.000602773 9.79712e-05)
(-0.00955077 -0.000491008 8.33803e-05)
(-0.00813755 -0.000402025 7.10428e-05)
(-0.00693843 -0.000330703 6.05744e-05)
(-0.00591785 -0.000273172 5.16646e-05)
(-0.00504687 -0.000226481 4.40609e-05)
(-0.00430187 -0.000188368 3.75569e-05)
(-0.00366347 -0.000157094 3.19836e-05)
(-0.00311555 -0.000131303 2.72002e-05)
(-0.00264476 -0.000109943 2.30901e-05)
(-0.00223993 -9.21867e-05 1.95559e-05)
(-0.00189164 -7.7385e-05 1.65153e-05)
(-0.00159198 -6.50234e-05 1.38992e-05)
(-0.0013341 -5.46858e-05 1.16478e-05)
(-0.00111217 -4.60414e-05 9.71026e-06)
(-0.000921171 -3.88184e-05 8.04282e-06)
(-0.000756751 -3.27928e-05 6.60737e-06)
(-0.000615131 -2.77753e-05 5.37098e-06)
(-0.00049302 -2.36008e-05 4.30492e-06)
(-0.000387625 -2.01199e-05 3.38479e-06)
(-0.000296611 -1.71901e-05 2.5902e-06)
(-0.000218143 -1.46604e-05 1.90514e-06)
(-0.000150929 -1.23739e-05 1.31831e-06)
(-9.44826e-05 -1.0128e-05 8.25466e-07)
(-4.89727e-05 -7.73627e-06 4.28059e-07)
(-1.61126e-05 -4.91555e-06 1.41013e-07)
(2.59501e-06 -1.75626e-06 -2.2568e-08)
(3.98188e-06 1.22931e-06 -3.60924e-08)
(-0.237432 -0.0681603 0.00207275)
(-0.196537 -0.0506029 0.00171574)
(-0.162397 -0.0379064 0.00141772)
(-0.134692 -0.0285481 0.00117585)
(-0.111889 -0.0216727 0.000976788)
(-0.0932637 -0.0165702 0.000814195)
(-0.0779536 -0.0127661 0.000680539)
(-0.0653668 -0.00990723 0.000570657)
(-0.0549737 -0.00774382 0.000479925)
(-0.0463681 -0.00609447 0.000404798)
(-0.0392149 -0.00482812 0.00034235)
(-0.0332477 -0.00384901 0.000290257)
(-0.0282513 -0.0030869 0.000246639)
(-0.0240528 -0.00248985 0.000209985)
(-0.0205122 -0.00201915 0.000179075)
(-0.0175164 -0.00164579 0.000152921)
(-0.0149734 -0.00134788 0.000130721)
(-0.0128085 -0.00110878 0.000111821)
(-0.0109603 -0.000915788 9.56867e-05)
(-0.00937877 -0.000759153 8.18795e-05)
(-0.00802243 -0.000631343 7.00385e-05)
(-0.00685711 -0.000526521 5.98652e-05)
(-0.00585454 -0.000440152 5.11127e-05)
(-0.00499091 -0.000368668 4.35731e-05)
(-0.00424636 -0.000309277 3.7073e-05)
(-0.00360413 -0.000259771 3.14663e-05)
(-0.00305002 -0.0002184 2.66287e-05)
(-0.00257199 -0.000183773 2.24555e-05)
(-0.00215957 -0.000154758 1.88549e-05)
(-0.00180381 -0.000130448 1.5749e-05)
(-0.00149697 -0.000110099 1.30702e-05)
(-0.00123229 -9.30913e-05 1.07595e-05)
(-0.0010039 -7.89004e-05 8.76556e-06)
(-0.000806661 -6.70667e-05 7.04359e-06)
(-0.000636202 -5.71744e-05 5.55542e-06)
(-0.000488867 -4.88249e-05 4.26913e-06)
(-0.000361772 -4.16034e-05 3.15952e-06)
(-0.000252877 -3.50701e-05 2.20879e-06)
(-0.000161363 -2.86991e-05 1.40976e-06)
(-8.74253e-05 -2.19659e-05 7.64128e-07)
(-3.34251e-05 -1.42527e-05 2.92446e-07)
(-1.43824e-06 -5.6866e-06 1.28459e-08)
(4.49498e-06 1.9941e-06 -4.03714e-08)
(-0.250593 -0.0948428 0.00218756)
(-0.21342 -0.0731752 0.00186307)
(-0.181068 -0.0567215 0.00158067)
(-0.153668 -0.044063 0.00134148)
(-0.13031 -0.0343842 0.00113759)
(-0.110595 -0.0269383 0.000965474)
(-0.0939245 -0.021205 0.000819951)
(-0.0798674 -0.0167701 0.000697237)
(-0.0680009 -0.0133275 0.000593645)
(-0.0579806 -0.0106429 0.00050617)
(-0.0495067 -0.00854036 0.000432193)
(-0.0423292 -0.00688591 0.000369535)
(-0.0362379 -0.005578 0.000316359)
(-0.0310578 -0.00453916 0.000271137)
(-0.0266429 -0.00371009 0.000232595)
(-0.022872 -0.00304527 0.000199676)
(-0.0196442 -0.0025096 0.000171497)
(-0.0168755 -0.00207593 0.000147327)
(-0.0144962 -0.00172313 0.000126555)
(-0.0124478 -0.00143478 0.000108672)
(-0.0106816 -0.001198 9.32535e-05)
(-0.00915676 -0.0010027 7.99417e-05)
(-0.00783911 -0.000840958 6.84386e-05)
(-0.00669952 -0.000706465 5.84899e-05)
(-0.00571348 -0.000594258 4.98816e-05)
(-0.0048601 -0.000500371 4.24315e-05)
(-0.00412154 -0.000421642 3.59838e-05)
(-0.00348257 -0.000355539 3.04055e-05)
(-0.00292984 -0.000299989 2.558e-05)
(-0.00245188 -0.000253321 2.14073e-05)
(-0.00203871 -0.000214155 1.78002e-05)
(-0.00168155 -0.000181338 1.46821e-05)
(-0.00137278 -0.000153888 1.19864e-05)
(-0.00110568 -0.000130938 9.65456e-06)
(-0.00087453 -0.000111701 7.63653e-06)
(-0.000674523 -9.54202e-05 5.89039e-06)
(-0.000501856 -8.13102e-05 4.38291e-06)
(-0.000353826 -6.85331e-05 3.09051e-06)
(-0.000229283 -5.61207e-05 2.0031e-06)
(-0.00012838 -4.30832e-05 1.12201e-06)
(-5.38692e-05 -2.83995e-05 4.71201e-07)
(-8.14816e-06 -1.22386e-05 7.1648e-08)
(4.20839e-06 2.06874e-06 -3.69742e-08)
(-0.24441 -0.113447 0.00213353)
(-0.213481 -0.090358 0.00186355)
(-0.18542 -0.0720705 0.00161862)
(-0.160675 -0.0574778 0.00140262)
(-0.138861 -0.0459238 0.0012122)
(-0.119863 -0.0367536 0.00104637)
(-0.103358 -0.0294881 0.000902292)
(-0.089093 -0.023722 0.000777763)
(-0.0767844 -0.0191415 0.000670314)
(-0.0661846 -0.0154951 0.000577782)
(-0.0570622 -0.0125859 0.000498147)
(-0.0492135 -0.0102584 0.00042963)
(-0.0424586 -0.00839092 0.000370663)
(-0.0366418 -0.00688773 0.000319883)
(-0.0316285 -0.00567363 0.000276117)
(-0.0273033 -0.00468952 0.000238359)
(-0.0235676 -0.00388885 0.000205747)
(-0.0203374 -0.00323494 0.000177548)
(-0.0175413 -0.00269876 0.000153139)
(-0.0151185 -0.00225737 0.000131987)
(-0.0130172 -0.00189258 0.000113643)
(-0.0111935 -0.00158992 9.77224e-05)
(-0.00961001 -0.00133793 8.38989e-05)
(-0.00823462 -0.0011274 7.18917e-05)
(-0.00703986 -0.000950977 6.14614e-05)
(-0.00600212 -0.000802783 5.24019e-05)
(-0.00510105 -0.000678066 4.45354e-05)
(-0.00431912 -0.000573005 3.7709e-05)
(-0.00364082 -0.00048445 3.17874e-05)
(-0.00305275 -0.000409845 2.66534e-05)
(-0.00254318 -0.000347068 2.22048e-05)
(-0.00210173 -0.000294332 1.83508e-05)
(-0.00171933 -0.000250109 1.50123e-05)
(-0.00138795 -0.000213043 1.21192e-05)
(-0.00110075 -0.000181895 9.61183e-06)
(-0.000851934 -0.000155466 7.4396e-06)
(-0.00063692 -0.000132518 5.56243e-06)
(-0.000452421 -0.000111723 3.95163e-06)
(-0.000296962 -9.15823e-05 2.59429e-06)
(-0.000170601 -7.05498e-05 1.49091e-06)
(-7.62897e-05 -4.71576e-05 6.67185e-07)
(-1.65863e-05 -2.16282e-05 1.45548e-07)
(3.47154e-06 1.04556e-06 -2.91769e-08)
(-0.229572 -0.125084 0.00200396)
(-0.204656 -0.102256 0.00178648)
(-0.181279 -0.0835226 0.00158244)
(-0.15995 -0.0681108 0.00139626)
(-0.140583 -0.0555422 0.00122722)
(-0.123238 -0.0452961 0.00107581)
(-0.107783 -0.0369724 0.000940902)
(-0.0941116 -0.0302133 0.00082156)
(-0.0820647 -0.0247297 0.000716399)
(-0.0714897 -0.0202795 0.000624087)
(-0.0622297 -0.0166661 0.000543252)
(-0.0541366 -0.0137288 0.000472603)
(-0.047072 -0.0113376 0.000410933)
(-0.0409102 -0.00938734 0.000357143)
(-0.0355378 -0.00779321 0.000310243)
(-0.0308543 -0.00648695 0.000269358)
(-0.026771 -0.00541367 0.000233712)
(-0.0232104 -0.0045292 0.000202628)
(-0.0201045 -0.00379806 0.000175515)
(-0.0173948 -0.0031917 0.000151859)
(-0.01503 -0.00268719 0.000131215)
(-0.012966 -0.00226606 0.000113197)
(-0.0111649 -0.00191348 9.74731e-05)
(-0.0095932 -0.00161742 8.37523e-05)
(-0.00822219 -0.00136822 7.17834e-05)
(-0.00702681 -0.00115801 6.13478e-05)
(-0.00598523 -0.000980448 5.22547e-05)
(-0.00507847 -0.000830358 4.43386e-05)
(-0.00428956 -0.000703454 3.74513e-05)
(-0.00360374 -0.000596232 3.14639e-05)
(-0.00300796 -0.000505765 2.62627e-05)
(-0.00249065 -0.000429573 2.17464e-05)
(-0.00204159 -0.000365521 1.7826e-05)
(-0.00165174 -0.000311702 1.44225e-05)
(-0.0013133 -0.000266363 1.14678e-05)
(-0.00101971 -0.000227805 8.90466e-06)
(-0.0007657 -0.000194266 6.68704e-06)
(-0.000547489 -0.000163862 4.78192e-06)
(-0.000363295 -0.000134489 3.1737e-06)
(-0.000213036 -0.000103984 1.86165e-06)
(-9.97412e-05 -7.03974e-05 8.72155e-07)
(-2.60342e-05 -3.39954e-05 2.28274e-07)
(2.49942e-06 -1.29667e-06 -1.90547e-08)
(-0.209839 -0.131082 0.00183168)
(-0.190658 -0.109535 0.00166426)
(-0.171946 -0.0913141 0.00150094)
(-0.154248 -0.0759219 0.00134647)
(-0.137685 -0.0630391 0.00120189)
(-0.122431 -0.0522841 0.00106875)
(-0.108501 -0.043348 0.00094715)
(-0.095895 -0.035939 0.000837116)
(-0.0845576 -0.0298105 0.000738151)
(-0.0744173 -0.0247471 0.000649635)
(-0.0653851 -0.0205672 0.000570791)
(-0.0573674 -0.0171173 0.000500802)
(-0.0502689 -0.0142691 0.000438837)
(-0.0439972 -0.011916 0.000384088)
(-0.0384647 -0.00996968 0.000335791)
(-0.03359 -0.0083575 0.000293237)
(-0.0292989 -0.00701962 0.000255778)
(-0.0255241 -0.00590704 0.000222826)
(-0.0222054 -0.00497965 0.000193855)
(-0.0192891 -0.00420467 0.000168396)
(-0.0167275 -0.00355536 0.000146034)
(-0.0144786 -0.00300992 0.000126401)
(-0.0125056 -0.00255064 0.000109177)
(-0.0107755 -0.00216296 9.40742e-05)
(-0.00925976 -0.00183507 8.08416e-05)
(-0.00793287 -0.0015573 6.92578e-05)
(-0.00677244 -0.00132175 5.91272e-05)
(-0.00575881 -0.00112193 5.02782e-05)
(-0.0048742 -0.000952433 4.25555e-05)
(-0.004103 -0.000808793 3.58228e-05)
(-0.0034313 -0.000687262 2.99588e-05)
(-0.00284666 -0.000584639 2.48548e-05)
(-0.00233806 -0.00049815 2.04146e-05)
(-0.00189566 -0.000425298 1.65522e-05)
(-0.00151094 -0.000363779 1.31935e-05)
(-0.0011767 -0.000311344 1.02755e-05)
(-0.000887133 -0.00026566 7.74748e-06)
(-0.000638033 -0.00022423 5.57268e-06)
(-0.000427338 -0.000184298 3.73309e-06)
(-0.0002548 -0.000143036 2.22653e-06)
(-0.000123452 -9.79805e-05 1.07937e-06)
(-3.59467e-05 -4.93937e-05 3.15061e-07)
(1.42638e-06 -5.06886e-06 -7.92334e-09)
(-0.189556 -0.132644 0.00165459)
(-0.174931 -0.11302 0.00152695)
(-0.160179 -0.0959474 0.0013982)
(-0.145778 -0.081164 0.00127251)
(-0.131925 -0.0684924 0.00115159)
(-0.118834 -0.0576809 0.00103733)
(-0.106597 -0.0485105 0.00093052)
(-0.0952836 -0.0407601 0.000831767)
(-0.084906 -0.0342328 0.000741182)
(-0.075454 -0.0287487 0.000658676)
(-0.0668936 -0.0241502 0.000583952)
(-0.0591776 -0.0202991 0.000516598)
(-0.0522496 -0.0170764 0.000456124)
(-0.0460496 -0.0143804 0.000402001)
(-0.0405156 -0.0121244 0.000353692)
(-0.0355871 -0.0102355 0.00031067)
(-0.031206 -0.00865245 0.000272425)
(-0.0273176 -0.00732385 0.000238481)
(-0.0238712 -0.00620702 0.000208396)
(-0.0208203 -0.00526648 0.000181762)
(-0.0181224 -0.00447285 0.000158211)
(-0.0157395 -0.00380182 0.000137409)
(-0.0136373 -0.00323342 0.000119057)
(-0.0117848 -0.00275103 0.000102884)
(-0.0101542 -0.00234102 8.86497e-05)
(-0.00872082 -0.00199213 7.61367e-05)
(-0.0074625 -0.00169505 6.51516e-05)
(-0.00635953 -0.00144211 5.55227e-05)
(-0.00539386 -0.00122683 4.70924e-05)
(-0.0045495 -0.00104382 3.97211e-05)
(-0.0038121 -0.000888544 3.32834e-05)
(-0.00316868 -0.000757071 2.76662e-05)
(-0.00260767 -0.000645983 2.27685e-05)
(-0.00211868 -0.000552182 1.84995e-05)
(-0.00169268 -0.000472784 1.47805e-05)
(-0.00132198 -0.000404963 1.15441e-05)
(-0.00100035 -0.000345783 8.73614e-06)
(-0.000723225 -0.000292098 6.31669e-06)
(-0.000488302 -0.000240457 4.26557e-06)
(-0.000295162 -0.000187336 2.57913e-06)
(-0.0001468 -0.000129726 1.28342e-06)
(-4.59122e-05 -6.78026e-05 4.0231e-07)
(3.38179e-07 -1.03036e-05 3.37005e-09)
(-0.169049 -0.131207 0.00147557)
(-0.158382 -0.113688 0.00138248)
(-0.147127 -0.0980679 0.00128425)
(-0.135718 -0.0842412 0.00118468)
(-0.124399 -0.0721329 0.00108589)
(-0.113408 -0.0615948 0.00098995)
(-0.102886 -0.0524856 0.000898112)
(-0.0929451 -0.044649 0.000811343)
(-0.0836465 -0.0379376 0.000730178)
(-0.0750242 -0.0322092 0.000654917)
(-0.067086 -0.0273342 0.000585625)
(-0.059822 -0.0231945 0.000522218)
(-0.0532089 -0.0196849 0.000464493)
(-0.0472146 -0.016713 0.000412167)
(-0.0418012 -0.0141978 0.000364912)
(-0.0369281 -0.0120695 0.000322373)
(-0.0325534 -0.0102681 0.000284185)
(-0.0286356 -0.0087424 0.000249985)
(-0.0251345 -0.00744898 0.000219423)
(-0.0220118 -0.00635118 0.000192163)
(-0.0192316 -0.00541814 0.000167893)
(-0.0167605 -0.004624 0.000146322)
(-0.0145682 -0.0039472 0.000127183)
(-0.0126263 -0.00336962 0.00011023)
(-0.0109089 -0.0028762 9.52385e-05)
(-0.00939279 -0.00245441 8.2003e-05)
(-0.00805657 -0.00209374 7.03379e-05)
(-0.00688109 -0.00178548 6.00761e-05)
(-0.00584854 -0.00152221 5.10618e-05)
(-0.00494294 -0.00129769 4.3156e-05)
(-0.00414985 -0.00110663 3.62323e-05)
(-0.00345607 -0.000944425 3.01754e-05)
(-0.00284973 -0.000807013 2.4882e-05)
(-0.00232011 -0.000690696 2.02583e-05)
(-0.00185783 -0.00059201 1.62224e-05)
(-0.00145486 -0.000507536 1.27044e-05)
(-0.00110466 -0.000433714 9.64705e-06)
(-0.000802397 -0.000366724 7.00811e-06)
(-0.000545547 -0.000302401 4.76555e-06)
(-0.000333531 -0.000236496 2.91431e-06)
(-0.000169296 -0.000165414 1.48001e-06)
(-5.56251e-05 -8.91387e-05 4.87346e-07)
(-7.11739e-07 -1.69828e-05 1.42903e-08)
(-0.150126 -0.127409 0.00131038)
(-0.142457 -0.112129 0.00124345)
(-0.133994 -0.0981588 0.00116959)
(-0.125092 -0.0855171 0.00109191)
(-0.115988 -0.0742139 0.00101245)
(-0.106906 -0.0641873 0.000933181)
(-0.0980045 -0.055363 0.000855489)
(-0.089413 -0.0476428 0.0007805)
(-0.0812197 -0.0409252 0.000708986)
(-0.0734867 -0.0351052 0.000641488)
(-0.0662509 -0.0300818 0.000578329)
(-0.0595301 -0.025759 0.000519665)
(-0.0533268 -0.022048 0.000465518)
(-0.0476325 -0.0188683 0.000415811)
(-0.0424297 -0.0161472 0.000370396)
(-0.0376958 -0.0138206 0.000329072)
(-0.033404 -0.0118321 0.000291608)
(-0.0295255 -0.0101326 0.000257752)
(-0.0260307 -0.00867967 0.000227245)
(-0.02289 -0.00743671 0.000199828)
(-0.0200743 -0.00637259 0.000175249)
(-0.0175558 -0.00546077 0.000153264)
(-0.0153085 -0.00467886 0.000133646)
(-0.0133073 -0.0040078 0.000116176)
(-0.0115291 -0.00343155 0.000100652)
(-0.00995224 -0.00293661 8.68868e-05)
(-0.00855691 -0.00251158 7.47058e-05)
(-0.0073249 -0.0021469 6.39505e-05)
(-0.00623901 -0.00183432 5.44707e-05)
(-0.00528366 -0.0015669 4.61306e-05)
(-0.0044446 -0.00133865 3.88056e-05)
(-0.00370867 -0.00114432 3.23807e-05)
(-0.00306394 -0.000979267 2.67522e-05)
(-0.00249954 -0.000839211 2.18249e-05)
(-0.00200592 -0.000720107 1.75155e-05)
(-0.00157485 -0.000617946 1.37522e-05)
(-0.00119957 -0.000528536 1.04758e-05)
(-0.000875036 -0.000447373 7.64245e-06)
(-0.000598568 -0.000369563 5.22864e-06)
(-0.00036944 -0.000290108 3.228e-06)
(-0.000190566 -0.000204789 1.66588e-06)
(-6.48637e-05 -0.000113268 5.6823e-07)
(-1.69125e-06 -2.50482e-05 2.45099e-08)
(-0.121087 -0.0967621 0.00105692)
(-0.114342 -0.0853878 0.000998056)
(-0.107179 -0.0750182 0.000935545)
(-0.0998115 -0.0656531 0.000871244)
(-0.0924018 -0.0572696 0.000806573)
(-0.0850875 -0.0498172 0.000742733)
(-0.0779719 -0.0432338 0.000680627)
(-0.0711347 -0.0374481 0.000620949)
(-0.0646319 -0.0323864 0.00056419)
(-0.0585013 -0.0279745 0.000510678)
(-0.0527648 -0.0241408 0.000460607)
(-0.0474322 -0.0208182 0.000414059)
(-0.0425032 -0.0179439 0.000371034)
(-0.0379702 -0.0154611 0.000331465)
(-0.03382 -0.0133188 0.000295238)
(-0.0300354 -0.0114712 0.000262202)
(-0.0265968 -0.00987826 0.000232185)
(-0.0234829 -0.00850482 0.000205003)
(-0.0206718 -0.00732037 0.000180464)
(-0.0181413 -0.00629857 0.000158374)
(-0.01587 -0.00541687 0.000138547)
(-0.0138367 -0.0046558 0.000120796)
(-0.0120209 -0.00399883 0.000104946)
(-0.0104037 -0.00343184 9.08278e-05)
(-0.00896672 -0.00294281 7.82833e-05)
(-0.00769315 -0.00252155 6.71652e-05)
(-0.00656673 -0.00215917 5.73318e-05)
(-0.00557258 -0.00184811 4.86529e-05)
(-0.00469686 -0.0015818 4.10079e-05)
(-0.0039267 -0.00135445 3.42843e-05)
(-0.00325031 -0.00116083 2.83794e-05)
(-0.00265686 -0.000996134 2.31984e-05)
(-0.00213674 -0.000855752 1.86578e-05)
(-0.00168166 -0.000735097 1.46847e-05)
(-0.00128472 -0.000629349 1.12194e-05)
(-0.000940769 -0.000533319 8.21649e-06)
(-0.000646989 -0.000441374 5.65154e-06)
(-0.00040254 -0.000347756 3.51715e-06)
(-0.000210329 -0.00024757 1.83859e-06)
(-7.34721e-05 -0.000140015 6.43595e-07)
(-2.58228e-06 -3.44139e-05 3.38391e-08)
(-0.108911 -0.0942143 0.000950634)
(-0.103917 -0.0841451 0.000907047)
(-0.0983851 -0.0747826 0.000858774)
(-0.0925029 -0.0661741 0.000807438)
(-0.0864228 -0.0583383 0.000754374)
(-0.0802782 -0.0512635 0.000700745)
(-0.0741765 -0.0449216 0.000647489)
(-0.068205 -0.0392706 0.000595369)
(-0.0624311 -0.0342616 0.000544973)
(-0.0569054 -0.0298413 0.000496743)
(-0.0516636 -0.0259549 0.00045099)
(-0.0467292 -0.0225487 0.000407919)
(-0.0421152 -0.0195709 0.000367643)
(-0.0378264 -0.0169729 0.000330207)
(-0.033861 -0.0147097 0.000295594)
(-0.0302123 -0.0127406 0.000263744)
(-0.0268696 -0.0110285 0.000234565)
(-0.0238193 -0.00954084 0.000207938)
(-0.0210462 -0.00824844 0.000183731)
(-0.0185339 -0.00712593 0.000161801)
(-0.0162656 -0.00615124 0.000142)
(-0.014224 -0.00530503 0.000124177)
(-0.0123919 -0.00457068 0.000108184)
(-0.0107526 -0.00393385 9.38734e-05)
(-0.00928998 -0.00338214 8.11051e-05)
(-0.00798871 -0.00290497 6.97454e-05)
(-0.00683375 -0.00249299 5.96628e-05)
(-0.00581109 -0.00213817 5.07351e-05)
(-0.00490757 -0.00183348 4.28474e-05)
(-0.00411076 -0.00157261 3.58912e-05)
(-0.00340919 -0.00134987 2.97664e-05)
(-0.00279219 -0.00115993 2.438e-05)
(-0.00225028 -0.000997661 1.96491e-05)
(-0.00177516 -0.000857921 1.55012e-05)
(-0.00135993 -0.000735271 1.18761e-05)
(-0.000999359 -0.000623845 8.72814e-06)
(-0.00069055 -0.000517271 6.03199e-06)
(-0.000432582 -0.000409013 3.77957e-06)
(-0.000228389 -0.000293454 1.99641e-06)
(-8.13465e-05 -0.000169178 7.12536e-07)
(-3.37613e-06 -4.49759e-05 4.21823e-08)
(-0.097485 -0.0908898 0.00085089)
(-0.0939519 -0.0820853 0.000820061)
(-0.0898051 -0.0737393 0.000783874)
(-0.0852077 -0.0659296 0.000743753)
(-0.0803007 -0.0587039 0.000700928)
(-0.0752098 -0.0520802 0.000656497)
(-0.0700414 -0.0460573 0.000611388)
(-0.0648848 -0.0406178 0.000566382)
(-0.0598132 -0.0357346 0.000522116)
(-0.0548847 -0.0313727 0.000479099)
(-0.0501441 -0.0274936 0.000437722)
(-0.0456247 -0.0240564 0.000398274)
(-0.0413494 -0.0210203 0.000360956)
(-0.037333 -0.0183452 0.000325898)
(-0.033583 -0.0159931 0.000293164)
(-0.0301012 -0.0139284 0.000262772)
(-0.0268847 -0.0121185 0.000234696)
(-0.0239273 -0.0105333 0.00020888)
(-0.0212197 -0.00914627 0.000185245)
(-0.018751 -0.00793335 0.000163695)
(-0.0165089 -0.00687352 0.000144123)
(-0.0144798 -0.00594806 0.00012641)
(-0.0126498 -0.00514065 0.000110435)
(-0.011005 -0.00443704 9.60766e-05)
(-0.00953127 -0.00382477 8.32113e-05)
(-0.00821503 -0.00329307 7.1721e-05)
(-0.00704261 -0.00283232 6.14859e-05)
(-0.00600106 -0.00243416 5.23935e-05)
(-0.00507804 -0.00209119 4.43356e-05)
(-0.00426175 -0.00179671 3.72094e-05)
(-0.00354116 -0.00154462 3.09186e-05)
(-0.00290591 -0.00132912 2.53728e-05)
(-0.00234672 -0.0011446 2.04911e-05)
(-0.00185542 -0.000985386 1.62019e-05)
(-0.00142516 -0.000845448 1.24456e-05)
(-0.00105069 -0.000718252 9.17638e-06)
(-0.000729097 -0.000596695 6.36863e-06)
(-0.000459406 -0.00047345 4.01389e-06)
(-0.000244621 -0.000342122 2.13825e-06)
(-8.84249e-05 -0.000200533 7.74507e-07)
(-4.07045e-06 -5.66189e-05 4.95086e-08)
(-0.0870002 -0.0870055 0.000759365)
(-0.0846284 -0.0794139 0.000738673)
(-0.0816181 -0.0720696 0.000712405)
(-0.0781049 -0.0650717 0.000681747)
(-0.0742119 -0.0584892 0.000647774)
(-0.0700528 -0.0523626 0.000611476)
(-0.0657271 -0.0467122 0.000573723)
(-0.0613219 -0.0415409 0.000535276)
(-0.0569113 -0.0368398 0.00049678)
(-0.0525569 -0.0325905 0.000458775)
(-0.0483087 -0.0287685 0.000421696)
(-0.0442064 -0.0253456 0.00038589)
(-0.0402802 -0.022291 0.000351619)
(-0.0365521 -0.0195735 0.000319078)
(-0.033037 -0.017162 0.000288396)
(-0.0297439 -0.0150268 0.000259651)
(-0.0266765 -0.0131394 0.000232876)
(-0.0238345 -0.0114738 0.000208069)
(-0.0212145 -0.0100057 0.000185198)
(-0.0188101 -0.00871315 0.00016421)
(-0.0166135 -0.00757671 0.000145035)
(-0.0146148 -0.00657858 0.000127588)
(-0.0128033 -0.00570314 0.000111774)
(-0.0111675 -0.00493651 9.74948e-05)
(-0.00969566 -0.00426643 8.46461e-05)
(-0.00837597 -0.00368216 7.31257e-05)
(-0.00719622 -0.00317398 6.28269e-05)
(-0.00614467 -0.00273336 5.36471e-05)
(-0.00520991 -0.00235263 4.54868e-05)
(-0.00438086 -0.0020248 3.82492e-05)
(-0.00364706 -0.00174343 3.18431e-05)
(-0.00299858 -0.0015023 2.61819e-05)
(-0.00242642 -0.00129538 2.11869e-05)
(-0.00192263 -0.0011165 1.67888e-05)
(-0.00148047 -0.000959053 1.29286e-05)
(-0.00109476 -0.000815861 9.56118e-06)
(-0.00076257 -0.000679099 6.66096e-06)
(-0.000482935 -0.000540637 4.21941e-06)
(-0.000258958 -0.000393247 2.26353e-06)
(-9.46782e-05 -0.000233842 8.29255e-07)
(-4.66727e-06 -6.92223e-05 5.58314e-08)
(-0.0773853 -0.0828015 0.000675437)
(-0.0759588 -0.076333 0.000662994)
(-0.07389 -0.0699429 0.000644944)
(-0.0712916 -0.0637406 0.00062227)
(-0.0682703 -0.0578081 0.000595905)
(-0.0649269 -0.0522015 0.000566728)
(-0.0613528 -0.0469567 0.000535535)
(-0.0576301 -0.0420927 0.000503046)
(-0.0538311 -0.0376156 0.000469889)
(-0.0500178 -0.0335209 0.000436608)
(-0.0462427 -0.0297968 0.000403659)
(-0.0425492 -0.0264259 0.00037142)
(-0.0389721 -0.0233873 0.000340198)
(-0.0355387 -0.020658 0.00031023)
(-0.0322696 -0.0182139 0.000281695)
(-0.0291792 -0.0160311 0.00025472)
(-0.0262767 -0.014086 0.000229385)
(-0.0235672 -0.0123561 0.000205734)
(-0.0210517 -0.0108204 0.000183776)
(-0.0187285 -0.00945934 0.000163497)
(-0.0165935 -0.00825511 0.00014486)
(-0.0146402 -0.00719135 0.000127809)
(-0.012861 -0.00625338 0.000112278)
(-0.011247 -0.005428 9.81883e-05)
(-0.00978855 -0.00470336 8.54568e-05)
(-0.00847574 -0.00406895 7.39965e-05)
(-0.00729787 -0.00351511 6.3714e-05)
(-0.00624444 -0.00303328 5.4518e-05)
(-0.00530507 -0.00261567 4.63175e-05)
(-0.00446952 -0.00225506 3.90231e-05)
(-0.00372795 -0.00194473 3.25493e-05)
(-0.00307095 -0.00167816 2.68137e-05)
(-0.00248991 -0.0014489 2.17412e-05)
(-0.00197713 -0.00125032 1.72646e-05)
(-0.00152608 -0.00107529 1.33268e-05)
(-0.00113165 -0.000916018 9.88336e-06)
(-0.000790994 -0.000763949 6.9092e-06)
(-0.000503157 -0.000610146 4.39605e-06)
(-0.000271384 -0.000446496 2.37211e-06)
(-0.000100104 -0.000268865 8.76756e-07)
(-5.17159e-06 -8.2664e-05 6.11949e-08)
(-0.0686915 -0.0784126 0.00059955)
(-0.0679984 -0.0729796 0.000593508)
(-0.0666859 -0.0674877 0.000582058)
(-0.0648434 -0.062051 0.000565982)
(-0.0625596 -0.0567592 0.000546053)
(-0.0599208 -0.0516787 0.000523026)
(-0.0570084 -0.046857 0.00049761)
(-0.0538977 -0.0423253 0.000470462)
(-0.0506566 -0.0381017 0.000442176)
(-0.0473456 -0.0341931 0.000413278)
(-0.0440172 -0.0305986 0.000384229)
(-0.0407164 -0.0273106 0.000355419)
(-0.0374809 -0.0243169 0.000327178)
(-0.0343413 -0.0216023 0.000299775)
(-0.0313222 -0.0191494 0.000273423)
(-0.0284423 -0.01694 0.000248286)
(-0.0257152 -0.0149551 0.000224482)
(-0.0231499 -0.0131765 0.00020209)
(-0.0207518 -0.0115862 0.000181157)
(-0.0185228 -0.0101674 0.0001617)
(-0.0164623 -0.00890426 0.000143713)
(-0.0145669 -0.00778209 0.000127169)
(-0.0128318 -0.0067874 0.000112022)
(-0.0112506 -0.00590787 9.82191e-05)
(-0.00981561 -0.00513226 8.56926e-05)
(-0.00851882 -0.0044505 7.43723e-05)
(-0.00735106 -0.00385314 6.41782e-05)
(-0.00630311 -0.0033317 5.50299e-05)
(-0.00536566 -0.00287836 4.68463e-05)
(-0.00452934 -0.0024858 3.95453e-05)
(-0.00378505 -0.0021471 3.30477e-05)
(-0.00312394 -0.00185546 2.72762e-05)
(-0.00253783 -0.00160409 2.21596e-05)
(-0.00201938 -0.00138596 1.76335e-05)
(-0.00156227 -0.00119342 1.36428e-05)
(-0.00116156 -0.00101809 1.01445e-05)
(-0.000814472 -0.000850727 7.11423e-06)
(-0.000520124 -0.00068156 4.54426e-06)
(-0.000281926 -0.000501542 2.46422e-06)
(-0.000104721 -0.000305357 9.17176e-07)
(-5.5905e-06 -9.68238e-05 6.56669e-08)
(-0.0608281 -0.0739855 0.000530912)
(-0.0607135 -0.0694847 0.000529918)
(-0.0600115 -0.0648204 0.000523796)
(-0.0587924 -0.0601049 0.000513161)
(-0.0571288 -0.0554302 0.000498646)
(-0.0550939 -0.0508683 0.00048089)
(-0.0527589 -0.0464744 0.000460513)
(-0.0501911 -0.0422882 0.000438104)
(-0.0474533 -0.0383368 0.000414211)
(-0.0446027 -0.0346368 0.000389333)
(-0.0416904 -0.0311959 0.000363916)
(-0.0387614 -0.0280152 0.000338351)
(-0.0358544 -0.0250902 0.000312978)
(-0.0330022 -0.0224127 0.000288083)
(-0.0302318 -0.0199716 0.000263903)
(-0.0275651 -0.017754 0.000240627)
(-0.0250189 -0.0157459 0.000218402)
(-0.0226057 -0.0139328 0.000197338)
(-0.020334 -0.0123002 0.000177509)
(-0.0182091 -0.010834 0.00015896)
(-0.0162332 -0.00952076 0.000141713)
(-0.0144058 -0.00834741 0.000125762)
(-0.0127246 -0.00730192 0.000111086)
(-0.0111854 -0.00637305 9.76498e-05)
(-0.00978261 -0.00555034 8.54042e-05)
(-0.00850985 -0.00482428 7.42937e-05)
(-0.00735949 -0.00418579 6.42516e-05)
(-0.00632361 -0.00362659 5.52087e-05)
(-0.00539397 -0.00313894 4.70933e-05)
(-0.00456213 -0.0027155 3.98314e-05)
(-0.00381975 -0.0023492 3.33506e-05)
(-0.00315859 -0.00203305 2.75787e-05)
(-0.00257098 -0.00175998 2.24489e-05)
(-0.00204994 -0.00152257 1.79003e-05)
(-0.00158945 -0.00131273 1.38801e-05)
(-0.00118475 -0.00112149 1.03469e-05)
(-0.00083317 -0.000938939 7.2775e-06)
(-0.000533939 -0.000754474 4.66491e-06)
(-0.000290646 -0.00055806 2.54042e-06)
(-0.000108565 -0.000343082 9.50831e-07)
(-5.93259e-06 -0.000111587 6.93303e-08)
(-0.0537829 -0.0696 0.000469417)
(-0.0541012 -0.065936 0.000472201)
(-0.0538765 -0.0620281 0.000470245)
(-0.0531608 -0.0579841 0.000464003)
(-0.0520112 -0.0538951 0.000453974)
(-0.0504878 -0.0498352 0.000440682)
(-0.0486511 -0.045864 0.000424655)
(-0.0465603 -0.042027 0.000406409)
(-0.044272 -0.0383582 0.000386439)
(-0.041839 -0.0348814 0.000365206)
(-0.0393099 -0.0316114 0.000343134)
(-0.0367285 -0.0285566 0.000320603)
(-0.0341332 -0.0257192 0.000297952)
(-0.0315578 -0.0230972 0.000275473)
(-0.0290308 -0.0206853 0.000253417)
(-0.026576 -0.0184757 0.000231991)
(-0.0242126 -0.0164589 0.000211362)
(-0.0219557 -0.0146244 0.000191662)
(-0.0198164 -0.0129609 0.000172989)
(-0.0178024 -0.0114572 0.00015541)
(-0.0159189 -0.0101022 0.000138968)
(-0.0141675 -0.00888473 0.00012368)
(-0.0125481 -0.00779436 0.000109545)
(-0.0110587 -0.00682104 9.65431e-05)
(-0.00969543 -0.00595524 8.46427e-05)
(-0.0084536 -0.00518812 7.38023e-05)
(-0.00732702 -0.0045111 6.39678e-05)
(-0.00630902 -0.00391619 5.50812e-05)
(-0.00539247 -0.00339585 4.708e-05)
(-0.00456983 -0.00294276 3.98985e-05)
(-0.00383356 -0.00254983 3.3471e-05)
(-0.00317607 -0.00220989 2.77312e-05)
(-0.00259022 -0.00191565 2.26168e-05)
(-0.00206947 -0.00165938 1.80707e-05)
(-0.00160808 -0.00143254 1.40427e-05)
(-0.00120153 -0.00122565 1.04935e-05)
(-0.000847311 -0.00102811 7.40097e-06)
(-0.000544747 -0.000828497 4.75931e-06)
(-0.000297636 -0.00061574 2.60149e-06)
(-0.000111686 -0.000381812 9.7816e-07)
(-6.20758e-06 -0.000126845 7.22807e-08)
(-0.0474687 -0.0653406 0.000414303)
(-0.0481124 -0.0624142 0.000419927)
(-0.0482599 -0.0591873 0.000421218)
(-0.0479482 -0.0557595 0.000418503)
(-0.0472213 -0.052218 0.000412163)
(-0.0461275 -0.0486361 0.00040262)
(-0.0447173 -0.045075 0.000390315)
(-0.0430419 -0.0415836 0.000375695)
(-0.0411514 -0.0382006 0.000359197)
(-0.0390938 -0.0349549 0.000341241)
(-0.0369142 -0.0318673 0.00032222)
(-0.0346543 -0.0289518 0.000302496)
(-0.0323517 -0.0262165 0.000282399)
(-0.0300397 -0.0236649 0.00026222)
(-0.0277476 -0.0212967 0.000242214)
(-0.0255003 -0.0191089 0.000222599)
(-0.0233185 -0.0170962 0.000203556)
(-0.0212192 -0.0152518 0.000185232)
(-0.0192155 -0.0135678 0.000167743)
(-0.0173173 -0.0120357 0.000151174)
(-0.0155315 -0.0106469 0.000135586)
(-0.0138621 -0.00939216 0.000121014)
(-0.0123109 -0.00826273 0.000107473)
(-0.0108775 -0.00724983 9.49609e-05)
(-0.00955991 -0.00634499 8.34593e-05)
(-0.00835487 -0.00554017 7.29401e-05)
(-0.00725756 -0.00482735 6.33612e-05)