/*--------------------------------*- C++ -*----------------------------------*\
| =========                 |                                                 |
| \\      /  F ield         | OpenFOAM: The Open Source CFD Toolbox           |
|  \\    /   O peration     | Version:  v2012                                 |
|   \\  /    A nd           | Website:  www.openfoam.com                      |
|    \\/     M anipulation  |                                                 |
\*---------------------------------------------------------------------------*/
FoamFile
{
    version     2.0;
    format      ascii;
    class       volScalarField;
    location    "0.4";
    object      p;
}
// * * * * * * * * * * * * * * * * * * * * * * * * * * * * * * * * * * * * * //

dimensions      [1 -1 -2 0 0 0 0];


internalField   nonuniform List<scalar> 
3332
(
3.48334e+06
3.48411e+06
3.4848e+06
3.4854e+06
3.48594e+06
3.48643e+06
3.48687e+06
3.48727e+06
3.48764e+06
3.48798e+06
3.48829e+06
3.48858e+06
3.48885e+06
3.4891e+06
3.48933e+06
3.48955e+06
3.48976e+06
3.48995e+06
3.49013e+06
3.4903e+06
3.47902e+06
3.48048e+06
3.48176e+06
3.4828e+06
3.48371e+06
3.48448e+06
3.48516e+06
3.48575e+06
3.48628e+06
3.48676e+06
3.48718e+06
3.48757e+06
3.48792e+06
3.48824e+06
3.48853e+06
3.48881e+06
3.48906e+06
3.48929e+06
3.48951e+06
3.48972e+06
3.48991e+06
3.49009e+06
3.43921e+06
3.42317e+06
3.43746e+06
3.42631e+06
3.43163e+06
3.42174e+06
3.42132e+06
3.41168e+06
3.39841e+06
3.42313e+06
3.45545e+06
3.46326e+06
3.46748e+06
3.47166e+06
3.47443e+06
3.47688e+06
3.47873e+06
3.48031e+06
3.4816e+06
3.48269e+06
3.48362e+06
3.48442e+06
3.48512e+06
3.48573e+06
3.48627e+06
3.48675e+06
3.48718e+06
3.48756e+06
3.48791e+06
3.48823e+06
3.48853e+06
3.4888e+06
3.48904e+06
3.48928e+06
3.48949e+06
3.48969e+06
3.48988e+06
3.42678e+06
3.41163e+06
3.42495e+06
3.41411e+06
3.41855e+06
3.40981e+06
3.40923e+06
3.39954e+06
3.38619e+06
3.41204e+06
3.42513e+06
3.4422e+06
3.45021e+06
3.45897e+06
3.46409e+06
3.46888e+06
3.47217e+06
3.47502e+06
3.4772e+06
3.47903e+06
3.48052e+06
3.48178e+06
3.48284e+06
3.48375e+06
3.48454e+06
3.48522e+06
3.48581e+06
3.48634e+06
3.48681e+06
3.48723e+06
3.4876e+06
3.48795e+06
3.48826e+06
3.48854e+06
3.4888e+06
3.48905e+06
3.48927e+06
3.48948e+06
3.48967e+06
3.41684e+06
3.40573e+06
3.41552e+06
3.40737e+06
3.40933e+06
3.40297e+06
3.40151e+06
3.39227e+06
3.37849e+06
3.40427e+06
3.41934e+06
3.43702e+06
3.44628e+06
3.45562e+06
3.46142e+06
3.46665e+06
3.47034e+06
3.47348e+06
3.47591e+06
3.47794e+06
3.4796e+06
3.48099e+06
3.48216e+06
3.48316e+06
3.48401e+06
3.48475e+06
3.4854e+06
3.48597e+06
3.48647e+06
3.48691e+06
3.48731e+06
3.48767e+06
3.488e+06
3.4883e+06
3.48857e+06
3.48882e+06
3.48905e+06
3.48927e+06
3.48947e+06
3.48965e+06
3.41039e+06
3.40553e+06
3.40949e+06
3.40597e+06
3.40421e+06
3.40087e+06
3.39775e+06
3.38949e+06
3.37391e+06
3.3984e+06
3.41556e+06
3.43335e+06
3.44359e+06
3.45322e+06
3.45952e+06
3.465e+06
3.46896e+06
3.4723e+06
3.4749e+06
3.47707e+06
3.47884e+06
3.48033e+06
3.48158e+06
3.48265e+06
3.48356e+06
3.48435e+06
3.48503e+06
3.48563e+06
3.48615e+06
3.48662e+06
3.48704e+06
3.48742e+06
3.48775e+06
3.48806e+06
3.48835e+06
3.48861e+06
3.48885e+06
3.48907e+06
3.48927e+06
3.48946e+06
3.40777e+06
3.41003e+06
3.40727e+06
3.40925e+06
3.40333e+06
3.40244e+06
3.39783e+06
3.39057e+06
3.37326e+06
3.39563e+06
3.41396e+06
3.4314e+06
3.44221e+06
3.45183e+06
3.45839e+06
3.46395e+06
3.46806e+06
3.47149e+06
3.47418e+06
3.47643e+06
3.47827e+06
3.47982e+06
3.48112e+06
3.48223e+06
3.48318e+06
3.484e+06
3.48471e+06
3.48533e+06
3.48587e+06
3.48636e+06
3.48679e+06
3.48718e+06
3.48752e+06
3.48784e+06
3.48813e+06
3.4884e+06
3.48864e+06
3.48887e+06
3.48908e+06
3.48927e+06
3.48945e+06
3.41006e+06
3.41834e+06
3.40996e+06
3.41641e+06
3.40702e+06
3.40707e+06
3.40179e+06
3.39507e+06
3.37642e+06
3.39591e+06
3.41448e+06
3.43114e+06
3.4421e+06
3.45143e+06
3.45803e+06
3.4635e+06
3.46763e+06
3.47104e+06
3.47376e+06
3.47602e+06
3.47788e+06
3.47945e+06
3.48078e+06
3.48191e+06
3.48287e+06
3.48371e+06
3.48443e+06
3.48507e+06
3.48562e+06
3.48612e+06
3.48656e+06
3.48695e+06
3.48731e+06
3.48763e+06
3.48793e+06
3.4882e+06
3.48845e+06
3.48868e+06
3.48889e+06
3.48909e+06
3.48927e+06
3.41771e+06
3.42896e+06
3.41825e+06
3.42656e+06
3.4158e+06
3.41517e+06
3.41078e+06
3.4039e+06
3.38416e+06
3.39853e+06
3.41713e+06
3.43239e+06
3.4432e+06
3.45195e+06
3.45839e+06
3.46362e+06
3.46765e+06
3.47096e+06
3.47363e+06
3.47585e+06
3.47769e+06
3.47924e+06
3.48056e+06
3.48168e+06
3.48265e+06
3.48349e+06
3.48421e+06
3.48485e+06
3.48541e+06
3.48591e+06
3.48635e+06
3.48675e+06
3.48711e+06
3.48744e+06
3.48773e+06
3.48801e+06
3.48826e+06
3.48849e+06
3.48871e+06
3.48891e+06
3.4891e+06
3.4319e+06
3.44156e+06
3.43233e+06
3.43891e+06
3.42957e+06
3.42731e+06
3.42526e+06
3.41773e+06
3.39639e+06
3.40391e+06
3.42192e+06
3.43507e+06
3.44543e+06
3.45331e+06
3.45943e+06
3.46427e+06
3.4681e+06
3.47122e+06
3.47377e+06
3.47589e+06
3.47767e+06
3.47917e+06
3.48046e+06
3.48155e+06
3.4825e+06
3.48333e+06
3.48404e+06
3.48467e+06
3.48523e+06
3.48572e+06
3.48616e+06
3.48656e+06
3.48692e+06
3.48725e+06
3.48755e+06
3.48783e+06
3.48808e+06
3.48832e+06
3.48853e+06
3.48874e+06
3.48892e+06
3.45137e+06
3.45515e+06
3.45129e+06
3.45296e+06
3.4475e+06
3.44347e+06
3.44407e+06
3.43594e+06
3.41252e+06
3.41156e+06
3.42847e+06
3.43896e+06
3.44862e+06
3.4554e+06
3.46106e+06
3.46538e+06
3.46893e+06
3.47179e+06
3.47417e+06
3.47615e+06
3.47782e+06
3.47925e+06
3.48047e+06
3.48152e+06
3.48243e+06
3.48323e+06
3.48392e+06
3.48454e+06
3.48508e+06
3.48557e+06
3.486e+06
3.48639e+06
3.48675e+06
3.48708e+06
3.48738e+06
3.48765e+06
3.48791e+06
3.48814e+06
3.48836e+06
3.48857e+06
3.48876e+06
3.47435e+06
3.46947e+06
3.47368e+06
3.4685e+06
3.46836e+06
3.4624e+06
3.46585e+06
3.45684e+06
3.43156e+06
3.42088e+06
3.43624e+06
3.44376e+06
3.45255e+06
3.45806e+06
3.46316e+06
3.46689e+06
3.47008e+06
3.47263e+06
3.47479e+06
3.47659e+06
3.47813e+06
3.47945e+06
3.48059e+06
3.48157e+06
3.48244e+06
3.48319e+06
3.48385e+06
3.48444e+06
3.48497e+06
3.48544e+06
3.48586e+06
3.48624e+06
3.48659e+06
3.48692e+06
3.48721e+06
3.48749e+06
3.48774e+06
3.48798e+06
3.4882e+06
3.4884e+06
3.48859e+06
3.49838e+06
3.48428e+06
3.497e+06
3.48497e+06
3.49031e+06
3.48262e+06
3.48878e+06
3.47887e+06
3.45254e+06
3.4313e+06
3.44475e+06
3.44917e+06
3.45697e+06
3.46115e+06
3.46562e+06
3.46871e+06
3.47151e+06
3.4737e+06
3.47561e+06
3.47721e+06
3.47859e+06
3.47977e+06
3.48081e+06
3.48171e+06
3.48251e+06
3.48321e+06
3.48383e+06
3.48439e+06
3.48488e+06
3.48533e+06
3.48574e+06
3.48611e+06
3.48645e+06
3.48677e+06
3.48706e+06
3.48733e+06
3.48758e+06
3.48782e+06
3.48804e+06
3.48824e+06
3.48843e+06
3.52012e+06
3.49901e+06
3.51841e+06
3.50149e+06
3.51105e+06
3.50254e+06
3.51069e+06
3.50051e+06
3.47384e+06
3.44214e+06
3.45332e+06
3.45484e+06
3.4616e+06
3.4645e+06
3.46833e+06
3.47076e+06
3.47314e+06
3.47497e+06
3.4766e+06
3.47797e+06
3.47917e+06
3.48021e+06
3.48112e+06
3.48193e+06
3.48264e+06
3.48328e+06
3.48385e+06
3.48437e+06
3.48483e+06
3.48525e+06
3.48564e+06
3.486e+06
3.48632e+06
3.48663e+06
3.48691e+06
3.48718e+06
3.48743e+06
3.48766e+06
3.48788e+06
3.48808e+06
3.48828e+06
3.53696e+06
3.5131e+06
3.53527e+06
3.51668e+06
3.52849e+06
3.5203e+06
3.52937e+06
3.51967e+06
3.49352e+06
3.45274e+06
3.46123e+06
3.46051e+06
3.4662e+06
3.46799e+06
3.47117e+06
3.47299e+06
3.47494e+06
3.4764e+06
3.47774e+06
3.47886e+06
3.47986e+06
3.48073e+06
3.48152e+06
3.48221e+06
3.48284e+06
3.4834e+06
3.48391e+06
3.48438e+06
3.4848e+06
3.4852e+06
3.48556e+06
3.48589e+06
3.48621e+06
3.4865e+06
3.48678e+06
3.48704e+06
3.48728e+06
3.48751e+06
3.48773e+06
3.48793e+06
3.48812e+06
3.54708e+06
3.5261e+06
3.54578e+06
3.52987e+06
3.5409e+06
3.53415e+06
3.54306e+06
3.53411e+06
3.50965e+06
3.46247e+06
3.46786e+06
3.46595e+06
3.47056e+06
3.47152e+06
3.47407e+06
3.47535e+06
3.47687e+06
3.47795e+06
3.47899e+06
3.47986e+06
3.48065e+06
3.48135e+06
3.48198e+06
3.48256e+06
3.48308e+06
3.48357e+06
3.48401e+06
3.48442e+06
3.4848e+06
3.48516e+06
3.48549e+06
3.48581e+06
3.4861e+06
3.48638e+06
3.48665e+06
3.4869e+06
3.48714e+06
3.48737e+06
3.48758e+06
3.48778e+06
3.48797e+06
3.55073e+06
3.53805e+06
3.54983e+06
3.54068e+06
3.548e+06
3.54337e+06
3.55104e+06
3.54296e+06
3.52121e+06
3.4714e+06
3.47301e+06
3.47117e+06
3.47462e+06
3.47511e+06
3.477e+06
3.47781e+06
3.4789e+06
3.47962e+06
3.48035e+06
3.48096e+06
3.48153e+06
3.48204e+06
3.48252e+06
3.48296e+06
3.48338e+06
3.48377e+06
3.48414e+06
3.48449e+06
3.48482e+06
3.48514e+06
3.48544e+06
3.48573e+06
3.48601e+06
3.48627e+06
3.48653e+06
3.48677e+06
3.487e+06
3.48723e+06
3.48744e+06
3.48764e+06
3.48783e+06
3.54932e+06
3.54912e+06
3.54931e+06
3.54957e+06
3.55106e+06
3.54857e+06
3.55436e+06
3.54652e+06
3.52854e+06
3.48007e+06
3.47694e+06
3.47639e+06
3.47847e+06
3.47879e+06
3.47999e+06
3.4804e+06
3.48103e+06
3.4814e+06
3.48181e+06
3.48214e+06
3.48248e+06
3.48279e+06
3.4831e+06
3.48341e+06
3.48371e+06
3.48401e+06
3.4843e+06
3.48458e+06
3.48486e+06
3.48514e+06
3.48541e+06
3.48567e+06
3.48592e+06
3.48617e+06
3.48641e+06
3.48665e+06
3.48687e+06
3.48709e+06
3.4873e+06
3.4875e+06
3.48769e+06
3.54755e+06
3.55954e+06
3.54827e+06
3.5573e+06
3.55299e+06
3.55217e+06
3.55531e+06
3.54781e+06
3.53386e+06
3.48975e+06
3.48055e+06
3.48204e+06
3.48238e+06
3.48272e+06
3.48309e+06
3.48314e+06
3.48328e+06
3.48329e+06
3.48335e+06
3.4834e+06
3.48349e+06
3.4836e+06
3.48374e+06
3.4839e+06
3.48408e+06
3.48427e+06
3.48448e+06
3.48469e+06
3.48492e+06
3.48515e+06
3.48538e+06
3.48561e+06
3.48585e+06
3.48608e+06
3.48631e+06
3.48653e+06
3.48675e+06
3.48696e+06
3.48716e+06
3.48736e+06
3.48755e+06
3.55118e+06
3.56952e+06
3.5524e+06
3.56521e+06
3.55783e+06
3.55753e+06
3.55786e+06
3.55197e+06
3.54139e+06
3.50223e+06
3.48522e+06
3.48859e+06
3.4867e+06
3.48703e+06
3.48641e+06
3.48607e+06
3.48565e+06
3.48529e+06
3.48498e+06
3.48474e+06
3.48457e+06
3.48446e+06
3.48441e+06
3.48442e+06
3.48447e+06
3.48456e+06
3.48467e+06
3.48482e+06
3.48499e+06
3.48517e+06
3.48536e+06
3.48557e+06
3.48578e+06
3.48599e+06
3.4862e+06
3.48641e+06
3.48662e+06
3.48683e+06
3.48703e+06
3.48723e+06
3.48741e+06
3.56449e+06
3.57883e+06
3.56537e+06
3.5743e+06
3.56871e+06
3.56738e+06
3.56618e+06
3.56303e+06
3.55477e+06
3.51873e+06
3.49222e+06
3.49637e+06
3.49173e+06
3.49181e+06
3.49001e+06
3.48921e+06
3.48817e+06
3.48739e+06
3.48669e+06
3.48613e+06
3.48569e+06
3.48536e+06
3.48512e+06
3.48496e+06
3.48488e+06
3.48486e+06
3.48489e+06
3.48496e+06
3.48506e+06
3.4852e+06
3.48535e+06
3.48552e+06
3.48571e+06
3.4859e+06
3.4861e+06
3.4863e+06
3.4865e+06
3.48671e+06
3.4869e+06
3.48709e+06
3.48728e+06
3.58616e+06
3.58772e+06
3.58605e+06
3.58525e+06
3.58544e+06
3.58216e+06
3.58134e+06
3.58129e+06
3.57415e+06
3.53903e+06
3.50181e+06
3.50517e+06
3.49755e+06
3.49702e+06
3.49391e+06
3.49255e+06
3.49082e+06
3.4896e+06
3.48847e+06
3.48759e+06
3.48686e+06
3.48628e+06
3.48584e+06
3.48552e+06
3.4853e+06
3.48517e+06
3.4851e+06
3.4851e+06
3.48514e+06
3.48523e+06
3.48534e+06
3.48548e+06
3.48564e+06
3.48582e+06
3.486e+06
3.48619e+06
3.48639e+06
3.48658e+06
3.48678e+06
3.48696e+06
3.48715e+06
3.61019e+06
3.59667e+06
3.60854e+06
3.59775e+06
3.60411e+06
3.59959e+06
3.59997e+06
3.60299e+06
3.59596e+06
3.56154e+06
3.51324e+06
3.51438e+06
3.504e+06
3.50249e+06
3.49809e+06
3.49605e+06
3.49361e+06
3.4919e+06
3.49032e+06
3.48908e+06
3.48805e+06
3.48723e+06
3.48658e+06
3.48609e+06
3.48573e+06
3.48548e+06
3.48532e+06
3.48524e+06
3.48522e+06
3.48526e+06
3.48534e+06
3.48545e+06
3.48558e+06
3.48574e+06
3.48591e+06
3.48609e+06
3.48627e+06
3.48646e+06
3.48665e+06
3.48684e+06
3.48702e+06
3.62968e+06
3.60634e+06
3.62683e+06
3.61079e+06
3.62008e+06
3.6157e+06
3.61616e+06
3.62199e+06
3.61368e+06
3.58287e+06
3.52505e+06
3.52307e+06
3.51079e+06
3.50803e+06
3.50248e+06
3.49967e+06
3.49652e+06
3.49427e+06
3.49223e+06
3.49061e+06
3.48926e+06
3.48818e+06
3.48732e+06
3.48666e+06
3.48615e+06
3.48579e+06
3.48553e+06
3.48538e+06
3.4853e+06
3.48529e+06
3.48533e+06
3.48541e+06
3.48552e+06
3.48566e+06
3.48581e+06
3.48598e+06
3.48616e+06
3.48634e+06
3.48653e+06
3.48671e+06
3.48689e+06
3.64263e+06
3.61718e+06
3.63925e+06
3.62291e+06
3.63152e+06
3.62751e+06
3.62605e+06
3.63341e+06
3.62241e+06
3.59909e+06
3.53686e+06
3.53046e+06
3.51784e+06
3.51348e+06
3.50709e+06
3.50337e+06
3.49953e+06
3.49669e+06
3.49417e+06
3.49216e+06
3.49048e+06
3.48913e+06
3.48806e+06
3.48721e+06
3.48656e+06
3.48608e+06
3.48574e+06
3.48551e+06
3.48537e+06
3.48531e+06
3.48531e+06
3.48536e+06
3.48545e+06
3.48557e+06
3.48572e+06
3.48588e+06
3.48605e+06
3.48623e+06
3.48641e+06
3.48659e+06
3.48677e+06
3.65166e+06
3.62926e+06
3.64858e+06
3.63412e+06
3.64027e+06
3.63575e+06
3.632e+06
3.63752e+06
3.62548e+06
3.60991e+06
3.55119e+06
3.53682e+06
3.52563e+06
3.51895e+06
3.51201e+06
3.50718e+06
3.50266e+06
3.49917e+06
3.49614e+06
3.4937e+06
3.49169e+06
3.49006e+06
3.48876e+06
3.48774e+06
3.48695e+06
3.48636e+06
3.48592e+06
3.48562e+06
3.48543e+06
3.48532e+06
3.48529e+06
3.48531e+06
3.48538e+06
3.48549e+06
3.48562e+06
3.48577e+06
3.48593e+06
3.48611e+06
3.48629e+06
3.48647e+06
3.48664e+06
3.66049e+06
3.64396e+06
3.65825e+06
3.64656e+06
3.64986e+06
3.64475e+06
3.64047e+06
3.64087e+06
3.63318e+06
3.62223e+06
3.57156e+06
3.54376e+06
3.53493e+06
3.52476e+06
3.51738e+06
3.51114e+06
3.50593e+06
3.50168e+06
3.49812e+06
3.49523e+06
3.49286e+06
3.49096e+06
3.48944e+06
3.48824e+06
3.48731e+06
3.4866e+06
3.48608e+06
3.48571e+06
3.48547e+06
3.48532e+06
3.48526e+06
3.48526e+06
3.48531e+06
3.4854e+06
3.48552e+06
3.48566e+06
3.48582e+06
3.48599e+06
3.48617e+06
3.48635e+06
3.48652e+06
3.66984e+06
3.66257e+06
3.66887e+06
3.66187e+06
3.66198e+06
3.65802e+06
3.65488e+06
3.65162e+06
3.65146e+06
3.64222e+06
3.59755e+06
3.55298e+06
3.54571e+06
3.53122e+06
3.52323e+06
3.5153e+06
3.5093e+06
3.50421e+06
3.50009e+06
3.49672e+06
3.49399e+06
3.4918e+06
3.49005e+06
3.48868e+06
3.48762e+06
3.48681e+06
3.48621e+06
3.48578e+06
3.48549e+06
3.48531e+06
3.48521e+06
3.48519e+06
3.48523e+06
3.48531e+06
3.48542e+06
3.48555e+06
3.48571e+06
3.48587e+06
3.48605e+06
3.48623e+06
3.4864e+06
3.67736e+06
3.68386e+06
3.6783e+06
3.67917e+06
3.67517e+06
3.67412e+06
3.6724e+06
3.66851e+06
3.67554e+06
3.6645e+06
3.62548e+06
3.56484e+06
3.55692e+06
3.53841e+06
3.52933e+06
3.51963e+06
3.51271e+06
3.50672e+06
3.50199e+06
3.49812e+06
3.49503e+06
3.49255e+06
3.49059e+06
3.48906e+06
3.48788e+06
3.48697e+06
3.4863e+06
3.48582e+06
3.48548e+06
3.48527e+06
3.48516e+06
3.48512e+06
3.48514e+06
3.48521e+06
3.48531e+06
3.48544e+06
3.48559e+06
3.48576e+06
3.48593e+06
3.48611e+06
3.48628e+06
3.68232e+06
3.70489e+06
3.68548e+06
3.69588e+06
3.68688e+06
3.68888e+06
3.68668e+06
3.68247e+06
3.69307e+06
3.67803e+06
3.65015e+06
3.57934e+06
3.56733e+06
3.5464e+06
3.5354e+06
3.52409e+06
3.51606e+06
3.50915e+06
3.50377e+06
3.4994e+06
3.49594e+06
3.4932e+06
3.49104e+06
3.48936e+06
3.48806e+06
3.48708e+06
3.48635e+06
3.48582e+06
3.48545e+06
3.48521e+06
3.48508e+06
3.48503e+06
3.48504e+06
3.4851e+06
3.4852e+06
3.48533e+06
3.48547e+06
3.48564e+06
3.48581e+06
3.48599e+06
3.48617e+06
3.68818e+06
3.72255e+06
3.6931e+06
3.71034e+06
3.69741e+06
3.70149e+06
3.69652e+06
3.69269e+06
3.69957e+06
3.685e+06
3.66853e+06
3.59963e+06
3.57627e+06
3.55549e+06
3.54124e+06
3.52864e+06
3.51921e+06
3.51142e+06
3.50536e+06
3.5005e+06
3.49669e+06
3.4937e+06
3.49136e+06
3.48955e+06
3.48817e+06
3.48712e+06
3.48634e+06
3.48578e+06
3.48539e+06
3.48513e+06
3.48498e+06
3.48492e+06
3.48493e+06
3.48498e+06
3.48508e+06
3.48521e+06
3.48535e+06
3.48552e+06
3.48569e+06
3.48587e+06
3.48605e+06
3.69755e+06
3.73535e+06
3.70314e+06
3.7225e+06
3.70855e+06
3.71373e+06
3.70685e+06
3.70611e+06
3.70549e+06
3.70193e+06
3.68974e+06
3.63083e+06
3.58539e+06
3.56625e+06
3.54691e+06
3.53318e+06
3.52205e+06
3.51342e+06
3.50665e+06
3.50135e+06
3.49722e+06
3.49401e+06
3.49153e+06
3.48963e+06
3.48817e+06
3.48708e+06
3.48627e+06
3.48569e+06
3.48528e+06
3.48502e+06
3.48487e+06
3.4848e+06
3.48481e+06
3.48486e+06
3.48496e+06
3.48508e+06
3.48523e+06
3.4854e+06
3.48557e+06
3.48575e+06
3.48593e+06
3.70918e+06
3.7431e+06
3.71309e+06
3.73093e+06
3.71867e+06
3.724e+06
3.71843e+06
3.72223e+06
3.71979e+06
3.72777e+06
3.71477e+06
3.66746e+06
3.59613e+06
3.57729e+06
3.55231e+06
3.53733e+06
3.52439e+06
3.51496e+06
3.50753e+06
3.50186e+06
3.49748e+06
3.49411e+06
3.49153e+06
3.48956e+06
3.48807e+06
3.48696e+06
3.48614e+06
3.48555e+06
3.48515e+06
3.48488e+06
3.48473e+06
3.48467e+06
3.48467e+06
3.48473e+06
3.48483e+06
3.48496e+06
3.48511e+06
3.48527e+06
3.48545e+06
3.48563e+06
3.48582e+06
3.7142e+06
3.74185e+06
3.7179e+06
3.73268e+06
3.72317e+06
3.72799e+06
3.72582e+06
3.73411e+06
3.73508e+06
3.74835e+06
3.73396e+06
3.69983e+06
3.61031e+06
3.5856e+06
3.55714e+06
3.54029e+06
3.52595e+06
3.51578e+06
3.50786e+06
3.50193e+06
3.49739e+06
3.49394e+06
3.49133e+06
3.48935e+06
3.48786e+06
3.48675e+06
3.48594e+06
3.48536e+06
3.48497e+06
3.48471e+06
3.48457e+06
3.48451e+06
3.48452e+06
3.48459e+06
3.48469e+06
3.48482e+06
3.48498e+06
3.48515e+06
3.48533e+06
3.48551e+06
3.4857e+06
3.71137e+06
3.73235e+06
3.71473e+06
3.726e+06
3.71868e+06
3.72289e+06
3.7249e+06
3.7371e+06
3.74235e+06
3.75589e+06
3.74424e+06
3.72205e+06
3.63113e+06
3.58887e+06
3.56107e+06
3.54131e+06
3.52642e+06
3.51563e+06
3.50751e+06
3.50146e+06
3.49691e+06
3.49348e+06
3.4909e+06
3.48896e+06
3.48751e+06
3.48645e+06
3.48567e+06
3.48512e+06
3.48475e+06
3.48451e+06
3.48438e+06
3.48434e+06
3.48436e+06
3.48444e+06
3.48455e+06
3.48469e+06
3.48485e+06
3.48502e+06
3.48521e+06
3.4854e+06
3.48559e+06
3.69831e+06
3.71332e+06
3.70133e+06
3.70986e+06
3.70407e+06
3.70821e+06
3.71496e+06
3.73062e+06
3.74035e+06
3.75352e+06
3.74601e+06
3.73181e+06
3.65523e+06
3.58684e+06
3.56275e+06
3.53984e+06
3.52538e+06
3.51426e+06
3.50632e+06
3.50038e+06
3.49598e+06
3.4927e+06
3.49024e+06
3.48841e+06
3.48704e+06
3.48605e+06
3.48533e+06
3.48482e+06
3.48449e+06
3.48428e+06
3.48418e+06
3.48415e+06
3.48419e+06
3.48427e+06
3.4844e+06
3.48454e+06
3.48471e+06
3.48489e+06
3.48508e+06
3.48528e+06
3.48547e+06
3.67781e+06
3.68721e+06
3.67937e+06
3.68522e+06
3.68003e+06
3.68492e+06
3.69592e+06
3.71436e+06
3.72812e+06
3.74088e+06
3.73696e+06
3.72488e+06
3.66945e+06
3.5819e+06
3.55919e+06
3.53562e+06
3.52228e+06
3.51152e+06
3.50418e+06
3.49864e+06
3.4946e+06
3.49158e+06
3.48934e+06
3.48768e+06
3.48645e+06
3.48555e+06
3.48491e+06
3.48447e+06
3.48419e+06
3.48402e+06
3.48395e+06
3.48395e+06
3.484e+06
3.48411e+06
3.48424e+06
3.4844e+06
3.48457e+06
3.48476e+06
3.48496e+06
3.48516e+06
3.48536e+06
3.6505e+06
3.65468e+06
3.65137e+06
3.65443e+06
3.64978e+06
3.65595e+06
3.6688e+06
3.68728e+06
3.70236e+06
3.71171e+06
3.71235e+06
3.69728e+06
3.66464e+06
3.57546e+06
3.54841e+06
3.52863e+06
3.51676e+06
3.5074e+06
3.50105e+06
3.49624e+06
3.49276e+06
3.49015e+06
3.48822e+06
3.48679e+06
3.48574e+06
3.48497e+06
3.48444e+06
3.48408e+06
3.48385e+06
3.48373e+06
3.4837e+06
3.48373e+06
3.48381e+06
3.48393e+06
3.48408e+06
3.48425e+06
3.48443e+06
3.48463e+06
3.48484e+06
3.48504e+06
3.48525e+06
3.62223e+06
3.62077e+06
3.62225e+06
3.62139e+06
3.61937e+06
3.62369e+06
3.63659e+06
3.64959e+06
3.66132e+06
3.66408e+06
3.66924e+06
3.65384e+06
3.63928e+06
3.56559e+06
3.53153e+06
3.51877e+06
3.509e+06
3.50203e+06
3.49704e+06
3.49328e+06
3.49053e+06
3.48845e+06
3.4869e+06
3.48576e+06
3.48492e+06
3.48432e+06
3.48391e+06
3.48364e+06
3.48348e+06
3.48342e+06
3.48343e+06
3.48349e+06
3.4836e+06
3.48374e+06
3.48391e+06
3.48409e+06
3.48429e+06
3.4845e+06
3.48471e+06
3.48492e+06
3.48513e+06
3.59618e+06
3.58909e+06
3.59516e+06
3.58981e+06
3.5928e+06
3.59204e+06
3.60164e+06
3.60546e+06
3.60969e+06
3.60564e+06
3.61259e+06
3.60317e+06
3.5983e+06
3.54813e+06
3.51185e+06
3.50626e+06
3.49981e+06
3.49572e+06
3.49241e+06
3.48991e+06
3.488e+06
3.48654e+06
3.48544e+06
3.48462e+06
3.48402e+06
3.4836e+06
3.48332e+06
3.48316e+06
3.48309e+06
3.48309e+06
3.48314e+06
3.48325e+06
3.48338e+06
3.48355e+06
3.48373e+06
3.48394e+06
3.48415e+06
3.48436e+06
3.48458e+06
3.4848e+06
3.48502e+06
3.57241e+06
3.56332e+06
3.57048e+06
3.56397e+06
3.56827e+06
3.56481e+06
3.56635e+06
3.56157e+06
3.55784e+06
3.54944e+06
3.55534e+06
3.55357e+06
3.55341e+06
3.5225e+06
3.4932e+06
3.49218e+06
3.49027e+06
3.48894e+06
3.48751e+06
3.48631e+06
3.48531e+06
3.4845e+06
3.48387e+06
3.4834e+06
3.48306e+06
3.48284e+06
3.48271e+06
3.48266e+06
3.48267e+06
3.48274e+06
3.48285e+06
3.48299e+06
3.48316e+06
3.48335e+06
3.48356e+06
3.48377e+06
3.484e+06
3.48423e+06
3.48446e+06
3.48469e+06
3.48491e+06
3.51585e+06
3.50643e+06
3.51028e+06
3.51355e+06
3.51621e+06
3.49709e+06
3.47862e+06
3.47907e+06
3.48155e+06
3.48238e+06
3.48274e+06
3.48273e+06
3.48261e+06
3.48243e+06
3.48227e+06
3.48214e+06
3.48207e+06
3.48204e+06
3.48206e+06
3.48213e+06
3.48224e+06
3.48237e+06
3.48254e+06
3.48272e+06
3.48293e+06
3.48315e+06
3.48338e+06
3.48361e+06
3.48385e+06
3.48409e+06
3.48433e+06
3.48457e+06
3.4848e+06
3.48334e+06
3.48411e+06
3.4848e+06
3.4854e+06
3.48594e+06
3.48643e+06
3.48687e+06
3.48727e+06
3.48764e+06
3.48798e+06
3.48829e+06
3.48858e+06
3.48885e+06
3.4891e+06
3.48933e+06
3.48955e+06
3.48976e+06
3.48995e+06
3.49013e+06
3.4903e+06
3.47902e+06
3.48048e+06
3.48176e+06
3.4828e+06
3.48371e+06
3.48448e+06
3.48516e+06
3.48575e+06
3.48628e+06
3.48676e+06
3.48718e+06
3.48757e+06
3.48792e+06
3.48824e+06
3.48853e+06
3.48881e+06
3.48906e+06
3.48929e+06
3.48951e+06
3.48972e+06
3.48991e+06
3.49009e+06
3.43921e+06
3.42317e+06
3.43746e+06
3.42631e+06
3.43163e+06
3.42174e+06
3.42132e+06
3.41168e+06
3.39841e+06
3.42313e+06
3.45545e+06
3.46326e+06
3.46748e+06
3.47166e+06
3.47443e+06
3.47688e+06
3.47873e+06
3.48031e+06
3.4816e+06
3.48269e+06
3.48362e+06
3.48442e+06
3.48512e+06
3.48573e+06
3.48627e+06
3.48675e+06
3.48718e+06
3.48756e+06
3.48791e+06
3.48823e+06
3.48853e+06
3.4888e+06
3.48904e+06
3.48928e+06
3.48949e+06
3.48969e+06
3.48988e+06
3.42678e+06
3.41163e+06
3.42495e+06
3.41411e+06
3.41855e+06
3.40981e+06
3.40923e+06
3.39954e+06
3.38619e+06
3.41204e+06
3.42513e+06
3.4422e+06
3.45021e+06
3.45897e+06
3.46409e+06
3.46888e+06
3.47217e+06
3.47502e+06
3.4772e+06
3.47903e+06
3.48052e+06
3.48178e+06
3.48284e+06
3.48375e+06
3.48454e+06
3.48522e+06
3.48581e+06
3.48634e+06
3.48681e+06
3.48723e+06
3.4876e+06
3.48795e+06
3.48826e+06
3.48854e+06
3.4888e+06
3.48905e+06
3.48927e+06
3.48948e+06
3.48967e+06
3.41684e+06
3.40573e+06
3.41552e+06
3.40737e+06
3.40933e+06
3.40297e+06
3.40151e+06
3.39227e+06
3.37849e+06
3.40427e+06
3.41934e+06
3.43702e+06
3.44628e+06
3.45562e+06
3.46142e+06
3.46665e+06
3.47034e+06
3.47348e+06
3.47591e+06
3.47794e+06
3.4796e+06
3.48099e+06
3.48216e+06
3.48316e+06
3.48401e+06
3.48475e+06
3.4854e+06
3.48597e+06
3.48647e+06
3.48691e+06
3.48731e+06
3.48767e+06
3.488e+06
3.4883e+06
3.48857e+06
3.48882e+06
3.48905e+06
3.48927e+06
3.48947e+06
3.48965e+06
3.41039e+06
3.40553e+06
3.40949e+06
3.40597e+06
3.40421e+06
3.40087e+06
3.39775e+06
3.38949e+06
3.37391e+06
3.3984e+06
3.41556e+06
3.43335e+06
3.44359e+06
3.45322e+06
3.45952e+06
3.465e+06
3.46896e+06
3.4723e+06
3.4749e+06
3.47707e+06
3.47884e+06
3.48033e+06
3.48158e+06
3.48265e+06
3.48356e+06
3.48435e+06
3.48503e+06
3.48563e+06
3.48615e+06
3.48662e+06
3.48704e+06
3.48742e+06
3.48775e+06
3.48806e+06
3.48835e+06
3.48861e+06
3.48885e+06
3.48907e+06
3.48927e+06
3.48946e+06
3.40777e+06
3.41003e+06
3.40727e+06
3.40925e+06
3.40333e+06
3.40244e+06
3.39783e+06
3.39057e+06
3.37326e+06
3.39563e+06
3.41396e+06
3.4314e+06
3.44221e+06
3.45183e+06
3.45839e+06
3.46395e+06
3.46806e+06
3.47149e+06
3.47418e+06
3.47643e+06
3.47827e+06
3.47982e+06
3.48112e+06
3.48223e+06
3.48318e+06
3.484e+06
3.48471e+06
3.48533e+06
3.48587e+06
3.48636e+06
3.48679e+06
3.48718e+06
3.48752e+06
3.48784e+06
3.48813e+06
3.4884e+06
3.48864e+06
3.48887e+06
3.48908e+06
3.48927e+06
3.48945e+06
3.41006e+06
3.41834e+06
3.40996e+06
3.41641e+06
3.40702e+06
3.40707e+06
3.40179e+06
3.39507e+06
3.37642e+06
3.39591e+06
3.41448e+06
3.43114e+06
3.4421e+06
3.45143e+06
3.45803e+06
3.4635e+06
3.46763e+06
3.47104e+06
3.47376e+06
3.47602e+06
3.47788e+06
3.47945e+06
3.48078e+06
3.48191e+06
3.48287e+06
3.48371e+06
3.48443e+06
3.48507e+06
3.48562e+06
3.48612e+06
3.48656e+06
3.48695e+06
3.48731e+06
3.48763e+06
3.48793e+06
3.4882e+06
3.48845e+06
3.48868e+06
3.48889e+06
3.48909e+06
3.48927e+06
3.41771e+06
3.42896e+06
3.41825e+06
3.42656e+06
3.4158e+06
3.41517e+06
3.41078e+06
3.4039e+06
3.38416e+06
3.39853e+06
3.41713e+06
3.43239e+06
3.4432e+06
3.45195e+06
3.45839e+06
3.46362e+06
3.46765e+06
3.47096e+06
3.47363e+06
3.47585e+06
3.47769e+06
3.47924e+06
3.48056e+06
3.48168e+06
3.48265e+06
3.48349e+06
3.48421e+06
3.48485e+06
3.48541e+06
3.48591e+06
3.48635e+06
3.48675e+06
3.48711e+06
3.48744e+06
3.48773e+06
3.48801e+06
3.48826e+06
3.48849e+06
3.48871e+06
3.48891e+06
3.4891e+06
3.4319e+06
3.44156e+06
3.43233e+06
3.43891e+06
3.42957e+06
3.42731e+06
3.42526e+06
3.41773e+06
3.39639e+06
3.40391e+06
3.42192e+06
3.43507e+06
3.44543e+06
3.45331e+06
3.45943e+06
3.46427e+06
3.4681e+06
3.47122e+06
3.47377e+06
3.47589e+06
3.47767e+06
3.47917e+06
3.48046e+06
3.48155e+06
3.4825e+06
3.48333e+06
3.48404e+06
3.48467e+06
3.48523e+06
3.48572e+06
3.48616e+06
3.48656e+06
3.48692e+06
3.48725e+06
3.48755e+06
3.48783e+06
3.48808e+06
3.48832e+06
3.48853e+06
3.48874e+06
3.48892e+06
3.45137e+06
3.45515e+06
3.45129e+06
3.45296e+06
3.4475e+06
3.44347e+06
3.44407e+06
3.43594e+06
3.41252e+06
3.41156e+06
3.42847e+06
3.43896e+06
3.44862e+06
3.4554e+06
3.46106e+06
3.46538e+06
3.46893e+06
3.47179e+06
3.47417e+06
3.47615e+06
3.47782e+06
3.47925e+06
3.48047e+06
3.48152e+06
3.48243e+06
3.48323e+06
3.48392e+06
3.48454e+06
3.48508e+06
3.48557e+06
3.486e+06
3.48639e+06
3.48675e+06
3.48708e+06
3.48738e+06
3.48765e+06
3.48791e+06
3.48814e+06
3.48836e+06
3.48857e+06
3.48876e+06
3.47435e+06
3.46947e+06
3.47368e+06
3.4685e+06
3.46836e+06
3.4624e+06
3.46585e+06
3.45684e+06
3.43156e+06
3.42088e+06
3.43624e+06
3.44376e+06
3.45255e+06
3.45806e+06
3.46316e+06
3.46689e+06
3.47008e+06
3.47263e+06
3.47479e+06
3.47659e+06
3.47813e+06
3.47945e+06
3.48059e+06
3.48157e+06
3.48244e+06
3.48319e+06
3.48385e+06
3.48444e+06
3.48497e+06
3.48544e+06
3.48586e+06
3.48624e+06
3.48659e+06
3.48692e+06
3.48721e+06
3.48749e+06
3.48774e+06
3.48798e+06
3.4882e+06
3.4884e+06
3.48859e+06
3.49838e+06
3.48428e+06
3.497e+06
3.48497e+06
3.49031e+06
3.48262e+06
3.48878e+06
3.47887e+06
3.45254e+06
3.4313e+06
3.44475e+06
3.44917e+06
3.45697e+06
3.46115e+06
3.46562e+06
3.46871e+06
3.47151e+06
3.4737e+06
3.47561e+06
3.47721e+06
3.47859e+06
3.47977e+06
3.48081e+06
3.48171e+06
3.48251e+06
3.48321e+06
3.48383e+06
3.48439e+06
3.48488e+06
3.48533e+06
3.48574e+06
3.48611e+06
3.48645e+06
3.48677e+06
3.48706e+06
3.48733e+06
3.48758e+06
3.48782e+06
3.48804e+06
3.48824e+06
3.48843e+06
3.52012e+06
3.49901e+06
3.51841e+06
3.50149e+06
3.51105e+06
3.50254e+06
3.51069e+06
3.50051e+06
3.47384e+06
3.44214e+06
3.45332e+06
3.45484e+06
3.4616e+06
3.4645e+06
3.46833e+06
3.47076e+06
3.47314e+06
3.47497e+06
3.4766e+06
3.47797e+06
3.47917e+06
3.48021e+06
3.48112e+06
3.48193e+06
3.48264e+06
3.48328e+06
3.48385e+06
3.48437e+06
3.48483e+06
3.48525e+06
3.48564e+06
3.486e+06
3.48632e+06
3.48663e+06
3.48691e+06
3.48718e+06
3.48743e+06
3.48766e+06
3.48788e+06
3.48808e+06
3.48828e+06
3.53696e+06
3.5131e+06
3.53527e+06
3.51668e+06
3.52849e+06
3.5203e+06
3.52937e+06
3.51967e+06
3.49352e+06
3.45274e+06
3.46123e+06
3.46051e+06
3.4662e+06
3.46799e+06
3.47117e+06
3.47299e+06
3.47494e+06
3.4764e+06
3.47774e+06
3.47886e+06
3.47986e+06
3.48073e+06
3.48152e+06
3.48221e+06
3.48284e+06
3.4834e+06
3.48391e+06
3.48438e+06
3.4848e+06
3.4852e+06
3.48556e+06
3.48589e+06
3.48621e+06
3.4865e+06
3.48678e+06
3.48704e+06
3.48728e+06
3.48751e+06
3.48773e+06
3.48793e+06
3.48812e+06
3.54708e+06
3.5261e+06
3.54578e+06
3.52987e+06
3.5409e+06
3.53415e+06
3.54306e+06
3.53411e+06
3.50965e+06
3.46247e+06
3.46786e+06
3.46595e+06
3.47056e+06
3.47152e+06
3.47407e+06
3.47535e+06
3.47687e+06
3.47795e+06
3.47899e+06
3.47986e+06
3.48065e+06
3.48135e+06
3.48198e+06
3.48256e+06
3.48308e+06
3.48357e+06
3.48401e+06
3.48442e+06
3.4848e+06
3.48516e+06
3.48549e+06
3.48581e+06
3.4861e+06
3.48638e+06
3.48665e+06
3.4869e+06
3.48714e+06
3.48737e+06
3.48758e+06
3.48778e+06
3.48797e+06
3.55073e+06
3.53805e+06
3.54983e+06
3.54068e+06
3.548e+06
3.54337e+06
3.55104e+06
3.54296e+06
3.52121e+06
3.4714e+06
3.47301e+06
3.47117e+06
3.47462e+06
3.47511e+06
3.477e+06
3.47781e+06
3.4789e+06
3.47962e+06
3.48035e+06
3.48096e+06
3.48153e+06
3.48204e+06
3.48252e+06
3.48296e+06
3.48338e+06
3.48377e+06
3.48414e+06
3.48449e+06
3.48482e+06
3.48514e+06
3.48544e+06
3.48573e+06
3.48601e+06
3.48627e+06
3.48653e+06
3.48677e+06
3.487e+06
3.48723e+06
3.48744e+06
3.48764e+06
3.48783e+06
3.54932e+06
3.54912e+06
3.54931e+06
3.54957e+06
3.55106e+06
3.54857e+06
3.55436e+06
3.54652e+06
3.52854e+06
3.48007e+06
3.47694e+06
3.47639e+06
3.47847e+06
3.47879e+06
3.47999e+06
3.4804e+06
3.48103e+06
3.4814e+06
3.48181e+06
3.48214e+06
3.48248e+06
3.48279e+06
3.4831e+06
3.48341e+06
3.48371e+06
3.48401e+06
3.4843e+06
3.48458e+06
3.48486e+06
3.48514e+06
3.48541e+06
3.48567e+06
3.48592e+06
3.48617e+06
3.48641e+06
3.48665e+06
3.48687e+06
3.48709e+06
3.4873e+06
3.4875e+06
3.48769e+06
3.54755e+06
3.55954e+06
3.54827e+06
3.5573e+06
3.55299e+06
3.55217e+06
3.55531e+06
3.54781e+06
3.53386e+06
3.48975e+06
3.48055e+06
3.48204e+06
3.48238e+06
3.48272e+06
3.48309e+06
3.48314e+06
3.48328e+06
3.48329e+06
3.48335e+06
3.4834e+06
3.48349e+06
3.4836e+06
3.48374e+06
3.4839e+06
3.48408e+06
3.48427e+06
3.48448e+06
3.48469e+06
3.48492e+06
3.48515e+06
3.48538e+06
3.48561e+06
3.48585e+06
3.48608e+06
3.48631e+06
3.48653e+06
3.48675e+06
3.48696e+06
3.48716e+06
3.48736e+06
3.48755e+06
3.55118e+06
3.56952e+06
3.5524e+06
3.56521e+06
3.55783e+06
3.55753e+06
3.55786e+06
3.55197e+06
3.54139e+06
3.50223e+06
3.48522e+06
3.48859e+06
3.4867e+06
3.48703e+06
3.48641e+06
3.48607e+06
3.48565e+06
3.48529e+06
3.48498e+06
3.48474e+06
3.48457e+06
3.48446e+06
3.48441e+06
3.48442e+06
3.48447e+06
3.48456e+06
3.48467e+06
3.48482e+06
3.48499e+06
3.48517e+06
3.48536e+06
3.48557e+06
3.48578e+06
3.48599e+06
3.4862e+06
3.48641e+06
3.48662e+06
3.48683e+06
3.48703e+06
3.48723e+06
3.48741e+06
3.56449e+06
3.57883e+06
3.56537e+06
3.5743e+06
3.56871e+06
3.56738e+06
3.56618e+06
3.56303e+06
3.55477e+06
3.51873e+06
3.49222e+06
3.49637e+06