/*--------------------------------*- C++ -*----------------------------------*\
| =========                 |                                                 |
| \\      /  F ield         | OpenFOAM: The Open Source CFD Toolbox           |
|  \\    /   O peration     | Version:  v2012                                 |
|   \\  /    A nd           | Website:  www.openfoam.com                      |
|    \\/     M anipulation  |                                                 |
\*---------------------------------------------------------------------------*/
FoamFile
{
    version     2.0;
    format      ascii;
    class       volScalarField;
    location    "0.65";
    object      p_rgh;
}
// * * * * * * * * * * * * * * * * * * * * * * * * * * * * * * * * * * * * * //

dimensions      [1 -1 -2 0 0 0 0];


internalField   nonuniform List<scalar> 
3326
(
3.48736e+06
3.48738e+06
3.48736e+06
3.48732e+06
3.48725e+06
3.48715e+06
3.48701e+06
3.48685e+06
3.48659e+06
3.48715e+06
3.48723e+06
3.48728e+06
3.48732e+06
3.48733e+06
3.48732e+06
3.48728e+06
3.48721e+06
3.48711e+06
3.48697e+06
3.48681e+06
3.48656e+06
3.48594e+06
3.48645e+06
3.48613e+06
3.48603e+06
3.48571e+06
3.48548e+06
3.48522e+06
3.48501e+06
3.48482e+06
3.48468e+06
3.48458e+06
3.48452e+06
3.48449e+06
3.4845e+06
3.48453e+06
3.4846e+06
3.48468e+06
3.48479e+06
3.48491e+06
3.48505e+06
3.4852e+06
3.48535e+06
3.48552e+06
3.48568e+06
3.48585e+06
3.48602e+06
3.48619e+06
3.48635e+06
3.4865e+06
3.48665e+06
3.48678e+06
3.48691e+06
3.48702e+06
3.48711e+06
3.48719e+06
3.48724e+06
3.48728e+06
3.48729e+06
3.48728e+06
3.48724e+06
3.48717e+06
3.48708e+06
3.48693e+06
3.48677e+06
3.48652e+06
3.48856e+06
3.48861e+06
3.48804e+06
3.48764e+06
3.48709e+06
3.48664e+06
3.4862e+06
3.48583e+06
3.48551e+06
3.48526e+06
3.48506e+06
3.48492e+06
3.48482e+06
3.48477e+06
3.48475e+06
3.48477e+06
3.48482e+06
3.4849e+06
3.485e+06
3.48511e+06
3.48524e+06
3.48538e+06
3.48554e+06
3.48569e+06
3.48585e+06
3.48601e+06
3.48617e+06
3.48633e+06
3.48648e+06
3.48662e+06
3.48675e+06
3.48687e+06
3.48698e+06
3.48707e+06
3.48715e+06
3.48721e+06
3.48724e+06
3.48725e+06
3.48724e+06
3.48721e+06
3.48714e+06
3.48704e+06
3.4869e+06
3.48674e+06
3.4865e+06
3.49171e+06
3.49113e+06
3.4902e+06
3.48941e+06
3.48858e+06
3.48788e+06
3.48723e+06
3.48669e+06
3.48623e+06
3.48585e+06
3.48555e+06
3.48532e+06
3.48515e+06
3.48504e+06
3.48497e+06
3.48495e+06
3.48496e+06
3.48501e+06
3.48508e+06
3.48518e+06
3.48529e+06
3.48541e+06
3.48555e+06
3.4857e+06
3.48585e+06
3.486e+06
3.48616e+06
3.48631e+06
3.48645e+06
3.48659e+06
3.48672e+06
3.48684e+06
3.48695e+06
3.48704e+06
3.48711e+06
3.48717e+06
3.48721e+06
3.48722e+06
3.48721e+06
3.48717e+06
3.4871e+06
3.48701e+06
3.48687e+06
3.48671e+06
3.48647e+06
3.4954e+06
3.49401e+06
3.4926e+06
3.49134e+06
3.49018e+06
3.48918e+06
3.48831e+06
3.48757e+06
3.48695e+06
3.48645e+06
3.48604e+06
3.48572e+06
3.48548e+06
3.4853e+06
3.48518e+06
3.48512e+06
3.4851e+06
3.48511e+06
3.48516e+06
3.48524e+06
3.48533e+06
3.48544e+06
3.48557e+06
3.48571e+06
3.48585e+06
3.48599e+06
3.48614e+06
3.48629e+06
3.48643e+06
3.48657e+06
3.4867e+06
3.48681e+06
3.48692e+06
3.48701e+06
3.48708e+06
3.48714e+06
3.48717e+06
3.48719e+06
3.48718e+06
3.48714e+06
3.48707e+06
3.48698e+06
3.48684e+06
3.48669e+06
3.48645e+06
3.49955e+06
3.4972e+06
3.49522e+06
3.49343e+06
3.49188e+06
3.49055e+06
3.48942e+06
3.48847e+06
3.48769e+06
3.48704e+06
3.48652e+06
3.48611e+06
3.48579e+06
3.48556e+06
3.48539e+06
3.48528e+06
3.48523e+06
3.48522e+06
3.48524e+06
3.48529e+06
3.48537e+06
3.48547e+06
3.48559e+06
3.48571e+06
3.48585e+06
3.48599e+06
3.48613e+06
3.48627e+06
3.48641e+06
3.48654e+06
3.48667e+06
3.48679e+06
3.48689e+06
3.48698e+06
3.48705e+06
3.48711e+06
3.48715e+06
3.48716e+06
3.48715e+06
3.48711e+06
3.48705e+06
3.48695e+06
3.48682e+06
3.48667e+06
3.48643e+06
3.50406e+06
3.50065e+06
3.498e+06
3.49562e+06
3.49364e+06
3.49196e+06
3.49055e+06
3.48938e+06
3.48842e+06
3.48763e+06
3.487e+06
3.48649e+06
3.4861e+06
3.4858e+06
3.48559e+06
3.48544e+06
3.48535e+06
3.48531e+06
3.48531e+06
3.48535e+06
3.48541e+06
3.4855e+06
3.4856e+06
3.48572e+06
3.48585e+06
3.48598e+06
3.48612e+06
3.48626e+06
3.48639e+06
3.48652e+06
3.48665e+06
3.48676e+06
3.48687e+06
3.48695e+06
3.48703e+06
3.48708e+06
3.48712e+06
3.48713e+06
3.48712e+06
3.48709e+06
3.48702e+06
3.48693e+06
3.4868e+06
3.48665e+06
3.48642e+06
3.50879e+06
3.50427e+06
3.5009e+06
3.49789e+06
3.49544e+06
3.49338e+06
3.49169e+06
3.49029e+06
3.48914e+06
3.48821e+06
3.48746e+06
3.48686e+06
3.48639e+06
3.48604e+06
3.48577e+06
3.48559e+06
3.48546e+06
3.4854e+06
3.48538e+06
3.4854e+06
3.48544e+06
3.48552e+06
3.48561e+06
3.48572e+06
3.48584e+06
3.48597e+06
3.48611e+06
3.48624e+06
3.48637e+06
3.4865e+06
3.48663e+06
3.48674e+06
3.48684e+06
3.48693e+06
3.487e+06
3.48706e+06
3.48709e+06
3.48711e+06
3.4871e+06
3.48706e+06
3.487e+06
3.48691e+06
3.48678e+06
3.48664e+06
3.48641e+06
3.51367e+06
3.50803e+06
3.50385e+06
3.50018e+06
3.49724e+06
3.49479e+06
3.4928e+06
3.49116e+06
3.48983e+06
3.48876e+06
3.48789e+06
3.48721e+06
3.48667e+06
3.48625e+06
3.48594e+06
3.48572e+06
3.48557e+06
3.48548e+06
3.48544e+06
3.48544e+06
3.48547e+06
3.48554e+06
3.48562e+06
3.48573e+06
3.48584e+06
3.48597e+06
3.4861e+06
3.48623e+06
3.48636e+06
3.48649e+06
3.48661e+06
3.48672e+06
3.48682e+06
3.48691e+06
3.48698e+06
3.48704e+06
3.48707e+06
3.48709e+06
3.48708e+06
3.48704e+06
3.48698e+06
3.4869e+06
3.48677e+06
3.48662e+06
3.4864e+06
3.51864e+06
3.51186e+06
3.50678e+06
3.50244e+06
3.49899e+06
3.49615e+06
3.49386e+06
3.49199e+06
3.49048e+06
3.48927e+06
3.4883e+06
3.48752e+06
3.48692e+06
3.48645e+06
3.4861e+06
3.48584e+06
3.48566e+06
3.48555e+06
3.48549e+06
3.48548e+06
3.4855e+06
3.48555e+06
3.48563e+06
3.48573e+06
3.48584e+06
3.48596e+06
3.48608e+06
3.48621e+06
3.48634e+06
3.48647e+06
3.48659e+06
3.4867e+06
3.4868e+06
3.48689e+06
3.48696e+06
3.48702e+06
3.48705e+06
3.48707e+06
3.48706e+06
3.48703e+06
3.48697e+06
3.48688e+06
3.48676e+06
3.48662e+06
3.4864e+06
3.52359e+06
3.5157e+06
3.50962e+06
3.50463e+06
3.50065e+06
3.49743e+06
3.49485e+06
3.49276e+06
3.49108e+06
3.48973e+06
3.48866e+06
3.48781e+06
3.48714e+06
3.48662e+06
3.48623e+06
3.48594e+06
3.48574e+06
3.48561e+06
3.48553e+06
3.48551e+06
3.48552e+06
3.48557e+06
3.48564e+06
3.48573e+06
3.48583e+06
3.48595e+06
3.48607e+06
3.4862e+06
3.48633e+06
3.48645e+06
3.48657e+06
3.48669e+06
3.48679e+06
3.48687e+06
3.48695e+06
3.487e+06
3.48704e+06
3.48705e+06
3.48704e+06
3.48701e+06
3.48695e+06
3.48687e+06
3.48675e+06
3.48661e+06
3.4864e+06
3.52826e+06
3.51937e+06
3.51224e+06
3.50664e+06
3.50216e+06
3.49859e+06
3.49572e+06
3.49343e+06
3.4916e+06
3.49014e+06
3.48897e+06
3.48805e+06
3.48733e+06
3.48677e+06
3.48635e+06
3.48603e+06
3.48581e+06
3.48566e+06
3.48557e+06
3.48553e+06
3.48554e+06
3.48557e+06
3.48564e+06
3.48573e+06
3.48583e+06
3.48594e+06
3.48606e+06
3.48619e+06
3.48632e+06
3.48644e+06
3.48656e+06
3.48667e+06
3.48677e+06
3.48686e+06
3.48693e+06
3.48699e+06
3.48702e+06
3.48704e+06
3.48703e+06
3.487e+06
3.48694e+06
3.48686e+06
3.48674e+06
3.48661e+06
3.4864e+06
3.53222e+06
3.52256e+06
3.5145e+06
3.50837e+06
3.50345e+06
3.49957e+06
3.49647e+06
3.494e+06
3.49204e+06
3.49047e+06
3.48923e+06
3.48825e+06
3.48748e+06
3.48689e+06
3.48643e+06
3.4861e+06
3.48586e+06
3.48569e+06
3.48559e+06
3.48555e+06
3.48555e+06
3.48558e+06
3.48564e+06
3.48572e+06
3.48582e+06
3.48593e+06
3.48605e+06
3.48618e+06
3.4863e+06
3.48643e+06
3.48655e+06
3.48666e+06
3.48676e+06
3.48685e+06
3.48692e+06
3.48698e+06
3.48701e+06
3.48703e+06
3.48702e+06
3.48699e+06
3.48693e+06
3.48685e+06
3.48674e+06
3.48661e+06
3.4864e+06
3.53537e+06
3.52507e+06
3.5163e+06
3.50975e+06
3.50446e+06
3.50034e+06
3.49704e+06
3.49444e+06
3.49237e+06
3.49072e+06
3.48942e+06
3.4884e+06
3.48759e+06
3.48697e+06
3.4865e+06
3.48614e+06
3.48589e+06
3.48572e+06
3.48561e+06
3.48556e+06
3.48555e+06
3.48558e+06
3.48564e+06
3.48572e+06
3.48581e+06
3.48592e+06
3.48604e+06
3.48617e+06
3.48629e+06
3.48642e+06
3.48654e+06
3.48665e+06
3.48675e+06
3.48684e+06
3.48691e+06
3.48697e+06
3.487e+06
3.48702e+06
3.48701e+06
3.48698e+06
3.48693e+06
3.48685e+06
3.48674e+06
3.48661e+06
3.48641e+06
3.53787e+06
3.52678e+06
3.5176e+06
3.5107e+06
3.50517e+06
3.50086e+06
3.49743e+06
3.49473e+06
3.49258e+06
3.49088e+06
3.48954e+06
3.48849e+06
3.48766e+06
3.48702e+06
3.48653e+06
3.48617e+06
3.48591e+06
3.48573e+06
3.48561e+06
3.48556e+06
3.48555e+06
3.48557e+06
3.48563e+06
3.48571e+06
3.4858e+06
3.48591e+06
3.48603e+06
3.48616e+06
3.48628e+06
3.48641e+06
3.48653e+06
3.48664e+06
3.48674e+06
3.48683e+06
3.4869e+06
3.48696e+06
3.487e+06
3.48701e+06
3.48701e+06
3.48698e+06
3.48693e+06
3.48685e+06
3.48674e+06
3.48661e+06
3.48642e+06
3.53947e+06
3.52765e+06
3.51832e+06
3.51118e+06
3.50552e+06
3.50111e+06
3.49761e+06
3.49486e+06
3.49267e+06
3.49095e+06
3.48959e+06
3.48852e+06
3.48768e+06
3.48703e+06
3.48654e+06
3.48617e+06
3.4859e+06
3.48572e+06
3.48561e+06
3.48555e+06
3.48554e+06
3.48556e+06
3.48562e+06
3.4857e+06
3.48579e+06
3.4859e+06
3.48602e+06
3.48615e+06
3.48628e+06
3.4864e+06
3.48652e+06
3.48663e+06
3.48674e+06
3.48682e+06
3.4869e+06
3.48696e+06
3.48699e+06
3.48701e+06
3.48701e+06
3.48698e+06
3.48692e+06
3.48685e+06
3.48674e+06
3.48662e+06
3.48644e+06
3.53981e+06
3.52766e+06
3.51838e+06
3.51116e+06
3.5055e+06
3.50107e+06
3.49757e+06
3.49482e+06
3.49264e+06
3.49091e+06
3.48955e+06
3.48849e+06
3.48765e+06
3.48701e+06
3.48652e+06
3.48615e+06
3.48589e+06
3.4857e+06
3.48559e+06
3.48553e+06
3.48552e+06
3.48555e+06
3.4856e+06
3.48568e+06
3.48578e+06
3.48589e+06
3.48601e+06
3.48614e+06
3.48627e+06
3.48639e+06
3.48651e+06
3.48663e+06
3.48673e+06
3.48682e+06
3.4869e+06
3.48695e+06
3.48699e+06
3.48701e+06
3.48701e+06
3.48698e+06
3.48693e+06
3.48685e+06
3.48675e+06
3.48663e+06
3.48646e+06
3.53896e+06
3.52686e+06
3.51777e+06
3.51064e+06
3.50509e+06
3.50074e+06
3.49731e+06
3.4946e+06
3.49246e+06
3.49078e+06
3.48944e+06
3.4884e+06
3.48758e+06
3.48695e+06
3.48647e+06
3.48611e+06
3.48585e+06
3.48567e+06
3.48556e+06
3.48551e+06
3.4855e+06
3.48553e+06
3.48559e+06
3.48567e+06
3.48577e+06
3.48588e+06
3.486e+06
3.48613e+06
3.48626e+06
3.48639e+06
3.48651e+06
3.48663e+06
3.48673e+06
3.48682e+06
3.4869e+06
3.48696e+06
3.48699e+06
3.48701e+06
3.48701e+06
3.48698e+06
3.48693e+06
3.48686e+06
3.48676e+06
3.48664e+06
3.48648e+06
3.53689e+06
3.52521e+06
3.51647e+06
3.50961e+06
3.50429e+06
3.5001e+06
3.49681e+06
3.49421e+06
3.49216e+06
3.49054e+06
3.48925e+06
3.48825e+06
3.48746e+06
3.48685e+06
3.48639e+06
3.48604e+06
3.4858e+06
3.48563e+06
3.48553e+06
3.48548e+06
3.48547e+06
3.48551e+06
3.48557e+06
3.48565e+06
3.48575e+06
3.48587e+06
3.48599e+06
3.48612e+06
3.48626e+06
3.48638e+06
3.48651e+06
3.48663e+06
3.48673e+06
3.48682e+06
3.4869e+06
3.48696e+06
3.487e+06
3.48702e+06
3.48701e+06
3.48699e+06
3.48694e+06
3.48687e+06
3.48677e+06
3.48666e+06
3.4865e+06
3.53359e+06
3.52267e+06
3.51449e+06
3.50807e+06
3.5031e+06
3.49919e+06
3.4961e+06
3.49366e+06
3.49173e+06
3.4902e+06
3.48899e+06
3.48804e+06
3.4873e+06
3.48672e+06
3.48628e+06
3.48596e+06
3.48573e+06
3.48557e+06
3.48548e+06
3.48544e+06
3.48544e+06
3.48548e+06
3.48554e+06
3.48563e+06
3.48574e+06
3.48586e+06
3.48598e+06
3.48612e+06
3.48625e+06
3.48638e+06
3.48651e+06
3.48663e+06
3.48673e+06
3.48683e+06
3.48691e+06
3.48697e+06
3.48701e+06
3.48702e+06
3.48702e+06
3.48699e+06
3.48694e+06
3.48688e+06
3.48678e+06
3.48667e+06
3.48652e+06
3.52904e+06
3.51923e+06
3.51185e+06
3.50606e+06
3.50156e+06
3.498e+06
3.49519e+06
3.49296e+06
3.49119e+06
3.48978e+06
3.48866e+06
3.48778e+06
3.48709e+06
3.48656e+06
3.48615e+06
3.48585e+06
3.48564e+06
3.4855e+06
3.48542e+06
3.48539e+06
3.4854e+06
3.48544e+06
3.48552e+06
3.48561e+06
3.48572e+06
3.48584e+06
3.48597e+06
3.48611e+06
3.48625e+06
3.48638e+06
3.48651e+06
3.48663e+06
3.48674e+06
3.48683e+06
3.48691e+06
3.48697e+06
3.48701e+06
3.48703e+06
3.48703e+06
3.487e+06
3.48696e+06
3.48689e+06
3.48679e+06
3.48669e+06
3.48655e+06
3.52331e+06
3.51496e+06
3.50863e+06
3.50362e+06
3.49971e+06
3.49659e+06
3.49411e+06
3.49213e+06
3.49055e+06
3.48928e+06
3.48827e+06
3.48747e+06
3.48685e+06
3.48637e+06
3.486e+06
3.48573e+06
3.48554e+06
3.48542e+06
3.48535e+06
3.48534e+06
3.48536e+06
3.48541e+06
3.48549e+06
3.48559e+06
3.4857e+06
3.48583e+06
3.48597e+06
3.4861e+06
3.48625e+06
3.48638e+06
3.48651e+06
3.48664e+06
3.48675e+06
3.48684e+06
3.48692e+06
3.48699e+06
3.48703e+06
3.48705e+06
3.48704e+06
3.48702e+06
3.48697e+06
3.4869e+06
3.48681e+06
3.48671e+06
3.48657e+06
3.51663e+06
3.51005e+06
3.50495e+06
3.50086e+06
3.49762e+06
3.495e+06
3.49289e+06
3.49119e+06
3.48982e+06
3.48872e+06
3.48783e+06
3.48713e+06
3.48658e+06
3.48615e+06
3.48583e+06
3.48559e+06
3.48543e+06
3.48533e+06
3.48528e+06
3.48527e+06
3.48531e+06
3.48537e+06
3.48546e+06
3.48556e+06
3.48568e+06
3.48582e+06
3.48596e+06
3.4861e+06
3.48624e+06
3.48638e+06
3.48652e+06
3.48664e+06
3.48676e+06
3.48686e+06
3.48694e+06
3.487e+06
3.48704e+06
3.48706e+06
3.48706e+06
3.48703e+06
3.48698e+06
3.48692e+06
3.48683e+06
3.48673e+06
3.4866e+06
3.50945e+06
3.50476e+06
3.501e+06
3.4979e+06
3.49537e+06
3.49328e+06
3.49158e+06
3.49018e+06
3.48903e+06
3.48811e+06
3.48735e+06
3.48675e+06
3.48628e+06
3.48591e+06
3.48564e+06
3.48544e+06
3.48531e+06
3.48523e+06
3.4852e+06
3.48521e+06
3.48525e+06
3.48533e+06
3.48542e+06
3.48553e+06
3.48566e+06
3.4858e+06
3.48595e+06
3.4861e+06
3.48624e+06
3.48639e+06
3.48653e+06
3.48665e+06
3.48677e+06
3.48687e+06
3.48695e+06
3.48702e+06
3.48706e+06
3.48708e+06
3.48707e+06
3.48705e+06
3.487e+06
3.48693e+06
3.48684e+06
3.48675e+06
3.48663e+06
3.50232e+06
3.49941e+06
3.497e+06
3.49486e+06
3.49306e+06
3.49151e+06
3.49021e+06
3.48912e+06
3.48821e+06
3.48746e+06
3.48685e+06
3.48636e+06
3.48597e+06
3.48566e+06
3.48544e+06
3.48528e+06
3.48518e+06
3.48512e+06
3.48511e+06
3.48514e+06
3.4852e+06
3.48528e+06
3.48538e+06
3.48551e+06
3.48564e+06
3.48579e+06
3.48594e+06
3.48609e+06
3.48625e+06
3.4864e+06
3.48654e+06
3.48667e+06
3.48679e+06
3.48689e+06
3.48697e+06
3.48704e+06
3.48708e+06
3.4871e+06
3.48709e+06
3.48707e+06
3.48702e+06
3.48695e+06
3.48686e+06
3.48678e+06
3.48666e+06
3.49567e+06
3.49432e+06
3.49313e+06
3.49189e+06
3.49077e+06
3.48974e+06
3.48884e+06
3.48805e+06
3.48737e+06
3.48681e+06
3.48633e+06
3.48595e+06
3.48564e+06
3.4854e+06
3.48523e+06
3.48511e+06
3.48504e+06
3.48501e+06
3.48502e+06
3.48506e+06
3.48513e+06
3.48523e+06
3.48535e+06
3.48548e+06
3.48562e+06
3.48577e+06
3.48593e+06
3.48609e+06
3.48625e+06
3.4864e+06
3.48655e+06
3.48668e+06
3.4868e+06
3.48691e+06
3.48699e+06
3.48706e+06
3.4871e+06
3.48712e+06
3.48711e+06
3.48709e+06
3.48704e+06
3.48697e+06
3.48688e+06
3.4868e+06
3.48669e+06
3.49235e+06
3.4888e+06
3.48973e+06
3.48969e+06
3.48954e+06
3.48909e+06
3.48858e+06
3.48803e+06
3.4875e+06
3.487e+06
3.48654e+06
3.48615e+06
3.48581e+06
3.48553e+06
3.4853e+06
3.48513e+06
3.48501e+06
3.48493e+06
3.48489e+06
3.48489e+06
3.48492e+06
3.48498e+06
3.48507e+06
3.48518e+06
3.48531e+06
3.48545e+06
3.4856e+06
3.48576e+06
3.48592e+06
3.48609e+06
3.48625e+06
3.48641e+06
3.48656e+06
3.4867e+06
3.48682e+06
3.48693e+06
3.48702e+06
3.48708e+06
3.48713e+06
3.48715e+06
3.48714e+06
3.48711e+06
3.48706e+06
3.48699e+06
3.4869e+06
3.48682e+06
3.48673e+06
3.48485e+06
3.48262e+06
3.48464e+06
3.48565e+06
3.48632e+06
3.48653e+06
3.48656e+06
3.48642e+06
3.48622e+06
3.48598e+06
3.48574e+06
3.4855e+06
3.48529e+06
3.48511e+06
3.48497e+06
3.48486e+06
3.48479e+06
3.48475e+06
3.48474e+06
3.48477e+06
3.48482e+06
3.4849e+06
3.485e+06
3.48512e+06
3.48526e+06
3.48541e+06
3.48558e+06
3.48575e+06
3.48592e+06
3.48609e+06
3.48626e+06
3.48642e+06
3.48658e+06
3.48672e+06
3.48685e+06
3.48696e+06
3.48705e+06
3.48711e+06
3.48716e+06
3.48717e+06
3.48717e+06
3.48713e+06
3.48708e+06
3.48701e+06
3.48692e+06
3.48684e+06
3.48676e+06
3.47865e+06
3.47769e+06
3.48035e+06
3.48221e+06
3.4835e+06
3.48426e+06
3.48472e+06
3.48495e+06
3.48504e+06
3.48503e+06
3.48497e+06
3.48489e+06
3.48479e+06
3.48471e+06
3.48464e+06
3.48459e+06
3.48456e+06
3.48456e+06
3.48459e+06
3.48464e+06
3.48472e+06
3.48481e+06
3.48493e+06
3.48507e+06
3.48522e+06
3.48538e+06
3.48555e+06
3.48573e+06
3.48591e+06
3.48609e+06
3.48627e+06
3.48644e+06
3.4866e+06
3.48674e+06
3.48687e+06
3.48699e+06
3.48708e+06
3.48714e+06
3.48719e+06
3.4872e+06
3.4872e+06
3.48716e+06
3.48711e+06
3.48703e+06
3.48695e+06
3.48687e+06
3.48678e+06
3.47368e+06
3.47385e+06
3.47689e+06
3.47937e+06
3.48111e+06
3.4823e+06
3.4831e+06
3.48363e+06
3.48396e+06
3.48415e+06
3.48425e+06
3.4843e+06
3.48431e+06
3.48431e+06
3.48431e+06
3.48432e+06
3.48434e+06
3.48437e+06
3.48443e+06
3.48451e+06
3.48461e+06
3.48472e+06
3.48486e+06
3.48501e+06
3.48517e+06
3.48535e+06
3.48553e+06
3.48572e+06
3.48591e+06
3.4861e+06
3.48628e+06
3.48645e+06
3.48662e+06
3.48677e+06
3.4869e+06
3.48702e+06
3.48711e+06
3.48718e+06
3.48722e+06
3.48724e+06
3.48723e+06
3.48719e+06
3.48713e+06
3.48706e+06
3.48697e+06
3.48689e+06
3.48681e+06
3.4696e+06
3.47074e+06
3.47406e+06
3.47699e+06
3.47908e+06
3.4806e+06
3.48169e+06
3.48245e+06
3.48298e+06
3.48334e+06
3.48359e+06
3.48375e+06
3.48385e+06
3.48393e+06
3.48399e+06
3.48405e+06
3.48411e+06
3.48419e+06
3.48427e+06
3.48438e+06
3.4845e+06
3.48463e+06
3.48478e+06
3.48495e+06
3.48513e+06
3.48531e+06
3.48551e+06
3.48571e+06
3.4859e+06
3.4861e+06
3.48629e+06
3.48647e+06
3.48664e+06
3.4868e+06
3.48694e+06
3.48705e+06
3.48715e+06
3.48722e+06
3.48726e+06
3.48728e+06
3.48726e+06
3.48722e+06
3.48716e+06
3.48708e+06
3.48699e+06
3.48691e+06
3.48684e+06
3.46655e+06
3.46847e+06
3.47193e+06
3.47513e+06
3.47744e+06
3.47919e+06
3.48048e+06
3.48143e+06
3.48212e+06
3.48261e+06
3.48297e+06
3.48323e+06
3.48342e+06
3.48356e+06
3.48368e+06
3.48379e+06
3.48389e+06
3.484e+06
3.48411e+06
3.48424e+06
3.48438e+06
3.48454e+06
3.48471e+06
3.48489e+06
3.48508e+06
3.48528e+06
3.48548e+06
3.48569e+06
3.4859e+06
3.48611e+06
3.4863e+06
3.48649e+06
3.48667e+06
3.48683e+06
3.48697e+06
3.48709e+06
3.48719e+06
3.48726e+06
3.4873e+06
3.48732e+06
3.4873e+06
3.48726e+06
3.48719e+06
3.4871e+06
3.48701e+06
3.48693e+06
3.48686e+06
3.46386e+06
3.46645e+06
3.47009e+06
3.4735e+06
3.47601e+06
3.47796e+06
3.47941e+06
3.48051e+06
3.48133e+06
3.48195e+06
3.4824e+06
3.48275e+06
3.48301e+06
3.48321e+06
3.48338e+06
3.48353e+06
3.48366e+06
3.4838e+06
3.48395e+06
3.4841e+06
3.48426e+06
3.48444e+06
3.48462e+06
3.48482e+06
3.48503e+06
3.48524e+06
3.48546e+06
3.48568e+06
3.4859e+06
3.48611e+06
3.48632e+06
3.48652e+06
3.4867e+06
3.48687e+06
3.48701e+06
3.48714e+06
3.48723e+06
3.48731e+06
3.48735e+06
3.48736e+06
3.48734e+06
3.48729e+06
3.48722e+06
3.48713e+06
3.48703e+06
3.48694e+06
3.48687e+06
3.46203e+06
3.46509e+06
3.46878e+06
3.47226e+06
3.47488e+06
3.47694e+06
3.47851e+06
3.47972e+06
3.48064e+06
3.48134e+06
3.48188e+06
3.48229e+06
3.48261e+06
3.48287e+06
3.48308e+06
3.48327e+06
3.48344e+06
3.48361e+06
3.48378e+06
3.48395e+06
3.48414e+06
3.48434e+06
3.48454e+06
3.48476e+06
3.48498e+06
3.48521e+06
3.48544e+06
3.48567e+06
3.4859e+06
3.48612e+06
3.48634e+06
3.48654e+06
3.48673e+06
3.4869e+06
3.48705e+06
3.48718e+06
3.48728e+06
3.48735e+06
3.4874e+06
3.48741e+06
3.48738e+06
3.48733e+06
3.48725e+06
3.48716e+06
3.48705e+06
3.48695e+06
3.48689e+06
3.45953e+06
3.46314e+06
3.46722e+06
3.47088e+06
3.4737e+06
3.47592e+06
3.47763e+06
3.47896e+06
3.47998e+06
3.48077e+06
3.48138e+06
3.48186e+06
3.48223e+06
3.48253e+06
3.48279e+06
3.48301e+06
3.48321e+06
3.48341e+06
3.48361e+06
3.48381e+06
3.48401e+06
3.48423e+06
3.48445e+06
3.48469e+06
3.48492e+06
3.48517e+06
3.48541e+06
3.48566e+06
3.4859e+06
3.48613e+06
3.48636e+06
3.48657e+06
3.48677e+06
3.48695e+06
3.4871e+06
3.48723e+06
3.48733e+06
3.48741e+06
3.48745e+06
3.48746e+06
3.48743e+06
3.48738e+06
3.48729e+06
3.48718e+06
3.48707e+06
3.48697e+06
3.4869e+06
3.45797e+06
3.46176e+06
3.46609e+06
3.46987e+06
3.4728e+06
3.47511e+06
3.47691e+06
3.47833e+06
3.47942e+06
3.48027e+06
3.48094e+06
3.48146e+06
3.48187e+06
3.48221e+06
3.48249e+06
3.48275e+06
3.48298e+06
3.4832e+06
3.48342e+06
3.48365e+06
3.48388e+06
3.48411e+06
3.48436e+06
3.48461e+06
3.48487e+06
3.48513e+06
3.48539e+06
3.48564e+06
3.4859e+06
3.48615e+06
3.48638e+06
3.4866e+06
3.48681e+06
3.48699e+06
3.48715e+06
3.48729e+06
3.48739e+06
3.48747e+06
3.48751e+06
3.48751e+06
3.48749e+06
3.48742e+06
3.48733e+06
3.48721e+06
3.48708e+06
3.48697e+06
3.4869e+06
3.45534e+06
3.45975e+06
3.46456e+06
3.46858e+06
3.47171e+06
3.47419e+06
3.47613e+06
3.47766e+06
3.47884e+06
3.47976e+06
3.48048e+06
3.48104e+06
3.4815e+06
3.48187e+06
3.48219e+06
3.48247e+06
3.48274e+06
3.48299e+06
3.48323e+06
3.48348e+06
3.48374e+06
3.484e+06
3.48426e+06
3.48453e+06
3.48481e+06
3.48508e+06
3.48536e+06
3.48563e+06
3.4859e+06
3.48616e+06
3.48641e+06
3.48664e+06
3.48685e+06
3.48704e+06
3.4872e+06
3.48734e+06
3.48745e+06
3.48753e+06
3.48756e+06
3.48757e+06
3.48753e+06
3.48747e+06
3.48736e+06
3.48724e+06
3.4871e+06
3.48698e+06
3.48689e+06
3.48736e+06
3.48738e+06
3.48736e+06
3.48732e+06
3.48725e+06
3.48715e+06
3.48701e+06
3.48685e+06
3.48659e+06
3.48715e+06
3.48723e+06
3.48728e+06
3.48732e+06
3.48733e+06
3.48732e+06
3.48728e+06
3.48721e+06
3.48711e+06
3.48697e+06
3.48681e+06
3.48656e+06
3.48594e+06
3.48645e+06
3.48613e+06
3.48603e+06
3.48571e+06
3.48548e+06
3.48522e+06
3.48501e+06
3.48482e+06
3.48468e+06
3.48458e+06
3.48452e+06
3.48449e+06
3.4845e+06
3.48453e+06
3.4846e+06
3.48468e+06
3.48479e+06
3.48491e+06
3.48505e+06
3.4852e+06
3.48535e+06
3.48552e+06
3.48568e+06
3.48585e+06
3.48602e+06
3.48619e+06
3.48635e+06
3.4865e+06
3.48665e+06
3.48678e+06
3.48691e+06
3.48702e+06
3.48711e+06
3.48719e+06
3.48724e+06
3.48728e+06
3.48729e+06
3.48728e+06
3.48724e+06
3.48717e+06
3.48708e+06
3.48693e+06
3.48677e+06
3.48652e+06
3.48856e+06
3.48861e+06
3.48804e+06
3.48764e+06
3.48709e+06
3.48664e+06
3.4862e+06
3.48583e+06
3.48551e+06
3.48526e+06
3.48506e+06
3.48492e+06
3.48482e+06
3.48477e+06
3.48475e+06
3.48477e+06
3.48482e+06
3.4849e+06
3.485e+06
3.48511e+06
3.48524e+06
3.48538e+06
3.48554e+06
3.48569e+06
3.48585e+06
3.48601e+06
3.48617e+06
3.48633e+06
3.48648e+06
3.48662e+06
3.48675e+06
3.48687e+06
3.48698e+06
3.48707e+06
3.48715e+06
3.48721e+06
3.48724e+06
3.48725e+06
3.48724e+06
3.48721e+06
3.48714e+06
3.48704e+06
3.4869e+06
3.48674e+06
3.4865e+06
3.49171e+06
3.49113e+06
3.4902e+06
3.48941e+06
3.48858e+06
3.48788e+06
3.48723e+06
3.48669e+06
3.48623e+06
3.48585e+06
3.48555e+06
3.48532e+06
3.48515e+06
3.48504e+06
3.48497e+06
3.48495e+06
3.48496e+06
3.48501e+06
3.48508e+06
3.48518e+06
3.48529e+06
3.48541e+06
3.48555e+06
3.4857e+06
3.48585e+06
3.486e+06
3.48616e+06
3.48631e+06
3.48645e+06
3.48659e+06
3.48672e+06
3.48684e+06
3.48695e+06
3.48704e+06
3.48711e+06
3.48717e+06
3.48721e+06
3.48722e+06
3.48721e+06
3.48717e+06
3.4871e+06
3.48701e+06
3.48687e+06
3.48671e+06
3.48647e+06
3.4954e+06
3.49401e+06
3.4926e+06
3.49134e+06
3.49018e+06
3.48918e+06
3.48831e+06
3.48757e+06
3.48695e+06
3.48645e+06
3.48604e+06
3.48572e+06
3.48548e+06
3.4853e+06
3.48518e+06
3.48512e+06
3.4851e+06
3.48511e+06
3.48516e+06
3.48524e+06
3.48533e+06
3.48544e+06
3.48557e+06
3.48571e+06
3.48585e+06
3.48599e+06
3.48614e+06
3.48629e+06
3.48643e+06
3.48657e+06
3.4867e+06
3.48681e+06
3.48692e+06
3.48701e+06
3.48708e+06
3.48714e+06
3.48717e+06
3.48719e+06
3.48718e+06
3.48714e+06
3.48707e+06
3.48698e+06
3.48684e+06
3.48669e+06
3.48645e+06
3.49955e+06
3.4972e+06
3.49522e+06
3.49343e+06
3.49188e+06
3.49055e+06
3.48942e+06
3.48847e+06
3.48769e+06
3.48704e+06
3.48652e+06
3.48611e+06
3.48579e+06
3.48556e+06
3.48539e+06
3.48528e+06
3.48523e+06
3.48522e+06
3.48524e+06
3.48529e+06
3.48537e+06
3.48547e+06
3.48559e+06
3.48571e+06
3.48585e+06
3.48599e+06
3.48613e+06
3.48627e+06
3.48641e+06
3.48654e+06
3.48667e+06
3.48679e+06
3.48689e+06
3.48698e+06
3.48705e+06
3.48711e+06
3.48715e+06
3.48716e+06
3.48715e+06
3.48711e+06
3.48705e+06
3.48695e+06
3.48682e+06
3.48667e+06
3.48643e+06
3.50406e+06
3.50065e+06
3.498e+06
3.49562e+06
3.49364e+06
3.49196e+06
3.49055e+06
3.48938e+06
3.48842e+06
3.48763e+06
3.487e+06
3.48649e+06
3.4861e+06
3.4858e+06
3.48559e+06
3.48544e+06
3.48535e+06
3.48531e+06
3.48531e+06
3.48535e+06
3.48541e+06
3.4855e+06
3.4856e+06
3.48572e+06
3.48585e+06
3.48598e+06
3.48612e+06
3.48626e+06
3.48639e+06
3.48652e+06
3.48665e+06
3.48676e+06
3.48687e+06
3.48695e+06
3.48703e+06
3.48708e+06
3.48712e+06
3.48713e+06
3.48712e+06
3.48709e+06
3.48702e+06
3.48693e+06
3.4868e+06
3.48665e+06
3.48642e+06
3.50879e+06
3.50427e+06
3.5009e+06
3.49789e+06
3.49544e+06
3.49338e+06
3.49169e+06
3.49029e+06
3.48914e+06
3.48821e+06
3.48746e+06
3.48686e+06
3.48639e+06
3.48604e+06
3.48577e+06
3.48559e+06
3.48546e+06
3.4854e+06
3.48538e+06
3.4854e+06
3.48544e+06
3.48552e+06
3.48561e+06
3.48572e+06
3.48584e+06
3.48597e+06
3.48611e+06
3.48624e+06
3.48637e+06
3.4865e+06
3.48663e+06
3.48674e+06
3.48684e+06
3.48693e+06
3.487e+06
3.48706e+06
3.48709e+06
3.48711e+06
3.4871e+06
3.48706e+06
3.487e+06
3.48691e+06
3.48678e+06
3.48664e+06
3.48641e+06
3.51367e+06
3.50803e+06
3.50385e+06
3.50018e+06
3.49724e+06
3.49479e+06
3.4928e+06
3.49116e+06
3.48983e+06
3.48876e+06
3.48789e+06
3.48721e+06
3.48667e+06
3.48625e+06
3.48594e+06
3.48572e+06
3.48557e+06
3.48548e+06
3.48544e+06
3.48544e+06
3.48547e+06
3.48554e+06
3.48562e+06
3.48573e+06
3.48584e+06
3.48597e+06
3.4861e+06
3.48623e+06
3.48636e+06
3.48649e+06
3.48661e+06
3.48672e+06
3.48682e+06
3.48691e+06
3.48698e+06
3.48704e+06
3.48707e+06
3.48709e+06
3.48708e+06
3.48704e+06
3.48698e+06
3.4869e+06
3.48677e+06
3.48662e+06
3.4864e+06
3.51864e+06
3.51186e+06
3.50678e+06
3.50244e+06
3.49899e+06
3.49615e+06
3.49386e+06
3.49199e+06
3.49048e+06
3.48927e+06
3.4883e+06
3.48752e+06
3.48692e+06
3.48645e+06
3.4861e+06
3.48584e+06
3.48566e+06
3.48555e+06
3.48549e+06
3.48548e+06
3.4855e+06
3.48555e+06
3.48563e+06
3.48573e+06
3.48584e+06
3.48596e+06
3.48608e+06
3.48621e+06
3.48634e+06
3.48647e+06
3.48659e+06
3.4867e+06
3.4868e+06
3.48689e+06
3.48696e+06
3.48702e+06
3.48705e+06
3.48707e+06
3.48706e+06
3.48703e+06
3.48697e+06
3.48688e+06
3.48676e+06
3.48662e+06
3.4864e+06
3.52359e+06
3.5157e+06
3.50962e+06
3.50463e+06
3.50065e+06
3.49743e+06
3.49485e+06
3.49276e+06
3.49108e+06
3.48973e+06
3.48866e+06
3.48781e+06
3.48714e+06
3.48662e+06
3.48623e+06
3.48594e+06
3.48574e+06
3.48561e+06
3.48553e+06
3.48551e+06
3.48552e+06
3.48557e+06
3.48564e+06
3.48573e+06
3.48583e+06
3.48595e+06
3.48607e+06
3.4862e+06
3.48633e+06
3.48645e+06
3.48657e+06
3.48669e+06
3.48679e+06
3.48687e+06
3.48695e+06
3.487e+06
3.48704e+06
3.48705e+06
3.48704e+06
3.48701e+06
3.48695e+06
3.48687e+06
3.48675e+06
3.48661e+06
3.4864e+06
3.52826e+06
3.51937e+06
3.51224e+06
3.50664e+06
3.50216e+06
3.49859e+06
3.49572e+06
3.49343e+06
3.4916e+06
3.49014e+06
3.48897e+06
3.48805e+06
3.48733e+06
3.48677e+06
3.48635e+06
3.48603e+06
3.48581e+06
3.48566e+06
3.48557e+06
3.48553e+06
3.48554e+06
3.48557e+06
3.48564e+06
3.48573e+06
3.48583e+06
3.48594e+06
3.48606e+06
3.48619e+06
3.48632e+06
3.48644e+06
3.48656e+06
3.48667e+06
3.48677e+06
3.48686e+06
3.48693e+06
3.48699e+06
3.48702e+06
3.48704e+06
3.48703e+06
3.487e+06
3.48694e+06
3.48686e+06
3.48674e+06
3.48661e+06
3.4864e+06
3.53222e+06
3.52256e+06
3.5145e+06
3.50837e+06
3.50345e+06
3.49957e+06
3.49647e+06
3.494e+06
3.49204e+06
3.49047e+06
3.48923e+06
3.48825e+06
3.48748e+06
3.48689e+06
3.48643e+06
3.4861e+06
3.48586e+06
3.48569e+06
3.48559e+06
3.48555e+06
3.48555e+06
3.48558e+06
3.48564e+06
3.48572e+06
3.48582e+06
3.48593e+06
3.48605e+06
3.48618e+06
3.4863e+06
3.48643e+06
3.48655e+06
3.48666e+06
3.48676e+06
3.48685e+06
3.48692e+06
3.48698e+06
3.48701e+06
3.48703e+06
3.48702e+06
3.48699e+06
3.48693e+06
3.48685e+06
3.48674e+06
3.48661e+06
3.4864e+06
3.53537e+06
3.52507e+06
3.5163e+06
3.50975e+06
3.50446e+06
3.50034e+06
3.49704e+06
3.49444e+06
3.49237e+06
3.49072e+06
3.48942e+06
3.4884e+06
3.48759e+06
3.48697e+06
3.4865e+06
3.48614e+06
3.48589e+06
3.48572e+06
3.48561e+06
3.48556e+06
3.48555e+06
3.48558e+06
3.48564e+06
3.48572e+06
3.48581e+06
3.48592e+06
3.48604e+06
3.48617e+06
3.48629e+06
3.48642e+06
3.48654e+06
3.48665e+06
3.48675e+06
3.48684e+06
3.48691e+06
3.48697e+06
3.487e+06
3.48702e+06
3.48701e+06
3.48698e+06
3.48693e+06
3.48685e+06
3.48674e+06
3.48661e+06
3.48641e+06
3.53787e+06
3.52678e+06
3.5176e+06
3.5107e+06
3.50517e+06
3.50086e+06
3.49743e+06
3.49473e+06
3.49258e+06
3.49088e+06
3.48954e+06
3.48849e+06
3.48766e+06
3.48702e+06
3.48653e+06
3.48617e+06
3.48591e+06
3.48573e+06
3.48561e+06
3.48556e+06
3.48555e+06
3.48557e+06
3.48563e+06
3.48571e+06
3.4858e+06
3.48591e+06
3.48603e+06
3.48616e+06
3.48628e+06
3.48641e+06
3.48653e+06
3.48664e+06
3.48674e+06
3.48683e+06
3.4869e+06
3.48696e+06
3.487e+06
3.48701e+06
3.48701e+06
3.48698e+06
3.48693e+06
3.48685e+06
3.48674e+06
3.48661e+06
3.48642e+06
3.53947e+06
3.52765e+06
3.51832e+06
3.51118e+06
3.50552e+06
3.50111e+06
3.49761e+06
3.49486e+06
3.49267e+06
3.49095e+06
3.48959e+06
3.48852e+06
3.48768e+06
3.48703e+06
3.48654e+06
3.48617e+06
3.4859e+06
3.48572e+06
3.48561e+06
3.48555e+06
3.48554e+06
3.48556e+06
3.48562e+06
3.4857e+06
3.48579e+06
3.4859e+06
3.48602e+06
3.48615e+06
3.48628e+06
3.4864e+06
3.48652e+06
3.48663e+06
3.48674e+06
3.48682e+06
3.4869e+06
3.48696e+06
3.48699e+06
3.48701e+06
3.48701e+06
3.48698e+06
3.48692e+06
3.48685e+06
3.48674e+06
3.48662e+06
3.48644e+06
3.53981e+06
3.52766e+06
3.51838e+06
3.51116e+06
3.5055e+06
3.50107e+06
3.49757e+06
3.49482e+06
3.49264e+06
3.49091e+06
3.48955e+06
3.48849e+06
3.48765e+06
3.48701e+06
3.48652e+06
3.48615e+06
3.48589e+06
3.4857e+06
3.48559e+06
3.48553e+06
3.48552e+06
3.48555e+06
3.4856e+06
3.48568e+06
3.48578e+06
3.48589e+06
3.48601e+06
3.48614e+06
3.48627e+06
3.48639e+06
3.48651e+06
3.48663e+06
3.48673e+06
3.48682e+06
3.4869e+06
3.48695e+06
3.48699e+06
3.48701e+06
3.48701e+06
3.48698e+06
3.48693e+06
3.48685e+06
3.48675e+06
3.48663e+06
3.48646e+06
3.53896e+06
3.52686e+06
3.51777e+06
3.51064e+06
3.50509e+06
3.50074e+06
3.49731e+06
3.4946e+06
3.49246e+06
3.49078e+06
3.48944e+06
3.4884e+06
3.48758e+06
3.48695e+06
3.48647e+06
3.48611e+06
3.48585e+06
3.48567e+06
3.48556e+06
3.48551e+06
3.4855e+06
3.48553e+06
3.48559e+06
3.48567e+06
3.48577e+06
3.48588e+06
3.486e+06
3.48613e+06
3.48626e+06
3.48639e+06
3.48651e+06
3.48663e+06
3.48673e+06
3.48682e+06
3.4869e+06
3.48696e+06
3.48699e+06
3.48701e+06
3.48701e+06
3.48698e+06
3.48693e+06
3.48686e+06
3.48676e+06
3.48664e+06
3.48648e+06
3.53689e+06
3.52521e+06