/*--------------------------------*- C++ -*----------------------------------*\
| =========                 |                                                 |
| \\      /  F ield         | OpenFOAM: The Open Source CFD Toolbox           |
|  \\    /   O peration     | Version:  v2012                                 |
|   \\  /    A nd           | Website:  www.openfoam.com                      |
|    \\/     M anipulation  |                                                 |
\*---------------------------------------------------------------------------*/
FoamFile
{
    version     2.0;
    format      ascii;
    class       surfaceScalarField;
    location    "0.7";
    object      alphaPhi0.water;
}
// * * * * * * * * * * * * * * * * * * * * * * * * * * * * * * * * * * * * * //

dimensions      [0 3 -1 0 0 0 0];
oriented        oriented;


internalField   nonuniform List<scalar> 
8212
(
4.14232e-12
-6.90445e-09
-1.24188e-15
3.27385e-11
-2.11212e-08
-3.11076e-15
1.01665e-10
-3.62504e-08
-5.51896e-15
1.35982e-10
-5.08117e-08
-7.99203e-15
7.29994e-10
-7.51628e-08
-6.59109e-15
9.35383e-10
-9.53754e-08
1.34126e-15
1.05011e-09
-9.91763e-08
-8.59707e-15
1.56964e-09
-8.93759e-08
-7.61276e-16
1.81279e-09
-7.31272e-08
8.18484e-15
1.55896e-09
-7.47948e-08
-1.0428e-15
6.53661e-10
-5.18008e-08
-7.41638e-16
5.77491e-11
-1.23363e-08
-1.76323e-16
1.09739e-12
-6.93054e-10
-9.09506e-18
1.32582e-14
-1.3403e-11
-1.71835e-19
2.88017e-16
-1.93772e-13
-2.60375e-21
1.89596e-17
-7.11142e-15
-1.25179e-22
6.9444e-19
-3.63698e-16
-6.54058e-24
3.15279e-21
-3.9831e-18
-6.50136e-26
1.09458e-23
-1.15806e-20
-1.7525e-28
5.20391e-26
-4.27018e-23
-6.09088e-31
1.77598e-28
-1.45113e-25
-1.97291e-33
4.52487e-31
-3.9594e-28
-5.20812e-36
8.80162e-34
-8.68932e-31
-1.11618e-38
1.29099e-36
-1.51264e-33
-1.91823e-41
1.37413e-39
-2.02877e-36
-2.51627e-44
9.85599e-43
-1.99739e-39
-2.45497e-47
4.09672e-46
-1.32775e-42
-1.63862e-50
6.41251e-50
-5.02719e-46
-6.35596e-54
-1.38857e-103
-6.25833e-50
-8.82313e-58
-2.61662e-107
-2.13525e-100
-2.01898e-108
-4.77013e-111
-8.65737e-105
-8.58127e-113
-5.45891e-112
-8.93402e-109
-9.04494e-117
-6.82024e-110
-1.99997e-114
-1.21103e-117
-8.19039e-107
-4.16633e-120
-1.49786e-114
-8.59696e-104
-5.051e-117
-1.62553e-111
-8.1476e-101
-7.19687e-115
-1.61775e-108
-7.17354e-98
-5.01962e-113
-1.53036e-105
-5.97754e-95
-1.3653e-111
-1.97955e-102
-2.84842e-108
-2.46133e-99
5.9906e-12
-6.91043e-09
-3.18286e-16
3.23768e-11
-2.11476e-08
-2.3191e-15
7.7684e-11
-3.62957e-08
-6.8901e-15
1.07601e-10
-5.08417e-08
-8.29658e-15
7.97287e-10
-7.58525e-08
2.16706e-16
9.5377e-10
-9.55319e-08
1.76768e-15
1.14555e-09
-9.9368e-08
-1.38622e-14
1.79309e-09
-9.00232e-08
-5.24548e-16
2.00134e-09
-7.33354e-08
5.81677e-15
1.68415e-09
-7.51473e-08
-1.29352e-15
7.36601e-10
-5.34094e-08
-9.37907e-16
6.97944e-11
-1.32437e-08
-2.04045e-16
1.37491e-12
-7.73079e-10
-1.15204e-17
1.60905e-14
-1.51775e-11
-2.06874e-19
2.53154e-16
-2.07183e-13
-2.80576e-21
1.1131e-17
-5.83093e-15
-8.4012e-23
4.29184e-19
-2.79864e-16
-4.06603e-24
2.25436e-21
-3.21233e-18
-4.32288e-26
9.55493e-24
-9.54246e-21
-1.23543e-28
4.9865e-26
-3.68464e-23
-4.85515e-31
1.75386e-28
-1.35635e-25
-1.74704e-33
4.53685e-31
-3.85436e-28
-4.82834e-36
8.89374e-34
-8.66019e-31
-1.05951e-38
1.30845e-36
-1.52658e-33
-1.83207e-41
1.39106e-39
-2.05249e-36
-2.40391e-44
9.90988e-43
-2.00121e-39
-2.33588e-47
4.0456e-46
-1.29282e-42
-1.51715e-50
5.96924e-50
-4.5671e-46
-5.52619e-54
-2.42443e-103
-4.29558e-50
-6.17115e-58
-2.71482e-107
-2.59966e-100
-2.34511e-108
-5.06878e-111
-8.25431e-105
-7.58357e-113
-1.60884e-116
-8.74193e-109
-9.07384e-117
-2.99955e-122
-1.79514e-114
-1.79931e-122
-3.29222e-120
-8.73762e-121
-1.73766e-125
-4.84852e-117
-2.75262e-127
-1.62556e-122
-6.81308e-115
-5.71793e-136
-1.56016e-119
-4.89518e-113
-4.23458e-133
-1.42265e-116
-1.30065e-111
-4.12738e-130
-1.26911e-113
-9.82557e-129
-2.27921e-110
6.76313e-12
-6.91719e-09
-7.01101e-16
2.51439e-11
-2.1166e-08
-4.78174e-15
2.08005e-11
-3.62913e-08
-8.83413e-15
1.10241e-10
-5.09311e-08
-9.0241e-15
5.87153e-10
-7.63294e-08
-4.22337e-15
8.35635e-10
-9.57804e-08
-3.45145e-15
1.28946e-09
-9.98218e-08
-1.06746e-14
1.89063e-09
-9.06241e-08
1.37381e-14
2.1415e-09
-7.35863e-08
7.84873e-15
1.84263e-09
-7.54818e-08
-1.39189e-15
8.24833e-10
-5.49836e-08
-1.05661e-15
8.06776e-11
-1.41846e-08
-2.45242e-16
1.61131e-12
-8.60327e-10
-1.41587e-17
1.85931e-14
-1.71714e-11
-2.61809e-19
2.56448e-16
-2.26769e-13
-3.36238e-21
8.83243e-18
-4.89103e-15
-7.70028e-23
3.39092e-19
-2.15869e-16
-3.47453e-24
1.92108e-21
-2.57492e-18
-3.74273e-26
8.59096e-24
-7.65609e-21
-1.1039e-28
4.66885e-26
-3.15874e-23
-4.29493e-31
1.66746e-28
-1.23843e-25
-1.61757e-33
4.35523e-31
-3.61027e-28
-4.59089e-36
8.57411e-34
-8.20679e-31
-1.02281e-38
1.25881e-36
-1.44955e-33
-1.78363e-41
1.32415e-39
-1.93304e-36
-2.33012e-44
9.20978e-43
-1.84303e-39
-2.22394e-47
3.57338e-46
-1.13548e-42
-1.39475e-50
4.58472e-50
-3.59289e-46
-4.69381e-54
-3.91703e-103
-1.73909e-50
-3.76708e-58
-2.93043e-107
-3.26846e-100
-3.14583e-108
-5.2694e-111
-7.83224e-105
-7.42856e-113
-1.54607e-116
-8.18165e-109
-8.6892e-117
-1.08754e-122
-1.5792e-114
-1.61878e-122
-4.02938e-129
-8.54287e-121
-9.23931e-129
-1.24249e-137
-2.26347e-127
-3.77965e-135
-2.18913e-136
-3.57328e-136
-1.82816e-142
-4.09082e-133
-1.45879e-134
-3.02992e-139
-4.02703e-130
-1.0443e-131
-2.53059e-136
-3.87506e-129
-2.25319e-136
8.93514e-12
-6.92611e-09
2.51306e-18
3.25935e-11
-2.11896e-08
-1.95876e-15
-7.26409e-12
-3.62515e-08
-8.02251e-15
8.40716e-11
-5.10225e-08
-7.98631e-15
5.12199e-10
-7.67576e-08
-5.88991e-15
9.52951e-10
-9.62211e-08
-2.57077e-15
1.5179e-09
-1.00387e-07
-6.69875e-15
2.02206e-09
-9.11281e-08
1.88356e-14
2.24907e-09
-7.38133e-08
7.05557e-15
1.95552e-09
-7.57798e-08
-1.38632e-15
9.09316e-10
-5.65654e-08
-1.23567e-15
9.34829e-11
-1.51874e-08
-2.95726e-16
1.91685e-12
-9.58107e-10
-1.64426e-17
2.19425e-14
-1.94702e-11
-3.15785e-19
2.6962e-16
-2.51943e-13
-3.89847e-21
7.07408e-18
-4.34995e-15
-6.89615e-23
2.58878e-19
-1.69351e-16
-2.84448e-24
1.58409e-21
-2.05705e-18
-3.06632e-26
7.72781e-24
-6.04715e-21
-8.97077e-29
4.35248e-26
-2.69561e-23
-3.90717e-31
1.56543e-28
-1.10255e-25
-1.52845e-33
4.09791e-31
-3.2552e-28
-4.33688e-36
8.03864e-34
-7.41474e-31
-9.62217e-39
1.1672e-36
-1.30072e-33
-1.66172e-41
1.20086e-39
-1.70352e-36
-2.13382e-44
8.01022e-43
-1.56724e-39
-1.97559e-47
2.8456e-46
-9.00352e-43
-1.16891e-50
2.31419e-50
-2.40793e-46
-3.45555e-54
-6.67038e-103
8.68662e-64
-1.27249e-58
-3.22956e-107
-3.6421e-100
-3.74011e-108
-5.43468e-111
-7.39573e-105
-7.07678e-113
-1.48443e-116
-7.4351e-109
-8.08675e-117
-1.16619e-122
-1.3756e-114
-1.42826e-122
-3.76464e-129
-8.53167e-121
-9.16839e-129
-8.22719e-138
-1.84341e-127
-3.13352e-135
-2.02272e-137
-3.39851e-136
-6.41879e-144
-1.46081e-134
-1.06541e-140
-8.15352e-141
-6.61902e-132
-6.53792e-138
-3.14372e-138
-1.81464e-136
-3.93565e-135
9.49694e-12
-6.9356e-09
3.06153e-16
2.976e-11
-2.12099e-08
-5.81324e-15
-5.28456e-11
-3.61689e-08
-1.07511e-14
2.55565e-11
-5.11009e-08
-9.73544e-15
4.22655e-10
-7.71547e-08
-4.50563e-15
1.08014e-09
-9.68786e-08
-1.58036e-15
1.65056e-09
-1.00957e-07
-9.52245e-15
2.03435e-09
-9.15116e-08
2.17262e-14
2.32455e-09
-7.41035e-08
5.26477e-15
2.04437e-09
-7.60509e-08
-1.38414e-15
9.86673e-10
-5.81655e-08
-1.37255e-15
1.06792e-10
-1.62655e-08
-3.52052e-16
2.25375e-12
-1.06884e-09
-2.05837e-17
2.57115e-14
-2.21448e-11
-4.0199e-19
2.92685e-16
-2.8344e-13
-4.87977e-21
5.99095e-18
-4.05341e-15
-6.98391e-23
1.98203e-19
-1.35007e-16
-2.48798e-24
1.3043e-21
-1.62782e-18
-2.67963e-26
7.15631e-24
-4.87139e-21
-7.7629e-29
4.1463e-26
-2.27499e-23
-3.47945e-31
1.49489e-28
-9.42011e-26
-1.37777e-33
3.89754e-31
-2.76435e-28
-3.90512e-36
7.56696e-34
-6.22179e-31
-8.60141e-39
1.07762e-36
-1.07081e-33
-1.46581e-41
1.07119e-39
-1.35942e-36
-1.83692e-44
6.70341e-43
-1.18584e-39
-1.6302e-47
2.06452e-46
-6.15629e-43
-8.90961e-51
1.20102e-67
-1.25788e-46
-2.1788e-54
-9.14906e-103
-2.2538e-96
9.05715e-72
-3.59589e-107
-3.74368e-100
-4.19137e-108
-5.54562e-111
-6.96272e-105
-6.74033e-113
-1.43869e-116
-6.61133e-109
-7.35244e-117
-1.30351e-122
-1.19008e-114
-1.25621e-122
-3.39161e-129
-8.98805e-121
-9.40283e-129
-8.76738e-138
-1.57118e-127
-2.6542e-135
-9.27077e-143
-3.43112e-136
-1.2948e-144
-1.07524e-140
-1.1713e-147
-3.40798e-146
-6.13366e-138
-5.85869e-156
-1.41839e-143
-7.17812e-155
-1.50277e-140
1.06716e-11
-6.94627e-09
-1.23905e-17
3.37901e-11
-2.1233e-08
-2.80093e-15
-7.69795e-11
-3.60581e-08
-1.24349e-14
-3.28431e-11
-5.1145e-08
-6.21572e-15
4.31629e-10
-7.76191e-08
-5.34142e-15
1.25546e-09
-9.77024e-08
-7.35348e-15
1.64498e-09
-1.01346e-07
-1.5769e-14
1.90921e-09
-9.17756e-08
2.73295e-14
2.34223e-09
-7.45365e-08
7.0964e-15
2.09741e-09
-7.63182e-08
-1.68975e-15
1.05357e-09
-5.98068e-08
-1.58915e-15
1.20651e-10
-1.74439e-08
-4.1311e-16
2.63448e-12
-1.19672e-09
-2.51566e-17
3.00707e-14
-2.53156e-11
-4.98662e-19
3.23642e-16
-3.22328e-13
-6.01104e-21
5.23074e-18
-3.91183e-15
-7.09663e-23
1.52784e-19
-1.09838e-16
-2.1329e-24
1.22942e-21
-1.27371e-18
-2.22433e-26
6.97128e-24
-3.88083e-21
-6.54454e-29
3.99587e-26
-1.87084e-23
-3.07043e-31
1.38689e-28
-7.59562e-26
-1.18764e-33
3.49516e-31
-2.19715e-28
-3.28787e-36
6.56359e-34
-4.86779e-31
-7.0839e-39
8.98532e-37
-8.18257e-34
-1.17466e-41
8.44573e-40
-9.99158e-37
-1.41611e-44
4.80785e-43
-8.13819e-40
-1.18079e-47
1.19057e-46
-3.67737e-43
-5.75013e-51
-1.69179e-99
-4.64703e-47
-1.03262e-54
-1.21913e-102
-2.24313e-96
-2.14733e-104
-4.01801e-107
-4.05413e-100
-4.26634e-108
-5.59913e-111
-6.54611e-105
-6.41865e-113
-1.4025e-116
-5.77143e-109
-6.56947e-117
-1.66879e-122
-1.03285e-114
-1.10282e-122
-3.30963e-129
-1.13184e-120
-1.10388e-128
-1.00989e-137
-1.4288e-127
-2.36598e-135
-4.39696e-149
-3.74878e-136
-1.6103e-144
-1.68652e-157
-1.38441e-147
-1.49761e-155
-5.43122e-156
-4.48669e-157
-2.6461e-162
-4.99649e-156
-2.31108e-161
1.13608e-11
-6.95763e-09
1.13159e-15
3.60718e-11
-2.12577e-08
-4.49946e-15
-1.03807e-10
-3.59182e-08
-1.45871e-14
-1.08072e-10
-5.11408e-08
-4.71144e-15
5.00172e-10
-7.82274e-08
-4.09976e-16
1.34088e-09
-9.85431e-08
-5.80127e-15
1.38483e-09
-1.0139e-07
-1.83515e-14
1.59275e-09
-9.19832e-08
2.27516e-14
2.30279e-09
-7.52466e-08
4.58464e-15
2.12395e-09
-7.66144e-08
-2.72317e-15
1.11135e-09
-6.15056e-08
-1.89426e-15
1.35026e-10
-1.87491e-08
-4.91157e-16
3.06023e-12
-1.34707e-09
-3.14715e-17
3.49949e-14
-2.91483e-11
-6.4025e-19
3.62995e-16
-3.70496e-13
-7.6025e-21
4.78911e-18
-4.02975e-15
-7.81599e-23
1.17103e-19
-9.14346e-17
-1.90676e-24
1.12318e-21
-9.83677e-19
-1.87991e-26
6.49717e-24
-3.04315e-21
-5.58177e-29
3.48307e-26
-1.50728e-23
-2.63305e-31
1.16952e-28
-5.92168e-26
-9.85013e-34
2.87134e-31
-1.67175e-28
-2.67112e-36
5.23401e-34
-3.60683e-31
-5.62751e-39
6.87234e-37
-5.84688e-34
-9.05326e-42
6.04206e-40
-6.75135e-37
-1.04201e-44
3.03292e-43
-4.99501e-40
-8.04099e-48
5.30414e-47
-1.83905e-43
-3.35691e-51
-3.29799e-99
-4.77106e-48
-3.50126e-55
-1.71654e-102
-2.01654e-96
-2.16526e-104
-4.48888e-107
-4.25382e-100
-4.8274e-108
-5.57795e-111
-6.15932e-105
-6.11797e-113
-1.38714e-116
-4.95552e-109
-5.77608e-117
-2.50775e-122
-9.10283e-115
-9.786e-123
-3.45294e-129
-1.56858e-120
-1.51001e-128
-1.23817e-137
-1.38836e-127
-2.24222e-135
-6.16312e-149
-4.09134e-136
-2.13933e-144
-2.5631e-158
-1.57088e-147
-1.91476e-155
-4.235e-157
-2.7586e-160
-7.06858e-161
-2.56142e-159
-1.27685e-159
1.21047e-11
-6.96973e-09
-3.16693e-16
4.09464e-11
-2.12866e-08
-2.29141e-15
-1.30178e-10
-3.57471e-08
-1.46982e-14
-1.8261e-10
-5.10883e-08
-4.23757e-15
6.11893e-10
-7.90219e-08
-8.92205e-15
1.25521e-09
-9.91864e-08
-8.68965e-15
8.64145e-10
-1.00999e-07
-1.84774e-14
1.12076e-09
-9.22396e-08
1.61541e-14
2.2043e-09
-7.63302e-08
4.55537e-16
2.12313e-09
-7.69729e-08
-4.28646e-15
1.16002e-09
-6.32782e-08
-2.33147e-15
1.50145e-10
-2.02108e-08
-5.93789e-16
3.54675e-12
-1.52662e-09
-4.03579e-17
4.06627e-14
-3.38604e-11
-8.42511e-19
4.11691e-16
-4.30506e-13
-9.8043e-21
4.59896e-18
-4.3092e-15
-9.19981e-23
8.97656e-20
-7.7929e-17
-1.74587e-24
1.01818e-21
-7.50951e-19
-1.56474e-26
5.9388e-24
-2.35519e-21
-4.66395e-29
2.95513e-26
-1.19418e-23
-2.24845e-31
9.52892e-29
-4.47021e-26
-8.02301e-34
2.25757e-31
-1.21617e-28
-2.09794e-36
3.94677e-34
-2.52039e-31
-4.2562e-39
4.88903e-37
-3.87606e-34
-6.53081e-42
3.9148e-40
-4.1387e-37
-7.03137e-45
1.63277e-43
-2.67557e-40
-4.86446e-48
5.60687e-48
-7.13178e-44
-1.61791e-51
-4.61469e-99
-1.28759e-75
-3.22112e-56
-2.23831e-102
-1.61469e-96
-1.82293e-104
-5.00923e-107
-4.36025e-100
-5.09882e-108
-5.47574e-111
-5.81479e-105
-5.8535e-113
-1.40506e-116
-4.19448e-109
-5.00717e-117
-3.83744e-122
-8.26107e-115
-8.88693e-123
-3.78903e-129
-2.08796e-120
-2.0841e-128
-1.46629e-137
-1.38984e-127
-2.22971e-135
-7.43036e-149
-4.21056e-136
-2.59848e-144
-1.75696e-161
-1.62362e-147
-2.10748e-155
-2.43022e-160
-1.48919e-161
-5.22331e-164
-2.28813e-173
-6.25428e-163
1.26521e-11
-6.98237e-09
5.22508e-16
4.48125e-11
-2.13188e-08
-3.78543e-15
-1.70678e-10
-3.55316e-08
-1.56341e-14
-2.53178e-10
-5.10059e-08
-1.0136e-15
6.98475e-10
-7.99736e-08
-7.53238e-15
9.34e-10
-9.94219e-08
-1.17722e-14
1.65486e-10
-1.0023e-07
-9.02259e-15
5.9499e-10
-9.26688e-08
1.23005e-14
2.07583e-09
-7.7811e-08
-1.72238e-15
2.10473e-09
-7.74056e-08
-6.53567e-15
1.20181e-09
-6.51287e-08
-2.83486e-15
1.66295e-10
-2.18573e-08
-7.10127e-16
4.10996e-12
-1.74343e-09
-5.08493e-17
4.7224e-14
-3.9737e-11
-1.08813e-18
4.69245e-16
-5.05893e-13
-1.24697e-20
4.56818e-18
-4.75172e-15
-1.10166e-22
6.99368e-20
-6.90872e-17
-1.63504e-24
9.12738e-22
-5.715e-19
-1.2918e-26
5.23028e-24
-1.9144e-21
-4.03245e-29
2.40177e-26
-9.46069e-24
-1.89171e-31
7.37687e-29
-3.32223e-26
-6.34605e-34
1.66806e-31
-8.58177e-29
-1.5805e-36
2.75692e-34
-1.68017e-31
-3.04133e-39
3.1569e-37
-2.40172e-34
-4.37581e-42
2.2224e-40
-2.30244e-37
-4.30435e-45
6.9975e-44
-1.22739e-40
-2.56359e-48
-8.81265e-79
-1.77507e-44
-5.97036e-52
-3.15794e-100
-3.90931e-93
-8.71707e-93
-2.81695e-102
-1.615e-96
-1.83498e-104
-5.58817e-107
-4.38247e-100
-5.29218e-108
-5.29992e-111
-5.52416e-105
-5.63325e-113
-1.47191e-116
-3.51195e-109
-4.28878e-117
-5.49489e-122
-7.79831e-115
-8.35464e-123
-4.40923e-129
-2.56425e-120
-2.68101e-128
-1.65657e-137
-1.59324e-127
-2.31791e-135
-8.39974e-149
-4.19107e-136
-2.85578e-144
-1.05599e-162
-1.61467e-147
-2.17835e-155
-2.42287e-174
-1.58228e-161
-2.27668e-169
-1.87098e-173
-3.14494e-178
1.31342e-11
-6.99549e-09
3.85676e-16
4.81026e-11
-2.13537e-08
-1.19411e-15
-2.24577e-10
-3.52589e-08
-1.64238e-14
-2.94262e-10
-5.09362e-08
-2.54382e-15
7.14173e-10
-8.0982e-08
-6.66006e-15
4.1834e-10
-9.91261e-08
-6.41493e-15
-5.11778e-10
-9.92997e-08
-7.62276e-15
1.68341e-10
-9.33487e-08
7.74724e-15
1.95391e-09
-7.95966e-08
-7.86323e-15
2.07524e-09
-7.78923e-08
-7.00507e-15
1.23778e-09
-6.70474e-08
-3.30872e-15
1.83763e-10
-2.37137e-08
-8.86723e-16
4.77237e-12
-2.00708e-09
-6.70268e-17
5.49307e-14
-4.71496e-11
-1.48047e-18
5.37547e-16
-6.01467e-13
-1.6468e-20
4.70401e-18
-5.40546e-15
-1.38982e-22
5.65577e-20
-6.39945e-17
-1.60492e-24
7.87928e-22
-4.38445e-19
-1.07247e-26
4.59614e-24
-1.63071e-21
-3.66131e-29
1.92778e-26
-7.53828e-24
-1.58965e-31
5.5622e-29
-2.44697e-26
-4.93723e-34
1.18108e-31
-5.90819e-29
-1.15613e-36
1.80906e-34
-1.07287e-31
-2.08068e-39
1.86134e-37
-1.39136e-34
-2.75206e-42
1.09229e-40
-1.15184e-37
-2.39986e-45
2.1019e-44
-4.60204e-41
-1.15612e-48
-6.63683e-96
2.74396e-49
-1.37297e-52
-7.43639e-99
-3.80442e-93
-6.35218e-101
-3.44041e-102
-1.54182e-96
-1.84399e-104
-6.24494e-107
-4.36738e-100
-5.40865e-108
-5.07335e-111
-5.29771e-105
-5.47579e-113
-1.59829e-116
-2.92512e-109
-3.64535e-117
-7.25526e-122
-7.63924e-115
-8.15647e-123
-6.6832e-129
-2.90457e-120
-3.1783e-128
-1.83191e-137
-2.50736e-127
-2.97813e-135
-9.2372e-149
-4.1162e-136
-2.95001e-144
-1.24637e-162
-1.56475e-147
-2.19569e-155
-2.20417e-174
-1.69296e-161
-2.47011e-169
-2.05931e-173
-3.51076e-181
1.34845e-11
-7.00897e-09
-3.73244e-16
4.98092e-11
-2.13901e-08
-1.95475e-15
-2.83303e-10
-3.49258e-08
-1.39848e-14
-2.69296e-10
-5.09502e-08
3.75971e-16
6.54057e-10
-8.19054e-08
-1.36256e-14
-1.48223e-10
-9.83238e-08
-5.11281e-15
-9.43329e-10
-9.85044e-08
-6.6724e-15
-2.83449e-11
-9.42633e-08
-4.27334e-16
1.87755e-09
-8.15025e-08
-9.05768e-15
2.04393e-09
-7.83809e-08
-5.17687e-15
1.26928e-09
-6.90072e-08
-3.71048e-15
2.02763e-10
-2.57981e-08
-1.07926e-15
5.55789e-12
-2.32878e-09
-8.57309e-17
6.40581e-14
-5.65933e-11
-1.95206e-18
6.18433e-16
-7.24035e-13
-2.14063e-20
4.98599e-18
-6.30776e-15
-1.74925e-22
4.74309e-20
-6.12642e-17
-1.6135e-24
6.99641e-22
-3.44226e-19
-8.93291e-27
4.00167e-24
-1.45605e-21
-3.3959e-29
1.52376e-26
-6.1103e-24
-1.34811e-31
4.06741e-29
-1.81421e-26
-3.83534e-34
7.96424e-32
-4.04336e-29
-8.29985e-37
1.10447e-34
-6.69059e-32
-1.3668e-39
9.85012e-38
-7.6593e-35
-1.61795e-42
4.44405e-41
-5.19211e-38
-1.19868e-45
8.28005e-54
-1.27744e-41
-4.20765e-49
-1.2261e-95
-1.49072e-74
3.52671e-57
-8.96208e-99
-3.98739e-93
-5.02253e-101
-4.11776e-102
-1.47031e-96
-1.85291e-104
-7.00845e-107
-4.32643e-100
-5.48651e-108
-4.83428e-111
-5.14246e-105
-5.38424e-113
-1.77923e-116
-2.44603e-109
-3.09464e-117
-8.88793e-122
-7.6205e-115
-8.17898e-123
-1.22098e-128
-3.06884e-120
-3.503e-128
-1.95013e-137
-4.08123e-127
-4.55587e-135
-9.6699e-149
-3.83588e-136
-2.9778e-144
-1.47738e-162
-1.44057e-147
-2.11319e-155
-2.69032e-174
-1.82515e-161
-2.70051e-169
-2.31655e-173
-4.01725e-181
1.38364e-11
-7.0228e-09
1.33894e-15
5.09626e-11
-2.14272e-08
-1.39371e-15
-3.23259e-10
-3.45516e-08
-1.23226e-14
-1.27102e-10
-5.11464e-08
7.51226e-17
5.77179e-10
-8.26097e-08
-7.67266e-15
-5.5851e-10
-9.71881e-08
-1.33726e-14
-9.92021e-10
-9.80707e-08
3.64802e-16
4.24523e-11
-9.52974e-08
1.33348e-14
1.86523e-09
-8.33253e-08
-1.68591e-14
2.01538e-09
-7.88063e-08
-6.27461e-15
1.29612e-09
-7.0968e-08
-4.02385e-15
2.23332e-10
-2.81215e-08
-1.30535e-15
6.49367e-12
-2.72181e-09
-1.15232e-16
7.49773e-14
-6.87406e-11
-2.65775e-18
7.14666e-16
-8.83418e-13
-2.89739e-20
5.4126e-18
-7.52508e-15
-2.28115e-22
4.17592e-20
-6.21222e-17
-1.71197e-24
6.26532e-22
-2.86413e-19
-7.78283e-27
3.42396e-24
-1.36539e-21
-3.30669e-29
1.18621e-26
-5.1181e-24
-1.15276e-31
2.91337e-29
-1.37952e-26
-2.97894e-34
5.19017e-32
-2.79539e-29
-5.90776e-37
6.36492e-35
-4.12206e-32
-8.78188e-40
4.69866e-38
-4.01367e-35
-9.06233e-43
1.40578e-41
-2.04255e-38
-5.39594e-46
-1.73511e-77
-1.39706e-42
-1.11353e-49
-3.91643e-95
-7.46347e-89
-1.9568e-82
-1.07752e-98
-4.85121e-93
-6.33186e-101
-4.80827e-102
-1.40304e-96
-1.86152e-104
-7.91194e-107
-4.21888e-100
-5.49567e-108
-4.63606e-111
-5.05784e-105
-5.36125e-113
-2.02763e-116
-2.08237e-109
-2.6529e-117
-1.02647e-121
-8.05642e-115
-8.4377e-123
-2.03766e-128
-3.09549e-120
-3.65784e-128
-1.97469e-137
-5.689e-127
-6.53112e-135
-9.84498e-149
-3.44778e-136
-2.88796e-144
-1.75948e-162
-1.33571e-147
-1.9836e-155
-3.34528e-174
-1.98402e-161
-2.9765e-169
-2.64162e-173
-4.65425e-181
1.41685e-11
-7.03697e-09
5.23422e-17
5.14319e-11
-2.14645e-08
-2.62591e-15
-3.25411e-10
-3.41747e-08
-8.20237e-15
1.53208e-10
-5.1625e-08
8.35558e-16
5.69543e-10
-8.30261e-08
-1.34527e-14
-6.41908e-10
-9.59766e-08
-1.15988e-14
-6.47015e-10
-9.80653e-08
8.31146e-15
3.47329e-10
-9.62913e-08
1.86802e-14
1.91823e-09
-8.48962e-08
-1.08898e-14
1.99314e-09
-7.91084e-08
-3.8273e-15
1.31785e-09
-7.2883e-08
-4.60627e-15
2.45346e-10
-3.06877e-08
-1.59583e-15
7.60934e-12
-3.20203e-09
-1.49107e-16
8.81594e-14
-8.45198e-11
-3.55421e-18
8.30251e-16
-1.09394e-12
-3.86502e-20
6.00345e-18
-9.16678e-15
-2.95219e-22
3.9117e-20
-6.60257e-17
-1.88677e-24
5.7538e-22
-2.56974e-19
-7.11011e-27
2.95903e-24
-1.32879e-21
-3.27753e-29
9.34989e-27
-4.42839e-24
-1.02274e-31
2.08981e-29
-1.07698e-26
-2.39297e-34
3.32291e-32
-1.95311e-29
-4.26822e-37
3.48719e-35
-2.4993e-32
-5.57458e-40
1.98091e-38
-1.96478e-35
-4.80939e-43
1.61389e-42
-6.31302e-39
-2.09046e-46
-4.11709e-92
2.28604e-49
-1.13508e-50
-2.72897e-95
-7.7076e-89
-1.16142e-97
-1.26117e-98
-4.95392e-93
-6.55058e-101
-5.4665e-102
-1.34174e-96
-1.87023e-104
-8.97802e-107
-4.05274e-100
-5.41041e-108
-4.54407e-111
-5.03076e-105
-5.39162e-113
-2.61251e-116
-1.83664e-109
-2.33118e-117
-1.14588e-121
-1.0038e-114
-9.92382e-123
-2.90281e-128
-3.07631e-120
-3.71575e-128
-1.96257e-137
-6.79745e-127
-8.18337e-135
-1.02594e-148
-3.10842e-136
-2.7024e-144
-2.10685e-162
-1.29238e-147
-1.91157e-155
-4.20383e-174
-2.17637e-161
-3.30964e-169
-3.05185e-173
-5.45942e-181
1.45395e-11
-7.05151e-09
4.38902e-16
5.12164e-11
-2.15011e-08
-1.74422e-15
-2.88483e-10
-3.3835e-08
-6.15516e-15
5.16326e-10
-5.24298e-08
2.19021e-15
6.80323e-10
-8.31901e-08
-1.53689e-14
-3.66444e-10
-9.49299e-08
-1.10535e-14
-2.20584e-11
-9.84095e-08
5.02713e-15
7.86773e-10
-9.70996e-08
2.40272e-14
2.01528e-09
-8.61246e-08
-2.11314e-14
1.97817e-09
-7.92526e-08
-6.68231e-15
1.33383e-09
-7.4705e-08
-5.30546e-15
2.6858e-10
-3.34948e-08
-1.93986e-15
8.94062e-12
-3.78854e-09
-1.91604e-16
1.04264e-13
-1.05224e-10
-4.74694e-18
9.71223e-16
-1.37656e-12
-5.21747e-20
6.77324e-18
-1.14007e-14
-3.88688e-22
3.88157e-20
-7.29731e-17
-2.17155e-24
5.30726e-22
-2.55099e-19
-7.14356e-27
2.57381e-24
-1.31717e-21
-3.33829e-29
7.44047e-27
-3.95247e-24
-9.2569e-32
1.49806e-29
-8.62061e-27
-1.94461e-34
2.08067e-32
-1.37493e-29
-3.07679e-37
1.78879e-35
-1.47616e-32
-3.44428e-40
6.85973e-39
-8.6256e-36
-2.35251e-43
1.91124e-52
-9.77586e-40
-6.18451e-47
-2.97574e-91
-1.55937e-85
3.22632e-57
-3.6415e-95
-7.73419e-89
-1.05096e-96
-1.45464e-98
-5.06709e-93
-6.79604e-101
-6.07261e-102
-1.28812e-96
-1.8804e-104
-1.01981e-106
-3.84556e-100
-5.24803e-108
-4.6246e-111
-5.04497e-105
-5.46069e-113
-3.83791e-116
-1.70276e-109
-2.13306e-117
-1.25751e-121
-1.35089e-114
-1.3336e-122
-3.62684e-128
-3.00182e-120
-3.71669e-128
-1.98049e-137
-7.26167e-127
-9.16124e-135
-1.10367e-148
-2.89646e-136
-2.55318e-144
-2.53879e-162
-1.2875e-147
-1.90756e-155
-5.3369e-174
-2.41116e-161
-3.7152e-169
-3.57389e-173
-6.48772e-181
1.48507e-11
-7.06636e-09
2.73829e-16
5.05332e-11
-2.15368e-08
-1.82725e-15
-2.28371e-10
-3.35561e-08
-4.47194e-15
8.67216e-10
-5.35254e-08
-9.34298e-16
8.89194e-10
-8.32121e-08
-1.46235e-14
1.66183e-10
-9.42068e-08
-1.39124e-14
6.63439e-10
-9.89064e-08
4.26993e-15
1.19509e-09
-9.76307e-08
3.11541e-14
2.10596e-09
-8.70354e-08
-2.03189e-14
1.96851e-09
-7.92558e-08
-5.34675e-15
1.34395e-09
-7.6395e-08
-5.11413e-15
2.92843e-10
-3.65369e-08
-2.26488e-15
1.05344e-11
-4.50443e-09
-2.42815e-16
1.24235e-13
-1.32656e-10
-6.30218e-18
1.14637e-15
-1.7619e-12
-7.01781e-20
7.77378e-18
-1.44786e-14
-5.14993e-22
4.18532e-20
-8.43498e-17
-2.57659e-24
4.65485e-22
-2.94396e-19
-8.19227e-27
2.24721e-24
-1.37654e-21
-3.4692e-29
5.97357e-27
-3.64394e-24
-8.62705e-32
1.07127e-29
-7.04815e-27
-1.61537e-34
1.26504e-32
-9.65949e-30
-2.22377e-37
8.34325e-36
-8.28516e-33
-2.05591e-40
1.14952e-39
-3.05355e-36
-1.0146e-43
-2.866e-88
3.52749e-47
-8.88112e-48
-4.2039e-91
-1.55423e-85
-2.23951e-93
-4.63047e-95
-7.75237e-89
-1.25439e-96
-1.65991e-98
-5.18928e-93
-7.04242e-101
-6.61223e-102
-1.244e-96
-1.89295e-104
-1.18283e-106
-3.6103e-100
-5.03281e-108
-4.91889e-111
-5.27973e-105
-5.73594e-113
-5.70348e-116
-1.65699e-109
-2.04667e-117
-1.33192e-121
-1.77288e-114
-1.81389e-122
-4.15391e-128
-2.81378e-120
-3.58635e-128
-2.06801e-137
-7.29646e-127
-9.54892e-135
-1.24036e-148
-2.81616e-136
-2.49705e-144
-3.08177e-162
-1.43716e-147
-1.99427e-155
-6.84994e-174
-2.70033e-161
-4.21361e-169
-4.24519e-173
-7.8157e-181
1.5039e-11
-7.08141e-09
-5.03378e-16
5.00167e-11
-2.15718e-08
-2.05105e-15
-1.62134e-10
-3.33439e-08
-1.15286e-15
1.13728e-09
-5.48248e-08
-3.21639e-15
1.14089e-09
-8.32157e-08
-2.02838e-14
7.90844e-10
-9.38568e-08
-7.12922e-15
1.1492e-09
-9.92645e-08
1.16429e-14
1.37629e-09
-9.78572e-08
2.92165e-14
2.10982e-09
-8.77688e-08
-3.67535e-14
1.95808e-09
-7.92108e-08
-7.66715e-15
1.34916e-09
-7.79303e-08
-4.92124e-15
3.18218e-10
-3.98051e-08
-2.6198e-15
1.24613e-11
-5.37735e-09
-3.0558e-16
1.49504e-13
-1.69317e-10
-8.47069e-18
1.36891e-15
-2.29433e-12
-9.56753e-20
9.08432e-18
-1.87752e-14
-6.97905e-22
4.63553e-20
-1.0159e-16
-3.17762e-24
4.61851e-22
-3.50583e-19
-9.90195e-27
2.03229e-24
-1.44179e-21
-3.68895e-29
4.91115e-27
-3.42188e-24
-8.25329e-32
7.68153e-30
-5.8057e-27
-1.36224e-34
7.39328e-33
-6.6456e-30
-1.58934e-37
3.3088e-36
-4.22087e-33
-1.14904e-40
2.40273e-50
-5.8511e-37
-3.41653e-44
-4.6147e-88
-1.84995e-77
5.36978e-55
-5.52724e-91
-1.48033e-85
-2.68159e-93
-5.76758e-95
-7.77154e-89
-1.27709e-96
-1.88312e-98
-5.32089e-93
-7.29197e-101
-7.07282e-102
-1.21106e-96
-1.90729e-104
-1.42665e-106
-3.35713e-100
-4.75845e-108
-5.40264e-111
-5.70148e-105
-6.2821e-113
-8.10184e-116
-1.65163e-109
-2.03649e-117
-1.35414e-121
-2.2184e-114
-2.3627e-122
-4.56612e-128
-2.5467e-120
-3.32986e-128
-2.22526e-137
-7.21875e-127
-9.66374e-135
-1.66339e-148
-2.80713e-136
-2.51124e-144
-3.77239e-162
-1.88454e-147
-2.4943e-155
-8.89667e-174
-3.05973e-161
-4.83216e-169
-5.11849e-173
-9.55123e-181
1.50704e-11
-7.09648e-09
5.75277e-16
5.01712e-11
-2.16069e-08
-4.83785e-16
-9.9901e-11
-3.31938e-08
-2.6923e-15
1.28672e-09
-5.62114e-08
-7.46385e-15
1.35963e-09
-8.32886e-08
-1.52675e-14
1.26064e-09
-9.37577e-08
-4.56963e-15
1.19516e-09
-9.91987e-08
5.32028e-15
1.1551e-09
-9.78164e-08
2.36111e-14
1.9441e-09
-8.85573e-08
-6.06288e-14
1.93864e-09
-7.92838e-08
-2.25966e-14
1.35246e-09
-7.93089e-08
-4.70049e-15
3.45475e-10
-4.32876e-08
-2.93382e-15
1.48402e-11
-6.43953e-09
-3.78921e-16
1.82358e-13
-2.18614e-10
-1.12332e-17
1.65923e-15
-3.03705e-12
-1.30333e-19
1.08291e-17
-2.48357e-14
-9.41961e-22
5.17429e-20
-1.26946e-16
-4.02635e-24
4.36067e-22
-4.15013e-19
-1.18324e-26
1.87316e-24
-1.54805e-21
-4.00966e-29
4.08515e-27
-3.27951e-24
-7.95616e-32
5.44373e-30
-4.82814e-27
-1.14132e-34
4.02226e-33
-4.45002e-30
-1.09856e-37
7.08377e-37
-1.81577e-33
-5.72631e-41
-3.87472e-80
2.10009e-45
-6.00902e-45
-7.84927e-88
-2.78114e-80
-2.85258e-85
-6.96713e-91
-1.46636e-85
-2.69089e-93
-7.04806e-95
-7.79019e-89
-1.30072e-96
-2.13179e-98
-5.46218e-93
-7.55161e-101
-7.44615e-102
-1.19042e-96
-1.92471e-104
-1.74376e-106
-3.09512e-100
-4.46088e-108
-6.12034e-111
-6.22751e-105
-6.98184e-113
-1.09514e-115
-1.77096e-109
-2.09054e-117
-1.33459e-121
-2.65634e-114
-2.93488e-122
-4.88368e-128
-2.25214e-120
-3.00536e-128
-2.50828e-137
-6.85964e-127
-9.49601e-135
-2.31652e-148
-3.15492e-136
-2.80168e-144
-4.66155e-162
-2.28202e-147
-3.24748e-155
-1.17033e-173
-3.51056e-161
-5.60778e-169
-6.26886e-173
-1.18485e-180
1.48942e-11
-7.11138e-09
-1.57022e-15
5.10859e-11
-2.16431e-08
-1.41008e-15
-4.71227e-11
-3.30956e-08
-1.72221e-16
1.30882e-09
-5.75674e-08
-8.7e-15
1.46278e-09
-8.34426e-08
-1.90068e-14
1.3363e-09
-9.36312e-08
-6.88508e-15
6.72689e-10
-9.85347e-08
-8.12711e-17
4.9974e-10
-9.76426e-08
2.31748e-15
1.59391e-09
-8.965e-08
-6.69007e-14
1.90789e-09
-7.96511e-08
-1.27381e-14
1.36012e-09
-8.05445e-08
-4.15341e-15
3.76623e-10
-4.69653e-08
-3.24532e-15
1.78831e-11
-7.72642e-09
-4.5344e-16
2.26622e-13
-2.8505e-10
-1.44405e-17
2.05e-15
-4.07759e-12
-1.75159e-19
1.32061e-17
-3.34273e-14
-1.25346e-21
5.84824e-20
-1.63637e-16
-5.16122e-24
4.13167e-22
-4.90753e-19
-1.37659e-26
1.68771e-24
-1.715e-21
-4.37362e-29
3.43291e-27
-3.30871e-24
-7.88782e-32
3.79813e-30
-4.10769e-27
-9.74865e-35
1.96345e-33
-2.89565e-30
-7.3945e-38
1.22479e-48
-5.09567e-34
-2.35276e-41
-1.00241e-82
-6.34067e-66
3.50036e-53
-1.02486e-87
-2.78886e-80
-4.32854e-88
-8.51874e-91
-1.45153e-85
-2.69307e-93
-8.49364e-95
-7.80939e-89
-1.31975e-96
-2.41297e-98
-5.61365e-93
-7.80952e-101
-7.73017e-102
-1.18084e-96
-1.95519e-104
-2.14174e-106
-2.83251e-100
-4.14194e-108
-8.18326e-111
-6.87971e-105
-7.82856e-113
-1.4161e-115
-2.38574e-109
-2.51392e-117
-1.29074e-121
-3.05842e-114
-3.49444e-122
-4.92538e-128
-1.97163e-120
-2.66808e-128
-3.4893e-137
-6.12718e-127
-8.82184e-135
-2.87583e-148
-4.43205e-136
-4.24345e-144
-5.82057e-162
-2.43669e-147
-3.77736e-155
-1.56074e-173
-4.0813e-161
-6.59058e-169
-7.80479e-173
-1.49307e-180
1.45284e-11
-7.12592e-09
-5.71201e-16
5.25251e-11
-2.16811e-08
7.60598e-16
-9.89749e-12
-3.30331e-08
-3.80888e-15
1.2243e-09
-5.88016e-08
-1.09576e-14
1.381e-09
-8.35993e-08
-1.52201e-14
8.95557e-10
-9.31457e-08
-2.76026e-15
-3.13784e-10
-9.73249e-08
-2.81392e-15
-3.76049e-10
-9.75793e-08
-3.16915e-14
1.17225e-09
-9.11967e-08
-6.61214e-14
1.88074e-09
-8.03897e-08
9.59866e-15
1.38252e-09
-8.16486e-08
-2.63996e-15
4.15476e-10
-5.08046e-08
-3.48561e-15
2.19666e-11
-9.27322e-09
-5.45646e-16
2.88877e-13
-3.74337e-10
-1.88146e-17
2.59489e-15
-5.53231e-12
-2.38559e-19
1.65294e-17
-4.5579e-14
-1.68885e-21
6.71289e-20
-2.16041e-16
-6.77088e-24
3.87216e-22
-5.82935e-19
-1.60442e-26
1.65494e-24
-1.98216e-21
-4.9814e-29
2.93636e-27
-3.4356e-24
-7.96422e-32
2.6206e-30
-3.62091e-27
-8.34683e-35
6.73336e-34
-1.79026e-30
-4.72947e-38
-1.23038e-68
2.19516e-43
-5.99916e-42
-1.52081e-82
-6.10004e-66
-1.06226e-73
-1.27869e-87
-2.7429e-80
-7.21004e-88
-1.01907e-90
-1.43775e-85
-2.69366e-93
-1.01223e-94
-7.82986e-89
-1.33923e-96
-2.72733e-98
-5.77601e-93
-8.08499e-101
-7.92976e-102
-1.17821e-96
-1.99196e-104
-2.65045e-106
-2.57681e-100
-3.81708e-108
-1.32944e-110
-7.6855e-105
-8.86754e-113
-1.75736e-115
-3.64465e-109
-3.68986e-117
-1.24298e-121
-3.38913e-114
-4.00153e-122
-4.71208e-128
-1.73736e-120
-2.36391e-128
-5.40862e-137
-5.26427e-127
-7.83669e-135
-3.23163e-148
-6.17799e-136
-7.02751e-144
-7.35009e-162
-2.4183e-147
-3.9859e-155
-2.11195e-173
-4.81044e-161
-7.84896e-169
-9.88525e-173
-1.9126e-180
1.39429e-11
-7.13987e-09
-1.34673e-15
5.26531e-11
-2.17198e-08
-9.65014e-16
4.47855e-12
-3.29849e-08
-6.8713e-15
1.06815e-09
-5.98653e-08
-1.01032e-14
1.09074e-09
-8.36218e-08
-1.13369e-14
4.89746e-11
-9.21039e-08
-5.93912e-15
-1.39394e-09
-9.58816e-08
-6.01789e-15
-1.09807e-09
-9.7874e-08
-3.96237e-14
8.74696e-10
-9.31676e-08
-6.44061e-14
1.89028e-09
-8.14148e-08
1.15512e-14
1.43253e-09
-8.26105e-08
-1.69052e-15
4.67715e-10
-5.47489e-08
-3.57199e-15
2.77243e-11
-1.11095e-08
-6.30099e-16
3.80447e-13
-4.93363e-10
-2.37376e-17
3.38247e-15
-7.54803e-12
-3.15152e-19
2.12988e-17