/*--------------------------------*- C++ -*----------------------------------*\
| =========                 |                                                 |
| \\      /  F ield         | OpenFOAM: The Open Source CFD Toolbox           |
|  \\    /   O peration     | Version:  v2012                                 |
|   \\  /    A nd           | Website:  www.openfoam.com                      |
|    \\/     M anipulation  |                                                 |
\*---------------------------------------------------------------------------*/
FoamFile
{
    version     2.0;
    format      ascii;
    class       surfaceScalarField;
    location    "0.2";
    object      phi;
}
// * * * * * * * * * * * * * * * * * * * * * * * * * * * * * * * * * * * * * //

dimensions      [0 3 -1 0 0 0 0];
oriented        oriented;


internalField   nonuniform List<scalar> 
8048
(
-1.71922e-12
-7.51487e-09
-2.47321e-15
2.0452e-11
-2.2824e-08
-5.11474e-15
4.75313e-10
-4.01377e-08
-1.5177e-16
8.60974e-10
-6.30204e-08
-8.99515e-15
1.44013e-09
-8.95421e-08
-1.0116e-14
1.94848e-09
-1.16696e-07
-1.93928e-14
2.01937e-09
-1.34463e-07
-2.51312e-14
-1.20793e-07
-4.25966e-14
-1.7619e-12
-7.51311e-09
-1.61191e-15
2.39298e-11
-2.28497e-08
-2.93299e-15
4.24608e-10
-4.05384e-08
-1.14309e-15
8.15666e-10
-6.34114e-08
3.2852e-15
1.40351e-09
-9.01299e-08
-8.80814e-17
1.89868e-09
-1.17191e-07
-1.2193e-14
1.94246e-09
-1.34507e-07
-1.55257e-14
2.6836e-10
-1.19119e-07
-5.42156e-15
-1.67482e-09
-9.25012e-08
-4.79064e-14
-2.97535e-09
-6.47863e-08
-8.54682e-14
-4.32751e-09
-3.2188e-08
-4.79741e-14
-4.93505e-09
-1.89284e-08
-2.70966e-14
-5.77054e-09
-1.95017e-08
-6.57631e-15
-6.79277e-09
-2.17124e-08
-5.19698e-15
-2.42685e-08
-5.92784e-15
-1.57435e-12
-7.51153e-09
-1.31708e-15
2.82471e-11
-2.28794e-08
-3.17992e-15
3.8156e-10
-4.08917e-08
-3.88841e-15
7.86898e-10
-6.38167e-08
4.57168e-16
1.38322e-09
-9.07261e-08
9.94773e-16
1.86167e-09
-1.1767e-07
-1.00328e-14
1.87266e-09
-1.34518e-07
-1.01882e-14
1.43623e-10
-1.1739e-07
-1.28018e-14
-1.87469e-09
-9.04829e-08
-3.65509e-14
-3.24426e-09
-6.34167e-08
-7.74403e-14
-4.59616e-09
-3.08363e-08
-6.16114e-14
-5.16883e-09
-1.83557e-08
-9.06834e-15
-5.96478e-09
-1.87057e-08
-3.59816e-15
-6.94648e-09
-2.07308e-08
-4.44712e-15
-2.31346e-08
-5.25035e-15
-1.11733e-12
-7.51041e-09
-1.92376e-15
3.42517e-11
-2.29148e-08
-4.29674e-15
3.48558e-10
-4.12061e-08
-4.02112e-15
7.76422e-10
-6.42446e-08
1.39091e-15
1.38027e-09
-9.13301e-08
-1.26206e-14
1.83644e-09
-1.18126e-07
-4.2768e-15
1.80856e-09
-1.3449e-07
-8.24233e-15
3.62547e-11
-1.15617e-07
-3.07324e-15
-2.08672e-09
-8.83599e-08
-3.23764e-14
-3.55665e-09
-6.19466e-08
-1.00799e-13
-4.8655e-09
-2.95277e-08
-6.2956e-14
-5.3989e-09
-1.78224e-08
-3.4724e-15
-6.15244e-09
-1.79522e-08
-4.51962e-15
-7.09191e-09
-1.97913e-08
-3.96415e-15
-2.20446e-08
-4.87222e-15
-4.18348e-13
-7.50999e-09
-9.52486e-16
4.20593e-11
-2.29572e-08
-3.2196e-15
3.26842e-10
-4.14909e-08
-5.64261e-15
7.84544e-10
-6.47022e-08
7.36248e-16
1.39551e-09
-9.1941e-08
-4.8632e-15
1.82238e-09
-1.18553e-07
-4.70419e-15
1.75068e-09
-1.34418e-07
-1.02895e-14
-4.31244e-11
-1.13824e-07
-1.14786e-14
-2.30645e-09
-8.60965e-08
-3.94461e-14
-3.91165e-09
-6.03413e-08
-1.07857e-13
-5.12832e-09
-2.8311e-08
-4.68624e-14
-5.6222e-09
-1.73285e-08
-8.00095e-15
-6.33205e-09
-1.72423e-08
-5.50806e-15
-7.22807e-09
-1.88953e-08
-3.75688e-15
-2.09991e-08
-4.8668e-15
4.41204e-13
-7.51043e-09
-2.55221e-15
5.11642e-11
-2.30079e-08
-4.83949e-15
3.18017e-10
-4.17577e-08
-1.32399e-15
8.13035e-10
-6.51972e-08
-5.49524e-16
1.42984e-09
-9.25579e-08
-7.80732e-15
1.81802e-09
-1.18941e-07
-6.22759e-15
1.69857e-09
-1.34299e-07
-7.04279e-15
-8.24812e-11
-1.12043e-07
-3.23277e-15
-2.52725e-09
-8.36518e-08
-4.9092e-14
-4.29757e-09
-5.8571e-08
-1.04262e-13
-5.37969e-09
-2.72288e-08
-8.5322e-14
-5.83549e-09
-1.68727e-08
-2.81703e-14
-6.5017e-09
-1.65761e-08
-7.80379e-15
-7.35349e-09
-1.80435e-08
-4.26691e-15
-1.99988e-08
-5.03118e-15
1.39135e-12
-7.51182e-09
-1.24466e-15
6.01765e-11
-2.30667e-08
-4.02241e-15
3.22061e-10
-4.20196e-08
-3.58048e-15
8.61791e-10
-6.5737e-08
-2.51001e-15
1.48066e-09
-9.31767e-08
-2.30615e-15
1.8179e-09
-1.19278e-07
-3.89408e-15
1.64779e-09
-1.34129e-07
-4.16368e-15
-7.24615e-11
-1.10322e-07
2.85372e-15
-2.74131e-09
-8.0983e-08
-4.93397e-14
-4.68984e-09
-5.66225e-08
-8.93026e-14
-5.62128e-09
-2.62973e-08
-9.56378e-14
-6.03705e-09
-1.6457e-08
-2.89651e-14
-6.65978e-09
-1.59533e-08
-8.533e-15
-7.46656e-09
-1.72367e-08
-4.72991e-15
-1.9044e-08
-5.05349e-15
2.34139e-12
-7.51417e-09
-1.74156e-15
6.8077e-11
-2.31324e-08
-2.67926e-15
3.40509e-10
-4.22921e-08
-1.8396e-15
9.3148e-10
-6.6328e-08
-2.14994e-15
1.54203e-09
-9.37873e-08
-4.51348e-15
1.81209e-09
-1.19548e-07
-2.40064e-15
1.58854e-09
-1.33905e-07
-1.82955e-15
-8.81373e-12
-1.08725e-07
2.17284e-15
-2.93918e-09
-7.80527e-08
-4.36136e-14
-5.06443e-09
-5.44972e-08
-7.25209e-14
-5.85686e-09
-2.55049e-08
-5.76055e-14
-6.22663e-09
-1.60872e-08
-1.49569e-14
-6.80484e-09
-1.53751e-08
-7.24002e-15
-7.56529e-09
-1.64763e-08
-4.67626e-15
-1.81354e-08
-4.7568e-15
3.25112e-12
-7.51741e-09
1.31966e-16
7.41698e-11
-2.32033e-08
-3.81848e-15
3.73802e-10
-4.25917e-08
-2.67226e-15
1.01736e-09
-6.69715e-08
-3.46766e-15
1.59863e-09
-9.43686e-08
-4.6132e-15
1.78189e-09
-1.19731e-07
-4.68746e-15
1.50165e-09
-1.33625e-07
-2.36453e-15
1.02959e-10
-1.07326e-07
2.08573e-15
-3.11999e-09
-7.48298e-08
-4.10904e-14
-5.41604e-09
-5.22011e-08
-5.93456e-14
-6.09095e-09
-2.483e-08
-2.72749e-14
-6.40485e-09
-1.57734e-08
-7.25585e-15
-6.93533e-09
-1.48446e-08
-5.59661e-15
-7.64721e-09
-1.57644e-08
-4.20674e-15
-1.7274e-08
-4.55017e-15
4.08425e-12
-7.5215e-09
-1.6616e-15
7.94169e-11
-2.32787e-08
-4.27405e-15
4.23774e-10
-4.29361e-08
3.94134e-16
1.11063e-09
-6.76584e-08
-2.72478e-15
1.62843e-09
-9.48864e-08
-3.80751e-15
1.70166e-09
-1.19805e-07
-1.98579e-15
1.35801e-09
-1.33281e-07
-6.69147e-15
2.39507e-10
-1.06208e-07
1.38569e-14
-3.29394e-09
-7.12963e-08
-3.58571e-14
-5.74974e-09
-4.97453e-08
-5.50732e-14
-6.32362e-09
-2.42561e-08
-2.20091e-14
-6.57017e-09
-1.55268e-08
-6.03791e-15
-7.04794e-09
-1.43668e-08
-4.40891e-15
-7.70838e-09
-1.5104e-08
-3.59167e-15
-1.64614e-08
-3.89878e-15
4.87287e-12
-7.52637e-09
-5.71762e-16
8.52088e-11
-2.3359e-08
-6.44029e-15
4.8836e-10
-4.33392e-08
1.43836e-17
1.19125e-09
-6.83613e-08
-2.48684e-15
1.59839e-09
-9.52935e-08
-2.80742e-15
1.53415e-09
-1.1974e-07
-3.99242e-15
1.11477e-09
-1.32862e-07
-5.53005e-15
3.48326e-10
-1.05441e-07
1.21886e-14
-3.48445e-09
-6.74635e-08
-3.58036e-14
-6.07768e-09
-4.7152e-08
-5.77342e-14
-6.5498e-09
-2.3784e-08
-2.97163e-14
-6.71888e-09
-1.53578e-08
-9.52867e-15
-7.13759e-09
-1.39481e-08
-5.56831e-15
-7.74365e-09
-1.44979e-08
-3.90118e-15
-1.56991e-08
-4.00658e-15
5.71651e-12
-7.53208e-09
-3.13623e-16
9.42923e-11
-2.34476e-08
-5.0865e-15
5.62393e-10
-4.38073e-08
6.79223e-16
1.23211e-09
-6.9031e-08
-2.44858e-15
1.47008e-09
-9.55315e-08
-7.38513e-15
1.23264e-09
-1.19503e-07
-5.16163e-15
7.16558e-10
-1.32346e-07
-6.53414e-15
3.52241e-10
-1.05077e-07
1.94657e-14
-3.68057e-09
-6.34307e-08
-2.93731e-14
-6.37162e-09
-4.4461e-08
-5.19958e-14
-6.7481e-09
-2.34075e-08
-2.95084e-14
-6.84114e-09
-1.52648e-08
-1.0831e-14
-7.19559e-09
-1.35936e-08
-6.426e-15
-7.7459e-09
-1.39476e-08
-4.29056e-15
-1.49885e-08
-4.23889e-15
6.64194e-12
-7.53873e-09
-5.36239e-16
1.07729e-10
-2.35487e-08
-4.98866e-15
6.30378e-10
-4.433e-08
4.72604e-16
1.1959e-09
-6.95965e-08
-3.03522e-15
1.20052e-09
-9.55361e-08
-6.48412e-16
7.50608e-10
-1.19053e-07
-5.42046e-15
1.11989e-10
-1.31707e-07
-1.07987e-14
1.76918e-10
-1.05142e-07
9.76239e-15
-3.90152e-09
-5.93523e-08
-2.03476e-14
-6.5998e-09
-4.17627e-08
-4.47826e-14
-6.90422e-09
-2.31031e-08
-3.021e-14
-6.92775e-09
-1.52413e-08
-1.24181e-14
-7.21372e-09
-1.33077e-08
-7.11324e-15
-7.7075e-09
-1.34539e-08
-4.75334e-15
-1.43309e-08
-4.49462e-15
7.67466e-12
-7.5464e-09
2.62283e-16
1.26298e-10
-2.36674e-08
-3.91138e-15
6.73011e-10
-4.48767e-08
3.12147e-15
1.04999e-09
-6.99735e-08
-5.00647e-15
7.57521e-10
-9.52437e-08
-1.11941e-14
4.76812e-11
-1.18343e-07
2.26645e-15
-7.48837e-10
-1.30911e-07
4.05942e-15
-2.28793e-10
-1.05662e-07
1.77184e-14
-4.19464e-09
-5.53865e-08
-1.15469e-14
-6.76059e-09
-3.91967e-08
-3.85166e-14
-7.01693e-09
-2.28467e-08
-2.90806e-14
-6.9745e-09
-1.52837e-08
-1.32661e-14
-7.18735e-09
-1.30948e-08
-8.34989e-15
-7.62188e-09
-1.30193e-08
-5.32281e-15
-1.37275e-08
-4.91151e-15
8.74196e-12
-7.55514e-09
-9.33719e-16
1.47305e-10
-2.3806e-08
-2.60746e-15
6.67091e-10
-4.53964e-08
1.43934e-15
7.74518e-10
-7.0081e-08
-7.21248e-15
1.43895e-10
-9.46131e-08
-9.33306e-15
-8.59186e-10
-1.1734e-07
3.69485e-15
-1.84815e-09
-1.29922e-07
-8.25456e-16
-9.19167e-10
-1.06591e-07
1.66352e-14
-4.49781e-09
-5.18078e-08
-3.57687e-15
-6.80724e-09
-3.68873e-08
-3.05198e-14
-7.04749e-09
-2.26065e-08
-2.57836e-14
-6.95803e-09
-1.53732e-08
-1.25474e-14
-7.10163e-09
-1.29512e-08
-8.16407e-15
-7.47709e-09
-1.26439e-08
-5.40217e-15
-1.3177e-08
-5.00473e-15
9.85897e-12
-7.565e-09
3.54285e-16
1.66921e-10
-2.3963e-08
-1.6995e-15
5.96681e-10
-4.58262e-08
1.9702e-15
3.68781e-10
-6.98531e-08
-4.57096e-15
-6.2118e-10
-9.36231e-08
4.08492e-16
-1.95783e-09
-1.16003e-07
-3.60883e-15
-3.1825e-09
-1.28697e-07
-7.85459e-16
-1.9803e-09
-1.07793e-07
6.20971e-15
-4.73847e-09
-4.90497e-08
6.87666e-15
-6.69398e-09
-3.49318e-08
-2.39309e-14
-6.94193e-09
-2.23585e-08
-2.30098e-14
-6.83953e-09
-1.54756e-08
-1.22045e-14
-6.93138e-09
-1.28593e-08
-8.27103e-15
-7.25582e-09
-1.23194e-08
-5.47578e-15
-1.26726e-08
-5.16317e-15
1.0741e-11
-7.57575e-09
-6.36261e-16
1.77595e-10
-2.41299e-08
-3.50186e-15
4.48717e-10
-4.60973e-08
8.90275e-16
-1.50973e-10
-6.92534e-08
-4.97109e-15
-1.49568e-09
-9.22784e-08
-3.04266e-15
-3.17921e-09
-1.1432e-07
-5.02609e-15
-4.72333e-09
-1.27153e-07
-2.4749e-15
-3.4857e-09
-1.0903e-07
2.12917e-15
-4.82999e-09
-4.77054e-08
1.58922e-14
-6.35478e-09
-3.3407e-08
-1.88041e-14
-6.64051e-09
-2.20728e-08
-1.97474e-14
-6.57232e-09
-1.55439e-08
-1.19285e-14
-6.64651e-09
-1.27851e-08
-9.0469e-15
-6.93932e-09
-1.20266e-08
-5.92438e-15
-1.22001e-08
-5.19009e-15
1.1269e-11
-7.58703e-09
-7.08693e-16
1.73021e-10
-2.42917e-08
-3.638e-16
2.30401e-10
-4.61547e-08
-4.08179e-16
-7.19865e-10
-6.83031e-08
-5.40644e-15
-2.36232e-09
-9.06359e-08
-1.42107e-15
-4.35073e-09
-1.12331e-07
-4.85065e-15
-6.24221e-09
-1.25261e-07
-3.51849e-15
-5.2554e-09
-1.10017e-07
-6.24672e-15
-4.45909e-09
-4.85018e-08
3.06819e-14
-5.67689e-09
-3.21892e-08
-1.04847e-14
-6.07555e-09
-2.16741e-08
-1.80808e-14
-6.11182e-09
-1.55076e-08
-9.06098e-15
-6.21843e-09
-1.26785e-08
-6.94573e-15
-6.51173e-09
-1.17333e-08
-4.84379e-15
-1.17371e-08
-3.55016e-15
1.12664e-11
-7.59829e-09
9.15074e-16
1.50534e-10
-2.44309e-08
-2.4157e-15
-2.24971e-11
-4.59817e-08
-1.94884e-16
-1.22327e-09
-6.71024e-08
-5.69714e-15
-3.02136e-09
-8.88378e-08
9.07154e-16
-5.13993e-09
-1.10213e-07
-5.49074e-15
-7.1809e-09
-1.2322e-07
-7.45491e-15
-6.43886e-09
-1.10759e-07
-1.44608e-14
-3.24794e-09
-5.16927e-08
4.19504e-14
-4.59834e-09
-3.08388e-08
-4.26655e-15
-5.22936e-09
-2.10431e-08
-1.56726e-14
-5.4516e-09
-1.52854e-08
-9.36572e-15
-5.64449e-09
-1.24856e-08
-7.77131e-15
-5.97557e-09
-1.14023e-08
-5.68124e-15
-1.12583e-08
-3.70425e-15
1.08645e-11
-7.60916e-09
-1.56613e-15
1.16003e-10
-2.45361e-08
-2.60295e-15
-2.50785e-10
-4.56149e-08
2.73827e-16
-1.54615e-09
-6.5807e-08
-6.02702e-15
-3.29867e-09
-8.70853e-08
-2.71748e-15
-5.26551e-09
-1.08246e-07
-9.2592e-15
-7.08717e-09
-1.21399e-07
-4.58798e-15
-6.28088e-09
-1.11565e-07
-1.31227e-14
-1.20289e-09
-5.67708e-08
2.61413e-14
-3.21073e-09
-2.88309e-08
1.54115e-15
-4.18038e-09
-2.00734e-08
-1.35336e-14
-4.63633e-09
-1.48295e-08
-7.84393e-15
-4.95765e-09
-1.21643e-08
-6.27076e-15
-5.35548e-09
-1.10044e-08
-5.42684e-15
-1.07433e-08
-3.28278e-15
1.02874e-11
-7.61944e-09
2.0514e-15
7.88281e-11
-2.46047e-08
-2.83882e-15
-4.08898e-10
-4.51271e-08
-3.70747e-16
-1.64763e-09
-6.45683e-08
-5.51801e-15
-3.17125e-09
-8.55616e-08
2.93759e-15
-4.74593e-09
-1.06671e-07
-7.66122e-15
-6.03502e-09
-1.2011e-07
-6.4409e-15
-4.96712e-09
-1.12633e-07
-1.11411e-14
1.16603e-09
-6.2904e-08
1.46686e-14
-1.74664e-09
-2.59182e-08
6.55323e-15
-3.08519e-09
-1.87349e-08
-8.62042e-15
-3.76076e-09
-1.41539e-08
-5.72347e-15
-4.22298e-09
-1.1702e-08
-5.48006e-15
-4.69582e-09
-1.05316e-08
-4.91575e-15
-1.01833e-08
-3.14045e-15
9.63379e-12
-7.62908e-09
-1.60582e-15
4.65219e-11
-2.46416e-08
-3.48125e-15
-4.86401e-10
-4.45942e-08
4.47722e-15
-1.56802e-09
-6.34868e-08
-1.18867e-14
-2.76044e-09
-8.43691e-08
-3.3725e-15
-3.85029e-09
-1.05582e-07
-2.74988e-15
-4.47372e-09
-1.19486e-07
1.30488e-15
-3.2073e-09
-1.139e-07
-9.15e-15
3.06613e-09
-6.91774e-08
1.11903e-14
-4.53397e-10
-2.23987e-08
4.2464e-15
-2.08212e-09
-1.71062e-08
-5.43758e-15
-2.92327e-09
-1.33127e-08
-4.86338e-15
-3.5054e-09
-1.11199e-08
-6.15659e-15
-4.04284e-09
-9.99418e-09
-4.67562e-15
-9.58317e-09
-3.47206e-15
9.24288e-12
-7.63832e-09
1.59463e-15
2.19615e-11
-2.46543e-08
-2.23691e-15
-5.0423e-10
-4.40679e-08
4.30217e-15
-1.39654e-09
-6.25945e-08
-1.34413e-14
-2.2615e-09
-8.35042e-08
-9.37853e-15
-2.93523e-09
-1.04908e-07
-2.21054e-15
-2.99198e-09
-1.19429e-07
-6.11462e-15
-1.7289e-09
-1.15163e-07
-3.37628e-15
3.79528e-09
-7.47016e-08
7.32217e-15
4.78382e-10
-1.90817e-08
2.73556e-16
-1.254e-09
-1.53738e-08
-4.1476e-15
-2.18676e-09
-1.238e-08
-2.75048e-15
-2.84634e-09
-1.04603e-08
-4.80296e-15
-3.4276e-09
-9.41293e-09
-3.78245e-15
-8.95658e-09
-3.16505e-15
9.01662e-12
-7.64734e-09
-1.0615e-15
2.01279e-12
-2.46473e-08
-3.66234e-15
-4.99472e-10
-4.35664e-08
-2.32527e-15
-1.22435e-09
-6.18696e-08
-3.50219e-15
-1.84083e-09
-8.28875e-08
2.34528e-14
-2.24863e-09
-1.045e-07
-2.15371e-14
-1.98967e-09
-1.19688e-07
-7.82762e-15
-9.4681e-10
-1.16206e-07
-3.20245e-15
3.36725e-09
-7.90156e-08
-3.57405e-15
9.81226e-10
-1.66957e-08
1.22678e-15
-6.21288e-10
-1.37713e-08
-1.37954e-15
-1.56448e-09
-1.14368e-08
-1.5418e-15
-2.25451e-09
-9.77029e-09
-3.64312e-15
-2.85749e-09
-8.80994e-09
-3.30099e-15
-8.31839e-09
-2.91892e-15
8.88443e-12
-7.65623e-09
2.45468e-16
-1.83105e-11
-2.46201e-08
-2.29718e-15
-4.98391e-10
-4.30863e-08
-1.82154e-15
-1.09223e-09
-6.12758e-08
-5.18729e-15
-1.54741e-09
-8.24321e-08
1.7623e-14
-1.81377e-09
-1.04234e-07
-3.42931e-14
-1.47188e-09
-1.20031e-07
-2.82999e-14
-7.49581e-10
-1.16928e-07
-2.45203e-14
2.23061e-09
-8.19961e-08
-7.10634e-14
1.19145e-09
-1.56569e-08
-1.37896e-14
-1.26907e-10
-1.2453e-08
4.75886e-15
-1.0161e-09
-1.05476e-08
-7.85608e-16
-1.70502e-09
-9.08137e-09
-2.88102e-15
-2.31601e-09
-8.19896e-09
-2.77305e-15
-7.67692e-09
-2.52908e-15
8.54248e-12
-7.66477e-09
-4.93722e-16
-4.28289e-11
-2.45688e-08
-2.09078e-15
-5.02879e-10
-4.26263e-08
-3.63788e-15
-9.81444e-10
-6.07973e-08
-5.2268e-15
-1.31639e-09
-8.20972e-08
-2.71988e-15
-1.4848e-09
-1.04066e-07
8.48793e-15
-1.16745e-09
-1.20348e-07
1.13252e-14
-7.09143e-10
-1.17386e-07
1.967e-14
1.00294e-09
-8.37078e-08
1.10846e-14
1.57345e-09
-1.62271e-08
6.87325e-14
4.2075e-10
-1.13003e-08
1.31949e-14
-4.36391e-10
-9.69043e-09
2.62095e-16
-1.13735e-09
-8.38041e-09
-1.31123e-15
-1.76685e-09
-2.06802e-15
-1.72032e-15
7.90765e-12
-7.67267e-09
4.69697e-16
-6.82261e-11
-2.44926e-08
-8.42995e-16
-4.88627e-10
-4.22059e-08
-3.22753e-15
-8.35171e-10
-6.04507e-08
-4.14929e-15
-1.03034e-09
-8.1902e-08
-2.06168e-15
-1.05943e-09
-1.04036e-07
-4.22278e-15
-7.12625e-10
-1.20695e-07
-2.93673e-15
-2.8894e-10
-1.1781e-07
-5.07348e-15
6.56646e-10
-8.46534e-08
-1.71034e-14
2.75601e-09
-1.83265e-08
2.10437e-14
1.27409e-09
-9.81834e-09
6.7372e-15
2.91745e-10
-8.70808e-09
5.84234e-16
-7.60401e-09
-3.00665e-16
7.00854e-12
-7.67969e-09
-1.06788e-15
-8.6115e-11
-2.43995e-08
-1.91478e-15
-4.31753e-10
-4.18603e-08
-3.60459e-15
-6.1682e-10
-6.02657e-08
-3.42404e-15
-6.25784e-10
-8.1893e-08
-1.02938e-15
-4.33194e-10
-1.04229e-07
-3.73742e-15
9.69963e-11
-1.21225e-07
-6.9598e-15
7.6149e-10
-1.18474e-07
-1.90635e-15
1.74648e-09
-8.56384e-08
-1.17866e-14
4.88729e-09
-2.14673e-08
1.98356e-14
2.48365e-09
-7.41473e-09
1.77305e-15
1.16862e-09
-7.39305e-09
5.3557e-16
-6.68678e-09
2.36039e-16
6.20783e-12
-7.68589e-09
2.75645e-16
-8.85878e-11
-2.43047e-08
-1.13555e-15
-3.30942e-10
-4.16179e-08
-2.09056e-15
-3.44945e-10
-6.02517e-08
-1.39396e-15
-1.52807e-10
-8.20852e-08
-1.32221e-15
2.88781e-10
-1.04671e-07
-3.84727e-15
1.06623e-09
-1.22002e-07
-2.86632e-15
2.10637e-09
-1.19514e-07
-5.39102e-15
3.44177e-09
-8.69738e-08
-1.00689e-14
6.9825e-09
-2.50081e-08
-1.86761e-15
3.75635e-09
-4.18855e-09
8.1938e-15
2.06172e-09
-5.69841e-09
2.36166e-15
-5.61212e-09
1.18689e-15
5.74085e-12
-7.69164e-09
-7.31187e-16
-7.50952e-11
-2.42239e-08
-1.74586e-15
-2.09215e-10
-4.14838e-08
-1.25913e-15
-7.58946e-11
-6.0385e-08
-4.90062e-15
2.80506e-10
-8.24416e-08
-4.00805e-15
9.11456e-10
-1.05302e-07
-3.36436e-15
1.87625e-09
-1.22967e-07
-7.18028e-15
3.13653e-09
-1.20775e-07
-2.7884e-15
4.52347e-09
-8.83608e-08
-2.68328e-15
7.8361e-09
-2.83207e-08
3.08855e-15
4.69313e-09
-1.04565e-09
-2.77125e-15
2.82057e-09
-3.82584e-09
2.03254e-15
-4.42819e-09
1.81888e-15
5.7515e-12
-7.69739e-09
-8.85396e-17
-5.03786e-11
-2.41678e-08
-1.51313e-15
-9.25837e-11
-4.14415e-08
-2.75009e-16
1.42797e-10
-6.06204e-08
-4.3865e-15
5.97167e-10
-8.2896e-08
-5.15674e-15
1.31941e-09
-1.06024e-07
-5.05735e-15
2.34741e-09
-1.23995e-07
-1.1155e-14
3.60769e-09
-1.22035e-07
-9.13322e-15
4.7425e-09
-8.94956e-08
-4.17863e-15
7.46148e-09
-3.10396e-08
-4.88261e-15
5.1162e-09
1.29961e-09
7.99396e-15
3.35171e-09
-2.06134e-09
3.21087e-15
-3.23365e-09
1.81748e-15
6.08821e-12
-7.70348e-09
-5.65495e-16
-2.16657e-11
-2.414e-08
-1.69513e-15
-1.8926e-13
-4.1463e-08
-2.71805e-15
2.88043e-10
-6.09086e-08
-9.38871e-16
7.75289e-10
-8.33832e-08
3.90517e-15
1.50299e-09
-1.06752e-07
-8.20504e-15
2.49251e-09
-1.24984e-07
2.35703e-14
3.61907e-09
-1.23162e-07
-2.65608e-14
4.41408e-09
-9.02905e-08
3.31981e-15
6.41109e-09
-3.30367e-08
-2.95464e-15
5.06765e-09
2.6431e-09
3.38101e-15
3.63198e-09
-6.25649e-10
8.63085e-16
-2.14817e-09
1.74757e-15
6.54168e-12
-7.71002e-09
-3.81804e-16
4.55895e-12
-2.4138e-08
-1.30382e-15
6.03925e-11
-4.15189e-08
-2.47025e-15
3.61014e-10
-6.12093e-08
-9.72531e-16
8.30227e-10
-8.38523e-08
3.72958e-15
1.50182e-09
-1.07423e-07
-1.081e-14
2.3927e-09
-1.25875e-07
1.06016e-14
3.33277e-09
-1.24102e-07
-3.67234e-14
3.81537e-09
-9.07732e-08
-1.30261e-14
5.10382e-09
-3.43253e-08
-1.66563e-14
4.75784e-09
2.98891e-09
-3.30603e-14
3.74175e-09
3.90454e-10
-3.44062e-15
-1.25134e-09
1.09668e-15
6.85147e-12
-7.71687e-09
-2.88591e-16
2.33908e-11
-2.41546e-08
-1.30445e-15
8.9369e-11
-4.15848e-08
-2.44677e-15
3.74529e-10
-6.14944e-08
-2.16793e-15
7.92583e-10
-8.42704e-08
-2.41204e-15
1.37425e-09
-1.08005e-07
-4.07553e-15
2.14102e-09
-1.26642e-07
2.67116e-16
2.88333e-09
-1.24844e-07
1.0806e-15
3.08863e-09
-9.09784e-08
1.16432e-14
3.62545e-09
-3.4862e-08
2.08077e-14
4.22728e-09
2.3872e-09
1.31076e-14
3.73184e-09
8.85927e-10
2.42344e-15
-6.0331e-10
2.33935e-15
6.76186e-12
-7.72363e-09
-5.30132e-16
3.28257e-11
-2.41806e-08
-1.18468e-15
9.33533e-11
-4.16454e-08
-2.25678e-15
3.47977e-10
-6.17491e-08
-1.47427e-15
6.99809e-10
-8.46222e-08
6.35088e-16
1.18188e-09
-1.08487e-07
-6.2609e-15
1.82704e-09
-1.27287e-07
-6.7645e-15
2.40796e-09
-1.25425e-07
-2.49812e-16
2.49072e-09
-9.10612e-08
-8.30246e-15
2.47456e-09
-3.48458e-08
2.51536e-16
3.61938e-09
1.24236e-09
3.72258e-15
3.59786e-09
9.07468e-10
9.69393e-16
-1.90486e-10
1.95241e-15
6.02173e-12
-7.72965e-09
-3.0405e-16
3.31875e-11
-2.42078e-08
-1.51163e-15
8.07811e-11
-4.1693e-08
-2.06086e-15
2.99349e-10
-6.19676e-08
-1.06271e-15
5.82829e-10
-8.49056e-08
-1.59835e-15
9.71579e-10
-1.08876e-07
-4.61e-15
1.50569e-09
-1.27821e-07
-2.07396e-15
1.94163e-09
-1.25861e-07
-1.22739e-16
1.88391e-09
-9.10035e-08
-8.64389e-15
1.26814e-09
-3.423e-08
-2.5739e-15
2.46211e-09
4.83826e-11
4.01992e-15
3.00426e-09
3.65331e-10
2.82982e-16
-5.55477e-11
1.77062e-15
4.46278e-12
-7.73412e-09
-6.53904e-16
2.56698e-11
-2.4229e-08
-1.52045e-15
5.77529e-11
-4.1725e-08
-2.34316e-15
2.3861e-10
-6.21485e-08
-1.14208e-15
4.56504e-10
-8.51235e-08
-1.52472e-15
7.63812e-10
-1.09183e-07
-6.38233e-15
1.21657e-09
-1.28274e-07
-5.1993e-15
1.61981e-09
-1.26264e-07
-1.73503e-15
1.69397e-09
-9.10777e-08
-8.66121e-15
1.14114e-09
-3.36771e-08
-2.99236e-15
1.18946e-09
3.73168e-15
1.55479e-09
6.06188e-17
1.4753e-15
2.59989e-12
-7.73672e-09
-5.20791e-16
1.31292e-11
-2.42395e-08
-1.23236e-15
3.0554e-11
-4.17425e-08
-1.81609e-15
1.73292e-10
-6.22912e-08
-1.05164e-15
3.24981e-10
-8.52752e-08
-3.20353e-15
5.40287e-10
-1.09398e-07
-9.8568e-16
8.71613e-10
-1.28605e-07
-7.2753e-16
1.12585e-09
-1.26519e-07
-6.10866e-15
8.65857e-10
-9.08177e-08
-3.42904e-15
-3.28113e-08
-7.25017e-15
1.14304e-12
-7.73786e-09
-6.38253e-16
1.46424e-13
-2.42385e-08
-1.67754e-15
9.8697e-12
-4.17522e-08
-1.18306e-15
1.24642e-10
-6.2406e-08
-1.26882e-15
2.29593e-10
-8.53802e-08
-2.86409e-15
3.83129e-10
-1.09552e-07
-3.0374e-15
6.47493e-10
-1.28869e-07
-3.78622e-15
8.41288e-10
-1.26713e-07
-5.86437e-15
4.72088e-10
-9.04485e-08
-2.82746e-15
-3.23392e-08
1.4426e-15
1.44034e-13
-7.73801e-09
-5.70361e-16
-1.1107e-11
-2.42273e-08
-1.77652e-15
-1.63286e-12
-4.17617e-08
-1.21604e-15
9.54832e-11
-6.25031e-08
-7.32467e-16
1.71599e-10
-8.54563e-08
-3.09986e-15
2.91701e-10
-1.09672e-07
-4.28416e-15
5.35566e-10
-1.29113e-07
-5.4759e-15
7.41774e-10
-1.26919e-07
-6.97997e-16
4.60275e-10
-9.0167e-08
-1.88123e-15
-3.18789e-08
3.37149e-16
-4.21361e-13
-7.73759e-09
-6.45328e-16
-1.93689e-11
-2.42083e-08
-2.03828e-15
-4.05452e-12
-4.1777e-08
-1.00614e-15
8.28135e-11
-6.259e-08
2.81368e-16
1.41022e-10
-8.55145e-08
-4.00241e-15
2.41707e-10
-1.09773e-07
-2.19407e-15
4.76139e-10
-1.29348e-07
-1.83422e-15
6.92938e-10
-1.27135e-07
1.94147e-15
4.32571e-10
-8.99066e-08
4.98442e-15
-3.14462e-08
1.29089e-14
-6.22303e-13
-7.73696e-09
-6.7103e-16
-2.38131e-11
-2.41851e-08
-1.73339e-15
1.81384e-12
-4.18026e-08
-1.872e-15
8.35214e-11
-6.26717e-08
-4.21017e-17
1.31077e-10
-8.55621e-08
-2.22907e-15
2.21478e-10
-1.09863e-07
1.04202e-16
4.55477e-10
-1.29582e-07
-1.49198e-14
6.86844e-10
-1.27367e-07
-9.63079e-15
4.39071e-10
-8.96589e-08
-9.38013e-15
-3.10073e-08
-1.38322e-14
-5.70568e-13
-7.73639e-09
-6.4417e-16
-2.40816e-11
-2.41616e-08
-2.47856e-15
1.45589e-11
-4.18412e-08
-1.77512e-15
9.42352e-11
-6.27514e-08
-1.08177e-15
1.35262e-10
-8.56031e-08
1.65089e-16
2.20132e-10
-1.09948e-07
6.66168e-15
4.56851e-10
-1.29819e-07
-7.99467e-15
6.99285e-10
-1.27609e-07
-8.23282e-15
4.51709e-10
-8.94113e-08
-3.7832e-15
-3.05556e-08
-3.01142e-15
-2.95015e-13
-7.7361e-09
-5.64315e-16
-2.01185e-11
-2.41418e-08
-2.16011e-15
3.22997e-11
-4.18937e-08
-7.02311e-16
1.11406e-10
-6.28304e-08
3.11297e-15
1.47865e-10
-8.56396e-08
-7.36307e-15
2.30379e-10
-1.1003e-07
-6.91021e-15
4.71797e-10
-1.3006e-07
-9.26957e-15
7.24686e-10
-1.27862e-07
-5.67944e-16
4.71949e-10
-8.91585e-08
-1.94912e-15
-3.00836e-08
-1.6138e-16
1.54031e-13
-7.73625e-09
-4.51924e-16
-1.2231e-11
-2.41294e-08
-3.32006e-15
5.38715e-11
-4.19598e-08
-8.16696e-16
1.33105e-10
-6.29096e-08
3.96569e-15
1.66003e-10
-8.56725e-08
-4.2267e-15
2.47915e-10
-1.10112e-07
-4.1043e-15
4.94747e-10
-1.30307e-07
-8.52211e-15
7.57768e-10
-1.28125e-07
-4.72858e-16
4.96232e-10
-8.8897e-08
-1.43775e-15
-2.95874e-08
-1.124e-15
7.61657e-13
-7.73701e-09
-4.6501e-16
-1.23544e-12
-2.41274e-08
-2.00528e-15
7.7469e-11
-4.20385e-08
-1.66125e-15
1.56767e-10
-6.29889e-08
-4.85653e-16
1.86835e-10
-8.57026e-08
-1.72583e-15
2.69719e-10
-1.10195e-07
-5.33641e-15
5.22855e-10
-1.3056e-07
-6.13725e-15
7.96117e-10
-1.28398e-07
-1.82343e-15
5.2402e-10
-8.86249e-08
-1.45917e-15
-2.90634e-08
-1.24628e-15
1.50822e-12
-7.73852e-09
-5.56293e-16
1.16734e-11
-2.41376e-08
-2.10558e-15
1.01373e-10
-4.21282e-08
-1.54257e-15
1.8042e-10
-6.3068e-08
1.67527e-15
2.07754e-10
-8.57299e-08
-2.62581e-15
2.92656e-10
-1.1028e-07
-4.23602e-15
5.5322e-10
-1.30821e-07
-4.71807e-15
8.37522e-10
-1.28683e-07
-6.48212e-15
5.54189e-10
-8.83416e-08
-4.61559e-15
-2.85092e-08
1.32788e-16
2.38602e-12
-7.7409e-09
-4.33366e-16
2.49201e-11
-2.41601e-08
-2.19418e-15
1.23863e-10
-4.22271e-08
-1.21593e-15
2.02329e-10
-6.31464e-08
1.83891e-15
2.27231e-10
-8.57548e-08
-1.94768e-15
3.14955e-10
-1.10368e-07
-5.15399e-15
5.84133e-10
-1.3109e-07
-7.04285e-15
8.80749e-10
-1.28979e-07
-5.15206e-15
5.86409e-10
-8.80473e-08
-4.9313e-15
-2.79228e-08
-1.70511e-15
3.37673e-12
-7.74427e-09
-6.91886e-16
3.66917e-11
-2.41935e-08
-1.83801e-15
1.43275e-10
-4.23337e-08
-5.98094e-17
2.20605e-10
-6.32238e-08
1.93265e-15
2.43631e-10
-8.57778e-08
-1.65365e-15
3.3511e-10
-1.10459e-07
-3.94885e-15
6.14442e-10
-1.31369e-07
-3.54994e-15
9.25117e-10
-1.2929e-07
-3.59165e-15
6.20615e-10
-8.77428e-08
-2.5381e-15
-2.73022e-08
-1.01277e-16
4.45674e-12
-7.74873e-09
-7.13358e-16
4.52021e-11
-2.42342e-08
-1.95173e-15
1.58206e-10
-4.24468e-08
-2.81001e-16
2.33926e-10
-6.32995e-08
1.81969e-15
2.55899e-10
-8.57998e-08
-2.35319e-15
3.52199e-10
-1.10555e-07
-3.24472e-15
6.43544e-10
-1.3166e-07
-6.18868e-15
9.70588e-10
-1.29617e-07
-5.77245e-15
6.57483e-10
-8.74296e-08
-2.53905e-15
-2.66447e-08
-5.69272e-15
5.59915e-12
-7.75433e-09
-1.02815e-15
4.92935e-11
-2.42779e-08
-1.5107e-15
1.6805e-10
-4.25655e-08
8.37082e-16
2.41747e-10
-6.33732e-08
2.4985e-15
2.63909e-10
-8.5822e-08
-1.93075e-15
3.66205e-10
-1.10658e-07
-7.67842e-15
6.71514e-10
-1.31966e-07
-2.19678e-15
1.01714e-09
-1.29963e-07
-8.19994e-15
6.96953e-10
-8.71095e-08
-7.18296e-15
-2.59478e-08
-1.52009e-15
6.79433e-12
-7.76112e-09
-7.21634e-16
4.86217e-11
-2.43197e-08
-2.98355e-15
1.72853e-10
-4.26898e-08
5.76321e-16
2.44138e-10
-6.34444e-08
1.56565e-15
2.68002e-10
-8.58458e-08
-1.31798e-15
3.77766e-10
-1.10768e-07
-5.34755e-15
6.98586e-10
-1.32287e-07
-5.221e-15
1.06479e-09
-1.30329e-07
-1.2039e-15
7.38519e-10
-8.67832e-08
8.29121e-16
-2.52093e-08
-2.50312e-15
8.03111e-12
-7.76915e-09
-1.08522e-15
4.39217e-11
-2.43556e-08
-2.50299e-15
1.73556e-10
-4.28194e-08
1.29128e-15
2.42007e-10
-6.35129e-08
1.10606e-15
2.68922e-10
-8.58727e-08
-1.12167e-15
3.87415e-10
-1.10886e-07
-8.15817e-15
7.2558e-10
-1.32625e-07
-2.2924e-15
1.11496e-09
-1.30718e-07
-5.43604e-15
7.83698e-10
-8.64519e-08
-5.10953e-15
-2.44256e-08
-6.6103e-16
9.32244e-12
-7.77848e-09
-1.1284e-15
3.68128e-11
-2.43831e-08
-3.35515e-15
1.71693e-10
-4.29543e-08
7.71274e-16
2.3704e-10
-6.35782e-08
8.523e-16
2.68746e-10
-8.59044e-08
-1.89865e-15
3.97659e-10
-1.11015e-07
-8.31951e-15
7.54898e-10
-1.32982e-07
-2.29086e-15
1.16946e-09
-1.31133e-07
-7.09674e-15
8.33737e-10
-8.61162e-08
-3.50637e-15
-2.35918e-08
-3.81358e-15
1.06814e-11
-7.78916e-09
-1.57823e-15
2.96485e-11
-2.44021e-08
-2.75299e-15
1.6937e-10
-4.3094e-08
1.51525e-15
2.3147e-10
-6.36403e-08
3.2237e-16
2.69641e-10
-8.59426e-08
-2.70744e-15
4.1063e-10
-1.11156e-07
-6.41739e-15
7.88595e-10
-1.3336e-07
-2.84745e-15
1.22988e-09
-1.31574e-07
-6.06882e-15
8.89245e-10
-8.57756e-08
-5.42766e-15
-2.27026e-08
6.71458e-16
1.21467e-11
-7.80131e-09
-1.3298e-15
2.50236e-11
-2.4415e-08
-4.15279e-15
1.68769e-10
-4.32378e-08
1.91178e-15
2.27771e-10
-6.36994e-08
-1.80286e-15
2.73801e-10
-8.59886e-08
-2.45264e-15
4.28556e-10
-1.11311e-07
-6.7691e-15
8.28971e-10
-1.3376e-07
-2.05661e-15
1.29818e-09
-1.32044e-07
-6.26341e-15
9.51517e-10
-8.54289e-08
2.07544e-17
-2.17511e-08
-7.23847e-15
1.37451e-11
-7.81505e-09
-1.91065e-15
2.54238e-11
-2.44266e-08
-3.05286e-15
1.71666e-10
-4.3384e-08
3.11392e-15
2.278e-10
-6.37555e-08
-1.67678e-15
2.83165e-10
-8.6044e-08
-3.03848e-15
4.54213e-10
-1.11482e-07
-5.4644e-15
8.78841e-10
-1.34185e-07
-5.24225e-15
1.37665e-09
-1.32541e-07
-5.80151e-15
1.02185e-09
-8.50741e-08
-2.79022e-15
-2.07293e-08
-1.5383e-15
1.55178e-11
-7.83057e-09
-2.03806e-15
3.27223e-11
-2.44438e-08
-3.0848e-15
1.79426e-10
-4.35307e-08
2.64123e-15
2.33279e-10
-6.38094e-08
-3.1496e-15
2.99334e-10
-8.611e-08
-2.74151e-15
4.89043e-10
-1.11672e-07
-7.33545e-15
9.3948e-10
-1.34635e-07
-3.49653e-15
1.46663e-09
-1.33069e-07
-3.81292e-15
1.10113e-09
-8.47086e-08
-1.47578e-15
-1.96282e-08
-5.31909e-16
1.74826e-11
-7.84806e-09
-2.64073e-15
4.79593e-11
-2.44743e-08
-2.25943e-15
1.92612e-10
-4.36753e-08
4.15186e-15
2.45097e-10
-6.38619e-08
-3.33766e-15
3.2346e-10
-8.61883e-08
-2.07085e-15
5.34428e-10
-1.11883e-07
-6.34893e-15
1.01203e-09
-1.35113e-07
-3.39673e-15
1.56926e-09
-1.33626e-07
-3.51746e-15
1.19022e-09
-8.43295e-08
-1.12424e-15
-1.84379e-08
-2.091e-15
1.96524e-11
-7.86771e-09
-2.1375e-15
7.07678e-11
-2.45254e-08
-2.93489e-15
2.10298e-10
-4.38148e-08
3.79457e-15
2.62747e-10
-6.39143e-08
-3.92991e-15
3.54934e-10
-8.62805e-08
-2.66262e-15
5.89435e-10
-1.12117e-07
-5.77024e-15
1.09588e-09
-1.35619e-07
-3.86486e-15
1.68444e-09
-1.34214e-07
-4.80722e-15
1.28949e-09
-8.39346e-08
-2.91306e-15
-1.71485e-08
-9.63446e-16
2.19938e-11
-7.8897e-09
-2.62028e-15
9.9548e-11
-2.4603e-08
-2.61956e-15
2.30793e-10
-4.39461e-08
3.99179e-15
2.84962e-10
-6.39685e-08
-4.62399e-15
3.92135e-10
-8.63877e-08
-1.57931e-15
6.52034e-10
-1.12377e-07
-6.42006e-15
1.1894e-09
-1.36157e-07
-2.75891e-15
1.81156e-09
-1.34836e-07
-2.89475e-15
1.39959e-09
-8.35226e-08
7.12533e-16
-1.57489e-08
2.69436e-16
2.44135e-11
-7.91412e-09
-2.89365e-15
1.3105e-10
-2.47096e-08
-2.78627e-15
2.5055e-10
-4.40656e-08
3.49512e-15
3.08142e-10
-6.40261e-08
-2.41354e-15
4.31029e-10
-8.65105e-08
-5.27888e-15
7.18156e-10
-1.12664e-07
-6.10931e-15
1.28927e-09
-1.36728e-07
-5.05518e-15
1.94896e-09
-1.35496e-07
-4.49675e-15
1.5212e-09
-8.30948e-08
-4.43122e-16
-1.42277e-08
-1.47987e-15
2.67188e-11
-7.94084e-09
-3.60188e-15
1.60949e-10
-2.48438e-08
-2.23635e-15
2.65419e-10
-4.417e-08
3.24143e-15
3.27993e-10
-6.40887e-08
-2.61991e-15
4.66821e-10
-8.66494e-08
-4.83861e-15
7.8249e-10
-1.1298e-07
-8.06276e-15
1.39064e-09
-1.37336e-07
-4.5232e-15
2.09417e-09
-1.362e-07
-4.30309e-15
1.65559e-09
-8.26562e-08
2.82126e-16
-1.25721e-08
2.19527e-15
2.85945e-11
-7.96943e-09
-3.88501e-15
1.84034e-10
-2.49992e-08
-2.49023e-15
2.6998e-10
-4.4256e-08
3.10484e-15
3.37707e-10
-6.41564e-08
-4.63134e-15
4.91503e-10
-8.68032e-08
-3.74388e-15
8.36455e-10
-1.13325e-07
-5.39604e-15
1.48527e-09
-1.37985e-07