/*--------------------------------*- C++ -*----------------------------------*\
| =========                 |                                                 |
| \\      /  F ield         | OpenFOAM: The Open Source CFD Toolbox           |
|  \\    /   O peration     | Version:  v2012                                 |
|   \\  /    A nd           | Website:  www.openfoam.com                      |
|    \\/     M anipulation  |                                                 |
\*---------------------------------------------------------------------------*/
FoamFile
{
    version     2.0;
    format      ascii;
    class       surfaceScalarField;
    location    "0.85";
    object      phi;
}
// * * * * * * * * * * * * * * * * * * * * * * * * * * * * * * * * * * * * * //

dimensions      [0 3 -1 0 0 0 0];
oriented        oriented;


internalField   nonuniform List<scalar> 
49380
(
2.19574e-15
-3.48111e-13
-4.07492e-19
1.22086e-14
-2.12159e-12
-2.9109e-18
3.297e-14
-5.24076e-12
1.03615e-17
6.66007e-14
-9.60196e-12
7.71976e-18
1.15346e-13
-1.52003e-11
1.35083e-17
1.81847e-13
-2.20761e-11
-2.46389e-19
2.68633e-13
-3.02949e-11
-5.69078e-17
3.79557e-13
-3.99454e-11
-6.97193e-17
5.17367e-13
-5.11214e-11
-1.54091e-16
6.87645e-13
-6.39467e-11
3.78103e-18
8.93376e-13
-7.8535e-11
-4.49461e-17
1.13959e-12
-9.50263e-11
6.72054e-18
1.43126e-12
-1.1358e-10
1.80324e-17
1.77244e-12
-1.34337e-10
-7.09783e-17
2.16896e-12
-1.57486e-10
-3.46822e-17
2.62501e-12
-1.83186e-10
-4.08072e-17
3.14582e-12
-2.11637e-10
-1.90347e-17
3.73604e-12
-2.4304e-10
-4.44247e-18
4.4007e-12
-2.77605e-10
6.00793e-17
5.14448e-12
-3.15542e-10
9.00497e-17
5.97198e-12
-3.57075e-10
6.64407e-17
6.88781e-12
-4.02466e-10
6.29473e-17
7.89592e-12
-4.51891e-10
4.9202e-17
8.99994e-12
-5.05652e-10
3.66255e-17
1.02028e-11
-5.63939e-10
1.7774e-17
1.15066e-11
-6.27022e-10
3.35292e-18
1.29124e-11
-6.95134e-10
-1.03874e-17
1.442e-11
-7.68424e-10
-2.11528e-17
1.60275e-11
-8.47234e-10
-2.77469e-17
1.77311e-11
-9.31595e-10
-3.45318e-17
1.95246e-11
-1.02175e-09
-3.55858e-17
2.13999e-11
-1.11782e-09
-4.05678e-17
2.33453e-11
-1.21983e-09
-3.69592e-17
2.53461e-11
-1.32781e-09
-3.97372e-17
2.73843e-11
-1.44169e-09
-3.24184e-17
2.94375e-11
-1.56137e-09
-3.36026e-17
3.14796e-11
-1.68654e-09
-2.22257e-17
3.34806e-11
-1.81688e-09
-2.41417e-17
3.54055e-11
-1.95184e-09
-1.41404e-17
3.72156e-11
-2.09025e-09
-1.98689e-17
3.8868e-11
-2.23236e-09
-6.50136e-18
4.03167e-11
-2.3756e-09
-1.2638e-17
4.15126e-11
-2.51981e-09
-5.48667e-19
4.24047e-11
-2.66216e-09
-1.17817e-17
4.29415e-11
-2.80036e-09
-5.84889e-19
4.30716e-11
-2.93365e-09
-1.17874e-17
4.27475e-11
-3.05634e-09
1.56268e-19
4.19248e-11
-3.16664e-09
-1.71494e-17
4.05676e-11
-3.25912e-09
-5.08779e-18
3.86501e-11
-3.32918e-09
-1.62494e-17
3.61591e-11
-3.3718e-09
-1.65475e-18
3.31018e-11
-3.37855e-09
-1.27968e-17
2.95082e-11
-3.34208e-09
1.6253e-18
2.54405e-11
-3.25251e-09
-8.19658e-18
2.10036e-11
-3.09613e-09
4.03495e-18
1.63555e-11
-2.85515e-09
-4.97734e-18
1.16984e-11
-2.50576e-09
3.85614e-18
7.25342e-12
-2.01511e-09
-3.28903e-18
3.14636e-12
-1.34917e-09
1.62857e-18
-4.84286e-10
-3.88541e-18
1.91739e-15
-3.50056e-13
-2.63623e-18
1.19766e-14
-2.13161e-12
2.37564e-18
3.4116e-14
-5.26286e-12
2.0561e-18
7.12498e-14
-9.63895e-12
1.85791e-17
1.25748e-13
-1.52546e-11
2.00161e-17
2.00507e-13
-2.21503e-11
6.72407e-17
2.97412e-13
-3.03916e-11
3.39498e-17
4.19916e-13
-4.00676e-11
4.02245e-17
5.70594e-13
-5.12722e-11
-1.02645e-17
7.52666e-13
-6.41298e-11
-1.09468e-16
9.71391e-13
-7.87538e-11
-1.8411e-17
1.22815e-12
-9.52848e-11
-2.01508e-16
1.52985e-12
-1.13883e-10
-8.04398e-17
1.87853e-12
-1.34688e-10
-1.94033e-16
2.281e-12
-1.57889e-10
-1.14904e-16
2.74109e-12
-1.83648e-10
-1.59722e-16
3.26465e-12
-2.12162e-10
-1.3461e-16
3.8572e-12
-2.43633e-10
-9.27013e-17
4.52319e-12
-2.78273e-10
-1.60562e-16
5.26821e-12
-3.16289e-10
-1.79512e-16
6.09717e-12
-3.57906e-10
-1.50721e-16
7.01465e-12
-4.03384e-10
-1.33463e-16
8.02467e-12
-4.52902e-10
-1.31492e-16
9.131e-12
-5.0676e-10
-1.35463e-16
1.03366e-11
-5.65146e-10
-1.34784e-16
1.16438e-11
-6.28331e-10
-1.31669e-16
1.30535e-11
-6.96545e-10
-1.26009e-16
1.45655e-11
-7.69937e-10
-1.20641e-16
1.61779e-11
-8.48847e-10
-1.15399e-16
1.78867e-11
-9.33305e-10
-1.10418e-16
1.96858e-11
-1.02355e-09
-1.06667e-16
2.15668e-11
-1.1197e-09
-1.0006e-16
2.35181e-11
-1.22178e-09
-9.57949e-17
2.55247e-11
-1.32982e-09
-8.64215e-17
2.75684e-11
-1.44373e-09
-7.99085e-17
2.96268e-11
-1.56343e-09
-6.51066e-17
3.16736e-11
-1.68858e-09
-5.31324e-17
3.36786e-11
-1.81888e-09
-3.77949e-17
3.56064e-11
-1.95377e-09
-3.55348e-17
3.74181e-11
-2.09206e-09
-2.79335e-17
3.90707e-11
-2.23401e-09
-1.89351e-17
4.05181e-11
-2.37705e-09
-8.07385e-18
4.17106e-11
-2.521e-09
-7.48987e-18
4.25973e-11
-2.66304e-09
-7.07178e-18
4.31263e-11
-2.80089e-09
-1.23375e-17
4.32462e-11
-2.93377e-09
-9.93269e-18
4.29094e-11
-3.05601e-09
-1.56223e-17
4.20713e-11
-3.16581e-09
-3.76201e-17
4.06961e-11
-3.25775e-09
-4.67492e-17
3.87582e-11
-3.32724e-09
-4.49208e-17
3.62445e-11
-3.36929e-09
-4.65494e-17
3.31625e-11
-3.37547e-09
-4.19738e-17
2.95426e-11
-3.33846e-09
-3.93039e-17
2.5447e-11
-3.24842e-09
-3.22717e-17
2.09812e-11
-3.09167e-09
-2.8093e-17
1.63039e-11
-2.85047e-09
-2.1219e-17
1.16203e-11
-2.50107e-09
-1.85502e-17
7.15304e-12
-2.01065e-09
-1.43711e-17
3.01545e-12
-1.34504e-09
-1.66839e-17
-4.8126e-10
-1.92634e-17
1.26084e-15
-3.51337e-13
-2.42938e-18
8.90117e-15
-2.13918e-12
7.31017e-18
2.70715e-14
-5.281e-12
5.14578e-19
5.90223e-14
-9.67096e-12
-7.87575e-18
1.07784e-13
-1.53035e-11
-1.30557e-17
1.76634e-13
-2.22189e-11
3.26618e-17
2.6796e-13
-3.04828e-11
7.77156e-18
3.85578e-13
-4.01847e-11
5.5496e-17
5.32272e-13
-5.14187e-11
2.21134e-17
7.11701e-13
-6.43092e-11
1.1909e-17
9.29109e-13
-7.89701e-11
1.17701e-16
1.18669e-12
-9.55421e-11
3.16926e-17
1.49095e-12
-1.14186e-10
1.16073e-16
1.84424e-12
-1.35041e-10
-3.239e-17
2.2532e-12
-1.58298e-10
-1.30567e-17
2.72108e-12
-1.84117e-10
-1.36937e-16
3.25402e-12
-2.12696e-10
-1.35325e-16
3.85678e-12
-2.44237e-10
-1.25894e-16
4.53415e-12
-2.78951e-10
-1.44393e-16
5.29148e-12
-3.17047e-10
-1.47837e-16
6.13356e-12
-3.58749e-10
-1.27451e-16
7.06493e-12
-4.04316e-10
-1.00503e-16
8.08963e-12
-4.53928e-10
-1.05766e-16
9.21148e-12
-5.07883e-10
-1.15084e-16
1.04335e-11
-5.66369e-10
-1.31099e-16
1.17579e-11
-6.29656e-10
-1.40268e-16
1.31858e-11
-6.97974e-10
-1.51556e-16
1.47169e-11
-7.71469e-10
-1.58022e-16
1.63491e-11
-8.5048e-10
-1.62839e-16
1.80785e-11
-9.35036e-10
-1.65335e-16
1.98987e-11
-1.02537e-09
-1.64366e-16
2.18011e-11
-1.1216e-09
-1.60798e-16
2.37738e-11
-1.22375e-09
-1.534e-16
2.58018e-11
-1.33184e-09
-1.43086e-16
2.78664e-11
-1.4458e-09
-1.28608e-16
2.9945e-11
-1.5655e-09
-1.08674e-16
3.20106e-11
-1.69065e-09
-8.31827e-17
3.40326e-11
-1.82091e-09
-6.29001e-17
3.59753e-11
-1.95571e-09
-5.39294e-17
3.7799e-11
-2.09389e-09
-4.83288e-17
3.94604e-11
-2.23567e-09
-2.59385e-17
4.09127e-11
-2.3785e-09
-1.49185e-17
4.21058e-11
-2.52219e-09
-7.19709e-18
4.2988e-11
-2.66393e-09
-1.51669e-17
4.35072e-11
-2.80141e-09
-1.72631e-17
4.36115e-11
-2.93387e-09
-2.24179e-17
4.3253e-11
-3.05565e-09
-2.89682e-17
4.2387e-11
-3.16494e-09
-7.8695e-17
4.09777e-11
-3.25634e-09
-8.97071e-17
3.90001e-11
-3.32526e-09
-9.70727e-17
3.64414e-11
-3.36673e-09
-9.24315e-17
3.33098e-11
-3.37234e-09
-9.36506e-17
2.96369e-11
-3.33479e-09
-8.11136e-17
2.5486e-11
-3.24427e-09
-7.67956e-17
2.09634e-11
-3.08714e-09
-6.06695e-17
1.62285e-11
-2.84574e-09
-5.49229e-17
1.14882e-11
-2.49633e-09
-4.1313e-17
6.97306e-12
-2.00613e-09
-3.98296e-17
2.81643e-12
-1.34088e-09
-3.72633e-17
-4.78445e-10
-4.49578e-17
1.40054e-15
-3.52749e-13
-1.45439e-18
9.51025e-15
-2.14732e-12
-4.36401e-18
2.89133e-14
-5.30027e-12
1.48279e-17
6.33639e-14
-9.70501e-12
4.50372e-17
1.15008e-13
-1.53554e-11
-2.63077e-17
1.88475e-13
-2.22919e-11
6.00048e-17
2.85042e-13
-3.05794e-11
6.48348e-18
4.08929e-13
-4.03082e-11
4.10664e-17
5.62507e-13
-5.15719e-11
5.3917e-17
7.49403e-13
-6.44958e-11
2.53861e-17
9.73336e-13
-7.91936e-11
5.51642e-17
1.23769e-12
-9.58065e-11
-9.52372e-18
1.54762e-12
-1.14496e-10
2.77367e-17
1.90628e-12
-1.35401e-10
-9.0376e-17
2.32006e-12
-1.58712e-10
-4.81628e-17
2.79258e-12
-1.84591e-10
-1.678e-16
3.33071e-12
-2.13235e-10
-1.10962e-16
3.93882e-12
-2.44846e-10
-1.71846e-16
4.62253e-12
-2.79637e-10
-1.69774e-16
5.38809e-12
-3.17813e-10
-4.25691e-17
6.23955e-12
-3.596e-10
-3.70386e-17
7.18189e-12
-4.05259e-10
-6.72014e-17
8.21947e-12
-4.54966e-10
-1.00438e-16
9.35625e-12
-5.0902e-10
-1.33957e-16
1.05953e-11
-5.67609e-10
-1.56976e-16
1.19388e-11
-6.31001e-10
-1.77185e-16
1.33878e-11
-6.99425e-10
-1.91471e-16
1.49418e-11
-7.73025e-10
-2.02961e-16
1.65989e-11
-8.52139e-10
-2.09668e-16
1.83548e-11
-9.36793e-10
-2.13075e-16
2.02029e-11
-1.02722e-09
-2.14004e-16
2.21344e-11
-1.12354e-09
-2.0786e-16
2.4137e-11
-1.22576e-09
-2.02159e-16
2.61952e-11
-1.3339e-09
-1.85784e-16
2.82899e-11
-1.44789e-09
-1.71654e-16
3.03978e-11
-1.56761e-09
-1.40564e-16
3.24915e-11
-1.69274e-09
-1.11995e-16
3.45396e-11
-1.82295e-09
-7.91429e-17
3.65054e-11
-1.95768e-09
-7.39141e-17
3.83486e-11
-2.09573e-09
-6.01517e-17
4.0025e-11
-2.23735e-09
-3.78953e-17
4.1487e-11
-2.37997e-09
-1.54392e-17
4.26833e-11
-2.52339e-09
-1.43992e-17
4.35618e-11
-2.6648e-09
-1.70584e-17
4.40693e-11
-2.80192e-09
-3.05715e-17
4.41535e-11
-2.93396e-09
-2.89902e-17
4.37659e-11
-3.05526e-09
-4.8538e-17
4.28614e-11
-3.16404e-09
-1.08422e-16
4.14045e-11
-3.25489e-09
-1.3726e-16
3.93705e-11
-3.32323e-09
-1.3976e-16
3.67475e-11
-3.36411e-09
-1.47412e-16
3.3545e-11
-3.36914e-09
-1.3995e-16
2.97961e-11
-3.33105e-09
-1.3447e-16
2.55661e-11
-3.24004e-09
-1.17743e-16
2.09631e-11
-3.08254e-09
-1.04243e-16
1.61481e-11
-2.84092e-09
-8.5052e-17
1.1331e-11
-2.49152e-09
-7.25608e-17
6.75886e-12
-2.00156e-09
-6.06739e-17
2.64684e-12
-1.33677e-09
-6.16432e-17
-4.75797e-10
-6.55301e-17
9.50014e-16
-3.53707e-13
4.76596e-18
7.24548e-15
-2.15362e-12
-1.51738e-18
2.32748e-14
-5.3162e-12
-3.07928e-18
5.29147e-14
-9.7346e-12
2.53954e-17
9.89085e-14
-1.54017e-11
-5.12932e-17
1.66294e-13
-2.23588e-11
6.57338e-17
2.56911e-13
-3.06703e-11
-3.58931e-17
3.75642e-13
-4.04268e-11
3.21442e-17
5.25216e-13
-5.17213e-11
6.39981e-18
7.10063e-13
-6.46804e-11
4.28872e-17
9.3372e-13
-7.9417e-11
1.92235e-17
1.20036e-12
-9.60732e-11
1.21499e-17
1.51499e-12
-1.1481e-10
4.86717e-17
1.88119e-12
-1.35767e-10
1.32416e-17
2.30467e-12
-1.59135e-10
3.51302e-17
2.78932e-12
-1.85076e-10
-6.4713e-18
3.34137e-12
-2.13787e-10
2.3155e-17
3.96503e-12
-2.4547e-10
-1.27767e-17
4.66626e-12
-2.80338e-10
-1.61909e-17
5.4505e-12
-3.18597e-10
-1.36588e-17
6.32234e-12
-3.60473e-10
-6.4869e-17
7.28666e-12
-4.06224e-10
-9.47044e-17
8.34796e-12
-4.56028e-10
-1.25632e-16
9.51024e-12
-5.10184e-10
-1.44231e-16
1.07767e-11
-5.68877e-10
-1.6376e-16
1.21496e-11
-6.32376e-10
-1.78212e-16
1.363e-11
-7.00907e-10
-1.94949e-16
1.52175e-11
-7.74614e-10
-2.09439e-16
1.69099e-11
-8.53833e-10
-2.20608e-16
1.87028e-11
-9.38588e-10
-2.30553e-16
2.05894e-11
-1.02911e-09
-2.34405e-16
2.25605e-11
-1.12551e-09
-2.34511e-16
2.46036e-11
-1.2278e-09
-2.28461e-16
2.67025e-11
-1.336e-09
-2.1635e-16
2.88376e-11
-1.45003e-09
-1.97547e-16
3.09849e-11
-1.56976e-09
-1.66799e-16
3.31162e-11
-1.69488e-09
-1.27697e-16
3.51992e-11
-1.82504e-09
-9.46549e-17
3.71962e-11
-1.95967e-09
-8.31128e-17
3.90659e-11
-2.0976e-09
-7.4582e-17
4.07628e-11
-2.23905e-09
-4.1186e-17
4.22384e-11
-2.38144e-09
-2.22318e-17
4.34402e-11
-2.52459e-09
-1.35302e-17
4.4315e-11
-2.66568e-09
-2.65606e-17
4.48086e-11
-2.80241e-09
-3.53096e-17
4.48678e-11
-2.93402e-09
-4.37042e-17
4.44437e-11
-3.05484e-09
-6.02929e-17
4.34904e-11
-3.16309e-09
-1.42023e-16
4.19729e-11
-3.25337e-09
-1.69312e-16
3.98668e-11
-3.32113e-09
-1.84144e-16
3.71614e-11
-3.36141e-09
-1.84614e-16
3.38678e-11
-3.36585e-09
-1.86486e-16
3.00216e-11
-3.3272e-09
-1.7045e-16
2.56907e-11
-3.23572e-09
-1.59405e-16
2.09863e-11
-3.07784e-09
-1.33001e-16
1.60725e-11
-2.83601e-09
-1.16818e-16
1.11653e-11
-2.48661e-09
-9.16379e-17
6.53327e-12
-1.99693e-09
-8.19918e-17
2.48072e-12
-1.33272e-09
-7.41906e-17
-4.73318e-10
-8.03021e-17
1.14756e-15
-3.54829e-13
-2.3738e-17
8.05195e-15
-2.16046e-12
3.24642e-17
2.4879e-14
-5.33312e-12
-6.31955e-19
5.65e-14
-9.76533e-12
6.2681e-17
1.04155e-13
-1.54501e-11
-4.49524e-17
1.73575e-13
-2.24285e-11
-7.04445e-17
2.6794e-13
-3.07639e-11
1.228e-16
3.89835e-13
-4.05486e-11
-1.28533e-17
5.42915e-13
-5.18742e-11
4.85636e-17
7.31213e-13
-6.48687e-11
-3.5367e-17
9.58761e-13
-7.96442e-11
6.76175e-17
1.22944e-12
-9.63439e-11
-2.49231e-17
1.54824e-12
-1.15128e-10
4.79033e-17
1.91956e-12
-1.36138e-10
-1.53687e-17
2.3488e-12
-1.59564e-10
3.6669e-17
2.84087e-12
-1.85568e-10
-1.74092e-17
3.40177e-12
-2.14347e-10
2.94187e-17
4.03651e-12
-2.46105e-10
-2.29127e-17
4.75099e-12
-2.81052e-10
5.50884e-18
5.55112e-12
-3.19397e-10
5.99058e-17
6.4415e-12
-3.61363e-10
3.7602e-17
7.42738e-12
-4.0721e-10
-7.2725e-18
8.51335e-12
-4.57114e-10
-3.91448e-17
9.70352e-12
-5.11375e-10
-7.86966e-17
1.1001e-11
-5.70175e-10
-1.0544e-16
1.24082e-11
-6.33784e-10
-1.3835e-16
1.39258e-11
-7.02426e-10
-1.64055e-16
1.55533e-11
-7.76243e-10
-1.91588e-16
1.72885e-11
-8.5557e-10
-2.10933e-16
1.91267e-11
-9.40428e-10
-2.28182e-16
2.10607e-11
-1.03105e-09
-2.38966e-16
2.30808e-11
-1.12753e-09
-2.41658e-16
2.5174e-11
-1.2299e-09
-2.4188e-16
2.73235e-11
-1.33816e-09
-2.28492e-16
2.95089e-11
-1.45222e-09
-2.14499e-16
3.17053e-11
-1.57196e-09
-1.77215e-16
3.38836e-11
-1.69706e-09
-1.39474e-16
3.60103e-11
-1.82717e-09
-9.74478e-17
3.80465e-11
-1.96171e-09
-9.19853e-17
3.99496e-11
-2.0995e-09
-7.71531e-17
4.16728e-11
-2.24077e-09
-4.78507e-17
4.3166e-11
-2.38294e-09
-1.94648e-17
4.43757e-11
-2.5258e-09
-1.86058e-17
4.5247e-11
-2.66655e-09
-2.60947e-17
4.57246e-11
-2.80289e-09
-4.65987e-17
4.57543e-11
-2.93405e-09
-4.86422e-17
4.52864e-11
-3.05437e-09
-7.71226e-17
4.42746e-11
-3.16208e-09
-1.60533e-16
4.2684e-11
-3.25178e-09
-2.03685e-16
4.04908e-11
-3.31894e-09
-2.13323e-16
3.76857e-11
-3.35861e-09
-2.26504e-16
3.42819e-11
-3.36245e-09
-2.20199e-16
3.03179e-11
-3.32324e-09
-2.1226e-16
2.58656e-11
-3.23127e-09
-1.89829e-16
2.10404e-11
-3.07302e-09
-1.67109e-16
1.60116e-11
-2.83098e-09
-1.38055e-16
1.10043e-11
-2.48161e-09
-1.13929e-16
6.31111e-12
-1.99224e-09
-9.24855e-17
2.31081e-12
-1.32872e-09
-8.5523e-17
-4.71008e-10
-8.54807e-17
7.98217e-16
-3.55653e-13
-9.73006e-18
6.46101e-15
-2.16606e-12
5.4352e-17
2.10448e-14
-5.34768e-12
1.69798e-17
4.98709e-14
-9.79235e-12
1.05495e-16
9.30545e-14
-1.54956e-11
-1.85397e-16
1.58458e-13
-2.24941e-11
-4.94153e-17
2.48249e-13
-3.0854e-11
-5.10281e-17
3.66512e-13
-4.06671e-11
5.78027e-19
5.17377e-13
-5.20251e-11
-4.16564e-17
7.05e-13
-6.50569e-11
-1.71948e-17
9.34031e-13
-7.98732e-11
-3.09991e-17
1.20845e-12
-9.66188e-11
-1.50154e-17
1.53348e-12
-1.15453e-10
-2.74762e-17
1.91364e-12
-1.36518e-10
1.95507e-17
2.35419e-12
-1.60005e-10
2.19994e-19
2.86014e-12
-1.86074e-10
3.68405e-17
3.43724e-12
-2.14924e-10
2.73957e-17
4.09068e-12
-2.46758e-10
4.13456e-17
4.82639e-12
-2.81788e-10
2.27213e-17
5.65009e-12
-3.2022e-10
3.63974e-17
6.56688e-12
-3.62279e-10
-9.29805e-18
7.58193e-12
-4.08225e-10
-3.04968e-17
8.70004e-12
-4.58233e-10
-5.77623e-17
9.92536e-12
-5.126e-10
-7.50836e-17
1.12613e-11
-5.71512e-10
-9.68237e-17
1.271e-11
-6.35233e-10
-1.18243e-16
1.42726e-11
-7.03989e-10
-1.42271e-16
1.59482e-11
-7.7792e-10
-1.68522e-16
1.77346e-11
-8.57358e-10
-1.89819e-16
1.96267e-11
-9.42322e-10
-2.12251e-16
2.16171e-11
-1.03304e-09
-2.25643e-16
2.36956e-11
-1.12961e-09
-2.35957e-16
2.58485e-11
-1.23205e-09
-2.37588e-16
2.80583e-11
-1.34037e-09
-2.31791e-16
3.03036e-11
-1.45446e-09
-2.1603e-16
3.25586e-11
-1.57422e-09
-1.83529e-16
3.4793e-11
-1.69929e-09
-1.3881e-16
3.69721e-11
-1.82935e-09
-1.00652e-16
3.90554e-11
-1.9638e-09
-9.006e-17
4.09987e-11
-2.10145e-09
-8.26202e-17
4.27538e-11
-2.24253e-09
-4.49513e-17
4.42689e-11
-2.38445e-09
-2.26349e-17
4.54887e-11
-2.52702e-09
-1.41778e-17
4.63569e-11
-2.66742e-09
-3.22835e-17
4.68168e-11
-2.80335e-09
-4.71756e-17
4.68129e-11
-2.93405e-09
-6.05758e-17
4.62944e-11
-3.05385e-09
-8.44655e-17
4.52149e-11
-3.161e-09
-1.83264e-16
4.35393e-11
-3.25011e-09
-2.21709e-16
4.12447e-11
-3.31665e-09
-2.4388e-16
3.83233e-11
-3.35569e-09
-2.49116e-16
3.47911e-11
-3.35892e-09
-2.52989e-16
3.06901e-11
-3.31914e-09
-2.34489e-16
2.60969e-11
-3.22668e-09
-2.19041e-16
2.11327e-11
-3.06806e-09
-1.83776e-16
1.5974e-11
-2.82583e-09
-1.58803e-16
1.08584e-11
-2.47649e-09
-1.21702e-16
6.10406e-12
-1.98749e-09
-1.01987e-16
2.15212e-12
-1.32477e-09
-8.4089e-17
-4.68857e-10
-8.55716e-17
9.75933e-16
-3.56595e-13
-1.37291e-17
7.478e-15
-2.17213e-12
2.56528e-18
2.30843e-14
-5.36321e-12
-4.6697e-17
4.80034e-14
-9.82149e-12
-4.18882e-16
9.88478e-14
-1.55407e-11
7.09089e-16
1.64947e-13
-2.25605e-11
-5.83929e-17
2.57158e-13
-3.09464e-11
6.26598e-17
3.77022e-13
-4.07884e-11
-2.44687e-16
5.3063e-13
-5.2179e-11
2.34574e-17
7.21165e-13
-6.52482e-11
-1.54681e-16
9.53298e-13
-8.01056e-11
2.21498e-17
1.23174e-12
-9.68979e-11
-1.31469e-16
1.5616e-12
-1.15783e-10
7.26556e-19
1.94837e-12
-1.36905e-10
-7.50321e-17
2.39716e-12
-1.60454e-10
1.14581e-17
2.91393e-12
-1.8659e-10
-2.47067e-17
3.50438e-12
-2.15514e-10
3.8455e-17
4.17448e-12
-2.47428e-10
2.01997e-17
4.92991e-12
-2.82543e-10
4.50536e-17
5.77681e-12
-3.21066e-10
4.69757e-17
6.7205e-12
-3.63223e-10
4.26161e-17
7.7665e-12
-4.09271e-10
1.86253e-17
8.91964e-12
-4.59386e-10
1.19834e-17
1.01842e-11
-5.13865e-10
-1.49235e-17
1.15635e-11
-5.72891e-10
-3.08476e-17
1.30597e-11
-6.3673e-10
-6.28895e-17
1.46738e-11
-7.05604e-10
-8.89834e-17
1.64048e-11
-7.79652e-10
-1.24657e-16
1.82502e-11
-8.59204e-10
-1.52096e-16
2.02046e-11
-9.44277e-10
-1.8141e-16
2.22602e-11
-1.0351e-09
-2.02274e-16
2.44061e-11
-1.13176e-09
-2.16578e-16
2.6628e-11
-1.23427e-09
-2.2653e-16
2.89074e-11
-1.34265e-09
-2.21924e-16
3.12221e-11
-1.45678e-09
-2.13897e-16
3.3545e-11
-1.57654e-09
-1.78104e-16
3.58445e-11
-1.70159e-09
-1.38501e-16
3.80842e-11
-1.83159e-09
-9.41295e-17
4.02223e-11
-1.96593e-09
-9.14986e-17
4.22125e-11
-2.10344e-09
-7.85818e-17
4.4005e-11
-2.24432e-09
-4.78868e-17
4.55461e-11
-2.38599e-09
-1.69883e-17
4.67785e-11
-2.52825e-09
-1.71815e-17
4.76442e-11
-2.66829e-09
-2.83642e-17
4.80847e-11
-2.80379e-09
-5.51762e-17
4.80432e-11
-2.93401e-09
-6.19252e-17
4.74681e-11
-3.05328e-09
-9.79614e-17
4.6312e-11
-3.15985e-09
-1.91338e-16
4.45401e-11
-3.24834e-09
-2.43911e-16
4.21306e-11
-3.31424e-09
-2.59102e-16
3.90774e-11
-3.35264e-09
-2.77198e-16
3.53994e-11
-3.35525e-09
-2.71952e-16
3.11431e-11
-3.31489e-09
-2.62528e-16
2.63904e-11
-3.22193e-09
-2.35595e-16
2.12701e-11
-3.06294e-09
-2.05496e-16
1.59678e-11
-2.82053e-09
-1.67856e-16
1.0736e-11
-2.47126e-09
-1.32887e-16
5.91959e-12
-1.98267e-09
-1.00874e-16
2.01314e-12
-1.32086e-09
-8.37203e-17
-4.66846e-10
-7.8934e-17
7.17167e-16
-3.57352e-13
-7.24279e-18
6.42862e-15
-2.17739e-12
3.70399e-17
2.0614e-14
-5.37725e-12
-2.737e-17
4.32791e-14
-9.8485e-12
-4.65893e-16
9.20378e-14
-1.55828e-11
8.54019e-16
1.56516e-13
-2.26212e-11
3.20242e-16
2.47692e-13
-3.10356e-11
4.15653e-16
3.64782e-13
-4.09061e-11
-1.43205e-16
5.18348e-13
-5.23318e-11
1.15475e-16
7.09099e-13
-6.54397e-11
-7.55397e-17
9.44897e-13
-8.03406e-11
4.17919e-17
1.22847e-12
-9.71822e-11
-2.5926e-17
1.56659e-12
-1.16121e-10
-3.24061e-17
1.96375e-12
-1.37303e-10
2.27239e-17
2.42593e-12
-1.60916e-10
-3.02834e-17
2.95855e-12
-1.87123e-10
2.4093e-17
3.568e-12
-2.16124e-10
-1.12045e-18
4.26006e-12
-2.4812e-10
4.73341e-17
5.04093e-12
-2.83323e-10
1.61956e-17
5.91674e-12
-3.21942e-10
3.94113e-17
6.89322e-12
-3.64199e-10
1.10024e-17
7.97589e-12
-4.10354e-10
1.31612e-17
9.16988e-12
-4.6058e-10
4.39107e-19
1.04795e-11
-5.15175e-10
-5.09107e-18
1.19083e-11
-5.7432e-10
-2.02036e-17
1.34585e-11
-6.3828e-10
-3.91975e-17
1.5131e-11
-7.07277e-10
-6.2806e-17
1.69248e-11
-7.81446e-10
-9.38693e-17
1.8837e-11
-8.61118e-10
-1.20618e-16
2.0862e-11
-9.46303e-10
-1.52303e-16
2.29913e-11
-1.03723e-09
-1.73791e-16
2.52135e-11
-1.13398e-09
-1.94882e-16
2.75135e-11
-1.23658e-09
-2.05942e-16
2.98719e-11
-1.34501e-09
-2.10118e-16
3.22652e-11
-1.45917e-09
-2.01447e-16
3.46651e-11
-1.57894e-09
-1.73329e-16
3.70383e-11
-1.70397e-09
-1.29091e-16
3.9347e-11
-1.8339e-09
-9.17052e-17
4.15473e-11
-1.96814e-09
-8.44943e-17
4.35911e-11
-2.10548e-09
-8.04649e-17
4.54264e-11
-2.24616e-09
-4.24324e-17
4.69974e-11
-2.38756e-09
-1.93852e-17
4.82448e-11
-2.5295e-09
-1.11478e-17
4.91085e-11
-2.66915e-09
-3.28447e-17
4.95282e-11
-2.80421e-09
-5.24133e-17
4.94455e-11
-2.93392e-09
-7.16238e-17
4.88075e-11
-3.05264e-09
-1.01215e-16
4.75665e-11
-3.15861e-09
-2.05311e-16
4.56877e-11
-3.24647e-09
-2.50053e-16
4.31503e-11
-3.31171e-09
-2.78004e-16
3.99503e-11
-3.34945e-09
-2.86875e-16
3.611e-11
-3.35141e-09
-2.92547e-16
3.16808e-11
-3.31047e-09
-2.72055e-16
2.67512e-11
-3.217e-09
-2.53352e-16
2.14584e-11
-3.05765e-09
-2.10851e-16
1.59994e-11
-2.81507e-09
-1.78735e-16
1.06433e-11
-2.46591e-09
-1.31094e-16
5.76208e-12
-1.97779e-09
-1.01898e-16
1.89404e-12
-1.317e-09
-7.39654e-17
-4.64953e-10
-7.17855e-17
8.29948e-16
-3.58188e-13
2.69364e-18
6.67346e-15
-2.18304e-12
1.83653e-17
2.13397e-14
-5.39186e-12
-1.5491e-18
4.98918e-14
-9.87568e-12
1.15186e-16
9.63778e-14
-1.56292e-11
-7.72711e-17
1.49861e-13
-2.26913e-11
-2.01783e-15
2.5531e-13
-3.1128e-11
1.59486e-15
3.72353e-13
-4.10288e-11
-5.38378e-16
5.32548e-13
-5.24905e-11
1.96859e-16
7.25557e-13
-6.56365e-11
-4.55916e-16
9.66889e-13
-8.05816e-11
4.68353e-17
1.25577e-12
-9.74728e-11
-2.54308e-16
1.60127e-12
-1.16467e-10
3.47398e-17
2.0075e-12
-1.3771e-10
-1.38512e-16
2.48134e-12
-1.6139e-10
2.13964e-17
3.02862e-12
-1.87671e-10
-9.03342e-17
3.65608e-12
-2.16751e-10
1.8606e-17
4.37012e-12
-2.48834e-10
-1.26491e-17
5.17689e-12
-2.8413e-10
3.03616e-17
6.08299e-12
-3.22848e-10
1.82816e-17
7.09426e-12
-3.6521e-10
3.14586e-17
8.21663e-12
-4.11476e-10
2.14097e-17
9.45528e-12
-4.61818e-10
3.34009e-17
1.08147e-11
-5.16534e-10
2.05268e-17
1.22985e-11
-5.75804e-10
1.84661e-17
1.39088e-11
-6.39891e-10
-4.26252e-18
1.56464e-11
-7.09015e-10
-2.26802e-17
1.75102e-11
-7.8331e-10
-5.64095e-17
1.94969e-11
-8.63105e-10
-8.40823e-17
2.16006e-11
-9.48408e-10
-1.18083e-16
2.38122e-11
-1.03944e-09
-1.44264e-16
2.61196e-11
-1.13629e-09
-1.67122e-16
2.85067e-11
-1.23896e-09
-1.85778e-16
3.09532e-11
-1.34746e-09
-1.90728e-16
3.34342e-11
-1.46166e-09
-1.90676e-16
3.59199e-11
-1.58143e-09
-1.60455e-16
3.83755e-11
-1.70642e-09
-1.23858e-16
4.07612e-11
-1.83628e-09
-8.17589e-17
4.3031e-11
-1.97041e-09
-8.3841e-17
4.51348e-11
-2.10759e-09
-7.41988e-17
4.70181e-11
-2.24804e-09
-4.49878e-17
4.8623e-11
-2.38917e-09
-1.32877e-17
4.98878e-11
-2.53077e-09
-1.43091e-17
5.075e-11
-2.67001e-09
-2.7208e-17
5.11474e-11
-2.80461e-09
-5.87647e-17
5.10199e-11
-2.9338e-09
-7.02812e-17
5.03133e-11
-3.05194e-09
-1.12304e-16
4.89794e-11
-3.15728e-09
-2.04882e-16
4.69833e-11
-3.24447e-09
-2.62836e-16
4.43055e-11
-3.30903e-09
-2.81988e-16
4.09443e-11
-3.34609e-09
-3.04187e-16
3.69259e-11
-3.3474e-09
-2.99641e-16
3.23069e-11
-3.30585e-09
-2.89475e-16
2.71835e-11
-3.21188e-09
-2.59053e-16
2.17026e-11
-3.05217e-09
-2.23549e-16
1.60738e-11
-2.80945e-09
-1.79127e-16
1.05849e-11
-2.46042e-09
-1.35574e-16
5.63364e-12
-1.97284e-09
-9.47665e-17
1.79406e-12
-1.31316e-09
-6.9505e-17
-4.63159e-10
-6.17478e-17
7.03357e-16
-3.58916e-13
-8.97846e-19
6.19938e-15
-2.18821e-12
3.80367e-17
2.00448e-14
-5.40583e-12
-1.75589e-17
4.62224e-14
-9.90275e-12
-1.02452e-16
9.18699e-14
-1.56728e-11
1.44644e-16
1.46171e-13
-2.27561e-11
-1.32983e-15
2.53173e-13
-3.12137e-11
2.74469e-15
3.71314e-13
-4.11421e-11
5.7836e-16
5.35236e-13
-5.26464e-11
1.08377e-15
7.27889e-13
-6.58335e-11
-5.14429e-16
9.74708e-13
-8.08261e-11
2.45917e-16
1.26966e-12
-9.777e-11
-2.29962e-16
1.62585e-12
-1.16822e-10
7.10318e-17
2.04457e-12
-1.38129e-10
-4.69231e-17
2.53479e-12
-1.61879e-10
-2.1376e-20
3.10098e-12
-1.88238e-10
-2.88545e-17
3.75126e-12
-2.17401e-10
-1.87357e-17
4.49154e-12
-2.49574e-10
1.34017e-17
5.32893e-12
-2.84967e-10
-3.51898e-18
6.27e-12
-3.23789e-10
2.95567e-17
7.3211e-12
-3.66261e-10
1.70598e-17
8.4882e-12
-4.12642e-10
3.3032e-17
9.77681e-12
-4.63106e-10
3.12124e-17
1.11916e-11
-5.17948e-10
3.48164e-17
1.27361e-11
-5.77348e-10
2.71709e-17
1.44128e-11
-6.41567e-10
1.41569e-17
1.62223e-11
-7.10824e-10
-4.08407e-18
1.81632e-11
-7.85251e-10
-3.29839e-17
2.02322e-11
-8.65174e-10
-5.87304e-17
2.24226e-11
-9.50599e-10
-9.2912e-17
2.4725e-11
-1.04174e-09
-1.17215e-16
2.71263e-11
-1.13869e-09
-1.44827e-16
2.96095e-11
-1.24145e-09
-1.62529e-16
3.21531e-11
-1.35e-09
-1.75463e-16
3.47307e-11
-1.46424e-09
-1.73862e-16
3.73111e-11
-1.58401e-09
-1.52351e-16
3.98575e-11
-1.70897e-09
-1.11799e-16
4.23281e-11
-1.83875e-09
-7.86079e-17
4.46747e-11
-1.97275e-09
-7.57508e-17
4.68446e-11
-2.10976e-09
-7.58941e-17
4.87812e-11
-2.24998e-09
-3.91418e-17
5.04238e-11
-2.39081e-09
-1.66179e-17
5.17081e-11
-2.53205e-09
-7.88474e-18
5.25694e-11
-2.67088e-09
-3.13701e-17
5.29432e-11
-2.80498e-09
-5.36913e-17
5.27673e-11
-2.93362e-09
-7.86283e-17
5.19865e-11
-3.05116e-09
-1.11915e-16
5.05517e-11
-3.15585e-09
-2.12274e-16
4.84284e-11
-3.24235e-09
-2.59615e-16
4.55981e-11
-3.3062e-09
-2.92257e-16
4.20617e-11
-3.34256e-09
-3.03881e-16
3.78498e-11
-3.34319e-09
-3.11428e-16
3.30249e-11
-3.30103e-09
-2.89626e-16
2.76913e-11
-3.20655e-09
-2.69106e-16
2.20068e-11
-3.04649e-09
-2.2136e-16
1.61953e-11
-2.80364e-09
-1.84436e-16
1.05637e-11
-2.45479e-09
-1.28921e-16
5.53529e-12
-1.96782e-09
-9.31217e-17
1.7121e-12
-1.30934e-09
-5.82546e-17
-4.61448e-10
-5.44539e-17
7.95674e-16
-3.59697e-13
4.62512e-18
6.28241e-15
-2.19368e-12
2.36747e-18
2.08698e-14
-5.42013e-12
3.32878e-17
4.9469e-14
-9.93001e-12
1.45715e-16
9.51251e-14
-1.57181e-11
4.95192e-17
1.62028e-13
-2.28234e-11
-1.2432e-16
2.61471e-13
-3.1312e-11
-9.55993e-17
3.61032e-13
-4.12751e-11
-4.1808e-15
5.46044e-13
-5.28101e-11
2.63932e-15
7.49244e-13
-6.60387e-11
-8.62463e-17
1.00234e-12
-8.10789e-11
1.04042e-16
1.30636e-12
-9.80758e-11
-2.01483e-16
1.67241e-12
-1.17188e-10
-1.51436e-17
2.10379e-12
-1.38562e-10
-1.63438e-16
2.6097e-12
-1.62385e-10
4.26528e-17
3.1951e-12
-1.88824e-10
-1.0593e-16
3.86853e-12
-2.18075e-10
2.19237e-17
4.63648e-12
-2.50342e-10
-3.50095e-17
5.50618e-12
-2.85837e-10
1.97832e-17
6.48471e-12
-3.24767e-10
1.3045e-17
7.57854e-12
-3.67354e-10
3.042e-17
8.79409e-12
-4.13858e-10
2.06281e-17
1.0137e-11
-4.64449e-10
3.67744e-17
1.16122e-11
-5.19423e-10
2.97602e-17
1.32233e-11
-5.78959e-10
3.46268e-17
1.49726e-11
-6.43316e-10
2.06145e-17
1.68608e-11
-7.12712e-10
1.08041e-17
1.88862e-11
-7.87277e-10
-1.58181e-17
2.10451e-11
-8.67333e-10
-3.87345e-17
2.33305e-11
-9.52885e-10
-7.05997e-17
2.5732e-11
-1.04415e-09
-9.65128e-17
2.8236e-11
-1.1412e-09
-1.22309e-16
3.08242e-11
-1.24404e-09
-1.45574e-16
3.34738e-11
-1.35265e-09
-1.56864e-16
3.6157e-11
-1.46692e-09
-1.63154e-16
3.88407e-11
-1.5867e-09
-1.38677e-16
4.14862e-11
-1.71162e-09
-1.0685e-16
4.40495e-11
-1.84132e-09
-6.88774e-17
4.64799e-11
-1.97519e-09
-7.60103e-17
4.87223e-11
-2.112e-09
-6.94782e-17
5.07171e-11
-2.25197e-09
-4.2674e-17
5.2401e-11
-2.3925e-09
-1.06038e-17
5.3707e-11
-2.53336e-09
-1.17744e-17
5.45678e-11
-2.67174e-09
-2.43758e-17
5.49165e-11
-2.80533e-09
-5.90029e-17
5.46889e-11
-2.9334e-09
-7.46558e-17
5.38283e-11
-3.0503e-09
-1.20873e-16
5.22849e-11
-3.15431e-09
-2.0495e-16
5.00245e-11
-3.2401e-09
-2.65423e-16
4.70299e-11
-3.30321e-09
-2.87399e-16
4.33049e-11
-3.33884e-09
-3.13251e-16
3.88845e-11
-3.33877e-09
-3.09395e-16
3.38378e-11
-3.29599e-09
-2.99561e-16
2.8278e-11
-3.201e-09
-2.67024e-16
2.23748e-11
-3.04059e-09
-2.28484e-16
1.63671e-11
-2.79763e-09
-1.79675e-16
1.05821e-11
-2.44901e-09
-1.30739e-16
5.46722e-12
-1.9627e-09
-8.43674e-17
1.64704e-12
-1.30552e-09
-5.46409e-17
-4.59802e-10
-4.566e-17
7.26457e-16
-3.60428e-13
9.16639e-19
6.07876e-15
-2.19897e-12
7.4277e-18
2.04663e-14
-5.43437e-12
1.84732e-17
4.83038e-14
-9.95768e-12
1.66125e-17
9.35049e-14
-1.57632e-11
4.22925e-18
1.62035e-13
-2.28901e-11
2.02214e-16
2.63058e-13
-3.14071e-11
5.50068e-16
3.67086e-13
-4.14027e-11
-3.11625e-15
5.5742e-13
-5.29741e-11
3.34987e-15
7.63194e-13
-6.62473e-11
-2.24322e-16
1.02383e-12
-8.13376e-11
2.90098e-16
1.3368e-12
-9.83906e-11
-1.76008e-16
1.71635e-12
-1.17567e-10
8.69185e-17
2.16328e-12
-1.3901e-10
-7.7327e-17
2.68913e-12
-1.6291e-10
6.148e-17
3.29741e-12
-1.89433e-10
-5.52663e-17
3.9983e-12
-2.18775e-10
-1.56578e-18
4.79783e-12
-2.51142e-10
-4.91332e-18
5.70426e-12
-2.86743e-10
-5.03035e-19
6.72466e-12
-3.25787e-10
2.10613e-17
7.86609e-12
-3.68496e-10
7.39415e-18
9.13507e-12
-4.15127e-10
1.90424e-17
1.05376e-11
-4.65851e-10
2.44915e-17
1.20788e-11
-5.20964e-10
3.16387e-17
1.37624e-11
-5.80642e-10
3.02593e-17
1.55907e-11
-6.45144e-10
2.40447e-17
1.75644e-11
-7.14686e-10
1.45513e-17
1.96817e-11
-7.89394e-10
-7.45037e-18
2.19383e-11
-8.6959e-10
-2.73561e-17
2.43267e-11
-9.55273e-10
-5.82893e-17
2.68359e-11
-1.04666e-09
-8.01267e-17
2.94513e-11
-1.14381e-09
-1.08858e-16
3.21534e-11
-1.24674e-09
-1.28565e-16
3.49179e-11
-1.35542e-09
-1.46263e-16
3.77156e-11
-1.46972e-09
-1.48882e-16
4.05113e-11
-1.58949e-09
-1.3287e-16
4.32641e-11
-1.71437e-09
-9.6261e-17
4.59278e-11
-1.84398e-09
-6.80184e-17
4.8449e-11
-1.97771e-09
-6.89183e-17
5.07697e-11
-2.11432e-09
-7.26236e-17
5.28276e-11
-2.25403e-09
-3.70185e-17
5.45565e-11
-2.39422e-09
-1.51201e-17
5.58863e-11
-2.53469e-09
-4.79956e-18
5.67469e-11
-2.6726e-09
-2.84006e-17
5.7069e-11
-2.80566e-09
-5.15643e-17
5.67862e-11
-2.93312e-09
-8.16472e-17
5.58403e-11
-3.04935e-09
-1.16689e-16
5.41807e-11
-3.15265e-09
-2.07601e-16
5.17735e-11
-3.23769e-09
-2.5484e-16
4.86031e-11
-3.30005e-09
-2.9136e-16
4.4676e-11
-3.33491e-09
-3.05023e-16
4.00324e-11
-3.33413e-09
-3.14722e-16
3.47484e-11
-3.29071e-09
-2.92439e-16
2.89467e-11
-3.1952e-09
-2.71746e-16
2.28095e-11
-3.03446e-09
-2.20942e-16
1.65919e-11
-2.79142e-09
-1.81883e-16
1.06415e-11
-2.44306e-09
-1.21636e-16
5.42916e-12
-1.95749e-09
-8.27165e-17
1.59756e-12
-1.30169e-09
-4.43068e-17
-4.58205e-10
-4.03337e-17
7.71137e-16
-3.61198e-13
2.13444e-18
6.34641e-15
-2.20447e-12
8.1953e-18
2.11462e-14