/*--------------------------------*- C++ -*----------------------------------*\
| =========                 |                                                 |
| \\      /  F ield         | OpenFOAM: The Open Source CFD Toolbox           |
|  \\    /   O peration     | Version:  v2012                                 |
|   \\  /    A nd           | Website:  www.openfoam.com                      |
|    \\/     M anipulation  |                                                 |
\*---------------------------------------------------------------------------*/
FoamFile
{
    version     2.0;
    format      ascii;
    class       volVectorField;
    location    "0.85";
    object      U;
}
// * * * * * * * * * * * * * * * * * * * * * * * * * * * * * * * * * * * * * //

dimensions      [0 1 -1 0 0 0 0];


internalField   nonuniform List<vector> 
20000
(
(1.83876e-06 -0.00219312 -1.60435e-08)
(7.01028e-06 -0.00427003 -6.11806e-08)
(1.42337e-05 -0.00603358 -1.24221e-07)
(2.26294e-05 -0.00752004 -1.97496e-07)
(3.19506e-05 -0.00881396 -2.78849e-07)
(4.21785e-05 -0.0099672 -3.68114e-07)
(5.32993e-05 -0.0110122 -4.65183e-07)
(6.55136e-05 -0.0119709 -5.71785e-07)
(7.86816e-05 -0.0128586 -6.86706e-07)
(9.30872e-05 -0.0136865 -8.12427e-07)
(0.000108641 -0.0144627 -9.48168e-07)
(0.00012546 -0.0151936 -1.09496e-06)
(0.000143476 -0.015884 -1.2522e-06)
(0.000162733 -0.0165378 -1.42026e-06)
(0.000183221 -0.0171578 -1.59906e-06)
(0.000204838 -0.0177463 -1.78773e-06)
(0.000227606 -0.0183052 -1.98644e-06)
(0.000251402 -0.0188357 -2.19413e-06)
(0.0002762 -0.0193389 -2.41055e-06)
(0.000301905 -0.0198152 -2.63489e-06)
(0.000328449 -0.0202651 -2.86656e-06)
(0.000355747 -0.0206888 -3.10481e-06)
(0.000383698 -0.0210861 -3.34876e-06)
(0.000412194 -0.0214567 -3.59747e-06)
(0.000441108 -0.0218001 -3.84982e-06)
(0.000470299 -0.0221158 -4.1046e-06)
(0.000499606 -0.0224028 -4.36039e-06)
(0.000528848 -0.0226603 -4.61562e-06)
(0.000557817 -0.022887 -4.86847e-06)
(0.000586287 -0.0230818 -5.11697e-06)
(0.000613998 -0.0232432 -5.35885e-06)
(0.000640673 -0.0233697 -5.59169e-06)
(0.000666004 -0.0234596 -5.81281e-06)
(0.000689662 -0.0235111 -6.01933e-06)
(0.000711289 -0.0235222 -6.20814e-06)
(0.000730518 -0.0234909 -6.37602e-06)
(0.000746956 -0.0234149 -6.51955e-06)
(0.000760209 -0.0232918 -6.63528e-06)
(0.000769869 -0.0231192 -6.7197e-06)
(0.000775541 -0.0228944 -6.77021e-06)
(0.000776838 -0.0226144 -6.78164e-06)
(0.000773405 -0.0222764 -6.75177e-06)
(0.000764915 -0.0218772 -6.67775e-06)
(0.000751097 -0.0214134 -6.55723e-06)
(0.000731741 -0.0208817 -6.38836e-06)
(0.000706719 -0.0202786 -6.17004e-06)
(0.000675988 -0.0196003 -5.90187e-06)
(0.000639625 -0.0188436 -5.58453e-06)
(0.000597817 -0.0180048 -5.21965e-06)
(0.000550904 -0.0170805 -4.81018e-06)
(0.00049936 -0.0160673 -4.36028e-06)
(0.000443846 -0.0149611 -3.8757e-06)
(0.00038522 -0.0137569 -3.36393e-06)
(0.000324567 -0.0124471 -2.83443e-06)
(0.00026325 -0.0110192 -2.2991e-06)
(0.000202974 -0.0094534 -1.7728e-06)
(0.000145821 -0.00771935 -1.27373e-06)
(9.37945e-05 -0.00577836 -8.19396e-07)
(4.89099e-05 -0.00360171 -4.27643e-07)
(9.7785e-06 -0.00120559 -8.5642e-08)
(1.41567e-06 -0.00222099 -1.23538e-08)
(6.49603e-06 -0.00431044 -5.66823e-08)
(1.43788e-05 -0.00608084 -1.25481e-07)
(2.38249e-05 -0.00757163 -2.07924e-07)
(3.46199e-05 -0.00886858 -3.02128e-07)
(4.62528e-05 -0.0100245 -4.03662e-07)
(5.9022e-05 -0.0110716 -5.15121e-07)
(7.25327e-05 -0.0120325 -6.33048e-07)
(8.69939e-05 -0.0129221 -7.59263e-07)
(0.000102308 -0.0137517 -8.92925e-07)
(0.0001186 -0.0145295 -1.03511e-06)
(0.000135811 -0.0152618 -1.18533e-06)
(0.000154044 -0.0159534 -1.34446e-06)
(0.000173198 -0.0166081 -1.51163e-06)
(0.000193418 -0.0172289 -1.6881e-06)
(0.000214624 -0.017818 -1.87318e-06)
(0.000236896 -0.0183772 -2.06756e-06)
(0.000260181 -0.0189078 -2.27078e-06)
(0.000284468 -0.0194108 -2.48275e-06)
(0.000309697 -0.0198868 -2.70294e-06)
(0.000335797 -0.0203362 -2.93073e-06)
(0.000362713 -0.0207591 -3.16564e-06)
(0.000390323 -0.0211554 -3.40661e-06)
(0.000418524 -0.0215248 -3.65274e-06)
(0.000447185 -0.0218669 -3.90288e-06)
(0.000476164 -0.0221809 -4.1558e-06)
(0.000505294 -0.0224662 -4.41004e-06)
(0.000534387 -0.0227217 -4.66395e-06)
(0.000563233 -0.0229463 -4.91572e-06)
(0.000591596 -0.0231387 -5.16328e-06)
(0.000619216 -0.0232976 -5.40435e-06)
(0.000645806 -0.0234214 -5.63642e-06)
(0.000671059 -0.0235084 -5.85683e-06)
(0.000694634 -0.0235569 -6.06261e-06)
(0.00071618 -0.0235649 -6.25068e-06)
(0.000735317 -0.0235302 -6.41773e-06)
(0.000751657 -0.0234508 -6.56038e-06)
(0.000764793 -0.0233242 -6.67507e-06)
(0.000774327 -0.0231479 -6.75836e-06)
(0.000779848 -0.0229193 -6.80752e-06)
(0.000780977 -0.0226356 -6.81747e-06)
(0.000777351 -0.0222939 -6.78589e-06)
(0.000768649 -0.0218909 -6.71001e-06)
(0.000754592 -0.0214235 -6.58738e-06)
(0.000734978 -0.0208883 -6.41626e-06)
(0.000709672 -0.0202818 -6.19545e-06)
(0.00067864 -0.0196004 -5.92466e-06)
(0.000641953 -0.0188407 -5.60451e-06)
(0.00059981 -0.0179993 -5.23672e-06)
(0.000552547 -0.0170727 -4.82422e-06)
(0.000500651 -0.0160575 -4.37128e-06)
(0.00044478 -0.0149497 -3.88364e-06)
(0.000385803 -0.0137445 -3.36886e-06)
(0.000324804 -0.012434 -2.83641e-06)
(0.000263157 -0.0110062 -2.29826e-06)
(0.000202562 -0.00944111 -1.76927e-06)
(0.000145128 -0.00770842 -1.26782e-06)
(9.28676e-05 -0.00576926 -8.11542e-07)
(4.78589e-05 -0.00359428 -4.18607e-07)
(8.35708e-06 -0.00120039 -7.96529e-08)
(7.9451e-07 -0.0022178 -6.93215e-09)
(4.52196e-06 -0.00431074 -3.9452e-08)
(1.10486e-05 -0.00608515 -9.64175e-08)
(1.93013e-05 -0.00757919 -1.68445e-07)
(2.91761e-05 -0.00887881 -2.54622e-07)
(4.0201e-05 -0.0100369 -3.5084e-07)
(5.2615e-05 -0.011086 -4.59182e-07)
(6.59706e-05 -0.0120486 -5.75747e-07)
(8.05486e-05 -0.0129398 -7.02991e-07)
(9.61082e-05 -0.013771 -8.38788e-07)
(0.000112804 -0.0145505 -9.84499e-07)
(0.000130595 -0.0152844 -1.13979e-06)
(0.000149507 -0.0159777 -1.30484e-06)
(0.000169446 -0.0166342 -1.47886e-06)
(0.000190527 -0.0172567 -1.66285e-06)
(0.00021257 -0.0178475 -1.85523e-06)
(0.0002357 -0.0184084 -2.0571e-06)
(0.000259783 -0.0189406 -2.2673e-06)
(0.000284841 -0.0194451 -2.486e-06)
(0.000310788 -0.0199225 -2.71246e-06)
(0.00033757 -0.0203732 -2.9462e-06)
(0.000365121 -0.0207972 -3.18665e-06)
(0.000393323 -0.0211944 -3.43279e-06)
(0.00042208 -0.0215647 -3.68378e-06)
(0.000451266 -0.0219073 -3.93851e-06)
(0.000480741 -0.0222218 -4.19577e-06)
(0.000510342 -0.0225072 -4.45412e-06)
(0.000539882 -0.0227626 -4.71194e-06)
(0.000569148 -0.0229869 -4.96737e-06)
(0.000597906 -0.0231788 -5.21838e-06)
(0.000625888 -0.0233368 -5.46261e-06)
(0.000652811 -0.0234595 -5.69759e-06)
(0.000678356 -0.0235452 -5.92056e-06)
(0.000702188 -0.023592 -6.12858e-06)
(0.000723943 -0.023598 -6.31847e-06)
(0.000743245 -0.0235612 -6.48696e-06)
(0.000759693 -0.0234794 -6.63055e-06)
(0.000772887 -0.0233501 -6.74574e-06)
(0.000782411 -0.023171 -6.82893e-06)
(0.000787862 -0.0229394 -6.87749e-06)
(0.000788849 -0.0226525 -6.88619e-06)
(0.000785017 -0.0223074 -6.8528e-06)
(0.000776034 -0.021901 -6.77446e-06)
(0.00076163 -0.0214301 -6.64879e-06)
(0.000741594 -0.0208915 -6.47397e-06)
(0.000715805 -0.0202816 -6.24893e-06)
(0.000684224 -0.0195969 -5.97334e-06)
(0.000646935 -0.0188341 -5.64793e-06)
(0.000604138 -0.0179898 -5.27441e-06)
(0.000556186 -0.0170606 -4.85591e-06)
(0.000503574 -0.0160431 -4.39672e-06)
(0.00044698 -0.0149335 -3.90276e-06)
(0.000387282 -0.0137268 -3.38169e-06)
(0.000325584 -0.0124155 -2.84313e-06)
(0.000263266 -0.0109873 -2.29914e-06)
(0.000202041 -0.00942264 -1.76467e-06)
(0.000144017 -0.00769107 -1.25811e-06)
(9.12314e-05 -0.0057537 -7.97231e-07)
(4.58766e-05 -0.00358081 -4.0165e-07)
(6.79755e-06 -0.00119161 -7.01723e-08)
(9.25485e-07 -0.00223722 -8.07573e-09)
(4.89602e-06 -0.00434093 -4.27159e-08)
(1.18032e-05 -0.00612239 -1.03004e-07)
(2.06491e-05 -0.00762113 -1.80205e-07)
(3.12612e-05 -0.00892422 -2.72822e-07)
(4.28563e-05 -0.0100848 -3.74014e-07)
(5.6117e-05 -0.0111358 -4.89748e-07)
(7.00589e-05 -0.0121 -6.11426e-07)
(8.53243e-05 -0.0129924 -7.44659e-07)
(0.000101382 -0.0138245 -8.84815e-07)
(0.000118494 -0.0146046 -1.03417e-06)
(0.000136533 -0.015339 -1.19161e-06)
(0.000155548 -0.0160326 -1.35757e-06)
(0.000175522 -0.0166892 -1.5319e-06)
(0.000196529 -0.0173117 -1.71524e-06)
(0.000218498 -0.0179024 -1.90697e-06)
(0.000241541 -0.0184631 -2.10808e-06)
(0.000265576 -0.018995 -2.31785e-06)
(0.00029062 -0.0194991 -2.53642e-06)
(0.000316631 -0.019976 -2.76343e-06)
(0.000343542 -0.0204261 -2.99831e-06)
(0.000371279 -0.0208495 -3.24039e-06)
(0.000399717 -0.021246 -3.48858e-06)
(0.000428771 -0.0216154 -3.74216e-06)
(0.0004583 -0.0219572 -3.99988e-06)
(0.000488158 -0.0222706 -4.26047e-06)
(0.00051817 -0.022555 -4.52242e-06)
(0.000548139 -0.0228091 -4.78398e-06)
(0.000577847 -0.0230321 -5.04326e-06)
(0.000607043 -0.0232224 -5.2981e-06)
(0.000635459 -0.0233788 -5.54613e-06)
(0.000662793 -0.0234997 -5.7847e-06)
(0.000688727 -0.0235834 -6.01106e-06)
(0.000712907 -0.0236281 -6.22212e-06)
(0.000734967 -0.0236318 -6.41469e-06)
(0.000754514 -0.0235926 -6.58532e-06)
(0.000771149 -0.0235081 -6.73055e-06)
(0.000784452 -0.023376 -6.8467e-06)
(0.00079401 -0.023194 -6.93019e-06)
(0.000799399 -0.0229593 -6.97824e-06)
(0.000800234 -0.0226692 -6.98562e-06)
(0.000796146 -0.0223209 -6.95e-06)
(0.000786809 -0.0219113 -6.86857e-06)
(0.000771941 -0.0214371 -6.73885e-06)
(0.000751341 -0.0208952 -6.55911e-06)
(0.000724881 -0.0202821 -6.32822e-06)
(0.000692538 -0.0195944 -6.04598e-06)
(0.000654395 -0.0188287 -5.71311e-06)
(0.00061067 -0.0179816 -5.3315e-06)
(0.000561727 -0.01705 -4.90434e-06)
(0.000508086 -0.0160304 -4.43616e-06)
(0.00045044 -0.0149191 -3.93301e-06)
(0.000389698 -0.013711 -3.40281e-06)
(0.000326981 -0.0123989 -2.85536e-06)
(0.000263701 -0.0109705 -2.30297e-06)
(0.000201579 -0.00940618 -1.76066e-06)
(0.000142734 -0.00767564 -1.24691e-06)
(8.9259e-05 -0.00573991 -7.8003e-07)
(4.35528e-05 -0.00356899 -3.81396e-07)
(6.10732e-06 -0.00118421 -6.22558e-08)
(5.15331e-07 -0.00223572 -4.52312e-09)
(3.46817e-06 -0.00434376 -3.03302e-08)
(9.29098e-06 -0.00613002 -8.10529e-08)
(1.69184e-05 -0.00763337 -1.47659e-07)
(2.64659e-05 -0.00894007 -2.30965e-07)
(3.73233e-05 -0.0101042 -3.25735e-07)
(5.00494e-05 -0.0111581 -4.36788e-07)
(6.37173e-05 -0.012125 -5.56079e-07)
(7.90694e-05 -0.0130198 -6.90056e-07)
(9.53349e-05 -0.0138542 -8.32025e-07)
(0.000113018 -0.0146364 -9.86368e-07)
(0.000131704 -0.0153729 -1.14945e-06)
(0.000151605 -0.0160685 -1.32313e-06)
(0.000172551 -0.0167269 -1.50595e-06)
(0.000194633 -0.0173512 -1.69868e-06)
(0.000217692 -0.0179435 -1.89993e-06)
(0.000241837 -0.0185057 -2.11066e-06)
(0.000266929 -0.0190389 -2.32966e-06)
(0.000293002 -0.0195441 -2.55722e-06)
(0.000319992 -0.020022 -2.79278e-06)
(0.000347847 -0.0204728 -3.03588e-06)
(0.000376475 -0.0208968 -3.28574e-06)
(0.00040578 -0.0212937 -3.54151e-06)
(0.000435668 -0.0216632 -3.80236e-06)
(0.00046601 -0.0220049 -4.06718e-06)
(0.00049666 -0.0223181 -4.33468e-06)
(0.000527444 -0.0226018 -4.60336e-06)
(0.000558165 -0.0228553 -4.87149e-06)
(0.000588597 -0.0230772 -5.13709e-06)
(0.000618492 -0.0232664 -5.39803e-06)
(0.000647567 -0.0234213 -5.6518e-06)
(0.000675522 -0.0235406 -5.89579e-06)
(0.000702021 -0.0236224 -6.12708e-06)
(0.00072671 -0.0236649 -6.34259e-06)
(0.000749206 -0.0236664 -6.53895e-06)
(0.000769114 -0.0236246 -6.71274e-06)
(0.000786016 -0.0235374 -6.8603e-06)
(0.000799493 -0.0234025 -6.97796e-06)
(0.000809111 -0.0232174 -7.06198e-06)
(0.000814447 -0.0229796 -7.10958e-06)
(0.000815099 -0.0226863 -7.11537e-06)
(0.000810703 -0.0223347 -7.07706e-06)
(0.000800917 -0.0219217 -6.99172e-06)
(0.000785467 -0.0214442 -6.85693e-06)
(0.000764144 -0.020899 -6.67088e-06)
(0.000736833 -0.0202827 -6.43256e-06)
(0.000703508 -0.0195919 -6.14176e-06)
(0.000664271 -0.0188233 -5.79934e-06)
(0.000619347 -0.0179735 -5.40726e-06)
(0.00056913 -0.0170396 -4.96898e-06)
(0.000514155 -0.0160179 -4.48916e-06)
(0.000455151 -0.0149048 -3.97416e-06)
(0.000393054 -0.0136956 -3.43214e-06)
(0.000329028 -0.0123827 -2.87326e-06)
(0.00026451 -0.0109541 -2.31006e-06)
(0.000201259 -0.00939025 -1.75789e-06)
(0.000141409 -0.00766082 -1.23537e-06)
(8.71584e-05 -0.00572686 -7.6169e-07)
(4.11512e-05 -0.00355821 -3.60261e-07)
(5.48592e-06 -0.0011779 -5.63647e-08)
(7.98187e-07 -0.00224936 -6.95978e-09)
(3.94794e-06 -0.00436625 -3.45177e-08)
(1.00652e-05 -0.00615891 -8.7924e-08)
(1.80476e-05 -0.00766713 -1.57479e-07)
(2.81591e-05 -0.00897741 -2.45762e-07)
(3.89994e-05 -0.0101446 -3.40344e-07)
(5.2353e-05 -0.0112007 -4.56908e-07)
(6.61934e-05 -0.0121695 -5.77681e-07)
(8.19487e-05 -0.0130658 -7.15204e-07)
(9.83366e-05 -0.0139015 -8.58219e-07)
(0.000116218 -0.0146846 -1.0143e-06)
(0.000135056 -0.0154219 -1.1787e-06)
(0.000155081 -0.016118 -1.35347e-06)
(0.000176203 -0.0167769 -1.53782e-06)
(0.000198444 -0.0174015 -1.73193e-06)
(0.000221783 -0.0179942 -1.93563e-06)
(0.000246225 -0.0185565 -2.14895e-06)
(0.000271736 -0.0190899 -2.3716e-06)
(0.000298289 -0.0195952 -2.60334e-06)
(0.000325846 -0.0200731 -2.84385e-06)
(0.000354322 -0.0205239 -3.09239e-06)
(0.000383654 -0.0209477 -3.34839e-06)
(0.000413714 -0.0213444 -3.61074e-06)
(0.000444412 -0.0217136 -3.87867e-06)
(0.000475599 -0.0220548 -4.15085e-06)
(0.000507118 -0.0223673 -4.42595e-06)
(0.000538784 -0.0226504 -4.70232e-06)
(0.000570386 -0.0229028 -4.97814e-06)
(0.00060169 -0.0231236 -5.25136e-06)
(0.000632433 -0.0233114 -5.5197e-06)
(0.000662326 -0.0234648 -5.78061e-06)
(0.000691049 -0.0235823 -6.0313e-06)
(0.000718263 -0.0236622 -6.26884e-06)
(0.000743591 -0.0237026 -6.48992e-06)
(0.000766648 -0.0237016 -6.69118e-06)
(0.000787015 -0.0236573 -6.86897e-06)
(0.000804272 -0.0235673 -7.01963e-06)
(0.000817976 -0.0234295 -7.13928e-06)
(0.000827692 -0.0232413 -7.22416e-06)
(0.000832976 -0.0230003 -7.27133e-06)
(0.000833426 -0.0227037 -7.27536e-06)
(0.000828662 -0.0223486 -7.23384e-06)
(0.000818346 -0.0219322 -7.14386e-06)
(0.000802191 -0.0214512 -7.00293e-06)
(0.000779999 -0.0209026 -6.8093e-06)
(0.00075165 -0.020283 -6.56192e-06)
(0.000717136 -0.019589 -6.26074e-06)
(0.000676563 -0.0188175 -5.90666e-06)
(0.000630185 -0.017965 -5.50189e-06)
(0.00057841 -0.0170286 -5.05001e-06)
(0.000521812 -0.0160049 -4.55603e-06)
(0.00046115 -0.0148901 -4.02655e-06)
(0.000397406 -0.0136796 -3.47015e-06)
(0.000331783 -0.012366 -2.89734e-06)
(0.000265772 -0.0109373 -2.3211e-06)
(0.00020117 -0.00937389 -1.75714e-06)
(0.000140163 -0.00764565 -1.22452e-06)
(8.50767e-05 -0.00571358 -7.4353e-07)
(3.88114e-05 -0.00354754 -3.39831e-07)
(4.6897e-06 -0.00117199 -4.82005e-08)
(4.69041e-07 -0.00224996 -4.08697e-09)
(2.91563e-06 -0.00437154 -2.55152e-08)
(8.32777e-06 -0.0061693 -7.27681e-08)
(1.55652e-05 -0.00768182 -1.35801e-07)
(2.50964e-05 -0.00899717 -2.19041e-07)
(3.51145e-05 -0.010168 -3.06469e-07)
(4.82097e-05 -0.0112274 -4.20724e-07)
(6.16711e-05 -0.0121995 -5.38235e-07)
(7.76661e-05 -0.0130984 -6.77806e-07)
(9.4176e-05 -0.0139367 -8.21918e-07)
(0.000112728 -0.0147221 -9.83814e-07)
(0.000132122 -0.0154615 -1.15309e-06)
(0.000153092 -0.0161596 -1.3361e-06)
(0.000175093 -0.0168203 -1.52812e-06)
(0.000198419 -0.0174466 -1.7317e-06)
(0.000222815 -0.0180406 -1.94462e-06)
(0.000248387 -0.0186042 -2.16781e-06)
(0.000275006 -0.0191386 -2.40013e-06)
(0.000302689 -0.0196448 -2.64173e-06)
(0.000331356 -0.0201234 -2.89194e-06)
(0.000360959 -0.0205747 -3.15031e-06)
(0.000391399 -0.0209989 -3.41597e-06)
(0.000422575 -0.0213956 -3.68807e-06)
(0.00045438 -0.0217647 -3.96565e-06)
(0.000486674 -0.0221057 -4.24751e-06)
(0.000519296 -0.0224177 -4.53222e-06)
(0.000552056 -0.0227 -4.81815e-06)
(0.00058474 -0.0229516 -5.10341e-06)
(0.000617101 -0.0231712 -5.38586e-06)
(0.000648871 -0.0233577 -5.66316e-06)
(0.000679745 -0.0235095 -5.93263e-06)
(0.000709396 -0.0236252 -6.19142e-06)
(0.000737462 -0.023703 -6.4364e-06)
(0.000763564 -0.0237412 -6.66423e-06)
(0.000787289 -0.0237378 -6.87133e-06)
(0.000808216 -0.0236908 -7.05401e-06)
(0.000825899 -0.023598 -7.20838e-06)
(0.000839889 -0.0234571 -7.33054e-06)
(0.000849729 -0.0232657 -7.4165e-06)
(0.000854969 -0.0230213 -7.46331e-06)
(0.000855188 -0.0227213 -7.46532e-06)
(0.000850006 -0.0223627 -7.42017e-06)
(0.000839071 -0.0219427 -7.32479e-06)
(0.000822101 -0.0214582 -7.17674e-06)
(0.00079889 -0.0209061 -6.97422e-06)
(0.000769332 -0.0202831 -6.71629e-06)
(0.00073342 -0.0195859 -6.40291e-06)
(0.000691286 -0.0188113 -6.03521e-06)
(0.000643196 -0.017956 -5.6155e-06)
(0.000589597 -0.0170171 -5.1477e-06)
(0.00053109 -0.0159913 -4.63705e-06)
(0.000468484 -0.0148748 -4.0906e-06)
(0.000402803 -0.0136631 -3.51729e-06)
(0.000335314 -0.0123488 -2.92818e-06)
(0.000267557 -0.0109199 -2.33671e-06)
(0.000201403 -0.00935708 -1.7592e-06)
(0.000139094 -0.00763011 -1.2152e-06)
(8.31275e-05 -0.00570008 -7.26524e-07)
(3.66424e-05 -0.00353698 -3.20836e-07)
(3.91885e-06 -0.00116649 -4.10306e-08)
(6.56102e-07 -0.00225979 -5.72719e-09)
(3.48214e-06 -0.0043889 -3.03776e-08)
(9.57245e-06 -0.00619257 -8.34544e-08)
(1.56884e-05 -0.00770989 -1.36912e-07)
(2.53419e-05 -0.00902925 -2.21207e-07)
(3.71096e-05 -0.0102034 -3.23866e-07)
(5.00185e-05 -0.0112656 -4.36534e-07)
(6.36354e-05 -0.01224 -5.55373e-07)
(7.98128e-05 -0.0131408 -6.96557e-07)
(9.64283e-05 -0.013981 -8.41563e-07)
(0.000115177 -0.0147679 -1.00521e-06)
(0.000134747 -0.0155086 -1.17599e-06)
(0.00015593 -0.0162078 -1.36087e-06)
(0.000178293 -0.0168695 -1.55604e-06)
(0.000201984 -0.0174966 -1.76281e-06)
(0.00022695 -0.0180914 -1.9807e-06)
(0.000253116 -0.0186557 -2.20907e-06)
(0.00028051 -0.0191907 -2.44816e-06)
(0.000309023 -0.0196973 -2.69701e-06)
(0.000338631 -0.0201763 -2.95542e-06)
(0.000369223 -0.0206278 -3.22241e-06)
(0.000400745 -0.021052 -3.49753e-06)
(0.000433054 -0.0214488 -3.77951e-06)
(0.000466047 -0.0218177 -4.06747e-06)
(0.000499559 -0.0221582 -4.35995e-06)
(0.000533418 -0.0224697 -4.65547e-06)
(0.000567422 -0.0227513 -4.95225e-06)
(0.00060134 -0.0230019 -5.24828e-06)
(0.000634918 -0.0232203 -5.54135e-06)
(0.000667868 -0.0234054 -5.82894e-06)
(0.000699875 -0.0235556 -6.10831e-06)
(0.000730593 -0.0236694 -6.37641e-06)
(0.00075965 -0.0237452 -6.63004e-06)
(0.000786642 -0.023781 -6.86564e-06)
(0.000811148 -0.023775 -7.07956e-06)
(0.000832719 -0.0237252 -7.26786e-06)
(0.000850903 -0.0236295 -7.42661e-06)
(0.000865224 -0.0234854 -7.55165e-06)
(0.000875217 -0.0232907 -7.63896e-06)
(0.000880409 -0.0230429 -7.68538e-06)
(0.000880375 -0.0227393 -7.68519e-06)
(0.000874717 -0.0223771 -7.63588e-06)
(0.000863084 -0.0219534 -7.53441e-06)
(0.00084518 -0.0214652 -7.37822e-06)
(0.000820811 -0.0209095 -7.16559e-06)
(0.000789868 -0.020283 -6.89557e-06)
(0.000752365 -0.0195824 -6.5683e-06)
(0.000708442 -0.0188046 -6.18499e-06)
(0.000658401 -0.0179465 -5.74825e-06)
(0.000602712 -0.0170051 -5.26221e-06)
(0.000542026 -0.0159771 -4.73254e-06)
(0.000477193 -0.0148589 -4.16666e-06)
(0.000409303 -0.0136459 -3.57407e-06)
(0.00033968 -0.0123309 -2.96633e-06)
(0.000269942 -0.010902 -2.35756e-06)
(0.000202036 -0.00933979 -1.76475e-06)
(0.000138293 -0.00761418 -1.20823e-06)
(8.13955e-05 -0.00568637 -7.11405e-07)
(3.47052e-05 -0.00352651 -3.03927e-07)
(3.27767e-06 -0.00116134 -3.48562e-08)
(4.09524e-07 -0.00226191 -3.57238e-09)
(2.75058e-06 -0.00439606 -2.39936e-08)
(8.44976e-06 -0.00620517 -7.36967e-08)
(1.39823e-05 -0.00772741 -1.22015e-07)
(2.33023e-05 -0.00905016 -2.0342e-07)
(3.48542e-05 -0.0102278 -3.04142e-07)
(4.79693e-05 -0.011295 -4.1872e-07)
(6.12482e-05 -0.0122725 -5.34504e-07)
(7.76908e-05 -0.0131765 -6.78069e-07)
(9.4351e-05 -0.0140195 -8.23438e-07)
(0.000113854 -0.0148088 -9.93649e-07)
(0.00013387 -0.0155519 -1.16835e-06)
(0.000156091 -0.0162531 -1.36226e-06)
(0.000179235 -0.0169166 -1.56427e-06)
(0.000204067 -0.0175453 -1.78097e-06)
(0.000230044 -0.0181416 -2.0077e-06)
(0.000257395 -0.018707 -2.24641e-06)
(0.000285942 -0.0192431 -2.49556e-06)
(0.000315696 -0.0197506 -2.75524e-06)
(0.000346555 -0.0202302 -3.02457e-06)
(0.000378463 -0.0206822 -3.30305e-06)
(0.00041131 -0.0211067 -3.58972e-06)
(0.000444984 -0.0215035 -3.88362e-06)
(0.000479354 -0.0218723 -4.18359e-06)
(0.000514263 -0.0222125 -4.48827e-06)
(0.000549527 -0.0225235 -4.79605e-06)
(0.000584937 -0.0228043 -5.1051e-06)
(0.00062025 -0.0230539 -5.41331e-06)
(0.000655198 -0.0232711 -5.71833e-06)
(0.000689481 -0.0234547 -6.01756e-06)
(0.000722764 -0.0236033 -6.30807e-06)
(0.000754689 -0.0237151 -6.58671e-06)
(0.00078486 -0.0237887 -6.85005e-06)
(0.00081286 -0.0238221 -7.09446e-06)
(0.000838242 -0.0238135 -7.31602e-06)
(0.000860546 -0.0237608 -7.51073e-06)
(0.000879291 -0.0236619 -7.67437e-06)
(0.000893992 -0.0235146 -7.80273e-06)
(0.000904154 -0.0233164 -7.89152e-06)
(0.000909301 -0.023065 -7.93758e-06)
(0.00090898 -0.0227576 -7.93489e-06)
(0.000902793 -0.0223916 -7.88097e-06)
(0.000890371 -0.0219642 -7.77262e-06)
(0.000871427 -0.0214722 -7.60734e-06)
(0.000845754 -0.0209127 -7.38334e-06)
(0.000813261 -0.0202826 -7.0998e-06)
(0.000773967 -0.0195785 -6.7569e-06)
(0.000728042 -0.0187975 -6.35612e-06)
(0.000675806 -0.0179365 -5.90022e-06)
(0.000617777 -0.0169924 -5.39376e-06)
(0.000554643 -0.0159622 -4.84272e-06)
(0.000487317 -0.0148423 -4.25508e-06)
(0.000416947 -0.0136281 -3.64084e-06)
(0.00034494 -0.0123124 -3.01228e-06)
(0.000272987 -0.0108835 -2.38417e-06)
(0.000203141 -0.009322 -1.77441e-06)
(0.000137827 -0.0075979 -1.20418e-06)
(7.99406e-05 -0.00567248 -6.98721e-07)
(3.30269e-05 -0.00351615 -2.89221e-07)
(2.74196e-06 -0.00115649 -2.97822e-08)
(5.27628e-07 -0.0022694 -4.60909e-09)
(3.01691e-06 -0.00441024 -2.6329e-08)
(8.56212e-06 -0.00622503 -7.46467e-08)
(1.5543e-05 -0.00775203 -1.35554e-07)
(2.57989e-05 -0.00907906 -2.25082e-07)
(3.45293e-05 -0.0102604 -3.01375e-07)
(4.73579e-05 -0.0113311 -4.13254e-07)
(6.3378e-05 -0.0123114 -5.53201e-07)
(7.93934e-05 -0.0132179 -6.92868e-07)
(9.67303e-05 -0.014063 -8.44256e-07)
(0.000116545 -0.0148542 -1.01713e-06)
(0.00013687 -0.0155992 -1.19454e-06)
(0.000159534 -0.016302 -1.39233e-06)
(0.00018321 -0.016967 -1.59895e-06)
(0.000208626 -0.017597 -1.82077e-06)
(0.000235406 -0.0181944 -2.05449e-06)
(0.000263585 -0.0187609 -2.30043e-06)
(0.000293174 -0.0192979 -2.55867e-06)
(0.000324018 -0.0198061 -2.82786e-06)
(0.000356108 -0.0202863 -3.10793e-06)
(0.000389294 -0.0207387 -3.39757e-06)
(0.000423523 -0.0211635 -3.6963e-06)
(0.000458628 -0.0215604 -4.00269e-06)
(0.00049449 -0.021929 -4.31568e-06)
(0.000530923 -0.0222689 -4.63366e-06)
(0.000567734 -0.0225793 -4.95494e-06)
(0.000604696 -0.0228593 -5.27754e-06)
(0.000641552 -0.0231079 -5.59921e-06)
(0.000678018 -0.0233238 -5.91749e-06)
(0.000713775 -0.0235059 -6.22959e-06)
(0.000748475 -0.0236527 -6.53246e-06)
(0.000781734 -0.0237625 -6.82274e-06)
(0.000813143 -0.0238338 -7.09689e-06)
(0.000842256 -0.0238647 -7.35101e-06)
(0.000868613 -0.0238533 -7.58108e-06)
(0.000891723 -0.0237976 -7.78283e-06)
(0.000911093 -0.0236955 -7.95193e-06)
(0.000926207 -0.0235447 -8.0839e-06)
(0.000936562 -0.0233429 -8.17437e-06)
(0.00094165 -0.0230877 -8.21996e-06)
(0.000941015 -0.0227765 -8.21453e-06)
(0.000934235 -0.0224065 -8.15544e-06)
(0.000920944 -0.0219751 -8.03951e-06)
(0.000900838 -0.0214791 -7.8641e-06)
(0.000873726 -0.0209158 -7.62754e-06)
(0.000839512 -0.0202819 -7.32898e-06)
(0.000798239 -0.0195742 -6.96881e-06)
(0.000750093 -0.0187899 -6.54863e-06)
(0.000695433 -0.0179258 -6.07159e-06)
(0.000634811 -0.0169791 -5.54248e-06)
(0.000568973 -0.0159466 -4.96785e-06)
(0.000498887 -0.0148249 -4.35611e-06)
(0.000425781 -0.0136095 -3.71799e-06)
(0.000351137 -0.0122932 -3.06642e-06)
(0.000276747 -0.0108644 -2.41702e-06)
(0.000204769 -0.00930368 -1.78866e-06)
(0.000137751 -0.00758123 -1.20354e-06)
(7.87965e-05 -0.00565841 -6.88736e-07)
(3.1614e-05 -0.00350589 -2.76891e-07)
(2.29342e-06 -0.00115193 -2.54595e-08)
(4.1537e-07 -0.0022725 -3.62965e-09)
(2.66762e-06 -0.00441882 -2.32813e-08)
(8.0123e-06 -0.00623901 -6.98752e-08)
(1.44641e-05 -0.00777079 -1.2616e-07)
(2.42377e-05 -0.00910296 -2.11485e-07)
(3.32824e-05 -0.0102889 -2.90477e-07)
(4.65782e-05 -0.011361 -4.06492e-07)
(6.30356e-05 -0.0123444 -5.50117e-07)
(7.96287e-05 -0.013256 -6.94999e-07)
(9.6993e-05 -0.0141038 -8.46484e-07)
(0.00011728 -0.0148978 -1.02359e-06)
(0.000138032 -0.0156454 -1.20466e-06)
(0.000161772 -0.0163503 -1.41185e-06)
(0.000186225 -0.0170174 -1.62527e-06)
(0.000212887 -0.0176492 -1.85794e-06)
(0.000240725 -0.0182482 -2.10091e-06)
(0.000270211 -0.0188161 -2.35825e-06)
(0.000301059 -0.0193541 -2.62748e-06)
(0.0003333 -0.0198634 -2.90886e-06)
(0.000366812 -0.0203443 -3.20134e-06)
(0.000401521 -0.0207973 -3.50427e-06)
(0.0004373 -0.0212224 -3.81653e-06)
(0.000474019 -0.0216193 -4.137e-06)
(0.000511522 -0.0219879 -4.46432e-06)
(0.00054963 -0.0223275 -4.79692e-06)
(0.000588132 -0.0226373 -5.13295e-06)
(0.00062679 -0.0229165 -5.47035e-06)
(0.000665334 -0.023164 -5.80675e-06)
(0.000703458 -0.0233787 -6.1395e-06)
(0.00074083 -0.0235592 -6.4657e-06)
(0.000777075 -0.0237041 -6.78206e-06)
(0.000811796 -0.0238118 -7.0851e-06)
(0.000844554 -0.0238807 -7.37102e-06)
(0.000874887 -0.0239089 -7.6358e-06)
(0.000902303 -0.0238946 -7.87512e-06)
(0.000926297 -0.0238357 -8.08457e-06)
(0.000946341 -0.0237302 -8.25957e-06)
(0.000961909 -0.0235758 -8.39549e-06)
(0.000972462 -0.0233703 -8.4877e-06)
(0.000977485 -0.0231111 -8.53277e-06)
(0.000976494 -0.0227958 -8.52424e-06)
(0.000969064 -0.0224218 -8.45948e-06)
(0.00095481 -0.0219861 -8.33515e-06)
(0.000933434 -0.0214861 -8.14865e-06)
(0.000904735 -0.0209187 -7.89824e-06)
(0.000868637 -0.0202808 -7.58324e-06)
(0.000825189 -0.0195695 -7.2041e-06)
(0.000774614 -0.0187817 -6.76272e-06)
(0.000717295 -0.0179145 -6.26247e-06)
(0.00065384 -0.016965 -5.70863e-06)
(0.00058504 -0.0159302 -5.10814e-06)
(0.00051194 -0.0148067 -4.4701e-06)
(0.000435838 -0.0135901 -3.80582e-06)
(0.000358318 -0.0122733 -3.12914e-06)
(0.000281265 -0.0108445 -2.45651e-06)
(0.000206972 -0.00928478 -1.80792e-06)
(0.000138104 -0.00756413 -1.20665e-06)
(7.79887e-05 -0.00564413 -6.81701e-07)
(3.04603e-05 -0.00349568 -2.66782e-07)
(1.92005e-06 -0.00114759 -2.19141e-08)
(4.90374e-07 -0.00227864 -4.28261e-09)
(2.82352e-06 -0.00443123 -2.46511e-08)
(8.26625e-06 -0.00625711 -7.2101e-08)
(1.53831e-05 -0.00779384 -1.34222e-07)
(2.50463e-05 -0.00913036 -2.18513e-07)
(3.60332e-05 -0.0103203 -3.14349e-07)
(5.04314e-05 -0.011396 -4.40035e-07)
(6.23961e-05 -0.0123827 -5.44575e-07)
(7.87928e-05 -0.0132974 -6.87656e-07)
(0.000100291 -0.0141479 -8.75326e-07)
(0.00012038 -0.0149445 -1.05058e-06)
(0.000142017 -0.0156943 -1.23948e-06)
(0.000166425 -0.0164013 -1.45246e-06)
(0.000191573 -0.0170703 -1.67193e-06)
(0.000219089 -0.0177038 -1.91208e-06)
(0.00024794 -0.0183043 -2.16387e-06)
(0.000278507 -0.0188735 -2.43065e-06)
(0.000310632 -0.0194128 -2.71101e-06)
(0.000344209 -0.0199229 -3.00406e-06)
(0.000379203 -0.0204047 -3.30947e-06)
(0.000415451 -0.0208582 -3.62583e-06)
(0.000452876 -0.0212836 -3.95246e-06)
(0.000491296 -0.0216808 -4.28778e-06)
(0.000530567 -0.0220493 -4.63052e-06)
(0.000570479 -0.0223885 -4.97887e-06)
(0.000610812 -0.0226977 -5.33088e-06)
(0.00065131 -0.0229761 -5.68434e-06)
(0.00069168 -0.0232225 -6.03668e-06)
(0.000731604 -0.0234358 -6.38514e-06)
(0.000770722 -0.0236147 -6.72658e-06)
(0.000808646 -0.0237576 -7.05759e-06)
(0.000844945 -0.0238631 -7.3744e-06)
(0.000879166 -0.0239295 -7.6731e-06)
(0.000910812 -0.0239549 -7.94934e-06)
(0.000939376 -0.0239375 -8.19868e-06)
(0.000964316 -0.0238753 -8.41639e-06)
(0.00098509 -0.0237663 -8.59775e-06)
(0.00100113 -0.0236081 -8.73784e-06)
(0.0010119 -0.0233986 -8.8319e-06)
(0.00101684 -0.0231353 -8.87627e-06)
(0.00101545 -0.0228158 -8.86434e-06)
(0.0010073 -0.0224374 -8.79328e-06)
(0.000991998 -0.0219974 -8.65979e-06)
(0.000969228 -0.021493 -8.46113e-06)
(0.000938804 -0.0209214 -8.19566e-06)
(0.000900649 -0.0202794 -7.86271e-06)
(0.000854842 -0.0195642 -7.46297e-06)
(0.00080162 -0.0187729 -6.99851e-06)
(0.00074142 -0.0179024 -6.4731e-06)
(0.000674883 -0.0169501 -5.89237e-06)
(0.000602874 -0.015913 -5.26387e-06)
(0.000526501 -0.0147877 -4.59726e-06)
(0.000447158 -0.0135698 -3.90469e-06)
(0.000366518 -0.0122525 -3.20077e-06)
(0.000286588 -0.010824 -2.50301e-06)
(0.000209786 -0.00926525 -1.83252e-06)
(0.000138921 -0.00754657 -1.21381e-06)
(7.75289e-05 -0.00562961 -6.77696e-07)
(2.95567e-05 -0.00348551 -2.58897e-07)
(1.61107e-06 -0.00114343 -1.89479e-08)
(4.16488e-07 -0.0022824 -3.63787e-09)
(2.62558e-06 -0.00444088 -2.29233e-08)
(8.08578e-06 -0.0062723 -7.05337e-08)
(1.50751e-05 -0.00781421 -1.31542e-07)
(2.45168e-05 -0.00915541 -2.13926e-07)
(3.57012e-05 -0.0103493 -3.11501e-07)
(5.04748e-05 -0.0114305 -4.4038e-07)
(6.31993e-05 -0.0124213 -5.51527e-07)
(8.03894e-05 -0.0133377 -7.01644e-07)
(0.000102208 -0.0141915 -8.91984e-07)
(0.000122799 -0.0149911 -1.07174e-06)
(0.000145092 -0.0157435 -1.26629e-06)
(0.000170638 -0.0164531 -1.48922e-06)
(0.00019673 -0.0171243 -1.71694e-06)
(0.000225592 -0.0177598 -1.96882e-06)
(0.000255652 -0.0183621 -2.23117e-06)
(0.000287676 -0.0189329 -2.51065e-06)
(0.000321238 -0.0194735 -2.80357e-06)
(0.000356407 -0.0199848 -3.11051e-06)
(0.000393037 -0.0204675 -3.43021e-06)
(0.000431033 -0.0209217 -3.76182e-06)
(0.000470251 -0.0213476 -4.10409e-06)
(0.000510539 -0.0217449 -4.45571e-06)
(0.000551717 -0.0221133 -4.8151e-06)
(0.000593578 -0.0224522 -5.18045e-06)
(0.000635881 -0.0227609 -5.54966e-06)
(0.000678354 -0.0230384 -5.92036e-06)
(0.000720691 -0.0232836 -6.28987e-06)
(0.000762547 -0.0234955 -6.65518e-06)
(0.000803546 -0.0236726 -7.01304e-06)
(0.000843268 -0.0238135 -7.35974e-06)
(0.000881267 -0.0239167 -7.69139e-06)
(0.000917052 -0.0239804 -8.00375e-06)
(0.000950112 -0.0240029 -8.29232e-06)
(0.000979898 -0.0239823 -8.55233e-06)
(0.00100585 -0.0239166 -8.7789e-06)
(0.00102739 -0.0238037 -8.96697e-06)
(0.00104394 -0.0236416 -9.11149e-06)
(0.00105492 -0.0234279 -9.20737e-06)
(0.00105975 -0.0231603 -9.25091e-06)
(0.00105793 -0.0228363 -9.23512e-06)
(0.00104899 -0.0224534 -9.15721e-06)
(0.00103254 -0.0220088 -9.01367e-06)
(0.00100826 -0.0214999 -8.80184e-06)
(0.000975956 -0.0209239 -8.52e-06)
(0.00093558 -0.0202777 -8.16766e-06)
(0.000887214 -0.0195585 -7.7456e-06)
(0.000831142 -0.0187634 -7.25625e-06)
(0.000767825 -0.0178896 -6.70364e-06)
(0.000697972 -0.0169343 -6.09397e-06)