/*--------------------------------*- C++ -*----------------------------------*\
| =========                 |                                                 |
| \\      /  F ield         | OpenFOAM: The Open Source CFD Toolbox           |
|  \\    /   O peration     | Version:  v2012                                 |
|   \\  /    A nd           | Website:  www.openfoam.com                      |
|    \\/     M anipulation  |                                                 |
\*---------------------------------------------------------------------------*/
FoamFile
{
    version     2.0;
    format      ascii;
    class       surfaceScalarField;
    location    "0.15";
    object      phi;
}
// * * * * * * * * * * * * * * * * * * * * * * * * * * * * * * * * * * * * * //

dimensions      [0 3 -1 0 0 0 0];
oriented        oriented;


internalField   nonuniform List<scalar> 
8048
(
-1.3313e-12
-7.51037e-09
1.16014e-16
3.74035e-11
-2.29263e-08
-6.52417e-15
3.51881e-10
-4.17634e-08
4.09468e-16
1.19013e-09
-6.74211e-08
3.42363e-15
2.05972e-09
-9.72101e-08
8.89735e-15
2.21988e-09
-1.2113e-07
3.70508e-15
1.68756e-09
-1.22512e-07
-1.83743e-14
-7.87156e-08
-2.29641e-14
-1.18847e-12
-7.50918e-09
-1.1361e-15
4.53696e-11
-2.29728e-08
-3.17015e-15
3.739e-10
-4.20919e-08
7.06083e-15
1.33231e-09
-6.83794e-08
7.28114e-15
2.18514e-09
-9.8063e-08
-7.25563e-15
2.21909e-09
-1.21163e-07
1.75667e-14
1.58298e-09
-1.21875e-07
-8.62527e-15
-1.55872e-09
-7.55738e-08
-2.57978e-14
-4.26144e-09
-7.4207e-08
-4.61097e-14
-6.35084e-09
-5.87367e-08
-5.53764e-14
-6.59309e-09
-3.30382e-08
-2.86111e-14
-6.92991e-09
-2.2903e-08
-1.23054e-14
-7.59048e-09
-2.16759e-08
-6.14941e-15
-8.47463e-09
-2.28957e-08
-4.8798e-15
-2.49472e-08
-4.40506e-15
-6.565e-13
-7.50852e-09
-7.71423e-16
5.66061e-11
-2.30301e-08
-1.69905e-15
4.26083e-10
-4.24614e-08
-2.84931e-15
1.50253e-09
-6.94559e-08
-1.67071e-15
2.27485e-09
-9.88354e-08
-5.41168e-15
2.1418e-09
-1.2103e-07
1.50253e-14
1.39116e-09
-1.21125e-07
-1.75054e-14
-1.57063e-09
-7.2612e-08
-2.11104e-14
-4.37101e-09
-7.14066e-08
-4.65186e-14
-6.49683e-09
-5.66108e-08
-5.8468e-14
-6.7652e-09
-3.27698e-08
-2.7872e-14
-7.04783e-09
-2.26204e-08
-1.23489e-14
-7.65522e-09
-2.10685e-08
-6.42489e-15
-8.48958e-09
-2.20613e-08
-4.70746e-15
-2.39353e-08
-4.68422e-15
2.73556e-13
-7.50879e-09
-4.62467e-17
7.11132e-11
-2.31009e-08
-2.05093e-15
5.125e-10
-4.29028e-08
-1.52086e-15
1.67714e-09
-7.06205e-08
2.04411e-15
2.27433e-09
-9.94326e-08
6.96482e-16
1.92582e-09
-1.20682e-07
-8.43559e-16
1.06105e-09
-1.2026e-07
-1.58557e-14
-1.53956e-09
-7.00114e-08
-1.81342e-14
-4.42939e-09
-6.85168e-08
-4.37629e-14
-6.60374e-09
-5.44364e-08
-5.90492e-14
-6.91433e-09
-3.24591e-08
-2.754e-14
-7.14751e-09
-2.23872e-08
-1.44833e-14
-7.70126e-09
-2.05147e-08
-7.52814e-15
-8.4845e-09
-2.12781e-08
-5.15389e-15
-2.29711e-08
-4.9503e-15
1.50358e-12
-7.51029e-09
-1.15748e-15
8.80683e-11
-2.31874e-08
-1.52325e-15
6.29083e-10
-4.34438e-08
-2.50573e-15
1.80941e-09
-7.18008e-08
1.82253e-16
2.11045e-09
-9.97336e-08
2.32292e-15
1.49391e-09
-1.20065e-07
1.08631e-14
5.20149e-10
-1.19286e-07
1.41032e-15
-1.49525e-09
-6.7996e-08
-5.97984e-15
-4.44372e-09
-6.55684e-08
-4.01098e-14
-6.66755e-09
-5.22126e-08
-5.46433e-14
-7.03212e-09
-3.20945e-08
-2.76813e-14
-7.22298e-09
-2.21964e-08
-1.65001e-14
-7.72351e-09
-2.00142e-08
-8.39462e-15
-8.45571e-09
-2.05459e-08
-5.6661e-15
-2.20554e-08
-5.07593e-15
2.95255e-12
-7.51322e-09
1.17358e-15
1.06487e-10
-2.32909e-08
7.63522e-16
7.60947e-10
-4.40983e-08
-6.7742e-16
1.83779e-09
-7.28777e-08
-1.81745e-15
1.71662e-09
-9.96125e-08
-4.96724e-16
7.81601e-10
-1.1913e-07
1.45027e-14
-2.82565e-10
-1.18222e-07
8.6832e-15
-1.45251e-09
-6.68261e-08
2.78107e-15
-4.40569e-09
-6.26152e-08
-3.43434e-14
-6.67276e-09
-4.99455e-08
-4.59366e-14
-7.10575e-09
-3.16615e-08
-2.62993e-14
-7.26703e-09
-2.20352e-08
-1.67327e-14
-7.71649e-09
-1.95647e-08
-8.89773e-15
-8.39912e-09
-1.98632e-08
-6.08775e-15
-2.11884e-08
-5.1381e-15
4.34216e-12
-7.51758e-09
-2.90053e-15
1.23877e-10
-2.34105e-08
-1.34084e-15
8.78883e-10
-4.48533e-08
-8.95567e-16
1.70366e-09
-7.37025e-08
-4.00153e-15
1.07076e-09
-9.89796e-08
-2.29711e-15
-2.14697e-10
-1.17845e-07
1.60894e-14
-1.27229e-09
-1.17165e-07
8.49862e-15
-1.38807e-09
-6.67103e-08
7.29524e-15
-4.3104e-09
-5.96929e-08
-2.59017e-14
-6.60901e-09
-4.76469e-08
-3.51321e-14
-7.12627e-09
-3.11443e-08
-2.16131e-14
-7.2746e-09
-2.18869e-08
-1.44158e-14
-7.67687e-09
-1.91624e-08
-8.41486e-15
-8.31171e-09
-1.92284e-08
-5.92036e-15
-2.037e-08
-5.10672e-15
5.64182e-12
-7.52321e-09
1.35139e-15
1.39089e-10
-2.35439e-08
2.23344e-15
9.54956e-10
-4.56692e-08
7.7111e-17
1.38748e-09
-7.4135e-08
-1.01656e-16
2.24443e-10
-9.78165e-08
-5.13143e-15
-1.42589e-09
-1.16194e-07
3.72482e-15
-2.3596e-09
-1.16231e-07
7.70086e-15
-1.26074e-09
-6.78091e-08
2.6714e-16
-4.15875e-09
-5.67949e-08
-2.14822e-14
-6.47476e-09
-4.53309e-08
-2.77192e-14
-7.09047e-09
-3.05285e-08
-1.73861e-14
-7.24314e-09
-2.17343e-08
-1.16261e-14
-7.60359e-09
-1.88019e-08
-7.39177e-15
-8.19154e-09
-1.86405e-08
-5.3729e-15
-1.96004e-08
-4.78956e-15
6.58262e-12
-7.52981e-09
-1.81721e-15
1.5109e-10
-2.36884e-08
-2.20087e-15
9.65992e-10
-4.64841e-08
2.67813e-15
9.04265e-10
-7.40733e-08
-8.678e-16
-7.37864e-10
-9.61744e-08
-6.1295e-15
-2.73361e-09
-1.14199e-07
-1.64031e-15
-3.47221e-09
-1.15492e-07
8.81944e-16
-1.04063e-09
-7.02406e-08
1.28182e-14
-3.94741e-09
-5.38881e-08
-1.76509e-14
-6.27402e-09
-4.30042e-08
-2.33198e-14
-6.99744e-09
-2.98051e-08
-1.51435e-14
-7.17188e-09
-2.15599e-08
-1.0075e-14
-7.49648e-09
-1.84773e-08
-6.58624e-15
-8.03741e-09
-1.80995e-08
-4.88868e-15
-1.88806e-08
-4.62507e-15
7.24042e-12
-7.53706e-09
-8.11686e-16
1.62376e-10
-2.38436e-08
8.02568e-16
9.01759e-10
-4.72234e-08
5.69277e-15
2.98628e-10
-7.34702e-08
-4.37229e-15
-1.72332e-09
-9.41525e-08
-8.94061e-15
-3.98818e-09
-1.11934e-07
-1.15518e-14
-4.48888e-09
-1.14991e-07
2.26076e-14
-6.62489e-10
-7.40672e-08
-2.4239e-14
-3.67746e-09
-5.08732e-08
-1.99336e-14
-6.02264e-09
-4.06591e-08
-2.1809e-14
-6.85268e-09
-2.8975e-08
-1.50633e-14
-7.06262e-09
-2.135e-08
-9.43673e-15
-7.35529e-09
-1.81846e-08
-5.7398e-15
-7.84768e-09
-1.76072e-08
-4.56792e-15
-1.82127e-08
-4.3271e-15
7.67688e-12
-7.54473e-09
2.77048e-17
1.76566e-10
-2.40125e-08
-1.31976e-15
7.57755e-10
-4.78046e-08
6.11753e-15
-3.71703e-10
-7.23407e-08
-3.17819e-15
-2.64326e-09
-9.18809e-08
8.70694e-16
-5.05454e-09
-1.09523e-07
-1.66666e-14
-5.35219e-09
-1.14694e-07
1.05769e-14
-1.46511e-10
-7.92731e-08
3.58937e-15
-3.39892e-09
-4.76208e-08
-1.7996e-14
-5.76457e-09
-3.82934e-08
-2.22931e-14
-6.67827e-09
-2.80613e-08
-1.46246e-14
-6.92344e-09
-2.11049e-08
-1.08189e-14
-7.18149e-09
-1.79265e-08
-6.47021e-15
-7.62021e-09
-1.71685e-08
-5.08851e-15
-1.76013e-08
-4.38536e-15
8.16898e-12
-7.55291e-09
-2.60998e-16
1.9449e-10
-2.41988e-08
-1.61502e-15
5.27175e-10
-4.81373e-08
8.52027e-15
-1.06616e-09
-7.07474e-08
-4.12854e-15
-3.48421e-09
-8.94628e-08
-4.90643e-15
-5.93713e-09
-1.0707e-07
-2.11766e-14
-6.28327e-09
-1.14347e-07
1.53258e-14
-5.74416e-11
-8.5499e-08
1.3672e-14
-3.30239e-09
-4.43759e-08
-1.93606e-14
-5.57817e-09
-3.60176e-08
-2.01832e-14
-6.5036e-09
-2.71359e-08
-1.48263e-14
-6.75805e-09
-2.08505e-08
-1.10507e-14
-6.96929e-09
-1.77153e-08
-6.54787e-15
-7.34602e-09
-1.67917e-08
-5.21574e-15
-1.70512e-08
-4.32952e-15
8.79739e-12
-7.5617e-09
7.02543e-16
2.03247e-10
-2.43933e-08
-2.95377e-16
1.84845e-10
-4.81189e-08
4.96796e-15
-1.79668e-09
-6.87659e-08
-7.63376e-15
-4.32909e-09
-8.69304e-08
-3.24588e-15
-6.84602e-09
-1.04553e-07
1.79462e-15
-7.75708e-09
-1.13436e-07
2.65155e-14
-1.68462e-09
-9.15717e-08
-2.9143e-14
-3.62533e-09
-4.24352e-08
-2.47585e-14
-5.52808e-09
-3.41148e-08
-1.66771e-14
-6.3411e-09
-2.63228e-08
-1.51955e-14
-6.55375e-09
-2.06378e-08
-1.01245e-14
-6.69614e-09
-1.75728e-08
-6.14952e-15
-7.00377e-09
-1.64841e-08
-4.88974e-15
-1.65639e-08
-4.37185e-15
9.16947e-12
-7.57089e-09
-1.75374e-15
1.80281e-10
-2.45644e-08
-4.36726e-15
-2.64803e-10
-4.76738e-08
3.67677e-15
-2.50799e-09
-6.65227e-08
2.49202e-15
-5.10976e-09
-8.43285e-08
7.20749e-15
-7.76271e-09
-1.019e-07
-4.55874e-15
-9.59605e-09
-1.11603e-07
-1.58577e-14
-5.33365e-09
-9.5834e-08
-2.52299e-14
-3.92803e-09
-4.38408e-08
-1.99114e-14
-5.33277e-09
-3.27101e-08
-1.05445e-14
-6.01083e-09
-2.56448e-08
-1.18267e-14
-6.19592e-09
-2.04528e-08
-1.04641e-14
-6.2866e-09
-1.74821e-08
-8.96621e-15
-6.54553e-09
-1.62252e-08
-5.67686e-15
-1.61232e-08
-5.66932e-15
8.97829e-12
-7.57985e-09
3.75827e-15
1.201e-10
-2.46755e-08
6.57856e-16
-7.06254e-10
-4.68475e-08
-6.44152e-16
-2.95707e-09
-6.42719e-08
-9.07287e-16
-5.40971e-09
-8.18758e-08
1.10942e-14
-7.9456e-09
-9.9364e-08
-6.09352e-15
-1.01559e-08
-1.09393e-07
-1.61349e-14
-7.88185e-09
-9.81078e-08
1.699e-17
-2.75578e-09
-4.89671e-08
1.87533e-14
-4.39142e-09
-3.10745e-08
4.69144e-15
-5.16983e-09
-2.48663e-08
-1.11127e-14
-5.47985e-09
-2.01428e-08
-9.14891e-15
-5.62526e-09
-1.73367e-08
-8.37527e-15
-5.90391e-09
-1.59465e-08
-4.85072e-15
-1.56812e-08
-5.93378e-15
8.10017e-12
-7.58798e-09
-2.38078e-15
4.79063e-11
-2.47154e-08
-6.8771e-16
-9.73381e-10
-4.58262e-08
2.27407e-15
-2.91906e-09
-6.23262e-08
-4.38721e-15
-4.88138e-09
-7.99135e-08
-9.22004e-15
-6.73484e-09
-9.75104e-08
4.23069e-15
-8.17535e-09
-1.07952e-07
-1.17713e-14
-6.29257e-09
-9.99905e-08
-4.57469e-15
9.72379e-10
-5.62319e-08
4.95444e-14
-2.51566e-09
-2.75866e-08
1.15931e-14
-3.78926e-09
-2.35927e-08
-1.18853e-14
-4.37589e-09
-1.95562e-08
-9.0399e-15
-4.70611e-09
-1.70065e-08
-7.64207e-15
-5.0754e-09
-1.55772e-08
-4.76635e-15
-1.51832e-08
-6.1139e-15
7.22538e-12
-7.59516e-09
6.38169e-15
-5.37957e-12
-2.47028e-08
2.88906e-15
-1.01125e-09
-4.48203e-08
2.22338e-16
-2.48144e-09
-6.08561e-08
-4.01264e-15
-3.78444e-09
-7.86105e-08
-1.61369e-15
-4.6998e-09
-9.6595e-08
5.079e-16
-4.84486e-09
-1.07807e-07
-3.96807e-15
-2.50851e-09
-1.02327e-07
-3.1411e-15
4.93325e-09
-6.36738e-08
1.24941e-14
-2.15316e-10
-2.24381e-08
-1.3447e-15
-2.18122e-09
-2.16268e-08
-9.78497e-15
-3.07007e-09
-1.86674e-08
-8.93214e-15
-3.64201e-09
-1.64345e-08
-8.06389e-15
-4.13251e-09
-1.50867e-08
-5.7448e-15
-1.45992e-08
-5.8872e-15
6.53927e-12
-7.60171e-09
-9.81666e-16
-3.11041e-11
-2.46651e-08
-3.29035e-16
-9.03096e-10
-4.39483e-08
-1.07759e-15
-1.93969e-09
-5.98195e-08
-3.29998e-15
-2.68666e-09
-7.78635e-08
4.77308e-15
-2.91015e-09
-9.63716e-08
-9.59872e-15
-2.12785e-09
-1.08589e-07
-5.91595e-15
1.6838e-10
-1.04623e-07
-1.41469e-14
6.04123e-09
-6.95466e-08
-3.12846e-16
1.80107e-09
-1.81979e-08
-1.58784e-14
-5.86855e-10
-1.92389e-08
-7.90214e-15
-1.74806e-09
-1.75062e-08
-7.47015e-15
-2.53278e-09
-1.56498e-08
-6.5673e-15
-3.15294e-09
-1.44666e-08
-4.94886e-15
-1.39254e-08
-4.26445e-15
6.3748e-12
-7.60807e-09
3.22896e-15
-3.69537e-11
-2.46218e-08
2.86466e-16
-7.55541e-10
-4.32297e-08
-3.66886e-16
-1.48929e-09
-5.90857e-08
-1.7367e-15
-1.87216e-09
-7.74806e-08
4.43421e-15
-1.72872e-09
-9.6515e-08
-4.82166e-15
-5.89624e-10
-1.09728e-07
-8.9673e-16
1.39594e-09
-1.06609e-07
-1.27702e-14
5.70451e-09
-7.38551e-08
-1.80946e-14
3.26315e-09
-1.57565e-08
1.26397e-14
8.66946e-10
-1.68428e-08
-5.4187e-16
-5.03522e-10
-1.61357e-08
-7.1581e-15
-1.44251e-09
-1.47108e-08
-6.60271e-15
-2.19062e-09
-1.37184e-08
-5.21828e-15
-1.31711e-08
-4.2327e-15
6.52587e-12
-7.6146e-09
2.72544e-16
-3.41757e-11
-2.45811e-08
-9.53617e-16
-6.33252e-10
-4.26306e-08
1.48401e-15
-1.17861e-09
-5.85404e-08
-2.49548e-15
-1.34307e-09
-7.73161e-08
4.12937e-15
-1.01504e-09
-9.68431e-08
-3.98016e-15
1.69936e-10
-1.10913e-07
3.58733e-15
1.96615e-09
-1.08405e-07
-1.80002e-14
5.18848e-09
-7.70774e-08
-2.67542e-14
4.13515e-09
-1.47032e-08
1.16967e-14
2.01611e-09
-1.47238e-08
3.46715e-16
5.73879e-10
-1.46934e-08
-6.55687e-15
-4.52264e-10
-1.36847e-08
-6.08257e-15
-1.29683e-09
-1.28739e-08
-4.97368e-15
-1.2355e-08
-4.26224e-15
6.90452e-12
-7.6215e-09
1.85987e-15
-3.21907e-11
-2.4542e-08
-2.80381e-16
-5.62878e-10
-4.20999e-08
4.31837e-16
-9.95641e-10
-5.81076e-08
-1.46404e-16
-1.03569e-09
-7.72761e-08
3.00639e-15
-6.33636e-10
-9.72451e-08
-4.51443e-15
4.66461e-10
-1.12013e-07
3.19544e-15
1.98686e-09
-1.09925e-07
-6.74552e-15
4.37269e-09
-7.94634e-08
-3.15467e-14
4.52388e-09
-1.48544e-08
-3.28198e-15
2.83424e-09
-1.30341e-08
-3.13574e-15
1.45567e-09
-1.33149e-08
-5.62306e-15
4.01937e-10
-1.26309e-08
-4.8358e-15
-4.97088e-10
-1.19749e-08
-3.99585e-15
-1.14975e-08
-4.09673e-15
7.26981e-12
-7.62877e-09
6.88317e-16
-3.90347e-11
-2.44958e-08
-1.79077e-15
-5.43228e-10
-4.15957e-08
4.34459e-15
-8.89091e-10
-5.77618e-08
-1.27847e-15
-8.39555e-10
-7.73256e-08
1.17054e-15
-4.00692e-10
-9.7684e-08
-1.60835e-15
5.79703e-10
-1.12994e-07
7.87275e-15
1.80866e-09
-1.11154e-07
-1.30713e-15
3.55406e-09
-8.12089e-08
-1.7408e-14
4.75373e-09
-1.60541e-08
-1.52996e-15
3.43969e-09
-1.17201e-08
-1.65245e-15
2.18093e-09
-1.20561e-08
-4.51618e-15
1.13374e-09
-1.15838e-08
-4.16738e-15
2.08617e-10
-1.10497e-08
-3.39859e-15
-1.06135e-08
-3.75728e-15
7.4888e-12
-7.63625e-09
1.42847e-15
-5.74852e-11
-2.44308e-08
-1.22317e-15
-5.42886e-10
-4.11103e-08
2.32837e-15
-7.72085e-10
-5.75326e-08
-7.11799e-16
-6.0464e-10
-7.7493e-08
-1.78851e-15
-8.30116e-11
-9.82056e-08
-1.44354e-16
8.61422e-10
-1.13938e-07
5.38827e-15
1.91929e-09
-1.12212e-07
2.06577e-15
3.22203e-09
-8.25117e-08
-9.10892e-15
5.32219e-09
-1.81543e-08
-2.64616e-15
4.02103e-09
-1.0419e-08
1.57917e-15
2.82162e-09
-1.08567e-08
-2.52959e-15
1.7775e-09
-1.05396e-08
-3.39408e-15
8.32281e-10
-1.01045e-08
-2.89656e-15
-9.70924e-09
-3.13182e-15
7.30818e-12
-7.64357e-09
3.28994e-16
-8.33155e-11
-2.43402e-08
-1.82004e-15
-5.16604e-10
-4.0677e-08
1.14738e-15
-5.68317e-10
-5.74809e-08
-2.01513e-16
-2.20058e-10
-7.78412e-08
1.32857e-14
4.77826e-10
-9.89035e-08
-6.73892e-15
1.53953e-09
-1.15e-07
-4.94471e-15
2.65467e-09
-1.13327e-07
4.60182e-15
3.92054e-09
-8.37776e-08
-1.69091e-14
6.79353e-09
-2.10274e-08
-4.47511e-15
4.77612e-09
-8.40155e-09
6.74359e-15
3.44483e-09
-9.52533e-09
-2.13296e-16
2.36413e-09
-9.45894e-09
-1.95318e-15
1.38595e-09
-9.12633e-09
-2.219e-15
-8.78392e-09
-2.54881e-15
6.78804e-12
-7.65035e-09
1.36582e-15
-1.04681e-10
-2.42288e-08
-9.03038e-16
-4.28663e-10
-4.0353e-08
1.97605e-15
-2.5509e-10
-5.76545e-08
-7.90578e-16
3.21249e-10
-7.84174e-08
1.09673e-14
1.27093e-09
-9.98532e-08
-7.4853e-15
2.58629e-09
-1.16315e-07
-1.33916e-14
4.00327e-09
-1.14744e-07
7.53954e-16
5.67839e-09
-8.54529e-08
-3.0157e-14
9.2641e-09
-2.46133e-08
-1.57741e-14
5.80921e-09
-4.94674e-09
-3.76763e-15
4.08023e-09
-7.79632e-09
-9.80406e-16
2.90216e-09
-8.28088e-09
-1.09063e-15
1.87304e-09
-8.0972e-09
-1.56357e-15
-7.83409e-09
-2.16264e-15
6.08171e-12
-7.65643e-09
7.02017e-16
-1.10945e-10
-2.41117e-08
8.98173e-16
-2.81747e-10
-4.01822e-08
-2.2671e-16
1.1005e-10
-5.80463e-08
-2.28719e-16
8.96805e-10
-7.92042e-08
2.20749e-15
2.08224e-09
-1.01039e-07
5.79299e-15
3.64356e-09
-1.17877e-07
2.902e-16
5.39552e-09
-1.16496e-07
2.38379e-15
7.42406e-09
-8.74813e-08
2.07258e-14
1.14595e-08
-2.86486e-08
1.60701e-14
6.93806e-09
-4.25243e-10
8.00562e-15
4.69779e-09
-5.55602e-09
6.59368e-16
3.37342e-09
-6.95651e-09
-3.29448e-16
2.28923e-09
-8.86253e-16
-1.48214e-15
5.56376e-12
-7.66199e-09
4.9981e-16
-9.81522e-11
-2.4008e-08
9.11939e-16
-1.10135e-10
-4.01702e-08
1.12588e-15
4.35644e-10
-5.85921e-08
5.70764e-16
1.351e-09
-8.01195e-08
1.19717e-15
2.65378e-09
-1.02341e-07
1.97936e-15
4.2985e-09
-1.19521e-07
-2.51102e-15
6.13556e-09
-1.18333e-07
-6.46014e-16
7.96031e-09
-8.9306e-08
-5.37843e-15
1.1802e-08
-3.24904e-08
-2.20057e-15
7.71621e-09
3.66061e-09
-3.02005e-15
5.20889e-09
-3.04867e-09
1.28302e-15
-5.49999e-09
2.27839e-16
5.38674e-12
-7.66738e-09
7.34772e-16
-7.06272e-11
-2.3932e-08
1.50177e-15
4.56602e-11
-4.02865e-08
2.87229e-16
6.60963e-10
-5.92074e-08
1.05171e-15
1.60307e-09
-8.10616e-08
1.06198e-15
2.88004e-09
-1.03618e-07
2.93346e-16
4.4297e-09
-1.21071e-07
-8.99998e-15
6.0646e-09
-1.19968e-07
2.18005e-15
7.3297e-09
-9.05711e-08
1.05594e-15
1.03556e-08
-3.55163e-08
5.59743e-15
7.81342e-09
6.20267e-09
-6.74776e-15
5.49395e-09
-7.29166e-10
2.70911e-15
-4.01929e-09
3.86921e-16
5.62483e-12
-7.67301e-09
6.15194e-17
-3.5509e-11
-2.38909e-08
3.89009e-16
1.61889e-10
-4.04839e-08
3.82058e-15
7.76682e-10
-5.98222e-08
3.62932e-15
1.66262e-09
-8.19476e-08
-1.60932e-15
2.81509e-09
-1.04771e-07
2.75331e-15
4.16738e-09
-1.22423e-07
-6.42152e-15
5.47117e-09
-1.21271e-07
-1.89988e-15
6.20218e-09
-9.13021e-08
-2.895e-16
8.22222e-09
-3.75363e-08
9.67113e-17
7.27498e-09
7.1498e-09
2.34911e-15
5.4942e-09
1.05166e-09
4.82347e-15
-2.66454e-09
6.03325e-16
6.21909e-12
-7.67923e-09
8.19574e-16
-1.65337e-13
-2.38845e-08
1.45035e-15
2.3137e-10
-4.07154e-08
-2.20418e-15
8.0071e-10
-6.03915e-08
4.86319e-15
1.58312e-09
-8.273e-08
2.74054e-15
2.56865e-09
-1.05756e-07
-4.83882e-15
3.69691e-09
-1.23552e-07
-6.95427e-16
4.68321e-09
-1.22258e-07
-2.23569e-15
5.02507e-09
-9.1644e-08
-3.46646e-15
6.18623e-09
-3.86974e-08
-7.56505e-16
6.38078e-09
6.9552e-09
4.0534e-17
5.256e-09
2.17647e-09
1.24002e-15
-1.54712e-09
4.0798e-16
6.98561e-12
-7.68622e-09
-2.09106e-16
2.98117e-11
-2.39073e-08
-5.95138e-17
2.59796e-10
-4.09454e-08
2.65955e-15
7.62559e-10
-6.08942e-08
9.4881e-15
1.42551e-09
-8.33929e-08
2.12932e-15
2.24224e-09
-1.06573e-07
-2.67939e-16
3.16735e-09
-1.24476e-07
9.91756e-15
3.91217e-09
-1.23002e-07
1.05349e-14
4.01054e-09
-9.17424e-08
-2.57002e-15
4.54293e-09
-3.92299e-08
-4.63934e-15
5.45585e-09
6.04231e-09
4.81403e-15
4.89322e-09
2.73915e-09
1.6497e-15
-7.02226e-10
6.76103e-16
7.75183e-12
-7.69397e-09
9.30652e-16
5.1115e-11
-2.39507e-08
7.55152e-16
2.5838e-10
-4.11527e-08
2.73563e-15
6.90406e-10
-6.13262e-08
3.87135e-15
1.23805e-09
-8.39406e-08
-8.48526e-15
1.9048e-09
-1.0724e-07
7.53733e-15
2.66596e-09
-1.25238e-07
-5.16511e-14
3.24539e-09
-1.23582e-07
2.00857e-14
3.20321e-09
-9.17003e-08
-8.63794e-15
3.27269e-09
-3.92993e-08
1.04941e-15
4.63409e-09
4.68094e-09
4.3839e-15
4.49322e-09
2.88008e-09
3.34998e-15
-1.23181e-10
9.7487e-16
8.28684e-12
-7.70226e-09
-3.60243e-16
6.2348e-11
-2.40048e-08
-3.48399e-16
2.38745e-10
-4.1329e-08
5.49245e-15
6.05204e-10
-6.16927e-08
6.76518e-15
1.05119e-09
-8.43867e-08
-1.12139e-14
1.59332e-09
-1.07782e-07
1.18005e-14
2.23245e-09
-1.25877e-07
-1.8762e-14
2.70838e-09
-1.24057e-07
4.2497e-14
2.61572e-09
-9.16075e-08
-6.64751e-16
2.36949e-09
-3.90529e-08
2.37888e-14
3.94171e-09
3.10895e-09
2.94643e-14
4.1034e-09
2.71849e-09
9.32384e-15
2.22625e-10
1.85429e-15
8.44923e-12
-7.71071e-09
9.61149e-16
6.39847e-11
-2.40603e-08
9.84754e-16
2.09921e-10
-4.14749e-08
4.61154e-15
5.19392e-10
-6.20021e-08
6.78698e-15
8.79534e-10
-8.47469e-08
-1.63398e-15
1.32107e-09
-1.08223e-07
1.53268e-15
1.87064e-09
-1.26427e-07
-1.06763e-14
2.27723e-09
-1.24464e-07
-9.1245e-15
2.16121e-09
-9.14916e-08
-2.54289e-14
1.55009e-09
-3.8442e-08
-2.41772e-14
3.15961e-09
1.49914e-09
-3.75868e-14
3.65346e-09
2.22461e-09
-7.47993e-15
3.3579e-10
-1.5868e-15
8.03315e-12
-7.71874e-09
-3.70771e-17
5.7855e-11
-2.41101e-08
6.92252e-16
1.78174e-10
-4.15953e-08
3.99694e-15
4.39465e-10
-6.22634e-08
6.31063e-15
7.27777e-10
-8.50353e-08
-5.9493e-15
1.08913e-09
-1.08585e-07
4.6758e-15
1.57413e-09
-1.26912e-07
1.19711e-15
1.94986e-09
-1.2484e-07
-2.23243e-15
1.90469e-09
-9.14465e-08
-1.03321e-16
1.0892e-09
-3.76265e-08
1.75635e-15
2.27491e-09
3.13357e-10
-2.52122e-14
3.04747e-09
1.45208e-09
-3.6181e-15
2.6546e-10
-9.17029e-16
6.94523e-12
-7.72569e-09
8.0753e-16
4.62221e-11
-2.41494e-08
1.93099e-16
1.46658e-10
-4.16957e-08
4.86065e-15
3.66437e-10
-6.24831e-08
6.58434e-15
5.92967e-10
-8.52618e-08
-2.37265e-15
8.87521e-10
-1.08879e-07
8.92379e-18
1.31566e-09
-1.2734e-07
-2.18978e-15
1.65204e-09
-1.25176e-07
-1.20925e-14
1.59302e-09
-9.13874e-08
7.58764e-15
4.97153e-10
-3.65306e-08
3.88789e-15
1.17573e-09
-3.65248e-10
-1.38879e-14
2.11572e-09
5.12115e-10
-7.58497e-16
7.6432e-11
-4.46853e-16
5.13245e-12
-7.73083e-09
-9.60053e-17
3.05533e-11
-2.41748e-08
6.89463e-16
1.15081e-10
-4.17802e-08
3.10994e-15
2.95725e-10
-6.26638e-08
4.72859e-15
4.64091e-10
-8.54302e-08
-3.47366e-15
6.97414e-10
-1.09112e-07
3.71413e-15
1.07964e-09
-1.27722e-07
-3.39881e-15
1.43469e-09
-1.25531e-07
-9.56719e-15
1.5247e-09
-9.14773e-08
2.05225e-15
7.0136e-10
-3.57073e-08
-6.3223e-15
3.36153e-10
1.03675e-14
8.48282e-10
1.95177e-15
-4.32299e-16
3.08507e-12
-7.73391e-09
3.076e-16
1.32774e-11
-2.4185e-08
7.39149e-16
8.49376e-11
-4.18518e-08
3.12469e-15
2.26122e-10
-6.2805e-08
2.85643e-15
3.3267e-10
-8.55368e-08
9.09056e-16
4.8725e-10
-1.09267e-07
-2.54742e-15
7.72371e-10
-1.28007e-07
3.06245e-15
1.01169e-09
-1.25771e-07
-7.77288e-15
8.04714e-10
-9.12704e-08
-3.0825e-15
-3.49025e-08
2.90641e-15
1.4474e-12
-7.73536e-09
1.24282e-16
-1.3456e-12
-2.41822e-08
9.51259e-16
6.39422e-11
-4.19171e-08
2.80632e-15
1.73916e-10
-6.29149e-08
4.31145e-15
2.32965e-10
-8.55958e-08
1.63739e-15
3.30811e-10
-1.09365e-07
-1.60047e-15
5.57523e-10
-1.28234e-07
2.96503e-15
7.40224e-10
-1.25953e-07
-4.88946e-15
4.01341e-10
-9.09315e-08
-1.24659e-15
-3.45012e-08
-4.16145e-15
3.22522e-13
-7.73568e-09
4.38734e-16
-1.14301e-11
-2.41705e-08
7.26714e-16
5.35035e-11
-4.19821e-08
2.51366e-15
1.41069e-10
-6.30025e-08
4.88552e-15
1.67975e-10
-8.56228e-08
1.57449e-15
2.35324e-10
-1.09432e-07
-3.12735e-15
4.48128e-10
-1.28447e-07
-3.3034e-15
6.50877e-10
-1.26156e-07
-1.45303e-15
4.03813e-10
-9.06844e-08
-1.62827e-15
-3.40974e-08
-1.42021e-15
-3.23296e-13
-7.73536e-09
3.33557e-16
-1.64778e-11
-2.41543e-08
6.13238e-16
5.21227e-11
-4.20507e-08
2.41846e-15
1.23269e-10
-6.30736e-08
5.36889e-15
1.2746e-10
-8.56269e-08
2.02955e-15
1.76872e-10
-1.09482e-07
-2.44129e-15
3.84195e-10
-1.28654e-07
-2.88405e-15
6.02594e-10
-1.26374e-07
-1.64937e-15
3.77011e-10
-9.04588e-08
-2.74113e-15
-3.37204e-08
-3.47738e-15
-5.63639e-13
-7.7348e-09
2.92681e-16
-1.6494e-11
-2.41384e-08
1.15289e-15
5.81503e-11
-4.21253e-08
1.34955e-15
1.17135e-10
-6.31326e-08
6.00987e-15
1.05942e-10
-8.56157e-08
2.27002e-15
1.46821e-10
-1.09523e-07
-6.11167e-15
3.56727e-10
-1.28864e-07
-3.70556e-15
5.94929e-10
-1.26613e-07
2.58008e-15
3.84997e-10
-9.02489e-08
-4.89901e-16
-3.33354e-08
2.93096e-15
-5.0155e-13
-7.7343e-09
3.63137e-16
-1.20037e-11
-2.41269e-08
-6.20316e-16
6.93677e-11
-4.22067e-08
1.1574e-15
1.18562e-10
-6.31818e-08
6.27589e-15
9.66365e-11
-8.55938e-08
2.88527e-15
1.33956e-10
-1.0956e-07
-2.15601e-15
3.48778e-10
-1.29079e-07
-5.57157e-16
6.03571e-10
-1.26867e-07
-1.42487e-15
3.97574e-10
-9.00429e-08
-4.61735e-15
-3.29378e-08
5.35514e-17
-1.8398e-13
-7.73411e-09
5.67449e-16
-3.82951e-12
-2.41232e-08
1.60441e-15
8.37079e-11
-4.22942e-08
4.0301e-15
1.24447e-10
-6.32225e-08
6.31723e-15
9.51465e-11
-8.55645e-08
4.58739e-17
1.31994e-10
-1.09597e-07
-2.60572e-15
3.53288e-10
-1.293e-07
-4.66798e-15
6.23986e-10
-1.27138e-07
-1.64588e-15
4.17632e-10
-8.98366e-08
-2.38264e-15
-3.25202e-08
-2.61558e-15
3.25094e-13
-7.73443e-09
7.55247e-16
6.8323e-12
-2.41298e-08
-1.19207e-15
9.92562e-11
-4.23867e-08
3.21916e-15
1.32319e-10
-6.32556e-08
4.71792e-15
9.79674e-11
-8.55301e-08
6.45689e-16
1.35834e-10
-1.09635e-07
-3.42117e-16
3.64404e-10
-1.29529e-07
-3.00431e-15
6.50418e-10
-1.27424e-07
-2.52977e-15
4.40662e-10
-8.96268e-08
-2.3895e-15
-3.20795e-08
-1.81968e-15
9.95364e-13
-7.73543e-09
6.89657e-16
1.85175e-11
-2.41473e-08
7.83668e-16
1.14125e-10
-4.24823e-08
3.07615e-15
1.40049e-10
-6.32815e-08
8.16976e-15
1.02297e-10
-8.54924e-08
-3.99476e-16
1.41915e-10
-1.09674e-07
-9.73648e-16
3.78597e-10
-1.29766e-07
-2.38158e-15
6.80284e-10
-1.27726e-07
-5.19289e-15
4.66207e-10
-8.94128e-08
-4.56168e-15
-3.16133e-08
-2.77929e-16
1.79437e-12
-7.73722e-09
5.88611e-16
2.9509e-11
-2.4175e-08
4.28444e-17
1.26694e-10
-4.25795e-08
2.73733e-15
1.45891e-10
-6.33006e-08
6.55795e-15
1.05814e-10
-8.54523e-08
5.40491e-17
1.47492e-10
-1.09716e-07
-3.08973e-16
3.93278e-10
-1.30011e-07
-1.13885e-15
7.11614e-10
-1.28044e-07
-4.59853e-15
4.93335e-10
-8.91945e-08
-2.40012e-15
-3.112e-08
-1.47817e-15
2.69499e-12
-7.73991e-09
8.09791e-16
3.809e-11
-2.42104e-08
-3.10297e-16
1.35561e-10
-4.2677e-08
2.95446e-15
1.48438e-10
-6.33135e-08
6.77963e-15
1.06788e-10
-8.54107e-08
-1.00371e-15
1.50834e-10
-1.0976e-07
-3.09959e-15
4.0694e-10
-1.30267e-07
-5.05639e-15
7.43532e-10
-1.28381e-07
-1.69431e-15
5.21932e-10
-8.89729e-08
-3.57072e-15
-3.05981e-08
6.5499e-16
3.66641e-12
-7.74358e-09
4.60477e-16
4.2975e-11
-2.42497e-08
3.87189e-16
1.39981e-10
-4.2774e-08
3.22494e-15
1.46816e-10
-6.33203e-08
6.03036e-15
1.04228e-10
-8.53681e-08
-6.79133e-16
1.51267e-10
-1.09807e-07
-1.52297e-15
4.19209e-10
-1.30535e-07
-7.56823e-15
7.76177e-10
-1.28738e-07
1.89203e-15
5.52486e-10
-8.87492e-08
-1.52919e-15
-3.00455e-08
3.61789e-15
4.68687e-12
-7.74826e-09
4.88641e-16
4.34973e-11
-2.42886e-08
-3.75004e-16
1.39703e-10
-4.28702e-08
3.45395e-15
1.40632e-10
-6.33212e-08
5.2802e-15
9.78697e-11
-8.53253e-08
-1.57773e-15
1.48879e-10
-1.09858e-07
-2.90362e-15
4.30645e-10
-1.30817e-07
-4.38838e-15
8.10702e-10
-1.29118e-07
4.59177e-15
5.86669e-10
-8.85252e-08
2.44979e-15
-2.94589e-08
1.09141e-15
5.74102e-12
-7.75401e-09
6.29044e-17
4.0015e-11
-2.43228e-08
5.69424e-16
1.35437e-10
-4.29657e-08
4.72916e-15
1.3055e-10
-6.33163e-08
4.60139e-15
8.87036e-11
-8.52835e-08
-3.5318e-15
1.44986e-10
-1.09914e-07
1.28265e-15
4.42554e-10
-1.31115e-07
-1.32444e-14
8.47928e-10
-1.29523e-07
-8.88555e-15
6.2476e-10
-8.83021e-08
-1.21399e-14
-2.88343e-08
-1.94846e-14
6.83952e-12
-7.76084e-09
5.54649e-16
3.36833e-11
-2.43497e-08
-1.3271e-15
1.28343e-10
-4.30603e-08
4.47111e-15
1.17727e-10
-6.33057e-08
2.51971e-15
7.82339e-11
-8.5244e-08
3.56219e-16
1.41391e-10
-1.09978e-07
-1.6971e-14
4.56529e-10
-1.3143e-07
1.60855e-14
8.88779e-10
-1.29955e-07
6.94289e-15
6.6644e-10
-8.80796e-08
1.19769e-14
-2.81677e-08
2.11392e-14
7.98632e-12
-7.76883e-09
1.17002e-16
2.64995e-11
-2.43682e-08
-4.6827e-16
1.20232e-10
-4.31541e-08
6.07821e-15
1.03916e-10
-6.32894e-08
1.70161e-15
6.77973e-11
-8.52079e-08
-7.99857e-16
1.39711e-10
-1.1005e-07
-1.02654e-14
4.74201e-10
-1.31764e-07
8.61498e-15
9.35792e-10
-1.30417e-07
-1.31105e-14
7.14347e-10
-8.78582e-08
-4.83503e-15
-2.74533e-08
-3.06355e-15
9.21184e-12
-7.77804e-09
9.34968e-17
2.0755e-11
-2.43797e-08
-6.35002e-16
1.12983e-10
-4.32463e-08
4.59493e-15
9.12648e-11
-6.32676e-08
8.55726e-16
6.03815e-11
-8.5177e-08
3.17978e-16
1.43712e-10
-1.10133e-07
-1.17189e-14
4.99568e-10
-1.3212e-07
1.16582e-14
9.9193e-10
-1.30909e-07
-1.3622e-14
7.70345e-10
-8.76366e-08
-1.89971e-15
-2.6683e-08
-3.15909e-15
1.05436e-11
-7.78859e-09
-4.03315e-16
1.88467e-11
-2.4388e-08
8.06133e-17
1.08598e-10
-4.3336e-08
5.80733e-15
8.20243e-11
-6.32411e-08
2.16848e-15
5.84938e-11
-8.51535e-08
-3.78503e-15
1.56149e-10
-1.10231e-07
-1.7667e-14
5.35377e-10
-1.32499e-07
7.66363e-15
1.05934e-09
-1.31433e-07
-8.28056e-15
8.35237e-10
-8.74125e-08
-6.81592e-16
-2.58478e-08
-4.39478e-15
1.203e-11
-7.80062e-09
-9.92769e-17
2.27207e-11
-2.43987e-08
-5.94574e-16
1.08615e-10
-4.34219e-08
5.6856e-15
7.8321e-11
-6.32108e-08
-3.39003e-15
6.45166e-11
-8.51396e-08
6.11397e-15
1.79689e-10
-1.10346e-07
3.36704e-15
5.84472e-10
-1.32904e-07
-6.43342e-15
1.14054e-09
-1.31989e-07
-1.28673e-15
9.10565e-10
-8.71826e-08
-5.78972e-15
-2.49372e-08
2.94673e-15
1.36988e-11
-7.81432e-09
-6.65445e-16
3.36348e-11
-2.44187e-08
5.80985e-16
1.13687e-10
-4.3502e-08
6.3696e-15
8.12788e-11
-6.31784e-08
-1.753e-15
8.02071e-11
-8.51385e-08
1.26104e-15
2.17084e-10
-1.10483e-07
-3.36068e-15
6.5024e-10
-1.33337e-07
-9.50367e-15
1.23814e-09
-1.32577e-07
1.52702e-15
9.97822e-10
-8.69423e-08
-2.8302e-15
-2.39394e-08
-1.00782e-16
1.55821e-11
-7.8299e-09
-8.13159e-16
5.17559e-11
-2.44548e-08
1.00298e-15
1.23841e-10
-4.35741e-08
5.41098e-15
9.1848e-11
-6.31464e-08
-3.02589e-15
1.06848e-10
-8.51535e-08
3.23808e-15
2.69568e-10
-1.10645e-07
-1.83867e-15
7.33932e-10
-1.33802e-07
-7.8838e-15
1.35356e-09
-1.33197e-07
2.62519e-16
1.09768e-09
-8.66864e-08
-2.43104e-15
-2.28417e-08
2.17895e-15
1.76913e-11
-7.8476e-09
-1.41255e-15
7.61654e-11
-2.45133e-08
1.71994e-15
1.38171e-10
-4.36361e-08
5.36586e-15
1.1001e-10
-6.31183e-08
-2.52188e-15
1.45222e-10
-8.51886e-08
4.03061e-15
3.38509e-10
-1.10839e-07
-1.53429e-15
8.36949e-10
-1.343e-07
-6.42548e-15
1.48805e-09
-1.33848e-07
-1.55989e-15
1.21089e-09
-8.64092e-08
-4.50824e-15
-2.16308e-08
5.34728e-15
2.00174e-11
-7.86762e-09
-7.72268e-16
1.04444e-10
-2.45977e-08
1.99424e-15
1.54419e-10
-4.3686e-08
5.5755e-15
1.34528e-10
-6.30984e-08
-2.81236e-15
1.94409e-10
-8.52485e-08
1.30246e-15
4.22886e-10
-1.11067e-07
-2.81861e-15
9.58758e-10
-1.34836e-07
-5.93579e-15
1.64154e-09
-1.34531e-07
-2.83948e-15
1.3376e-09
-8.61053e-08
-6.61804e-15
-2.02932e-08
1.09046e-14
2.2492e-11
-7.89011e-09
-1.23423e-15
1.33255e-10
-2.47085e-08
1.82303e-15
1.70156e-10
-4.37229e-08
4.64501e-15
1.63909e-10
-6.30922e-08
-5.47839e-15
2.52884e-10
-8.53374e-08
3.74043e-15
5.20811e-10
-1.11335e-07
-7.78148e-16
1.09773e-09
-1.35413e-07
-4.81362e-15
1.81318e-09
-1.35246e-07
-1.37482e-15
1.47787e-09
-8.577e-08
-5.37164e-15
-1.88153e-08
1.25943e-14
2.49882e-11
-7.9151e-09
-1.59525e-15
1.58391e-10
-2.48419e-08
1.73855e-15
1.82014e-10
-4.37465e-08
4.21804e-15
1.94934e-10
-6.31051e-08
3.94646e-17
3.16998e-10
-8.54595e-08
6.63896e-16
6.28202e-10
-1.11646e-07
-2.38851e-15
1.25023e-09
-1.36035e-07
-4.1231e-15
2.00079e-09
-1.35997e-07
-5.37191e-16
1.63152e-09
-8.54008e-08
-1.57038e-15
-1.71838e-08
-1.27649e-15
2.72884e-11
-7.94239e-09
-2.21633e-15
1.75723e-10
-2.49903e-08
1.70251e-15
1.87298e-10
-4.37581e-08
3.76797e-15
2.24618e-10
-6.31425e-08
-3.43523e-15
3.82728e-10
-8.56176e-08
2.06048e-15
7.39669e-10
-1.12003e-07
-9.03443e-16
1.41068e-09
-1.36706e-07
-2.78868e-15
2.20093e-09
-1.36787e-07
-2.13819e-15
1.79855e-09
-8.49984e-08
-3.51022e-15
-1.53853e-08
-1.15558e-14
2.90665e-11
-7.97146e-09
-2.54675e-15
1.81573e-10
-2.51428e-08
1.04499e-15
1.83006e-10
-4.37595e-08
3.6693e-15
2.47819e-10
-6.32073e-08
-2.57968e-15
4.42512e-10
-8.58123e-08
1.45126e-16
8.46077e-10
-1.12407e-07
-1.23715e-15
1.56965e-09
-1.37429e-07
-6.37056e-16
2.4076e-09
-1.37625e-07
-6.5086e-15
1.97899e-09
-8.45698e-08
-6.16678e-15
-1.34063e-08
-1.15088e-14
2.98257e-11
-8.00129e-09
-3.35857e-15
1.73261e-10
-2.52862e-08
6.26066e-16