/*--------------------------------*- C++ -*----------------------------------*\
| =========                 |                                                 |
| \\      /  F ield         | OpenFOAM: The Open Source CFD Toolbox           |
|  \\    /   O peration     | Version:  v2012                                 |
|   \\  /    A nd           | Website:  www.openfoam.com                      |
|    \\/     M anipulation  |                                                 |
\*---------------------------------------------------------------------------*/
FoamFile
{
    version     2.0;
    format      ascii;
    class       surfaceScalarField;
    location    "1";
    object      phi;
}
// * * * * * * * * * * * * * * * * * * * * * * * * * * * * * * * * * * * * * //

dimensions      [0 3 -1 0 0 0 0];
oriented        oriented;


internalField   nonuniform List<scalar> 
8145
(
3.77566e-10
-1.74638e-09
1.12928e-15
3.15417e-10
-1.66394e-09
3.02482e-16
2.54916e-10
-1.57182e-09
-6.90852e-16
1.96932e-10
-1.46706e-09
-3.07717e-16
1.42542e-10
-1.34659e-09
-4.52115e-16
9.31099e-11
-1.20894e-09
-1.5317e-16
5.04225e-11
-1.05486e-09
-5.00536e-16
1.72046e-11
-8.72744e-10
-3.78709e-16
-5.2582e-10
-4.01738e-16
5.69567e-10
-1.88842e-09
-2.06998e-16
5.05524e-10
-1.82478e-09
2.11778e-15
4.4143e-10
-1.75689e-09
2.97375e-15
3.77836e-10
-1.68277e-09
1.53765e-15
3.15364e-10
-1.60147e-09
-5.00815e-17
2.54704e-10
-1.51118e-09
-2.94496e-16
1.96699e-10
-1.40906e-09
-4.89447e-16
1.42381e-10
-1.29228e-09
-1.65246e-16
9.30708e-11
-1.15963e-09
-2.86756e-16
5.04903e-11
-1.01229e-09
-2.96525e-16
1.72933e-11
-8.39556e-10
-4.71543e-16
-5.08534e-10
-3.63634e-16
3.33567e-10
-9.61041e-10
1.28242e-15
3.87511e-10
-1.07303e-09
9.97377e-15
4.45023e-10
-1.18783e-09
2.5972e-14
5.05355e-10
-1.30427e-09
1.69592e-14
5.67941e-10
-1.42108e-09
1.30494e-14
6.32021e-10
-1.53691e-09
1.1946e-14
6.96759e-10
-1.65049e-09
9.91564e-15
7.61196e-10
-1.76018e-09
7.29041e-15
8.2439e-10
-1.86483e-09
4.27531e-15
8.8534e-10
-1.96294e-09
5.04191e-15
9.43075e-10
-2.05342e-09
3.18637e-15
9.96628e-10
-2.13521e-09
4.56202e-15
1.04514e-09
-2.20722e-09
3.01074e-15
1.08779e-09
-2.26915e-09
5.47779e-15
1.12392e-09
-2.32014e-09
3.04562e-15
1.15294e-09
-2.3602e-09
3.69703e-15
1.17447e-09
-2.38933e-09
8.8258e-16
1.18825e-09
-2.40769e-09
3.01952e-15
1.19418e-09
-2.41574e-09
9.9112e-16
1.19227e-09
-2.41409e-09
2.93624e-15
1.18271e-09
-2.40356e-09
1.22266e-15
1.16575e-09
-2.38492e-09
3.70348e-15
1.14181e-09
-2.3592e-09
1.99104e-15
1.11131e-09
-2.32729e-09
3.10778e-15
1.07481e-09
-2.28966e-09
6.59694e-16
1.03281e-09
-2.24848e-09
1.04665e-15
9.8596e-10
-2.20307e-09
-8.09125e-16
9.34829e-10
-2.15535e-09
1.1011e-15
8.80043e-10
-2.10493e-09
3.6936e-16
8.22192e-10
-2.0522e-09
1.74753e-15
7.61817e-10
-1.99865e-09
8.37986e-16
6.99511e-10
-1.94243e-09
1.90019e-15
6.3579e-10
-1.88455e-09
5.50041e-16
5.71194e-10
-1.82383e-09
8.6277e-16
5.06278e-10
-1.75985e-09
1.65227e-15
4.41543e-10
-1.69213e-09
3.21303e-15
3.77529e-10
-1.61876e-09
9.85827e-16
3.14827e-10
-1.53878e-09
2.80553e-16
2.54104e-10
-1.45047e-09
-5.53317e-16
1.96164e-10
-1.35114e-09
-1.76063e-16
1.42005e-10
-1.23813e-09
-3.15951e-16
9.28935e-11
-1.11053e-09
-5.85176e-17
5.04884e-11
-9.69892e-10
-3.79976e-16
1.73599e-11
-8.06437e-10
-2.90821e-16
-4.91181e-10
-4.05954e-16
3.63365e-10
-1.01495e-09
1.14841e-14
4.21246e-10
-1.13095e-09
-1.26476e-15
4.82749e-10
-1.24923e-09
1.49427e-14
5.46959e-10
-1.36855e-09
-3.49962e-15
6.13259e-10
-1.48745e-09
-3.63838e-15
6.80786e-10
-1.6045e-09
-3.50738e-15
7.48605e-10
-1.71834e-09
1.70924e-15
8.15664e-10
-1.82727e-09
-9.83843e-16
8.80944e-10
-1.93013e-09
2.65823e-15
9.43379e-10
-2.02539e-09
1.00439e-15
1.00195e-09
-2.112e-09
5.04635e-15
1.05568e-09
-2.18894e-09
2.64298e-15
1.10369e-09
-2.25521e-09
6.54083e-15
1.1452e-09
-2.31064e-09
4.03044e-15
1.17956e-09
-2.35448e-09
6.74539e-15
1.20625e-09
-2.38689e-09
2.18122e-15
1.22496e-09
-2.40805e-09
4.3971e-15
1.23551e-09
-2.41824e-09
1.14252e-15
1.23789e-09
-2.41812e-09
3.94531e-15
1.23222e-09
-2.40842e-09
9.15826e-16
1.21875e-09
-2.39009e-09
3.75871e-15
1.19786e-09
-2.36403e-09
1.56976e-15
1.17001e-09
-2.33134e-09
3.97818e-15
1.13571e-09
-2.293e-09
1.13317e-15
1.09558e-09
-2.24953e-09
2.50257e-15
1.05019e-09
-2.2031e-09
-2.69216e-16
1.0002e-09
-2.15309e-09
1.19338e-15
9.46221e-10
-2.10138e-09
4.48048e-17
8.88887e-10
-2.0476e-09
1.86815e-15
8.28808e-10
-1.99212e-09
8.17864e-16
7.66512e-10
-1.93636e-09
2.04577e-15
7.02598e-10
-1.87851e-09
1.12387e-15
6.37558e-10
-1.81952e-09
1.44815e-15
5.7193e-10
-1.75821e-09
3.70819e-16
5.06237e-10
-1.69415e-09
2.18912e-15
4.40965e-10
-1.62684e-09
2.34029e-15
3.76629e-10
-1.55442e-09
1.24789e-15
3.13799e-10
-1.47596e-09
-1.60748e-16
2.53106e-10
-1.38979e-09
-2.37319e-16
1.95326e-10
-1.29337e-09
-4.17188e-16
1.41411e-10
-1.18423e-09
-7.14124e-17
9.25777e-11
-1.0617e-09
-2.18684e-16
5.0414e-11
-9.27736e-10
-2.00068e-16
1.74058e-11
-7.73437e-10
-4.02699e-16
-4.73782e-10
-3.47376e-16
3.96229e-10
-1.07319e-09
-5.84025e-15
4.58387e-10
-1.19319e-09
-6.47223e-15
5.24135e-10
-1.31486e-09
1.56032e-14
5.92503e-10
-1.43684e-09
1.31604e-14
6.62712e-10
-1.55756e-09
1.39173e-14
7.33783e-10
-1.67547e-09
1.52433e-14
8.04697e-10
-1.78914e-09
1.47694e-14
8.74308e-10
-1.8968e-09
1.34234e-14
9.41527e-10
-1.99727e-09
1.0494e-14
1.00522e-09
-2.08903e-09
1.07687e-14
1.06435e-09
-2.17107e-09
8.15544e-15
1.11789e-09
-2.24245e-09
9.50895e-15
1.16501e-09
-2.30228e-09
7.10601e-15
1.20492e-09
-2.35052e-09
9.16742e-15
1.23705e-09
-2.38657e-09
5.7336e-15
1.26095e-09
-2.41078e-09
6.33819e-15
1.27639e-09
-2.42348e-09
2.65016e-15
1.28328e-09
-2.42513e-09
4.53637e-15
1.28171e-09
-2.41655e-09
1.76879e-15
1.27191e-09
-2.39861e-09
3.79706e-15
1.25423e-09
-2.37241e-09
1.54915e-15
1.22912e-09
-2.33893e-09
3.96709e-15
1.19716e-09
-2.29937e-09
1.80736e-15
1.1589e-09
-2.25476e-09
3.16621e-15
1.11504e-09
-2.20567e-09
6.86476e-16
1.06618e-09
-2.15426e-09
1.70744e-15
1.01303e-09
-2.09995e-09
-5.07897e-17
9.56211e-10
-2.04457e-09
1.72776e-15
8.96373e-10
-1.98776e-09
7.65058e-16
8.3412e-10
-1.92986e-09
2.14045e-15
7.69988e-10
-1.87223e-09
1.18613e-15
7.04551e-10
-1.81306e-09
2.12889e-15
6.38299e-10
-1.75327e-09
7.40876e-16
5.71739e-10
-1.69166e-09
1.14328e-15
5.05381e-10
-1.62778e-09
1.45873e-15
4.39676e-10
-1.56112e-09
2.48637e-15
3.75127e-10
-1.48987e-09
6.00263e-16
3.12269e-10
-1.41311e-09
1.29956e-16
2.51708e-10
-1.32925e-09
-5.49976e-16
1.94179e-10
-1.23585e-09
-1.36629e-16
1.40597e-10
-1.13065e-09
-2.57717e-16
9.21203e-11
-1.01323e-09
-1.17552e-17
5.02679e-11
-8.85891e-10
-3.15884e-16
1.74289e-11
-7.40606e-10
-2.51714e-16
-4.5636e-10
-3.98074e-16
4.32739e-10
-1.13601e-09
-3.6684e-15
4.99485e-10
-1.26006e-09
-1.28444e-14
5.69734e-10
-1.38508e-09
6.8527e-15
6.42438e-10
-1.50955e-09
1.70065e-15
7.16678e-10
-1.63179e-09
5.37652e-15
7.91355e-10
-1.75014e-09
3.52476e-15
8.65337e-10
-1.86311e-09
8.11742e-15
9.37394e-10
-1.96885e-09
4.21385e-15
1.00635e-09
-2.06621e-09
7.8688e-15
1.07103e-09
-2.15369e-09
4.39543e-15
1.13035e-09
-2.23036e-09
8.51509e-15
1.1833e-09
-2.29538e-09
5.34974e-15
1.22904e-09
-2.34799e-09
9.57204e-15
1.26688e-09
-2.38831e-09
6.10349e-15
1.29627e-09
-2.41593e-09
8.9531e-15
1.31687e-09
-2.43137e-09
3.7576e-15
1.32854e-09
-2.43514e-09
6.02101e-15
1.33131e-09
-2.4279e-09
1.99864e-15
1.32538e-09
-2.41062e-09
4.78255e-15
1.31108e-09
-2.38431e-09
1.33887e-15
1.28887e-09
-2.35021e-09
4.2114e-15
1.25931e-09
-2.30938e-09
1.6253e-15
1.22303e-09
-2.26308e-09
4.03578e-15
1.18069e-09
-2.21242e-09
1.09999e-15
1.133e-09
-2.15798e-09
2.69238e-15
1.08063e-09
-2.10191e-09
1.62366e-16
1.02431e-09
-2.04363e-09
1.84626e-15
9.64686e-10
-1.98495e-09
4.77896e-16
9.02394e-10
-1.92547e-09
2.23789e-15
8.38054e-10
-1.86552e-09
1.10314e-15
7.72173e-10
-1.80635e-09
2.36358e-15
7.05326e-10
-1.74621e-09
1.30196e-15
6.37969e-10
-1.68591e-09
1.60568e-15
5.70598e-10
-1.62429e-09
5.22502e-16
5.03685e-10
-1.56086e-09
1.91848e-15
4.37666e-10
-1.49509e-09
1.59826e-15
3.73012e-10
-1.42522e-09
8.39301e-16
3.10235e-10
-1.35035e-09
-3.21132e-16
2.49904e-10
-1.26893e-09
-2.38773e-16
1.92723e-10
-1.17868e-09
-3.81392e-16
1.3956e-10
-1.0775e-09
-1.57521e-17
9.15224e-11
-9.65201e-10
-1.72031e-16
5.00477e-11
-8.44424e-10
-1.4152e-16
1.74305e-11
-7.07997e-10
-3.70447e-16
-4.38936e-10
-3.4061e-16
4.73218e-10
-1.2038e-09
-2.0077e-15
5.44912e-10
-1.33191e-09
-1.44188e-14
6.19948e-10
-1.46013e-09
-3.93343e-16
6.97206e-10
-1.58683e-09
2.79299e-15
7.75611e-10
-1.71017e-09
5.78848e-15
8.53925e-10
-1.82842e-09
8.31268e-15
9.30911e-10
-1.94004e-09
8.49187e-15
1.00524e-09
-2.04315e-09
9.07305e-15
1.07567e-09
-2.1366e-09
7.14116e-15
1.14097e-09
-2.21897e-09
8.50473e-15
1.20005e-09
-2.2894e-09
6.43636e-15
1.25191e-09
-2.34722e-09
9.11949e-15
1.29576e-09
-2.39179e-09
6.96581e-15
1.33095e-09
-2.42346e-09
9.60466e-15
1.35704e-09
-2.44198e-09
6.03503e-15
1.37378e-09
-2.4481e-09
7.16313e-15
1.38117e-09
-2.44252e-09
3.17252e-15
1.37934e-09
-2.42607e-09
5.11397e-15
1.36863e-09
-2.3999e-09
1.96458e-15
1.34946e-09
-2.36515e-09
4.14775e-15
1.32243e-09
-2.32317e-09
1.61851e-15
1.28816e-09
-2.27512e-09
4.05371e-15
1.24739e-09
-2.22231e-09
1.67856e-15
1.20083e-09
-2.16587e-09
3.23073e-15
1.14926e-09
-2.10641e-09
7.96406e-16
1.09337e-09
-2.04603e-09
2.16348e-15
1.03391e-09
-1.98418e-09
4.45367e-16
9.71518e-10
-1.92257e-09
2.14382e-15
9.0686e-10
-1.86081e-09
1.03851e-15
8.40523e-10
-1.79917e-09
2.40034e-15
7.73013e-10
-1.73884e-09
1.40725e-15
7.04869e-10
-1.67806e-09
2.28502e-15
6.36538e-10
-1.61758e-09
8.6355e-16
5.68476e-10
-1.55623e-09
1.29357e-15
5.01139e-10
-1.49351e-09
1.18118e-15
4.34922e-10
-1.42887e-09
1.79551e-15
3.70281e-10
-1.36058e-09
1.96332e-16
3.07691e-10
-1.28777e-09
-1.9668e-17
2.47696e-10
-1.20895e-09
-5.46282e-16
1.90957e-10
-1.12195e-09
-9.16211e-17
1.38304e-10
-1.02485e-09
-1.9695e-16
9.07821e-11
-9.17685e-10
4.24333e-17
4.9755e-11
-8.03403e-10
-2.53063e-16
1.74085e-11
-6.75657e-10
-2.14883e-16
-4.21534e-10
-3.87232e-16
5.18278e-10
-1.27696e-09
-1.03999e-15
5.9526e-10
-1.40906e-09
-1.73578e-14
6.75367e-10
-1.5403e-09
-3.15294e-15
7.57361e-10
-1.66887e-09
-2.49266e-15
8.40007e-10
-1.79283e-09
3.71618e-15
9.21932e-10
-1.91036e-09
1.1816e-15
1.00178e-09
-2.01989e-09
6.23501e-15
1.07814e-09
-2.11951e-09
1.87908e-15
1.1497e-09
-2.20816e-09
6.33584e-15
1.21519e-09
-2.28446e-09
2.15068e-15
1.27351e-09
-2.34772e-09
7.14075e-15
1.32372e-09
-2.39741e-09
3.86923e-15
1.36506e-09
-2.4331e-09
8.98604e-15
1.39698e-09
-2.45535e-09
5.17703e-15
1.41915e-09
-2.46413e-09
8.75115e-15
1.43145e-09
-2.4604e-09
3.46627e-15
1.43399e-09
-2.44506e-09
6.23233e-15
1.42707e-09
-2.41915e-09
1.81045e-15
1.41113e-09
-2.38395e-09
4.84706e-15
1.38674e-09
-2.34076e-09
1.18691e-15
1.35458e-09
-2.29101e-09
4.24057e-15
1.3154e-09
-2.23594e-09
1.39996e-15
1.26999e-09
-2.17689e-09
3.93885e-15
1.21912e-09
-2.11501e-09
1.00055e-15
1.16363e-09
-2.05091e-09
2.85664e-15
1.10422e-09
-1.98664e-09
4.74156e-16
1.04166e-09
-1.92162e-09
2.30375e-15
9.76597e-10
-1.85751e-09
7.76353e-16
9.09668e-10
-1.79389e-09
2.48837e-15
8.41461e-10
-1.73096e-09
1.27216e-15
7.72445e-10
-1.66982e-09
2.53172e-15
7.03146e-10
-1.60875e-09
1.38213e-15
6.33971e-10
-1.54841e-09
1.72804e-15
5.6536e-10
-1.48762e-09
6.60444e-16
4.97724e-10
-1.42587e-09
1.684e-15
4.3144e-10
-1.36259e-09
9.84507e-16
3.66928e-10
-1.29608e-09
4.62902e-16
3.04641e-10
-1.2255e-09
-4.58545e-16
2.45083e-10
-1.14941e-09
-2.2625e-16
1.88885e-10
-1.06576e-09
-3.27378e-16
1.36827e-10
-9.72801e-10
5.1152e-17
8.99018e-11
-8.70764e-10
-1.09476e-16
4.93881e-11
-7.62895e-10
-7.31064e-17
1.73646e-11
-6.43641e-10
-3.24711e-16
-4.04176e-10
-3.20247e-16
5.68327e-10
-1.35597e-09
-4.9168e-15
6.51002e-10
-1.49191e-09
-1.55381e-14
7.36495e-10
-1.62583e-09
-2.13152e-15
8.2341e-10
-1.75578e-09
4.9513e-15
9.10355e-10
-1.87973e-09
6.28677e-15
9.95816e-10
-1.99581e-09
6.88122e-15
1.07833e-09
-2.10238e-09
5.37288e-15
1.15639e-09
-2.19757e-09
5.89809e-15
1.22864e-09
-2.2804e-09
3.48584e-15
1.29378e-09
-2.34961e-09
5.49909e-15
1.35075e-09
-2.40468e-09
3.35247e-15
1.39863e-09
-2.44529e-09
7.06517e-15
1.43678e-09
-2.47122e-09
4.911e-15
1.46473e-09
-2.48329e-09
8.28101e-15
1.48231e-09
-2.48168e-09
4.74468e-15
1.48953e-09
-2.46761e-09
6.65561e-15
1.48666e-09
-2.44219e-09
2.61968e-15
1.47413e-09
-2.40662e-09
4.84415e-15
1.45253e-09
-2.36235e-09
1.52466e-15
1.42256e-09
-2.3108e-09
3.96678e-15
1.38502e-09
-2.25347e-09
1.30347e-15
1.34072e-09
-2.19165e-09
3.8277e-15
1.29055e-09
-2.12672e-09
1.37442e-15
1.23532e-09
-2.05979e-09
3.15137e-15
1.1759e-09
-1.99149e-09
8.21019e-16
1.11301e-09
-1.92376e-09
2.43546e-15
1.04744e-09
-1.85604e-09
7.43112e-16
9.79801e-10
-1.78988e-09
2.39283e-15
9.10736e-10
-1.72482e-09
1.19119e-15
8.40792e-10
-1.66101e-09
2.52365e-15
7.70424e-10
-1.59945e-09
1.48561e-15
7.00115e-10
-1.53843e-09
2.31725e-15
6.30251e-10
-1.47854e-09
9.5093e-16
5.6123e-10
-1.41861e-09
1.42454e-15
4.93439e-10
-1.35807e-09
9.82901e-16
4.27214e-10
-1.29636e-09
1.26974e-15
3.62958e-10
-1.23183e-09
-1.4412e-16
3.01083e-10
-1.16364e-09
-1.4495e-16
2.4207e-10
-1.09041e-09
-5.28529e-16
1.86506e-10
-1.01021e-09
-3.4896e-17
1.35133e-10
-9.21433e-10
-1.27114e-16
8.8881e-11
-8.24517e-10
1.05601e-16
4.89491e-11
-7.22968e-10
-1.83142e-16
1.7297e-11
-6.11995e-10
-1.68339e-16
-3.86885e-10
-3.63948e-16
6.2427e-10
-1.44113e-09
1.28143e-14
7.12968e-10
-1.58068e-09
-6.1887e-15
8.04089e-10
-1.71692e-09
7.756e-15
8.96007e-10
-1.84774e-09
-1.00488e-15
9.87219e-10
-1.97097e-09
3.88645e-15
1.07606e-09
-2.08467e-09
-1.45954e-16
1.16094e-09
-2.18727e-09
5.7058e-15
1.24028e-09
-2.27693e-09
3.61369e-16
1.31267e-09
-2.3528e-09
5.38173e-15
1.37682e-09
-2.41378e-09
3.65823e-16
1.43171e-09
-2.45958e-09
5.89971e-15
1.47652e-09
-2.49009e-09
2.09062e-15
1.51068e-09
-2.50538e-09
7.76685e-15
1.53392e-09
-2.5065e-09
3.55875e-15
1.54618e-09
-2.49393e-09
7.8032e-15
1.54765e-09
-2.46909e-09
2.50308e-15
1.53877e-09
-2.43331e-09
5.81045e-15
1.52012e-09
-2.38798e-09
1.15096e-15
1.49244e-09
-2.33468e-09
4.48505e-15
1.45657e-09
-2.27493e-09
7.05784e-16
1.41339e-09
-2.2103e-09
3.95626e-15
1.36382e-09
-2.14209e-09
9.63281e-16
1.30879e-09
-2.07169e-09
3.65743e-15
1.24918e-09
-2.00019e-09
7.77609e-16
1.18586e-09
-1.92817e-09
2.8649e-15
1.11959e-09
-1.8575e-09
5.90854e-16
1.0511e-09
-1.78756e-09
2.51912e-15
9.81031e-10
-1.71982e-09
9.07792e-16
9.09973e-10
-1.65376e-09
2.5886e-15
8.38461e-10
-1.58949e-09
1.31515e-15
7.669e-10
-1.52789e-09
2.5516e-15
6.95751e-10
-1.46728e-09
1.35041e-15
6.25354e-10
-1.40815e-09
1.7891e-15
5.56081e-10
-1.34933e-09
7.60509e-16
4.88276e-10
-1.29026e-09
1.51701e-15
4.22251e-10
-1.23034e-09
5.43615e-16
3.5837e-10
-1.16796e-09
1.57723e-16
2.97026e-10
-1.10231e-09
-5.71737e-16
2.3866e-10
-1.03206e-09
-2.10638e-16
1.83827e-10
-9.55381e-10
-2.6945e-16
1.33223e-10
-8.70835e-10
1.16275e-16
8.77235e-11
-7.7902e-10
-4.70224e-17
4.8437e-11
-6.83686e-10
-9.24072e-18
1.72074e-11
-5.80771e-10
-2.78996e-16
-3.69683e-10
-2.97782e-16
6.86487e-10
-1.5331e-09
4.76415e-15
7.81622e-10
-1.67592e-09
-6.049e-15
8.78634e-10
-1.8139e-09
7.30451e-15
9.75699e-10
-1.94479e-09
8.10959e-15
1.07113e-09
-2.06636e-09
6.79456e-15
1.16311e-09
-2.17666e-09
5.83611e-15
1.24996e-09
-2.27411e-09
3.40002e-15
1.33002e-09
-2.35702e-09
4.16084e-15
1.40189e-09
-2.42468e-09
1.26028e-15
1.4643e-09
-2.47621e-09
4.01083e-15
1.51629e-09
-2.51158e-09
1.41077e-15
1.55715e-09
-2.53097e-09
5.75539e-15
1.58649e-09
-2.5347e-09
3.18356e-15
1.60416e-09
-2.52417e-09
7.09504e-15
1.61033e-09
-2.50008e-09
3.4281e-15
1.60535e-09
-2.46412e-09
5.99911e-15
1.58986e-09
-2.41781e-09
1.89787e-15
1.56458e-09
-2.36272e-09
4.39625e-15
1.53043e-09
-2.30053e-09
9.49095e-16
1.48834e-09
-2.23285e-09
3.60018e-15
1.43932e-09
-2.16128e-09
8.46195e-16
1.38435e-09
-2.08714e-09
3.44494e-15
1.32444e-09
-2.01178e-09
9.73407e-16
1.26046e-09
-1.93623e-09
2.93583e-15
1.19333e-09
-1.86104e-09
7.12799e-16
1.12377e-09
-1.78794e-09
2.48353e-15
1.05252e-09
-1.71631e-09
8.24646e-16
9.80178e-10
-1.64748e-09
2.45538e-15
9.07314e-10
-1.58089e-09
1.21213e-15
8.34409e-10
-1.51658e-09
2.5134e-15
7.61844e-10
-1.45533e-09
1.44383e-15
6.90028e-10
-1.39545e-09
2.24151e-15
6.19273e-10
-1.33739e-09
9.79926e-16
5.49906e-10
-1.27997e-09
1.49054e-15
4.8224e-10
-1.22259e-09
8.40086e-16
4.1655e-10
-1.16466e-09
8.97694e-16
3.53177e-10
-1.1046e-09
-4.10177e-16
2.92476e-10
-1.04162e-09
-2.53953e-16
2.34863e-10
-9.74457e-10
-5.1297e-16
1.80854e-10
-9.01381e-10
1.4713e-17
1.31106e-10
-8.21091e-10
-6.53613e-17
8.643e-11
-7.34348e-10
1.58591e-16
4.78545e-11
-6.45114e-10
-1.25554e-16
1.70941e-11
-5.50017e-10
-1.31885e-16
-3.52595e-10
-3.45191e-16
7.56248e-10
-1.63225e-09
6.50102e-15
8.58106e-10
-1.77787e-09
-7.83669e-15
9.61131e-10
-1.91691e-09
7.47345e-15
1.0633e-09
-2.047e-09
-6.54426e-16
1.16274e-09
-2.16582e-09
5.64724e-15
1.25749e-09
-2.27143e-09
-1.12016e-15
1.34576e-09
-2.3624e-09
5.51518e-15
1.42586e-09
-2.43715e-09
-8.77172e-16
1.49638e-09
-2.49522e-09
5.08376e-15
1.55613e-09
-2.53599e-09
-5.13775e-16
1.60426e-09
-2.55973e-09
5.60101e-15
1.64022e-09
-2.56693e-09
1.11296e-15
1.66377e-09
-2.55826e-09
7.14032e-15
1.675e-09
-2.53539e-09
2.45681e-15
1.67426e-09
-2.49933e-09
7.17126e-15
1.66212e-09
-2.45199e-09
1.78019e-15
1.63939e-09
-2.39509e-09
5.47294e-15
1.60701e-09
-2.33034e-09
6.13942e-16
1.566e-09
-2.25953e-09
4.13662e-15
1.51744e-09
-2.1843e-09
2.4808e-16
1.46242e-09
-2.10627e-09
3.60376e-15
1.402e-09
-2.02674e-09
5.06928e-16
1.33719e-09
-1.94698e-09
3.29976e-15
1.26893e-09
-1.86798e-09
4.92364e-16
1.19809e-09
-1.7902e-09
2.72813e-15
1.1254e-09
-1.71527e-09
5.36971e-16
1.05157e-09
-1.64249e-09
2.52037e-15
9.7716e-10
-1.57307e-09
8.92454e-16
9.02683e-10
-1.50641e-09
2.5534e-15
8.28597e-10
-1.44248e-09
1.25677e-15
7.55221e-10
-1.38195e-09
2.46106e-15
6.82935e-10
-1.32316e-09
1.24367e-15
6.11999e-10
-1.26646e-09
1.78741e-15
5.42709e-10
-1.21068e-09
7.98773e-16
4.75335e-10
-1.15522e-09
1.38184e-15
4.10125e-10
-1.09945e-09
2.38209e-16
3.47384e-10
-1.04188e-09
-8.22831e-17
2.87444e-10
-9.817e-10
-6.68668e-16
2.30685e-10
-9.17712e-10
-2.04727e-16
1.77595e-10
-8.48298e-10
-2.21879e-16
1.28782e-10
-7.72283e-10
1.6674e-16
8.50057e-11
-6.90574e-10
1.54831e-18
4.72013e-11
-6.07314e-10
3.57685e-17
1.6959e-11
-5.1978e-10
-2.48375e-16
-3.35642e-10
-2.8603e-16
8.33926e-10
-1.7392e-09
8.65879e-16
9.42913e-10
-1.88695e-09
-3.45601e-15
1.05215e-09
-2.02609e-09
9.16461e-15
1.1594e-09
-2.15418e-09
1.61036e-14
1.2626e-09
-2.26891e-09
1.51301e-14
1.3596e-09
-2.36842e-09
1.03411e-14
1.44861e-09
-2.45139e-09
5.15737e-15
1.52788e-09
-2.51645e-09
5.13491e-15
1.5961e-09
-2.56344e-09
1.1487e-15
1.65214e-09
-2.59206e-09
4.41307e-15
1.69533e-09
-2.60293e-09
1.04656e-15
1.72528e-09
-2.59691e-09
5.71566e-15
1.74203e-09
-2.575e-09
2.47462e-15
1.74586e-09
-2.53922e-09
6.6944e-15
1.73736e-09
-2.49082e-09
2.74294e-15
1.71733e-09
-2.43197e-09
5.74375e-15
1.6868e-09
-2.36456e-09
1.51259e-15
1.64684e-09
-2.2904e-09
4.16545e-15
1.59865e-09
-2.21135e-09
5.84013e-16
1.54341e-09
-2.12907e-09
3.31237e-15
1.48229e-09
-2.04516e-09
4.72197e-16
1.41639e-09
-1.96086e-09
3.06987e-15
1.34677e-09
-1.87736e-09
6.00079e-16
1.27433e-09
-1.79556e-09
2.66082e-15
1.19997e-09
-1.71584e-09
5.30804e-16
1.12434e-09
-1.63966e-09
2.37132e-15
1.04815e-09
-1.56629e-09
7.60181e-16
9.71887e-10
-1.49681e-09
2.37903e-15
8.96035e-10
-1.43056e-09
1.14118e-15
8.20983e-10
-1.36743e-09
2.40896e-15
7.47019e-10
-1.30799e-09
1.33155e-15
6.7446e-10
-1.2506e-09
2.10225e-15
6.03537e-10
-1.19553e-09
9.67009e-16
5.34495e-10
-1.14164e-09
1.49183e-15
4.67575e-10
-1.08829e-09
7.23789e-16
4.02985e-10
-1.03487e-09
6.3212e-16
3.41008e-10
-9.79916e-10
-6.1327e-16
2.81942e-10
-9.2265e-10
-3.51854e-16
2.26142e-10
-8.61925e-10
-5.06099e-16
1.74057e-10
-7.96221e-10
4.9314e-17
1.26262e-10
-7.24491e-10
-1.83081e-17
8.34524e-11
-6.47767e-10
1.94378e-16
4.64805e-11
-5.70345e-10
-8.7276e-17
1.68007e-11
-4.90106e-10
-1.1339e-16
-3.18847e-10
-3.38633e-16
9.21354e-10
-1.85419e-09
1.44469e-14
1.03761e-09
-2.0032e-09
4.05064e-15
1.15298e-09
-2.14136e-09
1.99428e-14
1.26498e-09
-2.26614e-09
9.75581e-15
1.37139e-09
-2.37525e-09
1.66922e-14
1.46994e-09
-2.46696e-09
4.34768e-15
1.55876e-09
-2.5402e-09
9.71779e-15
1.63617e-09
-2.59387e-09
8.1149e-16
1.7009e-09
-2.62818e-09
6.89302e-15
1.75201e-09
-2.64319e-09
2.80438e-16
1.78902e-09
-2.63995e-09
6.65595e-15
1.8118e-09
-2.6197e-09
1.28289e-15
1.82062e-09
-2.58382e-09
7.40685e-15
1.81605e-09
-2.53464e-09
2.16138e-15
1.79893e-09
-2.4737e-09
7.09951e-15
1.77031e-09
-2.40336e-09
1.55796e-15
1.73139e-09
-2.32565e-09
5.43966e-15
1.68346e-09
-2.24248e-09
4.21801e-16
1.62782e-09
-2.15572e-09
3.98413e-15
1.56576e-09
-2.06703e-09
-5.27928e-19
1.4985e-09
-1.97792e-09
3.33335e-15
1.42719e-09
-1.88956e-09
1.6948e-16
1.35287e-09
-1.80305e-09
2.96615e-15
1.27645e-09
-1.71916e-09
2.31942e-16
1.19877e-09
-1.63815e-09
2.51892e-15
1.12046e-09
-1.56136e-09
4.01835e-16
1.04215e-09
-1.48799e-09
2.39348e-15
9.64301e-10
-1.41896e-09
7.97216e-16
8.87317e-10
-1.35358e-09
2.43437e-15
8.11551e-10
-1.29165e-09
1.14713e-15
7.3722e-10
-1.23366e-09
2.31254e-15
6.64609e-10
-1.17798e-09
1.1082e-15
5.93891e-10
-1.12481e-09
1.74576e-15
5.2528e-10
-1.07303e-09
7.90593e-16
4.58972e-10
-1.02199e-09
1.25861e-15
3.95151e-10
-9.7106e-10
2.32378e-17
3.34063e-10
-9.18845e-10
-2.71234e-16
2.75987e-10
-8.6459e-10
-7.52244e-16
2.21242e-10
-8.07193e-10
-2.10655e-16
1.70253e-10
-7.45239e-10
-1.87789e-16
1.2355e-10
-6.77791e-10
2.00331e-16
8.17763e-11
-6.05996e-10
3.42472e-17
4.56924e-11
-5.34264e-10
6.07098e-17
1.6621e-11
-4.6104e-10
-2.34283e-16
-3.02231e-10
-2.86818e-16
1.01868e-09
-1.97794e-09
6.398e-15
1.14251e-09
-2.12708e-09
4.22236e-15
1.26405e-09
-2.2628e-09
1.5936e-14
1.38053e-09
-2.38256e-09
1.53022e-14
1.48955e-09
-2.48419e-09
1.23914e-14
1.58876e-09
-2.56618e-09
8.12084e-15
1.67632e-09
-2.62775e-09
3.60663e-15
1.75059e-09
-2.66817e-09
5.58378e-15
1.81049e-09
-2.68808e-09
1.63367e-15
1.85527e-09
-2.688e-09
5.93516e-15
1.88474e-09
-2.66941e-09
1.8933e-15
1.89904e-09
-2.63401e-09
6.71077e-15
1.89876e-09
-2.58353e-09
2.70213e-15
1.88476e-09
-2.52064e-09
6.96242e-15
1.85817e-09
-2.4471e-09
2.65404e-15
1.82026e-09
-2.36546e-09
5.84485e-15
1.77247e-09
-2.27786e-09
1.49283e-15
1.71621e-09
-2.18624e-09
4.17096e-15
1.65294e-09
-2.09245e-09
4.99204e-16
1.58399e-09
-1.99809e-09
3.17284e-15
1.51065e-09
-1.90459e-09
2.77311e-16
1.43405e-09
-1.81298e-09
2.78177e-15
1.35524e-09
-1.72424e-09
3.35213e-16
1.27506e-09
-1.639e-09
2.3947e-15
1.19434e-09
-1.55743e-09
3.52504e-16
1.11363e-09
-1.48067e-09
2.18579e-15
1.0335e-09
-1.40787e-09
6.3985e-16
9.54338e-10
-1.33981e-09
2.23179e-15
8.76507e-10
-1.27574e-09
1.03485e-15
8.00278e-10
-1.21542e-09
2.26078e-15
7.25831e-10
-1.15921e-09
1.20014e-15
6.53385e-10
-1.10553e-09
1.94145e-15
5.83079e-10
-1.05451e-09
9.35608e-16
5.15078e-10
-1.00503e-09
1.44756e-15
4.4955e-10
-9.56455e-10
6.19626e-16
3.86639e-10
-9.08159e-10
4.31929e-16
3.26572e-10
-8.58794e-10
-7.68545e-16
2.69593e-10
-8.07628e-10
-4.4058e-16
2.16004e-10
-7.53617e-10
-5.07198e-16
1.66193e-10
-6.95435e-10
6.87838e-17
1.20657e-10
-6.32258e-10
1.45405e-17
7.99808e-11
-5.65322e-10
2.13853e-16
4.48408e-11
-4.99127e-10
-6.6206e-17
1.64188e-11
-4.32623e-10
-1.1073e-16
-2.85818e-10
-3.42768e-16
1.1286e-09
-2.11054e-09
8.91121e-15
1.25982e-09
-2.25839e-09
-6.92174e-15
1.38705e-09
-2.38996e-09
1.74292e-14
1.50724e-09
-2.50273e-09
6.75867e-15
1.61785e-09
-2.59475e-09
1.55699e-14
1.71649e-09
-2.66483e-09
2.51578e-15
1.80135e-09
-2.7126e-09
1.01718e-14
1.87095e-09
-2.73778e-09
1.48468e-15
1.92441e-09
-2.74153e-09
8.83633e-15
1.96129e-09
-2.72488e-09
1.80341e-15
1.98168e-09
-2.68981e-09
8.4933e-15
1.98612e-09
-2.63845e-09
2.275e-15
1.97551e-09
-2.57292e-09
8.27684e-15
1.95105e-09
-2.49617e-09
2.44742e-15
1.91414e-09
-2.41019e-09
7.35533e-15
1.86634e-09
-2.31766e-09
1.68308e-15
1.80923e-09
-2.22076e-09
5.57387e-15
1.74441e-09
-2.12143e-09
5.02704e-16
1.67339e-09
-2.02145e-09
3.97763e-15
1.5976e-09
-1.92231e-09
-3.25568e-17
1.5183e-09
-1.82531e-09
3.16564e-15
1.43664e-09
-1.73134e-09
-6.55368e-18
1.35359e-09
-1.6412e-09
2.69677e-15
1.26998e-09
-1.55541e-09
4.96583e-17
1.18653e-09
-1.47398e-09
2.29769e-15
1.10374e-09
-1.3979e-09
2.63718e-16
1.02212e-09
-1.32624e-09
2.21553e-15
9.41968e-10
-1.25966e-09
6.85221e-16
8.63576e-10
-1.19735e-09
2.28252e-15
7.8717e-10
-1.13901e-09
1.03312e-15
7.12853e-10
-1.0849e-09
2.15044e-15
6.40808e-10
-1.03348e-09
9.79672e-16
5.71118e-10
-9.84819e-10
1.68341e-15
5.03917e-10
-9.37827e-10
7.53089e-16
4.39328e-10
-8.91867e-10
1.13483e-15
3.77476e-10
-8.46317e-10
-1.37984e-16
3.18552e-10
-7.99888e-10
-4.24627e-16
2.62783e-10
-7.51876e-10
-8.23797e-16
2.10441e-10
-7.01288e-10
-2.26038e-16
1.61891e-10
-6.46892e-10
-1.6532e-16
1.1759e-10
-5.8796e-10
2.19166e-16
7.80735e-11
-5.25807e-10
5.36066e-17
4.39268e-11
-4.64984e-10
6.9372e-17
1.6196e-11
-4.04898e-10
-2.32784e-16
-2.69629e-10
-2.96973e-16
1.25069e-09
-2.25277e-09
-2.14171e-14
1.38944e-09
-2.39741e-09
-2.13828e-14
1.52214e-09
-2.52258e-09
1.21941e-14
1.64531e-09
-2.62593e-09
7.34616e-15
1.7564e-09
-2.70584e-09
2.00463e-15
1.85304e-09
-2.76154e-09
1.31582e-15
1.93357e-09
-2.79316e-09
-3.8299e-16
1.99672e-09
-2.80097e-09
5.48109e-15
2.04194e-09
-2.78675e-09
2.32719e-15
2.06913e-09
-2.75209e-09
7.95769e-15
2.07883e-09
-2.6995e-09
3.41869e-15
2.07193e-09
-2.63155e-09
8.23425e-15
2.04975e-09
-2.55072e-09
3.5133e-15
2.01381e-09
-2.46022e-09
7.54965e-15
1.96584e-09
-2.36221e-09
2.91772e-15
1.90758e-09
-2.25942e-09
6.0644e-15
1.84084e-09
-2.15403e-09
1.68267e-15
1.76731e-09
-2.04791e-09
4.26313e-15
1.68858e-09
-1.94273e-09
6.12029e-16
1.60607e-09
-1.83982e-09
3.12288e-15
1.52106e-09
-1.74031e-09
2.4906e-16
1.43462e-09
-1.64492e-09
2.57527e-15
1.34769e-09
-1.55429e-09
1.95359e-16
1.261e-09
-1.46874e-09
2.16292e-15
1.17521e-09
-1.38819e-09
2.22777e-16
1.09072e-09
-1.31343e-09
1.98395e-15
1.00797e-09
-1.24349e-09
5.25415e-16
9.27157e-10
-1.17886e-09
2.06346e-15
8.48529e-10
-1.11873e-09
9.36015e-16
7.72226e-10
-1.0627e-09
2.10725e-15
6.9831e-10
-1.01098e-09
1.08599e-15
6.26897e-10
-9.62063e-10
1.78699e-15
5.58039e-10
-9.1596e-10
9.00057e-16
4.9182e-10
-8.71609e-10
1.37019e-15
4.2834e-10
-8.28386e-10
5.15547e-16
3.67685e-10
-7.85674e-10
2.64709e-16
3.10032e-10
-7.42252e-10
-8.911e-16
2.55577e-10
-6.97438e-10
-5.21311e-16
2.04575e-10
-6.50298e-10
-5.12936e-16
1.57361e-10
-5.99684e-10
7.61941e-17
1.14362e-10
-5.44964e-10
3.62104e-17
7.60594e-11
-4.87506e-10
2.20354e-16
4.29551e-11
-4.31882e-10
-5.78664e-17
1.59517e-11
-3.779e-10
-1.19377e-16
-2.53683e-10
-3.53871e-16
1.38922e-09
-2.40364e-09
5.15788e-14
1.53462e-09
-2.54292e-09
-7.09517e-15
1.67159e-09
-2.65926e-09
4.13654e-14
1.79619e-09
-2.75059e-09
-1.47794e-15
1.90594e-09
-2.81566e-09
3.54531e-15
1.99861e-09
-2.85427e-09
-6.52386e-15
2.07268e-09
-2.86725e-09
6.78364e-15
2.12725e-09
-2.85555e-09
5.33019e-16
2.16212e-09
-2.82161e-09
1.014e-14
2.17769e-09
-2.76765e-09
3.30774e-15
2.17492e-09
-2.69671e-09
1.04313e-14
2.15518e-09
-2.6118e-09
3.63213e-15
2.12019e-09
-2.51571e-09
9.36515e-15
2.07183e-09
-2.41185e-09
3.07191e-15
2.01211e-09
-2.30248e-09
7.70449e-15
1.94299e-09
-2.19031e-09
1.99522e-15
1.86642e-09
-2.07746e-09
5.70944e-15
1.78418e-09
-1.96567e-09
7.33129e-16
1.69786e-09
-1.85643e-09
4.00404e-15
1.60891e-09
-1.75087e-09
8.51729e-17
1.51852e-09
-1.64993e-09
3.05176e-15
1.42771e-09
-1.55413e-09
-4.53705e-17
1.33732e-09
-1.46391e-09
2.47891e-15
1.248e-09
-1.37944e-09
-4.68562e-17
1.16028e-09
-1.30048e-09
2.08762e-15
1.07451e-09
-1.22767e-09
1.60728e-16
9.91001e-10
-1.15998e-09
2.02858e-15
9.09905e-10
-1.09777e-09
5.92974e-16
8.31365e-10
-1.04019e-09
2.12963e-15
7.55474e-10
-9.86806e-10
9.44134e-16
6.82221e-10
-9.37733e-10
2.00235e-15
6.11687e-10
-8.91525e-10
8.7907e-16
5.43869e-10
-8.48142e-10
1.61025e-15
4.78825e-10
-8.06565e-10
6.93807e-16
4.16612e-10
-7.66174e-10
9.98387e-16
3.57301e-10
-7.26375e-10
-2.73626e-16
3.01036e-10
-6.86006e-10
-5.56415e-16
2.48001e-10
-6.4442e-10
-8.84214e-16
1.98424e-10
-6.00734e-10
-2.469e-16
1.52622e-10
-5.53887e-10
-1.50582e-16
1.10984e-10
-5.03329e-10
2.26884e-16
7.39486e-11
-4.50472e-10
6.33834e-17
4.19282e-11
-3.99864e-10
6.64302e-17
1.56886e-11
-3.51666e-10
-2.39334e-16
-2.38e-10
-3.12845e-16
1.54212e-09
-2.56416e-09
1.3711e-14
1.69404e-09
-2.6952e-09
-3.07385e-14
1.83451e-09
-2.79946e-09
3.34971e-14
1.95925e-09
-2.87541e-09
5.0088e-15
2.06592e-09
-2.92238e-09
-5.26514e-15
2.15245e-09
-2.94091e-09
-2.35842e-15
2.21775e-09
-2.93259e-09
-2.10046e-15
2.26135e-09
-2.89918e-09
6.26358e-15
2.28361e-09
-2.84386e-09
3.31659e-15
2.28545e-09
-2.76949e-09
9.80523e-15
2.2684e-09
-2.67964e-09
4.9755e-15
2.23431e-09
-2.5777e-09
9.72374e-15
2.18535e-09
-2.46673e-09
4.58472e-15
2.12372e-09
-2.35022e-09
8.21087e-15
2.05173e-09
-2.23046e-09
3.40584e-15
1.97148e-09
-2.11008e-09
6.27083e-15
1.88506e-09
-1.99104e-09
1.99111e-15
1.79425e-09
-1.87487e-09
4.3293e-15
1.70066e-09
-1.76285e-09
8.38345e-16
1.60565e-09
-1.65587e-09
3.08421e-15
1.51034e-09
-1.55463e-09
3.36225e-16
1.41564e-09
-1.45945e-09
2.40686e-15
1.3223e-09
-1.37057e-09
1.55758e-16
1.23082e-09
-1.28799e-09
1.95443e-15
1.14168e-09
-1.21134e-09
1.48559e-16
1.05506e-09
-1.14108e-09
1.78533e-15
9.71225e-10
-1.07614e-09
4.42037e-16
8.90213e-10
-1.01677e-09
1.89741e-15
8.12113e-10
-9.62086e-10
8.66045e-16
7.36935e-10
-9.11625e-10
1.96922e-15
6.64629e-10
-8.65428e-10
1.00898e-15
5.95212e-10
-8.22105e-10
1.65486e-15
5.28654e-10
-7.81583e-10
8.668e-16
4.64965e-10
-7.42878e-10
1.26358e-15
4.04186e-10
-7.05396e-10
3.99564e-16
3.46354e-10
-6.68556e-10
1.06847e-16
2.916e-10
-6.3127e-10
-9.93007e-16
2.40082e-10
-5.9292e-10
-5.94385e-16
1.92016e-10
-5.5268e-10
-5.19009e-16
1.47691e-10
-5.09568e-10
7.59544e-17
1.07474e-10
-4.63114e-10
5.06246e-17
7.17491e-11
-4.14748e-10
2.17798e-16
4.08526e-11
-3.6897e-10
-5.77255e-17
1.54063e-11
-3.26225e-10
-1.35064e-16
-2.226e-10
-3.68647e-16
1.71596e-09
-2.7328e-09
2.17554e-14
1.87248e-09
-2.85222e-09
-5.27591e-14
2.01403e-09
-2.9408e-09
3.37622e-14
2.13624e-09
-2.99773e-09
-8.54886e-15
2.23689e-09
-3.02313e-09
-1.00943e-15
2.31431e-09
-3.01844e-09
-1.14256e-14
2.36785e-09
-2.98619e-09
4.96895e-15
2.39767e-09
-2.92901e-09
-6.94911e-16
2.40472e-09
-2.8509e-09
1.06295e-14
2.39061e-09