/*--------------------------------*- C++ -*----------------------------------*\
| =========                 |                                                 |
| \\      /  F ield         | OpenFOAM: The Open Source CFD Toolbox           |
|  \\    /   O peration     | Version:  v2012                                 |
|   \\  /    A nd           | Website:  www.openfoam.com                      |
|    \\/     M anipulation  |                                                 |
\*---------------------------------------------------------------------------*/
FoamFile
{
    version     2.0;
    format      ascii;
    class       volScalarField;
    location    "0.45";
    object      alpha.water;
}
// * * * * * * * * * * * * * * * * * * * * * * * * * * * * * * * * * * * * * //

dimensions      [0 0 0 0 0 0 0];


internalField   nonuniform List<scalar> 
2664
(
2.82545e-17
2.35332e-17
1.94189e-17
1.5908e-17
1.31611e-17
1.13729e-17
9.94721e-18
7.64679e-18
3.68182e-18
6.10994e-19
1.85252e-20
9.25081e-23
1.79996e-25
2.46647e-28
2.65697e-31
2.3046e-34
1.61839e-37
9.34465e-41
4.38198e-44
1.69096e-47
5.32758e-51
1.36464e-54
2.81549e-58
4.68611e-62
6.3432e-66
6.86995e-70
5.87303e-74
-1.69461e-71
-3.94214e-73
-4.14027e-75
-2.54256e-77
-9.75736e-80
-2.72274e-82
-6.17606e-85
-9.00232e-88
-5.35906e-91
-6.85211e-95
3.32698e-17
2.74343e-17
2.23896e-17
1.80978e-17
1.4578e-17
1.21438e-17
1.06076e-17
8.82666e-18
5.46868e-18
1.52743e-18
9.96436e-20
1.0076e-21
2.63955e-24
4.15706e-27
4.99908e-30
4.7827e-33
3.67572e-36
2.31003e-39
1.17469e-42
4.89612e-46
1.6634e-49
4.5955e-53
1.04355e-56
1.90211e-60
2.80523e-64
3.29276e-68
3.0521e-72
1.73458e-76
-1.68404e-78
-3.09138e-80
-2.43563e-82
-1.11074e-84
-4.00041e-87
-2.01135e-89
-6.6945e-92
-7.29034e-95
-1.51566e-98
3.91676e-17
3.19632e-17
2.57951e-17
2.06044e-17
1.63031e-17
1.30988e-17
1.11813e-17
9.62501e-18
6.95801e-18
2.81926e-18
3.42328e-19
7.08978e-21
2.79894e-23
5.1625e-26
6.91441e-29
7.26187e-32
6.07394e-35
4.12794e-38
2.25874e-41
1.00822e-44
3.65184e-48
1.07281e-51
2.58404e-55
4.98357e-59
7.75569e-63
9.5777e-67
9.30893e-71
7.05937e-75
4.04277e-79
1.71102e-83
3.07445e-88
-1.12207e-89
-6.16155e-92
-7.86405e-94
-5.53311e-96
-1.04372e-98
-3.44439e-102
4.61196e-17
3.72084e-17
2.9683e-17
2.34253e-17
1.82844e-17
1.42808e-17
1.17784e-17
1.02012e-17
8.06909e-18
4.23372e-18
8.35181e-19
3.31306e-20
2.1584e-22
4.82632e-25
7.18653e-28
8.23767e-31
7.4518e-34
5.44223e-37
3.18427e-40
1.51346e-43
5.80916e-47
1.80312e-50
4.57596e-54
9.27229e-58
1.51152e-61
1.9488e-65
1.97033e-69
1.54822e-73
9.19402e-78
4.05989e-82
1.29796e-86
2.87798e-91
3.35979e-96
-3.76145e-98
-4.92618e-100
-1.6498e-102
-8.37737e-106
5.43348e-17
4.32799e-17
3.40993e-17
2.65747e-17
2.04832e-17
1.56712e-17
1.24644e-17
1.06684e-17
8.86366e-18
5.54213e-18
1.58374e-18
1.09274e-19
1.21604e-21
3.46316e-24
5.74172e-27
7.14291e-30
6.94454e-33
5.41621e-36
3.36797e-39
1.69442e-42
6.85266e-46
2.23462e-49
5.94094e-53
1.25738e-56
2.13395e-60
2.85417e-64
2.98211e-68
2.41172e-72
1.46782e-76
6.61353e-81
2.14827e-85
4.82782e-90
7.11757e-95
4.50446e-100
-2.99675e-101
-3.13393e-104
-5.67782e-108
6.40198e-17
5.03084e-17
3.90952e-17
3.00642e-17
2.28777e-17
1.72262e-17
1.32659e-17
1.1095e-17
9.43714e-18
6.63022e-18
2.50299e-18
2.72342e-19
5.07858e-21
1.93689e-23
3.59556e-26
4.82756e-29
5.01189e-32
4.14786e-35
2.72433e-38
1.44217e-41
6.11252e-45
2.08183e-48
5.76526e-52
1.26731e-55
2.2265e-59
3.07161e-63
3.29721e-67
2.72825e-71
1.6915e-75
7.72852e-80
2.53365e-84
5.71709e-89
8.4187e-94
7.21332e-99
-4.8056e-101
-5.90718e-104
-1.10147e-107
7.53472e-17
5.84166e-17
4.4728e-17
3.39001e-17
2.54498e-17
1.89001e-17
1.41757e-17
1.15199e-17
9.8691e-18
7.48173e-18
3.47254e-18
5.45616e-19
1.62025e-20
8.56332e-23
1.79646e-25
2.58855e-28
2.8499e-31
2.48593e-34
1.71346e-37
9.48511e-41
4.19051e-44
1.4821e-47
4.25072e-51
9.64881e-55
1.74478e-58
2.46852e-62
2.70681e-66
2.27836e-70
1.43061e-74
6.58906e-79
2.16671e-83
4.87737e-88
7.12078e-93
6.21104e-98
-7.09529e-101
-1.09005e-103
-2.12582e-107
8.8472e-17
6.76899e-17
5.10446e-17
3.80841e-17
2.81769e-17
2.06501e-17
1.51644e-17
1.19607e-17
1.02127e-17
8.12953e-18
4.3922e-18
9.24804e-19
4.10632e-20
3.03663e-22
7.27912e-25
1.11946e-27
1.29743e-30
1.18424e-33
8.50684e-37
4.89188e-40
2.23883e-43
8.17479e-47
2.41416e-50
5.62599e-54
1.04097e-57
1.50147e-61
1.67186e-65
1.42301e-69
8.99529e-74
4.15097e-78
1.36052e-82
3.03463e-87
4.36019e-92
3.73501e-97
-7.16178e-101
-1.97903e-103
-3.97131e-107
1.03568e-16
7.81755e-17
5.80601e-17
4.26063e-17
3.10287e-17
2.24333e-17
1.61898e-17
1.24167e-17
1.04984e-17
8.6188e-18
5.20437e-18
1.38097e-18
8.60613e-20
8.78974e-22
2.43026e-24
3.9681e-27
4.80481e-30
4.55483e-33
3.38532e-36
2.00827e-39
9.45734e-43
3.54229e-46
1.0704e-49
2.54505e-53
4.78862e-57
6.99782e-61
7.86308e-65
6.72528e-69
4.25267e-73
1.95347e-77
6.33833e-82
1.39055e-86
1.95046e-91
1.61955e-96
1.13722e-102
-3.52641e-103
-7.17546e-107
1.20839e-16
8.98951e-17
6.57456e-17
4.74324e-17
3.39634e-17
2.42021e-17
1.7202e-17
1.287e-17
1.07391e-17
8.98882e-18
5.88944e-18
1.87452e-18
1.54724e-19
2.12187e-21
6.79696e-24
1.17214e-26
1.47163e-29
1.43796e-32
1.09766e-35
6.66919e-39
3.20889e-42
1.2245e-45
3.76046e-49
9.0607e-53
1.72189e-56
2.53215e-60
2.85182e-64
2.43441e-68
1.52931e-72
6.94352e-77
2.2138e-81
4.73895e-86
6.43195e-91
5.11989e-96
1.01872e-101
-6.26901e-103
-1.24629e-106
1.40505e-16
1.02847e-16
7.40254e-17
5.24906e-17
3.69202e-17
2.59002e-17
1.81446e-17
1.32863e-17
1.09335e-17
9.2673e-18
6.45147e-18
2.36891e-18
2.46199e-19
4.37455e-21
1.61992e-23
2.93437e-26
3.7914e-29
3.79009e-32
2.94961e-35
1.82223e-38
8.89384e-42
3.4334e-45
1.06402e-48
2.5795e-52
4.91567e-56
7.22206e-60
8.09356e-64
6.84496e-68
4.24001e-72
1.88812e-76
5.86688e-81
1.21446e-85
1.57899e-90
1.1903e-95
2.60229e-101
-1.09919e-102
-2.04275e-106
1.62748e-16
1.16983e-16
8.27694e-17
5.76617e-17
3.98107e-17
2.74586e-17
1.89561e-17
1.36224e-17
1.10707e-17
9.47149e-18
6.90546e-18
2.83783e-18
3.55746e-19
7.88658e-21
3.34668e-23
6.32974e-26
8.35515e-29
8.48305e-32
6.68271e-35
4.16814e-38
2.04904e-41
7.94647e-45
2.46747e-48
5.97528e-52
1.13347e-55
1.65131e-59
1.82747e-63
1.51941e-67
9.20639e-72
3.98688e-76
1.19617e-80
2.37014e-85
2.91807e-90
2.05473e-95
3.60846e-101
-1.88433e-102
-3.12322e-106
1.87615e-16
1.32164e-16
9.17753e-17
6.27686e-17
4.25125e-17
2.87962e-17
1.9578e-17
1.38438e-17
1.11414e-17
9.61319e-18
7.26893e-18
3.26614e-18
4.76525e-19
1.27115e-20
6.09706e-23
1.19599e-25
1.60137e-28
1.63985e-31
1.29869e-34
8.12223e-38
3.99418e-41
1.54555e-44
4.77514e-48
1.14685e-51
2.14968e-55
3.08229e-59
3.34264e-63
2.71051e-67
1.5932e-71
6.64925e-76
1.90699e-80
3.57607e-85
4.11404e-90
2.66109e-95
1.82428e-101
-3.09705e-102
-4.35958e-106
2.14908e-16
1.48098e-16
1.00745e-16
6.75721e-17
4.48715e-17
2.98312e-17
1.99742e-17
1.39482e-17
1.1158e-17
9.70388e-18
7.55544e-18
3.64565e-18
6.01297e-19
1.86848e-20
9.96682e-23
2.01325e-25
2.71599e-28
2.78658e-31
2.20393e-34
1.37301e-37
6.70909e-41
2.57308e-44
7.8561e-48
1.85812e-51
3.41673e-55
4.78582e-59
5.04692e-63
3.95961e-67
2.23872e-71
8.92005e-76
2.41956e-80
4.24123e-85
4.49106e-90
2.61537e-95
-1.99657e-99
-4.70745e-102
-5.39592e-106
2.44094e-16
1.64275e-16
1.09266e-16
7.17802e-17
4.67243e-17
3.05068e-17
2.0158e-17
1.39727e-17
1.11466e-17
9.75118e-18
7.76721e-18
3.96425e-18
7.21179e-19
2.53652e-20
1.47964e-22
3.05764e-25
4.13361e-28
4.22642e-31
3.31997e-34
2.04846e-37
9.88655e-41
3.73492e-44
1.11958e-47
2.59006e-51
4.63927e-55
6.30104e-59
6.41132e-63
4.82645e-67
2.6008e-71
9.79572e-76
2.48517e-80
4.0166e-85
3.8458e-90
1.96739e-95
-6.43748e-99
-6.31248e-102
-5.8168e-106
2.74237e-16
1.79933e-16
1.16817e-16
7.50889e-17
4.79478e-17
3.08326e-17
2.02019e-17
1.39262e-17
1.10999e-17
9.75962e-18
7.893e-18
4.18756e-18
8.16826e-19
3.1436e-20
1.96154e-22
4.12141e-25
5.56982e-28
5.66574e-31
4.41328e-34
2.69186e-37
1.28004e-40
4.74808e-44
1.39173e-47
3.13385e-51
5.43699e-55
7.11827e-59
6.9454e-63
4.98389e-67
2.54016e-71
8.95584e-76
2.09921e-80
3.08027e-85
2.61292e-90
1.13445e-95
-1.11719e-98
-7.16104e-102
-5.40284e-106
3.039e-16
1.94059e-16
1.22828e-16
7.72716e-17
4.85409e-17
3.09145e-17
2.00863e-17
1.37671e-17
1.10061e-17
9.73636e-18
7.93142e-18
4.27407e-18
8.58319e-19
3.43206e-20
2.20355e-22
4.65574e-25
6.27652e-28
6.3542e-31
4.91658e-34
2.97208e-37
1.39642e-40
5.09935e-44
1.46479e-47
3.21554e-51
5.40821e-55
6.82137e-59
6.36934e-63
4.34052e-67
2.08059e-71
6.81432e-76
1.45993e-80
1.91533e-85
1.40699e-90
4.90525e-96
-1.42262e-98
-6.69154e-102
-4.2763e-106
3.31055e-16
2.05484e-16
1.26842e-16
7.83257e-17
4.86895e-17
3.06696e-17
1.96756e-17
1.34504e-17
1.08625e-17
9.67827e-18
7.91291e-18
4.26209e-18
8.51749e-19
3.37065e-20
2.13301e-22
4.44803e-25
5.9223e-28
5.92017e-31
4.52099e-34
2.6948e-37
1.24615e-40
4.46663e-44
1.25442e-47
2.67951e-51
4.36229e-55
5.29613e-59
4.72954e-63
3.05658e-67
1.37397e-71
4.15928e-76
8.07675e-81
9.34011e-86
5.7891e-91
1.4343e-96
-1.38417e-98
-5.02632e-102
-2.89513e-106
3.53216e-16
2.13207e-16
1.28806e-16
7.85877e-17
4.8205e-17
2.98701e-17
1.89186e-17
1.2995e-17
1.06825e-17
9.58894e-18
7.81548e-18
4.12563e-18
7.88978e-19
2.92231e-20
1.73651e-22
3.5047e-25
4.56321e-28
4.46746e-31
3.34138e-34
1.9493e-37
8.80687e-41
3.07701e-44
8.39362e-48
1.73439e-51
2.71939e-55
3.16415e-59
2.69147e-63
1.64204e-67
6.88378e-72
1.91187e-76
3.32838e-81
3.33012e-86
1.67716e-91
2.28063e-97
-9.99159e-99
-2.92684e-102
-1.56587e-106
3.68133e-16
2.17011e-16
1.29307e-16
7.7644e-17
4.66939e-17
2.84217e-17
1.78356e-17
1.24427e-17
1.0482e-17
9.46793e-18
7.61735e-18
3.83435e-18
6.67663e-19
2.16806e-20
1.15022e-22
2.20662e-25
2.78362e-28
2.64772e-31
1.92417e-34
1.08949e-37
4.76649e-41
1.60859e-44
4.22307e-48
8.36547e-52
1.25239e-55
1.38499e-59
1.1117e-63
6.33783e-68
2.45088e-72
6.16404e-77
9.44612e-82
7.91461e-87
3.04876e-92
-2.06871e-96
-4.96865e-99
-1.25932e-102
-6.34377e-107
3.75255e-16
2.17982e-16
1.27538e-16
7.48065e-17
4.39938e-17
2.63544e-17
1.65062e-17
1.18557e-17
1.02757e-17
9.30892e-18
7.29576e-18
3.38686e-18
5.06671e-19
1.34205e-20
6.06154e-23
1.08818e-25
1.31746e-28
1.20737e-31
8.45636e-35
4.60841e-38
1.93527e-41
6.25202e-45
1.56507e-48
2.94408e-52
4.16749e-56
4.33133e-60
3.23941e-64
1.70201e-68
5.97302e-73
1.33186e-77
1.7389e-82
1.15593e-87
3.22388e-93
-1.39118e-96
-1.5257e-99
-3.56756e-103
-1.74979e-107
3.76895e-16
2.14577e-16
1.22225e-16
6.97518e-17
4.01586e-17
2.37959e-17
1.50509e-17
1.12961e-17
1.00704e-17
9.09551e-18
6.8136e-18
2.79414e-18
3.35179e-19
6.70332e-21
2.48062e-23
4.11574e-26
4.73429e-29
4.14052e-32
2.76827e-35
1.43768e-38
5.73696e-42
1.75634e-45
4.14956e-49
7.33496e-53
9.70581e-57
9.35583e-61
6.4266e-65
3.06084e-69
9.54702e-74
1.83171e-78
1.94404e-83
9.62665e-89
1.97353e-94
-2.76496e-97
-2.50652e-100
-5.65817e-104
-2.78939e-108
3.69848e-16
2.04231e-16
1.12721e-16
6.26148e-17
3.54606e-17
2.09493e-17
1.36121e-17
1.08105e-17
9.86321e-18
8.79578e-18
6.12386e-18
2.09596e-18
1.85669e-19
2.59326e-21
7.69185e-24
1.16878e-26
1.26377e-29
1.0435e-32
6.58658e-36
3.22261e-39
1.20886e-42
3.46614e-46
7.63739e-50
1.25292e-53
1.52842e-57
1.34699e-61
8.36571e-66
3.54249e-70
9.56523e-75
1.51648e-79
1.23434e-84
4.49827e-90
8.40926e-96
-1.23738e-98
-1.19192e-101
-2.82466e-105
-1.42698e-109
3.48774e-16
1.85759e-16
9.9378e-17
5.39857e-17
3.03011e-17
1.80543e-17
1.23309e-17
1.04179e-17
9.63964e-18
8.35304e-18
5.18281e-18
1.37266e-18
8.14194e-20
7.40352e-22
1.75689e-24
2.42719e-27
2.43888e-30
1.87862e-33
1.10565e-36
5.03152e-40
1.7521e-43
4.64464e-47
9.42087e-51
1.41519e-54
1.57e-58
1.24654e-62
6.87671e-67
2.53022e-71
5.71301e-76
7.13087e-81
4.33501e-86
1.28052e-91
2.836e-97
-6.9767e-101
-1.27071e-103
-3.39688e-107
-1.56603e-111
3.11738e-16
1.60248e-16
8.34787e-17
4.46795e-17
2.50902e-17
1.53575e-17
1.13161e-17
1.01058e-17
9.36706e-18
7.67759e-18
3.98819e-18
7.39801e-19
2.62583e-20
1.48517e-22
2.86286e-25
3.56782e-28
3.28803e-31
2.32978e-34
1.26002e-37
5.25443e-41
1.67369e-44
4.04265e-48
7.44257e-52
1.00874e-55
1.00194e-59
7.04014e-64
3.37441e-68
1.04552e-72
1.89535e-77
1.79682e-82
8.47079e-88
2.51504e-93
6.07651e-99
-9.40504e-105
-7.06819e-106
-2.14008e-109
-8.67465e-114
2.6176e-16
1.30491e-16
6.66382e-17
3.5476e-17
2.02052e-17
1.31018e-17
1.06081e-17
9.83684e-18
8.97603e-18
6.64979e-18
2.63934e-18
3.01672e-19
5.69947e-21
2.01102e-23
3.21768e-26
3.58019e-29
2.98008e-32
1.91047e-35
9.33131e-39
3.50885e-42
1.00579e-45
2.17973e-49
3.58196e-53
4.3056e-57
3.75937e-61
2.28704e-65
9.24612e-70
2.3253e-74
3.25719e-79
2.37923e-84
1.00158e-89
3.30474e-95
7.45218e-101
5.98454e-107
-2.57358e-108
-8.59624e-112
-3.00319e-116
2.05208e-16
9.97913e-17
5.04082e-17
2.70502e-17
1.60208e-17
1.14774e-17
1.01555e-17
9.55479e-18
8.32747e-18
5.16932e-18
1.37595e-18
8.26666e-20
7.56904e-22
1.77219e-24
2.38959e-27
2.34167e-30
1.72951e-33
9.84186e-37
4.25853e-40
1.41971e-43
3.6011e-47
6.87589e-51
9.90609e-55
1.03688e-58
7.78962e-63
3.98888e-67
1.31622e-71
2.59964e-76
2.83373e-81
1.72551e-86
7.45947e-92
2.36318e-97
4.89484e-103
7.11795e-109
-6.64841e-111
-2.38749e-114
-7.10996e-119
1.48743e-16
7.12422e-17
3.6106e-17
1.99718e-17
1.28908e-17
1.05124e-17
9.84037e-18
9.15241e-18
7.18885e-18
3.305e-18
4.91967e-19
1.29391e-20
5.66634e-23
9.64372e-26
1.09922e-28
9.32884e-32
5.99561e-35
2.97094e-38
1.12041e-41
3.25853e-45
7.18508e-49
1.18829e-52
1.47569e-56
1.318e-60
8.30374e-65
3.48303e-69
9.13394e-74
1.42029e-78
1.25994e-83
7.19104e-89
3.11893e-94
9.03348e-100
1.76567e-105
2.6314e-111
-1.22708e-113
-4.71593e-117
-1.19434e-121
9.89549e-17
4.73365e-17
2.46363e-17
1.4708e-17
1.1001e-17
1.00164e-17
9.52665e-18
8.38173e-18
5.31446e-18
1.48937e-18
9.68189e-20
9.45154e-22
2.22764e-24
2.94178e-27
2.80457e-30
2.02006e-33
1.1071e-36
4.68543e-40
1.51282e-43
3.76197e-47
7.08482e-51
9.97539e-55
1.04651e-58
7.79139e-63
4.0245e-67
1.35334e-71
2.82753e-76
3.59104e-81
2.81415e-86
1.59697e-91
6.29923e-97
1.69971e-102
3.52376e-108
6.82539e-114
-1.54986e-116
-6.63046e-120
-1.43409e-124
5.97321e-17
2.93377e-17
1.65034e-17
1.15417e-17
1.01404e-17
9.69565e-18
8.98232e-18
6.78459e-18
2.84356e-18
3.60401e-19
7.54815e-21
2.71714e-23
4.15714e-26
4.35266e-29
3.4106e-32
2.03968e-35
9.30843e-39
3.29588e-42
8.93597e-46
1.86766e-49
2.94995e-53
3.46312e-57
3.00431e-61
1.82985e-65
7.63426e-70
2.07173e-74
3.58902e-79
4.04217e-84
3.1777e-89
1.81707e-94
8.13396e-100
3.3797e-105
1.47809e-110
5.11409e-116
-8.66523e-120
-6.44518e-123
-1.20772e-127
3.28421e-17
1.76567e-17
1.18889e-17
1.02002e-17
9.75822e-18
9.24946e-18
7.62363e-18
4.01774e-18
7.8163e-19
2.87726e-20
1.55998e-22
2.71747e-25
3.0207e-28
2.48279e-31
1.55727e-34
7.52386e-38
2.79744e-41
8.13615e-45
1.81579e-48
3.12319e-52
4.05009e-56
3.89061e-60
2.75131e-64
1.35976e-68
4.66072e-73
1.0798e-77
1.72431e-82
2.10417e-87
2.15579e-92
2.11769e-97
2.18694e-102
2.10895e-107
1.52043e-112
6.1996e-118
-5.65655e-124
-4.20584e-126
-6.70133e-131
1.73767e-17
1.17513e-17
1.01426e-17
9.74389e-18
9.3242e-18
7.94391e-18
4.62278e-18
1.09973e-18
5.30582e-20
3.54073e-22
6.46797e-25
7.19247e-28
5.90626e-31
3.7173e-34
1.81473e-37
6.90148e-41
2.04274e-44
4.75296e-48
8.51071e-52
1.17712e-55
1.23077e-59
9.56645e-64
5.5404e-68
2.31903e-72
7.2399e-77
1.73747e-81
3.65753e-86
7.7356e-91
1.58723e-95
3.00157e-100
4.7914e-105
5.67042e-110
4.43148e-115
1.91662e-120
4.26584e-126
-1.51835e-129
-2.02221e-134
1.1053e-17
9.95146e-18
9.66441e-18
9.23355e-18
7.75627e-18
4.41825e-18
9.86461e-19
4.10355e-20
2.25572e-22
3.61501e-25
3.66121e-28
2.77986e-31
1.6398e-34
7.57631e-38
2.75618e-41
7.91595e-45
1.7817e-48
3.17664e-52
4.39485e-56
4.75406e-60
3.97448e-64
2.59577e-68
1.39323e-72
6.36266e-77
2.73166e-81
1.13347e-85
4.4699e-90
1.54411e-94
4.41719e-99
1.03445e-103
1.89409e-108
2.49782e-113
2.10957e-118
9.42767e-124
1.86962e-129
-2.76428e-133
-3.0104e-138
9.69105e-18
9.48834e-18
8.79614e-18
6.76699e-18
2.98119e-18
3.67332e-19
6.19728e-21
1.56268e-23
1.57583e-26
1.03574e-29
4.86145e-33
1.4566e-36
1.96947e-40
1.46667e-44
9.21503e-49
1.05628e-52
1.8077e-56
2.81822e-60
3.47518e-64
3.3878e-68
2.579e-72
1.55462e-76
7.92095e-81
1.32321e-82
1.53135e-86
9.32043e-91
4.68953e-95
1.94503e-99
6.54542e-104
1.7046e-108
3.20259e-113
3.76004e-118
2.4087e-123
3.47542e-129
3.52579e-136
-2.56436e-137
-2.06617e-142
8.93437e-18
7.18146e-18
3.2871e-18
4.0703e-19
7.35169e-21
2.1422e-23
6.75979e-27
9.72364e-31
2.47188e-34
1.19237e-37
4.89562e-41
1.30004e-44
2.61424e-48
5.21726e-52
1.18005e-55
2.38558e-59
3.98671e-63
5.43926e-67
5.88901e-71
5.13723e-75
7.13387e-79
4.25813e-83
1.0342e-87
5.78658e-91
6.10494e-95
1.72164e-99
9.29611e-104
4.32878e-108
1.82917e-112
7.88685e-117
2.96516e-121
4.66367e-126
3.91241e-131
4.12418e-137
1.19188e-143
-9.04762e-142
-4.94625e-147
6.0088e-19
4.9201e-20
2.28713e-21
7.42897e-24
1.25162e-27
3.85548e-31
1.19864e-34
9.24227e-38
7.19047e-41
3.87529e-44
1.5082e-47
4.2932e-51
9.08634e-55
2.06575e-58
4.23125e-62
2.34235e-65
4.87725e-69
8.0196e-73
1.01565e-76
9.95894e-81
7.75168e-85
5.25403e-89
3.60951e-93
2.76556e-97
1.3874e-101
6.98186e-106
2.30024e-110
1.88804e-114
4.19307e-119
7.50568e-124
1.51132e-128
1.26709e-133
1.09443e-138
7.34004e-143
1.06106e-145
-6.02133e-147
-5.219e-153
2.82545e-17
2.35332e-17
1.94189e-17
1.5908e-17
1.31611e-17
1.13729e-17
9.94736e-18
7.64741e-18
3.6828e-18
6.11378e-19
1.8546e-20
9.2645e-23
1.80282e-25
2.4705e-28
2.66141e-31
2.30851e-34
1.62118e-37
9.36098e-41
4.38973e-44
1.69398e-47
5.33724e-51
1.36898e-54
2.82992e-58
4.71543e-62
6.38284e-66
6.90916e-70
5.91349e-74
-8.93814e-72
-2.09743e-73
-2.21915e-75
-1.37137e-77
-5.29287e-80
-1.48608e-82
-3.39547e-85
-4.9761e-88
-2.97301e-91
-3.81244e-95
3.32698e-17
2.74343e-17
2.23896e-17
1.80978e-17
1.4578e-17
1.21438e-17
1.06077e-17
8.82705e-18
5.46962e-18
1.52814e-18
9.97354e-20
1.00899e-21
2.6437e-24
4.16385e-27
5.00744e-30
4.79086e-33
3.6821e-36
2.3141e-39
1.17678e-42
4.90496e-46
1.66644e-49
4.60398e-53
1.04549e-56
1.90566e-60
2.81049e-64
3.29903e-68
3.05802e-72
1.95816e-76
-7.17052e-79
-1.64012e-80
-1.31124e-82
-6.01676e-85
-2.18374e-87
-1.10988e-89
-3.71387e-92
-4.05774e-95
-8.45782e-99
3.91676e-17
3.19632e-17
2.57951e-17
2.06044e-17
1.63031e-17
1.30988e-17
1.11813e-17
9.62523e-18
6.95879e-18
2.82021e-18
3.42582e-19
7.09853e-21
2.80324e-23
5.1709e-26
6.92598e-29
7.27428e-32
6.08451e-35
4.13524e-38
2.26279e-41
1.01005e-44
3.65856e-48
1.07481e-51
2.58891e-55
4.99302e-59
7.77045e-63
9.59623e-67
9.32725e-71
7.07324e-75
4.0509e-79
1.7258e-83
3.34911e-88
-5.93066e-90
-3.35963e-92
-4.35299e-94
-3.07758e-96
-5.82463e-99
-1.92661e-102
4.61196e-17
3.72084e-17
2.9683e-17
2.34253e-17
1.82844e-17
1.42808e-17
1.17783e-17
1.02013e-17
8.06965e-18
4.23476e-18
8.35675e-19
3.31662e-20
2.16159e-22
4.8341e-25
7.19852e-28
8.25174e-31
7.46479e-34
5.45188e-37
3.19001e-40
1.51622e-43
5.81993e-47
1.80651e-50
4.58465e-54
9.29002e-58
1.51443e-61
1.9526e-65
1.97425e-69
1.55133e-73
9.21265e-78
4.06819e-82
1.3009e-86
2.88521e-91
3.74277e-96
-1.69489e-98
-2.6403e-100
-9.14071e-103
-4.68063e-106
5.43348e-17
4.32799e-17
3.40993e-17
2.65747e-17
2.04832e-17
1.56712e-17
1.24644e-17
1.06684e-17
8.86405e-18
5.5431e-18
1.58448e-18
1.09374e-19
1.21772e-21
3.46866e-24
5.75125e-27
7.15508e-30
6.95663e-33
5.42582e-36
3.37405e-39
1.69752e-42
6.8654e-46
2.23884e-49
5.9523e-53
1.2598e-56
2.13808e-60
2.85979e-64
2.98809e-68
2.41662e-72
1.47082e-76
6.6272e-81
2.15278e-85
4.83805e-90
7.13695e-95
6.41317e-100
1.71737e-105
-1.61705e-106
-1.21754e-109
6.40198e-17
5.03084e-17
3.90952e-17
3.00642e-17
2.28777e-17
1.72262e-17
1.32658e-17
1.10949e-17
9.4374e-18
6.63105e-18
2.50391e-18
2.72554e-19
5.08499e-21
1.9399e-23
3.60146e-26
4.83573e-29
5.02057e-32
4.1552e-35
2.72924e-38
1.44481e-41
6.1239e-45
2.08577e-48
5.77631e-52
1.26976e-55
2.23083e-59
3.07769e-63
3.30387e-67
2.73383e-71
1.69499e-75
7.74461e-80
2.53901e-84
5.72929e-89
8.43753e-94
7.54171e-99
3.59119e-104
4.13269e-110
-4.44123e-112
7.53472e-17
5.84166e-17
4.4728e-17
3.39001e-17
2.54498e-17
1.89001e-17
1.41757e-17
1.15198e-17
9.86926e-18
7.4824e-18
3.47354e-18
5.45974e-19
1.62209e-20
8.57609e-23
1.79936e-25
2.59288e-28
2.85478e-31
2.49029e-34
1.71653e-37
9.50241e-41
4.19829e-44
1.4849e-47
4.25887e-51
9.66747e-55
1.74818e-58
2.47342e-62
2.71229e-66
2.28304e-70
1.43357e-74
6.60284e-79
2.17132e-83
4.88783e-88
7.13629e-93
6.27916e-98
2.92359e-103
5.05281e-109
-7.47026e-112
8.8472e-17
6.76899e-17
5.10446e-17
3.80841e-17
2.81769e-17
2.06501e-17
1.51644e-17
1.19606e-17
1.02128e-17
8.13004e-18
4.39318e-18
9.25311e-19
4.11046e-20
3.04092e-22
7.29053e-25
1.12129e-27
1.29961e-30
1.18628e-33
8.52186e-37
4.9007e-40
2.24295e-43
8.19009e-47
2.41875e-50
5.63681e-54
1.04299e-57
1.50444e-61
1.67525e-65
1.42593e-69
9.01391e-74
4.15965e-78
1.36341e-82
3.04115e-87
4.36969e-92
3.75418e-97
1.69181e-102
3.06751e-108
-1.36131e-111
1.03568e-16
7.81755e-17
5.80601e-17
4.26063e-17
3.10287e-17
2.24333e-17
1.61898e-17
1.24167e-17
1.04984e-17
8.61919e-18
5.20527e-18
1.3816e-18
8.61371e-20
8.80123e-22
2.43391e-24
3.97435e-27
4.81264e-30
4.56246e-33
3.39114e-36
2.0118e-39
9.47436e-43
3.5488e-46
1.0724e-49
2.54987e-53
4.79779e-57
7.01153e-61
7.87884e-65
6.73897e-69
4.26141e-73
1.95753e-77
6.35174e-82
1.39353e-86
1.9547e-91
1.62517e-96
7.01548e-102
1.22903e-107
-2.47859e-111
1.20839e-16
8.98951e-17
6.57456e-17
4.74324e-17
3.39634e-17
2.42021e-17
1.7202e-17
1.28699e-17
1.07391e-17
8.98911e-18
5.89022e-18
1.87522e-18
1.54841e-19
2.12438e-21
6.80653e-24
1.17389e-26
1.47391e-29
1.44026e-32
1.09946e-35
6.68046e-39
3.21445e-42
1.22668e-45
3.76729e-49
9.07739e-53
1.7251e-56
2.53699e-60
2.85742e-64
2.43927e-68
1.53239e-72
6.95771e-77
2.21842e-81
4.74895e-86
6.44573e-91
5.13454e-96
2.09823e-101
3.45051e-107
-4.68235e-111
1.40505e-16
1.02847e-16
7.40254e-17
5.24906e-17
3.69202e-17
2.59002e-17
1.81446e-17
1.32863e-17
1.09335e-17
9.26751e-18
6.45211e-18
2.36961e-18
2.46355e-19
4.37908e-21
1.62199e-23
2.9384e-26
3.79683e-29
3.79572e-32
2.95413e-35
1.82512e-38
8.90835e-42
3.43916e-45
1.06585e-48
2.58402e-52
4.92442e-56
7.2353e-60
8.10882e-64
6.85812e-68
4.24826e-72
1.89186e-76
5.87874e-81
1.21695e-85
1.58228e-90
1.19357e-95
4.55168e-101
6.85356e-107
-9.14927e-111
1.62748e-16
1.16983e-16
8.27694e-17
5.76617e-17
3.98107e-17
2.74586e-17
1.89561e-17
1.36224e-17
1.10707e-17
9.47164e-18
6.90597e-18
2.83849e-18
3.55929e-19
7.89347e-21
3.35043e-23
6.33743e-26
8.36581e-29
8.49433e-32
6.69195e-35
4.17412e-38
2.05209e-41
7.95867e-45
2.47138e-48
5.98495e-52
1.13534e-55
1.65413e-59
1.83069e-63
1.52215e-67
9.22326e-72
3.99432e-76
1.19846e-80
2.37477e-85
2.92389e-90
2.06019e-95
7.20503e-101
9.63496e-107
-1.77625e-110
1.87615e-16
1.32164e-16
9.17753e-17
6.27686e-17
4.25125e-17
2.87962e-17
1.9578e-17
1.38438e-17
1.11414e-17
9.6133e-18
7.26931e-18
3.26669e-18
4.76713e-19
1.27204e-20
6.10272e-23
1.19721e-25
1.6031e-28
1.64171e-31
1.30023e-34
8.1323e-38
3.99934e-41
1.54763e-44
4.78181e-48
1.14849e-51
2.15284e-55
3.08701e-59
3.34795e-63
2.71493e-67
1.59586e-71
6.66059e-76
1.91035e-80
3.58253e-85
4.12166e-90
2.66851e-95
8.37765e-101
9.5317e-107
-3.23352e-110
2.14908e-16
1.48098e-16
1.00745e-16
6.75721e-17
4.48715e-17
2.98312e-17
1.99742e-17
1.39482e-17
1.11581e-17
9.70395e-18
7.55569e-18
3.64607e-18
6.01468e-19
1.86945e-20
9.97391e-23
2.01485e-25
2.7183e-28
2.78909e-31
2.20603e-34
1.37439e-37
6.71617e-41
2.57593e-44
7.8652e-48
1.86034e-51
3.42095e-55
4.79202e-59
5.05377e-63
3.96517e-67
2.24194e-71
8.93326e-76
2.42329e-80
4.24797e-85
4.49845e-90
2.62422e-95
7.19874e-101
6.45529e-107
-5.30816e-110
2.44094e-16
1.64275e-16
1.09266e-16
7.17802e-17
4.67243e-17
3.05068e-17
2.0158e-17
1.39727e-17
1.11467e-17
9.75122e-18
7.76736e-18
3.96453e-18
7.21308e-19
2.53738e-20
1.48035e-22
3.05932e-25
4.13606e-28
4.22911e-31
3.32224e-34
2.04996e-37
9.89425e-41
3.73801e-44
1.12056e-47
2.59243e-51
4.64367e-55
6.3074e-59
6.41817e-63
4.83182e-67
2.60379e-71
9.80745e-76
2.4883e-80
4.02187e-85
3.85109e-90
1.97647e-95
4.572e-101
2.72547e-107
-7.59172e-110
2.74237e-16
1.79933e-16
1.16817e-16
7.50889e-17
4.79478e-17
3.08326e-17
2.02019e-17
1.39262e-17
1.10999e-17
9.75966e-18
7.89307e-18
4.1877e-18
8.16898e-19
3.14414e-20
1.96204e-22
4.12265e-25
5.57167e-28
5.66781e-31
4.41505e-34
2.69304e-37
1.28065e-40
4.75055e-44
1.39251e-47
3.13571e-51
5.44037e-55
7.12311e-59
6.95051e-63
4.98777e-67
2.54223e-71
8.96353e-76
2.10114e-80
3.08327e-85
2.61565e-90
1.14696e-95
2.13112e-101
-4.05528e-107
-9.25605e-110
3.039e-16
1.94059e-16
1.22828e-16
7.72716e-17
4.85408e-17
3.09145e-17
2.00863e-17
1.37671e-17
1.10062e-17
9.73638e-18
7.93145e-18
4.27412e-18
8.58341e-19
3.43225e-20
2.20375e-22
4.65626e-25
6.27733e-28
6.35514e-31
4.91742e-34
2.97265e-37
1.39673e-40
5.10062e-44
1.4652e-47
3.21649e-51
5.40991e-55
6.82382e-59
6.3719e-63
4.34241e-67
2.08155e-71
6.81774e-76
1.46074e-80
1.91649e-85
1.40796e-90
5.07733e-96
7.04149e-102
-6.4706e-106
-9.02091e-110
3.31055e-16
2.05484e-16
1.26842e-16
7.83257e-17
4.86894e-17
3.06696e-17
1.96756e-17
1.34504e-17
1.08626e-17
9.67828e-18
7.91291e-18
4.26209e-18
8.51746e-19
3.37063e-20
2.133e-22
4.44802e-25
5.92232e-28
5.92023e-31
4.52108e-34
2.69488e-37
1.2462e-40
4.46686e-44
1.2545e-47
2.67968e-51
4.36259e-55
5.29665e-59
4.73013e-63
3.05702e-67
1.37418e-71
4.16004e-76
8.07855e-81
9.34251e-86
5.79146e-91
1.63032e-96
1.53916e-102
-7.11463e-106
-6.97586e-110
3.53216e-16
2.13207e-16
1.28806e-16
7.85877e-17
4.8205e-17
2.98701e-17
1.89186e-17
1.2995e-17
1.06826e-17
9.58895e-18
7.81546e-18
4.12558e-18
7.88954e-19
2.92215e-20
1.73638e-22
3.50442e-25
4.56284e-28
4.46711e-31
3.34113e-34
1.94916e-37
8.80623e-41
3.07679e-44
8.39305e-48
1.73426e-51
2.71915e-55
3.16392e-59
2.69131e-63
1.64195e-67
6.8834e-72
1.91179e-76
3.32832e-81
3.33012e-86
1.67779e-91
3.44221e-97
2.00912e-103
-4.81832e-106
-4.00605e-110
3.68133e-16
2.17011e-16
1.29307e-16
7.7644e-17
4.66939e-17
2.84217e-17
1.78357e-17
1.24427e-17
1.0482e-17
9.46794e-18
7.61733e-18
3.83429e-18
6.67635e-19
2.16789e-20
1.1501e-22
2.20637e-25
2.7833e-28
2.6474e-31
1.92394e-34
1.08935e-37
4.76588e-41
1.60838e-44
4.2225e-48
8.36422e-52
1.25218e-55
1.38476e-59
1.11153e-63
6.33683e-68
2.45047e-72
6.163e-77
9.44467e-82
7.91347e-87
3.04952e-92
4.36653e-98
1.50767e-104
-2.00684e-106
-1.50179e-110
3.75255e-16
2.17982e-16
1.27538e-16
7.48065e-17
4.39938e-17
2.63544e-17
1.65062e-17
1.18557e-17
1.02758e-17
9.30893e-18
7.29574e-18
3.3868e-18
5.06651e-19
1.34195e-20
6.06094e-23
1.08806e-25
1.31731e-28
1.20723e-31
8.45531e-35
4.60781e-38
1.93501e-41
6.25114e-45
1.56484e-48
2.9436e-52
4.16672e-56
4.33054e-60
3.23883e-64
1.70169e-68
5.97183e-73
1.33159e-77
1.73857e-82
1.15572e-87
3.22374e-93
3.60717e-99
4.43565e-106
-4.21966e-107
-2.99832e-111
3.76895e-16
2.14577e-16
1.22225e-16
6.97518e-17
4.01586e-17
2.37959e-17
1.5051e-17
1.12961e-17
1.00705e-17
9.09551e-18
6.81359e-18
2.79411e-18
3.35169e-19
6.70296e-21
2.48044e-23
4.11541e-26
4.73388e-29
4.14015e-32
2.76801e-35
1.43753e-38
5.73634e-42
1.75614e-45
4.14905e-49
7.33392e-53
9.70421e-57
9.35431e-61
6.42557e-65
3.06033e-69
9.54531e-74
1.83138e-78
1.94372e-83
9.62534e-89
1.97371e-94
2.45076e-100
2.97239e-107
-2.93466e-108
-2.09528e-112
3.69848e-16
2.04231e-16
1.12721e-16
6.26148e-17
3.54606e-17
2.09493e-17
1.36121e-17
1.08105e-17
9.86322e-18
8.79579e-18
6.12387e-18
2.09596e-18
1.85667e-19
2.5932e-21
7.69161e-24
1.16874e-26
1.26372e-29
1.04345e-32
6.58624e-36
3.22243e-39
1.20878e-42
3.46591e-46
7.63683e-50
1.2528e-53
1.52825e-57
1.34684e-61
8.36481e-66
3.54211e-70
9.5641e-75
1.51631e-79
1.23424e-84
4.49811e-90
8.41108e-96
1.3426e-101
5.42474e-108
-2.88776e-110
-1.90824e-114
3.48774e-16
1.85759e-16
9.9378e-17
5.39856e-17
3.03011e-17
1.80543e-17
1.23309e-17
1.04179e-17
9.63965e-18
8.35306e-18
5.18284e-18
1.37267e-18
8.14206e-20
7.40364e-22
1.75691e-24
2.42722e-27
2.4389e-30
1.87864e-33
1.10565e-36
5.03152e-40
1.75209e-43
4.6446e-47
9.42076e-51
1.41515e-54
1.56992e-58
1.24649e-62
6.87649e-67
2.53015e-71
5.71285e-76
7.13082e-81
4.33525e-86
1.28072e-91
2.83718e-97
4.60303e-103
3.69404e-109
-1.55643e-112
-9.97542e-117
3.11738e-16
1.60248e-16
8.34786e-17
4.46795e-17
2.50902e-17
1.53575e-17
1.13161e-17
1.01058e-17
9.36708e-18
7.67762e-18
3.98824e-18
7.3982e-19
2.62594e-20
1.48525e-22
2.86303e-25
3.56803e-28
3.28822e-31
2.32991e-34
1.26009e-37
5.25473e-41
1.67378e-44
4.04287e-48
7.44297e-52
1.00878e-55
1.00196e-59
7.04036e-64
3.37458e-68
1.04559e-72
1.89549e-77
1.79704e-82
8.4726e-88
2.51589e-93
6.07966e-99
9.24148e-105
8.07654e-111
-2.98617e-115
-3.37185e-119
2.6176e-16
1.30491e-16
6.66381e-17
3.5476e-17
2.02052e-17
1.31018e-17
1.06081e-17
9.83685e-18
8.97604e-18
6.64984e-18
2.63939e-18
3.01686e-19
5.69987e-21
2.01119e-23
3.21797e-26
3.58053e-29
2.98037e-32
1.91066e-35
9.33225e-39
3.50922e-42
1.00589e-45
2.17996e-49
3.58236e-53
4.30604e-57
3.75968e-61
2.28727e-65
9.24732e-70
2.32568e-74
3.2578e-79
2.37988e-84
1.00198e-89
3.30654e-95
7.45712e-101
1.08639e-106
9.74483e-113
-8.25015e-119
-7.06757e-122
2.05208e-16
9.97913e-17
5.04082e-17
2.70502e-17
1.60208e-17
1.14774e-17
1.01555e-17
9.5548e-18
8.3275e-18
5.16938e-18
1.376e-18
8.26716e-20
7.56972e-22
1.77237e-24
2.38985e-27
2.34194e-30
1.72972e-33
9.84306e-37
4.25907e-40
1.41989e-43
3.60159e-47
6.87686e-51
9.90755e-55
1.03703e-58
7.79055e-63
3.98946e-67
1.31647e-71
2.60028e-76
2.83457e-81
1.72622e-86
7.46338e-92
2.3647e-97
4.89841e-103
6.84805e-109
6.80907e-115
-7.09012e-122
-1.02771e-124
1.48743e-16
7.12422e-17
3.6106e-17
1.99718e-17
1.28908e-17
1.05124e-17
9.84037e-18
9.15242e-18
7.18889e-18
3.30505e-18
4.91987e-19
1.29401e-20
5.6669e-23
9.64477e-26
1.09935e-28
9.32996e-32
5.99636e-35
2.97133e-38
1.12057e-41
3.25899e-45
7.18614e-49
1.18848e-52
1.47594e-56
1.31822e-60
8.30489e-65
3.48366e-69
9.13614e-74
1.42074e-78
1.26044e-83
7.19504e-89
3.12101e-94
9.04132e-100
1.76715e-105
2.54172e-111
2.83813e-117
-3.37499e-125
-8.53344e-128
9.89549e-17
4.73365e-17
2.46363e-17
1.4708e-17
1.1001e-17
1.00165e-17
9.52665e-18
8.38175e-18
5.3145e-18
1.48941e-18
9.68238e-20
9.45229e-22
2.22784e-24
2.94207e-27
2.80487e-30
2.02029e-33
1.10723e-36
4.68601e-40
1.51302e-43
3.76248e-47
7.08584e-51
9.97695e-55
1.04669e-58
7.79279e-63
4.02514e-67
1.35364e-71
2.82838e-76
3.59248e-81
2.81556e-86
1.59808e-91
6.30448e-97
1.70171e-102
3.52765e-108
6.5197e-114
9.86911e-120
7.83462e-126
-2.31222e-131
5.97321e-17
2.93377e-17
1.65034e-17
1.15417e-17
1.01404e-17
9.69565e-18