/*--------------------------------*- C++ -*----------------------------------*\
| =========                 |                                                 |
| \\      /  F ield         | OpenFOAM: The Open Source CFD Toolbox           |
|  \\    /   O peration     | Version:  v2012                                 |
|   \\  /    A nd           | Website:  www.openfoam.com                      |
|    \\/     M anipulation  |                                                 |
\*---------------------------------------------------------------------------*/
FoamFile
{
    version     2.0;
    format      ascii;
    class       volVectorField;
    location    "0.45";
    object      U;
}
// * * * * * * * * * * * * * * * * * * * * * * * * * * * * * * * * * * * * * //

dimensions      [0 1 -1 0 0 0 0];


internalField   nonuniform List<vector> 
2664
(
(0.00502491 -0.0099105 -4.38569e-05)
(0.00498159 -0.00930155 -4.34792e-05)
(0.00490771 -0.00869277 -4.28347e-05)
(0.00480461 -0.00808919 -4.19353e-05)
(0.00467447 -0.0074956 -4.07997e-05)
(0.00451981 -0.00691643 -3.94502e-05)
(0.00434354 -0.00635566 -3.79122e-05)
(0.00414882 -0.00581676 -3.62129e-05)
(0.00393897 -0.00530259 -3.43815e-05)
(0.00371736 -0.00481543 -3.24475e-05)
(0.00348738 -0.00435694 -3.04404e-05)
(0.00325226 -0.00392819 -2.83884e-05)
(0.00301508 -0.00352966 -2.63184e-05)
(0.00277866 -0.00316131 -2.42549e-05)
(0.00254554 -0.00282265 -2.22203e-05)
(0.00231794 -0.0025128 -2.02338e-05)
(0.00209778 -0.00223057 -1.83121e-05)
(0.00188659 -0.00197448 -1.64688e-05)
(0.00168561 -0.00174289 -1.47145e-05)
(0.00149576 -0.00153403 -1.30574e-05)
(0.00131768 -0.00134607 -1.1503e-05)
(0.0011518 -0.00117719 -1.00551e-05)
(0.000998276 -0.00102556 -8.71497e-06)
(0.000857097 -0.00088942 -7.48262e-06)
(0.000728128 -0.000767121 -6.35684e-06)
(0.000611097 -0.000657106 -5.33523e-06)
(0.000505653 -0.000557953 -4.41477e-06)
(0.00041137 -0.000468371 -3.59173e-06)
(0.00032781 -0.000387243 -2.86227e-06)
(0.000254522 -0.00031364 -2.22248e-06)
(0.000191065 -0.000246839 -1.66849e-06)
(0.000137025 -0.000186394 -1.19671e-06)
(9.20831e-05 -0.00013222 -8.04323e-07)
(5.59343e-05 -8.47331e-05 -4.8869e-07)
(2.8537e-05 -4.50359e-05 -2.49434e-07)
(9.69746e-06 -1.51735e-05 -8.49334e-08)
(2.68073e-07 1.84381e-06 -3.77999e-09)
(0.00531891 -0.0101552 -4.64232e-05)
(0.0052576 -0.00950129 -4.58884e-05)
(0.00516385 -0.00885074 -4.50705e-05)
(0.00503967 -0.00820884 -4.39871e-05)
(0.00488754 -0.0075807 -4.26597e-05)
(0.00471058 -0.00697086 -4.11155e-05)
(0.00451206 -0.00638336 -3.93832e-05)
(0.0042956 -0.00582163 -3.74943e-05)
(0.00406485 -0.0052884 -3.54804e-05)
(0.00382352 -0.00478574 -3.33743e-05)
(0.0035752 -0.00431507 -3.12071e-05)
(0.00332333 -0.00387713 -2.90089e-05)
(0.00307108 -0.00347207 -2.68073e-05)
(0.00282133 -0.00309953 -2.46276e-05)
(0.00257662 -0.00275866 -2.24917e-05)
(0.00233912 -0.00244825 -2.04187e-05)
(0.00211066 -0.0021668 -1.84246e-05)
(0.00189267 -0.00191256 -1.65219e-05)
(0.00168624 -0.00168361 -1.47201e-05)
(0.00149218 -0.00147798 -1.30262e-05)
(0.00131096 -0.00129364 -1.14444e-05)
(0.00114288 -0.00112863 -9.97728e-06)
(0.000987947 -0.000980971 -8.62484e-06)
(0.000846023 -0.000848824 -7.38598e-06)
(0.000716856 -0.000730454 -6.25845e-06)
(0.000600066 -0.000624251 -5.23894e-06)
(0.000495208 -0.000528756 -4.32359e-06)
(0.000401776 -0.000442655 -3.50797e-06)
(0.000319259 -0.000364818 -2.78763e-06)
(0.000247147 -0.000294319 -2.15809e-06)
(0.000184943 -0.00023044 -1.61504e-06)
(0.000132184 -0.000172751 -1.15443e-06)
(8.84989e-05 -0.000121189 -7.73018e-07)
(5.35339e-05 -7.61998e-05 -4.6772e-07)
(2.718e-05 -3.89225e-05 -2.37573e-07)
(9.17389e-06 -1.14577e-05 -8.03478e-08)
(2.35644e-07 3.10879e-06 -3.41278e-09)
(0.00562927 -0.0104001 -4.91322e-05)
(0.00554705 -0.00969819 -4.8415e-05)
(0.00543076 -0.00900334 -4.74004e-05)
(0.00528276 -0.00832123 -4.6109e-05)
(0.00510619 -0.00765715 -4.45684e-05)
(0.00490462 -0.00701577 -4.28094e-05)
(0.00468186 -0.00640112 -4.08656e-05)
(0.00444193 -0.00581651 -3.87717e-05)
(0.00418887 -0.00526448 -3.65631e-05)
(0.00392667 -0.00474683 -3.42749e-05)
(0.00365918 -0.00426464 -3.19403e-05)
(0.00338997 -0.00381831 -2.95907e-05)
(0.0031223 -0.00340759 -2.72545e-05)
(0.00285906 -0.00303173 -2.4957e-05)
(0.00260276 -0.00268952 -2.272e-05)
(0.0023555 -0.00237937 -2.05618e-05)
(0.00211898 -0.00209947 -1.84974e-05)
(0.0018945 -0.00184776 -1.6538e-05)
(0.001683 -0.00162207 -1.46919e-05)
(0.0014851 -0.00142019 -1.29645e-05)
(0.00130114 -0.00123993 -1.13587e-05)
(0.00113124 -0.00107916 -9.87568e-06)
(0.000975262 -0.000935799 -8.51414e-06)
(0.000832937 -0.000807896 -7.27176e-06)
(0.000703886 -0.000693656 -6.14524e-06)
(0.000587621 -0.000591422 -5.13031e-06)
(0.000483603 -0.000499703 -4.22228e-06)
(0.000391243 -0.000417169 -3.41602e-06)
(0.000309963 -0.000342685 -2.70646e-06)
(0.000239191 -0.000275327 -2.08863e-06)
(0.00017838 -0.000214389 -1.55774e-06)
(0.00012702 -0.00015946 -1.10933e-06)
(8.46908e-05 -0.000110497 -7.39758e-07)
(5.09901e-05 -6.79742e-05 -4.45497e-07)
(2.57438e-05 -3.3066e-05 -2.25021e-07)
(8.61941e-06 -7.9228e-06 -7.54921e-08)
(2.0025e-07 4.30055e-06 -3.01365e-09)
(0.0059568 -0.0106434 -5.19911e-05)
(0.00585043 -0.00989033 -5.10632e-05)
(0.0057083 -0.00914872 -4.9823e-05)
(0.00553351 -0.00842453 -4.82979e-05)
(0.00532971 -0.00772328 -4.65196e-05)
(0.0051011 -0.00704964 -4.45246e-05)
(0.00485196 -0.0064076 -4.23506e-05)
(0.0045868 -0.00580026 -4.00364e-05)
(0.00430999 -0.00522989 -3.76206e-05)
(0.00402585 -0.00469795 -3.51407e-05)
(0.0037384 -0.0042051 -3.2632e-05)
(0.00345134 -0.00375132 -3.01266e-05)
(0.00316799 -0.00333594 -2.76535e-05)
(0.00289121 -0.00295776 -2.52378e-05)
(0.00262343 -0.00261516 -2.29006e-05)
(0.00236664 -0.00230616 -2.06592e-05)
(0.0021224 -0.00202863 -1.85273e-05)
(0.00189182 -0.00178017 -1.65146e-05)
(0.00167566 -0.00155836 -1.46279e-05)
(0.00147437 -0.00136079 -1.28709e-05)
(0.0012881 -0.00118507 -1.12449e-05)
(0.0011168 -0.00102892 -9.74967e-06)
(0.000960177 -0.000890151 -8.38247e-06)
(0.000817815 -0.000766737 -7.13977e-06)
(0.00068921 -0.000656818 -6.01715e-06)
(0.000573766 -0.000558698 -5.00937e-06)
(0.000470847 -0.000470863 -4.11093e-06)
(0.000379786 -0.000391972 -3.316e-06)
(0.000299936 -0.000320893 -2.61893e-06)
(0.000230671 -0.000256707 -2.01424e-06)
(0.000171392 -0.000198724 -1.49672e-06)
(0.000121546 -0.000146551 -1.06153e-06)
(8.06679e-05 -0.000100168 -7.04623e-07)
(4.83092e-05 -6.00765e-05 -4.22077e-07)
(2.4232e-05 -2.74826e-05 -2.11808e-07)
(8.03546e-06 -4.58034e-06 -7.03783e-08)
(1.62608e-07 5.41358e-06 -2.58974e-09)
(0.00630139 -0.010883 -5.4999e-05)
(0.0061672 -0.0100756 -5.38282e-05)
(0.00599586 -0.00928472 -5.23332e-05)
(0.00579102 -0.00851674 -5.05459e-05)
(0.00555712 -0.00777722 -4.85047e-05)
(0.00529889 -0.00707084 -4.62512e-05)
(0.00502121 -0.00640139 -4.38281e-05)
(0.00472901 -0.00577171 -4.1278e-05)
(0.00442708 -0.0051837 -3.86428e-05)
(0.00411995 -0.00463836 -3.59624e-05)
(0.00381185 -0.00413591 -3.32733e-05)
(0.00350655 -0.00367581 -3.06087e-05)
(0.00320737 -0.0032569 -2.79974e-05)
(0.00291711 -0.0028775 -2.5464e-05)
(0.00263808 -0.00253555 -2.30285e-05)
(0.0023721 -0.00222867 -2.07069e-05)
(0.00212055 -0.00195435 -1.85112e-05)
(0.00188434 -0.0017099 -1.64494e-05)
(0.00166402 -0.00149264 -1.45264e-05)
(0.00145984 -0.00129992 -1.27441e-05)
(0.00127174 -0.00112918 -1.11022e-05)
(0.0010995 -0.000978027 -9.59871e-06)
(0.000942658 -0.000844151 -8.22957e-06)
(0.000800645 -0.000725457 -6.98991e-06)
(0.000672834 -0.000620038 -5.8742e-06)
(0.000558515 -0.000526164 -4.87624e-06)
(0.000456961 -0.000442308 -3.98971e-06)
(0.000367427 -0.000367128 -3.2081e-06)
(0.000289202 -0.000299494 -2.52521e-06)
(0.000221606 -0.000238503 -1.93509e-06)
(0.000163996 -0.00018348 -1.43214e-06)
(0.000115776 -0.000134053 -1.01114e-06)
(7.64414e-05 -9.02255e-05 -6.67708e-07)
(4.54988e-05 -5.25254e-05 -3.97524e-07)
(2.26488e-05 -2.21865e-05 -1.97971e-07)
(7.42349e-06 -1.44017e-06 -6.50191e-08)
(1.22852e-07 6.44334e-06 -2.14267e-09)
(0.00666354 -0.0111166 -5.81602e-05)
(0.00649742 -0.0102514 -5.67107e-05)
(0.00629286 -0.00940896 -5.49258e-05)
(0.00605445 -0.00859559 -5.28454e-05)
(0.00578724 -0.00781696 -5.05136e-05)
(0.0054967 -0.00707759 -4.79782e-05)
(0.00518823 -0.006381 -4.52862e-05)
(0.00486723 -0.00572964 -4.24847e-05)
(0.00453882 -0.00512494 -3.96184e-05)
(0.00420778 -0.00456736 -3.67292e-05)
(0.00387845 -0.00405656 -3.38549e-05)
(0.00355465 -0.00359144 -3.10287e-05)
(0.00323962 -0.00317028 -2.82792e-05)
(0.00293607 -0.00279089 -2.56297e-05)
(0.00264613 -0.00245072 -2.3099e-05)
(0.00237142 -0.00214698 -2.07011e-05)
(0.00211308 -0.00187678 -1.84462e-05)
(0.00187181 -0.00163711 -1.63402e-05)
(0.0016479 -0.00142505 -1.43857e-05)
(0.00144138 -0.00123773 -1.2583e-05)
(0.00125199 -0.00107243 -1.09298e-05)
(0.00107931 -0.000926631 -9.42243e-06)
(0.000922689 -0.000797931 -8.05527e-06)
(0.000781432 -0.000684175 -6.8222e-06)
(0.000654772 -0.000583418 -5.71653e-06)
(0.000541891 -0.000493909 -4.73112e-06)
(0.000441972 -0.000414116 -3.85886e-06)
(0.000354194 -0.000342699 -3.09258e-06)
(0.000277788 -0.000278542 -2.42556e-06)
(0.000212023 -0.000220756 -1.85142e-06)
(0.000156214 -0.00016869 -1.36418e-06)
(0.000109728 -0.000121993 -9.58332e-07)
(7.20244e-05 -8.0692e-05 -6.2913e-07)
(4.25676e-05 -4.53385e-05 -3.71917e-07)
(2.09992e-05 -1.71909e-05 -1.83553e-07)
(6.78543e-06 1.48864e-06 -5.94317e-08)
(8.13831e-08 7.3862e-06 -1.67604e-09)
(0.00704268 -0.0113409 -6.14697e-05)
(0.00684003 -0.010415 -5.97014e-05)
(0.00659812 -0.00951867 -5.75906e-05)
(0.00632232 -0.00865861 -5.51839e-05)
(0.00601855 -0.0078403 -5.25329e-05)
(0.00569291 -0.00706803 -4.96911e-05)
(0.00535141 -0.00634489 -4.67109e-05)
(0.00499988 -0.00567283 -4.36429e-05)
(0.00464376 -0.00505268 -4.05347e-05)
(0.00428801 -0.00448428 -3.74297e-05)
(0.00393703 -0.00396662 -3.43664e-05)
(0.00359461 -0.00349795 -3.13778e-05)
(0.0032639 -0.00307597 -2.84912e-05)
(0.0029474 -0.00269792 -2.57287e-05)
(0.00264704 -0.00236074 -2.3107e-05)
(0.00236417 -0.00206122 -2.06379e-05)
(0.00209968 -0.00179607 -1.83293e-05)
(0.00185399 -0.00156199 -1.61847e-05)
(0.00162714 -0.00135579 -1.42045e-05)
(0.0014189 -0.00117442 -1.23868e-05)
(0.00122879 -0.001015 -1.07273e-05)
(0.00105618 -0.00087489 -9.2206e-06)
(0.000900271 -0.000751632 -7.8596e-06)
(0.000760192 -0.000643015 -6.6368e-06)
(0.000635052 -0.000547065 -5.54439e-06)
(0.000523929 -0.000462024 -4.57432e-06)
(0.000425916 -0.00038636 -3.71869e-06)
(0.000340124 -0.000318747 -2.96974e-06)
(0.000265727 -0.000258087 -2.32026e-06)
(0.00020195 -0.00020351 -1.76347e-06)
(0.00014807 -0.00015439 -1.29307e-06)
(0.000103423 -0.000110399 -9.03269e-07)
(6.74318e-05 -7.15884e-05 -5.89019e-07)
(3.95257e-05 -3.85319e-05 -3.45342e-07)
(1.92888e-05 -1.25081e-05 -1.68605e-07)
(6.12341e-06 4.19767e-06 -5.36342e-08)
(3.82591e-08 8.2383e-06 -1.19124e-09)
(0.00743867 -0.0115528 -6.49263e-05)
(0.00719436 -0.0105629 -6.27945e-05)
(0.00691038 -0.00961085 -6.03164e-05)
(0.00659311 -0.00870306 -5.75477e-05)
(0.00624925 -0.00784489 -5.45469e-05)
(0.00588568 -0.00704018 -5.13741e-05)
(0.00550892 -0.00629147 -4.8086e-05)
(0.00512523 -0.00560006 -4.47373e-05)
(0.00474029 -0.00496603 -4.13776e-05)
(0.00435919 -0.00438849 -3.80514e-05)
(0.00398632 -0.00386569 -3.4797e-05)
(0.00362538 -0.00339516 -3.16466e-05)
(0.00327931 -0.00297394 -2.86259e-05)
(0.00295038 -0.00259866 -2.57549e-05)
(0.00264024 -0.00226577 -2.30478e-05)
(0.00234993 -0.00197157 -2.05137e-05)
(0.00208003 -0.00171244 -1.81579e-05)
(0.00183066 -0.00148475 -1.59811e-05)
(0.00160158 -0.00128508 -1.39815e-05)
(0.0013923 -0.00111018 -1.21546e-05)
(0.00120209 -0.000957057 -1.04943e-05)
(0.00103013 -0.000822974 -8.9932e-06)
(0.000875423 -0.000705403 -7.6427e-06)
(0.000736959 -0.000602104 -6.43399e-06)
(0.000613717 -0.000511089 -5.35815e-06)
(0.000504673 -0.000430601 -4.40622e-06)
(0.000408839 -0.000359119 -3.56961e-06)
(0.00032526 -0.000295337 -2.83997e-06)
(0.000253059 -0.000238179 -2.20966e-06)
(0.000191422 -0.000186804 -1.67155e-06)
(0.000139594 -0.00014061 -1.21906e-06)
(9.6883e-05 -9.92954e-05 -8.46156e-07)
(6.26809e-05 -6.29341e-05 -5.47524e-07)
(3.63846e-05 -3.21205e-05 -3.17902e-07)
(1.75243e-05 -8.14922e-06 -1.53183e-07)
(5.43991e-06 6.67946e-06 -4.76489e-08)
(-6.39788e-09 8.99664e-06 -6.88914e-10)
(0.0078502 -0.011748 -6.85187e-05)
(0.00755862 -0.0106915 -6.59743e-05)
(0.00722762 -0.00968203 -6.30858e-05)
(0.00686458 -0.00872598 -5.99176e-05)
(0.00647711 -0.00782822 -5.65362e-05)
(0.00607277 -0.00699201 -5.30074e-05)
(0.00565863 -0.00621916 -4.93932e-05)
(0.0052413 -0.00551013 -4.57507e-05)
(0.00482664 -0.00486416 -4.21316e-05)
(0.00441977 -0.00427947 -3.85805e-05)
(0.00402501 -0.00375349 -3.51349e-05)
(0.00364585 -0.00328297 -3.18254e-05)
(0.00328496 -0.00286422 -2.86755e-05)
(0.00294431 -0.00249326 -2.57021e-05)
(0.00262519 -0.002166 -2.29166e-05)
(0.00232829 -0.0018783 -2.0325e-05)
(0.00205385 -0.00162615 -1.79295e-05)
(0.00180164 -0.00140565 -1.57279e-05)
(0.00157113 -0.00121315 -1.37157e-05)
(0.00136153 -0.00104525 -1.18861e-05)
(0.00117189 -0.000898824 -1.02307e-05)
(0.00100117 -0.000771065 -8.74038e-06)
(0.000848183 -0.000659403 -7.40493e-06)
(0.000711782 -0.000561579 -6.21422e-06)
(0.000590823 -0.000475604 -5.15829e-06)
(0.000484182 -0.000399733 -4.22734e-06)
(0.000390797 -0.000332469 -3.4121e-06)
(0.000309653 -0.000272529 -2.70372e-06)
(0.00023983 -0.00021887 -2.09416e-06)
(0.000180479 -0.000170678 -1.576e-06)
(0.000130819 -0.000127382 -1.14244e-06)
(9.01339e-05 -8.87058e-05 -7.87218e-07)
(5.77908e-05 -5.47471e-05 -5.04813e-07)
(3.31571e-05 -2.61179e-05 -2.89706e-07)
(1.57127e-05 -4.12399e-06 -1.37351e-07)
(4.73771e-06 8.92737e-06 -4.14998e-08)
(-5.2595e-08 9.65826e-06 -1.70097e-10)
(0.00827601 -0.0119222 -7.22357e-05)
(0.00793099 -0.0107966 -6.92249e-05)
(0.00754757 -0.00972858 -6.58789e-05)
(0.00713424 -0.0087242 -6.22719e-05)
(0.00669952 -0.00778768 -5.84779e-05)
(0.00625164 -0.00692144 -5.45691e-05)
(0.00579814 -0.00612637 -5.06113e-05)
(0.00534591 -0.00540192 -4.66642e-05)
(0.00490088 -0.00474632 -4.27799e-05)
(0.00446811 -0.0041568 -3.90026e-05)
(0.00405171 -0.00362984 -3.53682e-05)
(0.00365489 -0.00316137 -3.19046e-05)
(0.00327997 -0.00274695 -2.86321e-05)
(0.00292851 -0.00238195 -2.55643e-05)
(0.00260139 -0.00206172 -2.2709e-05)
(0.00229891 -0.0017817 -2.00686e-05)
(0.00202091 -0.00153751 -1.7642e-05)
(0.00176679 -0.001325 -1.54238e-05)
(0.00153571 -0.0011403 -1.34066e-05)
(0.00132658 -0.00097988 -1.15811e-05)
(0.00113821 -0.000840519 -9.93672e-06)
(0.000969338 -0.000719355 -8.46255e-06)
(0.000818612 -0.000613796 -7.14679e-06)
(0.000684731 -0.000521577 -5.97808e-06)
(0.00056644 -0.000440724 -4.94544e-06)
(0.000462526 -0.000369516 -4.03828e-06)
(0.000371854 -0.000306485 -3.24673e-06)
(0.000293363 -0.000250385 -2.5615e-06)
(0.000226093 -0.000200206 -1.97422e-06)
(0.000169166 -0.000155169 -1.47722e-06)
(0.000121781 -0.000114733 -1.06352e-06)
(8.32047e-05 -7.86517e-05 -7.26707e-07)
(5.27826e-05 -4.70433e-05 -4.61072e-07)
(2.98576e-05 -2.05356e-05 -2.60882e-07)
(1.38623e-05 -4.40791e-07 -1.21179e-07)
(4.01994e-06 1.09358e-05 -3.52144e-08)
(-1.00222e-07 1.02207e-05 3.64099e-10)
(0.00871373 -0.01207 -7.60568e-05)
(0.0083086 -0.0108733 -7.25213e-05)
(0.00786712 -0.00974636 -6.86686e-05)
(0.0073989 -0.00869432 -6.45824e-05)
(0.00691335 -0.00772054 -6.03449e-05)
(0.00641933 -0.00682639 -5.60333e-05)
(0.00592475 -0.00601159 -5.17168e-05)
(0.00543665 -0.00527441 -4.74566e-05)
(0.00496093 -0.00461189 -4.33044e-05)
(0.00450244 -0.00402017 -3.93026e-05)
(0.00406499 -0.0034947 -3.54844e-05)
(0.00365136 -0.00303052 -3.1874e-05)
(0.00326344 -0.00262239 -2.8488e-05)
(0.00290232 -0.00226504 -2.53358e-05)
(0.00256838 -0.00195329 -2.24209e-05)
(0.00226147 -0.00168214 -1.97419e-05)
(0.001981 -0.00144689 -1.72937e-05)
(0.00172601 -0.00124312 -1.50678e-05)
(0.00149529 -0.00106683 -1.30538e-05)
(0.00128747 -0.000914338 -1.12397e-05)
(0.0011011 -0.000782378 -9.61279e-06)
(0.000934715 -0.000668047 -8.16033e-06)
(0.000786792 -0.000568751 -6.86903e-06)
(0.000655893 -0.00048224 -5.72634e-06)
(0.000540655 -0.000406565 -4.72035e-06)
(0.000439785 -0.000340042 -3.83975e-06)
(0.000352088 -0.000281243 -3.07416e-06)
(0.000276458 -0.000228963 -2.41391e-06)
(0.000211905 -0.000182234 -1.85035e-06)
(0.000157532 -0.000140312 -1.37564e-06)
(0.000112521 -0.000102691 -9.8266e-07)
(7.6127e-05 -6.91526e-05 -6.64898e-07)
(4.76797e-05 -3.98367e-05 -4.16503e-07)
(2.65015e-05 -1.53836e-05 -2.31563e-07)
(1.19819e-05 2.89355e-06 -1.04745e-07)
(3.29005e-06 1.27004e-05 -2.8823e-08)
(-1.49115e-07 1.0682e-05 9.11458e-10)
(0.0091603 -0.0121856 -7.99552e-05)
(0.00868796 -0.0109168 -7.58331e-05)
(0.00818255 -0.00973109 -7.14224e-05)
(0.00765483 -0.00863284 -6.68168e-05)
(0.00711502 -0.00762409 -6.21057e-05)
(0.00657252 -0.00670486 -5.73709e-05)
(0.00603548 -0.00587345 -5.26838e-05)
(0.00551093 -0.00512674 -4.81054e-05)
(0.00500459 -0.00446044 -4.36859e-05)
(0.00452097 -0.00386946 -3.94646e-05)
(0.0040634 -0.00334818 -3.54707e-05)
(0.00363415 -0.00289067 -3.1724e-05)
(0.00323455 -0.00249091 -2.8236e-05)
(0.00286513 -0.00214298 -2.50113e-05)
(0.00252573 -0.00184116 -2.20487e-05)
(0.0022157 -0.00158005 -1.93425e-05)
(0.001934 -0.00135468 -1.68834e-05)
(0.00167924 -0.0011604 -1.46596e-05)
(0.00144988 -0.000993059 -1.26574e-05)
(0.00124425 -0.000848915 -1.08624e-05)
(0.00106064 -0.000724648 -9.25965e-06)
(0.000897399 -0.000617349 -7.83459e-06)
(0.000752831 -0.000524443 -6.57257e-06)
(0.000625375 -0.000443709 -5.45992e-06)
(0.000513571 -0.000373243 -4.48391e-06)
(0.000416056 -0.000311404 -3.6326e-06)
(0.000331583 -0.000256816 -2.89515e-06)
(0.000259013 -0.000208322 -2.2616e-06)
(0.000197333 -0.000164996 -1.72311e-06)
(0.000145631 -0.000126139 -1.27173e-06)
(0.000103082 -9.12786e-05 -9.00243e-07)
(6.89351e-05 -6.02253e-05 -6.02093e-07)
(4.25074e-05 -3.3139e-05 -3.71329e-07)
(2.3106e-05 -1.06696e-05 -2.019e-07)
(1.00813e-05 5.8739e-06 -8.81336e-08)
(2.55187e-06 1.42179e-05 -2.2359e-08)
(-1.99037e-07 1.10407e-05 1.46934e-09)
(0.0096117 -0.0122622 -8.38958e-05)
(0.00906463 -0.0109211 -7.91215e-05)
(0.0084893 -0.00967812 -7.41005e-05)
(0.00789757 -0.00853613 -6.89362e-05)
(0.00730037 -0.00749561 -6.37241e-05)
(0.00670745 -0.00655494 -5.85492e-05)
(0.00612703 -0.00571072 -5.34833e-05)
(0.00556596 -0.00495824 -4.85861e-05)
(0.00502956 -0.00429172 -4.39042e-05)
(0.00452184 -0.00370476 -3.94725e-05)
(0.0040455 -0.00319058 -3.53148e-05)
(0.00360217 -0.00274227 -3.14451e-05)
(0.00319251 -0.00235303 -2.78692e-05)
(0.00281641 -0.00201629 -2.45862e-05)
(0.00247312 -0.00172585 -2.15896e-05)
(0.00216143 -0.00147595 -1.88688e-05)
(0.00187982 -0.00126134 -1.64106e-05)
(0.0016265 -0.00107724 -1.41993e-05)
(0.00139955 -0.000919356 -1.22181e-05)
(0.00119702 -0.000783917 -1.04502e-05)
(0.00101697 -0.000667587 -8.87837e-06)
(0.000857522 -0.000567477 -7.48649e-06)
(0.000716861 -0.000481047 -6.25857e-06)
(0.000593304 -0.000406129 -5.17995e-06)
(0.000485307 -0.000340871 -4.23716e-06)
(0.000391446 -0.000283693 -3.41775e-06)
(0.000310435 -0.000233275 -2.71052e-06)
(0.000241111 -0.000188513 -2.1053e-06)
(0.000182446 -0.000148534 -1.59314e-06)
(0.000133522 -0.00011268 -1.166e-06)
(9.35136e-05 -8.05174e-05 -8.16688e-07)
(6.16664e-05 -5.18842e-05 -5.38616e-07)
(3.72932e-05 -2.69595e-05 -3.25787e-07)
(1.96895e-05 -6.39943e-06 -1.72053e-07)
(8.17088e-06 8.49698e-06 -7.14377e-08)
(1.80957e-06 1.54863e-05 -1.58591e-08)
(-2.49723e-07 1.12956e-05 2.0347e-09)
(0.0100624 -0.0122929 -8.78305e-05)
(0.00943295 -0.0108805 -8.23371e-05)
(0.00878186 -0.00958277 -7.66548e-05)
(0.00812195 -0.00840063 -7.08953e-05)
(0.0074647 -0.00733259 -6.51589e-05)
(0.00681998 -0.00637497 -5.95319e-05)
(0.00619587 -0.00552246 -5.40847e-05)
(0.0055988 -0.00476852 -4.88732e-05)
(0.00503348 -0.00410577 -4.39388e-05)
(0.0045032 -0.00352638 -3.93101e-05)
(0.0040099 -0.00302239 -3.50042e-05)
(0.00355441 -0.00258592 -3.10284e-05)
(0.00313663 -0.00220939 -2.73816e-05)
(0.00275572 -0.00188562 -2.40566e-05)
(0.00241029 -0.00160798 -2.10413e-05)
(0.00209855 -0.00137039 -1.832e-05)
(0.00181848 -0.0011674 -1.58752e-05)
(0.00156786 -0.000994077 -1.36874e-05)
(0.00134442 -0.000846099 -1.1737e-05)
(0.00114594 -0.000719664 -1.00043e-05)
(0.000970226 -0.000611462 -8.47037e-06)
(0.000815247 -0.000518648 -7.11746e-06)
(0.000679041 -0.000438742 -5.92841e-06)
(0.000559829 -0.00036964 -4.88772e-06)
(0.000455998 -0.000309563 -3.98128e-06)
(0.000366076 -0.000256996 -3.19627e-06)
(0.000288751 -0.000210685 -2.52121e-06)
(0.000222844 -0.000169588 -1.94582e-06)
(0.000167323 -0.000132884 -1.4611e-06)
(0.000121271 -9.99618e-05 -1.05903e-06)
(8.38662e-05 -7.04251e-05 -7.32446e-07)
(5.43609e-05 -4.41408e-05 -4.74819e-07)
(3.20665e-05 -2.13048e-05 -2.80137e-07)
(1.62717e-05 -2.57631e-06 -1.42195e-07)
(6.26221e-06 1.07615e-05 -5.47568e-08)
(1.06774e-06 1.65052e-05 -9.3633e-09)
(-3.00851e-07 1.14466e-05 2.60397e-09)
(0.010506 -0.0122695 -9.17028e-05)
(0.00978631 -0.0107886 -8.54222e-05)
(0.00905382 -0.00944017 -7.90293e-05)
(0.00832204 -0.00822286 -7.26426e-05)
(0.00760272 -0.00713268 -6.63643e-05)
(0.00690559 -0.00616359 -6.02797e-05)
(0.00623824 -0.00530805 -5.4455e-05)
(0.0056064 -0.00455753 -4.894e-05)
(0.00501396 -0.00390291 -4.37687e-05)
(0.00446326 -0.00333491 -3.89618e-05)
(0.00395529 -0.00284436 -3.45278e-05)
(0.00348997 -0.00242243 -3.04661e-05)
(0.00306633 -0.0020608 -2.6768e-05)
(0.00268274 -0.00175175 -2.34196e-05)
(0.00233711 -0.00148827 -2.04026e-05)
(0.00202706 -0.00126402 -1.7696e-05)
(0.00175007 -0.00107339 -1.5278e-05)
(0.00150347 -0.000911394 -1.31254e-05)
(0.00128469 -0.000773684 -1.12155e-05)
(0.0010912 -0.000656486 -9.52646e-06)
(0.000920629 -0.000556545 -8.03741e-06)
(0.000770772 -0.000471082 -6.72921e-06)
(0.000639555 -0.000397701 -5.58371e-06)
(0.000525118 -0.000334382 -4.5847e-06)
(0.000425795 -0.000279425 -3.71761e-06)
(0.000340081 -0.000231395 -2.96932e-06)
(0.000266647 -0.00018911 -2.32823e-06)
(0.000204312 -0.000151593 -1.78402e-06)
(0.000152047 -0.00011808 -1.32772e-06)
(0.000108945 -8.80066e-05 -9.51403e-07)
(7.41954e-05 -6.10163e-05 -6.48e-07)
(4.70614e-05 -3.70033e-05 -4.11073e-07)
(2.68587e-05 -1.61788e-05 -2.34652e-07)
(1.28741e-05 7.98905e-07 -1.12513e-07)
(4.36757e-06 1.26681e-05 -3.81985e-08)
(3.31351e-07 1.72756e-05 -2.91514e-09)
(-3.52059e-07 1.14939e-05 3.17314e-09)
(0.0109334 -0.012184 -9.54349e-05)
(0.0101163 -0.010639 -8.83031e-05)
(0.00929751 -0.00924571 -8.11572e-05)
(0.00849106 -0.00799967 -7.41186e-05)
(0.00770864 -0.00689399 -6.72895e-05)
(0.00695942 -0.00591987 -6.07501e-05)
(0.0062502 -0.0050673 -5.45599e-05)
(0.0055857 -0.0043256 -4.87597e-05)
(0.00496867 -0.00368384 -4.33737e-05)
(0.00440031 -0.00313125 -3.84126e-05)
(0.0038805 -0.00265747 -3.38752e-05)
(0.0034081 -0.00225279 -2.97516e-05)
(0.00298118 -0.00190821 -2.60249e-05)
(0.00259727 -0.00161555 -2.26737e-05)
(0.00225357 -0.00136749 -1.96734e-05)
(0.00194708 -0.00115751 -1.69979e-05)
(0.00167476 -0.000979909 -1.46207e-05)
(0.00143357 -0.000829684 -1.25152e-05)
(0.00122059 -0.000702524 -1.0656e-05)
(0.00103307 -0.000594721 -9.01897e-06)
(0.000868422 -0.000503106 -7.58167e-06)
(0.000724328 -0.000424997 -6.32377e-06)
(0.000598616 -0.000358098 -5.22632e-06)
(0.000489364 -0.000300488 -4.27256e-06)
(0.000394867 -0.000250561 -3.44761e-06)
(0.000313607 -0.000206969 -2.73819e-06)
(0.00024425 -0.000168607 -2.13268e-06)
(0.000185621 -0.000134569 -1.62083e-06)
(0.000136707 -0.00010415 -1.19379e-06)
(9.66176e-05 -7.68331e-05 -8.43768e-07)
(6.456e-05 -5.23019e-05 -5.63863e-07)
(3.98135e-05 -3.0477e-05 -3.47778e-07)
(2.17033e-05 -1.15823e-05 -1.89625e-07)
(9.5191e-06 3.72802e-06 -8.32045e-08)
(2.50014e-06 1.422e-05 -2.18781e-08)
(-3.94204e-07 1.78003e-05 3.43799e-09)
(-4.02915e-07 1.14386e-05 3.73757e-09)
(0.0113351 -0.0120275 -9.89415e-05)
(0.0104135 -0.0104254 -9.08988e-05)
(0.00950441 -0.008995 -8.29639e-05)
(0.0086216 -0.00772839 -7.52588e-05)
(0.00777619 -0.00661517 -6.78798e-05)
(0.0069764 -0.00564347 -6.08989e-05)
(0.00622777 -0.00480058 -5.43646e-05)
(0.00553367 -0.00407357 -4.83059e-05)
(0.00489542 -0.00344965 -4.27346e-05)
(0.00431286 -0.00291661 -3.76495e-05)
(0.00378457 -0.00246298 -3.3038e-05)
(0.00330825 -0.00207821 -2.88801e-05)
(0.00288094 -0.00175274 -2.515e-05)
(0.00249931 -0.00147803 -2.18186e-05)
(0.0021598 -0.00124652 -1.8855e-05)
(0.00185883 -0.00105161 -1.62276e-05)
(0.00159286 -0.000887576 -1.39058e-05)
(0.00135847 -0.000749462 -1.18597e-05)
(0.00115246 -0.000633039 -1.00612e-05)
(0.00097184 -0.000534707 -8.4845e-06)
(0.000813895 -0.000451416 -7.10567e-06)
(0.000676182 -0.000380604 -5.90346e-06)
(0.000556462 -0.000320097 -4.85832e-06)
(0.000452775 -0.000268086 -3.95314e-06)
(0.000363399 -0.000223067 -3.17288e-06)
(0.000286813 -0.000183789 -2.50427e-06)
(0.000221694 -0.000149229 -1.93575e-06)
(0.000166886 -0.000118553 -1.45726e-06)
(0.000121399 -9.11172e-05 -1.06013e-06)
(8.43673e-05 -6.64558e-05 -7.36802e-07)
(5.50222e-05 -4.4289e-05 -4.80577e-07)
(3.26652e-05 -2.45632e-05 -2.85352e-07)
(1.66358e-05 -7.51314e-06 -1.45365e-07)
(6.23093e-06 6.21563e-06 -5.44792e-08)
(6.74036e-07 1.54225e-05 -5.91895e-09)
(-1.10308e-06 1.80838e-05 9.64499e-09)
(-4.5296e-07 1.12825e-05 4.2922e-09)
(0.0116977 -0.0117917 -0.000102108)
(0.0106665 -0.0101418 -9.31075e-05)
(0.00966463 -0.00868436 -8.43633e-05)
(0.00870539 -0.00740706 -7.59909e-05)
(0.00779873 -0.0062956 -6.80772e-05)
(0.00695131 -0.00533472 -6.06804e-05)
(0.00616702 -0.00450886 -5.38348e-05)
(0.00544745 -0.00380279 -4.75536e-05)
(0.00479224 -0.0032019 -4.18343e-05)
(0.00419963 -0.0026926 -3.66613e-05)
(0.00366677 -0.00226241 -3.20099e-05)
(0.0031901 -0.00190009 -2.78489e-05)
(0.0027656 -0.00159565 -2.41433e-05)
(0.00238903 -0.00134027 -2.0856e-05)
(0.00205612 -0.00112629 -1.79499e-05)
(0.00176269 -0.000947099 -1.53884e-05)
(0.00150477 -0.000797037 -1.31368e-05)
(0.00127858 -0.000671251 -1.11623e-05)
(0.00108068 -0.000565651 -9.43462e-06)
(0.000907892 -0.00047678 -7.92626e-06)
(0.000757385 -0.000401739 -6.61235e-06)
(0.000626633 -0.00033811 -5.4709e-06)
(0.000513359 -0.000283856 -4.48203e-06)
(0.000415585 -0.000237294 -3.62846e-06)
(0.000331591 -0.000197033 -2.89518e-06)
(0.00025987 -0.00016192 -2.26904e-06)
(0.000199125 -0.00013102 -1.73871e-06)
(0.000148229 -0.000103575 -1.29437e-06)
(0.000106224 -7.90017e-05 -9.2763e-07)
(7.22758e-05 -5.68843e-05 -6.31224e-07)
(4.56475e-05 -3.69804e-05 -3.98715e-07)
(2.56672e-05 -1.926e-05 -2.24239e-07)
(1.16935e-05 -3.96569e-06 -1.02199e-07)
(3.03505e-06 8.26925e-06 -2.656e-08)
(-1.0957e-06 1.62835e-05 9.54758e-09)
(-1.78893e-06 1.81324e-05 1.56504e-08)
(-5.01648e-07 1.10283e-05 4.83115e-09)
(0.0120076 -0.0114679 -0.000104814)
(0.0108628 -0.0097829 -9.48226e-05)
(0.00976764 -0.00831095 -8.52634e-05)
(0.00873384 -0.00703471 -7.624e-05)
(0.00776945 -0.00593563 -6.78223e-05)
(0.00687902 -0.00499484 -6.005e-05)
(0.00606421 -0.00419389 -5.29378e-05)
(0.00532449 -0.00351525 -4.64807e-05)
(0.00465751 -0.00294262 -4.06584e-05)
(0.00405971 -0.00246116 -3.54402e-05)
(0.00352672 -0.00205756 -3.07875e-05)
(0.00305365 -0.00172005 -2.66579e-05)
(0.00263539 -0.00143832 -2.30067e-05)
(0.00226683 -0.00120345 -1.97894e-05)
(0.001943 -0.00100779 -1.69625e-05)
(0.00165918 -0.000844792 -1.44848e-05)
(0.001411 -0.00070895 -1.23183e-05)
(0.0011944 -0.000595581 -1.04275e-05)
(0.00100572 -0.000500777 -8.78026e-06)
(0.000841649 -0.000421267 -7.34797e-06)
(0.00069927 -0.000354328 -6.10502e-06)
(0.000576017 -0.000297707 -5.02903e-06)
(0.000469599 -0.000249521 -4.1e-06)
(0.000378045 -0.000208221 -3.30073e-06)
(0.000299657 -0.000172536 -2.61639e-06)
(0.000232962 -0.000141417 -2.03411e-06)
(0.000176697 -0.000114019 -1.5429e-06)
(0.000129778 -8.96588e-05 -1.13327e-06)
(9.1287e-05 -6.7816e-05 -7.97211e-07)
(6.04294e-05 -4.81234e-05 -5.27784e-07)
(3.65044e-05 -3.03747e-05 -3.18876e-07)
(1.88726e-05 -1.45614e-05 -1.64902e-07)
(6.91572e-06 -9.30958e-07 -6.04687e-08)
(-4.16788e-08 9.89943e-06 3.18268e-10)
(-2.79309e-06 1.68134e-05 2.43817e-08)
(-2.44494e-06 1.79545e-05 2.13944e-08)
(-5.48361e-07 1.06797e-05 5.34781e-09)
(0.0122468 -0.0110494 -0.000106904)
(0.0109878 -0.00934497 -9.59147e-05)
(0.00980171 -0.00787337 -8.55618e-05)
(0.00869783 -0.0066117 -7.59265e-05)
(0.00768157 -0.00553679 -6.70558e-05)
(0.00675464 -0.00462606 -5.89648e-05)
(0.00591604 -0.00385821 -5.16448e-05)
(0.0051627 -0.00321358 -4.50687e-05)
(0.00449007 -0.00267434 -3.91971e-05)
(0.00389265 -0.00222463 -3.39821e-05)
(0.00336444 -0.00185051 -2.93711e-05)
(0.00289923 -0.00153987 -2.53101e-05)
(0.00249085 -0.00128228 -2.17451e-05)
(0.00213335 -0.00106885 -1.86243e-05)
(0.00182112 -0.000892041 -1.58986e-05)
(0.00154899 -0.000745517 -1.35229e-05)
(0.00131222 -0.000623975 -1.1456e-05)
(0.00110654 -0.00052297 -9.66046e-06)
(0.000928124 -0.000438822 -8.1029e-06)
(0.000773593 -0.000368478 -6.75385e-06)
(0.000639976 -0.00030942 -5.58738e-06)
(0.000524702 -0.000259575 -4.58104e-06)
(0.000425497 -0.000217224 -3.71498e-06)
(0.000340425 -0.000180963 -2.97229e-06)
(0.000267827 -0.000149645 -2.3385e-06)
(0.00020628 -0.000122327 -1.80117e-06)
(0.000154571 -9.82553e-05 -1.34972e-06)
(0.000111668 -7.68214e-05 -9.75148e-07)
(7.66992e-05 -5.75673e-05 -6.69839e-07)
(4.89179e-05 -4.01728e-05 -4.27269e-07)
(2.76649e-05 -2.44658e-05 -2.41686e-07)
(1.23369e-05 -1.04572e-05 -1.07825e-07)
(2.34349e-06 1.60364e-06 -2.05343e-08)
(-2.97097e-06 1.11199e-05 2.59086e-08)
(-4.40116e-06 1.70256e-05 3.84354e-08)
(-3.06373e-06 1.75605e-05 2.68124e-08)
(-5.92372e-07 1.02415e-05 5.83456e-09)
(0.0123978 -0.0105302 -0.000108223)
(0.0110269 -0.00882574 -9.62565e-05)
(0.00975517 -0.00737194 -8.51564e-05)
(0.00858857 -0.00613999 -7.49736e-05)
(0.00752873 -0.00510199 -6.57223e-05)
(0.00657389 -0.00423175 -5.73875e-05)
(0.00571982 -0.0035053 -4.99324e-05)
(0.00496065 -0.0029011 -4.33053e-05)
(0.00428938 -0.0024001 -3.74455e-05)
(0.00369852 -0.00198569 -3.22876e-05)
(0.00318043 -0.00164356 -2.77649e-05)
(0.0027276 -0.00136149 -2.38119e-05)
(0.00233286 -0.00112912 -2.03659e-05)
(0.00198951 -0.000937751 -1.73686e-05)
(0.0016914 -0.000780095 -1.47662e-05)
(0.00143295 -0.0006501 -1.251e-05)
(0.0012092 -0.00054276 -1.05567e-05)
(0.00101569 -0.00045392 -8.86736e-06)