/*--------------------------------*- C++ -*----------------------------------*\
| =========                 |                                                 |
| \\      /  F ield         | OpenFOAM: The Open Source CFD Toolbox           |
|  \\    /   O peration     | Version:  v2012                                 |
|   \\  /    A nd           | Website:  www.openfoam.com                      |
|    \\/     M anipulation  |                                                 |
\*---------------------------------------------------------------------------*/
FoamFile
{
    version     2.0;
    format      ascii;
    class       volVectorField;
    location    "0.75";
    object      U;
}
// * * * * * * * * * * * * * * * * * * * * * * * * * * * * * * * * * * * * * //

dimensions      [0 1 -1 0 0 0 0];


internalField   nonuniform List<vector> 
2650
(
(-2.21426 -33.5758 0.0193245)
(-1.4322 -11.9074 0.0125048)
(-0.361022 -4.41977 0.0031531)
(-0.498479 -1.69487 0.00435159)
(0.188044 -0.256607 -0.00164129)
(0.235768 -36.1045 -0.0020596)
(0.0642768 -12.7991 -0.000560392)
(-0.0591694 -5.01147 0.000517245)
(0.086791 -1.79173 -0.000757002)
(-0.0331795 -0.329904 0.000290209)
(-1.11747 -34.9311 0.00975199)
(-0.962409 -11.5257 0.00840277)
(-0.391714 -4.52347 0.00342052)
(-0.439959 -1.84258 0.00384091)
(0.108723 -0.329166 -0.000948259)
(-0.000397733 -36.0564 3.80858e-06)
(-0.23124 -11.9245 0.00201968)
(-0.111701 -5.11909 0.000975915)
(-0.0681878 -2.22651 0.000595668)
(0.0517174 -0.692528 -0.000451046)
(-0.300867 -34.2979 0.00262725)
(-0.507424 -10.8921 0.00443038)
(-0.372473 -4.67017 0.00325185)
(-0.225566 -2.1408 0.00196946)
(0.0216625 -0.49844 -0.000188452)
(-0.331509 -33.2486 0.00289537)
(-0.456236 -10.6519 0.00398343)
(-0.254127 -5.02083 0.00221871)
(-0.115084 -2.6114 0.00100487)
(0.0332138 -0.881037 -0.000289223)
(-0.455548 -31.4914 0.00397818)
(-0.515481 -10.0359 0.00450028)
(-0.310274 -4.91017 0.00270858)
(-0.155354 -2.57604 0.00135633)
(0.00882612 -0.73459 -7.66116e-05)
(-0.521604 -29.6931 0.00455458)
(-0.506107 -9.73118 0.00441815)
(-0.281707 -5.15251 0.00245909)
(-0.1215 -2.93908 0.00106074)
(0.0191356 -1.00954 -0.000166262)
(-0.578423 -27.6535 0.0050501)
(-0.518078 -9.31158 0.00452232)
(-0.298182 -5.17869 0.0026028)
(-0.13239 -3.00866 0.00115581)
(0.00424626 -0.977047 -3.66697e-05)
(-0.614118 -25.5529 0.00536105)
(-0.514767 -9.01702 0.00449314)
(-0.289132 -5.35245 0.00252377)
(-0.116084 -3.26488 0.00101347)
(0.0113057 -1.12589 -9.78825e-05)
(-0.639471 -23.3567 0.00558159)
(-0.520074 -8.69283 0.00453924)
(-0.301951 -5.46178 0.00263568)
(-0.120761 -3.43638 0.00105438)
(0.0023914 -1.21401 -2.05109e-05)
(-0.652047 -21.1201 0.00569059)
(-0.514034 -8.38214 0.00448637)
(-0.296381 -5.57475 0.0025871)
(-0.106678 -3.60082 0.000931481)
(0.0113212 -1.22634 -9.80043e-05)
(-0.653579 -18.8837 0.0057033)
(-0.516286 -8.11764 0.00450596)
(-0.319691 -5.75851 0.00279063)
(-0.113534 -3.88818 0.000991461)
(0.0121069 -1.44833 -0.000105535)
(-0.633772 -16.6309 0.00552999)
(-0.501169 -7.73455 0.00437401)
(-0.3291 -5.77993 0.0028728)
(-0.117791 -3.97378 0.00102865)
(0.031135 -1.27833 -0.000270946)
(-0.593492 -14.5325 0.00517829)
(-0.503374 -7.47187 0.00439328)
(-0.402263 -5.99144 0.00351141)
(-0.18262 -4.44055 0.00159471)
(0.0373215 -1.71364 -0.000325728)
(-0.523728 -12.4591 0.00456952)
(-0.508474 -6.83797 0.00443776)
(-0.530618 -5.73043 0.00463158)
(-0.372024 -4.43949 0.00324778)
(-0.089388 -1.33607 0.000784402)
(-0.463675 -10.6804 0.00404566)
(-0.530726 -6.21925 0.00463193)
(-0.756194 -5.55236 0.00660023)
(-0.684792 -4.93042 0.00597761)
(-0.546223 -2.62505 0.00477084)
(-0.436798 -8.82186 0.00381132)
(-0.716219 -4.93588 0.00625066)
(-1.24042 -4.35981 0.0108259)
(-1.71839 -4.02889 0.0149976)
(-2.18215 -2.85109 0.0190416)
(-1.52163 -0.38262 0.0132836)
(-0.875516 -0.185294 0.00764153)
(-0.655446 -0.104159 0.00572069)
(-0.393189 -0.0630638 0.00343195)
(-0.299883 -0.0361534 0.0026173)
(-0.190161 -0.0212223 0.00165982)
(-0.146233 -0.0121673 0.0012763)
(-0.0996349 -0.0069218 0.000869688)
(-0.0775416 -0.00406086 0.000676807)
(-0.0569269 -0.00230408 0.000496922)
(-0.0452598 -0.00142793 0.000395069)
(-0.0354097 -0.000852495 0.000309107)
(-0.0289418 -0.000570205 0.000252644)
(-0.0237448 -0.00037271 0.000207284)
(-0.019957 -0.000266984 0.000174217)
(-0.0169349 -0.000189903 0.000147836)
(-0.0145806 -0.000142561 0.000127284)
(-0.0126706 -0.000107523 0.00011061)
(-0.0111151 -8.36064e-05 9.70318e-05)
(-0.00981976 -6.58327e-05 8.57235e-05)
(-0.00872774 -5.2988e-05 7.61905e-05)
(-0.00779177 -4.33845e-05 6.80198e-05)
(-0.00697847 -3.62434e-05 6.09201e-05)
(-0.00626175 -3.08526e-05 5.46637e-05)
(-0.00562213 -2.67667e-05 4.90804e-05)
(-0.00504468 -2.36304e-05 4.40398e-05)
(-0.431507 -6.66973 0.00376531)
(-0.563297 -2.93383 0.00491615)
(-0.900669 -2.05496 0.00786075)
(-1.21285 -1.72817 0.0105855)
(-1.63909 -1.42229 0.0143061)
(-1.39258 -0.808892 0.012156)
(-0.921405 -0.593095 0.0080437)
(-0.770879 -0.358388 0.0067293)
(-0.537332 -0.258508 0.00469093)
(-0.444532 -0.161817 0.00388058)
(-0.324623 -0.113608 0.00283402)
(-0.265302 -0.0730073 0.00231604)
(-0.202088 -0.0502639 0.00176429)
(-0.164828 -0.0331292 0.00143895)
(-0.130475 -0.0227224 0.00113909)
(-0.107485 -0.015405 0.00093835)
(-0.0880444 -0.0107042 0.000768649)
(-0.0738647 -0.0074874 0.000644847)
(-0.0623095 -0.00533397 0.000543973)
(-0.0533871 -0.00385477 0.000466074)
(-0.0461405 -0.00283229 0.00040281)
(-0.0403161 -0.00211669 0.00035196)
(-0.0355125 -0.00160968 0.000310024)
(-0.0315248 -0.00124775 0.000275209)
(-0.0281561 -0.000986939 0.0002458)
(-0.0252756 -0.000798129 0.000220653)
(-0.0227757 -0.000660694 0.000198829)
(-0.0205773 -0.000560333 0.000179637)
(-0.0186182 -0.000486687 0.000162534)
(-0.0168512 -0.000432278 0.00014711)
(-0.0152399 -0.000391571 0.000133044)
(-0.389302 -5.25056 0.00339715)
(-0.396634 -2.62959 0.00346175)
(-0.474378 -1.90507 0.00414041)
(-0.544224 -1.53647 0.00475013)
(-0.678366 -1.23627 0.005921)
(-0.672417 -0.727089 0.00586942)
(-0.599627 -0.570222 0.00523418)
(-0.551353 -0.368068 0.00481285)
(-0.457685 -0.285861 0.00399534)
(-0.405071 -0.195302 0.00353603)
(-0.331383 -0.148172 0.00289289)
(-0.286083 -0.10426 0.0024974)
(-0.235465 -0.0775346 0.0020556)
(-0.200902 -0.0554766 0.00175384)
(-0.167748 -0.0408249 0.00146445)
(-0.143218 -0.0295857 0.00125029)
(-0.121688 -0.0217673 0.00106234)
(-0.104894 -0.0159848 0.000915725)
(-0.0907388 -0.0118623 0.000792154)
(-0.0793144 -0.00885221 0.000692414)
(-0.0697718 -0.00667642 0.000609106)
(-0.0618722 -0.00508954 0.000540139)
(-0.0552122 -0.00393347 0.000481997)
(-0.0495678 -0.00308873 0.000432719)
(-0.0447174 -0.0024714 0.000390374)
(-0.0405046 -0.00202025 0.000353596)
(-0.0367977 -0.00169078 0.000321236)
(-0.0334965 -0.00145039 0.000292417)
(-0.0305207 -0.00127489 0.000266439)
(-0.0278082 -0.00114625 0.000242761)
(-0.0253108 -0.00105092 0.000220961)
(-0.264547 -3.75338 0.00230862)
(-0.324407 -1.7882 0.00283136)
(-0.430293 -1.11665 0.0037556)
(-0.498927 -0.842979 0.00435478)
(-0.598685 -0.703754 0.00522558)
(-0.5848 -0.540846 0.00510467)
(-0.530646 -0.457211 0.00463206)
(-0.494167 -0.34523 0.00431367)
(-0.423863 -0.282805 0.00370008)
(-0.383714 -0.212279 0.00334958)
(-0.32643 -0.168408 0.00284962)
(-0.289405 -0.126213 0.00252637)
(-0.247379 -0.0976746 0.00215957)
(-0.216872 -0.0731953 0.00189322)
(-0.18705 -0.0557783 0.00163292)
(-0.163747 -0.0418702 0.00142948)
(-0.142808 -0.0317132 0.0012467)
(-0.125766 -0.0239178 0.00109792)
(-0.111038 -0.0181581 0.000969352)
(-0.0987651 -0.0138223 0.000862205)
(-0.0882708 -0.0106058 0.000770591)
(-0.0793665 -0.00820668 0.000692855)
(-0.0717042 -0.00642805 0.000625962)
(-0.065081 -0.00511006 0.000568141)
(-0.0592893 -0.00413781 0.000517579)
(-0.0541768 -0.00342328 0.000472947)
(-0.0496116 -0.0029009 0.000433093)
(-0.0454906 -0.00252088 0.000397118)
(-0.0417296 -0.00224546 0.000364288)
(-0.0382627 -0.00204577 0.000334025)
(-0.0350379 -0.00189974 0.000305876)
(-0.227581 -3.11862 0.00198619)
(-0.270867 -1.51683 0.00236417)
(-0.28922 -0.978568 0.00252442)
(-0.305557 -0.741029 0.00266711)
(-0.333276 -0.618555 0.00290911)
(-0.343393 -0.477985 0.0029975)
(-0.342011 -0.406929 0.00298547)
(-0.338676 -0.314452 0.00295638)
(-0.317738 -0.262627 0.00277365)
(-0.303198 -0.203894 0.00264673)
(-0.276279 -0.166307 0.00241179)
(-0.256143 -0.129424 0.002236)
(-0.230485 -0.103375 0.00201206)
(-0.209769 -0.0803376 0.00183121)
(-0.188036 -0.0631549 0.00164151)
(-0.169695 -0.0489351 0.00148139)
(-0.15234 -0.0380902 0.0013299)
(-0.137406 -0.0294702 0.00119952)
(-0.123967 -0.0228696 0.00108221)
(-0.112306 -0.0177513 0.000980401)
(-0.102012 -0.0138518 0.000890538)
(-0.0930132 -0.0108795 0.000811979)
(-0.0850736 -0.00863747 0.000742666)
(-0.078053 -0.00695487 0.000681376)
(-0.0717906 -0.00570369 0.000626705)
(-0.0661622 -0.00478118 0.00057757)
(-0.0610546 -0.00410802 0.000532982)
(-0.0563762 -0.00362183 0.000492142)
(-0.05205 -0.00327399 0.000454377)
(-0.0480143 -0.00302641 0.000419151)
(-0.0442202 -0.00284933 0.000386032)
(-0.195409 -1.94187 0.00170547)
(-0.238846 -1.02174 0.0020847)
(-0.264759 -0.638116 0.00231091)
(-0.283123 -0.463483 0.00247129)
(-0.306652 -0.386534 0.00267673)
(-0.315201 -0.323529 0.00275143)
(-0.312893 -0.28779 0.00273132)
(-0.309489 -0.242146 0.00270162)
(-0.292523 -0.21161 0.00255356)
(-0.280416 -0.175185 0.00244787)
(-0.259277 -0.148527 0.00226337)
(-0.242948 -0.121071 0.00212082)
(-0.222601 -0.0998744 0.00194322)
(-0.205646 -0.0803349 0.00179521)
(-0.187861 -0.0648714 0.00163996)
(-0.172405 -0.051612 0.00150504)
(-0.157586 -0.0410713 0.00137568)
(-0.144484 -0.0324393 0.0012613)
(-0.132459 -0.0256274 0.00115633)
(-0.121759 -0.0202185 0.00106292)
(-0.112106 -0.0160085 0.000978643)
(-0.10347 -0.0127452 0.000903253)
(-0.0956877 -0.0102512 0.000835314)
(-0.088663 -0.00836326 0.000773989)
(-0.0822765 -0.00695378 0.000718236)
(-0.0764332 -0.00591603 0.000667226)
(-0.0710434 -0.00516454 0.000620175)
(-0.0660321 -0.00462993 0.000576429)
(-0.061335 -0.00425649 0.000535428)
(-0.0568997 -0.00399952 0.000496713)
(-0.0526843 -0.00382337 0.000459918)
(-0.130592 -1.54598 0.00113973)
(-0.1801 -0.810711 0.00157192)
(-0.198846 -0.516528 0.00173561)
(-0.20974 -0.381696 0.0018308)
(-0.218222 -0.32157 0.00190491)
(-0.226357 -0.271488 0.00197596)
(-0.229665 -0.243107 0.00200486)
(-0.233399 -0.207373 0.00203746)
(-0.229927 -0.183045 0.00200717)
(-0.227596 -0.154304 0.00198681)
(-0.21913 -0.132655 0.00191291)
(-0.211793 -0.110329 0.00184887)
(-0.200786 -0.0925456 0.00175279)
(-0.190639 -0.075952 0.0016642)
(-0.178985 -0.0624183 0.00156248)
(-0.168068 -0.0505915 0.00146717)
(-0.156973 -0.0409313 0.00137032)
(-0.146619 -0.0328549 0.00127993)
(-0.136706 -0.026336 0.00119339)
(-0.127531 -0.0210649 0.0011133)
(-0.118982 -0.0168938 0.00103866)
(-0.111104 -0.0136202 0.000969884)
(-0.10382 -0.0110963 0.000906296)
(-0.0970896 -0.00917831 0.000847542)
(-0.090842 -0.00774898 0.000793001)
(-0.0850166 -0.00670595 0.000742148)
(-0.0795507 -0.00596422 0.000694434)
(-0.0743899 -0.00545245 0.000649384)
(-0.0694856 -0.00511166 0.000606575)
(-0.0647975 -0.00489334 0.000565654)
(-0.060293 -0.00475799 0.000526337)
(-0.118511 -0.835039 0.00103429)
(-0.16706 -0.466561 0.00145813)
(-0.18733 -0.30005 0.00163511)
(-0.199825 -0.220947 0.00174426)
(-0.207624 -0.190371 0.00181241)
(-0.214779 -0.169091 0.0018749)
(-0.216761 -0.158835 0.00189224)
(-0.21924 -0.144012 0.00191389)
(-0.215812 -0.132996 0.00188397)
(-0.21332 -0.117872 0.00186221)
(-0.206292 -0.105121 0.00180086)
(-0.200086 -0.0907755 0.00174667)
(-0.191288 -0.0783611 0.00166987)
(-0.183068 -0.0661193 0.00159811)
(-0.173771 -0.0555589 0.00151695)
(-0.164931 -0.0459695 0.00143978)
(-0.155905 -0.0378364 0.00136099)
(-0.147327 -0.030848 0.00128609)
(-0.138987 -0.025065 0.00121329)
(-0.131104 -0.0203018 0.00114447)
(-0.123609 -0.0164768 0.00107905)
(-0.116551 -0.013447 0.00101742)
(-0.109886 -0.0111017 0.000959242)
(-0.103599 -0.00932411 0.000904355)
(-0.0976472 -0.00801395 0.000852401)
(-0.0919953 -0.00707914 0.000803062)
(-0.0866022 -0.00644007 0.000755984)
(-0.0814319 -0.0060275 0.000710852)
(-0.0764509 -0.00578248 0.000667374)
(-0.0716313 -0.00565525 0.000625306)
(-0.0669508 -0.00560441 0.000584453)
(-0.0803387 -0.531605 0.000701173)
(-0.126566 -0.284976 0.00110472)
(-0.148067 -0.188276 0.00129244)
(-0.160566 -0.144988 0.00140161)
(-0.166781 -0.132348 0.00145593)
(-0.173355 -0.122446 0.00151335)
(-0.176424 -0.118958 0.00154016)
(-0.180515 -0.110611 0.00157587)
(-0.181114 -0.104135 0.0015811)
(-0.182202 -0.0939855 0.00159059)
(-0.180228 -0.0849923 0.00157335)
(-0.178252 -0.0745018 0.00155609)
(-0.174104 -0.0651 0.00151988)
(-0.169731 -0.0556506 0.00148169)
(-0.164107 -0.0472882 0.00143259)
(-0.158285 -0.0395712 0.00138176)
(-0.151913 -0.032898 0.00132613)
(-0.145496 -0.0270836 0.00127011)
(-0.138965 -0.022206 0.0012131)
(-0.132538 -0.0181512 0.00115698)
(-0.126218 -0.0148753 0.00110182)
(-0.120085 -0.0122793 0.00104827)
(-0.114141 -0.0102821 0.000996381)
(-0.1084 -0.00879243 0.00094626)
(-0.102849 -0.00772725 0.000897802)
(-0.0974757 -0.00700694 0.000850896)
(-0.09226 -0.00655979 0.000805368)
(-0.0871826 -0.00632123 0.000761047)
(-0.0822244 -0.00623465 0.000717769)
(-0.0773695 -0.00625106 0.000675394)
(-0.0726057 -0.00632889 0.000633814)
(-0.0667668 -0.1111 0.000582766)
(-0.110933 -0.0411801 0.000968318)
(-0.135525 -0.0282023 0.001183)
(-0.150693 -0.0285584 0.00131545)
(-0.158673 -0.0399651 0.00138516)
(-0.165637 -0.0481245 0.00144598)
(-0.168692 -0.056833 0.00147267)
(-0.172144 -0.0600531 0.00150281)
(-0.17249 -0.0620981 0.00150583)
(-0.173106 -0.0601457 0.0015112)
(-0.17135 -0.0573759 0.00149586)
(-0.169572 -0.0525159 0.00148033)
(-0.166223 -0.0474444 0.00145109)
(-0.162703 -0.0416859 0.00142034)
(-0.158285 -0.0361824 0.00138177)
(-0.153688 -0.0308044 0.00134163)
(-0.148649 -0.0259535 0.00129764)
(-0.143503 -0.021599 0.00125271)
(-0.13819 -0.0178689 0.00120632)
(-0.132855 -0.014732 0.00115975)
(-0.127504 -0.0121906 0.00111303)
(-0.122194 -0.0101924 0.00106668)
(-0.116937 -0.00868844 0.00102078)
(-0.111751 -0.00761354 0.00097551)
(-0.106638 -0.00690349 0.00093087)
(-0.101596 -0.00649252 0.000886861)
(-0.0966208 -0.00631841 0.00084343)
(-0.0917046 -0.00632292 0.000800517)
(-0.0868405 -0.00645338 0.000758061)
(-0.0820229 -0.00666305 0.000716012)
(-0.0772487 -0.00691152 0.000674341)
(-0.042987 0.0857528 0.000375234)
(-0.0806384 0.105978 0.000703927)
(-0.106136 0.0759799 0.000926507)
(-0.122659 0.0461945 0.00107077)
(-0.132413 0.0170609 0.00115596)
(-0.140304 -0.0028457 0.00122486)
(-0.144876 -0.0188969 0.00126479)
(-0.149427 -0.0278973 0.00130452)
(-0.151712 -0.034069 0.00132446)
(-0.154015 -0.0359649 0.00134456)
(-0.154563 -0.0362667 0.00134933)
(-0.154857 -0.0343993 0.00135188)
(-0.153838 -0.0318488 0.00134298)
(-0.152396 -0.028455 0.00133038)
(-0.150042 -0.0249789 0.00130982)
(-0.147261 -0.0214196 0.00128553)
(-0.143899 -0.0181211 0.00125617)
(-0.140211 -0.0151119 0.00122397)
(-0.136188 -0.0125204 0.00118884)
(-0.131962 -0.0103522 0.00115194)
(-0.127564 -0.00862932 0.00111355)
(-0.123061 -0.00732677 0.00107423)
(-0.118479 -0.00641626 0.00103423)
(-0.113849 -0.00585224 0.00099382)
(-0.109187 -0.00558575 0.000953116)
(-0.104502 -0.00556332 0.000912225)
(-0.0998019 -0.00573193 0.000871194)
(-0.0950893 -0.00604004 0.000830059)
(-0.0903671 -0.00643965 0.000788842)
(-0.0856387 -0.00688719 0.000747573)
(-0.0809088 -0.0073443 0.000706289)
(-0.0374281 0.311493 0.000326715)
(-0.0717182 0.267563 0.000626082)
(-0.0969335 0.196725 0.000846198)
(-0.114417 0.138638 0.000998844)
(-0.125436 0.091461 0.00109506)
(-0.134012 0.0577766 0.00116994)
(-0.139045 0.0320149 0.0012139)
(-0.143474 0.0146647 0.00125256)
(-0.145677 0.00205118 0.00127179)
(-0.147636 -0.00561234 0.00128888)
(-0.14814 -0.0105685 0.00129327)
(-0.148382 -0.0127999 0.00129537)
(-0.147599 -0.0136262 0.00128852)
(-0.146502 -0.0131662 0.00127893)
(-0.144727 -0.0121241 0.00126342)
(-0.142615 -0.0106493 0.00124497)
(-0.140039 -0.00909388 0.00122248)
(-0.137164 -0.00756766 0.00119737)
(-0.133967 -0.0062273 0.00116945)
(-0.130531 -0.0051256 0.00113945)
(-0.126872 -0.00431231 0.0011075)
(-0.123035 -0.00379184 0.00107401)
(-0.119042 -0.00355707 0.00103915)
(-0.11492 -0.00358121 0.00100316)
(-0.110685 -0.00382968 0.000966189)
(-0.106354 -0.00426066 0.000928383)
(-0.101939 -0.00482996 0.000889842)
(-0.09745 -0.00549278 0.000850663)
(-0.0928981 -0.00620609 0.000810932)
(-0.0882932 -0.00692995 0.000770741)
(-0.0836466 -0.00762869 0.000730186)
(-0.0280451 0.457829 0.00024481)
(-0.0577037 0.387393 0.000503756)
(-0.0813124 0.289378 0.000709858)
(-0.0985692 0.209605 0.00086052)
(-0.110055 0.147221 0.00096081)
(-0.11891 0.102489 0.00103813)
(-0.124621 0.0691222 0.001088)
(-0.129516 0.0460005 0.00113072)
(-0.132605 0.029203 0.00115768)
(-0.135386 0.0180567 0.00118196)
(-0.136969 0.0103205 0.00119576)
(-0.138232 0.0055878 0.00120677)
(-0.138671 0.00260245 0.00121059)
(-0.138692 0.00106321 0.00121076)
(-0.138061 0.000321465 0.00120524)
(-0.137 0.000159144 0.00119596)
(-0.135429 0.000249033 0.00118224)
(-0.133469 0.000453619 0.00116512)
(-0.131117 0.000618764 0.00114458)
(-0.128444 0.000674833 0.00112123)
(-0.125471 0.000563519 0.00109527)
(-0.122244 0.000266083 0.0010671)
(-0.118788 -0.000221924 0.00103693)
(-0.115133 -0.000885767 0.00100501)
(-0.111298 -0.00170108 0.000971538)
(-0.107305 -0.00263505 0.000936684)
(-0.103171 -0.00365086 0.000900598)
(-0.0989123 -0.0047097 0.000863424)
(-0.0945444 -0.00577325 0.0008253)
(-0.0900832 -0.00680533 0.000786364)
(-0.0855456 -0.0077732 0.00074676)
(-0.023666 0.601088 0.000206596)
(-0.0501223 0.504145 0.000437584)
(-0.0728032 0.384196 0.000635588)
(-0.0903135 0.285981 0.000788462)
(-0.102631 0.209867 0.000896004)
(-0.112168 0.154219 0.000979276)
(-0.118551 0.112751 0.001035)
(-0.123758 0.082977 0.00108047)
(-0.127127 0.0609907 0.00110987)
(-0.129936 0.0453876 0.00113439)
(-0.13163 0.0340223 0.00114916)
(-0.132931 0.0260696 0.0011605)
(-0.133497 0.0203827 0.00116543)
(-0.133699 0.0164636 0.00116717)
(-0.13337 0.0136763 0.00116429)
(-0.13268 0.0117135 0.00115825)
(-0.131565 0.0102336 0.00114851)
(-0.130103 0.00905231 0.00113573)
(-0.128279 0.00799681 0.0011198)
(-0.126133 0.00697072 0.00110106)
(-0.123676 0.00589968 0.0010796)
(-0.120934 0.00474817 0.00105566)
(-0.117926 0.0034994 0.00102939)
(-0.114672 0.00215684 0.00100099)
(-0.111194 0.000735752 0.000970627)
(-0.107511 -0.000738834 0.000938476)
(-0.103642 -0.00223647 0.000904706)
(-0.0996071 -0.00372362 0.000869486)
(-0.0954255 -0.00516634 0.000832988)
(-0.0911173 -0.00653204 0.000795388)
(-0.0867037 -0.00779106 0.000756866)
(-0.0182748 0.706111 0.000159545)
(-0.041337 0.598688 0.000360904)
(-0.0625989 0.463783 0.000546522)
(-0.0797268 0.350891 0.000696056)
(-0.0923156 0.26285 0.000805967)
(-0.102129 0.197699 0.000891644)
(-0.109018 0.149119 0.000951796)
(-0.114582 0.113807 0.00100037)
(-0.118472 0.0876312 0.00103432)
(-0.121716 0.0686395 0.00106263)
(-0.123971 0.054552 0.0010823)
(-0.125798 0.0442819 0.00109824)
(-0.126972 0.0366025 0.00110847)
(-0.127757 0.0308914 0.00111531)
(-0.128036 0.0264962 0.00111773)
(-0.127928 0.0230562 0.00111677)
(-0.127387 0.0202275 0.00111203)
(-0.126469 0.0178058 0.00110401)
(-0.125166 0.0156167 0.00109263)
(-0.123511 0.0135545 0.00107817)
(-0.121514 0.011541 0.00106073)
(-0.119197 0.00953372 0.0010405)
(-0.116578 0.00751032 0.00101763)
(-0.113678 0.00546803 0.000992306)
(-0.110515 0.00341653 0.000964698)
(-0.107111 0.00137548 0.000934984)
(-0.103486 -0.000629453 0.000903344)
(-0.0996626 -0.00256889 0.000869968)
(-0.0956621 -0.0044126 0.000835051)
(-0.0915082 -0.00613128 0.000798797)
(-0.0872252 -0.00769825 0.000761416)
(-0.0153279 0.799982 0.000133825)
(-0.0355517 0.68572 0.000310406)
(-0.0555669 0.540702 0.000485142)
(-0.0724818 0.416168 0.000632815)
(-0.0854906 0.317851 0.000746391)
(-0.095789 0.243867 0.000836302)
(-0.103246 0.188296 0.000901405)
(-0.109184 0.147237 0.000953245)
(-0.113417 0.116505 0.000990191)
(-0.116838 0.0937086 0.00102005)
(-0.119264 0.0765006 0.00104122)
(-0.121193 0.0635502 0.00105804)
(-0.122498 0.0535916 0.00106942)
(-0.123419 0.0458799 0.00107744)
(-0.123888 0.0397331 0.00108152)
(-0.124006 0.0347291 0.00108253)
(-0.123739 0.0305021 0.00108019)
(-0.123125 0.0268169 0.00107482)
(-0.122152 0.0234836 0.00106632)
(-0.120837 0.0203805 0.00105482)
(-0.11918 0.0174194 0.00104036)
(-0.117196 0.0145486 0.00102302)
(-0.114893 0.0117394 0.00100292)
(-0.112287 0.00898311 0.000980168)
(-0.109395 0.0062847 0.000954921)
(-0.106236 0.00365959 0.000927343)
(-0.10283 0.00112971 0.000897613)
(-0.0992001 -0.00127898 0.000865929)
(-0.0953702 -0.00353931 0.000832501)
(-0.0913659 -0.00562491 0.000797554)
(-0.0872143 -0.00751192 0.000761319)
(-0.0128725 0.875337 0.000112392)
(-0.0304603 0.759193 0.000265963)
(-0.0488018 0.60787 0.000426091)
(-0.0650275 0.474368 0.000567747)
(-0.077979 0.36728 0.000680822)
(-0.0884328 0.285488 0.000772089)
(-0.0962431 0.22357 0.000840276)
(-0.102486 0.17735 0.000894776)
(-0.107096 0.142557 0.000935014)
(-0.110829 0.116464 0.000967591)
(-0.113606 0.0965933 0.00099183)
(-0.115849 0.0814032 0.0010114)
(-0.117494 0.0695412 0.00102573)
(-0.118737 0.0601509 0.00103657)
(-0.119538 0.0525077 0.00104355)
(-0.119978 0.0461386 0.00104737)
(-0.120034 0.0406599 0.00104785)
(-0.119736 0.0358156 0.00104524)
(-0.119075 0.031409 0.00103945)
(-0.118063 0.0273103 0.00103061)
(-0.1167 0.0234279 0.0010187)
(-0.114996 0.0197065 0.00100383)
(-0.11296 0.0161146 0.000986045)
(-0.110605 0.0126411 0.000965478)
(-0.107944 0.00928828 0.000942254)
(-0.104997 0.00606927 0.000916529)
(-0.101785 0.00300357 0.000888485)
(-0.0983292 0.000114752 0.000858324)
(-0.0946564 -0.00257247 0.000826268)
(-0.0907936 -0.00503419 0.000792556)
(-0.0867699 -0.00724914 0.000757437)
(-0.0111038 0.943741 9.69523e-05)
(-0.0266544 0.826171 0.00023274)
(-0.0436167 0.670994 0.000380828)
(-0.0592641 0.530774 0.000517437)
(-0.0722087 0.416363 0.000630449)
(-0.082877 0.327595 0.000723589)
(-0.0910548 0.259695 0.000794984)
(-0.0976121 0.208414 0.000852227)
(-0.102532 0.169489 0.000895172)
(-0.106477 0.139959 0.000929607)
(-0.109446 0.117256 0.000955511)
(-0.11182 0.0996671 0.000976226)
(-0.113594 0.0857664 0.000991699)
(-0.114954 0.0745989 0.00100355)
(-0.115889 0.0653929 0.0010117)
(-0.116475 0.0576227 0.0010168)
(-0.116701 0.0508771 0.00101876)
(-0.116589 0.0448738 0.00101777)
(-0.116131 0.039401 0.00101376)
(-0.115331 0.0343168 0.00100677)
(-0.114187 0.0295222 0.000996763)
(-0.1127 0.0249566 0.000983782)
(-0.110877 0.0205851 0.000967859)
(-0.108726 0.0163941 0.000949076)
(-0.106259 0.012384 0.000927538)
(-0.103493 0.00856641 0.000903392)
(-0.100447 0.00495912 0.000876811)
(-0.0971464 0.00158409 0.000847998)
(-0.0936157 -0.00153584 0.000817182)
(-0.089884 -0.00437884 0.000784614)
(-0.0859819 -0.00692601 0.000750557)
(-0.00921637 1.00038 8.04755e-05)
(-0.0229416 0.884315 0.000200328)
(-0.0386162 0.727459 0.000337177)
(-0.0535787 0.582317 0.000467807)
(-0.066352 0.461798 0.000579323)
(-0.0770796 0.366894 0.00067298)
(-0.0855061 0.293542 0.000746545)
(-0.0923162 0.237599 0.000805995)
(-0.0975381 0.194839 0.000851578)
(-0.10174 0.162141 0.000888256)
(-0.10497 0.13684 0.000916434)
(-0.107568 0.117072 0.000939103)
(-0.109562 0.101324 0.000956502)
(-0.111121 0.0885471 0.000970094)
(-0.112254 0.0779171 0.000979965)
(-0.113027 0.0688591 0.000986702)
(-0.11344 0.060935 0.000990292)
(-0.113512 0.0538402 0.000990909)
(-0.113239 0.0473514 0.000988508)
(-0.112622 0.0413178 0.000983115)
(-0.111659 0.0356363 0.000974701)
(-0.110352 0.0302432 0.000963283)
(-0.108703 0.0251025 0.000948885)
(-0.106721 0.0201995 0.000931573)
(-0.104415 0.0155344 0.000911442)
(-0.101801 0.011118 0.000888629)
(-0.0989001 0.00696759 0.000863303)
(-0.0957341 0.00310426 0.000835668)
(-0.0923303 -0.000450493 0.00080596)
(-0.0887184 -0.00367656 0.000774437)
(-0.0849302 -0.00655717 0.000741374)
(-0.00776409 1.04976 6.77969e-05)
(-0.0198825 0.936675 0.000173622)
(-0.0344231 0.77999 0.000300572)
(-0.0487729 0.631515 0.000425854)
(-0.0614032 0.506038 0.000536121)
(-0.072208 0.405736 0.000630451)
(-0.0808797 0.327347 0.000706157)
(-0.0879422 0.26694 0.00076781)
(-0.0934344 0.220402 0.000815752)
(-0.0978508 0.184521 0.000854299)
(-0.101273 0.156567 0.000884163)
(-0.104017 0.134557 0.000908105)
(-0.106141 0.116905 0.000926638)
(-0.107809 0.102476 0.000941177)
(-0.109048 0.0903954 0.000951979)
(-0.109926 0.0800383 0.000959629)
(-0.11045 0.070936 0.000964192)
(-0.11064 0.0627584 0.000965834)
(-0.110491 0.0552665 0.000964526)
(-0.110006 0.0482979 0.000960277)
(-0.109179 0.0417431 0.000953047)
(-0.108009 0.0355342 0.000942829)
(-0.106498 0.0296333 0.00092963)
(-0.10465 0.024025 0.000913499)
(-0.102476 0.0187091 0.000894518)
(-0.0999897 0.0136967 0.000872813)
(-0.0972103 0.00900482 0.000848551)
(-0.0941611 0.00465419 0.000821936)
(-0.0908695 0.000665474 0.000793207)
(-0.0873661 -0.00294263 0.000762631)
(-0.0836835 -0.00615534 0.00073049)
(-0.00660861 1.09121 5.77083e-05)
(-0.017244 0.982484 0.000150587)
(-0.0306081 0.827474 0.000267269)
(-0.0442588 0.677019 0.000386447)
(-0.056627 0.547598 0.000494426)
(-0.0674114 0.442614 0.000588577)
(-0.0762469 0.359654 0.000665713)
(-0.0835172 0.295104 0.00072918)
(-0.0892603 0.245009 0.000779312)
(-0.0939016 0.206114 0.000819822)
(-0.0975418 0.175641 0.000851591)
(-0.10047 0.151505 0.00087714)
(-0.102763 0.132046 0.000897144)
(-0.104575 0.116053 0.000912947)
(-0.105947 0.102595 0.000924911)
(-0.106946 0.0910004 0.000933617)
(-0.107586 0.0807707 0.000939188)
(-0.107887 0.0715518 0.000941803)
(-0.107849 0.06309 0.000941458)
(-0.107473 0.0552128 0.00093817)
(-0.106756 0.0478053 0.000931903)
(-0.105697 0.0407965 0.00092265)
(-0.104296 0.0341476 0.000910412)
(-0.102558 0.027843 0.000895232)
(-0.100491 0.0218833 0.000877186)
(-0.0981093 0.0162799 0.000856398)
(-0.0954324 0.0110507 0.000833031)
(-0.0924836 0.00621631 0.000807293)
(-0.0892908 0.00179693 0.000779425)
(-0.085885 -0.00218989 0.000749701)
(-0.0823001 -0.00573119 0.000718412)
(-0.00571317 1.12794 4.98925e-05)
(-0.0150929 1.02362 0.000131808)
(-0.027369 0.871298 0.000238992)
(-0.0403384 0.720044 0.000352222)
(-0.0524214 0.587626 0.000457711)
(-0.0631636 0.478632 0.000551493)
(-0.0721345 0.391519 0.00062981)
(-0.0795942 0.323068 0.000694931)
(-0.0855631 0.26953 0.000747035)
(-0.0904061 0.227664 0.000789306)
(-0.0942337 0.194671 0.000822711)
(-0.0973133 0.168394 0.000849583)
(-0.0997376 0.147107 0.000870733)
(-0.101657 0.129532 0.000887471)
(-0.103124 0.114685 0.000900265)
(-0.104207 0.101851 0.000909708)
(-0.104928 0.0904983 0.000915985)
(-0.105308 0.0802473 0.000919288)
(-0.105349 0.0708276 0.000919639)
(-0.105055 0.0620551 0.000917058)
(-0.104421 0.0538079 0.000911514)
(-0.103446 0.0460113 0.000902997)
(-0.10213 0.038625 0.000891504)
(-0.100477 0.0316333 0.000877074)
(-0.0984964 0.0250375 0.000859778)
(-0.096201 0.0188499 0.000839739)
(-0.0936098 0.0130892 0.000817121)
(-0.090747 0.00777648 0.000792132)
(-0.0876408 0.00293169 0.000765021)
(-0.0843233 -0.0014286 0.000736067)
(-0.0808288 -0.00529323 0.000705568)
(-0.00485934 1.15931 4.244e-05)
(-0.0131368 1.05994 0.000114731)
(-0.0244162 0.911109 0.000213214)
(-0.0367035 0.760016 0.000320489)
(-0.0484569 0.62543 0.000423101)
(-0.0591023 0.513059 0.000516038)
(-0.0681588 0.42223 0.000595101)
(-0.0757753 0.350173 0.00066159)
(-0.0819503 0.293386 0.000715493)
(-0.086992 0.248683 0.000759499)
(-0.091012 0.213266 0.000794584)
(-0.0942562 0.184918 0.000822894)
(-0.0968256 0.16186 0.000845311)
(-0.0988653 0.14275 0.000863104)
(-0.100437 0.126554 0.000876809)
(-0.101609 0.112515 0.00088703)
(-0.10241 0.100068 0.000894003)
(-0.102862 0.0888092 0.000897939)
(-0.102972 0.0784527 0.00089889)
(-0.102744 0.068803 0.00089689)
(-0.102176 0.0597317 0.000891923)
(-0.101268 0.0511608 0.000883983)
(-0.100019 0.0430486 0.000873074)
(-0.0984337 0.0353797 0.000859233)
(-0.0965214 0.0281565 0.000842538)
(-0.0942958 0.0213927 0.000823109)
(-0.0917763 0.0151078 0.000801115)
(-0.0889873 0.00932375 0.000776771)
(-0.0859577 0.00406041 0.000750328)
(-0.0827204 -0.000666551 0.000722074)
(-0.0793103 -0.00484777 0.000692311)
(-0.00421076 1.18668 3.67778e-05)
(-0.011494 1.09248 0.000100389)
(-0.0218398 0.947795 0.000190722)
(-0.0334586 0.797681 0.000292162)
(-0.0448608 0.661679 0.000391707)
(-0.0553824 0.546508 0.000483562)
(-0.0644912 0.452359 0.000563081)
(-0.0722408 0.376945 0.000630732)
(-0.0786 0.317048 0.000686244)
(-0.0838256 0.269578 0.000731855)
(-0.0880237 0.23176 0.000768495)
(-0.091421 0.201345 0.000798141)
(-0.0941233 0.176509 0.00082172)
(-0.0962721 0.155855 0.000840465)
(-0.0979356 0.138304 0.000854973)
(-0.0991846 0.123057 0.000865862)
(-0.100051 0.109518 0.000873414)
(-0.100562 0.0972575 0.000877862)
(-0.100727 0.0859725 0.000879286)
(-0.10055 0.0754554 0.000877735)
(-0.100033 0.0655704 0.000873209)
(-0.0991744 0.0562354 0.000865709)
(-0.0979765 0.0474074 0.000855247)
(-0.0964441 0.0390709 0.000841865)
(-0.0945862 0.0312294 0.000825645)
(-0.0924176 0.0238979 0.000806713)
(-0.0899581 0.0170972 0.000785244)
(-0.0872331 0.0108501 0.000761457)
(-0.0842721 0.00517642 0.000735614)
(-0.0811087 9.08706e-05 0.000708004)
(-0.0777784 -0.00439902 0.000678938)
(-0.0037424 1.2105 3.26877e-05)
(-0.0101463 1.12127 8.86212e-05)
(-0.0195907 0.981149 0.000171086)
(-0.0305394 0.832691 0.000266676)
(-0.0415549 0.695939 0.000362845)
(-0.0519148 0.578521 0.000453288)
(-0.0610369 0.481457 0.000532924)
(-0.0688923 0.402971 0.000601499)
(-0.0754145 0.340155 0.000658432)
(-0.0808131 0.290045 0.000705554)
(-0.0851825 0.249913 0.000743689)
(-0.088731 0.217489 0.000774656)
(-0.0915654 0.190917 0.000799388)
(-0.0938233 0.168751 0.000819086)
(-0.0955776 0.149871 0.000834387)
(-0.0969006 0.133436 0.000845923)
(-0.097829 0.118821 0.000854015)
(-0.0983922 0.105575 0.000858919)
(-0.0986027 0.0933746 0.000860745)
(-0.098468 0.0820023 0.000859559)
(-0.09799 0.0713151 0.000855378)
(-0.0971706 0.0612267 0.000848217)
(-0.096012 0.0516929 0.000838098)
(-0.0945204 0.0426986 0.000825073)
(-0.0927058 0.0342482 0.00080923)
(-0.090584 0.0263584 0.000790707)
(-0.0881757 0.0190513 0.000769684)
(-0.0855072 0.0123504 0.000746391)