/*--------------------------------*- C++ -*----------------------------------*\
| =========                 |                                                 |
| \\      /  F ield         | OpenFOAM: The Open Source CFD Toolbox           |
|  \\    /   O peration     | Version:  v2012                                 |
|   \\  /    A nd           | Website:  www.openfoam.com                      |
|    \\/     M anipulation  |                                                 |
\*---------------------------------------------------------------------------*/
FoamFile
{
    version     2.0;
    format      ascii;
    class       surfaceScalarField;
    location    "0.45";
    object      phi;
}
// * * * * * * * * * * * * * * * * * * * * * * * * * * * * * * * * * * * * * //

dimensions      [0 3 -1 0 0 0 0];
oriented        oriented;


internalField   nonuniform List<scalar> 
8162
(
2.62664e-11
-3.56267e-10
-3.5471e-16
3.11941e-11
-4.07295e-10
-2.88361e-16
3.6719e-11
-4.63038e-10
-1.32928e-16
4.28624e-11
-5.23601e-10
-5.78216e-17
4.9639e-11
-5.89205e-10
-4.44314e-18
5.70538e-11
-6.59909e-10
-1.73413e-17
6.5102e-11
-7.35834e-10
-7.85154e-18
7.37658e-11
-8.1702e-10
-1.46116e-17
8.30132e-11
-9.03372e-10
-1.00568e-18
9.2797e-11
-9.94979e-10
-2.80948e-18
1.03051e-10
-1.09153e-09
-8.20932e-19
1.1369e-10
-1.19292e-09
-1.38799e-17
1.24612e-10
-1.29886e-09
-2.44118e-17
1.35692e-10
-1.40893e-09
-4.03825e-17
1.46784e-10
-1.52269e-09
-6.501e-17
1.57725e-10
-1.63956e-09
-9.25621e-17
1.68331e-10
-1.75892e-09
-1.2132e-16
1.78399e-10
-1.87993e-09
-1.44653e-16
1.87718e-10
-2.00178e-09
-1.83283e-16
-2.12341e-09
-2.15347e-16
1.93924e-11
-2.71023e-10
-3.37541e-16
2.34749e-11
-3.1381e-10
-7.24971e-17
2.81252e-11
-3.60917e-10
-2.76357e-18
3.33758e-11
-4.12545e-10
1.91886e-17
3.92561e-11
-4.68917e-10
1.22753e-16
4.57875e-11
-5.3013e-10
1.83314e-16
5.2984e-11
-5.96399e-10
2.03364e-16
6.08488e-11
-6.67772e-10
1.76486e-16
6.93749e-11
-7.44359e-10
1.51047e-16
7.85412e-11
-8.26185e-10
1.29445e-16
8.83117e-11
-9.13141e-10
1.1455e-16
9.86339e-11
-1.0053e-09
1.02553e-16
1.09436e-10
-1.10233e-09
8.45558e-17
1.20625e-10
-1.20411e-09
6.37795e-17
1.32092e-10
-1.31032e-09
4.04286e-17
1.43702e-10
-1.42054e-09
1.82902e-17
1.55302e-10
-1.53429e-09
-1.16947e-17
1.66717e-10
-1.65097e-09
-4.2987e-17
1.77754e-10
-1.76996e-09
-7.0765e-17
1.882e-10
-1.89038e-09
-9.66202e-17
1.97835e-10
-2.01141e-09
-1.28673e-16
-2.132e-09
-1.66004e-16
5.9833e-16
-6.38484e-14
-1.07432e-17
8.07869e-15
-7.63292e-13
-1.67765e-16
3.68796e-14
-2.5421e-12
-2.35237e-16
1.06271e-13
-5.58274e-12
2.12841e-17
2.31637e-13
-1.00368e-11
-2.4952e-16
4.42596e-13
-1.6053e-11
6.43129e-16
7.55593e-13
-2.3783e-11
3.69409e-16
1.21361e-12
-3.33996e-11
6.27745e-16
1.83366e-12
-4.50557e-11
1.21757e-15
-5.8954e-11
1.06088e-15
6.60465e-12
-1.15952e-10
-4.21958e-16
8.57182e-12
-1.40752e-10
-1.1488e-16
1.09313e-11
-1.68822e-10
-1.89514e-16
1.37255e-11
-2.00371e-10
-4.83512e-16
1.7e-11
-2.35627e-10
-2.0442e-16
2.07955e-11
-2.7482e-10
-1.93855e-16
2.5154e-11
-3.18168e-10
-3.3986e-17
3.0113e-11
-3.65875e-10
3.55567e-17
3.57064e-11
-4.18138e-10
5.78296e-17
4.1964e-11
-4.75173e-10
1.53962e-16
4.89066e-11
-5.37071e-10
1.99529e-16
5.65472e-11
-6.04038e-10
2.31571e-16
6.48874e-11
-6.7611e-10
2.08387e-16
7.39174e-11
-7.53387e-10
2.00738e-16
8.36124e-11
-8.35879e-10
1.8174e-16
9.39319e-11
-9.23459e-10
1.76306e-16
1.04818e-10
-1.01618e-09
1.61723e-16
1.16192e-10
-1.1137e-09
1.45004e-16
1.27954e-10
-1.21587e-09
1.19032e-16
1.39985e-10
-1.32236e-09
9.22291e-17
1.52144e-10
-1.4327e-09
6.57628e-17
1.64266e-10
-1.54641e-09
3.16709e-17
1.76166e-10
-1.66287e-09
3.88682e-19
1.87641e-10
-1.78143e-09
-3.08666e-17
1.98468e-10
-1.90121e-09
-5.31437e-17
2.08416e-10
-2.02136e-09
-8.82203e-17
-2.14083e-09
-1.21714e-16
5.937e-16
-6.46213e-14
-2.12354e-17
8.9021e-15
-7.7292e-13
-1.61011e-16
4.03309e-14
-2.57534e-12
-2.20993e-16
1.16841e-13
-5.65785e-12
1.7494e-16
2.53558e-13
-1.01755e-11
-2.46331e-16
4.82203e-13
-1.62792e-11
2.72122e-16
8.26152e-13
-2.41251e-11
1.76552e-16
1.30669e-12
-3.38805e-11
7.94603e-17
1.96943e-12
-4.57145e-11
5.22452e-16
2.83895e-12
-5.98204e-11
3.70967e-16
3.96143e-12
-7.63776e-11
-1.01895e-16
5.36678e-12
-9.55957e-11
-1.76264e-17
7.10643e-12
-1.17689e-10
1.10794e-16
9.21856e-12
-1.42861e-10
3.12047e-16
1.17486e-11
-1.7135e-10
1.86373e-16
1.47406e-11
-2.03362e-10
2.61026e-17
1.82436e-11
-2.39128e-10
2.20875e-16
2.22994e-11
-2.78875e-10
8.6794e-17
2.69517e-11
-3.22821e-10
2.19776e-17
3.22392e-11
-3.71163e-10
-1.87547e-17
3.8197e-11
-4.24096e-10
9.05644e-18
4.48549e-11
-4.8183e-10
1.25168e-16
5.22332e-11
-5.44448e-10
2.06651e-16
6.03437e-11
-6.12146e-10
2.60046e-16
6.91858e-11
-6.8495e-10
2.64485e-16
7.87467e-11
-7.62945e-10
2.61488e-16
8.89977e-11
-8.46128e-10
2.50767e-16
9.98932e-11
-9.34352e-10
2.37861e-16
1.11369e-10
-1.02766e-09
2.22304e-16
1.2334e-10
-1.12567e-09
1.97146e-16
1.35697e-10
-1.22823e-09
1.67716e-16
1.48315e-10
-1.33497e-09
1.35944e-16
1.61039e-10
-1.44542e-09
1.05484e-16
1.73697e-10
-1.55907e-09
7.15423e-17
1.86092e-10
-1.67527e-09
3.75216e-17
1.9801e-10
-1.79335e-09
1.05825e-17
2.09219e-10
-1.91242e-09
-1.4823e-17
2.19477e-10
-2.03162e-09
-4.39351e-17
-2.14988e-09
-8.42565e-17
6.40338e-16
-6.54583e-14
-2.41932e-17
9.91135e-15
-7.83343e-13
-1.37996e-16
4.38767e-14
-2.61142e-12
-2.51517e-16
1.26987e-13
-5.73942e-12
1.84946e-16
2.74547e-13
-1.03257e-11
-3.01994e-16
5.21489e-13
-1.65237e-11
2.89481e-16
8.90276e-13
-2.44931e-11
9.45315e-17
1.41217e-12
-3.44036e-11
-9.52515e-17
2.12922e-12
-4.64268e-11
6.39401e-16
3.06918e-12
-6.0758e-11
3.60695e-16
4.27335e-12
-7.75818e-11
-2.04744e-16
5.78247e-12
-9.71062e-11
-2.16983e-18
7.64926e-12
-1.19554e-10
1.42711e-16
9.91497e-12
-1.45124e-10
3.62825e-16
1.2626e-11
-1.74059e-10
2.30744e-16
1.58299e-11
-2.06565e-10
9.1635e-17
1.95768e-11
-2.42872e-10
3.31329e-16
2.39106e-11
-2.83207e-10
2.6986e-16
2.88763e-11
-3.27784e-10
2.49817e-16
3.45135e-11
-3.76799e-10
1.63654e-16
4.08585e-11
-4.30439e-10
1.14421e-16
4.79411e-11
-4.88911e-10
1.88327e-16
5.5781e-11
-5.52285e-10
2.26716e-16
6.43884e-11
-6.20751e-10
2.75087e-16
7.37604e-11
-6.94319e-10
2.71676e-16
8.38807e-11
-7.73063e-10
2.78663e-16
9.47161e-11
-8.56961e-10
2.67897e-16
1.06216e-10
-9.45849e-10
2.61985e-16
1.18308e-10
-1.03975e-09
2.46405e-16
1.30901e-10
-1.13826e-09
2.2387e-16
1.43878e-10
-1.2412e-09
1.95266e-16
1.57101e-10
-1.34819e-09
1.63338e-16
1.70408e-10
-1.45873e-09
1.35495e-16
1.83615e-10
-1.57228e-09
1.00938e-16
1.96514e-10
-1.68817e-09
7.3364e-17
2.0888e-10
-1.80572e-09
4.52178e-17
2.20471e-10
-1.92401e-09
2.72977e-17
2.31032e-10
-2.04218e-09
-5.81257e-18
2.40301e-10
-2.15915e-09
-4.26508e-17
-2.27328e-09
-1.02615e-16
7.16575e-16
-6.63678e-14
-2.39589e-17
1.09686e-14
-7.94681e-13
-1.32212e-16
4.81213e-14
-2.65041e-12
-2.24384e-16
1.38244e-13
-5.82743e-12
2.55872e-16
2.9838e-13
-1.04876e-11
-2.09232e-16
5.65381e-13
-1.67873e-11
4.0612e-16
9.63646e-13
-2.48897e-11
2.06822e-16
1.52597e-12
-3.49665e-11
-2.05803e-17
2.2978e-12
-4.71932e-11
7.06614e-16
3.30863e-12
-6.17678e-11
1.73689e-16
4.60472e-12
-7.88777e-11
-1.7455e-16
6.228e-12
-9.87318e-11
-1.17765e-16
8.23235e-12
-1.21557e-10
-3.11138e-18
1.06627e-11
-1.47553e-10
1.94977e-16
1.35679e-11
-1.76964e-10
6.91842e-17
1.69982e-11
-2.09995e-10
-3.95729e-17
2.10055e-11
-2.46878e-10
1.99236e-16
2.56365e-11
-2.87836e-10
1.31918e-16
3.09359e-11
-3.33084e-10
-5.50344e-17
3.69458e-11
-3.8281e-10
-1.44536e-16
4.37027e-11
-4.37197e-10
-1.34441e-16
5.12363e-11
-4.96444e-10
-4.39198e-18
5.95653e-11
-5.60614e-10
8.8115e-17
6.86984e-11
-6.29882e-10
1.77277e-16
7.86296e-11
-7.04249e-10
2.13221e-16
8.9339e-11
-7.8377e-10
2.42501e-16
1.00788e-10
-8.68409e-10
2.51206e-16
1.12921e-10
-9.57978e-10
2.54088e-16
1.25658e-10
-1.05248e-09
2.4629e-16
1.38899e-10
-1.1515e-09
2.2881e-16
1.52518e-10
-1.25482e-09
2.03409e-16
1.66367e-10
-1.36204e-09
1.7759e-16
1.80274e-10
-1.47264e-09
1.50836e-16
1.94043e-10
-1.58604e-09
1.25401e-16
2.07454e-10
-1.70158e-09
9.90172e-17
2.20271e-10
-1.81853e-09
8.15619e-17
2.3224e-10
-1.93598e-09
6.18452e-17
2.43098e-10
-2.05304e-09
3.63795e-17
2.52572e-10
-2.16862e-09
-9.29109e-18
-2.2811e-09
-6.14674e-17
8.01364e-16
-6.73586e-14
-2.38105e-17
1.23675e-14
-8.07009e-13
-8.9897e-17
5.26775e-14
-2.69305e-12
-2.77106e-16
1.49631e-13
-5.92362e-12
8.56296e-17
3.23938e-13
-1.06637e-11
-2.03435e-16
6.12282e-13
-1.70733e-11
2.65279e-16
1.04283e-12
-2.53186e-11
1.84997e-16
1.65105e-12
-3.55748e-11
5.16249e-17
2.48241e-12
-4.80201e-11
5.91217e-16
3.57113e-12
-6.28555e-11
1.65107e-16
4.96497e-12
-8.02717e-11
-2.224e-16
6.70911e-12
-1.00479e-10
-2.09147e-16
8.86117e-12
-1.23708e-10
1.94127e-17
1.14681e-11
-1.50158e-10
2.18667e-16
1.45813e-11
-1.80076e-10
9.8071e-17
1.82536e-11
-2.13667e-10
-1.50144e-17
2.25391e-11
-2.51162e-10
2.3717e-16
2.74868e-11
-2.92782e-10
2.37981e-16
3.31426e-11
-3.38739e-10
1.28406e-16
3.95493e-11
-3.89217e-10
1.91184e-17
4.67439e-11
-4.44392e-10
-4.16445e-17
5.4756e-11
-5.04456e-10
4.31651e-17
6.3603e-11
-5.6946e-10
8.95313e-17
7.32916e-11
-6.39569e-10
1.64218e-16
8.38129e-11
-7.14768e-10
1.88453e-16
9.51423e-11
-7.95098e-10
2.18777e-16
1.07237e-10
-8.80501e-10
2.26633e-16
1.20032e-10
-9.70771e-10
2.32148e-16
1.33442e-10
-1.06589e-09
2.28039e-16
1.47357e-10
-1.16541e-09
2.13684e-16
1.61642e-10
-1.2691e-09
1.96336e-16
1.76138e-10
-1.37654e-09
1.73821e-16
1.90661e-10
-1.48716e-09
1.58135e-16
2.05002e-10
-1.60038e-09
1.36049e-16
2.18932e-10
-1.7155e-09
1.23494e-16
2.32201e-10
-1.8318e-09
1.07676e-16
2.44544e-10
-1.94832e-09
9.96274e-17
2.55689e-10
-2.06418e-09
6.93235e-17
2.65352e-10
-2.17829e-09
2.685e-17
2.73256e-10
-2.289e-09
-3.33317e-17
-2.39638e-09
-7.23482e-17
8.70992e-16
-6.8434e-14
-2.60417e-17
1.35474e-14
-8.20387e-13
-8.38566e-17
5.7592e-14
-2.73913e-12
-2.42839e-16
1.62823e-13
-6.0274e-12
1.668e-16
3.52109e-13
-1.08538e-11
-9.62513e-17
6.63782e-13
-1.73822e-11
3.36599e-16
1.12857e-12
-2.57816e-11
2.18439e-16
1.7843e-12
-3.62309e-11
7.37212e-18
2.68009e-12
-4.89116e-11
5.78007e-16
3.85246e-12
-6.40273e-11
1.22396e-16
5.35246e-12
-8.17714e-11
-1.69045e-16
7.22748e-12
-1.02357e-10
-2.04175e-16
9.53814e-12
-1.26017e-10
-9.87665e-18
1.23343e-11
-1.52953e-10
1.38923e-16
1.56704e-11
-1.83412e-10
2.45557e-17
1.96019e-11
-2.17599e-10
-9.41995e-17
2.41849e-11
-2.55744e-10
1.6407e-16
2.94706e-11
-2.98066e-10
1.43611e-16
3.55061e-11
-3.44775e-10
-3.20955e-17
4.23353e-11
-3.96047e-10
-1.53295e-16
4.99953e-11
-4.52054e-10
-2.01399e-16
5.85154e-11
-5.12977e-10
-9.70071e-17
6.79113e-11
-5.78856e-10
-3.06182e-17
7.81875e-11
-6.49845e-10
6.39258e-17
8.93311e-11
-7.25911e-10
1.05743e-16
1.01313e-10
-8.07078e-10
1.50342e-16
1.14084e-10
-8.93271e-10
1.67905e-16
1.27573e-10
-9.84258e-10
1.8444e-16
1.41686e-10
-1.08e-09
1.85767e-16
1.56302e-10
-1.18003e-09
1.83691e-16
1.71276e-10
-1.28408e-09
1.70662e-16
1.86439e-10
-1.3917e-09
1.62734e-16
2.01593e-10
-1.50231e-09
1.50569e-16
2.16517e-10
-1.61531e-09
1.44994e-16
2.30971e-10
-1.72996e-09
1.35739e-16
2.44691e-10
-1.84552e-09
1.35958e-16
2.57402e-10
-1.96103e-09
1.26856e-16
2.68821e-10
-2.0756e-09
1.05889e-16
2.78655e-10
-2.18812e-09
5.28426e-17
2.8662e-10
-2.29697e-09
-2.08013e-18
-2.4022e-09
-4.06896e-17
9.86102e-16
-6.96099e-14
-2.34107e-17
1.48773e-14
-8.34981e-13
-8.47255e-17
6.30593e-14
-2.78927e-12
-2.35886e-16
1.77329e-13
-6.14014e-12
1.83658e-16
3.82663e-13
-1.106e-11
-9.97173e-17
7.19482e-13
-1.77165e-11
2.84851e-16
1.22182e-12
-2.6282e-11
2.30106e-16
1.92936e-12
-3.69393e-11
-4.21807e-17
2.89505e-12
-4.98721e-11
6.75982e-16
4.15791e-12
-6.52885e-11
2.53028e-16
5.77139e-12
-8.33849e-11
-2.16508e-16
7.78677e-12
-1.04376e-10
-2.17153e-16
1.02679e-11
-1.28497e-10
-3.00582e-18
1.32672e-11
-1.55951e-10
1.43283e-16
1.68423e-11
-1.86987e-10
2.19555e-17
2.10512e-11
-2.21808e-10
-1.00239e-16
2.59522e-11
-2.60644e-10
1.3063e-16
3.15987e-11
-3.03712e-10
1.37677e-16
3.80393e-11
-3.51215e-10
1.24617e-17
4.53186e-11
-4.03327e-10
-9.96012e-17
5.34735e-11
-4.6021e-10
-1.68332e-16
6.25325e-11
-5.22037e-10
-8.3531e-17
7.25098e-11
-5.88833e-10
-3.83223e-17
8.34068e-11
-6.60741e-10
4.25025e-17
9.52067e-11
-7.3771e-10
7.76625e-17
1.07875e-10
-8.19746e-10
1.13988e-16
1.21356e-10
-9.06751e-10
1.31212e-16
1.3557e-10
-9.98471e-10
1.42077e-16
1.50415e-10
-1.09485e-09
1.48979e-16
1.6576e-10
-1.19537e-09
1.45776e-16
1.81447e-10
-1.29976e-09
1.4509e-16
1.97295e-10
-1.40754e-09
1.39373e-16
2.13095e-10
-1.51811e-09
1.43645e-16
2.28612e-10
-1.63082e-09
1.41338e-16
2.43593e-10
-1.74493e-09
1.50293e-16
2.57762e-10
-1.85969e-09
1.52258e-16
2.70831e-10
-1.9741e-09
1.5742e-16
2.82509e-10
-2.08727e-09
1.31016e-16
2.92492e-10
-2.1981e-09
8.2284e-17
3.00492e-10
-2.30497e-09
1.79751e-17
-2.40793e-09
-6.74832e-18
1.06903e-15
-7.08844e-14
-2.54403e-17
1.6201e-14
-8.50836e-13
-8.7662e-17
6.87106e-14
-2.84369e-12
-2.32556e-16
1.92793e-13
-6.26231e-12
2.28342e-16
4.15438e-13
-1.12832e-11
-6.23136e-17
7.79604e-13
-1.80781e-11
2.99643e-16
1.32242e-12
-2.68226e-11
2.57832e-16
2.08608e-12
-3.77042e-11
-8.54273e-17
3.1274e-12
-5.09083e-11
6.76467e-16
4.48805e-12
-6.66475e-11
2.60966e-16
6.2241e-12
-8.51214e-11
-2.50579e-16
8.39014e-12
-1.06545e-10
-2.40759e-16
1.10543e-11
-1.31161e-10
-9.4704e-17
1.42718e-11
-1.59168e-10
3.36189e-17
1.81033e-11
-1.90819e-10
-7.31187e-17
2.26095e-11
-2.26315e-10
-1.94833e-16
2.78507e-11
-2.65885e-10
3.11271e-17
3.38827e-11
-3.09743e-10
4.98021e-17
4.07552e-11
-3.58089e-10
-9.15848e-17
4.85136e-11
-4.11087e-10
-1.85032e-16
5.71947e-11
-4.68893e-10
-2.44476e-16
6.68258e-11
-5.31669e-10
-1.4595e-16
7.74188e-11
-5.99427e-10
-1.01993e-16
8.8972e-11
-6.72294e-10
-1.35188e-17
1.01464e-10
-7.50202e-10
1.79933e-17
1.14854e-10
-8.33135e-10
6.03375e-17
1.2908e-10
-9.20976e-10
7.23941e-17
1.44052e-10
-1.01344e-09
9.24569e-17
1.5966e-10
-1.11045e-09
9.61443e-17
1.7576e-10
-1.21147e-09
1.07819e-16
1.92183e-10
-1.31619e-09
1.06936e-16
2.08735e-10
-1.4241e-09
1.19818e-16
2.25194e-10
-1.53456e-09
1.25075e-16
2.41312e-10
-1.64694e-09
1.42368e-16
2.5682e-10
-1.76044e-09
1.52628e-16
2.71433e-10
-1.8743e-09
1.72611e-16
2.84849e-10
-1.98752e-09
1.75488e-16
2.96767e-10
-2.09919e-09
1.59409e-16
3.06876e-10
-2.20821e-09
1.00186e-16
3.14881e-10
-2.31297e-09
4.18037e-17
-2.41355e-09
1.67076e-17
1.20617e-15
-7.22805e-14
-2.38566e-17
1.77223e-14
-8.68121e-13
-9.28893e-17
7.50773e-14
-2.9029e-12
-2.21226e-16
2.09921e-13
-6.39485e-12
2.71835e-16
4.51562e-13
-1.1525e-11
-2.00552e-17
8.45445e-13
-1.84693e-11
3.17335e-16
1.43217e-12
-2.74064e-11
3.51257e-16
2.25739e-12
-3.853e-11
3.22686e-18
3.37741e-12
-5.20228e-11
7.03443e-16
4.83953e-12
-6.81084e-11
1.69557e-16
6.70967e-12
-8.69929e-11
-3.14418e-16
9.03936e-12
-1.08878e-10
-2.91104e-16
1.19019e-11
-1.34022e-10
-1.30497e-17
1.53546e-11
-1.62619e-10
1.90249e-16
1.94612e-11
-1.94925e-10
2.63786e-17
2.42862e-11
-2.3114e-10
-8.50841e-18
2.98912e-11
-2.7149e-10
6.34182e-17
3.63351e-11
-3.16186e-10
1.15438e-16
4.36684e-11
-3.65422e-10
-5.26358e-17
5.19371e-11
-4.19357e-10
-1.57382e-16
6.11775e-11
-4.78135e-10
-2.22946e-16
7.14157e-11
-5.41908e-10
-1.41782e-16
8.26608e-11
-6.10673e-10
-1.02884e-16
9.49072e-11
-6.84541e-10
-3.17353e-17
1.08128e-10
-7.63423e-10
2.17478e-18
1.22277e-10
-8.47284e-10
2.82332e-17
1.37283e-10
-9.35981e-10
4.43876e-17
1.53048e-10
-1.02921e-09
5.05432e-17
1.69448e-10
-1.12685e-09
6.2976e-17
1.86331e-10
-1.22835e-09
6.72324e-17
2.03514e-10
-1.33337e-09
8.17406e-17
2.20788e-10
-1.44137e-09
9.20311e-17
2.37918e-10
-1.55169e-09
1.15919e-16
2.54642e-10
-1.66366e-09
1.3222e-16
2.70678e-10
-1.77647e-09
1.61388e-16
2.85725e-10
-1.88934e-09
1.80121e-16
2.99474e-10
-2.00127e-09
1.97542e-16
3.11611e-10
-2.11132e-09
1.75137e-16
3.21817e-10
-2.21842e-09
1.21084e-16
3.29794e-10
-2.32094e-09
5.49092e-17
-2.41901e-09
4.24559e-17
1.30908e-15
-7.37923e-14
-2.52238e-17
1.93454e-14
-8.86894e-13
-8.89978e-17
8.18419e-14
-2.96716e-12
-2.12355e-16
2.27999e-13
-6.53858e-12
2.84671e-16
4.89862e-13
-1.17871e-11
-2.64784e-17
9.15738e-13
-1.88926e-11
2.96403e-16
1.54887e-12
-2.80377e-11
2.4725e-16
2.43724e-12
-3.94227e-11
-4.00818e-16
3.65117e-12
-5.32298e-11
9.19837e-16
5.23569e-12
-6.96873e-11
6.61758e-16
7.24506e-12
-8.90074e-11
-7.70269e-16
9.74752e-12
-1.11384e-10
-2.21504e-16
1.28199e-11
-1.37095e-10
-8.04909e-17
1.65235e-11
-1.66322e-10
7.90972e-17
2.09243e-11
-1.99327e-10
-7.62131e-17
2.60906e-11
-2.36306e-10
-7.48023e-17
3.20852e-11
-2.77485e-10
2.32943e-18
3.89692e-11
-3.23069e-10
8.53084e-17
4.67942e-11
-3.73248e-10
-6.23967e-17
5.56066e-11
-4.28171e-10
-1.40533e-16
6.54419e-11
-4.87972e-10
-2.17253e-16
7.63242e-11
-5.52792e-10
-1.26227e-16
8.82598e-11
-6.22609e-10
-1.08871e-16
1.01239e-10
-6.9752e-10
-3.49239e-17
1.15228e-10
-7.77412e-10
-2.31818e-17
1.30174e-10
-8.6223e-10
5.50905e-18
1.45997e-10
-9.51804e-10
2.25607e-18
1.62588e-10
-1.0458e-09
1.80203e-17
1.79814e-10
-1.14408e-09
1.77718e-17
1.97506e-10
-1.24604e-09
3.93042e-17
2.1547e-10
-1.35133e-09
4.68007e-17
2.33484e-10
-1.45938e-09
7.72978e-17
2.51295e-10
-1.5695e-09
9.64514e-17
2.68628e-10
-1.68099e-09
1.32167e-16
2.85188e-10
-1.79303e-09
1.57792e-16
3.0066e-10
-1.90481e-09
1.93704e-16
3.14723e-10
-2.01533e-09
2.06413e-16
3.27053e-10
-2.12365e-09
1.94274e-16
3.37326e-10
-2.22869e-09
1.30604e-16
3.45236e-10
-2.32885e-09
7.05757e-17
-2.42426e-09
5.91642e-17
1.47304e-15
-7.54525e-14
-2.39238e-17
2.12848e-14
-9.07418e-13
-8.64824e-17
8.9686e-14
-3.03721e-12
-1.98921e-16
2.47989e-13
-6.695e-12
2.23489e-16
5.32469e-13
-1.20716e-11
5.64134e-18
9.92464e-13
-1.93513e-11
1.78944e-16
1.67984e-12
-2.87216e-11
4.22202e-16
2.64208e-12
-4.03839e-11
1.30072e-16
3.9432e-12
-5.45282e-11
1.27045e-16
5.63447e-12
-7.13862e-11
-7.41377e-16
7.80255e-12
-9.11695e-11
5.93483e-16
1.05028e-11
-1.14085e-10
-1.89653e-16
1.38047e-11
-1.40396e-10
6.3297e-17
1.77816e-11
-1.70297e-10
1.96381e-16
2.24999e-11
-2.04046e-10
-9.83721e-17
2.8033e-11
-2.41838e-10
5.02823e-18
3.44451e-11
-2.83898e-10
-1.0415e-17
4.17997e-11
-3.30423e-10
6.83015e-17
5.01496e-11
-3.81598e-10
-7.7153e-17
5.95413e-11
-4.37564e-10
-1.50971e-16
7.00091e-11
-4.98441e-10
-2.02064e-16
8.15752e-11
-5.64359e-10
-1.25254e-16
9.42418e-11
-6.35276e-10
-9.61473e-17
1.07994e-10
-7.11272e-10
-4.50892e-17
1.22793e-10
-7.92211e-10
-1.99778e-17
1.38576e-10
-8.78013e-10
-1.62523e-17
1.55253e-10
-9.68482e-10
-9.07853e-18
1.72707e-10
-1.06325e-09
-1.51508e-17
1.90789e-10
-1.16216e-09
-1.54578e-18
2.09319e-10
-1.26457e-09
6.11816e-18
2.28086e-10
-1.3701e-09
3.225e-17
2.46854e-10
-1.47815e-09
5.36955e-17
2.65355e-10
-1.588e-09
9.19813e-17
2.83299e-10
-1.69893e-09
1.20457e-16
3.00376e-10
-1.81011e-09
1.6354e-16
3.16258e-10
-1.92069e-09
1.94149e-16
3.30613e-10
-2.02968e-09
2.20229e-16
3.43108e-10
-2.13614e-09
2.01411e-16
3.53412e-10
-2.239e-09
1.43084e-16
3.61215e-10
-2.33665e-09
7.73518e-17
-2.42927e-09
7.70534e-17
1.58983e-15
-7.72484e-14
-2.57337e-17
2.32641e-14
-9.29686e-13
-7.26689e-17
9.78469e-14
-3.11312e-12
-1.63618e-16
2.6978e-13
-6.86464e-12
2.68592e-16
5.78373e-13
-1.23799e-11
3.54384e-17
1.07599e-12
-1.9848e-11
1.24168e-16
1.81791e-12
-2.94615e-11
2.84608e-16
2.85438e-12
-4.14236e-11
-3.35121e-16
4.26422e-12
-5.59345e-11
2.72789e-16
6.09677e-12
-7.32231e-11
-3.8263e-16
8.42803e-12
-9.34985e-11
1.62648e-16
1.13305e-11
-1.16988e-10
-2.24814e-17
1.48757e-11
-1.43942e-10
-1.03157e-16
1.91429e-11
-1.74563e-10
1.17667e-16
2.4201e-11
-2.09106e-10
-1.96031e-16
3.01266e-11
-2.47764e-10
-4.43618e-17
3.69856e-11
-2.90757e-10
-5.86837e-17
4.48433e-11
-3.3828e-10
4.58094e-17
5.37535e-11
-3.90509e-10
-7.25429e-17
6.37624e-11
-4.47573e-10
-1.0207e-16
7.4903e-11
-5.09583e-10
-1.73239e-16
8.71944e-11
-5.76651e-10
-7.12131e-17
1.00635e-10
-6.48717e-10
-7.31893e-17
1.15204e-10
-7.25841e-10
-1.2775e-17
1.30855e-10
-8.07862e-10
-2.27406e-17
1.47516e-10
-8.94674e-10
-1.27162e-17
1.65088e-10
-9.86054e-10
-3.59582e-17
1.8344e-10
-1.0816e-09
-2.76812e-17
2.0241e-10
-1.18113e-09
-3.47363e-17
2.21804e-10
-1.28396e-09
-6.00077e-18
2.41395e-10
-1.38969e-09
6.14612e-18
2.60931e-10
-1.49769e-09
4.8601e-17
2.80128e-10
-1.6072e-09
7.55e-17
2.98681e-10
-1.71749e-09
1.21811e-16
3.16265e-10
-1.82769e-09
1.56192e-16
3.3254e-10
-1.93697e-09
2.02087e-16
3.47161e-10
-2.0443e-09
2.21781e-16
3.59788e-10
-2.14877e-09
2.12496e-16
3.70082e-10
-2.24929e-09
1.46688e-16
3.77732e-10
-2.34429e-09
8.63496e-17
-2.43398e-09
8.9223e-17
1.80298e-15
-7.92282e-14
-2.43266e-17
2.59162e-14
-9.54067e-13
-3.17615e-17
1.07051e-13
-3.19572e-12
-1.68876e-16
2.94022e-13
-7.04951e-12
2.41198e-16
6.28212e-13
-1.27139e-11
2.42691e-17
1.16598e-12
-2.03852e-11
8.06504e-17
1.96943e-12
-3.02617e-11
4.21081e-16
3.09108e-12
-4.25469e-11
-1.35389e-16
4.6095e-12
-5.74498e-11
1.99971e-16
6.58194e-12
-7.52e-11
-4.41394e-16
9.09486e-12
-9.60106e-11
4.22507e-17
1.22186e-11
-1.20112e-10
-1.17708e-16
1.60301e-11
-1.47755e-10
-1.32931e-16
2.06118e-11
-1.79143e-10
1.62072e-16
2.6036e-11
-2.14532e-10
-1.71274e-16
3.23833e-11
-2.5411e-10
2.65781e-17
3.97213e-11
-2.98096e-10
-4.19358e-17
4.81175e-11
-3.46676e-10
4.29617e-17
5.76259e-11
-4.00018e-10
-7.69827e-17
6.82927e-11
-4.58241e-10
-1.26408e-16
8.01487e-11
-5.2144e-10
-1.68445e-16
9.32099e-11
-5.89712e-10
-9.49309e-17
1.0747e-10
-6.62977e-10
-7.11255e-17
1.22901e-10
-7.41272e-10
-3.86348e-17
1.39448e-10
-8.2441e-10
-1.81192e-17
1.57031e-10
-9.12258e-10
-3.64864e-17
1.75538e-10
-1.00456e-09
-3.70806e-17
1.94824e-10
-1.10089e-09
-5.50861e-17
2.14714e-10
-1.20102e-09
-4.02164e-17
2.34998e-10
-1.30425e-09
-3.08393e-17
2.55432e-10
-1.41013e-09
3.70394e-18
2.75748e-10
-1.518e-09
3.04333e-17
2.95646e-10
-1.6271e-09
7.62723e-17
3.14803e-10
-1.73664e-09
1.09487e-16
3.32881e-10
-1.84576e-09
1.59397e-16
3.49526e-10
-1.95361e-09
1.97396e-16
3.64383e-10
-2.05916e-09
2.2898e-16
3.77104e-10
-2.16148e-09
2.14478e-16
3.87344e-10
-2.25953e-09
1.53312e-16
3.94791e-10
-2.35174e-09
9.07652e-17
-2.43834e-09
1.02019e-16
1.89681e-15
-8.13864e-14
-2.40573e-17
2.79018e-14
-9.80764e-13
-9.25551e-17
1.15894e-13
-3.28545e-12
-2.13213e-16
3.20013e-13
-7.25012e-12
4.10219e-16
6.83788e-13
-1.30772e-11
6.93442e-17
1.26821e-12
-2.09707e-11
-7.15298e-17
2.13704e-12
-3.11284e-11
2.81242e-16
3.34847e-12
-4.3762e-11
-3.5989e-16
4.9876e-12
-5.90866e-11
1.22028e-16
7.1155e-12
-7.7332e-11
-3.94821e-16
9.8225e-12
-9.87161e-11
1.08756e-16
1.31834e-11
-1.23473e-10
-6.65952e-18
1.72802e-11
-1.51854e-10
-1.84667e-16
2.22e-11
-1.84062e-10
1.45743e-16
2.8018e-11
-2.20351e-10
-1.99608e-16
3.4818e-11
-2.6091e-10
9.30434e-18
4.26696e-11
-3.05948e-10
-8.15913e-17
5.16419e-11
-3.55648e-10
3.20128e-17
6.17894e-11
-4.10167e-10
-8.91954e-17
7.31574e-11
-4.6961e-10
-7.25048e-17
8.57743e-11
-5.34058e-10
-1.40902e-16
9.96522e-11
-6.03591e-10
-2.471e-17
1.14779e-10
-6.78103e-10
-4.11721e-17
1.3112e-10
-7.57612e-10
1.12204e-17
1.48611e-10
-8.41901e-10
-1.36108e-17
1.6716e-10
-9.30807e-10
-1.62377e-17
1.86642e-10
-1.02404e-09
-5.49039e-17
2.069e-10
-1.12114e-09
-5.0506e-17
2.27742e-10
-1.22186e-09
-6.29589e-17
2.48941e-10
-1.32545e-09
-2.83536e-17
2.70236e-10
-1.43142e-09
-1.45565e-17
2.91341e-10
-1.53911e-09
3.32543e-17
3.1194e-10
-1.64769e-09
6.16214e-17
3.31693e-10
-1.75639e-09
1.10875e-16
3.50247e-10
-1.86431e-09
1.4888e-16
3.67236e-10
-1.9706e-09
2.00494e-16
3.82294e-10
-2.07422e-09
2.26572e-16
3.95066e-10
-2.17425e-09
2.20446e-16
4.05203e-10
-2.26967e-09
1.55909e-16
4.12392e-10
-2.35892e-09
9.66023e-17
-2.4423e-09
1.14995e-16
2.33626e-15
-8.37096e-14
-4.69042e-17
3.30653e-14
-1.00921e-12
3.40311e-16
1.27062e-13
-3.38354e-12
-4.77091e-16
3.51449e-13
-7.4688e-12
6.32499e-16
7.43789e-13
-1.34684e-11
1.60405e-16
1.37918e-12
-2.16028e-11
2.72447e-16
2.31249e-12
-3.20628e-11
3.74117e-17
3.62442e-12
-4.50745e-11
-6.53319e-17
5.39414e-12
-6.08545e-11
8.78612e-17
7.69135e-12
-7.96318e-11
-2.15e-16
1.06094e-11
-1.01633e-10
5.90781e-17
1.42284e-11
-1.27092e-10
-6.5515e-18
1.86341e-11
-1.56261e-10
-1.62373e-16
2.39182e-11
-1.89344e-10
1.27443e-16
3.01599e-11
-2.26595e-10
-1.67689e-16
3.74461e-11
-2.68195e-10
8.85759e-18
4.58486e-11
-3.14352e-10
-5.03835e-17
5.54376e-11
-3.65237e-10
1.44977e-17
6.6268e-11
-4.20998e-10
-6.77007e-17
7.83836e-11
-4.81726e-10
-8.1366e-17
9.18099e-11
-5.47485e-10
-1.06112e-16
1.06554e-10
-6.18335e-10
-3.25122e-17
1.22598e-10
-6.94147e-10
-1.04595e-17
1.39899e-10
-7.74913e-10
-1.6596e-18
1.58382e-10
-8.60383e-10
8.11363e-18
1.77943e-10
-9.50368e-10
-3.48848e-17
1.98444e-10
-1.04455e-09
-4.33253e-17
2.1971e-10
-1.14241e-09
-7.17682e-17
2.41535e-10
-1.24368e-09
-5.55241e-17
2.63673e-10
-1.34758e-09
-4.65936e-17
2.85845e-10
-1.4536e-09
-7.88952e-18
3.07747e-10
-1.56101e-09
1.76798e-17
3.29044e-10
-1.66899e-09
6.4048e-17
3.49381e-10
-1.77673e-09
9.64929e-17
3.68389e-10
-1.88332e-09
1.48365e-16
3.8569e-10
-1.9879e-09
1.92799e-16
4.00909e-10
-2.08943e-09
2.2932e-16
4.13683e-10
-2.18702e-09
2.22244e-16
4.23662e-10
-2.27965e-09
1.60388e-16
4.30534e-10
-2.36579e-09
1.04297e-16
-2.44577e-09
1.26655e-16
2.60379e-15
-8.62873e-14
-1.62292e-17
3.50786e-14
-1.04091e-12
1.84634e-16
1.3495e-13
-3.48995e-12
-7.77791e-16
3.77969e-13
-7.70289e-12
8.48199e-16
8.03448e-13
-1.38964e-11
-2.06996e-16
1.49646e-12
-2.22924e-11
3.66203e-16
2.51094e-12
-3.30797e-11
-1.74521e-16
3.93504e-12
-4.65008e-11
-1.48364e-16
5.84469e-12
-6.27672e-11
-5.6909e-16
8.32309e-12
-8.21144e-11
-3.42799e-16
1.14673e-11
-1.04778e-10
-1.058e-16
1.53637e-11
-1.30988e-10
7.66282e-18
2.01019e-11
-1.61001e-10
-2.08392e-16
2.57786e-11
-1.9502e-10
1.43801e-16
3.24765e-11
-2.33294e-10
-1.77365e-16
4.02853e-11
-2.76003e-10
5.22145e-17
4.92788e-11
-3.23346e-10
-5.53537e-17
5.95283e-11
-3.75486e-10
5.99611e-17
7.10885e-11
-4.32558e-10
-4.55812e-17
8.40013e-11
-4.94639e-10
1.61114e-17
9.82886e-11
-5.61772e-10
-5.45754e-17
1.13952e-10
-6.33999e-10
6.3663e-17
1.30967e-10
-7.11161e-10
2.59623e-17
1.49279e-10
-7.93225e-10
5.96489e-17
1.68805e-10
-8.79908e-10
1.19079e-17
1.89425e-10
-9.70988e-10
-4.6466e-18
2.10987e-10
-1.06611e-09
-5.72087e-17
2.333e-10
-1.16472e-09
-5.44739e-17
2.56138e-10
-1.26652e-09
-7.1404e-17
2.79237e-10
-1.37068e-09
-3.42981e-17
3.023e-10
-1.47666e-09
-2.266e-17
3.25001e-10
-1.58371e-09
2.2948e-17
3.4699e-10
-1.69098e-09
4.76097e-17
3.67894e-10
-1.79763e-09
9.44336e-17
3.8733e-10
-1.90275e-09
1.34768e-16
4.04906e-10
-2.00547e-09
1.91496e-16
4.2024e-10
-2.10477e-09
2.27035e-16
4.32963e-10
-2.19974e-09
2.26235e-16
4.42723e-10
-2.28941e-09
1.67619e-16
4.49212e-10
-2.37228e-09
1.1056e-16
-2.44871e-09
1.46183e-16
2.43998e-15
-8.90718e-14
-7.50068e-17
3.81258e-14
-1.07514e-12
1.06914e-16
1.50736e-13
-3.60695e-12
-6.2836e-16
4.0715e-13
-7.96244e-12
1.45693e-16
8.8684e-13
-1.4361e-11
1.68646e-15
1.62958e-12
-2.30325e-11
9.31495e-18
2.72939e-12
-3.41766e-11
5.23188e-16
4.26235e-12
-4.80351e-11
-3.26268e-16
6.32483e-12
-6.4828e-11
2.88189e-16
9.00647e-12
-8.47957e-11
-2.49341e-17
1.2396e-11
-1.08169e-10
-1.8105e-16
1.65943e-11
-1.35186e-10
-4.06566e-17
2.16931e-11
-1.66102e-10
-1.8989e-16
2.77942e-11
-2.01119e-10
2.03846e-16
3.49837e-11
-2.40485e-10
-9.65048e-17
4.33547e-11
-2.84373e-10
9.8645e-17
5.29825e-11
-3.32974e-10
-2.62002e-17
6.39397e-11
-3.86443e-10
4.57225e-17
7.628e-11
-4.44899e-10
-2.14042e-17
9.0043e-11
-5.08401e-10
-2.63474e-17
1.05246e-10
-5.76975e-10
-5.23928e-17
1.21885e-10
-6.50638e-10
8.77558e-18
1.39926e-10
-7.29201e-10
3.02723e-17
1.59306e-10
-8.12604e-10
1.80127e-17
1.79926e-10
-9.00528e-10
2.11216e-17
2.01654e-10
-9.92717e-10
-3.66559e-17
2.24321e-10
-1.08878e-09
-4.51103e-17
2.47717e-10
-1.18812e-09
-7.69107e-17
2.71598e-10
-1.2904e-09
-5.72003e-17
2.95679e-10
-1.39476e-09
-5.09278e-17
3.19642e-10
-1.50062e-09
-1.32283e-17
3.43144e-10
-1.60721e-09
5.21432e-18
3.65814e-10
-1.71365e-09
4.61533e-17
3.87262e-10
-1.81908e-09
7.61375e-17
4.07092e-10
-1.92258e-09
1.28768e-16
4.24902e-10
-2.02328e-09
1.83363e-16
4.40298e-10
-2.12016e-09
2.27206e-16
4.5291e-10
-2.21235e-09
2.33016e-16
4.62386e-10
-2.29888e-09
1.72923e-16
4.6842e-10
-2.3783e-09
1.26826e-16
-2.45103e-09
1.59573e-16
2.80649e-15
-9.21427e-14
-4.58307e-17
4.12533e-14
-1.113e-12
3.36616e-17
1.62126e-13
-3.73399e-12
-8.4062e-16
4.39939e-13
-8.24129e-12
2.21401e-16
9.58129e-13
-1.48677e-11
1.29914e-15
1.76672e-12
-2.38376e-11
1.77649e-16
2.9627e-12
-3.53709e-11
3.60216e-16
4.62889e-12
-4.97034e-11
-3.13592e-16
6.8576e-12
-6.706e-11
-3.70945e-16
9.75289e-12
-8.76929e-11
-2.03955e-16
1.34099e-11
-1.11827e-10
-1.71337e-16
1.7935e-11
-1.39709e-10
2.09022e-16
2.3422e-11
-1.71592e-10
-3.50316e-16
2.99802e-11
-2.07676e-10
1.09116e-16
3.76992e-11
-2.48206e-10
-2.49046e-16
4.66749e-11
-2.93348e-10
3.58297e-17
5.6984e-11
-3.43284e-10
-1.6265e-16
6.86998e-11
-3.98158e-10
2.02508e-17
8.18743e-11
-4.58074e-10
-1.24145e-16
9.65442e-11
-5.23072e-10
-2.10922e-17
1.12722e-10
-5.93153e-10
-7.94948e-17
1.30396e-10
-6.68311e-10
5.70022e-17
1.49522e-10
-7.48326e-10
2.30002e-17
1.70025e-10
-8.33107e-10
5.96795e-17
1.91795e-10
-9.22297e-10
7.40131e-18
2.14681e-10
-1.0156e-09
-5.78683e-18
2.38496e-10
-1.11259e-09
-5.94456e-17
2.63012e-10
-1.21263e-09
-5.13493e-17
2.87963e-10
-1.31535e-09
-6.93847e-17
3.13044e-10
-1.41984e-09
-3.46378e-17
3.37915e-10
-1.5255e-09
-2.93063e-17
3.62213e-10
-1.63151e-09
6.46146e-18
3.85548e-10
-1.73698e-09
2.45695e-17
4.07515e-10
-1.84104e-09
6.69771e-17
4.277e-10
-1.94276e-09
1.13022e-16
4.45693e-10
-2.04127e-09
1.77908e-16
4.61094e-10
-2.13556e-09
2.29371e-16
4.73528e-10
-2.22479e-09
2.37121e-16
4.82646e-10
-2.308e-09
1.89707e-16
4.88149e-10
-2.3838e-09
1.35335e-16
-2.45266e-09
1.89995e-16
3.08242e-15
-9.55119e-14
-5.22782e-17
4.55475e-14
-1.15408e-12
1.31659e-16
1.78343e-13
-3.87256e-12
-7.9626e-16
4.83595e-13
-8.54654e-12
3.7364e-16
1.04468e-12
-1.54178e-11
1.24931e-15
1.92393e-12
-2.47144e-11
-6.09858e-18
3.21935e-12
-3.66644e-11
3.95436e-16
5.02202e-12
-5.15084e-11
-3.6205e-16
7.43622e-12
-6.94749e-11
-4.44349e-17
1.05671e-11
-9.08225e-11
1.12345e-16
1.45137e-11
-1.15777e-10
-3.52618e-16
1.93915e-11
-1.44587e-10
-8.15245e-18
2.53e-11
-1.77504e-10
-3.91449e-16
3.23531e-11
-2.14728e-10
7.73748e-17
4.06432e-11
-2.56498e-10
-2.36463e-16
5.02704e-11
-3.02974e-10
3.79634e-17
6.13111e-11
-3.54327e-10
-1.63331e-16
7.38404e-11
-4.10687e-10
5.65482e-17
8.79073e-11
-4.72141e-10
4.69992e-18
1.03545e-10
-5.38709e-10
1.9708e-17
1.20759e-10