/*--------------------------------*- C++ -*----------------------------------*\
| =========                 |                                                 |
| \\      /  F ield         | OpenFOAM: The Open Source CFD Toolbox           |
|  \\    /   O peration     | Version:  v2012                                 |
|   \\  /    A nd           | Website:  www.openfoam.com                      |
|    \\/     M anipulation  |                                                 |
\*---------------------------------------------------------------------------*/
FoamFile
{
    version     2.0;
    format      ascii;
    class       volScalarField;
    location    "1";
    object      alpha.water;
}
// * * * * * * * * * * * * * * * * * * * * * * * * * * * * * * * * * * * * * //

dimensions      [0 0 0 0 0 0 0];


internalField   nonuniform List<scalar> 
20000
(
0.999993
1
1
0.999997
1
0.999997
0.999945
0.957406
0.719252
0.470974
0.523801
0.584823
0.454345
0.165099
0.0193195
0.00040822
5.60421e-07
3.35486e-11
4.61037e-14
1.10638e-16
2.21223e-19
3.61389e-22
4.6888e-25
4.63218e-28
3.25491e-31
1.43307e-34
2.86711e-38
-6.12453e-54
-1.14977e-61
7.85691e-97
5.9109e-101
9.89924e-107
1.84789e-112
8.65253e-118
8.41261e-126
1.32695e-133
7.51608e-142
1.63722e-145
2.01627e-124
4.84673e-122
4.93791e-121
6.99386e-298
0
0
0
0
0
0
0
0
0
0
0
0
0
0
0
0
0
0
0.999993
1
1
0.999997
1
0.999997
0.999985
0.956817
0.709492
0.444137
0.48634
0.564102
0.391341
0.125522
0.0126513
0.000227612
2.49672e-07
1.44282e-11
4.47401e-14
1.15339e-16
2.44679e-19
4.19908e-22
5.67521e-25
5.79304e-28
4.16668e-31
1.85116e-34
3.59682e-38
2.35717e-55
-2.35054e-62
8.13527e-97
6.53919e-101
8.80734e-107
1.83675e-112
7.09979e-118
7.94698e-126
1.30994e-133
1.15391e-145
1.31775e-148
2.07133e-151
2.50322e-144
8.22824e-151
2.96811e-275
0
0
0
0
0
0
0
0
0
0
0
0
0
0
0
0
0
0
0.999995
0.999999
1
0.999997
1
0.999997
0.999997
0.956078
0.702536
0.429195
0.46655
0.504492
0.358091
0.107943
0.0101756
0.000174587
1.94236e-07
1.39018e-11
4.6211e-14
1.26983e-16
2.85428e-19
5.15989e-22
7.30328e-25
7.75857e-28
5.7631e-31
2.61154e-34
4.99456e-38
1.88282e-55
-3.30886e-63
8.20753e-97
6.67896e-101
8.10649e-107
1.83444e-112
6.58009e-118
7.7351e-126
9.52427e-134
1.17717e-145
1.27553e-157
9.07007e-168
5.85982e-170
4.83582e-169
1.22954e-273
0
0
0
0
0
0
0
0
0
0
0
0
0
0
0
0
0
0
0.999995
0.999999
1
0.999999
1
0.999997
0.999997
0.954941
0.692947
0.411385
0.443182
0.476559
0.321973
0.090006
0.00788263
0.00012904
1.43602e-07
1.31449e-11
4.65333e-14
1.35258e-16
3.1952e-19
6.03216e-22
8.85759e-25
9.68672e-28
7.32643e-31
3.31163e-34
5.89221e-38
-2.64857e-55
-4.80052e-64
8.23918e-97
6.72566e-101
7.31611e-107
1.83563e-112
6.19144e-118
7.69463e-126
7.15302e-134
1.18186e-145
1.31375e-157
9.52048e-168
8.78846e-172
6.30275e-171
2.21572e-272
0
0
0
0
0
0
0
0
0
0
0
0
0
0
0
0
0
0
0.999996
0.999998
1
0.999999
1
0.999997
0.999997
0.953719
0.683182
0.394193
0.420547
0.443348
0.288326
0.0751808
0.0061796
9.85608e-05
1.15937e-07
1.1723e-11
4.27309e-14
1.29493e-16
3.18844e-19
6.24519e-22
9.45251e-25
1.05549e-27
8.02672e-31
3.53314e-34
5.39199e-38
-1.31766e-47
-3.56387e-65
8.45366e-97
6.72611e-101
6.55183e-107
1.86217e-112
5.99459e-118
8.17892e-126
5.2726e-134
1.17941e-145
1.35846e-157
1.00646e-167
7.28743e-180
3.84229e-179
2.41112e-271
0
0
0
0
0
0
0
0
0
0
0
0
0
0
0
0
0
0
0.999997
0.999999
1
0.999999
1
0.999997
0.999997
0.952307
0.672595
0.376824
0.397618
0.411662
0.256186
0.0623753
0.00484839
7.65146e-05
9.67868e-08
1.03197e-11
-1.67583e-13
-7.38778e-16
-2.03655e-18
-4.19868e-21
-6.73229e-24
-8.31543e-27
-7.66894e-30
-4.92534e-33
-1.87138e-36
-2.34316e-40
3.22337e-93
8.19396e-97
6.63353e-101
5.81712e-107
1.92494e-112
5.92305e-118
1.33446e-125
3.8678e-134
1.18127e-145
1.41148e-157
1.07241e-167
1.22401e-180
5.86729e-200
1.8277e-270
0
0
0
0
0
0
0
0
0
0
0
0
0
0
0
0
0
0
0.999997
0.999998
1
0.999999
1
0.999998
0.999998
0.950831
0.661717
0.359645
0.374724
0.380144
0.225899
0.0515311
0.00382139
6.0646e-05
8.53695e-08
3.33968e-12
-1.57307e-13
-6.9972e-16
-2.03784e-18
-4.51645e-21
-7.75886e-24
-1.01868e-26
-9.82319e-30
-6.40389e-33
-2.31925e-36
-1.7632e-40
3.08331e-93
8.04449e-97
6.40276e-101
5.13116e-107
2.01782e-112
5.91501e-118
3.54987e-125
2.81468e-134
1.20582e-145
1.47479e-157
1.15284e-167
1.38118e-180
9.86131e-204
1.04672e-269
0
0
0
0
0
0
0
0
0
0
0
0
0
0
0
0
0
0
0.999998
0.999999
1
0.999999
1
0.999998
0.999998
0.949231
0.650387
0.342641
0.351889
0.349384
0.197676
0.0424193
0.00302743
4.90234e-05
7.87394e-08
1.4411e-12
-1.34757e-13
-6.06433e-16
-1.83643e-18
-4.22106e-21
-7.51907e-24
-1.0156e-26
-9.90462e-30
-6.30286e-33
-2.01052e-36
-4.38728e-53
2.0972e-93
7.78091e-97
6.08287e-101
4.50727e-107
2.15171e-112
6.04973e-118
9.02455e-125
2.03512e-134
1.28167e-145
1.5506e-157
1.25133e-167
1.58636e-180
1.92209e-209
4.77354e-269
0
0
0
0
0
0
0
0
0
0
0
0
0
0
0
0
0
0
0.999998
0.999998
1
0.999999
1
0.999998
0.999998
0.947539
0.638716
0.326003
0.329292
0.319235
0.171821
0.0348274
0.00241208
4.04074e-05
7.54753e-08
-2.51532e-13
-1.11592e-13
-5.04028e-16
-1.50054e-18
-3.52348e-21
-6.37133e-24
-8.62446e-27
-8.22418e-30
-4.8449e-33
-1.16999e-36
2.5626e-78
2.8812e-93
7.48231e-97
5.71687e-101
3.95595e-107
2.33743e-112
6.27645e-118
1.8272e-124
1.46229e-134
1.4363e-145
1.64151e-157
1.37242e-167
1.85629e-180
2.49475e-226
1.79882e-268
0
0
0
0
0
0
0
0
0
0
0
0
0
0
0
0
0
0
0.999999
0.999998
1
1
1
0.999998
0.999998
0.945718
0.626612
0.309831
0.307129
0.289754
0.148405
0.0285522
0.0019338
3.3938e-05
7.38698e-08
-9.47644e-13
-9.18049e-14
-4.04644e-16
-1.23465e-18
-2.84025e-21
-5.00455e-24
-6.52464e-27
-5.8217e-30
-2.97154e-33
-3.92514e-37
3.16891e-88
2.80061e-93
7.13265e-97
5.33143e-101
3.4855e-107
2.57889e-112
6.37889e-118
3.02811e-124
1.04467e-134
1.69683e-145
1.75068e-157
1.52196e-167
2.21503e-180
2.05576e-229
5.75663e-268
0
0
0
0
0
0
0
0
0
0
0
0
0
0
0
0
0
0
0.999999
0.999998
1
1
1
0.999998
0.999998
0.94376
0.614096
0.294097
0.285421
0.261213
0.127411
0.0233937
0.00156016
2.90186e-05
7.23154e-08
-1.15545e-12
-9.43512e-14
-3.73878e-16
-1.06166e-18
-2.34255e-21
-3.95676e-24
-4.84575e-27
-3.84876e-30
-1.49235e-33
-5.18131e-52
4.38264e-88
2.76269e-93
6.74873e-97
4.94857e-101
3.10261e-107
2.87945e-112
6.39099e-118
4.30957e-124
7.4223e-135
2.07966e-145
1.88203e-157
1.70768e-167
2.69785e-180
4.8331e-232
1.59795e-267
0
0
0
0
0
0
0
0
0
0
0
0
0
0
0
0
0
0
1
0.999997
1
1
1
0.999999
0.999998
0.941645
0.601156
0.278656
0.264258
0.2339
0.108802
0.0191745
0.00126674
2.52231e-05
7.0089e-08
-2.03919e-12
-7.761e-14
-2.97109e-16
-8.12587e-19
-1.71103e-21
-2.70167e-24
-2.97867e-27
-1.96336e-30
-4.57215e-34
2.73263e-77
3.40428e-88
2.72913e-93
6.33934e-97
4.58877e-101
2.81244e-107
3.23969e-112
6.3252e-118
5.45072e-124
5.24723e-135
2.5451e-145
2.04052e-157
1.93989e-167
3.35722e-180
1.13532e-234
3.91267e-267
0
0
0
0
0
0
0
0
0
0
0
0
0
0
0
0
0
0
1
0.999997
1
1
1
0.999999
0.999984
0.939397
0.587863
0.263416
0.24375
0.208112
0.092483
0.0157338
0.00103485
2.22404e-05
6.69568e-08
-1.72902e-12
-6.11882e-14
-2.24511e-16
-5.83122e-19
-1.14555e-21
-1.64148e-24
-1.55538e-27
-7.64892e-31
-3.20076e-35
6.03908e-86
3.57712e-88
2.70453e-93
5.91466e-97
4.27125e-101
2.61708e-107
3.65596e-112
6.11806e-118
6.26615e-124
3.68998e-135
2.9303e-145
2.23252e-157
2.23253e-167
4.27275e-180
2.5548e-237
8.56699e-267
0
0
0
0
0
0
0
0
0
0
0
0
0
0
0
0
0
0
1
0.999997
1
1
1
0.999999
0.999945
0.93703
0.574329
0.248381
0.224016
0.184108
0.0783224
0.0129326
0.000850426
1.98376e-05
6.29237e-08
-1.26931e-12
-4.65342e-14
-1.62166e-16
-3.90985e-19
-6.99368e-22
-8.76835e-25
-6.67467e-28
-1.95264e-31
-2.69646e-54
5.36151e-85
3.70055e-88
2.69019e-93
5.48367e-97
4.01382e-101
2.51141e-107
4.12108e-112
5.7926e-118
6.68342e-124
2.5824e-135
3.08198e-145
2.46625e-157
2.60465e-167
5.56741e-180
5.31724e-240
1.69646e-266
0
0
0
0
0
0
0
0
0
0
0
0
0
0
0
0
0
0
1
0.999997
1
1
1
0.999999
0.999885
0.934591
0.560745
0.233648
0.205165
0.162067
0.0661475
0.0106524
0.000702783
1.78379e-05
5.8268e-08
1.83977e-14
-3.41478e-14
-1.11107e-16
-2.44935e-19
-3.87006e-22
-4.04049e-25
-2.21045e-28
-1.43575e-32
3.4644e-83
5.79879e-85
3.86626e-88
2.685e-93
5.05434e-97
3.83101e-101
2.47548e-107
4.62442e-112
5.38102e-118
6.79727e-124
1.80036e-135
3.08366e-145
2.75244e-157
3.08263e-167
7.43516e-180
9.94725e-243
3.06727e-266
0
0
0
0
0
0
0
0
0
0
0
0
0
0
0
0
0
0
1
0.999997
1
1
1
0.999999
0.999836
0.932158
0.547367
0.219366
0.187281
0.142071
0.0557597
0.00879509
0.00058381
1.61077e-05
5.32744e-08
4.7507e-12
-2.54376e-14
-7.41765e-17
-1.44234e-19
-1.93552e-22
-1.56884e-25
-4.83062e-29
-7.16542e-52
3.25026e-83
5.67184e-85
4.05575e-88
2.68774e-93
4.63333e-97
3.7286e-101
2.47405e-107
5.15275e-112
4.9081e-118
6.79159e-124
1.24767e-135
2.93981e-145
3.10523e-157
3.70348e-167
1.01883e-179
1.64309e-245
5.1046e-266
0
0
0
0
0
0
0
0
0
0
0
0
0
0
0
0
0
0
1
0.999996
1
1
1
0.999999
0.999787
0.929825
0.534511
0.205692
0.170422
0.124112
0.0469492
0.00727992
0.000487293
1.45496e-05
4.82013e-08
5.70979e-12
-1.76113e-14
-4.61867e-17
-7.75695e-20
-8.44093e-23
-4.71314e-26
-2.24994e-30
1.34305e-81
3.28056e-83
5.60509e-85
4.27793e-88
2.72058e-93
4.22602e-97
3.69364e-101
2.65749e-107
5.69137e-112
4.4003e-118
6.60887e-124
8.63227e-136
2.7619e-145
3.5434e-157
4.51976e-167
1.43414e-179
2.40875e-248
7.87388e-266
0
0
0
0
0
0
0
0
0
0
0
0
0
0
0
0
0
0
1
0.999996
1
1
1
0.999998
0.999738
0.927721
0.52253
0.192775
0.154622
0.108119
0.0395096
0.00604138
0.000408436
1.30996e-05
4.32545e-08
5.09858e-12
-1.16599e-14
-2.70231e-17
-3.796e-20
-3.12189e-23
-9.05062e-27
-1.44049e-52
3.74244e-82
3.23961e-83
5.53948e-85
4.53531e-88
2.76377e-93
3.83652e-97
3.69639e-101
3.24236e-107
6.22528e-112
3.88592e-118
6.23565e-124
5.9332e-136
2.68557e-145
4.09208e-157
5.60716e-167
2.0762e-179
3.30544e-251
1.13251e-265
0
0
0
0
0
0
0
0
0
0
0
0
0
0
0
0
0
0
1
0.999995
1
1
1
0.999998
0.999698
0.925887
0.511785
0.180742
0.139901
0.0939776
0.0332476
0.00502615
0.000343515
1.17239e-05
3.85842e-08
4.19667e-12
-7.42959e-15
-1.49114e-17
-1.68003e-20
-9.24984e-24
-9.57118e-29
3.87697e-59
1.97006e-80
3.22314e-83
5.48677e-85
4.83159e-88
2.82465e-93
3.46777e-97
3.93045e-101
4.14828e-107
6.74035e-112
3.39171e-118
5.80482e-124
4.06995e-136
2.70814e-145
4.7853e-157
7.0763e-167
3.09496e-179
4.793e-254
1.52686e-265
0
0
0
0
0
0
0
0
0
0
0
0
0
0
0
0
0
0
1
0.999994
1
1
1
0.999999
0.999666
0.924689
0.502554
0.169689
0.126263
0.0815475
0.0279869
0.00419095
0.000289635
1.04135e-05
3.42615e-08
3.34509e-12
-4.59441e-15
-7.80258e-18
-6.64863e-21
-1.81893e-24
-1.75034e-40
4.22054e-59
1.42935e-81
3.21299e-83
5.44835e-85
5.171e-88
2.90974e-93
3.1217e-97
4.58555e-101
5.26779e-107
7.22416e-112
2.94091e-118
5.42546e-124
2.78017e-136
3.11734e-145
5.66957e-157
9.0912e-167
4.75642e-179
8.45893e-257
1.9384e-265
0
0
0
0
0
0
0
0
0
0
0
0
0
0
0
0
0
0
0.999999
0.999993
1
1
1
0.999999
0.999647
0.923732
0.495207
0.159679
0.113698
0.0706695
0.0235704
0.00350072
0.00024455
9.17423e-06
3.02774e-08
2.62888e-12
-2.82897e-15
-3.93154e-18
-2.29247e-21
-2.63916e-33
2.28809e-52
4.41959e-59
1.42832e-81
3.21291e-83
5.42629e-85
5.55801e-88
3.01911e-93
2.79939e-97
5.58398e-101
6.58443e-107
7.6667e-112
2.5531e-118
5.16142e-124
1.90555e-136
4.24698e-145
6.80911e-157
1.18989e-166
7.54526e-179
2.06872e-259
2.32665e-265
0
0
0
0
0
0
0
0
0
0
0
0
0
0
0
0
0
0
0.999999
0.999993
1
1
1
0.999999
0.999643
0.923449
0.48947
0.150739
0.102181
0.0611761
0.0198603
0.0029273
0.000206527
8.01703e-06
2.65683e-08
2.05578e-12
-1.723e-15
-1.92125e-18
-6.22153e-22
-1.15029e-34
2.37567e-52
4.66609e-59
3.25012e-83
3.24894e-83
5.41856e-85
5.99768e-88
3.15755e-93
2.50122e-97
6.92802e-101
8.09392e-107
8.06059e-112
2.24446e-118
5.03235e-124
1.30381e-136
5.73969e-145
8.2937e-157
1.58777e-166
1.23699e-178
1.06552e-261
2.64977e-265
0
0
0
0
0
0
0
0
0
0
0
0
0
0
0
0
0
0
0.999999
0.999992
1
1
1
1
0.999653
0.923575
0.48653
0.142868
0.0916713
0.0529009
0.0167377
0.00244827
0.000174232
6.95084e-06
2.30598e-08
1.6106e-12
-1.06885e-15
-9.26229e-19
-7.23749e-23
-2.24268e-36
2.42235e-52
4.92011e-59
1.09703e-80
3.30195e-83
5.44846e-85
6.49567e-88
3.3295e-93
2.22707e-97
8.7278e-101
9.75262e-107
8.40126e-112
2.02674e-118
4.99997e-124
8.81956e-137
6.66545e-145
1.02503e-156
2.16164e-166
2.09836e-178
3.65069e-263
2.87239e-265
0
0
0
0
0
0
0
0
0
0
0
0
0
0
0
0
0
0
0.999998
0.999992
1
1
1
1
0.999696
0.924566
0.484181
0.13603
0.0821196
0.0456877
0.0141024
0.00204595
0.000146644
5.98006e-06
1.97019e-08
1.26821e-12
-6.88062e-16
-4.41127e-19
-1.02654e-30
8.97906e-46
2.47908e-52
5.19154e-59
8.65608e-82
3.37294e-83
5.5303e-85
7.05847e-88
3.5403e-93
1.97645e-97
1.10776e-100
1.14828e-106
8.68688e-112
1.90304e-118
5.24386e-124
6.11217e-137
6.9656e-145
1.2861e-156
3.00477e-166
3.68747e-178
8.42831e-264
2.972e-265
0
0
0
0
0
0
0
0
0
0
0
0
0
0
0
0
0
0
0.999997
0.999991
1
1
1
1
0.999804
0.92581
0.4837
0.130191
0.0734661
0.039396
0.0118714
0.00170652
0.000122981
5.10499e-06
1.64852e-08
1.10919e-12
-4.67532e-16
-2.04459e-19
-9.09356e-32
9.3679e-46
2.53534e-52
5.47724e-59
3.50687e-83
3.50616e-83
5.6436e-85
7.69354e-88
3.79669e-93
1.74865e-97
1.40128e-100
1.31973e-106
8.91829e-112
1.8593e-118
6.31738e-124
4.26566e-137
6.98099e-145
1.63901e-156
4.26758e-166
6.72046e-178
4.13937e-264
2.9424e-265
0
0
0
0
0
0
0
0
0
0
0
0
0
0
0
0
0
0
0.999995
0.99999
1
1
1
1
0.999886
0.927722
0.485403
0.125172
0.0656403
0.0339034
0.00997684
0.00141918
0.000102647
4.32322e-06
1.34369e-08
1.14864e-12
-3.40112e-16
-8.28993e-20
-4.18496e-33
1.00584e-45
2.59388e-52
5.7774e-59
1.52089e-80
3.62623e-83
5.81491e-85
8.40963e-88
4.10681e-93
1.54292e-97
1.75344e-100
1.4815e-106
9.09915e-112
1.85938e-118
7.93677e-124
2.90766e-137
6.84802e-145
2.1227e-156
6.19725e-166
1.27162e-177
2.54574e-264
2.79359e-265
0
0
0
0
0
0
0
0
0
0
0
0
0
0
0
0
0
0
0.999995
0.999989
1
1
1
1
0.999947
0.930168
0.488318
0.120882
0.0585912
0.0291059
0.00836394
0.00117551
8.51804e-05
3.63088e-06
1.06062e-08
8.83965e-13
-2.59027e-16
-1.30165e-20
-6.24787e-36
1.04436e-45
2.65413e-52
6.0916e-59
1.742e-81
3.79605e-83
6.04382e-85
9.21707e-88
4.48074e-93
1.35871e-97
2.16256e-100
1.62666e-106
9.23614e-112
2.17246e-118
9.87871e-124
2.01542e-137
6.76595e-145
2.79534e-156
9.20772e-166
2.50054e-177
1.727e-264
2.54846e-265
0
0
0
0
0
0
0
0
0
0
0
0
0
0
0
0
0
0
0.999994
0.999989
1
1
1
1
0.999982
0.932964
0.491958
0.117204
0.05226
0.0249169
0.00698885
0.000968835
7.02166e-05
3.02334e-06
8.05003e-09
5.10747e-13
-2.02046e-16
2.47422e-28
8.81834e-38
1.08965e-45
2.71667e-52
6.42004e-59
1.86195e-81
4.01217e-83
6.34015e-85
1.01283e-87
4.93101e-93
1.19605e-97
2.62506e-100
1.74986e-106
9.33932e-112
3.25569e-118
1.21197e-123
1.71745e-137
7.18039e-145
3.74515e-156
1.40059e-165
5.11459e-177
1.23077e-264
2.2377e-265
0
0
0
0
0
0
0
0
0
0
0
0
0
0
0
0
0
0
0.999994
0.999989
1
1
1
1
0.999969
0.935878
0.496481
0.114099
0.0465749
0.0212641
0.00581626
0.000793834
5.74584e-05
2.49557e-06
5.8259e-09
3.56478e-13
-1.56781e-16
2.46866e-28
9.0848e-38
1.13417e-45
2.78216e-52
6.76348e-59
1.94496e-81
4.2708e-83
6.71274e-85
1.11583e-87
5.47329e-93
1.05604e-97
3.13561e-100
1.84745e-106
9.42241e-112
5.08429e-118
1.45263e-123
1.21978e-137
1.36053e-144
5.10799e-156
2.18238e-165
1.08897e-176
8.9094e-265
1.89409e-265
0
0
0
0
0
0
0
0
0
0
0
0
0
0
0
0
0
0
0.999992
0.999988
1
1
1
1
0.999975
0.938651
0.501286
0.111533
0.0414469
0.0180849
0.00481749
0.000646147
4.66534e-05
2.04227e-06
3.98692e-09
2.37306e-13
-1.13717e-16
2.47133e-28
9.20236e-38
1.17999e-45
2.85168e-52
7.12352e-59
2.056e-81
4.58541e-83
7.17349e-85
1.23256e-87
6.12733e-93
9.41317e-98
3.68817e-100
1.91617e-106
9.50308e-112
7.54794e-118
1.69264e-123
1.04293e-137
3.74664e-144
7.09629e-156
3.48522e-165
2.41499e-176
6.43589e-265
1.54761e-265
0
0
0
0
0
0
0
0
0
0
0
0
0
0
0
0
0
0
0.999991
0.999988
1
1
1
1
0.999986
0.940701
0.505901
0.10936
0.0367901
0.0153238
0.00396884
0.000522138
3.758e-05
1.65781e-06
2.57078e-09
1.38838e-13
-6.7547e-17
2.47092e-28
9.33968e-38
1.22692e-45
2.92683e-52
7.5029e-59
2.1826e-81
4.96379e-83
7.73797e-85
1.3653e-87
6.91819e-93
8.55905e-98
4.277e-100
1.95217e-106
9.60514e-112
1.06535e-117
1.9234e-123
9.59643e-138
8.09986e-144
1.00476e-155
5.70697e-165
5.58081e-176
4.59965e-265
1.22209e-265
0
0
0
0
0
0
0
0
0
0
0
0
0
0
0
0
0
0
0.999989
0.999987
1
1
1
1
1
0.942191
0.509728
0.107139
0.0325538
0.0129317
0.00325037
0.0004187
3.00377e-05
1.33617e-06
1.58447e-09
7.04745e-14
-2.18596e-17
2.46693e-28
9.46977e-38
1.27559e-45
3.00971e-52
7.9058e-59
2.33256e-81
5.42138e-83
8.42698e-85
1.5169e-87
7.8779e-93
8.03652e-98
4.89748e-100
1.96041e-106
9.76287e-112
1.4387e-117
2.14729e-123
9.36885e-138
1.31743e-143
1.45069e-155
9.58544e-165
1.34421e-175
3.23592e-265
9.33624e-266
0
0
0
0
0
0
0
0
0
0
0
0
0
0
0
0
0
0
0.999988
0.999987
1
1
1
0.999999
1
0.943545
0.511828
0.104363
0.028676
0.0108652
0.00264503
0.000333132
2.38409e-05
1.07093e-06
9.85568e-10
3.29121e-14
1.05347e-19
2.46197e-28
9.60726e-38
1.32674e-45
3.10316e-52
8.33813e-59
2.50902e-81
5.97773e-83
9.26848e-85
1.69097e-87
9.04776e-93
7.82031e-98
5.54672e-100
1.95196e-106
1.00275e-111
1.86813e-117
2.37885e-123
9.98021e-138
1.75637e-143
2.13688e-155
1.65184e-164
3.37467e-175
2.23363e-265
6.90651e-266
0
0
0
0
0
0
0
0
0
0
0
0
0
0
0
0
0
0
0.999986
0.999987
1
1
1
0.999999
1
0.943879
0.5123
0.100393
0.0250921
0.00908635
0.00213811
0.000263054
1.88155e-05
8.55361e-07
7.15553e-10
1.5658e-14
1.02561e-19
2.45804e-28
9.75764e-38
1.38144e-45
3.21078e-52
8.80798e-59
2.71496e-81
6.6607e-83
1.03001e-84
1.89204e-87
1.04814e-92
7.77127e-98
6.2241e-100
1.92341e-106
1.04788e-111
2.35129e-117
2.64899e-123
3.32239e-137
2.08558e-143
3.21253e-155
2.9211e-164
8.82875e-175
1.5094e-265
4.95103e-266
0
0
0
0
0
0
0
0
0
0
0
0
0
0
0
0
0
1.88573e-300
0.999986
0.999987
1
1
1
0.999999
1
0.942878
0.505135
0.0948763
0.0217637
0.00756211
0.0017168
0.000206336
1.47963e-05
6.82639e-07
6.35018e-10
1.24832e-14
9.84997e-20
2.45637e-28
9.93148e-38
1.44113e-45
3.3372e-52
9.32601e-59
2.96105e-81
7.50928e-83
1.15725e-84
2.12589e-87
1.22492e-92
8.68085e-98
6.93177e-100
1.88231e-106
1.12482e-111
2.90098e-117
3.01419e-123
5.02975e-136
2.37492e-143
4.93054e-155
5.30119e-164
2.40585e-174
9.97021e-266
3.44162e-266
0
0
0
0
0
0
0
0
0
0
0
0
0
0
0
0
1.85312e-300
3.0819e-298
0.999985
0.999987
1
1
1
0.999999
0.999999
0.940622
0.494964
0.087594
0.018682
0.00626493
0.00136991
0.000161065
1.16272e-05
5.46092e-07
8.02942e-10
2.68614e-14
9.46133e-20
2.46159e-28
1.01408e-37
1.50768e-45
3.48822e-52
9.90604e-59
3.14013e-81
8.57869e-83
1.31537e-84
2.39996e-87
1.44439e-92
1.40714e-97
7.6752e-100
1.84059e-106
1.25602e-111
3.55428e-117
3.57282e-123
1.06415e-134
2.84456e-143
7.72645e-155
9.87251e-164
6.82372e-174
6.43015e-266
2.32109e-266
0
0
0
0
0
0
0
0
0
0
0
0
0
0
0
4.2739e-300
3.34172e-298
5.35729e-296
0.999985
0.999987
1
1
1
0.999998
0.999999
0.936681
0.477963
0.0786561
0.0158719
0.00517121
0.00108755
0.000125483
9.16336e-06
4.39485e-07
9.86957e-10
2.40225e-14
9.08088e-20
2.47611e-28
1.04002e-37
1.58342e-45
3.67117e-52
1.05657e-58
9.95857e-83
9.93919e-83
1.51351e-84
2.72378e-87
1.71895e-92
2.99371e-97
8.46395e-100
1.81034e-106
1.48061e-111
4.38526e-117
4.48424e-123
2.22098e-133
4.2928e-143
1.23621e-154
1.88639e-163
2.01245e-173
4.04559e-266
1.51939e-266
0
0
0
0
0
0
0
0
0
0
0
0
0
0
1.76134e-299
8.51082e-298
6.42229e-296
9.93142e-294
0.999984
0.999987
1
1
1
0.999998
0.999999
0.931016
0.455575
0.0686244
0.013376
0.00425966
0.000860799
9.7984e-05
7.26854e-06
3.57569e-07
1.0195e-09
2.1726e-14
8.72353e-20
2.50368e-28
1.07274e-37
1.67129e-45
3.89528e-52
1.13273e-58
3.07386e-80
1.15602e-82
1.76389e-84
3.10972e-87
2.06521e-92
6.67525e-97
9.31297e-100
1.79763e-106
1.86596e-111
5.52626e-117
5.97365e-123
3.17445e-132
8.72454e-143
2.01904e-154
3.69707e-163
6.16355e-173
2.48133e-266
9.65689e-267
0
0
0
0
0
0
0
0
0
0
0
0
4.56734e-300
1.16022e-298
3.87756e-297
1.8101e-295
1.31906e-293
1.96879e-291
0.999985
0.999987
0.999999
1
1
0.999998
0.999998
0.923653
0.428301
0.0583336
0.0112315
0.00350953
0.000681544
7.70479e-05
5.83811e-06
2.9229e-07
1.02003e-09
1.97587e-14
8.40026e-20
2.54848e-28
1.11431e-37
1.77489e-45
4.17228e-52
1.2219e-58
6.86027e-81
1.32655e-82
2.08282e-84
3.5739e-87
2.50576e-92
1.43404e-96
1.02447e-99
1.81403e-106
2.52352e-111
7.19835e-117
8.29972e-123
2.49138e-131
1.78434e-142
3.36507e-154
7.42878e-163
1.9574e-172
1.48279e-266
5.96071e-267
0
0
0
0
0
0
0
0
0
0
3.80366e-300
5.94173e-299
1.15076e-297
2.82769e-296
9.13857e-295
4.12379e-293
2.90372e-291
4.18556e-289
0.999986
0.999987
0.999998
1
1
0.999998
0.999998
0.914881
0.398123
0.0487012
0.009448
0.00289968
0.000542119
6.14149e-05
4.73885e-06
2.38743e-07
1.02512e-09
1.81e-14
8.12108e-20
2.61524e-28
1.16724e-37
1.89864e-45
4.51715e-52
1.32764e-58
8.46038e-81
1.54727e-82
2.492e-84
4.13744e-87
3.07147e-92
2.88763e-96
1.12925e-99
2.05025e-106
3.62626e-111
9.74136e-117
1.16779e-122
1.10045e-130
3.02291e-142
5.72067e-154
1.52958e-162
6.43438e-172
8.62851e-267
3.57367e-267
0
0
0
0
0
0
0
1.01406e-300
8.63369e-300
8.84701e-299
1.09638e-297
1.65872e-296
3.11031e-295
7.39722e-294
2.31307e-292
1.00954e-290
6.87251e-289
9.57228e-287
0.999987
0.999987
0.999998
1
1
0.999997
0.999997
0.905233
0.367466
0.0405134
0.00800149
0.00240883
0.000435888
4.97302e-05
3.86745e-06
1.97158e-07
1.0358e-09
1.67363e-14
7.89399e-20
2.70942e-28
1.23449e-37
2.04798e-45
4.94919e-52
1.45445e-58
9.62648e-81
1.82134e-82
3.0201e-84
4.82825e-87
3.80498e-92
5.39936e-96
1.25071e-99
2.78957e-106
5.42074e-111
1.36175e-116
1.61926e-122
3.15262e-130
4.2593e-142
9.9149e-154
3.22505e-162
2.18502e-171
4.887e-267
2.08121e-267
0
0
0
0
1.85806e-300
8.7673e-300
5.01015e-299
3.44608e-298
2.84669e-297
2.82889e-296
3.39846e-295
4.98239e-294
9.05038e-293
2.08443e-291
6.30974e-290
2.66494e-288
1.75485e-286
2.36299e-284
0.999988
0.999987
0.999998
1
1
0.999997
0.999997
0.895545
0.338978
0.034106
0.0068509
0.00201726
0.0003562
4.07593e-05
3.19419e-06
1.65153e-07
1.05392e-09
1.56574e-14
7.72229e-20
2.83734e-28
1.31973e-37
2.22961e-45
5.49354e-52
1.60807e-58
1.13406e-80
2.16749e-82
3.70485e-84
5.68342e-87
4.76574e-92
9.40124e-96
1.39664e-99
5.23258e-106
8.22544e-111
1.93521e-116
2.17597e-122
6.8195e-130
5.38305e-142
1.75105e-153
6.95791e-162
7.64877e-171
2.69273e-267
1.17732e-267
1.55326e-299
2.7598e-299
6.52994e-299
1.97213e-298
7.4072e-298
3.40101e-297
1.88933e-296
1.26232e-295
1.01231e-294
9.76134e-294
1.1374e-292
1.61676e-291
2.84644e-290
6.35182e-289
1.86229e-287
7.6152e-286
4.85292e-284
6.32059e-282
0.999989
0.999987
0.999998
1
1
0.999997
0.999996
0.886431
0.314937
0.0297937
0.00594018
0.00170887
0.000295518
3.38794e-05
2.68338e-06
1.40666e-07
1.08193e-09
1.48543e-14
7.60981e-20
3.00655e-28
1.42741e-37
2.45184e-45
6.18316e-52
1.79587e-58
1.39471e-80
2.6059e-82
4.59568e-84
6.75267e-87
6.03739e-92
1.53805e-95
1.57939e-99
1.28056e-105
1.24095e-110
2.73941e-116
2.81894e-122
1.25813e-129
6.79778e-142
3.14971e-153
1.53476e-161
2.75369e-170
1.44269e-267
6.46857e-268
7.29059e-297
1.27497e-296
2.95523e-296
8.71814e-296
3.19238e-295
1.42711e-294
7.71112e-294
5.00735e-293
3.90049e-292
3.65143e-291
4.12886e-290
5.69327e-289
9.71984e-288
2.10254e-286
5.97343e-285
2.36602e-283
1.45985e-281
1.83989e-279
0.99999
0.999987
0.999997
1
1
0.999996
0.999996
0.879935
0.298069
0.0270215
0.0052535
0.00145997
0.000249278
2.87061e-05
2.29785e-06
1.22085e-07
1.12179e-09
1.43328e-14
7.56173e-20
3.2261e-28
1.56306e-37
2.72501e-45
7.06167e-52
2.02739e-58
2.70404e-80
3.16475e-82
5.75762e-84
8.10323e-87
7.73873e-92
2.38867e-95
1.81906e-99
3.41701e-105
1.83526e-110
3.79362e-116
3.53651e-122
2.16717e-129
1.11715e-141
5.76769e-153
3.45808e-161
1.01715e-169
7.51231e-268
3.45134e-268
3.71321e-294
6.39253e-294
1.4521e-293
4.18644e-293
1.49533e-292
6.5118e-292
3.42414e-291
2.16223e-290
1.63684e-289
1.4884e-288
1.63406e-287
2.18679e-286
3.62203e-285
7.59845e-284
2.09281e-282
8.03296e-281
4.80091e-279
5.85759e-277
0.999992
0.999987
0.999996
1
1
0.999996
0.999996
0.874766
0.287378
0.0263192
0.00467918
0.00126203
0.000214481
2.48384e-05
2.00871e-06
1.08118e-07
1.17572e-09
1.40547e-14
7.57155e-20
3.50705e-28
1.73363e-37
3.06206e-45
8.18717e-52
2.31511e-58
1.86921e-80
3.88224e-82
7.27703e-84
9.82668e-87
1.004e-91
3.55502e-95
2.14929e-99
8.751e-105
2.63902e-110
5.07956e-116
4.35515e-122
3.72359e-129
3.80044e-141
1.0747e-152
7.95152e-161
3.84538e-169
3.79985e-268
1.78785e-268
2.06437e-291
3.49929e-291
7.79289e-291
2.19667e-290
7.65727e-290
3.25001e-289
1.66399e-288
1.02231e-287
7.52478e-287
6.64952e-286
7.09126e-285
9.2145e-284
1.48135e-282
3.01515e-281
8.05423e-280
2.9971e-278
1.73572e-276
2.05098e-274
0.999995
0.999986
0.999995
1
1
0.999996
0.999995
0.87312
0.283393
0.0257998
0.00421931
0.00111118
0.000188468
2.19612e-05
1.7937e-06
9.77585e-08
1.24602e-09
1.39621e-14
7.65684e-20
3.86308e-28
1.94785e-37
3.47931e-45
9.63752e-52
2.67546e-58
2.4945e-80
4.82027e-82
9.27017e-84
1.2049e-86
1.31876e-91
5.11145e-95
2.6276e-99
2.05176e-104
3.67511e-110
6.5476e-116
5.39969e-122
6.63692e-129
1.64454e-140
2.03648e-152
1.864e-160
1.48424e-168
1.86602e-268
8.98893e-269
1.26089e-288
2.10483e-288
4.59717e-288
1.26756e-287
4.31424e-287
1.78557e-286
8.9058e-286
5.32593e-285
3.81351e-284
3.27646e-283
3.39562e-282
4.28614e-281
6.6908e-280
1.32186e-278
3.42597e-277
1.2364e-275
6.94123e-274
7.94629e-272
0.999997
0.999986
0.999995
1
1
0.999995
0.999675
0.873451
0.287262
0.0267685
0.00390482
0.00099548
0.000169083
1.98382e-05
1.63594e-06
9.02376e-08
1.3352e-09
1.43002e-14
7.80575e-20
4.3112e-28
2.21683e-37
3.99734e-45
1.15176e-51
3.13035e-58
2.92335e-80
6.01443e-82
1.19039e-83
1.49448e-86
1.75404e-91
7.1485e-95
3.35367e-99
4.3815e-104
4.9488e-110
8.15007e-116
7.06298e-122
1.23015e-128
5.05934e-140
3.9218e-152
4.44989e-160
5.83483e-168
8.89156e-269
4.38492e-269
8.51731e-286
1.40047e-285
3.00092e-285
8.09712e-285
2.69213e-284
1.08701e-283
5.28405e-283
3.07741e-282
2.14451e-281
1.79219e-280
1.80579e-279
2.21509e-278
3.35895e-277
6.44371e-276
1.62099e-274
5.67564e-273
3.08987e-271
3.42819e-269
0.999998
0.999986
0.999995
1
1
0.999994
0.999537
0.880588
0.304438
0.0287733
0.00370577
0.000906645
0.000154742
1.82918e-05
1.52279e-06
8.49785e-08
1.4461e-09
1.52401e-14
8.01974e-20
4.87265e-28
2.5547e-37
4.64227e-45
1.39693e-51
3.70926e-58
3.27027e-80
7.60034e-82
1.54817e-83
1.87588e-86
2.36263e-91
9.78006e-95
4.50045e-99
8.61602e-104
6.44091e-110
9.90938e-116
1.06008e-121
2.30306e-128
1.08757e-139
7.6689e-152
1.08057e-159
2.33068e-167
4.10856e-269
2.07449e-269
6.40355e-283
1.03729e-282
2.18141e-282
5.76226e-282
1.87232e-281
7.37876e-281
3.49744e-280
1.98453e-279
1.3465e-278
1.09502e-277
1.07312e-276
1.27973e-275
1.88579e-274
3.51406e-273
8.58326e-272
2.91669e-270
1.54031e-268
1.65679e-266
0.999997
0.999986
0.999995
1
1
0.999996
0.999576
0.890809
0.323166
0.0312144
0.00360277
0.000838256
0.000144242
1.71888e-05
1.44487e-06
8.15273e-08
1.58228e-09
1.66243e-14
8.29893e-20
5.57409e-28
2.97952e-37
5.44734e-45
1.71848e-51
4.45219e-58
4.744e-80
9.84495e-82
2.0447e-83
2.38363e-86
3.22272e-91
1.31557e-94
6.36399e-99
1.58408e-103
8.10253e-110
1.20573e-115
2.01227e-121
4.21009e-128
1.85072e-139
1.52126e-151
2.66591e-159
9.4383e-167
1.83986e-269
9.51363e-270
5.38691e-280
8.59817e-280
1.7752e-279
4.59255e-279
1.45898e-278
5.61447e-278
2.59597e-277
1.43576e-276
9.48881e-276
7.51208e-275
7.16304e-274
8.30767e-273
1.19007e-271
2.15485e-270
5.11209e-269
1.68647e-267
8.64206e-266
9.01439e-264
0.999993
0.999988
0.999996
1
1
0.999999
0.999838
0.905268
0.349537
0.034887
0.00356061
0.000785345
0.000136674
1.64304e-05
1.39468e-06
7.95857e-08
1.74867e-09
1.89631e-14
8.64298e-20
6.44896e-28
3.51442e-37
6.45496e-45
2.14255e-51
5.41405e-58
6.06166e-80
1.25068e-81
2.74242e-83
3.0669e-86
4.4509e-91
1.74833e-94
9.43695e-99
2.76333e-103
9.85448e-110
1.54617e-115
4.76382e-121
7.39261e-128
2.85708e-139
3.05831e-151
6.67475e-159
3.86678e-166
7.9793e-270
4.22706e-270
5.08857e-277
8.00446e-277
1.62299e-276
4.11381e-276
1.27829e-275
4.80536e-275
2.16831e-274
1.16938e-273
7.53078e-273
5.80611e-272
5.3888e-271
6.08041e-270
8.47006e-269
1.49073e-267
3.436e-266
1.10077e-264
5.47492e-263
5.53952e-261
0.999989
0.999989
0.999996
1.00001
1
1
0.999959
0.92162
0.381961
0.0399029
0.00356553
0.000744095
0.000131338
1.59431e-05
1.36712e-06
7.86987e-08
1.94834e-09
2.26006e-14
9.05139e-20
7.53928e-28
4.18906e-37
7.71937e-45
2.70473e-51
6.67091e-58
1.97258e-79
1.61817e-81
3.76297e-83
3.99632e-86
6.22207e-91
2.30736e-94
1.45072e-98
4.63277e-103
1.15953e-109
2.35234e-115
1.2079e-120
1.25348e-127
4.7148e-139
6.22599e-151
1.69433e-158
1.5996e-165
3.34976e-270
1.81907e-270
5.40391e-274
8.37913e-274
1.66903e-273
4.14645e-273
1.26073e-272
4.63164e-272
2.04037e-271
1.0734e-270
6.73854e-270
5.06133e-269
4.57393e-268
5.02264e-267
6.80585e-266
1.16463e-264
2.60877e-263
8.11821e-262
3.92005e-260
3.84827e-258
0.999983
0.999991
0.999997
1.00001
1
1
0.999976
0.938683
0.420975
0.0466605
0.00371427
0.00071224
0.000127676
1.56752e-05
1.35482e-06
7.84961e-08
2.16797e-09
2.82528e-14
9.52337e-20
8.8978e-28
5.04154e-37
9.31016e-45
3.45344e-51
8.32917e-58
2.18837e-81
2.15603e-81
5.25288e-83
5.27405e-86
8.80014e-91
3.04289e-94
2.27762e-98
7.545e-103
1.32202e-109
5.12826e-115
2.87435e-120
2.09688e-127
1.0333e-138
1.28284e-150
4.35714e-158
6.67003e-165
2.07457e-270
1.32155e-270
6.44335e-271
9.85017e-271
1.92809e-270
4.69659e-270
1.39785e-269
5.02057e-269
2.1601e-268
1.10894e-267
6.78869e-267
4.96922e-266
4.37393e-265
4.67573e-264
6.16484e-263
1.02599e-261
2.23406e-260
6.75468e-259
3.16727e-257
3.01739e-255
0.999983
0.999991
0.999997
1.00001
1
1
0.999979
0.954811
0.466366
0.0556777
0.00400082
0.000689931
0.000125224
1.55613e-05
1.35213e-06
7.96608e-08
2.38713e-09
3.69819e-14
1.00574e-19
1.05908e-27
6.12083e-37
1.13169e-44
4.45466e-51
1.05392e-57
2.45986e-79
3.36539e-81
7.38224e-83
7.04894e-86
1.25849e-90
4.0425e-94
3.59868e-98
1.20441e-102
1.46504e-109
1.60283e-114
6.12128e-120
3.56505e-127
3.03864e-138
2.67515e-150
1.13451e-157
2.79916e-164
2.46174e-189
7.60051e-268
8.59534e-268
1.29577e-267
2.49324e-267
5.95686e-267
1.73615e-266
6.09856e-266
2.56361e-265
1.28478e-264
7.67231e-264
5.47484e-263
4.69514e-262
4.88751e-261
6.27192e-260
1.01543e-258
2.14984e-257
6.31683e-256
2.87686e-254
2.66024e-252
0.99998
0.999992
0.999998
1.00001
0.999999
1
0.999994
0.968832
0.517581
0.0676092
0.004426
0.000678267