/*--------------------------------*- C++ -*----------------------------------*\
| =========                 |                                                 |
| \\      /  F ield         | OpenFOAM: The Open Source CFD Toolbox           |
|  \\    /   O peration     | Version:  v2012                                 |
|   \\  /    A nd           | Website:  www.openfoam.com                      |
|    \\/     M anipulation  |                                                 |
\*---------------------------------------------------------------------------*/
FoamFile
{
    version     2.0;
    format      ascii;
    class       volVectorField;
    location    "1";
    object      U;
}
// * * * * * * * * * * * * * * * * * * * * * * * * * * * * * * * * * * * * * //

dimensions      [0 1 -1 0 0 0 0];


internalField   nonuniform List<vector> 
3326
(
(-0.320393 0.370911 0.00279743)
(-0.26534 0.362787 0.00231689)
(-0.212162 0.345837 0.00185269)
(-0.161826 0.319765 0.00141329)
(-0.115493 0.284293 0.00100881)
(-0.0744155 0.239151 0.000650174)
(-0.0402814 0.184063 0.000352104)
(-0.0146621 0.118724 0.000128428)
(-0.000632547 0.0426761 7.82837e-06)
(-0.484689 0.331922 0.00423143)
(-0.429259 0.34776 0.00374762)
(-0.373409 0.355958 0.00326015)
(-0.317803 0.356233 0.00277476)
(-0.263198 0.348299 0.00229814)
(-0.210451 0.331872 0.00183771)
(-0.160523 0.306681 0.00140189)
(-0.114569 0.272471 0.00100072)
(-0.0738284 0.22901 0.000645029)
(-0.0399729 0.176068 0.000349398)
(-0.0145576 0.113412 0.000127509)
(-0.000631122 0.0406792 7.80038e-06)
(-0.020243 -3.08448 0.000173328)
(-0.162129 -2.90338 0.00141381)
(-0.274686 -2.70095 0.00239648)
(-0.37123 -2.50804 0.00323922)
(-0.455599 -2.3339 0.00397569)
(-0.531757 -2.17671 0.00464046)
(-0.600747 -2.03232 0.00524267)
(-0.663425 -1.89674 0.00578978)
(-0.719997 -1.76705 0.0062836)
(-0.770631 -1.64137 0.00672559)
(-0.815391 -1.5186 0.00711632)
(-0.854353 -1.39824 0.00745645)
(-0.887587 -1.28011 0.00774658)
(-0.91518 -1.16429 0.00798748)
(-0.937224 -1.05092 0.00817996)
(-0.953818 -0.940259 0.00832486)
(-0.965067 -0.832547 0.0084231)
(-0.971082 -0.728048 0.00847566)
(-0.971974 -0.627017 0.00848352)
(-0.967865 -0.529703 0.00844772)
(-0.958877 -0.43634 0.00836935)
(-0.945145 -0.347158 0.00824956)
(-0.926811 -0.262378 0.00808961)
(-0.90403 -0.182214 0.00789084)
(-0.876975 -0.106886 0.00765477)
(-0.845832 -0.0365974 0.00738302)
(-0.810806 0.0284459 0.00707748)
(-0.77213 0.08803 0.00673998)
(-0.730062 0.141946 0.00637285)
(-0.684897 0.18997 0.0059787)
(-0.636954 0.231889 0.0055603)
(-0.586596 0.267474 0.00512081)
(-0.534239 0.296483 0.00466386)
(-0.480342 0.31867 0.00419339)
(-0.425431 0.333776 0.00371413)
(-0.370088 0.341538 0.00323109)
(-0.314977 0.341681 0.00275007)
(-0.260854 0.333933 0.00227766)
(-0.208572 0.318027 0.00182129)
(-0.159088 0.293709 0.00138934)
(-0.113547 0.260751 0.00099178)
(-0.073176 0.218956 0.000639325)
(-0.039628 0.168142 0.000346381)
(-0.0144396 0.108144 0.000126475)
(-0.000629133 0.0386971 7.76546e-06)
(-0.0227858 -2.90832 0.00019544)
(-0.159972 -2.75246 0.001395)
(-0.271243 -2.56917 0.00236645)
(-0.365846 -2.38901 0.00319225)
(-0.448476 -2.22393 0.00391354)
(-0.522766 -2.07388 0.004562)
(-0.590085 -1.9359 0.00514962)
(-0.651319 -1.80646 0.00568413)
(-0.706736 -1.68285 0.00616787)
(-0.756496 -1.56322 0.00660223)
(-0.800646 -1.44648 0.00698763)
(-0.83923 -1.33206 0.00732446)
(-0.872289 -1.21978 0.00761306)
(-0.899878 -1.10965 0.00785392)
(-0.92206 -1.00182 0.00804761)
(-0.938911 -0.8965 0.00819475)
(-0.950514 -0.79393 0.00829608)
(-0.95696 -0.694361 0.0083524)
(-0.958345 -0.598043 0.00836456)
(-0.954775 -0.505217 0.00833347)
(-0.946363 -0.416116 0.00826012)
(-0.933231 -0.330965 0.00814557)
(-0.915515 -0.249981 0.00799101)
(-0.893362 -0.173378 0.00779772)
(-0.866937 -0.101373 0.00756715)
(-0.836424 -0.0341647 0.0073009)
(-0.802024 0.0280409 0.00700073)
(-0.763967 0.0850349 0.00666862)
(-0.722507 0.136611 0.00630681)
(-0.67794 0.18255 0.00591788)
(-0.630584 0.222643 0.0055046)
(-0.580801 0.256665 0.00507014)
(-0.529009 0.284381 0.00461812)
(-0.475667 0.305552 0.00415255)
(-0.421301 0.319927 0.00367806)
(-0.366494 0.327252 0.0031997)
(-0.31191 0.327262 0.00272328)
(-0.258302 0.319698 0.00225537)
(-0.20652 0.304308 0.00180338)
(-0.157516 0.280858 0.00137562)
(-0.112423 0.249143 0.000981968)
(-0.0724562 0.208999 0.000633035)
(-0.0392454 0.160291 0.000343037)
(-0.0143076 0.102925 0.000125318)
(-0.000626527 0.0367317 7.72299e-06)
(-0.0267864 -2.73855 0.000230303)
(-0.159281 -2.60473 0.00138898)
(-0.26903 -2.4394 0.00234714)
(-0.361809 -2.27206 0.00315704)
(-0.442846 -2.11614 0.00386441)
(-0.515346 -1.97325 0.00449726)
(-0.581003 -1.84154 0.00507037)
(-0.640729 -1.71803 0.00559171)
(-0.694882 -1.60026 0.00606442)
(-0.743629 -1.48644 0.00648994)
(-0.787016 -1.3755 0.00686868)
(-0.825067 -1.26683 0.00720084)
(-0.857796 -1.16021 0.00748657)
(-0.885233 -1.05563 0.0077261)
(-0.907415 -0.953192 0.00791979)
(-0.924394 -0.853103 0.00806804)
(-0.936231 -0.755582 0.0081714)
(-0.942998 -0.660866 0.00823053)
(-0.944777 -0.569195 0.00824613)
(-0.941659 -0.480805 0.00821898)
(-0.933744 -0.395921 0.00814997)
(-0.921146 -0.314764 0.00804008)
(-0.90399 -0.237549 0.00789041)
(-0.882415 -0.164483 0.00770217)
(-0.856583 -0.0957811 0.00747677)
(-0.826669 -0.0316396 0.00721575)
(-0.792873 0.0277399 0.00692083)
(-0.755419 0.0821526 0.00659399)
(-0.714561 0.131396 0.00623743)
(-0.670592 0.175255 0.00585372)
(-0.623829 0.213526 0.00544561)
(-0.574634 0.245989 0.00501628)
(-0.523423 0.272415 0.00456935)
(-0.470658 0.292573 0.00410882)
(-0.416864 0.306219 0.00363932)
(-0.362622 0.313107 0.0031659)
(-0.308596 0.312985 0.00269435)
(-0.255538 0.305604 0.00223124)
(-0.204293 0.290727 0.00178393)
(-0.155805 0.268137 0.00136067)
(-0.111196 0.237654 0.000971248)
(-0.0716667 0.199146 0.000626137)
(-0.0388237 0.152522 0.00033935)
(-0.0141608 0.0977591 0.000124032)
(-0.000623245 0.0347848 7.6723e-06)
(-0.0327855 -2.57519 0.000282641)
(-0.160508 -2.46039 0.0013997)
(-0.268188 -2.31172 0.00233981)
(-0.359095 -2.15704 0.00313336)
(-0.438534 -2.01035 0.00382679)
(-0.509286 -1.87468 0.00444439)
(-0.573284 -1.74917 0.00500301)
(-0.63146 -1.63144 0.00551083)
(-0.684269 -1.5193 0.0059718)
(-0.731896 -1.41108 0.00638754)
(-0.774396 -1.30572 0.00675853)
(-0.81178 -1.2026 0.00708488)
(-0.844046 -1.10147 0.00736655)
(-0.871197 -1.00228 0.0076036)
(-0.893251 -0.905109 0.00779616)
(-0.910236 -0.810138 0.00794447)
(-0.922194 -0.717568 0.00804889)
(-0.92918 -0.627622 0.00810992)
(-0.931258 -0.540529 0.00812813)
(-0.928505 -0.456516 0.00810417)
(-0.921013 -0.3758 0.00803884)
(-0.908881 -0.298597 0.00793302)
(-0.892227 -0.225115 0.00778774)
(-0.871183 -0.155559 0.00760413)
(-0.845904 -0.0901373 0.00738356)
(-0.81656 -0.0290431 0.0071275)
(-0.783345 0.0275261 0.00683766)
(-0.74648 0.0793704 0.00651596)
(-0.706217 0.126292 0.00616459)
(-0.662846 0.168079 0.0057861)
(-0.616682 0.204535 0.00538322)
(-0.568087 0.235445 0.00495913)
(-0.517476 0.260587 0.00451742)
(-0.465309 0.279735 0.00406213)
(-0.412112 0.292655 0.00359783)
(-0.358465 0.29911 0.00312961)
(-0.305031 0.298856 0.00266322)
(-0.252557 0.291658 0.00220521)
(-0.201884 0.277292 0.0017629)
(-0.153949 0.255557 0.00134446)
(-0.109862 0.226296 0.000959593)
(-0.070805 0.189406 0.000618609)
(-0.0383612 0.144844 0.000335307)
(-0.0139987 0.0926526 0.000122612)
(-0.000619221 0.0328587 7.61267e-06)
(-0.0411149 -2.41831 0.000355353)
(-0.163881 -2.31976 0.00142916)
(-0.26888 -2.18637 0.00234587)
(-0.357727 -2.04398 0.00312144)
(-0.435451 -1.9065 0.0037999)
(-0.504442 -1.77809 0.00440212)
(-0.56676 -1.65874 0.00494609)
(-0.62335 -1.54666 0.00544006)
(-0.674751 -1.43998 0.00588874)
(-0.72117 -1.33717 0.00629394)
(-0.76268 -1.2372 0.00665629)
(-0.799285 -1.13945 0.00697583)
(-0.830968 -1.04363 0.00725242)
(-0.857716 -0.949676 0.00748593)
(-0.879525 -0.85764 0.00767636)
(-0.896404 -0.767671 0.00782374)
(-0.908377 -0.679951 0.00792829)
(-0.915481 -0.594689 0.00799036)
(-0.917767 -0.5121 0.00801038)
(-0.915298 -0.4324 0.0079889)
(-0.908153 -0.355798 0.0079266)
(-0.896423 -0.282503 0.00782428)
(-0.880215 -0.212716 0.00768289)
(-0.859655 -0.146636 0.00750351)
(-0.83489 -0.0844666 0.00728742)
(-0.806085 -0.0263961 0.00703607)
(-0.773429 0.0273826 0.00675111)
(-0.73714 0.0766752 0.00643443)
(-0.697465 0.121288 0.0060882)
(-0.654692 0.161017 0.00571492)
(-0.609134 0.195668 0.00531733)
(-0.561151 0.225033 0.00489858)
(-0.511157 0.248898 0.00446227)
(-0.459612 0.267043 0.00401239)
(-0.407039 0.279243 0.00355354)
(-0.354017 0.285268 0.00309077)
(-0.301208 0.284886 0.00262984)
(-0.249354 0.277871 0.00217724)
(-0.19929 0.264013 0.00174024)
(-0.151946 0.243127 0.00132697)
(-0.108417 0.215077 0.000946971)
(-0.0698687 0.17979 0.000610428)
(-0.0378564 0.137264 0.000330894)
(-0.0138203 0.0876105 0.000121049)
(-0.000614377 0.0309553 7.54329e-06)
(-0.0517864 -2.26788 0.000448541)
(-0.169383 -2.18312 0.00147721)
(-0.271168 -2.06366 0.00236587)
(-0.357699 -1.933 0.00312122)
(-0.433527 -1.80461 0.00378313)
(-0.500696 -1.68344 0.00436945)
(-0.561291 -1.5702 0.00489838)
(-0.616256 -1.46368 0.00537816)
(-0.666194 -1.36232 0.00581407)
(-0.711335 -1.26474 0.00620811)
(-0.751768 -1.16997 0.00656106)
(-0.787495 -1.07741 0.00687294)
(-0.818492 -0.98675 0.00714353)
(-0.844729 -0.897884 0.00737259)
(-0.866187 -0.810848 0.00755994)
(-0.882856 -0.725763 0.00770549)
(-0.894744 -0.642791 0.0078093)
(-0.901873 -0.562123 0.00787158)
(-0.904279 -0.48396 0.00789265)
(-0.902014 -0.408505 0.00787295)
(-0.895145 -0.335959 0.00781306)
(-0.883753 -0.26652 0.00771369)
(-0.867937 -0.200385 0.00757572)
(-0.847815 -0.137744 0.00740016)
(-0.823527 -0.0787944 0.00718823)
(-0.795232 -0.0237198 0.00694133)
(-0.763114 0.0272925 0.00666106)
(-0.727387 0.0740539 0.00634929)
(-0.688293 0.116376 0.00600814)
(-0.646119 0.154061 0.00564009)
(-0.601174 0.18692 0.00524785)
(-0.553817 0.214752 0.00483456)
(-0.504459 0.23735 0.00440379)
(-0.453558 0.254501 0.00395954)
(-0.401637 0.265987 0.00350638)
(-0.349271 0.271588 0.00304934)
(-0.29712 0.271081 0.00259415)
(-0.245922 0.264251 0.00214727)
(-0.196505 0.250899 0.00171593)
(-0.14979 0.230857 0.00130814)
(-0.106858 0.204007 0.000933352)
(-0.0688549 0.170305 0.000601571)
(-0.0373073 0.129789 0.000326095)
(-0.0136249 0.0826386 0.000119337)
(-0.00060863 0.0290771 7.46327e-06)
(-0.0645991 -2.12376 0.00056044)
(-0.176843 -2.05068 0.00154236)
(-0.275006 -1.94382 0.0023994)
(-0.358947 -1.82425 0.00313214)
(-0.43268 -1.70474 0.00377575)
(-0.497936 -1.59073 0.00434538)
(-0.556752 -1.48355 0.00485878)
(-0.61005 -1.38248 0.00532401)
(-0.658477 -1.2863 0.00574673)
(-0.702277 -1.1938 0.00612907)
(-0.741559 -1.10407 0.00647197)
(-0.776325 -1.01654 0.00677545)
(-0.806543 -0.930877 0.00703924)
(-0.832173 -0.846957 0.007263)
(-0.853181 -0.764791 0.00744643)
(-0.869543 -0.684473 0.0075893)
(-0.881252 -0.606146 0.00769154)
(-0.888317 -0.52998 0.00775327)
(-0.890761 -0.456161 0.00777466)
(-0.888624 -0.38488 0.00775608)
(-0.881963 -0.316326 0.007698)
(-0.870848 -0.250689 0.00760106)
(-0.855372 -0.188156 0.00746604)
(-0.835643 -0.128912 0.00729391)
(-0.811795 -0.0731458 0.00708583)
(-0.783982 -0.021035 0.00684313)
(-0.752382 0.0272389 0.00656738)
(-0.717204 0.0714936 0.00626041)
(-0.678687 0.111547 0.00592429)
(-0.637114 0.147206 0.00556148)
(-0.59279 0.17829 0.00517466)
(-0.546073 0.204603 0.00476696)
(-0.49737 0.225946 0.00434191)
(-0.447138 0.242112 0.0039035)
(-0.395897 0.252894 0.00345627)
(-0.344219 0.258078 0.00300523)
(-0.292761 0.25745 0.00255609)
(-0.242255 0.250807 0.00211526)
(-0.193524 0.237961 0.0016899)
(-0.147477 0.218758 0.00128794)
(-0.10518 0.193097 0.000918704)
(-0.0677609 0.160961 0.000592013)
(-0.0367123 0.122429 0.000320894)
(-0.0134116 0.0777428 0.000117469)
(-0.000601885 0.0272264 7.37163e-06)
(-0.0792701 -1.98573 0.000688574)
(-0.186024 -1.92257 0.00162253)
(-0.28026 -1.82707 0.00244529)
(-0.361357 -1.71788 0.0031532)
(-0.432801 -1.60695 0.00377683)
(-0.496046 -1.49998 0.0043289)
(-0.553019 -1.39877 0.00482622)
(-0.60461 -1.30306 0.00527655)
(-0.651481 -1.21194 0.00568568)
(-0.69389 -1.12437 0.00605588)
(-0.731957 -1.03954 0.00638817)
(-0.765686 -0.956874 0.00668261)
(-0.795043 -0.87606 0.00693888)
(-0.819978 -0.796949 0.00715657)
(-0.840447 -0.719524 0.00733529)
(-0.856412 -0.643858 0.0074747)
(-0.867856 -0.570069 0.00757462)
(-0.874773 -0.498311 0.00763506)
(-0.877177 -0.428752 0.00765609)
(-0.875095 -0.36157 0.00763799)
(-0.868575 -0.296942 0.00758115)
(-0.85768 -0.235047 0.00748612)
(-0.842493 -0.176064 0.00735363)
(-0.823115 -0.12017 0.00718456)
(-0.799673 -0.0675459 0.00698002)
(-0.772315 -0.0183625 0.00674129)
(-0.741214 0.0272053 0.0064699)
(-0.706575 0.0689814 0.00616763)
(-0.668631 0.10679 0.0058365)
(-0.627661 0.140446 0.00547896)
(-0.583968 0.169774 0.00509765)
(-0.537906 0.194585 0.00469566)
(-0.489879 0.214687 0.00427652)
(-0.440341 0.229882 0.00384416)
(-0.389809 0.239969 0.00340313)
(-0.338853 0.244745 0.00295838)
(-0.288123 0.244003 0.0025156)
(-0.238348 0.23755 0.00208114)
(-0.190342 0.225209 0.00166211)
(-0.145003 0.206839 0.00126634)
(-0.103382 0.182356 0.000902995)
(-0.0665839 0.151769 0.00058173)
(-0.0360693 0.115191 0.000315274)
(-0.0131795 0.0729293 0.000115436)
(-0.000594037 0.0254058 7.26727e-06)
(-0.09548 -1.85354 0.000830153)
(-0.196658 -1.79885 0.00171539)
(-0.28674 -1.71357 0.00250188)
(-0.364774 -1.61404 0.00318305)
(-0.433762 -1.51133 0.00378524)
(-0.4949 -1.41122 0.00431892)
(-0.549973 -1.31586 0.00479965)
(-0.599819 -1.22542 0.00523475)
(-0.645096 -1.13923 0.00562998)
(-0.686069 -1.05646 0.00598763)
(-0.722866 -0.976379 0.00630884)
(-0.755493 -0.898448 0.00659365)
(-0.783914 -0.822344 0.00684176)
(-0.808075 -0.747907 0.00705269)
(-0.827921 -0.6751 0.00722597)
(-0.843407 -0.60397 0.00736119)
(-0.854502 -0.534615 0.00745807)
(-0.861193 -0.467168 0.00751653)
(-0.863481 -0.401783 0.00753656)
(-0.861387 -0.33862 0.00751834)
(-0.854947 -0.277847 0.0074622)
(-0.844216 -0.219632 0.0073686)
(-0.82927 -0.164142 0.00723821)
(-0.810202 -0.111547 0.00707185)
(-0.787134 -0.0620191 0.00687057)
(-0.760207 -0.0157224 0.0066356)
(-0.729588 0.0271752 0.00636842)
(-0.695478 0.0665051 0.00607076)
(-0.658104 0.102098 0.00574462)
(-0.617742 0.133776 0.00539238)
(-0.574692 0.161369 0.00501668)
(-0.529301 0.184698 0.00462055)
(-0.481973 0.203577 0.0042075)
(-0.433156 0.217815 0.00378144)
(-0.383364 0.22722 0.00334686)
(-0.333163 0.231596 0.00290871)
(-0.283199 0.230747 0.00247261)
(-0.234193 0.224488 0.00204487)
(-0.186952 0.212653 0.00163251)
(-0.142363 0.195112 0.00124328)
(-0.101458 0.171796 0.000886191)
(-0.0653208 0.142737 0.000570695)
(-0.0353764 0.108084 0.000309217)
(-0.0129276 0.0682044 0.00011323)
(-0.000584967 0.023618 7.14898e-06)
(-0.11287 -1.72695 0.000982046)
(-0.208435 -1.67953 0.00181823)
(-0.294211 -1.60341 0.00256713)
(-0.369018 -1.51283 0.00322012)
(-0.435419 -1.41793 0.00379973)
(-0.49437 -1.32447 0.00431431)
(-0.547495 -1.23484 0.00477804)
(-0.595564 -1.14954 0.00519763)
(-0.639217 -1.06818 0.00557868)
(-0.678715 -0.990096 0.00592346)
(-0.714192 -0.914632 0.00623315)
(-0.745658 -0.841297 0.00650783)
(-0.773077 -0.769771 0.00674718)
(-0.796389 -0.699881 0.0069507)
(-0.815536 -0.631569 0.00711788)
(-0.830464 -0.564861 0.00724822)
(-0.841134 -0.499834 0.0073414)
(-0.847524 -0.436602 0.00739723)
(-0.849628 -0.3753 0.00741565)
(-0.847455 -0.316076 0.00739675)
(-0.841036 -0.259084 0.00734078)
(-0.830417 -0.20448 0.00724816)
(-0.815667 -0.152422 0.00711948)
(-0.796873 -0.10307 0.0069555)
(-0.774148 -0.0565895 0.00675722)
(-0.747629 -0.0131349 0.00652582)
(-0.717478 0.027133 0.00626272)
(-0.683889 0.0640525 0.00596961)
(-0.647086 0.0974616 0.00564844)
(-0.607339 0.12719 0.00530157)
(-0.564943 0.153075 0.00493158)
(-0.520243 0.174944 0.00454148)
(-0.473637 0.192618 0.00413473)
(-0.42557 0.205916 0.00371521)
(-0.37655 0.214653 0.00328738)
(-0.327141 0.218641 0.00285613)
(-0.27798 0.217693 0.00242705)
(-0.229785 0.211633 0.00200638)
(-0.18335 0.200303 0.00160106)
(-0.139552 0.183587 0.00121873)
(-0.0994047 0.161428 0.000868258)
(-0.0639688 0.133877 0.000558883)
(-0.0346316 0.101118 0.000302707)
(-0.012655 0.0635749 0.000110842)
(-0.000574545 0.0218657 7.01543e-06)
(-0.131102 -1.60577 0.00114131)
(-0.221052 -1.5646 0.00192839)
(-0.30244 -1.49668 0.00263899)
(-0.373907 -1.41432 0.00326282)
(-0.43763 -1.32682 0.00381906)
(-0.494336 -1.23974 0.00431404)
(-0.545476 -1.15569 0.00476044)
(-0.591743 -1.07543 0.0051643)
(-0.633744 -0.998802 0.00553093)
(-0.671733 -0.925281 0.00586253)
(-0.705846 -0.854317 0.00616031)
(-0.736096 -0.785455 0.00642438)
(-0.762448 -0.718383 0.00665443)
(-0.784844 -0.652917 0.00684994)
(-0.803219 -0.588981 0.00701039)
(-0.817516 -0.526583 0.00713522)
(-0.827689 -0.465777 0.00722406)
(-0.833709 -0.40666 0.00727665)
(-0.835562 -0.349351 0.00729288)
(-0.83325 -0.293981 0.00727277)
(-0.826797 -0.240691 0.0072165)
(-0.816242 -0.189627 0.00712443)
(-0.801646 -0.140936 0.0069971)
(-0.78309 -0.094769 0.0068352)
(-0.760682 -0.0512808 0.00663968)
(-0.734551 -0.0106192 0.00641167)
(-0.704855 0.0270631 0.00615254)
(-0.671783 0.0616121 0.00586393)
(-0.635552 0.0928733 0.00554776)
(-0.596428 0.120684 0.00520633)
(-0.554702 0.144889 0.00484219)
(-0.510714 0.165322 0.00445829)
(-0.464856 0.181814 0.00405807)
(-0.417569 0.194191 0.00364537)
(-0.369357 0.202275 0.00322458)
(-0.320776 0.205887 0.00280057)
(-0.272459 0.20485 0.00237885)
(-0.225115 0.198994 0.0019656)
(-0.17953 0.188172 0.0015677)
(-0.136565 0.172275 0.00119265)
(-0.0972185 0.151261 0.000849163)
(-0.0625249 0.125198 0.000546268)
(-0.0338327 0.0943002 0.000295725)
(-0.0123605 0.0590476 0.000108263)
(-0.000562626 0.020152 6.86515e-06)
(-0.149894 -1.48981 0.00130549)
(-0.234251 -1.45402 0.00204366)
(-0.311226 -1.39338 0.00271571)
(-0.379288 -1.31856 0.00330982)
(-0.440277 -1.238 0.00384218)
(-0.494695 -1.15706 0.0043172)
(-0.543822 -1.07843 0.00474602)
(-0.588264 -1.0031 0.00513396)
(-0.628586 -0.931089 0.00548593)
(-0.665032 -0.862034 0.00580406)
(-0.697737 -0.795461 0.00608955)
(-0.726718 -0.730957 0.00634254)
(-0.751945 -0.668219 0.00656277)
(-0.773359 -0.607059 0.00674972)
(-0.790895 -0.547385 0.00690283)
(-0.804492 -0.489184 0.00702156)
(-0.814101 -0.432494 0.00710546)
(-0.819685 -0.377392 0.00715425)
(-0.821225 -0.323981 0.00716775)
(-0.818718 -0.272377 0.00714593)
(-0.812179 -0.222709 0.00708891)
(-0.801642 -0.175109 0.006997)
(-0.787161 -0.129716 0.00687067)
(-0.768812 -0.0866696 0.00671058)
(-0.746696 -0.0461158 0.00651761)
(-0.720938 -0.00819423 0.00629284)
(-0.691687 0.0269507 0.0060376)
(-0.659129 0.059173 0.00575348)
(-0.623476 0.0883255 0.00544234)
(-0.584986 0.114254 0.00510646)
(-0.543948 0.13681 0.00474831)
(-0.500694 0.155835 0.00437082)
(-0.455612 0.171169 0.00397738)
(-0.409139 0.182645 0.00357177)
(-0.36177 0.190094 0.00315835)
(-0.314058 0.193345 0.00274191)
(-0.266627 0.192227 0.00232793)
(-0.220177 0.186582 0.00192249)
(-0.175485 0.176268 0.00153238)
(-0.133398 0.161188 0.001165)
(-0.0948953 0.141307 0.000828872)
(-0.060986 0.116712 0.000532824)
(-0.0329778 0.0876418 0.000288253)
(-0.0120431 0.0546296 0.000105483)
(-0.000549049 0.0184799 6.69652e-06)
(-0.16903 -1.37893 0.00147268)
(-0.247849 -1.34771 0.00216239)
(-0.32043 -1.29352 0.00279608)
(-0.385056 -1.22556 0.00336019)
(-0.443275 -1.1515 0.00386838)
(-0.495373 -1.07642 0.00432314)
(-0.542458 -1.00305 0.00473414)
(-0.585049 -0.932535 0.00510591)
(-0.623662 -0.865059 0.00544297)
(-0.658526 -0.800375 0.0057473)
(-0.689779 -0.738094 0.00602011)
(-0.717439 -0.67784 0.00626157)
(-0.741482 -0.619325 0.00647146)
(-0.761852 -0.562356 0.00664929)
(-0.778484 -0.50683 0.00679452)
(-0.791317 -0.452716 0.00690657)
(-0.800297 -0.400034 0.00698498)
(-0.805384 -0.348845 0.00702944)
(-0.806554 -0.299235 0.0070397)
(-0.803798 -0.251307 0.00701571)
(-0.797126 -0.205175 0.00695753)
(-0.786565 -0.160961 0.00686541)
(-0.772165 -0.118793 0.00673978)
(-0.753994 -0.0787988 0.00658124)
(-0.73215 -0.041117 0.00639064)
(-0.706749 -0.0058781 0.006169)
(-0.677938 0.0267818 0.00591759)
(-0.645894 0.0567248 0.00563796)
(-0.610826 0.0838118 0.00533193)
(-0.572986 0.107896 0.0050017)
(-0.532655 0.128838 0.00464973)
(-0.490162 0.146486 0.00427889)
(-0.445889 0.160688 0.0038925)
(-0.400263 0.171286 0.00349429)
(-0.353778 0.178118 0.00308857)
(-0.306975 0.181022 0.00268008)
(-0.260474 0.179837 0.00227421)
(-0.214963 0.174408 0.00187697)
(-0.171209 0.164606 0.00149505)
(-0.130046 0.150337 0.00113573)
(-0.0924317 0.131578 0.000807354)
(-0.0593493 0.108429 0.000518526)
(-0.0320648 0.081152 0.000280273)
(-0.0117016 0.0503285 0.000102492)
(-0.00053364 0.0168529 6.50778e-06)
(-0.188422 -1.273 0.00164215)
(-0.261767 -1.2456 0.00228393)
(-0.329994 -1.19704 0.0028796)
(-0.391168 -1.13531 0.00341357)
(-0.446587 -1.06732 0.00389731)
(-0.496325 -0.997835 0.00433148)
(-0.541332 -0.929573 0.00472433)
(-0.582032 -0.863766 0.0050796)
(-0.618896 -0.800734 0.00540139)
(-0.652135 -0.740335 0.00569154)
(-0.681885 -0.68225 0.00595123)
(-0.70817 -0.626145 0.00618069)
(-0.730971 -0.571745 0.00637974)
(-0.750236 -0.518856 0.00654792)
(-0.765903 -0.467366 0.00668472)
(-0.777909 -0.417228 0.00678956)
(-0.7862 -0.368447 0.00686196)
(-0.790733 -0.321067 0.00690157)
(-0.791479 -0.275159 0.00690814)
(-0.788425 -0.230812 0.00688154)
(-0.781576 -0.188128 0.00682181)
(-0.770954 -0.147217 0.00672915)
(-0.756603 -0.108195 0.00660395)
(-0.738586 -0.0711824 0.00644676)
(-0.716996 -0.036306 0.00625837)
(-0.691943 -0.00368825 0.00603976)
(-0.663568 0.026543 0.00579215)
(-0.632043 0.0542582 0.00551705)
(-0.597571 0.0793262 0.00521622)
(-0.560398 0.101609 0.00489182)
(-0.520799 0.120973 0.00454623)
(-0.479096 0.137278 0.00418229)
(-0.435664 0.150377 0.00380324)
(-0.390926 0.160121 0.00341278)
(-0.345365 0.166357 0.00301513)
(-0.299517 0.168931 0.00261497)
(-0.253991 0.167688 0.00221761)
(-0.209467 0.162485 0.00182898)
(-0.166698 0.153195 0.00145566)
(-0.126505 0.139734 0.0011048)
(-0.089824 0.122086 0.000784579)
(-0.0576121 0.10036 0.00050335)
(-0.0310917 0.0748406 0.000271768)
(-0.011335 0.0461519 9.92811e-05)
(-0.000516204 0.0152743 6.29701e-06)
(-0.208074 -1.17187 0.00181389)
(-0.276026 -1.14757 0.00240845)
(-0.339937 -1.10391 0.00296642)
(-0.397639 -1.04781 0.00347008)
(-0.450212 -0.985478 0.00392898)
(-0.497534 -0.921336 0.00434205)
(-0.540404 -0.85802 0.00471626)
(-0.579158 -0.79682 0.00505454)
(-0.614218 -0.738148 0.00536058)
(-0.645777 -0.681951 0.00563607)
(-0.673969 -0.627973 0.00588215)
(-0.698821 -0.575918 0.0060991)
(-0.720321 -0.525528 0.00628679)
(-0.738421 -0.47661 0.00644481)
(-0.753063 -0.429043 0.00657266)
(-0.764184 -0.38277 0.00666977)
(-0.77173 -0.33778 0.00673567)
(-0.775655 -0.294103 0.00676997)
(-0.775927 -0.251796 0.0067724)
(-0.772529 -0.210934 0.0067428)
(-0.765462 -0.171606 0.00668117)
(-0.754745 -0.133911 0.00658768)
(-0.740415 -0.0979538 0.00646267)
(-0.722533 -0.0638456 0.00630664)
(-0.701182 -0.0317035 0.00612034)
(-0.676471 -0.00164129 0.00590471)
(-0.648533 0.0262219 0.00566092)
(-0.617535 0.0517646 0.00539042)
(-0.583674 0.074864 0.00509492)
(-0.547189 0.0953901 0.00477652)
(-0.508349 0.113218 0.00443756)
(-0.467469 0.128214 0.0040808)
(-0.424918 0.140241 0.00370943)
(-0.381109 0.149158 0.00332708)
(-0.336517 0.15482 0.00293789)
(-0.291671 0.157081 0.00254647)
(-0.247169 0.155795 0.00215805)
(-0.20368 0.150823 0.00177846)
(-0.161946 0.142048 0.00141416)
(-0.122771 0.129391 0.00107219)
(-0.087069 0.112841 0.000760517)
(-0.0557719 0.0925167 0.000487273)
(-0.0300566 0.0687177 0.000262721)
(-0.010942 0.0421076 9.58396e-05)
(-0.000496531 0.0137479 6.06213e-06)
(-0.228069 -1.07542 0.00198864)
(-0.290715 -1.05355 0.00253672)
(-0.350325 -1.01409 0.00305712)
(-0.404516 -0.963086 0.00353014)
(-0.454171 -0.906018 0.00396356)
(-0.498993 -0.84697 0.00435481)
(-0.539643 -0.788446 0.00470963)
(-0.576372 -0.731749 0.00503025)
(-0.609556 -0.677353 0.00531991)
(-0.639369 -0.625274 0.00558015)
(-0.665938 -0.575315 0.00581208)
(-0.689296 -0.527213 0.00601599)
(-0.709434 -0.480728 0.00619179)
(-0.726311 -0.43567 0.00633913)
(-0.739869 -0.391915 0.00645752)
(-0.750049 -0.349395 0.00654641)
(-0.756796 -0.308085 0.00660533)
(-0.760063 -0.268003 0.00663389)
(-0.759814 -0.229192 0.00663177)
(-0.756032 -0.191713 0.00659881)
(-0.748712 -0.155645 0.00653498)
(-0.737869 -0.121075 0.00644039)
(-0.723538 -0.0880972 0.00631535)
(-0.705772 -0.0568128 0.00616034)
(-0.684652 -0.0273297 0.00597606)
(-0.66028 0.000247096 0.00576339)
(-0.632785 0.0258068 0.00552346)
(-0.602327 0.0492365 0.00525767)
(-0.569096 0.0704213 0.00496767)
(-0.533325 0.0892398 0.0046555)
(-0.495276 0.105575 0.00432344)
(-0.455256 0.119301 0.00397419)
(-0.413627 0.13029 0.00361087)
(-0.370792 0.138408 0.00323702)
(-0.327219 0.143519 0.00285672)
(-0.283425 0.145486 0.00247448)
(-0.239998 0.144168 0.00209544)
(-0.197597 0.139437 0.00172534)
(-0.156947 0.131179 0.00137052)
(-0.118839 0.119321 0.00103785)
(-0.084164 0.103857 0.000735145)
(-0.0538265 0.0849103 0.000470277)
(-0.0289577 0.0627937 0.000253117)
(-0.0105217 0.0382037 9.21582e-05)
(-0.000474393 0.0122774 5.80091e-06)
(-0.248513 -0.9835 0.00216733)
(-0.305948 -0.963435 0.00266974)
(-0.361238 -0.927572 0.00315241)
(-0.411853 -0.881165 0.00359421)
(-0.458481 -0.829008 0.00400121)
(-0.500688 -0.774817 0.00436963)
(-0.539005 -0.72093 0.00470409)
(-0.57361 -0.668626 0.00500616)
(-0.604829 -0.618416 0.00527868)
(-0.632817 -0.57037 0.00552299)
(-0.657694 -0.524337 0.00574014)
(-0.679493 -0.480088 0.00593044)
(-0.698208 -0.437402 0.00609383)
(-0.713802 -0.396095 0.00622997)
(-0.726222 -0.356038 0.00633842)
(-0.735407 -0.317155 0.00641863)
(-0.741305 -0.279413 0.00647013)
(-0.743866 -0.242815 0.00649253)
(-0.743055 -0.207391 0.0064855)
(-0.738849 -0.173192 0.00644885)
(-0.731244 -0.140284 0.00638252)
(-0.720251 -0.108743 0.00628661)
(-0.705898 -0.0786537 0.00616139)
(-0.688237 -0.0501078 0.0060073)
(-0.667344 -0.0232036 0.00582499)
(-0.643314 0.00196222 0.0056153)
(-0.616271 0.0252875 0.00537932)
(-0.586369 0.0466676 0.00511838)
(-0.553792 0.0659957 0.00483409)
(-0.518766 0.0831588 0.00452842)
(-0.481545 0.0980477 0.00420358)
(-0.442427 0.110545 0.0038622)
(-0.401765 0.120531 0.00350732)
(-0.359955 0.127881 0.00314241)
(-0.317453 0.132466 0.00277146)
(-0.274765 0.134157 0.00239888)
(-0.232468 0.132822 0.0020297)
(-0.191208 0.128339 0.00166956)
(-0.151697 0.120601 0.00132467)
(-0.114706 0.109537 0.00100176)
(-0.0811065 0.0951453 0.000708441)
(-0.0517739 0.0775523 0.000452346)
(-0.0277937 0.057079 0.000242943)
(-0.0100729 0.0344486 8.82279e-05)
(-0.000449545 0.010867 5.51098e-06)
(-0.269508 -0.895956 0.00235082)
(-0.321817 -0.877164 0.00280831)
(-0.372724 -0.844368 0.0032527)
(-0.419666 -0.802125 0.00366244)
(-0.463125 -0.754549 0.00404178)
(-0.502575 -0.704986 0.00438613)
(-0.538425 -0.655576 0.00469905)
(-0.570788 -0.607546 0.00498156)
(-0.599941 -0.561421 0.00523604)
(-0.626018 -0.517312 0.00546367)
(-0.649127 -0.475107 0.00566539)
(-0.6693 -0.434609 0.00584149)
(-0.686531 -0.395612 0.00599192)
(-0.700785 -0.357942 0.00611637)
(-0.712011 -0.321468 0.0062144)
(-0.720151 -0.286107 0.00628548)
(-0.725151 -0.251816 0.00632915)
(-0.726963 -0.218587 0.00634501)
(-0.72555 -0.186439 0.00633272)
(-0.720889 -0.155411 0.00629209)
(-0.712971 -0.125558 0.00622303)
(-0.701805 -0.0969461 0.00612561)
(-0.687417 -0.0696508 0.00600009)
(-0.669854 -0.0437534 0.00584684)
(-0.649187 -0.0193435 0.00566651)
(-0.625507 0.00349056 0.00545988)
(-0.598933 0.0246549 0.00522798)
(-0.56961 0.0440529 0.00497209)
(-0.537717 0.0615859 0.00469377)
(-0.503471 0.0771494 0.00439491)
(-0.467119 0.0906419 0.00407766)
(-0.42895 0.101955 0.00374455)
(-0.389307 0.110975 0.00339857)
(-0.348576 0.117588 0.00304308)
(-0.307201 0.121673 0.00268196)
(-0.265678 0.123108 0.00231955)
(-0.22457 0.121771 0.00196075)
(-0.184509 0.117544 0.00161107)
(-0.146191 0.110326 0.00127659)
(-0.11037 0.100052 0.000963897)
(-0.0778949 0.0867185 0.000680391)
(-0.049613 0.0704543 0.000433469)
(-0.0265633 0.0515839 0.00023219)
(-0.00959474 0.0308505 8.40404e-05)
(-0.000421728 0.00952062 5.18985e-06)
(-0.291079 -0.812658 0.00253933)
(-0.338329 -0.794694 0.0029525)
(-0.384757 -0.764531 0.00335776)
(-0.427902 -0.726072 0.00373436)
(-0.468027 -0.682774 0.0040846)
(-0.504562 -0.63761 0.0044035)
(-0.537796 -0.592506 0.0046936)
(-0.567791 -0.548618 0.00495543)
(-0.594773 -0.506465 0.00519095)
(-0.618849 -0.466187 0.00540112)
(-0.640114 -0.427704 0.00558675)
(-0.658594 -0.390846 0.00574807)
(-0.67428 -0.355426 0.00588501)
(-0.687138 -0.321276 0.00599728)
(-0.697118 -0.288266 0.00608443)
(-0.704164 -0.256307 0.00614596)
(-0.708222 -0.225347 0.0061814)
(-0.709244 -0.195369 0.00619037)
(-0.707194 -0.166381 0.00617252)
(-0.702047 -0.138412 0.00612764)
(-0.693793 -0.111505 0.00605564)
(-0.682438 -0.0857175 0.00595658)
(-0.668006 -0.0611155 0.00583067)
(-0.65054 -0.0377714 0.00567827)
(-0.630106 -0.0157662 0.00549997)
(-0.606791 0.0048199 0.00529651)
(-0.580705 0.0239011 0.00506888)
(-0.551991 0.0413889 0.0048183)
(-0.520817 0.0571925 0.00454625)
(-0.487393 0.0712156 0.00425457)
(-0.451958 0.0833645 0.00394531)
(-0.414791 0.0935388 0.00362095)
(-0.376224 0.101634 0.00328436)
(-0.336631 0.107544 0.0029388)
(-0.296446 0.111155 0.00258807)
(-0.25615 0.112356 0.00223636)
(-0.216293 0.111029 0.00188848)
(-0.177491 0.107066 0.00154979)
(-0.140424 0.10037 0.00122624)
(-0.105828 0.0908786 0.000924236)
(-0.074528 0.0785893 0.000650986)
(-0.047343 0.063628 0.000413638)
(-0.0252658 0.0463191 0.00022085)
(-0.00908644 0.0274181 7.95891e-05)
(-0.000390671 0.00824274 4.83493e-06)
(-0.313113 -0.733494 0.00273187)
(-0.355349 -0.71602 0.00310111)
(-0.397186 -0.688147 0.00346629)
(-0.436402 -0.653139 0.00380858)
(-0.473028 -0.613834 0.00412827)
(-0.506489 -0.572838 0.00442035)
(-0.536965 -0.531857 0.00468637)
(-0.564471 -0.491961 0.00492647)
(-0.589177 -0.453652 0.00514214)
(-0.611168 -0.417085 0.0053341)
(-0.630516 -0.382208 0.00550299)
(-0.647236 -0.348876 0.00564896)
(-0.661319 -0.316914 0.00577191)
(-0.672727 -0.286164 0.00587151)
(-0.681411 -0.256495 0.00594735)
(-0.687316 -0.227815 0.00599892)
(-0.69039 -0.200063 0.00602577)
(-0.690585 -0.173214 0.00602752)
(-0.687867 -0.147266 0.00600383)