/*--------------------------------*- C++ -*----------------------------------*\
| =========                 |                                                 |
| \\      /  F ield         | OpenFOAM: The Open Source CFD Toolbox           |
|  \\    /   O peration     | Version:  v2012                                 |
|   \\  /    A nd           | Website:  www.openfoam.com                      |
|    \\/     M anipulation  |                                                 |
\*---------------------------------------------------------------------------*/
FoamFile
{
    version     2.0;
    format      ascii;
    class       surfaceScalarField;
    location    "0.25";
    object      phi;
}
// * * * * * * * * * * * * * * * * * * * * * * * * * * * * * * * * * * * * * //

dimensions      [0 3 -1 0 0 0 0];
oriented        oriented;


internalField   nonuniform List<scalar> 
8145
(
5.06824e-10
-2.40291e-09
-2.28086e-15
4.18724e-10
-2.24903e-09
-1.66709e-15
3.33788e-10
-2.08149e-09
-1.37891e-15
2.53243e-10
-1.89818e-09
-1.65097e-15
1.7859e-10
-1.69502e-09
-1.90812e-15
1.11847e-10
-1.46326e-09
-2.36365e-15
5.60886e-11
-1.18176e-09
-2.49787e-15
1.63039e-11
-8.0823e-10
-2.67528e-15
-3.09426e-10
-2.74056e-15
7.83266e-10
-2.69494e-09
1.25993e-16
6.90383e-10
-2.57843e-09
-1.48474e-15
5.97877e-10
-2.45128e-09
-2.76886e-15
5.06792e-10
-2.31185e-09
-2.09727e-15
4.18119e-10
-2.16037e-09
-1.32605e-15
3.32898e-10
-1.99629e-09
-1.1872e-15
2.52306e-10
-1.81761e-09
-1.36902e-15
1.77783e-10
-1.62052e-09
-1.73636e-15
1.11277e-10
-1.39679e-09
-2.15796e-15
5.57828e-11
-1.12631e-09
-2.39684e-15
1.62135e-11
-7.68708e-10
-2.58731e-15
-2.93262e-10
-2.69851e-15
2.7767e-10
-7.51408e-10
4.38659e-15
3.41629e-10
-8.89897e-10
5.63703e-15
4.13009e-10
-1.03905e-09
5.2258e-15
4.91304e-10
-1.19746e-09
8.09615e-16
5.75804e-10
-1.36329e-09
1.53271e-15
6.65502e-10
-1.53449e-09
7.08313e-16
7.59169e-10
-1.70892e-09
-6.13174e-16
8.55389e-10
-1.88389e-09
-1.73354e-15
9.52592e-10
-2.05717e-09
-1.68532e-15
1.04908e-09
-2.22604e-09
-2.4075e-15
1.14313e-09
-2.38822e-09
-1.84815e-15
1.23298e-09
-2.54145e-09
-2.10735e-15
1.31695e-09
-2.68346e-09
-1.30982e-15
1.39349e-09
-2.81302e-09
-1.4375e-15
1.46116e-09
-2.92824e-09
-2.44331e-17
1.51877e-09
-3.02842e-09
-3.43858e-16
1.56535e-09
-3.11292e-09
1.13098e-15
1.60018e-09
-3.18139e-09
8.46574e-16
1.62281e-09
-3.23398e-09
1.65774e-15
1.63302e-09
-3.27107e-09
6.69514e-16
1.63087e-09
-3.2934e-09
8.1981e-16
1.61662e-09
-3.3017e-09
-2.92713e-16
1.59077e-09
-3.29703e-09
4.94357e-17
1.55392e-09
-3.28034e-09
-6.07929e-16
1.5069e-09
-3.25193e-09
2.4156e-16
1.45054e-09
-3.21453e-09
-3.10781e-16
1.38584e-09
-3.16684e-09
2.07439e-16
1.31378e-09
-3.11126e-09
-9.53959e-17
1.23542e-09
-3.04685e-09
3.01052e-16
1.15182e-09
-2.97386e-09
-1.95079e-16
1.06399e-09
-2.89416e-09
7.77466e-17
9.73016e-10
-2.80492e-09
-8.64297e-17
8.79891e-10
-2.7076e-09
1.63885e-16
7.85636e-10
-2.60069e-09
-2.66106e-16
6.91233e-10
-2.48404e-09
-1.23481e-15
5.97617e-10
-2.35769e-09
-2.34047e-15
5.05789e-10
-2.22004e-09
-1.67266e-15
4.16706e-10
-2.0713e-09
-1.12783e-15
3.31358e-10
-1.91095e-09
-8.97098e-16
2.5087e-10
-1.73713e-09
-1.18491e-15
1.76618e-10
-1.54629e-09
-1.49789e-15
1.10479e-10
-1.33068e-09
-1.99454e-15
5.53594e-11
-1.07123e-09
-2.23632e-15
1.60874e-11
-7.29481e-10
-2.49634e-15
-2.77222e-10
-2.61046e-15
3.11242e-10
-8.13536e-10
5.29417e-15
3.81518e-10
-9.60132e-10
4.23377e-15
4.59495e-10
-1.11701e-09
2.37736e-15
5.44515e-10
-1.28248e-09
-1.09481e-15
6.35686e-10
-1.45444e-09
9.93292e-16
7.31806e-10
-1.6306e-09
3.72731e-16
8.31461e-10
-1.80858e-09
-1.54468e-15
9.33051e-10
-1.9855e-09
-2.43864e-15
1.03484e-09
-2.15898e-09
-2.71605e-15
1.135e-09
-2.32622e-09
-2.54845e-15
1.23168e-09
-2.4849e-09
-2.54561e-15
1.32304e-09
-2.63283e-09
-1.65496e-15
1.40737e-09
-2.7678e-09
-1.72416e-15
1.48311e-09
-2.88877e-09
-5.64045e-16
1.54888e-09
-2.99401e-09
-3.50227e-16
1.60355e-09
-3.0831e-09
7.12789e-16
1.64628e-09
-3.15564e-09
8.07413e-16
1.67646e-09
-3.21156e-09
2.00128e-15
1.6938e-09
-3.2513e-09
1.41825e-15
1.69825e-09
-3.2755e-09
1.94535e-15
1.69002e-09
-3.28516e-09
7.15718e-16
1.66952e-09
-3.2812e-09
1.01317e-15
1.63739e-09
-3.2649e-09
-5.11641e-17
1.59439e-09
-3.23734e-09
4.41497e-16
1.54145e-09
-3.19897e-09
-1.13913e-16
1.47948e-09
-3.15257e-09
3.62106e-16
1.40957e-09
-3.09693e-09
-2.05548e-16
1.33274e-09
-3.03443e-09
3.07297e-16
1.2501e-09
-2.96421e-09
-1.50952e-16
1.16274e-09
-2.88649e-09
9.66083e-17
1.07165e-09
-2.80308e-09
-2.13249e-16
9.77921e-10
-2.71119e-09
1.53705e-16
8.82538e-10
-2.61222e-09
-7.84366e-17
7.86494e-10
-2.50465e-09
-1.18562e-16
6.90746e-10
-2.3883e-09
-1.06401e-15
5.96194e-10
-2.26316e-09
-1.60775e-15
5.03798e-10
-2.12765e-09
-1.37014e-15
4.14472e-10
-1.98198e-09
-7.91499e-16
3.2916e-10
-1.82565e-09
-7.48672e-16
2.48931e-10
-1.65692e-09
-9.55848e-16
1.75095e-10
-1.47247e-09
-1.37403e-15
1.09451e-10
-1.26506e-09
-1.8296e-15
5.48182e-11
-1.01663e-09
-2.15473e-15
1.59254e-11
-6.90632e-10
-2.39969e-15
-2.61342e-10
-2.53022e-15
3.49419e-10
-8.82271e-10
-4.19413e-15
4.26626e-10
-1.03732e-09
1.41767e-15
5.11751e-10
-1.20213e-09
9.10947e-16
6.0396e-10
-1.37471e-09
-2.26011e-15
7.02167e-10
-1.55264e-09
1.04396e-15
8.04968e-10
-1.73339e-09
1.36475e-15
9.1074e-10
-1.91436e-09
6.34857e-16
1.01769e-09
-2.09245e-09
-8.81279e-16
1.12391e-09
-2.26521e-09
-4.22732e-16
1.22742e-09
-2.42974e-09
-1.42157e-15
1.32628e-09
-2.58377e-09
-6.59811e-16
1.41858e-09
-2.72514e-09
-1.09584e-15
1.50261e-09
-2.85183e-09
-1.20435e-16
1.57682e-09
-2.96297e-09
-4.60612e-16
1.63991e-09
-3.0571e-09
1.09473e-15
1.69085e-09
-3.13403e-09
5.97315e-16
1.72892e-09
-3.1937e-09
2.25894e-15
1.75371e-09
-3.23632e-09
1.83141e-15
1.76506e-09
-3.26263e-09
2.91104e-15
1.76311e-09
-3.27352e-09
1.81995e-15
1.74823e-09
-3.27026e-09
2.19639e-15
1.72102e-09
-3.25398e-09
8.95267e-16
1.68225e-09
-3.22612e-09
1.23062e-15
1.63282e-09
-3.18791e-09
1.79712e-16
1.57375e-09
-3.13989e-09
7.58934e-16
1.50606e-09
-3.08488e-09
-6.91813e-17
1.43089e-09
-3.02175e-09
3.81566e-16
1.34932e-09
-2.95286e-09
-1.76307e-16
1.26246e-09
-2.87736e-09
2.01255e-16
1.17144e-09
-2.79546e-09
-2.98459e-16
1.07722e-09
-2.70887e-09
8.72229e-17
9.80909e-10
-2.61487e-09
-9.41438e-17
8.83442e-10
-2.51475e-09
1.65467e-16
7.85794e-10
-2.407e-09
-1.88916e-16
6.88888e-10
-2.2914e-09
-5.05957e-16
5.93586e-10
-2.16787e-09
-1.07396e-15
5.00804e-10
-2.03488e-09
-8.41469e-16
4.11412e-10
-1.89259e-09
-5.80774e-16
3.26302e-10
-1.74055e-09
-4.70285e-16
2.46488e-10
-1.57711e-09
-8.15997e-16
1.73213e-10
-1.39922e-09
-1.18151e-15
1.08196e-10
-1.20007e-09
-1.72668e-15
5.41591e-11
-9.62626e-10
-2.04084e-15
1.57276e-11
-6.52243e-10
-2.34896e-15
-2.4566e-10
-2.4652e-15
3.92851e-10
-9.58204e-10
-3.50891e-15
4.77606e-10
-1.12209e-09
-2.12189e-15
5.70455e-10
-1.29501e-09
-3.07961e-15
6.70359e-10
-1.47463e-09
-2.38887e-15
7.7597e-10
-1.65826e-09
-5.89265e-16
8.85669e-10
-1.84308e-09
5.08955e-16
9.97619e-10
-2.0263e-09
6.70262e-16
1.10982e-09
-2.20465e-09
7.02886e-16
1.2202e-09
-2.37558e-09
8.54762e-16
1.32664e-09
-2.53618e-09
8.1017e-16
1.42711e-09
-2.68423e-09
3.05017e-16
1.51968e-09
-2.81771e-09
9.37585e-16
1.60263e-09
-2.93476e-09
3.35205e-16
1.67447e-09
-3.0348e-09
1.35787e-15
1.734e-09
-3.11661e-09
1.18946e-15
1.78033e-09
-3.18035e-09
2.35797e-15
1.81291e-09
-3.22626e-09
2.20206e-15
1.83148e-09
-3.25488e-09
3.54868e-15
1.83611e-09
-3.26723e-09
2.77924e-15
1.82712e-09
-3.2645e-09
3.48844e-15
1.80506e-09
-3.24818e-09
2.05343e-15
1.7707e-09
-3.21961e-09
2.40172e-15
1.72495e-09
-3.18036e-09
9.94176e-16
1.66883e-09
-3.13179e-09
1.33899e-15
1.60348e-09
-3.07453e-09
3.27831e-16
1.52999e-09
-3.0114e-09
7.00235e-16
1.44956e-09
-2.94132e-09
-1.12863e-16
1.3633e-09
-2.8666e-09
3.05275e-16
1.27234e-09
-2.7864e-09
-2.80278e-16
1.17778e-09
-2.7009e-09
4.10629e-17
1.08062e-09
-2.61171e-09
-2.42457e-16
9.81899e-10
-2.51615e-09
1.82245e-16
8.82546e-10
-2.4154e-09
-6.64975e-18
7.83495e-10
-2.30795e-09
1.91804e-16
6.85633e-10
-2.19353e-09
-1.92549e-16
5.89778e-10
-2.07202e-09
-3.34741e-16
4.968e-10
-1.9419e-09
-4.56591e-16
4.07521e-10
-1.80332e-09
-1.89699e-16
3.22785e-10
-1.65581e-09
-2.98075e-16
2.43544e-10
-1.49788e-09
-5.79275e-16
1.70975e-10
-1.32666e-09
-1.06356e-15
1.06713e-10
-1.13583e-09
-1.57447e-15
5.33833e-11
-9.0933e-10
-1.97011e-15
1.54941e-11
-6.14396e-10
-2.26347e-15
-2.3021e-10
-2.41578e-15
4.42297e-10
-1.04209e-09
-1.43699e-15
5.35306e-10
-1.2151e-09
-1.17789e-15
6.36478e-10
-1.39619e-09
-1.75649e-15
7.44521e-10
-1.5827e-09
-3.67555e-15
8.57844e-10
-1.77161e-09
-2.71447e-15
9.74588e-10
-1.95984e-09
-1.64007e-15
1.09269e-09
-2.1444e-09
-9.83081e-17
1.20993e-09
-2.32189e-09
-2.42135e-16
1.32408e-09
-2.48972e-09
1.57538e-15
1.43291e-09
-2.64499e-09
9.12474e-16
1.5343e-09
-2.7856e-09
1.99531e-15
1.62632e-09
-2.90972e-09
1.34596e-15
1.70728e-09
-3.01571e-09
2.35303e-15
1.7758e-09
-3.1033e-09
1.57221e-15
1.83081e-09
-3.17159e-09
3.18113e-15
1.87158e-09
-3.2211e-09
2.35296e-15
1.89775e-09
-3.25241e-09
4.14128e-15
1.9093e-09
-3.26638e-09
3.36898e-15
1.90647e-09
-3.26436e-09
4.59554e-15
1.8898e-09
-3.24779e-09
3.23852e-15
1.86003e-09
-3.21838e-09
3.71546e-15
1.81809e-09
-3.17765e-09
2.09056e-15
1.76505e-09
-3.1273e-09
2.36089e-15
1.70205e-09
-3.06878e-09
8.98085e-16
1.63031e-09
-3.00278e-09
1.28361e-15
1.551e-09
-2.93208e-09
1.48802e-16
1.46535e-09
-2.85566e-09
5.27177e-16
1.37448e-09
-2.77574e-09
-2.48515e-16
1.27955e-09
-2.69148e-09
1.37521e-16
1.18165e-09
-2.603e-09
-3.86145e-16
1.08173e-09
-2.5118e-09
1.05639e-16
9.80821e-10
-2.41523e-09
-6.95856e-17
8.798e-10
-2.31438e-09
3.0814e-16
7.79566e-10
-2.20772e-09
2.14435e-16
6.80962e-10
-2.09492e-09
4.1918e-16
5.84762e-10
-1.97582e-09
1.38244e-16
4.91785e-10
-1.84892e-09
7.68105e-17
4.02805e-10
-1.71433e-09
2.00099e-17
3.18613e-10
-1.57162e-09
-2.12817e-17
2.40104e-10
-1.41938e-09
-4.61992e-16
1.68385e-10
-1.25496e-09
-8.92663e-16
1.05007e-10
-1.07248e-09
-1.497e-15
5.24922e-11
-8.56848e-10
-1.87035e-15
1.52255e-11
-5.7717e-10
-2.22129e-15
-2.15029e-10
-2.35724e-15
4.98581e-10
-1.13474e-09
-2.37111e-15
6.00541e-10
-1.31708e-09
-2.55852e-15
7.10632e-10
-1.50629e-09
-9.7325e-16
8.27276e-10
-1.69934e-09
-4.3613e-16
9.48591e-10
-1.89292e-09
-4.97836e-17
1.07246e-09
-2.08369e-09
1.45519e-15
1.19657e-09
-2.26849e-09
2.34645e-15
1.31852e-09
-2.44381e-09
3.00942e-15
1.43592e-09
-2.60708e-09
3.61157e-15
1.54642e-09
-2.75546e-09
4.0326e-15
1.64788e-09
-2.88703e-09
3.34679e-15
1.73839e-09
-3.0002e-09
4.12201e-15
1.81635e-09
-3.09363e-09
3.0451e-15
1.88048e-09
-3.1674e-09
4.02772e-15
1.92991e-09
-3.22098e-09
3.34577e-15
1.9641e-09
-3.25526e-09
4.59618e-15
1.98293e-09
-3.2712e-09
3.99522e-15
1.98658e-09
-3.26999e-09
5.39428e-15
1.97554e-09
-3.25328e-09
4.2456e-15
1.95057e-09
-3.22277e-09
5.06441e-15
1.91259e-09
-3.18037e-09
3.28894e-15
1.86269e-09
-3.12774e-09
3.65086e-15
1.80211e-09
-3.0667e-09
1.84648e-15
1.73207e-09
-2.99873e-09
2.0824e-15
1.6539e-09
-2.92458e-09
6.61486e-16
1.56878e-09
-2.84697e-09
9.55494e-16
1.478e-09
-2.76487e-09
-9.45695e-17
1.38268e-09
-2.68043e-09
2.81987e-16
1.28397e-09
-2.59277e-09
-3.95768e-16
1.18293e-09
-2.50195e-09
1.3266e-17
1.08048e-09
-2.40936e-09
-2.36221e-16
9.77616e-10
-2.31236e-09
2.69859e-16
8.75167e-10
-2.21193e-09
1.5794e-16
7.73985e-10
-2.10653e-09
6.22257e-16
6.74867e-10
-1.99579e-09
6.49632e-16
5.78536e-10
-1.87948e-09
7.54101e-16
4.85763e-10
-1.75614e-09
4.03264e-16
3.9727e-10
-1.62583e-09
3.99574e-16
3.13797e-10
-1.48815e-09
1.29205e-16
2.36177e-10
-1.34176e-09
-2.52318e-16
1.6545e-10
-1.18424e-09
-8.09275e-16
1.03082e-10
-1.01014e-09
-1.37597e-15
5.14884e-11
-8.05286e-10
-1.82561e-15
1.49223e-11
-5.40645e-10
-2.15328e-15
-2.0015e-10
-2.32119e-15
5.62711e-10
-1.23701e-09
-8.1061e-15
6.74356e-10
-1.42877e-09
-6.42578e-15
7.93938e-10
-1.62589e-09
-2.20348e-15
9.19557e-10
-1.82497e-09
-1.83934e-15
1.04904e-09
-2.02241e-09
-7.81906e-16
1.17999e-09
-2.21463e-09
-2.44544e-17
1.30985e-09
-2.39834e-09
1.97453e-15
1.43602e-09
-2.56996e-09
1.71938e-15
1.55596e-09
-2.72699e-09
4.01061e-15
1.66728e-09
-2.86674e-09
3.39177e-15
1.76781e-09
-2.98753e-09
4.77094e-15
1.8557e-09
-3.08806e-09
3.89584e-15
1.92948e-09
-3.16737e-09
5.07937e-15
1.98806e-09
-3.22593e-09
3.84427e-15
2.03076e-09
-3.26363e-09
5.55789e-15
2.05729e-09
-3.28176e-09
4.28107e-15
2.06778e-09
-3.28164e-09
6.15989e-15
2.06267e-09
-3.26483e-09
4.8788e-15
2.04269e-09
-3.23326e-09
6.20066e-15
2.00882e-09
-3.18884e-09
4.44871e-15
1.96217e-09
-3.13368e-09
5.00291e-15
1.904e-09
-3.06955e-09
2.98864e-15
1.83567e-09
-2.99834e-09
3.22163e-15
1.75851e-09
-2.92156e-09
1.36595e-15
1.67389e-09
-2.83994e-09
1.64326e-15
1.58305e-09
-2.75613e-09
2.27022e-16
1.48728e-09
-2.6691e-09
5.79656e-16
1.38771e-09
-2.58086e-09
-3.64668e-16
1.28544e-09
-2.4905e-09
7.81791e-17
1.18151e-09
-2.39802e-09
-4.48965e-16
1.0768e-09
-2.30465e-09
1.62138e-16
9.72237e-10
-2.2078e-09
1.07555e-17
8.68618e-10
-2.10831e-09
5.08178e-16
7.6674e-10
-2.00464e-09
6.08987e-16
6.67345e-10
-1.89637e-09
1.17247e-15
5.71109e-10
-1.78323e-09
1.07042e-15
4.78746e-10
-1.66376e-09
8.78268e-16
3.9093e-10
-1.53801e-09
5.84878e-16
3.08348e-10
-1.40556e-09
3.94615e-16
2.31775e-10
-1.26519e-09
-1.59902e-16
1.6218e-10
-1.11466e-09
-6.63216e-16
1.00944e-10
-9.48922e-10
-1.32577e-15
5.03748e-11
-7.54748e-10
-1.74599e-15
1.45856e-11
-5.04895e-10
-2.12706e-15
-1.85607e-10
-2.27428e-15
6.35733e-10
-1.34974e-09
-6.33076e-15
7.57782e-10
-1.55087e-09
-5.93782e-15
8.87401e-10
-1.7555e-09
2.4858e-16
1.02232e-09
-1.95989e-09
-5.86346e-16
1.16006e-09
-2.16014e-09
8.0854e-16
1.29792e-09
-2.35246e-09
2.29151e-15
1.4331e-09
-2.53349e-09
2.84412e-15
1.56281e-09
-2.69965e-09
3.48548e-15
1.68443e-09
-2.84857e-09
4.10885e-15
1.79549e-09
-2.97777e-09
5.24161e-15
1.89391e-09
-3.08589e-09
4.61521e-15
1.97792e-09
-3.17203e-09
6.00808e-15
2.04622e-09
-3.23562e-09
4.76947e-15
2.09795e-09
-3.27762e-09
6.11922e-15
2.1327e-09
-3.29832e-09
5.02763e-15
2.15043e-09
-3.29946e-09
6.53645e-15
2.15158e-09
-3.28274e-09
5.43141e-15
2.13684e-09
-3.25005e-09
6.93447e-15
2.10721e-09
-3.20357e-09
5.31863e-15
2.06388e-09
-3.14545e-09
6.26525e-15
2.00816e-09
-3.07792e-09
4.09841e-15
1.94147e-09
-3.00283e-09
4.51217e-15
1.86526e-09
-2.9221e-09
2.32254e-15
1.78094e-09
-2.83723e-09
2.52792e-15
1.68996e-09
-2.74893e-09
7.65458e-16
1.59354e-09
-2.65972e-09
1.04373e-15
1.49299e-09
-2.56855e-09
-1.95098e-16
1.3894e-09
-2.47727e-09
2.05354e-16
1.28384e-09
-2.38495e-09
-5.18741e-16
1.17731e-09
-2.29148e-09
2.12778e-18
1.07061e-09
-2.19796e-09
-2.0221e-16
9.64649e-10
-2.10183e-09
3.95576e-16
8.6014e-10
-2.00379e-09
3.52467e-16
7.57829e-10
-1.90232e-09
1.01409e-15
6.58406e-10
-1.79693e-09
1.30007e-15
5.62492e-10
-1.68729e-09
1.56817e-15
4.70751e-10
-1.572e-09
1.13234e-15
3.83804e-10
-1.45105e-09
9.48318e-16
3.02285e-10
-1.32403e-09
5.29966e-16
2.26911e-10
-1.18982e-09
3.46782e-17
1.58585e-10
-1.04634e-09
-6.01346e-16
9.86014e-11
-8.88959e-10
-1.2228e-15
4.91554e-11
-7.05332e-10
-1.71573e-15
1.42161e-11
-4.69994e-10
-2.06721e-15
-1.71433e-10
-2.24466e-15
7.18905e-10
-1.47382e-09
-6.29931e-15
8.52075e-10
-1.68408e-09
-6.23975e-15
9.92191e-10
-1.89562e-09
-8.13459e-16
1.13662e-09
-2.10434e-09
-2.44734e-15
1.28254e-09
-2.30606e-09
1.92344e-16
1.42694e-09
-2.49686e-09
9.3684e-16
1.56682e-09
-2.67334e-09
3.10567e-15
1.6992e-09
-2.83201e-09
2.32447e-15
1.82139e-09
-2.97072e-09
4.82424e-15
1.93095e-09
-3.08729e-09
4.04847e-15
2.02586e-09
-3.18076e-09
5.88137e-15
2.10455e-09
-3.25067e-09
4.81626e-15
2.16594e-09
-3.29696e-09
6.52636e-15
2.20943e-09
-3.32106e-09
4.97482e-15
2.23492e-09
-3.32375e-09
7.0605e-15
2.2427e-09
-3.30719e-09
5.36826e-15
2.23348e-09
-3.27347e-09
7.47865e-15
2.20828e-09
-3.22479e-09
5.66947e-15
2.16833e-09
-3.16356e-09
7.17431e-15
2.11505e-09
-3.09211e-09
5.00228e-15
2.04993e-09
-3.01276e-09
5.71303e-15
1.97452e-09
-2.9274e-09
3.32915e-15
1.89038e-09
-2.83793e-09
3.62322e-15
1.79897e-09
-2.74582e-09
1.44313e-15
1.70176e-09
-2.6517e-09
1.72393e-15
1.59998e-09
-2.55794e-09
8.94506e-17
1.49491e-09
-2.46347e-09
4.9172e-16
1.38759e-09
-2.36996e-09
-5.5339e-16
1.27906e-09
-2.27642e-09
5.17863e-19
1.17024e-09
-2.18266e-09
-5.01591e-16
1.06189e-09
-2.08962e-09
2.43037e-16
9.54833e-10
-1.99476e-09
1.30482e-16
8.49728e-10
-1.89868e-09
7.43314e-16
7.47262e-10
-1.79985e-09
9.81947e-16
6.48067e-10
-1.69771e-09
1.76653e-15
5.52711e-10
-1.59192e-09
1.77566e-15
4.61803e-10
-1.48107e-09
1.55939e-15
3.75915e-10
-1.36514e-09
1.11334e-15
2.95629e-10
-1.24373e-09
7.90887e-16
2.21606e-10
-1.11579e-09
1.14547e-16
1.5468e-10
-9.79422e-10
-4.6795e-16
9.60621e-11
-8.3036e-10
-1.18663e-15
4.78345e-11
-6.57133e-10
-1.64432e-15
1.38155e-11
-4.36013e-10
-2.04544e-15
-1.57658e-10
-2.1997e-15
8.13449e-10
-1.61018e-09
-7.74433e-15
9.58415e-10
-1.8291e-09
-6.42501e-15
1.10943e-09
-2.04663e-09
-1.43534e-15
1.26346e-09
-2.25838e-09
-2.22789e-15
1.41732e-09
-2.45992e-09
-8.82217e-16
1.56773e-09
-2.64725e-09
9.57745e-16
1.71144e-09
-2.81703e-09
1.84704e-15
1.84537e-09
-2.96592e-09
2.90278e-15
1.9668e-09
-3.09211e-09
3.27416e-15
2.07336e-09
-3.19381e-09
4.99393e-15
2.16319e-09
-3.27054e-09
4.20936e-15
2.23494e-09
-3.32239e-09
6.28354e-15
2.28784e-09
-3.3498e-09
4.88487e-15
2.32161e-09
-3.35478e-09
6.85482e-15
2.33649e-09
-3.33856e-09
5.38941e-15
2.33312e-09
-3.30377e-09
7.36802e-15
2.31256e-09
-3.25285e-09
5.76294e-15
2.27609e-09
-3.18826e-09
7.53371e-15
2.22522e-09
-3.11264e-09
5.46119e-15
2.16157e-09
-3.02841e-09
6.65451e-15
2.08681e-09
-2.93795e-09
4.13584e-15
2.00259e-09
-2.84316e-09
4.7224e-15
1.91056e-09
-2.74587e-09
2.23063e-15
1.8122e-09
-2.64745e-09
2.53208e-15
1.70899e-09
-2.54846e-09
5.32671e-16
1.60213e-09
-2.45109e-09
8.89681e-16
1.49286e-09
-2.35419e-09
-4.58494e-16
1.38216e-09
-2.25928e-09
4.38969e-17
1.27102e-09
-2.16528e-09
-6.69173e-16
1.16027e-09
-2.07191e-09
-4.93417e-18
1.05061e-09
-1.97996e-09
-1.43259e-16
9.42783e-10
-1.88693e-09
5.62149e-16
8.37394e-10
-1.79329e-09
5.94394e-16
7.3506e-10
-1.6975e-09
1.4076e-15
6.36356e-10
-1.59898e-09
1.84069e-15
5.41794e-10
-1.49733e-09
2.21251e-15
4.51933e-10
-1.39118e-09
1.76162e-15
3.67293e-10
-1.28048e-09
1.46295e-15
2.88406e-10
-1.16483e-09
9.14521e-16
2.15878e-10
-1.04326e-09
2.99557e-16
1.50479e-10
-9.14029e-10
-4.20476e-16
9.33361e-11
-7.73236e-10
-1.09463e-15
4.64175e-11
-6.10243e-10
-1.62127e-15
1.33849e-11
-4.03018e-10
-1.98702e-15
-1.44314e-10
-2.1697e-15
9.20932e-10
-1.75967e-09
-7.56335e-15
1.07826e-09
-1.98648e-09
-7.63479e-15
1.2404e-09
-2.2088e-09
-3.68188e-15
1.40391e-09
-2.42192e-09
-4.00894e-15
1.56525e-09
-2.62127e-09
-2.08457e-16
1.72084e-09
-2.80283e-09
2.59383e-16
1.86726e-09
-2.96343e-09
3.00034e-15
2.00135e-09
-3.09999e-09
1.85984e-15
2.12042e-09
-3.21115e-09
4.53123e-15
2.22225e-09
-3.2956e-09
3.29412e-15
2.3052e-09
-3.35346e-09
5.63389e-15
2.36824e-09
-3.38539e-09
4.17068e-15
2.41095e-09
-3.39246e-09
6.57707e-15
2.43344e-09
-3.37721e-09
4.63364e-15
2.43632e-09
-3.34139e-09
7.27146e-15
2.42063e-09
-3.28804e-09
5.11991e-15
2.38775e-09
-3.21992e-09
7.6198e-15
2.33929e-09
-3.13974e-09
5.29106e-15
2.27698e-09
-3.05028e-09
7.12994e-15
2.20266e-09
-2.95403e-09
4.57239e-15
2.11812e-09
-2.85337e-09
5.58447e-15
2.02512e-09
-2.75013e-09
2.91298e-15
1.92532e-09
-2.64605e-09
3.41811e-15
1.82025e-09
-2.54237e-09
1.02458e-15
1.71134e-09
-2.43953e-09
1.44584e-15
1.59976e-09
-2.33952e-09
-3.12681e-16
1.48667e-09
-2.24111e-09
2.33004e-16
1.373e-09
-2.14562e-09
-8.33422e-16
1.25964e-09
-2.05192e-09
-1.10889e-16
1.14735e-09
-1.95962e-09
-5.50726e-16
1.03675e-09
-1.86936e-09
3.4702e-16
9.2851e-10
-1.77868e-09
2.9522e-16
8.23159e-10
-1.68793e-09
1.02871e-15
7.21254e-10
-1.59558e-09
1.37561e-15
6.23308e-10
-1.501e-09
2.29038e-15
5.2978e-10
-1.40377e-09
2.36204e-15
4.41177e-10
-1.30255e-09
2.15999e-15
3.5797e-10
-1.19725e-09
1.61001e-15
2.80644e-10
-1.08749e-09
1.16871e-15
2.09752e-10
-9.72361e-10
3.6788e-16
1.46001e-10
-8.50283e-10
-2.98608e-16
9.04349e-11
-7.17687e-10
-1.06997e-15
4.49096e-11
-5.64745e-10
-1.5561e-15
1.29262e-11
-3.71072e-10
-1.96715e-15
-1.31428e-10
-2.12401e-15
1.04269e-09
-1.92315e-09
-8.85902e-15
1.21288e-09
-2.15673e-09
-6.88031e-15
1.38625e-09
-2.3822e-09
-3.92128e-15
1.55894e-09
-2.59463e-09
-3.13269e-15
1.72704e-09
-2.78936e-09
2.04039e-16
1.88671e-09
-2.96248e-09
1.79433e-15
2.0344e-09
-3.1111e-09
1.54481e-15
2.16695e-09
-3.23253e-09
2.40357e-15
2.28177e-09
-3.32595e-09
1.81846e-15
2.37688e-09
-3.39068e-09
3.96146e-15
2.45096e-09
-3.4275e-09
2.72895e-15
2.50335e-09
-3.43776e-09
5.49082e-15
2.53407e-09
-3.42312e-09
3.73071e-15
2.54365e-09
-3.38674e-09
6.41074e-15
2.53316e-09
-3.33084e-09
4.43253e-15
2.504e-09
-3.25885e-09
6.99019e-15
2.45793e-09
-3.1738e-09
4.81781e-15
2.39683e-09
-3.07859e-09
7.00355e-15
2.3227e-09
-2.97609e-09
4.48773e-15
2.23751e-09
-2.86879e-09
6.06792e-15
2.14318e-09
-2.759e-09
3.26786e-15
2.04152e-09
-2.64846e-09
4.17615e-15
1.93422e-09
-2.53873e-09
1.49855e-15
1.82276e-09
-2.43092e-09
2.04024e-15
1.70855e-09
-2.32531e-09
-7.10507e-17
1.59268e-09
-2.22365e-09
4.72625e-16
1.47623e-09
-2.12465e-09
-8.89846e-16
1.36003e-09
-2.02943e-09
-2.08392e-16
1.24488e-09
-1.93678e-09
-8.49612e-16
1.13147e-09
-1.84621e-09
-9.6235e-18
1.02033e-09
-1.75822e-09
-5.58471e-17
9.12039e-10
-1.67038e-09
7.72339e-16
8.07062e-10
-1.58294e-09
8.87716e-16
7.05886e-10
-1.49438e-09
1.82536e-15
6.08969e-10
-1.40405e-09
2.33953e-15
5.16713e-10
-1.31148e-09
2.77355e-15
4.29577e-10
-1.21538e-09
2.3257e-15
3.47985e-10
-1.11563e-09
1.94173e-15
2.72377e-10
-1.01186e-09
1.27431e-15
2.03254e-10
-9.03231e-10
5.37842e-16
1.41264e-10
-7.88297e-10
-2.68091e-16
8.73705e-11
-6.63811e-10
-9.90755e-16
4.33174e-11
-5.2072e-10
-1.54095e-15
1.2441e-11
-3.40231e-10
-1.91064e-15
-1.19026e-10
-2.09291e-15
1.18065e-09
-2.1012e-09
4.49514e-15
1.36397e-09
-2.34004e-09
-1.79233e-16
1.54836e-09
-2.56663e-09
-3.60387e-15
1.72958e-09
-2.77588e-09
-5.12791e-15
1.90335e-09
-2.96314e-09
8.10215e-17
2.06563e-09
-3.12475e-09
-4.89293e-16
2.21278e-09
-3.25824e-09
1.9806e-15
2.34174e-09
-3.36147e-09
2.82784e-16
2.45013e-09
-3.43431e-09
3.16368e-15
2.53627e-09
-3.47679e-09
1.33553e-15
2.59926e-09
-3.49047e-09
4.43409e-15
2.63893e-09
-3.4774e-09
2.41697e-15
2.65577e-09
-3.43992e-09
5.67846e-15
2.65081e-09
-3.38175e-09
3.15549e-15
2.62558e-09
-3.30557e-09
6.44129e-15
2.5819e-09
-3.21513e-09
3.68582e-15
2.52186e-09
-3.11372e-09
6.67777e-15
2.44764e-09
-3.00432e-09
3.79008e-15
2.3614e-09
-2.88982e-09
6.08947e-15
2.2653e-09
-2.77265e-09
3.17289e-15
2.1613e-09
-2.65498e-09
4.62294e-15
2.05125e-09
-2.53839e-09
1.75247e-15
1.93681e-09
-2.42428e-09
2.61524e-15
1.81942e-09
-2.31352e-09
1.26262e-16
1.70039e-09
-2.20626e-09
8.19826e-16
1.58072e-09
-2.104e-09
-9.59116e-16
1.46141e-09
-2.00535e-09
-1.7918e-16
1.34318e-09
-1.91122e-09
-1.18863e-15
1.22673e-09
-1.82033e-09
-2.47281e-16
1.11265e-09
-1.73213e-09
-5.86363e-16
1.00137e-09
-1.64694e-09
4.81327e-16
8.93412e-10
-1.56241e-09
5.09044e-16
7.8915e-10
-1.47867e-09
1.3578e-15
6.89011e-10
-1.39422e-09
1.79293e-15
5.93391e-10
-1.3084e-09
2.78323e-15
5.02645e-10
-1.2207e-09
2.88844e-15
4.17181e-10
-1.12988e-09
2.70268e-15
3.37381e-10
-1.0358e-09
2.06571e-15
2.63638e-10
-9.38101e-10
1.51052e-15
1.96411e-10
-8.35994e-10
5.86699e-16
1.36287e-10
-7.28176e-10
-1.64139e-16
8.4156e-11
-6.11696e-10
-9.81016e-16
4.16471e-11
-4.78237e-10
-1.48481e-15
1.19314e-11
-3.10551e-10
-1.89394e-15
-1.07133e-10
-2.04699e-15
1.336e-09
-2.29455e-09
2.47001e-15
1.53259e-09
-2.53661e-09
6.18072e-16
1.72764e-09
-2.76173e-09
-5.89912e-15
1.91648e-09
-2.96474e-09
-3.77241e-15
2.09452e-09
-3.14118e-09
-1.41107e-15
2.25756e-09
-3.2878e-09
-1.73197e-16
2.40201e-09
-3.40269e-09
-1.13768e-15
2.52498e-09
-3.48444e-09
6.55704e-16
2.62441e-09
-3.53373e-09
-7.09616e-16
2.69907e-09
-3.55145e-09
2.24313e-15
2.7486e-09
-3.53998e-09
4.92327e-16
2.77334e-09
-3.50213e-09
4.12835e-15
2.77438e-09
-3.44092e-09
1.79274e-15
2.75327e-09
-3.36061e-09
5.25706e-15
2.71203e-09
-3.26428e-09
2.54686e-15
2.65288e-09
-3.15596e-09
5.7481e-15
2.57824e-09
-3.03905e-09
2.88868e-15
2.49054e-09
-2.91659e-09
5.58661e-15
2.39213e-09
-2.79137e-09
2.60616e-15
2.28522e-09
-2.66571e-09
4.67551e-15
2.17184e-09
-2.54158e-09
1.64389e-15
2.0538e-09
-2.42035e-09
2.99087e-15
1.93272e-09
-2.30318e-09
2.3052e-16
1.80992e-09
-2.19074e-09
1.13061e-15
1.68664e-09
-2.08298e-09
-9.76359e-16
1.56376e-09
-1.98114e-09
-1.53188e-16
1.44216e-09
-1.88375e-09
-1.43932e-15
1.32243e-09
-1.79151e-09
-5.17638e-16
1.20519e-09
-1.70309e-09
-1.03255e-15
1.09091e-09
-1.61784e-09
7.26054e-18
9.79927e-10
-1.53597e-09
7.60235e-17
8.72684e-10
-1.45516e-09
1.0315e-15
7.69485e-10
-1.37546e-09
1.2238e-15
6.70689e-10
-1.2954e-09
2.25606e-15
5.76637e-10
-1.21431e-09
2.81244e-15
4.87632e-10
-1.13165e-09
3.2846e-15
4.0404e-10
-1.04625e-09
2.83528e-15
3.262e-10
-9.5793e-10
2.3686e-15
2.54467e-10
-8.66346e-10
1.58503e-15
1.89253e-10
-7.70771e-10
7.29298e-16
1.31094e-10
-6.7002e-10
-1.58253e-16
8.08049e-11
-5.61423e-10
-9.19997e-16
3.99059e-11
-4.37365e-10
-1.48036e-15
1.1399e-11
-2.82079e-10
-1.84111e-15
-9.57715e-11
-2.01501e-15
1.51113e-09
-2.50351e-09
-6.12404e-15
1.72066e-09
-2.74617e-09
-5.36107e-15
1.9255e-09
-2.96663e-09
-5.97945e-15
2.12051e-09
-3.15979e-09
-5.4863e-15
2.30087e-09
-3.32155e-09
-7.95234e-16
2.46232e-09
-3.44925e-09
-2.75805e-15
2.6014e-09
-3.54178e-09
-5.01962e-17
2.71556e-09
-3.59859e-09
-1.79087e-15
2.80318e-09
-3.62135e-09
1.7043e-15
2.86362e-09
-3.61188e-09
-8.34584e-16
2.89711e-09
-3.57346e-09
3.18897e-15
2.90467e-09
-3.50968e-09
3.331e-16
2.88799e-09
-3.42421e-09
4.48669e-15
2.8492e-09
-3.32178e-09
1.09e-15
2.79078e-09
-3.20583e-09
5.05703e-15
2.71537e-09
-3.08053e-09
1.51087e-15
2.6257e-09
-2.94935e-09
5.05989e-15
2.52438e-09
-2.81524e-09
1.5472e-15
2.41389e-09
-2.68085e-09
4.3855e-15
2.29649e-09
-2.54828e-09
1.11062e-15
2.17417e-09
-2.41925e-09
3.08137e-15
2.0487e-09
-2.29487e-09
7.16721e-17
1.92158e-09
-2.17606e-09
1.38895e-15
1.79404e-09
-2.06322e-09
-1.10209e-15
1.66717e-09
-1.9561e-09
-4.22383e-17
1.54172e-09
-1.85571e-09
-1.75219e-15
1.41844e-09
-1.76047e-09
-6.71887e-16
1.2978e-09
-1.67089e-09
-1.55966e-15
1.18029e-09
-1.58559e-09
-3.67721e-16
1.0663e-09
-1.50384e-09
-5.74892e-16
9.56057e-10
-1.42573e-09
6.67997e-16
8.49927e-10
-1.34901e-09
7.83698e-16
7.48139e-10
-1.27365e-09
1.72397e-15
6.50992e-10
-1.19823e-09
2.2186e-15
5.58771e-10
-1.12204e-09
3.24517e-15
4.71737e-10
-1.04457e-09
3.37038e-15
3.9021e-10
-9.64679e-10
3.1883e-15
3.14493e-10
-8.82178e-10
2.4597e-15
2.44902e-10
-7.96731e-10
1.78719e-15
1.81812e-10
-7.0767e-10
7.46214e-16
1.25707e-10
-6.13918e-10
-8.19782e-17
7.73318e-11
-5.13064e-10
-9.30344e-16
3.81006e-11
-3.9816e-10
-1.43646e-15
1.08461e-11
-2.54858e-10
-1.82839e-15
-8.49623e-11
-1.96865e-15
1.70675e-09
-2.72828e-09
3.73852e-15
1.92879e-09
-2.96827e-09
-6.7358e-15
2.14232e-09
-3.18015e-09
-1.16115e-16
2.34172e-09
-3.35919e-09
-5.35256e-16
2.52203e-09
-3.50184e-09
1.00573e-15
2.6791e-09
-3.6063e-09
1.31507e-15
2.80973e-09
-3.67243e-09
-1.93839e-15
2.91188e-09
-3.70074e-09
3.52263e-16
2.98455e-09
-3.69402e-09
-2.36202e-15
3.02778e-09
-3.65512e-09
1.29134e-15
3.04258e-09
-3.58825e-09
-1.48758e-15
3.03067e-09
-3.49777e-09
2.95727e-15
2.99441e-09
-3.38793e-09
-3.57679e-16
2.93652e-09
-3.26388e-09
3.87216e-15
2.85998e-09
-3.12925e-09
2.01531e-16
2.76775e-09
-2.98831e-09
4.08856e-15
2.66283e-09
-2.84442e-09
4.40188e-16
2.54798e-09
-2.70038e-09
3.719e-15
2.42574e-09
-2.55859e-09
2.45872e-16
2.29834e-09
-2.42086e-09
2.85484e-15
2.16773e-09
-2.28862e-09
-3.88623e-16
2.03553e-09
-2.16268e-09
1.45003e-15
1.90312e-09
-2.04366e-09
-1.32673e-15
1.77159e-09
-1.9317e-09
-6.13741e-18
1.64187e-09
-1.82638e-09
-2.02255e-15
1.51455e-09
-1.72842e-09
-8.64809e-16
1.39025e-09
-1.63617e-09
-2.00393e-15
1.26932e-09
-1.54997e-09
-8.09143e-16
1.15211e-09
-1.46839e-09
-1.15843e-15
1.0389e-09
-1.39063e-09
8.81043e-17
9.29846e-10
-1.31668e-09
2.84023e-16
8.25222e-10
-1.24437e-09
1.35602e-15
7.25194e-10
-1.17361e-09
1.60421e-15
6.29997e-10
-1.103e-09
2.68563e-15
5.39869e-10
-1.03187e-09
3.25342e-15
4.55025e-10
-9.59685e-10
3.75025e-15
3.75749e-10
-8.85358e-10
3.28572e-15
3.02307e-10
-8.087e-10
2.72016e-15
2.34985e-10
-7.29384e-10
1.81534e-15
1.74119e-10
-6.46792e-10
8.46602e-16
1.20148e-10
-5.59949e-10
-1.09899e-16
7.3751e-11
-4.66683e-10
-8.93375e-16
3.62388e-11
-3.60673e-10
-1.44482e-15
1.02746e-11
-2.28928e-10
-1.77973e-15
-7.47239e-11
-1.93461e-15
1.92603e-09
-2.9685e-09
-1.59014e-14
2.1593e-09
-3.20169e-09
-1.92331e-14
2.3795e-09
-3.40033e-09
1.12493e-15
2.58064e-09
-3.56036e-09
-3.18352e-15
2.75775e-09
-3.67895e-09
1.09124e-15
2.90692e-09
-3.75546e-09
-1.71044e-15
3.02544e-09
-3.79096e-09
3.2854e-16
3.11191e-09
-3.78722e-09
-2.67015e-15
3.16614e-09
-3.74825e-09
1.11837e-15
3.18902e-09
-3.67801e-09
-2.61127e-15
3.18239e-09
-3.58161e-09
2.26204e-15
3.14878e-09
-3.46415e-09
-1.74453e-15
3.09123e-09
-3.33038e-09
3.28376e-15
3.01307e-09
-3.18569e-09
-1.23156e-15
2.91766e-09
-3.03383e-09
3.46911e-15
2.80834e-09
-2.87898e-09
-9.72996e-16
2.68823e-09
-2.72431e-09
3.20645e-15
2.56022e-09
-2.57235e-09
-9.55216e-16
2.42678e-09
-2.42515e-09
2.46271e-15
2.29012e-09
-2.28419e-09
-1.17258e-15
2.152e-09
-2.15052e-09
1.33388e-15
2.01394e-09
-2.02464e-09
-1.78756e-15
1.87712e-09
-1.90685e-09
1.01842e-17
1.74245e-09
-1.79706e-09
-2.42574e-15
1.61069e-09
-1.69463e-09
-9.60826e-16
1.48227e-09
-1.60003e-09
-2.53867e-15
1.35765e-09
-1.51157e-09
-1.12955e-15
1.23705e-09
-1.42939e-09
-1.85186e-15
1.12071e-09
-1.35205e-09
-4.03777e-16
1.0088e-09
-1.27872e-09
-4.62064e-16
9.01385e-10
-1.20926e-09
9.43315e-16
7.98665e-10
-1.14163e-09
1.14299e-15
7.00739e-10
-1.07566e-09
2.13625e-15
6.07789e-10
-1.01002e-09
2.6453e-15
5.20005e-10
-9.44042e-10
3.66956e-15
4.37565e-10
-8.77197e-10
3.80891e-15
3.60717e-10
-8.08462e-10
3.6094e-15
2.89696e-10
-7.37641e-10
2.76792e-15
2.24758e-10
-6.6442e-10
1.96648e-15
1.66207e-10
-5.88229e-10
8.18294e-16
1.14441e-10
-5.08186e-10
-7.14309e-17
7.00778e-11
-4.22337e-10
-9.28437e-16
3.43278e-11
-3.24949e-10
-1.41507e-15
9.68672e-12
-2.0432e-10
-1.77012e-15
-6.50725e-11
-1.88602e-15
2.1682e-09
-3.2238e-09
-1.7809e-14
2.41149e-09
-3.44514e-09
-1.98549e-14
2.63616e-09
-3.62495e-09
4.67429e-15
2.8361e-09
-3.76019e-09
1.05461e-14
3.00642e-09
-3.84919e-09
7.63106e-15