/*--------------------------------*- C++ -*----------------------------------*\
| =========                 |                                                 |
| \\      /  F ield         | OpenFOAM: The Open Source CFD Toolbox           |
|  \\    /   O peration     | Version:  v2012                                 |
|   \\  /    A nd           | Website:  www.openfoam.com                      |
|    \\/     M anipulation  |                                                 |
\*---------------------------------------------------------------------------*/
FoamFile
{
    version     2.0;
    format      ascii;
    class       volScalarField;
    location    "0.5";
    object      alpha.water;
}
// * * * * * * * * * * * * * * * * * * * * * * * * * * * * * * * * * * * * * //

dimensions      [0 0 0 0 0 0 0];


internalField   nonuniform List<scalar> 
2642
(
-2.54587e-72
-9.39146e-74
-2.92218e-75
-7.67653e-77
-1.70221e-78
-3.18544e-80
-5.02417e-82
-6.66864e-84
-7.43286e-86
-6.93227e-88
-5.39071e-90
-3.47706e-92
-1.84896e-94
-8.04303e-97
-2.83384e-99
-7.99062e-102
-1.77538e-104
-3.04605e-107
-3.93004e-110
-3.67687e-113
-2.3676e-116
-9.59159e-120
-2.09303e-123
-1.66766e-127
-2.72298e-71
-1.02949e-72
-3.28239e-74
-8.83335e-76
-2.00587e-77
-3.84243e-79
-6.20073e-81
-8.41633e-83
-9.58717e-85
-9.13221e-87
-7.24782e-89
-4.76771e-91
-2.58355e-93
-1.14429e-95
-4.10139e-98
-1.17534e-100
-2.65122e-103
-4.6128e-106
-6.02715e-109
-5.70104e-112
-3.70243e-115
-1.50828e-118
-3.29122e-122
-2.54909e-126
-2.84109e-70
-1.10203e-71
-3.60426e-73
-9.94716e-75
-2.3157e-76
-4.54589e-78
-7.51423e-80
-1.04414e-81
-1.21692e-83
-1.18519e-85
-9.61048e-88
-6.45397e-90
-3.56731e-92
-1.61014e-94
-5.87518e-97
-1.71209e-99
-3.92226e-102
-6.92043e-105
-9.153e-108
-8.74228e-111
-5.7113e-114
-2.33222e-117
-5.03007e-121
-3.73545e-125
-2.88815e-69
-1.15045e-70
-3.86333e-72
-1.09451e-73
-2.61481e-75
-5.26564e-77
-8.92462e-79
-1.27089e-80
-1.517e-82
-1.51216e-84
-1.25404e-86
-8.60577e-89
-4.85632e-91
-2.23564e-93
-8.31089e-96
-2.46433e-98
-5.73623e-101
-1.02656e-103
-1.37411e-106
-1.32426e-109
-8.6891e-113
-3.54008e-116
-7.50702e-120
-5.32813e-124
-2.85698e-68
-1.16969e-69
-4.03672e-71
-1.17504e-72
-2.88348e-74
-5.9622e-76
-1.03712e-77
-1.51497e-79
-1.85386e-81
-1.89314e-83
-1.60716e-85
-1.12805e-87
-6.50476e-90
-3.05669e-92
-1.15854e-94
-3.49773e-97
-8.27658e-100
-1.50286e-102
-2.03618e-105
-1.97947e-108
-1.30319e-111
-5.28515e-115
-1.09856e-118
-7.42787e-123
-2.74668e-67
-1.15677e-68
-4.10605e-70
-1.22909e-71
-3.10072e-73
-6.58889e-75
-1.17735e-76
-1.76572e-78
-2.21704e-80
-2.32147e-82
-2.01923e-84
-1.45087e-86
-8.55612e-89
-4.10744e-91
-1.58843e-93
-4.88611e-96
-1.17611e-98
-2.16793e-101
-2.97343e-104
-2.91516e-107
-1.92459e-110
-7.75938e-114
-1.57896e-117
-1.01627e-121
-2.56326e-66
-1.11131e-67
-4.06042e-69
-1.25086e-70
-3.24676e-72
-7.09596e-74
-1.30356e-75
-2.00886e-77
-2.59027e-79
-2.78344e-81
-2.48264e-83
-1.82762e-85
-1.10315e-87
-5.41434e-90
-2.13799e-92
-6.70597e-95
-1.64298e-97
-3.07565e-100
-4.27179e-103
-4.22433e-106
-2.79657e-109
-1.12037e-112
-2.23191e-116
-1.36865e-120
-2.31914e-65
-1.03583e-66
-3.89853e-68
-1.23691e-69
-3.30571e-71
-7.43649e-73
-1.40555e-74
-2.22743e-76
-2.95179e-78
-3.25769e-80
-2.9819e-82
-2.25079e-84
-1.39163e-86
-6.98844e-89
-2.82e-91
-9.02545e-94
-2.2521e-96
-4.28405e-99
-6.02842e-102
-6.01546e-105
-3.99464e-108
-1.59084e-111
-3.10546e-115
-1.81863e-119
-2.0318e-64
-9.35535e-66
-3.62952e-67
-1.18682e-68
-3.2682e-70
-7.57287e-72
-1.4737e-73
-2.40338e-75
-3.27571e-77
-3.71568e-79
-3.49298e-81
-2.70539e-83
-1.71467e-85
-8.81671e-88
-3.63851e-90
-1.18903e-92
-3.02382e-95
-5.84879e-98
-8.34381e-101
-8.40649e-104
-5.60354e-107
-2.22036e-110
-4.25456e-114
-2.38756e-118
-1.72155e-63
-8.17719e-65
-3.27232e-66
-1.10353e-67
-3.1332e-69
-7.48308e-71
-1.50035e-72
-2.51975e-74
-3.53459e-76
-4.12367e-78
-3.98399e-80
-3.16849e-82
-2.06001e-84
-1.08544e-86
-4.58409e-89
-1.53065e-91
-3.96997e-94
-7.81358e-97
-1.13087e-99
-1.15131e-102
-7.71073e-106
-3.04413e-109
-5.73881e-113
-3.09891e-117
-1.40897e-62
-6.90829e-64
-2.85341e-65
-9.93017e-67
-2.90884e-68
-7.1652e-70
-1.48109e-71
-2.56316e-73
-3.70287e-75
-4.44606e-77
-4.41748e-79
-3.6099e-81
-2.40922e-83
-1.30174e-85
-5.62983e-88
-1.9221e-90
-5.088e-93
-1.01974e-95
-1.49854e-98
-1.54304e-101
-1.03955e-104
-4.09596e-108
-7.61754e-112
-3.97671e-116
-1.11244e-61
-5.63383e-63
-2.40331e-64
-8.63646e-66
-2.61169e-67
-6.63914e-69
-1.41569e-70
-2.52614e-72
-3.76067e-74
-4.6501e-76
-4.75439e-78
-3.99464e-80
-2.73848e-82
-1.51825e-84
-6.72861e-87
-2.35051e-89
-6.35492e-92
-1.29798e-94
-1.93839e-97
-2.0208e-100
-1.37132e-103
-5.40282e-107
-9.94201e-111
-5.04298e-115
-8.46219e-61
-4.42935e-62
-1.95265e-63
-7.25015e-65
-2.26472e-66
-5.94486e-68
-1.30844e-69
-2.40873e-71
-3.69737e-73
-4.71088e-75
-4.95932e-77
-4.28675e-79
-3.02061e-81
-1.71935e-83
-7.81328e-86
-2.79459e-88
-7.72244e-91
-1.60868e-93
-2.44359e-96
-2.58203e-99
-1.76746e-102
-6.97747e-106
-1.27441e-109
-6.31392e-114
-6.19353e-60
-3.35275e-61
-1.52838e-62
-5.86691e-64
-1.89415e-65
-5.13719e-67
-1.16773e-68
-2.21901e-70
-3.514e-72
-4.61597e-74
-5.00625e-76
-4.45438e-78
-3.228e-80
-1.88754e-82
-8.80075e-85
-3.22505e-87
-9.11523e-90
-1.93813e-92
-2.99727e-95
-3.21368e-98
-2.22236e-101
-8.80962e-105
-1.60221e-108
-7.79374e-113
-4.35555e-59
-2.44e-60
-1.15089e-61
-4.57017e-63
-1.5259e-64
-4.27828e-66
-1.00491e-67
-1.97227e-69
-3.22385e-71
-4.36835e-73
-4.8835e-75
-4.47509e-77
-3.33704e-79
-2.00568e-81
-9.60048e-84
-3.60673e-86
-1.04337e-88
-2.26617e-91
-3.57121e-94
-3.88986e-97
-2.72165e-100
-1.08568e-103
-1.97242e-107
-9.46853e-112
-2.93877e-58
-1.70485e-59
-8.32581e-61
-3.42223e-62
-1.18236e-63
-3.42901e-65
-8.32731e-67
-1.68886e-68
-2.85098e-70
-3.98695e-72
-4.59658e-74
-4.34049e-76
-3.33212e-78
-2.05961e-80
-1.01267e-82
-3.90258e-85
-1.15626e-87
-2.56729e-90
-4.12642e-93
-4.57115e-96
-3.24091e-99
-1.30373e-102
-2.37335e-106
-1.12989e-110
-1.89952e-57
-1.14193e-58
-5.77785e-60
-2.45987e-61
-8.79957e-63
-2.64123e-64
-6.63527e-66
-1.39132e-67
-2.42683e-69
-3.50434e-71
-4.16857e-73
-4.05825e-75
-3.20886e-77
-2.04078e-79
-1.03124e-81
-4.07899e-84
-1.23854e-86
-2.81327e-89
-4.61599e-92
-5.20631e-95
-3.74586e-98
-1.52269e-101
-2.78584e-105
-1.32142e-109
-1.17427e-56
-7.32091e-58
-3.84047e-59
-1.69466e-60
-6.28082e-62
-1.9523e-63
-5.07641e-65
-1.10111e-66
-1.98554e-68
-2.96193e-70
-3.63702e-72
-3.65214e-74
-2.97572e-76
-1.94816e-78
-1.01224e-80
-4.11169e-83
-1.28023e-85
-2.97695e-88
-4.99048e-91
-5.73695e-94
-4.19463e-97
-1.72639e-100
-3.18326e-104
-1.51092e-108
-6.93071e-56
-4.48461e-57
-2.44101e-58
-1.11721e-59
-4.29279e-61
-1.38268e-62
-3.72344e-64
-8.35915e-66
-1.55907e-67
-2.40379e-69
-3.04832e-71
-3.1587e-73
-2.65325e-75
-1.78894e-77
-9.5621e-80
-3.99072e-82
-1.2749e-84
-3.03685e-87
-5.20539e-90
-6.10518e-93
-4.5423e-96
-1.89626e-99
-3.53297e-103
-1.68469e-107
-3.89795e-55
-2.62012e-56
-1.48101e-57
-7.03598e-59
-2.80489e-60
-9.36789e-62
-2.6142e-63
-6.07782e-65
-1.17309e-66
-1.87029e-68
-2.4506e-70
-2.62151e-72
-2.2711e-74
-1.5777e-76
-8.67908e-79
-3.72339e-81
-1.22109e-83
-2.9814e-86
-5.22911e-89
-6.26303e-92
-4.74745e-95
-2.01366e-98
-3.79981e-102
-1.827e-106
-2.08459e-54
-1.45708e-55
-8.56086e-57
-4.22536e-58
-1.74898e-59
-6.06126e-61
-1.75396e-62
-4.22552e-64
-8.44459e-66
-1.39291e-67
-1.8867e-69
-2.08447e-71
-1.86326e-73
-1.33418e-75
-7.55681e-78
-3.33398e-80
-1.12296e-82
-2.81196e-85
-5.04995e-88
-6.18196e-91
-4.77957e-94
-2.06293e-97
-3.95104e-101
-1.9216e-105
-1.05755e-53
-7.69554e-55
-4.70475e-56
-2.41482e-57
-1.03876e-58
-3.73847e-60
-1.1226e-61
-2.80423e-63
-5.80603e-65
-9.9133e-67
-1.38876e-68
-1.58536e-70
-1.46279e-72
-1.08006e-74
-6.30123e-77
-2.86015e-79
-9.89876e-82
-2.54341e-84
-4.67988e-87
-5.85992e-90
-4.62574e-93
-2.03443e-96
-3.96223e-100
-1.95466e-104
-5.0757e-53
-3.85037e-54
-2.45245e-55
-1.3105e-56
-5.86424e-58
-2.19369e-59
-6.84109e-61
-1.77316e-62
-3.80592e-64
-6.73039e-66
-9.75666e-68
-1.15135e-69
-1.09705e-71
-8.35593e-74
-5.0233e-76
-2.34673e-78
-8.34884e-81
-2.20221e-83
-4.1539e-86
-5.32394e-89
-4.29477e-92
-1.92706e-95
-3.82279e-99
-1.91751e-103
-2.29748e-52
-1.81983e-53
-1.20939e-54
-6.73677e-56
-3.13959e-57
-1.22199e-58
-3.96119e-60
-1.06618e-61
-2.37405e-63
-4.35095e-65
-6.53032e-67
-7.97006e-69
-7.84577e-71
-6.1671e-73
-3.82173e-75
-1.83826e-77
-6.72526e-80
-1.82189e-82
-3.52464e-85
-4.62676e-88
-3.8172e-91
-1.74925e-94
-3.53947e-98
-1.80888e-102
-9.77207e-52
-8.09839e-53
-5.6251e-54
-3.27141e-55
-1.58996e-56
-6.44657e-58
-2.17442e-59
-6.08305e-61
-1.40629e-62
-2.67299e-64
-4.15613e-66
-5.24887e-68
-5.3407e-70
-4.33414e-72
-2.7697e-74
-1.37218e-76
-5.16425e-79
-1.43737e-81
-2.8533e-84
-3.83819e-87
-3.24079e-90
-1.51808e-93
-3.13692e-97
-1.6362e-101
-3.88892e-51
-3.3802e-52
-2.45922e-53
-1.49597e-54
-7.59462e-56
-3.21213e-57
-1.12873e-58
-3.28548e-60
-7.893e-62
-1.55718e-63
-2.50992e-65
-3.28201e-67
-3.45343e-69
-2.89472e-71
-1.90834e-73
-9.74136e-76
-3.77279e-78
-1.07925e-80
-2.19916e-83
-3.03287e-86
-2.6223e-89
-1.25658e-92
-2.65428e-96
-1.41499e-100
-1.44062e-50
-1.31737e-51
-1.00654e-52
-6.41886e-54
-3.41041e-55
-1.50716e-56
-5.52532e-58
-1.67544e-59
-4.18715e-61
-8.58184e-63
-1.43505e-64
-1.94418e-66
-2.11674e-68
-1.8335e-70
-1.24747e-72
-6.56354e-75
-2.61681e-77
-7.69615e-80
-1.61031e-82
-2.27767e-85
-2.01758e-88
-9.89609e-92
-2.13853e-95
-1.16649e-99
-4.93704e-50
-4.76853e-51
-3.83891e-52
-2.57361e-53
-1.43442e-54
-6.63682e-56
-2.54268e-57
-8.04365e-59
-2.09374e-60
-4.46275e-62
-7.7489e-64
-1.08848e-65
-1.227e-67
-1.09887e-69
-7.71954e-72
-4.18799e-74
-1.71938e-76
-5.20054e-79
-1.11768e-81
-1.62191e-84
-1.47248e-87
-7.39627e-91
-1.63625e-94
-9.13932e-99
-1.26021e-48
-1.55353e-49
-1.59294e-50
-1.35693e-51
-9.59637e-53
-5.62695e-54
-2.73231e-55
-1.09616e-56
-3.62378e-58
-9.83878e-60
-2.18355e-61
-3.9409e-63
-5.74466e-65
-6.70957e-67
-6.21646e-69
-4.51121e-71
-2.5246e-73
-1.06768e-75
-3.32213e-78
-7.33563e-81
-1.09242e-83
-1.01678e-86
-5.23212e-90
-1.18548e-93
-6.78457e-98
-2.09937e-47
-3.35435e-48
-4.44509e-49
-4.87306e-50
-4.41664e-51
-3.3095e-52
-2.04879e-53
-1.04709e-54
-4.40944e-56
-1.52642e-57
-4.33021e-59
-1.00203e-60
-1.88203e-62
-2.84982e-64
-3.45154e-66
-3.31058e-68
-2.48314e-70
-1.4341e-72
-6.2498e-75
-2.00111e-77
-4.54101e-80
-6.94141e-83
-6.62514e-86
-3.49335e-89
-8.10892e-93
-4.75701e-97
-4.50602e-47
-7.92163e-48
-1.14322e-48
-1.35281e-49
-1.31392e-50
-1.04894e-51
-6.88562e-53
-3.71691e-54
-1.64772e-55
-5.98701e-57
-1.77814e-58
-4.2975e-60
-8.41164e-62
-1.32464e-63
-1.66524e-65
-1.65482e-67
-1.28372e-69
-7.65505e-72
-3.43911e-74
-1.13348e-76
-2.64398e-79
-4.14935e-82
-4.06172e-85
-2.19492e-88
-5.22051e-92
-3.13988e-96
-8.15557e-47
-1.62449e-47
-2.60331e-48
-3.3698e-49
-3.54081e-50
-3.03283e-51
-2.12245e-52
-1.21528e-53
-5.69084e-55
-2.17655e-56
-6.78369e-58
-1.7157e-59
-3.5054e-61
-5.74872e-63
-7.50967e-65
-7.73884e-67
-6.21352e-69
-3.82792e-71
-1.77364e-73
-6.01923e-76
-1.44362e-78
-2.32634e-81
-2.33578e-84
-1.2937e-87
-3.15296e-91
-1.94428e-95
-1.17465e-46
-2.79911e-47
-5.14098e-48
-7.42344e-49
-8.5492e-50
-7.92915e-51
-5.95615e-52
-3.63645e-53
-1.80624e-54
-7.29636e-56
-2.39297e-57
-6.34802e-59
-1.35642e-60
-2.32024e-62
-3.1537e-64
-3.37379e-66
-2.80602e-68
-1.78712e-70
-8.54436e-73
-2.98692e-75
-7.36736e-78
-1.21926e-80
-1.25579e-83
-7.12869e-87
-1.78014e-90
-1.12533e-94
-1.19284e-46
-3.82528e-47
-8.53017e-48
-1.41765e-48
-1.82363e-49
-1.85449e-50
-1.50848e-51
-9.88465e-53
-5.23425e-54
-2.24222e-55
-7.76363e-57
-2.16603e-58
-4.85124e-60
-8.6716e-62
-1.22823e-63
-1.3657e-65
-1.17778e-67
-7.7607e-70
-3.83091e-72
-1.38005e-74
-3.50168e-77
-5.95238e-80
-6.28906e-83
-3.65891e-86
-9.36e-90
-6.06411e-94
-5.94863e-47
-3.59421e-47
-1.12129e-47
-2.27427e-48
-3.36946e-49
-3.82656e-50
-3.41141e-51
-2.41964e-52
-1.37462e-53
-6.27515e-55
-2.30287e-56
-6.77876e-58
-1.59553e-59
-2.98668e-61
-4.41597e-63
-5.11082e-65
-4.5754e-67
-3.1219e-69
-1.59214e-71
-5.91323e-74
-1.54394e-76
-2.69613e-79
-2.92223e-82
-1.74224e-85
-4.5645e-89
-3.02952e-93
6.54998e-49
2.82016e-51
-9.72934e-48
-2.87639e-48
-5.22083e-49
-6.82902e-50
-6.79442e-51
-5.27787e-52
-3.24344e-53
-1.5875e-54
-6.20409e-56
-1.93413e-57
-4.79879e-59
-9.43045e-61
-1.45847e-62
-1.75977e-64
-1.63749e-66
-1.15812e-68
-6.1066e-71
-2.33947e-73
-6.28762e-76
-1.12812e-78
-1.25429e-81
-7.66202e-85
-2.05515e-88
-1.39665e-92
2.17473e-43
3.12982e-46
8.16849e-50
-2.33446e-48
-6.34309e-49
-1.02026e-49
-1.16876e-50
-1.01215e-51
-6.8054e-53
-3.59983e-54
-1.50705e-55
-4.99848e-57
-1.31201e-58
-2.71455e-60
-4.40134e-62
-5.54658e-64
-5.37218e-66
-3.9426e-68
-2.15109e-70
-8.50532e-73
-2.35378e-75
-4.33957e-78
-4.94919e-81
-3.09692e-84
-8.50085e-88
-5.91138e-92
7.29327e-41
1.47112e-43
9.63932e-47
2.75324e-50
-4.89406e-49
-1.1951e-49
-1.68425e-50
-1.6761e-51
-1.25413e-52
-7.24758e-54
-3.27487e-55
-1.16203e-56
-3.24046e-58
-7.08189e-60
-1.2069e-61
-1.59168e-63
-1.60711e-65
-1.22528e-67
-6.9231e-70
-2.82674e-72
-8.05744e-75
-1.52661e-77
-1.7857e-80
-1.14424e-83
-3.21257e-87
-2.28415e-91
4.54093e-39
1.01341e-41
3.85727e-44
5.19884e-47
2.43118e-50
-8.95732e-50
-1.92129e-50
-2.33677e-51
-1.99987e-52
-1.28218e-53
-6.31493e-55
-2.41356e-56
-7.18584e-58
-1.66493e-59
-2.99053e-61
-4.13601e-63
-4.36025e-65
-3.45733e-67
-2.02456e-69
-8.54031e-72
-2.50793e-74
-4.88304e-77
-5.85683e-80
-3.84137e-83
-1.10241e-86
-8.00672e-91
3.81617e-38
1.73899e-40
5.79355e-42
2.31437e-44
1.66887e-47
5.31238e-51
-1.48857e-50
-2.63621e-51
-2.71178e-52
-1.97285e-53
-1.07273e-54
-4.45234e-56
-1.42314e-57
-3.50941e-59
-6.6623e-61
-9.68203e-63
-1.06718e-64
-8.8087e-67
-5.34898e-69
-2.33178e-71
-7.05449e-74
-1.41121e-76
-1.73488e-79
-1.16395e-82
-3.41141e-86
-2.52809e-90
7.15809e-40
7.15968e-40
8.62972e-41
7.61748e-43
7.43793e-46
4.15489e-49
-1.60356e-51
-2.24885e-51
-3.06706e-52
-2.61821e-53
-1.5976e-54
-7.26805e-56
-2.50853e-57
-6.60825e-59
-1.32911e-60
-2.03271e-62
-2.34469e-64
-2.01564e-66
-1.26941e-68
-5.71789e-71
-1.78155e-73
-3.65957e-76
-4.6079e-79
-3.15931e-82
-9.44587e-86
-7.13232e-90
9.48393e-40
8.95154e-40
2.10412e-40
2.8204e-42
4.6662e-45
4.56378e-48
3.0106e-51
-1.34588e-51
-2.84284e-52
-2.984e-53
-2.08389e-54
-1.04941e-55
-3.9318e-57
-1.10967e-58
-2.36807e-60
-3.81373e-62
-4.60387e-64
-4.12063e-66
-2.68985e-68
-1.25096e-70
-4.01038e-73
-8.45005e-76
-1.08843e-78
-7.61588e-82
-2.31925e-85
-1.78109e-89
2.68141e-34
3.37238e-34
1.84291e-36
9.53555e-40
2.94438e-42
1.20015e-44
2.06172e-47
2.05413e-50
-2.19575e-52
-2.14576e-52
-2.92866e-53
-2.38557e-54
-1.34181e-55
-5.48042e-57
-1.65979e-58
-3.75886e-60
-6.37047e-62
-8.03939e-64
-7.48132e-66
-5.05423e-68
-2.42295e-70
-7.97874e-73
-1.72143e-75
-2.26415e-78
-1.6137e-81
-4.99501e-85
-3.89256e-89
9.34662e-18
8.4282e-18
7.56377e-18
6.58319e-18
5.1278e-18
2.8941e-18
7.51749e-19
4.60802e-20
4.10331e-22
8.52044e-25
1.09436e-27
1.16282e-30
1.03977e-33
7.79106e-37
4.87037e-40
2.60622e-43
1.39317e-46
9.74536e-50
5.73734e-53
-1.25874e-52
-2.44495e-53
-2.3854e-54
-1.51341e-55
-6.76357e-57
-2.19994e-58
-5.28308e-60
-9.40708e-62
-1.23845e-63
-1.19547e-65
-8.33834e-68
-4.11039e-70
-1.38694e-72
-3.05656e-75
-4.09501e-78
-2.96539e-81
-9.30569e-85
-7.33829e-89
1.07458e-17
9.53776e-18
8.52073e-18
7.62096e-18
6.5728e-18
4.86233e-18
2.2938e-18
3.90964e-19
1.22858e-20
5.82579e-23
1.0027e-25
1.27891e-28
1.35815e-31
1.21016e-34
9.01647e-38
5.59019e-41
2.86197e-44
1.22858e-47
4.36419e-51
6.21406e-56
-1.61429e-53
-2.0184e-54
-1.47186e-55
-7.2519e-57
-2.53961e-58
-6.46678e-60
-1.20806e-61
-1.65555e-63
-1.6535e-65
-1.18745e-67
-6.00213e-70
-2.06931e-72
-4.64486e-75
-6.32041e-78
-4.63665e-81
-1.47065e-84
-1.16982e-88
1.25202e-17
1.08954e-17
9.52483e-18
8.43889e-18
7.50878e-18
6.30483e-18
4.17643e-18
1.44116e-18
1.33944e-19
1.9063e-21
5.40465e-24
8.39032e-27
1.04208e-29
1.07956e-32
9.34083e-36
6.72775e-39
4.00472e-42
1.99152e-45
8.16936e-49
2.67093e-52
-3.40854e-54
-1.2569e-54
-1.15325e-55
-6.4415e-57
-2.45463e-58
-6.65332e-60
-1.30501e-61
-1.86022e-63
-1.9192e-65
-1.41608e-67
-7.32187e-70
-2.57258e-72
-5.86562e-75
-8.08378e-78
-5.99006e-81
-1.91438e-84
-1.53091e-88
1.47077e-17
1.26202e-17
1.07943e-17
9.3133e-18
8.21584e-18
7.23043e-18
5.70652e-18
3.06027e-18
6.43587e-19
2.69967e-20
1.70579e-22
3.49822e-25
5.06989e-28
6.0279e-31
5.9493e-34
4.86362e-37
3.27392e-40
1.8374e-43
8.49731e-47
3.3025e-50
1.02193e-53
-3.13517e-55
-6.14819e-56
-4.29703e-57
-1.84437e-58
-5.39672e-60
-1.11808e-61
-1.66167e-63
-1.77189e-65
-1.34269e-67
-7.09422e-70
-2.53659e-72
-5.86449e-75
-8.1692e-78
-6.10043e-81
-1.95943e-84
-1.57052e-88
1.72987e-17
1.47054e-17
1.23988e-17
1.04315e-17
8.93645e-18
7.87774e-18
6.73078e-18
4.65633e-18
1.722e-18
1.77537e-19
2.91246e-21
9.48586e-24
1.62771e-26
2.17925e-29
2.38243e-32
2.13142e-35
1.55455e-38
9.37277e-42
4.61969e-45
1.89291e-48
6.43899e-52
1.71207e-55
-1.69312e-56
-1.9287e-57
-9.87325e-59
-3.17638e-60
-6.99936e-62
-1.08772e-63
-1.20032e-65
-9.34554e-68
-5.04577e-70
-1.8353e-72
-4.29956e-75
-6.04763e-78
-4.54511e-81
-1.46465e-84
-1.17383e-88
2.03345e-17
1.71422e-17
1.43112e-17
1.18479e-17
9.8411e-18
8.45885e-18
7.40711e-18
5.87058e-18
3.13017e-18
6.39902e-19
2.60406e-20
1.66219e-22
3.56692e-25
5.27731e-28
6.20996e-31
5.89867e-34
4.51229e-37
2.81844e-40
1.41987e-43
5.84991e-47
1.96042e-50
5.32303e-54
1.03941e-57
-4.59025e-58
-3.24224e-59
-1.17493e-60
-2.76879e-62
-4.51044e-64
-5.16245e-66
-4.1392e-68
-2.28863e-70
-8.48434e-73
-2.0171e-75
-2.86775e-78
-2.17006e-81
-7.01449e-85
-5.61556e-89
2.39065e-17
1.99728e-17
1.65191e-17
1.35285e-17
1.09988e-17
9.12542e-18
7.92189e-18
6.69669e-18
4.47006e-18
1.49651e-18
1.31049e-19
1.82541e-21
5.56309e-24
9.27924e-27
1.19251e-29
1.22702e-32
1.00519e-35
6.626e-39
3.4538e-42
1.43707e-45
4.71593e-49
1.20678e-52
2.40093e-56
2.94581e-60
-2.53628e-60
-1.32318e-61
-3.71816e-63
-6.83981e-65
-8.5988e-67
-7.43009e-69
-4.36232e-71
-1.69637e-73
-4.18673e-76
-6.12343e-79
-4.72859e-82
-1.54849e-85
-1.24699e-89
-1.46768e-72
-5.42253e-74
-1.6898e-75
-4.4457e-77
-9.87237e-79
-1.85009e-80
-2.92207e-82
-3.88375e-84
-4.33456e-86
-4.04785e-88
-3.15169e-90
-2.03537e-92
-1.08363e-94
-4.71936e-97
-1.6647e-99
-4.69928e-102
-1.04525e-104
-1.79528e-107
-2.31872e-110
-2.17158e-113
-1.39972e-116
-5.67611e-120
-1.23981e-123
-9.88775e-128
-1.56769e-71
-5.93643e-73
-1.89569e-74
-5.1093e-76
-1.16194e-77
-2.22903e-79
-3.60219e-81
-4.89605e-83
-5.58468e-85
-5.32665e-87
-4.23296e-89
-2.78798e-91
-1.51261e-93
-6.70759e-96
-2.40696e-98
-6.90551e-101
-1.55943e-103
-2.71617e-106
-3.55278e-109
-3.36407e-112
-2.18696e-115
-8.918e-119
-1.9479e-122
-1.51012e-126
-1.63346e-70
-6.34625e-72
-2.07888e-73
-5.74625e-75
-1.33975e-76
-2.63393e-78
-4.36009e-80
-6.06712e-82
-7.08074e-84
-6.90539e-86
-5.60677e-88
-3.77006e-90
-2.08642e-92
-9.42873e-95
-3.4445e-97
-1.00493e-99
-2.30483e-102
-4.07116e-105
-5.39039e-108
-5.15397e-111
-3.37056e-114
-1.37776e-117
-2.97447e-121
-2.21107e-125
-1.6582e-69
-6.61607e-71
-2.22535e-72
-6.31455e-74
-1.5109e-75
-3.0472e-77
-5.17224e-79
-7.37597e-81
-8.81669e-83
-8.80054e-85
-7.30804e-87
-5.02163e-89
-2.83734e-91
-1.3078e-93
-4.86759e-96
-1.44504e-98
-3.3675e-101
-6.03333e-104
-8.08483e-107
-7.79993e-110
-5.12331e-113
-2.08946e-116
-4.43532e-120
-3.1511e-124
-1.63797e-68
-6.71743e-70
-2.32208e-71
-6.77024e-73
-1.664e-74
-3.44598e-76
-6.00328e-78
-8.78207e-80
-1.07619e-81
-1.10052e-83
-9.35542e-86
-6.57521e-88
-3.79639e-90
-1.78623e-92
-6.77845e-95
-2.04894e-97
-4.85404e-100
-8.82409e-103
-1.19689e-105
-1.16483e-108
-7.67687e-112
-3.11665e-115
-6.48479e-119
-4.38909e-123
-1.57245e-67
-6.6338e-69
-2.35871e-70
-7.07214e-72
-1.78702e-73
-3.80331e-75
-6.80644e-77
-1.02231e-78
-1.28549e-80
-1.34795e-82
-1.17408e-84
-8.44742e-87
-4.9882e-89
-2.3977e-91
-9.284e-94
-2.85932e-96
-6.89073e-99
-1.27165e-101
-1.74613e-104
-1.71382e-107
-1.1327e-110
-4.57153e-114
-9.31229e-118
-5.99978e-122
-1.46526e-66
-6.36389e-68
-2.32921e-69
-7.18753e-71
-1.86869e-72
-4.09068e-74
-7.5265e-76
-1.16165e-77
-1.50008e-79
-1.61428e-81
-1.44186e-83
-1.0629e-85
-6.42425e-88
-3.15718e-90
-1.24828e-92
-3.92021e-95
-9.61626e-98
-1.8023e-100
-2.50613e-103
-2.48109e-106
-1.64434e-109
-6.59471e-113
-1.31512e-116
-8.07296e-121
-1.3237e-65
-5.9229e-67
-2.23313e-68
-7.0974e-70
-1.90003e-71
-4.28129e-73
-8.10486e-75
-1.28641e-76
-1.70733e-78
-1.88705e-80
-1.72978e-82
-1.3075e-84
-8.09509e-87
-4.07058e-89
-1.6447e-91
-5.27059e-94
-1.31678e-96
-2.50787e-99
-3.53319e-102
-3.52965e-105
-2.34655e-108
-9.35519e-112
-1.82817e-115
-1.07174e-119
-1.15789e-64
-5.34133e-66
-2.07598e-67
-6.8003e-69
-1.87585e-70
-4.35389e-72
-8.48662e-74
-1.38624e-75
-1.89231e-77
-2.14971e-79
-2.02384e-81
-1.56975e-83
-9.96282e-86
-5.12976e-88
-2.11976e-90
-6.93617e-93
-1.76615e-95
-3.42035e-98
-4.88528e-101
-4.92774e-104
-3.28846e-107
-1.30448e-110
-2.50231e-114
-1.40574e-118
-9.79525e-64
-4.66146e-65
-1.86886e-66
-6.31379e-68
-1.79581e-69
-4.29632e-71
-8.62846e-73
-1.45146e-74
-2.03926e-76
-2.38278e-78
-2.30552e-80
-1.83626e-82
-1.19555e-84
-6.30815e-87
-2.66769e-89
-8.91928e-92
-2.31631e-94
-4.56459e-97
-6.61447e-100
-6.74202e-103
-4.52063e-106
-1.78673e-109
-3.37209e-113
-1.82287e-117
-8.00369e-63
-3.93188e-64
-1.62711e-65
-5.67302e-67
-1.66479e-68
-4.10801e-70
-8.50601e-72
-1.47449e-73
-2.13356e-75
-2.56581e-77
-2.55321e-79
-2.08955e-81
-1.39656e-83
-7.55649e-86
-3.27255e-88
-1.11879e-90
-2.96542e-93
-5.95087e-96
-8.75589e-99
-9.02681e-102
-6.08862e-105
-2.40175e-108
-4.47174e-112
-2.33703e-116
-6.30871e-62
-3.20133e-63
-1.36829e-64
-4.9264e-66
-1.49251e-67
-3.80092e-69
-8.11904e-71
-1.45121e-72
-2.16399e-74
-2.68008e-76
-2.74447e-78
-2.3094e-80
-1.58552e-82
-8.80297e-85
-3.90677e-87
-1.36662e-89
-3.69975e-92
-7.56645e-95
-1.1314e-97
-1.18095e-100
-8.02366e-104
-3.16492e-107
-5.83062e-111
-2.96084e-115
-4.79073e-61
-2.51272e-62
-1.10992e-63
-4.12915e-65
-1.29227e-66
-3.39843e-68
-7.49323e-70
-1.38184e-71
-2.12468e-73
-2.71154e-75
-2.85909e-77
-2.47518e-79
-1.74673e-81
-9.95709e-84
-4.53128e-86
-1.62297e-88
-4.4909e-91
-9.36747e-94
-1.42475e-96
-1.50736e-99
-1.03309e-102
-4.08324e-106
-7.46663e-110
-3.70347e-114
-3.50019e-60
-1.89873e-61
-8.67322e-63
-3.33601e-64
-1.07913e-65
-2.93229e-67
-6.67758e-69
-1.27119e-70
-2.01652e-72
-2.65334e-74
-2.88237e-76
-2.56869e-78
-1.86434e-80
-1.09179e-82
-5.09792e-85
-1.87079e-87
-5.29487e-90
-1.12734e-92
-1.74569e-95
-1.87413e-98
-1.29764e-101
-5.15019e-105
-9.37783e-109
-4.56702e-113
-2.45701e-59
-1.37939e-60
-6.51998e-62
-2.59439e-63
-8.67953e-65
-2.43826e-66
-5.73791e-68
-1.1282e-69
-1.84741e-71
-2.50756e-73
-2.80795e-75
-2.57728e-77
-1.92488e-79
-1.15869e-81
-5.55448e-84
-2.08974e-86
-6.05378e-89
-1.31667e-91
-2.07769e-94
-2.26602e-97
-1.5875e-100
-6.34049e-104
-1.1533e-107
-5.54295e-112
-1.65469e-58
-9.62048e-60
-4.70844e-61
-1.93944e-62
-6.7144e-64
-1.95115e-65
-4.7475e-67
-9.64645e-69
-1.63138e-70
-2.28542e-72
-2.63938e-74
-2.49646e-76
-1.91957e-78
-1.18835e-80
-5.85176e-83
-2.25846e-85
-6.70097e-88
-1.48993e-90
-2.39803e-93
-2.66001e-96
-1.88837e-99
-7.60596e-103
-1.38632e-106
-6.60789e-111
-1.06746e-57
-6.43187e-59
-3.2616e-60
-1.39162e-61
-4.98869e-63
-1.50045e-64
-3.7769e-66
-7.93484e-68
-1.38663e-69
-2.00591e-71
-2.39029e-73
-2.33098e-75
-1.84614e-77
-1.17598e-79
-5.95165e-82
-2.35769e-84
-7.16932e-87
-1.63079e-89
-2.67951e-92
-3.02627e-95
-2.18023e-98
-8.874e-102
-1.62558e-105
-7.72016e-110
-6.58571e-57
-4.11545e-58
-2.16389e-59
-9.56991e-61
-3.55456e-62
-1.10722e-63
-2.8849e-65
-6.26996e-67
-1.13277e-68
-1.69294e-70
-2.08254e-72
-2.09483e-74
-1.70972e-76
-1.12115e-78
-5.83461e-81
-2.37366e-83
-7.40176e-86
-1.72366e-88
-2.89358e-91
-3.33099e-94
-2.43876e-97
-1.00504e-100
-1.85554e-104
-8.81826e-109
-3.87879e-56
-2.51592e-57
-1.3727e-58
-6.29716e-60
-2.42508e-61
-7.8281e-63
-2.11248e-64
-4.75222e-66
-8.88087e-68
-1.37187e-69
-1.74292e-71
-1.80925e-73
-1.52236e-75
-1.02816e-77
-5.50455e-80
-2.30094e-82
-7.36193e-85
-1.75624e-87
-3.01468e-90
-3.54077e-93
-2.63797e-96
-1.10273e-99
-2.05721e-103
-9.82227e-108
-2.17667e-55
-1.4668e-56
-8.31148e-58
-3.95811e-59
-1.58158e-60
-5.29414e-62
-1.4806e-63
-3.44954e-65
-6.67154e-67
-1.06575e-68
-1.39908e-70
-1.4994e-72
-1.30128e-74
-9.05526e-77
-4.98968e-79
-2.14406e-81
-7.04243e-84
-1.72209e-86
-3.02485e-89
-3.62813e-92
-2.75401e-95
-1.16972e-98
-2.21021e-102
-1.06408e-106
-1.16135e-54
-8.13882e-56
-4.79413e-57
-2.37214e-58
-9.84262e-60
-3.41905e-61
-9.91612e-63
-2.39413e-64
-4.79466e-66
-7.92464e-68
-1.0755e-69
-1.19047e-71
-1.06607e-73
-7.64698e-76
-4.33865e-78
-1.91733e-80
-6.46832e-83
-1.62222e-85
-2.91771e-88
-3.57698e-91
-2.76948e-94
-1.19701e-97
-2.29568e-101
-1.11799e-105
-5.87702e-54
-4.28831e-55
-2.62874e-56
-1.35278e-57
-5.83382e-59
-2.10469e-60
-6.33485e-62
-1.58601e-63
-3.29091e-65
-5.63072e-67
-7.90405e-69
-9.04048e-71
-8.35719e-73
-6.18176e-75
-3.61282e-77
-1.64265e-79
-5.69439e-82
-1.46546e-84
-2.7006e-87
-3.38663e-90
-2.67725e-93
-1.17914e-96
-2.29965e-100
-1.136e-104
-2.8131e-53
-2.14015e-54
-1.36699e-55
-7.32464e-57
-3.28631e-58
-1.23247e-59
-3.8529e-61
-1.001e-62
-2.15339e-64
-3.81634e-66
-5.54389e-68
-6.5553e-70
-6.25821e-72
-4.77559e-74
-2.87609e-76
-1.34596e-78
-4.79647e-81
-1.26725e-83
-2.3941e-86
-3.07315e-89
-2.48278e-92
-1.11563e-95
-2.21624e-99
-1.1132e-103
-1.26962e-52
-1.00874e-53
-6.72367e-55
-3.75615e-56
-1.75537e-57
-6.85053e-59
-2.22635e-60
-6.00709e-62
-1.34075e-63
-2.46276e-65
-3.70436e-67
-4.53046e-69
-4.46873e-71
-3.51936e-73
-2.18498e-75
-1.05286e-77
-3.85852e-80
-1.04703e-82
-2.02887e-85
-2.66745e-88
-2.20407e-91
-1.01151e-94
-2.04967e-98
-1.04898e-102
-5.38283e-52
-4.47551e-53
-3.11854e-54
-1.81922e-55
-8.86775e-57
-3.6056e-58
-1.21944e-59
-3.42026e-61
-7.92654e-63
-1.51018e-64
-2.35343e-66
-2.97863e-68
-3.03701e-70
-2.46954e-72
-1.58116e-74
-7.8479e-77
-2.95884e-79
-8.24949e-82
-1.64031e-84
-2.21005e-87
-1.86898e-90
-8.76806e-94
-1.81447e-97
-9.47777e-102
-2.13452e-51
-1.86187e-52
-1.35921e-53
-8.29534e-55
-4.22451e-56
-1.7921e-57
-6.31532e-59
-1.84325e-60
-4.43969e-62
-8.78054e-64
-1.41863e-65
-1.8592e-67
-1.96052e-69
-1.64674e-71
-1.08776e-73
-5.5632e-76
-2.15855e-78
-6.18573e-81
-1.2626e-83
-1.74412e-86
-1.51042e-89
-7.24897e-93
-1.53351e-96
-8.1871e-101
-7.87542e-51
-7.22962e-52
-5.54432e-53
-3.54822e-54
-1.89156e-55
-8.3861e-57
-3.08371e-58
-9.3777e-60
-2.35003e-61
-4.82909e-63
-8.09522e-65
-1.09931e-66
-1.19958e-68
-1.0413e-70
-7.09937e-73
-3.74268e-75
-1.49499e-77
-4.40485e-80
-9.23272e-83
-1.30812e-85
-1.16065e-88
-5.7019e-92
-1.23407e-95
-6.7415e-100
-2.68659e-50
-2.6061e-51
-2.10663e-52
-1.41774e-53
-7.93069e-55
-3.68203e-56
-1.41524e-57
-4.4908e-59
-1.17234e-60
-2.5057e-62
-4.36216e-64
-6.1427e-66
-6.94076e-68
-6.22995e-70
-4.38591e-72
-2.38432e-74
-9.80808e-77
-2.9722e-79
-6.39933e-82
-9.30252e-85
-8.45971e-88
-4.25625e-91
-9.43083e-95
-5.27572e-99
-6.78626e-49
-8.40946e-50
-8.66494e-51
-7.41479e-52
-5.26618e-53
-3.10019e-54
-1.51099e-55
-6.0831e-57
-2.01764e-58
-5.49502e-60
-1.2231e-61
-2.21358e-63
-3.23521e-65
-3.788e-67
-3.51789e-69
-2.55862e-71
-1.43494e-73
-6.08093e-76
-1.89581e-78
-4.19403e-81
-6.25701e-84
-5.83389e-87
-3.00703e-90
-6.82428e-94
-3.91175e-98
-1.11507e-47
-1.79359e-48
-2.39149e-49
-2.63653e-50
-2.40193e-51
-1.80837e-52
-1.12441e-53
-5.77006e-55
-2.43908e-56
-8.4734e-58
-2.41179e-59
-5.59849e-61
-1.05462e-62
-1.60137e-64
-1.94458e-66
-1.86981e-68
-1.40578e-70
-8.13709e-73
-3.55371e-75
-1.14018e-77
-2.59238e-80
-3.97015e-83
-3.79607e-86
-2.00508e-89
-4.66205e-93
-2.73938e-97
-2.36839e-47
-4.19953e-48
-6.10635e-49
-7.27397e-50
-7.10683e-51
-5.704e-52
-3.7626e-53
-2.0402e-54
-9.08182e-56
-3.31262e-57
-9.8739e-59
-2.3944e-60
-4.70145e-62
-7.42565e-64
-9.36105e-66
-9.327e-68
-7.25341e-70
-4.33554e-72
-1.95214e-74
-6.44771e-77
-1.50706e-79
-2.36972e-82
-2.32399e-85
-1.25812e-88
-2.99752e-92
-1.80587e-96
-4.22721e-47
-8.51992e-48
-1.37851e-48
-1.7988e-49
-1.90324e-50
-1.6402e-51
-1.15416e-52
-6.64151e-54
-3.12424e-55
-1.19995e-56
-3.7545e-58
-9.53024e-60
-1.95376e-61
-3.21428e-63
-4.2114e-65
-4.35208e-67
-3.50352e-69
-2.16377e-71
-1.00493e-73
-3.41809e-76
-8.21519e-79
-1.32653e-81
-1.3345e-84
-7.40502e-88
-1.80794e-91
-1.1168e-95
-5.96873e-47
-1.44743e-47
-2.69304e-48
-3.92834e-49
-4.562e-50
-4.2614e-51
-3.22108e-52
-1.97758e-53
-9.8724e-55
-4.00644e-56
-1.31958e-57
-3.51438e-59
-7.53698e-61
-1.29366e-62
-1.76398e-64
-1.89274e-66
-1.57864e-68
-1.00808e-70
-4.83174e-73
-1.69306e-75
-4.18533e-78
-6.94123e-81
-7.16366e-84
-4.07443e-87
-1.01933e-90
-6.45528e-95
-5.87447e-47
-1.9371e-47
-4.4045e-48
-7.42086e-49
-9.64663e-50
-9.89399e-51
-8.10647e-52
-5.34568e-53
-2.84672e-54
-1.22571e-55
-4.26384e-57
-1.19473e-58
-2.6865e-60
-4.81992e-62
-6.85041e-64
-7.64164e-66
-6.61003e-68
-4.36783e-70
-2.1618e-72
-7.80716e-75
-1.98564e-77
-3.38286e-80
-3.58179e-83
-2.08805e-86
-5.35185e-90
-3.47376e-94
-2.6275e-47
-1.73197e-47
-5.65228e-48
-1.17265e-48
-1.76268e-49
-2.02353e-50
-1.81973e-51
-1.3002e-52
-7.43393e-54
-3.41302e-55
-1.259e-56
-3.72359e-58
-8.80251e-60
-1.6544e-61
-2.45527e-63
-2.85149e-65
-2.56104e-67
-1.75276e-69
-8.96424e-72
-3.33819e-74
-8.73783e-77
-1.52946e-79
-1.66143e-82
-9.92648e-86
-2.60589e-89
-1.73291e-93
8.39501e-49
8.47458e-51
-4.58212e-48
-1.44315e-48
-2.68763e-49
-3.56991e-50
-3.59152e-51
-2.81464e-52
-1.74259e-53
-8.58454e-55
-3.37436e-56
-1.05749e-57
-2.63637e-59
-5.20382e-61
-8.08088e-63
-9.78716e-65
-9.13908e-67
-6.48477e-69
-3.42974e-71
-1.31769e-73
-3.55092e-76
-6.38701e-79
-7.11815e-82
-4.35795e-85
-1.17139e-88
-7.97671e-93
2.18965e-43
3.28293e-46
1.13268e-49
-1.0945e-48
-3.17058e-49
-5.24343e-50
-6.10438e-51
-5.34714e-52
-3.62775e-53
-1.9335e-54
-8.14802e-56
-2.71844e-57
-7.17363e-59
-1.49148e-60
-2.42914e-62
-3.07389e-64
-2.98864e-66
-2.20112e-68
-1.20489e-70
-4.7787e-73
-1.32625e-75
-2.4517e-78
-2.80316e-81
-1.7582e-84
-4.83695e-88
-3.3707e-92
7.30419e-41
1.47481e-43
9.90443e-47
3.43281e-50
-2.28281e-49
-5.95603e-50
-8.64225e-51
-8.74523e-52
-6.62037e-53
-3.86117e-54
-1.75821e-55
-6.28094e-57
-1.76211e-58
-3.87211e-60
-6.63178e-62
-8.78613e-64
-8.90863e-66
-6.81835e-68
-3.86632e-70
-1.58388e-72
-4.52867e-75
-8.60496e-78
-1.00924e-80
-6.48326e-84
-1.82456e-87
-1.30018e-91
4.54574e-39
1.01508e-41
3.86838e-44
5.2723e-47
2.74022e-50
-4.15776e-50