/*--------------------------------*- C++ -*----------------------------------*\
| =========                 |                                                 |
| \\      /  F ield         | OpenFOAM: The Open Source CFD Toolbox           |
|  \\    /   O peration     | Version:  v2012                                 |
|   \\  /    A nd           | Website:  www.openfoam.com                      |
|    \\/     M anipulation  |                                                 |
\*---------------------------------------------------------------------------*/
FoamFile
{
    version     2.0;
    format      ascii;
    class       volVectorField;
    location    "0.5";
    object      U;
}
// * * * * * * * * * * * * * * * * * * * * * * * * * * * * * * * * * * * * * //

dimensions      [0 1 -1 0 0 0 0];


internalField   nonuniform List<vector> 
2642
(
(0.0005626 -0.00310266 -4.91112e-06)
(0.000559801 -0.00298971 -4.88666e-06)
(0.000554252 -0.00287244 -4.83819e-06)
(0.000545893 -0.00275133 -4.7652e-06)
(0.00053469 -0.00262688 -4.66739e-06)
(0.000520645 -0.00249961 -4.54478e-06)
(0.000503793 -0.00237011 -4.39768e-06)
(0.000484208 -0.00223894 -4.22672e-06)
(0.000462004 -0.00210673 -4.03292e-06)
(0.000437329 -0.001974 -3.81756e-06)
(0.000410371 -0.00184131 -3.58227e-06)
(0.000381356 -0.00170915 -3.32905e-06)
(0.000350545 -0.00157791 -3.06014e-06)
(0.000318236 -0.00144791 -2.77816e-06)
(0.000284753 -0.00131928 -2.48594e-06)
(0.000250456 -0.001192 -2.1866e-06)
(0.00021574 -0.00106588 -1.8836e-06)
(0.000181028 -0.000940428 -1.58063e-06)
(0.000146788 -0.000814839 -1.28175e-06)
(0.000113544 -0.000687898 -9.91562e-07)
(8.19187e-05 -0.000557737 -7.15455e-07)
(5.26061e-05 -0.000421349 -4.59536e-07)
(2.67847e-05 -0.000273951 -2.34129e-07)
(4.92625e-06 -0.00010545 -4.63157e-08)
(0.000566274 -0.00312001 -4.94304e-06)
(0.00056319 -0.00300418 -4.91607e-06)
(0.000557361 -0.00288414 -4.86516e-06)
(0.000548725 -0.00276038 -4.78974e-06)
(0.000537251 -0.00263342 -4.68957e-06)
(0.00052294 -0.00250381 -4.56464e-06)
(0.000505831 -0.00237213 -4.41529e-06)
(0.000485996 -0.00223896 -4.24216e-06)
(0.000463553 -0.00210493 -4.04628e-06)
(0.000438649 -0.00197059 -3.82893e-06)
(0.000411474 -0.00183649 -3.59176e-06)
(0.000382255 -0.00170311 -3.33677e-06)
(0.000351254 -0.00157086 -3.06622e-06)
(0.000318769 -0.00144004 -2.78272e-06)
(0.000285124 -0.0013108 -2.4891e-06)
(0.000250678 -0.0011831 -2.18849e-06)
(0.000215826 -0.00105675 -1.88433e-06)
(0.00018099 -0.000931254 -1.58029e-06)
(0.000146634 -0.000805809 -1.28044e-06)
(0.000113282 -0.000679208 -9.89314e-07)
(8.15503e-05 -0.000549594 -7.12333e-07)
(5.21224e-05 -0.000414009 -4.55419e-07)
(2.62003e-05 -0.000267663 -2.29283e-07)
(4.33831e-06 -0.000101335 -4.27884e-08)
(0.000572564 -0.00313453 -4.99799e-06)
(0.000569141 -0.0030165 -4.96806e-06)
(0.000562946 -0.00289427 -4.91394e-06)
(0.000553923 -0.00276834 -4.83515e-06)
(0.000542045 -0.00263925 -4.73143e-06)
(0.000527318 -0.00250757 -4.60286e-06)
(0.000509784 -0.00237391 -4.4498e-06)
(0.000489522 -0.00223888 -4.27294e-06)
(0.000466654 -0.0021031 -4.07334e-06)
(0.000441333 -0.00196716 -3.85235e-06)
(0.000413752 -0.00183162 -3.61164e-06)
(0.000384143 -0.00169697 -3.35323e-06)
(0.00035277 -0.00156362 -3.07944e-06)
(0.000319934 -0.0014319 -2.79288e-06)
(0.000285961 -0.00130193 -2.49639e-06)
(0.00025121 -0.00117371 -2.19312e-06)
(0.000216077 -0.00104703 -1.8865e-06)
(0.000180982 -0.000921402 -1.58021e-06)
(0.000146387 -0.000796029 -1.27828e-06)
(0.000112812 -0.000669717 -9.85225e-07)
(8.08719e-05 -0.000540628 -7.06417e-07)
(5.12519e-05 -0.000405864 -4.47863e-07)
(2.5199e-05 -0.000260663 -2.20587e-07)
(3.76461e-06 -9.68964e-05 -3.8009e-08)
(0.000581399 -0.00314851 -5.0751e-06)
(0.000577524 -0.00302825 -5.04123e-06)
(0.000570842 -0.00290382 -4.98286e-06)
(0.000561298 -0.00277575 -4.89953e-06)
(0.000548873 -0.0026446 -4.79103e-06)
(0.000533576 -0.00251095 -4.6575e-06)
(0.000515459 -0.00237542 -4.49934e-06)
(0.000494606 -0.00223864 -4.31732e-06)
(0.000471146 -0.00210125 -4.11256e-06)
(0.00044524 -0.00196385 -3.88646e-06)
(0.000417085 -0.00182698 -3.64074e-06)
(0.000386922 -0.00169118 -3.3775e-06)
(0.000355018 -0.00155685 -3.09907e-06)
(0.000321679 -0.00142431 -2.80812e-06)
(0.000287233 -0.00129371 -2.5075e-06)
(0.000252042 -0.00116502 -2.20039e-06)
(0.000216502 -0.00103805 -1.89022e-06)
(0.000181033 -0.000912316 -1.58067e-06)
(0.000146098 -0.000787019 -1.27575e-06)
(0.000112212 -0.000660979 -9.79988e-07)
(7.99963e-05 -0.000532377 -6.98785e-07)
(5.0161e-05 -0.000398383 -4.38321e-07)
(2.40252e-05 -0.000254321 -2.10339e-07)
(3.28046e-06 -9.30984e-05 -3.33828e-08)
(0.000592697 -0.00316262 -5.17372e-06)
(0.000588267 -0.00304005 -5.135e-06)
(0.000580976 -0.00291336 -5.07132e-06)
(0.00057078 -0.0027831 -4.98229e-06)
(0.000557664 -0.00264983 -4.86777e-06)
(0.000541647 -0.00251417 -4.72794e-06)
(0.000522788 -0.00237676 -4.56331e-06)
(0.000501182 -0.00223821 -4.37472e-06)
(0.000476966 -0.00209921 -4.16336e-06)
(0.00045031 -0.00196034 -3.93071e-06)
(0.000421421 -0.00182218 -3.67859e-06)
(0.000390546 -0.00168524 -3.40914e-06)
(0.00035796 -0.00154995 -3.12475e-06)
(0.000323974 -0.00141662 -2.82815e-06)
(0.000288921 -0.00128541 -2.52224e-06)
(0.000253165 -0.00115629 -2.2102e-06)
(0.000217105 -0.00102907 -1.89549e-06)
(0.000181161 -0.000903248 -1.58179e-06)
(0.000145797 -0.000778051 -1.27313e-06)
(0.000111533 -0.000652302 -9.74072e-07)
(7.89987e-05 -0.000524208 -6.90072e-07)
(4.89544e-05 -0.000391014 -4.278e-07)
(2.28089e-05 -0.0002482 -1.99685e-07)
(2.84622e-06 -8.96289e-05 -2.92103e-08)
(0.000606361 -0.00317675 -5.293e-06)
(0.000601275 -0.00305182 -5.24855e-06)
(0.000593263 -0.00292282 -5.17857e-06)
(0.000582288 -0.00279033 -5.08273e-06)
(0.000568345 -0.00265492 -4.96099e-06)
(0.000551462 -0.00251722 -4.81361e-06)
(0.000531711 -0.00237788 -4.64119e-06)
(0.000509195 -0.00223756 -4.44466e-06)
(0.000484066 -0.00209692 -4.22533e-06)
(0.000456504 -0.00195657 -3.98477e-06)
(0.000426725 -0.0018171 -3.72488e-06)
(0.000394988 -0.00167903 -3.44791e-06)
(0.000361576 -0.00154279 -3.15631e-06)
(0.000326807 -0.00140868 -2.85288e-06)
(0.000291018 -0.00127687 -2.54055e-06)
(0.000254581 -0.00114733 -2.22256e-06)
(0.000217894 -0.00101986 -1.90238e-06)
(0.000181384 -0.000893979 -1.58374e-06)
(0.000145515 -0.000768901 -1.27068e-06)
(0.000110818 -0.000643468 -9.67828e-07)
(7.79373e-05 -0.000515915 -6.80819e-07)
(4.7703e-05 -0.000383581 -4.16866e-07)
(2.16177e-05 -0.000242155 -1.8928e-07)
(2.45696e-06 -8.63675e-05 -2.54838e-08)
(0.000622304 -0.00319089 -5.43216e-06)
(0.000616464 -0.00306354 -5.38113e-06)
(0.00060762 -0.00293218 -5.30388e-06)
(0.000595744 -0.0027974 -5.20017e-06)
(0.00058084 -0.0026598 -5.07005e-06)
(0.000562952 -0.00252003 -4.91389e-06)
(0.000542162 -0.00237875 -4.73241e-06)
(0.000518588 -0.00223662 -4.52664e-06)
(0.000492395 -0.00209434 -4.29802e-06)
(0.000463776 -0.00195252 -4.04824e-06)
(0.00043296 -0.00181174 -3.77931e-06)
(0.000400218 -0.00167254 -3.49356e-06)
(0.000365843 -0.00153534 -3.19356e-06)
(0.000330162 -0.00140047 -2.88217e-06)
(0.000293519 -0.00126807 -2.56238e-06)
(0.00025629 -0.00113813 -2.23749e-06)
(0.000218881 -0.00101044 -1.911e-06)
(0.00018172 -0.000884509 -1.58668e-06)
(0.00014528 -0.000759572 -1.26863e-06)
(0.000110105 -0.000634481 -9.61611e-07)
(7.68616e-05 -0.000507509 -6.71427e-07)
(4.64603e-05 -0.000376102 -4.06027e-07)
(2.04926e-05 -0.000236198 -1.7943e-07)
(2.11707e-06 -8.32978e-05 -2.22323e-08)
(0.000640447 -0.00320505 -5.59053e-06)
(0.000633756 -0.00307521 -5.53207e-06)
(0.00062397 -0.00294142 -5.44659e-06)
(0.000611071 -0.0028043 -5.33396e-06)
(0.000595079 -0.00266446 -5.19433e-06)
(0.000576049 -0.00252258 -5.0282e-06)
(0.000554079 -0.00237932 -4.83642e-06)
(0.000529303 -0.00223537 -4.62015e-06)
(0.0005019 -0.00209143 -4.38099e-06)
(0.00047208 -0.00194813 -4.12072e-06)
(0.000440087 -0.00180604 -3.84151e-06)
(0.000406204 -0.00166572 -3.54581e-06)
(0.000370737 -0.00152759 -3.23628e-06)
(0.000334022 -0.00139197 -2.91586e-06)
(0.000296413 -0.001259 -2.58765e-06)
(0.000258292 -0.00112868 -2.25497e-06)
(0.000220071 -0.00100078 -1.9214e-06)
(0.000182186 -0.000874836 -1.59075e-06)
(0.000145117 -0.000750068 -1.26721e-06)
(0.000109426 -0.000625354 -9.55693e-07)
(7.58112e-05 -0.000499013 -6.62267e-07)
(4.52652e-05 -0.000368609 -3.95588e-07)
(1.94571e-05 -0.00023035 -1.70382e-07)
(1.82572e-06 -8.04144e-05 -1.94237e-08)
(0.000660717 -0.00321926 -5.76746e-06)
(0.000653078 -0.00308683 -5.70072e-06)
(0.000642241 -0.00295053 -5.60606e-06)
(0.000628202 -0.002811 -5.48347e-06)
(0.000610993 -0.00266887 -5.33323e-06)
(0.000590688 -0.00252483 -5.15597e-06)
(0.0005674 -0.00237956 -4.95268e-06)
(0.000541282 -0.00223377 -4.72471e-06)
(0.00051253 -0.00208816 -4.47376e-06)
(0.000481371 -0.00194336 -4.20182e-06)
(0.000448066 -0.00179998 -3.91115e-06)
(0.000412913 -0.00165854 -3.60436e-06)
(0.000376231 -0.00151949 -3.28423e-06)
(0.000338368 -0.00138314 -2.9538e-06)
(0.000299689 -0.00124963 -2.61624e-06)
(0.000260583 -0.00111895 -2.27496e-06)
(0.000221469 -0.000990877 -1.9336e-06)
(0.000182792 -0.000864942 -1.59605e-06)
(0.000145044 -0.000740378 -1.26658e-06)
(0.00010881 -0.000616084 -9.50316e-07)
(7.48167e-05 -0.000490432 -6.53586e-07)
(4.41447e-05 -0.000361111 -3.8581e-07)
(1.85227e-05 -0.000224613 -1.62203e-07)
(1.57879e-06 -7.76989e-05 -1.70392e-08)
(0.000683048 -0.0032335 -5.96238e-06)
(0.000674361 -0.00309839 -5.88649e-06)
(0.000662364 -0.0029595 -5.7817e-06)
(0.000647066 -0.00281749 -5.64812e-06)
(0.000628517 -0.00267301 -5.48617e-06)
(0.000606806 -0.00252675 -5.29664e-06)
(0.000582066 -0.00237944 -5.08068e-06)
(0.000554469 -0.00223178 -4.8398e-06)
(0.000524233 -0.00208448 -4.5759e-06)
(0.000491602 -0.00193819 -4.29111e-06)
(0.000456856 -0.0017935 -3.98787e-06)
(0.000420309 -0.00165097 -3.66892e-06)
(0.000382297 -0.00151101 -3.33718e-06)
(0.00034318 -0.00137395 -2.9958e-06)
(0.000303332 -0.00123992 -2.64805e-06)
(0.000263155 -0.00110891 -2.29742e-06)
(0.000223075 -0.000980699 -1.94763e-06)
(0.000183548 -0.00085481 -1.60265e-06)
(0.000145077 -0.000730491 -1.26688e-06)
(0.000108275 -0.000606665 -9.4565e-07)
(7.39007e-05 -0.000481766 -6.45595e-07)
(4.31157e-05 -0.000353614 -3.76823e-07)
(1.76924e-05 -0.000218982 -1.54943e-07)
(1.37123e-06 -7.51312e-05 -1.50239e-08)
(0.000707377 -0.00324778 -6.17473e-06)
(0.000697544 -0.00310988 -6.08883e-06)
(0.000684277 -0.00296831 -5.97295e-06)
(0.000667602 -0.00282373 -5.82736e-06)
(0.000647587 -0.00267683 -5.65261e-06)
(0.000624341 -0.00252832 -5.44968e-06)
(0.000598017 -0.00237892 -5.2199e-06)
(0.00056881 -0.00222936 -4.96496e-06)
(0.000536958 -0.00208036 -4.68696e-06)
(0.000502727 -0.00193256 -4.3882e-06)
(0.000466416 -0.00178658 -4.07131e-06)
(0.000428358 -0.00164296 -3.73917e-06)
(0.000388906 -0.00150211 -3.39487e-06)
(0.000348434 -0.00136437 -3.04166e-06)
(0.000307329 -0.00122985 -2.68293e-06)
(0.000266001 -0.00109855 -2.32226e-06)
(0.000224888 -0.000970229 -1.96346e-06)
(0.000184458 -0.000844427 -1.6106e-06)
(0.000145228 -0.000720398 -1.2682e-06)
(0.000107837 -0.000597095 -9.41835e-07)
(7.3079e-05 -0.000473017 -6.38424e-07)
(4.21883e-05 -0.00034612 -3.68728e-07)
(1.69641e-05 -0.00021345 -1.4857e-07)
(1.198e-06 -7.2692e-05 -1.33394e-08)
(0.000733651 -0.0032621 -6.40407e-06)
(0.000722568 -0.0031213 -6.30724e-06)
(0.000707919 -0.00297694 -6.1793e-06)
(0.000689749 -0.00282971 -6.02064e-06)
(0.000668143 -0.00268032 -5.83202e-06)
(0.000643233 -0.00252949 -5.61456e-06)
(0.000615196 -0.00237796 -5.36983e-06)
(0.000584248 -0.00222647 -5.0997e-06)
(0.000550653 -0.00207575 -4.80649e-06)
(0.000514698 -0.00192645 -4.49268e-06)
(0.000476703 -0.00177918 -4.16109e-06)
(0.000437024 -0.00163448 -3.81481e-06)
(0.000396029 -0.00149278 -3.45703e-06)
(0.000354107 -0.00135437 -3.09118e-06)
(0.00031166 -0.0012194 -2.72074e-06)
(0.00026911 -0.00108783 -2.3494e-06)
(0.000226905 -0.000959451 -1.98107e-06)
(0.000185525 -0.00083378 -1.61992e-06)
(0.000145504 -0.000710092 -1.27062e-06)
(0.000107507 -0.000587371 -9.3896e-07)
(7.23619e-05 -0.000464187 -6.32167e-07)
(4.1367e-05 -0.00033863 -3.61556e-07)
(1.63327e-05 -0.000208009 -1.43046e-07)
(1.05435e-06 -7.03637e-05 -1.19369e-08)
(0.000761824 -0.00327645 -6.64996e-06)
(0.000749383 -0.00313262 -6.54128e-06)
(0.000733237 -0.00298537 -6.40027e-06)
(0.000713449 -0.0028354 -6.22749e-06)
(0.000690127 -0.00268344 -6.02388e-06)
(0.000663426 -0.00253023 -5.79079e-06)
(0.000633546 -0.00237653 -5.52998e-06)
(0.00060073 -0.00222308 -5.24355e-06)
(0.000565267 -0.00207063 -4.93403e-06)
(0.000527467 -0.00191982 -4.60413e-06)
(0.000487676 -0.00177127 -4.25686e-06)
(0.000446268 -0.00162551 -3.89549e-06)
(0.000403632 -0.00148296 -3.5234e-06)
(0.000360174 -0.00134393 -3.14413e-06)
(0.000316308 -0.00120854 -2.76131e-06)
(0.000272469 -0.00107676 -2.37873e-06)
(0.000229119 -0.000948352 -2.00039e-06)
(0.000186748 -0.000822861 -1.6306e-06)
(0.000145909 -0.000699567 -1.27415e-06)
(0.000107292 -0.000577492 -9.37083e-07)
(7.17549e-05 -0.000455276 -6.26871e-07)
(4.06524e-05 -0.000331143 -3.55316e-07)
(1.57913e-05 -0.000202648 -1.38309e-07)
(9.35949e-07 -6.81301e-05 -1.07783e-08)
(0.000791852 -0.00329082 -6.91205e-06)
(0.000777941 -0.00314384 -6.79053e-06)
(0.000760179 -0.00299358 -6.63541e-06)
(0.000738649 -0.00284077 -6.44743e-06)
(0.000713484 -0.00268616 -6.22772e-06)
(0.000684862 -0.00253051 -5.97787e-06)
(0.000653012 -0.0023746 -5.69986e-06)
(0.000618202 -0.00221916 -5.39603e-06)
(0.000580748 -0.00206495 -5.06914e-06)
(0.000540988 -0.00191263 -4.72213e-06)
(0.00049929 -0.00176281 -4.35823e-06)
(0.000456053 -0.00161601 -3.98089e-06)
(0.000411684 -0.00147265 -3.59367e-06)
(0.000366606 -0.00133303 -3.20028e-06)
(0.000321251 -0.00119726 -2.80446e-06)
(0.000276064 -0.0010653 -2.41011e-06)
(0.00023152 -0.000936919 -2.02136e-06)
(0.000188124 -0.00081166 -1.64261e-06)
(0.000146442 -0.00068882 -1.27882e-06)
(0.000107193 -0.000567457 -9.36225e-07)
(7.12599e-05 -0.000446284 -6.22552e-07)
(4.00421e-05 -0.000323657 -3.49988e-07)
(1.53324e-05 -0.000197358 -1.34293e-07)
(8.38935e-07 -6.59766e-05 -9.82668e-09)
(0.000823699 -0.0033052 -7.18999e-06)
(0.0008082 -0.00315493 -7.05461e-06)
(0.000788697 -0.00300154 -6.8843e-06)
(0.000765298 -0.00284579 -6.68e-06)
(0.000738159 -0.00268845 -6.44307e-06)
(0.000707487 -0.0025303 -6.17533e-06)
(0.000673538 -0.00237211 -5.87899e-06)
(0.000636609 -0.00221466 -5.55667e-06)
(0.000597045 -0.00205869 -5.21137e-06)
(0.000555211 -0.00190485 -4.84626e-06)
(0.000511501 -0.00175377 -4.4648e-06)
(0.000466338 -0.00160595 -4.07065e-06)
(0.000420149 -0.00146181 -3.66756e-06)
(0.000373377 -0.00132164 -3.25937e-06)
(0.000326466 -0.00118553 -2.84998e-06)
(0.000279878 -0.00105344 -2.44341e-06)
(0.000234098 -0.000925141 -2.04387e-06)
(0.000189646 -0.000800171 -1.6559e-06)
(0.000147103 -0.000677847 -1.28459e-06)
(0.00010721 -0.000557264 -9.3638e-07)
(7.08755e-05 -0.000437211 -6.19198e-07)
(3.95316e-05 -0.000316168 -3.4553e-07)
(1.4948e-05 -0.000192128 -1.30931e-07)
(7.59947e-07 -6.38903e-05 -9.04977e-09)
(0.000857331 -0.00331958 -7.48352e-06)
(0.00084012 -0.00316587 -7.33319e-06)
(0.000818748 -0.00300922 -7.14656e-06)
(0.000793347 -0.00285043 -6.92479e-06)
(0.000764102 -0.00269027 -6.66948e-06)
(0.000731247 -0.00252955 -6.38268e-06)
(0.000695069 -0.00236905 -6.0669e-06)
(0.000655897 -0.00220955 -5.725e-06)
(0.000614105 -0.0020518 -5.36025e-06)
(0.000570087 -0.00189645 -4.97609e-06)
(0.000524264 -0.00174412 -4.57618e-06)
(0.000477082 -0.00159531 -4.16443e-06)
(0.000428992 -0.00145043 -3.74474e-06)
(0.000380455 -0.00130974 -3.32115e-06)
(0.00033193 -0.00117334 -2.89767e-06)
(0.000283892 -0.00104118 -2.47845e-06)
(0.00023684 -0.000913011 -2.0678e-06)
(0.000191305 -0.000788389 -1.67039e-06)
(0.000147885 -0.000666644 -1.29142e-06)
(0.000107341 -0.000546912 -9.37521e-07)
(7.05979e-05 -0.000428055 -6.16776e-07)
(3.91152e-05 -0.000308672 -3.41895e-07)
(1.46305e-05 -0.000186948 -1.28152e-07)
(6.9609e-07 -6.18594e-05 -8.42116e-09)
(0.00089272 -0.00333391 -7.79237e-06)
(0.000873664 -0.00317662 -7.62594e-06)
(0.000850287 -0.00301659 -7.4218e-06)
(0.000822748 -0.00285465 -7.18137e-06)
(0.000791259 -0.00269159 -6.90648e-06)
(0.000756088 -0.00252822 -6.59947e-06)
(0.000717552 -0.00236536 -6.26311e-06)
(0.000676012 -0.00220378 -5.90055e-06)
(0.000631876 -0.00204425 -5.51534e-06)
(0.000585565 -0.0018874 -5.11117e-06)
(0.000537531 -0.00173383 -4.69197e-06)
(0.000488244 -0.00158406 -4.26184e-06)
(0.000438176 -0.00143847 -3.82489e-06)
(0.000387808 -0.00129731 -3.38533e-06)
(0.000337615 -0.00116067 -2.94729e-06)
(0.000288086 -0.00102849 -2.51505e-06)
(0.00023973 -0.000900519 -2.09303e-06)
(0.000193092 -0.000776308 -1.68599e-06)
(0.000148781 -0.000655211 -1.29925e-06)
(0.000107578 -0.000536401 -9.39595e-07)
(7.04213e-05 -0.000418814 -6.15236e-07)
(3.87859e-05 -0.000301163 -3.39019e-07)
(1.43724e-05 -0.000181807 -1.25894e-07)
(6.44892e-07 -5.98739e-05 -7.91586e-09)
(0.000929837 -0.00334819 -8.11629e-06)
(0.000908798 -0.00318716 -7.93254e-06)
(0.000883274 -0.00302361 -7.70968e-06)
(0.000853454 -0.0028584 -7.44933e-06)
(0.000819581 -0.00269235 -7.15364e-06)
(0.000781956 -0.00252628 -6.82522e-06)
(0.00074093 -0.00236102 -6.46713e-06)
(0.000696899 -0.00219734 -6.08283e-06)
(0.000650303 -0.002036 -5.67616e-06)
(0.000601595 -0.00187765 -5.25107e-06)
(0.000551254 -0.00172288 -4.81174e-06)
(0.000499778 -0.00157218 -4.36251e-06)
(0.000447661 -0.00142592 -3.90768e-06)
(0.000395403 -0.00128434 -3.45162e-06)
(0.000343493 -0.00114752 -2.9986e-06)
(0.000292436 -0.00101537 -2.55302e-06)
(0.00024275 -0.00088766 -2.11939e-06)
(0.000194991 -0.000763926 -1.70258e-06)
(0.000149782 -0.000643546 -1.30798e-06)
(0.000107914 -0.00052573 -9.42534e-07)
(7.03383e-05 -0.000409487 -6.14513e-07)
(3.85361e-05 -0.000293637 -3.36838e-07)
(1.41667e-05 -0.000176698 -1.24093e-07)
(6.04253e-07 -5.79248e-05 -7.51512e-09)
(0.000968657 -0.00336237 -8.45507e-06)
(0.000945487 -0.00319743 -8.25273e-06)
(0.000917667 -0.00303024 -8.00982e-06)
(0.000885418 -0.00286165 -7.72828e-06)
(0.000849016 -0.00269252 -7.41051e-06)
(0.000808797 -0.00252368 -7.05945e-06)
(0.000765149 -0.00235597 -6.67848e-06)
(0.000718502 -0.00219016 -6.27136e-06)
(0.000669331 -0.00202702 -5.84222e-06)
(0.000618123 -0.00186719 -5.39531e-06)
(0.000565385 -0.00171123 -4.93507e-06)
(0.000511641 -0.00155963 -4.46604e-06)
(0.000457408 -0.00141275 -3.99274e-06)
(0.000403204 -0.00127081 -3.51971e-06)
(0.000349536 -0.00113387 -3.05135e-06)
(0.000296918 -0.00100182 -2.59215e-06)
(0.000245881 -0.000874429 -2.14673e-06)
(0.00019699 -0.000751241 -1.72002e-06)
(0.000150875 -0.000631647 -1.31753e-06)
(0.00010834 -0.000514899 -9.46255e-07)
(7.03404e-05 -0.000400072 -6.14533e-07)
(3.83578e-05 -0.000286088 -3.3528e-07)
(1.40068e-05 -0.000171611 -1.22694e-07)
(5.72393e-07 -5.60043e-05 -7.20045e-09)
(0.00100916 -0.00337642 -8.80849e-06)
(0.000983699 -0.00320741 -8.58618e-06)
(0.000953426 -0.00303643 -8.32188e-06)
(0.000918593 -0.00286435 -8.01778e-06)
(0.000879511 -0.00269205 -7.67664e-06)
(0.000836555 -0.00252037 -7.30169e-06)
(0.00079015 -0.00235017 -6.89667e-06)
(0.000740762 -0.00218222 -6.46563e-06)
(0.000688905 -0.00201728 -6.01305e-06)
(0.000635095 -0.00185597 -5.54343e-06)
(0.000579872 -0.00169886 -5.0615e-06)
(0.000523785 -0.00154641 -4.57203e-06)
(0.000467374 -0.00139896 -4.07972e-06)
(0.000411176 -0.00125671 -3.58928e-06)
(0.000355711 -0.0011197 -3.10525e-06)
(0.000301507 -0.000987826 -2.6322e-06)
(0.000249102 -0.000860823 -2.17484e-06)
(0.00019907 -0.000738251 -1.73818e-06)
(0.000152047 -0.000619516 -1.32776e-06)
(0.000108845 -0.000503907 -9.50662e-07)
(7.04181e-05 -0.000390567 -6.15212e-07)
(3.82427e-05 -0.000278512 -3.34276e-07)
(1.38864e-05 -0.000166538 -1.2164e-07)
(5.47809e-07 -5.41059e-05 -6.95837e-09)
(0.00105131 -0.00339028 -9.17634e-06)
(0.0010234 -0.00321704 -8.93263e-06)
(0.000990509 -0.00304212 -8.64548e-06)
(0.000952931 -0.00286644 -8.31744e-06)
(0.000911015 -0.00269088 -7.95156e-06)
(0.000865174 -0.00251631 -7.55144e-06)
(0.000815875 -0.00234358 -7.12116e-06)
(0.000763622 -0.00217347 -6.66512e-06)
(0.000708965 -0.00200672 -6.18811e-06)
(0.000652456 -0.00184397 -5.69494e-06)
(0.000594662 -0.00168574 -5.19057e-06)
(0.000536161 -0.00153248 -4.68004e-06)
(0.000477515 -0.00138452 -4.16823e-06)
(0.000419279 -0.00124203 -3.66001e-06)
(0.000361986 -0.00110502 -3.16001e-06)
(0.000306174 -0.00097338 -2.67294e-06)
(0.00025239 -0.000846839 -2.20355e-06)
(0.000201213 -0.000724955 -1.75689e-06)
(0.000153283 -0.000607153 -1.33856e-06)
(0.000109416 -0.000492756 -9.5565e-07)
(7.0561e-05 -0.000380972 -6.1646e-07)
(3.81826e-05 -0.000270905 -3.3375e-07)
(1.38e-05 -0.000161473 -1.20884e-07)
(5.29228e-07 -5.22237e-05 -6.77554e-09)
(0.0010951 -0.0034039 -9.55842e-06)
(0.00106456 -0.00322626 -9.29177e-06)
(0.00102887 -0.00304727 -8.98027e-06)
(0.000988381 -0.00286787 -8.6268e-06)
(0.00094347 -0.00268897 -8.23478e-06)
(0.000894595 -0.00251144 -7.80819e-06)
(0.000842263 -0.00233615 -7.35144e-06)
(0.000787019 -0.00216387 -6.8693e-06)
(0.000729452 -0.00199533 -6.3669e-06)
(0.000670146 -0.00183115 -5.84933e-06)
(0.000609701 -0.00167184 -5.32182e-06)
(0.00054872 -0.00151783 -4.78965e-06)
(0.000487787 -0.00136941 -4.25788e-06)
(0.000427473 -0.00122674 -3.73153e-06)
(0.000368326 -0.00108981 -3.21535e-06)
(0.000310891 -0.000958481 -2.71411e-06)
(0.000255722 -0.000832476 -2.23263e-06)
(0.0002034 -0.000711356 -1.77598e-06)
(0.000154568 -0.000594559 -1.34978e-06)
(0.000110041 -0.000481446 -9.61104e-07)
(7.07584e-05 -0.000371284 -6.18185e-07)
(3.81689e-05 -0.000263263 -3.33631e-07)
(1.37421e-05 -0.00015641 -1.20376e-07)
(5.15572e-07 -5.0353e-05 -6.64205e-09)
(0.00114049 -0.00341724 -9.9545e-06)
(0.00110713 -0.00323501 -9.66329e-06)
(0.00106848 -0.0030518 -9.32584e-06)
(0.00102489 -0.00286857 -8.94541e-06)
(0.000976821 -0.00268625 -8.52581e-06)
(0.000924756 -0.00250572 -8.07139e-06)
(0.00086925 -0.00232783 -7.58696e-06)
(0.00081089 -0.00215337 -7.07762e-06)
(0.000750302 -0.00198306 -6.54886e-06)
(0.000688106 -0.00181748 -6.00607e-06)
(0.000624932 -0.00165714 -5.45475e-06)
(0.000561409 -0.00150244 -4.90039e-06)
(0.000498142 -0.00135363 -4.34826e-06)
(0.000435718 -0.00121085 -3.80349e-06)
(0.000374696 -0.00107407 -3.27095e-06)
(0.000315628 -0.000943126 -2.75546e-06)
(0.000259072 -0.000817735 -2.26187e-06)
(0.000205611 -0.000697455 -1.79528e-06)
(0.000155885 -0.000581738 -1.36127e-06)
(0.000110705 -0.00046998 -9.66904e-07)
(7.09993e-05 -0.000361506 -6.20289e-07)
(3.81933e-05 -0.000255583 -3.33844e-07)
(1.37077e-05 -0.000151344 -1.20075e-07)
(5.05924e-07 -4.84897e-05 -6.54834e-09)
(0.00118746 -0.00343021 -1.03644e-05)
(0.00115109 -0.00324323 -1.00469e-05)
(0.00110927 -0.00305566 -9.68179e-06)
(0.00106241 -0.00286849 -9.27281e-06)
(0.00101101 -0.00268266 -8.82413e-06)
(0.000955593 -0.00249907 -8.3405e-06)
(0.000896771 -0.00231858 -7.82712e-06)
(0.000835168 -0.00214194 -7.28949e-06)
(0.000771451 -0.00196987 -6.73342e-06)
(0.000706274 -0.00180294 -6.16462e-06)
(0.000640297 -0.00164162 -5.58885e-06)
(0.000574175 -0.00148628 -5.01181e-06)
(0.000508532 -0.00133715 -4.43894e-06)
(0.000443971 -0.00119434 -3.87551e-06)
(0.000381058 -0.00105779 -3.32647e-06)
(0.000320352 -0.000927315 -2.79669e-06)
(0.000262413 -0.000802617 -2.29104e-06)
(0.000207823 -0.000683254 -1.81459e-06)
(0.000157216 -0.000568693 -1.37289e-06)
(0.000111395 -0.00045836 -9.72925e-07)
(7.12722e-05 -0.000351636 -6.22672e-07)
(3.82478e-05 -0.000247864 -3.3432e-07)
(1.36922e-05 -0.000146271 -1.19939e-07)
(4.99504e-07 -4.66306e-05 -6.48694e-09)
(0.00123598 -0.00344275 -1.07878e-05)
(0.00119639 -0.00325084 -1.04421e-05)
(0.0011512 -0.00305876 -1.00477e-05)
(0.00110088 -0.00286755 -9.60848e-06)
(0.00104596 -0.00267814 -9.12916e-06)
(0.000987039 -0.00249145 -8.61491e-06)
(0.000924755 -0.00230833 -8.07134e-06)
(0.000859784 -0.00212952 -7.50431e-06)
(0.00079283 -0.00195573 -6.92e-06)
(0.000724584 -0.00178749 -6.32442e-06)
(0.000655735 -0.00162525 -5.72358e-06)
(0.000586962 -0.00146934 -5.12341e-06)
(0.000518907 -0.00131998 -4.52949e-06)
(0.000452186 -0.00117721 -3.94722e-06)
(0.000387374 -0.00104097 -3.3816e-06)
(0.000325032 -0.000911047 -2.83753e-06)
(0.000265719 -0.000787125 -2.31989e-06)
(0.000210013 -0.000668758 -1.83371e-06)
(0.000158541 -0.000555428 -1.38446e-06)
(0.000112095 -0.00044659 -9.79038e-07)
(7.15657e-05 -0.000341677 -6.25234e-07)
(3.83241e-05 -0.000240104 -3.34987e-07)
(1.36913e-05 -0.000141187 -1.19931e-07)
(4.95641e-07 -4.47731e-05 -6.45093e-09)
(0.00128602 -0.00345477 -1.12244e-05)
(0.00124298 -0.00325775 -1.08487e-05)
(0.00119421 -0.00306103 -1.04231e-05)
(0.00114023 -0.00286567 -9.95188e-06)
(0.00108162 -0.00267262 -9.44033e-06)
(0.00101902 -0.0024828 -8.89401e-06)
(0.000953131 -0.00229703 -8.31896e-06)
(0.000884665 -0.00211607 -7.72145e-06)
(0.00081437 -0.00194059 -7.10798e-06)
(0.00074297 -0.0017711 -6.48488e-06)
(0.000671184 -0.001608 -5.8584e-06)
(0.000599712 -0.00145161 -5.23468e-06)
(0.000529215 -0.00130208 -4.61945e-06)
(0.000460319 -0.00115946 -4.0182e-06)
(0.000393604 -0.00102361 -3.43597e-06)
(0.000329632 -0.000894326 -2.87769e-06)
(0.000268961 -0.000771262 -2.34819e-06)
(0.000212159 -0.000653973 -1.85244e-06)
(0.000159844 -0.000541949 -1.39583e-06)
(0.00011279 -0.000434674 -9.85111e-07)
(7.18683e-05 -0.000331632 -6.27876e-07)
(3.84146e-05 -0.000232303 -3.35776e-07)
(1.37009e-05 -0.000136092 -1.20015e-07)
(4.93762e-07 -4.29152e-05 -6.43462e-09)
(0.00133755 -0.00346619 -1.1674e-05)
(0.00129083 -0.00326388 -1.12662e-05)
(0.00123826 -0.00306239 -1.08074e-05)
(0.0011804 -0.00286278 -1.03024e-05)
(0.00111791 -0.00266603 -9.757e-06)
(0.00105147 -0.00247304 -9.17714e-06)
(0.000981821 -0.00228464 -8.56934e-06)
(0.000909735 -0.00210155 -7.94023e-06)
(0.000835997 -0.00192443 -7.29672e-06)
(0.000761362 -0.00175374 -6.64538e-06)
(0.000686577 -0.00158986 -5.99275e-06)
(0.000612366 -0.00143306 -5.34512e-06)
(0.000539403 -0.00128347 -4.70836e-06)
(0.000468322 -0.00114107 -4.08805e-06)
(0.000399707 -0.00100571 -3.48924e-06)
(0.00033412 -0.000877153 -2.91685e-06)
(0.000272109 -0.000755036 -2.37567e-06)
(0.000214236 -0.000638905 -1.87057e-06)
(0.000161103 -0.000528262 -1.40682e-06)
(0.000113466 -0.000422618 -9.9101e-07)
(7.21685e-05 -0.000321502 -6.30497e-07)
(3.85114e-05 -0.000224461 -3.36622e-07)
(1.37172e-05 -0.000130984 -1.20157e-07)
(4.93369e-07 -4.10556e-05 -6.43285e-09)
(0.00139052 -0.00347689 -1.21362e-05)
(0.00133987 -0.00326912 -1.16942e-05)
(0.00128326 -0.00306273 -1.12001e-05)
(0.00122132 -0.0028588 -1.06595e-05)
(0.00115475 -0.00265829 -1.00785e-05)
(0.00108429 -0.00246211 -9.4636e-06)
(0.00101074 -0.00227108 -8.82174e-06)
(0.000934914 -0.0020859 -8.15998e-06)
(0.000857632 -0.00190719 -7.48554e-06)
(0.000779686 -0.00173538 -6.80531e-06)
(0.000701849 -0.0015708 -6.12603e-06)
(0.000624863 -0.00141369 -5.45419e-06)
(0.000549415 -0.00126412 -4.79575e-06)
(0.000476147 -0.00112204 -4.15634e-06)
(0.000405643 -0.000987276 -3.54105e-06)
(0.000338459 -0.000859535 -2.95472e-06)
(0.000275136 -0.000738451 -2.40208e-06)
(0.000216221 -0.000623561 -1.8879e-06)
(0.0001623 -0.000514374 -1.41727e-06)
(0.000114107 -0.000410427 -9.96604e-07)
(7.24549e-05 -0.000311293 -6.32997e-07)
(3.86073e-05 -0.000216582 -3.37459e-07)
(1.37365e-05 -0.000125862 -1.20326e-07)
(4.94028e-07 -3.91935e-05 -6.4412e-09)
(0.00149305 -0.00370101 -1.3031e-05)
(0.00144488 -0.00348678 -1.26106e-05)
(0.00139005 -0.00327339 -1.21321e-05)
(0.00132916 -0.00306197 -1.16006e-05)
(0.00126291 -0.00285362 -1.10225e-05)
(0.00119206 -0.00264931 -1.04041e-05)
(0.00111741 -0.00244994 -9.75264e-06)
(0.00103981 -0.00225631 -9.07544e-06)
(0.000960119 -0.00206908 -8.37994e-06)
(0.000879197 -0.00188884 -7.67374e-06)
(0.000797868 -0.00171599 -6.96398e-06)
(0.000716928 -0.00155081 -6.25764e-06)
(0.000637139 -0.00139348 -5.56133e-06)
(0.000559196 -0.00124404 -4.88112e-06)
(0.000483746 -0.00110238 -4.22266e-06)
(0.000411368 -0.000968303 -3.59102e-06)
(0.000342613 -0.000841478 -2.99098e-06)
(0.00027801 -0.000721518 -2.42716e-06)
(0.000218089 -0.000607952 -1.9042e-06)
(0.000163415 -0.000500296 -1.427e-06)
(0.000114697 -0.000398109 -1.00176e-06)
(7.27164e-05 -0.00030101 -6.3528e-07)
(3.86949e-05 -0.000208667 -3.38224e-07)
(1.37557e-05 -0.000120728 -1.20493e-07)
(4.95363e-07 -3.73286e-05 -6.45573e-09)
(0.00159819 -0.00393728 -1.39486e-05)
(0.00155309 -0.00371637 -1.35549e-05)
(0.0015006 -0.00349573 -1.30968e-05)
(0.0014413 -0.00327655 -1.25793e-05)
(0.00137588 -0.00305999 -1.20083e-05)
(0.00130509 -0.00284715 -1.13905e-05)
(0.00122975 -0.00263901 -1.0733e-05)
(0.00115074 -0.00243646 -1.00435e-05)
(0.00106894 -0.00224025 -9.32962e-06)
(0.000985261 -0.00205103 -8.59936e-06)
(0.000900607 -0.00186935 -7.86059e-06)
(0.000815828 -0.00169555 -7.12073e-06)
(0.000731744 -0.00152986 -6.38694e-06)
(0.00064913 -0.00137242 -5.66598e-06)
(0.000568689 -0.00122321 -4.96396e-06)
(0.000491067 -0.00108209 -4.28656e-06)
(0.00041684 -0.000948801 -3.63877e-06)
(0.000346546 -0.000822989 -3.02531e-06)
(0.000280701 -0.000704245 -2.45065e-06)
(0.000219815 -0.000592087 -1.91926e-06)
(0.000164428 -0.000486036 -1.43584e-06)
(0.000115222 -0.000385674 -1.00634e-06)
(7.2942e-05 -0.00029066 -6.37248e-07)
(3.87674e-05 -0.00020072 -3.38856e-07)
(1.37714e-05 -0.000115583 -1.2063e-07)
(4.97039e-07 -3.5461e-05 -6.47296e-09)
(0.00166427 -0.00395904 -1.45251e-05)
(0.00161472 -0.00373087 -1.40927e-05)
(0.0015576 -0.00350361 -1.35942e-05)
(0.00149355 -0.00327849 -1.30352e-05)
(0.00142333 -0.00305668 -1.24224e-05)
(0.00134776 -0.0028393 -1.17629e-05)
(0.00126773 -0.00262732 -1.10645e-05)
(0.00118417 -0.00242159 -1.03352e-05)
(0.00109803 -0.00222285 -9.58347e-06)
(0.00101025 -0.00203172 -8.81742e-06)
(0.000921774 -0.00184868 -8.04532e-06)
(0.000833486 -0.00167402 -7.27484e-06)
(0.000746222 -0.00150794 -6.5133e-06)
(0.000660769 -0.00135051 -5.76756e-06)
(0.000577834 -0.00120164 -5.04378e-06)
(0.00049806 -0.00106117 -4.34759e-06)
(0.000422015 -0.000928776 -3.68394e-06)
(0.000350222 -0.00080408 -3.0574e-06)
(0.000283179 -0.000686645 -2.47228e-06)
(0.000221374 -0.000575978 -1.93286e-06)
(0.00016532 -0.000471606 -1.44362e-06)
(0.000115667 -0.00037313 -1.01021e-06)
(7.3121e-05 -0.000280249 -6.38809e-07)
(3.8818e-05 -0.000192747 -3.39298e-07)
(1.37806e-05 -0.00011043 -1.20711e-07)