/*--------------------------------*- C++ -*----------------------------------*\
| =========                 |                                                 |
| \\      /  F ield         | OpenFOAM: The Open Source CFD Toolbox           |
|  \\    /   O peration     | Version:  v2012                                 |
|   \\  /    A nd           | Website:  www.openfoam.com                      |
|    \\/     M anipulation  |                                                 |
\*---------------------------------------------------------------------------*/
FoamFile
{
    version     2.0;
    format      ascii;
    class       surfaceScalarField;
    location    "0.6";
    object      phi;
}
// * * * * * * * * * * * * * * * * * * * * * * * * * * * * * * * * * * * * * //

dimensions      [0 3 -1 0 0 0 0];
oriented        oriented;


internalField   nonuniform List<scalar> 
8048
(
7.59405e-14
-9.07347e-13
-2.37928e-17
6.80534e-13
-7.69337e-12
-1.20743e-16
2.30914e-12
-2.15362e-11
-9.26067e-17
5.41602e-12
-4.22158e-11
1.30916e-15
1.04087e-11
-6.96993e-11
3.1776e-16
1.76871e-11
-1.04054e-10
-9.86921e-16
2.76394e-11
-1.45362e-10
-2.09239e-15
-1.93767e-10
-4.32338e-15
8.56442e-14
-9.93238e-13
-3.53472e-17
7.64325e-13
-8.37253e-12
-7.6794e-17
2.585e-12
-2.33565e-11
7.79273e-17
6.03278e-12
-4.56691e-11
-7.23671e-16
1.15832e-11
-7.52396e-11
1.22474e-15
1.9652e-11
-1.12114e-10
1.16868e-15
3.06557e-11
-1.56357e-10
9.21021e-16
4.49697e-11
-2.08073e-10
5.94516e-16
6.29644e-11
-2.67248e-10
-2.39996e-16
8.49203e-11
-3.33938e-10
-1.48078e-15
1.11114e-10
-4.07953e-10
-2.54583e-15
1.41661e-10
-4.89109e-10
-1.35136e-14
1.76779e-10
-5.77134e-10
-9.71491e-15
2.16405e-10
-6.71471e-10
-1.59917e-14
-7.71615e-10
-3.58117e-14
9.7837e-14
-1.09128e-12
-2.5355e-17
8.64916e-13
-9.13973e-12
-3.83998e-17
2.90955e-12
-2.54011e-11
5.56866e-18
6.76556e-12
-4.95339e-11
-1.08166e-15
1.29524e-11
-8.14238e-11
2.64532e-16
2.19248e-11
-1.21086e-10
-2.84402e-17
3.41296e-11
-1.68559e-10
3.24329e-16
4.99701e-11
-2.23907e-10
7.00992e-16
6.98122e-11
-2.87079e-10
1.61474e-15
9.3962e-11
-3.58076e-10
9.37055e-16
1.22708e-10
-4.36647e-10
6.01508e-15
1.5614e-10
-5.22539e-10
-1.37998e-16
1.94453e-10
-6.15396e-10
5.32906e-15
2.37546e-10
-7.14546e-10
1.2538e-15
-8.19379e-10
-2.05034e-14
1.11169e-13
-1.20266e-12
-2.98442e-17
9.75712e-13
-1.00045e-11
-5.1845e-17
3.26683e-12
-2.76959e-11
-4.73667e-16
7.58389e-12
-5.38534e-11
-3.23432e-16
1.44842e-11
-8.83163e-11
9.54847e-16
2.4462e-11
-1.31064e-10
1.70924e-17
3.80095e-11
-1.82097e-10
1.12737e-15
5.55487e-11
-2.41438e-10
1.02519e-15
7.746e-11
-3.08987e-10
2.01635e-16
1.04072e-10
-3.84678e-10
1.18055e-15
1.35654e-10
-4.68185e-10
5.45827e-15
1.72286e-10
-5.59171e-10
-1.42419e-16
2.14149e-10
-6.57181e-10
8.67839e-15
2.61063e-10
-7.61425e-10
3.33182e-15
-8.71169e-10
-1.77473e-14
1.2805e-13
-1.33093e-12
-2.80754e-17
1.1117e-12
-1.09881e-11
-2.06784e-17
3.70158e-12
-3.02887e-11
-3.76248e-16
8.55851e-12
-5.87135e-11
-3.8852e-16
1.62875e-11
-9.60449e-11
5.51034e-17
2.74306e-11
-1.42214e-10
-9.1112e-16
4.25196e-11
-1.97177e-10
9.43969e-16
6.19969e-11
-2.60907e-10
8.87084e-16
8.62524e-11
-3.33245e-10
-4.05805e-16
1.15628e-10
-4.1405e-10
1.11452e-16
1.50364e-10
-5.02907e-10
1.77003e-15
1.90544e-10
-5.99364e-10
-1.75339e-15
2.36306e-10
-7.02868e-10
8.33571e-15
2.8741e-10
-8.12492e-10
3.82165e-15
-9.27366e-10
-1.77976e-14
1.46522e-13
-1.47746e-12
-8.7204e-18
1.26032e-12
-1.21024e-11
-7.36194e-17
4.18155e-12
-3.32123e-11
-2.97421e-16
9.63668e-12
-6.41744e-11
-7.3932e-16
1.82956e-11
-1.047e-10
4.49481e-16
3.07463e-11
-1.54668e-10
-3.78803e-16
4.75594e-11
-2.13978e-10
1.41445e-15
6.92026e-11
-2.82544e-10
7.52761e-16
9.60912e-11
-3.60129e-10
4.92948e-16
1.28567e-10
-4.46509e-10
1.80568e-15
1.66851e-10
-5.4116e-10
4.09345e-15
2.10976e-10
-6.43521e-10
-4.46904e-15
2.61061e-10
-7.52892e-10
6.69168e-15
3.16789e-10
-8.68197e-10
1.84246e-15
-9.88412e-10
-1.9789e-14
1.70499e-13
-1.64799e-12
-8.31207e-18
1.44786e-12
-1.33801e-11
-5.98265e-17
4.77331e-12
-3.65381e-11
-7.17915e-17
1.09486e-11
-7.03553e-11
-6.8823e-16
2.07041e-11
-1.14457e-10
-1.81926e-16
3.46824e-11
-1.68655e-10
-1.01809e-15
5.34921e-11
-2.32778e-10
9.71074e-16
7.76222e-11
-3.06673e-10
6.77119e-17
1.07508e-10
-3.90006e-10
8.8585e-16
1.43477e-10
-4.82462e-10
1.65578e-15
1.85721e-10
-5.83386e-10
2.51127e-15
2.34242e-10
-6.92075e-10
-4.5661e-15
2.89091e-10
-8.07686e-10
5.76423e-15
3.49877e-10
-9.2896e-10
1.93301e-15
-1.0547e-09
-1.88989e-14
1.95951e-13
-1.84403e-12
-1.7985e-17
1.65072e-12
-1.48352e-11
-6.12878e-17
5.41687e-12
-4.03076e-11
-4.24933e-16
1.23906e-11
-7.73324e-11
-4.42001e-16
2.33693e-11
-1.25433e-10
2.32828e-16
3.90556e-11
-1.84345e-10
-5.25443e-16
6.00998e-11
-2.53813e-10
9.43067e-16
8.70225e-11
-3.33597e-10
-2.09512e-16
1.20267e-10
-4.23248e-10
2.64188e-17
1.60157e-10
-5.2234e-10
9.38595e-16
2.06849e-10
-6.30065e-10
2.03281e-15
2.60288e-10
-7.45556e-10
-5.83535e-15
3.20446e-10
-8.67793e-10
5.41342e-15
3.86838e-10
-9.95324e-10
2.26214e-15
-1.12676e-09
-1.74331e-14
2.30871e-13
-2.07496e-12
-1.71671e-17
1.91473e-12
-1.65191e-11
-3.61507e-17
6.23669e-12
-4.46291e-11
3.81759e-17
1.41874e-11
-8.52849e-11
-2.18943e-16
2.6636e-11
-1.37885e-10
-4.49702e-16
4.43489e-11
-2.02069e-10
-1.38339e-15
6.80092e-11
-2.77477e-10
-7.59201e-16
9.81757e-11
-3.63766e-10
-3.40622e-16
1.35268e-10
-4.60355e-10
-1.8341e-15
1.79598e-10
-5.66673e-10
-5.18836e-16
2.31297e-10
-6.81732e-10
4.38184e-15
2.90202e-10
-8.04509e-10
-6.65795e-15
3.56204e-10
-9.33753e-10
4.24728e-15
4.28708e-10
-1.06779e-09
3.42803e-15
-1.20503e-09
-1.61329e-14
2.67425e-13
-2.34209e-12
3.21481e-17
2.19502e-12
-1.84469e-11
-3.69862e-17
7.11207e-12
-4.95525e-11
-8.18618e-16
1.61337e-11
-9.43044e-11
2.25828e-16
3.02023e-11
-1.51959e-10
-6.97697e-16
5.01706e-11
-2.22035e-10
-3.1573e-17
7.67501e-11
-3.04056e-10
3.8131e-16
1.10548e-10
-3.97546e-10
1.76077e-15
1.51977e-10
-5.01767e-10
1.38892e-15
2.01313e-10
-6.15986e-10
2.21831e-15
2.58607e-10
-7.39012e-10
7.9928e-16
3.23673e-10
-8.69577e-10
-9.18149e-16
3.96224e-10
-1.00624e-09
7.46501e-15
4.75498e-10
-1.14704e-09
1.23747e-15
-1.29016e-09
-1.69753e-14
3.19593e-13
-2.66136e-12
3.27574e-17
2.57482e-12
-2.0702e-11
-2.01981e-17
8.26965e-12
-5.52485e-11
-1.89799e-16
1.86368e-11
-1.04667e-10
5.55714e-16
3.47064e-11
-1.68038e-10
-1.23282e-15
5.74008e-11
-2.44733e-10
-7.09204e-16
8.74594e-11
-3.34128e-10
-1.49689e-15
1.25518e-10
-4.35591e-10
1.37175e-15
1.71945e-10
-5.48197e-10
-1.00533e-15
2.26977e-10
-6.71014e-10
2.86283e-16
2.90604e-10
-8.02612e-10
2.45112e-15
3.62487e-10
-9.41474e-10
-2.22227e-15
4.42214e-10
-1.0859e-09
6.47767e-15
5.28844e-10
-1.23365e-09
1.25786e-15
-1.38263e-09
-1.64563e-14
3.72053e-13
-3.0332e-12
1.8176e-17
2.96702e-12
-2.3297e-11
-1.81721e-17
9.48039e-12
-6.17665e-11
-6.30484e-16
2.12925e-11
-1.16474e-10
5.60343e-16
3.95394e-11
-1.86292e-10
-8.56692e-16
6.52259e-11
-2.70418e-10
-2.20528e-16
9.91392e-11
-3.68058e-10
-1.83823e-15
1.41945e-10
-4.7838e-10
1.40673e-15
1.93985e-10
-6.00245e-10
-1.41622e-15
2.55444e-10
-7.32472e-10
-4.73926e-16
3.26206e-10
-8.73351e-10
2.09021e-15
4.05784e-10
-1.02107e-09
-3.44421e-15
4.93575e-10
-1.17364e-09
5.57734e-15
5.88414e-10
-1.32847e-09
2.48503e-16
-1.48321e-09
-1.74073e-14
4.5225e-13
-3.48528e-12
1.69857e-17
3.52681e-12
-2.63706e-11
7.61992e-17
1.11485e-11
-6.93868e-11
7.04206e-17
2.48458e-11
-1.3016e-10
1.35353e-15
4.58554e-11
-2.07315e-10
-1.78892e-15
7.52588e-11
-2.99829e-10
-1.354e-15
1.1387e-10
-4.06692e-10
-2.52496e-15
1.62321e-10
-5.26833e-10
-8.74186e-16
2.20928e-10
-6.58858e-10
-1.61016e-15
2.89753e-10
-8.01307e-10
-1.76211e-15
3.68544e-10
-9.52135e-10
-1.80776e-16
4.56644e-10
-1.1092e-09
-3.81448e-15
5.53221e-10
-1.27017e-09
4.71949e-15
6.56865e-10
-1.4321e-09
-9.5375e-16
-1.59233e-09
-1.79254e-14
5.31279e-13
-4.01531e-12
1.25401e-16
4.08329e-12
-2.99242e-11
-1.71834e-16
1.28407e-11
-7.81457e-11
-2.04615e-16
2.84969e-11
-1.45823e-10
-1.06483e-15
5.24483e-11
-2.31278e-10
-1.47044e-15
8.58682e-11
-3.33238e-10
1.187e-15
1.29625e-10
-4.50438e-10
5.96019e-16
1.84319e-10
-5.81533e-10
-1.10611e-15
2.50261e-10
-7.24802e-10
-8.9616e-16
3.27398e-10
-8.78437e-10
-1.09608e-16
4.15288e-10
-1.04001e-09
8.24553e-16
5.13046e-10
-1.207e-09
-7.13168e-15
6.1956e-10
-1.37666e-09
8.17841e-16
7.33093e-10
-1.54564e-09
-2.94593e-15
-1.71094e-09
-2.20482e-14
6.58144e-13
-4.67226e-12
1.26654e-16
4.92604e-12
-3.41925e-11
-5.42366e-17
1.52925e-11
-8.85052e-11
7.89399e-16
3.3634e-11
-1.64167e-10
-4.32052e-16
6.14629e-11
-2.59133e-10
-3.20438e-15
1.00026e-10
-3.718e-10
-2.19062e-16
1.50193e-10
-5.00599e-10
-1.3414e-16
2.12483e-10
-6.43841e-10
-2.55033e-15
2.87117e-10
-7.9943e-10
-4.93028e-16
3.73841e-10
-9.65161e-10
-1.31979e-15
4.71969e-10
-1.13816e-09
-3.68646e-15
5.80372e-10
-1.31543e-09
-5.61563e-15
6.97603e-10
-1.49384e-09
5.34124e-15
8.21559e-10
-1.66957e-09
1.74523e-15
-1.83925e-09
-1.69746e-14
7.76782e-13
-5.44798e-12
1.1072e-16
5.7296e-12
-3.91459e-11
-5.98121e-17
1.7672e-11
-1.00451e-10
-4.98348e-16
3.87246e-11
-1.85221e-10
-3.32715e-16
7.05689e-11
-2.90983e-10
-1.02531e-15
1.14535e-10
-4.15766e-10
-5.28243e-16
1.71571e-10
-5.57626e-10
2.92693e-16
2.42157e-10
-7.14459e-10
-4.63292e-15
3.26429e-10
-8.83712e-10
-2.62583e-15
4.2394e-10
-1.06268e-09
-1.88556e-15
5.33726e-10
-1.24797e-09
-2.46487e-15
6.54265e-10
-1.43604e-09
-1.01032e-14
7.8373e-10
-1.62323e-09
6.70373e-15
9.19498e-10
-1.80527e-09
5.11507e-15
-1.97844e-09
-2.34268e-14
9.8269e-13
-6.42952e-12
1.18577e-16
7.02366e-12
-4.5187e-11
-3.08908e-17
2.13409e-11
-1.14762e-10
6.59985e-16
4.62844e-11
-2.1016e-10
3.47267e-16
8.36664e-11
-3.28376e-10
-1.67409e-15
1.34862e-10
-4.66963e-10
-7.06352e-16
2.00753e-10
-6.23524e-10
-1.91707e-15
2.81698e-10
-7.95435e-10
-4.78606e-15
3.77592e-10
-9.79615e-10
-2.9606e-15
4.87649e-10
-1.17278e-09
-6.48612e-15
6.10585e-10
-1.37091e-09
-1.90513e-15
7.44377e-10
-1.56983e-09
-3.06269e-15
8.86727e-10
-1.76544e-09
1.52099e-14
1.03454e-09
-1.9529e-09
1.73858e-14
-2.1282e-09
-5.91311e-15
1.16709e-12
-7.59548e-12
1.28342e-16
8.19195e-12
-5.2211e-11
6.19787e-17
2.47166e-11
-1.31292e-10
-8.63675e-16
5.34027e-11
-2.38839e-10
5.53589e-16
9.62549e-11
-3.71244e-10
-2.35332e-15
1.54797e-10
-5.25494e-10
3.0789e-16
2.29929e-10
-6.98664e-10
-2.09766e-15
3.21971e-10
-8.87492e-10
-2.98312e-15
4.30613e-10
-1.08825e-09
-1.46757e-15
5.54762e-10
-1.29692e-09
-4.41208e-16
6.92735e-10
-1.50878e-09
1.10843e-14
8.41688e-10
-1.71896e-09
-2.2967e-14
9.98927e-10
-1.92266e-09
-1.33275e-15
1.16052e-09
-2.11451e-09
-3.31852e-15
-2.29015e-09
-3.2159e-14
1.50687e-12
-9.10106e-12
1.48394e-16
1.0211e-11
-6.09141e-11
6.95085e-17
3.02953e-11
-1.5137e-10
6.04589e-16
6.47069e-11
-2.73237e-10
1.2172e-15
1.15592e-10
-4.22147e-10
-2.84948e-15
1.84462e-10
-5.94356e-10
-1.99872e-16
2.72048e-10
-7.86279e-10
-5.00618e-15
3.78392e-10
-9.93856e-10
-4.17615e-15
5.02748e-10
-1.21261e-09
-2.3797e-15
6.43453e-10
-1.43765e-09
-5.51092e-15
7.98257e-10
-1.66348e-09
1.15225e-14
9.63568e-10
-1.88437e-09
-1.55164e-14
1.13602e-09
-2.09501e-09
1.11052e-14
1.31097e-09
-2.28938e-09
7.69918e-15
-2.46289e-09
-1.96239e-14
1.79231e-12
-1.08925e-11
7.20943e-17
1.1899e-11
-7.102e-11
1.88855e-17
3.50555e-11
-1.74535e-10
-1.33677e-15
7.46249e-11
-3.12789e-10
1.48505e-15
1.33028e-10
-4.80538e-10
6.43453e-16
2.11898e-10
-6.73213e-10
1.89167e-16
3.12024e-10
-8.86434e-10
-5.42426e-15
4.33282e-10
-1.11515e-09
-5.75918e-15
5.74606e-10
-1.35395e-09
-4.87677e-15
7.33764e-10
-1.59685e-09
-5.57731e-15
9.07785e-10
-1.83737e-09
1.39609e-14
1.09208e-09
-2.06884e-09
-2.22148e-14
1.28241e-09
-2.28522e-09
1.03342e-14
1.47302e-09
-2.47991e-09
7.17389e-15
-2.64821e-09
-3.16593e-14
2.34882e-12
-1.32404e-11
1.61992e-16
1.5061e-11
-8.37276e-11
4.81239e-16
4.36117e-11
-2.03076e-10
5.19365e-16
9.17418e-11
-3.60883e-10
3.47996e-15
1.61986e-10
-5.50797e-10
-2.72623e-15
2.55888e-10
-7.67117e-10
-2.17025e-15
3.73873e-10
-1.00446e-09
-6.97189e-15
5.15196e-10
-1.25652e-09
-8.58695e-15
6.78029e-10
-1.51681e-09
-6.16849e-15
8.59169e-10
-1.77805e-09
-9.22909e-15
1.05463e-09
-2.03273e-09
1.10155e-14
1.25875e-09
-2.27311e-09
-2.17373e-14
1.4663e-09
-2.49261e-09
1.6196e-14
1.6706e-09
-2.68408e-09
1.21512e-14
-2.84294e-09
-2.85756e-14
2.76933e-12
-1.60046e-11
3.89932e-16
1.74179e-11
-9.83784e-11
-8.16848e-16
5.02082e-11
-2.35862e-10
6.53128e-16
1.05375e-10
-4.16084e-10
-4.85476e-15
1.85959e-10
-6.31367e-10
-9.63598e-16
2.93592e-10
-8.74742e-10
-3.58906e-16
4.28729e-10
-1.1396e-09
-4.25241e-15
5.90274e-10
-1.4181e-09
-5.2605e-15
7.75822e-10
-1.70234e-09
-2.20226e-15
9.8118e-10
-1.98343e-09
-4.60234e-15
1.20115e-09
-2.25259e-09
1.20403e-14
1.4286e-09
-2.50074e-09
-2.20216e-14
1.65687e-09
-2.72073e-09
1.57597e-14
1.8778e-09
-2.90489e-09
1.30441e-14
-3.04912e-09
-2.7342e-14
3.63299e-12
-1.96324e-11
5.25109e-16
2.22868e-11
-1.1703e-10
-2.91784e-16
6.33307e-11
-2.76878e-10
3.51368e-15
1.31525e-10
-4.84297e-10
-3.17411e-15
2.29976e-10
-7.29845e-10
-6.33305e-15
3.59982e-10
-1.00478e-09
-5.97697e-15
5.21231e-10
-1.30089e-09
-7.73158e-15
7.11439e-10
-1.60837e-09
-1.04544e-14
9.26788e-10
-1.91771e-09
-5.2316e-15
1.16139e-09
-2.2181e-09
-9.61681e-15
1.40841e-09
-2.4995e-09
1.32189e-14
1.65899e-09
-2.75152e-09
-2.71143e-14
1.90513e-09
-2.96675e-09
1.32809e-14
2.13753e-09
-3.13722e-09
7.42213e-15
-3.25989e-09
-3.269e-14
4.14625e-12
-2.3775e-11
2.31621e-16
2.53564e-11
-1.38239e-10
-3.21459e-16
7.21304e-11
-3.2366e-10
-2.08839e-15
1.50112e-10
-5.62283e-10
-3.21301e-15
2.6288e-10
-8.42594e-10
1.40311e-15
4.11899e-10
-1.15381e-09
-2.68246e-15
5.96772e-10
-1.48578e-09
-6.67325e-15
8.14488e-10
-1.82619e-09
-1.23916e-14
1.06025e-09
-2.16347e-09
-3.64393e-15
1.32639e-09
-2.48435e-09
-1.14654e-14
1.60418e-09
-2.77719e-09
1.25149e-14
1.88247e-09
-3.02993e-09
-1.4159e-14
2.15108e-09
-3.23521e-09
1.95012e-14
2.39883e-09
-3.3848e-09
2.29316e-14
-3.47762e-09
-9.20035e-15
5.39699e-12
-2.91672e-11
3.91769e-16
3.27738e-11
-1.65613e-10
-3.80218e-16
9.24233e-11
-3.8329e-10
1.15776e-15
1.90709e-10
-6.60565e-10
-2.37349e-15
3.3107e-10
-9.82968e-10
-2.67753e-15
5.14164e-10
-1.33693e-09
-5.83087e-15
7.37953e-10
-1.70961e-09
-9.10489e-15
9.97288e-10
-2.08563e-09
-1.25442e-14
1.28472e-09
-2.45088e-09
9.32623e-16
1.58965e-09
-2.78933e-09
-2.34413e-15
1.90059e-09
-3.08794e-09
2.65001e-14
2.20377e-09
-3.33315e-09
-5.23708e-16
2.48726e-09
-3.5186e-09
1.85692e-14
2.73872e-09
-3.63622e-09
8.97068e-15
-3.6883e-09
-2.23457e-14
5.97133e-12
-3.51374e-11
-1.79449e-16
3.67209e-11
-1.96354e-10
1.70555e-16
1.04283e-10
-4.5086e-10
-2.82314e-15
2.16205e-10
-7.72476e-10
-1.46946e-15
3.7655e-10
-1.14329e-09
2.52495e-16
5.86083e-10
-1.54646e-09
-5.93731e-16
8.42375e-10
-1.96594e-09
-6.68976e-15
1.13901e-09
-2.38235e-09
-8.10866e-15
1.46669e-09
-2.77853e-09
6.64374e-15
1.81179e-09
-3.13456e-09
-1.06965e-14
2.15977e-09
-3.43592e-09
8.66051e-15
2.49332e-09
-3.6667e-09
3.46296e-15
2.79762e-09
-3.82296e-09
4.67581e-15
3.05805e-09
7.63262e-17
-4.70414e-14
8.03166e-12
-4.31648e-11
1.71681e-16
4.8752e-11
-2.37067e-10
-3.06009e-16
1.36886e-10
-5.38964e-10
1.91139e-15
2.81048e-10
-9.16603e-10
1.73473e-15
4.8443e-10
-1.3467e-09
-3.10218e-15
7.46538e-10
-1.80858e-09
2.18109e-16
1.06141e-09
-2.28087e-09
-4.73013e-15
1.41916e-09
-2.74018e-09
-1.11917e-15
1.80542e-09
-3.1647e-09
1.75366e-14
2.20143e-09
-3.53063e-09
9.11888e-15
2.58792e-09
-3.82236e-09
1.70515e-14
2.94316e-09
-4.02205e-09
6.00944e-15
-4.13101e-09
-1.93234e-14
8.90626e-12
-5.20667e-11
9.54049e-17
5.44364e-11
-2.82588e-10
2.50691e-16
1.53653e-10
-6.38176e-10
-1.43237e-15
3.16818e-10
-1.07974e-09
2.70586e-15
5.4781e-10
-1.57769e-09
3.61797e-15
8.46032e-10
-2.1068e-09
5.83163e-15
1.20481e-09
-2.6397e-09
6.04839e-15
1.61164e-09
-3.14713e-09
-3.54303e-15
2.04945e-09
-3.60246e-09
3.04317e-14
2.49396e-09
-3.97515e-09
1.86868e-14
2.92147e-09
-4.24995e-09
2.85724e-14
3.30391e-09
-4.40446e-09
2.42634e-14
-4.45009e-09
1.75888e-14
1.22683e-11
-6.4337e-11
-8.02868e-16
7.40464e-11
-3.44364e-10
-7.69326e-16
2.06204e-10
-7.70237e-10
1.16535e-14
4.20414e-10
-1.2939e-09
1.00564e-14
7.17835e-10
-1.87521e-09
-5.03266e-15
1.09695e-09
-2.48606e-09
4.90978e-15
1.54377e-09
-3.08662e-09
4.13343e-15
2.04147e-09
-3.64505e-09
1.782e-14
2.56297e-09
-4.12403e-09
1.78055e-14
3.07418e-09
-4.48651e-09
4.45034e-14
3.54281e-09
-4.71874e-09
1.18116e-14
3.93194e-09
-4.79365e-09
5.8413e-14
-4.74366e-09
-2.02295e-15
1.38459e-11
-7.81432e-11
4.59726e-15
8.28685e-11
-4.13355e-10
-1.01947e-16
2.30009e-10
-9.17411e-10
-1.19414e-14
4.69544e-10
-1.53317e-09
4.63861e-14
8.03225e-10
-2.20894e-09
1.49863e-14
1.22873e-09
-2.91154e-09
2.74165e-14
1.73141e-09
-3.58933e-09
5.33753e-14
2.28899e-09
-4.20259e-09
4.52939e-14
2.8731e-09
-4.70787e-09
1.85085e-13
3.43553e-09
-5.04903e-09
3.60675e-14
3.94166e-09
-5.22516e-09
6.89389e-14
4.3388e-09
-5.191e-09
1.68175e-14
-5.02088e-09
1.83627e-14
1.9507e-11
-9.76829e-11
-2.90658e-15
1.14151e-10
-5.07598e-10
-1.65829e-13
3.11866e-10
-1.11495e-09
1.01119e-14
6.26899e-10
-1.84788e-09
9.31805e-14
1.0565e-09
-2.63866e-09
2.63268e-14
1.60033e-09
-3.45565e-09
5.0399e-14
2.23231e-09
-4.22156e-09
6.57213e-14
2.92774e-09
-4.89787e-09
1.37576e-13
3.64007e-09
-5.4196e-09
4.8602e-13
4.29625e-09
-5.70572e-09
9.58739e-14
4.84206e-09
-5.77104e-09
5.46078e-14
5.2008e-09
-5.54972e-09
1.54393e-13
-5.20272e-09
-1.75434e-14
2.18035e-11
-1.1955e-10
2.88878e-14
1.2685e-10
-6.11034e-10
-7.25598e-13
3.42127e-10
-1.3299e-09
-6.06498e-14
6.821e-10
-2.18774e-09
9.6353e-14
1.15242e-09
-3.10955e-09
8.83194e-14
1.74793e-09
-4.05103e-09
2.37777e-13
2.44114e-09
-4.91513e-09
9.63483e-14
3.19398e-09
-5.65028e-09
2.34033e-13
3.97883e-09
-6.19782e-09
3.69821e-12
4.66725e-09
-6.39487e-09
8.61185e-14
5.22735e-09
-6.33096e-09
2.74249e-13
5.53167e-09
-5.85372e-09
1.08597e-13
-5.30319e-09
4.71272e-14
3.01018e-11
-1.48678e-10
3.09544e-13
1.68557e-10
-7.49185e-10
-2.35979e-14
4.45559e-10
-1.60704e-09
2.47728e-13
8.81536e-10
-2.62346e-09
2.22203e-13
1.44925e-09
-3.67415e-09
-1.54236e-12
2.19034e-09
-4.7768e-09
2.56465e-12
3.05565e-09
-5.77254e-09
-4.36892e-12
4.0317e-09
-6.62651e-09
1.69047e-13
5.05289e-09
-7.19048e-09
1.3303e-11
5.92807e-09
-7.27032e-09
1.21541e-13
6.52589e-09
-6.92698e-09
5.22684e-13
6.65539e-09
-5.98223e-09
3.04555e-13
-5.14209e-09
-1.07018e-13
4.12165e-11
-1.90051e-10
5.11926e-14
1.93927e-10
-9.01121e-10
-1.10244e-13
4.66826e-10
-1.87833e-09
-3.01324e-13
8.84647e-10
-3.03946e-09
-5.25361e-13
1.47448e-09
-4.24617e-09
-8.66079e-12
2.28664e-09
-5.50864e-09
4.87555e-12
3.19282e-09
-6.6165e-09
-3.13724e-11
4.15384e-09
-7.57794e-09
5.51326e-12
5.24551e-09
-8.07173e-09
8.80703e-11
6.03082e-09
-8.05579e-09
8.55505e-13
6.55623e-09
-7.4515e-09
1.60898e-13
6.46836e-09
-5.88939e-09
1.40998e-13
-4.77984e-09
1.61271e-13
1.96993e-11
-2.0992e-10
2.03805e-13
1.48989e-10
-1.03061e-09
6.91378e-13
4.78711e-10
-2.20713e-09
6.58255e-13
1.01921e-09
-3.58005e-09
7.49182e-13
1.54829e-09
-4.77569e-09
4.97743e-14
2.27841e-09
-6.22388e-09
-6.74489e-12
3.38081e-09
-7.71809e-09
-2.12736e-13
4.82888e-09
-9.02666e-09
1.58585e-12
6.48304e-09
-9.67433e-09
2.39401e-11
7.95748e-09
-9.52897e-09
1.11723e-12
8.54794e-09
-8.04372e-09
-1.1917e-13
7.7514e-09
-5.08487e-09
-3.23374e-13
-3.7393e-09
2.706e-14
4.31885e-11
-1.94169e-10
-1.26066e-12
2.03795e-10
-1.04198e-09
1.45638e-12
3.62829e-10
-2.36362e-09
2.61505e-13
7.31196e-10
-3.95175e-09
1.50676e-12
1.37854e-09
-5.4195e-09
-1.34568e-12
2.29277e-09
-7.13837e-09
4.42231e-13
3.37753e-09
-8.7979e-09
-3.03181e-12
4.53521e-09
-1.01761e-08
-4.88272e-12
5.54769e-09
-1.06968e-08
5.75032e-12
6.14879e-09
-1.01305e-08
4.2609e-13
6.51165e-09
-8.05366e-09
-3.89167e-11
5.41754e-09
-3.98788e-09
-6.08071e-13
-2.59545e-09
-7.10333e-14
2.86641e-11
-1.5899e-10
9.88259e-14
1.80059e-10
-8.43146e-10
-2.40927e-13
6.46175e-10
-1.91193e-09
5.01262e-13
1.3348e-09
-3.23239e-09
-3.78013e-13
6.66617e-10
-4.75721e-09
2.55095e-12
-3.60158e-10
-6.10652e-09
-2.97711e-12
9.92631e-10
-7.04084e-09
-1.55496e-09
3.15986e-09
-7.51228e-09
-2.41437e-09
5.90971e-09
-7.03116e-09
2.7163e-09
9.44463e-09
-5.26629e-09
4.53491e-12
1.00191e-08
3.04118e-10
6.02664e-09
2.61161e-12
-3.40227e-13
2.06107e-11
-1.32018e-10
-5.73275e-14
9.8528e-11
-6.4592e-10
-5.88109e-14
2.46319e-10
-1.411e-09
-3.19717e-13
4.82946e-10
-2.31518e-09
2.64393e-13
7.35484e-10
-3.29215e-09
-1.86058e-13
9.39392e-10
-4.0611e-09
-1.82748e-13
1.23473e-09
-4.54843e-09
7.05054e-13
1.54257e-09
-4.51442e-09
7.17345e-13
1.43108e-09
-3.71001e-09
9.23973e-14
-1.7302e-09
-9.81862e-14
1.50594e-11
-1.2113e-10
-7.32186e-15
6.93567e-11
-5.43174e-10
-6.03004e-14
1.62952e-10
-1.13721e-09
-6.74842e-15
2.94226e-10
-1.81565e-09
-1.47458e-13
4.54366e-10
-2.48498e-09
7.22193e-15
6.05553e-10
-3.0238e-09
-4.80991e-14
6.94366e-10
-3.30441e-09
4.5788e-14
6.63845e-10
-3.16129e-09
1.10922e-13
3.90322e-10
-2.4433e-09
1.12488e-13
-1.02748e-09
6.75031e-14
1.00329e-11
-1.18724e-10
-4.08874e-15
4.44441e-11
-5.02127e-10
-1.219e-14
9.86577e-11
-1.01205e-09
-5.37337e-14
1.68101e-10
-1.57478e-09
-2.20877e-14
2.4348e-10
-2.11443e-09
-5.77849e-14
3.05979e-10
-2.53724e-09
1.68977e-14
3.28511e-10
-2.73245e-09
-1.671e-14
2.80649e-10
-2.57996e-09
3.05031e-14
1.38825e-10
-1.96399e-09
1.34413e-14
-7.95982e-10
7.22628e-15
5.31898e-12
-1.21043e-10
-1.00285e-15
2.38545e-11
-5.00391e-10
-8.26985e-15
5.15295e-11
-9.87534e-10
-1.20565e-14
8.27372e-11
-1.51259e-09
-3.24109e-14
1.10574e-10
-2.00777e-09
-1.56873e-14
1.26203e-10
-2.39315e-09
-2.77621e-14
1.19124e-10
-2.5733e-09
5.83087e-15
7.67952e-11
-2.44122e-09
-3.41084e-15
1.67295e-11
-1.88249e-09
1.06574e-14
-7.79256e-10
-7.68367e-15
2.04263e-12
-1.23085e-10
-2.15653e-16
1.00663e-11
-5.08415e-10
-2.35884e-15
1.98535e-11
-9.97323e-10
-6.13054e-15
2.55675e-11
-1.5183e-09
-1.52446e-14
2.30562e-11
-2.00527e-09
-1.13155e-14
1.18767e-11
-2.38197e-09
-2.12061e-14
-3.42787e-12
-2.55798e-09
-5.51504e-15
-1.44243e-11
-2.43021e-09
-3.95152e-15
-1.22771e-11
-1.88461e-09
-4.89496e-15
-7.91523e-10
5.86712e-15
1.6854e-15
-1.23087e-10
-1.99185e-17
1.33187e-12
-5.09745e-10
-7.92915e-16
3.97231e-12
-9.99964e-10
-2.69311e-15
6.7751e-12
-1.5211e-09
-5.16153e-15
8.29433e-12
-2.00679e-09
-9.54697e-15
7.51516e-12
-2.38121e-09
-8.56333e-15
4.73532e-12
-2.55519e-09
-9.53723e-15
8.56263e-13
-2.42634e-09
-4.74812e-15
-1.67536e-12
-1.88208e-09
-2.17772e-15
-7.93197e-10
-2.20432e-15
-2.29546e-12
-1.20792e-10
1.21175e-16
-7.4788e-12
-5.04562e-10
-5.00417e-17
-1.20676e-11
-9.95375e-10
-1.05128e-15
-1.34345e-11
-1.51974e-09
-2.68389e-15
-1.06661e-11
-2.00955e-09
-2.64169e-15
-4.43115e-12
-2.38744e-09
-5.36133e-15
3.30837e-12
-2.56293e-09
-3.34138e-15
8.29786e-12
-2.43132e-09
-4.83069e-15
6.93371e-12
-1.88072e-09
-2.28093e-15
-7.86264e-10
-6.40988e-16
-5.6787e-12
-1.15113e-10
1.46073e-16
-1.9431e-11
-4.90809e-10
1.16048e-16
-3.27041e-11
-9.82102e-10
-2.29046e-16
-4.06994e-11
-1.51174e-09
-1.26826e-15
-4.11487e-11
-2.0091e-09
-1.15403e-15
-3.38862e-11
-2.3947e-09
-1.87793e-15
-2.04115e-11
-2.57641e-09
-2.71168e-15
-5.72197e-12
-2.44601e-09
-1.58869e-15
2.89495e-12
-1.88934e-09
-1.69309e-15
-7.8337e-10
-4.40499e-16
-1.35989e-11
-1.01514e-10
1.30639e-16
-4.38476e-11
-4.6056e-10
1.50057e-16
-7.50809e-11
-9.50869e-10
3.57211e-17
-1.05142e-10
-1.48168e-09
-1.71016e-16
-1.3222e-10
-1.98202e-09
-4.88273e-16
-1.5058e-10
-2.37635e-09
-9.80434e-16
-1.50861e-10
-2.57613e-09
-9.1555e-16
-1.2312e-10
-2.47376e-09
-1.41206e-15
-6.44461e-11
-1.94801e-09
-8.29982e-16
-8.47818e-10
-5.08e-16
7.06456e-13
-1.0222e-10
8.98493e-17
-1.39442e-11
-4.45909e-10
1.66825e-16
-6.8955e-11
-8.95858e-10
8.41005e-17
-1.71429e-10
-1.37921e-09
-3.42104e-17
-3.19308e-10
-1.83414e-09
-1.57552e-16
-4.90062e-10
-2.20559e-09
-5.4569e-16
-6.43159e-10
-2.42303e-09
-6.89623e-16
-6.96953e-10
-2.41996e-09
-5.41999e-16
-5.7103e-10
-2.07394e-09
-4.70833e-16
-1.41884e-09
9.81866e-17
2.02664e-10
-3.04879e-10
8.16806e-16
3.47355e-10
-5.90531e-10
8.85883e-15
1.75612e-10
-7.24126e-10
-1.12562e-15
-1.83033e-10
-1.02055e-09
1.25278e-15
-6.66111e-10
-1.35061e-09
5.32602e-14
-1.25361e-09
-1.6187e-09
-7.43247e-14
-1.90723e-09
-1.76992e-09
-6.06127e-14
-2.57494e-09
-1.75231e-09
-9.45656e-15
-2.89152e-09
-1.75752e-09
-2.07894e-14
-4.30994e-09
4.47277e-14
-5.14167e-12
-2.99729e-10
2.2919e-15
8.08592e-12
-6.03652e-10
1.38704e-14
1.95208e-11
-7.35578e-10
-1.10104e-15
-1.69862e-12
-9.99586e-10
-3.05424e-14
-5.0664e-11
-1.30109e-09
6.50991e-14
-1.10001e-10
-1.56044e-09
-1.2854e-13
-1.40459e-10
-1.74067e-09
-1.528e-13
-7.39212e-11
-1.8179e-09
8.9412e-14
1.77757e-10
-2.00955e-09
-6.07147e-14
-4.13144e-09
5.45512e-14
-1.79765e-10
-1.19954e-10
2.25646e-15
-3.11995e-10
-4.71361e-10
8.00927e-15
-1.74571e-10
-8.72944e-10
7.73956e-15
1.16979e-10
-1.29119e-09
-5.86039e-15
5.17478e-10
-1.70116e-09
5.39641e-14
1.03278e-09
-2.07608e-09
-4.67629e-14
1.6159e-09
-2.32551e-09
-2.14353e-13
2.28274e-09
-2.48479e-09
-3.34043e-14
2.50708e-09
-2.23348e-09
7.43112e-15
-1.62328e-09
8.19819e-14
7.34888e-12
-1.27295e-10
1.61054e-15
1.13898e-11
-4.75324e-10
9.83315e-15
2.99067e-11
-8.91435e-10
3.413e-15
7.84414e-11
-1.33989e-09
-2.22047e-14
1.51225e-10
-1.77386e-09
5.54136e-15
2.41082e-10
-2.16507e-09
1.13009e-13
3.26625e-10
-2.4058e-09
6.56998e-13
3.51159e-10
-2.49966e-09
1.19521e-12
2.6193e-10
-2.13255e-09
1.48242e-12
-1.34321e-09
2.20163e-12
-1.24553e-11
-1.14827e-10
2.14587e-15
-1.02274e-11
-4.77429e-10
1.55948e-14
3.44056e-11
-9.36016e-10
6.89631e-15
1.22563e-10
-1.42852e-09
-6.23247e-14
2.46641e-10
-1.89847e-09
-7.63107e-14
3.88543e-10
-2.29785e-09
1.10119e-12
4.93082e-10
-2.52393e-09
-1.71178e-12
4.98801e-10
-2.51541e-09
-1.20302e-12
3.92245e-10
-2.03831e-09
-1.52523e-12
-9.68733e-10
-2.14786e-12
1.18829e-12
-1.16004e-10
1.73007e-15
6.53555e-12
-4.82631e-10
1.78514e-14
1.90527e-11
-9.48483e-10
6.34482e-15
3.76323e-11
-1.44772e-09
-8.10615e-14
6.02963e-11
-1.92203e-09
-1.25242e-13
8.84565e-11
-2.31614e-09
1.19643e-12
9.15698e-11
-2.53398e-09
-8.86372e-13
7.12828e-11
-2.49588e-09
-2.85871e-14
3.82143e-11
-2.00662e-09
-1.06958e-13
-9.31026e-10
-2.38757e-14
1.81444e-12
-1.17807e-10
1.73889e-15
1.14677e-11
-4.92187e-10
1.21989e-14
3.09654e-11
-9.67743e-10
2.94966e-14
5.83217e-11
-1.47585e-09
-1.0356e-13
9.01253e-11
-1.95461e-09
-1.16504e-13
1.26343e-10
-2.34174e-09
1.28369e-12
1.34298e-10
-2.54916e-09
-9.24814e-13
1.12124e-10
-2.47559e-09
-1.65799e-13
7.00828e-11
-1.96577e-09
-9.29019e-14
-8.60939e-10
3.2122e-14
6.84075e-13
-1.18482e-10
1.24638e-15
3.60558e-12
-4.95e-10
1.2693e-14
8.66169e-12
-9.72634e-10
1.83565e-14
1.39893e-11
-1.48196e-09
-9.14332e-14
1.95634e-11
-1.95974e-09
5.62673e-14
3.3069e-11
-2.3421e-09
1.59621e-12
2.41641e-11
-2.54779e-09
-9.55247e-13
1.35671e-11
-2.46366e-09
1.89786e-13
3.51747e-12
-1.95485e-09
1.23496e-13
-8.55737e-10
1.95163e-13
1.66404e-12
-1.20137e-10
1.31011e-15
6.74003e-12
-5.00025e-10
7.20667e-15
1.49443e-11
-9.80605e-10
2.86207e-14
2.68408e-11
-1.49143e-09
2.85987e-13
3.17409e-11
-1.97023e-09
-7.15862e-13
3.77877e-11
-2.3501e-09
-2.23054e-13
3.80236e-11
-2.54822e-09
-2.43059e-14
3.04263e-11
-2.45587e-09
3.28781e-14
1.72911e-11
-1.94078e-09
1.13245e-13
-8.38458e-10
1.09781e-14
5.11868e-13
-1.20647e-10
5.74537e-16
1.81535e-12
-5.0129e-10
5.08092e-15
3.88681e-12
-9.82493e-10
2.17674e-14
8.42796e-12
-1.49317e-09
3.36915e-13
6.42081e-12
-1.97221e-09
-5.0309e-13
7.94262e-12
-2.35121e-09
7.90128e-14
5.0228e-12
-2.54606e-09
-7.91717e-14
1.76131e-12
-2.45206e-09
6.5894e-14
-1.17614e-12
-1.937e-09
9.74304e-14
-8.39e-10
8.04467e-14
7.31345e-13
-1.21374e-10
5.46295e-16
2.94131e-12
-5.03449e-10
6.82934e-15
6.72119e-12
-9.85978e-10
3.55621e-14
1.3096e-11
-1.49708e-09
2.96918e-13
1.29602e-11
-1.9758e-09
-4.76383e-13
1.49264e-11
-2.35293e-09
5.40504e-14
1.43341e-11
-2.54532e-09
2.51362e-14
1.09306e-11
-2.44819e-09
5.90094e-14
6.02949e-12
-1.9312e-09
1.04555e-13
-8.32043e-10
1.11752e-13
2.6223e-14
-1.21398e-10
1.41012e-15
6.56719e-13
-5.03989e-10
1.12729e-14
2.18712e-12
-9.87235e-10
3.19835e-14
6.04266e-12
-1.49835e-09
3.11412e-13
3.49395e-12
-1.97691e-09
-4.72108e-13
3.58752e-12
-2.35298e-09
2.69179e-14
2.55015e-12
-2.54435e-09
-2.84707e-15
2.60047e-13
-2.44641e-09
-5.59915e-14
-1.19058e-12
-1.92983e-09
-1.09732e-14
-8.33357e-10
-1.07744e-14
2.53848e-13
-1.2166e-10
-5.31522e-15
1.27417e-12
-5.05312e-10
-3.65621e-14
4.04032e-12
-9.89378e-10
8.66674e-14
9.01746e-12
-1.5007e-09
3.06025e-13
7.75414e-12
-1.97934e-09
-4.73437e-13
8.50863e-12
-2.35387e-09
1.6784e-15
8.20548e-12
-2.54378e-09
3.87216e-14
5.68068e-12
-2.44417e-09
-2.85302e-14
3.03466e-12
-1.92685e-09
3.71852e-14
-8.30183e-10
2.06265e-14
4.62875e-14
-1.2171e-10
-3.1546e-15
5.21964e-13
-5.0609e-10
-3.16553e-14
2.60785e-12
-9.90721e-10
1.0927e-13
7.22276e-12
-1.50188e-09
3.99794e-13
5.3664e-12
-1.98064e-09
-4.1275e-13
5.07648e-12
-2.35364e-09
1.83933e-14
4.23618e-12
-2.54259e-09
4.42201e-14
1.71512e-12
-2.44205e-09
-4.32668e-14
3.53534e-14
-1.925e-09
1.87011e-14
-8.30427e-10
-2.86876e-14
2.39284e-13
-1.21949e-10
-7.76557e-16
1.61879e-12
-5.07463e-10
-2.34295e-15
4.08624e-12
-9.93198e-10
-5.92968e-15
6.29055e-12
-1.50505e-09
-1.16713e-13
7.54982e-12
-1.98245e-09
-6.51081e-14
8.56555e-12
-2.35457e-09
9.51542e-15
7.47769e-12
-2.54159e-09
-6.58725e-15
5.13882e-12
-2.43964e-09
1.02912e-14
2.38678e-12
-1.92207e-09
2.13214e-14
-8.28075e-10
-1.99846e-15
1.69442e-13
-1.22111e-10
7.96708e-16
1.46693e-12
-5.0881e-10
-6.36383e-15
4.02018e-12
-9.95615e-10
1.68368e-14
6.68369e-12
-1.50782e-09
-1.05537e-14
8.01409e-12
-1.98379e-09
-5.17777e-16
8.34158e-12
-2.35471e-09
2.25124e-14
6.77115e-12
-2.53991e-09
1.2171e-14
3.77546e-12
-2.43686e-09
-2.52378e-14
9.42758e-13
-1.91933e-09
-1.18312e-14
-8.27458e-10
-3.9564e-14
3.71279e-13
-1.22488e-10
-8.46365e-16
2.45458e-12
-5.10857e-10
4.05524e-15
5.7959e-12
-9.98904e-10
5.3888e-15
9.00305e-12
-1.51114e-09
-1.27208e-14
1.10453e-11
-1.98589e-09
-5.3392e-15
1.13689e-11
-2.35487e-09
1.88754e-14
9.76436e-12
-2.53801e-09
3.49527e-14
6.3017e-12
-2.43355e-09
-1.92069e-14
2.61498e-12
-1.91561e-09
1.8488e-15
-8.25195e-10
-4.14649e-14
5.33337e-13
-1.2302e-10
2.57111e-17
2.99983e-12
-5.13311e-10
1.07677e-15
6.69289e-12
-1.00258e-09
8.22387e-16
1.01258e-11
-1.51454e-09
2.14512e-15
1.20822e-11
-1.98778e-09
8.06213e-15
1.17176e-11
-2.35469e-09
-1.88786e-14
9.63672e-12
-2.53559e-09
4.21793e-14
5.57363e-12