/*--------------------------------*- C++ -*----------------------------------*\
| =========                 |                                                 |
| \\      /  F ield         | OpenFOAM: The Open Source CFD Toolbox           |
|  \\    /   O peration     | Version:  v2012                                 |
|   \\  /    A nd           | Website:  www.openfoam.com                      |
|    \\/     M anipulation  |                                                 |
\*---------------------------------------------------------------------------*/
FoamFile
{
    version     2.0;
    format      ascii;
    class       surfaceScalarField;
    location    "0.05";
    object      phi;
}
// * * * * * * * * * * * * * * * * * * * * * * * * * * * * * * * * * * * * * //

dimensions      [0 3 -1 0 0 0 0];
oriented        oriented;


internalField   nonuniform List<scalar> 
8162
(
5.49553e-13
-8.52464e-12
1.22205e-17
7.01374e-13
-1.06068e-11
1.09829e-17
8.85546e-13
-1.30931e-11
5.94191e-18
1.10693e-12
-1.60413e-11
5.31543e-18
1.37073e-12
-1.95196e-11
5.10934e-18
1.68243e-12
-2.35985e-11
9.83406e-18
2.04756e-12
-2.83581e-11
9.53654e-18
2.47175e-12
-3.38845e-11
7.55838e-18
2.96046e-12
-4.02662e-11
4.31223e-18
3.51891e-12
-4.76096e-11
3.20429e-18
4.15166e-12
-5.60124e-11
-5.36566e-19
4.86245e-12
-6.55915e-11
-3.82431e-18
5.65395e-12
-7.64659e-11
-7.70775e-18
6.52728e-12
-8.87579e-11
-1.01465e-17
7.48172e-12
-1.02599e-10
-1.25529e-17
8.51436e-12
-1.18126e-10
-1.40832e-17
9.61961e-12
-1.35484e-10
-1.68389e-17
1.07889e-11
-1.54817e-10
-2.12185e-17
1.20105e-11
-1.76286e-10
-2.76762e-17
-2.00051e-10
-3.19145e-17
3.48219e-13
-5.44454e-12
2.06199e-17
4.54955e-13
-6.89837e-12
7.40328e-18
5.87116e-13
-8.65683e-12
3.79454e-18
7.49047e-13
-1.07687e-11
4.61434e-18
9.4546e-13
-1.32894e-11
2.64866e-18
1.18149e-12
-1.62773e-11
2.96315e-18
1.46264e-12
-1.98007e-11
3.90685e-18
1.79467e-12
-2.39304e-11
8.76817e-18
2.1834e-12
-2.87468e-11
8.43863e-18
2.63471e-12
-3.43358e-11
6.56709e-18
3.15433e-12
-4.07859e-11
3.26819e-18
3.74772e-12
-4.82031e-11
1.91884e-18
4.41957e-12
-5.66843e-11
-1.50062e-18
5.17375e-12
-6.63458e-11
-4.61451e-18
6.01292e-12
-7.7305e-11
-8.04951e-18
6.93808e-12
-8.9683e-11
-1.03604e-17
7.94823e-12
-1.03609e-10
-1.26959e-17
9.04009e-12
-1.19218e-10
-1.43603e-17
1.02075e-11
-1.36651e-10
-1.68518e-17
1.14412e-11
-1.56051e-10
-2.02958e-17
1.27286e-11
-1.77574e-10
-2.52901e-17
-2.01375e-10
-2.9164e-17
-2.30866e-18
-4.90582e-17
-4.48165e-19
2.7124e-17
-1.08578e-15
9.80628e-19
2.10711e-16
-5.31203e-15
1.68281e-17
6.35301e-16
-1.57239e-14
3.85654e-17
1.30272e-15
-3.60848e-14
3.50043e-17
2.07278e-15
-7.11642e-14
-9.79585e-18
3.91296e-15
-1.26551e-13
4.1488e-17
7.61776e-15
-2.09516e-13
1.80443e-17
1.34364e-14
-3.28747e-13
5.1805e-17
-4.94546e-13
2.74915e-16
7.70908e-14
-1.40789e-12
1.78817e-17
1.0977e-13
-1.90826e-12
2.17493e-18
1.52992e-13
-2.54281e-12
8.23242e-18
2.0903e-13
-3.33781e-12
-6.24497e-18
2.81203e-13
-4.32388e-12
3.0069e-17
3.7236e-13
-5.53562e-12
1.00753e-17
4.86393e-13
-7.01234e-12
9.95067e-18
6.27496e-13
-8.7979e-12
6.47317e-18
8.00292e-13
-1.09415e-11
4.79688e-18
1.00983e-12
-1.3499e-11
2.00183e-18
1.26155e-12
-1.6529e-11
1.50131e-18
1.56127e-12
-2.01004e-11
2.27934e-18
1.91504e-12
-2.42841e-11
6.98221e-18
2.32899e-12
-2.91607e-11
6.88603e-18
2.80928e-12
-3.48161e-11
5.70402e-18
3.36189e-12
-4.13386e-11
2.579e-18
3.99251e-12
-4.88339e-11
1.0857e-18
4.706e-12
-5.73979e-11
-2.30327e-18
5.50631e-12
-6.71461e-11
-5.43782e-18
6.39606e-12
-7.81947e-11
-8.76877e-18
7.37612e-12
-9.06629e-11
-1.11084e-17
8.44521e-12
-1.04678e-10
-1.35145e-17
9.59958e-12
-1.20372e-10
-1.52976e-17
1.08325e-11
-1.37884e-10
-1.765e-17
1.2134e-11
-1.57353e-10
-2.05532e-17
1.34903e-11
-1.7893e-10
-2.47452e-17
-2.02769e-10
-2.84554e-17
-1.62007e-18
-4.992e-17
-3.32656e-19
8.93634e-18
-1.10537e-15
-1.5199e-18
1.1771e-16
-5.40396e-15
8.7374e-19
5.40672e-16
-1.59302e-14
2.24431e-17
1.36177e-15
-3.66004e-14
3.24341e-17
2.59463e-15
-7.22242e-14
2.3163e-17
4.96376e-15
-1.28666e-13
2.57748e-17
8.79179e-15
-2.13205e-13
2.13891e-17
1.52607e-14
-3.34709e-13
2.70649e-17
2.63479e-14
-5.03702e-13
1.89849e-16
3.79257e-14
-7.32908e-13
-1.75028e-16
5.66011e-14
-1.03698e-12
9.66026e-18
8.27164e-14
-1.43378e-12
1.27761e-17
1.17666e-13
-1.94315e-12
5.65038e-18
1.63885e-13
-2.58893e-12
1.08025e-17
2.23718e-13
-3.39784e-12
-1.31532e-17
3.00929e-13
-4.40082e-12
3.10567e-17
3.98331e-13
-5.63303e-12
6.09374e-19
5.20172e-13
-7.13419e-12
4.31705e-18
6.70892e-13
-8.94862e-12
2.36799e-18
8.55386e-13
-1.1126e-11
1.49371e-18
1.07903e-12
-1.37226e-11
2.36741e-19
1.34759e-12
-1.67975e-11
4.26138e-19
1.6672e-12
-2.04199e-11
1.65809e-18
2.04424e-12
-2.4661e-11
6.27021e-18
2.48515e-12
-2.96016e-11
6.00085e-18
2.99639e-12
-3.53274e-11
5.03734e-18
3.58423e-12
-4.19266e-11
1.87242e-18
4.25455e-12
-4.95043e-11
1.51734e-19
5.01239e-12
-5.81559e-11
-3.20793e-18
5.86174e-12
-6.79956e-11
-6.29806e-18
6.80519e-12
-7.91382e-11
-9.52097e-18
7.84343e-12
-9.17011e-11
-1.18598e-17
8.97484e-12
-1.0581e-10
-1.43098e-17
1.01952e-11
-1.21592e-10
-1.61386e-17
1.14972e-11
-1.39186e-10
-1.83085e-17
1.28698e-11
-1.58726e-10
-2.07349e-17
1.42985e-11
-1.8036e-10
-2.43503e-17
-2.04235e-10
-2.81875e-17
-2.15311e-18
-5.09616e-17
-3.8788e-19
7.04972e-18
-1.12864e-15
-1.81187e-18
1.11274e-16
-5.51059e-15
-1.03944e-18
5.07433e-16
-1.62337e-14
9.09406e-18
1.28416e-15
-3.72808e-14
1.3151e-17
2.66079e-15
-7.35454e-14
1.2782e-17
5.22057e-15
-1.31052e-13
2.16865e-17
9.52555e-15
-2.17315e-13
2.58142e-17
1.6466e-14
-3.41178e-13
3.36699e-17
2.81301e-14
-5.13561e-13
1.89746e-16
4.07428e-14
-7.4721e-13
-1.69711e-16
6.06564e-14
-1.05722e-12
2.96123e-18
8.86018e-14
-1.46155e-12
1.04241e-17
1.26026e-13
-1.98053e-12
4.73652e-18
1.75497e-13
-2.63833e-12
1.02487e-17
2.39529e-13
-3.46208e-12
-1.41763e-17
3.22116e-13
-4.48318e-12
3.02778e-17
4.2627e-13
-5.73724e-12
-1.50513e-18
5.56522e-13
-7.26449e-12
3.80977e-18
7.17591e-13
-9.10973e-12
1.92409e-18
9.14675e-13
-1.13231e-11
8.52915e-19
1.15348e-12
-1.39615e-11
-8.98972e-20
1.44011e-12
-1.70842e-11
2.55808e-19
1.78105e-12
-2.07608e-11
1.41174e-18
2.183e-12
-2.50629e-11
5.75456e-18
2.65275e-12
-3.00713e-11
5.32395e-18
3.19709e-12
-3.58718e-11
4.59776e-18
3.82254e-12
-4.25522e-11
1.41808e-18
4.53522e-12
-5.02172e-11
-5.87211e-19
5.34031e-12
-5.89611e-11
-3.95909e-18
6.24182e-12
-6.88972e-11
-6.98064e-18
7.24229e-12
-8.01386e-11
-1.01251e-17
8.34218e-12
-9.28009e-11
-1.24488e-17
9.53952e-12
-1.07007e-10
-1.49145e-17
1.08296e-11
-1.22882e-10
-1.67003e-17
1.22042e-11
-1.40561e-10
-1.85932e-17
1.36517e-11
-1.60173e-10
-2.05475e-17
1.51563e-11
-1.81864e-10
-2.36122e-17
1.66974e-11
-2.05777e-10
-2.7043e-17
-2.32011e-10
-3.27369e-17
-4.25573e-19
-5.2069e-17
-2.04676e-19
2.63233e-17
-1.15293e-15
1.68294e-19
1.32985e-16
-5.63602e-15
-2.06801e-18
4.31e-16
-1.66118e-14
-8.98463e-18
1.19329e-15
-3.80812e-14
-4.53826e-18
2.78386e-15
-7.50618e-14
5.22132e-18
5.64498e-15
-1.33726e-13
1.51505e-17
1.03035e-14
-2.21721e-13
3.08701e-17
1.78194e-14
-3.48148e-13
3.86554e-17
3.02367e-14
-5.24083e-13
1.93281e-16
4.38645e-14
-7.62496e-13
-1.68917e-16
6.51668e-14
-1.07881e-12
4.22608e-18
9.50744e-14
-1.49123e-12
1.18787e-17
1.35121e-13
-2.02051e-12
5.07998e-18
1.88065e-13
-2.6912e-12
1.05806e-17
2.56617e-13
-3.53084e-12
-1.28276e-17
3.44972e-13
-4.57132e-12
3.12284e-17
4.5639e-13
-5.84874e-12
-4.88642e-19
5.95692e-13
-7.40385e-12
5.30774e-18
7.67897e-13
-9.28197e-12
2.97646e-18
9.78531e-13
-1.15338e-11
1.18494e-18
1.23364e-12
-1.42166e-11
3.96081e-20
1.53969e-12
-1.73902e-11
3.03758e-19
1.9035e-12
-2.11246e-11
1.06463e-18
2.33215e-12
-2.54915e-11
4.95331e-18
2.83277e-12
-3.0572e-11
4.24121e-18
3.41251e-12
-3.64517e-11
3.69793e-18
4.07815e-12
-4.3218e-11
7.02457e-19
4.83603e-12
-5.09752e-11
-1.4278e-18
5.69146e-12
-5.98167e-11
-4.69092e-18
6.64847e-12
-6.98543e-11
-7.57408e-18
7.70948e-12
-8.11996e-11
-1.06301e-17
8.87472e-12
-9.3966e-11
-1.29122e-17
1.01418e-11
-1.08274e-10
-1.5348e-17
1.15054e-11
-1.24246e-10
-1.69829e-17
1.29567e-11
-1.42012e-10
-1.84778e-17
1.44828e-11
-1.617e-10
-1.99465e-17
1.60668e-11
-1.83449e-10
-2.27134e-17
1.7687e-11
-2.07398e-10
-2.62857e-17
-2.33641e-10
-2.97301e-17
-1.80152e-19
-5.32265e-17
-1.32951e-19
2.00463e-17
-1.17883e-15
-4.50444e-19
1.32864e-16
-5.76006e-15
-1.46472e-18
4.73743e-16
-1.6979e-14
-3.95376e-18
1.29479e-15
-3.89217e-14
-3.5958e-18
3.04621e-15
-7.67035e-14
8.64896e-18
6.04601e-15
-1.3665e-13
5.23738e-18
1.10069e-14
-2.26546e-13
2.18121e-17
1.90734e-14
-3.55701e-13
3.59039e-17
3.227e-14
-5.35419e-13
1.89671e-16
4.70255e-14
-7.78938e-13
-1.72016e-16
6.98976e-14
-1.10197e-12
2.44141e-18
1.0195e-13
-1.52306e-12
1.12062e-17
1.44866e-13
-2.06336e-12
4.71054e-18
2.01581e-13
-2.74784e-12
9.64958e-18
2.75031e-13
-3.60449e-12
-1.22979e-17
3.69622e-13
-4.66571e-12
3.12975e-17
4.88888e-13
-5.96811e-12
-2.78968e-19
6.37953e-13
-7.55299e-12
5.69021e-18
8.22162e-13
-9.46622e-12
2.97622e-18
1.04738e-12
-1.17591e-11
7.49666e-19
1.32003e-12
-1.44893e-11
-4.14366e-20
1.64693e-12
-1.77171e-11
6.38082e-19
2.0353e-12
-2.1513e-11
1.40718e-18
2.49257e-12
-2.59488e-11
5.21075e-18
3.02628e-12
-3.11058e-11
4.20322e-18
3.64389e-12
-3.70695e-11
3.54552e-18
4.35249e-12
-4.39268e-11
4.40349e-19
5.15863e-12
-5.17816e-11
-2.03682e-18
6.06771e-12
-6.07259e-11
-5.28048e-18
7.08376e-12
-7.08704e-11
-8.03309e-18
8.20908e-12
-8.23249e-11
-1.10122e-17
9.4436e-12
-9.52005e-11
-1.32286e-17
1.07845e-11
-1.09615e-10
-1.55937e-17
1.22257e-11
-1.25687e-10
-1.69917e-17
1.37576e-11
-1.43544e-10
-1.79839e-17
1.53664e-11
-1.63309e-10
-1.89462e-17
1.70337e-11
-1.85116e-10
-2.15244e-17
1.87363e-11
-2.09101e-10
-2.54317e-17
2.04459e-11
-2.35351e-10
-2.8108e-17
-2.64147e-10
-2.9274e-17
3.00045e-19
-5.44822e-17
-9.87204e-20
2.56388e-17
-1.20686e-15
-1.48015e-19
1.53141e-16
-5.89476e-15
-9.21996e-19
5.17965e-16
-1.73749e-14
-4.03297e-18
1.39452e-15
-3.98292e-14
-4.58369e-18
3.26652e-15
-7.84858e-14
6.23939e-18
6.47659e-15
-1.39816e-13
2.24349e-18
1.18021e-14
-2.31762e-13
2.04607e-17
2.0444e-14
-3.63841e-13
3.5956e-17
3.4464e-14
-5.47612e-13
1.87014e-16
5.04403e-14
-7.96591e-13
-1.71241e-16
7.50111e-14
-1.12683e-12
1.98725e-18
1.09346e-13
-1.55723e-12
5.31889e-18
1.55355e-13
-2.10935e-12
-1.97433e-19
2.16146e-13
-2.80859e-12
4.63459e-18
2.94901e-13
-3.68345e-12
-1.49368e-17
3.96235e-13
-4.76685e-12
2.8113e-17
5.23983e-13
-6.09597e-12
-2.8622e-18
6.83571e-13
-7.71268e-12
1.74581e-18
8.80714e-13
-9.66342e-12
-5.55269e-19
1.12166e-12
-1.2e-11
-1.6662e-18
1.41319e-12
-1.47808e-11
-1.33496e-18
1.76253e-12
-1.80664e-11
-1.24812e-19
2.17727e-12
-2.19278e-11
4.36323e-19
2.66527e-12
-2.64369e-11
4.00676e-18
3.23443e-12
-3.16751e-11
2.85635e-18
3.89259e-12
-3.77279e-11
2.3961e-18
4.64713e-12
-4.46816e-11
-3.49443e-19
5.5048e-12
-5.26394e-11
-2.83744e-18
6.47108e-12
-6.16923e-11
-5.87627e-18
7.54998e-12
-7.19494e-11
-8.4297e-18
8.74362e-12
-8.35186e-11
-1.13108e-17
1.00516e-11
-9.65084e-11
-1.34274e-17
1.14705e-11
-1.11034e-10
-1.56725e-17
1.29937e-11
-1.2721e-10
-1.67585e-17
1.46106e-11
-1.45161e-10
-1.71662e-17
1.6306e-11
-1.65005e-10
-1.76045e-17
1.80606e-11
-1.86871e-10
-2.00626e-17
1.98493e-11
-2.1089e-10
-2.45759e-17
2.16421e-11
-2.37144e-10
-2.73366e-17
-2.65909e-10
-2.55245e-17
6.62603e-19
-5.57698e-17
-6.63112e-20
3.46299e-17
-1.23521e-15
7.03374e-19
1.60983e-16
-6.03877e-15
-2.22029e-18
5.34655e-16
-1.78021e-14
-6.73189e-18
1.48333e-15
-4.08002e-14
-3.21431e-18
3.51934e-15
-8.04007e-14
1.12746e-17
6.98336e-15
-1.43209e-13
5.87103e-18
1.26899e-14
-2.37352e-13
2.08583e-17
2.1948e-14
-3.72588e-13
3.64226e-17
3.685e-14
-5.60721e-13
1.82228e-16
5.41383e-14
-8.15567e-13
-1.73444e-16
8.05043e-14
-1.15355e-12
-6.67932e-18
1.1732e-13
-1.59391e-12
1.08951e-18
1.66697e-13
-2.15868e-12
-8.92294e-19
2.319e-13
-2.87375e-12
2.61728e-18
3.16382e-13
-3.76811e-12
-1.55498e-17
4.24999e-13
-4.87528e-12
2.57576e-17
5.61913e-13
-6.23298e-12
-3.62351e-18
7.32887e-13
-7.88373e-12
2.40457e-18
9.43999e-13
-9.87456e-12
2.63184e-19
1.20189e-12
-1.22579e-11
-1.64332e-18
1.51375e-12
-1.50926e-11
-1.44916e-18
1.88722e-12
-1.84399e-11
-2.27938e-19
2.33032e-12
-2.23709e-11
2.20759e-19
2.85131e-12
-2.6958e-11
3.86057e-18
3.45851e-12
-3.22826e-11
2.52485e-18
4.16012e-12
-3.84298e-11
1.91402e-18
4.9638e-12
-4.54855e-11
-8.32991e-19
5.8765e-12
-5.35523e-11
-3.55833e-18
6.90379e-12
-6.27197e-11
-6.47094e-18
8.04959e-12
-7.30952e-11
-8.81764e-18
9.3158e-12
-8.47848e-11
-1.15721e-17
1.07016e-11
-9.78942e-11
-1.35395e-17
1.22031e-11
-1.12535e-10
-1.56126e-17
1.38128e-11
-1.2882e-10
-1.63247e-17
1.55191e-11
-1.46868e-10
-1.60886e-17
1.73057e-11
-1.66791e-10
-1.59992e-17
1.91515e-11
-1.88718e-10
-1.83837e-17
2.103e-11
-2.12769e-10
-2.3586e-17
2.29093e-11
-2.39024e-10
-2.66834e-17
-2.67752e-10
-2.35576e-17
1.02666e-18
-5.71849e-17
-4.31964e-20
3.75568e-17
-1.2664e-15
6.76622e-19
1.73885e-16
-6.19592e-15
-2.6729e-18
5.82417e-16
-1.82661e-14
-7.3435e-18
1.61447e-15
-4.18398e-14
-1.74161e-18
3.8283e-15
-8.2446e-14
1.69922e-17
7.58484e-15
-1.46854e-13
1.13069e-17
1.3716e-14
-2.43366e-13
2.31844e-17
2.3595e-14
-3.81988e-13
3.65032e-17
3.93951e-14
-5.74813e-13
1.76569e-16
5.80755e-14
-8.35978e-13
-1.76197e-16
8.64084e-14
-1.1823e-12
-1.15057e-17
1.25902e-13
-1.63336e-12
-6.72235e-18
1.7893e-13
-2.21173e-12
-6.78466e-18
2.48927e-13
-2.94375e-12
-3.15392e-18
3.39627e-13
-3.85902e-12
-1.97202e-17
4.56143e-13
-4.99163e-12
2.07207e-17
6.02979e-13
-6.37995e-12
-8.02818e-18
7.86238e-13
-8.06712e-12
-4.60608e-18
1.01242e-12
-1.01008e-11
-6.18588e-18
1.28859e-12
-1.25341e-11
-6.4582e-18
1.62238e-12
-1.54264e-11
-4.48784e-18
2.02184e-12
-1.88393e-11
-2.3722e-18
2.49544e-12
-2.28446e-11
-1.74844e-18
3.05189e-12
-2.75147e-11
2.02622e-18
3.69992e-12
-3.29309e-11
8.03799e-19
4.44809e-12
-3.91783e-11
4.57357e-19
5.30438e-12
-4.6342e-11
-1.82491e-18
6.27589e-12
-5.4524e-11
-4.4667e-18
7.36825e-12
-6.38121e-11
-7.10133e-18
8.58527e-12
-7.43123e-11
-9.1983e-18
9.9286e-12
-8.61281e-11
-1.18043e-17
1.1397e-11
-9.93626e-11
-1.35869e-17
1.29859e-11
-1.14124e-10
-1.54412e-17
1.46868e-11
-1.30521e-10
-1.57339e-17
1.64872e-11
-1.48669e-10
-1.48222e-17
1.83693e-11
-1.68674e-10
-1.42082e-17
2.03107e-11
-1.90659e-10
-1.65574e-17
2.22828e-11
-2.14742e-10
-2.2481e-17
2.42517e-11
-2.40993e-10
-2.59982e-17
-2.69679e-10
-2.20208e-17
2.17943e-19
-5.87432e-17
-1.38313e-19
3.06498e-17
-1.30098e-15
-3.47814e-19
1.82146e-16
-6.36149e-15
-2.28504e-18
6.50366e-16
-1.87525e-14
-3.94168e-18
1.7319e-15
-4.2955e-14
-4.65245e-18
4.09456e-15
-8.4633e-14
1.8007e-17
8.16503e-15
-1.50767e-13
1.42011e-17
1.47469e-14
-2.49804e-13
2.50812e-17
2.5354e-14
-3.92047e-13
3.52947e-17
4.22169e-14
-5.89927e-13
1.68064e-16
6.23884e-14
-8.57992e-13
-1.8476e-16
9.2893e-14
-1.21323e-12
-1.25745e-17
1.35325e-13
-1.67571e-12
-3.60585e-18
1.92293e-13
-2.26868e-12
-3.33489e-18
2.67456e-13
-3.01889e-12
-3.78773e-19
3.64859e-13
-3.9566e-12
-1.70262e-17
4.89903e-13
-5.11649e-12
2.16379e-17
6.47465e-13
-6.5376e-12
-5.4119e-18
8.44035e-13
-8.26377e-12
-6.62466e-19
1.08652e-12
-1.03433e-11
-2.52396e-18
1.38243e-12
-1.28299e-11
-4.22739e-18
1.73986e-12
-1.57837e-11
-3.06786e-18
2.16732e-12
-1.92668e-11
-1.57119e-18
2.67376e-12
-2.33511e-11
-1.46048e-18
3.26834e-12
-2.81094e-11
2.09268e-18
3.96021e-12
-3.3623e-11
5.16633e-19
4.75832e-12
-3.99767e-11
-1.53356e-19
5.67092e-12
-4.72549e-11
-2.47419e-18
6.7053e-12
-5.55585e-11
-5.31993e-18
7.86708e-12
-6.49738e-11
-7.78435e-18
9.15995e-12
-7.56051e-11
-9.63899e-18
1.05852e-11
-8.75534e-11
-1.20595e-17
1.21412e-11
-1.00919e-10
-1.36055e-17
1.38224e-11
-1.15806e-10
-1.51934e-17
1.56197e-11
-1.32319e-10
-1.50288e-17
1.75191e-11
-1.50568e-10
-1.34274e-17
1.95015e-11
-1.70657e-10
-1.23045e-17
2.15426e-11
-1.92701e-10
-1.46441e-17
2.36122e-11
-2.16812e-10
-2.13072e-17
2.56741e-11
-2.43055e-10
-2.52703e-17
-2.71693e-10
-2.05221e-17
4.69565e-19
-6.04364e-17
-1.29803e-19
3.26151e-17
-1.33855e-15
-5.03677e-19
1.99114e-16
-6.54191e-15
-2.35787e-18
7.24046e-16
-1.92823e-14
-2.67394e-18
1.91207e-15
-4.41701e-14
-4.00015e-18
4.45758e-15
-8.70129e-14
1.77784e-17
8.83651e-15
-1.54997e-13
1.55168e-17
1.58757e-14
-2.56748e-13
2.10468e-17
2.72294e-14
-4.02362e-13
9.12106e-17
4.5198e-14
-6.05411e-13
2.49802e-16
6.71109e-14
-8.81564e-13
-1.63037e-16
9.98966e-14
-1.24643e-12
-7.95501e-18
1.45479e-13
-1.72126e-12
-4.46928e-18
2.06705e-13
-2.32997e-12
-8.81908e-18
2.87492e-13
-3.09972e-12
-6.46427e-18
3.92202e-13
-4.06152e-12
-2.16072e-17
5.2652e-13
-5.25067e-12
1.60151e-17
6.95717e-13
-6.70694e-12
-1.07136e-17
9.06681e-13
-8.47488e-12
-8.27602e-18
1.1668e-12
-1.06035e-11
-9.31577e-18
1.48404e-12
-1.31472e-11
-9.53983e-18
1.86699e-12
-1.61666e-11
-6.80859e-18
2.32467e-12
-1.97244e-11
-4.5008e-18
2.86648e-12
-2.38931e-11
-4.12103e-18
3.50209e-12
-2.87452e-11
-3.18539e-19
4.24108e-12
-3.43623e-11
-1.63021e-18
5.09277e-12
-4.08287e-11
-1.96015e-18
6.06569e-12
-4.8228e-11
-3.7387e-18
7.16729e-12
-5.66601e-11
-6.40259e-18
8.40316e-12
-6.62097e-11
-8.52302e-18
9.77682e-12
-7.69788e-11
-1.00854e-17
1.12892e-11
-8.90658e-11
-1.22957e-17
1.2938e-11
-1.02567e-10
-1.35818e-17
1.4717e-11
-1.17585e-10
-1.48752e-17
1.66159e-11
-1.34218e-10
-1.42382e-17
1.86194e-11
-1.52572e-10
-1.19575e-17
2.07068e-11
-1.72745e-10
-1.03521e-17
2.28522e-11
-1.94846e-10
-1.2714e-17
2.50232e-11
-2.18983e-10
-2.01172e-17
2.71815e-11
-2.45214e-10
-2.45343e-17
-2.73795e-10
-1.90724e-17
6.55468e-19
-6.21799e-17
-1.21844e-19
4.01063e-17
-1.37697e-15
1.7688e-19
2.26348e-16
-6.73704e-15
-1.51987e-18
7.87479e-16
-1.98555e-14
-3.30986e-18
2.04005e-15
-4.54748e-14
-8.96737e-18
4.79744e-15
-8.9569e-14
2.16717e-17
9.65267e-15
-1.59534e-13
2.38465e-17
1.81218e-14
-2.64271e-13
1.01605e-16
2.91318e-14
-4.14693e-13
-1.28327e-16
4.63972e-14
-6.23847e-13
-9.07749e-17
7.18988e-14
-9.07097e-13
-1.18538e-17
1.07507e-13
-1.28226e-12
-2.44306e-17
1.56567e-13
-1.77041e-12
-1.28244e-17
2.22441e-13
-2.3959e-12
-9.87213e-18
3.0934e-13
-3.18669e-12
-8.57097e-18
4.21955e-13
-4.17434e-12
-2.23129e-17
5.6631e-13
-5.39491e-12
1.31156e-17
7.48106e-13
-6.88888e-12
-1.2035e-17
9.74686e-13
-8.70158e-12
-7.45765e-18
1.2539e-12
-1.08828e-11
-8.17604e-18
1.59421e-12
-1.34875e-11
-9.20827e-18
2.00474e-12
-1.65771e-11
-6.8166e-18
2.49502e-12
-2.02147e-11
-4.66778e-18
3.07497e-12
-2.44731e-11
-4.47192e-18
3.75475e-12
-2.94252e-11
-7.54279e-19
4.5444e-12
-3.51523e-11
-2.25153e-18
5.45361e-12
-4.17382e-11
-2.78593e-18
6.49118e-12
-4.92657e-11
-4.51514e-18
7.66466e-12
-5.78336e-11
-7.29709e-18
8.97964e-12
-6.75245e-11
-9.21561e-18
1.04394e-11
-7.84384e-11
-1.05286e-17
1.20443e-11
-9.06708e-11
-1.25159e-17
1.37915e-11
-1.04315e-10
-1.35179e-17
1.56739e-11
-1.19468e-10
-1.44988e-17
1.76799e-11
-1.36224e-10
-1.33882e-17
1.97929e-11
-1.54685e-10
-1.04541e-17
2.19904e-11
-1.74943e-10
-8.40385e-18
2.42447e-11
-1.97101e-10
-1.08175e-17
2.6521e-11
-2.2126e-10
-1.896e-17
2.87789e-11
-2.47472e-10
-2.38263e-17
-2.75989e-10
-1.76977e-17
5.64271e-19
-6.41173e-17
-1.60544e-19
3.94582e-17
-1.41972e-15
-4.28375e-19
2.44627e-16
-6.94743e-15
-1.34316e-18
8.86902e-16
-2.04665e-14
1.21378e-18
2.27437e-15
-4.68781e-14
-4.58013e-18
5.24841e-15
-9.23235e-14
2.58567e-17
1.0467e-14
-1.64437e-13
2.7404e-17
1.94569e-14
-2.72403e-13
9.49508e-17
3.13555e-14
-4.27425e-13
-7.29897e-17
4.99265e-14
-6.42898e-13
-1.53031e-17
7.7484e-14
-9.34528e-13
5.54855e-18
1.15829e-13
-1.32081e-12
-2.34525e-17
1.68591e-13
-1.82339e-12
-2.22524e-17
2.39519e-13
-2.46699e-12
-1.67608e-17
3.33071e-13
-3.2804e-12
-1.56221e-17
4.54303e-13
-4.29582e-12
-2.77875e-17
6.0959e-13
-5.55012e-12
7.1434e-18
8.05083e-13
-7.08457e-12
-1.75043e-17
1.04859e-12
-8.94527e-12
-1.53063e-17
1.34848e-12
-1.11827e-11
-1.50519e-17
1.71378e-12
-1.38528e-11
-1.45948e-17
2.15413e-12
-1.70174e-11
-1.06905e-17
2.67963e-12
-2.07402e-11
-7.66266e-18
3.30073e-12
-2.50944e-11
-7.06686e-18
4.0281e-12
-3.01529e-11
-3.08846e-18
4.87225e-12
-3.59968e-11
-4.28193e-18
5.84323e-12
-4.27095e-11
-4.47856e-18
6.9501e-12
-5.03727e-11
-5.69153e-18
8.20051e-12
-5.9084e-11
-8.27157e-18
9.59994e-12
-6.89238e-11
-9.85073e-18
1.11514e-11
-7.99897e-11
-1.08848e-17
1.28547e-11
-9.23742e-11
-1.26417e-17
1.47063e-11
-1.06166e-10
-1.33653e-17
1.6698e-11
-1.2146e-10
-1.40422e-17
1.8817e-11
-1.38343e-10
-1.24823e-17
2.10449e-11
-1.56914e-10
-8.94618e-18
2.33578e-11
-1.77256e-10
-6.50111e-18
2.57254e-11
-1.99469e-10
-8.99968e-18
2.81111e-11
-2.23646e-10
-1.78725e-17
3.04719e-11
-2.49833e-10
-2.31797e-17
-2.78276e-10
-1.64222e-17
-9.71217e-19
-6.64677e-17
-3.92915e-19
3.25348e-17
-1.4676e-15
-1.58942e-18
2.63704e-16
-7.17156e-15
-9.67294e-20
9.77288e-16
-2.10967e-14
7.52297e-18
2.47372e-15
-4.83689e-14
-1.76027e-18
5.61466e-15
-9.52516e-14
2.49864e-17
1.1269e-14
-1.69672e-13
3.74804e-17
2.09192e-14
-2.81107e-13
1.02228e-16
3.37771e-14
-4.4109e-13
-7.8819e-17
5.38545e-14
-6.63407e-13
-2.32154e-17
8.35221e-14
-9.64163e-13
-2.4081e-18
1.24902e-13
-1.36241e-12
-2.45869e-17
1.8179e-13
-1.88047e-12
-2.08115e-17
2.58242e-13
-2.54357e-12
-1.49893e-17
3.5902e-13
-3.38132e-12
-1.46711e-17
4.89596e-13
-4.42663e-12
-2.63656e-17
6.56745e-13
-5.71719e-12
7.99853e-18
8.67111e-13
-7.2951e-12
-1.44362e-17
1.129e-12
-9.20729e-12
-1.07202e-17
1.45134e-12
-1.15051e-11
-1.08745e-17
1.8437e-12
-1.42451e-11
-1.19211e-17
2.31633e-12
-1.749e-11
-8.76904e-18
2.8799e-12
-2.13038e-11
-6.26034e-18
3.54543e-12
-2.57601e-11
-6.18305e-18
4.32411e-12
-3.09318e-11
-2.7224e-18
5.22691e-12
-3.68999e-11
-4.34527e-18
6.26427e-12
-4.37471e-11
-4.88465e-18
7.44546e-12
-5.15539e-11
-6.14105e-18
8.77821e-12
-6.04166e-11
-8.85696e-18
1.02678e-11
-7.04132e-11
-1.02796e-17
1.1917e-11
-8.16387e-11
-1.11115e-17
1.3725e-11
-9.41821e-11
-1.2652e-17
1.56872e-11
-1.08129e-10
-1.3106e-17
1.77944e-11
-1.23567e-10
-1.34974e-17
2.00324e-11
-1.40582e-10
-1.15274e-17
2.23812e-11
-1.59263e-10
-7.4534e-18
2.48146e-11
-1.7969e-10
-4.66889e-18
2.73005e-11
-2.01955e-10
-7.287e-18
2.97996e-11
-2.26146e-10
-1.68762e-17
3.22665e-11
-2.523e-10
-2.26083e-17
-2.8066e-10
-1.5256e-17
-1.73615e-19
-6.92766e-17
-3.68312e-19
4.63e-17
-1.52447e-15
-1.24032e-18
3.12081e-16
-7.42048e-15
1.10147e-18
1.08472e-15
-2.18096e-14
5.03909e-18
2.70392e-15
-4.99554e-14
2.01274e-18
6.10396e-15
-9.83405e-14
3.7903e-17
1.21598e-14
-1.7539e-13
3.13316e-17
2.24419e-14
-2.90579e-13
9.18152e-17
3.63243e-14
-4.55863e-13
-8.42938e-17
5.80514e-14
-6.85561e-13
-2.05813e-17
9.00861e-14
-9.96194e-13
-1.68669e-18
1.34771e-13
-1.40738e-12
-2.76688e-17
1.9621e-13
-1.94209e-12
-1.88808e-17
2.78688e-13
-2.62621e-12
-2.0842e-17
3.87351e-13
-3.49019e-12
-2.14176e-17
5.28112e-13
-4.56767e-12
-3.2001e-17
7.08186e-13
-5.89723e-12
1.9279e-18
9.34734e-13
-7.52185e-12
-1.96876e-17
1.21659e-12
-9.48934e-12
-1.83227e-17
1.56329e-12
-1.18519e-11
-1.74917e-17
1.985e-12
-1.46668e-11
-1.68975e-17
2.4926e-12
-1.79976e-11
-1.21304e-17
3.09736e-12
-2.19085e-11
-8.6605e-18
3.81089e-12
-2.64738e-11
-8.0339e-18
4.64493e-12
-3.17662e-11
-4.28227e-18
5.61092e-12
-3.78663e-11
-5.60781e-18
6.71963e-12
-4.48561e-11
-5.88176e-18
7.98057e-12
-5.28149e-11
-6.7469e-18
9.40147e-12
-6.18374e-11
-9.32211e-18
1.09875e-11
-7.19989e-11
-1.04865e-17
1.27407e-11
-8.33918e-11
-1.11115e-17
1.466e-11
-9.61013e-11
-1.24565e-17
1.67395e-11
-1.10208e-10
-1.26803e-17
1.89688e-11
-1.25797e-10
-1.28315e-17
2.13322e-11
-1.42945e-10
-1.05127e-17
2.38077e-11
-1.61739e-10
-5.98369e-18
2.63672e-11
-1.8225e-10
-2.92534e-18
2.89761e-11
-2.04564e-10
-5.69816e-18
3.15927e-11
-2.28763e-10
-1.59788e-17
3.41687e-11
-2.54876e-10
-2.2114e-17
-2.83142e-10
-1.41993e-17
1.16191e-17
-7.1057e-17
8.28531e-19
1.40991e-16
-1.569e-15
8.52566e-18
4.00237e-16
-7.70202e-15
-5.7914e-18
1.22902e-15
-2.26563e-14
-4.96637e-18
2.79797e-15
-5.18597e-14
-3.49586e-17
6.06585e-15
-1.0195e-13
-2.52272e-17
1.29115e-14
-1.81578e-13
6.07963e-17
2.4099e-14
-3.00781e-13
9.56655e-17
3.91707e-14
-4.7184e-13
-7.94557e-17
6.2752e-14
-7.09495e-13
-1.11805e-17
9.73639e-14
-1.03073e-12
4.92226e-18
1.45626e-13
-1.45592e-12
-2.82101e-17
2.11972e-13
-2.0086e-12
-1.90075e-17
3.01032e-13
-2.71544e-12
-2.12694e-17
4.18311e-13
-3.60769e-12
-2.36541e-17
5.70184e-13
-4.71984e-12
-3.35638e-17
7.6434e-13
-6.09138e-12
-1.48705e-18
1.00851e-12
-7.76624e-12
-2.11743e-17
1.31211e-12
-9.79313e-12
-1.77034e-17
1.68529e-12
-1.22251e-11
-1.65525e-17
2.13887e-12
-1.51204e-11
-1.64689e-17
2.68439e-12
-1.8543e-11
-1.18214e-17
3.33375e-12
-2.25579e-11
-8.54025e-18
4.09919e-12
-2.72394e-11
-7.96548e-18
4.99299e-12
-3.26603e-11
-4.29316e-18
6.02707e-12
-3.89008e-11
-5.66457e-18
7.21254e-12
-4.60419e-11
-6.02245e-18
8.55907e-12
-5.41615e-11
-6.81837e-18
1.00744e-11
-6.33526e-11
-9.43806e-18
1.17634e-11
-7.36876e-11
-1.04503e-17
1.36276e-11
-8.52558e-11
-1.09105e-17
1.56651e-11
-9.81386e-11
-1.20743e-17
1.78689e-11
-1.12412e-10
-1.20919e-17
2.02272e-11
-1.28156e-10
-1.20443e-17
2.27226e-11
-1.45441e-10
-9.44073e-18
2.53311e-11
-1.64348e-10
-4.54348e-18
2.80223e-11
-1.84941e-10
-1.27965e-18
3.07591e-11
-2.07301e-10
-4.23717e-18
3.3497e-11
-2.31501e-10
-1.51805e-17
3.61852e-11
-2.57564e-10
-2.16892e-17
-2.85724e-10
-1.32455e-17
1.3743e-17
-7.3285e-17
1.02135e-18
1.52943e-16
-1.62368e-15
8.49596e-18
4.62511e-16
-8.027e-15
-4.91097e-18
1.42789e-15
-2.3623e-14
-2.96964e-18
3.16598e-15
-5.38846e-14
-2.86226e-17
6.61914e-15
-1.05795e-13
-3.27003e-17
1.39025e-14
-1.88164e-13
6.32216e-17
2.59065e-14
-3.11563e-13
1.22149e-16
4.22304e-14
-4.89222e-13
-9.65605e-17
6.77755e-14
-7.35459e-13
-1.83477e-17
1.0522e-13
-1.06816e-12
-2.48279e-18
1.57508e-13
-1.50848e-12
-2.98457e-17
2.29253e-13
-2.08057e-12
-2.60374e-17
3.25523e-13
-2.81193e-12
-2.75028e-17
4.52233e-13
-3.73467e-12
-3.01069e-17
6.16247e-13
-4.8842e-12
-3.87452e-17
8.25779e-13
-6.30096e-12
-7.09914e-18
1.08916e-12
-8.02987e-12
-2.60649e-17
1.41643e-12
-1.01206e-11
-2.47231e-17
1.81841e-12
-1.26272e-11
-2.28012e-17
2.30661e-12
-1.56086e-11
-2.11258e-17
2.89328e-12
-1.91297e-11
-1.48028e-17
3.59098e-12
-2.32556e-11
-1.04949e-17
4.41259e-12
-2.80612e-11
-9.13793e-18
5.37096e-12
-3.3619e-11
-5.03276e-18
6.47846e-12
-4.00086e-11
-6.04709e-18
7.74654e-12
-4.73103e-11
-6.17675e-18
9.18499e-12
-5.56e-11
-6.69735e-18
1.08015e-11
-6.49689e-11
-9.22992e-18
1.26005e-11
-7.54863e-11
-1.00675e-17
1.45831e-11
-8.72381e-11
-1.03946e-17
1.67461e-11
-1.00302e-10
-1.14235e-17
1.90817e-11
-1.14748e-10
-1.12962e-17
2.15763e-11
-1.3065e-10
-1.11161e-17
2.42106e-11
-1.48076e-10
-8.30825e-18
2.69585e-11
-1.67096e-10
-3.13845e-18
2.9787e-11
-1.8777e-10
2.60302e-19
3.26566e-11
-2.10171e-10
-2.90927e-18
3.55198e-11
-2.34365e-10
-1.44768e-17
3.83229e-11
-2.60368e-10
-2.13261e-17
-2.88408e-10
-1.23847e-17
-4.57315e-18
-7.62648e-17
-1.04027e-18
2.88413e-17
-1.68882e-15
-4.87488e-18
4.70615e-16
-8.2947e-15
1.38823e-17
2.09127e-15
-2.44232e-14
9.14399e-17
4.07118e-15
-5.5881e-14
-3.51976e-18
7.93733e-15
-1.0983e-13
-1.20918e-17
1.51947e-14
-1.95562e-13
-1.80423e-17
2.70458e-14
-3.23852e-13
-3.69612e-17
4.57083e-14
-5.07918e-13
4.44049e-20
7.35304e-14
-7.63465e-13
-2.1137e-17
1.13934e-13
-1.10872e-12
-1.77168e-17
1.70494e-13
-1.56536e-12
-3.54437e-17
2.48151e-13
-2.15847e-12
-2.7614e-17
3.52334e-13
-2.91631e-12
-2.5848e-17
4.89386e-13
-3.87197e-12
-2.90461e-17
6.66691e-13
-5.06182e-12
-3.65808e-17
8.93034e-13
-6.52733e-12
-5.55744e-18
1.1774e-12
-8.31445e-12
-2.2828e-17
1.53049e-12
-1.04739e-11
-1.98556e-17
1.96384e-12
-1.30606e-11
-1.80038e-17
2.48971e-12
-1.61344e-11
-1.73336e-17
3.12107e-12
-1.97609e-11
-1.19536e-17
3.8712e-12
-2.40058e-11
-8.92759e-18
4.75365e-12
-2.89439e-11
-8.24639e-18
5.78182e-12
-3.46475e-11
-4.54415e-18
6.96855e-12
-4.11958e-11
-5.6808e-18
8.32557e-12
-4.86676e-11
-5.88085e-18
9.86277e-12
-5.71373e-11
-6.3291e-18
1.15877e-11
-6.66935e-11
-8.84488e-18
1.35043e-11
-7.74026e-11
-9.53262e-18
1.5613e-11
-8.93466e-11
-9.71741e-18
1.79096e-11
-1.02598e-10
-1.06044e-17
2.03847e-11
-1.17223e-10
-1.03494e-17
2.30232e-11
-1.33289e-10
-1.00774e-17
2.58035e-11
-1.50856e-10
-7.13369e-18
2.86973e-11
-1.6999e-10
-1.78169e-18
3.1669e-11
-1.90742e-10
1.68649e-18
3.46762e-11
-2.13178e-10
-1.7179e-18
3.76685e-11
-2.37357e-10
-1.38631e-17
4.05892e-11
-2.63288e-10
-2.10147e-17
-2.91195e-10
-1.161e-17
-3.36735e-18
-7.95259e-17
-9.37181e-19
3.26125e-17
-1.76091e-15
-5.37706e-18
5.3037e-16
-8.60555e-15
1.50674e-17
2.35044e-15
-2.5334e-14
1.01169e-16
4.56296e-15
-5.80653e-14
3.36135e-18
8.6148e-15
-1.14266e-13
-3.54008e-17
1.64026e-14
-2.03462e-13
-1.63101e-17
2.92543e-14
-3.36908e-13
-1.32711e-17
4.94323e-14
-5.2832e-13
-2.18147e-17
7.963e-14
-7.93939e-13
-3.11462e-17
1.23455e-13
-1.15276e-12
-2.18799e-17
1.84873e-13
-1.62707e-12
-3.05355e-17
2.69035e-13
-2.24289e-12
-3.0442e-17
3.81881e-13
-3.02936e-12
-2.74003e-17
5.30252e-13
-4.0206e-12
-3.06295e-17
7.22092e-13
-5.25398e-12
-3.78519e-17
9.66821e-13
-6.77209e-12
-6.75584e-18
1.2741e-12
-8.62195e-12
-2.40496e-17
1.65536e-12
-1.08554e-11
-2.2531e-17
2.12291e-12
-1.35282e-11
-2.09803e-17
2.68978e-12
-1.67013e-11
-1.99254e-17
3.36974e-12
-2.04408e-11
-1.3767e-17
4.1768e-12
-2.48128e-11
-1.01204e-17
5.12518e-12
-2.98924e-11
-8.7316e-18
6.22887e-12
-3.57515e-11
-4.57314e-18
7.50114e-12
-4.24684e-11
-5.32927e-18
8.95399e-12
-5.01208e-11
-5.32924e-18
1.05973e-11
-5.87806e-11
-5.59601e-18
1.24384e-11
-6.85344e-11
-8.05496e-18
1.44808e-11
-7.94447e-11
-8.62999e-18
1.6724e-11
-9.15894e-11
-8.73369e-18
1.91625e-11
-1.05036e-10
-9.54098e-18
2.17854e-11
-1.19846e-10
-9.2274e-18
2.45756e-11
-1.3608e-10
-8.93389e-18
2.75094e-11
-1.5379e-10
-5.93569e-18
3.05558e-11
-1.73037e-10
-4.93288e-19
3.36766e-11
-1.93863e-10
2.98006e-18
3.68261e-11
-2.16328e-10
-6.73113e-19
3.99511e-11
-2.40483e-10
-1.3342e-17
4.29917e-11
-2.66329e-10
-2.0753e-17
-2.94086e-10
-1.09197e-17
-2.81037e-18
-8.28484e-17
-8.61661e-19
4.73486e-17
-1.83558e-15
-3.78704e-18
5.54733e-16
-8.96533e-15
1.14312e-17
2.36913e-15
-2.63925e-14
8.40047e-17
4.77422e-15
-6.04842e-14
-2.10865e-18
9.17253e-15
-1.19087e-13
-3.75255e-17
1.76232e-14
-2.12052e-13
-2.41445e-17
3.16615e-14
-3.51051e-13
-1.23537e-17
5.35878e-14
-5.50455e-13
-1.97072e-17
8.64942e-14
-8.26999e-13
-1.9687e-17
1.34009e-13
-1.20049e-12
-2.53377e-17
2.0067e-13
-1.69399e-12
-2.99699e-17
2.91958e-13
-2.33444e-12
-3.15226e-17
4.14322e-13
-3.15193e-12