/*--------------------------------*- C++ -*----------------------------------*\
| =========                 |                                                 |
| \\      /  F ield         | OpenFOAM: The Open Source CFD Toolbox           |
|  \\    /   O peration     | Version:  v2012                                 |
|   \\  /    A nd           | Website:  www.openfoam.com                      |
|    \\/     M anipulation  |                                                 |
\*---------------------------------------------------------------------------*/
FoamFile
{
    version     2.0;
    format      ascii;
    class       volScalarField;
    location    "0.7";
    object      p_rgh;
}
// * * * * * * * * * * * * * * * * * * * * * * * * * * * * * * * * * * * * * //

dimensions      [1 -1 -2 0 0 0 0];


internalField   nonuniform List<scalar> 
3326
(
3.48691e+06
3.48693e+06
3.48693e+06
3.48689e+06
3.48683e+06
3.48673e+06
3.48659e+06
3.48643e+06
3.48617e+06
3.48665e+06
3.48674e+06
3.48681e+06
3.48686e+06
3.48688e+06
3.48688e+06
3.48685e+06
3.48678e+06
3.48669e+06
3.48655e+06
3.48639e+06
3.48613e+06
3.4706e+06
3.47335e+06
3.47444e+06
3.47586e+06
3.47678e+06
3.47768e+06
3.4784e+06
3.47905e+06
3.47962e+06
3.48013e+06
3.4806e+06
3.48103e+06
3.48143e+06
3.4818e+06
3.48216e+06
3.48249e+06
3.48281e+06
3.48312e+06
3.48342e+06
3.48371e+06
3.48399e+06
3.48426e+06
3.48452e+06
3.48477e+06
3.48502e+06
3.48525e+06
3.48547e+06
3.48567e+06
3.48587e+06
3.48605e+06
3.48621e+06
3.48636e+06
3.48649e+06
3.48661e+06
3.4867e+06
3.48677e+06
3.48682e+06
3.48684e+06
3.48684e+06
3.48681e+06
3.48674e+06
3.48665e+06
3.48651e+06
3.48635e+06
3.4861e+06
3.47294e+06
3.47542e+06
3.47624e+06
3.47744e+06
3.47815e+06
3.47886e+06
3.47942e+06
3.47992e+06
3.48036e+06
3.48077e+06
3.48114e+06
3.48148e+06
3.48181e+06
3.48212e+06
3.48242e+06
3.48271e+06
3.48299e+06
3.48327e+06
3.48354e+06
3.4838e+06
3.48406e+06
3.48431e+06
3.48455e+06
3.48479e+06
3.48502e+06
3.48524e+06
3.48546e+06
3.48566e+06
3.48585e+06
3.48602e+06
3.48618e+06
3.48633e+06
3.48646e+06
3.48657e+06
3.48666e+06
3.48673e+06
3.48678e+06
3.4868e+06
3.4868e+06
3.48677e+06
3.4867e+06
3.48661e+06
3.48647e+06
3.48632e+06
3.48607e+06
3.47554e+06
3.47764e+06
3.47819e+06
3.47911e+06
3.4796e+06
3.4801e+06
3.48048e+06
3.48083e+06
3.48114e+06
3.48142e+06
3.48169e+06
3.48195e+06
3.4822e+06
3.48244e+06
3.48269e+06
3.48293e+06
3.48317e+06
3.48341e+06
3.48365e+06
3.48389e+06
3.48413e+06
3.48436e+06
3.48459e+06
3.48481e+06
3.48503e+06
3.48524e+06
3.48545e+06
3.48564e+06
3.48583e+06
3.486e+06
3.48616e+06
3.4863e+06
3.48643e+06
3.48654e+06
3.48663e+06
3.4867e+06
3.48675e+06
3.48677e+06
3.48676e+06
3.48673e+06
3.48667e+06
3.48658e+06
3.48644e+06
3.48628e+06
3.48604e+06
3.47845e+06
3.48004e+06
3.48029e+06
3.48089e+06
3.48113e+06
3.48141e+06
3.48159e+06
3.48177e+06
3.48193e+06
3.48209e+06
3.48225e+06
3.48242e+06
3.48259e+06
3.48277e+06
3.48296e+06
3.48315e+06
3.48335e+06
3.48356e+06
3.48377e+06
3.48398e+06
3.48419e+06
3.48441e+06
3.48462e+06
3.48483e+06
3.48504e+06
3.48525e+06
3.48544e+06
3.48563e+06
3.48581e+06
3.48598e+06
3.48613e+06
3.48627e+06
3.4864e+06
3.48651e+06
3.4866e+06
3.48667e+06
3.48671e+06
3.48673e+06
3.48673e+06
3.4867e+06
3.48664e+06
3.48655e+06
3.48641e+06
3.48626e+06
3.48602e+06
3.48169e+06
3.48265e+06
3.48256e+06
3.48279e+06
3.48274e+06
3.48277e+06
3.48274e+06
3.48274e+06
3.48275e+06
3.48278e+06
3.48283e+06
3.4829e+06
3.48299e+06
3.4831e+06
3.48323e+06
3.48338e+06
3.48353e+06
3.4837e+06
3.48388e+06
3.48407e+06
3.48426e+06
3.48446e+06
3.48466e+06
3.48486e+06
3.48505e+06
3.48525e+06
3.48544e+06
3.48562e+06
3.48579e+06
3.48596e+06
3.48611e+06
3.48625e+06
3.48637e+06
3.48648e+06
3.48657e+06
3.48664e+06
3.48668e+06
3.4867e+06
3.4867e+06
3.48667e+06
3.48661e+06
3.48652e+06
3.48639e+06
3.48624e+06
3.486e+06
3.48525e+06
3.48546e+06
3.485e+06
3.4848e+06
3.48444e+06
3.48418e+06
3.48393e+06
3.48373e+06
3.48358e+06
3.48347e+06
3.4834e+06
3.48338e+06
3.48339e+06
3.48343e+06
3.4835e+06
3.4836e+06
3.48371e+06
3.48385e+06
3.484e+06
3.48416e+06
3.48433e+06
3.48451e+06
3.48469e+06
3.48488e+06
3.48507e+06
3.48525e+06
3.48543e+06
3.48561e+06
3.48578e+06
3.48594e+06
3.48609e+06
3.48623e+06
3.48635e+06
3.48645e+06
3.48654e+06
3.48661e+06
3.48665e+06
3.48668e+06
3.48667e+06
3.48664e+06
3.48658e+06
3.4865e+06
3.48637e+06
3.48622e+06
3.48598e+06
3.48912e+06
3.48849e+06
3.4876e+06
3.48691e+06
3.48622e+06
3.48565e+06
3.48515e+06
3.48475e+06
3.48442e+06
3.48417e+06
3.48399e+06
3.48386e+06
3.48379e+06
3.48376e+06
3.48377e+06
3.48381e+06
3.48389e+06
3.48399e+06
3.48411e+06
3.48425e+06
3.4844e+06
3.48456e+06
3.48473e+06
3.4849e+06
3.48508e+06
3.48526e+06
3.48543e+06
3.4856e+06
3.48577e+06
3.48593e+06
3.48607e+06
3.48621e+06
3.48633e+06
3.48643e+06
3.48652e+06
3.48658e+06
3.48663e+06
3.48665e+06
3.48665e+06
3.48662e+06
3.48656e+06
3.48647e+06
3.48635e+06
3.4862e+06
3.48597e+06
3.49329e+06
3.49174e+06
3.49034e+06
3.48913e+06
3.48806e+06
3.48716e+06
3.4864e+06
3.48578e+06
3.48527e+06
3.48487e+06
3.48456e+06
3.48433e+06
3.48418e+06
3.48408e+06
3.48403e+06
3.48403e+06
3.48406e+06
3.48413e+06
3.48422e+06
3.48433e+06
3.48446e+06
3.48461e+06
3.48477e+06
3.48493e+06
3.4851e+06
3.48526e+06
3.48543e+06
3.4856e+06
3.48576e+06
3.48591e+06
3.48606e+06
3.48619e+06
3.48631e+06
3.48641e+06
3.4865e+06
3.48656e+06
3.48661e+06
3.48663e+06
3.48663e+06
3.4866e+06
3.48654e+06
3.48646e+06
3.48633e+06
3.48618e+06
3.48596e+06
3.49772e+06
3.4952e+06
3.49321e+06
3.49144e+06
3.48995e+06
3.4887e+06
3.48766e+06
3.48681e+06
3.48612e+06
3.48556e+06
3.48513e+06
3.4848e+06
3.48456e+06
3.48439e+06
3.48429e+06
3.48424e+06
3.48423e+06
3.48426e+06
3.48433e+06
3.48442e+06
3.48453e+06
3.48466e+06
3.4848e+06
3.48495e+06
3.48511e+06
3.48527e+06
3.48543e+06
3.4856e+06
3.48575e+06
3.4859e+06
3.48604e+06
3.48617e+06
3.48629e+06
3.48639e+06
3.48648e+06
3.48654e+06
3.48659e+06
3.48661e+06
3.48661e+06
3.48658e+06
3.48652e+06
3.48644e+06
3.48632e+06
3.48617e+06
3.48595e+06
3.50236e+06
3.49883e+06
3.49618e+06
3.49381e+06
3.49187e+06
3.49025e+06
3.48892e+06
3.48783e+06
3.48695e+06
3.48624e+06
3.48569e+06
3.48525e+06
3.48493e+06
3.48469e+06
3.48453e+06
3.48443e+06
3.48439e+06
3.48439e+06
3.48443e+06
3.4845e+06
3.48459e+06
3.4847e+06
3.48483e+06
3.48497e+06
3.48512e+06
3.48528e+06
3.48544e+06
3.48559e+06
3.48575e+06
3.48589e+06
3.48603e+06
3.48616e+06
3.48628e+06
3.48638e+06
3.48646e+06
3.48653e+06
3.48657e+06
3.4866e+06
3.48659e+06
3.48657e+06
3.48651e+06
3.48643e+06
3.48631e+06
3.48617e+06
3.48595e+06
3.5072e+06
3.50261e+06
3.49921e+06
3.49621e+06
3.4938e+06
3.49179e+06
3.49016e+06
3.48883e+06
3.48776e+06
3.4869e+06
3.48622e+06
3.48569e+06
3.48528e+06
3.48498e+06
3.48476e+06
3.48462e+06
3.48454e+06
3.48451e+06
3.48452e+06
3.48457e+06
3.48465e+06
3.48475e+06
3.48486e+06
3.485e+06
3.48514e+06
3.48529e+06
3.48544e+06
3.48559e+06
3.48574e+06
3.48589e+06
3.48602e+06
3.48615e+06
3.48627e+06
3.48637e+06
3.48645e+06
3.48651e+06
3.48656e+06
3.48658e+06
3.48658e+06
3.48655e+06
3.4865e+06
3.48642e+06
3.4863e+06
3.48616e+06
3.48595e+06
3.5122e+06
3.50651e+06
3.50226e+06
3.4986e+06
3.49569e+06
3.49329e+06
3.49136e+06
3.48979e+06
3.48853e+06
3.48752e+06
3.48672e+06
3.4861e+06
3.48561e+06
3.48525e+06
3.48498e+06
3.4848e+06
3.48468e+06
3.48462e+06
3.48461e+06
3.48464e+06
3.4847e+06
3.48479e+06
3.48489e+06
3.48502e+06
3.48515e+06
3.48529e+06
3.48544e+06
3.48559e+06
3.48574e+06
3.48588e+06
3.48602e+06
3.48614e+06
3.48626e+06
3.48636e+06
3.48644e+06
3.4865e+06
3.48655e+06
3.48657e+06
3.48657e+06
3.48654e+06
3.48649e+06
3.48641e+06
3.48629e+06
3.48616e+06
3.48596e+06
3.51731e+06
3.51046e+06
3.50526e+06
3.50094e+06
3.49751e+06
3.49473e+06
3.49249e+06
3.4907e+06
3.48926e+06
3.48811e+06
3.48719e+06
3.48648e+06
3.48592e+06
3.4855e+06
3.48518e+06
3.48496e+06
3.48481e+06
3.48473e+06
3.48469e+06
3.4847e+06
3.48475e+06
3.48482e+06
3.48492e+06
3.48504e+06
3.48516e+06
3.4853e+06
3.48545e+06
3.48559e+06
3.48574e+06
3.48588e+06
3.48601e+06
3.48614e+06
3.48625e+06
3.48635e+06
3.48643e+06
3.4865e+06
3.48654e+06
3.48656e+06
3.48656e+06
3.48654e+06
3.48648e+06
3.48641e+06
3.48629e+06
3.48616e+06
3.48596e+06
3.52232e+06
3.51434e+06
3.50809e+06
3.50314e+06
3.4992e+06
3.49605e+06
3.49354e+06
3.49152e+06
3.48992e+06
3.48863e+06
3.48762e+06
3.48682e+06
3.4862e+06
3.48572e+06
3.48536e+06
3.4851e+06
3.48493e+06
3.48482e+06
3.48477e+06
3.48476e+06
3.48479e+06
3.48486e+06
3.48495e+06
3.48505e+06
3.48518e+06
3.48531e+06
3.48545e+06
3.48559e+06
3.48573e+06
3.48587e+06
3.48601e+06
3.48613e+06
3.48624e+06
3.48634e+06
3.48643e+06
3.48649e+06
3.48653e+06
3.48656e+06
3.48656e+06
3.48653e+06
3.48648e+06
3.4864e+06
3.48629e+06
3.48617e+06
3.48597e+06
3.52663e+06
3.51781e+06
3.5106e+06
3.5051e+06
3.5007e+06
3.49723e+06
3.49446e+06
3.49225e+06
3.4905e+06
3.4891e+06
3.48799e+06
3.48712e+06
3.48644e+06
3.48592e+06
3.48552e+06
3.48523e+06
3.48503e+06
3.4849e+06
3.48483e+06
3.48481e+06
3.48483e+06
3.48489e+06
3.48497e+06
3.48507e+06
3.48519e+06
3.48532e+06
3.48545e+06
3.48559e+06
3.48573e+06
3.48587e+06
3.486e+06
3.48613e+06
3.48624e+06
3.48634e+06
3.48642e+06
3.48649e+06
3.48653e+06
3.48655e+06
3.48655e+06
3.48653e+06
3.48648e+06
3.4864e+06
3.4863e+06
3.48617e+06
3.48599e+06
3.53e+06
3.52063e+06
3.51266e+06
3.50673e+06
3.50194e+06
3.49821e+06
3.49523e+06
3.49287e+06
3.49099e+06
3.48949e+06
3.48831e+06
3.48738e+06
3.48665e+06
3.48608e+06
3.48566e+06
3.48534e+06
3.48512e+06
3.48497e+06
3.48489e+06
3.48486e+06
3.48487e+06
3.48491e+06
3.48499e+06
3.48508e+06
3.4852e+06
3.48532e+06
3.48546e+06
3.4856e+06
3.48574e+06
3.48587e+06
3.486e+06
3.48613e+06
3.48624e+06
3.48634e+06
3.48642e+06
3.48649e+06
3.48653e+06
3.48655e+06
3.48655e+06
3.48653e+06
3.48648e+06
3.48641e+06
3.4863e+06
3.48618e+06
3.486e+06
3.53254e+06
3.52269e+06
3.51422e+06
3.50797e+06
3.50291e+06
3.49898e+06
3.49584e+06
3.49335e+06
3.49138e+06
3.48981e+06
3.48857e+06
3.48758e+06
3.48682e+06
3.48622e+06
3.48577e+06
3.48543e+06
3.48519e+06
3.48503e+06
3.48493e+06
3.48489e+06
3.48489e+06
3.48493e+06
3.485e+06
3.48509e+06
3.4852e+06
3.48533e+06
3.48546e+06
3.4856e+06
3.48574e+06
3.48587e+06
3.48601e+06
3.48613e+06
3.48624e+06
3.48634e+06
3.48642e+06
3.48649e+06
3.48653e+06
3.48656e+06
3.48656e+06
3.48653e+06
3.48648e+06
3.48641e+06
3.48631e+06
3.4862e+06
3.48602e+06
3.53428e+06
3.52395e+06
3.51525e+06
3.50879e+06
3.50356e+06
3.4995e+06
3.49626e+06
3.4937e+06
3.49166e+06
3.49004e+06
3.48875e+06
3.48774e+06
3.48694e+06
3.48633e+06
3.48585e+06
3.4855e+06
3.48525e+06
3.48507e+06
3.48497e+06
3.48492e+06
3.48492e+06
3.48495e+06
3.48501e+06
3.4851e+06
3.48521e+06
3.48533e+06
3.48546e+06
3.4856e+06
3.48574e+06
3.48588e+06
3.48601e+06
3.48613e+06
3.48625e+06
3.48635e+06
3.48643e+06
3.48649e+06
3.48654e+06
3.48656e+06
3.48656e+06
3.48654e+06
3.48649e+06
3.48642e+06
3.48632e+06
3.48621e+06
3.48604e+06
3.53502e+06
3.5244e+06
3.51572e+06
3.50916e+06
3.50389e+06
3.49977e+06
3.49649e+06
3.49389e+06
3.49182e+06
3.49018e+06
3.48887e+06
3.48784e+06
3.48703e+06
3.4864e+06
3.48591e+06
3.48555e+06
3.48529e+06
3.48511e+06
3.48499e+06
3.48494e+06
3.48493e+06
3.48496e+06
3.48502e+06
3.48511e+06
3.48522e+06
3.48534e+06
3.48547e+06
3.48561e+06
3.48575e+06
3.48588e+06
3.48602e+06
3.48614e+06
3.48625e+06
3.48635e+06
3.48644e+06
3.4865e+06
3.48655e+06
3.48657e+06
3.48657e+06
3.48655e+06
3.4865e+06
3.48643e+06
3.48633e+06
3.48623e+06
3.48607e+06
3.53485e+06
3.52414e+06
3.51564e+06
3.5091e+06
3.50388e+06
3.49979e+06
3.49653e+06
3.49394e+06
3.49188e+06
3.49023e+06
3.48892e+06
3.48789e+06
3.48707e+06
3.48644e+06
3.48595e+06
3.48558e+06
3.48531e+06
3.48512e+06
3.48501e+06
3.48495e+06
3.48494e+06
3.48497e+06
3.48503e+06
3.48511e+06
3.48522e+06
3.48534e+06
3.48547e+06
3.48561e+06
3.48575e+06
3.48589e+06
3.48602e+06
3.48615e+06
3.48626e+06
3.48636e+06
3.48645e+06
3.48651e+06
3.48656e+06
3.48658e+06
3.48658e+06
3.48656e+06
3.48651e+06
3.48644e+06
3.48635e+06
3.48624e+06
3.48609e+06
3.53377e+06
3.52319e+06
3.51501e+06
3.50861e+06
3.50355e+06
3.49956e+06
3.49637e+06
3.49384e+06
3.49181e+06
3.4902e+06
3.48891e+06
3.48788e+06
3.48707e+06
3.48644e+06
3.48595e+06
3.48558e+06
3.48532e+06
3.48513e+06
3.48501e+06
3.48495e+06
3.48494e+06
3.48497e+06
3.48503e+06
3.48512e+06
3.48522e+06
3.48534e+06
3.48548e+06
3.48562e+06
3.48576e+06
3.4859e+06
3.48603e+06
3.48616e+06
3.48627e+06
3.48637e+06
3.48646e+06
3.48652e+06
3.48657e+06
3.48659e+06
3.48659e+06
3.48657e+06
3.48652e+06
3.48645e+06
3.48636e+06
3.48626e+06
3.48612e+06
3.53178e+06
3.52158e+06
3.51385e+06
3.50773e+06
3.50291e+06
3.49909e+06
3.49604e+06
3.4936e+06
3.49165e+06
3.49008e+06
3.48883e+06
3.48783e+06
3.48704e+06
3.48642e+06
3.48594e+06
3.48557e+06
3.48531e+06
3.48512e+06
3.48501e+06
3.48495e+06
3.48494e+06
3.48497e+06
3.48503e+06
3.48512e+06
3.48522e+06
3.48535e+06
3.48548e+06
3.48562e+06
3.48576e+06
3.48591e+06
3.48604e+06
3.48617e+06
3.48629e+06
3.48639e+06
3.48647e+06
3.48654e+06
3.48659e+06
3.48661e+06
3.48661e+06
3.48658e+06
3.48653e+06
3.48647e+06
3.48638e+06
3.48628e+06
3.48615e+06
3.52883e+06
3.51931e+06
3.51217e+06
3.50647e+06
3.50199e+06
3.49841e+06
3.49554e+06
3.49324e+06
3.49138e+06
3.48989e+06
3.48869e+06
3.48773e+06
3.48696e+06
3.48636e+06
3.4859e+06
3.48554e+06
3.48528e+06
3.4851e+06
3.48499e+06
3.48494e+06
3.48493e+06
3.48496e+06
3.48502e+06
3.48511e+06
3.48522e+06
3.48535e+06
3.48548e+06
3.48563e+06
3.48577e+06
3.48592e+06
3.48606e+06
3.48618e+06
3.4863e+06
3.48641e+06
3.48649e+06
3.48656e+06
3.4866e+06
3.48663e+06
3.48662e+06
3.4866e+06
3.48655e+06
3.48648e+06
3.4864e+06
3.4863e+06
3.48618e+06
3.52492e+06
3.51642e+06
3.51003e+06
3.50488e+06
3.50082e+06
3.49754e+06
3.49491e+06
3.49277e+06
3.49104e+06
3.48963e+06
3.4885e+06
3.48759e+06
3.48686e+06
3.48628e+06
3.48583e+06
3.48549e+06
3.48524e+06
3.48507e+06
3.48497e+06
3.48492e+06
3.48491e+06
3.48495e+06
3.48501e+06
3.48511e+06
3.48522e+06
3.48535e+06
3.48549e+06
3.48563e+06
3.48578e+06
3.48593e+06
3.48607e+06
3.4862e+06
3.48632e+06
3.48643e+06
3.48651e+06
3.48658e+06
3.48663e+06
3.48665e+06
3.48664e+06
3.48662e+06
3.48657e+06
3.4865e+06
3.48641e+06
3.48633e+06
3.48621e+06
3.52021e+06
3.51304e+06
3.50752e+06
3.50304e+06
3.49946e+06
3.49653e+06
3.49415e+06
3.49221e+06
3.49062e+06
3.48932e+06
3.48827e+06
3.48741e+06
3.48672e+06
3.48618e+06
3.48575e+06
3.48543e+06
3.48519e+06
3.48503e+06
3.48493e+06
3.48489e+06
3.48489e+06
3.48493e+06
3.485e+06
3.4851e+06
3.48522e+06
3.48535e+06
3.48549e+06
3.48564e+06
3.48579e+06
3.48594e+06
3.48609e+06
3.48622e+06
3.48634e+06
3.48645e+06
3.48654e+06
3.4866e+06
3.48665e+06
3.48667e+06
3.48667e+06
3.48664e+06
3.48659e+06
3.48652e+06
3.48644e+06
3.48635e+06
3.48624e+06
3.53194e+06
3.52222e+06
3.51505e+06
3.50935e+06
3.50479e+06
3.50103e+06
3.49796e+06
3.49542e+06
3.49333e+06
3.49159e+06
3.49016e+06
3.48897e+06
3.488e+06
3.48721e+06
3.48657e+06
3.48606e+06
3.48565e+06
3.48535e+06
3.48513e+06
3.48498e+06
3.48489e+06
3.48485e+06
3.48486e+06
3.48491e+06
3.48498e+06
3.48509e+06
3.48521e+06
3.48535e+06
3.4855e+06
3.48565e+06
3.48581e+06
3.48596e+06
3.48611e+06
3.48624e+06
3.48637e+06
3.48647e+06
3.48656e+06
3.48663e+06
3.48668e+06
3.4867e+06
3.48669e+06
3.48666e+06
3.48661e+06
3.48654e+06
3.48646e+06
3.48637e+06
3.48627e+06
3.52289e+06
3.51515e+06
3.50992e+06
3.5056e+06
3.50201e+06
3.49896e+06
3.49642e+06
3.49427e+06
3.49246e+06
3.49094e+06
3.48966e+06
3.48859e+06
3.48771e+06
3.48698e+06
3.48639e+06
3.48591e+06
3.48554e+06
3.48526e+06
3.48505e+06
3.48492e+06
3.48484e+06
3.48481e+06
3.48483e+06
3.48488e+06
3.48497e+06
3.48507e+06
3.4852e+06
3.48535e+06
3.4855e+06
3.48566e+06
3.48582e+06
3.48598e+06
3.48613e+06
3.48627e+06
3.48639e+06
3.4865e+06
3.48659e+06
3.48666e+06
3.48671e+06
3.48673e+06
3.48672e+06
3.48669e+06
3.48664e+06
3.48656e+06
3.48648e+06
3.4864e+06
3.4863e+06
3.51504e+06
3.50848e+06
3.50512e+06
3.50197e+06
3.49931e+06
3.49693e+06
3.49489e+06
3.49311e+06
3.49158e+06
3.49027e+06
3.48915e+06
3.4882e+06
3.4874e+06
3.48674e+06
3.4862e+06
3.48576e+06
3.48542e+06
3.48516e+06
3.48497e+06
3.48485e+06
3.48478e+06
3.48476e+06
3.48479e+06
3.48485e+06
3.48494e+06
3.48506e+06
3.48519e+06
3.48534e+06
3.4855e+06
3.48567e+06
3.48583e+06
3.486e+06
3.48615e+06
3.48629e+06
3.48642e+06
3.48653e+06
3.48663e+06
3.4867e+06
3.48674e+06
3.48676e+06
3.48675e+06
3.48672e+06
3.48666e+06
3.48659e+06
3.4865e+06
3.48642e+06
3.48633e+06
3.50832e+06
3.50281e+06
3.50088e+06
3.49872e+06
3.49684e+06
3.49505e+06
3.49345e+06
3.49201e+06
3.49073e+06
3.48961e+06
3.48864e+06
3.4878e+06
3.48709e+06
3.48649e+06
3.48599e+06
3.48559e+06
3.48528e+06
3.48504e+06
3.48487e+06
3.48476e+06
3.48471e+06
3.48471e+06
3.48474e+06
3.48482e+06
3.48492e+06
3.48504e+06
3.48518e+06
3.48534e+06
3.48551e+06
3.48568e+06
3.48585e+06
3.48602e+06
3.48618e+06
3.48632e+06
3.48646e+06
3.48657e+06
3.48666e+06
3.48673e+06
3.48678e+06
3.48679e+06
3.48678e+06
3.48675e+06
3.48669e+06
3.48661e+06
3.48652e+06
3.48644e+06
3.48636e+06
3.50252e+06
3.49814e+06
3.4972e+06
3.49586e+06
3.49464e+06
3.49334e+06
3.49213e+06
3.49098e+06
3.48993e+06
3.48898e+06
3.48814e+06
3.4874e+06
3.48677e+06
3.48623e+06
3.48578e+06
3.48541e+06
3.48513e+06
3.48491e+06
3.48476e+06
3.48467e+06
3.48464e+06
3.48465e+06
3.48469e+06
3.48478e+06
3.48489e+06
3.48502e+06
3.48517e+06
3.48534e+06
3.48551e+06
3.48569e+06
3.48587e+06
3.48604e+06
3.4862e+06
3.48635e+06
3.48649e+06
3.48661e+06
3.4867e+06
3.48677e+06
3.48682e+06
3.48683e+06
3.48682e+06
3.48678e+06
3.48672e+06
3.48664e+06
3.48654e+06
3.48646e+06
3.48639e+06
3.49806e+06
3.49474e+06
3.49432e+06
3.49359e+06
3.49281e+06
3.49189e+06
3.49097e+06
3.49006e+06
3.4892e+06
3.48839e+06
3.48766e+06
3.48701e+06
3.48645e+06
3.48596e+06
3.48555e+06
3.48522e+06
3.48497e+06
3.48478e+06
3.48465e+06
3.48457e+06
3.48455e+06
3.48457e+06
3.48464e+06
3.48473e+06
3.48485e+06
3.485e+06
3.48516e+06
3.48533e+06
3.48552e+06
3.4857e+06
3.48589e+06
3.48606e+06
3.48623e+06
3.48639e+06
3.48653e+06
3.48665e+06
3.48674e+06
3.48682e+06
3.48686e+06
3.48687e+06
3.48686e+06
3.48682e+06
3.48675e+06
3.48666e+06
3.48656e+06
3.48648e+06
3.48641e+06
3.49426e+06
3.49193e+06
3.49185e+06
3.49162e+06
3.49121e+06
3.49061e+06
3.48993e+06
3.48922e+06
3.48851e+06
3.48783e+06
3.4872e+06
3.48663e+06
3.48612e+06
3.48568e+06
3.48532e+06
3.48502e+06
3.48479e+06
3.48462e+06
3.48452e+06
3.48446e+06
3.48446e+06
3.4845e+06
3.48457e+06
3.48468e+06
3.48481e+06
3.48497e+06
3.48514e+06
3.48533e+06
3.48552e+06
3.48571e+06
3.48591e+06
3.48609e+06
3.48627e+06
3.48643e+06
3.48657e+06
3.48669e+06
3.48679e+06
3.48686e+06
3.48691e+06
3.48692e+06
3.4869e+06
3.48685e+06
3.48678e+06
3.48669e+06
3.48659e+06
3.4865e+06
3.48643e+06
3.49205e+06
3.49039e+06
3.49026e+06
3.49027e+06
3.49002e+06
3.48959e+06
3.48907e+06
3.48849e+06
3.4879e+06
3.48731e+06
3.48675e+06
3.48624e+06
3.48579e+06
3.4854e+06
3.48507e+06
3.4848e+06
3.4846e+06
3.48446e+06
3.48437e+06
3.48434e+06
3.48435e+06
3.48441e+06
3.4845e+06
3.48462e+06
3.48477e+06
3.48494e+06
3.48513e+06
3.48532e+06
3.48552e+06
3.48573e+06
3.48593e+06
3.48612e+06
3.4863e+06
3.48647e+06
3.48662e+06
3.48674e+06
3.48684e+06
3.48691e+06
3.48696e+06
3.48697e+06
3.48695e+06
3.48689e+06
3.48681e+06
3.48672e+06
3.48661e+06
3.48651e+06
3.48644e+06
3.489e+06
3.48824e+06
3.48841e+06
3.48874e+06
3.48876e+06
3.48856e+06
3.4882e+06
3.48776e+06
3.48728e+06
3.48678e+06
3.4863e+06
3.48585e+06
3.48544e+06
3.48509e+06
3.4848e+06
3.48456e+06
3.48439e+06
3.48428e+06
3.48421e+06
3.4842e+06
3.48424e+06
3.48431e+06
3.48442e+06
3.48456e+06
3.48473e+06
3.48491e+06
3.48511e+06
3.48532e+06
3.48553e+06
3.48574e+06
3.48595e+06
3.48615e+06
3.48634e+06
3.48651e+06
3.48666e+06
3.48679e+06
3.48689e+06
3.48697e+06
3.48701e+06
3.48702e+06
3.48699e+06
3.48694e+06
3.48685e+06
3.48674e+06
3.48662e+06
3.48652e+06
3.48645e+06
3.4874e+06
3.4871e+06
3.48736e+06
3.48778e+06
3.48787e+06
3.48776e+06
3.48749e+06
3.48712e+06
3.48671e+06
3.48627e+06
3.48584e+06
3.48544e+06
3.48507e+06
3.48476e+06
3.4845e+06
3.4843e+06
3.48415e+06
3.48407e+06
3.48403e+06
3.48404e+06
3.4841e+06
3.4842e+06
3.48433e+06
3.48449e+06
3.48467e+06
3.48487e+06
3.48508e+06
3.48531e+06
3.48553e+06
3.48576e+06
3.48598e+06
3.48619e+06
3.48638e+06
3.48656e+06
3.48672e+06
3.48685e+06
3.48696e+06
3.48703e+06
3.48707e+06
3.48708e+06
3.48705e+06
3.48699e+06
3.48689e+06
3.48677e+06
3.48664e+06
3.48653e+06
3.48645e+06
3.48218e+06
3.48339e+06
3.48496e+06
3.486e+06
3.48647e+06
3.48662e+06
3.48654e+06
3.48632e+06
3.48601e+06
3.48565e+06
3.48529e+06
3.48495e+06
3.48464e+06
3.48437e+06
3.48415e+06
3.48399e+06
3.48389e+06
3.48383e+06
3.48383e+06
3.48387e+06
3.48396e+06
3.48408e+06
3.48423e+06
3.48441e+06
3.48461e+06
3.48483e+06
3.48506e+06
3.4853e+06
3.48554e+06
3.48577e+06
3.486e+06
3.48622e+06
3.48642e+06
3.48661e+06
3.48677e+06
3.48691e+06
3.48701e+06
3.48709e+06
3.48713e+06
3.48713e+06
3.4871e+06
3.48703e+06
3.48693e+06
3.4868e+06
3.48666e+06
3.48653e+06
3.48644e+06
3.48691e+06
3.48693e+06
3.48693e+06
3.48689e+06
3.48683e+06
3.48673e+06
3.48659e+06
3.48643e+06
3.48617e+06
3.48665e+06
3.48674e+06
3.48681e+06
3.48686e+06
3.48688e+06
3.48688e+06
3.48685e+06
3.48678e+06
3.48669e+06
3.48655e+06
3.48639e+06
3.48613e+06
3.4706e+06
3.47335e+06
3.47444e+06
3.47586e+06
3.47678e+06
3.47768e+06
3.4784e+06
3.47905e+06
3.47962e+06
3.48013e+06
3.4806e+06
3.48103e+06
3.48143e+06
3.4818e+06
3.48216e+06
3.48249e+06
3.48281e+06
3.48312e+06
3.48342e+06
3.48371e+06
3.48399e+06
3.48426e+06
3.48452e+06
3.48477e+06
3.48502e+06
3.48525e+06
3.48547e+06
3.48567e+06
3.48587e+06
3.48605e+06
3.48621e+06
3.48636e+06
3.48649e+06
3.48661e+06
3.4867e+06
3.48677e+06
3.48682e+06
3.48684e+06
3.48684e+06
3.48681e+06
3.48674e+06
3.48665e+06
3.48651e+06
3.48635e+06
3.4861e+06
3.47294e+06
3.47542e+06
3.47624e+06
3.47744e+06
3.47815e+06
3.47886e+06
3.47942e+06
3.47992e+06
3.48036e+06
3.48077e+06
3.48114e+06
3.48148e+06
3.48181e+06
3.48212e+06
3.48242e+06
3.48271e+06
3.48299e+06
3.48327e+06
3.48354e+06
3.4838e+06
3.48406e+06
3.48431e+06
3.48455e+06
3.48479e+06
3.48502e+06
3.48524e+06
3.48546e+06
3.48566e+06
3.48585e+06
3.48602e+06
3.48618e+06
3.48633e+06
3.48646e+06
3.48657e+06
3.48666e+06
3.48673e+06
3.48678e+06
3.4868e+06
3.4868e+06
3.48677e+06
3.4867e+06
3.48661e+06
3.48647e+06
3.48632e+06
3.48607e+06
3.47554e+06
3.47764e+06
3.47819e+06
3.47911e+06
3.4796e+06
3.4801e+06
3.48048e+06
3.48083e+06
3.48114e+06
3.48142e+06
3.48169e+06
3.48195e+06
3.4822e+06
3.48244e+06
3.48269e+06
3.48293e+06
3.48317e+06
3.48341e+06
3.48365e+06
3.48389e+06
3.48413e+06
3.48436e+06
3.48459e+06
3.48481e+06
3.48503e+06
3.48524e+06
3.48545e+06
3.48564e+06
3.48583e+06
3.486e+06
3.48616e+06
3.4863e+06
3.48643e+06
3.48654e+06
3.48663e+06
3.4867e+06
3.48675e+06
3.48677e+06
3.48676e+06
3.48673e+06
3.48667e+06
3.48658e+06
3.48644e+06
3.48628e+06
3.48604e+06
3.47845e+06
3.48004e+06
3.48029e+06
3.48089e+06
3.48113e+06
3.48141e+06
3.48159e+06
3.48177e+06
3.48193e+06
3.48209e+06
3.48225e+06
3.48242e+06
3.48259e+06
3.48277e+06
3.48296e+06
3.48315e+06
3.48335e+06
3.48356e+06
3.48377e+06
3.48398e+06
3.48419e+06
3.48441e+06
3.48462e+06
3.48483e+06
3.48504e+06
3.48525e+06
3.48544e+06
3.48563e+06
3.48581e+06
3.48598e+06
3.48613e+06
3.48627e+06
3.4864e+06
3.48651e+06
3.4866e+06
3.48667e+06
3.48671e+06
3.48673e+06
3.48673e+06
3.4867e+06
3.48664e+06
3.48655e+06
3.48641e+06
3.48626e+06
3.48602e+06
3.48169e+06
3.48265e+06
3.48256e+06
3.48279e+06
3.48274e+06
3.48277e+06
3.48274e+06
3.48274e+06
3.48275e+06
3.48278e+06
3.48283e+06
3.4829e+06
3.48299e+06
3.4831e+06
3.48323e+06
3.48338e+06
3.48353e+06
3.4837e+06
3.48388e+06
3.48407e+06
3.48426e+06
3.48446e+06
3.48466e+06
3.48486e+06
3.48505e+06
3.48525e+06
3.48544e+06
3.48562e+06
3.48579e+06
3.48596e+06
3.48611e+06
3.48625e+06
3.48637e+06
3.48648e+06
3.48657e+06
3.48664e+06
3.48668e+06
3.4867e+06
3.4867e+06
3.48667e+06
3.48661e+06
3.48652e+06
3.48639e+06
3.48624e+06
3.486e+06
3.48525e+06
3.48546e+06
3.485e+06
3.4848e+06
3.48444e+06
3.48418e+06
3.48393e+06
3.48373e+06
3.48358e+06
3.48347e+06
3.4834e+06
3.48338e+06
3.48339e+06
3.48343e+06
3.4835e+06
3.4836e+06
3.48371e+06
3.48385e+06
3.484e+06
3.48416e+06
3.48433e+06
3.48451e+06
3.48469e+06
3.48488e+06
3.48507e+06
3.48525e+06
3.48543e+06
3.48561e+06
3.48578e+06
3.48594e+06
3.48609e+06
3.48623e+06
3.48635e+06
3.48645e+06
3.48654e+06
3.48661e+06
3.48665e+06
3.48668e+06
3.48667e+06
3.48664e+06
3.48658e+06
3.4865e+06
3.48637e+06
3.48622e+06
3.48598e+06
3.48912e+06
3.48849e+06
3.4876e+06
3.48691e+06
3.48622e+06
3.48565e+06
3.48515e+06
3.48475e+06
3.48442e+06
3.48417e+06
3.48399e+06
3.48386e+06
3.48379e+06
3.48376e+06
3.48377e+06
3.48381e+06
3.48389e+06
3.48399e+06
3.48411e+06
3.48425e+06
3.4844e+06
3.48456e+06
3.48473e+06
3.4849e+06
3.48508e+06
3.48526e+06
3.48543e+06
3.4856e+06
3.48577e+06
3.48593e+06
3.48607e+06
3.48621e+06
3.48633e+06
3.48643e+06
3.48652e+06
3.48658e+06
3.48663e+06
3.48665e+06
3.48665e+06
3.48662e+06
3.48656e+06
3.48647e+06
3.48635e+06
3.4862e+06
3.48597e+06
3.49329e+06
3.49174e+06
3.49034e+06
3.48913e+06
3.48806e+06
3.48716e+06
3.4864e+06
3.48578e+06
3.48527e+06
3.48487e+06
3.48456e+06
3.48433e+06
3.48418e+06
3.48408e+06
3.48403e+06
3.48403e+06
3.48406e+06
3.48413e+06
3.48422e+06
3.48433e+06
3.48446e+06
3.48461e+06
3.48477e+06
3.48493e+06
3.4851e+06
3.48526e+06
3.48543e+06
3.4856e+06
3.48576e+06
3.48591e+06
3.48606e+06
3.48619e+06
3.48631e+06
3.48641e+06
3.4865e+06
3.48656e+06
3.48661e+06
3.48663e+06
3.48663e+06
3.4866e+06
3.48654e+06
3.48646e+06
3.48633e+06
3.48618e+06
3.48596e+06
3.49772e+06
3.4952e+06
3.49321e+06
3.49144e+06
3.48995e+06
3.4887e+06
3.48766e+06
3.48681e+06
3.48612e+06
3.48556e+06
3.48513e+06
3.4848e+06
3.48456e+06
3.48439e+06
3.48429e+06
3.48424e+06
3.48423e+06
3.48426e+06
3.48433e+06
3.48442e+06
3.48453e+06
3.48466e+06
3.4848e+06
3.48495e+06
3.48511e+06
3.48527e+06
3.48543e+06
3.4856e+06
3.48575e+06
3.4859e+06
3.48604e+06
3.48617e+06
3.48629e+06
3.48639e+06
3.48648e+06
3.48654e+06
3.48659e+06
3.48661e+06
3.48661e+06
3.48658e+06
3.48652e+06
3.48644e+06
3.48632e+06
3.48617e+06
3.48595e+06
3.50236e+06
3.49883e+06
3.49618e+06
3.49381e+06
3.49187e+06
3.49025e+06
3.48892e+06
3.48783e+06
3.48695e+06
3.48624e+06
3.48569e+06
3.48525e+06
3.48493e+06
3.48469e+06
3.48453e+06
3.48443e+06
3.48439e+06
3.48439e+06
3.48443e+06
3.4845e+06
3.48459e+06
3.4847e+06
3.48483e+06
3.48497e+06
3.48512e+06
3.48528e+06
3.48544e+06
3.48559e+06
3.48575e+06
3.48589e+06
3.48603e+06
3.48616e+06
3.48628e+06
3.48638e+06
3.48646e+06
3.48653e+06
3.48657e+06
3.4866e+06
3.48659e+06
3.48657e+06
3.48651e+06
3.48643e+06
3.48631e+06
3.48617e+06
3.48595e+06
3.5072e+06
3.50261e+06
3.49921e+06
3.49621e+06
3.4938e+06
3.49179e+06
3.49016e+06
3.48883e+06
3.48776e+06
3.4869e+06
3.48622e+06
3.48569e+06
3.48528e+06
3.48498e+06
3.48476e+06
3.48462e+06
3.48454e+06
3.48451e+06
3.48452e+06
3.48457e+06
3.48465e+06
3.48475e+06
3.48486e+06
3.485e+06
3.48514e+06
3.48529e+06
3.48544e+06
3.48559e+06
3.48574e+06
3.48589e+06
3.48602e+06
3.48615e+06
3.48627e+06
3.48637e+06
3.48645e+06
3.48651e+06
3.48656e+06
3.48658e+06
3.48658e+06
3.48655e+06
3.4865e+06
3.48642e+06
3.4863e+06
3.48616e+06
3.48595e+06
3.5122e+06
3.50651e+06
3.50226e+06
3.4986e+06
3.49569e+06
3.49329e+06
3.49136e+06
3.48979e+06
3.48853e+06
3.48752e+06
3.48672e+06
3.4861e+06
3.48561e+06
3.48525e+06
3.48498e+06
3.4848e+06
3.48468e+06
3.48462e+06
3.48461e+06
3.48464e+06
3.4847e+06
3.48479e+06
3.48489e+06
3.48502e+06
3.48515e+06
3.48529e+06
3.48544e+06
3.48559e+06
3.48574e+06
3.48588e+06
3.48602e+06
3.48614e+06
3.48626e+06
3.48636e+06
3.48644e+06
3.4865e+06
3.48655e+06
3.48657e+06
3.48657e+06
3.48654e+06
3.48649e+06
3.48641e+06
3.48629e+06
3.48616e+06
3.48596e+06
3.51731e+06
3.51046e+06
3.50526e+06
3.50094e+06
3.49751e+06
3.49473e+06
3.49249e+06
3.4907e+06
3.48926e+06
3.48811e+06
3.48719e+06
3.48648e+06
3.48592e+06
3.4855e+06
3.48518e+06
3.48496e+06
3.48481e+06
3.48473e+06
3.48469e+06
3.4847e+06
3.48475e+06
3.48482e+06
3.48492e+06
3.48504e+06
3.48516e+06
3.4853e+06
3.48545e+06
3.48559e+06
3.48574e+06
3.48588e+06
3.48601e+06
3.48614e+06
3.48625e+06
3.48635e+06
3.48643e+06
3.4865e+06
3.48654e+06
3.48656e+06
3.48656e+06
3.48654e+06
3.48648e+06
3.48641e+06
3.48629e+06
3.48616e+06
3.48596e+06
3.52232e+06
3.51434e+06
3.50809e+06
3.50314e+06
3.4992e+06
3.49605e+06
3.49354e+06
3.49152e+06
3.48992e+06
3.48863e+06
3.48762e+06
3.48682e+06
3.4862e+06
3.48572e+06
3.48536e+06
3.4851e+06
3.48493e+06
3.48482e+06
3.48477e+06
3.48476e+06
3.48479e+06
3.48486e+06
3.48495e+06
3.48505e+06
3.48518e+06
3.48531e+06
3.48545e+06
3.48559e+06
3.48573e+06
3.48587e+06
3.48601e+06
3.48613e+06
3.48624e+06
3.48634e+06
3.48643e+06
3.48649e+06
3.48653e+06
3.48656e+06
3.48656e+06
3.48653e+06
3.48648e+06
3.4864e+06
3.48629e+06
3.48617e+06
3.48597e+06
3.52663e+06
3.51781e+06
3.5106e+06
3.5051e+06
3.5007e+06
3.49723e+06
3.49446e+06
3.49225e+06
3.4905e+06
3.4891e+06
3.48799e+06
3.48712e+06
3.48644e+06
3.48592e+06
3.48552e+06
3.48523e+06
3.48503e+06
3.4849e+06
3.48483e+06
3.48481e+06
3.48483e+06
3.48489e+06
3.48497e+06
3.48507e+06
3.48519e+06
3.48532e+06
3.48545e+06
3.48559e+06
3.48573e+06
3.48587e+06
3.486e+06
3.48613e+06
3.48624e+06
3.48634e+06
3.48642e+06
3.48649e+06
3.48653e+06
3.48655e+06
3.48655e+06
3.48653e+06
3.48648e+06
3.4864e+06
3.4863e+06
3.48617e+06
3.48599e+06
3.53e+06
3.52063e+06
3.51266e+06
3.50673e+06
3.50194e+06
3.49821e+06
3.49523e+06
3.49287e+06
3.49099e+06
3.48949e+06
3.48831e+06
3.48738e+06
3.48665e+06
3.48608e+06
3.48566e+06
3.48534e+06
3.48512e+06
3.48497e+06
3.48489e+06
3.48486e+06
3.48487e+06
3.48491e+06
3.48499e+06
3.48508e+06
3.4852e+06
3.48532e+06
3.48546e+06
3.4856e+06
3.48574e+06
3.48587e+06
3.486e+06
3.48613e+06
3.48624e+06
3.48634e+06
3.48642e+06
3.48649e+06
3.48653e+06
3.48655e+06
3.48655e+06
3.48653e+06
3.48648e+06
3.48641e+06
3.4863e+06
3.48618e+06
3.486e+06
3.53254e+06
3.52269e+06
3.51422e+06
3.50797e+06
3.50291e+06
3.49898e+06
3.49584e+06
3.49335e+06
3.49138e+06
3.48981e+06
3.48857e+06
3.48758e+06
3.48682e+06
3.48622e+06
3.48577e+06
3.48543e+06
3.48519e+06
3.48503e+06
3.48493e+06
3.48489e+06
3.48489e+06
3.48493e+06
3.485e+06
3.48509e+06
3.4852e+06
3.48533e+06
3.48546e+06
3.4856e+06
3.48574e+06
3.48587e+06
3.48601e+06
3.48613e+06
3.48624e+06
3.48634e+06
3.48642e+06
3.48649e+06
3.48653e+06
3.48656e+06
3.48656e+06
3.48653e+06
3.48648e+06
3.48641e+06
3.48631e+06
3.4862e+06
3.48602e+06
3.53428e+06
3.52395e+06
3.51525e+06