/*--------------------------------*- C++ -*----------------------------------*\
| =========                 |                                                 |
| \\      /  F ield         | OpenFOAM: The Open Source CFD Toolbox           |
|  \\    /   O peration     | Version:  v2012                                 |
|   \\  /    A nd           | Website:  www.openfoam.com                      |
|    \\/     M anipulation  |                                                 |
\*---------------------------------------------------------------------------*/
FoamFile
{
    version     2.0;
    format      ascii;
    class       volVectorField;
    location    "0.4";
    object      U;
}
// * * * * * * * * * * * * * * * * * * * * * * * * * * * * * * * * * * * * * //

dimensions      [0 1 -1 0 0 0 0];


internalField   nonuniform List<vector> 
3320
(
(-0.0180696 -0.000426148 0.000157738)
(-0.0139861 -0.000276882 0.00012209)
(-0.0108346 -0.000177227 9.45826e-05)
(-0.00860233 -0.00012525 7.50949e-05)
(-0.00688432 -8.77579e-05 6.00981e-05)
(-0.00558921 -6.50157e-05 4.8792e-05)
(-0.00457746 -4.82406e-05 3.99599e-05)
(-0.00378561 -3.68217e-05 3.30472e-05)
(-0.00315481 -2.83352e-05 2.75405e-05)
(-0.00264835 -2.21762e-05 2.31192e-05)
(-0.00223704 -1.75416e-05 1.95286e-05)
(-0.0019001 -1.40568e-05 1.65873e-05)
(-0.00162159 -1.139e-05 1.4156e-05)
(-0.0013895 -9.33304e-06 1.21299e-05)
(-0.00119458 -7.72661e-06 1.04283e-05)
(-0.00102966 -6.45871e-06 8.98864e-06)
(-0.000889175 -5.44738e-06 7.76227e-06)
(-0.000768744 -4.63164e-06 6.71096e-06)
(-0.000664906 -3.96675e-06 5.8045e-06)
(-0.00057491 -3.41898e-06 5.01888e-06)
(-0.00049656 -2.96288e-06 4.33492e-06)
(-0.000428086 -2.57902e-06 3.73717e-06)
(-0.000368063 -2.25251e-06 3.21321e-06)
(-0.000315316 -1.97202e-06 2.75274e-06)
(-0.000268888 -1.72895e-06 2.34745e-06)
(-0.000227982 -1.51668e-06 1.99036e-06)
(-0.000191935 -1.33012e-06 1.67568e-06)
(-0.00016019 -1.16543e-06 1.39856e-06)
(-0.000132262 -1.01947e-06 1.15476e-06)
(-0.000107741 -8.89798e-07 9.40692e-07)
(-8.62682e-05 -7.74253e-07 7.53238e-07)
(-6.75339e-05 -6.71109e-07 5.89686e-07)
(-5.12739e-05 -5.78422e-07 4.47736e-07)
(-3.72625e-05 -4.94163e-07 3.25411e-07)
(-2.53229e-05 -4.16007e-07 2.21173e-07)
(-1.53291e-05 -3.4154e-07 1.33916e-07)
(-7.21649e-06 -2.67165e-07 6.3077e-08)
(-9.80706e-07 -1.90597e-07 8.617e-09)
(3.29867e-06 -1.06568e-07 -2.87698e-08)
(5.52479e-06 -1.81138e-08 -4.82357e-08)
(5.5725e-06 7.86146e-08 -4.86781e-08)
(3.66037e-06 1.46089e-07 -3.20247e-08)
(8.63987e-07 1.71777e-07 -8.16142e-09)
(-0.0465548 -0.00772475 0.000406439)
(-0.0368146 -0.00528596 0.000321398)
(-0.0292211 -0.00370574 0.000255108)
(-0.02354 -0.00264313 0.000205508)
(-0.0191022 -0.00192007 0.000166765)
(-0.0156629 -0.00141752 0.000136739)
(-0.0129406 -0.00106176 0.000112973)
(-0.0107768 -0.000806025 9.40824e-05)
(-0.00903528 -0.000619254 7.88786e-05)
(-0.00762319 -0.000481169 6.65508e-05)
(-0.00646755 -0.000377823 5.64619e-05)
(-0.0055144 -0.000299693 4.81407e-05)
(-0.00472201 -0.000240044 4.12232e-05)
(-0.00405843 -0.000194097 3.54301e-05)
(-0.00349874 -0.000158392 3.0544e-05)
(-0.0030235 -0.000130406 2.63951e-05)
(-0.0026174 -0.000108282 2.28499e-05)
(-0.0022683 -9.06382e-05 1.98024e-05)
(-0.00196658 -7.64397e-05 1.71683e-05)
(-0.00170449 -6.49076e-05 1.48804e-05)
(-0.00147585 -5.54516e-05 1.28844e-05)
(-0.00127563 -4.76228e-05 1.11365e-05)
(-0.00109978 -4.10786e-05 9.60144e-06)
(-0.000944953 -3.55564e-05 8.24978e-06)
(-0.000808395 -3.08549e-05 7.05768e-06)
(-0.000687835 -2.68197e-05 6.00521e-06)
(-0.000581365 -2.33317e-05 5.07575e-06)
(-0.000487392 -2.02989e-05 4.25538e-06)
(-0.000404524 -1.76482e-05 3.53194e-06)
(-0.000331583 -1.53216e-05 2.89517e-06)
(-0.000267548 -1.32714e-05 2.33614e-06)
(-0.000211532 -1.14566e-05 1.84711e-06)
(-0.000162779 -9.83929e-06 1.42148e-06)
(-0.000120643 -8.38258e-06 1.05362e-06)
(-8.46158e-05 -7.04872e-06 7.39079e-07)
(-5.43324e-05 -5.79841e-06 4.74671e-07)
(-2.95894e-05 -4.58854e-06 2.5862e-07)
(-1.03484e-05 -3.38022e-06 9.05903e-08)
(3.22328e-06 -2.13693e-06 -2.7962e-08)
(1.09199e-05 -8.68988e-07 -9.52363e-08)
(1.25204e-05 3.64309e-07 -1.09296e-07)
(8.68051e-06 1.22469e-06 -7.59211e-08)
(2.00389e-06 1.15945e-06 -1.91959e-08)
(-0.0644543 -0.0173616 0.000562689)
(-0.0524635 -0.012501 0.000458007)
(-0.0427319 -0.0091335 0.000373053)
(-0.0350973 -0.00673304 0.000306401)
(-0.0289541 -0.00502266 0.000252772)
(-0.0240512 -0.00378466 0.000209968)
(-0.020088 -0.00288164 0.000175369)
(-0.0168781 -0.00221555 0.000147346)
(-0.0142564 -0.00171971 0.000124459)
(-0.0121038 -0.00134716 0.000105666)
(-0.0103237 -0.00106486 9.01259e-05)
(-0.00884257 -0.000849178 7.71955e-05)
(-0.00760207 -0.000683111 6.63661e-05)
(-0.00655659 -0.000554272 5.7239e-05)
(-0.00566999 -0.000453559 4.94989e-05)
(-0.00491362 -0.000374232 4.28959e-05)
(-0.00426467 -0.000311266 3.72305e-05)
(-0.00370484 -0.000260885 3.23434e-05)
(-0.00321947 -0.000220237 2.81062e-05)
(-0.00279671 -0.000187154 2.44156e-05)
(-0.00242698 -0.000159985 2.11879e-05)
(-0.00210247 -0.000137467 1.8355e-05)
(-0.00181684 -0.000118631 1.58615e-05)
(-0.00156484 -0.00010273 1.36616e-05)
(-0.00134214 -8.91899e-05 1.17175e-05)
(-0.00114514 -7.75678e-05 9.99775e-06)
(-0.000970822 -6.7521e-05 8.47598e-06)
(-0.000816656 -5.87845e-05 7.13013e-06)
(-0.00068043 -5.11467e-05 5.94089e-06)
(-0.000560271 -4.444e-05 4.89192e-06)
(-0.000454559 -3.85264e-05 3.96905e-06)
(-0.000361882 -3.3287e-05 3.15996e-06)
(-0.000281036 -2.86138e-05 2.45415e-06)
(-0.000210993 -2.44021e-05 1.84264e-06)
(-0.000150939 -2.05463e-05 1.31834e-06)
(-0.000100285 -1.69376e-05 8.76072e-07)
(-5.86854e-05 -1.34607e-05 5.1284e-07)
(-2.60474e-05 -1.00106e-05 2.27823e-07)
(-2.57286e-06 -6.50166e-06 2.27795e-08)
(1.14897e-05 -2.96139e-06 -1.00116e-07)
(1.59167e-05 4.18564e-07 -1.38905e-07)
(1.17748e-05 2.82323e-06 -1.02975e-07)
(2.73573e-06 2.82884e-06 -2.63558e-08)
(-0.0748137 -0.026742 0.000653103)
(-0.0623496 -0.0199915 0.000544296)
(-0.0519068 -0.0150667 0.000453138)
(-0.0434054 -0.0114063 0.000378923)
(-0.0363814 -0.00870079 0.000317605)
(-0.0306267 -0.00668071 0.000267368)
(-0.025877 -0.0051682 0.000225904)
(-0.0219564 -0.00402726 0.000191678)
(-0.0187031 -0.00316186 0.000163277)
(-0.0159942 -0.00250109 0.000139628)
(-0.0137274 -0.0019935 0.000119839)
(-0.0118216 -0.00160113 0.000103201)
(-0.0102111 -0.00129594 8.91425e-05)
(-0.00884333 -0.00105709 7.72017e-05)
(-0.00767561 -0.000868969 6.70075e-05)
(-0.00667361 -0.000719816 5.82603e-05)
(-0.00580955 -0.000600749 5.07172e-05)
(-0.00506087 -0.000505006 4.41813e-05)
(-0.00440923 -0.000427426 3.84927e-05)
(-0.00383969 -0.000364051 3.35208e-05)
(-0.00334005 -0.000311838 2.91591e-05)
(-0.00290031 -0.000268443 2.53202e-05)
(-0.00251226 -0.000232057 2.19327e-05)
(-0.00216908 -0.000201276 1.89368e-05)
(-0.00186511 -0.000175018 1.62832e-05)
(-0.00159564 -0.000152442 1.39308e-05)
(-0.00135667 -0.000132895 1.18447e-05)
(-0.00114488 -0.000115871 9.99578e-06)
(-0.000957339 -0.000100965 8.35856e-06)
(-0.000791559 -8.78543e-05 6.91132e-06)
(-0.000645392 -7.62746e-05 5.63528e-06)
(-0.000516962 -6.59967e-05 4.51407e-06)
(-0.000404667 -5.68134e-05 3.53371e-06)
(-0.000307135 -4.85245e-05 2.68221e-06)
(-0.000223278 -4.09292e-05 1.95009e-06)
(-0.000152297 -3.38211e-05 1.33036e-06)
(-9.37089e-05 -2.69856e-05 8.18794e-07)
(-4.73492e-05 -2.02275e-05 4.1396e-07)
(-1.34173e-05 -1.34001e-05 1.1759e-07)
(7.84165e-06 -6.55765e-06 -6.81705e-08)
(1.62461e-05 -8.43842e-08 -1.4173e-07)
(1.32237e-05 4.59645e-06 -1.15634e-07)
(3.17004e-06 4.90959e-06 -3.05827e-08)
(-0.078081 -0.0346209 0.000681608)
(-0.0667921 -0.0266932 0.000583065)
(-0.0569262 -0.0206602 0.000496946)
(-0.048551 -0.0160179 0.000423835)
(-0.0414027 -0.0124727 0.000361434)
(-0.0353684 -0.00975056 0.000308758)
(-0.0302647 -0.00766107 0.000264205)
(-0.0259599 -0.00605063 0.000226625)
(-0.0223219 -0.00480604 0.000194866)
(-0.0192441 -0.00384021 0.000167997)
(-0.0166331 -0.00308778 0.000145205)
(-0.0144118 -0.00249898 0.000125813)
(-0.0125153 -0.00203611 0.000109257)
(-0.01089 -0.00167047 9.50685e-05)
(-0.00949159 -0.00138012 8.28604e-05)
(-0.00828341 -0.00114827 7.23134e-05)
(-0.00723531 -0.000962015 6.31637e-05)
(-0.00632238 -0.000811424 5.51941e-05)
(-0.00552412 -0.000688809 4.82255e-05)
(-0.00482358 -0.00058822 4.211e-05)
(-0.00420678 -0.00050504 3.67255e-05)
(-0.00366213 -0.000435681 3.19709e-05)
(-0.00318008 -0.000377361 2.77628e-05)
(-0.00275259 -0.000327901 2.40309e-05)
(-0.00237297 -0.000285613 2.07169e-05)
(-0.0020356 -0.000249182 1.77718e-05)
(-0.00173573 -0.00021758 1.5154e-05)
(-0.00146934 -0.000190007 1.28285e-05)
(-0.00123292 -0.000165822 1.07646e-05)
(-0.00102345 -0.000144512 8.936e-06)
(-0.000838349 -0.000125656 7.32003e-06)
(-0.000675325 -0.000108889 5.89681e-06)
(-0.000532437 -9.38815e-05 4.64937e-06)
(-0.000408012 -8.03142e-05 3.56309e-06)
(-0.000300719 -6.78695e-05 2.62637e-06)
(-0.00020957 -5.62215e-05 1.83056e-06)
(-0.000133947 -4.50354e-05 1.17026e-06)
(-7.36076e-05 -3.40077e-05 6.43359e-07)
(-2.87225e-05 -2.29228e-05 2.51339e-07)
(4.94837e-07 -1.18699e-05 -3.93244e-09)
(1.39176e-05 -1.4688e-06 -1.21342e-07)
(1.3268e-05 6.16921e-06 -1.16004e-07)
(3.38173e-06 7.12845e-06 -3.25618e-08)
(-0.0779065 -0.0402666 0.000680065)
(-0.0680381 -0.0319394 0.000593927)
(-0.0591341 -0.0253433 0.000516207)
(-0.0513184 -0.0200959 0.000447984)
(-0.0444613 -0.015961 0.000388127)
(-0.0385177 -0.0126991 0.000336244)
(-0.0333744 -0.0101334 0.000291347)
(-0.0289445 -0.00811325 0.000252676)
(-0.0251314 -0.00652221 0.000219389)
(-0.021852 -0.00526685 0.000190762)
(-0.0190296 -0.00427442 0.000166124)
(-0.0165975 -0.00348774 0.000144893)
(-0.0144976 -0.00286225 0.000126561)
(-0.0126801 -0.00236315 0.000110695)
(-0.0111026 -0.00196329 9.69235e-05)
(-0.0097292 -0.00164147 8.49344e-05)
(-0.00852971 -0.00138114 7.44633e-05)
(-0.00747871 -0.00116936 6.52884e-05)
(-0.00655486 -0.000995967 5.72236e-05)
(-0.00574033 -0.000853036 5.0113e-05)
(-0.00502017 -0.000734337 4.38263e-05)
(-0.00438188 -0.000634986 3.82543e-05)
(-0.00381505 -0.000551169 3.33061e-05)
(-0.00331082 -0.000479877 2.89043e-05)
(-0.00286176 -0.000418763 2.49842e-05)
(-0.00246162 -0.000365989 2.14911e-05)
(-0.00210503 -0.000320111 1.83782e-05)
(-0.00178748 -0.000280002 1.5606e-05)
(-0.00150496 -0.000244752 1.31397e-05)
(-0.00125405 -0.000213635 1.09493e-05)
(-0.00103179 -0.000186049 9.00895e-06)
(-0.000835558 -0.000161473 7.29585e-06)
(-0.00066313 -0.000139437 5.79053e-06)
(-0.000512575 -0.000119486 4.47614e-06)
(-0.000382353 -0.000101167 3.33924e-06)
(-0.000271308 -8.40173e-05 2.36972e-06)
(-0.000178697 -6.75657e-05 1.5611e-06)
(-0.000104194 -5.13872e-05 9.10541e-07)
(-4.79301e-05 -3.51907e-05 4.19157e-07)
(-1.00715e-05 -1.91054e-05 8.84171e-08)
(9.30065e-06 -4.01653e-06 -8.09638e-08)
(1.21246e-05 7.2351e-06 -1.0598e-07)
(3.42343e-06 9.283e-06 -3.28113e-08)
(-0.0746311 -0.0441049 0.00065146)
(-0.0665638 -0.0358045 0.000581046)
(-0.058994 -0.0290181 0.000514974)
(-0.0520958 -0.0234695 0.000454761)
(-0.0458529 -0.0189786 0.000400268)
(-0.0402853 -0.0153499 0.000351669)
(-0.0353479 -0.0124314 0.00030857)
(-0.0310004 -0.0100868 0.00027062)
(-0.0271853 -0.00820637 0.000237316)
(-0.0238471 -0.00669822 0.000208176)
(-0.02093 -0.00548832 0.000182712)
(-0.0183821 -0.00451659 0.00016047)
(-0.0161555 -0.00373483 0.000141033)
(-0.0142079 -0.00310446 0.000124031)
(-0.0125014 -0.00259466 0.000109134)
(-0.0110033 -0.0021809 9.60562e-05)
(-0.00968513 -0.00184367 8.45495e-05)
(-0.00852258 -0.00156746 7.4401e-05)
(-0.00749475 -0.00133997 6.54284e-05)
(-0.00658383 -0.00115143 5.74765e-05)
(-0.00577475 -0.000994099 5.04136e-05)
(-0.00505468 -0.000861853 4.41277e-05)
(-0.00441283 -0.00074986 3.85246e-05)
(-0.00383992 -0.000654281 3.35233e-05)
(-0.00332811 -0.000572101 2.90554e-05)
(-0.0028707 -0.000500944 2.50624e-05)
(-0.00246195 -0.000438933 2.14942e-05)
(-0.00209698 -0.000384597 1.83081e-05)
(-0.00177143 -0.000336741 1.54661e-05)
(-0.00148158 -0.000294408 1.29358e-05)
(-0.00122417 -0.000256805 1.06886e-05)
(-0.000996325 -0.000223241 8.69953e-06)
(-0.000795588 -0.000193091 6.94707e-06)
(-0.000619819 -0.000165752 5.41257e-06)
(-0.000467303 -0.000140623 4.08104e-06)
(-0.000336742 -0.000117091 2.94114e-06)
(-0.00022728 -9.45372e-05 1.98541e-06)
(-0.000138511 -7.24037e-05 1.21028e-06)
(-7.0517e-05 -5.03192e-05 6.16476e-07)
(-2.34182e-05 -2.84542e-05 2.05046e-07)
(2.72656e-06 -7.97313e-06 -2.34893e-08)
(9.98595e-06 7.53588e-06 -8.72441e-08)
(3.33542e-06 1.1213e-05 -3.17316e-08)
(-0.07041 -0.0460578 0.000614601)
(-0.0638607 -0.0382071 0.000557439)
(-0.057525 -0.0315867 0.000502141)
(-0.0515722 -0.0260263 0.000450183)
(-0.04604 -0.0214079 0.000401894)
(-0.0409796 -0.0175886 0.000357724)
(-0.0363889 -0.0144499 0.000317653)
(-0.032261 -0.0118788 0.00028162)
(-0.0285693 -0.00977946 0.000249395)
(-0.0252832 -0.00806838 0.00022071)
(-0.0223668 -0.00667544 0.000195253)
(-0.0197839 -0.00554178 0.000172705)
(-0.0174984 -0.00461877 0.000152755)
(-0.0154768 -0.0038664 0.000135108)
(-0.0136879 -0.00325196 0.000119491)
(-0.0121033 -0.00274885 0.000105659)
(-0.0106981 -0.00233552 9.33919e-05)
(-0.00944998 -0.00199454 8.24965e-05)
(-0.00833955 -0.00171187 7.2803e-05)
(-0.00734992 -0.00147623 6.41641e-05)
(-0.00646652 -0.00127856 5.64525e-05)
(-0.00567678 -0.00111163 4.95584e-05)
(-0.00496998 -0.00096966 4.33884e-05)
(-0.00433675 -0.000848043 3.78606e-05)
(-0.00376914 -0.000743124 3.29056e-05)
(-0.00326027 -0.000652002 2.84634e-05)
(-0.00280418 -0.000572376 2.44819e-05)
(-0.0023958 -0.000502429 2.09169e-05)
(-0.00203053 -0.00044068 1.77282e-05)
(-0.00170444 -0.000385937 1.48815e-05)
(-0.00141408 -0.000337207 1.23467e-05)
(-0.00115639 -0.000293625 1.0097e-05)
(-0.000928725 -0.000254403 8.10953e-06)
(-0.000728793 -0.000218782 6.36408e-06)
(-0.000554738 -0.000186004 4.84452e-06)
(-0.000405143 -0.000155298 3.53845e-06)
(-0.000279056 -0.000125888 2.43757e-06)
(-0.000175995 -9.70753e-05 1.53767e-06)
(-9.59984e-05 -6.84038e-05 8.39066e-07)
(-3.91459e-05 -4.00824e-05 3.42468e-07)
(-5.50949e-06 -1.35538e-05 4.85044e-08)
(7.01913e-06 6.84898e-06 -6.12595e-08)
(3.14929e-06 1.27854e-05 -2.96357e-08)
(-0.0652152 -0.0467817 0.000569247)
(-0.0601318 -0.0395132 0.000524881)
(-0.0550226 -0.0332301 0.000480289)
(-0.0500518 -0.0278338 0.000436903)
(-0.0452937 -0.0232508 0.000395374)
(-0.0408228 -0.019382 0.00035635)
(-0.0366697 -0.0161397 0.000320099)
(-0.0328541 -0.0134351 0.000286794)
(-0.0293754 -0.0111891 0.000256429)
(-0.0262243 -0.00932969 0.000228923)
(-0.0233835 -0.00779417 0.000204125)
(-0.0208314 -0.00652793 0.000181848)
(-0.0185442 -0.0054845 0.000161883)
(-0.0164976 -0.00462459 0.000144017)
(-0.0146676 -0.00391526 0.000128043)
(-0.0130317 -0.00332912 0.000113762)
(-0.0115688 -0.00284356 0.000100992)
(-0.0102597 -0.00243995 8.95648e-05)
(-0.0090873 -0.00210305 7.93303e-05)
(-0.0080362 -0.00182044 7.01548e-05)
(-0.0070929 -0.00158203 6.19204e-05)
(-0.00624556 -0.00137966 5.45236e-05)
(-0.00548391 -0.00120677 4.78749e-05)
(-0.00479887 -0.00105805 4.18947e-05)
(-0.00418258 -0.000929271 3.65148e-05)
(-0.00362821 -0.000817059 3.16755e-05)
(-0.00312979 -0.00071871 2.73245e-05)
(-0.00268216 -0.000632078 2.34169e-05)
(-0.00228065 -0.000555407 1.99118e-05)
(-0.0019212 -0.000487275 1.67739e-05)
(-0.00160025 -0.000426492 1.39721e-05)
(-0.00131461 -0.000372016 1.14785e-05)
(-0.00106154 -0.000322896 9.26914e-06)
(-0.000838612 -0.000278213 7.32296e-06)
(-0.000643876 -0.000237049 5.62285e-06)
(-0.000475823 -0.000198469 4.15565e-06)
(-0.00033342 -0.000161534 2.91232e-06)
(-0.000216122 -0.0001254 1.88812e-06)
(-0.000123928 -8.95192e-05 1.08303e-06)
(-5.68941e-05 -5.41312e-05 4.97532e-07)
(-1.51467e-05 -2.09465e-05 1.32739e-07)
(3.36829e-06 4.98394e-06 -2.92873e-08)
(2.88972e-06 1.38902e-05 -2.6769e-08)
(-0.0601004 -0.0463375 0.000524593)
(-0.0561595 -0.0398037 0.000490199)
(-0.052069 -0.0340151 0.0004545)
(-0.0479681 -0.0289322 0.000418709)
(-0.043938 -0.0245215 0.000383534)
(-0.0400568 -0.0207237 0.000349658)
(-0.0363703 -0.0174803 0.000317481)
(-0.0329128 -0.0147273 0.000287302)
(-0.0297007 -0.0124035 0.000259266)
(-0.0267407 -0.0104503 0.000233428)
(-0.0240298 -0.00881454 0.000209765)
(-0.0215594 -0.00744802 0.000188201)
(-0.0193165 -0.00630838 0.000168623)
(-0.0172858 -0.00535876 0.000150897)
(-0.0154507 -0.00456743 0.000134878)
(-0.0137944 -0.00390739 0.000120419)
(-0.0123004 -0.0033559 0.000107378)
(-0.0109531 -0.00289386 9.56173e-05)
(-0.00973803 -0.0025054 8.50106e-05)
(-0.00864186 -0.00217738 7.54417e-05)
(-0.00765258 -0.001899 6.6806e-05)
(-0.00675942 -0.00166142 5.90093e-05)
(-0.0059529 -0.00145743 5.19689e-05)
(-0.00522447 -0.00128119 4.56101e-05)
(-0.00456665 -0.00112798 3.98677e-05)
(-0.00397283 -0.000993993 3.46839e-05)
(-0.00343717 -0.000876178 3.00079e-05)
(-0.00295459 -0.000772095 2.57952e-05)
(-0.00252043 -0.000679729 2.20051e-05)
(-0.00213061 -0.000597445 1.86021e-05)
(-0.00178154 -0.000523864 1.55548e-05)
(-0.00146998 -0.000457774 1.28349e-05)
(-0.00119311 -0.000398066 1.04179e-05)
(-0.000948459 -0.000343658 8.28205e-06)
(-0.000733992 -0.000293474 6.40971e-06)
(-0.000548141 -0.000246416 4.78713e-06)
(-0.000389811 -0.000201374 3.40477e-06)
(-0.000258406 -0.000157358 2.2574e-06)
(-0.000153898 -0.00011372 1.3448e-06)
(-7.63381e-05 -7.07193e-05 6.67405e-07)
(-2.59558e-05 -3.03116e-05 2.27212e-07)
(-8.43634e-07 1.78048e-06 7.59642e-09)
(2.57558e-06 1.44367e-05 -2.33221e-08)
(-0.0487955 -0.0341481 0.000425921)
(-0.0454933 -0.0294475 0.000397101)
(-0.0421497 -0.0252909 0.000367919)
(-0.0388432 -0.0216474 0.00033906)
(-0.0356286 -0.0184817 0.000311003)
(-0.0325494 -0.0157504 0.000284127)
(-0.029634 -0.013409 0.00025868)
(-0.0269002 -0.0114124 0.000234818)
(-0.0243568 -0.00971724 0.000212618)
(-0.0220055 -0.008283 0.000192093)
(-0.0198425 -0.00707262 0.000173213)
(-0.0178607 -0.00605288 0.000155914)
(-0.0160503 -0.00519437 0.000140111)
(-0.0144001 -0.00447147 0.000125707)
(-0.0128985 -0.00386213 0.000112599)
(-0.0115335 -0.00334746 0.000100683)
(-0.0102935 -0.00291151 8.98589e-05)
(-0.00916752 -0.00254085 8.00302e-05)
(-0.0081454 -0.00222429 7.11079e-05)
(-0.00721771 -0.00195256 6.30098e-05)
(-0.00637598 -0.00171804 5.56621e-05)
(-0.00561243 -0.00151446 4.89967e-05)
(-0.00492012 -0.00133673 4.29533e-05)
(-0.00429285 -0.0011807 3.74776e-05)
(-0.00372506 -0.00104302 3.25211e-05)
(-0.00321186 -0.000921016 2.80412e-05)
(-0.0027487 -0.000812434 2.3998e-05)
(-0.00233159 -0.000715446 2.03567e-05)
(-0.00195695 -0.000628506 1.70862e-05)
(-0.00162157 -0.000550239 1.41584e-05)
(-0.00132262 -0.000479386 1.15486e-05)
(-0.00105759 -0.000414711 9.23486e-06)
(-0.000824419 -0.00035498 7.19926e-06)
(-0.000621505 -0.00029893 5.42773e-06)
(-0.00044771 -0.00024529 3.91035e-06)
(-0.000302399 -0.000192912 2.6416e-06)
(-0.000185535 -0.000141043 1.62113e-06)
(-9.71876e-05 -8.99434e-05 8.49552e-07)
(-3.7736e-05 -4.17845e-05 3.30168e-07)
(-5.51294e-06 -2.89663e-06 4.84843e-08)
(2.22069e-06 1.43524e-05 -1.94369e-08)
(-0.0454925 -0.0337223 0.000397085)
(-0.0428614 -0.0294575 0.000374123)
(-0.0401198 -0.0256163 0.000350196)
(-0.0373384 -0.0221905 0.000325921)
(-0.0345722 -0.0191642 0.000301778)
(-0.0318671 -0.016512 0.000278168)
(-0.0292573 -0.0142044 0.000255389)
(-0.0267676 -0.0122086 0.000233658)
(-0.0244145 -0.0104916 0.000213119)
(-0.0222076 -0.00902069 0.000193856)
(-0.0201506 -0.00776473 0.000175902)
(-0.0182432 -0.00669491 0.000159252)
(-0.0164815 -0.00578495 0.000143874)
(-0.0148598 -0.00501137 0.000129718)
(-0.0133706 -0.00435343 0.000116719)
(-0.0120058 -0.0037931 0.000104805)
(-0.0107567 -0.00331478 9.39026e-05)
(-0.009615 -0.00290519 8.39361e-05)
(-0.00857224 -0.00255309 7.48337e-05)
(-0.00762062 -0.00224902 6.65268e-05)
(-0.00675288 -0.00198515 5.89521e-05)
(-0.00596215 -0.00175494 5.20496e-05)
(-0.00524222 -0.00155306 4.5765e-05)
(-0.0045874 -0.00137511 4.00489e-05)
(-0.00399253 -0.00121752 3.4856e-05)
(-0.00345303 -0.00107739 3.01465e-05)
(-0.00296454 -0.000952309 2.58822e-05)
(-0.00252323 -0.000840275 2.20298e-05)
(-0.00212563 -0.00073959 1.85589e-05)
(-0.00176859 -0.000648737 1.5442e-05)
(-0.00144932 -0.000566317 1.26548e-05)
(-0.00116532 -0.000490949 1.01755e-05)
(-0.000914546 -0.000421247 7.98619e-06)
(-0.00069537 -0.000355792 6.07269e-06)
(-0.000506637 -0.000293145 4.42492e-06)
(-0.000347692 -0.000232006 3.03715e-06)
(-0.000218504 -0.000171504 1.90908e-06)
(-0.000119185 -0.000111879 1.04172e-06)
(-5.03132e-05 -5.54773e-05 4.40088e-07)
(-1.05527e-05 -9.16116e-06 9.26151e-08)
(1.83587e-06 1.35803e-05 -1.52248e-08)
(-0.0421996 -0.0328941 0.000368338)
(-0.0401529 -0.0290743 0.000350478)
(-0.037946 -0.0255758 0.000331218)
(-0.0356421 -0.0224053 0.000311111)
(-0.033294 -0.0195608 0.000290618)
(-0.0309478 -0.0170306 0.000270141)
(-0.0286401 -0.0147975 0.000249999)
(-0.0264001 -0.01284 0.000230447)
(-0.0242491 -0.0111341 0.000211673)
(-0.0222024 -0.0096547 0.000193809)
(-0.0202693 -0.00837685 0.000176936)
(-0.018455 -0.00727648 0.000161099)
(-0.0167608 -0.00633088 0.000146311)
(-0.0151854 -0.0055192 0.000132559)
(-0.0137254 -0.00482259 0.000119816)
(-0.0123762 -0.00422427 0.000108038)
(-0.0111321 -0.00370948 9.71788e-05)
(-0.00998708 -0.0032654 8.71838e-05)
(-0.00893482 -0.00288105 7.79985e-05)
(-0.0079691 -0.00254704 6.95686e-05)
(-0.00708398 -0.00225553 6.18422e-05)
(-0.00627362 -0.00199989 5.47684e-05)
(-0.00553263 -0.00177463 4.83001e-05)
(-0.00485596 -0.00157523 4.23933e-05)
(-0.00423895 -0.00139796 3.70072e-05)
(-0.00367739 -0.00123979 3.21051e-05)
(-0.00316722 -0.00109816 2.76516e-05)
(-0.00270481 -0.00097093 2.3615e-05)
(-0.00228687 -0.000856287 1.99665e-05)
(-0.00191035 -0.000752588 1.66796e-05)
(-0.00157257 -0.00065831 1.37308e-05)
(-0.00127107 -0.000571938 1.10987e-05)
(-0.00100383 -0.000491947 8.7657e-06)
(-0.000769244 -0.000416764 6.71772e-06)
(-0.00056616 -0.00034479 4.94468e-06)
(-0.000393916 -0.000274568 3.44081e-06)
(-0.000252502 -0.000205101 2.20602e-06)
(-0.000142101 -0.00013658 1.24191e-06)
(-6.3538e-05 -7.14807e-05 5.55665e-07)
(-1.58909e-05 -1.71055e-05 1.39359e-07)
(1.42952e-06 1.20742e-05 -1.07727e-08)
(-0.0390493 -0.0317403 0.000340837)
(-0.0374827 -0.0283689 0.000327166)
(-0.0357301 -0.0252291 0.000311872)
(-0.0338449 -0.0223382 0.00029542)
(-0.0318745 -0.0197049 0.000278224)
(-0.0298617 -0.0173285 0.000260657)
(-0.0278429 -0.015202 0.000243038)
(-0.0258485 -0.0133131 0.00022563)
(-0.0239026 -0.0116462 0.000208647)
(-0.0220239 -0.0101832 0.000192249)
(-0.0202258 -0.00890501 0.000176555)
(-0.0185176 -0.00779236 0.000161644)
(-0.0169046 -0.00682636 0.000147565)
(-0.0153895 -0.00598909 0.000134341)
(-0.0139724 -0.00526391 0.000121971)
(-0.0126518 -0.00463567 0.000110443)
(-0.0114247 -0.00409074 9.9732e-05)
(-0.0102874 -0.00361712 8.98046e-05)
(-0.00923557 -0.0032043 8.06235e-05)
(-0.00826471 -0.00284324 7.21488e-05)
(-0.00737018 -0.00252624 6.43404e-05)
(-0.00654726 -0.00224673 5.7157e-05)
(-0.00579144 -0.00199923 5.05593e-05)
(-0.00509838 -0.00177916 4.45094e-05)
(-0.00446399 -0.00158274 3.89716e-05)
(-0.00388451 -0.00140684 3.39131e-05)
(-0.00335622 -0.00124881 2.93014e-05)
(-0.00287577 -0.00110643 2.51074e-05)
(-0.00244009 -0.000977774 2.13041e-05)
(-0.00204629 -0.000861113 1.78663e-05)
(-0.00169181 -0.000754812 1.47718e-05)
(-0.00137429 -0.00065724 1.19999e-05)
(-0.00109177 -0.00056674 9.53354e-06)
(-0.000842683 -0.000481599 7.35894e-06)
(-0.000625887 -0.000400062 5.4662e-06)
(-0.000440735 -0.000320511 3.84967e-06)
(-0.00028726 -0.000241815 2.50959e-06)
(-0.000165738 -0.000164084 1.4484e-06)
(-7.72835e-05 -8.98657e-05 6.7579e-07)
(-2.14695e-05 -2.68039e-05 1.88208e-07)
(1.0073e-06 9.79615e-06 -6.14017e-09)
(-0.0360401 -0.0303658 0.000314569)
(-0.0348806 -0.0274243 0.000304451)
(-0.0335195 -0.0246406 0.000292574)
(-0.032002 -0.0220383 0.000279332)
(-0.0303701 -0.0196329 0.00026509)
(-0.0286627 -0.0174315 0.000250189)
(-0.0269146 -0.015435 0.000234933)
(-0.0251559 -0.0136385 0.000219583)
(-0.0234119 -0.0120334 0.000204361)
(-0.021703 -0.0106079 0.000189446)
(-0.0200455 -0.0093483 0.000174979)
(-0.0184514 -0.00823998 0.000161066)
(-0.0169294 -0.00726781 0.000147781)
(-0.0154851 -0.00641693 0.000135174)
(-0.0141216 -0.00567312 0.000123273)
(-0.0128401 -0.00502307 0.000112086)
(-0.0116401 -0.00445457 0.000101612)
(-0.01052 -0.00395663 9.1835e-05)
(-0.0094775 -0.00351948 8.2735e-05)
(-0.00850954 -0.00313459 7.42857e-05)
(-0.00761288 -0.00279459 6.64588e-05)
(-0.00678394 -0.00249311 5.92228e-05)
(-0.0060191 -0.0022248 5.25465e-05)
(-0.00531482 -0.00198513 4.63986e-05)
(-0.00466758 -0.00177031 4.07488e-05)
(-0.00407415 -0.00157721 3.55685e-05)
(-0.00353119 -0.00140313 3.08289e-05)
(-0.0030357 -0.00124581 2.65035e-05)
(-0.00258483 -0.00110325 2.25677e-05)
(-0.00217593 -0.000973641 1.89981e-05)
(-0.00180658 -0.000855274 1.57738e-05)
(-0.00147455 -0.000746412 1.28752e-05)
(-0.00117795 -0.000645283 1.0286e-05)
(-0.000915295 -0.000550042 7.99292e-06)
(-0.000685468 -0.000458784 5.98644e-06)
(-0.000487855 -0.000369733 4.26113e-06)
(-0.000322541 -0.000281608 2.81772e-06)
(-0.000189923 -0.000194407 1.65967e-06)
(-9.14433e-05 -0.000110686 7.99535e-07)
(-2.72428e-05 -3.83159e-05 2.38761e-07)
(5.72626e-07 6.7162e-06 -1.36483e-09)
(-0.0332261 -0.0288239 0.000290005)
(-0.0323972 -0.0262934 0.000282773)
(-0.0313636 -0.0238585 0.000273754)
(-0.0301619 -0.0215466 0.000263267)
(-0.0288276 -0.0193778 0.000251623)
(-0.027395 -0.017365 0.000239121)
(-0.0258959 -0.0155148 0.000226039)
(-0.0243589 -0.0138286 0.000212624)
(-0.022809 -0.0123035 0.000199097)
(-0.0212674 -0.0109329 0.000185642)
(-0.0197516 -0.00970822 0.000172413)
(-0.0182759 -0.0086189 0.000159532)
(-0.016851 -0.00765349 0.000147095)
(-0.0154848 -0.00680017 0.000135171)
(-0.014183 -0.00604721 0.000123808)
(-0.012949 -0.00538329 0.000113036)
(-0.0117844 -0.00479777 0.000102871)
(-0.0106897 -0.00428087 9.33155e-05)
(-0.00966407 -0.00382372 8.43632e-05)
(-0.00870611 -0.00341845 7.60013e-05)
(-0.00781388 -0.00305819 6.82131e-05)
(-0.00698486 -0.0027369 6.09766e-05)
(-0.00621639 -0.00244944 5.42686e-05)
(-0.00550569 -0.00219145 4.80648e-05)
(-0.0048499 -0.00195921 4.23402e-05)
(-0.0042463 -0.00174964 3.70712e-05)
(-0.003692 -0.00156004 3.22326e-05)
(-0.00318434 -0.00138814 2.78011e-05)
(-0.00272079 -0.00123192 2.37546e-05)
(-0.00229892 -0.00108952 2.00718e-05)
(-0.0019165 -0.000959154 1.67334e-05)
(-0.00157145 -0.000839014 1.37212e-05)
(-0.001262 -0.000727228 1.10198e-05)
(-0.000986733 -0.000621828 8.61665e-06)
(-0.000744594 -0.000520771 6.50271e-06)
(-0.000535011 -0.00042212 4.67291e-06)
(-0.000358137 -0.000324431 3.1286e-06)
(-0.000214509 -0.000227551 1.87444e-06)
(-0.00010593 -0.000133979 9.26136e-07)
(-3.31763e-05 -5.16887e-05 2.90716e-07)
(1.26982e-07 2.80991e-06 3.53436e-09)
(-0.0305912 -0.02718 0.000267005)
(-0.0300383 -0.0250323 0.000262182)
(-0.0292822 -0.0229302 0.000255584)
(-0.0283523 -0.0209023 0.00024747)
(-0.0272788 -0.0189714 0.000238103)
(-0.0260916 -0.0171538 0.000227743)
(-0.0248191 -0.0154605 0.000216637)
(-0.0234876 -0.0138973 0.000205017)
(-0.0221213 -0.0124659 0.000193092)
(-0.0207411 -0.0111643 0.000181047)
(-0.0193652 -0.00998804 0.000169038)
(-0.0180087 -0.00893033 0.000157199)
(-0.0166841 -0.00798314 0.000145637)
(-0.0154009 -0.00713754 0.000134437)
(-0.0141666 -0.00638427 0.000123664)
(-0.0129865 -0.00571406 0.000113363)
(-0.011864 -0.00511792 0.000103565)
(-0.0108012 -0.00458738 9.42889e-05)
(-0.00979904 -0.00411462 8.5541e-05)
(-0.0088573 -0.00369257 7.73207e-05)
(-0.00797529 -0.00331495 6.96217e-05)
(-0.00715156 -0.00297619 6.24315e-05)
(-0.00638437 -0.00267145 5.57347e-05)
(-0.0056717 -0.0023966 4.95138e-05)
(-0.00501135 -0.0021481 4.37495e-05)
(-0.00440114 -0.00192294 3.84228e-05)
(-0.00383865 -0.00171851 3.35127e-05)
(-0.0033216 -0.00153255 2.89992e-05)
(-0.00284777 -0.00136304 2.4863e-05)
(-0.002415 -0.0012081 2.10851e-05)
(-0.00202127 -0.00106592 1.7648e-05)
(-0.00166468 -0.000934613 1.45351e-05)
(-0.0013436 -0.000812227 1.17322e-05)
(-0.0010567 -0.000696692 9.22752e-06)
(-0.000802996 -0.000585828 7.01264e-06)
(-0.000581974 -0.000477543 5.083e-06)
(-0.000393868 -0.000370215 3.44065e-06)
(-0.000239371 -0.000263502 2.09162e-06)
(-0.000120675 -0.000159768 1.05499e-06)
(-3.92459e-05 -6.69593e-05 3.43863e-07)
(-3.2983e-07 -1.94336e-06 8.55581e-09)
(-0.0281529 -0.0254684 0.00024572)
(-0.0278226 -0.0236775 0.00024284)
(-0.0272963 -0.0218908 0.000238249)
(-0.026597 -0.0201373 0.000232148)
(-0.0257494 -0.0184411 0.000224752)
(-0.0247787 -0.0168208 0.000216282)
(-0.02371 -0.0152902 0.000206955)
(-0.0225669 -0.0138585 0.000196979)
(-0.0213718 -0.0125309 0.000186549)
(-0.0201451 -0.0113092 0.000175843)
(-0.0189046 -0.0101922 0.000165016)
(-0.017666 -0.00917676 0.000154206)
(-0.0164424 -0.00825771 0.000143527)
(-0.0152448 -0.00742888 0.000133074)
(-0.0140819 -0.00668337 0.000122924)
(-0.0129604 -0.00601393 0.000113134)
(-0.0118852 -0.00541325 0.00010375)
(-0.0108598 -0.00487425 9.47996e-05)
(-0.00988644 -0.00439024 8.63034e-05)
(-0.0089662 -0.00395504 7.82709e-05)
(-0.00809948 -0.00356307 7.07055e-05)
(-0.00728582 -0.00320929 6.36032e-05)
(-0.00652434 -0.00288928 5.69563e-05)
(-0.00581376 -0.0025992 5.07536e-05)
(-0.00515253 -0.00233573 4.49817e-05)
(-0.00453903 -0.00209603 3.96265e-05)
(-0.00397131 -0.00187759 3.46707e-05)
(-0.00344748 -0.0016782 3.00981e-05)
(-0.00296567 -0.00149589 2.58922e-05)
(-0.00252399 -0.00132879 2.20366e-05)
(-0.00212068 -0.00117506 1.85158e-05)
(-0.001754 -0.00103278 1.53149e-05)
(-0.0014225 -0.000899938 1.24209e-05)
(-0.00112494 -0.000774362 9.82331e-06)
(-0.000860439 -0.000653755 7.51419e-06)
(-0.000628545 -0.000535865 5.48966e-06)
(-0.000429581 -0.000418882 3.75253e-06)
(-0.000264407 -0.000302232 2.31031e-06)
(-0.000135623 -0.000188064 1.18562e-06)
(-4.5437e-05 -8.41558e-05 3.98072e-07)
(-7.99678e-07 -7.56179e-06 1.37144e-08)
(-0.0258924 -0.0237287 0.000225989)
(-0.0257456 -0.022265 0.00022471)
(-0.0254116 -0.0207729 0.000221797)
(-0.0249084 -0.0192806 0.000217407)
(-0.024256 -0.0178122 0.000211715)
(-0.0234756 -0.0163872 0.000204906)
(-0.0225888 -0.0150213 0.000197167)
(-0.0216168 -0.0137259 0.000188685)
(-0.0205799 -0.0125089 0.000179636)
(-0.0194973 -0.0113751 0.000170187)
(-0.0183861 -0.0103261 0.00016049)
(-0.0172621 -0.00936154 0.00015068)