/*--------------------------------*- C++ -*----------------------------------*\
| =========                 |                                                 |
| \\      /  F ield         | OpenFOAM: The Open Source CFD Toolbox           |
|  \\    /   O peration     | Version:  v2012                                 |
|   \\  /    A nd           | Website:  www.openfoam.com                      |
|    \\/     M anipulation  |                                                 |
\*---------------------------------------------------------------------------*/
FoamFile
{
    version     2.0;
    format      ascii;
    class       volScalarField;
    location    "0.2";
    object      alpha.water;
}
// * * * * * * * * * * * * * * * * * * * * * * * * * * * * * * * * * * * * * //

dimensions      [0 0 0 0 0 0 0];


internalField   nonuniform List<scalar> 
3352
(
-6.10731e-283
-1.94773e-274
-1.36291e-266
-2.64657e-258
-2.13023e-250
-3.95278e-242
-9.00393e-235
-2.20056e-225
-9.15397e-218
-3.68228e-214
-9.35509e-212
-8.75165e-210
-2.39488e-202
-8.43636e-201
9.86625e-195
1.59048e-190
1.41628e-186
5.19558e-183
1.12627e-179
1.05136e-176
3.88364e-174
4.22211e-166
-2.02195e-155
1.7467e-151
-1.93284e-141
-2.04061e-136
-4.68551e-134
-4.21176e-132
-1.78686e-130
-4.08347e-129
-5.66034e-128
-5.11987e-127
-3.1696e-126
-1.38773e-125
-4.39781e-125
-1.0257e-124
-1.78135e-124
-2.32144e-124
-2.27957e-124
-3.13793e-278
-3.07637e-270
-7.59622e-263
-7.46511e-255
-3.62817e-247
-5.39805e-239
-8.78916e-232
-1.0847e-222
-3.50376e-215
-1.15122e-211
-2.44799e-209
-1.42255e-207
-2.76324e-200
-8.2221e-199
7.00263e-193
9.40716e-189
7.08567e-185
2.22433e-181
4.14185e-178
3.34821e-175
1.08137e-172
3.84067e-164
-1.68087e-153
6.8097e-150
-6.96502e-140
-7.28572e-135
-1.56871e-132
-1.32929e-130
-5.32171e-129
-1.14745e-127
-1.50233e-126
-1.28571e-125
-7.54653e-125
-3.13968e-124
-9.47717e-124
-2.11043e-123
-3.50806e-123
-4.38642e-123
-4.14305e-123
-3.70919e-274
-2.53351e-266
-3.74042e-259
-1.84697e-251
-5.42199e-244
-6.75623e-236
-7.86628e-229
-6.10656e-220
-1.32158e-212
-3.5476e-209
-6.31783e-207
-2.38827e-205
-3.11842e-198
-7.83952e-197
4.83811e-191
5.41152e-187
3.44426e-183
9.24311e-180
1.47691e-176
1.03282e-173
2.91341e-171
3.46105e-162
-1.3844e-151
2.61318e-148
-2.47455e-138
-2.56866e-133
-5.18781e-131
-4.14606e-129
-1.56701e-127
-3.18903e-126
-3.94501e-125
-3.19534e-124
-1.77868e-123
-7.03373e-123
-2.02277e-122
-4.3018e-122
-6.8456e-122
-8.21463e-122
-7.46467e-122
-5.50422e-270
-2.62047e-262
-1.59064e-255
-3.86442e-248
-6.85483e-241
-7.6185e-233
-6.34402e-226
-3.95039e-217
-4.91295e-210
-1.07761e-206
-1.60815e-204
-4.17039e-203
-3.44059e-196
-7.3091e-195
3.25122e-189
3.02499e-185
1.62507e-181
3.72419e-178
5.10056e-175
3.08208e-172
7.58468e-170
3.08933e-160
-1.1295e-149
9.84781e-147
-8.66548e-137
-8.94035e-132
-1.69426e-129
-1.27766e-127
-4.56097e-126
-8.76419e-125
-1.02472e-123
-7.85766e-123
-4.14928e-122
-1.56e-121
-4.27526e-121
-8.68523e-121
-1.32346e-120
-1.52447e-120
-1.33307e-120
-2.38417e-265
-2.71011e-258
-5.67486e-252
-6.44017e-245
-6.90227e-238
-7.55083e-230
-4.49688e-223
-2.78841e-214
-1.79992e-207
-3.2264e-204
-4.03688e-202
-7.58289e-201
-3.70926e-194
-6.66007e-193
2.12325e-187
1.64161e-183
7.43467e-180
1.45329e-176
1.70397e-173
8.88597e-171
1.9053e-168
2.73096e-158
-9.12758e-148
3.63003e-145
-2.99009e-135
-3.0712e-130
-5.46286e-128
-3.88909e-126
-1.31192e-124
-2.3812e-123
-2.63231e-122
-1.91153e-121
-9.57819e-121
-3.42465e-120
-8.9463e-120
-1.73654e-119
-2.53448e-119
-2.80306e-119
-2.35926e-119
-1.30901e-261
-1.53954e-254
-1.56874e-248
-7.64255e-242
-4.94749e-235
-6.34145e-227
-2.70024e-220
-2.00499e-211
-6.49881e-205
-9.52137e-202
-9.9933e-200
-1.42853e-198
-3.90545e-192
-5.92785e-191
1.3463e-185
8.64011e-182
3.29446e-178
5.48599e-175
5.49932e-172
2.47161e-169
4.61099e-167
2.39051e-156
-7.30461e-146
1.31789e-143
-1.01633e-133
-1.041e-128
-1.73857e-126
-1.16904e-124
-3.72833e-123
-6.39455e-122
-6.68579e-121
-4.59927e-120
-2.18746e-119
-7.43999e-119
-1.85312e-118
-3.4378e-118
-4.8069e-118
-5.10563e-118
-4.13719e-118
-9.1066e-258
-2.80544e-251
-1.39018e-245
-4.87069e-239
-1.90332e-232
-4.24904e-224
-1.29277e-217
-1.39168e-208
-2.31235e-202
-2.76951e-199
-2.43938e-197
-2.76302e-196
-4.01369e-190
-5.1508e-189
8.28044e-184
4.40571e-180
1.41231e-176
2.00067e-173
1.71216e-170
6.6222e-168
1.07318e-165
2.07163e-154
-5.78825e-144
4.54331e-142
-3.40179e-132
-3.48069e-127
-5.45979e-125
-3.46932e-123
-1.04658e-121
-1.69687e-120
-1.6786e-119
-1.09425e-118
-4.94135e-118
-1.5992e-117
-3.7989e-117
-6.73726e-117
-9.02735e-117
-9.21072e-117
-7.18737e-117
-5.69045e-262
-1.30855e-254
-4.07109e-248
-4.49827e-242
-6.01825e-237
-2.02861e-221
-4.40757e-215
-8.98482e-206
-8.10726e-200
-7.93978e-197
-5.87091e-195
-5.43081e-194
-4.02383e-188
-4.36658e-187
4.93491e-182
2.17399e-178
5.84981e-175
7.03887e-172
5.13451e-169
1.70623e-166
2.39729e-164
1.77703e-152
-4.54081e-142
1.39159e-140
-1.12086e-130
-1.14769e-125
-1.6914e-123
-1.01619e-121
-2.90115e-120
-4.44841e-119
-4.16503e-118
-2.57372e-117
-1.10384e-116
-3.40028e-116
-7.70572e-116
-1.30679e-115
-1.67838e-115
-1.64545e-115
-1.23678e-115
-2.93112e-260
-2.81072e-253
-1.74658e-246
-2.85233e-240
-3.32367e-235
-5.20283e-219
-8.07011e-213
-5.24182e-203
-2.80049e-197
-2.2433e-194
-1.39297e-192
-1.07489e-191
-3.93257e-186
-3.60925e-185
2.84662e-180
1.03684e-176
2.33788e-173
2.38548e-170
1.48062e-167
4.21979e-165
5.12707e-163
1.5085e-150
-3.52599e-140
2.90817e-139
-3.63424e-129
-3.73071e-124
-5.16745e-122
-2.93692e-120
-7.93937e-119
-1.15176e-117
-1.02107e-116
-5.98305e-116
-2.43792e-115
-7.15007e-115
-1.54624e-114
-2.50818e-114
-3.08865e-114
-2.91032e-114
-2.10761e-114
-2.56379e-262
-9.90352e-255
-2.55374e-248
-1.95953e-242
-1.1339e-236
-2.77446e-228
-2.6899e-222
-2.68889e-200
-9.52837e-195
-6.24596e-192
-3.25762e-190
-2.1271e-189
-3.74413e-184
-2.90674e-183
1.58736e-178
4.77298e-175
9.00156e-172
7.77447e-169
4.09807e-166
9.99735e-164
1.04625e-161
1.26706e-148
-2.70963e-138
-5.42724e-138
-1.15913e-127
-1.19517e-122
-1.55642e-120
-8.37277e-119
-2.14436e-117
-2.94447e-116
-2.47253e-115
-1.37432e-114
-5.32206e-114
-1.48658e-113
-3.06871e-113
-4.76267e-113
-5.62481e-113
-5.09538e-113
-3.55621e-113
-4.33316e-263
-5.78895e-257
-1.21931e-250
-1.84973e-244
-3.86245e-238
-4.86551e-226
-1.7558e-219
-1.18116e-197
-3.19287e-192
-1.71358e-189
-7.50785e-188
-4.18726e-187
-3.46996e-182
-2.27933e-181
8.54544e-177
2.11767e-173
3.33363e-170
2.43219e-167
1.08651e-164
2.2639e-162
2.02589e-160
1.05223e-146
-2.06032e-136
-1.33218e-135
-3.63524e-126
-3.77222e-121
-4.62015e-119
-2.35381e-117
-5.71449e-116
-7.43041e-115
-5.91242e-114
-3.11851e-113
-1.1481e-112
-3.05526e-112
-6.0221e-112
-8.94512e-112
-1.01349e-111
-8.82892e-112
-5.94019e-112
-1.07763e-261
-2.37346e-255
-7.27895e-249
-1.22951e-242
-4.44441e-235
-1.35415e-224
-1.13246e-216
-4.36569e-195
-1.05335e-189
-4.63094e-187
-1.70492e-185
-8.17173e-185
-3.12787e-180
-1.73952e-179
4.43489e-175
9.04114e-172
1.18534e-168
7.28936e-166
2.75322e-163
4.88811e-161
3.68202e-159
8.60406e-145
-1.54976e-134
-1.26955e-133
-1.12057e-124
-1.17256e-119
-1.35118e-117
-6.52312e-116
-1.50208e-114
-1.85035e-113
-1.39573e-112
-6.98849e-112
-2.44687e-111
-6.20554e-111
-1.16829e-110
-1.66138e-110
-1.80637e-110
-1.51371e-110
-9.82073e-111
-8.87213e-263
-9.92997e-253
-4.07373e-246
-1.43026e-239
-6.75314e-232
-9.42361e-222
-7.2057e-214
-1.40472e-192
-3.42225e-187
-1.23225e-184
-3.81428e-183
-1.57752e-182
-2.73988e-178
-1.29303e-177
2.21526e-173
3.70786e-170
4.03869e-167
2.08828e-164
6.65178e-162
1.00358e-159
6.12425e-158
7.08725e-143
-1.15293e-132
-9.96354e-132
-3.39355e-123
-3.5883e-118
-3.89176e-116
-1.78145e-114
-3.89317e-113
-4.54566e-112
-3.25182e-111
-1.54623e-110
-5.15056e-110
-1.2453e-109
-2.24008e-109
-3.05068e-109
-3.18401e-109
-2.56739e-109
-1.60668e-109
-1.52882e-260
-5.09777e-250
-2.15258e-243
-3.99076e-237
-1.21818e-228
-8.83248e-219
-4.51861e-211
-4.48142e-190
-1.0946e-184
-3.22732e-182
-8.4049e-181
-3.00887e-180
-2.33028e-176
-9.42516e-176
1.06318e-171
1.45789e-168
1.31574e-165
5.70481e-163
1.52805e-160
1.95331e-158
8.67663e-157
5.78213e-141
-8.48085e-131
-7.21967e-130
-1.00921e-121
-1.08065e-116
-1.10354e-114
-4.79264e-113
-9.94643e-112
-1.1013e-110
-7.47492e-110
-3.37674e-109
-1.07051e-108
-2.46841e-108
-4.24396e-108
-5.53688e-108
-5.54912e-108
-4.30685e-108
-2.60057e-108
-1.5203e-256
-1.37475e-247
-1.77114e-240
-1.21208e-233
-2.35031e-225
-8.19158e-216
-2.79359e-208
-1.37796e-187
-3.44539e-182
-8.31778e-180
-1.82351e-178
-5.66807e-178
-1.92298e-174
-6.96618e-174
4.89276e-170
5.48418e-167
4.08874e-164
1.48207e-161
3.32748e-159
3.59177e-157
7.43187e-156
4.66769e-139
-6.16686e-129
-5.01687e-128
-2.94579e-120
-3.20146e-115
-3.0794e-113
-1.26969e-111
-2.504e-110
-2.63052e-109
-1.69476e-108
-7.27647e-108
-2.19634e-107
-4.8316e-107
-7.94259e-107
-9.93039e-107
-9.55983e-107
-7.14405e-107
-4.16354e-107
-8.43962e-254
-1.11492e-243
-1.492e-236
-3.7711e-230
-4.46367e-222
-7.52482e-213
-1.70158e-205
-4.23109e-185
-1.0668e-179
-2.10887e-177
-3.89404e-176
-1.05535e-175
-1.54059e-172
-5.95694e-172
2.15331e-168
1.96912e-165
1.20878e-162
3.65059e-160
6.84519e-158
6.21563e-156
5.33629e-159
3.72735e-137
-4.43155e-127
-3.39634e-126
-8.43513e-119
-9.32597e-114
-8.45292e-112
-3.31111e-110
-6.20939e-109
-6.19227e-108
-3.78868e-107
-1.54672e-106
-4.4468e-106
-9.33621e-106
-1.46797e-105
-1.75949e-105
-1.62759e-105
-1.1715e-105
-6.59196e-106
-2.1874e-248
-1.65239e-240
-1.19711e-233
-1.12242e-226
-7.95526e-219
-6.85715e-210
-1.02106e-202
-1.27324e-182
-3.24824e-177
-5.25824e-175
-8.18209e-174
-1.9471e-173
-1.20596e-170
-7.87497e-170
9.00491e-167
6.73095e-164
3.38967e-161
8.49678e-159
1.32517e-156
1.00784e-154
-7.40238e-157
2.94336e-135
-3.14616e-125
-2.25611e-124
-2.36816e-117
-2.67011e-112
-2.2815e-110
-8.4963e-109
-1.51617e-107
-1.43608e-106
-8.34834e-106
-3.24209e-105
-8.88179e-105
-1.78044e-104
-2.67865e-104
-3.07897e-104
-2.73775e-104
-1.89867e-104
-1.03186e-104
-8.84745e-248
-9.6999e-237
-7.07407e-230
-3.01652e-223
-1.28902e-215
-6.20733e-207
-6.03319e-200
-3.75214e-180
-9.72148e-175
-1.28884e-172
-1.69099e-171
-3.58071e-171
-9.53069e-169
-1.75679e-167
3.4639e-165
2.18392e-162
8.98629e-160
1.8616e-157
2.40357e-155
1.52347e-153
-4.99688e-155
2.29767e-133
-2.20597e-123
-1.4754e-122
-6.51492e-116
-7.5102e-111
-6.05222e-109
-2.14429e-107
-3.64386e-106
-3.27996e-105
-1.81255e-104
-6.69909e-104
-1.74951e-103
-3.34984e-103
-4.82419e-103
-5.31986e-103
-4.54861e-103
-3.0405e-103
-1.5965e-103
-5.40295e-243
-5.22729e-235
-1.08046e-227
-7.13665e-220
-1.84329e-212
-5.58704e-204
-3.50938e-197
-1.08217e-177
-2.85869e-172
-3.10432e-170
-3.43604e-169
-6.64333e-169
-8.65584e-167
-5.02234e-165
9.19647e-164
6.69866e-161
2.24387e-158
3.82278e-156
4.064e-154
2.13437e-152
-2.93654e-153
1.77244e-131
-1.52708e-121
-9.51245e-121
-1.75515e-114
-2.07419e-109
-1.57719e-107
-5.32044e-106
-8.61617e-105
-7.37476e-104
-3.87608e-103
-1.36404e-102
-3.39741e-102
-6.21611e-102
-8.57247e-102
-9.07275e-102
-7.46228e-102
-4.80962e-102
-2.44088e-102
-2.85466e-239
-1.41126e-231
-5.26795e-224
-1.43143e-216
-2.23711e-209
-4.99488e-201
-2.00874e-194
-3.042e-175
-8.25529e-170
-7.34412e-168
-6.8614e-167
-1.27147e-166
-1.20533e-164
-1.52394e-162
-7.69506e-162
1.92085e-159
5.255e-157
7.32112e-155
6.3683e-153
2.75238e-151
-1.63011e-151
1.35061e-129
-1.04329e-119
-6.0497e-119
-4.62752e-113
-5.6221e-108
-4.03568e-106
-1.29724e-104
-2.00363e-103
-1.63169e-102
-8.16096e-102
-2.73589e-101
-6.50185e-101
-1.13726e-100
-1.50251e-100
-1.5268e-100
-1.20848e-100
-7.51306e-101
-3.68659e-101
-1.93882e-234
-1.23321e-227
-2.32805e-220
-2.29089e-213
-2.16701e-206
-4.41566e-198
-1.13105e-191
-8.36465e-173
-2.34003e-167
-1.70575e-165
-1.34589e-164
-2.59871e-164
-2.8292e-162
-4.64819e-160
-3.27949e-159
4.76233e-158
1.14865e-155
1.30016e-153
9.1853e-152
3.24045e-150
-8.66284e-150
1.01622e-127
-7.03166e-118
-3.79542e-117
-1.19319e-111
-1.49475e-106
-1.01342e-104
-3.10664e-103
-4.58013e-102
-3.55102e-101
-1.69104e-100
-5.40323e-100
-1.22579e-99
-2.05063e-99
-2.59657e-99
-2.53441e-99
-1.93124e-99
-1.15858e-99
-5.49888e-100
-7.44701e-231
-1.85669e-224
-7.77598e-217
-2.61205e-210
-1.49532e-203
-3.82389e-195
-6.26137e-189
-2.25453e-170
-6.50703e-165
-3.88745e-163
-2.59189e-162
-5.89727e-162
-8.52762e-160
-1.40806e-157
-9.24579e-157
8.10672e-158
2.32879e-154
2.12681e-152
1.20958e-150
3.44872e-149
-4.41885e-148
7.54662e-126
-4.67342e-116
-2.3485e-115
-3.00669e-110
-3.89594e-105
-2.4961e-103
-7.30367e-102
-1.02869e-100
-7.59789e-100
-3.44698e-99
-1.05029e-98
-2.27567e-98
-3.64276e-98
-4.42275e-98
-4.14831e-98
-3.04447e-98
-1.76315e-98
-8.09753e-99
-2.85324e-227
-4.52765e-221
-1.97494e-214
-1.59989e-207
-5.53909e-201
-3.19961e-192
-3.40642e-186
-6.04372e-168
-1.77413e-162
-8.68895e-161
-4.89784e-160
-1.51747e-159
-2.72749e-157
-4.22483e-155
-2.48181e-154
-2.72634e-154
4.31374e-153
3.1794e-151
1.4401e-149
3.27756e-148
-2.16172e-146
5.52876e-124
-3.06154e-114
-1.4328e-113
-7.39867e-109
-9.9489e-104
-6.02688e-102
-1.68476e-100
-2.26894e-99
-1.59752e-98
-6.90864e-98
-2.00848e-97
-4.15839e-97
-6.37245e-97
-7.42197e-97
-6.69254e-97
-4.73263e-97
-2.64698e-97
-1.17681e-97
-1.98794e-227
-1.85889e-220
-6.81738e-214
-8.30779e-208
-1.00136e-201
-2.54496e-189
-1.82005e-183
-1.62774e-165
-4.73943e-160
-1.90353e-158
-9.07635e-158
-4.36757e-157
-8.7563e-155
-1.25448e-152
-6.56356e-152
-7.2051e-152
6.39739e-152
4.3023e-150
1.53154e-148
2.73852e-147
-1.01206e-144
3.99402e-122
-1.97591e-112
-8.61533e-112
-1.77649e-107
-2.48762e-102
-1.42566e-100
-3.81098e-99
-4.91199e-98
-3.29906e-97
-1.36082e-96
-3.77676e-96
-7.47589e-96
-1.09729e-95
-1.22657e-95
-1.06379e-95
-7.25161e-96
-3.91871e-96
-1.68725e-96
-3.58538e-227
-1.43077e-220
-9.22679e-212
-3.19415e-205
-8.70461e-199
-1.90571e-186
-9.54866e-181
-4.51401e-163
-1.23982e-157
-4.08502e-156
-1.64855e-155
-1.35514e-154
-2.78694e-152
-3.68421e-150
-1.71646e-149
-1.71939e-149
-1.20254e-150
5.20524e-149
1.43299e-147
1.97109e-146
-4.52234e-143
2.84366e-120
-1.25573e-110
-5.10334e-110
-4.15881e-106
-6.08628e-101
-3.30185e-99
-8.44833e-98
-1.04313e-96
-6.68781e-96
-2.63285e-95
-6.97979e-95
-1.32162e-94
-1.85894e-94
-1.99531e-94
-1.66524e-94
-1.09477e-94
-5.71858e-95
-2.38559e-95
-4.15801e-224
-1.51341e-216
-8.03701e-210
-1.30856e-203
-7.95295e-196
-1.35786e-183
-4.91537e-178
-1.27073e-160
-3.17351e-155
-8.58189e-154
-2.93304e-153
-4.36947e-152
-8.7688e-150
-1.06962e-147
-4.43864e-147
-4.02669e-147
-4.98774e-148
5.47021e-148
1.15659e-146
1.18961e-145
-1.92276e-141
1.99439e-118
-7.85423e-109
-2.97666e-108
-9.48474e-105
-1.45604e-99
-7.48202e-98
-1.83427e-96
-2.17173e-95
-1.33006e-94
-5.00065e-94
-1.26706e-93
-2.2963e-93
-3.09685e-93
-3.19346e-93
-2.56594e-93
-1.62767e-93
-8.22234e-94
-3.32486e-94
-5.05582e-226
-5.80506e-216
-8.76977e-209
-6.47312e-201
-7.28172e-193
-9.61315e-181
-2.48302e-175
-3.50721e-158
-7.94285e-153
-1.7638e-151
-5.10902e-151
-1.42785e-149
-2.72478e-147
-3.06816e-145
-1.1345e-144
-9.3191e-145
-1.10905e-145
3.22783e-147
7.84605e-146
5.82371e-145
-7.75147e-140
1.37712e-116
-4.83224e-107
-1.70875e-106
-2.1059e-103
-3.40349e-98
-1.65763e-96
-3.89777e-95
-4.4297e-94
-2.59345e-93
-9.31831e-93
-2.25804e-92
-3.91906e-92
-5.07049e-92
-5.02597e-92
-3.89e-92
-2.38213e-92
-1.16431e-92
-4.56588e-93
-9.93236e-225
-5.79506e-216
-1.67222e-208
-2.09704e-201
-6.54926e-190
-7.01695e-178
-1.22994e-172
-8.79405e-156
-1.9423e-150
-3.54369e-149
-8.71063e-149
-4.66157e-147
-8.35605e-145
-8.69037e-143
-2.86474e-142
-2.13183e-142
-2.37284e-143
-3.51259e-145
4.32738e-145
2.25319e-144
-2.95155e-138
9.35695e-115
-2.92275e-105
-9.64903e-105
-4.55049e-102
-7.76706e-97
-3.58776e-95
-8.10045e-94
-8.84589e-93
-4.9547e-92
-1.70246e-91
-3.94798e-91
-6.56613e-91
-8.15469e-91
-7.77411e-91
-5.79908e-91
-3.43003e-91
-1.62292e-91
-6.17518e-92
-1.14879e-221
-5.52711e-214
-2.76017e-206
-2.58841e-198
-5.76516e-187
-5.14975e-175
-5.97315e-170
-1.9473e-153
-4.63758e-148
-6.95378e-147
-1.4542e-146
-1.50907e-144
-2.52741e-142
-2.42911e-140
-7.14287e-140
-4.81875e-140
-5.01627e-141
-7.89983e-143
1.75929e-144
7.3386e-144
-1.05686e-136
6.2525e-113
-1.73696e-103
-5.35708e-103
-9.57556e-101
-1.72902e-95
-7.58003e-94
-1.64514e-92
-1.72818e-91
-9.26784e-91
-3.04757e-90
-6.76775e-90
-1.0793e-89
-1.28746e-89
-1.18115e-89
-8.49649e-90
-4.8567e-90
-2.22572e-90
-8.22138e-91
-2.72143e-218
-7.82876e-210
-1.13707e-202
-3.02692e-195
-4.98078e-184
-3.70389e-172
-2.84194e-167
-4.11819e-151
-1.08026e-145
-1.33158e-144
-2.38133e-144
-4.82513e-142
-7.53447e-140
-6.69623e-138
-1.7577e-137
-1.07585e-137
-1.04918e-138
-1.58827e-140
-2.00674e-143
2.39976e-143
-3.54102e-135
4.10679e-111
-1.01369e-101
-2.9228e-101
-1.9686e-99
-3.7511e-94
-1.56187e-92
-3.26241e-91
-3.3005e-90
-1.69605e-89
-5.34139e-89
-1.13669e-88
-1.73937e-88
-1.99416e-88
-1.76169e-88
-1.22278e-88
-6.75868e-89
-3.00168e-89
-1.07696e-89
-2.64863e-215
-9.13674e-209
-1.39013e-201
-3.34094e-192
-4.25165e-181
-2.6096e-169
-1.32473e-164
-8.4201e-149
-2.45257e-143
-2.4861e-142
-3.84408e-142
-1.52041e-139
-2.21209e-137
-1.81934e-135
-4.2667e-135
-2.37165e-135
-2.17071e-136
-3.15014e-138
-5.25943e-141
7.90886e-143
-1.10392e-133
2.65003e-109
-5.80621e-100
-1.56634e-99
-3.99317e-98
-7.92334e-93
-3.13574e-91
-6.3115e-90
-6.1568e-89
-3.0343e-88
-9.15914e-88
-1.86922e-87
-2.74643e-87
-3.02833e-87
-2.57782e-87
-1.72754e-87
-9.23888e-88
-3.97879e-88
-1.38736e-88
-4.75966e-213
-2.19593e-206
-1.23116e-198
-3.46525e-189
-3.61327e-178
-1.79954e-166
-6.04656e-162
-1.61951e-146
-5.42169e-141
-4.52161e-140
-6.1928e-140
-4.71485e-137
-6.39158e-135
-4.86887e-133
-1.02118e-132
-5.16023e-133
-4.44149e-134
-6.18104e-136
-1.03433e-138
5.44764e-141
-3.18188e-132
1.67914e-107
-3.26232e-98
-8.2412e-98
-8.19912e-97
-1.6278e-91
-6.12803e-90
-1.1901e-88
-1.12084e-87
-5.3025e-87
-1.53538e-86
-3.00727e-86
-4.24582e-86
-4.50581e-86
-3.69826e-86
-2.3945e-86
-1.23982e-86
-5.18069e-87
-1.75668e-87
-6.33792e-210
-2.36806e-203
-9.82378e-196
-3.36245e-186
-3.08017e-175
-1.21372e-163
-2.70193e-159
-2.9405e-144
-1.1658e-138
-8.00343e-138
-1.02262e-137
-1.43732e-134
-1.81611e-132
-1.28267e-130
-2.40866e-130
-1.10782e-130
-8.98502e-132
-1.1997e-133
-1.99546e-136
2.22845e-140
-8.41974e-131
1.04423e-105
-1.79709e-96
-4.25505e-96
-1.80197e-95
-3.24907e-90
-1.16448e-88
-2.18507e-87
-1.98954e-86
-9.04342e-86
-2.51408e-85
-4.72977e-85
-6.42164e-85
-6.56385e-85
-5.19842e-85
-3.25409e-85
-1.63236e-85
-6.62247e-86
-2.18506e-86
-4.09689e-207
-1.6322e-200
-7.9448e-193
-3.03526e-183
-2.64695e-172
-8.00061e-161
-1.18168e-156
-4.86854e-142
-2.4357e-136
-1.3773e-135
-1.81651e-135
-4.30331e-132
-5.0709e-130
-3.32435e-128
-5.59649e-128
-2.34586e-128
-1.79657e-129
-2.30309e-131
-3.78377e-134
1.85349e-143
-2.03053e-129
6.37044e-104
-9.70014e-95
-2.15481e-94
-4.62073e-94
-6.2933e-89
-2.14929e-87
-3.90242e-86
-3.44008e-85
-1.5039e-84
-4.01762e-84
-7.26609e-84
-9.49463e-84
-9.35475e-84
-7.15416e-84
-4.33285e-84
-2.1072e-84
-8.30567e-85
-2.66831e-85
-1.14402e-204
-4.50132e-198
-7.51253e-190
-2.53312e-180
-2.29557e-169
-5.14981e-158
-5.05685e-154
-7.33556e-140
-4.93882e-134
-2.30185e-133
-3.68653e-133
-1.26407e-129
-1.39025e-127
-8.47097e-126
-1.28034e-125
-4.89801e-126
-3.54947e-127
-4.37228e-129
-7.03967e-132
-5.87856e-143
-4.43712e-128
3.81032e-102
-5.12705e-93
-1.06966e-92
-1.46722e-92
-1.18148e-87
-3.84853e-86
-6.77197e-85
-5.78835e-84
-2.43626e-83
-6.26015e-83
-1.08936e-82
-1.37117e-82
-1.30329e-82
-9.63221e-83
-5.6484e-83
-2.66513e-83
-1.02131e-83
-3.19693e-84
-1.49397e-201
-8.08477e-195
-7.87027e-187
-1.93984e-177
-2.00253e-166
-3.23449e-155
-2.11734e-151
-9.18749e-138
-9.70723e-132
-3.73195e-131
-8.81558e-131
-3.63922e-127
-3.73968e-125
-2.1208e-123
-2.88262e-123
-1.00799e-123
-6.9266e-125
-8.20751e-127
-1.28337e-129
-6.10887e-140
-8.79877e-127
2.23296e-100
-2.65157e-91
-5.20117e-91
-5.57821e-91
-2.147e-86
-6.67715e-85
-1.14053e-83
-9.46773e-83
-3.84061e-82
-9.5017e-82
-1.59237e-81
-1.93239e-81
-1.77346e-81
-1.26772e-81
-7.20368e-82
-3.3002e-82
-1.23048e-82
-3.75551e-83
-2.08343e-198
-1.00484e-191
-7.35018e-184
-1.35146e-174
-1.74591e-163
-1.98038e-152
-8.67344e-149
-9.00759e-136
-1.84694e-129
-5.86233e-129
-2.41197e-128
-1.02585e-124
-9.86248e-123
-5.21325e-121
-6.38382e-121
-2.04378e-121
-1.33451e-122
-1.52315e-124
-2.28961e-127
-1.65869e-137
-1.6229e-125
1.28099e-98
-1.34052e-89
-2.47508e-89
-2.3325e-89
-3.7714e-85
-1.12101e-83
-1.86201e-82
-1.50369e-81
-5.8856e-81
-1.4034e-80
-2.26729e-80
-2.65523e-80
-2.35506e-80
-1.62969e-80
-8.98116e-81
-3.99819e-81
-1.45154e-81
-4.32285e-82
-3.54519e-195
-1.16378e-188
-5.90122e-181
-8.4757e-172
-1.50981e-160
-1.18106e-149
-3.47634e-146
-4.77571e-134
-3.39692e-127
-8.91138e-127
-7.10889e-126
-2.82839e-122
-2.548e-120
-1.25722e-118
-1.38976e-118
-4.08075e-119
-2.53722e-120
-2.79395e-122
-3.99621e-125
-2.30918e-133
-3.00443e-124
7.18604e-97
-6.61768e-88
-1.15151e-87
-1.00571e-87
-6.39466e-84
-1.8187e-82
-2.9431e-81
-2.31639e-80
-8.75879e-80
-2.01513e-79
-3.14165e-79
-3.55415e-79
-3.04954e-79
-2.04478e-79
-1.09387e-79
-4.73605e-80
-1.6756e-80
-4.87308e-81
-3.82931e-192
-4.95535e-186
-3.98614e-178
-4.72441e-169
-1.28637e-157
-6.85413e-147
-1.36371e-143
4.8055e-137
-6.03082e-125
-1.30926e-124
-2.14857e-123
-7.61957e-120
-6.44335e-118
-2.97187e-116
-2.97226e-116
-8.01953e-117
-4.75765e-118
-5.06425e-120
-6.82828e-123
3.34201e-123
-6.25466e-123
3.93709e-95
-3.18621e-86
-5.23203e-86
-4.33106e-86
-1.04514e-82
-2.84748e-81
-4.49838e-80
-3.45737e-79
-1.26456e-78
-2.81042e-78
-4.23287e-78
-4.63091e-78
-3.84784e-78
-2.50249e-78
-1.30076e-78
-5.48233e-79
-1.89187e-79
-5.37749e-80
-1.08865e-189
-4.71578e-183
-2.42028e-175
-2.3023e-166
-1.07357e-154
-3.8671e-144
-5.23769e-141
1.0654e-134
-1.03209e-122
-1.85713e-122
-6.47484e-121
-2.00363e-117
-1.5933e-115
-6.87884e-114
-6.24001e-114
-1.55024e-114
-8.79353e-116
-9.06728e-118
-1.14516e-120
2.31242e-122
-1.47039e-121
2.10356e-93
-1.49437e-84
-2.31915e-84
-1.83854e-84
-1.64455e-81
-4.29694e-80
-6.64127e-79
-4.99509e-78
-1.76963e-77
-3.80387e-77
-5.54117e-77
-5.86918e-77
-4.7278e-77
-2.98551e-77
-1.50933e-77
-6.19854e-78
-2.08826e-78
-5.80644e-79
-7.86589e-186
-8.21199e-180
-1.44598e-172
-9.60775e-164
-8.74708e-152
-2.11843e-141
-1.97101e-138
2.27569e-132
-1.70075e-120
-2.54126e-120
-1.91911e-118
-5.13789e-115
-3.84835e-113
-1.55733e-111
-1.28495e-111
-2.94596e-112
-1.60103e-113
-1.60278e-115
-1.89184e-118
-1.97982e-122
-3.22066e-120
1.0904e-91
-6.819e-83
-1.0018e-82
-7.65325e-83
-2.48893e-80
-6.24181e-79
-9.46012e-78
-6.97842e-77
-2.39804e-76
-4.99183e-76
-7.04152e-76
-7.22934e-76
-5.65207e-76
-3.46933e-76
-1.70769e-76
-6.84043e-77
-2.25196e-77
-6.13082e-78
-8.70321e-183
-1.11351e-176
-7.989e-170
-3.33521e-161
-6.93046e-149
-1.125e-138
-7.2657e-136
4.67767e-130
-2.69539e-118
-3.35549e-118
-5.55779e-116
-1.28349e-112
-9.06732e-111
-3.44406e-109
-2.59302e-109
-5.49983e-110
-2.86955e-111
-2.79528e-113
-3.08854e-116
-3.8059e-120
-4.6393e-119
5.6085e-90
-3.0231e-81
-4.21179e-81
-3.11643e-81
-3.62136e-79
-8.71463e-78
-1.29825e-76
-9.41432e-76
-3.14245e-75
-6.34299e-75
-8.67481e-75
-8.64316e-75
-6.5663e-75
-3.9222e-75
-1.88174e-75
-7.35951e-76
-2.36992e-76
-6.32314e-77
-1.47264e-179
-8.44961e-174
-3.46379e-167
-9.2741e-159
-5.33688e-146
-5.78297e-136
-2.62592e-133
9.22217e-128
-4.10445e-116
-4.28807e-116
-1.56699e-113
-3.1197e-110
-2.08098e-108
-7.43045e-107
-5.12362e-107
-1.00814e-107
-5.05969e-109
-4.8057e-111
-4.97624e-114
-1.09676e-176
-6.39733e-171
-1.28117e-164
-1.98572e-156
-3.9763e-143
-2.86804e-133
-9.27066e-131
1.7432e-125
-5.99348e-114
-5.36351e-114
-4.29134e-111
-7.36852e-108
-4.64554e-106
-1.56184e-104
-9.90569e-105
-1.8134e-105
-8.77078e-107
-1.13877e-108
-1.68831e-105
-3.54855e-283
-1.87563e-274
-1.45255e-266
-2.64029e-258
-2.04461e-250
-3.81767e-242
-8.5368e-235
-2.18685e-225
-9.14326e-218
-3.67677e-214
-9.33804e-212
-8.74723e-210
-2.39443e-202
-1.07326e-200
9.86458e-195
1.59058e-190
1.41618e-186
5.19477e-183
1.12685e-179
1.05281e-176
3.88781e-174
4.18191e-166
-2.00292e-155
-4.83459e-154
-1.64139e-144
-3.48359e-137
-1.70716e-134
-1.97412e-132
-9.36074e-131
-2.2615e-129
-3.2372e-128
-2.99057e-127
-1.87959e-126
-8.32429e-126
-2.6622e-125
-6.25589e-125
-1.09342e-124
-1.43285e-124
-1.41392e-124
-2.06555e-278
-2.91847e-270
-8.08969e-263
-7.44791e-255
-3.48446e-247
-5.21352e-239
-8.33314e-232
-1.07902e-222
-3.49962e-215
-1.14949e-211
-2.44351e-209
-1.42153e-207
-2.76273e-200
-1.0444e-198
7.00145e-193
9.40778e-189
7.08518e-185
2.22398e-181
4.14395e-178
3.35275e-175
1.08252e-172
3.80462e-164
-1.66528e-153
-3.72033e-152
-5.44417e-143
-1.22265e-135
-5.66607e-133
-6.19467e-131
-2.77603e-129
-6.33258e-128
-8.56586e-127
-7.48974e-126
-4.46429e-125
-1.87918e-124
-5.72527e-124
-1.28473e-123
-2.14946e-123
-2.70285e-123
-2.56568e-123
-4.12124e-274
-2.77838e-266
-3.97592e-259
-1.84275e-251
-5.21023e-244
-6.52527e-236
-7.45814e-229
-6.08329e-220
-1.32e-212
-3.54221e-209
-6.30624e-207
-2.38596e-205
-3.11784e-198
-9.94194e-197
4.83731e-191
5.41187e-187
3.44403e-183
9.2417e-180
1.47764e-176
1.0342e-173
2.91647e-171
3.42902e-162
-1.37175e-151
-2.83673e-150
-1.77639e-141
-4.2358e-134
-1.85722e-131
-1.92072e-129
-8.13871e-128
-1.75368e-126
-2.24234e-125
-1.85626e-124
-1.04959e-123
-4.2003e-123
-1.21942e-122
-2.61362e-122
-4.18674e-122
-5.05297e-122
-4.61508e-122
-5.81772e-270
-2.8096e-262
-1.68325e-255
-3.85561e-248
-6.59058e-241
-7.35805e-233
-6.01487e-226
-3.9409e-217
-4.90703e-210
-1.07596e-206
-1.60519e-204
-4.16525e-203
-3.43995e-196
-9.25344e-195
3.25068e-189
3.02519e-185
1.62496e-181
3.72363e-178
5.10305e-175
3.08614e-172
7.59255e-170
3.06116e-160
-1.11933e-149
-2.14312e-148
-5.69971e-140
-1.44814e-132
-6.01046e-130
-5.88316e-128
-2.35835e-126
-4.80188e-125
-5.80593e-124
-4.5518e-123
-2.44222e-122
-9.29403e-122
-2.57176e-121
-5.26622e-121
-8.07893e-121
-9.36058e-121
-8.22785e-121
-2.5265e-265
-2.89849e-258
-5.94503e-252
-6.42549e-245
-6.63904e-238
-7.29269e-230
-4.26356e-223
-2.78445e-214
-1.79774e-207
-3.22141e-204
-4.02942e-202
-7.57167e-201
-3.70857e-194
-8.41657e-193
2.1229e-187
1.64171e-183
7.43417e-180
1.45308e-176
1.70478e-173
8.89749e-171
1.90726e-168
2.70644e-158
-9.04663e-148
-1.60407e-146
-1.7975e-138
-4.88444e-131
-1.92003e-128
-1.77972e-126
-6.75277e-125
-1.29977e-123
-1.48657e-122
-1.1041e-121
-5.62281e-121
-2.03541e-120
-5.36967e-120
-1.05076e-119
-1.54413e-119
-1.71797e-119
-1.45362e-119
-7.3147e-262
-1.63232e-254
-1.61543e-248
-7.62519e-242
-4.76007e-235
-6.12467e-227
-2.56013e-220
-2.0032e-211
-6.49088e-205
-9.50652e-202
-9.97478e-200
-1.42612e-198
-3.90473e-192
-7.47704e-191
1.34608e-185
8.64066e-182
3.29424e-178
5.4852e-175
5.50189e-172
2.47477e-169
4.61566e-167
2.36938e-156
-7.24083e-146
-1.18929e-144
-5.56899e-137
-1.6249e-129
-6.05265e-127
-5.31589e-125
-1.91016e-123
-3.47707e-122
-3.76309e-121
-2.6486e-120
-1.28067e-119
-4.411e-119
-1.10973e-118
-2.07573e-118
-2.92274e-118
-3.12326e-118
-2.54448e-118
-8.88628e-258
-3.00981e-251
-1.48283e-245
-4.85965e-239
-1.83121e-232
-4.10378e-224
-1.22569e-217
-1.39073e-208
-2.30951e-202
-2.76515e-199
-2.43485e-197
-2.75791e-196
-4.01296e-190
-6.48399e-189
8.27914e-184
4.40599e-180
1.41222e-176
2.00039e-173
1.71295e-170
6.63052e-168
1.07425e-165
2.0536e-154
-5.73849e-144
-8.73324e-143
-1.69411e-135
-5.32995e-128
-1.88235e-125
-1.56736e-123
-5.33657e-122
-9.19065e-121
-9.41557e-120
-6.28219e-119
-2.88496e-118
-9.45727e-118
-2.2696e-117
-4.05901e-117
-5.47755e-117
-5.62344e-117
-4.41221e-117
-1.50044e-262
-1.15214e-254
-3.78985e-248
-3.97349e-242
-5.44173e-237
-1.95927e-221
-4.17885e-215
-8.97856e-206
-8.09724e-200
-7.92717e-197
-5.85995e-195
-5.42012e-194
-4.0231e-188
-5.48533e-187
4.93415e-182
2.17413e-178
5.84943e-175
7.03789e-172
5.1368e-169
1.70834e-166
2.39966e-164
1.7618e-152
-4.50239e-142
-6.35063e-141
-5.0572e-134
-1.72334e-126
-5.77356e-124
-4.56041e-122
-1.47212e-120
-2.39968e-119
-2.32801e-118
-1.47296e-117
-6.42632e-117
-2.0056e-116
-4.59256e-116
-7.85525e-116
-1.01623e-115
-1.00257e-115
-7.57781e-116
-7.75337e-261
-2.66618e-253
-1.68957e-246
-2.55907e-240
-3.03821e-235
-5.02504e-219
-7.65128e-213
-5.23716e-203
-2.79698e-197
-2.23971e-194
-1.39035e-192
-1.07268e-191
-3.93186e-186
-4.52406e-185
2.84619e-180
1.0369e-176
2.33773e-173
2.38515e-170
1.48126e-167
4.22491e-165
5.1321e-163
1.49579e-150
-3.49664e-140
-4.57234e-139
-1.48049e-132
-5.49073e-125
-1.74599e-122
-1.30906e-120
-4.00862e-119
-6.18759e-118
-5.68657e-117
-3.41307e-116
-1.41515e-115
-4.20605e-115
-9.19261e-115
-1.50419e-114
-1.86602e-114
-1.76957e-114
-1.28879e-114
-1.62892e-262
-9.19501e-255
-2.51625e-248
-1.9192e-242
-1.25212e-236
-2.81546e-228
-2.74631e-222
-2.68548e-200
-9.51621e-195
-6.23589e-192
-3.25148e-190
-2.12262e-189
-3.74346e-184
-3.63516e-183
1.58712e-178
4.77328e-175
9.001e-172
7.77344e-169
4.09981e-166
1.00092e-163
1.04728e-161
1.25655e-148
-2.68745e-138
-3.25883e-137
-4.24733e-131
-1.72328e-123
-5.20425e-121
-3.70596e-119
-1.07719e-117
-1.57518e-116
-1.37191e-115
-7.8139e-115
-3.08005e-114
-8.72075e-114
-1.81972e-113
-2.8494e-113
-3.39058e-113
-3.09153e-113
-2.17017e-113
-4.18602e-263
-5.80182e-257
-1.24707e-250
-1.80055e-244
-3.79913e-238
-4.83503e-226
-1.79261e-219
-1.17897e-197
-3.18872e-192
-1.71081e-189
-7.49361e-188
-4.1783e-187
-3.46933e-182
-2.84365e-181
8.5442e-177
2.1178e-173
3.33342e-170
2.43187e-167
1.08696e-164
2.26654e-162
2.0279e-160
1.04365e-146
-2.04373e-136
-2.2988e-135
-1.19317e-129
-5.32594e-122
-1.52842e-119
-1.0344e-117
-2.85563e-116
-3.95781e-115
-3.26809e-114
-1.76703e-113
-6.62391e-113
-1.78722e-112
-3.56167e-112
-5.33847e-112
-6.09497e-112
-5.34495e-112
-3.61735e-112
-1.22676e-261
-2.35604e-255
-7.06254e-249
-1.18324e-242
-4.33653e-235
-9.9258e-225
-1.15613e-216
-4.35478e-195
-1.05197e-189
-4.62343e-187
-1.70166e-185
-8.15407e-185
-3.1273e-180
-2.16455e-179
4.43426e-175
9.04169e-172
1.18527e-168
7.28843e-166
2.75433e-163
4.8937e-161
3.68585e-159
8.53491e-145
-1.53749e-134
-1.60461e-133
-3.27916e-128
-1.62027e-120
-4.42121e-118
-2.84565e-116
-7.46606e-115
-9.81223e-114
-7.68478e-113
-3.94599e-112
-1.40722e-111
-3.61945e-111
-6.89096e-111
-9.88998e-111
-1.08372e-110
-9.14301e-111
-5.96747e-111