/*--------------------------------*- C++ -*----------------------------------*\
| =========                 |                                                 |
| \\      /  F ield         | OpenFOAM: The Open Source CFD Toolbox           |
|  \\    /   O peration     | Version:  v2012                                 |
|   \\  /    A nd           | Website:  www.openfoam.com                      |
|    \\/     M anipulation  |                                                 |
\*---------------------------------------------------------------------------*/
FoamFile
{
    version     2.0;
    format      ascii;
    class       surfaceScalarField;
    location    "0.2";
    object      phi;
}
// * * * * * * * * * * * * * * * * * * * * * * * * * * * * * * * * * * * * * //

dimensions      [0 3 -1 0 0 0 0];
oriented        oriented;


internalField   nonuniform List<scalar> 
8212
(
7.12878e-17
-1.7534e-15
1.36451e-17
5.31552e-16
-3.61177e-14
4.20953e-18
2.69362e-15
-1.72374e-13
4.95396e-17
7.42228e-15
-4.96578e-13
3.32965e-17
1.4705e-14
-1.10895e-12
-1.55669e-16
2.92699e-14
-2.13129e-12
1.65502e-16
4.77852e-14
-3.70379e-12
-2.19808e-16
7.41847e-14
-5.99091e-12
-2.17869e-16
1.09727e-13
-9.18361e-12
-2.51338e-16
1.5726e-13
-1.35012e-11
-1.05205e-16
2.1819e-13
-1.91944e-11
-6.34486e-17
2.95103e-13
-2.65467e-11
-3.48615e-17
3.89979e-13
-3.58882e-11
-1.81674e-17
5.06113e-13
-4.75771e-11
-1.81061e-17
6.46126e-13
-6.20349e-11
-2.50573e-17
8.13487e-13
-7.97155e-11
-5.66167e-17
1.01174e-12
-1.0114e-10
-6.10849e-17
1.24446e-12
-1.26885e-10
-6.37414e-17
1.51556e-12
-1.57593e-10
2.61303e-17
1.82853e-12
-1.93969e-10
3.41163e-17
2.18625e-12
-2.36795e-10
4.8682e-17
2.59184e-12
-2.86954e-10
3.66739e-17
3.04835e-12
-3.45353e-10
4.32506e-17
3.55885e-12
-4.13071e-10
3.02476e-17
4.12612e-12
-4.91198e-10
1.75655e-17
4.7525e-12
-5.80985e-10
6.00731e-18
5.43967e-12
-6.83752e-10
-5.18456e-18
6.18844e-12
-8.00844e-10
-1.20562e-17
6.99868e-12
-9.33903e-10
-1.78851e-17
7.8689e-12
-1.08436e-09
-2.04888e-17
8.79622e-12
-1.25395e-09
-2.31254e-17
9.77623e-12
-1.44437e-09
-2.25055e-17
1.08026e-11
-1.65729e-09
-2.35276e-17
1.18669e-11
-1.89438e-09
-2.0935e-17
1.29586e-11
-2.1572e-09
-2.16031e-17
1.40648e-11
-2.44718e-09
-1.70867e-17
1.51705e-11
-2.76534e-09
-1.48734e-17
1.62583e-11
-3.11241e-09
-1.0835e-17
-3.4884e-09
-1.14969e-17
-6.07152e-18
-1.78141e-15
8.08565e-19
2.93648e-16
-3.64225e-14
-1.88201e-18
1.25598e-15
-1.73728e-13
-4.22866e-17
5.58248e-15
-4.99598e-13
1.62184e-16
1.30984e-14
-1.11537e-12
1.22774e-16
2.49439e-14
-2.14219e-12
1.12723e-16
4.46145e-14
-3.72144e-12
2.2681e-16
6.85141e-14
-6.01803e-12
-3.80323e-16
1.05081e-13
-9.22157e-12
-1.78823e-16
1.51774e-13
-1.35508e-11
-3.23913e-16
2.13926e-13
-1.92577e-11
-1.39164e-16
2.91863e-13
-2.66258e-11
-1.3527e-16
3.88813e-13
-3.5986e-11
-7.98699e-17
5.0655e-13
-4.76966e-11
-1.7345e-16
6.49065e-13
-6.21788e-11
-1.32541e-16
8.18142e-13
-7.98871e-11
-2.52572e-16
1.01882e-12
-1.01343e-10
-1.49528e-16
1.25267e-12
-1.27121e-10
-2.13139e-16
1.52419e-12
-1.57867e-10
-1.63485e-16
1.83706e-12
-1.94284e-10
-2.34096e-16
2.19459e-12
-2.37154e-10
-2.02117e-16
2.60005e-12
-2.87361e-10
-1.65137e-16
3.05687e-12
-3.45811e-10
-1.72728e-16
3.56815e-12
-4.13584e-10
-1.70898e-16
4.13661e-12
-4.91768e-10
-1.5599e-16
4.76445e-12
-5.81614e-10
-1.35517e-16
5.45321e-12
-6.84442e-10
-1.16555e-16
6.20367e-12
-8.01595e-10
-9.90154e-17
7.0157e-12
-9.34716e-10
-8.3495e-17
7.8878e-12
-1.08523e-09
-7.23368e-17
8.81713e-12
-1.25488e-09
-6.16349e-17
9.7993e-12
-1.44535e-09
-5.32063e-17
1.08279e-11
-1.65832e-09
-4.54556e-17
1.18946e-11
-1.89545e-09
-3.88851e-17
1.29888e-11
-2.15829e-09
-3.40093e-17
1.40975e-11
-2.44829e-09
-2.53078e-17
1.52055e-11
-2.76645e-09
-1.64776e-17
1.62955e-11
-3.1135e-09
-9.28109e-18
-3.48945e-09
-1.09039e-17
2.15713e-18
-1.79396e-15
1.04272e-19
3.2014e-16
-3.65686e-14
1.60932e-17
7.49956e-16
-1.74929e-13
-9.05265e-17
3.80903e-15
-5.01941e-13
9.55341e-17
9.48144e-15
-1.12096e-12
3.02178e-18
1.87499e-14
-2.1515e-12
-3.23478e-18
3.53336e-14
-3.73663e-12
1.73933e-16
5.81758e-14
-6.03936e-12
1.79146e-16
9.17846e-14
-9.25269e-12
2.87342e-16
1.33858e-13
-1.35935e-11
-8.32127e-17
1.92559e-13
-1.93151e-11
1.33779e-16
2.65785e-13
-2.66997e-11
-1.0611e-16
3.59269e-13
-3.60793e-11
4.81485e-18
4.73621e-13
-4.78116e-11
-8.87879e-17
6.1332e-13
-6.2319e-11
-7.44681e-17
7.7985e-13
-8.00553e-11
-2.08927e-16
9.78735e-13
-1.01542e-10
-1.17693e-16
1.21061e-12
-1.27356e-10
-3.03341e-16
1.48162e-12
-1.5814e-10
-2.68599e-16
1.79461e-12
-1.94599e-10
-2.28929e-16
2.15317e-12
-2.37514e-10
-1.71645e-16
2.5603e-12
-2.8777e-10
-1.78414e-16
3.01932e-12
-3.46272e-10
-1.70077e-16
3.53332e-12
-4.141e-10
-1.69542e-16
4.10523e-12
-4.92341e-10
-1.56084e-16
4.73735e-12
-5.82247e-10
-1.4042e-16
5.43132e-12
-6.85137e-10
-1.29079e-16
6.18795e-12
-8.02352e-10
-1.1635e-16
7.00712e-12
-9.35536e-10
-1.03919e-16
7.88734e-12
-1.08611e-09
-9.41826e-17
8.82576e-12
-1.25582e-09
-8.31452e-17
9.81795e-12
-1.44635e-09
-7.33108e-17
1.08575e-11
-1.65936e-09
-6.31258e-17
1.19359e-11
-1.89653e-09
-5.3363e-17
1.30423e-11
-2.1594e-09
-4.58938e-17
1.41637e-11
-2.44941e-09
-3.1719e-17
1.52846e-11
-2.76757e-09
-1.74135e-17
1.6387e-11
-3.1146e-09
-5.82091e-18
-3.49051e-09
-9.47552e-18
8.84118e-17
-1.80828e-15
1.05925e-17
2.79638e-16
-3.69227e-14
-1.95916e-17
9.73542e-16
-1.75855e-13
-2.2136e-17
4.21979e-15
-5.0432e-13
1.06166e-16
9.68267e-15
-1.12593e-12
5.40586e-17
1.85962e-14
-2.15957e-12
1.05916e-16
3.32992e-14
-3.75078e-12
6.90173e-17
5.5946e-14
-6.06011e-12
2.25805e-16
8.88993e-14
-9.28329e-12
2.7552e-16
1.29752e-13
-1.36354e-11
-1.23432e-16
1.8698e-13
-1.93716e-11
8.24657e-17
2.57919e-13
-2.67722e-11
-1.65959e-16
3.49349e-13
-3.61712e-11
-7.05657e-17
4.61214e-13
-4.79251e-11
-1.96932e-16
5.98665e-13
-6.24575e-11
-1.35201e-16
7.62778e-13
-8.02216e-11
-2.61657e-16
9.59576e-13
-1.0174e-10
-1.35947e-16
1.18892e-12
-1.27588e-10
-3.6373e-16
1.45715e-12
-1.58411e-10
-2.76338e-16
1.76778e-12
-1.94911e-10
-2.19264e-16
2.12412e-12
-2.37872e-10
-2.22141e-16
2.52973e-12
-2.88177e-10
-2.2316e-16
2.98843e-12
-3.46732e-10
-2.30229e-16
3.50341e-12
-4.14616e-10
-2.30774e-16
4.07766e-12
-4.92917e-10
-2.10247e-16
4.71348e-12
-5.82884e-10
-1.91247e-16
5.41259e-12
-6.85837e-10
-1.70403e-16
6.17587e-12
-8.03117e-10
-1.52848e-16
7.0033e-12
-9.36364e-10
-1.32099e-16
7.89343e-12
-1.087e-09
-1.18316e-16
8.84348e-12
-1.25677e-09
-1.00594e-16
9.849e-12
-1.44735e-09
-8.73663e-17
1.09035e-11
-1.66041e-09
-7.30642e-17
1.19984e-11
-1.89762e-09
-6.11917e-17
1.31228e-11
-2.16052e-09
-5.17068e-17
1.42631e-11
-2.45055e-09
-3.38826e-17
1.54035e-11
-2.76871e-09
-1.51428e-17
1.65255e-11
-3.11572e-09
-5.98568e-19
-3.4916e-09
-6.4739e-18
1.32535e-16
-1.79658e-15
1.85412e-17
1.31286e-16
-3.70003e-14
-1.10439e-17
1.69561e-16
-1.76264e-13
-4.57159e-17
2.13874e-15
-5.06061e-13
2.78624e-17
5.87828e-15
-1.13002e-12
-3.65414e-17
1.29783e-14
-2.16694e-12
-3.31256e-17
2.49636e-14
-3.7633e-12
-6.28237e-17
4.47181e-14
-6.07829e-12
1.91783e-16
7.35899e-14
-9.31028e-12
2.37178e-16
1.11445e-13
-1.36726e-11
7.11938e-17
1.64767e-13
-1.94228e-11
2.43551e-16
2.31593e-13
-2.68392e-11
7.64662e-18
3.1929e-13
-3.62576e-11
1.36194e-16
4.26881e-13
-4.80334e-11
-7.3732e-17
5.60854e-13
-6.25913e-11
1.01318e-17
7.21368e-13
-8.03836e-11
-1.83564e-16
9.15244e-13
-1.01934e-10
-5.17618e-17
1.14224e-12
-1.27818e-10
-3.17844e-16
1.40918e-12
-1.5868e-10
-2.84173e-16
1.71933e-12
-1.95223e-10
-2.73093e-16
2.07622e-12
-2.38231e-10
-2.77147e-16
2.4833e-12
-2.88587e-10
-3.07032e-16
2.94436e-12
-3.47195e-10
-2.82696e-16
3.46269e-12
-4.15137e-10
-2.66285e-16
4.04156e-12
-4.93498e-10
-2.32484e-16
4.68349e-12
-5.83528e-10
-2.02529e-16
5.39045e-12
-6.86546e-10
-1.7789e-16
6.16344e-12
-8.03891e-10
-1.57017e-16
7.00262e-12
-9.37204e-10
-1.36397e-16
7.90659e-12
-1.08791e-09
-1.22885e-16
8.87266e-12
-1.25773e-09
-1.05762e-16
9.89635e-12
-1.44838e-09
-9.31969e-17
1.09712e-11
-1.66149e-09
-7.95396e-17
1.20883e-11
-1.89874e-09
-6.80289e-17
1.32365e-11
-2.16167e-09
-5.84567e-17
1.44019e-11
-2.45172e-09
-3.82068e-17
1.55681e-11
-2.76987e-09
-1.57113e-17
1.6716e-11
-3.11687e-09
1.67088e-18
-3.4927e-09
-5.32226e-18
4.21855e-18
-1.82112e-15
3.04817e-18
4.2847e-16
-3.71366e-14
2.58123e-17
8.42042e-16
-1.77298e-13
-6.80579e-17
3.22623e-15
-5.07969e-13
6.48398e-17
7.42678e-15
-1.13399e-12
1.61174e-17
1.45497e-14
-2.17367e-12
5.89653e-17
2.5943e-14
-3.77462e-12
1.90032e-18
4.42587e-14
-6.0955e-12
1.32797e-16
7.06673e-14
-9.33606e-12
9.33405e-17
1.07809e-13
-1.37081e-11
1.89304e-16
1.58361e-13
-1.94718e-11
1.91365e-16
2.22777e-13
-2.69032e-11
5.40333e-17
3.07058e-13
-3.63407e-11
1.31042e-16
4.11007e-13
-4.81378e-11
-4.82558e-17
5.41181e-13
-6.27209e-11
5.20288e-17
6.97586e-13
-8.05417e-11
-1.96844e-16
8.87643e-13
-1.02124e-10
-3.4028e-17
1.111e-12
-1.28044e-10
-3.07115e-16
1.37443e-12
-1.58946e-10
-2.49474e-16
1.68183e-12
-1.95532e-10
-2.1469e-16
2.03684e-12
-2.38588e-10
-2.1599e-16
2.44325e-12
-2.88995e-10
-2.20361e-16
2.90533e-12
-3.47659e-10
-2.188e-16
3.42658e-12
-4.1566e-10
-2.18344e-16
4.01043e-12
-4.94083e-10
-1.93415e-16
4.65951e-12
-5.84178e-10
-1.75918e-16
5.37594e-12
-6.87263e-10
-1.54011e-16
6.16087e-12
-8.04677e-10
-1.40856e-16
7.0146e-12
-9.38059e-10
-1.21732e-16
7.93585e-12
-1.08883e-09
-1.13053e-16
8.922e-12
-1.25872e-09
-9.55749e-17
9.96856e-12
-1.44942e-09
-8.57671e-17
1.10689e-11
-1.66259e-09
-7.25971e-17
1.22141e-11
-1.89989e-09
-6.33996e-17
1.33925e-11
-2.16285e-09
-5.48672e-17
1.45897e-11
-2.45292e-09
-3.4411e-17
1.57887e-11
-2.77107e-09
-1.00994e-17
1.69693e-11
-3.11805e-09
8.56741e-18
-3.49384e-09
-1.69382e-19
-8.46724e-18
-1.82601e-15
9.42077e-19
2.71534e-16
-3.70638e-14
3.60345e-17
6.54395e-17
-1.77876e-13
-9.01821e-17
1.27443e-15
-5.08944e-13
3.04868e-17
3.97638e-15
-1.13738e-12
-8.58382e-17
9.90838e-15
-2.17984e-12
-2.1372e-17
1.96017e-14
-3.78502e-12
-8.68669e-17
3.56327e-14
-6.11201e-12
-5.4231e-17
5.87062e-14
-9.36011e-12
-1.05205e-16
9.36516e-14
-1.37414e-11
1.9111e-16
1.40789e-13
-1.95178e-11
1.42133e-16
2.02609e-13
-2.69636e-11
1.74679e-16
2.83408e-13
-3.64198e-11
1.8484e-16
3.84013e-13
-4.8238e-11
6.43096e-17
5.10751e-13
-6.28463e-11
1.39664e-16
6.63874e-13
-8.06956e-11
-9.30349e-17
8.50832e-13
-1.02311e-10
5.74533e-17
1.07154e-12
-1.28267e-10
-2.35486e-16
1.33359e-12
-1.59209e-10
-1.82827e-16
1.64032e-12
-1.95841e-10
-2.05445e-16
1.99593e-12
-2.38945e-10
-2.18032e-16
2.4043e-12
-2.89405e-10
-2.43468e-16
2.86974e-12
-3.48126e-10
-2.10714e-16
3.39597e-12
-4.16188e-10
-1.98247e-16
3.98677e-12
-4.94675e-10
-1.67921e-16
4.64513e-12
-5.84837e-10
-1.44458e-16
5.3735e-12
-6.87992e-10
-1.21775e-16
6.17327e-12
-8.05477e-10
-1.07946e-16
7.04497e-12
-9.38931e-10
-9.15225e-17
7.98745e-12
-1.08977e-09
-8.54057e-17
8.9982e-12
-1.25973e-09
-7.09721e-17
1.00727e-11
-1.4505e-09
-6.47824e-17
1.12042e-11
-1.66372e-09
-5.5702e-17
1.23835e-11
-1.90107e-09
-5.06835e-17
1.35986e-11
-2.16406e-09
-4.5667e-17
1.48346e-11
-2.45415e-09
-2.70649e-17
1.60734e-11
-2.77231e-09
-2.66077e-18
1.72939e-11
-3.11927e-09
1.60096e-17
-3.49502e-09
6.0646e-18
8.69926e-17
-1.8359e-15
1.87718e-17
3.84808e-16
-3.72429e-14
4.7365e-18
8.33364e-16
-1.78476e-13
-2.61669e-17
2.73384e-15
-5.10574e-13
4.92008e-17
7.41559e-15
-1.14094e-12
1.26417e-16
1.31135e-14
-2.18624e-12
-8.76996e-17
2.33131e-14
-3.79455e-12
7.63254e-17
3.80474e-14
-6.12758e-12
-8.95967e-17
5.86441e-14
-9.38201e-12
-1.46095e-16
9.15744e-14
-1.37731e-11
1.35748e-16
1.35429e-13
-1.95613e-11
6.05859e-17
1.9498e-13
-2.70217e-11
1.74751e-16
2.72095e-13
-3.64961e-11
1.17867e-16
3.69866e-13
-4.83349e-11
1.12066e-16
4.92928e-13
-6.29682e-11
1.36236e-16
6.43234e-13
-8.08458e-11
1.99681e-17
8.27155e-13
-1.02493e-10
1.06861e-16
1.04518e-12
-1.28486e-10
-1.93724e-16
1.30481e-12
-1.5947e-10
-1.06078e-16
1.61034e-12
-1.96146e-10
-2.54741e-17
1.96578e-12
-2.39301e-10
-3.82582e-17
2.37544e-12
-2.89816e-10
-7.61231e-17
2.84425e-12
-3.48596e-10
-8.89917e-17
3.37627e-12
-4.1672e-10
-1.07263e-16
3.97555e-12
-4.95275e-10
-9.285e-17
4.64533e-12
-5.85508e-10
-8.47847e-17
5.38831e-12
-6.88736e-10
-6.6412e-17
6.20611e-12
-8.06295e-10
-6.11571e-17
7.09949e-12
-9.39824e-10
-4.77112e-17
8.06747e-12
-1.09074e-09
-4.81676e-17
9.10765e-12
-1.26077e-09
-3.56997e-17
1.02155e-11
-1.45161e-09
-3.52481e-17
1.13842e-11
-1.66489e-09
-2.96089e-17
1.26041e-11
-1.90229e-09
-3.03726e-17
1.38628e-11
-2.16532e-09
-2.92299e-17
1.51447e-11
-2.45543e-09
-1.41816e-17
1.64307e-11
-2.7736e-09
8.85462e-18
1.76986e-11
-3.12054e-09
2.63109e-17
-3.49624e-09
1.46454e-17
-4.96744e-18
-1.83653e-15
6.56668e-18
1.92017e-16
-3.73502e-14
7.28555e-19
1.93903e-16
-1.78823e-13
-4.63348e-17
1.09209e-15
-5.11473e-13
1.48332e-17
4.19373e-15
-1.14325e-12
8.87759e-17
7.61356e-15
-2.19019e-12
-5.84963e-17
1.67423e-14
-3.80271e-12
1.08338e-16
2.98352e-14
-6.14244e-12
-2.15476e-16
4.85313e-14
-9.40284e-12
-2.28012e-16
8.09093e-14
-1.3805e-11
2.30669e-17
1.22668e-13
-1.96038e-11
-5.3477e-17
1.81405e-13
-2.70785e-11
2.39633e-16
2.56318e-13
-3.65703e-11
9.81899e-17
3.52024e-13
-4.84295e-11
1.55457e-16
4.72495e-13
-6.30875e-11
1.28591e-16
6.20588e-13
-8.09933e-11
8.02042e-17
8.02326e-13
-1.02674e-10
1.54142e-16
1.01887e-12
-1.28704e-10
-1.12873e-16
1.27832e-12
-1.59729e-10
-2.28793e-17
1.58455e-12
-1.96453e-10
-1.4141e-17
1.94226e-12
-2.39659e-10
-4.09476e-17
2.35592e-12
-2.9023e-10
-8.7884e-17
2.83063e-12
-3.49071e-10
-6.95448e-17
3.37077e-12
-4.17261e-10
-7.36416e-17
3.98086e-12
-4.95886e-10
-5.23249e-17
4.66459e-12
-5.86192e-10
-3.75202e-17
5.42511e-12
-6.89496e-10
-1.86635e-17
6.26436e-12
-8.07134e-10
-1.2123e-17
7.18341e-12
-9.40743e-10
-9.72186e-19
8.18146e-12
-1.09174e-09
-3.39326e-18
9.25626e-12
-1.26185e-09
5.7614e-18
1.04032e-11
-1.45275e-09
2.10495e-18
1.16154e-11
-1.6661e-09
2.40591e-18
1.28828e-11
-1.90355e-09
-3.99796e-18
1.41925e-11
-2.16663e-09
-8.28641e-18
1.5528e-11
-2.45677e-09
2.26793e-18
1.68692e-11
-2.77494e-09
2.23266e-17
1.81924e-11
-3.12186e-09
3.72912e-17
-3.49752e-09
2.38521e-17
5.96576e-17
-1.83732e-15
1.56673e-17
1.76876e-16
-3.73912e-14
3.96611e-18
-1.40208e-16
-1.79016e-13
-6.59665e-17
2.40087e-15
-5.12906e-13
1.37834e-16
6.85497e-15
-1.14663e-12
1.15035e-16
1.18208e-14
-2.19617e-12
-1.07601e-16
2.33626e-14
-3.81349e-12
1.03692e-16
3.61364e-14
-6.15743e-12
-2.96498e-16
5.40329e-14
-9.42265e-12
-2.34274e-16
8.44737e-14
-1.38351e-11
8.15514e-17
1.222e-13
-1.9643e-11
-1.72673e-16
1.78649e-13
-2.71328e-11
2.45498e-16
2.50451e-13
-3.66415e-11
9.43607e-17
3.4407e-13
-4.85217e-11
1.85742e-16
4.62039e-13
-6.32042e-11
1.61841e-16
6.08528e-13
-8.11387e-11
1.33482e-16
7.88829e-13
-1.02852e-10
2.34202e-16
1.0049e-12
-1.2892e-10
6.25629e-18
1.26423e-12
-1.59988e-10
7.60913e-17
1.57157e-12
-1.96759e-10
8.96331e-17
1.93187e-12
-2.40018e-10
8.27551e-17
2.35002e-12
-2.90648e-10
4.49033e-17
2.83172e-12
-3.49552e-10
3.26028e-17
3.38179e-12
-4.17811e-10
6.70221e-18
4.00515e-12
-4.96509e-10
1.77969e-17
4.70585e-12
-5.86892e-10
2.16824e-17
5.48739e-12
-6.90277e-10
3.88517e-17
6.35208e-12
-8.07999e-10
3.98059e-17
7.30129e-12
-9.41692e-10
4.99911e-17
8.33447e-12
-1.09277e-09
4.27478e-17
9.4495e-12
-1.26296e-09
5.0591e-17
1.06418e-11
-1.45394e-09
4.14002e-17
1.19042e-11
-1.66736e-09
3.80457e-17
1.32265e-11
-1.90488e-09
2.5108e-17
1.45949e-11
-2.168e-09
1.60849e-17
1.59922e-11
-2.45817e-09
2.10021e-17
1.73969e-11
-2.77634e-09
3.72609e-17
1.87839e-11
-3.12325e-09
4.85907e-17
-3.49886e-09
3.28336e-17
2.02176e-17
-1.84197e-15
6.75441e-18
3.49612e-16
-3.76139e-14
1.79695e-18
1.31451e-16
-1.79512e-13
-8.77792e-17
2.0193e-15
-5.14359e-13
6.43264e-17
4.95126e-15
-1.14844e-12
1.27046e-16
8.01909e-15
-2.19935e-12
9.17187e-18
1.6364e-14
-3.82036e-12
1.73774e-16
2.44072e-14
-6.16781e-12
-3.07291e-16
4.17133e-14
-9.44167e-12
-2.33317e-16
7.31378e-14
-1.38659e-11
7.83253e-17
1.10837e-13
-1.96822e-11
-1.36779e-16
1.68705e-13
-2.71878e-11
3.01538e-16
2.40642e-13
-3.67125e-11
1.456e-16
3.3422e-13
-4.86133e-11
2.36621e-16
4.51584e-13
-6.332e-11
1.8108e-16
5.9773e-13
-8.12834e-11
1.74685e-16
7.7777e-13
-1.0303e-10
2.55641e-16
9.94482e-13
-1.29136e-10
5.2863e-17
1.2558e-12
-1.60248e-10
1.01954e-16
1.5666e-12
-1.97069e-10
1.40079e-16
1.93231e-12
-2.40383e-10
1.47219e-16
2.358e-12
-2.91073e-10
9.85618e-17
2.84966e-12
-3.50043e-10
1.04223e-16
3.41254e-12
-4.18373e-10
8.20075e-17
4.05213e-12
-4.97147e-10
9.00857e-17
4.77302e-12
-5.87612e-10
9.1898e-17
5.57924e-12
-6.91083e-10
1.0167e-16
6.47353e-12
-8.08892e-10
9.90196e-17
7.45767e-12
-9.42675e-10
1.0343e-16
8.53134e-12
-1.09384e-09
9.28206e-17
9.6926e-12
-1.26412e-09
9.63442e-17
1.09369e-11
-1.45519e-09
8.30953e-17
1.22568e-11
-1.66868e-09
7.4358e-17
1.36416e-11
-1.90626e-09
5.60807e-17
1.50771e-11
-2.16944e-09
4.13796e-17
1.65448e-11
-2.45963e-09
4.09054e-17
1.8022e-11
-2.77782e-09
5.22384e-17
1.94816e-11
-3.12471e-09
5.9284e-17
-3.50027e-09
4.09774e-17
9.83805e-17
-1.84675e-15
1.49962e-17
9.73068e-17
-3.76268e-14
-3.02029e-18
-1.34871e-16
-1.79629e-13
-4.0881e-17
2.12002e-15
-5.15399e-13
1.44253e-16
5.12401e-15
-1.15068e-12
7.65199e-17
1.06878e-14
-2.20497e-12
-1.84126e-17
2.1905e-14
-3.82988e-12
1.93427e-16
3.5329e-14
-6.18302e-12
-1.55277e-16
5.37051e-14
-9.4623e-12
-2.44801e-16
8.00159e-14
-1.38923e-11
-6.74001e-17
1.1752e-13
-1.97215e-11
-1.65371e-16
1.72194e-13
-2.72397e-11
3.27089e-16
2.41792e-13
-3.67816e-11
8.80686e-17
3.34371e-13
-4.87037e-11
2.84592e-16
4.50837e-13
-6.34348e-11
2.04408e-16
5.97376e-13
-8.14278e-11
2.45015e-16
7.78165e-13
-1.03208e-10
2.88392e-16
9.96883e-13
-1.29355e-10
1.01513e-16
1.26108e-12
-1.60511e-10
1.92939e-16
1.5763e-12
-1.97382e-10
2.46642e-16
1.94819e-12
-2.40752e-10
2.46309e-16
2.38252e-12
-2.91505e-10
2.00654e-16
2.88595e-12
-3.50545e-10
1.82072e-16
3.46422e-12
-4.1895e-10
1.44981e-16
4.12326e-12
-4.97805e-10
1.45226e-16
4.86813e-12
-5.88355e-10
1.39237e-16
5.70332e-12
-6.91916e-10
1.49436e-16
6.63203e-12
-8.09819e-10
1.43489e-16
7.65642e-12
-9.43698e-10
1.48351e-16
8.77648e-12
-1.09496e-09
1.34547e-16
9.99047e-12
-1.26533e-09
1.37932e-16
1.12938e-11
-1.45649e-09
1.20454e-16
1.26789e-11
-1.67007e-09
1.09144e-16
1.41347e-11
-1.90771e-09
8.53381e-17
1.56459e-11
-2.17095e-09
6.65638e-17
1.71932e-11
-2.46118e-09
6.02138e-17
1.87523e-11
-2.77938e-09
6.6673e-17
2.02941e-11
-3.12625e-09
6.87316e-17
-3.50176e-09
4.75163e-17
4.63037e-17
-1.84688e-15
1.04165e-17
1.12013e-16
-3.77825e-14
-1.89457e-17
2.26698e-16
-1.80187e-13
-5.52894e-17
2.10342e-15
-5.1665e-13
7.93171e-17
4.73831e-15
-1.15281e-12
5.39547e-17
1.03086e-14
-2.21014e-12
3.52488e-17
1.82891e-14
-3.83611e-12
2.00696e-16
2.76243e-14
-6.19342e-12
-4.27074e-17
4.55243e-14
-9.48175e-12
-2.04565e-16
7.22786e-14
-1.39185e-11
-7.3044e-18
1.10388e-13
-1.97605e-11
-4.65228e-17
1.66907e-13
-2.72925e-11
4.12418e-16
2.37829e-13
-3.68512e-11
1.9611e-16
3.31683e-13
-4.87946e-11
3.57456e-16
4.49454e-13
-6.35504e-11
2.66913e-16
5.97781e-13
-8.15736e-11
2.96203e-16
7.80939e-13
-1.03389e-10
3.30004e-16
1.00335e-12
-1.29576e-10
1.60119e-16
1.27301e-12
-1.60778e-10
2.43486e-16
1.59549e-12
-1.97702e-10
2.81753e-16
1.97698e-12
-2.41132e-10
2.70198e-16
2.42358e-12
-2.9195e-10
2.12689e-16
2.94235e-12
-3.51062e-10
2.25261e-16
3.53953e-12
-4.19546e-10
1.98285e-16
4.22167e-12
-4.98485e-10
1.99071e-16
4.99449e-12
-5.89126e-10
1.94975e-16
5.86312e-12
-6.92783e-10
2.01624e-16
6.83126e-12
-8.10786e-10
1.94688e-16
7.90154e-12
-9.44766e-10
1.94555e-16
9.07428e-12
-1.09613e-09
1.78246e-16
1.03479e-11
-1.2666e-09
1.77678e-16
1.17179e-11
-1.45786e-09
1.5707e-16
1.31765e-11
-1.67152e-09
1.41123e-16
1.47119e-11
-1.90925e-09
1.13134e-16
1.63083e-11
-2.17254e-09
8.93563e-17
1.7945e-11
-2.46282e-09
7.79244e-17
1.9596e-11
-2.78103e-09
7.876e-17
2.12301e-11
-3.12788e-09
7.58434e-17
-3.50334e-09
5.16297e-17
3.00033e-17
-1.85414e-15
7.59823e-18
5.6643e-17
-3.77504e-14
2.12824e-18
-3.27114e-16
-1.80354e-13
-6.69592e-17
1.50681e-15
-5.17629e-13
1.06203e-16
4.38437e-15
-1.15494e-12
8.24162e-17
9.12051e-15
-2.2147e-12
1.46978e-17
1.87641e-14
-3.84416e-12
1.66651e-16
3.12317e-14
-6.20719e-12
-1.32511e-16
4.91353e-14
-9.50208e-12
-3.04715e-16
7.70448e-14
-1.39467e-11
-3.57378e-18
1.15043e-13
-1.98003e-11
-1.78355e-16
1.71731e-13
-2.73459e-11
3.34401e-16
2.43422e-13
-3.69216e-11
1.88344e-16
3.38275e-13
-4.88867e-11
3.36047e-16
4.57889e-13
-6.36675e-11
2.98686e-16
6.08788e-13
-8.17219e-11
3.10568e-16
7.95476e-13
-1.03572e-10
3.97936e-16
1.02303e-12
-1.29801e-10
2.67044e-16
1.29924e-12
-1.61051e-10
3.71944e-16
1.63005e-12
-1.9803e-10
3.28836e-16
2.02237e-12
-2.41521e-10
3.08015e-16
2.48294e-12
-2.92408e-10
2.70085e-16
3.01953e-12
-3.51596e-10
2.66285e-16
3.6389e-12
-4.20163e-10
2.3407e-16
4.34813e-12
-4.99193e-10
2.30511e-16
5.15351e-12
-5.8993e-10
2.24325e-16
6.06072e-12
-6.93688e-10
2.35026e-16
7.07401e-12
-8.11797e-10
2.27574e-16
8.19646e-12
-9.45886e-10
2.28983e-16
9.42878e-12
-1.09736e-09
2.10457e-16
1.07696e-11
-1.26794e-09
2.10355e-16
1.22145e-11
-1.4593e-09
1.86458e-16
1.37553e-11
-1.67306e-09
1.68788e-16
1.53798e-11
-1.91087e-09
1.36328e-16
1.70713e-11
-2.17423e-09
1.09147e-16
1.88077e-11
-2.46455e-09
9.21869e-17
2.05612e-11
-2.78278e-09
8.78374e-17
2.22984e-11
-3.12962e-09
7.96838e-17
-3.50502e-09
5.2529e-17
-1.30602e-17
-1.85943e-15
1.34463e-18
2.56087e-16
-3.79406e-14
-7.45692e-19
2.93649e-16
-1.81023e-13
-7.81095e-17
1.95543e-15
-5.18966e-13
4.41125e-17
4.94102e-15
-1.15761e-12
3.01023e-17
9.85474e-15
-2.2197e-12
-7.92168e-18
1.8833e-14
-3.85192e-12
1.34727e-16
3.15684e-14
-6.21977e-12
5.08817e-17
4.92497e-14
-9.52103e-12
-1.54994e-16
7.72694e-14
-1.39744e-11
5.2749e-17
1.15233e-13
-1.98397e-11
-1.39452e-16
1.72354e-13
-2.73996e-11
3.23913e-16
2.45207e-13
-3.69933e-11
1.57984e-16
3.41648e-13
-4.89807e-11
2.75994e-16
4.64018e-13
-6.37878e-11
2.51145e-16
6.18836e-13
-8.18743e-11
2.80286e-16
8.10889e-13
-1.03761e-10
3.54566e-16
1.04565e-12
-1.30034e-10
2.52357e-16
1.33135e-12
-1.61334e-10
3.54442e-16
1.67421e-12
-1.9837e-10
4.09172e-16
2.08148e-12
-2.41925e-10
4.21626e-16
2.56027e-12
-2.92884e-10
3.67788e-16
3.11887e-12
-3.52151e-10
3.85673e-16
3.76464e-12
-4.20806e-10
3.43431e-16
4.50536e-12
-4.99931e-10
3.20169e-16
5.34809e-12
-5.9077e-10
3.0016e-16
6.29922e-12
-6.94637e-10
2.96489e-16
7.3636e-12
-8.12859e-10
2.80856e-16
8.54486e-12
-9.47065e-10
2.72212e-16
9.84407e-12
-1.09866e-09
2.48337e-16
1.12602e-11
-1.26936e-09
2.42429e-16
1.27886e-11
-1.46083e-09
2.14934e-16
1.44211e-11
-1.67469e-09
1.9257e-16
1.61448e-11
-1.91259e-09
1.56492e-16
1.7942e-11
-2.17603e-09
1.24611e-16
1.97891e-11
-2.4664e-09
1.02955e-16
2.16565e-11
-2.78465e-09
9.29363e-17
2.35081e-11
-3.13147e-09
8.00991e-17
-3.50681e-09
5.02484e-17
6.93611e-17
-1.86268e-15
1.0494e-17
5.19621e-17
-3.7917e-14
-2.53089e-19
-8.72748e-17
-1.81182e-13
-3.55459e-17
1.64699e-15
-5.19811e-13
1.04915e-16
4.42296e-15
-1.15995e-12
5.0081e-17
9.39243e-15
-2.22422e-12
4.32911e-17
1.80264e-14
-3.85992e-12
6.42047e-17
3.17395e-14
-6.23313e-12
7.44127e-17
5.04969e-14
-9.54113e-12
-1.80989e-16
7.94087e-14
-1.40041e-11
-1.41485e-16
1.19201e-13
-1.98809e-11
-1.28154e-16
1.78081e-13
-2.7456e-11
2.98303e-16
2.53359e-13
-3.70679e-11
1.27286e-16
3.53383e-13
-4.90778e-11
3.76886e-16
4.80193e-13
-6.39123e-11
2.92091e-16
6.40812e-13
-8.20312e-11
4.54602e-16
8.39554e-13
-1.03957e-10
3.37707e-16
1.08284e-12
-1.30275e-10
3.04207e-16
1.37927e-12
-1.61627e-10
4.39108e-16
1.7351e-12
-1.98722e-10
4.23188e-16
2.15859e-12
-2.42345e-10
4.15102e-16
2.65753e-12
-2.9338e-10
3.80982e-16
3.24101e-12
-3.52731e-10
3.82667e-16
3.91701e-12
-4.21479e-10
3.44126e-16
4.69388e-12
-5.00705e-10
3.22208e-16
5.57934e-12
-5.91653e-10
3.06428e-16
6.58041e-12
-6.95635e-10
3.1001e-16
7.70255e-12
-8.13978e-10
2.97122e-16
8.94991e-12
-9.4831e-10
2.92328e-16
1.0324e-11
-1.10003e-09
2.68056e-16
1.1824e-11
-1.27086e-09
2.63485e-16
1.34454e-11
-1.46245e-09
2.33839e-16
1.51797e-11
-1.67642e-09
2.10554e-16
1.70133e-11
-1.91443e-09
1.70946e-16
1.89274e-11
-2.17794e-09
1.36164e-16
2.0897e-11
-2.46837e-09
1.09623e-16
2.28903e-11
-2.78664e-09
9.47842e-17
2.48685e-11
-3.13344e-09
7.74135e-17
-3.50873e-09
4.5134e-17
-2.46884e-17
-1.87365e-15
-6.11348e-19
9.45208e-17
-3.81062e-14
-1.73618e-17
4.45246e-16
-1.81895e-13
-4.44459e-17
2.08953e-15
-5.2104e-13
4.96613e-17
4.95769e-15
-1.1628e-12
-2.30326e-18
9.98235e-15
-2.22936e-12
-1.64495e-17
1.86665e-14
-3.86856e-12
-3.33297e-18
3.32031e-14
-6.24654e-12
1.78806e-16
5.25531e-14
-9.56109e-12
-8.22999e-17
8.23348e-14
-1.40338e-11
-4.66284e-17
1.22835e-13
-1.99225e-11
-8.89793e-17
1.82573e-13
-2.75136e-11
2.50079e-16
2.59961e-13
-3.7145e-11
5.49678e-17
3.62904e-13
-4.91787e-11
2.62055e-16
4.94326e-13
-6.40423e-11
1.86402e-16
6.61224e-13
-8.21952e-11
3.56718e-16
8.68408e-13
-1.04162e-10
2.52076e-16
1.12269e-12
-1.30527e-10
2.57068e-16
1.43297e-12
-1.61934e-10
3.74234e-16
1.80585e-12
-1.99092e-10
4.36831e-16
2.25011e-12
-2.42785e-10
4.57608e-16
2.77396e-12
-2.939e-10
4.03966e-16
3.38705e-12
-3.53341e-10
4.29473e-16
4.09808e-12
-4.22187e-10
3.91552e-16
4.91621e-12
-5.0152e-10
3.6923e-16
5.84998e-12
-5.92583e-10
3.51903e-16
6.9072e-12
-6.96689e-10
3.48663e-16
8.09401e-12
-8.15162e-10
3.32698e-16
9.41518e-12
-9.49628e-10
3.21513e-16
1.08727e-11
-1.10148e-09
2.94153e-16
1.24658e-11
-1.27245e-09
2.84749e-16
1.41902e-11
-1.46417e-09
2.52285e-16
1.6037e-11
-1.67827e-09
2.24942e-16
1.7992e-11
-1.91638e-09
1.82538e-16
2.00352e-11
-2.17998e-09
1.43577e-16
2.21398e-11
-2.47047e-09
1.13116e-16
2.42718e-11
-2.78877e-09
9.32504e-17
2.63894e-11
-3.13556e-09
7.21125e-17
-3.51078e-09
3.77545e-17
2.26533e-17
-1.8697e-15
5.18608e-18
-1.25597e-17
-3.80724e-14
-1.61996e-18
-1.20642e-16
-1.82035e-13
-3.25256e-17
1.53111e-15
-5.22179e-13
6.36338e-17
4.87558e-15
-1.16538e-12
8.83186e-17
9.94727e-15
-2.23433e-12
5.75969e-18
1.89492e-14
-3.87737e-12
1.15744e-17
3.43794e-14
-6.2609e-12
1.54364e-16
5.47898e-14
-9.58298e-12
-1.73186e-16
8.66736e-14
-1.40656e-11
-2.37076e-17
1.29937e-13
-1.9967e-11
-1.30468e-16
1.92578e-13
-2.75746e-11
1.6948e-16
2.73848e-13
-3.7226e-11
4.97358e-17
3.81492e-13
-4.92845e-11
2.32415e-16
5.1899e-13
-6.4178e-11
2.14963e-16
6.93486e-13
-8.23667e-11
3.75778e-16
9.10451e-13
-1.04376e-10
3.72048e-16
1.17732e-12
-1.3079e-10
4.46963e-16
1.50276e-12
-1.62255e-10
5.21805e-16
1.89364e-12
-1.99479e-10
3.60419e-16
2.36023e-12
-2.43249e-10
3.55267e-16
2.91138e-12
-2.94449e-10
3.49892e-16
3.55747e-12
-3.53984e-10
3.69291e-16
4.30796e-12
-4.22934e-10
3.50555e-16
5.17271e-12
-5.02381e-10
3.39915e-16
6.16099e-12
-5.93569e-10
3.34844e-16
7.28127e-12
-6.97807e-10
3.42127e-16
8.54043e-12
-8.16418e-10
3.32297e-16
9.94381e-12
-9.51029e-10
3.2768e-16
1.14938e-11
-1.10303e-09
3.02073e-16
1.31902e-11
-1.27414e-09
2.95141e-16
1.50284e-11
-1.466e-09
2.61522e-16
1.69992e-11
-1.68024e-09
2.34039e-16
1.90878e-11
-1.91847e-09
1.89066e-16
2.12728e-11
-2.18217e-09
1.47799e-16
2.35258e-11
-2.47272e-09
1.13373e-16
2.58101e-11
-2.79105e-09
8.94331e-17
2.80809e-11
-3.13783e-09
6.48254e-17
-3.51298e-09
2.86886e-17
-1.59357e-18
-1.87744e-15
-1.9414e-18
2.27381e-16
-3.82365e-14
9.72464e-19
6.40935e-16
-1.82643e-13
-2.34114e-17
2.13145e-15
-5.23731e-13
-7.2783e-18
5.44527e-15
-1.16825e-12
4.77231e-17
1.05532e-14
-2.23985e-12
-5.33178e-17
1.96983e-14
-3.88683e-12
-4.88547e-17
3.568e-14
-6.27573e-12
1.7077e-16
5.66612e-14
-9.60542e-12
-1.65083e-16
8.98631e-14
-1.40983e-11
4.27054e-17
1.35089e-13
-2.00131e-11
-6.96489e-17
2.0027e-13
-2.76378e-11
1.98481e-16
2.85411e-13
-3.73106e-11
7.67463e-17
3.98101e-13
-4.93954e-11
2.10346e-16
5.42457e-13
-6.43209e-11
1.81913e-16
7.25877e-13
-8.25475e-11
3.13185e-16
9.54279e-13
-1.04602e-10
3.09262e-16
1.23558e-12
-1.31069e-10
3.50678e-16
1.57883e-12
-1.62595e-10
3.97719e-16
1.99219e-12
-1.99889e-10
4.73487e-16
2.48592e-12
-2.43738e-10
5.48336e-16
3.06941e-12
-2.95028e-10
5.03047e-16
3.7536e-12
-3.54664e-10
5.02731e-16
4.54888e-12
-4.23726e-10
4.52633e-16
5.46601e-12
-5.03295e-10
4.229e-16
6.51514e-12
-5.94615e-10
4.00612e-16
7.70561e-12
-6.98994e-10
3.89241e-16
9.04505e-12
-8.17754e-10
3.6862e-16
1.05395e-11
-9.5252e-10
3.53381e-16
1.21918e-11
-1.10468e-09
3.22459e-16
1.40019e-11
-1.27595e-09
3.09302e-16
1.59653e-11
-1.46797e-09
2.72666e-16
1.80725e-11
-1.68234e-09
2.41259e-16
2.03078e-11
-1.9207e-09
1.94081e-16
2.26484e-11
-2.1845e-09
1.49225e-16
2.50639e-11
-2.47514e-09
1.11791e-16
2.7515e-11
-2.7935e-09
8.37607e-17
2.99536e-11
-3.14027e-09
5.6504e-17
-3.51535e-09
1.90181e-17
6.12352e-17
-1.8803e-15
5.66701e-18
2.71335e-16
-3.85198e-14
-1.15762e-17
6.25891e-16
-1.82975e-13
4.66379e-18
2.49859e-15
-5.25115e-13
5.81775e-17
5.56775e-15
-1.17103e-12
2.98533e-17
1.11433e-14
-2.24543e-12
-6.99232e-18
2.08524e-14
-3.89659e-12
-2.09981e-17
3.80067e-14
-6.29138e-12
2.14619e-16
6.04033e-14
-9.6296e-12
-2.09028e-16
9.57501e-14
-1.41332e-11
-1.93431e-18
1.44389e-13
-2.00623e-11
-4.17427e-17
2.13206e-13
-2.77049e-11
1.8942e-16
3.03258e-13
-3.74003e-11
4.98245e-17
4.22426e-13
-4.95128e-11
2.24755e-16
5.74942e-13
-6.44719e-11
1.76617e-16
7.68903e-13
-8.27387e-11
3.34979e-16
1.01037e-12
-1.04841e-10
2.97866e-16
1.30796e-12
-1.31363e-10
3.54261e-16
1.67126e-12
-1.62954e-10
4.68334e-16
2.10847e-12
-2.00323e-10
3.6549e-16
2.63115e-12
-2.44257e-10
3.91553e-16
3.24968e-12
-2.95643e-10
3.93002e-16
3.97587e-12
-3.55387e-10
3.93506e-16
4.82097e-12
-4.24568e-10
3.7419e-16
5.79653e-12
-5.04267e-10
3.62945e-16
6.91351e-12
-5.95728e-10
3.59478e-16
8.18201e-12
-7.00259e-10
3.63164e-16
9.61044e-12
-8.1918e-10
3.52629e-16
1.12055e-11
-9.54112e-10
3.4673e-16
1.29705e-11
-1.10644e-09
3.19919e-16
1.49058e-11
-1.27788e-09
3.10751e-16
1.70068e-11
-1.47006e-09
2.74396e-16
1.92635e-11
-1.6846e-09
2.43811e-16
2.16593e-11
-1.92309e-09
1.95193e-16
2.41701e-11
-2.18701e-09
1.4887e-16
2.67633e-11
-2.47773e-09
1.08672e-16
2.93967e-11
-2.79614e-09
7.761e-17
3.20186e-11
-3.14289e-09
4.81251e-17
-3.5179e-09
9.47972e-18
1.32848e-16
-1.86117e-15
1.72059e-17
2.17074e-16
-3.85752e-14
2.64237e-18
2.48286e-16
-1.83054e-13
-1.05934e-17
1.73847e-15
-5.26867e-13
-3.76084e-17
4.60801e-15
-1.1741e-12
-2.33051e-17
1.06907e-14
-2.2519e-12
-5.61983e-17
2.07078e-14
-3.90717e-12
-7.13859e-17
3.88185e-14
-6.30818e-12
1.91746e-16
6.23764e-14
-9.65519e-12
-2.35172e-16
9.95992e-14
-1.41702e-11
-1.93221e-17
1.51019e-13
-2.01144e-11