/*--------------------------------*- C++ -*----------------------------------*\
| =========                 |                                                 |
| \\      /  F ield         | OpenFOAM: The Open Source CFD Toolbox           |
|  \\    /   O peration     | Version:  v2012                                 |
|   \\  /    A nd           | Website:  www.openfoam.com                      |
|    \\/     M anipulation  |                                                 |
\*---------------------------------------------------------------------------*/
FoamFile
{
    version     2.0;
    format      ascii;
    class       surfaceScalarField;
    location    "0.3";
    object      alphaPhi0.water;
}
// * * * * * * * * * * * * * * * * * * * * * * * * * * * * * * * * * * * * * //

dimensions      [0 3 -1 0 0 0 0];
oriented        oriented;


internalField   nonuniform List<scalar> 
8162
(
-1.15937e-45
-2.00594e-35
-4.68648e-43
-2.45096e-53
-1.03679e-44
-2.15875e-52
-5.33324e-62
-2.00154e-52
-3.85894e-60
-3.15499e-65
-4.07382e-61
-7.34016e-69
-2.56675e-68
-2.21529e-64
-3.86138e-72
-5.37234e-72
-1.67378e-67
-2.86556e-75
-1.1759e-74
-3.29395e-71
-5.23535e-79
-2.59479e-77
-6.7167e-74
-1.03114e-81
-5.07325e-80
-1.37001e-76
-2.04856e-84
-5.11017e-83
-2.52343e-79
-3.67677e-87
-4.76766e-86
-2.34088e-82
-3.2931e-90
-1.51625e-89
-2.03588e-85
-3.10731e-93
-1.76777e-93
-5.86559e-89
-8.61907e-97
-3.95311e-93
-4.15849e-93
-1.55616e-100
-1.26294e-91
-5.29205e-93
-5.04556e-99
-6.89094e-90
-9.71916e-92
-2.89634e-97
-3.85325e-88
-5.27186e-90
-2.72049e-95
-4.96374e-86
-2.90417e-88
-4.18058e-94
-1.3028e-84
-2.62079e-86
-1.82087e-93
-3.89505e-85
-3.41772e-93
-2.55732e-28
-1.02438e-21
-2.99455e-29
-2.4735e-36
-2.32405e-27
-6.71321e-35
-1.41028e-45
-2.14784e-35
-5.28395e-43
-2.95945e-53
-1.13056e-44
-2.52207e-52
-6.65806e-62
-2.19018e-52
-4.50147e-60
-3.88894e-65
-4.65622e-61
-8.81468e-69
-3.17517e-68
-2.52102e-64
-4.57392e-72
-6.83933e-72
-1.92375e-67
-3.41908e-75
-1.51145e-74
-3.9187e-71
-6.4468e-79
-3.32013e-77
-8.11225e-74
-1.28463e-81
-6.75146e-80
-1.65523e-76
-2.54578e-84
-6.85663e-83
-3.17547e-79
-4.75901e-87
-6.62191e-86
-2.99598e-82
-4.28547e-90
-2.09452e-89
-2.69269e-85
-4.26358e-93
-1.41077e-93
-7.74673e-89
-1.17587e-96
-1.23106e-93
-4.11233e-93
-6.406e-101
-1.2935e-93
-2.77058e-93
-2.241e-100
-6.67687e-92
-2.47954e-92
-1.20052e-98
-5.24988e-90
-8.55523e-92
-1.11144e-96
-3.34928e-88
-1.92371e-90
-2.76682e-95
-5.02861e-86
-1.29702e-88
-1.68886e-94
-6.28677e-87
-3.47423e-94
2.46871e-11
-7.47615e-09
5.69734e-15
2.60285e-10
-2.23594e-08
-8.33647e-17
1.3248e-09
-4.0946e-08
7.39055e-15
1.87312e-09
-7.24792e-08
-2.20908e-14
1.41598e-09
-8.84083e-08
-3.74815e-15
5.48231e-10
-9.33039e-08
6.77476e-15
1.25869e-09
-8.87035e-08
1.21228e-14
4.48955e-10
-7.41586e-08
-6.26398e-15
-2.28926e-10
-6.8034e-08
-7.72406e-15
-2.15012e-08
-2.2122e-15
-1.08227e-14
-1.55112e-12
-1.07696e-19
-1.15126e-15
-1.14325e-13
-7.07382e-21
-8.49189e-17
-9.42766e-15
-5.01355e-22
-3.83255e-18
-6.11296e-16
-2.47224e-23
-1.27512e-22
-2.67691e-17
-1.11504e-24
-2.8162e-28
-1.26672e-21
-3.49112e-29
-2.99304e-36
-2.26912e-27
-6.84139e-35
-1.71868e-45
-2.33706e-35
-6.13281e-43
-3.58309e-53
-1.25226e-44
-2.89995e-52
-8.35909e-62
-2.43097e-52
-5.1454e-60
-4.82926e-65
-5.40366e-61
-1.04502e-68
-3.95549e-68
-2.91436e-64
-5.38845e-72
-8.76994e-72
-2.24271e-67
-4.06977e-75
-1.95944e-74
-4.72437e-71
-7.94491e-79
-4.29165e-77
-9.9349e-74
-1.60856e-81
-9.02505e-80
-2.03041e-76
-3.19055e-84
-9.35825e-83
-4.03012e-79
-6.18329e-87
-9.25387e-86
-3.91512e-82
-5.67055e-90
-2.92117e-89
-3.59418e-85
-5.87942e-93
-1.46471e-93
-1.03535e-88
-1.61557e-96
-7.88743e-94
-4.73003e-93
-6.15303e-101
-3.01783e-93
-5.25371e-94
-4.59026e-102
-1.15639e-92
-8.87384e-93
-2.36781e-100
-2.56317e-92
-3.68148e-92
-1.57699e-98
-1.8407e-90
-9.90977e-92
-1.0765e-96
-2.2777e-88
-7.11228e-91
-1.35501e-95
-3.32765e-89
-4.79042e-95
2.1704e-11
-7.49787e-09
5.89891e-15
2.50098e-10
-2.25878e-08
-4.58597e-16
1.14532e-09
-4.18412e-08
8.96678e-15
1.64722e-09
-7.29811e-08
-1.13012e-14
8.10956e-10
-8.75721e-08
1.44218e-15
-2.74437e-10
-9.22185e-08
1.23228e-14
3.8302e-10
-8.93615e-08
1.95576e-14
-1.66163e-10
-7.366e-08
-6.63918e-15
-6.04211e-10
-6.92827e-08
-8.18781e-15
-8.0264e-11
-2.41218e-08
-2.67579e-15
-2.35918e-12
-1.98467e-09
-1.8328e-16
-9.58363e-14
-5.99696e-11
-4.69325e-18
-1.23936e-14
-1.71296e-12
-1.24805e-19
-1.27901e-15
-1.11293e-13
-7.35037e-21
-9.29132e-17
-8.94779e-15
-5.05049e-22
-4.20887e-18
-5.81139e-16
-2.36013e-23
-1.80487e-22
-2.57749e-17
-1.17275e-24
-3.07711e-28
-1.60769e-21
-4.36331e-29
-3.62378e-36
-2.24285e-27
-7.07077e-35
-2.10005e-45
-2.5837e-35
-7.02345e-43
-4.35241e-53
-1.40872e-44
-3.3341e-52
-1.05551e-61
-2.73691e-52
-5.92487e-60
-6.04326e-65
-6.3655e-61
-1.26118e-68
-4.96392e-68
-3.42249e-64
-6.48201e-72
-1.1326e-71
-2.6524e-67
-4.93889e-75
-2.56196e-74
-5.77083e-71
-9.95701e-79
-5.60793e-77
-1.23361e-73
-2.04709e-81
-1.2115e-79
-2.53028e-76
-4.06515e-84
-1.29909e-82
-5.1573e-79
-8.10068e-87
-1.30038e-85
-5.22203e-82
-7.65646e-90
-4.11252e-89
-4.83934e-85
-8.16017e-93
-2.11299e-93
-1.40235e-88
-2.2425e-96
-1.26477e-94
-6.5812e-93
-1.04555e-100
-5.3562e-94
-8.64144e-95
-1.24639e-103
-5.81375e-93
-2.48438e-93
-4.35503e-102
-2.0363e-92
-1.48242e-92
-2.31124e-100
-4.93638e-92
-4.05952e-92
-1.94634e-98
-6.09217e-91
-9.46492e-92
-8.04005e-97
-5.01339e-91
-6.67772e-96
1.86367e-11
-7.51652e-09
5.21138e-15
2.30862e-10
-2.28e-08
1.49736e-16
1.01331e-09
-4.26237e-08
7.87287e-15
1.29064e-09
-7.32584e-08
-8.63817e-15
-1.07386e-10
-8.61741e-08
6.80934e-16
-1.34459e-09
-9.09813e-08
1.10889e-14
-8.58503e-10
-8.98478e-08
1.8595e-14
-7.19317e-10
-7.38367e-08
-8.50936e-15
-1.02373e-09
-7.06058e-08
-8.9287e-15
-1.38218e-10
-2.73883e-08
-3.15092e-15
-3.87351e-12
-2.51265e-09
-2.35882e-16
-1.29619e-13
-7.98656e-11
-6.51882e-18
-1.36391e-14
-1.93728e-12
-1.44945e-19
-1.40502e-15
-1.10469e-13
-7.36299e-21
-1.00925e-16
-8.69507e-15
-4.97358e-22
-4.58466e-18
-5.64508e-16
-2.29666e-23
-2.56149e-22
-2.52998e-17
-1.20464e-24
-3.35359e-28
-2.08271e-21
-5.79304e-29
-4.39395e-36
-2.24558e-27
-7.48371e-35
-2.57423e-45
-2.90077e-35
-8.29749e-43
-5.30663e-53
-1.60881e-44
-3.93154e-52
-1.34038e-61
-3.12481e-52
-6.94245e-60
-7.62195e-65
-7.60721e-61
-1.5424e-68
-6.27682e-68
-4.08208e-64
-7.89152e-72
-1.4729e-71
-3.18231e-67
-6.04047e-75
-3.37802e-74
-7.13952e-71
-1.2559e-78
-7.41223e-77
-1.55262e-73
-2.62604e-81
-1.6329e-79
-3.20491e-76
-5.24023e-84
-1.83292e-82
-6.65361e-79
-1.06641e-86
-1.83701e-85
-7.10219e-82
-1.05255e-89
-5.85688e-89
-6.57166e-85
-1.13904e-92
-3.10662e-93
-1.92859e-88
-3.15017e-96
-2.11189e-95
-9.48099e-93
-1.50082e-100
-1.01372e-94
-7.74539e-96
-3.8984e-104
-1.96124e-93
-4.06165e-94
-8.13941e-104
-9.51061e-93
-4.30588e-93
-2.35754e-102
-2.31619e-92
-1.56181e-92
-1.27319e-100
-7.58026e-92
-2.83828e-92
-1.21116e-98
-9.53805e-91
-3.40618e-92
-3.84942e-97
-2.82543e-92
-2.41494e-96
1.55269e-11
-7.53205e-09
1.24791e-15
2.04558e-10
-2.29891e-08
2.63269e-15
9.09012e-10
-4.33281e-08
5.23989e-16
7.6156e-10
-7.3111e-08
-6.73303e-15
-1.15523e-09
-8.42573e-08
2.29748e-15
-2.45273e-09
-8.96838e-08
4.68304e-15
-2.16935e-09
-9.01312e-08
5.73186e-16
-1.18636e-09
-7.48426e-08
-4.75803e-16
-1.4734e-09
-7.18325e-08
-9.18023e-15
-2.20779e-10
-3.13456e-08
-3.6711e-15
-6.17517e-12
-3.24805e-09
-3.12922e-16
-1.71012e-13
-1.09828e-10
-9.2123e-18
-1.49567e-14
-2.25209e-12
-1.76688e-19
-1.51879e-15
-1.15152e-13
-7.80475e-21
-1.08766e-16
-8.60426e-15
-5.11401e-22
-4.94587e-18
-5.57871e-16
-2.36012e-23
-3.6357e-22
-2.5259e-17
-1.24818e-24
-3.64943e-28
-2.74002e-21
-7.86736e-29
-5.33894e-36
-2.27367e-27
-7.5452e-35
-3.1666e-45
-3.30503e-35
-9.31139e-43
-6.49612e-53
-1.86404e-44
-4.50256e-52
-1.71145e-61
-3.61649e-52
-8.01397e-60
-9.6887e-65
-9.21589e-61
-1.8809e-68
-7.99847e-68
-4.94283e-64
-9.66263e-72
-1.92831e-71
-3.87263e-67
-7.46302e-75
-4.4907e-74
-8.94172e-71
-1.60085e-78
-9.91438e-77
-1.97994e-73
-3.40904e-81
-2.20982e-79
-4.1271e-76
-6.85555e-84
-2.62517e-82
-8.65375e-79
-1.41249e-86
-2.60906e-85
-9.83375e-82
-1.47184e-89
-8.45403e-89
-9.00184e-85
-1.59836e-92
-4.70308e-93
-2.69835e-88
-4.48517e-96
-2.13841e-96
-1.38681e-92
-2.24944e-100
-8.22609e-96
-1.79678e-96
-2.14957e-104
-3.81857e-94
-3.70812e-95
-3.10525e-104
-3.64506e-93
-6.99985e-94
-6.39662e-104
-1.21187e-92
-3.88006e-93
-6.34837e-103
-2.3063e-92
-8.75709e-93
-3.44106e-101
-4.58642e-92
-9.71932e-93
-3.3725e-99
-5.46867e-93
-7.64882e-98
1.24165e-11
-7.54446e-09
-2.96669e-16
1.74651e-10
-2.31513e-08
2.07346e-15
7.9676e-10
-4.39502e-08
7.00096e-15
1.36109e-10
-7.24503e-08
-1.28742e-14
-2.00159e-09
-8.21196e-08
1.09921e-15
-3.27713e-09
-8.84082e-08
6.39826e-15
-3.14537e-09
-9.0263e-08
-1.11995e-15
-1.49063e-09
-7.65019e-08
6.01498e-16
-1.92289e-09
-7.27297e-08
-1.02138e-14
-3.36715e-10
-3.59845e-08
-4.31091e-15
-9.66203e-12
-4.2762e-09
-4.37748e-16
-2.2512e-13
-1.54423e-10
-1.3363e-17
-1.68157e-14
-2.72134e-12
-2.19035e-19
-1.63556e-15
-1.24829e-13
-8.5652e-21
-1.17227e-16
-8.81495e-15
-5.33525e-22
-5.43075e-18
-5.6718e-16
-2.39703e-23
-5.14599e-22
-2.57367e-17
-1.31247e-24
-3.95412e-28
-3.64333e-21
-1.07527e-28
-6.50308e-36
-2.32485e-27
-8.00461e-35
-3.90956e-45
-3.81806e-35
-1.11309e-42
-7.98574e-53
-2.18939e-44
-5.45071e-52
-2.19645e-61
-4.24048e-52
-9.67079e-60
-1.24111e-64
-1.13076e-60
-2.37571e-68
-1.02719e-67
-6.07241e-64
-1.21713e-71
-2.54068e-71
-4.77854e-67
-9.3999e-75
-6.01725e-74
-1.133e-70
-2.06737e-78
-1.34242e-76
-2.55685e-73
-4.47673e-81
-3.00322e-79
-5.40359e-76
-9.09652e-84
-3.80995e-82
-1.13476e-78
-1.88059e-86
-3.72715e-85
-1.38334e-81
-2.08714e-89
-1.23936e-88
-1.2444e-84
-2.25327e-92
-7.17091e-93
-3.84833e-88
-6.48049e-96
-7.11223e-97
-2.05531e-92
-3.37842e-100
-9.11471e-97
-1.29197e-96
-1.56683e-104
-3.78196e-95
-1.91358e-96
-6.89607e-105
-6.58159e-94
-7.29641e-95
-2.44646e-104
-3.51432e-93
-6.3024e-94
-5.89947e-104
-8.03727e-93
-2.03391e-93
-2.27698e-103
-1.01946e-92
-2.84432e-93
-1.33483e-101
-8.55336e-93
-1.73442e-93
-5.22679e-100
6.81314e-95
-6.05979e-99
9.26768e-12
-7.55372e-09
-1.21604e-15
1.44099e-10
-2.32861e-08
2.5595e-15
6.56087e-10
-4.44622e-08
6.03574e-15
-4.07508e-10
-7.13867e-08
-1.2128e-14
-2.37227e-09
-8.01549e-08
-6.31015e-15
-3.55926e-09
-8.72212e-08
-7.65962e-15
-3.51129e-09
-9.0311e-08
-1.54377e-14
-1.50703e-09
-7.85095e-08
-2.59666e-15
-2.32385e-09
-7.29835e-08
-1.12313e-14
-4.96533e-10
-4.11956e-08
-5.05926e-15
-1.56803e-11
-5.71253e-09
-6.03011e-16
-3.01648e-13
-2.20811e-10
-1.95381e-17
-1.86628e-14
-3.46174e-12
-2.84684e-19
-1.79141e-15
-1.40068e-13
-9.99928e-21
-1.27927e-16
-9.22397e-15
-5.93095e-22
-5.87617e-18
-5.85846e-16
-2.56502e-23
-7.24481e-22
-2.66129e-17
-1.4035e-24
-4.27354e-28
-4.87693e-21
-1.47565e-28
-7.94184e-36
-2.39811e-27
-8.57527e-35
-4.84456e-45
-4.46777e-35
-1.35028e-42
-9.85924e-53
-2.60442e-44
-6.68293e-52
-2.83208e-61
-5.03424e-52
-1.17394e-59
-1.60171e-64
-1.4037e-60
-3.00585e-68
-1.3294e-67
-7.56326e-64
-1.53855e-71
-3.3677e-71
-5.9762e-67
-1.19105e-74
-8.12384e-74
-1.45146e-70
-2.68555e-78
-1.84024e-76
-3.34159e-73
-5.92621e-81
-4.10018e-79
-7.19207e-76
-1.22255e-83
-5.59135e-82
-1.50056e-78
-2.51546e-86
-5.35961e-85
-1.97241e-81
-2.99245e-89
-1.84875e-88
-1.73742e-84
-3.19095e-92
-1.10683e-92
-5.60347e-88
-9.51353e-96
-5.93355e-97
-3.08993e-92
-5.13674e-100
-4.6158e-97
-1.14459e-96
-1.80288e-104
-2.28582e-96
-1.70943e-97
-6.66881e-106
-7.3565e-95
-4.5056e-96
-3.54338e-105
-6.34555e-94
-6.05401e-95
-1.67286e-104
-2.10176e-93
-3.14804e-94
-6.52077e-104
-3.32615e-93
-6.30049e-94
-2.1141e-103
-2.86486e-93
-4.77549e-94
-3.17468e-102
3.26475e-95
-2.11685e-101
6.1814e-12
-7.55989e-09
-7.09099e-16
1.14209e-10
-2.33941e-08
2.11838e-15
5.04396e-10
-4.48524e-08
8.1204e-15
-6.79104e-10
-7.02032e-08
-1.25303e-14
-2.19685e-09
-7.86371e-08
-4.43198e-15
-3.25859e-09
-8.61595e-08
-1.51902e-14
-3.19935e-09
-9.03702e-08
-1.82558e-14
-1.14078e-09
-8.05696e-08
-4.34265e-16
-2.61187e-09
-7.22887e-08
-1.0376e-14
-7.11434e-10
-4.67356e-08
-5.90062e-15
-2.54895e-11
-7.70699e-09
-8.3059e-16
-4.19614e-13
-3.21958e-10
-2.92611e-17
-2.04702e-14
-4.70693e-12
-3.86436e-19
-1.93841e-15
-1.64023e-13
-1.18689e-20
-1.38421e-16
-9.86402e-15
-6.47968e-22
-6.39914e-18
-6.15348e-16
-2.70948e-23
-1.01259e-21
-2.79393e-17
-1.50933e-24
-4.60569e-28
-6.551e-21
-2.01757e-28
-9.72468e-36
-2.49199e-27
-8.95981e-35
-6.02456e-45
-5.29025e-35
-1.59674e-42
-1.22252e-52
-3.13476e-44
-8.04355e-52
-3.66686e-61
-6.04728e-52
-1.41832e-59
-2.08177e-64
-1.76106e-60
-3.8266e-68
-1.73375e-67
-9.54202e-64
-1.97109e-71
-4.48905e-71
-7.57136e-67
-1.53058e-74
-1.10466e-73
-1.87856e-70
-3.52654e-78
-2.55376e-76
-4.41665e-73
-7.9313e-81
-5.62648e-79
-9.72686e-76
-1.66753e-83
-8.27871e-82
-2.00188e-78
-3.38681e-86
-7.76675e-85
-2.84345e-81
-4.33213e-89
-2.80991e-88
-2.45268e-84
-4.54728e-92
-1.72987e-92
-8.3381e-88
-1.42136e-95
-5.61177e-97
-4.71843e-92
-7.90263e-100
-6.30547e-98
-1.38689e-96
-2.44091e-104
-1.22812e-97
-6.88507e-98
-9.66696e-108
-4.42497e-96
-3.95281e-97
-4.05713e-107
-6.87529e-95
-3.20786e-96
-1.94157e-106
-3.7463e-94
-2.74453e-95
-9.54522e-106
-8.42129e-94
-9.01223e-95
-4.59843e-105
-8.89536e-94
-1.01505e-94
-2.09901e-104
7.59051e-96
-8.89325e-104
3.42183e-12
-7.56332e-09
1.25422e-15
8.60005e-11
-2.34767e-08
1.38414e-15
3.86374e-10
-4.51528e-08
9.04494e-15
-6.27499e-10
-6.91893e-08
-1.33447e-14
-1.70517e-09
-7.75594e-08
-1.15656e-14
-2.68815e-09
-8.51765e-08
-2.10664e-14
-2.59538e-09
-9.0463e-08
-1.70153e-14
-6.2197e-10
-8.25435e-08
-1.11462e-14
-2.74014e-09
-7.06754e-08
-9.45853e-15
-9.92116e-10
-5.22429e-08
-6.65414e-15
-4.14799e-11
-1.04477e-08
-1.1409e-15
-6.17876e-13
-4.80508e-10
-4.5021e-17
-2.25061e-14
-6.93579e-12
-5.76897e-19
-2.10395e-15
-1.9843e-13
-1.46085e-20
-1.50529e-16
-1.08184e-14
-7.32897e-22
-6.96836e-18
-6.57738e-16
-2.99755e-23
-1.40304e-21
-2.97412e-17
-1.6615e-24
-4.94938e-28
-8.80785e-21
-2.84259e-28
-1.19386e-35
-2.60577e-27
-9.77221e-35
-7.51737e-45
-6.33239e-35
-1.99672e-42
-1.5225e-52
-3.81402e-44
-1.02155e-51
-4.76484e-61
-7.34542e-52
-1.78278e-59
-2.72369e-64
-2.23041e-60
-4.98507e-68
-2.2781e-67
-1.21827e-63
-2.56668e-71
-6.01514e-71
-9.71158e-67
-1.99135e-74
-1.51224e-73
-2.45456e-70
-4.66764e-78
-3.58641e-76
-5.89936e-73
-1.07018e-80
-7.76636e-79
-1.33578e-75
-2.30353e-83
-1.23389e-81
-2.69601e-78
-4.58816e-86
-1.13581e-84
-4.13452e-81
-6.31543e-89
-4.35392e-88
-3.50541e-84
-6.53027e-92
-2.74245e-92
-1.26795e-87
-2.16269e-95
-9.64275e-97
-7.32859e-92
-1.23271e-99
-2.90991e-98
-2.31386e-96
-3.79928e-104
-3.98369e-98
-3.4222e-98
-1.98097e-108
-2.3828e-97
-1.12663e-97
-3.40815e-108
-3.75508e-96
-2.188e-97
-6.32475e-108
-3.69486e-95
-8.39405e-97
-1.4722e-107
-1.38402e-94
-4.53857e-96
-4.37011e-107
-2.2811e-94
-9.57833e-96
-1.3683e-106
7.14428e-97
-4.71887e-106
1.19491e-12
-7.56452e-09
1.56359e-15
6.13683e-11
-2.35369e-08
3.85814e-16
3.39303e-10
-4.54308e-08
1.04555e-14
-3.93932e-10
-6.84561e-08
-1.79191e-14
-1.36802e-09
-7.65853e-08
-1.22835e-14
-2.45474e-09
-8.40898e-08
-1.51176e-14
-2.52525e-09
-9.03925e-08
-1.35221e-14
-7.37504e-10
-8.43314e-08
-1.21214e-14
-2.71951e-09
-6.89812e-08
-3.40827e-15
-1.34456e-09
-5.73189e-08
-6.91181e-15
-6.81992e-11
-1.41557e-08
-1.56471e-15
-9.75272e-13
-7.35849e-10
-6.80696e-17
-2.82186e-14
-1.11357e-11
-8.77344e-19
-2.29772e-15
-2.46459e-13
-1.73775e-20
-1.64011e-16
-1.21575e-14
-7.83429e-22
-7.60142e-18
-7.14157e-16
-2.94494e-23
-1.92515e-21
-3.20639e-17
-1.81927e-24
-5.30324e-28
-1.18297e-20
-3.88058e-28
-1.46928e-35
-2.73927e-27
-1.02243e-34
-9.40986e-45
-7.65524e-35
-2.37358e-42
-1.90442e-52
-4.6865e-44
-1.23223e-51
-6.21045e-61
-9.01682e-52
-2.16594e-59
-3.58541e-64
-2.84859e-60
-6.39259e-68
-3.01531e-67
-1.57247e-63
-3.34098e-71
-8.09924e-71
-1.26038e-66
-2.60911e-74
-2.08326e-73
-3.23544e-70
-6.22171e-78
-5.09406e-76
-7.95729e-73
-1.45745e-80
-1.07937e-78
-1.86092e-75
-3.22769e-83
-1.84738e-81
-3.66829e-78
-6.27438e-86
-1.67889e-84
-6.05034e-81
-9.27174e-89
-6.87415e-88
-5.07966e-84
-9.47847e-92
-4.41566e-92
-1.96816e-87
-3.35334e-95
-1.8086e-96
-1.15892e-91
-1.95345e-99
-1.39863e-98
-4.77228e-96
-7.29364e-104
-2.83134e-98
-1.08984e-98
-1.13429e-108
-5.95611e-98
-4.23359e-98
-1.77572e-108
-1.44105e-97
-6.7453e-98
-2.34809e-108
-1.11093e-96
-8.15178e-98
-2.54775e-108
-8.52308e-96
-1.01408e-97
-2.15029e-108
-2.71117e-95
-2.21904e-97
-5.12034e-108
1.0945e-98
-9.50688e-108
-4.52846e-13
-7.56407e-09
7.68227e-16
4.19826e-11
-2.35793e-08
1.89516e-16
3.65791e-10
-4.57547e-08
7.3755e-15
-2.20129e-10
-6.78702e-08
-1.82106e-14
-1.56129e-09
-7.52441e-08
-1.25427e-14
-2.97139e-09
-8.26797e-08
-5.63951e-15
-3.47076e-09
-8.98932e-08
-9.5452e-15
-1.96902e-09
-8.58332e-08
-3.82969e-15
-2.59406e-09
-6.8498e-08
-1.1773e-14
-1.75605e-09
-6.15929e-08
-7.12314e-15
-1.13374e-10
-1.90489e-08
-2.30392e-15
-1.64904e-12
-1.15719e-09
-1.08067e-16
-3.61233e-14
-1.93535e-11
-1.51045e-18
-2.52244e-15
-3.18532e-13
-2.19568e-20
-1.79045e-16
-1.40621e-14
-9.07779e-22
-8.30377e-18
-7.88149e-16
-3.27367e-23
-2.61387e-21
-3.4993e-17
-2.00991e-24
-5.66615e-28
-1.58481e-20
-5.41399e-28
-1.81247e-35
-2.89316e-27
-1.11161e-34
-1.18136e-44
-9.33884e-35
-2.99173e-42
-2.39275e-52
-5.81081e-44
-1.58342e-51
-8.11484e-61
-1.11804e-51
-2.76991e-59
-4.74613e-64
-3.66485e-60
-8.44965e-68
-4.01939e-67
-2.04984e-63
-4.44064e-71
-1.09549e-70
-1.65394e-66
-3.4688e-74
-2.88682e-73
-4.29944e-70
-8.36336e-78
-7.31201e-76
-1.08307e-72
-2.00048e-80
-1.51226e-78
-2.62679e-75
-4.57622e-83
-2.77351e-81
-5.04795e-78
-8.6592e-86
-2.5125e-84
-8.89408e-81
-1.3671e-88
-1.10403e-87
-7.47389e-84
-1.39216e-91
-7.22638e-92
-3.11125e-87
-5.28973e-95
-4.22269e-96
-1.86651e-91
-3.14785e-99
-4.06181e-99
-1.14376e-95
-1.67613e-103
-1.0934e-98
-2.18965e-99
-5.9926e-109
-2.89598e-98
-1.18495e-98
-1.00723e-108
-4.36112e-98
-2.3255e-98
-1.52527e-108
-5.91067e-98
-2.54126e-98
-1.74966e-108
-1.42131e-97
-1.79927e-98
-4.70759e-109
-7.89816e-97
-6.4314e-99
-1.17061e-108
-1.41435e-100
-2.32035e-108
-1.6281e-12
-7.56244e-09
3.10032e-16
2.8517e-11
-2.36095e-08
2.23087e-15
4.34245e-10
-4.61604e-08
5.87774e-15
-2.79118e-10
-6.71568e-08
-1.73875e-14
-2.22842e-09
-7.32948e-08
-1.1349e-14
-4.00349e-09
-8.09047e-08
-3.70607e-16
-4.94123e-09
-8.89555e-08
3.62281e-15
-3.62437e-09
-8.715e-08
-9.75938e-15
-2.34231e-09
-6.98178e-08
4.21624e-15
-2.17587e-09
-6.46974e-08
-5.90642e-15
-1.89305e-10
-2.52509e-08
-2.99651e-15
-2.94716e-12
-1.86549e-09
-1.6291e-16
-4.83351e-14
-3.58415e-11
-2.64808e-18
-2.7675e-15
-4.40854e-13
-2.97823e-20
-1.95704e-16
-1.69025e-14
-1.0713e-21
-9.08306e-18
-8.85115e-16
-3.66821e-23
-3.50986e-21
-3.86528e-17
-2.21531e-24
-6.03786e-28
-2.11544e-20
-7.3149e-28
-2.24077e-35
-3.06913e-27
-1.16072e-34
-1.48724e-44
-1.14886e-34
-3.59772e-42
-3.02003e-52
-7.26486e-44
-1.94109e-51
-1.06243e-60
-1.39982e-51
-3.43208e-59
-6.3142e-64
-4.74508e-60
-1.09634e-67
-5.39444e-67
-2.69599e-63
-5.87201e-71
-1.48805e-70
-2.19308e-66
-4.62372e-74
-4.02241e-73
-5.75633e-70
-1.12805e-77
-1.05956e-75
-1.48653e-72
-2.76389e-80
-2.13894e-78
-3.75156e-75
-6.5641e-83
-4.16971e-81
-7.03404e-78
-1.20975e-85
-3.81251e-84
-1.31149e-80
-2.02551e-88
-1.79888e-87
-1.11788e-83
-2.07519e-91
-1.20194e-91
-4.99244e-87
-8.4758e-95
-1.02424e-95
-3.0597e-91
-5.16156e-99
-8.0073e-100
-2.70478e-95
-4.01871e-103
-2.31856e-99
-3.88316e-100
-3.04733e-109
-9.50948e-99
-2.19458e-99
-4.32186e-109
-1.81141e-98
-6.01556e-99
-7.96666e-109
-1.90641e-98
-8.63953e-99
-1.00224e-108
-1.2426e-98
-7.00229e-99
-4.43031e-109
-1.26225e-98
-2.25051e-99
-2.55004e-110
-1.97521e-101
-3.37895e-109
-2.46617e-12
-7.55997e-09
-3.99587e-16
2.19244e-11
-2.36339e-08
2.33257e-15
5.04242e-10
-4.66428e-08
1.31926e-15
-5.41934e-10
-6.61106e-08
-1.24435e-14
-2.95165e-09
-7.0885e-08
-2.54026e-15
-4.88792e-09
-7.89684e-08
3.46843e-15
-6.00515e-09
-8.78382e-08
9.00009e-15
-4.60325e-09
-8.85519e-08
2.17749e-15
-1.77374e-09
-7.26591e-08
-4.49033e-15
-2.50124e-09
-6.61782e-08
-5.26923e-15
-3.13621e-10
-3.26422e-08
-3.86765e-15
-5.45899e-12
-3.06673e-09
-2.61265e-16
-7.00145e-14
-6.93938e-11
-4.59819e-18
-2.94885e-15
-6.79056e-13
-4.42856e-20
-2.13788e-16
-2.10818e-14
-1.30074e-21
-9.94641e-18
-1.01319e-15
-4.13873e-23
-4.65938e-21
-4.32253e-17
-2.45178e-24
-6.41945e-28
-2.81142e-20
-9.82489e-28
-2.77621e-35
-3.27007e-27
-1.26114e-34
-1.87722e-44
-1.42443e-34
-4.55604e-42
-3.82998e-52
-9.15275e-44
-2.48688e-51
-1.39314e-60
-1.76922e-51
-4.39331e-59
-8.43791e-64
-6.1775e-60
-1.4458e-67
-7.28728e-67
-3.574e-63
-7.86177e-71
-2.02953e-70
-2.9363e-66
-6.22779e-74
-5.63379e-73
-7.76078e-70
-1.531e-77
-1.54814e-75
-2.0561e-72
-3.8426e-80
-3.0589e-78
-5.4126e-75
-9.50261e-83
-6.27176e-81
-9.93828e-78
-1.71099e-85
-5.87253e-84
-1.938e-80
-3.00985e-88
-2.96359e-87
-1.7009e-83
-3.14294e-91
-2.02971e-91
-8.10127e-87
-1.37493e-94
-2.32455e-95
-5.09682e-91
-8.60344e-99
-1.5755e-100
-5.80878e-95
-9.02051e-103
-3.43642e-100
-1.21212e-100
-2.05029e-109
-1.87076e-99
-3.12951e-100
-1.22729e-109
-5.21478e-99
-1.08124e-99
-3.42492e-109
-7.67823e-99
-2.10248e-99
-4.90857e-109
-6.49974e-99
-2.09906e-99
-4.24624e-109
-1.69818e-99
-1.03749e-99
-2.31131e-110
-1.59254e-101
-2.03544e-110
-3.09687e-12
-7.55687e-09
-3.70535e-16
2.30669e-11
-2.366e-08
3.93767e-15
5.52809e-10
-4.71725e-08
3.69742e-15
-8.41685e-10
-6.47161e-08
-1.29953e-14
-3.37003e-09
-6.83566e-08
-3.4688e-15
-5.22444e-09
-7.71141e-08
1.01424e-14
-6.22588e-09
-8.68368e-08
-7.01666e-15
-4.57214e-09
-9.02056e-08
1.09583e-14
-7.9782e-10
-7.64358e-08
-1.2497e-14
-2.59169e-09
-6.57846e-08
2.83882e-15
-5.07355e-10
-4.071e-08
-4.35975e-15
-1.02728e-11
-5.09444e-09
-4.29013e-16
-1.13899e-13
-1.37876e-10
-8.79112e-18
-3.34956e-15
-1.20206e-12
-7.54091e-20
-2.34006e-16
-2.69365e-14
-1.65267e-21
-1.09038e-17
-1.18444e-15
-4.84884e-23
-6.11397e-21
-4.89803e-17
-2.78866e-24
-6.81346e-28
-3.7183e-20
-1.34523e-27
-3.447e-35
-3.50009e-27
-1.34903e-34
-2.37551e-44
-1.77927e-34
-5.68938e-42
-4.88177e-52
-1.16144e-43
-3.15522e-51
-1.82898e-60
-2.25704e-51
-5.61414e-59
-1.13204e-63
-8.08046e-60
-1.90382e-67
-9.90574e-67
-4.77114e-63
-1.05583e-70
-2.77905e-70
-3.96692e-66
-8.43725e-74
-7.92961e-73
-1.05319e-69
-2.08694e-77
-2.27777e-75
-2.86431e-72
-5.37412e-80
-4.43019e-78
-7.87554e-75
-1.38777e-82
-9.43422e-81
-1.42563e-77
-2.45681e-85
-9.18675e-84
-2.86858e-80
-4.48937e-88
-4.91895e-87
-2.63262e-83
-4.847e-91
-3.47335e-91
-1.32437e-86
-2.2515e-94
-4.73423e-95
-8.60675e-91
-1.45566e-98
-6.04498e-101
-1.11115e-94
-1.81961e-102
-7.21378e-101
-6.9369e-101
-1.87847e-109
-2.68486e-100
-6.20052e-101
-1.4805e-110
-1.02934e-99
-1.33817e-100
-1.01841e-109
-2.05827e-99
-3.28527e-100
-1.76893e-109
-2.18533e-99
-4.52586e-100
-2.33369e-109
-1.03952e-99
-2.96935e-100
-5.85672e-110
-1.28904e-101
-1.7688e-111
-3.4556e-12
-7.55341e-09
1.03886e-15
3.31434e-11
-2.36966e-08
-2.61263e-15
5.7688e-10
-4.77163e-08
2.12646e-15
-1.08603e-09
-6.30532e-08
-1.36525e-14
-3.55078e-09
-6.58918e-08
1.71913e-15
-5.34418e-09
-7.53207e-08
1.63652e-15
-6.15296e-09
-8.6028e-08
3.30391e-15
-4.43291e-09
-9.19256e-08
-1.46606e-14
-1.92209e-10
-8.06771e-08
2.30148e-14
-2.37088e-09
-6.43309e-08
-1.12635e-14
-7.87404e-10
-4.85718e-08
-4.66703e-15
-1.93011e-11
-8.44582e-09
-6.55253e-16
-2.11393e-13
-2.75437e-10
-1.79302e-17
-4.22814e-15
-2.4527e-12
-1.45819e-19
-2.57712e-16
-3.55509e-14
-2.09029e-21
-1.19679e-17
-1.42146e-15
-5.62264e-23
-7.92981e-21
-5.63367e-17
-3.04344e-24
-7.22356e-28
-4.89288e-20
-1.74652e-27
-4.28947e-35
-3.76425e-27
-1.40906e-34
-3.01375e-44
-2.23852e-34
-6.96022e-42
-6.25641e-52
-1.48388e-43
-3.92841e-51
-2.40343e-60
-2.90633e-51
-7.08944e-59
-1.52402e-63
-1.06129e-59
-2.47588e-67
-1.35449e-66
-6.40832e-63
-1.40955e-70
-3.82053e-70
-5.40386e-66
-1.14274e-73
-1.12141e-72
-1.43817e-69
-2.84523e-77
-3.36996e-75
-4.01695e-72
-7.53352e-80
-6.50755e-78
-1.15371e-74
-2.03574e-82
-1.4194e-80
-2.07864e-77
-3.57813e-85
-1.45906e-83
-4.25338e-80
-6.70888e-88
-8.19857e-87
-4.1411e-83
-7.61189e-91
-6.00838e-91
-2.17387e-86
-3.70756e-94
-8.6557e-95
-1.46916e-90
-2.49328e-98
-4.06777e-101
-1.9138e-94
-3.29965e-102
-3.26152e-101
-5.39801e-101
-3.3682e-109
-4.06633e-101
-2.84203e-101
-1.60589e-111
-1.25982e-100
-2.51244e-101
-2.38419e-110
-3.56885e-100
-2.96809e-101
-4.6319e-110
-5.57204e-100
-5.75055e-101
-6.79193e-110
-4.81696e-100
-5.11404e-101
-5.46589e-110
-5.13347e-102
-1.73534e-111
-3.58108e-12
-7.54984e-09
1.22859e-15
4.90693e-11
-2.37493e-08
7.92093e-15
5.57939e-10
-4.82252e-08
1.05482e-14
-1.38846e-09
-6.11069e-08
-9.45857e-15
-3.95504e-09
-6.33252e-08
1.54465e-14
-6.01855e-09
-7.3257e-08
-7.14551e-15
-6.90091e-09
-8.51456e-08
-1.35748e-14
-5.64223e-09
-9.31843e-08
-2.0135e-14
-1.38911e-09
-8.49307e-08
1.8767e-14
-1.91461e-09
-6.41031e-08
-1.58634e-15
-1.1423e-09
-5.52388e-08
-3.54676e-15
-3.97601e-11
-1.37428e-08
-1.18003e-15
-4.3886e-13
-5.5035e-10
-3.7008e-17
-5.57155e-15
-5.60539e-12
-3.29642e-19
-2.83324e-16
-5.03245e-14
-2.81866e-21
-1.31385e-17
-1.77092e-15
-6.95992e-23
-1.01667e-20
-6.59658e-17
-3.34845e-24
-7.65377e-28
-6.40608e-20
-2.30837e-27
-5.35085e-35
-4.06832e-27
-1.48659e-34
-3.83367e-44
-2.83634e-34
-8.59331e-42
-8.06579e-52
-1.90834e-43
-4.95454e-51
-3.16083e-60
-3.7778e-51
-9.12083e-59
-2.05797e-63
-1.3989e-59
-3.26422e-67
-1.86246e-66
-8.65306e-63
-1.90788e-70
-5.27381e-70
-7.41722e-66
-1.56756e-73
-1.59334e-72
-1.97572e-69
-3.91513e-77
-5.00688e-75
-5.66902e-72
-1.06464e-79
-9.70628e-78
-1.6988e-74
-3.0071e-82
-2.13733e-80
-3.08273e-77
-5.30457e-85
-2.3497e-83
-6.32151e-80
-1.00712e-87
-1.36866e-86
-6.60777e-83
-1.20842e-90
-1.04797e-90
-3.57404e-86
-6.12938e-94
-1.44528e-94
-2.52818e-90
-4.31323e-98
-3.55036e-101
-3.03154e-94
-5.47298e-102
-1.6446e-101
-5.64458e-101
-7.26967e-109
-1.59418e-101
-1.46474e-101
-8.67121e-112
-1.6605e-101
-1.04735e-101
-3.88607e-111
-3.60746e-101
-6.05514e-102
-8.05301e-111
-8.09523e-101
-4.46071e-102
-1.47324e-110
-9.56992e-101
-3.92016e-102
-1.92984e-110
-6.74514e-103
-4.11346e-111
-3.41223e-12
-7.54643e-09
2.41339e-15
6.72464e-11
-2.38199e-08
-2.78959e-15
4.53994e-10
-4.8612e-08
6.6049e-15
-1.93375e-09
-5.87192e-08
6.85257e-15
-4.9327e-09
-6.03261e-08
1.77295e-14
-7.54803e-09
-7.06417e-08
-8.15887e-15
-8.80284e-09
-8.38908e-08
-1.84915e-14
-8.17296e-09
-9.38141e-08
-3.81618e-14
-4.04538e-09
-8.90584e-08
1.41942e-14
-1.26908e-09
-6.69528e-08
-1.46018e-15
-1.47969e-09
-5.98148e-08
3.03821e-16
-8.40498e-11
-2.14692e-08
-1.32403e-15
-9.76895e-13
-1.11358e-09
-5.6663e-17
-8.07229e-15
-1.37872e-11
-7.05206e-19
-2.96653e-16
-8.13487e-14
-3.51458e-21
-1.4399e-17
-2.28182e-15
-8.32225e-23
-1.28861e-20
-7.88664e-17
-3.57752e-24
-8.10843e-28
-8.3468e-20
-2.9702e-27
-6.69295e-35
-4.41932e-27
-1.47632e-34
-4.89056e-44
-3.6194e-34
-1.00986e-41
-1.0466e-51
-2.47002e-43
-6.03545e-51
-4.16013e-60
-4.95785e-51
-1.14786e-58
-2.78646e-63
-1.84978e-59
-4.20771e-67
-2.57443e-66
-1.17376e-62
-2.54281e-70
-7.31138e-70
-1.02506e-65
-2.1302e-73
-2.27452e-72
-2.7303e-69
-5.35849e-77
-7.46084e-75
-8.04891e-72
-1.50233e-79
-1.47091e-77
-2.51045e-74
-4.44043e-82
-3.22496e-80
-4.65048e-77
-7.98015e-85
-3.82889e-83
-9.42826e-80
-1.51619e-87
-2.2849e-86
-1.06675e-82
-1.94569e-90
-1.83906e-90
-5.87758e-86
-1.01467e-93
-2.25737e-94
-4.3766e-90
-7.51806e-98
-4.81188e-101
-4.53397e-94
-8.50423e-102
-8.6417e-102
-1.02955e-100
-1.64867e-108
-8.33412e-102
-7.24208e-102
-8.3454e-112
-5.36214e-102
-6.07348e-102
-6.23551e-112
-4.61763e-102
-2.79883e-102
-1.15873e-111
-5.38957e-102
-1.10509e-102
-2.58931e-111
-9.53504e-102
-3.00029e-103
-3.70599e-111
-3.11966e-104
-2.95148e-111
-3.25045e-12
-7.54319e-09
2.31421e-15
8.10376e-11
-2.39042e-08
7.09803e-15
2.10332e-10
-4.87413e-08
9.66444e-15
-2.77202e-09
-5.57368e-08
-2.65505e-14
-6.33784e-09
-5.67602e-08
9.11293e-15
-9.40505e-09
-6.75744e-08
-1.82698e-14
-1.0913e-08
-8.2383e-08
6.05045e-15
-1.03564e-08
-9.43706e-08
-3.88757e-14
-5.92444e-09
-9.34904e-08
3.67222e-17
-1.97703e-10
-7.2692e-08
-1.96275e-14
-1.58355e-09
-6.15758e-08
3.24626e-15
-1.68299e-10
-3.13919e-08
-1.02846e-15
-2.23507e-12
-2.29597e-09
-1.05004e-16
-1.37079e-14
-3.53122e-11
-1.99133e-18
-3.48009e-16
-1.59651e-13
-6.14499e-21
-1.58496e-17
-2.99691e-15
-1.11676e-22
-1.61498e-20
-9.63751e-17
-4.43157e-24
-8.59652e-28
-1.0827e-19
-4.29313e-27
-8.39737e-35
-4.82964e-27
-1.68539e-34
-6.25836e-44
-4.65199e-34
-1.31545e-41
-1.3677e-51
-3.21737e-43
-7.94048e-51
-5.4802e-60
-6.57033e-51
-1.54288e-58
-3.78195e-63
-2.45308e-59
-5.6988e-67
-3.57613e-66
-1.59841e-62
-3.52463e-70
-1.01834e-69
-1.42531e-65
-2.99195e-73
-3.26262e-72
-3.79548e-69
-7.5028e-77
-1.11381e-74
-1.1495e-71
-2.15348e-79
-2.26436e-77
-3.71835e-74
-6.61293e-82
-4.88456e-80
-7.13053e-77
-1.22458e-84
-6.29632e-83
-1.41356e-79
-2.29947e-87
-3.81311e-86
-1.73694e-82
-3.17015e-90
-3.24292e-90
-9.66714e-86
-1.6822e-93
-3.39909e-94
-7.61348e-90
-1.31905e-97
-1.09279e-100
-6.62294e-94
-1.27609e-101
-4.20848e-102
-2.14148e-100
-3.63392e-108
-4.46826e-102
-3.30223e-102
-5.07275e-112
-3.31173e-102
-3.0411e-102
-1.24742e-112
-1.85351e-102
-1.52874e-102
-1.89508e-112
-8.09048e-103
-6.04218e-103
-5.84726e-112
-4.10072e-103
-1.43029e-103
-8.57523e-112
-6.1317e-105
-9.23198e-112
-2.97364e-12
-7.54022e-09
3.78747e-15
8.57686e-11
-2.3993e-08
-4.21623e-16
-1.9519e-10
-4.84604e-08
6.22171e-15
-3.76406e-09
-5.21679e-08
-3.83235e-15
-7.73353e-09
-5.27907e-08
1.49006e-14
-1.09218e-08
-6.43861e-08
-1.71085e-14
-1.22677e-08
-8.10371e-08
2.87312e-15
-1.11244e-08
-9.55138e-08
-1.91388e-14
-6.0652e-09
-9.85496e-08
-6.93258e-16
1.24508e-09
-8.00035e-08
-2.15914e-15
-1.18811e-09
-6.06789e-08
1.65182e-15
-3.09865e-10
-4.19955e-08
-1.31559e-15
-5.08764e-12
-4.77373e-09
-2.16586e-16
-2.80992e-14
-9.21819e-11
-4.69021e-18
-4.28868e-16
-3.83774e-13
-1.22699e-20
-1.76496e-17
-3.98281e-15
-1.30232e-22
-2.00189e-20
-1.20326e-16
-4.96974e-24
-9.14623e-28
-1.39884e-19
-5.55315e-27
-1.05729e-34
-5.33007e-27
-1.76683e-34
-8.03675e-44
-6.02308e-34
-1.62871e-41
-1.80111e-51
-4.21733e-43
-1.00756e-50
-7.22734e-60
-8.79389e-51
-1.99929e-58
-5.14457e-63
-3.26207e-59
-7.37901e-67
-4.9905e-66
-2.18392e-62
-4.70057e-70
-1.42558e-69
-1.99252e-65
-4.08399e-73
-4.70373e-72
-5.30803e-69
-1.03248e-76