/*--------------------------------*- C++ -*----------------------------------*\
| =========                 |                                                 |
| \\      /  F ield         | OpenFOAM: The Open Source CFD Toolbox           |
|  \\    /   O peration     | Version:  v2012                                 |
|   \\  /    A nd           | Website:  www.openfoam.com                      |
|    \\/     M anipulation  |                                                 |
\*---------------------------------------------------------------------------*/
FoamFile
{
    version     2.0;
    format      ascii;
    class       volScalarField;
    location    "0.3";
    object      p;
}
// * * * * * * * * * * * * * * * * * * * * * * * * * * * * * * * * * * * * * //

dimensions      [1 -1 -2 0 0 0 0];


internalField   nonuniform List<scalar> 
3332
(
3.48262e+06
3.48361e+06
3.48443e+06
3.48511e+06
3.48568e+06
3.48617e+06
3.48659e+06
3.48697e+06
3.4873e+06
3.48761e+06
3.48788e+06
3.48814e+06
3.48838e+06
3.48861e+06
3.48882e+06
3.48902e+06
3.48922e+06
3.4894e+06
3.48958e+06
3.48975e+06
3.479e+06
3.48065e+06
3.48197e+06
3.48304e+06
3.48392e+06
3.48464e+06
3.48525e+06
3.48578e+06
3.48623e+06
3.48662e+06
3.48698e+06
3.4873e+06
3.48759e+06
3.48785e+06
3.48811e+06
3.48834e+06
3.48856e+06
3.48877e+06
3.48897e+06
3.48917e+06
3.48935e+06
3.48952e+06
3.46979e+06
3.46058e+06
3.46921e+06
3.46167e+06
3.46113e+06
3.45685e+06
3.45601e+06
3.45311e+06
3.44581e+06
3.43171e+06
3.45896e+06
3.4652e+06
3.46988e+06
3.47348e+06
3.47624e+06
3.47841e+06
3.48012e+06
3.4815e+06
3.4826e+06
3.48351e+06
3.48426e+06
3.4849e+06
3.48544e+06
3.4859e+06
3.48631e+06
3.48668e+06
3.48701e+06
3.48731e+06
3.48758e+06
3.48784e+06
3.48808e+06
3.48831e+06
3.48853e+06
3.48874e+06
3.48894e+06
3.48912e+06
3.4893e+06
3.47021e+06
3.4721e+06
3.4699e+06
3.47106e+06
3.46433e+06
3.46342e+06
3.46018e+06
3.45821e+06
3.4502e+06
3.43466e+06
3.43863e+06
3.45075e+06
3.45862e+06
3.46507e+06
3.46961e+06
3.47324e+06
3.47597e+06
3.47814e+06
3.47984e+06
3.48121e+06
3.48232e+06
3.48323e+06
3.48398e+06
3.48461e+06
3.48515e+06
3.48562e+06
3.48604e+06
3.4864e+06
3.48674e+06
3.48704e+06
3.48732e+06
3.48759e+06
3.48784e+06
3.48807e+06
3.48829e+06
3.48851e+06
3.48871e+06
3.4889e+06
3.48909e+06
3.47558e+06
3.48582e+06
3.47591e+06
3.48272e+06
3.47195e+06
3.47373e+06
3.46847e+06
3.46802e+06
3.45969e+06
3.44255e+06
3.44057e+06
3.45288e+06
3.45959e+06
3.46595e+06
3.47008e+06
3.47358e+06
3.47613e+06
3.47822e+06
3.47983e+06
3.48114e+06
3.4822e+06
3.48307e+06
3.48379e+06
3.48441e+06
3.48493e+06
3.48539e+06
3.4858e+06
3.48616e+06
3.48649e+06
3.4868e+06
3.48708e+06
3.48735e+06
3.4876e+06
3.48784e+06
3.48806e+06
3.48828e+06
3.48849e+06
3.48869e+06
3.48888e+06
3.48906e+06
3.48761e+06
3.50009e+06
3.48861e+06
3.49575e+06
3.48516e+06
3.48756e+06
3.48203e+06
3.48309e+06
3.47513e+06
3.45543e+06
3.44549e+06
3.45698e+06
3.46191e+06
3.46785e+06
3.47129e+06
3.47451e+06
3.47675e+06
3.47864e+06
3.48009e+06
3.48128e+06
3.48224e+06
3.48304e+06
3.48371e+06
3.48428e+06
3.48478e+06
3.48521e+06
3.4856e+06
3.48595e+06
3.48627e+06
3.48657e+06
3.48685e+06
3.48711e+06
3.48737e+06
3.48761e+06
3.48784e+06
3.48806e+06
3.48827e+06
3.48847e+06
3.48867e+06
3.48885e+06
3.50498e+06
3.51354e+06
3.50599e+06
3.50925e+06
3.50256e+06
3.50404e+06
3.49987e+06
3.50218e+06
3.49497e+06
3.47224e+06
3.45312e+06
3.46265e+06
3.4655e+06
3.47067e+06
3.47323e+06
3.47599e+06
3.4778e+06
3.47941e+06
3.48062e+06
3.48164e+06
3.48246e+06
3.48315e+06
3.48373e+06
3.48424e+06
3.48468e+06
3.48508e+06
3.48543e+06
3.48576e+06
3.48607e+06
3.48636e+06
3.48663e+06
3.4869e+06
3.48715e+06
3.48739e+06
3.48762e+06
3.48784e+06
3.48806e+06
3.48826e+06
3.48846e+06
3.48865e+06
3.48883e+06
3.52356e+06
3.52625e+06
3.52427e+06
3.52317e+06
3.52106e+06
3.52155e+06
3.51924e+06
3.52268e+06
3.5163e+06
3.49144e+06
3.46271e+06
3.46928e+06
3.4701e+06
3.47421e+06
3.47581e+06
3.47797e+06
3.47926e+06
3.4805e+06
3.48141e+06
3.4822e+06
3.48284e+06
3.48338e+06
3.48385e+06
3.48427e+06
3.48465e+06
3.48499e+06
3.48531e+06
3.48561e+06
3.48589e+06
3.48617e+06
3.48643e+06
3.48669e+06
3.48693e+06
3.48717e+06
3.48741e+06
3.48763e+06
3.48785e+06
3.48806e+06
3.48826e+06
3.48845e+06
3.48863e+06
3.53963e+06
3.53898e+06
3.53993e+06
3.53727e+06
3.53762e+06
3.53787e+06
3.53647e+06
3.5411e+06
3.5347e+06
3.5106e+06
3.47328e+06
3.47615e+06
3.47546e+06
3.47827e+06
3.47894e+06
3.48037e+06
3.4811e+06
3.48189e+06
3.48244e+06
3.48295e+06
3.48337e+06
3.48374e+06
3.48407e+06
3.48438e+06
3.48467e+06
3.48495e+06
3.48521e+06
3.48548e+06
3.48574e+06
3.48599e+06
3.48624e+06
3.48649e+06
3.48673e+06
3.48697e+06
3.4872e+06
3.48743e+06
3.48764e+06
3.48786e+06
3.48806e+06
3.48826e+06
3.48844e+06
3.55221e+06
3.55176e+06
3.55221e+06
3.55066e+06
3.55128e+06
3.55146e+06
3.54957e+06
3.55477e+06
3.54709e+06
3.52737e+06
3.48459e+06
3.48275e+06
3.48144e+06
3.4827e+06
3.48258e+06
3.48315e+06
3.48327e+06
3.48355e+06
3.4837e+06
3.48388e+06
3.48403e+06
3.4842e+06
3.48437e+06
3.48455e+06
3.48474e+06
3.48494e+06
3.48515e+06
3.48537e+06
3.4856e+06
3.48583e+06
3.48606e+06
3.4863e+06
3.48653e+06
3.48677e+06
3.487e+06
3.48722e+06
3.48744e+06
3.48766e+06
3.48787e+06
3.48806e+06
3.48825e+06
3.56342e+06
3.5646e+06
3.56335e+06
3.56348e+06
3.56339e+06
3.56292e+06
3.56049e+06
3.56421e+06
3.55669e+06
3.54201e+06
3.49864e+06
3.48938e+06
3.48833e+06
3.48754e+06
3.48673e+06
3.48628e+06
3.48577e+06
3.48545e+06
3.48515e+06
3.48496e+06
3.48482e+06
3.48475e+06
3.48474e+06
3.48477e+06
3.48485e+06
3.48497e+06
3.48511e+06
3.48528e+06
3.48547e+06
3.48568e+06
3.48589e+06
3.48611e+06
3.48634e+06
3.48657e+06
3.4868e+06
3.48703e+06
3.48725e+06
3.48746e+06
3.48767e+06
3.48787e+06
3.48807e+06
3.5761e+06
3.57757e+06
3.57605e+06
3.57643e+06
3.5762e+06
3.57457e+06
3.5729e+06
3.57335e+06
3.56934e+06
3.558e+06
3.51764e+06
3.49702e+06
3.49653e+06
3.49293e+06
3.49144e+06
3.48976e+06
3.48856e+06
3.48756e+06
3.48677e+06
3.48616e+06
3.4857e+06
3.48538e+06
3.48516e+06
3.48504e+06
3.485e+06
3.48502e+06
3.48509e+06
3.48521e+06
3.48536e+06
3.48554e+06
3.48573e+06
3.48594e+06
3.48616e+06
3.48638e+06
3.48661e+06
3.48683e+06
3.48705e+06
3.48727e+06
3.48748e+06
3.48769e+06
3.48788e+06
3.59183e+06
3.59028e+06
3.59147e+06
3.58965e+06
3.59098e+06
3.58796e+06
3.58829e+06
3.58601e+06
3.58695e+06
3.57748e+06
3.54049e+06
3.50649e+06
3.50579e+06
3.49896e+06
3.49664e+06
3.49356e+06
3.49161e+06
3.48985e+06
3.48853e+06
3.48747e+06
3.48666e+06
3.48606e+06
3.48563e+06
3.48534e+06
3.48516e+06
3.48509e+06
3.48508e+06
3.48515e+06
3.48525e+06
3.4854e+06
3.48557e+06
3.48577e+06
3.48598e+06
3.48619e+06
3.48642e+06
3.48664e+06
3.48686e+06
3.48708e+06
3.4873e+06
3.4875e+06
3.4877e+06
3.6091e+06
3.60195e+06
3.60856e+06
3.60276e+06
3.60696e+06
3.60248e+06
3.60521e+06
3.6016e+06
3.60701e+06
3.59804e+06
3.56455e+06
3.51804e+06
3.51532e+06
3.50562e+06
3.50215e+06
3.49763e+06
3.49483e+06
3.49227e+06
3.49037e+06
3.48883e+06
3.48766e+06
3.48677e+06
3.48611e+06
3.48564e+06
3.48534e+06
3.48516e+06
3.48508e+06
3.48508e+06
3.48515e+06
3.48527e+06
3.48542e+06
3.4856e+06
3.4858e+06
3.48601e+06
3.48623e+06
3.48645e+06
3.48668e+06
3.4869e+06
3.48711e+06
3.48732e+06
3.48753e+06
3.62601e+06
3.61295e+06
3.62506e+06
3.61541e+06
3.62204e+06
3.61621e+06
3.6203e+06
3.61552e+06
3.62394e+06
3.61351e+06
3.58692e+06
3.53147e+06
3.52433e+06
3.51287e+06
3.50775e+06
3.50194e+06
3.49815e+06
3.49478e+06
3.49226e+06
3.49023e+06
3.48867e+06
3.48748e+06
3.48659e+06
3.48595e+06
3.48551e+06
3.48523e+06
3.48507e+06
3.48502e+06
3.48505e+06
3.48513e+06
3.48526e+06
3.48543e+06
3.48562e+06
3.48583e+06
3.48604e+06
3.48627e+06
3.48649e+06
3.48671e+06
3.48693e+06
3.48714e+06
3.48735e+06
3.64111e+06
3.62449e+06
3.6398e+06
3.628e+06
3.63525e+06
3.62864e+06
3.63183e+06
3.62596e+06
3.63404e+06
3.6224e+06
3.60509e+06
3.54761e+06
3.5324e+06
3.52076e+06
3.51331e+06
3.50643e+06
3.50149e+06
3.49731e+06
3.49413e+06
3.49159e+06
3.48965e+06
3.48815e+06
3.48704e+06
3.48623e+06
3.48565e+06
3.48528e+06
3.48505e+06
3.48495e+06
3.48493e+06
3.48499e+06
3.48511e+06
3.48526e+06
3.48544e+06
3.48564e+06
3.48586e+06
3.48608e+06
3.48631e+06
3.48653e+06
3.48675e+06
3.48697e+06
3.48718e+06
3.65803e+06
3.63924e+06
3.65365e+06
3.64135e+06
3.64749e+06
3.64118e+06
3.64181e+06
3.63664e+06
3.64008e+06
3.63283e+06
3.62147e+06
3.56953e+06
3.54041e+06
3.52964e+06
3.5189e+06
3.51109e+06
3.50478e+06
3.49981e+06
3.49593e+06
3.49289e+06
3.49055e+06
3.48877e+06
3.48743e+06
3.48646e+06
3.48577e+06
3.4853e+06
3.48501e+06
3.48486e+06
3.48481e+06
3.48485e+06
3.48494e+06
3.48509e+06
3.48526e+06
3.48546e+06
3.48567e+06
3.4859e+06
3.48612e+06
3.48635e+06
3.48658e+06
3.4868e+06
3.48701e+06
3.66958e+06
3.65394e+06
3.66602e+06
3.6553e+06
3.65951e+06
3.65452e+06
3.65283e+06
3.6501e+06
3.64886e+06
3.64916e+06
3.64025e+06
3.59638e+06
3.54978e+06
3.53925e+06
3.52462e+06
3.51579e+06
3.50796e+06
3.50218e+06
3.49758e+06
3.49405e+06
3.49134e+06
3.48928e+06
3.48775e+06
3.48662e+06
3.48583e+06
3.48528e+06
3.48494e+06
3.48475e+06
3.48467e+06
3.48469e+06
3.48477e+06
3.48491e+06
3.48508e+06
3.48528e+06
3.48549e+06
3.48572e+06
3.48594e+06
3.48617e+06
3.4864e+06
3.48662e+06
3.48684e+06
3.6783e+06
3.66972e+06
3.67578e+06
3.6687e+06
3.67011e+06
3.667e+06
3.66405e+06
3.66408e+06
3.66085e+06
3.66781e+06
3.65754e+06
3.62305e+06
3.56138e+06
3.54823e+06
3.5304e+06
3.52017e+06
3.51091e+06
3.50428e+06
3.49899e+06
3.495e+06
3.49195e+06
3.48965e+06
3.48795e+06
3.4867e+06
3.48582e+06
3.48521e+06
3.48483e+06
3.48461e+06
3.48451e+06
3.48452e+06
3.48459e+06
3.48472e+06
3.48489e+06
3.48509e+06
3.48531e+06
3.48553e+06
3.48577e+06
3.486e+06
3.48623e+06
3.48645e+06
3.48667e+06
3.68065e+06
3.6834e+06
3.68e+06
3.67983e+06
3.67745e+06
3.67631e+06
3.67257e+06
3.67417e+06
3.67048e+06
3.6804e+06
3.66791e+06
3.64511e+06
3.57601e+06
3.55524e+06
3.53615e+06
3.52384e+06
3.51345e+06
3.50595e+06
3.50007e+06
3.49567e+06
3.49233e+06
3.48985e+06
3.48801e+06
3.48667e+06
3.48573e+06
3.48508e+06
3.48467e+06
3.48443e+06
3.48433e+06
3.48433e+06
3.4844e+06
3.48453e+06
3.4847e+06
3.4849e+06
3.48512e+06
3.48535e+06
3.48559e+06
3.48582e+06
3.48606e+06
3.48629e+06
3.48651e+06
3.67898e+06
3.69441e+06
3.67908e+06
3.68677e+06
3.68054e+06
3.68125e+06
3.67713e+06
3.67883e+06
3.67596e+06
3.68441e+06
3.67306e+06
3.66017e+06
3.5952e+06
3.55976e+06
3.54167e+06
3.52648e+06
3.51541e+06
3.50701e+06
3.50069e+06
3.49596e+06
3.49243e+06
3.48981e+06
3.4879e+06
3.48652e+06
3.48554e+06
3.48488e+06
3.48446e+06
3.48422e+06
3.48412e+06
3.48412e+06
3.4842e+06
3.48433e+06
3.48451e+06
3.48471e+06
3.48493e+06
3.48517e+06
3.48541e+06
3.48565e+06
3.48589e+06
3.48612e+06
3.48635e+06
3.67096e+06
3.69755e+06
3.67324e+06
3.6876e+06
3.67845e+06
3.68093e+06
3.67727e+06
3.67926e+06
3.67942e+06
3.6848e+06
3.67856e+06
3.6708e+06
3.61795e+06
3.56282e+06
3.54636e+06
3.52793e+06
3.51651e+06
3.50731e+06
3.50074e+06
3.4958e+06
3.49218e+06
3.48953e+06
3.4876e+06
3.48622e+06
3.48525e+06
3.48461e+06
3.4842e+06
3.48397e+06
3.48388e+06
3.48389e+06
3.48398e+06
3.48412e+06
3.4843e+06
3.48451e+06
3.48474e+06
3.48498e+06
3.48523e+06
3.48548e+06
3.48572e+06
3.48596e+06
3.48619e+06
3.65745e+06
3.69094e+06
3.66173e+06
3.68003e+06
3.66882e+06
3.67259e+06
3.6706e+06
3.67506e+06
3.68063e+06
3.68533e+06
3.68482e+06
3.67839e+06
3.63821e+06
3.56653e+06
3.54846e+06
3.52807e+06
3.51631e+06
3.50668e+06
3.50007e+06
3.49511e+06
3.49155e+06
3.48895e+06
3.48709e+06
3.48577e+06
3.48485e+06
3.48425e+06
3.48387e+06
3.48368e+06
3.48361e+06
3.48364e+06
3.48374e+06
3.4839e+06
3.48409e+06
3.48431e+06
3.48455e+06
3.4848e+06
3.48505e+06
3.48531e+06
3.48556e+06
3.4858e+06
3.48603e+06
3.63588e+06
3.67059e+06
3.64146e+06
3.66071e+06
3.64845e+06
3.65244e+06
3.65357e+06
3.66333e+06
3.67618e+06
3.6831e+06
3.68736e+06
3.67873e+06
3.65113e+06
3.57227e+06
3.54601e+06
3.52665e+06
3.5143e+06
3.50497e+06
3.49854e+06
3.49384e+06
3.49049e+06
3.48807e+06
3.48636e+06
3.48516e+06
3.48434e+06
3.48381e+06
3.48349e+06
3.48334e+06
3.48331e+06
3.48337e+06
3.48349e+06
3.48367e+06
3.48388e+06
3.48411e+06
3.48436e+06
3.48462e+06
3.48488e+06
3.48514e+06
3.48539e+06
3.48564e+06
3.48588e+06
3.60881e+06
3.63867e+06
3.61306e+06
3.62944e+06
3.6163e+06
3.61881e+06
3.62433e+06
3.64139e+06
3.66161e+06
3.6714e+06
3.67965e+06
3.66731e+06
3.65207e+06
3.57727e+06
3.53781e+06
3.52287e+06
3.51008e+06
3.50199e+06
3.49607e+06
3.49195e+06
3.48899e+06
3.48689e+06
3.48542e+06
3.4844e+06
3.48372e+06
3.48329e+06
3.48305e+06
3.48296e+06
3.48298e+06
3.48307e+06
3.48323e+06
3.48343e+06
3.48366e+06
3.4839e+06
3.48416e+06
3.48443e+06
3.4847e+06
3.48497e+06
3.48523e+06
3.48548e+06
3.48573e+06
3.57401e+06
3.5965e+06
3.57804e+06
3.58966e+06
3.57563e+06
3.57584e+06
3.58575e+06
3.61003e+06
3.635e+06
3.64615e+06
3.65619e+06
3.64322e+06
3.63647e+06
3.57495e+06
3.52456e+06
3.51554e+06
3.50367e+06
3.49765e+06
3.49269e+06
3.48946e+06
3.48708e+06
3.48544e+06
3.48428e+06
3.4835e+06
3.483e+06
3.4827e+06
3.48257e+06
3.48255e+06
3.48262e+06
3.48276e+06
3.48295e+06
3.48318e+06
3.48343e+06
3.48369e+06
3.48397e+06
3.48425e+06
3.48453e+06
3.4848e+06
3.48507e+06
3.48533e+06
3.48558e+06
3.54091e+06
3.55612e+06
3.54386e+06
3.5506e+06
3.5353e+06
3.53516e+06
3.54566e+06
3.57422e+06
3.59862e+06
3.60812e+06
3.6164e+06
3.60745e+06
3.60466e+06
3.5597e+06
3.50818e+06
3.50407e+06
3.49554e+06
3.49203e+06
3.48857e+06
3.48647e+06
3.48485e+06
3.48375e+06
3.48298e+06
3.48249e+06
3.48219e+06
3.48205e+06
3.48203e+06
3.48211e+06
3.48225e+06
3.48244e+06
3.48267e+06
3.48292e+06
3.4832e+06
3.48348e+06
3.48377e+06
3.48406e+06
3.48435e+06
3.48463e+06
3.48491e+06
3.48517e+06
3.48543e+06
3.51568e+06
3.52574e+06
3.5175e+06
3.52169e+06
3.50623e+06
3.50808e+06
3.51514e+06
3.54043e+06
3.55793e+06
3.56278e+06
3.56696e+06
3.5643e+06
3.56449e+06
3.53309e+06
3.49117e+06
3.48974e+06
3.48658e+06
3.48555e+06
3.48402e+06
3.48316e+06
3.4824e+06
3.48191e+06
3.48157e+06
3.48139e+06
3.48133e+06
3.48136e+06
3.48147e+06
3.48164e+06
3.48185e+06
3.4821e+06
3.48237e+06
3.48266e+06
3.48296e+06
3.48327e+06
3.48357e+06
3.48388e+06
3.48418e+06
3.48447e+06
3.48475e+06
3.48502e+06
3.48528e+06
3.50269e+06
3.50844e+06
3.50368e+06
3.50606e+06
3.49482e+06
3.49566e+06
3.49961e+06
3.51317e+06
3.51987e+06
3.51908e+06
3.51941e+06
3.52201e+06
3.52593e+06
3.5035e+06
3.47599e+06
3.47545e+06
3.47792e+06
3.47898e+06
3.47945e+06
3.47976e+06
3.47988e+06
3.48e+06
3.48011e+06
3.48025e+06
3.48043e+06
3.48064e+06
3.48088e+06
3.48115e+06
3.48144e+06
3.48175e+06
3.48207e+06
3.48239e+06
3.48272e+06
3.48305e+06
3.48337e+06
3.48369e+06
3.484e+06
3.48431e+06
3.4846e+06
3.48487e+06
3.48514e+06
3.50149e+06
3.50107e+06
3.50132e+06
3.49984e+06
3.49727e+06
3.49305e+06
3.49346e+06
3.49341e+06
3.49017e+06
3.48568e+06
3.48406e+06
3.4891e+06
3.49522e+06
3.47932e+06
3.46373e+06
3.46382e+06
3.47039e+06
3.47303e+06
3.4752e+06
3.4765e+06
3.47743e+06
3.47811e+06
3.47865e+06
3.4791e+06
3.47952e+06
3.4799e+06
3.48028e+06
3.48065e+06
3.48103e+06
3.48139e+06
3.48176e+06
3.48212e+06
3.48248e+06
3.48283e+06
3.48318e+06
3.48351e+06
3.48383e+06
3.48414e+06
3.48444e+06
3.48473e+06
3.485e+06
3.50457e+06
3.49818e+06
3.50326e+06
3.49798e+06
3.50303e+06
3.49392e+06
3.48913e+06
3.48022e+06
3.47146e+06
3.46631e+06
3.46444e+06
3.46947e+06
3.47459e+06
3.46429e+06
3.45481e+06
3.45593e+06
3.46436e+06
3.46813e+06
3.47148e+06
3.47356e+06
3.47516e+06
3.47632e+06
3.47723e+06
3.47798e+06
3.47861e+06
3.47917e+06
3.47968e+06
3.48016e+06
3.48061e+06
3.48104e+06
3.48145e+06
3.48185e+06
3.48224e+06
3.48262e+06
3.48298e+06
3.48333e+06
3.48366e+06
3.48398e+06
3.48429e+06
3.48459e+06
3.48486e+06
3.50517e+06
3.49802e+06
3.50335e+06
3.49787e+06
3.50383e+06
3.49381e+06
3.48393e+06
3.47234e+06
3.4625e+06
3.45871e+06
3.45718e+06
3.46117e+06
3.46302e+06
3.45734e+06
3.44907e+06
3.4513e+06
3.45981e+06
3.46435e+06
3.46836e+06
3.471e+06
3.4731e+06
3.47466e+06
3.4759e+06
3.4769e+06
3.47774e+06
3.47846e+06
3.47909e+06
3.47966e+06
3.48019e+06
3.48068e+06
3.48115e+06
3.48158e+06
3.482e+06
3.4824e+06
3.48278e+06
3.48315e+06
3.4835e+06
3.48383e+06
3.48414e+06
3.48444e+06
3.48473e+06
3.4996e+06
3.49896e+06
3.49837e+06
3.49892e+06
3.49818e+06
3.49167e+06
3.47859e+06
3.46816e+06
3.45973e+06
3.45776e+06
3.45662e+06
3.4592e+06
3.45782e+06
3.45517e+06
3.44564e+06
3.4487e+06
3.45646e+06
3.46149e+06
3.46578e+06
3.46883e+06
3.47129e+06
3.47316e+06
3.47467e+06
3.47589e+06
3.4769e+06
3.47777e+06
3.47852e+06
3.47918e+06
3.47978e+06
3.48033e+06
3.48084e+06
3.48132e+06
3.48177e+06
3.48219e+06
3.48259e+06
3.48297e+06
3.48333e+06
3.48367e+06
3.484e+06
3.48431e+06
3.4846e+06
3.49188e+06
3.50054e+06
3.49126e+06
3.50021e+06
3.4911e+06
3.48783e+06
3.47426e+06
3.4658e+06
3.4594e+06
3.4587e+06
3.45787e+06
3.45926e+06
3.45621e+06
3.45478e+06
3.44362e+06
3.44706e+06
3.45395e+06
3.4593e+06
3.46367e+06
3.46701e+06
3.4697e+06
3.47182e+06
3.47354e+06
3.47495e+06
3.47612e+06
3.47711e+06
3.47797e+06
3.47872e+06
3.47939e+06
3.47999e+06
3.48055e+06
3.48106e+06
3.48154e+06
3.48198e+06
3.4824e+06
3.4828e+06
3.48317e+06
3.48352e+06
3.48386e+06
3.48417e+06
3.48447e+06
3.48588e+06
3.49927e+06
3.48548e+06
3.49893e+06
3.48593e+06
3.48282e+06
3.47074e+06
3.46359e+06
3.45886e+06
3.45863e+06
3.45779e+06
3.45859e+06
3.45562e+06
3.45421e+06
3.44215e+06
3.44568e+06
3.45199e+06
3.45754e+06
3.46192e+06
3.46546e+06
3.46833e+06
3.47064e+06
3.47253e+06
3.47409e+06
3.47539e+06
3.47649e+06
3.47744e+06
3.47827e+06
3.479e+06
3.47966e+06
3.48026e+06
3.48081e+06
3.48131e+06
3.48178e+06
3.48222e+06
3.48263e+06
3.48301e+06
3.48338e+06
3.48372e+06
3.48404e+06
3.48434e+06
3.4827e+06
3.49245e+06
3.4819e+06
3.4928e+06
3.48168e+06
3.47669e+06
3.46721e+06
3.46072e+06
3.45719e+06
3.45692e+06
3.45619e+06
3.45687e+06
3.45472e+06
3.45293e+06
3.44085e+06
3.44433e+06
3.45038e+06
3.45606e+06
3.46045e+06
3.46414e+06
3.46713e+06
3.46959e+06
3.47162e+06
3.4733e+06
3.47472e+06
3.47592e+06
3.47695e+06
3.47785e+06
3.47864e+06
3.47934e+06
3.47998e+06
3.48056e+06
3.48109e+06
3.48158e+06
3.48204e+06
3.48246e+06
3.48286e+06
3.48323e+06
3.48358e+06
3.48391e+06
3.48422e+06
3.48078e+06
3.48143e+06
3.47878e+06
3.48279e+06
3.47668e+06
3.46983e+06
3.46329e+06
3.45729e+06
3.45464e+06
3.4542e+06
3.45365e+06
3.45448e+06
3.45318e+06
3.45112e+06
3.43958e+06
3.44301e+06
3.44902e+06
3.45479e+06
3.4592e+06
3.46301e+06
3.4661e+06
3.46868e+06
3.47081e+06
3.4726e+06
3.47411e+06
3.47539e+06
3.47649e+06
3.47745e+06
3.47829e+06
3.47904e+06
3.47971e+06
3.48032e+06
3.48088e+06
3.48139e+06
3.48186e+06
3.4823e+06
3.48271e+06
3.48309e+06
3.48345e+06
3.48379e+06
3.4841e+06
3.47772e+06
3.46906e+06
3.4748e+06
3.47171e+06
3.47089e+06
3.46307e+06
3.45919e+06
3.45376e+06
3.45181e+06
3.45128e+06
3.45096e+06
3.45189e+06
3.45121e+06
3.44905e+06
3.43838e+06
3.4418e+06
3.44785e+06
3.4537e+06
3.45815e+06
3.46204e+06
3.46521e+06
3.46787e+06
3.47009e+06
3.47197e+06
3.47355e+06
3.4749e+06
3.47607e+06
3.47708e+06
3.47797e+06
3.47876e+06
3.47946e+06
3.4801e+06
3.48067e+06
3.4812e+06
3.48169e+06
3.48214e+06
3.48256e+06
3.48296e+06
3.48332e+06
3.48366e+06
3.48398e+06
3.47348e+06
3.45831e+06
3.47011e+06
3.46191e+06
3.46504e+06
3.45711e+06
3.45528e+06
3.45055e+06
3.44916e+06
3.44868e+06
3.44852e+06
3.44948e+06
3.44915e+06
3.44705e+06
3.43726e+06
3.44075e+06
3.44687e+06
3.45277e+06
3.45726e+06
3.46122e+06
3.46444e+06
3.46718e+06
3.46947e+06
3.47141e+06
3.47305e+06
3.47446e+06
3.47568e+06
3.47674e+06
3.47766e+06
3.47849e+06
3.47922e+06
3.47988e+06
3.48048e+06
3.48103e+06
3.48153e+06
3.48199e+06
3.48242e+06
3.48282e+06
3.4832e+06
3.48355e+06
3.48387e+06
3.46856e+06
3.45028e+06
3.46521e+06
3.45438e+06
3.45977e+06
3.45233e+06
3.45185e+06
3.44789e+06
3.44693e+06
3.44657e+06
3.4465e+06
3.44742e+06
3.44723e+06
3.44527e+06
3.43631e+06
3.43991e+06
3.44606e+06
3.452e+06
3.45653e+06
3.46052e+06
3.46379e+06
3.46658e+06
3.46892e+06
3.47091e+06
3.47261e+06
3.47406e+06
3.47532e+06
3.47642e+06
3.47738e+06
3.47823e+06
3.47899e+06
3.47967e+06
3.48029e+06
3.48085e+06
3.48137e+06
3.48185e+06
3.48229e+06
3.4827e+06
3.48308e+06
3.48343e+06
3.48376e+06
3.46364e+06
3.44511e+06
3.46067e+06
3.4492e+06
3.45536e+06
3.44873e+06
3.449e+06
3.44579e+06
3.44514e+06
3.44494e+06
3.44489e+06
3.44573e+06
3.44556e+06
3.44376e+06
3.43553e+06
3.43926e+06
3.44542e+06
3.45138e+06
3.45592e+06
3.45994e+06
3.46324e+06
3.46606e+06
3.46844e+06
3.47048e+06
3.47221e+06
3.47371e+06
3.475e+06
3.47613e+06
3.47712e+06
3.478e+06
3.47878e+06
3.47948e+06
3.48012e+06
3.48069e+06
3.48122e+06
3.48171e+06
3.48216e+06
3.48257e+06
3.48296e+06
3.48332e+06
3.48366e+06
3.44374e+06
3.44367e+06
3.44359e+06
3.44433e+06
3.44413e+06
3.44248e+06
3.4349e+06
3.4388e+06
3.44494e+06
3.45089e+06
3.45544e+06
3.45947e+06
3.46278e+06
3.46563e+06
3.46804e+06
3.4701e+06
3.47187e+06
3.47339e+06
3.47472e+06
3.47587e+06
3.47689e+06
3.47778e+06
3.47858e+06
3.4793e+06
3.47995e+06
3.48054e+06
3.48108e+06
3.48157e+06
3.48203e+06
3.48245e+06
3.48285e+06
3.48321e+06
3.48356e+06
3.48262e+06
3.48361e+06
3.48443e+06
3.48511e+06
3.48568e+06
3.48617e+06
3.48659e+06
3.48697e+06
3.4873e+06
3.48761e+06
3.48788e+06
3.48814e+06
3.48838e+06
3.48861e+06
3.48882e+06
3.48902e+06
3.48922e+06
3.4894e+06
3.48958e+06
3.48975e+06
3.479e+06
3.48065e+06
3.48197e+06
3.48304e+06
3.48392e+06
3.48464e+06
3.48525e+06
3.48578e+06
3.48623e+06
3.48662e+06
3.48698e+06
3.4873e+06
3.48759e+06
3.48785e+06
3.48811e+06
3.48834e+06
3.48856e+06
3.48877e+06
3.48897e+06
3.48917e+06
3.48935e+06
3.48952e+06
3.46979e+06
3.46058e+06
3.46921e+06
3.46167e+06
3.46113e+06
3.45685e+06
3.45601e+06
3.45311e+06
3.44581e+06
3.43171e+06
3.45896e+06
3.4652e+06
3.46988e+06
3.47348e+06
3.47624e+06
3.47841e+06
3.48012e+06
3.4815e+06
3.4826e+06
3.48351e+06
3.48426e+06
3.4849e+06
3.48544e+06
3.4859e+06
3.48631e+06
3.48668e+06
3.48701e+06
3.48731e+06
3.48758e+06
3.48784e+06
3.48808e+06
3.48831e+06
3.48853e+06
3.48874e+06
3.48894e+06
3.48912e+06
3.4893e+06
3.47021e+06
3.4721e+06
3.4699e+06
3.47106e+06
3.46433e+06
3.46342e+06
3.46018e+06
3.45821e+06
3.4502e+06
3.43466e+06
3.43863e+06
3.45075e+06
3.45862e+06
3.46507e+06
3.46961e+06
3.47324e+06
3.47597e+06
3.47814e+06
3.47984e+06
3.48121e+06
3.48232e+06
3.48323e+06
3.48398e+06
3.48461e+06
3.48515e+06
3.48562e+06
3.48604e+06
3.4864e+06
3.48674e+06
3.48704e+06
3.48732e+06
3.48759e+06
3.48784e+06
3.48807e+06
3.48829e+06
3.48851e+06
3.48871e+06
3.4889e+06
3.48909e+06
3.47558e+06
3.48582e+06
3.47591e+06
3.48272e+06
3.47195e+06
3.47373e+06
3.46847e+06
3.46802e+06
3.45969e+06
3.44255e+06
3.44057e+06
3.45288e+06
3.45959e+06
3.46595e+06
3.47008e+06
3.47358e+06
3.47613e+06
3.47822e+06
3.47983e+06
3.48114e+06
3.4822e+06
3.48307e+06
3.48379e+06
3.48441e+06
3.48493e+06
3.48539e+06
3.4858e+06
3.48616e+06
3.48649e+06
3.4868e+06
3.48708e+06
3.48735e+06
3.4876e+06
3.48784e+06
3.48806e+06
3.48828e+06
3.48849e+06
3.48869e+06
3.48888e+06
3.48906e+06
3.48761e+06
3.50009e+06
3.48861e+06
3.49575e+06
3.48516e+06
3.48756e+06
3.48203e+06
3.48309e+06
3.47513e+06
3.45543e+06
3.44549e+06
3.45698e+06
3.46191e+06
3.46785e+06
3.47129e+06
3.47451e+06
3.47675e+06
3.47864e+06
3.48009e+06
3.48128e+06
3.48224e+06
3.48304e+06
3.48371e+06
3.48428e+06
3.48478e+06
3.48521e+06
3.4856e+06
3.48595e+06
3.48627e+06
3.48657e+06
3.48685e+06
3.48711e+06
3.48737e+06
3.48761e+06
3.48784e+06
3.48806e+06
3.48827e+06
3.48847e+06
3.48867e+06
3.48885e+06
3.50498e+06
3.51354e+06
3.50599e+06
3.50925e+06
3.50256e+06
3.50404e+06
3.49987e+06
3.50218e+06
3.49497e+06
3.47224e+06
3.45312e+06
3.46265e+06
3.4655e+06
3.47067e+06
3.47323e+06
3.47599e+06
3.4778e+06
3.47941e+06
3.48062e+06
3.48164e+06
3.48246e+06
3.48315e+06
3.48373e+06
3.48424e+06
3.48468e+06
3.48508e+06
3.48543e+06
3.48576e+06
3.48607e+06
3.48636e+06
3.48663e+06
3.4869e+06
3.48715e+06
3.48739e+06
3.48762e+06
3.48784e+06
3.48806e+06
3.48826e+06
3.48846e+06
3.48865e+06
3.48883e+06
3.52356e+06
3.52625e+06
3.52427e+06
3.52317e+06
3.52106e+06
3.52155e+06
3.51924e+06
3.52268e+06
3.5163e+06
3.49144e+06
3.46271e+06
3.46928e+06
3.4701e+06
3.47421e+06
3.47581e+06
3.47796e+06
3.47926e+06
3.4805e+06
3.48141e+06
3.4822e+06
3.48284e+06
3.48338e+06
3.48385e+06
3.48427e+06
3.48465e+06
3.48499e+06
3.48531e+06
3.48561e+06
3.48589e+06
3.48617e+06
3.48643e+06
3.48669e+06
3.48693e+06
3.48717e+06
3.48741e+06
3.48763e+06
3.48785e+06
3.48806e+06
3.48826e+06
3.48845e+06
3.48863e+06
3.53963e+06
3.53898e+06
3.53993e+06
3.53727e+06
3.53762e+06
3.53787e+06
3.53647e+06
3.5411e+06
3.5347e+06
3.5106e+06
3.47328e+06
3.47615e+06
3.47546e+06
3.47827e+06
3.47894e+06
3.48037e+06
3.4811e+06
3.48189e+06
3.48244e+06
3.48295e+06
3.48337e+06
3.48374e+06
3.48407e+06
3.48438e+06
3.48467e+06
3.48495e+06
3.48521e+06
3.48548e+06
3.48574e+06
3.48599e+06
3.48624e+06
3.48649e+06
3.48673e+06
3.48697e+06
3.4872e+06
3.48743e+06
3.48764e+06
3.48786e+06
3.48806e+06
3.48826e+06
3.48844e+06
3.55221e+06
3.55176e+06
3.55221e+06
3.55066e+06
3.55128e+06
3.55146e+06
3.54957e+06
3.55477e+06
3.54709e+06
3.52737e+06
3.48459e+06
3.48275e+06
3.48144e+06
3.4827e+06
3.48258e+06
3.48315e+06
3.48327e+06
3.48355e+06
3.4837e+06
3.48388e+06
3.48403e+06
3.4842e+06
3.48437e+06
3.48455e+06
3.48474e+06
3.48494e+06
3.48515e+06
3.48537e+06
3.4856e+06
3.48583e+06
3.48606e+06
3.4863e+06
3.48653e+06
3.48677e+06
3.487e+06
3.48722e+06
3.48744e+06
3.48766e+06
3.48787e+06
3.48806e+06
3.48825e+06
3.56342e+06
3.5646e+06
3.56335e+06
3.56348e+06
3.56339e+06
3.56292e+06
3.56049e+06
3.56421e+06
3.55669e+06
3.54201e+06
3.49864e+06
3.48938e+06
3.48833e+06
3.48754e+06
3.48673e+06
3.48628e+06
3.48577e+06
3.48545e+06
3.48515e+06
3.48496e+06
3.48482e+06
3.48475e+06
3.48474e+06
3.48477e+06
3.48485e+06
3.48497e+06
3.48511e+06
3.48528e+06
3.48547e+06
3.48568e+06
3.48589e+06
3.48611e+06
3.48634e+06
3.48657e+06
3.4868e+06
3.48703e+06
3.48725e+06
3.48746e+06
3.48767e+06
3.48787e+06
3.48807e+06
3.5761e+06
3.57757e+06
3.57605e+06
3.57643e+06
3.5762e+06
3.57457e+06
3.5729e+06
3.57335e+06
3.56934e+06
3.558e+06
3.51764e+06
3.49702e+06
3.49653e+06
3.49293e+06
3.49144e+06
3.48976e+06
3.48856e+06
3.48756e+06
3.48677e+06
3.48616e+06
3.4857e+06
3.48538e+06
3.48516e+06
3.48504e+06
3.485e+06
3.48502e+06
3.48509e+06
3.48521e+06
3.48536e+06
3.48554e+06
3.48573e+06
3.48594e+06
3.48616e+06
3.48638e+06
3.48661e+06
3.48683e+06
3.48705e+06
3.48727e+06
3.48748e+06
3.48769e+06
3.48788e+06
3.59183e+06
3.59028e+06
3.59147e+06
3.58965e+06
3.59098e+06
3.58796e+06
3.58829e+06
3.58601e+06
3.58695e+06
3.57748e+06
3.54049e+06
3.50649e+06
3.50579e+06
3.49896e+06
3.49664e+06
3.49356e+06
3.49161e+06
3.48985e+06
3.48853e+06
3.48747e+06
3.48666e+06
3.48606e+06
3.48563e+06
3.48534e+06
3.48516e+06
3.48509e+06
3.48508e+06
3.48515e+06
3.48525e+06
3.4854e+06
3.48557e+06
3.48577e+06
3.48598e+06
3.48619e+06
3.48642e+06
3.48664e+06
3.48686e+06
3.48708e+06
3.4873e+06
3.4875e+06
3.4877e+06
3.6091e+06
3.60195e+06
3.60856e+06
3.60276e+06
3.60696e+06
3.60248e+06
3.60521e+06
3.6016e+06
3.60701e+06
3.59804e+06
3.56455e+06
3.51804e+06
3.51532e+06
3.50562e+06
3.50215e+06
3.49763e+06
3.49483e+06
3.49227e+06
3.49037e+06
3.48883e+06
3.48766e+06
3.48677e+06
3.48611e+06
3.48564e+06
3.48534e+06
3.48516e+06
3.48508e+06
3.48508e+06
3.48515e+06
3.48527e+06
3.48542e+06
3.4856e+06
3.4858e+06
3.48601e+06
3.48623e+06
3.48645e+06
3.48668e+06
3.4869e+06
3.48711e+06
3.48732e+06
3.48753e+06
3.62601e+06
3.61295e+06
3.62506e+06
3.61541e+06
3.62204e+06
3.61621e+06
3.6203e+06
3.61552e+06
3.62394e+06
3.61351e+06
3.58692e+06
3.53147e+06
3.52433e+06
3.51287e+06
3.50775e+06
3.50194e+06
3.49815e+06
3.49478e+06
3.49226e+06
3.49023e+06
3.48867e+06
3.48748e+06
3.48659e+06
3.48595e+06
3.48551e+06
3.48523e+06
3.48507e+06
3.48502e+06
3.48505e+06
3.48513e+06
3.48526e+06
3.48543e+06
3.48562e+06
3.48583e+06
3.48604e+06
3.48627e+06
3.48649e+06
3.48671e+06
3.48693e+06
3.48714e+06
3.48735e+06
3.64111e+06
3.62449e+06
3.6398e+06
3.628e+06
3.63525e+06
3.62864e+06
3.63183e+06
3.62596e+06
3.63404e+06
3.6224e+06
3.60509e+06
3.54761e+06
3.5324e+06
3.52076e+06
3.51331e+06
3.50643e+06
3.50149e+06
3.49731e+06
3.49413e+06
3.49159e+06
3.48965e+06
3.48815e+06
3.48704e+06
3.48623e+06
3.48565e+06
3.48528e+06
3.48505e+06
3.48495e+06
3.48493e+06
3.48499e+06
3.48511e+06
3.48526e+06
3.48544e+06
3.48564e+06
3.48586e+06
3.48608e+06
3.48631e+06
3.48653e+06
3.48675e+06
3.48697e+06
3.48718e+06
3.65803e+06
3.63924e+06
3.65365e+06
3.64135e+06
3.64749e+06
3.64118e+06
3.64181e+06
3.63664e+06
3.64008e+06
3.63283e+06
3.62147e+06
3.56953e+06
3.54041e+06
3.52964e+06
3.5189e+06
3.51109e+06
3.50478e+06
3.49981e+06
3.49593e+06
3.49289e+06
3.49055e+06
3.48877e+06
3.48743e+06
3.48646e+06
3.48577e+06
3.4853e+06
3.48501e+06
3.48486e+06
3.48481e+06
3.48485e+06
3.48494e+06
3.48509e+06
3.48526e+06
3.48546e+06
3.48567e+06
3.4859e+06
3.48612e+06
3.48635e+06
3.48658e+06
3.4868e+06
3.48701e+06
3.66958e+06
3.65394e+06
3.66602e+06
3.6553e+06
3.65951e+06
3.65452e+06
3.65283e+06
3.6501e+06
3.64886e+06
3.64916e+06
3.64025e+06
3.59638e+06
3.54978e+06
3.53925e+06
3.52462e+06
3.51579e+06
3.50796e+06
3.50218e+06
3.49758e+06
3.49405e+06
3.49134e+06
3.48928e+06
3.48775e+06
3.48662e+06
3.48583e+06
3.48528e+06
3.48494e+06
3.48475e+06
3.48467e+06
3.48469e+06
3.48477e+06
3.48491e+06
3.48508e+06
3.48528e+06
3.48549e+06
3.48572e+06
3.48594e+06
3.48617e+06
3.4864e+06
3.48662e+06
3.48684e+06
3.6783e+06
3.66972e+06
3.67578e+06
3.6687e+06
3.67011e+06
3.667e+06
3.66405e+06
3.66408e+06
3.66085e+06
3.66781e+06
3.65754e+06
3.62305e+06
3.56138e+06
3.54823e+06
3.5304e+06
3.52017e+06
3.51091e+06
3.50428e+06
3.49899e+06
3.495e+06
3.49195e+06
3.48965e+06
3.48795e+06
3.4867e+06
3.48582e+06
3.48521e+06
3.48483e+06
3.48461e+06
3.48451e+06
3.48452e+06
3.48459e+06
3.48472e+06
3.48489e+06
3.48509e+06
3.48531e+06
3.48553e+06
3.48577e+06
3.486e+06
3.48623e+06
3.48645e+06
3.48667e+06
3.68065e+06
3.6834e+06
3.68e+06
3.67983e+06
3.67745e+06
3.67631e+06
3.67257e+06
3.67417e+06
3.67048e+06
3.6804e+06
3.66791e+06
3.64511e+06
3.57601e+06
3.55524e+06
3.53615e+06
3.52384e+06
3.51345e+06
3.50595e+06
3.50007e+06
3.49567e+06
3.49233e+06
3.48985e+06
3.48801e+06
3.48667e+06
3.48573e+06
3.48508e+06
3.48467e+06
3.48443e+06
3.48433e+06
3.48433e+06
3.4844e+06
3.48453e+06
3.4847e+06
3.4849e+06
3.48512e+06
3.48535e+06
3.48559e+06
3.48582e+06
3.48606e+06
3.48629e+06
3.48651e+06
3.67898e+06
3.69441e+06
3.67908e+06
3.68677e+06
3.68054e+06
3.68125e+06
3.67713e+06
3.67883e+06
3.67596e+06
3.68441e+06
3.67306e+06
3.66017e+06
3.5952e+06
3.55976e+06
3.54167e+06