/*--------------------------------*- C++ -*----------------------------------*\
| =========                 |                                                 |
| \\      /  F ield         | OpenFOAM: The Open Source CFD Toolbox           |
|  \\    /   O peration     | Version:  v2012                                 |
|   \\  /    A nd           | Website:  www.openfoam.com                      |
|    \\/     M anipulation  |                                                 |
\*---------------------------------------------------------------------------*/
FoamFile
{
    version     2.0;
    format      ascii;
    class       volScalarField;
    location    "0.3";
    object      p_rgh;
}
// * * * * * * * * * * * * * * * * * * * * * * * * * * * * * * * * * * * * * //

dimensions      [1 -1 -2 0 0 0 0];


internalField   nonuniform List<scalar> 
3332
(
3.48263e+06
3.48363e+06
3.48444e+06
3.48512e+06
3.48569e+06
3.48618e+06
3.4866e+06
3.48698e+06
3.48731e+06
3.48762e+06
3.4879e+06
3.48815e+06
3.48839e+06
3.48862e+06
3.48883e+06
3.48903e+06
3.48923e+06
3.48941e+06
3.48959e+06
3.48976e+06
3.47901e+06
3.48066e+06
3.48199e+06
3.48305e+06
3.48393e+06
3.48465e+06
3.48527e+06
3.48579e+06
3.48624e+06
3.48664e+06
3.48699e+06
3.48731e+06
3.4876e+06
3.48787e+06
3.48812e+06
3.48835e+06
3.48857e+06
3.48879e+06
3.48899e+06
3.48918e+06
3.48936e+06
3.48954e+06
3.46988e+06
3.46067e+06
3.4693e+06
3.46176e+06
3.46122e+06
3.45695e+06
3.4561e+06
3.4532e+06
3.44589e+06
3.43174e+06
3.45897e+06
3.46521e+06
3.46989e+06
3.47349e+06
3.47625e+06
3.47843e+06
3.48014e+06
3.48151e+06
3.48262e+06
3.48352e+06
3.48428e+06
3.48491e+06
3.48545e+06
3.48592e+06
3.48632e+06
3.48669e+06
3.48702e+06
3.48732e+06
3.4876e+06
3.48785e+06
3.4881e+06
3.48833e+06
3.48854e+06
3.48875e+06
3.48895e+06
3.48914e+06
3.48932e+06
3.4703e+06
3.4722e+06
3.47e+06
3.47116e+06
3.46442e+06
3.46352e+06
3.46027e+06
3.45831e+06
3.45028e+06
3.43469e+06
3.43864e+06
3.45076e+06
3.45863e+06
3.46508e+06
3.46962e+06
3.47325e+06
3.47598e+06
3.47816e+06
3.47986e+06
3.48123e+06
3.48233e+06
3.48324e+06
3.48399e+06
3.48463e+06
3.48517e+06
3.48564e+06
3.48605e+06
3.48642e+06
3.48675e+06
3.48705e+06
3.48734e+06
3.4876e+06
3.48785e+06
3.48808e+06
3.48831e+06
3.48852e+06
3.48872e+06
3.48892e+06
3.4891e+06
3.47568e+06
3.48592e+06
3.47601e+06
3.48282e+06
3.47205e+06
3.47383e+06
3.46857e+06
3.46812e+06
3.45978e+06
3.44258e+06
3.44059e+06
3.45289e+06
3.4596e+06
3.46596e+06
3.47009e+06
3.47359e+06
3.47615e+06
3.47823e+06
3.47984e+06
3.48115e+06
3.48221e+06
3.48308e+06
3.48381e+06
3.48442e+06
3.48495e+06
3.4854e+06
3.48581e+06
3.48617e+06
3.48651e+06
3.48681e+06
3.48709e+06
3.48736e+06
3.48761e+06
3.48785e+06
3.48808e+06
3.48829e+06
3.4885e+06
3.4887e+06
3.48889e+06
3.48907e+06
3.48771e+06
3.50019e+06
3.48871e+06
3.49585e+06
3.48526e+06
3.48766e+06
3.48213e+06
3.48319e+06
3.47521e+06
3.45547e+06
3.4455e+06
3.45699e+06
3.46192e+06
3.46787e+06
3.47131e+06
3.47452e+06
3.47676e+06
3.47865e+06
3.4801e+06
3.48129e+06
3.48226e+06
3.48306e+06
3.48372e+06
3.4843e+06
3.48479e+06
3.48522e+06
3.48561e+06
3.48596e+06
3.48628e+06
3.48658e+06
3.48686e+06
3.48713e+06
3.48738e+06
3.48762e+06
3.48785e+06
3.48807e+06
3.48828e+06
3.48849e+06
3.48868e+06
3.48887e+06
3.50508e+06
3.51365e+06
3.50609e+06
3.50936e+06
3.50266e+06
3.50414e+06
3.49997e+06
3.50228e+06
3.49506e+06
3.47229e+06
3.45314e+06
3.46267e+06
3.46551e+06
3.47069e+06
3.47325e+06
3.476e+06
3.47781e+06
3.47942e+06
3.48063e+06
3.48165e+06
3.48247e+06
3.48316e+06
3.48375e+06
3.48425e+06
3.48469e+06
3.48509e+06
3.48545e+06
3.48578e+06
3.48608e+06
3.48637e+06
3.48665e+06
3.48691e+06
3.48716e+06
3.4874e+06
3.48763e+06
3.48786e+06
3.48807e+06
3.48828e+06
3.48848e+06
3.48866e+06
3.48884e+06
3.52366e+06
3.52635e+06
3.52438e+06
3.52327e+06
3.52117e+06
3.52165e+06
3.51934e+06
3.52279e+06
3.5164e+06
3.49149e+06
3.46273e+06
3.46929e+06
3.47011e+06
3.47423e+06
3.47582e+06
3.47798e+06
3.47927e+06
3.48052e+06
3.48142e+06
3.48221e+06
3.48285e+06
3.4834e+06
3.48387e+06
3.48429e+06
3.48466e+06
3.485e+06
3.48532e+06
3.48562e+06
3.48591e+06
3.48618e+06
3.48645e+06
3.4867e+06
3.48695e+06
3.48719e+06
3.48742e+06
3.48765e+06
3.48786e+06
3.48807e+06
3.48827e+06
3.48847e+06
3.48865e+06
3.53973e+06
3.53909e+06
3.54004e+06
3.53738e+06
3.53773e+06
3.53798e+06
3.53658e+06
3.54121e+06
3.53481e+06
3.51067e+06
3.47331e+06
3.47616e+06
3.47547e+06
3.47829e+06
3.47896e+06
3.48039e+06
3.48111e+06
3.48191e+06
3.48246e+06
3.48297e+06
3.48338e+06
3.48375e+06
3.48408e+06
3.48439e+06
3.48468e+06
3.48496e+06
3.48523e+06
3.48549e+06
3.48575e+06
3.486e+06
3.48626e+06
3.4865e+06
3.48674e+06
3.48698e+06
3.48721e+06
3.48744e+06
3.48766e+06
3.48787e+06
3.48808e+06
3.48827e+06
3.48846e+06
3.55231e+06
3.55187e+06
3.55232e+06
3.55077e+06
3.55139e+06
3.55156e+06
3.54968e+06
3.55488e+06
3.54719e+06
3.52744e+06
3.48462e+06
3.48276e+06
3.48145e+06
3.48272e+06
3.48259e+06
3.48317e+06
3.48329e+06
3.48357e+06
3.48371e+06
3.48389e+06
3.48405e+06
3.48421e+06
3.48438e+06
3.48456e+06
3.48475e+06
3.48495e+06
3.48517e+06
3.48539e+06
3.48561e+06
3.48584e+06
3.48608e+06
3.48631e+06
3.48655e+06
3.48678e+06
3.48701e+06
3.48724e+06
3.48746e+06
3.48767e+06
3.48788e+06
3.48808e+06
3.48827e+06
3.56353e+06
3.56471e+06
3.56346e+06
3.56359e+06
3.5635e+06
3.56303e+06
3.5606e+06
3.56432e+06
3.5568e+06
3.54209e+06
3.49867e+06
3.4894e+06
3.48835e+06
3.48755e+06
3.48674e+06
3.4863e+06
3.48578e+06
3.48546e+06
3.48517e+06
3.48497e+06
3.48483e+06
3.48477e+06
3.48475e+06
3.48479e+06
3.48487e+06
3.48498e+06
3.48513e+06
3.4853e+06
3.48549e+06
3.48569e+06
3.48591e+06
3.48613e+06
3.48636e+06
3.48659e+06
3.48681e+06
3.48704e+06
3.48726e+06
3.48748e+06
3.48769e+06
3.48789e+06
3.48808e+06
3.57621e+06
3.57768e+06
3.57616e+06
3.57654e+06
3.57632e+06
3.57468e+06
3.57301e+06
3.57346e+06
3.56945e+06
3.55809e+06
3.51767e+06
3.49704e+06
3.49654e+06
3.49294e+06
3.49146e+06
3.48977e+06
3.48858e+06
3.48757e+06
3.48679e+06
3.48618e+06
3.48572e+06
3.48539e+06
3.48518e+06
3.48506e+06
3.48501e+06
3.48503e+06
3.48511e+06
3.48522e+06
3.48537e+06
3.48555e+06
3.48574e+06
3.48595e+06
3.48617e+06
3.4864e+06
3.48662e+06
3.48685e+06
3.48707e+06
3.48729e+06
3.4875e+06
3.4877e+06
3.4879e+06
3.59194e+06
3.59039e+06
3.59158e+06
3.58976e+06
3.5911e+06
3.58808e+06
3.5884e+06
3.58613e+06
3.58707e+06
3.57758e+06
3.54054e+06
3.50651e+06
3.5058e+06
3.49897e+06
3.49666e+06
3.49357e+06
3.49162e+06
3.48986e+06
3.48854e+06
3.48748e+06
3.48668e+06
3.48607e+06
3.48564e+06
3.48535e+06
3.48518e+06
3.4851e+06
3.4851e+06
3.48516e+06
3.48527e+06
3.48541e+06
3.48559e+06
3.48578e+06
3.48599e+06
3.48621e+06
3.48643e+06
3.48666e+06
3.48688e+06
3.4871e+06
3.48731e+06
3.48752e+06
3.48772e+06
3.60921e+06
3.60207e+06
3.60867e+06
3.60287e+06
3.60707e+06
3.6026e+06
3.60533e+06
3.60172e+06
3.60713e+06
3.59814e+06
3.5646e+06
3.51806e+06
3.51534e+06
3.50563e+06
3.50216e+06
3.49765e+06
3.49484e+06
3.49229e+06
3.49039e+06
3.48885e+06
3.48768e+06
3.48678e+06
3.48612e+06
3.48566e+06
3.48535e+06
3.48517e+06
3.4851e+06
3.4851e+06
3.48517e+06
3.48528e+06
3.48543e+06
3.48561e+06
3.48581e+06
3.48602e+06
3.48624e+06
3.48647e+06
3.48669e+06
3.48691e+06
3.48713e+06
3.48734e+06
3.48754e+06
3.62612e+06
3.61307e+06
3.62518e+06
3.61553e+06
3.62216e+06
3.61633e+06
3.62042e+06
3.61563e+06
3.62406e+06
3.61362e+06
3.58699e+06
3.53149e+06
3.52435e+06
3.51289e+06
3.50776e+06
3.50196e+06
3.49816e+06
3.49479e+06
3.49228e+06
3.49024e+06
3.48869e+06
3.48749e+06
3.4866e+06
3.48596e+06
3.48552e+06
3.48524e+06
3.48509e+06
3.48504e+06
3.48506e+06
3.48515e+06
3.48528e+06
3.48544e+06
3.48563e+06
3.48584e+06
3.48606e+06
3.48628e+06
3.48651e+06
3.48673e+06
3.48695e+06
3.48716e+06
3.48737e+06
3.64123e+06
3.62461e+06
3.63992e+06
3.62812e+06
3.63537e+06
3.62876e+06
3.63195e+06
3.62608e+06
3.63416e+06
3.62252e+06
3.60517e+06
3.54764e+06
3.53242e+06
3.52078e+06
3.51332e+06
3.50645e+06
3.5015e+06
3.49733e+06
3.49415e+06
3.49161e+06
3.48966e+06
3.48817e+06
3.48706e+06
3.48624e+06
3.48567e+06
3.48529e+06
3.48507e+06
3.48496e+06
3.48495e+06
3.48501e+06
3.48512e+06
3.48527e+06
3.48546e+06
3.48566e+06
3.48587e+06
3.4861e+06
3.48632e+06
3.48655e+06
3.48677e+06
3.48699e+06
3.48719e+06
3.65816e+06
3.63936e+06
3.65377e+06
3.64147e+06
3.64762e+06
3.6413e+06
3.64193e+06
3.63676e+06
3.6402e+06
3.63295e+06
3.62156e+06
3.56956e+06
3.54043e+06
3.52966e+06
3.51891e+06
3.51111e+06
3.5048e+06
3.49983e+06
3.49595e+06
3.49291e+06
3.49057e+06
3.48878e+06
3.48745e+06
3.48647e+06
3.48578e+06
3.48532e+06
3.48503e+06
3.48487e+06
3.48483e+06
3.48486e+06
3.48496e+06
3.4851e+06
3.48528e+06
3.48548e+06
3.48569e+06
3.48591e+06
3.48614e+06
3.48637e+06
3.48659e+06
3.48681e+06
3.48702e+06
3.66971e+06
3.65406e+06
3.66615e+06
3.65543e+06
3.65963e+06
3.65464e+06
3.65296e+06
3.65023e+06
3.64899e+06
3.64928e+06
3.64036e+06
3.59642e+06
3.5498e+06
3.53927e+06
3.52463e+06
3.5158e+06
3.50798e+06
3.5022e+06
3.4976e+06
3.49407e+06
3.49135e+06
3.4893e+06
3.48776e+06
3.48664e+06
3.48584e+06
3.4853e+06
3.48495e+06
3.48476e+06
3.48469e+06
3.48471e+06
3.48479e+06
3.48492e+06
3.4851e+06
3.48529e+06
3.48551e+06
3.48573e+06
3.48596e+06
3.48619e+06
3.48642e+06
3.48664e+06
3.48685e+06
3.67842e+06
3.66984e+06
3.67591e+06
3.66883e+06
3.67024e+06
3.66713e+06
3.66418e+06
3.6642e+06
3.66098e+06
3.66793e+06
3.65765e+06
3.62311e+06
3.5614e+06
3.54825e+06
3.53042e+06
3.52019e+06
3.51092e+06
3.5043e+06
3.49901e+06
3.49502e+06
3.49197e+06
3.48967e+06
3.48796e+06
3.48672e+06
3.48584e+06
3.48523e+06
3.48484e+06
3.48462e+06
3.48453e+06
3.48453e+06
3.48461e+06
3.48474e+06
3.48491e+06
3.48511e+06
3.48532e+06
3.48555e+06
3.48578e+06
3.48602e+06
3.48625e+06
3.48647e+06
3.48669e+06
3.68078e+06
3.68353e+06
3.68012e+06
3.67996e+06
3.67758e+06
3.67644e+06
3.6727e+06
3.6743e+06
3.67061e+06
3.68053e+06
3.66803e+06
3.64519e+06
3.57603e+06
3.55526e+06
3.53617e+06
3.52386e+06
3.51347e+06
3.50596e+06
3.50008e+06
3.49569e+06
3.49235e+06
3.48986e+06
3.48802e+06
3.48669e+06
3.48575e+06
3.4851e+06
3.48469e+06
3.48445e+06
3.48435e+06
3.48434e+06
3.48442e+06
3.48455e+06
3.48472e+06
3.48492e+06
3.48514e+06
3.48537e+06
3.4856e+06
3.48584e+06
3.48608e+06
3.4863e+06
3.48653e+06
3.67911e+06
3.69454e+06
3.67922e+06
3.6869e+06
3.68067e+06
3.68138e+06
3.67726e+06
3.67896e+06
3.67609e+06
3.68454e+06
3.67319e+06
3.66026e+06
3.59523e+06
3.55978e+06
3.54169e+06
3.5265e+06
3.51543e+06
3.50703e+06
3.50071e+06
3.49598e+06
3.49245e+06
3.48983e+06
3.48792e+06
3.48653e+06
3.48556e+06
3.4849e+06
3.48448e+06
3.48424e+06
3.48414e+06
3.48414e+06
3.48421e+06
3.48435e+06
3.48452e+06
3.48473e+06
3.48495e+06
3.48519e+06
3.48543e+06
3.48567e+06
3.48591e+06
3.48614e+06
3.48637e+06
3.67109e+06
3.69768e+06
3.67338e+06
3.68773e+06
3.67859e+06
3.68107e+06
3.6774e+06
3.67939e+06
3.67956e+06
3.68493e+06
3.6787e+06
3.67092e+06
3.61799e+06
3.56284e+06
3.54638e+06
3.52795e+06
3.51653e+06
3.50733e+06
3.50076e+06
3.49582e+06
3.4922e+06
3.48954e+06
3.48762e+06
3.48624e+06
3.48527e+06
3.48462e+06
3.48422e+06
3.48399e+06
3.4839e+06
3.48391e+06
3.48399e+06
3.48414e+06
3.48432e+06
3.48453e+06
3.48476e+06
3.485e+06
3.48525e+06
3.4855e+06
3.48574e+06
3.48598e+06
3.48621e+06
3.65759e+06
3.69107e+06
3.66186e+06
3.68017e+06
3.66896e+06
3.67272e+06
3.67074e+06
3.67519e+06
3.68077e+06
3.68547e+06
3.68495e+06
3.67852e+06
3.63828e+06
3.56655e+06
3.54848e+06
3.52809e+06
3.51633e+06
3.5067e+06
3.50008e+06
3.49513e+06
3.49157e+06
3.48897e+06
3.48711e+06
3.48578e+06
3.48487e+06
3.48427e+06
3.48389e+06
3.48369e+06
3.48363e+06
3.48366e+06
3.48376e+06
3.48392e+06
3.48411e+06
3.48433e+06
3.48457e+06
3.48482e+06
3.48507e+06
3.48532e+06
3.48557e+06
3.48582e+06
3.48605e+06
3.63602e+06
3.67073e+06
3.6416e+06
3.66085e+06
3.64859e+06
3.65258e+06
3.6537e+06
3.66346e+06
3.67632e+06
3.68324e+06
3.6875e+06
3.67886e+06
3.65122e+06
3.5723e+06
3.54603e+06
3.52667e+06
3.51431e+06
3.50498e+06
3.49856e+06
3.49386e+06
3.49051e+06
3.48809e+06
3.48638e+06
3.48518e+06
3.48436e+06
3.48383e+06
3.48351e+06
3.48336e+06
3.48333e+06
3.48338e+06
3.48351e+06
3.48369e+06
3.4839e+06
3.48413e+06
3.48438e+06
3.48464e+06
3.4849e+06
3.48515e+06
3.48541e+06
3.48566e+06
3.4859e+06
3.60895e+06
3.63881e+06
3.6132e+06
3.62958e+06
3.61644e+06
3.61895e+06
3.62447e+06
3.64153e+06
3.66175e+06
3.67154e+06
3.67978e+06
3.66745e+06
3.65218e+06
3.57731e+06
3.53783e+06
3.52289e+06
3.5101e+06
3.50201e+06
3.49609e+06
3.49197e+06
3.48901e+06
3.48691e+06
3.48544e+06
3.48442e+06
3.48374e+06
3.48331e+06
3.48307e+06
3.48298e+06
3.483e+06
3.48309e+06
3.48325e+06
3.48345e+06
3.48367e+06
3.48392e+06
3.48418e+06
3.48445e+06
3.48472e+06
3.48499e+06
3.48525e+06
3.4855e+06
3.48574e+06
3.57415e+06
3.59665e+06
3.57818e+06
3.5898e+06
3.57577e+06
3.57599e+06
3.58589e+06
3.61017e+06
3.63514e+06
3.64629e+06
3.65633e+06
3.64336e+06
3.6366e+06
3.575e+06
3.52458e+06
3.51556e+06
3.50369e+06
3.49767e+06
3.49271e+06
3.48948e+06
3.4871e+06
3.48546e+06
3.4843e+06
3.48352e+06
3.48301e+06
3.48272e+06
3.48259e+06
3.48257e+06
3.48264e+06
3.48278e+06
3.48297e+06
3.4832e+06
3.48345e+06
3.48371e+06
3.48399e+06
3.48427e+06
3.48454e+06
3.48482e+06
3.48509e+06
3.48535e+06
3.48559e+06
3.54105e+06
3.55627e+06
3.544e+06
3.55074e+06
3.53544e+06
3.5353e+06
3.5458e+06
3.57436e+06
3.59877e+06
3.60826e+06
3.61655e+06
3.6076e+06
3.60479e+06
3.55977e+06
3.5082e+06
3.50409e+06
3.49556e+06
3.49205e+06
3.48859e+06
3.48649e+06
3.48487e+06
3.48377e+06
3.483e+06
3.48251e+06
3.48221e+06
3.48207e+06
3.48205e+06
3.48213e+06
3.48227e+06
3.48246e+06
3.48269e+06
3.48294e+06
3.48322e+06
3.4835e+06
3.48379e+06
3.48408e+06
3.48437e+06
3.48465e+06
3.48493e+06
3.48519e+06
3.48545e+06
3.51582e+06
3.52588e+06
3.51765e+06
3.52184e+06
3.50638e+06
3.50823e+06
3.51528e+06
3.54058e+06
3.55808e+06
3.56293e+06
3.56711e+06
3.56445e+06
3.56463e+06
3.53318e+06
3.4912e+06
3.48976e+06
3.4866e+06
3.48557e+06
3.48404e+06
3.48318e+06
3.48242e+06
3.48193e+06
3.48159e+06
3.48141e+06
3.48135e+06
3.48138e+06
3.48149e+06
3.48166e+06
3.48187e+06
3.48212e+06
3.48239e+06
3.48268e+06
3.48298e+06
3.48328e+06
3.48359e+06
3.4839e+06
3.4842e+06
3.48449e+06
3.48477e+06
3.48504e+06
3.4853e+06
3.50284e+06
3.50859e+06
3.50383e+06
3.50621e+06
3.49496e+06
3.4958e+06
3.49976e+06
3.51331e+06
3.52001e+06
3.51923e+06
3.51956e+06
3.52216e+06
3.52608e+06
3.5036e+06
3.47601e+06
3.47547e+06
3.47794e+06
3.479e+06
3.47947e+06
3.47978e+06
3.4799e+06
3.48002e+06
3.48013e+06
3.48027e+06
3.48045e+06
3.48066e+06
3.4809e+06
3.48117e+06
3.48146e+06
3.48177e+06
3.48209e+06
3.48241e+06
3.48274e+06
3.48307e+06
3.48339e+06
3.48371e+06
3.48402e+06
3.48432e+06
3.48462e+06
3.48489e+06
3.48516e+06
3.50164e+06
3.50122e+06
3.50147e+06
3.49999e+06
3.49742e+06
3.4932e+06
3.49361e+06
3.49355e+06
3.49032e+06
3.48583e+06
3.48421e+06
3.48925e+06
3.49537e+06
3.47943e+06
3.46376e+06
3.46384e+06
3.47041e+06
3.47305e+06
3.47522e+06
3.47652e+06
3.47745e+06
3.47813e+06
3.47867e+06
3.47912e+06
3.47954e+06
3.47992e+06
3.4803e+06
3.48068e+06
3.48105e+06
3.48141e+06
3.48178e+06
3.48214e+06
3.4825e+06
3.48285e+06
3.4832e+06
3.48353e+06
3.48385e+06
3.48416e+06
3.48446e+06
3.48475e+06
3.48502e+06
3.50472e+06
3.49833e+06
3.50341e+06
3.49813e+06
3.50318e+06
3.49407e+06
3.48928e+06
3.48038e+06
3.47162e+06
3.46646e+06
3.46459e+06
3.46962e+06
3.47474e+06
3.46441e+06
3.45485e+06
3.45595e+06
3.46438e+06
3.46815e+06
3.4715e+06
3.47358e+06
3.47518e+06
3.47634e+06
3.47726e+06
3.478e+06
3.47863e+06
3.47919e+06
3.4797e+06
3.48018e+06
3.48063e+06
3.48106e+06
3.48147e+06
3.48187e+06
3.48226e+06
3.48264e+06
3.483e+06
3.48335e+06
3.48368e+06
3.48401e+06
3.48431e+06
3.48461e+06
3.48488e+06
3.50533e+06
3.49817e+06
3.5035e+06
3.49802e+06
3.50399e+06
3.49396e+06
3.48408e+06
3.47249e+06
3.46265e+06
3.45887e+06
3.45734e+06
3.46132e+06
3.46318e+06
3.45747e+06
3.44911e+06
3.45132e+06
3.45984e+06
3.46437e+06
3.46838e+06
3.47102e+06
3.47312e+06
3.47468e+06
3.47592e+06
3.47692e+06
3.47776e+06
3.47848e+06
3.47911e+06
3.47968e+06
3.48021e+06
3.4807e+06
3.48117e+06
3.48161e+06
3.48202e+06
3.48242e+06
3.4828e+06
3.48317e+06
3.48352e+06
3.48385e+06
3.48417e+06
3.48447e+06
3.48475e+06
3.49975e+06
3.49912e+06
3.49852e+06
3.49908e+06
3.49834e+06
3.49182e+06
3.47875e+06
3.46832e+06
3.45989e+06
3.45791e+06
3.45678e+06
3.45936e+06
3.45797e+06
3.45529e+06
3.44568e+06
3.44872e+06
3.45648e+06
3.46152e+06
3.4658e+06
3.46886e+06
3.47131e+06
3.47318e+06
3.47469e+06
3.47591e+06
3.47692e+06
3.47779e+06
3.47854e+06
3.4792e+06
3.4798e+06
3.48035e+06
3.48086e+06
3.48134e+06
3.48179e+06
3.48221e+06
3.48261e+06
3.48299e+06
3.48335e+06
3.4837e+06
3.48402e+06
3.48433e+06
3.48462e+06
3.49203e+06
3.5007e+06
3.49142e+06
3.50037e+06
3.49125e+06
3.48799e+06
3.47441e+06
3.46596e+06
3.45956e+06
3.45886e+06
3.45803e+06
3.45941e+06
3.45637e+06
3.45492e+06
3.44367e+06
3.44708e+06
3.45398e+06
3.45932e+06
3.46369e+06
3.46703e+06
3.46972e+06
3.47184e+06
3.47357e+06
3.47497e+06
3.47614e+06
3.47713e+06
3.47799e+06
3.47874e+06
3.47941e+06
3.48001e+06
3.48057e+06
3.48108e+06
3.48156e+06
3.482e+06
3.48242e+06
3.48282e+06
3.48319e+06
3.48354e+06
3.48388e+06
3.48419e+06
3.48449e+06
3.48604e+06
3.49943e+06
3.48564e+06
3.49909e+06
3.48609e+06
3.48298e+06
3.4709e+06
3.46375e+06
3.45902e+06
3.45879e+06
3.45795e+06
3.45875e+06
3.45578e+06
3.45435e+06
3.4422e+06
3.4457e+06
3.45201e+06
3.45756e+06
3.46194e+06
3.46548e+06
3.46835e+06
3.47066e+06
3.47255e+06
3.47411e+06
3.47541e+06
3.47651e+06
3.47746e+06
3.47829e+06
3.47903e+06
3.47968e+06
3.48028e+06
3.48083e+06
3.48133e+06
3.4818e+06
3.48224e+06
3.48265e+06
3.48303e+06
3.4834e+06
3.48374e+06
3.48406e+06
3.48436e+06
3.48286e+06
3.49261e+06
3.48207e+06
3.49296e+06
3.48184e+06
3.47685e+06
3.46737e+06
3.46089e+06
3.45735e+06
3.45709e+06
3.45635e+06
3.45703e+06
3.45488e+06
3.45307e+06
3.4409e+06
3.44435e+06
3.4504e+06
3.45608e+06
3.46047e+06
3.46416e+06
3.46715e+06
3.46962e+06
3.47164e+06
3.47333e+06
3.47474e+06
3.47594e+06
3.47697e+06
3.47787e+06
3.47866e+06
3.47937e+06
3.48e+06
3.48058e+06
3.48111e+06
3.4816e+06
3.48206e+06
3.48248e+06
3.48288e+06
3.48325e+06
3.4836e+06
3.48393e+06
3.48424e+06
3.48094e+06
3.4816e+06
3.47894e+06
3.48296e+06
3.47685e+06
3.46999e+06
3.46345e+06
3.45745e+06
3.4548e+06
3.45436e+06
3.45382e+06
3.45464e+06
3.45334e+06
3.45126e+06
3.43964e+06
3.44303e+06
3.44904e+06
3.45482e+06
3.45923e+06
3.46303e+06
3.46612e+06
3.4687e+06
3.47083e+06
3.47262e+06
3.47413e+06
3.47541e+06
3.47651e+06
3.47747e+06
3.47832e+06
3.47906e+06
3.47974e+06
3.48034e+06
3.4809e+06
3.48141e+06
3.48188e+06
3.48232e+06
3.48273e+06
3.48311e+06
3.48347e+06
3.48381e+06
3.48412e+06
3.47788e+06
3.46923e+06
3.47497e+06
3.47187e+06
3.47105e+06
3.46323e+06
3.45936e+06
3.45393e+06
3.45198e+06
3.45144e+06
3.45112e+06
3.45206e+06
3.45137e+06
3.4492e+06
3.43843e+06
3.44182e+06
3.44787e+06
3.45372e+06
3.45817e+06
3.46207e+06
3.46523e+06
3.4679e+06
3.47012e+06
3.47199e+06
3.47357e+06
3.47493e+06
3.47609e+06
3.4771e+06
3.47799e+06
3.47878e+06
3.47948e+06
3.48012e+06
3.4807e+06
3.48123e+06
3.48171e+06
3.48217e+06
3.48259e+06
3.48298e+06
3.48334e+06
3.48369e+06
3.48401e+06
3.47365e+06
3.45847e+06
3.47028e+06
3.46207e+06
3.46521e+06
3.45728e+06
3.45545e+06
3.45072e+06
3.44933e+06
3.44885e+06
3.44868e+06
3.44965e+06
3.44931e+06
3.4472e+06
3.43732e+06
3.44077e+06
3.44689e+06
3.4528e+06
3.45729e+06
3.46124e+06
3.46446e+06
3.4672e+06
3.46949e+06
3.47143e+06
3.47307e+06
3.47448e+06
3.4757e+06
3.47676e+06
3.47769e+06
3.47851e+06
3.47924e+06
3.4799e+06
3.4805e+06
3.48105e+06
3.48155e+06
3.48201e+06
3.48245e+06
3.48285e+06
3.48322e+06
3.48357e+06
3.48389e+06
3.46873e+06
3.45045e+06
3.46538e+06
3.45455e+06
3.45994e+06
3.4525e+06
3.45202e+06
3.44806e+06
3.4471e+06
3.44674e+06
3.44667e+06
3.44759e+06
3.4474e+06
3.44543e+06
3.43637e+06
3.43993e+06
3.44609e+06
3.45203e+06
3.45655e+06
3.46055e+06
3.46381e+06
3.4666e+06
3.46894e+06
3.47093e+06
3.47263e+06
3.47409e+06
3.47535e+06
3.47644e+06
3.47741e+06
3.47826e+06
3.47902e+06
3.4797e+06
3.48032e+06
3.48088e+06
3.48139e+06
3.48187e+06
3.48231e+06
3.48272e+06
3.4831e+06
3.48345e+06
3.48379e+06
3.46381e+06
3.44529e+06
3.46084e+06
3.44937e+06
3.45553e+06
3.4489e+06
3.44918e+06
3.44596e+06
3.44532e+06
3.44511e+06
3.44506e+06
3.4459e+06
3.44573e+06
3.44391e+06
3.43559e+06
3.43929e+06
3.44545e+06
3.4514e+06
3.45594e+06
3.45997e+06
3.46326e+06
3.46609e+06
3.46847e+06
3.4705e+06
3.47224e+06
3.47373e+06
3.47503e+06
3.47616e+06
3.47715e+06
3.47802e+06
3.4788e+06
3.47951e+06
3.48014e+06
3.48072e+06
3.48124e+06
3.48173e+06
3.48218e+06
3.4826e+06
3.48298e+06
3.48334e+06
3.48368e+06
3.44391e+06
3.44384e+06
3.44377e+06
3.44451e+06
3.44431e+06
3.44263e+06
3.43497e+06
3.43882e+06
3.44496e+06
3.45091e+06
3.45546e+06
3.45949e+06
3.4628e+06
3.46566e+06
3.46806e+06
3.47013e+06
3.47189e+06
3.47342e+06
3.47474e+06
3.4759e+06
3.47691e+06
3.47781e+06
3.47861e+06
3.47932e+06
3.47997e+06
3.48056e+06
3.4811e+06
3.4816e+06
3.48205e+06
3.48248e+06
3.48287e+06
3.48324e+06
3.48358e+06
3.48263e+06
3.48363e+06
3.48444e+06
3.48512e+06
3.48569e+06
3.48618e+06
3.4866e+06
3.48698e+06
3.48731e+06
3.48762e+06
3.4879e+06
3.48815e+06
3.48839e+06
3.48862e+06
3.48883e+06
3.48903e+06
3.48923e+06
3.48941e+06
3.48959e+06
3.48976e+06
3.47901e+06
3.48066e+06
3.48199e+06
3.48305e+06
3.48393e+06
3.48465e+06
3.48527e+06
3.48579e+06
3.48624e+06
3.48664e+06
3.48699e+06
3.48731e+06
3.4876e+06
3.48787e+06
3.48812e+06
3.48835e+06
3.48857e+06
3.48879e+06
3.48899e+06
3.48918e+06
3.48936e+06
3.48954e+06
3.46988e+06
3.46067e+06
3.4693e+06
3.46176e+06
3.46122e+06
3.45695e+06
3.4561e+06
3.4532e+06
3.44589e+06
3.43174e+06
3.45897e+06
3.46521e+06
3.46989e+06
3.47349e+06
3.47625e+06
3.47843e+06
3.48014e+06
3.48151e+06
3.48262e+06
3.48352e+06
3.48428e+06
3.48491e+06
3.48545e+06
3.48592e+06
3.48632e+06
3.48669e+06
3.48702e+06
3.48732e+06
3.4876e+06
3.48785e+06
3.4881e+06
3.48833e+06
3.48854e+06
3.48875e+06
3.48895e+06
3.48914e+06
3.48932e+06
3.4703e+06
3.4722e+06
3.47e+06
3.47116e+06
3.46442e+06
3.46352e+06
3.46027e+06
3.45831e+06
3.45028e+06
3.43469e+06
3.43864e+06
3.45076e+06
3.45863e+06
3.46508e+06
3.46962e+06
3.47325e+06
3.47598e+06
3.47816e+06
3.47986e+06
3.48123e+06
3.48233e+06
3.48324e+06
3.48399e+06
3.48463e+06
3.48517e+06
3.48564e+06
3.48605e+06
3.48642e+06
3.48675e+06
3.48705e+06
3.48734e+06
3.4876e+06
3.48785e+06
3.48808e+06
3.48831e+06
3.48852e+06
3.48872e+06
3.48892e+06
3.4891e+06
3.47568e+06
3.48592e+06
3.47601e+06
3.48282e+06
3.47205e+06
3.47383e+06
3.46857e+06
3.46812e+06
3.45978e+06
3.44258e+06
3.44059e+06
3.45289e+06
3.4596e+06
3.46596e+06
3.47009e+06
3.47359e+06
3.47615e+06
3.47823e+06
3.47984e+06
3.48115e+06
3.48221e+06
3.48308e+06
3.48381e+06
3.48442e+06
3.48495e+06
3.4854e+06
3.48581e+06
3.48617e+06
3.48651e+06
3.48681e+06
3.48709e+06
3.48736e+06
3.48761e+06
3.48785e+06
3.48808e+06
3.48829e+06
3.4885e+06
3.4887e+06
3.48889e+06
3.48907e+06
3.48771e+06
3.50019e+06
3.48871e+06
3.49585e+06
3.48526e+06
3.48766e+06
3.48213e+06
3.48319e+06
3.47521e+06
3.45547e+06
3.4455e+06
3.45699e+06
3.46192e+06
3.46787e+06
3.47131e+06
3.47452e+06
3.47676e+06
3.47865e+06
3.4801e+06
3.48129e+06
3.48226e+06
3.48306e+06
3.48372e+06
3.4843e+06
3.48479e+06
3.48522e+06
3.48561e+06
3.48596e+06
3.48628e+06
3.48658e+06
3.48686e+06
3.48713e+06
3.48738e+06
3.48762e+06
3.48785e+06
3.48807e+06
3.48828e+06
3.48849e+06
3.48868e+06
3.48887e+06
3.50508e+06
3.51365e+06
3.50609e+06
3.50936e+06
3.50266e+06
3.50414e+06
3.49997e+06
3.50228e+06
3.49506e+06
3.47229e+06
3.45314e+06
3.46267e+06
3.46551e+06
3.47069e+06
3.47325e+06
3.476e+06
3.47781e+06
3.47942e+06
3.48063e+06
3.48165e+06
3.48247e+06
3.48316e+06
3.48375e+06
3.48425e+06
3.48469e+06
3.48509e+06
3.48545e+06
3.48578e+06
3.48608e+06
3.48637e+06
3.48665e+06
3.48691e+06
3.48716e+06
3.4874e+06
3.48763e+06
3.48786e+06
3.48807e+06
3.48828e+06
3.48848e+06
3.48866e+06
3.48884e+06
3.52366e+06
3.52635e+06
3.52438e+06
3.52327e+06
3.52117e+06
3.52165e+06
3.51934e+06
3.52279e+06
3.5164e+06
3.49149e+06
3.46273e+06
3.46929e+06
3.47011e+06
3.47423e+06
3.47582e+06
3.47798e+06
3.47927e+06
3.48052e+06
3.48142e+06
3.48221e+06
3.48285e+06
3.4834e+06
3.48387e+06
3.48429e+06
3.48466e+06
3.485e+06
3.48532e+06
3.48562e+06
3.48591e+06
3.48618e+06
3.48645e+06
3.4867e+06
3.48695e+06
3.48719e+06
3.48742e+06
3.48765e+06
3.48786e+06
3.48807e+06
3.48827e+06
3.48847e+06
3.48865e+06
3.53973e+06
3.53909e+06
3.54004e+06
3.53738e+06
3.53773e+06
3.53798e+06
3.53658e+06
3.54121e+06
3.53481e+06
3.51067e+06
3.47331e+06
3.47616e+06
3.47547e+06
3.47829e+06
3.47896e+06
3.48039e+06
3.48111e+06
3.48191e+06
3.48246e+06
3.48297e+06
3.48338e+06
3.48375e+06
3.48408e+06
3.48439e+06
3.48468e+06
3.48496e+06
3.48523e+06
3.48549e+06
3.48575e+06
3.486e+06
3.48626e+06
3.4865e+06
3.48674e+06
3.48698e+06
3.48721e+06
3.48744e+06
3.48766e+06
3.48787e+06
3.48808e+06
3.48827e+06
3.48846e+06
3.55231e+06
3.55187e+06
3.55232e+06
3.55077e+06
3.55139e+06
3.55156e+06
3.54968e+06
3.55488e+06
3.54719e+06
3.52744e+06
3.48462e+06
3.48276e+06
3.48145e+06
3.48272e+06
3.48259e+06
3.48317e+06
3.48329e+06
3.48357e+06
3.48371e+06
3.48389e+06
3.48405e+06
3.48421e+06
3.48438e+06
3.48456e+06
3.48475e+06
3.48495e+06
3.48517e+06
3.48539e+06
3.48561e+06
3.48584e+06
3.48608e+06
3.48631e+06
3.48655e+06
3.48678e+06
3.48701e+06
3.48724e+06
3.48746e+06
3.48767e+06
3.48788e+06
3.48808e+06
3.48827e+06
3.56353e+06
3.56471e+06
3.56346e+06
3.56359e+06
3.5635e+06
3.56303e+06
3.5606e+06
3.56432e+06
3.5568e+06
3.54209e+06
3.49867e+06
3.4894e+06
3.48835e+06
3.48755e+06
3.48674e+06
3.4863e+06
3.48578e+06
3.48546e+06
3.48517e+06
3.48497e+06
3.48483e+06
3.48477e+06
3.48475e+06
3.48479e+06
3.48487e+06
3.48498e+06
3.48513e+06
3.4853e+06
3.48549e+06
3.48569e+06
3.48591e+06
3.48613e+06
3.48636e+06
3.48659e+06
3.48681e+06
3.48704e+06
3.48726e+06
3.48748e+06
3.48769e+06
3.48789e+06
3.48808e+06
3.57621e+06
3.57768e+06
3.57616e+06
3.57654e+06
3.57632e+06
3.57468e+06
3.57301e+06
3.57346e+06
3.56945e+06
3.55809e+06
3.51767e+06
3.49704e+06
3.49654e+06
3.49294e+06
3.49146e+06
3.48977e+06
3.48858e+06
3.48757e+06
3.48679e+06
3.48618e+06
3.48572e+06
3.48539e+06
3.48518e+06
3.48506e+06
3.48501e+06
3.48503e+06
3.48511e+06
3.48522e+06
3.48537e+06
3.48555e+06
3.48574e+06
3.48595e+06
3.48617e+06
3.4864e+06
3.48662e+06
3.48685e+06
3.48707e+06
3.48729e+06
3.4875e+06
3.4877e+06
3.4879e+06
3.59194e+06
3.59039e+06
3.59158e+06
3.58976e+06
3.5911e+06
3.58808e+06
3.5884e+06
3.58613e+06
3.58707e+06
3.57758e+06
3.54054e+06
3.50651e+06
3.5058e+06
3.49897e+06
3.49666e+06
3.49357e+06
3.49162e+06
3.48986e+06
3.48854e+06
3.48748e+06
3.48668e+06
3.48607e+06
3.48564e+06
3.48535e+06
3.48518e+06
3.4851e+06
3.4851e+06
3.48516e+06
3.48527e+06
3.48541e+06
3.48559e+06
3.48578e+06
3.48599e+06
3.48621e+06
3.48643e+06
3.48666e+06
3.48688e+06
3.4871e+06
3.48731e+06
3.48752e+06
3.48772e+06
3.60921e+06
3.60207e+06
3.60867e+06
3.60287e+06
3.60707e+06
3.6026e+06
3.60533e+06
3.60172e+06
3.60713e+06
3.59814e+06
3.5646e+06
3.51806e+06
3.51534e+06
3.50563e+06
3.50216e+06
3.49765e+06
3.49484e+06
3.49229e+06
3.49039e+06
3.48885e+06
3.48768e+06
3.48678e+06
3.48612e+06
3.48566e+06
3.48535e+06
3.48517e+06
3.4851e+06
3.4851e+06
3.48517e+06
3.48528e+06
3.48543e+06
3.48561e+06
3.48581e+06
3.48602e+06
3.48624e+06
3.48647e+06
3.48669e+06
3.48691e+06
3.48713e+06
3.48734e+06
3.48754e+06
3.62612e+06
3.61307e+06
3.62518e+06
3.61553e+06
3.62216e+06
3.61633e+06
3.62042e+06
3.61563e+06
3.62406e+06
3.61362e+06
3.58699e+06
3.53149e+06
3.52435e+06
3.51289e+06
3.50776e+06
3.50196e+06
3.49816e+06
3.49479e+06
3.49228e+06
3.49024e+06
3.48869e+06
3.48749e+06
3.4866e+06
3.48596e+06
3.48552e+06
3.48524e+06
3.48509e+06
3.48504e+06
3.48506e+06
3.48515e+06
3.48528e+06
3.48544e+06
3.48563e+06
3.48584e+06
3.48606e+06
3.48628e+06
3.48651e+06
3.48673e+06
3.48695e+06
3.48716e+06
3.48737e+06
3.64123e+06
3.62461e+06
3.63992e+06
3.62812e+06
3.63537e+06
3.62876e+06
3.63195e+06
3.62608e+06
3.63416e+06
3.62252e+06
3.60517e+06
3.54764e+06
3.53242e+06
3.52078e+06
3.51332e+06
3.50645e+06
3.5015e+06
3.49733e+06
3.49415e+06
3.49161e+06
3.48966e+06
3.48817e+06
3.48706e+06
3.48624e+06
3.48567e+06
3.48529e+06
3.48507e+06
3.48496e+06
3.48495e+06
3.48501e+06
3.48512e+06
3.48527e+06
3.48546e+06
3.48566e+06
3.48587e+06
3.4861e+06
3.48632e+06
3.48655e+06
3.48677e+06
3.48699e+06
3.48719e+06
3.65816e+06
3.63936e+06
3.65377e+06
3.64147e+06
3.64762e+06
3.6413e+06
3.64193e+06
3.63676e+06
3.6402e+06
3.63295e+06
3.62156e+06
3.56956e+06
3.54043e+06
3.52966e+06
3.51891e+06
3.51111e+06
3.5048e+06
3.49983e+06
3.49595e+06
3.49291e+06
3.49057e+06
3.48878e+06
3.48745e+06
3.48647e+06
3.48578e+06
3.48532e+06
3.48503e+06
3.48487e+06
3.48483e+06
3.48486e+06
3.48496e+06
3.4851e+06
3.48528e+06
3.48548e+06
3.48569e+06
3.48591e+06
3.48614e+06
3.48637e+06
3.48659e+06
3.48681e+06
3.48702e+06
3.66971e+06
3.65406e+06
3.66615e+06
3.65543e+06
3.65963e+06
3.65464e+06
3.65296e+06
3.65023e+06
3.64899e+06
3.64928e+06
3.64036e+06
3.59642e+06
3.5498e+06
3.53927e+06
3.52463e+06
3.5158e+06
3.50798e+06
3.5022e+06
3.4976e+06
3.49407e+06
3.49135e+06
3.4893e+06
3.48776e+06
3.48664e+06
3.48584e+06
3.4853e+06
3.48495e+06
3.48476e+06
3.48469e+06
3.48471e+06
3.48479e+06
3.48492e+06
3.4851e+06
3.48529e+06
3.48551e+06
3.48573e+06
3.48596e+06
3.48619e+06
3.48642e+06
3.48664e+06
3.48685e+06
3.67842e+06
3.66984e+06
3.67591e+06
3.66883e+06
3.67024e+06
3.66713e+06
3.66418e+06
3.6642e+06
3.66098e+06
3.66793e+06
3.65765e+06
3.62311e+06
3.5614e+06
3.54825e+06
3.53042e+06
3.52019e+06
3.51092e+06
3.5043e+06
3.49901e+06
3.49502e+06
3.49197e+06
3.48967e+06
3.48796e+06
3.48672e+06
3.48584e+06
3.48523e+06
3.48484e+06
3.48462e+06
3.48453e+06
3.48453e+06
3.48461e+06
3.48474e+06
3.48491e+06
3.48511e+06
3.48532e+06
3.48555e+06
3.48578e+06
3.48602e+06
3.48625e+06
3.48647e+06
3.48669e+06
3.68078e+06
3.68353e+06
3.68012e+06
3.67996e+06
3.67758e+06
3.67644e+06
3.6727e+06
3.6743e+06
3.67061e+06
3.68053e+06
3.66803e+06
3.64519e+06
3.57603e+06
3.55526e+06
3.53617e+06
3.52386e+06
3.51347e+06
3.50596e+06
3.50008e+06
3.49569e+06
3.49235e+06
3.48986e+06
3.48802e+06
3.48669e+06
3.48575e+06
3.4851e+06
3.48469e+06
3.48445e+06
3.48435e+06
3.48434e+06
3.48442e+06
3.48455e+06
3.48472e+06
3.48492e+06
3.48514e+06
3.48537e+06
3.4856e+06
3.48584e+06
3.48608e+06
3.4863e+06
3.48653e+06
3.67911e+06
3.69454e+06
3.67922e+06
3.6869e+06
3.68067e+06
3.68138e+06
3.67726e+06
3.67896e+06
3.67609e+06
3.68454e+06
3.67319e+06
3.66026e+06