/*--------------------------------*- C++ -*----------------------------------*\
| =========                 |                                                 |
| \\      /  F ield         | OpenFOAM: The Open Source CFD Toolbox           |
|  \\    /   O peration     | Version:  v2012                                 |
|   \\  /    A nd           | Website:  www.openfoam.com                      |
|    \\/     M anipulation  |                                                 |
\*---------------------------------------------------------------------------*/
FoamFile
{
    version     2.0;
    format      ascii;
    class       volVectorField;
    location    "0.2";
    object      U;
}
// * * * * * * * * * * * * * * * * * * * * * * * * * * * * * * * * * * * * * //

dimensions      [0 1 -1 0 0 0 0];


internalField   nonuniform List<vector> 
3352
(
(0.0735998 -42.3574 -0.000642252)
(-0.0310376 -42.3348 0.000270854)
(0.153985 -41.328 -0.00134384)
(0.0542027 -39.3891 -0.000473461)
(0.0873264 -40.8361 -0.000761892)
(0.224925 -40.6349 -0.00196273)
(0.324751 -33.5332 -0.00283428)
(0.358363 -22.0637 -0.00312218)
(0.308378 -18.9999 -0.00268597)
(0.276108 -18.2962 -0.00240856)
(0.25452 -17.3833 -0.002221)
(0.236427 -16.2458 -0.00206349)
(0.220537 -14.9867 -0.00192496)
(0.205359 -13.7484 -0.0017925)
(0.190573 -12.6254 -0.00166346)
(0.175949 -11.6409 -0.00153583)
(0.161452 -10.7812 -0.0014093)
(0.147007 -10.0206 -0.00128323)
(0.132609 -9.33334 -0.00115757)
(0.118259 -8.69867 -0.00103233)
(0.103995 -8.10174 -0.000907836)
(0.0898643 -7.53283 -0.000784508)
(0.0759312 -6.98608 -0.0006629)
(0.0622626 -6.45824 -0.0005436)
(0.0489292 -5.94768 -0.000427222)
(0.0360022 -5.45372 -0.000314391)
(0.0235541 -4.97616 -0.000205737)
(0.0116603 -4.51504 -0.00010192)
(0.000399821 -4.07046 -3.62834e-06)
(-0.0101414 -3.64251 8.83878e-05)
(-0.0198683 -3.23131 0.000173301)
(-0.0286752 -2.8369 0.000250184)
(-0.0364417 -2.45934 0.000317991)
(-0.0430299 -2.09869 0.000375518)
(-0.0482798 -1.75503 0.000421368)
(-0.0519975 -1.42844 0.000453852)
(-0.0539498 -1.11906 0.000470935)
(-0.0537953 -0.827088 0.000469651)
(-0.0511771 -0.552741 0.000446863)
(0.142436 -42.6293 -0.00124303)
(-0.107923 -42.4679 0.000941814)
(0.274359 -41.6492 -0.00239437)
(-0.0137448 -39.2943 0.000119413)
(0.124844 -41.1744 -0.00108926)
(0.227099 -41.0568 -0.00198173)
(0.391482 -33.8429 -0.00341657)
(0.399378 -22.1727 -0.00348094)
(0.328645 -18.9876 -0.00286319)
(0.289029 -18.312 -0.00252151)
(0.267261 -17.4045 -0.00233221)
(0.249177 -16.2641 -0.00217476)
(0.233227 -15.0001 -0.00203571)
(0.217245 -13.7564 -0.00189624)
(0.201232 -12.6288 -0.00175649)
(0.185065 -11.6405 -0.00161539)
(0.168947 -10.7777 -0.00147471)
(0.152906 -10.0146 -0.00133471)
(0.137046 -9.32536 -0.00119629)
(0.121414 -8.68914 -0.00105986)
(0.106073 -8.09105 -0.000925961)
(0.0910675 -7.52132 -0.000794998)
(0.0764442 -6.97404 -0.000667367)
(0.0622431 -6.44593 -0.000543421)
(0.0485057 -5.93532 -0.00042352)
(0.0352753 -5.4415 -0.000308043)
(0.0225999 -4.96425 -0.00019741)
(0.0105348 -4.50358 -9.21025e-05)
(-0.000856338 -4.05957 7.32469e-06)
(-0.0114997 -3.63231 0.000100226)
(-0.0213092 -3.22191 0.000185853)
(-0.0301861 -2.82839 0.00026334)
(-0.0380163 -2.45183 0.000331695)
(-0.0446683 -2.09229 0.000389768)
(-0.0499905 -1.74983 0.000436238)
(-0.0538017 -1.42456 0.000469523)
(-0.0558946 -1.11664 0.000487814)
(-0.0559717 -0.826303 0.000488519)
(-0.0538128 -0.553887 0.000469694)
(0.141144 -42.7445 -0.00123177)
(-0.139106 -42.4996 0.00121396)
(0.277708 -41.8027 -0.00242364)
(-0.0747026 -39.1665 0.000651495)
(0.153087 -41.3805 -0.00133568)
(0.194247 -41.263 -0.00169509)
(0.38646 -34.0013 -0.0033727)
(0.394777 -22.2224 -0.00343995)
(0.353485 -18.9685 -0.00307868)
(0.310732 -18.3118 -0.00271056)
(0.284646 -17.4111 -0.00248389)
(0.262625 -16.2707 -0.00229215)
(0.2441 -15.0049 -0.00213064)
(0.226441 -13.759 -0.00197652)
(0.20941 -12.6293 -0.00182789)
(0.192407 -11.6392 -0.00167949)
(0.1755 -10.7749 -0.00153193)
(0.158605 -10.0105 -0.00138448)
(0.141844 -9.32024 -0.00123819)
(0.12529 -8.6832 -0.00109371)
(0.109054 -8.08446 -0.000952)
(0.0932111 -7.51421 -0.000813723)
(0.0778303 -6.96654 -0.000679478)
(0.0629602 -6.43815 -0.000549689)
(0.0486417 -5.92735 -0.000424713)
(0.0349108 -5.43345 -0.000304865)
(0.0218054 -4.9562 -0.000190475)
(0.00936956 -4.49564 -8.19288e-05)
(-0.00234398 -4.05183 2.03145e-05)
(-0.013271 -3.62487 0.000115694)
(-0.0233341 -3.21487 0.000203536)
(-0.0324425 -2.82186 0.000283045)
(-0.0404904 -2.44591 0.000353301)
(-0.0473563 -2.08709 0.000413241)
(-0.0529026 -1.74547 0.000461667)
(-0.0569703 -1.42116 0.000497191)
(-0.0593927 -1.11434 0.000518355)
(-0.0599464 -0.825251 0.000523216)
(-0.0585634 -0.554236 0.000511164)
(0.153564 -42.9168 -0.00134017)
(-0.146273 -42.5924 0.0012765)
(0.298647 -42.0002 -0.00260643)
(-0.112286 -39.0802 0.000979532)
(0.174202 -41.6705 -0.00151993)
(0.189679 -41.5724 -0.00165525)
(0.413197 -34.2386 -0.00360606)
(0.402882 -22.3337 -0.00351043)
(0.366323 -18.9761 -0.00318974)
(0.324287 -18.3233 -0.00282859)
(0.298138 -17.4244 -0.00260157)
(0.275375 -16.2825 -0.00240341)
(0.256126 -15.0138 -0.0022356)
(0.237629 -13.7643 -0.00207418)
(0.219752 -12.6311 -0.00191815)
(0.201743 -11.6379 -0.00176098)
(0.183715 -10.771 -0.00160364)
(0.165588 -10.0045 -0.00144543)
(0.147563 -9.31268 -0.00128811)
(0.129767 -8.67452 -0.00113279)
(0.112366 -8.07504 -0.000980921)
(0.0954666 -7.50435 -0.000833419)
(0.0791509 -6.95647 -0.000691014)
(0.063467 -6.42804 -0.000554122)
(0.0484461 -5.91734 -0.000423016)
(0.03411 -5.42363 -0.000297887)
(0.0204808 -4.94668 -0.000178925)
(0.00758745 -4.48648 -6.63852e-05)
(-0.00453079 -4.04311 3.93906e-05)
(-0.0158211 -3.61666 0.000137942)
(-0.026216 -3.20724 0.000228681)
(-0.0356339 -2.81488 0.000310891)
(-0.0439784 -2.43966 0.000383736)
(-0.0511395 -2.08163 0.000446255)
(-0.0569965 -1.74089 0.000497393)
(-0.061416 -1.41754 0.000535988)
(-0.0642744 -1.11173 0.000560958)
(-0.0654247 -0.82371 0.000571025)
(-0.0649108 -0.553759 0.000566561)
(0.14685 -43.0633 -0.00128157)
(-0.137306 -42.6608 0.00119824)
(0.27638 -42.0986 -0.00241217)
(-0.146002 -38.9867 0.00127388)
(0.174569 -41.933 -0.00152309)
(0.187234 -41.8641 -0.0016339)
(0.420237 -34.4418 -0.00366748)
(0.40783 -22.4253 -0.00355381)
(0.377644 -18.9742 -0.00328802)
(0.334444 -18.3307 -0.00291712)
(0.307852 -17.4348 -0.00268631)
(0.284361 -16.2917 -0.00248183)
(0.264642 -15.0206 -0.00230993)
(0.245685 -13.7682 -0.00214449)
(0.227438 -12.6321 -0.00198524)
(0.208965 -11.6362 -0.00182402)
(0.19036 -10.7669 -0.00166164)
(0.171494 -9.99851 -0.00149699)
(0.152604 -9.30515 -0.00133212)
(0.133856 -8.66591 -0.00116849)
(0.115473 -8.06569 -0.00100804)
(0.0976042 -7.49454 -0.000852087)
(0.0803686 -6.94641 -0.000701652)
(0.0638335 -6.41789 -0.00055733)
(0.048039 -5.90724 -0.00041947)
(0.0330067 -5.41368 -0.000288262)
(0.0187531 -4.93695 -0.00016385)
(0.00529899 -4.47707 -4.64158e-05)
(-0.0073255 -4.0341 6.37789e-05)
(-0.0190768 -3.60814 0.000166353)
(-0.0298961 -3.19927 0.000260797)
(-0.0397108 -2.80755 0.000346471)
(-0.0484345 -2.43304 0.000422625)
(-0.0559696 -2.0758 0.000488408)
(-0.0622129 -1.73592 0.000542917)
(-0.067057 -1.41348 0.000585216)
(-0.0704175 -1.10865 0.000614567)
(-0.072212 -0.821589 0.000630254)
(-0.0725502 -0.552534 0.000633225)
(0.130914 -43.2182 -0.00114249)
(-0.106308 -42.7498 0.000927707)
(0.236567 -42.1534 -0.00206479)
(-0.152373 -38.9385 0.00132959)
(0.164328 -42.2163 -0.00143367)
(0.210187 -42.1962 -0.0018342)
(0.4242 -34.6506 -0.00370209)
(0.412376 -22.5361 -0.0035937)
(0.382412 -18.9829 -0.00332902)
(0.339814 -18.3433 -0.00296384)
(0.313735 -17.4488 -0.0027376)
(0.290552 -16.3037 -0.00253585)
(0.271064 -15.0298 -0.00236598)
(0.252134 -13.7738 -0.00220079)
(0.233762 -12.6342 -0.00204044)
(0.214965 -11.6349 -0.00187639)
(0.195869 -10.7627 -0.00170973)
(0.176349 -9.99191 -0.00153937)
(0.156687 -9.29676 -0.00136777)
(0.137087 -8.65626 -0.0011967)
(0.117815 -8.05524 -0.0010285)
(0.0990582 -7.48364 -0.000864787)
(0.0809618 -6.93533 -0.00070684)
(0.0636105 -6.40681 -0.000555393)
(0.0470531 -5.89629 -0.000410875)
(0.0313138 -5.40296 -0.000273495)
(0.0164072 -4.92656 -0.000143384)
(0.00235035 -4.46707 -2.06879e-05)
(-0.010832 -4.02455 9.43762e-05)
(-0.0231017 -3.59911 0.000201476)
(-0.034406 -3.19083 0.000300153)
(-0.0446788 -2.79978 0.000389826)
(-0.053842 -2.426 0.000469816)
(-0.061809 -2.06955 0.000539368)
(-0.068492 -1.73051 0.000597715)
(-0.0738063 -1.40897 0.000644118)
(-0.0776985 -1.10504 0.000678108)
(-0.0801334 -0.818871 0.000699382)
(-0.0812478 -0.550604 0.000709127)
(0.105774 -43.3676 -0.000923071)
(-0.0627767 -42.829 0.000547805)
(0.174259 -42.1301 -0.00152109)
(-0.146773 -38.916 0.00128083)
(0.138971 -42.5048 -0.00121232)
(0.252575 -42.547 -0.00220409)
(0.415531 -34.8321 -0.0036265)
(0.418226 -22.6439 -0.00364517)
(0.385515 -18.9875 -0.00335579)
(0.342879 -18.3546 -0.00299055)
(0.316835 -17.4624 -0.00276465)
(0.293799 -16.3157 -0.00256419)
(0.274476 -15.0389 -0.00239576)
(0.255647 -13.7793 -0.00223145)
(0.237294 -12.6362 -0.00207127)
(0.218404 -11.6335 -0.00190641)
(0.199098 -10.7583 -0.00173792)
(0.179236 -9.9851 -0.00156457)
(0.159107 -9.28806 -0.0013889)
(0.138931 -8.64621 -0.0012128)
(0.119003 -8.0443 -0.00103887)
(0.0995387 -7.4722 -0.000868989)
(0.0807118 -6.92366 -0.000704665)
(0.0626291 -6.39512 -0.000546835)
(0.0453556 -5.88473 -0.000396067)
(0.0289257 -5.39164 -0.00025266)
(0.0133598 -4.91557 -0.000116793)
(-0.00132301 -4.45648 1.1366e-05)
(-0.0150975 -4.01444 0.000131599)
(-0.027927 -3.58955 0.000243585)
(-0.0397612 -3.18188 0.000346886)
(-0.0505378 -2.7915 0.000440957)
(-0.0601845 -2.41846 0.000525168)
(-0.0686234 -2.06282 0.000598838)
(-0.0757789 -1.72462 0.000661309)
(-0.0815845 -1.40395 0.000711999)
(-0.086008 -1.1009 0.000750626)
(-0.0890443 -0.815565 0.000777146)
(-0.0908302 -0.54803 0.000792754)
(0.0759259 -43.5185 -0.00066256)
(-0.0118406 -42.909 0.000103285)
(0.107991 -42.0512 -0.000942829)
(-0.129206 -38.9313 0.00112763)
(0.110616 -42.8248 -0.000964785)
(0.314049 -42.9204 -0.00274058)
(0.394927 -34.9854 -0.00344689)
(0.422128 -22.761 -0.00367962)
(0.384762 -18.9945 -0.0033489)
(0.343007 -18.3676 -0.00299164)
(0.317166 -17.4773 -0.00276754)
(0.294484 -16.3288 -0.00257017)
(0.275398 -15.049 -0.00240382)
(0.256762 -13.7857 -0.00224118)
(0.238478 -12.6387 -0.00208161)
(0.219576 -11.6324 -0.00191664)
(0.20017 -10.754 -0.00174727)
(0.180117 -9.97811 -0.00157226)
(0.159704 -9.27899 -0.00139411)
(0.139151 -8.63565 -0.00121473)
(0.118764 -8.03277 -0.00103679)
(0.0987715 -7.4601 -0.0008623)
(0.0793652 -6.91129 -0.000692919)
(0.0606688 -6.38272 -0.000529734)
(0.0427633 -5.87247 -0.000373449)
(0.0256957 -5.37964 -0.000224476)
(0.00949697 -4.90391 -8.30864e-05)
(-0.00580602 -4.44525 5.04862e-05)
(-0.0201825 -4.00371 0.000175973)
(-0.033592 -3.57938 0.000293022)
(-0.0459823 -3.17235 0.000401178)
(-0.0572913 -2.78267 0.000499895)
(-0.0674491 -2.41039 0.000588567)
(-0.0763829 -2.05555 0.000666557)
(-0.0840258 -1.71821 0.000733281)
(-0.090323 -1.39841 0.000788262)
(-0.0952553 -1.09621 0.00083133)
(-0.0988328 -0.811692 0.000862574)
(-0.101177 -0.544878 0.000883052)
(0.0469557 -43.667 -0.000409719)
(0.0353006 -42.9817 -0.000308107)
(0.0497628 -41.919 -0.000434714)
(-0.115029 -38.9673 0.00100401)
(0.0854892 -43.1895 -0.000745419)
(0.379883 -43.2953 -0.00331516)
(0.358941 -35.0962 -0.00313301)
(0.422503 -22.8867 -0.00368327)
(0.381859 -19.0004 -0.00332341)
(0.340909 -18.3799 -0.00297335)
(0.315 -17.492 -0.00274867)
(0.292503 -16.3418 -0.00255289)
(0.273519 -15.059 -0.00238742)
(0.255055 -13.7919 -0.00222629)
(0.236881 -12.6411 -0.00206767)
(0.218085 -11.6312 -0.00190364)
(0.198749 -10.7496 -0.00173488)
(0.178719 -9.97095 -0.00156007)
(0.158256 -9.2697 -0.00138148)
(0.137564 -8.62478 -0.00120088)
(0.11694 -8.02082 -0.00102088)
(0.0966162 -7.4475 -0.000843493)
(0.0767952 -6.89837 -0.000670494)
(0.0576155 -6.36972 -0.000503091)
(0.0391745 -5.85956 -0.000342132)
(0.0215357 -5.36697 -0.000188174)
(0.00474462 -4.89158 -4.1615e-05)
(-0.0111586 -4.43335 9.71968e-05)
(-0.0261326 -3.99232 0.000227899)
(-0.0401283 -3.56858 0.000350064)
(-0.0530871 -3.1622 0.000463182)
(-0.0649432 -2.77324 0.000566674)
(-0.0756254 -2.40174 0.000659923)
(-0.0850625 -2.04772 0.000742306)
(-0.0931917 -1.71124 0.000813275)
(-0.099965 -1.39231 0.000872411)
(-0.105368 -1.09098 0.00091959)
(-0.109416 -0.807281 0.000954938)
(-0.112206 -0.541208 0.000979313)
(0.0233412 -43.8145 -0.000203619)
(0.0718355 -43.0546 -0.000626934)
(0.0110361 -41.7519 -9.67909e-05)
(-0.113546 -39.0122 0.000991157)
(0.0718694 -43.6149 -0.000626479)
(0.431831 -43.6484 -0.00376861)
(0.307396 -35.1633 -0.00268318)
(0.415771 -23.0318 -0.0036248)
(0.375865 -19.0088 -0.00327098)
(0.336019 -18.3922 -0.0029307)
(0.310077 -17.5065 -0.00270576)
(0.28777 -16.3546 -0.00251159)
(0.268884 -15.0689 -0.00234698)
(0.250648 -13.7981 -0.00218783)
(0.232659 -12.6435 -0.00203083)
(0.214086 -11.63 -0.00186874)
(0.194961 -10.7451 -0.00170182)
(0.175126 -9.96369 -0.00152871)
(0.154801 -9.26022 -0.00135132)
(0.134164 -8.61363 -0.00117121)
(0.113495 -8.00852 -0.000990814)
(0.0930174 -7.43445 -0.000812086)
(0.0729358 -6.88492 -0.000636813)
(0.0533996 -6.35612 -0.000466299)
(0.0345215 -5.84601 -0.000301527)
(0.0163829 -5.35362 -0.000143207)
(-0.000952332 -4.87856 8.10137e-06)
(-0.0174271 -4.42076 0.000151901)
(-0.0329843 -3.98024 0.000287693)
(-0.0475619 -3.5571 0.000414938)
(-0.0610907 -3.15139 0.000533031)
(-0.0734972 -2.76317 0.000641327)
(-0.0847052 -2.39247 0.000739165)
(-0.0946415 -2.0393 0.000825906)
(-0.103243 -1.7037 0.000901001)
(-0.110465 -1.38567 0.000964049)
(-0.116291 -1.08522 0.00101492)
(-0.120734 -0.802364 0.00105371)
(-0.123865 -0.537073 0.00108107)
(0.00775687 -43.9591 -6.76072e-05)
(0.0938923 -43.129 -0.000819414)
(-0.00817454 -41.5544 7.08243e-05)
(-0.131367 -39.0501 0.00114674)
(0.0676784 -44.0974 -0.00058985)
(0.448596 -43.9503 -0.00391502)
(0.2421 -35.1917 -0.00211323)
(0.401139 -23.2053 -0.00349731)
(0.367402 -19.0206 -0.00319716)
(0.328404 -18.4036 -0.0028643)
(0.302342 -17.52 -0.00263833)
(0.280131 -16.3667 -0.00244495)
(0.261337 -15.0783 -0.00228111)
(0.243408 -13.8039 -0.00212464)
(0.22573 -12.6455 -0.00197036)
(0.207549 -11.6285 -0.00181168)
(0.188822 -10.7405 -0.00164824)
(0.169382 -9.95632 -0.00147857)
(0.149394 -9.25061 -0.00130413)
(0.129008 -8.6023 -0.0011262)
(0.108472 -7.99593 -0.000946977)
(0.0880006 -7.42103 -0.000768301)
(0.067795 -6.871 -0.000591947)
(0.0480142 -6.34197 -0.000419299)
(0.0287865 -5.83185 -0.000251476)
(0.0102129 -5.33961 -8.93607e-05)
(-0.00762147 -4.86484 6.63035e-05)
(-0.0246384 -4.40745 0.000214835)
(-0.0407614 -3.96745 0.000355565)
(-0.0559113 -3.5449 0.000487805)
(-0.0700046 -3.13989 0.000610825)
(-0.0829564 -2.75243 0.00072388)
(-0.0946823 -2.38256 0.00082624)
(-0.105104 -2.03028 0.000917216)
(-0.114155 -1.69558 0.000996232)
(-0.121787 -1.37848 0.00106287)
(-0.127982 -1.07895 0.00111695)
(-0.132743 -0.79697 0.00115853)
(-0.13612 -0.532515 0.00118803)
(-7.24943e-05 -44.1008 7.20793e-07)
(0.102752 -43.2074 -0.000896717)
(-0.0119078 -41.327 0.000103387)
(-0.168248 -39.068 0.00146864)
(0.0639093 -44.6135 -0.00055694)
(0.416873 -44.1807 -0.00363823)
(0.170525 -35.2007 -0.00148841)
(0.380063 -23.4168 -0.00331357)
(0.356478 -19.0379 -0.00310209)
(0.317842 -18.414 -0.00277221)
(0.291647 -17.5322 -0.00254509)
(0.269511 -16.3777 -0.00235228)
(0.250901 -15.0869 -0.00219003)
(0.233439 -13.8092 -0.00203764)
(0.216267 -12.6473 -0.00188777)
(0.198681 -11.6269 -0.00173428)
(0.180554 -10.7358 -0.00157608)
(0.1617 -9.94891 -0.00141153)
(0.142229 -9.24093 -0.00124159)
(0.122256 -8.59082 -0.00106727)
(0.102 -7.98311 -0.000890488)
(0.0816609 -7.40727 -0.000712968)
(0.0614379 -6.85664 -0.000536464)
(0.0414987 -6.32729 -0.000362435)
(0.0219885 -5.81707 -0.000192146)
(0.00302966 -5.32493 -2.66704e-05)
(-0.0152686 -4.85041 0.000133042)
(-0.032804 -4.3934 0.000286098)
(-0.0494772 -3.9539 0.00043163)
(-0.0651885 -3.53198 0.00056877)
(-0.0798369 -3.12767 0.000696634)
(-0.0933233 -2.74101 0.000814356)
(-0.105552 -2.37199 0.000921107)
(-0.116437 -2.02063 0.00101613)
(-0.125907 -1.68688 0.00109879)
(-0.133907 -1.37074 0.00116864)
(-0.140411 -1.07217 0.00122543)
(-0.145416 -0.79113 0.00126913)
(-0.148948 -0.527575 0.00129999)
(-0.00183386 -44.2389 1.60861e-05)
(0.101899 -43.2882 -0.00088926)
(-0.00816281 -41.0615 7.07095e-05)
(-0.22197 -39.0506 0.0019375)
(0.0475717 -45.1225 -0.000414378)
(0.336671 -44.3373 -0.00293828)
(0.105074 -35.2188 -0.000917009)
(0.356638 -23.6687 -0.00310941)
(0.343892 -19.0594 -0.0029929)
(0.304515 -18.4224 -0.00265609)
(0.278076 -17.5424 -0.00242679)
(0.255961 -16.3871 -0.00223405)
(0.237659 -15.0946 -0.00207447)
(0.220872 -13.8139 -0.00192796)
(0.204452 -12.6488 -0.00178464)
(0.187704 -11.6252 -0.00163847)
(0.170401 -10.731 -0.00148745)
(0.15233 -9.94149 -0.00132974)
(0.133542 -9.23121 -0.00116577)
(0.114121 -8.57924 -0.000996272)
(0.0942592 -7.97009 -0.00082292)
(0.0741432 -7.39318 -0.000647353)
(0.0539741 -6.84184 -0.00047132)
(0.0339309 -6.31206 -0.000296385)
(0.0141779 -5.80166 -0.000123979)
(-0.00513804 -5.30954 4.46127e-05)
(-0.0238811 -4.83523 0.000208207)
(-0.041922 -4.37858 0.000365674)
(-0.0591359 -3.93959 0.000515925)
(-0.0753999 -3.51828 0.000657888)
(-0.0905931 -3.11471 0.000790509)
(-0.1046 -2.72887 0.000912775)
(-0.117313 -2.36076 0.00102375)
(-0.128634 -2.01034 0.00112258)
(-0.138484 -1.6776 0.00120857)
(-0.146804 -1.36247 0.0012812)
(-0.153558 -1.06491 0.00134017)
(-0.158732 -0.784871 0.00138536)
(-0.162337 -0.522285 0.00141685)
(-0.0006629 -44.3732 5.8608e-06)
(0.0965969 -43.3691 -0.000842994)
(-0.00399326 -40.7456 3.43433e-05)
(-0.289068 -38.9808 0.00252306)
(0.0121916 -45.5844 -0.000105647)
(0.224189 -44.4414 -0.00195654)
(0.0606653 -35.2767 -0.000529216)
(0.334378 -23.9543 -0.00291555)
(0.330426 -19.0815 -0.00287659)
(0.288687 -18.4278 -0.00251826)
(0.261854 -17.5501 -0.00228538)
(0.239722 -16.3948 -0.00209236)
(0.221903 -15.1013 -0.00193695)
(0.206041 -13.8181 -0.00179852)
(0.190652 -12.65 -0.00166419)
(0.174998 -11.6234 -0.00152757)
(0.158738 -10.7264 -0.00138565)
(0.141625 -9.93413 -0.0012363)
(0.123653 -9.22151 -0.00107945)
(0.104882 -8.56758 -0.000915629)
(0.0854814 -7.95686 -0.000746305)
(0.0656341 -7.37877 -0.000573084)
(0.045547 -6.82658 -0.000397769)
(0.0254155 -6.29626 -0.000222063)
(0.00542671 -5.78559 -4.7602e-05)
(-0.0142447 -5.29343 0.000124091)
(-0.0334337 -4.81928 0.000291576)
(-0.0519814 -4.36297 0.000453466)
(-0.0697356 -3.92447 0.000608433)
(-0.0865483 -3.5038 0.000755186)
(-0.102278 -3.10098 0.000892485)
(-0.11679 -2.716 0.00101916)
(-0.129963 -2.34883 0.00113415)
(-0.141689 -1.99943 0.00123651)
(-0.151879 -1.66773 0.00132547)
(-0.160466 -1.35368 0.00140044)
(-0.167407 -1.0572 0.00146105)
(-0.17268 -0.778218 0.00150709)
(-0.17628 -0.516674 0.00153855)
(0.000792017 -44.5033 -6.84491e-06)
(0.0911519 -43.4458 -0.000795475)
(-0.00477949 -40.3632 4.12281e-05)
(-0.366798 -38.8438 0.00320143)
(-0.0337651 -45.9788 0.000295396)
(0.106253 -44.531 -0.000927117)
(0.0494929 -35.3935 -0.000431496)
(0.313236 -24.2562 -0.00273155)
(0.316937 -19.099 -0.00276078)
(0.270876 -18.4289 -0.00236325)
(0.243445 -17.5546 -0.00212491)
(0.22125 -16.4005 -0.00193119)
(0.204097 -15.1069 -0.00178155)
(0.189421 -13.8219 -0.00165345)
(0.175345 -12.6512 -0.00153059)
(0.16103 -11.6217 -0.00140565)
(0.146008 -10.7218 -0.00127454)
(0.129992 -9.92688 -0.00113476)
(0.112926 -9.21184 -0.000985814)
(0.0948516 -8.55582 -0.000828075)
(0.0759278 -7.9434 -0.000662918)
(0.0563435 -7.36399 -0.000491994)
(0.036319 -6.81082 -0.000317227)
(0.0160723 -6.27985 -0.000140518)
(-0.00418119 -5.7688 3.62524e-05)
(-0.0242358 -5.27653 0.000211289)
(-0.0438943 -4.80249 0.000382871)
(-0.0629668 -4.3465 0.000549341)
(-0.0812718 -3.9085 0.000709114)
(-0.0986357 -3.48849 0.000860679)
(-0.114894 -3.08646 0.0010026)
(-0.129896 -2.70239 0.00113355)
(-0.143505 -2.33621 0.00125234)
(-0.1556 -1.98788 0.00135793)
(-0.166086 -1.65729 0.00144947)
(-0.174886 -1.34438 0.0015263)
(-0.181952 -1.04904 0.001588)
(-0.187252 -0.771196 0.00163428)
(-0.190774 -0.51077 0.00166505)
(0.000250087 -44.6287 -2.12297e-06)
(0.0890769 -43.5157 -0.000777368)
(-0.0120713 -39.8993 0.00010488)
(-0.448297 -38.6423 0.00391274)
(-0.0621112 -46.3177 0.000542771)
(0.0124938 -44.6441 -0.000108692)
(0.0774423 -35.5676 -0.000675294)
(0.289852 -24.5498 -0.00252803)
(0.303904 -19.1092 -0.00264965)
(0.251771 -18.4244 -0.00219703)
(0.223531 -17.5556 -0.00195135)
(0.201252 -16.404 -0.00175671)
(0.18494 -15.1116 -0.00161434)
(0.171691 -13.8254 -0.0014987)
(0.159178 -12.6524 -0.00138947)
(0.146399 -11.6203 -0.00127794)
(0.132753 -10.7175 -0.00115884)
(0.117907 -9.91978 -0.00102928)
(0.101769 -9.20218 -0.000888434)
(0.0843732 -8.54394 -0.000736614)
(0.0658794 -7.92965 -0.000575211)
(0.0464936 -7.34875 -0.000406023)
(0.0264597 -6.79447 -0.000231175)
(0.00602574 -6.26273 -5.28341e-05)
(-0.0145596 -5.75123 0.000126832)
(-0.0350558 -5.25878 0.000305721)
(-0.0552312 -4.78482 0.000481814)
(-0.0748632 -4.32914 0.000653166)
(-0.0937409 -3.89165 0.000817939)
(-0.111665 -3.47232 0.000974393)
(-0.12845 -3.07112 0.0011209)
(-0.143926 -2.68801 0.00125599)
(-0.157942 -2.32289 0.00137835)
(-0.17037 -1.97569 0.00148684)
(-0.181103 -1.64629 0.00158054)
(-0.190061 -1.33458 0.00165874)
(-0.197187 -1.04046 0.00172096)
(-0.202445 -0.763827 0.00176688)
(-0.205816 -0.504596 0.00179635)
(-0.00369559 -44.7486 3.23053e-05)
(0.0925016 -43.578 -0.000807256)
(-0.0246503 -39.3484 0.000214674)
(-0.515008 -38.4149 0.00449508)
(-0.0319939 -46.6411 0.000279933)
(-0.0305843 -44.7989 0.000267336)
(0.142482 -35.7729 -0.00124294)
(0.262658 -24.8082 -0.00229125)
(0.291664 -19.1129 -0.00254597)
(0.232368 -18.4133 -0.00202824)
(0.203072 -17.5526 -0.00177306)
(0.180694 -16.4053 -0.00157733)
(0.16534 -15.1154 -0.00144327)
(0.153697 -13.8288 -0.00134164)
(0.142915 -12.654 -0.00124752)
(0.131785 -11.6191 -0.00115038)
(0.119566 -10.7135 -0.00104373)
(0.105882 -9.91283 -0.000924307)
(0.090611 -9.1925 -0.000791039)
(0.0737971 -8.53184 -0.000644301)
(0.0556156 -7.9155 -0.000485627)
(0.0363014 -7.33295 -0.000317065)
(0.0161315 -6.77741 -0.000141033)
(-0.00460809 -6.24479 3.99744e-05)
(-0.0256303 -5.73275 0.000223452)
(-0.0466563 -5.24008 0.000406965)
(-0.0674184 -4.76618 0.000588177)
(-0.087661 -4.31081 0.000764859)
(-0.107144 -3.87385 0.000934915)
(-0.125644 -3.45524 0.00109639)
(-0.142953 -3.05494 0.00124748)
(-0.158887 -2.67284 0.00138657)
(-0.173283 -2.30886 0.00151224)
(-0.186002 -1.96286 0.00162327)
(-0.196933 -1.63472 0.0017187)
(-0.205988 -1.3243 0.00179776)
(-0.213109 -1.03148 0.00185994)
(-0.218256 -0.756136 0.00190489)
(-0.221406 -0.498178 0.00193242)
(-0.0119072 -44.8623 0.000103966)
(0.103728 -43.6383 -0.000905224)
(-0.0408271 -38.7296 0.000355876)
(-0.532078 -38.2515 0.00464426)
(0.0920418 -47.0002 -0.000802585)
(-0.00175714 -44.9834 1.56223e-05)
(0.233567 -35.9642 -0.00203805)
(0.236855 -25.0082 -0.00206663)
(0.280724 -19.1118 -0.00245387)
(0.213981 -18.3954 -0.00186835)
(0.183305 -17.5456 -0.00160083)
(0.160789 -16.4043 -0.00140367)
(0.146405 -15.1185 -0.001278)
(0.136439 -13.8324 -0.00119099)
(0.12743 -12.6559 -0.00111235)
(0.117943 -11.6184 -0.00102955)
(0.107083 -10.7097 -0.000934771)
(0.0944403 -9.90596 -0.000824438)
(0.0798783 -9.18268 -0.000697358)
(0.0634627 -8.51937 -0.0005541)
(0.0453993 -7.9008 -0.000396458)
(0.0259638 -7.31643 -0.00022684)
(0.00547647 -6.7595 -4.80392e-05)
(-0.0157323 -6.22589 0.000137061)
(-0.0373322 -5.71325 0.000325579)
(-0.0590038 -5.22032 0.000514727)
(-0.0804426 -4.74648 0.000701846)
(-0.101361 -4.29144 0.000884423)
(-0.12149 -3.85505 0.00106012)
(-0.140584 -3.43722 0.00122679)
(-0.158418 -3.03788 0.00138246)
(-0.174794 -2.65688 0.0015254)
(-0.189538 -2.2941 0.00165411)
(-0.202505 -1.94939 0.00176731)
(-0.213579 -1.6226 0.00186398)
(-0.222671 -1.31356 0.00194337)
(-0.229719 -1.02211 0.00200492)
(-0.234685 -0.748143 0.00204828)
(-0.237544 -0.491537 0.00207328)
(-0.02579 -44.9697 0.000225123)
(0.125993 -43.7081 -0.00109952)
(-0.063934 -38.0966 0.000557584)
(-0.462594 -38.2872 0.0040381)
(0.315051 -47.4301 -0.00274894)
(0.111316 -45.1619 -0.000971615)
(0.327225 -36.0863 -0.0028557)
(0.221175 -25.138 -0.00193033)
(0.271831 -19.1055 -0.00237957)
(0.198162 -18.3703 -0.00173091)
(0.165648 -17.5343 -0.00144702)
(0.142899 -16.4012 -0.00124761)
(0.129351 -15.1211 -0.00112915)
(0.120987 -13.8362 -0.00105611)
(0.113633 -12.6582 -0.000991917)
(0.105633 -11.6181 -0.000922098)
(0.0959262 -10.7061 -0.000837385)
(0.0840833 -9.89903 -0.000734036)
(0.0699632 -9.17254 -0.000610815)
(0.0536705 -8.50635 -0.000468632)
(0.0354532 -7.88532 -0.00030965)
(0.0156397 -7.29897 -0.000136736)
(-0.00539856 -6.74052 4.68724e-05)
(-0.0272808 -6.20585 0.00023785)
(-0.0496306 -5.69257 0.000432912)
(-0.0720867 -5.19937 0.000628906)
(-0.0943083 -4.7256 0.000822857)
(-0.115977 -4.27094 0.00101198)
(-0.136799 -3.83519 0.00119373)
(-0.156509 -3.41822 0.00136577)
(-0.174867 -3.01991 0.00152602)
(-0.191664 -2.6401 0.00167264)
(-0.20672 -2.27863 0.00180407)
(-0.219887 -1.9353 0.00191902)
(-0.231047 -1.60994 0.00201645)
(-0.240111 -1.30236 0.00209559)
(-0.247018 -1.01239 0.0021559)
(-0.25173 -0.739872 0.00219706)
(-0.254229 -0.484697 0.00221891)
(-0.0470477 -45.0709 0.000410646)
(0.162541 -43.7982 -0.00141847)
(-0.103343 -37.5215 0.000901599)
(-0.299428 -38.6648 0.00261431)
(0.588377 -47.935 -0.0051345)
(0.294615 -45.2849 -0.00257194)
(0.389398 -36.0876 -0.00339866)
(0.217908 -25.2041 -0.00190222)
(0.265619 -19.0915 -0.00232826)
(0.186485 -18.3375 -0.00162962)
(0.151532 -17.519 -0.00132412)
(0.128403 -16.3961 -0.00112116)
(0.115397 -15.1232 -0.00100735)
(0.108396 -13.8402 -0.000946208)
(0.1024 -12.661 -0.000893868)
(0.095571 -11.6181 -0.000834263)
(0.0866611 -10.7026 -0.000756512)
(0.075248 -9.89182 -0.000656917)
(0.0611936 -9.16183 -0.000534273)
(0.0446574 -8.49251 -0.000389968)
(0.0259405 -7.86882 -0.000226629)
(0.00543355 -7.28033 -4.76629e-05)
(-0.0164347 -6.72027 0.000143188)
(-0.0392292 -6.18448 0.000342127)
(-0.0625257 -5.67054 0.000545451)
(-0.0859218 -5.1771 0.000749649)
(-0.109042 -4.70345 0.000951447)
(-0.131541 -4.24923 0.00114782)
(-0.153104 -3.8142 0.00133603)
(-0.173449 -3.39818 0.00151362)
(-0.192326 -3.00101 0.00167839)
(-0.209519 -2.6225 0.00182848)
(-0.224848 -2.26243 0.00196229)
(-0.238161 -1.92059 0.00207852)
(-0.249344 -1.59676 0.00217615)
(-0.258311 -1.29074 0.00225445)
(-0.265005 -1.00232 0.0023129)
(-0.269392 -0.731346 0.00235122)
(-0.271457 -0.477681 0.00236929)
(-0.0759321 -45.1666 0.000662729)
(0.212222 -43.9092 -0.00185203)
(-0.162078 -37.0562 0.00141427)
(-0.0885247 -39.4515 0.000773814)
(0.829288 -48.5097 -0.00723718)
(0.496111 -45.3027 -0.00433105)
(0.382857 -35.9374 -0.00334196)
(0.216783 -25.2361 -0.00189254)
(0.262082 -19.074 -0.00229946)
(0.18024 -18.297 -0.00157561)
(0.14219 -17.4997 -0.00124287)
(0.11851 -16.3891 -0.0010349)
(0.105618 -15.1249 -0.000921998)
(0.0995869 -13.8445 -0.000869306)
(0.094479 -12.6641 -0.000824718)
(0.0883456 -11.6181 -0.000771192)
(0.0797349 -10.6988 -0.000696056)
(0.0682613 -9.884 -0.000595937)
(0.0537956 -9.15021 -0.000469706)
(0.0365689 -8.4775 -0.000319378)
(0.016943 -7.85098 -0.000148107)
(-0.0046213 -7.26022 4.00859e-05)
(-0.027634 -6.69848 0.000240924)
(-0.0516038 -6.16156 0.00045012)
(-0.0760594 -5.64697 0.000663562)
(-0.100559 -5.15335 0.000877395)
(-0.124698 -4.6799 0.00108808)
(-0.148106 -4.22622 0.00129239)
(-0.170452 -3.79202 0.00148744)
(-0.191445 -3.37707 0.00167068)
(-0.210829 -2.98116 0.00183989)
(-0.228388 -2.60405 0.00199316)
(-0.24394 -2.2455 0.00212892)
(-0.257341 -1.90526 0.00224591)
(-0.268479 -1.58307 0.00234316)
(-0.277276 -1.27871 0.00241998)
(-0.283681 -0.99194 0.00247591)
(-0.287666 -0.722591 0.00251073)
(-0.289227 -0.470514 0.00252439)
(-0.11037 -45.2563 0.000963295)
(0.268981 -44.0319 -0.00234736)
(-0.235161 -36.7084 0.00205213)
(0.116359 -40.5715 -0.00101423)
(0.981969 -49.1378 -0.00856987)
(0.639153 -45.1699 -0.00557986)
(0.288086 -35.6442 -0.00251519)
(0.205499 -25.2851 -0.0017939)
(0.261181 -19.0676 -0.0022921)
(0.180282 -18.2501 -0.00157618)
(0.138577 -17.477 -0.00121158)
(0.114155 -16.3805 -0.000996972)
(0.100843 -15.1261 -0.000880321)
(0.0952508 -13.8488 -0.000831451)
(0.0904123 -12.6671 -0.000789218)
(0.0843631 -11.6178 -0.000736429)
(0.0754297 -10.6943 -0.00065848)
(0.0633022 -9.87517 -0.000552659)
(0.0478645 -9.13726 -0.000417948)
(0.0294355 -8.46095 -0.000257127)
(0.00844304 -7.83142 -7.39315e-05)
(-0.014576 -7.23832 0.000126957)
(-0.039069 -6.67488 0.000340715)
(-0.064489 -6.13684 0.000562568)
(-0.0903203 -5.62168 0.000788018)
(-0.116087 -5.12796 0.0010129)
(-0.141357 -4.65484 0.00123346)
(-0.165744 -4.20183 0.00144632)
(-0.188907 -3.76859 0.00164851)
(-0.210551 -3.35484 0.00183743)
(-0.230419 -2.96033 0.00201087)
(-0.2483 -2.58477 0.00216695)
(-0.264019 -2.22786 0.00230418)
(-0.27744 -1.88933 0.00242134)
(-0.288459 -1.5689 0.00251755)
(-0.297008 -1.26629 0.0025922)
(-0.303044 -0.981268 0.00264492)
(-0.306551 -0.71363 0.00267556)
(-0.307531 -0.463221 0.00268416)
(-0.145583 -45.3399 0.00127061)
(0.324897 -44.1518 -0.00283533)
(-0.31865 -36.4579 0.00278074)
(0.288737 -41.9154 -0.00251866)
(1.03704 -49.7441 -0.0090507)
(0.67121 -44.8463 -0.00585998)
(0.119071 -35.2592 -0.00104029)
(0.184812 -25.4096 -0.00161298)
(0.264106 -19.0902 -0.00231524)
(0.186988 -18.1992 -0.00163465)
(0.1413 -17.4512 -0.00123552)
(0.115876 -16.3704 -0.00101206)
(0.101557 -15.1267 -0.000886548)
(0.095759 -13.8529 -0.00083588)
(0.0904642 -12.6698 -0.000789668)
(0.0837817 -11.6168 -0.000731355)
(0.0738132 -10.6887 -0.000644378)
(0.0603639 -9.86483 -0.000527023)
(0.0433361 -9.12253 -0.000378437)
(0.0231518 -8.4424 -0.000202299)
(0.000308675 -7.80977 -2.95141e-06)
(-0.0245769 -7.21429 0.000214227)
(-0.0508907 -6.64915 0.000443877)
(-0.0780324 -6.11008 0.000680759)
(-0.105447 -5.59447 0.000920028)
(-0.132629 -5.10079 0.00115727)
(-0.159129 -4.62814 0.00138857)
(-0.184549 -4.17596 0.00161045)
(-0.208547 -3.74385 0.00181991)
(-0.230828 -3.33147 0.0020144)
(-0.251144 -2.93851 0.00219175)
(-0.269292 -2.56464 0.00235017)
(-0.28511 -2.20952 0.00248826)
(-0.298473 -1.87283 0.00260492)