/*--------------------------------*- C++ -*----------------------------------*\
| =========                 |                                                 |
| \\      /  F ield         | OpenFOAM: The Open Source CFD Toolbox           |
|  \\    /   O peration     | Version:  v2012                                 |
|   \\  /    A nd           | Website:  www.openfoam.com                      |
|    \\/     M anipulation  |                                                 |
\*---------------------------------------------------------------------------*/
FoamFile
{
    version     2.0;
    format      ascii;
    class       surfaceScalarField;
    location    "0.75";
    object      phi;
}
// * * * * * * * * * * * * * * * * * * * * * * * * * * * * * * * * * * * * * //

dimensions      [0 3 -1 0 0 0 0];
oriented        oriented;


internalField   nonuniform List<scalar> 
8048
(
-1.65856e-12
-7.52677e-09
-4.60364e-15
2.46876e-11
-2.28913e-08
-9.80503e-15
4.09261e-10
-4.08102e-08
-5.95045e-15
8.63069e-10
-6.42356e-08
-1.07366e-14
1.51254e-09
-9.20531e-08
-1.45336e-14
1.96409e-09
-1.1917e-07
-1.37736e-14
1.7624e-09
-1.33481e-07
-2.36745e-14
-1.06113e-07
-3.13761e-14
-1.6679e-12
-7.5251e-09
-3.85094e-15
2.81216e-11
-2.29211e-08
-8.35795e-15
3.69891e-10
-4.11519e-08
-5.2547e-15
8.50084e-10
-6.47158e-08
-3.65741e-15
1.51231e-09
-9.27154e-08
-1.54853e-14
1.9334e-09
-1.19591e-07
-1.01013e-14
1.69908e-09
-1.33247e-07
-7.30104e-15
-6.26273e-10
-1.03787e-07
-7.03909e-15
-2.71178e-09
-8.70655e-08
-5.28161e-14
-4.32417e-09
-6.44311e-08
-9.01141e-14
-5.25595e-09
-3.06441e-08
-6.32302e-14
-5.81529e-09
-2.0117e-08
-1.40105e-14
-6.60408e-09
-2.01706e-08
-4.98661e-15
-7.58635e-09
-2.20848e-08
-4.59227e-15
-2.45073e-08
-5.23484e-15
-1.41667e-12
-7.52368e-09
-2.8168e-15
3.32615e-11
-2.29558e-08
-7.72126e-15
3.41858e-10
-4.14605e-08
-8.75094e-15
8.59373e-10
-6.52333e-08
-8.79655e-15
1.53501e-09
-9.3391e-08
-7.5426e-15
1.91634e-09
-1.19972e-07
-1.24355e-14
1.64755e-09
-1.32978e-07
-2.70277e-14
-7.0539e-10
-1.01435e-07
-1.09181e-14
-2.92804e-09
-8.48429e-08
-5.16573e-14
-4.68108e-09
-6.2678e-08
-9.17077e-14
-5.47514e-09
-2.985e-08
-4.23028e-14
-5.99464e-09
-1.95975e-08
-4.77246e-15
-6.74373e-09
-1.94215e-08
-3.71913e-15
-7.68498e-09
-2.11435e-08
-3.96278e-15
-2.34125e-08
-4.75614e-15
-8.93518e-13
-7.52279e-09
-3.85091e-15
4.067e-11
-2.29973e-08
-8.58275e-15
3.27635e-10
-4.17475e-08
-9.45133e-15
8.94425e-10
-6.58e-08
-7.28813e-15
1.58055e-09
-9.40772e-08
-2.22812e-14
1.90865e-09
-1.203e-07
-7.19762e-15
1.59637e-09
-1.32666e-07
-9.3032e-15
-7.33292e-10
-9.91049e-08
-3.70305e-15
-3.11471e-09
-8.24615e-08
-5.01765e-14
-5.01203e-09
-6.07806e-08
-9.5055e-14
-5.68518e-09
-2.91769e-08
-4.42516e-14
-6.16206e-09
-1.91207e-08
-1.11339e-14
-6.87044e-09
-1.87131e-08
-5.29729e-15
-7.76953e-09
-2.02444e-08
-4.05013e-15
-2.23602e-08
-4.75511e-15
-1.20314e-13
-7.52266e-09
-1.89842e-15
4.99711e-11
-2.30474e-08
-6.62366e-15
3.28854e-10
-4.20264e-08
-1.14968e-14
9.56342e-10
-6.64275e-08
-8.00398e-15
1.64438e-09
-9.47653e-08
-1.33022e-14
1.9035e-09
-1.20559e-07
-7.94683e-15
1.53599e-09
-1.32298e-07
-1.0955e-14
-6.91197e-10
-9.68777e-08
-1.35759e-14
-3.25846e-09
-7.98942e-08
-4.98468e-14
-5.3017e-09
-5.87373e-08
-9.05862e-14
-5.88632e-09
-2.85923e-08
-6.49238e-14
-6.31786e-09
-1.86891e-08
-2.04805e-14
-6.98424e-09
-1.80467e-08
-7.40901e-15
-7.83992e-09
-1.93888e-08
-4.64459e-15
-2.1351e-08
-5.20138e-15
7.91978e-13
-7.52346e-09
-4.82352e-15
6.03795e-11
-2.31069e-08
-8.50894e-15
3.48462e-10
-4.23145e-08
-8.03644e-15
1.04541e-09
-6.71244e-08
-8.49226e-15
1.7169e-09
-9.54368e-08
-1.34976e-14
1.88888e-09
-1.20731e-07
-1.53689e-14
1.45619e-09
-1.31866e-07
-9.91979e-15
-5.79145e-10
-9.48424e-08
-1.68069e-14
-3.36175e-09
-7.71117e-08
-4.76748e-14
-5.55026e-09
-5.65488e-08
-8.51733e-14
-6.07901e-09
-2.80635e-08
-6.44186e-14
-6.46224e-09
-1.83059e-08
-2.10359e-14
-7.08498e-09
-1.74239e-08
-8.90299e-15
-7.89578e-09
-1.8578e-08
-5.24635e-15
-2.03857e-08
-5.17371e-15
1.82156e-12
-7.52528e-09
-2.82141e-15
7.05011e-11
-2.31756e-08
-7.53523e-15
3.87616e-10
-4.26317e-08
-9.64975e-15
1.15416e-09
-6.7891e-08
-1.07142e-14
1.77833e-09
-9.60609e-08
-7.44881e-15
1.84058e-09
-1.20794e-07
-1.4239e-14
1.33266e-09
-1.31358e-07
-1.03816e-14
-4.16917e-10
-9.30928e-08
-1.10507e-14
-3.43605e-09
-7.40925e-08
-4.15083e-14
-5.76477e-09
-5.42201e-08
-6.99511e-14
-6.26507e-09
-2.75632e-08
-4.07126e-14
-6.59609e-09
-1.7975e-08
-1.56178e-14
-7.17262e-09
-1.68474e-08
-8.91493e-15
-7.93657e-09
-1.7814e-08
-5.52765e-15
-1.94653e-08
-5.24957e-15
2.88319e-12
-7.52816e-09
-2.90165e-15
7.99351e-11
-2.32526e-08
-5.57699e-15
4.48475e-10
-4.30002e-08
-8.47886e-15
1.2698e-09
-6.87123e-08
-9.46201e-15
1.80141e-09
-9.65925e-08
-1.25997e-14
1.72519e-09
-1.20717e-07
-1.07165e-14
1.13182e-09
-1.30764e-07
-7.43339e-15
-2.25419e-10
-9.17355e-08
-5.38755e-15
-3.49088e-09
-7.08271e-08
-3.8518e-14
-5.95394e-09
-5.1757e-08
-5.5096e-14
-6.44543e-09
-2.70717e-08
-2.51473e-14
-6.71977e-09
-1.77006e-08
-1.00788e-14
-7.24618e-09
-1.6321e-08
-7.1515e-15
-7.96084e-09
-1.70994e-08
-5.05401e-15
-1.85914e-08
-4.91584e-15
3.9323e-12
-7.53208e-09
-9.29028e-16
8.86519e-11
-2.33373e-08
-6.77756e-15
5.28483e-10
-4.34401e-08
-9.31484e-15
1.36754e-09
-6.95514e-08
-1.0281e-14
1.74793e-09
-9.6973e-08
-1.54358e-14
1.49953e-09
-1.20469e-07
-1.21289e-14
8.11246e-10
-1.30076e-07
-2.96543e-15
-3.95284e-11
-9.08847e-08
-5.02239e-15
-3.54109e-09
-6.73256e-08
-3.71838e-14
-6.12705e-09
-4.9171e-08
-4.94741e-14
-6.61618e-09
-2.65826e-08
-2.14421e-14
-6.83132e-09
-1.74855e-08
-7.75167e-15
-7.30297e-09
-1.58493e-08
-5.44864e-15
-7.96603e-09
-1.64363e-08
-4.15999e-15
-1.77659e-08
-4.67116e-15
4.94429e-12
-7.53703e-09
-2.86317e-15
9.86077e-11
-2.3431e-08
-7.78056e-15
6.22166e-10
-4.39636e-08
-5.29853e-15
1.41675e-09
-7.0346e-08
-1.0308e-14
1.57672e-09
-9.71329e-08
-7.28646e-15
1.11518e-09
-1.20007e-07
-1.68549e-14
3.19985e-10
-1.29281e-07
-2.61403e-14
8.43033e-11
-9.0649e-08
2.48829e-15
-3.60092e-09
-6.36403e-08
-2.90906e-14
-6.28422e-09
-4.64877e-08
-4.64658e-14
-6.76913e-09
-2.60976e-08
-2.20549e-14
-6.92623e-09
-1.73285e-08
-8.85124e-15
-7.33808e-09
-1.54374e-08
-5.3053e-15
-7.94791e-09
-1.58265e-08
-3.95057e-15
-1.6991e-08
-4.39689e-15
5.90575e-12
-7.54294e-09
-3.07426e-15
1.11012e-10
-2.35361e-08
-1.01551e-14
7.11768e-10
-4.45644e-08
-6.67314e-15
1.37492e-09
-7.10091e-08
-9.8389e-15
1.24215e-09
-9.70001e-08
-7.77292e-15
5.26025e-10
-1.19291e-07
-1.37742e-14
-3.68999e-10
-1.28386e-07
-2.14222e-14
9.7416e-11
-9.11154e-08
1.46523e-15
-3.67607e-09
-5.98668e-08
-2.56041e-14
-6.40845e-09
-4.37553e-08
-4.33437e-14
-6.89597e-09
-2.56101e-08
-2.54933e-14
-7.0011e-09
-1.72234e-08
-1.12299e-14
-7.34811e-09
-1.50904e-08
-6.096e-15
-7.90255e-09
-1.5272e-08
-4.24947e-15
-1.62694e-08
-4.44196e-15
6.92354e-12
-7.54986e-09
-1.25995e-15
1.27647e-10
-2.36569e-08
-8.76062e-15
7.747e-10
-4.52114e-08
-5.0083e-15
1.20746e-09
-7.14419e-08
-1.26197e-14
7.17503e-10
-9.65102e-08
-1.70747e-14
-3.00844e-10
-1.18273e-07
-1.47904e-14
-1.26285e-09
-1.27424e-07
-1.92812e-14
-1.56358e-12
-9.23767e-08
9.51585e-15
-3.80171e-09
-5.60667e-08
-2.18432e-14
-6.49542e-09
-4.10616e-08
-3.75146e-14
-6.99347e-09
-2.5112e-08
-2.62666e-14
-7.05243e-09
-1.71645e-08
-1.27787e-14
-7.32983e-09
-1.4813e-08
-6.98165e-15
-7.82462e-09
-1.47773e-08
-4.68549e-15
-1.56047e-08
-4.87234e-15
7.9177e-12
-7.55778e-09
-3.22233e-15
1.47769e-10
-2.37967e-08
-8.9119e-15
7.86999e-10
-4.58507e-08
-4.44199e-15
8.99883e-10
-7.15548e-08
-1.30343e-14
2.44341e-11
-9.56347e-08
-5.70588e-15
-1.30964e-09
-1.16939e-07
-1.14711e-14
-2.30078e-09
-1.26433e-07
-2.1815e-14
-2.39705e-10
-9.44377e-08
7.31425e-15
-4.02964e-09
-5.22768e-08
-2.03991e-14
-6.58333e-09
-3.85079e-08
-3.24688e-14
-7.07218e-09
-2.46232e-08
-2.57554e-14
-7.08083e-09
-1.71559e-08
-1.36589e-14
-7.28121e-09
-1.46126e-08
-7.69017e-15
-7.70855e-09
-1.43499e-08
-5.21142e-15
-1.50013e-08
-5.14286e-15
8.95946e-12
-7.56673e-09
-6.97343e-16
1.70083e-10
-2.39579e-08
-8.99002e-15
7.29366e-10
-4.64099e-08
-4.30001e-15
4.45558e-10
-7.1271e-08
-1.58027e-14
-8.29818e-10
-9.43594e-08
-1.93463e-14
-2.49011e-09
-1.15279e-07
-1.1172e-14
-3.56673e-09
-1.25356e-07
-1.63312e-14
-8.00558e-10
-9.72038e-08
1.38076e-14
-4.34145e-09
-4.87359e-08
-1.50088e-14
-6.64724e-09
-3.62021e-08
-2.79758e-14
-7.09943e-09
-2.4171e-08
-2.31028e-14
-7.06034e-09
-1.7195e-08
-1.36519e-14
-7.18221e-09
-1.44907e-08
-8.88904e-15
-7.53818e-09
-1.3994e-08
-5.70503e-15
-1.44605e-08
-5.56965e-15
9.90975e-12
-7.57664e-09
-2.07811e-15
1.87586e-10
-2.41356e-08
-6.98356e-15
5.78231e-10
-4.68006e-08
-4.98482e-15
-1.57499e-10
-7.05353e-08
-1.66104e-14
-1.82878e-09
-9.26881e-08
-1.60905e-14
-3.81656e-09
-1.13291e-07
-9.67321e-15
-5.14393e-09
-1.24029e-07
-5.65759e-15
-2.00268e-09
-1.00345e-07
2.09555e-15
-4.71852e-09
-4.60201e-08
-8.93266e-15
-6.60952e-09
-3.43111e-08
-2.2155e-14
-7.00488e-09
-2.37756e-08
-1.91742e-14
-6.93566e-09
-1.72642e-08
-1.25689e-14
-6.99427e-09
-1.4432e-08
-8.8744e-15
-7.28655e-09
-1.37017e-08
-5.70827e-15
-1.39756e-08
-5.83542e-15
1.06646e-11
-7.58731e-09
-2.18569e-15
1.90018e-10
-2.4315e-08
-7.54677e-15
3.23184e-10
-4.69337e-08
-5.50263e-15
-8.65819e-10
-6.93463e-08
-1.66432e-14
-2.89071e-09
-9.06632e-08
-9.34485e-15
-5.20363e-09
-1.10978e-07
-2.02804e-14
-6.9867e-09
-1.22246e-07
-2.98671e-15
-4.15071e-09
-1.03181e-07
-1.44127e-14
-4.99477e-09
-4.51761e-08
1.6482e-14
-6.35126e-09
-3.29546e-08
-1.41277e-14
-6.6987e-09
-2.34281e-08
-1.75463e-14
-6.639e-09
-1.7324e-08
-1.20052e-14
-6.66987e-09
-1.44012e-08
-8.10088e-15
-6.92218e-09
-1.34494e-08
-5.63296e-15
-1.35286e-08
-5.81723e-15
1.08596e-11
-7.59817e-09
-1.28185e-15
1.68507e-10
-2.44726e-08
-7.15239e-15
-6.8477e-12
-4.67584e-08
-6.69448e-15
-1.54785e-09
-6.78053e-08
-1.5696e-14
-3.78387e-09
-8.84271e-08
-1.51033e-14
-6.30177e-09
-1.0846e-07
-1.57865e-14
-8.50752e-09
-1.2004e-07
2.62685e-15
-6.56245e-09
-1.05126e-07
-2.32178e-14
-4.49048e-09
-4.7248e-08
3.62938e-14
-5.59063e-09
-3.18544e-08
-9.22026e-15
-6.02633e-09
-2.29924e-08
-1.50236e-14
-6.08251e-09
-1.72678e-08
-1.1996e-14
-6.15458e-09
-1.43291e-08
-8.46709e-15
-6.41484e-09
-1.31891e-08
-6.02953e-15
-1.30874e-08
-5.76281e-15
1.04646e-11
-7.60866e-09
-4.67014e-15
1.27352e-10
-2.45895e-08
-6.72918e-15
-3.26827e-10
-4.63042e-08
-9.31143e-15
-2.00805e-09
-6.61241e-08
-1.55638e-14
-4.18923e-09
-8.62459e-08
-9.74789e-15
-6.56809e-09
-1.06081e-07
-2.06529e-14
-8.69797e-09
-1.1791e-07
-3.48153e-15
-7.33414e-09
-1.0649e-07
-9.66849e-15
-2.53703e-09
-5.20453e-08
1.53936e-14
-4.17259e-09
-3.02188e-08
-1.25899e-14
-4.92428e-09
-2.22407e-08
-1.35497e-14
-5.22916e-09
-1.6963e-08
-1.01789e-14
-5.43152e-09
-1.41267e-08
-5.76989e-15
-5.75888e-09
-1.28618e-08
-5.0171e-15
-1.26125e-08
-4.7312e-15
9.77889e-12
-7.61842e-09
1.41671e-15
8.06388e-11
-2.46604e-08
-5.93882e-15
-5.49024e-10
-4.56745e-08
-8.72906e-15
-2.13272e-09
-6.45404e-08
-1.44693e-14
-3.98402e-09
-8.43945e-08
-5.66782e-15
-5.84354e-09
-1.04222e-07
-1.75127e-14
-7.33841e-09
-1.16415e-07
-7.59199e-15
-5.86832e-09
-1.0796e-07
-1.83499e-14
6.31677e-10
-5.85453e-08
1.79675e-14
-2.33954e-09
-2.72475e-08
-3.23368e-15
-3.57916e-09
-2.10011e-08
-9.13953e-15
-4.18094e-09
-1.63612e-08
-8.56469e-15
-4.5711e-09
-1.37365e-08
-5.40041e-15
-4.9996e-09
-1.24333e-08
-4.95194e-15
-1.20766e-08
-4.50359e-15
9.06902e-12
-7.6275e-09
-3.59414e-15
4.21086e-11
-2.46934e-08
-7.12128e-15
-6.40219e-10
-4.49922e-08
-8.01575e-15
-1.96698e-09
-6.32137e-08
-1.6514e-14
-3.34189e-09
-8.30196e-08
-1.52851e-14
-4.52067e-09
-1.03043e-07
-1.14012e-14
-5.12646e-09
-1.15809e-07
-5.54401e-15
-3.3728e-09
-1.09714e-07
-2.70963e-14
3.54061e-09
-6.54588e-08
-4.04969e-15
-5.41262e-10
-2.31656e-08
7.17678e-15
-2.25681e-09
-1.92855e-08
-6.63292e-15
-3.10709e-09
-1.55109e-08
-7.53889e-15
-3.68078e-09
-1.31628e-08
-5.70516e-15
-4.20857e-09
-1.19055e-08
-4.76337e-15
-1.14748e-08
-4.35353e-15
8.64615e-12
-7.63613e-09
9.34993e-16
1.69251e-11
-2.47017e-08
-6.61401e-15
-6.31846e-10
-4.43434e-08
-8.12072e-15
-1.66793e-09
-6.21776e-08
-1.47661e-14
-2.59708e-09
-8.20904e-08
-7.79019e-15
-3.21589e-09
-1.02424e-07
-1.23921e-14
-3.09298e-09
-1.15932e-07
-2.04446e-14
-1.35221e-09
-1.11454e-07
-3.5498e-15
4.64923e-09
-7.14602e-08
-8.88721e-15
8.52356e-10
-1.93687e-08
1.52914e-15
-1.1093e-09
-1.73239e-08
-4.76274e-15
-2.12743e-09
-1.44928e-08
-5.331e-15
-2.83648e-09
-1.24538e-08
-4.66297e-15
-3.44374e-09
-1.12982e-08
-4.03585e-15
-1.08192e-08
-4.21412e-15
8.40382e-12
-7.64454e-09
-2.28028e-15
1.53376e-12
-2.46949e-08
-7.90868e-15
-5.84291e-10
-4.37576e-08
-7.00907e-15
-1.38451e-09
-6.13774e-08
-1.68383e-14
-1.99571e-09
-8.14791e-08
-1.01875e-14
-2.27956e-09
-1.0214e-07
-1.0064e-14
-1.77938e-09
-1.16433e-07
-1.26661e-14
-2.92231e-10
-1.12941e-07
-1.33376e-14
4.39105e-09
-7.61435e-08
-4.0046e-15
1.73199e-09
-1.67097e-08
-6.17586e-15
-1.82366e-10
-1.54095e-08
-4.51789e-15
-1.28562e-09
-1.33896e-08
-3.75501e-15
-2.07181e-09
-1.16676e-08
-3.87921e-15
-2.73535e-09
-1.06347e-08
-3.40443e-15
-1.01283e-08
-3.99885e-15
8.43898e-12
-7.65297e-09
-9.49446e-16
-1.02937e-11
-2.46762e-08
-7.38566e-15
-5.43836e-10
-4.3224e-08
-7.16644e-15
-1.1798e-09
-6.07415e-08
-1.83062e-14
-1.59359e-09
-8.10654e-08
-1.58229e-14
-1.70644e-09
-1.02027e-07
-1.05055e-14
-1.09201e-09
-1.17047e-07
-1.24122e-14
9.92162e-11
-1.14133e-07
-1.33371e-14
3.60872e-09
-7.96529e-08
7.38595e-15
2.15382e-09
-1.52548e-08
-1.49968e-14
5.09391e-10
-1.37651e-08
-4.42854e-15
-5.85333e-10
-1.22948e-08
-2.38195e-15
-1.3967e-09
-1.08562e-08
-3.3031e-15
-2.09145e-09
-9.93994e-09
-2.90992e-15
-9.41979e-09
-3.58943e-15
8.48614e-12
-7.66146e-09
-2.17979e-15
-2.61258e-11
-2.46416e-08
-8.37201e-15
-5.30661e-10
-4.27195e-08
-1.07685e-14
-1.04937e-09
-6.02228e-08
-1.23467e-14
-1.3402e-09
-8.07744e-08
3.90483e-17
-1.36807e-09
-1.02e-07
-2.16468e-14
-7.84571e-10
-1.1763e-07
-1.06273e-14
1.03608e-10
-1.15021e-07
-8.38014e-15
2.4623e-09
-8.20115e-08
-3.36053e-14
2.34416e-09
-1.51367e-08
2.05004e-14
1.03746e-09
-1.24584e-08
7.97891e-15
1.6703e-11
-1.12741e-08
-1.15272e-15
-7.90096e-10
-1.00494e-08
-2.38071e-15
-1.49849e-09
-9.23154e-09
-2.41571e-15
-8.70402e-09
-2.98462e-15
8.34233e-12
-7.6698e-09
-1.82534e-15
-4.94092e-11
-2.45838e-08
-7.66062e-15
-5.32162e-10
-4.22367e-08
-1.05298e-14
-9.40252e-10
-5.98147e-08
-1.29904e-14
-1.12548e-09
-8.05891e-08
-4.165e-16
-1.08078e-09
-1.02044e-07
-3.11018e-14
-5.65269e-10
-1.18146e-07
-2.2655e-14
7.71408e-11
-1.15663e-07
-2.58987e-14
1.45666e-09
-8.33911e-08
-5.9487e-14
2.77227e-09
-1.64525e-08
1.18342e-14
1.59145e-09
-1.12776e-08
1.39931e-14
6.14887e-10
-1.02975e-08
-5.17105e-16
-1.98458e-10
-9.23603e-09
-1.64212e-15
-9.25256e-10
-8.50475e-09
-1.9685e-15
-7.97814e-09
-2.69083e-15
7.76129e-12
-7.67757e-09
-2.49747e-15
-7.66347e-11
-2.44994e-08
-6.86383e-15
-5.14667e-10
-4.17987e-08
-1.16044e-14
-7.81241e-10
-5.95481e-08
-1.32903e-14
-8.20751e-10
-8.05496e-08
-1.26356e-14
-6.33716e-10
-1.02231e-07
-5.15597e-15
-7.92278e-11
-1.187e-07
-6.71853e-15
5.428e-10
-1.16285e-07
3.13493e-15
1.49841e-09
-8.43466e-08
2.38396e-15
4.04985e-09
-1.90039e-08
3.88183e-14
2.4084e-09
-9.63609e-09
1.31649e-15
1.30832e-09
-9.19741e-09
-4.86359e-16
4.34622e-10
-8.36233e-09
-8.08892e-16
-3.42084e-10
-1.3036e-15
-2.24756e-15
6.91638e-12
-7.68448e-09
-1.62217e-15
-9.66332e-11
-2.43959e-08
-6.38906e-15
-4.46456e-10
-4.14489e-08
-1.0786e-14
-5.31881e-10
-5.94627e-08
-1.15006e-14
-3.69172e-10
-8.07123e-08
-8.70324e-15
5.46801e-11
-1.02655e-07
-1.57653e-14
8.22149e-10
-1.19468e-07
-1.15479e-14
1.73387e-09
-1.17197e-07
-1.11479e-14
2.94633e-09
-8.55591e-08
-2.06459e-14
6.3814e-09
-2.24389e-08
8.81137e-15
3.58735e-09
-6.84207e-09
-5.23657e-15
2.12531e-09
-7.73535e-09
7.39151e-17
-7.36001e-09
-2.83571e-16
6.04788e-12
-7.69053e-09
-2.82308e-15
-1.00481e-10
-2.42893e-08
-6.63307e-15
-3.27901e-10
-4.12214e-08
-1.15669e-14
-2.23008e-10
-5.95676e-08
-1.14343e-14
1.54698e-10
-8.109e-08
-9.18297e-15
8.39798e-10
-1.0334e-07
-1.12645e-14
1.8838e-09
-1.20512e-07
-1.1494e-14
3.19321e-09
-1.18506e-07
-9.18657e-15
4.83236e-09
-8.71983e-08
-1.95574e-14
8.6667e-09
-2.62733e-08
-3.51875e-15
4.88138e-09
-3.05667e-09
7.08404e-15
2.97648e-09
-5.83043e-09
1.71633e-15
-6.1936e-09
-2.59771e-16
5.54804e-12
-7.69608e-09
-1.64879e-15
-8.62958e-11
-2.41975e-08
-6.65414e-15
-1.86162e-10
-4.11216e-08
-9.24107e-15
7.44149e-11
-5.98282e-08
-9.38884e-15
6.13979e-10
-8.16295e-08
-1.15929e-14
1.47663e-09
-1.04203e-07
-1.19504e-14
2.6951e-09
-1.2173e-07
-9.67624e-15
4.20171e-09
-1.20013e-07
-9.68026e-15
5.83082e-09
-8.88274e-08
-9.26184e-15
9.43047e-09
-2.9873e-08
-2.02637e-15
5.83888e-09
5.3484e-10
-5.52272e-15
3.71557e-09
-3.70708e-09
1.17123e-15
-4.89669e-09
1.25621e-16
5.50916e-12
-7.70159e-09
-2.55146e-15
-5.94488e-11
-2.41325e-08
-6.90117e-15
-5.38168e-11
-4.11272e-08
-1.04148e-14
3.03982e-10
-6.0186e-08
-1.00855e-14
9.25752e-10
-8.22513e-08
-8.89415e-15
1.85217e-09
-1.05129e-07
-1.41366e-14
3.09096e-09
-1.22969e-07
-1.6517e-14
4.53546e-09
-1.21458e-07
-1.11692e-14
5.79256e-09
-9.00845e-08
-1.20484e-14
8.70477e-09
-3.27852e-08
-2.02831e-14
6.187e-09
3.05264e-09
1.5017e-14
4.20819e-09
-1.72824e-09
4.48629e-15
-3.57905e-09
5.87079e-16
5.91157e-12
-7.7075e-09
-2.38488e-15
-2.71365e-11
-2.40995e-08
-7.16676e-15
4.96054e-11
-4.12039e-08
-8.8927e-15
4.47964e-10
-6.05844e-08
-9.10391e-15
1.07991e-09
-8.28832e-08
-1.13429e-14
1.97568e-09
-1.06025e-07
-1.24721e-14
3.12778e-09
-1.24121e-07
-1.51754e-14
4.37447e-09
-1.22704e-07
-8.72288e-15
5.22117e-09
-9.09312e-08
-6.03085e-15
7.29844e-09
-3.48625e-08
-1.29788e-14
5.9906e-09
4.36053e-09
1.79748e-14
4.40889e-09
-1.465e-10
4.05682e-15
-2.37516e-09
5.4256e-16
6.52888e-12
-7.71403e-09
-2.28316e-15
3.38959e-12
-2.40964e-08
-7.07492e-15
1.16017e-10
-4.13166e-08
-9.98384e-15
5.11616e-10
-6.098e-08
-8.88294e-15
1.10071e-09
-8.34723e-08
-9.11436e-15
1.9063e-09
-1.06831e-07
-1.47985e-14
2.91758e-09
-1.25132e-07
-5.04894e-15
3.92913e-09
-1.23716e-07
-2.8736e-14
4.41915e-09
-9.14212e-08
-1.33198e-15
5.67947e-09
-3.61229e-08
-3.34763e-15
5.45057e-09
4.58943e-09
1.20774e-15
4.37717e-09
9.26927e-10
1.26214e-15
-1.38854e-09
5.82676e-16
7.11383e-12
-7.72115e-09
-2.64749e-15
2.69546e-11
-2.41162e-08
-7.19941e-15
1.47372e-10
-4.1437e-08
-9.24395e-15
5.1265e-10
-6.13453e-08
-8.10882e-15
1.02876e-09
-8.39884e-08
-9.18868e-15
1.71664e-09
-1.07519e-07
-1.48729e-14
2.57263e-09
-1.25988e-07
-3.76974e-15
3.36491e-09
-1.24508e-07
-2.59618e-14
3.58499e-09
-9.16413e-08
-1.48367e-14
4.18643e-09
-3.67244e-08
-1.14951e-14
4.82048e-09
3.95528e-09
-1.2385e-14
4.23579e-09
1.51162e-09
1.81503e-16
-6.54904e-10
2.35105e-16
7.43118e-12
-7.72858e-09
-2.18562e-15
4.07795e-11
-2.41496e-08
-6.64969e-15
1.50837e-10
-4.1547e-08
-9.67547e-15
4.7218e-10
-6.16666e-08
-8.84872e-15
9.04246e-10
-8.44205e-08
-1.19667e-14
1.47112e-09
-1.08086e-07
-1.0722e-14
2.18346e-09
-1.26701e-07
-1.29515e-14
2.7924e-09
-1.25117e-07
-8.14789e-15
2.81504e-09
-9.16639e-08
-4.72993e-15
2.78686e-09
-3.66961e-08
-4.5313e-15
4.07487e-09
2.66736e-09
6.05644e-15
4.01126e-09
1.57525e-09
1.63274e-15
-1.9922e-10
6.84414e-16
7.2407e-12
-7.73582e-09
-2.78557e-15
4.47191e-11
-2.4187e-08
-6.96003e-15
1.36235e-10
-4.16385e-08
-9.46264e-15
4.10582e-10
-6.19409e-08
-8.58842e-15
7.60622e-10
-8.47705e-08
-1.0051e-14
1.21847e-09
-1.08543e-07
-1.15204e-14
1.81353e-09
-1.27296e-07
-1.33537e-14
2.30008e-09
-1.25604e-07
-7.91892e-15
2.28415e-09
-9.1648e-08
-1.14257e-14
1.837e-09
-3.6249e-08
-3.18428e-15
3.30316e-09
1.2012e-09
-1.56497e-14
3.66171e-09
1.21672e-09
-2.71194e-15
2.10745e-11
2.85237e-16
6.35449e-12
-7.74217e-09
-2.28114e-15
4.03113e-11
-2.4221e-08
-7.11124e-15
1.11913e-10
-4.17101e-08
-9.16778e-15
3.41741e-10
-6.21708e-08
-8.56228e-15
6.17963e-10
-8.50467e-08
-9.59635e-15
9.83973e-10
-1.08909e-07
-1.17617e-14
1.4818e-09
-1.27794e-07
-1.30048e-14
1.86544e-09
-1.25987e-07
-1.06122e-14
1.7799e-09
-9.15625e-08
-1.056e-14
8.78042e-10
-3.53472e-08
3.23517e-15
2.08621e-09
-6.96655e-12
-6.06195e-15
2.86075e-09
4.42192e-10
-1.87663e-15
5.9728e-12
-1.90935e-16
4.66079e-12
-7.74684e-09
-2.91245e-15
2.91658e-11
-2.42455e-08
-7.43419e-15
8.21676e-11
-4.17631e-08
-9.65953e-15
2.7001e-10
-6.23586e-08
-9.16685e-15
4.79496e-10
-8.52562e-08
-1.03895e-14
7.68e-10
-1.09198e-07
-1.37232e-14
1.19623e-09
-1.28222e-07
-1.70109e-14
1.57329e-09
-1.26364e-07
-1.11823e-14
1.64732e-09
-9.16365e-08
-9.78751e-15
9.31361e-10
-3.46312e-08
-5.38795e-15
9.24369e-10
8.19799e-15
1.36657e-09
6.54154e-16
-8.18385e-16
2.6844e-12
-7.74952e-09
-2.70928e-15
1.40854e-11
-2.42569e-08
-7.05073e-15
5.13041e-11
-4.18003e-08
-9.18038e-15
1.98418e-10
-6.25057e-08
-8.3307e-15
3.41499e-10
-8.53993e-08
-9.76911e-15
5.40871e-10
-1.09397e-07
-1.26312e-14
8.55675e-10
-1.28537e-07
-1.33486e-14
1.10152e-09
-1.2661e-07
-8.41953e-15
8.66671e-10
-9.14017e-08
-6.2976e-15
-3.37646e-08
-9.1175e-15
1.11991e-12
-7.75064e-09
-2.85405e-15
-3.683e-13
-2.42554e-08
-7.85171e-15
2.87597e-11
-4.18295e-08
-8.8278e-15
1.45539e-10
-6.26225e-08
-8.1792e-15
2.406e-10
-8.54944e-08
-1.07545e-14
3.7775e-10
-1.09534e-07
-1.16798e-14
6.25925e-10
-1.28785e-07
-2.18796e-14
8.1139e-10
-1.26796e-07
-7.79055e-15
4.50006e-10
-9.10403e-08
-6.36887e-15
-3.33145e-08
2.66877e-15
3.73063e-14
-7.75068e-09
-2.72403e-15
-1.20057e-11
-2.42434e-08
-7.87858e-15
1.66836e-11
-4.18582e-08
-8.62057e-15
1.13588e-10
-6.27194e-08
-7.39351e-15
1.7813e-10
-8.55589e-08
-1.02648e-14
2.80797e-10
-1.09637e-07
-1.43224e-14
5.09239e-10
-1.29013e-07
-1.58915e-14
7.0942e-10
-1.26996e-07
-1.12099e-14
4.39017e-10
-9.07698e-08
-5.6293e-15
-3.28755e-08
-1.31158e-15
-5.88227e-13
-7.75009e-09
-2.8227e-15
-1.97668e-11
-2.42242e-08
-8.64907e-15
1.4298e-11
-4.18922e-08
-8.26323e-15
9.86729e-11
-6.28038e-08
-4.49325e-15
1.43103e-10
-8.56034e-08
-1.40692e-14
2.24588e-10
-1.09719e-07
-9.79897e-15
4.43692e-10
-1.29233e-07
-2.94458e-14
6.55981e-10
-1.27208e-07
-2.54004e-14
4.08501e-10
-9.05225e-08
-2.75382e-14
-3.24673e-08
-4.50071e-14
-8.30689e-13
-7.74926e-09
-2.97661e-15
-2.31148e-11
-2.42019e-08
-7.70284e-15
2.02946e-11
-4.19356e-08
-1.01762e-14
9.7239e-11
-6.28808e-08
-1.19955e-14
1.28714e-10
-8.56348e-08
-2.00078e-15
1.98094e-10
-1.09788e-07
-3.38938e-14
4.16893e-10
-1.29451e-07
1.98328e-14
6.45126e-10
-1.27436e-07
-7.73497e-15
4.12564e-10
-9.02899e-08
4.25547e-15
-3.20544e-08
3.9274e-14
-7.98606e-13
-7.74847e-09
-2.84619e-15
-2.19824e-11
-2.41807e-08
-9.3719e-15
3.27424e-11
-4.19904e-08
-9.59912e-15
1.05216e-10
-6.29533e-08
-6.80102e-15
1.27271e-10
-8.56568e-08
-9.71079e-15
1.896e-10
-1.09851e-07
-4.74624e-14
4.1077e-10
-1.29672e-07
6.28041e-15
6.52241e-10
-1.27678e-07
-9.3784e-15
4.22602e-10
-9.00602e-08
-2.32441e-15
-3.16318e-08
-6.41667e-15
-5.27774e-13
-7.74794e-09
-2.87964e-15
-1.65944e-11
-2.41647e-08
-6.66243e-15
4.98099e-11
-4.20568e-08
-8.28775e-15
1.1919e-10
-6.30227e-08
-1.59811e-14
1.3397e-10
-8.56715e-08
2.30702e-15
1.92773e-10
-1.09909e-07
-9.19347e-15
4.18316e-10
-1.29897e-07
-1.63259e-15
6.72456e-10
-1.27932e-07
-2.61183e-14
4.407e-10
-8.98285e-08
-1.67037e-14
-3.11912e-08
-6.57658e-15
-7.37123e-14
-7.74786e-09
-2.72869e-15
-7.59986e-12
-2.41571e-08
-8.52272e-15
6.98884e-11
-4.21343e-08
-8.42079e-15
1.36718e-10
-6.30896e-08
-1.91997e-14
1.45282e-10
-8.56799e-08
3.40056e-17
2.02635e-10
-1.09967e-07
-2.03488e-14
4.33902e-10
-1.30129e-07
-5.10345e-15
7.00449e-10
-1.28199e-07
-1.45562e-14
4.63169e-10
-8.95912e-08
-5.59576e-15
-3.0728e-08
-2.30453e-15
5.43363e-13
-7.7484e-09
-2.76886e-15
3.95004e-12
-2.41605e-08
-8.45115e-15
9.10803e-11
-4.22215e-08
-7.28296e-15
1.55245e-10
-6.31538e-08
-6.7298e-16
1.58181e-10
-8.56829e-08
-1.42405e-14
2.15934e-10
-1.10025e-07
-1.54078e-14
4.5406e-10
-1.30367e-07
-2.10446e-14
7.33531e-10
-1.28478e-07
-4.47972e-15
4.8932e-10
-8.93469e-08
-3.54118e-15
-3.02387e-08
-6.34161e-15
1.29885e-12
-7.7497e-09
-2.89621e-15
1.6673e-11
-2.41759e-08
-8.58837e-15
1.11684e-10
-4.23165e-08
-8.23763e-15
1.72743e-10
-6.32148e-08
-5.18677e-15
1.7095e-10
-8.56811e-08
-9.8543e-15
2.30439e-10
-1.10084e-07
-1.23658e-14
4.7671e-10
-1.30613e-07
-1.89662e-14
7.69936e-10
-1.28771e-07
-1.15268e-14
5.18239e-10
-8.90952e-08
-8.94965e-15
-2.97205e-08
-1.6753e-15
2.17907e-12
-7.75187e-09
-2.76734e-15
2.88513e-11
-2.42026e-08
-8.52526e-15
1.29901e-10
-4.24175e-08
-7.56192e-15
1.8736e-10
-6.32723e-08
-5.60133e-15
1.817e-10
-8.56754e-08
-1.1016e-14
2.44162e-10
-1.10147e-07
-1.58924e-14
4.99994e-10
-1.30869e-07
-1.6741e-14
8.08513e-10
-1.2908e-07
-1.10739e-14
5.49701e-10
-8.88364e-08
-8.34942e-15
-2.91708e-08
-2.34527e-15
3.16109e-12
-7.75503e-09
-3.12984e-15
3.8719e-11
-2.42382e-08
-8.15896e-15
1.44395e-10
-4.25232e-08
-6.97649e-15
1.97851e-10
-6.33257e-08
-5.79614e-15
1.89513e-10
-8.56671e-08
-1.0273e-14
2.56158e-10
-1.10213e-07
-1.40088e-14
5.23114e-10
-1.31136e-07
-1.38305e-14
8.48703e-10
-1.29406e-07
-1.2338e-14
5.8358e-10
-8.85713e-08
-9.96063e-15
-2.85872e-08
-2.33369e-15
4.21864e-12
-7.75925e-09
-3.17895e-15
4.47397e-11
-2.42787e-08
-8.54364e-15
1.54049e-10
-4.26326e-08
-7.01358e-15
2.0319e-10
-6.33748e-08
-5.02728e-15
1.93735e-10
-8.56576e-08
-1.15819e-14
2.65817e-10
-1.10285e-07
-1.47171e-14
5.45686e-10
-1.31416e-07
-1.27339e-14
8.90312e-10
-1.2975e-07
-1.31084e-14
6.19901e-10
-8.83009e-08
-8.67855e-15
-2.79673e-08
-4.84259e-15
5.32758e-12
-7.76458e-09
-3.60311e-15
4.62135e-11
-2.43196e-08
-8.05796e-15
1.58714e-10
-4.27451e-08
-6.41661e-15
2.03386e-10
-6.34195e-08
-5.7979e-15
1.94628e-10
-8.56489e-08
-1.08722e-14
2.73457e-10
-1.10364e-07
-1.49841e-14
5.68179e-10
-1.31711e-07
-1.17888e-14
9.33843e-10
-1.30116e-07
-1.40857e-14
6.59272e-10
-8.80264e-08
-1.08261e-14
-2.7308e-08
-5.79341e-15
6.48301e-12
-7.77106e-09
-3.23409e-15
4.32663e-11
-2.43564e-08
-9.72642e-15
1.58785e-10
-4.28606e-08
-6.87409e-15
1.98951e-10
-6.34596e-08
-5.85595e-15
1.9281e-10
-8.56427e-08
-1.23449e-14
2.79889e-10
-1.10451e-07
-1.67259e-14
5.91354e-10
-1.32022e-07
-1.41789e-14
9.7994e-10
-1.30504e-07
-8.24831e-15
7.02155e-10
-8.77486e-08
-7.13178e-15
-2.66059e-08
-1.91021e-15
7.68013e-12
-7.77874e-09
-3.69529e-15
3.71397e-11
-2.43858e-08
-9.34084e-15
1.557e-10
-4.29792e-08
-6.38925e-15
1.91433e-10
-6.34954e-08
-7.29883e-15
1.89779e-10
-8.56411e-08
-1.22131e-14
2.86715e-10
-1.10548e-07
-1.52848e-14
6.16545e-10
-1.32352e-07
-1.2796e-14
1.02964e-09
-1.30917e-07
-1.35746e-14
7.48882e-10
-8.74678e-08
-8.99459e-15
-2.5857e-08
-2.1741e-15
8.93776e-12
-7.78768e-09
-3.76167e-15
2.97553e-11
-2.44066e-08
-1.04092e-14
1.5113e-10
-4.31006e-08
-6.71863e-15
1.82635e-10
-6.35268e-08
-6.61713e-15
1.87345e-10
-8.56458e-08
-1.31316e-14
2.95877e-10
-1.10657e-07
-1.59594e-14
6.45433e-10
-1.32701e-07
-1.45087e-14
1.08455e-09
-1.31357e-07
-1.42642e-14
8.00559e-10
-8.71838e-08
-8.47538e-15
-2.50565e-08
-3.18509e-15
1.02752e-11
-7.79796e-09
-4.31659e-15
2.36416e-11
-2.442e-08
-9.96592e-15
1.47295e-10
-4.32242e-08
-5.93731e-15
1.75003e-10
-6.35545e-08
-8.34212e-15
1.87923e-10
-8.56587e-08
-1.42438e-14
3.09667e-10
-1.10779e-07
-1.46988e-14
6.8006e-10
-1.33072e-07
-1.3552e-14
1.14636e-09
-1.31823e-07
-1.48821e-14
8.58169e-10
-8.68956e-08
-9.98444e-15
-2.41983e-08
-1.21242e-15
1.17346e-11
-7.80969e-09
-4.02753e-15
2.12691e-11
-2.44295e-08
-1.13947e-14
1.46124e-10
-4.33491e-08
-5.66862e-15
1.7069e-10
-6.35791e-08
-9.94462e-15
1.93392e-10
-8.56814e-08
-1.35145e-14
3.29788e-10
-1.10915e-07
-1.47076e-14
7.2202e-10
-1.33464e-07
-1.64649e-14
1.21645e-09
-1.32317e-07
-1.29208e-14
9.22436e-10
-8.66016e-08
-7.47379e-15
-2.32759e-08
-4.60785e-15
1.33471e-11
-7.82304e-09
-4.74122e-15
2.48733e-11
-2.44411e-08
-1.05709e-14
1.49389e-10
-4.34736e-08
-4.56088e-15
1.71745e-10
-6.36015e-08
-1.0306e-14
2.05438e-10
-8.57151e-08
-1.37127e-14
3.57867e-10
-1.11067e-07
-1.39306e-14
7.73067e-10
-1.33879e-07
-1.79054e-14
1.29641e-09
-1.32841e-07
-1.3686e-14
9.94471e-10
-8.62997e-08
-8.80072e-15
-2.22814e-08
-3.89513e-15
1.51521e-11
-7.8382e-09
-4.88967e-15
3.58322e-11
-2.44617e-08
-1.05781e-14
1.57889e-10
-4.35956e-08
-5.4562e-15
1.7915e-10
-6.36227e-08
-1.14917e-14
2.24666e-10
-8.57606e-08
-1.4081e-14
3.94667e-10
-1.11237e-07
-1.51751e-14
8.3434e-10
-1.34319e-07
-1.74496e-14
1.38754e-09
-1.33394e-07
-1.22168e-14
1.07537e-09
-8.59875e-08
-6.77333e-15
-2.1206e-08
-5.17211e-15
1.71674e-11
-7.85537e-09
-5.68993e-15
5.45805e-11
-2.44991e-08
-1.00498e-14
1.71729e-10
-4.37128e-08
-4.38523e-15
1.93269e-10
-6.36443e-08
-1.15694e-14
2.51232e-10
-8.58186e-08
-1.32633e-14
4.40819e-10
-1.11427e-07
-1.46531e-14
9.06941e-10
-1.34785e-07
-1.66913e-14
1.49131e-09
-1.33978e-07
-1.27229e-14
1.16657e-09
-8.56628e-08
-5.45265e-15
-2.00395e-08
-3.3112e-15
1.94041e-11
-7.87477e-09
-4.94445e-15
8.00735e-11
-2.45598e-08
-1.05803e-14
1.89452e-10
-4.38221e-08
-5.12994e-15
2.12822e-10
-6.36676e-08
-1.18073e-14
2.84033e-10
-8.58898e-08
-1.37843e-14
4.96031e-10
-1.11639e-07
-1.46493e-14
9.91351e-10
-1.3528e-07
-1.69828e-14
1.60891e-09
-1.34596e-07
-1.36459e-14
1.26966e-09
-8.53235e-08
-6.6095e-15
-1.87698e-08
-1.76146e-15
2.18151e-11
-7.89659e-09
-5.53815e-15
1.10055e-10
-2.4648e-08
-1.05171e-14
2.08856e-10
-4.39209e-08
-5.9537e-15
2.35902e-10
-6.36947e-08
-1.19798e-14
3.21649e-10
-8.59755e-08
-1.2995e-14
5.59541e-10
-1.11877e-07
-1.52621e-14
1.08755e-09
-1.35808e-07
-1.806e-14
1.74134e-09
-1.3525e-07
-1.04812e-14
1.38657e-09
-8.49687e-08
-1.24961e-15
-1.73832e-08
-1.02213e-15
2.42954e-11
-7.92088e-09
-5.9235e-15
1.40743e-10
-2.47645e-08
-1.00722e-14
2.2616e-10
-4.40063e-08
-6.51056e-15
2.58944e-10
-6.37275e-08
-1.23986e-14
3.61211e-10
-8.60778e-08
-1.48986e-14
6.28994e-10
-1.12145e-07
-1.48006e-14
1.19403e-09
-1.36373e-07
-1.9748e-14
1.88848e-09
-1.35944e-07
-1.10423e-14
1.51883e-09
-8.45991e-08
4.09027e-18
-1.58644e-08
-3.87016e-15
2.66466e-11
-7.94753e-09
-6.73616e-15
1.67653e-10
-2.49055e-08
-9.80137e-15
2.37392e-10
-4.40761e-08
-7.55561e-15
2.78093e-10
-6.37681e-08
-1.24994e-14
3.99139e-10
-8.61988e-08
-1.53163e-14
7.00482e-10
-1.12446e-07
-1.55761e-14
1.30746e-09
-1.3698e-07
-1.76279e-14
2.04889e-09
-1.36685e-07
-1.17917e-14
1.6679e-09
-8.4218e-08
-1.64337e-15
-1.41965e-08
-1.57122e-15
2.85442e-11
-7.97608e-09
-7.07242e-15
1.85791e-10
-2.50627e-08
-9.73719e-15
2.37781e-10
-4.41281e-08
-8.20722e-15
2.87796e-10
-6.38182e-08
-1.44537e-14